/*--------------------------------*- C++ -*----------------------------------*\
  =========                 |
  \\      /  F ield         | OpenFOAM: The Open Source CFD Toolbox
   \\    /   O peration     | Website:  https://openfoam.org
    \\  /    A nd           | Version:  12
     \\/     M anipulation  |
\*---------------------------------------------------------------------------*/
FoamFile
{
    format      ascii;
    class       volScalarField;
    location    "2.125";
    object      p;
}
// * * * * * * * * * * * * * * * * * * * * * * * * * * * * * * * * * * * * * //

dimensions      [1 -1 -2 0 0 0 0];

internalField   nonuniform List<scalar> 
183995
(
1.18617
0.805569
1
0.824369
1
1.0031
1.06836
0.995682
0.777598
0.935307
0.867126
1.12818
0.868315
0.999885
1.10564
1.10477
1.10396
0.937224
1
1.10313
1.13523
1.15793
1.18308
1.00882
1
0.944494
1
0.598967
1
1.00886
1.11526
1.00859
0.871171
1.09828
0.870976
1.12687
1
0.999997
1
1
0.678981
1.003
1.09467
0.966551
1.09999
1.00228
0.803363
0.952415
0.85285
1.00217
1.00218
1.14027
0.96197
1
1.00889
1.1561
1.30349
0.871015
0.860789
0.872908
1.08788
0.601138
0.620728
1.10935
1.04908
1.1787
1.09141
1.18031
1
1
1.11369
0.878893
0.878207
1
0.945202
1.17566
1
1.26329
1.07977
0.871955
0.873087
0.999972
1.12356
1.13895
1.00268
0.99998
1
0.850043
1.26268
0.99999
0.878189
0.87956
0.897848
1
1
1
1.15442
0.998072
0.859075
0.800878
1.15386
1.13412
0.811409
1
0.693611
1.01234
1.1521
0.815174
1.03752
1
1.10233
0.677284
1
0.968488
1.13767
1.11026
1
0.859101
1.46385
0.981115
1.1332
1.12223
0.938752
0.884328
0.884437
1.2338
1
1.02231
1
0.997176
0.951515
1
1.0938
1.18093
1
0.941504
1.13275
1
1.10722
1
0.858435
0.890896
0.891858
0.895669
0.897087
1.1161
1.13176
1
1.26572
1.10075
1
0.891027
0.89336
1.11444
1.12147
0.785705
1.11391
1
0.594174
1
1
1
1
1.25227
1.11108
1
1.10667
1
0.870461
0.870718
0.946715
1.11038
0.77274
0.906371
0.807812
0.906314
1
1.11518
0.990716
1
0.660989
0.734576
1
1.09233
0.996612
1.11194
0.817945
1
1
1.07723
0.972447
1
1
1.10558
1.11545
0.823877
1
1
1.16915
1.11352
0.99424
1.11613
1.10646
0.996243
1.21099
0.908261
1.12185
0.907389
0.996653
0.933754
0.814607
0.816134
1
1
1
0.81703
1
0.953692
1
0.653576
0.641437
1.0079
0.9132
0.912955
1.02199
1
1
0.96364
0.950118
1.10668
1.12098
1.11015
1.09747
0.989023
0.934125
1
0.956881
0.698137
0.630537
1.108
0.689105
0.865125
1
1
1
1
1.24395
0.942918
1
1.10812
0.97701
0.915423
1.09665
0.914594
1.03081
0.880695
1.01111
0.881286
0.954297
1.03706
0.967798
0.989574
0.822763
1.08702
0.920542
1
1.23144
0.921286
0.915923
1.01301
1
1
0.890668
1
0.984027
0.876139
0.938023
0.877184
0.996568
1.0871
0.98614
1
0.926971
1
0.960602
1
1
0.584345
1.11788
0.927434
1
0.797389
1.00036
1
1
0.999677
0.945956
1
1.0029
0.988911
0.921902
1
0.988634
1
1.10723
0.961406
0.931068
0.958802
1
1
0.944311
1
0.70409
0.550039
0.977972
1
1
0.884936
1
0.930687
0.884748
0.938453
1
1.09566
1.07587
1
1
0.654385
1
1.38121
1
1.09713
0.9994
1
1.0885
0.991172
0.932639
0.932999
0.984548
1.08738
1
0.945271
1.10162
0.985272
1
1.11343
0.928546
1
0.956158
1
0.987531
0.928555
1
0.970524
1
0.992008
1.03946
0.767179
1.03893
0.878233
0.617888
0.87727
1.00543
1.0739
0.963605
0.973199
1
0.981458
0.959455
0.800245
1
0.747873
1
1.09311
0.95254
1
1
0.947005
1.11089
1.18295
1.1772
0.693499
0.970951
0.601586
1
0.893234
1
0.892104
1
1
1
0.920958
1
1
0.960971
1
0.954663
0.966364
0.797778
1
1
1
1
0.773083
0.972244
0.922668
0.861511
1
0.972945
1.20117
1.0584
0.922146
0.832613
1
1.24729
0.720989
0.945986
1
1
1
0.786542
1.15602
1.15254
0.995932
1.01208
0.950674
1.10902
1.10953
1
1
0.936409
1
1.02765
0.953048
0.98981
1.02725
0.896765
0.614007
0.898829
0.96643
1
1
1
1
0.791146
1
0.957645
0.751211
0.826152
1.08723
0.81129
1
1
0.782986
0.863256
1
0.943701
1
0.939096
0.918995
0.956485
1.01339
0.893444
1
0.825009
0.903177
0.89534
0.965488
0.918126
0.962322
1.13889
1.13644
1
0.953369
1.01304
0.956156
1
1.12017
1
0.895159
0.895262
0.969244
0.779267
0.925426
0.997643
1.05871
0.989916
0.9458
1.09722
1.09764
0.899006
0.897881
0.81065
0.823466
0.89543
0.807168
1.09997
1.09952
1.13414
1.13211
1
0.961613
1.09477
1.09473
0.836114
1
1.10637
1
0.937438
1
1
0.92523
1
0.695778
1
0.789661
0.938995
1.10513
1.10479
1
0.953476
1
0.759115
0.995724
1.0934
0.905812
1
1.15341
0.906724
1.21117
1
0.996467
1
1
0.962593
0.580108
1
0.810201
0.997185
0.949169
1.10237
0.809039
1
1
1.10928
1.10898
0.951065
0.566408
1.00399
1
1.09912
1
0.88342
1
1
1.09915
0.927393
0.883389
0.966305
0.817171
1.08834
1.08812
0.954293
1
0.800362
1.01004
1.11195
1.11184
1
1
1
0.956204
1.1222
1.12039
1.01519
0.968112
1
0.818406
0.945675
0.984633
1.24829
0.994791
1.11314
1.11294
0.811194
0.905179
1
1
0.995205
0.941745
0.902238
0.996989
0.901206
1.08553
1.08532
1
1
0.953904
1.1139
1.09383
1.11389
1
0.941772
1
0.774128
0.785452
0.946402
0.945952
0.874139
0.939005
0.952519
1.08228
1.0822
0.939373
0.985457
1.11596
1.11438
0.863959
0.937595
1
1.08982
1.08984
1
1
1
1.01498
0.939023
1
1.24186
0.865005
1.11277
1.11109
1
1.22936
0.955356
0.946647
0.977517
0.824075
0.908477
0.993473
1
0.837922
1.03087
0.863593
0.991445
1
1
0.953523
1.07487
1.07477
1
0.641368
1
1
1
1.08324
1.10985
1.12056
0.946727
1.10191
0.987355
0.827179
0.934709
1.11003
0.906473
0.948461
1
0.907302
1
1.07156
1.07137
0.62396
1
0.978748
0.864734
1
1
1
0.920806
1
1
1.06844
1.06823
1.17067
1.07743
0.987234
0.799845
1
1.05208
0.57813
0.947926
0.951237
0.920957
1.00292
1
1.11642
0.967229
1.00937
0.799667
0.731392
0.942199
0.824333
0.928958
1
0.960343
0.983248
1
1
0.933517
1.10769
1.2252
1.17898
0.943924
1.00896
0.887979
1.00145
1.02294
0.973594
0.933935
0.886975
0.941954
1.07451
1.09749
1.09568
1.10127
1.06034
1.06013
0.867357
0.629256
0.967532
1
0.975905
1
0.968748
0.968239
0.962347
0.975779
0.909
0.912139
1
1.10563
1.05661
1.05646
0.927657
1.39608
1.09963
0.555941
1
0.958855
1.06739
1
0.9549
1
1
1
1
1.02771
1.15385
1
1.05306
1.05282
1
0.928249
1
1
1.08701
1.08753
0.976364
0.938567
0.952818
1.30089
1
0.771303
1.0299
1
0.977146
0.57283
0.94006
0.957801
0.908565
1
1.04945
1.04924
1
0.96121
0.963127
0.866129
0.973751
0.859014
1
0.932314
1
1
1
1
0.834975
0.698936
1.0465
1.04588
1.04569
0.570521
0.957034
1
0.910142
1.01596
1.00036
1.04665
1.27479
0.961265
1
1.03354
0.982805
1
1
0.894888
0.911128
1
0.631549
1.04396
0.946854
1.20527
1
0.990565
0.91315
1.10562
0.914608
1.13644
1.04408
0.96984
1.31664
0.660103
1
0.993768
1
0.902598
0.992112
1
1
1.13281
0.98062
1
0.899034
1
0.889846
1
0.84166
0.948081
1
0.941532
0.892195
1.0525
0.993356
0.991477
0.679724
0.891273
1
1
1.00002
0.828412
0.913364
1.04028
1
1.0365
1.03624
1.04051
0.829605
0.747802
0.798783
0.889474
1
0.913998
1.19871
1.06602
1.01041
1
0.555449
0.977272
1.04813
1.10525
1
1.03333
0.940319
1.03388
0.968077
1
0.841211
0.94713
0.911531
0.978172
1.00008
1
0.982572
0.907957
1.01518
1
1
0.775235
0.965822
1
0.883898
0.910301
1
1.02793
1.05221
1
1
0.749716
0.953028
0.957587
1
0.89871
1
0.987429
1
0.880718
1
1
0.947811
1
0.991138
1
1
1
0.945199
0.905911
1
0.967085
0.867399
1
1
0.958039
1
1
0.900197
0.77339
1
0.949016
0.824733
1.03003
0.957778
1
1.03073
0.790718
0.974078
0.937307
1
0.679829
0.982445
1.01894
1.1098
1.1154
0.919263
1
1
1
0.906212
1
1
1
1.07891
1
1
1
1
1.07099
0.904195
1
1.00728
0.991606
0.922319
0.863662
0.928651
0.94011
0.83944
1
0.939439
1
1.15848
0.983417
1.02837
0.938943
0.963176
0.950916
0.902259
0.81877
1.04245
1
0.974987
0.989896
1.03384
1
1.11279
0.955329
0.940036
0.953562
0.586294
0.788086
1
1
1
0.901394
0.983837
1.13618
0.979925
0.590797
0.978797
1
1
1
1
0.965204
0.997143
0.951951
1.02786
0.974154
1
1
1.01009
1.21757
1
1
1.01848
0.864794
1.00644
1.03459
0.66497
0.932551
1.00281
1.10787
0.861104
1
1
1.11294
0.957255
1
1
1.18812
0.964296
0.83192
0.823175
0.947197
0.95239
1
1.02432
1
0.96859
0.938331
1
1.02504
0.870504
1.00939
1.00175
0.952125
0.954203
1
0.870842
0.986733
0.946872
0.940109
1
1
0.92689
0.927996
1
1
1
0.997011
0.949007
0.970627
1
1
1.09113
0.939771
1.03644
1
0.879572
1
0.939369
0.869453
0.958273
0.816631
0.954236
0.778653
0.885815
0.965658
0.887179
1
1
0.951989
0.912681
0.963408
0.902516
1.01306
1
0.95604
0.958791
0.969002
0.859226
0.940032
0.985506
0.837692
1
0.987969
0.983264
0.984051
1
0.793064
1
1.07034
1.29668
1
1
0.949492
1.01695
0.967728
0.962627
1
1.10147
0.816403
0.789978
0.923012
0.829381
1.09397
1.0584
0.576196
1.08207
1.01765
1
1
0.991611
1.05636
0.912278
1
1
0.879231
0.830956
1.06106
0.947343
0.9293
0.932173
1
1
0.932596
0.868018
1.09303
1
0.853874
1
0.97396
1
1.08744
0.899388
0.922866
1.05274
1.29969
1
0.587339
1
0.990143
0.991216
0.981935
1.07261
1
0.870293
0.848825
0.987374
1.01555
1.01164
1
1.07892
1
0.859624
0.989857
0.985868
1
0.994501
0.941731
0.971429
1.18482
1
0.939535
0.820045
1.07689
1.12062
0.625208
1
1
0.90171
0.826782
0.98015
1
1
1.31174
0.899083
0.943771
1
0.923064
0.989178
1.02875
0.983092
0.973087
1
1.03709
0.855168
0.940591
1.14293
1
0.909096
1
0.860293
1.10299
0.973462
0.940291
1.22011
0.990431
0.979616
0.985291
1.11112
1.0717
0.945677
1.10834
0.525391
0.791875
0.94021
0.808805
1.0773
1.07642
0.925602
0.958288
1
1
0.988124
0.838771
1.08821
0.831803
0.821532
0.839567
1
0.786973
0.633823
1.19955
0.944713
1.0588
0.849426
1
0.808414
0.913746
0.626494
0.982629
1
1
0.825963
0.837559
1.05743
1.054
1
0.802212
0.828946
0.806031
1
1
0.740753
0.805764
0.848011
1
0.938588
0.988528
1.05239
0.953618
0.814059
0.747929
0.985665
0.975368
0.896325
0.941595
0.978086
0.97333
0.825317
0.941388
1
1
0.939483
0.895682
0.83933
0.975538
0.930995
0.823546
0.824098
1
0.828199
0.839653
1
0.782824
1
1
0.86702
1
0.971079
0.974517
0.955499
0.974746
1
0.888114
0.976842
1
0.919288
0.926121
0.983151
0.802135
1
1.00057
0.678841
0.831665
0.829662
0.858728
0.901871
0.832346
1
1
1.12521
0.981873
0.984877
0.996053
0.610169
1.06914
1.06914
1.06948
0.889126
1
0.923183
0.847089
0.617351
1.00938
0.852134
1
1
0.846942
1.31491
0.850222
0.847779
0.960061
1
1
0.977353
0.850227
1
1.06953
0.950499
1
0.828222
0.592764
1.07734
1
0.905214
1
0.891004
0.859207
0.718742
1
1
0.858821
1.07748
1.43373
1
0.903104
0.923685
0.9726
1
1
0.829126
0.828822
1.06968
0.693791
1
0.970884
1
0.828312
1
0.98281
1
0.85526
1
0.97646
0.902558
0.86491
0.951464
1.15766
1.11768
0.897295
0.928455
0.643633
1.05543
0.897394
0.968302
0.965615
0.904887
0.852651
0.827453
0.981509
1
0.877854
1
1
0.854125
1.02634
0.961181
0.636478
0.950563
0.904432
0.715465
0.847407
1.17635
0.954344
0.825064
0.972183
0.838396
0.93253
0.853581
1
1
1.09657
1
1.10731
0.836285
0.938912
0.839474
0.837881
0.910099
0.799551
0.969165
1.03255
0.828373
0.911274
0.966682
0.821047
1.00971
0.955546
0.963244
0.963714
1
0.797986
0.737132
1
1.06837
0.899933
0.939737
0.973505
0.975137
0.881391
0.98973
1
0.964409
1.03789
0.911736
0.90858
1.09822
0.7292
1.14258
0.870984
0.870216
0.864657
0.875568
0.867015
1.09521
0.819115
0.874225
0.863881
0.861217
0.932551
0.960248
1
1.13673
0.841272
0.979506
0.944718
0.981329
0.981619
1.18369
1.15576
0.831639
1.15615
1
0.981405
0.823777
1.1722
1.10016
1.09646
1.19122
1.15384
1.16856
1.09627
1
1.09872
1.0014
1.09851
1
0.966207
1.14199
0.973824
0.866478
1.10019
0.866513
0.870312
0.87074
1.13756
1.13509
0.960647
1.07421
0.853858
1.10001
1
1
0.929634
0.961468
1
1
1.13439
0.819837
0.80994
1.049
1
1
0.835125
1
0.901606
1
1.07192
0.9485
1.14187
0.950617
1.09967
0.949234
0.85512
1.13868
1.13692
1
1.07386
1
0.969241
1
1
1.09836
1.05381
0.581072
0.98047
1
1
0.900979
1.02718
1.15639
0.903711
0.979703
0.824264
1.13489
0.811889
1.09992
0.995977
0.990956
0.99015
0.921649
1.13059
1
0.87326
1
0.981003
1.14101
1.14709
1.14644
0.84139
1.07902
0.981814
1.0434
1.07055
1
0.94381
1.07287
1.11372
1.11191
0.982064
0.817816
1.28403
1.05526
0.847995
0.97544
0.981995
0.80874
1
0.805635
1.07073
1.07703
0.723171
1
0.916643
0.954991
1.0962
1
1.15589
0.830327
1
1
1
1.15135
1
0.888467
1.16362
1
1
1.16303
0.947767
0.953953
0.975779
1.59143
1.17342
0.83458
1
0.85009
0.952683
0.921358
0.911579
0.816374
1.12049
1
0.952537
0.81472
1
0.79707
0.890909
1
1.03292
1
1.0707
0.818094
0.921742
1
0.952347
1.07492
0.949745
0.543203
1
0.981495
1
0.789117
1.10243
0.9661
0.942144
1
1.02277
0.802969
1.07448
1.29004
1
0.856084
1.03453
1.03704
0.893414
0.953985
1
1
1
1
0.980504
0.849515
0.852297
1
0.947972
1
1
1
0.944832
0.955972
1
0.684901
0.948027
0.981795
0.922368
0.918055
0.949834
1
1.09519
1.10117
1
1.09783
0.894325
0.933391
0.956151
1.10553
0.582646
0.815745
1.09873
0.873793
0.900352
1.10377
1.0966
1.16085
0.974633
0.836528
0.838944
0.846982
1.15272
1
1
1.14068
0.799587
0.87094
0.888156
1
0.887995
1.02239
1.13883
0.81704
0.833452
0.99142
0.947332
1
0.993362
1.15304
1
1.24611
1.12816
0.972436
1.15062
0.971427
0.951759
1
1.03104
0.80416
1
0.823605
0.824697
0.837644
0.939505
0.884321
1.07313
1
0.720719
1.01088
1
1.05685
1
1.13491
0.641231
0.829271
1.0818
0.885055
1.08063
1
1.14404
0.97659
1.10518
0.747612
0.874898
1.06109
0.88826
0.861954
1.05552
1.12633
0.859884
1.12701
1.14351
0.967134
0.859759
0.933065
1.06333
1.05756
1.15846
1.07653
0.844363
1
0.912216
1
0.938092
1.08671
1.09394
0.991202
0.915463
1
1
1
1.00248
1
1
1
1
1.02521
0.916627
1.13734
1
1.0624
1
1.11819
0.845927
0.892552
0.826703
1.08023
1.17623
1.13825
0.63467
0.970649
1.07441
1.07187
0.800064
1.09946
0.848375
1.01759
0.841876
0.92402
1
1.01039
1.18336
0.939654
0.845957
0.889103
1.11251
0.896264
0.998733
0.937842
1.12106
1.00256
1.08459
0.828167
0.83701
0.984478
1
0.883865
0.882595
0.890964
0.937299
0.935717
0.975959
0.907817
0.946346
0.853521
1.0992
1.14432
1
1.02889
0.847556
1
0.899455
1
1
1
1
1.17593
1.07338
1.09731
1.12716
1.0108
1.15068
0.916056
1
0.980689
1
1
0.841397
0.874621
0.95315
0.918362
0.947758
0.957903
0.949131
0.955367
1
0.949475
1
1
1.0516
1
1.21126
0.919912
1
1.10101
1.09463
1
1.09652
1.19534
1.02118
1.1602
0.934533
0.920718
1.06923
1.10071
0.96794
0.828433
1
1.07839
1.09575
1
1
1
1.02693
0.831505
0.967806
0.926336
0.841817
1.09787
1.04886
1.10071
1.13958
1.18028
1
1
1
1
1.57152
1
0.82426
1.05662
0.838884
1
0.914463
0.988844
1.03276
1.11784
1
1
1
1
1
1
1
1
0.990831
0.989139
1.07765
1.07452
1.06956
0.845101
1
1
1.06562
0.977804
1.05982
1
0.928989
1.09727
0.964551
1
0.832302
1.00917
0.903233
1
1
1
1
0.885227
1
1.10143
1
0.967267
0.953858
0.78713
0.800762
1.33708
1.05781
0.832242
1.02659
0.844356
1.10779
1.02738
0.857981
0.903801
1.09231
0.655278
1
1.0591
1.22207
0.833059
0.832642
0.943977
0.940643
1.1446
1.19518
1
1.02715
1.16489
0.904461
1
0.627315
1.05545
1
0.847163
0.834419
0.843054
1
0.876542
1
1.05718
0.832477
1
1
0.958965
0.911933
0.731983
0.914297
1
0.830118
1
1
0.937205
0.939583
1.18541
1.1055
0.878906
0.847312
1.16505
0.818539
0.778309
0.908976
0.909881
0.956353
1.06521
1.08743
1.10573
0.924799
0.924945
1.10385
1.09097
1.11904
1.17972
1
1
1.06037
1.06788
1.05236
1.06825
1.06925
1.0687
0.949585
0.841127
1.07224
1.07221
0.848122
0.728753
1.1211
1.09755
0.951309
0.823805
0.766311
0.849477
0.779419
1.15023
0.58212
0.81909
0.818882
1.01674
0.81923
0.878499
0.737064
1.00891
0.928302
0.950975
0.842279
1.1365
0.937914
1.05165
0.933392
0.993623
0.924602
0.914544
0.984192
0.832437
0.834888
0.969079
0.969742
0.83949
0.833221
1.11011
1.03907
1.09965
0.85238
0.933526
0.843682
0.983647
0.984067
1.08065
1.0791
1.081
1.0795
1.07403
1.07517
1.07186
0.989255
1.08027
1.07565
0.98981
1.07055
1.07465
1.0725
1.06809
1.07088
0.945374
1.06602
0.934149
1.06843
1.06436
1.06652
0.931798
1.0616
1.06495
0.860344
1.05966
1.06219
1.05758
1.06006
0.837636
1.05448
1.05798
1.05224
1.05486
1.0501
1.05274
0.861952
1.05067
1.04675
1.0683
1.04732
1.04465
0.996084
0.894174
0.91545
1.0452
0.966986
1
1.04236
0.839567
1.04276
0.973002
0.837104
1.03891
1.03943
0.853234
1.03536
0.873701
1.03582
0.920723
1.03163
0.835721
1.07044
1
1.03215
1.15743
1.23211
1
0.834006
0.832815
1.02803
1.01189
1.02866
1.01214
0.899988
1.21761
0.945416
1.02476
1
1.10182
0.999918
1.0254
0.943283
1.14696
1.0264
0.827896
1.02161
1.02192
1.01857
0.85151
1.01898
0.851719
1.23301
1.01625
1.01673
1
1
1.01237
0.825892
1.13918
1.09033
1.01311
1
1
1.00897
1.0284
1.00979
1.02851
0.921291
1
0.951625
1.11084
0.967148
0.942339
0.958729
0.882125
0.934683
1.04572
0.980641
1
1
1.04592
0.976375
0.980621
0.995896
0.986581
0.806977
0.876676
1.06284
0.853515
1.06278
0.851997
1.10073
1.09563
1.04257
0.888429
0.879769
1.09758
1.01059
1.07122
0.890188
0.991658
1.07109
0.984868
0.836159
1.09627
0.981488
0.871343
0.856718
0.857588
1.09688
0.883872
1.02521
0.869645
0.924284
1
0.829965
0.865919
0.953993
0.868428
1.13998
0.827377
0.834839
0.923955
1
0.828376
0.992834
0.957007
0.827967
0.955001
0.842499
1.13629
0.830366
1.0418
1
0.869918
0.95364
0.581885
0.892739
0.854469
1.09681
1.13083
1.09639
0.858888
0.861265
0.848024
0.942965
0.850725
0.850515
1
0.852724
1.13063
0.865154
1.06058
0.89828
0.889451
1
0.951998
1
1.10528
0.954455
1.10479
0.853431
1
1.0684
0.858384
1.14925
0.897201
0.92417
0.947047
0.945406
0.855838
0.80151
0.788802
0.946947
0.825997
0.82324
0.825666
0.786956
0.812311
0.850631
0.992378
0.837829
0.823554
0.862145
0.824784
1.17089
0.80135
0.812771
0.793605
0.827804
0.833224
1.00953
0.795535
0.828021
0.948224
1.03686
0.954229
0.845937
0.877916
0.851599
0.952027
1.06757
0.86478
1.1419
1.121
0.953222
1.03901
0.950149
1.1043
0.94856
0.949173
1.13557
1.20958
1.0385
0.841012
0.969012
1.09182
0.937434
1.1202
0.763875
1
1.10002
0.902432
0.909229
0.83889
1.27744
1.09187
0.965115
0.845923
0.964336
0.846786
0.881194
1.14101
1.09704
0.91185
1.09941
0.845032
1.01451
0.937972
1.01621
1
0.82498
0.824445
1.09485
0.835792
0.947594
1.09669
0.745325
0.837604
1.01211
0.886534
1.21021
0.948432
0.981463
0.827678
1.01966
0.836511
1
0.990781
0.9518
0.836999
0.782491
0.829456
1.09643
0.953425
1.0192
0.777341
0.968633
0.981177
1.14529
0.96814
0.981224
0.837982
0.99281
1.0289
1.00907
0.981293
0.979904
0.839936
1.05711
0.929725
0.840108
0.816205
0.834463
1.02038
0.776067
0.796607
1.099
1.06555
0.99238
0.801661
1.00546
0.954326
0.676188
1.10432
1.11756
0.662282
0.974479
1.16543
0.935561
0.964981
0.856788
1.01413
1.09996
1
0.961659
0.841827
0.991672
0.973863
1.05786
1.08931
0.980586
1.09861
0.946419
0.970515
0.848607
0.851191
1.24832
1.0884
1
1.17657
1.13561
1.03962
1.02863
0.867567
1
1.10495
1.10476
1
0.971602
0.948124
1.01718
1.018
0.953061
1.11864
1.10615
0.823094
1.11817
1
1.12932
0.924019
0.936165
1.09843
1.09871
1.12876
0.87151
0.818842
1.14183
0.8789
1.14092
1.1436
0.80431
1.05674
0.947672
1.10046
0.795057
1.09753
1.12986
1.46483
1
0.939128
0.958577
0.952118
1.08976
1.10053
0.886443
0.957682
1.05337
0.92581
1.17639
1.09909
1.28046
1.01638
1.15653
1.16176
0.846729
0.841029
0.950437
0.950937
1.11885
1.08959
0.9797
1.0994
1.14082
1.15209
0.839191
1.07728
0.828414
0.898974
0.836294
0.837925
1.13222
1.09649
1.05773
0.963695
1.09515
0.900119
0.887212
0.87192
1.09944
0.854881
1.1514
1.01731
1.09851
0.800809
0.97371
1.15117
0.803774
0.923846
1.05969
1.0182
0.850147
1.00017
1.15652
0.851448
0.909377
0.842274
0.849686
1
1.12381
0.82777
1.09
0.873121
0.880793
1.09944
0.906414
0.895359
0.85938
1.14579
1.02377
1.02528
0.911219
1
1
0.948926
0.837078
1.09733
0.995847
0.842395
0.828373
0.996449
1.09617
1
1.05161
1.08948
0.864392
0.893508
0.901275
1.09811
1.10023
0.854713
0.903701
0.70667
0.843919
0.911113
0.893916
1.10015
0.912756
0.981443
0.899676
1.01661
0.915896
0.931134
0.812508
0.911872
1.07109
0.907546
1.08769
0.95055
0.919482
0.98406
0.919684
0.984852
0.925384
1
0.993267
0.922837
0.979302
0.930511
0.994691
0.867418
0.982545
0.927708
0.983209
0.976149
0.975813
1.12913
0.939623
0.969731
0.968336
0.867694
1.09948
0.981823
0.933485
0.952337
0.967868
0.975117
0.974738
0.945277
1.12583
0.942551
1.14281
0.907352
1.10103
1.08062
0.982024
0.949366
1
1.11646
0.948559
0.951592
1.10162
0.874517
0.973227
0.967418
0.95444
0.981928
0.98073
0.96007
0.960511
0.963206
1.15814
0.967777
0.9593
0.972544
0.967048
0.823165
1.12782
0.873734
0.974234
0.979935
0.973728
1
0.975309
0.951565
0.981487
0.985638
0.946755
1.15224
0.900637
0.953537
0.876828
0.987256
0.991501
0.994852
0.87956
0.93259
1.12094
1
0.873537
0.870385
0.943073
0.998776
1.01759
0.860306
1.00397
1.06718
1.00737
0.896584
1.0567
0.627614
0.679505
0.837012
1.01106
1.01386
0.991378
1.09769
0.914227
1.01832
0.980519
0.949404
0.841904
1.18599
0.907015
1.08048
1.08074
0.856374
1.02404
1
1.0516
0.898853
0.888862
0.888441
1.02617
1.0308
1
1
1.03441
0.935133
0.80504
0.940216
1
0.953959
0.943791
1
0.944401
0.952116
0.945478
1.09916
0.971305
1.09148
1.03998
1.09726
1.08634
0.909265
0.909427
1.04436
1.04698
0.927959
0.905694
1
1
1.09143
1.00005
1.05261
0.959904
0.878329
0.829334
0.859165
0.907305
0.820073
1.05709
0.835202
0.936201
0.953646
1.0535
1.18637
1.0935
1.05376
0.886714
0.66344
0.933972
0.948686
0.877078
1.06713
1.06221
1.06442
1.07298
1.09723
0.832376
1.09167
0.854698
1.02834
1.14521
0.715682
1
0.935634
0.954437
0.858455
1.1944
1
0.952023
0.950272
0.954952
1.09382
1.07077
1.07205
1.09852
0.979019
1.11719
1.04918
1.09591
1.1938
0.912532
1.07905
0.845536
0.960529
0.930347
1
1.098
1
1.02839
0.976404
0.950024
0.95111
0.974541
1.15107
1
1.08348
0.930125
0.930336
0.945727
0.950295
0.855902
1.12598
1.0142
0.950277
1.1903
0.946302
1
1.23863
1.09719
1.10505
1.08875
1.01776
0.917156
0.850796
0.956789
1
0.856339
1
1.01349
1.09554
0.953874
1
1.09577
1.2036
1.05985
0.785316
0.970545
1.09653
0.855477
0.858558
1.11581
1.10161
1.13283
0.937715
0.968049
0.92287
1.1043
0.861445
0.950889
0.8899
0.911946
0.946075
0.953409
1.1047
0.859883
0.952861
1.05288
0.95181
0.949714
0.824517
0.96284
0.827069
0.828788
0.87178
1.01366
1.01405
1.111
0.956454
0.835383
1.1319
0.955721
0.944295
1.01462
0.866137
1
1.11392
1
0.872626
1.01151
1.10308
1.10306
0.950685
0.832258
0.871917
1.01154
1.09471
0.835775
1.13218
0.945183
1.01986
1.0588
1.05897
1.14166
1.01098
1.10082
0.875646
0.827851
0.957568
0.801815
0.879326
0.68553
1.24116
1.0996
1.12128
1.15754
0.836058
0.939626
1
1
0.939347
0.880048
0.89688
0.883471
1.12033
1.13546
1
1.14878
1.01291
1.06155
1.1976
0.849047
0.959631
0.911706
0.886067
1.01681
0.851287
0.847375
1
0.840314
0.956818
0.85834
0.84944
1.01118
1.16194
1.12532
0.855594
0.648982
1.16014
0.845308
1.43986
0.905325
0.949171
0.64461
1.10674
0.887427
0.880318
1.01826
1.09393
1.01364
1.01805
0.84331
0.849132
0.947488
1.12834
1.02518
0.852178
1.09822
0.85228
1.05157
0.783395
0.900211
0.954047
1.02144
1.09548
0.932333
1.13764
0.524348
1.13261
0.952842
1.03699
0.951382
0.972202
1.09903
1.12935
1.12673
0.824609
1
1
0.825577
0.964432
1
1.01531
1
1.01839
0.951788
1
0.93929
1.10006
0.960048
1.09991
1.01345
1.13198
0.917935
0.827912
0.936595
1.00032
0.86493
0.864273
1.08264
1
1.02129
0.897045
0.877623
1.02432
0.936203
0.852256
1.16778
1.02459
1.13323
0.863931
0.861337
0.86139
0.863397
0.967569
1
0.852549
1.02998
0.852977
0.955821
1.18885
1.13243
0.943637
1.14225
1.13595
0.885142
0.869231
1.32713
0.795939
0.855787
1
1
0.707136
0.85585
0.856356
1.05958
0.893012
0.777804
0.884693
0.865705
0.865202
0.839284
1
0.948907
0.962954
1.13206
0.968238
1
0.872757
0.858197
0.965708
0.991902
1.08213
1
1.14315
1.10598
1.01709
0.859853
0.859856
0.907616
1
1
0.896132
0.861401
0.952986
0.994527
0.952287
0.9504
1
0.951392
0.897258
1.13161
0.953405
0.952956
1.171
0.897758
1
1
0.946593
0.882212
1
0.906536
0.881727
1.21171
1.10098
0.902016
1
0.911086
0.971911
0.914591
0.885406
0.884661
1.15297
1.00659
1
0.917829
1.13053
0.94411
1
0.808399
0.920171
1
1.00184
0.960423
0.822596
1.14182
1.1286
0.856832
0.846806
0.868408
1
0.872009
0.9275
0.870182
1.11623
1
0.872455
1.13572
0.928245
1.08157
0.913606
0.94548
0.937519
0.827199
0.824042
0.897953
1.12988
0.897936
0.735302
0.89134
0.932104
0.973408
0.981389
0.905068
1.08136
1.10385
0.944867
0.841276
0.887627
0.893441
1.07859
0.871976
1.07796
0.830018
1.07702
1.07451
1.08093
0.939955
0.912963
0.906819
0.906276
0.87706
0.952743
0.949281
0.900022
1.12764
0.878189
0.94402
1
0.949232
0.836517
1.12768
1
0.911206
0.954212
1
0.91333
1
0.958086
0.878931
0.919929
0.851482
1.06995
0.95962
1.03571
0.966241
0.881663
1.12573
1
1.01257
0.88215
0.924666
1.02064
1.07348
1.07748
1.07737
0.931037
0.973926
0.928688
1.15735
1.14278
1.17225
1
1.18521
0.93816
0.978418
0.936525
1.12346
1
1
1
0.942458
1
0.829323
0.916307
0.945338
1.05925
1.05916
1.16023
0.91923
0.948069
1
1.12109
0.952884
0.99335
0.677006
1.15785
1
0.954618
0.938355
1.1196
0.997951
1.00032
0.889713
0.829144
1.05852
0.967524
1
0.960485
1.00247
0.989652
0.961555
1.11735
1
1.09948
0.989665
1.00551
1.18216
0.84158
1.18891
0.967546
0.930525
0.929312
1.11503
1.09619
0.97341
1.11263
0.986787
0.874034
0.878171
0.980135
0.974828
1.11012
0.846007
0.848298
0.934641
0.934502
1.01775
0.986066
0.818702
1.23089
1.10761
0.89126
0.958812
0.984921
1.02224
1.00687
0.915136
1.07046
1.0702
1.01157
0.820397
1.0036
0.992227
0.886061
0.886698
1.05653
1.009
0.995964
1.03332
0.843679
1.01043
0.99939
0.964681
1
1.03879
0.707682
1.0043
0.96959
1.01801
0.87456
1.02471
1
0.984136
1.02956
0.957171
1.01539
0.956926
0.956568
1.14174
1.0511
0.935394
0.890556
1.01885
1.05209
1.05677
0.935006
0.883852
1.06191
1.05264
1.05927
1.05384
1.05518
0.954886
1.04052
0.887732
0.95386
1.09646
1.09154
1.06256
0.848996
1
0.967357
1.03191
0.899233
1.11188
1.0356
0.893706
1.01154
0.939946
0.895498
1.10647
0.897301
1.14307
1.00001
0.972167
0.972097
1.05892
1.17088
1.02691
1.04792
0.923845
1.10404
1.07767
1
1.05354
1.23531
1.06648
0.882546
0.936697
1.0819
1
1.01606
0.959452
1
0.897322
0.901297
1
0.98648
0.98686
0.989277
0.940154
1.0882
0.935387
0.903387
0.831374
0.939489
0.83125
0.931997
0.939989
1.1085
1.07385
0.951296
1.12049
1.09717
0.936442
0.848433
1.13542
1.29916
0.881399
1.26718
1.05828
1.08002
1.20685
0.851836
1.04517
1.11727
0.975525
0.948293
0.958448
1.09025
1.08552
0.982112
1.00001
1.00868
1.12941
1.00911
0.819459
0.955958
0.925766
1.01146
1.08066
1
0.842561
0.847837
0.854939
0.876611
1.01366
0.831479
0.941754
1.09805
1.09274
1.10005
1.10943
1.0979
0.943984
0.978952
0.860801
0.944792
0.957274
1.01398
0.943291
1.02045
1.0208
1
0.840848
0.857963
0.96927
1.11345
1.24454
1.02714
1.01964
0.930999
0.993187
1.14968
0.85366
0.936965
0.907238
0.929579
1.01323
1.13268
1.10564
1
1.03385
1.03424
0.943677
1.11648
1.15092
1.11266
1.20212
1.07846
1.01273
1.00945
0.876747
1.00936
1.09152
0.929627
0.909826
0.930242
1.09651
0.991977
0.995058
0.932049
1.02977
1
1.11348
1.03084
1.03436
0.835055
1.03777
1.0271
1.0458
1.04579
1.02318
1.04115
1.11608
1.03109
1.03477
1.02732
1.03823
1.02379
1.0417
1.01533
1.0085
0.893072
1.01118
1.02468
1
1.00669
1.04902
1.01558
1
1.01108
1.01149
0.845698
1.04944
0.94112
1.09499
0.850972
1.11583
1.24231
0.845971
0.958839
1.05661
1.10173
0.888297
0.966852
0.966079
1.1254
0.95578
1.05714
0.954734
0.944001
1.03712
0.95136
0.951147
0.954193
0.950104
1.06194
1.10099
1.06215
0.937985
1.0633
1.07337
1.06379
1.12723
0.969391
0.880434
1.15598
1.00931
1.01106
0.941423
1.01674
1.01962
1.06954
0.946909
0.944368
0.94154
0.952044
1.05251
1.07018
1.05493
1.12226
1.12964
1.01529
1.15445
0.942077
1
1.07316
1.07363
1.07606
1.07602
0.93622
1.01827
1.1257
1.02558
1.01721
1.13281
1
1.07677
1
0.865146
0.834476
1
0.962711
1
1.06568
1.12986
0.875503
0.864809
1.09568
0.87463
1.13282
1.01599
0.936919
1.08055
1.05418
1.08065
0.943776
0.864034
0.95401
1.07334
1
1.10071
0.842748
1.13095
1.00006
1.10751
0.809557
0.896633
1
1.07256
1.08176
1.08146
0.946251
1.13272
1.07194
1.08173
1.08208
0.945013
1
1.07188
0.835218
0.943868
0.933511
0.832713
1.03634
1.09402
0.937156
1.09387
1.13197
0.952599
1.01161
1.08246
1.1333
1.04736
1.03443
0.96029
1.1338
1.23515
1.0165
0.955831
1.22449
0.95703
1.13246
0.957829
0.940713
1.01619
1.13352
0.78682
0.943448
0.751177
0.89357
0.702352
0.882664
1.13084
1.00011
0.901629
1.00001
0.889245
1.07904
0.930475
1.13211
1
0.946451
1.08492
0.946355
1.08308
1.09006
1.08734
0.810862
1.10931
0.882064
1.09185
1.09335
1.07964
1.014
0.782368
1.08801
1.07934
1.0861
1.08369
1.10923
1.0969
1.09717
1.09041
1.07551
0.851572
1.09271
1.02909
1.14026
1.09433
1.09509
1.02559
1.07626
0.994821
1.09541
1.06871
1.09745
0.906278
1.09887
1.13127
1.07088
1.07184
1.1721
0.878955
0.755292
1.09496
1.09913
1.28302
0.875185
1.02563
1.06976
0.816726
1.0212
1.10148
1.06554
1.12629
1.10169
0.830252
1.10159
1.06592
1.10178
1.10166
1.02356
1.1016
1.06171
1.12385
1.0628
0.956157
1.05916
1.10179
1.10179
0.956818
1.10117
1.03068
1.10098
1.12201
0.988741
0.955748
0.945513
0.959577
1.06011
1.1158
1.11332
1.12716
1.11088
1.10838
1.10568
1.0583
1.0558
0.911491
0.955326
0.957262
1.05254
0.843573
1.08765
0.983968
1.09709
1.12805
1.05652
1.12535
1
0.97153
0.950695
1.12703
1.11898
0.851036
0.849179
1.1156
1.11045
1.00262
1.05304
1.19008
0.846593
1.12341
0.645672
0.849234
1.19943
1.17891
1.18111
0.937163
1
0.966427
1.04918
1.09679
0.885501
1.05006
1.04597
0.843264
0.832007
1.11701
1.11452
1.11211
1.10704
1.10963
0.949225
1.0468
1.01561
0.937142
1
1.02822
1.04103
1
1.02943
1.02891
0.942116
0.987048
1.00702
1.1114
1.03657
1.04189
1.19614
0.912209
0.998542
1
1.07756
1.03751
0.860657
0.823632
1.07718
0.95749
0.829551
1.03481
1.03353
0.959515
1
1.03834
1.14118
0.849812
1
0.888649
1.07469
1.03547
1.14091
0.919699
1.14581
0.830892
0.857044
0.861073
0.93635
1.03073
0.862337
1.03224
1.02788
0.8515
1.03139
0.941857
1.09981
1.0996
1.12977
1.02878
0.9468
1.14937
1.09037
0.891623
0.930882
0.890841
1.01401
0.972856
1.02493
0.843847
1.15776
1.09412
1.09221
0.839833
1.02544
1.02095
1.02683
1
1
0.99572
1.09881
0.892171
0.842638
0.853183
1.0554
1.09443
1.02155
1.11694
0.996631
1.30158
1.07297
0.914272
1.32022
1.04548
1.28416
1.01815
0.960443
1.10203
1.03028
1.01909
0.844277
1.06165
0.947372
0.905292
1.03988
1.09862
0.831558
1.12637
1.13036
1.32203
0.843708
0.852273
1.00597
0.966911
0.925118
0.902314
1.01308
0.96477
1.00794
1.13419
1.01401
0.794676
0.952015
1.10193
1.11113
1.05288
1.10179
1.01044
0.793856
0.965911
1
1.04751
0.973284
1.10656
0.947842
1.01062
1.03824
0.951572
1.1108
0.952468
1
1.05901
1.19328
1.00601
1.10399
0.922707
1.03529
0.919309
0.870852
1.20376
1.06086
1.00636
1.00028
1.00707
0.916107
1.19664
0.999697
0.933479
1.00377
0.801229
1.00454
1.11613
0.96315
0.793247
0.913452
0.865662
0.994782
0.872357
1.11592
1.12152
1.12079
0.923881
0.870409
0.936119
1.04564
0.92572
1.12044
0.950416
0.891183
1.0002
0.973828
0.73972
0.951933
1.0257
0.898518
1.19825
1.03376
0.953128
1
0.993667