/*--------------------------------*- C++ -*----------------------------------*\
  =========                 |
  \\      /  F ield         | OpenFOAM: The Open Source CFD Toolbox
   \\    /   O peration     | Website:  https://openfoam.org
    \\  /    A nd           | Version:  12
     \\/     M anipulation  |
\*---------------------------------------------------------------------------*/
FoamFile
{
    format      ascii;
    class       volScalarField;
    location    "14";
    object      p;
}
// * * * * * * * * * * * * * * * * * * * * * * * * * * * * * * * * * * * * * //

dimensions      [1 -1 -2 0 0 0 0];

internalField   nonuniform List<scalar> 
9801
(
0.610615
0.612828
0.616299
0.624371
0.636292
0.644135
0.647839
0.650229
0.652138
0.652987
0.653774
0.655311
0.657621
0.660489
0.665761
0.676796
0.688101
0.694208
0.69754
0.700074
0.701253
0.701304
0.702349
0.704531
0.707349
0.711285
0.720516
0.734666
0.743732
0.748078
0.751004
0.752381
0.752211
0.75287
0.754826
0.757795
0.761641
0.769142
0.784788
0.797516
0.803386
0.806948
0.808403
0.807325
0.806986
0.808884
0.812037
0.81606
0.822821
0.840168
0.857993
0.866369
0.870695
0.872099
0.868731
0.86717
0.869224
0.872614
0.877238
0.884728
0.904782
0.92723
0.939085
0.945189
0.947352
0.940151
0.935383
0.93718
0.942516
0.949413
0.95993
0.987192
1.01429
1.02883
1.03701
1.03991
1.02812
1.0181
1.01985
1.02792
1.03955
1.0667
1.11285
1.14157
1.15743
1.1692
1.17039
1.15067
1.13507
1.14036
1.16044
1.20746
1.28867
1.35408
1.41014
1.47209
1.48205
2.30537
9.97544
0.616354
0.61934
0.623166
0.632493
0.642708
0.649177
0.653428
0.656667
0.658842
0.658122
0.658272
0.660442
0.663409
0.666617
0.672171
0.683775
0.693533
0.699223
0.703161
0.70632
0.706502
0.704887
0.706446
0.709521
0.712993
0.717093
0.726574
0.739871
0.748183
0.753113
0.75693
0.758342
0.755166
0.755408
0.758412
0.762345
0.766569
0.773697
0.789203
0.801851
0.808224
0.812625
0.815078
0.810561
0.808246
0.81107
0.815431
0.820113
0.826587
0.842924
0.860722
0.87006
0.875566
0.879167
0.873618
0.867889
0.870051
0.874745
0.880124
0.887327
0.906754
0.929394
0.94168
0.948695
0.953121
0.946363
0.936711
0.937776
0.944113
0.951473
0.962255
0.989461
1.01703
1.03149
1.04057
1.04662
1.03635
1.02012
1.02082
1.03061
1.04298
1.06877
1.10927
1.1375
1.15482
1.17028
1.18027
1.16033
1.1386
1.14563
1.16737
1.20206
1.26472
1.32174
1.37195
1.42203
1.41351
2.20816
10.1355
0.618631
0.621922
0.625901
0.635307
0.645477
0.651511
0.655628
0.658989
0.661441
0.661036
0.660829
0.662796
0.665781
0.669137
0.674709
0.686379
0.696008
0.701465
0.705433
0.708755
0.709278
0.707623
0.708982
0.71199
0.715587
0.719724
0.72894
0.742171
0.750329
0.755304
0.759346
0.761238
0.758246
0.758145
0.760994
0.764923
0.769171
0.775814
0.79094
0.803665
0.810246
0.814962
0.817898
0.81395
0.81137
0.813958
0.818177
0.822908
0.828899
0.844148
0.86194
0.871598
0.877544
0.881829
0.877809
0.871096
0.872151
0.87667
0.882577
0.889796
0.907563
0.929945
0.942723
0.950143
0.955592
0.952069
0.941254
0.939883
0.945487
0.952879
0.962844
0.987708
1.01493
1.03067
1.04094
1.04944
1.04497
1.02677
1.02323
1.03174
1.04345
1.06253
1.10074
1.13678
1.15886
1.17513
1.18796
1.17451
1.14861
1.14673
1.16739
1.19625
1.24844
1.30823
1.35725
1.40676
1.40554
2.20335
10.1471
0.621651
0.62513
0.629514
0.639163
0.649162
0.65502
0.658962
0.662252
0.665019
0.665068
0.664198
0.665738
0.668563
0.672107
0.678183
0.689881
0.699414
0.704829
0.708754
0.712158
0.713276
0.711248
0.711924
0.714563
0.718154
0.722678
0.732168
0.745441
0.753696
0.758686
0.762787
0.765309
0.762339
0.761028
0.763224
0.766883
0.771318
0.778269
0.79337
0.806609
0.813548
0.818444
0.8221
0.81912
0.814855
0.816161
0.819789
0.82455
0.830798
0.845719
0.86407
0.874341
0.880542
0.88551
0.883928
0.875582
0.87452
0.878304
0.88402
0.891355
0.90798
0.931018
0.945163
0.953144
0.959274
0.95976
0.947468
0.941884
0.946329
0.953711
0.96297
0.984813
1.01446
1.0329
1.04406
1.05325
1.05551
1.03786
1.02617
1.03118
1.04268
1.05756
1.08985
1.13046
1.15642
1.17335
1.1885
1.18938
1.16591
1.15188
1.16218
1.18747
1.22281
1.27584
1.32347
1.36827
1.38403
2.2506
10.1824
0.624485
0.627935
0.632364
0.642492
0.652441
0.658152
0.662033
0.665272
0.668101
0.668579
0.667332
0.668535
0.671159
0.674512
0.680684
0.692762
0.702465
0.707906
0.711828
0.715232
0.716978
0.714887
0.714829
0.717181
0.720511
0.724785
0.734326
0.748244
0.756875
0.761871
0.765889
0.768793
0.766419
0.764202
0.766083
0.76947
0.773523
0.779883
0.794759
0.808929
0.816424
0.821405
0.825449
0.824271
0.818604
0.818796
0.822319
0.82692
0.832772
0.846613
0.865202
0.876261
0.88283
0.88805
0.889555
0.881328
0.87714
0.880098
0.885583
0.892409
0.906738
0.930264
0.946295
0.955101
0.961671
0.966028
0.957155
0.945827
0.946706
0.953593
0.962258
0.979196
1.01001
1.03279
1.04512
1.05458
1.06233
1.05273
1.03335
1.03005
1.04
1.05338
1.07644
1.11742
1.15201
1.17372
1.19066
1.20271
1.18934
1.16774
1.16223
1.17816
1.20551
1.24857
1.29536
1.33301
1.35181
2.28752
10.2113
0.627712
0.631103
0.635151
0.645444
0.655872
0.661674
0.665543
0.668743
0.671574
0.672353
0.670904
0.671801
0.674277
0.67739
0.682801
0.695169
0.705717
0.71143
0.71537
0.718723
0.720947
0.719062
0.71809
0.720119
0.72329
0.727116
0.735629
0.750449
0.760127
0.76542
0.769405
0.772578
0.771233
0.767642
0.768511
0.771704
0.775718
0.78138
0.795424
0.810805
0.819285
0.824633
0.828955
0.830288
0.824196
0.821301
0.823866
0.828297
0.833832
0.846205
0.865603
0.878226
0.885545
0.891209
0.895504
0.890657
0.881575
0.881039
0.885829
0.892342
0.904124
0.92804
0.947479
0.9576
0.964631
0.971019
0.969097
0.954056
0.948231
0.953003
0.961132
0.973434
1.00144
1.03141
1.04795
1.05808
1.06708
1.06661
1.04625
1.03454
1.03834
1.04985
1.06536
1.09764
1.13839
1.16688
1.18698
1.20469
1.20978
1.19018
1.17306
1.17361
1.19026
1.21942
1.26259
1.30035
1.32009
2.32398
10.243
0.630798
0.634085
0.637829
0.647794
0.658752
0.664783
0.66868
0.67192
0.674828
0.675848
0.674098
0.6746
0.677017
0.680187
0.685234
0.697221
0.708361
0.714438
0.718561
0.722053
0.724872
0.723505
0.721082
0.722452
0.725553
0.729458
0.737257
0.751973
0.762596
0.76842
0.772641
0.776303
0.777206
0.772238
0.770512
0.773042
0.777151
0.782967
0.796286
0.812274
0.821615
0.827415
0.83209
0.835743
0.832064
0.825286
0.825177
0.82898
0.834283
0.845001
0.865223
0.880182
0.888226
0.89409
0.899374
0.899505
0.888461
0.883297
0.886398
0.892381
0.901273
0.922916
0.947369
0.960316
0.967743
0.974326
0.977397
0.964798
0.953644
0.954388
0.961212
0.970087
0.988954
1.02313
1.04774
1.06092
1.0707
1.07774
1.06672
1.04624
1.04025
1.04664
1.05875
1.07901
1.11751
1.15472
1.18052
1.19984
1.21642
1.21342
1.19333
1.18005
1.18367
1.19999
1.23104
1.2707
1.29359
2.34995
10.2774
0.633826
0.636904
0.640393
0.649966
0.661666
0.668076
0.672005
0.675232
0.678148
0.679567
0.677515
0.677155
0.679316
0.682446
0.68744
0.699371
0.711147
0.717465
0.721667
0.725252
0.728464
0.728413
0.724741
0.724739
0.727406
0.731117
0.738457
0.753254
0.764934
0.771238
0.77573
0.779697
0.782513
0.778584
0.773995
0.774973
0.778525
0.783582
0.795839
0.813237
0.823893
0.830011
0.834904
0.839381
0.839568
0.830909
0.827643
0.830253
0.834958
0.842961
0.862505
0.881661
0.891439
0.89746
0.902804
0.905893
0.897054
0.887936
0.888384
0.893427
0.899922
0.914663
0.942695
0.961813
0.971184
0.978012
0.983794
0.978337
0.962616
0.957333
0.961034
0.96866
0.97943
1.00719
1.04182
1.062
1.07405
1.08393
1.08703
1.06628
1.04787
1.04702
1.05594
1.06901
1.09426
1.13357
1.16606
1.18937
1.20852
1.22209
1.21713
1.19773
1.18484
1.18797
1.20245
1.23634
1.26614
2.37857
10.3111
0.636829
0.639683
0.642766
0.651184
0.663775
0.671167
0.67539
0.678672
0.681581
0.683503
0.681573
0.680239
0.681885
0.684783
0.688949
0.700036
0.713343
0.720622
0.725059
0.728665
0.731939
0.732986
0.72897
0.727591
0.729609
0.732961
0.738643
0.753011
0.766804
0.774099
0.778898
0.782958
0.786481
0.784804
0.778477
0.777825
0.78069
0.784861
0.793777
0.812454
0.826227
0.833248
0.83821
0.842692
0.844997
0.837789
0.831512
0.832561
0.836768
0.84235
0.856996
0.880379
0.894058
0.901024
0.906419
0.910956
0.906937
0.894907
0.891693
0.894955
0.900507
0.908627
0.931833
0.95955
0.973906
0.981879
0.988595
0.990748
0.976422
0.962512
0.961303
0.967248
0.975602
0.991178
1.02661
1.05808
1.07492
1.08572
1.09463
1.09139
1.06808
1.05429
1.05586
1.06513
1.07924
1.10876
1.1468
1.17602
1.19758
1.21619
1.22503
1.21849
1.19939
1.18454
1.18485
1.20022
1.23325
2.39987
10.3453
0.64
0.642676
0.645512
0.652302
0.66522
0.673928
0.678577
0.682017
0.685013
0.687391
0.686089
0.683783
0.684883
0.687545
0.690991
0.699791
0.714552
0.723558
0.728411
0.732132
0.735457
0.737485
0.733852
0.730885
0.732237
0.735347
0.73965
0.75151
0.767843
0.776914
0.782051
0.786181
0.789971
0.790718
0.78404
0.781285
0.7833
0.787094
0.792854
0.80919
0.827242
0.836305
0.841631
0.846109
0.849718
0.845583
0.836713
0.835573
0.838795
0.843611
0.851922
0.874297
0.894577
0.904092
0.909999
0.915252
0.91679
0.905299
0.896324
0.896445
0.900892
0.907112
0.920408
0.950772
0.974245
0.98544
0.992702
0.998931
0.994485
0.97456
0.965391
0.967449
0.974512
0.983252
1.00384
1.04234
1.06983
1.08457
1.09544
1.10447
1.09777
1.07245
1.06047
1.06375
1.07407
1.09025
1.1221
1.15691
1.18298
1.20324
1.22047
1.22593
1.21793
1.19702
1.17882
1.17636
1.19233
2.40364
10.3798
0.64331
0.645688
0.648347
0.65358
0.666053
0.676255
0.681528
0.6852
0.68833
0.691084
0.690923
0.687754
0.688033
0.690379
0.693482
0.699749
0.714519
0.725869
0.731504
0.7354
0.738785
0.741529
0.739352
0.734769
0.735209
0.73794
0.741585
0.749792
0.767142
0.779175
0.785108
0.789367
0.793223
0.795711
0.790611
0.785333
0.78629
0.789489
0.79375
0.804466
0.825377
0.838494
0.844854
0.84953
0.853775
0.853824
0.844196
0.83927
0.840821
0.844944
0.850386
0.86528
0.891374
0.906574
0.913818
0.919214
0.923504
0.918069
0.903512
0.898818
0.901673
0.907416
0.914782
0.935558
0.967773
0.986039
0.994978
1.00185
1.00727
0.99708
0.977093
0.970763
0.973122
0.979921
0.989964
1.0173
1.0569
1.08209
1.09606
1.10656
1.11255
1.10102
1.07768
1.0681
1.07207
1.08245
1.10066
1.13428
1.16648
1.18977
1.20757
1.22207
1.22476
1.21451
1.19099
1.1684
1.15577
2.38166
10.4164
0.646692
0.648648
0.651131
0.65508
0.666212
0.678189
0.684398
0.68832
0.691557
0.694487
0.695597
0.692182
0.691235
0.693227
0.696192
0.700573
0.713298
0.727358
0.734366
0.738548
0.742011
0.745134
0.745076
0.73965
0.738414
0.740685
0.744004
0.749073
0.7641
0.780223
0.788005
0.792637
0.796576
0.800028
0.798023
0.790659
0.789266
0.79163
0.795373
0.801477
0.819918
0.839106
0.848001
0.853158
0.857555
0.860711
0.853963
0.844175
0.84313
0.846265
0.851077
0.858883
0.882092
0.905961
0.916957
0.92313
0.928186
0.930161
0.917225
0.905024
0.903963
0.907653
0.913584
0.923028
0.951316
0.981851
0.996878
1.0056
1.01316
1.01631
0.998145
0.97841
0.974766
0.979577
0.987605
0.998984
1.02989
1.06794
1.09023
1.10327
1.11395
1.11996
1.10733
1.08363
1.07469
1.07923
1.09014
1.11083
1.14531
1.17466
1.19525
1.21136
1.22181
1.22166
1.20825
1.1773
1.13992
2.33308
10.4509
0.650123
0.651468
0.653828
0.657068
0.665968
0.679552
0.687185
0.691413
0.694744
0.697738
0.699802
0.697091
0.694713
0.696158
0.698942
0.702372
0.711488
0.72745
0.736787
0.741594
0.745238
0.748547
0.750418
0.74576
0.742127
0.743427
0.74638
0.750111
0.760102
0.779067
0.790432
0.795991
0.800081
0.803835
0.805041
0.79755
0.792553
0.793717
0.797031
0.801434
0.813071
0.836138
0.85023
0.856692
0.861257
0.8654
0.864379
0.852418
0.846572
0.848204
0.852357
0.857547
0.870393
0.898674
0.91757
0.925766
0.931503
0.93662
0.934622
0.91763
0.907795
0.908028
0.91249
0.918961
0.933235
0.967951
0.995398
1.00762
1.01487
1.02098
1.02163
1.00176
0.984715
0.982455
0.986431
0.993818
1.00734
1.04185
1.07831
1.09951
1.11245
1.12283
1.12585
1.11149
1.08921
1.08087
1.08518
1.09619
1.11978
1.15512
1.18212
1.19998
1.21332
1.21924
1.21728
1.19443
1.14694
2.27594
10.4859
0.653621
0.65429
0.65651
0.659471
0.66578
0.679824
0.689675
0.69449
0.697918
0.700966
0.703614
0.702469
0.698769
0.699167
0.701569
0.704631
0.710228
0.725539
0.738535
0.744604
0.748519
0.751941
0.754882
0.752684
0.746681
0.746148
0.748571
0.752021
0.757803
0.775031
0.79169
0.799176
0.803601
0.807397
0.810464
0.806037
0.797366
0.796273
0.799016
0.802935
0.808968
0.828157
0.849811
0.859658
0.864973
0.869308
0.872554
0.864995
0.853165
0.850975
0.853373
0.857885
0.864177
0.884457
0.913325
0.928095
0.9355
0.941352
0.945838
0.936719
0.917615
0.911303
0.913746
0.919173
0.925793
0.943743
0.980467
1.00416
1.01525
1.02387
1.03143
1.02895
1.00503
0.988621
0.987561
0.993329
1.00186
1.01699
1.0525
1.08632
1.10573
1.11837
1.12856
1.13154
1.11635
1.09369
1.08528
1.08928
1.10034
1.12648
1.16185
1.18667
1.20238
1.2123
1.21606
1.20711
1.17025
2.23389
10.5224
0.657504
0.65733
0.65927
0.662032
0.666157
0.678441
0.691319
0.697495
0.701235
0.704415
0.707352
0.708041
0.70368
0.70225
0.703993
0.706827
0.710597
0.72215
0.738857
0.747356
0.751822
0.75536
0.758626
0.759315
0.752695
0.749363
0.751022
0.754163
0.758095
0.769332
0.789949
0.80155
0.806965
0.810893
0.814534
0.814716
0.805288
0.800053
0.801351
0.804607
0.808833
0.818985
0.843681
0.860935
0.868282
0.873141
0.877513
0.87785
0.864711
0.854983
0.854948
0.858466
0.863537
0.872592
0.899822
0.925869
0.937116
0.943219
0.94848
0.952127
0.939703
0.922007
0.917403
0.918879
0.923622
0.931138
0.954937
0.993621
1.01594
1.02589
1.03278
1.0385
1.03386
1.01094
0.99652
0.995771
1.00053
1.00848
1.02596
1.0628
1.09412
1.11218
1.12434
1.13385
1.13576
1.12031
1.09724
1.08815
1.09131
1.10203
1.13025
1.16584
1.18897
1.20227
1.20895
1.20877
1.19449
2.22051
10.5595
0.661979
0.660666
0.661999
0.664486
0.667541
0.676161
0.691619
0.700399
0.70472
0.707998
0.710988
0.713042
0.709502
0.705635
0.706445
0.709017
0.712253
0.719175
0.736536
0.749342
0.755075
0.758799
0.762147
0.764722
0.760488
0.753931
0.753818
0.756421
0.759841
0.765529
0.783727
0.802068
0.809969
0.814437
0.818248
0.821376
0.816184
0.806028
0.803967
0.806141
0.809877
0.815095
0.832064
0.857723
0.870846
0.877306
0.881997
0.885949
0.880847
0.865002
0.858852
0.860349
0.864233
0.869393
0.881889
0.912991
0.935724
0.945826
0.952652
0.958673
0.959743
0.941431
0.924091
0.921222
0.924992
0.93078
0.938376
0.96405
1.00183
1.02179
1.03189
1.04053
1.04764
1.04152
1.01659
1.00177
1.0013
1.00722
1.01615
1.03543
1.07175
1.10056
1.11764
1.12972
1.13896
1.1408
1.12355
1.09888
1.08903
1.09156
1.10169
1.13128
1.16688
1.18825
1.19953
1.20243
1.20892
2.23827
10.6003
0.667011
0.664345
0.664617
0.666859
0.669696
0.674924
0.689735
0.702419
0.708065
0.711489
0.714486
0.717188
0.716037
0.710267
0.709306
0.711421
0.714386
0.718379
0.731462
0.749276
0.757772
0.762187
0.765735
0.769021
0.768845
0.760806
0.757225
0.758721
0.761691
0.765451
0.775843
0.79827
0.812018
0.817985
0.821981
0.825764
0.826545
0.8158
0.807851
0.808326
0.81154
0.815681
0.82293
0.846313
0.869435
0.879201
0.884665
0.889332
0.892977
0.883745
0.867834
0.863357
0.864833
0.868811
0.874671
0.89278
0.926639
0.946724
0.955116
0.960211
0.965408
0.965561
0.946465
0.930981
0.928287
0.930085
0.935014
0.943944
0.973922
1.01254
1.0326
1.04198
1.049
1.05382
1.04663
1.02357
1.00939
1.00837
1.01315
1.02157
1.04385
1.08128
1.10829
1.12384
1.13487
1.14312
1.14445
1.12622
1.09985
1.0887
1.09029
1.09959
1.13037
1.16561
1.18613
1.19308
1.21092
2.2845
10.6483
0.672043
0.668859
0.667561
0.669514
0.672243
0.675648
0.686093
0.702399
0.710729
0.714841
0.717995
0.720925
0.722245
0.716801
0.71287
0.713897
0.716489
0.719683
0.726758
0.745573
0.759603
0.76565
0.769411
0.772782
0.775349
0.770132
0.76202
0.761228
0.763687
0.76705
0.771913
0.788807
0.810796
0.820839
0.825866
0.829618
0.833117
0.829017
0.81623
0.811982
0.813558
0.816661
0.821007
0.832008
0.859779
0.879464
0.887932
0.893625
0.898563
0.899842
0.884705
0.86966
0.867356
0.870554
0.875219
0.881143
0.902339
0.935972
0.953662
0.962466
0.969526
0.975429
0.972264
0.949373
0.933526
0.932095
0.936655
0.942985
0.951997
0.981735
1.01869
1.0372
1.04675
1.05503
1.06157
1.05453
1.02974
1.01409
1.01275
1.01851
1.02815
1.05261
1.08905
1.11398
1.12882
1.13989
1.14804
1.14883
1.12823
1.09977
1.08706
1.08762
1.09615
1.1279
1.16263
1.17941
1.20432
2.34526
10.6999
0.676732
0.674933
0.671336
0.672445
0.674829
0.677617
0.68319
0.699256
0.712354
0.718016
0.721467
0.724504
0.727126
0.724684
0.717716
0.716597
0.718725
0.721768
0.725711
0.738727
0.758626
0.768286
0.772909
0.77637
0.779652
0.779593
0.77002
0.764815
0.76599
0.768907
0.772416
0.779878
0.802446
0.82127
0.828942
0.833541
0.837402
0.839794
0.830452
0.818033
0.815643
0.817893
0.821559
0.826601
0.843224
0.87267
0.888871
0.895684
0.900171
0.904819
0.905177
0.888338
0.875221
0.873457
0.875267
0.879471
0.886705
0.913073
0.947571
0.964157
0.971374
0.976
0.981082
0.978021
0.95632
0.94222
0.940484
0.942657
0.947543
0.957374
0.989856
1.02712
1.04585
1.05508
1.06222
1.06675
1.05993
1.03679
1.02088
1.01858
1.02283
1.03167
1.05869
1.0966
1.12125
1.13507
1.14459
1.15153
1.1517
1.13048
1.09963
1.08428
1.08347
1.09137
1.12508
1.15524
1.18831
2.40932
10.7484
0.680831
0.681944
0.676198
0.67539
0.677183
0.679862
0.6833
0.694192
0.711797
0.720666
0.724891
0.727952
0.730802
0.731804
0.725035
0.720275
0.721325
0.724127
0.727358
0.73342
0.752321
0.769119
0.776026
0.77993
0.783343
0.786211
0.78137
0.77109
0.768809
0.770683
0.773763
0.77779
0.790078
0.815535
0.830761
0.837449
0.841842
0.845631
0.845264
0.830943
0.820602
0.820362
0.823428
0.827327
0.832895
0.853659
0.882607
0.896487
0.903434
0.909052
0.913895
0.910488
0.890252
0.877802
0.877622
0.88162
0.886439
0.893596
0.92054
0.953437
0.968743
0.977374
0.984713
0.990373
0.985299
0.961744
0.946049
0.944158
0.948525
0.9549
0.965089
0.996676
1.03187
1.04953
1.05916
1.06749
1.0736
1.06735
1.04225
1.02418
1.02104
1.02588
1.03596
1.06428
1.10167
1.1252
1.13858
1.14826
1.15485
1.1544
1.1324
1.09872
1.08026
1.07755
1.08651
1.11846
1.16169
2.46385
10.7841
0.684441
0.687959
0.682557
0.678857
0.67993
0.682447
0.685329
0.690749
0.707198
0.721641
0.727636
0.731133
0.734221
0.736999
0.734416
0.726214
0.724534
0.726545
0.72947
0.732921
0.743412
0.765473
0.778119
0.783574
0.787069
0.790403
0.791495
0.781529
0.772962
0.772892
0.775754
0.779263
0.784062
0.801595
0.826963
0.838962
0.844691
0.848958
0.852882
0.850026
0.834003
0.82564
0.8257
0.828015
0.832008
0.839441
0.865223
0.893276
0.905581
0.911332
0.915253
0.920111
0.916287
0.896052
0.885264
0.884285
0.88599
0.890353
0.899027
0.929699
0.963725
0.978974
0.985875
0.990718
0.995866
0.992328
0.970191
0.954783
0.952177
0.954202
0.958999
0.969914
1.00448
1.04008
1.05718
1.06584
1.07295
1.07836
1.07349
1.04897
1.02969
1.02539
1.02853
1.037
1.06622
1.10544
1.12982
1.14268
1.15096
1.15642
1.15541
1.13406
1.0981
1.07502
1.07064
1.07799
1.12586
2.49615
10.8097
0.687837
0.692339
0.690193
0.684122
0.683179
0.685034
0.687628
0.690709
0.70049
0.719508
0.729948
0.73465
0.737851
0.740827
0.742352
0.735213
0.728711
0.729015
0.731561
0.734747
0.739314
0.755465
0.776779
0.786233
0.790819
0.794111
0.797348
0.794703
0.781995
0.776848
0.778171
0.780958
0.784385
0.790685
0.813102
0.836787
0.847061
0.852764
0.857418
0.861033
0.853708
0.835734
0.828691
0.830283
0.834023
0.838197
0.846163
0.873847
0.90029
0.911623
0.918596
0.92446
0.928945
0.921621
0.89938
0.887877
0.888202
0.892469
0.897586
0.905708
0.935292
0.967663
0.982506
0.991221
0.998712
1.00432
1.00009
0.976833
0.958974
0.955345
0.959185
0.965595
0.97762
1.01136
1.04397
1.06019
1.0705
1.07949
1.08548
1.07994
1.05319
1.03168
1.02628
1.0298
1.03878
1.06791
1.10709
1.13139
1.14405
1.15218
1.15717
1.1555
1.13517
1.09752
1.07056
1.05715
1.08243
2.48603
10.8282
0.690958
0.696015
0.697205
0.691676
0.686922
0.687494
0.689765
0.692598
0.697268
0.712902
0.730269
0.737583
0.741275
0.744286
0.747207
0.745594
0.735888
0.732385
0.734037
0.736964
0.74007
0.746362
0.767426
0.786311
0.793878
0.798057
0.801432
0.804061
0.796666
0.783919
0.780722
0.782493
0.785636
0.789484
0.798471
0.824705
0.845892
0.854448
0.859183
0.863055
0.866639
0.858144
0.840812
0.835137
0.835788
0.838259
0.842628
0.853021
0.884021
0.910324
0.920929
0.926125
0.929983
0.934788
0.928449
0.906892
0.896309
0.895219
0.896688
0.900929
0.910278
0.942859
0.977231
0.992375
0.999233
1.00415
1.00923
1.00713
0.985517
0.967118
0.962806
0.964519
0.969282
0.98161
1.01819
1.05279
1.06905
1.07716
1.08378
1.08959
1.08551
1.05959
1.03661
1.02978
1.03159
1.03877
1.06679
1.10747
1.13294
1.14529
1.15245
1.15644
1.15446
1.13522
1.09685
1.06055
1.04933
2.43369
10.8437
0.694033
0.699363
0.701666
0.700152
0.692641
0.690606
0.692401
0.695144
0.698118
0.705658
0.72525
0.738867
0.744501
0.747853
0.75097
0.753349
0.747246
0.738145
0.73691
0.738753
0.741573
0.745088
0.754943
0.779178
0.795154
0.801722
0.805673
0.809068
0.810078
0.797915
0.786346
0.785241
0.788
0.791372
0.795158
0.806096
0.834273
0.853386
0.861278
0.866671
0.87147
0.873928
0.861469
0.843216
0.838188
0.840585
0.844791
0.849137
0.859351
0.890399
0.915206
0.925758
0.932952
0.938879
0.943122
0.934781
0.911427
0.898801
0.898479
0.902691
0.90826
0.917421
0.948223
0.980491
0.995104
1.00349
1.01075
1.01657
1.01478
0.993103
0.972162
0.965866
0.968615
0.97481
0.987935
1.02344
1.05539
1.07079
1.08085
1.08993
1.09645
1.09236
1.06464
1.03894
1.03033
1.03192
1.03893
1.06582
1.10647
1.13239
1.14467
1.15147
1.15472
1.15213
1.13377
1.0877
1.04448
2.34926
10.8674
0.696063
0.702316
0.704921
0.707034
0.701754
0.69544
0.695474
0.697546
0.70014
0.703514
0.715577
0.73656
0.746958
0.751606
0.754764
0.75781
0.758099
0.747859
0.740603
0.740995
0.743757
0.74698
0.750838
0.764379
0.789532
0.802901
0.808806
0.812878
0.816376
0.815468
0.801303
0.791664
0.791081
0.792836
0.795972
0.80042
0.815022
0.84444
0.861818
0.868848
0.87285
0.876726
0.879614
0.867098
0.849949
0.845553
0.846282
0.848714
0.853203
0.865541
0.899163
0.924838
0.934902
0.939811
0.943519
0.948048
0.942114
0.920133
0.908016
0.906589
0.908048
0.911865
0.921036
0.953638
0.98821
1.00365
1.01061
1.0157
1.02163
1.02265
1.00239
0.979745
0.972279
0.97275
0.976768
0.988928
1.02649
1.06281
1.08033
1.08856
1.09513
1.10047
1.09743
1.07126
1.04344
1.03268
1.03268
1.03794
1.06249
1.10413
1.13129
1.14349
1.14964
1.15161
1.14916
1.1241
1.07366
2.27046
10.9041
0.697746
0.705761
0.708424
0.711355
0.711216
0.70288
0.698614
0.699628
0.702137
0.705036
0.71004
0.72722
0.746468
0.754486
0.758407
0.761355
0.764305
0.761213
0.74912
0.744841
0.746303
0.748966
0.751917
0.756393
0.773984
0.798825
0.810608
0.816359
0.820712
0.824326
0.820741
0.803571
0.794418
0.795111
0.798501
0.802101
0.806334
0.82247
0.851923
0.867713
0.874801
0.880434
0.885278
0.886714
0.871533
0.853213
0.848525
0.851052
0.855411
0.859937
0.871312
0.903691
0.928042
0.938442
0.945762
0.951833
0.956236
0.950056
0.927596
0.912094
0.909317
0.912762
0.918089
0.927407
0.957968
0.990546
1.00612
1.01567
1.02344
1.02923
1.02911
1.00854
0.983587
0.973892
0.975207
0.980839
0.993598
1.02965
1.06492
1.08189
1.09148
1.09993
1.10633
1.10379
1.07673
1.04598
1.03266
1.03165
1.0364
1.05944
1.10124
1.12898
1.14107
1.14617
1.14824
1.14055
1.11776
2.23434
10.9502
0.698041
0.709236
0.711916
0.714747
0.717137
0.713021
0.704077
0.702548
0.704553
0.707348
0.710262
0.717073
0.737903
0.754878
0.761669
0.765426
0.768496
0.770783
0.763279
0.751453
0.748818
0.750475
0.753373
0.756788
0.76269
0.783767
0.807396
0.817561
0.822486
0.826227
0.829664
0.825363
0.8089
0.801326
0.801433
0.803185
0.806401
0.811517
0.830911
0.861092
0.876389
0.882615
0.886247
0.890425
0.892869
0.878764
0.861195
0.856594
0.857005
0.858989
0.863376
0.876219
0.910889
0.937157
0.947507
0.952645
0.956523
0.961421
0.958607
0.936926
0.920123
0.916537
0.917881
0.921652
0.930477
0.963026
0.998877
1.01524
1.02243
1.02719
1.03301
1.03566
1.01718
0.99114
0.980605
0.979847
0.983035
0.992991
1.02872
1.06867
1.08933
1.0982
1.10437
1.10882
1.10701
1.08281
1.04993
1.03364
1.03097
1.03437
1.05539
1.097
1.12527
1.13696
1.1426
1.14033
1.14664
2.24874
10.9997
0.694969
0.711381
0.715276
0.718159
0.720925
0.72206
0.713918
0.707136
0.707279
0.709225
0.71183
0.715208
0.724991
0.748307
0.763164
0.769147
0.772572
0.775565
0.776436
0.764994
0.754171
0.753191
0.755781
0.758959
0.762167
0.768726
0.79221
0.814704
0.824062
0.829272
0.833714
0.837171
0.830496
0.812188
0.804162
0.805284
0.808751
0.812427
0.817222
0.836912
0.866416
0.88079
0.887969
0.893975
0.898881
0.900184
0.884891
0.865472
0.859129
0.86102
0.865256
0.870048
0.881636
0.914209
0.939594
0.950596
0.958038
0.964124
0.968969
0.96638
0.944928
0.925306
0.919828
0.922546
0.927879
0.936716
0.966481
0.999859
1.01627
1.0263
1.03466
1.04076
1.04255
1.02395
0.995624
0.981932
0.980982
0.985601
0.995768
1.02888
1.06839
1.08905
1.09893
1.10665
1.11256
1.11235
1.08882
1.05297
1.03325
1.02909
1.03149
1.05061
1.09189
1.12034
1.13349
1.13392
1.1583
2.29837
11.0501
0.68832
0.711246
0.718268
0.721849
0.724569
0.727196
0.725324
0.71463
0.710078
0.711334
0.714097
0.717049
0.720928
0.733763
0.757507
0.770309
0.77596
0.779723
0.782874
0.781721
0.768207
0.759283
0.758885
0.760542
0.763348
0.767
0.775639
0.801248
0.822551
0.831244
0.835783
0.839042
0.842321
0.836154
0.818575
0.811296
0.811364
0.812847
0.816151
0.821836
0.843933
0.874723
0.889733
0.895915
0.899469
0.903612
0.906528
0.893718
0.874094
0.867469
0.867451
0.869057
0.873089
0.88512
0.919491
0.947495
0.958866
0.96418
0.968368
0.973913
0.974768
0.95539
0.93408
0.927319
0.927226
0.930021
0.937979
0.969052
1.00738
1.0263
1.03425
1.03915
1.04465
1.04849
1.0331
1.00373
0.988422
0.985743
0.98813
0.994787
1.02494
1.06842
1.09378
1.10443
1.11022
1.11437
1.11457
1.09411
1.05646
1.03282
1.02674
1.0279
1.04544
1.08598
1.11534
1.12422
1.15769
2.36903
11.1022
0.682175
0.703948
0.719108
0.725058
0.728034
0.730607
0.732911
0.727114
0.7164
0.714511
0.71654
0.719315
0.722112
0.726189
0.741854
0.765873
0.77777
0.783312
0.787135
0.790231
0.787039
0.771086
0.762272
0.762757
0.765879
0.76921
0.772584
0.781688
0.808547
0.828796
0.836929
0.842159
0.846806
0.850045
0.841864
0.822609
0.81406
0.814971
0.818484
0.82242
0.827618
0.848473
0.878364
0.893136
0.900696
0.906901
0.911796
0.914106
0.901355
0.879838
0.870235
0.870675
0.874605
0.879505
0.890045
0.92153
0.948711
0.96128
0.970016
0.976682
0.981647
0.981678
0.962359
0.938267
0.929281
0.930783
0.935843
0.944098
0.972018
1.00813
1.02696
1.03734
1.0463
1.05276
1.05605
1.04093
1.00952
0.990472
0.986417
0.989663
0.996752
1.02412
1.06681
1.09282
1.10422
1.11115
1.116
1.11711
1.09901
1.05984
1.03178
1.0231
1.02337
1.04002
1.0807
1.10453
1.14714
2.44614
11.1508
0.681451
0.691366
0.712823
0.726232
0.731678
0.734701
0.737463
0.738416
0.728538
0.719656
0.719059
0.721016
0.723741
0.726936
0.732043
0.750222
0.773526
0.784152
0.789164
0.792927
0.795958
0.791968
0.776519
0.768992
0.769031
0.770581
0.77341
0.777297
0.788633
0.81673
0.836377
0.844147
0.848322
0.851682
0.855511
0.849338
0.830574
0.822092
0.821636
0.822849
0.825953
0.831525
0.853704
0.885872
0.90213
0.908537
0.912001
0.91589
0.919888
0.910965
0.889258
0.878759
0.87756
0.878695
0.882292
0.892493
0.926211
0.957611
0.970759
0.97645
0.980044
0.985208
0.988184
0.971977
0.947751
0.938018
0.936545
0.938171
0.944182
0.970845
1.01255
1.03656
1.04613
1.05145
1.05628
1.06056
1.04975
1.01868
0.997064
0.991267
0.992097
0.996383
1.01947
1.06425
1.09422
1.10696
1.11301
1.11689
1.11809
1.10273
1.06304
1.03038
1.01882
1.01777
1.03545
1.07021
1.12343
2.51628
11.1863
0.682765
0.687369
0.698903
0.72158
0.733671
0.738682
0.741501
0.744303
0.743329
0.730953
0.723307
0.723678
0.726375
0.72936
0.732231
0.737278
0.757322
0.780321
0.790477
0.795668
0.799842
0.803196
0.797802
0.780364
0.771969
0.772738
0.77595
0.779292
0.782875
0.793993
0.822366
0.841336
0.849199
0.854933
0.85957
0.862934
0.85586
0.83573
0.824903
0.82476
0.82815
0.832401
0.837497
0.857222
0.888226
0.904355
0.91229
0.918787
0.92383
0.927309
0.919267
0.896523
0.88227
0.880424
0.883852
0.888838
0.897999
0.927957
0.95753
0.971167
0.980238
0.988075
0.993703
0.996007
0.979698
0.952481
0.938987
0.938096
0.942259
0.948929
0.971806
1.01167
1.03591
1.0472
1.05616
1.06319
1.06742
1.05751
1.02508
0.999665
0.991344
0.992476
0.997565
1.01865
1.062
1.09323
1.1068
1.11309
1.11678
1.11783
1.10515
1.06675
1.02956
1.01329
1.01196
1.02628
1.08875
2.56169
11.2098
0.685075
0.688724
0.692568
0.706773
0.729066
0.740288
0.74564
0.749212
0.752127
0.7485
0.734755
0.728785
0.72925
0.730869
0.733479
0.736828
0.743305
0.764982
0.787151
0.796657
0.801268
0.80457
0.807726
0.803414
0.787196
0.779447
0.779243
0.780488
0.783206
0.787235
0.800365
0.830187
0.849475
0.856832
0.860487
0.863495
0.867515
0.863432
0.844395
0.833422
0.832187
0.832986
0.835584
0.840601
0.860715
0.894442
0.912959
0.92012
0.923925
0.927842
0.932585
0.928651
0.90681
0.891519
0.888117
0.887959
0.890494
0.898549
0.929074
0.964651
0.982046
0.989329
0.993831
0.997813
1.00103
0.988663
0.961854
0.947238
0.94406
0.944643
0.948745
0.96783
1.01136
1.04311
1.05579
1.06174
1.06605
1.07008
1.06461
1.03497
1.00675
0.996104
0.995111
0.9977
1.01428
1.05776
1.09158
1.10602
1.11226
1.11588
1.117
1.1067
1.07063
1.0296
1.0081
0.998479
1.04599
2.56084
11.2236
0.687875
0.690817
0.693108
0.697329
0.713941
0.737158
0.748188
0.753238
0.756777
0.759268
0.753283
0.738082
0.731927
0.733165
0.736123
0.739173
0.742036
0.748247
0.771011
0.792952
0.802185
0.807313
0.81182
0.81531
0.80975
0.791626
0.782245
0.782599
0.785751
0.789225
0.792844
0.804649
0.833576
0.852078
0.860127
0.86628
0.871211
0.875081
0.87102
0.851453
0.837192
0.834743
0.837505
0.841639
0.846632
0.863868
0.895717
0.914227
0.923144
0.930426
0.935882
0.940048
0.936593
0.914626
0.895082
0.88942
0.89164
0.896402
0.904631
0.932557
0.966976
0.983763
0.992146
0.99945
1.00563
1.00946
0.998398
0.969076
0.949402
0.944922
0.947815
0.953253
0.969653
1.00976
1.04142
1.05513
1.06388
1.0714
1.07604
1.07138
1.04161
1.00978
0.99558
0.99389
0.997
1.01192
1.05383
1.08926
1.10492
1.11126
1.11453
1.11514
1.10684
1.07365
1.03022
0.997796
1.00629
2.51177
11.2296
0.69071
0.692118
0.69458
0.697854
0.703616
0.722807
0.744829
0.754553
0.759367
0.762915
0.765082
0.75822
0.743884
0.738684
0.739069
0.740318
0.742881
0.746402
0.754262
0.778176
0.799961
0.809135
0.813622
0.816555
0.820066
0.816542
0.799654
0.790481
0.789409
0.789781
0.792018
0.795933
0.809167
0.839852
0.860516