/*--------------------------------*- C++ -*----------------------------------*\
  =========                 |
  \\      /  F ield         | OpenFOAM: The Open Source CFD Toolbox
   \\    /   O peration     | Website:  https://openfoam.org
    \\  /    A nd           | Version:  12
     \\/     M anipulation  |
\*---------------------------------------------------------------------------*/
FoamFile
{
    format      ascii;
    class       surfaceScalarField;
    location    "14";
    object      phi;
}
// * * * * * * * * * * * * * * * * * * * * * * * * * * * * * * * * * * * * * //

dimensions      [1 0 -1 0 0 0 0];

internalField   nonuniform List<scalar> 
19404
(
-0.000138082
1.50087e-07
-0.000137956
8.76257e-08
-0.000137402
1.28382e-07
-0.00013621
1.8581e-07
-0.000135698
1.85037e-07
-0.000135517
1.453e-07
-0.00013553
8.33079e-08
-0.000136748
1.03058e-07
-0.000138786
2.22532e-07
-0.000139797
2.58472e-07
-0.000140165
2.39226e-07
-0.00014027
2.01765e-07
-0.000140231
1.62598e-07
-0.000140041
1.20678e-07
-0.000138901
1.50745e-07
-0.000137883
1.885e-07
-0.000137568
1.65789e-07
-0.000137467
1.10039e-07
-0.00013779
5.60463e-08
-0.000139728
1.41632e-07
-0.00014153
2.66568e-07
-0.000142234
2.67489e-07
-0.000142468
2.41691e-07
-0.000142499
2.03497e-07
-0.000142412
1.49272e-07
-0.000141523
1.14656e-07
-0.000139984
1.70163e-07
-0.000139458
1.41386e-07
-0.000139318
1.01594e-07
-0.00013934
3.57337e-08
-0.000140598
6.38916e-08
-0.00014312
2.00835e-07
-0.000144445
2.8763e-07
-0.000144878
2.81592e-07
-0.000144986
2.57647e-07
-0.000144942
2.03227e-07
-0.000144241
1.63846e-07
-0.000142136
1.90247e-07
-0.000141212
1.34413e-07
-0.000141005
1.22081e-07
-0.000140965
5.00558e-08
-0.00014158
2.82319e-08
-0.000144314
1.35941e-07
-0.000146542
2.73431e-07
-0.000147326
2.7793e-07
-0.000147567
2.80158e-07
-0.000147614
2.4719e-07
-0.000147169
1.84224e-07
-0.000144456
1.69991e-07
-0.000142786
1.38963e-07
-0.000142431
9.34623e-08
-0.000142396
3.09547e-08
-0.000142739
-4.63944e-08
-0.000145496
6.98738e-08
-0.000148692
2.31459e-07
-0.000149946
2.87302e-07
-0.000150345
3.40853e-07
-0.000150428
2.95407e-07
-0.00015012
2.43297e-07
-0.000146863
1.96736e-07
-0.00014396
1.7122e-07
-0.000143315
5.26425e-08
-0.000143353
-2.4774e-09
-0.000143721
-1.20522e-07
-0.000146946
3.89614e-08
-0.000151116
2.18941e-07
-0.000152817
2.42227e-07
-0.000153333
2.9761e-07
-0.000153478
3.35123e-07
-0.000153182
2.70154e-07
-0.000149035
2.28748e-07
-0.000144506
1.42474e-07
-0.000143336
-2.03642e-08
-0.000143416
-9.30415e-08
-0.000144157
-2.86046e-07
-0.000149025
-1.38481e-07
-0.000153878
9.20361e-08
-0.000155706
2.52949e-07
-0.000156235
3.73688e-07
-0.000156409
4.26701e-07
-0.000155427
3.84394e-07
-0.00014862
-2.66042e-08
-0.000142391
-2.713e-07
-0.000141017
-3.63106e-07
-0.000141088
-6.27212e-07
-0.000143965
-8.36607e-07
-0.000152205
-5.31427e-07
-0.000156914
-2.59984e-07
-0.00015816
1.84543e-07
-0.000158487
5.41626e-07
-0.000158095
4.48005e-07
-0.000151969
3.62343e-07
-0.000141098
5.28067e-09
-0.000131689
-6.02099e-07
-0.000129982
-8.07882e-07
-0.000133884
-1.26216e-06
-0.000137682
-8.13764e-06
-0.000109108
-2.80692e-05
2.36458e-05
-0.000138813
3.24129e-07
-0.000138669
2.66594e-07
-0.000138066
2.81116e-07
-0.000136924
3.25324e-07
-0.000136378
3.51262e-07
-0.000136164
2.99521e-07
-0.000136104
2.01288e-07
-0.000137402
2.12933e-07
-0.00013962
3.69011e-07
-0.000140605
4.40407e-07
-0.000140925
4.54733e-07
-0.000140976
3.98145e-07
-0.000140891
3.47979e-07
-0.000140654
3.02994e-07
-0.000139546
2.94572e-07
-0.000138517
3.30828e-07
-0.00013814
3.09601e-07
-0.000138
2.45915e-07
-0.000138233
1.61512e-07
-0.000140339
2.67585e-07
-0.000142222
4.26336e-07
-0.000142905
4.77016e-07
-0.000143111
4.64823e-07
-0.000143115
4.10392e-07
-0.000142988
3.22167e-07
-0.000142126
2.79922e-07
-0.000140577
2.92062e-07
-0.000139952
2.61739e-07
-0.000139757
2.33271e-07
-0.000139732
1.57746e-07
-0.00014094
1.52908e-07
-0.00014364
3.33601e-07
-0.000144984
4.91362e-07
-0.000145404
5.24739e-07
-0.000145497
4.96834e-07
-0.000145454
4.25221e-07
-0.000144814
3.5899e-07
-0.000142735
3.24744e-07
-0.000141679
2.58774e-07
-0.00014136
2.41958e-07
-0.000141289
1.72067e-07
-0.000141757
1.15884e-07
-0.000144631
2.35335e-07
-0.000146992
4.51323e-07
-0.000147805
5.10459e-07
-0.00014803
5.21005e-07
-0.000148053
4.76742e-07
-0.000147632
3.87719e-07
-0.000145056
3.34657e-07
-0.000143212
2.43145e-07
-0.000142697
1.79532e-07
-0.000142626
1.32221e-07
-0.000142841
3.70711e-08
-0.000145481
1.28069e-07
-0.000148859
3.85414e-07
-0.000150228
5.30619e-07
-0.000150632
6.06709e-07
-0.000150734
5.64899e-07
-0.000150508
4.8329e-07
-0.000147521
3.78063e-07
-0.000144413
2.53545e-07
-0.000143558
9.77565e-08
-0.000143478
2.11187e-08
-0.000143695
-8.87131e-08
-0.000146567
-5.85754e-08
-0.000150849
2.88288e-07
-0.000152737
5.27196e-07
-0.000153348
6.56171e-07
-0.000153502
6.58099e-07
-0.000153311
5.41137e-07
-0.000149597
4.09185e-07
-0.000144904
2.04125e-07
-0.000143466
-6.30092e-08
-0.000143362
-2.2874e-07
-0.000143691
-3.94123e-07
-0.000147454
-4.94485e-07
-0.00015271
8.07622e-08
-0.000155044
5.38338e-07
-0.000155802
6.4813e-07
-0.000155967
6.0662e-07
-0.000155528
4.76284e-07
-0.000149387
1.60623e-07
-0.000142681
-3.53877e-07
-0.000140539
-7.86635e-07
-0.000140571
-1.22105e-06
-0.000141698
-1.60083e-06
-0.000148173
-1.48996e-06
-0.000153637
-5.81212e-07
-0.000155676
1.15676e-07
-0.000156253
3.65087e-07
-0.000156148
2.05069e-07
-0.000150855
-4.89372e-08
-0.000140153
-1.23445e-06
-0.000130868
-2.34398e-06
-0.00012488
-3.2539e-06
-0.000123666
-4.55647e-06
-0.000128189
-1.63579e-05
-0.000128085
-2.95843e-05
2.88607e-05
-0.000138576
4.89977e-07
-0.000138406
4.34534e-07
-0.00013778
4.43709e-07
-0.000136716
4.87473e-07
-0.000136183
5.02987e-07
-0.000135968
4.44545e-07
-0.0001359
3.37813e-07
-0.000137169
3.20561e-07
-0.000139486
4.99457e-07
-0.000140469
6.37341e-07
-0.000140714
6.33423e-07
-0.00014075
6.02263e-07
-0.000140652
5.25579e-07
-0.000140412
4.71213e-07
-0.000139306
4.25665e-07
-0.000138267
4.66026e-07
-0.000137863
4.42797e-07
-0.000137727
3.96799e-07
-0.000137891
2.98229e-07
-0.000139953
3.60181e-07
-0.000141993
5.89769e-07
-0.000142708
6.87373e-07
-0.000142885
6.56086e-07
-0.000142867
5.90528e-07
-0.000142778
5.12235e-07
-0.000141947
4.15848e-07
-0.000140308
4.18072e-07
-0.000139627
4.0982e-07
-0.000139387
3.52442e-07
-0.000139337
2.95264e-07
-0.000140345
2.5085e-07
-0.000143131
4.6334e-07
-0.000144605
6.99844e-07
-0.00014505
7.42689e-07
-0.000145159
7.10854e-07
-0.000145145
6.28247e-07
-0.000144674
5.18136e-07
-0.000142541
4.50785e-07
-0.000141261
3.85143e-07
-0.000140881
3.53668e-07
-0.000140796
2.77279e-07
-0.000141125
1.9593e-07
-0.000143864
2.87815e-07
-0.000146403
6.07228e-07
-0.000147295
7.59637e-07
-0.000147554
7.75689e-07
-0.000147584
6.94156e-07
-0.000147343
5.95148e-07
-0.000144999
4.99304e-07
-0.000142809
3.32583e-07
-0.000142118
2.35038e-07
-0.000141963
1.93525e-07
-0.000142066
1.23299e-07
-0.0001442
1.10579e-07
-0.000147829
4.86264e-07
-0.00014946
7.99583e-07
-0.000149935
8.555e-07
-0.000150053
7.95051e-07
-0.000149959
6.86656e-07
-0.000147568
5.61825e-07
-0.000144125
3.20117e-07
-0.000142866
9.13588e-08
-0.000142581
2.27612e-08
-0.000142649
-4.43076e-08
-0.000144334
-1.40519e-07
-0.00014891
2.60781e-07
-0.000151419
8.01449e-07
-0.000152154
9.28817e-07
-0.000152323
8.85344e-07
-0.000152273
7.40688e-07
-0.000149603
6.11527e-07
-0.000144565
1.79166e-07
-0.000142313
-2.79976e-07
-0.000141889
-4.7271e-07
-0.000141957
-5.80294e-07
-0.000144032
-7.5479e-07
-0.000150017
-2.67912e-07
-0.000153128
5.73212e-07
-0.000153907
8.81866e-07
-0.000154071
8.88636e-07
-0.000153888
7.42983e-07
-0.000149309
5.12947e-07
-0.000141859
-2.84164e-07
-0.000138528
-1.41761e-06
-0.000138081
-1.96579e-06
-0.000138281
-2.28823e-06
-0.000142286
-2.60584e-06
-0.000149144
-1.8389e-06
-0.000152357
-6.74426e-07
-0.000153124
-1.4077e-07
-0.000153292
-8.41202e-08
-0.000149353
-4.57386e-07
-0.000139927
-1.67466e-06
-0.000131831
-4.02376e-06
-0.000125916
-6.00268e-06
-0.000122811
-8.36228e-06
-0.000126382
-1.9764e-05
-0.000131455
-2.78347e-05
3.16881e-05
-0.000138215
6.37911e-07
-0.000138032
6.09581e-07
-0.0001373
6.20887e-07
-0.000136257
6.26611e-07
-0.000135734
6.2052e-07
-0.000135515
5.73244e-07
-0.000135443
4.87338e-07
-0.000136582
4.39045e-07
-0.000138998
6.29785e-07
-0.000140011
7.89326e-07
-0.000140289
8.24359e-07
-0.00014029
7.59397e-07
-0.000140201
6.96807e-07
-0.000139925
6.18492e-07
-0.000138769
5.99194e-07
-0.000137706
5.91512e-07
-0.000137306
5.7955e-07
-0.000137145
5.15745e-07
-0.000137214
4.16907e-07
-0.000139137
4.55331e-07
-0.000141381
7.16903e-07
-0.000142142
8.53977e-07
-0.000142322
8.33494e-07
-0.000142315
7.73621e-07
-0.000142203
6.7248e-07
-0.000141416
6.00359e-07
-0.000139679
5.73688e-07
-0.000138902
5.30033e-07
-0.00013865
4.66495e-07
-0.000138577
4.11797e-07
-0.000139257
3.27931e-07
-0.000142075
5.37999e-07
-0.000143803
8.46477e-07
-0.000144315
9.33306e-07
-0.000144417
8.84819e-07
-0.000144399
8.04722e-07
-0.000144028
6.8967e-07
-0.000141868
6.44612e-07
-0.000140379
5.41157e-07
-0.000139954
4.18829e-07
-0.000139868
3.46293e-07
-0.000140013
2.48438e-07
-0.000142332
3.1031e-07
-0.000145229
6.90147e-07
-0.000146278
9.54184e-07
-0.000146548
9.92365e-07
-0.000146605
9.13692e-07
-0.000146469
7.87671e-07
-0.000144437
6.72563e-07
-0.00014182
4.9101e-07
-0.000140949
2.88311e-07
-0.000140734
2.00598e-07
-0.000140739
1.45684e-07
-0.000142101
9.46705e-08
-0.000145991
4.39182e-07
-0.000148014
9.03828e-07
-0.000148547
1.04169e-06
-0.000148679
1.0077e-06
-0.000148653
8.94684e-07
-0.000147011
7.73375e-07
-0.000143096
5.21597e-07
-0.00014128
1.01754e-07
-0.000140847
-9.05114e-08
-0.000140848
-1.26042e-07
-0.000141604
-1.99039e-07
-0.000146031
1.69375e-08
-0.000149277
6.87267e-07
-0.000150132
1.03849e-06
-0.000150346
1.10711e-06
-0.00015038
9.84653e-07
-0.000148831
8.19157e-07
-0.000143424
3.67978e-07
-0.000140216
-3.65473e-07
-0.000139503
-8.49717e-07
-0.000139536
-9.35117e-07
-0.000140262
-1.0541e-06
-0.00014541
-8.30538e-07
-0.000149647
2.01315e-07
-0.000150764
9.43381e-07
-0.000151006
1.13208e-06
-0.000151082
9.90449e-07
-0.000148837
7.30386e-07
-0.000141412
-8.69562e-08
-0.000136337
-1.63158e-06
-0.000135138
-2.69565e-06
-0.000135123
-3.22795e-06
-0.000136219
-3.56283e-06
-0.000141532
-3.47423e-06
-0.000145635
-2.35503e-06
-0.000147105
-1.29277e-06
-0.000147421
-1.06365e-06
-0.000146059
-1.29685e-06
-0.0001388
-2.2062e-06
-0.0001302
-5.03648e-06
-0.000123238
-7.77124e-06
-0.000120667
-1.00138e-05
-0.000124796
-2.18605e-05
-0.000133101
-2.61422e-05
3.39259e-05
-0.000137587
7.93706e-07
-0.000137385
7.70997e-07
-0.000136575
7.77305e-07
-0.000135543
7.63666e-07
-0.000135033
7.29514e-07
-0.000134806
6.80592e-07
-0.000134702
6.03734e-07
-0.000135638
5.43352e-07
-0.000138125
7.43079e-07
-0.000139251
9.32753e-07
-0.000139504
9.64216e-07
-0.000139527
9.22786e-07
-0.000139423
8.47764e-07
-0.000139134
7.91477e-07
-0.000137882
7.50785e-07
-0.000136818
7.29746e-07
-0.000136371
6.61361e-07
-0.00013621
6.18831e-07
-0.000136217
5.22501e-07
-0.000137863
5.31162e-07
-0.000140314
7.89837e-07
-0.000141178
9.91574e-07
-0.000141367
1.00308e-06
-0.000141357
9.44776e-07
-0.000141253
8.49331e-07
-0.000140481
7.75674e-07
-0.000138715
7.11828e-07
-0.000137828
6.1664e-07
-0.000137514
5.51142e-07
-0.0001374
4.93664e-07
-0.000137764
4.23201e-07
-0.000140446
5.63172e-07
-0.000142534
9.15233e-07
-0.000143108
1.08151e-06
-0.000143215
1.05985e-06
-0.00014319
9.91007e-07
-0.000142877
8.98175e-07
-0.000140892
8.13234e-07
-0.00013922
6.30508e-07
-0.000138655
4.41612e-07
-0.000138462
3.89959e-07
-0.000138476
3.50014e-07
-0.000140023
3.31055e-07
-0.000143308
6.73532e-07
-0.000144698
1.06672e-06
-0.000144996
1.13201e-06
-0.000145054
1.10529e-06
-0.000144991
9.97462e-07
-0.000143462
8.7041e-07
-0.000140522
6.54716e-07
-0.000139318
3.09902e-07
-0.000138969
1.4962e-07
-0.000138914
1.28917e-07
-0.000139528
1.08245e-07
-0.000143178
2.96281e-07
-0.000145843
8.73883e-07
-0.000146568
1.16324e-06
-0.000146722
1.18153e-06
-0.000146749
1.12431e-06
-0.000145839
1.00484e-06
-0.000141871
7.09099e-07
-0.000139325
1.46536e-07
-0.000138703
-2.53242e-07
-0.000138611
-3.44983e-07
-0.000138858
-3.75779e-07
-0.000142187
-2.62724e-07
-0.000146304
4.5072e-07
-0.000147592
1.09092e-06
-0.000147854
1.28031e-06
-0.000147945
1.20779e-06
-0.000147417
1.01137e-06
-0.000142914
6.67365e-07
-0.000138253
-3.81682e-07
-0.000136936
-1.01621e-06
-0.000136795
-1.39077e-06
-0.000136935
-1.48442e-06
-0.000139908
-1.45807e-06
-0.000145548
-5.59032e-07
-0.000147849
6.7479e-07
-0.000148259
1.16098e-06
-0.000148411
1.16162e-06
-0.000147721
9.27229e-07
-0.000142122
4.19508e-07
-0.000135277
-1.48033e-06
-0.000132263
-2.90879e-06
-0.000131955
-3.90603e-06
-0.000132134
-4.51576e-06
-0.000135099
-4.8008e-06
-0.000140176
-4.21638e-06
-0.000142792
-3.12126e-06
-0.000143643
-2.62205e-06
-0.000143814
-2.76259e-06
-0.000140483
-3.08425e-06
-0.000132857
-5.502e-06
-0.000125175
-8.65995e-06
-0.000120499
-1.1212e-05
-0.00012319
-2.17543e-05
-0.000133879
-2.43087e-05
3.56229e-05
-0.000136729
9.58743e-07
-0.000136526
9.37963e-07
-0.000135711
9.15222e-07
-0.000134641
8.78617e-07
-0.000134113
8.11306e-07
-0.000133872
7.5842e-07
-0.000133752
6.93098e-07
-0.000134469
6.30821e-07
-0.000137009
8.14751e-07
-0.000138281
1.046e-06
-0.000138555
1.10605e-06
-0.000138552
1.08409e-06
-0.000138452
1.03508e-06
-0.000138147
9.58554e-07
-0.000136915
9.01103e-07
-0.000135777
8.19103e-07
-0.00013531
7.24014e-07
-0.000135103
6.80197e-07
-0.000135035
6.09113e-07
-0.000136293
6.09059e-07
-0.00013898
8.44545e-07
-0.000140041
1.10305e-06
-0.000140243
1.13898e-06
-0.000140217
1.10326e-06
-0.000140111
1.03611e-06
-0.000139454
9.4246e-07
-0.000137663
8.55781e-07
-0.000136632
6.85891e-07
-0.000136238
5.84194e-07
-0.000136101
5.57957e-07
-0.000136218
5.14689e-07
-0.00013852
5.95812e-07
-0.000141035
9.49491e-07
-0.000141757
1.17417e-06
-0.000141902
1.22738e-06
-0.000141873
1.17973e-06
-0.000141634
1.10223e-06
-0.000139911
9.56086e-07
-0.000137923
7.29963e-07
-0.000137172
4.78192e-07
-0.0001369
3.73783e-07
-0.000136846
3.80678e-07
-0.000137761
3.6903e-07
-0.00014117
6.16316e-07
-0.000142988
1.06725e-06
-0.00014345
1.26065e-06
-0.000143527
1.2688e-06
-0.000143492
1.2029e-06
-0.000142583
1.1001e-06
-0.000139396
8.38697e-07
-0.000137562
3.98313e-07
-0.000137117
1.37556e-07
-0.000137033
3.3452e-08
-0.000137299
2.59777e-09
-0.000140362
1.46426e-07
-0.000143667
7.43584e-07
-0.000144656
1.2226e-06
-0.000144904
1.37103e-06
-0.000144958
1.34046e-06
-0.000144693
1.20677e-06
-0.000141579
9.49856e-07
-0.000137774
1.98613e-07
-0.000136617
-2.26092e-07
-0.000136462
-5.14699e-07
-0.000136518
-6.07991e-07
-0.000138506
-5.71226e-07
-0.000143303
3.03309e-08
-0.000145503
9.86721e-07
-0.000145942
1.41368e-06
-0.000146038
1.42612e-06
-0.000145987
1.20855e-06
-0.000143311
9.03345e-07
-0.00013779
-3.49966e-08
-0.000134977
-1.03664e-06
-0.000134457
-1.64318e-06
-0.000134502
-1.88757e-06
-0.000135421
-2.00986e-06
-0.000140545
-1.68743e-06
-0.000144914
-2.48413e-07
-0.000146226
8.45351e-07
-0.000146497
1.1573e-06
-0.000146516
1.07891e-06
-0.00014369
8.87332e-07
-0.000136479
-3.90312e-07
-0.000131441
-2.74589e-06
-0.000129825
-4.07424e-06
-0.000129822
-5.20608e-06
-0.000130601
-5.77091e-06
-0.000134538
-5.87091e-06
-0.000138149
-5.16137e-06
-0.000139838
-4.52564e-06
-0.000140496
-4.52448e-06
-0.000140224
-4.89061e-06
-0.000136629
-5.68142e-06
-0.000130338
-8.76862e-06
-0.000123996
-1.14383e-05
-0.000122832
-2.05037e-05
-0.000133972
-2.40032e-05
3.77618e-05
-0.000135907
1.1215e-06
-0.000135729
1.09002e-06
-0.000134975
1.03939e-06
-0.000133763
9.57812e-07
-0.000133189
8.916e-07
-0.000132917
8.06334e-07
-0.000132791
7.69054e-07
-0.00013333
7.34255e-07
-0.000135791
8.69218e-07
-0.000137233
1.1456e-06
-0.000137587
1.25523e-06
-0.000137617
1.25054e-06
-0.000137516
1.19455e-06
-0.000137288
1.11315e-06
-0.00013609
1.00792e-06
-0.000134747
8.87733e-07
-0.000134204
7.86153e-07
-0.000133974
7.26372e-07
-0.000133902
6.90587e-07
-0.000134828
6.74257e-07
-0.000137554
9.02716e-07
-0.000138824
1.17646e-06
-0.000139141
1.28892e-06
-0.000139174
1.27203e-06
-0.000139097
1.20077e-06
-0.000138671
1.09453e-06
-0.000136767
9.5314e-07
-0.0001354
7.56217e-07
-0.000134942
6.34528e-07
-0.00013479
5.69907e-07
-0.000134856
5.40597e-07
-0.000136754
6.08461e-07
-0.000139471
9.60616e-07
-0.00014046
1.296e-06
-0.000140691
1.38012e-06
-0.000140708
1.36053e-06
-0.000140623
1.27156e-06
-0.000139548
1.15003e-06
-0.000136873
8.21478e-07
-0.000135671
5.71863e-07
-0.000135378
4.09466e-07
-0.000135316
3.20794e-07
-0.000135921
2.95044e-07
-0.000139127
5.40143e-07
-0.00014142
1.06491e-06
-0.000142046
1.38515e-06
-0.000142202
1.45835e-06
-0.000142218
1.39192e-06
-0.000141919
1.26518e-06
-0.000139262
1.04801e-06
-0.000136372
4.39353e-07
-0.000135551
1.90247e-07
-0.000135438
-5.23125e-09
-0.000135524
-1.01482e-07
-0.000137602
-6.07167e-08
-0.000141536
5.08461e-07
-0.000143149
1.26589e-06
-0.000143509
1.55729e-06
-0.000143599
1.54443e-06
-0.000143581
1.37702e-06
-0.000141826
1.15113e-06
-0.000137537
5.06381e-07
-0.000135286
-2.19943e-07
-0.000134822
-5.72296e-07
-0.000134833
-7.27447e-07
-0.000135414
-8.32037e-07
-0.000139709
-5.59863e-07
-0.000143691
5.64415e-07
-0.000144784
1.42427e-06
-0.000144923
1.59953e-06
-0.000144992
1.49222e-06
-0.000143916
1.21395e-06
-0.000138789
6.77406e-07
-0.00013441
-8.50633e-07
-0.000132888
-1.71624e-06
-0.000132769
-2.25164e-06
-0.000132897
-2.51872e-06
-0.000135438
-2.62373e-06
-0.000141276
-1.73063e-06
-0.000144432
-3.03849e-08
-0.000145212
8.4389e-07
-0.000145379
1.04668e-06
-0.000144841
1.03442e-06
-0.000139875
5.77894e-07
-0.000133202
-1.51472e-06
-0.000129442
-4.00727e-06
-0.000128515
-5.33717e-06
-0.000128549
-6.36723e-06
-0.000130295
-6.94798e-06
-0.000134269
-6.85714e-06
-0.000136913
-6.27408e-06
-0.000138162
-6.16946e-06
-0.000138666
-6.66367e-06
-0.000137976
-7.44617e-06
-0.000134563
-9.42469e-06
-0.000128967
-1.1735e-05
-0.000124419
-1.84905e-05
-0.000133421
-2.41218e-05
4.06486e-05
-0.000135146
1.24888e-06
-0.00013499
1.21823e-06
-0.000134351
1.14737e-06
-0.000133022
1.05452e-06
-0.000132346
9.59737e-07
-0.000132084
8.947e-07
-0.000131956
8.34315e-07
-0.000132397
7.93965e-07
-0.000134774
9.30158e-07
-0.00013634
1.24177e-06
-0.000136753
1.39974e-06
-0.000136814
1.39671e-06
-0.000136727
1.32334e-06
-0.000136563
1.26083e-06
-0.000135576
1.12898e-06
-0.000133911
9.85533e-07
-0.000133218
8.74074e-07
-0.000132984
8.06078e-07
-0.000132906
7.42162e-07
-0.000133691
7.0594e-07
-0.000136383
9.05481e-07
-0.000137894
1.2724e-06
-0.000138264
1.43075e-06
-0.000138319
1.41885e-06
-0.000138245
1.33567e-06
-0.000138026
1.24882e-06
-0.000136455
1.10647e-06
-0.000134505
8.26891e-07
-0.000133871
7.23802e-07
-0.0001337
6.14625e-07
-0.000133715
5.40042e-07
-0.000135293
5.51575e-07
-0.000138251
9.43443e-07
-0.000139463
1.38042e-06
-0.000139757
1.54301e-06
-0.000139798
1.50286e-06
-0.00013977
1.42941e-06
-0.000139302
1.29507e-06
-0.000136756
1.07152e-06
-0.000134749
5.79647e-07
-0.000134265
4.62672e-07
-0.000134194
3.46956e-07
-0.000134439
2.32203e-07
-0.000137154
3.70214e-07
-0.000140131
9.84842e-07
-0.000141064
1.50685e-06
-0.000141259
1.63578e-06
-0.0001413
1.56869e-06
-0.000141245
1.42971e-06
-0.000139599
1.23663e-06
-0.000136237
7.5899e-07
-0.000134663
1.73429e-07
-0.000134321
-8.25966e-09
-0.0001343
-1.20616e-07
-0.000135093
-1.90171e-07
-0.000139187
1.39374e-07
-0.000142068
1.10766e-06
-0.000142733
1.64038e-06
-0.000142844
1.72317e-06
-0.000142874
1.57081e-06
-0.00014221
1.35704e-06
-0.000138242
1.00001e-06
-0.000134918
-1.55673e-08
-0.00013378
-5.79151e-07
-0.000133649
-8.53164e-07
-0.000133744
-1.0037e-06
-0.000135865
-1.0776e-06
-0.00014121
-3.01869e-07
-0.000143823
1.10424e-06
-0.000144346
1.71417e-06
-0.000144425
1.78831e-06
-0.00014423
1.65454e-06
-0.000140895
1.4338e-06
-0.000135276
2.70499e-08
-0.000132458
-1.66855e-06
-0.000131709
-2.3928e-06
-0.000131708
-2.9223e-06
-0.000132073
-3.11477e-06
-0.0001361
-3.03194e-06
-0.000141304
-1.6677e-06
-0.000143551
-5.59554e-08
-0.000144147
6.37789e-07
-0.000144318
7.4283e-07
-0.000143195
7.48459e-07
-0.000137286
-2.04495e-07
-0.000131244
-2.53163e-06
-0.00012828
-5.134e-06
-0.000127704
-6.48281e-06
-0.000127912
-7.5217e-06
-0.000130433
-8.06003e-06
-0.000133953
-7.8774e-06
-0.000135907
-7.57939e-06
-0.000136963
-7.89024e-06
-0.000137349
-9.00128e-06
-0.000136335
-1.03977e-05
-0.000132936
-1.23466e-05
-0.000127939
-1.66655e-05
-0.000132183
-2.41185e-05
4.3775e-05
-0.000134711
1.3768e-06
-0.000134574
1.35483e-06
-0.000134107
1.28757e-06
-0.000132678
1.1612e-06
-0.000131823
1.04954e-06
-0.000131496
9.74344e-07
-0.000131345
8.95659e-07
-0.000131596
8.21875e-07
-0.000133881
9.48577e-07
-0.000135715
1.30442e-06
-0.000136238
1.52419e-06
-0.000136324
1.5196e-06
-0.000136276
1.47861e-06
-0.000136138
1.41337e-06
-0.000135468
1.31676e-06
-0.000133605
1.14288e-06
-0.000132632
9.69287e-07
-0.000132316
8.71574e-07
-0.000132196
7.80476e-07
-0.000132644
7.04915e-07
-0.000135319
8.69906e-07
-0.000137193
1.30948e-06
-0.000137693
1.55487e-06
-0.000137786
1.56724e-06
-0.000137761
1.51716e-06
-0.000137641
1.41894e-06
-0.000136554
1.29774e-06
-0.000134325
1.02196e-06
-0.000133303
7.64867e-07
-0.000133008
6.45273e-07
-0.00013296
5.91272e-07
-0.000133833
5.09217e-07
-0.000137013
8.22225e-07
-0.000138759
1.39567e-06
-0.000139205
1.67681e-06
-0.00013932
1.67888e-06
-0.000139296
1.58859e-06
-0.000139092
1.45701e-06
-0.000137024
1.27924e-06
-0.000134599
8.4037e-07
-0.000133659
4.81127e-07
-0.000133417
3.62639e-07
-0.000133445
2.84218e-07
-0.000135005
2.6448e-07
-0.000138768
7.32466e-07
-0.000140432
1.49626e-06
-0.0001408
1.77437e-06
-0.000140859
1.74408e-06
-0.000140854
1.6272e-06
-0.000140074
1.4609e-06
-0.000136701
1.11142e-06
-0.000134391
3.62583e-07
-0.000133587
1.13823e-08
-0.000133489
-1.35689e-07
-0.000133607
-2.28006e-07
-0.000136262
-2.29385e-07
-0.00014069
5.86896e-07
-0.000142277
1.60443e-06
-0.000142503
1.893e-06
-0.000142523
1.79583e-06
-0.000142366
1.65913e-06
-0.000139695
1.49292e-06
-0.000135316
5.4561e-07
-0.000133358
-5.71211e-07
-0.000132908
-1.07478e-06
-0.000132912
-1.20527e-06
-0.00013327
-1.34992e-06
-0.000137309
-1.17565e-06
-0.000142104
2.07507e-07
-0.000143699
1.57418e-06
-0.00014394
1.95194e-06
-0.000144018
1.92683e-06
-0.000143217
1.79064e-06
-0.0001383
1.15098e-06
-0.000133419
-7.58241e-07
-0.000131233
-2.43904e-06
-0.000130741
-3.00468e-06
-0.00013078
-3.40027e-06
-0.00013181
-3.71609e-06
-0.000136832
-3.42025e-06
-0.000141298
-1.70218e-06
-0.000143105
-2.79188e-07
-0.000143606
2.42336e-07
-0.000143635
3.64306e-07
-0.000141546
1.33661e-07
-0.000135431
-1.03772e-06
-0.000130043
-3.70117e-06
-0.00012748
-6.33984e-06
-0.000127139
-7.6473e-06
-0.000127614
-8.83581e-06
-0.000130789
-9.26227e-06
-0.000134023
-8.94064e-06
-0.000135597
-8.88476e-06
-0.000136372
-9.71827e-06
-0.000136463
-1.13534e-05
-0.000135298
-1.29219e-05
-0.000131341
-1.54974e-05
-0.000131063
-2.42335e-05
4.65797e-05
-0.00013455
1.51546e-06
-0.000134421
1.49131e-06
-0.00013406
1.41814e-06
-0.000132677
1.31602e-06
-0.000131615
1.14558e-06
-0.000131193
1.02919e-06
-0.000131029
9.61025e-07
-0.000131061
8.51043e-07
-0.000132971
9.08715e-07
-0.000135265
1.30441e-06
-0.000135965
1.61421e-06
-0.000136106
1.68492e-06
-0.000136064
1.6331e-06
-0.000135954
1.58058e-06
-0.000135513
1.48046e-06
-0.000133693
1.34549e-06
-0.000132407
1.05465e-06
-0.000131989
9.4525e-07
-0.000131847
8.29911e-07
-0.000131931
7.16705e-07
-0.000134131
8.15503e-07
-0.000136609
1.27379e-06
-0.000137374
1.66451e-06
-0.000137541
1.74105e-06
-0.000137518
1.6754e-06
-0.000137435
1.58507e-06
-0.000136811
1.47175e-06
-0.000134495
1.25056e-06
-0.000133122
8.61804e-07
-0.000132666
6.98675e-07
-0.000132544
6.20086e-07
-0.000132762
5.34073e-07
-0.00013548
6.57732e-07
-0.000138189
1.3056e-06
-0.000138938
1.75606e-06
-0.00013908
1.84359e-06
-0.000139073
1.75452e-06
-0.000139002
1.63586e-06
-0.000137701
1.49028e-06
-0.000134795
1.11396e-06
-0.000133389
5.60184e-07
-0.000132953
3.9616e-07
-0.00013289
3.02423e-07
-0.000133303
2.1717e-07
-0.000136842
4.06793e-07
-0.000139823
1.28567e-06
-0.00014057
1.85974e-06
-0.000140692
1.93012e-06
-0.000140703
1.8551e-06
-0.000140471
1.69855e-06
-0.000137766
1.50616e-06
-0.000134473
7.41732e-07
-0.000133239
4.02042e-08
-0.000132915
-2.23409e-07
-0.000132917
-3.0978e-07
-0.000133731
-4.09873e-07
-0.000138249
-9.3153e-08
-0.000141539
1.19885e-06
-0.000142294
1.98475e-06
-0.0001424
2.07176e-06
-0.000142413
2.00508e-06
-0.000141401
1.82316e-06
-0.000136993
1.27724e-06
-0.000133711
-1.65314e-07
-0.000132493
-1.06013e-06
-0.000132105
-1.48764e-06
-0.000132161
-1.48735e-06
-0.000133334
-1.65936e-06
-0.000138739
-1.14166e-06
-0.000142543
6.90525e-07
-0.000143606
1.8317e-06
-0.000143838
2.06589e-06
-0.000143878
1.87763e-06
-0.000142038
1.73987e-06
-0.000135888
9.60988e-07
-0.000131772
-1.43047e-06
-0.000130322
-2.98961e-06
-0.000130117
-3.56183e-06
-0.000130186
-4.05622e-06
-0.000131916
-4.28359e-06
-0.000137133
-3.69377e-06
-0.000140748
-1.93017e-06
-0.000142125
-6.88369e-07
-0.000142512
-3.23185e-07
-0.000142447
-2.03874e-07
-0.00014011
-7.24489e-07
-0.00013416
-2.18643e-06
-0.000129096
-4.91335e-06
-0.000126742
-7.61647e-06
-0.000126618
-8.91339e-06
-0.000127373
-1.03057e-05
-0.000131008
-1.05216e-05
-0.000133979
-1.01005e-05
-0.000135474
-1.03225e-05
-0.000136072
-1.18428e-05
-0.000136061
-1.34281e-05
-0.000134062
-1.47449e-05
-0.000130327
-2.33844e-05
4.9186e-05
-0.000134491
1.64989e-06
-0.000134363
1.63623e-06
-0.000134079
1.55577e-06
-0.00013285
1.46288e-06
-0.000131569
1.25895e-06
-0.00013108
1.11792e-06
-0.000130866
1.02032e-06
-0.000130779
9.00771e-07
-0.000132042
8.78872e-07
-0.000134754
1.23032e-06
-0.000135789
1.68027e-06
-0.00013598
1.82777e-06
-0.000135954
1.79299e-06
-0.000135838
1.73642e-06
-0.000135567
1.63718e-06
-0.000134002
1.51612e-06
-0.000132422
1.22646e-06
-0.000131826
9.88396e-07
-0.000131611
8.99867e-07
-0.000131564
8.05467e-07
-0.000132843
7.54361e-07
-0.000135921
1.14991e-06
-0.000137157
1.70251e-06
-0.000137405
1.88085e-06
-0.000137421
1.83693e-06
-0.000137351
1.74648e-06
-0.000137044
1.63248e-06
-0.00013502
1.48587e-06
-0.000133101
1.04778e-06
-0.000132444
7.65019e-07
-0.000132211
6.56419e-07
-0.000132196
5.80359e-07
-0.000133754
5.39162e-07
-0.000137297
1.02058e-06
-0.000138709
1.75992e-06
-0.000138941
1.92751e-06
-0.000138965
1.94137e-06
-0.000138909
1.8186e-06
-0.000138314
1.69502e-06
-0.000135417
1.45167e-06
-0.000133352
8.11847e-07
-0.000132674
4.22113e-07
-0.000132488
2.793e-07
-0.00013252
1.88437e-07
-0.000134489
1.85576e-07
-0.000138675
8.23452e-07
-0.000140287
1.80172e-06
-0.000140556
2.09267e-06
-0.000140571
2.08564e-06
-0.000140521
1.96463e-06
-0.000139132
1.82279e-06
-0.000135266
1.21671e-06
-0.000133248
2.55171e-07
-0.000132632
-2.27543e-07
-0.000132443
-4.50784e-07
-0.000132526
-4.96811e-07
-0.000134857
-5.22286e-07
-0.000139842
3.53562e-07
-0.000141895
1.77545e-06
-0.000142219
2.24488e-06
-0.000142254
2.24133e-06
-0.000142171
2.10621e-06
-0.000139824
1.94281e-06
-0.00013498
8.90827e-07
-0.000132376
-7.57389e-07
-0.000131511
-1.50903e-06
-0.000131384
-1.77916e-06
-0.000131494
-1.96406e-06
-0.000134126
-2.06441e-06
-0.00014008
-9.45049e-07
-0.000143019
1.13139e-06
-0.000143558
1.98082e-06
-0.000143637
2.11489e-06
-0.000143435
2.05134e-06
-0.000140496
1.79392e-06
-0.000134508
3.39461e-07
-0.00013107
-2.10565e-06
-0.000129707
-3.65281e-06
-0.000129486
-4.12886e-06
-0.000129615
-4.56318e-06
-0.000132048
-4.83265e-06
-0.000137178
-4.00604e-06
-0.00014027
-2.31136e-06
-0.000141499
-1.34527e-06
-0.000141753
-1.12625e-06
-0.000141522
-9.94525e-07
-0.000138837
-1.96173e-06
-0.00013308
-3.47777e-06
-0.000128234
-6.28719e-06
-0.000125946
-8.9663e-06
-0.000125974
-1.03656e-05
-0.000127207
-1.19509e-05
-0.000131392
-1.18742e-05
-0.000134392
-1.13883e-05
-0.000135742
-1.22203e-05
-0.00013602
-1.38657e-05
-0.000135747
-1.49195e-05
-0.000130017
-2.1723e-05
5.18302e-05
-0.000134508
1.77641e-06
-0.000134385
1.78707e-06
-0.000134185
1.71079e-06
-0.000133206
1.60043e-06
-0.000131702
1.38974e-06
-0.000131055
1.17891e-06
-0.000130768
1.05761e-06
-0.000130644
9.81961e-07
-0.000131173
9.09299e-07
-0.000133948
1.12949e-06
-0.000135556
1.696e-06
-0.000135888
1.93225e-06
-0.000135916
1.95265e-06
-0.000135831
1.89635e-06
-0.000135655
1.78035e-06
-0.000134556
1.6834e-06
-0.000132601
1.40395e-06
-0.000131775
1.07656e-06
-0.000131465
9.69928e-07
-0.000131338
8.74204e-07
-0.000131773
7.76277e-07
-0.000134807
9.65824e-07
-0.000136892
1.6288e-06
-0.000137335
1.93804e-06
-0.000137385
1.99669e-06
-0.000137325
1.916e-06
-0.00013719
1.81776e-06
-0.000135778
1.69147e-06
-0.000133319
1.3092e-06
-0.000132328
8.64869e-07
-0.000132002
7.10939e-07
-0.000131911
6.06867e-07
-0.000132383
4.91934e-07
-0.000135792
7.09421e-07
-0.000138301
1.56816e-06
-0.000138867
2.04173e-06
-0.000138909
2.10279e-06
-0.000138881
2.03787e-06
-0.000138681
1.91261e-06
-0.000136549
1.76779e-06
-0.000133628
1.14129e-06
-0.000132561
5.1056e-07
-0.000132225
2.7582e-07
-0.000132165
1.77672e-07
-0.000132623
1.01391e-07
-0.000136498
3.26017e-07
-0.00013969
1.44858e-06
-0.000140424
2.1845e-06
-0.000140517
2.28876e-06
-0.00014052
2.19037e-06
-0.000140212
2.03921e-06
-0.000137155
1.77908e-06
-0.00013379
7.34693e-07
-0.000132455
-1.82126e-07
-0.000131997
-4.82183e-07
-0.000131941
-6.0435e-07
-0.000132341
-7.0821e-07
-0.000136532
-5.23164e-07
-0.000140806
9.24025e-07
-0.000142109
2.21513e-06
-0.000142351
2.42691e-06
-0.000142385
2.36802e-06
-0.000141923
2.27411e-06
-0.00013769
2.01818e-06
-0.000133148
2.74494e-07
-0.000131463
-1.2605e-06
-0.000130962
-1.88717e-06
-0.000130853
-2.23206e-06
-0.000131103
-2.27262e-06
-0.000134884
-2.27378e-06
-0.000140478
-7.18875e-07
-0.000142634
1.3294e-06
-0.000143163
2.10484e-06
-0.000143278
2.05687e-06
-0.000143104
1.83265e-06
-0.000139393
1.50768e-06
-0.000133253
-7.20649e-08
-0.000130128
-2.68965e-06
-0.00012905
-4.17207e-06
-0.000128954
-4.75445e-06
-0.000129193
-5.20277e-06
-0.000132164
-5.32756e-06
-0.000136894
-4.34116e-06
-0.000139518
-2.85089e-06
-0.000140637
-2.12418e-06
-0.000140807
-2.08153e-06
-0.00014048
-1.93641e-06