/*--------------------------------*- C++ -*----------------------------------*\
  =========                 |
  \\      /  F ield         | OpenFOAM: The Open Source CFD Toolbox
   \\    /   O peration     | Website:  https://openfoam.org
    \\  /    A nd           | Version:  12
     \\/     M anipulation  |
\*---------------------------------------------------------------------------*/
FoamFile
{
    format      ascii;
    class       volScalarField;
    location    "14";
    object      rho;
}
// * * * * * * * * * * * * * * * * * * * * * * * * * * * * * * * * * * * * * //

dimensions      [1 -3 0 0 0 0 0];

internalField   nonuniform List<scalar> 
9801
(
1.10329
1.10926
1.11162
1.11104
1.11123
1.11415
1.11821
1.12588
1.13933
1.15
1.15681
1.16194
1.16639
1.17033
1.17174
1.16986
1.17157
1.17535
1.18056
1.1916
1.20596
1.21529
1.22142
1.22645
1.2309
1.23364
1.23102
1.23117
1.23478
1.23955
1.24792
1.264
1.27764
1.28573
1.29141
1.29642
1.30025
1.29666
1.29432
1.29756
1.30242
1.30929
1.32459
1.34334
1.35458
1.36194
1.36798
1.37287
1.36943
1.36305
1.36497
1.37053
1.37767
1.393
1.4164
1.43223
1.44185
1.44881
1.45474
1.45168
1.44071
1.44014
1.44682
1.45555
1.47288
1.50244
1.52397
1.5364
1.54601
1.55394
1.55005
1.53282
1.52945
1.53781
1.55006
1.57729
1.61707
1.64353
1.65919
1.67192
1.68225
1.6727
1.6487
1.64659
1.66122
1.68627
1.74099
1.79749
1.83252
1.85852
1.88323
1.89218
1.8709
1.85674
1.87637
1.94013
2.08263
3.47279
10.0938
1.10942
1.11537
1.11727
1.11682
1.11717
1.11985
1.12351
1.13094
1.14544
1.15669
1.16337
1.16822
1.17231
1.17586
1.17686
1.17539
1.17695
1.18038
1.18502
1.1962
1.21157
1.22126
1.22735
1.23214
1.23635
1.23874
1.2363
1.23623
1.23939
1.24369
1.25138
1.26813
1.28254
1.29074
1.29642
1.30133
1.30492
1.30183
1.29924
1.30176
1.30612
1.31216
1.32735
1.34714
1.35895
1.36638
1.37228
1.37706
1.37416
1.36768
1.36885
1.37372
1.37998
1.39398
1.41819
1.43499
1.4449
1.45201
1.45819
1.45631
1.44535
1.44383
1.44956
1.4572
1.47273
1.50259
1.5251
1.5377
1.54736
1.55547
1.55342
1.53683
1.53219
1.53943
1.55006
1.57193
1.61097
1.63973
1.65692
1.67059
1.68315
1.67791
1.65224
1.64678
1.65939
1.67877
1.72225
1.77761
1.81567
1.84425
1.87099
1.88449
1.86623
1.85069
1.85585
1.8978
1.96636
3.27005
10.0876
1.10751
1.11354
1.1153
1.11495
1.11552
1.11825
1.12184
1.129
1.14384
1.15521
1.16164
1.1663
1.1703
1.17387
1.1749
1.17349
1.17498
1.17834
1.18273
1.19343
1.20935
1.21931
1.22537
1.23012
1.23437
1.23701
1.23448
1.23395
1.23687
1.24106
1.24805
1.26444
1.27946
1.28789
1.29369
1.29873
1.30283
1.30041
1.29673
1.29867
1.30293
1.30868
1.32288
1.34315
1.35545
1.36294
1.36882
1.37395
1.37254
1.3653
1.36536
1.3698
1.37574
1.38768
1.4116
1.42979
1.44011
1.44741
1.45398
1.4545
1.44377
1.44025
1.4448
1.45179
1.46299
1.4905
1.51621
1.53028
1.54026
1.54863
1.55015
1.53515
1.52716
1.53206
1.54177
1.55658
1.59375
1.62905
1.64804
1.66119
1.67321
1.67289
1.64808
1.63623
1.64535
1.66212
1.69166
1.74816
1.79619
1.82752
1.8537
1.8709
1.85576
1.8414
1.84633
1.87816
1.90883
3.13996
9.97369
1.10614
1.11224
1.11357
1.113
1.11383
1.1166
1.12014
1.12675
1.14148
1.15327
1.15977
1.16442
1.16842
1.17196
1.1726
1.17097
1.17241
1.17571
1.17991
1.18965
1.20605
1.21668
1.22284
1.22758
1.23186
1.23448
1.23158
1.2305
1.23322
1.23734
1.24343
1.2588
1.27519
1.28429
1.29025
1.29533
1.29957
1.29737
1.29241
1.29386
1.29812
1.30356
1.31558
1.33642
1.35028
1.3581
1.364
1.36928
1.36932
1.36089
1.35915
1.36317
1.36901
1.37828
1.40091
1.4222
1.43351
1.44083
1.4474
1.45015
1.43945
1.432
1.43534
1.44215
1.4509
1.47435
1.5046
1.52104
1.53105
1.53921
1.54382
1.53098
1.51662
1.51881
1.52827
1.54004
1.56864
1.60838
1.63112
1.64455
1.65648
1.66341
1.64559
1.62477
1.626
1.64166
1.66181
1.70284
1.75386
1.78979
1.81728
1.84142
1.83977
1.82042
1.80992
1.82349
1.83286
3.05401
9.89544
1.10361
1.10973
1.1108
1.11002
1.11088
1.11363
1.11714
1.12312
1.13745
1.14984
1.15648
1.16115
1.16513
1.16852
1.16874
1.16688
1.16821
1.17145
1.1755
1.18403
1.20062
1.21219
1.21849
1.22322
1.22741
1.22992
1.22705
1.22553
1.22789
1.23181
1.23698
1.25055
1.26854
1.27863
1.28466
1.28959
1.29366
1.29215
1.28705
1.28779
1.29157
1.29645
1.30531
1.32577
1.34218
1.3507
1.3566
1.3618
1.3633
1.35517
1.35145
1.35469
1.36014
1.36729
1.38621
1.41038
1.42351
1.43119
1.43772
1.44219
1.43401
1.42307
1.42421
1.43055
1.43847
1.45595
1.48732
1.50735
1.51816
1.52654
1.53365
1.52748
1.50908
1.50463
1.51233
1.52302
1.54194
1.58171
1.61344
1.63025
1.64288
1.65382
1.64762
1.62197
1.61128
1.62007
1.6375
1.66519
1.71347
1.75776
1.79002
1.81741
1.83401
1.82208
1.8043
1.79893
1.77961
2.99683
9.86686
1.10087
1.10683
1.10789
1.107
1.10778
1.1105
1.11399
1.11938
1.1332
1.14645
1.15335
1.15791
1.16171
1.16493
1.16518
1.16316
1.16436
1.16749
1.17137
1.17845
1.1948
1.20769
1.21436
1.21906
1.2231
1.22578
1.22321
1.22101
1.22304
1.22679
1.2314
1.24255
1.26152
1.27308
1.27942
1.28426
1.2883
1.288
1.28236
1.28167
1.28501
1.28975
1.29672
1.31537
1.33434
1.34411
1.3503
1.35552
1.35866
1.35192
1.34466
1.34619
1.3514
1.35812
1.37357
1.39914
1.41474
1.42309
1.42983
1.43577
1.43292
1.41918
1.41488
1.4197
1.42714
1.43999
1.46986
1.49596
1.50905
1.51773
1.52567
1.52714
1.50935
1.49728
1.49997
1.50961
1.52243
1.55309
1.5944
1.61941
1.63429
1.64678
1.65146
1.6304
1.60947
1.60794
1.62127
1.64034
1.67568
1.72154
1.75842
1.7877
1.81343
1.82225
1.81072
1.79431
1.75272
2.93997
9.87563
1.09858
1.10465
1.10608
1.10493
1.10527
1.10786
1.11132
1.11622
1.12908
1.14295
1.15033
1.15503
1.15888
1.1623
1.16302
1.16043
1.16097
1.16391
1.16773
1.17393
1.18932
1.20326
1.21058
1.2155
1.21966
1.22303
1.22119
1.2173
1.21845
1.22208
1.22676
1.23654
1.25518
1.26804
1.27498
1.28009
1.28461
1.28677
1.28064
1.27641
1.27875
1.2835
1.29022
1.30692
1.3274
1.33853
1.34512
1.35059
1.35542
1.35288
1.34261
1.34031
1.34456
1.35075
1.36263
1.38801
1.40766
1.41739
1.42439
1.43092
1.4333
1.42055
1.41125
1.41283
1.41931
1.42822
1.45109
1.48444
1.50371
1.51375
1.52194
1.52775
1.51633
1.49733
1.49308
1.50002
1.51072
1.52905
1.56944
1.60684
1.6275
1.64132
1.65302
1.6485
1.62247
1.60865
1.61203
1.62641
1.64882
1.68831
1.72885
1.76025
1.78599
1.80807
1.80998
1.79663
1.74719
2.88909
9.90311
1.09722
1.10351
1.10542
1.10417
1.10381
1.10611
1.10948
1.11429
1.12654
1.14069
1.14845
1.15337
1.15743
1.16106
1.16263
1.15946
1.15865
1.16119
1.16498
1.17097
1.18578
1.2006
1.20843
1.21355
1.2179
1.22176
1.22176
1.21646
1.21558
1.21872
1.22319
1.23208
1.25066
1.26503
1.2725
1.27786
1.28266
1.28656
1.28279
1.27547
1.27554
1.27973
1.2854
1.29928
1.32164
1.3353
1.34251
1.34825
1.35361
1.35515
1.34479
1.33891
1.34116
1.34651
1.3543
1.37572
1.4018
1.41527
1.42297
1.42959
1.43476
1.42698
1.41249
1.40974
1.41467
1.42228
1.43584
1.46887
1.49856
1.51282
1.52167
1.52922
1.52734
1.50629
1.49357
1.49515
1.50443
1.51572
1.54073
1.58423
1.61625
1.63491
1.64917
1.65949
1.64889
1.62246
1.61239
1.61902
1.63423
1.66006
1.70007
1.7352
1.76202
1.78387
1.79677
1.79389
1.7579
2.85413
9.93532
1.09712
1.10354
1.10581
1.10477
1.10344
1.10526
1.10848
1.11286
1.12423
1.13939
1.14804
1.15326
1.15743
1.16111
1.16349
1.1604
1.15808
1.15997
1.16359
1.16874
1.18233
1.19881
1.20778
1.21323
1.21766
1.22168
1.22336
1.21793
1.21533
1.21756
1.22167
1.22823
1.24555
1.26299
1.27193
1.27767
1.28254
1.28692
1.28583
1.27731
1.27534
1.27838
1.28326
1.29222
1.31459
1.33341
1.34251
1.34859
1.35398
1.3577
1.35047
1.34047
1.33994
1.34435
1.35046
1.36405
1.39339
1.41412
1.4237
1.43039
1.43627
1.43485
1.41878
1.41011
1.41246
1.41943
1.42796
1.44924
1.4865
1.51002
1.52144
1.52999
1.53642
1.52656
1.50397
1.49621
1.49974
1.50914
1.52235
1.55509
1.59804
1.62648
1.64418
1.65842
1.66473
1.64944
1.62591
1.61868
1.62649
1.64228
1.67185
1.71107
1.74134
1.76226
1.77673
1.78257
1.76641
2.84148
9.96357
1.09813
1.10468
1.10724
1.10675
1.10452
1.10582
1.10888
1.11277
1.12218
1.13851
1.14874
1.15423
1.15843
1.16216
1.16516
1.16313
1.15941
1.16056
1.16389
1.16822
1.17892
1.19709
1.20818
1.21414
1.21873
1.22288
1.22586
1.2217
1.2169
1.21808
1.22176
1.22669
1.23987
1.26075
1.27267
1.27898
1.28393
1.28853
1.29023
1.28214
1.27686
1.27837
1.28278
1.28878
1.3059
1.33053
1.34351
1.35027
1.35569
1.36059
1.358
1.34514
1.34071
1.34369
1.34939
1.35724
1.38034
1.40988
1.42472
1.43229
1.43833
1.44234
1.43169
1.41597
1.41293
1.4172
1.42442
1.43502
1.4655
1.50188
1.52101
1.53156
1.54061
1.54484
1.52519
1.5031
1.49935
1.50563
1.51611
1.5317
1.56865
1.60855
1.63358
1.65043
1.66448
1.66914
1.65328
1.63076
1.62445
1.6324
1.64867
1.68074
1.7179
1.7432
1.75862
1.76754
1.76943
2.84787
9.98634
1.10001
1.10672
1.10942
1.10978
1.10705
1.10764
1.11037
1.11392
1.12089
1.13719
1.14974
1.15598
1.1603
1.16406
1.16741
1.16699
1.16244
1.1625
1.1653
1.16909
1.17638
1.19443
1.20894
1.21598
1.22077
1.225
1.2287
1.22693
1.22028
1.21977
1.22271
1.22702
1.23548
1.25656
1.27325
1.28098
1.28612
1.29072
1.29418
1.28879
1.28004
1.27965
1.28315
1.28828
1.29852
1.3239
1.34353
1.35217
1.35788
1.36303
1.36502
1.3539
1.34414
1.34453
1.34923
1.35534
1.36757
1.3986
1.42319
1.43382
1.44072
1.44688
1.4468
1.42894
1.41599
1.41565
1.42131
1.42927
1.44481
1.4832
1.51621
1.53197
1.54136
1.549
1.5489
1.52616
1.50778
1.50615
1.5123
1.52246
1.5411
1.58072
1.61774
1.641
1.65736
1.67071
1.67256
1.65584
1.63398
1.62762
1.63474
1.65159
1.68625
1.72121
1.7416
1.75101
1.76389
2.87307
10.0075
1.10243
1.1094
1.11226
1.1136
1.11072
1.11033
1.11271
1.11601
1.12084
1.13492
1.15037
1.15805
1.16274
1.16665
1.17023
1.17154
1.16691
1.16515
1.16733
1.17082
1.17569
1.19046
1.209
1.21821
1.22342
1.2277
1.23165
1.23245
1.22533
1.22217
1.22439
1.22834
1.23385
1.25032
1.27213
1.28286
1.28867
1.29333
1.29754
1.29636
1.2859
1.28203
1.28449
1.28896
1.29503
1.31348
1.34017
1.3536
1.36035
1.36574
1.37055
1.36621
1.35183
1.34698
1.34906
1.35431
1.36122
1.38171
1.41565
1.43482
1.44387
1.45071
1.45646
1.44824
1.42647
1.41813
1.42066
1.42732
1.43534
1.45543
1.49714
1.52597
1.53965
1.54934
1.55827
1.55538
1.52896
1.51163
1.51134
1.51874
1.52954
1.55094
1.59089
1.62454
1.64606
1.66212
1.67421
1.675
1.6571
1.6344
1.62752
1.63364
1.65089
1.68736
1.71906
1.73432
1.75097
2.91122
10.0297
1.10509
1.11251
1.11552
1.11789
1.11554
1.11367
1.11535
1.11836
1.12209
1.1322
1.14992
1.16018
1.16552
1.1696
1.1733
1.17596
1.17249
1.16843
1.16963
1.17286
1.17689
1.18674
1.20713
1.22007
1.22623
1.23065
1.23466
1.23734
1.23192
1.22575
1.22662
1.23008
1.23447
1.24426
1.2675
1.28387
1.29116
1.29612
1.30062
1.30321
1.29498
1.28625
1.28627
1.28968
1.29459
1.30426
1.33111
1.35351
1.36302
1.36902
1.37427
1.37664
1.36414
1.3509
1.34959
1.35356
1.35951
1.36902
1.39846
1.4302
1.44446
1.45182
1.45825
1.46299
1.44974
1.42883
1.42286
1.42476
1.43097
1.44009
1.46706
1.51075
1.53751
1.5503
1.55936
1.56595
1.55873
1.53295
1.51766
1.51779
1.52496
1.53601
1.56088
1.60076
1.63124
1.65074
1.66582
1.67643
1.67596
1.65648
1.63237
1.62471
1.62952
1.64776
1.68507
1.7116
1.73351
2.95854
10.0563
1.10776
1.11591
1.11904
1.12209
1.12117
1.11752
1.11796
1.12056
1.12399
1.13048
1.1477
1.16171
1.16829
1.17265
1.17645
1.17983
1.17869
1.17277
1.17228
1.17508
1.17884
1.1847
1.20247
1.22057
1.22874
1.23359
1.23771
1.24139
1.2396
1.23121
1.22924
1.23171
1.23564
1.24122
1.25907
1.28235
1.29326
1.29905
1.30372
1.30802
1.30563
1.29315
1.28841
1.29041
1.29477
1.30061
1.31785
1.34796
1.36475
1.37245
1.37789
1.38275
1.37964
1.36205
1.35313
1.35392
1.35838
1.36461
1.3783
1.4138
1.4416
1.45394
1.46176
1.46878
1.47029
1.44931
1.42904
1.42556
1.43022
1.43751
1.44709
1.47726
1.52023
1.54421
1.55629
1.56592
1.5737
1.56507
1.53752
1.52231
1.52306
1.53105
1.54308
1.57106
1.60941
1.6367
1.65485
1.66921
1.67854
1.67646
1.65427
1.62845
1.61978
1.62311
1.64327
1.67811
1.70815
3.00817
10.085
1.11026
1.11933
1.12252
1.12578
1.1266
1.12205
1.12066
1.12276
1.12601
1.13045
1.14404
1.16196
1.17081
1.17567
1.1796
1.18323
1.18463
1.17872
1.17555
1.17738
1.18071
1.18482
1.19639
1.21821
1.23061
1.23649
1.24082
1.24483
1.2467
1.23895
1.23251
1.23324
1.23651
1.241
1.25095
1.27595
1.29417
1.30182
1.30679
1.31126
1.31389
1.30407
1.29278
1.29205
1.29552
1.30041
1.30822
1.33373
1.36161
1.37364
1.3801
1.3856
1.39019
1.38128
1.36217
1.35574
1.35735
1.36241
1.36947
1.39008
1.42935
1.45322
1.46312
1.46916
1.47515
1.47498
1.45267
1.43489
1.43207
1.43509
1.44159
1.4529
1.48783
1.53028
1.55329
1.56512
1.57413
1.57904
1.56822
1.54251
1.52817
1.5286
1.53612
1.54909
1.58068
1.61821
1.64306
1.6592
1.67198
1.67949
1.67577
1.65165
1.62342
1.61244
1.61516
1.63584
1.67483
3.04431
10.1102
1.11223
1.12245
1.12568
1.12898
1.13119
1.12758
1.1239
1.12515
1.12809
1.13172
1.14041
1.15984
1.17266
1.1786
1.18277
1.18652
1.18955
1.18615
1.17975
1.17962
1.18233
1.18609
1.19253
1.21219
1.23103
1.23911
1.24388
1.24796
1.25155
1.24829
1.23789
1.23539
1.238
1.24195
1.24723
1.26452
1.29086
1.3037
1.30976
1.31434
1.31887
1.31718
1.30267
1.29553
1.29643
1.29997
1.3053
1.31764
1.34944
1.37306
1.38307
1.38951
1.39518
1.39706
1.38038
1.36237
1.35916
1.3627
1.36854
1.37566
1.4003
1.4394
1.46023
1.4704
1.4784
1.48531
1.48098
1.4545
1.43705
1.4357
1.44124
1.44894
1.46069
1.49616
1.5364
1.55752
1.5692
1.57882
1.58487
1.57435
1.54738
1.53233
1.53269
1.54042
1.55494
1.58897
1.62477
1.64741
1.66269
1.67459
1.68029
1.67406
1.64849
1.61762
1.60302
1.60337
1.63368
3.057
10.1345
1.11335
1.12517
1.12862
1.13205
1.13498
1.13366
1.12815
1.12776
1.13025
1.13363
1.13882
1.15518
1.17323
1.18135
1.18593
1.18973
1.19328
1.19349
1.18565
1.18229
1.18425
1.18772
1.19199
1.20429
1.22773
1.24089
1.24683
1.25107
1.25503
1.25675
1.2475
1.23959
1.23991
1.24286
1.24704
1.25505
1.28016
1.30312
1.31253
1.31806
1.32265
1.32618
1.31765
1.30189
1.29774
1.30021
1.30489
1.3109
1.32985
1.364
1.38294
1.39072
1.39598
1.4015
1.40206
1.38259
1.36696
1.36456
1.3668
1.37203
1.38098
1.41229
1.452
1.47108
1.47958
1.48533
1.49104
1.48611
1.4607
1.445
1.44337
1.4467
1.45315
1.46661
1.50493
1.54381
1.56421
1.57572
1.58493
1.58909
1.57822
1.55236
1.53684
1.53615
1.54282
1.55822
1.59464
1.63028
1.65192
1.66558
1.67538
1.67892
1.67125
1.64445
1.61176
1.58947
1.58966
3.03662
10.1626
1.11338
1.1277
1.13153
1.13512
1.13832
1.13943
1.13369
1.13082
1.13264
1.13588
1.1397
1.14985
1.17074
1.18326
1.18888
1.19285
1.1965
1.19921
1.19394
1.18657
1.18661
1.18952
1.19319
1.19917
1.21919
1.24039
1.2493
1.25424
1.25841
1.26227
1.25954
1.247
1.24226
1.24396
1.24755
1.25247
1.26643
1.29588
1.31395
1.32166
1.32665
1.33098
1.33163
1.31651
1.30341
1.30234
1.30536
1.31013
1.31697
1.3415
1.37501
1.39117
1.39909
1.40541
1.41092
1.40668
1.38315
1.36864
1.36827
1.37299
1.37891
1.38771
1.4201
1.45804
1.47569
1.48554
1.49388
1.50024
1.4928
1.46532
1.4484
1.44697
1.45251
1.46033
1.47446
1.5123
1.54874
1.56792
1.5797
1.58938
1.59469
1.5837
1.55565
1.53873
1.53745
1.54402
1.5602
1.59759
1.63291
1.65371
1.66647
1.67442
1.67618
1.66724
1.63945
1.59908
1.56671
2.98263
10.1929
1.11204
1.12988
1.13448
1.13817
1.14146
1.14414
1.14075
1.13509
1.13548
1.13827
1.14167
1.1468
1.16406
1.18316
1.1914
1.19594
1.19979
1.20337
1.20294
1.19363
1.18959
1.19119
1.19445
1.19858
1.20957
1.23489
1.25086
1.25753
1.26184
1.26582
1.26834
1.25876
1.24694
1.24586
1.24908
1.25331
1.25913
1.27966
1.30895
1.32244
1.32878
1.33372
1.33844
1.33631
1.3179
1.30692
1.30647
1.30937
1.31432
1.32355
1.35454
1.3868
1.40058
1.40707
1.41174
1.41728
1.41213
1.3883
1.37582
1.37462
1.37686
1.38214
1.39312
1.43005
1.46877
1.48608
1.49418
1.50011
1.5055
1.4989
1.47296
1.45661
1.45444
1.4577
1.46416
1.48028
1.52109
1.55635
1.57421
1.58482
1.59369
1.59828
1.58782
1.5596
1.54117
1.53848
1.54374
1.55944
1.59818
1.63437
1.65476
1.66599
1.67183
1.67199
1.66249
1.62717
1.57329
2.90968
10.2285
1.1091
1.13066
1.13727
1.14133
1.14484
1.14818
1.1484
1.14143
1.13876
1.14044
1.14338
1.14703
1.1568
1.17924
1.19324
1.19922
1.20315
1.20675
1.20947
1.20346
1.19409
1.19326
1.19616
1.19995
1.20508
1.22316
1.24836
1.25965
1.26499
1.26897
1.27292
1.27192
1.25791
1.25027
1.2511
1.25393
1.25816
1.26609
1.29303
1.3198
1.3312
1.33757
1.34287
1.34706
1.33917
1.31818
1.3095
1.31099
1.31523
1.32031
1.33038
1.36395
1.39416
1.40699
1.41493
1.4214
1.42642
1.41679
1.39069
1.37778
1.37826
1.38346
1.38958
1.39978
1.43562
1.47264
1.48939
1.49906
1.5072
1.51339
1.50623
1.47887
1.46021
1.45743
1.46251
1.47059
1.48853
1.52834
1.56048
1.5774
1.5892
1.59907
1.60445
1.5922
1.56105
1.54114
1.53789
1.54269
1.55825
1.59753
1.63433
1.65416
1.66378
1.66733
1.66701
1.65164
1.60788
2.85365
10.2692
1.10552
1.12864
1.13973
1.14484
1.14852
1.15193
1.15449
1.14968
1.14271
1.14263
1.14532
1.14879
1.15378
1.17074
1.19229
1.20165
1.20627
1.20997
1.21353
1.21353
1.20271
1.19685
1.19827
1.20155
1.20534
1.21293
1.2376
1.25931
1.26785
1.27269
1.2767
1.28021
1.27383
1.25816
1.253
1.25485
1.25858
1.2633
1.27504
1.30663
1.32993
1.33902
1.34418
1.34878
1.35308
1.34299
1.32242
1.31549
1.31605
1.31913
1.32432
1.33786
1.37555
1.40509
1.41671
1.42239
1.42695
1.43228
1.42312
1.39791
1.38625
1.38532
1.38739
1.39258
1.40462
1.44372
1.48199
1.49871
1.50666
1.51272
1.51813
1.51267
1.48678
1.46796
1.46438
1.46722
1.47362
1.49289
1.53561
1.56897
1.58523
1.59458
1.60248
1.60677
1.59525
1.56444
1.54282
1.53798
1.54124
1.55534
1.59537
1.63288
1.65171
1.65909
1.6619
1.65772
1.64413
2.83688
10.3094
1.10398
1.12275
1.1408
1.14822
1.15213
1.15547
1.15862
1.15818
1.14941
1.14586
1.14771
1.15091
1.15443
1.16242
1.18524
1.20243
1.20931
1.21339
1.2171
1.22034
1.21522
1.20353
1.20087
1.20295
1.20637
1.21069
1.22309
1.2515
1.26919
1.27643
1.28081
1.28473
1.28663
1.27386
1.25945
1.25748
1.26039
1.26424
1.26902
1.28391
1.31739
1.33785
1.34644
1.35246
1.35791
1.36045
1.34521
1.32387
1.31815
1.32101
1.32604
1.3313
1.34468
1.38223
1.40984
1.42154
1.42956
1.43616
1.44065
1.42907
1.40212
1.3885
1.38848
1.39361
1.40011
1.4115
1.44857
1.48468
1.50101
1.51066
1.51904
1.52523
1.51979
1.49301
1.47151
1.46639
1.47025
1.47812
1.49881
1.5406
1.57136
1.58653
1.59708
1.60642
1.6121
1.60063
1.56742
1.54255
1.53575
1.53824
1.55135
1.592
1.62972
1.64704
1.65362
1.65172
1.66363
2.85873
10.3459
1.10528
1.11584
1.1375
1.14986
1.15518
1.15883
1.16223
1.16483
1.1595
1.15118
1.15052
1.15279
1.15598
1.16013
1.17397
1.19891
1.21149
1.21695
1.22072
1.22436
1.2258
1.21496
1.2051
1.20498
1.20819
1.21203
1.21682
1.23443
1.26345
1.27757
1.28395
1.28843
1.29249
1.29224
1.27605
1.26384
1.2628
1.26495
1.26879
1.27433
1.29419
1.32872
1.34705
1.35447
1.35876
1.36345
1.36635
1.35035
1.33062
1.32589
1.32677
1.32982
1.33513
1.35149
1.39192
1.42008
1.43084
1.43628
1.44081
1.44577
1.4365
1.41066
1.39761
1.3963
1.39825
1.40312
1.4155
1.45545
1.49324
1.5095
1.51727
1.52351
1.52943
1.52633
1.50061
1.47785
1.47178
1.47349
1.47913
1.49923
1.54375
1.57808
1.59476
1.60366
1.61086
1.61485
1.60391
1.57
1.54205
1.53302
1.53446
1.54667
1.58766
1.6245
1.64139
1.64278
1.66677
2.90897
10.3797
1.10756
1.11284
1.12901
1.1494
1.15806
1.16244
1.16587
1.16908
1.16929
1.15964
1.15385
1.155
1.15811
1.16162
1.16738
1.18761
1.21027
1.21953
1.22416
1.22778
1.23137
1.22915
1.21511
1.20899
1.21036
1.21328
1.2169
1.22298
1.24604
1.27376
1.28597
1.29225
1.29713
1.30131
1.29718
1.27724
1.26635
1.26697
1.27076
1.27495
1.28041
1.30239
1.33635
1.35294
1.36079
1.36709
1.37252
1.37338
1.35433
1.33367
1.32861
1.33164
1.33677
1.34211
1.35721
1.39603
1.42271
1.43427
1.4425
1.44914
1.45367
1.44396
1.41727
1.40093
1.39893
1.40348
1.41007
1.42264
1.46041
1.49514
1.51107
1.52122
1.52994
1.53606
1.53247
1.50601
1.48072
1.47263
1.47509
1.48226
1.50279
1.54632
1.58018
1.5963
1.60566
1.61305
1.61725
1.60738
1.57274
1.54114
1.52968
1.53007
1.54162
1.58233
1.61789
1.62969
1.65955
2.97339
10.4128
1.10974
1.11376
1.12139
1.14316
1.15918
1.16551
1.16912
1.1724
1.17543
1.17155
1.16076
1.15836
1.16053
1.16369
1.16712
1.17546
1.2006
1.21998
1.22748
1.23172
1.23535
1.23836
1.23089
1.21629
1.21238
1.21438
1.21793
1.222
1.23034
1.25779
1.2832
1.29344
1.29878
1.303
1.30721
1.30194
1.28207
1.27306
1.27311
1.2751
1.27911
1.28588
1.31191
1.3463
1.36233
1.369
1.37305
1.37804
1.38013
1.36184
1.34186
1.33689
1.33734
1.33983
1.34511
1.36246
1.40402
1.43242
1.44324
1.44866
1.45337
1.45878
1.45269
1.42679
1.40979
1.4068
1.40848
1.41301
1.42558
1.46593
1.50344
1.51969
1.52727
1.5332
1.53971
1.53924
1.51413
1.48723
1.47813
1.47849
1.48291
1.50062
1.54493
1.58102
1.59841
1.60791
1.61498
1.61913
1.61061
1.57546
1.53975
1.52535
1.52482
1.53586
1.57655
1.60474
1.64185
3.03958
10.441
1.11257
1.11588
1.1194
1.13197
1.15532
1.16724
1.17254
1.17612
1.17959
1.1816
1.1728
1.16357
1.16301
1.16525
1.16847
1.17267
1.18551
1.21309
1.22914
1.23563
1.23942
1.243
1.24442
1.23156
1.21834
1.21697
1.2199
1.2236
1.22767
1.23748
1.26751
1.29104
1.30054
1.30633
1.31149
1.31522
1.30615
1.28448
1.2756
1.27704
1.28113
1.28556
1.29199
1.31811
1.35155
1.36691
1.37505
1.3816
1.38694
1.38732
1.36786
1.34572
1.33909
1.34143
1.34653
1.35218
1.3677
1.40669
1.43391
1.44585
1.45436
1.46116
1.46614
1.4605
1.43472
1.41417
1.40907
1.41255
1.41878
1.43191
1.47004
1.5045
1.52046
1.53125
1.54034
1.54676
1.54573
1.51996
1.4901
1.47769
1.47781
1.48331
1.50006
1.5435
1.58174
1.6002
1.60953
1.61608
1.61971
1.61276
1.57835
1.53833
1.52051
1.51835
1.53015
1.56468
1.61243
3.09583
10.4628
1.11574
1.11753
1.12045
1.12555
1.14427
1.1665
1.17563
1.18002
1.18344
1.18677
1.18559
1.17295
1.16639
1.16753
1.17076
1.17429
1.17888
1.19567
1.22348
1.23693
1.24301
1.24711
1.2508
1.24991
1.2343
1.2234
1.22283
1.22491
1.2283
1.23281
1.24574
1.2778
1.29961
1.30814
1.31277
1.31652
1.3206
1.31208
1.29124
1.28333
1.2834
1.28521
1.2893
1.29693
1.32606
1.36101
1.37655
1.38298
1.38666
1.39151
1.3941
1.37695
1.35479
1.34777
1.34781
1.34978
1.35474
1.37124
1.413
1.44307
1.45467
1.46028
1.46517
1.4711
1.46928
1.44463
1.42243
1.41627
1.41704
1.42107
1.43272
1.47252
1.51208
1.53015
1.53822
1.54389
1.55007
1.55167
1.52835
1.49648
1.48222
1.48073
1.48479
1.4998
1.54123
1.58006
1.5995
1.60958
1.61647
1.61982
1.61351
1.58063
1.53772
1.51473
1.51094
1.51824
1.57285
3.13002
10.4821
1.1191
1.11957
1.12253
1.126
1.13416
1.15788
1.17623
1.1832
1.18693
1.19016
1.19312
1.18768
1.17454
1.17128
1.17321
1.17601
1.17922
1.18461
1.20586
1.23296
1.24508
1.25105
1.25535
1.25907
1.25539
1.23675
1.22647
1.22704
1.23068
1.23445
1.23872
1.25264
1.28541
1.30571
1.31408
1.31999
1.32522
1.32857
1.31748
1.29506
1.28586
1.2872
1.2915
1.29623
1.30312
1.33058
1.36426
1.37961
1.38787
1.39453
1.3999
1.40165
1.38495
1.36051
1.35018
1.35101
1.35576
1.36167
1.37663
1.41514
1.44397
1.45671
1.46583
1.47291
1.47837
1.47631
1.45241
1.42714
1.41805
1.41984
1.42544
1.43735
1.47444
1.51213
1.53
1.54091
1.55062
1.55741
1.55867
1.5357
1.50181
1.48462
1.48229
1.48537
1.49606
1.53618
1.57847
1.59998
1.61003
1.61583
1.61816
1.61227
1.58232
1.53795
1.51059
1.49454
1.52627
3.12062
10.5019
1.12466
1.12224
1.12485
1.12812
1.13198
1.14402
1.1698
1.18462
1.19064
1.19417
1.19745
1.19927
1.18912
1.1769
1.17496
1.17722
1.18057
1.18439
1.19146
1.21602
1.24157
1.25224
1.25775
1.26194
1.26567
1.26106
1.24255
1.23364
1.23355
1.23527
1.23869
1.24362
1.26061
1.29458
1.31437
1.32212
1.32624
1.33017
1.33441
1.32528
1.30338
1.29456
1.2943
1.29568
1.29952
1.30701
1.33646
1.37256
1.38895
1.39555
1.39928
1.40413
1.40824
1.39533
1.37019
1.35915
1.3582
1.35983
1.36424
1.3787
1.41982
1.45273
1.46576
1.47186
1.4765
1.48243
1.48381
1.46226
1.43516
1.42491
1.42416
1.42721
1.43619
1.47244
1.51691
1.5396
1.54902
1.55521
1.56083
1.56291
1.54295
1.50719
1.48588
1.48117
1.48437
1.49498
1.53291
1.57528
1.5979
1.60837
1.6138
1.61532
1.60981
1.58283
1.53924
1.4994
1.49099
3.06913
10.5275
1.13346
1.12626
1.12759
1.1303
1.13334
1.13801
1.1544
1.18051
1.19298
1.19833
1.20138
1.2047
1.20444
1.19005
1.17977
1.1798
1.18283
1.1863
1.1899
1.19768
1.22471
1.24933
1.25948
1.26515
1.26998
1.27375
1.26658
1.24587
1.23625
1.23728
1.24094
1.24494
1.24944
1.2663
1.29999
1.31896
1.32728
1.33368
1.33889
1.34243
1.33236
1.30897
1.29735
1.29746
1.30141
1.30631
1.31287
1.3394
1.37422
1.39089
1.39969
1.40685
1.41232
1.41555
1.40409
1.37778
1.36248
1.36079
1.36494
1.37088
1.3843
1.42173
1.45289
1.46692
1.47643
1.48404
1.4898
1.49064
1.46998
1.44033
1.4264
1.42584
1.43066
1.43997
1.47229
1.51563
1.53885
1.54992
1.55854
1.56547
1.56814
1.54973
1.5137
1.48998
1.4836
1.48482
1.49146
1.52606
1.57104
1.59594
1.60653
1.61101
1.61161
1.60575
1.58217
1.53123
1.48772
2.98424
10.5615
1.14458
1.13322
1.13082
1.13306
1.13616
1.1393
1.14446
1.16392
1.18918
1.20023
1.20565
1.20922
1.21251
1.20902
1.19298
1.18514
1.18548
1.18764
1.19095
1.19506
1.20509
1.23414
1.25733
1.26654
1.27137
1.27483
1.27859
1.27257
1.25292
1.24417
1.24387
1.2453
1.24862
1.25376
1.27308
1.30845
1.32809
1.33562
1.33964
1.3437
1.34831
1.34149
1.31844
1.30642
1.30495
1.3057
1.30884
1.31554
1.34323
1.38167
1.40032
1.40757
1.41149
1.4162
1.42128
1.41437
1.38827
1.37171
1.36863
1.36967
1.37337
1.38494
1.42368
1.46042
1.47608
1.48292
1.48749
1.49345
1.49722
1.48061
1.44949
1.43382
1.43111
1.4328
1.43853
1.4668
1.51531
1.54506
1.55737
1.56385
1.56916
1.57195
1.55784
1.51991
1.49132
1.48176
1.4824
1.48852
1.52091
1.56673
1.59343
1.60386
1.60707
1.60609
1.60111
1.57327
1.52326
2.90349
10.6059
1.15446
1.14724
1.13715
1.13677
1.1388
1.14121
1.14408
1.15005
1.17299
1.19776
1.20819
1.21358
1.2172
1.22033
1.21404
1.19589
1.18842
1.18997
1.1936
1.19732
1.20101
1.21139
1.24148
1.26354
1.2723
1.27784
1.28285
1.28655
1.27876
1.25728
1.24664
1.24715
1.25083
1.25514
1.25985
1.27767
1.31201
1.33128
1.3401
1.34697
1.35229
1.35633
1.34951
1.32557
1.30961
1.30711
1.31043
1.31531
1.32181
1.3461
1.38244
1.40123
1.41073
1.41841
1.42414
1.42846
1.4228
1.39712
1.37622
1.37068
1.37365
1.37913
1.38988
1.42437
1.45933
1.47602
1.4866
1.49539
1.50156
1.50453
1.48884
1.45587
1.4357
1.43165
1.4352
1.44216
1.46632
1.51255
1.54451
1.55881
1.56668
1.57182
1.57435
1.56241
1.52634
1.49473
1.48248
1.48095
1.48457
1.5137
1.5614
1.58948
1.59927
1.601
1.60086
1.59142
1.57471
2.86635
10.6512
1.16047
1.16271
1.14865
1.14015
1.13999
1.14246
1.14566
1.14937
1.15731
1.18212
1.20532
1.21496
1.22027
1.22431
1.22724
1.21977
1.20248
1.19618
1.19677
1.19853
1.20168
1.20601
1.21851
1.24969
1.27129
1.2798
1.28418
1.28748
1.29159
1.28622
1.26573
1.25529
1.25451
1.25555
1.25851
1.2635
1.28261
1.31931
1.34063
1.34866
1.35278
1.35645
1.36129
1.35859
1.33604
1.31901
1.31543
1.31589
1.31829
1.32391
1.3477
1.38811
1.41057
1.41905
1.42341
1.4279
1.43336
1.43202
1.4081
1.38536
1.37856
1.37837
1.38107
1.38926
1.42304
1.46528
1.48605
1.49431
1.49905
1.50446
1.50959
1.49967
1.46697
1.44423
1.43819
1.43826
1.44168
1.45983
1.50734
1.54466
1.56049
1.56753
1.57282
1.57639
1.56832
1.53307
1.49661
1.48023
1.47739
1.4805
1.50745
1.55542
1.58449
1.59344
1.59588
1.58983
1.60654
2.88314
10.6901
1.16509
1.17096
1.16481
1.14909
1.14352
1.14511
1.14831
1.15161
1.15505
1.1631
1.18966
1.21279
1.2223
1.22752
1.23182
1.23467
1.22581
1.20669
1.19924
1.20075
1.2043
1.20791
1.21169
1.22365
1.25499
1.27606
1.28462
1.29064
1.2957
1.29961
1.29374
1.27198
1.25839
1.25721
1.26056
1.26513
1.26991
1.28645
1.32131
1.34246
1.35188
1.35902
1.36459
1.36903
1.36674
1.34512
1.32412
1.31751
1.31963
1.32429
1.33056
1.35087
1.38824
1.41059
1.42123
1.42964
1.43593
1.44088
1.43976
1.41722
1.39074
1.38022
1.38119
1.38611
1.39427
1.42307
1.46304
1.48429
1.49591
1.50593
1.51281
1.51713
1.508
1.47486
1.44726
1.43769
1.43875
1.44378
1.45933
1.50296
1.5428
1.56152
1.56981
1.5748
1.57771
1.5722
1.53984
1.49997
1.47956
1.4745
1.47594
1.5004
1.54866
1.57774
1.58794
1.58355
1.6174
2.93416
10.7242
1.16828
1.17544
1.17652
1.16696
1.15285
1.14938
1.1507
1.15286
1.15619
1.16038
1.17043
1.1981
1.22007
1.22889
1.23363
1.2372
1.23999
1.23244
1.21455
1.20742
1.2074
1.20864
1.21165
1.21601
1.22983
1.26247
1.28427
1.29269
1.29691
1.3002
1.30464
1.30216
1.28189
1.26772
1.26537
1.266
1.26821
1.27276
1.28919
1.32642
1.35107
1.36048
1.36496
1.36833
1.3733
1.37491
1.35685
1.33428
1.3267
1.32648
1.32809
1.33264
1.35056
1.3912
1.41924
1.43014
1.43529
1.43935
1.44488
1.44737
1.42872
1.40081
1.38886
1.38695
1.38809
1.39333
1.41833
1.46478
1.49402
1.50522
1.51075
1.51502
1.52004
1.51662
1.48655
1.45579
1.44384
1.44181
1.44368
1.45382
1.49605
1.54155
1.56276
1.57072
1.57552
1.57897
1.57653
1.54658
1.50225
1.47662
1.46972
1.47054
1.49351
1.54102
1.57056
1.57485
1.61484
3.00506
10.7575
1.1687
1.17926
1.18163
1.18308
1.17138
1.1564
1.15312
1.15558
1.15926
1.16287
1.16655
1.17627
1.20441
1.22595
1.23471
1.24004
1.24471
1.24803
1.23955
1.21912
1.20984
1.21067
1.21409
1.21802
1.22201
1.23417
1.26593
1.28754
1.29664
1.30317
1.30842
1.31272
1.31038
1.29014
1.27203
1.26747
1.26992
1.27425
1.27916
1.29257
1.3269
1.35162
1.36242
1.37025
1.37633
1.38108
1.38265
1.36701
1.3418
1.32954
1.32922
1.33334
1.33897
1.35381
1.39027
1.41803
1.43084
1.44026
1.44759
1.4529
1.45491
1.43823
1.40771
1.39064
1.38824
1.39223
1.39854
1.4189
1.4616
1.49087
1.50431
1.51429
1.52196
1.52681
1.52375
1.49483
1.46026
1.44365
1.44145
1.44503
1.45489
1.49241
1.53848
1.56213
1.57134
1.57603
1.57894
1.57752
1.55132
1.50447
1.4737
1.46467
1.46527
1.4877
1.53386
1.55507
1.60213
3.0805
10.7872
1.16274
1.18091
1.18522
1.18905
1.19002
1.17741
1.16355
1.16115
1.16273
1.16472
1.16768
1.17162
1.18218
1.21101
1.23281
1.24164
1.24621
1.24912
1.25256
1.24683
1.22774
1.21863
1.21807
1.21897
1.22153
1.22563
1.23863
1.2718
1.29576
1.30509
1.30962
1.31279
1.31736
1.3184
1.30118
1.28184
1.27625
1.27624
1.27752
1.28145
1.29374
1.3295
1.35938
1.37153
1.37684
1.38019
1.38506
1.38919
1.37876
1.35286
1.33906
1.33677
1.33734
1.34069
1.3524
1.38984
1.42525
1.4406
1.44711
1.45094
1.45616
1.46074
1.44993
1.41937
1.40043
1.39578
1.39549
1.39856
1.41306
1.45703
1.4964
1.51307
1.51973
1.52365
1.52836
1.53012
1.50727
1.47033
1.45057
1.44529
1.44523
1.45029
1.48394
1.53431
1.56073
1.57
1.57494
1.57852
1.57816
1.55543
1.50732
1.47144
1.4601
1.45966
1.48268
1.51879
1.57595
3.14738
10.8081
1.14784
1.17892
1.18736
1.19248
1.19595
1.19733
1.18503
1.16943
1.16508
1.16711
1.17044
1.17327
1.1766
1.18643
1.21563
1.23762
1.24641
1.25205
1.25698
1.26066
1.25477
1.23424
1.22169
1.22065
1.2237
1.22775
1.23173
1.24218
1.27348
1.29767
1.30807
1.31526
1.32093
1.32548
1.3266
1.31085
1.28814
1.27844
1.27902
1.28294
1.28789
1.29798
1.32943
1.359
1.37236
1.38089
1.38799
1.39307
1.39676
1.38849
1.36197
1.34287
1.33848
1.34151
1.34661
1.35642