/*--------------------------------*- C++ -*----------------------------------*\
  =========                 |
  \\      /  F ield         | OpenFOAM: The Open Source CFD Toolbox
   \\    /   O peration     | Website:  https://openfoam.org
    \\  /    A nd           | Version:  12
     \\/     M anipulation  |
\*---------------------------------------------------------------------------*/
FoamFile
{
    format      ascii;
    class       volScalarField;
    location    "14";
    object      rho;
}
// * * * * * * * * * * * * * * * * * * * * * * * * * * * * * * * * * * * * * //

dimensions      [1 -3 0 0 0 0 0];

internalField   nonuniform List<scalar> 
9801
(
1.04
1.04281
1.04705
1.05694
1.07141
1.08077
1.08517
1.08807
1.09045
1.09151
1.09243
1.09425
1.09703
1.1005
1.10684
1.12
1.13339
1.14057
1.14453
1.14762
1.14909
1.14916
1.15035
1.15293
1.1563
1.161
1.17186
1.18833
1.19878
1.20382
1.20734
1.20911
1.20898
1.2097
1.21195
1.21543
1.21995
1.22864
1.24651
1.26098
1.26774
1.27202
1.27389
1.27284
1.27246
1.2746
1.27824
1.28291
1.29066
1.31014
1.32998
1.33941
1.34451
1.34632
1.34297
1.34139
1.34374
1.34762
1.3529
1.36134
1.38343
1.40802
1.42113
1.42815
1.43079
1.42354
1.41874
1.42092
1.42699
1.43473
1.44637
1.47584
1.50493
1.52074
1.53005
1.5336
1.52193
1.51201
1.51414
1.52316
1.53593
1.56494
1.61367
1.64397
1.66107
1.67432
1.6763
1.65728
1.64238
1.64874
1.67097
1.72154
1.80516
1.87013
1.92564
1.99341
2.01782
2.87806
9.10807
1.04531
1.04901
1.05364
1.06492
1.07724
1.08502
1.09014
1.09406
1.0967
1.0959
1.09611
1.09873
1.10229
1.10613
1.11274
1.12648
1.13801
1.14475
1.14943
1.15322
1.15349
1.15167
1.15355
1.15718
1.16128
1.16611
1.17718
1.19261
1.20223
1.20796
1.21245
1.21415
1.21065
1.21099
1.21452
1.21908
1.22397
1.23218
1.24987
1.26425
1.27154
1.27666
1.27954
1.27462
1.27216
1.27542
1.28043
1.28578
1.29314
1.31148
1.33134
1.3418
1.34809
1.35221
1.3463
1.34021
1.34276
1.34811
1.3542
1.36228
1.38368
1.40847
1.42199
1.42988
1.43486
1.42783
1.41778
1.41912
1.42624
1.43446
1.44634
1.47569
1.50522
1.52083
1.53091
1.53763
1.52718
1.51056
1.51158
1.52233
1.5358
1.56327
1.60578
1.63538
1.65381
1.67056
1.6814
1.6616
1.6401
1.64792
1.67119
1.70828
1.7733
1.82989
1.87822
1.93007
1.92914
2.75506
9.13297
1.04418
1.04819
1.05297
1.06422
1.07639
1.08371
1.08871
1.09276
1.0957
1.09526
1.09509
1.09751
1.10109
1.10507
1.11164
1.12533
1.13667
1.14316
1.14788
1.1518
1.15245
1.15065
1.15233
1.15591
1.16013
1.16493
1.17558
1.19085
1.20031
1.20609
1.21076
1.21293
1.20966
1.2097
1.2131
1.21764
1.2225
1.23007
1.24724
1.26166
1.26913
1.27446
1.27775
1.27342
1.27076
1.27383
1.27866
1.28398
1.29069
1.30772
1.32753
1.33829
1.3449
1.34959
1.34515
1.33804
1.33932
1.34444
1.35103
1.35903
1.37851
1.40289
1.4168
1.42491
1.4308
1.42694
1.41548
1.41413
1.42027
1.42834
1.43914
1.46575
1.4947
1.51143
1.52236
1.53127
1.52648
1.50751
1.5039
1.51299
1.52543
1.54551
1.58505
1.62201
1.64474
1.66164
1.67483
1.66113
1.63473
1.63254
1.65329
1.68287
1.73639
1.79511
1.84017
1.8862
1.88626
2.70762
9.01895
1.04291
1.04714
1.05238
1.06389
1.07576
1.08273
1.08745
1.09139
1.09468
1.09476
1.09376
1.0956
1.09896
1.10315
1.11027
1.12392
1.13503
1.14136
1.14597
1.14995
1.15126
1.14897
1.14978
1.15289
1.15708
1.16231
1.17318
1.18835
1.19779
1.20353
1.20822
1.21108
1.20774
1.20629
1.20883
1.21304
1.21809
1.22592
1.24287
1.25771
1.2655
1.27097
1.27501
1.27169
1.26696
1.26845
1.27252
1.27783
1.28473
1.30114
1.3213
1.33259
1.3394
1.34476
1.34299
1.3338
1.3326
1.33672
1.34294
1.35088
1.36882
1.39358
1.40871
1.41721
1.42366
1.42411
1.4109
1.40482
1.40944
1.41719
1.42691
1.44985
1.48089
1.50002
1.51148
1.52082
1.52303
1.50457
1.49227
1.49724
1.50899
1.52415
1.55697
1.59773
1.62347
1.64035
1.65543
1.65614
1.63201
1.6173
1.62681
1.6514
1.68648
1.7383
1.78275
1.82336
1.83743
2.71359
8.9353
1.04059
1.04472
1.04997
1.06198
1.07372
1.08042
1.08497
1.08876
1.09205
1.0926
1.09113
1.09251
1.09555
1.09945
1.10662
1.12061
1.13181
1.13807
1.14258
1.14648
1.14847
1.14605
1.14597
1.14863
1.15243
1.1573
1.16815
1.18391
1.19365
1.19929
1.2038
1.20704
1.20432
1.20175
1.20382
1.20759
1.2121
1.21919
1.23572
1.2514
1.25967
1.26515
1.26955
1.26822
1.26186
1.26199
1.26578
1.27077
1.27712
1.29216
1.31231
1.32423
1.33126
1.33679
1.33834
1.32937
1.32474
1.32777
1.33354
1.34075
1.35595
1.38087
1.39769
1.40683
1.4136
1.41807
1.40862
1.39654
1.39728
1.4043
1.41317
1.43061
1.46239
1.48556
1.49801
1.5075
1.51524
1.50528
1.48527
1.48176
1.4915
1.50478
1.52778
1.56862
1.60273
1.62391
1.64062
1.65233
1.63865
1.61663
1.61078
1.62591
1.65248
1.69448
1.73879
1.7734
1.79111
2.72586
8.89342
1.03845
1.04243
1.04717
1.05924
1.07143
1.07818
1.08264
1.08631
1.08952
1.09038
1.08866
1.08968
1.0925
1.09605
1.10224
1.11642
1.12848
1.13496
1.13941
1.14317
1.14564
1.14346
1.14231
1.14457
1.14812
1.1524
1.16195
1.17858
1.18939
1.19526
1.19964
1.20308
1.20156
1.19749
1.19837
1.20182
1.20619
1.21239
1.22782
1.24468
1.2539
1.25967
1.26427
1.26567
1.25897
1.25576
1.25842
1.26313
1.26904
1.28233
1.30314
1.31656
1.32426
1.33015
1.33463
1.32944
1.31971
1.31904
1.32397
1.33074
1.34307
1.36816
1.38832
1.39875
1.40594
1.41243
1.41035
1.39464
1.38854
1.3933
1.40152
1.41402
1.4427
1.47325
1.48982
1.5
1.50893
1.50832
1.48743
1.47546
1.47922
1.49054
1.50588
1.53801
1.57856
1.60678
1.62646
1.64369
1.64842
1.62865
1.61155
1.61213
1.62859
1.65738
1.69871
1.73374
1.75211
2.74726
8.88367
1.03655
1.04037
1.04469
1.05626
1.06895
1.07589
1.08033
1.08401
1.08729
1.08843
1.08638
1.08692
1.08964
1.09321
1.09891
1.11252
1.12514
1.13197
1.13656
1.14044
1.14357
1.14202
1.13926
1.14075
1.14417
1.14849
1.15715
1.17352
1.18529
1.19168
1.19626
1.20021
1.20118
1.19567
1.19372
1.19641
1.20084
1.20714
1.22165
1.23902
1.2491
1.25528
1.26024
1.26413
1.26014
1.2528
1.25265
1.25664
1.26226
1.27369
1.29525
1.31105
1.31949
1.32561
1.33114
1.33124
1.31951
1.31406
1.31727
1.32345
1.33269
1.35533
1.3808
1.39407
1.40169
1.40842
1.41153
1.39833
1.38678
1.38755
1.39446
1.40345
1.42268
1.45768
1.48275
1.49587
1.50561
1.51256
1.50122
1.48028
1.47435
1.48087
1.4929
1.51312
1.55139
1.58824
1.61363
1.63278
1.64922
1.64606
1.62608
1.61326
1.61729
1.63378
1.6644
1.70159
1.72186
2.76376
8.88959
1.03549
1.03903
1.04303
1.05404
1.0675
1.07482
1.0793
1.08297
1.08625
1.08783
1.08544
1.08501
1.08743
1.09093
1.09653
1.11
1.12325
1.13033
1.13503
1.13903
1.14258
1.14249
1.13834
1.13832
1.14125
1.14532
1.15342
1.16982
1.18268
1.18957
1.19447
1.19879
1.20183
1.19742
1.19238
1.19345
1.19728
1.20272
1.21602
1.23486
1.24629
1.25286
1.25812
1.26291
1.26306
1.25365
1.25017
1.25298
1.25795
1.26644
1.28727
1.30754
1.31779
1.32414
1.32977
1.33298
1.32355
1.31393
1.31444
1.31971
1.32646
1.34183
1.37117
1.39102
1.40056
1.40754
1.41344
1.40771
1.39132
1.38593
1.38979
1.39756
1.40854
1.43684
1.47223
1.49274
1.50468
1.51448
1.51754
1.49664
1.47803
1.47732
1.48644
1.49959
1.52475
1.56347
1.59544
1.61855
1.63785
1.6513
1.6463
1.62728
1.61537
1.61911
1.63379
1.66612
1.69213
2.78402
8.9017
1.03531
1.0386
1.04214
1.05181
1.06623
1.07466
1.07946
1.08318
1.08645
1.08858
1.08633
1.0848
1.08666
1.08993
1.09462
1.10711
1.12205
1.13018
1.13514
1.13915
1.14277
1.14388
1.13935
1.13783
1.14009
1.14382
1.15011
1.16599
1.18113
1.18908
1.19433
1.19876
1.20256
1.20068
1.19369
1.193
1.19614
1.20069
1.21036
1.23058
1.24536
1.25291
1.25826
1.26306
1.26549
1.25768
1.25092
1.25208
1.2566
1.26254
1.27811
1.30301
1.31743
1.32473
1.33038
1.3351
1.33083
1.31807
1.31469
1.31818
1.32401
1.33248
1.35666
1.38561
1.4004
1.40845
1.41534
1.41756
1.4028
1.3884
1.38723
1.39343
1.40201
1.41788
1.45376
1.48575
1.50282
1.51371
1.52264
1.51943
1.49604
1.48217
1.48393
1.49343
1.50757
1.53694
1.57434
1.60292
1.62426
1.64302
1.65171
1.64513
1.62664
1.61321
1.61415
1.6289
1.65806
2.79905
8.91867
1.03624
1.03933
1.0426
1.05042
1.06522
1.07514
1.0804
1.08428
1.08765
1.09032
1.08881
1.08616
1.0874
1.09042
1.09434
1.10428
1.12085
1.13088
1.13626
1.14039
1.14408
1.14633
1.14228
1.13896
1.14049
1.14398
1.14878
1.1619
1.17985
1.18973
1.19532
1.19981
1.20393
1.20475
1.19744
1.1944
1.19661
1.20078
1.20706
1.22477
1.24431
1.25396
1.25964
1.26443
1.26828
1.26386
1.25432
1.25308
1.25656
1.26175
1.27059
1.29437
1.31592
1.32584
1.33201
1.33749
1.33909
1.32703
1.31756
1.31771
1.32244
1.32896
1.34278
1.37426
1.39866
1.41013
1.4175
1.42391
1.4194
1.39898
1.38952
1.39174
1.39906
1.408
1.42892
1.4678
1.49566
1.51069
1.52155
1.53041
1.52378
1.49865
1.4867
1.49019
1.50069
1.51681
1.54837
1.58252
1.6081
1.62814
1.64516
1.65031
1.64223
1.62242
1.60594
1.60373
1.61703
2.7998
8.94026
1.03823
1.04098
1.04403
1.05004
1.06434
1.07596
1.08193
1.08607
1.0896
1.09271
1.09253
1.08893
1.08924
1.09188
1.09538
1.10247
1.11906
1.13172
1.13799
1.14233
1.1461
1.14916
1.14676
1.14167
1.14215
1.14518
1.14922
1.15833
1.17746
1.19062
1.19707
1.2017
1.20589
1.2086
1.20306
1.1973
1.19833
1.2018
1.20645
1.21808
1.24075
1.25484
1.26159
1.26656
1.27109
1.27115
1.26088
1.2556
1.25724
1.26167
1.26752
1.28326
1.3109
1.32696
1.33445
1.3401
1.34459
1.33895
1.32373
1.31879
1.32181
1.32785
1.33557
1.35705
1.39029
1.40923
1.41833
1.42537
1.43088
1.42056
1.40013
1.39364
1.39619
1.40325
1.4135
1.44123
1.48104
1.50632
1.52039
1.53092
1.53687
1.52551
1.50234
1.49285
1.49706
1.50746
1.52547
1.55856
1.59014
1.61309
1.63057
1.64458
1.64694
1.63679
1.61515
1.59425
1.5807
2.77989
8.96714
1.04093
1.0432
1.04605
1.05057
1.0633
1.07692
1.08395
1.08839
1.09205
1.09537
1.09663
1.09279
1.09172
1.09397
1.09731
1.10223
1.11652
1.13223
1.14001
1.14467
1.14853
1.15201
1.15196
1.14597
1.14461
1.14712
1.15078
1.15638
1.17293
1.19064
1.19908
1.20412
1.20839
1.21215
1.20998
1.202
1.20049
1.20306
1.20712
1.21375
1.2336
1.2543
1.26375
1.26925
1.27394
1.27731
1.27015
1.25974
1.25862
1.26196
1.26711
1.27541
1.29987
1.32507
1.33655
1.34293
1.3482
1.35027
1.33685
1.32411
1.32299
1.3269
1.33311
1.34284
1.37204
1.40353
1.41905
1.4278
1.43544
1.43867
1.42035
1.40026
1.39656
1.40162
1.40987
1.42134
1.4526
1.49067
1.51302
1.52624
1.53688
1.54265
1.53011
1.50671
1.49794
1.50269
1.51343
1.53379
1.56759
1.59645
1.6168
1.63237
1.6422
1.64185
1.62923
1.60118
1.56461
2.73793
8.99526
1.04402
1.0456
1.04831
1.05202
1.06218
1.07759
1.08623
1.09101
1.09478
1.09817
1.1005
1.09747
1.09481
1.09644
1.09958
1.10343
1.11364
1.13148
1.14182
1.14715
1.1512
1.15488
1.15696
1.15183
1.14784
1.14928
1.15254
1.15664
1.16762
1.18841
1.20078
1.2068
1.21124
1.21531
1.21662
1.20854
1.20314
1.20442
1.20801
1.21279
1.22529
1.25006
1.26516
1.27198
1.27685
1.28125
1.28017
1.2675
1.26129
1.26302
1.26743
1.27301
1.28652
1.31623
1.33609
1.34453
1.35049
1.3558
1.35376
1.33616
1.32591
1.32617
1.33088
1.33763
1.35239
1.38807
1.41618
1.42868
1.43607
1.44222
1.44287
1.42279
1.40543
1.40317
1.40738
1.41491
1.42851
1.46327
1.49965
1.52076
1.53372
1.544
1.5469
1.53271
1.51077
1.50268
1.50714
1.51786
1.54097
1.57561
1.60231
1.61988
1.63237
1.63779
1.6359
1.61558
1.57061
2.68867
9.02427
1.04734
1.04814
1.05069
1.05408
1.06127
1.07722
1.08833
1.09377
1.09763
1.10107
1.10405
1.10277
1.09864
1.09909
1.1018
1.10524
1.1115
1.12857
1.143
1.14969
1.15401
1.1578
1.16104
1.15864
1.15204
1.15147
1.15414
1.15794
1.16431
1.18312
1.2013
1.20936
1.21415
1.21826
1.22158
1.21682
1.20748
1.2063
1.20928
1.21352
1.22005
1.24058
1.26378
1.27421
1.2798
1.28438
1.2878
1.27982
1.2673
1.26498
1.26754
1.27235
1.27898
1.30022
1.33048
1.34594
1.35352
1.35956
1.3642
1.3548
1.33503
1.32846
1.33106
1.33683
1.34363
1.36198
1.39963
1.42402
1.43539
1.44388
1.45137
1.44891
1.42486
1.40822
1.40717
1.41316
1.42177
1.43695
1.47261
1.50623
1.52551
1.5382
1.54827
1.5511
1.53612
1.5139
1.50582
1.50985
1.5205
1.54608
1.58094
1.60558
1.62067
1.62953
1.63294
1.62549
1.59184
2.65256
9.05283
1.05113
1.05096
1.05319
1.05634
1.06104
1.07498
1.08954
1.09647
1.10067
1.10424
1.10754
1.10831
1.10344
1.10185
1.1038
1.10698
1.11119
1.12404
1.1426
1.15193
1.15686
1.16075
1.16434
1.1651
1.15784
1.15419
1.15602
1.15948
1.1638
1.17606
1.19854
1.21111
1.21692
1.22116
1.22508
1.22528
1.21515
1.20951
1.21092
1.21444
1.21904
1.22988
1.25624
1.27465
1.28232
1.28745
1.29204
1.29239
1.27855
1.26826
1.26822
1.27195
1.27734
1.28684
1.31532
1.34252
1.35421
1.36045
1.36585
1.36957
1.35682
1.33851
1.33373
1.33533
1.34033
1.34807
1.37252
1.41195
1.43462
1.44477
1.45172
1.45741
1.45276
1.42968
1.41503
1.41431
1.41929
1.42725
1.44477
1.48166
1.51277
1.53066
1.54275
1.55213
1.55392
1.53879
1.51626
1.50749
1.51054
1.52079
1.54856
1.5839
1.60672
1.61886
1.62449
1.62466
1.61317
2.64127
9.07888
1.05558
1.05411
1.05563
1.05847
1.06195
1.07173
1.0892
1.09902
1.10387
1.10754
1.11089
1.11318
1.10923
1.10492
1.10583
1.1087
1.11231
1.12002
1.13925
1.15339
1.15964
1.16372
1.16739
1.1702
1.16557
1.15839
1.15828
1.16114
1.16489
1.17113
1.1909
1.21084
1.21931
1.22411
1.2282
1.23156
1.226
1.21509
1.21288
1.21522
1.21925
1.22487
1.24292
1.27024
1.28415
1.29085
1.29577
1.29991
1.29455
1.27788
1.27137
1.27294
1.27709
1.28257
1.29555
1.32799
1.35176
1.36221
1.36907
1.37524
1.37635
1.35757
1.33967
1.33668
1.34068
1.34678
1.35447
1.38061
1.4191
1.43958
1.44991
1.45837
1.46533
1.45919
1.43425
1.41928
1.41884
1.42494
1.43384
1.45319
1.4895
1.51807
1.5349
1.54684
1.55593
1.55773
1.54097
1.51684
1.50718
1.50952
1.51925
1.54867
1.58416
1.60476
1.61443
1.61632
1.62453
2.6567
9.10377
1.06063
1.05762
1.05794
1.06049
1.06372
1.06965
1.08636
1.10061
1.1069
1.11072
1.11407
1.11708
1.1158
1.10937
1.1083
1.11065
1.11395
1.11841
1.13286
1.15256
1.16182
1.16664
1.17051
1.17409
1.1739
1.16512
1.16121
1.16286
1.16611
1.17026
1.18153
1.20585
1.22072
1.22706
1.23136
1.23541
1.23624
1.22474
1.2162
1.21671
1.22015
1.22462
1.23235
1.25718
1.28172
1.29198
1.29764
1.30252
1.30632
1.29668
1.27996
1.27523
1.27681
1.28103
1.28718
1.3061
1.34127
1.36208
1.37074
1.37596
1.38121
1.38136
1.3618
1.34582
1.34304
1.34498
1.3501
1.35926
1.38988
1.42901
1.4493
1.45882
1.4658
1.47055
1.4634
1.44035
1.42601
1.42503
1.42995
1.43829
1.46061
1.49799
1.5247
1.53991
1.55075
1.55895
1.56029
1.54262
1.51678
1.50569
1.50712
1.51622
1.54717
1.58206
1.601
1.60627
1.62336
2.69592
9.13064
1.06567
1.06207
1.06061
1.06283
1.06593
1.06979
1.08157
1.09992
1.10917
1.11375
1.11726
1.12052
1.12198
1.11593
1.11156
1.1127
1.11558
1.11911
1.12696
1.14769
1.16311
1.16965
1.17375
1.17742
1.18021
1.17453
1.16569
1.16484
1.16753
1.17121
1.17654
1.1948
1.2186
1.22938
1.23471
1.23871
1.24244
1.23806
1.22438
1.21981
1.2215
1.22482
1.22951
1.24113
1.27052
1.29139
1.30025
1.30612
1.31129
1.31263
1.29683
1.28105
1.27861
1.282
1.28701
1.29318
1.31511
1.35
1.36844
1.37744
1.3845
1.39047
1.38726
1.36392
1.34763
1.34614
1.35094
1.35754
1.36665
1.39685
1.43428
1.4531
1.46281
1.47099
1.47739
1.47035
1.44562
1.42988
1.42859
1.43442
1.44401
1.46854
1.5048
1.52931
1.54374
1.55464
1.56282
1.56373
1.54372
1.51564
1.50296
1.5035
1.51218
1.54427
1.57784
1.5924
1.61413
2.74691
9.15822
1.07032
1.0683
1.06424
1.0655
1.06821
1.07136
1.07765
1.09568
1.11034
1.11659
1.12043
1.1238
1.1267
1.124
1.11627
1.11502
1.11738
1.12074
1.12513
1.13942
1.16132
1.17185
1.17683
1.18059
1.18416
1.18409
1.1737
1.16804
1.16933
1.17251
1.17637
1.18446
1.20878
1.2291
1.23725
1.24213
1.24623
1.24876
1.23881
1.22553
1.22296
1.22536
1.22928
1.23465
1.25222
1.28334
1.30044
1.30756
1.31222
1.31702
1.31739
1.29986
1.28612
1.28427
1.28621
1.29066
1.29819
1.32559
1.36118
1.37822
1.38563
1.39034
1.39548
1.39237
1.37026
1.35578
1.354
1.3563
1.36136
1.37139
1.40439
1.44196
1.46077
1.47006
1.47717
1.48167
1.47488
1.45187
1.4359
1.4337
1.43796
1.44669
1.47377
1.51139
1.53549
1.54887
1.55836
1.56545
1.56573
1.54496
1.51437
1.49924
1.49871
1.50709
1.54071
1.56862
1.59671
2.80011
9.18386
1.07433
1.07559
1.06913
1.06822
1.07025
1.07327
1.07716
1.08936
1.10908
1.11891
1.12357
1.12696
1.13011
1.13121
1.12373
1.11845
1.11961
1.1227
1.12627
1.13296
1.15368
1.17209
1.17955
1.18378
1.18748
1.19059
1.18535
1.17421
1.17173
1.17379
1.17715
1.18156
1.19478
1.22216
1.23851
1.24558
1.25021
1.2542
1.25379
1.23857
1.22751
1.22724
1.2305
1.23472
1.24066
1.26252
1.29306
1.30772
1.31489
1.32065
1.32569
1.32216
1.30114
1.28812
1.28792
1.29216
1.2973
1.30466
1.33245
1.36643
1.38229
1.39109
1.3984
1.40409
1.39898
1.37508
1.35902
1.35706
1.36163
1.36819
1.37845
1.41051
1.44591
1.46362
1.47333
1.48169
1.48774
1.48154
1.45655
1.43843
1.43534
1.44019
1.45027
1.47861
1.51555
1.53841
1.5514
1.56118
1.56796
1.56759
1.54581
1.51238
1.49453
1.49247
1.5019
1.53263
1.57
2.84465
9.20349
1.07781
1.08179
1.07572
1.07156
1.07277
1.0756
1.07884
1.08494
1.10329
1.11939
1.12598
1.12985
1.13326
1.13633
1.13348
1.12442
1.12256
1.12477
1.12799
1.13182
1.1433
1.16744
1.18123
1.18708
1.19088
1.19449
1.19567
1.18491
1.17563
1.17557
1.17867
1.18249
1.18772
1.20652
1.23374
1.24653
1.25252
1.25702
1.26113
1.25811
1.24112
1.2322
1.23228
1.23478
1.23908
1.24694
1.27414
1.30356
1.31642
1.32241
1.32645
1.33143
1.32748
1.3065
1.29523
1.29423
1.29606
1.30063
1.30963
1.34135
1.37625
1.39186
1.39891
1.4038
1.40898
1.4054
1.38297
1.36724
1.36455
1.36668
1.37161
1.38267
1.41767
1.4534
1.47045
1.47913
1.48631
1.49163
1.48675
1.46242
1.44319
1.43901
1.44218
1.45061
1.47981
1.51841
1.54202
1.55465
1.56321
1.56881
1.56773
1.54633
1.51081
1.48896
1.48543
1.4926
1.53503
2.87028
9.22016
1.08109
1.08616
1.08376
1.07695
1.07588
1.07797
1.08087
1.08434
1.09524
1.11641
1.12799
1.13314
1.13668
1.13996
1.14163
1.13378
1.1266
1.12694
1.12973
1.13324
1.13827
1.15589
1.17917
1.18942
1.19434
1.1979
1.20139
1.19855
1.18484
1.17927
1.18071
1.18373
1.18747
1.19425
1.21821
1.24352
1.25443
1.26037
1.26525
1.26906
1.26133
1.24233
1.23486
1.23657
1.24057
1.24511
1.25347
1.28249
1.31025
1.32213
1.32925
1.33522
1.33985
1.33231
1.30931
1.29733
1.29766
1.3022
1.30759
1.31589
1.34629
1.37957
1.39486
1.40371
1.41113
1.41675
1.41251
1.38905
1.37083
1.3671
1.37111
1.37764
1.3898
1.42396
1.45658
1.47267
1.48301
1.49203
1.49797
1.49247
1.46592
1.44445
1.43917
1.44277
1.45179
1.4808
1.51915
1.54274
1.55544
1.56389
1.56875
1.56684
1.54626
1.5097
1.48454
1.47156
1.49345
2.86109
9.23814
1.08409
1.08977
1.0911
1.08491
1.07958
1.08021
1.08275
1.08592
1.09115
1.10851
1.12781
1.13585
1.1399
1.14321
1.14641
1.14464
1.13397
1.13011
1.13192
1.13513
1.13857
1.14546
1.16839
1.18896
1.19711
1.20158
1.20523
1.20805
1.20011
1.18638
1.18292
1.18483
1.18822
1.19239
1.20197
1.22996
1.25253
1.26157
1.26652
1.27058
1.27435
1.26544
1.24718
1.24118
1.2419
1.24456
1.24919
1.26012
1.29263
1.31999
1.33101
1.33639
1.34034
1.34526
1.33873
1.31648
1.30547
1.30436
1.30594
1.31036
1.32002
1.35354
1.38863
1.40405
1.41101
1.41599
1.42108
1.41894
1.39713
1.37844
1.37405
1.37589
1.38077
1.39323
1.43014
1.46467
1.48079
1.48893
1.49564
1.50133
1.49724
1.47153
1.44871
1.44212
1.44404
1.45118
1.4789
1.51866
1.54363
1.55626
1.56358
1.56712
1.56467
1.54529
1.50913
1.4747
1.46212
2.81802
9.26061
1.08706
1.09304
1.0956
1.0939
1.08549
1.08321
1.08521
1.08826
1.0916
1.09999
1.1217
1.13678
1.14293
1.14661
1.15002
1.15261
1.14593
1.13594
1.13458
1.1366
1.1397
1.14359
1.1543
1.18064
1.19797
1.20502
1.20924
1.21288
1.21396
1.20091
1.18844
1.18723
1.19018
1.19379
1.19791
1.20955
1.23952
1.25987
1.26822
1.27382
1.27888
1.28149
1.26845
1.24924
1.24392
1.24645
1.25094
1.25557
1.2662
1.29859
1.3245
1.33552
1.34283
1.34882
1.35317
1.34463
1.3206
1.3075
1.30716
1.31161
1.31743
1.32678
1.35833
1.3913
1.40624
1.41476
1.42198
1.42781
1.42603
1.40422
1.38297
1.37656
1.37946
1.38576
1.39907
1.43481
1.46659
1.48185
1.49194
1.50104
1.50746
1.50334
1.47588
1.45044
1.44212
1.44379
1.45073
1.47715
1.51691
1.54266
1.55532
1.56188
1.56437
1.56115
1.54337
1.501
1.45857
2.74762
9.28953
1.08888
1.09588
1.09876
1.1011
1.0952
1.08814
1.08818
1.09049
1.09338
1.09717
1.11053
1.13374
1.14518
1.15023
1.15368
1.157
1.1573
1.14611
1.13815
1.13858
1.1416
1.14514
1.14939
1.16408
1.19136
1.20581
1.2121
1.21645
1.22017
1.21919
1.20402
1.19362
1.19298
1.19486
1.19823
1.203
1.21854
1.2498
1.26822
1.27566
1.27989
1.28395
1.28697
1.27389
1.25586
1.25119
1.25197
1.25455
1.25925
1.27217
1.30725
1.33383
1.34423
1.34929
1.35309
1.3577
1.35162
1.32904
1.31648
1.315
1.31656
1.32054
1.32998
1.36338
1.39851
1.41413
1.4212
1.4264
1.43234
1.43331
1.41293
1.39005
1.38257
1.38316
1.38723
1.39946
1.43721
1.47335
1.49073
1.49898
1.50557
1.51072
1.50763
1.48179
1.45441
1.44398
1.44403
1.44908
1.47303
1.51402
1.54138
1.5538
1.55911
1.56008
1.55717
1.53475
1.48787
2.6817
9.32525
1.09035
1.09928
1.10222
1.10545
1.10528
1.09601
1.09126
1.09239
1.09519
1.09843
1.10401
1.12298
1.14421
1.15297
1.15721
1.16041
1.1636
1.16022
1.14702
1.14234
1.14394
1.14686
1.15012
1.15501
1.17404
1.20089
1.21358
1.21969
1.2243
1.22812
1.22428
1.20592
1.19606
1.1968
1.20042
1.20432
1.20889
1.22603
1.25725
1.27404
1.28151
1.28735
1.29239
1.29389
1.27803
1.25879
1.25381
1.25646
1.26111
1.26588
1.27768
1.31133
1.33664
1.34746
1.3549
1.36102
1.36549
1.35919
1.33619
1.32018
1.3173
1.32094
1.32649
1.33599
1.36719
1.40029
1.4161
1.42577
1.43361
1.43939
1.43926
1.41864
1.39346
1.38371
1.3851
1.39083
1.40371
1.43985
1.47488
1.49171
1.50127
1.5097
1.51587
1.51329
1.4867
1.45654
1.44347
1.44239
1.44679
1.46928
1.51088
1.53904
1.55082
1.55448
1.55551
1.54857
1.53004
2.65209
9.36185
1.09027
1.10272
1.10567
1.1088
1.11143
1.10686
1.09694
1.09525
1.09749
1.10061
1.10388
1.11141
1.13434
1.15299
1.16035
1.1644
1.16772
1.17019
1.16203
1.14915
1.14628
1.1481
1.15127
1.15503
1.16143
1.18417
1.20964
1.22053
1.22573
1.22967
1.23329
1.2287
1.21115
1.20302
1.20315
1.20506
1.20856
1.21403
1.23466
1.26658
1.28267
1.28922
1.293
1.29729
1.2998
1.28509
1.26667
1.26182
1.26226
1.26439
1.26897
1.28238
1.3184
1.34548
1.35613
1.3614
1.36536
1.37032
1.36741
1.34524
1.32798
1.32428
1.32572
1.32964
1.33872
1.37196
1.40826
1.42474
1.43204
1.43691
1.44271
1.44527
1.42674
1.40059
1.39009
1.38943
1.39262
1.40254
1.43833
1.47809
1.49857
1.50737
1.51343
1.51768
1.51586
1.49227
1.46012
1.44391
1.44101
1.44402
1.46473
1.5067
1.53527
1.54592
1.5497
1.54616
1.55605
2.66557
9.39386
1.08641
1.10473
1.10899
1.11218
1.11524
1.11649
1.1075
1.1
1.10017
1.10234
1.10524
1.10901
1.11976
1.14535
1.16158
1.16805
1.17173
1.17495
1.17589
1.16349
1.15172
1.15066
1.15348
1.15695
1.16048
1.16757
1.19283
1.217
1.22701
1.23248
1.23715
1.24081
1.23373
1.21427
1.20571
1.20693
1.21066
1.21466
1.2198
1.24061
1.27176
1.28692
1.29438
1.30051
1.30555
1.3069
1.291
1.27072
1.26405
1.26604
1.27055
1.27558
1.28757
1.32131
1.34755
1.35892
1.36649
1.37261
1.37752
1.3749
1.35306
1.33292
1.32726
1.33014
1.33569
1.34469
1.37503
1.40882
1.42534
1.43545
1.44382
1.44989
1.45166
1.4331
1.40472
1.39096
1.39004
1.39469
1.40487
1.43805
1.47739
1.49783
1.50752
1.51502
1.52082
1.5207
1.49787
1.46275
1.4429
1.43838
1.44049
1.45979
1.5018
1.53
1.54115
1.53946
1.56421
2.70825
9.42189
1.07861
1.1042
1.11196
1.11589
1.11891
1.12182
1.11977
1.10798
1.10295
1.10435
1.1074
1.11067
1.11496
1.12902
1.155
1.16894
1.17502
1.17906
1.18247
1.18123
1.16662
1.15693
1.1565
1.15831
1.16136
1.16534
1.17463
1.20213
1.22492
1.23418
1.23898
1.24242
1.24588
1.23937
1.22075
1.21303
1.21313
1.21475
1.2183
1.22433
1.2477
1.28004
1.29569
1.30212
1.30579
1.31004
1.31305
1.29975
1.27932
1.27237
1.27237
1.2741
1.27831
1.29082
1.32641
1.35515
1.36679
1.37223
1.37657
1.38221
1.38303
1.36329
1.34153
1.33461
1.33457
1.33749
1.34564
1.37724
1.41592
1.43492
1.44292
1.44789
1.45337
1.45711
1.44174
1.41244
1.39712
1.39447
1.39683
1.40339
1.43363
1.47705
1.50208
1.51236
1.51794
1.52216
1.52253
1.50276
1.4657
1.44172
1.43532
1.43648
1.45477
1.49594
1.5238
1.53026
1.56079
2.76782
9.44887
1.07143
1.09569
1.11255
1.11912
1.1224
1.12526
1.12781
1.12144
1.10962
1.10753
1.10977
1.11282
1.11592
1.1204
1.13751
1.16371
1.17663
1.1826
1.1867
1.19004
1.1866
1.16939
1.15983
1.16035
1.16372
1.16733
1.17101
1.18078
1.20953
1.23119
1.23986
1.24535
1.25026
1.25371
1.2451
1.22476
1.21568
1.21665
1.2204
1.22463
1.23009
1.252
1.28337
1.29886
1.30672
1.31305
1.31806
1.32045
1.30727
1.28495
1.2749
1.27536
1.27953
1.28466
1.29554
1.32804
1.356
1.36892
1.37782
1.38457
1.3896
1.38962
1.37006
1.34551
1.3363
1.33789
1.3431
1.35146
1.37983
1.41629
1.43522
1.44562
1.45452
1.46092
1.46418
1.44921
1.41791
1.39874
1.39464
1.39786
1.40497
1.43252
1.47513
1.50065
1.51153
1.51832
1.52343
1.52476
1.50726
1.46838
1.43984
1.43121
1.43187
1.44961
1.49008
1.51136
1.54833
2.83193
9.47329
1.07031
1.08137
1.10523
1.12012
1.12612
1.12945
1.1325
1.13355
1.1227
1.1129
1.11223
1.11438
1.11737
1.12089
1.12648
1.14629
1.17167
1.18318
1.18857
1.19261
1.19586
1.19158
1.17494
1.16677
1.16681
1.16848
1.17154
1.17574
1.18789
1.21795
1.23887
1.24713
1.25157
1.25514
1.25917
1.25269
1.2329
1.22387
1.22338
1.22467
1.22796
1.23382
1.25717
1.29084
1.30774
1.31438
1.31796
1.32197
1.32608
1.31684
1.29437
1.28343
1.28219
1.28342
1.28718
1.29776
1.33258
1.36475
1.37816
1.38397
1.38767
1.39291
1.3959
1.37949
1.35485
1.34488
1.3434
1.34509
1.35118
1.37822
1.42031
1.44434
1.4539
1.45921
1.46403
1.46822
1.45752
1.42664
1.40496
1.39914
1.39997
1.40424
1.4275
1.47224
1.50151
1.51366
1.51977
1.52408
1.52549
1.51047
1.47072
1.43768
1.42675
1.42648
1.44505
1.47819
1.52431
2.88939
9.49132
1.07147
1.07666
1.08948
1.11467
1.12804
1.13355
1.13664
1.13969
1.13861
1.12503
1.11659
1.11699
1.11993
1.1232
1.12638
1.1319
1.1537
1.17868
1.18968
1.19525
1.19971
1.20329
1.1975
1.17875
1.16966
1.17048
1.17392
1.17755
1.18144
1.19333
1.22362
1.24385
1.25224
1.25825
1.2631
1.26663
1.2592
1.23798
1.22648
1.22631
1.22992
1.23446
1.23981
1.26047
1.2929
1.30974
1.31799
1.3246
1.32974
1.3333
1.32504
1.30158
1.28676
1.28484
1.28847
1.2937
1.30315
1.33402
1.36438
1.37831
1.38751
1.39542
1.40104
1.40334
1.38688
1.35929
1.34549
1.3446
1.34885
1.35561
1.37885
1.41907
1.44333
1.45453
1.46342
1.47043
1.47467
1.46491
1.43269
1.40715
1.39877
1.39992
1.40515
1.42649
1.46962
1.49994
1.51303
1.51961
1.52379
1.52496
1.51223
1.47346
1.43635
1.42143
1.42109
1.43513
1.49061
2.92597
9.50566
1.07377
1.0779
1.08221
1.09798
1.12268
1.13504
1.14087
1.14475
1.14791
1.14393
1.12887
1.12229
1.12279
1.12456
1.12742
1.13112
1.13818
1.16174
1.18576
1.19601
1.20095
1.20446
1.20781
1.20318
1.18578
1.1774
1.17718
1.17853
1.18149
1.18583
1.19991
1.23171
1.25215
1.25994
1.26379
1.26692
1.27107
1.26677
1.24676
1.23516
1.23385
1.23472
1.23748
1.24276
1.26387
1.29905
1.31821
1.32561
1.32953
1.33357
1.33843
1.33436
1.31186
1.29604
1.29255
1.29244
1.29511
1.30345
1.33483
1.37124
1.38894
1.39633
1.40086
1.40482
1.40803
1.39557
1.36843
1.35353
1.35035
1.35096
1.35513
1.37444
1.41837
1.45007
1.46261
1.46855
1.47293
1.47694
1.47152
1.44208
1.41381
1.40322
1.40236
1.40504
1.4218
1.46491
1.49771
1.51194
1.51872
1.52271
1.52371
1.5129
1.4764
1.43646
1.41679
1.40757
1.4499
2.92446
9.52017
1.07663
1.07997
1.08257
1.08729
1.10568
1.1313
1.14338
1.14885
1.15266
1.15534
1.14881
1.13219
1.12543
1.12678
1.13002
1.13337
1.13655
1.14332
1.16798
1.1917
1.20165
1.2071
1.21186
1.21556
1.20961
1.19022
1.18012
1.1805
1.1839
1.18769
1.19161
1.20421
1.23499
1.25464
1.26315
1.2695
1.27459
1.27862
1.27437
1.25388
1.23886
1.23626
1.23919
1.24358
1.2488
1.26678
1.29996
1.31921
1.32846
1.3359
1.34145
1.34569
1.34215
1.31963
1.29946
1.29361
1.29598
1.30095
1.30942
1.33814
1.37328
1.39035
1.39886
1.40614
1.41225
1.41606
1.40498
1.3754
1.35539
1.35086
1.35382
1.35936
1.37603
1.41649
1.44801
1.46153
1.47026
1.47785
1.48249
1.47788
1.4483
1.41646
1.40235
1.40084
1.40413
1.41911
1.46039
1.49488
1.51074
1.51775
1.52103
1.5212
1.51199
1.47883
1.43797
1.40668
1.41285
2.88434
9.53814
1.07955
1.08118
1.08394
1.08763
1.09402
1.11519
1.13941
1.15001
1.1552
1.15901
1.16134
1.15387
1.13825
1.13255
1.13298
1.13436
1.13718
1.14105
1.14959
1.17546
1.19892
1.20874
1.21353
1.21662
1.22031
1.21655
1.19853
1.1887
1.18757
1.188
1.19044
1.19466
1.20879
1.24136
1.2631
1.27154
1.27597
1.27916
1.28351
1.28266
1.26398
1.24796
1.2443
1.24459
1.24641
1.25093
1.26843
1.3046
1.32778
1.33684
1.34129
1.34495
1.34993
1.35017
1.33035
1.30913
1.30271
1.30261
1.30455
1.31025
1.33549
1.37468
1.39766
1.40717
1.41248
1.41659
1.42032
1.41382
1.38611
1.36445
1.35814
1.35792
1.3607
1.37212
1.41173
1.45083
1.46853
1.47536
1.47966
1.48327
1.48163
1.45663
1.42279
1.40564
1.40217
1.40378
1.41528
1.45468
1.49131
1.50869
1.51577
1.51833
1.51781
1.50925
1.4808
1.43176
1.40316
2.80777
9.56331
1.08397
1.0838
1.08692
1.09066
1.09431
1.10068
1.12229
1.14566
1.15605
1.16138
1.16549
1.16827
1.16033
1.14258
1.13525
1.13652
1.1398
1.14337
1.14683
1.15448
1.1805
1.20381
1.21351
1.21947
1.22454
1.22846
1.22389
1.20377
1.19077
1.18956
1.19253
1.19674
1.20132
1.21412
1.24502
1.26608
1.27516
1.28156
1.28699
1.29125
1.29043
1.27228
1.25274
1.24613
1.24774
1.25188
1.25703
1.27166
1.30503
1.32814
1.33864
1.34674
1.35305
1.35779
1.35799
1.33849
1.31401
1.30332
1.30297
1.30656
1.31254
1.33586
1.37579
1.39945
1.40929
1.41625
1.4228
1.42767
1.4227
1.3949
1.36848
1.35855
1.35916
1.36362
1.37395
1.40863
1.44725
1.46545
1.47464
1.48257
1.48767
1.48707
1.46353
1.42712
1.40624
1.40101
1.40225
1.41101
1.44852
1.4875
1.50637
1.51307
1.5148
1.51326
1.50653
1.47441
1.42812
2.72715
9.59934
1.09414
1.08859
1.09093
1.09369
1.09636
1.09963
1.10602
1.12806
1.15137
1.16166
1.16652
1.17008
1.17265
1.16613
1.14999
1.14331
1.14351
1.14484
1.14741
1.15114
1.15988
1.18699
1.21122
1.22138
1.22611
1.22888
1.23256
1.2307
1.21248
1.19938
1.19751
1.19872
1.20098
1.20487
1.21664
1.24805
1.27286
1.28308
1.28786
1.2909
1.29511
1.29729
1.28293
1.2622
1.25454
1.25412
1.25532
1.25909
1.27205
1.30722
1.33583
1.34794
1.35364
1.35716
1.36128
1.3639
1.34829
1.32162
1.3096
1.30873
1.31164
1.31645
1.33438
1.37353
1.40312
1.41618
1.42203
1.42619
1.43077
1.43011
1.40634
1.3776
1.36541
1.36349
1.36516
1.37113
1.40215
1.44723
1.47193
1.48079
1.48538
1.48856
1.48831
1.46953
1.43282
1.40788
1.39994
1.39999
1.40677
1.44226
1.48342
1.50362
1.50978
1.51018
1.5093
1.49802
1.47808
2.68098
9.63769
1.1111
1.0979
1.09479
1.09658
1.09957
1.1019
1.10444
1.11016
1.13261
1.15654
1.16692
1.1722
1.17648
1.17963
1.17354
1.15583
1.14659
1.14684
1.14995
1.15347
1.15684
1.16419
1.19052
1.21479
1.22497
1.2312
1.23652
1.24073
1.23841
1.21914
1.20306
1.19915
1.20138
1.20513
1.20914
1.21925
1.24926
1.27428
1.28513
1.29226
1.29806
1.30258
1.30471
1.29206
1.26894
1.25716
1.2566
1.2603
1.26524
1.27573
1.30688
1.33593
1.34927