/*--------------------------------*- C++ -*----------------------------------*\
  =========                 |
  \\      /  F ield         | OpenFOAM: The Open Source CFD Toolbox
   \\    /   O peration     | Website:  https://openfoam.org
    \\  /    A nd           | Version:  12
     \\/     M anipulation  |
\*---------------------------------------------------------------------------*/
FoamFile
{
    format      ascii;
    class       volScalarField;
    location    "14";
    object      T;
}
// * * * * * * * * * * * * * * * * * * * * * * * * * * * * * * * * * * * * * //

dimensions      [0 0 0 1 0 0 0];

internalField   nonuniform List<scalar> 
9801
(
0.821984
0.822738
0.824049
0.827028
0.831443
0.8344
0.835796
0.83664
0.837265
0.83754
0.837845
0.838418
0.839239
0.840241
0.842102
0.845995
0.849971
0.852115
0.853239
0.854032
0.854376
0.854389
0.854775
0.855514
0.85643
0.857711
0.860794
0.865533
0.868573
0.869994
0.870846
0.871164
0.871065
0.871306
0.871947
0.872872
0.874054
0.876419
0.881425
0.885444
0.887207
0.888142
0.888437
0.887986
0.887873
0.88847
0.889394
0.890543
0.892529
0.897795
0.903165
0.905564
0.906636
0.906877
0.905625
0.905066
0.905618
0.906535
0.907782
0.909857
0.915621
0.921953
0.925124
0.926564
0.92697
0.924606
0.923029
0.923386
0.924696
0.926437
0.929161
0.936467
0.943579
0.94715
0.948872
0.949325
0.945756
0.94268
0.942968
0.944802
0.947557
0.954271
0.965502
0.972158
0.975518
0.977648
0.977484
0.972041
0.967562
0.968322
0.972266
0.981941
0.99944
1.01368
1.02522
1.03387
1.02828
1.12143
1.53333
0.825494
0.826571
0.828021
0.83151
0.83528
0.837631
0.839161
0.840302
0.841052
0.840747
0.840777
0.841533
0.842585
0.843721
0.845698
0.849808
0.8532
0.855137
0.856447
0.857473
0.85749
0.856881
0.857381
0.858406
0.859563
0.860925
0.864107
0.868537
0.871264
0.872845
0.874023
0.874421
0.873278
0.873311
0.874242
0.875486
0.87682
0.879076
0.884005
0.887956
0.88988
0.891139
0.891817
0.890297
0.889473
0.890295
0.891584
0.89297
0.894897
0.899821
0.905115
0.907798
0.909284
0.910244
0.908469
0.906607
0.907145
0.908418
0.909895
0.911899
0.91745
0.923808
0.927118
0.928874
0.929965
0.927924
0.924971
0.925143
0.926745
0.928622
0.93143
0.938717
0.945943
0.949542
0.951598
0.952945
0.950053
0.945459
0.945464
0.947798
0.950762
0.957156
0.967119
0.973781
0.977593
0.980744
0.982744
0.977654
0.971923
0.97328
0.977947
0.985137
0.99849
1.01124
1.02264
1.03149
1.0258
1.12209
1.55368
0.829443
0.830661
0.832187
0.835761
0.839539
0.841668
0.843092
0.844273
0.845141
0.844964
0.844827
0.845474
0.846521
0.847722
0.849735
0.853915
0.857254
0.859069
0.860378
0.861487
0.861637
0.860973
0.861366
0.86234
0.863548
0.864957
0.868099
0.872525
0.875162
0.876741
0.878035
0.878647
0.877559
0.877413
0.878245
0.879483
0.880855
0.882995
0.88782
0.891788
0.8938
0.895241
0.896157
0.894861
0.893896
0.89458
0.895825
0.897269
0.899099
0.903722
0.908995
0.911789
0.913501
0.914773
0.913605
0.911436
0.911668
0.912901
0.91457
0.916626
0.921718
0.928035
0.931545
0.933537
0.935029
0.934098
0.930961
0.930496
0.931999
0.933979
0.936662
0.943408
0.950627
0.954689
0.957272
0.959477
0.95839
0.953547
0.952541
0.954696
0.957656
0.962502
0.972239
0.98119
0.986425
0.990097
0.993023
0.989884
0.983683
0.983396
0.988547
0.995176
1.00658
1.02029
1.0326
1.04415
1.04321
1.13927
1.57513
0.834505
0.835789
0.837455
0.841091
0.844824
0.846962
0.848362
0.84952
0.850505
0.850509
0.850171
0.850708
0.851708
0.852972
0.855159
0.859348
0.862698
0.864551
0.865867
0.867012
0.867386
0.866648
0.866859
0.867727
0.868929
0.87047
0.873725
0.878211
0.880936
0.882543
0.883865
0.884692
0.883702
0.883243
0.883928
0.885079
0.886512
0.888785
0.893674
0.897867
0.90002
0.901537
0.902692
0.901769
0.900422
0.900809
0.901915
0.903389
0.905343
0.909981
0.915542
0.918572
0.920389
0.921892
0.921452
0.91904
0.918758
0.91989
0.921588
0.923767
0.928667
0.935313
0.93932
0.941574
0.943335
0.943514
0.940149
0.938656
0.939995
0.942147
0.944816
0.950958
0.959055
0.964032
0.967057
0.969579
0.970256
0.965732
0.962723
0.964213
0.96737
0.971421
0.979982
0.990559
0.997239
1.00143
1.00512
1.00543
1.00016
0.997119
1.00015
1.0067
1.01509
1.02754
1.03932
1.05058
1.05454
1.16114
1.5954
0.840176
0.841484
0.843177
0.846995
0.850709
0.852832
0.854266
0.855457
0.856501
0.856682
0.85624
0.856698
0.857676
0.858904
0.861146
0.865483
0.868924
0.870837
0.872204
0.873393
0.874008
0.873297
0.873292
0.874133
0.875299
0.876784
0.880077
0.884817
0.88772
0.889382
0.890719
0.8917
0.890949
0.890272
0.890927
0.892075
0.893435
0.89555
0.900423
0.904988
0.907378
0.908962
0.910271
0.909921
0.908222
0.908346
0.909519
0.911016
0.9129
0.917272
0.923022
0.926402
0.928416
0.930044
0.930541
0.928158
0.926976
0.92798
0.929719
0.931851
0.936199
0.943158
0.947865
0.950465
0.952425
0.953724
0.951304
0.948176
0.948552
0.950675
0.953296
0.958247
0.966923
0.973305
0.976741
0.979384
0.981542
0.97911
0.974029
0.973223
0.976198
0.980029
0.986416
0.997306
1.0063
1.01189
1.01604
1.01905
1.01613
1.01126
1.01015
1.01446
1.02133
1.03158
1.04297
1.05235
1.05663
1.17488
1.60746
0.846263
0.847583
0.849162
0.85309
0.857005
0.85918
0.86064
0.861859
0.862953
0.863272
0.862773
0.863122
0.864065
0.865243
0.867259
0.871749
0.875525
0.877567
0.878983
0.880202
0.881019
0.880391
0.880084
0.880827
0.881974
0.883347
0.886341
0.891438
0.89473
0.896535
0.89791
0.899034
0.898611
0.897465
0.897817
0.89896
0.900362
0.9023
0.90697
0.911987
0.914746
0.916505
0.91795
0.918416
0.916529
0.91564
0.916557
0.918052
0.919885
0.923855
0.929942
0.933887
0.936198
0.93801
0.939373
0.937929
0.935211
0.935118
0.936705
0.93879
0.94245
0.949644
0.955451
0.958459
0.960558
0.962481
0.961987
0.957725
0.956061
0.957587
0.960092
0.963787
0.9718
0.980133
0.98477
0.98755
0.990049
0.990011
0.98476
0.981634
0.982738
0.986086
0.990455
0.999151
1.00962
1.01672
1.02172
1.02609
1.02747
1.0231
1.01908
1.01919
1.0232
1.03005
1.04057
1.05004
1.0548
1.1843
1.61423
0.851978
0.853277
0.85476
0.858607
0.862766
0.865053
0.866542
0.867787
0.868916
0.869317
0.868705
0.868921
0.869857
0.871073
0.872984
0.877387
0.88141
0.883609
0.885114
0.886392
0.887417
0.886948
0.886116
0.886643
0.887785
0.889208
0.89199
0.897102
0.900743
0.902754
0.904237
0.905532
0.905857
0.904214
0.903667
0.904593
0.906047
0.908065
0.912541
0.917809
0.920879
0.922813
0.924372
0.925571
0.924415
0.922257
0.922247
0.923558
0.925327
0.928805
0.935198
0.939902
0.942427
0.944266
0.945902
0.945968
0.942664
0.94107
0.942068
0.944
0.946797
0.953338
0.960547
0.964405
0.966578
0.968504
0.969414
0.965953
0.962739
0.962954
0.965033
0.967704
0.973192
0.982648
0.98927
0.992935
0.9956
0.997543
0.994807
0.989506
0.987795
0.989482
0.992866
0.998351
1.00846
1.01786
1.02424
1.02878
1.03261
1.03204
1.02742
1.02406
1.02464
1.02829
1.03548
1.04549
1.05179
1.19038
1.61857
0.856949
0.858173
0.859571
0.863301
0.867766
0.870201
0.871682
0.872904
0.874025
0.874584
0.873861
0.873746
0.874581
0.875792
0.877698
0.882093
0.886362
0.888639
0.89014
0.891426
0.89259
0.892596
0.891334
0.891346
0.892332
0.893696
0.896326
0.90147
0.905495
0.907672
0.909208
0.910567
0.911547
0.910307
0.908769
0.909104
0.910345
0.912114
0.916251
0.921997
0.925508
0.927496
0.929061
0.930501
0.930598
0.927909
0.926834
0.927678
0.929244
0.931867
0.938044
0.944009
0.947058
0.948877
0.950487
0.951442
0.948869
0.946106
0.946218
0.947783
0.949819
0.954318
0.962523
0.968024
0.970801
0.972773
0.974443
0.972984
0.968627
0.967053
0.968097
0.970352
0.973494
0.981367
0.990711
0.996027
0.999325
1.002
1.00284
0.99744
0.992557
0.992227
0.994546
0.998022
1.00474
1.01505
1.02322
1.02877
1.03302
1.03611
1.03505
1.03045
1.02688
1.02721
1.03039
1.03887
1.04756
1.19612
1.62167
0.861158
0.862274
0.863491
0.866759
0.871561
0.874358
0.875944
0.877177
0.878286
0.879043
0.878376
0.877891
0.878508
0.879596
0.881154
0.885234
0.890051
0.892666
0.89424
0.895521
0.896701
0.897107
0.895742
0.895239
0.895944
0.897127
0.899136
0.904144
0.908904
0.911413
0.913034
0.914397
0.915612
0.915092
0.913031
0.912793
0.913745
0.91515
0.918152
0.924312
0.928827
0.931072
0.932634
0.93406
0.934819
0.9326
0.930615
0.930923
0.932263
0.934065
0.938729
0.945917
0.950097
0.952226
0.953857
0.955239
0.954077
0.950537
0.949555
0.950507
0.952196
0.954669
0.961603
0.969519
0.973633
0.97599
0.977882
0.978478
0.974478
0.970558
0.970158
0.971811
0.974209
0.978682
0.988646
0.99702
1.00138
1.00417
1.00647
1.0056
0.999518
0.995847
0.996151
0.998499
1.00224
1.00998
1.01981
1.02714
1.03223
1.0363
1.03835
1.03694
1.03228
1.02799
1.02766
1.03156
1.04131
1.20034
1.62395
0.864668
0.865698
0.866793
0.869388
0.874287
0.877562
0.879316
0.880611
0.88174
0.882634
0.882181
0.881364
0.881774
0.882746
0.883996
0.887195
0.892519
0.895751
0.897487
0.898803
0.899973
0.900683
0.899428
0.898398
0.898857
0.89992
0.901402
0.905519
0.911121
0.914226
0.915966
0.91736
0.918625
0.918872
0.916675
0.915776
0.916443
0.917685
0.919586
0.924965
0.930754
0.933708
0.935413
0.936834
0.937969
0.936669
0.933897
0.933546
0.934549
0.936053
0.938693
0.945651
0.951735
0.954665
0.956453
0.958032
0.958492
0.955083
0.952413
0.952432
0.953735
0.955606
0.959632
0.968585
0.975182
0.978366
0.980452
0.982163
0.980897
0.975274
0.972676
0.973196
0.975171
0.977666
0.983528
0.994199
1.00141
1.0051
1.00794
1.01036
1.0086
1.00186
0.998635
0.99937
1.00201
1.00629
1.01457
1.02348
1.0299
1.03464
1.0386
1.03999
1.03829
1.03292
1.02766
1.02693
1.03231
1.20191
1.62543
0.867471
0.868382
0.86941
0.871407
0.876112
0.879925
0.881892
0.88326
0.884419
0.885432
0.885375
0.884225
0.884334
0.885201
0.886337
0.888596
0.893902
0.897948
0.899925
0.901284
0.902454
0.903396
0.902631
0.901034
0.901191
0.902149
0.903412
0.906229
0.912136
0.916202
0.918202
0.919629
0.920911
0.921728
0.920036
0.918294
0.918621
0.919695
0.921093
0.924614
0.93132
0.935494
0.93755
0.939035
0.940366
0.940375
0.937341
0.935795
0.936296
0.937588
0.939272
0.944001
0.951962
0.95648
0.958709
0.960303
0.961565
0.959934
0.955573
0.954168
0.955015
0.956726
0.958919
0.96517
0.974534
0.979582
0.982122
0.984024
0.985538
0.982651
0.977007
0.975195
0.975785
0.977655
0.980516
0.988197
0.999069
1.00571
1.00927
1.01194
1.01348
1.01044
1.00427
1.00168
1.00257
1.0053
1.01014
1.01889
1.027
1.03261
1.03682
1.04033
1.04112
1.03882
1.03235
1.02604
1.02365
1.19945
1.62627
0.869776
0.870507
0.871457
0.87297
0.877176
0.881655
0.883953
0.885395
0.886576
0.887635
0.888033
0.886777
0.886426
0.887152
0.888237
0.889836
0.894405
0.89938
0.901846
0.903293
0.904479
0.905542
0.90551
0.903611
0.903177
0.903971
0.905132
0.906888
0.91203
0.917415
0.920048
0.921586
0.922886
0.924018
0.923352
0.920905
0.920439
0.921226
0.922468
0.924466
0.930519
0.936578
0.939431
0.941045
0.942414
0.943392
0.941266
0.93817
0.937839
0.938839
0.940342
0.942787
0.950044
0.957194
0.960491
0.962364
0.963855
0.964426
0.960556
0.9569
0.956588
0.957658
0.959431
0.962323
0.970709
0.979387
0.9835
0.986029
0.988154
0.988992
0.983846
0.97823
0.977174
0.978451
0.980697
0.983988
0.992605
1.00298
1.0088
1.01202
1.01475
1.0164
1.01317
1.00689
1.00443
1.00548
1.00844
1.01394
1.02287
1.03012
1.03498
1.03892
1.04161
1.04171
1.03825
1.02938
1.02
1.19299
1.62655
0.871801
0.872285
0.873178
0.874411
0.877781
0.882871
0.885692
0.887233
0.888439
0.889516
0.890256
0.889258
0.888379
0.888899
0.889907
0.891155
0.894443
0.900092
0.90339
0.905054
0.906304
0.90743
0.908064
0.906439
0.905166
0.905613
0.906639
0.907938
0.911384
0.917779
0.921578
0.923428
0.924771
0.925996
0.926385
0.923904
0.922233
0.922611
0.923706
0.925147
0.929009
0.936434
0.940851
0.942918
0.94433
0.945614
0.945293
0.941532
0.939681
0.940199
0.941512
0.943098
0.947173
0.955876
0.961465
0.963962
0.965658
0.96716
0.966551
0.961477
0.958526
0.95858
0.959883
0.961814
0.966089
0.976274
0.98403
0.987399
0.989385
0.991098
0.991281
0.985722
0.980914
0.980237
0.981262
0.983352
0.987236
0.996802
1.00666
1.01221
1.01547
1.01811
1.01894
1.01526
1.00935
1.00701
1.00804
1.01108
1.01735
1.02638
1.03287
1.0371
1.0406
1.04222
1.04175
1.03505
1.02235
1.18509
1.62677
0.873712
0.873939
0.874775
0.875894
0.878283
0.883531
0.887184
0.888937
0.890178
0.891276
0.892225
0.891805
0.890447
0.890586
0.891451
0.892557
0.89458
0.900042
0.904595
0.906726
0.908076
0.909245
0.910249
0.909485
0.907393
0.907202
0.908038
0.909229
0.911211
0.917109
0.922645
0.925163
0.926611
0.927844
0.92884
0.927382
0.924505
0.924134
0.925036
0.926324
0.928292
0.934582
0.941412
0.944531
0.946214
0.947567
0.948577
0.946224
0.942503
0.941807
0.942555
0.943957
0.94595
0.952335
0.961053
0.965376
0.96763
0.969357
0.970661
0.967972
0.962273
0.960385
0.961073
0.962613
0.964639
0.970088
0.980732
0.987228
0.990228
0.992751
0.994926
0.994219
0.987498
0.982851
0.98253
0.98408
0.986519
0.990845
1.0006
1.00971
1.01476
1.0179
1.02049
1.02132
1.01743
1.01141
1.00902
1.01003
1.01314
1.02005
1.02889
1.03473
1.03866
1.04154
1.04259
1.03967
1.02922
1.17903
1.62727
0.875731
0.875642
0.876371
0.877412
0.878972
0.883567
0.888311
0.890583
0.891941
0.893089
0.894144
0.89439
0.892804
0.892279
0.892907
0.89393
0.895289
0.899446
0.905304
0.908301
0.90984
0.911055
0.912173
0.912408
0.910121
0.908958
0.909528
0.91061
0.911954
0.915825
0.922731
0.926568
0.928375
0.929654
0.930835
0.930893
0.927794
0.926059
0.926483
0.927552
0.928906
0.932272
0.940235
0.945606
0.947965
0.949479
0.95084
0.950948
0.946855
0.9438
0.943786
0.944891
0.946462
0.949331
0.957752
0.965514
0.96881
0.970642
0.972201
0.973284
0.969615
0.964366
0.96299
0.963387
0.964748
0.967008
0.974059
0.985215
0.991424
0.994098
0.995988
0.997599
0.996323
0.989955
0.985937
0.985699
0.986939
0.989225
0.994169
1.00423
1.01256
1.01725
1.02031
1.02272
1.02326
1.01927
1.01311
1.01057
1.01145
1.01451
1.02182
1.03048
1.036
1.03973
1.04189
1.04163
1.03665
1.17698
1.62833
0.877977
0.877459
0.877958
0.878895
0.880044
0.883273
0.888975
0.892215
0.893775
0.894956
0.896029
0.896766
0.89549
0.894085
0.894376
0.895307
0.896474
0.898956
0.905116
0.909566
0.911583
0.912868
0.914016
0.914898
0.913449
0.911182
0.911138
0.912033
0.913203
0.915141
0.921337
0.927369
0.930005
0.931469
0.932704
0.933718
0.932028
0.928693
0.928009
0.928721
0.929945
0.93164
0.937226
0.945344
0.949413
0.951488
0.952949
0.954169
0.952601
0.947671
0.945753
0.946229
0.947412
0.948995
0.952992
0.962504
0.969122
0.97207
0.974177
0.975936
0.976239
0.97086
0.965713
0.964867
0.965926
0.967563
0.969926
0.977593
0.988348
0.993699
0.996375
0.998885
1.00093
0.999277
0.992318
0.98816
0.988003
0.989596
0.992171
0.99753
1.00736
1.01497
1.01942
1.02249
1.02483
1.02529
1.02077
1.01424
1.01159
1.01237
1.01521
1.02269
1.03124
1.03664
1.04021
1.04151
1.04184
1.1795
1.63014
0.880438
0.879412
0.879509
0.880351
0.881416
0.883367
0.888869
0.893493
0.895562
0.896792
0.897865
0.898833
0.898422
0.896345
0.895997
0.896762
0.897834
0.899253
0.90395
0.910139
0.913122
0.914651
0.915869
0.916992
0.916934
0.914181
0.912941
0.91345
0.914466
0.915726
0.919302
0.9268
0.931276
0.933272
0.93456
0.935782
0.936038
0.932545
0.92994
0.930097
0.931164
0.932499
0.934884
0.942462
0.949669
0.952713
0.954456
0.955896
0.957021
0.954169
0.949229
0.94783
0.94828
0.949499
0.951337
0.956972
0.967215
0.973081
0.975505
0.976991
0.978542
0.978594
0.973016
0.968462
0.96766
0.968136
0.969574
0.972239
0.981016
0.991989
0.997473
0.999971
1.00192
1.00326
1.00129
0.994902
0.990979
0.990659
0.991934
0.994378
1.00053
1.01055
1.01765
1.02174
1.02455
1.02657
1.02689
1.0221
1.01517
1.01228
1.01281
1.01531
1.02285
1.03147
1.03722
1.03987
1.04432
1.18635
1.63271
0.882889
0.881676
0.881178
0.881908
0.882932
0.884205
0.888094
0.894033
0.897086
0.898567
0.899696
0.900742
0.901214
0.899269
0.897857
0.898228
0.899166
0.900319
0.902842
0.909488
0.914315
0.916437
0.917725
0.918874
0.919745
0.917974
0.91519
0.91491
0.915748
0.916891
0.918528
0.924286
0.931496
0.934763
0.936428
0.937646
0.938776
0.937459
0.933308
0.93193
0.932452
0.933471
0.934856
0.938514
0.947403
0.95343
0.956052
0.957857
0.959354
0.959739
0.95509
0.950417
0.949705
0.950687
0.952059
0.953931
0.960588
0.970639
0.975658
0.978236
0.980386
0.982118
0.981194
0.974492
0.96981
0.969391
0.970671
0.97248
0.975234
0.983953
0.994347
0.999309
1.00181
1.00412
1.00597
1.00408
0.997242
0.992906
0.992486
0.99408
0.996822
1.00349
1.01321
1.01979
1.02372
1.02651
1.02844
1.02855
1.0232
1.01586
1.01259
1.01276
1.01484
1.02253
1.03159
1.03691
1.04456
1.1953
1.63568
0.885185
0.884498
0.883139
0.883549
0.88444
0.885479
0.887549
0.893474
0.898193
0.900261
0.901491
0.902573
0.903505
0.902639
0.90015
0.89975
0.900518
0.901616
0.903009
0.907671
0.914548
0.917873
0.919482
0.920659
0.921767
0.921748
0.918492
0.916705
0.917099
0.918093
0.919258
0.921798
0.929388
0.93547
0.937986
0.939488
0.940733
0.94151
0.938512
0.934493
0.93372
0.934464
0.935663
0.93731
0.942736
0.952005
0.956927
0.95901
0.960392
0.961835
0.961942
0.956775
0.952724
0.952172
0.952702
0.953979
0.956247
0.964329
0.974602
0.979397
0.981449
0.982787
0.984266
0.983382
0.977076
0.972955
0.972441
0.97303
0.974444
0.977349
0.986764
0.997235
1.00234
1.0048
1.00673
1.00796
1.00612
0.999753
0.99536
0.994647
0.995831
0.998374
1.0057
1.01578
1.02232
1.02598
1.02828
1.02983
1.0298
1.02442
1.01659
1.01251
1.01211
1.01383
1.02233
1.03106
1.04192
1.20462
1.63851
0.887223
0.887625
0.88547
0.885161
0.885827
0.886828
0.888096
0.892148
0.898514
0.901714
0.903241
0.904328
0.905334
0.905689
0.903289
0.901592
0.901971
0.902981
0.904143
0.906292
0.91295
0.918673
0.921064
0.922393
0.923541
0.924501
0.922868
0.919371
0.918584
0.919214
0.920254
0.921588
0.92579
0.934211
0.939091
0.941278
0.942712
0.943942
0.943837
0.939248
0.935913
0.935846
0.93686
0.938077
0.939868
0.946623
0.955607
0.95975
0.961917
0.963674
0.965127
0.964093
0.957897
0.954049
0.954002
0.955205
0.95662
0.9589
0.967215
0.976865
0.981158
0.983641
0.985841
0.987494
0.986023
0.979176
0.974584
0.974037
0.975261
0.977106
0.980178
0.989253
0.999109
1.00391
1.00645
1.00863
1.01029
1.00861
1.00179
0.996825
0.995905
0.99725
1.00005
1.0077
1.01768
1.02398
1.02747
1.02971
1.03114
1.03098
1.02558
1.01708
1.01194
1.01079
1.01279
1.02168
1.0359
1.2126
1.64045
0.889041
0.890329
0.888321
0.886934
0.887332
0.888272
0.889345
0.891346
0.897389
0.902544
0.90472
0.905953
0.90704
0.908017
0.907108
0.904203
0.903608
0.904329
0.905378
0.906586
0.910328
0.917965
0.922237
0.924122
0.925285
0.926393
0.926756
0.923401
0.920485
0.920454
0.921425
0.922603
0.924203
0.930147
0.93841
0.942258
0.944151
0.945526
0.946799
0.945897
0.940771
0.938075
0.938086
0.938815
0.940069
0.942483
0.950696
0.959368
0.963078
0.964804
0.966004
0.967499
0.966345
0.960181
0.956873
0.95656
0.957046
0.958379
0.961066
0.970355
0.980356
0.984704
0.986644
0.988037
0.989521
0.988522
0.982139
0.977666
0.976916
0.97747
0.978855
0.982072
0.991958
1.00187
1.00653
1.00882
1.01065
1.01212
1.01085
1.0042
0.998882
0.997594
0.998457
1.00083
1.00872
1.01923
1.02577
1.02901
1.03079
1.03199
1.0318
1.02675
1.01756
1.01079
1.00907
1.01112
1.02682
1.21752
1.64137
0.890743
0.892388
0.891595
0.889343
0.888993
0.889685
0.890653
0.891783
0.895412
0.902279
0.905974
0.907665
0.908786
0.909826
0.910362
0.907853
0.905553
0.905663
0.906575
0.907709
0.90931
0.915011
0.922253
0.925434
0.927
0.928091
0.929165
0.928282
0.924005
0.922258
0.922702
0.923644
0.924772
0.926908
0.934447
0.942089
0.945358
0.947239
0.948735
0.949879
0.947568
0.941805
0.939516
0.940022
0.941209
0.942474
0.945083
0.953916
0.961964
0.965315
0.967493
0.969318
0.970652
0.968449
0.961677
0.958148
0.958251
0.959504
0.961027
0.963603
0.972606
0.981994
0.986128
0.988605
0.990837
0.992454
0.991229
0.984537
0.979381
0.978337
0.9794
0.981274
0.984795
0.994348
1.00343
1.00787
1.01059
1.01291
1.0145
1.01303
1.00584
0.999936
0.99835
0.999277
1.00173
1.00964
1.02027
1.02672
1.02973
1.03144
1.0327
1.03246
1.0278
1.01778
1.00959
1.00574
1.0147
1.21648
1.64097
0.89231
0.894154
0.894593
0.892562
0.890808
0.891023
0.891873
0.892925
0.894637
0.900368
0.906519
0.909119
0.910423
0.911473
0.912494
0.911934
0.908528
0.907294
0.907883
0.908926
0.910005
0.91222
0.919555
0.925884
0.92843
0.929842
0.930952
0.931822
0.929363
0.925078
0.923998
0.924597
0.925667
0.926946
0.930024
0.93872
0.945487
0.948207
0.949739
0.950967
0.952095
0.949397
0.943844
0.942
0.942192
0.942956
0.944361
0.947712
0.957456
0.965503
0.968671
0.970211
0.97138
0.972831
0.970945
0.964432
0.961212
0.960867
0.961272
0.962564
0.965436
0.975225
0.985236
0.989519
0.99144
0.992818
0.994267
0.993692
0.987543
0.982245
0.980993
0.981426
0.982788
0.986381
0.996737
1.00631
1.01073
1.01283
1.01448
1.01605
1.01502
1.00809
1.00176
0.999709
1.00014
1.00214
1.00988
1.02095
1.02753
1.0303
1.03189
1.03312
1.03296
1.02849
1.01754
1.00684
1.00476
1.20907
1.63934
0.89383
0.895772
0.896623
0.896076
0.893327
0.892584
0.893254
0.894274
0.895356
0.89812
0.905192
0.909958
0.911959
0.913127
0.914213
0.915044
0.912927
0.909738
0.909304
0.909956
0.91095
0.912155
0.915639
0.92395
0.929253
0.931446
0.93277
0.933893
0.934229
0.930196
0.926328
0.925968
0.926924
0.92807
0.929309
0.933022
0.942287
0.948306
0.950776
0.952524
0.954008
0.954751
0.950817
0.944978
0.943361
0.944141
0.945457
0.946822
0.950165
0.959938
0.967382
0.97046
0.972678
0.974504
0.975768
0.97328
0.966229
0.962392
0.962297
0.963525
0.965188
0.968053
0.977317
0.986629
0.990691
0.993028
0.995128
0.996767
0.996256
0.990121
0.98414
0.982313
0.983045
0.98483
0.988592
0.998609
1.00748
1.01165
1.01425
1.01657
1.0183
1.01728
1.0099
1.00282
1.00025
1.00062
1.0026
1.01016
1.0212
1.02767
1.03036
1.03213
1.0334
1.0332
1.02845
1.01451
1.00255
1.19703
1.6378
0.89495
0.897223
0.898187
0.898967
0.897058
0.894753
0.894767
0.895532
0.896482
0.897692
0.902102
0.909544
0.913167
0.914822
0.915914
0.916974
0.917082
0.913532
0.910993
0.911131
0.912106
0.91323
0.91455
0.919294
0.927803
0.932212
0.93419
0.93554
0.936698
0.936408
0.931734
0.928547
0.928365
0.928962
0.930009
0.931497
0.936397
0.945925
0.951372
0.953543
0.954768
0.955971
0.956868
0.952938
0.947508
0.946122
0.946352
0.947116
0.948573
0.952516
0.962961
0.970725
0.973694
0.975134
0.976234
0.977585
0.97584
0.969267
0.965626
0.965194
0.9656
0.96674
0.969532
0.979254
0.98927
0.993625
0.99554
0.996902
0.998569
0.99889
0.993227
0.986761
0.984541
0.984598
0.985761
0.989313
0.999919
1.0099
1.01459
1.01669
1.01834
1.01982
1.01909
1.01213
1.00441
1.00123
1.0012
1.00279
1.00982
1.02098
1.02753
1.0303
1.03232
1.03345
1.03318
1.02541
1.01025
1.18532
1.63704
0.895905
0.898836
0.899819
0.900899
0.900861
0.897837
0.896274
0.89664
0.897557
0.898604
0.900407
0.90662
0.913349
0.916142
0.91753
0.91856
0.919587
0.918535
0.914343
0.912849
0.913357
0.914285
0.915287
0.916835
0.922951
0.931275
0.935133
0.937048
0.938499
0.939701
0.938546
0.932904
0.929874
0.930114
0.931263
0.932432
0.933808
0.939182
0.948655
0.953504
0.955691
0.957483
0.958992
0.959434
0.954712
0.948933
0.947461
0.948279
0.949625
0.951054
0.954732
0.9648
0.972037
0.97504
0.977244
0.979097
0.980409
0.978584
0.971897
0.967245
0.966407
0.967395
0.968971
0.971845
0.980961
0.990344
0.994688
0.997316
0.999456
1.00106
1.00104
0.995292
0.988204
0.985362
0.985703
0.987308
0.990976
1.00116
1.01086
1.01537
1.01785
1.02002
1.02177
1.02116
1.01394
1.00538
1.00157
1.00133
1.00289
1.00949
1.02042
1.02699
1.0301
1.03227
1.03345
1.03113
1.02276
1.17948
1.63754
0.896352
0.900444
0.90143
0.902465
0.903336
0.901857
0.898599
0.898032
0.898756
0.899766
0.900799
0.903273
0.910724
0.916602
0.918979
0.920306
0.92137
0.92216
0.919596
0.915494
0.914568
0.915139
0.916143
0.917301
0.919362
0.92662
0.93446
0.937785
0.939426
0.940674
0.94182
0.940433
0.935035
0.932533
0.932561
0.933121
0.934142
0.935833
0.94219
0.951804
0.956557
0.958463
0.959589
0.960924
0.961703
0.957343
0.951845
0.950405
0.950525
0.951124
0.95253
0.956594
0.96727
0.975135
0.978159
0.979657
0.980795
0.982246
0.981457
0.975067
0.970029
0.968945
0.969312
0.970426
0.973076
0.98271
0.993021
0.997614
0.999562
1.00081
1.00243
1.00322
0.998123
0.990723
0.987598
0.987306
0.988246
0.991197
1.00131
1.01222
1.01768
1.01998
1.02161
1.02285
1.0224
1.01586
1.00671
1.00221
1.00163
1.00284
1.00875
1.01932
1.02613
1.02964
1.03223
1.03254
1.03165
1.18108
1.63932
0.895576
0.901523
0.902971
0.904013
0.905008
0.905412
0.902474
0.899995
0.900036
0.900735
0.901673
0.902874
0.906438
0.914688
0.919807
0.921884
0.923084
0.924116
0.924418
0.920503
0.91675
0.916406
0.917306
0.918405
0.919478
0.921758
0.929802
0.937214
0.94025
0.941994
0.943459
0.94458
0.942426
0.936424
0.933751
0.93411
0.935241
0.936391
0.937953
0.944436
0.953787
0.958191
0.960427
0.962366
0.963916
0.964316
0.959607
0.953528
0.951535
0.952131
0.953418
0.954919
0.958623
0.968661
0.976172
0.97934
0.981537
0.983367
0.984787
0.984027
0.977714
0.971875
0.97024
0.971005
0.972559
0.975248
0.984037
0.993602
0.998207
1.00096
1.00326
1.00495
1.00546
1.0003
0.992282
0.988317
0.988011
0.989355
0.992319
1.00166
1.01243
1.01792
1.02056
1.02263
1.02417
1.02406
1.01768
1.00781
1.00254
1.00164
1.0025
1.00758
1.01788
1.02515
1.02969
1.0312
1.03671
1.18812
1.64195
0.893424
0.90178
0.904327
0.905638
0.906599
0.907521
0.906847
0.902985
0.901325
0.901774
0.902779
0.903846
0.905236
0.909883
0.91819
0.922574
0.924534
0.925833
0.926896
0.926507
0.92189
0.918813
0.918672
0.91924
0.920208
0.921449
0.924458
0.933134
0.94012
0.942933
0.944409
0.945463
0.946522
0.944524
0.938772
0.936349
0.936352
0.936809
0.937876
0.939759
0.946953
0.956699
0.961366
0.963266
0.964368
0.965666
0.966565
0.962652
0.956555
0.954485
0.954465
0.954934
0.956205
0.959988
0.970511
0.978854
0.982172
0.9837
0.984856
0.986453
0.986734
0.98112
0.974795
0.972757
0.972691
0.973491
0.975872
0.985073
0.996053
1.00133
1.00349
1.00479
1.0063
1.0074
1.0032
0.994895
0.990461
0.989657
0.990377
0.992388
1.0009
1.01269
1.01945
1.02238
1.02396
1.02494
1.02488
1.0193
1.00911
1.00294
1.00148
1.0018
1.00608
1.01633
1.02473
1.02853
1.03843
1.19829
1.64497
0.891381
0.899459
0.904904
0.907039
0.908096
0.908992
0.909799
0.907732
0.903877
0.903196
0.903933
0.904945
0.905946
0.90742
0.913046
0.921384
0.925423
0.927311
0.928616
0.929658
0.928584
0.923151
0.920122
0.920292
0.921382
0.922531
0.923662
0.92682
0.935874
0.942436
0.94503
0.94674
0.948228
0.949238
0.946601
0.940314
0.937494
0.937791
0.938939
0.940198
0.941937
0.948778
0.958191
0.962685
0.964996
0.966959
0.968484
0.969181
0.965292
0.958623
0.955631
0.955768
0.956952
0.958472
0.961813
0.97147
0.979499
0.98311
0.985638
0.987567
0.988997
0.989015
0.983396
0.976268
0.973582
0.973997
0.975494
0.978014
0.986231
0.996541
1.00176
1.00461
1.00709
1.00886
1.00976
1.00559
0.996775
0.991365
0.99021
0.991179
0.993232
1.00087
1.01248
1.01953
1.02274
1.02457
1.02559
1.02571
1.02081
1.01049
1.00324
1.00079
1.00059
1.00443
1.01538
1.02315
1.03724
1.20929
1.64792
0.891361
0.895083
0.902937
0.907693
0.909627
0.910692
0.911654
0.911989
0.908487
0.905311
0.905102
0.905818
0.906812
0.907951
0.909797
0.916275
0.924274
0.927849
0.929551
0.93082
0.931837
0.930498
0.925264
0.922708
0.922727
0.923265
0.924234
0.925565
0.929457
0.93881
0.94516
0.947626
0.948931
0.949984
0.951197
0.949221
0.943151
0.940403
0.940262
0.940652
0.941675
0.943527
0.950701
0.960791
0.965782
0.967721
0.968773
0.969958
0.971171
0.968495
0.961832
0.95858
0.958197
0.958514
0.959629
0.962813
0.973077
0.982351
0.986146
0.987767
0.988756
0.990225
0.991091
0.986436
0.97934
0.976468
0.976006
0.976472
0.9783
0.986188
0.998075
1.00474
1.00736
1.00879
1.01008
1.01128
1.00833
0.999659
0.993548
0.99188
0.99212
0.993379
0.999829
1.01203
1.02025
1.02384
1.02531
1.02597
1.02612
1.02209
1.01193
1.00337
0.999724
0.998875
1.00318
1.0136
1.03181
1.21922
1.65002
0.892115
0.893802
0.898103
0.906295
0.910556
0.91232
0.913311
0.914308
0.913977
0.909607
0.906896
0.907041
0.908026
0.909107
0.91011
0.911916
0.919002
0.926843
0.930223
0.93197
0.933381
0.934503
0.932715
0.92684
0.923998
0.924272
0.925389
0.926514
0.927705
0.931503
0.940913
0.946956
0.949408
0.951253
0.95274
0.9538
0.951567
0.94511
0.941613
0.941578
0.942676
0.94403
0.945711
0.952116
0.961806
0.966685
0.96906
0.971089
0.972648
0.973702
0.971276
0.964317
0.959916
0.959343
0.960359
0.961875
0.964741
0.973854
0.982536
0.986455
0.989066
0.991325
0.992972
0.993643
0.988967
0.981008
0.977028
0.97675
0.977995
0.980007
0.986716
0.998075
1.00482
1.00794
1.01039
1.01227
1.01338
1.01065
1.0017
0.994589
0.992221
0.992538
0.99391
0.999744
1.01169
1.02039
1.02413
1.02548
1.02606
1.02623
1.02313
1.01357
1.00351
0.998019
0.996946
1.00116
1.02258
1.2257
1.65099
0.893218
0.894532
0.895943
0.901186
0.909163
0.913102
0.915004
0.916273
0.917305
0.916058
0.911228
0.909128
0.909299
0.909883
0.910816
0.911982
0.914292
0.921877
0.929378
0.932537
0.934077
0.935192
0.93626
0.934845
0.929416
0.92681
0.926745
0.927162
0.928061
0.929419
0.933834
0.943621
0.949783
0.952085
0.953231
0.954205
0.955515
0.954242
0.948182
0.944654
0.944254
0.944493
0.945323
0.946962
0.953428
0.963958
0.969609
0.97176
0.972902
0.974062
0.975488
0.974337
0.967738
0.963037
0.961953
0.961859
0.962622
0.965109
0.974435
0.984888
0.989867
0.991934
0.993227
0.994392
0.995321
0.991805
0.984046
0.979763
0.978778
0.978935
0.980162
0.985835
0.998258
1.0071
1.0106
1.01218
1.01328
1.01434
1.01287
1.00478
0.996924
0.993819
0.993443
0.994125
0.998733
1.0109
1.02037
1.02414
1.02532
1.02596
1.02632
1.02412
1.01524
1.00347
0.99616
0.993112
1.01
1.22594
1.6505
0.894483
0.89553
0.896348
0.89789
0.903989
0.91225
0.916117
0.917903
0.91917
0.920057
0.917998
0.912669
0.910499
0.910943
0.912001
0.913074
0.914046
0.916238
0.924179
0.931556
0.934599
0.936329
0.93786
0.939021
0.937204
0.931158
0.927996
0.928116
0.929181
0.930307
0.931501
0.935482
0.944954
0.950802
0.953319
0.955332
0.956936
0.958157
0.956887
0.950677
0.946093
0.945309
0.946191
0.947503
0.94914
0.954717
0.964649
0.970218
0.972858
0.975074
0.976735
0.977993
0.976964
0.970336
0.964337
0.962573
0.963208
0.964656
0.967212
0.975671
0.985791
0.990596
0.992956
0.995089
0.99691
0.998017
0.994865
0.986412
0.980652
0.9793
0.98015
0.981757
0.986545
0.998011
1.00689
1.01071
1.01305
1.01497
1.01617
1.01493
1.00688
0.998052
0.993916
0.993301
0.994071
0.998294
1.01026
1.02013
1.02393
1.02505
1.02585
1.0263
1.02487
1.01643
1.00302
0.99306
0.997141
1.21917
1.64828
0.895741
0.896214
0.89711
0.898287
0.900408
0.907411
0.915183