/*--------------------------------*- C++ -*----------------------------------*\
  =========                 |
  \\      /  F ield         | OpenFOAM: The Open Source CFD Toolbox
   \\    /   O peration     | Website:  https://openfoam.org
    \\  /    A nd           | Version:  12
     \\/     M anipulation  |
\*---------------------------------------------------------------------------*/
FoamFile
{
    format      ascii;
    class       volScalarField;
    location    "14";
    object      T;
}
// * * * * * * * * * * * * * * * * * * * * * * * * * * * * * * * * * * * * * //

dimensions      [0 0 0 1 0 0 0];

internalField   nonuniform List<scalar> 
9801
(
0.835119
0.836707
0.837421
0.837224
0.837247
0.838077
0.839253
0.841531
0.84549
0.848539
0.850445
0.851872
0.8531
0.854174
0.854543
0.853933
0.854384
0.855421
0.856885
0.86007
0.864139
0.866699
0.868344
0.869681
0.870834
0.871531
0.870696
0.870676
0.871609
0.872886
0.875198
0.879654
0.883336
0.885447
0.886883
0.888103
0.88904
0.887905
0.887124
0.887928
0.889163
0.890966
0.8951
0.900074
0.902947
0.904759
0.906162
0.907272
0.906192
0.904234
0.904598
0.90592
0.907676
0.91164
0.917678
0.921621
0.9239
0.925419
0.926643
0.925645
0.922384
0.92199
0.923435
0.92545
0.929708
0.937028
0.942168
0.944937
0.946893
0.948404
0.947153
0.942278
0.941045
0.942753
0.945469
0.951776
0.96088
0.96663
0.969806
0.972175
0.97401
0.971266
0.964556
0.963462
0.966337
0.971583
0.983491
0.995072
1.00162
1.00654
1.01102
1.012
1.00487
0.998483
1.00037
1.01211
1.0398
1.19403
1.56791
0.83908
0.840652
0.841175
0.840995
0.841062
0.841818
0.842865
0.845038
0.849298
0.852551
0.854441
0.85579
0.856901
0.857834
0.858058
0.857559
0.857965
0.858892
0.860169
0.863346
0.867697
0.870389
0.872048
0.873327
0.874409
0.875005
0.874223
0.874144
0.874937
0.876061
0.878132
0.882722
0.886618
0.888784
0.890238
0.891442
0.892307
0.891363
0.890541
0.891132
0.892213
0.893753
0.897772
0.902995
0.906045
0.907903
0.909296
0.910407
0.909519
0.907594
0.907795
0.908919
0.910407
0.913932
0.920087
0.924276
0.926664
0.928277
0.929596
0.92899
0.925898
0.925307
0.926553
0.928278
0.931993
0.939293
0.944665
0.947539
0.949597
0.951195
0.950497
0.946032
0.944581
0.946088
0.948412
0.953476
0.962531
0.968934
0.972571
0.975315
0.977697
0.976205
0.969494
0.967733
0.970209
0.974357
0.984027
0.995705
1.00304
1.0085
1.01379
1.01629
1.01114
1.00471
1.00401
1.01179
1.03025
1.18701
1.58788
0.843347
0.844952
0.8454
0.84523
0.845368
0.846145
0.84718
0.849263
0.853655
0.857002
0.858858
0.860171
0.861261
0.862191
0.862413
0.861929
0.862323
0.86324
0.864448
0.867475
0.872016
0.874841
0.876532
0.877825
0.878946
0.879626
0.878826
0.87862
0.879369
0.880467
0.882326
0.886814
0.890918
0.893183
0.894701
0.895979
0.897023
0.89631
0.895225
0.895688
0.896768
0.898235
0.901969
0.90735
0.910586
0.912505
0.91396
0.915212
0.914798
0.912791
0.912735
0.913799
0.915251
0.918229
0.924309
0.928907
0.931462
0.933207
0.934762
0.934856
0.932061
0.931096
0.93218
0.933842
0.936507
0.943236
0.949508
0.952889
0.955207
0.957102
0.957423
0.95371
0.951665
0.9528
0.955073
0.958614
0.967559
0.975852
0.980196
0.983151
0.985812
0.98572
0.979811
0.976839
0.978836
0.982842
0.989954
1.00291
1.01313
1.01947
1.02524
1.02954
1.02674
1.02267
1.02243
1.02905
1.04135
1.19565
1.6096
0.849021
0.850703
0.851087
0.850882
0.851102
0.851914
0.852972
0.854956
0.85937
0.862857
0.864755
0.866098
0.867234
0.868221
0.86837
0.867852
0.868254
0.869207
0.870425
0.873269
0.878011
0.881045
0.88279
0.884122
0.885308
0.88603
0.88516
0.884831
0.885589
0.886747
0.888463
0.892792
0.897337
0.899813
0.901407
0.902751
0.903888
0.903252
0.901874
0.90229
0.903485
0.904996
0.908314
0.913983
0.917687
0.91974
0.92127
0.922647
0.922642
0.920389
0.919955
0.921078
0.922671
0.925171
0.931177
0.936701
0.939581
0.94143
0.943112
0.943832
0.941123
0.939342
0.940293
0.942155
0.944498
0.950565
0.958237
0.962381
0.964924
0.967022
0.968229
0.965096
0.961702
0.962378
0.964909
0.967993
0.975283
0.985187
0.990903
0.994305
0.997307
0.999084
0.994957
0.990025
0.990553
0.994776
1.00025
1.01077
1.02303
1.03126
1.0376
1.04409
1.04475
1.04084
1.03778
1.04098
1.04587
1.20443
1.62837
0.855354
0.857142
0.857514
0.857281
0.857549
0.858392
0.859475
0.861328
0.865715
0.869444
0.871421
0.872802
0.873987
0.875016
0.875098
0.874561
0.874973
0.875957
0.877192
0.879776
0.8847
0.888087
0.889926
0.891304
0.892537
0.893284
0.892476
0.892062
0.892772
0.893939
0.895482
0.89944
0.904577
0.907415
0.909091
0.910469
0.911648
0.911246
0.90991
0.910155
0.911286
0.912748
0.915342
0.921119
0.925662
0.928002
0.929629
0.931094
0.931537
0.929413
0.928512
0.929477
0.931068
0.933145
0.93842
0.944977
0.948528
0.950616
0.952429
0.953687
0.951601
0.948876
0.94933
0.951193
0.95349
0.958333
0.96668
0.972046
0.974963
0.977252
0.979204
0.977757
0.973132
0.972099
0.974386
0.97744
0.982637
0.993018
1.00132
1.00564
1.00891
1.01187
1.01054
1.00442
1.00183
1.00438
1.00938
1.01702
1.02922
1.0395
1.04698
1.0539
1.05849
1.05641
1.05183
1.04965
1.04609
1.20791
1.63958
0.861962
0.863791
0.864197
0.863945
0.864212
0.865083
0.866197
0.86791
0.872222
0.876295
0.878408
0.879812
0.881002
0.88205
0.882171
0.881609
0.882002
0.882992
0.884221
0.886436
0.891411
0.895288
0.897307
0.898737
0.899996
0.900849
0.900149
0.899557
0.900188
0.90134
0.902759
0.906105
0.911662
0.915018
0.916865
0.918309
0.919566
0.919528
0.917977
0.91787
0.918915
0.920377
0.922503
0.927924
0.933336
0.936135
0.937937
0.9395
0.940453
0.938638
0.93667
0.937197
0.938783
0.94078
0.945213
0.952388
0.956799
0.959172
0.961103
0.962819
0.962094
0.958395
0.957305
0.958815
0.961038
0.964755
0.972943
0.980109
0.983656
0.986029
0.988257
0.988736
0.984156
0.981021
0.98187
0.984728
0.988402
0.996648
1.00708
1.01348
1.01754
1.02087
1.0222
1.01729
1.01205
1.01162
1.01523
1.02051
1.02956
1.04038
1.0488
1.05579
1.06207
1.06421
1.06132
1.05566
1.04552
1.20539
1.64564
0.868182
0.870051
0.870564
0.870223
0.870364
0.871223
0.872357
0.873957
0.878038
0.882368
0.884688
0.886183
0.88742
0.888531
0.88877
0.888007
0.888226
0.8892
0.890455
0.892453
0.897225
0.901484
0.903742
0.905286
0.906607
0.907664
0.907134
0.905988
0.906397
0.907559
0.909024
0.912014
0.917578
0.921383
0.923465
0.925034
0.92644
0.927109
0.925343
0.924165
0.924928
0.92643
0.928502
0.933428
0.939397
0.942654
0.944597
0.946221
0.947642
0.946935
0.94404
0.943405
0.944733
0.946603
0.950081
0.957278
0.962891
0.965629
0.967593
0.969411
0.970093
0.966718
0.964159
0.964634
0.966564
0.969177
0.97554
0.984395
0.98966
0.99246
0.994681
0.996261
0.993454
0.988525
0.98731
0.989235
0.992294
0.99733
1.0077
1.01706
1.02221
1.02583
1.02881
1.02784
1.02163
1.01807
1.01878
1.02246
1.02834
1.03821
1.04767
1.05496
1.06117
1.06584
1.06577
1.06097
1.04815
1.20067
1.64931
0.873472
0.875356
0.876037
0.875678
0.875587
0.87637
0.877507
0.879104
0.883025
0.887492
0.889942
0.891479
0.892746
0.893914
0.894445
0.893507
0.893292
0.894158
0.895427
0.897383
0.902002
0.906567
0.908997
0.910576
0.911906
0.913091
0.913111
0.911549
0.9113
0.912299
0.913725
0.916477
0.922058
0.926377
0.928622
0.930199
0.931613
0.932786
0.931779
0.929664
0.9297
0.931006
0.932768
0.936901
0.943442
0.947441
0.949497
0.951097
0.952621
0.953102
0.950289
0.948582
0.949227
0.950841
0.953153
0.959238
0.966431
0.970267
0.972389
0.974182
0.975625
0.973644
0.969758
0.9689
0.97027
0.972457
0.97628
0.985119
0.992895
0.996753
0.999144
1.00115
1.00073
0.995425
0.992055
0.992394
0.994881
0.997945
1.00472
1.01584
1.02358
1.02805
1.03159
1.03425
1.03175
1.02514
1.02244
1.0239
1.02777
1.03426
1.04387
1.05194
1.05835
1.06376
1.06629
1.06427
1.05421
1.19686
1.65188
0.877942
0.879824
0.880641
0.880346
0.879936
0.880529
0.881579
0.883001
0.886659
0.891467
0.894194
0.895824
0.897121
0.8983
0.899097
0.898227
0.897519
0.898123
0.899276
0.900912
0.905167
0.910273
0.913056
0.914718
0.916055
0.917279
0.917817
0.916247
0.915433
0.916085
0.917328
0.91933
0.92456
0.929813
0.932492
0.934154
0.935556
0.93687
0.93661
0.934218
0.933622
0.934501
0.935954
0.938635
0.945107
0.950506
0.953147
0.954835
0.956352
0.957435
0.955485
0.952719
0.95252
0.953766
0.955551
0.959453
0.967513
0.973156
0.975908
0.977742
0.979356
0.978986
0.974699
0.972316
0.972889
0.974789
0.977162
0.98313
0.993007
0.998975
1.002
1.00424
1.00594
1.00343
0.997636
0.995519
0.996287
0.998733
1.00226
1.01092
1.02197
1.0289
1.03315
1.03648
1.038
1.03414
1.02812
1.02616
1.02792
1.032
1.03917
1.04825
1.05525
1.06076
1.06452
1.06517
1.05947
1.19602
1.65429
0.88167
0.883554
0.884429
0.884282
0.883587
0.883994
0.88495
0.886173
0.889153
0.894326
0.89756
0.899304
0.900634
0.901813
0.902757
0.90216
0.901053
0.90141
0.902434
0.90376
0.907081
0.912692
0.916122
0.91794
0.919327
0.920576
0.921467
0.920224
0.918794
0.919129
0.920195
0.921644
0.925602
0.931783
0.935358
0.937234
0.938698
0.940051
0.940546
0.938217
0.936698
0.937123
0.938374
0.9401
0.94509
0.952052
0.955817
0.957777
0.959305
0.960667
0.959938
0.956348
0.955108
0.955917
0.957515
0.959738
0.966301
0.974269
0.9783
0.980466
0.982115
0.983179
0.980283
0.976039
0.975179
0.976259
0.978259
0.981208
0.989628
0.999142
1.00392
1.00678
1.00918
1.01022
1.00499
0.999145
0.998085
0.999623
1.00235
1.00652
1.01615
1.02642
1.0326
1.03654
1.03975
1.04092
1.03688
1.03109
1.02936
1.0313
1.03552
1.04309
1.05163
1.05792
1.06255
1.06474
1.06318
1.19795
1.65667
0.884619
0.886457
0.887363
0.887471
0.886599
0.886789
0.88766
0.888784
0.890964
0.896088
0.900044
0.901989
0.903334
0.904501
0.90554
0.905408
0.904019
0.90405
0.904943
0.906125
0.908349
0.913874
0.918298
0.920424
0.921859
0.923118
0.924205
0.923661
0.921659
0.921504
0.922393
0.923673
0.926172
0.932389
0.937276
0.939595
0.941111
0.942458
0.943454
0.941878
0.939323
0.939214
0.940231
0.941686
0.944661
0.951961
0.957443
0.959983
0.961594
0.963025
0.963572
0.96043
0.957697
0.957814
0.959104
0.960776
0.964256
0.972984
0.979526
0.982482
0.984368
0.986009
0.985952
0.981063
0.977526
0.977395
0.978871
0.981031
0.985339
0.995845
1.00445
1.00842
1.0108
1.01279
1.01275
1.00673
1.00187
1.00136
1.00283
1.00557
1.01051
1.02072
1.03018
1.03606
1.03995
1.04303
1.04344
1.0392
1.03365
1.03193
1.0338
1.03799
1.04602
1.05431
1.06
1.06308
1.06534
1.20288
1.65918
0.887019
0.888824
0.889764
0.890177
0.889238
0.889101
0.889851
0.890898
0.892433
0.896866
0.9017
0.904084
0.905522
0.906721
0.907819
0.908216
0.906773
0.906226
0.906909
0.908005
0.90952
0.914044
0.919628
0.922444
0.923997
0.925263
0.926421
0.926644
0.924485
0.923523
0.924189
0.925388
0.927032
0.931973
0.938306
0.941506
0.943193
0.944535
0.945733
0.945374
0.9423
0.941157
0.941883
0.943187
0.944901
0.95033
0.95786
0.961645
0.963599
0.965114
0.966453
0.965216
0.961139
0.95976
0.960329
0.961778
0.963721
0.969598
0.978968
0.984059
0.986612
0.988467
0.989984
0.987719
0.981732
0.97944
0.980041
0.98179
0.984073
0.989674
1.00091
1.00824
1.01161
1.01432
1.01677
1.01596
1.00887
1.00425
1.00411
1.00596
1.00893
1.01454
1.02477
1.03338
1.03889
1.04269
1.04546
1.04561
1.04113
1.03547
1.03366
1.03524
1.03924
1.04767
1.05585
1.06077
1.06568
1.20972
1.66187
0.889063
0.890902
0.891881
0.892612
0.891842
0.891222
0.89174
0.892684
0.893867
0.897074
0.902612
0.905822
0.907457
0.908702
0.909827
0.910637
0.909553
0.908282
0.908647
0.909647
0.910908
0.913942
0.920134
0.924069
0.925927
0.927231
0.928408
0.929195
0.92755
0.925674
0.925933
0.926976
0.928305
0.931245
0.938145
0.94289
0.945058
0.946481
0.947755
0.948479
0.946054
0.943472
0.943467
0.944461
0.945873
0.948711
0.956523
0.96277
0.965537
0.967227
0.968692
0.969349
0.965795
0.962016
0.961634
0.962748
0.964413
0.96713
0.975485
0.984158
0.987975
0.990039
0.991781
0.993076
0.989403
0.983654
0.982001
0.982425
0.984042
0.986597
0.994014
1.00578
1.01274
1.01594
1.01826
1.02001
1.01808
1.01127
1.00729
1.00723
1.00903
1.01208
1.01854
1.02874
1.03657
1.04156
1.04509
1.04745
1.04731
1.04256
1.03657
1.0345
1.03556
1.03949
1.04863
1.0565
1.06426
1.21795
1.6648
0.890906
0.892869
0.893884
0.894832
0.894524
0.893332
0.893459
0.894273
0.895355
0.897414
0.90283
0.907213
0.909251
0.91058
0.911736
0.912762
0.912403
0.910551
0.910391
0.911256
0.912419
0.914229
0.919713
0.925155
0.927662
0.929105
0.930326
0.931414
0.930871
0.928334
0.927732
0.928475
0.929655
0.931311
0.936732
0.943495
0.946719
0.9484
0.949724
0.950931
0.950216
0.946537
0.945127
0.945706
0.946981
0.948658
0.953779
0.962376
0.967072
0.969342
0.970885
0.97224
0.971353
0.96635
0.96382
0.964034
0.96525
0.967032
0.971078
0.981021
0.988424
0.991745
0.994049
0.995944
0.996317
0.990538
0.984938
0.983966
0.985114
0.987057
0.989873
0.998196
1.00965
1.01569
1.01864
1.02127
1.02343
1.0212
1.0139
1.00989
1.01
1.01201
1.01528
1.02248
1.03233
1.0394
1.04398
1.04723
1.04929
1.04879
1.04351
1.03706
1.03447
1.03488
1.03941
1.04911
1.06008
1.22653
1.6676
0.892633
0.894778
0.895813
0.89684
0.897091
0.895624
0.895168
0.895833
0.896862
0.898267
0.902573
0.908155
0.910938
0.912423
0.913617
0.91472
0.915144
0.913303
0.912311
0.912874
0.913905
0.915179
0.918761
0.925383
0.929145
0.930941
0.932237
0.933435
0.933991
0.931665
0.929714
0.92993
0.930918
0.932261
0.935263
0.942716
0.947969
0.950252
0.951661
0.952917
0.953665
0.95079
0.947473
0.947257
0.948289
0.949698
0.951989
0.959463
0.967314
0.970737
0.972651
0.974185
0.975466
0.97293
0.967514
0.965689
0.966117
0.967526
0.969555
0.975441
0.986404
0.992823
0.995475
0.997116
0.998794
0.998743
0.992636
0.987791
0.987009
0.987716
0.989436
0.992592
1.00214
1.01351
1.0195
1.02248
1.02479
1.02604
1.02319
1.01645
1.01269
1.01266
1.01458
1.01804
1.02618
1.0359
1.04234
1.04627
1.04901
1.05071
1.04995
1.04435
1.03705
1.03339
1.03362
1.0392
1.05304
1.23306
1.66957
0.894182
0.896601
0.897644
0.898699
0.899395
0.898245
0.897066
0.897459
0.898395
0.899546
0.902292
0.908391
0.912395
0.914241
0.915514
0.916651
0.917573
0.916516
0.914523
0.914478
0.915321
0.916482
0.918459
0.924528
0.930189
0.932694
0.934124
0.935348
0.936429
0.935462
0.932337
0.931577
0.932365
0.933553
0.935095
0.940358
0.94803
0.951744
0.953539
0.954853
0.956149
0.955655
0.95142
0.949339
0.949599
0.950628
0.952157
0.955899
0.965111
0.971655
0.974499
0.976399
0.977971
0.978487
0.973785
0.968687
0.96779
0.968733
0.970271
0.972395
0.979564
0.990322
0.995709
0.998496
1.00084
1.00275
1.00155
0.994262
0.989484
0.989112
0.990488
0.992553
0.995935
1.00558
1.01635
1.02179
1.02462
1.02697
1.02862
1.02595
1.01891
1.01492
1.01484
1.01682
1.0206
1.02946
1.03885
1.04462
1.04812
1.05067
1.05212
1.05092
1.04493
1.03634
1.03158
1.0316
1.04297
1.23594
1.67041
0.895394
0.898314
0.899419
0.900525
0.901459
0.901047
0.89929
0.899164
0.899959
0.901036
0.902664
0.907848
0.913434
0.916003
0.917401
0.918556
0.919633
0.919694
0.917263
0.916215
0.916821
0.917905
0.919215
0.92305
0.930159
0.934115
0.935953
0.937235
0.938433
0.938956
0.936195
0.933816
0.933909
0.934795
0.936021
0.938417
0.945953
0.95255
0.955331
0.956943
0.958254
0.959277
0.956805
0.952209
0.950998
0.951729
0.953096
0.954862
0.960479
0.97025
0.975475
0.977688
0.979191
0.980788
0.980937
0.975436
0.971031
0.970346
0.970917
0.972359
0.97494
0.98378
0.994768
0.999885
1.00212
1.00368
1.00525
1.0039
0.996984
0.992735
0.992288
0.993087
0.994802
0.998536
1.00893
1.01932
1.02464
1.02747
1.02971
1.03078
1.02804
1.0213
1.01709
1.01672
1.01843
1.02248
1.03209
1.04143
1.04673
1.04969
1.05192
1.05302
1.05167
1.04496
1.03501
1.02899
1.03089
1.23304
1.67011
0.896185
0.899972
0.901185
0.90235
0.903371
0.90373
0.901913
0.900997
0.901579
0.902612
0.90383
0.90703
0.913552
0.91743
0.919193
0.920407
0.921518
0.922347
0.920719
0.918433
0.918446
0.91935
0.920489
0.92233
0.928532
0.934857
0.937602
0.939109
0.940364
0.941528
0.940719
0.936959
0.935525
0.936028
0.937095
0.938519
0.942791
0.951479
0.956643
0.958926
0.960396
0.961647
0.961835
0.957443
0.953637
0.953338
0.954229
0.955543
0.957582
0.964864
0.974314
0.978694
0.981018
0.982874
0.984382
0.983186
0.976534
0.972436
0.972345
0.973592
0.975155
0.977796
0.987071
0.99737
1.00191
1.00456
1.00697
1.00875
1.00671
0.999184
0.994583
0.994189
0.995571
0.99772
1.00165
1.01184
1.02159
1.0266
1.02942
1.03173
1.03317
1.03043
1.02315
1.01852
1.018
1.01966
1.02401
1.03399
1.04314
1.04796
1.0507
1.05283
1.0537
1.05203
1.04414
1.03182
1.02418
1.22446
1.66889
0.896442
0.901498
0.902939
0.90414
0.905187
0.906045
0.904978
0.903181
0.903305
0.904197
0.905276
0.906883
0.912367
0.918223
0.920822
0.922215
0.923389
0.924479
0.924344
0.921469
0.920217
0.920709
0.921724
0.922976
0.926412
0.934137
0.938892
0.940971
0.942259
0.943445
0.944202
0.941348
0.937793
0.93746
0.938434
0.939689
0.941388
0.947616
0.956112
0.960002
0.961932
0.963344
0.96471
0.964082
0.958725
0.955537
0.955406
0.956231
0.957648
0.960387
0.969386
0.978508
0.982317
0.984111
0.985432
0.98702
0.985569
0.97886
0.975356
0.974995
0.975549
0.977023
0.980155
0.990527
1.00116
1.00577
1.00788
1.00948
1.01095
1.00918
1.00212
0.997705
0.997104
0.997866
0.999635
1.00411
1.0151
1.02445
1.02906
1.03163
1.03378
1.03509
1.03253
1.02511
1.01998
1.01907
1.02048
1.02484
1.03523
1.04431
1.04881
1.05144
1.05348
1.05405
1.0518
1.04041
1.02544
1.21279
1.66783
0.896008
0.902536
0.904598
0.905924
0.907037
0.908102
0.908176
0.905968
0.905119
0.905651
0.906589
0.90774
0.910837
0.917864
0.922151
0.92404
0.925236
0.926326
0.927158
0.925309
0.922408
0.922148
0.92305
0.924223
0.92578
0.931422
0.938962
0.942342
0.943997
0.945188
0.946364
0.946069
0.941882
0.939586
0.939826
0.940666
0.941884
0.944291
0.952407
0.960129
0.963388
0.965321
0.966832
0.968017
0.965738
0.959628
0.957103
0.957546
0.958738
0.960134
0.963199
0.973
0.981361
0.98481
0.987156
0.989045
0.990414
0.987714
0.980336
0.976696
0.97683
0.97818
0.979839
0.982876
0.993025
1.00304
1.00735
1.00988
1.01221
1.01391
1.01197
1.00455
0.999495
0.998704
0.99999
1.00224
1.00712
1.01782
1.02636
1.03072
1.03359
1.03607
1.03753
1.03451
1.02626
1.02071
1.01972
1.02109
1.02555
1.03597
1.04483
1.04918
1.05194
1.05377
1.05414
1.04887
1.03498
1.2034
1.66762
0.895194
0.902696
0.90609
0.907771
0.908932
0.910013
0.910825
0.909308
0.907091
0.907064
0.907922
0.909026
0.910582
0.915997
0.922612
0.925517
0.926954
0.928079
0.929159
0.929157
0.925825
0.924016
0.924453
0.925472
0.926623
0.928969
0.936562
0.942977
0.945575
0.947047
0.948234
0.949276
0.947382
0.942687
0.941131
0.941685
0.942803
0.944184
0.94781
0.957178
0.963839
0.966449
0.967958
0.969287
0.970532
0.967598
0.961619
0.959607
0.959754
0.96061
0.962134
0.966128
0.97695
0.985256
0.988439
0.989982
0.99127
0.992771
0.990233
0.983154
0.979878
0.97958
0.980081
0.981522
0.984948
0.995895
1.00637
1.01079
1.01285
1.01445
1.01594
1.01455
1.00753
1.0024
1.00133
1.00198
1.00381
1.00914
1.02059
1.02933
1.03348
1.0358
1.0378
1.039
1.03607
1.02779
1.02184
1.02056
1.02165
1.02575
1.03605
1.04475
1.04922
1.05213
1.05386
1.05261
1.04589
1.2
1.66856
0.895118
0.901591
0.907077
0.909524
0.910756
0.911805
0.912797
0.912661
0.909891
0.90877
0.909361
0.910387
0.9115
0.914028
0.921212
0.926442
0.928608
0.929845
0.930967
0.931951
0.93038
0.926778
0.925957
0.926596
0.927653
0.928943
0.932831
0.941454
0.946655
0.948847
0.950167
0.951333
0.951895
0.948095
0.943791
0.943212
0.944107
0.945258
0.946632
0.951197
0.961075
0.966814
0.969281
0.971105
0.972645
0.973352
0.96896
0.962758
0.961104
0.961944
0.963331
0.964827
0.968855
0.979692
0.987236
0.990343
0.992701
0.994626
0.99587
0.992628
0.985034
0.981213
0.981199
0.982527
0.984315
0.98767
0.998079
1.00787
1.01211
1.01462
1.0169
1.01857
1.01712
1.00991
1.00407
1.00259
1.0036
1.0058
1.01143
1.02262
1.0307
1.03459
1.03727
1.03963
1.04112
1.03814
1.02917
1.02249
1.02084
1.02177
1.0255
1.0355
1.04423
1.04899
1.05226
1.05309
1.05323
1.203
1.67069
0.896098
0.9
0.906666
0.910632
0.912347
0.913496
0.914564
0.915385
0.913713
0.911092
0.910888
0.911618
0.912639
0.913924
0.918353
0.926071
0.929902
0.931615
0.932747
0.933841
0.934278
0.93096
0.927925
0.927889
0.928886
0.930063
0.931505
0.936994
0.945667
0.949826
0.951774
0.953098
0.954299
0.954225
0.949413
0.945797
0.945496
0.946144
0.947263
0.948936
0.954916
0.964995
0.970193
0.972278
0.973498
0.974878
0.975727
0.971122
0.965421
0.964062
0.964288
0.965118
0.966689
0.971459
0.982993
0.990864
0.993789
0.995262
0.996511
0.9979
0.995378
0.988158
0.984507
0.984116
0.984584
0.985923
0.989444
1.0006
1.0109
1.0152
1.01719
1.01876
1.02042
1.01967
1.01276
1.00651
1.00469
1.00509
1.00677
1.01233
1.02415
1.03306
1.03739
1.03975
1.04155
1.04252
1.03954
1.03042
1.0231
1.02102
1.02163
1.02477
1.03449
1.0435
1.04915
1.05133
1.05704
1.21099
1.67362
0.897333
0.899582
0.904586
0.911072
0.913829
0.915223
0.9163
0.917314
0.917391
0.914365
0.912552
0.912924
0.913926
0.915042
0.91684
0.923248
0.930149
0.93298
0.934418
0.935511
0.936601
0.935927
0.931635
0.929759
0.930176
0.931074
0.932151
0.934021
0.941162
0.949386
0.952961
0.954866
0.956317
0.957556
0.956354
0.950448
0.947215
0.947409
0.948563
0.949735
0.951341
0.957996
0.96783
0.972418
0.974688
0.976594
0.978161
0.978402
0.972937
0.966955
0.9655
0.966374
0.967764
0.969304
0.973818
0.984927
0.992192
0.995242
0.997599
0.99954
1.00081
0.998104
0.990634
0.986072
0.985506
0.986677
0.988505
0.99215
1.00264
1.01207
1.01627
1.01891
1.02121
1.02286
1.0219
1.01477
1.00789
1.00561
1.00629
1.0083
1.01386
1.02538
1.03422
1.03855
1.04106
1.04277
1.04369
1.04092
1.03176
1.02375
1.02101
1.02111
1.02364
1.03329
1.04308
1.04812
1.05802
1.22146
1.67688
0.898458
0.900418
0.902648
0.909709
0.914713
0.916742
0.917881
0.918923
0.919887
0.91869
0.915315
0.914569
0.915264
0.916272
0.917325
0.919967
0.927834
0.93368
0.935992
0.9373
0.938395
0.939318
0.937058
0.932588
0.931386
0.931997
0.933087
0.934294
0.936902
0.9453
0.952782
0.955785
0.957399
0.95866
0.959938
0.95839
0.952503
0.949828
0.949827
0.950383
0.951527
0.953559
0.961283
0.971248
0.97581
0.977687
0.978848
0.980328
0.980939
0.975723
0.969973
0.968531
0.968627
0.969281
0.97082
0.97586
0.98767
0.995574
0.998506
0.999981
1.00125
1.00277
1.00116
0.993962
0.989204
0.988351
0.988745
0.989982
0.993571
1.00475
1.0149
1.01921
1.02116
1.02265
1.02444
1.02438
1.01764
1.01029
1.00769
1.00777
1.00909
1.01391
1.02555
1.03504
1.03981
1.04236
1.04383
1.0446
1.04222
1.03324
1.02439
1.02058
1.02004
1.02214
1.03245
1.04165
1.05564
1.23221
1.67984
0.899719
0.901596
0.90252
0.906659
0.91405
0.917783
0.919498
0.920633
0.92174
0.922389
0.919653
0.916758
0.916581
0.917288
0.918299
0.919576
0.923662
0.932184
0.937013
0.93901
0.940183
0.941286
0.941725
0.937826
0.933783
0.933369
0.934277
0.935411
0.936588
0.939653
0.948785
0.955661
0.958426
0.960218
0.961765
0.962857
0.960201
0.953763
0.951093
0.951512
0.952704
0.953924
0.955872
0.963725
0.973338
0.977601
0.979957
0.981936
0.983498
0.983593
0.978029
0.971631
0.969718
0.970366
0.971742
0.97338
0.977984
0.989104
0.996529
0.999701
1.0021
1.00405
1.00544
1.00388
0.9967
0.990969
0.989536
0.990429
0.992177
0.995899
1.00639
1.01573
1.02
1.02284
1.02524
1.02692
1.0266
1.01966
1.0116
1.00822
1.00826
1.00974
1.01424
1.02569
1.03587
1.04101
1.04337
1.04453
1.04515
1.04333
1.03491
1.025
1.01975
1.01831
1.02071
1.03088
1.04902
1.24151
1.68185
0.900994
0.902598
0.903387
0.90503
0.911102
0.918066
0.920955
0.922384
0.923471
0.924529
0.924176
0.920225
0.918151
0.918506
0.919519
0.920609
0.922012
0.927336
0.935837
0.939896
0.941792
0.943051
0.944175
0.943917
0.939181
0.935861
0.935687
0.936318
0.937343
0.938694
0.942704
0.952358
0.958748
0.961247
0.962617
0.963736
0.964943
0.962427
0.956234
0.953864
0.953861
0.954362
0.955568
0.95788
0.966493
0.976598
0.981018
0.98282
0.98387
0.985268
0.986006
0.981153
0.97479
0.972765
0.972742
0.973249
0.974687
0.979477
0.991315
0.999664
1.00282
1.00434
1.00562
1.00727
1.00683
1.00002
0.993824
0.992068
0.992209
0.99331
0.996656
1.00763
1.01831
1.02316
1.02527
1.02668
1.02828
1.02872
1.0225
1.01394
1.01001
1.00954
1.01061
1.01456
1.02559
1.03615
1.0415
1.04379
1.04495
1.04563
1.04419
1.03654
1.0256
1.0182
1.01614
1.01829
1.0386
1.24744
1.68275
0.902398
0.903645
0.90453
0.905635
0.908291
0.915903
0.921626
0.923859
0.925054
0.92608
0.927005
0.925315
0.921188
0.920149
0.920735
0.921605
0.922576
0.924262
0.930976
0.939225
0.942878
0.944724
0.946043
0.94718
0.946079
0.940426
0.937293
0.937465
0.938592
0.939711
0.940971
0.945301
0.95516
0.961022
0.963435
0.965246
0.966773
0.967717
0.964449
0.957795
0.955066
0.955472
0.956729
0.958081
0.96021
0.968422
0.978053
0.982293
0.984628
0.986617
0.988183
0.988669
0.983915
0.976888
0.973932
0.974151
0.975436
0.977136
0.981543
0.992483
1.00038
1.00381
1.00633
1.0083
1.00979
1.00923
1.00262
0.995609
0.993053
0.993504
0.995076
0.998424
1.00859
1.01883
1.02366
1.02654
1.02905
1.03074
1.03103
1.02498
1.01593
1.0112
1.01042
1.01116
1.01401
1.02485
1.03645
1.04213
1.04414
1.0451
1.04576
1.04477
1.03803
1.02584
1.01666
1.01188
1.0247
1.2464
1.68201
0.904688
0.904863
0.905728
0.906794
0.90802
0.911964
0.920145
0.924753
0.926683
0.927788
0.928797
0.929352
0.926188
0.922331
0.921704
0.922403
0.923453
0.924617
0.926872
0.934579
0.942309
0.945525
0.947227
0.948496
0.949637
0.948255
0.942645
0.939944
0.93991
0.940424
0.941439
0.942954
0.948166
0.958294
0.964076
0.966293
0.967453
0.968591
0.96983
0.967158
0.960707
0.958132
0.958058
0.958449
0.959593
0.96184
0.970503
0.980882
0.985511
0.987354
0.988403
0.989765
0.99093
0.987342
0.980162
0.976997
0.976698
0.977103
0.978362
0.982557
0.994191
1.00331
1.00688
1.00851
1.00969
1.01131
1.01174
1.00586
0.998337
0.995434
0.995132
0.995974
0.99855
1.00858
1.02063
1.02675
1.02919
1.03067
1.03205
1.03261
1.02745
1.01793
1.01203
1.01053
1.01125
1.01409
1.02463
1.03631
1.04192
1.04383
1.04499
1.04579
1.04521
1.03898
1.02552
1.0133
1.01294
1.23796
1.67966
0.908153
0.906579
0.907035
0.907927
0.908931
0.910433
0.915764
0.923957
0.927824
0.929498
0.930431
0.931438
0.931346
0.926853
0.923623
0.923631
0.924591
0.925684
0.926773
0.929254
0.937699
0.945116
0.948141
0.949892
0.951363
0.952495
0.950356
0.944089
0.941167
0.941484
0.942613
0.943777
0.945131
0.950332
0.960366
0.965763
0.96812
0.970042
0.971581
0.972599
0.969686
0.96282
0.959418
0.959469
0.960594
0.961996
0.964004
0.971891
0.981831
0.986435
0.988879
0.990985
0.992577
0.993499
0.990253
0.982735
0.978368
0.977881
0.978999
0.980686
0.984623
0.995213
1.00378
1.00759
1.01018
1.01224
1.0138
1.01404
1.00839
1.00021
0.996319
0.996101
0.997432
1.00002
1.00892
1.02075
1.02702
1.0299
1.03197
1.03369
1.03446
1.02977
1.02016
1.01351
1.01145
1.0117
1.01367
1.02355
1.03574
1.04149
1.04343
1.04489
1.04584
1.04539
1.03894
1.02197
1.00999
1.22415
1.67741
0.912535
0.909215
0.908486
0.909229
0.910258
0.911266
0.912938
0.919223
0.927065
0.930458
0.93214
0.933215
0.934209
0.933124
0.92813
0.925698
0.925812
0.926497
0.927547
0.928816
0.932006
0.940989
0.94795
0.950696
0.952153
0.953209
0.954359
0.952563
0.946633
0.943994
0.943897
0.94431
0.945288
0.946866
0.95271
0.963164
0.968862
0.971002
0.972147
0.973357
0.974733
0.972792
0.966066
0.962553
0.962111
0.962297
0.963206
0.965204
0.973344
0.984357
0.989613
0.991631
0.99272
0.994005
0.995443
0.993571
0.986178
0.981454
0.980565
0.980806
0.981844
0.985175
0.996139
1.00632
1.01062
1.01245
1.01359
1.01518
1.01625
1.0118
1.00322
0.998811
0.997926
0.998339
0.999998
1.00792
1.02116
1.02913
1.03226
1.03377
1.03511
1.03593
1.03242
1.02224
1.01417
1.01131
1.01147
1.01347
1.02288
1.03491
1.04073
1.04295
1.04485
1.04569
1.04515
1.03507
1.0186
1.21046
1.67621
0.916447
0.914071
0.910923
0.910813
0.911489
0.912278
0.913177
0.915109
0.922444
0.930087
0.93326
0.934912
0.936019
0.936985
0.935059
0.929438
0.92714
0.927635
0.928799
0.929957
0.931068
0.934348
0.943634
0.950197
0.952776
0.954496
0.956032
0.957133
0.954819
0.94835
0.945126
0.945279
0.946384
0.947617
0.949031
0.954481
0.964626
0.970111
0.972608
0.974701
0.976312
0.977498
0.975541
0.96855
0.963872
0.963147
0.964075
0.965468
0.967427
0.974625
0.985016
0.990218
0.992828
0.995046
0.996703
0.997936
0.99634
0.989069
0.983129
0.981556
0.982337
0.983876
0.987013
0.996779
1.00644
1.01099
1.01385
1.01619
1.01781
1.01863
1.0144
1.00536
0.999732
0.998508
0.999471
1.00141
1.00815
1.02083
1.02939
1.03302
1.03493
1.0363
1.0371
1.03408
1.02427
1.0153
1.01185
1.01161
1.01312
1.02154
1.03349
1.03957
1.04238
1.04451
1.0457
1.04226
1.03319
1.20337
1.67652
0.918938
0.919373
0.914973
0.912272
0.912231
0.913041
0.914066
0.91521
0.917752
0.925619
0.932727
0.935662
0.937314
0.938568
0.939493
0.937223
0.931897
0.929962
0.930146
0.930696
0.931666
0.933003
0.936931
0.946459
0.952921
0.955447
0.956751
0.957758
0.959008
0.957421
0.951269
0.948116
0.947866
0.948143
0.948999
0.95051
0.956269
0.967085
0.973275
0.975578
0.976769
0.977845
0.979268
0.978527
0.972005
0.967032
0.965974
0.96608
0.966745
0.96841
0.975409
0.986975
0.993306
0.995663
0.996873
0.998067
0.999604
0.999282
0.992591
0.986132
0.98419
0.984085
0.984809
0.987156
0.996768
1.0085
1.01421
1.01639
1.01755
1.01894
1.02039
1.01779
1.00886
1.00248
1.00063
1.0006
1.00164
1.00686
1.01989
1.02974
1.03377
1.03559
1.03706
1.03811
1.036
1.02629
1.01602
1.01173
1.01135
1.01273
1.02017
1.03165
1.03833
1.04182
1.04439
1.04438
1.04375
1.20513
1.67838
0.921081
0.922335
0.920468
0.915487
0.913718
0.914228
0.91525
0.916276
0.917309
0.919874
0.928264
0.935353
0.938252
0.939896
0.941258
0.942156
0.939468
0.93357
0.931276
0.931751
0.932869
0.933965
0.935103
0.938878
0.948475
0.954696
0.95719
0.959053
0.960605
0.961763
0.960024
0.953501
0.949393
0.949028
0.950012
0.95132
0.952764
0.957811
0.968109
0.974137
0.976792
0.978918
0.98059
0.981909
0.981258
0.974996
0.968855
0.966933
0.967524
0.968842
0.970702
0.976713
0.987431
0.993637
0.996565
0.998941
1.00073
1.00212
1.00181
0.995491
0.988006
0.985013
0.985236
0.986604
0.988977
0.997186
1.00827
1.01406
1.01718
1.01981
1.02162
1.0228
1.02038
1.01134
1.00364
1.0009
1.00119
1.00265
1.00708
1.019
1.02949
1.03435
1.03665
1.03809
1.03886
1.03729
1.02826
1.01724
1.01217
1.01135
1.01204
1.01817
1.02948
1.03696
1.04176
1.04318
1.05013
1.213
1.68131
0.922782
0.924081
0.924487
0.921497
0.917006
0.91589
0.91629
0.916954
0.917986
0.919274
0.922495
0.931198
0.937936
0.940643
0.942131
0.943258
0.944137
0.941849
0.936351
0.934162
0.934153
0.934533
0.935446
0.936811
0.941116
0.951028
0.957533
0.960015
0.961254
0.962243
0.963583
0.962854
0.956809
0.952549
0.951834
0.951987
0.952611
0.953984
0.958933