/*--------------------------------*- C++ -*----------------------------------*\
  =========                 |
  \\      /  F ield         | OpenFOAM: The Open Source CFD Toolbox
   \\    /   O peration     | Website:  https://openfoam.org
    \\  /    A nd           | Version:  12
     \\/     M anipulation  |
\*---------------------------------------------------------------------------*/
FoamFile
{
    format      ascii;
    class       surfaceScalarField;
    location    "0.13";
    object      phi;
}
// * * * * * * * * * * * * * * * * * * * * * * * * * * * * * * * * * * * * * //

dimensions      [1 0 -1 0 0 0 0];

internalField   nonuniform List<scalar> 
33852
(
0.000251329
2.24281e-05
-0.000273757
-0.000246121
1.32441e-05
0.000232877
-0.000178333
-9.09164e-05
0.000269249
0.000304053
-0.000163969
-0.000140085
0.000288065
-4.78242e-05
-0.000240241
2.72441e-05
-0.000260681
0.000233437
0.000327534
1.48313e-05
-0.000342447
0.000304277
-9.59564e-05
-0.000208321
0.000286413
-3.50841e-05
0.000197579
1.46211e-06
-0.000207773
0.000284608
-0.000361174
7.61189e-05
0.000374893
-4.71095e-05
-4.39602e-05
0.000263285
-0.000219325
2.88401e-06
0.000238057
-0.000240941
7.29683e-05
-0.000251301
0.000252057
1.2236e-05
-0.000264293
0.000264853
-1.2796e-05
-0.000278433
3.23121e-05
0.000335695
-5.2108e-05
0.000158593
0.000112308
-0.000270901
1.81749e-05
0.000225168
-0.000243343
0.000271377
-0.000276165
4.78802e-06
-1.87983e-05
0.000290359
-0.000271882
-0.000236868
1.52518e-05
0.000221773
-0.000163381
-0.00011662
0.000280001
-0.000143665
-8.15964e-05
0.000225177
3.72401e-05
0.000267037
-6.24213e-05
-0.000278764
0.000327828
-0.000207394
1.73288e-06
0.000206023
-0.000217763
-1.96858e-05
0.000142045
0.000137388
-0.000279433
0.000355874
1.9864e-05
0.000142618
0.000128347
-0.000270965
-0.000101136
0.000259729
-0.000250489
-3.78001e-06
0.000254269
0.00025624
-1.52122e-05
-0.000241028
-0.000302849
0.000139469
-0.000241092
0.00022228
0.000231645
3.32081e-05
-5.65602e-06
0.000237301
-8.76244e-06
0.000196917
-0.000232625
0.000259869
0.000274824
-3.34265e-05
-0.000241397
-0.000309093
5.51042e-05
0.000253989
0.000243985
-0.000323339
0.000273589
-0.000306321
3.27321e-05
-0.000180237
-5.49362e-05
0.000235173
0.000272133
-0.000272133
0.000148429
-0.000297473
0.000149045
-0.000229697
0.00023848
-7.93645e-06
-0.000268241
0.000237301
3.09401e-05
-0.000218401
0.000270127
-5.18267e-05
-9.16164e-05
-0.000217477
-0.000112598
-0.000249143
-0.000280169
0.000266113
1.40561e-05
0.000344396
1.24252e-05
-0.000250433
7.01963e-05
0.000117908
0.000145909
-0.000263817
1.34681e-05
-0.000267457
0.000253989
-0.000134569
0.000282997
-0.00014141
-4.482e-05
0.000186377
-0.000274681
0.000245113
2.95681e-05
0.000237553
-0.000268437
3.08841e-05
-0.000183854
-2.33624e-05
0.000151665
0.000115565
-0.00026723
-0.000192765
-2.83679e-05
0.000225318
0.000263985
2.24281e-05
0.000275941
-2.35201e-06
0.000265329
-0.000250741
-1.45881e-05
0.000217546
-6.25669e-05
-0.000166115
-1.82001e-06
0.000239373
0.000371117
-0.000316572
-5.73098e-05
-7.00003e-08
0.000251069
-0.000250999
-0.000101584
0.000219493
0.000349242
2.50331e-05
-0.000376621
0.000369241
1.84355e-05
-0.00020496
2.2413e-05
0.000321167
-0.000332221
1.31298e-05
-0.000223732
0.00029488
-6.82704e-05
-4.45202e-06
1.66008e-05
-0.000316812
0.000300002
0.000231611
-0.000196733
-3.49205e-05
0.000281287
-0.000357548
7.38938e-05
0.000343446
-6.63159e-05
-0.000268941
0.000236573
3.23681e-05
-0.000129389
-0.000132609
0.000261997
-1.86761e-05
-0.000249565
-1.022e-05
-0.000258721
1.64921e-05
0.000223805
-0.000240297
3.11865e-05
-0.000226065
0.000183292
-2.69183e-05
0.00035393
-0.000320513
-0.000279329
0.000273701
5.62802e-06
0.000156129
-0.000296857
0.000140729
-5.91358e-05
-0.000151001
0.000215158
0.000143277
0.0001218
-0.000265077
-0.000190163
0.000208338
-0.000213384
0.000159214
-0.000168813
0.000327181
-0.000158369
0.000185389
7.16523e-05
-0.000257041
0.000255193
2.07481e-05
-0.000192277
0.000148317
2.97221e-05
0.000245102
0.000305058
-0.000288689
0.000113525
-0.00026041
0.000135241
0.000117096
-0.000281065
8.14803e-06
0.000225709
-0.000233857
0.000166489
0.000122836
-0.000289325
0.000142106
8.919e-05
-3.92002e-06
0.000259113
0.000318894
5.63252e-06
-0.000318646
0.000311162
7.89038e-06
-3.99002e-05
0.000236293
-0.000196393
4.08802e-06
-0.000284257
1.162e-05
0.000184913
-0.000196533
-0.000186341
0.000197961
0.000204983
-0.000183672
-0.000269921
0.000264965
4.95602e-06
2.64041e-05
0.000174721
-0.000201125
2.87841e-05
-0.000257265
0.000228481
0.000276137
-0.000262669
0.000115108
0.000212073
0.000221565
-0.000205073
-0.000175813
0.000202217
-2.21957e-05
0.000257405
-0.000235209
0.000264517
2.35481e-05
0.000281227
-0.000291663
1.26925e-05
3.86402e-06
0.000267513
-1.8142e-05
0.000303658
0.000324754
1.06724e-05
0.000198409
-0.000195525
0.000313465
-0.000313304
-6.63603e-06
-0.000272693
2.71218e-05
0.000185769
0.000187993
3.98722e-05
-0.000227865
-5.30399e-05
0.000215844
-0.000153125
0.000153609
-0.000270285
0.000116676
0.000279441
-0.000329701
5.02602e-05
-6.38122e-05
0.000249201
-0.000166909
0.000315897
-0.000148989
-0.000309477
-9.30564e-06
-0.000214929
0.000175029
2.78601e-05
-0.000278349
0.000276221
-1.88441e-05
-0.000248613
1.86795e-05
-0.000314943
0.000304031
0.000344989
-0.000158593
-0.000186397
-1.69192e-05
-0.000241376
0.000258062
-0.000266617
-3.30401e-06
0.000224001
2.45841e-05
-0.000248585
0.000284509
-0.000128381
0.000140197
0.000138853
-0.000279049
-0.000214393
-1.07838e-05
0.000258169
-0.000115551
0.000225594
-0.000242531
-6.38122e-05
0.000251805
-0.000221229
0.000249481
-5.60002e-07
-0.000248921
0.000255109
-0.000237441
-0.00034422
0.00032318
-3.08841e-05
0.000203169
-0.000172285
0.00030004
-4.3519e-07
-0.000304676
0.000135549
0.000139441
-0.000274989
4.00518e-05
-0.000182552
-0.00029172
-3.90171e-06
0.000294811
-1.94921e-06
-0.000295507
0.000146973
-0.000273925
0.000126952
-0.000255529
0.000207705
-0.000249792
0.000249722
0.000279441
-0.000326483
-1.3181e-05
0.000338248
0.000120507
0.000174665
-4.79695e-05
0.000304209
0.000140141
0.000139833
-0.000279973
0.000245029
-0.000250349
5.32002e-06
-0.000210953
0.000180069
0.000279133
-5.43202e-06
0.000297333
-5.92762e-05
-0.000301104
0.000302502
-2.97441e-06
0.000270985
-0.000270985
-0.000358834
0.000221518
0.000137107
-0.000204183
1.9604e-05
1.77514e-05
0.000275157
-0.000278461
3.30401e-06
-5.1082e-06
0.000189796
-0.000183239
-0.000197345
0.000254801
-5.74562e-05
-0.000222605
5.04262e-06
-0.000238714
0.000151322
8.30404e-05
-0.000180265
0.000261437
-8.11723e-05
0.000256285
-0.000287113
3.08281e-05
-0.000249229
5.18842e-05
-2.25941e-05
0.000271645
-0.000250222
-0.000253547
1.35801e-06
0.000252189
0.000231281
-7.28003e-06
-0.00027516
2.05056e-05
0.000238246
-0.000266085
0.000266085
-0.000299337
-5.78856e-05
-0.00016862
-0.000190659
-0.000175293
0.000217479
-4.26515e-05
-1.232e-05
-0.000239177
0.000251497
3.10801e-06
0.000210113
-0.000213221
-0.000198498
-2.202e-05
0.000221814
-2.96795e-05
0.000261213
-0.000231537
-0.000236153
-1.34401e-05
0.000249593
1.50361e-05
-0.000251189
-0.000241025
0.000256061
-0.000268185
0.000238505
0.000256117
7.16803e-06
-0.000162797
-3.10814e-05
0.000193909
-0.000145237
-0.000134765
-0.000244329
0.000240549
0.000265301
-3.76322e-05
-0.000227669
-0.000265525
3.78001e-05
0.000227725
2.05616e-05
0.000181217
0.000163773
7.70003e-05
-0.000257265
-0.000159242
0.000310908
0.000250721
-0.000108677
-0.000235145
-1.83681e-05
0.000253513
-0.000136201
-0.000138713
0.000274913
-6.10402e-06
-0.000229125
0.000235229
-2.18035e-05
-0.000183571
-0.00028833
-8.54878e-05
-2.73461e-05
-0.000254889
-0.000143585
0.000272077
-0.000128493
0.000281597
0.000288205
-5.16322e-05
0.000271993
-1.57081e-05
-0.000185715
-1.30587e-05
0.000198996
0.000264013
-3.67921e-05
-0.000227221
-0.000270667
-3.19447e-05
-0.000218821
0.000247605
1.73853e-05
0.000232421
-0.000249806
0.000176549
7.91296e-06
-0.000190138
-3.33608e-05
0.000205713
-0.000231116
0.000248501
0.000258721
-3.15841e-05
-0.000227137
0.000157445
0.00011886
-0.000276305
0.000255977
-3.29561e-05
-0.000223021
-0.000317409
0.00018382
0.000133589
-0.000249968
0.000227772
0.000302513
-0.000156857
-0.000145657
0.000207005
-0.000203897
-0.000232009
-0.000121156
-0.000155009
3.31148e-05
-0.000260706
0.000227584
-1.0136e-05
0.000276249
0.000264685
-3.64561e-05
-0.000228229
-0.000262445
3.42161e-05
0.000228229
0.000271433
-0.000267569
0.000249621
2.95121e-05
0.000239816
2.65752e-05
-0.000266417
4.83919e-05
0.000158225
-0.000197105
-0.000136921
0.000229993
-9.30724e-05
0.000252617
-2.91201e-05
-0.000223497
3.76041e-05
0.000221117
-0.00017068
-3.05997e-05
0.000205858
3.51961e-05
0.000220781
-9.33244e-05
0.000246933
-0.000255417
-5.26402e-06
0.000121184
0.000181329
1.34121e-05
0.000241557
-0.000254969
0.000236097
1.34961e-05
-0.000249593
0.000249509
-0.000242929
0.000256425
6.83677e-05
-0.000220151
0.000151754
-0.000255809
0.000118888
-0.000200606
0.000264013
-3.58681e-05
-0.000228145
0.000253849
2.22881e-05
0.000268493
-0.000216441
-5.20522e-05
0.000225518
-0.000246849
2.13305e-05
0.000257909
1.40841e-05
5.7849e-05
0.000316434
0.000267185
-3.89594e-05
-0.000228226
0.000187241
1.274e-05
0.000240297
-0.000253037
0.000192209
-0.000112352
-8.06874e-05
-0.000216346
2.29211e-05
3.59801e-05
-0.000264433
0.000228453
0.000246524
-0.000172509
-5.64446e-05
0.000292696
-6.75279e-05
0.000275969
-0.000135829
2.31561e-05
0.000238337
-0.000261493
-0.000231141
0.000254297
-2.65161e-05
-0.000230161
0.000256677
0.000173782
-0.000176986
-0.000131152
-0.000186257
-0.000261723
4.14346e-05
0.000220288
-3.17521e-05
-0.00022997
6.46155e-06
0.000261717
-3.25193e-05
-0.000229198
1.51234e-05
0.000127071
-0.000212015
0.000308785
-0.000171397
0.000262319
-3.57923e-05
-0.000226526
-0.000316772
0.000232905
-9.73564e-05
-0.000228453
-6.90203e-05
3.70441e-05
-0.000265217
0.000228173
-2.82823e-05
0.000169224
-0.000141878
0.00026667
-2.68537e-05
0.000250097
-0.000248249
-1.84801e-06
-0.000173606
6.15853e-05
0.000260541
-3.06041e-05
-0.000229937
0.000197345
-0.000250769
5.34242e-05
0.000254205
-0.000231205
-2.29993e-05
-0.000252337
0.000240017
0.000158202
0.000111956
-0.000101864
-0.000170269
0.000132497
-0.000261885
-0.000290249
0.0002422
4.80482e-05
0.000216805
3.12481e-05
-0.000248053
-0.000236657
-1.1452e-05
0.000248109
0.000291924
-4.0855e-05
0.000263996
-3.42721e-05
-0.000229724
0.000149437
-0.000287953
0.000138517
3.63259e-05
-0.000265637
0.000229311
-0.000253905
0.000121296
0.000249817
-5.24722e-05
0.000294673
-0.000154253
-0.000140421
0.000122248
-0.000289157
1.53441e-05
0.000237665
-0.000253009
-0.000262031
3.54705e-05
0.00022656
-3.26179e-06
-3.77917e-05
-0.000224239
0.000245494
-0.000268933
-0.000264649
3.44737e-05
0.000230175
0.000193257
0.000101416
-0.000149941
0.000290137
-0.000164619
-3.76237e-05
0.000194915
-1.81721e-05
0.000263201
-0.000307419
0.000332241
0.000132487
0.000117797
0.000261325
-0.000261325
0.000277929
-4.38202e-05
-0.000234109
5.32002e-07
0.000248949
0.000254857
1.65761e-05
0.000305444
-0.000271789
-3.35793e-05
-2.26336e-05
0.000266577
-0.000243943
3.00077e-05
-0.000260519
0.000230511
-0.000252139
0.000229506
0.000352739
3.11501e-05
-0.000260598
0.000229447
0.000276809
-3.16961e-05
-6.96604e-06
-0.000294222
0.000301305
0.00026633
3.90617e-05
0.000230245
-0.000266617
3.63721e-05
0.000197401
-0.000189253
-0.000258301
0.000238533
1.97681e-05
0.000169762
-0.000257245
8.74835e-05
-0.000193411
0.000163241
-0.000249145
8.59043e-05
-0.000266169
0.000224813
4.13562e-05
0.000253073
-2.78797e-05
-0.000225194
0.000179886
4.27141e-05
-0.000234837
-2.29601e-05
0.000257797
-0.000236377
-2.28761e-05
0.000259253
-1.94265e-05
0.000255969
-0.000236542
-0.000259345
0.000239919
-7.63843e-05
0.000225821
-0.000235929
-2.24001e-05
0.000258329
-0.00025484
0.000229192
2.56481e-05
2.94001e-06
0.000211289
-0.000214229
-0.000267031
3.79849e-05
0.000229046
0.000270677
4.48002e-06
1.90301e-05
0.000228294
-0.000245554
-3.31241e-05
0.000249929
-2.1354e-05
0.000218597
9.73004e-05
0.000248221
-0.000216973
0.000280375
-0.000286674
0.000279749
-0.000284586
-1.84997e-05
0.000258601
-0.000240101
-0.000261644
0.000243145
3.00492e-05
-0.000204772
-1.55401e-05
-0.000240549
0.000256089
0.000310781
-0.000285587
-2.6944e-05
0.000261297
-3.11081e-05
-0.000230189
3.28739e-05
-0.000262362
0.000229488
-0.000229853
0.000259645
-2.97921e-05
0.000247181
1.94504e-05
0.000141538
-0.000215189
0.000256929
-0.000109956
-0.000292692
0.000290136
0.000241977
-6.41202e-06
-0.000235565
0.000228537
-0.00020962
-2.40232e-05
0.00023478
1.55818e-05
-0.000225287
-0.000239989
0.000260317
-2.03281e-05
-0.000114085
0.000207091
-9.35487e-05
2.98511e-05
-0.00020528
0.000240169
-0.000263424
2.32552e-05
-0.000115584
0.000258861
-0.000243993
0.000265721
-2.17281e-05
-0.000238953
0.000232541
0.000258626
-0.000245105
-1.35213e-05
0.000264349
-2.46681e-05
-0.000246317
-0.000281674
-1.05572e-05
0.000285237
-5.95282e-05
3.02961e-05
0.000222461
-0.000252757
-0.000216182
0.000239242
0.000247549
8.91363e-06
-0.000256422
0.000323999
-0.000323943
0.000260955
-0.000245018
-1.59377e-05
-0.000306019
2.54379e-07
0.000301225
9.12067e-06
3.70094e-05
0.000165845
-0.00020989
0.000255557
-6.03962e-05
-0.000195161
0.000278054
-0.000255789
-2.22648e-05
-0.000200316
3.02941e-05
3.15421e-05
-0.000261891
0.000230348
0.000285658
-0.000292449
2.44721e-05
-0.000259617
-0.000257965
1.87881e-05
0.000266057
-1.64361e-05
0.000151173
-0.000267625
0.000116452
0.000228419
3.27859e-05
0.000238617
-7.53763e-05
2.12521e-05
0.000177045
-0.000198297
-0.000183877
0.000205129
-0.000236275
0.000257219
-2.09441e-05
0.000261462
-3.31689e-05
-0.000228293
-0.000197009
-5.21362e-05
0.000251581
-1.48401e-06
2.14201e-05
-0.000250573
0.000229153
-0.000365543
0.000253273
0.000113658
0.000266371
-0.000236811
-2.95597e-05
0.000273561
-0.000244329
-2.92321e-05
-2.57041e-05
-0.000229097
0.000254801
0.000261493
-7.64403e-06
9.98881e-06
-0.000206281
0.000262411
-3.19033e-05
-0.000230508
-6.90483e-05
-0.000260653
-0.000194685
0.000248025
-5.33402e-05
-0.000266533
0.000249985
1.65481e-05
-0.000247717
-2.04683e-05
1.2572e-05
0.000239093
-0.000251665
-0.000276221
1.65481e-05
0.000249537
-0.000184399
7.0341e-05
0.000276315
1.47023e-05
-0.000289081
-0.000245729
0.000274625
-2.88961e-05
3.46641e-05
-0.000263649
0.000228985
1.95721e-05
0.000295124
-0.000244805
-2.07201e-05
-0.000176541
-7.42283e-05
-0.000251413
0.000235873
-2.16721e-05
-0.000216469
0.000238141
-0.000237101
0.000258578
-2.14779e-05
-0.000135689
0.000277257
-0.000141569
2.87561e-05
3.31521e-05
-0.000263453
0.000230301
-0.000196757
2.40276e-05
0.000169339
0.000221705
0.000278767
-0.000282135
7.27411e-07
-0.000236993
-2.20921e-05
0.000224813
-0.000202721
0.000139273
0.000143753
-0.000278517
0.000200192
-5.71642e-05
0.000237581
2.64321e-05
0.000197068
-0.000212281
2.92853e-05
0.00022306
-0.000252345
-0.000256621
0.000140001
0.000257038
-9.8579e-06
1.84132e-05
-0.000224355
-2.77845e-05
-0.00013562
-0.000133176
-0.000261969
0.000118384
0.000242873
2.56201e-05
0.000218765
-0.000224869
-1.63801e-05
-0.000235957
0.000252337
-0.000230082
0.000259634
-2.95513e-05
0.000210813
-0.000248445
0.000298817
-7.50123e-05
-4.61162e-05
0.000256929
-1.87881e-05
0.000247101
-0.000228313
0.000210869
-0.000256985
-4.27562e-05
-0.000213277
0.000256033
0.000248669
-0.000274789
0.000290439
0.000226314
2.67597e-05
-0.000276081
0.000247717
2.83641e-05
0.000263061
-1.55119e-05
0.000249145
1.39166e-05
-0.000268913
0.000246057
-2.05381e-05
-0.000259401
3.02849e-05
0.000229116
0.000178305
7.64963e-05
4.71242e-05
0.000210113
-0.000257237
-0.000238141
-2.88401e-05
0.000266981
2.51441e-05
-0.000263285
0.000284117
-0.000162317
-0.000232177
0.000261129
-2.89521e-05
-0.000234697
0.000260709
-2.60121e-05
5.81924e-07
0.000277175
2.45001e-05
-0.000259197
2.38001e-05
-0.000255977
0.000274541
-0.000243489
-3.10521e-05
0.000248417
2.62091e-05
-0.000245113
-3.09681e-05
-0.000255753
1.1816e-05
0.000243937
1.95721e-05
-0.000261182
0.000228058
-0.000245337
0.000270145
-2.48081e-05
-0.000263229
1.49801e-05
-2.16753e-05
0.00029026
-0.00027576
2.13641e-05
-0.000266701
-0.000241333
-2.11121e-05
3.32081e-05
-9.0432e-05
0.000260194
0.000210449
-0.000253205
5.05122e-05
0.000237693
0.000211569
-0.000248361
-0.000243181
-2.39401e-05
0.000267121
-0.000260894
7.34723e-06
-0.000239065
-1.1564e-05
0.000250629
-0.000268717
2.55361e-05
-4.56122e-05
0.000257181
-0.000268325
0.000243545
2.47801e-05
-0.000232513
0.000210841
0.000209581
-0.000255193
-6.16002e-07
0.000260289
-0.000259673
-0.000269557
2.18406e-05
-0.000264573
2.35481e-05
-0.000244169
-2.41557e-05
-3.43281e-05
-0.000228218
0.000260786
0.000286674
-0.000158327
0.000225261
-0.000256845
2.30161e-05
-3.22868e-05
0.000260664
-0.000254383
-6.64333e-06
0.000268743
-4.97845e-05
-0.000218958
6.06354e-05
-0.000246765
-2.19521e-05
-0.000351059
0.000238356
0.000213641
-0.000246597
2.33801e-05
-0.00020263
-1.78818e-05
-0.000237049
-1.29921e-05
0.000250041
-0.000147684
0.000269591
-0.000121907
0.000259841
-0.000238533
-2.13081e-05
-0.000258464
2.94001e-05
0.000222097
-0.000251497
-0.000154851
0.000126668
-0.00015519
0.000251441
-0.000238029
-1.34121e-05
-0.000263873
3.40201e-05
-2.23161e-05
-0.000269837
0.000251469
0.000230427
3.12901e-05
-4.61902e-05
0.000207375
0.000232619
-0.000260499
1.96841e-05
-1.37761e-05
0.000238841
-0.000225065
-0.000300304
-0.000237049
0.000265189
-2.81401e-05
0.000230096
3.22225e-05
-0.000268521
2.55921e-05
-0.000239905
-2.86161e-05
0.000228954
-0.000260706
-0.000249145
4.73202e-05
-0.000242005
0.000259225
-0.000212101
-0.000242705
-1.148e-05
0.000254185
1.0724e-05
0.000244833
0.000228551
-0.00026107
0.000296886
-0.0001309
-0.000165985
0.000220977
-0.000257433
0.000255193
-0.000226213
-1.76681e-05
-0.000141196
0.000285517
-0.000144321
2.49649e-05
0.000222662
-0.000247627
-0.000191087
0.000192408
-0.000212969
0.000248949
4.40442e-05
-0.000257013
-0.000302485
0.000146693
0.000155793
0.000259995
-0.000239359
-2.06361e-05
-0.000215741
0.000193649
0.000265692
-3.91565e-07
0.000257293
0.000232521
2.16833e-05
-0.000218933
-8.39163e-05
-2.68521e-05
0.000243405
-0.000255529
1.21239e-05
-0.000230917
-2.37161e-05
0.000254633
-0.000242295
0.000263191
-2.08965e-05
9.11634e-05
0.000147203
-1.59321e-05
-0.000238169
0.000254101
0.000256565
-1.80041e-05
-0.000238561
0.000243881
-0.000254017
1.0136e-05
-0.000226745
0.000207957
0.000223131
-0.000258923
-0.000244693
4.76842e-05
-2.11401e-05
-0.000135944
-0.000215162
1.57921e-05
0.000245701
0.000247185
0.000260457
0.000234022
3.47218e-05
0.000249817
-0.000220417
2.51749e-05
0.000225009
-0.000250184
-0.000243178
0.000268865
-2.56873e-05
2.28201e-05
-0.000262725
-0.000119819
0.000293501
9.30192e-06
2.08181e-05
0.000261675
-0.000235103
-2.65721e-05
-2.15601e-05
-0.000236433
0.000257993
0.000245617
1.0332e-05
-0.000255949
0.000249733
1.63241e-05
0.000237245
-0.000258805
-0.000243853
-0.000118592
9.63204e-06
0.000250657
-4.9129e-05
-0.00020239
0.000251519
2.20333e-05
0.000246832
-0.000241686
-2.29629e-05
0.000260737
-2.24001e-05
0.000254493
-0.000268023
2.63369e-05
2.68241e-05
-0.000257965
0.000210617
-0.000207677
2.58161e-05
-0.000262865
0.000247157
0.000121744
-0.000256173
0.000134429
-1.75001e-05
3.71248e-05
0.000154172
-0.000193717
-0.000239485
-2.85377e-05
3.95652e-05
0.000163956
-0.000201594
-0.000246691
0.000271066
-2.43747e-05
0.000209866
-0.000248826
1.98857e-05
1.70521e-05
-0.000186897
-3.15017e-05
0.000226829
-0.000257433
-2.88401e-05
0.000244245
-0.000215405
-2.16161e-05
0.000242985
-0.000221369
0.000201657
-0.000250786
-0.00027364
-0.000232905
-2.55081e-05
0.000258413
0.000241234
2.98318e-05
-0.000236798
-1.44477e-05
0.000251245
-2.18821e-05
-0.000224967
-0.000239345
6.28042e-05
0.000259004
-0.000229718
4.75106e-05
-0.000249901
-3.43393e-05
0.000257693
-0.000223354
0.000205675
-0.000240014
0.000261689
-1.1956e-05
-6.06764e-05
-0.000229572
-0.000238673
-1.26e-05
0.000251273
0.000247109
5.3175e-05
0.000212448
-0.000265623
-0.000261213
0.000177353
-0.000231757
5.44042e-05
6.59928e-05
0.000138847
0.000259457
-0.000240915
-2.47224e-05
-0.000265385
0.000227165
3.82201e-05
-2.87813e-05
-0.000222158
0.00025094
-0.000255445
0.000264161
0.000234501
3.61761e-05
2.18821e-05
0.000234087
-0.000307217
0.000151089
0.000156129
0.000190554
-5.96234e-05
0.000254045
-0.000115192
2.56901e-05
0.000217446
-0.000243136
-0.000252981
0.000288095
8.57942e-06
0.000257377
-0.000245953
0.000208937
3.70161e-05
0.000254832
0.000260905
-1.17597e-05
-0.000246815
-2.02161e-05
-0.000263019
2.0724e-05
-0.000269215
2.24001e-05
2.79601e-05
0.000220024
-0.000247984
0.000242481
-0.000274597
1.32721e-05
0.000254353
-1.0948e-05
1.2348e-05
-0.000249005
-0.000263604
0.000127403
-0.000233135
-2.62109e-05
-0.000252113
0.000252113
0.000259782
-0.000144217
-1.34663e-05
-0.000275636
0.000287788
0.000294533
0.000258749
-0.000135913
0.000224113
2.39205e-05
0.00023468
8.36344e-05
-0.000364724
3.7648e-05
0.000258962
1.76373e-05
-0.000248843
-3.00917e-05
0.000207453
-3.01001e-05
0.000259701
2.95429e-05
0.000218353
-0.000247896
-3.05014e-05
-4.09782e-05
-0.000217818
0.000258797
-0.000233423
-2.14173e-05
3.62686e-05
-0.000202793
0.000151088
-3.30877e-05
0.000221671
-0.000255943
-0.000279543
-7.0729e-06
0.00028531
-0.000186253
0.000155389
0.000166349
8.16763e-05
1.11564e-05
-0.000291398
0.000235075
2.59446e-05
-0.000261019
-0.000209564
-2.08739e-06
0.000232743
-0.000264287
3.15449e-05
-8.42803e-06
-0.000217029
0.000225457
-0.000178651
0.000204663
-0.000249985
-3.46025e-05
0.000256274
0.000218076
-0.000252679
-0.000246289
0.000272245
-2.59561e-05
0.000253547
2.78321e-05
-0.000232062
-2.95821e-05
-0.000261605
0.000242509
1.90961e-05
-1.59881e-05
0.000212462
-0.000250254
-0.000267233
2.09441e-05
-2.12801e-05
-0.000245953
-3.61481e-05
0.00024861
-0.000256705
2.02721e-05
0.00022082
-0.000256968
0.000224925
-0.000238701
2.66845e-06
2.80002e-06
0.000181413
-0.000184213
0.000255294
0.000234529
2.67681e-05
-2.62361e-05
0.000245001
-0.000218765
3.36001e-05
0.000216609
-0.000250209
0.000244861
2.73841e-05
0.000306545
-0.000143949
-0.000162597
1.7164e-05
0.000234221
-0.000251385
0.000271013
-0.000113568
0.000225569
-0.000256677
-0.000241168
0.000104861
-0.000265469
7.16803e-06
-0.000241635
-2.75801e-05
-0.000241361
-2.48081e-05
0.000256627
7.78403e-07
-7.67483e-05
0.000243097
-1.1452e-05
-0.000215601
0.000224281
-8.68003e-06
0.000255193
-7.68883e-05
3.27554e-05
-0.000188476
0.000156734
-0.000265245
-1.40001e-07
-4.14962e-05
3.48748e-05
0.00016844
-0.000203723
0.000190161
-0.000156684
0.000257041
-7.05603e-06
0.000251151
-0.000218277
1.98696e-05
-2.1128e-05
0.000293119
-9.53509e-05
-0.000192519
-1.42801e-05
-0.000191913
0.000206193
0.000258665
-1.53553e-05
-0.00024331
1.98101e-05
0.000238855
-0.000252925
1.69681e-05
2.99614e-05
-0.000209202
0.000178717
1.36921e-05
0.000247997
-0.000180065
0.000208428
-1.95189e-05
0.000248711
1.78382e-05
0.000226839
-0.000242004
-4.17202e-06
-2.49389e-05
0.000265108
-0.000231955
-3.14693e-05
0.000290137
-0.000278093
-1.18716e-05
1.63717e-05
-0.000237659
0.000221288
-0.00010514
0.000226885
-1.9264e-05
-0.000232989
0.000252253
2.52001e-05
-2.79441e-05
2.69165e-05
0.000235425
-0.000254689
0.000238891
1.97345e-05
2.15601e-06
0.000231617
-0.000233773
-0.000235867
-1.51787e-05
0.000251046
-0.000162177
-0.000144145
0.000209178
-0.000250156
-0.000166452
0.000241924
1.90317e-05
0.000246345
-4.13534e-05
0.000250531
0.000214498
-0.000255851
0.000314697
-0.000313503
1.39161e-05
0.000237469
-0.000251385
-0.000237105
-1.57641e-05
0.000252869
4.20842e-05
-0.000286413
-3.75872e-05
0.000252483
2.62921e-05
1.58201e-05
0.000236489
-0.000252309
2.43321e-05
3.78113e-05
0.000143727
-0.000181135
0.000249294
-0.000219751
2.83277e-05
-0.000261633
4.36802e-06
1.8844e-05
0.000233745
-0.000252589
-0.000250987
-0.000266673
3.07441e-05
0.000252141
-0.000236741
-1.54001e-05
1.2264e-05
0.000239877
-0.000252729
1.0024e-05
0.000255697
2.23721e-05
0.000255557
-9.24226e-06
0.000291678
-0.000283919
-4.74377e-05
0.000247437
-0.000235621
0.000257601
-1.99361e-05
0.000132115
0.000122299
-0.000250767
0.000248486
3.03493e-05
0.000226759
-0.000258662
3.71393e-05
0.000248137
-0.000235565
-1.38321e-05
0.000251273
-0.000239093
-1.31321e-05
0.000252225
-2.91201e-05
-0.000257265
2.56481e-05
0.000231617
-0.000228005
-2.92601e-05
0.000259765
-0.000233571
-2.61941e-05
0.000258721
-0.000235761
-1.48121e-05
0.00029927
8.31187e-07
-0.000303851
0.000249649
-0.000232485
-1.85921e-05
0.00027243
-0.000231303
-4.11266e-05
0.00023247
-9.50936e-05
-0.000266897
2.56761e-05
0.000241221
-3.48881e-05
-0.000232009
-0.000266393
2.51161e-05
0.000241277
8.03603e-06
-0.000247129
0.000239093
-3.45241e-05
-0.000231869
-0.000259401
2.93189e-05
-0.000266281
2.43881e-05
0.000241893
-0.000251469
1.33001e-05
-0.000234129
-1.29277e-05
0.000247056
-3.34041e-05
-0.000232877
-0.000165762
-0.000258133
2.94001e-05
0.000228733
0.000322795
-0.000322604
-0.000195805
0.000209049
-3.29281e-05
-0.000225205
0.000209208
-0.000301979
9.03935e-05
0.000252813
-1.55681e-05
-0.000301953
1.76961e-05
0.000285327
-0.000280715
-4.57008e-06
-0.000257125
0.000231617
2.55081e-05
0.0001762
2.91098e-05
-0.000200599
-0.000266953
2.81681e-05
0.000238785
-0.000227361
-2.97641e-05
-3.67361e-05
-0.000230217
0.000243937
0.000261157
-1.86481e-05
-0.000247493
5.04002e-06
0.000242453
-0.000258679
-8.87381e-06
0.000292185
-0.000284252
-2.25401e-05
-0.000230273
0.000252813
-0.000230609
-0.000234165
0.000253009
0.000263005
1.45181e-05
-0.000248647
1.36081e-05
0.000164331
0.000235789
1.54e-05
-0.000251189
-0.000191639
0.000150251
0.000236738
1.31517e-05
-0.00024989
-0.00025833
2.66093e-05
0.000231721
-1.09228e-05
0.000247661
5.74002e-06
0.000246877
-3.19817e-05
-0.000226348
0.000229199
-0.000251415
1.86184e-05
0.000228024
-0.000226666
0.000254944
0.000237685
1.98521e-05
-0.000257537
-1.24236e-05
0.000250108
0.000246636
1.50389e-05
-0.000235593
-2.11121e-05
0.00024448
2.18905e-05
3.338e-05
-0.00020038
-0.000253317
2.03281e-05
-0.000182869
0.000295177
-0.000154229
0.000176316
-3.54936e-05
1.96682e-05
-0.000216487
0.000196325
-0.000190231
0.000259149
-0.000239236
-1.99137e-05
0.000245617
-0.000237581
-0.000237385
0.000225933
1.79621e-05
0.000229598
-0.00024756
0.000234977
-0.000257517
0.000242117
1.77241e-05
-0.000224975
0.00024443
-1.94545e-05
1.61001e-05
-0.000241075
-7.00003e-06
0.000260989
-0.000226997
-2.96521e-05
0.000256649
-0.000174497
0.000160217
-1.74105e-05
2.8476e-05
-0.000255473
2.12526e-05
-0.000251525
4.28402e-06
-0.000275401
0.000134205
-0.000257789
2.37889e-05
0.000234
0.000238197
1.32441e-05
-3.06013e-05
-0.000227187
-3.40615e-05
-0.000300024
8.049e-06
-0.000239492
0.000232536
0.000254969
-0.000233465
-2.15041e-05
-0.000222794
0.000233511
-0.000183727
-6.97746e-06
0.000203004
0.000143399
0.000155383
4.61202e-06
0.00028031
0.000248683
-0.000234165
9.80004e-06
0.000229041
1.88441e-05
0.00022852
-0.000247364
-0.000231253
0.000253625
-2.23721e-05
-0.000258301
0.000230077
2.82241e-05
-2.64041e-05
-0.000231897
0.00030573
-0.000306685
0.000263864
1.95805e-05
0.000231841
-0.000251421
0.000286048
-6.62197e-07
-0.000256873
0.000256873
-0.000239353
0.000226426
-0.000138433
-6.31629e-05
-2.99378e-06
0.000287578
-0.000285254
-0.000289542
0.00028616
0.000287499
-0.000276778
0.000256509
-0.000234248
-2.22601e-05
2.41076e-05
-0.000250265
0.000235818
1.56799e-05
2.26609e-05
-0.000251049
0.000238449
-1.03958e-05
0.000294228
-0.000283756
0.000263481
-1.96001e-05
0.000254224
-0.000235464
-1.87601e-05
1.12812e-05
-0.000243808
0.000232527
1.6882e-05
-0.000308551
0.000299372
-1.45881e-05
0.000233465
-0.000218877
0.000200122
-0.000289598
0.000280023
2.09448e-05
0.000232317
-0.000253261
0.00025102
1.36361e-05
0.000227725
-0.000241361
-0.000226493
0.000240129
1.07156e-05
0.000244749
-0.000255465
0.000267429
-0.000239289
-2.81401e-05
1.97772e-05
-2.24843e-05
0.000253597
-0.000231112
6.71245e-06
0.000289423
1.85937e-06
-0.000314799
-0.000255249
0.000232765
-0.000242481
0.000243657
8.45603e-06
-0.0002264
0.000242772
-0.000222877
0.000243823
0.000236657
-0.000213361
-7.45923e-05
0.000257937
-2.25121e-05
2.95392e-05
-0.00019679
0.000165419
-0.000244355
0.000257293
-0.000219535
0.00024982
0.000243411
1.92865e-05
-0.000262697
0.000236019
2.31309e-05
-0.000292296
0.000278409
0.000237777
2.016e-05
0.000237945
-0.000257069
1.91241e-05
-0.000222494
0.000247459
0.000257741
-1.9964e-05
-0.000167538
-9.55408e-06
0.000293195
-0.000285693
-0.000142724
-0.000266415
0.000159993
0.000106423
-0.000236685
0.000259925
-2.32401e-05
-0.000258699
0.000241826
1.68729e-05
-0.000158096
0.00015442
-0.000233437
0.000253849
-2.04121e-05
-0.000237479
0.000219614
-9.69084e-06
0.000253101
-1.83401e-05
-2.06081e-05
-0.000231925
0.000252533
-0.000263705
2.78041e-05
0.000235901
-0.000249229
0.000220109
-0.000201153
-8.52603e-05
-0.000261045
0.000217225
0.000231785
-0.000252393
-0.00020315
1.85042e-05
-2.22321e-05
0.000251133
-0.000228901
-8.80603e-05
0.000239233
-0.000231749
-1.91899e-05
0.000250938
-0.00022987
-3.59801e-05
-0.000227725
-0.000178151
2.05297e-05
0.000232287
-0.000254576
2.22856e-05
-0.000201055
-0.000228072
-0.000186454
-2.29789e-05
0.000243528
0.000254465
-2.07201e-05
0.000252869
6.12205e-05
-0.000300823
-0.000247213
-0.000249568
-2.24001e-07
-0.000244469
0.000231477
-0.000238505
0.000226941
-0.000215375
-2.03426e-05
0.00023986
0.000197569
1.56521e-05
-0.000213221
-1.59922e-05
-0.000305509
0.000318454
1.83597e-05
-1.97009e-05
-0.000233135
0.000252835
0.000253345
-1.71361e-05
-0.000236209
-1.95441e-05
-0.000232401
0.000251945
2.03561e-05
0.000232989
0.000216385
-2.46121e-05
-0.000191773
1.14526e-05
0.000284845
-0.000296286
-0.000254129
0.00011844
-0.000231589
-1.99081e-05
0.000251497
0.000229454
-5.27253e-05
-0.000232118
-1.90177e-05
0.000251136
0.000255837
-2.19801e-05
-0.000233857
-0.000257296
0.000109612
0.000234529
1.70521e-05
-0.000251581
0.000277448
1.25765e-05
0.000232429
-0.000251973
1.3647e-05
-0.000291662
0.000233512
1.84916e-05
-0.000252004
1.57081e-05
-1.13257e-05
0.000301135
-0.000289719
-0.000249274
0.00023351
-0.000233213
0.000256761
-0.000232653
-2.41081e-05
0.000249741
-1.62291e-05
-1.52601e-05
0.000250041
-1.55121e-05
0.000296507
-0.000284931