/*--------------------------------*- C++ -*----------------------------------*\
  =========                 |
  \\      /  F ield         | OpenFOAM: The Open Source CFD Toolbox
   \\    /   O peration     | Website:  https://openfoam.org
    \\  /    A nd           | Version:  12
     \\/     M anipulation  |
\*---------------------------------------------------------------------------*/
FoamFile
{
    format      ascii;
    class       volScalarField;
    location    "9.1";
    object      rho;
}
// * * * * * * * * * * * * * * * * * * * * * * * * * * * * * * * * * * * * * //

dimensions      [1 -3 0 0 0 0 0];

internalField   nonuniform List<scalar> 
9801
(
1.06967
1.07548
1.07845
1.07996
1.08021
1.0827
1.08635
1.09277
1.10394
1.11323
1.11929
1.12386
1.12784
1.13125
1.13223
1.1319
1.13438
1.13834
1.14458
1.15643
1.16765
1.17458
1.17964
1.18405
1.18767
1.1874
1.1862
1.18863
1.1928
1.19925
1.21214
1.2249
1.23268
1.23825
1.24289
1.24643
1.2443
1.2429
1.24579
1.25065
1.25808
1.27282
1.28663
1.29506
1.30076
1.30608
1.3083
1.30372
1.3038
1.30779
1.31334
1.32355
1.34122
1.35537
1.36373
1.36977
1.37538
1.37269
1.36654
1.36873
1.37489
1.38251
1.39932
1.421
1.43468
1.44334
1.45067
1.45434
1.44491
1.4387
1.4431
1.45183
1.46637
1.49518
1.5186
1.53168
1.54173
1.55064
1.54686
1.53044
1.52919
1.5394
1.5568
1.59413
1.6321
1.65569
1.67272
1.68869
1.6928
1.66904
1.65823
1.67597
1.70968
1.78117
1.86155
1.9387
2.01143
2.77766
7.41959
1.07566
1.08172
1.08429
1.08569
1.0862
1.08849
1.09174
1.09755
1.10943
1.11942
1.12547
1.12987
1.13361
1.13678
1.13775
1.13769
1.13996
1.14347
1.14902
1.16135
1.17315
1.18014
1.18507
1.18919
1.19249
1.19238
1.19149
1.1938
1.19761
1.20341
1.21664
1.22988
1.23766
1.24303
1.24746
1.25066
1.24878
1.24758
1.25037
1.25478
1.26153
1.27675
1.29119
1.2996
1.3053
1.31036
1.3124
1.30813
1.30765
1.31115
1.31619
1.32542
1.3439
1.35897
1.3676
1.37384
1.37927
1.37737
1.37103
1.37229
1.37756
1.38411
1.39989
1.42233
1.43667
1.44571
1.45315
1.45779
1.44982
1.44268
1.44587
1.45367
1.46597
1.49307
1.51804
1.53269
1.54327
1.55246
1.55086
1.53433
1.53113
1.54037
1.55384
1.58457
1.62323
1.64897
1.6675
1.68487
1.69459
1.67618
1.66167
1.67438
1.7038
1.75566
1.8183
1.87581
1.92224
2.67389
7.43561
1.07465
1.08086
1.08342
1.08499
1.08553
1.08767
1.09077
1.09602
1.10796
1.11843
1.12452
1.12894
1.13275
1.13605
1.13725
1.13711
1.13911
1.14243
1.14745
1.15954
1.17171
1.17874
1.18366
1.18778
1.19124
1.19151
1.19076
1.19295
1.19663
1.2019
1.21457
1.22798
1.23575
1.24108
1.24556
1.24904
1.24764
1.24646
1.24917
1.25348
1.25968
1.27439
1.28911
1.29747
1.30313
1.30815
1.31079
1.30662
1.30524
1.30855
1.31363
1.32211
1.34051
1.35648
1.36533
1.37165
1.37725
1.3771
1.3702
1.36966
1.37417
1.38019
1.39303
1.41613
1.43255
1.44226
1.44987
1.45564
1.45023
1.44109
1.44252
1.44959
1.45875
1.48099
1.50972
1.52663
1.53734
1.5465
1.54858
1.53323
1.52596
1.53291
1.5449
1.56617
1.60731
1.64003
1.66005
1.67669
1.68909
1.67595
1.6572
1.66262
1.68796
1.7277
1.78501
1.83705
1.86814
2.63148
7.3526
1.07488
1.08111
1.0835
1.08482
1.08522
1.08722
1.09026
1.09502
1.10672
1.11807
1.12447
1.12892
1.13271
1.13595
1.13687
1.13642
1.13823
1.14148
1.14605
1.15742
1.17027
1.17766
1.18264
1.1868
1.19034
1.19074
1.1898
1.19175
1.19527
1.19998
1.21148
1.22555
1.23381
1.23926
1.24384
1.24758
1.2466
1.24511
1.24751
1.25158
1.25686
1.2699
1.28556
1.29455
1.3004
1.30544
1.30872
1.30498
1.30262
1.30566
1.31069
1.31776
1.33469
1.35224
1.36173
1.36809
1.37361
1.37487
1.36717
1.36477
1.36895
1.37509
1.38525
1.40794
1.42732
1.43765
1.44505
1.45111
1.44863
1.43668
1.43516
1.44162
1.45004
1.46675
1.49721
1.51773
1.52912
1.5383
1.54444
1.53327
1.51936
1.52177
1.53319
1.5479
1.58025
1.61787
1.64161
1.65886
1.67453
1.67334
1.65287
1.64648
1.66358
1.69308
1.73709
1.78631
1.80999
2.62319
7.29702
1.07443
1.0807
1.08302
1.08407
1.08425
1.08618
1.08922
1.09369
1.105
1.11706
1.12374
1.12817
1.13184
1.13482
1.13533
1.13477
1.13655
1.13976
1.14401
1.15452
1.16807
1.17596
1.18095
1.18501
1.18843
1.18881
1.18755
1.18924
1.19263
1.19696
1.20709
1.22208
1.23121
1.23679
1.24132
1.24504
1.24449
1.24222
1.24392
1.24759
1.25228
1.26321
1.28016
1.29058
1.29682
1.30188
1.30573
1.30326
1.29954
1.30142
1.30586
1.31154
1.32535
1.34464
1.35574
1.36252
1.3681
1.37137
1.36531
1.36039
1.36327
1.36899
1.37687
1.39574
1.41771
1.42967
1.43736
1.444
1.44612
1.43489
1.42845
1.43286
1.44076
1.45241
1.47966
1.5063
1.52045
1.53018
1.53873
1.53551
1.51756
1.51192
1.52024
1.53307
1.55508
1.59346
1.62488
1.6457
1.66311
1.67366
1.65939
1.64496
1.64671
1.66728
1.70001
1.7432
1.76563
2.62508
7.27381
1.07392
1.08022
1.0825
1.08339
1.08349
1.08545
1.08854
1.09286
1.10365
1.11602
1.12283
1.12719
1.13072
1.13364
1.1342
1.13357
1.13525
1.13842
1.14241
1.15184
1.16583
1.17428
1.17937
1.18342
1.18692
1.18764
1.18577
1.18694
1.19022
1.19442
1.20336
1.21874
1.22882
1.23467
1.23921
1.24315
1.24352
1.23987
1.24029
1.24369
1.24839
1.25795
1.27536
1.28732
1.2941
1.29929
1.30374
1.30321
1.29688
1.29638
1.30016
1.30569
1.31713
1.3374
1.35091
1.35853
1.36447
1.36954
1.36712
1.35863
1.3578
1.36243
1.36914
1.3833
1.40801
1.42403
1.43272
1.43966
1.44515
1.43779
1.42617
1.42619
1.43292
1.44201
1.46179
1.49375
1.51447
1.52592
1.53512
1.53878
1.523
1.50988
1.51234
1.52345
1.53827
1.56841
1.60459
1.63038
1.64998
1.66766
1.6712
1.65403
1.64412
1.65107
1.6701
1.70582
1.73107
2.63346
7.27154
1.07358
1.07992
1.08226
1.08322
1.08315
1.08505
1.08815
1.09223
1.10224
1.11474
1.12181
1.12627
1.12989
1.133
1.13396
1.13293
1.13423
1.13726
1.14113
1.14967
1.1638
1.17283
1.17811
1.18228
1.18596
1.18731
1.18471
1.18494
1.18799
1.19218
1.20049
1.21604
1.22705
1.23312
1.23777
1.2419
1.24353
1.23917
1.23755
1.24056
1.24517
1.25387
1.27147
1.28505
1.29217
1.29734
1.30196
1.3036
1.29697
1.29334
1.29636
1.30157
1.31084
1.33108
1.34801
1.35664
1.36263
1.36812
1.36943
1.35986
1.35504
1.35795
1.36402
1.37366
1.39732
1.41996
1.43127
1.43862
1.44499
1.44268
1.42859
1.42352
1.4279
1.43593
1.44798
1.47681
1.50661
1.52268
1.53294
1.54145
1.53728
1.51785
1.51107
1.51709
1.52895
1.54841
1.5827
1.61426
1.63758
1.6567
1.67245
1.66954
1.65325
1.64544
1.65233
1.67348
1.7002
2.6366
7.27602
1.07378
1.08023
1.08275
1.08406
1.08373
1.0853
1.08826
1.09208
1.101
1.11359
1.12126
1.12611
1.13
1.13338
1.13515
1.1336
1.13397
1.13672
1.14046
1.14798
1.16217
1.17219
1.17789
1.18224
1.18603
1.18834
1.18565
1.18439
1.18693
1.19096
1.19805
1.21348
1.22609
1.23281
1.23764
1.24183
1.24465
1.24094
1.23753
1.2395
1.24383
1.25055
1.26703
1.28328
1.29158
1.29697
1.3016
1.30469
1.29959
1.29407
1.29569
1.3005
1.30695
1.32377
1.3453
1.35662
1.36295
1.36829
1.37146
1.36391
1.35548
1.35639
1.36201
1.36906
1.38605
1.41412
1.43128
1.43988
1.44643
1.449
1.43676
1.42532
1.42575
1.43262
1.44123
1.45892
1.49247
1.51752
1.53127
1.54153
1.54848
1.53664
1.51739
1.51528
1.52406
1.53708
1.56143
1.59513
1.62232
1.6436
1.66249
1.67413
1.66887
1.65233
1.64271
1.64848
1.66554
2.63349
7.28342
1.07472
1.08144
1.08418
1.08603
1.08545
1.08642
1.08906
1.09249
1.10005
1.11314
1.12184
1.12694
1.13094
1.1345
1.13705
1.13564
1.13499
1.13727
1.14079
1.14685
1.1607
1.17236
1.17859
1.18303
1.18693
1.19006
1.18833
1.18579
1.18756
1.19126
1.19655
1.21018
1.22539
1.23342
1.23847
1.24278
1.24643
1.2445
1.23962
1.24043
1.24414
1.2491
1.26126
1.28066
1.29194
1.29802
1.30289
1.30706
1.30459
1.29738
1.29695
1.30076
1.30606
1.31616
1.3391
1.35593
1.36383
1.36935
1.37398
1.37069
1.35995
1.35773
1.36207
1.3683
1.3775
1.40238
1.42781
1.44009
1.44735
1.45325
1.45046
1.4343
1.42749
1.43067
1.43854
1.44852
1.47357
1.50736
1.52828
1.54058
1.55044
1.55342
1.53634
1.52103
1.52222
1.53193
1.54661
1.57501
1.60669
1.63073
1.64971
1.66671
1.67307
1.66558
1.64769
1.63323
1.62991
2.61677
7.29329
1.07647
1.08351
1.08641
1.08874
1.08808
1.08833
1.09054
1.09366
1.09952
1.11278
1.12317
1.12876
1.13285
1.13644
1.13941
1.13874
1.13726
1.13897
1.14214
1.14671
1.15892
1.17279
1.18018
1.18491
1.18891
1.19246
1.19218
1.18873
1.18958
1.1927
1.19679
1.20656
1.22395
1.23468
1.2404
1.24486
1.24892
1.24927
1.24369
1.24259
1.24528
1.24951
1.25697
1.276
1.29239
1.30022
1.30539
1.31005
1.311
1.30335
1.29965
1.30141
1.30574
1.31182
1.32929
1.35299
1.36511
1.37175
1.37744
1.37979
1.36996
1.3624
1.36297
1.36716
1.37348
1.38781
1.41783
1.43886
1.44911
1.45659
1.46195
1.45154
1.43481
1.43209
1.43725
1.44543
1.45767
1.48808
1.51899
1.53658
1.54813
1.55786
1.55869
1.53912
1.52613
1.52939
1.53984
1.55689
1.58725
1.6157
1.63687
1.65399
1.66781
1.66997
1.65927
1.6368
1.61033
2.58329
7.30529
1.07893
1.08632
1.0893
1.09196
1.09139
1.09073
1.09258
1.09558
1.10011
1.11229
1.12468
1.13116
1.13544
1.13912
1.1424
1.14269
1.14039
1.14136
1.1442
1.14788
1.15703
1.17275
1.18227
1.1875
1.19166
1.19545
1.19685
1.19301
1.19215
1.19458
1.1982
1.2043
1.22078
1.23566
1.24287
1.24761
1.25183
1.25433
1.24937
1.24534
1.24693
1.25069
1.25582
1.26985
1.29091
1.30221
1.30826
1.31304
1.31652
1.31107
1.30288
1.30239
1.30564
1.31085
1.32106
1.34614
1.36596
1.37493
1.38107
1.38602
1.38197
1.36842
1.36357
1.36586
1.37148
1.3796
1.4024
1.43347
1.45017
1.45858
1.46554
1.46794
1.45257
1.4384
1.43765
1.44298
1.4512
1.46775
1.5019
1.52975
1.54568
1.55687
1.56526
1.56161
1.54206
1.53175
1.53587
1.54649
1.56645
1.59776
1.62365
1.64197
1.65626
1.66499
1.66465
1.64713
1.61069
2.54317
7.31881
1.08178
1.08957
1.09254
1.0953
1.09499
1.0936
1.09508
1.09796
1.10169
1.11157
1.1259
1.13389
1.13852
1.14231
1.14579
1.14713
1.14429
1.14406
1.14647
1.14985
1.156
1.17157
1.18431
1.19059
1.19488
1.19873
1.20143
1.19823
1.19507
1.19656
1.19994
1.20439
1.21681
1.23542
1.24532
1.25067
1.25499
1.25863
1.25611
1.24937
1.24919
1.25247
1.25685
1.26503
1.28598
1.303
1.31071
1.31579
1.32024
1.3197
1.30925
1.30472
1.3071
1.31185
1.31832
1.33609
1.36278
1.3771
1.38432
1.38981
1.39248
1.38042
1.36781
1.36716
1.37189
1.37851
1.38928
1.41841
1.4459
1.45896
1.46681
1.47398
1.47304
1.45338
1.44121
1.4428
1.44982
1.4589
1.47922
1.51348
1.53786
1.55223
1.56331
1.57128
1.56596
1.54558
1.53637
1.5409
1.55161
1.57404
1.60551
1.62897
1.64484
1.65597
1.66121
1.65527
1.6261
2.51143
7.33162
1.08462
1.09285
1.09578
1.09861
1.09895
1.09708
1.09795
1.10056
1.10387
1.11096
1.12618
1.13666
1.14194
1.14589
1.14939
1.15156
1.14874
1.14692
1.14882
1.15213
1.15659
1.16927
1.18538
1.19351
1.19815
1.20202
1.20538
1.20405
1.19884
1.1989
1.2019
1.20589
1.21368
1.23263
1.24702
1.2537
1.25819
1.26224
1.26314
1.25576
1.25235
1.25448
1.2583
1.26336
1.278
1.30063
1.31234
1.3184
1.3233
1.32685
1.31983
1.3102
1.31028
1.31417
1.31906
1.32718
1.35122
1.37453
1.38456
1.39072
1.39643
1.39659
1.38152
1.3726
1.37383
1.37853
1.38524
1.39969
1.43192
1.45579
1.46701
1.47447
1.48064
1.47663
1.45712
1.44766
1.44972
1.45632
1.46595
1.49022
1.52372
1.54573
1.55927
1.5701
1.57628
1.56847
1.54854
1.53991
1.54396
1.55453
1.57945
1.61097
1.63231
1.64512
1.65274
1.65404
1.64318
2.49888
7.34266
1.08702
1.09598
1.09898
1.10198
1.10326
1.10117
1.10101
1.10328
1.10648
1.11148
1.1253
1.13887
1.14545
1.14939
1.1527
1.1553
1.1535
1.15031
1.15158
1.15474
1.15856
1.16687
1.18429
1.19571
1.20125
1.20522
1.2088
1.20972
1.20399
1.20182
1.2042
1.20794
1.21282
1.22716
1.24666
1.25621
1.26138
1.26556
1.26881
1.26428
1.25674
1.25643
1.25949
1.26383
1.27162
1.2933
1.31276
1.32139
1.32673
1.33148
1.3314
1.3198
1.31374
1.31485
1.31829
1.32352
1.33603
1.3649
1.38483
1.39387
1.4003
1.40571
1.40033
1.38285
1.37622
1.37847
1.38357
1.39044
1.40853
1.44225
1.46354
1.47406
1.48214
1.48871
1.4816
1.46032
1.45185
1.45515
1.46265
1.47364
1.50068
1.53223
1.55194
1.56478
1.57535
1.58104
1.5716
1.55053
1.54188
1.5454
1.55563
1.58211
1.6132
1.63224
1.64245
1.64557
1.65225
2.50715
7.35218
1.08875
1.09896
1.1022
1.10535
1.10751
1.10581
1.10443
1.10635
1.1095
1.1134
1.12366
1.13934
1.14777
1.15221
1.15561
1.15863
1.15894
1.15516
1.15498
1.15762
1.16105
1.16584
1.18028
1.19638
1.20386
1.20825
1.212
1.21472
1.21085
1.20583
1.20679
1.21009
1.21409
1.22198
1.24212
1.25743
1.26422
1.26869
1.27272
1.27308
1.26384
1.25926
1.26123
1.26513
1.26999
1.28291
1.30822
1.32332
1.33022
1.335
1.33889
1.33296
1.31952
1.31565
1.31814
1.32273
1.32921
1.34869
1.3791
1.39559
1.40333
1.40896
1.41288
1.403
1.38541
1.38025
1.38268
1.38801
1.39584
1.41985
1.45484
1.474
1.48306
1.48999
1.49433
1.48436
1.46459
1.45773
1.46109
1.46838
1.4811
1.51117
1.54091
1.55858
1.57025
1.58012
1.58472
1.57409
1.55231
1.5428
1.54543
1.55493
1.58246
1.61261
1.62967
1.63511
1.65049
2.53433
7.36224
1.08981
1.10181
1.10531
1.10863
1.11141
1.11122
1.10886
1.10999
1.1128
1.11607
1.12191
1.13683
1.14879
1.15456
1.15861
1.16219
1.16473
1.16178
1.15896
1.16029
1.16314
1.16676
1.17566
1.19432
1.20587
1.2113
1.21518
1.21871
1.21858
1.21183
1.20986
1.21216
1.21574
1.22024
1.23378
1.25539
1.26641
1.27188
1.27608
1.27953
1.27439
1.2648
1.26364
1.26643
1.27056
1.27668
1.2962
1.32088
1.33249
1.33877
1.34341
1.34508
1.33257
1.32082
1.32043
1.32445
1.3295
1.33677
1.36088
1.3897
1.40296
1.41011
1.41646
1.4196
1.40511
1.38783
1.3849
1.3893
1.39568
1.40418
1.43063
1.46313
1.47932
1.48818
1.49579
1.50088
1.48934
1.46909
1.46281
1.46685
1.47468
1.48934
1.52009
1.5473
1.56363
1.57514
1.58467
1.58938
1.57698
1.55303
1.54227
1.54405
1.55277
1.58076
1.60935
1.62201
1.64177
2.57241
7.37338
1.08998
1.10427
1.10841
1.11199
1.11516
1.11704
1.11463
1.11393
1.11574
1.11836
1.12175
1.13238
1.1487
1.15735
1.16203
1.16587
1.16934
1.16907
1.16356
1.16272
1.16516
1.16858
1.17358
1.18885
1.20606
1.2139
1.21839
1.22228
1.22525
1.2206
1.2142
1.21438
1.21718
1.22088
1.2275
1.24775
1.26667
1.27472
1.27953
1.28369
1.28489
1.27472
1.26725
1.26799
1.27138
1.27589
1.28458
1.30973
1.33133
1.34036
1.34593
1.35066
1.35037
1.33568
1.32622
1.32629
1.32932
1.33436
1.34428
1.37305
1.39919
1.41089
1.41741
1.42273
1.4248
1.40972
1.3947
1.39264
1.39554
1.40075
1.41065
1.44061
1.47158
1.48702
1.49573
1.50273
1.50601
1.49424
1.47528
1.46889
1.47195
1.47879
1.49478
1.52784
1.55471
1.57006
1.5804
1.58885
1.59234
1.57887
1.55332
1.54064
1.54126
1.54941
1.57811
1.60114
1.62626
2.61313
7.38308
1.08908
1.10605
1.11166
1.11562
1.11898
1.12202
1.12118
1.11734
1.11741
1.11978
1.12309
1.12976
1.14667
1.15962
1.16562
1.16946
1.17288
1.17492
1.16991
1.16605
1.16751
1.1706
1.17422
1.18283
1.20267
1.21587
1.22191
1.22598
1.22977
1.22992
1.22114
1.21708
1.21876
1.22223
1.22655
1.23801
1.26191
1.27654
1.28306
1.28731
1.29121
1.28786
1.27522
1.2709
1.27287
1.27649
1.2813
1.29372
1.32205
1.34068
1.3488
1.35451
1.35926
1.35472
1.33697
1.32889
1.33062
1.33508
1.3405
1.35156
1.38179
1.4064
1.41763
1.42514
1.43147
1.43175
1.41362
1.39804
1.39615
1.40078
1.40731
1.41845
1.44894
1.47778
1.49215
1.50103
1.5089
1.51299
1.50004
1.4791
1.47204
1.47548
1.48329
1.50145
1.53434
1.55948
1.57383
1.58395
1.59201
1.59507
1.58093
1.55336
1.53797
1.53689
1.54546
1.57089
1.60323
2.6461
7.38778
1.08782
1.1068
1.11497
1.11925
1.12265
1.12577
1.12671
1.12176
1.12007
1.12218
1.12536
1.12975
1.1428
1.15993
1.16809
1.17242
1.1759
1.17903
1.17768
1.17125
1.17028
1.17259
1.17594
1.18058
1.19559
1.21552
1.22471
1.22948
1.23326
1.23622
1.23082
1.22172
1.22109
1.22422
1.22816
1.23332
1.25038
1.27394
1.28496
1.29066
1.29494
1.2979
1.28963
1.27726
1.27496
1.27738
1.28144
1.28707
1.30498
1.33404
1.34951
1.35648
1.36111
1.36489
1.35874
1.34171
1.3351
1.33612
1.33963
1.34507
1.3598
1.39337
1.41657
1.42625
1.43194
1.43664
1.4366
1.4193
1.40467
1.40287
1.40625
1.41213
1.42508
1.45841
1.48659
1.49983
1.50766
1.51412
1.51733
1.50526
1.48506
1.4777
1.47985
1.48619
1.50423
1.53801
1.56342
1.57764
1.58726
1.59446
1.59669
1.58269
1.55325
1.5337
1.53109
1.53723
1.57436
2.66377
7.39134
1.08747
1.10543
1.11722
1.12246
1.12591
1.129
1.13117
1.12776
1.12401
1.12524
1.12809
1.13145
1.13896
1.15687
1.16957
1.17529
1.17913
1.18263
1.18466
1.17872
1.17372
1.17487
1.17802
1.18176
1.18946
1.20996
1.22577
1.2324
1.2364
1.24006
1.2406
1.23089
1.22521
1.22659
1.22981
1.23366
1.24078
1.2631
1.28428
1.29349
1.29889
1.30309
1.30352
1.28965
1.27916
1.27964
1.28367
1.28811
1.29398
1.31485
1.343
1.35628
1.36312
1.36892
1.37299
1.36294
1.34407
1.3385
1.34162
1.34694
1.35263
1.36816
1.4012
1.42158
1.4306
1.43742
1.44366
1.44312
1.42422
1.40895
1.40739
1.41216
1.41907
1.4334
1.46605
1.49124
1.50347
1.5121
1.51995
1.52408
1.51097
1.48845
1.47952
1.48163
1.4884
1.50677
1.54071
1.56636
1.58047
1.58946
1.59549
1.5966
1.58326
1.55312
1.52992
1.5189
1.5413
2.65303
7.39663
1.08841
1.10191
1.11793
1.12522
1.12914
1.13242
1.13528
1.13439
1.12907
1.12846
1.13067
1.13368
1.13778
1.15083
1.16933
1.17821
1.18267
1.1862
1.18939
1.18741
1.17931
1.17785
1.18037
1.18387
1.18799
1.2004
1.22261
1.23431
1.23978
1.24358
1.24696
1.24336
1.23224
1.22923
1.23148
1.23515
1.23932
1.24957
1.27533
1.29329
1.30072
1.3057
1.30978
1.30794
1.29318
1.28563
1.28628
1.28882
1.29302
1.30061
1.32588
1.35266
1.36456
1.37054
1.37493
1.37837
1.36802
1.35104
1.34661
1.34804
1.35149
1.35733
1.37644
1.41037
1.42979
1.43824
1.44389
1.44923
1.44887
1.43093
1.41632
1.41443
1.41766
1.42335
1.43872
1.47331
1.49895
1.51094
1.51829
1.52467
1.5282
1.51579
1.4933
1.48374
1.48489
1.49075
1.50814
1.54177
1.56768
1.58159
1.5898
1.59473
1.59506
1.58273
1.55343
1.52245
1.5157
2.61448
7.40488
1.09048
1.09839
1.11598
1.12745
1.13253
1.13584
1.13876
1.14027
1.13545
1.13182
1.13315
1.13613
1.1395
1.1463
1.16475
1.17965
1.18596
1.18962
1.1929
1.19482
1.18822
1.18218
1.18293
1.18577
1.18927
1.19476
1.21265
1.23352
1.24269
1.24739
1.25106
1.25342
1.24488
1.23484
1.23414
1.23697
1.2406
1.24502
1.25885
1.28595
1.30157
1.3086
1.31374
1.3178
1.31219
1.29532
1.28869
1.29073
1.2947
1.29912
1.3073
1.33441
1.35966
1.37049
1.37731
1.38319
1.38602
1.37251
1.35447
1.34975
1.35282
1.35797
1.36413
1.38356
1.41598
1.43423
1.44341
1.45093
1.45694
1.45566
1.43657
1.42053
1.41797
1.42233
1.42899
1.44494
1.47823
1.50218
1.51378
1.52246
1.53027
1.53509
1.52276
1.49865
1.48706
1.48722
1.49205
1.50749
1.54091
1.56738
1.58136
1.58904
1.59302
1.59248
1.5816
1.54733
1.51388
2.55497
7.4167
1.09316
1.09802
1.11088
1.12753
1.13507
1.13887
1.14198
1.14479
1.14342
1.13734
1.1366
1.139
1.14219
1.14585
1.15668
1.17696
1.18798
1.193
1.19643
1.19973
1.19863
1.18929
1.18604
1.18804
1.19143
1.19509
1.20251
1.22452
1.24295
1.25064
1.25523
1.25896
1.25881
1.24658
1.23869
1.23903
1.24181
1.24568
1.25112
1.26935
1.29622
1.3096
1.31578
1.32013
1.32357
1.31698
1.30117
1.29559
1.2963
1.29906
1.30375
1.31487
1.34535
1.3693
1.37906
1.38423
1.38813
1.39067
1.37886
1.36202
1.35726
1.35851
1.36207
1.36854
1.39159
1.42586
1.44365
1.45139
1.45661
1.46155
1.46146
1.44397
1.42737
1.42377
1.42617
1.43141
1.44745
1.48336
1.5101
1.52271
1.53021
1.5367
1.54038
1.52875
1.50358
1.4893
1.48803
1.49229
1.50611
1.53922
1.56708
1.58112
1.5876
1.58984
1.5892
1.57421
1.54066
2.50532
7.43094
1.09631
1.09995
1.10581
1.12297
1.13634
1.14219
1.14569
1.14892
1.1511
1.14619
1.1413
1.14199
1.14439
1.14736
1.15192
1.1678
1.18741
1.19598
1.20036
1.20376
1.2065
1.20077
1.19181
1.19099
1.19333
1.19651
1.20048
1.21126
1.23613
1.25206
1.25886
1.26317
1.26659
1.26254
1.24775
1.24196
1.24402
1.24796
1.25192
1.25759
1.27834
1.30443
1.31648
1.32282
1.32814
1.33174
1.32147
1.30336
1.2983
1.30121
1.3059
1.31081
1.32226
1.35232
1.37411
1.38335
1.38993
1.39572
1.39826
1.38488
1.36599
1.36036
1.36343
1.3689
1.37633
1.39925
1.43075
1.44692
1.4553
1.46217
1.46814
1.46807
1.44976
1.43107
1.42651
1.4304
1.43711
1.45375
1.48824
1.51426
1.52694
1.53472
1.54112
1.54439
1.53338
1.50788
1.49168
1.48906
1.49238
1.50497
1.53739
1.56534
1.57884
1.58385
1.58597
1.58142
1.57464
2.48939
7.44557
1.09956
1.10204
1.10513
1.1153
1.13462
1.145
1.14973
1.15302
1.15614
1.15582
1.14785
1.14465
1.14627
1.14927
1.1526
1.15961
1.18024
1.19724
1.20407
1.20792
1.21129
1.21193
1.20186
1.19465
1.19528
1.19845
1.20212
1.20677
1.2213
1.24649
1.25984
1.26596
1.27027
1.27317
1.26614
1.25235
1.24868
1.25024
1.253
1.25696
1.26421
1.28836
1.3135
1.32446
1.32993
1.33353
1.33632
1.32654
1.31056
1.30639
1.30768
1.31059
1.31549
1.32918
1.36082
1.38244
1.39132
1.39618
1.40045
1.4039
1.39244
1.374
1.36851
1.36987
1.37353
1.38024
1.40443
1.43744
1.45433
1.46181
1.46671
1.47242
1.4748
1.45847
1.43938
1.43418
1.43582
1.44018
1.45408
1.48849
1.51637
1.52988
1.53744
1.54344
1.54754
1.53972
1.51431
1.4951
1.49037
1.49236
1.50186
1.53317
1.56166
1.57462
1.57976
1.5774
1.59199
2.50423
7.45685
1.10286
1.1045
1.10724
1.11184
1.12739
1.14524
1.15285
1.15662
1.15973
1.16235
1.15805
1.14991
1.1491
1.15155
1.15483
1.15868
1.16933
1.19207
1.20581
1.2117
1.21504
1.21827
1.21573
1.20359
1.19918
1.20105
1.20437
1.20789
1.21275
1.23026
1.25525
1.26741
1.27339
1.27784
1.28029
1.27043
1.25566
1.25232
1.25518
1.25915
1.26308
1.27055
1.29607
1.3199
1.32984
1.33591
1.34125
1.34403
1.33204
1.31451
1.30968
1.3125
1.31717
1.32227
1.33516
1.36558
1.38627
1.39563
1.40264
1.40834
1.41119
1.39862
1.37875
1.37169
1.37402
1.37925
1.38659
1.40916
1.43984
1.45644
1.46623
1.47448
1.48055
1.48202
1.46516
1.44343
1.43552
1.43724
1.44257
1.45526
1.48799
1.51776
1.53278
1.54123
1.54801
1.55254
1.54645
1.52012
1.4967
1.48893
1.49003
1.49793
1.52814
1.55667
1.5705
1.57127
1.59483
2.54221
7.46778
1.10725
1.10715
1.10954
1.11257
1.11982
1.1395
1.15397
1.16002
1.16345
1.1667
1.16805
1.15987
1.15386
1.15476
1.15755
1.16063
1.16461
1.17836
1.20155
1.21343
1.21912
1.22283
1.22566
1.21887
1.20688
1.20437
1.20622
1.20917
1.21302
1.21919
1.23965
1.26359
1.2745
1.27998
1.28419
1.28631
1.27613
1.2626
1.25959
1.26077
1.26342
1.26769
1.27753
1.30556
1.32843
1.33779
1.34262
1.34626
1.34939
1.33949
1.32296
1.31794
1.31868
1.32125
1.32612
1.34087
1.37377
1.39523
1.40366
1.40837
1.41257
1.41626
1.40642
1.387
1.37933
1.37984
1.38325
1.38951
1.41262
1.44721
1.46601
1.47412
1.47941
1.48439
1.48714
1.47311
1.45054
1.44079
1.44083
1.44497
1.45595
1.48797
1.52074
1.53755
1.54523
1.55066
1.55398
1.54976
1.52505
1.49823
1.48749
1.48718
1.49411
1.523
1.5513
1.56084
1.58984
2.59095
7.47768
1.11291
1.10991
1.11166
1.11449
1.11808
1.12941
1.15093
1.16252
1.16772
1.17109
1.17427
1.17249
1.16226
1.15857
1.15962
1.16184
1.16504
1.17034
1.18815
1.21128
1.22183
1.22701
1.23046
1.23197
1.22149
1.21
1.20883
1.21176
1.21536
1.21889
1.2252
1.24774
1.27123
1.28152
1.28715
1.29191
1.29382
1.28094
1.26532
1.26254
1.26568
1.26993
1.27419
1.28397
1.31193
1.33344
1.34253
1.34887
1.3542
1.35712
1.34579
1.32696
1.32051
1.32272
1.32733
1.33285
1.3474
1.37821
1.39801
1.40713
1.41409
1.41992
1.42344
1.41362
1.39287
1.38306
1.3841
1.38916
1.39617
1.41699
1.44904
1.46725
1.47667
1.48444
1.49095
1.49428
1.48098
1.45656
1.44486
1.44497
1.4493
1.45886
1.48784
1.52028
1.53727
1.54529
1.55111
1.55543
1.5533
1.53014
1.50021
1.48592
1.48428
1.48972
1.51781
1.53956
1.57503
2.64008
7.48418
1.12009
1.11355
1.1142
1.1169
1.11987
1.1248
1.1411
1.16193
1.17112
1.17533
1.17842
1.18079
1.17408
1.16335
1.16168
1.16418
1.16749
1.17105
1.17778
1.19853
1.21973
1.22888
1.23401
1.23773
1.23784
1.22541
1.21583
1.21518
1.21696
1.21992
1.22398
1.23237
1.25734
1.2795
1.2888
1.29365
1.297
1.29831
1.28658
1.27294
1.27034
1.27175
1.27444
1.27882
1.2906
1.32046
1.34197
1.35055
1.35514
1.35841
1.36136
1.35267
1.33509
1.32853
1.32926
1.33187
1.33664
1.3518
1.38464
1.40605
1.41481
1.41962
1.42403
1.42886
1.42261
1.40242
1.39158
1.39047
1.3923
1.39746
1.4167
1.45223
1.47488
1.48467
1.49045
1.49545
1.4994
1.48997
1.46634
1.45197
1.44946
1.45188
1.45772
1.48306
1.51831
1.53817
1.54715
1.55271
1.55668
1.55642
1.53614
1.5029
1.48391
1.48005
1.48496
1.5066
1.55055
2.67662
7.48617
1.12817
1.12022
1.11785
1.11994
1.12287
1.12603
1.13275
1.15272
1.17083
1.17829
1.18204
1.18487
1.18548
1.17477
1.16687
1.16767
1.17065
1.17386
1.17722
1.18448
1.20737
1.22781
1.23644
1.24137
1.24509
1.24378
1.22887
1.2188
1.21907
1.22257
1.22647
1.23033
1.23892
1.26475
1.28547
1.2939
1.29933
1.30417
1.3058
1.29241
1.27676
1.27355
1.27661
1.28094
1.28547
1.29686
1.32534
1.34536
1.35404
1.3602
1.36554
1.36892
1.36027
1.34113
1.33217
1.33329
1.33779
1.34338
1.35728
1.38707
1.40766
1.41778
1.4257
1.43203
1.43651
1.43033
1.40843
1.39391
1.39236
1.3966
1.40296
1.42004
1.4531
1.47592
1.48693
1.49533
1.50247
1.50702
1.49877
1.47282
1.45392
1.4494
1.45222
1.45853
1.4815
1.51671
1.53856
1.54865
1.55422
1.55757
1.55743
1.54057
1.50632
1.48151
1.47489
1.47449
1.51971
2.6879
7.48773
1.13477
1.131
1.12349
1.12376
1.12622
1.12905
1.13211
1.13993
1.16186
1.17837
1.18526
1.18933
1.19253
1.19033
1.17786
1.17249
1.17339
1.17553
1.17865
1.18272
1.19216
1.21652
1.23513
1.24279
1.24735
1.25085
1.2487
1.23446
1.22629
1.22641
1.2282
1.23114
1.23531
1.24605
1.27307
1.29303
1.30125
1.30559
1.30882
1.31082
1.2999
1.28532
1.28184
1.28281
1.28522
1.2896
1.30194
1.33152
1.35268
1.36158
1.36623
1.37019
1.37473
1.36998
1.35137
1.3414
1.34049
1.34221
1.34641
1.35935
1.39123
1.41572
1.4262
1.43156
1.43565
1.44076
1.43893
1.41888
1.4034
1.4001
1.40126
1.40529
1.41845
1.45267
1.48157
1.49468
1.50111
1.50572
1.50945
1.5049
1.48154
1.46082
1.45437
1.45517
1.45952
1.47865
1.51403
1.53788
1.54867
1.554
1.5569
1.55651
1.54317
1.51004
1.48189
1.46456
1.48593
2.66619
7.48784
1.13932
1.1426
1.13368
1.12875
1.12929
1.13104
1.13352
1.13723
1.14773
1.1714
1.18681
1.19324
1.19691
1.19954
1.19397
1.18037
1.17617
1.17834
1.1818
1.18513
1.18874
1.19862
1.22395
1.2417
1.24909
1.25382
1.25784
1.25546
1.2397
1.22997
1.23028
1.23377
1.23768
1.24159
1.25169
1.27849
1.29777
1.30584
1.31154
1.31639
1.31863
1.30677
1.28973
1.28467
1.28708
1.29132
1.29615
1.30699
1.33436
1.35556
1.36558
1.373
1.37862
1.38262
1.37747
1.35728
1.34425
1.34341
1.34743
1.35287
1.36434
1.39286
1.41656
1.42818
1.43694
1.44389
1.4489
1.44713
1.42668
1.40722
1.40198
1.40498
1.41035
1.42145
1.45153
1.48036
1.4941
1.50215
1.50949
1.51471
1.51298
1.49065
1.46613
1.45647
1.45653
1.46006
1.47511
1.50938
1.53524
1.54704
1.55241
1.55501
1.55488
1.54453
1.51488
1.47654
1.46953
2.60928
7.49176
1.144
1.15003
1.14721
1.13642
1.13238
1.13365
1.13642
1.13938
1.14332
1.15494
1.17901
1.19318
1.19945
1.20342
1.20591
1.19842
1.18602
1.1834
1.18477
1.18662
1.18965
1.19408
1.20623
1.23189
1.24851
1.2555
1.25971
1.26302
1.26135
1.24743
1.23848
1.2379
1.23916
1.24182
1.24605
1.25782
1.28598
1.30552
1.31331
1.31735
1.32054
1.32369
1.31518
1.29893
1.29335
1.29383
1.29585
1.29994
1.31068
1.34054
1.36445
1.37419
1.37903
1.38204
1.38579
1.38392
1.36666
1.35359
1.35135
1.3526
1.3562
1.36535
1.39478
1.42413
1.43771
1.44411
1.44834
1.45243
1.45301
1.43639
1.41696
1.41015
1.40994
1.41232
1.41946
1.44726
1.48251
1.50132
1.50916
1.5143
1.51827
1.51757
1.49901
1.47272
1.45928
1.45724
1.45964
1.47058
1.50345
1.53235
1.54594
1.55121
1.55305
1.55208
1.54481
1.51263
1.47957
2.54018
7.50409
1.14774
1.15534
1.15707
1.1497
1.1389
1.13729
1.1393
1.14175
1.14397
1.14761
1.16081
1.18611
1.20062
1.20705
1.21155
1.21369
1.20422
1.19012
1.18674
1.18914
1.19255
1.19592
1.19981
1.21199
1.23805
1.25412
1.26094
1.26607
1.27037
1.26903
1.25336
1.24169
1.24094
1.24413
1.24805
1.25214
1.26297
1.29022
1.30903
1.31718
1.32324
1.32824
1.33144
1.32288
1.30469
1.29662
1.29785
1.30196
1.30665
1.31566
1.34263
1.36537
1.3757
1.38252
1.38848
1.39329
1.39239
1.37499
1.3585
1.35449
1.35747
1.36248
1.37025
1.39526
1.42363
1.43794
1.44622
1.45338
1.45926
1.4614
1.44627
1.42268
1.41176
1.41202
1.41641
1.42377
1.44723
1.48143
1.50137
1.5105
1.51639
1.5211
1.52199
1.50632
1.47835
1.46102
1.45699
1.45874
1.46747
1.49841
1.52914
1.54401
1.54908
1.54985
1.54944
1.53883
1.51966
2.49517
7.51889
1.1494
1.15999
1.16235
1.16234
1.15132
1.14185
1.14046
1.14198
1.14493
1.1485
1.15341
1.17001
1.19606
1.20918
1.21473
1.21868
1.21978
1.20915
1.19646
1.1939
1.19514
1.19699
1.20026
1.20499
1.21954
1.2461
1.26155
1.26787
1.27154
1.27443
1.2741
1.261
1.24999
1.24847
1.24964
1.25206
1.25616
1.26825
1.2971
1.3171
1.32504
1.32926
1.33222
1.33609
1.33127
1.31427
1.30559
1.30462
1.30528
1.30872
1.31762
1.34502
1.37164
1.38385
1.38962
1.39347
1.39793
1.39988
1.38602
1.36881
1.36297
1.36209
1.36361
1.36951
1.39239
1.42599
1.44583
1.45436
1.45948
1.46341
1.46646
1.45682
1.43408
1.42119
1.41875
1.41951
1.42327
1.44152
1.47801
1.50301
1.51374
1.51902
1.52287
1.52485
1.51365
1.48571
1.46497
1.45843
1.45863
1.46408
1.49212
1.52467
1.54087
1.5454
1.54692
1.54176
1.55288
2.49643
7.53144
1.14495
1.16178
1.16568
1.16848
1.1671
1.15366
1.14484
1.14509
1.14811
1.15183
1.15566
1.16113
1.17976
1.20399
1.21507
1.2204
1.22445
1.22631
1.21562
1.20083
1.19716
1.19963
1.20325
1.20691
1.21127
1.2255
1.25137
1.26572
1.27206
1.27723
1.28167
1.282
1.26783
1.25398
1.25145
1.25429
1.25837
1.26295
1.27401
1.30049
1.31953
1.32816
1.33449
1.33991
1.344
1.33939
1.32005
1.30759
1.30678
1.31033
1.31529
1.3243
1.34887
1.37443
1.38695
1.3943
1.40114
1.40625
1.40817
1.39443
1.37259
1.3631
1.36384
1.36804
1.37493
1.39514
1.42793
1.44818
1.45735
1.46427
1.47043
1.4742
1.46641
1.44146
1.42305
1.4184
1.42074
1.42574
1.44147
1.47604
1.50327
1.51539
1.52097
1.52515
1.52832
1.5215
1.49378
1.46796
1.4577
1.45676
1.46025
1.48521
1.51902
1.53619
1.54222
1.53836
1.56584
2.52651
7.54206
1.13208
1.1586
1.1667
1.17182
1.1754
1.17351
1.15971
1.15283
1.15364
1.156
1.15872
1.16174
1.16703
1.18626
1.20961
1.22046
1.22552
1.22904
1.23071
1.22169
1.2086
1.20555
1.20687
1.20863
1.21158
1.21638
1.23172
1.2579
1.27275
1.27899
1.28254
1.2855
1.2873
1.27674
1.26326
1.26012
1.26108
1.26305
1.2669
1.2772
1.3042
1.32609
1.33573
1.34047
1.34367
1.34806
1.34695
1.33032
1.3182
1.31649
1.31815
1.32132
1.32767
1.35004
1.37895
1.39461
1.40131
1.40479
1.40858
1.41253
1.40422
1.38397
1.37383
1.37292
1.37528
1.37966
1.3942
1.42674
1.45217
1.46363
1.46889
1.47223
1.47637
1.47421
1.4532
1.43315
1.4262
1.42591
1.42855
1.43865
1.4709
1.50222
1.51736
1.52355
1.52729
1.52957
1.5256
1.50114
1.4714
1.45713
1.45446
1.45682
1.47901
1.51236
1.53119
1.53301
1.56605
2.57653
7.55201
1.11982
1.14482
1.16601
1.17471
1.17968
1.18336
1.17991
1.16527
1.15786
1.15791
1.16001
1.1624
1.16558
1.17186
1.19217
1.21513
1.22546
1.23046
1.23471
1.23765
1.22956
1.21448
1.20919
1.21097
1.21448
1.21814
1.22235
1.23591
1.26134
1.27617
1.28291
1.28838
1.29302
1.29527
1.28482
1.26869
1.26304
1.26484
1.26861
1.27297
1.28108
1.30512
1.32744
1.33819
1.34613
1.35246
1.35697
1.35585
1.34035
1.32429
1.31951
1.32189
1.32605
1.33102
1.34903