/*--------------------------------*- C++ -*----------------------------------*\
  =========                 |
  \\      /  F ield         | OpenFOAM: The Open Source CFD Toolbox
   \\    /   O peration     | Website:  https://openfoam.org
    \\  /    A nd           | Version:  12
     \\/     M anipulation  |
\*---------------------------------------------------------------------------*/
FoamFile
{
    format      ascii;
    class       surfaceScalarField;
    location    "2.53";
    object      phi;
}
// * * * * * * * * * * * * * * * * * * * * * * * * * * * * * * * * * * * * * //

dimensions      [1 0 -1 0 0 0 0];

internalField   nonuniform List<scalar> 
33852
(
0.000251329
2.24281e-05
-0.000273757
-0.000246121
1.32441e-05
0.000232877
-0.0001741
-7.10493e-05
0.000245928
0.000304053
-0.000163969
-0.000140085
0.000291743
-4.25552e-05
-0.00024835
2.72441e-05
-0.000260681
0.000233437
0.000314863
1.46942e-05
-0.000329768
0.000304277
-9.59564e-05
-0.000208321
0.000286413
-3.50841e-05
0.000202188
1.66289e-06
-0.00020405
0.000289397
-0.000366711
7.70118e-05
0.000360468
-4.56259e-05
-4.39602e-05
0.000263285
-0.000219325
-4.39047e-05
0.000317858
-0.000274066
6.05185e-05
-0.000235621
0.000252057
1.2236e-05
-0.000264293
0.000264853
-1.2796e-05
-0.000278433
3.23121e-05
0.000340499
-5.1181e-05
0.000158593
0.000112308
-0.000270901
-2.43959e-05
0.000303006
-0.000278685
0.000271377
-0.000276165
4.78802e-06
-1.77048e-05
0.0002751
-0.000257351
-0.000223775
1.44977e-05
0.000208324
-0.000153439
-0.000183231
0.00033679
-0.000146061
-7.01413e-05
0.000212686
3.72401e-05
0.000267037
-6.12557e-05
-0.000263257
0.000324197
-0.000206797
1.43533e-06
0.000202154
-0.000205013
-1.93427e-05
0.000142045
0.000137388
-0.000279433
0.000341278
1.92524e-05
0.000142618
0.000128347
-0.000270965
-0.000101136
0.000259729
-0.000250489
-3.78001e-06
0.000254269
0.000330919
-5.96663e-05
-0.000271245
-0.000357195
0.00020325
-0.000227358
0.000209689
0.000231645
3.32081e-05
-5.65602e-06
0.000237301
-8.13522e-06
0.000209295
-0.000232625
0.000259869
0.000316177
-5.70974e-05
-0.00025912
-0.000309093
5.51042e-05
0.000253989
0.000240139
-0.000301524
0.000273589
-0.000306321
3.27321e-05
-0.000180237
-5.49362e-05
0.000235173
0.000272133
-0.000272133
0.000148429
-0.000297473
0.000149045
-0.000212128
0.000217346
-7.24064e-06
-0.000268241
0.000237301
3.09401e-05
-0.000201338
0.00024656
-4.78016e-05
-9.16164e-05
-0.000217477
-0.000114652
-0.00025219
-0.000280169
0.000266113
1.40561e-05
0.000329549
1.19352e-05
-0.000250433
7.01963e-05
0.000117908
0.000145909
-0.000263817
1.34681e-05
-0.000267457
0.000253989
-0.000134569
0.000282997
-0.00014906
-4.93491e-05
0.000200428
-0.000274681
0.000245113
2.95681e-05
0.000237553
-0.000268437
3.08841e-05
-0.000190703
-2.36151e-05
0.000151665
0.000115565
-0.00026723
-0.000190254
-2.85613e-05
0.000219122
0.000263985
2.24281e-05
0.000275941
-2.35201e-06
0.000265329
-0.000250741
-1.45881e-05
0.000223965
-6.40279e-05
-0.000161769
-1.82001e-06
0.000239373
0.000366136
-0.000312304
-5.39197e-05
-2.81639e-05
0.000303247
-0.000275023
-0.000101584
0.000219493
0.000342268
2.4208e-05
-0.00037091
0.000353573
1.8064e-05
-0.000213168
2.25578e-05
0.000309266
-0.000321584
1.22767e-05
-0.000209161
0.000272223
-6.49602e-05
-4.45202e-06
1.70777e-05
-0.000319539
0.00030241
0.000235059
-0.000199274
-3.55052e-05
0.000269279
-0.000339174
6.99588e-05
0.000333159
-6.33696e-05
-0.000268941
0.000236573
3.23681e-05
-0.000129388
-0.000132609
0.000261997
-1.86761e-05
-0.000249565
-1.022e-05
-0.000258721
2.34012e-05
0.000209856
-0.000234543
3.16262e-05
-0.000223374
0.00018883
-2.50186e-05
0.000327597
-0.000302649
-0.000279329
0.000273701
5.62802e-06
0.000156129
-0.000296857
0.000140729
-6.05601e-05
-0.000154696
0.000214008
0.000143277
0.0001218
-0.000265077
-0.000249845
0.000225478
-0.00021784
0.000156522
-0.000168813
0.000327181
-0.000158369
0.000185389
7.16523e-05
-0.000257041
0.000255193
2.07481e-05
-0.000192277
0.000148317
5.04314e-05
0.000265196
0.000307133
-0.000290166
9.11653e-05
-0.000238921
0.000135241
0.000117096
-0.000281065
-1.00725e-06
0.000244903
-0.000244033
0.000166489
0.000122836
-0.000289325
0.000144277
9.03182e-05
-3.92002e-06
0.000259113
0.000303628
5.43922e-06
-0.000323988
0.000315297
9.01351e-06
-3.99002e-05
0.000236293
-0.000196393
4.08802e-06
-0.000284257
-2.53777e-05
0.000167798
-0.000141048
-0.00016107
0.000136196
0.000210009
-0.000180344
-0.000269921
0.000264965
4.95602e-06
2.64041e-05
0.000174721
-0.000201125
2.87841e-05
-0.000257265
0.000228481
0.000276137
-0.000262669
0.000115108
0.000212073
0.000213368
-0.000192121
-0.000175813
0.000202217
1.35498e-05
0.000282524
-0.000296108
0.000270353
2.21002e-05
0.000271802
-0.000284408
1.23636e-05
3.86402e-06
0.000267513
-1.81055e-05
0.000289657
0.000330507
9.97017e-06
0.000213763
-0.000257543
0.000316766
-0.000316685
-6.63603e-06
-0.000272693
2.82132e-05
0.000195694
0.000187993
3.98722e-05
-0.000227865
-5.56191e-05
0.000223221
-0.000167313
0.000153609
-0.000270285
0.000116676
0.000279441
-0.000329701
5.02602e-05
-6.38122e-05
0.000249201
-0.000166909
0.000315897
-0.000148989
-0.000313814
-1.00702e-05
-0.000214929
0.000175029
2.78601e-05
-0.000278349
0.000276221
-1.88441e-05
-0.000248613
1.72901e-05
-0.000302923
0.000286334
0.000344989
-0.000158593
-0.000186397
-1.69073e-05
-0.000241235
0.000258127
-0.000266617
-3.30401e-06
0.000224001
2.45841e-05
-0.000248585
0.000284509
-0.000128381
0.000140197
0.000138853
-0.000279049
-0.000201613
-1.09013e-05
0.000258169
-0.000115551
0.000225662
-0.000242542
-6.38122e-05
0.000251805
-0.000209571
0.000249481
-5.60002e-07
-0.000248921
0.000255109
-0.000237441
-0.000324543
0.000299516
-3.08841e-05
0.000203169
-0.000172285
0.000291571
1.19153e-06
-0.000292928
7.57115e-05
0.000131204
-0.000208122
4.41251e-05
-0.000193313
-0.000288641
-4.53133e-06
0.000293008
-1.60454e-06
-0.000287413
0.000146973
-0.000273925
0.000126952
-0.000263267
0.000219955
-0.000294071
0.000266462
0.000279441
-0.000312795
-1.24012e-05
0.000325275
0.000110113
0.000160092
-2.13642e-05
0.000352246
0.000140141
0.000139833
-0.000279973
0.000245029
-0.000250349
5.32002e-06
-0.000210953
0.000180069
0.000279133
-5.43202e-06
0.000350262
-3.25498e-05
-0.000300919
0.000303193
-1.94563e-06
0.000270985
-0.000270985
-0.000364604
0.000225837
0.000138756
-0.000213158
2.05798e-05
1.68863e-05
0.000275157
-0.000278461
3.30401e-06
-4.7331e-06
0.000172204
-0.00016573
-0.000197345
0.000254801
-5.74562e-05
-0.000206474
4.74246e-06
-0.000241182
0.000155985
7.88759e-05
-0.000180264
0.000261401
-8.11334e-05
0.000256285
-0.000287113
3.08281e-05
-0.000249229
5.18842e-05
-2.35109e-05
0.000275581
-0.000252171
-0.000253547
1.35801e-06
0.000252189
0.000231281
-7.28003e-06
-0.000294251
7.5825e-06
0.000286965
-0.000266085
0.000266085
-0.000284193
-5.50508e-05
-0.000170575
-0.000194052
-0.000170775
0.000215141
-4.43305e-05
-1.232e-05
-0.000239177
0.000251497
3.10801e-06
0.000210113
-0.000213221
-0.000184301
-2.24936e-05
0.000208435
7.60277e-06
0.000294433
-0.000302057
-0.000236153
-1.34401e-05
0.000249593
1.50361e-05
-0.000251189
-0.000241025
0.000256061
-0.000301439
0.000308993
0.000256117
7.16803e-06
-0.000168869
-3.16249e-05
0.00019557
-0.000145237
-0.000134765
-0.000244329
0.000240549
0.000298512
-4.58461e-07
-0.000298078
-0.000298813
5.73694e-07
0.000298295
1.91917e-05
0.000181217
0.000163773
7.70046e-05
-0.000257269
-0.000159242
0.000310908
0.000250721
-0.000108677
-0.000235145
-1.83681e-05
0.000253513
-0.000204573
-0.000126866
0.000331523
-6.10402e-06
-0.000229125
0.000235229
-2.27365e-05
-0.000188092
-0.000285967
-8.52409e-05
6.29593e-06
-0.0003003
-0.000212698
0.000328069
-0.000115926
0.000281597
0.000288205
-5.16322e-05
0.000271993
-1.57081e-05
-0.000187005
-1.40182e-05
0.000200998
0.000297591
3.16203e-07
-0.000298037
-0.00027017
-3.20226e-05
-0.000218821
0.000247605
-2.52094e-05
0.000310522
-0.000285335
0.000182148
7.52799e-06
-0.00019051
-3.40153e-05
0.000211477
-0.000301256
0.000275965
0.000292766
5.4228e-06
-0.000298396
0.000157445
0.00011886
-0.000276305
0.000287619
4.28845e-06
-0.000293368
-0.000243373
0.000117211
0.000127289
-0.000281718
0.000295554
0.000302513
-0.000156857
-0.000145657
0.000207005
-0.000203897
-0.000232009
-0.000121156
-0.000155009
-4.09825e-06
-0.000293998
0.000298155
-1.0136e-05
0.000276249
0.000292476
-2.09296e-05
-0.000272125
-0.000262932
2.9172e-05
0.000233961
0.000271433
-0.000267569
0.000249621
2.95121e-05
0.000314986
-9.72314e-06
-0.000305181
5.02584e-05
0.000160642
-0.000209835
-9.94825e-05
0.000196767
-9.63665e-05
0.000252617
-2.91201e-05
-0.000223497
5.72001e-07
0.000291731
-0.000170382
-3.10011e-05
0.000203207
-2.57061e-06
0.000290199
-9.33244e-05
0.000246933
-0.000255417
-5.26402e-06
0.000121184
0.000181329
1.34121e-05
0.000241557
-0.000254969
0.000236097
1.34961e-05
-0.000249593
0.000249509
-0.000242929
0.000256425
6.30679e-05
-0.000203608
0.000137825
-0.000214735
0.000115033
-0.000207572
0.00029719
1.43285e-06
-0.00029855
0.000253849
2.22881e-05
0.000268493
-0.000216441
-5.20522e-05
0.000225518
-0.000246849
2.13305e-05
0.000257909
1.40841e-05
5.82541e-05
0.000297107
0.000267186
-3.89594e-05
-0.000228226
0.00017204
1.274e-05
0.000240297
-0.000253037
0.000194108
-0.000114648
-7.96265e-05
-0.000205562
2.15174e-05
-1.37482e-06
-0.000297702
0.000298987
0.000218301
-0.000168243
-5.28986e-05
0.00034424
-4.12582e-05
0.000275969
-0.000135829
2.31561e-05
0.000238337
-0.000261493
-0.000231141
0.000254297
-2.66805e-05
-0.000229735
0.000256426
0.00015686
-0.000160889
-7.63885e-05
-0.000167087
-0.000261723
4.14346e-05
0.000220288
-3.17521e-05
-0.00022997
6.99189e-06
0.000261717
-3.25193e-05
-0.000229198
1.67581e-05
0.00012879
-0.000201038
0.000308785
-0.000171397
0.000262319
-3.57923e-05
-0.000226526
-0.000319552
0.000175687
-0.000100736
-0.000228453
-6.90203e-05
-7.65603e-07
-0.000296305
0.000297815
-2.7109e-05
0.000175717
-0.000148743
0.000308151
6.8539e-06
0.000250097
-0.000248249
-1.84801e-06
-0.00017665
6.14206e-05
0.000260259
-3.07213e-05
-0.000229539
0.000197345
-0.000250769
5.34242e-05
0.000254206
-0.000231206
-2.29992e-05
-0.000252337
0.000240017
0.000143793
0.000101068
-0.000101864
-0.000170269
0.000132496
-0.000261885
-0.000290249
0.0002422
4.80482e-05
0.000216809
3.12478e-05
-0.000248056
-0.000238891
-9.03794e-06
0.000248774
0.000326601
-2.29905e-05
0.000263996
-3.42721e-05
-0.000229724
0.000144298
-0.000233953
9.21545e-05
3.63259e-05
-0.000265637
0.000229311
-0.000253905
0.000121296
0.000249817
-5.24722e-05
0.000294673
-0.000154253
-0.000140421
0.000122248
-0.000289157
1.53441e-05
0.000237665
-0.000253009
-0.000262031
3.54705e-05
0.00022656
-2.78274e-06
-3.77917e-05
-0.000224239
0.000248422
-0.00027197
-0.000264649
3.44737e-05
0.000230175
0.000193257
0.000101416
-0.000149941
0.000290137
-0.000171349
-3.90267e-05
0.000210512
-1.81721e-05
0.000263201
-0.000293444
0.000311158
0.000115588
0.000102253
0.000261325
-0.000261325
0.000313751
-2.28102e-05
-0.000291684
5.32002e-07
0.000248949
0.000254857
1.65761e-05
0.000309837
-0.000276285
-3.3205e-05
-2.26336e-05
0.000266577
-0.000243943
3.00077e-05
-0.000260519
0.000230511
-0.000252139
0.000229506
0.000327903
3.11501e-05
-0.000260598
0.000229447
0.000276809
-3.16961e-05
-7.21607e-06
-0.000292863
0.000299938
0.000270926
3.90415e-05
0.000230245
-0.000266617
3.63721e-05
0.000201237
-0.000203077
-0.000258301
0.000238533
1.97681e-05
0.000169762
-0.000257245
8.74835e-05
-0.000209541
0.000163241
-0.000249145
8.59043e-05
-0.000266169
0.000224813
4.13562e-05
0.000253073
-2.78797e-05
-0.000225194
0.000179039
4.36277e-05
-0.000234837
-2.29601e-05
0.000257797
-0.000236377
-2.28761e-05
0.000259253
-1.94265e-05
0.000255969
-0.000236542
-0.000259345
0.000239919
-3.39018e-05
0.000179515
-0.000235929
-2.24001e-05
0.000258329
-0.00025484
0.000229192
2.56481e-05
2.94001e-06
0.000211289
-0.000214229
-0.000267031
3.79849e-05
0.000229046
0.000270677
4.48002e-06
4.27138e-05
0.000165346
-0.000207849
-3.31201e-05
0.000249929
-2.09354e-05
0.000218597
9.73004e-05
0.000248199
-0.000216951
0.000276991
-0.000278812
0.000276754
-0.000281523
-1.84997e-05
0.000258601
-0.000240101
-0.000261644
0.000243145
3.00498e-05
-0.000202555
-2.97994e-05
-0.000206341
0.000236903
0.000314804
-0.000287647
-2.74248e-05
0.000261297
-3.11081e-05
-0.000230189
3.28739e-05
-0.000262362
0.000229488
-0.000229853
0.000259645
-2.97921e-05
0.000325815
-1.7651e-05
0.0001444
-0.000210535
0.000256929
-0.000109956
-0.000286158
0.000287252
0.000241977
-6.41202e-06
-0.000235565
0.000228537
-0.000178269
-3.72073e-05
0.000212554
2.86539e-05
-0.000212367
-0.000239989
0.000260317
-2.03281e-05
-0.000103457
0.000189853
-8.57288e-05
3.1406e-05
-0.000201566
0.000240169
-0.000263424
2.32552e-05
-0.000115584
0.000258861
-0.000243993
0.000265721
-2.17281e-05
-0.000238953
0.000232541
0.000258626
-0.000245105
-1.35213e-05
0.000264349
-2.46681e-05
-0.000246317
-0.000273818
-1.05735e-05
0.000298958
-5.36221e-05
-8.96832e-06
0.000290947
-0.000280457
-0.000170329
0.000212876
0.000230018
1.7755e-05
-0.000246656
0.000328519
-0.000328505
0.000260955
-0.000245018
-1.59377e-05
-0.00030127
-5.84459e-07
0.000304888
9.67615e-06
3.77273e-05
0.000171613
-0.000212351
0.000214267
-3.47434e-05
-0.000178769
0.000278054
-0.000255789
-2.22648e-05
-0.000203671
3.09001e-05
3.15421e-05
-0.000261891
0.000230348
0.000285437
-0.000292518
2.44721e-05
-0.000259617
-0.000257965
1.87881e-05
0.000266057
-1.64361e-05
0.000151173
-0.000267625
0.000116452
0.000298917
-4.44979e-06
0.000238617
-7.53763e-05
2.12521e-05
0.000177045
-0.000198297
-0.000183877
0.000205129
-0.000236275
0.000257219
-2.09441e-05
0.000261462
-3.31689e-05
-0.000228293
-0.000197009
-5.21362e-05
0.000251581
-1.48401e-06
8.52173e-06
-0.000265135
0.000256903
-0.000342618
0.00023626
0.000106416
0.000266371
-0.000236811
-2.95597e-05
0.000306801
-0.000314617
7.83081e-06
-2.57041e-05
-0.000229097
0.000254801
0.000261493
-7.64403e-06
1.01694e-05
-0.000208973
0.000262411
-3.19033e-05
-0.000230508
-6.90483e-05
-0.000260653
-0.000194685
0.000248025
-5.33402e-05
-0.000266533
0.000249985
1.65481e-05
-0.000318144
1.66847e-05
-1.72926e-05
0.000297004
-0.000279389
-0.000276221
1.65481e-05
0.000249537
-0.000166777
6.46347e-05
0.000273592
1.48539e-05
-0.000288322
-0.000315951
0.000307855
8.18604e-06
3.46641e-05
-0.000263649
0.000228985
-1.74473e-05
0.000281486
-0.000315203
1.64229e-05
-0.000176541
-7.42283e-05
-0.000233392
0.000204205
-2.16721e-05
-0.000216469
0.000238141
-0.00031476
0.000295863
1.88714e-05
-0.000132564
0.000273991
-0.000141343
-8.38705e-06
3.31521e-05
-0.000263453
0.000230301
-0.000203846
2.45465e-05
0.000173247
0.000221525
0.000281573
-0.000281627
2.50709e-07
-0.000236993
-2.20921e-05
0.000224813
-0.000202721
0.000139273
0.000143753
-0.000278517
0.000200555
-5.74365e-05
0.000308105
-1.07213e-05
0.000209356
-0.000268935
2.92853e-05
0.00022306
-0.000252345
-0.000321096
0.00013864
0.000296597
2.92177e-05
1.93702e-05
-0.000224355
-2.77845e-05
-0.000136182
-0.000133113
-0.000326749
0.000113682
0.000242873
2.56201e-05
0.000218765
-0.000224869
1.10583e-05
-0.000287844
0.000276734
-0.000243615
0.000269606
-2.71398e-05
0.000281267
-0.000281728
0.000287934
-7.71629e-05
-8.86788e-06
0.000290179
-1.87881e-05
0.000247101
-0.000228313
0.000281424
-0.000290237
-5.63086e-06
-0.000283885
0.000289543
0.000282077
-0.000269371
0.000284236
0.000226314
2.67597e-05
-0.000306423
0.000315299
-9.49232e-06
0.000252292
-2.11613e-05
0.00022864
2.46435e-05
-0.000268913
0.000246057
-2.05381e-05
-0.000259401
3.02849e-05
0.000229116
0.000178305
7.64963e-05
1.04845e-05
0.000281819
-0.000292206
-0.000238141
-2.88401e-05
0.000266981
2.51441e-05
-0.000263285
0.000284117
-0.000162317
-0.000232177
0.000261129
-2.89521e-05
-0.000234697
0.000260709
-2.60121e-05
1.41112e-06
0.000280072
2.45001e-05
-0.000259197
2.38001e-05
-0.000255977
0.000274276
-0.000242903
-3.13684e-05
0.000317909
-9.9586e-06
-0.000307193
-1.71343e-06
-0.000255753
1.1816e-05
0.000243937
-1.40427e-05
-0.000261185
0.000228065
-0.000245337
0.000270145
-2.48081e-05
-0.000263229
1.49801e-05
-2.36508e-05
0.000285691
-0.000262545
2.13641e-05
-0.000266701
-0.00024161
-2.13486e-05
3.26692e-05
-9.0432e-05
0.000260194
0.000280893
-0.000286426
5.05122e-05
0.000237693
0.000282373
-0.000282033
-0.000243181
-2.39401e-05
0.000267121
-0.000260894
7.34723e-06
-0.000295371
1.93585e-05
0.000276409
-0.000268717
2.55361e-05
-8.32814e-06
0.000290743
-0.000268326
0.000243549
2.47773e-05
-0.000232513
0.000210841
0.00027995
-0.000288347
-6.16002e-07
0.000260289
-0.000259673
-0.000302019
-1.61046e-05
-0.000264573
2.35481e-05
-0.00024417
-2.41556e-05
-3.43281e-05
-0.000298082
0.000294103
0.000286674
-0.000158327
0.000295959
-0.00029026
2.30152e-05
4.93758e-06
0.000262422
-0.000255169
-7.23944e-06
0.000307531
-2.02292e-05
-0.000287265
5.96243e-05
-0.000246765
-2.19521e-05
-0.00035669
0.000242036
0.00028527
-0.000281948
2.33801e-05
-0.000189009
-1.57863e-05
-0.000306586
2.57474e-05
0.000280696
-0.000196813
0.000311046
-0.000113665
0.000259841
-0.000238533
-2.13081e-05
-0.000291557
2.94001e-05
0.000222097
-0.000251497
-0.000166312
0.000132909
-0.000160002
0.000251441
-0.000238029
-1.34121e-05
-0.000263873
3.40201e-05
-2.23161e-05
-0.000269837
0.000251469
0.000230427
3.12901e-05
-4.72062e-05
0.000206919
0.000232619
-0.000260499
-1.73667e-05
-3.06835e-06
0.000246742
-0.000241275
-0.00029323
-0.000237049
0.000265189
-2.81401e-05
0.000230096
3.22225e-05
-0.000268521
2.55921e-05
-0.000239905
-2.86161e-05
0.000228954
-0.000260706
-0.000282441
4.73202e-05
-0.000242005
0.000293522
-0.000284111
-0.000288476
1.3445e-05
0.000275748
-4.85323e-06
0.000219184
0.000228551
-0.00026107
0.000296886
-0.000130901
-0.000165985
0.000240433
-0.000261867
0.000269643
-0.000226213
-1.76681e-05
-0.000165325
0.000307159
-0.000143637
2.49649e-05
0.000222662
-0.000247627
-0.000193125
0.000193496
-0.000283705
0.000282358
6.96166e-06
-0.000290583
-0.000302485
0.000146693
0.000155793
0.000259995
-0.000239359
-2.06361e-05
-0.000215741
0.000193649
0.000261811
4.40144e-07
0.000257293
0.000232526
2.16797e-05
-0.000295143
-6.29827e-05
1.02399e-05
0.00023068
-0.000252314
1.76256e-05
-0.000230917
-2.37161e-05
0.000254633
-0.000242295
0.000263191
-2.08965e-05
8.26324e-05
0.00013319
2.01896e-05
-0.000305646
0.0002856
0.000256565
-1.80041e-05
-0.000238561
0.000243881
-0.000254017
1.0136e-05
-0.000226745
0.000207957
0.000223131
-0.000258923
-0.000244693
4.76842e-05
1.59379e-05
-0.000137792
-0.000218874
1.57921e-05
0.000245701
0.000280391
0.000294184
0.000305847
1.72387e-06
0.000249817
-0.000220417
2.51749e-05
0.000225009
-0.000250184
-0.000243178
0.000268865
-2.56873e-05
2.28201e-05
-0.000262725
-0.000117031
0.000295551
9.16564e-06
2.08181e-05
0.000261675
-0.000235103
-2.65721e-05
1.31768e-05
-0.000303672
0.00029062
0.000321733
-3.09742e-05
-0.000290812
0.000249733
1.63241e-05
0.000306361
-0.000293082
-0.000230336
-0.000112315
9.63204e-06
0.000250657
-4.9129e-05
-0.00020239
0.000251519
2.20333e-05
0.000246832
-0.000241686
-2.29629e-05
0.000260737
-2.24001e-05
0.000287911
-0.000268023
2.63369e-05
2.68241e-05
-0.000257965
0.000210617
-0.000207677
2.58161e-05
-0.000262865
0.000281408
0.000121744
-0.000256173
0.000134429
1.81451e-05
3.7812e-05
0.000155455
-0.000200088
-0.000239485
-2.85377e-05
4.0318e-05
0.00016482
-0.000204162
-0.000246691
0.000271066
-2.43747e-05
0.000209866
-0.000248826
1.98857e-05
1.73623e-05
-0.000174725
-3.07976e-05
0.000226689
-0.000257413
-2.88401e-05
0.000244245
-0.000215405
-2.16161e-05
0.000242985
-0.000221369
0.000201657
-0.000250786
-0.000273613
-0.000232905
-2.55081e-05
0.000258413
0.000241234
2.98318e-05
-0.000210713
-2.44574e-05
0.000231398
-2.18821e-05
-0.000224967
-0.000239345
6.28042e-05
0.000259004
-0.000229718
4.75106e-05
-0.000249901
-3.43393e-05
0.000257694
-0.000223354
0.000205675
-0.000240014
0.000261689
-1.1956e-05
-6.06763e-05
-0.000229572
-0.000224582
-1.68777e-05
0.000243451
0.000247109
5.3175e-05
0.000212448
-0.000265623
-0.000261093
0.000177353
-0.000231757
5.44042e-05
6.39184e-05
0.000135692
0.000259457
-0.000240915
-2.47224e-05
-0.000265385
0.000227165
3.82201e-05
-2.87813e-05
-0.000222158
0.00025094
-0.00028409
0.000264161
0.000234501
3.61761e-05
2.18821e-05
0.000234087
-0.000307217
0.000151089
0.000156129
0.000168033
-5.23621e-05
0.000254045
-0.000115192
2.56901e-05
0.000217446
-0.000243136
-0.000286325
0.000286352
9.18261e-06
0.000257377
-0.000245953
0.000208937
3.70161e-05
0.000254832
0.000247762
-1.90501e-05
-0.000246815
-2.02161e-05
-0.000263019
2.0724e-05
-0.000269215
2.24001e-05
2.79601e-05
0.000220024
-0.000247984
0.000242481
-0.000274597
1.32721e-05
0.000244213
-1.48081e-05
1.24176e-05
-0.000248591
-0.000328789
0.000124198
-0.000233135
-2.62109e-05
-0.000252113
0.000252113
0.000259782
-0.000144217
-1.8341e-05
-0.000278317
0.000296963
0.000273506
0.000258749
-0.000135913
0.000224113
2.39205e-05
0.00023468
7.82963e-05
-0.000341434
3.77396e-05
0.000258962
1.76363e-05
-0.000248843
-3.00917e-05
0.000207453
-3.01001e-05
0.000259701
2.95429e-05
0.000218353
-0.000247896
-3.05014e-05
-4.09782e-05
-0.000217818
0.000258797
-0.000233423
-2.14173e-05
3.73237e-05
-0.000198059
0.000159934
-3.30877e-05
0.000221671
-0.000255943
-0.000281927
-8.39707e-06
0.000290294
-0.000192552
0.000156866
0.000166349
8.16763e-05
1.27212e-05
-0.000294637
0.000235075
2.59446e-05
-0.000261019
-0.000200382
-1.14918e-06
0.000232743
-0.000264287
3.15449e-05
-8.42803e-06
-0.000217029
0.000225457
-0.000160986
0.000197959
-0.000249985
-3.46025e-05
0.000256274
0.000218076
-0.000252679
-0.000246289
0.000272245
-2.59561e-05
0.000253547
2.78321e-05
-0.000232062
-2.95821e-05
-0.000298278
0.000316449
-1.81814e-05
2.34067e-05
0.000212462
-0.000250254
-0.000267233
2.09441e-05
-2.12801e-05
-0.000245953
-3.61481e-05
0.00024861
-0.000290109
-1.36818e-05
0.00022082
-0.000256968
0.000249282
-0.000250869
1.75571e-06
2.80002e-06
0.000181413
-0.000184213
0.000255294
0.000234529
2.67681e-05
-2.62361e-05
0.000245001
-0.000218765
3.36001e-05
0.000216609
-0.000250209
0.000244861
2.73841e-05
0.000306545
-0.000143949
-0.000162597
1.62296e-05
0.000235762
-0.000253731
0.000271013
-0.000113568
0.000225569
-0.000256677
-0.000241182
0.00010505
-0.000265469
7.16803e-06
-0.000241635
-2.75801e-05
-0.000241361
-2.48081e-05
0.000310617
-2.74497e-05
-7.67483e-05
0.000243097
-1.1452e-05
-0.000215601
0.000224281
-8.68003e-06
0.000255193
-7.68883e-05
3.33902e-05
-0.000188936
0.000154188
-0.000265245
-1.40001e-07
-4.14962e-05
3.93837e-05
0.00015813
-0.000196207
0.000189115
-0.000157356
0.000257041
-7.05603e-06
0.000251151
-0.000218277
-1.82033e-05
-2.1128e-05
0.000271492
-9.60886e-05
-0.000179159
-1.42801e-05
-0.000191913
0.000206193
0.000258665
-1.53553e-05
-0.00024331
1.98101e-05
0.000238855
-0.000280045
-7.99684e-06
3.66726e-05
-0.00019385
0.000155576
1.36921e-05
0.000247997
-0.000162644
0.000195892
-1.95189e-05
0.000248711
3.28704e-05
0.000187713
-0.000221852
-4.17202e-06
-2.49389e-05
0.000265108
-0.000231955
-3.14693e-05
0.00029703
-0.000281669
-1.54189e-05
1.63717e-05
-0.000237659
0.000221288
-0.00010514
0.000226885
1.92979e-05
-0.000305211
0.000285904
2.52001e-05
-2.79441e-05
2.69165e-05
0.000308968
-0.000289663
0.000238891
1.97345e-05
2.15601e-06
0.000231617
-0.000233773
-0.00031037
2.56563e-05
0.000284727
-0.000162177
-0.000144145
0.000209178
-0.000250156
-0.000168295
0.000241924
1.90317e-05
0.00025745
-4.13534e-05
0.000250531
0.000214498
-0.000255851
0.000318618
-0.000318582
-1.07429e-05
0.000287349
-0.000276744
-0.000302881
1.96421e-05
0.000283352
4.20842e-05
-0.000286413
-3.86741e-05
0.000252483
2.62921e-05
-2.21045e-05
0.000307412
-0.000285261
2.43321e-05
3.9213e-05
0.000161538
-0.000199191
0.000249294
-0.000219751
2.83277e-05
-0.000261633
4.36802e-06
-1.99681e-05
0.000306572
-0.000286679
-0.000250987
-0.000266673
3.07441e-05
0.000252141
-0.000236741
-1.54001e-05
1.2264e-05
0.000239877
-0.00027498
-1.28156e-05
0.000255697
-5.35508e-06
0.000318872
-1.19849e-05
0.000298856
-0.000287101
-4.79148e-05
0.000247437
-0.000235621
0.000257601
-1.99361e-05
0.000130629
8.43056e-05
-0.000216689
0.000220386
3.03493e-05
0.000226759
-0.000258662
3.71393e-05
0.000271972
-0.000289008
1.69057e-05
0.000251273
-0.000239093
-1.31321e-05
0.000252225
-2.91201e-05
-0.000257265
2.56481e-05
0.000231617
-0.000228005
-2.92601e-05
0.000259765
-0.000233571
-2.61941e-05
0.000258721
-0.000266553
2.6552e-06
0.000290047
1.27634e-06
-0.000290861
0.000245109
-0.000230519
-1.85921e-05
0.000308801
-0.000300811
-8.00855e-06
0.000243713
-9.95233e-05
-0.000266897
2.56761e-05
0.000241221
-3.48881e-05
-0.000232009
-0.000266393
2.51161e-05
0.000241277
-1.19666e-05
-0.000266905
0.000279606
-3.45241e-05
-0.000231869
-0.000261923
1.84182e-05
-0.000266281
2.43881e-05
0.000241893
-0.000284073
-2.14955e-05
-0.000306355
2.76611e-05
0.0002787
-3.34041e-05
-0.000232877
-0.000172825
-0.000258133
2.94001e-05
0.000228733
0.000309016
-0.00030894
-0.000195805
0.000209049
-3.29281e-05
-0.000225205
0.000197616
-0.000279356
8.16951e-05
0.000283899
2.24771e-05
-0.000301953
1.76961e-05
0.000285669
-0.000281014
-4.77072e-06
-0.000257125
0.000231617
2.55081e-05
0.000171488
2.86987e-05
-0.000199478
-0.000266953
2.81681e-05
0.000238785
-0.000227361
-2.97641e-05
-3.67361e-05
-0.000230217
0.000276564
0.000297283
1.9106e-05
-0.000276021
-3.19064e-05
0.000307854
-0.000258679
-1.09928e-05
0.000297858
-0.000287199
1.50123e-05
-0.000301934
0.000286909
-0.000230609
-0.000307329
0.000287344
0.000263005
-2.55816e-05
-0.000280764
1.36081e-05
0.000159941
0.000232722
1.84812e-05
-0.000251843
-0.000200792
0.000162085
0.000236738
1.31517e-05
-0.00024989
-0.00025833
2.66093e-05
0.000231721
-1.09228e-05
0.000247661
5.74002e-06
0.000246877
-3.19817e-05
-0.000226348
0.000299509
-0.000285612
-1.37723e-05
0.000228024
-0.000226666
0.000289886
0.000237685
1.98521e-05
-0.000257537
-1.24236e-05
0.000250108
0.000246636
1.50389e-05
-0.00030546
1.54376e-05
0.00024448
2.18905e-05
3.25864e-05
-0.000202303
-0.000287474
-1.77439e-05
-0.000182869
0.000295177
-0.000150905
0.000185106
-3.33191e-05
3.04928e-05
-0.000200887
0.000165319
-0.000167729
0.000259149
-0.000239236
-1.99137e-05
0.000260289
-0.000273008
-0.00024308
0.000232651
-2.18964e-05
0.000301183
-0.000279294
0.000307973
-0.000292971
0.000242117
1.77241e-05
-0.000224975
0.00024443
-1.94545e-05
1.61001e-05
-0.000241075
-7.00003e-06
0.000260989
-0.000297136
4.93204e-06
0.000292192
-0.000174497
0.000160217
-1.74105e-05
-6.29731e-06
-0.00029083
-1.68225e-05
-0.000285122
4.28402e-06
-0.000300769
0.000134903
-0.000257441
2.37002e-05
0.000233781
0.000238197
1.32441e-05
-3.08181e-05
-0.000226621
-3.31057e-05
-0.000291616
2.03461e-05
-0.000226312
0.000206744
0.000254969
-0.000233465
-2.15041e-05
-0.000199188
0.000219066
-0.000185528
-7.29721e-06
0.000204162
0.000131258
0.000137468
3.98789e-06
0.000271005
0.000279958
-0.000305551
2.70956e-06
0.000245162
-1.98393e-05
0.000298716
-0.000278888
-0.0003023
0.000287483
1.48152e-05
-0.000258301
0.000230077
2.82241e-05
-2.64041e-05
-0.000231897
0.000302079
-0.000302216
0.000267219
-1.99901e-05
0.000304578
-0.000284592
0.000286198
-6.66168e-07
-0.000256873
0.000256873
-0.000268202
0.000295865
-0.000145722
-6.76716e-05
-6.7991e-06
0.000295411
-0.000287876
-0.000297259
0.000290257
0.000291637
-0.000278755
0.000290217
-0.000305178
1.47212e-05
3.40513e-05
-0.000237461
0.000211484
2.28762e-05
-1.4523e-05
-0.000248045
0.000231757
-1.4432e-05
0.000297957
-0.000283575
0.000263481
-1.96001e-05
0.000254224
-0.000235464
-1.87601e-05
-3.10121e-05
-0.000273753
0.000304768
1.43283e-05
-0.000297007
0.000282743
-1.45881e-05
0.000233465
-0.000218877
0.000201268
-0.00029571
0.000283367
-1.92437e-05
0.000304715
-0.000285475
0.00025102
-2.68778e-05
0.000297414
-0.000270572
-0.000295804
0.000268793
1.07156e-05
0.000244749
-0.000255465
0.000305207
-0.000312023
6.84397e-06
1.79686e-05
1.55466e-05
0.000286503
-0.00030172
6.33886e-06
0.000283814
2.33809e-06
-0.000318884
-0.000289264
0.000303817
-0.000242481
0.000243657
8.45603e-06
-0.0002264
0.000242772
-0.000293469
0.000274216
0.000284804
-0.00014886
-8.24352e-05
0.000294488
1.44765e-05
3.17357e-05
-0.000195706
0.000165589
-0.00027461
0.000257293
-0.000219535
0.00024982
0.000243411
1.92865e-05
-0.000262697
0.000236019
2.31309e-05
-0.000301698
0.000283361
0.000312432
-1.79807e-05
0.000237945
-0.000257069
1.91241e-05
-0.000222494
0.000247459
0.000294315
1.80428e-05
-0.000166087
-1.44919e-05
0.000298321
-0.000283805
-0.000142013
-0.000266415
0.000159993
0.000106423
-0.000309028
0.000295356
1.3691e-05
-0.000258699
0.000241826
1.68729e-05
-0.000155055
0.000156931
-0.00030626
0.000288448
1.77983e-05
-0.000216068
0.000176811
-9.69084e-06
0.000253101
2.0495e-05
1.74959e-05
-0.0003041
0.000286617
-0.000300263
-7.22891e-06
0.00030749
-0.000249229
0.000220109
-0.000201153
-8.52603e-05
-0.00027346
0.000252258
0.000303816
-0.000286261
-0.000190968
1.81219e-05
1.50665e-05
0.0002845
-0.000299536
-8.80603e-05
0.000239233
-0.000303319
1.95324e-05
0.000283781
-0.000207604
-2.7957e-06
-0.000297708
-0.00016655
2.05297e-05
0.000302776
-0.000288365
-1.4394e-05
-0.00017736
-0.000299206
-0.000175905
-2.26782e-05
0.000243528
0.0002894
1.71223e-05
0.000252869
5.76359e-05
-0.000284964
-0.000247213
-0.00027017
-2.32569e-05
-0.000274588
0.00030026
-0.000262741
0.000282244
-0.000166975
-4.09768e-05
0.000210088
0.000197569
1.56521e-05
-0.000213221
-1.24969e-05
-0.000285739
0.000298269
1.83597e-05
1.86389e-05
-0.000305451
0.000286959
0.000253345
-1.71361e-05
-0.000236209
1.89308e-05
-0.00030481
0.000285919
2.03561e-05
0.000232989
0.000216385
-2.46121e-05
-0.000191773
1.58484e-05
0.000282338
-0.00029822
-0.000248781
0.000117308
-0.000303833
1.86905e-05
0.000285256
0.000224653
-5.16807e-05
-0.000297555
1.23e-05
0.000286339
0.000255837
-2.19801e-05
-0.000233857
-0.000302965
0.000106425
0.000234529
1.70521e-05
-0.000251581
0.000280039
1.68148e-05
0.000304174
-0.000285182
1.76923e-05
-0.000299436
0.000233512
1.84916e-05
-0.000252004
-1.89934e-05
-1.43031e-05
0.000298198
-0.000284154
-0.000280477
0.000300103
-0.000277338
0.000290784
-0.00030316
1.26952e-05
0.000249741
-1.62291e-05
1.15561e-05
0.000250041
-1.55121e-05
0.000298531
-0.000282968
3.95922e-05