/*--------------------------------*- C++ -*----------------------------------*\
  =========                 |
  \\      /  F ield         | OpenFOAM: The Open Source CFD Toolbox
   \\    /   O peration     | Website:  https://openfoam.org
    \\  /    A nd           | Version:  12
     \\/     M anipulation  |
\*---------------------------------------------------------------------------*/
FoamFile
{
    format      ascii;
    class       volScalarField;
    location    "13.2";
    object      T;
}
// * * * * * * * * * * * * * * * * * * * * * * * * * * * * * * * * * * * * * //

dimensions      [0 0 0 1 0 0 0];

internalField   nonuniform List<scalar> 
9801
(
0.836686
0.83935
0.840678
0.841952
0.842968
0.843152
0.842655
0.843166
0.844193
0.845605
0.848696
0.852697
0.855292
0.85689
0.858219
0.859386
0.860258
0.85979
0.859664
0.860507
0.861733
0.863633
0.867507
0.871237
0.873393
0.87489
0.876195
0.877295
0.877039
0.876091
0.876647
0.877813
0.879388
0.882829
0.887465
0.890419
0.892208
0.893556
0.894608
0.894168
0.892689
0.893112
0.8943
0.8959
0.898876
0.904053
0.907865
0.909967
0.911462
0.912661
0.912583
0.910374
0.910169
0.911334
0.912929
0.91567
0.921418
0.926385
0.929086
0.930867
0.93237
0.932516
0.929291
0.927878
0.928933
0.930802
0.93427
0.941377
0.947477
0.950664
0.952665
0.954409
0.954474
0.949742
0.947438
0.948796
0.951459
0.957194
0.966534
0.973105
0.976808
0.979317
0.981427
0.979338
0.97211
0.970333
0.973458
0.978982
0.99138
1.00397
1.01201
1.01871
1.02422
1.02466
1.01834
1.01642
1.0204
1.17895
1.56262
0.840445
0.843376
0.844614
0.845721
0.846619
0.846896
0.846576
0.847093
0.848025
0.849201
0.852012
0.856242
0.858989
0.860638
0.861928
0.863034
0.863859
0.863541
0.863436
0.864137
0.865151
0.866732
0.870644
0.874624
0.876886
0.878403
0.87965
0.880687
0.880547
0.879736
0.88022
0.881209
0.882476
0.885565
0.890364
0.893475
0.895304
0.896659
0.897785
0.897731
0.896427
0.896654
0.897634
0.898901
0.901295
0.906415
0.910506
0.912802
0.914403
0.915703
0.916048
0.914102
0.91356
0.914426
0.915756
0.917979
0.923618
0.928805
0.931717
0.933639
0.935214
0.935734
0.93289
0.931267
0.932065
0.933708
0.936584
0.943402
0.94983
0.953279
0.955395
0.957206
0.957602
0.953451
0.951013
0.952175
0.954515
0.958912
0.967925
0.975222
0.979415
0.982421
0.985027
0.984513
0.977616
0.974983
0.977613
0.982093
0.992042
1.00419
1.01247
1.01949
1.02598
1.02783
1.02207
1.01672
1.01268
1.172
1.58181
0.844458
0.84748
0.848686
0.849757
0.850675
0.851376
0.851403
0.851536
0.852263
0.853302
0.855724
0.860146
0.863164
0.864912
0.866239
0.867367
0.868327
0.868302
0.867914
0.86838
0.869303
0.870702
0.874467
0.878738
0.881177
0.882763
0.884041
0.885164
0.885439
0.88461
0.88473
0.885564
0.886699
0.889284
0.894136
0.897578
0.899568
0.901031
0.902339
0.903077
0.901884
0.901365
0.902054
0.903186
0.905065
0.909975
0.914669
0.917298
0.919044
0.9205
0.921461
0.919893
0.918549
0.919115
0.920361
0.922216
0.927293
0.933138
0.936485
0.93859
0.940314
0.941364
0.939248
0.937171
0.937641
0.939212
0.94142
0.947089
0.954427
0.95856
0.960971
0.963029
0.96421
0.961192
0.958285
0.958922
0.961207
0.964394
0.972625
0.981991
0.987194
0.990513
0.993439
0.99421
0.988511
0.984635
0.986585
0.991105
0.998485
1.01135
1.02207
1.02996
1.03766
1.04211
1.03865
1.03436
1.02782
1.18067
1.60253
0.849735
0.852941
0.854214
0.855352
0.856321
0.857022
0.856826
0.856952
0.857733
0.858813
0.861011
0.865558
0.868904
0.870759
0.872117
0.873262
0.874214
0.874068
0.873431
0.873934
0.874973
0.876391
0.880028
0.884651
0.88731
0.888952
0.890254
0.891393
0.891712
0.890536
0.890474
0.891391
0.892649
0.89493
0.89997
0.904055
0.906244
0.907768
0.909114
0.910002
0.908525
0.907336
0.907974
0.909299
0.911196
0.916049
0.921687
0.924696
0.92647
0.927939
0.928997
0.92732
0.925322
0.925798
0.927304
0.929249
0.933916
0.940658
0.944595
0.946792
0.948557
0.949868
0.948254
0.945399
0.945505
0.947282
0.949552
0.954184
0.962433
0.967717
0.970516
0.972816
0.974677
0.97286
0.968615
0.968361
0.970772
0.973873
0.980049
0.990493
0.997461
1.00142
1.0047
1.00707
1.00381
0.998401
0.998277
1.00293
1.00893
1.01921
1.03118
1.04016
1.04842
1.05564
1.0557
1.05245
1.04206
1.18629
1.62068
0.855765
0.859021
0.860317
0.861519
0.862534
0.863159
0.862942
0.863174
0.864018
0.865135
0.867255
0.871812
0.875359
0.877288
0.878654
0.879787
0.880671
0.880421
0.879892
0.880448
0.88152
0.882936
0.886409
0.891304
0.894201
0.895894
0.897192
0.898298
0.898597
0.897532
0.897466
0.898385
0.899676
0.9017
0.906643
0.91129
0.913689
0.915248
0.916557
0.91739
0.916133
0.914989
0.915652
0.917046
0.91882
0.923041
0.929095
0.932534
0.934436
0.935939
0.93711
0.936011
0.933898
0.934145
0.93563
0.937517
0.941214
0.948175
0.952994
0.955538
0.957435
0.959096
0.958582
0.95514
0.954341
0.956006
0.95834
0.961961
0.969972
0.976776
0.980227
0.982709
0.985005
0.984998
0.980348
0.977947
0.979774
0.98298
0.987429
0.997115
1.00675
1.01215
1.01579
1.01915
1.01901
1.01317
1.00987
1.01199
1.01742
1.02515
1.03671
1.04693
1.05532
1.063
1.06675
1.06419
1.051
1.18884
1.6318
0.862078
0.865446
0.866755
0.867979
0.869044
0.869624
0.869288
0.869566
0.87045
0.871582
0.873589
0.878151
0.881896
0.883944
0.885364
0.88654
0.887485
0.88723
0.886765
0.887355
0.888436
0.88976
0.892848
0.897894
0.901058
0.902864
0.904219
0.905401
0.905872
0.904889
0.904779
0.90566
0.906929
0.908717
0.913292
0.918237
0.920891
0.922583
0.92398
0.925016
0.924104
0.922765
0.923271
0.924577
0.926224
0.929731
0.935857
0.939844
0.942043
0.94374
0.94524
0.945032
0.942425
0.94182
0.943118
0.944966
0.947901
0.954579
0.960515
0.963546
0.965602
0.967469
0.968325
0.965137
0.962517
0.963347
0.965582
0.968484
0.975243
0.983722
0.988417
0.991068
0.993412
0.994825
0.991347
0.987186
0.987132
0.989851
0.993284
1.00001
1.01082
1.01841
1.02322
1.02708
1.0295
1.02612
1.02033
1.01906
1.02233
1.02785
1.03641
1.04669
1.05523
1.06269
1.06819
1.06902
1.0596
1.1889
1.63832
0.867958
0.871327
0.872653
0.873933
0.875064
0.875618
0.875185
0.875498
0.876445
0.877641
0.879684
0.884132
0.887776
0.8898
0.891264
0.892522
0.893574
0.893365
0.892804
0.893407
0.894543
0.895932
0.89883
0.90378
0.907005
0.908844
0.910274
0.911565
0.912302
0.911215
0.910724
0.911579
0.912932
0.914774
0.919146
0.924198
0.926994
0.928771
0.930259
0.93158
0.931301
0.929313
0.929128
0.930343
0.932007
0.935075
0.94118
0.945808
0.948235
0.950019
0.95166
0.952509
0.950169
0.948233
0.948869
0.950578
0.95286
0.958472
0.965619
0.969524
0.971667
0.973514
0.975125
0.973436
0.969788
0.969248
0.970923
0.973248
0.977578
0.986494
0.993395
0.997024
0.999462
1.00161
1.0005
0.995387
0.99287
0.993963
0.996911
1.00103
1.01008
1.02046
1.0269
1.03109
1.03467
1.03543
1.03015
1.02574
1.02576
1.02916
1.03484
1.04404
1.05321
1.06041
1.06585
1.0686
1.06415
1.19102
1.64262
0.873137
0.876562
0.877836
0.879072
0.880164
0.88067
0.880096
0.880286
0.881237
0.882504
0.884653
0.889172
0.892897
0.894871
0.896289
0.897536
0.898662
0.898738
0.897843
0.898098
0.89918
0.900608
0.903397
0.908488
0.91203
0.913908
0.915337
0.916639
0.917672
0.916896
0.915617
0.916049
0.917331
0.919093
0.923222
0.928748
0.931919
0.933726
0.93521
0.936617
0.937147
0.935058
0.933908
0.934704
0.936213
0.938547
0.944275
0.950042
0.952986
0.954797
0.956417
0.95781
0.956527
0.953656
0.953275
0.954542
0.95636
0.960049
0.967786
0.973454
0.976254
0.978162
0.980013
0.97995
0.976
0.973747
0.974301
0.976303
0.979036
0.985908
0.995296
1.00069
1.00378
1.00614
1.00732
1.00298
0.997973
0.997228
0.999216
1.00222
1.00735
1.01781
1.02688
1.03237
1.03627
1.0396
1.03942
1.03361
1.02967
1.03029
1.03381
1.03977
1.04884
1.05678
1.06265
1.06649
1.06663
1.19518
1.6458
0.877231
0.881052
0.882324
0.883521
0.884564
0.88512
0.884477
0.884363
0.885132
0.886274
0.888011
0.892429
0.896942
0.899199
0.900607
0.90183
0.902983
0.903374
0.902275
0.902024
0.90283
0.90406
0.906129
0.911248
0.915864
0.918109
0.919534
0.920805
0.921965
0.921621
0.919885
0.919716
0.92071
0.922125
0.925143
0.931224
0.935539
0.93764
0.939116
0.940505
0.941416
0.939778
0.937911
0.938104
0.939314
0.940953
0.945148
0.952099
0.956313
0.958455
0.960074
0.961575
0.961451
0.958237
0.956682
0.957252
0.958798
0.961048
0.967422
0.975349
0.979496
0.981755
0.983593
0.984587
0.981475
0.977327
0.976711
0.978217
0.98046
0.984262
0.993656
1.00206
1.00618
1.00877
1.01091
1.01066
1.00492
1.00101
1.00098
1.00301
1.00612
1.01272
1.0236
1.03192
1.0371
1.04086
1.04339
1.04192
1.03632
1.03279
1.03357
1.03712
1.04349
1.05247
1.05952
1.06402
1.06722
1.20065
1.64869
0.880003
0.884615
0.886022
0.887198
0.888202
0.88885
0.888269
0.887856
0.888391
0.889387
0.890676
0.894102
0.899519
0.902601
0.904174
0.905387
0.906507
0.907129
0.90605
0.9053
0.905785
0.906842
0.90829
0.912409
0.918168
0.921239
0.922859
0.924132
0.925298
0.925463
0.923529
0.922775
0.92342
0.924636
0.926482
0.931834
0.937608
0.940496
0.942155
0.943561
0.944762
0.943946
0.941353
0.940799
0.941603
0.942993
0.945412
0.952097
0.958202
0.961139
0.96289
0.964416
0.965295
0.962561
0.959497
0.959356
0.960615
0.962416
0.966165
0.974842
0.981264
0.984277
0.986201
0.987748
0.986989
0.981974
0.979373
0.979806
0.981679
0.983961
0.989397
1
1.00703
1.01054
1.01324
1.01548
1.01347
1.00644
1.00326
1.00397
1.00642
1.00993
1.01761
1.0281
1.03558
1.04036
1.04395
1.04606
1.04419
1.03857
1.03515
1.03594
1.03925
1.04602
1.05491
1.06123
1.06655
1.20728
1.65155
0.88161
0.887075
0.888875
0.890137
0.891129
0.891929
0.891575
0.890695
0.890965
0.891865
0.893008
0.895251
0.900681
0.904834
0.906836
0.908156
0.909277
0.910158
0.909442
0.907997
0.908174
0.909112
0.910329
0.913009
0.919033
0.923238
0.925242
0.926621
0.927836
0.928589
0.926988
0.925322
0.925628
0.926666
0.928019
0.931469
0.938202
0.942393
0.944442
0.945916
0.947242
0.947537
0.944778
0.943012
0.943429
0.944651
0.946282
0.950909
0.958637
0.962972
0.965097
0.966651
0.967934
0.966845
0.962776
0.9614
0.962245
0.963867
0.965918
0.972014
0.980976
0.985636
0.988009
0.9898
0.991179
0.988554
0.983292
0.981695
0.982395
0.984311
0.986973
0.994568
1.00555
1.01173
1.01481
1.01713
1.01855
1.01505
1.00857
1.00627
1.00719
1.00969
1.01364
1.02221
1.03203
1.03873
1.0432
1.04661
1.04808
1.04594
1.04035
1.03678
1.03721
1.04004
1.04764
1.0564
1.0641
1.21477
1.65442
0.882642
0.888617
0.890874
0.892339
0.89343
0.894383
0.894607
0.893376
0.893153
0.893916
0.894992
0.896559
0.901083
0.906142
0.908683
0.9102
0.911416
0.912501
0.912572
0.910707
0.910247
0.911019
0.912137
0.913848
0.918987
0.924394
0.927015
0.928567
0.929851
0.930972
0.930414
0.927986
0.927521
0.928344
0.929575
0.931548
0.937571
0.943492
0.946268
0.947895
0.949245
0.950268
0.948548
0.945478
0.945151
0.946161
0.947607
0.950042
0.95722
0.963848
0.966844
0.968569
0.970023
0.970741
0.967441
0.964095
0.963861
0.964925
0.966636
0.969509
0.977876
0.985974
0.989752
0.992057
0.993918
0.994516
0.989462
0.984478
0.9838
0.985089
0.987203
0.990359
0.999397
1.00981
1.01491
1.01775
1.02041
1.02204
1.01764
1.01104
1.00911
1.01033
1.01302
1.01746
1.02644
1.03538
1.04141
1.04561
1.04883
1.04996
1.04741
1.04149
1.03735
1.03718
1.03991
1.04857
1.05918
1.22228
1.65695
0.883591
0.889631
0.89234
0.893993
0.895218
0.896294
0.897098
0.896235
0.89531
0.895811
0.896794
0.898023
0.901344
0.906855
0.910079
0.911812
0.91314
0.914323
0.915098
0.913663
0.912344
0.912782
0.913797
0.915091
0.918676
0.924857
0.928421
0.930229
0.931601
0.932845
0.933366
0.931081
0.929499
0.92998
0.9311
0.932495
0.936385
0.943523
0.947621
0.949599
0.951023
0.952296
0.952247
0.948873
0.947148
0.947675
0.948922
0.950468
0.954752
0.963101
0.96805
0.970368
0.971969
0.973415
0.972766
0.96804
0.965554
0.965888
0.967331
0.969197
0.973653
0.983684
0.990576
0.993488
0.995327
0.997043
0.996889
0.991058
0.986848
0.98643
0.987504
0.989578
0.993599
1.00411
1.01409
1.01903
1.02177
1.02404
1.02455
1.01963
1.01376
1.01214
1.01333
1.01602
1.0211
1.03055
1.03883
1.04416
1.04781
1.0506
1.05143
1.04857
1.04193
1.03677
1.0361
1.03945
1.05168
1.22753
1.65871
0.884578
0.890394
0.893626
0.895477
0.896822
0.897989
0.899039
0.898985
0.897613
0.897673
0.898505
0.899591
0.901829
0.907212
0.911299
0.913316
0.914735
0.915964
0.917035
0.916558
0.914639
0.914549
0.915432
0.916602
0.918766
0.924638
0.929526
0.931821
0.933295
0.934575
0.935654
0.934531
0.931946
0.931686
0.932587
0.933826
0.935864
0.94223
0.948418
0.951202
0.952794
0.954157
0.95523
0.953259
0.949823
0.949219
0.949998
0.951406
0.953526
0.960313
0.9683
0.97205
0.974109
0.975642
0.976777
0.973966
0.968951
0.967632
0.968379
0.969903
0.971959
0.978209
0.98856
0.994162
0.996959
0.999192
1.00104
0.999334
0.992278
0.988594
0.988839
0.990479
0.992798
0.997335
1.00813
1.01727
1.02162
1.02425
1.02676
1.02744
1.02235
1.01637
1.01474
1.016
1.01886
1.02468
1.03429
1.0418
1.04648
1.04977
1.05223
1.05265
1.04924
1.04165
1.03542
1.03396
1.0415
1.22864
1.6595
0.885615
0.890947
0.894936
0.897057
0.898478
0.899689
0.900798
0.901345
0.899999
0.899494
0.900156
0.901187
0.902724
0.907275
0.912341
0.914857
0.916363
0.917623
0.918783
0.919164
0.917249
0.916428
0.917082
0.918159
0.919538
0.923805
0.930081
0.933344
0.935025
0.936356
0.937587
0.937837
0.935105
0.93357
0.934006
0.935083
0.936479
0.940386
0.948076
0.952593
0.954676
0.956074
0.957384
0.957451
0.953559
0.951022
0.951299
0.952518
0.954063
0.957396
0.966098
0.972734
0.975511
0.977237
0.978796
0.979544
0.975262
0.970653
0.969808
0.970513
0.972098
0.974691
0.983017
0.993404
0.998283
1.00051
1.00213
1.00365
1.00142
0.994776
0.991792
0.99193
0.993115
0.995297
1.00064
1.01183
1.02044
1.02478
1.02747
1.02964
1.02971
1.0247
1.01895
1.01717
1.01826
1.02107
1.0277
1.03755
1.04451
1.04853
1.05138
1.0534
1.05338
1.0495
1.04069
1.03304
1.03141
1.22461
1.65927
0.886844
0.891293
0.896182
0.8988
0.900252
0.901463
0.90257
0.903401
0.902366
0.901318
0.901778
0.902752
0.903951
0.907091
0.912927
0.916401
0.918103
0.919407
0.920591
0.921492
0.920205
0.918497
0.918671
0.91956
0.920747
0.923147
0.92961
0.934607
0.936845
0.938221
0.939456
0.940472
0.938855
0.935861
0.935467
0.936345
0.93763
0.939583
0.945956
0.953138
0.956374
0.958072
0.959353
0.960457
0.958616
0.954337
0.953129
0.953711
0.954968
0.956683
0.961831
0.9713
0.976652
0.979153
0.98095
0.982465
0.981895
0.975995
0.972057
0.971975
0.973219
0.974888
0.977774
0.987085
0.996628
1.00077
1.00337
1.00571
1.00726
1.00386
0.996702
0.993703
0.994182
0.995898
0.998349
1.004
1.01493
1.023
1.02709
1.02975
1.03201
1.03222
1.02695
1.02083
1.01884
1.01992
1.02283
1.03016
1.03999
1.04631
1.0499
1.05267
1.05425
1.05384
1.04886
1.03724
1.02725
1.21564
1.65849
0.888272
0.891578
0.896957
0.900516
0.902116
0.903322
0.904412
0.905358
0.904815
0.903309
0.903409
0.904243
0.905321
0.90712
0.912577
0.91769
0.920003
0.921332
0.922516
0.923591
0.923283
0.920903
0.920224
0.920887
0.921997
0.923439
0.928053
0.935002
0.938458
0.940111
0.941346
0.942521
0.942553
0.939198
0.937334
0.937779
0.938878
0.940217
0.943355
0.951491
0.95729
0.959734
0.96126
0.96259
0.963267
0.959618
0.955583
0.954983
0.95584
0.957281
0.959479
0.966757
0.976086
0.980343
0.982239
0.983597
0.985193
0.984097
0.977949
0.974746
0.974535
0.975314
0.976978
0.980616
0.991225
1.00075
1.00471
1.00672
1.00838
1.00964
1.00625
0.999492
0.996735
0.996938
0.99822
1.00058
1.0072
1.01834
1.02575
1.02954
1.03208
1.03409
1.03404
1.02891
1.02264
1.02036
1.02117
1.02401
1.03184
1.04172
1.04766
1.05096
1.05352
1.05462
1.05375
1.04533
1.03074
1.20518
1.65792
0.889716
0.892064
0.896783
0.901836
0.904043
0.905274
0.906357
0.907344
0.907389
0.905598
0.905025
0.905639
0.906659
0.907906
0.911446
0.918044
0.921679
0.923325
0.924492
0.925574
0.926116
0.92397
0.922085
0.922344
0.923316
0.924503
0.926667
0.933477
0.939413
0.941906
0.943258
0.94446
0.945475
0.943713
0.940152
0.939367
0.939983
0.941127
0.942696
0.947825
0.956516
0.961103
0.963273
0.964794
0.966089
0.965463
0.960238
0.95713
0.957278
0.958425
0.959831
0.962375
0.971004
0.979556
0.983178
0.985421
0.987271
0.988672
0.985993
0.979131
0.976204
0.976642
0.97806
0.979798
0.983549
0.99429
1.003
1.00662
1.00912
1.01144
1.01273
1.00872
1.00155
0.998567
0.99903
1.00084
1.00357
1.0105
1.02101
1.02777
1.03141
1.03403
1.03623
1.03638
1.03064
1.02375
1.02127
1.02204
1.02488
1.03296
1.0427
1.04829
1.05156
1.05383
1.05473
1.05143
1.04024
1.19793
1.6581
0.89106
0.893036
0.895938
0.902253
0.905737
0.907265
0.908342
0.909321
0.909908
0.908388
0.906846
0.907114
0.908046
0.909159
0.910862
0.916666
0.922594
0.925154
0.926456
0.927574
0.928553
0.927739
0.924801
0.924002
0.924618
0.925626
0.926882
0.930726
0.938703
0.943208
0.945198
0.946433
0.947627
0.947948
0.944348
0.941281
0.941225
0.942231
0.943539
0.945583
0.95273
0.960887
0.964383
0.966162
0.967538
0.968928
0.967458
0.961869
0.959431
0.959532
0.96041
0.961903
0.96539
0.975373
0.98354
0.986752
0.988358
0.989718
0.991152
0.988257
0.98175
0.979243
0.979228
0.980003
0.981656
0.986146
0.997745
1.00658
1.01014
1.01211
1.01381
1.01487
1.01126
1.00455
1.00159
1.00163
1.00291
1.00549
1.01329
1.02395
1.0304
1.03378
1.0362
1.03812
1.03809
1.03227
1.02502
1.02224
1.02274
1.02537
1.03344
1.04295
1.04846
1.05179
1.05403
1.05368
1.04924
1.19661
1.65936
0.892393
0.894292
0.8957
0.901171
0.906699
0.90911
0.910289
0.9113
0.912201
0.911742
0.909393
0.908771
0.909409
0.9104
0.911536
0.914601
0.921895
0.926399
0.928374
0.929552
0.930635
0.9312
0.928707
0.926018
0.925915
0.926801
0.927955
0.929601
0.935586
0.94326
0.946666
0.948378
0.949547
0.95069
0.949612
0.945016
0.943133
0.943592
0.944588
0.945841
0.948589
0.957229
0.964476
0.96748
0.969399
0.970988
0.972069
0.968856
0.96288
0.960986
0.961706
0.963018
0.964466
0.968261
0.978609
0.98594
0.988977
0.991315
0.993255
0.994354
0.990381
0.983356
0.980663
0.981188
0.982659
0.984488
0.988922
1.0001
1.00826
1.01172
1.01422
1.0165
1.0177
1.01401
1.00674
1.00312
1.00313
1.00483
1.00782
1.01598
1.02619
1.03215
1.03551
1.03819
1.04027
1.0402
1.03377
1.0259
1.02281
1.02315
1.02545
1.03319
1.04264
1.04835
1.05207
1.05329
1.05505
1.2007
1.66161
0.893827
0.895604
0.896501
0.899477
0.906196
0.910268
0.912081
0.913206
0.914251
0.914924
0.913043
0.910792
0.910763
0.911584
0.912684
0.914169
0.919469
0.926585
0.92976
0.931344
0.932455
0.933493
0.933055
0.929326
0.927603
0.928123
0.929215
0.930364
0.932686
0.940405
0.947056
0.949736
0.951341
0.952582
0.953542
0.950975
0.946297
0.94501
0.945546
0.946597
0.948018
0.952032
0.961644
0.968039
0.970564
0.972033
0.973371
0.974468
0.970794
0.965191
0.963666
0.963898
0.964788
0.966381
0.971181
0.982338
0.989681
0.992499
0.994007
0.995396
0.996603
0.99303
0.986379
0.983841
0.9838
0.984482
0.986142
0.991159
1.00307
1.01157
1.01499
1.01692
1.01864
1.01971
1.01647
1.00925
1.00542
1.00506
1.00631
1.00919
1.01798
1.02872
1.03491
1.03808
1.04026
1.0418
1.04146
1.03508
1.0268
1.0232
1.0232
1.02502
1.0325
1.04208
1.04854
1.05132
1.05756
1.20911
1.6645
0.895366
0.896831
0.897667
0.899146
0.904269
0.910668
0.913537
0.91501
0.916081
0.917075
0.916942
0.913902
0.91243
0.912945
0.913996
0.915148
0.917505
0.924602
0.930346
0.932661
0.934012
0.93517
0.936124
0.93423
0.930464
0.929702
0.930343
0.931334
0.932578
0.936279
0.945005
0.950547
0.952926
0.954524
0.955795
0.956207
0.951956
0.947495
0.946884
0.947849
0.949039
0.950431
0.955234
0.965168
0.970764
0.973227
0.975137
0.97676
0.977222
0.972243
0.966422
0.965108
0.966031
0.967422
0.968986
0.973804
0.984701
0.991413
0.994304
0.996681
0.998611
0.999586
0.995529
0.988339
0.985205
0.985481
0.986923
0.988926
0.993959
1.00522
1.013
1.01638
1.01874
1.02085
1.02207
1.01874
1.01114
1.00683
1.00642
1.00799
1.01113
1.01988
1.03023
1.03615
1.03935
1.04157
1.04311
1.04289
1.03655
1.02774
1.02339
1.02283
1.02412
1.03156
1.04165
1.04763
1.05757
1.21923
1.66757
0.897286
0.898155
0.899044
0.900135
0.902741
0.909503
0.914342
0.916367
0.91759
0.918669
0.9196
0.918195
0.91506
0.914587
0.915329
0.916348
0.917546
0.921445
0.929364
0.933715
0.935611
0.936814
0.937947
0.938408
0.934965
0.931668
0.931512
0.932475
0.933646
0.935068
0.940291
0.949184
0.953695
0.955687
0.95711
0.958428
0.958457
0.953545
0.949689
0.949309
0.949879
0.950961
0.952663
0.95877
0.96893
0.974182
0.976314
0.977542
0.978919
0.979549
0.974603
0.969213
0.968012
0.968204
0.969041
0.97069
0.97633
0.987931
0.99498
0.997635
0.999078
1.00044
1.00166
0.998408
0.99142
0.988329
0.988179
0.988858
0.990491
0.995888
1.0078
1.01587
1.01914
1.02093
1.02261
1.02416
1.02158
1.01392
1.0092
1.00835
1.00925
1.01164
1.02019
1.03111
1.03761
1.04101
1.04306
1.04431
1.04415
1.03806
1.02863
1.0232
1.02191
1.02265
1.03067
1.04035
1.05403
1.22937
1.67025
0.899934
0.899772
0.900511
0.901506
0.902782
0.907199
0.914087
0.917428
0.919051
0.920196
0.921277
0.921778
0.918959
0.916533
0.916638
0.91754
0.918641
0.920294
0.926111
0.933587
0.936856
0.938424
0.939515
0.940655
0.940097
0.935592
0.933412
0.933791
0.934761
0.935846
0.937543
0.944205
0.952778
0.956634
0.958596
0.960166
0.961476
0.960539
0.9546
0.951005
0.951055
0.952221
0.953461
0.955097
0.961675
0.971558
0.976267
0.97859
0.980553
0.982128
0.982186
0.97654
0.970694
0.969299
0.97017
0.971615
0.973332
0.978671
0.989717
0.996219
0.999066
1.00141
1.00329
1.00436
1.00105
0.993751
0.989805
0.989564
0.990881
0.992923
0.998324
1.00945
1.0169
1.02041
1.02312
1.02526
1.02661
1.02373
1.01546
1.00985
1.00868
1.00978
1.01231
1.02068
1.03211
1.03911
1.04246
1.04413
1.04508
1.04488
1.03936
1.0295
1.02259
1.02024
1.0211
1.02932
1.04678
1.23752
1.67195
0.903261
0.901744
0.902001
0.902837
0.903834
0.905815
0.912094
0.917948
0.920338
0.921628
0.922717
0.923792
0.923226
0.919605
0.918307
0.918901
0.919944
0.921022
0.923187
0.930499
0.937103
0.939731
0.941202
0.942344
0.943366
0.941375
0.936716
0.935266
0.935724
0.936693
0.937918
0.940235
0.948169
0.956165
0.959477
0.961116
0.962311
0.963622
0.962557
0.956696
0.953672
0.953565
0.954096
0.955238
0.957246
0.964774
0.974906
0.979627
0.98154
0.982674
0.984092
0.98463
0.979397
0.973723
0.972281
0.97241
0.973137
0.974793
0.980675
0.992423
0.999486
1.00213
1.00354
1.00492
1.00641
1.00411
0.996797
0.992585
0.991983
0.992577
0.994133
0.999596
1.01155
1.01989
1.02334
1.02515
1.02665
1.02808
1.02584
1.01767
1.01174
1.0103
1.01098
1.0131
1.02115
1.03278
1.03996
1.04309
1.04454
1.04547
1.04538
1.04068
1.03052
1.02158
1.0182
1.01854
1.03618
1.24149
1.67245
0.906621
0.904314
0.903556
0.904237
0.905234
0.906306
0.90941
0.916643
0.921142
0.923046
0.924236
0.925375
0.926282
0.924159
0.920831
0.920406
0.921062
0.921993
0.923144
0.926316
0.934681
0.940416
0.94275
0.944137
0.945269
0.945926
0.942354
0.937782
0.937016
0.93792
0.939103
0.940246
0.942806
0.951484
0.958925
0.961906
0.963746
0.965331
0.966539
0.9645
0.958098
0.954948
0.955209
0.95641
0.957697
0.959584
0.96709
0.976815
0.981214
0.983572
0.985556
0.987112
0.987254
0.981853
0.975482
0.973464
0.974093
0.975524
0.977324
0.982773
0.99379
1.0004
1.00337
1.00574
1.00762
1.00891
1.00661
0.999159
0.99406
0.993098
0.994205
0.996151
1.00151
1.01284
1.02067
1.02417
1.02674
1.02893
1.03044
1.02848
1.02021
1.01356
1.01143
1.0118
1.01338
1.02077
1.03286
1.04034
1.04332
1.04468
1.04577
1.04586
1.04189
1.03114
1.02062
1.01467
1.02264
1.23854
1.67141
0.909321
0.907884
0.905565
0.905716
0.906491
0.907387
0.908584
0.91328
0.920826
0.924376
0.926007
0.927118
0.928188
0.928335
0.924709
0.922062
0.92215
0.92308
0.924165
0.925408
0.929701
0.93847
0.943362
0.945463
0.946871
0.948032
0.948257
0.943936
0.940016
0.939526
0.94003
0.940958
0.942259
0.94565
0.955005
0.962044
0.964819
0.966223
0.967338
0.968663
0.966877
0.960666
0.957827
0.957688
0.958116
0.959268
0.961425
0.969681
0.979932
0.98451
0.986345
0.987429
0.988846
0.989661
0.98505
0.978588
0.976447
0.976455
0.977053
0.978592
0.984215
0.996051
1.0035
1.00632
1.00777
1.00911
1.01075
1.0095
1.00218
0.996625
0.99532
0.995696
0.997048
1.00197
1.01403
1.02326
1.02728
1.02926
1.03095
1.03231
1.03056
1.02225
1.01465
1.01182
1.01201
1.01362
1.02062
1.03281
1.04052
1.0434
1.04475
1.04595
1.04607
1.04255
1.03118
1.01744
1.01371
1.22867
1.66921
0.911288
0.911676
0.908323
0.907003
0.90739
0.908289
0.909363
0.911283
0.917844
0.924734
0.927529
0.928861
0.92983
0.930818
0.929778
0.925433
0.923799
0.924273
0.925191
0.926172
0.927536
0.932934
0.941789
0.946228
0.948288
0.949809
0.951065
0.950692
0.945332
0.94133
0.941114
0.942155
0.943349
0.944544
0.948054
0.957619
0.964184
0.966838
0.96878
0.970386
0.971522
0.969094
0.962394
0.959013
0.959155
0.960328
0.961705
0.963717
0.971564
0.981294
0.985687
0.988055
0.990091
0.991671
0.992247
0.987748
0.980707
0.977629
0.977832
0.979166
0.980983
0.986282
0.997236
1.00423
1.00741
1.00984
1.01173
1.01313
1.01186
1.00456
0.998178
0.996287
0.997026
0.998785
1.00335
1.01471
1.02407
1.02828
1.03049
1.03218
1.03345
1.03236
1.02475
1.01653
1.01298
1.01264
1.01385
1.02022
1.03238
1.04013
1.04299
1.04462
1.04599
1.04606
1.04247
1.02784
1.01384
1.2147
1.66747
0.913013
0.914289
0.912048
0.908888
0.908598
0.909437
0.910527
0.911641
0.914275
0.921996
0.928011
0.930431
0.931743
0.932731
0.933508
0.930937
0.926601
0.925528
0.925997
0.926914
0.928079
0.92983
0.936309
0.944953
0.948928
0.950731
0.952022
0.953224
0.952847
0.9476
0.944019
0.943658
0.944071
0.944956
0.946353
0.950632
0.960683
0.967294
0.969817
0.971092
0.972179
0.973541
0.971774
0.965303
0.96204
0.961757
0.962077
0.963106
0.965201
0.973568
0.984095
0.988871
0.99076
0.991834
0.993173
0.994372
0.991017
0.983824
0.980558
0.980299
0.980818
0.982199
0.987238
0.99904
1.00716
1.0103
1.01182
1.01311
1.01478
1.0146
1.00781
1.00085
0.998514
0.998467
0.999465
1.00311
1.01449
1.02487
1.02948
1.03162
1.03358
1.03526
1.03474
1.02731
1.01793
1.0134
1.01278
1.01383
1.01953
1.03149
1.03935
1.04242
1.04446
1.04589
1.04604
1.03921
1.02472
1.20318
1.66684
0.914649
0.916036
0.915952
0.91244
0.910431
0.910765
0.91162
0.912589
0.913789
0.917322
0.925812
0.931222
0.933385
0.934601
0.93556
0.935905
0.931941
0.927667
0.927122
0.928056
0.92925
0.930312
0.93207
0.939206
0.947671
0.951344
0.953232
0.954806
0.956104
0.955179
0.949187
0.94521
0.945022
0.946072
0.947285
0.948565
0.952721
0.962654
0.968878
0.971459
0.973454
0.975076
0.976267
0.974303
0.967513
0.96333
0.962951
0.964001
0.965436
0.967497
0.975151
0.985063
0.989728
0.992146
0.994239
0.995834
0.996806
0.993735
0.986289
0.98195
0.981504
0.982667
0.984427
0.989069
0.999826
1.00752
1.01108
1.01376
1.01578
1.0173
1.01693
1.01017
1.00238
0.999164
0.999271
1.00069
1.00412
1.01451
1.02567
1.03139
1.03373
1.03532
1.03661
1.03606
1.02911
1.01908
1.01375
1.01281
1.01378
1.01882
1.0303
1.03828
1.04193
1.04431
1.04592
1.04411
1.0379
1.19904
1.66762
0.91641
0.917687
0.918553
0.917225
0.913315
0.912098
0.912666
0.913704
0.914772
0.916112
0.920578
0.929167
0.933893
0.935938
0.937242
0.938274
0.938125
0.933526
0.929924
0.92961
0.930138
0.931032
0.93222
0.934512
0.942389
0.950588
0.954066
0.955684
0.956726
0.957923
0.957395
0.951767
0.948034
0.947614
0.947923
0.948755
0.95018
0.954853
0.965256
0.971891
0.974385
0.975629
0.976725
0.978145
0.977185
0.970747
0.966414
0.965701
0.965905
0.966757
0.968675
0.976469
0.987398
0.992767
0.994818
0.995941
0.997242
0.99869
0.996896
0.989557
0.984873
0.983997
0.984247
0.985354
0.989359
1.0008
1.01027
1.01414
1.01585
1.01701
1.01859
1.01921
1.01352
1.00517
1.00144
1.00092
1.00165
1.00405
1.01387
1.02589
1.03193
1.03442
1.03604
1.03724
1.03711
1.03123
1.02066
1.01434
1.01302
1.01363
1.01776
1.02866
1.03701
1.04128
1.04424
1.04467
1.04665
1.2024
1.66973
0.91758
0.919332
0.920247
0.921043
0.918539
0.914772
0.914191
0.91493
0.915911
0.916869
0.918187
0.923321
0.932046
0.936504
0.9385
0.939914
0.941053
0.940581
0.935259
0.931368
0.93118
0.932225
0.933436
0.934519
0.936683
0.944845
0.952786
0.955992
0.957849
0.959458
0.960739
0.959806
0.953712
0.949291
0.948805
0.949792
0.951065
0.952414
0.956622
0.966639
0.973031
0.975746
0.977854
0.979506
0.98079
0.979826
0.973434
0.968007
0.966733
0.967562
0.968934
0.970925
0.977792
0.988038
0.993334
0.995971
0.998217
0.999884
1.00115
0.9995
0.992183
0.986361
0.984916
0.985758
0.987344
0.990992
1.00124
1.01027
1.01444
1.0172
1.01948
1.0211
1.02151
1.01601
1.0071
1.00228
1.00143
1.00245
1.00477
1.0134
1.0254
1.03198
1.03484
1.03683
1.03829
1.03854
1.03309
1.02193
1.01465
1.01283
1.01315
1.01641
1.02676
1.03555
1.04111
1.04304
1.05103
1.21131
1.67268
0.917547
0.921071
0.922236
0.923369
0.923641
0.919799
0.916413
0.916096
0.916681
0.917568
0.918678
0.920337
0.926148
0.934698
0.938845
0.94067
0.942018
0.943162
0.942748
0.937709
0.934185
0.933866
0.934281
0.935097
0.936289
0.938955
0.947602
0.955536
0.958767
0.960262
0.961194
0.962461
0.96222
0.956661
0.952294
0.951557
0.951755
0.952429
0.953794
0.958234
0.96885
0.976017
0.9787
0.980004
0.981021
0.982464
0.982552
0.976899
0.971139
0.969584
0.969671
0.970303
0.971876
0.978477
0.98987
0.996315
0.998757
0.999992
1.00122
1.00279
1.00238
0.99561
0.989353
0.987511
0.987403
0.988138
0.990851
1.00101
1.01224
1.01752
1.01959
1.02079
1.02218
1.02329
1.01932
1.01006
1.00428
1.00287
1.00328
1.00483
1.01214
1.02497
1.03309
1.03643
1.03793
1.03875
1.03889
1.03445
1.02351
1.01526
1.01255
1.01229
1.01472
1.02475
1.03476
1.03957
1.05241
1.22273
1.67594
0.914783
0.922071
0.924003
0.925275
0.926242
0.925735
0.920937
0.917828
0.91782
0.918735
0.919765
0.920717
0.922208
0.928527
0.937195
0.941178
0.943048
0.944545
0.945798
0.945209
0.939645
0.935557
0.935232
0.936217
0.937398
0.938496
0.940879
0.949461
0.957187
0.960297
0.962236
0.963888
0.965204
0.964813
0.959135
0.953827
0.952591
0.953383
0.954656
0.95609
0.959954
0.969881
0.976799
0.979749
0.981924
0.983672
0.985057
0.985129
0.979834
0.973138
0.970628
0.971019
0.972293
0.974108
0.979761
0.990272
0.996589
0.999609
1.00209
1.00392
1.00533
1.00489
0.998369
0.99102
0.988175
0.988447
0.989836
0.992476
1.00123
1.01198
1.01743
1.02036
1.02283
1.02452
1.02541
1.02166
1.01217
1.00544
1.0035
1.00409
1.0057
1.01199
1.02432
1.03274
1.03634
1.03811
1.03905
1.0394
1.03587
1.02522
1.01586
1.01189
1.01087
1.01275
1.02343
1.03265
1.05009
1.23428
1.67885
0.910104
0.92045
0.924758
0.926694
0.927935
0.928879
0.927653
0.922604
0.919997
0.919957
0.920398
0.92126
0.922451
0.924512
0.93152
0.93989
0.943669
0.945376
0.946508
0.947573
0.947352
0.942333
0.93843
0.937891
0.938151
0.938834
0.940024
0.942806
0.951761
0.959858
0.963142
0.964611
0.965546
0.966861
0.96729
0.962464