/*--------------------------------*- C++ -*----------------------------------*\
  =========                 |
  \\      /  F ield         | OpenFOAM: The Open Source CFD Toolbox
   \\    /   O peration     | Website:  https://openfoam.org
    \\  /    A nd           | Version:  12
     \\/     M anipulation  |
\*---------------------------------------------------------------------------*/
FoamFile
{
    format      ascii;
    class       volVectorField;
    location    "13.2";
    object      U;
}
// * * * * * * * * * * * * * * * * * * * * * * * * * * * * * * * * * * * * * //

dimensions      [0 1 -1 0 0 0 0];

internalField   nonuniform List<vector> 
9801
(
(1.16949 -0.0672122 0)
(1.16383 -0.0620182 0)
(1.15983 -0.0591924 0)
(1.15665 -0.0570112 0)
(1.15344 -0.0556608 0)
(1.15115 -0.0539239 0)
(1.15402 -0.0523709 0)
(1.16023 -0.0499376 0)
(1.1617 -0.0470295 0)
(1.15981 -0.0443309 0)
(1.15633 -0.0419012 0)
(1.15121 -0.0390742 0)
(1.1455 -0.0357404 0)
(1.14146 -0.0329649 0)
(1.13814 -0.0309959 0)
(1.13483 -0.0296358 0)
(1.13192 -0.0282023 0)
(1.13265 -0.0265806 0)
(1.13834 -0.0247692 0)
(1.1411 -0.0222971 0)
(1.13983 -0.0199399 0)
(1.13661 -0.01792 0)
(1.13181 -0.0157377 0)
(1.12554 -0.0129281 0)
(1.12075 -0.0101407 0)
(1.1171 -0.00798066 0)
(1.11358 -0.00655229 0)
(1.11013 -0.00539754 0)
(1.10862 -0.00391885 0)
(1.11329 -0.00229233 0)
(1.11765 -0.000313242 0)
(1.11701 0.00159098 0)
(1.11373 0.00303206 0)
(1.10848 0.00451237 0)
(1.10062 0.00632166 0)
(1.09443 0.00881148 0)
(1.09004 0.0111698 0)
(1.08624 0.0126898 0)
(1.08246 0.0134895 0)
(1.07963 0.0147228 0)
(1.08417 0.0163032 0)
(1.09053 0.018219 0)
(1.09052 0.0198656 0)
(1.08687 0.0208269 0)
(1.08084 0.0216762 0)
(1.07088 0.0226709 0)
(1.06253 0.0244355 0)
(1.05709 0.0265405 0)
(1.05254 0.0279703 0)
(1.04829 0.0287515 0)
(1.04463 0.0294122 0)
(1.04846 0.0308458 0)
(1.05666 0.0326678 0)
(1.05736 0.0341274 0)
(1.05342 0.034747 0)
(1.04652 0.0352266 0)
(1.03371 0.0354607 0)
(1.02277 0.0363752 0)
(1.01575 0.0380549 0)
(1.01032 0.0395188 0)
(1.00532 0.0404225 0)
(1.00143 0.0410629 0)
(1.00541 0.0421623 0)
(1.01393 0.0430772 0)
(1.01485 0.0434659 0)
(1.01066 0.0436169 0)
(1.00322 0.0439737 0)
(0.987185 0.0439577 0)
(0.971171 0.0451177 0)
(0.961603 0.047419 0)
(0.955188 0.0497456 0)
(0.949307 0.0509117 0)
(0.945611 0.0517579 0)
(0.953112 0.0518212 0)
(0.961732 0.051912 0)
(0.961309 0.0534413 0)
(0.955717 0.0547195 0)
(0.945647 0.0566144 0)
(0.923518 0.0582052 0)
(0.900606 0.0601499 0)
(0.886301 0.0618956 0)
(0.877419 0.062516 0)
(0.870208 0.0617979 0)
(0.874607 0.0602561 0)
(0.888493 0.0605857 0)
(0.888606 0.0628491 0)
(0.881072 0.0659044 0)
(0.870801 0.0684743 0)
(0.852491 0.0703812 0)
(0.817206 0.0698055 0)
(0.782348 0.0673263 0)
(0.761438 0.061889 0)
(0.747766 0.0584624 0)
(0.748891 0.0542871 0)
(0.755453 0.0464988 0)
(0.73639 0.0338754 0)
(0.705903 0.0233533 0)
(0.228286 -0.0657416 0)
(-0.834573 -0.0472248 0)
(1.2449 -0.118981 0)
(1.23535 -0.113282 0)
(1.23025 -0.110667 0)
(1.22601 -0.108532 0)
(1.22238 -0.106905 0)
(1.22158 -0.104785 0)
(1.22672 -0.103073 0)
(1.22821 -0.100391 0)
(1.2255 -0.0966279 0)
(1.22146 -0.093392 0)
(1.21696 -0.0909217 0)
(1.2108 -0.087934 0)
(1.20214 -0.0844522 0)
(1.19605 -0.0817272 0)
(1.19134 -0.0795371 0)
(1.18734 -0.0779149 0)
(1.18409 -0.0761757 0)
(1.18602 -0.073772 0)
(1.19015 -0.0711137 0)
(1.1892 -0.067742 0)
(1.1857 -0.0646348 0)
(1.18143 -0.0623574 0)
(1.17632 -0.0600667 0)
(1.16733 -0.0570629 0)
(1.15964 -0.0542774 0)
(1.1541 -0.0519461 0)
(1.1495 -0.0500763 0)
(1.14547 -0.0485683 0)
(1.14367 -0.0463401 0)
(1.14813 -0.0433263 0)
(1.14998 -0.0401621 0)
(1.14739 -0.0373152 0)
(1.14336 -0.0352646 0)
(1.1389 -0.0336545 0)
(1.13015 -0.0314566 0)
(1.12021 -0.0286734 0)
(1.11354 -0.0261046 0)
(1.10842 -0.0240598 0)
(1.10404 -0.0225929 0)
(1.1006 -0.0208698 0)
(1.10374 -0.01788 0)
(1.10832 -0.0143442 0)
(1.10694 -0.0115416 0)
(1.10299 -0.00976163 0)
(1.09868 -0.00867983 0)
(1.08927 -0.00715323 0)
(1.07728 -0.00479274 0)
(1.06942 -0.00218376 0)
(1.06368 -3.82167e-05 0)
(1.05899 0.00141787 0)
(1.05506 0.00276693 0)
(1.0571 0.00543387 0)
(1.06338 0.00911468 0)
(1.06311 0.0121022 0)
(1.05921 0.0138562 0)
(1.05465 0.0146644 0)
(1.04457 0.0154036 0)
(1.0306 0.0168219 0)
(1.02125 0.0193861 0)
(1.01467 0.0217114 0)
(1.00899 0.0232567 0)
(1.00446 0.0240721 0)
(1.00726 0.0266484 0)
(1.01506 0.0301159 0)
(1.01518 0.033039 0)
(1.01086 0.0349784 0)
(1.00526 0.036093 0)
(0.992889 0.0367271 0)
(0.975095 0.0370174 0)
(0.963801 0.0380043 0)
(0.95658 0.0392487 0)
(0.950342 0.0399664 0)
(0.946478 0.0411651 0)
(0.953549 0.044343 0)
(0.960465 0.0487293 0)
(0.958762 0.0517998 0)
(0.953461 0.0541548 0)
(0.946192 0.0553292 0)
(0.929016 0.0539819 0)
(0.90417 0.0513285 0)
(0.888681 0.0512606 0)
(0.879051 0.0513827 0)
(0.871462 0.0515734 0)
(0.872319 0.0536721 0)
(0.881811 0.0603085 0)
(0.883678 0.0677499 0)
(0.877732 0.071022 0)
(0.868561 0.071028 0)
(0.853416 0.0690583 0)
(0.821077 0.0630175 0)
(0.784327 0.055279 0)
(0.757472 0.0519862 0)
(0.740655 0.0505253 0)
(0.732169 0.053226 0)
(0.732479 0.0551576 0)
(0.717856 0.046478 0)
(0.697717 0.0408334 0)
(0.226647 -0.0632215 0)
(-0.847669 -0.0586202 0)
(1.24059 -0.115978 0)
(1.23121 -0.110723 0)
(1.22606 -0.108066 0)
(1.22156 -0.105591 0)
(1.21777 -0.103549 0)
(1.21694 -0.101039 0)
(1.22131 -0.0986754 0)
(1.22272 -0.0964626 0)
(1.22066 -0.0938108 0)
(1.21702 -0.0908319 0)
(1.21253 -0.0880488 0)
(1.20666 -0.0850956 0)
(1.19846 -0.0824353 0)
(1.19227 -0.0801597 0)
(1.18723 -0.0777789 0)
(1.18296 -0.0756548 0)
(1.17943 -0.0735538 0)
(1.18077 -0.0704043 0)
(1.18489 -0.0673679 0)
(1.18456 -0.0647739 0)
(1.18155 -0.0621835 0)
(1.17739 -0.0598665 0)
(1.17247 -0.0577125 0)
(1.1641 -0.0555841 0)
(1.15628 -0.0536607 0)
(1.15041 -0.051403 0)
(1.14547 -0.0488978 0)
(1.14129 -0.0467272 0)
(1.1391 -0.0440328 0)
(1.14357 -0.0404341 0)
(1.14601 -0.0374968 0)
(1.14384 -0.0350868 0)
(1.13991 -0.0330236 0)
(1.13538 -0.0313206 0)
(1.12704 -0.0295872 0)
(1.11735 -0.0281911 0)
(1.11071 -0.0264479 0)
(1.10528 -0.0242095 0)
(1.10064 -0.0219231 0)
(1.09696 -0.0196946 0)
(1.09974 -0.0161621 0)
(1.10497 -0.0124161 0)
(1.10406 -0.00965139 0)
(1.10023 -0.0076428 0)
(1.09572 -0.0061907 0)
(1.08671 -0.00481786 0)
(1.07512 -0.00425104 0)
(1.06746 -0.00305407 0)
(1.06149 -0.00113675 0)
(1.05644 0.00102508 0)
(1.05213 0.00292017 0)
(1.05334 0.00622893 0)
(1.06026 0.0104263 0)
(1.06079 0.0136365 0)
(1.05714 0.0157784 0)
(1.05243 0.0170497 0)
(1.04306 0.0179196 0)
(1.0288 0.0172316 0)
(1.01889 0.0179327 0)
(1.01187 0.0198541 0)
(1.00609 0.0220124 0)
(1.0016 0.0238114 0)
(1.00365 0.0271144 0)
(1.01173 0.031745 0)
(1.0128 0.0352691 0)
(1.00891 0.0375688 0)
(1.00356 0.038665 0)
(0.992616 0.0388876 0)
(0.973721 0.0366052 0)
(0.960577 0.0360771 0)
(0.952697 0.0373384 0)
(0.946267 0.0387936 0)
(0.941854 0.0405882 0)
(0.947269 0.0453876 0)
(0.954952 0.0514309 0)
(0.954173 0.0553657 0)
(0.948908 0.0570732 0)
(0.942442 0.0571648 0)
(0.927719 0.0550507 0)
(0.90176 0.0498501 0)
(0.884211 0.0473435 0)
(0.873847 0.0479831 0)
(0.865809 0.0484857 0)
(0.862128 0.0511815 0)
(0.869498 0.058428 0)
(0.874719 0.0627356 0)
(0.870766 0.0628608 0)
(0.862298 0.0628304 0)
(0.849293 0.0636596 0)
(0.820141 0.060052 0)
(0.783946 0.0504735 0)
(0.756123 0.0412341 0)
(0.737343 0.0366469 0)
(0.72455 0.0325379 0)
(0.720825 0.0229853 0)
(0.709985 0.0107655 0)
(0.700714 0.00837708 0)
(0.232338 -0.0691368 0)
(-0.851374 -0.0474218 0)
(1.23123 -0.114176 0)
(1.22212 -0.109314 0)
(1.21727 -0.107028 0)
(1.21285 -0.104788 0)
(1.20906 -0.102483 0)
(1.20844 -0.0995562 0)
(1.21213 -0.0967835 0)
(1.21291 -0.09421 0)
(1.21099 -0.0916242 0)
(1.20785 -0.0890241 0)
(1.20377 -0.0866702 0)
(1.19861 -0.0841906 0)
(1.19057 -0.0815925 0)
(1.18427 -0.0793185 0)
(1.17929 -0.0768964 0)
(1.17498 -0.0744897 0)
(1.1714 -0.0720563 0)
(1.17254 -0.0687176 0)
(1.17653 -0.065658 0)
(1.17622 -0.0632937 0)
(1.1735 -0.0611622 0)
(1.16966 -0.0592663 0)
(1.16522 -0.0575712 0)
(1.1571 -0.0552881 0)
(1.14871 -0.0527872 0)
(1.14308 -0.0501869 0)
(1.13838 -0.0474147 0)
(1.13431 -0.0448988 0)
(1.13236 -0.0420376 0)
(1.1368 -0.0389483 0)
(1.13916 -0.0365536 0)
(1.1371 -0.0346167 0)
(1.13342 -0.0329069 0)
(1.1291 -0.0314976 0)
(1.12124 -0.0296118 0)
(1.1108 -0.0274621 0)
(1.10418 -0.0252427 0)
(1.0991 -0.0227991 0)
(1.09465 -0.0203537 0)
(1.0911 -0.0179414 0)
(1.09358 -0.0147162 0)
(1.09888 -0.0115521 0)
(1.09832 -0.00927125 0)
(1.09478 -0.00750246 0)
(1.0904 -0.00623208 0)
(1.08259 -0.00492651 0)
(1.07013 -0.00403357 0)
(1.06161 -0.00222351 0)
(1.05584 0.000100968 0)
(1.05093 0.00245919 0)
(1.0466 0.00456767 0)
(1.04726 0.00761981 0)
(1.05427 0.0112126 0)
(1.05554 0.0139116 0)
(1.05229 0.0157879 0)
(1.04772 0.0168463 0)
(1.0402 0.0177843 0)
(1.02516 0.0173475 0)
(1.01334 0.0181784 0)
(1.00615 0.0201005 0)
(1.00046 0.0221538 0)
(0.995701 0.0239916 0)
(0.996426 0.0271554 0)
(1.00455 0.0315511 0)
(1.00676 0.0347446 0)
(1.00344 0.0367365 0)
(0.99841 0.0376725 0)
(0.990244 0.0383453 0)
(0.971328 0.0362598 0)
(0.955075 0.0345382 0)
(0.946001 0.0356275 0)
(0.939232 0.0372486 0)
(0.933802 0.0387809 0)
(0.935934 0.043034 0)
(0.944514 0.0492906 0)
(0.945685 0.0527156 0)
(0.941268 0.0545494 0)
(0.935166 0.0556302 0)
(0.924553 0.0563604 0)
(0.900719 0.0507468 0)
(0.878407 0.0440309 0)
(0.865661 0.0429664 0)
(0.857195 0.0439472 0)
(0.850442 0.0452391 0)
(0.852827 0.0509632 0)
(0.85903 0.0600192 0)
(0.857078 0.0659788 0)
(0.849708 0.0681533 0)
(0.839933 0.0679721 0)
(0.818779 0.0630907 0)
(0.784235 0.0487172 0)
(0.753179 0.0350268 0)
(0.730803 0.0273661 0)
(0.71469 0.0245712 0)
(0.705634 0.0156283 0)
(0.699491 0.00231814 0)
(0.698722 -0.00223558 0)
(0.242593 -0.0630589 0)
(-0.856551 -0.0431788 0)
(1.22202 -0.110119 0)
(1.21263 -0.105661 0)
(1.20762 -0.103564 0)
(1.20325 -0.101446 0)
(1.19955 -0.099105 0)
(1.19936 -0.0955586 0)
(1.20344 -0.0920862 0)
(1.20408 -0.0897259 0)
(1.20191 -0.0877025 0)
(1.1987 -0.0857133 0)
(1.19477 -0.0838623 0)
(1.19003 -0.0815903 0)
(1.18213 -0.0787695 0)
(1.1753 -0.0764011 0)
(1.17028 -0.0740001 0)
(1.16607 -0.0715489 0)
(1.16271 -0.068902 0)
(1.16448 -0.0652481 0)
(1.16894 -0.0620772 0)
(1.16861 -0.0599462 0)
(1.16574 -0.0581917 0)
(1.16192 -0.0566541 0)
(1.15761 -0.0550474 0)
(1.14938 -0.0525094 0)
(1.14048 -0.0501898 0)
(1.13473 -0.0480919 0)
(1.13016 -0.0458788 0)
(1.12621 -0.043642 0)
(1.12474 -0.0405548 0)
(1.12967 -0.0368751 0)
(1.13225 -0.0340448 0)
(1.13026 -0.0319739 0)
(1.12666 -0.030302 0)
(1.12249 -0.0288931 0)
(1.11483 -0.0269276 0)
(1.10385 -0.0251793 0)
(1.09673 -0.0235319 0)
(1.0916 -0.0217369 0)
(1.08717 -0.019915 0)
(1.08364 -0.0178462 0)
(1.08597 -0.0144477 0)
(1.09151 -0.0106813 0)
(1.09144 -0.00787089 0)
(1.08828 -0.00575022 0)
(1.08413 -0.00415955 0)
(1.07771 -0.00259259 0)
(1.06494 -0.00226705 0)
(1.05474 -0.00160815 0)
(1.04866 0.000107776 0)
(1.04368 0.0019981 0)
(1.03932 0.00387331 0)
(1.03949 0.00682483 0)
(1.04622 0.0108024 0)
(1.04817 0.0142068 0)
(1.04552 0.0167601 0)
(1.04131 0.0186402 0)
(1.03562 0.0201633 0)
(1.022 0.0193631 0)
(1.00736 0.0174085 0)
(0.999066 0.0183363 0)
(0.99321 0.0201926 0)
(0.988232 0.0220636 0)
(0.987147 0.0255295 0)
(0.994555 0.0312871 0)
(0.998111 0.0357592 0)
(0.995591 0.038335 0)
(0.99096 0.0399679 0)
(0.985093 0.0409322 0)
(0.970417 0.0388816 0)
(0.95063 0.0338715 0)
(0.938577 0.032594 0)
(0.931151 0.0341282 0)
(0.92511 0.0357367 0)
(0.923109 0.0393841 0)
(0.930946 0.0475117 0)
(0.935211 0.053822 0)
(0.932217 0.0559283 0)
(0.926612 0.0562003 0)
(0.919425 0.055949 0)
(0.901687 0.0517177 0)
(0.875421 0.0434298 0)
(0.858152 0.0384629 0)
(0.848277 0.0383557 0)
(0.840638 0.0390957 0)
(0.837659 0.0423741 0)
(0.84337 0.0511227 0)
(0.845202 0.0587135 0)
(0.839509 0.0617388 0)
(0.830734 0.0619514 0)
(0.817011 0.0600733 0)
(0.789463 0.0491743 0)
(0.757006 0.0324065 0)
(0.731274 0.0184837 0)
(0.713719 0.0113903 0)
(0.70447 0.00158421 0)
(0.704189 -0.0133695 0)
(0.708536 -0.0176307 0)
(0.250426 -0.0518364 0)
(-0.860538 -0.0400956 0)
(1.21377 -0.108652 0)
(1.20398 -0.105014 0)
(1.19874 -0.102612 0)
(1.19447 -0.100139 0)
(1.19088 -0.0976096 0)
(1.19067 -0.093663 0)
(1.19576 -0.0888164 0)
(1.19701 -0.0858648 0)
(1.19453 -0.0842699 0)
(1.191 -0.0831081 0)
(1.18703 -0.0817865 0)
(1.1823 -0.0800653 0)
(1.17453 -0.0781929 0)
(1.16695 -0.0760714 0)
(1.16186 -0.0735108 0)
(1.15773 -0.0710162 0)
(1.15448 -0.0683106 0)
(1.15653 -0.0639307 0)
(1.16204 -0.0595175 0)
(1.1621 -0.0570716 0)
(1.15899 -0.0557686 0)
(1.15513 -0.0547646 0)
(1.15076 -0.0534298 0)
(1.1428 -0.0520472 0)
(1.13317 -0.0506667 0)
(1.12692 -0.0483548 0)
(1.12233 -0.0457096 0)
(1.11842 -0.0432784 0)
(1.11688 -0.0399759 0)
(1.1223 -0.0353252 0)
(1.12576 -0.0317981 0)
(1.12394 -0.0298102 0)
(1.12033 -0.0285554 0)
(1.11622 -0.0274002 0)
(1.10929 -0.0262724 0)
(1.09811 -0.0259758 0)
(1.08968 -0.0246244 0)
(1.08419 -0.0220844 0)
(1.07967 -0.0194467 0)
(1.07609 -0.0168504 0)
(1.07804 -0.0129937 0)
(1.08407 -0.00884179 0)
(1.08471 -0.00594629 0)
(1.08183 -0.00392535 0)
(1.07786 -0.00246751 0)
(1.0728 -0.00121837 0)
(1.06126 -0.00153555 0)
(1.04886 -0.00235796 0)
(1.04159 -0.00128027 0)
(1.03633 0.000832839 0)
(1.03184 0.0031279 0)
(1.03105 0.00688594 0)
(1.03753 0.0123171 0)
(1.04058 0.0162445 0)
(1.03853 0.0185766 0)
(1.03463 0.0203052 0)
(1.03005 0.0213153 0)
(1.02002 0.0209949 0)
(1.00325 0.0181879 0)
(0.992016 0.0171798 0)
(0.985675 0.0185678 0)
(0.980485 0.0202513 0)
(0.977515 0.0232284 0)
(0.983601 0.029844 0)
(0.98935 0.0360034 0)
(0.987989 0.0386924 0)
(0.983691 0.0399532 0)
(0.978657 0.0404895 0)
(0.969 0.0400456 0)
(0.94895 0.0351714 0)
(0.93262 0.0317075 0)
(0.923606 0.0317028 0)
(0.917391 0.0329621 0)
(0.91262 0.0351997 0)
(0.916741 0.0421829 0)
(0.924642 0.0516541 0)
(0.924494 0.0560525 0)
(0.919569 0.0570493 0)
(0.913446 0.0570562 0)
(0.902058 0.0555415 0)
(0.877662 0.0466592 0)
(0.855377 0.0383431 0)
(0.842275 0.033998 0)
(0.833779 0.0333599 0)
(0.827299 0.0343941 0)
(0.828635 0.0405239 0)
(0.833063 0.0498842 0)
(0.830577 0.0562649 0)
(0.822977 0.0589779 0)
(0.813266 0.0589834 0)
(0.796195 0.0532174 0)
(0.769038 0.0368609 0)
(0.740706 0.0182622 0)
(0.718959 0.00441799 0)
(0.706788 -0.00443749 0)
(0.706233 -0.019085 0)
(0.713957 -0.0249074 0)
(0.255899 -0.0433074 0)
(-0.864284 -0.0371518 0)
(1.20868 -0.104157 0)
(1.19844 -0.101353 0)
(1.19205 -0.0996539 0)
(1.18761 -0.0979357 0)
(1.18394 -0.0959934 0)
(1.18268 -0.0929248 0)
(1.18823 -0.0876729 0)
(1.191 -0.0834595 0)
(1.18908 -0.080938 0)
(1.18575 -0.0790366 0)
(1.18191 -0.0772637 0)
(1.17753 -0.0755876 0)
(1.17014 -0.0741651 0)
(1.161 -0.0728892 0)
(1.15521 -0.0711786 0)
(1.15104 -0.0692655 0)
(1.1476 -0.0673233 0)
(1.14856 -0.0636997 0)
(1.15499 -0.0586538 0)
(1.15637 -0.0550426 0)
(1.15379 -0.052731 0)
(1.15017 -0.0508693 0)
(1.14605 -0.0492008 0)
(1.13965 -0.0478911 0)
(1.12881 -0.0476677 0)
(1.12074 -0.0466913 0)
(1.11579 -0.0448004 0)
(1.11182 -0.0427225 0)
(1.10961 -0.039824 0)
(1.11437 -0.0349459 0)
(1.11921 -0.0304534 0)
(1.11835 -0.0276459 0)
(1.11517 -0.0255714 0)
(1.11121 -0.0238526 0)
(1.10616 -0.0224853 0)
(1.0955 -0.0229695 0)
(1.08432 -0.023371 0)
(1.07773 -0.0220948 0)
(1.07314 -0.0199432 0)
(1.06944 -0.0174631 0)
(1.07049 -0.0132195 0)
(1.07676 -0.0079863 0)
(1.07841 -0.00448045 0)
(1.07611 -0.0020989 0)
(1.07242 -0.000135268 0)
(1.06812 0.00110314 0)
(1.05983 0.00115053 0)
(1.04577 -0.00101239 0)
(1.03564 -0.00125402 0)
(1.02977 0.000304123 0)
(1.02507 0.00216172 0)
(1.02275 0.00525184 0)
(1.02857 0.011561 0)
(1.03354 0.0170141 0)
(1.03243 0.0195956 0)
(1.02886 0.0211508 0)
(1.02446 0.0219799 0)
(1.01784 0.0223203 0)
(1.00227 0.0196416 0)
(0.987574 0.0174706 0)
(0.979235 0.0176494 0)
(0.973711 0.0190927 0)
(0.969147 0.0209485 0)
(0.971915 0.0265385 0)
(0.980486 0.0352466 0)
(0.981827 0.0398808 0)
(0.978092 0.0412393 0)
(0.973208 0.0414495 0)
(0.966518 0.0414551 0)
(0.950005 0.0379299 0)
(0.930579 0.0325046 0)
(0.918861 0.0301895 0)
(0.91168 0.030265 0)
(0.90583 0.031129 0)
(0.904187 0.0348413 0)
(0.91251 0.0449828 0)
(0.917261 0.053588 0)
(0.914361 0.0569626 0)
(0.90865 0.0577041 0)
(0.901284 0.0576331 0)
(0.884485 0.0520719 0)
(0.859305 0.0392621 0)
(0.840914 0.0317822 0)
(0.829809 0.0290768 0)
(0.82226 0.0286407 0)
(0.818193 0.0306272 0)
(0.821651 0.0383685 0)
(0.823508 0.0458146 0)
(0.819652 0.0492552 0)
(0.812194 0.0501641 0)
(0.80155 0.0497285 0)
(0.782508 0.0415851 0)
(0.75739 0.0233335 0)
(0.731973 0.0042911 0)
(0.713577 -0.00877675 0)
(0.707776 -0.0242461 0)
(0.716769 -0.0349103 0)
(0.258402 -0.0358461 0)
(-0.868332 -0.0360879 0)
(1.20405 -0.101502 0)
(1.19495 -0.0983352 0)
(1.18742 -0.0961588 0)
(1.18287 -0.0943105 0)
(1.17926 -0.0925184 0)
(1.17711 -0.0902994 0)
(1.18127 -0.0868823 0)
(1.18493 -0.083329 0)
(1.18387 -0.0802771 0)
(1.18087 -0.0776653 0)
(1.17714 -0.0754459 0)
(1.1729 -0.073563 0)
(1.16671 -0.0717008 0)
(1.15714 -0.0700543 0)
(1.15054 -0.0682239 0)
(1.14625 -0.0664816 0)
(1.14271 -0.0649495 0)
(1.14217 -0.0623634 0)
(1.148 -0.0582763 0)
(1.15056 -0.0544923 0)
(1.14869 -0.0515874 0)
(1.14528 -0.0492151 0)
(1.1412 -0.0472889 0)
(1.13635 -0.0456272 0)
(1.12666 -0.0449801 0)
(1.11665 -0.0443509 0)
(1.11096 -0.0429184 0)
(1.10682 -0.0415114 0)
(1.10365 -0.0397796 0)
(1.10683 -0.0354291 0)
(1.11272 -0.0301018 0)
(1.11301 -0.0266493 0)
(1.11021 -0.0242693 0)
(1.10634 -0.0224436 0)
(1.10202 -0.0210349 0)
(1.09414 -0.020449 0)
(1.08169 -0.0214315 0)
(1.07304 -0.0207431 0)
(1.06796 -0.0194312 0)
(1.06389 -0.0180046 0)
(1.0631 -0.0145867 0)
(1.0695 -0.00807572 0)
(1.07286 -0.0033401 0)
(1.07109 -0.00118859 0)
(1.06754 0.0001496 0)
(1.06338 0.00127403 0)
(1.05788 0.00216103 0)
(1.04486 0.000731286 0)
(1.03201 -0.000298321 0)
(1.02439 0.000655331 0)
(1.01935 0.00235026 0)
(1.01561 0.00451393 0)
(1.01882 0.0101632 0)
(1.0266 0.0176216 0)
(1.02769 0.0212246 0)
(1.02448 0.0224107 0)
(1.02019 0.0230119 0)
(1.01517 0.0234474 0)
(1.0028 0.0218475 0)
(0.985803 0.0182147 0)
(0.975033 0.0174638 0)
(0.968563 0.0182038 0)
(0.963469 0.0193144 0)
(0.961661 0.0224123 0)
(0.969946 0.0312726 0)
(0.9758 0.0391277 0)
(0.973896 0.0420173 0)
(0.969316 0.0428318 0)
(0.964006 0.0432054 0)
(0.95303 0.0412856 0)
(0.932759 0.0337702 0)
(0.917184 0.0288252 0)
(0.907876 0.0277542 0)
(0.901215 0.0283366 0)
(0.895892 0.0297808 0)
(0.89844 0.0368593 0)
(0.907415 0.0489114 0)
(0.9091 0.0557807 0)
(0.904918 0.0582638 0)
(0.898897 0.0586489 0)
(0.889838 0.057383 0)
(0.868745 0.0478201 0)
(0.844681 0.034383 0)
(0.829497 0.0276428 0)
(0.820151 0.0248328 0)
(0.81319 0.0241625 0)
(0.811429 0.0274209 0)
(0.814605 0.0358212 0)
(0.813965 0.0418941 0)
(0.808888 0.0440201 0)
(0.801195 0.0439351 0)
(0.790107 0.0405862 0)
(0.773189 0.028489 0)
(0.750944 0.00919243 0)
(0.727153 -0.00870335 0)
(0.71117 -0.0254786 0)
(0.718138 -0.0471315 0)
(0.258757 -0.0297832 0)
(-0.871572 -0.0343144 0)
(1.20079 -0.0991511 0)
(1.19251 -0.0956712 0)
(1.18464 -0.0928423 0)
(1.17997 -0.0909218 0)
(1.17625 -0.0891596 0)
(1.17368 -0.0871387 0)
(1.17681 -0.0840508 0)
(1.18019 -0.0810997 0)
(1.17953 -0.0785158 0)
(1.17695 -0.0760802 0)
(1.17351 -0.0738117 0)
(1.16948 -0.0718809 0)
(1.16429 -0.0698383 0)
(1.15487 -0.0676275 0)
(1.14784 -0.0656261 0)
(1.14338 -0.0637397 0)
(1.13963 -0.0622522 0)
(1.13799 -0.0600114 0)
(1.14255 -0.05658 0)
(1.1452 -0.05356 0)
(1.14386 -0.0509366 0)
(1.14093 -0.0484516 0)
(1.1372 -0.0462076 0)
(1.13303 -0.0443437 0)
(1.12536 -0.0428089 0)
(1.11467 -0.0421567 0)
(1.1081 -0.0408378 0)
(1.10363 -0.0391734 0)
(1.09992 -0.0376104 0)
(1.10048 -0.0343454 0)
(1.10658 -0.0292611 0)
(1.10805 -0.0258461 0)
(1.10582 -0.0236352 0)
(1.10237 -0.0215712 0)
(1.0983 -0.0198925 0)
(1.09285 -0.0186094 0)
(1.08075 -0.0191787 0)
(1.07045 -0.0193611 0)
(1.06431 -0.0180226 0)
(1.05985 -0.0165745 0)
(1.0567 -0.0147531 0)
(1.06132 -0.00918964 0)
(1.06758 -0.00283913 0)
(1.06725 0.000219492 0)
(1.06396 0.00176368 0)
(1.05995 0.00281606 0)
(1.05547 0.00365436 0)
(1.04499 0.00330438 0)
(1.03018 0.00128116 0)
(1.02086 0.00152223 0)
(1.01522 0.00266257 0)
(1.01076 0.00351205 0)
(1.00992 0.00644486 0)
(1.01852 0.0146229 0)
(1.02316 0.0210003 0)
(1.02106 0.0233354 0)
(1.01701 0.0241501 0)
(1.01243 0.0247815 0)
(1.00367 0.0246943 0)
(0.9864 0.0208162 0)
(0.973125 0.0179886 0)
(0.965404 0.017866 0)
(0.95969 0.0185739 0)
(0.955135 0.0196862 0)
(0.957909 0.0254293 0)
(0.967626 0.0361942 0)
(0.969812 0.0423372 0)
(0.966458 0.0442554 0)
(0.961538 0.0444952 0)
(0.954947 0.0441997 0)
(0.939132 0.0383177 0)
(0.918934 0.0292323 0)
(0.905951 0.0257174 0)
(0.89793 0.0255629 0)
(0.891954 0.0261781 0)
(0.88836 0.0284035 0)
(0.894986 0.0381968 0)
(0.902395 0.0497214 0)
(0.90182 0.0548542 0)
(0.896793 0.0567561 0)
(0.890237 0.0571679 0)
(0.878203 0.0552074 0)
(0.855403 0.0426839 0)
(0.834052 0.028703 0)
(0.820272 0.0223773 0)
(0.811714 0.0202246 0)
(0.805499 0.0199717 0)
(0.805602 0.0244 0)
(0.808116 0.0314434 0)
(0.806321 0.0348543 0)
(0.801143 0.0351473 0)
(0.793588 0.0347386 0)
(0.782433 0.0283951 0)
(0.767809 0.0142962 0)
(0.747532 -0.00338563 0)
(0.724212 -0.0191403 0)
(0.718705 -0.0574369 0)
(0.254519 -0.0296015 0)
(-0.874618 -0.0336139 0)
(1.19857 -0.0969918 0)
(1.19036 -0.0935749 0)
(1.18237 -0.0904404 0)
(1.17747 -0.0885475 0)
(1.17354 -0.0868227 0)
(1.17066 -0.0847037 0)
(1.1737 -0.0810457 0)
(1.17727 -0.0780039 0)
(1.17656 -0.0757851 0)
(1.1741 -0.0736411 0)
(1.17085 -0.0716327 0)
(1.167 -0.0699431 0)
(1.16228 -0.0681149 0)
(1.15312 -0.065864 0)
(1.14562 -0.0639561 0)
(1.14086 -0.0621963 0)
(1.13683 -0.060634 0)
(1.13428 -0.0584241 0)
(1.13815 -0.0542589 0)
(1.14144 -0.0507381 0)
(1.14036 -0.0484959 0)
(1.13772 -0.0464074 0)
(1.13432 -0.0444621 0)
(1.13038 -0.0429365 0)
(1.12429 -0.0414344 0)
(1.11335 -0.0405567 0)
(1.10565 -0.0393668 0)
(1.10077 -0.0377216 0)
(1.09672 -0.0363381 0)
(1.09488 -0.0338282 0)
(1.10058 -0.0284221 0)
(1.10398 -0.0240871 0)
(1.1024 -0.0218658 0)
(1.09928 -0.0201759 0)
(1.09546 -0.0187184 0)
(1.09109 -0.0175337 0)
(1.08094 -0.0173745 0)
(1.06866 -0.0181555 0)
(1.06143 -0.0172474 0)
(1.05648 -0.0157261 0)
(1.05236 -0.0142945 0)
(1.05308 -0.0105092 0)
(1.06126 -0.00328988 0)
(1.06362 0.00111077 0)
(1.06104 0.00294017 0)
(1.05728 0.00417618 0)
(1.0531 0.00517161 0)
(1.04535 0.00560916 0)
(1.03007 0.00348725 0)
(1.01895 0.00216174 0)
(1.01257 0.00260239 0)
(1.00756 0.0036829 0)
(1.0037 0.00518327 0)
(1.00819 0.0111311 0)
(1.01687 0.0199707 0)
(1.01758 0.024295 0)
(1.01424 0.0259472 0)
(1.01007 0.0268926 0)
(1.00447 0.0272788 0)
(0.990253 0.0238049 0)
(0.973514 0.0182204 0)
(0.963514 0.0165825 0)
(0.956724 0.0172668 0)
(0.951455 0.0182744 0)
(0.948456 0.0206625 0)
(0.956026 0.0300914 0)
(0.963936 0.040306 0)
(0.963475 0.0445063 0)
(0.959389 0.0460759 0)
(0.954315 0.0464802 0)
(0.945017 0.0452421 0)
(0.924731 0.0360637 0)
(0.906722 0.0272678 0)
(0.896505 0.0244344 0)
(0.889669 0.0236282 0)
(0.883793 0.0238133 0)
(0.882082 0.0276294 0)
(0.890401 0.0403926 0)
(0.895338 0.0514513 0)
(0.892977 0.0559693 0)
(0.887359 0.0573717 0)
(0.880599 0.0567938 0)
(0.867397 0.0521131 0)
(0.844222 0.0376268 0)
(0.824225 0.0243818 0)
(0.811655 0.0183638 0)
(0.803917 0.0159393 0)
(0.798698 0.0159573 0)
(0.800073 0.0211886 0)
(0.801613 0.0271217 0)
(0.799242 0.0287602 0)
(0.79459 0.0274547 0)
(0.788028 0.0246841 0)
(0.778321 0.0149779 0)
(0.765172 0.00147836 0)
(0.744742 -0.0155072 0)
(0.725569 -0.0527 0)
(0.246212 -0.0323352 0)
(-0.877311 -0.0322457 0)
(1.19612 -0.0946144 0)
(1.188 -0.0914526 0)
(1.17988 -0.0886265 0)
(1.17465 -0.0870224 0)
(1.17051 -0.0854555 0)
(1.16703 -0.0836401 0)
(1.16918 -0.0795629 0)
(1.1742 -0.074901 0)
(1.17385 -0.0725544 0)
(1.17137 -0.0707976 0)
(1.16819 -0.069161 0)
(1.16448 -0.0677089 0)
(1.16005 -0.0660757 0)
(1.15123 -0.0642 0)
(1.14312 -0.0626974 0)
(1.13789 -0.061192 0)
(1.1336 -0.0596798 0)
(1.13014 -0.0578679 0)
(1.13279 -0.0533395 0)
(1.13787 -0.0482638 0)
(1.13756 -0.0457981 0)
(1.13501 -0.0441231 0)
(1.13175 -0.0425444 0)
(1.12794 -0.0412343 0)
(1.12289 -0.0399375 0)
(1.11221 -0.0391958 0)
(1.10313 -0.0383558 0)
(1.09762 -0.0369276 0)
(1.09328 -0.0354617 0)
(1.09001 -0.0335872 0)
(1.09392 -0.0284514 0)
(1.09982 -0.0226764 0)
(1.09941 -0.0199708 0)
(1.09644 -0.0184281 0)
(1.09283 -0.0170924 0)
(1.08883 -0.0160046 0)
(1.08104 -0.0153772 0)
(1.06776 -0.0164189 0)
(1.05894 -0.0163829 0)
(1.05351 -0.0152679 0)
(1.04913 -0.0140961 0)
(1.04655 -0.0118497 0)
(1.05318 -0.0049018 0)
(1.05925 0.00193918 0)
(1.05826 0.0047979 0)
(1.05474 0.00603155 0)
(1.05075 0.00697538 0)
(1.04547 0.00760043 0)
(1.03234 0.00536567 0)
(1.01835 0.00220806 0)
(1.01041 0.00187723 0)
(1.00485 0.00289546 0)
(1.00019 0.00401796 0)
(0.998662 0.00721457 0)
(1.00746 0.0170724 0)
(1.01304 0.0250864 0)
(1.01152 0.0279194 0)
(1.00742 0.0285554 0)
(1.00286 0.0289949 0)
(0.994711 0.0277321 0)
(0.977299 0.0209805 0)
(0.962906 0.0162434 0)
(0.954634 0.015816 0)
(0.948779 0.0166737 0)
(0.943856 0.0175926 0)
(0.943876 0.0220083 0)
(0.954164 0.0344937 0)
(0.958927 0.0433916 0)
(0.956524 0.046322 0)
(0.951863 0.0472449 0)
(0.94645 0.0477003 0)
(0.934692 0.0439658 0)
(0.913683 0.0315397 0)
(0.897828 0.0229856 0)
(0.887994 0.0210295 0)
(0.881246 0.0212865 0)
(0.87593 0.0218986 0)
(0.876812 0.0271084 0)
(0.885596 0.0403528 0)
(0.888792 0.0495 0)
(0.885695 0.0526421 0)
(0.879834 0.0537087 0)
(0.871934 0.0534031 0)
(0.857033 0.0478948 0)
(0.834392 0.0324725 0)
(0.815935 0.0190802 0)
(0.803947 0.0131096 0)
(0.796728 0.0110678 0)
(0.792843 0.011728 0)
(0.795654 0.0173354 0)
(0.797341 0.0214151 0)
(0.7951 0.0214543 0)
(0.791027 0.0192626 0)
(0.785367 0.013233 0)
(0.777129 0.00371319 0)
(0.76405 -0.00969386 0)
(0.739248 -0.0431745 0)
(0.238327 -0.0382243 0)
(-0.87987 -0.0309159 0)
(1.19369 -0.0918194 0)
(1.18574 -0.0891373 0)
(1.17734 -0.0869426 0)
(1.17167 -0.0857009 0)
(1.16725 -0.0841865 0)
(1.16339 -0.0827662 0)
(1.16312 -0.0792627 0)
(1.1699 -0.0729587 0)
(1.17154 -0.0691635 0)
(1.169 -0.0676221 0)
(1.16577 -0.0663173 0)
(1.16216 -0.0650697 0)
(1.15796 -0.0636751 0)
(1.14956 -0.0624572 0)
(1.14063 -0.0616042 0)
(1.13468 -0.0603773 0)
(1.13008 -0.0588416 0)
(1.12616 -0.0573616 0)
(1.1262 -0.0536407 0)
(1.13319 -0.0469922 0)
(1.13504 -0.0430823 0)
(1.13256 -0.0415063 0)
(1.12929 -0.0402368 0)
(1.1256 -0.0391111 0)
(1.12121 -0.0379705 0)
(1.11127 -0.037452 0)
(1.10092 -0.0373259 0)
(1.09461 -0.0363815 0)
(1.08991 -0.0349788 0)
(1.08596 -0.0335949 0)
(1.08658 -0.0296511 0)
(1.0944 -0.0223914 0)
(1.0966 -0.0179875 0)
(1.09407 -0.0162703 0)
(1.0906 -0.0150746 0)
(1.08677 -0.0140721 0)
(1.08091 -0.013313 0)
(1.06804 -0.0145783 0)
(1.05712 -0.015661 0)
(1.05091 -0.0150879 0)
(1.04612 -0.013923 0)
(1.0421 -0.0126602 0)
(1.04398 -0.00792174 0)
(1.05297 0.00115429 0)
(1.05519 0.00618258 0)
(1.05249 0.00800051 0)
(1.0487 0.0089235 0)
(1.04453 0.00958615 0)
(1.03541 0.00842376 0)
(1.0198 0.00393617 0)
(1.0088 0.00191356 0)
(1.00217 0.00250423 0)
(0.997039 0.00379081 0)
(0.992882 0.00510863 0)
(0.996011 0.0110573 0)
(1.00607 0.0223485 0)
(1.00844 0.0281105 0)
(1.00565 0.0301773 0)
(1.00143 0.0308095 0)
(0.996356 0.0312226 0)
(0.983376 0.0275765 0)
(0.965136 0.0193234 0)
(0.953632 0.0154427 0)
(0.94656 0.0151182 0)
(0.940744 0.0158956 0)
(0.936239 0.0173458 0)
(0.939905 0.0252076 0)
(0.950373 0.0394667 0)
(0.952595 0.0467828 0)
(0.949673 0.0486536 0)
(0.945083 0.048493 0)
(0.939122 0.0483349 0)
(0.924273 0.0426667 0)
(0.902484 0.0299229 0)
(0.888257 0.0227413 0)
(0.879883 0.0205122 0)
(0.873886 0.0195249 0)
(0.86875 0.0200644 0)
(0.871208 0.0271355 0)
(0.879225 0.0409018 0)
(0.88065 0.0493355 0)
(0.876714 0.052318 0)
(0.870738 0.0528285 0)
(0.862917 0.0509298 0)
(0.848058 0.0432824 0)
(0.825883 0.0271325 0)
(0.808187 0.0140087 0)
(0.796883 0.00785554 0)
(0.790406 0.00560535 0)
(0.788201 0.00688603 0)
(0.79245 0.0130328 0)
(0.794252 0.016557 0)
(0.792659 0.0154757 0)
(0.789848 0.0107217 0)
(0.785058 0.00342522 0)
(0.778683 -0.00576034 0)
(0.755562 -0.0310373 0)
(0.233396 -0.0431884 0)
(-0.882329 -0.029053 0)
(1.1915 -0.0887059 0)
(1.18411 -0.0870339 0)
(1.17516 -0.0856792 0)
(1.1688 -0.0845965 0)
(1.16401 -0.0829485 0)
(1.16002 -0.0814126 0)
(1.1574 -0.0790973 0)
(1.16293 -0.07284 0)
(1.16849 -0.0668541 0)
(1.16706 -0.0643066 0)
(1.16382 -0.0631158 0)
(1.16022 -0.0619755 0)
(1.15615 -0.0608441 0)
(1.14848 -0.0602907 0)
(1.13858 -0.0603672 0)
(1.13175 -0.0594867 0)
(1.1268 -0.0580399 0)
(1.12271 -0.0566084 0)
(1.12019 -0.0542403 0)
(1.12621 -0.047584 0)
(1.13186 -0.0413681 0)
(1.13052 -0.0388164 0)
(1.12724 -0.0376179 0)
(1.12358 -0.0365875 0)
(1.11949 -0.0355696 0)
(1.11099 -0.0353665 0)
(1.09946 -0.0362828 0)
(1.09196 -0.0359176 0)
(1.08683 -0.0346785 0)
(1.08263 -0.0333768 0)
(1.08017 -0.031045 0)
(1.08674 -0.023821 0)
(1.09277 -0.0169198 0)
(1.09175 -0.0140121 0)
(1.08838 -0.0127994 0)
(1.0846 -0.0118593 0)
(1.08022 -0.0110814 0)
(1.06975 -0.0122966 0)
(1.05664 -0.0149266 0)
(1.04866 -0.0151949 0)
(1.04323 -0.014027 0)
(1.03881 -0.0126971 0)
(1.03626 -0.0103082 0)
(1.04366 -0.00198863 0)
(1.05072 0.0064824 0)
(1.05012 0.00984038 0)
(1.04653 0.0108682 0)
(1.04252 0.0115555 0)
(1.03715 0.0117754 0)
(1.02353 0.00788906 0)
(1.00871 0.00316772 0)
(1.00021 0.0023245 0)
(0.994507 0.00312655 0)
(0.989661 0.00425115 0)
(0.98683 0.00653237 0)
(0.994765 0.0160397 0)
(1.00313 0.0268831 0)
(1.00293 0.0309773 0)
(0.999087 0.032235 0)
(0.994636 0.0328895 0)
(0.988499 0.0324701 0)
(0.972727 0.0249925 0)
(0.955471 0.0161589 0)
(0.945037 0.0136041 0)
(0.938198 0.0142752 0)
(0.933033 0.0150235 0)
(0.929739 0.0167484 0)
(0.937561 0.0267359 0)
(0.947418 0.0401869 0)
(0.947775 0.0454862 0)
(0.943353 0.0475823 0)
(0.937944 0.0492631 0)
(0.930694 0.0496406 0)
(0.914268 0.0412575 0)
(0.894039 0.0265858 0)
(0.88101 0.0189404 0)
(0.872359 0.0172368 0)
(0.866306 0.0171741 0)
(0.861974 0.018325 0)
(0.86609 0.0265554 0)
(0.873292 0.0392314 0)
(0.873794 0.0458423 0)
(0.869702 0.0478961 0)
(0.863599 0.0483266 0)
(0.855202 0.046296 0)
(0.840101 0.037908 0)
(0.818638 0.0209679 0)
(0.801548 0.00775052 0)
(0.79081 0.00138507 0)
(0.785227 -0.000873927 0)
(0.785074 0.00102582 0)
(0.790879 0.00777839 0)
(0.793337 0.0106093 0)
(0.792853 0.00805681 0)
(0.790891 0.00182948 0)
(0.788267 -0.00443785 0)
(0.771651 -0.0203385 0)
(0.232605 -0.044483 0)