/*--------------------------------*- C++ -*----------------------------------*\
  =========                 |
  \\      /  F ield         | OpenFOAM: The Open Source CFD Toolbox
   \\    /   O peration     | Website:  https://openfoam.org
    \\  /    A nd           | Version:  12
     \\/     M anipulation  |
\*---------------------------------------------------------------------------*/
FoamFile
{
    format      ascii;
    class       volScalarField;
    location    "0.25";
    object      rho;
}
// * * * * * * * * * * * * * * * * * * * * * * * * * * * * * * * * * * * * * //

dimensions      [1 -3 0 0 0 0 0];

internalField   nonuniform List<scalar> 
22702
(
1.40001
1.40001
1.45866
1.40001
1.4
1.40001
1.73969
1.40001
1.40001
1.13793
1.83606
1.73776
1.40001
1.40001
1.49003
1.40001
1.40001
1.40001
1.83371
1.40001
1.40001
1.40001
1.74693
0.886373
1.40001
1.19464
1.40001
1.73076
1.16597
0.958961
1.40001
1.73668
1.40001
1.40001
1.40001
1.40001
1.40001
1.74612
1.40001
1.40001
1.14385
1.40001
1.40001
1.40001
1.73333
1.40001
1.40001
1.40001
1.40001
0.986615
1.40001
0.974884
1.40001
1.83772
1.40001
1.73597
1.40001
1.40001
1.40001
1.40001
1.15059
1.40001
1.40001
1.17121
1.40001
1.13434
1.40001
1.40001
1.40001
1.14679
1.40001
1.73725
1.40001
1.40001
1.72652
1.76334
1.0917
1.73691
0.963634
1.40001
1.78579
0.898872
1.74142
1.74058
1.40001
1.40001
1.40001
1.40001
1.46491
1.14195
1.74053
1.40001
1.40001
1.16099
1.40001
1.40001
1.16364
1.40001
1.40001
1.40001
1.40001
1.40001
1.78639
1.13545
1.40001
1.40001
1.40001
1.40001
0.92641
1.40001
1.73791
1.80367
1.40001
1.40001
1.15463
1.16458
1.13941
1.40001
1.40001
1.40001
1.40001
1.40001
1.50072
1.40001
1.40001
1.39999
1.73277
1.40001
1.74099
1.82601
1.40001
1.79166
1.40001
1.14659
1.40001
1.15231
1.40001
1.40001
1.40001
1.40001
1.81003
1.40001
1.40001
1.40001
1.40001
1.74555
1.40001
1.42592
1.40001
1.40001
1.40001
1.40001
0.965866
1.40001
1.41014
1.40001
0.918699
1.40001
1.40001
1.40001
1.74028
1.40001
1.74461
1.1933
1.15064
1.72263
1.73022
1.40001
1.4
1.40001
1.40001
1.73407
0.992311
1.40001
1.40001
1.40001
1.40001
1.40001
1.40001
1.74255
1.40001
1.83641
1.15869
1.73596
1.40001
1.24398
1.40001
0.976866
1.19681
1.40001
1.40001
1.40001
1.83958
1.40001
1.40001
1.71754
1.40001
1.74331
1.83631
0.993232
1.40001
1.40001
0.912361
1.74056
1.40001
1.40001
1.40001
1.73823
1.40001
1.15078
1.40001
1.40001
1.73318
1.70876
1.74125
1.40001
1.40001
1.40001
1.40001
1.40001
1.40001
1.40001
1.11538
1.75058
1.7254
1.40001
1.40001
1.40001
1.40001
0.969608
1.69423
1.61638
1.40001
1.40001
1.1481
1.14885
1.40001
1.40209
1.40001
1.4
1.14816
1.40001
1.40001
1.40001
1.40001
1.40001
1.71921
1.40001
1.40001
1.40001
1.40001
1.40001
1.76327
1.15176
1.2751
1.40001
1.40941
1.16047
1.40001
1.40001
1.40001
1.40001
1.40001
1.40001
1.40001
1.40001
0.998201
1.27413
1.14851
1.709
1.40001
1.40001
1.40001
1.40001
1.71914
1.40001
1.00035
1.40001
0.897023
0.961481
1.68431
1.12831
1.40001
1.40001
1.40001
1.40001
1.40001
1.25328
1.22939
1.40001
1.40001
0.938559
1.40001
1.81882
1.15475
1.40001
1.40001
1.78809
1.25195
1.40001
1.40001
1.15239
1.76451
1.40001
0.896452
1.40001
1.40001
1.40001
1.40001
0.960653
1.40001
1.40001
1.4
1.40001
1.44765
1.40001
1.40001
1.1745
1.40001
1.40001
1.40001
1.40001
1.40001
1.40001
1.40001
1.79015
1.40001
1.8388
1.40001
1.40001
1.40001
1.25526
1.40001
1.74323
1.25265
1.40001
1.40001
1.40001
1.40001
1.83709
1.40001
1.40001
1.40001
1.72831
1.40001
1.40001
1.83756
1.83692
1.40001
1.40001
1.40001
1.40001
1.15375
1.40001
1.40001
1.40001
1.1537
1.40001
1.40001
1.40001
1.40001
1.15909
1.40001
1.40001
1.40001
1.40001
1.40001
1.1845
1.40001
1.74508
1.40001
1.40001
1.73451
1.72358
1.40001
1.40001
0.970846
1.39482
1.78051
1.40001
1.40001
1.40001
1.74072
1.15061
1.40001
1.74383
1.40001
1.40001
1.02498
1.08548
1.40001
0.968193
1.21886
1.40001
1.40001
1.40001
1.40001
1.40001
1.40001
1.40001
1.72985
1.40001
1.4
1.17963
1.38475
1.81833
1.40001
1.72687
1.77665
1.15539
1.33619
1.40001
1.15497
1.40001
1.84552
1.40001
1.40001
1.40001
1.40001
1.73169
1.40001
1.40001
1.40001
1.40001
1.40001
1.40001
1.40001
1.56015
1.74308
1.40001
1.72458
1.40001
1.40001
0.910451
1.40001
1.40001
1.40001
1.40001
1.73769
1.76267
1.40001
1.40001
0.94893
1.72961
1.72417
1.40001
1.7336
1.71882
1.71164
1.40001
1.42632
1.40001
1.74059
1.3998
1.72404
1.40001
1.1526
1.40001
1.76344
1.40001
1.40001
1.40001
1.40001
0.973318
1.70253
1.40001
1.40001
1.40001
1.71208
1.78392
1.40001
1.60961
1.40001
1.40001
1.40001
1.75078
1.40001
1.73312
1.42678
1.72669
1.40001
1.72109
1.72103
1.7126
1.73222
1.40001
1.40001
1.35847
1.26818
1.40001
1.40001
1.40001
1.40001
1.40001
1.40001
1.40001
1.40001
1.40001
1.40001
1.76193
1.40001
1.40001
1.40001
1.71845
1.40001
1.40001
1.40001
1.40001
1.40001
1.40001
1.74959
1.40001
1.40001
1.40001
1.40001
1.7208
1.40001
1.62169
1.40001
1.40001
1.70789
1.40001
1.57739
1.40001
1.40001
1.47751
1.40001
1.73198
1.40001
1.40001
1.40001
1.71874
1.40001
1.40019
1.40001
1.71927
1.75051
1.71863
1.7322
1.40001
1.83636
1.4
1.40001
1.01052
1.4
1.40001
1.40001
1.72245
1.40001
1.15485
1.15616
1.40001
1.40001
1.40001
1.40001
1.40001
1.169
1.40001
1.72316
1.58178
1.74808
1.40001
1.40001
1.40001
1.40001
1.40001
1.71173
1.40001
1.40001
1.683
1.36317
1.40001
1.40002
1.40001
1.40001
1.40001
1.40001
1.40001
1.40001
0.935086
1.69991
1.71141
1.40001
1.40001
1.40001
1.74987
1.40001
1.40001
1.40001
1.69025
1.35647
1.40001
1.40001
0.987814
1.40005
1.40001
1.40001
1.40001
1.40001
1.40001
1.72033
1.83661
1.40001
1.43983
1.40003
1.7427
1.40001
1.40001
1.40001
1.40001
1.18303
1.77246
1.40001
1.40001
1.40001
1.40001
1.40001
1.40001
1.74363
1.40001
1.40001
1.40001
1.40001
1.40001
1.7145
1.40001
1.40001
1.40001
1.40001
1.40001
1.40001
1.40001
1.15525
1.40001
1.15194
1.40001
1.40001
1.40001
1.40001
0.96791
1.40001
1.40001
1.40001
1.40001
1.46294
1.40001
1.40001
1.24719
1.40001
1.40001
1.40001
1.40001
1.40001
1.40001
1.40001
1.4
1.43201
1.40001
1.40001
1.40001
1.40001
0.988933
1.40001
1.40001
1.40001
1.40001
1.72833
1.40001
1.40001
1.40001
1.40001
1.26709
1.40001
1.40001
1.4
1.77009
1.40001
1.40001
1.40001
1.24102
1.40001
1.40001
1.40001
1.40001
1.40001
1.40001
1.42429
1.49394
1.40001
1.40001
1.40001
1.40001
1.83908
1.48888
1.40001
1.40001
1.40001
1.73968
1.72815
1.40001
1.40001
1.40001
1.40001
1.40001
1.40001
1.40001
1.40001
1.40001
1.29707
1.40001
1.40001
1.84008
1.1527
1.40001
1.83853
1.40001
0.920772
1.40001
1.40001
1.29855
1.40001
1.40001
1.40001
1.40001
1.40001
1.40001
1.40001
1.40001
1.40001
1.40001
1.40001
1.40001
1.40001
1.40001
1.40001
1.57711
1.00247
1.40001
1.40001
1.40001
1.40001
1.40001
1.40001
1.40001
1.51367
1.40001
1.40001
1.63427
1.40001
1.40001
1.40001
1.40001
1.40001
1.40001
1.40001
1.40001
1.15092
1.40001
1.40001
1.0513
1.15215
1.40001
1.40001
1.70841
1.40001
1.31452
1.40001
1.40001
1.40001
1.7487
0.875081
1.40001
0.868479
1.40001
1.11076
1.40001
1.40001
1.40001
1.84106
1.40001
1.40001
1.77134
1.40001
1.40001
1.40001
1.77233
1.40001
1.40001
1.77378
1.40001
1.40001
1.1529
1.40001
1.54415
1.40001
1.40001
1.81032
1.82534
1.71853
1.40001
1.40001
1.15391
1.40001
1.40001
1.4003
1.40001
1.03007
1.40001
1.40001
1.40001
1.78693
1.40001
1.40001
1.40001
1.40001
1.68262
1.40001
1.40001
1.84024
1.14804
1.40001
1.40001
1.12644
1.18096
1.40001
1.40001
1.40001
1.74602
1.75776
1.40001
1.40001
1.40001
1.40001
1.40001
1.40001
1.40001
1.60488
1.7317
1.46248
1.40001
1.40001
1.14931
1.40001
1.40001
1.40001
1.67851
1.40001
1.40001
1.40001
1.40069
1.40001
1.40001
1.15077
1.40001
1.73307
1.40001
1.40001
1.72557
1.40001
1.40001
1.84124
1.40001
1.14064
1.40001
1.40001
1.40001
1.4
1.40001
1.43208
1.40001
1.84526
1.72241
1.40001
1.77937
1.40001
1.40001
1.40001
1.15781
1.33601
1.23647
1.40001
1.40001
1.40001
1.40001
1.40001
1.73535
1.40001
1.76362
1.40001
1.40001
1.40001
1.40001
1.40001
0.937355
1.76469
1.40001
1.09345
0.980575
1.00122
1.40001
1.66773
1.43906
1.40001
1.72154
1.40001
1.40001
1.40001
1.40001
1.71703
1.40001
1.40001
1.73557
1.73504
1.40001
1.40001
1.40001
1.40001
1.40001
1.74219
1.32371
1.40001
1.30093
0.994892
0.894103
1.30901
1.74111
1.40001
1.50871
1.40001
1.77215
1.40001
1.40001
1.73897
1.84013
1.40001
1.8396
1.40001
1.40001
1.05433
1.84449
1.84408
1.8393
1.74388
1.20602
1.3133
1.43119
1.77344
1.43655
1.79055
1.40001
1.40001
1.40001
1.74126
1.40001
1.15528
1.83874
1.77441
1.40001
1.7601
1.75436
1.40001
1.71461
1.20334
1.75057
1.73181
1.79412
1.74636
1.40001
1.40001
1.40001
1.77334
1.72167
1.1738
1.76039
1.18566
1.74847
1.40001
1.40001
1.40001
1.40001
1.84135
1.74163
1.40001
1.40001
1.74047
1.18363
1.76939
1.00013
1.40001
1.40001
1.40001
1.13817
1.77644
1.04161
1.40001
1.73695
1.80002
1.40001
1.40001
1.40001
1.40001
1.80235
0.954763
1.79308
1.40001
1.40001
1.354
1.40001
1.23078
1.40001
1.73468
1.108
1.40001
0.904293
1.40001
1.78761
1.40001
1.74647
1.40001
1.40001
1.4
1.58789
1.09988
1.40001
1.73838
1.40001
1.40001
1.40001
1.81528
1.40001
1.40001
1.77048
1.39976
1.75499
1.13846
1.40001
1.40001
1.40001
1.40001
1.84222
1.81381
1.84161
1.40001
1.40001
1.74772
1.40001
1.69865
1.75669
1.40001
1.72185
1.40001
1.77128
1.40001
1.51725
1.40001
1.40676
1.40001
1.40001
1.39997
1.40001
1.40001
1.40001
1.18584
1.40001
1.15437
1.40001
1.40001
1.40001
1.74037
1.40001
1.75265
1.40001
1.40001
1.40001
1.75763
1.40001
1.40001
1.79172
1.79778
1.13924
1.8226
1.73863
1.40001
1.40001
1.61671
1.40001
1.40001
1.73175
1.73659
1.40001
1.78702
1.77354
1.79084
1.77762
1.40001
1.40001
1.40001
1.40001
1.14599
1.40001
1.44787
1.40001
1.40001
1.14949
1.40001
1.40001
1.4
1.74014
1.40001
1.77479
1.40001
1.72564
1.3538
1.74309
1.40001
1.73626
1.4
1.40001
1.40001
1.40001
1.40001
1.7756
1.74382
1.40001
1.31559
1.40001
1.71472
1.74323
1.75622
1.40001
1.74445
1.76812
1.4
1.71393
1.40001
1.40001
1.40001
1.6902
1.73377
1.71292
1.40001
1.84464
1.4
1.40001
1.81232
1.7371
1.16858
1.73648
1.73779
1.40001
1.40001
1.40001
1.40001
1.40001
1.40001
1.40001
1.40001
1.40001
1.77152
1.5252
1.40001
1.40001
1.40001
1.74909
1.74337
1.40001
1.40001
1.65975
1.40001
1.40001
1.40001
1.40001
1.76158
1.40001
1.74274
1.76161
1.40001
1.40001
1.40001
1.63633
1.40001
1.40001
1.40001
1.40001
1.74191
1.73156
1.40001
1.42631
1.12592
1.72072
1.73663
1.25741
1.40001
1.0869
1.681
1.74847
1.40001
1.40001
1.16748
1.7487
1.72141
1.16293
1.00601
1.40001
1.40001
1.72034
1.40001
1.40001
1.40001
1.40001
1.84553
1.40001
1.40871
1.40001
1.40001
1.71815
1.78307
1.63434
1.40001
1.74087
1.73803
1.40001
1.40001
1.15285
1.40001
1.72417
1.7399
1.40001
1.40001
1.40001
1.84558
1.40001
1.72714
1.71007
1.10864
1.40001
1.40001
1.39994
1.40001
1.40001
1.40001
1.72256
1.73783
1.40001
1.40001
1.40001
1.40001
1.79654
1.40001
1.8083
1.78369
1.07767
1.40001
1.40001
1.40001
1.74113
1.73335
1.8329
1.40001
1.77944
1.40001
1.75614
1.40001
1.79584
1.83493
1.22692
1.78742
1.79871
1.40001
1.40001
1.16676
1.73965
1.30227
1.79457
1.40001
1.40001
1.84593
1.81538
1.77082
1.40001
1.72646
1.75761
1.84047
1.40001
1.4004
1.74011
1.71959
1.19165
1.46455
1.47158
1.40075
1.73769
1.72385
1.84006
1.40001
1.78689
1.39959
1.7204
1.2969
1.74396
1.84238
1.40001
1.24544
1.40001
1.40001
1.40001
1.40001
1.40001
1.40001
1.3541
1.40001
1.40001
1.56395
1.40001
1.84309
1.40001
1.54539
1.40001
1.40001
1.40001
1.76752
1.40001
1.40001
1.40001
1.42292
1.74602
1.72224
1.71379
1.45942
1.75138
1.70979
1.40001
1.80537
1.44564
1.40001
1.40001
1.40001
1.84209
1.64389
1.77847
1.49126
1.40001
1.62867
1.40001
1.78421
1.792
1.40001
1.40001
1.28287
1.40001
1.40001
1.40001
1.05662
1.40514
1.40001
1.73209
1.40001
1.74161
1.40001
1.40001
1.40001
1.10981
1.50932
1.76892
1.40001
1.40001
1.40001
1.4
1.40001
1.41126
1.40001
1.40001
1.74763
1.71516
1.40001
1.40001
1.16927
1.40001
1.40001
1.69057
1.49323
1.72728
1.40001
1.4
1.83835
1.40001
1.40001
1.72418
1.40001
1.40001
1.7535
1.40001
1.40001
1.40571
1.4
1.13431
1.15305
1.40001
1.40001
1.40001
1.40001
1.40176
1.40001
1.72011
1.41913
1.40001
1.40049
1.40001
1.43132
1.74165
1.40001
1.40001
1.40001
1.71756
1.40001
1.83879
1.40001
1.40001
1.40001
1.66343
1.40001
1.71453
1.40001
1.16552
1.40001
1.40001
1.84044
1.73541
1.40001
1.13157
1.40001
1.40001
1.40001
1.40001
1.40001
1.40001
1.44489
1.84108
1.40001
1.40001
1.40001
1.40001
1.77144
1.40001
1.808
1.4
1.39638
1.75956
1.40001
1.4
1.40001
1.40001
1.40001
1.40001
1.58636
1.40001
1.40001
1.40001
1.40001
1.40001
1.40001
1.40001
1.40001
1.71929
1.40001
1.40001
1.41481
1.40001
1.7755
1.40001
1.84165
1.40001
1.76938
1.40001
1.40001
1.40001
1.40001
1.40001
1.40001
1.40001
1.40001
1.40001
1.72232
1.45876
1.40001
1.40001
1.40001
1.4
1.40001
1.40001
1.40001
1.40006
1.40001
1.40001
1.40001
1.40001
1.40001
1.40001
1.40001
1.40001
1.07504
1.3979
1.40001
1.75952
1.40001
1.40001
1.79354
1.40001
1.40563
1.08293
1.40001
1.3996
1.40001
1.40001
1.39844
1.40001
1.40001
1.40001
1.40001
1.40001
1.84239
1.40001
1.84439
0.958059
1.6991
1.40001
1.773
1.508
1.40001
1.40001
1.63402
1.4
1.07622
0.970608
1.40001
1.75139
1.74017
1.40001
1.40001
1.40001
1.40001
1.40001
1.39988
1.40001
1.40001
1.13115
1.40001
1.40001
1.76586
1.40001
1.40001
1.59443
1.72133
1.40001
1.40001
1.40001
1.69
1.74201
1.40001
1.40001
1.8136
1.40001
1.40001
1.71133
1.14642
1.72524
1.81106
1.40001
1.40001
1.79102
1.40001
1.40001
1.40001
1.77155
1.40001
1.40001
1.08195
1.40001
1.40001
1.40001
1.40001
1.40001
1.40001
1.40001
1.40001
1.40001
1.0401
1.40001
1.40001
1.40001
1.40001
1.40001
1.40001
1.82792
1.84127
1.40001
1.40001
1.82095
1.40001
1.78064
1.74012
1.40001
1.40001
1.40001
1.75956
1.7028
1.40001
1.40001
1.40001
1.75636
1.40001
1.40001
1.40001
1.77659
1.40001
1.40001
1.40001
1.78627
1.84674
1.7465
1.40001
1.40001
1.40001
1.26807
1.72071
1.72108
1.40001
1.8402
1.40001
1.73903
1.40001
1.40001
1.77535
1.40001
1.40001
1.73955
1.40001
1.1569
1.40001
1.40001
1.40001
1.40001
1.40001
1.40001
1.40001
1.40001
1.40001
1.76661
1.23549
1.40001
1.40001
1.40001
1.40001
1.7632
1.40001
1.73098
1.40001
1.40001
1.40001
1.71385
1.40001
1.40006
1.40001
1.40001
1.40001
1.40001
1.40001
1.40001
1.40001
1.40001
1.40001
1.7349
0.991512
1.40001
1.40001
1.71707
1.83885
1.40001
1.40001
1.84275
1.40001
1.40001
1.40001
1.40001
1.62396
1.71274
1.76715
1.40001
1.78479
1.40001
1.40001
1.79522
1.40001
1.71803
1.40001
1.40001
1.40001
1.40001
1.72149
1.75571
1.77705
1.40001
1.77743
1.77299
1.40001
1.77815
1.40001
1.72495
1.40001
1.40001
1.40001
1.40001
1.40001
1.51035
1.72549
1.77116
1.40001
1.77542
1.40001
1.40001
1.40001
1.10634
1.40001
1.74411
1.40001
1.40001
1.82659
1.40001
1.40001
1.40001
1.40001
1.74073
1.40001
1.40001
1.72045
0.954514
1.59062
1.40001
1.70558
1.72098
1.40001
1.77882
1.72797
1.40001
1.71645
1.40001
1.40001
1.40001
1.40001
1.68944
1.72008
1.40001
1.40001
1.53553
1.74269
1.40001
1.40001
1.40001
1.40001
1.40001
1.40001
1.15183
1.71064
1.40001
1.40001
1.40001
1.40001
1.77689
1.69242
1.40001
1.69237
0.95254
1.74679
1.40001
1.40001
1.40001
1.15028
1.40001
1.40001
1.40001
1.73728
1.40001
1.40001
1.40001
1.745
1.40001
1.40001
1.40001
1.40001
1.40001
1.40001
1.74575
1.40001
1.40001
1.40001
1.40001
1.40001
1.84182
1.40001
1.40001
1.78549
1.40001
1.40001
1.40001
1.40001
1.40001
1.40001
1.40001
1.40001
1.74356
1.40001
1.40001
1.40001
1.40001
1.56432
1.73449
1.40001
1.40001
1.40001
1.40001
1.40001
1.40001
1.20475
1.11566
1.42211
1.40001
1.43058
1.40001
1.45559
1.40001
1.7429
1.40001
1.68216
1.40001
1.40001
1.40001
1.40001
1.40001
1.40001
1.40001
1.40001
1.71817
1.40001
1.64397
1.77523
1.40001
1.40001
1.73945
1.40001
1.40001
1.40001
1.50466
1.10119
1.40001
1.74786
1.40001
1.40001
1.40001
1.40001
1.4
1.7323
1.40001
1.40001
1.40001
1.16566
1.40001
1.40001
1.73737
1.85091
1.40001
1.40001
1.40001
1.40001
1.40001
1.84721
1.40001
1.40001
1.40001
1.59243
1.40001
1.55738
1.40001
1.40001
1.40001
1.73413
1.40001
1.40001
1.14962
1.73222
1.40001
1.69742
1.43566
1.6679
1.40001
1.40001
1.50744
1.40681
1.74399
1.1653
1.44013
1.72027
1.40001
1.40001
1.40001
1.40001
1.40001
1.73771
0.959517
1.40001
1.40001
1.77101
1.62563
1.40001
1.47828
1.40001
1.40001
1.40001
1.20037
1.40001
1.40001
1.40001
1.73393
1.40001
1.40001
1.4254
1.39997
1.40001
1.59509
1.40001
1.39999
1.40001
1.727
0.957693
1.40001
1.40001
1.40001
1.40001
1.40001
1.40001
1.40001
1.40001
1.40001
1.40001
1.40001
1.40001
1.40001
1.40001
1.40168
1.20895
1.40001
1.71914
1.40001
1.40001
1.40001
1.40001
1.40001
1.40001
1.40001
1.83731
1.40001
1.20855
1.40001
1.40001
1.40004
1.40001
1.05639
1.40001
1.40001
1.40001
1.40001
1.40001
1.16272
1.40001
1.40001
1.40001
1.40001
1.40001
1.14268
1.40001
1.8405
1.40001
1.40001
1.40001
1.40001
1.40001
1.40001
1.40001
1.40001
1.7353
1.40001
1.40001
1.40001
1.40001
1.40001
1.40001
1.40001
1.40001
1.40001
1.40001
1.40001
1.71442
1.40001
1.5403
1.76199
1.40001
1.40001
1.40001
1.26411
1.40001
1.40001
1.40001
1.40001
1.40001
1.40025
1.49864
1.40001
1.40001
1.40001
1.40001
1.40001
1.73593
1.40001
1.40001
1.40001
1.40001
1.40001
1.40002
1.71576
1.24701
1.40001
1.40001
1.39684
1.40001
1.40001
1.40001
1.4
1.40001
1.40001
1.71147
1.4
1.40001
1.40001
1.40001
1.40001
1.14446
1.40001
1.40001
1.40001
1.68474
1.40001
1.40001
1.75333
1.40001
1.40001
1.40001
1.40001
1.40001
1.4
1.40001
1.79617
1.40001
1.40001
1.40001
1.40001
1.39614
1.40001
1.40001
1.40001
1.40001
1.40001
1.40001
1.4
1.40001
1.40001
1.15632
1.40001
1.14069
1.40001
1.64433
1.40001
1.40001
1.40001
1.76495
1.7073
1.40001
1.65604
1.15406
1.40001
1.83368
1.40004
1.40001
1.40001
0.988631
1.40001
1.40001
1.40001
1.40001
1.67385
1.40001
1.40001
1.40001
1.40001
1.40001
1.40001
1.40001
1.40001
0.966398
1.40001
1.40001
1.40001
1.40001
1.40001
1.40001
1.40001
1.7488
1.40001
1.77533
1.40001
1.40001
1.40001
1.40001
1.41757
1.40001
1.40001
1.40001
1.13905
1.38202
1.40001
0.992315
1.26536
1.40001
1.40001
1.78971
1.40001
1.40001
1.4
0.979797
1.70419
1.40001
1.40001
1.40001
0.958742
1.77777
1.40001
0.950303
1.40001
1.713
1.53357
1.40001
1.40001
1.40001
1.40001
1.40001
1.74269
1.40001
1.40001
1.40001
1.40001
1.40001
1.74404
1.40001
1.40001
1.39975
1.40001
1.73837
1.4962
1.84006
1.39991
0.963601
1.73949
1.40001
1.40001
1.40001
1.40001
1.16186
1.40001
1.21518
1.40001
1.45294
1.40001
1.3815
1.40001
1.40001
1.46916
1.40001
1.40001
1.74753
1.40001
1.48516
1.40001
1.40001
1.40001
1.72953
1.40001
1.06839
1.40001
1.40001
1.40001
1.40001
1.40001
1.80687
1.4439
1.76344
1.40001
1.40001
1.40001
1.40001
1.40001
1.40001
1.40001
1.40001
1.40001
1.40001
1.72777
1.76623
1.40001
0.917916
1.40001
1.40001
1.40001
1.40001
1.73361
1.40001
1.40001
1.40001
1.75571
1.70164
1.45654
1.81044
1.56142
1.80384
1.40001
1.40001
1.01314
1.40001
1.712
1.51996
1.51127
1.74115
1.40001
1.40001
1.71188
1.40001
1.34087
1.46015
1.40001
1.70312
1.61209
1.72524
1.40001
1.40001
1.40001
1.15813
1.40001
1.73734
1.76044
1.40001
1.59378
1.40001
1.40001
1.40001
1.40001
1.40001
1.73859
1.40001
1.40001
1.40001
1.40001
1.40001
1.39998
1.40001
1.72511
1.40001
1.78444
1.40001
1.40001
1.40001
1.40001
1.40001
1.40001
1.40001
1.40001
1.40001
1.40001
1.17737
1.40001
1.81095
1.17022
1.4
1.39894
1.40001
1.40001
1.64318
1.40002
1.40001
1.41543
1.40001
1.4
1.83781
1.39799
1.40001
1.40001
1.75517
1.48319
1.40001
1.69333
1.73048
1.76565
1.40001
1.72832
1.83782
1.40001
1.40001
1.62178
1.40001
1.40002
1.73169
1.40001
1.75756
1.39996
1.40001
1.40001
1.40001
1.66028
1.40001
1.10008
1.40001
1.74288
1.74589
1.40001
1.40001
1.40001
1.73652
1.64932
1.40001
1.40001
1.40588
1.39817
1.73789
1.40009
1.40001
1.40001
1.40001
1.40001
1.62493
1.40001
1.74112
1.73517
1.74997
1.40001
1.40001
1.40382
1.40001
1.40001
1.74418
1.40001
1.40001
1.40001
1.40001
1.40001
1.40001
1.4
1.40001
1.45134
1.65655
1.40001
1.40001
1.13384
1.40001
1.40001
1.18115
1.84121
1.40001
1.44924
1.39973
1.79363
1.4
0.938024
1.40004
1.40004
1.72959
1.77999
1.40001
1.40001
1.71695
1.40001
1.39883
1.41086
1.40001
1.0748
1.40001
1.40001
1.39804
1.40001
1.4039
1.40001
0.96043
1.40001
1.40001
1.40001
1.40032
1.40001
1.73112
1.40001
1.78219
1.40001
0.968936
1.40001
1.40001
1.76861
1.40001
1.40001
1.40001
1.40001
1.80584
1.8294
1.40001
1.40001
1.40189
1.40001
1.04716
1.40001
1.40001
1.40001
1.8111
1.40001
1.79576
1.72196
1.40001
1.40001
1.40001
1.40001
1.40001
1.40001
1.40001
1.40001
1.40001
1.40001
0.997477
1.40001
1.40001
1.40001
1.40001
1.83959
1.40001
1.40001
0.989691
0.930076
1.40001
1.4
1.40616
0.952801
0.900519
1.40001
1.40001
1.40001
1.72584
1.1778
1.40137
1.40001
1.40001
1.39956
1.40001
1.40001
1.40001
1.40001
1.64127
1.40001
1.40001
1.40001
1.77109
1.6818
1.40001
1.7485
1.40001
1.73318
1.62698
1.40001
1.40001
1.40001
1.40001
1.84092
1.40001
1.40001
1.40001
1.3971
1.53916
1.40001
1.40001
1.40001
1.40001
1.40001
1.40001
1.26865
1.73776
1.40002
1.40003
1.15587
1.39999
1.1069
1.09607
1.40001
1.73976
1.74966
1.72499
1.40001
1.73676
1.40001
0.917696
1.40001
1.40001
1.40001
1.3311
1.40001
1.40001
1.76677
1.40001
1.47673
1.74307
1.40001
1.40001
1.40001
1.47538
1.40001
1.73049
1.06121
1.40001
1.40001
1.68462
1.40001
1.40001
1.4
1.40001
1.40001
1.74628
1.40001
1.40001
1.40001
1.40001
1.40001
1.40001
1.40001
1.40001
1.7393
1.40001
0.953274
1.55896
1.40001
1.40001
1.40001
1.80847
1.39893
1.40001
1.40001
1.80558
1.40001
1.64997
1.40001
1.73938
1.0804
1.40001
1.39987
1.40001
1.40001
1.40004
1.40001
1.40001
1.72223
1.40001
1.40001
1.4
1.22947
1.13335
1.40001
1.7338
1.40001
1.70011
1.40001
1.4
1.40001
1.40001
1.40001
1.69222
0.968127
1.40001
1.39833
1.40001
1.40001
1.40121
1.43225
1.40001
1.40001
1.81261
1.40001
1.40001
1.40001
1.40001
1.40001
1.40001
1.46432
1.03643
1.40001
1.40001
1.48469
1.40001
1.40001
1.40001
1.40001
1.40001
1.65443
1.40001
1.40001
1.73584
1.40001
1.39987
1.40001
1.40001
1.40001
1.24648
1.82432
1.7108
1.40001
1.40001
1.40001
1.40001
1.73665
1.40001
1.40001
1.40001
1.42322
1.40001
1.40001
1.71579
1.84975
1.52482
1.12771
1.40001
1.73264
1.84412
1.40001
1.40103
1.40001
1.40001
1.40001
1.12472
1.40242
1.14462
1.40001
1.15542
0.955511
1.40001
0.961819
1.40001
1.40001
1.40001
1.40001
1.40001
1.73735
1.63308
1.39922
1.62052
1.40001
1.1351
1.33543
1.33134
1.40001
1.40001
1.75587
1.40001
1.4
1.40002
1.16254
1.40001
1.401
1.40001
1.59589
1.40001
1.40001
1.40001
1.39923
1.40001
1.40001
1.40001
1.73798
1.40001
1.13341
1.40001
1.78777
1.12209
1.40001
1.40001
1.4
1.40001
1.40001
1.40036
1.40001
1.40001
1.40001
1.78987
1.40001
1.76614
1.40001
1.40001
1.4
1.40001
1.60856
1.40001
1.40001
0.946793
1.40001
1.40001
1.40001
1.4
1.40001
1.40001
1.40001
1.11197
1.40001
1.40001
1.13843
1.40082
1.40001
1.75694
1.09939
1.40381
1.16016
1.74189
1.40001
1.40001
1.40001
1.40001
1.40001
1.40001
1.40001
1.40001
1.40001
1.40001
1.40001
1.40001
1.40001
1.40001
1.76786
0.966015
1.40001
1.40001
1.40001
1.40001
1.40001
1.40001
1.40001
1.40001
1.40001
0.948102
1.40001
1.40001
1.75596
1.40001
1.40001
1.57326
1.75581
1.1079
1.17804
1.18336
1.07753
1.40001
1.40001
1.14936
1.40027
1.81553
1.39687
1.40001
1.40001
1.73852
1.40001
1.40001
1.40001
1.25306
1.40001
1.55855
1.40001
1.40001
1.39995
1.4
1.40001
1.13336
1.40001
1.40001
1.40001
1.39951
1.40001
1.40001
1.40001
1.40001
1.00519
1.40001
1.4
0.926693
1.40001
1.34289
1.40001
1.39637
0.967212
1.40001
1.40001
1.40001
1.39924
1.15404
1.40001
1.15678
1.40001
1.70563
1.39989
1.16681
1.07606
1.40001
1.39068
1.40001
1.40001
1.40001
1.40001
1.40001
1.40001
1.49701
1.73415
1.40001
1.40001
1.40001
1.40001
1.40001
1.40001
1.40001
1.40001
1.40032
1.40001
1.40001
1.41674
1.40001
1.39859
1.20119
1.40001
1.40001
1.40001
1.40001
1.40001
1.40001
1.46535
1.40001
1.40001
1.40001
1.40001
1.40001
1.40001
1.40001
1.40001
0.951876
1.65344
1.39864
1.83003
1.39999
1.40001
1.41328
1.73095
1.40001
1.40001
1.40001
1.17563
1.7264
1.40001
1.77029
1.40001
1.40001
1.39982
0.963948
1.40001
0.938037
1.40001
1.40001
1.40001
1.02712
1.09204
1.40001
1.40001
1.40001
1.40001
1.4
0.951841
1.40001
1.40001
1.40001
1.51987
1.40001
0.953506
1.69756
1.40001
1.40001
1.40001
1.40001
1.40001
1.40001
1.40001
1.40001
1.8054
1.40001
1.40001
1.40001
1.40001
1.06504
1.40001
1.73945
1.40001
1.40001
1.77261
1.4
1.40001
1.40001
1.40001
1.60529
1.54292
1.40001
1.10337
1.40001
1.40001
1.40001
1.40001
1.40001
1.40001
1.40001
1.40001
1.40001
1.39999
1.40001
1.74156
1.40001
1.40001
1.40001
1.40001
1.40001
1.40001
1.40001
1.62857
1.40001
1.40001
1.40001
1.40001
1.80583
1.40001
1.40001
1.40001
1.40001
1.40001
1.39998
1.40001
1.39982
1.40001
1.40001
1.40001
1.40001
1.79483
1.40001
1.40001
1.7362
0.891073
1.40001
1.40001
1.40001
1.40001
1.40001
1.40001
1.40062
1.40001
1.40001
1.40001
1.84016
1.40001
1.40001
1.40001
1.73958
1.40001
1.40001
1.39971
1.40001
1.40001
1.40001
1.40001
1.40001
1.13226
1.43172
1.39956
1.39593
1.40001
1.40001
1.145
1.8402
1.40001
1.12387
1.40001
1.40001
1.70349
1.08997
1.39966
1.40001
1.74174
1.71504
1.40001
1.40001
1.38019
1.40001
1.76967
1.10222
1.40001
1.40001
1.40001
1.40001
1.75514
0.968176
1.39731
1.40001
1.72782
1.14139
1.40001
1.40001
0.963801
1.4629
1.40001
1.40001
1.40001
1.40001
1.40001
1.40001
1.40001
1.40001
1.40001
1.40011
1.40001
1.40001
1.40001
1.40001
1.40001
1.40001
1.40001
1.40001
1.40001
0.95327
1.40001
1.40001
1.40001
1.53229
1.40001
1.40001
1.40001
1.40001
1.40001
1.10281
1.40001
1.14086
1.40001
1.40001
1.40007
1.31347
1.18853
1.40001
1.40563
1.67543
1.40001
1.40001
1.05137
1.40001
1.40001
1.40001
1.40001
1.05279
1.01145
1.40001
1.40001
1.40001
1.40001
1.40001
1.40001
1.40001
1.40002
1.40001
0.96339
1.65173
1.40001
1.40001
1.22252
1.36314
1.40001
1.40001
1.40001
1.40001
0.984373
1.40001
1.16645
1.40001
1.40001
1.39989
1.40001
1.40001
0.938767
1.40001
1.73345
1.40001
1.13632
1.40001
0.99648
1.40001
1.40868
1.40001
1.75531
1.40001
1.40001
1.83853
1.40001
1.40001
1.60402
1.39671
1.40001
1.39829
1.40001
1.7058
1.40001
1.13585
1.40001
1.83957
1.39904
1.40001
1.40001
1.18728
1.40001
1.39997
1.15085
1.40001
1.40136
1.40001
1.40001
1.50657
1.40001
1.40001
1.40001
1.23293
1.40001
1.40001
1.40001
1.40001
1.40001
0.97173
1.4
1.40001
1.40001
1.40001
0.896511
1.73914
1.39999
1.1583
1.40001
1.40001
1.40001
1.40001
1.40001
1.84079
1.76158
0.956943
1.39988
1.40001
1.40001
1.4
1.40001
1.40001
1.40001
1.40001
1.64987
1.40001
1.40001
1.40001
1.72712
1.40001
1.40001
1.764
1.08282
1.40001
1.40001
1.40001
0.909478
1.40001
1.4
1.4
1.40001
1.40001
1.40001
1.40001
1.40001
1.40001
1.40001
1.84038
1.74136
1.76416
1.72498
1.77676
1.40001
1.40001
1.40001
1.40001
1.72409
1.40001
1.40001
1.40001
1.0032
1.78905
1.39992
1.40001
1.40001
1.40001
1.40001
1.53419
1.40001
1.47216
1.40001
1.40001
1.40001
1.29115
1.7442
1.6794
1.40001
1.78362
1.40001
1.40001
1.40001
1.781
1.40001
1.53929
1.3972
1.1684
1.40001
1.39999
1.40001
1.40001
1.40001
1.40001
1.40001
1.40001
0.952113
1.40001
1.40002
1.39526
1.21344
1.40001
1.40001
1.40001
1.4
1.15767
1.75412
0.875835
1.72886
1.40001
0.995373
1.40001
1.42312
1.40001
1.74444
1.14684
1.40001
1.40001
1.1316
1.40001
1.13427
1.40001
1.40001
1.40001
1.04077
1.40001
1.75796
1.16889
1.40001
0.941306
1.40001
1.74029
1.40001
1.40001
1.39994
1.40001
1.10634
1.40001
1.39965
1.14433
1.39997
1.3995
1.40001
1.15746
1.40001
1.40001
1.40001
1.40001
1.6324
1.40001
1.40001
1.40001
1.40001
1.84579
1.40001
1.40001
1.74015
1.40001
1.1244
1.40001
1.07551
1.40002
1.40001
1.40001
1.40001
1.40001
1.66712
1.65829
1.4068
1.40001
1.40001
1.77978
0.982999
1.13281
1.40001
1.40001
1.40001
1.40001
1.11681
1.40001
1.36998
1.40001
1.40001
1.73565
1.40001
1.40001
1.1545
1.85055
1.40001
1.15273
1.40001
1.40001
1.40001
1.40001
1.40001
1.40001
1.40001
1.40001
1.40001
1.40001
1.09614
1.39942
1.16034
1.40001
1.40001
1.40001
1.40001
1.74451
1.77327
1.40001
1.40001
1.19509
1.40001
1.40001
1.40001
1.40001
1.40001
1.40001
1.40001
1.7334
1.15426
1.72148
1.43085
0.909249
1.77806
1.40001
1.01541
1.39403
1.40001
1.40001
1.4
1.15247
1.4
1.18505
1.40678
1.39741
1.02277
1.77039
1.40001
1.40001
1.40001
1.40001
1.40001
1.83937
0.992106
1.40001
1.40001
0.906913
1.40004
1.40001
1.15669
1.13089
1.40001
1.40001
1.39915
1.73306
1.40001
1.40001
1.28384
0.956936
1.39999
1.85265
1.40001
1.40001
1.40001
1.40001
1.72512
1.40001
1.4
1.77505
1.40001
1.40001
1.40001
1.40001
1.58973
1.40001
1.40001
1.40001
1.40001
1.40001
1.73586
1.74199
1.40001
1.65181
1.40001
1.40001
1.40001
1.40001
1.40001
0.834029
1.13898
1.12987
1.40001
1.40001
1.77131
1.40001
1.40001
1.69158
1.00928
1.40001
1.72238
1.40001
1.75172
1.01214
1.40001
1.14167
1.40001
1.40001
1.79275
1.40001
1.83442
1.7369
1.40001
1.08406
1.40001
1.40001
1.42849
1.14897
1.40001
1.40001
1.40001
1.34293
1.40001
1.40001
1.84631
1.40001
1.14973
1.78168
1.40001
1.40001
1.40001
1.40001
1.40001
1.40003
1.50213
1.40001
1.74096
1.40001
1.40001
1.40001
1.39847
1.40001
1.7852
1.40001
1.40001
1.71958
1.40001
1.82874
1.40001
1.72031
1.66866
1.40001
1.40001
1.40001
1.1436
1.73714
1.40001
1.40001
1.74936
1.40001
1.40001
1.40001
1.74125
1.40001
1.40001
1.40001
1.40001
1.40001
1.52467
1.49459
1.4
1.40001
1.18335
1.40001
1.40001
1.40001
1.40001
1.40001
1.39989
1.40001
1.40001
1.78181
1.15148
1.39999
1.40001
1.73674
1.40001
1.40001
1.40001
1.79045
1.73627
1.37261
1.40001
1.16858
1.40001
1.51245
1.76527
1.74025
1.40001
1.40001
1.40001
1.40001
0.868693
1.40001
1.40001
1.7444
1.44851
1.40001
1.40001
1.40001
1.40001
1.40001
1.40001
1.40001
1.39994
1.8412
1.40001
1.40001
1.40001
1.40001
1.40001
1.70006
1.40001
1.40001
1.40001
1.40001
1.42846
1.74859
0.980006
1.39883
1.40001
1.40001
1.40001
0.970485
1.8303
1.40001
1.40001
1.40001
1.40001
1.40001
1.40001
1.40001
1.40001
1.40001
1.74252
1.79724
1.12327
1.44915
0.912395
1.40001
1.03211
1.40001
1.75296
1.61359
1.40001
1.40001
1.26694
1.40001
1.70617
1.36504
1.39698
0.986811
1.40001
1.40001
1.83829
1.40001
1.39713
0.871375
1.84172
1.84578
1.40001
1.40001
1.40001
1.40001
1.40001
1.40001
1.40001
1.40001
1.40001
1.75612
1.40006
1.40001
1.40001
1.15962
1.40001
1.40001
1.8036
0.960858
1.33385
0.942646
1.72592
1.39999
1.40001
1.40001
1.16836
1.14029
1.44035
1.40001
1.40001
1.79904
1.40001
1.40001
1.40001
1.40001
1.79281
0.962794
1.40001
1.40001
1.40014
1.75541
1.40014
1.72119
1.40001
1.40001
1.40001
1.40001
1.31445
1.40001
1.21843
1.40001
1.40001
1.4
1.16121
1.40001
1.17027
1.07673
1.40001
1.40001
1.79296
1.40001
1.40001
1.40001
1.73814
1.40001
1.40001
1.82065
1.80454
1.23923
1.81841
1.4
1.40001
1.40001
1.72665
1.40001
1.40001
1.40001
1.40001
1.40001
1.84821
1.40001
1.40001
1.40001
1.40001
1.79737
1.40023