/*--------------------------------*- C++ -*----------------------------------*\
  =========                 |
  \\      /  F ield         | OpenFOAM: The Open Source CFD Toolbox
   \\    /   O peration     | Website:  https://openfoam.org
    \\  /    A nd           | Version:  12
     \\/     M anipulation  |
\*---------------------------------------------------------------------------*/
FoamFile
{
    format      ascii;
    class       volScalarField;
    location    "5.17";
    object      T;
}
// * * * * * * * * * * * * * * * * * * * * * * * * * * * * * * * * * * * * * //

dimensions      [0 0 0 1 0 0 0];

internalField   nonuniform List<scalar> 
22702
(
1
1
0.961578
1
1.01656
1
1.11955
1
1
0.888821
1.12039
1.1198
1
1.11882
0.967646
1
1
1
1.12053
1
1.11877
1
1.1198
0.899379
1.11729
0.879121
1
1.11941
0.895378
0.894959
1
1.12045
1
1
1
1.11053
1.1189
1.11979
1
1
0.881169
1
1.06295
1
1.11974
1
1
1
1
0.899257
1
0.899758
1
1.12024
1
1.12118
1
1
1
1
0.889396
1
1
0.898485
1
0.897546
1
1
1
0.883401
1
1.11819
1.07607
1
1.11818
1.12507
0.892621
1.11945
0.897392
1
1.12109
0.897528
1.11974
1.11971
1
1
1
1
0.981605
0.88372
1.12076
1
1
0.898634
1
1.11869
0.897193
1
1
1
1
1.06329
1.12083
0.880369
1
1
1.03101
1
0.896921
1
1.11959
1.12029
1
1
0.884142
0.888228
0.885511
1
1
1
1
1
0.976969
1
1.10323
1.0122
1.1195
1
1.11955
1.121
1.11873
1.12083
1
0.879227
1
0.896951
1
1
1
1
1.12081
1
1
1
1
1.11942
1
1.0078
1
1
1
1
0.899233
1
1.00298
1
0.898169
1
1
1
1.12036
1
1.11881
0.890676
0.886714
1.11795
1.11823
1
1.02352
1.07114
1
1.12107
0.897373
1.11082
1
1
1
1
1.11871
1.10167
1
1.12025
0.902283
1.1211
1
0.896017
1
0.898332
0.879381
0.999936
1
1
1.12007
1
1
1.11874
1
1.11976
1.12029
0.896644
1
1
0.897228
1.11867
1
1
1
1.11865
1
0.888806
1
1
1.11848
1.11851
1.11966
1
1.00001
1
1
1
1.11866
1
0.900785
1.12265
1.11873
1.11927
1
1
1
0.891922
1.1184
1.05881
1
1.119
0.900307
0.897212
1.11896
1.11751
1
1.12003
0.882302
1.10591
1
1
1
1
1.1187
1
1.07062
1.01241
1
1
1.11886
0.892626
0.929687
1
1.11784
0.885199
1.11986
1
1
1
1
1
1
1
0.894743
0.9284
0.896893
1.1185
1
1
1
1
1.1103
1
0.895806
1
0.888847
0.897522
1.11867
0.896625
1.11894
1
1
1
0.999297
0.89724
0.884213
1
1
0.887199
1
1.12082
0.881879
1
1
1.12111
0.892494
1
1.11746
0.887721
1.11883
1
0.891693
0.99932
1
1
1
0.900057
1
1
0.999999
1
1.00505
1.07623
1
0.894463
1
1
1
1
1
1
1
1.12091
1
1.12148
1
1
1
0.891022
1
1.11921
0.898676
1
1.1012
1
1
1.12098
1
1
1
1.11881
1
1
1.1158
1.12091
1
1.02823
1
1
0.897354
1
1
1
0.898897
1
1
1
1
0.893215
1
1
1
1
1
0.890094
1.00002
1.11844
1
0.999997
1.11814
1.11803
1
1
0.898565
0.943802
1.12051
1
1
1
1.11878
0.885324
1
1.11868
1
1
0.911426
0.910462
1
0.892258
0.891485
1
1
1
1
1
1
1
1.11963
1.03108
1.11198
0.8924
0.973318
1.1217
1
1.11859
1.12027
0.897385
0.929847
1
0.891131
1
1.12474
1
1
1
1
1.1187
1
1
1
1
1
1
1
1.04797
1.12017
1
1.11851
1
1
0.89856
1
1
1
1
1.11859
1.09253
1
1
0.894984
1.1186
1.1185
1
1.11847
1.11871
1.11853
1
0.950631
1
1.11837
0.996752
1.11849
1
0.896438
0.999665
1.12127
1
1
1
1
0.893693
1.11845
1.10848
1
1.11744
1.11854
1.12051
1
1.05956
1.11899
1
1
1.08573
1.01917
1.11851
0.981204
1.11853
1
1.11848
1.11849
1.1185
1.11845
1
1.11738
0.973436
0.966128
1
1
1
1
1.11769
1
1
1
1
1
1.12085
1
1
0.998984
1.11852
1.10787
1
1.09814
1.00001
1
1
1.11836
1
0.999062
1.00128
1
1.11848
1
1.11867
1
1
1.09049
1
1.11874
1.00001
1
1.11908
1
1.11857
1
1
1
1.11874
1
1.11812
1
1.11871
1.12077
1.11869
1.11969
1
1.12025
1.11534
1
0.892296
1.11198
1.08828
1
1.11875
1
0.895533
0.888156
1
1
1
1
1
0.892858
1
1.11847
1.03312
1.11836
1
1
1
1
1
1.11851
1
1.11931
1.0737
0.930733
1
1
1.03701
1.03252
1
1
1.0453
1
0.899573
1.11873
1.11866
1
1
1
1.12057
1
1.00001
1.12032
1.11843
0.987325
1
1
0.898015
1.10852
1
1
1
1
1
1.11854
1.12048
1
1.11902
1.11831
1.11879
1
1
1
1
0.878477
1.12065
1
1
1.10888
1.11834
1
1.11237
1.1199
1
1
1
1
1
1.11854
1
1
1
1
1.11768
1
1.11757
0.89327
1
0.887644
1
1
1
0.999149
0.895359
0.999713
1
1
1
1.01806
1
1
0.964107
1
1
1
1
1
1
1
0.999999
0.980389
1
1
0.999309
1
0.893821
1
1
1
1
1.09117
1
1
1
1
0.901597
1
1
1.11226
1.12075
1
1
1
0.967184
1
1
1
1
1
1
0.988103
1.00454
1.11869
1
1
1
1.12017
0.971634
1
1
1
1.11995
1.11813
1
1
1
1
1
1
1
1
1
0.891697
1
1
1.11948
0.888297
1
1.11961
1
0.899589
1
1
0.891452
1
1
1
1
1
1
1
1.11655
1.11843
1
1
1
1
1.10932
1
1.04142
0.89066
1
1
1
1
1
1
1
1.01069
1
1
1.06411
1
1
1
1.10008
1
1
1
1
0.889426
1
1
0.884343
0.8912
1
1
1.11842
1
1.01018
1
1
1
1.08585
0.889736
1
0.885872
1
0.933033
1
1
1
1.11887
1
1
1.11846
1
1
1
1.11839
1
1
1.11848
1
1
0.897613
1
1.04008
1
1
1.12135
1.12157
1.08191
1.10707
1
0.897236
1
1
1.11382
1
0.888362
1
1
1
1.11876
1
1
1
1
1.07513
1
1.11222
1.11881
0.892806
1
1
0.880076
0.879877
1
1
1
1.08705
1.09194
1
1
1
1
1
1
1
1.05444
1.12046
1.00311
1
1.11713
0.882864
1
1
1
1.06871
1
1.02632
1
1.1092
1.11816
1
0.896163
1
1.12151
1
1
1.11853
1.11214
1
1.12179
1
0.907241
1
1
1
1.1168
1.11649
1.1058
1
1.11923
1.11855
1
1.11876
1
1.11818
1
0.886065
0.994117
0.889048
1
1
1
1
1
1.11879
1
1.11887
1
1
1
1.11328
1
0.896212
1.11853
1
0.896318
0.895398
0.891821
1
1.06056
1.01127
1.11901
1.11855
1
1
1
1
1.11858
1
1
1.11861
1.11853
1
1.04657
1.00001
1
0.999083
1.11996
0.95811
1
0.948753
0.899664
0.899649
0.991899
1.11933
1.11719
1.02826
1.11847
1.11853
1
1
1.12042
1.11989
1.11867
1.12165
1
1.11861
0.889599
1.11965
1.1188
1.11995
1.11831
0.963154
0.969233
0.979942
1.11848
0.990136
1.11854
1
1
1.11898
1.11875
1
0.889036
1.11866
1.11843
1
1.11854
1.11877
1
1.11861
0.900266
1.11933
1.1205
1.12059
1.11848
1
1
1
1.11839
1.07971
0.895005
1.11841
0.885856
1.11836
1
1
1
1
1.11971
1.11853
1
1
1.11858
0.888961
1.11888
0.895915
1
1.1179
1
0.888278
1.11883
0.920117
1
1.11852
1.11909
1.11833
1
1
1.06167
1.11899
0.896002
1.11841
1
1.11887
0.963913
1.11905
0.891392
1
1.1184
0.901103
1.11899
0.897417
1
1.11869
1
1.11974
1
1.07267
1.11459
1.09513
0.889616
1
1.11865
1
1.11895
1
1.11867
1
1
1.11864
0.996665
1.1192
0.898997
1.10768
1
1.08624
1
1.11928
1.11862
1.11856
1
1.10791
1.11874
1.11065
1.07605
1.11776
1
1.08178
1
1.11874
1
1.02104
1
1.11053
1
1.11891
1.1137
1.11346
1
1.11968
0.882568
1
0.89423
1
1
1
1.12033
1
1.1188
1
1
1
1.11878
1.11563
1.09858
1.11879
1.11955
0.886492
1.11615
1.12048
1
1.10419
1.11851
1.11591
1
1.12138
1.12131
1
1.12214
1.11895
1.11895
1.11884
1
1
1
1.11845
0.889445
1
1.11858
1
1
0.891864
1
1
1.1185
1.11863
1
1.11845
1.11998
1.11863
0.992875
1.11856
1
1.11861
1.11854
1.09516
1
1
1
1.11899
1.11866
1.11851
0.984764
1
1.1188
1.11866
1.11862
1
1.1186
1.11876
1.11857
1.119
1
1.11834
1.11933
1.10327
1.11868
1.11875
1
1.11995
1.11741
1.11857
1.11931
1.11835
0.890142
1.11858
1.11877
1
1.1185
1.11847
1.11868
1.11869
1
1.11844
1.1186
1
1.11848
1.10192
1
1
1
1.11937
1.11679
1
1
1.06857
1
1.11871
1
1
1.11848
1.11901
1.11846
1.11854
1
1
1
1.08646
1
1.11891
1
1
1.12007
1.12068
1
1.11851
0.881178
1.11866
1.11872
0.914236
1
0.886015
1.10447
1.11942
1.1187
1.11917
0.889189
1.1187
1.11891
0.88909
0.885322
1
1.11894
1.1185
1
1
1.11872
1
1.11823
1
1.10505
1
1.05943
1.11846
1.11901
1.08735
1.10767
1.12044
1.11861
1.11218
1
0.886992
1.11952
1.11874
1.12034
1
1
1
1.11979
1
1.11868
1.11803
0.927303
1
1.1187
0.999981
1
1.00001
1.00001
1.11872
1.11959
0.999578
1
1
1.11895
1.11904
1.11886
1.11932
1.11821
0.896566
1.10234
1
1.11786
1.11849
1.11857
1.11774
1
1.11843
1.11573
1.11887
1
1.11894
1.11898
0.959241
1.11847
1.11905
1
1.11851
0.951564
1.11875
0.960231
1.11845
1
1.11834
1.12263
1.11865
1.1186
1.11868
1.1181
1.11865
1.11964
1
0.981965
1.11872
1.11853
0.952072
1.11854
0.995982
1.08047
1.11864
1.11803
1.11951
1
1.1192
1.07879
1.11851
0.976438
1.11913
1.12188
1
0.959928
1
1.11717
1
1.08388
1
1.11549
0.961346
1
1.11898
1.1185
1
1.11933
1.11903
1.12135
1.11969
1.12041
1
1.12122
1
1
1
0.969619
1.11869
1.11878
1.11967
1.11851
1.11672
1.11905
1.11757
1.1188
0.970825
1.00905
1
1
1.12338
1.1187
1.11862
1.1186
1.00001
1.0639
1
1.12198
1.10321
1
1
0.918493
1.11856
1
1
0.892179
1.11853
1
1.12049
1.11871
1.12048
1.1146
1.11826
1
0.891513
1.03065
1.11878
1.11824
1
1.11853
1.1185
1.06273
1.00299
1.02679
1
1.11991
1.11854
1
1
0.892335
1
1
1.11858
1.11858
1.11843
1.11894
1.1185
1.12064
1.11858
1.11894
1.11854
1
0.998888
1.11867
1.11883
0.999081
1.11853
1.11852
0.892548
0.892572
1.11809
1.1185
1
1
1.00047
1.11865
1.11838
1.11854
1
1.1185
1
0.959354
1.12105
1.1196
1
1.05487
1.11852
1
1.11945
1
1.11841
1.08108
1.11813
1
1.11877
1.1182
0.891281
1.11871
1
1.11864
1.12016
1
0.89123
1.11952
1.10092
0.999358
1.11511
1.11851
1
1.00276
1.11938
0.999566
1.1187
1
1
1.11861
1
1.11931
1.11854
0.999005
1.09511
1
1.11855
1
1
1
1
1.11866
1
1
1.12005
1
1.11883
1
1.07914
1.11909
1.1189
1
1
1.00348
1
1.1189
1.11861
1.11851
1.11858
1.119
1.11852
1.11855
1
1.11859
1.1185
1
1.11863
1.11854
1
1.11822
0.981274
1.01703
1.11858
1.11853
1.11874
1
1.11864
1
1.11857
1.11861
1
1.11829
1
1
1
1
1.11841
0.888916
0.999401
1
1.11867
1.118
1
1.11861
1
1.00136
0.886707
1.11866
0.999881
1
1.11765
0.999533
1.11857
1
0.999931
1
1.11781
1.12054
1.1184
1.11894
0.892766
1.11853
1.11918
1.11859
1.03164
1
1
1.05511
1.11851
0.885859
0.894757
1
1.11882
1.11854
1.11945
1
1
1.11879
1.1189
0.999963
1
1.08821
0.881808
1
1.0237
1.12124
1.11824
0.999492
1.11853
1.11931
1
0.99953
1
1.11838
1.11987
1.05021
1
1.11067
1
0.999961
1.11864
0.880525
1.11806
1.11858
0.999114
0.999976
1.10573
1
0.999915
1
1.12017
1
1
0.881382
1.11881
1
1
1
1
1.11805
1.06933
1
1
0.889324
1.1187
1.07021
1
1
1
1.11377
1.1165
1.11987
1
1
1.11893
1
1.11865
1.11867
1
1
1.11877
1.11841
1.1122
1
1
1.11888
1.11862
1
1
1
1.11912
1
1
1
1.11845
1.11963
1.119
1
1.11947
1.00001
0.903877
1.11806
1.11807
1
1.11998
1.11728
1.12036
1
1
1.11977
1
1.07037
1.11953
1
0.892761
1
1.11889
1
1
1.11985
1
1
1
1.04019
1.11974
0.896638
1
1.11905
1
1
1.11882
1
1.11976
1
1
1.1185
1.11858
1
1.00002
1
1
1
1
1
1
1.118
1.11876
1
1.12042
0.888087
1.1186
1
1.11868
1.12055
1.1186
1.11569
1.1212
1
1
1.11944
1
1.08109
1.11966
1.11851
1
1.11927
1.11635
1
1.10681
1
1.11865
1.08049
1.11939
0.999309
1.11685
1.11105
1.11887
1.11875
1.0105
1.1186
1.1194
1
1.11857
1
1.11851
1
1
1
1
0.998936
1.11859
1.11859
1.10216
1
1.12084
1
1
1
0.882244
1
1.11616
1
1.10855
1.11296
1
1
1
1.1101
1.11999
1
1
1.11814
0.890186
1.02235
1
1.11969
1.11847
1.10881
1.11617
1.1186
1
1.11865
1
1
1
1
1.11916
1.1188
1
1.11673
1.01669
1.11872
1.11117
1
1
1.11161
1
1
0.895895
1.08655
1
1
1.11895
1
1.11952
1.10923
1
1.10849
0.889249
1.11873
1.11846
1.11868
1
0.901911
1
1
1
1.11858
1.09785
1
1.12042
1.11872
1
1.11843
1
1
1
1
1.11872
0.999823
1
1.11877
1
1
1.11688
1.11855
1
1.12152
1.02447
1.00001
1
1.11846
1
1.11848
1
1.00429
1.11858
1
1.11843
1
1
1.03796
1.11854
1
1
1
1
1
0.998912
0.887996
0.890581
1.00531
1
1.00874
1
1.00901
1
1.11858
1
1.07508
1
1.11846
1
1
1
1.11838
1
1.09356
1.11891
1
1.06583
1.11884
1
1
1.12011
1.11843
1
1
1.01696
0.888132
1
1.1188
1
1
1
1
1.02106
1.11867
1
1
1
0.892279
1
1.11848
1.11869
1.11943
1
1
1
1
1.06117
1.11925
1
1
1
1.11872
1.11867
1.01587
1
1
1
1.11828
1.11871
1
0.892458
1.11864
1.11853
1.11853
1.11884
1.11828
1
1
1.11968
1.11806
1.11861
0.895031
1.01172
1.11873
1
1
1
1
1
1.11873
0.892993
1
1
1.11867
1.05822
1
1.11971
1
1
1
0.89796
1
1
1.03199
1.11855
1.11871
1
1.11702
1.12048
1
1.02248
1
1.12049
1
1.11882
0.89098
1
1
1
1
1.11844
1.00002
1
1
1
1.11347
1
1
1
1
1.11873
0.897884
1.09611
1.11927
1
1.11846
1
1
1
0.999197
1
1.11957
1
0.944548
1
1
1.00001
1.11883
0.88811
1
1.11833
1
1.11925
1.11883
0.888594
1
1
1.11499
1
1
0.907099
1
1.11809
1
1.1139
0.999796
1.11865
1
1
1
1
1.12001
1
1
1.11854
1
1
1
1
1
1
1
1
1.08087
1
1.04117
1.11898
1
1
1
0.896157
1
1
1
1
1.11958
1.11858
1.01723
1
1
1.11905
1
1
1.1186
1
1
1
1
1
1
1.11883
0.936092
1.1187
1.11884
0.999218
1
1
1
1.07239
1
1
1.11859
1.1184
1
1
1
1
0.885723
1
1
1
1.07772
1
1.11857
1.11928
1
1.119
1
1
1
1.06793
1
1.1202
1
1.11861
1
1
0.998906
1.11866
1
1
1
1
1
1.11897
1.00001
1
0.897645
1.11951
0.908048
1
1.11805
1
0.998895
1
1.11876
1.11956
1
1.11575
0.963125
1.1186
1.11865
1.00001
1
1
0.889314
1
1
1
1.11877
1.07344
1.11912
1
1
1
1
0.999075
1.11898
1
0.885781
1
1
1
1
1
1
1
1.12046
1.11901
1.11925
1
1
0.999127
1
0.995925
1
1
1
0.8873
0.99679
1
0.888879
0.896462
1
1.11871
1.11868
1
1.1191
1.1186
0.88537
1.0807
1
1
1
0.885618
1.11855
1
0.883869
1
1.11988
1.02432
1
1
1
1
1.11891
1.11894
1
1
1.11857
1
1
1.11972
1.11849
1
1.11228
1.11861
1.12083
0.989641
1.11897
1.00247
0.885639
1.09364
1.11833
1
1
1
0.884473
1
0.88917
1.11987
0.989483
1.11845
0.988252
1
1.11865
1.05751
1
1
1.11946
1
1.05091
1.11856
1
1
1.11801
1.1203
0.890775
1.07047
0.999968
1
1.07763
1
1.11874
0.984572
1.12261
1.11789
1
1
1
1
1.11628
1
1
1.1188
0.999895
1.11873
1.09731
1.11793
0.895022
1
1
1
1
1.11871
1.00001
1.11842
1
1.11879
1.11806
1.01678
1.12006
1.04
1.11896
1
1.08368
0.896087
1.11985
1.11855
1.09889
1.0244
1.11897
1.11862
1.1186
1.11831
1
0.981542
1.01881
1
1.11854
1.05827
1.1187
1.00001
1
1
0.903002
1.11988
1.11965
1.09871
1
1.04639
1
1.12077
1.12002
1
1.119
1.11976
1
1
1
1.11913
1
1.04937
1.11886
1.08451
1
1.11871
1
1
1
1
1
1
1
1
1
1
0.898781
1
1.11061
0.890268
1.0719
0.999591
1.11944
1
1.06379
1
1.07968
1.10252
1
1.00065
1.12043
0.977214
1
1.11992
1.11493
0.983473
1
1.11899
1.11864
1.11919
1
1.11872
1.11892
1.11932
1
1.05818
1
1.00002
1.11876
1
1.11882
1.01868
1.11852
1
1
1.11832
1.12043
0.901765
1
1.11847
1.09126
1.11865
1
1
1.12033
1.11772
0.9995
1
1.10301
0.999104
1.11872
1.00002
1
1
1
1
1.05662
1
1.09337
1.119
1.09028
1.11863
1
1.00065
1
1
1.12043
1
1.11946
1
1
1
1
1
1
1.01572
1.06493
1
1
0.883978
1
1.11821
0.89722
1.12079
1
1.06409
0.99993
1.119
1.07913
0.89561
1.06867
1.00001
1.11868
1.11917
1
1.07537
1.11995
1.1189
0.999546
1.11835
1.11549
0.890158
1
1
0.999294
1
1.11536
1
0.895945
1.11914
1
1
1.10536
1
1.11892
1
1.11861
1
0.896071
1
1
1.11884
1.1187
1.11967
1
1.11799
1.11846
1.11676
1
1
1.11742
1
0.920688
1
1
1
1.11907
1
1.11857
1.08076
1.11799
1
1.11863
0.999822
1
1
1
1
1
1
0.909722
1
1
1.11874
1
1.11961
1.11923
1
0.890703
0.888018
1
1.11901
1.02055
0.889359
0.886712
1
1.11921
1
1.11934
0.889011
1.00051
1
1
0.999859
1
1
1
0.999976
1.05107
1.11851
1
1
1.1189
1.07249
1
1.10597
1.11861
1.11872
1.05114
1.11644
1
1.11877
1
1.11617
1
1.11887
1.11835
0.999038
1.11937
1.11941
1
1
1
1
1
0.975621
1.11966
1.00001
1.00001
0.882212
0.999992
0.891636
0.883468
1
1.11857
1.1187
1.11875
1
1.11863
1
0.891484
1
1
1.11949
0.949685
1.11855
1
1.11867
1
0.997273
1.11852
1
1
1
1.11941
1
1.11899
0.89168
1
1
1.0734
1
1
1.06843
1
1
1.1187
1
1
1
1
1
1.11964
1.11862
1
1.11962
1.1188
0.896625
1.0582
1.11827
1
1
1.10776
0.999706
1
1
1.11865
1.1179
1.0842
1
1.11858
0.893015
1.10969
0.999783
1
1.11916
1.00001
1.11805
1.10278
1.09254
1
1
1.11837
0.905815
0.884256
1
1.11858
1
1.11837
1
1.07259
1
1
1.11868
1.08018
0.884901
1
0.999504
1
1
1.00739
1.0509
1.11836
1
1.11964
1
1
1
1
1
1
1.01932
0.889843
1
1
1.01105
1
1
1
1
1
1.11847
1
1
1.11858
1.11823
1.08743
1
1
1
0.95265
1.1196
1.08474
1
1
1
1
1.11851
1
1
1
1.11881
1
1
1.08832
1.12307
1.01058
0.924598
1.11922
1.08657
1.11903
1
1.06385
1
1
1
0.881525
1.00056
0.882654
1
0.884137
0.88717
1
0.892071
1
1
1
1.05689
1
1.11856
1.11865
1.00043
1.06124
1.10065
0.885481
0.92989
0.967542
1
1.11862
1.11967
1.11863
1.11851
1.10317
0.966012
1
1.10385
1
1.11298
1
1
0.999018
1.00265
1
1
1
1.11983
1
0.885039
1
1.11884
0.899805
1
1
1.11851
1
1.11842
0.999894
1
1
1.11893
1.11082
1
1.12395
1
1
1.00408
1
1.05429
1
1
0.895309
1
1
1.11835
0.999999
1.11897
1
1.00001
0.897573
1
1
0.892532
1.00031
1
1.11913
0.892807
1.11856
0.89049
1.11849
1
1
1
1
1
1
1
1
1
1
1
1.11432
1
1.11897
1.12032
0.891901
1
1
1
1
1
1
1.1159
1
1
0.88935
1
1
1.11939
1
1
1.04836
1.1013
0.895364
0.891049
0.900609
0.919463
1
0.999127
0.883894
1.00013
1.10917
0.999134
1
1
1.11863
1
1
1
0.930578
1
1.04617
1
1
1.05327
1.11868
1
0.881748
1
1
1
0.999026
1
1.11793
1.11855
1
0.889138
1
1.06822
0.888427
1
0.971101
1
0.998717
0.885899
1
1
1
0.998742
0.88711
1
0.882153
0.999552
1.06643
1.10798
0.890699
0.894844
1
0.997362
1
0.999611
1
1.11845
1.11866
1
1.00694
1.11858
1.1187
1
1
1.11854
1
1
1.00001
1
1.12038
1
1
1.00506
1
0.999594
0.900791
1
1
1
1
1
1.11923
1.01049
1.00001
1
1
1
1
1
1.00001
1
0.896148
1.02887
0.999595
1.11544
1.11954
1
1.00485
1.11864
1.10407
1
1
0.886362
1.11849
1
1.11987
1
1.11903
1.08321
0.89454
1
0.887914
1.10891
0.99991
1
0.889915
0.887
1
1
1.10205
1
1
0.88964
1
1
1
1.04071
1
0.892515
1.11895
1
1
1
1
1.11855
1
1
1.11967
1.10714
1
1
1
1.1205
0.888505
1
1.11917
1.11865
1
1.09702
1
1.00001
1
1
1.10964
1.00674
1
0.898459
1.06717
1
1
0.999528
1
1
1.11915
1
1
1.00001
1
1.11907
1
1
1
1
1
1
1
1.0565
1
1.11894
1
1
1.11886
1
1
1
1.11856
1.1193
1.01248
1
0.999285
1
1
1
1
1.11994
1
1
1.11857
0.887701
1
1
1
1
1
1
1.09808
1
1
1.1191
1.11938
1
1
1
1.11937
1.11774
1
0.999914
1.11866
1
1
1
1.00001
0.887298
1.00859
0.998825
0.998876
1
1
0.882679
1.11865
1
0.894982
1
1.11821
1.11428
0.894584
0.99983
1.11835
1.11922
1.11787
1
1
0.978106
1.10681
1.10063
0.891059
1
1
1
1.11855
1.11842
0.888311
0.999244
1
1.11857
0.890715
1
1.1143
0.889757
0.994304
1.00203
1
1.11744
1
1
1
1
1
1
1.00003
1.11151
1
1
1.11946
1
1
1
1.11849
1
0.895668
1
1
1
1.0435
1
1
1
1
1
0.936483
1
0.895274
1
1.11864
1.00002
0.962431
0.962193
1
1.00109
1.0663
1
1
0.883592
1.11854
1.11864
1.11845
1
0.884294
0.893334
1
1.11827
1
1
1
1
1
1.00001
1
0.892264
1.07817
1
1
0.898085
1.00055
1
1
1
1
0.884327
1
0.898085
1
1
1.1208
1
1
0.884889
1
1.11863
1
0.88641
1
0.891732
1
1.0023
1.11903
1.12287
1
1
1.12024
1
1
1.02864
0.99909
1
0.999462
1
1.1193
1
0.886395
1
1.12176
0.999691
1
1
0.940362
1
0.999714
0.88684
1.11944
1.04766
1
1
0.972888
1
1
1
0.93739
1
1
1
1.1186
1
0.894433
1
1
1
1
0.891201
1.11857
1.1072
0.889217
1
1.1186
1
1
1.11833
1.12014
1.10179
0.885904
0.999332
0.999781
1
1.1185
1
1
1
1
1.11829
1.00001
1
1
1.11802
1
1
1.11842
0.888888
1
1
1
0.894755
1
1
1
0.999624
1
1
1
1
1.09929
1
1.11971
1.11932
1.12231
1.11868
1.11884
1.1184
1
1.119
1
1.11868
1.11833
1
0.999683
0.888467
1.10311
0.999972
1
1
1
1
1.00013
1
1.01902
1
1
1
0.95209
1.11843
1.11816
1.1187
1.1055
0.999965
1
1.00691
1.11889
0.999409
1.01894
0.999183
0.889837
1
1.00001
1
1
1
1
1
1.11804
0.893528
1.1181
1.11857
0.998643
0.886264
1
1
1
1.11878
0.891457
1.1057
0.890494
1.11866
1.11848
0.893382
1.11896
1.00688
1
1.1194
0.945609
1
0.999638
0.886684
1
0.892898
1
1.11841
1.11879
0.924093
1
1.11899
0.89014
1
0.892089
1
1.11857
1
1
1.1191
1
0.951817
1
0.999911
0.893754
1.11848
0.999849
1
0.883605
1
1
1
1
1.06948
1
1.119
1
1
1.12252
1
1
1.11901
1
0.897096
1
0.894681
1
1
1
1
1
1.11404
1.0722
1.11848
1
1.11872
1.1112
0.888124
0.880319
1
1
1.1191
1
0.895718
1
0.999643
1
1
1.11852
1
1.11825
0.88801
1.12196
1
0.88599
1
1
1.11914
1.11864
1
1.00001
1
1.11499
1
1
0.884395
0.999832
0.886508
1
1
1
1.11938
1.11951
1.11953
1
1
0.893099
1
1.11788
1
1
1
1.11329
1.11858
1.11864
0.894956
1.11938
1.11852
0.893388
1.11937
1.00001
0.892986
1.00543
1
1
1.11834
0.895623
1.07902
0.893913
1.11849
0.999265
0.886325
1.11921
1
1
1
1
1.11842
1.12026
0.891384
1
1.00001
0.88932
1.00001
1
0.885982
0.8841
1.08527
1.11932
0.999564
1.11864
1
1.12074
0.951371
0.886775
1.11851
1.12211
1
1.11845
1
1
1.11861
1
1.09281
1.11948
1
1
1
1
1.11871
1.11776
1.11817
1
1
1.11864
1.12017
1.11869
1
1.11869
1
1
1
1
1
0.892935
0.954865
0.884485
1
1
1.11905
1
1
1.11749
0.881517
1
1.11864
1.11759
1.11362
0.883562
1
0.895254
1
1.00001
1.11988
1.06061
1.12033
1.10901
1
0.889488
1
1.11928
1.08784
0.887713
1
1
1
0.94141
1
1
1.122
1
0.89154
1.11846
1
1
1
1
1
1.09788
1.02929
1
1.11899
1
1.11844
1
0.999263
1
1.1184
1.11795
1.11843
1.11958
0.999886
1.12001
1
1.11864
1.11826
1.10226
1
1
0.887359
1.11957
1
1
1.11938
1.1185
1.11836
1
1.11859
1
1
1.00001
1.1184
1.11885
1.037
1.02729
1.1184
1.11867
0.904263
1
1
1
1
1
1.04389
1
1
1.1002
0.887758
0.999989
1
1.11866
0.999973
0.999948
1.0198
1.10882
1.12049
0.977365
1
0.888445
1
0.999708
1.11856
1.11899
1.11834
0.999712
1
1
0.88991
1
1
1.11865
1.01417
1
1
1
1
1
1
1
0.999982
1.12013
1
1
1
1
1
1.07714
1
1.05871
1
1
1.11848
1.11871
0.890339
0.999644
1
1
1
0.891767
1.11933
1.11831
1
1
1
1
1
1
1
1
1.1188
1.11772
0.892904
1.01407
0.894275
1
0.889349
1
1.11863
1.0359
1
1
0.908719
1
1.11365
0.945864
0.999007
0.883202
1
1
1.11922
1.00001
0.999213
0.885898
1.11983
1.1208
1
1
1
1
1.11161
1
1
1.11869
0.999691
1.1192
1.00002
1
1
0.894977
1
1
1.11896
0.88388
0.934006
0.891744
1.11861
0.999811
1
1.11834
0.88933
0.888524
1.00457
1
1
1.1197
1.00001
1.05693
1
1
1.11996
0.894131
1
1
1.00004
1.11918
1.00004
1.11738
1
1.00001
1
1
0.912365
1
0.93513
1
1
1.11912
0.89547
1
0.93548
0.944286
1
1
1.11866
1
1
1
1.11906
1.11835
1.00001
1.11866
1.11977
0.936383
1.11865
1.11095
1
1
1.1198
1
1
1
1
1
1.11925
1.11842
1
1
1
1.1186
1.00007
1
0.889508
0.914143
1
1.00001
1.04607
1
1
0.97104
0.889385
1
1
1
1.11877
1.10962
1.11864
1
1
1
1
0.889279
1
1.11656
1
1.11928
0.889598
1.11768
1
1
1
0.895874
1
1.11885
1.00001
1
0.886307
1.04768
1
0.999899
1.11962
0.886331
0.884403
1
1.11963
0.885007
0.889677
1
0.88748
1
1
1
1
0.896284
1
1
1
1
1.11935
1
1.09249
0.887003
1
1
1
0.892741
1.11839
1
1
0.999015
1.11681
1
1.11823
1.11943
1
1
0.914974
0.88965
1
1
0.887977
1.041
1.05856
1
1
1.11949
0.999241
1
0.999333
1.12016
1
1
1
1
1
1
1.11876
1
1.04467
1.04246
0.904611
1.10649
1
1.11838
1.11858
1
1
1
0.976906
0.89926
1
1.06528
0.999899
1.10211
1
1
1
1
1
1.0018
1.05538
1.11907
1.11833
1
1.11861
1
0.895186
1
0.999358
0.99994
1
0.887958
1
0.897508
1.00001
1.11924
1.11973
0.888163
1.11892
0.887072
0.998937
1.09566
0.889661
1.08747
1
1
0.999551
1
1
1
1.00001
1
0.893188
1
1
1
1
0.999887
1.11826
0.946192
1
1
1
1.01075
1
1
1
1.07061
0.925663
1
1
1
1.01392
1.11955
1
0.892421
1
1.11949
0.975343
0.887674
1
0.887781
1
1
1.11274
0.999498
1.11285
1
1.00253
1
1
1.11872
1
1
1
1
1.02594
1
1.11855
1.11933
1.12009
0.888888
1.1187
0.999191
1.09849
1
1
0.885835
1
1
0.883857
1.11819
1
1
0.999992
1
1
1
0.885678
0.893391
1
1.12019
1
1.05985
1.11869
0.887384
1.10353
1
1
0.891322
1
1
1.11859
1.11858
1.04715
1
1
1.00052
1.11947
0.887941
0.887613
1.11976
1.11869
1.08301
1.04981
1
0.970794
1
1
1
1.11146
1.12006
1.11912
1
1
1.11807
0.883397
1.10778
0.886335
1
0.891812
1
0.887617
1.11851
0.884232
1
0.999219
0.89834
1
1
1
0.955786
1.11226
1.11849
1.11923
1.11942
1
1
1.11977
1
1
1.11871
1
0.895987
1
0.891145
1
1.12045
1
1
1.00709
1.09316
1
0.999619
0.885379
1.11848
1
0.883801
1.02482
1
1
1.09184
1.11843
1.1184
1
1.1186
1.03363
1
1.00716
1.11857
1
1
1
1
1.1186
1
0.885481
1.11889
0.883909
0.891057
0.951762
1.11862
1.04505
1.11857
1
1.11978
0.999256
1.00001
1.11866
1.11987
1
1.11924
1
1.11839
1
1.11974
1
1.00001
0.999994
1.11898
0.888945
0.889495
0.999361
1
1
1
0.895189
1
1.08183
1
0.881564
1
1.05086
1.11819
1.11818
1
1
1.00001
0.999828
1
1.11946
1.11832
1
1.05181
1.11885
0.955833
1.11819
0.999999
0.885489
1.02776
0.895726
1
1
1.0221
1.12032
1
1
1.01219
0.999591
1
0.878802
1
0.933229
1
1.11778
1
1
0.892418
1.02919
1.02116
0.999575
1.11866
1.11864
0.936217
0.999462
0.888594
0.894866
0.886937
1
1
1
0.999737
0.913269
0.897941
1
1.11855
0.999924
1.1186
1.11822
1.12014
1.11852
1
0.888524
1.11873
0.887962
1
1.11827
1.11785
0.999081
0.946742
1.11859
1.09022
1
0.888516
1
1
1.11916
1
1.00735
1.11846
1
0.886848
0.891084
1
1
0.882978
0.887055
1.11843
1.00001
1
0.881242
0.880126
1.11774
1.11671
1.11143
1.11948
1.03611
0.994936
1.05037
1.12028
1.09429
1
1.0667
1
0.892029
0.959255
1
0.887163
1.11847
1.00639
1.11892
1
1.11866
1.11946
1
1.11868
1.11849
0.890586
1.11947
1
1.12224
1
0.924512
0.889761
1.11894
1
1
1
0.887287
1.11874
1.11931
1
0.89702
1
1
0.895474
1.00001
0.884238
1.12013
1
0.947687
0.884296
1
1
1.07161
1
1
1
1.0214
0.892706
1
1
1
1.11881
0.884401
1
1.11849
0.884543
0.895873
1
1
1.11938
1
1.11773
1
1.11867
0.895839
1
1
0.89109
0.944506
0.890301
1
1
1
1
1.11933
0.885868
1
0.884189
1
1.11927
1
1
0.980902
1
1
0.949292
0.999905
1.00001
1
0.884471
0.893778
1
1
1
1
0.936914
1.11863
1.11966
1
0.891396
0.889591
0.974544
0.89664
1
0.946945
1
0.897009
0.996293
1
1
0.893341
1
1.11851
1.11641
0.892809
1
1
1
1.11848
1
1.01326
0.95205
1.04078
0.894332
1.05062
0.887146
1
1
0.913376
0.975739
1
1.01065
1
1
0.893369
1
0.981449
1.0153
0.883992
1
1.0975
0.925773
0.967697
1
1
1
0.888826
1
0.887093
0.886772
1
0.958776
0.889687
1.02001
0.923602
0.888948
1.1186
1
1.11849
1.06787
0.91341
1.11852
0.88668
0.999707
1.11962
1
1
1.11886
1
0.914328
1
1.02232
1
1
1.11847
1
0.928141
0.94105
1.12057
0.981782
1
0.919576
1.11865
1.11925
0.974918
1
1.11865
1.0344
0.954673
1
1.0059
1
0.897905
1.05403
0.935253
0.923159
1
1
0.898724
1.11838
0.991884
0.889662
0.890922
0.961761
1
1.00595
1.1196
1.11864
1
1
1
0.894778
1.0592
0.999995
1.1188
1.11283
0.887901
1
1.02797
0.965524
1.07238
1.10401
1
1.01327
1
1.00001
0.879412
0.954646
1
1
0.943209
0.879547
1.01186
1
1
0.881855
1.05771
1
1.11793
1
1.01095
1.06819
1
1.11811
1
1
1.11904
1
0.880268
1.11937
0.901303
1.03431
1
0.896818
0.999973
1
1.00001
1
0.933306
1.00792
0.891184
1.09093
1.12004
0.884014
1
1
1
1
1
0.990696
0.889454
1.01303
0.890742
0.895196
1.02494
1
0.999945
1.03352
1
1
0.898749
0.998588
1
1
1.03731
1
1.11974
1
1.11904
1.02719
1.00704
0.891765
1
1
0.885795
1
1
1
1
1.11878
1.01228
0.999428
1
0.886646
1.01481
1
1
1.08187
1
0.884363
1.11819
1
1
1
1.11904
0.888411
0.969221
0.880887
1.09147
1.11875
1
1
1.11838
1
0.882221
1
1
1
1
1
0.931674
1
1.11915
1
1
1.04519
1.11993
0.897351
0.966159
1
1.11827
1
1
1
1
1
1.11858
1.11916
0.889828
1.11863
0.883148
1
1
1.11861
1
1.11998
1.00276
1.008
1.02198
1.11825
1.02022
1.08268
0.882695
1
0.886049
0.995775
1
1.11845
1
1
0.880746
1.11838
1
1.1191
1
1
1
1
1
1
0.886463
1.11986
0.955434
1.1185
1
0.888454
0.894075
0.912019
1.12014
1.1182
0.991178
1
0.941392
1
1.04938
1
1.11859
0.879538
0.889587
0.953588
1
1.11866
1
1.02485
0.896216
1
1.12025
1.10986
0.999676
1
1.11856
0.889421
1.11944
1.11891
1.11875
0.8886
1.02784
1
1
0.883167
1
0.941967
0.950338
1
1.00001
1.11822
1
1.11865
1.02669
1
1.01044
1.11934
1
0.887698
1
0.931609
1
1
1.09986
1
0.936519
1
0.897794
1.01066
0.988496
0.879516
1.11884
1.09951
1.11952
0.890429
0.905644
0.998872
1
1
0.905719
1.11258
0.891648
0.99999
1
1.11844
1.11941
0.97174
1
0.891129
0.913285
1.08274
0.993008
0.88473
1
0.884714
1.0318
0.896441
1
1.00002
0.946282
1.11944
1.11894
0.952562
0.999884
1
1
0.90807
1
0.889421
1
0.886661
0.89618
1
1
1.00001
0.896695
1.11853
1
1
1.00002
1.00001
0.891393
1.11903
1.11847
1
0.890883
1.11998
1
1.02776
1
1
1.11844
0.884635
1
1
0.890419
0.919849
0.891428
0.895183
1
0.905791
0.999196
1.03042
0.880491
1
1
1.03651
1
1.1062
1
1
1.08702
0.906073
1
0.888902
1.03481
1.11861
1
1
0.892274
0.887098
0.882399
0.918062
0.887214
1.09107
0.999829
1
1
1
1
1.11861
0.882221
1
0.984233
0.999907
0.999642
0.999983
0.927742
1.03647
1
1.11848
1.11871
1
1
1.11366
1.00001
1
1.11841
0.892853
1.11984
1
0.883999
1.11867
1.00002
1
0.947675
1
0.882473
1
1.11931
1
1
1.1191
1
1
1.11824
1
1
1
1.12017
1
0.927396
0.915152
1
0.886002
1.11845
1
1
0.992828
1
1.12104
1.07155
1.09703
1
1
0.889206
1
0.889758
1.11886
1.1201
1.11882
1
1.11991
0.893173
1
0.889757
1.09739
1.11135
1.11933
1.11888
0.925163
0.885453
1
1.08105
1.11951
1.11938
1.11859
0.923765
1.04754
1
1.0929
0.920062
1
1
1
1.00001
0.970686
1
1.11794
1
1
1
1
1
1
1.00002
1.11803
1
1.11953
1.09064
0.885184
1.12029
1.00923
1.06422
1
1.11865
1
0.88979
1
1
1
1
1.1028
1
0.885107
1.1185
0.881498
1.11869
1.09682
1.0661
1
1.02399
1.05956
0.998867
0.88965
0.925459
1.00001
1
0.972405
1
0.885195
1.11943
0.886953
0.980042
0.959515
1
1
1
1.00407
1
1
0.892324
0.999054
1.11973
1
1.11843
1
0.891208
1
1
1.11835
1.11903
0.886523
1
1.11932
1
0.942191
0.893123
1.11912
1.10771
1
1.02038
1.11865
0.999618
1
1.05176
1.10558
1.11805
0.998713
1
0.999999
1.10237
1
1
1
1.11857
0.999587
1
1
1.11864
1
1
0.889197
1
1
1
1.11919
1
1
0.956375
1.04193
1.10856
0.936021
1
1.11869
1
1.04387
1
1.11929
0.999235
1.11851
1
0.892293
1
1.08709
1
1
1.1117
1
1.11872
1
1.118
0.907235
0.892641
1.11933
1
1.10244
1
1.11906
1
1
1.00001
1.11901
1.11927
1.03316
1.11856
0.998846
0.893542
1.1184
0.964159
1
1.11804
1
1.11848
1
1.11913
1.11901
0.998979
0.886802
1
1.11854
1
1.00791
1
1
0.999424
0.928276
1.10711
1
1.11142
1
0.966673
0.885021
1.11909
1.11899
0.901218
1
1.11901
1.12008
1.11915
0.899964
1.11848
0.896189
1.11893
1.11917
1
1
1.11843
1
1
1
1
0.89408
1
1
1.11929
1.11852
1
1.11835
1
1.12071
1.11954
1
1.10085
1
0.882986
1.11862
1.09012
1.03588
0.880444
1.11855
1
1
0.886289
1
1
1.11856
1
1
0.934937
1
1.11869
1.00003
1.11827
0.884765
1.11918
1
1.11855
1.11462
0.96934
1
1.11751
0.925491
1.12054
1.08585
1.11836
1.11834
0.999198
1.11909
1.11865
1.11854
1.11864
1.00017
1
0.891622
1
1.11955
0.952283
1.10889
1
1.1166
1
1
1
1
1
1.11796
0.886921
0.892184
1.11897
1.1185
1
1
1
1
1
1.11781
1.10878
1.11844
1.00676
1
1
1
1.00001
1.11843
1.11862
1
1.1198
1.11964
0.897758
1.08586
1
1.11866
1.11836
1.11774
0.999366
1.11878
1.11891
1
1.10746
1
1
1
1
1
1
1.1186
1.12018
1.11151
1.11835
0.886748
0.904361
1.11845
1.11843
1
0.888029
0.982111
1
1.05989
0.880306
1
0.999844
0.999511
0.893327
1
1.11849
1
1
1
1.11942
0.983264
1
1.1186
1.11857
1
1.11895
1
1
1.11859
1
0.887124
1
1.11845
1
1
0.897314
1
1.11895
1
0.887258
0.878732
1
1.11756
1
0.884814
0.971572
1
1.11846
1
1
1
1.11824
1
0.885495
1.01712
1.11918
1.11935
1.11841
1.01282
1.11903
1.11846
1
1
1
1
1
1.11855
1
0.999804
1.1187
1
0.883803
1
1.1187
1.05917
1.01529
1.05933
1.01937
1.11691
0.903448
1.11839
1
0.893402
0.999213
1.11843
0.982513
1.11837
1.11858
1.11551
1
1.11939
1.1185
1.11842
1
1.00001
1
1
1.11924
1.0873
1
1
0.882375
0.999079
1
1.1185
1
1.11851
1.11862
1.11835
0.975565
1.11869
1.11879
1.00234
1.06098
1.11985
1.1187
1
1.11037
0.950077
1.11855
0.996254
1.11877
1
1.11861
1.1186
1
0.896597
0.98041
0.907642
1
1.0257
0.999045
1.11917
1
1
0.999122
1
1.06394
1.11394
1
1
1.11892
1
1
1.08804
1.11897
1.11431
1.1185
1.11874
1
1.11822
0.915262
1.11893
1
0.999049
0.895489
1
1
0.914262
1
1.04132
1
1.1188
1
1.11645
1.07728
0.893528
1
1
1
1
1
1.11909
1.00324
1
1.11929
1
1.11866
1.11862
1
1
0.992213
0.999956
0.883506
0.884418
0.918013
1.02524
1
0.999534
0.887645
1.00001
1
1.1185
0.979714
1.11148
1.10234
1
1
1
1
1
1.11854
1.11856
1
1.11873
1
1.12031
1.08313
0.998909
1
1
1
1.07137
1
0.988941
1
1.11888
1
1
1.1186
1
1
1
1
1
1.11888
0.88356
0.998868
1.10705
1.11852
1
1.11863
1
1
1
1
0.897482
1
1.11837
1.11865
1.11864
1.11899
0.991439
1
1.1022
1.03166