/*--------------------------------*- C++ -*----------------------------------*\
  =========                 |
  \\      /  F ield         | OpenFOAM: The Open Source CFD Toolbox
   \\    /   O peration     | Website:  https://openfoam.org
    \\  /    A nd           | Version:  12
     \\/     M anipulation  |
\*---------------------------------------------------------------------------*/
FoamFile
{
    format      ascii;
    class       volScalarField;
    location    "7.05";
    object      rho;
}
// * * * * * * * * * * * * * * * * * * * * * * * * * * * * * * * * * * * * * //

dimensions      [1 -3 0 0 0 0 0];

internalField   nonuniform List<scalar> 
46253
(
1.33427
1.4716
1.59578
1.47107
1.5859
1.58475
1.29337
1.34615
1.45786
1.45555
1.33942
1.11876
1.44106
1.44108
0.676435
1.45675
1.45536
1.44051
1.4428
1.45773
1.45931
1.58892
0.678951
1.32837
1.30501
1.46192
1.45756
1.46049
1.46322
1.34094
1.39263
1.42394
1.42222
1.45092
1.44841
0.909936
1.442
1.44396
1.33325
1.06126
1.30722
1.1198
1.42882
1.42822
1.09803
1.44037
1.44034
0.739931
1.42651
1.42803
1.42475
1.42259
1.56432
1.30909
1.6148
1.19472
1.40987
1.40796
1.4825
1.29662
0.976943
1.2515
0.963841
0.961013
0.666406
1.43463
1.43342
1.58351
1.20803
1.09913
1.29304
1.40668
1.40703
1.26559
1.57353
1.3287
1.39008
1.38813
0.647612
1.42459
1.42599
1.40661
1.56661
1.40565
1.30462
1.55729
1.36837
1.36787
1.21644
1.61648
0.737514
1.30542
1.55355
1.41721
0.931734
1.41361
1.5562
0.619583
1.47757
0.980251
0.901746
1.55988
1.57144
1.38915
1.6128
1.30496
1.13006
1.34798
1.34311
1.14162
1.37497
1.40779
1.4095
0.613644
0.682776
1.22099
1.08606
1.29945
1.60927
1.19711
0.772537
1.58637
1.40312
1.40101
1.55726
1.62184
0.960607
1.18819
1.62439
1.38552
1.33277
1.32889
1.58635
1.30208
1.38434
1.04569
1.38216
1.38172
1.20444
0.971912
1.39278
1.31734
1.31858
1.37261
1.39529
1.62081
1.37293
1.37187
1.33262
1.62419
1.14027
1.5685
1.38255
1.38362
1.34539
1.09689
1.17466
0.787866
1.36383
1.6087
1.36337
1.14412
1.18524
1.04986
1.29928
1.37879
1.30193
1.3767
1.73573
0.944218
1.35503
1.35467
1.58649
1.31414
1.6023
1.0689
1.37002
1.54953
1.25837
1.08612
1.60693
1.34834
1.35274
1.35203
1.56403
1.36608
1.36637
1.09333
1.58314
1.56716
1.5708
1.58999
1.28572
1.5849
1.64563
1.66436
1.36545
1.55285
1.25586
1.26772
0.653451
0.933094
1.36001
1.35727
1.30795
1.09015
1.34946
1.33459
1.33535
0.998778
0.647323
1.61026
1.31044
1.56332
1.27315
1.55357
1.36771
1.30613
1.33685
1.58834
1.57844
1.33627
1.06799
1.35279
1.35457
1.30777
1.54797
1.55873
1.24957
1.24951
1.43962
1.04625
1.56789
1.56807
1.55019
0.889921
1.66102
0.738471
1.44032
1.45012
1.55167
1.5608
1.5532
1.65776
1.07175
1.57238
0.772115
1.3502
1.54795
1.31839
1.3184
1.44555
1.23653
1.54471
1.22509
1.33912
1.336
1.21818
1.30581
1.54717
1.3032
1.30175
1.14591
1.37624
1.32638
0.826611
0.658051
0.698962
1.33598
1.30967
1.33855
1.56026
1.53648
8.72703
1.30779
1.55092
1.61553
0.896891
1.31021
1.22854
1.21302
1.18325
1.57503
1.5655
0.645253
1.31947
1.29076
1.1932
1.37286
0.880993
1.47042
1.46965
1.29404
0.769983
1.46834
1.41479
1.55765
1.41485
1.30738
1.30441
1.59874
1.30644
1.19721
1.59266
1.58365
1.3236
1.3202
1.00178
1.38086
1.58943
1.56018
1.35703
1.15727
1.29395
1.55264
1.28588
1.20891
1.46992
1.15308
1.30641
1.15982
1.55359
1.29644
1.30568
1.30627
1.37191
1.55371
1.55959
1.28559
1.29623
1.18393
1.16928
1.58467
1.04741
1.55099
1.24376
1.20393
1.31596
1.3143
0.805744
1.56592
1.57213
0.588664
1.61596
1.54905
1.28931
1.27547
1.07173
1.21757
1.54993
1.34462
0.956722
1.08371
1.14393
1.1563
1.54838
1.30546
0.909816
1.30441
1.58071
1.15502
1.55563
1.54129
1.55814
1.60027
1.54641
1.54956
1.55017
1.25999
1.55115
1.54549
1.54924
1.54766
1.26787
1.5487
1.46318
1.20183
1.55907
1.55225
0.941321
1.30617
1.30351
1.16896
1.30347
1.3376
1.30265
1.5487
0.584553
1.28234
1.64616
1.58357
1.37059
1.27753
1.27348
1.54892
1.36597
1.32985
1.34112
1.54995
1.27998
0.929805
1.34022
1.33918
1.46067
1.56139
1.51848
1.59068
1.5778
0.602501
1.54924
1.55235
1.62962
1.58237
1.57186
1.27611
1.51658
1.30003
1.55627
1.54775
1.22696
1.51753
0.759316
1.24609
1.53243
1.28226
1.53319
0.89046
1.24425
1.27987
1.57545
1.3831
0.955426
0.905721
1.66223
1.67693
1.24648
1.24441
1.55472
1.6313
1.31541
1.16
1.5201
1.28248
1.57533
1.24957
1.34754
1.59634
1.55051
1.19271
0.752917
1.22824
1.27872
1.17092
1.30274
5.41584
1.51778
1.36081
1.51768
1.29769
1.25383
1.55029
1.25651
1.25735
1.29933
1.55451
1.25959
1.55438
1.54679
1.51678
1.55013
1.54654
1.33772
1.25542
1.34791
1.18792
1.25051
1.22359
1.34703
1.23775
1.35253
1.32982
1.33677
0.854632
1.54968
1.54715
0.964735
1.62388
0.769179
1.24067
1.30354
1.10362
1.24064
1.25686
1.29862
1.25383
4.72172
1.55151
1.26151
1.2737
1.13571
1.25709
1.23632
1.24577
1.33015
1.30637
1.54193
1.32522
1.38533
1.53641
0.633787
1.55089
1.29772
1.52071
1.3344
1.2606
1.29939
1.59564
1.25572
1.55067
1.05918
1.24612
1.56003
1.27884
1.5461
1.55302
1.2785
1.53931
1.27751
1.27436
1.27678
1.03042
1.3951
1.39721
0.718404
1.25281
1.27305
1.55213
0.921049
1.28213
0.886533
1.31326
1.22911
1.54616
1.56344
1.28753
1.16535
0.954817
1.51616
1.51881
1.12015
1.51164
1.5112
1.21824
1.21599
1.21237
1.29922
1.50519
1.50318
1.49583
1.50068
1.54592
1.51904
1.57024
1.25584
1.11395
1.58325
1.64211
0.929579
1.52029
1.5529
1.64986
1.30703
1.36849
1.06849
1.37031
1.60372
1.5583
1.19351
0.863878
1.57976
1.54781
1.25618
1.52229
1.58981
1.24691
1.36401
1.39659
1.54412
1.39982
1.40082
1.40413
1.32681
1.56834
1.23522
1.24014
1.3661
1.32039
1.54242
1.59951
1.25679
1.54795
1.598
1.27342
1.51829
1.5991
1.51951
1.54577
1.37656
1.38755
1.55097
1.54893
1.28865
1.25886
1.55321
1.54951
1.32028
1.49305
1.49347
1.47991
1.48311
1.48231
1.48165
1.47045
1.47435
1.08595
1.25093
1.46453
1.26588
1.46376
1.46099
1.55027
1.31071
1.32673
1.46223
1.54562
1.44995
1.55031
1.45173
1.15966
1.25359
1.4438
1.52279
1.44448
1.53574
1.53965
1.43562
1.68562
1.43724
1.69623
1.12152
1.52262
1.217
1.32619
1.58368
1.58266
1.43097
1.43128
1.54066
1.274
1.42039
1.42378
1.32866
1.55933
1.5574
1.41388
1.1924
1.41344
1.53124
1.2659
1.40398
1.17158
1.4064
1.18928
1.26457
1.53935
1.57477
1.57835
1.39716
1.39807
1.30274
1.54262
1.54367
1.38816
1.25164
1.38947
1.15771
1.54892
1.37733
1.37994
1.55206
1.56218
1.54678
1.31409
1.55829
1.27441
1.30195
1.39309
1.55067
1.36672
1.5697
1.36756
1.56041
1.5446
1.27814
1.27891
1.35655
1.35765
1.248
1.27731
1.35054
1.27336
1.35185
1.55283
1.33518
1.34006
1.34089
1.57033
1.19743
1.32855
1.33024
1.70203
1.51804
1.51525
1.60604
1.3251
1.24793
1.32571
1.46192
1.31834
1.25279
1.13662
1.31434
1.31563
1.30124
1.3082
1.30911
1.21574
1.21047
1.50424
1.40761
1.61303
1.22785
1.54068
1.16831
1.23133
1.19393
1.3172
1.3207
1.49002
1.50831
1.49243
1.23223
1.56999
1.51401
1.56344
0.676328
1.51226
1.22971
0.571563
1.50319
1.50201
1.23103
1.21799
1.54037
1.32557
1.07809
1.3252
0.729051
1.57969
1.54823
1.51994
1.06002
1.2637
1.55187
1.24901
1.52004
1.39331
1.22714
1.39631
1.18057
1.6264
1.27293
1.30756
1.40382
1.51895
0.819192
1.54108
0.601671
1.55155
1.39879
1.3964
1.2595
1.32917
1.32882
1.54786
1.21913
1.54846
1.55434
1.3996
1.29702
1.51848
1.3877
1.52022
1.51826
1.3357
1.34731
1.53861
1.40213
1.19549
1.25253
1.76598
1.25253
1.17293
1.71856
1.51823
1.25948
1.25545
1.51889
1.18732
1.54297
1.52099
0.947584
1.41472
1.41684
1.24974
1.56559
1.53894
1.54107
1.30669
1.22276
1.58648
1.27451
1.35691
1.19162
1.53529
1.55276
1.55039
1.61147
1.38668
1.38649
1.49215
1.51874
1.59842
1.23944
1.37171
1.26342
1.5188
1.37329
1.22689
1.25434
1.24976
0.908401
1.2476
1.27934
1.17652
1.24694
1.19657
1.3455
1.55623
1.55388
1.34721
0.798578
1.57844
1.25325
1.24855
1.58439
1.21304
1.20856
1.27258
1.19224
1.20463
1.20596
1.17883
1.18095
1.17904
1.1763
1.49383
1.53829
1.34092
1.54004
1.494
1.26015
1.21718
1.19419
1.53286
1.62511
1.27885
1.55674
1.27604
1.27934
1.51894
1.51902
1.35174
1.51822
0.745337
1.51777
1.54863
1.25124
1.27725
1.3318
1.54161
1.5493
1.21451
1.51453
1.28523
1.28468
1.22521
1.51974
1.27108
1.27124
1.26939
1.5496
1.54993
1.54936
1.54815
1.27064
1.27635
1.71204
1.32678
1.5178
1.17717
1.68723
1.18196
1.33113
1.29616
1.5334
1.15519
1.15121
1.29957
1.57616
1.49027
1.19332
1.34848
1.34918
1.18848
1.50437
1.50543
1.25412
1.46143
1.53812
1.53806
1.27981
1.09074
1.29972
1.25578
1.54875
1.51179
1.55058
1.51327
1.5514
1.51164
1.65094
1.51389
1.32547
1.21107
1.17825
1.31417
1.51101
1.48542
1.49756
1.22627
1.35085
1.32804
1.53693
1.44013
1.44681
1.45572
1.43293
1.44151
0.800473
1.30364
1.44783
1.46423
1.4336
1.25133
1.45788
1.41062
1.42761
1.46524
1.56284
1.46449
1.4287
1.46623
1.55796
1.41369
1.4724
1.47901
1.48086
1.41319
1.47985
1.47859
1.40999
1.47921
1.59973
1.48752
1.41152
1.55715
1.40052
1.49094
1.04841
1.54301
1.1885
1.40138
1.553
1.64519
1.55441
1.3925
1.40479
1.57602
1.55551
1.66467
1.3943
1.19152
1.47005
1.3834
1.54487
1.27676
1.38445
1.36938
1.36921
1.21154
1.36097
1.36338
1.35449
1.54955
1.32786
1.35452
1.54766
1.34307
1.30514
1.54525
1.51666
1.34306
1.22072
1.46457
1.33406
1.33672
1.32723
1.20311
1.32655
1.48264
1.31952
1.54937
1.29344
1.19243
1.32187
1.3252
1.31194
1.25048
1.31164
1.28674
1.28774
1.30193
1.31195
1.3044
1.30544
1.32488
1.46926
1.5615
1.54009
1.46647
1.5518
1.47766
1.46539
1.48309
0.989356
1.61509
1.3533
0.761578
1.14997
1.18008
1.37032
1.36732
1.54242
1.28823
1.40142
1.40808
1.34174
1.30237
1.39714
1.40305
1.39899
1.39592
1.31859
1.21353
1.27932
1.25899
1.5381
1.2714
1.204
1.19351
1.32279
0.939302
1.43292
1.39759
1.11951
0.843838
1.15068
1.30295
1.2841
1.15192
0.849831
1.48638
1.55108
1.24399
1.32094
1.3003
1.39438
1.32255
1.32443
1.08454
1.20967
1.28629
1.22935
1.2912
1.30705
1.15028
1.20201
1.46886
1.28582
1.40616
1.29877
1.54591
1.40524
1.46043
1.24518
1.31367
1.55029
1.54802
1.4796
1.26778
1.51944
1.54878
1.47528
1.5036
1.31436
1.19579
1.10928
1.30409
1.46595
1.26544
1.26228
1.5463
1.21529
1.56623
1.18828
1.47696
1.17383
1.27858
1.27981
1.6173
1.40891
1.27708
1.52118
1.16082
1.47057
1.31309
1.35077
1.14817
1.22266
1.4898
1.49391
1.27054
1.18234
1.28668
1.25868
1.26355
1.26452
1.49077
1.35307
1.28491
1.25005
1.24873
1.19194
1.32217
1.51998
1.27003
1.14337
1.27623
1.17024
1.28055
1.39813
5.68681
1.55441
1.55358
1.21637
1.26995
1.55121
1.24771
1.267
1.33565
1.31492
1.18647
1.24893
1.44103
1.30304
1.43262
1.49963
1.50301
1.26766
1.44675
1.5343
1.54472
1.51111
1.26302
1.5289
1.26773
1.10143
1.3239
1.15833
1.54276
1.51047
1.15973
0.88386
1.49689
1.25221
1.48565
1.49889
1.49162
1.42009
1.4877
1.25426
1.15041
1.4321
1.53985
1.311
1.47491
1.45077
1.2662
0.564301
1.42225
1.47691
1.46286
1.52209
1.27368
1.53483
1.52647
1.53164
1.21979
1.46576
1.53094
1.43977
1.46444
0.778574
1.53735
1.307
1.45444
1.33863
1.35066
1.46819
1.17005
1.18303
1.48604
1.44802
1.45617
1.3597
1.33831
1.65545
1.42514
1.16439
1.38924
1.39545
1.48975
1.44145
1.48793
1.58133
1.54685
1.43488
1.46331
1.54462
1.25087
1.30355
1.47238
1.25653
1.44039
1.27292
1.25958
1.47092
1.32889
1.53388
1.28064
1.47975
1.46334
1.53604
1.57791
1.65855
1.31258
1.45389
1.46327
1.47207
1.57715
1.55658
1.56128
1.25567
1.50724
1.47686
1.30228
1.55059
1.44908
1.4674
1.3471
1.2418
1.48756
1.46397
1.45725
1.47084
1.4687
1.55435
1.60016
1.44611
1.43935
1.40288
1.43952
1.4648
1.21313
1.08482
1.56755
1.4351
1.47188
0.932602
1.44064
1.52244
1.47488
1.47379
1.27476
1.46259
1.5434
1.58638
1.43289
1.43183
1.20532
1.43022
1.53692
1.43122
1.39242
1.53406
1.42423
1.53631
1.27433
1.18803
1.21845
1.43699
1.18897
1.3729
1.54003
1.42718
1.1502
1.14516
1.3952
1.39728
1.17366
1.39817
1.39449
1.32633
1.39515
1.39629
1.34042
1.41892
1.41876
1.33207
1.38681
1.39752
1.40353
1.40821
1.39816
1.34064
1.40023
0.923227
1.17086
1.39979
1.417
1.35298
1.18788
1.27694
1.40058
1.39848
1.2108
1.39685
1.11877
1.38806
1.23825
1.54552
1.41957
1.15786
1.22011
1.26298
1.40765
1.40245
1.36482
1.72203
1.35536
1.44866
1.53177
1.49658
1.52777
1.54208
1.54562
1.34953
1.14754
1.54007
1.40111
1.35647
1.38975
1.54455
1.19417
1.43099
1.397
1.39573
1.46737
1.37585
1.357
1.45467
1.44159
1.1604
1.43856
1.37643
1.41642
1.35755
1.33262
1.54565
1.16214
1.566
1.34492
1.54628
1.47148
1.28083
1.34403
1.4024
1.37272
1.40401
1.27511
1.31766
1.39365
1.2673
1.19609
1.43177
1.54333
1.37753
1.37711
1.55246
1.48974
1.52398
1.51122
1.52658
1.514
1.51518
1.22327
1.54687
1.3412
1.46329
1.21027
1.44907
1.50492
1.19458
1.31
1.16136
1.54728
1.5255
1.34118
1.18117
1.5056
1.27425
1.475
1.55012
1.55582
1.47193
1.49735
1.22705
1.22626
1.43655
1.66307
1.51787
1.50688
1.2989
1.25335
1.4295
1.48043
1.57425
1.6939
1.52306
1.38732
1.54447
1.36416
1.36413
1.35733
1.47998
1.34541
1.29152
1.51319
1.34101
1.29955
1.35375
1.42314
1.47616
1.46874
1.52441
1.47825
1.40995
1.32975
1.37837
1.45587
1.46544
1.46773
1.4783
1.4259
1.51748
1.54103
1.38473
1.16931
1.44691
1.17219
1.54779
1.48897
1.44263
1.52106
1.32418
1.50395
1.5222
1.27585
1.2574
1.27836
1.69654
1.50431
1.15633
1.44186
1.49898
1.21311
1.11512
1.14218
1.33581
1.19528
1.46758
1.27846
1.27763
1.18058
1.52207
1.31852
1.46507
1.48364
1.15372
1.41607
1.30518
1.22137
1.52438
1.52437
1.17737
1.16693
1.29555
1.52451
1.29754
1.32724
1.268
1.28085
1.2687
1.16787
1.27611
1.4075
1.48569
1.41577
1.47171
1.34428
1.29649
1.34246
1.31096
1.48058
1.2218
1.39034
1.51381
1.24631
1.38073
1.19934
1.48832
1.20676
1.2712
1.29793
1.4881
1.46486
1.2628
1.15867
1.49607
1.29937
1.25831
1.43311
1.45035
1.52629
1.14726
1.52973
1.30252
1.23842
1.29375
1.15421
1.47301
1.53697
1.47772
1.10667
1.27473
1.50165
1.47895
1.36797
1.44943
1.37483
1.37197
1.49609
1.22453
1.16437
1.43046
1.38416
1.46293
1.24193
1.25607
0.899219
1.24905
1.59956
1.25748
1.47051
1.25204
1.19315
1.44884
1.36889
1.54297
1.48306
1.39252
1.29973
1.52374
1.43522
1.38894
1.41609
1.62365
1.38058
1.55695
1.21238
1.48076
1.2446
1.50495
1.33634
1.23988
1.59899
1.41409
1.33043
1.36008
1.52174
1.34029
1.22393
1.23212
0.793279
0.870718
1.36418
1.46908
1.48561
1.48068
1.25799
1.4164
1.41869
1.49928
1.37495
1.17347
1.54374
1.08478
1.50429
1.55414
0.727047
1.43332
1.50401
1.49082
1.3394
1.23511
1.15562
1.14119
1.42652
1.229
1.23322
1.18174
1.42599
1.44935
1.49552
1.19167
1.28159
1.33936
1.36231
1.34338
1.31209
1.28813
1.48342
1.50292
1.42844
1.50624
1.2265
1.43916
1.50459
1.1722
1.58443
1.2082
1.20424
1.32861
1.19475
1.56764
1.56887
1.4913
1.48894
1.16023
1.26348
1.59595
1.59109
1.2665
1.44712
1.16801
1.5274
1.49275
1.24057
1.16957
1.15649
1.47403
1.25875
1.09907
1.23932
1.21275
1.51862
1.09526
1.18583
1.14363
1.16949
1.3824
1.39454
1.56914
1.33797
1.26002
1.30948
1.25671
1.30848
1.3455
1.30845
1.31308
1.33914
1.52388
1.33752
1.50272
0.960785
1.25024
1.25815
1.27665
1.25553
1.47506
1.29917
1.50311
1.55737
1.2751
1.30866
1.14566
1.15559
1.17331
1.14778
1.402
1.44024
1.32057
1.1413
1.48145
1.15225
1.51279
1.21013
1.52591
1.30587
1.4979
1.14204
1.50793
1.15993
1.25784
0.669515
1.54798
1.2558
1.29042
1.47989
1.50369
1.49359
1.29147
1.50466
1.27733
1.14607
1.13504
1.21366
1.14872
1.2903
1.3482
1.54842
1.13317
1.22264
1.54369
1.1941
1.49475
1.34891
1.24925
1.25611
1.5444
1.5876
1.43066
1.37603
1.41227
1.13115
1.13421
1.50509
1.203
1.44583
1.56411
1.25098
3.64731
3.56106
1.46061
1.25002
1.36739
1.26053
1.50225
1.49281
1.45808
1.21812
1.42959
1.22555
1.44958
1.25824
1.43099
1.45916
1.46901
1.20747
1.34171
1.38638
1.22002
1.44345
1.44958
1.46543
1.22596
1.20963
1.13696
1.2285
1.40236
1.16823
1.47539
1.42427
1.45298
1.23325
0.971029
1.43277
1.44757
1.29624
1.45353
1.27418
1.46394
1.55055
1.5482
1.4754
1.48349
1.5391
1.43271
1.42863
1.4594
1.43403
1.40208
1.54969
1.36557
1.48433
1.51738
1.31347
1.42123
1.41032
1.48103
1.48866
1.3417
1.18253
1.24203
1.4638
1.40363
1.42351
1.30969
1.36929
1.4603
1.52258
1.47672
1.52871
1.52856
1.29731
1.20701
1.38738
1.46947
1.29976
1.23972
1.2083
1.34222
1.23988
1.30331
1.39505
1.46168
1.40578
1.25168
1.39186
1.25453
1.54386
1.49155
1.39637
1.38723
1.52514
1.56412
1.49854
1.35695
1.24572
1.30672
1.35049
1.37796
1.54967
1.19762
1.52921
1.32582
1.44675
1.37652
1.29938
1.21962
1.23541
1.25328
1.40165
1.26975
1.37266
1.23513
1.53239
1.29771
1.27498
1.21074
1.36532
1.47163
1.32425
1.65979
1.55141
1.37147
1.3475
1.29328
1.3112
1.50425
1.29593
1.18363
1.50377
1.54985
1.29518
1.41866
1.54282
1.34893
1.27212
1.19026
1.38553
1.38212
1.3008
1.3396
1.37137
1.33599
1.17872
1.46138
1.15557
1.16128
1.35299
1.34332
1.45934
1.17707
1.3416
1.27625
1.29615
1.32131
1.27232
1.15031
1.12029
1.44665
1.44695
1.15319
1.49015
1.52429
1.45353
1.50352
1.50367
1.4296
1.48981
1.53154
1.44791
1.30877
1.49014
1.29593
1.48821
1.44438
1.46307
0.889496
1.2392
1.49437
1.42146
1.39848
1.51243
1.29118
1.52199
1.31908
1.36228
1.44469
1.18333
1.33112
1.44301
1.33965
1.28916
1.44296
1.35776
1.30764
1.35582
1.5466
1.34694
1.29335
1.44729
1.29809
1.15212
1.30755
1.26227
1.33746
1.51054
1.32124
1.44521
1.30442
1.43357
1.28735
1.31735
1.27157
1.58724
1.27303
1.56373
1.52182
1.43389
1.29879
1.46642
1.31223
1.41132
1.28448
1.36685
1.43114
1.49262
1.50913
1.41188
1.29142
1.2297
1.43273
1.36175
1.49251
1.37685
1.43215
1.24543
1.27253
1.49874
1.36068
1.44001
1.43335
1.28701
1.27776
1.29773
1.41103
1.51476
1.49988
1.34074
1.41573
1.27628
1.511
1.54645
1.54934
1.30006
1.52651
1.52858
1.30626
1.18129
1.37043
1.25919
1.42513
1.48589
1.48171
1.49259
1.32435
1.48185
1.2331
1.53942
1.23765
1.2654
1.47885
1.12226
1.27065
1.1899
1.42593
1.17344
1.25815
1.3976
1.16027
1.25841
1.42915
1.38362
1.48643
1.4613
1.24524
1.50295
1.64173
1.34905
1.5002
1.36057
0.693167
1.38227
1.24693
1.25816
1.35995
1.34355
1.40698
1.1583
1.50867
1.43144
1.43359
1.53093
1.40463
1.39811
1.4342
1.46073
1.23685
1.49344
1.36558
1.23306
1.30813
1.33225
1.38953
1.3298
1.45983
1.39863
1.46895
1.40739
1.38737
1.22793
1.37085
1.27302
1.2427
1.29673
1.55114
1.40915
1.29468
1.15541
1.24915
1.32756
1.30659
1.3232
1.32853
1.15732
1.35937
1.34041
1.16331
0.842955
1.39274
1.36183
1.26466
1.38199
1.27295
1.38918
1.52684
1.22746
1.20801
1.49977
1.52629
1.47882
1.49458
1.38322
1.44382
1.18898
1.44346
1.2499
1.55527
1.21464
1.15264
1.38464
1.41008
1.22626
1.35225
1.35469
1.3793
1.25342
1.49338
1.47188
1.29208
1.41793
0.980671
1.48062
1.177
1.39493
1.18066
1.38853
1.2369
1.38182
1.50968
1.41244
1.37415
1.414
1.39935
1.41267
1.23668
1.46508
1.22347
1.2385
1.51735
1.39744
1.2892
1.40275
1.51056
1.40689
1.22855
1.22171
1.46503
1.45457
1.47622
1.41717
1.41609
1.61349
1.39418
1.38092
1.41767
1.34999
1.60801
1.49178
1.38947
1.19489
1.24323
1.14871
1.37313
1.47133
1.38566
1.53377
1.43356
1.16598
1.21222
1.4221
1.4268
1.35603
1.12331
1.37474
1.41848
1.16438
1.14649
1.16137
1.1639
1.46646
1.17608
1.44209
1.17163
1.53351
1.29325
1.42158
1.22142
1.20289
1.35265
1.44139
1.51102
1.24553
1.22747
1.44796
1.22828
1.19363
1.33706
1.17682
1.43895
1.3688
1.3486
1.24269
1.34405
1.43891
1.38619
1.42502
1.43124
1.43829
1.34763
1.38572
1.3469
1.17142
1.15204
1.38676
1.15177
1.3543
1.56492
1.22932
1.54592
1.23779
1.36387
1.54528
1.5399
1.24274
1.43442
1.53743
1.15771
1.34801
1.509
1.25894
1.49372
1.15122
0.889913
1.39064
1.15351
1.34887
1.17034
1.21366
1.34097
1.21337
1.29955
1.29434
1.53168
1.30665
1.55751
1.3348
1.39467
1.44269
1.30599
1.32415
1.43993
1.34556
1.44062
1.53397
1.33869
1.10838
1.32267
1.41454
1.4439
1.28002
1.298
1.31896
1.32632
1.37434
1.41049
1.37734
1.52784
1.15354
1.5046
1.33353
1.10869
1.49308
1.33147
1.47274
1.34552
1.45998
1.14802
1.33451
1.44173
1.26277
1.51831
1.20737
1.20718
1.40311
1.44262
1.51688
1.3025
1.45212
1.40826
1.44087
1.56904
1.4155
1.30486
1.29628
1.15852
1.45223
1.57235
0.970325
1.44636
1.31436
1.46346
1.49405
1.45848
1.31067
1.51877
1.21314
1.33688
1.41108
1.30686
1.18933
1.32634
1.32792
1.46578
1.31141
1.44066
1.43024
1.52014
1.49935
1.52526
1.15888
1.27313
1.62491
1.18304
1.29325
1.46637
1.36882
1.29869
1.36504
1.24873
1.27752
1.42864
1.18125
1.29558
1.49488
1.20826
1.27441
1.50461
1.35255
1.29435
1.34558
1.48205
1.39251
1.38782
1.46901
1.19981
1.46943
1.46723
1.51453
1.2372
1.45212
1.31259
1.50963
1.50631
1.19927
1.49076
1.46794
1.45239
1.30004
1.48356
1.51717
1.29355
1.29833
1.19741
1.36589
1.22792
1.4673
1.2456
1.4361
1.15203
1.46928
1.52578
1.25457
1.16037
1.22327
1.37544
1.27281
1.52566
1.37628
1.11549
1.29663
1.4734
1.38923
1.43467
1.47916
1.29456
1.48758
1.32512
1.22528
1.45387
1.6476
1.34201
1.5075
1.28853
1.38593
1.46176
1.42904
1.525
1.50388
1.44716
1.21866
1.25644
1.40811
1.16268
1.24016
1.37664
1.37597
1.16689
1.49769
1.54806
1.52398
1.14228
1.24069
1.25889
1.29374
1.1852
1.48589
1.52022
1.48393
1.35163
1.51897
1.48177
1.25188
1.18242
1.38926
1.49133
1.24574
1.23771
1.28581
1.2514
1.39074
1.18915
1.51564
1.2394
1.27143
1.25481
1.18601
1.44567
1.25265
1.29189
1.52042
1.28747
1.52139
1.48065
1.51852
1.17151
1.30336
1.33733
1.21588
1.50639
1.16876
0.589238
1.5221
1.23818
1.52148
1.51693
1.50212
1.26899
1.56827
1.34409
1.24531
1.26728
1.47882
1.51549
1.55029
1.52466
1.2694
1.47012
1.18606
1.26538
1.46252
1.41208
1.26724
1.49215
1.26702
1.49703
1.4559
1.51975
1.28607
1.19181
1.19715
1.45927
1.37156
1.28455
1.43025
1.52624
1.52428
1.38915
1.20846
1.44256
1.2107
1.27872
1.45675
1.60059
1.5243
1.57623
1.52454
1.22323
1.63806
1.27953
1.27662
1.44907
1.41706
1.28946
1.46191
1.25098
1.10385
0.947396
1.19714
1.38388
1.52435
1.46878
1.41571
1.42462
1.5263
1.43544
1.44379
1.39045
1.37425
1.27818
1.30083
1.36744
1.4205
1.59206
1.44982
1.19128
1.41382
1.43425
1.37652
1.30593
1.52718
1.27931
1.56743
1.30431
1.42107
1.27476
1.52681
1.17209
1.43846
1.53443
1.34205
1.1182
1.41187
1.49209
1.51838
1.31237
1.52329
1.16555
1.20679
1.31823
1.14477
1.43336
1.44583
1.51981
1.46804
1.22964
1.5219
1.16581
1.4292
1.39691
1.30526
1.2995
1.30358
1.33994
1.42788
1.29726
1.29666
1.53153
1.64034
1.21931
1.43416
1.40935
1.45579
1.303
1.39515
1.42275
1.46718
1.3098
1.51464
1.22771
1.33971
1.41242
1.43775
1.29461
1.24593
1.19174
1.42651
1.39651
1.43774
1.31992
1.2915
1.40945
1.40945
1.20539
1.22006
1.38411
1.23498
1.21173
1.52231
1.22228
1.48995
1.52769
1.45512
1.33799
1.41267
1.23103
1.50375
1.52005
1.22094
1.45634
1.54723
1.39941
1.48999
1.31436
1.23207
1.52744
1.57536
1.48999
1.32579
1.49163
1.28864
1.46355
1.52223
1.38816
1.31057
1.32091
1.62097
1.11669
1.5536
1.46851
1.31894
1.62334
1.35823
1.31317
1.47928
1.36846
1.21503
1.20173
1.44944
1.36592
1.3965
1.31461
1.36182
1.3496
1.46402
1.21164
1.39349
1.2031
1.54434
1.42262
1.50002
1.5052
1.16604
1.34156
1.33705
1.47966
1.20069
1.19095
1.55265
1.33926
1.38113
1.17396
1.30124
1.24289
1.36313
1.31797
1.19734
1.53083
1.22665
1.35562
1.49096
1.52709
1.534
1.33842
1.1982
1.36274
1.20098
1.29637
1.5505
1.36233
1.38909
1.3247
1.37324
1.17088
1.5264
1.50595
1.46694
1.34014
1.36652
1.18849
1.32114
1.49231
1.52471
1.23688
1.36974
1.1634
1.36229
1.3361
1.1651
1.16864
1.16392
1.56113
1.36723
1.17018
1.45871
1.49575
1.31901
1.3651
1.44392
1.53067
1.35183
1.52273
1.44689
1.43665
1.24396
1.45824
1.35009
1.38559
1.26415
1.31417
1.3331
1.43859
1.52344
1.36659
1.16147
1.34505
1.35498
1.36011
1.52766
1.33478
1.36609
1.32047
1.16179
1.16287
1.53167
1.47207
1.33447
1.53085
1.4908
1.42446
1.20505
1.31248
1.45067
1.2583
1.3513
1.33517
1.22751
1.44042
1.45967
1.28848
1.3789
1.41214
1.48879
1.42274
1.34393
1.32515
1.31155
1.42195
1.47143
1.48325
1.39182
1.47354
1.39332
1.33954
1.38153
1.53068
1.37503
1.32982
1.33786
1.30468
1.55356
1.39102
1.18192
1.50482
1.53633
1.32302
1.31342
1.35301
1.52131
1.48443
1.26783
1.52774
1.30132
1.37764
1.28553
1.52109
1.52363
1.35362
1.31467
1.52318
1.37597
1.51872
1.2829
1.3816
1.20016
1.52644
1.29691
1.52581
1.30197
1.45393
1.50644
1.33718
1.40569
1.27317
1.23677
1.50628
1.49096
1.49112
1.36576
1.40154
1.26198
1.3125
1.44148
1.30915
1.39779
1.40901
1.22267
1.42218
1.50969
1.55493
1.43061
1.44518
1.22221
1.55886
1.35934
1.42643
1.4973
1.23752
1.2203
1.35281
1.22157
1.39453
1.52037
1.24515
1.39496
1.38175
1.25538
1.306
1.35566
1.3612
1.42997
1.29742
1.36595
1.54953
1.5329
1.39696
1.16414
1.2689
1.46914
1.27535
1.29152
1.16199
1.17038
1.52811
1.22517
1.39859
1.32281
1.36781
1.4122
1.53343
1.27272
1.26019
1.36059
1.41237
1.28424
1.48662
1.52219
1.39876
1.21278
1.32609
1.52204
1.43721
1.54911
1.63631
1.48996
1.40612
0.78844
1.23602
1.45027
1.36349
1.54127
1.24962
1.36653
1.40853
1.25758
1.54777
1.24396
1.46635
1.1678
1.42556
1.44676
1.50588
1.38355
1.52879
1.41487
1.34904
1.51051
1.4874
1.55514
1.18034
1.31994
1.24931
1.44805
1.38117
1.40461
1.41586
1.54161
1.52319
1.34044
1.55714
1.35093
1.1684
1.20314
1.22402
1.46058
1.53095
1.14792
1.49937
1.41641
1.30025
1.46145
1.49044
1.34182
1.35654
1.36469
1.32886
1.13189
1.46796
1.52692
1.38556
1.30467
1.38984
1.24908
1.48235
1.34911
1.41512
1.35279
1.42231
1.53863
1.38618
1.50514
1.41973
1.52369
1.51684
1.36436
1.52391
1.41689
1.30133
1.53914
1.57191
1.39959
1.33206
1.45137
1.48958
1.30038
1.54939
1.49804
1.41781
1.57816
1.41526
1.5033
1.4915
1.3247
1.39764
1.15253
1.38866
1.66349
1.37952
1.44527
1.58881
1.44532
1.41858
1.65874
1.15951
1.4607
1.43396
1.15621
1.53034
1.53051
1.17174
1.39228
1.52592
1.51784
1.51892
1.4059
1.45133
1.42957
1.14578
1.43541
1.29369
1.32088
1.23895
1.16917
1.17115
1.33968
1.40384
1.23563
1.16861
1.26156
1.5015
1.49074
1.42682
1.32044
1.52783
1.50423
1.20896
1.55828
1.43728
1.33702
1.41875
1.5472
1.40989
1.43359
1.34712
1.27552
1.39802
1.49193
1.43144
1.33416
1.50346
1.11318
1.41001
1.34739
1.3629
1.36773
1.34921
1.45609
1.11155
1.12611
1.33821
1.12226
1.43101
1.43609
1.56264
1.37166
1.60992
1.4901
1.19356
1.48096
1.46782
1.62003
1.38424
1.43191
1.15484
1.45669
1.41462
1.38526
1.13699
1.49461
1.4251
1.17018
1.45787
1.39211
1.31524
1.44868
1.48489
1.48499
1.49177
1.39995
1.35479
1.41208
1.48223
1.38229
1.46937
1.44917
1.2101
1.4698
1.34735
1.48442
1.31423
1.39529
1.17427
1.49065
1.53403
1.10602
1.527
1.33101
1.21084
1.10481
1.24749
1.2271
1.2854
1.40651
0.947162
1.3987
1.54377
0.896994
1.44517
1.42858
1.23557
1.46139
1.14581
1.32769
1.43276
1.53091
1.35168
1.11925
1.24017
1.5248
1.19292
1.42537
1.32113
1.22105
1.36895
1.21675
1.42578
1.21575
1.53492
1.39203
1.36021
1.12561
1.4597
1.35234
1.37863
1.19736
1.1576
0.988745
1.52214
1.44841
1.33416
1.45859
1.16141
1.56084
1.54718
1.32772
1.02414
1.54447
1.3551
1.40219
1.1777
1.36419
1.12242
1.34969
1.33551
1.42787
1.6418
1.53904
1.37934
1.21808
1.22085
1.21298
1.3629
1.52859
1.35875
1.14483
1.22436
1.15489
1.23795
1.13892
1.54036
1.39757
1.35744
1.35466
1.42952
1.18674
1.53672
1.55429
1.50799
1.34837
1.4409
1.34945
1.3732
1.34785
1.21217
1.62828
1.56685
1.23433
1.22943
1.4415
1.57287
1.2288
1.23391
1.4508
1.49693
1.19156
1.38154
1.32843
1.15693
1.16139
1.36142
1.42817
1.62628
1.39919
1.34964
1.45644
1.43476
1.19486
1.45228
1.10925
1.23592
1.34933
1.43015
1.14672
1.25513
1.46577
1.37814
1.53173
1.42038
1.55894
1.45622
1.3727
1.10819
1.46405
1.22176
1.44013
1.34275
1.54777
1.42737
1.38435
1.50104
1.17374
1.14312
1.25258
1.34453
1.36727
1.51318
1.45151
1.43463
1.34355
1.36058
1.16185
1.3735
1.56614
1.36457
1.27623
1.27483
1.16198
1.16384
1.48618
1.11426
1.37945
1.20324
1.45394
1.41167
1.14195
1.57025
1.38158
1.43012
1.36824
1.36779
1.37112
1.23068
1.27623
1.46776
1.36125
1.45213
1.26433
1.29508
1.39794
1.29292
1.21612
1.51929
1.13978
1.29583
1.48757
1.34373
1.51909
1.23461
1.18856
1.47411
1.36589
1.36103
1.52873
1.29971
1.52962
1.27595
1.47255
1.2849
1.39038
1.47205
1.12804
1.54248
1.28909
1.55013
1.32326
1.48731
1.34523
1.4389
1.36471
1.37984
1.14836
1.46883
1.26877
1.14857
1.13063
1.48807
1.13199
1.46905
1.22115
1.38346
1.33625
1.32575
1.46405
1.12249
1.44363
1.36596
1.46528
1.38107
1.44534
1.29263
1.34935
1.28456
1.46743
1.32874
1.51775
1.13334
1.51958
1.44259
1.36853
1.21926
1.61882
1.37707
1.38402
1.44296
1.47038
1.42219
1.54224
1.43689
1.3406
1.16804
1.32598
1.13895
1.35628
1.46659
1.48144
1.56408
1.34636
1.2945
1.41735
1.42723
1.43304
1.22124
1.21941
1.42625
1.34084
1.46572
1.34778
1.18146
1.44556
1.47959
1.14097
1.1712
1.10011
1.35634
1.35504
1.47451
1.46481
1.16566
1.49072
1.41615
1.26666
1.40671
1.44645
1.3253
1.10335
1.48796
1.47862
1.44566
1.46706
1.29952
1.21002
1.4976
1.3472
1.52981
1.35135
1.47544
1.36067
1.29779
1.53055
1.41756
1.38711
1.39801
1.33193
1.2997
1.35291
1.352
1.46146
1.26842
1.36188
1.33882
1.46682
1.36972
1.36151
1.37069
1.49417
1.34672
1.321
1.32359
1.48196
1.37504
1.36426
1.33844
1.4615
1.2409
1.39152
1.14744
1.3614
1.33235
1.47957
1.35993
1.38197
1.57729
1.3994
1.24123
1.37998
1.17016
1.34341
1.45864
1.17116
1.3851
1.36516
1.3513
1.30573
1.38656
1.40174
1.35449
1.34968
1.55942
1.49322
1.39562
1.51712
1.39825
1.29356
1.36963
1.41375
1.52234
1.45409
1.40392
1.42582
1.34974
1.47444
1.34751
1.37186
1.16136
1.35296
1.54231
1.3211
1.36735
1.34665
1.53609
1.41531
1.29417
1.39024
1.38058
1.3331
1.40318
1.11705
1.38631
1.41508
1.54379
1.47602
1.45311
1.43278
1.38745
1.37204
1.38409
1.39593
1.46499
1.30227
1.29727
1.29574
1.19252
1.19194
1.37214
1.38951
1.39864
1.37134
1.38374
1.16119
1.41217
1.29132
1.31518
1.38266
1.39966
1.62402
1.30167
1.3396
1.33097
1.46713
1.42306
1.36895
1.30462
1.29635
1.46362
1.4113
1.26335
1.35992
1.54158
1.30866
1.23317
1.36001
1.09608
1.2925
1.56059
1.47272
1.37707
1.38596
1.42493
1.44918
1.32865
1.45946
1.38525
1.41598
1.34046
1.52709
1.3359
1.1949
1.39351
1.50024
1.57283
1.35368
1.43156
1.29048
1.52546
1.31795
1.50329
1.57747
1.32808
1.34077
1.42395
1.57919
1.22635
1.43888
1.39097
1.38442
1.29766
1.3685
1.38239
1.41925
1.39555
1.40861
1.541
1.35543
1.31978
1.38513
1.49599
1.52281
1.53772
1.30608
1.26038
1.47011
1.46299
1.40138
1.47071
1.33747
1.46283
1.50848
1.51853
1.19914
1.19218
1.33292
1.46108
1.17362
1.35984
1.34314
1.4307
1.50979
1.28992
1.4134
1.5502
1.36737
1.17621
1.41163
1.31448
1.54796
1.45506
1.43727
1.17754
1.22434
1.51762
1.46814
1.43807
1.3173
1.3551
1.33736
1.37201
1.19116
1.40696
0.802819
1.36582
1.35766
1.38943
1.43248
1.36338
1.40092
1.19812
1.19512
1.47666
1.34975
1.47368
1.41079
1.43282
1.07568
1.38964
1.36927
1.41476
1.51368
1.18072
1.50215
1.46617
1.45839
1.28799
1.36652
1.48105
1.36452
1.45454
1.33005
1.54519
1.50414
1.22654
1.37183
1.13514
1.37133
1.46088
1.45238
1.48658
1.37421
1.36839
1.48435
1.4879
1.2235
1.61098
1.44514
1.18147
1.33586
1.17501
1.53498
1.08216
1.16531
1.37155
1.37036
1.46177
1.47141
1.45264
1.32042
1.37016
1.39417
1.45499
1.43987
1.42991
1.45896
1.46078
1.35509
1.11814
1.13185
1.42605
1.4431
1.49249
1.57294