/*--------------------------------*- C++ -*----------------------------------*\
  =========                 |
  \\      /  F ield         | OpenFOAM: The Open Source CFD Toolbox
   \\    /   O peration     | Website:  https://openfoam.org
    \\  /    A nd           | Version:  12
     \\/     M anipulation  |
\*---------------------------------------------------------------------------*/
FoamFile
{
    format      ascii;
    class       volVectorField;
    location    "7.05";
    object      U;
}
// * * * * * * * * * * * * * * * * * * * * * * * * * * * * * * * * * * * * * //

dimensions      [0 1 -1 0 0 0 0];

internalField   nonuniform List<vector> 
46253
(
(0.968053 0.000714189 0)
(0.905965 -0.000532271 0)
(0.816471 0.00134538 0)
(0.900558 -0.000891532 0)
(0.815102 0.00380786 0)
(0.823133 0.00202864 0)
(0.982864 0.00190255 0)
(1.02031 0.00431404 0)
(0.901828 -0.00148582 0)
(0.899434 -0.00134271 0)
(0.970661 0.000595206 0)
(1.11559 -0.0732424 0)
(0.918649 -0.000411944 0)
(0.921632 -0.000763226 0)
(1.64442 0.0340468 0)
(0.904305 -0.000705128 0)
(0.903269 0.000246931 0)
(0.907907 -0.000772959 0)
(0.910105 -0.000889784 0)
(0.915199 -0.000953783 0)
(0.910528 -0.00112556 0)
(0.813677 0.00310698 0)
(1.67444 -0.0180301 0)
(0.967561 0.00142491 0)
(0.980173 0.00712516 0)
(0.8987 -0.00181647 0)
(0.90985 -7.71971e-05 0)
(0.908814 0.000286218 0)
(0.903401 -0.00172767 0)
(1.02077 -0.0016474 0)
(0.956067 0.0412506 0)
(0.918902 -0.00295006 0)
(0.921142 -0.00219432 0)
(0.913281 -0.00121516 0)
(0.90782 -0.00124059 0)
(1.36207 -0.0179386 0)
(0.917499 -0.000682354 0)
(0.916911 -0.00021248 0)
(1.01292 0.00292765 0)
(1.16054 -0.0379109 0)
(0.989109 0.0112708 0)
(1.11607 -0.071341 0)
(0.919746 -0.00211941 0)
(0.918948 -0.00275031 0)
(1.1683 -0.0984663 0)
(0.911868 -0.000567813 0)
(0.911545 -0.00027928 0)
(1.59367 0.00689576 0)
(0.931033 0.000508782 0)
(0.93056 0.000607373 0)
(0.931942 0.00113639 0)
(0.932885 0.000682859 0)
(0.822881 0.00216702 0)
(1.00611 0.00934665 0)
(0.778658 0.011071 0)
(1.08692 -0.0406969 0)
(0.931238 -0.000509725 0)
(0.93059 -0.000158485 0)
(0.889326 0.0658028 0)
(0.985293 0.00951664 0)
(1.2997 0.0178063 0)
(0.946248 0.00136053 0)
(1.28885 0.0205287 0)
(1.30569 0.0216826 0)
(1.69655 -0.160899 0)
(0.920791 -0.000899458 0)
(0.918148 -0.00118593 0)
(0.840143 0.000499354 0)
(1.09396 -0.0357218 0)
(1.16588 -0.0971805 0)
(0.98555 0.0012667 0)
(0.932289 -1.78505e-05 0)
(0.935414 -0.000345567 0)
(0.929562 -0.00509337 0)
(0.828461 0.00298937 0)
(0.967281 0.00121982 0)
(0.947148 0.000116805 0)
(0.947764 -0.000298237 0)
(1.69885 -0.163865 0)
(0.924569 -0.000299624 0)
(0.925141 0.000459693 0)
(0.941581 -0.000748187 0)
(0.816411 0.00242677 0)
(0.942534 -0.000920638 0)
(0.981251 0.0143508 0)
(0.826959 0.00137392 0)
(0.960265 -0.00156597 0)
(0.962024 -0.000846067 0)
(0.965726 0.000372051 0)
(0.792322 -0.0199306 0)
(1.56852 -0.0589677 0)
(0.994894 0.0110931 0)
(0.835684 0.00218255 0)
(0.932476 -0.00113704 0)
(1.4023 -0.0469881 0)
(0.929519 -0.00097619 0)
(0.829501 0.00206348 0)
(1.77542 -0.14678 0)
(0.885791 0.0667213 0)
(1.2977 -0.013243 0)
(1.2981 -0.0624136 0)
(0.843037 0.000365886 0)
(0.856447 2.24537e-05 0)
(0.959764 0.0415704 0)
(0.79951 0.00483697 0)
(0.978876 0.0139245 0)
(1.1198 -0.0668135 0)
(0.979411 0.0019928 0)
(0.978459 0.00139346 0)
(1.10303 -0.0602347 0)
(1.04465 -0.00263555 0)
(0.939087 -0.000179496 0)
(0.939514 -0.000749341 0)
(1.77492 0.0898857 0)
(1.64315 0.00253782 0)
(0.967572 -0.00200226 0)
(1.14133 -0.0908353 0)
(0.985111 0.00928044 0)
(0.790206 0.0657111 0)
(1.07265 -0.0336445 0)
(1.52616 0.146728 0)
(0.826654 0.00260626 0)
(0.944223 -0.001438 0)
(0.942712 -0.000836003 0)
(0.865255 0.000932992 0)
(0.779253 0.0625433 0)
(1.35974 -0.00601555 0)
(1.1083 -0.0463602 0)
(0.777842 0.00899494 0)
(0.949622 -0.00186554 0)
(0.99364 0.00142769 0)
(0.992867 0.000953268 0)
(0.81515 0.00310878 0)
(0.98197 -1.572e-05 0)
(0.951053 -0.00159936 0)
(1.21712 0.0383871 0)
(0.95682 0.00100016 0)
(0.956738 0.00102399 0)
(1.084 -0.0338102 0)
(1.28522 -0.00699622 0)
(0.946715 0.000658762 0)
(0.997447 -0.00052536 0)
(1.00004 -0.000321786 0)
(0.956372 0.0392328 0)
(0.946434 0.00101229 0)
(0.785898 0.00921448 0)
(0.959673 -0.00096832 0)
(0.959525 -0.0015375 0)
(1.01451 0.0030611 0)
(0.769535 -0.0033763 0)
(1.10341 -0.0596162 0)
(0.843682 0.0014762 0)
(0.951807 -0.00110282 0)
(0.954748 0.000154164 0)
(0.975196 0.0301484 0)
(1.16205 -0.0953648 0)
(1.1003 -0.047747 0)
(1.57997 -0.113494 0)
(0.967563 0.00104253 0)
(0.786719 0.00838058 0)
(0.967772 0.00105172 0)
(1.13056 -0.0674103 0)
(1.08176 -0.038078 0)
(1.20624 0.0410484 0)
(0.976804 0.00842401 0)
(0.958579 0.00129021 0)
(0.981553 -0.000289405 0)
(0.958718 0.000529052 0)
(0.725841 0.0433161 0)
(1.32714 -0.00977128 0)
(0.970661 -0.00112474 0)
(0.971098 -0.00184961 0)
(0.823707 0.00179092 0)
(0.979669 0.0150977 0)
(0.804031 0.00434465 0)
(1.1558 -0.102705 0)
(0.998316 0.000743408 0)
(0.795375 0.00111042 0)
(0.940882 -0.000183919 0)
(1.13949 -0.090231 0)
(0.815287 0.00162619 0)
(0.979044 0.0292272 0)
(0.979067 -0.000167261 0)
(0.978564 0.000534198 0)
(0.817729 0.0103138 0)
(0.963742 0.000193999 0)
(0.966 0.00109721 0)
(1.16751 -0.0986399 0)
(0.830617 7.30056e-05 0)
(0.822293 0.00186903 0)
(0.832168 0.00130924 0)
(0.856423 -0.00201669 0)
(0.974342 0.00489986 0)
(0.859853 -0.00108609 0)
(0.884277 0.0184601 0)
(0.908567 0.015523 0)
(1.041 0.00408784 0)
(0.848707 0.000300052 0)
(1.04105 8.10399e-05 0)
(1.05106 -0.000311857 0)
(1.68381 -0.0834245 0)
(1.34052 -0.0227646 0)
(0.969167 0.000140102 0)
(0.968967 -0.000767753 0)
(1.00538 0.0254725 0)
(1.15231 -0.0938249 0)
(0.98544 0.0288931 0)
(0.980506 -0.000853071 0)
(0.982178 -0.00170146 0)
(1.27859 -0.0229671 0)
(1.77184 -0.19013 0)
(0.793833 0.0715636 0)
(0.981634 0.0142655 0)
(0.837869 0.0031858 0)
(0.932086 -0.0291346 0)
(0.839517 0.00122392 0)
(0.959316 0.0388354 0)
(0.985432 0.0150451 0)
(0.992593 -0.000403142 0)
(0.836326 0.000864977 0)
(0.837329 0.000276027 0)
(0.992349 0.000234699 0)
(1.15723 -0.104488 0)
(0.97333 -0.00135993 0)
(0.976237 -0.00059027 0)
(0.989126 0.0132694 0)
(0.808577 -0.000669805 0)
(0.817937 0.00474149 0)
(1.06359 0.000859151 0)
(1.06447 0.000394342 0)
(0.920746 0.0580435 0)
(1.17535 0.141216 0)
(0.832173 0.011789 0)
(0.812267 0.00296282 0)
(0.862287 0.00214063 0)
(1.39525 -0.0336752 0)
(0.849403 0.00223206 0)
(1.60487 -0.174029 0)
(0.922702 0.0571737 0)
(0.909007 0.0594201 0)
(0.845349 0.0024386 0)
(0.837468 0.00144527 0)
(0.842185 -0.00126471 0)
(0.849107 0.00516416 0)
(1.21695 -0.0192332 0)
(0.839152 0.00231391 0)
(1.60149 -0.099986 0)
(0.986869 0.0278019 0)
(0.851495 0.00029619 0)
(0.994352 -0.00100578 0)
(0.995012 -0.0015556 0)
(0.907435 0.0603891 0)
(1.07974 0.000407176 0)
(0.837306 0.00034553 0)
(1.07342 0.00157077 0)
(0.978721 0.000497541 0)
(0.978919 -0.000399115 0)
(1.07534 -0.0278876 0)
(0.982549 0.0109138 0)
(0.875938 0.000771539 0)
(0.979931 -0.00145988 0)
(0.998451 0.00933744 0)
(1.11293 -0.0643002 0)
(0.959252 0.0400606 0)
(1.00202 0.0103595 0)
(1.45316 0.00461068 0)
(1.68119 0.0501681 0)
(1.61534 0.0387199 0)
(0.98598 -0.00172964 0)
(1.00341 0.000208951 0)
(0.989509 -0.00104104 0)
(0.838544 0.00257937 0)
(1.06348 -0.0238506 0)
(-0.635555 0.0852774 0)
(1.00291 -0.000404716 0)
(0.836089 0.000717055 0)
(0.776719 0.0103723 0)
(1.37429 -0.00710682 0)
(1.00313 0.00790677 0)
(1.05764 -0.0193586 0)
(1.08838 -0.000648377 0)
(1.06786 0.00014572 0)
(0.853355 0.000428703 0)
(0.851823 0.000791806 0)
(1.78358 -0.124528 0)
(0.996706 0.0039091 0)
(0.995612 0.00903171 0)
(1.06783 -0.0315637 0)
(0.970487 0.034756 0)
(1.44855 -0.0341819 0)
(0.891705 0.0650802 0)
(0.890987 0.0632267 0)
(1.00046 0.0123217 0)
(1.58879 0.0331625 0)
(0.900688 0.0615414 0)
(0.938381 0.0499438 0)
(0.809719 0.00356215 0)
(0.942291 0.0502442 0)
(0.986611 0.0131894 0)
(1.00983 -0.00116555 0)
(0.801077 0.0732855 0)
(1.01169 -0.00166128 0)
(1.10895 -0.0432825 0)
(0.769209 0.0536768 0)
(0.859138 0.00188861 0)
(0.992577 -0.000523566 0)
(0.992501 -0.000839261 0)
(1.28426 -0.0131735 0)
(0.963812 0.0421915 0)
(0.835651 -0.00120511 0)
(0.81907 0.00628934 0)
(0.982244 0.00985063 0)
(1.0836 -0.148996 0)
(1.01175 -0.00163993 0)
(0.84183 -0.000238538 0)
(1.00772 -0.000942204 0)
(1.09515 -0.0365772 0)
(0.900954 0.0608375 0)
(1.13746 0.0136194 0)
(1.00116 0.00827939 0)
(1.08505 -0.0481987 0)
(0.858442 3.68683e-05 0)
(0.980588 0.00190539 0)
(0.981136 0.0061042 0)
(1.00582 0.00337669 0)
(0.97493 0.0335875 0)
(0.843162 0.000659787 0)
(0.876065 -0.00144036 0)
(1.01686 0.00120532 0)
(1.02452 -0.000140798 0)
(1.11442 -0.00156677 0)
(1.10485 -0.000607104 0)
(0.858468 0.00130661 0)
(1.19144 0.00414145 0)
(0.85775 0.00189511 0)
(0.939539 -0.000320266 0)
(1.06976 -0.0303811 0)
(1.00193 0.000203872 0)
(1.00332 0.000791727 0)
(1.4932 -0.0732761 0)
(0.835777 0.00169009 0)
(0.845816 0.00203884 0)
(1.81062 0.116604 0)
(0.759745 0.0426246 0)
(0.828383 -0.000720042 0)
(1.02907 -0.00402423 0)
(1.02085 -0.00359362 0)
(1.1602 -0.154945 0)
(1.09404 -0.0343864 0)
(0.795261 0.00153795 0)
(1.037 -0.00690323 0)
(1.36794 -0.0201566 0)
(1.14466 -0.0920058 0)
(1.06647 0.0738884 0)
(1.13516 -0.0654702 0)
(0.831802 -0.000332486 0)
(1.00476 -0.00100431 0)
(1.37215 0.00434018 0)
(1.00545 -0.000607237 0)
(0.800191 -0.00156416 0)
(1.13491 -0.0657263 0)
(0.870093 0.00322393 0)
(0.82202 0.00535469 0)
(0.869175 0.00308813 0)
(0.853339 -0.000498327 0)
(0.8184 0.00456205 0)
(0.820128 0.00371195 0)
(0.820349 0.00395834 0)
(1.01787 0.00225226 0)
(0.826316 0.001154 0)
(0.849571 0.00330802 0)
(0.849783 0.00184297 0)
(0.850549 0.0030025 0)
(1.02496 0.00147256 0)
(0.825579 0.00373315 0)
(0.907728 0.060841 0)
(1.08401 -0.0354588 0)
(0.846343 0.00318657 0)
(0.821196 0.00333809 0)
(1.33938 -0.023991 0)
(0.982109 0.0154383 0)
(1.03052 0.000929833 0)
(1.09215 -0.049006 0)
(1.01381 -0.00077622 0)
(1.01611 0.00623874 0)
(1.01448 -0.000442605 0)
(0.825694 -0.00124047 0)
(1.83274 0.231331 0)
(1.04524 -0.00348701 0)
(0.771697 0.0654091 0)
(0.82616 0.00184658 0)
(0.967731 0.0366881 0)
(1.04276 -0.00392843 0)
(0.982458 0.00823427 0)
(0.806312 -0.0012057 0)
(1.03652 0.00705552 0)
(0.985178 0.0235044 0)
(0.993695 0.0255788 0)
(0.852033 0.000782101 0)
(1.02416 -0.0138315 0)
(1.43728 -0.0357041 0)
(0.961621 -0.00109036 0)
(0.960758 -0.000982815 0)
(0.90581 0.0600875 0)
(0.862941 0.000959978 0)
(0.836403 0.0307854 0)
(0.845596 0.00107451 0)
(0.79366 0.0218926 0)
(1.77714 0.141962 0)
(0.839648 0.000269584 0)
(0.881283 -0.000599266 0)
(0.888933 0.00653425 0)
(0.811621 0.069433 0)
(0.821352 0.00596405 0)
(1.02779 -0.0141298 0)
(0.839305 0.0264822 0)
(0.976869 0.0012813 0)
(0.855444 0.00154622 0)
(0.881339 0.00266984 0)
(1.08167 -0.0281367 0)
(0.839752 0.0271938 0)
(1.54546 -0.0795195 0)
(1.02807 0.000467531 0)
(0.888198 -0.00107869 0)
(1.00795 -0.00121268 0)
(0.880905 -0.00127614 0)
(1.37954 0.00503175 0)
(1.02936 -0.000552444 0)
(1.00927 -0.000693754 0)
(0.864176 -0.00321036 0)
(1.0008 0.00632867 0)
(1.31977 -0.0155178 0)
(1.41033 -0.023376 0)
(0.906294 0.016804 0)
(0.918872 0.018845 0)
(1.04376 -0.0214163 0)
(0.971483 0.00195854 0)
(0.817003 0.0092411 0)
(0.843126 0.00399259 0)
(1.00826 0.0103109 0)
(1.08377 -0.0475829 0)
(0.835885 0.027018 0)
(0.986141 0.00776877 0)
(0.863776 -0.00240605 0)
(1.04084 -0.0203818 0)
(0.971569 0.0303082 0)
(0.854441 -0.00348995 0)
(0.840925 0.00173325 0)
(1.06998 -0.0308243 0)
(1.58111 -0.149523 0)
(1.05597 -0.0200663 0)
(1.01839 -0.0115319 0)
(1.13086 -0.311623 0)
(0.985213 -0.000298299 0)
(-0.0866032 0.247388 0)
(0.841745 0.0313725 0)
(1.05639 0.0111103 0)
(0.841189 0.0299284 0)
(1.03115 -0.000183052 0)
(1.03456 -0.0199015 0)
(0.8168 0.00070872 0)
(1.0385 -0.0202078 0)
(1.03814 -0.0195068 0)
(1.03201 -0.000284457 0)
(0.830531 0.00117855 0)
(1.04174 -0.0203365 0)
(0.807085 0.00115309 0)
(0.835972 0.00798675 0)
(0.840643 0.0272421 0)
(0.849303 0.00178752 0)
(0.833904 0.00990452 0)
(1.0094 0.00841512 0)
(1.01722 -0.136065 0)
(1.05474 -0.00180713 0)
(1.10249 -0.0431956 0)
(1.04812 -0.00370807 0)
(1.06827 -0.0249012 0)
(0.990313 0.0269482 0)
(1.04054 -0.00284049 0)
(1.01876 0.0153696 0)
(0.957891 -0.00166239 0)
(0.962679 -0.00167804 0)
(1.38659 0.0297218 0)
(0.814981 0.000667613 0)
(0.814227 8.41774e-05 0)
(1.33813 -0.0186941 0)
(0.776294 0.00835385 0)
(1.58093 -0.061444 0)
(1.06023 -0.0171432 0)
(0.989072 0.0131484 0)
(1.13079 -0.081315 0)
(1.059 -0.018298 0)
(1.04117 -0.0206632 0)
(0.984568 0.00920831 0)
(1.04129 -0.0203581 0)
(0.0352069 -0.0604793 0)
(0.832782 0.000463273 0)
(1.01331 -0.00207911 0)
(1.03051 -0.0146918 0)
(1.10394 -0.0618561 0)
(1.01309 -0.00128029 0)
(1.04762 0.00161211 0)
(1.05517 -0.000280045 0)
(0.959695 -0.00146796 0)
(0.982271 0.0106386 0)
(0.821145 0.00526684 0)
(0.957098 -0.00153421 0)
(0.958293 0.0402326 0)
(0.80479 0.0106874 0)
(1.72107 -0.0772928 0)
(0.811515 0.00127269 0)
(0.993621 0.00987319 0)
(0.837878 0.0256979 0)
(1.01133 0.00692522 0)
(0.95128 0.00811918 0)
(0.98575 -0.0418549 0)
(0.841001 -0.00150038 0)
(1.03556 -0.0173638 0)
(0.855542 0.000953519 0)
(1.23301 -0.0114994 0)
(0.936806 0.00230012 0)
(0.791644 -0.0511172 0)
(1.02558 -0.0137368 0)
(0.868551 0.00300692 0)
(0.874867 0.00101148 0)
(1.02454 -0.0132989 0)
(0.813448 0.00425917 0)
(1.02616 -0.0138953 0)
(1.0194 -0.0102378 0)
(1.02495 -0.0136194 0)
(1.16861 0.0368172 0)
(1.02856 -0.003509 0)
(1.02206 -0.00318282 0)
(1.58671 -0.163063 0)
(1.03462 -0.020415 0)
(1.03333 -0.0134126 0)
(0.84229 -0.000933201 0)
(1.39264 0.0297638 0)
(1.04018 0.000401286 0)
(1.4845 -0.0565866 0)
(0.976309 -0.000649758 0)
(1.07675 -0.0254719 0)
(0.887945 0.00145518 0)
(0.870442 -0.000918248 0)
(1.04419 -0.00014662 0)
(1.12218 -0.00795093 0)
(1.37204 0.0015914 0)
(0.847805 0.0130551 0)
(0.846489 0.0127729 0)
(1.15668 -0.0851984 0)
(0.850281 0.0128992 0)
(0.846604 0.0129013 0)
(1.0498 -0.00234392 0)
(1.06037 -0.0233491 0)
(1.04887 -0.0026056 0)
(0.985491 0.00989783 0)
(0.860818 0.015823 0)
(0.856973 0.0153683 0)
(0.861856 0.0171954 0)
(0.861837 0.0165172 0)
(0.848844 0.000761228 0)
(0.835635 0.0282207 0)
(0.784139 0.00319783 0)
(1.0417 -0.0208154 0)
(1.13454 -0.0779397 0)
(0.857313 0.00182129 0)
(0.894783 0.0123188 0)
(1.34271 -0.00595837 0)
(0.837738 0.0247945 0)
(0.829268 0.0104672 0)
(0.87872 0.0172912 0)
(0.977791 -0.00173836 0)
(0.96061 0.037305 0)
(1.21126 -0.0277014 0)
(0.9747 0.0327015 0)
(0.870226 0.0144915 0)
(0.868274 0.00366407 0)
(1.10909 -0.0460995 0)
(1.43656 0.0287428 0)
(0.852816 0.0130664 0)
(0.840873 0.00612769 0)
(1.03121 -0.0025214 0)
(0.834324 0.00403369 0)
(0.849679 0.0144124 0)
(1.02613 -0.00163679 0)
(0.975526 0.0316135 0)
(0.931728 0.0216204 0)
(0.824515 0.00390545 0)
(0.930176 0.0217875 0)
(0.929951 0.0213177 0)
(0.928461 0.0214181 0)
(0.971241 -0.000735402 0)
(0.844382 0.0109661 0)
(1.07324 6.08018e-05 0)
(1.0766 -0.00079915 0)
(0.965516 0.0395095 0)
(0.949663 0.00271086 0)
(0.839326 0.00427205 0)
(0.855487 -0.0045632 0)
(0.922559 -0.000168264 0)
(0.805671 0.000897531 0)
(0.764067 0.0504398 0)
(0.92644 0.0400661 0)
(0.838773 0.0264645 0)
(0.773488 0.0577188 0)
(0.835581 0.0323785 0)
(0.846743 0.00216255 0)
(0.96115 0.0411775 0)
(0.961041 0.0430918 0)
(0.826528 0.000851385 0)
(0.822849 0.0032131 0)
(0.954825 -0.0012975 0)
(1.03545 -0.0186885 0)
(0.822672 0.00249202 0)
(0.812535 -0.000374294 0)
(0.991572 0.0229312 0)
(0.871053 0.0175633 0)
(0.868599 0.0175746 0)
(0.870828 0.017494 0)
(0.869686 0.0174354 0)
(0.880667 0.0181516 0)
(0.877714 0.0184349 0)
(0.881993 0.0178854 0)
(0.881914 0.0175401 0)
(1.16603 -0.100195 0)
(1.04469 -0.0198953 0)
(0.887715 0.0188157 0)
(0.999199 0.00369881 0)
(0.884243 0.0188581 0)
(0.894599 0.0174826 0)
(0.822506 0.00308762 0)
(0.979044 -0.000996006 0)
(0.967262 0.000717727 0)
(0.893155 0.0178996 0)
(0.819194 0.00515695 0)
(0.897493 0.0181202 0)
(0.856779 -0.000406312 0)
(0.896118 0.018172 0)
(1.04892 0.0953325 0)
(1.03813 -0.0184151 0)
(0.903184 0.0174699 0)
(0.870624 -0.000386008 0)
(0.901657 0.0177433 0)
(0.840147 0.0709875 0)
(0.829853 0.00963519 0)
(0.908118 0.0170377 0)
(0.918706 0.017815 0)
(0.906697 0.0174131 0)
(0.933652 0.0153889 0)
(1.15276 -0.0841494 0)
(0.873445 -0.000625131 0)
(1.05543 -0.0222727 0)
(0.967505 0.000765427 0)
(0.853972 0.00439784 0)
(0.847193 0.0035938 0)
(0.915309 0.0162119 0)
(0.913464 0.0163589 0)
(0.829917 0.00319158 0)
(1.02848 -0.014768 0)
(0.918485 0.0162229 0)
(0.918649 0.0164206 0)
(0.998859 0.0207956 0)
(0.872869 -0.000423472 0)
(0.873844 0.000146665 0)
(0.929861 0.0136212 0)
(1.05578 0.000144749 0)
(0.927557 0.0135896 0)
(0.817536 0.00740551 0)
(1.05501 5.69896e-05 0)
(0.9336 0.0124558 0)
(1.08582 -0.0475304 0)
(0.933356 0.0129665 0)
(1.05768 -0.00141728 0)
(1.05455 -0.000662956 0)
(0.822386 0.00774305 0)
(0.851839 0.0127367 0)
(0.857007 0.0135374 0)
(0.939619 0.0112173 0)
(0.938366 0.0112904 0)
(0.998212 0.0039839 0)
(0.829853 0.00743253 0)
(0.839937 0.00656742 0)
(0.943913 0.0100835 0)
(1.05992 -0.0160414 0)
(0.943089 0.0104186 0)
(1.08281 -0.0491526 0)
(0.820293 0.00329706 0)
(0.953153 0.00808747 0)
(0.953045 0.00817807 0)
(0.841078 0.00458155 0)
(0.839874 0.00680045 0)
(0.835812 0.0069177 0)
(0.987241 0.00659044 0)
(0.834004 0.00700732 0)
(1.03371 -0.0139941 0)
(1.00836 -0.00844501 0)
(0.954567 0.042744 0)
(0.837114 0.000211865 0)
(0.961769 0.00644273 0)
(0.880089 0.00451754 0)
(0.961067 0.00681797 0)
(0.8743 0.0042439 0)
(0.833975 -0.00110536 0)
(1.03315 -0.0136229 0)
(1.03333 -0.0133868 0)
(0.965952 0.00381983 0)
(0.964949 0.00409746 0)
(1.04243 -0.0210341 0)
(1.02523 -0.010779 0)
(0.972748 0.00332031 0)
(1.01903 -0.0105605 0)
(0.972018 0.00339652 0)
(0.812167 0.00164027 0)
(0.98768 0.0241366 0)
(0.981836 0.000497039 0)
(0.980973 0.000750238 0)
(0.81974 0.00970491 0)
(1.06553 -0.0305736 0)
(0.984737 -0.00163624 0)
(0.984249 -0.00133432 0)
(0.7223 0.0278486 0)
(0.87056 -1.30201e-05 0)
(0.866587 -0.00102674 0)
(0.854689 0.0033218 0)
(0.993227 -0.00282594 0)
(1.04741 -0.0211492 0)
(0.99223 -0.00282775 0)
(0.838784 -0.0167416 0)
(0.94215 0.000853996 0)
(1.03392 -0.0208825 0)
(1.0993 -0.0601751 0)
(0.996566 -0.00562191 0)
(0.996294 -0.00518981 0)
(1.00923 -0.00939248 0)
(1.00322 -0.00689332 0)
(1.0023 -0.00699611 0)
(1.09185 -0.0337883 0)
(1.0935 -0.0371495 0)
(0.854258 0.0151794 0)
(1.0608 0.00691285 0)
(0.76147 0.04843 0)
(1.09425 -0.00239625 0)
(0.810853 -0.0169051 0)
(1.11362 -0.0553475 0)
(1.09618 -0.00269187 0)
(1.10129 -0.0444035 0)
(0.943989 0.00128508 0)
(0.975053 -0.000355596 0)
(0.861496 0.0168573 0)
(0.853364 0.0153259 0)
(0.859721 0.0169903 0)
(1.03826 -0.00336444 0)
(0.880461 0.0042148 0)
(0.854001 0.0145346 0)
(0.876927 0.00266714 0)
(1.544 -0.228323 0)
(0.850544 0.0137796 0)
(1.03965 -0.00148615 0)
(1.69552 -0.145823 0)
(0.852854 0.0148026 0)
(0.85595 0.0145778 0)
(1.07964 -0.0267437 0)
(1.08871 -0.0368258 0)
(0.814496 0.00378443 0)
(0.986949 0.0224706 0)
(1.1602 -0.101917 0)
(0.962338 -0.000665141 0)
(1.59115 -0.160175 0)
(0.794766 0.00610264 0)
(0.812348 0.00225286 0)
(0.836095 0.0277402 0)
(1.10723 0.149484 0)
(0.995506 0.00712572 0)
(0.861101 0.000636863 0)
(1.04122 -0.0204558 0)
(0.838757 0.0262922 0)
(0.93682 0.0177068 0)
(0.936299 0.00400519 0)
(0.935864 0.0170743 0)
(1.0833 -0.0418881 0)
(0.88313 0.0076566 0)
(0.978395 0.0141693 0)
(0.990447 0.0119254 0)
(0.928864 0.0201936 0)
(0.838964 0.02776 0)
(1.4386 0.036427 0)
(0.82706 0.0038752 0)
(1.84127 0.197037 0)
(0.879945 -0.000468777 0)
(0.93638 0.0164187 0)
(0.935228 0.0179611 0)
(0.990227 0.000632601 0)
(0.972787 0.000310321 0)
(0.973893 0.000566313 0)
(0.849131 0.00284262 0)
(1.05543 -0.0217558 0)
(0.85436 0.00112421 0)
(0.826852 0.000947123 0)
(0.934757 0.0173035 0)
(1.01215 -0.0108116 0)
(0.837441 0.0305583 0)
(1.05391 0.00914096 0)
(0.838839 0.031646 0)
(0.838084 0.0293413 0)
(0.989858 0.0244505 0)
(0.991884 0.026704 0)
(0.813089 0.00447393 0)
(0.935551 0.0168268 0)
(1.10945 -0.0456878 0)
(1.03977 -0.0218703 0)
(0.801338 -0.0120807 0)
(1.04129 -0.0200854 0)
(1.06775 0.00404162 0)
(0.781267 -0.00537942 0)
(0.837656 0.0286142 0)
(1.04081 -0.0202175 0)
(1.03614 -0.0176642 0)
(0.839706 0.0277044 0)
(1.08061 0.00139822 0)
(0.814504 -0.034537 0)
(0.834552 0.0273388 0)
(1.28839 -0.0292796 0)
(0.919772 0.0148457 0)
(0.919023 0.0154431 0)
(1.04466 -0.0204633 0)
(0.870708 -0.000239585 0)
(0.820297 -0.0306005 0)
(0.823907 -0.0270623 0)
(0.988919 0.0123157 0)
(0.938593 -0.00707122 0)
(0.838035 0.00107215 0)
(1.02886 -0.0147332 0)
(1.02912 0.00322603 0)
(1.10408 -0.0458521 0)
(0.850026 0.0703438 0)
(0.878748 0.000214286 0)
(0.878313 0.00126803 0)
(0.795041 0.0120341 0)
(0.948302 0.00898178 0)
(0.946394 0.00964429 0)
(0.866664 0.0170111 0)
(0.834067 0.0326538 0)
(0.795855 -0.0336293 0)
(1.06124 -0.00218336 0)
(0.954562 0.00749919 0)
(1.03441 -0.154052 0)
(0.836291 0.0330497 0)
(0.953601 0.00754985 0)
(1.05339 -0.00203069 0)
(1.0416 -0.0204468 0)
(1.04202 -0.0213892 0)
(1.38216 -0.00289169 0)
(1.04247 -0.0210638 0)
(1.02312 -0.0133296 0)
(1.12089 -0.0558575 0)
(1.04319 -0.0210907 0)
(1.11749 -0.0492439 0)
(0.974501 0.00228928 0)
(0.816932 0.00994855 0)
(0.817259 0.00697113 0)
(0.974133 0.00254855 0)
(1.47046 0.0339274 0)
(0.821713 0.00770157 0)
(1.03862 -0.0187903 0)
(1.04223 -0.0205281 0)
(0.828291 0.0018853 0)
(1.10973 -0.00549333 0)
(1.07891 -0.0385675 0)
(1.02847 -0.0145876 0)
(1.06898 -0.0318156 0)
(1.072 -0.0299349 0)
(1.10504 -0.00609427 0)
(1.06862 -0.0397641 0)
(1.07182 -0.0397444 0)
(1.10391 -0.0487067 0)
(1.10474 -0.0526979 0)
(0.909836 0.00120126 0)
(0.821531 0.0208667 0)
(0.971705 0.00389282 0)
(0.821298 0.0214925 0)
(0.909027 0.000282061 0)
(1.03814 -0.0196219 0)
(1.07328 -0.0348241 0)
(1.07366 -0.0366745 0)
(0.819669 0.00755289 0)
(0.882628 0.00490699 0)
(1.01918 -0.0120884 0)
(0.853748 0.00145854 0)
(1.02854 -0.0146735 0)
(1.02056 -0.0120484 0)
(0.840812 0.0311565 0)
(0.842175 0.0321038 0)
(0.939219 0.000333808 0)
(0.83995 0.030339 0)
(1.60289 -0.0496594 0)
(0.840433 0.0294051 0)
(0.819 0.00405746 0)
(1.04149 -0.0197251 0)
(1.02527 -0.0118927 0)
(0.962921 0.00540072 0)
(0.830603 -0.0273536 0)
(0.836791 -0.000438106 0)
(1.05166 -0.00373525 0)
(0.863914 -0.000147227 0)
(1.0241 -0.0135876 0)
(1.02462 -0.0137762 0)
(1.06135 -0.00170502 0)
(0.837464 0.0270796 0)
(1.02403 -0.0167751 0)
(1.03657 -0.0176883 0)
(1.02425 -0.0165758 0)
(0.818799 -0.000825246 0)
(0.812631 -0.000651337 0)
(0.809404 -0.000917566 0)
(0.833174 6.11741e-05 0)
(1.03532 -0.0174539 0)
(1.02677 -0.0143064 0)
(0.84321 0.011677 0)
(1.0037 0.0196677 0)
(0.840839 0.0275743 0)
(1.06804 -0.0398107 0)
(0.833139 0.0125154 0)
(1.07182 -0.0408323 0)
(0.968885 -5.43285e-05 0)
(0.981084 -3.97752e-05 0)
(0.819384 0.00713026 0)
(1.07485 0.000222255 0)
(1.07587 0.000202389 0)
(0.984432 0.00861249 0)
(0.822154 0.071388 0)
(0.862325 0.0171441 0)
(1.07383 -0.0382705 0)
(1.0142 0.00428047 0)
(1.01554 0.00505386 0)
(1.06911 -0.0373514 0)
(0.863795 0.0165241 0)
(0.861543 0.0164191 0)
(1.03962 -0.0205398 0)
(0.837946 -0.0121099 0)
(0.825246 0.00838485 0)
(0.824026 0.00760399 0)
(1.03093 -0.0131555 0)
(1.13842 -0.0881641 0)
(0.956819 -0.00126135 0)
(1.03468 -0.0207088 0)
(0.784113 0.00152958 0)
(0.855591 0.0155064 0)
(0.86845 0.000575249 0)
(0.853886 0.0152968 0)
(0.87822 -0.00184961 0)
(0.847488 0.0128143 0)
(0.767682 0.0557267 0)
(0.845643 0.0127466 0)
(0.962144 -0.00101188 0)
(1.09678 -0.0358244 0)
(1.08374 -0.0448549 0)
(0.994759 0.00210795 0)
(0.859249 -0.0128083 0)
(0.81186 -0.0161727 0)
(0.825402 -0.0236321 0)
(1.083 -0.0274936 0)
(0.944663 0.000955981 0)
(0.966081 -0.000254257 0)
(0.813248 -0.0390289 0)
(0.905827 0.0173687 0)
(0.900215 0.0179871 0)
(0.896113 0.0175517 0)
(0.91147 0.0164171 0)
(0.904451 0.0175146 0)
(1.49914 -0.0710055 0)
(0.98162 0.00309572 0)
(0.898623 0.01829 0)
(0.891922 0.0182682 0)
(0.909588 0.01691 0)
(1.04192 -0.02152 0)
(0.894963 0.0174545 0)
(0.927162 0.0139768 0)
(0.918132 0.0164699 0)
(0.890035 0.0190258 0)
(0.867036 7.63291e-05 0)
(0.882784 0.0183071 0)
(0.916783 0.0164719 0)
(0.880827 0.0179536 0)
(0.845393 0.0047108 0)
(0.924557 0.0133225 0)
(0.874611 0.0632024 0)
(0.882859 0.0179951 0)
(0.88165 0.01822 0)
(0.921926 0.0141571 0)
(0.874992 0.0174857 0)
(0.876573 0.0222854 0)
(0.932409 0.0136076 0)
(0.87109 0.0176011 0)
(0.859472 0.00196392 0)
(0.871559 0.0177541 0)
(0.931497 0.0136981 0)
(0.82146 0.0022401 0)
(0.936443 0.0115402 0)
(0.870991 0.017578 0)
(1.1929 -0.0304533 0)
(0.846758 0.0050075 0)
(1.11238 -0.00228602 0)
(0.935194 0.0118763 0)
(0.841441 0.00459649 0)
(0.874075 0.0140805 0)
(0.838136 0.00949256 0)
(0.941768 0.0109352 0)
(0.927967 0.0210393 0)
(0.818929 0.00954347 0)
(0.836678 0.00888588 0)
(0.912087 0.0169762 0)
(0.940962 0.0109963 0)
(1.11433 -0.00313369 0)
(0.829142 -0.0240516 0)
(0.951763 0.00852179 0)
(0.817241 0.00373129 0)
(1.02585 -0.000891336 0)
(0.950695 0.00883485 0)
(0.958266 0.00709829 0)
(0.956531 0.00731979 0)
(1.097 -0.0382962 0)
(0.963412 0.00497014 0)
(0.963501 0.00560201 0)
(0.970011 0.00353502 0)
(0.811588 0.00125377 0)
(0.967805 0.000912271 0)
(0.968276 0.00364981 0)
(0.840487 0.000230609 0)
(0.978284 0.00110071 0)
(0.978703 -0.00188309 0)
(0.839073 -0.000320366 0)
(0.862962 -0.000317557 0)
(0.976838 0.00160676 0)
(1.05036 -0.0210803 0)
(0.851743 -0.0182134 0)
(0.983042 -0.000280334 0)
(0.983446 -4.96941e-05 0)
(0.989204 -0.00267554 0)
(1.05911 -0.00416176 0)
(0.987071 -0.00234542 0)
(0.829818 -0.0187355 0)
(0.994694 -0.00383579 0)
(0.820934 -0.00031942 0)
(1.01307 -0.0116844 0)
(1.0535 -0.0028454 0)
(0.9952 -0.00338592 0)
(0.994391 0.0214167 0)
(1.00676 0.0160333 0)
(1.04087 -0.020242 0)
(1.0002 -0.00672916 0)
(1.01508 -0.0119229 0)
(1.01437 -0.012138 0)
(0.987405 0.000429897 0)
(0.998846 -0.00655694 0)
(1.00573 -0.00749492 0)
(1.00511 -0.00736785 0)
(0.962559 -0.000596708 0)
(0.860331 -0.0184751 0)
(0.782853 -0.0468836 0)
(0.81382 0.00457226 0)
(0.859374 -0.0188178 0)
(0.844012 0.00112045 0)
(0.863437 -0.0187329 0)
(0.862073 -0.0186905 0)
(0.854083 -0.0161262 0)
(1.28634 -0.0179611 0)
(0.771307 0.0567623 0)
(0.959891 -2.51102e-05 0)
(1.67662 -0.0749676 0)
(1.07988 -0.016056 0)
(1.11204 -0.0163989 0)
(0.969785 0.0365689 0)
(0.960754 0.0396761 0)
(0.815759 0.00481188 0)
(0.960737 -0.000374418 0)
(0.936155 0.0135536 0)
(0.930858 0.0137777 0)
(0.97708 0.0014377 0)
(0.958164 0.000863428 0)
(0.938888 0.0129839 0)
(0.93504 0.0139074 0)
(0.937892 0.0133976 0)
(0.932015 0.0219697 0)
(0.996807 0.0190405 0)
(1.0921 -0.0356814 0)
(1.02408 -0.0133283 0)
(1.0412 -0.0206976 0)
(0.815668 0.00437471 0)
(1.02316 -0.00740714 0)
(1.07029 -0.0353871 0)
(1.10229 -0.0463541 0)
(1.00803 0.0184261 0)
(1.45768 0.0627109 0)
(0.905361 0.0202134 0)
(0.931203 0.0231058 0)
(1.11914 -0.0708689 0)
(1.42899 0.0362793 0)
(1.10059 -0.00168775 0)
(0.98623 0.0102785 0)
(1.01106 0.00553149 0)
(1.10378 0.000120059 0)
(1.31878 -0.0248769 0)
(0.869897 0.0221595 0)
(0.841307 0.000627962 0)
(1.04082 -0.0123558 0)
(1.00701 0.0174326 0)
(0.978039 0.000888451 0)
(0.940506 0.0128183 0)
(0.995051 0.0210311 0)
(0.988391 0.0228975 0)
(1.12445 -0.0738286 0)
(1.07537 -0.00211245 0)
(1.00766 0.00676508 0)
(1.08993 -0.000208526 0)
(1.01328 -0.0113975 0)
(0.984527 0.0133976 0)
(1.13985 -0.0696632 0)
(1.08072 -0.04008 0)
(0.86745 -0.0199418 0)
(1.02736 0.00102571 0)
(0.932761 0.0138196 0)
(1.01143 -0.010379 0)
(0.837977 0.00300449 0)
(0.93314 0.013937 0)
(0.892206 0.0211522 0)
(1.03653 -0.011388 0)
(1.0128 0.0112261 0)
(0.817075 0.00116452 0)
(0.837328 0.00252377 0)
(0.881136 -0.00067957 0)
(1.03034 -0.0145873 0)
(0.836221 0.0326045 0)
(0.804547 -0.000802742 0)
(0.883828 -0.000293813 0)
(0.864631 -0.0141054 0)
(1.00831 0.0117289 0)
(1.11755 -0.0488852 0)
(1.20965 0.0765771 0)
(0.978649 0.014617 0)
(0.883306 -0.000707182 0)
(1.03214 -0.0150087 0)
(1.04213 -0.0091572 0)
(0.77748 0.00134153 0)
(1.16539 0.00155174 0)
(0.780658 -0.0654453 0)
(1.10349 -0.0460296 0)
(0.877224 0.0221391 0)
(1.08542 -0.044621 0)
(1.02491 -0.0104746 0)
(1.0254 -0.00975156 0)
(0.80001 0.00488372 0)
(0.929101 0.0140709 0)
(1.03083 -0.0144883 0)
(0.837612 0.0253845 0)
(1.10621 -0.0305886 0)
(0.891626 1.3003e-05 0)
(0.992171 0.0158109 0)
(0.963912 -0.000505374 0)
(1.07816 -0.0178268 0)
(1.07914 -0.0338485 0)
(0.873457 -0.00128652 0)
(0.873365 -0.000778751 0)
(1.02387 -0.00777747 0)
(1.11361 -0.0174396 0)
(1.02033 -0.012813 0)
(1.0361 -0.0192249 0)
(1.02974 -0.0129922 0)
(1.0297 -0.0132179 0)
(0.87324 -0.0010464 0)
(0.961256 0.000507158 0)
(1.01796 -0.0124051 0)
(1.04193 -0.0209869 0)
(1.04211 -0.0208851 0)
(1.11538 -0.0500422 0)
(0.993818 0.0177662 0)
(0.837924 0.0255766 0)
(1.04226 -0.00715142 0)
(1.11475 -0.0635851 0)
(1.02403 -0.0150197 0)
(1.12221 -0.0548811 0)
(1.02587 -0.0150336 0)
(0.930988 0.0226724 0)
(-0.344982 -0.00700344 0)
(0.877954 0.00303464 0)
(0.875762 0.00348367 0)
(1.07445 -0.0336664 0)
(1.03005 -0.0173859 0)
(0.815821 0.00247262 0)
(1.04507 -0.0210287 0)
(1.02671 -0.017363 0)
(0.950818 0.000767823 0)
(0.94204 0.00169594 0)
(1.06847 -0.0379264 0)
(1.0474 -0.0207277 0)
(0.829914 -0.01286 0)
(0.988005 -0.00112787 0)
(0.912669 0.0203163 0)
(0.869469 -0.00270994 0)
(0.868867 -0.00246737 0)
(1.03227 -0.00408516 0)
(0.906171 0.0212646 0)
(0.874042 0.000793464 0)
(0.867425 0.00287454 0)
(0.840919 0.0242443 0)
(1.03608 -0.0187063 0)
(0.86721 0.00341384 0)
(1.03851 -0.018406 0)
(1.14687 -0.0878787 0)
(1.03841 0.00340283 0)
(1.09306 -0.022865 0)
(0.818857 0.00333181 0)
(0.838562 0.0248097 0)
(1.09457 -0.0263187 0)
(1.49283 -0.054226 0)
(0.857446 0.0282598 0)
(1.04131 -0.0192473 0)
(0.860826 0.0286399 0)
(0.856454 0.0282039 0)
(0.870843 0.000325191 0)
(0.898515 0.00448678 0)
(0.859667 0.0289872 0)
(1.03806 -0.0188369 0)
(1.08495 -0.0248001 0)
(0.915927 0.0190324 0)
(0.83678 0.00584461 0)
(0.980528 0.0130127 0)
(0.870565 0.0298149 0)
(0.892911 0.0227685 0)
(1.02619 -0.00316412 0)
(1.77956 0.108951 0)
(0.918916 0.0181532 0)
(0.869428 0.0296444 0)
(0.879549 0.0279772 0)
(0.834078 0.0320341 0)
(1.0282 -0.0148549 0)
(0.804837 -0.0389223 0)
(0.836037 0.0318926 0)
(0.828428 0.0285862 0)
(1.08903 -0.0354902 0)
(0.879211 0.0283353 0)
(0.828464 0.0289834 0)
(0.904516 0.0203978 0)
(0.912527 0.0012514 0)
(1.57231 -0.0157088 0)
(0.821353 0.0176888 0)
(0.978953 0.0153491 0)
(0.891741 0.0275744 0)
(0.962155 -0.00089851 0)