/*--------------------------------*- C++ -*----------------------------------*\
  =========                 |
  \\      /  F ield         | OpenFOAM: The Open Source CFD Toolbox
   \\    /   O peration     | Website:  https://openfoam.org
    \\  /    A nd           | Version:  12
     \\/     M anipulation  |
\*---------------------------------------------------------------------------*/
FoamFile
{
    format      ascii;
    class       surfaceScalarField;
    location    "2.43";
    object      phi;
}
// * * * * * * * * * * * * * * * * * * * * * * * * * * * * * * * * * * * * * //

dimensions      [1 0 -1 0 0 0 0];

internalField   nonuniform List<scalar> 
33852
(
0.000251329
2.24281e-05
-0.000273757
-0.000246121
1.32441e-05
0.000232877
-0.000175259
-7.14721e-05
0.00024703
0.000304053
-0.000163969
-0.000140085
0.000292467
-4.26182e-05
-0.000249455
2.72441e-05
-0.000260681
0.000233437
0.000316122
1.48475e-05
-0.000330909
0.000304277
-9.59564e-05
-0.000208321
0.000286413
-3.50841e-05
0.000194377
1.59853e-06
-0.00020106
0.00028971
-0.000366784
7.70085e-05
0.000360836
-4.59047e-05
-4.39602e-05
0.000263285
-0.000219325
-4.36048e-05
0.000316418
-0.00027321
6.11859e-05
-0.000236849
0.000252057
1.2236e-05
-0.000264293
0.000264853
-1.2796e-05
-0.000278433
3.23121e-05
0.000340745
-5.11834e-05
0.000158593
0.000112308
-0.000270901
-2.4379e-05
0.000303173
-0.000278758
0.000271377
-0.000276165
4.78802e-06
-1.7711e-05
0.000274758
-0.00025701
-0.000218993
1.44461e-05
0.00020744
-0.000154325
-0.0001845
0.000338178
-0.00014059
-6.53709e-05
0.000215799
3.72401e-05
0.000267037
-6.10792e-05
-0.000262829
0.000324478
-0.00022677
1.55627e-06
0.000197632
-0.000200691
-1.83896e-05
0.000142045
0.000137388
-0.000279433
0.000339985
1.92198e-05
0.000142618
0.000128347
-0.000270965
-0.000101136
0.000259729
-0.000250489
-3.78001e-06
0.000254269
0.000330744
-5.95503e-05
-0.000271219
-0.000358016
0.00020368
-0.000227114
0.000209416
0.000231645
3.32081e-05
-5.65602e-06
0.000237301
-8.08839e-06
0.00020193
-0.000232625
0.000259869
0.000315094
-5.72431e-05
-0.000258565
-0.000309093
5.51042e-05
0.000253989
0.000240166
-0.00030075
0.000273589
-0.000306321
3.27321e-05
-0.000180237
-5.49362e-05
0.000235173
0.000272133
-0.000272133
0.000148429
-0.000297473
0.000149045
-0.00021114
0.000218507
-7.23683e-06
-0.000268241
0.000237301
3.09401e-05
-0.000198872
0.000246301
-4.62869e-05
-9.16164e-05
-0.000217477
-0.000114638
-0.000252138
-0.000280169
0.000266113
1.40561e-05
0.000327782
1.17285e-05
-0.000250433
7.01963e-05
0.000117908
0.000145909
-0.000263817
1.34681e-05
-0.000267457
0.000253989
-0.000134569
0.000282997
-0.000157516
-5.22418e-05
0.000210872
-0.000274681
0.000245113
2.95681e-05
0.000237553
-0.000268437
3.08841e-05
-0.000208636
-2.67399e-05
0.000151665
0.000115565
-0.00026723
-0.000193979
-2.84241e-05
0.000222826
0.000263985
2.24281e-05
0.000275941
-2.35201e-06
0.000265329
-0.000250741
-1.45881e-05
0.00022642
-6.47099e-05
-0.000162768
-1.82001e-06
0.000239373
0.000366703
-0.000312817
-5.3934e-05
-2.82176e-05
0.000303634
-0.000274855
-0.000101584
0.000219493
0.000342239
2.42321e-05
-0.000372575
0.000353843
1.83163e-05
-0.000212092
2.26481e-05
0.000309451
-0.000323046
1.24129e-05
-0.000208547
0.000272249
-6.44014e-05
-4.45202e-06
1.72458e-05
-0.000319182
0.000302478
0.000233429
-0.000199313
-3.5243e-05
0.000268732
-0.000338258
6.98902e-05
0.000333225
-6.33188e-05
-0.000268941
0.000236573
3.23681e-05
-0.000129388
-0.000132609
0.000261997
-1.86761e-05
-0.000249565
-1.022e-05
-0.000258721
2.35897e-05
0.000210026
-0.000234609
3.15943e-05
-0.000224678
0.000188468
-2.49303e-05
0.000327441
-0.000302952
-0.000279329
0.000273701
5.62802e-06
0.000156129
-0.000296857
0.000140729
-6.01165e-05
-0.000154363
0.000214255
0.000143277
0.0001218
-0.000265077
-0.000249981
0.000225641
-0.00021553
0.00015461
-0.000168813
0.000327181
-0.000158369
0.000185389
7.16523e-05
-0.000257041
0.000255193
2.07481e-05
-0.000192277
0.000148317
5.00874e-05
0.000265184
0.000307436
-0.00028987
8.84396e-05
-0.000226043
0.000135241
0.000117096
-0.000281065
-1.07315e-06
0.000245555
-0.000244521
0.000166489
0.000122836
-0.000289325
0.000143218
8.90236e-05
-3.92002e-06
0.000259113
0.000302819
5.41323e-06
-0.000323878
0.000314832
8.98338e-06
-3.99002e-05
0.000236293
-0.000196393
4.08802e-06
-0.000284257
-2.52344e-05
0.000165837
-0.000139416
-0.000160841
0.000136002
0.000204735
-0.000178976
-0.000269921
0.000264965
4.95602e-06
2.64041e-05
0.000174721
-0.000201125
2.87841e-05
-0.000257265
0.000228481
0.000276137
-0.000262669
0.000115108
0.000212073
0.00021372
-0.000192422
-0.000175813
0.000202217
1.36011e-05
0.000283203
-0.000296561
0.00027024
2.18441e-05
0.00027223
-0.000284749
1.24152e-05
3.86402e-06
0.000267513
-1.82263e-05
0.000290027
0.0003307
9.90042e-06
0.000212628
-0.000256676
0.00031614
-0.00031613
-6.63603e-06
-0.000272693
2.83234e-05
0.000197982
0.000187993
3.98722e-05
-0.000227865
-5.57992e-05
0.000226051
-0.00016702
0.000153609
-0.000270285
0.000116676
0.000279441
-0.000329701
5.02602e-05
-6.38122e-05
0.000249201
-0.000166909
0.000315897
-0.000148989
-0.000313836
-1.00988e-05
-0.000214929
0.000175029
2.78601e-05
-0.000278349
0.000276221
-1.88441e-05
-0.000248613
1.70666e-05
-0.000301968
0.00028471
0.000344989
-0.000158593
-0.000186397
-1.6844e-05
-0.000240848
0.000257588
-0.000266617
-3.30401e-06
0.000224001
2.45841e-05
-0.000248585
0.000284509
-0.000128381
0.000140197
0.000138853
-0.000279049
-0.000199377
-1.06444e-05
0.000258169
-0.000115551
0.000225748
-0.000242547
-6.38122e-05
0.000251805
-0.000210066
0.000249481
-5.60002e-07
-0.000248921
0.000255109
-0.000237441
-0.000324667
0.000299186
-3.08841e-05
0.000203169
-0.000172285
0.000291825
1.27934e-06
-0.000293163
7.95619e-05
0.000135444
-0.000217015
4.76449e-05
-0.000200498
-0.00028944
-4.64399e-06
0.000294057
-1.54072e-06
-0.000287749
0.000146973
-0.000273925
0.000126952
-0.000261839
0.000220039
-0.000294247
0.000266233
0.000279441
-0.00031148
-1.23619e-05
0.000325795
0.00011075
0.000161146
-2.13261e-05
0.000352002
0.000140141
0.000139833
-0.000279973
0.000245029
-0.000250349
5.32002e-06
-0.000210953
0.000180069
0.000279133
-5.43202e-06
0.000349924
-3.26336e-05
-0.000300396
0.000306003
-1.19244e-06
0.000270985
-0.000270985
-0.000365092
0.000226081
0.00013889
-0.000223675
2.28033e-05
1.68672e-05
0.000275157
-0.000278461
3.30401e-06
-5.40925e-06
0.000170683
-0.000170246
-0.000197345
0.000254801
-5.74562e-05
-0.000202178
4.16577e-06
-0.000232092
0.000158445
8.12346e-05
-0.000180264
0.000261403
-8.11365e-05
0.000256285
-0.000287113
3.08281e-05
-0.000249229
5.18842e-05
-2.3682e-05
0.000275883
-0.000252424
-0.000253547
1.35801e-06
0.000252189
0.000231281
-7.28003e-06
-0.000294158
7.61627e-06
0.00028646
-0.000266085
0.000266085
-0.000283479
-5.47988e-05
-0.000170858
-0.000194242
-0.000171506
0.00021864
-4.50004e-05
-1.232e-05
-0.000239177
0.000251497
3.10801e-06
0.000210113
-0.000213221
-0.000187011
-2.25566e-05
0.000210026
7.57512e-06
0.000294424
-0.000302005
-0.000236153
-1.34401e-05
0.000249593
1.50361e-05
-0.000251189
-0.000241025
0.000256061
-0.000301289
0.000308866
0.000256117
7.16803e-06
-0.000172579
-3.26272e-05
0.000205015
-0.000145237
-0.000134765
-0.000244329
0.000240549
0.000298588
-4.21438e-07
-0.000298241
-0.000298842
6.14447e-07
0.000298215
1.90881e-05
0.000181217
0.000163773
7.70044e-05
-0.000257269
-0.000159242
0.000310908
0.000250721
-0.000108677
-0.000235145
-1.83681e-05
0.000253513
-0.000204372
-0.000126498
0.000330903
-6.10402e-06
-0.000229125
0.000235229
-2.28892e-05
-0.000178161
-0.000286814
-8.58398e-05
6.22732e-06
-0.000300519
-0.000212295
0.000329671
-0.000115444
0.000281597
0.000288205
-5.16322e-05
0.000271993
-1.57081e-05
-0.000187964
-1.44246e-05
0.000202182
0.000297737
3.20886e-07
-0.000298045
-0.000269173
-3.25423e-05
-0.000218821
0.000247605
-2.52131e-05
0.000310401
-0.000285216
0.000182801
7.81514e-06
-0.00019057
-3.48322e-05
0.000218248
-0.000301053
0.000275809
0.000292901
5.35039e-06
-0.000298448
0.000157445
0.00011886
-0.000276305
0.000287219
5.42624e-06
-0.00029304
-0.000238152
0.000113529
0.000124901
-0.000281817
0.000295529
0.000302513
-0.000156857
-0.000145657
0.000207005
-0.000203897
-0.000232009
-0.000121156
-0.000155009
-4.00861e-06
-0.000293972
0.000298172
-1.0136e-05
0.000276249
0.000292507
-2.17349e-05
-0.000269187
-0.000263064
2.86202e-05
0.000234113
0.000271433
-0.000267569
0.000249621
2.95121e-05
0.000314588
-9.71746e-06
-0.000304908
4.96924e-05
0.000158174
-0.000207577
-0.000101943
0.000198611
-9.67152e-05
0.000252617
-2.91201e-05
-0.000223497
4.53713e-07
0.0002916
-0.000176739
-3.19549e-05
0.000207687
-2.47686e-06
0.000290107
-9.33244e-05
0.000246933
-0.000255417
-5.26402e-06
0.000121184
0.000181329
1.34121e-05
0.000241557
-0.000254969
0.000236097
1.34961e-05
-0.000249593
0.000249509
-0.000242929
0.000256425
6.34678e-05
-0.000202306
0.000139204
-0.000212955
0.000115477
-0.000206784
0.000297244
1.41229e-06
-0.000298626
0.000253849
2.22881e-05
0.000268493
-0.000216441
-5.20522e-05
0.000225518
-0.000246849
2.13305e-05
0.000257909
1.40841e-05
5.7941e-05
0.000294301
0.000267186
-3.89594e-05
-0.000228226
0.000173965
1.274e-05
0.000240297
-0.000253037
0.000195392
-0.000114547
-7.98148e-05
-0.000206749
2.1439e-05
-1.3254e-06
-0.000297953
0.000299068
0.000227174
-0.000170916
-5.41843e-05
0.000344575
-4.12856e-05
0.000275969
-0.000135829
2.31561e-05
0.000238337
-0.000261493
-0.000231141
0.000254297
-2.66844e-05
-0.000229721
0.000256426
0.000157296
-0.000166202
-7.43323e-05
-0.000164735
-0.000261723
4.14346e-05
0.000220288
-3.17521e-05
-0.00022997
7.48649e-06
0.000261717
-3.25193e-05
-0.000229198
1.67474e-05
0.000122038
-0.000187038
0.000308785
-0.000171397
0.000262319
-3.57923e-05
-0.000226526
-0.000318871
0.000174352
-0.000102046
-0.000228453
-6.90203e-05
2.18783e-08
-0.000299063
0.000299697
-2.81662e-05
0.000188182
-0.000154425
0.000307859
6.83998e-06
0.000250097
-0.000248249
-1.84801e-06
-0.000175231
6.13997e-05
0.000260279
-3.0726e-05
-0.000229532
0.000197345
-0.000250769
5.34242e-05
0.000254206
-0.000231206
-2.29991e-05
-0.000252337
0.000240017
0.000145103
0.000102901
-0.000101864
-0.000170269
0.000132496
-0.000261885
-0.000290249
0.000242201
4.80481e-05
0.000216808
3.12481e-05
-0.000248056
-0.000233505
-9.87581e-06
0.0002473
0.000326976
-2.3073e-05
0.000263996
-3.42721e-05
-0.000229724
0.000144773
-0.000233096
9.13524e-05
3.63259e-05
-0.000265637
0.000229311
-0.000253905
0.000121296
0.000249817
-5.24722e-05
0.000294673
-0.000154253
-0.000140421
0.000122248
-0.000289157
1.53441e-05
0.000237665
-0.000253009
-0.000262031
3.54705e-05
0.00022656
-2.7226e-06
-3.77917e-05
-0.000224239
0.000248519
-0.000272222
-0.000264649
3.44737e-05
0.000230175
0.000193257
0.000101416
-0.000149941
0.000290137
-0.000170746
-3.80216e-05
0.000207224
-1.81721e-05
0.000263201
-0.000292601
0.000309608
0.000120792
0.000106371
0.000261325
-0.000261325
0.000307206
-2.16947e-05
-0.000287133
5.32002e-07
0.000248949
0.000254857
1.65761e-05
0.000309391
-0.000276219
-3.31511e-05
-2.26336e-05
0.000266577
-0.000243943
3.00077e-05
-0.000260519
0.000230511
-0.000252139
0.000229506
0.000327182
3.11501e-05
-0.000260598
0.000229447
0.000276809
-3.16961e-05
-7.29299e-06
-0.000293846
0.000300178
0.000270564
3.8935e-05
0.000230245
-0.000266617
3.63721e-05
0.000199866
-0.000202433
-0.000258301
0.000238533
1.97681e-05
0.000169762
-0.000257245
8.74835e-05
-0.000207236
0.000163241
-0.000249145
8.59043e-05
-0.000266169
0.000224813
4.13562e-05
0.000253073
-2.78797e-05
-0.000225194
0.000180439
4.45248e-05
-0.000234837
-2.29601e-05
0.000257797
-0.000236377
-2.28761e-05
0.000259253
-1.94265e-05
0.000255969
-0.000236542
-0.000259345
0.000239919
-3.35198e-05
0.000179217
-0.000235929
-2.24001e-05
0.000258329
-0.00025484
0.000229192
2.56481e-05
2.94001e-06
0.000211289
-0.000214229
-0.000267031
3.79849e-05
0.000229046
0.000270677
4.48002e-06
4.15699e-05
0.000154416
-0.000200988
-3.31195e-05
0.00024993
-2.10077e-05
0.000218597
9.73004e-05
0.000248192
-0.000216949
0.000277669
-0.000279153
0.000277747
-0.000282351
-1.84997e-05
0.000258601
-0.000240101
-0.000261644
0.000243145
3.04467e-05
-0.000201484
-2.95692e-05
-0.000207438
0.000234178
0.000315379
-0.00028793
-2.75856e-05
0.000261297
-3.11081e-05
-0.000230189
3.28739e-05
-0.000262362
0.000229488
-0.000229853
0.000259645
-2.97921e-05
0.000325822
-1.7667e-05
0.000147009
-0.000211918
0.000256929
-0.000109956
-0.000286308
0.000287445
0.000241977
-6.41202e-06
-0.000235565
0.000228537
-0.000182842
-3.75019e-05
0.000224344
2.87391e-05
-0.000206212
-0.000239989
0.000260317
-2.03281e-05
-0.000104855
0.000190506
-8.76956e-05
3.05243e-05
-0.000202647
0.000240169
-0.000263424
2.32552e-05
-0.000115584
0.000258861
-0.000243993
0.000265721
-2.17281e-05
-0.000238953
0.000232541
0.000258626
-0.000245105
-1.35213e-05
0.000264349
-2.46681e-05
-0.000246317
-0.000274058
-1.0615e-05
0.000299678
-5.3814e-05
-8.41102e-06
0.000293539
-0.000282952
-0.000166881
0.00020182
0.000225544
1.79456e-05
-0.000247123
0.000328609
-0.000328578
0.000260955
-0.000245018
-1.59377e-05
-0.000301789
-6.43018e-07
0.000305008
9.79614e-06
3.78653e-05
0.000171462
-0.000211775
0.000213269
-3.53658e-05
-0.000178574
0.000278054
-0.000255789
-2.22648e-05
-0.000208794
3.13782e-05
3.15421e-05
-0.000261891
0.000230348
0.000285268
-0.000292178
2.44721e-05
-0.000259617
-0.000257965
1.87881e-05
0.000266057
-1.64361e-05
0.000151173
-0.000267625
0.000116452
0.000298814
-4.39196e-06
0.000238617
-7.53763e-05
2.12521e-05
0.000177045
-0.000198297
-0.000183877
0.000205129
-0.000236275
0.000257219
-2.09441e-05
0.000261462
-3.31689e-05
-0.000228293
-0.000197009
-5.21362e-05
0.000251581
-1.48401e-06
8.8523e-06
-0.000265072
0.000256607
-0.000342328
0.000235861
0.000106289
0.000266371
-0.000236811
-2.95597e-05
0.000306862
-0.00031467
7.82389e-06
-2.57041e-05
-0.000229097
0.000254801
0.000261493
-7.64403e-06
1.0101e-05
-0.000210176
0.000262411
-3.19033e-05
-0.000230508
-6.90483e-05
-0.000260653
-0.000194685
0.000248025
-5.33402e-05
-0.000266533
0.000249985
1.65481e-05
-0.000317966
1.66784e-05
-1.7284e-05
0.000296519
-0.00027928
-0.000276221
1.65481e-05
0.000249537
-0.000171169
6.57017e-05
0.000273604
1.48081e-05
-0.000288742
-0.000316015
0.000307806
8.20714e-06
3.46641e-05
-0.000263649
0.000228985
-1.74828e-05
0.000281062
-0.000315232
1.63964e-05
-0.000176541
-7.42283e-05
-0.000233582
0.000202976
-2.16721e-05
-0.000216469
0.000238141
-0.000314976
0.000295946
1.88922e-05
-0.000132916
0.000274097
-0.000141631
-8.36588e-06
3.31521e-05
-0.000263453
0.000230301
-0.00020308
2.47504e-05
0.00017774
0.000221522
0.000281477
-0.000281381
1.80117e-07
-0.000236993
-2.20921e-05
0.000224813
-0.000202721
0.000139273
0.000143753
-0.000278517
0.000199957
-5.68386e-05
0.000308235
-1.06433e-05
0.000209242
-0.000268787
2.92853e-05
0.00022306
-0.000252345
-0.000323602
0.00013922
0.000296671
2.92716e-05
1.95651e-05
-0.000224355
-2.77845e-05
-0.000136496
-0.000132936
-0.000323856
0.000113181
0.000242873
2.56201e-05
0.000218765
-0.000224869
1.09627e-05
-0.000288174
0.00027634
-0.000242612
0.000270699
-2.71315e-05
0.000281303
-0.000281762
0.000287757
-7.75204e-05
-8.86642e-06
0.000290168
-1.87881e-05
0.000247101
-0.000228313
0.000281388
-0.000290271
-5.64094e-06
-0.000283941
0.00028959
0.000282001
-0.000270041
0.000284527
0.000226314
2.67597e-05
-0.000306056
0.000314452
-8.4636e-06
0.000246673
-2.23645e-05
0.000225249
2.54148e-05
-0.000268913
0.000246057
-2.05381e-05
-0.000259401
3.02849e-05
0.000229116
0.000178305
7.64963e-05
1.02697e-05
0.000281757
-0.000292432
-0.000238141
-2.88401e-05
0.000266981
2.51441e-05
-0.000263285
0.000284117
-0.000162317
-0.000232177
0.000261129
-2.89521e-05
-0.000234697
0.000260709
-2.60121e-05
1.50263e-06
0.000279982
2.45001e-05
-0.000259197
2.38001e-05
-0.000255977
0.00027426
-0.000243003
-3.1342e-05
0.000317787
-9.98633e-06
-0.000307885
5.66841e-07
-0.000255753
1.1816e-05
0.000243937
-1.55077e-05
-0.000261185
0.000228066
-0.000245337
0.000270145
-2.48081e-05
-0.000263229
1.49801e-05
-2.35603e-05
0.000286435
-0.000262934
2.13641e-05
-0.000266701
-0.000241511
-2.1376e-05
3.27551e-05
-9.0432e-05
0.000260194
0.000280876
-0.000286479
5.05122e-05
0.000237693
0.000282311
-0.000281809
-0.000243181
-2.39401e-05
0.000267121
-0.000260894
7.34723e-06
-0.000295512
1.95188e-05
0.000276276
-0.000268717
2.55361e-05
-8.06879e-06
0.000290662
-0.000268326
0.000243548
2.47773e-05
-0.000232513
0.000210841
0.000279631
-0.000287884
-6.16002e-07
0.000260289
-0.000259673
-0.000301856
-1.61149e-05
-0.000264573
2.35481e-05
-0.00024417
-2.41555e-05
-3.43281e-05
-0.000297819
0.000293873
0.000286674
-0.000158327
0.000295836
-0.000289916
2.30152e-05
4.88063e-06
0.000262451
-0.000255151
-7.17198e-06
0.000307455
-2.0276e-05
-0.000287289
5.96922e-05
-0.000246765
-2.19521e-05
-0.000356411
0.000241842
0.000285294
-0.000281066
2.33801e-05
-0.000186597
-1.56309e-05
-0.000306381
2.56843e-05
0.000280849
-0.000197227
0.000311353
-0.000114081
0.000259841
-0.000238533
-2.13081e-05
-0.000291612
2.94001e-05
0.000222097
-0.000251497
-0.000165071
0.000144824
-0.000167954
0.000251441
-0.000238029
-1.34121e-05
-0.000263873
3.40201e-05
-2.23161e-05
-0.000269837
0.000251469
0.000230427
3.12901e-05
-4.62687e-05
0.000203162
0.000232619
-0.000260499
-1.73773e-05
-3.45503e-06
0.00024483
-0.00024168
-0.000293672
-0.000237049
0.000265189
-2.81401e-05
0.000230096
3.22225e-05
-0.000268521
2.55921e-05
-0.000239905
-2.86161e-05
0.000228954
-0.000260706
-0.000282516
4.73202e-05
-0.000242005
0.000292899
-0.000283218
-0.000288625
1.30848e-05
0.000275873
-4.4838e-06
0.000217602
0.000228551
-0.00026107
0.000296885
-0.0001309
-0.000165985
0.000241472
-0.000261431
0.000270598
-0.000226213
-1.76681e-05
-0.000164922
0.000306996
-0.000142883
2.49649e-05
0.000222662
-0.000247627
-0.000195018
0.000194881
-0.000283718
0.000282353
6.97013e-06
-0.000290681
-0.000302485
0.000146693
0.000155793
0.000259995
-0.000239359
-2.06361e-05
-0.000215741
0.000193649
0.000262016
4.28562e-07
0.000257293
0.000232526
2.16798e-05
-0.000295133
-6.20761e-05
1.01852e-05
0.000237001
-0.000253131
1.68769e-05
-0.000230917
-2.37161e-05
0.000254633
-0.000242295
0.000263191
-2.08965e-05
8.28039e-05
0.00013539
2.01389e-05
-0.000305833
0.0002858
0.000256565
-1.80041e-05
-0.000238561
0.000243881
-0.000254017
1.0136e-05
-0.000226745
0.000207957
0.000223131
-0.000258923
-0.000244693
4.76842e-05
1.59328e-05
-0.000137717
-0.000218616
1.57921e-05
0.000245701
0.000279939
0.000294854
0.00030566
1.75356e-06
0.000249817
-0.000220417
2.51749e-05
0.000225009
-0.000250184
-0.000243178
0.000268865
-2.56873e-05
2.28201e-05
-0.000262725
-0.00010881
0.000295423
9.08207e-06
2.08181e-05
0.000261675
-0.000235103
-2.65721e-05
1.31654e-05
-0.000303724
0.000290633
0.000321789
-3.09907e-05
-0.00029073
0.000249733
1.63241e-05
0.00030615
-0.000293037
-0.000230448
-0.000112337
9.63204e-06
0.000250657
-4.9129e-05
-0.00020239
0.000251519
2.20333e-05
0.000246832
-0.000241686
-2.29629e-05
0.000260737
-2.24001e-05
0.000287872
-0.000268023
2.63369e-05
2.68241e-05
-0.000257965
0.000210617
-0.000207677
2.58161e-05
-0.000262865
0.000281308
0.000121744
-0.000256173
0.000134429
1.63809e-05
3.77234e-05
0.000155874
-0.000195803
-0.000239485
-2.85377e-05
4.07196e-05
0.000168053
-0.000208352
-0.000246691
0.000271066
-2.43747e-05
0.000209866
-0.000248826
1.98857e-05
1.7313e-05
-0.000173144
-3.00909e-05
0.000226701
-0.000257409
-2.88401e-05
0.000244245
-0.000215405
-2.16161e-05
0.000242985
-0.000221369
0.000201657
-0.000250786
-0.000273817
-0.000232905
-2.55081e-05
0.000258413
0.000241234
2.98318e-05
-0.000215364
-2.35027e-05
0.000238536
-2.18821e-05
-0.000224967
-0.000239345
6.28042e-05
0.000259004
-0.000229718
4.75106e-05
-0.000249901
-3.43393e-05
0.000257694
-0.000223354
0.000205675
-0.000240014
0.000261689
-1.1956e-05
-6.06764e-05
-0.000229572
-0.000219345
-1.88647e-05
0.000238586
0.000247109
5.3175e-05
0.000212448
-0.000265623
-0.000261107
0.000177353
-0.000231757
5.44042e-05
6.38777e-05
0.000136487
0.000259457
-0.000240915
-2.47224e-05
-0.000265385
0.000227165
3.82201e-05
-2.87813e-05
-0.000222158
0.00025094
-0.000284453
0.000264161
0.000234501
3.61761e-05
2.18821e-05
0.000234087
-0.000307217
0.000151089
0.000156129
0.000169369
-5.39313e-05
0.000254045
-0.000115192
2.56901e-05
0.000217446
-0.000243136
-0.000286287
0.000286105
9.27025e-06
0.000257377
-0.000245953
0.000208937
3.70161e-05
0.000254832
0.00024888
-1.97486e-05
-0.000246815
-2.02161e-05
-0.000263019
2.0724e-05
-0.000269215
2.24001e-05
2.79601e-05
0.000220024
-0.000247984
0.000242481
-0.000274597
1.32721e-05
0.00024736
-1.34839e-05
1.35906e-05
-0.000247795
-0.000328291
0.000123905
-0.000233135
-2.62109e-05
-0.000252113
0.000252113
0.000259782
-0.000144217
-1.85415e-05
-0.000277462
0.000296729
0.000274267
0.000258749
-0.000135913
0.000224113
2.39205e-05
0.00023468
7.80978e-05
-0.00034087
3.78798e-05
0.000258962
1.76364e-05
-0.000248843
-3.00917e-05
0.000207453
-3.01001e-05
0.000259701
2.95429e-05
0.000218353
-0.000247896
-3.05014e-05
-4.09782e-05
-0.000217818
0.000258797
-0.000233423
-2.14173e-05
3.74177e-05
-0.000199567
0.000160542
-3.30877e-05
0.000221671
-0.000255943
-0.000281888
-8.3913e-06
0.000290241
-0.000196394
0.000163274
0.000166349
8.16763e-05
1.2842e-05
-0.000294676
0.000235075
2.59446e-05
-0.000261019
-0.000196759
-1.28983e-06
0.000232743
-0.000264287
3.15449e-05
-8.42803e-06
-0.000217029
0.000225457
-0.000165039
0.000201283
-0.000249985
-3.46025e-05
0.000256274
0.000218076
-0.000252679
-0.000246289
0.000272245
-2.59561e-05
0.000253547
2.78321e-05
-0.000232062
-2.95821e-05
-0.000298382
0.000316656
-1.82632e-05
2.3421e-05
0.000212462
-0.000250254
-0.000267233
2.09441e-05
-2.12801e-05
-0.000245953
-3.61481e-05
0.00024861
-0.000290043
-1.36249e-05
0.00022082
-0.000256968
0.000247524
-0.000251091
1.43175e-06
2.80002e-06
0.000181413
-0.000184213
0.000255294
0.000234529
2.67681e-05
-2.62361e-05
0.000245001
-0.000218765
3.36001e-05
0.000216609
-0.000250209
0.000244861
2.73841e-05
0.000306545
-0.000143949
-0.000162597
1.53645e-05
0.000241712
-0.000257972
0.000271013
-0.000113568
0.000225569
-0.000256677
-0.000241104
0.000104994
-0.000265469
7.16803e-06
-0.000241635
-2.75801e-05
-0.000241361
-2.48081e-05
0.000310342
-2.75203e-05
-7.67483e-05
0.000243097
-1.1452e-05
-0.000215601
0.000224281
-8.68003e-06
0.000255193
-7.68883e-05
3.40761e-05
-0.000192212
0.000158289
-0.000265245
-1.40001e-07
-4.14962e-05
3.96168e-05
0.000155162
-0.000200079
0.000195597
-0.000161033
0.000257041
-7.05603e-06
0.000251151
-0.000218277
-1.82642e-05
-2.1128e-05
0.000271547
-9.43569e-05
-0.000182982
-1.42801e-05
-0.000191913
0.000206193
0.000258665
-1.53553e-05
-0.00024331
1.98101e-05
0.000238855
-0.000280005
-8.06982e-06
3.66315e-05
-0.000197117
0.000164288
1.36921e-05
0.000247997
-0.000159495
0.00020059
-1.95189e-05
0.000248711
3.28879e-05
0.000192421
-0.000220471
-4.17202e-06
-2.49389e-05
0.000265108
-0.000231955
-3.14693e-05
0.000296867
-0.000281593
-1.53843e-05
1.63717e-05
-0.000237659
0.000221288
-0.00010514
0.000226885
1.93119e-05
-0.000305243
0.000285893
2.52001e-05
-2.79441e-05
2.69165e-05
0.000308737
-0.000289509
0.000238891
1.97345e-05
2.15601e-06
0.000231617
-0.000233773
-0.000310195
2.55836e-05
0.00028454
-0.000162177
-0.000144145
0.000209178
-0.000250156
-0.000167351
0.000241924
1.90317e-05
0.00025577
-4.13534e-05
0.000250531
0.000214498
-0.000255851
0.000318526
-0.000318686
-1.08541e-05
0.000286424
-0.000276357
-0.000302959
1.96554e-05
0.000283478
4.20842e-05
-0.000286413
-3.89669e-05
0.000252483
2.62921e-05
-2.20696e-05
0.00030717
-0.000285192
2.43321e-05
3.9133e-05
0.000157755
-0.000195896
0.000249294
-0.000219751
2.83277e-05
-0.000261633
4.36802e-06
-1.99812e-05
0.000306834
-0.000286556
-0.000250987
-0.000266673
3.07441e-05
0.000252141
-0.000236741
-1.54001e-05
1.2264e-05
0.000239877
-0.000275141
-1.28261e-05
0.000255697
-6.53471e-06
0.000316049
-1.18219e-05
0.000299038
-0.000287281
-4.82968e-05
0.000247437
-0.000235621
0.000257601
-1.99361e-05
0.00012853
8.61084e-05
-0.000206948
0.000229589
3.03493e-05
0.000226759
-0.000258662
3.71393e-05
0.000271157
-0.000288858
1.68425e-05
0.000251273
-0.000239093
-1.31321e-05
0.000252225
-2.91201e-05
-0.000257265
2.56481e-05
0.000231617
-0.000228005
-2.92601e-05
0.000259765
-0.000233571
-2.61941e-05
0.000258721
-0.000266276
2.65322e-06
0.000289959
1.23287e-06
-0.000290236
0.000249839
-0.000234578
-1.85921e-05
0.000308722
-0.000300755
-8.01454e-06
0.000250393
-0.000102181
-0.000266897
2.56761e-05
0.000241221
-3.48881e-05
-0.000232009
-0.000266393
2.51161e-05
0.000241277
-1.21784e-05
-0.000268034
0.000279803
-3.45241e-05
-0.000231869
-0.000261731
1.93602e-05
-0.000266281
2.43881e-05
0.000241893
-0.000283865
-2.1788e-05
-0.00030628
2.76475e-05
0.000278606
-3.34041e-05
-0.000232877
-0.000171294
-0.000258133
2.94001e-05
0.000228733
0.000307428
-0.00030722
-0.000195805
0.000209049
-3.29281e-05
-0.000225205
0.000197584
-0.000279288
8.1749e-05
0.000283618
2.23441e-05
-0.000301953
1.76961e-05
0.000286447
-0.000281294
-4.99346e-06
-0.000257125
0.000231617
2.55081e-05
0.000172522
2.93214e-05
-0.000211566
-0.000266953
2.81681e-05
0.000238785
-0.000227361
-2.97641e-05
-3.67361e-05
-0.000230217
0.000276444
0.000297541
1.91298e-05
-0.000276097
-3.15561e-05
0.000307819
-0.000258679
-1.09179e-05
0.000297415
-0.000286959
1.50219e-05
-0.00030183
0.000286912
-0.000230609
-0.00030721
0.000287484
0.000263005
-2.55572e-05
-0.00028075
1.36081e-05
0.000163536
0.000230641
1.94482e-05
-0.000248301
-0.00019687
0.00015811
0.000236738
1.31517e-05
-0.00024989
-0.00025833
2.66093e-05
0.000231721
-1.09228e-05
0.000247661
5.74002e-06
0.000246877
-3.19817e-05
-0.000226348
0.000299217
-0.000285635
-1.38197e-05
0.000228024
-0.000226666
0.000289451
0.000237685
1.98521e-05
-0.000257537
-1.24236e-05
0.000250108
0.000246636
1.50389e-05
-0.000305593
1.53812e-05
0.00024448
2.18905e-05
3.23643e-05
-0.000196512
-0.000287507
-1.778e-05
-0.000182869
0.000295177
-0.000146648
0.000178115
-3.2481e-05
3.11464e-05
-0.000201402
0.000175667
-0.000161952
0.000259149
-0.000239236
-1.99137e-05
0.000260078
-0.000274286
-0.000239632
0.000231937
-2.187e-05
0.00030125
-0.000279336
0.000308107
-0.000293061
0.000242117
1.77241e-05
-0.000224975
0.00024443
-1.94545e-05
1.61001e-05
-0.000241075
-7.00003e-06
0.000260989
-0.000297149
4.85496e-06
0.000292252
-0.000174497
0.000160217
-1.74105e-05
-6.26932e-06
-0.000290993
-1.67706e-05
-0.000284968
4.28402e-06
-0.000299892
0.00013476
-0.000257474
2.37331e-05
0.000233713
0.000238197
1.32441e-05
-3.08056e-05
-0.000226651
-3.31136e-05
-0.000292308
2.20974e-05
-0.000224302
0.000200388
0.000254969
-0.000233465
-2.15041e-05
-0.000195422
0.000213053
-0.000187101
-7.34547e-06
0.000202892
0.000134882
0.000133561
3.97413e-06
0.000271074
0.000279894
-0.000305447
3.49719e-06
0.000243903
-1.98358e-05
0.000298693
-0.000278861
-0.000302063
0.000287363
1.47628e-05
-0.000258301
0.000230077
2.82241e-05
-2.64041e-05
-0.000231897
0.000302434
-0.000302311
0.000267438
-2.00607e-05
0.000304329
-0.000284407
0.000286441
-3.93076e-07
-0.000256873
0.000256873
-0.000268207
0.000295869
-0.00014093
-6.49846e-05
-6.7691e-06
0.000295262
-0.00028806
-0.000297699
0.000290582
0.000291459
-0.00027859
0.000290689
-0.000305639
1.48034e-05
3.46701e-05
-0.000243458
0.000217334
2.30648e-05
-1.45021e-05
-0.00024291
0.000226907
-1.43427e-05
0.000298281
-0.000284039
0.000263481
-1.96001e-05
0.000254224
-0.000235464
-1.87601e-05
-3.10053e-05
-0.000273792
0.000304808
1.43942e-05
-0.000297363
0.000282947
-1.45881e-05
0.000233465
-0.000218877
0.000208778
-0.000295543
0.000283368
-1.91789e-05
0.000304457
-0.000285283
0.00025102
-2.6937e-05
0.000297355
-0.000270612
-0.000295727
0.000268741
1.07156e-05
0.000244749
-0.000255465
0.000305219
-0.000312089
6.76747e-06
1.74562e-05
1.5104e-05
0.000286465
-0.000301504
6.35392e-06
0.000284059
2.39606e-06
-0.000318527
-0.000289552
0.000303885
-0.000242481
0.000243657
8.45603e-06
-0.0002264
0.000242772
-0.000293299
0.000274034
0.000284319
-0.000147138
-8.1764e-05
0.00029424
1.44768e-05
3.15114e-05
-0.000197123
0.000162097
-0.000274591
0.000257293
-0.000219535
0.00024982
0.000243411
1.92865e-05
-0.000262697
0.000236019
2.31309e-05
-0.000301432
0.000283057
0.000312177
-1.79108e-05
0.000237945
-0.000257069
1.91241e-05
-0.000222494
0.000247459
0.000294187
1.80276e-05
-0.000168632
-1.45433e-05
0.000298163
-0.000283526
-0.000141773
-0.000266415
0.000159993
0.000106423
-0.000309128
0.00029543
1.36555e-05
-0.000258699
0.000241826
1.68729e-05
-0.00015253
0.000151006
-0.000306843
0.000288836
1.78648e-05
-0.00022106
0.000184929
-9.69084e-06
0.000253101
2.0522e-05
1.74752e-05
-0.000304298
0.000286604
-0.000301069
-6.99036e-06
0.000308179
-0.000249229
0.000220109
-0.000201153
-8.52603e-05
-0.000272388
0.000253365
0.000303791
-0.000286346
-0.000192439
1.76829e-05
1.50076e-05
0.00028458
-0.000299575
-8.80603e-05
0.000239233
-0.000303395
1.95759e-05
0.000283983
-0.000209121
-2.56026e-06
-0.00029807
-0.000169001
2.05297e-05
0.000302896
-0.000288436
-1.44366e-05
-0.000168608
-0.000299196
-0.000174129
-2.24456e-05
0.000243528
0.000289859
1.71954e-05
0.000252869
5.75556e-05
-0.000284844
-0.000247213
-0.000271163
-2.33511e-05
-0.000274715
0.000300492
-0.000262395
0.000282415
-0.000170664
-4.17872e-05
0.000215525
0.000197569
1.56521e-05
-0.000213221
-1.24758e-05
-0.000285693
0.000298173
1.83597e-05
1.85928e-05
-0.000305474
0.00028691
0.000253345
-1.71361e-05
-0.000236209
1.89391e-05
-0.000304648
0.000285686
2.03561e-05
0.000232989
0.000216385
-2.46121e-05
-0.000191773
1.57679e-05
0.000282767
-0.000298617
-0.000249979
0.000117526
-0.000303732
1.86415e-05
0.000285213
0.000215491
-5.13388e-05
-0.000296762
1.27394e-05
0.000282445
0.000255837
-2.19801e-05
-0.000233857
-0.00030359
0.000106038
0.000234529
1.70521e-05
-0.000251581
0.000279989
1.67812e-05
0.000303979
-0.000285074
1.76827e-05
-0.000299513
0.000233512
1.84916e-05
-0.000252004
-1.90297e-05
-1.42216e-05
0.000298316
-0.000284069
-0.000280338
0.000299784
-0.000278404
0.000291873
-0.000304235
1.24458e-05
0.000249741
-1.62291e-05
1.14908e-05
0.000250041
-1.55121e-05
0.000298834
-0.000283113
3.95922e-05
-0.000236049