/*--------------------------------*- C++ -*----------------------------------*\
  =========                 |
  \\      /  F ield         | OpenFOAM: The Open Source CFD Toolbox
   \\    /   O peration     | Website:  https://openfoam.org
    \\  /    A nd           | Version:  12
     \\/     M anipulation  |
\*---------------------------------------------------------------------------*/
FoamFile
{
    format      ascii;
    class       volVectorField;
    location    "2.48";
    object      U;
}
// * * * * * * * * * * * * * * * * * * * * * * * * * * * * * * * * * * * * * //

dimensions      [0 1 -1 0 0 0 0];

internalField   nonuniform List<vector> 
22702
(
(2 -4.83005e-13 0)
(2 2.31465e-14 0)
(2.04272 -0.0931883 0)
(2 -1.13331e-09 0)
(1.97663 0.0367048 0)
(2 7.47333e-14 0)
(1.83133 0.228592 0)
(2 -1.39767e-13 0)
(2 -3.52175e-13 0)
(2.07395 -0.266737 0)
(1.82991 0.228595 0)
(1.82857 0.227431 0)
(2 -2.73204e-13 0)
(1.83147 0.229582 0)
(2.04155 -0.0800845 0)
(2 -1.58542e-13 0)
(2 -1.72271e-13 0)
(2 -2.98518e-14 0)
(1.82994 0.22836 0)
(2 -7.27748e-14 0)
(1.83177 0.229052 0)
(2 -2.67207e-13 0)
(1.83043 0.228544 0)
(2.09849 -0.264803 0)
(1.83066 0.22866 0)
(2.12674 -0.26553 0)
(2 -1.13944e-13 0)
(1.83136 0.228951 0)
(2.11248 -0.269414 0)
(2.09743 -0.263826 0)
(2 -3.53487e-14 0)
(1.82658 0.22813 0)
(2 2.18537e-14 0)
(2 -3.38349e-14 0)
(2 -6.02069e-14 0)
(1.84442 0.214994 0)
(1.82957 0.228877 0)
(1.83017 0.228259 0)
(2 -1.99497e-13 0)
(2 -2.83827e-13 0)
(2.08581 -0.271388 0)
(2 1.66796e-14 0)
(1.91564 0.124012 0)
(2 -2.30455e-13 0)
(1.83118 0.228697 0)
(2 -1.77045e-13 0)
(2 -2.20089e-13 0)
(2 1.21253e-13 0)
(2 1.80579e-13 0)
(2.10985 -0.262061 0)
(2 5.67296e-14 0)
(2.10667 -0.264576 0)
(2 -1.91624e-13 0)
(1.83004 0.228276 0)
(2 2.24156e-13 0)
(1.82637 0.22868 0)
(2 -1.38072e-13 0)
(2 1.53639e-09 0)
(2 1.07239e-14 0)
(2 1.87685e-13 0)
(2.118 -0.260211 0)
(2 2.78304e-14 0)
(2 -1.75984e-13 0)
(2.12927 -0.269258 0)
(2 3.72189e-14 0)
(2.11129 -0.259862 0)
(2 -2.58519e-13 0)
(2 4.19883e-15 0)
(2 1.15852e-13 0)
(2.08329 -0.266698 0)
(2 -1.82302e-13 0)
(1.8315 0.22871 0)
(1.89809 0.148211 0)
(2 1.51945e-09 0)
(1.83036 0.228406 0)
(1.82037 0.236277 0)
(2.11212 -0.263184 0)
(1.82938 0.228249 0)
(2.10581 -0.263473 0)
(2 -2.72245e-13 0)
(1.83085 0.229042 0)
(2.10923 -0.261871 0)
(1.82971 0.228476 0)
(1.8306 0.228778 0)
(2 1.56256e-13 0)
(2 1.01987e-06 0)
(2 7.75067e-14 0)
(2 1.77964e-13 0)
(2.02375 -0.0441454 0)
(2.07849 -0.265506 0)
(1.8288 0.228619 0)
(2 -2.80824e-14 0)
(2 -6.67517e-11 0)
(2.13192 -0.262294 0)
(2 -4.31645e-14 0)
(1.83182 0.229026 0)
(2.13889 -0.26906 0)
(2 2.44598e-08 0)
(2 -5.84176e-14 0)
(2 -1.08714e-13 0)
(2 -1.3686e-13 0)
(1.91662 0.121356 0)
(1.8306 0.229069 0)
(2.11445 -0.265206 0)
(2 2.7026e-10 0)
(2 -1.0802e-09 0)
(1.95621 0.0678861 0)
(2 9.36526e-09 0)
(2.10928 -0.263969 0)
(2 -1.04408e-13 0)
(1.82841 0.228101 0)
(1.8299 0.228873 0)
(2 4.28611e-09 0)
(2 2.3264e-13 0)
(2.14124 -0.265217 0)
(2.14403 -0.261154 0)
(2.07755 -0.26379 0)
(2 9.34725e-14 0)
(2 -1.53854e-07 0)
(2 -8.7993e-14 0)
(2 -4.91335e-14 0)
(2 1.23106e-07 0)
(2.02986 -0.0554571 0)
(2 -1.00493e-07 0)
(1.85588 0.201188 0)
(1.97871 0.0290962 0)
(1.82994 0.228559 0)
(2 -3.77879e-13 0)
(1.82924 0.228558 0)
(1.83035 0.228716 0)
(1.83118 0.229522 0)
(1.82925 0.22867 0)
(2 -4.00469e-14 0)
(2.09556 -0.261045 0)
(2 -1.97921e-14 0)
(2.15922 -0.264021 0)
(2 3.5962e-14 0)
(2 -1.12485e-13 0)
(2 -1.2937e-13 0)
(2 -9.81417e-14 0)
(1.83058 0.228973 0)
(2 3.18574e-09 0)
(2 -7.58657e-14 0)
(2 2.01742e-13 0)
(2 3.57283e-14 0)
(1.82925 0.228664 0)
(2 7.69686e-15 0)
(1.99499 0.0121245 0)
(2 3.13002e-14 0)
(2 -1.71891e-13 0)
(2 -6.94966e-11 0)
(2 2.77703e-14 0)
(2.10988 -0.263699 0)
(2 2.27112e-14 0)
(1.99543 0.00906404 0)
(2 5.20081e-14 0)
(2.1054 -0.263571 0)
(2 2.29215e-13 0)
(2 1.4853e-13 0)
(2 -3.43741e-14 0)
(1.82881 0.229006 0)
(2 2.83179e-14 0)
(1.83169 0.229053 0)
(2.14306 -0.270402 0)
(2.109 -0.261656 0)
(1.83086 0.228623 0)
(1.83221 0.229129 0)
(2 -2.62072e-15 0)
(1.96918 0.0394978 0)
(1.90247 0.144918 0)
(2 -5.39796e-14 0)
(1.83162 0.229365 0)
(2.10584 -0.262834 0)
(1.84376 0.215838 0)
(2 3.58135e-14 0)
(2 1.88376e-13 0)
(2 1.09578e-14 0)
(2 -4.6345e-14 0)
(1.83066 0.228842 0)
(1.85885 0.192724 0)
(2 -2.81484e-14 0)
(1.82862 0.228599 0)
(2.13368 -0.267436 0)
(1.82902 0.228859 0)
(2 7.76232e-15 0)
(2.10973 -0.261953 0)
(2 -2.85373e-13 0)
(2.10312 -0.264003 0)
(2.12385 -0.261479 0)
(2.00009 -0.000167838 0)
(2 -2.35753e-13 0)
(2 -3.04634e-13 0)
(1.82881 0.229908 0)
(2 1.60078e-14 0)
(2 -2.52006e-13 0)
(1.83167 0.229264 0)
(2 1.9028e-13 0)
(1.82846 0.22835 0)
(1.82847 0.22905 0)
(2.09631 -0.269237 0)
(2 1.05945e-13 0)
(2 -2.90873e-13 0)
(2.11079 -0.266144 0)
(1.83185 0.228965 0)
(2 1.16366e-13 0)
(2 1.01134e-13 0)
(2 2.02225e-13 0)
(1.83177 0.228973 0)
(2 -2.79419e-13 0)
(2.11128 -0.264396 0)
(2 -6.12767e-11 0)
(2 8.90147e-15 0)
(1.83159 0.229032 0)
(1.83141 0.229017 0)
(1.8284 0.2282 0)
(2 4.28585e-14 0)
(1.99999 2.55231e-05 0)
(2 -1.78215e-14 0)
(2 -5.93952e-14 0)
(2 -1.64056e-13 0)
(1.83155 0.22883 0)
(2 -3.08174e-14 0)
(2.1186 -0.260704 0)
(1.8242 0.235405 0)
(1.83172 0.229164 0)
(1.82977 0.228121 0)
(2 1.90746e-07 0)
(2 1.27033e-13 0)
(2 -3.10749e-13 0)
(2.11308 -0.271073 0)
(1.83201 0.228709 0)
(1.92072 0.128877 0)
(2 -4.57577e-14 0)
(1.83052 0.229862 0)
(2.11077 -0.264158 0)
(2.11137 -0.26464 0)
(1.83104 0.229505 0)
(1.8316 0.22785 0)
(2 -6.47804e-14 0)
(1.83007 0.233007 0)
(2.09692 -0.280485 0)
(1.85087 0.206705 0)
(2 7.23013e-15 0)
(2 -3.4729e-13 0)
(2 -2.33503e-13 0)
(2 -1.85295e-13 0)
(1.83185 0.229037 0)
(2 2.63639e-13 0)
(1.90268 0.142604 0)
(1.98339 0.0276689 0)
(2 -3.60508e-13 0)
(2 -2.11212e-13 0)
(1.83177 0.229257 0)
(2.15142 -0.261161 0)
(2.08947 -0.157692 0)
(2 -8.52303e-14 0)
(1.83164 0.228004 0)
(2.10666 -0.263163 0)
(1.82885 0.233156 0)
(2 -1.18018e-14 0)
(2 8.40176e-14 0)
(2 -7.34938e-14 0)
(2 -2.80035e-14 0)
(2 -3.39706e-13 0)
(2 -1.8543e-13 0)
(2 -2.48079e-13 0)
(2.11679 -0.261289 0)
(2.07986 -0.159811 0)
(2.11024 -0.26461 0)
(1.8313 0.228887 0)
(2 -5.3703e-14 0)
(2 2.54358e-13 0)
(2 -1.82446e-07 0)
(2 -2.62576e-13 0)
(1.84371 0.209528 0)
(2 -1.12095e-07 0)
(2.11244 -0.26075 0)
(2 -1.87851e-13 0)
(2.11636 -0.279109 0)
(2.10838 -0.266463 0)
(1.83226 0.228813 0)
(2.10532 -0.26528 0)
(1.83166 0.229029 0)
(2 1.77157e-15 0)
(2 -2.87957e-13 0)
(2 -2.07603e-13 0)
(2.00087 -0.00161657 0)
(2.11399 -0.26253 0)
(2.09148 -0.287577 0)
(2 -3.06739e-07 0)
(2 -1.45481e-07 0)
(2.11648 -0.282211 0)
(2 2.40561e-09 0)
(1.83036 0.228808 0)
(2.11175 -0.269995 0)
(2 -5.28073e-14 0)
(2 -3.5097e-11 0)
(1.8305 0.228857 0)
(2.1076 -0.276008 0)
(2 3.34976e-13 0)
(1.8312 0.228356 0)
(2.1167 -0.263073 0)
(1.83184 0.229282 0)
(2 -3.97951e-13 0)
(2.11227 -0.281677 0)
(2.00081 -0.0014493 0)
(2 -1.72102e-14 0)
(2 2.61797e-06 0)
(2 -1.2082e-14 0)
(2.11178 -0.26373 0)
(2 1.22075e-13 0)
(2 -1.73839e-07 0)
(2 3.09584e-07 0)
(1.99999 1.22652e-05 0)
(1.99263 0.00943732 0)
(1.89608 0.150508 0)
(2 -2.69207e-11 0)
(2.13424 -0.246329 0)
(2 -1.67748e-11 0)
(2 1.64238e-06 0)
(2 -3.02077e-14 0)
(2 5.53488e-14 0)
(2 -3.17138e-14 0)
(2 -1.36332e-13 0)
(2 -1.50376e-12 0)
(1.82946 0.228765 0)
(2 2.0262e-14 0)
(1.8286 0.229785 0)
(2 1.7367e-13 0)
(2 1.12358e-13 0)
(2 -1.31524e-13 0)
(2.11491 -0.261214 0)
(2 1.81773e-13 0)
(1.82989 0.228854 0)
(2.10168 -0.267464 0)
(2 -5.22734e-14 0)
(1.88417 0.170337 0)
(2 5.90518e-14 0)
(2 -4.11108e-13 0)
(1.83039 0.228542 0)
(2 2.14763e-13 0)
(2 -1.18818e-08 0)
(2 1.08612e-13 0)
(1.82945 0.22795 0)
(2 5.92179e-10 0)
(2 -5.80408e-14 0)
(1.83426 0.229861 0)
(1.83069 0.227953 0)
(2 3.33615e-14 0)
(1.96364 0.055013 0)
(2 -1.97991e-14 0)
(2 4.84709e-14 0)
(2.15864 -0.264078 0)
(2 -9.23128e-14 0)
(2 -6.81142e-14 0)
(2 -1.36043e-14 0)
(2.13278 -0.265289 0)
(2 -6.21599e-16 0)
(2 1.0581e-13 0)
(2 -2.06203e-14 0)
(2 1.05691e-13 0)
(2.14127 -0.255517 0)
(2 -4.51881e-14 0)
(2 2.1998e-13 0)
(2 -3.80534e-13 0)
(2 -3.79366e-14 0)
(2 -3.96187e-14 0)
(2.0993 -0.274866 0)
(1.99998 3.18408e-05 0)
(1.83199 0.229065 0)
(2 5.33205e-14 0)
(2 -2.25648e-05 0)
(1.83211 0.22881 0)
(1.83105 0.229114 0)
(2 2.45579e-13 0)
(2 2.38508e-13 0)
(2.09884 -0.276638 0)
(2.05696 -0.126819 0)
(1.83007 0.228819 0)
(2 -1.79652e-13 0)
(2 -4.86955e-14 0)
(2 1.23408e-13 0)
(1.83205 0.229221 0)
(2.08597 -0.268029 0)
(2 2.819e-16 0)
(1.83164 0.229146 0)
(2 1.06229e-13 0)
(2 4.84759e-14 0)
(2.0852 -0.215058 0)
(2.09295 -0.210161 0)
(2 -1.71536e-13 0)
(2.12071 -0.262489 0)
(2.1097 -0.264519 0)
(2 1.6719e-13 0)
(2 -5.31593e-14 0)
(2 -1.54819e-13 0)
(2 5.38093e-14 0)
(2 -9.38404e-11 0)
(2 -5.12386e-14 0)
(2 -8.1157e-14 0)
(1.83091 0.228763 0)
(1.95415 0.0677638 0)
(1.83292 0.219853 0)
(2.1032 -0.266491 0)
(2.03506 -0.0651728 0)
(1.83114 0.228818 0)
(2 -4.64823e-13 0)
(1.82919 0.228355 0)
(1.82951 0.228961 0)
(2.12106 -0.26529 0)
(2.08014 -0.153944 0)
(2 6.55014e-13 0)
(2.11384 -0.262339 0)
(2 3.80188e-15 0)
(1.82355 0.23639 0)
(2 -2.15307e-13 0)
(2 3.36063e-14 0)
(2 -1.4667e-13 0)
(2 4.34659e-14 0)
(1.83187 0.228983 0)
(2 -7.14261e-14 0)
(2 -8.93769e-14 0)
(2 -4.04278e-14 0)
(2 1.50586e-09 0)
(2 8.88382e-14 0)
(2 -7.44133e-14 0)
(2 -4.49854e-13 0)
(1.93896 0.0979041 0)
(1.82874 0.228947 0)
(2 5.59429e-14 0)
(1.8313 0.228949 0)
(2 8.34866e-14 0)
(2 4.57216e-14 0)
(2.10676 -0.257495 0)
(2 1.48818e-13 0)
(2 -1.12724e-13 0)
(2 -3.50759e-13 0)
(2 1.98615e-15 0)
(1.83171 0.228984 0)
(1.8712 0.183213 0)
(2 2.22565e-13 0)
(2 1.10126e-13 0)
(2.1201 -0.261223 0)
(1.83151 0.229051 0)
(1.83163 0.229004 0)
(2 -1.16022e-13 0)
(1.83166 0.229001 0)
(1.83152 0.229124 0)
(1.8314 0.229019 0)
(2 7.79789e-16 0)
(2.04953 -0.112688 0)
(2 -1.61068e-13 0)
(1.83212 0.229051 0)
(2.00769 -0.0111963 0)
(1.83134 0.228948 0)
(2 -6.76445e-14 0)
(2.11611 -0.264077 0)
(2.00037 -0.000619953 0)
(1.83033 0.229038 0)
(2 -1.72345e-13 0)
(2 -1.05608e-13 0)
(2 -6.15055e-11 0)
(2 -2.19688e-11 0)
(2.11136 -0.266661 0)
(1.832 0.228775 0)
(1.84819 0.211279 0)
(2 1.70447e-13 0)
(1.83094 0.226552 0)
(1.83208 0.229212 0)
(1.83055 0.229086 0)
(2 9.34234e-14 0)
(1.92293 0.117656 0)
(1.83002 0.228646 0)
(2 1.16821e-13 0)
(2 -2.23585e-14 0)
(1.88405 0.166533 0)
(1.97636 0.039036 0)
(1.8314 0.229115 0)
(2.0244 -0.0418598 0)
(1.83143 0.229099 0)
(2 2.4514e-15 0)
(1.83137 0.229079 0)
(1.83135 0.22888 0)
(1.83136 0.229058 0)
(1.83143 0.229047 0)
(2 -1.76386e-14 0)
(1.83631 0.233396 0)
(2.03041 -0.0539434 0)
(2.03985 -0.0712027 0)
(2 6.39007e-14 0)
(2 -3.81124e-07 0)
(2 2.677e-15 0)
(2 -2.20704e-13 0)
(1.8323 0.227551 0)
(2 -7.20541e-14 0)
(2 3.30197e-14 0)
(2 -1.01002e-13 0)
(2 8.98958e-14 0)
(2 8.67791e-14 0)
(1.83003 0.228901 0)
(2 1.64157e-13 0)
(2 1.19607e-13 0)
(2.00152 -0.00246797 0)
(1.83169 0.229014 0)
(1.85422 0.212846 0)
(2 -2.76767e-13 0)
(1.87158 0.18112 0)
(1.99998 2.61886e-05 0)
(2 -3.36887e-14 0)
(2 -4.23913e-13 0)
(1.83193 0.229247 0)
(2 5.86926e-14 0)
(2.00184 -0.00242952 0)
(1.99847 0.0045939 0)
(2 -7.16707e-14 0)
(1.83156 0.228768 0)
(2 2.34165e-14 0)
(1.83195 0.229038 0)
(2 1.71791e-13 0)
(2 6.45062e-14 0)
(1.87291 0.180254 0)
(2 9.38787e-14 0)
(1.83192 0.229515 0)
(1.99999 1.29832e-05 0)
(2 -1.87409e-13 0)
(1.83138 0.230041 0)
(2 -2.30092e-13 0)
(1.83173 0.229012 0)
(2 1.63289e-13 0)
(2 2.9674e-06 0)
(2 7.06853e-14 0)
(1.83182 0.229187 0)
(2 3.05209e-14 0)
(1.83075 0.229561 0)
(2 4.21123e-06 0)
(1.83183 0.228963 0)
(1.82978 0.228699 0)
(1.8315 0.229009 0)
(1.83099 0.228943 0)
(2 1.31713e-13 0)
(1.83107 0.228587 0)
(1.83761 0.224077 0)
(2 5.27315e-14 0)
(2.09845 -0.263605 0)
(1.84225 0.216294 0)
(1.87761 0.173092 0)
(2 -9.55967e-14 0)
(1.83184 0.229128 0)
(2 -1.04387e-13 0)
(2.15692 -0.264012 0)
(2.11995 -0.26233 0)
(2 -1.59196e-13 0)
(2 1.10534e-13 0)
(2 1.31706e-13 0)
(2 -3.89589e-13 0)
(2 2.15207e-09 0)
(2.13677 -0.262488 0)
(2 -5.94076e-14 0)
(1.83126 0.228833 0)
(1.95584 0.0620637 0)
(1.8319 0.229018 0)
(2 -4.62201e-14 0)
(2 6.98012e-11 0)
(2 -2.60105e-13 0)
(2 -2.91085e-13 0)
(2 -5.29329e-08 0)
(1.83132 0.228941 0)
(2 -3.00111e-13 0)
(1.83103 0.228194 0)
(1.8992 0.150457 0)
(2.07296 -0.153431 0)
(2 1.36321e-09 0)
(2 7.21714e-06 0)
(1.95018 0.0743774 0)
(1.95644 0.066542 0)
(2 9.92733e-14 0)
(2 -1.83727e-14 0)
(1.9386 0.0904337 0)
(2 -4.02537e-14 0)
(2.10485 -0.260769 0)
(1.83204 0.228935 0)
(1.83184 0.22895 0)
(2 -7.50807e-11 0)
(2 9.14092e-14 0)
(2 -1.28196e-13 0)
(1.83014 0.228777 0)
(2 -2.36094e-13 0)
(1.99999 1.55992e-05 0)
(1.82868 0.227656 0)
(1.83219 0.228722 0)
(2.01514 -0.0370481 0)
(2 1.19441e-13 0)
(2 1.34561e-10 0)
(2.10978 -0.261549 0)
(1.84707 0.211132 0)
(2 3.15599e-14 0)
(2 2.32751e-13 0)
(2 3.10688e-14 0)
(2 -2.89867e-11 0)
(2 -1.03582e-13 0)
(1.83167 0.229011 0)
(1.83117 0.228642 0)
(2 3.58337e-14 0)
(1.83141 0.229645 0)
(1.83016 0.230349 0)
(1.83162 0.229172 0)
(2 -1.36363e-13 0)
(2 -1.23176e-13 0)
(2 -5.6968e-11 0)
(2 -1.25636e-13 0)
(2.11572 -0.26743 0)
(1.82949 0.228848 0)
(2 -4.49393e-11 0)
(2 9.26857e-14 0)
(1.8472 0.211179 0)
(1.83194 0.228454 0)
(2 -2.07618e-13 0)
(1.84115 0.218203 0)
(1.82866 0.228702 0)
(2 -2.12613e-13 0)
(2 -2.15279e-07 0)
(2 7.68791e-11 0)
(2 1.66445e-13 0)
(2 -2.60969e-13 0)
(1.83176 0.228835 0)
(2 1.24612e-13 0)
(2 -1.63964e-13 0)
(2 -2.48377e-13 0)
(2 -9.72452e-14 0)
(1.83251 0.228573 0)
(2 1.15569e-13 0)
(1.82937 0.231242 0)
(2.11769 -0.267985 0)
(2 1.17072e-13 0)
(2.12102 -0.261248 0)
(2 1.00908e-13 0)
(2 -1.28372e-07 0)
(2 1.00109e-13 0)
(2.00106 -0.00186309 0)
(2.10777 -0.263047 0)
(2.00031 -0.000579375 0)
(2 7.80897e-15 0)
(2 -3.80706e-14 0)
(2 -1.22897e-07 0)
(1.97554 0.0368545 0)
(2 -2.31223e-13 0)
(2 3.92996e-14 0)
(2.04458 -0.0923045 0)
(2 -2.1589e-07 0)
(2 -8.48563e-14 0)
(2 1.23938e-13 0)
(2 -2.14898e-07 0)
(2 -1.72436e-08 0)
(2 -9.90421e-08 0)
(2 -3.19697e-13 0)
(2 -1.66505e-06 0)
(2.01946 -0.0426944 0)
(2 -4.11284e-07 0)
(2 -3.88879e-08 0)
(2.0009 -0.00127906 0)
(2 -1.158e-14 0)
(2.10845 -0.263987 0)
(2 -2.9464e-11 0)
(2 -3.93252e-12 0)
(2 -6.06482e-11 0)
(2 2.55408e-14 0)
(1.87328 0.180355 0)
(2 -1.064e-13 0)
(2 -1.14722e-13 0)
(2 -1.74491e-13 0)
(2 -1.6893e-07 0)
(2.10101 -0.264782 0)
(2 1.03343e-13 0)
(2 1.63505e-09 0)
(1.84075 0.218099 0)
(1.82957 0.229048 0)
(2 -3.01927e-07 0)
(2 -7.70457e-14 0)
(2 -1.10345e-07 0)
(2.03379 -0.0735826 0)
(2 -6.92023e-14 0)
(2 4.45994e-10 0)
(2 3.21987e-14 0)
(2 1.98238e-13 0)
(2 1.00738e-13 0)
(2 -7.63887e-14 0)
(2.01764 -0.0388357 0)
(1.99465 0.00153128 0)
(1.83156 0.229106 0)
(2 4.04865e-14 0)
(2 -3.75786e-13 0)
(2 -1.01068e-14 0)
(1.83021 0.230026 0)
(2.03518 -0.067964 0)
(2 -4.72191e-09 0)
(2 -1.09456e-13 0)
(2 2.42322e-13 0)
(1.83073 0.228611 0)
(1.83128 0.228978 0)
(2 -2.67587e-08 0)
(2 4.775e-06 0)
(2 3.47203e-09 0)
(2 -1.3212e-13 0)
(2 1.14386e-09 0)
(2 -6.86755e-14 0)
(2 -2.12248e-11 0)
(2 5.97504e-14 0)
(2 1.07707e-13 0)
(2.11257 -0.262858 0)
(2 4.36478e-14 0)
(2 -1.50652e-11 0)
(1.82912 0.22897 0)
(2.11234 -0.262599 0)
(2 -3.04748e-13 0)
(1.8298 0.228035 0)
(2 7.29322e-11 0)
(2.10748 -0.265606 0)
(2 -8.83318e-14 0)
(2 -3.11425e-13 0)
(2.11493 -0.265366 0)
(2 6.03385e-14 0)
(2 -1.27527e-11 0)
(2 -4.99203e-12 0)
(2 6.05192e-14 0)
(2 -2.78336e-12 0)
(2 -2.93159e-13 0)
(2 1.65775e-13 0)
(1.83493 0.225419 0)
(1.83195 0.228674 0)
(2 3.79775e-13 0)
(2 4.12619e-14 0)
(2 9.25891e-14 0)
(2 4.27229e-13 0)
(1.84661 0.211617 0)
(2 3.38946e-13 0)
(1.94464 0.0848044 0)
(2.10907 -0.264169 0)
(2 -3.14757e-08 0)
(2 4.04442e-13 0)
(2 -1.65513e-13 0)
(2 -2.61233e-13 0)
(2 -1.45606e-13 0)
(2 -7.03419e-14 0)
(2 -1.17371e-13 0)
(1.98413 0.0158417 0)
(2 -1.89049e-14 0)
(2 -1.22197e-13 0)
(1.90502 0.122743 0)
(2 -2.60323e-14 0)
(2 -7.93941e-15 0)
(2 -4.14567e-14 0)
(1.86009 0.195629 0)
(2 -2.63165e-13 0)
(2 -3.81366e-14 0)
(2 -1.36525e-13 0)
(2 -9.35975e-14 0)
(2.11252 -0.268818 0)
(2 4.27904e-12 0)
(2 -1.10171e-13 0)
(2.11101 -0.274709 0)
(2.11347 -0.264709 0)
(2 5.39095e-14 0)
(2 3.28104e-14 0)
(1.83228 0.229201 0)
(2 -2.12466e-14 0)
(1.98498 -0.00187517 0)
(2 1.80443e-15 0)
(2 -1.42191e-13 0)
(2 -1.93837e-13 0)
(1.88213 0.169402 0)
(2.11371 -0.272193 0)
(2 -2.32752e-13 0)
(2.11491 -0.27656 0)
(2 1.92532e-13 0)
(2.07588 -0.165515 0)
(2 -3.29377e-13 0)
(2 1.20517e-13 0)
(2 1.06078e-13 0)
(1.83064 0.229864 0)
(2 -4.45237e-08 0)
(2 1.86722e-13 0)
(1.83174 0.229013 0)
(2 -1.26842e-13 0)
(2 7.2201e-13 0)
(2 1.67098e-09 0)
(1.83168 0.228853 0)
(2 2.29129e-10 0)
(2 -3.36409e-13 0)
(1.83137 0.228653 0)
(2 -1.69174e-13 0)
(2 7.72998e-14 0)
(2.11966 -0.266963 0)
(2 -1.70746e-11 0)
(1.94648 0.0829678 0)
(2 8.28893e-14 0)
(2 6.93583e-14 0)
(1.83102 0.228994 0)
(1.83074 0.228726 0)
(1.88831 0.16107 0)
(1.84964 0.208807 0)
(2 2.99968e-14 0)
(2.11935 -0.263657 0)
(2 -1.9914e-14 0)
(2 4.63794e-14 0)
(1.83864 0.221024 0)
(2 1.17619e-13 0)
(2.12216 -0.265977 0)
(2 -5.76134e-14 0)
(2 -6.14059e-14 0)
(2 -1.17441e-13 0)
(1.83097 0.229076 0)
(2 4.56869e-14 0)
(2 -4.84075e-14 0)
(2 -5.17953e-15 0)
(2 8.94546e-15 0)
(1.89997 0.147988 0)
(2 -1.18477e-13 0)
(1.85377 0.204006 0)
(1.8317 0.227806 0)
(2.08669 -0.263367 0)
(2 -3.66688e-13 0)
(2 -9.90321e-14 0)
(2.12548 -0.258561 0)
(2.13396 -0.263972 0)
(2 1.42711e-13 0)
(2 1.07687e-13 0)
(2 -5.65339e-12 0)
(1.88093 0.171657 0)
(1.87002 0.183506 0)
(2 -1.92917e-13 0)
(2 1.52388e-13 0)
(2 -1.30221e-13 0)
(2 1.87167e-13 0)
(2 2.43648e-13 0)
(2 -1.0553e-13 0)
(2 -1.58341e-13 0)
(1.92848 0.107113 0)
(1.83073 0.228492 0)
(1.99089 0.00502954 0)
(2 -5.7916e-14 0)
(1.83403 0.226932 0)
(2.10081 -0.267007 0)
(2 9.05838e-14 0)
(2 8.11262e-14 0)
(2 7.37764e-14 0)
(1.90617 0.138888 0)
(2 -1.69697e-14 0)
(1.96707 0.0559642 0)
(2 -1.11382e-13 0)
(1.84639 0.21118 0)
(1.83235 0.228021 0)
(2 -1.13992e-13 0)
(2.11238 -0.263544 0)
(2 -2.44734e-14 0)
(1.82781 0.228856 0)
(2 9.83069e-14 0)
(2 6.55386e-14 0)
(1.8317 0.229281 0)
(1.84242 0.217061 0)
(2 1.04453e-13 0)
(1.82795 0.2276 0)
(2 -2.57158e-13 0)
(2.11546 -0.264364 0)
(2 -1.83797e-13 0)
(2 -2.57022e-13 0)
(2 -1.88303e-13 0)
(1.83079 0.229641 0)
(1.83511 0.225456 0)
(1.85121 0.206325 0)
(2 1.61064e-13 0)
(1.83175 0.229846 0)
(1.8316 0.228855 0)
(2 -4.93577e-14 0)
(1.83067 0.229151 0)
(2 -9.3171e-09 0)
(1.83204 0.22812 0)
(2 -1.44286e-13 0)
(2.10431 -0.265528 0)
(2.00428 -0.0131467 0)
(2.11889 -0.263821 0)
(2 -3.40138e-11 0)
(2 -2.25892e-11 0)
(2 -3.45249e-11 0)
(2 -5.02541e-14 0)
(2 -1.35205e-11 0)
(1.83096 0.228593 0)
(2 -3.72532e-14 0)
(1.83142 0.228941 0)
(2 -3.81224e-11 0)
(2 -9.64684e-11 0)
(2 9.03447e-14 0)
(1.84013 0.2198 0)
(2 1.65205e-14 0)
(2.11035 -0.262711 0)
(1.83181 0.229122 0)
(2 -4.67525e-14 0)
(2.11245 -0.265704 0)
(2.10149 -0.252514 0)
(2.11752 -0.267586 0)
(2 -2.94676e-13 0)
(1.91797 0.120767 0)
(1.98607 0.0192987 0)
(1.83029 0.229348 0)
(1.83173 0.229024 0)
(2 -6.8776e-14 0)
(2 -2.92087e-07 0)
(2 -1.20279e-07 0)
(2 -9.10876e-14 0)
(1.83148 0.228951 0)
(2 8.25424e-15 0)
(2 1.25175e-14 0)
(1.83147 0.228936 0)
(1.83132 0.228599 0)
(2 -4.61167e-13 0)
(1.94095 0.0877876 0)
(1.99978 0.000997035 0)
(2 -1.22794e-13 0)
(2.00108 -0.00193166 0)
(1.82876 0.228701 0)
(2.05541 -0.106615 0)
(2 -1.15874e-07 0)
(2.05948 -0.115666 0)
(2.10723 -0.259533 0)
(2.10373 -0.260509 0)
(1.99241 -0.0212533 0)
(1.83182 0.229066 0)
(1.83408 0.226104 0)
(1.96785 0.0514208 0)
(1.83128 0.228966 0)
(1.83107 0.228801 0)
(2 -6.1631e-14 0)
(2 2.17376e-14 0)
(1.83023 0.228724 0)
(1.82859 0.229953 0)
(1.83151 0.229168 0)
(1.82874 0.226877 0)
(2 -2.98229e-14 0)
(1.83131 0.228887 0)
(2.11688 -0.265688 0)
(1.83008 0.226928 0)
(1.83088 0.227393 0)
(1.82949 0.229155 0)
(1.83018 0.230882 0)
(2.04699 -0.100041 0)
(2.03193 -0.065313 0)
(2.02508 -0.0517276 0)
(1.83194 0.228978 0)
(2.01528 -0.0357515 0)
(1.83068 0.229652 0)
(2 1.56753e-13 0)
(2 -7.59069e-15 0)
(1.83045 0.229581 0)
(1.83123 0.229102 0)
(2 -3.5428e-13 0)
(2.11328 -0.261216 0)
(1.83134 0.228829 0)
(1.8312 0.228537 0)
(2 2.60184e-13 0)
(1.8322 0.228775 0)
(1.83176 0.229133 0)
(2 -6.77626e-14 0)
(1.83149 0.22899 0)
(2.10733 -0.265208 0)
(1.83028 0.229888 0)
(1.83077 0.228681 0)
(1.82946 0.228872 0)
(1.83 0.229022 0)
(2 -2.54086e-13 0)
(2 -3.86501e-13 0)
(2 -9.92811e-08 0)
(1.83144 0.22848 0)
(1.8913 0.155444 0)
(2.1228 -0.241732 0)
(1.83157 0.228696 0)
(2.11315 -0.273579 0)
(1.83184 0.228797 0)
(2 1.71368e-14 0)
(2 1.46301e-15 0)
(2 -1.26271e-13 0)
(2 -2.73802e-13 0)
(1.83186 0.228004 0)
(1.83147 0.228856 0)
(2 -7.87669e-14 0)
(2 -7.42474e-14 0)
(1.8313 0.228871 0)
(2.11329 -0.273868 0)
(1.83108 0.229223 0)
(2.10717 -0.266681 0)
(2 -6.54864e-14 0)
(1.83301 0.227798 0)
(2 -2.23907e-13 0)
(2.07484 -0.26229 0)
(1.83062 0.229816 0)
(2.08863 -0.195145 0)
(2 -7.71514e-14 0)
(1.83177 0.229073 0)
(1.83111 0.23028 0)
(1.83152 0.229044 0)
(2 -3.91832e-14 0)
(2 -2.05909e-14 0)
(1.91837 0.12599 0)
(1.83124 0.230023 0)
(2.10814 -0.264102 0)
(1.83207 0.228857 0)
(2 1.20357e-13 0)
(1.83156 0.22928 0)
(2.04869 -0.0849628 0)
(1.83094 0.229872 0)
(2.1087 -0.264715 0)
(2 -1.94626e-13 0)
(1.83199 0.228316 0)
(2.10482 -0.236171 0)
(1.83059 0.2295 0)
(2.10675 -0.265669 0)
(2 1.80047e-14 0)
(1.83099 0.229147 0)
(2 2.54401e-14 0)
(1.82902 0.22843 0)
(2 -2.19811e-13 0)
(1.90112 0.145517 0)
(1.83747 0.221844 0)
(1.868 0.185067 0)
(2.13719 -0.273276 0)
(2 -7.74799e-14 0)
(1.83129 0.228881 0)
(2 1.87062e-13 0)
(1.83184 0.228798 0)
(2 -1.16097e-07 0)
(1.83193 0.228936 0)
(2 -2.32076e-07 0)
(2 -1.2152e-13 0)
(1.83141 0.228896 0)
(2.00779 -0.0132781 0)
(1.83056 0.229946 0)
(2.07257 -0.264725 0)
(1.8621 0.20071 0)
(2 -1.33222e-13 0)
(1.88014 0.173086 0)
(2 -1.27838e-13 0)
(1.831 0.229706 0)
(1.83197 0.228841 0)
(1.83007 0.227877 0)
(2 -1.1662e-13 0)
(1.84905 0.208494 0)
(1.83097 0.22879 0)
(1.84433 0.215283 0)
(1.89613 0.152664 0)
(1.83556 0.228924 0)
(2 -8.31023e-14 0)
(1.88952 0.158454 0)
(2 -1.76919e-13 0)
(1.83155 0.228714 0)
(2 -7.77122e-15 0)
(1.97257 0.0419309 0)
(2 1.06112e-13 0)
(1.84426 0.214376 0)
(2 3.00801e-14 0)
(1.83153 0.229304 0)
(1.83966 0.220125 0)
(1.83952 0.220069 0)
(2 1.44073e-13 0)
(1.83023 0.232399 0)
(2.12522 -0.262283 0)
(2 -1.85755e-13 0)
(2.12128 -0.268688 0)
(2 2.81599e-13 0)
(2 -4.39691e-14 0)
(2 7.73174e-15 0)
(1.82859 0.228411 0)
(2 -2.16077e-14 0)
(1.8315 0.229196 0)
(2 3.34038e-14 0)
(2 1.4015e-13 0)
(2 3.16548e-13 0)
(1.8309 0.229071 0)
(1.83224 0.222905 0)
(1.87068 0.181645 0)
(1.83243 0.229083 0)
(1.83135 0.230393 0)
(2.12024 -0.262466 0)
(1.8263 0.229808 0)
(1.82994 0.228622 0)
(2 3.79466e-14 0)
(1.85954 0.197589 0)
(1.83182 0.228673 0)
(1.83861 0.231668 0)
(2 -1.01823e-13 0)
(1.83105 0.228977 0)
(1.82633 0.228025 0)
(2 1.67089e-13 0)
(1.82927 0.231006 0)
(1.83067 0.228977 0)
(1.8311 0.229457 0)
(1.83035 0.229472 0)
(2 -7.22497e-15 0)
(2 2.83228e-13 0)
(2 1.60836e-13 0)
(1.83176 0.229034 0)
(2.13714 -0.257794 0)
(2 5.19048e-15 0)
(1.83161 0.228945 0)
(2 4.10662e-14 0)
(2 1.75976e-13 0)
(2.11855 -0.261491 0)
(2 7.86436e-14 0)
(2 1.53634e-13 0)
(1.83151 0.229114 0)
(1.83171 0.228812 0)
(2 1.79939e-14 0)
(1.83202 0.228742 0)
(1.83322 0.231321 0)
(1.83011 0.228536 0)
(2 -0.0123809 0)
(1.83142 0.229076 0)
(2 1.05805e-14 0)
(1.83139 0.229113 0)
(1.83177 0.228923 0)
(1.87118 0.182179 0)
(2 1.5008e-14 0)
(2 -2.68653e-14 0)
(2 -1.20963e-13 0)
(1.83112 0.230016 0)
(1.83128 0.229028 0)
(1.83172 0.228882 0)
(2.01812 -0.0465087 0)
(2 6.36197e-16 0)
(1.82993 0.231803 0)
(1.83143 0.229246 0)
(1.83297 0.229549 0)
(2 5.00636e-15 0)
(1.83156 0.229365 0)
(1.8315 0.228819 0)
(1.83167 0.229096 0)
(1.82694 0.232145 0)
(2 -2.85282e-13 0)
(1.83193 0.228858 0)
(1.83007 0.231619 0)
(1.85332 0.202376 0)
(1.83182 0.22835 0)
(1.82658 0.230452 0)
(2 -3.07932e-14 0)
(1.8299 0.230107 0)
(1.83337 0.226792 0)
(1.83179 0.228861 0)
(1.83074 0.227456 0)
(1.83179 0.228274 0)
(2.11267 -0.266248 0)
(1.83183 0.229291 0)
(1.83216 0.228838 0)
(2 -5.92102e-14 0)
(1.83143 0.228653 0)
(1.83184 0.228842 0)
(1.83113 0.228885 0)
(1.83158 0.229157 0)
(2 -5.79671e-08 0)
(1.83187 0.228763 0)
(1.83145 0.228861 0)
(2 -1.66396e-07 0)
(1.83124 0.228458 0)
(1.8594 0.197112 0)
(2 2.62565e-13 0)
(2 3.4821e-14 0)
(2 1.06421e-09 0)
(1.83108 0.228968 0)
(1.82981 0.229482 0)
(2 4.38804e-14 0)
(2 1.667e-13 0)
(1.90811 0.137426 0)
(2 1.13191e-14 0)
(1.83172 0.22871 0)
(2 -1.38838e-13 0)
(2 9.69928e-15 0)
(1.83107 0.22874 0)
(1.83047 0.229809 0)
(1.83182 0.229228 0)
(1.83116 0.228792 0)
(2 -8.58317e-14 0)
(2 1.86629e-14 0)
(2 4.13479e-15 0)
(1.88347 0.168332 0)
(2 6.87578e-14 0)
(1.83156 0.229709 0)
(2 6.54663e-14 0)
(2 -2.06392e-13 0)
(1.82943 0.228813 0)
(1.83077 0.228816 0)
(2 5.68357e-14 0)
(1.83167 0.228767 0)
(2.10607 -0.287474 0)
(1.83153 0.229006 0)
(1.83082 0.230281 0)
(2.07771 -0.206198 0)
(2 6.3581e-14 0)
(2.11919 -0.27727 0)
(1.85333 0.203758 0)
(1.83028 0.231016 0)
(1.8313 0.230012 0)
(1.83121 0.230224 0)
(2.13252 -0.2573 0)
(1.83113 0.22882 0)
(1.83077 0.228987 0)
(2.1295 -0.257362 0)
(2.11134 -0.277256 0)
(2 -2.61297e-07 0)
(1.83103 0.229937 0)
(1.83213 0.228769 0)
(2 -1.59203e-13 0)
(2 -8.71601e-14 0)
(1.83153 0.229085 0)
(2 -4.34022e-13 0)
(1.82926 0.230628 0)
(2 2.49808e-06 0)
(1.85142 0.20617 0)
(2 -2.45567e-14 0)
(1.92223 0.116068 0)
(1.83212 0.228753 0)
(1.83091 0.230275 0)
(1.8821 0.17268 0)
(1.8563 0.198631 0)
(1.82876 0.228497 0)
(1.83299 0.230365 0)
(1.84577 0.217516 0)
(2 -2.17245e-13 0)
(2.09891 -0.266114 0)
(1.8294 0.230804 0)
(1.83202 0.229055 0)
(1.83196 0.231994 0)
(2 7.23464e-06 0)
(2 4.57582e-10 0)
(2 1.46251e-09 0)
(1.82732 0.229427 0)
(2 -2.73998e-14 0)
(1.83183 0.229132 0)
(1.83124 0.228149 0)
(2.08404 -0.180715 0)
(2 -2.84419e-14 0)
(1.8314 0.229242 0)
(2.00002 -4.36771e-05 0)
(2 1.21363e-13 0)
(1.99999 1.82234e-05 0)
(1.99998 2.72993e-05 0)
(1.83195 0.229109 0)
(1.83007 0.228766 0)
(2.00051 -0.000873968 0)
(2 -1.9155e-14 0)
(2 1.22663e-13 0)
(1.83184 0.228692 0)
(1.83109 0.229779 0)
(1.83175 0.228857 0)
(1.82984 0.23049 0)
(1.83222 0.229066 0)
(2.11151 -0.249011 0)
(1.85266 0.211189 0)
(2 8.55293e-14 0)
(1.83301 0.227828 0)
(1.83168 0.229034 0)
(1.83155 0.229134 0)
(1.82629 0.234279 0)
(2 3.07657e-13 0)
(1.83197 0.228809 0)
(1.83638 0.22387 0)
(1.83122 0.229394 0)
(2 -3.19957e-13 0)
(1.8304 0.229983 0)
(1.83111 0.227878 0)
(2.04494 -0.0857935 0)
(1.832 0.228923 0)
(1.83002 0.229657 0)
(2 -7.23346e-15 0)
(1.83136 0.228687 0)
(2.05358 -0.103976 0)
(1.83122 0.229064 0)
(2.049 -0.0915781 0)
(1.83195 0.228903 0)
(2 -1.11786e-07 0)
(1.83165 0.228889 0)
(1.82373 0.233576 0)
(1.83193 0.228839 0)
(1.83195 0.228927 0)
(1.83164 0.228893 0)
(1.83138 0.228693 0)
(1.83174 0.229114 0)
(1.8302 0.229429 0)
(2 -3.06559e-13 0)
(2.0241 -0.0497992 0)
(1.83126 0.228969 0)
(1.83179 0.228908 0)
(2.05455 -0.108969 0)
(1.83152 0.228817 0)
(2.00118 -0.00833913 0)
(1.89087 0.153781 0)
(1.83134 0.228913 0)
(1.83067 0.228545 0)
(1.83002 0.229043 0)
(2 -9.26576e-14 0)
(1.83067 0.229867 0)
(1.88791 0.159673 0)
(1.83103 0.22857 0)
(2.02039 -0.0482015 0)
(1.83078 0.229705 0)
(1.82642 0.232995 0)
(2 -4.14682e-14 0)
(2.04639 -0.0921886 0)
(2 -4.37463e-09 0)
(1.83885 0.224677 0)
(2 5.66721e-14 0)
(1.88305 0.167609 0)
(2 4.96413e-09 0)
(1.83264 0.227567 0)
(2.0427 -0.0879419 0)
(2 7.70586e-14 0)
(1.83183 0.228008 0)
(1.83545 0.225672 0)
(2 -1.62149e-13 0)
(1.83182 0.227427 0)
(1.83026 0.229542 0)
(1.83531 0.230706 0)
(1.82803 0.229338 0)
(1.83033 0.232683 0)
(2 -4.06741e-13 0)
(1.8302 0.229158 0)
(2 1.29438e-14 0)
(2 -2.78395e-13 0)
(2 -1.05339e-13 0)
(2.03123 -0.0722874 0)
(1.83187 0.22908 0)
(1.83077 0.229526 0)
(1.82949 0.232724 0)
(1.83166 0.228736 0)
(1.83093 0.231529 0)
(1.82871 0.23119 0)
(1.82996 0.22762 0)
(1.83172 0.229133 0)
(2.02917 -0.0714249 0)
(1.98971 0.0214974 0)
(2 3.43423e-09 0)
(2 -4.81893e-14 0)
(1.82537 0.234756 0)
(1.83164 0.228949 0)
(1.83146 0.229074 0)
(1.83148 0.228896 0)
(1.99999 1.64174e-05 0)
(1.91186 0.135246 0)
(2 -1.72847e-07 0)
(1.83039 0.232073 0)
(1.86028 0.200989 0)
(2 -2.75207e-12 0)
(2 -5.64738e-11 0)
(2.08095 -0.186069 0)
(1.83184 0.228922 0)
(2 -2.26302e-14 0)
(2 -2.94743e-14 0)
(2.11449 -0.265491 0)
(1.8314 0.228874 0)
(2 -8.14839e-14 0)
(1.83067 0.228654 0)
(1.83128 0.229027 0)
(1.82892 0.228499 0)
(1.83811 0.221653 0)
(1.83139 0.229155 0)
(2 -2.55478e-10 0)
(2.12524 -0.267903 0)
(1.96007 0.0654254 0)
(1.83145 0.229025 0)
(1.8315 0.228956 0)
(2 -1.45485e-13 0)
(1.83171 0.229509 0)
(1.83157 0.229112 0)
(1.91245 0.122526 0)
(1.99786 0.00548353 0)
(1.9664 0.0566245 0)
(2 -1.8381e-13 0)
(1.829 0.228302 0)
(1.83158 0.228887 0)
(2 -1.21557e-07 0)
(2 -2.23472e-10 0)
(2.13779 -0.256479 0)
(2 -2.37177e-10 0)
(2 -1.09684e-13 0)
(1.83186 0.228741 0)
(1.83156 0.228866 0)
(1.83178 0.229412 0)
(1.8318 0.228824 0)
(1.83183 0.228609 0)
(1.82815 0.230683 0)
(1.83115 0.229099 0)
(1.83173 0.227575 0)
(1.83136 0.228948 0)
(2 8.71344e-14 0)
(2.0016 -0.00233327 0)
(1.83142 0.22914 0)
(1.83185 0.229137 0)
(2.00107 -0.00169736 0)
(1.83158 0.229003 0)
(1.83174 0.228959 0)
(2.13481 -0.261159 0)
(2.08999 -0.266842 0)
(1.83174 0.228148 0)
(1.83226 0.227763 0)
(2 -1.05197e-13 0)
(2 2.87889e-14 0)
(1.9992 0.00191403 0)
(1.83146 0.229151 0)
(1.83165 0.229386 0)
(1.83139 0.228823 0)
(2 1.02855e-09 0)
(1.8315 0.228954 0)
(2 -1.98588e-14 0)
(2.04865 -0.0924103 0)
(1.83144 0.232724 0)
(1.83567 0.230211 0)
(2 -6.9691e-14 0)
(1.92208 0.110875 0)
(1.83069 0.228716 0)
(2 -1.44129e-13 0)
(1.82898 0.2271 0)
(2 -9.93887e-11 0)
(1.83172 0.2289 0)
(1.88024 0.160891 0)
(1.83265 0.228641 0)
(2 1.57363e-11 0)
(1.83168 0.229144 0)
(1.83369 0.229638 0)
(2.13434 -0.256693 0)
(1.83143 0.229126 0)
(2 -1.24276e-07 0)
(1.83137 0.228623 0)
(1.83072 0.228676 0)
(2 7.22337e-09 0)
(2.12989 -0.260894 0)
(1.8295 0.230113 0)
(1.85234 0.218275 0)
(2.00092 -0.00108095 0)
(1.84603 0.216671 0)
(1.83184 0.228871 0)
(2 -5.21264e-12 0)
(1.99674 0.00262109 0)
(1.82992 0.226742 0)
(2.00222 -0.00107521 0)
(1.83116 0.228856 0)
(2 -3.47222e-12 0)
(2 1.04347e-13 0)
(1.83192 0.228509 0)
(2 1.43086e-13 0)
(1.83146 0.229282 0)
(1.83162 0.229147 0)
(2.00138 -0.0024721 0)
(1.85976 0.193579 0)
(2 3.20435e-09 0)
(1.83174 0.229068 0)
(2 -1.60497e-09 0)
(2 -5.6653e-13 0)
(2 1.0926e-11 0)
(2 6.18579e-12 0)
(1.8316 0.22886 0)
(2 6.99834e-09 0)
(2 -7.15436e-14 0)
(1.82921 0.232377 0)
(2 1.82986e-13 0)
(1.83134 0.228896 0)
(2 3.41916e-10 0)
(1.89279 0.153789 0)
(1.82942 0.228864 0)
(1.8308 0.22967 0)
(2 7.49818e-10 0)
(2 -2.84077e-13 0)