/*--------------------------------*- C++ -*----------------------------------*\
  =========                 |
  \\      /  F ield         | OpenFOAM: The Open Source CFD Toolbox
   \\    /   O peration     | Website:  https://openfoam.org
    \\  /    A nd           | Version:  12
     \\/     M anipulation  |
\*---------------------------------------------------------------------------*/
FoamFile
{
    format      ascii;
    class       surfaceScalarField;
    location    "4.1";
    object      phi;
}
// * * * * * * * * * * * * * * * * * * * * * * * * * * * * * * * * * * * * * //

dimensions      [1 0 -1 0 0 0 0];

internalField   nonuniform List<scalar> 
33852
(
0.000251329
2.24281e-05
-0.000273757
-0.000246121
1.32441e-05
0.000232877
-0.000174967
-7.17088e-05
0.000247023
0.000304053
-0.000163969
-0.000140085
0.000292086
-4.28165e-05
-0.00024965
2.72441e-05
-0.000260681
0.000233437
0.000315169
1.47401e-05
-0.000329898
0.000304277
-9.59564e-05
-0.000208321
0.000286413
-3.50841e-05
0.000200392
1.85029e-06
-0.000202239
0.00028955
-0.000366574
7.7031e-05
0.000360881
-4.57195e-05
-4.39602e-05
0.000263285
-0.000219325
-4.39272e-05
0.000318144
-0.00027432
6.10021e-05
-0.000236584
0.000252057
1.2236e-05
-0.000264293
0.000264853
-1.2796e-05
-0.000278433
3.23121e-05
0.000340753
-5.11711e-05
0.000158593
0.000112308
-0.000270901
-2.4337e-05
0.000303246
-0.000278917
0.000271377
-0.000276165
4.78802e-06
-1.77194e-05
0.000275043
-0.000257295
-0.000223036
1.46393e-05
0.000208326
-0.00015367
-0.000183562
0.000337459
-0.00014549
-6.92707e-05
0.000214758
3.72401e-05
0.000267037
-6.12098e-05
-0.000263088
0.00032431
-0.00020956
1.77752e-06
0.00020778
-0.000203884
-1.90659e-05
0.000142045
0.000137388
-0.000279433
0.000341531
1.93315e-05
0.000142618
0.000128347
-0.000270965
-0.000101136
0.000259729
-0.000250489
-3.78001e-06
0.000254269
0.000330758
-5.96974e-05
-0.000271037
-0.000357118
0.000203505
-0.00022731
0.000209617
0.000231645
3.32081e-05
-5.65602e-06
0.000237301
-8.13438e-06
0.000208583
-0.000232625
0.000259869
0.000316295
-5.74498e-05
-0.000258735
-0.000309093
5.51042e-05
0.000253989
0.000240168
-0.00030136
0.000273589
-0.000306321
3.27321e-05
-0.000180237
-5.49362e-05
0.000235173
0.000272133
-0.000272133
0.000148429
-0.000297473
0.000149045
-0.00021012
0.000216994
-7.27585e-06
-0.000268241
0.000237301
3.09401e-05
-0.00019973
0.000246702
-4.71241e-05
-9.16164e-05
-0.000217477
-0.000114557
-0.000252006
-0.000280169
0.000266113
1.40561e-05
0.000329618
1.18692e-05
-0.000250433
7.01963e-05
0.000117908
0.000145909
-0.000263817
1.34681e-05
-0.000267457
0.000253989
-0.000134569
0.000282997
-0.000152602
-5.09436e-05
0.000203586
-0.000274681
0.000245113
2.95681e-05
0.000237553
-0.000268437
3.08841e-05
-0.000186063
-2.3634e-05
0.000151665
0.000115565
-0.00026723
-0.000189664
-2.81772e-05
0.000217787
0.000263985
2.24281e-05
0.000275941
-2.35201e-06
0.000265329
-0.000250741
-1.45881e-05
0.000227057
-6.45105e-05
-0.000162535
-1.82001e-06
0.000239373
0.000366955
-0.000313021
-5.39368e-05
-2.83357e-05
0.000303891
-0.000275464
-0.000101584
0.000219493
0.00034273
2.421e-05
-0.000372103
0.000353835
1.8265e-05
-0.00021179
2.22333e-05
0.000309085
-0.000321344
1.22906e-05
-0.000207711
0.000271663
-6.4041e-05
-4.45202e-06
1.70862e-05
-0.000319224
0.00030212
0.000233633
-0.000198826
-3.52532e-05
0.000269471
-0.00033952
7.0047e-05
0.000332867
-6.34072e-05
-0.000268941
0.000236573
3.23681e-05
-0.000129388
-0.000132609
0.000261997
-1.86761e-05
-0.000249565
-1.022e-05
-0.000258721
2.29045e-05
0.000210781
-0.00023353
3.16412e-05
-0.000222868
0.000191286
-2.49897e-05
0.000327845
-0.000302821
-0.000279329
0.000273701
5.62802e-06
0.000156129
-0.000296857
0.000140729
-5.9606e-05
-0.000150561
0.000210212
0.000143277
0.0001218
-0.000265077
-0.000250045
0.000225716
-0.000212947
0.000153348
-0.000168813
0.000327181
-0.000158369
0.000185389
7.16523e-05
-0.000257041
0.000255193
2.07481e-05
-0.000192277
0.000148317
5.03712e-05
0.000266028
0.000306996
-0.000289918
9.17374e-05
-0.0002374
0.000135241
0.000117096
-0.000281065
-1.3141e-06
0.000244973
-0.000243734
0.000166489
0.000122836
-0.000289325
0.000143741
8.95999e-05
-3.92002e-06
0.000259113
0.000303683
5.42662e-06
-0.000324104
0.000315139
8.9527e-06
-3.99002e-05
0.000236293
-0.000196393
4.08802e-06
-0.000284257
-2.57378e-05
0.000166144
-0.000140358
-0.000158215
0.000132949
0.000209983
-0.000178269
-0.000269921
0.000264965
4.95602e-06
2.64041e-05
0.000174721
-0.000201125
2.87841e-05
-0.000257265
0.000228481
0.000276137
-0.000262669
0.000115108
0.000212073
0.000214909
-0.000191705
-0.000175813
0.000202217
1.36069e-05
0.000283082
-0.000296548
0.000269441
2.17257e-05
0.000271488
-0.000283887
1.23849e-05
3.86402e-06
0.000267513
-1.81234e-05
0.000289604
0.000330811
9.9588e-06
0.000213621
-0.000257551
0.000316476
-0.000316474
-6.63603e-06
-0.000272693
2.81775e-05
0.000198889
0.000187993
3.98722e-05
-0.000227865
-5.47301e-05
0.000218058
-0.000163333
0.000153609
-0.000270285
0.000116676
0.000279441
-0.000329701
5.02602e-05
-6.38122e-05
0.000249201
-0.000166909
0.000315897
-0.000148989
-0.000314069
-1.00439e-05
-0.000214929
0.000175029
2.78601e-05
-0.000278349
0.000276221
-1.88441e-05
-0.000248613
1.71667e-05
-0.000302599
0.000285403
0.000344989
-0.000158593
-0.000186397
-1.68025e-05
-0.00024092
0.000257729
-0.000266617
-3.30401e-06
0.000224001
2.45841e-05
-0.000248585
0.000284509
-0.000128381
0.000140197
0.000138853
-0.000279049
-0.000199363
-1.0881e-05
0.000258169
-0.000115551
0.000225734
-0.00024255
-6.38122e-05
0.000251805
-0.000207715
0.000249481
-5.60002e-07
-0.000248921
0.000255109
-0.000237441
-0.000324614
0.000299644
-3.08841e-05
0.000203169
-0.000172285
0.000291991
1.27848e-06
-0.000293231
7.65729e-05
0.000132387
-0.000208733
4.60205e-05
-0.000198585
-0.000289343
-4.62336e-06
0.000293989
-1.5541e-06
-0.000287749
0.000146973
-0.000273925
0.000126952
-0.000262747
0.000220204
-0.000294416
0.000266096
0.000279441
-0.000312663
-1.24388e-05
0.000325092
0.000110533
0.000161131
-2.13556e-05
0.000352183
0.000140141
0.000139833
-0.000279973
0.000245029
-0.000250349
5.32002e-06
-0.000210953
0.000180069
0.000279133
-5.43202e-06
0.000350775
-3.27257e-05
-0.000301501
0.000306124
-1.33912e-06
0.000270985
-0.000270985
-0.000364665
0.000225861
0.000138758
-0.000205732
1.95799e-05
1.69327e-05
0.000275157
-0.000278461
3.30401e-06
-5.11641e-06
0.000171022
-0.00016581
-0.000197345
0.000254801
-5.74562e-05
-0.000204275
4.4908e-06
-0.000240379
0.00015931
8.10808e-05
-0.000180264
0.000261402
-8.11372e-05
0.000256285
-0.000287113
3.08281e-05
-0.000249229
5.18842e-05
-2.35369e-05
0.00027578
-0.000252261
-0.000253547
1.35801e-06
0.000252189
0.000231281
-7.28003e-06
-0.000294243
7.55693e-06
0.000286696
-0.000266085
0.000266085
-0.000284432
-5.51084e-05
-0.000170694
-0.000194068
-0.00017127
0.000216438
-4.52705e-05
-1.232e-05
-0.000239177
0.000251497
3.10801e-06
0.000210113
-0.000213221
-0.00018558
-2.26553e-05
0.000208445
7.59647e-06
0.00029452
-0.000302115
-0.000236153
-1.34401e-05
0.000249593
1.50361e-05
-0.000251189
-0.000241025
0.000256061
-0.000301366
0.000308967
0.000256117
7.16803e-06
-0.000170505
-3.19822e-05
0.000202466
-0.000145237
-0.000134765
-0.000244329
0.000240549
0.000298656
-4.36536e-07
-0.00029823
-0.000298837
5.94836e-07
0.000298225
1.92204e-05
0.000181217
0.000163773
7.70044e-05
-0.000257269
-0.000159242
0.000310908
0.000250721
-0.000108677
-0.000235145
-1.83681e-05
0.000253513
-0.00020464
-0.000126771
0.000331462
-6.10402e-06
-0.000229125
0.000235229
-2.19261e-05
-0.000183857
-0.000286486
-8.56108e-05
6.31566e-06
-0.000300548
-0.000212576
0.000327899
-0.000115308
0.000281597
0.000288205
-5.16322e-05
0.000271993
-1.57081e-05
-0.000187028
-1.41408e-05
0.000201039
0.000297336
4.16059e-07
-0.000297764
-0.000268458
-3.26294e-05
-0.000218821
0.000247605
-2.52302e-05
0.000310605
-0.000285375
0.000179616
7.82107e-06
-0.000187468
-3.40304e-05
0.000213667
-0.000301272
0.000276038
0.000292071
5.69148e-06
-0.000297794
0.000157445
0.00011886
-0.000276305
0.000289344
5.20545e-06
-0.000294164
-0.000246773
0.000118143
0.000128598
-0.000281814
0.000295319
0.000302513
-0.000156857
-0.000145657
0.000207005
-0.000203897
-0.000232009
-0.000121156
-0.000155009
-4.08065e-06
-0.000294041
0.000298116
-1.0136e-05
0.000276249
0.000289964
-2.03305e-05
-0.000269794
-0.000262925
2.90072e-05
0.000233955
0.000271433
-0.000267569
0.000249621
2.95121e-05
0.00031488
-9.75973e-06
-0.000305127
4.9562e-05
0.000156179
-0.000205715
-9.97425e-05
0.000195667
-9.61997e-05
0.000252617
-2.91201e-05
-0.000223497
5.06365e-07
0.000291624
-0.000178279
-3.16395e-05
0.00020982
-1.78192e-06
0.000291241
-9.33244e-05
0.000246933
-0.000255417
-5.26402e-06
0.000121184
0.000181329
1.34121e-05
0.000241557
-0.000254969
0.000236097
1.34961e-05
-0.000249593
0.000249509
-0.000242929
0.000256425
6.31673e-05
-0.000201845
0.000138404
-0.000215618
0.000115751
-0.000204555
0.0002973
1.42567e-06
-0.000298696
0.000253849
2.22881e-05
0.000268493
-0.000216441
-5.20522e-05
0.000225518
-0.000246849
2.13305e-05
0.000257909
1.40841e-05
5.88835e-05
0.000295048
0.000267186
-3.89594e-05
-0.000228226
0.000173741
1.274e-05
0.000240297
-0.000253037
0.000194457
-0.000114354
-8.02006e-05
-0.000206958
2.15348e-05
-1.28521e-06
-0.000297712
0.000299064
0.000220062
-0.000167435
-5.25485e-05
0.000344568
-4.13435e-05
0.000275969
-0.000135829
2.31561e-05
0.000238337
-0.000261493
-0.000231141
0.000254297
-2.66834e-05
-0.000229748
0.000256405
0.00015644
-0.000161573
-7.73284e-05
-0.000169168
-0.000261723
4.14346e-05
0.000220288
-3.17521e-05
-0.00022997
7.07932e-06
0.000261717
-3.25193e-05
-0.000229198
1.67423e-05
0.000125916
-0.000195072
0.000308785
-0.000171397
0.000262319
-3.57923e-05
-0.000226526
-0.000319239
0.000177451
-0.000100575
-0.000228453
-6.90203e-05
-6.92055e-07
-0.000299458
0.000299492
-2.76544e-05
0.000181509
-0.000153859
0.000308012
6.8683e-06
0.000250097
-0.000248249
-1.84801e-06
-0.000176314
6.19876e-05
0.000260255
-3.07221e-05
-0.000229532
0.000197345
-0.000250769
5.34242e-05
0.000254206
-0.000231206
-2.29991e-05
-0.000252337
0.000240017
0.000144743
0.000101651
-0.000101864
-0.000170269
0.000132496
-0.000261885
-0.000290249
0.0002422
4.80483e-05
0.000216809
3.12474e-05
-0.000248056
-0.000238261
-9.59575e-06
0.000247955
0.00032697
-2.29447e-05
0.000263996
-3.42721e-05
-0.000229724
0.000141998
-0.000232405
8.98096e-05
3.63259e-05
-0.000265637
0.000229311
-0.000253905
0.000121296
0.000249817
-5.24722e-05
0.000294673
-0.000154253
-0.000140421
0.000122248
-0.000289157
1.53441e-05
0.000237665
-0.000253009
-0.000262031
3.54705e-05
0.00022656
-2.76968e-06
-3.77917e-05
-0.000224239
0.000248628
-0.000272107
-0.000264649
3.44737e-05
0.000230175
0.000193257
0.000101416
-0.000149941
0.000290137
-0.000171284
-3.83673e-05
0.000209576
-1.81721e-05
0.000263201
-0.000293074
0.000310211
0.000116739
0.000103388
0.000261325
-0.000261325
0.000312891
-2.21862e-05
-0.000289658
5.32002e-07
0.000248949
0.000254857
1.65761e-05
0.000309607
-0.000276323
-3.31851e-05
-2.26336e-05
0.000266577
-0.000243943
3.00077e-05
-0.000260519
0.000230511
-0.000252139
0.000229506
0.000327884
3.11501e-05
-0.000260598
0.000229447
0.000276809
-3.16961e-05
-7.30973e-06
-0.00029226
0.000298853
0.000270786
3.88764e-05
0.000230245
-0.000266617
3.63721e-05
0.000200745
-0.000202218
-0.000258301
0.000238533
1.97681e-05
0.000169762
-0.000257245
8.74835e-05
-0.000205255
0.000163241
-0.000249145
8.59043e-05
-0.000266169
0.000224813
4.13562e-05
0.000253073
-2.78797e-05
-0.000225194
0.000175067
4.30151e-05
-0.000234837
-2.29601e-05
0.000257797
-0.000236377
-2.28761e-05
0.000259253
-1.94265e-05
0.000255969
-0.000236542
-0.000259345
0.000239919
-3.26609e-05
0.000174037
-0.000235929
-2.24001e-05
0.000258329
-0.00025484
0.000229192
2.56481e-05
2.94001e-06
0.000211289
-0.000214229
-0.000267031
3.79849e-05
0.000229046
0.000270677
4.48002e-06
4.16338e-05
0.000161883
-0.000203468
-3.31194e-05
0.000249928
-2.10103e-05
0.000218597
9.73004e-05
0.000248201
-0.000216952
0.000277752
-0.000279277
0.000277476
-0.000282086
-1.84997e-05
0.000258601
-0.000240101
-0.000261644
0.000243145
3.02155e-05
-0.000201938
-2.96355e-05
-0.00020649
0.000235993
0.000314965
-0.000287555
-2.74389e-05
0.000261297
-3.11081e-05
-0.000230189
3.28739e-05
-0.000262362
0.000229488
-0.000229853
0.000259645
-2.97921e-05
0.000325698
-1.76902e-05
0.000147083
-0.000211617
0.000256929
-0.000109956
-0.000286419
0.0002877
0.000241977
-6.41202e-06
-0.000235565
0.000228537
-0.000180271
-3.72492e-05
0.000218472
2.87306e-05
-0.000209151
-0.000239989
0.000260317
-2.03281e-05
-0.000103384
0.000189646
-8.61861e-05
3.08761e-05
-0.000202191
0.000240169
-0.000263424
2.32552e-05
-0.000115584
0.000258861
-0.000243993
0.000265721
-2.17281e-05
-0.000238953
0.000232541
0.000258626
-0.000245105
-1.35213e-05
0.000264349
-2.46681e-05
-0.000246317
-0.000273339
-1.05569e-05
0.000298386
-5.36582e-05
-7.91854e-06
0.000291903
-0.000285394
-0.00016576
0.000207715
0.000229637
1.81938e-05
-0.000248045
0.000328836
-0.00032883
0.000260955
-0.000245018
-1.59377e-05
-0.000301957
-6.74158e-07
0.000305229
9.72039e-06
3.7727e-05
0.000170412
-0.000208146
0.000212959
-3.48506e-05
-0.000178106
0.000278054
-0.000255789
-2.22648e-05
-0.000209528
3.12419e-05
3.15421e-05
-0.000261891
0.000230348
0.000285082
-0.000292174
2.44721e-05
-0.000259617
-0.000257965
1.87881e-05
0.000266057
-1.64361e-05
0.000151173
-0.000267625
0.000116452
0.000298958
-4.44012e-06
0.000238617
-7.53763e-05
2.12521e-05
0.000177045
-0.000198297
-0.000183877
0.000205129
-0.000236275
0.000257219
-2.09441e-05
0.000261462
-3.31689e-05
-0.000228293
-0.000197009
-5.21362e-05
0.000251581
-1.48401e-06
8.74174e-06
-0.000264593
0.000255765
-0.000342647
0.000236227
0.000106424
0.000266371
-0.000236811
-2.95597e-05
0.000306863
-0.000314685
7.82556e-06
-2.57041e-05
-0.000229097
0.000254801
0.000261493
-7.64403e-06
1.01349e-05
-0.000209263
0.000262411
-3.19033e-05
-0.000230508
-6.90483e-05
-0.000260653
-0.000194685
0.000248025
-5.33402e-05
-0.000266533
0.000249985
1.65481e-05
-0.000318058
1.66894e-05
-1.72289e-05
0.000296792
-0.00027929
-0.000276221
1.65481e-05
0.000249537
-0.000167716
6.44146e-05
0.000273754
1.47897e-05
-0.000288529
-0.000316114
0.000307883
8.21751e-06
3.46641e-05
-0.000263649
0.000228985
-1.74766e-05
0.00028132
-0.000315244
1.63969e-05
-0.000176541
-7.42283e-05
-0.000233322
0.000203782
-2.16721e-05
-0.000216469
0.000238141
-0.000314691
0.00029581
1.88907e-05
-0.000132961
0.000274295
-0.000141968
-8.39172e-06
3.31521e-05
-0.000263453
0.000230301
-0.000202303
2.47563e-05
0.000177541
0.000221508
0.000280475
-0.000280728
2.66052e-07
-0.000236993
-2.20921e-05
0.000224813
-0.000202721
0.000139273
0.000143753
-0.000278517
0.000200497
-5.67234e-05
0.000308044
-1.06616e-05
0.00020918
-0.000268885
2.92853e-05
0.00022306
-0.000252345
-0.000322166
0.000138592
0.000296461
2.9243e-05
1.94294e-05
-0.000224355
-2.77845e-05
-0.000136161
-0.000132825
-0.000326129
0.000113662
0.000242873
2.56201e-05
0.000218765
-0.000224869
1.09744e-05
-0.000287985
0.000276858
-0.000242735
0.000270135
-2.72144e-05
0.000281447
-0.000281875
0.000287931
-7.74106e-05
-8.85643e-06
0.000290315
-1.87881e-05
0.000247101
-0.000228313
0.000281472
-0.000290323
-5.59484e-06
-0.000283879
0.000289492
0.000282072
-0.000269765
0.000284566
0.000226314
2.67597e-05
-0.000309842
0.000317912
-7.20868e-06
0.000251333
-2.11038e-05
0.000226781
2.40388e-05
-0.000268913
0.000246057
-2.05381e-05
-0.000259401
3.02849e-05
0.000229116
0.000178305
7.64963e-05
9.89272e-06
0.000280782
-0.00029133
-0.000238141
-2.88401e-05
0.000266981
2.51441e-05
-0.000263285
0.000284117
-0.000162317
-0.000232177
0.000261129
-2.89521e-05
-0.000234697
0.000260709
-2.60121e-05
1.40799e-06
0.000279079
2.45001e-05
-0.000259197
2.38001e-05
-0.000255977
0.00027428
-0.000242919
-3.13513e-05
0.00031788
-1.00031e-05
-0.000305978
-3.03601e-06
-0.000255753
1.1816e-05
0.000243937
-1.63635e-05
-0.000261185
0.000228065
-0.000245337
0.000270145
-2.48081e-05
-0.000263229
1.49801e-05
-2.35864e-05
0.000286195
-0.000262597
2.13641e-05
-0.000266701
-0.000241623
-2.13424e-05
3.265e-05
-9.0432e-05
0.000260194
0.000280744
-0.000286372
5.05122e-05
0.000237693
0.000282243
-0.000281963
-0.000243181
-2.39401e-05
0.000267121
-0.000260894
7.34723e-06
-0.000295538
1.95418e-05
0.000276072
-0.000268717
2.55361e-05
-8.45e-06
0.000290597
-0.000268326
0.000243549
2.47773e-05
-0.000232513
0.000210841
0.000280199
-0.000288604
-6.16002e-07
0.000260289
-0.000259673
-0.000301927
-1.613e-05
-0.000264573
2.35481e-05
-0.00024417
-2.41555e-05
-3.43281e-05
-0.000297996
0.000293918
0.000286674
-0.000158327
0.000296102
-0.000290732
2.30152e-05
4.91491e-06
0.00026227
-0.000255106
-7.16198e-06
0.000307543
-2.02243e-05
-0.000287319
5.95191e-05
-0.000246765
-2.19521e-05
-0.000356366
0.00024182
0.000283842
-0.00027847
2.33801e-05
-0.000187942
-1.58631e-05
-0.000306362
2.56451e-05
0.000280793
-0.000196987
0.00031094
-0.000113601
0.000259841
-0.000238533
-2.13081e-05
-0.000291671
2.94001e-05
0.000222097
-0.000251497
-0.000163373
0.000137828
-0.000165519
0.000251441
-0.000238029
-1.34121e-05
-0.000263873
3.40201e-05
-2.23161e-05
-0.000269837
0.000251469
0.000230427
3.12901e-05
-4.63917e-05
0.000202578
0.000232619
-0.000260499
-1.73884e-05
-3.18662e-06
0.000247427
-0.000244065
-0.000293334
-0.000237049
0.000265189
-2.81401e-05
0.000230096
3.22225e-05
-0.000268521
2.55921e-05
-0.000239905
-2.86161e-05
0.000228954
-0.000260706
-0.00028242
4.73202e-05
-0.000242005
0.000293356
-0.000283236
-0.000288393
1.32613e-05
0.000275375
-4.74894e-06
0.000217584
0.000228551
-0.00026107
0.000296885
-0.0001309
-0.000165985
0.000241529
-0.000261706
0.000270454
-0.000226213
-1.76681e-05
-0.000165103
0.000307757
-0.000142892
2.49649e-05
0.000222662
-0.000247627
-0.0001931
0.000193035
-0.000283702
0.000282406
7.01054e-06
-0.000290726
-0.000302485
0.000146693
0.000155793
0.000259995
-0.000239359
-2.06361e-05
-0.000215741
0.000193649
0.000261912
3.70712e-07
0.000257293
0.000232526
2.16797e-05
-0.000295019
-6.22191e-05
1.03523e-05
0.000232496
-0.000249689
1.75175e-05
-0.000230917
-2.37161e-05
0.000254633
-0.000242295
0.000263191
-2.08965e-05
8.26106e-05
0.000134034
2.01563e-05
-0.000305824
0.000285729
0.000256565
-1.80041e-05
-0.000238561
0.000243881
-0.000254017
1.0136e-05
-0.000226745
0.000207957
0.000223131
-0.000258923
-0.000244693
4.76842e-05
1.59468e-05
-0.000137682
-0.000218665
1.57921e-05
0.000245701
0.000280787
0.000294016
0.000305825
1.7123e-06
0.000249817
-0.000220417
2.51749e-05
0.000225009
-0.000250184
-0.000243178
0.000268865
-2.56873e-05
2.28201e-05
-0.000262725
-0.000114372
0.000296089
9.13126e-06
2.08181e-05
0.000261675
-0.000235103
-2.65721e-05
1.31723e-05
-0.00030379
0.000290653
0.000321665
-3.09462e-05
-0.000290719
0.000249733
1.63241e-05
0.000306157
-0.000292969
-0.000230345
-0.000112306
9.63204e-06
0.000250657
-4.9129e-05
-0.00020239
0.000251519
2.20333e-05
0.000246832
-0.000241686
-2.29629e-05
0.000260737
-2.24001e-05
0.000287712
-0.000268023
2.63369e-05
2.68241e-05
-0.000257965
0.000210617
-0.000207677
2.58161e-05
-0.000262865
0.000279886
0.000121744
-0.000256173
0.000134429
1.82879e-05
3.83461e-05
0.000162106
-0.000200287
-0.000239485
-2.85377e-05
3.97068e-05
0.000161891
-0.000201778
-0.000246691
0.000271066
-2.43747e-05
0.000209866
-0.000248826
1.98857e-05
1.73237e-05
-0.000173802
-3.03097e-05
0.00022669
-0.000257413
-2.88401e-05
0.000244245
-0.000215405
-2.16161e-05
0.000242985
-0.000221369
0.000201657
-0.000250786
-0.00027375
-0.000232905
-2.55081e-05
0.000258413
0.000241234
2.98318e-05
-0.000210678
-2.39197e-05
0.000235223
-2.18821e-05
-0.000224967
-0.000239345
6.28042e-05
0.000259004
-0.000229718
4.75106e-05
-0.000249901
-3.43393e-05
0.000257694
-0.000223354
0.000205675
-0.000240014
0.000261689
-1.1956e-05
-6.06763e-05
-0.000229573
-0.0002249
-1.72804e-05
0.000242528
0.000247109
5.3175e-05
0.000212448
-0.000265623
-0.000261095
0.000177353
-0.000231757
5.44042e-05
6.40928e-05
0.000136599
0.000259457
-0.000240915
-2.47224e-05
-0.000265385
0.000227165
3.82201e-05
-2.87813e-05
-0.000222158
0.00025094
-0.000284483
0.000264161
0.000234501
3.61761e-05
2.18821e-05
0.000234087
-0.000307217
0.000151089
0.000156129
0.000169136
-5.24179e-05
0.000254045
-0.000115192
2.56901e-05
0.000217446
-0.000243136
-0.000286245
0.000286835
9.26276e-06
0.000257377
-0.000245953
0.000208937
3.70161e-05
0.000254832
0.000244996
-1.95969e-05
-0.000246815
-2.02161e-05
-0.000263019
2.0724e-05
-0.000269215
2.24001e-05
2.79601e-05
0.000220024
-0.000247984
0.000242481
-0.000274597
1.32721e-05
0.00024679
-1.37878e-05
1.29279e-05
-0.000251221
-0.000328714
0.000124104
-0.000233135
-2.62109e-05
-0.000252113
0.000252113
0.000259782
-0.000144217
-1.86206e-05
-0.000278267
0.000296974
0.000275778
0.000258749
-0.000135913
0.000224113
2.39205e-05
0.00023468
7.82485e-05
-0.000341319
3.78238e-05
0.000258962
1.76363e-05
-0.000248843
-3.00917e-05
0.000207453
-3.01001e-05
0.000259701
2.95429e-05
0.000218353
-0.000247896
-3.05014e-05
-4.09782e-05
-0.000217818
0.000258797
-0.000233423
-2.14173e-05
3.72451e-05
-0.00019817
0.000160857
-3.30877e-05
0.000221671
-0.000255943
-0.000281834
-8.40024e-06
0.000290261
-0.000194826
0.000162802
0.000166349
8.16763e-05
1.26939e-05
-0.000294535
0.000235075
2.59446e-05
-0.000261019
-0.00019799
-1.2431e-06
0.000232743
-0.000264287
3.15449e-05
-8.42803e-06
-0.000217029
0.000225457
-0.000162113
0.000199508
-0.000249985
-3.46025e-05
0.000256274
0.000218076
-0.000252679
-0.000246289
0.000272245
-2.59561e-05
0.000253547
2.78321e-05
-0.000232062
-2.95821e-05
-0.000298273
0.000316478
-1.82272e-05
2.33874e-05
0.000212462
-0.000250254
-0.000267233
2.09441e-05
-2.12801e-05
-0.000245953
-3.61481e-05
0.00024861
-0.000290042
-1.37183e-05
0.00022082
-0.000256968
0.000247251
-0.000250278
1.79408e-06
2.80002e-06
0.000181413
-0.000184213
0.000255294
0.000234529
2.67681e-05
-2.62361e-05
0.000245001
-0.000218765
3.36001e-05
0.000216609
-0.000250209
0.000244861
2.73841e-05
0.000306545
-0.000143949
-0.000162597
1.56935e-05
0.000239739
-0.00025504
0.000271013
-0.000113568
0.000225569
-0.000256677
-0.000241369
0.000104899
-0.000265469
7.16803e-06
-0.000241635
-2.75801e-05
-0.000241361
-2.48081e-05
0.000310752
-2.74181e-05
-7.67483e-05
0.000243097
-1.1452e-05
-0.000215601
0.000224281
-8.68003e-06
0.000255193
-7.68883e-05
3.44151e-05
-0.000196638
0.000162331
-0.000265245
-1.40001e-07
-4.14962e-05
3.92811e-05
0.000158291
-0.000197869
0.000197746
-0.000163289
0.000257041
-7.05603e-06
0.000251151
-0.000218277
-1.82202e-05
-2.1128e-05
0.000270993
-9.42708e-05
-0.000178681
-1.42801e-05
-0.000191913
0.000206193
0.000258665
-1.53553e-05
-0.00024331
1.98101e-05
0.000238855
-0.000279975
-8.0544e-06
3.77669e-05
-0.00019544
0.000158658
1.36921e-05
0.000247997
-0.000161497
0.000199246
-1.95189e-05
0.000248711
3.27788e-05
0.000188646
-0.000221476
-4.17202e-06
-2.49389e-05
0.000265108
-0.000231955
-3.14693e-05
0.000297036
-0.000281769
-1.53513e-05
1.63717e-05
-0.000237659
0.000221288
-0.00010514
0.000226885
1.93009e-05
-0.000305238
0.000285936
2.52001e-05
-2.79441e-05
2.69165e-05
0.00030896
-0.000289659
0.000238891
1.97345e-05
2.15601e-06
0.000231617
-0.000233773
-0.000310313
2.56347e-05
0.000284674
-0.000162177
-0.000144145
0.000209178
-0.000250156
-0.000164571
0.000241924
1.90317e-05
0.000256159
-4.13534e-05
0.000250531
0.000214498
-0.000255851
0.000318798
-0.000318865
-1.07817e-05
0.000287278
-0.000276565
-0.000302881
1.96959e-05
0.000283129
4.20842e-05
-0.000286413
-3.90914e-05
0.000252483
2.62921e-05
-2.21008e-05
0.000307331
-0.000285252
2.43321e-05
3.95838e-05
0.000161103
-0.000200645
0.000249294
-0.000219751
2.83277e-05
-0.000261633
4.36802e-06
-1.9976e-05
0.000306634
-0.00028666
-0.000250987
-0.000266673
3.07441e-05
0.000252141
-0.000236741
-1.54001e-05
1.2264e-05
0.000239877
-0.000275225
-1.29601e-05
0.000255697
-6.23982e-06
0.000317326
-1.19556e-05
0.000298727
-0.000286851
-4.77333e-05
0.000247437
-0.000235621
0.000257601
-1.99361e-05
0.000132128
8.61305e-05
-0.000218406
0.000223625
3.03493e-05
0.000226759
-0.000258662
3.71393e-05
0.00027168
-0.00028878
1.6968e-05
0.000251273
-0.000239093
-1.31321e-05
0.000252225
-2.91201e-05
-0.000257265
2.56481e-05
0.000231617
-0.000228005
-2.92601e-05
0.000259765
-0.000233571
-2.61941e-05
0.000258721
-0.000267133
2.43916e-06
0.000289606
1.25348e-06
-0.000290892
0.000248974
-0.000233292
-1.85921e-05
0.000308813
-0.000300784
-8.01939e-06
0.000248176
-0.000101138
-0.000266897
2.56761e-05
0.000241221
-3.48881e-05
-0.000232009
-0.000266393
2.51161e-05
0.000241277
-1.22501e-05
-0.000267428
0.000279837
-3.45241e-05
-0.000231869
-0.000261869
1.88943e-05
-0.000266281
2.43881e-05
0.000241893
-0.000284041
-2.1718e-05
-0.000306282
2.7647e-05
0.000278627
-3.34041e-05
-0.000232877
-0.000170094
-0.000258133
2.94001e-05
0.000228733
0.000308927
-0.000308942
-0.000195805
0.000209049
-3.29281e-05
-0.000225205
0.000197416
-0.000279054
8.16358e-05
0.000283857
2.23439e-05
-0.000301953
1.76961e-05
0.00028581
-0.000281056
-4.93506e-06
-0.000257125
0.000231617
2.55081e-05
0.000170054
2.82834e-05
-0.00019835
-0.000266953
2.81681e-05
0.000238785
-0.000227361
-2.97641e-05
-3.67361e-05
-0.000230217
0.000274952
0.000297403
1.90999e-05
-0.000276268
-3.17198e-05
0.000307975
-0.000258679
-1.10182e-05
0.000297894
-0.000287113
1.50053e-05
-0.000301927
0.000286923
-0.000230609
-0.000307392
0.00028741
0.000263005
-2.55492e-05
-0.000280738
1.36081e-05
0.000166008
0.000230281
1.86819e-05
-0.000249901
-0.000200141
0.000161766
0.000236738
1.31517e-05
-0.00024989
-0.00025833
2.66093e-05
0.000231721
-1.09228e-05
0.000247661
5.74002e-06
0.000246877
-3.19817e-05
-0.000226348
0.000299519
-0.000285674
-1.3861e-05
0.000228024
-0.000226666
0.000289743
0.000237685
1.98521e-05
-0.000257537
-1.24236e-05
0.000250108
0.000246636
1.50389e-05
-0.000305476
1.53812e-05
0.00024448
2.18905e-05
3.23252e-05
-0.000199705
-0.000287505
-1.77301e-05
-0.000182869
0.000295177
-0.000150968
0.00018418
-3.32707e-05
3.11733e-05
-0.000198627
0.000168299
-0.000163012
0.000259149
-0.000239236
-1.99137e-05
0.000261584
-0.000273941
-0.000240119
0.000231436
-2.18982e-05
0.000301256
-0.000279345
0.000308001
-0.000292991
0.000242117
1.77241e-05
-0.000224975
0.00024443
-1.94545e-05
1.61001e-05
-0.000241075
-7.00003e-06
0.000260989
-0.000297145
4.88562e-06
0.000292255
-0.000174497
0.000160217
-1.74105e-05
-6.2857e-06
-0.000290869
-1.68084e-05
-0.000285116
4.28402e-06
-0.000300629
0.000135191
-0.000257455
2.37163e-05
0.000233748
0.000238197
1.32441e-05
-3.08138e-05
-0.000226634
-3.30658e-05
-0.000291537
2.07671e-05
-0.00022537
0.000204586
0.000254969
-0.000233465
-2.15041e-05
-0.000197227
0.000218403
-0.000185849
-7.44699e-06
0.000203176
0.000134085
0.000137134
3.98181e-06
0.00027111
0.000279933
-0.000305473
3.12467e-06
0.000243964
-1.98467e-05
0.000298711
-0.000278872
-0.000302305
0.000287502
1.48009e-05
-0.000258301
0.000230077
2.82241e-05
-2.64041e-05
-0.000231897
0.000301563
-0.000301565
0.0002674
-2.00129e-05
0.000304495
-0.000284492
0.000286149
-5.60944e-07
-0.000256873
0.000256873
-0.000268212
0.000295855
-0.000145082
-6.65991e-05
-7.00126e-06
0.000294923
-0.000287581
-0.000297865
0.000290675
0.000291895
-0.000279001
0.000290736
-0.000305907
1.47311e-05
3.41568e-05
-0.000241464
0.000217424
2.24097e-05
-1.45007e-05
-0.000246538
0.000229307
-1.43784e-05
0.000298294
-0.00028395
0.000263481
-1.96001e-05
0.000254224
-0.000235464
-1.87601e-05
-3.10227e-05
-0.000273793
0.000304813
1.43768e-05
-0.000297219
0.000282825
-1.45881e-05
0.000233465
-0.000218877
0.000208761
-0.000295356
0.000283299
-1.92502e-05
0.000304703
-0.000285455
0.00025102
-2.68868e-05
0.000297322
-0.000270432
-0.000295753
0.000268867
1.07156e-05
0.000244749
-0.000255465
0.000305247
-0.000312065
6.82335e-06
1.80724e-05
1.49336e-05
0.000286344
-0.000301354
6.32219e-06
0.000283241
2.33411e-06
-0.000318806
-0.000289846
0.000304693
-0.000242481
0.000243657
8.45603e-06
-0.0002264
0.000242772
-0.000293444
0.000274193
0.00028471
-0.00014967
-8.29584e-05
0.000294447
1.45074e-05
3.14304e-05
-0.00019674
0.000165713
-0.000274549
0.000257293
-0.000219535
0.00024982
0.000243411
1.92865e-05
-0.000262697
0.000236019
2.31309e-05
-0.000301275
0.000282821
0.000312402
-1.79613e-05
0.000237945
-0.000257069
1.91241e-05
-0.000222494
0.000247459
0.000294337
1.80553e-05
-0.000167978
-1.45209e-05
0.00029848
-0.000284005
-0.000142592
-0.000266415
0.000159993
0.000106423
-0.00030905
0.000295389
1.36648e-05
-0.000258699
0.000241826
1.68729e-05
-0.000153508
0.000155345
-0.000306375
0.000288564
1.78159e-05
-0.000216184
0.000179988
-9.69084e-06
0.000253101
2.04982e-05
1.75423e-05
-0.000304279
0.000286745
-0.000300814
-7.15511e-06
0.000307871
-0.000249229
0.000220109
-0.000201153
-8.52603e-05
-0.000272513
0.000251443
0.000303873
-0.000286329
-0.00019168
1.79982e-05
1.5062e-05
0.000284482
-0.000299554
-8.80603e-05
0.000239233
-0.000303479
1.94636e-05
0.000284037
-0.000207876
-2.81821e-06
-0.000297985
-0.000167487
2.05297e-05
0.000302795
-0.000288114
-1.4476e-05
-0.000171338
-0.000299235
-0.000175023
-2.26974e-05
0.000243528
0.000289491
1.7141e-05
0.000252869
5.75828e-05
-0.000284883
-0.000247213
-0.000270964
-2.34491e-05
-0.000274632
0.000300341
-0.000262778
0.000282383
-0.000164537
-4.0756e-05
0.000205598
0.000197569
1.56521e-05
-0.000213221
-1.24829e-05
-0.000285724
0.000298227
1.83597e-05
1.85539e-05
-0.000305385
0.000286813
0.000253345
-1.71361e-05
-0.000236209
1.89482e-05
-0.000304744
0.000285794
2.03561e-05
0.000232989
0.000216385
-2.46121e-05
-0.000191773
1.57715e-05
0.000282442
-0.000298212
-0.000250784
0.000117416
-0.000303791
1.86329e-05
0.000285155
0.00022133
-5.12777e-05
-0.000295948
1.54101e-05
0.00028089
0.000255837
-2.19801e-05
-0.000233857
-0.000303541
0.000106447
0.000234529
1.70521e-05
-0.000251581
0.000280113
1.68387e-05
0.000304143
-0.0002852
1.7779e-05
-0.000299572
0.000233512
1.84916e-05
-0.000252004
-1.90058e-05
-1.42425e-05
0.000298371
-0.00028415
-0.000280217
0.000299923
-0.000278015
0.000291866
-0.000303791
1.16577e-05
0.000249741
-1.62291e-05
1.15882e-05
0.000250041
-1.55121e-05
0.000298635
-0.000282913
3.95922e-05
-0.000237066