/*--------------------------------*- C++ -*----------------------------------*\
  =========                 |
  \\      /  F ield         | OpenFOAM: The Open Source CFD Toolbox
   \\    /   O peration     | Website:  https://openfoam.org
    \\  /    A nd           | Version:  12
     \\/     M anipulation  |
\*---------------------------------------------------------------------------*/
FoamFile
{
    format      ascii;
    class       surfaceScalarField;
    location    "2.9";
    object      phi;
}
// * * * * * * * * * * * * * * * * * * * * * * * * * * * * * * * * * * * * * //

dimensions      [1 0 -1 0 0 0 0];

internalField   nonuniform List<scalar> 
33852
(
0.000251329
2.24281e-05
-0.000273757
-0.000246121
1.32441e-05
0.000232877
-0.000174881
-7.03875e-05
0.000245578
0.000304053
-0.000163969
-0.000140085
0.000293529
-4.3038e-05
-0.000249657
2.72441e-05
-0.000260681
0.000233437
0.00031503
1.47357e-05
-0.000330203
0.000304277
-9.59564e-05
-0.000208321
0.000286413
-3.50841e-05
0.000201988
1.0021e-06
-0.000208076
0.00028944
-0.000366475
7.70332e-05
0.000360424
-4.56425e-05
-4.39602e-05
0.000263285
-0.000219325
-4.39498e-05
0.000318174
-0.000274136
6.05753e-05
-0.000235927
0.000252057
1.2236e-05
-0.000264293
0.000264853
-1.2796e-05
-0.000278433
3.23121e-05
0.000340662
-5.12331e-05
0.000158593
0.000112308
-0.000270901
-2.43128e-05
0.000303326
-0.000279028
0.000271377
-0.000276165
4.78802e-06
-1.7619e-05
0.000273659
-0.000256194
-0.000218853
1.42948e-05
0.00020857
-0.000154523
-0.000183506
0.000337702
-0.000139551
-6.48659e-05
0.000204119
3.72401e-05
0.000267037
-6.08089e-05
-0.000261815
0.000324507
-0.000209741
1.50995e-06
0.000208611
-0.000200473
-1.83883e-05
0.000142045
0.000137388
-0.000279433
0.000341166
1.92793e-05
0.000142618
0.000128347
-0.000270965
-0.000101136
0.000259729
-0.000250489
-3.78001e-06
0.000254269
0.000330691
-5.94992e-05
-0.000271229
-0.0003579
0.000203754
-0.000226381
0.000208662
0.000231645
3.32081e-05
-5.65602e-06
0.000237301
-7.94456e-06
0.000201195
-0.000232625
0.000259869
0.000315794
-5.74112e-05
-0.000258784
-0.000309093
5.51042e-05
0.000253989
0.000239668
-0.000299311
0.000273589
-0.000306321
3.27321e-05
-0.000180237
-5.49362e-05
0.000235173
0.000272133
-0.000272133
0.000148429
-0.000297473
0.000149045
-0.00021004
0.00021757
-7.44999e-06
-0.000268241
0.000237301
3.09401e-05
-0.000198469
0.000246044
-4.69082e-05
-9.16164e-05
-0.000217477
-0.000114546
-0.000251971
-0.000280169
0.000266113
1.40561e-05
0.000329825
1.18777e-05
-0.000250433
7.01963e-05
0.000117908
0.000145909
-0.000263817
1.34681e-05
-0.000267457
0.000253989
-0.000134569
0.000282997
-0.000150919
-4.99129e-05
0.000199592
-0.000274681
0.000245113
2.95681e-05
0.000237553
-0.000268437
3.08841e-05
-0.000186923
-2.31238e-05
0.000151665
0.000115565
-0.00026723
-0.000188809
-2.81778e-05
0.00022034
0.000263985
2.24281e-05
0.000275941
-2.35201e-06
0.000265329
-0.000250741
-1.45881e-05
0.000227632
-6.54527e-05
-0.000166656
-1.82001e-06
0.000239373
0.000367383
-0.000313186
-5.38949e-05
-2.81718e-05
0.000303366
-0.000274932
-0.000101584
0.000219493
0.000343198
2.41492e-05
-0.000373884
0.00035498
1.86294e-05
-0.000209828
2.22635e-05
0.000309198
-0.000321368
1.22288e-05
-0.000207153
0.000270186
-6.39119e-05
-4.45202e-06
1.70911e-05
-0.000319192
0.000301606
0.000234317
-0.000199651
-3.55807e-05
0.000268538
-0.000339093
6.98649e-05
0.000331643
-6.32629e-05
-0.000268941
0.000236573
3.23681e-05
-0.000129388
-0.000132609
0.000261997
-1.86761e-05
-0.000249565
-1.022e-05
-0.000258721
2.29354e-05
0.000210413
-0.000232844
3.17793e-05
-0.000230203
0.000190076
-2.49742e-05
0.000326316
-0.000303597
-0.000279329
0.000273701
5.62802e-06
0.000156129
-0.000296857
0.000140729
-6.03485e-05
-0.000154238
0.000216491
0.000143277
0.0001218
-0.000265077
-0.000250199
0.000225825
-0.000215022
0.000156027
-0.000168813
0.000327181
-0.000158369
0.000185389
7.16523e-05
-0.000257041
0.000255193
2.07481e-05
-0.000192277
0.000148317
5.02078e-05
0.000264829
0.000306556
-0.000289853
8.69389e-05
-0.000228157
0.000135241
0.000117096
-0.000281065
-9.18535e-07
0.000245415
-0.000244276
0.000166489
0.000122836
-0.000289325
0.00014323
8.93372e-05
-3.92002e-06
0.000259113
0.000303829
5.46734e-06
-0.000323945
0.000315122
8.90337e-06
-3.99002e-05
0.000236293
-0.000196393
4.08802e-06
-0.000284257
-2.54526e-05
0.000165377
-0.000137175
-0.000156667
0.000135002
0.000208873
-0.000184521
-0.000269921
0.000264965
4.95602e-06
2.64041e-05
0.000174721
-0.000201125
2.87841e-05
-0.000257265
0.000228481
0.000276137
-0.000262669
0.000115108
0.000212073
0.000215272
-0.00019144
-0.000175813
0.000202217
1.35954e-05
0.000282565
-0.00029659
0.000270938
2.17453e-05
0.000273032
-0.000285123
1.24724e-05
3.86402e-06
0.000267513
-1.83048e-05
0.000291204
0.000330631
9.962e-06
0.000213851
-0.000257739
0.000316851
-0.000316808
-6.63603e-06
-0.000272693
2.78902e-05
0.000192377
0.000187993
3.98722e-05
-0.000227865
-5.55034e-05
0.000224569
-0.000166129
0.000153609
-0.000270285
0.000116676
0.000279441
-0.000329701
5.02602e-05
-6.38122e-05
0.000249201
-0.000166909
0.000315897
-0.000148989
-0.000313895
-1.00111e-05
-0.000214929
0.000175029
2.78601e-05
-0.000278349
0.000276221
-1.88441e-05
-0.000248613
1.72144e-05
-0.000303097
0.000285325
0.000344989
-0.000158593
-0.000186397
-1.6833e-05
-0.00024043
0.000257133
-0.000266617
-3.30401e-06
0.000224001
2.45841e-05
-0.000248585
0.000284509
-0.000128381
0.000140197
0.000138853
-0.000279049
-0.000199678
-1.05126e-05
0.000258169
-0.000115551
0.000225783
-0.00024256
-6.38122e-05
0.000251805
-0.000209223
0.000249481
-5.60002e-07
-0.000248921
0.000255109
-0.000237441
-0.000325269
0.000298111
-3.08841e-05
0.000203169
-0.000172285
0.000291451
1.24765e-06
-0.000292363
7.88701e-05
0.000133389
-0.000209407
4.51754e-05
-0.00019659
-0.000289917
-4.76667e-06
0.000294911
-1.41745e-06
-0.000287402
0.000146973
-0.000273925
0.000126952
-0.00026256
0.000220384
-0.000294254
0.000266431
0.000279441
-0.000313171
-1.25048e-05
0.000325698
0.000109782
0.00016024
-2.14162e-05
0.000352068
0.000140141
0.000139833
-0.000279973
0.000245029
-0.000250349
5.32002e-06
-0.000210953
0.000180069
0.000279133
-5.43202e-06
0.000350745
-3.2592e-05
-0.000303236
0.000303329
-2.09818e-06
0.000270985
-0.000270985
-0.000364766
0.000225879
0.000138817
-0.000207816
1.95397e-05
1.69756e-05
0.000275157
-0.000278461
3.30401e-06
-5.20718e-06
0.000170194
-0.000167186
-0.000197345
0.000254801
-5.74562e-05
-0.000203083
4.37822e-06
-0.000230109
0.00015468
7.73363e-05
-0.000180264
0.000261403
-8.11386e-05
0.000256285
-0.000287113
3.08281e-05
-0.000249229
5.18842e-05
-2.35337e-05
0.000275617
-0.00025212
-0.000253547
1.35801e-06
0.000252189
0.000231281
-7.28003e-06
-0.000294371
7.54701e-06
0.000286834
-0.000266085
0.000266085
-0.000284588
-5.51067e-05
-0.000170749
-0.000194039
-0.000171753
0.000216532
-4.48139e-05
-1.232e-05
-0.000239177
0.000251497
3.10801e-06
0.000210113
-0.000213221
-0.000186841
-2.24373e-05
0.000210086
7.6003e-06
0.000294517
-0.000302113
-0.000236153
-1.34401e-05
0.000249593
1.50361e-05
-0.000251189
-0.000241025
0.000256061
-0.000301362
0.00030896
0.000256117
7.16803e-06
-0.000171366
-3.19519e-05
0.000198244
-0.000145237
-0.000134765
-0.000244329
0.000240549
0.000298577
-4.1877e-07
-0.000298201
-0.000298786
5.90431e-07
0.000298198
1.91567e-05
0.000181217
0.000163773
7.70043e-05
-0.000257269
-0.000159242
0.000310908
0.000250721
-0.000108677
-0.000235145
-1.83681e-05
0.000253513
-0.000204543
-0.000126882
0.00033138
-6.10402e-06
-0.000229125
0.000235229
-2.23325e-05
-0.000186463
-0.000287567
-8.60483e-05
6.32715e-06
-0.000300674
-0.000212744
0.000328285
-0.00011525
0.000281597
0.000288205
-5.16322e-05
0.000271993
-1.57081e-05
-0.000187647
-1.39407e-05
0.000201336
0.000297577
3.52023e-07
-0.000297893
-0.000270046
-3.28169e-05
-0.000218821
0.000247605
-2.52363e-05
0.000310581
-0.000285318
0.000182558
7.79802e-06
-0.000190318
-3.45752e-05
0.000213504
-0.000301256
0.000276022
0.000292584
5.26806e-06
-0.000298012
0.000157445
0.00011886
-0.000276305
0.000286991
5.65068e-06
-0.000292978
-0.000245519
0.000114761
0.000126992
-0.00028193
0.000295443
0.000302513
-0.000156857
-0.000145657
0.000207005
-0.000203897
-0.000232009
-0.000121156
-0.000155009
-4.09232e-06
-0.000294065
0.000298164
-1.0136e-05
0.000276249
0.000290382
-2.01774e-05
-0.000269161
-0.000262897
2.91186e-05
0.000233735
0.000271433
-0.000267569
0.000249621
2.95121e-05
0.000314838
-9.72599e-06
-0.000305041
4.9497e-05
0.000158083
-0.000207529
-9.81825e-05
0.000194774
-9.58829e-05
0.000252617
-2.91201e-05
-0.000223497
4.9736e-07
0.000291658
-0.000176278
-3.16855e-05
0.000207894
-2.31699e-06
0.000290047
-9.33244e-05
0.000246933
-0.000255417
-5.26402e-06
0.000121184
0.000181329
1.34121e-05
0.000241557
-0.000254969
0.000236097
1.34961e-05
-0.000249593
0.000249509
-0.000242929
0.000256425
6.31295e-05
-0.00020031
0.000137365
-0.000212987
0.0001143
-0.000207731
0.000297216
1.42999e-06
-0.000298641
0.000253849
2.22881e-05
0.000268493
-0.000216441
-5.20522e-05
0.000225518
-0.000246849
2.13305e-05
0.000257909
1.40841e-05
5.88666e-05
0.000295886
0.000267186
-3.89594e-05
-0.000228226
0.000173349
1.274e-05
0.000240297
-0.000253037
0.000194477
-0.000114836
-7.94696e-05
-0.000206707
2.14681e-05
-1.29232e-06
-0.000297945
0.000299183
0.000221076
-0.000166899
-5.24099e-05
0.000344696
-4.13344e-05
0.000275969
-0.000135829
2.31561e-05
0.000238337
-0.000261493
-0.000231141
0.000254297
-2.66655e-05
-0.000229711
0.000256401
0.000157348
-0.000164123
-7.95814e-05
-0.00017062
-0.000261723
4.14346e-05
0.000220288
-3.17521e-05
-0.00022997
6.53793e-06
0.000261717
-3.25193e-05
-0.000229198
1.66867e-05
0.000121625
-0.000188515
0.000308785
-0.000171397
0.000262319
-3.57923e-05
-0.000226526
-0.000319598
0.000182118
-0.000102958
-0.000228453
-6.90203e-05
-7.8183e-07
-0.000298707
0.000299234
-2.80661e-05
0.000180376
-0.000151507
0.000308098
6.8696e-06
0.000250097
-0.000248249
-1.84801e-06
-0.000176299
6.11725e-05
0.000260265
-3.07093e-05
-0.000229536
0.000197345
-0.000250769
5.34242e-05
0.000254206
-0.000231206
-2.29991e-05
-0.000252337
0.000240017
0.000144849
0.000102601
-0.000101864
-0.000170269
0.000132496
-0.000261885
-0.000290249
0.000242201
4.80483e-05
0.00021681
3.12479e-05
-0.000248056
-0.000237659
-9.50345e-06
0.00024782
0.00032678
-2.30818e-05
0.000263996
-3.42721e-05
-0.000229724
0.000141042
-0.000228196
8.98409e-05
3.63259e-05
-0.000265637
0.000229311
-0.000253905
0.000121296
0.000249817
-5.24722e-05
0.000294673
-0.000154253
-0.000140421
0.000122248
-0.000289157
1.53441e-05
0.000237665
-0.000253009
-0.000262031
3.54705e-05
0.00022656
-2.76951e-06
-3.77917e-05
-0.000224239
0.000248461
-0.000272011
-0.000264649
3.44737e-05
0.000230175
0.000193257
0.000101416
-0.000149941
0.000290137
-0.000171818
-3.81758e-05
0.00020684
-1.81721e-05
0.000263201
-0.000293203
0.000309946
0.00011786
0.000104043
0.000261325
-0.000261325
0.000306134
-1.8874e-05
-0.000289205
5.32002e-07
0.000248949
0.000254857
1.65761e-05
0.00030983
-0.000276535
-3.32033e-05
-2.26336e-05
0.000266577
-0.000243943
3.00077e-05
-0.000260519
0.000230511
-0.000252139
0.000229506
0.000325164
3.11501e-05
-0.000260598
0.000229447
0.000276809
-3.16961e-05
-6.97471e-06
-0.000291739
0.000299777
0.000270899
3.89034e-05
0.000230245
-0.000266617
3.63721e-05
0.000199772
-0.000201202
-0.000258301
0.000238533
1.97681e-05
0.000169762
-0.000257245
8.74835e-05
-0.000206702
0.000163241
-0.000249145
8.59043e-05
-0.000266169
0.000224813
4.13562e-05
0.000253073
-2.78797e-05
-0.000225194
0.00018158
4.40723e-05
-0.000234837
-2.29601e-05
0.000257797
-0.000236377
-2.28761e-05
0.000259253
-1.94265e-05
0.000255969
-0.000236542
-0.000259345
0.000239919
-3.18994e-05
0.000178292
-0.000235929
-2.24001e-05
0.000258329
-0.00025484
0.000229192
2.56481e-05
2.94001e-06
0.000211289
-0.000214229
-0.000267031
3.79849e-05
0.000229046
0.000270677
4.48002e-06
4.25344e-05
0.000161771
-0.000207371
-3.31191e-05
0.000249929
-2.09995e-05
0.000218597
9.73004e-05
0.000248197
-0.000216946
0.00027829
-0.000279092
0.000278363
-0.000282806
-1.84997e-05
0.000258601
-0.000240101
-0.000261644
0.000243145
3.05043e-05
-0.000202773
-2.98661e-05
-0.000206963
0.000239032
0.000314512
-0.000287029
-2.73798e-05
0.000261297
-3.11081e-05
-0.000230189
3.28739e-05
-0.000262362
0.000229488
-0.000229853
0.000259645
-2.97921e-05
0.000325921
-1.76692e-05
0.000145592
-0.000214915
0.000256929
-0.000109956
-0.00028591
0.000287548
0.000241977
-6.41202e-06
-0.000235565
0.000228537
-0.000181078
-3.73751e-05
0.00022218
2.87763e-05
-0.000205802
-0.000239989
0.000260317
-2.03281e-05
-0.000104349
0.000190237
-8.76513e-05
3.04983e-05
-0.000203956
0.000240169
-0.000263424
2.32552e-05
-0.000115584
0.000258861
-0.000243993
0.000265721
-2.17281e-05
-0.000238953
0.000232541
0.000258626
-0.000245105
-1.35213e-05
0.000264349
-2.46681e-05
-0.000246317
-0.000272917
-1.05392e-05
0.000299497
-5.39349e-05
-8.38564e-06
0.000293514
-0.000283435
-0.00017173
0.000212071
0.000226695
1.84342e-05
-0.000246888
0.000328544
-0.000328546
0.000260955
-0.000245018
-1.59377e-05
-0.000302525
-8.14649e-07
0.00030495
9.75851e-06
3.76036e-05
0.000171278
-0.000210047
0.000214838
-3.47313e-05
-0.000178451
0.000278054
-0.000255789
-2.22648e-05
-0.000208554
3.13332e-05
3.15421e-05
-0.000261891
0.000230348
0.000285289
-0.000292192
2.44721e-05
-0.000259617
-0.000257965
1.87881e-05
0.000266057
-1.64361e-05
0.000151173
-0.000267625
0.000116452
0.00029898
-4.46479e-06
0.000238617
-7.53763e-05
2.12521e-05
0.000177045
-0.000198297
-0.000183877
0.000205129
-0.000236275
0.000257219
-2.09441e-05
0.000261462
-3.31689e-05
-0.000228293
-0.000197009
-5.21362e-05
0.000251581
-1.48401e-06
9.00451e-06
-0.000264643
0.00025581
-0.000341966
0.000235043
0.00010586
0.000266371
-0.000236811
-2.95597e-05
0.000306773
-0.000314621
7.84743e-06
-2.57041e-05
-0.000229097
0.000254801
0.000261493
-7.64403e-06
1.02054e-05
-0.000209998
0.000262411
-3.19033e-05
-0.000230508
-6.90483e-05
-0.000260653
-0.000194685
0.000248025
-5.33402e-05
-0.000266533
0.000249985
1.65481e-05
-0.000318043
1.66788e-05
-1.72371e-05
0.000296721
-0.000279511
-0.000276221
1.65481e-05
0.000249537
-0.000169961
6.53009e-05
0.000273765
1.48329e-05
-0.000288498
-0.000316038
0.000307819
8.22121e-06
3.46641e-05
-0.000263649
0.000228985
-1.74805e-05
0.000281403
-0.000315181
1.64048e-05
-0.000176541
-7.42283e-05
-0.000234718
0.000206222
-2.16721e-05
-0.000216469
0.000238141
-0.000314981
0.000295995
1.88832e-05
-0.000133354
0.000273465
-0.000141623
-8.40747e-06
3.31521e-05
-0.000263453
0.000230301
-0.000203626
2.47634e-05
0.000177071
0.000221546
0.000280887
-0.000281121
2.71657e-07
-0.000236993
-2.20921e-05
0.000224813
-0.000202721
0.000139273
0.000143753
-0.000278517
0.000199097
-5.65338e-05
0.000308237
-1.06511e-05
0.000209397
-0.000268905
2.92853e-05
0.00022306
-0.000252345
-0.000322048
0.000138035
0.000296699
2.92624e-05
1.94464e-05
-0.000224355
-2.77845e-05
-0.000136802
-0.000132853
-0.000326656
0.000113909
0.000242873
2.56201e-05
0.000218765
-0.000224869
1.09824e-05
-0.000288263
0.000276242
-0.000243171
0.000270836
-2.71308e-05
0.000281374
-0.000281784
0.000287577
-7.70998e-05
-8.84023e-06
0.000290228
-1.87881e-05
0.000247101
-0.000228313
0.000281415
-0.000290249
-5.61776e-06
-0.000283901
0.000289502
0.000282011
-0.000269613
0.00028445
0.000226314
2.67597e-05
-0.000309141
0.000316988
-7.64182e-06
0.000249449
-2.18941e-05
0.000227069
2.48895e-05
-0.000268913
0.000246057
-2.05381e-05
-0.000259401
3.02849e-05
0.000229116
0.000178305
7.64963e-05
9.91071e-06
0.00028065
-0.000291843
-0.000238141
-2.88401e-05
0.000266981
2.51441e-05
-0.000263285
0.000284117
-0.000162317
-0.000232177
0.000261129
-2.89521e-05
-0.000234697
0.000260709
-2.60121e-05
1.42296e-06
0.000279462
2.45001e-05
-0.000259197
2.38001e-05
-0.000255977
0.000274267
-0.000242897
-3.13881e-05
0.000317816
-9.97226e-06
-0.00030604
-3.13871e-06
-0.000255753
1.1816e-05
0.000243937
-1.68599e-05
-0.000261185
0.000228066
-0.000245337
0.000270145
-2.48081e-05
-0.000263229
1.49801e-05
-2.36272e-05
0.000286091
-0.000262498
2.13641e-05
-0.000266701
-0.000241722
-2.12911e-05
3.26062e-05
-9.0432e-05
0.000260194
0.00028084
-0.000286503
5.05122e-05
0.000237693
0.000282342
-0.000281884
-0.000243181
-2.39401e-05
0.000267121
-0.000260894
7.34723e-06
-0.000295651
1.95413e-05
0.000276234
-0.000268717
2.55361e-05
-8.25806e-06
0.000290786
-0.000268326
0.000243548
2.47773e-05
-0.000232513
0.000210841
0.000279929
-0.000288164
-6.16002e-07
0.000260289
-0.000259673
-0.000301911
-1.61168e-05
-0.000264573
2.35481e-05
-0.00024417
-2.41555e-05
-3.43281e-05
-0.00029809
0.00029401
0.000286674
-0.000158327
0.000296223
-0.000290125
2.30152e-05
4.91717e-06
0.000262695
-0.000255516
-7.12691e-06
0.000307506
-2.02509e-05
-0.000287243
5.93099e-05
-0.000246765
-2.19521e-05
-0.000356523
0.0002419
0.000284948
-0.000280931
2.33801e-05
-0.000185919
-1.5672e-05
-0.000306252
2.56707e-05
0.000280748
-0.000197002
0.000310566
-0.000113766
0.000259841
-0.000238533
-2.13081e-05
-0.000291742
2.94001e-05
0.000222097
-0.000251497
-0.00016492
0.000137131
-0.000163137
0.000251441
-0.000238029
-1.34121e-05
-0.000263873
3.40201e-05
-2.23161e-05
-0.000269837
0.000251469
0.000230427
3.12901e-05
-4.65456e-05
0.000204812
0.000232619
-0.000260499
-1.74082e-05
-3.16378e-06
0.000246829
-0.000243515
-0.000293262
-0.000237049
0.000265189
-2.81401e-05
0.000230096
3.22225e-05
-0.000268521
2.55921e-05
-0.000239905
-2.86161e-05
0.000228954
-0.000260706
-0.00028247
4.73202e-05
-0.000242005
0.000292755
-0.000283169
-0.000288269
1.30882e-05
0.000275446
-4.59793e-06
0.000220925
0.000228551
-0.00026107
0.000296885
-0.0001309
-0.000165985
0.000241764
-0.000261327
0.000270719
-0.000226213
-1.76681e-05
-0.000164479
0.000307198
-0.000142916
2.49649e-05
0.000222662
-0.000247627
-0.000193521
0.000193379
-0.000283798
0.00028246
7.01241e-06
-0.00029081
-0.000302485
0.000146693
0.000155793
0.000259995
-0.000239359
-2.06361e-05
-0.000215741
0.000193649
0.000262324
3.22447e-07
0.000257293
0.000232526
2.16799e-05
-0.000295735
-6.12295e-05
1.02657e-05
0.000232551
-0.00025032
1.73272e-05
-0.000230917
-2.37161e-05
0.000254633
-0.000242295
0.000263191
-2.08965e-05
8.2978e-05
0.000134761
2.00849e-05
-0.000305783
0.000285733
0.000256565
-1.80041e-05
-0.000238561
0.000243881
-0.000254017
1.0136e-05
-0.000226745
0.000207957
0.000223131
-0.000258923
-0.000244693
4.76842e-05
1.59358e-05
-0.000137688
-0.000218871
1.57921e-05
0.000245701
0.000280323
0.000294954
0.000305809
1.74347e-06
0.000249817
-0.000220417
2.51749e-05
0.000225009
-0.000250184
-0.000243178
0.000268865
-2.56873e-05
2.28201e-05
-0.000262725
-0.00010903
0.00029613
9.10193e-06
2.08181e-05
0.000261675
-0.000235103
-2.65721e-05
1.30645e-05
-0.000303664
0.000290788
0.000321753
-3.09532e-05
-0.000290815
0.000249733
1.63241e-05
0.000306023
-0.000292833
-0.000230814
-0.000112709
9.63204e-06
0.000250657
-4.9129e-05
-0.00020239
0.000251519
2.20333e-05
0.000246832
-0.000241686
-2.29629e-05
0.000260737
-2.24001e-05
0.000287796
-0.000268023
2.63369e-05
2.68241e-05
-0.000257965
0.000210617
-0.000207677
2.58161e-05
-0.000262865
0.000279753
0.000121744
-0.000256173
0.000134429
1.85051e-05
3.78808e-05
0.000157856
-0.000196865
-0.000239485
-2.85377e-05
4.05331e-05
0.000165878
-0.000205688
-0.000246691
0.000271066
-2.43747e-05
0.000209866
-0.000248826
1.98857e-05
1.7319e-05
-0.000173497
-3.00702e-05
0.000226707
-0.000257413
-2.88401e-05
0.000244245
-0.000215405
-2.16161e-05
0.000242985
-0.000221369
0.000201657
-0.000250786
-0.000273572
-0.000232905
-2.55081e-05
0.000258413
0.000241234
2.98318e-05
-0.000212267
-2.39492e-05
0.000234971
-2.18821e-05
-0.000224967
-0.000239345
6.28042e-05
0.000259004
-0.000229718
4.75106e-05
-0.000249901
-3.43394e-05
0.000257694
-0.000223354
0.000205675
-0.000240014
0.000261689
-1.1956e-05
-6.06764e-05
-0.000229572
-0.000224789
-1.72957e-05
0.000242508
0.000247109
5.3175e-05
0.000212448
-0.000265623
-0.000261098
0.000177353
-0.000231757
5.44042e-05
6.37713e-05
0.000135654
0.000259457
-0.000240915
-2.47224e-05
-0.000265385
0.000227165
3.82201e-05
-2.87813e-05
-0.000222158
0.00025094
-0.000284746
0.000264161
0.000234501
3.61761e-05
2.18821e-05
0.000234087
-0.000307217
0.000151089
0.000156129
0.000171047
-5.28953e-05
0.000254045
-0.000115192
2.56901e-05
0.000217446
-0.000243136
-0.000286227
0.000287089
9.28168e-06
0.000257377
-0.000245953
0.000208937
3.70161e-05
0.000254832
0.000247454
-1.93353e-05
-0.000246815
-2.02161e-05
-0.000263019
2.0724e-05
-0.000269215
2.24001e-05
2.79601e-05
0.000220024
-0.000247984
0.000242481
-0.000274597
1.32721e-05
0.000246932
-1.3894e-05
1.30128e-05
-0.000250643
-0.000328598
0.00012398
-0.000233135
-2.62109e-05
-0.000252113
0.000252113
0.000259782
-0.000144217
-1.81435e-05
-0.000278779
0.000297396
0.000276305
0.000258749
-0.000135913
0.000224113
2.39205e-05
0.00023468
7.76747e-05
-0.000339444
3.7955e-05
0.000258962
1.76364e-05
-0.000248843
-3.00917e-05
0.000207453
-3.01001e-05
0.000259701
2.95429e-05
0.000218353
-0.000247896
-3.05014e-05
-4.09782e-05
-0.000217818
0.000258797
-0.000233423
-2.14173e-05
3.7119e-05
-0.00019957
0.00015995
-3.30877e-05
0.000221671
-0.000255943
-0.000281722
-8.41987e-06
0.000290109
-0.000195676
0.000160133
0.000166349
8.16763e-05
1.26958e-05
-0.000294802
0.000235075
2.59446e-05
-0.000261019
-0.000198072
-1.40822e-06
0.000232743
-0.000264287
3.15449e-05
-8.42803e-06
-0.000217029
0.000225457
-0.000164303
0.000200041
-0.000249985
-3.46025e-05
0.000256274
0.000218076
-0.000252679
-0.000246289
0.000272245
-2.59561e-05
0.000253547
2.78321e-05
-0.000232062
-2.95821e-05
-0.000298304
0.000316509
-1.82465e-05
2.34156e-05
0.000212462
-0.000250254
-0.000267233
2.09441e-05
-2.12801e-05
-0.000245953
-3.61481e-05
0.00024861
-0.000289907
-1.3671e-05
0.00022082
-0.000256968
0.00024609
-0.000250838
1.49793e-06
2.80002e-06
0.000181413
-0.000184213
0.000255294
0.000234529
2.67681e-05
-2.62361e-05
0.000245001
-0.000218765
3.36001e-05
0.000216609
-0.000250209
0.000244861
2.73841e-05
0.000306545
-0.000143949
-0.000162597
1.5738e-05
0.000238926
-0.000253203
0.000271013
-0.000113568
0.000225569
-0.000256677
-0.000240895
0.00010488
-0.000265469
7.16803e-06
-0.000241635
-2.75801e-05
-0.000241361
-2.48081e-05
0.00031062
-2.7392e-05
-7.67483e-05
0.000243097
-1.1452e-05
-0.000215601
0.000224281
-8.68003e-06
0.000255193
-7.68883e-05
3.40399e-05
-0.000192941
0.000158877
-0.000265245
-1.40001e-07
-4.14962e-05
3.92336e-05
0.000157275
-0.000200083
0.000195459
-0.000161025
0.000257041
-7.05603e-06
0.000251151
-0.000218277
-1.82508e-05
-2.1128e-05
0.000282084
-9.65221e-05
-0.000184279
-1.42801e-05
-0.000191913
0.000206193
0.000258665
-1.53553e-05
-0.00024331
1.98101e-05
0.000238855
-0.000280175
-8.10797e-06
3.71951e-05
-0.000195027
0.000161691
1.36921e-05
0.000247997
-0.000158574
0.000200166
-1.95189e-05
0.000248711
3.25901e-05
0.000190924
-0.000220875
-4.17202e-06
-2.49389e-05
0.000265108
-0.000231955
-3.14693e-05
0.000296901
-0.000281372
-1.55071e-05
1.63717e-05
-0.000237659
0.000221288
-0.00010514
0.000226885
1.92678e-05
-0.000305196
0.000285798
2.52001e-05
-2.79441e-05
2.69165e-05
0.000308742
-0.000289552
0.000238891
1.97345e-05
2.15601e-06
0.000231617
-0.000233773
-0.00031023
2.55808e-05
0.000284573
-0.000162177
-0.000144145
0.000209178
-0.000250156
-0.000166141
0.000241924
1.90317e-05
0.000254703
-4.13534e-05
0.000250531
0.000214498
-0.000255851
0.000318573
-0.000318656
-1.05915e-05
0.000286562
-0.00027635
-0.000302986
1.95736e-05
0.000283588
4.20842e-05
-0.000286413
-3.88009e-05
0.000252483
2.62921e-05
-2.21324e-05
0.000307402
-0.000285244
2.43321e-05
3.91988e-05
0.000159655
-0.000198407
0.000249294
-0.000219751
2.83277e-05
-0.000261633
4.36802e-06
-2.00129e-05
0.000306865
-0.000286686
-0.000250987
-0.000266673
3.07441e-05
0.000252141
-0.000236741
-1.54001e-05
1.2264e-05
0.000239877
-0.000275309
-1.28874e-05
0.000255697
-6.84558e-06
0.000314589
-1.21506e-05
0.000298525
-0.000287547
-4.90332e-05
0.000247437
-0.000235621
0.000257601
-1.99361e-05
0.000126294
8.19453e-05
-0.000209367
0.000212848
3.03493e-05
0.000226759
-0.000258662
3.71393e-05
0.00027119
-0.000289034
1.68907e-05
0.000251273
-0.000239093
-1.31321e-05
0.000252225
-2.91201e-05
-0.000257265
2.56481e-05
0.000231617
-0.000228005
-2.92601e-05
0.000259765
-0.000233571
-2.61941e-05
0.000258721
-0.000267024
2.2269e-06
0.000288376
1.32597e-06
-0.000289499
0.000249983
-0.000233268
-1.85921e-05
0.000308702
-0.000300728
-8.02198e-06
0.000240549
-9.92804e-05
-0.000266897
2.56761e-05
0.000241221
-3.48881e-05
-0.000232009
-0.000266393
2.51161e-05
0.000241277
-1.22185e-05
-0.000268007
0.00028013
-3.45241e-05
-0.000231869
-0.000261768
1.9108e-05
-0.000266281
2.43881e-05
0.000241893
-0.000283968
-2.17275e-05
-0.00030618
2.76443e-05
0.000278716
-3.34041e-05
-0.000232877
-0.000172177
-0.000258133
2.94001e-05
0.000228733
0.00030929
-0.000308738
-0.000195805
0.000209049
-3.29281e-05
-0.000225205
0.0001974
-0.000279102
8.16034e-05
0.000283866
2.23429e-05
-0.000301953
1.76961e-05
0.000285408
-0.000280676
-4.70591e-06
-0.000257125
0.000231617
2.55081e-05
0.000175469
2.79952e-05
-0.000200074
-0.000266953
2.81681e-05
0.000238785
-0.000227361
-2.97641e-05
-3.67361e-05
-0.000230217
0.000275704
0.000297372
1.9117e-05
-0.000276245
-3.16555e-05
0.000307886
-0.000258679
-1.11424e-05
0.000297158
-0.000285886
1.50006e-05
-0.00030178
0.00028693
-0.000230609
-0.000307583
0.000287709
0.000263005
-2.55096e-05
-0.000280536
1.36081e-05
0.000164788
0.000231277
1.84007e-05
-0.000249982
-0.00019867
0.000158145
0.000236738
1.31517e-05
-0.00024989
-0.00025833
2.66093e-05
0.000231721
-1.09228e-05
0.000247661
5.74002e-06
0.000246877
-3.19817e-05
-0.000226348
0.000299331
-0.000285553
-1.38059e-05
0.000228024
-0.000226666
0.0002896
0.000237685
1.98521e-05
-0.000257537
-1.24236e-05
0.000250108
0.000246636
1.50389e-05
-0.000305423
1.53814e-05
0.00024448
2.18905e-05
3.20664e-05
-0.000197689
-0.000287514
-1.77792e-05
-0.000182869
0.000295177
-0.000152812
0.000184836
-3.35439e-05
3.09273e-05
-0.00019928
0.000172838
-0.000160953
0.000259149
-0.000239236
-1.99137e-05
0.000261295
-0.000273082
-0.000238801
0.00023067
-2.18656e-05
0.000301078
-0.000279231
0.000307985
-0.000292909
0.000242117
1.77241e-05
-0.000224975
0.00024443
-1.94545e-05
1.61001e-05
-0.000241075
-7.00003e-06
0.000260989
-0.00029715
4.87206e-06
0.000292286
-0.000174497
0.000160217
-1.74105e-05
-6.27226e-06
-0.000290872
-1.67757e-05
-0.000284954
4.28402e-06
-0.000299614
0.000134752
-0.000257465
2.37402e-05
0.000233714
0.000238197
1.32441e-05
-3.08057e-05
-0.000226661
-3.32692e-05
-0.000293738
2.15822e-05
-0.000225288
0.000201215
0.000254969
-0.000233465
-2.15041e-05
-0.000195149
0.000213074
-0.000185939
-7.41644e-06
0.000203091
0.000134369
0.000139092
3.88827e-06
0.000270548
0.000279901
-0.000305295
3.61992e-06
0.000242782
-1.98287e-05
0.000298677
-0.00027888
-0.000302129
0.000287379
1.47525e-05
-0.000258301
0.000230077
2.82241e-05
-2.64041e-05
-0.000231897
0.000303912
-0.000302299
0.000267208
-1.99972e-05
0.000304568
-0.000284587
0.000286106
-7.13162e-07
-0.000256873
0.000256873
-0.000268127
0.000295935
-0.00014402
-6.62397e-05
-6.81731e-06
0.000295522
-0.00028832
-0.000297061
0.000290217
0.000291728
-0.000279042
0.000290575
-0.000305608
1.49345e-05
3.39271e-05
-0.000240984
0.000216948
2.26848e-05
-1.44855e-05
-0.000246492
0.00022873
-1.4267e-05
0.000298077
-0.000283559
0.000263481
-1.96001e-05
0.000254224
-0.000235464
-1.87601e-05
-3.09802e-05
-0.000273623
0.000304703
1.43914e-05
-0.000297174
0.000282891
-1.45881e-05
0.000233465
-0.000218877
0.000205997
-0.000295696
0.000283419
-1.91983e-05
0.000304499
-0.000285333
0.00025102
-2.69448e-05
0.000297346
-0.000270688
-0.000295705
0.000268684
1.07156e-05
0.000244749
-0.000255465
0.000305254
-0.000312038
6.79621e-06
1.82164e-05
1.51893e-05
0.000286902
-0.000301764
6.28451e-06
0.000283885
2.32487e-06
-0.000318925
-0.00028852
0.00030372
-0.000242481
0.000243657
8.45603e-06
-0.0002264
0.000242772
-0.000293373
0.000274062
0.000284421
-0.00014613
-8.15302e-05
0.000294259
1.4481e-05
3.12203e-05
-0.00019784
0.000163672
-0.000274653
0.000257293
-0.000219535
0.00024982
0.000243411
1.92865e-05
-0.000262697
0.000236019
2.31309e-05
-0.000301541
0.000283098
0.000312207
-1.79322e-05
0.000237945
-0.000257069
1.91241e-05
-0.000222494
0.000247459
0.000294246
1.80528e-05
-0.000169988
-1.44885e-05
0.000298356
-0.000283646
-0.000141983
-0.000266415
0.000159993
0.000106423
-0.000309048
0.000295314
1.3683e-05
-0.000258699
0.000241826
1.68729e-05
-0.000158261
0.000156482
-0.000306548
0.000288614
1.77806e-05
-0.000219047
0.000183158
-9.69084e-06
0.000253101
2.04781e-05
1.74912e-05
-0.00030413
0.000286525
-0.000301028
-7.1491e-06
0.000308064
-0.000249229
0.000220109
-0.000201153
-8.52603e-05
-0.000273222
0.000251195
0.00030381
-0.000286345
-0.000191645
1.78292e-05
1.50628e-05
0.000284584
-0.000299658
-8.80603e-05
0.000239233
-0.000303476
1.94343e-05
0.000284021
-0.000209059
-2.88629e-06
-0.000298111
-0.000169879
2.05297e-05
0.000302803
-0.0002884
-1.45118e-05
-0.000167513
-0.000298979
-0.000175065
-2.27909e-05
0.000243528
0.000289754
1.71674e-05
0.000252869
5.74365e-05
-0.000285212
-0.000247213
-0.000270473
-2.32752e-05
-0.000274633
0.000300367
-0.000262575
0.000282416
-0.000170268
-4.17355e-05
0.000213122
0.000197569
1.56521e-05
-0.000213221
-1.25112e-05
-0.000285762
0.000298279
1.83597e-05
1.85846e-05
-0.000305328
0.000286762
0.000253345
-1.71361e-05
-0.000236209
1.89339e-05
-0.000304758
0.000285803
2.03561e-05
0.000232989
0.000216385
-2.46121e-05
-0.000191773
1.57049e-05
0.000282447
-0.000298241
-0.000251812
0.000117865
-0.000303902
1.86969e-05
0.000285268
0.000228344
-5.23327e-05
-0.000295165
1.22517e-05
0.000286267
0.000255837
-2.19801e-05
-0.000233857
-0.000302915
0.000106341
0.000234529
1.70521e-05
-0.000251581
0.000279884
1.7022e-05
0.000304122
-0.000285207
1.7846e-05
-0.000299298
0.000233512
1.84916e-05
-0.000252004
-1.90939e-05
-1.42076e-05
0.000298113
-0.000284059
-0.000280433
0.000300216
-0.000278478
0.000290126
-0.000303655
1.28706e-05
0.000249741
-1.62291e-05
1.15333e-05
0.000250041
-1.55121e-05
0.000298613
-0.0002829
3.95922e-05
-0.000237014