/*--------------------------------*- C++ -*----------------------------------*\
  =========                 |
  \\      /  F ield         | OpenFOAM: The Open Source CFD Toolbox
   \\    /   O peration     | Website:  https://openfoam.org
    \\  /    A nd           | Version:  12
     \\/     M anipulation  |
\*---------------------------------------------------------------------------*/
FoamFile
{
    format      ascii;
    class       surfaceScalarField;
    location    "24.4";
    object      phi;
}
// * * * * * * * * * * * * * * * * * * * * * * * * * * * * * * * * * * * * * //

dimensions      [1 0 -1 0 0 0 0];

internalField   nonuniform List<scalar> 
19404
(
-0.000140284
9.23831e-07
-0.000139518
1.81084e-06
-0.000136135
1.92667e-06
-0.000126658
1.79749e-06
-0.000119291
9.01692e-07
-0.000119052
2.21421e-07
-0.000119377
-1.28668e-06
-0.000122071
-2.35296e-06
-0.000129639
-1.73758e-06
-0.000138668
-5.53411e-07
-0.000141696
7.80573e-07
-0.000141554
1.6679e-06
-0.000140973
2.2967e-06
-0.000137472
2.22633e-06
-0.000129081
1.53439e-06
-0.00012599
3.19956e-07
-0.000125974
-6.93845e-07
-0.000127499
-2.21935e-06
-0.00013176
-2.25986e-06
-0.000135967
-9.66537e-07
-0.000139099
-1.07253e-07
-0.000140273
7.59399e-07
-0.000140088
1.83331e-06
-0.000139344
2.49752e-06
-0.000136788
2.49353e-06
-0.000132247
1.92174e-06
-0.000131636
6.67262e-07
-0.00013186
-1.09504e-06
-0.000135051
-2.53681e-06
-0.000140891
-2.32391e-06
-0.000142205
-2.99556e-07
-0.000142155
3.73779e-07
-0.000140702
7.59928e-07
-0.000138896
1.66156e-06
-0.000138285
1.96603e-06
-0.000138012
1.85393e-06
-0.000137987
1.57018e-06
-0.00013864
6.80144e-07
-0.000139963
-4.33178e-07
-0.000142224
-1.29526e-06
-0.000145788
-1.63365e-06
-0.000146612
-1.08011e-06
-0.000145579
1.42547e-06
-0.000142925
7.45956e-07
-0.000140749
1.20122e-06
-0.000139946
1.46237e-06
-0.000139852
1.41271e-06
-0.000140018
1.24787e-06
-0.0001428
7.88405e-07
-0.00014689
-2.71606e-07
-0.000148992
-5.25195e-07
-0.000150026
-5.69607e-07
-0.000150421
-7.25642e-07
-0.000150107
-9.11158e-07
-0.00014647
-3.20538e-07
-0.000143486
5.39792e-07
-0.000142433
8.86722e-07
-0.000142211
9.36337e-07
-0.000142263
8.53992e-07
-0.000143635
5.93482e-07
-0.000149525
4.01552e-07
-0.000153521
1.15996e-07
-0.000154885
2.10239e-08
-0.000155297
-1.3582e-07
-0.000155152
-3.741e-07
-0.000152466
-6.68279e-07
-0.000147081
-6.82722e-07
-0.000144018
-3.54151e-08
-0.000143271
3.9066e-07
-0.00014324
3.68969e-07
-0.000143497
1.61463e-07
-0.000147931
3.52872e-07
-0.000155003
3.38725e-07
-0.000157809
3.25037e-07
-0.000158535
3.92818e-07
-0.000158692
4.68249e-07
-0.000158302
2.09954e-07
-0.000152898
1.6465e-07
-0.000144577
-3.28955e-07
-0.000141195
2.68643e-07
-0.000140877
1.20649e-09
-0.000141095
-4.42535e-07
-0.00014638
-5.58899e-07
-0.000156128
-4.3882e-07
-0.000160134
5.0156e-08
-0.000161306
6.9249e-07
-0.00016165
8.26829e-07
-0.000161263
7.40061e-07
-0.000154856
8.16575e-07
-0.000142072
-7.19923e-07
-0.000132912
-1.66752e-06
-0.000130467
-1.16196e-06
-0.000130733
-2.02658e-06
-0.000140357
-2.69981e-06
-0.00015276
-3.30512e-06
-0.000155344
-6.57532e-06
-0.00015238
-7.8501e-06
-8.71901e-05
-3.44605e-05
3.23393e-05
-0.000145964
-9.95617e-08
-0.000145958
1.88236e-06
-0.000144879
3.08266e-06
-0.000141719
4.12807e-06
-0.000137316
3.9663e-06
-0.000133264
2.36362e-06
-0.000132179
-5.19338e-07
-0.00013214
-2.69592e-06
-0.000133712
-3.82116e-06
-0.000139523
-4.09167e-06
-0.000144074
-1.06569e-06
-0.000145961
1.44483e-06
-0.000146254
2.78132e-06
-0.000145878
3.89682e-06
-0.000145394
3.94775e-06
-0.00014235
3.27511e-06
-0.000138013
9.23702e-07
-0.000137113
-2.25574e-06
-0.000137093
-3.4913e-06
-0.000138093
-3.99141e-06
-0.000140285
-2.70455e-06
-0.000142107
-2.0285e-07
-0.000143773
1.97514e-06
-0.000145083
3.46192e-06
-0.000145441
4.63564e-06
-0.000145573
4.34262e-06
-0.000145707
3.08961e-06
-0.000144462
1.07401e-06
-0.000143073
-1.85333e-06
-0.000142524
-3.53839e-06
-0.000142561
-3.64748e-06
-0.000142892
-1.83824e-06
-0.000142418
4.36126e-07
-0.000141812
1.8536e-06
-0.000141668
2.52918e-06
-0.000142588
3.03388e-06
-0.000146318
2.9512e-06
-0.00014872
2.17689e-06
-0.000149427
1.02898e-06
-0.000149348
-3.54736e-07
-0.000149159
-1.79857e-06
-0.000147616
-2.22407e-06
-0.000145489
-1.59966e-06
-0.000143228
4.19572e-07
-0.000141887
1.39895e-06
-0.000141486
1.84349e-06
-0.000141429
1.96503e-06
-0.000142391
2.00622e-06
-0.000148123
1.27919e-06
-0.000151838
4.03251e-07
-0.000152822
-1.36468e-07
-0.000152959
-4.83982e-07
-0.000152952
-7.48436e-07
-0.000151242
-9.26972e-07
-0.000146661
-4.01381e-07
-0.000143741
8.03664e-07
-0.000142742
1.07651e-06
-0.000142553
1.16745e-06
-0.000142599
1.1482e-06
-0.000144063
9.06453e-07
-0.00015031
6.05505e-07
-0.000154475
3.40179e-07
-0.000155545
2.33028e-07
-0.000155709
8.05065e-08
-0.000155708
-1.71976e-07
-0.000153273
-2.60243e-07
-0.000147418
-2.02933e-07
-0.000144315
1.88888e-07
-0.00014341
3.36478e-07
-0.000143302
3.23469e-07
-0.000143561
1.40508e-07
-0.000147675
1.73884e-07
-0.000154522
3.16851e-07
-0.000157583
4.77455e-07
-0.000158499
5.80877e-07
-0.0001586
5.15726e-07
-0.000158345
2.87862e-07
-0.000153145
2.02375e-07
-0.000144889
1.62132e-07
-0.000141501
-3.29635e-07
-0.000140872
-5.77564e-07
-0.000140943
-8.09234e-07
-0.000143671
-1.2257e-06
-0.000152272
-9.15207e-07
-0.00015796
1.61047e-07
-0.000159945
8.14184e-07
-0.000160569
7.98292e-07
-0.00016059
6.73894e-07
-0.000155537
7.69456e-07
-0.000143266
-2.09565e-07
-0.000133675
-2.10319e-06
-0.00012866
-4.03468e-06
-0.000128382
-5.16452e-06
-0.000131251
-5.91918e-06
-0.000139416
-7.62578e-06
-0.000141781
-1.22589e-05
-0.000140108
-1.40927e-05
-0.000103424
-4.44759e-05
4.76904e-05
-0.000142419
-1.45251e-06
-0.000143095
1.62821e-06
-0.000142359
3.37556e-06
-0.000141259
4.34579e-06
-0.000140141
3.68599e-06
-0.000138527
2.4573e-06
-0.000136476
7.30797e-07
-0.000135115
-1.3849e-06
-0.000134959
-3.0352e-06
-0.000135181
-3.58322e-06
-0.000138441
-1.91311e-06
-0.00014245
4.95016e-07
-0.00014419
2.74106e-06
-0.000144536
3.82146e-06
-0.000145118
3.52977e-06
-0.00014535
2.68278e-06
-0.000143977
1.69776e-06
-0.000139984
-1.03934e-07
-0.000138046
-2.753e-06
-0.000137076
-3.72839e-06
-0.000136427
-2.36657e-06
-0.00013717
-7.65658e-07
-0.000139726
1.06228e-06
-0.000142302
3.00559e-06
-0.000145006
4.49779e-06
-0.000147773
3.62466e-06
-0.000148725
2.66851e-06
-0.000148614
1.64706e-06
-0.000145957
3.67064e-07
-0.00014259
-1.81347e-06
-0.00014008
-3.22653e-06
-0.000138774
-1.52902e-06
-0.000138693
-2.54341e-07
-0.000139162
1.03682e-06
-0.00013965
1.9551e-06
-0.000142311
2.72122e-06
-0.000148066
2.12091e-06
-0.000150628
1.65859e-06
-0.000151113
1.12257e-06
-0.000151064
3.78009e-07
-0.000150093
-4.2436e-07
-0.000145569
-1.17197e-06
-0.0001414
-1.83653e-08
-0.000140149
5.40711e-07
-0.000139888
9.05471e-07
-0.000140012
1.35936e-06
-0.000140224
1.56589e-06
-0.000142783
1.64959e-06
-0.000149013
5.513e-07
-0.000152101
3.68763e-07
-0.000152759
6.9706e-08
-0.000152758
-1.73134e-07
-0.000152437
-1.27356e-07
-0.000148186
5.3961e-07
-0.000143237
1.09768e-06
-0.000141762
8.53171e-07
-0.000141408
7.32258e-07
-0.000141409
7.01686e-07
-0.000141551
6.43245e-07
-0.0001435
5.2145e-07
-0.000149902
3.2025e-07
-0.000153832
2.78761e-07
-0.000154613
5.13008e-07
-0.00015465
6.4701e-07
-0.000154435
7.27521e-07
-0.000150922
8.72329e-07
-0.000144838
8.40965e-07
-0.000142346
1.76442e-07
-0.00014173
-1.46655e-07
-0.00014163
-2.60465e-07
-0.000141801
-3.64536e-07
-0.000145032
-4.2454e-07
-0.000152158
-5.4434e-08
-0.000155663
5.97929e-07
-0.000156391
8.72462e-07
-0.000156495
9.66722e-07
-0.000156154
9.64287e-07
-0.000151476
7.96173e-07
-0.000143613
1.92171e-07
-0.000139457
-8.35437e-07
-0.000138388
-1.38949e-06
-0.000138339
-1.60925e-06
-0.000139039
-1.88839e-06
-0.0001462
-2.00599e-06
-0.0001544
-6.34376e-07
-0.000156898
4.83715e-07
-0.000157245
9.15495e-07
-0.000157244
1.00127e-06
-0.000153189
8.86854e-07
-0.000142493
2.82832e-08
-0.000132872
-2.28299e-06
-0.00012657
-5.35414e-06
-0.000124267
-7.70159e-06
-0.000124879
-8.99325e-06
-0.000130441
-1.17191e-05
-0.000133667
-1.75473e-05
-0.000133735
-2.0052e-05
-0.000112368
-4.62186e-05
5.64047e-05
-0.000132941
-2.41608e-07
-0.000136519
4.55899e-07
-0.000140558
1.84816e-06
-0.000142393
2.74894e-06
-0.000142951
2.06006e-06
-0.000143
1.33738e-06
-0.000142396
6.00257e-07
-0.000139328
3.0963e-07
-0.000133072
-6.43161e-07
-0.000130233
-7.68009e-08
-0.000130286
1.09127e-07
-0.000132741
3.79868e-07
-0.00013996
8.06772e-07
-0.000145406
2.16334e-06
-0.000147381
2.36201e-06
-0.000147772
1.52338e-06
-0.000147677
1.18171e-06
-0.000145494
5.05682e-07
-0.000138383
-5.7441e-07
-0.000131812
-2.16195e-07
-0.000130117
1.49047e-07
-0.000130014
1.11079e-07
-0.00013188
1.3507e-07
-0.000139157
6.45364e-07
-0.000146932
2.31753e-06
-0.000150279
2.29473e-06
-0.000150789
1.55901e-06
-0.000150769
1.18787e-06
-0.000149722
7.26031e-07
-0.000142435
-5.68555e-08
-0.000134139
6.51831e-07
-0.000132594
5.65211e-07
-0.000132657
2.24678e-07
-0.000133715
-7.62177e-08
-0.000136758
-7.23723e-08
-0.000143227
7.6507e-07
-0.000149227
1.33026e-06
-0.000151228
1.13562e-06
-0.000151399
8.30786e-07
-0.000151303
5.14957e-07
-0.000148896
7.97351e-07
-0.000140809
1.61021e-06
-0.000136568
1.76593e-06
-0.000136363
9.75741e-07
-0.000136524
3.12791e-07
-0.00013733
6.49096e-08
-0.00013909
4.40196e-09
-0.000143458
3.17596e-07
-0.000149165
2.67431e-07
-0.000151247
2.01659e-07
-0.000151357
5.3629e-07
-0.000151102
1.03688e-06
-0.000149224
1.66497e-06
-0.000144722
1.97609e-06
-0.000140555
1.4864e-06
-0.000139238
5.46539e-07
-0.000139235
4.15727e-08
-0.000139333
-2.70904e-07
-0.000139913
-5.1022e-07
-0.000142711
-3.70455e-07
-0.000148099
-2.33391e-08
-0.000150929
5.0591e-07
-0.000151596
1.2399e-06
-0.000151646
1.67273e-06
-0.000151349
1.82921e-06
-0.000148916
1.67204e-06
-0.000142948
1.15763e-06
-0.000139395
-1.6183e-08
-0.000138727
-8.25379e-07
-0.000138706
-1.08709e-06
-0.000138817
-1.15965e-06
-0.000141103
-1.15833e-06
-0.000147628
-5.49661e-07
-0.000151229
5.19911e-07
-0.000152119
1.27514e-06
-0.000152328
1.52963e-06
-0.000152327
1.45842e-06
-0.000149928
1.23117e-06
-0.000142259
2.61528e-07
-0.0001364
-1.29804e-06
-0.000134598
-2.52169e-06
-0.000134386
-2.84499e-06
-0.000134479
-3.01302e-06
-0.00013759
-3.21672e-06
-0.000145241
-2.38669e-06
-0.000149248
-4.99368e-07
-0.00015026
6.58394e-07
-0.000150588
8.98985e-07
-0.000148966
7.21992e-07
-0.000140933
-1.9931e-07
-0.000131131
-2.76922e-06
-0.000123977
-6.15187e-06
-0.000119801
-9.88295e-06
-0.000118308
-1.22312e-05
-0.000120286
-1.4522e-05
-0.000124188
-2.05618e-05
-0.000126613
-2.37425e-05
-0.000119266
-4.35193e-05
5.70307e-05
-0.000129558
1.22006e-06
-0.00013058
4.39093e-07
-0.00013752
7.41105e-08
-0.000143193
-3.96156e-08
-0.000143788
5.37379e-07
-0.000143639
4.12233e-07
-0.000143003
4.0442e-07
-0.000138761
1.10992e-06
-0.000131405
2.38793e-06
-0.000128506
2.43833e-06
-0.000128401
1.72092e-06
-0.000128908
6.6758e-07
-0.000134666
2.09693e-07
-0.000144717
-5.60348e-07
-0.000147653
6.14213e-07
-0.000147761
7.35585e-07
-0.000147625
5.78576e-07
-0.000145598
9.5838e-07
-0.000135617
2.38315e-06
-0.00012882
2.82096e-06
-0.000127891
1.73996e-06
-0.000127841
1.01333e-06
-0.000128357
2.29799e-07
-0.000134318
-1.89072e-07
-0.000146498
-1.10845e-06
-0.000150373
4.38524e-07
-0.000150558
5.8942e-07
-0.000150428
6.20378e-07
-0.000148244
1.39332e-06
-0.000139125
2.66505e-06
-0.000132301
3.16682e-06
-0.000130955
1.73338e-06
-0.000130914
8.00246e-07
-0.000131105
-9.638e-08
-0.000133219
-7.39554e-07
-0.0001415
-1.46206e-06
-0.000148509
-3.05327e-07
-0.000149845
4.40492e-07
-0.000149744
8.83423e-07
-0.000148626
1.72492e-06
-0.000144681
2.77521e-06
-0.000139292
3.17205e-06
-0.000136027
2.12954e-06
-0.000134949
9.75531e-07
-0.000134905
1.55881e-07
-0.000135142
-8.92398e-07
-0.000136773
-1.4058e-06
-0.000141546
-1.16953e-06
-0.000146031
-1.93225e-07
-0.000147322
7.87852e-07
-0.000147442
1.75065e-06
-0.000146923
2.47966e-06
-0.000145963
2.69162e-06
-0.00014364
2.4081e-06
-0.000139857
1.41416e-06
-0.000137733
2.59984e-07
-0.000137286
-6.90779e-07
-0.000137226
-1.11772e-06
-0.000137283
-1.202e-06
-0.000138477
-1.06123e-06
-0.000142772
-2.83546e-07
-0.000146198
9.73161e-07
-0.000147567
1.83073e-06
-0.000148062
2.11226e-06
-0.00014811
2.06375e-06
-0.000147534
1.86631e-06
-0.000142821
1.33966e-06
-0.000137554
-9.53314e-08
-0.000135736
-1.22771e-06
-0.00013533
-1.77111e-06
-0.000135239
-1.71569e-06
-0.000135791
-1.56816e-06
-0.000140734
-1.08324e-06
-0.000145999
2.95514e-07
-0.000147755
1.40052e-06
-0.000148205
1.73067e-06
-0.000148332
1.61275e-06
-0.000147845
1.31996e-06
-0.000142223
6.70363e-07
-0.000134315
-1.25537e-06
-0.000130434
-2.6732e-06
-0.000129842
-3.90047e-06
-0.000129782
-4.37164e-06
-0.000130472
-4.52812e-06
-0.000135868
-4.22231e-06
-0.000142058
-2.52667e-06
-0.000144511
-7.8346e-07
-0.000145112
-5.04417e-08
-0.000145112
-3.56846e-08
-0.000140993
-4.73452e-07
-0.000132359
-2.54437e-06
-0.000123814
-6.62569e-06
-0.000117574
-1.04825e-05
-0.000115107
-1.31807e-05
-0.000115814
-1.66974e-05
-0.00012021
-2.15186e-05
-0.000123612
-2.58061e-05
-0.000121707
-4.20337e-05
5.50431e-05
-0.000130531
2.35567e-06
-0.000131175
5.9633e-07
-0.000136001
-1.41205e-06
-0.000140878
-2.1146e-06
-0.000141938
-1.2662e-06
-0.000141644
-4.30583e-07
-0.000138835
1.32518e-06
-0.000133615
3.00786e-06
-0.000130103
3.87119e-06
-0.00012957
3.86734e-06
-0.000129404
2.8447e-06
-0.000130175
1.23233e-06
-0.000134587
-6.85737e-07
-0.000141256
-1.93025e-06
-0.000144842
-1.32322e-06
-0.000145169
-2.8386e-07
-0.000144489
7.21962e-07
-0.000139688
2.69239e-06
-0.000133301
3.94987e-06
-0.000129631
4.26028e-06
-0.000128556
2.89838e-06
-0.00012836
1.65178e-06
-0.0001291
2.01753e-07
-0.000134145
-1.66188e-06
-0.000142203
-2.69128e-06
-0.000146211
-1.87387e-06
-0.000146694
-1.54363e-07
-0.000145858
1.52334e-06
-0.000142367
3.13063e-06
-0.000137762
3.89821e-06
-0.000133611
3.98558e-06
-0.000131724
2.61949e-06
-0.000131319
1.08938e-06
-0.000131526
-3.46384e-07
-0.000132573
-1.62661e-06
-0.000136932
-2.04318e-06
-0.000142647
-1.78883e-06
-0.000144391
-7.1675e-08
-0.000144397
1.63757e-06
-0.000143265
3.06424e-06
-0.000141911
3.59099e-06
-0.000139619
3.38456e-06
-0.000136658
2.32396e-06
-0.000135232
8.52784e-07
-0.000134705
-3.37343e-07
-0.000134618
-1.33945e-06
-0.000134655
-1.68303e-06
-0.000136234
-1.53509e-06
-0.000139721
-4.27138e-07
-0.000141864
1.2443e-06
-0.000142869
2.54135e-06
-0.000143497
2.91912e-06
-0.00014364
2.57235e-06
-0.000143353
2.24274e-06
-0.000140579
1.66649e-06
-0.000137157
8.09588e-08
-0.000135585
-9.70592e-07
-0.000134699
-1.428e-06
-0.0001341
-1.13394e-06
-0.000134134
-7.44143e-07
-0.000136497
-3.92035e-07
-0.000141355
7.32688e-07
-0.000144019
1.77088e-06
-0.000145161
2.05665e-06
-0.000145549
1.8614e-06
-0.00014558
1.55923e-06
-0.000143571
1.32809e-06
-0.000137447
1.46833e-07
-0.000133299
-1.28184e-06
-0.000131885
-1.88705e-06
-0.000131447
-1.81138e-06
-0.000131478
-1.65515e-06
-0.000133819
-1.51561e-06
-0.000140474
-5.54912e-07
-0.000144228
9.78e-07
-0.000145243
1.66142e-06
-0.000145503
1.62054e-06
-0.000145528
1.32653e-06
-0.000142816
9.53864e-07
-0.000135141
-4.71707e-07
-0.000129097
-2.69703e-06
-0.000126293
-4.14924e-06
-0.000125767
-5.09984e-06
-0.000125803
-5.46959e-06
-0.000127833
-5.67855e-06
-0.00013412
-5.07218e-06
-0.000138739
-3.44109e-06
-0.000140526
-2.18564e-06
-0.000140916
-1.83258e-06
-0.000140236
-1.78419e-06
-0.00013508
-2.44279e-06
-0.000127114
-5.59527e-06
-0.000119684
-1.01754e-05
-0.000114688
-1.3849e-05
-0.000113707
-1.6575e-05
-0.000117321
-2.11281e-05
-0.000121522
-2.71225e-05
-0.000124498
-4.0007e-05
5.27581e-05
-0.00013426
2.67432e-06
-0.000135284
8.44196e-07
-0.000135676
-1.42549e-06
-0.000135752
-2.64975e-06
-0.000135891
-2.13948e-06
-0.000134234
-6.10035e-08
-0.000131516
1.67136e-06
-0.000130373
2.96696e-06
-0.000130228
4.03066e-06
-0.000130277
4.11763e-06
-0.000132377
2.93339e-06
-0.000135245
1.31165e-06
-0.000136907
6.44425e-08
-0.00013804
-1.68791e-06
-0.000139065
-1.34768e-06
-0.000139124
-7.69029e-07
-0.000136552
1.52968e-06
-0.000133469
2.70332e-06
-0.000132217
3.55632e-06
-0.000131317
4.24266e-06
-0.000130811
2.99033e-06
-0.000131155
1.36541e-06
-0.000133087
-2.86851e-07
-0.000135447
-1.21068e-06
-0.000137446
-2.54449e-06
-0.000138727
-1.52047e-06
-0.000139127
6.41488e-07
-0.000138297
2.26409e-06
-0.000137108
2.91305e-06
-0.000136227
3.21783e-06
-0.000135132
3.75656e-06
-0.00013409
2.24463e-06
-0.000133508
6.11357e-07
-0.000133273
-5.3273e-07
-0.000133237
-1.3308e-06
-0.000133539
-1.56559e-06
-0.000135235
-8.76984e-07
-0.000137131
5.52009e-07
-0.000138361
2.30008e-06
-0.00013932
2.84865e-06
-0.000139713
2.81407e-06
-0.00013963
2.78587e-06
-0.000138504
2.10065e-06
-0.000136763
5.51914e-07
-0.000135513
-6.23163e-07
-0.00013409
-1.16408e-06
-0.000132633
-8.24923e-07
-0.000132258
-1.36541e-07
-0.000132958
3.19607e-07
-0.000136021
1.24487e-06
-0.000139052
2.14796e-06
-0.000141294
2.17667e-06
-0.000142423
1.93379e-06
-0.000142473
1.54464e-06
-0.000141727
1.35921e-06
-0.000137871
3.41386e-07
-0.000134111
-8.84427e-07
-0.00013183
-7.80772e-07
-0.00013089
-4.55447e-07
-0.000130742
-2.16916e-07
-0.000131487
-8.07287e-08
-0.000136583
3.04402e-07
-0.000141213
1.17148e-06
-0.000142994
1.58551e-06
-0.000143628
1.46601e-06
-0.000143775
1.1587e-06
-0.000143499
8.77122e-07
-0.000138691
4.69974e-07
-0.000132108
-6.45137e-07
-0.000128951
-1.11362e-06
-0.000128352
-1.56073e-06
-0.000128292
-1.78925e-06
-0.000128996
-1.91086e-06
-0.000134456
-1.65657e-06
-0.00014104
-2.96391e-07
-0.000143471
1.03628e-06
-0.000143935
1.39138e-06
-0.000144108
1.34694e-06
-0.000143418
1.14922e-06
-0.000137786
9.13575e-07
-0.000130263
-1.23875e-06
-0.000125358
-3.79225e-06
-0.000123112
-4.97862e-06
-0.00012303
-5.70546e-06
-0.000123397
-6.64032e-06
-0.000127307
-7.21937e-06
-0.000133459
-6.50369e-06
-0.000137268
-4.99609e-06
-0.000138748
-4.05411e-06
-0.000139144
-3.85737e-06
-0.000137186
-3.39563e-06
-0.000131701
-5.46917e-06
-0.000124836
-8.61834e-06
-0.000117506
-1.34663e-05
-0.00011324
-1.68579e-05
-0.00011499
-2.03681e-05
-0.000120229
-2.97488e-05
-0.000127182
-3.90688e-05
5.09702e-05
-0.000139305
2.60368e-06
-0.000138893
1.71858e-06
-0.000137153
1.02366e-07
-0.00013332
-1.49765e-06
-0.00012805
-7.46044e-07
-0.000125676
5.14311e-07
-0.00012533
1.00386e-06
-0.000126024
1.43103e-06
-0.000128016
2.22398e-06
-0.000132182
3.18756e-06
-0.000137676
1.90908e-06
-0.000139173
1.29242e-06
-0.000138905
1.04702e-06
-0.000137966
5.01677e-07
-0.000135368
-1.99087e-07
-0.000130972
1.24328e-06
-0.000129244
1.9567e-06
-0.000129065
1.95394e-06
-0.000129909
1.81828e-06
-0.000131512
1.72624e-06
-0.000133521
1.62064e-06
-0.000135356
3.66577e-07
-0.000136245
2.24425e-07
-0.000136129
-4.67231e-07
-0.000135376
2.77893e-08
-0.000133468
1.3896e-06
-0.000132911
2.08852e-06
-0.000133133
2.37905e-06
-0.000133771
2.18342e-06
-0.000134749
2.07853e-06
-0.000136061
1.15794e-06
-0.000136314
5.17273e-07
-0.000135911
-1.25962e-07
-0.000134435
-2.1396e-07
-0.000132542
-3.28963e-07
-0.000131343
3.92815e-07
-0.000131101
1.00267e-06
-0.000131749
1.82367e-06
-0.000134059
2.50248e-06
-0.000137032
2.27951e-06
-0.00013901
1.9085e-06
-0.000139789
1.04357e-06
-0.000139685
7.06371e-07
-0.000138536
7.31926e-08
-0.000135419
-4.01885e-07
-0.000131857
-1.71827e-07
-0.000129639
5.40325e-07
-0.000129032
1.01177e-06
-0.000129149
1.22108e-06
-0.000132027
1.49619e-06
-0.000137285
1.43759e-06
-0.000140178
1.44861e-06
-0.000141327
1.05051e-06
-0.0001416
7.97843e-07
-0.000141541
5.67851e-07
-0.000138761
5.00843e-07
-0.000132205
3.40954e-07
-0.000128997
3.79574e-07
-0.000128403
1.03715e-07
-0.000128363
-1.16684e-07
-0.000128787
-2.26988e-07
-0.000132915
-2.40277e-07
-0.000139301
2.89053e-07
-0.00014192
1.04334e-06
-0.000142506
1.20793e-06
-0.000142582
1.0662e-06
-0.000142525
9.51137e-07
-0.00013952
1.18318e-06
-0.000131908
9.46817e-07
-0.000127582
-6.12399e-07
-0.000126295
-1.25662e-06
-0.000126336
-2.03391e-06
-0.000126509
-2.54951e-06
-0.000129219
-2.85103e-06
-0.000136782
-2.32746e-06
-0.000141514
-3.84632e-07
-0.000142715
9.44882e-07
-0.000142901
1.36196e-06
-0.000142908
1.50698e-06
-0.000140391
1.54084e-06
-0.000132493
1.04307e-06
-0.000126014
-1.91631e-06
-0.000123041
-4.41449e-06
-0.000121984
-5.90537e-06
-0.000122006
-7.49767e-06
-0.000123025
-8.54774e-06
-0.00012758
-8.74255e-06
-0.000132306
-7.70823e-06
-0.000134794
-6.42162e-06
-0.000135889
-5.8163e-06
-0.000136075
-5.78359e-06
-0.000133832
-5.52109e-06
-0.000129619
-8.60591e-06
-0.000123813
-1.21722e-05
-0.000116688
-1.63025e-05
-0.000112776
-1.91709e-05
-0.000117153
-2.97403e-05
-0.000128898
-3.81906e-05
4.98079e-05
-0.000142543
1.99695e-06
-0.000142313
1.81003e-06
-0.00014057
1.22266e-06
-0.000131281
1.30137e-06
-0.000123561
2.00107e-06
-0.000122286
1.39964e-06
-0.000122136
1.08465e-06
-0.000122268
8.40116e-07
-0.000124696
5.05839e-07
-0.000133362
-8.57247e-07
-0.000139219
4.76458e-07
-0.000140679
1.09575e-06
-0.000140568
1.28227e-06
-0.000139301
1.89433e-06
-0.00013279
3.54024e-06
-0.000128495
3.32255e-06
-0.000127712
2.15908e-06
-0.000127626
1.78146e-06
-0.000128025
8.97313e-07
-0.000131245
-6.16387e-07
-0.000134532
-1.35612e-06
-0.000135584
-3.53577e-07
-0.000135618
1.0062e-07
-0.000134713
1.06222e-06
-0.000131694
2.49104e-06
-0.000131044
3.68555e-06
-0.000131352
3.03111e-06
-0.000132458
2.37563e-06
-0.000134004
1.90645e-06
-0.000135819
7.74057e-07
-0.000136767
-2.82329e-07
-0.000136698
-9.93405e-07
-0.000135965
-5.09067e-07
-0.000132845
1.83652e-07
-0.000129729
1.18346e-06
-0.000128681
1.90098e-06
-0.000128592
2.24033e-06
-0.000130013
2.64116e-06
-0.00013405
2.33218e-06
-0.000137879
1.76213e-06
-0.000139737
9.04676e-07
-0.000140009
3.47751e-07
-0.000139954
-7.8134e-08
-0.000138314
-1.1438e-07
-0.000132559
3.62796e-07
-0.000128698
1.11923e-06
-0.000127699
1.1426e-06
-0.000127547
1.17387e-06
-0.000127729
1.27847e-06
-0.000131116
1.38256e-06
-0.000137768
9.12865e-07
-0.000140518
8.57654e-07
-0.000140964
8.97597e-07
-0.000140993
7.00467e-07
-0.000140895
6.04742e-07
-0.000137903
1.23265e-06
-0.00013099
1.74882e-06
-0.000127544
8.34876e-07
-0.000126921
2.61604e-07
-0.000126942
-3.40278e-07
-0.000127331
-8.58519e-07
-0.000130454
-1.3501e-06
-0.000137492
-8.60864e-07
-0.000141055
5.0264e-07
-0.000141579
1.2661e-06
-0.000141641
1.56638e-06
-0.000141198
2.02957e-06
-0.000139129
2.38731e-06
-0.000133154
1.76727e-06
-0.000128029
2.48003e-07
-0.000126036
-1.36389e-06
-0.000125539
-2.44335e-06
-0.000125572
-3.47441e-06
-0.000126218
-3.98052e-06
-0.000130853
-4.0972e-06
-0.000137554
-2.36061e-06
-0.000140534
1.47865e-08
-0.000141119
1.25211e-06
-0.000141172
1.89239e-06
-0.000140672
2.28041e-06
-0.000137182
1.93064e-06
-0.000130302
2.07529e-07
-0.000125334
-3.09763e-06
-0.000122665
-5.85365e-06
-0.000121478
-7.7494e-06
-0.000121552
-9.1028e-06
-0.000122769
-9.87328e-06
-0.000126933
-9.73486e-06
-0.000130422
-8.59248e-06
-0.00013233
-7.74197e-06
-0.000133375
-7.65838e-06
-0.000133406
-7.99405e-06
-0.000131652
-9.01291e-06
-0.000128518
-1.24031e-05
-0.000123388
-1.56598e-05
-0.000116999
-1.90882e-05
-0.000114893
-2.8206e-05
-0.000129617
-3.84998e-05
5.20862e-05
-0.000142539
1.17184e-06
-0.000142179
1.89982e-06
-0.00013843
3.28938e-06
-0.000129604
4.44441e-06
-0.000123851
3.46011e-06
-0.000122511
2.32012e-06
-0.00012248
1.18747e-06
-0.000123528
-4.15535e-07
-0.000126791
-2.111e-06
-0.000132157
-2.56879e-06
-0.000137054
-1.34816e-06
-0.000138113
8.1868e-07
-0.000137645
2.55691e-06
-0.00013472
4.48837e-06
-0.000131851
5.47742e-06
-0.00012973
4.14714e-06
-0.000129217
2.87004e-06
-0.000129674
1.06433e-06
-0.000131651
-6.94019e-07
-0.000132221
-2.08896e-06
-0.000132188
-2.01735e-06
-0.000132214
-1.26434e-06
-0.000131671
6.41996e-07
-0.000130997
2.14985e-06
-0.000131116
3.50344e-06
-0.000131249
4.30133e-06
-0.000132183
3.75806e-06
-0.000134297
2.32457e-06
-0.000136158
1.11372e-06
-0.000136764
1.25527e-07
-0.000136689
-7.39971e-07
-0.000135758
-1.16942e-06
-0.000132259
-3.02631e-07
-0.000128775
1.03166e-06
-0.000127257
1.60757e-06
-0.000126967
2.01658e-06
-0.000127115
2.23736e-06
-0.000130373
2.51997e-06
-0.000136565
1.69062e-06
-0.000139325
1.14245e-06
-0.000139876
8.45234e-07
-0.000139867
2.06716e-07
-0.000139683
-1.45086e-08
-0.000135797
6.82807e-07
-0.000128851
1.73839e-06
-0.000126215
1.58005e-06
-0.000126016
1.16095e-06
-0.000126081
7.47372e-07
-0.000126961
3.06314e-07
-0.000131962
2.07729e-07
-0.000138337
2.47272e-07
-0.000140487
6.39495e-07
-0.000140668
8.43398e-07
-0.00014055
1.11198e-06
-0.0001394
1.96737e-06
-0.000136412
2.65509e-06
-0.000131353
1.97622e-06
-0.000127868
1.28477e-06
-0.000126957
1.53311e-07
-0.000126841
-8.56466e-07
-0.000127038
-2.0061e-06
-0.000128469
-2.52943e-06
-0.000134032
-2.09396e-06
-0.00013872
-1.881e-07
-0.00013976
1.51304e-06
-0.000139706
2.44248e-06
-0.000139356
3.15075e-06
-0.000138907
2.94589e-06
-0.000136506
2.45679e-06
-0.000131092
9.65227e-07
-0.000127588
-1.45098e-06
-0.000126187
-3.05545e-06
-0.00012543
-4.21022e-06
-0.000125284
-4.27728e-06
-0.000125776
-4.58419e-06
-0.000130421
-4.39036e-06
-0.000136137
-2.21918e-06
-0.000138721
2.63286e-07
-0.000139557
1.53587e-06
-0.000139753
2.03451e-06
-0.000139598
1.7869e-06
-0.000136215
8.22615e-07
-0.000129811
-8.00387e-07
-0.000124904
-4.23728e-06
-0.000121998
-7.25145e-06
-0.000120651
-9.14148e-06
-0.000120661
-1.00945e-05
-0.000121839
-1.08755e-05
-0.000125615
-1.05834e-05
-0.0001287
-9.67912e-06
-0.000130564
-9.38313e-06
-0.000131627
-9.86507e-06
-0.00013176
-1.09134e-05
-0.000130517
-1.32489e-05
-0.000127724
-1.5844e-05
-0.000122403
-1.86492e-05
-0.000117005
-2.55416e-05
-0.000128699
-3.95551e-05
5.65385e-05
-0.00013815
3.44969e-07
-0.00013742
2.88321e-06
-0.000134644
4.96922e-06
-0.000130939
5.79741e-06
-0.000127616
4.79478e-06
-0.000126432
2.5545e-06
-0.000126538
4.17106e-07
-0.000127638
-1.27818e-06
-0.000127719
-2.51348e-06
-0.000127963
-2.99844e-06
-0.00012921
-1.33374e-06
-0.000131341
7.05652e-07
-0.000132837
3.07981e-06
-0.000133
4.94765e-06
-0.000132948
5.38362e-06
-0.000133131
4.33479e-06
-0.000133513
2.52852e-06
-0.000133435
9.06443e-07
-0.000133118
-7.36311e-07
-0.000132417
-1.94051e-06
-0.000129399
-1.37625e-06
-0.00012659
-1.90542e-07
-0.000125842
6.89623e-07
-0.00012623
1.32291e-06
-0.000128484
2.42919e-06
-0.00013244
3.77245e-06
-0.000136285
3.06891e-06
-0.0001381
2.21727e-06
-0.000138447
1.34495e-06
-0.000138344
4.82335e-07
-0.000137148
-2.10981e-07
-0.000131938
-1.95434e-07
-0.000126723
1.14288e-06
-0.000125127
1.41207e-06
-0.000124935
1.36156e-06
-0.000125027
1.23557e-06
-0.000126204
1.03677e-06
-0.000132421
1.175e-06
-0.000138841
4.42929e-07
-0.000140287
9.1202e-07
-0.000140258
9.48162e-07
-0.000140122
8.82265e-07
-0.000138185
1.6413e-06
-0.00013303
2.81764e-06
-0.000128197
2.29243e-06
-0.000125887
1.62113e-06
-0.000125574
9.92767e-07
-0.000125618
1.72994e-07
-0.000126714
-1.33239e-06
-0.000131605
-2.21483e-06
-0.00013761
-7.86111e-07
-0.000139382
4.25355e-07
-0.000139452
1.54327e-06
-0.000138379
2.77845e-06
-0.000137341
3.551e-06
-0.000136281
3.39855e-06
-0.000133447
2.7121e-06
-0.000130146
1.09969e-06
-0.000128754
-5.84661e-07
-0.000128343
-1.93303e-06
-0.000127787
-2.85161e-06
-0.000127811
-2.44806e-06
-0.000128677
-2.3562e-06
-0.000133511
-1.27255e-06
-0.000137139
1.20531e-06
-0.000138497
2.8611e-06
-0.000138926
3.42006e-06
-0.000139213
3.04826e-06
-0.000139189
2.37563e-06
-0.000136219
1.73926e-06
-0.000130685
-2.21153e-07
-0.000127045
-2.70801e-06
-0.000124847
-4.21786e-06
-0.00012365
-4.38916e-06
-0.000123613
-4.80866e-06
-0.000124266
-5.08262e-06
-0.000129554
-4.8104e-06
-0.000135717
-2.5186e-06
-0.000138853
-1.15642e-07
-0.000139667
9.27419e-07
-0.000139787
1.09131e-06
-0.00013899
9.31758e-07
-0.000135348
-2.47959e-08
-0.000129329
-1.98177e-06
-0.000123979
-5.19316e-06
-0.000120728
-8.35731e-06
-0.000119408
-1.01292e-05
-0.000119402
-1.11172e-05
-0.000120905
-1.19398e-05
-0.000125164
-1.1815e-05
-0.000128501
-1.11389e-05
-0.000130254
-1.11911e-05
-0.000131041
-1.21061e-05
-0.0001309
-1.40853e-05
-0.000129825
-1.6421e-05
-0.000126577
-1.84107e-05
-0.000120591
-2.33313e-05
-0.000126824
-4.03872e-05
6.01123e-05
-0.000130222
5.4827e-07
-0.000131417
2.67938e-06
-0.000131611
4.39699e-06
-0.000131638
5.44556e-06
-0.000132263
3.88515e-06
-0.000132395
2.34679e-06
-0.000131652
1.07522e-06
-0.000130674
-4.01088e-07
-0.000128229
-1.24489e-06
-0.000124144
-1.33461e-06
-0.000122918
1.20531e-07
-0.000123157
6.94347e-07
-0.000126389
1.41505e-06
-0.000131513
3.11008e-06
-0.000135816
4.48623e-06
-0.000137869
3.12638e-06
-0.000138154
2.29765e-06
-0.000137584
1.56242e-06
-0.000135098
7.13283e-07
-0.000130076
-2.44112e-07
-0.000124574
3.28071e-07
-0.000122401
9.53932e-07
-0.000122109
1.01666e-06
-0.000122244
1.03942e-06
-0.000125311
8.69076e-07
-0.000134356
1.11119e-06
-0.000139939
1.80139e-06
-0.000140722
1.52838e-06
-0.000140628
1.3526e-06
-0.000140122
1.31143e-06
-0.00013625
1.40082e-06
-0.000128564
2.7188e-06
-0.000124777
2.26826e-06
-0.00012398
1.5491e-06
-0.000123938
1.28918e-06
-0.000124018
7.81838e-07
-0.000126129
-5.99499e-07
-0.000133081
-1.93839e-06
-0.000138693
-4.00021e-07
-0.000139989
5.71135e-07
-0.000139961
1.48756e-06
-0.000138467
2.90743e-06
-0.000135729
4.0805e-06
-0.000132728
3.9e-06
-0.000129149
2.94267e-06
-0.000127647
1.56071e-06
-0.000127483
2.02113e-08
-0.000128333
-1.6093e-06
-0.00012865
-2.85185e-06
-0.000129181
-2.38623e-06
-0.000132413
-1.74089e-06
-0.000135387
6.17792e-07
-0.000136333
2.67156e-06
-0.000136377
3.86388e-06
-0.000136611
4.12843e-06
-0.000136895
3.36073e-06
-0.000136768
2.47338e-06
-0.0001344
1.33504e-06
-0.000131257
-6.13313e-07
-0.000129168
-2.25319e-06
-0.000127454
-2.90438e-06
-0.000125821
-2.39098e-06
-0.000125569
-1.83746e-06
-0.000126835
-1.65099e-06
-0.000132637
-5.2971e-07
-0.000137039
1.89518e-06
-0.000139162
3.14012e-06
-0.000140257
2.60652e-06
-0.000140446
2.21227e-06
-0.000140059
1.81377e-06
-0.00013528
1.35022e-06
-0.000128597
-6.79752e-07
-0.000124845
-3.11e-06
-0.000122928
-4.29002e-06
-0.000122114
-4.71779e-06
-0.000122148
-5.26519e-06
-0.000123198
-5.82157e-06
-0.000129272
-5.69305e-06
-0.000135459
-3.67397e-06
-0.000138107
-1.23298e-06
-0.000138772
-1.27396e-07