/*--------------------------------*- C++ -*----------------------------------*\
  =========                 |
  \\      /  F ield         | OpenFOAM: The Open Source CFD Toolbox
   \\    /   O peration     | Website:  https://openfoam.org
    \\  /    A nd           | Version:  12
     \\/     M anipulation  |
\*---------------------------------------------------------------------------*/
FoamFile
{
    format      ascii;
    class       volScalarField;
    location    "8.1";
    object      rho;
}
// * * * * * * * * * * * * * * * * * * * * * * * * * * * * * * * * * * * * * //

dimensions      [1 -3 0 0 0 0 0];

internalField   nonuniform List<scalar> 
22702
(
1.40001
1.40001
1.25919
1.40001
1.45949
1.40001
1.83667
1.40001
1.40001
1.05457
1.83777
1.83767
1.40001
1.84179
1.26954
1.40001
1.40001
1.40001
1.83843
1.40001
1.84188
1.40001
1.83939
1.02184
1.84099
0.990679
1.40001
1.84025
1.03444
1.02311
1.40001
1.83931
1.40001
1.40001
1.40001
1.80935
1.84168
1.8394
1.40001
1.40001
1.03418
1.40001
1.61999
1.40001
1.83906
1.40001
1.40001
1.40001
1.40001
1.033
1.40001
1.03419
1.40001
1.83818
1.40001
1.83923
1.40001
1.40001
1.40001
1.40001
1.00532
1.40001
1.40001
1.03845
1.40001
1.03006
1.40001
1.40001
1.40001
1.03499
1.40001
1.84023
1.67054
1.40001
1.84282
1.86159
1.02033
1.84382
1.0196
1.40001
1.83835
1.02816
1.83604
1.83676
1.40001
1.40001
1.40001
1.40001
1.32199
1.04503
1.83903
1.40001
1.40001
1.06246
1.40001
1.84234
1.06602
1.40001
1.40001
1.40001
1.40001
1.62028
1.83901
1.02542
1.40001
1.40001
1.50749
1.40001
1.02516
1.40001
1.84378
1.839
1.40001
1.40001
1.03854
1.03638
1.05095
1.40001
1.40001
1.40001
1.40001
1.40001
1.29634
1.40001
1.78059
1.44685
1.84203
1.40001
1.84094
1.83824
1.84137
1.83799
1.40001
1.01836
1.40001
1.03293
1.40001
1.40001
1.40001
1.40001
1.83865
1.40001
1.40001
1.40001
1.40001
1.84246
1.40001
1.42481
1.40001
1.40001
1.40001
1.40001
1.02053
1.40001
1.41066
1.40001
1.01948
1.40001
1.40001
1.40001
1.83799
1.40001
1.83921
0.989401
1.00328
1.84203
1.84123
1.40001
1.47092
1.65352
1.40001
1.8366
1.02129
1.81084
1.40001
1.40001
1.40001
1.40001
1.84206
1.77475
1.40001
1.83921
1.03885
1.83826
1.40001
1.02726
1.40001
1.03202
0.997317
1.39977
1.40001
1.40001
1.83657
1.40001
1.40001
1.84365
1.40001
1.83654
1.83829
1.02985
1.40001
1.40001
1.0302
1.84129
1.40001
1.40001
1.40001
1.8415
1.40001
1.03627
1.40001
1.40001
1.84101
1.84287
1.8404
1.40001
1.40004
1.40001
1.40001
1.40001
1.8418
1.40001
1.03392
1.85493
1.84157
1.84083
1.40001
1.40001
1.40001
1.00577
1.84003
1.61261
1.40001
1.84349
1.03589
1.03634
1.84377
1.84457
1.40001
1.84275
1.06335
1.79092
1.40001
1.40001
1.40001
1.40001
1.84409
1.40001
1.65572
1.44255
1.40001
1.40001
1.84255
1.05228
1.16737
1.40001
1.84221
1.03659
1.84546
1.40001
1.40001
1.40001
1.40001
1.40001
1.40001
1.40001
1.03015
1.13662
1.03613
1.84069
1.40001
1.40001
1.40001
1.40001
1.79122
1.40001
1.03181
1.40001
1.00378
1.03009
1.84483
1.02561
1.8419
1.40001
1.40001
1.40001
1.39746
1.03283
1.0403
1.4
1.40001
0.997069
1.40001
1.8388
1.04393
1.40001
1.40001
1.83652
0.982728
1.40001
1.83997
0.997917
1.84235
1.40001
1.01548
1.39769
1.40001
1.40001
1.40001
1.03336
1.40001
1.40001
1.40001
1.40001
1.40283
1.67194
1.40001
1.08537
1.40001
1.40001
1.40001
1.40001
1.40001
1.40001
1.40001
1.83694
1.40001
1.83634
1.40001
1.40001
1.40001
1.02177
1.40001
1.84321
1.03463
1.40001
1.7443
1.40001
1.40001
1.84277
1.40001
1.40001
1.40001
1.82831
1.40001
1.40001
1.82264
1.84073
1.40001
1.48965
1.40001
1.40001
1.03989
1.40001
1.40001
1.40001
1.05152
1.40001
1.40001
1.40001
1.40001
1.06396
1.40001
1.40001
1.40001
1.40001
1.40001
1.07912
1.40006
1.83899
1.40001
1.39997
1.84059
1.84195
1.40001
1.40001
1.04057
1.22515
1.84181
1.40001
1.40001
1.40001
1.84182
1.03338
1.40001
1.83929
1.40001
1.40001
1.1108
1.09454
1.40001
1.02884
1.0303
1.40001
1.40001
1.40001
1.40001
1.40001
1.40001
1.40001
1.84212
1.51291
1.8307
1.07903
1.29818
1.83724
1.40001
1.84292
1.8407
1.03772
1.1887
1.40001
1.03719
1.40001
1.84837
1.40001
1.40001
1.40001
1.40001
1.8424
1.40001
1.40001
1.40001
1.40001
1.40001
1.40001
1.40001
1.55998
1.83872
1.40001
1.84102
1.40001
1.40001
1.02968
1.40001
1.40001
1.40001
1.40001
1.84008
1.73618
1.40001
1.40001
1.02455
1.84034
1.84169
1.40001
1.84146
1.8429
1.84351
1.40001
1.23959
1.40001
1.84122
1.38395
1.84262
1.40001
1.03695
1.39879
1.84003
1.40001
1.40001
1.40001
1.40001
1.02683
1.84418
1.79869
1.40001
1.84397
1.84157
1.84155
1.40001
1.61033
1.84087
1.40001
1.40001
1.70604
1.46202
1.84099
1.33459
1.84197
1.40001
1.8427
1.84053
1.84259
1.84006
1.40001
1.83421
1.29512
1.27305
1.40001
1.4
1.40001
1.40001
1.84356
1.40001
1.40001
1.40001
1.40001
1.40001
1.84087
1.40001
1.40001
1.39597
1.84135
1.78622
1.40001
1.77591
1.40005
1.40001
1.40001
1.83926
1.40001
1.39755
1.40463
1.40001
1.84061
1.40001
1.84087
1.40001
1.40001
1.73158
1.40001
1.84351
1.40003
1.40001
1.84452
1.40001
1.83983
1.40001
1.40001
1.40001
1.84404
1.40001
1.84212
1.40001
1.84355
1.83799
1.84183
1.8404
1.40001
1.83937
1.82862
1.40001
1.02755
1.8138
1.71628
1.40001
1.84273
1.40001
1.04975
0.995041
1.40001
1.40001
1.40001
1.40001
1.40001
1.06912
1.40001
1.84016
1.51307
1.83979
1.40001
1.40001
1.40001
1.40001
1.40001
1.84001
1.40001
1.84397
1.6652
1.1855
1.40001
1.40001
1.53256
1.52016
1.40001
1.40001
1.55834
1.40001
1.02131
1.84494
1.8449
1.40001
1.40001
1.40001
1.83789
1.40001
1.40003
1.84282
1.8449
1.35505
1.40001
1.40001
1.04112
1.80126
1.40001
1.40001
1.40001
1.40001
1.40001
1.84026
1.84024
1.40001
1.84297
1.84207
1.84209
1.40001
1.40001
1.40001
1.40001
1.02306
1.83712
1.40001
1.40001
1.80251
1.84072
1.40001
1.81708
1.83874
1.40001
1.40001
1.40001
1.40001
1.40001
1.84398
1.40001
1.40001
1.40001
1.40001
1.83794
1.40001
1.83806
1.03501
1.40001
1.04197
1.40001
1.40001
1.40001
1.39723
1.02145
1.39911
1.40001
1.40001
1.40001
1.46089
1.40001
1.40001
1.26823
1.40001
1.40001
1.40001
1.40001
1.40001
1.40001
1.40001
1.4
1.30886
1.4
1.40001
1.39738
1.40001
1.0286
1.40001
1.40001
1.40001
1.40001
1.73221
1.40001
1.40001
1.40001
1.40001
1.03774
1.40001
1.40001
1.81525
1.83584
1.4
1.40001
1.40001
1.29124
1.40001
1.40001
1.40001
1.40001
1.40001
1.40001
1.34881
1.40048
1.84182
1.40001
1.40001
1.40001
1.84166
1.28859
1.40001
1.40001
1.40001
1.83984
1.8388
1.40001
1.40001
1.40001
1.40001
1.40001
1.40001
1.40001
1.40001
1.40001
1.02479
1.40001
1.40001
1.83996
1.03613
1.40001
1.84054
1.40001
1.01374
1.40001
1.40001
1.0272
1.40001
1.40001
1.40001
1.40001
1.40001
1.40001
1.40001
1.8333
1.8409
1.40001
1.40001
1.40001
1.40001
1.80324
1.40001
1.53883
1.02796
1.40001
1.40001
1.40001
1.40001
1.40001
1.40001
1.40001
1.43802
1.40001
1.40001
1.62753
1.40001
1.40001
1.40001
1.76191
1.40001
1.40001
1.40001
1.40001
1.03564
1.40001
1.40001
1.00413
1.0366
1.40001
1.40001
1.84154
1.40001
1.40264
1.40001
1.40001
1.40001
1.70675
1.05645
1.40001
1.04217
1.40001
1.18431
1.40001
1.40001
1.40001
1.84138
1.40001
1.40001
1.84198
1.40001
1.40001
1.40001
1.84136
1.40001
1.40001
1.84007
1.40001
1.40001
1.0376
1.40001
1.53771
1.40001
1.40001
1.83859
1.83681
1.69697
1.79427
1.40001
1.0374
1.40001
1.40001
1.82223
1.40001
1.03507
1.40001
1.40001
1.40001
1.84292
1.40001
1.40001
1.40001
1.40001
1.66501
1.40001
1.82981
1.84427
1.05416
1.40001
1.40001
1.00679
0.983712
1.40001
1.40001
1.40001
1.70951
1.73492
1.40001
1.40001
1.40001
1.40001
1.40001
1.40001
1.40001
1.59056
1.8378
1.4079
1.40001
1.83716
1.01417
1.40001
1.40001
1.40001
1.63694
1.40001
1.48455
1.40001
1.80306
1.84018
1.40001
1.03624
1.40001
1.83707
1.40001
1.40001
1.84318
1.81547
1.40001
1.84107
1.40001
1.05294
1.40001
1.40001
1.40001
1.84074
1.83267
1.78976
1.40001
1.84021
1.84242
1.40001
1.84378
1.40001
1.84085
1.40001
1.03635
1.37177
1.0164
1.40001
1.40001
1.40001
1.40001
1.40001
1.8424
1.40001
1.84266
1.40001
1.40001
1.40001
1.81943
1.40001
1.01984
1.84429
1.40001
1.02604
1.07173
1.0473
1.40001
1.61727
1.43448
1.84322
1.84321
1.40001
1.4
1.40001
1.40001
1.84147
1.40001
1.40001
1.84119
1.84032
1.40001
1.55093
1.40006
1.40001
1.39684
1.8387
1.23989
1.40001
1.20813
1.02556
1.02161
1.36537
1.84008
1.83668
1.48257
1.84148
1.83999
1.40001
1.40001
1.84141
1.83791
1.84379
1.83591
1.40001
1.84149
1.01423
1.84717
1.84143
1.8402
1.8445
1.26889
1.29708
1.31137
1.84132
1.34339
1.84056
1.40001
1.40001
1.84361
1.84179
1.40001
1.03716
1.84056
1.83997
1.40001
1.841
1.84092
1.40001
1.84175
1.03586
1.84897
1.84106
1.83864
1.85008
1.40001
1.40001
1.40001
1.8402
1.68769
1.08545
1.84021
1.00644
1.84108
1.40001
1.40001
1.40001
1.40001
1.84456
1.84041
1.40001
1.40001
1.84096
1.01667
1.84101
1.02932
1.40001
1.83779
1.40001
1.05267
1.84318
1.13354
1.40001
1.84396
1.84431
1.84252
1.40001
1.40001
1.5932
1.8436
1.01497
1.84116
1.40001
1.84133
1.27402
1.84262
1.03668
1.40001
1.84102
1.06625
1.84391
1.0178
1.40001
1.84259
1.40001
1.83932
1.40001
1.6552
1.82558
1.74985
1.02813
1.40001
1.84133
1.40001
1.84187
1.40001
1.84232
1.40001
1.40001
1.84334
1.38578
1.84433
1.0615
1.80629
1.40001
1.70955
1.40001
1.84066
1.84207
1.84313
1.40001
1.79688
1.84192
1.80715
1.67169
1.82604
1.40001
1.69105
1.40001
1.84311
1.40001
1.45681
1.40001
1.80941
1.40001
1.8415
1.82079
1.81999
1.40001
1.82968
0.987749
1.40001
1.03516
1.40001
1.40001
1.40001
1.84172
1.40001
1.84245
1.40001
1.40001
1.40001
1.84334
1.8379
1.76089
1.84009
1.83934
1.04179
1.84867
1.8327
1.40001
1.78378
1.84207
1.81837
1.40001
1.83624
1.83824
1.40001
1.84758
1.84229
1.84239
1.84328
1.40001
1.40001
1.40001
1.84274
1.07141
1.40001
1.84175
1.40001
1.40001
1.00146
1.40001
1.40001
1.84165
1.83967
1.40001
1.84214
1.84836
1.84386
1.38272
1.8414
1.40001
1.84159
1.8418
1.75263
1.40001
1.40001
1.40001
1.84351
1.84092
1.84199
1.33889
1.40001
1.84867
1.84249
1.83935
1.40001
1.84287
1.8428
1.84135
1.8479
1.40001
1.84156
1.83946
1.78246
1.84196
1.84605
1.40001
1.84931
1.83633
1.84171
1.84339
1.8436
1.01268
1.84383
1.83996
1.40001
1.84142
1.8414
1.84117
1.84098
1.40001
1.84289
1.84004
1.40001
1.83976
1.77199
1.40001
1.40001
1.40001
1.84472
1.85027
1.40001
1.40001
1.63509
1.40001
1.84146
1.40001
1.40001
1.84051
1.84331
1.84188
1.83978
1.40001
1.40001
1.40001
1.71387
1.40001
1.84314
1.40001
1.40001
1.84066
1.84094
1.40001
1.84216
1.01409
1.84174
1.84223
1.08334
1.40001
1.0256
1.78389
1.84551
1.84289
1.84254
1.05013
1.84215
1.84207
1.04424
1.01086
1.40001
1.84264
1.84189
1.40001
1.40001
1.84382
1.40001
1.84082
1.40001
1.78796
1.40001
1.59907
1.84232
1.84405
1.71303
1.79471
1.83719
1.84324
1.81222
1.40001
1.01177
1.84496
1.84107
1.84878
1.40002
1.40001
1.40001
1.84347
1.40001
1.84131
1.83923
1.15175
1.40001
1.84166
1.39994
1.40001
1.40004
1.40005
1.84129
1.84382
1.39847
1.40001
1.40001
1.84237
1.84368
1.84237
1.83914
1.84185
1.06146
1.77048
1.40001
1.83772
1.84151
1.84145
1.83692
1.40001
1.84214
1.82947
1.84319
1.40001
1.8413
1.84421
1.26085
1.84119
1.8414
1.40001
1.84045
1.24805
1.84212
1.25092
1.84171
1.40001
1.84227
1.84894
1.84208
1.84246
1.84229
1.84038
1.84288
1.8402
1.40001
1.31578
1.84223
1.84088
1.25085
1.84208
1.37951
1.66656
1.84086
1.84249
1.8474
1.40001
1.84415
1.69488
1.84185
1.32351
1.84419
1.84651
1.40001
1.2768
1.40001
1.83438
1.40001
1.70445
1.40001
1.83302
1.26511
1.40001
1.8415
1.84661
1.40001
1.84203
1.84368
1.84939
1.83569
1.84716
1.40001
1.83544
1.40001
1.40001
1.40001
1.29147
1.84144
1.84062
1.83931
1.84221
1.84071
1.83991
1.84736
1.84252
1.2855
1.43049
1.40001
1.40001
1.84673
1.84226
1.84159
1.84152
1.40003
1.63226
1.40001
1.84808
1.79118
1.40001
1.40001
1.11203
1.84169
1.40001
1.40001
1.01524
1.84149
1.40001
1.83307
1.84011
1.83598
1.82578
1.84255
1.40001
1.03767
1.50711
1.84308
1.84251
1.40001
1.84014
1.84132
1.62842
1.41059
1.49438
1.40001
1.83907
1.83936
1.40001
1.40001
1.04051
1.40001
1.40001
1.8421
1.84205
1.84021
1.84247
1.84103
1.84358
1.84156
1.84306
1.84237
1.40001
1.39599
1.84218
1.84256
1.39695
1.84159
1.84134
1.03985
1.05967
1.84001
1.84785
1.40001
1.40001
1.40196
1.84317
1.84161
1.84141
1.40001
1.84174
1.40001
1.2412
1.85043
1.84898
1.40001
1.6089
1.84228
1.40001
1.84156
1.40001
1.84164
1.69451
1.84254
1.40001
1.84228
1.84921
1.04034
1.8434
1.40001
1.84268
1.83798
1.40001
1.03371
1.84207
1.76316
1.39748
1.82587
1.84142
1.40001
1.39432
1.84624
1.39726
1.84098
1.40001
1.40001
1.8434
1.40001
1.84116
1.84144
1.39632
1.75656
1.40001
1.84123
1.40001
1.40001
1.40001
1.40001
1.84136
1.40001
1.40001
1.83688
1.40001
1.84132
1.40001
1.6781
1.83851
1.8408
1.40001
1.40001
1.39773
1.40001
1.84153
1.84209
1.84387
1.83937
1.8426
1.84152
1.84252
1.40001
1.8416
1.84098
1.40001
1.84082
1.84052
1.40001
1.84049
1.30629
1.45789
1.84156
1.84054
1.8419
1.40001
1.8394
1.40001
1.84172
1.83932
1.40001
1.83997
1.40001
1.40001
1.40001
1.40001
1.8425
1.03188
1.39788
1.40001
1.84465
1.83601
1.40001
1.84151
1.40001
1.40497
1.02319
1.84177
1.39961
1.40001
1.84028
1.39831
1.84273
1.40001
1.39976
1.40001
1.84076
1.84453
1.84022
1.84234
1.01815
1.84479
1.8411
1.8427
1.51142
1.40001
1.40001
1.58968
1.841
1.02698
1.02132
1.40001
1.84227
1.83995
1.84033
1.40001
1.40001
1.83988
1.84235
1.39989
1.40001
1.71284
1.01402
1.40001
1.47885
1.83788
1.84211
1.39826
1.84157
1.8503
1.40001
1.39912
1.40001
1.83891
1.83944
1.57843
1.40001
1.81962
1.40001
1.40238
1.84131
1.03735
1.8385
1.84154
1.39693
1.39991
1.7887
1.40001
1.39969
1.40001
1.84468
1.40001
1.40002
1.01909
1.84171
1.40001
1.40001
1.40001
1.40001
1.83729
1.65323
1.40001
1.40001
1.03368
1.84244
1.65472
1.40001
1.40001
1.40001
1.82025
1.83892
1.84033
1.40001
1.40001
1.84513
1.40001
1.84128
1.84072
1.40001
1.40001
1.84311
1.84105
1.81887
1.40001
1.40001
1.84287
1.84301
1.40001
1.40001
1.40001
1.84307
1.40001
1.40001
1.40001
1.84052
1.84158
1.84235
1.40001
1.84118
1.40004
1.07357
1.83859
1.8409
1.40001
1.84223
1.82005
1.84341
1.40001
1.40001
1.84496
1.40001
1.64823
1.84284
1.40001
1.03299
1.40001
1.84434
1.40001
1.40001
1.83785
1.40001
1.40001
1.40001
1.53765
1.8434
1.05134
1.40002
1.84348
1.40001
1.40001
1.84046
1.40001
1.84451
1.40001
1.40001
1.84272
1.84127
1.40001
1.40006
1.40001
1.40001
1.40001
1.40001
1.40001
1.40001
1.84637
1.84158
1.40001
1.83429
1.03885
1.84882
1.40001
1.83951
1.84073
1.84257
1.83599
1.83975
1.40001
1.40001
1.83639
1.40001
1.66374
1.8477
1.83982
1.40001
1.84568
1.83361
1.40001
1.80317
1.40001
1.84212
1.68177
1.83787
1.39748
1.83486
1.80212
1.84615
1.84226
1.4362
1.84186
1.84574
1.40001
1.84122
1.40001
1.84216
1.40001
1.40001
1.40001
1.40001
1.39666
1.84126
1.84215
1.77148
1.40001
1.84626
1.40001
1.40001
1.40001
1.0686
1.40001
1.82585
1.40001
1.80129
1.82466
1.40001
1.40001
1.40001
1.81127
1.84074
1.40001
1.40001
1.84063
1.02491
1.48097
1.40001
1.84495
1.84118
1.80394
1.82802
1.8403
1.40001
1.8418
1.40001
1.40001
1.40001
1.40001
1.84644
1.84235
1.40001
1.83562
1.45636
1.84195
1.81137
1.40001
1.40001
1.81344
1.40001
1.40001
1.03665
1.71
1.40001
1.40001
1.84618
1.40001
1.8471
1.79693
1.40001
1.79922
1.02092
1.84198
1.84139
1.84254
1.40001
1.0369
1.40001
1.40001
1.40001
1.84144
1.75905
1.40001
1.84599
1.84073
1.40001
1.84185
1.40001
1.40001
1.40001
1.40001
1.84119
1.39945
1.40001
1.84411
1.40001
1.40001
1.83883
1.84152
1.40001
1.84221
1.48152
1.40003
1.40001
1.84306
1.40001
1.84387
1.40001
1.41643
1.84116
1.40001
1.84264
1.40001
1.40001
1.54142
1.84065
1.40001
1.40001
1.40001
1.40001
1.40001
1.39584
1.03694
1.03926
1.41978
1.40001
1.42091
1.40001
1.42498
1.40001
1.84116
1.40001
1.66108
1.40001
1.84266
1.40001
1.40001
1.40001
1.84242
1.40001
1.74994
1.84212
1.40001
1.63554
1.84182
1.40001
1.40001
1.84131
1.84099
1.40001
1.40001
1.44824
1.02816
1.40001
1.84081
1.40001
1.40001
1.40001
1.40001
1.47536
1.84085
1.40001
1.40001
1.40001
1.04422
1.40001
1.84267
1.83959
1.84719
1.40001
1.40001
1.40001
1.40001
1.62604
1.84213
1.40001
1.40001
1.40001
1.83701
1.84174
1.44753
1.40001
1.40001
1.40001
1.83916
1.84165
1.40001
1.02936
1.84031
1.84172
1.84371
1.84412
1.844
1.40001
1.40001
1.84057
1.8457
1.84079
1.03806
1.43976
1.84287
1.40001
1.40001
1.40001
1.40001
1.40001
1.84175
1.02013
1.40001
1.40001
1.8418
1.59369
1.40001
1.84526
1.40001
1.40001
1.40001
1.03941
1.40001
1.40001
1.51264
1.8401
1.84212
1.40001
1.84423
1.84494
1.40001
1.47447
1.40001
1.84349
1.40001
1.84403
1.02163
1.40001
1.40001
1.40001
1.40001
1.84224
1.40008
1.40001
1.40001
1.40001
1.81413
1.40001
1.40001
1.40001
1.40001
1.8412
1.03749
1.73726
1.84602
1.40001
1.84213
1.40001
1.40001
1.40001
1.39708
1.40001
1.84128
1.40001
1.21029
1.40001
1.40001
1.40004
1.84257
1.02535
1.40001
1.83897
1.40001
1.84557
1.84184
1.04424
1.40001
1.40001
1.82629
1.40001
1.40001
1.05804
1.40001
1.84175
1.40001
1.82113
1.39932
1.84098
1.40001
1.40001
1.40001
1.40001
1.83733
1.40001
1.40001
1.8418
1.40001
1.40001
1.40001
1.40001
1.40001
1.40001
1.40001
1.40001
1.68981
1.40001
1.54532
1.8399
1.40001
1.40001
1.40001
1.03609
1.40001
1.40001
1.40001
1.40001
1.83881
1.84144
1.44942
1.40001
1.40001
1.84378
1.40001
1.40001
1.84079
1.40001
1.40002
1.40001
1.40001
1.40001
1.40002
1.84098
1.17744
1.84165
1.8443
1.39717
1.40001
1.40001
1.40001
1.66354
1.40001
1.40001
1.84065
1.84119
1.40001
1.40001
1.40001
1.40001
1.04017
1.40001
1.40001
1.40001
1.68128
1.40001
1.84221
1.84337
1.40001
1.84445
1.40001
1.40001
1.40001
1.63924
1.40001
1.83855
1.40001
1.84173
1.40001
1.40001
1.39619
1.84162
1.40001
1.40001
1.40001
1.40001
1.40001
1.84275
1.40003
1.40001
1.03702
1.84179
1.03551
1.40001
1.83988
1.40001
1.39631
1.40001
1.84217
1.84046
1.40001
1.83624
1.26431
1.84161
1.84077
1.40004
1.40001
1.40001
1.03961
1.40001
1.40001
1.40001
1.84218
1.65427
1.84555
1.40001
1.40001
1.40001
1.40001
1.39697
1.84574
1.40001
1.02306
1.40001
1.40001
1.40001
1.40001
1.40001
1.40001
1.40001
1.84547
1.84522
1.8461
1.40001
1.40001
1.39691
1.40001
1.38225
1.40001
1.40001
1.40001
1.02775
1.38053
1.40001
1.05197
1.03783
1.40001
1.84252
1.84201
1.40001
1.84048
1.84116
1.03505
1.7092
1.40001
1.40001
1.40001
1.0216
1.8413
1.40001
1.022
1.40001
1.83763
1.46733
1.40001
1.40001
1.40001
1.40001
1.84165
1.83817
1.40001
1.40001
1.84163
1.40001
1.40001
1.83664
1.84185
1.40001
1.81905
1.84231
1.8433
1.36611
1.84625
1.40855
1.02992
1.73943
1.84203
1.40001
1.40001
1.40001
1.03265
1.40001
1.03558
1.83936
1.36217
1.84199
1.34475
1.40001
1.84085
1.59577
1.40001
1.40001
1.8419
1.40001
1.58191
1.84106
1.40001
1.40001
1.83801
1.84991
1.04511
1.65975
1.3999
1.40001
1.66567
1.40001
1.84225
1.33168
1.84826
1.84757
1.40001
1.40001
1.40001
1.40001
1.83736
1.40001
1.40001
1.84446
1.39963
1.84083
1.75689
1.84025
1.03358
1.40001
1.40001
1.40001
1.40001
1.84039
1.40005
1.84247
1.40001
1.8413
1.83565
1.45782
1.84554
1.53988
1.84048
1.40001
1.70458
1.07937
1.84607
1.84433
1.76677
1.47209
1.83874
1.84157
1.8415
1.84254
1.40001
1.31501
1.46726
1.40001
1.84499
1.6161
1.84209
1.40004
1.40001
1.40001
1.06921
1.84211
1.8426
1.76632
1.40001
1.57112
1.40001
1.84001
1.83976
1.40001
1.84391
1.842
1.40001
1.40001
1.40001
1.84529
1.40001
1.5748
1.84586
1.70808
1.40001
1.84382
1.40001
1.40001
1.40001
1.40001
1.40001
1.40001
1.40001
1.40001
1.40001
1.40001
1.05017
1.40001
1.80886
1.01986
1.6615
1.39858
1.84432
1.40001
1.6347
1.40002
1.68102
1.7631
1.40001
1.40183
1.84393
1.31452
1.40001
1.84155
1.82599
1.33873
1.40001
1.84618
1.84059
1.84296
1.40001
1.84224
1.84391
1.84529
1.40001
1.59706
1.40001
1.40006
1.84069
1.40001
1.84181
1.46506
1.84464
1.40001
1.40001
1.84327
1.84026
1.07967
1.40001
1.84057
1.73179
1.84065
1.40001
1.40001
1.84416
1.83542
1.39823
1.40001
1.77606
1.39693
1.84218
1.40008
1.40001
1.40001
1.40001
1.40001
1.59388
1.40001
1.73008
1.83873
1.72934
1.84159
1.40001
1.40338
1.40001
1.40001
1.83943
1.40001
1.84656
1.40001
1.40001
1.40001
1.40001
1.4
1.40001
1.45869
1.63113
1.40001
1.40001
1.01747
1.40001
1.8387
1.05426
1.84482
1.40001
1.62484
1.39976
1.84253
1.68007
1.07115
1.64452
1.40004
1.84456
1.84346
1.40001
1.66719
1.84485
1.84348
1.3984
1.85358
1.83065
1.04192
1.40001
1.40001
1.39745
1.40001
1.82109
1.40001
1.07343
1.84135
1.40001
1.40001
1.78205
1.40001
1.8389
1.40001
1.84144
1.40001
1.06163
1.40001
1.40001
1.83962
1.84884
1.84617
1.40001
1.84296
1.84177
1.83618
1.40001
1.40001
1.83957
1.4
1.13689
1.40001
1.40001
1.40001
1.84043
1.40001
1.84159
1.68602
1.8424
1.40001
1.84157
1.39936
1.40001
1.40001
1.40001
1.40001
1.40001
1.40001
1.09236
1.40001
1.40001
1.8416
1.40001
1.84169
1.84399
1.40001
1.0293
1.03462
1.40001
1.84255
1.4777
1.0196
1.02384
1.40001
1.84105
1.40001
1.84367
1.04702
1.40153
1.40001
1.40001
1.39951
1.40001
1.40001
1.40001
1.39992
1.58203
1.84165
1.40001
1.40001
1.84487
1.66246
1.40001
1.79713
1.84326
1.84248
1.58465
1.84007
1.40001
1.84189
1.40001
1.82429
1.40001
1.83753
1.84167
1.3968
1.84391
1.8428
1.40001
1.40001
1.40001
1.40001
1.40001
1.32456
1.84178
1.40005
1.40003
1.00394
1.39999
1.0248
1.07729
1.40001
1.84128
1.84178
1.84147
1.40001
1.84124
1.40001
1.0347
1.40001
1.40001
1.84362
1.22176
1.83865
1.40001
1.84109
1.40001
1.37585
1.84084
1.40001
1.40001
1.40001
1.84628
1.40001
1.8427
1.0462
1.40001
1.40001
1.65901
1.40001
1.40001
1.64476
1.40001
1.40001
1.84235
1.40001
1.40001
1.40001
1.40001
1.40001
1.84629
1.84082
1.40001
1.84314
1.84405
1.04623
1.599
1.84294
1.40001
1.40001
1.79806
1.39905
1.40001
1.40001
1.84161
1.84067
1.69408
1.40001
1.8418
1.0437
1.81493
1.39971
1.40001
1.83914
1.40004
1.84313
1.77528
1.73531
1.40001
1.40001
1.84144
1.09607
1.02678
1.40001
1.84202
1.40001
1.84266
1.40001
1.66548
1.40001
1.40001
1.84023
1.67874
1.02674
1.40001
1.39832
1.40001
1.40001
1.42512
1.5872
1.84189
1.40001
1.8392
1.40001
1.40001
1.40001
1.40001
1.40001
1.40001
1.4662
1.0288
1.40001
1.40001
1.42031
1.40001
1.40001
1.40001
1.40001
1.40001
1.84188
1.40001
1.40001
1.84135
1.84261
1.73371
1.40001
1.40001
1.40001
1.21094
1.84428
1.70843
1.40001
1.40001
1.40001
1.40001
1.84041
1.40001
1.40001
1.40001
1.84753
1.40001
1.40001
1.71824
1.85358
1.43448
1.117
1.8448
1.7153
1.83903
1.40001
1.6199
1.40001
1.40001
1.40001
1.08389
1.40305
1.01035
1.40001
1.04957
1.02201
1.40001
1.05322
1.40001
1.40001
1.40001
1.6009
1.40001
1.84212
1.84235
1.40111
1.61887
1.77627
1.02639
1.14463
1.27378
1.40001
1.84173
1.84044
1.84176
1.84219
1.78084
1.26055
1.40001
1.78252
1.40001
1.81352
1.40001
1.40001
1.39629
1.41033
1.40001
1.40001
1.40001
1.84345
1.40001
1.01499
1.40001
1.84294
1.03064
1.40001
1.40001
1.84193
1.40001
1.84196
1.39963
1.40001
1.40001
1.84259
1.79007
1.40001
1.85325
1.40001
1.40001
1.41444
1.40001
1.59588
1.40001
1.40001
1.04591
1.40001
1.40001
1.84438
1.4
1.84256
1.40001
1.40004
1.02347
1.40001
1.40001
0.994517
1.40082
1.40001
1.84041
1.03107
1.84851
1.02071
1.84027
1.40001
1.40001
1.40001
1.40001
1.40001
1.40001
1.40001
1.40001
1.40001
1.40001
1.40001
1.82356
1.40001
1.8443
1.83738
1.01957
1.40001
1.40001
1.40001
1.40001
1.40001
1.40001
1.82901
1.40001
1.40001
1.03607
1.40001
1.40001
1.83986
1.40001
1.40001
1.56075
1.77223
1.0315
1.03368
1.09248
1.14741
1.40001
1.39657
0.992202
1.4002
1.80255
1.39683
1.40001
1.40001
1.84076
1.40001
1.40001
1.40001
1.16491
1.40002
1.56156
1.40001
1.40001
1.583
1.84273
1.40001
1.03396
1.40001
1.40001
1.40001
1.39654
1.40001
1.83934
1.84143
1.40001
1.0311
1.40001
1.63907
1.02943
1.40001
1.28817
1.40001
1.39636
1.02725
1.40001
1.40001
1.40001
1.39606
1.04441
1.40001
1.04421
1.39839
1.63054
1.79304
1.03098
1.03162
1.40001
1.39058
1.40001
1.39869
1.40001
1.8419
1.84268
1.40001
1.41347
1.84128
1.8411
1.40001
1.40001
1.84117
1.40001
1.40001
1.40005
1.40001
1.84547
1.40001
1.40001
1.41958
1.40001
1.3986
1.07165
1.40001
1.40001
1.40001
1.40001
1.40001
1.84483
1.41584
1.40006
1.40001
1.40001
1.40001
1.40001
1.40001
1.40004
1.40001
1.0267
1.49222
1.39862
1.82245
1.83862
1.40001
1.4159
1.84143
1.78451
1.40001
1.40001
1.07241
1.84329
1.40001
1.83856
1.40001
1.84381
1.71944
1.0235
1.40001
1.02929
1.80608
1.3997
1.40001
1.03666
1.0891
1.40001
1.40001
1.77112
1.40001
1.4
1.02481
1.40001
1.40001
1.40001
1.53974
1.40001
1.01888
1.84352
1.40001
1.40001
1.40001
1.40001
1.84224
1.40001
1.40001
1.84128
1.79662
1.40001
1.40001
1.40001
1.84137
1.04568
1.40001
1.84303
1.84161
1.40001
1.75216
1.4
1.40004
1.40001
1.40001
1.8148
1.42376
1.40001
1.0237
1.63959
1.40001
1.40001
1.39715
1.40001
1.40001
1.84113
1.40001
1.40001
1.40004
1.40001
1.83945
1.40001
1.40001
1.40001
1.40001
1.40001
1.40001
1.40002
1.59703
1.40001
1.84073
1.40001
1.40001
1.84286
1.40001
1.40001
1.40001
1.84139
1.84213
1.44585
1.40001
1.39761
1.40001
1.40001
1.40001
1.40001
1.8384
1.40001
1.40001
1.84202
1.03175
1.40001
1.40001
1.40001
1.40001
1.40001
1.40001
1.75734
1.40001
1.40001
1.8391
1.84078
1.40001
1.40001
1.40001
1.84224
1.8401
1.40001
1.39964
1.83839
1.40001
1.40001
1.40001
1.40002
1.01484
1.43005
1.39616
1.39618
1.40001
1.40001
1.04484
1.84038
1.40001
1.10732
1.40001
1.84022
1.82473
1.03334
1.3994
1.84139
1.84047
1.84075
1.40001
1.40001
1.30678
1.79845
1.76587
1.10093
1.40001
1.40001
1.40001
1.84024
1.84086
1.04785
1.39738
1.40001
1.84168
1.016
1.40001
1.84225
1.02872
1.36526
1.40654
1.40001
1.84528
1.40001
1.40001
1.40001
1.40001
1.40001
1.40001
1.40011
1.81105
1.40001
1.40001
1.84558
1.40001
1.40001
1.40001
1.84116
1.40001
1.02618
1.40001
1.40001
1.40001
1.54698
1.40001
1.40001
1.40001
1.40001
1.40001
1.18291
1.40001
1.01528
1.40001
1.84207
1.40009
1.26485
1.26921
1.40002
1.40406
1.62474
1.40001
1.40001
1.03668
1.84146
1.84201
1.841
1.40001
1.02121
1.06021
1.40001
1.84239
1.40001
1.40001
1.40001
1.40001
1.40001
1.40004
1.40001
1.0299
1.68499
1.40001
1.40001
1.03325
1.38929
1.40001
1.40001
1.40001
1.40001
1.02816
1.40001
1.09846
1.40001
1.40001
1.84043
1.40001
1.40001
1.01834
1.40001
1.842
1.40001
1.02285
1.40001
1.03417
1.40001
1.40797
1.84162
1.85147
1.40001
1.40001
1.84026
1.40001
1.40001
1.48862
1.39667
1.40001
1.39811
1.40001
1.84434
1.40001
1.03243
1.40002
1.83686
1.39879
1.40001
1.40001
1.21091
1.40001
1.39905
1.03059
1.84458
1.56492
1.40001
1.40001
1.31444
1.40001
1.40001
1.40001
1.19628
1.40001
1.40001
1.40001
1.84171
1.40001
1.02419
1.4
1.40001
1.40001
1.40001
1.03338
1.84201
1.79204
1.03748
1.40001
1.84847
1.40001
1.40001
1.84176
1.84172
1.77431
1.02215
1.39779
1.39922
1.40001
1.8416
1.40001
1.40001
1.40001
1.40001
1.84268
1.40004
1.40001
1.40001
1.83955
1.40001
1.40001
1.84053
1.04589
1.40001
1.40001
1.40001
1.03711
1.40001
1.4
1.4
1.39862
1.40001
1.40001
1.40001
1.40001
1.75999
1.40001
1.83936
1.8432
1.84973
1.84239
1.84284
1.84213
1.40001
1.84445
1.40001
1.84248
1.84189
1.40001
1.39887
1.04342
1.77911
1.3999
1.40001
1.40001
1.40001
1.40001
1.40802
1.40001
1.47118
1.40001
1.40001
1.40001
1.23816
1.84099
1.83967
1.84804
1.79134
1.39988
1.40001
1.42214
1.84218
1.39785
1.45112
1.39709
1.05815
1.40001
1.40003
1.40001
1.40001
1.40001
1.40001
1.40001
1.84172
1.02096
1.84224
1.84213
1.39494
0.986555
1.40001
1.40001
1.40001
1.84191
1.03762
1.79211
1.02897
1.84244
1.84613
1.0344
1.84217
1.42456
1.40001
1.84748
1.18496
1.40001
1.39879
1.00944
1.40001
1.04292
1.40001
1.84179
1.84191
1.14372
1.40001
1.84037
1.05568
1.40001
1.04518
1.40001
1.84204
1.40001
1.40001
1.83576
1.40001
1.2246
1.40001
1.39971
1.04051
1.82939
1.39949
1.40001
1.01557
1.40001
1.40001
1.40001
1.40001
1.6421
1.40001
1.84138
1.40001
1.40001
1.85443
1.40001
1.40001
1.84125
1.40001
1.02878
1.40001
1.02728
1.40002
1.40001
1.40001
1.40001
1.40001
1.8243
1.66515
1.84115
1.40001
1.84151
1.81235
1.03372
1.02437
1.40001
1.40001
1.83994
1.40001
1.02673
1.40001
1.38289
1.40001
1.40001
1.84019
1.40001
1.84191
1.01746
1.84533
1.40001
1.01619
1.40001
1.40001
1.84187
1.84011
1.40001
1.40005
1.40001
1.83984
1.40001
1.40001
1.05872
1.39938
1.00438
1.40001
1.40001
1.40001
1.84336
1.83886
1.83877
1.40001
1.40001
1.07608
1.40001
1.84692
1.40001
1.40001
1.40001
1.81582
1.84201
1.84232
1.06223
1.84389
1.84158
1.07031
1.84139
1.40005
1.04901
1.41199
1.40001
1.40001
1.8412
1.04845
1.67967
1.0195
1.84163
1.39755
1.03488
1.84656
1.40001
1.40001
1.40001
1.40001
1.84172
1.84056
1.04111
1.40001
1.40003
1.03044
1.40004
1.40001
1.04397
1.02238
1.70892
1.84171
1.39845
1.8423
1.40001
1.83685
1.22231
1.02764
1.84218
1.84656
1.40001
1.84293
1.40001
1.40001
1.84213
1.40001
1.75214
1.83957
1.40001
1.40001
1.40001
1.40001
1.84138
1.83693
1.8413
1.40001
1.40001
1.84019
1.84176
1.83905
1.40001
1.84168
1.40001
1.40001
1.40001
1.40001
1.40001
1.02155
1.22357
1.0384
1.40001
1.40001
1.84231
1.40001
1.40001
1.8436
1.01669
1.40001
1.84232
1.83702
1.82506
1.03048
1.40001
1.081
1.40001
1.40003
1.83894
1.61423
1.83922
1.80555
1.40001
1.10176
1.40001
1.84087
1.71696
1.03262
1.40001
1.40001
1.40001
1.20085
1.40001
1.40001
1.84551
1.40001
1.03455
1.84203
1.40001
1.40001
1.40001
1.40001
1.40001
1.7559
1.50432
1.40001
1.84347
1.40001
1.84052
1.40001
1.39723
1.40001
1.84029
1.84043
1.84289
1.84712
1.3996
1.83913
1.40001
1.84349
1.8417
1.77288
1.40001
1.40001
1.0292
1.83941
1.40001
1.40001
1.84719
1.84289
1.84244
1.40001
1.84211
1.40001
1.40001
1.40004
1.84017
1.84406
1.53048
1.49359
1.84199
1.84216
1.1052
1.40001
1.40001
1.40001
1.40001
1.40003
1.55101
1.40001
1.40001
1.75627
1.0004
1.39998
1.40001
1.8421
1.39988
1.39983
1.46696
1.8005
1.84014
1.31296
1.40001
1.01825
1.40001
1.39774
1.84038
1.84253
1.83958
1.39901
1.40001
1.40001
1.03673
1.40001
1.40001
1.84103
1.44996
1.40001
1.40001
1.40001
1.40001
1.40001
1.40001
1.40001
1.39994
1.84237
1.40002
1.40001
1.40001
1.40001
1.40001
1.67906
1.40001
1.59872
1.40001
1.40001
1.84144
1.84343
1.04344
1.39876
1.40001
1.4
1.40001
1.04672
1.83844
1.84161
1.40001
1.40001
1.40001
1.40001
1.40001
1.40001
1.40001
1.40001
1.83907
1.85
1.02418
1.45073
1.03225
1.40001
1.05425
1.40001
1.84168
1.52139
1.40001
1.40001
1.11594
1.40001
1.82273
1.19379
1.39667
1.04067
1.40001
1.40001
1.84134
1.40005
1.39722
1.01586
1.83904
1.85076
1.40001
1.40001
1.40001
1.40001
1.81323
1.40001
1.40001
1.84152
1.39893
1.84093
1.40007
1.40001
1.40001
1.00706
1.40001
1.40001
1.84332
1.03134
1.16285
1.01765
1.84185
1.39934
1.40001
1.84632
1.03167
1.03455
1.41408
1.40001
1.40001
1.83868
1.40004
1.59997
1.40001
1.40001
1.83863
1.02939
1.40001
1.40001
1.40013
1.84043
1.40014
1.83333
1.40001
1.40004
1.40001
1.40001
1.10064
1.40001
1.1734
1.40002
1.40001
1.84335
1.01191
1.40001
1.18902
1.2166
1.40001
1.40001
1.84102
1.40001
1.40001
1.40001
1.84088
1.84107
1.40006
1.8345
1.83898
1.16958
1.84149
1.8227
1.40001
1.40001
1.83902
1.4
1.40001
1.40001
1.40001
1.40001
1.83886
1.84223
1.40001
1.40001
1.40001
1.84213