/*--------------------------------*- C++ -*----------------------------------*\
  =========                 |
  \\      /  F ield         | OpenFOAM: The Open Source CFD Toolbox
   \\    /   O peration     | Website:  https://openfoam.org
    \\  /    A nd           | Version:  12
     \\/     M anipulation  |
\*---------------------------------------------------------------------------*/
FoamFile
{
    format      ascii;
    class       volScalarField;
    location    "1.3";
    object      p;
}
// * * * * * * * * * * * * * * * * * * * * * * * * * * * * * * * * * * * * * //

dimensions      [1 -1 -2 0 0 0 0];

internalField   nonuniform List<scalar> 
46253
(
0.993481
1
1
1
1
1
0.955225
0.905784
1
1
0.994618
0.816151
1
1
1
1
1
1
1
1
1
1
1
0.969718
0.952254
1
1
1
1
0.890441
1.06732
1
1
1
1
1
1
1
1.06501
1
0.945508
0.815416
1
1
0.782493
1
1
1
1
1
1
1
1
1.03921
1
0.857956
1
1
1.20956
0.941474
1
1.03065
1
1
1
1
1
1
0.859899
0.781444
0.956002
1
1
1.03153
1
0.969082
1
1
1
1
1
1
1
1
0.947773
1
1
1
1.11566
1
1
0.943522
1
1
1
1
1
1
1.20656
1
1
1
1
1.0634
1
0.948691
0.816865
0.996165
0.996958
0.830677
1.0832
1
1
1
1
1.28787
0.785143
0.950271
1.41344
0.867657
1
1
1
1
1
1.43351
1
0.843312
1.00018
1
1.0765
1.07619
1
0.959761
1
1
1
1
0.864644
1
1
1.10344
1.13802
1.05334
1
1
1
1
1.07369
1
0.828755
1
1
1
1.01564
0.776336
0.843398
1
0.99999
1
0.999983
0.814115
0.855581
1
0.952139
1
0.959089
1
1.67104
1
1.00008
1.00024
1
0.948434
1
0.769081
1.01094
1
1.04035
0.787219
1
1.01437
0.99993
0.998262
1
0.999996
0.999997
0.78148
1
1
1
1
1.01499
1
1
1
1.09132
1
1.12521
1.12456
1
1
1.00001
0.999996
1
0.776424
1.01062
1.00748
1.0395
1
1
1.41613
0.947635
1
1.0067
1
1.04867
0.949047
1.06909
1
1
1.07626
0.76745
1.00023
1.00025
0.948261
1
1
1.11228
1.11141
1.13949
1
1
1
1
1
1
1
1.13599
1.16178
1
1
1
1
1
1
1
1.00847
1
1.09554
1.08985
1.15749
1.09934
1
1.0977
0.999934
0.997442
0.875117
0.948237
1
0.957296
0.942775
0.823759
1.05668
1.00391
1
1
1
1.06523
1.15234
1.06128
1
1
1
1.15253
1
0.999967
1
1.06199
0.889919
1.08459
1.08343
1
1
1
1.02002
1.02061
0.86774
1.03974
1
1.19746
1.19434
0.947936
1
1.18586
1.1024
1
1.09969
0.947146
1.14869
1.40522
1.14725
0.847731
1.39887
1
1.07578
1.07843
1
1.05537
1
1
1.02952
1
1.1471
1
1.14583
0.857171
1.18262
1
1.05259
0.847037
1
0.955287
0.952474
1.0423
1.03486
1
1
1.146
1.14543
1.06011
1.05881
1
1
1
1.02906
0.872226
1.14148
1.14701
1
1
1
1
1.36278
1
1.14123
1.1408
1
0.865716
1
1.13534
1
0.777231
1
0.81499
1
1.15049
1
1.15005
1
0.813492
1
1
1
1
1
1
1
1.13702
1
1
1
1
1.13558
1
1.17387
0.862102
1
1
1
0.950206
1.00801
0.846494
1.14894
0.878144
1.15027
1
1
1.13206
1.50204
1
1.0421
1.13132
1.00932
1
0.918164
0.996284
0.99529
1
1.02009
1
1.0304
1.02984
1.17
1
1
1
1
1
1
1
1
1.37224
1
1.02194
1
1.02736
1
1
0.875008
1
1
1.12747
1
1.14508
1
1
1.12657
1.14564
1
1.02232
1
1
1
1
0.991111
1.20288
1
1
1.03871
0.848679
1
1.01898
1
0.995647
1.01964
1
1
0.864891
1
0.892277
1.02274
1
1.02932
1
1.00012
1.03237
1
1.14258
0.990948
1
0.988807
0.988292
1.14213
1
0.984281
1
1
1
1
1
1.0329
1
1.02315
0.848244
1.12028
0.882718
1.00351
1.11944
1.00687
1.01086
1.00925
1
1
1
1
1.00041
1
0.896667
0.949379
0.804168
0.899078
0.993645
1.00673
0.991083
1
1
1.13853
1.01813
0.825649
1.13787
1.11429
1.11366
1.00408
0.947926
1
1.00151
1.06084
1
1
1
0.942873
1
0.865831
1.02941
1
1
1.00367
1
1
1.02999
0.759737
1.02271
1
1
1.02488
1
1.02399
1.03394
1.02543
1
1.02148
1.01371
1
0.989754
1.02428
1
1
1.1342
1
0.959004
0.878849
1
1
1.13372
1
1
1
1
0.786902
1
1
1.10663
0.883644
1.10576
0.939008
1
1
1
1
1
1
1
0.991958
0.80544
1
1
1
1
1
1
0.955945
1.04624
1
1.03211
1
1
0.845797
1
1
1
1.13014
1
1
1.12977
1.02849
1.09723
1
1.10035
1.10147
1.10488
1.27056
1
1.10144
1.10111
1.04099
0.882609
1
1
1.02877
1
1.41812
1.02944
1
1.4043
0.999998
1
1.05437
1.06205
1
1
0.969369
0.989119
1
1
0.984815
1
1
1
1
1
1
1.00044
1.00023
0.775215
0.994479
1.12438
1.00563
1.10447
1.1786
1
0.955797
0.979036
1.17933
1
1.17329
1
1.17547
1
1.00043
1.16451
1
1.16639
1.30286
1
1.15548
1
1.15652
1
0.786262
1
0.886609
0.979627
1
1
1.14503
1.14669
1
1.01414
1.13605
1.1376
0.984044
1
1
1.12203
1.09281
1.12346
1
1.12288
1.11279
0.857128
1.11436
1.09226
1.12176
1
1
1
1.10554
1.10634
1.05317
1
1
1.09653
0.904293
1.0982
0.849216
1
1.0855
1.08726
1
1
1
1.02883
1
1.02542
1.01667
1.07135
1
1.07347
1
1.07507
1
1
1.02432
1.02604
1.06721
1.06796
0.987826
1.03055
1.05883
1.03313
1.06012
1
0.997189
1.05024
1.05109
1
0.870994
1.04189
1.04285
1.51339
1
1
1
1.03681
0.990396
1.03665
0.775969
1.09959
0.986205
0.83027
1.02786
1.02929
1.01654
1.0255
1.02557
0.866332
0.861926
1
1.02749
1.45718
1.08736
1
0.830634
1.08664
0.860927
0.965906
0.960598
1
1
1
1.11762
1
1
1
1
1
1.11673
1
1
1
0.877583
0.881781
1
0.992588
0.771361
0.988242
1
1
1
1
1
1.01109
1
0.993813
1
1.09474
1.03273
1.09827
0.86412
1
1.00961
0.945183
1.10599
1
1
1
1
1
1.10118
1.09932
1.02089
0.965965
0.964045
1
0.886758
1
1
1.10289
1.01319
1
0.937383
0.999999
1
0.995191
1.00145
1
1.10541
0.843891
0.98606
1
0.99019
1.07922
1
1
0.984845
1.00419
1
1.07842
0.767562
1
1
1.13111
1.13251
0.994253
1
0.76929
0.769083
0.946403
1.03304
1
1.01893
0.897955
0.846233
1.29206
1
1
1
1.09288
1.09353
1
1
1
1.10945
1.08199
1
1
1.08269
1.10844
0.992898
0.989072
1
0.9902
1.02052
0.829961
0.992683
0.852645
1.05591
1
1
1.0563
1
1
1.00087
0.995772
1
1.07389
0.888461
1.01283
0.865826
0.869825
1.07325
0.877336
0.873237
0.84862
0.845748
1
1
0.956823
1
1
0.988143
0.9022
0.881832
1
1
1.02227
1
1.02095
1.02374
0.999997
1.00016
1.0734
1
1
1
1
0.997714
1.0295
0.873446
0.7703
1
1.10395
1
1.0014
0.999906
1.10318
1
0.996865
0.987318
0.998808
1
1
1
1
0.990339
1.02225
1
0.980065
1
0.874607
1
0.87624
0.984778
0.959486
1
1.0684
1.06761
0.99446
1.35839
1
0.880297
1.06425
1.0579
0.88384
1
1
0.987183
0.781276
1
1
1.02611
0.797741
1.22495
0.983044
1
1
1
1
1
1
1.5069
1
0.988891
0.860044
0.862715
0.81727
0.779699
0.760529
0.77392
0.872286
1.00502
0.985925
0.767008
1.15925
1.16858
1.1782
1.15034
1.16114
1
1.03866
1.16951
1.19893
1.15212
0.990552
1.17899
1.12038
1.14087
1.20354
1
0.991874
1.14225
0.995417
1
1.12659
1.20254
0.999986
0.999993
1.12789
1
0.99407
1.11757
1
1
1
1.11888
1
1.10889
1
1
1
1.06321
1.1098
1
1
1
1.10138
1.10618
1
1
1
1.10272
1.06255
0.785058
1.0903
1
0.939032
1.09082
1.07798
1.07909
0.858004
1.0703
1.07067
1.0632
1
0.972191
1.06451
1
1.05388
0.95619
1
1
1.05375
0.893255
0.790309
1.04536
1.04662
1.03889
1.09592
1.03918
0.773834
1.03326
1
1.01048
1.0951
1.03408
0.985863
0.968459
0.991011
1.02708
1.0086
1.00839
0.952936
1.02534
1.01924
1.02151
0.989162
0.796422
0.767568
1
0.797238
1
0.797266
0.797195
0.78923
1
1.43339
1.12068
1
1.05264
1.04922
1.04009
1.04718
1
0.788164
1.10719
1.11607
1.15521
1.22644
1.10252
1.10957
1.10414
1.09643
1.03267
0.863609
1.02277
0.985823
1
0.951621
0.896526
0.859948
0.973331
1
1.1534
1.09704
0.810034
1
1.05517
0.949293
0.95306
1.05457
1
1
1
0.91266
0.973803
0.74974
1.10044
0.983908
0.99045
0.83001
1.0903
0.955503
1.08949
1.01025
0.950238
0.808852
0.881209
0.815456
0.941649
1.11325
1.01397
1
1.11256
1.18652
0.916065
0.967628
1
1
1
1.01175
1
1
1
0.784422
0.970541
0.850082
1
0.949702
1
1.01146
0.919072
1
1
0.759601
0.856269
0.994808
0.858718
1.03332
1.03446
1
1.11791
1.02167
1
0.969488
1
0.98297
1.04865
1.05077
0.893758
1
1
0.948498
1.04834
1.00503
0.989046
1.02679
1.028
1
1.04814
1.00618
0.989772
0.988073
0.848114
0.986445
1
0.924291
0.869017
0.997756
0.829575
0.997598
1.09819
1
1
1
0.9001
0.995306
1
0.992771
0.996301
1.15424
0.956303
0.881933
0.9909
0.765406
0.953123
1.1457
1
1
0.927941
1.16278
1
1
1
0.984078
1
0.984402
0.797997
1.00794
1.02232
1
1
1.00728
1
0.996973
0.997569
1.25517
0.998375
1
1.1014
1.26607
1.00208
0.98495
1.14285
1
0.950783
1.21883
1.18054
0.930484
1
1.13369
1.22248
1.19525
1
1.01348
0.768927
1
1
0.880046
1.19857
1
1.15863
1.08381
1
1
0.949076
1.17487
1.0439
1.05563
1.19769
1.082
0.841744
1
1.17581
1.17758
1.0347
1.04322
1
1.09022
1.08148
1.09095
1.10082
1
1.1569
1
1
1
1.15547
1
1
0.90214
1.00486
1
0.906146
1.15966
1.0296
0.989732
1
1.00878
1
1.02754
1
1
1
1
1
1.00673
1
1
1
1
1
1
1.01335
0.787158
1
0.967311
1
1
1
1.02659
0.888317
0.813375
1
0.801335
1.08482
1
1
1
1.11239
1
1.10457
1
1.19248
0.872083
0.8289
1
1
1
1
1
1
1.13486
1.17644
1.01897
1.18935
1
1
1
1
0.875759
1
1
1
1.09346
1
1
1
0.950829
0.950554
0.883219
1.13844
0.873832
0.949187
1
1
0.960503
0.963063
1.09736
1.10305
0.828087
1.10434
1.09665
0.97805
1.10129
1.10203
1.03844
1.13097
1.00001
1.12581
0.996778
1.10053
0.999989
1.00001
1.10026
1.03641
1.10463
1
0.972068
1.1034
1.00003
0.994681
0.881554
1.03476
1.10359
1.05804
1.07606
0.997979
0.842206
0.997249
0.891333
1
1.05332
0.850644
1.07527
1.02833
1.0582
1.10616
1.03922
1
0.973982
1.17217
1
1
0.770382
1
1
1.05601
0.867723
1
1.10041
1.09856
1.10205
1
0.866127
1.11422
1.10373
1.10271
1.09067
1.09978
1.06359
1.05638
1.14089
0.880652
1.15027
1.09619
1.12708
1.09639
1.09204
1
0.878738
1
1.00447
1
0.778173
1.01432
1.09246
1.10153
1.02778
1.10427
1.02125
1.08193
1.0952
1.32814
0.887369
1.15019
1
1.08724
1.0881
1
1
1
1
1
1
1
0.913536
1
1.03274
0.783078
0.865216
1.16577
0.784149
0.863593
1.08281
0.846332
1
0.77733
1.03181
0.888978
1
1.01068
1.09434
1
1
1.22174
0.773399
0.876823
0.873377
1.08119
1
1
0.757659
0.963542
0.989117
1.13995
0.765037
1
1
1
0.99583
1
1.07859
1.07911
1.02651
0.785248
1.06986
1.07423
1
1.08339
1.07434
0.99551
1.04852
1
1.19693
1
1
1.1023
1.07103
1.03199
1.18286
0.784521
1.19656
1.20879
1.13624
1
1
1.09327
1.06339
1
1.07076
1
0.815961
1
1
1.06083
0.784793
1
1.06357
1.02371
1.06479
1
1
1.07022
1.14693
0.786549
0.870196
0.796112
0.963134
0.947448
0.949567
0.781848
1.01744
0.95328
0.980365
1
1.0609
0.787041
0.787908
0.961228
1.12808
1.05282
0.895437
1
1
0.975643
0.971616
0.9526
1
1.04952
0.9754
1.05515
1.04075
1.05453
0.955145
1.03895
1
0.796676
1
0.773246
1.03036
1.05046
1.03477
1.01263
0.778804
0.893238
1.09917
1
0.897956
1.04378
0.856325
1.22119
0.886068
1.04152
1.04552
1.22119
0.792182
1.04373
0.969819
1
1.0431
1.04493
1.14341
1.16864
1
0.992312
1
0.759708
0.889232
1.01447
0.827576
0.793693
1
0.792512
0.827624
1.04152
1
0.788459
1.02724
1.09251
1.11049
1.0329
0.787039
0.900973
0.968052
1.08673
1.10764
0.798393
1.02987
1.03538
1
1.03497
1
0.986969
1.19843
1.03067
0.854627
1.17809
1.10054
1
0.795462
1.0954
1.01904
1
0.812995
1.09644
1.1234
1.2011
1.04961
1
1.02055
1.0003
1.02344
1
1.09129
1.02459
1
1.12169
1.09207
0.972466
1.10159
1.08616
1.02081
0.91784
1
1
1.08657
0.814027
1
0.82217
1.00795
1.12472
1.13037
0.82278
1.04942
0.882616
1
0.830749
1.27149
1
1
1.14423
1.264
0.820513
1.02405
1.03442
0.81052
0.812668
1.09883
0.915798
1.01983
1.05971
1.10132
1.17829
1.09279
1.04131
1.0349
1.02259
1.08454
1.04479
0.816489
0.774031
0.818938
1
1.08589
1.27343
1.06296
1.14662
1.272
0.867254
1
1.0613
1.05527
0.984073
0.892534
1
1
1.07478
1.07807
0.888936
1.02778
1
1
1.02833
1.09004
1.06558
1
1
1.02942
1.05586
1.05564
1.17773
1.02385
0.834384
1.02999
1.05436
1
0.833853
1.06503
0.866413
0.824064
1.08218
1.09997
1.3453
1.06821
0.990817
1.062
0.935291
1.0605
1.06838
0.957821
1.00465
1.14494
1
1.00394
1
1
0.935966
0.924152
0.946514
0.928629
1.13513
1.01952
1
1
0.941107
1.05785
0.852443
0.871995
0.971425
0.849558
1.05836
1.08565
1.0591
0.85341
0.821016
1.04267
1.2137
0.860706
1
0.96727
1.08013
0.849856
1.30077
0.980603
0.990339
1
1
0.992693
0.962571
1.00024
1
1
0.959754
1
1.04845
0.869092
0.854596
0.895331
1.04328
1.04799
1.02169
1
0.851769
0.896409
1
0.851231
0.883934
1.02289
0.996253
1.02179
1
1
1.08239
0.945662
1.06347
0.856112
0.858178
1.26773
0.892438
1
1
1.03817
1
1
1.08344
0.98584
1.04049
1.03973
1
0.821165
1.08263
0.909814
1
0.901613
1.1719
0.952507
1
1
1
0.878306
0.943374
1.08576
0.903586
1
1
0.854929
0.898597
0.862631
0.863037
1.02927
1.10926
0.916113
1
0.999976
1
1.02854
1
1
1
0.953313
1
0.999591
1
1
1
1
1
1
1
1
1
1
0.999999
1
1.03301
0.999996
1
0.990828
1.10385
0.993802
1
1
1.01939
0.848601
0.911149
1.07954
0.999999
0.99996
0.989439
1.0329
1.06137
1
1
1
1
1.01747
1.01835
1.00055
1.05859
1.02012
0.906934
1.0181
1.01851
0.898922
0.973406
1.10066
0.777419
0.995638
0.999497
1.00052
1.00295
1
1
0.943587
1.09587
1
1
1.08342
0.989198
0.922825
0.975131
1.07705
1.10229
1
0.890028
1
1.00551
1.09943
1.09235
1.04214
0.878266
0.919068
0.986728
1.10067
1.0105
1.10361
1.00749
1
1.04031
1.01386
0.883092
1.09277
1.2175
1.00238
1
1
1.04979
1.09665
1.04831
1.08445
1.26956
1.01613
0.844562
1.02353
1
1.04681
1.10198
1
1.09756
0.952477
0.843589
1.09461
1.04105
1.02141
1.0141
1.08942
1.01162
1.04909
1
1.05151
1.05248
1.09071
1.00133
1
1.05293
1.02646
1.02636
1.02062
1.08528
1.03076
1.04559
1
1.09031
1
1.04675
0.786661
1
1
1.26423
1.09653
1.13923
0.801214
1
1
1.07276
1.09122
1.019
0.806586
1
1.01789
1
1.04121
1.2352
1.11696
1.07799
1.08047
0.970567
1
1.07567
0.974358
1.04987
0.921021
1.04071
1.11655
1.02391
0.964671
1
1.08033
0.981351
1.08289
1
1.07677
1.0732
1
1.02804
0.871403
0.97598
1.03414
1.08075
0.820688
0.994485
1.08797
1.06181
1
1.06662
0.99111
1.03396
1.38846
1.03438
1
1
1
0.975
1.02145
1.06704
1.00407
1.06206
1.06763
1
1
1.27786
1.12203
1.05297
0.897214
1
1.0434
1
1.06042
1.02236
1.01067
1.05538
1.24984
1.04043
1.03371
1.08148
1.05574
1.05377
1.01462
1
0.989528
0.83843
1.0221
1
1.04219
1.01606
1
1
1.01729
1
1
0.958944
0.876647
1.05725
1.04732
1.12011
1
0.999993
1
1.00087
1
0.915754
0.998162
0.903189
1.04758
0.811252
0.798692
1.04201
0.875459
1
0.848908
0.924018
1.09273
0.875951
1.03318
1
1.07286
1
1.10122
1.03583
1
1
1.02916
1
1.04621
1
1.06738
1.03597
1.03402
1.04351
1.02627
1
0.880637
1
1.14936
1.11843
1.00484
1.01906
1
1.00001
1.08064
1.02186
1
1.05427
1.02696
0.988573
1.01076
1.07991
1.01333
0.836381
1
1.02977
1.07451
1.0785
1.02805
1.06426
0.937722
1.0221
0.957098
1
1
1.0266
1.05757
0.936552
1.00725
0.984832
0.996666
1.01253
0.875933
1.03799
1.01628
0.889004
1
1.08399
1.04831
0.934441
1.06469
0.94721
1
1
1.02368
1.04629
1
1
1
1
1
1.16011
1.06232
1
0.93255
1
1.01616
1.0571
1.07546
1.10975
1.0276
1.02638
1.03169
1.06142
0.922999
1
1
0.960856
1.11309
1
1
0.973201
1.08754
1.0572
0.999978
1.00857
1.08754
1
1.08179
1.0849
1.07796
1.095
1.1043
1.0096
1
1.06236
0.912885
1
0.999974
0.959615
1.09776
1.09519
1.09959
1.06136
0.907998
1.09048
1.18281
1.09649
1.11864
1.10841
1
1.09907
1.08672
1.11528
1.02208
1
1
1.09373
1.05446
0.906552
0.807686
1.06464
1
0.9996
1.00807
1.13465
0.878258
1.05514
1.12665
1.13051
1.03356
0.817897
0.999181
1.12149
0.876384
1.04951
1.04875
0.881991
1.1951
1.05009
1.09961
1.04827
1
0.972737
1.03389
1.00001
0.934396
1.03708
1.14182
1.16252
0.892696
1.00314
1.0443
1.00393
0.887909
1.15178
0.887354
1.13925
1.03874
1.02576
1.08398
1.02072
1.09341
1.08452
1.08975
1.03676
1.13693
1.02652
1.04211
1.01998
0.869453
0.902049
1.06746
0.901229
1.08584
1
1.00626
1
0.904356
1.08628
1
1
0.903735
1.00001
1
0.968886
1.02275
1.29452
0.984123
1
0.809554
1
0.935152
0.906777
1.08406
0.892386
1.00323
1.08407
1.00494
1.01899
1.02543
1
0.948939
1
1.08221
1.02595
1
0.969277
0.935507
1.14175
1.08304
1.14268
1
0.935568
0.817724
1.08157
1
1.16089
1.03474
0.96145
1.08223
0.97939
1.02336
1
0.932681
1
0.906438
1.26982
0.945725
0.824668
1
1.0791
0.844019
0.943868
0.799977
1.01942
1.07941
1.11765
1.02707
1
0.997381
0.998947
1
1.15781
1
1.07662
1.0854
1.07459
1.15361
1
1
1.07721
1.02896
0.91148
1.16537
1
1
1.16096
1.07445
1.17487
0.919935
1.16966
1.07491
1
0.937679
1.01312
1.00352
1.07074
1.03467
0.978087
0.972686
1.19511
1.07156
1.15105
1.1038
1
1
1
0.911014
1.06693
1
0.993596
0.957749
1.17864
1.05092
1.01803
1.02582
0.915804
1.06777
1.09092
0.991547
1.05033
0.797445
0.995622
1.0372
1
1.02979
1.04052
0.957643
1.02797
1.10034
1.0968
1.18317
0.993409
1.20184
1.19733
1
0.911451
0.791777
1.08431
1
1
1.00092
1
1.19289
0.853384
1.06721
1.0956
1
1.04886
1.02886
0.998785
1.00006
1.00491
1.02416
1.1203
1.05714
0.967145
1.18764
1
0.926193
0.970495
1.00456
1.00007
1.11012
1
0.937782
0.841959
1.01586
1.20648
1.05342
1.10623
1.21155
1.01557
1
0.990348
1.01234
1.07908
1.48411
1.06812
1.19426
1.12491
1.06628
0.969738
1.14824
1
1
1.08547
1.01139
1.12746
1.06473
0.966131
1.01629
1.0892
0.99711
0.968437
1
0.764194
1
0.809418
1.01325
1.12406
1.12573
0.916042
1
1
1.21634
0.995269
1
1
1.02171
0.915598
1.12867
1.22563
1.01939
0.999722
1.11765
1.02668
1.09752
0.912129
1
1.00075
1.11867
0.923704
0.911581
0.853871
1.0262
1.0237
1
1.04033
1
1
1.19334
0.909225
0.954247
1.08492
1.11342
1.27254
0.909958
1
1
1.11509
1.16429
1.01193
1.08224
1.03386
1
1.08679
1.01745
1.03254
1
1
1
1
1.03705
1
1.05194
1.10653
1.01958
1.05837
1.10675
1
1.03457
1
1
1
1.04118
1.10072
1.10229
1
1.07878
1.04057
0.886077
1
1
0.86895
1.05043
1
0.892718
1.04658
1
1
1
1
1
1.09236
1
0.938868
1.04439
1
1.12496
1.01958
1
1.094
0.797939
1
0.883895
1.0897
1
1
1.12273
1.14102
1
1
1
0.869326
0.868298
0.936898
1.05313
0.905751
1.11747
1
1
0.895039
1.1226
1
0.870388
1.05089
1
0.950281
1
1.0585
1
0.947246
1
0.851743
1
1
1.00589
0.797025
1.12124
1
1
1.05734
1
0.929085
0.901408
1.05902
0.811614
1
0.795853
1
0.833578
0.899376
1.00995
0.926651
1
1.03689
1.0563
0.958775
0.959953
1.00526
1
1.00381
0.953473
1
1
0.874615
0.872125
1.06858
0.791108
1.0643
1
1
1
1.06222
1.30163
0.901538
1.06863
1
1.05341
0.965595
0.894769
0.902165
1.14482
1
1.11101
1.06751
0.963765
1.00908
0.974277
0.856476
0.978883
1
0.898197
0.863277
1
1.12179
1
1
0.821632
1.07383
1
1.00018
1
1
0.977727
1.0426
1
1
1
1.07537
1.12194
1
0.738895
1
1.07184
1
1.00278
0.841244
1
1
0.948719
1.07432
1
0.804661
1
0.831251
0.978628
1.00001
1.07802
0.975026
0.814556
1.07927
1.1116
0.889598
1.16896
1.00033
0.999997
0.988749
1.07677
1.07743
0.823663
1.11182
1.09245
0.895557
1
1.13061
1
1.26862
0.922898
1.08403
1.0834
0.812434
0.987039
0.994013
1
1.00451
1.08799
0.986747
0.951671
0.906957
1.00035
0.99303
0.930544
1
1.09894
1.08221
1
1
1
1.08242
0.93119
1.06652
1.09914
1.00231
1
1.08863
0.99447
1.05101
1.08749
1.09129
1
1.27173
0.820228
1.08707
1.0881
1.09094
1.04904
1
1
0.909196
1.08619
0.916629
0.996238
1.0838
0.973799
0.975636
0.972771
1.3354
1.08459
0.975939
0.841812
1
1.04417
1.09356
1.03195
1
1.0956
1
1.16894
1.03412
0.906706
1.18812
1.08392
1.00552
0.921264
1.03876
1.06095
1.1503
1
1.03462
0.961242
0.940441
1.03355
1.09384
1
1.08446
1.09244
1.08207
0.962647
0.926443
1
1.20929
1.05951
1.30474
1
1.13901
0.898246
1.05028
1.17167
0.917997
1.08501
1.07998
1.00002
1.15306
1.19116
1.00105
1.09724
1.1192
1
1.05271
1.06665
1.08236
1.07813
1.12818
0.870197
1.22942
1.10368
1.2125
1.0697
1.00865
1.10243
1
1.09593
1.08096
1.06377
1.07584
1
1.10155
0.912471
1
1.31242
1.0786
1.07264
1.07324
1
1.23256
0.93081
1
1.07591
1.10779
1.06886
1
1
1.07137
1.07337
1
1.10625
1
1.07036
1.10152
0.901542
1
1.06999
1
1.1119
0.820543
1
1.01534
1.11295
1.06556
1.12862
1
1
1
1.08277
1.11188
0.933057
1.08016
1.01699
1.12626
1.10973
0.862675
0.989407
1.13445
1
1
1.08507
1.04255
0.991208
1
1.08046
1.13741
1
1.12094
0.946138
0.936614
0.947842
1.11617
0.999996
1.12075
1.10802
1.08912
0.928292
1.12429
0.972451
1.03731
0.892656
1.0167
1.08736
1
1.30355
1.11598
0.926753
1.11686
1.2142
1.02781
1.02263
0.925072
0.880479
1
1.12124
1.11414
1.05684
1.08537
1.11715
1
1.0312
1.10842
1.05286
1.12348
1.1164
1
1
1.11279
1.10456
1.05522
1
0.841917
1
1
1.0354
1.11701
1
1.10978
1.1782
1.07216
1
0.906887
1.05733
1.12032
1.09633
1
1.10539
1.01702
0.926447
1.11951
1.16435
1.02837
1.09741
1
0.991107
1.06585
1.07679
1
1
1.08884
0.958717
1.09782
1
1.09579
1.11745
1.07662
1
1.10619
1.06424
1
1.05046
1.09015
1.08076
0.903908
1.01657
1
0.912743
1
1.12302
1.02302
1
1
1.0246
1.03205
1.07294
1.04779
0.807387
1
1
0.921484
0.946821
1.10697
1.0183
1
0.986192
1.12392
1.06975
0.999907
1
1.10464
1
1.00051
1
1
1.02514
1
1.10203
0.963011
1
0.747112
1.11228
1.0339
0.871629
1
1.02425
1
1.09798
1.11667
1
1.13461
1
1
1.04378
1.11042
0.925897
1.09641
1
1.09614
1.10865
1.38748
1.16382
0.827468
1
0.917235
0.827784
1
0.91903
1
1
0.923435
1.07506
1
0.783065
1.1035
1.11882
1.07854
1.00029
0.808084
0.999999
0.948117
0.981072
1.0096
0.983117
0.984941
1.04648
1.11681
1.00995
0.924543
0.923914
1
1
0.990058
0.979246
1
1
0.902353
1
1
1.05549
1.03046
1
1.12464
1
1.05097
0.923156
0.859555
1
0.999961
1.05378
1.26423
0.787399
1.12299
1.05334
1.05449
0.928645
1.0646
0.845659
0.818204
0.811463
1.04576
0.814561
1.00024
1.13775
1
1.08422
1
0.841795
0.894806
1.21394
1.19762
1
1.10444
0.806475
0.91636
0.963571
1.13116
1.06111
0.814261
1
1.06296
0.915067
1.17403
1.09956
1.04752
1
1
1
1
1.09109
1.04367
1.12889
0.842176
1.10314
0.84119
1
0.940214
1.20123
1.06185
1.21704
1.04543
1.09335
0.91077
1
1
0.818043
1
1.0552
0.942374
0.852629
1.0113
1.00004
0.958597
0.972592
1
1.05261
1
1
1.08658
1.13705
1.00708
1.17755
0.923224
1.05213
1.08597
1.29334
0.925372
0.851768
1.02401
1
0.913297
1.13594
0.994329
1.00127
1.05258
1.00485
1.1126
1.00266
1
1.01832
1.04166
0.860798
1
1.06847
0.926185
1.0621
0.910217
1
0.789719
1.09487
1.03966
1
0.924967
1
1
0.996882
1
1
1.05949
1.10393
0.880944
0.922816
0.858257
1.06687
1.04126
1.14413
1
1
0.87179
0.911683
1.00476
0.999455
1.07604
1
1.03115
0.810016
1.00596
0.923656
0.8978
0.805685
1
1.10081
1.05981
1.04115
1.14203
0.98715
1
1
1.23025
1.02501
1.15296
1.03819
1.06581
1.07532
0.997193
0.99982
1
1.01975
0.99376
1.15018
1
1.0043
0.910834
0.820456
1
0.986589
1.0571
0.882315
0.957071
0.851815
1.07344
1.13725
1
1.10118
1.02406
1
1.04345
0.998901
0.87755
0.819877
1.01798
1.07354
1.06268
0.869039
1.02758
1
1.0833
1
0.858498
1
1
1.06674
0.822734
1
0.995622
1.17599
1.035
1
1.13428
0.947872
1
0.953951
0.866599
1.02588
1.0302
1.08188
1.0156
0.816816
1.14987
1.02079
1.03386
0.843279
0.932847
1
1.07982
0.937497
0.944986
0.967628
0.927952
1
0.825861
1.08398
0.932187
1
1.03196
0.874358
1
1.07396
1.0512
1.09093
1.05669
0.927818
0.908998
0.923642
1.05886
1.05463
1
0.92157
1.04797
1.04818
0.95221
0.874009
1
0.873167
1.02821
1
1.04763
1
0.89541
0.988766
1
1.08849
1.04482
1
1.03084
1
0.940366
1.08581
1.04696
1.0884
1
0.817745
1
1.05466
1.32735
1.02917
1
1.04798
1.15261
1.05724
1.08997
1.07822
0.869907
0.934455
1.07802
1
1.22664
0.883449
1
0.914144
1.09995
0.995925
1.03161
1.19533
0.814212
1.00077
0.927297
1
1.09247
1.15796
1.0536
1.05678
0.949885
1
1.06131
1
0.883514
1
0.992755
1.05813
0.906735
0.999996
1.05619
1.09822
1.15489
1
1.12889
1.31971
0.999999
1.01485
0.87791
1.05991
0.896026
1.04758
1.2059
1
1
0.955336
0.964163
1.11557
1.08867
1.15005
0.956738
0.911964
1.1305
0.995581
1
0.930699
0.920559
1.16063
1
0.896157
0.880087
0.822216
1.04817
1.07045
1
1
0.923984
0.861184
1.11775
1.02322
1.09305
1.11054
1.0546
0.81985
1.00015
1.08879
1
1.20622
0.952539
0.942629
1
0.930325
1.29667
1.0689
1
0.931987
0.961222
0.795508
1.12969
1.0768
1.09759
1.03688
1.01913
0.982993
1.03868
1
0.933099
1.08573
1.08079
1.08996
1.09113
1.0762
1.09502
1
0.936968
1.07059
1.06379
1
0.939756
1.02683
1.04481
1.00001
1.00446
1.10661
0.807875
1.03738
1.03712
1
1.03806
1.10021
1
1.11168
1.00622
0.93607
0.924527
1.03565
1
0.929396
0.930602
1.0507
1.05774
0.971787
1.07094
1.11615
1.02586
1.028
1
1.23042
0.930807
1.01123
1.09156
0.989366
1.05287
1.12291
1.28615
1
0.973485
1.138
1.08491
1
1.07907
1.0889
0.919588
1.07503
1
1.06913
1.09419
1.03847
1
1.1267
0.991058
1.09033
1.09868
1.05285
1.09944
0.829363
1.06478
1.13234
1
1
1.181
1.15261
1.10526
0.92778
1.09218
0.928652
0.874392
1.01235
0.966669
0.993721
0.899077
0.910106
1.05785
1.07836
1.11083
0.92711
0.920409
0.925833
1.10683
0.986069
1.02286
1.08888
1.11498
1
0.957811
1.03119
1.05039
1
0.99062
0.928969
1.0589
0.993904
1
1.1214
1.01187
1.09782
1
1.03549
0.995731
0.928985
0.811081
0.987324
1
0.866952
1.07057
1.09979
1.05527
0.818246
1.03464
1.18745
1.07349
1.12472
0.923816
1.28076
1.02702
0.893741
1.08502
0.883992
1
1.09635
1.00016
1.01964
1.28704
1.02445
1
1
0.922732
1.04569
1.11522
1
0.895258
1.10227
1.0867
1.09206
0.995705
0.922387
1.08692
1.08669
1.08294
1.09565
1
0.929772
1.02524
1.07328
1.24581
1
1
1.01378
1.00986
1
1.19115
1.087
1
1.02819
1.19056
1
1
0.982946
0.896464
0.921205
0.936058
0.921679
0.922402
1.01802
0.999475
1
1.02049
1.1112
1
0.978227
0.924886
1.09907
1.02133
1
0.827426
0.957732
0.927403
0.980485
0.783518
1.05394
1.11812
0.98183
1.04123
1.02651
0.916852
0.896119
1.01129
1
1.09423
1.06282
1.07683
0.999946
0.919515
0.922961
0.893357
0.934637
1
1.02169
1
1.10137
1.14756
0.774361
0.918885
0.917931
0.92485
1
0.930425
1
1.08884
0.826839
0.979977
0.928365
1.11224
0.922474
1
1.03521
1.32702
1
0.982868
0.931604
0.864177
0.927992
1.18967
1.18033
1
1.08567
0.931105
1.10199
1
0.917419
1
1.09964
0.930509
1.02144
1.08425
1
0.778199
0.926215
0.931866
1.08322
1
1
1
1.01325
1.05723
1.01643
1.06216
0.999999
1.14064
1.18566
1.05295
1.04225
0.795263
0.860938
1.1443
1.17608
1
1
0.90444
0.909162
0.999166
1
0.928167
1
0.985793
1
1.08312
0.997756
0.952428
0.910076
0.887802
0.773267
0.999017
1
1
0.957039
1
0.927457
1.09156
1.05891
1
0.946126
1.0115
1
1
0.94851
1.02248
0.935
1.04908
1.06434
0.790601
0.929668
1.10677
0.890837
0.951284
1
1.28592
1
1.06272
1.05105
1.01661
1
1.33641
0.863794
0.991954
1.07064
1
1.09009
1.14546
0.98481
0.994958
1.07884
1
0.936469
1
1
1.06421
1.00742
0.912916
1.12229
1
1.09618
0.906156
1
0.900877
1.09441
1
1
0.999944
1.01491
0.776105
1.23994
1
1.08492
0.935243
1.0479
1
1.18121
0.933256
1.00002
1.05691
0.933886
1
1.02235
0.898895
1.09322
1.09496
1
1.09478
1.00068
0.917611
1.0609
1.10996
1.12736
0.935087
0.901799
1.00923
0.878867
1.05231
1.10059
1
1
1.24574
1.30947
1.06849
1
1.02057
0.996402
1.14333
0.946207
1
0.999877
0.913249
1
0.955952
0.901205
1.05455
1
1.10283
1.0763
1
1.08778
1
1.09284
1.03461
1
1.09864
0.928898
1.08345
0.981811
1
1.09418
1.02062
1.01995
0.916181
0.889935
0.997901
1
1.02233
1.09951
1.09628
1.20095
1
1.05437
1
1.10074
1.11
1.3385
1
0.852775
1
1.09267
1
0.938197
1.11947
1.10514
1.02929
1
1.1162
0.802781
0.966879
1
1.11559
1.17612
1
1.09986
0.927407
1
1
1.0072
1.1008
1.0593
1.04259
1
1
1.101
0.996963
1.02966
1.01743
1
1
1.07907
1
0.908866
1.18962
1.16632
1
0.996123
0.922846
1.12176
1
1.10849
1
1
1.12148
1.11547
0.929398
0.91484
0.992104
0.857747
1.12292
0.928154
1
1.07341
1.00374
1
1.07579
1
1.11338
1.12733
1.21214
1.05021
0.995907
1.03471
0.995709
1
0.912076
0.931789
0.763532
0.999982
1.16928
1.19311
0.909229
1
0.970924
1
0.796761
1.08607
1.0145
1.10275
1.12015
1.14609
0.995542
0.840144
1.0886
1
1.04738
0.999986
0.986812
1.13435
1
1
1.10866
0.908938
1
1.17875
1
0.905631
1.05117
1.01775
1
0.936935
1.11721
1.10959
1.07156
1.12564
0.982003
1.0666
1
0.875646
0.918737
1.02899
0.902553
1
1.05384
0.939117
1.03385
1
0.932433
1.14087
1.01705
1.04942
1.00126
1.03709
0.923401
0.821446
0.816316
1
1.03101
0.940548
1.05593
1.03151
1.13213
1.32374
1.07929
1
0.955002
1.11208
0.814189
1
1.02943
1.00982
1.03206
0.939306
1.06924
0.911856
0.926433
1.02932
0.987182
1.0564
1.00658
0.999999
1.03062
1.13368
1
1.33468
1
1.06515
1
1
1
1
1.08064
1.05493
1.15072
1.07745
1
1.00598
1.05308
1.03187
1
1
0.985685
1.01931
1.13864
1
0.926169
1.04069
1.02566
1.06026
1
1.05332
1
0.992443
1.04337
0.999999
1.04155
1
1.09119
0.923391
1.13445
0.801911
1
1.15403
1.0006
0.919334
1.00322
1.05893
1.04171
0.999902
0.913727
0.985599
1.14506
0.818889
0.971935
0.921138
0.913736
0.999985
1
1.06248
0.871311
1.03008
0.99521
1
1.10316
1.10451
1.01826
1.12979
0.906723
0.871744
1
1.21801
0.909509
0.904987
0.988584
1.1229
1.11934
0.992556
1
0.999911
1
1.12049
1
1.06087
1.01825
1.05974
0.866864
1
1
1
1.1239
1.31784
1.11315
1
1
1.11119
1.02158
1
1.28191
0.864069
1
0.997333
0.923927
1.04129
1.07984
0.997881
1.06578
1.12735
1
1.31265
0.871216
1.08675
1
0.917324
1
0.979993
1.12646
0.901723
0.935794
1.13594
1.0862
0.997141
1
0.982898
0.878344
1.07407
1.00152
1
0.906436
1.1158
1
1.19261
0.971859
0.856908
1.12912
1.16983
0.913183
0.859673
1.20917
0.889655
1
1.06491
1
1.07436
1.08868
1
1
1
1.09198
0.910258
0.847885
1.19485
1.00001
1.07011
0.921124
0.992356
0.884828
1.1471
1
0.917532
0.968956
1.14093
0.834536
1.0451
0.972179
1.07493
1.11775
0.912187
0.998136
0.89296
0.996187
1.00156
1
1.01949
1.10764
0.884309
0.869844
1.1369
0.863602
1
1
1.13818
1.03822
0.877466
0.973505
1.05575
1.13152
1
1.07112
1.08178
0.917304
0.971404
1.01197
1.14346
1
0.890229
1.11079
0.988636
0.979228
0.908292
1.13922
1.06851
1.24884
1
1
1.12622
1
1
1.08307
1
1.12097
1.10741
0.9327
1
0.910741
1
0.923878
0.855153
1
0.933102
0.905469
0.97471
1.05876
0.937942
1.10727
1.00872
1.15026
0.975912
1.07242
1.10996
1
1.16802
0.913677
1
1.06421
1
1.17392
0.99991
0.968641
1.01232
1.0593
0.933005
1.05614
0.885775
0.97242
0.930679
1.02731
1
0.993729
1
0.973345
0.847741
1
1
1
0.877052
1
0.96451
0.903806
0.983601
1.11296
1.20207
0.921858
0.966647
1
1.10955
1.07107
0.899949
1
1.15993
1.10533
1
1
1
1
1
1.02085
1
1
0.926137
1
0.834827
1
1
0.931257
1.01474
0.994298
1
1.07629
1
1
1
1.08572
1
0.800659
1
1.24816
1.22416
1
0.907456
1.17046
1.01289
1.04679
1
1.10812
0.931601
1.06943
1.08082
0.912476
1
1.07165
1
1
1
1.05349
1.08109
1
1.08049
1.0459
1.10263
1
1.28766
1.05312
1
1
1.04533
1.07511
0.936971
1.18703
1
1.2171
0.999994
1
0.934273
1.00028
0.837365
1.06121
1
1
0.867569
1.00013
0.902765
0.933298
0.929326
0.907679
0.938825
0.932656
1.03358
1.04881
1.10364
1.02828
0.82523
0.93798
0.838685
1.06168
1
1.09713
1.00068
0.997917
1
1
0.982982
1.00014
0.996336
0.90785
1.05054
0.970215
1
1
1.07097
0.951761
0.865715
1.09622
1.18477
1
0.979497
1.30948
0.98669
0.995865
0.976605
0.928062
0.976336
1.06412
0.989111
1.08046
1.10116
1.15655
0.972738
0.908583
1.08074
0.90316
0.871274
0.916739
1
1.13364
0.92337
1.04304
1
0.818027
1.16743
1.34041
0.999008
1.06297
1.0357
1.11395
0.80081
0.937657
0.908863
0.908018
1.07424
1.00177
1
1
1.10887
1.16322
1.17596
0.993382
1.0757
1.0003
1
1.16853
1
1.27957
1.09122
1
1.08693
0.926431
1
1.2566
1.0177
1.09613
0.897471
1.09477
1
1
1.02084
1.0762
0.999321
1.15408
1.05144
1.1983
1.0339
1.09259
1.16417
1.06798
1.0832
1.14206
1.1026
1
1.14978
1
0.92471
1.12367
1.10789
1
1.08066
0.92013
1
0.94478
1.17021
1
1.14367
0.776459
1.21337
1.10714
0.772105
1
1.23992
1
1.15724
1
1.11166
1.08329
1.14926
1.09537
1.16851
1.09769
1
1.00476
1
0.77904
1.12721
1
1
0.965798
1.02735
1.06897
1
1
0.947644
1.04078
1
1.03056
1
1.07768
1
1.11939
1.10686
1.28941
1.00495
1.05041
1.16017
0.997784
1
0.985815
1
1.10285
0.978006
1.14203
0.995055
1.04486
0.99999
1
1.08517
1
1.19954
0.881469
1
1
1.02787
1.13756
1.1463
1.17293
1.24059
1.18718
1.08954