/*--------------------------------*- C++ -*----------------------------------*\
  =========                 |
  \\      /  F ield         | OpenFOAM: The Open Source CFD Toolbox
   \\    /   O peration     | Website:  https://openfoam.org
    \\  /    A nd           | Version:  12
     \\/     M anipulation  |
\*---------------------------------------------------------------------------*/
FoamFile
{
    format      ascii;
    class       surfaceScalarField;
    location    "1.3";
    object      phi;
}
// * * * * * * * * * * * * * * * * * * * * * * * * * * * * * * * * * * * * * //

dimensions      [1 0 -1 0 0 0 0];

internalField   nonuniform List<scalar> 
69079
(
-0.00020811
0.000120715
8.73456e-05
0.000166001
-5.96311e-18
-0.000166001
-0.000179374
0.000179374
0.000167917
-1.91521e-06
-0.000176703
-2.67121e-06
-0.000176703
9.84603e-05
-0.000189764
9.15551e-05
1.66757e-06
0.000121941
-0.000123518
0.000169597
-0.000169597
-1.175e-17
0.00016874
8.56803e-07
-0.00012993
-7.80879e-05
-0.000148735
0.000158351
-1.04926e-05
-0.000166388
0.000162809
3.57841e-06
-0.000165548
-8.40003e-07
4.5797e-06
-0.000146503
0.000141924
0.000168773
-3.36001e-08
0.000167933
8.40003e-07
-0.000168572
0.000166354
2.21761e-06
-0.000166724
-1.84801e-06
0.000168454
-0.000167513
-9.40804e-07
0.000167144
1.31041e-06
0.000170117
-0.00017257
2.45281e-06
-0.00018139
1.74049e-05
0.000163985
0.000194474
-0.000128193
-6.62468e-05
0.000163338
-2.6511e-05
-0.000136622
-0.000167933
-1.66321e-06
0.0001679
3.36001e-08
3.86402e-07
-1.68001e-08
0.000121872
-0.000121213
0.000157186
-0.000164193
6.90757e-06
0.000159416
-0.000172755
1.33393e-05
0.000186061
-2.66449e-05
0.000166203
9.40804e-07
-5.20802e-07
-0.000167833
3.10801e-05
0.000136753
0.000165934
-0.000165934
2.80808e-17
3.86402e-07
-8.49263e-06
0.000159336
-0.000152593
-1.48681e-05
-0.000166522
0.000143576
2.35276e-05
-0.00016702
-0.000169113
2.06108e-05
0.000164775
-0.000164775
1.56938e-17
-7.98003e-06
-0.000137984
0.00016776
-2.95149e-05
0.000164506
1.84801e-06
-1.42801e-06
-9.71884e-05
0.000185607
-8.84187e-05
0.000161432
-0.000161432
2.91108e-17
0.00018512
-2.36881e-05
0.000156879
2.82409e-05
0.000184129
-2.72497e-05
0.000159634
-4.73762e-06
-0.000154897
-0.000130287
0.000195255
-2.77676e-05
-0.000175846
0.00018013
-4.28395e-06
-0.0001643
7.06497e-05
9.37122e-05
0.000160222
-0.000160222
-1.69949e-17
0.000183541
-2.33185e-05
0.000161002
-1.3487e-07
-0.000160942
-8.37629e-05
-6.88629e-05
0.000151969
9.95068e-05
6.67467e-05
-0.000166253
0.000181381
-9.27958e-05
-8.85279e-05
-1.87657e-05
-0.000149067
6.53019e-05
-0.00016249
-0.000139852
0.000144432
0.000161969
8.40003e-07
-2.80561e-06
0.00019604
-0.00019604
-1.90291e-05
-0.00014521
-0.000149436
1.24327e-05
-7.06723e-05
0.000169041
0.000154342
2.91985e-05
0.000182247
-2.79049e-05
0.000165331
-1.98904e-05
-0.000143029
0.000169966
-0.000166472
-3.49441e-06
0.000124341
7.02915e-05
0.000148949
-0.0001532
4.25042e-06
-3.59521e-06
0.000152545
-0.000160659
1.47841e-05
0.000145875
0.000159416
2.66449e-05
-2.01601e-06
0.000152645
-0.000181592
2.89465e-05
0.00013603
2.36041e-05
0.000170252
-1.76065e-05
-9.53191e-05
-7.06478e-05
0.000166029
-0.000156056
0.000158055
-1.99921e-06
0.000151385
-0.000171462
2.0076e-05
0.000152629
-1.2431e-06
-0.000156157
-7.75642e-05
-8.26563e-06
-0.000133477
0.000141742
-9.2182e-05
0.000181222
-8.90403e-05
0.000188551
-4.47614e-05
-0.000168958
1.29025e-05
0.000156879
2.72497e-05
9.04684e-05
6.85947e-05
-0.000159063
-3.34321e-06
-0.000154426
-1.45321e-05
4.08242e-07
-0.000138258
0.00013785
0.000165446
-4.48362e-06
8.85531e-05
7.81707e-05
-0.000166724
7.07787e-05
-0.000162961
-0.000155787
1.36081e-06
0.000167866
-0.000167866
0.00016878
-1.1547e-05
2.64265e-05
-0.00018218
0.000155753
6.144e-05
-0.000156928
-0.000155972
-1.26245e-05
0.000148132
-0.00017306
2.49665e-05
0.000151822
-3.65091e-06
8.83239e-06
0.000135675
-0.000144495
-7.34654e-06
0.00016112
-0.000141515
0.000154342
2.79049e-05
-2.72497e-05
-0.000136892
0.0001373
9.79444e-06
-0.00015782
0.000148025
-0.000225518
6.28676e-05
-9.71747e-06
0.000145841
-0.000137691
6.65539e-05
-0.00015071
-0.000150072
-5.48248e-06
0.000155535
0.000149725
-0.000153441
3.79855e-06
-0.000161197
0.000138987
2.22097e-05
-5.77922e-06
-0.000170924
0.000148378
2.18737e-05
-6.88803e-06
0.000155266
-0.00017336
0.00017336
-0.000156035
5.95876e-06
-4.70906e-05
0.000146597
0.000184173
-0.000109645
-7.42416e-05
-0.000180636
7.3628e-05
0.000107009
0.000160037
-7.72803e-07
-0.000159265
0.000155569
-0.000174533
1.90207e-05
0.000152806
2.77399e-06
0.000164338
-6.26264e-06
0.000150175
-0.000143724
0.000150932
9.10564e-06
0.000101708
-0.000161381
5.96738e-05
0.000147135
-0.000177577
3.04417e-05
0.000176165
-2.90305e-05
-2.08003e-06
0.000151829
-0.000101019
0.000190664
-8.96451e-05
-0.000125849
-2.73505e-05
0.000150252
-0.000174056
2.31232e-05
0.000154408
-4.56918e-06
0.000154482
-0.000165857
1.12139e-05
-0.000158777
3.29281e-05
-4.39338e-05
-0.000136702
0.000145421
-0.000175477
3.00553e-05
-2.60402e-05
-0.000160442
0.000151726
0.000111334
-0.0001196
-0.00013044
0.000139286
0.000178383
-0.000178383
0.000150529
4.03201e-07
-2.70481e-05
0.000155189
-0.000164622
9.46482e-06
-0.000152779
4.61711e-06
8.84998e-05
9.58531e-05
-0.000168236
2.66953e-05
0.000141541
0.000142868
-0.000173712
3.08443e-05
-0.00014942
0.000172956
-3.00876e-05
-0.000153032
-2.46408e-06
0.000130229
-5.95288e-05
-5.31722e-05
0.00015488
-1.82601e-05
0.000182188
0.000145421
3.07441e-05
-0.000147181
0.000140893
-3.00553e-05
0.000158529
-0.000158545
9.09052e-05
-0.000158441
6.75363e-05
0.000141166
-0.000172252
3.10827e-05
0.000171678
-3.05162e-05
-2.51161e-05
-0.000147454
0.000158574
2.19646e-06
-0.000160628
-2.84929e-05
-0.000153687
1.78848e-05
-0.000133805
0.000116687
-0.000100949
0.000164117
-6.03402e-05
-0.000150797
5.44322e-06
0.000145354
8.23838e-06
0.000157373
-0.00014103
0.000129561
0.000150881
0.000159523
-4.23803e-06
0.000139479
-0.000170969
3.15141e-05
-3.35419e-05
9.24004e-07
-0.0001469
0.000145976
0.00014411
8.51826e-06
-2.96018e-05
6.05849e-05
0.000106894
0.000144346
6.38402e-07
-0.000144985
1.49521e-06
0.000142851
1.13904e-05
0.000158576
-6.18746e-05
-7.89099e-05
0.000140785
-0.000187367
0.000111569
7.48121e-05
9.65164e-05
-0.000158391
4.87202e-07
0.000146732
-0.000147219
-0.000146782
0.000147269
0.000149913
-0.000149701
-0.000155216
0.000161415
-6.19922e-06
0.000139059
-0.000167355
2.8295e-05
0.000150982
-1.18839e-05
-1.3304e-05
-0.000129135
0.000142439
8.74107e-05
6.22946e-05
-0.000149705
0.000141172
3.1782e-05
-3.10808e-05
2.20249e-05
-0.000153855
0.00013183
-0.000145104
-7.39998e-06
0.000155021
4.52936e-06
0.000136265
-0.00016955
3.26664e-05
0.000171489
-3.605e-05
9.81628e-05
-0.000156951
5.87885e-05
0.000148378
-0.000138584
0.000160387
-0.000165895
0.000145384
1.32975e-05
-5.20802e-07
0.000158576
4.23243e-05
-0.000142892
-0.00015283
-2.38561e-06
0.000160037
-5.60984e-06
-9.97347e-05
-4.83276e-05
0.000147853
0.000131857
-0.000171105
3.88463e-05
0.000170924
-2.23945e-05
-0.000173645
-4.25182e-05
0.000123107
-0.000104308
0.000139483
3.21959e-05
-3.14861e-05
-9.39392e-05
-7.74185e-05
0.00017178
0.000167127
-0.000164859
-2.26801e-06
-1.94713e-05
0.00016753
-0.000148059
0.000135954
-0.000163961
2.80064e-05
0.000149366
-1.33754e-05
0.000139927
-0.000140366
4.48874e-07
-6.09842e-06
-0.000155098
-0.000172217
2.64097e-05
0.000145808
-3.08953e-05
-0.000141322
-2.16385e-05
-0.000151721
-6.18242e-05
0.000152293
-0.00019058
0.000102245
8.83347e-05
-0.000159315
0.000137895
2.14201e-05
0.000138933
9.52225e-07
0.000152603
-0.000144666
-7.93402e-06
-0.000180836
0.000159197
-0.000155686
-1.008e-07
-0.0001532
0.000155703
-2.50321e-06
-9.32572e-05
-9.73228e-05
9.10228e-05
-0.000162893
7.18707e-05
-8.73603e-07
-0.000165598
-5.51042e-06
-0.000162725
0.000155452
-5.97072e-07
-0.000160189
6.98883e-06
0.000131659
-0.000170877
3.85593e-05
-4.30177e-05
0.000147772
4.81939e-06
0.000133265
-0.00016102
2.77222e-05
-0.000163616
3.42721e-06
0.000147833
-1.4571e-05
0.000140118
1.13871e-05
-2.95341e-05
0.000158729
-0.000152426
-6.18961e-06
-1.66953e-05
0.000156617
-0.000139873
0.00016333
-0.00016333
-0.000203443
9.69116e-05
0.00010677
-8.06804e-05
0.000159678
-7.89704e-05
-0.000139442
-4.68822e-06
0.000143677
-0.000162254
-3.64351e-06
-9.34308e-05
-5.81129e-05
0.000151502
8.98972e-05
5.56418e-05
-0.000145539
0.000110003
-0.000123307
5.19122e-06
0.000156005
-0.000161197
0.000142744
2.80804e-05
0.000136108
-0.000173053
3.68216e-05
-2.93322e-05
-0.000172822
0.000153351
-0.000155031
0.000155031
0.000105656
6.2345e-05
0.000171682
-3.5456e-05
-2.73673e-05
-0.000153469
0.000136196
9.6634e-05
-0.000158712
6.20779e-05
-6.72716e-06
-0.000142916
0.000192776
-1.3191e-06
0.000147912
-0.000146642
0.000129714
-0.000157931
2.82995e-05
0.000146137
-1.62961e-05
0.000166993
-0.000168387
-0.000140482
0.000145673
-0.000100147
-8.78984e-05
-9.592e-05
0.000157337
-6.15589e-05
-0.000156797
3.41543e-06
0.000156958
-0.000162732
5.68655e-06
-8.42523e-05
0.000171663
0.000163865
1.57507e-06
0.000162925
9.57131e-07
-0.000193215
8.8222e-05
0.000104822
4.73426e-05
0.000138265
0.000162683
2.42537e-07
9.55363e-05
-0.00013972
4.41645e-05
0.000161869
5.66162e-06
0.000143162
-4.76483e-05
5.17799e-05
0.000134605
-0.000170933
3.62397e-05
0.000160354
0.000170368
-3.58322e-05
0.000162774
-2.72081e-05
-0.000135477
-0.00014828
-3.93067e-06
0.000152189
-0.000183054
0.000106428
7.66251e-05
0.000146332
6.42343e-06
-2.48863e-05
-5.61122e-05
0.000154275
0.000169092
-0.000169109
-0.000140062
0.000140701
0.000146833
-0.000145337
-9.49996e-05
0.000161259
-6.63674e-05
-2.73841e-06
-0.000157921
0.000133161
-0.000169659
3.63529e-05
-0.000150848
0.000154594
-3.74641e-06
0.000169054
-3.59563e-05
-0.000158211
0.000158189
0.000157747
4.90508e-06
3.72961e-06
-0.000149487
0.000145757
-0.000134588
0.000174569
-0.000128032
-1.06829e-05
0.000138821
-0.000157181
6.33362e-06
-0.000141024
-4.85641e-05
0.000126646
-0.000152965
0.000166035
-1.90766e-05
0.000157525
-6.78887e-07
-0.000154325
-2.85601e-06
0.000158895
-0.000158895
0.000131621
-0.000168396
3.68397e-05
0.000167942
-3.63309e-05
0.000123548
-0.000151088
2.75466e-05
0.000141678
-1.79847e-05
-9.19636e-05
-9.109e-05
-0.000162356
6.1337e-05
-0.000152259
-2.06641e-06
8.6616e-05
9.43286e-05
0.000152065
6.59614e-06
0.000143205
1.03623e-05
-3.04043e-05
-0.000152746
0.000140113
1.26336e-05
0.000173645
-0.000166993
-0.000134216
0.000149
0.000144403
-0.000157218
1.2771e-05
0.000147286
-6.08162e-06
-0.000141205
0.00012991
-0.000167066
3.71603e-05
0.000166525
-3.65615e-05
-5.49362e-06
-0.000153821
-0.000149187
0.000154857
-5.80149e-06
9.40804e-07
-0.000151738
0.000200469
-3.63644e-05
-7.20891e-05
0.000160642
3.73699e-07
-0.000175166
2.86626e-05
-0.000137213
-1.5322e-05
0.000149117
-6.82083e-06
-0.000142297
0.000135484
3.62111e-05
0.000156005
-6.51003e-05
-3.5531e-05
-0.00015787
0.000143338
1.45321e-05
6.99023e-06
-0.000143899
-0.000201937
0.00011792
8.40171e-05
-0.000149437
4.95602e-06
0.000144481
-9.15268e-05
-0.00011041
5.56082e-06
0.000141793
-0.000147353
-0.00015026
6.95523e-06
0.000143305
-1.04328e-05
-0.000139827
-0.000156308
0.000145875
0.00012819
-0.000165694
3.75131e-05
-0.000150663
3.86402e-06
0.000146799
0.00015026
-6.43443e-06
-0.000143825
-5.12402e-06
0.000149504
-0.00014438
0.000145136
0.00016505
-3.68731e-05
0.000151889
-6.58563e-06
-0.000145304
0.000158952
-1.22369e-06
-0.000160292
-1.69009e-05
-0.000155921
-6.70323e-06
0.000151553
-0.00014485
8.76627e-05
5.83298e-05
-0.000145993
-0.00015579
5.5883e-05
-7.8169e-05
-8.8519e-05
-0.000166693
3.88349e-05
0.000133501
3.68809e-05
5.87311e-06
-0.00011077
-3.62366e-05
7.39203e-06
0.000139894
-0.00014144
1.05e-05
0.00013094
0.000126347
-0.00016421
3.79131e-05
-7.37854e-06
0.000165913
0.000150411
-5.94722e-06
-0.000144464
-0.000154619
-8.02295e-06
0.000163673
-3.73018e-05
-9.4019e-05
0.000155991
-6.0982e-05
0.000167009
-1.49521e-05
-0.000152057
0.00016662
-2.63868e-05
-0.000156132
0.000152347
3.88436e-06
0.000156299
-0.000156303
-0.000162272
9.60964e-06
0.000152662
1.02658e-06
0.000145578
-0.000146738
-8.56635e-05
0.000154258
0.000116473
-0.000143452
2.70652e-05
-2.10284e-05
0.00013754
1.42812e-05
0.000156459
-5.64482e-06
0.000149537
-0.000143893
-1.45489e-05
0.000129529
-0.00011498
0.000176871
-0.00010458
-7.22907e-05
3.30961e-06
-0.000149974
0.000146665
3.20881e-06
-0.000155468
0.000154342
-0.000154342
-0.000145371
0.000147219
-1.84801e-06
0.000151554
-0.000157162
5.58858e-06
-0.000134333
0.000135257
-6.36067e-06
0.000151321
-0.000144984
2.40241e-06
-0.000149873
0.000147471
7.69729e-05
9.21389e-05
-0.000169103
-1.66321e-06
0.000157366
-0.000152175
-1.94881e-06
0.000154124
-0.000152079
-2.05058e-07
0.000149017
-0.000146614
0.000137441
4.3781e-05
0.000124502
-0.000162875
3.83308e-05
-6.60579e-05
-7.39035e-05
0.000139961
0.00013143
3.76121e-05
-0.00017551
0.000109452
0.000150021
-5.33872e-05
-4.29382e-05
-3.68655e-05
-0.000184885
0.000105504
7.93803e-05
-8.74843e-05
0.000165504
-7.68063e-05
8.46505e-05
8.13661e-05
-0.000166017
-9.28036e-05
0.000158105
-0.00015278
0.00014527
7.50963e-06
-0.00015404
1.26e-06
-0.00015048
4.44573e-06
0.000146158
7.3856e-06
0.000199578
-0.000142145
-4.03202e-06
0.000146177
-0.000132586
0.000118037
0.000118755
-0.000122701
0.00013763
-0.000148077
5.20802e-07
0.000145405
-0.000145925
6.01145e-05
-0.000155987
-9.75748e-05
-8.73099e-05
-2.00911e-06
0.000148325
-0.000146161
-0.000156662
-7.98295e-06
-0.00018806
0.00010915
-3.81361e-06
-0.000158458
0.000156844
-0.000156841
-0.00013094
0.000157635
-0.000145025
0.000143577
-7.03658e-06
0.00015237
-0.000145091
-3.20377e-05
-0.000122993
9.6151e-05
-0.000188867
-4.50074e-05
0.000150663
-0.000148849
4.67909e-06
0.000144169
1.70618e-06
0.000128023
-0.000112135
6.66963e-06
-0.000151133
0.000144464
0.000129758
3.81507e-05
0.000147905
-2.79767e-06
-0.000145177
0.000149605
-8.06403e-07
-0.000148798
2.49307e-06
0.000144813
0.000146204
-0.00014445
-3.7371e-05
-0.000147219
-3.44401e-06
1.79517e-06
0.00014406
-0.000161768
0.000167211
-0.000147118
0.00014821
-1.092e-06
5.56082e-06
0.000143456
0.000143691
5.81282e-06
-0.000147572
4.53602e-07
-8.31405e-05
-6.40316e-05
0.000144056
-0.000176471
3.82134e-05
0.000126567
-0.000108965
-3.64082e-06
0.000120822
-0.000162212
4.14549e-05
0.000157555
-0.00015218
-5.56209e-06
-2.64838e-06
0.000157961
0.000159497
-3.86715e-05
5.47416e-05
-0.000148551
0.000116997
-0.000138398
2.14142e-05
-2.2845e-05
0.000139919
-0.000153149
0.00014107
1.20792e-05
0.00013976
-1.2348e-05
-0.000152511
0.000158257
-8.00859e-05
-5.33859e-05
0.000127016
-0.000152477
0.000146967
-3.88619e-06
-0.000141226
-0.000100295
-9.28517e-05
-0.000121208
1.45977e-06
0.000119766
-0.000143645
0.000139659
-8.0112e-07
0.000148585
-0.00014775
-1.26245e-05
-0.000139202
0.000150382
-1.35694e-06
0.000148175
-0.000146805
0.000178467
-8.72427e-05
-9.12244e-05
7.62723e-06
0.00014149
0.000127796
3.87717e-05
-0.000155574
1.06344e-05
0.000145099
-0.000145895
6.05324e-06
-3.78915e-05
0.000119435
-0.00015867
3.9198e-05
-4.45211e-05
0.000115324
-0.00013645
2.10883e-05
-0.000148896
0.000132185
-0.000142767
-6.66963e-06
-2.36825e-05
0.00013874
6.60794e-06
6.71835e-05
0.000109688
0.000159903
-0.000156593
0.000151033
-1.42801e-06
-0.000153804
7.33011e-05
0.000149319
-5.02322e-06
-0.000144296
-0.000109274
0.000172788
0.000138869
-0.000116844
1.41121e-06
-0.000141473
-1.65151e-06
-0.000145373
0.000146653
-4.04882e-06
0.000158643
8.61507e-05
8.06235e-05
-0.000166774
0.000102176
8.94138e-05
-0.000191516
-0.00012744
-8.08827e-06
0.000135536
4.22269e-06
-0.000150637
0.000146417
9.76084e-06
0.000153569
-0.000153721
0.000150945
-0.000146715
0.000151873
-0.000153956
2.08321e-06
3.94293e-06
0.00014671
-5.70601e-06
0.000151502
-0.000145881
0.000152202
-0.000148637
-0.000160558
-9.11508e-05
0.00016137
-7.18254e-05
-8.94058e-05
0.000163612
-7.40456e-05
-0.000180382
4.94426e-05
0.000145892
-0.000148635
5.68861e-06
-0.000151387
0.000146104
-1.68841e-05
0.000162406
-0.000145522
0.000166069
-0.000103774
0.000125789
3.92427e-05
-0.000144397
4.48562e-06
0.000139911
0.000105037
-0.000175599
7.07276e-05
0.000150084
7.31685e-06
-0.000152175
-0.00017929
0.000104211
7.50795e-05
-3.83983e-05
0.000144061
-0.000140331
-0.000152158
-1.69681e-06
-0.000143034
0.000147594
-4.55954e-06
3.56497e-06
-0.000146599
-0.000138517
0.000126259
1.39562e-05
-0.000152019
0.000152173
-1.54561e-07
-0.000149843
-2.17561e-06
0.000117561
-0.000159426
4.18949e-05
-0.000151793
-3.24848e-07
0.000156686
-3.91123e-05
-0.00016893
9.97208e-05
-0.000154191
0.000149603
4.5881e-06
-0.000154796
6.04802e-07
-0.000149798
0.00014988
-8.23203e-08
-0.000150193
3.94802e-07
-0.000153855
-0.000152225
0.000147303
4.92242e-06
-0.000152897
1.1508e-05
0.000141389
0.000148104
-0.000148655
-0.000120627
-1.89897e-08
-0.000152696
5.79602e-06
0.0001469
-0.000143573
-3.91442e-06
0.000147488
0.000118575
3.29281e-06
0.000141994
-0.000145287
-0.000147353
-3.19201e-06
0.000150545
-0.000149403
3.14161e-06
0.000146261
-8.84599e-05
-0.00011441
5.47761e-06
0.000156291
-6.52683e-05
0.00015145
6.11379e-06
0.000143657
2.23441e-06
-0.000145892
1.176e-06
0.000147404
-0.00014858
-0.000136762
0.000154342
-6.44451e-05
0.000151906
-7.19043e-06
-0.000144716
-0.000150865
2.21761e-06
0.000148647
0.000124094
3.96101e-05
-0.000148699
7.39203e-07
0.00014796
0.000141994
2.45281e-06
-0.000144447
-3.87715e-05
0.000154043
-2.54414e-06
-0.000147466
-3.49985e-06
0.000151088
9.12244e-06
5.07081e-06
-0.000152433
-0.000145443
0.000150615
5.26269e-06
-0.000150698
-0.00020021
0.00020411
0.000150562
-4.92242e-06
-0.00014564
0.000116206
-0.000156141
4.004e-05
-4.47288e-05
0.000159736
-0.000159722
-0.000127466
0.000122076
1.68971e-06
-0.000148781
2.83921e-06
0.000145942
-8.88555e-05
-9.92044e-05
-0.000144568
0.000126818
0.000149621
-0.000148697
-9.24004e-07
-0.000156664
8.38693e-06
-0.000156419
6.16418e-05
-0.000144783
-5.09042e-06
-0.000152349
0.000148397
5.32573e-06
0.000140062
-0.000145388
-0.000151133
5.59442e-06
0.000145539
0.000165405
-0.000180648
0.000157954
-0.000150327
0.000145421
-0.000152007
-0.000160629
0.000113007
-7.80707e-07
0.000149854
-5.69226e-06
-0.000144354
0.000147437
-0.000154141
0.000150125
0.000152488
-0.00015262
-0.000151422
0.000152039
-6.16562e-07
-0.000149877
-1.54561e-06
-0.000154243
0.000152059
2.18401e-06
-0.000152847
-1.39609e-06
-0.000154215
0.000152069
2.14537e-06
-0.00015286
-1.3541e-06
-0.000154201
0.000152074
2.12209e-06
-0.000152869
-1.33494e-06
0.000173397
-0.000113958
-5.22611e-06
-0.000142215
0.000147353
-0.000161539
0.000152921
8.02719e-06
-0.000165672
9.08864e-05
7.43132e-05
-0.000153158
-8.97086e-06
-0.00016532
0.000153046
1.22929e-05
0.000151301
0.000161484
-0.000139911
-2.12622e-05
0.00011855
1.84134e-05
-0.000136717
-0.000153903
-1.14062e-05
0.000152377
-0.000165455
0.000153185
1.22632e-05
0.000155686
6.72003e-06
-0.000154011
-1.14625e-05
-0.000177286
4.03941e-05
-0.00014332
-2.24263e-06
0.000145345
-0.000165338
0.000153388
1.19227e-05
-8.85363e-05
-6.84267e-05
0.000156963
-0.000154254
-1.11249e-05
0.000134915
-0.000138965
4.04037e-06
5.61122e-06
-0.000144598
0.000138987
-0.000165151
0.000153496
1.16289e-05
-0.00014648
-7.56003e-06
-0.000154273
-1.08947e-05
1.37761e-06
-0.000147857
-0.000127053
-1.12283e-05
6.97539e-05
-0.00015829
-0.000145288
-6.36759e-06
0.000133874
-1.51792e-05
-0.000144766
0.000151453
-6.68643e-06
-0.000147757
2.99041e-06
-0.00016476
0.000153487
1.12461e-05
-0.000154405
-1.03845e-05
-6.23282e-06
0.000146614
-0.000140381
-3.1716e-06
0.00014673
-0.000143486
-0.000163729
0.000152654
1.1068e-05
-0.000154358
-9.40862e-06
0.000148801
-0.00015242
3.6852e-06
-3.42721e-06
0.000162322
-0.000160558
-0.000164088
0.000153254
1.08131e-05
0.00011698
-0.000158072
4.11585e-05
-0.000154163
-9.93973e-06
4.09922e-06
-0.000144447
0.000140348
0.000131942
1.90762e-05
-0.000163656
0.000152971
1.06603e-05
0.00014533
-9.46648e-06
-0.000135385
-0.000153931
-9.7612e-06
0.000155281
-3.8221e-05
-3.02275e-05
3.49441e-06
-0.000144413
0.000140919
0.000146799
-0.000150797
3.99842e-06
-1.68001e-08
0.000146816
-0.000163486
0.000153096
1.03957e-05
-0.000153836
-9.61239e-06
-0.000142362
0.000169636
2.48516e-05
4.97282e-06
-0.000144665
0.000139693
5.99762e-06
-0.000145808
0.00013981
-0.000162174
0.00015216
9.93929e-06
2.66448e-06
-0.000142787
0.000140201
-0.000153897
-8.40527e-06
-8.80175e-06
0.000146557
-0.000151721
-4.58642e-06
-0.00016187
0.000152517
9.2978e-06
-0.000154221
-7.77038e-06
-0.000148781
0.000149655
-8.73603e-07
-0.000148496
0.000151301
-2.80561e-06
-5.71202e-07
7.39954e-05
-0.000162124
-4.20002e-07
-0.000148076
-0.000143329
0.000149348
0.00015378
-0.000152299
-1.39776e-06
-8.17127e-05
-8.25785e-05
0.000149067
-0.000161793
0.000153125
8.60932e-06
9.24004e-07
0.000145489
-0.000146413
-0.000154111
-7.77196e-06
-4.87202e-07
-0.000145892
0.000146379
-5.77922e-06
0.000144917
-0.000139138
7.10706e-06
-0.000149794
-0.000143685
0.000151355
-0.00016158
0.000153257
8.31636e-06
-0.00015408
-7.44927e-06
-0.000149563
3.44085e-06
0.000145943
-0.00014335
-7.09641e-06
0.000150455
-0.000160167
0.000152076
8.09459e-06
-0.000149232
-0.000153843
-6.40707e-06
-0.000154107
0.00015661
-2.50321e-06
-1.81589e-06
-0.000154245
-0.000160623
0.000152814
7.62808e-06
-0.000153788
-6.80234e-06
-0.00014984
2.94001e-06
-4.78207e-06
-0.000159885
0.000152673
7.20803e-06
-0.000153445
-6.46122e-06
-6.72015e-05
-9.1389e-05
8.40003e-08
0.000146278
-0.000146362
-0.000147471
0.000147555
0.000146009
-0.000144598
-0.000159717
0.000153074
6.70779e-06
-0.000148926
3.19534e-06
0.000145436
-0.000153693
-5.92326e-06
1.33572e-05
0.000129195
-0.000142073
-0.000179709
0.000152599
-0.000151171
4.81946e-06
0.000147007
-1.03504e-05
-0.00015886
0.000152583
6.24726e-06
-0.00015363
-5.42828e-06
0.000147683
6.1516e-06
-0.000159148
0.000153124
5.9521e-06
-0.000153957
-5.10302e-06
5.2328e-07
-0.000149759
0.000135828
-0.00015238
0.000154739
-2.35873e-06
-9.70369e-05
-5.42403e-05
0.000180432
-1.22818e-05
0.000113804
-0.000154567
4.07842e-05
7.57683e-06
-0.000160474
0.000129781
-2.86478e-06
-0.000126964
-4.40849e-05
-0.000142534
7.72779e-06
0.000135081
-6.52874e-06
-0.000142735
-8.79602e-05
-8.21268e-05
0.000170085
-0.000151127
0.000151995
-8.68563e-07
-0.000153223
8.43363e-07
-1.24656e-06
0.000118368
4.10959e-05
0.00014648
-0.000145556
-0.000152308
0.000153195
-8.87043e-07
0.000145993
0.000123296
4.01522e-06
-0.000127311
-1.34401e-07
-4.03527e-05
0.000133544
-1.0248e-05
0.000153879
8.60163e-07
-9.17284e-07
-1.94801e-06
0.000143734
-5.39533e-06
-0.000137857
0.000153939
-2.06641e-06
-2.0046e-06
0.000154336
7.88287e-05
9.37268e-05
-0.000175925
0.00010362
7.23708e-05
-0.000111536
-6.88467e-05
-1.90009e-05
0.00015283
-6.19922e-06
-0.000146026
-0.000156308
-0.000171358
9.11413e-05
-0.00014354
0.000144716
0.000143975
-0.000145686
4.53602e-06
-0.000146007
-4.50554e-06
0.000150257
0.000170667
-6.82594e-05
-0.000146267
-3.6044e-06
0.000149667
7.75133e-06
-0.000143943
0.000136233
-0.000146967
1.59601e-06
-0.000154658
6.13408e-05
0.00015239
-0.000128738
-7.32008e-06
0.000150582
-0.000143218
-1.03656e-05
-0.000142011
0.000152377
9.45172e-05
-0.000161348
6.68307e-05
0.000141641
-0.000147874
0.000151251
-0.000133846
-0.000197149
0.000116542
8.06067e-05
-0.000146792
-4.09522e-06
0.000150822
3.61491e-06
-0.000149784
-0.000175256
8.49408e-05
0.000128188
8.62317e-06
-0.000136949
0.000140302
-1.21706e-05
-7.44243e-06
2.67134e-06
-0.000157417
1.07352e-05
5.44663e-06
-0.000151958
0.000148177
-0.000151579
3.37443e-06
0.000142246
-0.000147891
4.38433e-05
-0.000130494
0.000144296
5.24172e-06
-0.000155098
0.000151369
3.72961e-06
0.000154543
-0.000159039
-0.000152528
-1.42801e-06
4.06541e-06
-0.000151095
-8.18726e-05
0.000125772
-4.37954e-05
2.87859e-06
-0.000149263
0.000146341
0.000120708
1.71865e-05
-0.000137895
0.000144849
-0.000146289
0.000110779
-0.000153585
4.28271e-05
0.00013519
-1.44817e-05
-7.79523e-06
-0.00014214
0.0001438
-0.000145429
0.00013892
-0.000149285
0.00015035
-3.95336e-05
-1.28422e-05
-0.000128177
0.000140831
-0.000146396
0.000146917
-8.73603e-05
0.000170521
-8.31603e-05
-0.000162777
0.000154502
8.2714e-06
-1.01226e-05
0.000141464
-0.000146962
-8.95275e-05
-8.97627e-05
0.000128768
-0.000142018
-1.35736e-05
0.000142217
0.000155317
-0.00010326
-9.1365e-05
0.000165141
-7.36992e-05
0.000146261
-0.000153465
-2.19245e-06
0.000148534
-6.69829e-06
-0.000125071
4.32314e-05
-2.07092e-06
0.000136969
6.21602e-07
0.000153721
-0.000158391
7.40883e-06
0.000149302
-0.000156711
-0.000161189
0.000154193
7.10693e-06
-9.03668e-06
-0.000148504
-1.37257e-06
2.75519e-06
0.000138433
-0.000141188
-0.000152477
0.000129274
2.01359e-05
-0.000160821
0.00015445
6.36283e-06
-0.000176933
3.70811e-05
0.000145186
-0.000142431
-8.28425e-06
-3.01102e-05
0.000147182
1.16765e-06
2.14325e-06
-0.000148177
0.000146392
0.000153166
-6.55035e-05
-0.000147979
-2.13406e-06
-0.000141252
0.000142356
0.000132779
-2.86619e-06
0.000148481
7.46362e-06
-0.000144
0.000136085
-0.00015913
0.000153881
5.34628e-06
-0.00014312
9.74404e-07
0.000142801
-7.00619e-06
0.000163582
-0.00010794
-0.00014312
-6.72003e-06
0.000142483
-0.000145052
0.000146351
1.9398e-06
0.0001532
-2.78881e-06
0.000107404
-0.000148354
4.10375e-05
6.30973e-06
0.00013817
-0.000143887
-0.000147447
0.000144329
0.000160288
-0.000150241
0.000148408
-4.09307e-05
4.79116e-06
-0.000144699
0.000139379
-6.43462e-06
0.000144509
-0.00013819
9.30497e-06
0.000134281
-0.000143648
-0.000135468
0.000144564
0.000183625
-0.000145371
-3.82537e-05
1.06008e-05
-0.000145337
0.000134737
-0.000132204
0.00016686
-2.1426e-08
0.000145069
-0.000134468
6.57723e-05
0.000117852
0.000147664
2.20296e-06
4.68495e-06
-0.000145444
0.000141122
5.80554e-06
-0.000143932
0.00013804
1.22808e-05
0.000136131
-0.000148412
1.34401e-06
0.000145875
-0.000148179
-0.000156257
0.000136341
-0.000142728
0.000150413
2.31298e-06
-4.55299e-06
0.000147332
-0.000142655
0.000157868
-0.000158625
0.000148916
-0.000154393
1.91521e-06
2.35201e-07
0.000151906
-3.52801e-07
4.66793e-06
-0.000147163
0.00014022
-0.000147296
-2.59902e-06
0.000127341
-0.000141197
-0.000145976
0.000139155
0.000115567
4.11434e-05
-0.00014989
0.000148899
9.91204e-07
0.000155212
-0.000151768
-3.63882e-06
0.000152076
3.09041e-06
-4.05225e-05
0.00014821
-2.80561e-06
0.000155464
-0.000151753
-3.2695e-06
-0.00015406
0.000151568
2.24774e-06
0.000152856
2.7908e-06
1.33225e-05
0.000140566
-0.000153889
-0.00012842
0.000141742
1.54897e-05
-0.000143909
-0.000141809
0.000135728
-0.000151794
-2.7759e-06
-1.7438e-06
0.000116156
-0.000134081
1.79257e-05
-5.69703e-07
0.000149453
0.000144481
-0.000139329
0.000143552
0.000122758
-6.60243e-06
-0.000145837
-0.000105737
0.00013503
-2.93208e-05
0.000157821
-7.59244e-06
0.000145976
-0.000133695
0.000105648
-0.000146793
4.1225e-05
0.000146943
-4.12024e-05
0.000118027
-0.000132181
0.000160636
-9.10244e-06
3.49105e-06
-0.000136951
0.00014261
-8.07084e-06
-0.000148176
0.000148142
-0.000149613
5.45512e-06
-0.000143341
-0.000148471
-1.72201e-06
1.13232e-06
0.000148559
-0.000130951
0.000144938
6.40082e-06
0.000136635
-0.000143036
0.000142532
6.61283e-06
-0.000150143
-0.000133351
-8.75257e-06
-4.84644e-06
-0.000191835
-0.000151696
1.07285e-06
9.24004e-07
0.000144632
-0.000145556
-0.000148094
-5.12906e-06
0.000156123
-0.000156123
5.1005e-06
-9.01828e-05
-0.000106966
-0.00014843
-1.41289e-06
-0.000163416
-8.36643e-07
-7.53035e-05
-0.000100648
6.97653e-06
-0.000152212
-0.000134561
-0.000105191
-1.66816e-06
0.000127401
-0.00014299
1.48458e-05
-0.000127082
-1.40629e-05
0.000141583
0.000128378
1.27231e-05
-0.000140681
-0.000150267
0.000150315
-0.000145725
0.000138439
-8.19218e-07
1.79991e-05
-0.000123704
-0.000144198
1.5828e-05
-0.000160732
6.48661e-06
-0.000160793
6.499e-06
-0.000160793
6.76014e-06
-0.000160447
5.98371e-06
-7.34623e-06
-0.000154544
1.79761e-06
-0.000160819
7.70813e-05
-7.61085e-06
-0.000161377
7.48921e-06
-7.01522e-06
0.000150289
-7.76483e-06
0.000148158
-0.00015734
9.20469e-06
-0.00016024
5.85812e-06
-8.40181e-06
-0.000182331
0.000102128
8.02035e-05
-0.000148783
-4.30059e-06
-6.76193e-06
3.32113e-06
-0.000146497
0.000150579
-4.08242e-06
-0.000159766
5.60732e-06
0.000152248
-0.000164106
1.18949e-05
-0.000149013
-3.85626e-06
3.05657e-06
-5.25278e-06
-0.000148963
-3.89762e-06
0.000148868
-0.000151603
2.74675e-06
-0.00015946
5.51369e-06
3.09625e-06
-5.96402e-06
-0.000148911
-3.93626e-06
-6.2239e-06
-0.000152998
-1.1088e-06
-0.000159142
5.37042e-06
3.12817e-06
-0.000164792
7.74315e-05
0.000137441
-0.000143876
0.000102001
-0.000145024
4.30994e-05
-6.14491e-06
3.15841e-06
0.000149605
-2.87281e-06
-0.000147101
-4.70402e-07
-0.000158929
4.93745e-06
0.000149141
-0.000143874
3.84721e-06
-0.000146967
4.20002e-06
-1.51201e-06
-5.86778e-06
-4.90915e-05
1.29485e-05
0.000129478
-0.000141759
-0.000158546
4.32239e-06
2.21761e-06
-0.000138823
-1.54525e-06
0.000140394
-4.1933e-06
-0.000157761
3.56622e-06
-3.333e-06
0.00016517
-0.000157274
3.29424e-06
-4.10111e-06
-0.000156961
3.00859e-06
1.73041e-06
-0.000150428
1.27694e-05
-0.000141158
-3.76132e-06
7.15683e-06
-0.000144716
0.000137559
-0.000156308
2.614e-06
0.000160696
1.112e-06
-0.000137391
0.000144548
-0.000148748
-1.1424e-06
-2.31531e-06
-1.8108e-06
-0.000140846
0.000142882
-0.000130404
-1.22287e-05
0.000142807
-0.000155753
2.27593e-06
-3.08994e-06
-0.000155328
1.76299e-06
0.000127984
1.9905e-05
-2.62748e-06
-0.000128355
-1.36557e-05
0.000141744
-0.000155173
1.34996e-06
0.000147958
0.000152559
-4.35503e-06
-3.00441e-05
-2.11413e-06
-1.60537e-06
-0.000150905
-0.000148099
0.000147946
3.99356e-07
-0.000154463
9.01834e-07
-0.000154503
0.000152801
1.76443e-06
-0.000152059
-2.27185e-06
2.08954e-05
-0.000138058
0.000117396
-1.60784e-06
-0.000153969
1.53797e-06
-1.27577e-06
-7.26253e-05
-0.000100126
0.000172895
-1.22758e-05
-0.00013014
0.000142446
0.000131466
-0.000139599
8.5072e-06
-0.000152864
3.36001e-07
0.000129298
-0.000141569
-6.55203e-06
0.000145808
-0.000139256
1.17247e-05
-0.000141963
-1.19914e-05
0.000141662
1.14225e-05
0.000130417
-0.000142386
-9.2014e-05
0.000178165
-0.000146409
-0.000162625
0.00017609
-3.58869e-06
5.44322e-06
0.000142935
4.8347e-06
0.000149016
-0.000153775
4.3455e-06
0.00014944
-0.000153764
0.000151693
-0.000165358
-9.57604e-07