/*--------------------------------*- C++ -*----------------------------------*\
  =========                 |
  \\      /  F ield         | OpenFOAM: The Open Source CFD Toolbox
   \\    /   O peration     | Website:  https://openfoam.org
    \\  /    A nd           | Version:  12
     \\/     M anipulation  |
\*---------------------------------------------------------------------------*/
FoamFile
{
    format      ascii;
    class       volScalarField;
    location    "1.3";
    object      rho;
}
// * * * * * * * * * * * * * * * * * * * * * * * * * * * * * * * * * * * * * //

dimensions      [1 -3 0 0 0 0 0];

internalField   nonuniform List<scalar> 
46253
(
1.39346
1.40001
1.40001
1.40001
1.40001
1.40001
1.35492
1.30967
1.40001
1.40001
1.3946
1.20753
1.40001
1.40001
1.40001
1.40001
1.40001
1.40001
1.40001
1.40001
1.40001
1.40001
1.40001
1.36957
1.35191
1.40001
1.40001
1.40001
1.40001
1.29401
1.46305
1.40001
1.40001
1.40001
1.40001
1.40001
1.40001
1.40001
1.46475
1.40001
1.34506
1.20652
1.40001
1.40001
1.17175
1.40001
1.40001
1.40001
1.40001
1.40001
1.40001
1.40001
1.40001
1.44491
1.40001
1.2517
1.40001
1.40001
1.59821
1.34092
1.40001
1.4303
1.40001
1.40001
1.40001
1.40001
1.40001
1.40001
1.2537
1.17104
1.35571
1.40001
1.40001
1.43121
1.40001
1.36893
1.40001
1.40001
1.40001
1.40001
1.40001
1.40001
1.40001
1.40001
1.34736
1.40001
1.40001
1.40001
1.5033
1.40001
1.40001
1.34304
1.40001
1.40001
1.40001
1.40001
1.40001
1.40001
1.59637
1.40001
1.40001
1.40001
1.40001
1.45842
1.40001
1.34829
1.2085
1.39617
1.39696
1.22332
1.48657
1.40001
1.40001
1.40001
1.40001
1.68733
1.17516
1.34984
1.78761
1.26183
1.40001
1.40001
1.40001
1.40001
1.40001
1.80728
1.40001
1.23622
1.40019
1.40001
1.4756
1.4753
1.40001
1.35951
1.40001
1.40001
1.40001
1.40001
1.25829
1.40001
1.40001
1.50195
1.53545
1.44911
1.40001
1.4
1.40001
1.40001
1.47326
1.40001
1.22067
1.40001
1.40001
1.40001
1.41116
1.1653
1.23642
1.40001
1.4
1.40001
1.39999
1.20519
1.24853
1.40001
1.35179
1.40001
1.35883
1.40001
2.00936
1.40001
1.40008
1.40024
1.40001
1.34803
1.40001
1.1581
1.41081
1.40001
1.43995
1.17793
1.40001
1.41048
1.39994
1.39827
1.40001
1.4
1.4
1.17065
1.40001
1.40001
1.40001
1.40001
1.41484
1.40001
1.40001
1.40001
1.49422
1.40001
1.52306
1.52243
1.40001
1.40001
1.40002
1.4
1.40001
1.16571
1.40631
1.40747
1.43932
1.40001
1.40001
1.78631
1.34722
1.40001
1.40654
1.40001
1.44386
1.34865
1.46837
1.40001
1.40001
1.47539
1.15562
1.40023
1.40025
1.34785
1.40001
1.40001
1.51053
1.50969
1.53157
1.40001
1.40001
1.40001
1.40001
1.40001
1.40001
1.40001
1.52884
1.55291
1.40001
1.40001
1.40001
1.40001
1.40001
1.40001
1.40001
1.40468
1.40001
1.49419
1.48868
1.54955
1.49796
1.40001
1.49637
1.39994
1.39745
1.26947
1.34783
1.40001
1.35702
1.34228
1.21673
1.45184
1.40373
1.40001
1.40001
1.40001
1.46457
1.54919
1.46072
1.40001
1.40001
1.40001
1.54937
1.40001
1.39997
1.40001
1.46776
1.28462
1.48359
1.48245
1.40001
1.40001
1.40001
1.41983
1.42047
1.26149
1.43559
1.40001
1.58688
1.58483
1.34752
1.40001
1.57593
1.49651
1.40001
1.49317
1.34672
1.54565
1.77572
1.54427
1.24203
1.77781
1.40001
1.47492
1.47752
1.40001
1.44852
1.40001
1.40001
1.42905
1.40001
1.5441
1.40001
1.54286
1.24907
1.57368
1.40001
1.45931
1.24184
1.40001
1.35498
1.35213
1.44245
1.4302
1.40001
1.40001
1.54308
1.54254
1.45959
1.45832
1.40001
1.40001
1.40001
1.42873
1.26609
1.53875
1.54408
1.40001
1.40001
1.40001
1.40001
1.74533
1.40001
1.53852
1.5381
1.40001
1.26097
1.40001
1.53844
1.40001
1.16626
1.40001
1.20654
1.40001
1.54741
1.40001
1.54697
1.40001
1.20439
1.40001
1.40001
1.40001
1.40001
1.40001
1.40001
1.40001
1.53444
1.40001
1.40001
1.40001
1.40001
1.53304
1.40001
1.56461
1.25455
1.40001
1.40001
1.40001
1.34982
1.4078
1.24086
1.54588
1.28368
1.54716
1.40001
1.40001
1.52966
1.86343
1.40001
1.43736
1.52894
1.40914
1.40001
1.32266
1.39244
1.38937
1.40001
1.42
1.40001
1.43026
1.42969
1.56159
1.40001
1.40001
1.40001
1.40001
1.40001
1.40001
1.40001
1.40001
1.75074
1.40001
1.42184
1.40001
1.42709
1.40001
1.40001
1.2688
1.40001
1.40001
1.52523
1.40001
1.54215
1.40001
1.40001
1.52436
1.54271
1.40001
1.42192
1.40001
1.40001
1.40001
1.40001
1.39105
1.60541
1.40001
1.40001
1.4434
1.24393
1.40001
1.41885
1.40001
1.39561
1.41558
1.40001
1.40001
1.25718
1.40001
1.28794
1.42262
1.40001
1.42897
1.40001
1.40013
1.43649
1.40001
1.53982
1.39096
1.40001
1.38881
1.38829
1.53939
1.40001
1.38422
1.40001
1.40001
1.40001
1.40001
1.40001
1.43259
1.40001
1.4271
1.24279
1.5183
1.27732
1.39918
1.51747
1.40669
1.41084
1.40922
1.40001
1.40001
1.40001
1.40001
1.40041
1.40001
1.29278
1.34898
1.19446
1.29589
1.39358
1.40659
1.39101
1.40001
1.40001
1.5359
1.41804
1.21831
1.53526
1.51248
1.51187
1.40406
1.34751
1.40001
1.4015
1.45654
1.40001
1.40001
1.40001
1.34238
1.40001
1.27212
1.42909
1.40001
1.40001
1.40363
1.40001
1.40001
1.42969
1.14757
1.4226
1.40001
1.40001
1.42476
1.40001
1.42388
1.43376
1.42531
1.40001
1.42063
1.41317
1.40001
1.38975
1.42416
1.40001
1.40001
1.53172
1.40001
1.35875
1.27275
1.40001
1.40001
1.53125
1.40001
1.40001
1.40001
1.40001
1.17721
1.40001
1.40001
1.50506
1.27777
1.50421
1.33844
1.40001
1.40001
1.40001
1.40001
1.40001
1.40001
1.40001
1.39189
1.19611
1.40001
1.40001
1.40001
1.40001
1.40001
1.40001
1.35565
1.44201
1.40001
1.42797
1.40001
1.40001
1.23937
1.40001
1.40001
1.40001
1.52781
1.40001
1.40001
1.52745
1.42384
1.49552
1.40001
1.49861
1.49977
1.50313
1.67822
1.40001
1.50001
1.49968
1.43452
1.29161
1.40001
1.40001
1.42848
1.40001
1.79597
1.42901
1.40001
1.78113
1.4
1.40001
1.44825
1.45583
1.40001
1.40001
1.38173
1.38906
1.40001
1.40001
1.37895
1.40001
1.40001
1.40001
1.40001
1.40001
1.40001
1.40045
1.40024
1.16314
1.39444
1.52208
1.40547
1.50273
1.5742
1.40001
1.3555
1.37896
1.57483
1.40001
1.56911
1.40001
1.57119
1.40001
1.4004
1.56075
1.40001
1.56256
1.68616
1.40001
1.55203
1.40001
1.55301
1.40001
1.17669
1.40001
1.28133
1.37956
1.40001
1.40001
1.5419
1.54351
1.40001
1.41407
1.53329
1.53473
1.38018
1.40001
1.40001
1.5198
1.49161
1.5212
1.40001
1.52081
1.51088
1.25312
1.5124
1.49108
1.51973
1.40001
1.40001
1.40001
1.50385
1.50463
1.46301
1.40001
1.40001
1.49515
1.3017
1.49677
1.24471
1.40001
1.48424
1.48598
1.40001
1.40001
1.40001
1.42851
1.40001
1.4253
1.4165
1.46648
1.40001
1.47246
1.40001
1.47401
1.40001
1.40001
1.4242
1.42591
1.46636
1.46706
1.38776
1.43039
1.45819
1.43296
1.45947
1.40001
1.39284
1.44987
1.45071
1.40001
1.26529
1.44147
1.44247
1.87479
1.40001
1.40001
1.40001
1.43638
1.39035
1.43623
1.16751
1.50943
1.38611
1.22339
1.42747
1.42889
1.41637
1.42523
1.42526
1.26125
1.25673
1.40001
1.43313
1.83074
1.48628
1.40001
1.2225
1.48559
1.25702
1.37624
1.36036
1.40001
1.40001
1.40001
1.51571
1.40001
1.40001
1.40001
1.40001
1.40001
1.51485
1.40001
1.40001
1.40001
1.27191
1.27911
1.40001
1.38827
1.15898
1.38821
1.40001
1.40001
1.40001
1.40001
1.40001
1.41087
1.40001
1.39376
1.40001
1.49335
1.43244
1.49683
1.26063
1.40001
1.40942
1.34473
1.5043
1.40001
1.40001
1.40001
1.40001
1.40001
1.49968
1.49785
1.42064
1.36579
1.36385
1.40001
1.28093
1.40001
1.40001
1.50135
1.4131
1.40001
1.34252
1.4
1.40001
1.38978
1.39611
1.40001
1.50378
1.23614
1.38604
1.40001
1.39012
1.47834
1.40001
1.40001
1.38477
1.40416
1.40001
1.47755
1.158
1.40001
1.40001
1.52857
1.52988
1.39422
1.40001
1.16031
1.16014
1.34597
1.43272
1.40001
1.41884
1.303
1.23918
1.67517
1.40001
1.40001
1.40001
1.49156
1.49222
1.40001
1.40001
1.40001
1.5078
1.48078
1.40001
1.40001
1.48146
1.50682
1.39284
1.38899
1.40001
1.39013
1.42043
1.22203
1.39263
1.24821
1.45534
1.40001
1.40001
1.45571
1.40001
1.40001
1.40084
1.39574
1.40001
1.47311
1.28584
1.41277
1.25847
1.26256
1.47249
1.27466
1.27003
1.24432
1.24116
1.40001
1.40001
1.36909
1.40001
1.40001
1.38806
1.30019
1.27893
1.40001
1.40001
1.42216
1.40001
1.42085
1.42362
1.4
1.40017
1.47509
1.40001
1.40001
1.40001
1.40001
1.39769
1.42935
1.28344
1.16162
1.40001
1.50245
1.40001
1.40131
1.39977
1.5017
1.40001
1.39668
1.38701
1.3986
1.40001
1.40001
1.40001
1.40001
1.39003
1.42215
1.40001
1.37572
1.40001
1.27174
1.40001
1.27329
1.38473
1.35923
1.40001
1.46773
1.46696
1.3943
1.7368
1.40001
1.27738
1.46401
1.45783
1.28106
1.40001
1.40001
1.38718
1.17314
1.40001
1.40001
1.42598
1.18939
1.6352
1.38286
1.40001
1.40001
1.40001
1.40001
1.40001
1.40001
1.87149
1.40001
1.38886
1.25352
1.25899
1.22775
1.17141
1.15078
1.16535
1.26466
1.40899
1.38588
1.15714
1.55564
1.56467
1.57381
1.54708
1.55748
1.40001
1.43826
1.56553
1.59351
1.5488
1.39049
1.57457
1.51827
1.53789
1.59788
1.40001
1.39181
1.53918
1.39539
1.40001
1.52423
1.5947
1.39999
1.4
1.52548
1.40001
1.39407
1.51549
1.40001
1.40001
1.40001
1.51676
1.40001
1.5071
1.40001
1.40001
1.40001
1.46263
1.50799
1.40001
1.40001
1.40001
1.49985
1.50445
1.40001
1.40001
1.40001
1.50113
1.46198
1.17703
1.48898
1.40001
1.33728
1.48951
1.47687
1.47794
1.25032
1.46936
1.46971
1.46248
1.40001
1.37207
1.46373
1.40001
1.4534
1.3559
1.40001
1.40001
1.45325
1.29016
1.18267
1.44499
1.44629
1.43846
1.49464
1.43876
1.16506
1.43283
1.40001
1.41045
1.49385
1.43365
1.38152
1.36255
1.39094
1.42673
1.40858
1.40839
1.3526
1.42497
1.41904
1.42127
1.38913
1.18953
1.15721
1.40001
1.19047
1.40001
1.19043
1.19043
1.18153
1.40001
1.807
1.52671
1.40001
1.45223
1.44886
1.43423
1.44124
1.40001
1.19525
1.50556
1.51411
1.56556
1.63733
1.50102
1.50784
1.50261
1.49466
1.43232
1.25764
1.42265
1.38572
1.40001
1.35086
1.29406
1.25597
1.36735
1.40001
1.54984
1.49514
1.20119
1.40001
1.45474
1.3489
1.3514
1.45414
1.40001
1.40001
1.40001
1.31038
1.36837
1.15575
1.49898
1.37863
1.38503
1.22552
1.48916
1.35391
1.48837
1.41023
1.34986
1.19853
1.27855
1.21002
1.33995
1.5114
1.41384
1.40001
1.51072
1.58165
1.31392
1.36617
1.40001
1.40001
1.40001
1.41168
1.40001
1.40001
1.40001
1.17638
1.36911
1.24564
1.40001
1.34932
1.40001
1.4114
1.31694
1.40001
1.40001
1.14686
1.25222
1.39466
1.25472
1.43315
1.43428
1.40001
1.51589
1.42156
1.40001
1.36935
1.40001
1.38156
1.4483
1.45039
1.29117
1.40001
1.40001
1.34751
1.448
1.40497
1.389
1.42666
1.42787
1.40001
1.4478
1.40616
1.38971
1.388
1.24377
1.38507
1.40001
1.32234
1.26638
1.39757
1.22156
1.39746
1.49635
1.40001
1.40001
1.40001
1.29787
1.39504
1.40001
1.39274
1.39607
1.56139
1.36663
1.27921
1.39085
1.15609
1.35279
1.54241
1.40001
1.40001
1.32588
1.55883
1.40001
1.40001
1.40001
1.38385
1.40001
1.38412
1.18929
1.40777
1.42223
1.40001
1.40001
1.40725
1.40001
1.39696
1.39754
1.64618
1.39838
1.40001
1.49957
1.65637
1.40205
1.38491
1.53968
1.40001
1.35041
1.61193
1.57588
1.32854
1.40001
1.53082
1.61536
1.58957
1.40001
1.41342
1.15903
1.40001
1.40001
1.27722
1.59272
1.40001
1.55489
1.47881
1.40001
1.40001
1.34868
1.57019
1.44362
1.4586
1.59231
1.48106
1.23689
1.40001
1.57138
1.57277
1.44133
1.44295
1.40001
1.48774
1.48056
1.48856
1.49938
1.40001
1.55314
1.40001
1.40001
1.40001
1.55183
1.40001
1.40001
1.29919
1.40474
1.40001
1.30363
1.55578
1.42945
1.38965
1.40001
1.40861
1.40001
1.4274
1.40001
1.40001
1.40001
1.40001
1.40001
1.4066
1.40001
1.40001
1.40001
1.40001
1.40001
1.40001
1.41317
1.17947
1.40001
1.36328
1.40001
1.40001
1.40001
1.42568
1.28113
1.20781
1.40001
1.19493
1.47925
1.40001
1.40001
1.40001
1.50948
1.40001
1.50289
1.40001
1.58737
1.26851
1.22435
1.40001
1.40001
1.40001
1.40001
1.40001
1.40001
1.53245
1.57227
1.41889
1.58436
1.40001
1.40001
1.40001
1.40001
1.27243
1.40001
1.40001
1.40001
1.49208
1.40001
1.40001
1.40001
1.35047
1.35019
1.28055
1.53516
1.27099
1.3488
1.40001
1.40001
1.36027
1.36286
1.49594
1.50149
1.21961
1.50275
1.4952
1.37266
1.49982
1.50054
1.43821
1.52822
1.40001
1.52823
1.39678
1.49904
1.39999
1.40001
1.49879
1.4362
1.50302
1.40001
1.37195
1.50183
1.40003
1.39468
1.27896
1.43456
1.50202
1.4575
1.47524
1.39798
1.23834
1.39725
1.28561
1.40001
1.45136
1.24636
1.47446
1.4282
1.45753
1.5045
1.44007
1.40001
1.37886
1.56788
1.40001
1.40001
1.1617
1.40001
1.40001
1.45901
1.26507
1.40001
1.49893
1.49718
1.50057
1.40001
1.26226
1.51034
1.50217
1.50118
1.48908
1.49832
1.46471
1.45447
1.53704
1.27852
1.54196
1.49489
1.52452
1.49509
1.4908
1.40001
1.27645
1.40001
1.40426
1.40001
1.16981
1.41399
1.49121
1.49954
1.42802
1.50218
1.42115
1.48096
1.49375
1.72921
1.28492
1.54675
1.40001
1.48615
1.487
1.40001
1.40001
1.40001
1.40001
1.40001
1.40001
1.40001
1.31208
1.40001
1.43258
1.17501
1.26136
1.56171
1.17612
1.25965
1.48182
1.24161
1.40001
1.16888
1.43166
1.28701
1.40001
1.41151
1.49189
1.40001
1.40001
1.61519
1.16484
1.26974
1.26608
1.47834
1.40001
1.40001
1.14779
1.35901
1.38906
1.53687
1.15562
1.40001
1.40001
1.40001
1.39583
1.40001
1.4777
1.47821
1.42244
1.17732
1.46915
1.47343
1.40001
1.48337
1.47354
1.39551
1.44673
1.40001
1.59161
1.40001
1.40001
1.49595
1.4703
1.43184
1.57813
1.17654
1.58846
1.60009
1.53328
1.40001
1.40001
1.49191
1.46281
1.40001
1.47005
1.40001
1.21056
1.40001
1.40001
1.46029
1.1768
1.40001
1.46297
1.4235
1.46417
1.40001
1.40001
1.46953
1.54364
1.17868
1.26649
1.1875
1.36293
1.34703
1.34919
1.17365
1.41737
1.35237
1.3803
1.40001
1.46035
1.17916
1.18011
1.361
1.52544
1.45239
1.2927
1.40001
1.40001
1.37555
1.37149
1.35226
1.40001
1.44915
1.3753
1.45469
1.44048
1.45408
1.35484
1.43871
1.40001
1.18944
1.40001
1.16444
1.43021
1.45008
1.43458
1.41222
1.17042
1.28997
1.49768
1.40001
1.29285
1.44301
1.25216
1.61415
1.28348
1.44125
1.44521
1.61423
1.18472
1.44345
1.36968
1.40001
1.44282
1.44463
1.54021
1.56446
1.40001
1.39229
1.40001
1.1654
1.28243
1.41434
1.21913
1.18645
1.40001
1.18511
1.22301
1.44126
1.40001
1.18068
1.421
1.49045
1.50881
1.42717
1.17922
1.299
1.36789
1.48517
1.5061
1.19175
1.42972
1.43518
1.40001
1.43477
1.40001
1.38687
1.59303
1.43052
1.2504
1.57354
1.49741
1.40001
1.18843
1.49411
1.41888
1.40001
1.20753
1.49514
1.52107
1.5951
1.4485
1.40001
1.42047
1.4003
1.42334
1.40001
1.4901
1.42449
1.40001
1.51945
1.49084
1.37792
1.50011
1.48509
1.42073
1.31605
1.40001
1.40001
1.4855
1.20849
1.40001
1.21722
1.4079
1.52228
1.52762
1.21788
1.44801
1.28045
1.40001
1.2263
1.66136
1.40001
1.40001
1.54101
1.65445
1.21548
1.42396
1.43423
1.20042
1.20274
1.49567
1.31387
1.41975
1.45918
1.49788
1.57375
1.49067
1.44105
1.43471
1.42251
1.48248
1.44317
1.22622
1.18044
1.21378
1.40001
1.48308
1.66266
1.46239
1.53907
1.66156
1.26393
1.40001
1.46076
1.45483
1.39172
1.28996
1.40001
1.40001
1.47277
1.47617
1.28703
1.42765
1.40001
1.40001
1.42819
1.48729
1.46496
1.40001
1.40001
1.4291
1.45541
1.45519
1.57349
1.42376
1.23012
1.42965
1.45394
1.40001
1.22957
1.46442
1.2637
1.21925
1.47996
1.49855
1.72569
1.46753
1.39073
1.46141
1.33408
1.45994
1.4677
1.35755
1.40455
1.55549
1.40001
1.40367
1.40001
1.40001
1.3347
1.32252
1.34549
1.3272
1.53272
1.41936
1.40001
1.40001
1.33988
1.45736
1.24906
1.26953
1.3713
1.24604
1.45597
1.4837
1.45859
1.25008
1.21594
1.44239
1.60753
1.25676
1.40001
1.36184
1.47544
1.24636
1.6888
1.38054
1.39026
1.40001
1.40001
1.39263
1.36192
1.40024
1.40001
1.40001
1.35897
1.40001
1.4481
1.2665
1.25134
1.29279
1.443
1.44764
1.4216
1.40001
1.24837
1.29402
1.40001
1.24701
1.28085
1.4228
1.39623
1.42171
1.40001
1.40001
1.47967
1.34522
1.46067
1.25293
1.25509
1.6573
1.29016
1.40001
1.40001
1.43794
1.40001
1.40001
1.48169
1.38578
1.43906
1.43949
1.40001
1.21535
1.48077
1.30819
1.40001
1.29967
1.5676
1.35217
1.40001
1.40001
1.40001
1.27523
1.3429
1.48321
1.30167
1.40001
1.40001
1.25061
1.29649
1.25872
1.26017
1.42913
1.50581
1.31492
1.40001
1.39998
1.40001
1.4284
1.40001
1.40001
1.40001
1.35298
1.40001
1.40029
1.40001
1.40001
1.40001
1.40001
1.40001
1.40001
1.40001
1.40001
1.40001
1.40001
1.4
1.40001
1.43129
1.4
1.40001
1.39034
1.50128
1.39381
1.40001
1.40001
1.41932
1.2416
1.30913
1.47738
1.4
1.39997
1.38889
1.43116
1.4559
1.40001
1.40001
1.40001
1.40001
1.41735
1.41829
1.40055
1.45707
1.41996
1.30476
1.41803
1.41845
1.29339
1.37274
1.49916
1.1694
1.39563
1.39947
1.40053
1.40292
1.40001
1.40001
1.3422
1.49446
1.40001
1.40001
1.47888
1.38793
1.32116
1.37459
1.47441
1.50081
1.40001
1.28772
1.40001
1.40502
1.49644
1.48946
1.44187
1.27522
1.31724
1.38663
1.49917
1.41045
1.50214
1.40747
1.40001
1.44006
1.4138
1.28047
1.49151
1.61115
1.40186
1.40001
1.40001
1.44669
1.49534
1.44795
1.48342
1.65976
1.41603
1.23981
1.42247
1.40001
1.44647
1.49651
1.40001
1.49621
1.35178
1.23891
1.49333
1.4389
1.42124
1.41356
1.48829
1.41104
1.44874
1.40001
1.45112
1.45207
1.48954
1.39748
1.40001
1.45252
1.42592
1.42623
1.42049
1.48423
1.4306
1.44528
1.40001
1.48785
1.40001
1.44643
1.17927
1.40001
1.40001
1.65482
1.49359
1.53617
1.195
1.40001
1.40001
1.47199
1.48903
1.41886
1.20069
1.40001
1.41673
1.40001
1.44095
1.62723
1.51351
1.47404
1.47866
1.36996
1.40001
1.47485
1.38026
1.44791
1.32
1.44046
1.5131
1.42337
1.36395
1.40001
1.47941
1.38088
1.48192
1.40001
1.47592
1.47242
1.40001
1.42789
1.2689
1.37541
1.43374
1.47981
1.215
1.39405
1.48559
1.46125
1.40001
1.46597
1.39061
1.43352
1.76145
1.43389
1.40001
1.40001
1.40001
1.37441
1.42098
1.46638
1.40368
1.46149
1.46365
1.40001
1.40001
1.6667
1.51984
1.45256
1.29423
1.40001
1.44253
1.40001
1.45929
1.42183
1.41064
1.45492
1.64114
1.43968
1.43041
1.47998
1.45528
1.45334
1.41451
1.40001
1.38805
1.23358
1.42157
1.40001
1.44193
1.41409
1.40001
1.40001
1.41714
1.40001
1.40001
1.35497
1.27395
1.45622
1.44699
1.51306
1.40001
1.4
1.40001
1.40045
1.40001
1.31386
1.39608
1.29828
1.44724
1.20565
1.19145
1.44175
1.27254
1.40001
1.24171
1.32243
1.49071
1.27364
1.433
1.40001
1.47134
1.40001
1.49939
1.43562
1.40001
1.40001
1.42861
1.40001
1.44525
1.40001
1.46606
1.43576
1.43384
1.44263
1.42573
1.40001
1.27852
1.40001
1.54594
1.51448
1.40226
1.4157
1.40001
1.40001
1.47858
1.42177
1.40001
1.45324
1.42684
1.38811
1.41023
1.47828
1.4133
1.23224
1.40001
1.4285
1.46882
1.47683
1.42792
1.45917
1.33652
1.42201
1.35098
1.40001
1.40001
1.42646
1.4571
1.33533
1.40669
1.38431
1.3962
1.4125
1.27363
1.4373
1.41573
1.28707
1.40001
1.48219
1.44739
1.33309
1.4634
1.34609
1.40001
1.40001
1.42358
1.44597
1.40001
1.40001
1.40001
1.40001
1.40001
1.55628
1.46176
1.40001
1.33115
1.40001
1.41611
1.45664
1.47393
1.50637
1.42747
1.42363
1.43112
1.46027
1.32129
1.40001
1.40001
1.36021
1.51032
1.40001
1.40001
1.37309
1.48575
1.45673
1.39998
1.40854
1.4863
1.40001
1.47947
1.48046
1.47582
1.49298
1.50187
1.40957
1.40001
1.4618
1.31085
1.40001
1.39998
1.35883
1.49557
1.49274
1.49741
1.46082
1.30608
1.48901
1.57806
1.49473
1.51562
1.50593
1.40001
1.49636
1.4855
1.51248
1.41746
1.40001
1.40001
1.49107
1.45403
1.3046
1.20073
1.45925
1.40001
1.39961
1.40461
1.53103
1.27601
1.4547
1.52332
1.52711
1.43279
1.21122
1.39919
1.51842
1.27406
1.44915
1.4484
1.2798
1.58984
1.44972
1.49711
1.44793
1.40001
1.37203
1.43222
1.39999
1.3337
1.43687
1.53791
1.55905
1.28597
1.40313
1.44231
1.40392
1.28522
1.5586
1.28535
1.53545
1.43851
1.42565
1.48299
1.42065
1.49038
1.48203
1.48487
1.435
1.53329
1.4264
1.44113
1.41991
1.26609
1.30051
1.46598
1.29965
1.48481
1.40001
1.40624
1.40001
1.29902
1.48522
1.40001
1.40001
1.30126
1.40001
1.40001
1.36874
1.42145
1.68278
1.38402
1.40001
1.20309
1.40001
1.33452
1.30536
1.48305
1.29053
1.40322
1.48307
1.40492
1.41884
1.42531
1.40001
1.34854
1.40001
1.48126
1.42494
1.40001
1.3648
1.33489
1.53846
1.48206
1.53951
1.40001
1.33495
1.21187
1.48062
1.40001
1.55705
1.43455
1.35588
1.48127
1.37556
1.42085
1.40001
1.332
1.40001
1.305
1.66011
1.34528
1.21921
1.40001
1.47822
1.24028
1.3434
1.19346
1.41935
1.47852
1.51386
1.42695
1.40001
1.39737
1.39893
1.40001
1.55392
1.40001
1.47579
1.48378
1.46924
1.5498
1.40001
1.40001
1.47637
1.42875
1.31017
1.5612
1.40001
1.40001
1.55686
1.47366
1.57031
1.31861
1.56525
1.47411
1.40001
1.33689
1.41203
1.40321
1.47003
1.43448
1.37801
1.37256
1.58988
1.47083
1.54756
1.50194
1.40001
1.40001
1.40001
1.30971
1.46629
1.40001
1.39358
1.35748
1.57387
1.45031
1.41787
1.42305
1.31364
1.46712
1.48888
1.39153
1.44992
1.19024
1.39561
1.43698
1.40001
1.42929
1.44025
1.35737
1.42748
1.49885
1.49536
1.57826
1.39339
1.59607
1.59175
1.40001
1.30916
1.18469
1.4833
1.40001
1.40001
1.40091
1.40001
1.58755
1.2501
1.46657
1.48929
1.40001
1.44848
1.42869
1.39877
1.40006
1.40489
1.42367
1.51832
1.45524
1.36698
1.5825
1.40001
1.32443
1.37036
1.40455
1.40008
1.50845
1.40001
1.33721
1.23808
1.41573
1.60042
1.45186
1.50442
1.60521
1.41543
1.40001
1.38649
1.4123
1.477
1.85449
1.46744
1.5893
1.52277
1.46446
1.3683
1.54473
1.40001
1.40001
1.48394
1.41135
1.52523
1.45898
1.36595
1.41623
1.4871
1.39711
1.36828
1.40001
1.15344
1.40001
1.20289
1.41321
1.52194
1.52357
1.31493
1.40001
1.40001
1.60968
1.39527
1.40001
1.40001
1.42163
1.3145
1.52592
1.61822
1.41932
1.3997
1.51575
1.42656
1.49613
1.31097
1.40001
1.40073
1.51673
1.32178
1.31041
1.25056
1.42609
1.42358
1.40001
1.44007
1.40001
1.40001
1.58803
1.30798
1.34979
1.48391
1.51164
1.66168
1.30872
1.40001
1.40001
1.51327
1.56006
1.40812
1.48053
1.43368
1.40001
1.48573
1.41739
1.43238
1.40001
1.40001
1.40001
1.40001
1.43684
1.40001
1.45155
1.50496
1.41823
1.45571
1.50517
1.40001
1.43438
1.40001
1.40001
1.40001
1.44092
1.49932
1.50084
1.40001
1.47767
1.44032
1.28411
1.40001
1.40001
1.26634
1.45006
1.40001
1.29046
1.44626
1.40001
1.40001
1.40001
1.40001
1.40001
1.49117
1.40001
1.33733
1.4441
1.40001
1.52251
1.41948
1.40001
1.49277
1.19089
1.40001
1.28127
1.48841
1.40001
1.40001
1.52041
1.53785
1.40001
1.40001
1.40001
1.26672
1.26565
1.33525
1.45271
1.30386
1.511
1.40001
1.40001
1.29326
1.52035
1.40001
1.26782
1.4505
1.40001
1.34888
1.40001
1.45797
1.40001
1.34571
1.40001
1.24741
1.40001
1.40001
1.40586
1.18977
1.51907
1.40001
1.40001
1.45684
1.40001
1.32832
1.29958
1.45851
1.20515
1.40001
1.18898
1.40001
1.22928
1.29676
1.40471
1.32583
1.40001
1.43423
1.45583
1.35758
1.3555
1.40523
1.40001
1.40356
1.35212
1.40001
1.40001
1.27119
1.26964
1.46654
1.18395
1.46369
1.40001
1.40001
1.40001
1.46165
1.68904
1.29947
1.46796
1.40001
1.45172
1.36441
1.28914
1.30068
1.54145
1.40001
1.5076
1.46685
1.36247
1.40831
1.37386
1.25231
1.3788
1.40001
1.29605
1.25943
1.40001
1.51975
1.40001
1.40001
1.21656
1.47302
1.40001
1.40017
1.40001
1.40001
1.37763
1.44087
1.40001
1.40001
1.40001
1.47454
1.5199
1.40001
1.12512
1.40001
1.47107
1.40001
1.40263
1.23733
1.40001
1.40001
1.34832
1.47351
1.40001
1.19779
1.40001
1.22631
1.3776
1.40001
1.47711
1.37388
1.209
1.47836
1.50988
1.28729
1.5648
1.40033
1.4
1.3876
1.47588
1.47656
1.21868
1.51009
1.49065
1.29331
1.40001
1.52785
1.40001
1.65801
1.32197
1.48301
1.48241
1.20673
1.38701
1.394
1.40001
1.40339
1.48675
1.38671
1.34761
1.30207
1.40035
1.392
1.32973
1.40001
1.49758
1.48124
1.40001
1.40001
1.40001
1.48144
1.33041
1.46562
1.49778
1.40205
1.40001
1.4875
1.39447
1.45058
1.4864
1.49014
1.40001
1.66112
1.21504
1.48599
1.48699
1.48979
1.44864
1.40001
1.40001
1.30699
1.48512
1.31556
1.39624
1.4828
1.37369
1.37554
1.37266
1.71541
1.48356
1.37585
1.23795
1.40001
1.44378
1.49228
1.43049
1.40001
1.49427
1.40001
1.56454
1.43277
1.30435
1.58278
1.48292
1.40445
1.31923
1.43848
1.46038
1.54685
1.40001
1.4333
1.36102
1.33991
1.4319
1.49256
1.40001
1.48346
1.4912
1.48111
1.36244
1.3256
1.40001
1.6029
1.45896
1.69061
1.40001
1.53617
1.2959
1.44985
1.56714
1.3158
1.48398
1.47907
1.4
1.54951
1.58567
1.40087
1.49588
1.51711
1.40001
1.45075
1.46594
1.4814
1.47727
1.52584
1.26764
1.62196
1.50217
1.60592
1.46756
1.4076
1.50096
1.40001
1.4946
1.48003
1.46311
1.47503
1.40001
1.50011
1.31129
1.40001
1.69777
1.47774
1.47189
1.47241
1.40001
1.62489
1.32769
1.40001
1.47509
1.50617
1.46818
1.40001
1.40001
1.47057
1.4726
1.40001
1.50466
1.40001
1.46966
1.50007
1.30004
1.40001
1.46929
1.40001
1.51015
1.21542
1.40001
1.41419
1.51113
1.46494
1.52636
1.40001
1.40001
1.40001
1.48176
1.51009
1.33145
1.47926
1.4159
1.52407
1.50803
1.25982
1.38938
1.53157
1.40001
1.40001
1.48228
1.44058
1.39118
1.40001
1.4795
1.53443
1.40001
1.51892
1.34555
1.33602
1.3473
1.5143
1.4
1.51875
1.50637
1.48785
1.32652
1.52217
1.37741
1.44414
1.29091
1.41659
1.48627
1.40001
1.69021
1.5141
1.32592
1.51498
1.60805
1.42757
1.42252
1.32421
1.27827
1.40001
1.51922
1.51227
1.45636
1.48432
1.51488
1.40001
1.43089
1.50679
1.45193
1.52138
1.51453
1.40001
1.40001
1.51095
1.50305
1.45477
1.40001
1.23807
1.40001
1.40001
1.43485
1.51512
1.40001
1.50812
1.57353
1.47116
1.40001
1.30153
1.45629
1.51827
1.49505
1.40001
1.50386
1.41669
1.32562
1.51608
1.56021
1.42616
1.49598
1.40001
1.39106
1.46522
1.47536
1.40001
1.40001
1.48775
1.35846
1.49649
1.40001
1.49441
1.51548
1.47574
1.40001
1.4999
1.46363
1.40001
1.44973
1.48902
1.47985
1.30217
1.41629
1.40001
1.31158
1.40001
1.52092
1.42287
1.40001
1.40001
1.42354
1.43016
1.47193
1.44742
1.19934
1.40001
1.40001
1.32056
1.34639
1.50525
1.41823
1.40001
1.38615
1.52178
1.4677
1.39991
1.40001
1.50298
1.40001
1.40052
1.40001
1.40001
1.42466
1.40001
1.50056
1.35899
1.40001
1.13463
1.51044
1.43336
1.26912
1.40001
1.42412
1.40001
1.49598
1.51364
1.40001
1.53211
1.40001
1.40001
1.44346
1.50864
1.32508
1.49501
1.40001
1.49452
1.50491
1.76369
1.55967
1.22287
1.40001
1.31621
1.22322
1.40001
1.31805
1.40001
1.40001
1.32252
1.47271
1.40001
1.17527
1.4969
1.51685
1.47606
1.4003
1.20095
1.4
1.34353
1.38001
1.40957
1.38307
1.3849
1.44616
1.51489
1.40992
1.32369
1.32202
1.40001
1.40001
1.39005
1.3781
1.40001
1.40001
1.30071
1.40001
1.40001
1.45501
1.42894
1.40001
1.52248
1.40001
1.4503
1.32227
1.25656
1.40001
1.39997
1.45333
1.65452
1.17758
1.52089
1.45261
1.45355
1.32788
1.46393
1.24196
1.21242
1.20519
1.44546
1.20711
1.40025
1.53426
1.40001
1.48254
1.40001
1.23777
1.29299
1.60689
1.59136
1.40001
1.50291
1.20058
1.31528
1.36314
1.52876
1.45958
1.20766
1.40001
1.46087
1.31386
1.56898
1.49809
1.44712
1.40001
1.40001
1.40001
1.40001
1.4894
1.44311
1.52658
1.23819
1.50165
1.23729
1.40001
1.33966
1.59481
1.46124
1.60978
1.44505
1.49058
1.30959
1.40001
1.40001
1.21215
1.40001
1.4547
1.34185
1.24917
1.41126
1.40002
1.3579
1.37203
1.40001
1.45079
1.40001
1.40001
1.48332
1.53433
1.40706
1.57236
1.32234
1.45169
1.4827
1.68046
1.32454
1.24829
1.42372
1.40001
1.31216
1.53328
1.39323
1.40125
1.45195
1.40483
1.51004
1.40264
1.40001
1.41786
1.44039
1.25773
1.40001
1.46764
1.32537
1.46154
1.30898
1.40001
1.18222
1.49298
1.43931
1.40001
1.32409
1.40001
1.40001
1.39588
1.40001
1.40001
1.45868
1.50231
1.27857
1.32192
1.2551
1.46605
1.44085
1.54111
1.40001
1.40001
1.26928
1.31007
1.40474
1.39945
1.47506
1.40001
1.43002
1.20372
1.40594
1.32276
1.29564
1.19888
1.40001
1.49926
1.459
1.44049
1.53909
1.38712
1.40001
1.40001
1.6233
1.42384
1.549
1.43761
1.46456
1.47446
1.39718
1.39982
1.40001
1.41968
1.39373
1.54628
1.40001
1.40428
1.30864
1.21531
1.40001
1.38656
1.4556
1.28022
1.35679
1.24753
1.47253
1.53419
1.40001
1.49961
1.42296
1.40001
1.44142
1.39889
1.27528
1.2142
1.41792
1.47272
1.46027
1.26628
1.42745
1.40001
1.48212
1.40001
1.25545
1.40001
1.40001
1.46547
1.21724
1.40001
1.39561
1.57166
1.43481
1.40001
1.53137
1.34747
1.40001
1.35363
1.26374
1.42577
1.43005
1.48079
1.41001
1.21145
1.54662
1.41963
1.43266
1.23804
1.33217
1.40001
1.47876
1.33594
1.34352
1.36747
1.32716
1.40001
1.22038
1.4828
1.33144
1.40001
1.43133
1.27182
1.40001
1.47158
1.4491
1.48974
1.45576
1.32704
1.30671
1.32277
1.45418
1.45355
1.40001
1.31951
1.44762
1.44614
1.35089
1.27054
1.40001
1.27057
1.42801
1.40001
1.44705
1.40001
1.29319
1.38874
1.40001
1.48736
1.44346
1.40001
1.43063
1.40001
1.33877
1.48323
1.44662
1.48702
1.40001
1.21179
1.40001
1.45421
1.71183
1.42899
1.40001
1.44734
1.54891
1.45612
1.48879
1.47736
1.26732
1.33277
1.47716
1.40001
1.61913
1.2813
1.40001
1.31302
1.49842
1.39591
1.43141
1.5898
1.20793
1.40078
1.32651
1.40001
1.49124
1.55404
1.45318
1.45601
1.34842
1.40001
1.46076
1.40001
1.28134
1.40001
1.39275
1.45708
1.30511
1.4
1.45474
1.49674
1.55109
1.40001
1.52592
1.70432
1.4
1.41369
1.27533
1.45939
1.29433
1.44663
1.59982
1.40001
1.40001
1.35504
1.36299
1.51318
1.48733
1.54646
1.35646
1.3108
1.52751
1.39557
1.40001
1.32999
1.31956
1.55659
1.40001
1.29445
1.27762
1.21651
1.44721
1.46974
1.40001
1.40001
1.32311
1.25809
1.51535
1.42304
1.4908
1.50685
1.45417
1.214
1.40016
1.48606
1.40001
1.60016
1.3522
1.34214
1.40001
1.3296
1.68329
1.46822
1.40001
1.3313
1.35995
1.18822
1.527
1.47493
1.49588
1.4366
1.41897
1.38293
1.43811
1.40001
1.33068
1.48467
1.47984
1.48732
1.48996
1.47532
1.4937
1.40001
1.33638
1.46986
1.46317
1.40001
1.33922
1.42117
1.44432
1.40001
1.40444
1.50501
1.20114
1.43619
1.43681
1.40001
1.43678
1.49878
1.40001
1.5099
1.40619
1.33546
1.32365
1.43489
1.40001
1.32863
1.32989
1.44933
1.45695
1.37069
1.46922
1.51421
1.42471
1.4267
1.40001
1.62281
1.3301
1.40486
1.48971
1.38927
1.45143
1.5208
1.67519
1.40001
1.37309
1.53493
1.48386
1.40001
1.47816
1.48777
1.31858
1.47419
1.40001
1.46842
1.49288
1.43768
1.40001
1.52415
1.39097
1.48916
1.49729
1.45241
1.4977
1.22437
1.46316
1.52993
1.40001
1.40001
1.57619
1.5491
1.50371
1.327
1.49085
1.3279
1.27199
1.41212
1.36543
1.39365
1.29748
1.30887
1.45704
1.47643
1.50907
1.32632
1.31946
1.32498
1.50411
1.38594
1.4227
1.48774
1.51307
1.40001
1.35225
1.43087
1.44999
1.40001
1.39056
1.32822
1.45836
1.39383
1.40001
1.51934
1.4118
1.49645
1.40001
1.43526
1.3957
1.32824
1.20488
1.38721
1.40001
1.26426
1.4695
1.49838
1.45447
1.21298
1.4344
1.58237
1.47247
1.52257
1.32295
1.66858
1.42647
1.29195
1.48369
1.28205
1.40001
1.49501
1.40016
1.41953
1.67579
1.42431
1.40001
1.40001
1.32184
1.44514
1.51153
1.40001
1.29305
1.49941
1.48536
1.49072
1.39563
1.32148
1.48569
1.48563
1.48094
1.49329
1.40001
1.32904
1.4251
1.47147
1.63745
1.40001
1.40001
1.41357
1.4098
1.40001
1.5861
1.48489
1.40001
1.42762
1.58556
1.40001
1.40001
1.3829
1.29474
1.32028
1.33411
1.32074
1.3215
1.41682
1.39948
1.40001
1.42039
1.50837
1.40001
1.37724
1.32404
1.4966
1.42116
1.40001
1.22266
1.35695
1.3266
1.38041
1.17569
1.45233
1.51406
1.38064
1.44068
1.42616
1.31582
1.2944
1.41028
1.40001
1.49142
1.46404
1.47574
1.39995
1.31855
1.32207
1.29154
1.33388
1.40001
1.41975
1.40001
1.49882
1.54422
1.16455
1.3179
1.31692
1.32401
1.40001
1.32968
1.40001
1.48725
1.22206
1.37974
1.3276
1.50514
1.32158
1.40001
1.43495
1.71227
1.40001
1.3828
1.3309
1.26124
1.32722
1.58439
1.57572
1.40001
1.48456
1.3304
1.50058
1.40001
1.31627
1.40001
1.49818
1.32975
1.42117
1.48326
1.40001
1.16894
1.32537
1.33117
1.48215
1.40001
1.40001
1.40001
1.413
1.4563
1.41502
1.45984
1.4
1.53788
1.58054
1.45126
1.4416
1.18796
1.25788
1.54097
1.57178
1.40001
1.40001
1.30265
1.30788
1.39909
1.40001
1.32739
1.40001
1.38471
1.40001