/*--------------------------------*- C++ -*----------------------------------*\
  =========                 |
  \\      /  F ield         | OpenFOAM: The Open Source CFD Toolbox
   \\    /   O peration     | Website:  https://openfoam.org
    \\  /    A nd           | Version:  12
     \\/     M anipulation  |
\*---------------------------------------------------------------------------*/
FoamFile
{
    format      ascii;
    class       volScalarField;
    location    "9.34";
    object      T;
}
// * * * * * * * * * * * * * * * * * * * * * * * * * * * * * * * * * * * * * //

dimensions      [0 0 0 1 0 0 0];

internalField   nonuniform List<scalar> 
22702
(
1
1
0.959949
1
1.01619
1
1.1204
1
1
0.878908
1.12059
1.1202
1
1.11839
0.966634
1
1
1
1.12047
1
1.11859
1
1.1189
0.900376
1.11884
0.888397
1
1.11935
0.885968
0.897456
1
1.11992
1
1
1
1.11051
1.11791
1.11922
1
1
0.875588
1
1.06329
1
1.11938
1
1
1
1
0.897061
1
0.898936
1
1.12037
1
1.12009
1
1
1
1
0.892271
1
1
0.891325
1
0.90293
1
1
1
0.880446
1
1.11858
1.07581
1
1.11863
1.12539
0.903027
1.11906
0.898858
1
1.12098
0.896889
1.12056
1.11935
1
1
1
1
0.981779
0.877478
1.12159
1
1
0.894752
1
1.11875
0.893562
1
1
1
1
1.06298
1.12072
0.890231
1
1
1.03191
1
0.895264
1
1.11964
1.12052
1
1
0.885793
0.886949
0.877481
1
1
1
1
1
0.975218
1
1.10285
1.01431
1.11963
1
1.12041
1.12085
1.11844
1.12056
1
0.880119
1
0.902421
1
1
1
1
1.12095
1
1
1
1
1.119
1
1.00853
1
1
1
1
0.894436
1
1.00316
1
0.899191
1
1
1
1.12114
1
1.11864
0.883624
0.887824
1.11909
1.11857
1
1.02364
1.07115
1
1.12035
0.898737
1.11073
1
1
1
1
1.11848
1.09953
1
1.12077
0.902497
1.12017
1
0.894606
1
0.896507
0.886731
0.999943
1
1
1.12056
1
1
1.11862
1
1.1208
1.12071
0.895682
1
1
0.897149
1.11837
1
1
1
1.11843
1
0.893359
1
1
1.11865
1.11847
1.12038
1
1.00001
1
1
1
1.11865
1
0.906499
1.12372
1.11861
1.11836
1
1
1
0.893222
1.11907
1.06114
1
1.11892
0.898801
0.89653
1.11894
1.11866
1
1.11842
0.885258
1.1062
1
1
1
1
1.11865
1
1.07478
1.01178
1
1
1.1182
0.897326
0.928773
1
1.11771
0.887759
1.11904
1
1
1
1
1
1
1
0.89726
0.929201
0.897248
1.11855
1
1
1
1
1.10875
1
0.898441
1
0.891065
0.898173
1.11834
0.900049
1.11856
1
1
1
0.999332
0.893257
0.885375
1
1
0.889274
1
1.12084
0.887596
1
1
1.12085
0.883758
1
1.11891
0.890194
1.11821
1
0.893332
0.99937
1
1
1
0.899901
1
1
1
1
1.00529
1.07596
1
0.893579
1
1
1
1
1
1
1
1.12064
1
1.12086
1
1
1
0.882861
1
1.11877
0.896766
1
1.09678
1
1
1.12055
1
1
1
1.11903
1
1
1.11663
1.12069
1
1.02897
1
1
0.900918
1
1
1
0.897004
1
1
1
1
0.890225
1
1
1
1
1
0.886063
1.00002
1.11855
1
0.999995
1.11861
1.11904
1
1
0.898901
0.947178
1.12074
1
1
1
1.11825
0.881214
1
1.11878
1
1
0.914664
0.915794
1
0.894131
0.882693
1
1
1
1
1
1
1
1.11887
1.03191
1.11754
0.885911
0.969547
1.12145
1
1.11907
1.12051
0.891228
0.934231
1
0.890732
1
1.12348
1
1
1
1
1.11853
1
1
1
1
1
1
1
1.04868
1.12052
1
1.1186
1
1
0.898193
1
1
1
1
1.11834
1.09282
1
1
0.897304
1.11866
1.11875
1
1.11878
1.11864
1.11851
1
0.953124
1
1.11887
0.99666
1.11862
1
0.893773
0.999671
1.12075
1
1
1
1
0.892552
1.11896
1.10863
1
1.11928
1.11862
1.12062
1
1.05631
1.11871
1
1
1.08419
1.01871
1.11866
0.981647
1.11869
1
1.11869
1.11881
1.11858
1.1187
1
1.11514
0.974066
0.971663
1
1
1
1
1.1191
1
1
1
1
1
1.12067
1
1
0.998832
1.11868
1.10282
1
1.09954
1.00001
1
1
1.11872
1
0.999333
1.00136
1
1.11878
1
1.11877
1
1
1.09092
1
1.11855
1.00001
1
1.11775
1
1.11833
1
1
1
1.11865
1
1.1195
1
1.11865
1.12053
1.11847
1.11872
1
1.12074
1.11631
1
0.894364
1.11178
1.08745
1
1.11861
1
0.898019
0.89197
1
1
1
1
1
0.891605
1
1.11858
1.03176
1.11869
1
1
1
1
1
1.11875
1
1.11814
1.07433
0.933941
1
1
1.03808
1.03226
1
1
1.04667
1
0.899692
1.11812
1.11833
1
1
1
1.12047
1
1.00001
1.11794
1.11896
0.985874
1
1
0.898244
1.1087
1
1
1
1
1
1.11848
1.12075
1
1.11755
1.11939
1.11839
1
1
1
1
0.886224
1.1206
1
1
1.10872
1.11835
1
1.11228
1.12087
1
1
1
1
1
1.11861
1
1
1
1
1.11928
1
1.1161
0.887289
1
0.894248
1
1
1
0.999127
0.892229
0.999727
1
1
1
1.01864
1
1
0.958593
1
1
1
1
1
1
1
0.999999
0.981602
1
1
0.999309
1
0.893742
1
1
1
1
1.09095
1
1
1
1
0.891782
1
1
1.11224
1.12049
1
1
1
0.973602
1
1
1
1
1
1
0.982894
1.00522
1.11864
1
1
1
1.11765
0.969896
1
1
1
1.11923
1.11907
1
1
1
1
1
1
1
1
1
0.885039
1
1
1.11948
0.893784
1
1.11929
1
0.895043
1
1
0.886043
1
1
1
1
1
1
1
1.11666
1.11847
1
1
1
1
1.10908
1
1.04123
0.89288
1
1
1
1
1
1
1
1.00984
1
1
1.06792
1
1
1
1.09927
1
1
1
1
0.887628
1
1
0.88044
0.888765
1
1
1.11886
1
1.0078
1
1
1
1.08516
0.888012
1
0.888204
1
0.940953
1
1
1
1.11939
1
1
1.11864
1
1
1
1.11857
1
1
1.11827
1
1
0.892161
1
1.04107
1
1
1.12129
1.1212
1.08151
1.10702
1
0.891139
1
1
1.11383
1
0.887887
1
1
1
1.11869
1
1
1
1
1.07503
1
1.11158
1.11935
0.882916
1
1
0.891283
0.890952
1
1
1
1.08733
1.09204
1
1
1
1
1
1
1
1.05439
1.11957
0.99955
1
1.11732
0.884542
1
1
1
1.06893
1
1.02572
1
1.10926
1.11821
1
0.8954
1
1.12033
1
1
1.11849
1.1119
1
1.12116
1
0.895667
1
1
1
1.11947
1.11658
1.10555
1
1.11969
1.11835
1
1.1188
1
1.11825
1
0.887567
0.997237
0.881033
1
1
1
1
1
1.11845
1
1.11822
1
1
1
1.11339
1
0.900908
1.11867
1
0.890576
0.902658
0.897157
1
1.0601
1.01306
1.11911
1.11854
1
1
1
1
1.11844
1
1
1.11861
1.11828
1
1.04543
1.00007
1
0.999032
1.12114
0.955041
1
0.944675
0.900046
0.898552
0.993497
1.11862
1.11717
1.02819
1.11859
1.1184
1
1
1.11946
1.12007
1.11862
1.12105
1
1.1187
0.895367
1.11853
1.11955
1.11912
1.11785
0.963799
0.967521
0.978971
1.11882
0.989076
1.11913
1
1
1.11918
1.11858
1
0.892039
1.11918
1.11842
1
1.1185
1.11873
1
1.11846
0.891091
1.11846
1.11919
1.12062
1.11877
1
1
1
1.11858
1.07916
0.896257
1.11843
0.878928
1.11879
1
1
1
1
1.11833
1.11853
1
1
1.11853
0.879036
1.11867
0.896608
1
1.11787
1
0.880745
1.11909
0.918197
1
1.11862
1.11922
1.11869
1
1
1.06263
1.11902
0.893495
1.11852
1
1.1186
0.959216
1.11843
0.885145
1
1.11969
0.908603
1.11916
0.894683
1
1.11873
1
1.11987
1
1.07207
1.11468
1.09542
0.88856
1
1.11877
1
1.11869
1
1.1187
1
1
1.1188
0.997154
1.11906
0.885848
1.11248
1
1.08641
1
1.11937
1.11866
1.11941
1
1.10742
1.11855
1.11051
1.07597
1.11948
1
1.08097
1
1.11896
1
1.02168
1
1.11056
1
1.11866
1.11357
1.11351
1
1.11812
0.88921
1
0.887728
1
1
1
1.12048
1
1.11881
1
1
1
1.11874
1.11429
1.09842
1.11879
1.11814
0.89443
1.12085
1.12208
1
1.10406
1.11861
1.11243
1
1.12041
1.1203
1
1.12037
1.11837
1.11897
1.11904
1
1
1
1.1187
0.888718
1
1.11859
1
1
0.893009
1
1
1.11859
1.11859
1
1.11859
1.11833
1.11861
0.996989
1.11885
1
1.11868
1.11845
1.09706
1
1
1
1.11817
1.11877
1.11851
0.989097
1
1.12036
1.11857
1.11834
1
1.11845
1.11888
1.11838
1.12071
1
1.11867
1.11876
1.10519
1.11964
1.12037
1
1.11852
1.11746
1.11843
1.11874
1.11883
0.889962
1.11843
1.11974
1
1.11856
1.1184
1.11858
1.11876
1
1.11854
1.11851
1
1.1183
1.10073
1
1
1
1.1183
1.12072
1
1
1.06878
1
1.11858
1
1
1.11842
1.11887
1.11846
1.11833
1
1
1
1.08741
1
1.11865
1
1
1.1205
1.1192
1
1.11862
0.880616
1.11841
1.11868
0.915153
1
0.888994
1.10544
1.1175
1.11878
1.11881
0.887802
1.11868
1.11841
0.888814
0.880081
1
1.11825
1.11853
1
1
1.11863
1
1.11942
1
1.10533
1
1.05957
1.11816
1.11927
1.08787
1.10657
1.12158
1.1189
1.11221
1
0.884913
1.11804
1.11854
1.12003
1
1
1
1.12067
1
1.11822
1.11877
0.932382
1
1.11866
0.999982
1
1.00001
1.00001
1.11866
1.11852
0.999563
1
1
1.1187
1.11901
1.11857
1.11809
1.1192
0.896472
1.1026
1
1.11785
1.11851
1.11805
1.11712
1
1.11858
1.11573
1.11884
1
1.11873
1.11888
0.959688
1.11854
1.11854
1
1.11842
0.9555
1.1186
0.959238
1.11855
1
1.1186
1.12266
1.11866
1.11867
1.11858
1.1191
1.11871
1.11889
1
0.981718
1.11863
1.11854
0.955997
1.11856
0.991869
1.0754
1.11884
1.11879
1.11781
1
1.11908
1.08162
1.11808
0.978806
1.11901
1.11932
1
0.961237
1
1.12021
1
1.08494
1
1.1118
0.962733
1
1.11909
1.11661
1
1.1189
1.11916
1.11572
1.11622
1.11868
1
1.12073
1
1
1
0.970691
1.11841
1.11869
1.11979
1.11861
1.11954
1.12031
1.11748
1.1188
0.970567
1.00834
1
1
1.12262
1.11873
1.11862
1.11857
1.00001
1.06379
1
1.12022
1.10508
1
1
0.917504
1.11842
1
1
0.891843
1.11852
1
1.12112
1.11867
1.12195
1.11445
1.11859
1
0.890103
1.03121
1.11878
1.11859
1
1.11848
1.11851
1.06032
1.00316
1.02804
1
1.12006
1.11869
1
1
0.888616
1
1
1.11864
1.11866
1.11906
1.11857
1.11844
1.11905
1.11859
1.11888
1.11867
1
0.998946
1.1185
1.1187
0.999156
1.11854
1.11845
0.890709
0.883377
1.11817
1.11906
1
1
1.00049
1.1186
1.11906
1.11855
1
1.11859
1
0.957536
1.12026
1.11795
1
1.05674
1.11877
1
1.11981
1
1.11875
1.08212
1.11906
1
1.11801
1.12016
0.888905
1.11865
1
1.11837
1.11929
1
0.89091
1.11766
1.1006
0.999327
1.11879
1.11839
1
1.00115
1.11929
0.999331
1.11863
1
1
1.11868
1
1.11792
1.11843
0.998963
1.09737
1
1.11839
1
1
1
1
1.11856
1
1
1.11947
1
1.11847
1
1.0795
1.12001
1.11855
1
1
1.00275
1
1.11836
1.11868
1.11837
1.11853
1.11853
1.11849
1.11863
1
1.11878
1.11874
1
1.11859
1.11871
1
1.11893
0.979702
1.01654
1.11866
1.11849
1.11845
1
1.11856
1
1.11843
1.11858
1
1.11857
1
1
1
1
1.11857
0.890693
0.999379
1
1.11861
1.11839
1
1.11848
1
1.00142
0.891296
1.11856
0.999892
1
1.11829
0.999537
1.11854
1
0.999934
1
1.11845
1.11794
1.11831
1.11951
0.891452
1.11808
1.11807
1.11857
1.03133
1
1
1.05451
1.11848
0.88978
0.891056
1
1.11842
1.11818
1.11826
1
1
1.11838
1.11853
0.999968
1
1.08763
0.881252
1
1.02287
1.12071
1.11773
0.999495
1.11856
1.12071
1
0.999728
1
1.11898
1.12098
1.05066
1
1.11479
1
1.00052
1.11881
0.8752
1.11866
1.11843
0.999122
0.999975
1.10451
1
0.999911
1
1.11882
1
1
0.885814
1.11856
1
1
1
1
1.11862
1.07036
1
1
0.887161
1.11854
1.07052
1
1
1
1.11348
1.11482
1.11974
1
1
1.11906
1
1.11848
1.11882
1
1
1.11887
1.11835
1.11412
1
1
1.11897
1.11909
1
1
1
1.1188
1
1
1
1.11907
1.12029
1.11949
1
1.11844
1.00001
0.907766
1.11873
1.11879
1
1.11978
1.11348
1.1197
1
1
1.11909
1
1.06636
1.11871
1
0.890341
1
1.11898
1
1
1.11885
1
1
1
1.03917
1.11836
0.896596
1
1.11893
1
1
1.11851
1
1.11912
1
1
1.11871
1.11865
1
1.00001
1
1
1
1
1
1
1.11941
1.11848
1
1.12098
0.893558
1.11855
1
1.11859
1.11883
1.1186
1.11915
1.1216
1
1
1.11891
1
1.07854
1.11983
1.11834
1
1.1197
1.1169
1
1.10738
1
1.11855
1.08069
1.11829
0.999274
1.11485
1.11013
1.1192
1.11886
1.01054
1.11862
1.11967
1
1.11854
1
1.11861
1
1
1
1
0.999053
1.11857
1.11834
1.10022
1
1.11937
1
1
1
0.88504
1
1.11631
1
1.10882
1.11596
1
1
1
1.11291
1.12072
1
1
1.11856
0.886037
1.02409
1
1.11942
1.11871
1.10897
1.11643
1.11834
1
1.11802
1
1
1
1
1.11809
1.11829
1
1.11696
1.01577
1.11858
1.11128
1
1
1.11157
1
1
0.897738
1.0847
1
1
1.12059
1
1.11966
1.1092
1
1.10856
0.887646
1.11856
1.11863
1.11879
1
0.899944
1
1
1
1.11808
1.09865
1
1.12018
1.11852
1
1.11849
1
1
1
1
1.11836
0.999805
1
1.11889
1
1
1.11932
1.1186
1
1.11994
1.0246
1.00001
1
1.11839
1
1.11837
1
1.0035
1.1188
1
1.11855
1
1
1.04154
1.11889
1
1
1
1
1
0.999066
0.885437
0.890363
1.00574
1
1.0083
1
1.00829
1
1.11886
1
1.07892
1
1.11856
1
1
1
1.11851
1
1.09467
1.11809
1
1.0664
1.11888
1
1
1.1205
1.11863
1
1
1.01518
0.88887
1
1.11841
1
1
1
1
1.02187
1.11814
1
1
1
0.891516
1
1.1187
1.11884
1.1214
1
1
1
1
1.06247
1.12102
1
1
1
1.11834
1.11852
1.01395
1
1
1
1.11879
1.11848
1
0.89016
1.11912
1.11852
1.11889
1.11798
1.1192
1
1
1.11905
1.11941
1.11838
0.891631
1.01175
1.1187
1
1
1
1
1
1.11852
0.890099
1
1
1.11843
1.05562
1
1.11937
1
1
1
0.888741
1
1
1.03415
1.11894
1.11857
1
1.12053
1.11967
1
1.02379
1
1.11817
1
1.11847
0.886056
1
1
1
1
1.11847
1.00002
1
1
1
1.11352
1
1
1
1
1.11845
0.888806
1.09392
1.11873
1
1.11872
1
1
1
0.999184
1
1.1184
1
0.947207
1
1
1.00001
1.11874
0.888415
1
1.11899
1
1.11903
1.11864
0.885778
1
1
1.11679
1
1
0.895866
1
1.11774
1
1.11383
0.999808
1.11843
1
1
1
1
1.12006
1
1
1.11853
1
1
1
1
1
1
1
1
1.08017
1
1.04051
1.11834
1
1
1
0.88637
1
1
1
1
1.11821
1.11845
1.01497
1
1
1.11889
1
1
1.119
1
1
1
1
1
1
1.11815
0.939801
1.11849
1.11892
0.999115
1
1
1
1.07327
1
1
1.11882
1.11857
1
1
1
1
0.882358
1
1
1
1.07638
1
1.11859
1.1197
1
1.11895
1
1
1
1.06833
1
1.12035
1
1.11851
1
1
0.998936
1.11849
1
1
1
1
1
1.11913
1.00001
1
0.898244
1.11828
0.902895
1
1.11849
1
0.998749
1
1.11914
1.11842
1
1.12054
0.968556
1.11855
1.1184
1.00001
1
1
0.893136
1
1
1
1.1186
1.07302
1.11894
1
1
1
1
0.999126
1.11849
1
0.888497
1
1
1
1
1
1
1
1.12052
1.11918
1.11937
1
1
0.999145
1
0.995219
1
1
1
0.884945
0.995689
1
0.892135
0.888919
1
1.11872
1.11857
1
1.1181
1.11846
0.891607
1.08168
1
1
1
0.889561
1.11842
1
0.888686
1
1.12022
1.02399
1
1
1
1
1.11854
1.11952
1
1
1.1186
1
1
1.12059
1.11854
1
1.11001
1.11856
1.12005
0.989768
1.11834
1.00246
0.887769
1.09349
1.11875
1
1
1
0.884881
1
0.886494
1.11822
0.988512
1.11857
0.987201
1
1.11835
1.05685
1
1
1.1182
1
1.05341
1.11859
1
1
1.11885
1.12099
0.886631
1.07704
0.999969
1
1.07501
1
1.12003
0.983885
1.12142
1.11994
1
1
1
1
1.12009
1
1
1.1192
0.999893
1.11852
1.09941
1.11821
0.894714
1
1
1
1
1.11849
1.00001
1.11861
1
1.11839
1.11906
1.016
1.11997
1.04095
1.11871
1
1.08441
0.904676
1.11987
1.11858
1.09554
1.0241
1.11923
1.11847
1.11852
1.11813
1
0.976679
1.01898
1
1.11861
1.05946
1.11837
1.00001
1
1
0.895408
1.11898
1.11899
1.09755
1
1.04907
1
1.1199
1.11933
1
1.11834
1.11887
1
1
1
1.11831
1
1.04907
1.11937
1.08397
1
1.11822
1
1
1
1
1
1
1
1
1
1
0.892091
1
1.1128
0.888528
1.07299
0.999588
1.11937
1
1.06624
1
1.0795
1.10175
1
1.00051
1.11776
0.977148
1
1.11843
1.11746
0.984927
1
1.11862
1.11871
1.11948
1
1.11855
1.1182
1.11874
1
1.05608
1
1.00002
1.11844
1
1.11853
1.01916
1.11797
1
1
1.11907
1.11871
0.898578
1
1.11862
1.09132
1.1184
1
1
1.1194
1.11861
0.999503
1
1.107
0.999092
1.11876
1.00002
1
1
1
1
1.05615
1
1.09329
1.11895
1.09111
1.11885
1
1.00066
1
1
1.1204
1
1.11896
1
1
1
1
1
1
1.01537
1.06548
1
1
0.894327
1
1.11896
0.895902
1.11747
1
1.06598
0.999929
1.11892
1.07823
0.894339
1.0692
1.00001
1.11844
1.11826
1
1.07472
1.11781
1.11897
0.999547
1.12044
1.1157
0.891848
1
1
0.999403
1
1.11759
1
0.893391
1.11942
1
1
1.10472
1
1.11876
1
1.11855
1
0.906291
1
1
1.11831
1.12007
1.11934
1
1.11918
1.11863
1.1187
1
1
1.11673
1
0.921608
1
1
1
1.11874
1
1.11847
1.08004
1.11871
1
1.1185
0.999818
1
1
1
1
1
1
0.915031
1
1
1.11842
1
1.11795
1.11889
1
0.887655
0.89151
1
1.11898
1.02124
0.889705
0.883942
1
1.11859
1
1.11808
0.887197
1.00039
1
1
0.999863
1
1
1
0.999975
1.05307
1.11866
1
1
1.11902
1.07384
1
1.11144
1.11889
1.11917
1.05341
1.11899
1
1.11865
1
1.11869
1
1.12031
1.11815
0.999155
1.118
1.11782
1
1
1
1
1
0.981667
1.11944
1.00001
1.00001
0.882956
0.999994
0.888107
0.886128
1
1.11814
1.11869
1.11843
1
1.11829
1
0.893684
1
1
1.11857
0.952558
1.11888
1
1.11822
1
0.995219
1.11887
1
1
1
1.11864
1
1.11899
0.887029
1
1
1.07327
1
1
1.06904
1
1
1.11858
1
1
1
1
1
1.11971
1.11859
1
1.11913
1.11905
0.891756
1.05682
1.11902
1
1
1.10785
0.999699
1
1
1.11839
1.11818
1.08057
1
1.11811
0.88884
1.10853
0.999931
1
1.11892
1.00001
1.11873
1.09991
1.09377
1
1
1.11847
0.908082
0.886074
1
1.11872
1
1.11904
1
1.07401
1
1
1.1184
1.07931
0.892303
1
0.999539
1
1
1.00748
1.05298
1.11852
1
1.11747
1
1
1
1
1
1
1.01894
0.88815
1
1
1.01081
1
1
1
1
1
1.11895
1
1
1.11871
1.11867
1.09142
1
1
1
0.955991
1.11849
1.0858
1
1
1
1
1.11902
1
1
1
1.12032
1
1
1.0885
1.12374
1.0101
0.925634
1.11923
1.08602
1.11974
1
1.06286
1
1
1
0.888275
1.00078
0.881608
1
0.888105
0.883824
1
0.89153
1
1
1
1.05447
1
1.11845
1.11862
1.00022
1.06048
1.10223
0.880773
0.929833
0.968525
1
1.1185
1.11983
1.11851
1.11849
1.10359
0.96606
1
1.10395
1
1.11289
1
1
0.998966
1.00266
1
1
1
1.11904
1
0.8907
1
1.11881
0.902424
1
1
1.11848
1
1.11859
0.999908
1
1
1.11876
1.10689
1
1.12295
1
1
1.00444
1
1.05683
1
1
0.891564
1
1
1.11917
1
1.1183
1
1.00001
0.895818
1
1
0.899286
1.00031
1
1.11961
0.893374
1.12075
0.887606
1.11868
1
1
1
1
1
1
1
1
1
1
1
1.11408
1
1.11902
1.12014
0.888383
1
1
1
1
1
1
1.11567
1
1
0.893422
1
1
1.1197
1
1
1.04942
1.10062
0.889412
0.890003
0.907497
0.92456
1
0.999001
0.886397
1.00011
1.11212
0.999101
1
1
1.11856
1
1
1
0.930923
1
1.04591
1
1
1.0523
1.11861
1
0.893204
1
1
1
0.998992
1
1.11792
1.11847
1
0.894201
1
1.06856
0.895647
1
0.96803
1
0.99894
0.886867
1
1
1
0.998756
0.881138
1
0.888516
0.999537
1.0659
1.10734
0.887682
0.888324
1
0.997058
1
0.99961
1
1.11882
1.11854
1
1.00618
1.11844
1.11855
1
1
1.11852
1
1
1.00001
1
1.11919
1
1
1.00536
1
0.999595
0.904257
1
1
1
1
1
1.11914
1.00968
1.00002
1
1
1
1
1
1.00001
1
0.888693
1.0306
0.999617
1.12048
1.11653
1
1.00376
1.11853
1.10233
1
1
0.886107
1.11847
1
1.11984
1
1.11904
1.08297
0.890533
1
0.89604
1.10938
0.999908
1
0.888199
0.887773
1
1
1.10113
1
1
0.884097
1
1
1
1.03898
1
0.888894
1.1182
1
1
1
1
1.11874
1
1
1.11768
1.1072
1
1
1
1.11825
0.887425
1
1.11886
1.11846
1
1.0965
1
1.00001
1
1
1.10905
1.00657
1
0.899886
1.06695
1
1
0.99911
1
1
1.11846
1
1
1.00001
1
1.11892
1
1
1
1
1
1
1
1.055
1
1.11819
1
1
1.11892
1
1
1
1.11862
1.11826
1.01313
1
0.999334
1
1
1
1
1.11968
1
1
1.11881
0.892244
1
1
1
1
1
1
1.09743
1
1
1.11851
1.11921
1
1
1
1.11885
1.11885
1
0.999922
1.11743
1
1
1
1
0.898844
1.0087
0.998964
0.998814
1
1
0.893577
1.11919
1
0.888668
1
1.118
1.11388
0.88917
0.999829
1.1185
1.11887
1.11889
1
1
0.979266
1.1074
1.10017
0.888964
1
1
1
1.11791
1.11855
0.889291
0.999227
1
1.11831
0.901084
1
1.11675
0.890756
0.992377
1.00193
1
1.11934
1
1
1
1
1
1
1.00003
1.11094
1
1
1.11911
1
1
1
1.11858
1
0.887153
1
1
1
1.04406
1
1
1
1
1
0.935433
1
0.902025
1
1.11854
1.00002
0.962421
0.963618
1
1.00119
1.06563
1
1
0.889813
1.11863
1.11849
1.11859
1
0.878445
0.891376
1
1.11858
1
1
1
1
1
1.00001
1
0.891041
1.07931
1
1
0.887052
1.00009
1
1
1
1
0.888702
1
0.90496
1
1
1.1193
1
1
0.886384
1
1.11851
1
0.879454
1
0.890299
1
1.00235
1.11826
1.12278
1
1
1.11999
1
1
1.03054
0.999073
1
0.999499
1
1.11928
1
0.886356
1
1.12127
0.999737
1
1
0.938552
1
0.999736
0.884063
1.11879
1.04724
1
1
0.972895
1
1
1
0.938694
1
1
1
1.1185
1
0.891529
1
1
1
1
0.892155
1.1187
1.11038
0.88584
1
1.12062
1
1
1.11861
1.11966
1.10094
0.889107
0.999371
0.999786
1
1.11855
1
1
1
1
1.11879
1.00001
1
1
1.11904
1
1
1.1185
0.895423
1
1
1
0.895559
1
1
1
0.999608
1
1
1
1
1.09743
1
1.12013
1.11932
1.12118
1.11846
1.1186
1.11853
1
1.11824
1
1.11837
1.11857
1
0.999671
0.895274
1.10308
0.999968
1
1
1
1
1.00242
1
1.02124
1
1
1
0.957342
1.1185
1.11894
1.11959
1.10713
0.999965
1
1.00659
1.11841
0.999397
1.01665
0.999257
0.896056
1
1.00001
1
1
1
1
1
1.11875
0.88721
1.11871
1.1185
0.998624
0.888432
1
1
1
1.11835
0.894044
1.10612
0.890948
1.1184
1.11976
0.890718
1.11864
1.0066
1
1.11886
0.941141
1
0.999645
0.893875
1
0.898856
1
1.1185
1.11865
0.925628
1
1.11957
0.895792
1
0.890636
1
1.11878
1
1
1.11477
1
0.94977
1
0.999902
0.898706
1.11547
0.999857
1
0.892799
1
1
1
1
1.06927
1
1.11852
1
1
1.12235
1
1
1.11867
1
0.898146
1
0.888722
1
1
1
1
1
1.11384
1.07247
1.11856
1
1.11842
1.11065
0.885991
0.893466
1
1
1.1184
1
0.897611
1
0.999198
1
1
1.11884
1
1.11931
0.889902
1.12086
1
0.89001
1
1
1.11913
1.1182
1
1.00001
1
1.11452
1
1
0.88634
0.999828
0.896136
1
1
1
1.11889
1.11928
1.11957
1
1
0.888583
1
1.11894
1
1
1
1.11332
1.11849
1.11872
0.894098
1.11887
1.11853
0.884743
1.11947
1.00001
0.886387
1.00562
1
1
1.11866
0.893558
1.0773
0.890656
1.11854
0.999239
0.880827
1.11914
1
1
1
1
1.11843
1.11968
0.890483
1
1.00001
0.892134
1.00001
1
0.891189
0.889631
1.08553
1.11873
0.999547
1.11856
1
1.11981
0.943673
0.888667
1.11849
1.12291
1
1.11851
1
1
1.11859
1
1.09281
1.11967
1
1
1
1
1.11869
1.11735
1.11944
1
1
1.11873
1.1195
1.1187
1
1.11861
1
1
1
1
1
0.890097
0.952167
0.888788
1
1
1.11841
1
1
1.11891
0.886588
1
1.11842
1.11738
1.11334
0.88759
1
0.892358
1
1.00001
1.11923
1.05995
1.12001
1.10958
1
0.888093
1
1.11795
1.0877
0.888518
1
1
1
0.936632
1
1
1.12038
1
0.892465
1.11855
1
1
1
1
1
1.097
1.02874
1
1.11923
1
1.11808
1
0.99925
1
1.11897
1.11868
1.11879
1.11982
0.999883
1.11995
1
1.11866
1.11884
1.10164
1
1
0.886743
1.11908
1
1
1.11765
1.1185
1.11869
1
1.11875
1
1
1.00001
1.11905
1.11917
1.0348
1.0281
1.11873
1.11834
0.90411
1
1
1
1
1
1.04429
1
1
1.10159
0.895496
0.999988
1
1.11853
0.999969
0.999953
1.01927
1.11039
1.11953
0.974655
1
0.897096
1
1.00203
1.11865
1.11942
1.11593
0.999728
1
1
0.891305
1
1
1.11865
1.01391
1
1
1
1
1
1
1
0.999982
1.11965
1
1
1
1
1
1.08175
1
1.05792
1
1
1.11854
1.11986
0.892017
0.999658
1
1
1
0.891039
1.11979
1.11862
1
1
1
1
1
1
1
1
1.11861
1.11978
0.886255
1.01398
0.893533
1
0.894452
1
1.11855
1.03568
1
1
0.912402
1
1.11363
0.940121
0.998962
0.886645
1
1
1.11962
1.00001
0.999135
0.888687
1.1203
1.12074
1
1
1
1
1.11128
1
1
1.11844
0.999697
1.11929
1.00001
1
1
0.892926
1
1
1.11843
0.889371
0.929303
0.895534
1.1185
0.999803
1
1.11896
0.886873
0.887235
1.00471
1
1
1.1196
1.00001
1.05702
1
1
1.11963
0.891334
1
1
1.00004
1.11947
1.00004
1.12029
1
1.00001
1
1
0.917544
1
0.936633
1
1
1.11941
0.89293
1
0.93035
0.945301
1
1
1.11892
1
1
1
1.11878
1.11865
1.00001
1.1156
1.12002
0.930849
1.11844
1.11437
1
1
1.12006
1
1
1
1
1
1.1208
1.11868
1
1
1
1.11903
1.00006
1
0.889429
0.915608
1
1.00001
1.04836
1
1
0.972699
0.885879
1
1
1
1.1198
1.10997
1.11846
1
1
1
1
0.900596
1
1.11802
1
1.11589
0.895465
1.12056
1
1
1
0.888988
1
1.11945
1.00001
1
0.888021
1.04772
1
0.999906
1.11933
0.882978
0.888349
1
1.11982
0.881617
0.888763
1
0.893536
1
1
1
1
0.890308
1
1
1
1
1.11975
1
1.09333
0.89451
1
1
1
0.89284
1.11864
1
1
0.999112
1.11639
1
1.11871
1.11935
1
1
0.914376
0.887316
1
1
0.88959
1.0404
1.05692
1
1
1.11956
0.999259
1
0.99938
1.11992
1
1
1
1
1
1
1.11863
1
1.04546
1.0409
0.903795
1.10566
1
1.1184
1.11874
1
1
1
0.976459
0.902636
1
1.0661
0.999904
1.10622
1
1
1
1
1
1.00213
1.05705
1.11886
1.11889
1
1.11854
1
0.888978
1
0.9992
0.999933
1
0.894122
1
0.898836
1.00001
1.11926
1.12001
0.894112
1.11996
0.888774
0.998912
1.09426
0.893232
1.08521
1
1
0.999557
1
1
1
1.00002
1
0.895657
1
1
1
1
0.999886
1.11879
0.939848
1
1
1
1.01019
1
1
1
1.07045
0.922363
1
1
1
1.01645
1.11939
1
0.88887
1
1.11891
0.970274
0.887149
1
0.88771
1
1
1.11305
0.999494
1.11089
1
1.00253
1
1
1.11863
1
1
1
1
1.02637
1
1.11857
1.1189
1.11903
0.89441
1.11844
0.999174
1.09819
1
1
0.891505
1
1
0.890329
1.11846
1
1
0.999988
1
1
1
0.890081
0.893645
1
1.12006
1
1.05955
1.11862
0.891297
1.10012
1
1
0.897029
1
1
1.11865
1.11841
1.04837
1
1
1.0005
1.11936
0.894526
0.893662
1.12017
1.11863
1.08305
1.04986
1
0.970263
1
1
1
1.11247
1.11861
1.11788
1
1
1.11934
0.889504
1.10516
0.885295
1
0.898657
1
0.893218
1.1185
0.884536
1
0.998259
0.894393
1
1
1
0.953331
1.10911
1.11865
1.11911
1.11933
1
1
1.11995
1
1
1.11905
1
0.888414
1
0.890395
1
1.11993
1
1
1.00916
1.09378
1
0.999714
0.887117
1.1186
1
0.888317
1.02505
1
1
1.09342
1.11882
1.1187
1
1.11807
1.03447
1
1.00674
1.11855
1
1
1
1
1.11851
1
0.894928
1.11842
0.889447
0.891115
0.949692
1.11822
1.04446
1.11884
1
1.11978
0.9993
1.00001
1.1185
1.12036
1
1.11906
1
1.11808
1
1.11977
1
1.00001
0.999996
1.11916
0.889598
0.898969
0.999404
1
1
1
0.890577
1
1.08044
1
0.891572
1
1.04935
1.11874
1.12021
1
1
1.00001
0.99984
1
1.11954
1.11854
1
1.05359
1.11813
0.957903
1.11855
1.00024
0.886988
1.02753
0.888247
1
1
1.02202
1.12019
1
1
1.012
0.999586
1
0.890351
1
0.932009
1
1.11864
1
1
0.89168
1.03161
1.02114
0.99957
1.1183
1.11846
0.936878
0.999443
0.894849
0.889839
0.891024
1
1
1
0.999722
0.91685
0.890098
1
1.11855
0.999927
1.11856
1.11901
1.12025
1.11841
1
0.892642
1.11858
0.885165
1
1.11853
1.12005
0.999025
0.942241
1.11839
1.08804
1
0.893523
1
1
1.12122
1
1.00775
1.11919
1
0.891692
0.890219
1
1
0.881432
0.880624
1.11876
1.00001
1
0.887649
0.88182
1.12026
1.11276
1.1114
1.11943
1.03472
0.997032
1.05214
1.11764
1.09804
1
1.06311
1
0.88482
0.961159
1
0.88816
1.11862
1.00662
1.1188
1
1.1184
1.11914
1
1.11866
1.11849
0.891294
1.11971
1
1.11971
1
0.924841
0.891115
1.11847
1
1
1
0.893392
1.11864
1.11883
1
0.895576
1
1
0.892049
1.00001
0.890705
1.11976
1
0.947636
0.880245
1
1
1.07104
1
1
1
1.02247
0.893602
1
1
1
1.11809
0.889797
1
1.1186
0.890616
0.888836
1
1
1.11908
1
1.11883
1
1.11871
0.896235
1
1
0.887299
0.942665
0.890561
1
1
1
1
1.11768
0.89144
1
0.891378
1
1.11952
1
1
0.980755
1
1
0.948903
0.999913
1.00001
1
0.88939
0.895985
1
1
1
1
0.940377
1.11821
1.11941
1
0.884178
0.887505
0.974615
0.895529
1
0.949093
1
0.889467
0.997608
1
1
0.890796
1
1.11856
1.11572
0.89311
1
1
1
1.11967
1
1.01303
0.953524
1.03994
0.89451
1.05271
0.894292
1
1
0.914275
0.978421
1
1.0112
1
1
0.889413
1
0.984183
1.01316
0.890769
1
1.09662
0.925278
0.96454
1
1
1
0.892283
1
0.892679
0.891318
1
0.959233
0.887228
1.0214
0.924314
0.883794
1.11846
1
1.11857
1.06921
0.911917
1.11856
0.887472
0.999733
1.11955
1
1
1.11832
1
0.906914
1
1.02237
1
1
1.11849
1
0.92738
0.938859
1.12044
0.984826
1
0.929263
1.11857
1.11961
0.97669
1
1.11855
1.03451
0.951676
1
1.00641
1
0.894386
1.05318
0.926421
0.918272
1
1
0.898491
1.11843
0.991017
0.891445
0.888674
0.960575
1
1.00451
1.11951
1.11888
1
1
1
0.893806
1.05798
1
1.1184
1.10769
0.887515
1.00001
1.02863
0.964179
1.07792
1.10167
1
1.01307
1
1.00002
0.885096
0.947624
1
1
0.941024
0.888048
1.01219
1
1
0.885106
1.05634
1
1.11658
1
1.01192
1.0703
1
1.11699
1
1
1.11789
1
0.881304
1.11929
0.907672
1.03572
1
0.890663
0.999976
1
1.00001
1
0.934273
1.00768
0.889232
1.09016
1.11989
0.886962
1
1
1
1
1
0.99045
0.887471
1.01629
0.88951
0.884637
1.02364
1
0.999944
1.03187
1
1
0.888098
0.999605
1
1
1.03589
1
1.11967
1
1.11941
1.02748
1.00641
0.894003
1
1
0.889799
1
1
1
1
1.11885
1.01216
0.999451
1
0.881783
1.01484
1
1
1.07956
1
0.888029
1.1189
1
1
1
1.11834
0.88765
0.96399
0.887751
1.09242
1.11915
1
1
1.11876
1
0.880975
1
1
1
1
1
0.925424
1
1.11793
1
1
1.04567
1.11958
0.891027
0.959823
1
1.11867
1
1
1
1
1
1.11868
1.1197
0.880291
1.11858
0.882559
1
1
1.11845
1
1.12047
1.00314
1.00789
1.02151
1.11907
1.02038
1.08483
0.887014
1
0.886759
0.998721
1
1.11857
1
1
0.885082
1.12066
1
1.1197
1
1
1
1
1
1
0.884624
1.11925
0.954192
1.1185
1
0.893231
0.886588
0.908264
1.11923
1.11819
0.990784
1
0.936614
1
1.04966
1
1.11841
0.879898
0.890929
0.955159
1
1.11869
1
1.02286
0.895619
1
1.12018
1.10339
0.999681
1
1.11867
0.889711
1.11933
1.11874
1.11951
0.889933
1.02775
1
1
0.882742
1
0.93897
0.950952
1
1.00001
1.11857
1
1.12012
1.02583
1
1.01265
1.12059
1
0.887784
1
0.932791
1
1
1.09918
1
0.938942
1
0.897002
1.01017
0.984665
0.880193
1.11854
1.09803
1.11984
0.89087
0.901128
0.99877
1
1
0.902819
1.11254
0.890832
0.999989
1
1.11853
1.11939
0.974224
1
0.891163
0.907694
1.08268
0.993836
0.881795
1
0.88697
1.03187
0.890947
1
1.00002
0.948674
1.11944
1.11868
0.954371
0.999886
1
1
0.916435
1
0.885682
1
0.881836
0.889421
1
1
1.00001
0.89134
1.11858
1
1
1.00002
1.00001
0.894034
1.11852
1.11849
1
0.888788
1.1202
1
1.02838
1
1
1.11837
0.887584
1
1
0.893381
0.923553
0.889046
0.889645
1
0.908809
0.999196
1.02794
0.881479
1
1
1.03669
1
1.10596
1
1
1.08518
0.898251
1
0.889954
1.035
1.11855
1
1
0.897073
0.88816
0.885334
0.919704
0.88885
1.09158
0.999833
1
1
1
1
1.11897
0.890488
1
0.982616
0.999909
0.99976
0.999982
0.925693
1.03476
1
1.11852
1.11857
1
1
1.11471
1.00001
1
1.11865
0.893772
1.11692
1
0.880249
1.11857
1.00002
1
0.947245
1
0.887992
1
1.11925
1
1
1.11945
1
1
1.11985
1
1
1
1.12016
1
0.920781
0.91306
1
0.883474
1.11819
1
1
0.993176
1
1.1194
1.07248
1.09756
1
1
0.890576
1
0.89135
1.11842
1.11974
1.11834
1
1.11947
0.891993
1
0.888579
1.09767
1.11157
1.11825
1.11876
0.930776
0.889881
1
1.07973
1.11936
1.11938
1.11849
0.918568
1.04758
1
1.09295
0.923428
1
1
1
1.00001
0.969915
1
1.11892
1
1
1
1
1
1
1.00002
1.11821
1
1.11975
1.09118
0.895279
1.11975
1.01106
1.06274
1
1.11863
1
0.888066
1
1
1
1
1.10287
1
0.879211
1.11859
0.881526
1.11862
1.09712
1.06544
1
1.02476
1.05814
0.998614
0.893524
0.932077
1.00001
1
0.978974
1
0.886875
1.11926
0.885977
0.979721
0.959092
1
1
1
1.00406
1
1
0.896047
0.998636
1.11992
1
1.11843
1
0.890416
1
1
1.11836
1.11875
0.880946
1
1.1192
1
0.94274
0.885084
1.11909
1.10779
1
1.02197
1.11883
0.999617
1
1.05417
1.10524
1.1189
0.998838
1
0.999999
1.10245
1
1
1
1.11862
0.999566
1
1
1.11871
1
1
0.889205
1
1
1
1.11923
1
1
0.956746
1.03926
1.1094
0.928101
1
1.1187
1
1.0449
1
1.11925
0.999202
1.11856
1
0.889566
1
1.08491
1
1
1.1115
1
1.11869
1
1.12012
0.906402
0.892145
1.11909
1
1.10485
1
1.11944
1
1
1.00001
1.11928
1.11866
1.03307
1.11872
0.998652
0.89037
1.11876
0.960464
1
1.11942
1
1.11858
1
1.1191
1.1196
0.998898
0.889845
1
1.11847
1
1.01263
1
1
0.99942
0.924304
1.10712
1
1.10717
1
0.961325
0.888496
1.11881
1.11842
0.907487
1
1.1188
1.1196
1.11906
0.900262
1.11839
0.898508
1.11901
1.11887
1
1
1.11872
1
1
1
1
0.886471
1
1
1.11945
1.11832
1
1.11866
1
1.12008
1.1199
1
1.10044
1
0.883489
1.11867
1.09053
1.0374
0.881054
1.1186
1
1
0.891148
1
1
1.11835
1
1
0.934641
1
1.11866
1.00002
1.11875
0.885194
1.12016
1
1.11891
1.11448
0.971467
1
1.1186
0.926049
1.11838
1.0865
1.11878
1.11863
0.999228
1.11997
1.11869
1.11844
1.11879
1.00023
1
0.887841
1
1.11977
0.95636
1.10968
1
1.1166
1
1
1
1
1
1.11814
0.887579
0.893737
1.11925
1.11854
1
1
1
1
1
1.11785
1.10863
1.11876
1.00583
1
1
1
1.00001
1.11806
1.11853
1
1.11908
1.11956
0.891111
1.08555
1
1.11863
1.11975
1.11781
0.999405
1.11876
1.1185
1
1.11079
1
1
1
1
1
1
1.11855
1.12003
1.11115
1.11847
0.885976
0.908771
1.11858
1.11866
1
0.891771
0.983655
1
1.06013
0.881863
1
0.999845
0.999503
0.890537
1
1.11851
1
1
1
1.11924
0.985774
1
1.11853
1.11858
1
1.11879
1
1
1.11855
1
0.893656
1
1.11811
1
1
0.888743
1
1.11838
1
0.885352
0.886732
1
1.11972
1
0.885861
0.964818
1
1.11856
1
1
1
1.11976
1
0.891549
1.01877
1.11906
1.11894
1.11865
1.01374
1.11892
1.11854
1
1
1
1
1
1.11837
1
0.999802
1.11913
1
0.882597
1
1.11827
1.05795
1.01754
1.05785
1.01779
1.12015
0.902221
1.11846
1
0.888009
0.999167
1.11849
0.985593
1.11848
1.11857
1.11301
1
1.11923
1.11832
1.11853
1
1.00001
1
1
1.11916
1.08765
1
1
0.886768
0.99904
1
1.11846
1
1.11856
1.11848
1.11879
0.973286
1.11844
1.11888
1.00395
1.06184
1.11948
1.11874
1
1.11049
0.950669
1.11179
1.00003
1.11893
1
1.11848
1.11872
1
0.896351
0.984798
0.906822
1
1.02475
0.999111
1.11884
1
1
0.999121
1
1.06216
1.11187
1
1
1.1187
1
1
1.0882
1.11837
1.11419
1.11827
1.11845
1
1.11883
0.91654
1.11954
1
1.00112
0.8967
1
1
0.925475
1
1.04101
1
1.11894
1
1.11665
1.07796
0.890648
1
1
1
1
1
1.11902
1.00335
1
1.12023
1
1.11834
1.11864
1
1
0.990863
0.999957
0.88606
0.889481
0.913714
1.02554
1
0.99954
0.889911
1.00001
1
1.11849
0.982557
1.11109
1.10362
1
1
1
1
1
1.11852
1.11886
1
1.11838
1
1.11999
1.08262
0.998996
1
1
1
1.07225
1
0.989349
1
1.1182
1
1
1.1185
1
1
1
1
1
1.11869
0.881806
0.998782
1.10748
1.11856
1
1.11854
1
1
1
1
0.898781
1
1.11871
1.11861
1.11839
1.11999
0.985697
1
1.10212