/*--------------------------------*- C++ -*----------------------------------*\
  =========                 |
  \\      /  F ield         | OpenFOAM: The Open Source CFD Toolbox
   \\    /   O peration     | Website:  https://openfoam.org
    \\  /    A nd           | Version:  12
     \\/     M anipulation  |
\*---------------------------------------------------------------------------*/
FoamFile
{
    format      ascii;
    class       surfaceScalarField;
    location    "25.2";
    object      phi;
}
// * * * * * * * * * * * * * * * * * * * * * * * * * * * * * * * * * * * * * //

dimensions      [1 0 -1 0 0 0 0];

internalField   nonuniform List<scalar> 
19404
(
-0.000150977
-6.15117e-09
-0.000150601
5.98531e-07
-0.000149139
1.78724e-06
-0.000148383
1.43326e-06
-0.000148302
8.08782e-07
-0.000148585
1.61011e-07
-0.000149343
-4.00077e-07
-0.000150368
-7.95586e-07
-0.000150962
-1.22703e-06
-0.000150901
-1.29256e-06
-0.000150675
-5.7069e-07
-0.000150306
-1.64875e-07
-0.000150318
1.30996e-08
-0.000151826
3.75262e-07
-0.000152826
9.71591e-07
-0.000153165
1.11265e-06
-0.00015328
9.72472e-07
-0.000153282
8.31851e-07
-0.000152861
6.81297e-07
-0.000150692
4.67201e-07
-0.000149773
3.24153e-07
-0.00014946
-7.70569e-08
-0.000149263
-9.589e-08
-0.000149171
-6.27593e-08
-0.000149263
-2.26648e-08
-0.000150668
1.4891e-07
-0.000153038
4.96263e-07
-0.000154328
5.86494e-07
-0.000154955
5.41089e-07
-0.000155409
4.02962e-07
-0.000155683
1.7632e-07
-0.000155723
-6.54892e-08
-0.000155502
-3.05064e-07
-0.000153724
-3.3073e-07
-0.000152464
-2.38282e-07
-0.000151848
-2.19366e-07
-0.000151586
-1.55043e-07
-0.00015157
-1.09974e-07
-0.000152931
-1.69015e-07
-0.000157775
-2.39349e-08
-0.000160922
-2.22233e-08
-0.00016207
-5.82978e-08
-0.000162466
-1.54387e-07
-0.000162595
-1.8803e-07
-0.000162557
-2.96163e-07
-0.000160699
-3.28293e-07
-0.000155917
-1.70335e-07
-0.000154026
-1.06606e-08
-0.000153651
5.37067e-08
-0.000153619
6.83628e-09
-0.000154148
-8.78427e-08
-0.000158818
6.84253e-09
-0.00016505
1.88686e-07
-0.000167598
3.09235e-07
-0.000168281
3.66349e-07
-0.000168441
3.95426e-07
-0.000168467
4.74839e-07
-0.000167244
5.53272e-07
-0.000160444
7.99618e-07
-0.000154605
7.56301e-07
-0.000153243
5.54781e-07
-0.000153227
2.46017e-07
-0.000153357
-1.83664e-08
-0.000156109
-1.86602e-07
-0.000165081
-1.63379e-07
-0.000171052
-3.12565e-08
-0.000172686
8.27959e-08
-0.00017308
1.8774e-07
-0.000173175
2.42995e-07
-0.000172617
3.07939e-07
-0.000166726
3.35902e-07
-0.000157328
1.15987e-07
-0.00015325
-1.98844e-07
-0.000152664
-4.14892e-07
-0.00015275
-7.64082e-07
-0.000154986
-9.58058e-07
-0.000164162
-5.48091e-07
-0.00017152
-1.75784e-07
-0.000174094
1.2592e-07
-0.000174853
4.70512e-07
-0.000175064
6.2982e-07
-0.00017495
6.18857e-07
-0.000169585
3.96996e-07
-0.00015678
-2.59375e-07
-0.000149954
-4.59504e-07
-0.000148952
-7.46881e-07
-0.000149086
-1.06134e-06
-0.000155551
-1.23344e-06
-0.000169565
-8.1076e-07
-0.000176687
-1.03286e-07
-0.000178555
1.09139e-06
-0.000178929
1.53819e-06
-0.000178475
1.0806e-06
-0.000169004
4.27753e-07
-0.000152546
-4.84757e-07
-0.000137595
-1.16388e-07
-0.000121286
-9.22972e-06
-0.000116784
-5.43853e-05
3.07114e-05
-0.000148882
3.86431e-07
-0.00014871
2.26864e-06
-0.000149049
2.55281e-06
-0.000150202
1.62788e-06
-0.000151138
6.34607e-07
-0.000151592
-1.72366e-07
-0.000151766
-7.67039e-07
-0.000151726
-1.25457e-06
-0.000151576
-1.56703e-06
-0.000150746
-1.36553e-06
-0.0001498
-4.79447e-07
-0.000149366
1.32367e-07
-0.000149406
6.04495e-07
-0.000151086
1.2215e-06
-0.000153134
1.84495e-06
-0.000153919
1.90815e-06
-0.000154041
1.57274e-06
-0.000153966
1.29322e-06
-0.000153721
1.03673e-06
-0.000152339
8.35637e-07
-0.000150891
2.8546e-07
-0.000150112
-1.724e-07
-0.00014967
-1.30168e-07
-0.000149433
2.70405e-09
-0.000149375
1.07599e-07
-0.000150663
3.32948e-07
-0.000153516
8.26472e-07
-0.000155255
1.12659e-06
-0.000156131
1.09844e-06
-0.000156535
7.17583e-07
-0.000156624
3.22362e-07
-0.00015656
-3.79899e-08
-0.000155962
-3.99775e-07
-0.000153656
-4.76708e-07
-0.000152271
-3.65514e-07
-0.000151643
-2.78065e-07
-0.000151419
-1.8565e-07
-0.000151391
-1.79352e-07
-0.000152993
-2.13827e-07
-0.000158215
-1.20448e-07
-0.000161449
-1.20384e-07
-0.000162517
-1.64274e-07
-0.000162862
-2.52699e-07
-0.000162936
-3.02074e-07
-0.000162879
-4.16844e-07
-0.000160735
-4.26064e-07
-0.000155807
-1.22872e-07
-0.000153821
1.44042e-07
-0.00015342
1.99325e-07
-0.000153376
1.25138e-07
-0.000153776
-4.34066e-08
-0.000158317
-3.06873e-08
-0.000164509
2.88673e-07
-0.000167008
5.92477e-07
-0.00016768
7.83812e-07
-0.000167837
9.23165e-07
-0.000167757
1.11767e-06
-0.000166733
1.26806e-06
-0.000160747
1.46471e-06
-0.000154957
1.29603e-06
-0.000153365
8.73769e-07
-0.000153244
4.41161e-07
-0.000153311
4.75048e-08
-0.000155335
-3.5939e-07
-0.000163497
-4.46832e-07
-0.000169567
6.67727e-08
-0.000171477
5.03598e-07
-0.00017199
7.08766e-07
-0.000172124
7.9354e-07
-0.00017194
8.07766e-07
-0.000167318
7.74747e-07
-0.000158124
3.42372e-07
-0.000153602
-2.50537e-07
-0.000152577
-6.9234e-07
-0.000152639
-1.04699e-06
-0.000153692
-1.4794e-06
-0.000161357
-1.38525e-06
-0.000169474
-3.34247e-07
-0.000172857
4.11168e-07
-0.000173931
6.74799e-07
-0.000174313
7.73534e-07
-0.000174397
6.6797e-07
-0.000170159
5.4005e-07
-0.000157513
-1.1653e-07
-0.000149634
-8.78172e-07
-0.00014748
-1.70386e-06
-0.000147412
-2.12716e-06
-0.000149912
-2.6689e-06
-0.000160607
-2.27814e-06
-0.000169267
-5.60223e-07
-0.000172552
7.89174e-07
-0.000173164
8.17874e-07
-0.00017271
1.23405e-07
-0.000163683
-1.5516e-06
-0.000147359
-3.82464e-06
-0.000129597
-4.82414e-06
-0.000111805
-1.84651e-05
-0.00014348
-6.6969e-05
3.73636e-05
-0.00014513
8.19943e-07
-0.000147358
1.98693e-06
-0.000150515
2.04124e-06
-0.000152749
7.82939e-07
-0.000153445
6.74478e-08
-0.00015348
-5.52394e-07
-0.000153329
-1.01669e-06
-0.00015288
-1.16945e-06
-0.000150618
-1.0718e-06
-0.000147737
2.62876e-08
-0.00014653
7.79633e-07
-0.000146253
1.10282e-06
-0.000146538
1.31244e-06
-0.000149278
1.60945e-06
-0.000152436
1.79855e-06
-0.000153598
1.87927e-06
-0.00015386
1.58122e-06
-0.000153815
1.29334e-06
-0.00015372
9.99964e-07
-0.000153303
7.82243e-07
-0.000151362
3.23781e-07
-0.000149611
-3.87372e-08
-0.000148621
1.43579e-07
-0.000148156
3.80716e-07
-0.000148055
5.29684e-07
-0.000148938
5.98084e-07
-0.000152624
9.88246e-07
-0.00015549
1.39491e-06
-0.000156598
1.22188e-06
-0.000156807
8.49689e-07
-0.000156769
4.72806e-07
-0.000156707
1.09632e-07
-0.000155446
-2.53451e-07
-0.00015208
-2.86044e-07
-0.000150449
-9.81037e-08
-0.000150016
-8.97078e-08
-0.000149922
-1.74679e-07
-0.000150013
-2.87213e-07
-0.000152186
-3.59455e-07
-0.000157827
-3.22646e-07
-0.000161043
-3.17229e-07
-0.000161963
-2.71804e-07
-0.000162201
-2.48889e-07
-0.000162209
-2.27434e-07
-0.000161996
-1.73442e-07
-0.000158954
2.02604e-07
-0.000153706
7.27286e-07
-0.000151838
7.83148e-07
-0.000151557
5.42485e-07
-0.000151537
2.61315e-07
-0.000151766
-3.97088e-08
-0.000155201
-2.70964e-07
-0.000161453
8.12581e-08
-0.000164262
7.0378e-07
-0.000165057
1.08608e-06
-0.000165291
1.35122e-06
-0.000165256
1.619e-06
-0.000164617
1.79667e-06
-0.000159768
1.90251e-06
-0.000154105
1.49567e-06
-0.000152161
8.90898e-07
-0.000151823
3.73838e-07
-0.000151849
-4.76365e-08
-0.000152477
-4.63997e-07
-0.000158379
-6.80535e-07
-0.00016528
8.60224e-08
-0.000167916
8.58778e-07
-0.00016867
1.13594e-06
-0.000168894
1.22804e-06
-0.000168908
1.22421e-06
-0.000166259
1.22265e-06
-0.000157779
7.45328e-07
-0.000152161
-2.34412e-07
-0.000150348
-8.52503e-07
-0.00015007
-1.19451e-06
-0.000150307
-1.47743e-06
-0.000155351
-1.75856e-06
-0.000164984
-8.72567e-07
-0.00016933
3.93053e-07
-0.000170403
8.62841e-07
-0.000170653
9.81776e-07
-0.000170696
9.75541e-07
-0.000167755
8.86558e-07
-0.000156807
2.70004e-07
-0.000147119
-1.27092e-06
-0.000142858
-2.79305e-06
-0.000142179
-3.67832e-06
-0.000142491
-4.23221e-06
-0.000149178
-4.70462e-06
-0.000160312
-3.30388e-06
-0.000165447
-1.35908e-06
-0.00016653
-7.81771e-07
-0.00016644
-1.39065e-06
-0.000159402
-3.40439e-06
-0.00014531
-6.47713e-06
-0.000128945
-9.95066e-06
-0.000111799
-2.75295e-05
-0.00014478
-6.78304e-05
3.89017e-05
-0.000141602
9.60879e-07
-0.000148794
1.17425e-06
-0.000152992
4.21373e-07
-0.000153863
-2.07421e-08
-0.000153904
-3.31174e-07
-0.000153733
-8.00691e-07
-0.000153482
-1.13199e-06
-0.000150953
-3.68669e-07
-0.000146016
1.15656e-06
-0.000143835
1.72485e-06
-0.000143479
1.79293e-06
-0.00014341
1.67302e-06
-0.000144265
1.58668e-06
-0.000148019
1.53957e-06
-0.0001519
1.44352e-06
-0.000153282
1.33443e-06
-0.00015354
1.23612e-06
-0.000153438
1.04027e-06
-0.000153315
8.70566e-07
-0.000152989
8.57836e-07
-0.000150816
9.60749e-07
-0.000147511
9.67642e-07
-0.000146312
9.0486e-07
-0.000146032
7.88729e-07
-0.000145967
6.77647e-07
-0.000146727
6.13629e-07
-0.000151222
7.2061e-07
-0.000155126
1.13504e-06
-0.000156072
1.16072e-06
-0.000156108
9.6183e-07
-0.000156026
6.61295e-07
-0.000155887
4.62266e-07
-0.000153873
4.21441e-07
-0.000149492
4.82976e-07
-0.000148003
2.14082e-07
-0.000147859
-1.2533e-07
-0.000147827
-4.06091e-07
-0.000148051
-6.51079e-07
-0.00015052
-8.21215e-07
-0.000156164
-7.08756e-07
-0.000159119
-3.53345e-07
-0.000159782
-2.56616e-08
-0.000159906
2.42206e-07
-0.000159797
5.21652e-07
-0.000158998
8.60636e-07
-0.000155208
1.28015e-06
-0.000150803
1.31984e-06
-0.000149412
8.17638e-07
-0.000149242
2.99355e-07
-0.000149232
-9.90007e-08
-0.000149333
-4.33805e-07
-0.000151302
-7.16847e-07
-0.000157126
-4.06218e-07
-0.000160322
5.56281e-07
-0.000161206
1.30208e-06
-0.000161455
1.73148e-06
-0.000161433
2.01447e-06
-0.000161199
2.10838e-06
-0.00015804
1.98513e-06
-0.000152586
1.44087e-06
-0.000149988
5.12007e-07
-0.000149121
-9.28988e-08
-0.000148903
-3.38948e-07
-0.000148996
-5.1744e-07
-0.000151989
-7.52883e-07
-0.000159364
-1.50873e-07
-0.000162946
9.02322e-07
-0.000163995
1.41356e-06
-0.000164336
1.60819e-06
-0.000164419
1.65136e-06
-0.000163346
1.60384e-06
-0.000156012
1.25076e-06
-0.000148795
2.12792e-07
-0.000146303
-8.52814e-07
-0.000145968
-1.34056e-06
-0.000146013
-1.58906e-06
-0.000148124
-1.88694e-06
-0.000157135
-1.61452e-06
-0.000162854
-2.034e-07
-0.000164222
8.53108e-07
-0.000164552
1.19094e-06
-0.000164739
1.10206e-06
-0.000163458
8.84125e-07
-0.000155531
4.19135e-07
-0.00014498
-1.2716e-06
-0.000138382
-3.4018e-06
-0.000136202
-5.24728e-06
-0.000136088
-6.13728e-06
-0.000137657
-6.92323e-06
-0.000145461
-7.05527e-06
-0.000151443
-5.60687e-06
-0.000153249
-4.48137e-06
-0.000153594
-4.97542e-06
-0.000150037
-6.51371e-06
-0.000140682
-9.39439e-06
-0.000129315
-1.19189e-05
-0.00011834
-2.67201e-05
-0.000137658
-6.62892e-05
4.45528e-05
-0.000141419
6.0336e-07
-0.000150089
-6.0167e-07
-0.000153136
-4.56378e-07
-0.000153677
-7.36119e-07
-0.000153537
-9.67525e-07
-0.000153102
-8.43231e-07
-0.000149605
5.80196e-07
-0.000144513
2.03404e-06
-0.000142159
2.4592e-06
-0.000141716
2.34118e-06
-0.000141585
2.09571e-06
-0.000141597
1.80565e-06
-0.000142786
1.49785e-06
-0.000147116
1.27209e-06
-0.00015064
1.09985e-06
-0.000151697
1.03617e-06
-0.000151771
1.05602e-06
-0.000151658
1.17819e-06
-0.00015124
1.4826e-06
-0.000150583
1.72483e-06
-0.000148457
1.79265e-06
-0.000145024
1.67925e-06
-0.000144017
1.19286e-06
-0.000143938
7.79051e-07
-0.000143897
4.39534e-07
-0.000144462
1.85315e-07
-0.000148734
1.0821e-07
-0.000153558
6.22103e-07
-0.000154659
1.10213e-06
-0.000154585
1.1805e-06
-0.000154469
1.24542e-06
-0.000153888
1.41827e-06
-0.000151452
1.41945e-06
-0.00014755
1.09517e-06
-0.000146017
1.6087e-07
-0.000145848
-4.52342e-07
-0.000145825
-7.92659e-07
-0.000145918
-1.13594e-06
-0.000147705
-1.36474e-06
-0.000152792
-1.03208e-06
-0.000155561
-1.07078e-07
-0.000156168
7.33309e-07
-0.000156187
1.26288e-06
-0.000155856
1.69927e-06
-0.000155044
1.91921e-06
-0.000152273
1.78357e-06
-0.000148737
1.31398e-06
-0.000147285
2.85382e-07
-0.000146937
-3.48241e-07
-0.000146784
-6.68403e-07
-0.000146712
-7.73818e-07
-0.000147093
-8.15901e-07
-0.000151095
-5.73331e-07
-0.000154912
6.57547e-07
-0.000156199
1.68636e-06
-0.000156751
2.15103e-06
-0.000156996
2.19441e-06
-0.000157013
2.07149e-06
-0.000155673
1.86972e-06
-0.000150439
1.25154e-06
-0.00014683
1.42335e-07
-0.000145474
-4.15166e-07
-0.000144914
-5.35864e-07
-0.000144912
-5.12462e-07
-0.00014583
-5.80012e-07
-0.0001521
-3.03139e-07
-0.000156982
7.24261e-07
-0.000158582
1.46404e-06
-0.000159125
1.74256e-06
-0.000159273
1.87208e-06
-0.000159047
1.86346e-06
-0.00015414
1.72573e-06
-0.000145643
8.12201e-07
-0.000141988
-4.09085e-07
-0.000141519
-1.52502e-06
-0.000141519
-1.9569e-06
-0.000142061
-2.2648e-06
-0.000148184
-2.45743e-06
-0.00015618
-1.24558e-06
-0.000158685
4.11419e-07
-0.000158998
1.21946e-06
-0.000159149
1.37238e-06
-0.00015874
1.21307e-06
-0.000153936
8.0757e-07
-0.000144363
-8.39095e-07
-0.000136049
-3.36763e-06
-0.00013165
-5.39065e-06
-0.000130919
-7.5585e-06
-0.000131048
-9.09933e-06
-0.000134801
-1.01261e-05
-0.000141676
-1.00469e-05
-0.000145266
-9.21535e-06
-0.000146176
-9.46349e-06
-0.000145815
-1.10671e-05
-0.000141579
-1.3065e-05
-0.000133195
-1.48921e-05
-0.000122831
-2.40256e-05
-0.000131877
-6.53734e-05
5.35668e-05
-0.000143304
1.55172e-08
-0.000150027
-1.20672e-06
-0.000151869
-1.12475e-06
-0.000151842
-9.77685e-07
-0.000151278
-4.94643e-07
-0.000147435
1.26205e-06
-0.000142859
2.60014e-06
-0.000140862
2.76151e-06
-0.000140357
2.57263e-06
-0.000140202
2.26001e-06
-0.000140093
1.92485e-06
-0.000140088
1.57709e-06
-0.000141334
1.13022e-06
-0.000145637
8.34242e-07
-0.000148418
8.92373e-07
-0.000149046
1.14572e-06
-0.00014909
1.48496e-06
-0.000148623
2.06734e-06
-0.000148016
2.50493e-06
-0.000147626
2.45496e-06
-0.000146443
2.17288e-06
-0.000143726
1.67029e-06
-0.0001426
9.48281e-07
-0.000142379
4.48632e-07
-0.000142298
5.49851e-08
-0.000142491
-2.17127e-07
-0.000145669
-3.01916e-07
-0.000150532
4.351e-07
-0.000151771
1.39146e-06
-0.000151767
1.98958e-06
-0.000151357
2.38467e-06
-0.000150816
2.31094e-06
-0.000149621
1.94791e-06
-0.000146825
1.11372e-06
-0.000144627
-1.79585e-08
-0.000144171
-7.49835e-07
-0.000144116
-1.26201e-06
-0.000144069
-1.5072e-06
-0.000144348
-1.44276e-06
-0.000147612
-9.93724e-07
-0.000150842
4.1438e-07
-0.000151739
1.67562e-06
-0.000151919
2.41228e-06
-0.000151865
2.58424e-06
-0.000151784
2.29629e-06
-0.000150782
1.92396e-06
-0.000147632
1.22296e-06
-0.000145346
-1.10187e-07
-0.000144534
-8.91592e-07
-0.000143908
-1.14551e-06
-0.000143342
-9.52921e-07
-0.000143259
-6.06242e-07
-0.000144866
-4.16043e-07
-0.000149683
5.3684e-07
-0.000152227
1.7726e-06
-0.000153178
2.25906e-06
-0.000153611
2.19153e-06
-0.000153708
1.97246e-06
-0.000153463
1.71456e-06
-0.000149385
1.32315e-06
-0.000143744
4.19961e-07
-0.000141425
-2.08759e-07
-0.000140881
-6.11545e-07
-0.000140796
-7.09859e-07
-0.000141136
-7.31305e-07
-0.000145883
-5.86125e-07
-0.000152065
2.30318e-07
-0.000154236
1.21387e-06
-0.000154858
1.72817e-06
-0.000155096
1.92856e-06
-0.000155121
2.00058e-06
-0.000152919
2.13537e-06
-0.000144993
1.81536e-06
-0.000139018
-2.29947e-07
-0.000137585
-1.33042e-06
-0.000137643
-2.58046e-06
-0.000137852
-3.2981e-06
-0.00014046
-3.63504e-06
-0.000148385
-3.04029e-06
-0.000153663
-8.05265e-07
-0.00015504
9.7769e-07
-0.000155261
1.6544e-06
-0.0001553
1.78795e-06
-0.000152872
1.58116e-06
-0.000144951
5.37856e-07
-0.000136659
-2.54487e-06
-0.000131001
-5.41824e-06
-0.000128116
-8.04139e-06
-0.000127801
-1.08081e-05
-0.000128446
-1.23669e-05
-0.000133118
-1.31903e-05
-0.00013773
-1.3128e-05
-0.000139704
-1.32513e-05
-0.00014042
-1.49773e-05
-0.000139979
-1.73983e-05
-0.000136681
-1.89626e-05
-0.000130184
-2.33437e-05
-0.000127089
-6.39606e-05
6.38199e-05
-0.000144614
-5.96653e-07
-0.000148192
-1.15176e-06
-0.000148595
-7.67046e-07
-0.000148193
6.90586e-08
-0.000145145
1.79348e-06
-0.000141365
2.95155e-06
-0.000139689
3.13375e-06
-0.00013935
2.64974e-06
-0.00013923
2.16288e-06
-0.000139158
1.78358e-06
-0.000139136
1.42842e-06
-0.000139153
1.03476e-06
-0.000140067
6.34402e-07
-0.000143365
5.78547e-07
-0.000145293
1.13735e-06
-0.00014579
1.87868e-06
-0.000145742
2.63437e-06
-0.000145542
3.1653e-06
-0.000145608
2.90687e-06
-0.000145625
2.47857e-06
-0.000145352
2.04687e-06
-0.000143302
1.47098e-06
-0.000141884
5.77373e-07
-0.000141303
-4.48329e-08
-0.00014085
-2.30206e-07
-0.000140704
-6.4464e-08
-0.000141354
1.34706e-07
-0.000145213
8.22471e-07
-0.000147608
2.11289e-06
-0.000148553
2.82665e-06
-0.000149042
2.58235e-06
-0.000149181
2.14367e-06
-0.00014909
1.79353e-06
-0.000147537
1.32645e-06
-0.000144663
7.29748e-08
-0.000143242
-9.23287e-07
-0.000142433
-1.44626e-06
-0.000141493
-1.2752e-06
-0.000141032
-7.06885e-07
-0.000141589
-2.66776e-07
-0.000145369
6.04438e-07
-0.000147853
2.05049e-06
-0.000148738
2.84384e-06
-0.00014946
2.90044e-06
-0.000149803
2.37408e-06
-0.000149753
1.83558e-06
-0.00014818
1.3336e-06
-0.000144714
1.03798e-07
-0.000142123
-6.69253e-07
-0.000140595
-9.94061e-07
-0.00013975
-7.71031e-07
-0.000139491
-4.37744e-07
-0.000139912
-2.48497e-07
-0.000144585
1.88958e-07
-0.000149348
1.33781e-06
-0.000150969
2.07553e-06
-0.000151362
2.18e-06
-0.000151414
2.02632e-06
-0.000151389
1.84509e-06
-0.000149072
1.76217e-06
-0.000142464
1.21555e-06
-0.000138344
6.48164e-08
-0.000137579
-4.14074e-07
-0.000137612
-9.21607e-07
-0.000137887
-1.1726e-06
-0.000141096
-1.22942e-06
-0.000148046
-5.36142e-07
-0.000151258
8.82014e-07
-0.000151898
1.81766e-06
-0.000152046
2.22264e-06
-0.000152032
2.46774e-06
-0.000151089
2.63378e-06
-0.000145697
2.37922e-06
-0.000139071
5.06844e-07
-0.000135718
-1.46139e-06
-0.000135093
-3.18954e-06
-0.000135076
-4.41885e-06
-0.000135517
-4.90017e-06
-0.000139929
-4.97778e-06
-0.000147701
-3.06836e-06
-0.000151506
-2.00298e-07
-0.000152349
1.43522e-06
-0.000152531
2.0394e-06
-0.000152064
2.05997e-06
-0.00014767
1.46976e-06
-0.000140018
-1.26735e-06
-0.000133447
-4.91412e-06
-0.000128901
-8.27542e-06
-0.000126365
-1.09627e-05
-0.000126244
-1.29449e-05
-0.000127619
-1.50187e-05
-0.000132136
-1.55524e-05
-0.000135234
-1.56369e-05
-0.000136748
-1.68531e-05
-0.000137124
-2.00133e-05
-0.00013642
-2.22945e-05
-0.000133911
-2.41958e-05
-0.000125562
-6.13598e-05
7.13699e-05
-0.000143472
-5.97808e-07
-0.000144298
-4.98018e-07
-0.000144216
6.82361e-07
-0.0001424
2.28655e-06
-0.000140271
3.36555e-06
-0.000139521
3.39175e-06
-0.000138892
3.00331e-06
-0.000138517
2.37319e-06
-0.000138396
1.6938e-06
-0.000138503
1.03108e-06
-0.000138783
2.76644e-07
-0.000138776
2.81498e-07
-0.00013888
3.55545e-07
-0.000140306
8.06045e-07
-0.000141953
1.95728e-06
-0.000142538
3.11792e-06
-0.00014285
3.92362e-06
-0.000143987
3.48232e-06
-0.000144917
2.77496e-06
-0.000145121
2.25022e-06
-0.000145062
1.62736e-06
-0.000144207
1.01532e-06
-0.000142057
2.08005e-07
-0.000140369
-1.32955e-07
-0.000138946
1.80232e-07
-0.000138179
8.35974e-07
-0.000138061
1.27117e-06
-0.000139811
1.69818e-06
-0.000143575
2.4289e-06
-0.000146276
2.59366e-06
-0.000147927
2.22724e-06
-0.000148649
1.67959e-06
-0.000148737
1.24439e-06
-0.000148446
9.62514e-07
-0.000146067
4.03891e-07
-0.000142957
-4.64972e-07
-0.000140266
-8.08632e-07
-0.000138399
-2.98774e-07
-0.000137684
1.80501e-07
-0.00013763
4.6996e-07
-0.000139858
7.38412e-07
-0.000144799
1.63112e-06
-0.000147535
2.60342e-06
-0.000148599
2.7737e-06
-0.000148919
2.41958e-06
-0.000148983
2.01665e-06
-0.00014866
1.59552e-06
-0.000145138
1.02504e-06
-0.000140295
-3.95514e-08
-0.000137597
-1.55393e-07
-0.000136764
-3.43867e-07
-0.000136591
-3.61919e-07
-0.000136762
-2.99525e-07
-0.00014001
-1.44436e-07
-0.000146593
7.18181e-07
-0.000149358
1.80971e-06
-0.000149821
2.21846e-06
-0.000149856
2.26506e-06
-0.00014977
2.34754e-06
-0.00014844
2.35302e-06
-0.000142841
1.84854e-06
-0.000137945
5.11594e-07
-0.000136184
-4.41419e-07
-0.000136048
-1.19812e-06
-0.00013611
-1.63634e-06
-0.000137556
-1.94488e-06
-0.000143517
-1.56207e-06
-0.000148637
2.05101e-07
-0.000150022
1.82687e-06
-0.000150166
2.59568e-06
-0.000150045
3.08032e-06
-0.000149768
3.06968e-06
-0.000147603
2.5273e-06
-0.000141552
1.27048e-06
-0.000136696
-1.33881e-06
-0.000133956
-3.53501e-06
-0.000132944
-5.11275e-06
-0.000132783
-5.80883e-06
-0.000133299
-6.02064e-06
-0.000138528
-5.7288e-06
-0.000145459
-3.26118e-06
-0.000148758
-2.44524e-07
-0.000149812
1.3109e-06
-0.000150038
1.5238e-06
-0.000149424
1.54044e-06
-0.000144683
-2.23722e-07
-0.000137737
-3.1965e-06
-0.000131821
-7.1091e-06
-0.000127659
-1.07349e-05
-0.00012552
-1.3298e-05
-0.000125496
-1.51139e-05
-0.000127164
-1.69702e-05
-0.000131318
-1.72991e-05
-0.000134191
-1.78475e-05
-0.000135492
-2.06824e-05
-0.000135554
-2.39168e-05
-0.000135186
-2.52816e-05
-0.000125891
-6.07364e-05
7.36606e-05
-0.000139982
-2.41918e-07
-0.000140086
1.11715e-06
-0.000139123
2.45883e-06
-0.000138182
3.54986e-06
-0.000138275
4.03083e-06
-0.000138909
3.18931e-06
-0.000139189
2.67231e-06
-0.000139167
1.86419e-06
-0.000138959
9.24783e-07
-0.000138914
2.05445e-08
-0.000138704
-2.07034e-07
-0.000137585
4.4763e-08
-0.000136485
9.11367e-07
-0.00013642
1.63234e-06
-0.000138333
2.46618e-06
-0.000140465
3.65657e-06
-0.000142342
3.97573e-06
-0.000144033
3.31809e-06
-0.000145308
2.34421e-06
-0.000145869
1.53778e-06
-0.000145882
9.01364e-07
-0.000145273
4.94361e-07
-0.000141787
3.69269e-07
-0.000138183
7.66425e-07
-0.000136422
1.37103e-06
-0.000135824
1.76703e-06
-0.000135703
2.06988e-06
-0.000136791
2.41798e-06
-0.000142
2.44347e-06
-0.00014609
2.2161e-06
-0.000147864
1.86969e-06
-0.000148415
1.32804e-06
-0.000148479
9.55806e-07
-0.000148411
6.70797e-07
-0.000147247
4.83038e-07
-0.000141862
3.48448e-07
-0.000137554
6.30941e-07
-0.000136031
5.64991e-07
-0.000135604
5.80513e-07
-0.000135552
7.28135e-07
-0.000136279
8.3941e-07
-0.000141757
1.22681e-06
-0.000146912
2.15021e-06
-0.00014826
2.62743e-06
-0.000148326
2.51872e-06
-0.000148283
2.34206e-06
-0.000148091
2.21026e-06
-0.000145777
1.98831e-06
-0.000139817
1.31956e-06
-0.00013589
1.49229e-07
-0.000134739
6.10063e-08
-0.000134669
-1.73376e-07
-0.000134738
-3.18136e-07
-0.000136622
-3.11923e-07
-0.000143294
2.14602e-07
-0.000147641
1.51485e-06
-0.000148552
2.35755e-06
-0.000148653
2.67668e-06
-0.000148576
2.75897e-06
-0.000148127
2.63843e-06
-0.000144902
2.34953e-06
-0.000139233
1.0937e-06
-0.000136384
-6.13083e-07
-0.000135536
-1.59435e-06
-0.000135417
-2.30233e-06
-0.000135537
-2.36869e-06
-0.000137967
-2.48881e-06
-0.000144263
-1.29974e-06
-0.000148005
1.05755e-06
-0.000149108
2.61897e-06
-0.000149361
3.09628e-06
-0.000149475
3.04453e-06
-0.00014933
2.66478e-06
-0.000145789
2.15267e-06
-0.000139388
-1.27377e-08
-0.000134808
-3.04219e-06
-0.000131798
-5.10173e-06
-0.000130469
-6.04596e-06
-0.000130455
-6.79233e-06
-0.000131352
-7.23765e-06
-0.000137362
-6.72786e-06
-0.000143942
-3.84515e-06
-0.000147368
-9.37775e-07
-0.000148666
3.46412e-07
-0.000148899
3.70489e-07
-0.000147457
1.21843e-07
-0.000142828
-2.08076e-06
-0.000136836
-5.26345e-06
-0.000130921
-8.90684e-06
-0.000126556
-1.24785e-05
-0.000124514
-1.5183e-05
-0.000124547
-1.6998e-05
-0.000126653
-1.88315e-05
-0.000131208
-1.91573e-05
-0.000134312
-2.10689e-05
-0.000135311
-2.4679e-05
-0.000135953
-2.62283e-05
-0.000126049
-6.07995e-05
7.41243e-05
-0.000136226
1.01945e-06
-0.000135837
2.21306e-06
-0.000136202
3.03876e-06
-0.000136812
3.60483e-06
-0.000138408
3.7976e-06
-0.000140019
2.94753e-06
-0.000140638
2.03994e-06
-0.000140625
1.39031e-06
-0.000140165
6.93557e-07
-0.000139131
-1.19262e-07
-0.000136765
-2.77002e-07
-0.000134105
9.15502e-07
-0.000133097
1.64935e-06
-0.000132978
2.01963e-06
-0.000134777
2.38359e-06
-0.000139648
2.94813e-06
-0.000143685
3.32573e-06
-0.000145769
2.29222e-06
-0.000146501
1.60297e-06
-0.000146538
1.00896e-06
-0.000146419
5.55502e-07
-0.000144894
4.81515e-07
-0.000139183
1.21468e-06
-0.00013539
1.95368e-06
-0.000134514
2.0633e-06
-0.000134344
2.02644e-06
-0.000134457
2.1164e-06
-0.000136291
2.34582e-06
-0.000142818
2.02748e-06
-0.000147116
1.57387e-06
-0.000148158
1.55488e-06
-0.000148296
1.21807e-06
-0.000148217
9.48852e-07
-0.000148091
9.69501e-07
-0.000146438
1.34282e-06
-0.000140483
1.67352e-06
-0.000135778
1.27891e-06
-0.000134438
1.05416e-06
-0.000134232
8.13315e-07
-0.000134216
7.49013e-07
-0.000134672
8.42668e-07
-0.000138905
1.09785e-06
-0.000145452
1.95532e-06
-0.000147529
2.76951e-06
-0.000147699
2.99411e-06
-0.000147695
2.96405e-06
-0.000147548
2.87593e-06
-0.000146262
2.60387e-06
-0.000140882
2.04771e-06
-0.000136058
8.50342e-07
-0.000134242
7.84464e-08
-0.000133743
-1.73323e-07
-0.000133758
-1.8397e-07
-0.000134258
-2.94454e-07
-0.000139217
-1.07866e-07
-0.000145239
1.09136e-06
-0.000147216
2.36146e-06
-0.00014783
2.8968e-06
-0.000148053
2.70317e-06
-0.000148102
2.51946e-06
-0.00014754
2.14534e-06
-0.000143076
1.41124e-06
-0.000138093
-2.67723e-07
-0.00013553
-1.83532e-06
-0.000134399
-2.56687e-06
-0.0001341
-2.74826e-06
-0.000134321
-2.9611e-06
-0.000137746
-2.99086e-06
-0.000144413
-1.33005e-06
-0.000148024
1.35889e-06
-0.000149427
2.69792e-06
-0.000149941
2.59043e-06
-0.000150034
2.59655e-06
-0.000149219
2.44659e-06
-0.000143613
1.68461e-06
-0.000136667
-1.29464e-06
-0.000132332
-4.45953e-06
-0.000129894
-6.22124e-06
-0.000128933
-7.56824e-06
-0.000128923
-8.10844e-06
-0.000129911
-8.28616e-06
-0.000135776
-7.62136e-06
-0.000141952
-4.74282e-06
-0.000145262
-2.04125e-06
-0.000146681
-1.03637e-06
-0.000146781
-1.28193e-06
-0.000145358
-1.7935e-06
-0.00014167
-4.42876e-06
-0.00013612
-6.96585e-06
-0.000129857
-1.02825e-05
-0.000125285
-1.40043e-05
-0.00012318
-1.70557e-05
-0.000123291
-1.93844e-05
-0.000126275
-2.10848e-05
-0.000131789
-2.22183e-05
-0.000134471
-2.56006e-05
-0.000136081
-2.73123e-05
-0.000126481
-5.97428e-05
7.46744e-05
-0.000132858
2.075e-06
-0.00013273
2.51912e-06
-0.000133566
2.96246e-06
-0.000137033
3.1354e-06
-0.000140907
2.81918e-06
-0.000142283
2.15383e-06
-0.000142363
1.71613e-06
-0.000142212
1.33364e-06
-0.000141577
8.81876e-07
-0.000137894
2.51118e-07
-0.000132709
1.20487e-06
-0.000130963
1.81117e-06
-0.000130652
1.85516e-06
-0.000130667
1.87276e-06
-0.000132679
1.93368e-06
-0.000141105
2.28973e-06
-0.0001465
1.41289e-06
-0.000147286
1.27547e-06
-0.000147219
1.05531e-06
-0.000147016
8.82112e-07
-0.000146139
6.07056e-07
-0.000142083
1.44823e-06
-0.00013608
2.33499e-06
-0.000133607
2.21252e-06
-0.00013325
1.93236e-06
-0.000133211
1.64711e-06
-0.000133556
1.52414e-06
-0.000137013
1.2727e-06
-0.000144153
8.1157e-07
-0.000147736
1.44169e-06
-0.000148246
1.52975e-06
-0.000148172
1.55448e-06
-0.000147808
1.79338e-06
-0.00014686
2.2044e-06
-0.000144915
2.47963e-06
-0.000140459
2.10673e-06
-0.000135854
1.62301e-06
-0.000133908
1.12257e-06
-0.000133413
8.84331e-07
-0.000133307
8.44746e-07
-0.000133421
8.50335e-07
-0.000136387
1.02352e-06
-0.000143221
1.82578e-06
-0.000146347
2.91542e-06
-0.000146975
3.42956e-06
-0.000147204
3.31469e-06
-0.000147228
2.97111e-06
-0.000147018
2.77489e-06
-0.000143627
2.4231e-06
-0.000137477
1.45432e-06
-0.000134383
2.87504e-07
-0.000133296
-1.5782e-07
-0.000133055
-2.13743e-07
-0.000133104
-2.42773e-07
-0.000135004
-3.56666e-07
-0.000141575
2.57267e-07
-0.000145985
1.8179e-06
-0.000147747
2.69906e-06
-0.000148572
2.3527e-06
-0.00014878
1.97215e-06
-0.000148792
1.6636e-06
-0.000147248
1.46232e-06
-0.000141089
7.70163e-07
-0.000136015
-1.12571e-06
-0.000133538
-2.55112e-06
-0.000132683
-3.18187e-06
-0.000132655
-3.58933e-06
-0.000133038
-3.99988e-06
-0.000138172
-4.03487e-06
-0.000145967
-1.7758e-06
-0.000149461
1.29311e-06
-0.000150069
2.30471e-06
-0.000150179
2.54207e-06
-0.00015025
2.46746e-06
-0.000148654
2.31052e-06
-0.000141856
1.21387e-06
-0.000135096
-2.27333e-06
-0.000130983
-5.67249e-06
-0.000128335
-7.66429e-06
-0.000127424
-8.4051e-06
-0.000127406
-9.16432e-06
-0.000128635
-9.26109e-06
-0.000134438
-8.45991e-06
-0.000140424
-5.65232e-06
-0.000143657
-3.3846e-06
-0.000145016
-2.8787e-06
-0.000145026
-3.35318e-06
-0.000143564
-4.26578e-06
-0.000140636
-6.674e-06
-0.000135623
-8.78971e-06
-0.000129084
-1.1964e-05
-0.000124029
-1.59976e-05
-0.000121617
-1.94543e-05
-0.000121969
-2.16865e-05
-0.000126784
-2.40126e-05
-0.000132129
-2.72173e-05
-0.000134947
-2.90647e-05
-0.000127734
-5.64837e-05
7.47551e-05
-0.00013186
2.43126e-06
-0.000131871
2.51901e-06
-0.000133595
2.74563e-06
-0.000139269
2.47151e-06
-0.000142667
1.95349e-06
-0.000143106
1.68785e-06
-0.000142962
1.47743e-06
-0.000142836
1.30193e-06
-0.000141697
9.89699e-07
-0.000134914
1.95406e-06
-0.000130518
2.51858e-06
-0.000129952
2.16533e-06
-0.000129838
1.83388e-06
-0.000129891
1.7457e-06
-0.000133265
1.40184e-06
-0.000143321
1.23518e-07
-0.000147257
3.59521e-07
-0.000147524
7.20905e-07
-0.000147425
8.27835e-07
-0.000146779
9.35842e-07
-0.000143811
1.9881e-06
-0.000139071
2.79014e-06
-0.000134936
2.58837e-06
-0.000132998
2.01782e-06
-0.000132749
1.5292e-06
-0.000132754
8.22894e-07
-0.000133608
-4.82887e-07
-0.000137399
-1.103e-06
-0.000143995
1.48171e-07
-0.000147262
1.10898e-06
-0.000147685
1.95317e-06
-0.000147459
2.77839e-06
-0.000146625
3.34626e-06
-0.000145816
3.36045e-06
-0.000144634
3.13801e-06
-0.000141419
2.54999e-06
-0.000136718
1.74894e-06
-0.000133969
9.82456e-07
-0.000132818
6.35485e-07
-0.000132429
7.89549e-07
-0.00013238
8.31761e-07
-0.000133661
8.1838e-07
-0.000140125
1.34784e-06
-0.00014523
2.67924e-06
-0.000146823
3.47637e-06
-0.000147261
3.29436e-06
-0.000147334
2.95703e-06
-0.00014731
2.65847e-06
-0.000146228
2.56181e-06
-0.00014034
2.21639e-06
-0.000134978
9.88241e-07
-0.000132921
-2.24084e-08
-0.000132408
-2.17969e-07
-0.000132385
-4.29575e-07
-0.000132669
-6.25679e-07
-0.000137053
-7.27108e-07
-0.000144773
3.40258e-07
-0.000148382
1.93138e-06
-0.0001494
2.01841e-06
-0.000149486
1.59673e-06
-0.00014949
1.55529e-06
-0.000148944
1.6154e-06
-0.000144863
1.65201e-06
-0.000137814
4.8888e-07
-0.000133707
-1.691e-06
-0.000131856
-3.14939e-06
-0.00013135
-3.97844e-06
-0.000131364
-4.70979e-06
-0.000132219
-5.36879e-06
-0.000138974
-5.28897e-06
-0.000146785
-2.08966e-06
-0.000149644
1.29236e-06
-0.000150132
2.41727e-06
-0.000150242
2.61259e-06
-0.000150255
2.46742e-06
-0.000147715
2.25254e-06
-0.000139789
8.92081e-07
-0.000133075
-3.22552e-06
-0.00012938
-6.75007e-06
-0.00012727
-8.67015e-06
-0.000126297
-9.56824e-06