/*--------------------------------*- C++ -*----------------------------------*\
  =========                 |
  \\      /  F ield         | OpenFOAM: The Open Source CFD Toolbox
   \\    /   O peration     | Website:  https://openfoam.org
    \\  /    A nd           | Version:  12
     \\/     M anipulation  |
\*---------------------------------------------------------------------------*/
FoamFile
{
    format      ascii;
    class       volScalarField;
    location    "25.2";
    object      rho;
}
// * * * * * * * * * * * * * * * * * * * * * * * * * * * * * * * * * * * * * //

dimensions      [1 -3 0 0 0 0 0];

internalField   nonuniform List<scalar> 
9801
(
1.09193
1.08925
1.10469
1.14394
1.18174
1.19281
1.19501
1.19457
1.18339
1.16093
1.14956
1.15008
1.15316
1.16691
1.20912
1.24609
1.25679
1.26086
1.26131
1.24363
1.22134
1.2175
1.22032
1.22427
1.23056
1.2554
1.299
1.31834
1.32306
1.32445
1.31788
1.2992
1.29118
1.29349
1.29831
1.30532
1.31592
1.33667
1.36489
1.38134
1.38794
1.392
1.39113
1.38448
1.38171
1.38383
1.38811
1.39344
1.40006
1.41359
1.44418
1.46941
1.48124
1.48841
1.49345
1.48775
1.47476
1.47035
1.47304
1.47897
1.48675
1.50145
1.53982
1.57345
1.58958
1.59949
1.60729
1.60411
1.58485
1.57387
1.57575
1.58361
1.59559
1.62465
1.6811
1.71922
1.73862
1.7515
1.76197
1.7584
1.72819
1.71031
1.71636
1.73404
1.77005
1.84979
1.91582
1.95352
1.98181
2.00843
2.01471
1.98351
1.95489
1.96141
2.013
2.12754
2.31607
4.50209
18.2298
1.12929
1.12336
1.12302
1.12878
1.14761
1.17668
1.18801
1.19001
1.18491
1.17656
1.1715
1.17142
1.18069
1.19417
1.20287
1.2228
1.24501
1.25493
1.25487
1.24397
1.23515
1.23272
1.23447
1.23807
1.24907
1.26832
1.28886
1.3058
1.31594
1.32148
1.3177
1.3061
1.30235
1.30435
1.30833
1.31322
1.31969
1.33643
1.36391
1.38143
1.39008
1.39589
1.39924
1.39115
1.38196
1.38317
1.38794
1.39365
1.40036
1.413
1.44408
1.46975
1.48213
1.48991
1.496
1.49317
1.47567
1.468
1.47159
1.47857
1.48683
1.50162
1.53951
1.57394
1.59052
1.60061
1.60946
1.60945
1.58729
1.57147
1.57406
1.58431
1.59598
1.62325
1.67376
1.71008
1.72991
1.74494
1.75924
1.75924
1.72681
1.70794
1.7154
1.73273
1.75874
1.81855
1.88485
1.92939
1.96368
1.99532
2.00878
1.98274
1.95765
1.95504
1.98738
2.05706
2.18005
4.2237
18.2311
1.1301
1.15054
1.15659
1.15214
1.15245
1.15852
1.16315
1.16137
1.16045
1.16272
1.16632
1.1755
1.19974
1.21636
1.22059
1.22299
1.23126
1.23667
1.22981
1.22437
1.22692
1.23107
1.23636
1.2452
1.26229
1.27908
1.28842
1.2961
1.30292
1.30627
1.30341
1.29979
1.30148
1.30604
1.31099
1.31619
1.32171
1.33507
1.35864
1.37443
1.38296
1.38918
1.39411
1.39088
1.38116
1.37981
1.38333
1.38862
1.39458
1.40489
1.43331
1.4593
1.47225
1.48039
1.48699
1.48709
1.47085
1.46077
1.46284
1.46953
1.47774
1.49065
1.52515
1.55906
1.57678
1.58769
1.5971
1.60142
1.58233
1.56234
1.56124
1.57014
1.58138
1.60127
1.6473
1.69017
1.71365
1.72891
1.74215
1.74488
1.71553
1.6925
1.69427
1.70979
1.72961
1.77104
1.84658
1.90381
1.93856
1.96798
1.98405
1.9629
1.9396
1.93571
1.95195
2.00635
2.06066
4.00367
17.9406
1.14181
1.17624
1.1846
1.1862
1.17135
1.1424
1.12318
1.12324
1.13321
1.15032
1.16906
1.1918
1.21661
1.22926
1.23467
1.23374
1.21536
1.1996
1.20027
1.20777
1.22033
1.23196
1.24028
1.24967
1.26447
1.27591
1.28057
1.28164
1.28337
1.28814
1.29285
1.29684
1.30197
1.3057
1.30882
1.31141
1.31481
1.32159
1.34136
1.36059
1.37171
1.37928
1.38555
1.38775
1.37564
1.36735
1.36801
1.37246
1.37845
1.38793
1.41456
1.44295
1.45762
1.46623
1.47304
1.47589
1.46094
1.44626
1.44604
1.45217
1.46026
1.47127
1.50161
1.53817
1.55813
1.56963
1.57885
1.58439
1.56993
1.54489
1.5391
1.54639
1.55724
1.57186
1.61058
1.65842
1.68441
1.69918
1.71179
1.72095
1.70363
1.67113
1.66122
1.67333
1.69268
1.71947
1.77808
1.84064
1.88078
1.91154
1.93701
1.93108
1.90492
1.88754
1.88845
1.92654
1.94597
3.84449
17.6267
1.14517
1.18058
1.18651
1.19008
1.1737
1.12731
1.11026
1.11162
1.11704
1.13251
1.16367
1.19652
1.21661
1.22524
1.22724
1.21611
1.19603
1.18969
1.19308
1.19853
1.20849
1.22408
1.23758
1.24727
1.25473
1.25965
1.26231
1.2661
1.27345
1.28085
1.28682
1.29019
1.29205
1.29379
1.29295
1.29252
1.29527
1.30135
1.32309
1.347
1.35923
1.36654
1.37266
1.37623
1.36366
1.35046
1.34997
1.35437
1.3603
1.36879
1.39296
1.42325
1.43929
1.44782
1.45423
1.45823
1.44702
1.42945
1.42739
1.43341
1.44134
1.45063
1.47451
1.51085
1.53236
1.54376
1.55237
1.55952
1.55471
1.52939
1.5162
1.5211
1.53159
1.54405
1.57135
1.62065
1.65403
1.67105
1.68402
1.69586
1.69106
1.65869
1.63506
1.63487
1.65237
1.6752
1.71648
1.78008
1.83208
1.86843
1.89953
1.91419
1.89642
1.87441
1.85777
1.86766
1.86263
3.74049
17.4276
1.14077
1.179
1.18339
1.17522
1.14679
1.12084
1.11154
1.11228
1.11744
1.12745
1.14903
1.18314
1.20193
1.20626
1.20189
1.19283
1.1905
1.19191
1.19394
1.19883
1.20523
1.21223
1.22027
1.22603
1.2293
1.23574
1.24673
1.25865
1.26898
1.2763
1.28166
1.28426
1.27808
1.27128
1.26934
1.27197
1.27685
1.28531
1.30991
1.33608
1.34843
1.35499
1.36041
1.36252
1.34959
1.33499
1.33413
1.33881
1.34486
1.35272
1.37336
1.40416
1.42213
1.43119
1.43756
1.44259
1.43765
1.41927
1.41137
1.41589
1.42377
1.43243
1.44994
1.4843
1.50921
1.52172
1.53085
1.5392
1.54358
1.52549
1.50412
1.5016
1.51076
1.52251
1.54026
1.58215
1.6261
1.64954
1.6637
1.67634
1.68117
1.65797
1.62954
1.61945
1.6265
1.64444
1.67047
1.72018
1.77801
1.8222
1.85666
1.88658
1.89202
1.87884
1.85525
1.84233
1.80384
3.65825
17.3493
1.12353
1.15289
1.15323
1.14058
1.12941
1.12426
1.12087
1.12277
1.12898
1.13607
1.14153
1.14979
1.16415
1.17486
1.17943
1.18359
1.19225
1.2009
1.20558
1.20669
1.20717
1.20405
1.19612
1.19368
1.19801
1.21093
1.23509
1.2566
1.26831
1.27472
1.2793
1.28085
1.26801
1.25137
1.24902
1.25357
1.26052
1.27161
1.29761
1.32482
1.33758
1.34411
1.34847
1.34861
1.33847
1.32504
1.32178
1.32646
1.33295
1.34121
1.35832
1.38737
1.40716
1.41697
1.42363
1.42957
1.43196
1.4184
1.40438
1.40355
1.40952
1.41706
1.42821
1.45746
1.48996
1.50696
1.51716
1.52615
1.53485
1.52956
1.50471
1.49296
1.49644
1.50616
1.51813
1.54451
1.59451
1.63196
1.65151
1.6655
1.67743
1.6721
1.64442
1.62407
1.61839
1.62619
1.64376
1.6743
1.72632
1.77747
1.81731
1.84964
1.87557
1.87618
1.86446
1.84116
1.77133
3.57513
17.3521
1.10129
1.10895
1.11138
1.11398
1.11998
1.12851
1.13762
1.14232
1.14309
1.14147
1.13429
1.12522
1.12561
1.13631
1.15741
1.18183
1.20011
1.21
1.21539
1.21728
1.20966
1.18979
1.17557
1.17472
1.17886
1.18956
1.2223
1.25492
1.26745
1.2734
1.27792
1.27788
1.26135
1.24306
1.24095
1.24479
1.25022
1.26083
1.28576
1.31297
1.32691
1.33363
1.3372
1.33925
1.3372
1.32563
1.31868
1.32092
1.32665
1.33298
1.3441
1.3699
1.39399
1.40671
1.41501
1.4225
1.42925
1.42598
1.40737
1.39818
1.39877
1.40405
1.41185
1.43057
1.46977
1.49822
1.51241
1.52233
1.53128
1.53569
1.51584
1.49368
1.48727
1.49152
1.50203
1.5172
1.55583
1.60776
1.64016
1.65881
1.67387
1.68453
1.67123
1.63996
1.62151
1.61978
1.6296
1.64786
1.68096
1.73071
1.77511
1.80985
1.83901
1.85749
1.85738
1.84384
1.78218
3.50287
17.4078
1.08825
1.07765
1.08128
1.09322
1.11387
1.13657
1.14838
1.15376
1.15494
1.14491
1.12261
1.11293
1.11389
1.11967
1.14404
1.18282
1.20517
1.21312
1.21843
1.22029
1.20451
1.1768
1.1677
1.16978
1.17371
1.18336
1.21474
1.24937
1.26413
1.27052
1.27434
1.27114
1.25617
1.24394
1.24217
1.24582
1.25102
1.25837
1.27642
1.30115
1.31595
1.32382
1.32986
1.33602
1.34081
1.33436
1.32314
1.32056
1.32267
1.32655
1.33228
1.34939
1.38047
1.40108
1.41242
1.4208
1.42807
1.43279
1.41801
1.39765
1.39117
1.39398
1.40121
1.41258
1.44561
1.48829
1.51128
1.52299
1.53167
1.53812
1.52966
1.50035
1.48386
1.48283
1.49086
1.50258
1.52314
1.57089
1.6207
1.65053
1.66854
1.68328
1.68862
1.67042
1.64268
1.62619
1.62456
1.63404
1.6524
1.68749
1.73494
1.77423
1.80325
1.82486
1.83535
1.83429
1.79974
3.47098
17.4772
1.07756
1.07276
1.07866
1.09693
1.12365
1.14196
1.15075
1.15601
1.15345
1.13038
1.11247
1.10999
1.11289
1.12256
1.15475
1.19009
1.20573
1.2137
1.21901
1.2145
1.18755
1.17045
1.16971
1.17264
1.1769
1.18929
1.22147
1.24615
1.258
1.26415
1.26541
1.26121
1.25443
1.24714
1.24527
1.24835
1.25338
1.25866
1.26805
1.28915
1.30709
1.31831
1.32792
1.33625
1.34269
1.34513
1.33286
1.32143
1.31767
1.31912
1.32415
1.33406
1.36465
1.39695
1.41304
1.42197
1.42901
1.43487
1.42867
1.40223
1.38906
1.38951
1.39634
1.40537
1.42547
1.47087
1.50684
1.5223
1.53097
1.53767
1.54056
1.52153
1.494
1.48498
1.48746
1.49621
1.50731
1.52926
1.5799
1.62719
1.65505
1.67326
1.68818
1.69292
1.67616
1.64873
1.63109
1.62858
1.63755
1.65617
1.69273
1.73838
1.77283
1.79564
1.80853
1.81477
1.80692
3.47344
17.5278
1.07379
1.07594
1.08527
1.11346
1.13472
1.14412
1.14968
1.15122
1.13256
1.11393
1.11087
1.11352
1.11751
1.1351
1.1749
1.19621
1.20536
1.21154
1.21198
1.19096
1.17135
1.16778
1.17078
1.17515
1.18287
1.20405
1.2287
1.24438
1.25194
1.25478
1.25391
1.25532
1.25705
1.25391
1.2516
1.25282
1.25505
1.25798
1.2625
1.27559
1.30052
1.31873
1.3301
1.33808
1.34451
1.35017
1.34413
1.32277
1.31281
1.31387
1.31954
1.32765
1.35058
1.3902
1.41339
1.42338
1.42999
1.43449
1.43377
1.41476
1.39383
1.39024
1.39569
1.40437
1.41438
1.44313
1.48885
1.51575
1.5278
1.53643
1.5454
1.54723
1.52237
1.49847
1.49106
1.4912
1.49764
1.5088
1.53488
1.58787
1.6345
1.66277
1.68135
1.6951
1.69589
1.68171
1.65591
1.63573
1.63105
1.63886
1.65756
1.69603
1.74028
1.76976
1.78534
1.79308
1.80365
3.50043
17.5562
1.06936
1.08777
1.11688
1.13545
1.14336
1.14844
1.15005
1.13049
1.10835
1.10479
1.10813
1.11329
1.1244
1.16
1.19135
1.20308
1.20791
1.20756
1.19027
1.17254
1.16745
1.1689
1.17321
1.18256
1.19766
1.21221
1.22763
1.23799
1.24273
1.2445
1.24874
1.25638
1.26172
1.26368
1.25909
1.25591
1.25513
1.25589
1.25905
1.26599
1.29096
1.31876
1.3326
1.3398
1.34557
1.35086
1.34977
1.32876
1.3137
1.31398
1.31908
1.32591
1.34042
1.37677
1.40898
1.42202
1.42855
1.43352
1.43818
1.43324
1.41115
1.39864
1.39826
1.40215
1.40879
1.41935
1.45438
1.49995
1.52515
1.53878
1.54914
1.55806
1.55424
1.52365
1.49876
1.49161
1.49454
1.50229
1.51327
1.53925
1.59232
1.63811
1.6661
1.68552
1.69854
1.69942
1.68638
1.65946
1.6363
1.62998
1.63703
1.65583
1.69673
1.73892
1.7626
1.77199
1.78995
3.54264
17.5753
1.06438
1.10856
1.14336
1.15277
1.1564
1.15567
1.13878
1.10962
1.10084
1.10305
1.1071
1.11518
1.14092
1.17372
1.19411
1.20236
1.20203
1.18794
1.1755
1.17221
1.17198
1.17633
1.18674
1.19947
1.20663
1.20966
1.21355
1.22302
1.23286
1.24115
1.25143
1.26063
1.26848
1.27419
1.272
1.26138
1.2546
1.25281
1.25532
1.26053
1.27899
1.31425
1.33369
1.34204
1.34775
1.35226
1.35281
1.33885
1.32016
1.31631
1.3204
1.32695
1.3346
1.35657
1.39524
1.41864
1.42864
1.43539
1.44173
1.4464
1.43445
1.4106
1.39977
1.39847
1.4023
1.40945
1.42299
1.46632
1.51379
1.53794
1.54925
1.55795
1.56683
1.5602
1.52868
1.50498
1.4978
1.49826
1.50444
1.5156
1.54567
1.60009
1.64418
1.67043
1.68862
1.69879
1.69775
1.68547
1.65831
1.63375
1.62665
1.63261
1.65187
1.69479
1.73244
1.74937
1.77083
3.596
17.6016
1.06515
1.12388
1.14963
1.15735
1.16177
1.15356
1.12333
1.10662
1.10372
1.10609
1.11577
1.13685
1.15644
1.17177
1.18351
1.18616
1.17926
1.17319
1.17565
1.18056
1.18823
1.19633
1.2026
1.20811
1.20692
1.19803
1.19519
1.20201
1.22295
1.24392
1.25927
1.27144
1.27988
1.28626
1.28746
1.26976
1.25243
1.24723
1.24978
1.25516
1.26856
1.30453
1.3332
1.34398
1.35026
1.35466
1.35743
1.35128
1.33275
1.32254
1.3228
1.32684
1.33295
1.34146
1.37006
1.4084
1.42878
1.43854
1.44548
1.45205
1.45428
1.43379
1.40941
1.40013
1.39929
1.40287
1.4101
1.42703
1.47695
1.52361
1.54528
1.55821
1.56889
1.57687
1.56494
1.52922
1.50425
1.49799
1.50221
1.51076
1.52433
1.55613
1.60671
1.64554
1.66877
1.68535
1.69435
1.69349
1.68191
1.65501
1.62995
1.62232
1.62698
1.64668
1.68887
1.71868
1.74509
3.66208
17.6428
1.08118
1.12859
1.14833
1.15447
1.14966
1.12956
1.11627
1.11294
1.11465
1.12374
1.14156
1.15314
1.15798
1.15991
1.15692
1.15911
1.16613
1.17342
1.18459
1.2012
1.2135
1.21911
1.21857
1.21109
1.19504
1.18319
1.18321
1.18873
1.21063
1.24776
1.27347
1.28522
1.29152
1.2959
1.29518
1.27381
1.24829
1.24357
1.2469
1.25251
1.26249
1.29279
1.32937
1.34605
1.35282
1.35698
1.35981
1.36011
1.34891
1.33194
1.32544
1.32659
1.33078
1.33626
1.34639
1.38213
1.4202
1.4376
1.44612
1.45376
1.46104
1.45995
1.43265
1.40737
1.39855
1.39781
1.40291
1.41132
1.43417
1.49045
1.53694
1.55744
1.56766
1.57517
1.57761
1.56432
1.53489
1.51428
1.50898
1.51207
1.51915
1.53161
1.56274
1.60918
1.64385
1.66499
1.6802
1.68946
1.69021
1.67951
1.65172
1.62476
1.61568
1.61839
1.63886
1.67642
1.71128
3.73172
17.6932
1.09814
1.12277
1.13199
1.13141
1.12118
1.11767
1.12146
1.12515
1.13632
1.15055
1.15917
1.16277
1.15433
1.13572
1.13084
1.13644
1.15384
1.17835
1.20491
1.22377
1.23251
1.23718
1.23404
1.20806
1.17962
1.17361
1.17628
1.18183
1.20267
1.25265
1.28354
1.29365
1.29912
1.30094
1.29227
1.27022
1.2511
1.24611
1.24939
1.25644
1.26804
1.28388
1.31443
1.34075
1.3518
1.35657
1.35948
1.36458
1.36671
1.35202
1.33562
1.33008
1.32871
1.33005
1.3354
1.35088
1.39533
1.43203
1.44853
1.45802
1.46524
1.47083
1.46127
1.42597
1.4033
1.3999
1.40538
1.41396
1.42143
1.44047
1.49327
1.53637
1.5555
1.56671
1.57677
1.58348
1.57466
1.54939
1.52721
1.51726
1.51727
1.52338
1.53449
1.56603
1.61116
1.64394
1.66444
1.67934
1.68895
1.68987
1.67651
1.64633
1.61641
1.60423
1.60575
1.62593
1.66895
3.79283
17.7516
1.10264
1.10869
1.10697
1.10526
1.10676
1.11209
1.1281
1.14982
1.16311
1.16902
1.17115
1.16314
1.136
1.12071
1.12044
1.12506
1.14359
1.18821
1.2243
1.23699
1.24292
1.24569
1.23569
1.19926
1.1772
1.17494
1.17799
1.18428
1.20735
1.2544
1.28518
1.29606
1.29956
1.292
1.2827
1.27525
1.26327
1.25801
1.26128
1.26947
1.27617
1.27993
1.28904
1.31815
1.34219
1.35351
1.36164
1.36933
1.37604
1.37589
1.35488
1.33472
1.32608
1.32494
1.32963
1.33705
1.36133
1.41317
1.44616
1.45786
1.46248
1.46667
1.47205
1.46157
1.43094
1.41448
1.41193
1.41251
1.41562
1.42218
1.44052
1.49047
1.53649
1.56175
1.576
1.58675
1.59269
1.58826
1.56414
1.53549
1.51962
1.51778
1.52414
1.53748
1.57277
1.61798
1.64922
1.66732
1.6797
1.68674
1.68497
1.66958
1.63799
1.60634
1.58995
1.58678
1.61571
3.82561
17.8137
1.10419
1.08677
1.08378
1.08994
1.10204
1.12095
1.14934
1.16992
1.17843
1.18278
1.17703
1.14498
1.11988
1.11591
1.11861
1.12373
1.14606
1.20189
1.23221
1.24138
1.2465
1.24373
1.21914
1.19412
1.18236
1.18068
1.1852
1.20094
1.22304
1.2471
1.27107
1.28126
1.28073
1.27521
1.2777
1.28333
1.28625
1.2808
1.27687
1.27752
1.27634
1.27312
1.27421
1.28704
1.32369
1.35133
1.36547
1.37531
1.38202
1.38759
1.37761
1.3454
1.32704
1.32527
1.32956
1.3359
1.34513
1.37281
1.42114
1.44814
1.45964
1.46883
1.47674
1.48272
1.47101
1.44093
1.42107
1.41441
1.41463
1.41728
1.42296
1.4377
1.48492
1.53792
1.56856
1.58556
1.5971
1.60122
1.59386
1.56718
1.53504
1.51954
1.51999
1.52877
1.54448
1.57937
1.62225
1.64975
1.66527
1.67548
1.68115
1.67691
1.66217
1.62921
1.59644
1.57165
1.55872
3.80973
17.8752
1.0917
1.07303
1.07378
1.08004
1.10391
1.14472
1.17031
1.1795
1.18441
1.18637
1.16473
1.12868
1.11653
1.11766
1.121
1.12946
1.16524
1.21074
1.23327
1.24224
1.24298
1.22498
1.20804
1.19866
1.19377
1.19669
1.2087
1.22286
1.22859
1.23222
1.23876
1.25541
1.26736
1.27411
1.28215
1.29515
1.30626
1.30919
1.29672
1.28213
1.27016
1.26315
1.26464
1.27067
1.29618
1.34245
1.3684
1.37843
1.38499
1.38888
1.38927
1.37031
1.34073
1.33078
1.33266
1.33756
1.34255
1.34968
1.3766
1.42617
1.45694
1.47006
1.47758
1.48593
1.49335
1.48478
1.45303
1.42836
1.41787
1.41456
1.41705
1.42378
1.44089
1.49346
1.5473
1.57465
1.58844
1.59605
1.59673
1.59138
1.56959
1.54124
1.5274
1.52769
1.53269
1.54519
1.57901
1.62007
1.6459
1.66092
1.67176
1.67579
1.67121
1.65418
1.61874
1.57524
1.52998
3.74188
17.9367
1.0775
1.06938
1.07268
1.08027
1.11627
1.16535
1.18254
1.18843
1.19044
1.17614
1.14215
1.12295
1.11945
1.12113
1.12787
1.15114
1.18295
1.20933
1.22434
1.22766
1.21659
1.20605
1.20733
1.21025
1.21386
1.22051
1.22724
1.23091
1.22571
1.21312
1.21172
1.22463
1.25418
1.27812
1.2974
1.31209
1.32018
1.3248
1.31624
1.2862
1.26336
1.25763
1.26041
1.26563
1.27696
1.31951
1.36273
1.3787
1.38451
1.38622
1.38874
1.39022
1.37289
1.34978
1.34188
1.3421
1.34357
1.34549
1.35171
1.37698
1.42732
1.46006
1.47688
1.48986
1.49891
1.50469
1.49245
1.45591
1.42726
1.41735
1.41929
1.42625
1.43536
1.45119
1.49436
1.54216
1.56833
1.58182
1.59008
1.5956
1.59696
1.57925
1.54881
1.5288
1.52475
1.52957
1.54111
1.57592
1.61853
1.64567
1.66182
1.67037
1.66957
1.66285
1.64336
1.59783
1.52825
3.64479
18.0003
1.06969
1.06856
1.0719
1.08704
1.13762
1.17465
1.187
1.19266
1.18793
1.15646
1.13355
1.12648
1.12669
1.13405
1.15461
1.17233
1.18236
1.19319
1.20005
1.20177
1.20308
1.20683
1.21295
1.22752
1.24041
1.24566
1.24265
1.22945
1.20873
1.19844
1.19991
1.20706
1.23557
1.28248
1.31305
1.3254
1.33133
1.33308
1.3243
1.29051
1.2638
1.25844
1.26141
1.26805
1.27844
1.29534
1.33564
1.36764
1.38007
1.38579
1.39148
1.39884
1.40202
1.38408
1.35974
1.34849
1.3441
1.34268
1.34623
1.35326
1.37839
1.43321
1.47294
1.48864
1.49586
1.50175
1.50639
1.4991
1.4687
1.44099
1.43066
1.42975
1.43147
1.43697
1.45128
1.49347
1.54259
1.5712
1.5866
1.59702
1.6027
1.60299
1.58286
1.54778
1.52682
1.52169
1.52522
1.53766
1.57511
1.62011
1.6468
1.65905
1.66161
1.65883
1.65291
1.62524
1.56064
3.54751
18.075
1.06825
1.07005
1.07684
1.10685
1.14829
1.17518
1.18483
1.18335
1.16228
1.14441
1.13834
1.13794
1.14511
1.16222
1.1758
1.18102
1.17802
1.16733
1.16606
1.1777
1.19674
1.21573
1.23546
1.25013
1.258
1.26164
1.25383
1.22067
1.19521
1.19097
1.19409
1.19993
1.22293
1.28268
1.31843
1.33004
1.33585
1.33534
1.32286
1.3014
1.27583
1.26623
1.26895
1.27778
1.2851
1.29012
1.29995
1.3355
1.36885
1.3856
1.39649
1.40611
1.41296
1.41476
1.39427
1.36513
1.34969
1.34665
1.34825
1.35061
1.35615
1.3777
1.43151
1.47018
1.48781
1.50043
1.5103
1.51529
1.50766
1.47717
1.44437
1.42928
1.42857
1.43354
1.44109
1.45571
1.49753
1.54563
1.57341
1.58716
1.59485
1.60117
1.6025
1.58452
1.55076
1.52753
1.52021
1.52161
1.5338
1.57424
1.6182
1.64125
1.65028
1.64929
1.64906
1.63841
1.60604
3.49007
18.1559
1.07188
1.07809
1.10165
1.12432
1.14303
1.15769
1.16104
1.15307
1.14607
1.14752
1.15107
1.16107
1.17465
1.18269
1.186
1.18139
1.16012
1.14717
1.1482
1.15862
1.19045
1.23135
1.25709
1.2671
1.27172
1.27081
1.25093
1.21424
1.19536
1.19328
1.19627
1.2055
1.22975
1.27153
1.31078
1.32548
1.32667
1.31688
1.31394
1.31471
1.30588
1.29156
1.28654
1.28727
1.28707
1.2852
1.28609
1.29563
1.33431
1.37503
1.39583
1.4068
1.41631
1.42497
1.42791
1.40594
1.37286
1.3552
1.34771
1.34702
1.35205
1.35918
1.38205
1.43906
1.4839
1.5012
1.50851
1.51259
1.51353
1.50824
1.48362
1.45305
1.43824
1.43629
1.44007
1.4468
1.45871
1.49791
1.54526
1.57134
1.58445
1.594
1.60393
1.60845
1.5898
1.553
1.5247
1.51533
1.5163
1.52724
1.56993
1.61311
1.63429
1.63948
1.63952
1.63576
1.63753
3.48784
18.2306
1.08806
1.10482
1.12239
1.1287
1.1303
1.12548
1.12529
1.13377
1.14379
1.15699
1.17603
1.19126
1.19874
1.20077
1.1922
1.16506
1.1414
1.13681
1.13986
1.14681
1.18053
1.23832
1.26632
1.27612
1.28121
1.27815
1.24988
1.21761
1.20206
1.20122
1.20945
1.22654
1.23827
1.2495
1.27415
1.29715
1.30608
1.3102
1.31552
1.32485
1.33515
1.33314
1.31405
1.29812
1.28832
1.27958
1.27567
1.27872
1.2917
1.33653
1.3817
1.40598
1.42235
1.43135
1.43666
1.43527
1.40447
1.36409
1.34898
1.34953
1.35495
1.36396
1.37544
1.39384
1.43807
1.47664
1.49395
1.50257
1.50925
1.51451
1.51725
1.5011
1.46953
1.44901
1.44186
1.44037
1.44356
1.45713
1.50148
1.55282
1.58059
1.59404
1.60309
1.61087
1.61091
1.59051
1.55104
1.52099
1.50989
1.51002
1.52119
1.5645
1.60719
1.62607
1.62997
1.62564
1.65069
3.53281
18.3036
1.11306
1.12408
1.12934
1.12811
1.10807
1.09701
1.09996
1.11568
1.14491
1.17761
1.20078
1.21087
1.21463
1.21392
1.19383
1.15334
1.13665
1.13655
1.13987
1.14623
1.1755
1.23515
1.26759
1.27732
1.27708
1.26329
1.24961
1.23432
1.22371
1.22326
1.23007
1.2367
1.23933
1.23422
1.23388
1.25387
1.28739
1.30945
1.32607
1.34391
1.355
1.35918
1.34717
1.31509
1.28628
1.27138
1.26958
1.27409
1.28056
1.29784
1.35557
1.40716
1.42509
1.43199
1.43403
1.43
1.42087
1.39962
1.37589
1.36817
1.36972
1.37354
1.37614
1.37929
1.38809
1.42329
1.46986
1.49701
1.51204
1.52297
1.53049
1.53116
1.51368
1.47515
1.44643
1.43735
1.43949
1.44611
1.46222
1.5104
1.5594
1.58435
1.59568
1.60216
1.60468
1.60591
1.59407
1.55394
1.51978
1.50543
1.50224
1.51274
1.55748
1.5987
1.61585
1.615
1.65013
3.60482
18.3716
1.13765
1.14114
1.13304
1.10872
1.087
1.08345
1.0866
1.09763
1.14059
1.1927
1.21725
1.22556
1.22894
1.21945
1.18353
1.15315
1.14132
1.14098
1.14661
1.16383
1.18577
1.21593
1.24678
1.25869
1.25855
1.25558
1.25815
1.25959
1.25588
1.24922
1.24469
1.23986
1.22726
1.21735
1.21785
1.22554
1.25598
1.30394
1.3397
1.35843
1.36666
1.37107
1.37013
1.34156
1.29436
1.27481
1.27371
1.27895
1.29004
1.30477
1.3264
1.37053
1.40404
1.41542
1.41873
1.42123
1.42583
1.43127
1.42469
1.40469
1.3888
1.37963
1.37253
1.36895
1.37161
1.38068
1.4213
1.47985
1.51149
1.52348
1.52909
1.53157
1.53115
1.51455
1.47799
1.45403
1.44855
1.45039
1.45489
1.46497
1.5054
1.55297
1.57722
1.58977
1.60126
1.60809
1.61262
1.60031
1.55482
1.51283
1.49455
1.49146
1.50197
1.55005
1.59038
1.601
1.64138
3.68471
18.4294
1.15229
1.15362
1.1313
1.09588
1.08274
1.08347
1.08671
1.09341
1.13262
1.19688
1.22153
1.22967
1.23283
1.2163
1.18567
1.16279
1.15462
1.15657
1.16773
1.18041
1.18546
1.19047
1.20577
1.23232
1.24933
1.2597
1.27216
1.28104
1.28334
1.27445
1.25689
1.23474
1.21614
1.21049
1.21282
1.21751
1.2305
1.28326
1.34018
1.36096
1.36824
1.36884
1.36052
1.3463
1.32249
1.29906
1.29379
1.29905
1.30746
1.31488
1.31847
1.32322
1.34688
1.38152
1.4044
1.4203
1.43615
1.44875
1.45544
1.45094
1.42345
1.39093
1.37258
1.3693
1.37204
1.3781
1.39179
1.43316
1.48596
1.51233
1.52216
1.52372
1.52745
1.53296
1.52428
1.49361
1.46693
1.45244
1.44531
1.44327
1.45318
1.49609
1.54749
1.57848
1.59723
1.60823
1.61323
1.61569
1.59944
1.55
1.50167
1.48185
1.48067
1.49535
1.54532
1.5747
1.62071
3.76467
18.4753
1.15949
1.15168
1.11638
1.09317
1.08695
1.08778
1.09115
1.1052
1.14357
1.19025
1.21583
1.22325
1.21852
1.20714
1.1963
1.18419
1.17762
1.17755
1.18162
1.18516
1.18165
1.17498
1.17829
1.19914
1.2384
1.26878
1.28591
1.29494
1.29883
1.29469
1.27195
1.23909
1.21908
1.21415
1.2168
1.22598
1.24098
1.26485
1.31038
1.34349
1.35312
1.35234
1.34921
1.3509
1.35353
1.34763
1.33195
1.32209
1.3191
1.31552
1.30585
1.30024
1.30506
1.32754
1.37332
1.41793
1.4447
1.45698
1.46448
1.46875
1.45997
1.42539
1.39119
1.37785
1.37767
1.38382
1.39302
1.4016
1.43147
1.4779
1.50436
1.51557
1.52508
1.53727
1.54465
1.53678
1.50106
1.46369
1.44175
1.4344
1.43619
1.4467
1.49131
1.5519
1.58678
1.6016
1.60692
1.6106
1.6128
1.59446
1.54364
1.49497
1.47489
1.47215
1.49156
1.53199
1.5879
3.83427
18.5093
1.16737
1.15199
1.1136
1.09752
1.09415
1.09704
1.10795
1.12465
1.14108
1.16691
1.19231
1.20462
1.20844
1.21068
1.21038
1.20795
1.20256
1.19657
1.19058
1.18117
1.17059
1.16771
1.17057
1.17736
1.21187
1.26329
1.28796
1.29744
1.3023
1.30387
1.29411
1.26084
1.23475
1.22809
1.23217
1.2414
1.24882
1.25432
1.2648
1.29483
1.32429
1.33924
1.34822
1.36211
1.37644
1.38288
1.37659
1.35499
1.33129
1.3098
1.29496
1.29026
1.29347
1.2998
1.32451
1.39067
1.44142
1.45815
1.46461
1.46567
1.46058
1.45399
1.43198
1.404
1.39082
1.38913
1.39074
1.39081
1.39673
1.42386
1.47502
1.50959
1.52559
1.53538
1.54386
1.54953
1.53928
1.50029
1.46013
1.43948
1.43388
1.43651
1.44843
1.49472
1.55313
1.58286
1.59572
1.60199
1.60701
1.60719
1.59022
1.54289
1.49162
1.46779
1.46404
1.47899
1.54741
3.87675
18.5318
1.1619
1.15103
1.12062
1.10853
1.10861
1.11407
1.12574
1.13399
1.13765
1.14324
1.16219
1.18891
1.20744
1.21679
1.22202
1.22531
1.22289
1.2118
1.1961
1.18038
1.17142
1.17027
1.17443
1.18228
1.19262
1.22858
1.27114
1.28858
1.29454
1.29689
1.29782
1.29258
1.27169
1.25424
1.2487
1.24968
1.25127
1.24703
1.24478
1.25156
1.27915
1.31835
1.3508
1.37445
1.39106
1.39865
1.40205
1.39273
1.3567
1.31619
1.29546
1.29154
1.29521
1.30203
1.31713
1.34837
1.40069
1.43606
1.44944
1.4545
1.45719
1.46168
1.46571
1.45342
1.42435
1.40226
1.39102
1.38685
1.38666
1.39193
1.42142
1.4792
1.51578
1.53035
1.53843
1.54521
1.54833
1.53878
1.50189
1.46167
1.44277
1.43905
1.44064
1.44868
1.49122
1.54845
1.58083
1.59439
1.60131
1.60556
1.60411
1.58776
1.54428
1.48942
1.45771
1.44538
1.49699
3.88289
18.5538
1.15938
1.15718
1.13605
1.12525
1.12345
1.12605
1.13172
1.13552
1.13694
1.13811
1.14205
1.1602
1.19428
1.21733
1.22794
1.23281
1.2342
1.22864
1.21187
1.19249
1.18172
1.18134
1.18543
1.18742
1.18803
1.19327
1.22633
1.26929
1.28891
1.29706
1.30481
1.31096
1.30966
1.29041
1.26861
1.25593
1.24802
1.24164
1.23811
1.24028
1.24758
1.27642
1.33214
1.37561
1.39345
1.4
1.40256
1.40008
1.38614
1.35032
1.31854
1.30827
1.31051
1.3178
1.32581
1.3305
1.34085
1.37796
1.42105
1.44533
1.45783
1.46848
1.47758
1.48357
1.47192
1.43518
1.4027
1.38654
1.38183
1.38495
1.39209
1.42828
1.48942
1.5224
1.53463
1.54239
1.54924
1.55072
1.53903
1.50387
1.4688
1.44843
1.44059
1.44044
1.44643
1.48197
1.53986
1.57677
1.5929
1.59925
1.60277
1.59811
1.58395
1.54391
1.48971
1.44189
1.44795
3.84073
18.5878
1.16062
1.16486
1.15319
1.14024
1.1344
1.13376
1.13592
1.13938
1.14161
1.13836
1.13681
1.13975
1.16041
1.19934
1.22067
1.23068
1.23893
1.24482
1.24447
1.22583
1.20443
1.19476
1.18988
1.18377
1.18136
1.18392
1.19182
1.22773
1.27469
1.29996
1.31162
1.31937
1.32453
1.32255
1.30202
1.27576
1.2559
1.24369
1.24067
1.24534
1.25267
1.26011
1.28516
1.34243
1.37801
1.38832
1.3914
1.39294
1.39537
1.39288
1.37183
1.34523
1.33161
1.32787
1.32354
1.31707
1.31736
1.32555
1.366
1.42565
1.46106
1.47607
1.48538
1.48928
1.49066
1.47636
1.42896
1.39387
1.38373
1.38691
1.39549
1.40572
1.43963
1.49379
1.52251
1.53359
1.53948
1.54159
1.54446
1.54214
1.51777
1.48253
1.45366
1.4395
1.43642
1.43896
1.47007
1.53153
1.57319
1.59082
1.5977
1.59738
1.58964
1.57587
1.54165
1.48035
1.4307
3.75292
18.6473
1.1544
1.15993
1.15886
1.15741
1.15195
1.15014
1.15127
1.153
1.14979
1.13815
1.12767
1.12487
1.12932
1.15996
1.20617
1.23337
1.25135
1.26146
1.26653
1.2612
1.2315
1.19989
1.18365
1.17944
1.18076
1.1847
1.19078
1.20061
1.2313
1.27961
1.3083
1.32057
1.32552
1.32805
1.32945
1.31678
1.28721
1.26249
1.25383
1.25445
1.25751
1.26054
1.26406
1.28214
1.32974
1.36629
1.38415
1.39647
1.40659
1.41289
1.41255
1.39346
1.35924
1.33098
1.31694
1.31266
1.31337
1.31808
1.33046
1.37751
1.44122
1.47092
1.48066
1.48169
1.47965
1.47791
1.46576
1.43284
1.40983
1.40358
1.40572
1.41
1.41286
1.4328
1.4774
1.50615
1.52137
1.53571
1.54715
1.55445
1.55388
1.53069
1.48507
1.44699
1.4308
1.42728
1.42792
1.46155
1.5288
1.5728
1.58867
1.59174
1.58537
1.57804
1.5665
1.52934
1.47205
3.65275
18.7326
1.13433
1.15436
1.16647
1.17617
1.18194
1.18135
1.17599
1.16643
1.14852
1.12582
1.11476
1.11425
1.11776
1.1294
1.18243
1.24011
1.26145
1.26988
1.27439
1.27501
1.26149
1.22191
1.19168
1.18422
1.18634
1.19484
1.20245
1.20306
1.20597
1.22506
1.27335
1.30767
1.32288
1.33366
1.34173
1.34566
1.33543
1.30097
1.2724
1.26151
1.25708
1.25388
1.25536
1.26018
1.27416
1.31959
1.37443
1.40207
1.41099
1.41607
1.41944
1.41763
1.39825
1.35726
1.32682
1.3171
1.31755
1.32607
1.34054
1.35231
1.38356
1.431
1.45493
1.46198
1.46493
1.47049
1.47916
1.48357
1.46249
1.43335
1.41654
1.4061
1.39657
1.39801
1.41781
1.46447
1.5067
1.53557
1.55153
1.55784
1.56044
1.55606
1.52689
1.47904
1.43894
1.42246
1.41974
1.42671
1.45877
1.52107
1.56504
1.57954
1.57816
1.5714
1.56877
1.55478
1.53569
3.59767
18.819
1.10383
1.14935
1.17928
1.20071
1.21051
1.2127
1.20178
1.17114
1.13443
1.11306
1.10881
1.11076
1.11715
1.13144
1.16211
1.22318
1.26056
1.27088
1.26985
1.25997
1.25439
1.24872
1.22836
1.21158
1.20755
1.20782
1.20427
1.19793
1.1943
1.19702
1.21567
1.27002
1.31686
1.33817
1.3485
1.35489
1.35802
1.34663
1.30722
1.27122
1.25493
1.25339
1.25688
1.26139
1.26867
1.28532
1.32964
1.38197
1.40474
1.41245
1.41252
1.40574
1.40363
1.39616
1.36937
1.34708
1.34024
1.34216
1.34496
1.34361
1.3439
1.36191
1.41012
1.44394
1.45979
1.47495
1.49513
1.5062
1.5049
1.47742
1.43558
1.40323
1.39047
1.38882
1.39371
1.4116
1.46788
1.52199
1.54538
1.55228
1.55412
1.5509
1.54356
1.52394
1.48081
1.44143
1.42434
1.42053
1.42379
1.44638
1.50995
1.55534
1.56851
1.56623
1.56394
1.55686
1.5754
3.61163
18.8918
1.08269
1.12642
1.18766
1.21589
1.22616
1.23071
1.22567
1.18583
1.1335
1.11372
1.1112
1.11578
1.13576
1.15884
1.1717
1.1857
1.21795
1.2412
1.24767
1.25048
1.25672
1.26751
1.27379
1.26083
1.23551
1.21398
1.19592
1.18464
1.18315
1.18657
1.19266
1.21591
1.28284
1.33453
1.35136
1.35724
1.35968
1.35628
1.34148
1.30486
1.27297
1.26335
1.26546
1.27247
1.28516
1.29532
1.29994
1.32019
1.36069
1.3855
1.39478
1.40051
1.40718
1.41543
1.41991
1.40396
1.37638
1.35612
1.34257
1.33176
1.32366
1.32572
1.3472
1.40585
1.45664
1.48564
1.50243
1.51262
1.51773
1.51244
1.47569
1.42572
1.39869
1.3928
1.39663
1.40443
1.42296
1.47326
1.51537
1.53357
1.54043
1.54323
1.5424
1.54219
1.53281
1.49244
1.4485
1.42393
1.41494
1.41371
1.4363
1.50317
1.55006
1.56139
1.56063
1.55221
1.59482
3.66468
18.9609
1.07451
1.10343
1.1797
1.21783
1.22783
1.22778
1.20936
1.17982
1.15026
1.13156
1.13109
1.1459
1.16578
1.17351
1.17242
1.16064
1.15831
1.18248
1.2214
1.24884
1.2721
1.29195
1.30088
1.30128
1.27714
1.22847
1.1922
1.18005
1.18078
1.18542
1.19299
1.20737
1.24017
1.30161
1.33864
1.34854
1.34836
1.3418
1.33451
1.33124
1.32003
1.3042
1.29616
1.2958
1.29766
1.2946
1.28547
1.2833
1.29626
1.3397
1.38319
1.40755
1.42271
1.43562
1.44408
1.44618
1.42613
1.38492
1.34941
1.32852
1.32109
1.32238
1.32882
1.35294
1.41994
1.47689
1.4999
1.50786
1.50868
1.50503
1.50081
1.4769
1.43967
1.41729
1.40895
1.40665
1.40789
1.41774
1.45824
1.50439
1.53011
1.54184
1.54862
1.55172
1.55105
1.54099
1.49844
1.44674
1.415
1.40567
1.40561
1.43014
1.50004
1.54486
1.55449
1.54628
1.5974
3.74823
19.0331
1.08359
1.11083
1.14727
1.18779
1.20346
1.20135
1.19323
1.18775
1.18188
1.17726
1.176
1.17843
1.18085
1.17714
1.15405
1.13636
1.13532
1.14329
1.17706
1.24103
1.28749
1.30588
1.31252
1.31422
1.30437
1.26269
1.20767
1.18659
1.18591
1.19284
1.21085
1.23177
1.24538
1.25557
1.28213
1.31198
1.32728
1.33303
1.33806
1.34821
1.35908
1.3608
1.34592
1.3234
1.30151
1.28203
1.26891
1.26545
1.26785
1.2844
1.34199
1.40213
1.43006