/*--------------------------------*- C++ -*----------------------------------*\
  =========                 |
  \\      /  F ield         | OpenFOAM: The Open Source CFD Toolbox
   \\    /   O peration     | Website:  https://openfoam.org
    \\  /    A nd           | Version:  12
     \\/     M anipulation  |
\*---------------------------------------------------------------------------*/
FoamFile
{
    format      ascii;
    class       surfaceScalarField;
    location    "0.75";
    object      phi;
}
// * * * * * * * * * * * * * * * * * * * * * * * * * * * * * * * * * * * * * //

dimensions      [1 0 -1 0 0 0 0];

internalField   nonuniform List<scalar> 
275392
(
-7.00618e-05
1.92925e-05
5.07623e-05
8.71898e-06
4.69201e-05
-5.57935e-05
3.5111e-05
2.96499e-05
-6.47609e-05
6.57597e-05
-6.12316e-05
-5.77399e-06
5.77026e-05
-7.20639e-05
1.43613e-05
6.47351e-05
-6.66027e-05
1.86761e-06
-3.67598e-05
-2.78243e-05
6.45865e-05
-6.88696e-05
6.88696e-05
4.17228e-05
1.93631e-05
-6.10816e-05
2.53359e-05
-6.20917e-05
-6.47954e-05
-5.68928e-06
7.20764e-05
6.08446e-05
1.56086e-07
-6.0951e-05
-6.41158e-05
-4.20412e-07
6.06522e-05
-6.44131e-05
3.76097e-06
-5.85785e-05
6.05878e-05
-2.00929e-06
-6.45806e-05
6.0021e-06
-6.16053e-05
-2.97529e-06
6.67296e-05
-5.94486e-05
-7.28278e-06
7.74993e-05
-4.62394e-05
-3.12599e-05
-6.31766e-05
1.57137e-06
-6.71567e-05
6.58431e-05
1.31371e-06
-7.04495e-05
1.75438e-05
5.28977e-05
-6.82982e-06
-6.32404e-05
6.67315e-05
-5.99051e-05
-6.82643e-06
3.77772e-05
2.95082e-05
-6.72854e-05
6.54246e-05
-6.32491e-05
-2.17339e-06
-2.1909e-05
5.96862e-05
-3.63189e-05
6.56474e-05
-2.93206e-05
3.64505e-05
2.26302e-05
-5.90808e-05
6.59201e-05
8.11443e-07
6.97841e-05
-8.08867e-06
-6.16954e-05
6.59201e-05
-5.16351e-18
-6.37863e-05
-4.19966e-07
-6.60489e-05
6.73627e-05
-1.31377e-06
-6.39488e-05
-3.0317e-07
6.38642e-05
-3.02185e-06
4.03918e-05
2.38023e-05
-6.41942e-05
6.15924e-05
-6.3241e-05
1.64865e-06
-4.03532e-05
7.10077e-05
-3.06545e-05
-2.0724e-05
6.11158e-05
2.05475e-06
4.51583e-05
-4.83208e-05
6.85863e-05
-6.98872e-05
1.30089e-06
-6.12189e-05
6.16439e-05
-4.25042e-07
6.54307e-05
-6.73111e-05
1.88049e-06
6.51731e-05
-6.51731e-05
9.06756e-06
5.95187e-05
6.1224e-05
-6.06378e-05
-9.59273e-07
-9.86268e-06
5.14741e-05
-5.41145e-05
6.72339e-06
6.30607e-05
6.77619e-05
-5.86944e-05
6.77619e-05
-7.13706e-05
1.83373e-05
5.28921e-05
4.88154e-06
-6.05749e-05
5.56933e-05
-2.77436e-05
6.28546e-05
2.56313e-06
-6.24682e-05
-6.59377e-06
-6.38647e-05
6.75354e-05
-5.43198e-06
-6.13744e-05
6.35534e-05
-6.35804e-05
-2.27654e-07
7.59642e-05
-7.69924e-05
1.50067e-06
-1.17735e-06
-6.507e-05
6.6899e-05
-1.82897e-06
2.30883e-06
5.23991e-05
-5.47485e-05
-6.69417e-05
3.06288e-05
6.68326e-05
-7.08006e-05
-5.63872e-06
6.61648e-05
-1.21201e-05
-5.40447e-05
-6.34376e-05
2.34111e-06
6.10869e-05
6.48639e-05
-6.48639e-05
6.32495e-05
-6.3254e-05
-6.40138e-06
5.38901e-05
-4.74887e-05
-4.68963e-05
4.04949e-05
6.7324e-05
-6.59072e-05
-1.41681e-06
-5.93126e-05
5.77539e-05
1.02228e-06
-6.08528e-05
1.36245e-06
-3.34881e-06
-5.2834e-05
5.61828e-05
6.52412e-05
-6.2993e-05
-2.24008e-06
-6.42542e-05
8.06748e-07
6.05362e-06
5.83595e-05
-6.44131e-05
8.13919e-06
5.9967e-05
6.0724e-05
-6.80011e-05
7.31916e-06
-6.25777e-05
6.2595e-05
6.13497e-07
-6.12008e-05
-1.15042e-06
-6.06135e-05
6.4104e-05
-3.49049e-06
-7.22056e-05
2.01315e-05
5.2074e-05
-7.35097e-06
-6.40655e-05
6.68732e-05
-2.13809e-06
-6.32926e-05
2.67905e-06
-6.11802e-06
6.38206e-05
-5.62599e-05
5.94047e-05
-3.14995e-06
-6.99798e-06
0.000117709
-8.36663e-05
-1.70017e-06
-5.7223e-05
6.9325e-05
-1.1261e-05
-6.63135e-05
9.32337e-06
6.37003e-05
-2.18798e-05
6.79938e-05
-6.49541e-05
-3.03969e-06
-6.31638e-05
1.06518e-05
5.2512e-05
6.90757e-05
-3.26252e-05
6.36882e-05
-6.37005e-05
6.28675e-05
-2.21537e-06
-2.03097e-05
-4.7256e-05
6.71479e-05
-4.32938e-05
5.19074e-05
-6.36826e-05
2.50693e-06
6.11576e-05
1.04328e-06
-6.81999e-05
-5.09794e-05
6.19145e-05
-1.1071e-05
-6.11545e-05
6.40654e-05
-2.91089e-06
5.12734e-05
-4.98308e-05
7.44725e-05
-7.44725e-05
-6.4285e-05
5.8338e-07
-6.35207e-05
1.13633e-05
6.20377e-05
-6.19302e-05
-9.9972e-08
6.74271e-05
-6.74271e-05
-1.88049e-06
-6.12962e-05
4.0535e-06
5.07893e-05
-5.48463e-05
5.53842e-07
-5.66336e-05
5.60797e-05
2.51731e-05
-8.12413e-05
8.18252e-05
6.62841e-05
-6.62926e-05
6.83931e-05
-2.12392e-05
-4.71539e-05
7.1577e-05
-4.09109e-05
-3.06661e-05
5.55114e-05
-2.51531e-05
-1.2885e-05
4.17845e-05
-6.34729e-05
6.57784e-05
-2.30553e-06
6.11932e-05
-6.11931e-05
-1.15663e-05
-6.06393e-05
-6.39393e-05
6.3334e-05
7.49815e-07
-5.63491e-05
6.66167e-05
-1.00734e-05
-6.8655e-05
1.31111e-05
5.83632e-05
-6.5733e-05
7.35902e-06
-6.07552e-05
2.35705e-06
5.83981e-05
-8.67531e-05
0.000149059
3.82537e-05
-6.28418e-05
2.4588e-05
6.32024e-05
-5.88618e-06
-5.73162e-05
6.47605e-05
-6.25362e-05
-2.17062e-06
-6.16053e-05
6.7002e-05
-5.39674e-06
2.70481e-07
-6.14894e-05
-4.08108e-05
-1.81757e-05
5.89989e-05
-6.346e-05
1.85473e-06
-6.71027e-05
6.54943e-05
1.67353e-06
-6.47995e-05
3.31017e-06
6.14894e-05
-6.0781e-05
-2.67905e-06
7.15864e-05
-5.85522e-05
-5.7779e-06
-6.30092e-05
2.22825e-06
-6.30563e-05
1.60583e-05
-5.4878e-05
6.68922e-05
-1.26694e-05
-6.87122e-05
1.38142e-05
5.6783e-05
-5.67865e-05
1.19928e-09
5.57868e-05
1.04456e-06
5.90265e-05
-5.98303e-05
8.11593e-07
-6.4645e-05
-1.54563e-07
6.84317e-05
-2.59147e-05
-4.2517e-05
-7.01745e-05
4.62288e-05
2.39328e-05
6.69119e-05
-1.73881e-06
3.83053e-05
2.44721e-05
-6.27774e-05
-5.31435e-05
6.55305e-05
-1.26126e-05
-6.67275e-05
1.32578e-05
5.2293e-06
6.20947e-05
7.19222e-05
-7.19222e-05
8.04e-07
6.06939e-05
5.48041e-05
4.28449e-06
5.7986e-05
-5.74321e-05
-4.39895e-05
4.62412e-05
2.40471e-05
7.3764e-05
-7.3764e-05
6.14765e-05
-6.31766e-05
1.70017e-06
3.73779e-05
-6.19402e-05
2.45623e-05
-4.51701e-05
-2.5006e-05
7.81819e-06
6.05749e-05
-6.05878e-05
6.28289e-05
-2.24113e-06
-6.33698e-06
5.37613e-05
-4.74243e-05
-6.15409e-05
6.50056e-05
-3.46473e-06
6.1945e-05
9.67994e-07
-1.6034e-06
6.25566e-05
-6.41341e-05
1.60172e-06
6.8085e-05
7.85116e-06
6.47689e-05
-6.33662e-05
5.55135e-05
-5.46531e-05
-8.94816e-07
6.55629e-05
-6.70674e-05
5.66188e-05
-1.07302e-06
3.62058e-05
2.68034e-05
-6.30092e-05
6.45291e-05
-6.38464e-05
-6.82643e-07
6.44775e-05
-6.64739e-05
1.99641e-06
-6.18629e-05
9.26076e-06
5.26021e-05
-4.31309e-05
4.71799e-05
-5.26494e-06
-5.75096e-05
6.27665e-05
3.67339e-05
2.54252e-05
-6.21591e-05
6.70535e-05
-2.18961e-06
-6.32024e-05
-5.66722e-06
6.47867e-05
-6.46192e-05
-1.67441e-07
-6.30216e-05
-2.96946e-06
5.75609e-05
-5.15073e-05
-2.83361e-06
-5.05413e-05
5.33749e-05
6.13108e-05
-5.55811e-07
-2.18279e-06
-5.40597e-05
-5.71359e-05
1.0948e-06
5.60411e-05
6.48382e-05
-6.48382e-05
5.81405e-05
-1.98353e-06
-5.6157e-05
6.29963e-05
-2.92377e-06
-6.00726e-05
2.84559e-05
3.64755e-05
-4.31134e-05
-2.10769e-05
6.41903e-05
-4.55954e-06
-5.86042e-05
1.34431e-05
-5.42388e-05
-2.48585e-06
-5.08762e-05
5.3362e-05
-5.66164e-05
-1.75233e-06
5.84076e-05
6.29963e-05
6.11416e-05
-5.53842e-07
6.03688e-05
-6.53276e-05
4.95882e-06
1.28672e-05
5.32976e-05
5.5724e-05
-5.60366e-05
4.32597e-07
6.3706e-05
7.40087e-08
5.73491e-05
-1.33074e-06
6.33698e-05
-3.00105e-06
6.41646e-05
-6.68481e-05
2.69042e-06
-6.42415e-05
4.85242e-07
-5.15535e-05
5.31247e-05
-2.09075e-06
-4.66258e-06
-5.85785e-05
3.54459e-05
2.76792e-05
-6.31251e-05
-1.39105e-06
-5.54357e-05
5.68268e-05
-5.61864e-05
2.63399e-06
6.17212e-05
-2.44721e-07
-6.18912e-05
6.19791e-05
-5.19339e-08
1.13344e-06
-3.89106e-05
6.30221e-05
-2.41115e-05
-3.18405e-06
6.00161e-05
-5.68401e-05
4.35861e-05
2.2334e-05
5.68323e-05
-5.70146e-05
1.21257e-07
5.75984e-05
-9.52063e-07
-4.09714e-05
-2.02861e-05
6.12575e-05
6.49026e-05
-8.87435e-06
-5.60282e-05
-6.49541e-05
6.51988e-05
-2.44721e-07
5.85012e-05
6.92947e-06
6.21194e-05
-6.38049e-05
1.60462e-06
4.5531e-05
-5.1868e-05
3.8204e-06
-3.03969e-06
-5.0464e-05
5.35037e-05
-2.18961e-06
-6.38593e-05
-6.00339e-05
6.30221e-05
-2.98817e-06
6.45429e-05
-3.58958e-07
-2.25014e-05
6.07552e-05
6.36436e-05
-6.13758e-05
-2.26779e-06
-3.27673e-05
-2.88924e-05
6.16379e-05
-1.00538e-05
5.88675e-05
-4.88138e-05
1.02654e-05
-6.6358e-05
5.60926e-05
5.08817e-05
-5.6154e-05
-3.59434e-05
6.96048e-05
-3.49557e-05
3.61672e-05
2.24886e-05
-5.86557e-05
-5.25506e-05
-8.20459e-06
6.30994e-05
1.80321e-06
-3.37586e-05
-3.83053e-05
-3.18473e-05
-3.02554e-05
6.21084e-05
4.86109e-06
6.05929e-05
5.21127e-05
2.53866e-05
7.05183e-05
-6.02529e-05
6.16954e-05
-6.16954e-05
5.92833e-05
-5.78761e-05
-1.39698e-06
6.44904e-05
-6.44904e-05
5.87329e-05
6.98776e-07
-3.29735e-05
-2.35815e-05
5.65764e-05
-5.90733e-05
-7.32958e-06
6.47995e-05
9.67292e-06
-5.98167e-05
1.16903e-07
-6.04804e-05
-1.41635e-06
6.2443e-05
-3.65771e-07
-6.51215e-05
6.51215e-05
4.44362e-06
-6.5579e-05
6.63959e-05
-1.33953e-06
-6.37305e-05
6.12581e-05
-6.07239e-05
-4.29357e-07
6.06393e-05
-6.15538e-05
9.14484e-07
5.97409e-05
-1.36481e-06
5.90954e-05
2.24475e-06
6.02271e-05
-6.02271e-05
-6.72596e-05
2.62882e-05
-6.01241e-05
6.17856e-05
-1.66153e-06
5.39803e-05
-5.53713e-05
6.28177e-05
-5.16497e-05
-1.10283e-05
6.59072e-05
-6.59072e-05
6.54049e-05
-6.61133e-05
7.08403e-07
-5.85493e-05
-2.6725e-06
2.88976e-05
3.77962e-05
-1.06773e-06
6.72339e-06
5.66465e-05
6.34214e-05
-6.34214e-05
2.34031e-05
4.04176e-05
-6.38206e-05
2.9856e-05
3.85758e-05
6.46124e-05
-6.27752e-05
-1.82629e-06
-6.06779e-05
6.1953e-05
-1.27512e-06
-5.97377e-05
5.97377e-05
9.53124e-07
5.22544e-05
-5.32075e-05
3.40549e-05
2.96756e-05
-6.37305e-05
-3.73439e-05
6.15864e-05
-2.42417e-05
3.98958e-05
2.08022e-05
6.32179e-05
1.39361e-06
6.48253e-05
-6.48253e-05
-3.87086e-05
-1.84281e-05
5.68689e-05
6.95523e-06
5.71488e-05
-2.09172e-05
5.82951e-05
6.32797e-05
-6.32797e-05
7.76962e-05
-5.35142e-05
-2.41675e-05
1.36273e-06
-6.46138e-05
-6.12318e-05
5.1649e-05
9.58276e-06
6.88696e-05
-6.92303e-05
3.60641e-07
5.95058e-06
5.70715e-05
-2.04684e-06
5.79051e-05
-5.58314e-05
3.6399e-05
2.10074e-05
-5.74064e-05
6.70664e-05
-6.11158e-05
3.39338e-05
3.20005e-05
-6.59343e-05
-6.31638e-05
-3.19425e-06
6.19788e-05
-5.70973e-05
6.4711e-05
-6.46869e-05
-4.75754e-08
-6.13643e-05
6.1018e-05
3.64667e-07
4.60848e-05
-6.57011e-05
6.16568e-05
4.04434e-06
6.65498e-05
-9.62181e-06
-5.66736e-05
-6.35128e-05
2.03994e-05
2.19476e-05
-6.08582e-05
-3.67213e-05
-2.75647e-05
5.98021e-05
-6.30221e-05
3.22001e-06
-1.93201e-07
-5.1327e-05
5.15202e-05
3.81765e-05
-6.05362e-05
2.23598e-05
-5.84292e-05
-9.2879e-06
4.18473e-05
-4.46809e-05
6.40261e-05
6.77723e-07
-5.88928e-05
6.11613e-07
1.53117e-06
-6.09289e-05
2.80785e-06
-6.39623e-05
-2.83361e-06
6.44775e-05
5.87664e-05
2.52213e-06
3.32048e-05
2.47426e-05
-5.79473e-05
-5.98536e-05
6.25326e-05
-2.67905e-06
-6.93462e-05
2.8452e-05
4.08942e-05
5.15202e-07
9.06479e-06
-2.99018e-05
-2.34417e-06
-6.3357e-05
-5.58091e-05
7.8839e-07
4.68958e-05
3.07976e-05
6.12704e-05
-6.12704e-05
6.20046e-05
-6.185e-05
-1.54561e-07
-6.06405e-05
6.06933e-05
6.45723e-05
-1.89619e-08
-1.34179e-07
8.12731e-06
5.72776e-05
2.21537e-06
5.97892e-05
6.2494e-05
2.36434e-06
6.29281e-05
6.69119e-05
6.53791e-05
-5.72518e-05
3.42481e-05
2.65973e-05
-6.08454e-05
4.75918e-05
-5.00776e-05
6.4164e-05
-9.45079e-08
-3.27153e-06
5.41606e-05
-5.08891e-05
-6.50327e-05
4.52014e-06
-3.65793e-06
5.44826e-05
-5.08247e-05
-6.39881e-05
2.44721e-06
6.15409e-05
1.45533e-06
-4.6497e-06
5.36325e-05
-4.89828e-05
6.12446e-05
-6.20046e-05
7.59923e-07
-5.38901e-05
4.92404e-05
6.14932e-05
-6.08397e-05
-6.54702e-07
7.38413e-05
-5.22801e-05
-2.15612e-05
-6.35121e-05
7.90683e-05
-1.53879e-05
4.34315e-05
3.04098e-05
-5.85687e-05
-2.23605e-06
-3.83406e-05
6.16023e-05
-2.33187e-05
1.11583e-05
-9.3467e-07
2.55757e-05
-4.28161e-05
-6.95783e-05
3.76119e-05
3.28816e-05
6.30275e-05
-6.06004e-05
-2.41226e-06
-6.6036e-05
6.6036e-05
-6.48382e-05
4.16026e-06
-7.71515e-06
-5.57577e-05
-5.97882e-05
-1.62926e-06
-5.98277e-05
-3.15904e-08
5.92234e-05
-5.1649e-06
-4.1023e-05
4.61879e-05
-3.50209e-05
6.06393e-05
-2.56184e-05
-3.85899e-05
7.21102e-05
-3.35203e-05
6.70535e-05
-7.72803e-08
5.69813e-05
-5.69041e-05
-6.43874e-05
1.76457e-06
6.26228e-05
-3.01393e-06
-5.2074e-05
5.5088e-05
1.38873e-06
-6.44422e-05
-3.10219e-06
5.64122e-05
-7.49034e-06
-5.57672e-05
3.28828e-05
6.10643e-05
-4.12162e-07
-6.06522e-05
1.95721e-05
-5.69173e-05
-4.2633e-06
-5.87459e-05
-5.90343e-05
-9.40595e-06
6.81097e-05
-6.81097e-05
-5.95463e-05
1.13188e-06
3.62831e-05
-5.9699e-05
2.34159e-05
4.17571e-05
-4.6922e-05
-8.71979e-06
-5.62343e-05
6.03946e-05
-5.78958e-05
-2.49873e-06
6.07681e-05
5.53842e-07
-6.13219e-05
-6.80839e-05
5.93642e-05
-1.41554e-06
4.79614e-05
-5.03278e-05
-6.06779e-05
6.1309e-06
5.4547e-05
2.41885e-05
-5.71741e-05
5.92482e-05
-6.01112e-05
8.62963e-07
-5.2162e-05
5.77222e-05
-5.84681e-06
4.69053e-05
-6.79822e-05
6.42972e-05
-6.42972e-05
-3.9413e-06
5.43667e-05
-5.04254e-05
5.94543e-05
-6.02142e-05
7.59923e-07
-6.27387e-05
3.65793e-06
5.75867e-05
6.18447e-05
-6.17837e-05
-1.04147e-07
-4.56482e-05
-3.02978e-05
6.44003e-08
-5.58479e-05
5.57835e-05
-6.23781e-05
-7.49456e-05
2.16956e-05
0.000119329
1.16633e-06
-3.39647e-05
-2.78982e-05
6.18629e-05
1.81609e-05
1.48354e-06
5.20829e-05
-5.3431e-05
-3.11955e-05
-3.81507e-05
-6.92395e-05
2.7118e-05
4.22203e-05
-6.21205e-05
6.21205e-05
4.37922e-07
5.90164e-05
1.30089e-06
-6.28418e-05
-5.58905e-05
3.72645e-06
5.70869e-05
-7.45e-06
-5.62676e-05
8.05568e-06
-6.46901e-05
-4.27489e-05
6.61519e-05
2.35584e-06
6.23858e-05
4.97814e-05
2.07369e-05
4.81199e-05
-5.11596e-05
-2.26946e-05
5.94286e-05
-6.23652e-05
6.23652e-05
1.89735e-18
1.44312e-06
-6.12856e-05
4.43564e-05
4.62394e-06
6.23781e-05
7.30685e-05
-1.77358e-05
-5.53327e-05
-6.2172e-05
6.2172e-05
-4.50802e-07
-6.35373e-05
4.74243e-05
2.56442e-05
-5.84566e-05
-8.41044e-06
-3.75445e-05
-2.19853e-05
5.95542e-05
-5.91151e-05
6.82911e-07
-6.0924e-05
6.01992e-05
8.20034e-07
-4.5853e-06
-5.98021e-05
5.57577e-05
-5.56933e-05
-6.62679e-05
3.90266e-06
-6.75945e-05
1.32665e-06
6.22436e-05
-5.703e-05
-4.32946e-06
6.13219e-05
5.86171e-05
-6.18758e-05
3.25865e-06
-1.48593e-06
5.33414e-05
-5.1841e-05
-6.92789e-06
-5.82486e-05
-5.17817e-05
-4.84457e-06
-5.93939e-05
-4.45351e-06
6.27645e-05
-3.34881e-06
-6.40782e-05
-3.70559e-05
-1.99383e-05
5.69942e-05
-4.1014e-05
6.03527e-05
1.41681e-07
-5.72776e-05
-6.22305e-05
-2.35705e-05
5.97377e-05
-1.86941e-05
-4.52521e-05
5.98281e-05
-5.98818e-05
-6.35563e-08
1.85473e-06
-6.28289e-05
6.09742e-05
-1.61645e-05
-5.8308e-05
-4.87335e-05
5.10521e-05
-1.937e-06
-3.70945e-06
6.51859e-05
-6.14765e-05
-1.64649e-06
-5.9767e-05
3.20456e-05
-7.02607e-05
3.82151e-05
-5.78865e-05
9.37719e-06
6.20432e-05
-2.16256e-05
1.84659e-06
-6.35373e-05
6.21849e-05
1.35241e-06
5.88939e-05
-4.05653e-06
-6.22365e-05
-2.1046e-05
5.93513e-05
-6.30221e-05
6.30221e-05
4.57371e-05
-5.78572e-05
-6.03173e-05
2.49229e-05
3.75067e-05
-6.24296e-05
1.87276e-05
4.22466e-05
-6.09742e-05
5.95702e-05
-4.87738e-05
5.8951e-05
-1.05453e-05
-5.48666e-05
5.8564e-06
3.72233e-06
5.7342e-05
6.98423e-05
-6.4325e-05
-4.1725e-06
6.13956e-05
1.79481e-06
6.02864e-06
5.68831e-05
7.13555e-06
5.99309e-05
4.27e-05
-5.78416e-05
-4.85707e-05
5.07732e-05
-2.20249e-06
-4.68447e-05
-1.72593e-06
5.72358e-05
-5.75877e-05
3.41276e-07
3.99318e-07
1.09137e-06
6.26439e-05
1.78105e-05
-5.61615e-05
5.20225e-05
-1.9977e-05
-6.04585e-05
2.87859e-06
4.88283e-05
-4.69607e-05
-1.86761e-06
5.10308e-05
-2.20249e-06
6.22365e-05
-4.21178e-06
-5.69813e-05
-1.86374e-05
5.68139e-05
-6.43193e-05
4.42087e-06
3.19812e-05
-5.09277e-05
1.89466e-05
5.13785e-05
-1.93974e-05
1.96074e-05
-5.85292e-05
-2.44463e-05
6.06522e-05
-5.40962e-07
5.86815e-05
6.07681e-05
-5.91581e-05
5.99695e-05
-8.11443e-07
6.36661e-05
-6.36661e-05
-3.78673e-06
-5.80761e-05
-4.69774e-07
-6.13477e-05
5.28468e-05
8.50083e-06
-3.93357e-05
-2.27075e-05
6.20432e-05
-2.82073e-06
5.38901e-05
-5.10694e-05
-7.44338e-05
3.56391e-05
3.87947e-05
6.20432e-05
-1.81609e-06
5.17649e-05
-4.57242e-05
-6.04074e-06
4.92662e-05
2.49873e-06
-5.68525e-05
5.40318e-05
-7.33541e-05
4.22977e-05
3.11135e-05
-3.75196e-05
6.95008e-05
-3.19812e-05
-3.6014e-05
-2.16133e-05
5.73934e-05
-3.05257e-06
-6.2275e-05
8.63639e-05
1.609e-05
-7.60703e-05
5.75216e-05
-5.79712e-05
2.95881e-07
-5.34522e-06
5.64533e-05
-5.1108e-05
6.3681e-05
-1.50978e-05
-4.85952e-05
2.65384e-06
5.61421e-05
3.59115e-06
6.07166e-05
-6.38464e-05
6.34986e-05
3.47761e-07
5.1546e-05
-5.68912e-05
-2.27977e-06
4.51446e-05
-4.28648e-05
-2.07369e-06
3.2685e-05
-6.94474e-05
-6.5611e-05
5.67366e-05
-6.12819e-05
5.39803e-05
-5.98665e-05
5.86686e-05
-6.36017e-05
4.93306e-06
6.50314e-05
-5.52298e-05
-3.21765e-06
3.61414e-05
2.13551e-05
-5.74965e-05
-7.89547e-06
-6.01885e-05
5.24476e-05
-4.65227e-05
-5.92482e-06
4.94336e-05
3.01393e-06
6.03044e-05
-1.63577e-06
-3.66137e-05
6.04261e-05
-2.38854e-05
-4.34959e-05
-2.63912e-05
5.28597e-05
-5.19066e-05
2.87225e-06
6.44904e-05
4.95109e-05
5.67744e-05
9.76725e-06
4.338e-05
-4.56598e-05
3.31017e-05
2.55283e-05
-5.863e-05
-6.23008e-05
6.04074e-05
-6.13348e-05
9.27364e-07
-3.85415e-06
-5.89514e-05
-1.97207e-06
-4.21036e-05
5.62516e-05
-1.34384e-05
3.6618e-05
-5.11982e-05
1.45802e-05
5.43409e-05
-1.77229e-05
-3.57968e-05
-3.75533e-05
-7.72803e-07
-6.48382e-05
-2.9518e-06
6.47995e-05
5.2937e-05
-4.68576e-05
-6.07938e-06
4.97814e-05
3.15561e-06
-6.3035e-05
6.3035e-05
5.66336e-05
-2.44721e-07
-5.63889e-05
6.41427e-05
-4.15124e-05
4.38026e-06
5.92301e-05
6.03559e-05
-5.31946e-05
7.85812e-05
-2.18188e-05
-5.67624e-05
6.23959e-05
-5.95578e-05
-2.89115e-06
-2.34675e-05
5.98665e-05
-5.4317e-05
1.20583e-05
6.59021e-05
-6.14068e-05
-4.50038e-06
4.66258e-06
6.07166e-05
-4.47333e-05
-2.10106e-05
-3.54417e-05
-2.29949e-05
5.84792e-05
4.95624e-05
-4.7888e-05
-1.67441e-06
5.16104e-05
-2.04793e-06
-1.62185e-06
1.40393e-06
-5.90164e-05
5.76125e-05
5.78057e-05
1.58425e-06
-5.93899e-05
-5.28468e-05
1.28801e-08
-1.97997e-06
5.68169e-05
-5.47986e-05
6.65841e-05
-4.69442e-05
5.74752e-05
-1.05615e-05
1.80321e-06
6.10643e-05
-5.39291e-05
6.78685e-06
3.65665e-05
-5.09792e-05
1.44128e-05
5.43796e-05
-1.78131e-05
8.01139e-06
6.57527e-05
-1.03427e-05
-6.34214e-05
-5.66722e-07
6.08711e-05
5.23059e-05
-4.66902e-05
-5.6157e-06
6.7324e-05
5.03739e-05
1.93201e-06
4.27102e-05
-4.66515e-05
5.9377e-05
-6.32282e-05
3.85114e-06
1.30089e-06
-5.66465e-05
5.53456e-05
9.56781e-06
5.63193e-05
-6.22707e-05
6.39151e-05
-6.17127e-05
-7.22241e-05
3.44239e-05
3.75551e-05
6.70882e-05
7.47361e-07
-6.31566e-05
3.0925e-05
-4.96784e-05
1.87534e-05
5.07216e-05
-1.97966e-05
6.27516e-05
-3.37457e-06
6.06283e-05
-6.16804e-05
1.10225e-06
1.10897e-05
5.34393e-05
-5.86171e-05
-3.7043e-05
6.00082e-05
-2.29651e-05
6.18114e-05
9.40244e-07
8.03715e-05
-5.08633e-05
2.78209e-06
6.41169e-05
-6.20818e-05
-6.22106e-06
6.64482e-05
-6.02271e-05
-3.78673e-06
-5.7767e-05
2.92094e-05
4.23676e-05
4.88798e-05
2.97014e-05
6.10257e-05
7.85683e-07
5.80761e-05
8.81487e-06
5.48655e-05
1.84832e-05
-5.48203e-05
6.3885e-06
5.83981e-05
-5.6801e-05
3.52656e-05
-6.12189e-05
2.59533e-05
2.53824e-05
-5.72149e-05
-5.86171e-05
8.11443e-07
5.78057e-05
-1.27068e-05
-5.65281e-05
-1.64865e-06
6.14507e-05
-6.54182e-05
6.36539e-05
1.8032e-05
-5.73678e-05
6.29412e-05
-6.46385e-05
5.59767e-05
1.82897e-06
-3.33267e-05
-2.49768e-05
5.8317e-05
6.38673e-05
-6.3518e-05
-3.77596e-07
6.06578e-05
-5.78477e-05
-3.81189e-06
-6.29062e-05
6.29062e-05
-3.61929e-06
-5.03352e-05
5.39545e-05
5.83853e-05
6.80067e-06
6.16182e-05
-6.06393e-05
-9.78884e-07
3.63346e-05
-5.06186e-05
1.4284e-05
5.44826e-05
-1.8148e-05
-3.74681e-05
7.07501e-05
-3.3282e-05
-5.67473e-05
5.35526e-05
-7.43179e-06
6.57398e-05
-5.8308e-05
6.99387e-06
5.49592e-05
-2.12521e-06
-5.91066e-05
-4.37736e-05
-2.42392e-05
5.1868e-05
-4.75531e-05
-4.31482e-06
7.12911e-05
-2.90445e-05
2.35705e-06
5.92611e-05
-0.000149512
3.27391e-05
9.6773e-05
-6.19616e-05
6.19339e-05
-6.48098e-05
5.8347e-05
-6.2713e-05
6.2713e-05
1.73881e-06
5.01292e-05
-4.5131e-05
5.58813e-05
-1.0655e-05
-6.03559e-05
5.46629e-05
-5.32443e-05
8.14352e-06
6.06908e-05
-2.52449e-05
3.62702e-05
-5.03996e-05
1.41294e-05
5.45213e-05
-1.8251e-05
2.00339e-05
-5.75671e-05
-6.42972e-05
6.83931e-06
5.74579e-05
-4.12162e-07
6.21076e-05
-1.01778e-06
5.52291e-05
-5.31341e-05
-6.03559e-05
6.03559e-05
4.79395e-05
-6.86764e-05
2.07369e-05
-3.28441e-05
6.60489e-05
5.87147e-05
3.92136e-07
4.66129e-05
7.43179e-05
-3.55747e-05
-3.87432e-05
3.02166e-05
-4.89442e-05
1.87276e-05
5.01292e-05
-1.99126e-05
-4.20534e-05
6.44003e-05
-2.23469e-05
5.53618e-05
-3.93161e-06
-5.73432e-05
5.73935e-05
1.28801e-07
-5.75223e-05
4.46339e-06
5.77688e-05
-6.27915e-05
5.3648e-05
9.14355e-06
1.11514e-07
-5.1083e-05
4.99995e-05
8.48534e-06
4.72664e-05
-5.57929e-05
6.34775e-05
-6.14832e-05
-1.22472e-06
-7.43179e-06
-5.9171e-05
1.79033e-06
-6.16439e-05
-2.99963e-05
-3.94902e-05
-6.34325e-05
4.3999e-06
5.89262e-05
-5.91323e-05
2.06081e-07
-6.25894e-05
5.89798e-05
-4.85716e-06
-5.41011e-05
1.15502e-06
-5.30643e-05
5.17566e-05
-3.74587e-06
-6.13081e-05
5.88618e-05
-6.05749e-05
1.71305e-06
3.1891e-05
3.2316e-05
-6.42071e-05
-4.0701e-06
-5.87588e-05
6.14636e-05
-6.14636e-05
-6.46063e-05
5.71745e-05
5.575e-05
-8.84473e-06
1.94489e-06
-6.11545e-05
5.92096e-05
-7.03877e-05
7.08563e-05
-4.31468e-05
4.46815e-05
-6.09075e-05
6.05362e-05
-6.10128e-05
4.76562e-07
6.14894e-05
5.44069e-05
1.15884e-05
-9.41532e-06
-5.49978e-05
-8.01398e-05
2.79151e-05
6.19562e-05
-5.89087e-05
-3.0213e-06
5.77413e-05
-5.57964e-05
-4.73924e-06
-4.46e-05
4.56229e-05
5.9847e-05
-1.12159e-06
6.23008e-05
-6.7324e-05
3.89972e-05
-5.76106e-05
1.86369e-05
3.60641e-05
-5.00519e-05
1.39877e-05
5.46501e-05
-1.85859e-05
-1.21072e-06
-5.90164e-05
-5.15809e-05
4.15285e-05
-1.75169e-06
6.09999e-05
-5.69427e-05
5.7342e-05
-3.99282e-07
2.23598e-05
-5.94157e-05
6.57655e-05
-5.87717e-05
-6.13992e-05
2.74345e-06
6.23781e-05
4.32996e-06
5.86571e-05
-6.78135e-05
4.61106e-05
2.17029e-05
-4.37341e-05
5.45727e-05
-1.08109e-05
-5.27505e-05
9.01522e-06
6.07423e-05
-6.07938e-05
5.15202e-08
6.37176e-05
-6.57011e-05
3.59869e-05
-4.98458e-05
1.38589e-05
5.46758e-05
-1.8689e-05
-6.18242e-05
6.69763e-07
-3.43498e-05
2.41816e-05
5.57034e-05
-1.66792e-05
7.83505e-06
3.87155e-05
-4.65468e-05
-6.09226e-06
5.40318e-05
4.13957e-05
-6.28042e-05
2.92377e-06
-4.49771e-05
3.49565e-05
-6.07552e-05
2.57987e-05
-6.20046e-05
5.83466e-06
5.61699e-05
4.92147e-05
-5.24862e-05
3.48663e-05
-6.33698e-05
2.85036e-05
4.88669e-05
-5.25248e-05
-2.20893e-05
5.83724e-05
-7.55157e-05
5.77799e-05
-6.13758e-05
-4.26716e-05
3.59225e-05
-4.9717e-05
1.37945e-05
5.47145e-05
-1.8792e-05
6.60747e-05
-3.29729e-05
1.24936e-06
-5.05928e-06
-4.08645e-05
4.59238e-05
-5.863e-05
3.96706e-06
5.46629e-05
6.20818e-05
-7.65075e-06
-5.57706e-05
-6.0459e-05
6.0459e-05
1.17208e-06
-5.97506e-05
5.85785e-05
6.28053e-05
-2.96241e-07
-5.46114e-05
5.49077e-05
6.41427e-06
6.00339e-05
-3.58323e-05
5.99695e-05
-2.41372e-05
6.03637e-05
3.49739e-06
6.98743e-05
-3.22001e-05
-3.76741e-05
-5.70844e-05
-1.07291e-05
-3.14176e-05
6.26622e-05
-3.125e-05
5.80117e-05
-5.68397e-05
1.05243e-06
-6.23673e-05
5.64636e-05
-5.8493e-05
6.38464e-05
-6.34471e-05
-3.99282e-07
3.58581e-05
-4.95753e-05
1.37173e-05
5.47531e-05
-1.8895e-05
-5.87073e-05
5.98021e-05
-1.79033e-06
-5.79473e-05
-1.86761e-06
6.16053e-05
3.31121e-06
4.17691e-05
5.91706e-05
-6.13868e-05
2.3203e-06
-1.77301e-05
-4.94355e-05
6.60626e-05
7.04668e-05
-3.44928e-05
-3.5974e-05
-6.10386e-05
6.03044e-05
7.34163e-07
-6.08969e-05
-2.13809e-06
6.46063e-05
-8.23035e-06
-5.6376e-05
6.10386e-05
-2.67905e-06
-6.21462e-05
-5.80215e-05
2.78879e-06
5.54268e-05
-5.35441e-05
1.24485e-05
3.46308e-05
-5.19086e-05
1.72663e-05
3.00234e-05
-4.75918e-05
1.75684e-05
-1.99512e-05
4.99746e-05
4.88627e-05
-4.03893e-05
-6.06698e-05
-4.55052e-05
4.5312e-05
5.85656e-05
-6.01112e-05
1.54561e-06
4.85835e-05
-6.2275e-05
4.96172e-05
-1.49918e-05
-3.4467e-05
6.40654e-05
-2.95984e-05
-4.10874e-06
-5.94286e-05
3.49049e-06
5.88747e-05
-6.16184e-05
-1.91052e-06
1.03942e-05
5.53842e-05
3.10409e-06
-5.91066e-05
5.60025e-05
3.84354e-05
2.08348e-05
-5.92701e-05
-3.57035e-05
-3.87303e-05
-6.14894e-05
6.08196e-05
6.69763e-07
1.94618e-05
5.1546e-05
6.00099e-05
-5.33019e-05
-6.72395e-06
-3.19296e-05
5.16232e-05
-1.96936e-05
3.20713e-06
5.67624e-05
5.6994e-05
-8.65085e-07
6.20174e-05
3.74809e-06
-8.76195e-07
6.23267e-05
-4.46182e-05
5.34088e-05
-8.57141e-06
5.17963e-05
-5.40306e-05
2.19009e-06
9.51471e-06
-5.40751e-05
6.17865e-05
1.79806e-05
-4.99102e-05
5.9694e-05
-1.77231e-06
5.1752e-05
-5.20483e-05
6.54673e-07
5.82156e-05
5.96089e-05
-2.5554e-05
1.3099e-05
5.57706e-05
3.46473e-05
-6.28546e-05
2.82073e-05
2.78209e-06
-5.92611e-05
5.6479e-05
2.15713e-06
2.20957e-05
-6.30066e-05
-6.08969e-05
-6.48897e-05
-6.04928e-05
6.04957e-05
2.46009e-06
6.03688e-05
6.08196e-05
-5.80375e-05
-7.58635e-06
-5.55903e-05
5.42794e-05
1.12368e-05
4.92533e-05
-5.22672e-05
3.74668e-06
5.35988e-05
-5.48917e-05
-7.85683e-07
-6.2816e-05
4.23844e-05
-4.74437e-05
-5.83853e-05
-1.36529e-06
6.73662e-05
-1.07472e-05
-5.66578e-05
5.80761e-05
-3.57679e-05
-2.23082e-05
-1.78953e-06
-5.88373e-05
6.28764e-05
6.1216e-05
-5.13255e-05
-9.88137e-06
-4.99108e-06
6.40782e-05
-2.96241e-07
-6.09742e-05
5.32461e-05
-4.82744e-05
-4.9717e-06
-7.04298e-06
-5.77983e-05
5.88376e-05
1.24223e-07
-2.91862e-05
4.65614e-05
-1.73752e-05
-3.74835e-05
6.95136e-05
-3.20301e-05
3.28055e-05
1.56493e-05
-4.84547e-05
5.19581e-05
-1.91526e-05
2.06982e-05
-4.98844e-05
-5.74977e-05
5.97929e-05
-2.70085e-06
5.30203e-05
-8.6441e-06
-5.98922e-05
2.48714e-05
4.24161e-05
2.50578e-05
6.33827e-05
-3.86402e-05
1.90221e-06
4.47678e-06
-6.33815e-05
6.80556e-06
-6.35402e-05
5.77597e-05
5.72003e-05
-5.03996e-05
-6.80067e-06
-2.56957e-05
5.99438e-05
4.96628e-05
-4.18225e-05
6.14604e-05
-5.85423e-05
-2.91826e-06
1.53273e-05
-5.8273e-06
3.91425e-05
1.32407e-05
-5.23832e-05
-6.91659e-05
3.74037e-05
3.17622e-05
-7.25453e-06
-5.49002e-05
6.16165e-05
-3.47246e-05
-3.44413e-05
-5.98536e-05
5.98536e-05
4.13578e-05
2.32099e-05
-6.45677e-05
-5.87073e-05
5.87073e-05
-3.90266e-06
-5.93255e-05
5.79959e-05
-6.25239e-07
-6.34342e-05
5.0902e-05
2.34417e-06
3.65021e-05
-5.9493e-05
2.29909e-05
-6.18832e-05
1.35721e-06
-5.92354e-05
5.92354e-05
1.999e-18
-7.52195e-05
5.34007e-05
-6.2597e-05
-2.00929e-06
7.41891e-06
-5.77155e-05
5.02966e-05
6.99887e-05
-5.93027e-05
-2.25401e-06
5.89906e-05
-5.67366e-05
-5.6895e-05
-5.89649e-06
-1.80321e-06
-5.73677e-05
5.9171e-05
1.92515e-06
3.41193e-05
3.0281e-05
5.98314e-05
5.59957e-07
1.23922e-05
5.33234e-05
-4.86479e-05
-4.67546e-06
-5.51781e-05
-5.95323e-05
2.41491e-05
5.9493e-05
-5.95702e-05
5.69813e-05
5.12111e-05
2.11233e-06
5.64491e-05
-5.40547e-07
-2.82073e-06
-5.80761e-05
3.33459e-05
-8.53582e-06
5.52683e-05
-5.31946e-05
-2.07369e-06
5.7986e-05
-5.97892e-05
5.37098e-05
-4.90601e-05
-4.6497e-06
-2.33258e-05
5.94672e-05
4.06243e-05
-4.48115e-05
5.50493e-05
2.18961e-07
-3.24448e-05
-2.58889e-05
5.83337e-05
5.10436e-05
-4.96655e-05
-1.37817e-06
5.1649e-05
2.06081e-06
5.28984e-05
-1.85473e-06
2.57601e-08
6.09999e-05
5.70239e-05
5.01765e-07
5.48561e-05
-4.74372e-05
4.47036e-06
5.78037e-05
2.31068e-05
-6.01498e-05
4.30451e-05
-4.66644e-05
5.98536e-05
6.21385e-05
6.38464e-05
-6.57527e-05
-2.59312e-06
-5.94405e-05
2.32545e-05
-6.0343e-05
5.42508e-05
6.20432e-05
5.00002e-05
-2.1731e-05
-6.91401e-05
4.06366e-05
2.85036e-05
-6.20046e-05
6.23394e-05
-3.34881e-07
-2.93665e-06
-6.19015e-05
-3.78673e-05
-3.12728e-05
5.13789e-05
1.84802e-05
5.85197e-05
-6.09962e-05
2.3993e-06
-6.0884e-05
6.03302e-05
5.53842e-07
-5.77284e-05
-3.61929e-06
1.76387e-05
-4.65489e-05
-6.19015e-05
5.49748e-05
-5.3468e-05
-1.44839e-06
5.58354e-05
-9.91266e-07
5.9171e-05
6.07423e-05
-3.47761e-07
2.08657e-06
5.58994e-05
-6.23781e-05
5.42765e-05
-5.02451e-05
-4.03146e-06
-9.4006e-07
5.19066e-05
-5.31431e-05
1.23648e-06
5.2512e-05
-5.10694e-05
-1.44257e-06
5.22544e-05
-5.30787e-05
8.24323e-07
-3.18373e-07
5.26665e-05
1.61001e-06
5.4122e-05
-1.61001e-06
-2.00929e-06
5.42637e-05
5.43023e-05
-2.39569e-06
-6.18615e-06
5.52374e-05
-5.08705e-05
5.65117e-05
2.38148e-07
5.86171e-05
-1.72593e-05
5.65537e-05
-5.91589e-06
-5.06507e-05
-1.48378e-05
-5.16361e-05
6.06135e-05
-3.00105e-06
-5.76125e-05
-4.56548e-05
5.72389e-05
-1.62289e-06
-5.56161e-05
5.73291e-05
-5.97892e-05
2.46009e-06
5.65331e-05
-5.03366e-05
5.16619e-05
-5.04125e-05
-1.24936e-06
-5.77355e-05
6.17251e-05
-3.91657e-06
-1.57137e-06
5.32332e-05
7.20779e-07
4.21835e-05
-5.92529e-05
-5.99922e-05
5.82671e-05
1.7879e-06
-4.44619e-05
-3.10538e-05
-6.80637e-05
3.55955e-05
3.25379e-05
-6.00127e-05
-7.03066e-05
3.94426e-05
3.08497e-05
-1.02924e-06
-3.41173e-05
-3.82038e-05
2.94362e-05
2.54542e-05
-5.49882e-05
-6.03302e-05
-2.55154e-05
-3.61801e-05
5.79731e-05
-5.95831e-05
1.61001e-06
-2.99806e-05
5.91916e-05
-4.3921e-06
-5.99051e-05
-5.95187e-05
5.67753e-05
-9.53124e-07
-5.58221e-05
4.76562e-07
1.41681e-06
5.72003e-05
6.24039e-05
-5.62781e-05
-6.13812e-06
-6.04356e-05
5.34961e-06
6.31766e-05
3.73521e-07
-6.2494e-05
6.34214e-05
-5.80375e-05
-1.2236e-06
3.5997e-07
6.02928e-05
6.25455e-05
-6.15024e-05
-1.04303e-06
-6.21076e-05
-6.56883e-07
6.27645e-05
-5.80833e-05
2.14101e-05
6.00713e-05
-6.10567e-05
1.03943e-06
6.2597e-06
5.94801e-05
8.75843e-07
-5.74193e-05
5.65434e-05
5.72647e-05
-5.63889e-05
2.68807e-05
1.3561e-06
-6.18381e-05
-6.20432e-05
-3.53484e-05
-3.49512e-05
5.69415e-05
2.90521e-06
-5.77155e-05
5.89005e-05
-1.18496e-06
5.56805e-05
-5.35939e-05
5.66207e-05
-5.62343e-05
-3.86402e-07
-5.49592e-05
-4.17314e-06
3.56567e-05
-6.58719e-05
5.71359e-05
-2.35705e-06
-5.47789e-05
5.62729e-05
-1.77745e-06
-5.44955e-05
5.27621e-07
5.44578e-05
2.14251e-05
4.70073e-05
7.19672e-06
4.93329e-05
8.38177e-07
6.06705e-05
1.33953e-06
5.91967e-05
6.03302e-05
1.78307e-06
-7.15094e-05
4.33833e-05
2.81783e-05
3.41579e-05
-6.40782e-05
2.99204e-05
-1.0304e-07
5.67366e-05
6.14894e-05
-6.14894e-05
-2.31477e-06
5.12714e-05
-4.90544e-05
-6.29113e-05
2.43214e-05
1.72593e-06
6.00597e-05
-6.22932e-05
5.9171e-05
-5.95187e-05
3.47761e-07
-4.75827e-06
6.17312e-05
-5.21475e-05
6.31122e-05
-5.9815e-05
2.67905e-06
6.0343e-05
5.76125e-05
-6.84575e-05
3.65793e-05
3.18781e-05
-2.1824e-05
6.02593e-05
-5.92611e-05
5.52093e-05
8.36656e-06
5.86944e-05
-3.05257e-06