/*--------------------------------*- C++ -*----------------------------------*\
  =========                 |
  \\      /  F ield         | OpenFOAM: The Open Source CFD Toolbox
   \\    /   O peration     | Website:  https://openfoam.org
    \\  /    A nd           | Version:  12
     \\/     M anipulation  |
\*---------------------------------------------------------------------------*/
FoamFile
{
    format      ascii;
    class       volVectorField;
    location    "0.75";
    object      U;
}
// * * * * * * * * * * * * * * * * * * * * * * * * * * * * * * * * * * * * * //

dimensions      [0 1 -1 0 0 0 0];

internalField   nonuniform List<vector> 
46253
(
(0.92 3.74958e-14 0)
(0.92 -6.97982e-14 0)
(0.81342 0.000851442 0)
(0.92 -8.39776e-14 0)
(0.817993 0.00195412 0)
(0.822763 0.000875081 0)
(0.92 7.96987e-14 0)
(1.07291 0.0131247 0)
(0.92 -9.19388e-14 0)
(0.92 -3.61741e-14 0)
(0.92 4.01758e-14 0)
(0.996525 -0.0662439 0)
(0.92 -9.46109e-14 0)
(0.92 -1.09405e-13 0)
(0.92 -1.40246e-13 0)
(0.92 4.1352e-14 0)
(0.92 7.17104e-15 0)
(0.92 -1.4892e-13 0)
(0.92 -7.59693e-14 0)
(0.92 -2.58986e-14 0)
(0.92 -6.00093e-14 0)
(0.832979 0.00330233 0)
(0.92 -1.97529e-14 0)
(0.92 3.46007e-14 0)
(0.92 2.87428e-13 0)
(0.92 -2.37744e-15 0)
(0.92 -7.1912e-14 0)
(0.92 8.56965e-15 0)
(0.92 -1.06464e-13 0)
(1.07319 -0.00129655 0)
(0.928695 0.0422231 0)
(0.92 -2.43823e-14 0)
(0.92 3.7969e-14 0)
(0.92 -6.99289e-14 0)
(0.92 -1.49178e-13 0)
(0.92 -7.39282e-14 0)
(0.92 -8.4478e-14 0)
(0.92 -1.62014e-13 0)
(0.925115 0.00237675 0)
(0.92 3.87137e-15 0)
(0.916629 -0.0240784 0)
(0.993795 -0.064081 0)
(0.92 -1.52918e-14 0)
(0.92 -3.98164e-14 0)
(1.00554 -0.0881913 0)
(0.92 -1.52867e-13 0)
(0.92 -1.12979e-13 0)
(0.92 -3.54781e-14 0)
(0.92 2.73361e-13 0)
(0.92 2.00073e-13 0)
(0.92 2.16879e-13 0)
(0.92 2.07101e-13 0)
(0.892201 0.000322021 0)
(0.813866 -6.47685e-05 0)
(0.800471 0.0106176 0)
(0.995585 -0.0349505 0)
(0.92 -4.44469e-14 0)
(0.92 -1.65828e-14 0)
(0.879667 0.0643962 0)
(0.919726 -0.0281094 0)
(0.92 -6.21387e-14 0)
(0.916553 -0.0101278 0)
(0.92 -1.40309e-14 0)
(0.92 5.74e-14 0)
(0.92 7.14946e-14 0)
(0.92 -6.49518e-14 0)
(0.92 -3.36722e-14 0)
(0.837134 0.000655762 0)
(0.994272 -0.0339997 0)
(1.0321 -0.0842745 0)
(0.92 1.25536e-13 0)
(0.92 -5.36317e-14 0)
(0.92 -4.24709e-14 0)
(0.919041 -0.00415462 0)
(0.919958 7.779e-05 0)
(0.92 2.27749e-14 0)
(0.92 -1.50305e-14 0)
(0.92 -5.94415e-14 0)
(0.92 -1.57002e-13 0)
(0.92 1.97094e-13 0)
(0.92 2.56231e-13 0)
(0.92 1.99086e-14 0)
(0.866592 -0.000480346 0)
(0.92 -1.91392e-15 0)
(0.92 -3.20564e-11 0)
(0.920001 -2.08776e-07 0)
(0.92 -2.82463e-14 0)
(0.92 8.16264e-14 0)
(0.905791 -0.00619358 0)
(0.92 -1.67769e-15 0)
(0.92 -3.66481e-14 0)
(0.919943 -0.0327128 0)
(0.92 3.81941e-08 0)
(0.92 1.60086e-13 0)
(0.92 -8.69425e-14 0)
(0.92 8.35463e-14 0)
(0.92 -4.07017e-09 0)
(0.92 -1.48584e-14 0)
(0.8813 0.0633208 0)
(0.92 -2.01773e-14 0)
(0.92 -2.55853e-15 0)
(0.92 3.66601e-10 0)
(0.920016 -6.24536e-07 0)
(0.930714 0.0414413 0)
(0.803651 0.00629979 0)
(0.92 3.04031e-11 0)
(0.993394 -0.0610492 0)
(0.92 2.57323e-14 0)
(0.92 1.20744e-13 0)
(0.996233 -0.0533745 0)
(0.852251 -0.00436177 0)
(0.92 -1.07072e-14 0)
(0.92 -4.00905e-14 0)
(0.92 2.6836e-15 0)
(0.92 2.84505e-14 0)
(0.782956 -0.0273625 0)
(0.983065 -0.0808285 0)
(0.918861 -0.0250786 0)
(0.789013 0.0650233 0)
(0.990402 -0.0300743 0)
(0.92 8.00916e-14 0)
(0.828573 0.00128801 0)
(0.92 -2.8942e-15 0)
(0.92 9.04217e-14 0)
(0.92 -4.62487e-13 0)
(0.781992 0.059298 0)
(0.92 -1.7163e-14 0)
(1.00017 -0.0425379 0)
(0.782357 0.00989606 0)
(0.92 -6.81445e-14 0)
(0.92 4.269e-14 0)
(0.92 -2.45983e-14 0)
(0.8288 0.00280508 0)
(0.92 -1.79702e-13 0)
(0.92 4.2082e-14 0)
(0.92 -3.12014e-14 0)
(0.92 2.96932e-14 0)
(0.92 -3.75563e-14 0)
(0.991588 -0.0314867 0)
(0.92 -1.84664e-13 0)
(0.92 1.09696e-14 0)
(0.92 -6.00724e-15 0)
(0.92 1.03312e-13 0)
(0.934053 0.0387857 0)
(0.92 -2.82676e-14 0)
(0.790375 0.00799125 0)
(0.92 -2.73372e-14 0)
(0.92 -4.3936e-14 0)
(0.919306 0.00188494 0)
(0.92 6.51291e-14 0)
(0.996509 -0.0532862 0)
(0.91032 -0.00109346 0)
(0.92 3.21901e-14 0)
(0.92 -4.08309e-14 0)
(0.946336 0.029487 0)
(1.04993 -0.0894874 0)
(1.00084 -0.042834 0)
(0.92 1.16729e-13 0)
(0.92 1.56884e-13 0)
(0.804078 0.00795665 0)
(0.92 1.65058e-13 0)
(1.0004 -0.0615629 0)
(0.997177 -0.035704 0)
(0.92 -1.42292e-14 0)
(0.92 2.45071e-13 0)
(0.92 -2.80896e-14 0)
(0.92 -1.81576e-13 0)
(0.92 6.39302e-15 0)
(0.715178 0.0408573 0)
(0.92 -6.4712e-14 0)
(0.92 1.30754e-14 0)
(0.92 3.4906e-14 0)
(0.835142 0.00213488 0)
(0.919997 -5.26833e-06 0)
(0.808999 0.00394206 0)
(0.97631 -0.0799311 0)
(0.916961 -0.00371091 0)
(0.92 2.36666e-10 0)
(0.918508 -0.0044997 0)
(0.982968 -0.0788695 0)
(0.808972 0.00227788 0)
(0.947159 0.0282474 0)
(0.92 -2.49215e-14 0)
(0.92 5.50623e-15 0)
(0.92 5.84723e-14 0)
(0.92 4.85501e-14 0)
(0.92 1.29004e-13 0)
(0.984237 -0.0868368 0)
(0.92 -3.19673e-14 0)
(0.92 -3.59185e-14 0)
(0.918698 -0.000273156 0)
(0.92 -4.12749e-14 0)
(0.919376 -0.0106823 0)
(0.92 -1.96628e-14 0)
(0.92 -4.22e-14 0)
(0.92 -7.06281e-14 0)
(0.855087 -0.0180102 0)
(0.92 -1.15971e-13 0)
(0.92 1.37842e-13 0)
(0.92 1.35637e-13 0)
(0.92 5.07341e-14 0)
(0.92 -4.0733e-14 0)
(0.92 7.74607e-14 0)
(0.92 -7.81102e-14 0)
(0.92 9.88522e-14 0)
(1.0428 -0.086417 0)
(0.949945 0.0269072 0)
(0.92 1.65891e-13 0)
(0.92 1.04184e-13 0)
(0.92 7.12341e-14 0)
(0.92 -2.02684e-14 0)
(0.786879 0.0703871 0)
(0.920001 -6.94755e-05 0)
(0.920005 4.15827e-07 0)
(0.917024 -0.00403647 0)
(0.92 2.06144e-14 0)
(0.93543 0.0382051 0)
(0.92 1.95881e-07 0)
(0.92 1.27035e-13 0)
(0.835623 0.00146089 0)
(0.843665 0.000273651 0)
(0.92 9.7893e-14 0)
(0.970337 -0.0867039 0)
(0.92 -7.17981e-14 0)
(0.92 -5.67379e-14 0)
(0.92 8.44227e-07 0)
(0.92 9.36993e-14 0)
(0.92 -1.88551e-11 0)
(0.92 -2.99299e-14 0)
(0.92 -7.59002e-14 0)
(0.904748 0.0558164 0)
(0.92 2.53135e-14 0)
(0.92 6.05899e-14 0)
(0.92 5.60328e-14 0)
(0.92 -3.04062e-13 0)
(0.92 -1.1127e-13 0)
(0.92 -2.05929e-13 0)
(0.92 -2.87406e-14 0)
(0.905847 0.0551824 0)
(0.897216 0.0588437 0)
(0.92 9.37687e-14 0)
(0.92 1.14058e-10 0)
(0.92 -6.12628e-14 0)
(0.92 -1.51462e-13 0)
(0.92 1.78916e-13 0)
(0.920027 -4.81135e-06 0)
(0.92 1.09697e-13 0)
(0.950689 0.0261675 0)
(0.92 9.44236e-15 0)
(0.92 -2.0441e-13 0)
(0.92 -4.20774e-14 0)
(0.897852 0.0581172 0)
(0.92 8.0178e-15 0)
(0.92 -6.19893e-15 0)
(0.92 1.88823e-15 0)
(0.92 9.41338e-14 0)
(0.92 1.20886e-13 0)
(0.990121 -0.0263091 0)
(0.919029 -0.0461808 0)
(0.92 4.85784e-15 0)
(0.92 1.42079e-13 0)
(0.921961 -0.0481529 0)
(1.00177 -0.0559781 0)
(0.933793 0.0395542 0)
(0.917398 -0.0069286 0)
(0.92 6.63481e-14 0)
(0.92 1.27729e-13 0)
(0.92 1.02844e-14 0)
(0.92 5.21273e-14 0)
(0.92 3.74855e-14 0)
(0.92 2.04337e-14 0)
(0.92 3.07305e-11 0)
(0.92 1.76798e-14 0)
(0.92 1.64407e-15 0)
(0.92 6.87291e-14 0)
(0.92 -1.6215e-13 0)
(0.792723 0.0116693 0)
(0.92 2.21379e-13 0)
(0.800484 -0.00696316 0)
(0.984773 -0.0182357 0)
(0.92 -3.20411e-14 0)
(0.92 1.00421e-13 0)
(0.920025 6.27465e-06 0)
(0.920005 -9.48025e-08 0)
(0.92 1.20651e-13 0)
(0.919341 -0.0106434 0)
(0.918293 -0.0168039 0)
(0.991076 -0.0293681 0)
(0.938979 0.0351422 0)
(0.92 3.67163e-14 0)
(0.885245 0.0627448 0)
(0.885828 0.0619073 0)
(0.92 2.94477e-07 0)
(0.92 -7.23701e-14 0)
(0.888363 0.0614307 0)
(0.91681 0.0497335 0)
(0.92 1.38829e-10 0)
(0.918376 0.0495346 0)
(0.92 -6.15364e-06 0)
(0.92 1.54108e-13 0)
(0.795445 0.0725492 0)
(0.92 2.04716e-13 0)
(0.997854 -0.0410483 0)
(0.79786 0.0557534 0)
(0.92 7.2061e-14 0)
(0.92 -1.97198e-13 0)
(0.92 -3.04852e-13 0)
(0.92 2.37118e-14 0)
(0.934729 0.0408639 0)
(0.92 5.88572e-14 0)
(0.92 -4.39419e-14 0)
(0.919053 -0.00326833 0)
(0.92 -1.18579e-14 0)
(0.92 9.024e-14 0)
(0.92 3.42314e-14 0)
(0.92 4.19023e-14 0)
(0.995561 -0.0324038 0)
(0.889138 0.060681 0)
(0.92 -7.84427e-14 0)
(0.802024 0.00342225 0)
(0.995212 -0.0423542 0)
(0.92 1.95851e-14 0)
(0.92 1.22998e-13 0)
(0.92 3.54209e-13 0)
(0.936096 0.00196011 0)
(0.940803 0.0341453 0)
(0.92 -5.07197e-14 0)
(0.92 -4.69741e-14 0)
(0.92 1.48699e-13 0)
(0.92 1.45014e-13 0)
(0.92 -1.45592e-13 0)
(0.92 -2.4535e-13 0)
(0.92 3.13122e-14 0)
(0.92 -6.31772e-14 0)
(0.92 -6.77571e-14 0)
(0.917222 -0.00957703 0)
(0.991714 -0.0273525 0)
(0.92 7.43949e-15 0)
(0.92 7.95314e-14 0)
(0.92 4.12586e-15 0)
(0.890541 -0.000267934 0)
(0.91869 0.000279647 0)
(0.92 -3.2816e-14 0)
(0.787827 0.0422852 0)
(0.92 1.6495e-13 0)
(0.92 9.68394e-14 0)
(0.92 6.70006e-15 0)
(0.92 7.15427e-14 0)
(0.991279 -0.0318421 0)
(0.92 2.62958e-10 0)
(0.857884 0.00273146 0)
(0.92 -8.18839e-14 0)
(1.0148 -0.077796 0)
(0.92 -1.38552e-13 0)
(1.00961 -0.0575079 0)
(0.92 -9.96303e-14 0)
(0.92 8.66811e-14 0)
(0.92 -5.22588e-14 0)
(0.92 7.54681e-14 0)
(0.92 2.34203e-14 0)
(1.01342 -0.0581299 0)
(0.92 -1.0551e-13 0)
(0.92 -1.87046e-15 0)
(0.92 -1.19134e-13 0)
(0.92 -1.01395e-14 0)
(0.92 1.54992e-13 0)
(0.92 1.5389e-13 0)
(0.92 1.6867e-13 0)
(0.92 -1.70915e-14 0)
(0.92 -8.49414e-14 0)
(0.92 3.54653e-14 0)
(0.92 1.94354e-14 0)
(0.92 4.06993e-14 0)
(0.92 -7.98189e-14 0)
(0.92 4.45677e-14 0)
(0.893023 0.0603453 0)
(0.9933 -0.031628 0)
(0.92 -2.93977e-12 0)
(0.92 1.05033e-14 0)
(0.92 1.22533e-13 0)
(0.92 1.6462e-07 0)
(0.91895 -0.00833673 0)
(0.997894 -0.0436379 0)
(0.92 8.60704e-14 0)
(0.985172 -0.0189275 0)
(0.92 3.86898e-14 0)
(0.92 -1.69071e-14 0)
(0.92 1.36832e-14 0)
(0.92 -5.06745e-15 0)
(0.762453 0.0610247 0)
(0.92 -5.97682e-14 0)
(0.938065 0.0362425 0)
(0.92 7.97309e-14 0)
(0.916503 -0.0128332 0)
(0.92 -5.59443e-14 0)
(0.967243 0.00909989 0)
(0.950477 0.0237446 0)
(0.952826 0.0250806 0)
(0.92 8.10491e-14 0)
(0.923389 0.0161807 0)
(0.92 -1.72899e-13 0)
(0.92 1.29455e-13 0)
(0.92 1.7662e-13 0)
(0.894605 0.059097 0)
(0.92 2.52048e-12 0)
(0.864544 0.0346858 0)
(0.92 -1.11798e-13 0)
(0.92 -1.00985e-13 0)
(0.92 -6.24507e-14 0)
(0.92 -3.28032e-14 0)
(0.92 3.93169e-14 0)
(0.92 -6.84987e-14 0)
(0.812146 0.0678384 0)
(0.92 3.38668e-14 0)
(0.921907 0.0204364 0)
(0.870929 0.0298487 0)
(0.917442 -0.00983916 0)
(0.92 1.71242e-14 0)
(0.92 5.19325e-14 0)
(0.989225 -0.0253957 0)
(0.870066 0.03019 0)
(0.92 5.79944e-15 0)
(0.92 1.61124e-13 0)
(0.92 -6.49211e-14 0)
(0.92 6.25427e-14 0)
(0.92 -2.41605e-14 0)
(0.92 6.62921e-14 0)
(0.92 1.11839e-13 0)
(0.92 6.9557e-14 0)
(0.92 1.79838e-13 0)
(0.918207 -0.00343672 0)
(0.92 -1.69327e-14 0)
(0.92 8.58623e-14 0)
(0.92 -1.18376e-13 0)
(0.92 -4.06484e-14 0)
(0.932454 0.00359588 0)
(0.76353 0.0109911 0)
(0.92 -8.41384e-14 0)
(0.92 -1.47918e-13 0)
(0.823888 -0.0139512 0)
(0.995097 -0.0423261 0)
(0.866723 0.0290266 0)
(0.917258 -0.0165408 0)
(0.92 8.55406e-14 0)
(0.931686 0.00687183 0)
(0.944243 0.0307854 0)
(0.92 -9.08719e-15 0)
(0.92 -1.92808e-14 0)
(0.99502 -0.0289291 0)
(0.92 8.97736e-14 0)
(0.98352 -0.017431 0)
(0.922172 0.0182053 0)
(0.92 -6.66427e-14 0)
(0.916457 -0.010076 0)
(0.92 -1.53365e-14 0)
(0.866292 0.0372551 0)
(0.81069 -0.00896677 0)
(0.866898 0.0346941 0)
(0.92 8.35193e-14 0)
(0.936848 0.00249147 0)
(0.92 2.81984e-14 0)
(0.936119 0.00251294 0)
(0.935671 0.00304693 0)
(0.92 7.79857e-14 0)
(0.92 -1.20113e-13 0)
(0.935062 0.0027422 0)
(0.92 -1.28824e-10 0)
(0.92 1.49536e-13 0)
(0.869242 0.0310188 0)
(0.92 -2.87532e-14 0)
(0.92 1.70998e-13 0)
(0.918137 -0.004907 0)
(0.92 4.35281e-14 0)
(0.820052 -0.0134777 0)
(0.997909 -0.0406032 0)
(0.92 -3.38298e-14 0)
(0.986405 -0.0218806 0)
(0.951625 0.0254342 0)
(0.92 -1.18338e-13 0)
(0.918239 -0.0062719 0)
(0.92 -9.45466e-16 0)
(0.92 1.27954e-15 0)
(0.92 1.05219e-13 0)
(0.92 1.281e-13 0)
(0.92 -7.48154e-15 0)
(0.92 -4.9181e-14 0)
(0.776898 0.0072845 0)
(0.92 1.29547e-13 0)
(0.981704 -0.0163625 0)
(0.92 2.99027e-07 0)
(0.985941 -0.0719647 0)
(0.980869 -0.0158815 0)
(0.934019 0.00500592 0)
(0.918995 -0.0182006 0)
(0.931735 0.00471518 0)
(0.92 3.24102e-14 0)
(0.92 -1.84299e-13 0)
(0.92 -3.24037e-14 0)
(0.923008 0.0184899 0)
(0.996079 -0.0543709 0)
(0.92 5.40543e-14 0)
(0.92 -3.60293e-14 0)
(0.92 -3.89276e-14 0)
(0.92 6.67173e-14 0)
(0.918863 -0.0450957 0)
(0.92 2.35501e-14 0)
(0.92 6.14694e-14 0)
(0.93196 0.0402179 0)
(0.92 -2.49851e-14 0)
(0.92 2.16195e-14 0)
(0.92 6.22489e-14 0)
(0.923019 -0.0479883 0)
(0.872552 0.0266648 0)
(0.987631 0.0185249 0)
(0.917314 -0.00994132 0)
(0.92 7.57293e-14 0)
(0.92 2.35755e-15 0)
(0.927248 0.011343 0)
(0.92 6.95878e-14 0)
(0.92 -8.29941e-14 0)
(0.916757 -0.00954518 0)
(0.808305 -0.0537761 0)
(0.923396 0.0178248 0)
(0.92 6.76006e-14 0)
(0.92 7.07553e-14 0)
(0.922843 0.0183508 0)
(0.92 1.01059e-13 0)
(0.92248 0.0182315 0)
(0.91901 0.0262107 0)
(0.922085 0.0188497 0)
(0.92 -4.92962e-14 0)
(0.92317 -0.0012344 0)
(0.918688 -0.00257118 0)
(0.92 1.37895e-13 0)
(0.937224 0.00168458 0)
(0.922042 0.0193222 0)
(0.92 -4.75679e-15 0)
(0.92 3.464e-14 0)
(0.92 -8.61805e-15 0)
(0.92 -1.1884e-13 0)
(0.92 -8.77701e-14 0)
(0.986692 -0.0232678 0)
(0.92 6.31063e-14 0)
(0.92 -8.34952e-14 0)
(0.92 3.64494e-14 0)
(0.92 -6.33099e-14 0)
(0.92 5.72194e-14 0)
(0.92 2.82361e-11 0)
(0.92 5.53326e-12 0)
(1.03631 -0.0770603 0)
(0.92 -2.38851e-08 0)
(0.92 -2.08727e-08 0)
(0.92 -2.06537e-13 0)
(0.988715 -0.0212552 0)
(0.92 -2.24087e-13 0)
(0.920168 -0.0349951 0)
(0.918605 0.00076339 0)
(0.919435 0.000614754 0)
(0.900467 0.0168541 0)
(0.901289 0.0152064 0)
(0.92 4.51669e-14 0)
(0.86649 0.032112 0)
(0.92 -5.7565e-14 0)
(0.934316 0.00415754 0)
(0.987529 -0.0690706 0)
(0.92 -4.45074e-14 0)
(0.92 -2.11625e-14 0)
(0.92 -1.11959e-13 0)
(0.874848 0.0266232 0)
(0.92 -1.45118e-13 0)
(0.92 -6.4929e-14 0)
(0.92 1.64156e-13 0)
(0.935937 0.0373442 0)
(0.92 2.35528e-13 0)
(0.941575 0.0333311 0)
(0.92 -6.99465e-14 0)
(0.92 8.08066e-14 0)
(0.998567 -0.0419635 0)
(0.92 1.2079e-13 0)
(0.92 -7.20111e-14 0)
(0.92 9.76054e-14 0)
(0.92 1.06646e-13 0)
(0.92 -3.63217e-14 0)
(0.92 -1.35718e-13 0)
(0.92 2.23825e-13 0)
(0.942837 0.0326166 0)
(0.912716 0.0329243 0)
(0.92 -3.76594e-14 0)
(0.911448 0.0332395 0)
(0.911196 0.0332682 0)
(0.909928 0.0335017 0)
(0.678483 0.00529668 0)
(0.92 -4.68685e-14 0)
(0.92 -1.42264e-13 0)
(0.92 -7.43014e-14 0)
(0.93879 0.0378196 0)
(1.086 0.00603052 0)
(0.92 -1.55307e-13 0)
(0.92 -2.19746e-14 0)
(0.919066 -0.00390674 0)
(0.92 2.21947e-14 0)
(0.795604 0.0502877 0)
(0.919083 -0.00328805 0)
(0.872097 0.0286638 0)
(0.793398 0.0588374 0)
(0.863365 0.0355873 0)
(0.92 6.67845e-16 0)
(0.934985 0.0399432 0)
(0.932277 0.0414177 0)
(0.92 -1.08182e-13 0)
(0.92 1.18129e-13 0)
(0.955687 -0.0103563 0)
(0.933027 0.00379001 0)
(0.92 1.17168e-13 0)
(0.92 -5.4344e-14 0)
(0.960138 0.0212292 0)
(0.889033 0.0271816 0)
(0.888954 0.0273039 0)
(0.889071 0.0292155 0)
(0.888669 0.028953 0)
(0.888774 0.0312033 0)
(0.888535 0.0310205 0)
(0.889746 0.0324751 0)
(0.889425 0.0324738 0)
(0.984089 -0.0867532 0)
(0.929934 0.0066742 0)
(0.890705 0.0333937 0)
(0.91974 -0.00899242 0)
(0.890258 0.0333177 0)
(0.891862 0.0338892 0)
(0.92 -6.23903e-15 0)
(0.92 -4.51641e-14 0)
(0.92 1.26625e-13 0)
(0.891539 0.0339481 0)
(0.92 4.72225e-14 0)
(0.893682 0.034566 0)
(0.92 3.87552e-15 0)
(0.893315 0.0345899 0)
(0.92 3.82362e-14 0)
(0.927837 0.00959053 0)
(0.895195 0.0345323 0)
(0.92 6.73025e-14 0)
(0.894761 0.034563 0)
(0.841209 0.069699 0)
(0.92 1.26445e-13 0)
(0.896869 0.0343306 0)
(0.92 2.32924e-14 0)
(0.896588 0.0344669 0)
(0.92 -8.01333e-14 0)
(1.04216 -0.073171 0)
(0.92 7.95429e-14 0)
(0.987816 -0.0199992 0)
(0.92 1.73821e-13 0)
(0.92 -6.41018e-14 0)
(0.92 -5.49015e-15 0)
(0.898893 0.0342012 0)
(0.898459 0.034252 0)
(0.92 6.39431e-14 0)
(0.924942 0.0149161 0)
(0.900671 0.0337297 0)
(0.900333 0.0338613 0)
(0.95877 0.0194642 0)
(0.92 2.62868e-14 0)
(0.92 -6.3297e-14 0)
(0.903471 0.032694 0)
(0.92 -6.34885e-14 0)
(0.903146 0.0327988 0)
(0.92 5.44389e-15 0)
(0.92 1.12103e-13 0)
(0.9056 0.0320971 0)
(0.986926 -0.0400199 0)
(0.905242 0.032196 0)
(0.92 -6.50722e-14 0)
(0.92 3.66012e-14 0)
(0.92 9.4249e-14 0)
(0.92 -3.68176e-14 0)
(0.92 6.85428e-14 0)
(0.907471 0.0310783 0)
(0.907246 0.0312881 0)
(0.798033 0.0085099 0)
(0.92 3.2901e-14 0)
(0.92 -1.51177e-14 0)
(0.909241 0.0299279 0)
(0.978969 -0.0144024 0)
(0.909007 0.0300809 0)
(0.991736 -0.0421303 0)
(0.92 2.01865e-13 0)
(0.912247 0.0282695 0)
(0.912052 0.0284002 0)
(0.92 1.8308e-13 0)
(0.92 8.91882e-14 0)
(0.92 1.81196e-13 0)
(0.916562 -0.00990859 0)
(0.92 1.77023e-13 0)
(0.921882 0.020232 0)
(0.929461 0.0124961 0)
(0.928147 0.043119 0)
(0.92 -9.48605e-14 0)
(0.914799 0.026077 0)
(0.92 2.42795e-14 0)
(0.914626 0.0261939 0)
(0.92 -1.27622e-14 0)
(0.92 1.45238e-14 0)
(0.921222 0.02085 0)
(0.921014 0.0217807 0)
(0.91697 0.0249745 0)
(0.916997 0.0250396 0)
(0.933918 0.00324481 0)
(0.919666 0.0246498 0)
(0.91919 0.0235519 0)
(0.919192 0.0254143 0)
(0.918979 0.0236505 0)
(0.92 6.63744e-14 0)
(0.950741 0.0242715 0)
(0.921216 0.0206782 0)
(0.921215 0.0208411 0)
(0.92 7.19237e-14 0)
(0.990789 -0.0278673 0)
(0.923122 0.0192516 0)
(0.922869 0.0192804 0)
(0.711728 0.0267516 0)
(0.92 -6.23445e-16 0)
(0.92 -1.24202e-15 0)
(0.92 3.91777e-14 0)
(0.925081 0.0180298 0)
(0.932034 0.00574165 0)
(0.925124 0.0180598 0)
(0.860825 -0.013852 0)
(0.8957 0.00964276 0)
(0.937596 0.00116452 0)
(0.993209 -0.0528363 0)
(0.925974 0.0157016 0)
(0.925977 0.0159131 0)
(0.929928 0.012683 0)
(0.928015 0.0140382 0)
(0.92817 0.01413 0)
(0.990282 -0.0312227 0)
(0.993159 -0.0332247 0)
(0.92 -1.57694e-06 0)
(0.831413 -0.0151189 0)
(0.787518 0.047313 0)
(0.92 -1.04116e-13 0)
(0.92 -4.861e-14 0)
(1.00024 -0.049349 0)
(0.92 -1.06566e-13 0)
(0.987383 -0.0389188 0)
(1.04182 0.00693363 0)
(0.92 -6.37129e-14 0)
(0.891769 0.024588 0)
(0.920001 -6.70376e-07 0)
(0.890759 0.0235606 0)
(0.92 -4.77351e-14 0)
(0.92 2.99491e-14 0)
(0.92 -1.77551e-07 0)
(0.92 3.11113e-14 0)
(0.92 4.27161e-14 0)
(0.92 -1.32461e-07 0)
(0.92 3.15682e-14 0)
(0.92 -1.00676e-14 0)
(0.919999 2.29602e-05 0)
(0.919945 -6.96147e-06 0)
(0.986758 -0.0240549 0)
(0.984387 -0.0298589 0)
(0.92 1.80617e-13 0)
(0.953896 0.0226084 0)
(0.986364 -0.0866226 0)
(0.92 -7.23492e-14 0)
(0.92 1.06359e-13 0)
(0.92 3.06226e-14 0)
(0.92 3.90056e-14 0)
(0.866781 0.031089 0)
(0.92 7.64018e-15 0)
(0.919271 -0.00839313 0)
(0.92 6.54912e-14 0)
(0.931825 0.00592743 0)
(0.871892 0.0281264 0)
(0.912449 0.0308868 0)
(0.916825 -0.00911844 0)
(0.91115 0.0311246 0)
(0.983713 -0.0374871 0)
(0.92 -8.69174e-14 0)
(0.916572 -0.0137061 0)
(0.917369 -0.0141657 0)
(0.909731 0.0331977 0)
(0.868149 0.0314867 0)
(0.92 7.36663e-14 0)
(0.92 -3.92159e-14 0)
(0.92 -5.0486e-14 0)
(0.92 -8.85896e-14 0)
(0.909914 0.0312827 0)
(0.911806 0.0314819 0)
(0.918089 -0.00848816 0)
(0.92 1.20659e-13 0)
(0.92 9.19483e-14 0)
(0.92 -2.54397e-14 0)
(0.987447 -0.0193708 0)
(0.92 -6.72691e-14 0)
(0.92 -1.04811e-13 0)
(0.910493 0.031619 0)
(0.930751 0.0118471 0)
(0.864918 0.0342341 0)
(0.90354 -0.0150365 0)
(0.864348 0.0354893 0)
(0.865795 0.0331511 0)
(0.951345 0.0243255 0)
(0.95311 0.0252433 0)
(0.92 1.43108e-13 0)
(0.909203 0.0317311 0)
(0.99963 -0.0414732 0)
(0.937764 0.000165312 0)
(0.92 -7.94284e-14 0)
(0.93249 0.00427613 0)
(0.92 -4.89888e-14 0)
(0.92 -9.63112e-14 0)
(0.86656 0.0324515 0)
(0.934371 0.00295122 0)
(0.927612 0.0105213 0)
(0.868692 0.0309184 0)
(0.92 5.6528e-14 0)
(0.815703 -0.035165 0)
(0.86586 0.0292131 0)
(0.92 -6.32549e-14 0)
(0.9016 0.0333763 0)
(0.901289 0.0335462 0)
(0.930719 0.00634378 0)
(0.92 -1.53344e-13 0)
(0.821988 -0.0346976 0)
(0.827617 -0.031763 0)
(0.919889 -0.000230884 0)
(0.918262 -0.00692367 0)
(0.92 -1.86111e-14 0)
(0.922962 0.0185221 0)
(0.971936 -0.0297373 0)
(0.996503 -0.0401198 0)
(0.845101 0.0701152 0)
(0.92 4.29505e-14 0)
(0.92 1.05096e-13 0)
(0.92 -3.05313e-14 0)
(0.910544 0.0294964 0)
(0.910055 0.0296401 0)
(0.888812 0.0269818 0)
(0.862155 0.0359172 0)
(0.92 1.13106e-14 0)
(0.92 -1.49663e-13 0)
(0.913427 0.0275757 0)
(0.92 1.37346e-13 0)
(0.861416 0.0361885 0)
(0.913205 0.0278064 0)
(0.92 -1.90321e-13 0)
(0.933244 0.00471087 0)
(0.934745 0.00206791 0)
(0.92 2.25971e-13 0)
(0.932527 0.00364475 0)
(0.923147 0.0169297 0)
(1.00373 -0.0499132 0)
(0.932145 0.00471302 0)
(0.997639 -0.0430554 0)
(0.919763 0.0227863 0)
(0.92 -1.96935e-13 0)
(0.92 -2.75083e-14 0)
(0.920041 0.0230831 0)
(0.92 1.12513e-14 0)
(0.92 9.80569e-14 0)
(0.928221 0.00893342 0)
(0.931399 0.00682436 0)
(0.92 -6.48384e-14 0)
(0.92 -1.27702e-13 0)
(0.979462 -0.0304094 0)
(0.925432 0.0142161 0)
(0.993155 -0.0299407 0)
(0.993513 -0.0281007 0)
(0.92 -1.04729e-13 0)
(0.980619 -0.0342355 0)
(0.986233 -0.0338742 0)
(0.991897 -0.0435138 0)
(0.992991 -0.0448531 0)
(0.92 -1.57289e-13 0)
(0.911744 0.00310534 0)
(0.760217 0.00697576 0)
(0.907687 0.00497447 0)
(0.92 -1.27032e-13 0)
(0.933032 0.00373942 0)
(0.972176 -0.0263624 0)
(0.980932 -0.0300084 0)
(0.92 1.20201e-13 0)
(0.92 -3.8092e-14 0)
(0.922541 0.0175649 0)
(0.92 7.22066e-14 0)
(0.922367 0.0198296 0)
(0.922509 0.0183026 0)
(0.865692 0.0361318 0)
(0.865361 0.0373714 0)
(0.899383 -0.0011687 0)
(0.866075 0.0347168 0)
(0.92 1.33976e-13 0)
(0.866411 0.0334999 0)
(0.92 -1.90605e-14 0)
(0.929352 0.00754621 0)
(0.919825 0.0238081 0)
(0.975672 -0.0185113 0)
(0.831916 -0.0316938 0)
(0.92 -2.93001e-14 0)
(0.92 -8.84271e-14 0)
(0.92 6.14146e-14 0)
(0.933168 0.0074779 0)
(0.933529 0.00741713 0)
(0.92 -1.67795e-13 0)
(0.867736 0.0296095 0)
(0.934362 0.00543204 0)
(0.935693 0.00357896 0)
(0.934635 0.00563986 0)
(0.92 -9.70473e-14 0)
(0.92 -2.33321e-14 0)
(0.92 -2.98897e-14 0)
(0.92 1.35633e-13 0)
(0.936786 0.0040184 0)
(0.922269 0.0190178 0)
(0.92 -3.75661e-14 0)
(0.957898 0.0181647 0)
(0.86859 0.0312798 0)
(0.98173 -0.0345023 0)
(0.92 7.68406e-14 0)
(0.984791 -0.0342147 0)
(0.92 -7.60391e-14 0)
(0.92 -1.50145e-13 0)
(0.92 1.25275e-13 0)
(0.92 -1.6407e-13 0)
(0.92 -2.03046e-13 0)
(0.920065 -0.019791 0)
(0.817469 0.0694633 0)
(0.888071 0.0264685 0)
(0.980805 -0.0308494 0)
(0.895171 -0.00343265 0)
(0.890475 -0.0080766 0)
(0.978046 -0.0311138 0)
(0.912167 0.00623016 0)
(0.914339 0.00525961 0)
(0.937157 0.000571963 0)
(0.859767 -0.0154366 0)
(0.92 -4.61321e-14 0)
(0.92 -4.73457e-15 0)
(0.920446 0.0223498 0)
(0.967794 -0.0779435 0)
(0.779731 0.00659192 0)
(0.93691 0.00151743 0)
(0.92 -1.18381e-13 0)
(0.920001 -4.99404e-07 0)
(0.92 2.92061e-14 0)
(0.920001 -3.69444e-07 0)
(0.92 -1.77879e-13 0)
(0.92 -6.23945e-10 0)
(0.765411 0.052285 0)
(0.92 -8.4119e-10 0)
(0.92 -8.44858e-14 0)
(0.994054 -0.0337379 0)
(0.984358 -0.0381965 0)
(0.996684 -0.0264608 0)
(0.871937 -0.0191351 0)
(0.849569 -0.021024 0)
(0.853967 -0.0257691 0)
(0.99019 -0.024353 0)
(0.909922 -0.00492317 0)
(0.92 7.9033e-15 0)
(0.815694 -0.0401888 0)
(0.896087 0.0344947 0)
(0.894304 0.0344731 0)
(0.892769 0.0342958 0)
(0.897791 0.0342664 0)
(0.895736 0.0346403 0)
(0.92 1.22914e-14 0)
(0.917883 -0.00506718 0)
(0.894006 0.0346002 0)
(0.891296 0.0337259 0)
(0.897335 0.0343166 0)
(0.934472 0.00303481 0)
(0.892168 0.0341324 0)
(0.904286 0.032793 0)
(0.899726 0.0340068 0)
(0.890946 0.0338058 0)
(0.92 1.61108e-13 0)
(0.890066 0.0329235 0)
(0.899416 0.0340882 0)
(0.889747 0.0328921 0)
(0.92 -7.05547e-14 0)
(0.902535 0.0330117 0)
(0.881911 0.0610644 0)
(0.889266 0.0319593 0)
(0.888817 0.0318284 0)
(0.902215 0.0331578 0)
(0.888799 0.0303167 0)
(0.884956 0.0343961 0)
(0.904499 0.0324263 0)
(0.888389 0.0302995 0)
(0.92 -1.10853e-14 0)
(0.889381 0.0278019 0)
(0.90412 0.0324931 0)
(0.92 7.83198e-14 0)
(0.906547 0.0316523 0)
(0.889129 0.0277962 0)
(0.92 7.19886e-14 0)
(0.92 1.68064e-14 0)
(0.92 -2.07064e-13 0)
(0.906313 0.0317748 0)
(0.92 5.63657e-14 0)
(0.92 -2.13119e-13 0)
(0.92 1.1921e-13 0)
(0.908388 0.0304674 0)
(0.909682 0.0335754 0)
(0.92 1.36768e-13 0)
(0.92 1.3339e-13 0)
(0.92 -1.23213e-13 0)
(0.908168 0.0306881 0)
(0.92 -9.07112e-14 0)
(0.871397 -0.0260325 0)
(0.911446 0.0289552 0)
(0.92 2.52152e-13 0)
(0.969448 0.000472878 0)
(0.911348 0.0291436 0)
(0.914059 0.0268152 0)
(0.914181 0.0270959 0)
(0.995942 -0.0340101 0)
(0.916236 0.025527 0)
(0.915766 0.0256016 0)
(0.917821 0.0241705 0)
(0.92 -9.11685e-14 0)
(0.92 5.37095e-15 0)
(0.917591 0.0242633 0)
(0.92 1.85447e-14 0)
(0.92039 0.0215599 0)
(0.92 -4.25662e-14 0)
(0.92 -3.63158e-15 0)
(0.92 4.59116e-14 0)
(0.920269 0.0219026 0)
(0.984651 -0.0180316 0)
(0.875903 -0.0193295 0)
(0.922005 0.0199597 0)
(0.92191 0.02002 0)
(0.924154 0.0186935 0)
(0.92 -4.75512e-14 0)
(0.923975 0.0185398 0)
(0.866471 -0.0193134 0)
(0.925552 0.016845 0)
(0.92 -8.15392e-15 0)
(0.931591 0.0108929 0)
(0.92 -5.39403e-14 0)
(0.926022 0.0172576 0)
(0.959084 0.0199389 0)
(0.96398 0.0158719 0)
(0.932019 0.00456046 0)
(0.927342 0.0148037 0)
(0.931237 0.00893427 0)
(0.931626 0.00927628 0)
(0.92 -1.83865e-14 0)
(0.926931 0.0150356 0)
(0.928457 0.0130987 0)
(0.928497 0.0130782 0)
(0.92 1.25401e-15 0)
(0.879342 -0.0220916 0)
(0.840814 -0.0528864 0)
(0.92 -1.32539e-14 0)
(0.882642 -0.0199694 0)
(0.92 1.20497e-13 0)
(0.871053 -0.0238884 0)
(0.896183 -0.0185685 0)
(0.880659 -0.0233027 0)
(0.92 -2.12718e-14 0)
(0.78366 0.0553598 0)
(0.785197 -0.00398612 0)
(0.92 -6.62198e-14 0)
(0.92 -2.88546e-08 0)
(0.92 -1.15655e-09 0)
(0.939736 0.0362275 0)
(0.936474 0.0386157 0)
(0.92 -5.48398e-14 0)
(1.09307 0.00603716 0)
(0.907304 0.0314562 0)
(0.905287 0.0322798 0)
(0.674734 0.00529149 0)
(0.772704 -0.00345265 0)
(0.908497 0.0310048 0)
(0.906895 0.0315931 0)
(0.908071 0.0312033 0)
(0.913017 0.0329068 0)
(0.91821 -0.00476707 0)
(0.991805 -0.03203 0)
(0.923356 0.0178669 0)
(0.934014 0.00310233 0)
(0.92 -2.03518e-14 0)
(0.960748 -0.00209945 0)
(0.974861 -0.0287461 0)
(0.987959 -0.0403699 0)
(0.95931 0.0181186 0)
(0.92 -6.73139e-14 0)
(0.897061 0.0354772 0)
(0.912561 0.033097 0)
(1.00931 -0.0611557 0)
(0.92 3.6249e-14 0)
(0.92 -1.35988e-13 0)
(0.920401 -0.0473099 0)
(0.966434 0.0062979 0)
(0.92 -2.60805e-13 0)
(0.92 -4.93729e-14 0)
(0.884347 0.032468 0)
(0.92 1.0485e-13 0)
(0.977827 -0.0101792 0)
(0.959515 0.0166803 0)
(1.13032 -0.00530281 0)
(0.909185 0.0306134 0)
(0.96083 0.0197279 0)
(0.955223 0.0218961 0)
(0.91144 -0.0390509 0)
(0.92 -1.37755e-13 0)
(0.964175 0.00740782 0)
(0.92 -7.15596e-14 0)
(0.931167 0.0102597 0)
(0.92 2.20139e-07 0)
(1.01325 -0.0624162 0)
(0.984899 -0.0317911 0)
(0.891904 -0.0263323 0)
(0.968578 0.00191479 0)
(0.905918 0.0319705 0)
(0.930851 0.0118721 0)
(0.92 7.16283e-14 0)
(0.906291 0.0319392 0)
(0.890666 0.0357842 0)
(0.976661 -0.00905792 0)
(0.96148 0.0115742 0)
(0.92 5.20996e-14 0)
(0.92 7.58435e-14 0)
(0.92 -1.23592e-13 0)
(0.925303 0.0133116 0)
(0.862935 0.0361695 0)
(0.92 -7.81587e-14 0)
(0.92 -2.55622e-13 0)
(0.875535 -0.0217203 0)
(0.959045 0.012826 0)
(0.998287 -0.0440943 0)
(0.92 5.21594e-15 0)
(0.92 -3.1887e-11 0)
(0.92 -3.06306e-14 0)
(0.92574 0.012563 0)
(0.975137 -0.00662618 0)
(0.92 2.91578e-14 0)
(0.92 -4.41582e-14 0)
(0.818029 -0.0649433 0)
(0.98931 -0.0411114 0)
(0.885374 0.0343829 0)
(0.986246 -0.0396684 0)
(0.919188 0.0262254 0)
(0.918962 0.0272163 0)
(0.797648 0.00559354 0)
(0.904946 0.0325286 0)
(0.921597 0.0203511 0)
(0.873387 0.0263682 0)
(0.928542 0.00816962 0)
(0.92 7.26259e-14 0)
(0.955435 0.0170741 0)
(0.92 -6.37663e-14 0)
(0.92 -2.76556e-08 0)
(0.975157 -0.0270094 0)
(0.92 1.19986e-14 0)
(0.92 -2.04946e-14 0)
(0.961344 -0.0024244 0)
(0.92 -4.97563e-09 0)
(0.932098 0.00806666 0)
(0.93391 0.00383449 0)
(0.920527 0.0247091 0)
(0.919986 0.0253264 0)
(0.92 5.21618e-14 0)
(0.92 -3.6441e-14 0)
(0.931878 0.0081629 0)
(0.933795 0.00373442 0)
(0.933294 0.00347048 0)
(0.99589 -0.0445543 0)
(0.953202 0.0181007 0)
(0.873992 0.0267827 0)
(0.973066 -0.00544572 0)
(0.972012 -0.0504383 0)
(0.933754 0.00651634 0)
(1.00662 -0.0502034 0)
(0.934109 0.00649667 0)
(0.912156 0.0331838 0)
(0.92 -8.43745e-15 0)
(0.92 1.32649e-15 0)
(0.92 1.55378e-14 0)
(0.973178 -0.0270161 0)
(0.935943 0.00496728 0)
(0.92 -3.78866e-14 0)
(0.932052 0.00588872 0)
(0.936061 0.00497679 0)
(0.781433 0.000286018 0)
(1.05174 -0.00659547 0)
(0.978327 -0.0321503 0)
(0.931472 0.00562246 0)
(0.881814 -0.0143389 0)
(0.92 3.24728e-14 0)
(0.898422 0.035412 0)
(0.92 1.40187e-14 0)
(0.92 -2.58503e-14 0)
(0.973707 -0.00286886 0)
(0.894742 0.0357457 0)
(0.92 -2.72664e-14 0)
(0.92 -8.13349e-14 0)
(0.873481 0.0306234 0)
(0.935692 0.00205686 0)
(0.92 -8.02668e-14 0)
(0.935788 0.00228911 0)
(0.974711 -0.0771287 0)
(0.919142 -0.00456528 0)
(0.923833 0.0232808 0)
(0.92 3.43177e-14 0)
(0.873001 0.0300948 0)
(0.925231 0.0233996 0)
(0.92 -3.78019e-14 0)
(0.876126 0.0362386 0)
(0.928759 0.00815755 0)
(0.877946 0.0375177 0)
(0.874815 0.0359946 0)
(0.92 5.23493e-14 0)
(0.912068 -0.00792377 0)
(0.877286 0.0374098 0)
(0.929589 0.00890613 0)
(0.926152 0.0212784 0)
(0.899127 0.0348098 0)
(0.92 -8.52576e-15 0)
(0.920761 -0.0184829 0)
(0.881873 0.0385613 0)
(0.89141 0.0360717 0)
(0.972404 -0.0018026 0)
(0.92 -7.80928e-14 0)
(0.901276 0.0343528 0)
(0.881266 0.0385108 0)
(0.886597 0.0388534 0)
(0.859257 0.0342162 0)
(0.925611 0.0137349 0)
(0.835338 -0.0472073 0)
(0.858641 0.0337098 0)
(0.858828 0.0283758 0)
(0.982558 -0.0299888 0)
(0.885911 0.0389673 0)
(0.858668 0.029246 0)
(0.89577 0.035513 0)
(0.899365 -0.00102901 0)
(0.92 9.77752e-14 0)
(0.92 -1.6149e-08 0)
(0.92 1.45449e-08 0)
(0.891434 0.0385144 0)
(0.92 2.18723e-13 0)
(0.895696 -0.00202606 0)
(0.888101 0.0356101 0)
(0.92 1.61394e-13 0)
(1.00098 -0.0461005 0)
(0.88568 0.0314054 0)
(0.892409 0.0357331 0)
(0.890633 0.0388006 0)
(0.836208 -0.0126979 0)
(0.92 1.15428e-13 0)
(0.92 -1.02619e-13 0)
(0.899558 -0.00322345 0)
(0.92 1.25124e-13 0)
(0.899563 -0.00332914 0)
(0.90912 0.0307761 0)
(0.92 -3.4885e-14 0)
(0.896282 0.0378472 0)
(0.92 6.46449e-15 0)
(0.92 -4.9472e-16 0)
(0.92 3.0935e-14 0)
(0.896491 0.0355997 0)
(0.92 3.9148e-15 0)
(0.92 -8.10013e-14 0)
(0.979815 -0.014698 0)
(0.917425 -0.00622822 0)
(0.92 -2.42851e-14 0)
(0.978212 -0.0130321 0)
(0.895852 0.0382617 0)
(0.920237 0.0229833 0)
(0.932384 0.00435711 0)
(0.92 -4.17376e-14 0)
(0.918871 -0.00466256 0)
(0.92 -3.26982e-08 0)
(0.920312 0.0232231 0)
(0.92 3.14787e-15 0)
(0.92 -5.22787e-14 0)
(0.92 5.54464e-14 0)
(0.92 -1.68413e-14 0)
(0.92 4.55003e-14 0)
(0.91748 -0.00664292 0)
(0.92 -8.42064e-14 0)
(0.92 -1.99359e-13 0)
(0.92 -2.30468e-13 0)
(0.92 -1.05408e-13 0)
(0.92 -7.08214e-14 0)
(0.92 -1.34556e-10 0)
(0.919656 -0.00898602 0)
(0.852333 -0.0150679 0)
(0.92 -1.98833e-13 0)
(0.96346 0.0142574 0)
(0.92 -2.15358e-14 0)
(0.92 -1.92545e-13 0)
(0.92 -3.35726e-14 0)
(0.923357 0.000730898 0)
(0.986479 -0.0168468 0)
(0.885628 -0.0289665 0)
(0.92 8.15348e-14 0)
(0.895003 -0.0194363 0)