/*--------------------------------*- C++ -*----------------------------------*\
  =========                 |
  \\      /  F ield         | OpenFOAM: The Open Source CFD Toolbox
   \\    /   O peration     | Website:  https://openfoam.org
    \\  /    A nd           | Version:  12
     \\/     M anipulation  |
\*---------------------------------------------------------------------------*/
FoamFile
{
    format      ascii;
    class       volVectorField;
    location    "0.11";
    object      U;
}
// * * * * * * * * * * * * * * * * * * * * * * * * * * * * * * * * * * * * * //

dimensions      [0 1 -1 0 0 0 0];

internalField   nonuniform List<vector> 
22702
(
(2 1.23459e-13 0)
(2 -1.0322e-13 0)
(2 -3.37932e-14 0)
(2 -1.08933e-09 0)
(2 -1.75313e-13 0)
(2 8.21564e-15 0)
(1.97442 0.249443 0)
(2 -3.13446e-14 0)
(2 1.523e-13 0)
(1.96652 -0.247665 0)
(1.9173 0.236808 0)
(1.96881 0.245107 0)
(2 1.26935e-13 0)
(2 -3.00428e-14 0)
(2 7.33221e-14 0)
(2 -1.81022e-13 0)
(2 -8.97847e-14 0)
(2 -4.13744e-14 0)
(1.9183 0.234351 0)
(2 -4.47847e-16 0)
(2 3.69434e-14 0)
(2 1.8132e-13 0)
(1.96588 0.245073 0)
(2.02483 -0.256019 0)
(2 -8.68803e-14 0)
(2.00064 -0.0243536 0)
(2 -7.4217e-14 0)
(1.97064 0.2456 0)
(1.95246 -0.244963 0)
(2.04642 -0.255738 0)
(2 -3.30243e-14 0)
(1.96489 0.242559 0)
(2 -3.29765e-14 0)
(2 5.96901e-14 0)
(2 3.4977e-13 0)
(2 2.27845e-14 0)
(2 -1.3857e-13 0)
(1.96725 0.24476 0)
(2 -1.24418e-13 0)
(2 -1.5204e-13 0)
(1.9705 -0.247991 0)
(2 -4.5773e-14 0)
(2 -4.7049e-14 0)
(2 -8.92595e-15 0)
(1.97033 0.245322 0)
(2 -1.44529e-13 0)
(2 2.75641e-13 0)
(2 -3.62577e-14 0)
(2 -7.29608e-14 0)
(2.05182 -0.257227 0)
(2 2.6351e-14 0)
(2.04652 -0.251178 0)
(2 5.96755e-14 0)
(1.91614 0.236755 0)
(2 -7.82305e-14 0)
(1.95919 0.243514 0)
(2 1.77182e-13 0)
(2 1.42029e-09 0)
(2 -9.79591e-14 0)
(2 -1.58939e-13 0)
(1.96662 -0.253587 0)
(2 3.1906e-14 0)
(2 1.01625e-13 0)
(1.95153 -0.247476 0)
(2 -1.39056e-14 0)
(1.97077 -0.246807 0)
(2 1.81919e-13 0)
(2 -1.07458e-13 0)
(2 1.3503e-13 0)
(1.98426 -0.23895 0)
(2 7.38775e-14 0)
(1.98074 0.25495 0)
(2 -7.01012e-14 0)
(2 1.14724e-09 0)
(1.97183 0.248589 0)
(1.9626 0.25419 0)
(1.9719 -0.245949 0)
(1.97999 0.247136 0)
(2.06054 -0.253654 0)
(2 1.82922e-13 0)
(1.93269 0.239256 0)
(2.12439 -0.252162 0)
(1.95415 0.243097 0)
(1.96455 0.24252 0)
(2 -5.34071e-14 0)
(2 -2.79973e-15 0)
(2 1.71445e-14 0)
(2 -5.41651e-14 0)
(2 1.4014e-13 0)
(1.98108 -0.239279 0)
(1.96521 0.245694 0)
(2 1.13527e-13 0)
(2 5.7387e-14 0)
(1.95782 -0.251234 0)
(2 -2.70687e-14 0)
(2 -5.45698e-14 0)
(1.95426 -0.254273 0)
(2 2.32394e-08 0)
(2 1.2821e-14 0)
(2 -2.04066e-13 0)
(2 1.41048e-13 0)
(2 -5.20531e-14 0)
(1.93535 0.23835 0)
(1.99927 -0.00308034 0)
(2 -9.48978e-10 0)
(2 -1.96519e-09 0)
(2 7.76956e-14 0)
(2 3.34255e-09 0)
(2.09672 -0.255495 0)
(2 -6.07511e-14 0)
(1.97965 0.245031 0)
(1.93207 0.239202 0)
(2 1.54858e-14 0)
(2 -6.54811e-14 0)
(2 2.14955e-10 0)
(2 1.78249e-10 0)
(1.97613 -0.243039 0)
(2 -1.9333e-14 0)
(2 -1.52047e-13 0)
(2 -1.4949e-14 0)
(2 -6.29671e-14 0)
(2 1.16949e-07 0)
(2 9.66223e-14 0)
(2 -1.97439e-13 0)
(2 2.83288e-14 0)
(2 -1.2141e-13 0)
(1.98046 0.24866 0)
(2 2.4746e-13 0)
(1.9729 0.246821 0)
(1.91867 0.234579 0)
(2 1.22636e-13 0)
(1.92184 0.239662 0)
(2 1.23653e-13 0)
(1.9828 -0.237354 0)
(2 8.82914e-15 0)
(1.95606 -0.245817 0)
(2 2.81307e-14 0)
(2 1.27231e-13 0)
(2 3.54192e-15 0)
(2 2.84382e-14 0)
(1.92843 0.238909 0)
(2 -6.45293e-14 0)
(2 2.03086e-13 0)
(2 -1.6438e-13 0)
(2 -2.15621e-13 0)
(1.96425 0.242928 0)
(2 9.43047e-15 0)
(1.9953 0.0135198 0)
(2 -1.14642e-13 0)
(2 -6.53158e-14 0)
(2 2.89429e-14 0)
(2 4.80545e-14 0)
(2.0531 -0.255543 0)
(2 -1.1684e-13 0)
(1.99561 0.00913373 0)
(2 3.72356e-14 0)
(2.06093 -0.255359 0)
(2 1.12748e-13 0)
(2 2.81716e-14 0)
(2 -5.91143e-14 0)
(1.96752 0.246087 0)
(2 -7.9807e-15 0)
(1.97075 0.245404 0)
(2 -5.84337e-09 0)
(1.98259 -0.238857 0)
(1.97177 0.247367 0)
(1.97509 0.246681 0)
(2 -2.03441e-14 0)
(2 -7.47274e-14 0)
(2 8.12698e-15 0)
(2 1.51847e-13 0)
(1.9624 0.245617 0)
(2.05908 -0.253214 0)
(2 -1.07666e-13 0)
(2 3.33706e-14 0)
(2 7.43029e-14 0)
(2 -7.48758e-14 0)
(2 5.18708e-14 0)
(2 2.36591e-14 0)
(1.86864 0.195135 0)
(2 3.64963e-14 0)
(1.91168 0.231295 0)
(1.96765 -0.252527 0)
(1.96236 0.244248 0)
(2 1.48819e-13 0)
(1.97431 -0.248684 0)
(2 1.5605e-13 0)
(2.04444 -0.249802 0)
(1.98869 -0.0850913 0)
(2 1.63068e-13 0)
(2 3.57615e-14 0)
(2 -8.00893e-14 0)
(1.87697 0.227863 0)
(2 -3.10722e-14 0)
(2 -9.39817e-14 0)
(2.00001 -3.78298e-05 0)
(2 -1.69592e-13 0)
(1.95304 0.243351 0)
(1.90962 0.230428 0)
(2.21772 -0.282535 0)
(2 -6.14605e-14 0)
(2 1.9175e-13 0)
(2.09377 -0.261559 0)
(2 -3.20943e-07 0)
(2 -9.69443e-15 0)
(2 -2.1127e-15 0)
(2 1.28448e-13 0)
(2 3.05591e-09 0)
(2 1.2339e-13 0)
(1.95452 -0.248159 0)
(2 8.12134e-14 0)
(2 2.60542e-13 0)
(2 -4.69893e-09 0)
(2 3.11506e-10 0)
(1.9639 0.244927 0)
(2 5.99941e-15 0)
(2 2.6449e-15 0)
(2 -3.60857e-14 0)
(2 8.69055e-14 0)
(2 2.16353e-13 0)
(2 1.64461e-13 0)
(2 -2.07562e-14 0)
(1.98717 -0.250644 0)
(1.96439 0.252456 0)
(2 -1.00053e-05 0)
(2 -2.58694e-15 0)
(2 1.88313e-07 0)
(2 -1.12468e-13 0)
(2 -4.72809e-14 0)
(2.25065 -0.295592 0)
(2 2.33539e-13 0)
(1.92041 0.129809 0)
(2 -8.21221e-14 0)
(2 4.63388e-14 0)
(1.9665 -0.246514 0)
(1.96105 -0.243877 0)
(2 8.70899e-15 0)
(2 -9.3642e-15 0)
(2 4.38183e-14 0)
(2 -1.60242e-14 0)
(2 -4.13115e-09 0)
(2 1.31805e-13 0)
(2 -4.65439e-14 0)
(2 2.41039e-13 0)
(2 5.59174e-14 0)
(2 2.82902e-13 0)
(2 -1.35608e-07 0)
(2 -1.145e-13 0)
(2 -2.35507e-13 0)
(2 -2.26789e-15 0)
(2 2.96042e-13 0)
(2 4.67472e-14 0)
(2 -7.1727e-07 0)
(1.94736 -0.266419 0)
(2 -5.41842e-14 0)
(2 -1.17533e-13 0)
(2 1.00895e-14 0)
(1.9515 -0.246424 0)
(2 9.28785e-14 0)
(2 7.91511e-14 0)
(2 -2.10027e-14 0)
(2 3.55901e-14 0)
(2 -1.56163e-13 0)
(2 -9.27888e-14 0)
(2 -2.66209e-13 0)
(2 -6.47227e-14 0)
(2.06122 -0.246458 0)
(2 -6.19388e-14 0)
(1.96351 -0.245184 0)
(2 -2.94048e-11 0)
(2 -1.22259e-13 0)
(2 1.79657e-14 0)
(2 2.28577e-14 0)
(2 -1.14021e-14 0)
(1.97838 0.23774 0)
(2 -1.59808e-13 0)
(2.05846 -0.248477 0)
(2 5.09955e-14 0)
(2.2398 -0.314335 0)
(2.09382 -0.259077 0)
(2 3.43948e-13 0)
(1.95448 -0.247878 0)
(2 5.88763e-14 0)
(2 -4.73214e-14 0)
(2 -1.04588e-13 0)
(2 -7.99817e-14 0)
(2 -4.78171e-14 0)
(1.97004 -0.241389 0)
(2 -4.4787e-09 0)
(2 -1.11281e-14 0)
(2 8.47133e-15 0)
(2.25443 -0.311093 0)
(2 -1.25013e-13 0)
(1.92584 0.236002 0)
(2.00291 -0.0468431 0)
(2 2.23055e-15 0)
(2 -1.26656e-13 0)
(1.92283 0.238669 0)
(2 -4.61056e-09 0)
(2 -3.86094e-14 0)
(2 4.22577e-14 0)
(1.98239 -0.210655 0)
(2 -1.57199e-07 0)
(2 2.10216e-13 0)
(2.23425 -0.315164 0)
(2 -7.91945e-14 0)
(2 -3.64491e-14 0)
(2 5.39604e-14 0)
(2 -9.1038e-14 0)
(2.0363 -0.250767 0)
(2 -6.42768e-14 0)
(2 -1.48973e-13 0)
(2 -3.23817e-07 0)
(2 -6.68981e-14 0)
(2 2.77589e-12 0)
(2 -4.07966e-14 0)
(2 -5.1813e-14 0)
(2 -2.78008e-12 0)
(2 5.50647e-14 0)
(2 3.21075e-14 0)
(2 -4.38081e-14 0)
(2 1.90177e-13 0)
(2 2.11818e-14 0)
(2 1.05651e-13 0)
(2 8.00394e-15 0)
(1.92245 0.238862 0)
(2 3.14545e-14 0)
(1.87625 0.229722 0)
(2 -6.1404e-14 0)
(2 1.41245e-13 0)
(2 -2.18496e-14 0)
(1.98277 -0.203773 0)
(2 2.86313e-14 0)
(1.96019 0.243508 0)
(1.95538 -0.247876 0)
(2 -7.8235e-14 0)
(2 -1.08204e-14 0)
(2 1.68565e-13 0)
(2 2.92294e-13 0)
(1.89182 0.231014 0)
(2 -7.81537e-14 0)
(2 -1.86813e-13 0)
(2 -1.48773e-15 0)
(1.96496 0.243912 0)
(2 -1.66703e-15 0)
(2 -1.8962e-14 0)
(1.83132 0.229733 0)
(1.8937 0.231387 0)
(2 1.24182e-13 0)
(2 8.52561e-14 0)
(2 5.42783e-14 0)
(2 3.03009e-14 0)
(1.9524 -0.249968 0)
(2 1.21566e-13 0)
(2 -3.26295e-14 0)
(2 -1.4586e-13 0)
(1.9592 -0.243507 0)
(2 -4.19835e-14 0)
(2 -1.24152e-13 0)
(2 2.73682e-14 0)
(2 -4.53145e-14 0)
(2 9.71884e-11 0)
(2 2.25362e-14 0)
(2 -4.84577e-14 0)
(2 -4.89303e-14 0)
(2 2.75928e-14 0)
(2 -3.00888e-15 0)
(2 1.72136e-06 0)
(2 3.29388e-14 0)
(1.97973 0.251596 0)
(2 9.3456e-14 0)
(2 -8.91331e-14 0)
(1.97719 0.247209 0)
(1.97013 0.249159 0)
(2 -1.51563e-13 0)
(2 -1.45901e-13 0)
(2.2188 -0.288194 0)
(2 -5.04999e-14 0)
(1.93867 0.237195 0)
(2 6.62124e-14 0)
(2 -1.10801e-13 0)
(2 -1.53105e-13 0)
(2 -6.05052e-07 0)
(1.98577 -0.247778 0)
(2 -1.10498e-14 0)
(1.9733 0.252036 0)
(2 -9.40632e-14 0)
(2 -4.065e-14 0)
(2 3.02079e-07 0)
(2 -0.000105773 0)
(2 -1.58866e-13 0)
(1.99738 -0.244421 0)
(1.95659 -0.219614 0)
(2 6.25609e-14 0)
(2 -3.11418e-14 0)
(2 -1.08519e-13 0)
(2 -6.95523e-14 0)
(2 -2.9552e-14 0)
(2 1.0193e-14 0)
(2 9.84202e-14 0)
(1.98568 0.247866 0)
(2 4.33031e-15 0)
(2 1.29075e-13 0)
(2 2.5777e-06 0)
(2 1.04744e-07 0)
(1.92012 0.239048 0)
(2 1.80318e-13 0)
(1.96507 0.244058 0)
(1.93699 0.236714 0)
(1.97743 -0.239828 0)
(2 -1.35794e-13 0)
(2 1.26225e-14 0)
(1.95614 -0.243137 0)
(2 8.74021e-14 0)
(1.8224 0.234997 0)
(2 1.21719e-13 0)
(2 5.69866e-15 0)
(2 -6.50333e-14 0)
(2 7.79585e-14 0)
(2 -2.32799e-07 0)
(2 -4.36247e-14 0)
(2 -3.6207e-14 0)
(2 -4.62162e-14 0)
(2 1.22083e-13 0)
(2 -1.36052e-13 0)
(2 -2.7391e-14 0)
(2 2.41561e-13 0)
(2 5.65235e-15 0)
(1.96905 0.245297 0)
(2 4.13895e-14 0)
(2 -5.94213e-12 0)
(2 3.67704e-14 0)
(2 -1.10611e-13 0)
(2.16471 -0.253744 0)
(2 -4.39422e-14 0)
(2 6.95177e-14 0)
(2 1.08871e-13 0)
(2 -6.01613e-14 0)
(2 5.50766e-08 0)
(2 -1.32195e-13 0)
(2 -1.47417e-13 0)
(2 -1.92515e-13 0)
(2.0041 -0.256197 0)
(1.99985 0.00123062 0)
(2 -1.40448e-08 0)
(2 5.23527e-14 0)
(2 -9.34045e-09 0)
(1.99995 -0.00015792 0)
(2 1.47581e-10 0)
(2 -2.33179e-14 0)
(2 -1.92315e-14 0)
(2 1.10063e-13 0)
(2 3.18825e-07 0)
(2 -1.29225e-13 0)
(2 1.71852e-10 0)
(2 -4.15033e-14 0)
(1.97 -0.242069 0)
(2 -4.32934e-14 0)
(1.95509 0.243418 0)
(2 -4.85019e-14 0)
(2 1.14519e-13 0)
(2 7.10292e-14 0)
(2 5.4877e-14 0)
(2.09716 -0.251523 0)
(2 5.53517e-13 0)
(2 1.10841e-13 0)
(2 7.94327e-14 0)
(2 4.96527e-14 0)
(2 7.54317e-09 0)
(1.9411 0.236995 0)
(2 1.16133e-13 0)
(1.91636 0.123727 0)
(2 -7.54787e-16 0)
(2 6.83204e-14 0)
(2 -5.42481e-14 0)
(2 -7.88251e-15 0)
(2 -8.58127e-14 0)
(2 -1.58542e-09 0)
(2 1.94435e-13 0)
(2 -3.38819e-10 0)
(2 -1.07175e-13 0)
(2 1.21951e-10 0)
(2 -1.40255e-11 0)
(2 5.1427e-10 0)
(1.99743 0.0201557 0)
(2 -1.18613e-13 0)
(2 -5.15918e-14 0)
(2 -1.59073e-09 0)
(2 9.02757e-09 0)
(2 5.09037e-14 0)
(2 -6.82034e-14 0)
(2 -6.00254e-15 0)
(2 5.34533e-14 0)
(2 4.28167e-14 0)
(2 1.24561e-13 0)
(2 2.13988e-13 0)
(2 8.08011e-14 0)
(2 -2.02347e-13 0)
(2 -9.10059e-14 0)
(1.9503 0.240195 0)
(2 -1.84978e-14 0)
(2 4.45961e-14 0)
(2 -7.32841e-14 0)
(2 2.72975e-08 0)
(2 -1.08108e-13 0)
(2 1.3154e-13 0)
(2 -1.57295e-13 0)
(2 9.97995e-14 0)
(2 -1.34912e-13 0)
(2 2.54551e-13 0)
(1.98539 0.201338 0)
(2 -1.74638e-13 0)
(2 9.70573e-15 0)
(2 -1.13719e-13 0)
(2 -7.12757e-14 0)
(2 -5.21919e-12 0)
(2 -8.30477e-14 0)
(2 2.01381e-13 0)
(2 -1.40428e-13 0)
(2 -9.07816e-14 0)
(2 -1.94578e-14 0)
(2 -1.6881e-13 0)
(2 2.25846e-13 0)
(2 1.6814e-14 0)
(2 1.05202e-13 0)
(2 1.27866e-13 0)
(2 -1.42598e-13 0)
(2 6.09375e-08 0)
(2 2.55646e-13 0)
(2 -2.4607e-14 0)
(2 6.50621e-14 0)
(2 6.89349e-08 0)
(2 7.42372e-14 0)
(2 -1.56664e-14 0)
(2 -6.58498e-14 0)
(2 -1.4797e-07 0)
(1.9668 0.246398 0)
(2 -5.46321e-08 0)
(1.98195 0.248119 0)
(2 -1.00635e-13 0)
(1.91519 0.238301 0)
(2 -4.69318e-14 0)
(2 -1.20043e-13 0)
(2.04405 -0.252711 0)
(2 1.14622e-13 0)
(2 4.89221e-14 0)
(2 1.84869e-14 0)
(2 -1.9955e-06 0)
(2 -3.74148e-14 0)
(1.94854 -0.258068 0)
(1.96796 -0.170916 0)
(2 3.89182e-14 0)
(2 -1.98205e-13 0)
(2 -8.55209e-14 0)
(2 3.30954e-13 0)
(2 -9.35108e-14 0)
(1.95174 -0.268591 0)
(2 1.15778e-14 0)
(2 3.23008e-11 0)
(2 -1.18815e-13 0)
(1.98976 0.0657103 0)
(2 -9.74125e-14 0)
(2 -1.52776e-13 0)
(2 1.2091e-13 0)
(2 9.47059e-14 0)
(2 -7.98709e-14 0)
(2 -1.33326e-11 0)
(2 1.66717e-13 0)
(2 1.48343e-14 0)
(2 -1.041e-13 0)
(2 -6.04437e-14 0)
(2 -1.0894e-13 0)
(2 8.5302e-06 0)
(2 -1.6375e-13 0)
(2 -3.50379e-14 0)
(2 -6.51537e-14 0)
(2 7.59423e-14 0)
(2 -1.51248e-13 0)
(2 -1.95825e-14 0)
(2.20949 -0.276738 0)
(2 -2.64628e-13 0)
(2 -1.39155e-12 0)
(2 7.52521e-14 0)
(2 4.04005e-14 0)
(2 4.1049e-14 0)
(1.9664 0.248982 0)
(2 -2.18651e-14 0)
(2 6.97615e-14 0)
(2 -3.90655e-14 0)
(2 5.07954e-13 0)
(2 -3.29855e-10 0)
(2 -1.11723e-13 0)
(2 1.12983e-13 0)
(2.04856 -0.257166 0)
(2 1.01882e-13 0)
(2 -1.18549e-13 0)
(2 -4.40108e-14 0)
(2 -1.66316e-14 0)
(2 -7.73461e-14 0)
(2 -3.24079e-14 0)
(2 2.50068e-08 0)
(1.91415 0.237856 0)
(2 -1.38755e-13 0)
(2 -2.10666e-14 0)
(2 3.21087e-14 0)
(2 -1.11463e-07 0)
(2 -8.05921e-14 0)
(2 8.71171e-14 0)
(2 -7.81803e-14 0)
(2 1.84712e-13 0)
(2.00023 -0.0822094 0)
(1.93262 0.236727 0)
(2 -6.00743e-14 0)
(2 -5.14497e-14 0)
(2 -8.64681e-14 0)
(2 8.50215e-15 0)
(2 -5.94346e-14 0)
(2 -1.45931e-13 0)
(1.96899 0.24609 0)
(2 -1.59021e-13 0)
(2 9.15581e-14 0)
(2 5.83908e-14 0)
(2 -2.03815e-14 0)
(2 -1.46338e-13 0)
(2 -4.60127e-12 0)
(2 3.5604e-14 0)
(2 -1.97052e-14 0)
(2 -4.29787e-14 0)
(2 7.71214e-14 0)
(2 2.17296e-14 0)
(2 3.37149e-14 0)
(2 -1.80252e-14 0)
(1.95427 -0.272753 0)
(2 8.51472e-14 0)
(1.97083 -0.262831 0)
(2 -8.57061e-14 0)
(2 -1.96254e-14 0)
(2 -1.3621e-13 0)
(2 -1.14579e-13 0)
(2.03895 -0.246134 0)
(2 -1.28917e-13 0)
(2 -2.08144e-14 0)
(2 -8.43196e-14 0)
(2 1.07107e-13 0)
(1.9759 0.0366139 0)
(2 -2.16112e-13 0)
(2 -1.23435e-13 0)
(2 -3.12001e-09 0)
(2 8.64989e-14 0)
(2 -9.40486e-14 0)
(2 5.72782e-14 0)
(2 7.7779e-14 0)
(2 8.38468e-14 0)
(2 1.63719e-13 0)
(2 -6.70806e-14 0)
(2 -1.65024e-06 0)
(2 -3.47237e-12 0)
(2 2.41809e-14 0)
(2 4.86081e-14 0)
(2 -9.0762e-14 0)
(2 -1.99849e-13 0)
(2.10152 -0.252444 0)
(2 -3.08e-14 0)
(2 1.93087e-14 0)
(2 -4.98793e-11 0)
(2 8.78803e-14 0)
(2 4.84143e-14 0)
(2 1.30083e-13 0)
(2 5.18128e-14 0)
(2 -2.51868e-15 0)
(2 -9.3762e-14 0)
(1.97084 -0.247866 0)
(2 2.60285e-14 0)
(2 6.15857e-14 0)
(2 2.08355e-13 0)
(1.93676 0.237809 0)
(2 1.90146e-14 0)
(2 2.25867e-13 0)
(2 1.17957e-13 0)
(2 -3.37639e-09 0)
(2 4.01994e-14 0)
(2 1.77514e-14 0)
(2 1.25052e-13 0)
(2 -2.51006e-13 0)
(2 -1.34475e-13 0)
(2 -9.47531e-14 0)
(2 -1.75776e-11 0)
(2 6.04735e-12 0)
(2 8.13986e-14 0)
(2 -1.25708e-13 0)
(2 -7.68204e-14 0)
(2 -1.39906e-14 0)
(1.91617 0.205759 0)
(2 1.64856e-13 0)
(2 -5.11227e-09 0)
(2 3.59146e-14 0)
(2 -8.58202e-14 0)
(1.97071 0.245208 0)
(1.97087 0.245696 0)
(2 -5.94637e-14 0)
(2 -1.237e-14 0)
(2 -2.54977e-13 0)
(2 -8.82006e-14 0)
(2 -8.11041e-14 0)
(2 -9.26582e-14 0)
(2 -1.09125e-13 0)
(2 -1.85532e-14 0)
(2 5.04549e-14 0)
(1.96802 -0.245331 0)
(2 -1.8042e-14 0)
(2 -1.01572e-14 0)
(1.88394 0.224835 0)
(1.95336 -0.248679 0)
(2 1.20447e-13 0)
(1.87946 0.221945 0)
(2 1.9406e-14 0)
(2.05451 -0.255488 0)
(2 -1.16588e-13 0)
(2 6.70328e-14 0)
(1.96793 -0.262227 0)
(2 -9.76212e-14 0)
(2 5.35562e-14 0)
(2 8.38877e-14 0)
(2 -9.66831e-14 0)
(2 -1.02265e-15 0)
(2 -2.4568e-13 0)
(2 -1.43579e-13 0)
(2 2.6309e-14 0)
(2 5.32103e-15 0)
(2 -1.76536e-13 0)
(2 -1.989e-13 0)
(2 -1.80405e-13 0)
(2 -2.13708e-13 0)
(2 -5.86922e-14 0)
(2 -1.12384e-13 0)
(2 -8.85405e-14 0)
(2.012 -0.239666 0)
(2 -3.15462e-08 0)
(2 -1.97372e-13 0)
(2 1.41281e-13 0)
(2 1.13536e-13 0)
(2 4.17774e-14 0)
(2 -3.66547e-14 0)
(2 -6.14568e-14 0)
(2 1.00459e-11 0)
(2 6.25156e-14 0)
(2 1.27661e-13 0)
(1.9072 0.12044 0)
(2 3.55944e-14 0)
(2 1.14831e-13 0)
(2 7.78108e-14 0)
(2 -8.79539e-15 0)
(2 6.365e-14 0)
(2 1.06954e-13 0)
(2 -7.4809e-14 0)
(2 -4.4932e-14 0)
(1.95232 -0.261455 0)
(2 5.09921e-12 0)
(2 2.76123e-13 0)
(1.99324 -0.049373 0)
(1.9551 -0.248557 0)
(2 -1.52185e-13 0)
(2 -2.45348e-14 0)
(2 -1.30091e-06 0)
(2 -1.92847e-13 0)
(2.10704 0.0137151 0)
(2 -1.87163e-14 0)
(2 4.02917e-14 0)
(2 -2.63825e-14 0)
(2 -6.24372e-14 0)
(1.99277 -0.0325601 0)
(2 5.58962e-15 0)
(1.98927 -0.0648588 0)
(2 -5.86503e-14 0)
(2 2.48676e-06 0)
(2 9.90643e-14 0)
(2 -3.64948e-14 0)
(2 6.1265e-15 0)
(1.9146 0.21441 0)
(2 1.82147e-14 0)
(2 1.26863e-14 0)
(2 1.81578e-07 0)
(2 -4.15519e-14 0)
(2 9.12444e-15 0)
(2 1.30879e-13 0)
(2 3.91885e-08 0)
(2 -4.81281e-14 0)
(2 -5.03176e-14 0)
(2 -9.76031e-07 0)
(2 -1.00661e-13 0)
(2 -4.67388e-14 0)
(1.97724 -0.239676 0)
(2 9.76128e-14 0)
(2 -6.51552e-14 0)
(2 2.53229e-15 0)
(2 2.65531e-14 0)
(1.92427 0.239859 0)
(1.91755 0.237455 0)
(2 8.5985e-14 0)
(2 -1.56499e-13 0)
(2 2.38831e-13 0)
(1.96991 -0.237787 0)
(2 -8.02637e-16 0)
(2 -8.85159e-14 0)
(2 -3.96694e-14 0)
(2 -1.24065e-13 0)
(1.95902 -0.259499 0)
(2 -1.93111e-13 0)
(2 -1.14536e-13 0)
(2 2.08446e-14 0)
(2 1.96213e-12 0)
(2 -7.56167e-14 0)
(2 -3.78852e-14 0)
(2 -2.97491e-13 0)
(2 -3.50997e-13 0)
(2 -3.71255e-14 0)
(2 -2.27605e-14 0)
(2 8.47176e-14 0)
(1.89613 0.213663 0)
(1.97438 -0.238647 0)
(2 2.18922e-13 0)
(2 3.77135e-14 0)
(2.00001 -3.18645e-06 0)
(1.99984 -0.000105504 0)
(2 -8.53377e-14 0)
(2 -3.494e-14 0)
(2 -3.70996e-15 0)
(2 -1.98981e-14 0)
(2 -1.50269e-14 0)
(2 6.19225e-14 0)
(2 -6.81023e-14 0)
(2 1.72988e-13 0)
(2 -1.88913e-13 0)
(2 -1.56663e-13 0)
(2 -3.86995e-14 0)
(2 9.23577e-14 0)
(2 -6.28509e-14 0)
(1.9733 0.247047 0)
(2 1.52812e-11 0)
(2 -2.8036e-14 0)
(2 -1.84827e-13 0)
(1.98318 -0.246822 0)
(2 -9.1271e-14 0)
(2 -1.02854e-13 0)
(2 -5.52215e-14 0)
(2 -2.79899e-15 0)
(2 -8.46558e-16 0)
(2 -2.40994e-13 0)
(2 -3.58011e-14 0)
(2 -1.23903e-14 0)
(2 1.00007e-13 0)
(2 -1.21801e-13 0)
(1.96642 -0.243964 0)
(2 -5.00572e-14 0)
(1.95066 0.243905 0)
(2 -2.47017e-14 0)
(2 -1.63673e-13 0)
(1.98164 0.158964 0)
(2 -2.03932e-13 0)
(2 -7.59593e-14 0)
(1.82731 0.228623 0)
(2 1.49612e-14 0)
(1.95408 -0.250862 0)
(2 7.20345e-14 0)
(2 -4.1602e-15 0)
(2 6.88007e-14 0)
(2 4.57844e-14 0)
(2 5.01322e-15 0)
(2 -4.76109e-14 0)
(2 -2.72839e-14 0)
(1.88333 0.219302 0)
(2 4.56088e-07 0)
(2 2.31031e-13 0)
(2 2.13464e-09 0)
(2 -9.60808e-09 0)
(2 5.21294e-14 0)
(2 -3.23578e-14 0)
(1.95117 -0.247623 0)
(2 -1.09398e-09 0)
(1.99437 -0.154486 0)
(2 -2.89545e-14 0)
(2 1.43778e-14 0)
(2 -2.96563e-14 0)
(2 -1.25316e-13 0)
(2 7.56894e-14 0)
(2 -1.33245e-05 0)
(2 1.94225e-14 0)
(2 -5.91427e-06 0)
(2 -2.36198e-13 0)
(2 -1.71021e-13 0)
(2 2.85203e-14 0)
(2 -7.67582e-14 0)
(2 9.805e-14 0)
(1.96183 -0.246498 0)
(2 2.77978e-07 0)
(2 -2.13177e-14 0)
(1.97802 -0.249965 0)
(1.99943 -0.00476419 0)
(1.9977 -0.0181551 0)
(2 3.81708e-14 0)
(2 -9.71281e-14 0)
(2 5.82451e-13 0)
(2 -4.14259e-14 0)
(2 1.79767e-07 0)
(2 -5.30138e-14 0)
(2 4.37246e-14 0)
(2 -2.47984e-14 0)
(2 1.36129e-14 0)
(2 6.69598e-09 0)
(2 -4.45765e-14 0)
(2 5.42948e-14 0)
(2 7.87042e-09 0)
(2 4.48495e-07 0)
(2 1.53187e-13 0)
(2 -7.29108e-14 0)
(2 -1.83376e-13 0)
(2 1.32966e-14 0)
(2 -1.85075e-13 0)
(1.96837 0.24639 0)
(2 1.51907e-06 0)
(2 -1.82682e-14 0)
(2 3.73382e-06 0)
(2.23206 -0.28349 0)
(2.15508 -0.26081 0)
(2.12941 0.0195741 0)
(1.97188 0.24649 0)
(2 -8.53227e-14 0)
(2 -1.22396e-13 0)
(2 -8.03641e-14 0)
(2 -3.27189e-08 0)
(2 -1.62265e-13 0)
(2 -1.66132e-13 0)
(1.97562 0.246905 0)
(1.88201 0.228202 0)
(2 -7.13533e-14 0)
(1.82909 0.229569 0)
(2 -2.18065e-14 0)
(2 4.41207e-15 0)
(1.97119 -0.245829 0)
(1.9063 0.208573 0)
(1.90848 0.21062 0)
(1.87926 0.221232 0)
(2 2.89426e-08 0)
(2 -2.97591e-09 0)
(2 -2.09738e-09 0)
(2 -6.74244e-11 0)
(2 -4.847e-06 0)
(2 6.3442e-12 0)
(1.94617 0.220387 0)
(2 -6.72105e-14 0)
(2 -1.91556e-14 0)
(2 1.53319e-14 0)
(1.95995 0.256423 0)
(2 -9.27229e-14 0)
(1.95509 -0.244224 0)
(1.89689 0.214642 0)
(2 2.54329e-07 0)
(2 -9.31359e-14 0)
(2 2.72545e-12 0)
(2 4.25534e-12 0)
(2 6.98973e-14 0)
(2 1.81952e-08 0)
(1.97679 -0.249745 0)
(2 6.12686e-08 0)
(1.97991 0.248617 0)
(1.92706 0.240792 0)
(2 4.37528e-08 0)
(2 -3.37487e-14 0)
(2 -2.32821e-13 0)
(2 6.01402e-14 0)
(2 4.62777e-07 0)
(2 7.00577e-15 0)
(2 -2.61797e-13 0)
(2 1.161e-08 0)
(1.99171 -0.101486 0)
(2 3.1101e-07 0)
(2 -7.30965e-14 0)
(2 -4.04082e-15 0)
(2 -2.56792e-14 0)
(2 2.79042e-15 0)
(1.91655 0.208699 0)
(2 4.03956e-08 0)
(2 -9.30351e-14 0)
(2 9.09371e-14 0)
(2 8.02943e-09 0)
(1.97735 -0.154116 0)
(1.97231 0.248397 0)
(2.09909 -0.258687 0)
(2 5.20402e-15 0)
(2 -2.61892e-13 0)
(2 -4.64734e-15 0)
(1.96028 -0.247542 0)
(2 -8.5473e-12 0)
(2 3.05506e-06 0)
(2 8.39586e-15 0)
(2 1.27381e-07 0)
(2 -6.1299e-12 0)
(2 -1.23547e-14 0)
(2 -1.60401e-13 0)
(2 2.3012e-13 0)
(2 4.08098e-14 0)
(2 -4.46667e-12 0)
(2.037 -0.245209 0)
(2 -1.36156e-13 0)
(2 1.23965e-13 0)
(2 -5.33265e-14 0)
(2 1.2316e-06 0)
(2 9.08523e-14 0)
(1.95512 -0.252539 0)
(2 -8.72851e-14 0)
(2 -1.50742e-06 0)
(1.99963 -0.00160826 0)
(2 8.85545e-14 0)
(2.05625 -0.253018 0)
(2 1.46028e-14 0)
(2 -7.34424e-12 0)
(2 3.35594e-15 0)
(1.96509 0.24595 0)
(2 1.90635e-13 0)
(2 5.99566e-14 0)
(2 1.74155e-14 0)
(2 -5.30938e-14 0)
(2 -1.1159e-05 0)
(2 2.92535e-13 0)
(1.96746 0.231694 0)
(2 4.81027e-14 0)
(2 1.23915e-13 0)
(2 8.67303e-15 0)
(2 1.24723e-13 0)
(2 -4.7634e-14 0)
(2 -1.63857e-14 0)
(1.96003 0.238586 0)
(2 -9.43942e-14 0)
(2 4.54247e-12 0)
(1.95329 -0.250162 0)
(2 -5.2328e-14 0)
(2 2.36198e-14 0)
(2 9.8476e-15 0)
(2 -1.53346e-13 0)
(1.91813 0.213764 0)
(2 -8.73089e-15 0)
(1.91383 0.212168 0)
(2 -1.64021e-13 0)
(2 -1.79518e-13 0)
(1.95804 0.245338 0)
(2 -2.05392e-13 0)
(2 8.57198e-14 0)
(2 9.51772e-09 0)
(2 -6.42815e-14 0)
(2 -9.44667e-15 0)
(2 -9.74537e-14 0)
(1.9661 0.246703 0)
(2 -1.19036e-13 0)
(2 1.61305e-13 0)
(2 -4.81146e-14 0)
(2 -5.45173e-14 0)
(2 2.51271e-14 0)
(2 7.79825e-14 0)
(2 7.70675e-14 0)
(2 7.74496e-14 0)
(2 2.84699e-14 0)
(2 2.43676e-14 0)
(1.97498 -0.110931 0)
(2 -1.6198e-15 0)
(1.96273 -0.264925 0)
(2 -9.00115e-14 0)
(2 -3.11679e-14 0)
(2 -6.00061e-14 0)
(1.96953 0.24581 0)
(2 -2.35269e-13 0)
(2 -4.14613e-14 0)
(2 2.18592e-14 0)
(2 -1.20485e-13 0)
(2 -1.43448e-13 0)
(2 2.08501e-08 0)
(2 -1.62615e-14 0)
(2 -4.57345e-14 0)
(1.99024 0.11227 0)
(1.99612 0.0299649 0)
(1.96824 -0.263764 0)
(1.99997 0.00304366 0)
(1.94225 0.242956 0)
(2 -9.45622e-14 0)
(2 5.47066e-14 0)
(2 -5.31838e-14 0)
(2 6.24862e-14 0)
(2 4.31865e-13 0)
(1.95487 0.243905 0)
(1.95344 0.243122 0)
(2 3.6171e-14 0)
(1.96799 0.247108 0)
(1.95271 0.225796 0)
(1.94365 0.222696 0)
(2 -5.12464e-12 0)
(2 -1.03791e-13 0)
(2 -5.72531e-15 0)
(2 -1.69463e-14 0)
(2 1.37992e-13 0)
(2 1.2104e-10 0)
(2 -1.24071e-13 0)
(2 -1.20483e-14 0)
(2 4.7839e-14 0)
(2 1.88793e-13 0)
(1.96956 -0.229479 0)
(2 1.13257e-13 0)
(2 5.2445e-14 0)
(2 -6.82397e-14 0)
(2 -6.49281e-06 0)
(2 2.07306e-13 0)
(2 -8.59884e-14 0)
(2 -8.79333e-14 0)
(1.95912 0.24469 0)
(2 -1.43375e-10 0)
(2 -1.6487e-10 0)
(2 -2.44989e-14 0)
(2 -1.53213e-11 0)
(2 1.03183e-13 0)
(2 -3.15215e-14 0)
(2 -6.69024e-14 0)
(2 1.61245e-13 0)
(2 -1.26655e-14 0)
(2.00129 0.0137208 0)
(1.98365 0.189061 0)
(2 7.13313e-15 0)
(2 -3.36816e-09 0)
(2 -1.1114e-13 0)
(1.96902 0.248418 0)
(1.98674 0.0781535 0)
(1.99572 0.0907151 0)
(2 -1.43251e-14 0)
(2.00057 0.0340693 0)
(1.9656 0.258265 0)
(2 -9.00815e-14 0)
(1.96636 0.248026 0)
(2 6.09273e-14 0)
(2 2.0712e-13 0)
(2 4.73445e-14 0)
(1.97923 0.232094 0)
(2 -4.33567e-07 0)
(1.96474 0.246196 0)
(2 -1.16401e-14 0)
(1.96487 0.122998 0)
(2 3.50792e-14 0)
(2 -6.15302e-14 0)
(1.97363 0.121691 0)
(2 -1.71313e-06 0)
(1.99753 -0.18781 0)
(1.9653 0.207785 0)
(2 -2.90353e-07 0)
(2 4.70679e-15 0)
(2 4.48448e-14 0)
(2 -1.20331e-14 0)
(2 -6.06237e-14 0)
(2 9.52924e-14 0)
(2 -5.41972e-08 0)
(2 -6.75753e-14 0)
(2 -1.31469e-14 0)
(2 -1.23583e-13 0)
(2 3.60189e-07 0)
(2 -5.52435e-14 0)
(2 -4.03909e-14 0)
(2 3.8431e-14 0)
(2 5.92083e-14 0)
(2 -5.46616e-07 0)
(2 2.69014e-08 0)
(2 -3.96172e-14 0)
(2 3.5526e-14 0)
(2 -1.84815e-14 0)
(2 1.39678e-13 0)
(2 6.39914e-14 0)
(2 1.74075e-13 0)
(2 -8.66364e-14 0)
(2 -2.73748e-08 0)
(2 -8.41335e-14 0)
(1.99967 0.00369378 0)
(2 5.14085e-08 0)
(2 -2.40242e-14 0)
(2 -1.01206e-13 0)
(2 -5.38551e-14 0)
(2.0025 0.205252 0)
(2 -1.73316e-13 0)
(2 3.51485e-15 0)
(2 1.36187e-13 0)
(2 2.4225e-14 0)
(1.96988 0.247115 0)
(1.97673 0.247986 0)
(2 6.53005e-14 0)
(2 -2.31909e-14 0)
(2 -0.000598818 0)
(2 -6.09592e-09 0)
(2 1.74224e-08 0)
(2 3.72339e-13 0)
(2 6.05595e-14 0)
(2.00001 -0.000224354 0)
(1.98062 0.231469 0)
(2 3.05709e-08 0)
(2 2.2364e-13 0)
(2 7.35258e-14 0)
(1.97019 -0.179913 0)
(1.95942 0.241532 0)
(2 -6.41332e-06 0)
(1.97993 -0.213737 0)
(1.97796 -0.0978983 0)
(2 -2.2355e-14 0)
(2 -9.08559e-14 0)
(2 1.00321e-09 0)
(2 -6.403e-14 0)
(2 -3.68659e-14 0)
(2 -5.28497e-15 0)
(2 2.36259e-13 0)
(1.92288 0.187226 0)
(2 1.24605e-13 0)
(2 -1.07794e-13 0)
(2 1.00915e-13 0)
(2 -4.65842e-14 0)
(2 1.58185e-09 0)
(2 -6.1763e-12 0)
(2.0056 0.207164 0)
(2 -1.16382e-13 0)
(1.95087 0.242607 0)
(1.97314 0.263243 0)
(2 -1.73913e-13 0)
(2 3.32205e-14 0)
(1.98049 -0.253074 0)
(2 1.27976e-14 0)
(2 -1.90689e-07 0)
(1.97189 0.255651 0)
(2 5.63089e-14 0)
(2 -1.15464e-13 0)
(2 7.15088e-14 0)
(1.87132 0.222015 0)
(2 4.1102e-14 0)
(2 -1.03516e-06 0)
(2.0001 0.000550153 0)
(2 3.52263e-06 0)
(2 -4.16554e-14 0)
(2 -9.175e-14 0)
(2.00003 -4.84968e-05 0)
(2 6.64303e-14 0)
(2 -1.00354e-13 0)
(2 -4.07406e-14 0)
(2 -1.93594e-08 0)
(1.95842 0.253505 0)
(2 -5.76088e-14 0)
(2 -2.95969e-13 0)
(2 1.18474e-13 0)
(2 1.64991e-13 0)
(2 -2.01604e-12 0)
(2 2.15202e-13 0)
(2.00096 0.00773106 0)
(1.97428 0.155776 0)
(2 4.65656e-07 0)
(2 -1.23253e-13 0)
(2 -8.00713e-14 0)
(2 -1.75557e-13 0)
(2.00006 0.00039521 0)
(2 -1.86515e-06 0)
(1.98508 0.0581384 0)
(2 8.65303e-14 0)
(2 -1.22251e-13 0)
(2 -1.57674e-13 0)
(2 -2.98126e-13 0)
(2 -1.00501e-14 0)
(1.93542 0.219989 0)
(1.92988 0.210447 0)
(2 -5.0755e-11 0)
(2 -7.70039e-14 0)
(1.93779 0.220469 0)
(2 -1.02062e-13 0)
(2 8.41406e-14 0)
(2 -7.44981e-11 0)
(1.95926 0.261326 0)
(2 -1.98324e-10 0)
(2 -6.87421e-13 0)
(2 2.64372e-14 0)
(2 -8.15789e-14 0)
(1.82582 0.230415 0)
(2 -4.73986e-15 0)
(2 8.05664e-14 0)
(2 -1.23456e-13 0)
(1.9703 0.247364 0)
(2 -2.17763e-13 0)
(1.88402 0.219468 0)
(2 -9.87572e-14 0)
(2 1.39268e-12 0)
(1.95853 0.258943 0)
(2 -3.23267e-08 0)
(2 -4.2225e-11 0)
(2 -1.36408e-13 0)
(2 1.22715e-11 0)
(2 -5.41148e-14 0)
(1.96489 0.196181 0)
(1.97169 0.245826 0)
(1.91136 0.207884 0)
(2 -5.19084e-14 0)
(2 3.80722e-12 0)
(2 -3.77088e-14 0)
(2 7.85467e-13 0)
(2 -1.96842e-09 0)
(2 1.72571e-12 0)
(1.83766 0.229839 0)
(2 1.05657e-13 0)
(2 -1.66033e-11 0)
(2 6.10022e-14 0)
(2 2.4466e-14 0)
(2 -1.00809e-13 0)
(2 -1.57062e-13 0)
(2 9.17183e-14 0)
(2 1.25401e-14 0)
(2 -7.73414e-12 0)
(2 -8.94367e-14 0)
(2 -8.07105e-14 0)
(2 -5.74004e-14 0)
(2 7.47556e-14 0)
(1.89868 0.213063 0)
(2 -2.51952e-14 0)
(2 -8.23706e-14 0)
(2 1.10136e-13 0)
(2 7.44455e-14 0)
(2 -1.6794e-13 0)
(1.94385 0.24249 0)
(2 1.44738e-13 0)
(2 -1.33356e-13 0)
(2 6.07489e-14 0)
(2 4.81067e-14 0)
(2 4.62929e-07 0)
(2 2.51807e-11 0)
(2 -1.41715e-11 0)
(2 -1.4055e-13 0)
(2 2.63144e-08 0)
(2 -2.51131e-12 0)
(2 -5.59924e-14 0)
(2 -4.55218e-14 0)
(2 1.35231e-12 0)
(2 -6.11531e-14 0)
(2 1.36524e-13 0)
(2 -2.8731e-14 0)
(1.82422 0.231721 0)
(2 -6.78044e-15 0)
(2 -2.4241e-12 0)
(2 -2.64485e-14 0)
(2 2.22537e-13 0)
(1.99998 1.42712e-05 0)
(2 -4.9734e-14 0)
(1.9706 0.248487 0)
(1.85082 0.215383 0)
(2 7.07053e-14 0)
(2 5.972e-14 0)
(2 4.13215e-09 0)
(2 6.30536e-14 0)
(2 1.00293e-13 0)
(2 6.88537e-14 0)
(1.97874 -0.248286 0)
(2 -6.90688e-14 0)
(2 9.57002e-14 0)
(1.95069 0.243285 0)
(2 -9.45379e-14 0)
(1.94634 0.243615 0)
(2 -2.42531e-13 0)
(2 7.76046e-14 0)
(2 7.22954e-14 0)
(1.99995 -0.0054386 0)
(1.99999 -3.36523e-05 0)
(1.95697 0.235735 0)
(2 3.16604e-14 0)
(2 -1.41368e-14 0)
(2 -1.57462e-13 0)
(2 -5.43608e-14 0)
(2 -1.378e-13 0)
(1.99999 -4.89222e-05 0)
(2 4.50187e-14 0)
(2 -2.44185e-13 0)
(1.96671 0.245414 0)
(2 1.10707e-12 0)
(2 -1.10017e-13 0)
(2 -1.05781e-13 0)
(1.98344 -0.133902 0)
(2 -2.17236e-13 0)
(2 -1.23373e-13 0)
(2 -2.69067e-15 0)
(2 9.5512e-15 0)
(2 1.20837e-08 0)
(2 7.42594e-14 0)
(2 1.48206e-13 0)
(1.84729 0.228088 0)
(2 -1.20297e-13 0)
(2 2.44514e-14 0)
(2 -1.29151e-11 0)
(2 8.93999e-14 0)
(2 -1.15413e-13 0)
(1.97964 0.263199 0)
(2 9.86813e-14 0)
(2 -8.19768e-14 0)
(2 -3.62593e-14 0)
(2 2.00816e-14 0)
(1.99993 -0.0300755 0)
(1.97659 -0.238651 0)
(2 -6.92872e-14 0)
(2 -2.57353e-14 0)
(2 -8.39956e-14 0)
(2 3.35302e-14 0)
(2 -1.2424e-05 0)
(2 -9.99333e-14 0)
(2 7.77095e-09 0)
(2 -2.26707e-14 0)
(2 7.17408e-15 0)
(2 -3.79283e-15 0)
(2 5.90206e-14 0)
(2 -2.7142e-14 0)
(1.9688 0.251342 0)
(2 -1.45358e-14 0)
(2 -7.92971e-14 0)
(2 -1.17199e-13 0)
(1.974 0.184418 0)
(2 2.15204e-13 0)
(1.86298 0.223011 0)
(2 -1.99654e-13 0)
(2 1.47063e-13 0)
(2 -8.71076e-14 0)
(2 2.26261e-13 0)
(2 -2.39325e-13 0)
(2 1.102e-09 0)
(2 -2.12005e-15 0)
(1.99182 -0.175063 0)
(2 2.34955e-15 0)
(2 -6.31924e-14 0)
(1.92782 0.208678 0)
(1.97498 0.248712 0)
(2 -3.11409e-14 0)
(2.00122 -0.0613319 0)
(2 1.50398e-13 0)
(2 7.6521e-14 0)
(2 -4.26168e-14 0)
(2 -5.53554e-14 0)
(2 3.41601e-14 0)
(2 1.4271e-13 0)
(2 2.51076e-13 0)
(1.95027 0.165573 0)
(2 7.51308e-14 0)
(2 1.77413e-14 0)
(2 8.8446e-14 0)
(2 1.24268e-14 0)
(1.99677 0.0473195 0)
(2 1.50309e-13 0)
(1.98828 0.0938148 0)
(2 -1.02947e-13 0)
(2 -5.06639e-06 0)
(1.99951 0.00324071 0)
(2 1.40764e-13 0)
(2 4.22258e-15 0)
(2 -1.0863e-13 0)
(2 1.55912e-14 0)
(2 -1.52625e-13 0)
(2 -1.46264e-13 0)
(2 -6.18798e-14 0)
(2 8.77777e-14 0)
(2 -6.49552e-14 0)
(2 -1.0002e-13 0)
(2 3.63018e-14 0)
(2 8.55023e-14 0)
(2 -7.70048e-14 0)
(2 -3.39978e-14 0)
(2 1.35708e-13 0)
(2 7.75218e-11 0)
(2 -1.00146e-13 0)
(2 -1.60119e-13 0)
(2 1.07567e-13 0)
(2 -1.22238e-13 0)
(1.94907 0.22672 0)
(2 6.8997e-14 0)
(1.92859 0.208697 0)
(2 -6.25825e-14 0)
(1.95567 0.227304 0)
(2 6.30123e-14 0)
(2 6.75091e-14 0)
(2 -1.10126e-13 0)
(2 1.11213e-13 0)
(2 -1.25858e-13 0)
(2 5.97674e-14 0)
(2 7.27513e-14 0)
(2 -7.56252e-15 0)
(2 -1.77524e-13 0)
(2 9.90823e-12 0)
(2 1.3997e-12 0)
(2 6.84266e-15 0)
(2 1.10178e-13 0)
(2 -1.25116e-13 0)
(2 4.18895e-14 0)
(2 1.20193e-13 0)
(2 -4.75365e-15 0)
(2 -2.38693e-14 0)
(2 4.25008e-14 0)
(2 -1.5817e-13 0)
(2 -1.95326e-14 0)
(2 -2.33227e-13 0)
(2 7.4493e-14 0)
(2 5.68576e-11 0)
(2 -2.04581e-13 0)
(2 1.22702e-13 0)
(2 -2.69481e-14 0)
(2 8.48964e-07 0)
(2 -3.00483e-07 0)
(2 -1.7737e-13 0)
(2 5.33351e-07 0)
(2 4.38108e-14 0)
(2 -1.5477e-13 0)
(2 5.457e-14 0)
(2 7.95405e-14 0)
(1.99805 0.0050198 0)
(1.96508 -0.246105 0)
(2 -4.99253e-14 0)
(2 6.68914e-08 0)
(2 -1.82159e-13 0)
(2 7.88089e-14 0)
(2.00069 -0.00100784 0)
(2 4.53547e-14 0)
(2 -6.12811e-14 0)
(2 1.86349e-15 0)
(2 7.5104e-14 0)
(2 6.92829e-14 0)
(1.89892 0.210045 0)
(2 1.3171e-13 0)
(1.88771 0.216962 0)
(2.03781 -0.241268 0)
(2 1.18084e-12 0)
(2 1.58597e-13 0)
(1.95235 0.227534 0)
(1.95885 0.0640216 0)
(2 -5.77277e-15 0)
(2 3.35048e-14 0)
(2 -6.20984e-14 0)
(2 1.11582e-13 0)
(2 1.04107e-06 0)
(2.04659 -0.243377 0)
(2 2.55049e-14 0)
(1.97033 0.250925 0)