/*--------------------------------*- C++ -*----------------------------------*\
  =========                 |
  \\      /  F ield         | OpenFOAM: The Open Source CFD Toolbox
   \\    /   O peration     | Website:  https://openfoam.org
    \\  /    A nd           | Version:  12
     \\/     M anipulation  |
\*---------------------------------------------------------------------------*/
FoamFile
{
    format      ascii;
    class       surfaceScalarField;
    location    "9.7";
    object      phi;
}
// * * * * * * * * * * * * * * * * * * * * * * * * * * * * * * * * * * * * * //

dimensions      [1 0 -1 0 0 0 0];

internalField   nonuniform List<scalar> 
33852
(
0.000251329
2.24281e-05
-0.000273757
-0.000246121
1.32441e-05
0.000232877
-0.000176899
-7.36068e-05
0.000246023
0.000304053
-0.000163969
-0.000140085
0.000292311
-4.24117e-05
-0.000247757
2.72441e-05
-0.000260681
0.000233437
0.000314993
1.4771e-05
-0.00032968
0.000304277
-9.59564e-05
-0.000208321
0.000286413
-3.50841e-05
0.000211331
1.3052e-06
-0.000207509
0.000289356
-0.000366003
7.68752e-05
0.000361033
-4.57265e-05
-4.39602e-05
0.000263285
-0.000219325
-4.38922e-05
0.000318161
-0.000274141
6.14001e-05
-0.000240905
0.000252057
1.2236e-05
-0.000264293
0.000264853
-1.2796e-05
-0.000278433
3.23121e-05
0.000340787
-5.11029e-05
0.000158593
0.000112308
-0.000270901
-2.43361e-05
0.000303286
-0.000278993
0.000271377
-0.000276165
4.78802e-06
-1.78546e-05
0.00027602
-0.000258083
-0.000222139
1.50402e-05
0.000212948
-0.0001542
-0.000183397
0.00033764
-0.000152947
-7.46662e-05
0.000200943
3.72401e-05
0.000267037
-6.15235e-05
-0.000264363
0.000324535
-0.000208213
1.9444e-06
0.00020934
-0.00019989
-1.89518e-05
0.000142045
0.000137388
-0.000279433
0.000341923
1.93647e-05
0.000142618
0.000128347
-0.000270965
-0.000101136
0.000259729
-0.000250489
-3.78001e-06
0.000254269
0.000330721
-5.97003e-05
-0.000270986
-0.000357253
0.000203548
-0.000228071
0.000210403
0.000231645
3.32081e-05
-5.65602e-06
0.000237301
-7.90935e-06
0.000218015
-0.000232625
0.000259869
0.000316685
-5.75227e-05
-0.000259306
-0.000309093
5.51042e-05
0.000253989
0.000240884
-0.000303231
0.000273589
-0.000306321
3.27321e-05
-0.000180237
-5.49362e-05
0.000235173
0.000272133
-0.000272133
0.000148429
-0.000297473
0.000149045
-0.000210458
0.000216767
-7.29043e-06
-0.000268241
0.000237301
3.09401e-05
-0.000196965
0.000245091
-4.67992e-05
-9.16164e-05
-0.000217477
-0.000114279
-0.000251708
-0.000280169
0.000266113
1.40561e-05
0.00033008
1.19129e-05
-0.000250433
7.01963e-05
0.000117908
0.000145909
-0.000263817
1.34681e-05
-0.000267457
0.000253989
-0.000134569
0.000282997
-0.000145108
-4.80187e-05
0.000190704
-0.000274681
0.000245113
2.95681e-05
0.000237553
-0.000268437
3.08841e-05
-0.000183529
-2.33426e-05
0.000151665
0.000115565
-0.00026723
-0.000190595
-2.88716e-05
0.000219053
0.000263985
2.24281e-05
0.000275941
-2.35201e-06
0.000265329
-0.000250741
-1.45881e-05
0.000235514
-6.589e-05
-0.000168294
-1.82001e-06
0.000239373
0.000366203
-0.000312522
-5.39204e-05
-2.83248e-05
0.000303699
-0.000275486
-0.000101584
0.000219493
0.000342089
2.4232e-05
-0.000370275
0.000352529
1.79251e-05
-0.000213545
2.28305e-05
0.000308976
-0.000320922
1.22703e-05
-0.000208571
0.000273709
-6.44364e-05
-4.45202e-06
1.7154e-05
-0.000319425
0.000302546
0.000234615
-0.000198994
-3.55069e-05
0.000269917
-0.000339996
7.01079e-05
0.000333297
-6.34945e-05
-0.000268941
0.000236573
3.23681e-05
-0.000129388
-0.000132609
0.000261997
-1.86761e-05
-0.000249565
-1.022e-05
-0.000258721
2.33926e-05
0.000208646
-0.00023569
3.21624e-05
-0.000230692
0.000201599
-2.49671e-05
0.000328928
-0.000302205
-0.000279329
0.000273701
5.62802e-06
0.000156129
-0.000296857
0.000140729
-5.94429e-05
-0.000148952
0.000210971
0.000143277
0.0001218
-0.000265077
-0.00025007
0.000225706
-0.000213151
0.000155646
-0.000168813
0.000327181
-0.000158369
0.000185389
7.16523e-05
-0.000257041
0.000255193
2.07481e-05
-0.000192277
0.000148317
5.0223e-05
0.000265808
0.000307367
-0.000290048
9.68709e-05
-0.000255874
0.000135241
0.000117096
-0.000281065
-1.19329e-06
0.000244957
-0.000242855
0.000166489
0.000122836
-0.000289325
0.000144633
9.01763e-05
-3.92002e-06
0.000259113
0.000303948
5.42679e-06
-0.000324056
0.000314977
8.94584e-06
-3.99002e-05
0.000236293
-0.000196393
4.08802e-06
-0.000284257
-2.56565e-05
0.000161281
-0.000137193
-0.00015385
0.00012767
0.000220859
-0.000184535
-0.000269921
0.000264965
4.95602e-06
2.64041e-05
0.000174721
-0.000201125
2.87841e-05
-0.000257265
0.000228481
0.000276137
-0.000262669
0.000115108
0.000212073
0.000213596
-0.000194521
-0.000175813
0.000202217
1.3587e-05
0.000282611
-0.000296472
0.00027109
2.18916e-05
0.000270679
-0.000283151
1.23186e-05
3.86402e-06
0.000267513
-1.79897e-05
0.000288643
0.000330939
9.95602e-06
0.000213829
-0.000257694
0.000316088
-0.000316083
-6.63603e-06
-0.000272693
2.8674e-05
0.000203165
0.000187993
3.98722e-05
-0.000227865
-5.40269e-05
0.000214132
-0.000161794
0.000153609
-0.000270285
0.000116676
0.000279441
-0.000329701
5.02602e-05
-6.38122e-05
0.000249201
-0.000166909
0.000315897
-0.000148989
-0.00031415
-1.0016e-05
-0.000214929
0.000175029
2.78601e-05
-0.000278349
0.000276221
-1.88441e-05
-0.000248613
1.72277e-05
-0.000302199
0.000285425
0.000344989
-0.000158593
-0.000186397
-1.67122e-05
-0.000241136
0.000258146
-0.000266617
-3.30401e-06
0.000224001
2.45841e-05
-0.000248585
0.000284509
-0.000128381
0.000140197
0.000138853
-0.000279049
-0.000199922
-1.05905e-05
0.000258169
-0.000115551
0.00022567
-0.000242554
-6.38122e-05
0.000251805
-0.000207607
0.000249481
-5.60002e-07
-0.000248921
0.000255109
-0.000237441
-0.00032396
0.00030068
-3.08841e-05
0.000203169
-0.000172285
0.000292074
1.27462e-06
-0.000293554
7.33706e-05
0.000126583
-0.00020059
4.19122e-05
-0.000194534
-0.000288637
-4.50133e-06
0.000292921
-1.63007e-06
-0.000287779
0.000146973
-0.000273925
0.000126952
-0.00026358
0.000220555
-0.000293713
0.000265838
0.000279441
-0.00031297
-1.24194e-05
0.000324914
0.000111258
0.000162338
-2.13731e-05
0.000352309
0.000140141
0.000139833
-0.000279973
0.000245029
-0.000250349
5.32002e-06
-0.000210953
0.000180069
0.000279133
-5.43202e-06
0.000350789
-3.25656e-05
-0.00030347
0.00030561
-3.32001e-06
0.000270985
-0.000270985
-0.000365332
0.000226115
0.00013895
-0.000203316
1.92754e-05
1.68871e-05
0.000275157
-0.000278461
3.30401e-06
-5.01341e-06
0.000167792
-0.000166375
-0.000197345
0.000254801
-5.74562e-05
-0.000202547
4.61135e-06
-0.000243004
0.000149887
7.30798e-05
-0.000180264
0.000261403
-8.11376e-05
0.000256285
-0.000287113
3.08281e-05
-0.000249229
5.18842e-05
-2.35722e-05
0.000276142
-0.000252549
-0.000253547
1.35801e-06
0.000252189
0.000231281
-7.28003e-06
-0.000294275
7.53119e-06
0.000286511
-0.000266085
0.000266085
-0.000284732
-5.52345e-05
-0.000170942
-0.000194384
-0.000171981
0.000215812
-4.43599e-05
-1.232e-05
-0.000239177
0.000251497
3.10801e-06
0.000210113
-0.000213221
-0.000184465
-2.25677e-05
0.00020692
7.55373e-06
0.000294418
-0.000302061
-0.000236153
-1.34401e-05
0.000249593
1.50361e-05
-0.000251189
-0.000241025
0.000256061
-0.000301305
0.000308832
0.000256117
7.16803e-06
-0.000170004
-3.17737e-05
0.000201381
-0.000145237
-0.000134765
-0.000244329
0.000240549
0.000298571
-3.98309e-07
-0.000298174
-0.000298752
5.69356e-07
0.000298172
1.93121e-05
0.000181217
0.000163773
7.70044e-05
-0.000257269
-0.000159242
0.000310908
0.000250721
-0.000108677
-0.000235145
-1.83681e-05
0.000253513
-0.000204625
-0.000126881
0.000331487
-6.10402e-06
-0.000229125
0.000235229
-2.18864e-05
-0.000184146
-0.000285772
-8.5126e-05
6.34189e-06
-0.000300734
-0.000212662
0.000328124
-0.000115403
0.000281597
0.000288205
-5.16322e-05
0.000271993
-1.57081e-05
-0.000186825
-1.40642e-05
0.000201188
0.000297394
4.60835e-07
-0.000297808
-0.000267583
-3.35223e-05
-0.000218821
0.000247605
-2.5249e-05
0.000310663
-0.000285386
0.000179858
7.76824e-06
-0.000188362
-3.37381e-05
0.000213124
-0.000301295
0.000276065
0.000292072
6.11894e-06
-0.000297763
0.000157445
0.00011886
-0.000276305
0.000290204
4.90358e-06
-0.000295119
-0.000257135
0.000122833
0.000132513
-0.000281836
0.000295401
0.000302513
-0.000156857
-0.000145657
0.000207005
-0.000203897
-0.000232009
-0.000121156
-0.000155009
-4.02169e-06
-0.000293866
0.000297872
-1.0136e-05
0.000276249
0.000287962
-2.01294e-05
-0.000269406
-0.000262929
2.90011e-05
0.000234001
0.000271433
-0.000267569
0.000249621
2.95121e-05
0.00031491
-9.76752e-06
-0.000305238
4.98761e-05
0.000158363
-0.000206997
-0.000100131
0.000189178
-9.56133e-05
0.000252617
-2.91201e-05
-0.000223497
6.89014e-07
0.000291843
-0.00017709
-3.14039e-05
0.000208459
-1.74479e-06
0.000291735
-9.33244e-05
0.000246933
-0.000255417
-5.26402e-06
0.000121184
0.000181329
1.34121e-05
0.000241557
-0.000254969
0.000236097
1.34961e-05
-0.000249593
0.000249509
-0.000242929
0.000256425
6.4055e-05
-0.000203508
0.000139112
-0.000222252
0.000117384
-0.000204741
0.000297256
1.39701e-06
-0.000298712
0.000253849
2.22881e-05
0.000268493
-0.000216441
-5.20522e-05
0.000225518
-0.000246849
2.13305e-05
0.000257909
1.40841e-05
5.86738e-05
0.000295524
0.000267186
-3.89594e-05
-0.000228226
0.000174299
1.274e-05
0.000240297
-0.000253037
0.000193712
-0.000114186
-7.93462e-05
-0.000207036
2.14123e-05
-1.23355e-06
-0.000297878
0.000299162
0.000224818
-0.000171062
-5.38639e-05
0.000344613
-4.1358e-05
0.000275969
-0.000135829
2.31561e-05
0.000238337
-0.000261493
-0.000231141
0.000254297
-2.66888e-05
-0.000229724
0.000256425
0.00015342
-0.000162705
-8.0197e-05
-0.000173881
-0.000261723
4.14346e-05
0.000220288
-3.17521e-05
-0.00022997
6.96623e-06
0.000261717
-3.25193e-05
-0.000229198
1.67483e-05
0.000132765
-0.00021261
0.000308785
-0.000171397
0.000262319
-3.57923e-05
-0.000226526
-0.00031896
0.000179587
-9.79678e-05
-0.000228453
-6.90203e-05
-8.79748e-07
-0.000298605
0.00029934
-2.77733e-05
0.000170768
-0.000148428
0.000308018
6.83253e-06
0.000250097
-0.000248249
-1.84801e-06
-0.000176053
6.14639e-05
0.000260264
-3.07325e-05
-0.000229528
0.000197345
-0.000250769
5.34242e-05
0.000254206
-0.000231206
-2.29991e-05
-0.000252337
0.000240017
0.000145651
0.000102671
-0.000101864
-0.000170269
0.000132496
-0.000261885
-0.000290249
0.000242201
4.80483e-05
0.000216807
3.12476e-05
-0.000248057
-0.00023402
-1.01057e-05
0.000245743
0.000326658
-2.30675e-05
0.000263996
-3.42721e-05
-0.000229724
0.000136894
-0.000230365
8.61124e-05
3.63259e-05
-0.000265637
0.000229311
-0.000253905
0.000121296
0.000249817
-5.24722e-05
0.000294673
-0.000154253
-0.000140421
0.000122248
-0.000289157
1.53441e-05
0.000237665
-0.000253009
-0.000262031
3.54705e-05
0.00022656
-2.74362e-06
-3.77917e-05
-0.000224239
0.00024889
-0.000272506
-0.000264649
3.44737e-05
0.000230175
0.000193257
0.000101416
-0.000149941
0.000290137
-0.000172226
-3.83438e-05
0.000204181
-1.81721e-05
0.000263201
-0.00029288
0.000310335
0.000117711
0.000104256
0.000261325
-0.000261325
0.000308491
-2.07333e-05
-0.000290609
5.32002e-07
0.000248949
0.000254857
1.65761e-05
0.000309038
-0.000276366
-3.34263e-05
-2.26336e-05
0.000266577
-0.000243943
3.00077e-05
-0.000260519
0.000230511
-0.000252139
0.000229506
0.000330134
3.11501e-05
-0.000260598
0.000229447
0.000276809
-3.16961e-05
-5.16351e-06
-0.00029544
0.000301288
0.000270017
3.87118e-05
0.000230245
-0.000266617
3.63721e-05
0.000201805
-0.000202734
-0.000258301
0.000238533
1.97681e-05
0.000169762
-0.000257245
8.74835e-05
-0.000204451
0.000163241
-0.000249145
8.59043e-05
-0.000266169
0.000224813
4.13562e-05
0.000253073
-2.78797e-05
-0.000225194
0.000174232
4.22837e-05
-0.000234837
-2.29601e-05
0.000257797
-0.000236377
-2.28761e-05
0.000259253
-1.94265e-05
0.000255969
-0.000236542
-0.000259345
0.000239919
-3.15429e-05
0.000167722
-0.000235929
-2.24001e-05
0.000258329
-0.00025484
0.000229192
2.56481e-05
2.94001e-06
0.000211289
-0.000214229
-0.000267031
3.79849e-05
0.000229046
0.000270677
4.48002e-06
4.25195e-05
0.000168432
-0.000203612
-3.31197e-05
0.000249927
-2.09901e-05
0.000218597
9.73004e-05
0.0002482
-0.000216956
0.000276986
-0.000279088
0.000276566
-0.000281504
-1.84997e-05
0.000258601
-0.000240101
-0.000261644
0.000243145
2.97932e-05
-0.000203309
-2.97441e-05
-0.000198286
0.000233439
0.000315069
-0.000287845
-2.75071e-05
0.000261297
-3.11081e-05
-0.000230189
3.28739e-05
-0.000262362
0.000229488
-0.000229853
0.000259645
-2.97921e-05
0.000325598
-1.76568e-05
0.000151033
-0.000216746
0.000256929
-0.000109956
-0.00028648
0.000287562
0.000241977
-6.41202e-06
-0.000235565
0.000228537
-0.000177479
-3.69474e-05
0.000221239
2.83401e-05
-0.000202225
-0.000239989
0.000260317
-2.03281e-05
-0.000104905
0.00018961
-8.74844e-05
3.05822e-05
-0.000208828
0.000240169
-0.000263424
2.32552e-05
-0.000115584
0.000258861
-0.000243993
0.000265721
-2.17281e-05
-0.000238953
0.000232541
0.000258626
-0.000245105
-1.35213e-05
0.000264349
-2.46681e-05
-0.000246317
-0.00027327
-1.05486e-05
0.000298553
-5.31683e-05
-9.29486e-06
0.000291338
-0.000283147
-0.000164363
0.000214151
0.00022308
1.83314e-05
-0.000248851
0.000329104
-0.000329156
0.000260955
-0.000245018
-1.59377e-05
-0.000301198
-5.98093e-07
0.00030513
9.65584e-06
3.77113e-05
0.00016965
-0.000208111
0.000205176
-3.24291e-05
-0.000173086
0.000278054
-0.000255789
-2.22648e-05
-0.000208357
3.11602e-05
3.15421e-05
-0.000261891
0.000230348
0.000285947
-0.000291271
2.44721e-05
-0.000259617
-0.000257965
1.87881e-05
0.000266057
-1.64361e-05
0.000151173
-0.000267625
0.000116452
0.000298774
-4.43094e-06
0.000238617
-7.53763e-05
2.12521e-05
0.000177045
-0.000198297
-0.000183877
0.000205129
-0.000236275
0.000257219
-2.09441e-05
0.000261462
-3.31689e-05
-0.000228293
-0.000197009
-5.21362e-05
0.000251581
-1.48401e-06
8.9416e-06
-0.00026275
0.000255501
-0.000343078
0.000237266
0.000106818
0.000266371
-0.000236811
-2.95597e-05
0.000306753
-0.000314641
7.82895e-06
-2.57041e-05
-0.000229097
0.000254801
0.000261493
-7.64403e-06
1.02532e-05
-0.000209029
0.000262411
-3.19033e-05
-0.000230508
-6.90483e-05
-0.000260653
-0.000194685
0.000248025
-5.33402e-05
-0.000266533
0.000249985
1.65481e-05
-0.000317998
1.66436e-05
-1.71148e-05
0.00029619
-0.000279649
-0.000276221
1.65481e-05
0.000249537
-0.000170234
6.52045e-05
0.000273913
1.47155e-05
-0.000288633
-0.000316084
0.000307887
8.24682e-06
3.46641e-05
-0.000263649
0.000228985
-1.74861e-05
0.000281363
-0.000315182
1.64066e-05
-0.000176541
-7.42283e-05
-0.000229551
0.00020524
-2.16721e-05
-0.000216469
0.000238141
-0.000314504
0.000295725
1.88378e-05
-0.000132169
0.00027363
-0.000140754
-8.44962e-06
3.31521e-05
-0.000263453
0.000230301
-0.000201956
2.47399e-05
0.00017645
0.000221513
0.000280548
-0.000280835
2.58349e-07
-0.000236993
-2.20921e-05
0.000224813
-0.000202721
0.000139273
0.000143753
-0.000278517
0.00020204
-5.72549e-05
0.00030814
-1.06039e-05
0.000209164
-0.000268836
2.92853e-05
0.00022306
-0.000252345
-0.000321638
0.000138182
0.000296392
2.91777e-05
1.95265e-05
-0.000224355
-2.77845e-05
-0.000136572
-0.000132702
-0.000326492
0.000113766
0.000242873
2.56201e-05
0.000218765
-0.000224869
1.10576e-05
-0.000288143
0.000277436
-0.00024295
0.000270339
-2.7282e-05
0.000281429
-0.00028184
0.000284648
-7.71306e-05
-8.82693e-06
0.000290255
-1.87881e-05
0.000247101
-0.000228313
0.000281494
-0.000290308
-5.59636e-06
-0.000283983
0.000289609
0.000282039
-0.000269937
0.000284708
0.000226314
2.67597e-05
-0.00031226
0.000317801
-7.13257e-06
0.000243662
-2.28127e-05
0.000222897
2.51841e-05
-0.000268913
0.000246057
-2.05381e-05
-0.000259401
3.02849e-05
0.000229116
0.000178305
7.64963e-05
9.48489e-06
0.000280519
-0.000289993
-0.000238141
-2.88401e-05
0.000266981
2.51441e-05
-0.000263285
0.000284117
-0.000162317
-0.000232177
0.000261129
-2.89521e-05
-0.000234697
0.000260709
-2.60121e-05
1.40183e-06
0.000279053
2.45001e-05
-0.000259197
2.38001e-05
-0.000255977
0.00027433
-0.000243007
-3.13446e-05
0.000317918
-9.99289e-06
-0.000305633
-3.18285e-06
-0.000255753
1.1816e-05
0.000243937
-1.72043e-05
-0.000261185
0.000228066
-0.000245337
0.000270145
-2.48081e-05
-0.000263229
1.49801e-05
-2.35815e-05
0.000286308
-0.000262621
2.13641e-05
-0.000266701
-0.000241535
-2.13624e-05
3.2697e-05
-9.0432e-05
0.000260194
0.000280774
-0.00028636
5.05122e-05
0.000237693
0.000282115
-0.00028179
-0.000243181
-2.39401e-05
0.000267121
-0.000260894
7.34723e-06
-0.000295133
1.93569e-05
0.00027535
-0.000268717
2.55361e-05
-8.51096e-06
0.000290421
-0.000268326
0.000243549
2.47772e-05
-0.000232513
0.000210841
0.000280326
-0.000288915
-6.16002e-07
0.000260289
-0.000259673
-0.000301961
-1.61097e-05
-0.000264573
2.35481e-05
-0.00024417
-2.41555e-05
-3.43281e-05
-0.000297832
0.000293721
0.000286674
-0.000158327
0.000295659
-0.000289756
2.30152e-05
4.87838e-06
0.000262347
-0.0002555
-7.16926e-06
0.000307573
-2.02421e-05
-0.000287428
5.94996e-05
-0.000246765
-2.19521e-05
-0.00035545
0.000241122
0.000283099
-0.000277263
2.33801e-05
-0.000184764
-1.57353e-05
-0.000306507
2.57172e-05
0.000280814
-0.000196846
0.000310671
-0.000113766
0.000259841
-0.000238533
-2.13081e-05
-0.000291693
2.94001e-05
0.000222097
-0.000251497
-0.000162968
0.000125629
-0.000156112
0.000251441
-0.000238029
-1.34121e-05
-0.000263873
3.40201e-05
-2.23161e-05
-0.000269837
0.000251469
0.000230427
3.12901e-05
-4.72297e-05
0.00020709
0.000232619
-0.000260499
-1.74535e-05
-3.80356e-06
0.000244251
-0.000242693
-0.000293393
-0.000237049
0.000265189
-2.81401e-05
0.000230096
3.22225e-05
-0.000268521
2.55921e-05
-0.000239905
-2.86161e-05
0.000228954
-0.000260706
-0.000282561
4.73202e-05
-0.000242005
0.000294349
-0.00028397
-0.000287365
1.30426e-05
0.000273965
-5.68625e-06
0.000213453
0.000228551
-0.00026107
0.000296885
-0.0001309
-0.000165985
0.000241366
-0.000261467
0.000270838
-0.000226213
-1.76681e-05
-0.000164696
0.000308664
-0.00014266
2.49649e-05
0.000222662
-0.000247627
-0.000192898
0.00019289
-0.000283727
0.000282452
7.00012e-06
-0.000290768
-0.000302485
0.000146693
0.000155793
0.000259995
-0.000239359
-2.06361e-05
-0.000215741
0.000193649
0.000261539
3.64887e-07
0.000257293
0.000232526
2.16796e-05
-0.000295664
-6.12653e-05
1.04261e-05
0.000237835
-0.000254615
1.76304e-05
-0.000230917
-2.37161e-05
0.000254633
-0.000242295
0.000263191
-2.08965e-05
8.23519e-05
0.000133458
2.01388e-05
-0.000305828
0.00028581
0.000256565
-1.80041e-05
-0.000238561
0.000243881
-0.000254017
1.0136e-05
-0.000226745
0.000207957
0.000223131
-0.000258923
-0.000244693
4.76842e-05
1.59449e-05
-0.000137533
-0.000218149
1.57921e-05
0.000245701
0.000280994
0.00029336
0.000305753
1.71373e-06
0.000249817
-0.000220417
2.51749e-05
0.000225009
-0.000250184
-0.000243178
0.000268865
-2.56873e-05
2.28201e-05
-0.000262725
-0.000124498
0.00029587
9.16182e-06
2.08181e-05
0.000261675
-0.000235103
-2.65721e-05
1.32327e-05
-0.000303997
0.000290981
0.000321794
-3.09824e-05
-0.000290855
0.000249733
1.63241e-05
0.000306599
-0.00029329
-0.000229986
-0.000112082
9.63204e-06
0.000250657
-4.9129e-05
-0.00020239
0.000251519
2.20333e-05
0.000246832
-0.000241686
-2.29629e-05
0.000260737
-2.24001e-05
0.00028777
-0.000268023
2.63369e-05
2.68241e-05
-0.000257965
0.000210617
-0.000207677
2.58161e-05
-0.000262865
0.000279837
0.000121744
-0.000256173
0.000134429
1.93011e-05
3.86203e-05
0.000161893
-0.000200717
-0.000239485
-2.85377e-05
3.99864e-05
0.000163047
-0.000203817
-0.000246691
0.000271066
-2.43747e-05
0.000209866
-0.000248826
1.98857e-05
1.7308e-05
-0.000174541
-3.03794e-05
0.00022669
-0.000257411
-2.88401e-05
0.000244245
-0.000215405
-2.16161e-05
0.000242985
-0.000221369
0.000201657
-0.000250786
-0.000273536
-0.000232905
-2.55081e-05
0.000258413
0.000241234
2.98318e-05
-0.000216331
-2.36662e-05
0.000240191
-2.18821e-05
-0.000224967
-0.000239345
6.28042e-05
0.000259004
-0.000229718
4.75106e-05
-0.000249901
-3.43393e-05
0.000257694
-0.000223354
0.000205675
-0.000240014
0.000261689
-1.1956e-05
-6.06763e-05
-0.000229572
-0.000222627
-1.85345e-05
0.000236223
0.000247109
5.3175e-05
0.000212448
-0.000265623
-0.000261104
0.000177353
-0.000231757
5.44042e-05
6.46297e-05
0.000137164
0.000259457
-0.000240915
-2.47224e-05
-0.000265385
0.000227165
3.82201e-05
-2.87813e-05
-0.000222158
0.00025094
-0.000284683
0.000264161
0.000234501
3.61761e-05
2.18821e-05
0.000234087
-0.000307217
0.000151089
0.000156129
0.000167638
-5.22863e-05
0.000254045
-0.000115192
2.56901e-05
0.000217446
-0.000243136
-0.000286276
0.000286734
9.16261e-06
0.000257377
-0.000245953
0.000208937
3.70161e-05
0.000254832
0.000247907
-1.92359e-05
-0.000246815
-2.02161e-05
-0.000263019
2.0724e-05
-0.000269215
2.24001e-05
2.79601e-05
0.000220024
-0.000247984
0.000242481
-0.000274597
1.32721e-05
0.000251658
-1.42103e-05
1.30232e-05
-0.00024903
-0.00032869
0.000124075
-0.000233135
-2.62109e-05
-0.000252113
0.000252113
0.000259782
-0.000144217
-1.85123e-05
-0.000279111
0.000297019
0.000270916
0.000258749
-0.000135913
0.000224113
2.39205e-05
0.00023468
7.86568e-05
-0.000342928
3.77338e-05
0.000258962
1.76364e-05
-0.000248843
-3.00917e-05
0.000207453
-3.01001e-05
0.000259701
2.95429e-05
0.000218353
-0.000247896
-3.05014e-05
-4.09782e-05
-0.000217818
0.000258797
-0.000233423
-2.14173e-05
3.70345e-05
-0.000201371
0.000157673
-3.30877e-05
0.000221671
-0.000255943
-0.000281731
-8.46843e-06
0.000290192
-0.000193573
0.000161602
0.000166349
8.16763e-05
1.2769e-05
-0.000294595
0.000235075
2.59446e-05
-0.000261019
-0.000197817
-1.33036e-06
0.000232743
-0.000264287
3.15449e-05
-8.42803e-06
-0.000217029
0.000225457
-0.000167137
0.000198002
-0.000249985
-3.46025e-05
0.000256274
0.000218076
-0.000252679
-0.000246289
0.000272245
-2.59561e-05
0.000253547
2.78321e-05
-0.000232062
-2.95821e-05
-0.000298344
0.000316393
-1.817e-05
2.33982e-05
0.000212462
-0.000250254
-0.000267233
2.09441e-05
-2.12801e-05
-0.000245953
-3.61481e-05
0.00024861
-0.000290031
-1.36097e-05
0.00022082
-0.000256968
0.000245983
-0.000250533
1.81155e-06
2.80002e-06
0.000181413
-0.000184213
0.000255294
0.000234529
2.67681e-05
-2.62361e-05
0.000245001
-0.000218765
3.36001e-05
0.000216609
-0.000250209
0.000244861
2.73841e-05
0.000306545
-0.000143949
-0.000162597
1.53484e-05
0.000243372
-0.00025922
0.000271013
-0.000113568
0.000225569
-0.000256677
-0.000241406
0.000104495
-0.000265469
7.16803e-06
-0.000241635
-2.75801e-05
-0.000241361
-2.48081e-05
0.000310498
-2.73633e-05
-7.67483e-05
0.000243097
-1.1452e-05
-0.000215601
0.000224281
-8.68003e-06
0.000255193
-7.68883e-05
3.41014e-05
-0.000196011
0.00016149
-0.000265245
-1.40001e-07
-4.14962e-05
3.98949e-05
0.000158923
-0.000206606
0.00019638
-0.000162454
0.000257041
-7.05603e-06
0.000251151
-0.000218277
-1.81436e-05
-2.1128e-05
0.000278655
-9.55294e-05
-0.0001825
-1.42801e-05
-0.000191913
0.000206193
0.000258665
-1.53553e-05
-0.00024331
1.98101e-05
0.000238855
-0.000279235
-8.23644e-06
3.73872e-05
-0.000193513
0.000164681
1.36921e-05
0.000247997
-0.000155789
0.000200309
-1.95189e-05
0.000248711
3.27989e-05
0.000190166
-0.000217149
-4.17202e-06
-2.49389e-05
0.000265108
-0.000231955
-3.14693e-05
0.000296958
-0.000281922
-1.52653e-05
1.63717e-05
-0.000237659
0.000221288
-0.00010514
0.000226885
1.92798e-05
-0.000305085
0.000285832
2.52001e-05
-2.79441e-05
2.69165e-05
0.000308863
-0.000289528
0.000238891
1.97345e-05
2.15601e-06
0.000231617
-0.000233773
-0.000310354
2.56952e-05
0.000284902
-0.000162177
-0.000144145
0.000209178
-0.000250156
-0.00016504
0.000241924
1.90317e-05
0.000256733
-4.13534e-05
0.000250531
0.000214498
-0.000255851
0.000318923
-0.000319122
-1.08215e-05
0.00028706
-0.000276752
-0.000302732
1.94868e-05
0.000283115
4.20842e-05
-0.000286413
-3.88888e-05
0.000252483
2.62921e-05
-2.20756e-05
0.000307188
-0.000285076
2.43321e-05
3.90294e-05
0.000160065
-0.000195242
0.000249294
-0.000219751
2.83277e-05
-0.000261633
4.36802e-06
-1.99616e-05
0.000306639
-0.000286678
-0.000250987
-0.000266673
3.07441e-05
0.000252141
-0.000236741
-1.54001e-05
1.2264e-05
0.000239877
-0.00027556
-1.24152e-05
0.000255697
-7.17408e-06
0.000314936
-1.20875e-05
0.000297811
-0.000285371
-4.79898e-05
0.000247437
-0.000235621
0.000257601
-1.99361e-05
0.000134638
8.43384e-05
-0.000229123
0.000210626
3.03493e-05
0.000226759
-0.000258662
3.71393e-05
0.000271683
-0.000288495
1.68703e-05
0.000251273
-0.000239093
-1.31321e-05
0.000252225
-2.91201e-05
-0.000257265
2.56481e-05
0.000231617
-0.000228005
-2.92601e-05
0.000259765
-0.000233571
-2.61941e-05
0.000258721
-0.000265009
1.99954e-06
0.000290107
1.30189e-06
-0.000291539
0.000250517
-0.000235267
-1.85921e-05
0.000308881
-0.000300881
-7.98294e-06
0.000243525
-0.000101052
-0.000266897
2.56761e-05
0.000241221
-3.48881e-05
-0.000232009
-0.000266393
2.51161e-05
0.000241277
-1.24608e-05
-0.000267361
0.000279213
-3.45241e-05
-0.000231869
-0.000261933
1.86965e-05
-0.000266281
2.43881e-05
0.000241893
-0.000284086
-2.16975e-05
-0.000306373
2.76472e-05
0.000278578
-3.34041e-05
-0.000232877
-0.000170165
-0.000258133
2.94001e-05
0.000228733
0.000309331
-0.00030944
-0.000195805
0.000209049
-3.29281e-05
-0.000225205
0.000197338
-0.000278909
8.16156e-05
0.000283846
2.24445e-05
-0.000301953
1.76961e-05
0.000285396
-0.000280598
-4.78039e-06
-0.000257125
0.000231617
2.55081e-05
0.000169949
2.7958e-05
-0.000194193
-0.000266953
2.81681e-05
0.000238785
-0.000227361
-2.97641e-05
-3.67361e-05
-0.000230217
0.000276345
0.000297232
1.90497e-05
-0.000276205
-3.16749e-05
0.000307727
-0.000258679
-1.07145e-05
0.000298115
-0.000287111
1.49996e-05
-0.000302059
0.000286898
-0.000230609
-0.00030733
0.000287332
0.000263005
-2.56118e-05
-0.000280798
1.36081e-05
0.000165024
0.000231439
1.83898e-05
-0.000245911
-0.000197424
0.000154502
0.000236738
1.31517e-05
-0.00024989
-0.00025833
2.66093e-05
0.000231721
-1.09228e-05
0.000247661
5.74002e-06
0.000246877
-3.19817e-05
-0.000226348
0.000299724
-0.000285844
-1.38786e-05
0.000228024
-0.000226666
0.000289934
0.000237685
1.98521e-05
-0.000257537
-1.24236e-05
0.000250108
0.000246636
1.50389e-05
-0.000305335
1.54091e-05
0.00024448
2.18905e-05
3.30077e-05
-0.00020252
-0.000287376
-1.77068e-05
-0.000182869
0.000295177
-0.000149181
0.000182511
-3.29924e-05
3.0893e-05
-0.000194937
0.000170126
-0.000158686
0.000259149
-0.000239236
-1.99137e-05
0.000261497
-0.000274688
-0.000240111
0.00023136
-2.18891e-05
0.000301187
-0.000279365
0.000307844
-0.000292925
0.000242117
1.77241e-05
-0.000224975
0.00024443
-1.94545e-05
1.61001e-05
-0.000241075
-7.00003e-06
0.000260989
-0.000297161
4.88349e-06
0.000292246
-0.000174497
0.000160217
-1.74105e-05
-6.3001e-06
-0.000290898
-1.68686e-05
-0.000285264
4.28402e-06
-0.000300666
0.000135273
-0.000257465
2.37373e-05
0.000233707
0.000238197
1.32441e-05
-3.08177e-05
-0.000226661
-3.29644e-05
-0.000290264
2.20876e-05
-0.000221682
0.000197184
0.000254969
-0.000233465
-2.15041e-05
-0.000197254
0.000212353
-0.000185511
-7.61738e-06
0.000203464
0.000133638
0.000137873
4.07659e-06
0.000271501
0.00028009
-0.000305662
3.44679e-06
0.000242388
-1.98598e-05
0.000298735
-0.000278855
-0.000302436
0.000287576
1.48287e-05
-0.000258301
0.000230077
2.82241e-05
-2.64041e-05
-0.000231897
0.000300423
-0.000301524
0.00026776
-1.99428e-05
0.000304512
-0.000284541
0.000286145
-5.10959e-07
-0.000256873
0.000256873
-0.000268181
0.00029573
-0.000145168
-6.65453e-05
-7.53296e-06
0.000295021
-0.000287756
-0.000297817
0.000290748
0.000292083
-0.000279722
0.000291645
-0.000306248
1.5255e-05
3.46715e-05
-0.000245846
0.000222064
2.2679e-05
-1.44738e-05
-0.000244241
0.000224799
-1.4283e-05
0.000298431
-0.000283965
0.000263481
-1.96001e-05
0.000254224
-0.000235464
-1.87601e-05
-3.10137e-05
-0.000273805
0.000304718
1.44179e-05
-0.000297523
0.000282832
-1.45881e-05
0.000233465
-0.000218877
0.000207345
-0.00029558
0.000283599
-1.9295e-05
0.000304893
-0.000285565
0.00025102
-2.6894e-05
0.000297338
-0.000270287
-0.000295894
0.000269046
1.07156e-05
0.000244749
-0.000255465
0.000305219
-0.000312112
6.80059e-06
1.80651e-05
1.47833e-05
0.000287196
-0.000302318
6.30622e-06
0.000282954
2.3443e-06
-0.000318553
-0.000289368
0.00030454
-0.000242481
0.000243657
8.45603e-06
-0.0002264
0.000242772
-0.000293486
0.00027433
0.000284826
-0.000157657
-8.35726e-05
0.000294404
1.45012e-05
3.15828e-05
-0.000201495
0.000160496
-0.00027449
0.000257293
-0.000219535
0.00024982
0.000243411
1.92865e-05
-0.000262697
0.000236019
2.31309e-05
-0.000300567
0.000282006
0.000312372
-1.79659e-05
0.000237945
-0.000257069
1.91241e-05
-0.000222494
0.000247459
0.000294302
1.80334e-05
-0.000174288
-1.45572e-05
0.000298299
-0.000283794
-0.000143416
-0.000266415
0.000159993
0.000106423
-0.0003089
0.000295339
1.36523e-05
-0.000258699
0.000241826
1.68729e-05
-0.000156987
0.000160998
-0.000306359
0.000288493
1.78198e-05
-0.000215677
0.00018593
-9.69084e-06
0.000253101
2.04718e-05
1.75406e-05
-0.000304185
0.00028664
-0.00030073
-7.31165e-06
0.000307703
-0.000249229
0.000220109
-0.000201153
-8.52603e-05
-0.000272061
0.000252177
0.000303811
-0.000286322
-0.000193928
1.80918e-05
1.50394e-05
0.000284494
-0.000299614
-8.80603e-05
0.000239233
-0.00030348
1.93736e-05
0.000283909
-0.000210191
-3.04976e-06
-0.000298028
-0.000174633
2.05297e-05
0.0003025
-0.00028791
-1.4678e-05
-0.000164635
-0.000299266
-0.000174972
-2.24663e-05
0.000243528
0.000289496
1.713e-05
0.000252869
5.77076e-05
-0.000284774
-0.000247213
-0.000270218
-2.33936e-05
-0.000274749
0.000300364
-0.000263016
0.000282426
-0.000168727
-4.15294e-05
0.000209636
0.000197569
1.56521e-05
-0.000213221
-1.24629e-05
-0.000285501
0.000297936
1.83597e-05
1.86059e-05
-0.000305291
0.000286689
0.000253345
-1.71361e-05
-0.000236209
1.89337e-05
-0.000304825
0.000285979
2.03561e-05
0.000232989
0.000216385
-2.46121e-05
-0.000191773
1.58291e-05
0.000282446
-0.000298212
-0.000250349
0.000118257
-0.000303774
1.86153e-05
0.000285269
0.000228078
-5.15772e-05
-0.000296423
1.47849e-05
0.000281546
0.000255837
-2.19801e-05
-0.000233857
-0.000302926
0.000106429
0.000234529
1.70521e-05
-0.000251581
0.000280073
1.69302e-05
0.000304154
-0.000285179
1.81634e-05
-0.000300053
0.000233512
1.84916e-05
-0.000252004
-1.90159e-05
-1.419e-05
0.000298231
-0.000283849
-0.000280289
0.000299604
-0.000278445
0.000289877
-0.000300843
1.07094e-05
0.000249741
-1.62291e-05
1.15312e-05
0.000250041
-1.55121e-05
0.00029838
-0.000282556
3.95922e-05
-0.000236367
2.21481e-05