/*--------------------------------*- C++ -*----------------------------------*\
  =========                 |
  \\      /  F ield         | OpenFOAM: The Open Source CFD Toolbox
   \\    /   O peration     | Website:  https://openfoam.org
    \\  /    A nd           | Version:  12
     \\/     M anipulation  |
\*---------------------------------------------------------------------------*/
FoamFile
{
    format      ascii;
    class       volScalarField;
    location    "8.75";
    object      rho;
}
// * * * * * * * * * * * * * * * * * * * * * * * * * * * * * * * * * * * * * //

dimensions      [1 -3 0 0 0 0 0];

internalField   nonuniform List<scalar> 
22702
(
1.40001
1.40001
1.26407
1.40001
1.45091
1.40001
1.83808
1.40001
1.40001
1.01174
1.838
1.8357
1.40001
1.84191
1.27927
1.40001
1.40001
1.40001
1.8389
1.40001
1.84208
1.40001
1.8388
1.02484
1.83761
1.01958
1.40001
1.84073
1.02333
1.02553
1.40001
1.8359
1.40001
1.40001
1.40001
1.80947
1.84395
1.83883
1.40001
1.40001
1.02817
1.40001
1.61543
1.40001
1.83802
1.40001
1.40001
1.40001
1.40001
1.01941
1.40001
1.02597
1.40001
1.83759
1.40001
1.83821
1.40001
1.40001
1.40001
1.40001
1.04669
1.40001
1.40001
1.0272
1.40001
1.03085
1.40001
1.40001
1.40001
1.00516
1.40001
1.84317
1.6716
1.40001
1.84312
1.8632
1.02842
1.838
1.0277
1.40001
1.83753
1.02613
1.84102
1.83981
1.40001
1.40001
1.40001
1.40001
1.32858
1.00626
1.83667
1.40001
1.40001
1.04004
1.40001
1.84156
1.0429
1.40001
1.40001
1.40001
1.40001
1.61519
1.8379
1.02341
1.40001
1.40001
1.50183
1.40001
1.03034
1.40001
1.83852
1.83984
1.40001
1.40001
1.02133
1.02968
1.00741
1.40001
1.40001
1.40001
1.40001
1.40001
1.31252
1.40001
1.77838
1.4293
1.83998
1.40001
1.84049
1.83921
1.84182
1.83659
1.40001
1.016
1.40001
1.06099
1.40001
1.40001
1.40001
1.40001
1.83963
1.40001
1.40001
1.40001
1.40001
1.83789
1.40001
1.42693
1.40001
1.40001
1.40001
1.40001
1.01981
1.40001
1.41119
1.40001
1.01942
1.40001
1.40001
1.40001
1.83632
1.40001
1.84153
1.04076
1.01305
1.84503
1.84366
1.40001
1.47662
1.65612
1.40001
1.84137
1.03371
1.81049
1.40001
1.40001
1.40001
1.40001
1.84145
1.76754
1.40001
1.83876
1.02704
1.84109
1.40001
1.02719
1.40001
1.02372
1.01915
1.39978
1.40001
1.40001
1.84113
1.40001
1.40001
1.84082
1.40001
1.84166
1.83847
1.03268
1.40001
1.40001
1.01827
1.84167
1.40001
1.40001
1.40001
1.8416
1.40001
1.03097
1.40001
1.40001
1.84189
1.84181
1.84102
1.40001
1.40004
1.40001
1.40001
1.40001
1.84115
1.40001
1.02928
1.85963
1.84161
1.84118
1.40001
1.40001
1.40001
1.01639
1.84082
1.61127
1.40001
1.8432
1.03411
1.03207
1.8432
1.84118
1.40001
1.85012
1.00128
1.79144
1.40001
1.40001
1.40001
1.40001
1.84104
1.40001
1.66192
1.4431
1.40001
1.40001
1.84199
1.05475
1.15439
1.40001
1.8433
1.02935
1.84788
1.40001
1.40001
1.40001
1.40001
1.40001
1.40001
1.40001
1.03697
1.13502
1.03709
1.84187
1.40001
1.40001
1.40001
1.40001
1.78672
1.40001
1.03765
1.40001
1.00964
1.02359
1.84226
1.03316
1.84214
1.40001
1.40001
1.40001
1.39751
1.02985
1.01802
1.4
1.40001
1.00959
1.40001
1.83998
1.02598
1.40001
1.40001
1.83679
1.05098
1.40001
1.84229
1.0183
1.84191
1.40001
1.0107
1.39766
1.40001
1.40001
1.40001
1.02599
1.40001
1.40001
1.4
1.40002
1.4127
1.6718
1.40001
1.03366
1.40001
1.40001
1.40001
1.40001
1.40001
1.40001
1.40001
1.83678
1.40001
1.84051
1.40001
1.40001
1.40001
1.05255
1.40001
1.83838
1.03495
1.40001
1.73623
1.40001
1.40001
1.83737
1.40001
1.40001
1.40001
1.82317
1.40001
1.40001
1.83911
1.83667
1.40001
1.49292
1.40001
1.40001
1.05834
1.40001
1.40001
1.40001
1.03909
1.40001
1.40001
1.40001
1.40001
1.03762
1.40001
1.40001
1.40001
1.40001
1.40001
1.03283
1.40007
1.84259
1.40001
1.4
1.84392
1.84504
1.40001
1.40001
1.04163
1.21752
1.83818
1.40001
1.40001
1.40001
1.84159
1.00645
1.40001
1.84178
1.40001
1.40001
1.10154
1.10259
1.40001
1.02688
1.05717
1.40001
1.40001
1.40001
1.40001
1.40001
1.40001
1.40001
1.83896
1.50353
1.81153
1.03555
1.30515
1.83907
1.40001
1.84138
1.83802
1.04452
1.1855
1.40001
1.03199
1.40001
1.84855
1.40001
1.40001
1.40001
1.40001
1.84138
1.40001
1.40001
1.40001
1.40001
1.40001
1.40001
1.40001
1.56402
1.83788
1.40001
1.84189
1.40001
1.40001
1.02414
1.40001
1.40001
1.40001
1.40001
1.84164
1.73768
1.40001
1.40001
1.02455
1.8426
1.84181
1.40001
1.8418
1.84144
1.84191
1.40001
1.23017
1.40001
1.84131
1.38395
1.84195
1.40001
1.04037
1.3988
1.83941
1.40001
1.40001
1.40001
1.40001
1.03639
1.84173
1.80037
1.40001
1.84312
1.8415
1.83836
1.40001
1.60746
1.84252
1.40001
1.40001
1.70929
1.46531
1.84215
1.32868
1.84218
1.40001
1.84222
1.84193
1.842
1.8432
1.40001
1.83753
1.30051
1.28057
1.40001
1.4
1.40001
1.40001
1.84156
1.40001
1.40001
1.40001
1.40001
1.40001
1.83522
1.40001
1.40001
1.39612
1.84172
1.7813
1.40001
1.76747
1.40005
1.40001
1.40001
1.84333
1.40001
1.39693
1.40478
1.40001
1.84162
1.40001
1.84037
1.40001
1.40001
1.72741
1.40001
1.84083
1.40003
1.40001
1.84305
1.40001
1.8416
1.40001
1.40001
1.40001
1.84083
1.40001
1.841
1.40001
1.84129
1.83762
1.84209
1.83915
1.40001
1.83497
1.83472
1.40001
1.02614
1.81526
1.7153
1.40001
1.84108
1.40001
1.0546
1.02188
1.40001
1.40001
1.40001
1.40001
1.40001
1.04266
1.40001
1.84181
1.51252
1.84332
1.40001
1.40001
1.40001
1.40001
1.40001
1.84195
1.40001
1.84306
1.66468
1.18811
1.40001
1.40001
1.52996
1.51516
1.40001
1.40001
1.55184
1.40001
1.02091
1.84213
1.84182
1.40001
1.40001
1.40001
1.83581
1.40001
1.40003
1.84843
1.84145
1.34604
1.40001
1.40001
1.02129
1.80071
1.40001
1.40001
1.40001
1.40001
1.40001
1.84157
1.83516
1.40001
1.8434
1.8421
1.84218
1.40001
1.40001
1.40001
1.40001
1.0214
1.83719
1.40001
1.40001
1.8038
1.84094
1.40001
1.81677
1.83901
1.40001
1.40001
1.40001
1.40001
1.40001
1.84166
1.40001
1.40001
1.40001
1.40001
1.83897
1.40001
1.83992
1.02962
1.40001
1.05599
1.40001
1.40001
1.40001
1.39686
1.02557
1.39904
1.40001
1.40001
1.40001
1.45766
1.40001
1.40001
1.27047
1.40001
1.40001
1.40001
1.40001
1.40001
1.40001
1.40001
1.4
1.32472
1.4
1.40001
1.39758
1.40001
1.03593
1.40001
1.40001
1.40001
1.40001
1.73178
1.40001
1.40001
1.40001
1.40001
1.03077
1.40001
1.40001
1.81618
1.83873
1.4
1.40001
1.40001
1.28647
1.40001
1.40001
1.40001
1.40001
1.40001
1.40001
1.34557
1.41391
1.84106
1.40001
1.40001
1.40001
1.84365
1.29331
1.40001
1.40001
1.40001
1.83726
1.84303
1.40001
1.40001
1.40001
1.40001
1.40001
1.40001
1.40001
1.40001
1.40001
1.05952
1.40001
1.40001
1.83899
1.03277
1.40001
1.83805
1.40001
1.02046
1.40001
1.40001
1.0587
1.40001
1.40001
1.40001
1.40001
1.40001
1.40001
1.40001
1.83378
1.84164
1.40001
1.40001
1.40001
1.40001
1.80409
1.40001
1.53462
1.02675
1.40001
1.40001
1.40001
1.40001
1.40001
1.40001
1.40001
1.43352
1.40001
1.40001
1.6397
1.40001
1.40001
1.40001
1.76589
1.40001
1.40001
1.40001
1.40001
1.03041
1.40001
1.40001
1.02918
1.03186
1.40001
1.40001
1.84152
1.40001
1.39691
1.40001
1.40001
1.40001
1.71017
1.0373
1.40001
1.03124
1.40001
1.1758
1.40001
1.40001
1.40001
1.84135
1.40001
1.40001
1.84172
1.40001
1.40001
1.40001
1.84167
1.40001
1.40001
1.84149
1.40001
1.40001
1.04418
1.40001
1.52889
1.40001
1.40001
1.83854
1.83932
1.69364
1.79525
1.40001
1.03801
1.40001
1.40001
1.82255
1.40001
1.00342
1.40001
1.40001
1.40001
1.84193
1.40001
1.40001
1.40001
1.40001
1.66692
1.40001
1.8319
1.83981
1.00875
1.40001
1.40001
1.02385
1.02528
1.40001
1.40001
1.40001
1.71272
1.73549
1.40001
1.40001
1.40001
1.40001
1.40001
1.40001
1.40001
1.58643
1.83809
1.40873
1.40001
1.83693
1.01625
1.40001
1.40001
1.40001
1.64445
1.40001
1.49028
1.40001
1.80313
1.84006
1.40001
1.04064
1.40001
1.83972
1.40001
1.40001
1.84075
1.81463
1.40001
1.83851
1.40001
1.01378
1.40001
1.40001
1.40001
1.83456
1.83365
1.78914
1.40001
1.84395
1.84185
1.40001
1.84246
1.40001
1.84026
1.40001
1.03145
1.36696
1.04059
1.40001
1.40001
1.40001
1.40001
1.40001
1.84189
1.40001
1.84175
1.40001
1.40001
1.40001
1.82027
1.40001
1.02774
1.84181
1.40001
1.01879
1.05208
1.03623
1.40001
1.61579
1.4245
1.84348
1.84182
1.40001
1.4
1.40001
1.40001
1.84181
1.40001
1.40001
1.84192
1.84172
1.40001
1.55613
1.40033
1.40001
1.39688
1.83968
1.24794
1.40001
1.21535
1.02912
1.01892
1.34505
1.83996
1.83635
1.48906
1.84226
1.84153
1.40001
1.40001
1.83849
1.84095
1.84267
1.83623
1.40001
1.84201
1.02235
1.83776
1.84009
1.8393
1.84733
1.26183
1.29851
1.32153
1.84155
1.35155
1.84267
1.40001
1.40001
1.84392
1.84198
1.40001
1.03277
1.84049
1.8413
1.40001
1.84132
1.84164
1.40001
1.84182
1.02474
1.84294
1.83774
1.837
1.84599
1.40001
1.40001
1.40001
1.84125
1.68441
1.02778
1.84167
1.02672
1.84126
1.40001
1.40001
1.40001
1.40001
1.8393
1.84203
1.40001
1.40001
1.84183
1.03925
1.84123
1.03273
1.40001
1.8394
1.40001
1.01597
1.84368
1.12328
1.40001
1.84179
1.84468
1.84365
1.40001
1.40001
1.60244
1.84392
1.02662
1.84125
1.40001
1.84334
1.27669
1.84419
1.05918
1.40001
1.83989
1.07789
1.84379
1.0254
1.40001
1.84185
1.40001
1.83941
1.40001
1.65922
1.82589
1.744
1.01256
1.40001
1.84096
1.40001
1.84176
1.40001
1.84211
1.40001
1.40001
1.84125
1.37666
1.8441
1.01028
1.81003
1.40001
1.7176
1.40001
1.84142
1.84195
1.84076
1.40001
1.79738
1.84243
1.80866
1.67314
1.83891
1.40001
1.69195
1.40001
1.84031
1.40001
1.45573
1.40001
1.80943
1.40001
1.84377
1.82183
1.82125
1.40001
1.83889
1.01466
1.40001
1.03066
1.40001
1.40001
1.40001
1.83825
1.40001
1.84234
1.40001
1.40001
1.40001
1.84251
1.83174
1.76439
1.84055
1.84305
1.05434
1.84534
1.83896
1.40001
1.78489
1.84196
1.8261
1.40001
1.84093
1.83711
1.40001
1.84206
1.84182
1.84236
1.84316
1.40001
1.40001
1.40001
1.84451
1.00888
1.40001
1.8412
1.40001
1.40001
1.04588
1.40001
1.40001
1.84149
1.84104
1.40001
1.84159
1.83647
1.84062
1.37267
1.84192
1.40001
1.84206
1.84079
1.76655
1.40001
1.40001
1.40001
1.84211
1.84139
1.84177
1.33827
1.40001
1.8535
1.84137
1.84012
1.40001
1.84155
1.84064
1.84207
1.85514
1.40001
1.84085
1.84489
1.78794
1.83996
1.85391
1.40001
1.84033
1.83714
1.84158
1.83925
1.84023
1.03164
1.84045
1.84156
1.40001
1.84156
1.84173
1.84202
1.84293
1.40001
1.84032
1.84195
1.40001
1.84143
1.7725
1.40001
1.40001
1.40001
1.84053
1.84438
1.40001
1.40001
1.64057
1.40001
1.84123
1.40001
1.40001
1.84149
1.84344
1.84137
1.84152
1.40001
1.40001
1.40001
1.71273
1.40001
1.83976
1.40001
1.40001
1.84013
1.83754
1.40001
1.84136
1.03418
1.84197
1.84544
1.08835
1.40001
1.01537
1.78566
1.84671
1.83856
1.8384
1.04222
1.84144
1.8433
1.04166
1.02893
1.40001
1.84269
1.84187
1.40001
1.40001
1.84143
1.40001
1.84598
1.40001
1.78609
1.40001
1.60533
1.84106
1.84461
1.70278
1.79977
1.83948
1.8414
1.81095
1.40001
1.01089
1.84523
1.84177
1.8436
1.40002
1.40001
1.40001
1.84555
1.40001
1.84157
1.84159
1.14672
1.40001
1.84248
1.39994
1.40001
1.40003
1.40005
1.84191
1.84017
1.39844
1.40001
1.40001
1.8431
1.84378
1.84148
1.84685
1.84106
1.04609
1.79733
1.40001
1.83941
1.84114
1.84227
1.84522
1.40001
1.84152
1.83009
1.84273
1.40001
1.84286
1.84083
1.25032
1.84152
1.8423
1.40001
1.84134
1.22614
1.8412
1.2486
1.84141
1.40001
1.84224
1.84094
1.84185
1.84207
1.84177
1.8442
1.84215
1.83904
1.40001
1.32351
1.84076
1.84177
1.23298
1.84207
1.38174
1.67405
1.8412
1.84395
1.83888
1.40001
1.84439
1.68949
1.84034
1.31284
1.84376
1.84628
1.40001
1.27057
1.40001
1.84076
1.40001
1.70278
1.40001
1.81824
1.27093
1.40001
1.84526
1.83447
1.40001
1.84025
1.84395
1.84185
1.84274
1.84806
1.40001
1.84069
1.40001
1.40001
1.40001
1.29562
1.8421
1.84319
1.84756
1.84171
1.84421
1.84808
1.83646
1.84243
1.30041
1.43227
1.40001
1.40001
1.84089
1.84173
1.84157
1.84156
1.40003
1.6313
1.40001
1.84164
1.80026
1.40001
1.40001
1.12913
1.84097
1.40001
1.40001
1.01953
1.84188
1.40001
1.83852
1.84236
1.83889
1.82513
1.84174
1.40001
1.016
1.50969
1.84119
1.84241
1.40001
1.84314
1.84144
1.61388
1.40981
1.50204
1.40001
1.83914
1.84158
1.40001
1.40001
1.03648
1.40001
1.40001
1.84185
1.84126
1.84467
1.84291
1.841
1.83994
1.84225
1.83986
1.84196
1.40001
1.39653
1.84069
1.84467
1.39703
1.84148
1.84076
1.0166
1.01172
1.83962
1.84257
1.40001
1.40001
1.40089
1.8427
1.84342
1.84175
1.40001
1.84167
1.40001
1.24314
1.84369
1.84622
1.40001
1.5912
1.84419
1.40001
1.83841
1.40001
1.84157
1.69108
1.84058
1.40001
1.84104
1.84628
1.03526
1.84144
1.40001
1.8415
1.83846
1.40001
1.01779
1.84501
1.78686
1.39766
1.83333
1.84138
1.40001
1.39553
1.83704
1.39826
1.84164
1.40001
1.40001
1.84139
1.40001
1.84065
1.8418
1.39661
1.74587
1.40001
1.84148
1.40001
1.40001
1.40001
1.40001
1.84147
1.40001
1.40001
1.84555
1.40001
1.84008
1.40001
1.68233
1.84089
1.84328
1.40001
1.40001
1.39945
1.40001
1.84203
1.84218
1.84072
1.84179
1.84061
1.8417
1.84153
1.40001
1.84276
1.84013
1.40001
1.84191
1.84229
1.40001
1.84287
1.32035
1.45651
1.84196
1.84236
1.84295
1.40001
1.84175
1.40001
1.84184
1.84218
1.40001
1.84218
1.40001
1.40001
1.40001
1.40001
1.84063
1.01554
1.39793
1.40001
1.84199
1.84385
1.40001
1.84184
1.40001
1.40559
1.02357
1.84143
1.39958
1.40001
1.84326
1.39843
1.83956
1.40001
1.39979
1.40001
1.84027
1.84356
1.84421
1.84244
1.02828
1.8406
1.84246
1.84162
1.50593
1.40001
1.40001
1.59356
1.84122
1.01367
1.02853
1.40001
1.84031
1.84163
1.83942
1.40001
1.40001
1.83938
1.84174
1.39988
1.40001
1.72378
1.03671
1.40001
1.47631
1.84157
1.83118
1.39825
1.84152
1.8531
1.40001
1.39864
1.40001
1.84446
1.83956
1.5778
1.40001
1.81188
1.40001
1.40334
1.84371
1.02571
1.84091
1.8415
1.39694
1.39992
1.79038
1.40001
1.39971
1.40001
1.83998
1.40001
1.40002
1.0239
1.84278
1.40001
1.40001
1.40001
1.40001
1.8388
1.64707
1.40001
1.40001
1.00319
1.84114
1.64891
1.40001
1.40001
1.40001
1.82049
1.82774
1.84412
1.40001
1.40001
1.84735
1.40001
1.84235
1.84131
1.40001
1.40001
1.84371
1.84098
1.82718
1.40001
1.40001
1.84372
1.84269
1.40001
1.40001
1.40001
1.84238
1.40001
1.40001
1.40001
1.84248
1.84571
1.8442
1.40001
1.8408
1.40004
1.09692
1.84152
1.84145
1.40001
1.8418
1.82093
1.837
1.40001
1.40001
1.84382
1.40001
1.63675
1.84027
1.40001
1.02514
1.40001
1.84381
1.40001
1.40001
1.84566
1.40001
1.40001
1.40001
1.54074
1.8385
1.07767
1.40002
1.84383
1.40001
1.40001
1.84193
1.40001
1.84423
1.40001
1.40001
1.8413
1.84218
1.40001
1.40006
1.40001
1.40001
1.40001
1.40001
1.40001
1.40001
1.83935
1.8427
1.40001
1.83895
1.04296
1.84137
1.40001
1.84183
1.84869
1.84308
1.83496
1.83886
1.40001
1.40001
1.84475
1.40001
1.66308
1.847
1.84145
1.40001
1.84425
1.83477
1.40001
1.79179
1.40001
1.84183
1.68784
1.84504
1.39773
1.83363
1.79197
1.84412
1.8427
1.43938
1.84189
1.84429
1.40001
1.84133
1.40001
1.84212
1.40001
1.40001
1.40001
1.40001
1.39611
1.84153
1.84164
1.75715
1.40001
1.84072
1.40001
1.40001
1.40001
0.993991
1.40001
1.82865
1.40001
1.8018
1.83654
1.40001
1.40001
1.40001
1.81416
1.8401
1.40001
1.40001
1.84196
1.03078
1.47474
1.40001
1.84574
1.84167
1.80285
1.82907
1.84179
1.40001
1.84049
1.40001
1.40001
1.40001
1.40001
1.84181
1.84259
1.40001
1.82932
1.45584
1.84292
1.81162
1.40001
1.40001
1.81281
1.40001
1.40001
1.0401
1.71488
1.40001
1.40001
1.84414
1.40001
1.84482
1.80042
1.40001
1.80196
1.03192
1.8428
1.84231
1.84285
1.40001
1.02875
1.40001
1.40001
1.40001
1.8424
1.76186
1.40001
1.84878
1.84233
1.40001
1.84268
1.40001
1.40001
1.40001
1.40001
1.842
1.39938
1.40001
1.84387
1.40001
1.40001
1.84323
1.84166
1.40001
1.84322
1.49155
1.40003
1.40001
1.84122
1.40001
1.84095
1.40001
1.41336
1.8419
1.40001
1.84156
1.40001
1.40001
1.53903
1.84195
1.40001
1.40001
1.40001
1.40001
1.40001
1.39577
1.0472
1.01846
1.42005
1.40001
1.41979
1.40001
1.41973
1.40001
1.84202
1.40001
1.68068
1.40001
1.84264
1.40001
1.40001
1.40001
1.84227
1.40001
1.74469
1.84133
1.40001
1.63454
1.84132
1.40001
1.40001
1.83907
1.84181
1.40001
1.40001
1.44597
1.0117
1.40001
1.84282
1.40001
1.40001
1.40001
1.40001
1.47466
1.84147
1.40001
1.40001
1.40001
1.03873
1.40001
1.84167
1.84119
1.84975
1.40001
1.40001
1.40001
1.40001
1.62124
1.8481
1.40001
1.40001
1.40001
1.84208
1.84209
1.4433
1.40001
1.40001
1.40001
1.84455
1.8416
1.40001
1.02427
1.84122
1.84179
1.84216
1.84309
1.84329
1.40001
1.40001
1.84673
1.84111
1.84162
1.03227
1.44016
1.84318
1.40001
1.40001
1.40001
1.40001
1.40001
1.84167
1.03042
1.40001
1.40001
1.84144
1.5993
1.40001
1.84807
1.40001
1.40001
1.40001
1.03421
1.40001
1.40001
1.50902
1.84112
1.84216
1.40001
1.84642
1.84524
1.40001
1.47117
1.40001
1.85072
1.40001
1.83954
1.0329
1.40001
1.40001
1.40001
1.40001
1.84287
1.40006
1.40001
1.40001
1.40001
1.82529
1.40001
1.40001
1.40001
1.40001
1.84133
1.03461
1.75225
1.84499
1.40001
1.84178
1.40001
1.40001
1.40001
1.39713
1.40001
1.84235
1.40001
1.19586
1.40001
1.40001
1.40004
1.84034
1.0231
1.40001
1.84292
1.40001
1.84134
1.8425
1.0284
1.40001
1.40001
1.82989
1.40001
1.40001
1.00749
1.40001
1.84204
1.40001
1.82159
1.39936
1.84257
1.40001
1.40001
1.40001
1.40001
1.84029
1.40001
1.40001
1.84133
1.40001
1.40001
1.40001
1.40001
1.40001
1.40001
1.40001
1.40001
1.69196
1.40001
1.54261
1.8392
1.40001
1.40001
1.40001
1.04084
1.40001
1.40001
1.40001
1.40001
1.84184
1.84203
1.45979
1.40001
1.40001
1.84334
1.40001
1.40001
1.84196
1.40001
1.40002
1.40001
1.40001
1.40001
1.40002
1.84177
1.17581
1.84198
1.84384
1.39673
1.40001
1.40001
1.40001
1.66171
1.40001
1.40001
1.84376
1.84108
1.40001
1.40001
1.40001
1.40001
1.01983
1.40001
1.40001
1.40001
1.68559
1.40001
1.84296
1.84441
1.40001
1.8434
1.40001
1.40001
1.40001
1.63656
1.40001
1.83868
1.40001
1.84156
1.40001
1.40001
1.39605
1.84244
1.40001
1.40001
1.40001
1.40001
1.40001
1.84395
1.40003
1.40001
1.03674
1.84507
1.02849
1.40001
1.8406
1.40001
1.39615
1.40001
1.84265
1.8424
1.40001
1.8459
1.27079
1.8421
1.8475
1.40004
1.40001
1.40001
1.04184
1.40001
1.40001
1.40001
1.8407
1.65461
1.84143
1.40001
1.40001
1.40001
1.40001
1.3968
1.84135
1.40001
1.03748
1.40001
1.40001
1.40001
1.40001
1.40001
1.40001
1.40001
1.85116
1.84345
1.84389
1.40001
1.40001
1.39697
1.40001
1.37122
1.40001
1.40001
1.40001
1.02992
1.37534
1.40001
1.04345
1.03899
1.40001
1.84304
1.84153
1.40001
1.84401
1.84174
1.04278
1.69665
1.40001
1.40001
1.40001
1.03383
1.84247
1.40001
1.03473
1.40001
1.85021
1.47578
1.40001
1.40001
1.40001
1.40001
1.84153
1.83962
1.40001
1.40001
1.84171
1.40001
1.40001
1.8415
1.84111
1.40001
1.79855
1.84254
1.83998
1.35985
1.83839
1.40859
1.038
1.7374
1.8415
1.40001
1.40001
1.40001
1.02825
1.40001
1.04263
1.84312
1.35365
1.84174
1.34964
1.40001
1.84283
1.6048
1.40001
1.40001
1.84174
1.40001
1.578
1.84359
1.40001
1.40001
1.8417
1.8401
1.04916
1.66231
1.39989
1.40001
1.66242
1.40001
1.84723
1.35126
1.84225
1.84464
1.40001
1.40001
1.40001
1.40001
1.84186
1.40001
1.40001
1.84316
1.39964
1.84188
1.75285
1.83945
1.02337
1.40001
1.40001
1.40001
1.40001
1.84211
1.40005
1.84146
1.40001
1.84169
1.84389
1.45637
1.84068
1.5367
1.84205
1.40001
1.70273
1.07442
1.8469
1.84187
1.74488
1.47949
1.83996
1.84214
1.84301
1.84025
1.40001
1.29132
1.46998
1.40001
1.84174
1.6123
1.84213
1.40004
1.40001
1.40001
1.07007
1.84882
1.83998
1.76293
1.40001
1.56505
1.40001
1.8432
1.8446
1.40001
1.84321
1.84046
1.40001
1.40001
1.40001
1.84195
1.40001
1.57253
1.84441
1.70666
1.40001
1.84075
1.40001
1.40001
1.40001
1.40001
1.40001
1.40001
1.40001
1.40001
1.40001
1.40001
1.0691
1.40001
1.82487
1.02968
1.65727
1.39853
1.84708
1.40001
1.63792
1.40002
1.6848
1.78076
1.40001
1.40178
1.84989
1.29666
1.40001
1.83815
1.83192
1.34561
1.40001
1.84288
1.84196
1.84324
1.40001
1.84169
1.84239
1.84313
1.40001
1.59517
1.40001
1.40007
1.84227
1.40001
1.84155
1.46471
1.83949
1.40001
1.40001
1.84225
1.83836
1.05805
1.40001
1.84073
1.73037
1.84124
1.40001
1.40001
1.83928
1.8416
1.39825
1.40001
1.78915
1.39705
1.84147
1.40007
1.40001
1.40001
1.40001
1.40001
1.60186
1.40001
1.74119
1.84101
1.72967
1.84271
1.40001
1.40251
1.40001
1.40001
1.84161
1.40001
1.84183
1.40001
1.40001
1.40001
1.40001
1.4
1.40001
1.45776
1.63483
1.40001
1.40001
1.03931
1.40001
1.8412
1.07778
1.84547
1.40001
1.62954
1.39976
1.84242
1.68585
1.03617
1.63976
1.40004
1.84224
1.84075
1.40001
1.6679
1.83918
1.84115
1.39839
1.845
1.8295
1.02838
1.40001
1.40001
1.39789
1.40001
1.8367
1.40001
1.03761
1.84445
1.40001
1.40001
1.79539
1.40001
1.84174
1.40001
1.84259
1.40001
1.07815
1.40001
1.40001
1.84389
1.83852
1.84638
1.40001
1.84005
1.84148
1.84961
1.40001
1.40001
1.82317
1.4
1.13405
1.40001
1.40001
1.40001
1.84235
1.40001
1.8415
1.68923
1.83972
1.40001
1.84215
1.39938
1.40001
1.40001
1.40001
1.40001
1.40001
1.40001
1.10429
1.40001
1.40001
1.84181
1.40001
1.84638
1.84617
1.40001
1.05331
1.02982
1.40001
1.84281
1.47466
1.03264
0.999163
1.40001
1.84415
1.40001
1.84036
1.04725
1.4018
1.40001
1.40001
1.39952
1.40001
1.40001
1.40001
1.39992
1.57395
1.8423
1.40001
1.40001
1.84272
1.6621
1.40001
1.79484
1.84088
1.841
1.57697
1.84457
1.40001
1.8423
1.40001
1.84156
1.40001
1.84043
1.83957
1.3969
1.84169
1.84799
1.40001
1.40001
1.40001
1.40001
1.40001
1.31339
1.83903
1.40005
1.40003
1.04091
1.39999
1.03346
0.995033
1.40001
1.84109
1.8403
1.84203
1.40001
1.84169
1.40001
1.0309
1.40001
1.40001
1.84371
1.21709
1.84056
1.40001
1.84268
1.40001
1.383
1.84028
1.40001
1.40001
1.40001
1.84352
1.40001
1.84136
1.04667
1.40001
1.40001
1.65802
1.40001
1.40001
1.63953
1.40001
1.40001
1.84296
1.40001
1.40001
1.40001
1.40001
1.40001
1.8484
1.84326
1.40001
1.84123
1.8412
1.0406
1.60276
1.8397
1.40001
1.40001
1.79873
1.39899
1.40001
1.40001
1.84183
1.83939
1.68187
1.40001
1.84061
1.0563
1.80677
1.39962
1.40001
1.84399
1.40004
1.84001
1.78211
1.73573
1.40001
1.40001
1.84103
1.10399
1.02192
1.40001
1.84175
1.40001
1.84217
1.40001
1.66267
1.40001
1.40001
1.84113
1.68378
1.03919
1.40001
1.39832
1.40001
1.40001
1.42645
1.5757
1.84119
1.40001
1.84725
1.40001
1.40001
1.40001
1.40001
1.40001
1.40001
1.46627
1.03263
1.40001
1.40001
1.42476
1.40001
1.40001
1.40001
1.40001
1.40001
1.84071
1.40001
1.40001
1.8416
1.83998
1.71665
1.40001
1.40001
1.40001
1.24068
1.84127
1.70955
1.40001
1.40001
1.40001
1.40001
1.84184
1.40001
1.40001
1.40001
1.84427
1.40001
1.40001
1.71923
1.8576
1.43288
1.14621
1.84643
1.71574
1.84089
1.40001
1.62543
1.40001
1.40001
1.40001
1.02144
1.40293
1.03702
1.40001
1.04827
1.00764
1.40001
1.04463
1.40001
1.40001
1.40001
1.5971
1.40001
1.84057
1.8407
1.40101
1.60525
1.77048
1.01751
1.17362
1.27907
1.40001
1.84272
1.84397
1.84272
1.842
1.78013
1.26572
1.40001
1.78252
1.40001
1.82578
1.40001
1.40001
1.39645
1.40974
1.40001
1.40001
1.40001
1.84086
1.40001
1.03495
1.40001
1.84266
1.0329
1.40001
1.40001
1.84195
1.40001
1.84171
1.39954
1.40001
1.40001
1.84364
1.78767
1.40001
1.84904
1.40001
1.40001
1.41436
1.40001
1.59028
1.40001
1.40001
1.03864
1.40001
1.40001
1.84124
1.4
1.84037
1.40001
1.40004
1.03153
1.40001
1.40001
1.03652
1.40082
1.40001
1.8439
1.039
1.84241
1.04411
1.84165
1.40001
1.40001
1.40001
1.40001
1.40001
1.40001
1.40001
1.40001
1.40001
1.40001
1.40001
1.82347
1.40001
1.84368
1.84147
1.02225
1.40001
1.40001
1.40001
1.40001
1.40001
1.40001
1.82981
1.40001
1.40001
1.03509
1.40001
1.40001
1.84403
1.40001
1.40001
1.57133
1.77068
1.02351
1.05849
1.10256
1.13365
1.40001
1.39646
1.04013
1.40019
1.802
1.39682
1.40001
1.40001
1.84187
1.40001
1.40001
1.40001
1.17588
1.40002
1.5606
1.40001
1.40001
1.57583
1.84257
1.40001
1.0443
1.40001
1.40001
1.40001
1.39628
1.40001
1.84174
1.84223
1.40001
1.02872
1.40001
1.63652
1.02114
1.40001
1.27911
1.40001
1.39603
1.01193
1.40001
1.40001
1.40001
1.39537
1.01894
1.40001
1.04706
1.39842
1.6342
1.8103
1.04995
1.02598
1.40001
1.39091
1.40001
1.39861
1.40001
1.84273
1.84085
1.40001
1.41069
1.84168
1.84301
1.40001
1.40001
1.84246
1.40001
1.40001
1.40005
1.40001
1.84106
1.40001
1.40001
1.41813
1.40001
1.39857
1.10108
1.40001
1.40001
1.40001
1.40001
1.40001
1.84684
1.42798
1.40005
1.40001
1.40001
1.40001
1.40001
1.40001
1.40004
1.40001
1.03066
1.48985
1.39861
1.84685
1.84061
1.40001
1.41647
1.84157
1.79874
1.40001
1.40001
1.01991
1.84134
1.40001
1.84083
1.40001
1.84403
1.71239
1.02794
1.40001
1.02419
1.80382
1.39968
1.40001
1.03316
1.00052
1.40001
1.40001
1.77305
1.40001
1.4
1.0122
1.40001
1.40001
1.40001
1.54573
1.40001
1.02041
1.84296
1.40001
1.40001
1.40001
1.40001
1.84204
1.40001
1.40001
1.84704
1.79699
1.40001
1.40001
1.40001
1.83795
1.03908
1.40001
1.84173
1.84132
1.40001
1.75397
1.4
1.40004
1.40001
1.40001
1.80798
1.41126
1.40001
1.03048
1.63872
1.40001
1.40001
1.39712
1.40001
1.40001
1.84436
1.40001
1.40001
1.40004
1.40001
1.84082
1.40001
1.40001
1.40001
1.40001
1.40001
1.40001
1.40001
1.59782
1.40001
1.84069
1.40001
1.40001
1.8426
1.40001
1.40001
1.40001
1.84226
1.84807
1.44558
1.40001
1.39757
1.40001
1.40001
1.40001
1.40001
1.83984
1.40001
1.40001
1.84177
1.0282
1.40001
1.40001
1.40001
1.40001
1.40001
1.40001
1.75935
1.40001
1.40001
1.84035
1.84212
1.40001
1.40001
1.40001
1.84132
1.84247
1.40001
1.39972
1.83531
1.40001
1.40001
1.40001
1.40002
1.03712
1.42911
1.39604
1.39576
1.40001
1.40001
1.03472
1.84241
1.40001
1.04872
1.40001
1.84007
1.82393
1.02635
1.39939
1.8412
1.84149
1.84161
1.40001
1.40001
1.32155
1.79262
1.76148
1.01857
1.40001
1.40001
1.40001
1.8403
1.84146
1.03445
1.39725
1.40001
1.84237
1.0503
1.40001
1.84123
1.04221
1.37391
1.40708
1.40001
1.8505
1.40001
1.40001
1.40001
1.40001
1.40001
1.40001
1.40012
1.81104
1.40001
1.40001
1.84524
1.40001
1.40001
1.40001
1.84191
1.40001
1.03262
1.40001
1.40001
1.40001
1.55626
1.40001
1.40001
1.40001
1.40001
1.40001
1.19184
1.40001
1.04613
1.40001
1.84276
1.40007
1.25569
1.25923
1.40002
1.40388
1.63654
1.40001
1.40001
1.04496
1.84198
1.84261
1.8421
1.40001
1.02671
1.03146
1.40001
1.84029
1.40001
1.40001
1.40001
1.40001
1.40001
1.40004
1.40001
1.03787
1.68017
1.40001
1.40001
1.03067
1.38856
1.40001
1.40001
1.40001
1.40001
1.01463
1.40001
1.08681
1.40001
1.40001
1.84254
1.40001
1.40001
1.02554
1.40001
1.84214
1.40001
1.01735
1.40001
1.04379
1.40001
1.4082
1.8405
1.85184
1.40001
1.40001
1.84078
1.40001
1.40001
1.4889
1.39689
1.40001
1.39828
1.40001
1.84493
1.40001
1.0253
1.40002
1.83522
1.39871
1.40001
1.40001
1.18477
1.40001
1.3991
1.03625
1.84389
1.56001
1.40001
1.40001
1.30674
1.40001
1.40001
1.40001
1.18987
1.40001
1.40001
1.40001
1.84152
1.40001
1.0297
1.4
1.40001
1.40001
1.40001
1.01672
1.84181
1.80269
1.04271
1.40001
1.84341
1.40001
1.40001
1.84214
1.84026
1.77406
1.03089
1.39775
1.39932
1.40001
1.84076
1.40001
1.40001
1.40001
1.40001
1.84015
1.40005
1.40001
1.40001
1.84316
1.40001
1.40001
1.84173
1.02758
1.40001
1.40001
1.40001
1.02784
1.40001
1.4
1.4
1.39868
1.40001
1.40001
1.40001
1.40001
1.74507
1.40001
1.83986
1.84121
1.84237
1.84201
1.84004
1.8411
1.40001
1.84305
1.40001
1.84151
1.84104
1.40001
1.39881
1.02003
1.77885
1.39989
1.40001
1.40001
1.40001
1.40001
1.39407
1.40001
1.47472
1.40001
1.40001
1.40001
1.24112
1.84166
1.8424
1.84734
1.78245
1.39987
1.40001
1.42136
1.84045
1.39793
1.45455
1.39724
1.04408
1.40001
1.40003
1.40001
1.40001
1.40001
1.40001
1.40001
1.84149
1.02766
1.84194
1.84191
1.39517
1.03939
1.40001
1.40001
1.40001
1.84158
1.07331
1.79012
1.01586
1.84153
1.84584
1.03796
1.8462
1.42392
1.40001
1.84515
1.18668
1.40001
1.3987
1.03479
1.40001
1.04501
1.40001
1.84132
1.84288
1.14807
1.40001
1.84263
1.04442
1.40001
1.04602
1.40001
1.84181
1.40001
1.40001
1.84513
1.40001
1.22613
1.40001
1.39966
1.04419
1.84663
1.3995
1.40001
1.05349
1.40001
1.40001
1.40001
1.40001
1.63548
1.40001
1.84296
1.40001
1.40001
1.847
1.40001
1.40001
1.8422
1.40001
1.03938
1.40001
1.02145
1.40002
1.40001
1.40001
1.40001
1.40001
1.82282
1.65511
1.84188
1.40001
1.842
1.8117
1.01137
1.03794
1.40001
1.40001
1.83826
1.40001
1.04034
1.40001
1.38843
1.40001
1.40001
1.84199
1.40001
1.83884
1.03583
1.84788
1.40001
1.03576
1.40001
1.40001
1.84482
1.8403
1.40001
1.40004
1.40001
1.84517
1.40001
1.40001
0.996909
1.39943
1.0417
1.40001
1.40001
1.40001
1.84277
1.84118
1.83974
1.40001
1.40001
1.04384
1.40001
1.84076
1.40001
1.40001
1.40001
1.82273
1.8416
1.84182
1.07825
1.84397
1.84179
1.05153
1.83956
1.40005
1.05998
1.40832
1.40001
1.40001
1.8407
1.06653
1.68519
1.05505
1.84184
1.39727
1.03508
1.84383
1.40001
1.40001
1.40001
1.40001
1.84187
1.84076
1.04736
1.40001
1.40003
1.0345
1.40004
1.40001
1.04025
1.02717
1.71137
1.84434
1.39845
1.84201
1.40001
1.84238
1.21932
1.03815
1.84125
1.85042
1.40001
1.84249
1.40001
1.40001
1.84157
1.40001
1.7347
1.83921
1.40001
1.40001
1.40001
1.40001
1.84082
1.83736
1.84548
1.40001
1.40001
1.84434
1.83868
1.83906
1.40001
1.84089
1.40001
1.40001
1.40001
1.40001
1.40001
1.01964
1.2248
1.03824
1.40001
1.40001
1.84074
1.40001
1.40001
1.84428
1.03141
1.40001
1.84113
1.83762
1.82482
1.01701
1.40001
1.06946
1.40001
1.40003
1.84008
1.61938
1.83988
1.8044
1.40001
1.00742
1.40001
1.84491
1.71706
1.02468
1.40001
1.40001
1.40001
1.19506
1.40001
1.40001
1.8454
1.40001
1.02717
1.84142
1.40001
1.40001
1.40001
1.40001
1.40001
1.759
1.50233
1.40001
1.84118
1.40001
1.84055
1.40001
1.39774
1.40001
1.84087
1.84054
1.84202
1.84659
1.39958
1.84035
1.40001
1.842
1.84247
1.775
1.40001
1.40001
1.03269
1.83663
1.40001
1.40001
1.84605
1.84197
1.83896
1.40001
1.84006
1.40001
1.40001
1.40003
1.84021
1.84205
1.52844
1.49704
1.84168
1.84119
1.08716
1.40001
1.40001
1.40001
1.40001
1.40001
1.55698
1.40001
1.40001
1.76594
1.03829
1.39999
1.40001
1.84216
1.39993
1.39982
1.4611
1.80314
1.83667
1.29668
1.40001
1.0525
1.40001
1.39836
1.84189
1.84467
1.83987
1.39905
1.40001
1.40001
1.04578
1.40001
1.40001
1.84185
1.4476
1.40001
1.40001
1.40001
1.40001
1.40001
1.40001
1.40001
1.39995
1.83999
1.40002
1.40001
1.40001
1.40001
1.40001
1.68368
1.40001
1.61076
1.40001
1.40001
1.84183
1.84836
1.03459
1.39879
1.40001
1.4
1.40001
1.04658
1.84119
1.84122
1.40001
1.40001
1.40001
1.40001
1.40001
1.40001
1.40001
1.40001
1.83932
1.8355
1.02559
1.44951
1.03611
1.40001
1.0351
1.40001
1.84141
1.5317
1.40001
1.40001
1.12556
1.40001
1.82406
1.19387
1.3968
1.03586
1.40001
1.40001
1.8384
1.40005
1.39714
1.01072
1.8412
1.84195
1.40001
1.40001
1.40001
1.40001
1.81219
1.40001
1.40001
1.84231
1.39895
1.84218
1.4001
1.40001
1.40001
1.03744
1.40001
1.40001
1.83983
1.04312
1.15694
1.0246
1.84197
1.39939
1.40001
1.84131
1.0516
1.02525
1.40892
1.40001
1.40001
1.84031
1.40005
1.60152
1.40001
1.40001
1.83976
1.03144
1.40001
1.40001
1.40014
1.84304
1.40014
1.82502
1.40001
1.40004
1.40001
1.40001
1.13601
1.40001
1.17896
1.40002
1.40001
1.84391
1.04084
1.40001
1.16225
1.19233
1.40001
1.40001
1.84005
1.40001
1.40001
1.40001
1.84116
1.84315
1.40006
1.82068
1.84037
1.17299
1.84163
1.81576
1.40001
1.40001
1.83958
1.4
1.40001
1.40001
1.40001
1.40001
1.84887
1.84014
1.40001
1.40001
1.40001
1.83978
1.40021
1.40001
1.02845
1.12105
1.40001