/*--------------------------------*- C++ -*----------------------------------*\
  =========                 |
  \\      /  F ield         | OpenFOAM: The Open Source CFD Toolbox
   \\    /   O peration     | Website:  https://openfoam.org
    \\  /    A nd           | Version:  12
     \\/     M anipulation  |
\*---------------------------------------------------------------------------*/
FoamFile
{
    format      ascii;
    class       surfaceScalarField;
    location    "4.36";
    object      phi;
}
// * * * * * * * * * * * * * * * * * * * * * * * * * * * * * * * * * * * * * //

dimensions      [1 0 -1 0 0 0 0];

internalField   nonuniform List<scalar> 
33852
(
0.000251329
2.24281e-05
-0.000273757
-0.000246121
1.32441e-05
0.000232877
-0.000175285
-7.15096e-05
0.000246621
0.000304053
-0.000163969
-0.000140085
0.000293102
-4.28148e-05
-0.000249384
2.72441e-05
-0.000260681
0.000233437
0.00031524
1.48919e-05
-0.000331519
0.000304277
-9.59564e-05
-0.000208321
0.000286413
-3.50841e-05
0.000210075
1.42252e-06
-0.000208624
0.000289459
-0.000366429
7.69728e-05
0.000358744
-4.55664e-05
-4.39602e-05
0.000263285
-0.000219325
-4.37852e-05
0.000318266
-0.000274184
6.05826e-05
-0.000236163
0.000252057
1.2236e-05
-0.000264293
0.000264853
-1.2796e-05
-0.000278433
3.23121e-05
0.000340551
-5.10931e-05
0.000158593
0.000112308
-0.000270901
-2.4369e-05
0.000303236
-0.000279079
0.000271377
-0.000276165
4.78802e-06
-1.7662e-05
0.000274894
-0.000256645
-0.000226947
1.50265e-05
0.000209807
-0.000153114
-0.000183341
0.000336687
-0.000146106
-7.01718e-05
0.000215613
3.72401e-05
0.000267037
-6.12378e-05
-0.000263549
0.000325025
-0.000212612
2.37715e-06
0.000221608
-0.000207147
-1.96098e-05
0.000142045
0.000137388
-0.000279433
0.000339259
1.91185e-05
0.000142618
0.000128347
-0.000270965
-0.000101136
0.000259729
-0.000250489
-3.78001e-06
0.000254269
0.000331126
-5.96321e-05
-0.000271359
-0.000356452
0.000202985
-0.000226829
0.000209601
0.000231645
3.32081e-05
-5.65602e-06
0.000237301
-7.91149e-06
0.000216771
-0.000232625
0.000259869
0.000314774
-5.71786e-05
-0.000258463
-0.000309093
5.51042e-05
0.000253989
0.000240666
-0.000301635
0.000273589
-0.000306321
3.27321e-05
-0.000180237
-5.49362e-05
0.000235173
0.000272133
-0.000272133
0.000148429
-0.000297473
0.000149045
-0.000209177
0.000216645
-7.41353e-06
-0.000268241
0.000237301
3.09401e-05
-0.000199445
0.000244727
-4.73381e-05
-9.16164e-05
-0.000217477
-0.000114542
-0.000251914
-0.000280169
0.000266113
1.40561e-05
0.000328181
1.17711e-05
-0.000250433
7.01963e-05
0.000117908
0.000145909
-0.000263817
1.34681e-05
-0.000267457
0.000253989
-0.000134569
0.000282997
-0.000155213
-5.28992e-05
0.000202594
-0.000274681
0.000245113
2.95681e-05
0.000237553
-0.000268437
3.08841e-05
-0.000176823
-2.31336e-05
0.000151665
0.000115565
-0.00026723
-0.000187971
-2.84642e-05
0.000209328
0.000263985
2.24281e-05
0.000275941
-2.35201e-06
0.000265329
-0.000250741
-1.45881e-05
0.000240706
-6.75353e-05
-0.000172192
-1.82001e-06
0.000239373
0.000366701
-0.000312666
-5.39236e-05
-2.82669e-05
0.000303249
-0.000274426
-0.000101584
0.000219493
0.00034225
2.42487e-05
-0.000371481
0.000352717
1.79888e-05
-0.000221081
2.28334e-05
0.000308022
-0.000321649
1.22359e-05
-0.000207515
0.000271267
-6.38859e-05
-4.45202e-06
1.7225e-05
-0.000319874
0.000302647
0.000230737
-0.000197226
-3.48346e-05
0.000269473
-0.000338015
6.99472e-05
0.000334138
-6.34453e-05
-0.000268941
0.000236573
3.23681e-05
-0.000129388
-0.000132609
0.000261997
-1.86761e-05
-0.000249565
-1.022e-05
-0.000258721
2.34494e-05
0.000209474
-0.000233845
3.23621e-05
-0.000232618
0.000201805
-2.50081e-05
0.000327447
-0.000302794
-0.000279329
0.000273701
5.62802e-06
0.000156129
-0.000296857
0.000140729
-5.81684e-05
-0.000140243
0.00021177
0.000143277
0.0001218
-0.000265077
-0.00025003
0.000225482
-0.000198294
0.000152762
-0.000168813
0.000327181
-0.000158369
0.000185389
7.16523e-05
-0.000257041
0.000255193
2.07481e-05
-0.000192277
0.000148317
5.00272e-05
0.00026504
0.00030748
-0.000290356
9.18199e-05
-0.000238255
0.000135241
0.000117096
-0.000281065
-1.18961e-06
0.000245671
-0.000244706
0.000166489
0.000122836
-0.000289325
0.000142014
8.88835e-05
-3.92002e-06
0.000259113
0.000302269
5.43019e-06
-0.000323693
0.000314669
8.94624e-06
-3.99002e-05
0.000236293
-0.000196393
4.08802e-06
-0.000284257
-2.52512e-05
0.000163524
-0.000138513
-0.000156528
0.000130789
0.000219354
-0.000184878
-0.000269921
0.000264965
4.95602e-06
2.64041e-05
0.000174721
-0.000201125
2.87841e-05
-0.000257265
0.000228481
0.000276137
-0.000262669
0.000115108
0.000212073
0.000212178
-0.000189255
-0.000175813
0.000202217
1.36314e-05
0.000282328
-0.000296389
0.000270889
2.1931e-05
0.000271704
-0.000285063
1.24127e-05
3.86402e-06
0.000267513
-1.81649e-05
0.00028916
0.000330645
9.93249e-06
0.000213668
-0.000257376
0.000316338
-0.000315825
-6.63603e-06
-0.000272693
2.89489e-05
0.000207218
0.000187993
3.98722e-05
-0.000227865
-5.2564e-05
0.000205721
-0.000153114
0.000153609
-0.000270285
0.000116676
0.000279441
-0.000329701
5.02602e-05
-6.38122e-05
0.000249201
-0.000166909
0.000315897
-0.000148989
-0.000313774
-1.00664e-05
-0.000214929
0.000175029
2.78601e-05
-0.000278349
0.000276221
-1.88441e-05
-0.000248613
1.71516e-05
-0.000301623
0.000284486
0.000344989
-0.000158593
-0.000186397
-1.68108e-05
-0.000240778
0.000257877
-0.000266617
-3.30401e-06
0.000224001
2.45841e-05
-0.000248585
0.000284509
-0.000128381
0.000140197
0.000138853
-0.000279049
-0.00019865
-1.06824e-05
0.000258169
-0.000115551
0.000225684
-0.000242535
-6.38122e-05
0.000251805
-0.000207995
0.000249481
-5.60002e-07
-0.000248921
0.000255109
-0.000237441
-0.000324361
0.00029919
-3.08841e-05
0.000203169
-0.000172285
0.000291438
1.3026e-06
-0.000292795
7.62233e-05
0.000131384
-0.000208618
4.7154e-05
-0.000203999
-0.000289564
-4.63482e-06
0.000293461
-1.52194e-06
-0.000287995
0.000146973
-0.000273925
0.000126952
-0.000262106
0.000220159
-0.000294012
0.000266192
0.000279441
-0.000313192
-1.2495e-05
0.000327046
0.000110226
0.000160973
-2.13269e-05
0.00035234
0.000140141
0.000139833
-0.000279973
0.000245029
-0.000250349
5.32002e-06
-0.000210953
0.000180069
0.000279133
-5.43202e-06
0.000351021
-3.26041e-05
-0.000303366
0.00030513
-1.45769e-06
0.000270985
-0.000270985
-0.000364772
0.000225946
0.00013882
-0.000191776
1.78253e-05
1.69049e-05
0.000275157
-0.000278461
3.30401e-06
-4.99839e-06
0.000167853
-0.00016123
-0.000197345
0.000254801
-5.74562e-05
-0.000205624
4.67911e-06
-0.000244062
0.00016146
8.17918e-05
-0.000180264
0.0002614
-8.11389e-05
0.000256285
-0.000287113
3.08281e-05
-0.000249229
5.18842e-05
-2.36169e-05
0.000276236
-0.000252257
-0.000253547
1.35801e-06
0.000252189
0.000231281
-7.28003e-06
-0.000294319
7.61062e-06
0.000287013
-0.000266085
0.000266085
-0.000283063
-5.4741e-05
-0.000170747
-0.000194084
-0.000171314
0.000215033
-4.43242e-05
-1.232e-05
-0.000239177
0.000251497
3.10801e-06
0.000210113
-0.000213221
-0.000187419
-2.28038e-05
0.000209642
7.49093e-06
0.000294106
-0.000301545
-0.000236153
-1.34401e-05
0.000249593
1.50361e-05
-0.000251189
-0.000241025
0.000256061
-0.000301093
0.000308864
0.000256117
7.16803e-06
-0.000164886
-3.12587e-05
0.000203717
-0.000145237
-0.000134765
-0.000244329
0.000240549
0.000298367
-4.50354e-07
-0.000297917
-0.000298985
5.9076e-07
0.000298343
1.91411e-05
0.000181217
0.000163773
7.70043e-05
-0.000257269
-0.000159242
0.000310908
0.000250721
-0.000108677
-0.000235145
-1.83681e-05
0.000253513
-0.000204335
-0.00012668
0.000330997
-6.10402e-06
-0.000229125
0.000235229
-2.02606e-05
-0.000174906
-0.000286654
-8.56717e-05
6.24517e-06
-0.000299921
-0.000212774
0.000328108
-0.000115913
0.000281597
0.000288205
-5.16322e-05
0.000271993
-1.57081e-05
-0.000187159
-1.38665e-05
0.000202322
0.000297777
4.82299e-07
-0.000298159
-0.00026903
-3.28771e-05
-0.000218821
0.000247605
-2.51862e-05
0.000310747
-0.00028526
0.000173007
7.5614e-06
-0.000180468
-3.26748e-05
0.000209843
-0.000301397
0.000276274
0.000292805
5.79064e-06
-0.00029768
0.000157445
0.00011886
-0.000276305
0.000290155
3.81897e-06
-0.00029429
-0.000247528
0.000118236
0.000129497
-0.000281477
0.000295234
0.000302513
-0.000156857
-0.000145657
0.000207005
-0.000203897
-0.000232009
-0.000121156
-0.000155009
-4.10388e-06
-0.000294351
0.00029849
-1.0136e-05
0.000276249
0.000290015
-1.98801e-05
-0.00027056
-0.000262891
2.92085e-05
0.000233787
0.000271433
-0.000267569
0.000249621
2.95121e-05
0.000314779
-9.72815e-06
-0.00030512
4.73281e-05
0.000145252
-0.000192215
-0.000100079
0.000196119
-9.67033e-05
0.000252617
-2.91201e-05
-0.000223497
8.49541e-07
0.000292162
-0.000176961
-3.14976e-05
0.000214574
-2.2178e-06
0.000290781
-9.33244e-05
0.000246933
-0.000255417
-5.26402e-06
0.000121184
0.000181329
1.34121e-05
0.000241557
-0.000254969
0.000236097
1.34961e-05
-0.000249593
0.000249509
-0.000242929
0.000256425
6.32084e-05
-0.000200333
0.000137483
-0.000216299
0.000116176
-0.00019627
0.0002972
1.231e-06
-0.000298465
0.000253849
2.22881e-05
0.000268493
-0.000216441
-5.20522e-05
0.000225518
-0.000246849
2.13305e-05
0.000257909
1.40841e-05
5.8068e-05
0.000294553
0.000267186
-3.89594e-05
-0.000228226
0.000173936
1.274e-05
0.000240297
-0.000253037
0.000193957
-0.000114389
-8.00452e-05
-0.000208531
2.15944e-05
-1.25024e-06
-0.000297837
0.000298989
0.000210074
-0.000167159
-5.12508e-05
0.000344354
-4.13198e-05
0.000275969
-0.000135829
2.31561e-05
0.000238337
-0.000261493
-0.000231141
0.000254297
-2.66727e-05
-0.000229727
0.000256428
0.000153752
-0.000157122
-7.72256e-05
-0.000169424
-0.000261723
4.14346e-05
0.000220288
-3.17521e-05
-0.00022997
6.88346e-06
0.000261717
-3.25193e-05
-0.000229198
1.68146e-05
0.000127597
-0.000197105
0.000308785
-0.000171397
0.000262319
-3.57923e-05
-0.000226526
-0.000319636
0.000178036
-0.000101182
-0.000228453
-6.90203e-05
-1.34481e-06
-0.000298048
0.000298925
-2.74797e-05
0.000181926
-0.000157128
0.000307914
6.85241e-06
0.000250097
-0.000248249
-1.84801e-06
-0.000176479
6.15969e-05
0.000260243
-3.07154e-05
-0.000229529
0.000197345
-0.000250769
5.34242e-05
0.000254206
-0.000231206
-2.29992e-05
-0.000252337
0.000240017
0.000143937
0.000100406
-0.000101864
-0.000170269
0.000132496
-0.000261885
-0.000290249
0.0002422
4.80483e-05
0.000216808
3.12479e-05
-0.000248056
-0.000237656
-9.31317e-06
0.000247573
0.000326825
-2.3208e-05
0.000263996
-3.42721e-05
-0.000229724
0.000141105
-0.000230877
8.89332e-05
3.63259e-05
-0.000265637
0.000229311
-0.000253905
0.000121296
0.000249817
-5.24722e-05
0.000294673
-0.000154253
-0.000140421
0.000122248
-0.000289157
1.53441e-05
0.000237665
-0.000253009
-0.000262031
3.54705e-05
0.00022656
-2.66519e-06
-3.77917e-05
-0.000224239
0.000249338
-0.0002725
-0.000264649
3.44737e-05
0.000230175
0.000193257
0.000101416
-0.000149941
0.000290137
-0.000170103
-3.81464e-05
0.000210479
-1.81721e-05
0.000263201
-0.000292475
0.000309882
0.000110506
9.84421e-05
0.000261325
-0.000261325
0.000309921
-2.15281e-05
-0.000287488
5.32002e-07
0.000248949
0.000254857
1.65761e-05
0.000309362
-0.000276151
-3.32693e-05
-2.26336e-05
0.000266577
-0.000243943
3.00077e-05
-0.000260519
0.000230511
-0.000252139
0.000229506
0.000327469
3.11501e-05
-0.000260598
0.000229447
0.000276809
-3.16961e-05
-6.59383e-06
-0.000293083
0.000300408
0.00027065
3.87862e-05
0.000230245
-0.000266617
3.63721e-05
0.000199876
-0.000201252
-0.000258301
0.000238533
1.97681e-05
0.000169762
-0.000257245
8.74835e-05
-0.000192613
0.000163241
-0.000249145
8.59043e-05
-0.000266169
0.000224813
4.13562e-05
0.000253073
-2.78797e-05
-0.000225194
0.000173933
4.24681e-05
-0.000234837
-2.29601e-05
0.000257797
-0.000236377
-2.28761e-05
0.000259253
-1.94265e-05
0.000255969
-0.000236542
-0.000259345
0.000239919
-3.22367e-05
0.000172822
-0.000235929
-2.24001e-05
0.000258329
-0.00025484
0.000229192
2.56481e-05
2.94001e-06
0.000211289
-0.000214229
-0.000267031
3.79849e-05
0.000229046
0.000270677
4.48002e-06
4.2045e-05
0.000163329
-0.000204197
-3.31198e-05
0.000249928
-2.10364e-05
0.000218597
9.73004e-05
0.0002482
-0.000216952
0.000277686
-0.000279202
0.000277214
-0.000282555
-1.84997e-05
0.000258601
-0.000240101
-0.000261644
0.000243145
3.0427e-05
-0.000201375
-2.97909e-05
-0.000205326
0.000235684
0.000314341
-0.00028741
-2.74336e-05
0.000261297
-3.11081e-05
-0.000230189
3.28739e-05
-0.000262362
0.000229488
-0.000229853
0.000259645
-2.97921e-05
0.00032565
-1.76518e-05
0.000157165
-0.000223771
0.000256929
-0.000109956
-0.000285873
0.000287083
0.000241977
-6.41202e-06
-0.000235565
0.000228537
-0.000179046
-3.82959e-05
0.000213556
2.86467e-05
-0.000210971
-0.000239989
0.000260317
-2.03281e-05
-0.000103694
0.000191527
-8.57777e-05
3.08546e-05
-0.000198476
0.000240169
-0.000263424
2.32552e-05
-0.000115584
0.000258861
-0.000243993
0.000265721
-2.17281e-05
-0.000238953
0.000232541
0.000258626
-0.000245105
-1.35213e-05
0.000264349
-2.46681e-05
-0.000246317
-0.000274495
-1.05904e-05
0.000298415
-5.41436e-05
-9.58785e-06
0.000289481
-0.00027982
-0.000167304
0.00020946
0.000228628
1.77234e-05
-0.000247004
0.000328668
-0.000328798
0.000260955
-0.000245018
-1.59377e-05
-0.000301362
-6.46266e-07
0.000304554
9.75797e-06
3.71663e-05
0.00016581
-0.000204949
0.000212907
-3.42364e-05
-0.000178207
0.000278054
-0.000255789
-2.22648e-05
-0.00020439
3.08536e-05
3.15421e-05
-0.000261891
0.000230348
0.000285986
-0.000292308
2.44721e-05
-0.000259617
-0.000257965
1.87881e-05
0.000266057
-1.64361e-05
0.000151173
-0.000267625
0.000116452
0.000299008
-4.33571e-06
0.000238617
-7.53763e-05
2.12521e-05
0.000177045
-0.000198297
-0.000183877
0.000205129
-0.000236275
0.000257219
-2.09441e-05
0.000261462
-3.31689e-05
-0.000228293
-0.000197009
-5.21362e-05
0.000251581
-1.48401e-06
8.92531e-06
-0.000265136
0.000256243
-0.000342128
0.00023589
0.000106245
0.000266371
-0.000236811
-2.95597e-05
0.00030691
-0.000314482
7.72454e-06
-2.57041e-05
-0.000229097
0.000254801
0.000261493
-7.64403e-06
1.02731e-05
-0.000209539
0.000262411
-3.19033e-05
-0.000230508
-6.90483e-05
-0.000260653
-0.000194685
0.000248025
-5.33402e-05
-0.000266533
0.000249985
1.65481e-05
-0.000317723
1.66264e-05
-1.70989e-05
0.000296497
-0.000279371
-0.000276221
1.65481e-05
0.000249537
-0.000165734
6.42485e-05
0.000273653
1.4857e-05
-0.000288024
-0.000315998
0.000307952
8.23787e-06
3.46641e-05
-0.000263649
0.000228985
-1.74435e-05
0.000281588
-0.000315383
1.63823e-05
-0.000176541
-7.42283e-05
-0.000234011
0.000205253
-2.16721e-05
-0.000216469
0.000238141
-0.000314959
0.000296083
1.89037e-05
-0.00013322
0.000274617
-0.000141607
-8.33623e-06
3.31521e-05
-0.000263453
0.000230301
-0.000195391
2.40575e-05
0.000171786
0.000221538
0.00028099
-0.000281626
1.92951e-07
-0.000236993
-2.20921e-05
0.000224813
-0.000202721
0.000139273
0.000143753
-0.000278517
0.000200995
-5.62211e-05
0.00030836
-1.06678e-05
0.000209353
-0.00026862
2.92853e-05
0.00022306
-0.000252345
-0.000321275
0.000138459
0.000296588
2.92511e-05
1.9545e-05
-0.000224355
-2.77845e-05
-0.000136665
-0.000132711
-0.000326723
0.000113508
0.000242873
2.56201e-05
0.000218765
-0.000224869
1.09017e-05
-0.000288068
0.000276388
-0.000242531
0.000270056
-2.71753e-05
0.00028125
-0.000281624
0.000286773
-7.75696e-05
-8.86203e-06
0.000290321
-1.87881e-05
0.000247101
-0.000228313
0.000281598
-0.000290358
-5.70377e-06
-0.000283781
0.000289716
0.000282178
-0.000269379
0.000284549
0.000226314
2.67597e-05
-0.000312247
0.000317809
-7.36851e-06
0.000250364
-2.14077e-05
0.000226188
2.42928e-05
-0.000268913
0.000246057
-2.05381e-05
-0.000259401
3.02849e-05
0.000229116
0.000178305
7.64963e-05
9.79627e-06
0.000280657
-0.00028976
-0.000238141
-2.88401e-05
0.000266981
2.51441e-05
-0.000263285
0.000284117
-0.000162317
-0.000232177
0.000261129
-2.89521e-05
-0.000234697
0.000260709
-2.60121e-05
1.40593e-06
0.000278877
2.45001e-05
-0.000259197
2.38001e-05
-0.000255977
0.0002743
-0.000242878
-3.13797e-05
0.000317964
-9.98575e-06
-0.000306807
-2.58252e-06
-0.000255753
1.1816e-05
0.000243937
-1.69102e-05
-0.000261185
0.000228065
-0.000245337
0.000270145
-2.48081e-05
-0.000263229
1.49801e-05
-2.35871e-05
0.000286032
-0.000262376
2.13641e-05
-0.000266701
-0.000241666
-2.13149e-05
3.26147e-05
-9.0432e-05
0.000260194
0.000281069
-0.00028652
5.05122e-05
0.000237693
0.000282122
-0.000281773
-0.000243181
-2.39401e-05
0.000267121
-0.000260894
7.34723e-06
-0.000295755
1.95875e-05
0.000276463
-0.000268717
2.55361e-05
-8.36934e-06
0.000290345
-0.000268326
0.000243549
2.47772e-05
-0.000232513
0.000210841
0.000279708
-0.000288111
-6.16002e-07
0.000260289
-0.000259673
-0.000301863
-1.60514e-05
-0.000264573
2.35481e-05
-0.00024417
-2.41556e-05
-3.43281e-05
-0.000298287
0.000294287
0.000286674
-0.000158327
0.000295564
-0.000289391
2.30153e-05
4.95304e-06
0.000262329
-0.000255209
-7.17471e-06
0.000307527
-2.02313e-05
-0.00028731
5.97941e-05
-0.000246765
-2.19521e-05
-0.000356478
0.000241861
0.000285665
-0.000281706
2.33801e-05
-0.000190694
-1.60729e-05
-0.000306246
2.5611e-05
0.000280585
-0.000197262
0.000310965
-0.000113862
0.000259841
-0.000238533
-2.13081e-05
-0.000291382
2.94001e-05
0.000222097
-0.000251497
-0.000151499
0.000136448
-0.000167282
0.000251441
-0.000238029
-1.34121e-05
-0.000263873
3.40201e-05
-2.23161e-05
-0.000269837
0.000251469
0.000230427
3.12901e-05
-4.49707e-05
0.00019936
0.000232619
-0.000260499
-1.72628e-05
-3.29158e-06
0.000245563
-0.000242173
-0.000292995
-0.000237049
0.000265189
-2.81401e-05
0.000230096
3.22225e-05
-0.000268521
2.55921e-05
-0.000239905
-2.86161e-05
0.000228954
-0.000260706
-0.000282476
4.73202e-05
-0.000242005
0.000294571
-0.000284074
-0.000288667
1.30362e-05
0.000275839
-4.85357e-06
0.000218806
0.000228551
-0.00026107
0.000296885
-0.0001309
-0.000165985
0.00024115
-0.000261789
0.0002699
-0.000226213
-1.76681e-05
-0.0001652
0.00030732
-0.000142714
2.49649e-05
0.000222662
-0.000247627
-0.000194278
0.000192886
-0.000283839
0.000282358
6.96632e-06
-0.00029098
-0.000302485
0.000146693
0.000155793
0.000259995
-0.000239359
-2.06361e-05
-0.000215741
0.000193649
0.000261827
4.31001e-07
0.000257293
0.000232526
2.16797e-05
-0.000295919
-6.21085e-05
1.02794e-05
0.000233346
-0.000250854
1.78517e-05
-0.000230917
-2.37161e-05
0.000254633
-0.000242295
0.000263191
-2.08965e-05
8.25167e-05
0.00013416
2.01411e-05
-0.000306018
0.000285821
0.000256565
-1.80041e-05
-0.000238561
0.000243881
-0.000254017
1.0136e-05
-0.000226745
0.000207957
0.000223131
-0.000258923
-0.000244693
4.76842e-05
1.5936e-05
-0.000137731
-0.0002188
1.57921e-05
0.000245701
0.000280601
0.000293491
0.000305786
1.72635e-06
0.000249817
-0.000220417
2.51749e-05
0.000225009
-0.000250184
-0.000243178
0.000268865
-2.56873e-05
2.28201e-05
-0.000262725
-0.000116209
0.000295763
9.1015e-06
2.08181e-05
0.000261675
-0.000235103
-2.65721e-05
1.31971e-05
-0.000303638
0.000290694
0.000321772
-3.09402e-05
-0.00029084
0.000249733
1.63241e-05
0.000305918
-0.00029289
-0.000230048
-0.000112141
9.63204e-06
0.000250657
-4.9129e-05
-0.00020239
0.000251519
2.20333e-05
0.000246832
-0.000241686
-2.29629e-05
0.000260737
-2.24001e-05
0.000288045
-0.000268023
2.63369e-05
2.68241e-05
-0.000257965
0.000210617
-0.000207677
2.58161e-05
-0.000262865
0.000280329
0.000121744
-0.000256173
0.000134429
1.93922e-05
3.82878e-05
0.000162862
-0.00019934
-0.000239485
-2.85377e-05
3.95286e-05
0.000160451
-0.000201878
-0.000246691
0.000271066
-2.43747e-05
0.000209866
-0.000248826
1.98857e-05
1.73833e-05
-0.000174451
-3.08723e-05
0.000226695
-0.000257414
-2.88401e-05
0.000244245
-0.000215405
-2.16161e-05
0.000242985
-0.000221369
0.000201657
-0.000250786
-0.000273667
-0.000232905
-2.55081e-05
0.000258413
0.000241234
2.98318e-05
-0.0002098
-2.42106e-05
0.000234675
-2.18821e-05
-0.000224967
-0.000239345
6.28042e-05
0.000259004
-0.000229718
4.75106e-05
-0.000249901
-3.43393e-05
0.000257694
-0.000223354
0.000205675
-0.000240014
0.000261689
-1.1956e-05
-6.06763e-05
-0.000229573
-0.00022577
-1.72988e-05
0.00024274
0.000247109
5.3175e-05
0.000212448
-0.000265623
-0.000261095
0.000177353
-0.000231757
5.44042e-05
6.47311e-05
0.000137976
0.000259457
-0.000240915
-2.47224e-05
-0.000265385
0.000227165
3.82201e-05
-2.87813e-05
-0.000222158
0.00025094
-0.000284754
0.000264161
0.000234501
3.61761e-05
2.18821e-05
0.000234087
-0.000307217
0.000151089
0.000156129
0.000162223
-5.00675e-05
0.000254045
-0.000115192
2.56901e-05
0.000217446
-0.000243136
-0.000286322
0.000287454
9.36181e-06
0.000257377
-0.000245953
0.000208937
3.70161e-05
0.000254832
0.000245446
-1.95837e-05
-0.000246815
-2.02161e-05
-0.000263019
2.0724e-05
-0.000269215
2.24001e-05
2.79601e-05
0.000220024
-0.000247984
0.000242481
-0.000274597
1.32721e-05
0.000247755
-1.39475e-05
1.26526e-05
-0.000249359
-0.000328326
0.000123936
-0.000233135
-2.62109e-05
-0.000252113
0.000252113
0.000259782
-0.000144217
-1.83774e-05
-0.000278659
0.000297332
0.000273115
0.000258749
-0.000135913
0.000224113
2.39205e-05
0.00023468
7.8305e-05
-0.000341037
3.78786e-05
0.000258962
1.76363e-05
-0.000248843
-3.00917e-05
0.000207453
-3.01001e-05
0.000259701
2.95429e-05
0.000218353
-0.000247896
-3.05014e-05
-4.09782e-05
-0.000217818
0.000258797
-0.000233423
-2.14173e-05
3.72605e-05
-0.000195789
0.000159774
-3.30877e-05
0.000221671
-0.000255943
-0.000282191
-8.46201e-06
0.000290776
-0.000187628
0.000162365
0.000166349
8.16763e-05
1.27802e-05
-0.000294764
0.000235075
2.59446e-05
-0.000261019
-0.000197744
-1.58458e-06
0.000232743
-0.000264287
3.15449e-05
-8.42803e-06
-0.000217029
0.000225457
-0.000158648
0.000195879
-0.000249985
-3.46025e-05
0.000256274
0.000218076
-0.000252679
-0.000246289
0.000272245
-2.59561e-05
0.000253547
2.78321e-05
-0.000232062
-2.95821e-05
-0.00029833
0.000316503
-1.82332e-05
2.34046e-05
0.000212462
-0.000250254
-0.000267233
2.09441e-05
-2.12801e-05
-0.000245953
-3.61481e-05
0.00024861
-0.000289836
-1.36323e-05
0.00022082
-0.000256968
0.000247895
-0.000251597
1.84281e-06
2.80002e-06
0.000181413
-0.000184213
0.000255294
0.000234529
2.67681e-05
-2.62361e-05
0.000245001
-0.000218765
3.36001e-05
0.000216609
-0.000250209
0.000244861
2.73841e-05
0.000306545
-0.000143949
-0.000162597
1.54078e-05
0.000240409
-0.000255984
0.000271013
-0.000113568
0.000225569
-0.000256677
-0.00024124
0.00010451
-0.000265469
7.16803e-06
-0.000241635
-2.75801e-05
-0.000241361
-2.48081e-05
0.000309944
-2.73278e-05
-7.67483e-05
0.000243097
-1.1452e-05
-0.000215601
0.000224281
-8.68003e-06
0.000255193
-7.68883e-05
3.4249e-05
-0.000195871
0.000163124
-0.000265245
-1.40001e-07
-4.14962e-05
3.94182e-05
0.000157863
-0.000194884
0.000196935
-0.000160981
0.000257041
-7.05603e-06
0.000251151
-0.000218277
-1.82397e-05
-2.1128e-05
0.000273844
-9.32913e-05
-0.000176557
-1.42801e-05
-0.000191913
0.000206193
0.000258665
-1.53553e-05
-0.00024331
1.98101e-05
0.000238855
-0.000280088
-8.00615e-06
3.71571e-05
-0.000195501
0.000155404
1.36921e-05
0.000247997
-0.000163774
0.000196053
-1.95189e-05
0.000248711
3.29001e-05
0.000183849
-0.000219823
-4.17202e-06
-2.49389e-05
0.000265108
-0.000231955
-3.14693e-05
0.000296943
-0.000281467
-1.54565e-05
1.63717e-05
-0.000237659
0.000221288
-0.00010514
0.000226885
1.92326e-05
-0.000305126
0.000285745
2.52001e-05
-2.79441e-05
2.69165e-05
0.000308708
-0.000289503
0.000238891
1.97345e-05
2.15601e-06
0.000231617
-0.000233773
-0.000310504
2.56034e-05
0.000284691
-0.000162177
-0.000144145
0.000209178
-0.000250156
-0.000160777
0.000241924
1.90317e-05
0.000255808
-4.13534e-05
0.000250531
0.000214498
-0.000255851
0.000318317
-0.000318861
-1.07688e-05
0.000286516
-0.000276132
-0.000302944
1.95668e-05
0.000283525
4.20842e-05
-0.000286413
-3.87537e-05
0.000252483
2.62921e-05
-2.21789e-05
0.000307517
-0.000285321
2.43321e-05
3.96425e-05
0.000163471
-0.000202202
0.000249294
-0.000219751
2.83277e-05
-0.000261633
4.36802e-06
-2.00215e-05
0.000306734
-0.000286718
-0.000250987
-0.000266673
3.07441e-05
0.000252141
-0.000236741
-1.54001e-05
1.2264e-05
0.000239877
-0.000275458
-1.28251e-05
0.000255697
-6.66202e-06
0.00032125
-1.20159e-05
0.000298103
-0.000286659
-4.90826e-05
0.000247437
-0.000235621
0.000257601
-1.99361e-05
0.000131366
8.51846e-05
-0.000218322
0.000222259
3.03493e-05
0.000226759
-0.000258662
3.71393e-05
0.000270877
-0.000288938
1.68291e-05
0.000251273
-0.000239093
-1.31321e-05
0.000252225
-2.91201e-05
-0.000257265
2.56481e-05
0.000231617
-0.000228005
-2.92601e-05
0.000259765
-0.000233571
-2.61941e-05
0.000258721
-0.000266542
2.66074e-06
0.000290375
1.27971e-06
-0.000291109
0.000248927
-0.000231538
-1.85921e-05
0.000308864
-0.000300848
-7.98751e-06
0.000258113
-0.000106523
-0.000266897
2.56761e-05
0.000241221
-3.48881e-05
-0.000232009
-0.000266393
2.51161e-05
0.000241277
-1.21985e-05
-0.00026819
0.000280012
-3.45241e-05
-0.000231869
-0.000261617
1.91545e-05
-0.000266281
2.43881e-05
0.000241893
-0.000284074
-2.17913e-05
-0.00030627
2.76606e-05
0.000278683
-3.34041e-05
-0.000232877
-0.000163213
-0.000258133
2.94001e-05
0.000228733
0.000309036
-0.000307263
-0.000195805
0.000209049
-3.29281e-05
-0.000225205
0.000197628
-0.000279693
8.18119e-05
0.000283596
2.22803e-05
-0.000301953
1.76961e-05
0.000285469
-0.000280551
-4.87332e-06
-0.000257125
0.000231617
2.55081e-05
0.000173049
2.71688e-05
-0.000189573
-0.000266953
2.81681e-05
0.000238785
-0.000227361
-2.97641e-05
-3.67361e-05
-0.000230217
0.000276712
0.000297369
1.9095e-05
-0.000276374
-3.17037e-05
0.000308178
-0.000258679
-1.12099e-05
0.000297546
-0.000286495
1.50061e-05
-0.00030194
0.000286967
-0.000230609
-0.000307419
0.000287438
0.000263005
-2.55544e-05
-0.000280673
1.36081e-05
0.000168498
0.000230207
1.87922e-05
-0.000249146
-0.000199816
0.000162986
0.000236738
1.31517e-05
-0.00024989
-0.00025833
2.66093e-05
0.000231721
-1.09228e-05
0.000247661
5.74002e-06
0.000246877
-3.19817e-05
-0.000226348
0.000299493
-0.000285742
-1.38292e-05
0.000228024
-0.000226666
0.000289658
0.000237685
1.98521e-05
-0.000257537
-1.24236e-05
0.000250108
0.000246636
1.50389e-05
-0.000305472
1.53879e-05
0.00024448
2.18905e-05
3.327e-05
-0.000209818
-0.000287545
-1.77745e-05
-0.000182869
0.000295177
-0.000152277
0.000192585
-3.34256e-05
3.06717e-05
-0.000200354
0.000166105
-0.000167847
0.000259149
-0.000239236
-1.99137e-05
0.000260217
-0.000274036
-0.000242076
0.000231498
-2.18769e-05
0.000301159
-0.000279289
0.00030806
-0.000293044
0.000242117
1.77241e-05
-0.000224975
0.00024443
-1.94545e-05
1.61001e-05
-0.000241075
-7.00003e-06
0.000260989
-0.000297168
4.85741e-06
0.000292272
-0.000174497
0.000160217
-1.74105e-05
-6.26094e-06
-0.000290912
-1.67888e-05
-0.000285122
4.28402e-06
-0.000299354
0.000134967
-0.000257448
2.37027e-05
0.000233673
0.000238197
1.32441e-05
-3.08076e-05
-0.000226634
-3.30961e-05
-0.000291763
2.08343e-05
-0.000226701
0.000206391
0.000254969
-0.000233465
-2.15041e-05
-0.000198634
0.000219165
-0.00018646
-7.44761e-06
0.000201974
0.000138668
0.000141927
4.01546e-06
0.000271532
0.000279913
-0.000305439
3.34e-06
0.000243514
-1.98453e-05
0.000298726
-0.000278934
-0.000302225
0.000287499
1.47861e-05
-0.000258301
0.000230077
2.82241e-05
-2.64041e-05
-0.000231897
0.000302623
-0.00030259
0.000267884
-2.00011e-05
0.000304627
-0.00028469
0.000286136
-5.29996e-07
-0.000256873
0.000256873
-0.000268128
0.000295856
-0.000152329
-6.96591e-05
-6.88224e-06
0.000295559
-0.000288746
-0.000297408
0.000290393
0.000292347
-0.000279159
0.000291944
-0.000306946
1.47362e-05
3.50242e-05
-0.00023954
0.000217059
2.19657e-05
-1.45475e-05
-0.000248787
0.000231156
-1.42982e-05
0.000297762
-0.000284087
0.000263481
-1.96001e-05
0.000254224
-0.000235464
-1.87601e-05
-3.1011e-05
-0.000273675
0.000304703
1.44043e-05
-0.000297257
0.000282585
-1.45881e-05
0.000233465
-0.000218877
0.000207314
-0.000294949
0.000282877
-1.92134e-05
0.000304664
-0.000285451
0.00025102
-2.69063e-05
0.000297374
-0.000270439
-0.000295773
0.000268886
1.07156e-05
0.000244749
-0.000255465
0.000305215
-0.000312045
6.80659e-06
1.80907e-05
1.45409e-05
0.000285918
-0.000301908
6.29145e-06
0.000284178
2.34132e-06
-0.000318184
-0.000290352
0.000304798
-0.000242481
0.000243657
8.45603e-06
-0.0002264
0.000242772
-0.000293509
0.000274233
0.000284288
-0.000150446
-8.24305e-05
0.000294273
1.44421e-05
3.13833e-05
-0.000194156
0.000167578
-0.000274656
0.000257293
-0.000219535
0.00024982
0.000243411
1.92865e-05
-0.000262697
0.000236019
2.31309e-05
-0.000301299
0.000282696
0.000312223
-1.7921e-05
0.000237945
-0.000257069
1.91241e-05
-0.000222494
0.000247459
0.000294242
1.80336e-05
-0.000163513
-1.44641e-05
0.000298346
-0.000283496
-0.000142992
-0.000266415
0.000159993
0.000106423
-0.000309095
0.000295377
1.3668e-05
-0.000258699
0.000241826
1.68729e-05
-0.000158739
0.0001619
-0.000306399
0.00028851
1.7815e-05
-0.000212831
0.000174205
-9.69084e-06
0.000253101
2.0486e-05
1.75063e-05
-0.000304163
0.000286629
-0.00030087
-7.18587e-06
0.000307868
-0.000249229
0.000220109
-0.000201153
-8.52603e-05
-0.000272842
0.000250316
0.000303823
-0.000286314
-0.000193049
1.86831e-05
1.50647e-05
0.000284522
-0.000299602
-8.80603e-05
0.000239233
-0.000303669
1.93527e-05
0.000284239
-0.00020745
-2.8483e-06
-0.000298045
-0.000164814
2.05297e-05
0.000302271
-0.000287293
-1.48565e-05
-0.000174929
-0.000299102
-0.00017608
-2.2681e-05
0.000243528
0.000289549
1.71445e-05
0.000252869
5.74731e-05
-0.000284249
-0.000247213
-0.000271017
-2.33766e-05
-0.000274609
0.000300248
-0.000262649
0.000282763
-0.000159244
-4.10722e-05
0.000203389
0.000197569
1.56521e-05
-0.000213221
-1.24842e-05
-0.000285907
0.000298225
1.83597e-05
1.85114e-05
-0.000305268
0.000286595
0.000253345
-1.71361e-05
-0.000236209
1.89213e-05
-0.000304755
0.000285806
2.03561e-05
0.000232989
0.000216385
-2.46121e-05
-0.000191773
1.58411e-05
0.000282154
-0.000298673
-0.000249637
0.000117611
-0.000303812
1.86586e-05
0.000285145
0.000232241
-5.23745e-05
-0.000296221
1.41925e-05
0.000282258
0.000255837
-2.19801e-05
-0.000233857
-0.000302287
0.000106053
0.000234529
1.70521e-05
-0.000251581
0.000279884
1.69977e-05
0.000304073
-0.000285165
1.79228e-05
-0.000299516
0.000233512
1.84916e-05
-0.000252004
-1.902e-05
-1.42237e-05
0.000298336
-0.000284141
-0.000280241
0.000299767
-0.000278601
0.000292542
-0.000302126
1.23315e-05
0.000249741
-1.62291e-05
1.15794e-05
0.000250041
-1.55121e-05
0.000298568
-0.000283159
3.95922e-05
-0.000238413