/*--------------------------------*- C++ -*----------------------------------*\
  =========                 |
  \\      /  F ield         | OpenFOAM: The Open Source CFD Toolbox
   \\    /   O peration     | Website:  https://openfoam.org
    \\  /    A nd           | Version:  12
     \\/     M anipulation  |
\*---------------------------------------------------------------------------*/
FoamFile
{
    format      ascii;
    class       volVectorField;
    location    "4.36";
    object      U;
}
// * * * * * * * * * * * * * * * * * * * * * * * * * * * * * * * * * * * * * //

dimensions      [0 1 -1 0 0 0 0];

internalField   nonuniform List<vector> 
22702
(
(2 -2.04247e-13 0)
(2 -3.23807e-14 0)
(2.04121 -0.0920571 0)
(2 -1.13452e-09 0)
(1.97636 0.031055 0)
(2 -1.72201e-15 0)
(1.83161 0.229362 0)
(2 -1.5267e-14 0)
(2 -4.09165e-13 0)
(2.14214 -0.263861 0)
(1.83012 0.229109 0)
(1.82823 0.227852 0)
(2 -7.64608e-14 0)
(1.83157 0.228572 0)
(2.0395 -0.0757002 0)
(2 -2.25764e-14 0)
(2 -2.39297e-14 0)
(2 -7.43594e-14 0)
(1.82982 0.229096 0)
(2 7.98253e-14 0)
(1.83147 0.2291 0)
(2 -5.21226e-13 0)
(1.82864 0.22852 0)
(2.1189 -0.270445 0)
(1.8303 0.230108 0)
(2.12302 -0.264031 0)
(2 7.94708e-14 0)
(1.83084 0.22851 0)
(2.12602 -0.268566 0)
(2.11901 -0.270049 0)
(2 7.7726e-15 0)
(1.82564 0.228498 0)
(2 2.79344e-14 0)
(2 4.74092e-14 0)
(2 4.303e-14 0)
(1.84473 0.214666 0)
(1.82952 0.230039 0)
(1.82865 0.22821 0)
(2 1.50671e-14 0)
(2 -2.35014e-14 0)
(2.14752 -0.259791 0)
(2 -2.13353e-14 0)
(1.91589 0.126273 0)
(2 -5.00543e-14 0)
(1.83053 0.228147 0)
(2 -1.1209e-13 0)
(2 -9.93857e-15 0)
(2 -2.49918e-13 0)
(2 -1.97756e-14 0)
(2.10608 -0.26155 0)
(2 -1.34367e-14 0)
(2.10991 -0.265202 0)
(2 6.1292e-14 0)
(1.83033 0.228967 0)
(2 -7.65092e-14 0)
(1.8254 0.229169 0)
(2 4.97493e-14 0)
(2 1.38875e-09 0)
(2 -1.23994e-13 0)
(2 -1.1164e-13 0)
(2.12966 -0.267145 0)
(2 -4.90699e-14 0)
(2 -2.84656e-13 0)
(2.091 -0.256844 0)
(2 9.73605e-14 0)
(2.10071 -0.263894 0)
(2 -3.34181e-13 0)
(2 -8.78675e-14 0)
(2 -1.51295e-13 0)
(2.15629 -0.260654 0)
(2 -7.84223e-14 0)
(1.83081 0.228657 0)
(1.89462 0.152286 0)
(2 1.33643e-09 0)
(1.83081 0.228533 0)
(1.82034 0.236167 0)
(2.12023 -0.266752 0)
(1.82923 0.228611 0)
(2.10466 -0.264123 0)
(2 -3.21011e-13 0)
(1.83097 0.229377 0)
(2.10086 -0.26142 0)
(1.82821 0.228294 0)
(1.83076 0.228668 0)
(2 2.71648e-14 0)
(2 9.35976e-07 0)
(2 -3.83231e-14 0)
(2 -1.16273e-13 0)
(2.02219 -0.0510049 0)
(2.14899 -0.261796 0)
(1.8293 0.228352 0)
(2 1.11309e-14 0)
(2 -7.16194e-11 0)
(2.08839 -0.273534 0)
(2 7.70572e-14 0)
(1.831 0.229611 0)
(2.08308 -0.267142 0)
(2 2.45831e-08 0)
(2 1.35056e-14 0)
(2 -1.03186e-13 0)
(2 -3.04309e-14 0)
(1.9134 0.125899 0)
(1.83074 0.229475 0)
(2.12061 -0.260429 0)
(2 1.21276e-10 0)
(2 -8.94223e-10 0)
(1.95953 0.0620195 0)
(2 9.66563e-09 0)
(2.1006 -0.262012 0)
(2 -2.43022e-13 0)
(1.82705 0.228104 0)
(1.8289 0.228705 0)
(2 4.1198e-09 0)
(2 -3.47768e-14 0)
(2.1121 -0.27418 0)
(2.11034 -0.271928 0)
(2.14497 -0.26371 0)
(2 6.19709e-14 0)
(2 -1.45543e-07 0)
(2 -1.49393e-14 0)
(2 -1.11425e-13 0)
(2 1.15576e-07 0)
(2.02045 -0.0548608 0)
(2 -1.15256e-07 0)
(1.85487 0.20179 0)
(1.98581 0.0261449 0)
(1.83136 0.228952 0)
(2 -4.33825e-13 0)
(1.82964 0.22872 0)
(1.82981 0.229133 0)
(1.83122 0.228428 0)
(1.82939 0.228813 0)
(2 6.54518e-15 0)
(2.15882 -0.259378 0)
(2 -2.59237e-14 0)
(2.07489 -0.270802 0)
(2 -2.08427e-14 0)
(2 -1.26687e-13 0)
(2 -8.57263e-14 0)
(2 -1.9301e-15 0)
(1.82913 0.228902 0)
(2 3.26701e-09 0)
(2 3.72356e-14 0)
(2 -2.12813e-13 0)
(2 -1.04659e-13 0)
(1.82894 0.228951 0)
(2 9.58461e-14 0)
(1.99477 0.0141193 0)
(2 1.03273e-13 0)
(2 -2.39986e-13 0)
(2 -7.04651e-11 0)
(2 2.51709e-14 0)
(2.10617 -0.26062 0)
(2 7.48749e-15 0)
(1.99548 0.00927541 0)
(2 -7.24221e-14 0)
(2.10474 -0.264764 0)
(2 1.15252e-13 0)
(2 -5.282e-14 0)
(2 -7.40674e-14 0)
(1.82887 0.228581 0)
(2 -2.2499e-14 0)
(1.83017 0.229203 0)
(2.11908 -0.276352 0)
(2.13318 -0.259589 0)
(1.83095 0.228764 0)
(1.83135 0.229056 0)
(2 9.95482e-14 0)
(1.96915 0.0462128 0)
(1.90311 0.139725 0)
(2 -1.73828e-13 0)
(1.83222 0.229434 0)
(2.10462 -0.264667 0)
(1.84422 0.215502 0)
(2 8.32132e-14 0)
(2 2.11463e-14 0)
(2 3.40134e-14 0)
(2 8.59391e-14 0)
(1.83189 0.22888 0)
(1.86818 0.190158 0)
(2 9.71976e-14 0)
(1.82997 0.228712 0)
(2.06344 -0.249319 0)
(1.8287 0.229087 0)
(2 -1.30782e-13 0)
(2.08633 -0.261323 0)
(2 2.73056e-14 0)
(2.11066 -0.26672 0)
(2.12737 -0.267858 0)
(2.00009 -0.000132698 0)
(2 -7.83576e-14 0)
(2 4.93494e-14 0)
(1.82969 0.229552 0)
(2 2.36691e-14 0)
(2 -2.01826e-13 0)
(1.83229 0.228917 0)
(2 -2.22428e-13 0)
(1.82644 0.228371 0)
(1.83004 0.228783 0)
(2.11383 -0.267398 0)
(2 8.99564e-14 0)
(2 -2.85578e-13 0)
(2.11753 -0.263251 0)
(1.83078 0.228408 0)
(2 2.39598e-14 0)
(2 1.00342e-14 0)
(2 -6.74546e-14 0)
(1.83092 0.2287 0)
(2 -1.4565e-13 0)
(2.10249 -0.265148 0)
(2 -6.15258e-11 0)
(2 -1.13297e-13 0)
(1.83116 0.228818 0)
(1.8318 0.22895 0)
(1.82673 0.228364 0)
(2 6.46321e-14 0)
(1.99998 2.48499e-05 0)
(2 5.57537e-14 0)
(2 -1.53073e-14 0)
(2 -2.13652e-13 0)
(1.83103 0.228843 0)
(2 -3.93844e-14 0)
(2.07133 -0.253697 0)
(1.82423 0.235209 0)
(1.83116 0.228422 0)
(1.83261 0.228161 0)
(2 1.83232e-07 0)
(2 1.24436e-14 0)
(2 -1.34717e-13 0)
(2.11371 -0.274039 0)
(1.8324 0.229256 0)
(1.92235 0.125969 0)
(2 -5.50422e-15 0)
(1.83122 0.229362 0)
(2.08759 -0.258225 0)
(2.08849 -0.259282 0)
(1.83156 0.229294 0)
(1.83072 0.228496 0)
(2 1.26114e-14 0)
(1.83102 0.22885 0)
(2.12565 -0.271353 0)
(1.85054 0.205422 0)
(2 1.50614e-14 0)
(2 -2.67029e-13 0)
(2 -9.18349e-14 0)
(2 -5.41174e-13 0)
(1.83256 0.22934 0)
(2 -1.16966e-13 0)
(1.89818 0.154856 0)
(1.98489 0.0276168 0)
(2 -3.36396e-13 0)
(2 3.70824e-14 0)
(1.83152 0.228844 0)
(2.07062 -0.268725 0)
(2.08078 -0.163348 0)
(2 -1.91183e-13 0)
(1.83239 0.227883 0)
(2.11814 -0.262331 0)
(1.83187 0.230002 0)
(2 -3.73109e-17 0)
(2 1.02903e-14 0)
(2 1.76315e-14 0)
(2 -7.31782e-14 0)
(2 -1.54262e-14 0)
(2 -2.57249e-14 0)
(2 2.1105e-14 0)
(2.10539 -0.265174 0)
(2.08415 -0.165168 0)
(2.09057 -0.260583 0)
(1.83122 0.228028 0)
(2 -1.834e-13 0)
(2 2.93928e-13 0)
(2 -1.75949e-07 0)
(2 -2.48804e-13 0)
(1.84363 0.20806 0)
(2 -1.65964e-07 0)
(2.1053 -0.264715 0)
(2 8.20881e-14 0)
(2.11545 -0.284729 0)
(2.11496 -0.263608 0)
(1.83175 0.228684 0)
(2.09737 -0.260553 0)
(1.83117 0.22914 0)
(2 3.79842e-14 0)
(2 -1.20098e-13 0)
(2 -7.77522e-14 0)
(2.00078 -0.00152631 0)
(2.08834 -0.257103 0)
(2.12299 -0.273509 0)
(2 -3.06382e-07 0)
(2 -1.3795e-07 0)
(2.11782 -0.286778 0)
(2 2.47194e-09 0)
(1.82931 0.229115 0)
(2.1244 -0.262975 0)
(2 -9.86283e-14 0)
(2 -3.23016e-11 0)
(1.83112 0.229188 0)
(2.12006 -0.276603 0)
(2 -4.62649e-14 0)
(1.83199 0.234044 0)
(2.12531 -0.260127 0)
(1.83143 0.228884 0)
(2 -2.86499e-13 0)
(2.11065 -0.285928 0)
(2.00086 -0.00143135 0)
(2 -4.79799e-14 0)
(2 2.59188e-06 0)
(2 5.5552e-14 0)
(2.10663 -0.258714 0)
(2 -2.48695e-13 0)
(2 -1.79359e-07 0)
(2 -1.5442e-07 0)
(1.99999 1.4452e-05 0)
(1.99368 0.00773714 0)
(1.89538 0.151015 0)
(2 -2.65337e-11 0)
(2.10632 -0.261094 0)
(2 -1.5425e-11 0)
(2 1.68329e-06 0)
(2 -2.5958e-14 0)
(2 5.52386e-14 0)
(2 5.97855e-14 0)
(2 7.28463e-14 0)
(2 -1.13566e-12 0)
(1.83027 0.229055 0)
(2 1.10648e-13 0)
(1.82983 0.228698 0)
(2 1.87042e-14 0)
(2 5.85486e-15 0)
(2 -3.94898e-14 0)
(2.11887 -0.261832 0)
(2 -7.30195e-14 0)
(1.82973 0.229093 0)
(2.07913 -0.25933 0)
(2 -1.5082e-13 0)
(1.85687 0.193109 0)
(2 2.47887e-14 0)
(2 -2.83069e-13 0)
(1.82915 0.228615 0)
(2 4.51489e-14 0)
(2 -9.42802e-09 0)
(2 8.72762e-14 0)
(1.82907 0.22744 0)
(2 4.78297e-10 0)
(2 4.78771e-14 0)
(1.83234 0.224187 0)
(1.82939 0.228888 0)
(2 -4.22756e-14 0)
(1.96163 0.0588048 0)
(2 1.25371e-14 0)
(2 -2.36415e-14 0)
(2.0721 -0.272719 0)
(2 -9.31105e-14 0)
(2 9.74018e-15 0)
(2 1.14863e-13 0)
(2.0864 -0.267268 0)
(2 1.49956e-13 0)
(2 8.54607e-14 0)
(2 -1.56311e-13 0)
(2 -1.65307e-13 0)
(2.10742 -0.267584 0)
(2 5.51267e-14 0)
(2 -1.20116e-13 0)
(2 -3.18279e-14 0)
(2 2.25672e-14 0)
(2 -1.52509e-13 0)
(2.12223 -0.266238 0)
(1.99998 3.63314e-05 0)
(1.83038 0.229153 0)
(2 4.8589e-14 0)
(2.00001 -4.15792e-05 0)
(1.83113 0.228975 0)
(1.83092 0.229036 0)
(2 -1.09384e-13 0)
(2 -1.5043e-13 0)
(2.10235 -0.275019 0)
(2.05817 -0.121959 0)
(1.82887 0.228755 0)
(2 -7.64702e-14 0)
(2 -8.94882e-14 0)
(2 7.10073e-14 0)
(1.83146 0.228831 0)
(2.15717 -0.260671 0)
(2 1.1855e-13 0)
(1.83023 0.228928 0)
(2 6.28288e-14 0)
(2 4.36308e-14 0)
(2.08784 -0.224001 0)
(2.1016 -0.217119 0)
(2 -1.15254e-13 0)
(2.10828 -0.257491 0)
(2.10891 -0.265816 0)
(2 1.3406e-13 0)
(2 2.55835e-14 0)
(2 -9.89121e-14 0)
(2 7.97188e-14 0)
(2 -9.09206e-11 0)
(2 9.95916e-14 0)
(2 7.58347e-14 0)
(1.83262 0.229032 0)
(1.95791 0.0650871 0)
(1.83633 0.232527 0)
(2.12352 -0.263832 0)
(2.03013 -0.0542426 0)
(1.83027 0.228862 0)
(2 -7.01668e-13 0)
(1.82923 0.228671 0)
(1.82795 0.228682 0)
(2.10243 -0.269741 0)
(2.07523 -0.15715 0)
(2 5.62691e-13 0)
(2.10296 -0.264723 0)
(2 -6.83118e-14 0)
(1.82248 0.233361 0)
(2 -1.58955e-13 0)
(2 1.08765e-13 0)
(2 -7.79061e-14 0)
(2 2.78521e-14 0)
(1.831 0.22874 0)
(2 -3.53302e-14 0)
(2 -9.23911e-14 0)
(2 -2.69458e-14 0)
(2 1.52915e-09 0)
(2 -4.21673e-14 0)
(2 -2.13339e-13 0)
(2 -2.26504e-13 0)
(1.93752 0.0895811 0)
(1.82832 0.228457 0)
(2 4.62042e-14 0)
(1.83141 0.228303 0)
(2 6.28143e-14 0)
(2 -2.49314e-13 0)
(2.10722 -0.26288 0)
(2 2.70991e-14 0)
(2 -1.15246e-13 0)
(2 -3.69912e-13 0)
(2 -1.89679e-13 0)
(1.83098 0.228677 0)
(1.87214 0.179931 0)
(2 -2.0451e-13 0)
(2 -2.66844e-13 0)
(2.1026 -0.26245 0)
(1.83081 0.228479 0)
(1.83163 0.22903 0)
(2 1.05843e-13 0)
(1.83117 0.228926 0)
(1.83213 0.22857 0)
(1.83179 0.228883 0)
(2 -2.23863e-14 0)
(2.05876 -0.116983 0)
(2 -2.31043e-13 0)
(1.83228 0.229022 0)
(2.00171 -0.00527605 0)
(1.83165 0.228731 0)
(2 5.46649e-14 0)
(2.09467 -0.265415 0)
(2.00034 -0.00063762 0)
(1.83163 0.229438 0)
(2 1.34834e-14 0)
(2 3.45112e-14 0)
(2 -6.41029e-11 0)
(2 -2.13497e-11 0)
(2.10631 -0.261996 0)
(1.8325 0.229084 0)
(1.84746 0.212185 0)
(2 -1.9724e-14 0)
(1.83044 0.229775 0)
(1.8317 0.228898 0)
(1.82987 0.229374 0)
(2 8.22481e-14 0)
(1.91836 0.128502 0)
(1.83285 0.229687 0)
(2 -1.31689e-13 0)
(2 6.00419e-16 0)
(1.88253 0.169737 0)
(1.97673 0.0389076 0)
(1.83115 0.228715 0)
(2.01919 -0.0475946 0)
(1.83157 0.228933 0)
(2 -1.20816e-15 0)
(1.83178 0.229019 0)
(1.83168 0.228336 0)
(1.83185 0.229073 0)
(1.83099 0.228407 0)
(2 9.23418e-14 0)
(1.84409 0.213027 0)
(2.02932 -0.0543872 0)
(2.03967 -0.0796811 0)
(2 -5.94313e-14 0)
(2 -3.9085e-07 0)
(2 8.96513e-14 0)
(2 -6.10201e-14 0)
(1.82852 0.232099 0)
(2 4.58622e-14 0)
(2 3.34709e-14 0)
(2 5.17131e-14 0)
(2 5.85307e-14 0)
(2 -6.47998e-14 0)
(1.8301 0.229191 0)
(2 -1.34903e-14 0)
(2 5.9934e-14 0)
(2.00158 -0.00280493 0)
(1.83193 0.229022 0)
(1.86716 0.190586 0)
(2 -1.54723e-13 0)
(1.85723 0.195511 0)
(1.99998 2.45047e-05 0)
(2 -1.76411e-13 0)
(2 -2.99173e-13 0)
(1.83078 0.228808 0)
(2 -1.42334e-14 0)
(2.00148 -0.0015003 0)
(1.9985 0.00386907 0)
(2 -2.68688e-14 0)
(1.83206 0.228964 0)
(2 2.86056e-14 0)
(1.83205 0.229892 0)
(2 -4.83488e-14 0)
(2 7.58756e-14 0)
(1.87597 0.1763 0)
(2 -3.56613e-14 0)
(1.83143 0.229068 0)
(1.99999 1.31063e-05 0)
(2 -1.50383e-13 0)
(1.83098 0.228845 0)
(2 -4.20533e-14 0)
(1.83128 0.228565 0)
(2 -1.40295e-13 0)
(2 2.96747e-06 0)
(2 -4.26247e-14 0)
(1.83257 0.229225 0)
(2 -6.13779e-14 0)
(1.82931 0.230404 0)
(2 4.77043e-06 0)
(1.8321 0.229213 0)
(1.82991 0.228816 0)
(1.8316 0.228963 0)
(1.83246 0.229059 0)
(2 -1.82184e-13 0)
(1.83112 0.228765 0)
(1.83795 0.22302 0)
(2 -1.23612e-13 0)
(2.119 -0.266675 0)
(1.84096 0.217779 0)
(1.87912 0.17374 0)
(2 -2.64767e-13 0)
(1.8316 0.228943 0)
(2 -7.69474e-15 0)
(2.06878 -0.271695 0)
(2.12206 -0.264577 0)
(2 -2.24364e-14 0)
(2 3.73881e-14 0)
(2 8.90033e-15 0)
(2 -2.67893e-13 0)
(2 1.60221e-09 0)
(2.07975 -0.268221 0)
(2 -1.45739e-14 0)
(1.83115 0.228017 0)
(1.95064 0.0727314 0)
(1.83064 0.228634 0)
(2 -3.03116e-14 0)
(2 8.37626e-11 0)
(2 4.4291e-14 0)
(2 1.2355e-13 0)
(2 -5.51503e-08 0)
(1.83126 0.228023 0)
(2 -3.06903e-13 0)
(1.83117 0.229027 0)
(1.90062 0.14353 0)
(2.07391 -0.157716 0)
(2 1.34722e-09 0)
(1.99999 8.60803e-06 0)
(1.95331 0.074478 0)
(1.96169 0.063533 0)
(2 1.32037e-13 0)
(2 -8.15435e-15 0)
(1.93928 0.0945535 0)
(2 1.44743e-13 0)
(2.10711 -0.263267 0)
(1.83191 0.229047 0)
(1.83237 0.229289 0)
(2 -6.72892e-11 0)
(2 -2.59092e-14 0)
(2 -9.37444e-14 0)
(1.82964 0.229009 0)
(2 -1.93871e-13 0)
(1.99999 1.63703e-05 0)
(1.83142 0.23058 0)
(1.83206 0.228812 0)
(2.01218 -0.0349529 0)
(2 1.26501e-13 0)
(2 1.54499e-10 0)
(2.10622 -0.262359 0)
(1.84746 0.211172 0)
(2 -5.24089e-14 0)
(2 6.96127e-14 0)
(2 -1.6018e-14 0)
(2 -2.91818e-11 0)
(2 3.55826e-14 0)
(1.83175 0.228883 0)
(1.8311 0.228902 0)
(2 -2.31501e-13 0)
(1.83151 0.228279 0)
(1.83079 0.230857 0)
(1.83156 0.228909 0)
(2 -5.74669e-14 0)
(2 -1.16431e-14 0)
(2 -6.36528e-11 0)
(2 6.07944e-15 0)
(2.12772 -0.265249 0)
(1.82811 0.228526 0)
(2 -4.66607e-11 0)
(2 -9.20066e-14 0)
(1.84628 0.212297 0)
(1.83213 0.228232 0)
(2 -1.04283e-13 0)
(1.84109 0.217967 0)
(1.82832 0.228412 0)
(2 -5.89935e-14 0)
(2 -2.17236e-07 0)
(2 9.58053e-11 0)
(2 -1.15044e-13 0)
(2 -5.09798e-14 0)
(1.83217 0.229168 0)
(2 -8.01008e-14 0)
(2 1.3619e-15 0)
(2 7.97131e-14 0)
(2 -7.57948e-14 0)
(1.83007 0.233005 0)
(2 -1.45645e-13 0)
(1.83489 0.231397 0)
(2.11571 -0.262601 0)
(2 -1.36494e-13 0)
(2.11488 -0.265285 0)
(2 7.68204e-15 0)
(2 -1.53469e-07 0)
(2 9.96493e-14 0)
(2.00119 -0.00195283 0)
(2.11424 -0.269673 0)
(2.00029 -0.000521556 0)
(2 -1.17077e-14 0)
(2 -7.72261e-14 0)
(2 -1.23116e-07 0)
(1.97541 0.0382603 0)
(2 -2.61596e-14 0)
(2 4.18001e-14 0)
(2.03815 -0.0873969 0)
(2 -2.14126e-07 0)
(2 -1.22428e-13 0)
(2 -1.16409e-13 0)
(2 -2.11036e-07 0)
(2 3.65137e-07 0)
(2 -1.47799e-07 0)
(2 -1.50372e-13 0)
(2 -1.58676e-06 0)
(2.02782 -0.0476015 0)
(2 -4.69527e-07 0)
(2 -4.57633e-08 0)
(2.00095 -0.00139091 0)
(2 -8.14594e-14 0)
(2.11387 -0.262842 0)
(2 -2.88044e-11 0)
(2 -3.88566e-12 0)
(2 -4.04702e-11 0)
(2 4.12962e-14 0)
(1.87498 0.177019 0)
(2 -7.88685e-14 0)
(2 -1.15127e-13 0)
(2 -1.14972e-13 0)
(2 -1.75989e-07 0)
(2.07366 -0.253535 0)
(2 6.2034e-14 0)
(2 1.54339e-09 0)
(1.84101 0.217982 0)
(1.82953 0.228805 0)
(2 -3.23381e-07 0)
(2 -9.76876e-14 0)
(2 -1.06189e-07 0)
(2.039 -0.0817207 0)
(2 4.61211e-14 0)
(2 4.47252e-10 0)
(2 -7.70728e-14 0)
(2 1.42351e-13 0)
(2 -2.64736e-13 0)
(2 -1.17101e-13 0)
(2.01256 -0.027631 0)
(1.99151 0.0102766 0)
(1.83104 0.228858 0)
(2 -6.08314e-14 0)
(2 7.4529e-14 0)
(2 -6.89652e-15 0)
(1.83082 0.22911 0)
(2.02843 -0.0678855 0)
(2 -4.79566e-09 0)
(2 6.8504e-15 0)
(2 -2.02162e-14 0)
(1.82985 0.228091 0)
(1.83095 0.228428 0)
(2 -2.88536e-08 0)
(2 5.44185e-06 0)
(2 3.64175e-09 0)
(2 -2.08308e-13 0)
(2 1.34345e-09 0)
(2 -3.0833e-14 0)
(2 -2.86317e-11 0)
(2 4.09861e-14 0)
(2 -2.48212e-13 0)
(2.11011 -0.267048 0)
(2 1.0509e-14 0)
(2 -1.36457e-11 0)
(1.83009 0.228677 0)
(2.10099 -0.261397 0)
(2 -2.82909e-13 0)
(1.82974 0.22793 0)
(2 5.82067e-11 0)
(2.10667 -0.260311 0)
(2 -1.69932e-14 0)
(2 2.71865e-14 0)
(2.10631 -0.268652 0)
(2 -1.5269e-13 0)
(2 -1.22109e-11 0)
(2 -5.74083e-12 0)
(2 -4.43143e-14 0)
(2 -2.614e-12 0)
(2 -1.04851e-13 0)
(2 5.96638e-15 0)
(1.83469 0.225345 0)
(1.83191 0.228728 0)
(2 2.57459e-13 0)
(2 7.18854e-14 0)
(2 6.61554e-14 0)
(2 2.86911e-13 0)
(1.84501 0.212905 0)
(2 2.80994e-13 0)
(1.94732 0.0780402 0)
(2.1147 -0.260829 0)
(2 -3.30553e-08 0)
(2 1.77085e-13 0)
(2 8.59772e-14 0)
(2 -2.16662e-13 0)
(2 6.7762e-14 0)
(2 -6.98921e-14 0)
(2 8.05574e-14 0)
(1.98632 0.0231556 0)
(2 4.77997e-14 0)
(2 -1.66646e-14 0)
(1.90717 0.120344 0)
(2 1.29963e-14 0)
(2 -1.16081e-13 0)
(2 2.44214e-14 0)
(1.85904 0.195635 0)
(2 -8.38038e-14 0)
(2 -7.72711e-14 0)
(2 -9.85453e-14 0)
(2 -1.31792e-13 0)
(2.11616 -0.26221 0)
(2 2.47196e-12 0)
(2 7.94763e-14 0)
(2.11162 -0.281727 0)
(2.11089 -0.26434 0)
(2 -1.34528e-13 0)
(2 -4.42652e-14 0)
(1.83214 0.229054 0)
(2 -8.58043e-14 0)
(1.96799 -0.00590949 0)
(2 1.22959e-13 0)
(2 1.1933e-13 0)
(2 1.94976e-13 0)
(1.88328 0.168688 0)
(2.1155 -0.273099 0)
(2 -1.65589e-13 0)
(2.12414 -0.276542 0)
(2 -3.59602e-14 0)
(2.06877 -0.158057 0)
(2 -1.7685e-13 0)
(2 1.69579e-13 0)
(2 1.24091e-13 0)
(1.83025 0.229787 0)
(2 -4.31877e-08 0)
(2 -2.24446e-13 0)
(1.8313 0.2287 0)
(2 -2.82095e-14 0)
(2 -2.59379e-11 0)
(2 1.68981e-09 0)
(1.8312 0.228494 0)
(2 2.21733e-10 0)
(2 -1.24658e-13 0)
(1.83179 0.228908 0)
(2 -7.2314e-14 0)
(2 -6.67066e-14 0)
(2.09911 -0.266823 0)
(2 -1.72616e-11 0)
(1.94696 0.082307 0)
(2 -2.80829e-14 0)
(2 -5.28577e-14 0)
(1.82958 0.229022 0)
(1.83038 0.22872 0)
(1.88614 0.164617 0)
(1.84987 0.208028 0)
(2 -5.91746e-14 0)
(2.10135 -0.267549 0)
(2 -4.60733e-14 0)
(2 1.35185e-13 0)
(1.83914 0.220423 0)
(2 3.6944e-14 0)
(2.12562 -0.259956 0)
(2 6.43374e-14 0)
(2 -2.21324e-14 0)
(2 6.54025e-16 0)
(1.83132 0.229201 0)
(2 -3.26301e-14 0)
(2 -5.85984e-14 0)
(2 6.72168e-14 0)
(2 6.90899e-14 0)
(1.89955 0.146201 0)
(2 1.78691e-16 0)
(1.83529 0.220316 0)
(1.83059 0.228577 0)
(2.13108 -0.268408 0)
(2 -2.09074e-13 0)
(2 -1.38324e-13 0)
(2.11607 -0.263491 0)
(2.11575 -0.263508 0)
(2 6.8803e-14 0)
(2 -1.75698e-14 0)
(2 -6.48029e-12 0)
(1.87914 0.173965 0)
(1.87372 0.178106 0)
(2 5.25286e-14 0)
(2 -1.33846e-13 0)
(2 7.24049e-14 0)
(2 6.43195e-15 0)
(2 -6.02876e-15 0)
(2 1.70642e-14 0)
(2 1.0699e-14 0)
(1.9273 0.108724 0)
(1.83124 0.228741 0)
(1.99387 0.00535647 0)
(2 1.07076e-15 0)
(1.83374 0.227052 0)
(2.15916 -0.263241 0)
(2 6.83537e-14 0)
(2 3.29372e-14 0)
(2 1.07501e-13 0)
(1.90741 0.132754 0)
(2 1.11874e-13 0)
(1.96786 0.0533944 0)
(2 -1.59879e-13 0)
(1.8456 0.213159 0)
(1.83221 0.22816 0)
(2 -1.20778e-13 0)
(2.09211 -0.263652 0)
(2 7.43461e-14 0)
(1.82704 0.228932 0)
(2 1.2678e-14 0)
(2 1.80558e-13 0)
(1.83248 0.229336 0)
(1.84131 0.217622 0)
(2 -1.70092e-13 0)
(1.82539 0.229087 0)
(2 1.49477e-14 0)
(2.09635 -0.262151 0)
(2 -2.20033e-14 0)
(2 -4.07708e-14 0)
(2 4.97767e-14 0)
(1.83554 0.228989 0)
(1.83479 0.225164 0)
(1.85254 0.204651 0)
(2 5.80538e-14 0)
(1.82936 0.22997 0)
(1.83178 0.22888 0)
(2 -1.35066e-13 0)
(1.83095 0.229561 0)
(2 -9.87489e-09 0)
(1.83196 0.22819 0)
(2 -9.48404e-14 0)
(2.11922 -0.259727 0)
(2.00684 -0.0241243 0)
(2.12632 -0.261894 0)
(2 -3.19396e-11 0)
(2 -2.35917e-11 0)
(2 -3.53042e-11 0)
(2 -2.00862e-13 0)
(2 -1.54236e-11 0)
(1.83185 0.228889 0)
(2 2.96175e-14 0)
(1.83161 0.228812 0)
(2 -3.81193e-11 0)
(2 -9.21933e-11 0)
(2 -9.76722e-14 0)
(1.83952 0.219935 0)
(2 -4.50092e-14 0)
(2.13039 -0.268919 0)
(1.83179 0.228925 0)
(2 4.20165e-14 0)
(2.12019 -0.266916 0)
(2.10501 -0.252061 0)
(2.12386 -0.259291 0)
(2 1.36579e-14 0)
(1.91449 0.128619 0)
(1.9873 0.0231831 0)
(1.8306 0.229483 0)
(1.83183 0.228867 0)
(2 -2.59721e-13 0)
(2 -3.70757e-07 0)
(2 -7.53218e-08 0)
(2 -3.71102e-14 0)
(1.83146 0.228865 0)
(2 7.47461e-14 0)
(2 -2.87975e-14 0)
(1.83148 0.228871 0)
(1.83174 0.228767 0)
(2 -3.14798e-13 0)
(1.93749 0.0933011 0)
(1.99973 0.000765559 0)
(2 -1.13863e-13 0)
(2.00107 -0.00191277 0)
(1.8293 0.228523 0)
(2.05287 -0.104184 0)
(2 -1.20874e-07 0)
(2.06655 -0.118816 0)
(2.1074 -0.263284 0)
(2.10312 -0.262515 0)
(2.01417 -0.0389431 0)
(1.83043 0.228812 0)
(1.83376 0.226372 0)
(1.96394 0.0527814 0)
(1.83144 0.229013 0)
(1.83144 0.228881 0)
(2 1.86348e-13 0)
(2 1.98956e-13 0)
(1.83222 0.229037 0)
(1.82995 0.229028 0)
(1.83171 0.228923 0)
(1.82806 0.227778 0)
(2 8.43062e-15 0)
(1.8312 0.229019 0)
(2.14001 -0.265878 0)
(1.83213 0.227995 0)
(1.83084 0.228714 0)
(1.82946 0.228793 0)
(1.8329 0.228474 0)
(2.04226 -0.0939443 0)
(2.03649 -0.0759867 0)
(2.02554 -0.0440328 0)
(1.83225 0.229103 0)
(2.01617 -0.0264535 0)
(1.83085 0.228453 0)
(2 -7.1213e-14 0)
(2 -3.74275e-14 0)
(1.83053 0.229769 0)
(1.83116 0.229282 0)
(2 -8.81143e-14 0)
(2.10055 -0.265575 0)
(1.82977 0.228812 0)
(1.83175 0.228756 0)
(2 1.18436e-14 0)
(1.83189 0.228975 0)
(1.83176 0.228973 0)
(2 -1.57595e-13 0)
(1.83148 0.228961 0)
(2.09053 -0.25614 0)
(1.83078 0.228348 0)
(1.83203 0.229305 0)
(1.82902 0.228785 0)
(1.83211 0.226016 0)
(2 -1.43189e-15 0)
(2 1.54842e-13 0)
(2 -1.18889e-07 0)
(1.83199 0.228741 0)
(1.88959 0.159333 0)
(2.11223 -0.252559 0)
(1.83116 0.228522 0)
(2.1189 -0.270332 0)
(1.83212 0.228955 0)
(2 7.31047e-14 0)
(2 8.58238e-14 0)
(2 1.82681e-14 0)
(2 -3.16576e-15 0)
(1.83085 0.228086 0)
(1.83099 0.22868 0)
(2 1.96097e-13 0)
(2 1.89443e-13 0)
(1.83112 0.228795 0)
(2.11497 -0.26915 0)
(1.83065 0.228442 0)
(2.11367 -0.264836 0)
(2 4.13684e-14 0)
(1.83272 0.227746 0)
(2 -1.70764e-13 0)
(2.14121 -0.265792 0)
(1.83079 0.229607 0)
(2.07682 -0.201267 0)
(2 -1.93744e-14 0)
(1.83182 0.228828 0)
(1.83024 0.229865 0)
(1.83185 0.228655 0)
(2 -2.37346e-13 0)
(2 -7.11507e-14 0)
(1.91557 0.117062 0)
(1.83061 0.229595 0)
(2.11182 -0.270769 0)
(1.83193 0.229004 0)
(2 3.51919e-14 0)
(1.83195 0.228357 0)
(2.04177 -0.086029 0)
(1.83206 0.228521 0)
(2.11156 -0.26706 0)
(2 2.14922e-14 0)
(1.8304 0.231308 0)
(2.10903 -0.237035 0)
(1.83063 0.22973 0)
(2.11135 -0.264123 0)
(2 4.68075e-14 0)
(1.83138 0.229194 0)
(2 9.23848e-14 0)
(1.82802 0.22853 0)
(2 -9.20241e-14 0)
(1.9025 0.141204 0)
(1.83754 0.221417 0)
(1.86711 0.188585 0)
(2.10716 -0.282178 0)
(2 -2.59656e-13 0)
(1.83164 0.228904 0)
(2 -7.31548e-14 0)
(1.83137 0.229083 0)
(2 -1.2582e-07 0)
(1.83181 0.22906 0)
(2 -2.38306e-07 0)
(2 -9.01554e-14 0)
(1.83181 0.229697 0)
(2.00063 -0.00909816 0)
(1.83041 0.230243 0)
(2.13203 -0.260883 0)
(1.84047 0.226845 0)
(2 8.84904e-14 0)
(1.87819 0.173207 0)
(2 1.07339e-14 0)
(1.83028 0.229673 0)
(1.83183 0.228959 0)
(1.8305 0.229265 0)
(2 -3.12058e-14 0)
(1.84808 0.209935 0)
(1.83147 0.228674 0)
(1.84345 0.215093 0)
(1.89795 0.148273 0)
(1.83662 0.230033 0)
(2 -2.52024e-14 0)
(1.88717 0.16307 0)
(2 1.15488e-14 0)
(1.83171 0.228704 0)
(2 -3.55654e-14 0)
(1.97566 0.0324289 0)
(2 1.86912e-13 0)
(1.844 0.215771 0)
(2 7.49651e-14 0)
(1.83196 0.228371 0)
(1.83905 0.220556 0)
(1.83949 0.219844 0)
(2 -3.98399e-14 0)
(1.84385 0.222734 0)
(2.12609 -0.267799 0)
(2 2.02122e-14 0)
(2.11295 -0.266186 0)
(2 -4.00213e-14 0)
(2 -5.31623e-14 0)
(2 1.11602e-15 0)
(1.82713 0.22826 0)
(2 1.41479e-13 0)
(1.83173 0.229154 0)
(2 3.84063e-14 0)
(2 -1.43323e-13 0)
(2 -1.95098e-13 0)
(1.83076 0.229354 0)
(1.83643 0.230183 0)
(1.85349 0.208456 0)
(1.83217 0.227881 0)
(1.8319 0.22917 0)
(2.11644 -0.265218 0)
(1.83262 0.233262 0)
(1.82661 0.228555 0)
(2 -3.02594e-14 0)
(1.85345 0.208659 0)
(1.83182 0.22883 0)
(1.83928 0.215906 0)
(2 -1.78584e-13 0)
(1.83138 0.228856 0)
(1.8256 0.228167 0)
(2 6.41718e-14 0)
(1.82843 0.230814 0)
(1.832 0.229736 0)
(1.83076 0.228906 0)
(1.83103 0.229691 0)
(2 -1.68701e-13 0)
(2 6.46736e-14 0)
(2 3.78673e-14 0)
(1.8324 0.228372 0)
(2.11397 -0.267716 0)
(2 1.08973e-14 0)
(1.83167 0.229 0)
(2 -1.10045e-13 0)
(2 -7.44575e-14 0)
(2.12152 -0.263579 0)
(2 -4.90736e-14 0)
(2 1.42298e-14 0)
(1.83152 0.228892 0)
(1.83138 0.229403 0)
(2 -2.00736e-13 0)
(1.83204 0.229011 0)
(1.83017 0.229766 0)
(1.83046 0.228878 0)
(2.00599 -0.0239975 0)
(1.8314 0.228989 0)
(2 -7.40634e-14 0)
(1.83141 0.22899 0)
(1.83164 0.228978 0)
(1.85745 0.193163 0)
(2 8.60536e-14 0)
(2 8.69088e-14 0)
(2 6.77333e-14 0)
(1.83279 0.227078 0)
(1.83131 0.228884 0)
(1.8317 0.228964 0)
(2.01686 -0.0307609 0)
(2 6.85364e-14 0)
(1.83027 0.231904 0)
(1.83129 0.228845 0)
(1.83168 0.228741 0)
(2 -8.40227e-14 0)
(1.83127 0.228972 0)
(1.83117 0.228564 0)
(1.83165 0.228917 0)
(1.82874 0.232487 0)
(2 -3.61692e-14 0)
(1.83217 0.228641 0)
(1.82971 0.231701 0)
(1.85463 0.202492 0)
(1.83025 0.231082 0)
(1.82915 0.231219 0)
(2 -7.48197e-14 0)
(1.83064 0.230604 0)
(1.83333 0.226846 0)
(1.83174 0.228982 0)
(1.83104 0.229014 0)
(1.83069 0.230155 0)
(2.12107 -0.262311 0)
(1.83195 0.22915 0)
(1.83041 0.23142 0)
(2 -1.63134e-13 0)
(1.83172 0.228916 0)
(1.83173 0.228881 0)
(1.83149 0.229143 0)
(1.83188 0.228942 0)
(2 -6.00765e-08 0)
(1.83204 0.228926 0)
(1.83143 0.229029 0)
(2 -1.72748e-07 0)
(1.83174 0.228734 0)
(1.85744 0.200049 0)
(2 2.90731e-14 0)
(2 1.80834e-14 0)
(2 1.98719e-09 0)
(1.83049 0.23055 0)
(1.83199 0.229134 0)
(2 4.05454e-14 0)
(2 -4.73959e-14 0)
(1.90825 0.134235 0)
(2 -9.1628e-15 0)
(1.8311 0.228704 0)
(2 -1.05759e-13 0)
(2 -4.49944e-14 0)
(1.83142 0.228907 0)
(1.83153 0.229353 0)
(1.83104 0.229109 0)
(1.83166 0.228815 0)
(2 7.45728e-15 0)
(2 -9.62431e-14 0)
(2 7.68864e-14 0)
(1.88273 0.170702 0)
(2 1.7255e-13 0)
(1.83155 0.229677 0)
(2 -7.43122e-15 0)
(2 4.33833e-14 0)
(1.8316 0.229085 0)
(1.83199 0.229118 0)
(2 -1.54638e-14 0)
(1.83168 0.228899 0)
(2.12819 -0.272231 0)
(1.83148 0.228944 0)
(1.83218 0.229746 0)
(2.09996 -0.207211 0)
(2 -8.79066e-14 0)
(2.1033 -0.279903 0)
(1.85384 0.204343 0)
(1.8326 0.228009 0)
(1.83093 0.229881 0)
(1.83097 0.230434 0)
(2.11339 -0.264483 0)
(1.83112 0.229108 0)
(1.83086 0.229341 0)
(2.11316 -0.267947 0)
(2.10782 -0.27954 0)
(2 -2.58082e-07 0)
(1.83143 0.228199 0)
(1.83197 0.228799 0)
(2 -1.60509e-13 0)
(2 1.14958e-14 0)
(1.83164 0.229091 0)
(2 -2.17624e-13 0)
(1.82943 0.233443 0)
(2 2.37604e-06 0)
(1.85358 0.203873 0)
(2 5.31469e-14 0)
(1.92211 0.116855 0)
(1.83219 0.228963 0)
(1.83033 0.229876 0)
(1.88107 0.17412 0)
(1.84878 0.202227 0)
(1.82642 0.228045 0)
(1.83116 0.229456 0)
(1.83636 0.226205 0)
(2 -7.91266e-14 0)
(2.14247 -0.261354 0)
(1.83237 0.228317 0)
(1.83229 0.229212 0)
(1.82963 0.231163 0)
(2 6.69366e-06 0)
(2 4.00512e-10 0)
(2 1.45611e-09 0)
(1.82858 0.229757 0)
(2 -6.29937e-14 0)
(1.8322 0.229075 0)
(1.83205 0.228792 0)
(2.0792 -0.171997 0)
(2 1.2036e-13 0)
(1.83144 0.229046 0)
(2.00003 -4.60586e-05 0)
(2 -3.66736e-14 0)
(1.99999 1.84065e-05 0)
(1.99998 2.42029e-05 0)
(1.83212 0.228999 0)
(1.83139 0.228601 0)
(2.00056 -0.000850979 0)
(2 1.20259e-13 0)
(2 -3.99459e-14 0)
(1.83164 0.229167 0)
(1.83062 0.229748 0)
(1.8312 0.229465 0)
(1.83094 0.231845 0)
(1.83211 0.227809 0)
(2.09138 -0.261509 0)
(1.85742 0.197179 0)
(2 6.29687e-14 0)
(1.83283 0.227549 0)
(1.83133 0.228968 0)
(1.83109 0.22868 0)
(1.82678 0.231384 0)
(2 5.02739e-14 0)
(1.83205 0.229039 0)
(1.83598 0.22359 0)
(1.83119 0.229705 0)
(2 -1.57292e-13 0)
(1.83144 0.228945 0)
(1.83104 0.229637 0)
(2.04662 -0.102672 0)
(1.83205 0.22899 0)
(1.83117 0.228758 0)
(2 -7.58861e-14 0)
(1.83198 0.228517 0)
(2.05128 -0.121757 0)
(1.83152 0.228864 0)
(2.05078 -0.100198 0)
(1.83183 0.229084 0)
(2 -1.32109e-07 0)
(1.83194 0.228594 0)
(1.82578 0.231436 0)
(1.83179 0.228909 0)
(1.83188 0.229161 0)
(1.83162 0.228822 0)
(1.83114 0.228357 0)
(1.83157 0.229435 0)
(1.82985 0.229111 0)
(2 -1.86341e-13 0)
(2.0241 -0.0516675 0)
(1.83139 0.22902 0)
(1.83228 0.228955 0)
(2.05075 -0.110901 0)
(1.83176 0.22871 0)
(2.00698 -0.0169268 0)
(1.90445 0.152594 0)
(1.83189 0.228754 0)
(1.83095 0.228776 0)
(1.83161 0.227675 0)
(2 2.8285e-14 0)
(1.83038 0.230144 0)
(1.89922 0.150926 0)
(1.83234 0.228928 0)
(2.02219 -0.0532384 0)
(1.83072 0.230034 0)
(1.82724 0.232351 0)
(2 1.94723e-13 0)
(2.04436 -0.0821351 0)
(2 -6.46575e-09 0)
(1.82831 0.231442 0)
(2 3.91867e-14 0)
(1.88419 0.168727 0)
(2 3.23349e-09 0)
(1.844 0.210465 0)
(2.04913 -0.0855375 0)
(2 -5.42381e-14 0)
(1.83233 0.227119 0)
(1.82507 0.230272 0)
(2 -1.55305e-13 0)
(1.83003 0.228484 0)
(1.83048 0.229699 0)
(1.82415 0.22688 0)
(1.82848 0.228632 0)
(1.83222 0.232702 0)
(2 -4.98035e-14 0)
(1.83135 0.229523 0)
(2 -7.68933e-14 0)
(2 7.97608e-14 0)
(2 3.54893e-14 0)
(2.0369 -0.060347 0)
(1.83037 0.228271 0)
(1.83181 0.229311 0)
(1.83393 0.231157 0)
(1.83173 0.228872 0)
(1.83387 0.227413 0)
(1.8344 0.232062 0)
(1.83154 0.230726 0)
(1.83164 0.229163 0)
(2.03443 -0.0589493 0)
(1.9893 0.0217065 0)
(2 3.50118e-09 0)
(2 1.07207e-13 0)
(1.82446 0.2312 0)
(1.83174 0.229073 0)
(1.83151 0.228975 0)
(1.83168 0.228979 0)
(1.99999 1.6681e-05 0)
(1.91476 0.13575 0)
(2 -1.69254e-07 0)
(1.82909 0.231001 0)
(1.84633 0.220214 0)
(2 -3.19445e-12 0)
(2 -5.3019e-11 0)
(2.10103 -0.190152 0)
(1.83173 0.229008 0)
(2 4.56455e-14 0)
(2 -7.23932e-14 0)
(2.13659 -0.268775 0)
(1.8315 0.228789 0)
(2 2.17487e-14 0)
(1.82879 0.228557 0)
(1.83134 0.229046 0)
(1.82629 0.228422 0)
(1.83802 0.221266 0)
(1.83148 0.228767 0)
(2 -1.56415e-10 0)
(2.10488 -0.276071 0)
(1.96137 0.0648467 0)
(1.83069 0.229664 0)
(1.83187 0.228523 0)
(2 -1.50548e-13 0)
(1.83182 0.228391 0)
(1.83154 0.228913 0)
(1.91283 0.123383 0)
(1.99751 0.00628029 0)
(1.96667 0.0557467 0)
(2 -4.13443e-14 0)
(1.82808 0.228279 0)
(1.83154 0.228659 0)
(2 -1.23756e-07 0)
(2 -2.10259e-10 0)
(2.10994 -0.263886 0)
(2 -2.47356e-10 0)
(2 5.20757e-14 0)
(1.83178 0.228906 0)
(1.83168 0.229012 0)
(1.83209 0.228801 0)
(1.83173 0.229089 0)
(1.83124 0.22906 0)
(1.8289 0.229191 0)
(1.83138 0.229161 0)
(1.83159 0.229904 0)
(1.8318 0.228631 0)
(2 1.34544e-13 0)
(2.00157 -0.00248397 0)
(1.8314 0.228534 0)
(1.83228 0.22853 0)
(2.00105 -0.00182042 0)
(1.83161 0.228963 0)
(1.83159 0.228933 0)
(2.11034 -0.270507 0)
(2.13457 -0.262603 0)
(1.83174 0.229803 0)
(1.82948 0.229747 0)
(2 -2.88074e-14 0)
(2 1.18472e-13 0)
(1.99924 0.00229095 0)
(1.83165 0.228862 0)
(1.83143 0.228178 0)
(1.83151 0.228892 0)
(2 9.78161e-10 0)
(1.83158 0.228901 0)
(2 2.09861e-14 0)
(2.0535 -0.0984617 0)
(1.82925 0.231586 0)
(1.83344 0.229422 0)
(2 -3.19698e-14 0)
(1.92342 0.110944 0)
(1.83169 0.228618 0)
(2 2.80328e-14 0)
(1.82903 0.22672 0)
(2 -1.08926e-10 0)
(1.83209 0.228751 0)
(1.88574 0.158093 0)
(1.83217 0.229364 0)
(2 1.58613e-11 0)
(1.83195 0.229161 0)
(1.82961 0.231553 0)
(2.10926 -0.266763 0)
(1.83167 0.229185 0)
(2 -1.28276e-07 0)
(1.83178 0.229038 0)
(1.83157 0.229075 0)
(2 7.3314e-09 0)
(2.11258 -0.266718 0)
(1.83129 0.22994 0)
(1.87268 0.183069 0)
(2.00091 -0.00139049 0)
(1.83361 0.232785 0)
(1.83171 0.228918 0)
(2 -4.97177e-12 0)
(1.99844 -0.00880877 0)
(1.83046 0.227987 0)
(2.00163 -0.00168755 0)
(1.83142 0.229182 0)
(2 -3.68444e-12 0)
(2 -2.35782e-15 0)
(1.83263 0.227718 0)
(2 2.73472e-13 0)
(1.83122 0.228505 0)
(1.83158 0.228932 0)
(2.00132 -0.0023287 0)
(1.86306 0.188566 0)
(2 3.15217e-09 0)
(1.83166 0.228934 0)
(2 4.33361e-10 0)
(2 -7.68594e-13 0)
(2 1.11591e-11 0)
(2 7.05926e-12 0)
(1.83172 0.229087 0)
(2 7.2625e-09 0)
(2 -2.50489e-13 0)
(1.82744 0.234358 0)
(2 1.45496e-13 0)
(1.83181 0.228711 0)
(2 2.94721e-10 0)
(1.89294 0.155497 0)
(1.82917 0.23063 0)
(1.83143 0.229135 0)
(2 5.39211e-10 0)