/*--------------------------------*- C++ -*----------------------------------*\
  =========                 |
  \\      /  F ield         | OpenFOAM: The Open Source CFD Toolbox
   \\    /   O peration     | Website:  https://openfoam.org
    \\  /    A nd           | Version:  12
     \\/     M anipulation  |
\*---------------------------------------------------------------------------*/
FoamFile
{
    format      ascii;
    class       volScalarField;
    location    "2.13";
    object      T;
}
// * * * * * * * * * * * * * * * * * * * * * * * * * * * * * * * * * * * * * //

dimensions      [0 0 0 1 0 0 0];

internalField   nonuniform List<scalar> 
22702
(
1
1
0.958263
1
1.02098
1
1.11998
1
1
0.890824
1.1207
1.1203
1
1.11884
0.967732
1
1
1
1.12047
1
1.11849
1
1.11971
0.891779
1.11863
0.883941
1
1.11948
0.909852
0.89184
1
1.12054
1
1
1
1.10836
1.11912
1.11987
1
1
0.890496
1
1.06006
1
1.11957
1
1
1
1
0.899213
1
0.892995
1
1.12052
1
1.12097
1
1
1
1
0.888333
1
1
0.902383
1
0.88732
1
1
1
0.887047
1
1.11862
1.07792
1
1.1187
1.12485
0.885107
1.11998
0.899289
1
1.12062
0.898202
1.12035
1.11912
1
1
1
1
0.985401
0.888658
1.12205
1
1
0.890139
1
1.11858
0.890762
1
1
1
1
1.06565
1.12055
0.884245
1
1
1.0327
1
0.897845
1
1.12097
1.1205
1
1
0.88754
0.890879
0.889163
1
1
1
1
1
0.979856
1
1.10476
1.02083
1.11897
1
1.11982
1.12076
1.11857
1.12042
1
0.887358
1
0.889713
1
1
1
1
1.12075
1
1
1
1
1.11897
1
1.00843
1
1
1
1
0.895854
1
1.00315
1
0.898225
1
1
1
1.12162
1
1.11882
0.889289
0.888336
1.11853
1.11848
1
1.02728
1.07194
1
1.11996
0.902521
1.1082
1
1
1
1
1.11882
1.10009
1
1.12093
0.889003
1.12056
1
0.90593
1
0.893843
0.885758
0.999944
1
1
1.12049
1
1
1.11884
1
1.12104
1.12087
0.895107
1
1
0.894871
1.11844
1
1
1
1.11841
1
0.901214
1
1
1.11862
1.11861
1.12089
1
1.00001
1
1
1
1.11849
1
0.880541
1.12315
1.11885
1.11855
1
1
1
0.894618
1.11869
1.06049
1
1.1186
0.901006
0.902524
1.11845
1.11941
1
1.11861
0.880174
1.10831
1
1
1
1
1.11865
1
1.07114
1.0124
1
1
1.11857
0.890743
0.927905
1
1.11934
0.894159
1.11762
1
1
1
1
1
1
1
0.898487
0.923699
0.90271
1.11859
1
1
1
1
1.1104
1
0.902092
1
0.888297
0.897427
1.11877
0.891532
1.11852
1
1
1
0.999355
0.904991
0.882435
1
1
0.888534
1
1.12075
0.884757
1
1
1.12063
0.891608
1
1.11638
0.888507
1.11855
1
0.891789
0.999352
1
1
1
0.895746
1
1
1
1
1.00532
1.08087
1
0.891518
1
1
1
1
1
1
1
1.12062
1
1.12089
1
1
1
0.899131
1
1.11887
0.900888
1
1.09269
1
1
1.12059
1
1
1
1.11996
1
1
1.11652
1.12074
1
1.03022
1
1
0.88998
1
1
1
0.890033
1
1
1
1
0.896057
1
1
1
1
1
0.893335
1.00002
1.11868
1
0.999999
1.11857
1.11859
1
1
0.89978
0.951185
1.12051
1
1
1
1.1185
0.886895
1
1.11871
1
1
0.902164
0.903392
1
0.900462
0.898024
1
1
1
1
1
1
1
1.11843
1.02672
1.11299
0.894545
0.974416
1.12107
1
1.1189
1.12051
0.897331
0.93713
1
0.899362
1
1.12278
1
1
1
1
1.11848
1
1
1
1
1
1
1
1.04715
1.12119
1
1.11863
1
1
0.899767
1
1
1
1
1.11842
1.09277
1
1
0.901073
1.11908
1.11867
1
1.11867
1.11898
1.11865
1
0.958141
1
1.11851
1.00256
1.11865
1
0.901822
0.999678
1.12023
1
1
1
1
0.895877
1.11876
1.10677
1
1.11841
1.11849
1.1204
1
1.05676
1.11832
1
1
1.08443
1.01878
1.11863
0.987622
1.11868
1
1.1187
1.11868
1.11868
1.11916
1
1.11278
0.977021
0.968059
1
1
1
1
1.12048
1
1
1
1
1
1.12002
1
1
0.998928
1.1187
1.10565
1
1.10032
1.00001
1
1
1.11909
1
0.999054
1.00131
1
1.11849
1
1.11819
1
1
1.09038
1
1.118
1.00001
1
1.11817
1
1.11849
1
1
1
1.11867
1
1.11827
1
1.11856
1.12057
1.11851
1.11853
1
1.12091
1.11938
1
0.894662
1.11209
1.09005
1
1.11867
1
0.890685
0.888706
1
1
1
1
1
0.891227
1
1.11859
1.03351
1.11916
1
1
1
1
1
1.11867
1
1.11987
1.07409
0.93883
1
1
1.03598
1.03014
1
1
1.0406
1
0.900709
1.11845
1.11838
1
1
1
1.12032
1
1.00001
1.11944
1.11879
0.984467
1
1
0.900135
1.10865
1
1
1
1
1
1.1186
1.12095
1
1.11837
1.11804
1.11853
1
1
1
1
0.885168
1.12076
1
1
1.10819
1.11788
1
1.11103
1.12119
1
1
1
1
1
1.11846
1
1
1
1
1.11987
1
1.11556
0.896582
1
0.889919
1
1
1
0.99906
0.893617
0.999719
1
1
1
1.01834
1
1
0.959957
1
1
1
1
1
1
1
0.999999
0.985935
1
1
0.999332
1
0.895896
1
1
1
1
1.0909
1
1
1
1
0.907541
1
1
1.1123
1.12085
1
1
1
0.964712
1
1
1
1
1
1
0.988664
1.00711
1.11851
1
1
1
1.11785
0.974026
1
1
1
1.12029
1.11867
1
1
1
1
1
1
1
1
1
0.900648
1
1
1.11943
0.90098
1
1.11931
1
0.893698
1
1
0.899632
1
1
1
1
1
1
1
1.11683
1.11817
1
1
1
1
1.10849
1
1.04196
0.898376
1
1
1
1
1
1
1
1.01035
1
1
1.0685
1
1
1
1.10251
1
1
1
1
0.891536
1
1
0.892236
0.894202
1
1
1.11845
1
1.0159
1
1
1
1.08552
0.878127
1
0.877088
1
0.92811
1
1
1
1.11952
1
1
1.11835
1
1
1
1.1184
1
1
1.11884
1
1
0.898689
1
1.03997
1
1
1.12095
1.12094
1.08148
1.10956
1
0.899109
1
1
1.11356
1
0.878821
1
1
1
1.11828
1
1
1
1
1.07489
1
1.11039
1.11956
0.888713
1
1
0.883552
0.883709
1
1
1
1.08678
1.09232
1
1
1
1
1
1
1
1.05409
1.1195
1.00186
1
1.11635
0.886323
1
1
1
1.0689
1
1.02566
1
1.10887
1.11738
1
0.902221
1
1.12106
1
1
1.11847
1.11178
1
1.1213
1
0.896372
1
1
1
1.12026
1.11721
1.10525
1
1.11946
1.11846
1
1.11837
1
1.11565
1
0.891149
0.993411
0.89855
1
1
1
1
1
1.11867
1
1.11864
1
1
1
1.11304
1
0.887114
1.11829
1
0.905519
0.887635
0.884186
1
1.06016
1.00953
1.11664
1.11844
1
1
1
1
1.11854
1
1
1.11863
1.11867
1
1.03838
1.00003
1
0.999015
1.12108
0.959288
1
0.9498
0.899555
0.900784
0.990578
1.11885
1.11505
1.02736
1.12009
1.11865
1
1
1.11878
1.11998
1.11914
1.1211
1
1.11823
0.885931
1.11781
1.11909
1.11915
1.11809
0.954882
0.971453
0.98496
1.11873
0.992519
1.1188
1
1
1.1168
1.1187
1
0.900946
1.11956
1.11863
1
1.11878
1.11853
1
1.1185
0.907461
1.11859
1.11885
1.12046
1.12023
1
1
1
1.11863
1.07897
0.888072
1.11856
0.89717
1.11857
1
1
1
1
1.11812
1.11876
1
1
1.11856
0.897572
1.11848
0.897475
1
1.11866
1
0.891884
1.11926
0.911269
1
1.11831
1.11942
1.11853
1
1
1.0615
1.11916
0.896713
1.11854
1
1.11996
0.964818
1.1187
0.895944
1
1.11939
0.899727
1.11671
0.892949
1
1.11839
1
1.12035
1
1.0687
1.11464
1.09483
0.87689
1
1.11878
1
1.11934
1
1.11855
1
1
1.11884
1.00422
1.11895
0.895678
1.1058
1
1.09077
1
1.11936
1.11854
1.11943
1
1.10914
1.11864
1.11316
1.07641
1.11883
1
1.08091
1
1.11849
1
1.02252
1
1.11034
1
1.11996
1.1134
1.114
1
1.1135
0.887847
1
0.896169
1
1
1
1.12148
1
1.11861
1
1
1
1.11846
1.11422
1.09836
1.11794
1.11816
0.887159
1.12073
1.12216
1
1.09914
1.1184
1.1131
1
1.12031
1.12113
1
1.12063
1.11858
1.11879
1.11895
1
1
1
1.11734
0.885579
1
1.11854
1
1
0.889118
1
1
1.11857
1.1187
1
1.11855
1.11932
1.11874
0.992227
1.11876
1
1.11873
1.11857
1.09746
1
1
1
1.11826
1.11864
1.11868
0.985963
1
1.11992
1.1186
1.1178
1
1.11863
1.11856
1.11854
1.1206
1
1.11858
1.11978
1.1046
1.11933
1.12021
1
1.11775
1.11721
1.11866
1.1184
1.1194
0.888106
1.11849
1.11847
1
1.11862
1.11866
1.11839
1.11844
1
1.11853
1.11828
1
1.11878
1.10076
1
1
1
1.11831
1.1205
1
1
1.06863
1
1.11838
1
1
1.11861
1.1188
1.1188
1.11865
1
1
1
1.08626
1
1.12002
1
1
1.11954
1.1189
1
1.11847
0.882446
1.11851
1.11796
0.910835
1
0.872456
1.10475
1.11846
1.11596
1.11584
0.894778
1.11862
1.11893
0.891954
0.890788
1
1.1203
1.11853
1
1
1.11897
1
1.11952
1
1.10484
1
1.05441
1.11817
1.11947
1.08706
1.11183
1.1219
1.11815
1.11512
1
0.887809
1.11793
1.11888
1.11915
1
1
1
1.12087
1
1.11876
1.1184
0.919697
1
1.11831
0.999982
1
1.00001
1.00001
1.11884
1.11908
0.999566
1
1
1.11782
1.11895
1.11764
1.11938
1.11842
0.881996
1.09823
1
1.11867
1.11877
1.11831
1.11898
1
1.11854
1.1154
1.11869
1
1.11886
1.11856
0.951051
1.11846
1.11881
1
1.11786
0.947133
1.11867
0.952765
1.11855
1
1.11795
1.12243
1.11849
1.11862
1.11784
1.11873
1.11864
1.11895
1
0.974503
1.11872
1.11867
0.955236
1.11841
0.998259
1.0747
1.11873
1.11864
1.11824
1
1.11896
1.08112
1.1183
0.973835
1.11888
1.11911
1
0.967525
1
1.12118
1
1.0898
1
1.11474
0.971056
1
1.1169
1.11794
1
1.11877
1.11666
1.11849
1.11584
1.11858
1
1.12089
1
1
1
0.977016
1.11878
1.11903
1.11928
1.11846
1.12006
1.1197
1.12125
1.11857
0.969674
1.00915
1
1
1.12183
1.11857
1.11872
1.11855
1.00001
1.06374
1
1.12033
1.10637
1
1
0.928385
1.11861
1
1
0.894504
1.11862
1
1.12128
1.11763
1.12209
1.11403
1.11794
1
0.876276
1.03106
1.11889
1.11818
1
1.12
1.11856
1.06091
1.00289
1.02864
1
1.12064
1.11832
1
1
0.895635
1
1
1.11847
1.11854
1.11862
1.11817
1.11849
1.11919
1.12034
1.11797
1.11871
1
0.998936
1.11833
1.11708
0.999149
1.1185
1.11862
0.884019
0.888415
1.1193
1.11739
1
1
1.00031
1.11909
1.11865
1.11869
1
1.11848
1
0.956558
1.1197
1.11662
1
1.05735
1.11928
1
1.11994
1
1.11872
1.08187
1.1183
1
1.11827
1.12007
0.892316
1.11859
1
1.11819
1.11909
1
0.882028
1.11793
1.10484
0.999259
1.11544
1.11865
1
0.995904
1.1182
0.999211
1.11832
1
1
1.11816
1
1.11814
1.11853
0.999005
1.09601
1
1.11862
1
1
1
1
1.11872
1
1
1.11781
1
1.11789
1
1.07378
1.12007
1.11893
1
1
0.999154
1
1.11856
1.1187
1.11818
1.11774
1.11858
1.11867
1.11901
1
1.11869
1.12043
1
1.11824
1.11843
1
1.11872
0.976403
1.01603
1.11861
1.11826
1.11875
1
1.11777
1
1.11847
1.11756
1
1.12025
1
1
1
1
1.11875
0.87721
0.999393
1
1.11831
1.12083
1
1.11865
1
1.0014
0.879524
1.11773
0.999889
1
1.1162
0.999529
1.1194
1
0.999924
1
1.11685
1.11766
1.11666
1.11935
0.892819
1.11811
1.11905
1.11863
1.03209
1
1
1.05451
1.11853
0.874595
0.889848
1
1.11848
1.11875
1.11624
1
1
1.11909
1.11855
0.999968
1
1.09263
0.88662
1
1.02258
1.12039
1.1182
0.99949
1.11882
1.12032
1
0.999714
1
1.11927
1.12073
1.04959
1
1.11299
1
1.00081
1.11869
0.889859
1.11784
1.1186
0.999109
0.999975
1.10415
1
0.999913
1
1.11844
1
1
0.873833
1.11862
1
1
1
1
1.12007
1.07496
1
1
0.881229
1.11813
1.07508
1
1
1
1.11428
1.11517
1.11982
1
1
1.12058
1
1.11839
1.11869
1
1
1.12127
1.11851
1.11413
1
1
1.12143
1.11939
1
1
1
1.11937
1
1
1
1.11876
1.12006
1.11953
1
1.1206
1.00001
0.912535
1.11799
1.11874
1
1.12009
1.11237
1.12067
1
1
1.11973
1
1.06605
1.11921
1
0.891695
1
1.11628
1
1
1.11944
1
1
1
1.03777
1.11857
0.909384
1
1.11739
1
1
1.11853
1
1.11949
1
1
1.11845
1.11858
1
1.00001
1
1
1
1
1
1
1.11941
1.11866
1
1.12095
0.889474
1.11812
1
1.11837
1.11949
1.1183
1.12044
1.1218
1
1
1.11933
1
1.07962
1.11946
1.11869
1
1.1195
1.11908
1
1.107
1
1.11847
1.08493
1.11908
0.99927
1.11972
1.11056
1.11894
1.11908
1.01051
1.11842
1.11932
1
1.11877
1
1.11833
1
1
1
1
0.999113
1.11884
1.1185
1.10023
1
1.11921
1
1
1
0.880836
1
1.11624
1
1.1106
1.11648
1
1
1
1.11431
1.11961
1
1
1.11822
0.889947
1.02393
1
1.11938
1.11867
1.10675
1.11634
1.1186
1
1.11844
1
1
1
1
1.11879
1.11867
1
1.11552
1.01593
1.11871
1.11531
1
1
1.11436
1
1
0.891385
1.08404
1
1
1.12114
1
1.11937
1.10916
1
1.10891
0.891381
1.11861
1.11864
1.11801
1
0.904181
1
1
1
1.11857
1.09848
1
1.11947
1.11885
1
1.11835
1
1
1
1
1.11866
0.999804
1
1.11874
1
1
1.11904
1.11858
1
1.12052
1.02616
1.00001
1
1.11852
1
1.11857
1
1.00419
1.11875
1
1.11813
1
1
1.0403
1.11865
1
1
1
1
1
0.998962
0.892058
0.877343
1.00598
1
1.00908
1
1.0102
1
1.11882
1
1.07843
1
1.11827
1
1
1
1.11822
1
1.09587
1.11846
1
1.06758
1.11882
1
1
1.12149
1.11859
1
1
1.01559
0.879349
1
1.11917
1
1
1
1
1.02261
1.11887
1
1
1
0.897237
1
1.11846
1.11854
1.12169
1
1
1
1
1.06518
1.12107
1
1
1
1.11826
1.11831
1.01563
1
1
1
1.11927
1.1181
1
0.888658
1.11899
1.11854
1.11888
1.11908
1.11921
1
1
1.11922
1.1195
1.11847
0.900267
1.0117
1.11924
1
1
1
1
1
1.11859
0.890854
1
1
1.11821
1.05746
1
1.11968
1
1
1
0.903849
1
1
1.03435
1.11871
1.11963
1
1.11993
1.11785
1
1.02389
1
1.11882
1
1.11864
0.889527
1
1
1
1
1.11826
1.00002
1
1
1
1.1155
1
1
1
1
1.11848
0.902702
1.09425
1.11892
1
1.1195
1
1
1
0.999176
1
1.11886
1
0.934818
1
1
1.00001
1.12015
0.882985
1
1.11929
1
1.11949
1.11859
0.899271
1
1
1.11695
1
1
0.898466
1
1.11738
1
1.11659
0.999784
1.11846
1
1
1
1
1.1192
1
1
1.11858
1
1
1
1
1
1
1
1
1.08057
1
1.04051
1.11782
1
1
1
0.900827
1
1
1
1
1.11593
1.11866
1.01592
1
1
1.1176
1
1
1.11896
1
1
1
1
1
1
1.11848
0.927174
1.11903
1.118
0.999135
1
1
1
1.07371
1
1
1.11877
1.11838
1
1
1
1
0.896236
1
1
1
1.07602
1
1.11819
1.11959
1
1.11819
1
1
1
1.06715
1
1.12046
1
1.1182
1
1
0.998921
1.11894
1
1
1
1
1
1.1181
1.00001
1
0.889786
1.1182
0.893296
1
1.11803
1
0.998816
1
1.11897
1.11987
1
1.11879
0.968659
1.1187
1.12027
1.00001
1
1
0.890409
1
1
1
1.11782
1.0717
1.11785
1
1
1
1
0.999082
1.1182
1
0.889452
1
1
1
1
1
1
1
1.12086
1.11851
1.11836
1
1
0.999114
1
0.996024
1
1
1
0.881635
0.995162
1
0.886107
0.901205
1
1.11819
1.11847
1
1.11834
1.11861
0.889078
1.08079
1
1
1
0.890202
1.11872
1
0.888964
1
1.1201
1.02333
1
1
1
1
1.11847
1.11976
1
1
1.11781
1
1
1.11978
1.11795
1
1.10837
1.11839
1.11995
0.992847
1.11844
1.00258
0.889531
1.09283
1.11955
1
1
1
0.885189
1
0.891757
1.1209
0.991222
1.11845
0.983013
1
1.11936
1.0591
1
1
1.11774
1
1.05287
1.11899
1
1
1.11849
1.11713
0.890275
1.07116
0.999969
1
1.07173
1
1.12032
0.98513
1.12146
1.12169
1
1
1
1
1.11164
1
1
1.11786
0.999897
1.11817
1.09626
1.11943
0.892067
1
1
1
1
1.11816
1.00001
1.11812
1
1.11836
1.11902
1.01612
1.11795
1.04027
1.11892
1
1.08777
0.893913
1.12019
1.11872
1.09641
1.02328
1.11945
1.1195
1.11823
1.11808
1
0.973135
1.01933
1
1.11866
1.06067
1.11838
1.00001
1
1
0.908847
1.11906
1.11938
1.09756
1
1.0499
1
1.11824
1.11946
1
1.11859
1.11933
1
1
1
1.11858
1
1.05065
1.11955
1.08489
1
1.11829
1
1
1
1
1
1
1
1
1
1
0.910003
1
1.11187
0.888793
1.07446
0.999601
1.11818
1
1.06713
1
1.07632
1.10237
1
1.00042
1.11894
0.973807
1
1.11805
1.11765
0.986697
1
1.11948
1.11822
1.11933
1
1.11871
1.11831
1.12067
1
1.05962
1
1.00002
1.11825
1
1.1184
1.01958
1.11806
1
1
1.11893
1.11772
0.897226
1
1.11866
1.09156
1.11677
1
1
1.11972
1.11825
0.999497
1
1.10407
0.999083
1.11845
1.00002
1
1
1
1
1.05785
1
1.09672
1.11914
1.09129
1.11808
1
1.00064
1
1
1.11985
1
1.11906
1
1
1
1
1
1
1.01551
1.0653
1
1
0.88916
1
1.11894
0.90947
1.11855
1
1.06592
0.999929
1.11888
1.07777
0.8965
1.06827
1.00001
1.11839
1.11818
1
1.07942
1.11827
1.11796
0.999542
1.11996
1.11537
0.87922
1
1
0.999221
1
1.11762
1
0.890049
1.11935
1
1
1.1067
1
1.11915
1
1.11876
1
0.892427
1
1
1.11839
1.12138
1.11924
1
1.11817
1.1185
1.11949
1
1
1.11485
1
0.911751
1
1
1
1.1191
1
1.1186
1.07912
1.11887
1
1.11959
0.999826
1
1
1
1
1
1
0.906832
1
1
1.11856
1
1.11928
1.12015
1
0.896779
0.890152
1
1.11888
1.01997
0.8926
0.883876
1
1.11875
1
1.11833
0.899545
1.00037
1
1
0.999858
1
1
1
0.999975
1.05201
1.11848
1
1
1.11863
1.07309
1
1.10991
1.11827
1.11857
1.05179
1.1163
1
1.11824
1
1.11914
1
1.12031
1.11843
0.99913
1.1182
1.12042
1
1
1
1
1
0.973179
1.11982
1.00001
1.00001
0.89184
0.999994
0.88001
0.881053
1
1.11808
1.11858
1.11829
1
1.11909
1
0.89161
1
1
1.11845
0.948338
1.11896
1
1.11875
1
0.999783
1.11881
1
1
1
1.11864
1
1.11903
0.891574
1
1
1.0713
1
1
1.06874
1
1
1.11862
1
1
1
1
1
1.12029
1.11842
1
1.11913
1.11772
0.889796
1.0581
1.11843
1
1
1.10792
0.999698
1
1
1.11856
1.11912
1.08101
1
1.11784
0.901845
1.11635
0.999897
1
1.11898
1.00001
1.11894
1.09822
1.09306
1
1
1.11829
0.921805
0.892383
1
1.11872
1
1.11876
1
1.07344
1
1
1.11845
1.07893
0.890565
1
0.999564
1
1
1.00726
1.05237
1.11838
1
1.11928
1
1
1
1
1
1
1.0188
0.893123
1
1
1.01073
1
1
1
1
1
1.1183
1
1
1.11902
1.11848
1.08714
1
1
1
0.955589
1.11858
1.08603
1
1
1
1
1.11876
1
1
1
1.11942
1
1
1.08792
1.12409
1.01212
0.919755
1.1183
1.08629
1.11948
1
1.06363
1
1
1
0.885109
1.00076
0.894316
1
0.895528
0.887264
1
0.888933
1
1
1
1.05917
1
1.11797
1.1183
1.00031
1.05917
1.10752
0.890014
0.923484
0.96394
1
1.11943
1.12019
1.11938
1.11837
1.10355
0.961692
1
1.10414
1
1.112
1
1
0.999039
1.00273
1
1
1
1.11923
1
0.888474
1
1.11871
0.882958
1
1
1.11834
1
1.11851
0.999882
1
1
1.11781
1.10698
1
1.12296
1
1
1.00421
1
1.05683
1
1
0.889634
1
1
1.11844
1
1.11738
1
1.00001
0.883962
1
1
0.895463
1.00031
1
1.11963
0.882653
1.1194
0.89404
1.11836
1
1
1
1
1
1
1
1
1
1
1
1.1158
1
1.1165
1.12031
0.892115
1
1
1
1
1
1
1.11483
1
1
0.89256
1
1
1.12008
1
1
1.04923
1.10089
0.8955
0.897949
0.90438
0.913765
1
0.999027
0.893936
1.00012
1.11342
0.999104
1
1
1.11831
1
1
1
0.922005
1
1.04565
1
1
1.04981
1.1185
1
0.884049
1
1
1
0.998927
1
1.11957
1.11852
1
0.879666
1
1.06863
0.884062
1
0.967158
1
0.998974
0.886508
1
1
1
0.998688
0.895324
1
0.89392
0.999544
1.06617
1.11046
0.897324
0.896665
1
0.997064
1
0.999603
1
1.1179
1.11913
1
1.00595
1.11848
1.11979
1
1
1.11846
1
1
1.00001
1
1.11815
1
1
1.0053
1
0.9996
0.912894
1
1
1
1
1
1.12118
1.01069
1.00002
1
1
1
1
1
1.00001
1
0.890524
1.02967
0.999611
1.12122
1.11658
1
1.00382
1.11834
1.10402
1
1
0.883272
1.11852
1
1.12006
1
1.11809
1.08626
0.889742
1
0.883585
1.10993
0.999905
1
0.893474
0.884253
1
1
1.10456
1
1
0.887581
1
1
1
1.04056
1
0.892023
1.11876
1
1
1
1
1.11809
1
1
1.11984
1.10762
1
1
1
1.11649
0.895808
1
1.11901
1.11852
1
1.09692
1
1.00001
1
1
1.10958
1.00781
1
0.883535
1.06955
1
1
0.999449
1
1
1.11985
1
1
1.00001
1
1.11926
1
1
1
1
1
1
1
1.05593
1
1.11852
1
1
1.11897
1
1
1
1.11914
1.11921
1.01328
1
0.999315
1
1
1
1
1.12004
1
1
1.11877
0.887386
1
1
1
1
1
1
1.09803
1
1
1.12087
1.11929
1
1
1
1.11913
1.11766
1
0.999925
1.12067
1
1
1
1.00001
0.890847
1.00824
0.998899
0.998851
1
1
0.883444
1.11902
1
0.891253
1
1.11839
1.11432
0.894766
0.999832
1.1182
1.11923
1.11868
1
1
0.975406
1.10983
1.10235
0.887753
1
1
1
1.11908
1.11861
0.886526
0.999234
1
1.11824
0.889283
1
1.11952
0.88978
0.987425
1.00196
1
1.12055
1
1
1
1
1
1
1.00003
1.11121
1
1
1.1204
1
1
1
1.11868
1
0.889978
1
1
1
1.04445
1
1
1
1
1
0.930089
1
0.889875
1
1.11872
1.00002
0.961828
0.957527
1
1.00096
1.06644
1
1
0.880984
1.11865
1.1187
1.11865
1
0.88879
0.892199
1
1.11844
1
1
1
1
1
1.00001
1
0.893789
1.07857
1
1
0.902241
0.9931
1
1
1
1
0.886875
1
0.894038
1
1
1.11711
1
1
0.889558
1
1.11872
1
0.88966
1
0.894135
1
1.00229
1.11721
1.12265
1
1
1.1203
1
1
1.02968
0.999066
1
0.999486
1
1.11895
1
0.901794
1
1.12083
0.999729
1
1
0.936428
1
0.999748
0.893702
1.11879
1.0465
1
1
0.972998
1
1
1
0.929996
1
1
1
1.11742
1
0.888604
1
1
1
1
0.88838
1.11869
1.11253
0.894478
1
1.12175
1
1
1.11929
1.11985
1.1013
0.886581
0.999371
0.999757
1
1.11861
1
1
1
1
1.11833
1.00001
1
1
1.11861
1
1
1.11861
0.880975
1
1
1
0.893597
1
1
1
0.999611
1
1
1
1
1.09431
1
1.12009
1.11898
1.12119
1.11873
1.1182
1.11863
1
1.11848
1
1.11844
1.1184
1
0.999673
0.875887
1.10268
0.999965
1
1
1
1
0.999899
1
1.02109
1
1
1
0.958792
1.11861
1.1185
1.1177
1.10665
0.999965
1
1.00636
1.11819
0.999427
1.01696
0.999254
0.897138
1
1.00001
1
1
1
1
1
1.11861
0.890785
1.11863
1.11853
0.99864
0.8887
1
1
1
1.11872
0.888539
1.10615
0.887426
1.11838
1.11998
0.89399
1.11851
1.00651
1
1.11879
0.936882
1
0.999698
0.879347
1
0.892403
1
1.11863
1.11862
0.92981
1
1.11931
0.897467
1
0.892084
1
1.11883
1
1
1.11591
1
0.949981
1
0.999903
0.892199
1.1194
0.999856
1
0.887453
1
1
1
1
1.0691
1
1.11673
1
1
1.12251
1
1
1.119
1
0.885216
1
0.897274
1
1
1
1
1
1.11402
1.07179
1.11851
1
1.11928
1.11114
0.889709
0.880647
1
1
1.11925
1
0.884233
1
0.993188
1
1
1.11833
1
1.11917
0.885026
1.1205
1
0.886864
1
1
1.11914
1.11684
1
1.00001
1
1.12078
1
1
0.883235
0.999829
0.891912
1
1
1
1.11788
1.12052
1.12001
1
1
0.889185
1
1.12012
1
1
1
1.11414
1.11907
1.11883
0.890306
1.11903
1.11855
0.888838
1.11965
1.00001
0.899838
1.00182
1
1
1.11899
0.891013
1.07761
0.890732
1.1186
0.999241
0.889292
1.11868
1
1
1
1
1.11963
1.11997
0.89462
1
1.00001
0.887812
1.00001
1
0.896332
0.894639
1.08254
1.11812
0.99957
1.11873
1
1.11614
0.944722
0.890971
1.11849
1.12235
1
1.11799
1
1
1.11861
1
1.09278
1.12001
1
1
1
1
1.11889
1.11591
1.12026
1
1
1.1175
1.11869
1.11907
1
1.11879
1
1
1
1
1
0.88932
0.954829
0.88563
1
1
1.11845
1
1
1.1183
0.886258
1
1.11838
1.11699
1.11354
0.875443
1
0.890656
1
1.00001
1.11963
1.06295
1.11996
1.10934
1
0.887836
1
1.11865
1.08755
0.896789
1
1
1
0.935552
1
1
1.1199
1
0.90278
1.11853
1
1
1
1
1
1.09735
1.02851
1
1.11882
1
1.11911
1
0.999146
1
1.11843
1.11971
1.11855
1.11928
0.99988
1.11981
1
1.11842
1.11876
1.10564
1
1
0.884624
1.1197
1
1
1.12047
1.11812
1.11863
1
1.11873
1
1
1.00001
1.11953
1.11838
1.03485
1.02842
1.11849
1.1193
0.896588
1
1
1
1
1
1.04631
1
1
1.10182
0.893802
0.999988
1
1.11862
0.999957
0.999942
1.01767
1.10951
1.1203
0.975064
1
0.89126
1
0.999649
1.11858
1.11949
1.1164
0.999723
1
1
0.885744
1
1
1.11847
1.01417
1
1
1
1
1
1
1
0.999983
1.11969
1
1
1
1
1
1.08156
1
1.05875
1
1
1.11859
1.12004
0.896036
0.99966
1
1
1
0.894529
1.11961
1.11809
1
1
1
1
1
1
1
1
1.1191
1.11795
0.883002
1.01412
0.893373
1
0.891512
1
1.11853
1.03342
1
1
0.914549
1
1.11385
0.937005
0.998936
0.888842
1
1
1.11965
1.00001
0.999115
0.884894
1.12016
1.12108
1
1
1
1
1.11352
1
1
1.11924
0.999704
1.1192
1.00001
1
1
0.883669
1
1
1.11836
0.887742
0.927064
0.891594
1.11876
0.999823
1
1.11921
0.895689
0.886345
1.00694
1
1
1.11981
1.00001
1.0571
1
1
1.12
0.890998
1
1
1.00004
1.1195
1.00004
1.1164
1
1.00001
1
1
0.917698
1
0.935159
1
1
1.11797
0.883733
1
0.936015
0.938485
1
1
1.11824
1
1
1
1.11911
1.11912
1.00001
1.11586
1.12005
0.94037
1.11871
1.1163
1
1
1.11992
1
1
1
1
1
1.12075
1.11876
1
1
1
1.11839
1.00006
1
0.891487
0.910842
1
1.00001
1.04831
1
1
0.975214
0.902579
1
1
1
1.12011
1.10974
1.11857
1
1
1
1
0.88847
1
1.11751
1
1.11636
0.882466
1.12037
1
1
1
0.892575
1
1.11922
1.00001
1
0.895006
1.04734
1
0.999904
1.12025
0.88493
0.887782
1
1.11965
0.896626
0.892486
1
0.881703
1
1
1
1
0.891572
1
1
1
1
1.11974
1
1.0927
0.887284
1
1
1
0.893491
1.1186
1
1
0.999123
1.11731
1
1.11841
1.11938
1
1
0.915767
0.892959
1
1
0.882729
1.04087
1.0587
1
1
1.1195
0.99925
1
0.999306
1.11979
1
1
1
1
1
1
1.11847
1
1.0453
1.04136
0.898211
1.1057
1
1.11927
1.11869
1
1
1
0.976868
0.890354
1
1.06552
0.999893
1.10945
1
1
1
1
1
1.00179
1.05585
1.11846
1.11882
1
1.1186
1
0.899754
1
0.999298
0.999937
1
0.872715
1
0.892509
1.00001
1.11902
1.11991
0.87583
1.11909
0.886445
0.998948
1.09438
0.892556
1.0889
1
1
0.99955
1
1
1
1.00002
1
0.8818
1
1
1
1
0.999884
1.11798
0.940295
1
1
1
1.01073
1
1
1
1.07386
0.920166
1
1
1
1.0158
1.11981
1
0.890922
1
1.11835
0.968994
0.897382
1
0.889309
1
1
1.11269
0.999485
1.10868
1
1.00236
1
1
1.1187
1
1
1
1
1.02584
1
1.11852
1.11873
1.11985
0.890493
1.11865
0.999167
1.0986
1
1
0.870979
1
1
0.876671
1.11881
1
1
0.999986
1
1
1
0.886335
0.889312
1
1.11916
1
1.06075
1.11845
0.889615
1.1002
1
1
0.897476
1
1
1.11847
1.11897
1.04801
1
1
1.00054
1.11949
0.889004
0.879555
1.12014
1.11863
1.08409
1.05062
1
0.968174
1
1
1
1.1098
1.11783
1.11814
1
1
1.11884
0.887747
1.10503
0.886654
1
0.887577
1
0.877581
1.11855
0.884306
1
0.997735
0.909856
1
1
1
0.951301
1.10637
1.11819
1.11903
1.11867
1
1
1.12026
1
1
1.11846
1
0.89209
1
0.886897
1
1.11982
1
1
1.00773
1.09341
1
0.999708
0.896184
1.11787
1
0.886914
1.02561
1
1
1.09267
1.1188
1.11848
1
1.11905
1.03388
1
1.0071
1.11841
1
1
1
1
1.11836
1
0.88076
1.11811
0.89169
0.883516
0.945647
1.11775
1.04497
1.11814
1
1.11879
0.999245
1.00001
1.11854
1.12044
1
1.11854
1
1.11898
1
1.11971
1
1.00001
0.999996
1.11815
0.889438
0.883812
0.999397
1
1
1
0.889111
1
1.08127
1
0.88748
1
1.05046
1.11867
1.11933
1
1
1.00001
0.999831
1
1.11963
1.11939
1
1.05366
1.11892
0.957929
1.11976
1.00011
0.88047
1.02759
0.892555
1
1
1.0224
1.1204
1
1
1.0151
0.999608
1
0.882171
1
0.93141
1
1.11757
1
1
0.889005
1.03055
1.01635
0.999575
1.1183
1.11868
0.932774
0.999434
0.874403
0.890531
0.877315
1
1
1
0.999726
0.906876
0.901686
1
1.11844
0.999927
1.11848
1.11915
1.12011
1.11929
1
0.887672
1.11844
0.901366
1
1.11834
1.1185
0.999016
0.947034
1.11896
1.08506
1
0.891199
1
1
1.12141
1
1.0078
1.11874
1
0.88316
0.885023
1
1
0.896244
0.896887
1.11822
1.00001
1
0.875038
0.886998
1.12038
1.11538
1.11135
1.1194
1.03593
0.995186
1.0526
1.11694
1.09064
1
1.06194
1
0.88907
0.954941
1
0.884382
1.11875
1.00633
1.11898
1
1.1184
1.11943
1
1.11901
1.11838
0.887963
1.11969
1
1.11999
1
0.92857
0.886041
1.11895
1
1
1
0.888198
1.11841
1.11826
1
0.889397
1
1
0.880769
1.00001
0.886105
1.11985
1
0.947072
0.898836
1
1
1.07107
1
1
1
1.02281
0.888436
1
1
1
1.11937
0.890746
1
1.11864
0.88693
0.891582
1
1
1.11821
1
1.11817
1
1.11858
0.89491
1
1
0.894981
0.944794
0.887374
1
1
1
1
1.11822
0.87205
1
0.888971
1
1.11802
1
1
0.979252
1
1
0.942111
0.999915
1.00001
1
0.891969
0.888975
1
1
1
1
0.936212
1.11669
1.11945
1
0.895397
0.897913
0.97013
0.891502
1
0.955954
1
0.891028
0.995264
1
1
0.891656
1
1.11946
1.11498
0.888675
1
1
1
1.11863
1
1.01293
0.944012
1.03991
0.89684
1.05265
0.888827
1
1
0.906809
0.967007
1
1.01595
1
1
0.889528
1
0.978646
1.01127
0.889035
1
1.09654
0.918523
0.967901
1
1
1
0.893985
1
0.888098
0.881565
1
0.961631
0.889132
1.02315
0.914847
0.8795
1.11846
1
1.1186
1.06836
0.912042
1.11849
0.88213
0.999728
1.11953
1
1
1.11922
1
0.918828
1
1.02192
1
1
1.11852
1
0.937374
0.947289
1.1205
0.97558
1
0.923675
1.1186
1.11949
0.972344
1
1.11853
1.03442
0.961975
1
1.00181
1
0.88997
1.05508
0.931607
0.926459
1
1
0.896589
1.11791
0.990226
0.88841
0.885029
0.959423
1
1.00377
1.1195
1.11883
1
1
1
0.888492
1.05811
0.999994
1.11851
1.10869
0.885864
1.00001
1.02725
0.97064
1.07617
1.10519
1
1.00577
1
1.00002
0.876607
0.958527
1
1
0.94067
0.876372
1.01378
1
1.00001
0.882386
1.05845
1
1.11466
1
1.00699
1.07017
1
1.11654
1
1
1.11849
1
0.884345
1.11954
0.909119
1.03262
1
0.895017
0.999976
1
1.00001
1
0.940707
1.00747
0.890866
1.09062
1.12004
0.884335
1
1
1
1
1
0.994933
0.888169
1.01586
0.889013
0.901042
1.02045
1
0.999943
1.03219
1
1
0.896115
1.00391
1
1
1.03159
1
1.11972
1
1.11949
1.02864
1.00494
0.888655
1
1
0.887912
1
1
1
1
1.11816
1.01273
0.999466
1
0.886941
1.01493
1
1
1.08129
1
0.889753
1.11907
1
1
1
1.11829
0.885229
0.966297
0.88371
1.0913
1.11991
1
1
1.11859
1
0.895634
1
1
1
1
1
0.935493
1
1.11828
1
1
1.04517
1.11968
0.893784
0.962798
1
1.11838
1
1
1
1
1
1.11877
1.1196
0.896381
1.11755
0.880843
1
1
1.11872
1
1.12044
1.00376
1.00793
1.01958
1.11915
1.01922
1.08443
0.882409
1
0.881652
0.998792
1
1.11845
1
1
0.884144
1.11979
1
1.11953
1
1
1
1
1
1
0.885977
1.11949
0.958867
1.11852
1
0.877828
0.894322
0.912814
1.1174
1.11827
0.991844
1
0.943165
1
1.05082
1
1.11843
0.883915
0.891747
0.958486
1
1.11873
1
1.02071
0.889236
1
1.12055
1.10292
0.999657
1
1.11865
0.887562
1.11913
1.11875
1.11846
0.894591
1.02469
1
1
0.884634
1
0.948144
0.957023
1
1.00001
1.11905
1
1.11919
1.02518
1
1.01333
1.12051
1
0.882413
1
0.933261
1
1
1.0965
1
0.946182
1
0.892792
1.00996
0.984929
0.891782
1.11851
1.09692
1.11932
0.890295
0.906892
0.99879
1
1
0.902478
1.11242
0.888026
0.999992
1
1.11859
1.11925
0.970891
1
0.887201
0.904746
1.0841
0.991944
0.882462
1
0.891115
1.03028
0.893705
1
1.00002
0.93637
1.11934
1.11908
0.948979
0.999882
1
1
0.907428
1
0.888061
1
0.899011
0.88933
1
1
1.00001
0.893851
1.11838
1
1
1.00002
1.00001
0.896993
1.11908
1.11845
1
0.890841
1.11975
1
1.02683
1
1
1.11905
0.890527
1
1
0.888317
0.924854
0.892628
0.889048
1
0.89699
0.999221
1.02664
0.886159
1
1
1.03723
1
1.10626
1
1
1.08532
0.898094
1
0.894431
1.03565
1.1185
1
1
0.896037
0.887335
0.879431
0.909138
0.887635
1.08837
0.999834
1
1
1
1
1.11887
0.884745
1
0.98253
0.999908
0.999619
0.999982
0.925567
1.03698
1
1.11877
1.11867
1
1
1.11521
1.00001
1
1.11854
0.894712
1.11922
1
0.885099
1.11865
1.00002
1
0.95131
1
0.887165
1
1.11921
1
1
1.1195
1
1
1.11949
1
1
1
1.11996
1
0.921613
0.915485
1
0.883083
1.11837
1
1
0.990472
1
1.11976
1.07236
1.09423
1
1
0.899841
1
0.895985
1.11877
1.11967
1.11834
1
1.11958
0.888178
1
0.900037
1.09679
1.1086
1.11852
1.11826
0.919731
0.881706
1
1.08209
1.11938
1.1195
1.11873
0.930214
1.04582
1
1.09282
0.925744
1
1
1
1.00001
0.971247
1
1.12006
1
1
1
1
1
1
1.00002
1.11828
1
1.11986
1.08972
0.880148
1.12
1.00984
1.06213
1
1.11859
1
0.886325
1
1
1
1
1.10354
1
0.885577
1.11933
0.884042
1.11878
1.09671
1.0658
1
1.02544
1.05828
0.998876
0.894422
0.936535
1.00001
1
0.977047
1
0.88832
1.11935
0.877667
0.976245
0.953923
1
1
1
1.00365
1
1
0.888966
0.998681
1.11991
1
1.11853
1
0.888979
1
1
1.119
1.11902
0.886548
1
1.1194
1
0.942781
0.88764
1.11907
1.1081
1
1.0229
1.1187
0.999619
1
1.05344
1.10525
1.11901
0.998797
1
0.999999
1.10312
1
1
1
1.11842
0.999568
1
1
1.11873
1
1
0.892766
1
1
1
1.11917
1
1
0.959177
1.03931
1.1091
0.936777
1
1.11892
1
1.04442
1
1.11851
0.999205
1.11859
1
0.887795
1
1.08517
1
1
1.11118
1
1.11868
1
1.11944
0.903694
0.889376
1.1195
1
1.10255
1
1.11914
1
1
1.00001
1.11855
1.12091
1.03319
1.1189
0.998825
0.889373
1.11889
0.963102
1
1.11847
1
1.11898
1
1.11891
1.11931
0.998967
0.891572
1
1.11855
1
1.01277
1
1
0.999437
0.926162
1.10725
1
1.10652
1
0.964407
0.888308
1.11923
1.11904
0.907267
1
1.11874
1.11921
1.11863
0.907204
1.11884
0.901969
1.119
1.1198
1
1
1.11823
1
1
1
1
0.890276
1
1
1.11922
1.11858
1
1.11747
1
1.12004
1.1195
1
1.10038
1
0.882053
1.11856
1.09057
1.03478
0.882586
1.11845
1
1
0.882342
1
1
1.1184
1
1
0.938916
1
1.11865
1.00002
1.11838
0.887788
1.1199
1
1.11816
1.11415
0.97135
1
1.11852
0.929252
1.1199
1.08675
1.11838
1.11954
0.99919
1.11955
1.11876
1.11862
1.11879
1.00018
1
0.889183
1
1.11973
0.946772
1.10942
1
1.11672
1
1
1
1
1
1.11824
0.88721
0.895662
1.11916
1.11849
1
1
1
1
1
1.11776
1.10838
1.11846
1.00701
1
1
1
1.00001
1.11844
1.11836
1
1.11941
1.1196
0.903791
1.08748
1
1.11965
1.11878
1.11772
0.99941
1.11897
1.11877
1
1.11401
1
1
1
1
1
1
1.11879
1.12028
1.11067
1.11861
0.888288
0.910388
1.11841
1.1185
1
0.883281
0.982814
1
1.05942
0.886385
1
0.999846
0.999504
0.890238
1
1.11873
1
1
1
1.11965
0.985656
1
1.11876
1.11843
1
1.1188
1
1
1.11859
1
0.881377
1
1.11821
1
1
0.89916
1
1.11855
1
0.884534
0.882077
1
1.11898
1
0.885742
0.964768
1
1.11858
1
1
1
1.11932
1
0.87795
1.01657
1.11915
1.11824
1.11858
1.01368
1.11922
1.11842
1
1
1
1
1
1.11848
1
0.999797
1.12065
1
0.886134
1
1.11834
1.05771
1.01713
1.05923
1.01815
1.11926
0.911181
1.11848
1
0.892834
0.999195
1.11844
0.989315
1.11855
1.11825
1.116
1
1.11927
1.11841
1.11873
1
1.00001
1
1
1.11925
1.08666
1
1
0.891345
0.99907
1
1.11857
1
1.11845
1.11863
1.11792
0.972152
1.11834
1.11896
1.00448
1.06293
1.11956
1.11873
1
1.10785
0.954416
1.1111
0.998965
1.11897
1
1.11857
1.11879
1
0.892663
0.986957
0.903716
1
1.02452
0.998929
1.11919
1
1
0.998933
1
1.06143
1.11383
1
1
1.11864
1
1
1.08734
1.1189
1.11411
1.11902
1.11889
1
1.1186
0.926327
1.11892
1
1.00372
0.890958
1
1
0.915075
1
1.04166
1
1.11924
1
1.11672
1.07731
0.88855
1
1
1
1
1
1.11887
1.003
1
1.11989
1
1.11829
1.11839
1
1
0.990743
0.999955
0.886589
0.884516
0.911305
1.02608
1
0.999534
0.899978
1.00001
1
1.11884
0.983027
1.11152
1.10549
1
1
1
1
1
1.11877
1.11883
1
1.11902
1
1.11969
1.08492
0.998992
1
1
1
1.07171
1
0.987491
1
1.1191
1
1
1.11862
1
1
1
1
1
1.11877
0.888431
0.998859
1.10765
1.11858
1
1.11858
1
1
1
1
0.911988
1
1.11875
1.11891
1.11856
1.12006
0.987186
1
1.1021
1.03265
1.11977
1.11834
1.0243