/*--------------------------------*- C++ -*----------------------------------*\
  =========                 |
  \\      /  F ield         | OpenFOAM: The Open Source CFD Toolbox
   \\    /   O peration     | Website:  https://openfoam.org
    \\  /    A nd           | Version:  12
     \\/     M anipulation  |
\*---------------------------------------------------------------------------*/
FoamFile
{
    format      ascii;
    class       volScalarField;
    location    "8";
    object      p;
}
// * * * * * * * * * * * * * * * * * * * * * * * * * * * * * * * * * * * * * //

dimensions      [1 -1 -2 0 0 0 0];

internalField   nonuniform List<scalar> 
22702
(
1
1
0.859433
1
1.05703
1
1.47181
1
1
0.679842
1.47269
1.47337
1
1.47157
0.876486
1
1
1
1.47284
1
1.47181
1
1.4683
0.663493
1.47047
0.645257
1
1.46411
0.663006
0.664314
1
1.47467
1
1
1
1.43497
1.471
1.46913
1
1
0.656436
1
1.23209
1
1.46338
1
1
1
1
0.655766
1
0.653308
1
1.47244
1
1.47515
1
1
1
1
0.63466
1
1
0.668569
1
0.659019
1
1
1
0.646921
1
1.47093
1.28414
1
1.47199
1.49998
0.657201
1.47368
0.655708
1
1.47115
0.657622
1.46825
1.46411
1
1
1
1
0.933083
0.66427
1.47646
1
1
0.694802
1
1.47234
0.693813
1
1
1
1
1.23037
1.47192
0.643737
1
1
1.11181
1
0.658347
1
1.47732
1.47143
1
1
0.642983
0.651361
0.672465
1
1
1
1
1
0.910994
1
1.40054
1.04473
1.47762
1
1.48114
1.47182
1.47088
1.47298
1
0.627367
1
0.664761
1
1
1
1
1.47103
1
1
1
1
1.47426
1
1.02584
1
1
1
1
0.66174
1
1.01086
1
0.655701
1
1
1
1.47526
1
1.47059
0.667704
0.644343
1.46848
1.46601
1
1.07722
1.26601
1
1.46832
0.655954
1.43638
1
1
1
1
1.47193
1.37501
1
1.47123
0.666857
1.47242
1
0.647408
1
0.655887
0.651279
0.999793
1
1
1.46915
1
1
1.47208
1
1.47519
1.47154
0.652665
1
1
0.658697
1.471
1
1
1
1.47122
1
0.666015
1
1
1.47066
1.4718
1.47687
1
1.00004
1
1
1
1.47149
1
0.66135
1.48901
1.47125
1.47079
1
1
1
0.648223
1.47118
1.21503
1
1.47332
0.66045
0.661445
1.47347
1.47003
1
1.4812
0.621112
1.41504
1
1
1
1
1.47205
1
1.27176
1.04335
1
1
1.47178
0.675537
0.757111
1
1.47327
0.671972
1.47875
1
1
1
1
1
1
1
0.653125
0.744127
0.661347
1.47106
1
1
1
1
1.42572
1
0.654381
1
0.630798
0.658739
1.47099
0.652034
1.47183
1
1
1
0.997492
0.6465
0.630648
0.999999
1
0.63435
1
1.47114
0.646982
1
1
1.47194
0.675209
1
1.47148
0.653152
1.47172
1
0.636036
0.997726
1
1
1
0.652908
1
1
0.999999
1.00001
1.01503
1.2832
1
0.657964
1
1
1
1
1
1
1
1.4728
1
1.46948
1
1
1
0.665591
1
1.4736
0.649097
1
1.36347
1
1
1.47274
1
1
1
1.45764
1
1
1.46133
1.47307
1
1.10046
1
1
0.670225
1
1
1
0.691591
1
1
1
1
0.666262
1
1
1
1
1
0.662668
1.00006
1.46994
1
0.999993
1.46796
1.46788
1
1
0.657215
0.829976
1.47166
1
1
1
1.47126
0.644263
1
1.47059
1
1
0.700133
0.703778
1
0.660284
0.663262
1
1
1
1
1
1
1
1.4697
1.11064
1.43892
0.668254
0.904513
1.47038
1
1.47316
1.47151
0.6549
0.79058
1
0.675699
1
1.48217
1
1
1
1
1.47153
1
1
1
1
1
1
1
1.17088
1.4739
1
1.47074
1
1
0.658743
1
1
1
1
1.47135
1.35803
1
1
0.659682
1.47083
1.47168
1
1.47091
1.47212
1.47111
1
0.849144
1
1.47205
0.990037
1.47081
1
0.665081
0.998804
1.47423
1
1
1
1
0.660045
1.47169
1.42633
1
1.47354
1.47172
1.47194
1
1.22001
1.47059
1
1
1.32052
1.06736
1.47055
0.936594
1.47108
1
1.47118
1.47124
1.47186
1.47083
1
1.46443
0.915939
0.892964
1
0.999999
1
1
1.47051
1
1
1
1
1
1.4755
1
1
0.996071
1.47192
1.40575
1
1.3924
1.00004
1
1
1.47053
1
0.996992
1.00452
1
1.47184
1
1.47082
1
1
1.34571
1
1.47146
1.00002
1
1.47319
1
1.47168
1
1
1
1.4721
1
1.46772
1.00001
1.47179
1.47535
1.47122
1.46419
1
1.47227
1.46815
1
0.663194
1.44096
1.33288
1
1.4718
1
0.671987
0.656289
1
1
1
1
1
0.69309
1
1.47081
1.11341
1.47039
1
1
1
1
1
1.47125
1
1.47465
1.27942
0.796127
1
1.00001
1.13249
1.11853
1
1
1.16726
1
0.659507
1.47128
1.47156
1
1
1
1.47651
1
1.00003
1.47207
1.47087
0.94347
1
1
0.653885
1.42745
1
1
1
1
1
1.47207
1.47154
1
1.47407
1.46903
1.47152
1
1
1
1
0.648469
1.47041
1
1
1.4274
1.47047
1
1.44309
1.47991
1
1
1
1
1
1.47142
1
1
1
1
1.46925
1
1.46743
0.664598
1
0.657719
1
1
1
0.996935
0.662384
0.999044
1
1
1
1.06306
1
1
0.863591
1
1
1
1
1
1
1
0.999997
0.936791
0.999999
1
0.997525
1
0.660864
1
1
1
1
1.3495
1
1
1
1
0.649515
1
1
1.44302
1.46981
0.999999
1
1
0.890869
1
1
1
1
1
1
0.941284
1.01219
1.47163
1
1
1
1.47457
0.892266
1
1
1
1.46522
1.46509
1
1.00001
1
1
1
1
1
1
1
0.661193
1
1
1.47149
0.668554
1
1.46943
1
0.663676
1
1
0.657979
1
1
1
1
1
1
1
1.46206
1.47077
1
1
1
1
1.42833
1
1.13625
0.660854
1
1
1
1
1
1
1
1.02877
1
1
1.23947
1
1
1
1.38767
1
1
1
1
0.672515
1
1
0.652219
0.674808
1
1
1.47187
1
0.981605
1
1
1
1.3239
0.647223
1
0.642971
1
0.775043
1
1
1
1.46936
1
1
1.4716
1
1
1
1.4717
1
1
1.47199
1
1
0.655553
1
1.1358
1
1
1.4707
1.47094
1.30946
1.41975
1
0.668678
1
1
1.44945
1
0.651983
1
1
1
1.47181
1
1
1
1
1.27987
1
1.45775
1.47433
0.68879
1
1
0.642716
0.64769
1
1
1
1.32965
1.35746
1
1
1
1
1
1
1
1.19818
1.46225
1.00556
1
1.46565
0.62377
1
1
1
1.25179
1
1.08926
1
1.42879
1.47
1
0.664184
1
1.47326
1
1
1.47157
1.44197
1
1.47834
1
0.665235
1
1
1
1.47148
1.46181
1.41272
1
1.47158
1.47131
1
1.47234
1
1.47007
1
0.671133
0.983758
0.66422
1
1
1
1
1
1.47239
1
1.47196
1
1
1
1.44705
1
0.661751
1.47179
1
0.66008
0.662285
0.655463
1
1.21977
1.03388
1.47419
1.47145
1
0.999999
1
1
1.47167
1
1
1.47157
1.47109
1
1.15747
1.00028
1
0.996672
1.48199
0.858628
1
0.827961
0.659049
0.65981
0.93414
1.46558
1.46536
1.09347
1.47149
1.47078
1
1
1.47552
1.4713
1.4723
1.47231
1
1.47206
0.657282
1.4758
1.47163
1.46823
1.47488
0.866165
0.886385
0.92335
1.47268
0.96052
1.47017
1
1
1.47429
1.47207
1
0.672831
1.46973
1.47098
1
1.47154
1.47153
1
1.47114
0.656092
1.46695
1.4653
1.47257
1.47102
1
1
1
1.4715
1.30388
0.648669
1.47132
0.657167
1.47209
1
1
1
1
1.472
1.47188
1
1
1.47202
0.660217
1.47202
0.659606
1
1.46806
1
0.675384
1.47284
0.728706
1
1.47174
1.47485
1.47252
1
1
1.20063
1.47484
0.66226
1.47187
1
1.47182
0.875337
1.47362
0.661467
1
1.47409
0.682526
1.47417
0.663038
1
1.47151
1
1.47614
1
1.2718
1.45324
1.36764
0.622389
1
1.47408
1
1.47171
1
1.47075
1
1
1.47154
0.981342
1.47518
0.672466
1.44064
1
1.32898
1
1.46989
1.47069
1.46925
1
1.42152
1.4728
1.43531
1.28542
1.48074
1
1.30824
1
1.47305
1
1.0583
1
1.43543
1
1.47201
1.44831
1.44793
1
1.46225
0.65674
1
0.666692
1
1
1
1.47749
1
1.47279
1
1
1
1.47282
1.46525
1.38066
1.4706
1.47333
0.656397
1.46343
1.47232
1
1.40316
1.47147
1.44391
1
1.46909
1.47505
1
1.47767
1.47178
1.47066
1.47234
1
1
1
1.47243
0.634764
1
1.47108
1
1
0.649947
1
1
1.47264
1.47165
1
1.47108
1.47631
1.47274
0.980019
1.4717
1
1.47149
1.47116
1.37757
1
1
1
1.47319
1.47067
1.47144
0.950222
1
1.47708
1.47092
1.47054
1
1.47159
1.47074
1.47202
1.47806
1
1.47198
1.47502
1.40212
1.4732
1.47703
1
1.47684
1.46623
1.47154
1.47517
1.47372
0.646236
1.47144
1.47489
1
1.47141
1.47176
1.47141
1.47195
1
1.47152
1.47111
1
1.47139
1.39238
1
1
1
1.46706
1.47686
1
1
1.24648
1
1.47111
1
1
1.47129
1.47326
1.47246
1.47071
1
1
1
1.32466
1
1.47249
1
1
1.48195
1.46555
1
1.47196
0.650556
1.47117
1.47069
0.709276
1
0.61551
1.40483
1.4761
1.4735
1.47312
0.671369
1.47279
1.4721
0.661809
0.648536
1
1.47185
1.47237
1
1
1.47224
1
1.47712
1
1.4091
1
1.21689
1.47102
1.47417
1.32457
1.41823
1.47773
1.47088
1.4353
1
0.631848
1.47289
1.47327
1.47377
1.00001
1
1
1.47389
1
1.47313
1.47213
0.750153
1
1.47196
0.999939
1
1.00003
1.00005
1.47304
1.47113
0.998456
1
1
1.47183
1.47498
1.47166
1.47941
1.46846
0.642576
1.39525
1
1.46793
1.47215
1.47119
1.46301
1
1.47233
1.4584
1.47415
1
1.47025
1.47158
0.853019
1.47191
1.47
1
1.47062
0.830825
1.47305
0.859774
1.47293
1
1.47151
1.48351
1.47092
1.47089
1.47142
1.46577
1.47281
1.4686
1
0.913976
1.47411
1.47113
0.844444
1.47243
0.975405
1.27837
1.47309
1.47042
1.47447
1
1.47535
1.3044
1.4707
0.914817
1.47458
1.47602
1
0.875238
1
1.46781
1
1.3217
1
1.4518
0.883777
1
1.46982
1.4631
1
1.47505
1.47431
1.46643
1.45862
1.47536
1
1.46966
1
1
1
0.905566
1.47039
1.47328
1.47823
1.47218
1.4816
1.47611
1.4753
1.47212
0.90761
1.03
1
1
1.4798
1.47209
1.47099
1.47113
1.00003
1.23922
1
1.47709
1.43599
1
1
0.763164
1.47152
1
1
0.659698
1.47196
1
1.46464
1.47176
1.47803
1.45352
1.47198
1
0.620764
1.11356
1.47122
1.47167
1
1.47131
1.47277
1.22107
1.0103
1.10119
1
1.47528
1.47201
1
1
0.672521
1
1
1.47142
1.47141
1.47526
1.47169
1.47139
1.47569
1.47152
1.47174
1.47089
1
0.996277
1.4726
1.47236
0.996982
1.47202
1.47229
0.635628
0.68815
1.4699
1.46722
1
1
1.00145
1.47211
1.47239
1.47148
1
1.47263
1
0.846094
1.47492
1.46019
1
1.20427
1.47154
1
1.47201
1
1.47181
1.30821
1.47194
1
1.47048
1.47631
0.659693
1.47221
1
1.47174
1.46229
1
0.633708
1.46916
1.38805
0.997556
1.45972
1.47184
1
0.992549
1.47679
0.997549
1.47147
1
1
1.47315
1
1.47702
1.47243
0.996327
1.37849
1
1.47236
1
1
1
1
1.47091
1
1
1.47129
1
1.47122
1
1.29896
1.47748
1.47277
1
1
0.990546
1
1.47108
1.47173
1.4712
1.4712
1.47232
1.47141
1.47193
1
1.47193
1.47176
1
1.47176
1.47161
1
1.47311
0.930688
1.0584
1.47207
1.47137
1.47121
1
1.4712
1
1.47165
1.47128
1
1.47125
1
1
1
1
1.47146
0.625176
0.997841
1
1.47156
1.46734
1
1.47118
1
1.00443
0.658995
1.47136
0.99961
1
1.4699
0.998371
1.47177
1
0.999762
1
1.4702
1.4755
1.47074
1.47462
0.663091
1.46932
1.47157
1.47174
1.11259
1
1
1.1978
1.47189
0.620087
0.661333
1
1.47136
1.47117
1.47231
1
1
1.47034
1.47203
0.999885
1
1.32855
0.662763
1
1.08004
1.47124
1.47257
0.998227
1.47154
1.47834
1
0.99911
1
1.47564
1.48053
1.18414
1
1.44218
1
1.00196
1.47211
0.647351
1.47066
1.47177
0.996888
0.999909
1.40612
1
0.999686
1
1.47159
1
1.00001
0.621393
1.47257
1.00001
1
1
1
1.47483
1.2618
1
1
0.65475
1.4719
1.26228
1
1
1
1.44786
1.47248
1.46869
1
1
1.4688
1
1.47141
1.47144
1
1
1.47249
1.47081
1.44616
1
1
1.47294
1.4753
1
1
1
1.47408
1
1
1
1.47024
1.47398
1.47499
1
1.47571
1.00003
0.722998
1.47171
1.47253
1
1.47455
1.44672
1.47364
1
1
1.47369
1
1.24473
1.47159
1
0.66081
1
1.47298
1
1
1.47482
1
1
1
1.14136
1.47062
0.713076
1.00001
1.47268
1
1
1.47003
1
1.47212
1
1
1.47065
1.47241
1
1.00005
1
1
1
1
1
1
1.47339
1.47187
1
1.46531
0.654681
1.46844
1
1.47189
1.46803
1.47235
1.46398
1.47801
1
1
1.47451
1
1.2947
1.47503
1.47088
1
1.47695
1.46271
1
1.42164
1
1.47176
1.30347
1.4735
0.997472
1.45915
1.43022
1.47404
1.47208
1.03653
1.47102
1.47488
1
1.47078
1
1.47112
1
1
1
1
0.996812
1.47107
1.47154
1.38845
1
1.47398
1
1
1
0.618405
1
1.46147
1
1.42675
1.451
1
1
1
1.45539
1.4817
1
1
1.47265
0.662684
1.07075
1
1.47204
1.47143
1.42909
1.46225
1.47105
1
1.46991
1
1
1
1
1.47025
1.47171
1
1.45772
1.05013
1.46927
1.43709
1
1
1.43851
1
1
0.664437
1.32661
1
1
1.47746
1
1.47519
1.42659
1
1.42465
0.660642
1.47194
1.47223
1.47251
1
0.663717
1
1
1
1.47041
1.37511
1
1.47845
1.47029
1
1.47183
1
1
1
1
1.47075
0.999361
1
1.47261
1
1
1.46878
1.47124
1
1.47676
1.09067
1.00002
1
1.47
1
1.47022
1
1.01334
1.47185
1
1.46871
1
1
1.13802
1.47033
1
1
1
1
1
0.995917
0.655817
0.622867
1.01804
1
1.02013
1
1.02393
1
1.47153
1
1.27568
1
1.47223
1
1
1
1.47211
1
1.36225
1.47108
1
1.25193
1.47232
1
1
1.47777
1.47205
1
1
1.0452
0.62734
1
1.47256
1
1
1
1
1.07462
1.47283
1
1
1
0.680976
1
1.47143
1.47257
1.48439
1
1
1
1
1.23516
1.47411
1
1
1
1.47289
1.47128
1.04838
1
1
1
1.4708
1.47117
1
0.65182
1.47282
1.47142
1.47318
1.47277
1.47219
1
1
1.47474
1.46996
1.4715
0.671342
1.04003
1.47152
1
1
1
1
1
1.4713
0.659238
1
1
1.47153
1.20612
1
1.47487
1
1
1
0.653669
1
1
1.12113
1.47325
1.47156
1
1.47575
1.47186
1
1.07373
1
1.47817
1
1.47261
0.663673
1
1
1
1
1.47244
1.00007
1
1
1
1.44524
1
1
1
1
1.47158
0.654562
1.36712
1.47347
1
1.47204
1
1
1
0.997072
1
1.46833
1
0.8007
1
1
1.00003
1.47218
0.659092
1
1.47321
1
1.47368
1.47178
0.682264
1
1
1.46303
1
1
0.661086
1
1.47036
1
1.44837
0.999292
1.47068
1
1
1
1
1.46615
1
1
1.47145
1
1
1
1
1
1
1
1
1.30122
1
1.14662
1.46988
1
1
1
0.654572
1
1
1
1
1.46939
1.47201
1.05048
1
1
1.47271
1
1
1.47056
1
1.00002
1
1
1
1.00001
1.47081
0.775985
1.47127
1.47274
0.997139
1
1
1
1.27421
1
1
1.47271
1.47132
1
1
1
1
0.668493
1
1
1
1.3072
1
1.47111
1.47533
1
1.47335
1
1
1
1.25281
1
1.47226
1
1.47127
1
1
0.996213
1.4712
1
1
1
1
1
1.47247
1.00002
1
0.666305
1.47571
0.661943
1
1.47146
1
0.995945
1
1.47313
1.47488
1
1.46849
0.873177
1.47127
1.46466
1.00003
1
1
0.654686
1
1
1
1.47166
1.2707
1.47402
1
1
1
1
0.996789
1.4709
1
0.664366
1
1
1
1
1
1
1
1.47848
1.47424
1.4634
1
1
0.9969
1
0.981813
1
1
1
0.627903
0.97382
1
0.646604
0.654119
1
1.47265
1.47112
1
1.47055
1.47192
0.661579
1.3308
1
1
1
0.663064
1.47013
1
0.659724
1
1.48253
1.0738
1
1
1
1
1.47142
1.47113
1
1
1.47128
1
1
1.4713
1.47145
1
1.43782
1.47165
1.47201
0.967885
1.47281
1.00844
0.662732
1.35983
1.47205
1
1
1
0.650495
1
0.656888
1.47799
0.964712
1.47154
0.939323
1
1.47043
1.20926
1
1
1.47094
1
1.1922
1.47217
1
1
1.46974
1.48047
0.649671
1.28338
0.999889
1
1.27823
1
1.47806
0.935142
1.48562
1.47923
1
1
1
1
1.47175
1
1
1.47405
0.999634
1.47034
1.39564
1.47024
0.662979
1
1
1
1
1.47061
1.00004
1.4688
1
1.4702
1.47539
1.05899
1.47722
1.14758
1.47069
1
1.31953
0.670893
1.47775
1.47084
1.37318
1.07444
1.47152
1.47112
1.47006
1.46947
1
0.920006
1.06276
1
1.47109
1.21917
1.4714
1.00003
1
1
0.702837
1.47228
1.47143
1.38086
1
1.17449
1
1.47233
1.47299
1
1.47015
1.47169
1
1
1
1.46986
1
1.18034
1.47546
1.32095
1
1.47092
1
1
1
1
1
1
1
1
1
1
0.711072
1
1.43502
0.644238
1.27232
0.998565
1.47357
1
1.24172
1.00001
1.29885
1.39931
1
1.00272
1.47338
0.90935
1
1.47069
1.47504
0.946828
1
1.47163
1.47035
1.47425
1
1.47178
1.46947
1.47295
1
1.2186
1
1.00005
1.4714
1
1.46932
1.06602
1.46804
1
1
1.47411
1.46996
0.672865
1
1.47392
1.35181
1.47097
1
1
1.4719
1.47391
0.998228
1
1.40759
0.996814
1.47092
1.00005
1
1
1
1
1.20686
1
1.36395
1.47755
1.34749
1.47314
1
1.00445
1
1
1.47162
1
1.47431
1
1
1
1
0.999999
1
1.05169
1.23368
1
1
0.626361
1
1.47178
0.713583
1.47541
1
1.24345
0.99975
1.47052
1.29239
0.666373
1.25467
1.00003
1.47168
1.46959
1
1.2781
1.47153
1.47241
0.998405
1.47658
1.45822
0.633382
1
1
0.997021
1
1.46622
1
0.660868
1.47537
1
1
1.41508
1
1.47693
1
1.46996
1
0.684579
1
1
1.47478
1.47773
1.47645
1
1.47321
1.47103
1.46804
1
1
1.46011
0.999999
0.723476
1
1
1
1.46983
1
1.47094
1.3018
1.47266
1
1.47127
0.999373
1
1
1
1
1
1
0.718606
1
1
1.47105
1
1.47635
1.47326
1
0.677663
0.655251
1
1.47314
1.07137
0.659848
0.635293
1
1.47132
1
1.47334
0.686599
1.00113
1
1
0.999515
1
1
1
0.999914
1.19318
1.47274
1
1
1.47267
1.26874
1
1.4402
1.47239
1.47391
1.19325
1.46997
1
1.47153
1
1.45892
1
1.47788
1.46879
0.997203
1.47172
1.47039
1
1
1
1
1
0.917313
1.47149
1.00004
1.00003
0.648052
0.999984
0.62453
0.620022
1
1.46952
1.47267
1.47111
1
1.47103
1
0.663932
1
1
1.47137
0.838012
1.47242
1
1.47005
1
0.979044
1.47365
1
1
1
1.47289
1
1.47112
0.652129
1
1
1.27112
1
1
1.25621
1
1
1.46929
1
1
1
1
1
1.47838
1.4721
1
1.47175
1.47275
0.657448
1.2104
1.47379
1
1
1.42287
0.998911
1
1
1.4716
1.47042
1.31387
1
1.47084
0.673523
1.43594
0.999731
1
1.47346
1.00003
1.47301
1.40396
1.35697
1
1
1.47096
0.743258
0.640798
1
1.47208
1
1.47214
1
1.27637
1
1
1.47013
1.30084
0.660364
1
0.998096
1
1
1.02678
1.19037
1.4711
1
1.48006
1
1
1
1
1
1
1.06681
0.663239
1
1
1.03271
1
1
1
1
1
1.47185
1
1
1.47223
1.47061
1.33364
1
1
1
0.842149
1.47457
1.32251
1
1
1
1
1.47166
1
1
1
1.47459
1
1
1.32833
1.48568
1.03057
0.754229
1.47311
1.32874
1.47126
1
1.22698
1
1
1
0.63579
1.00258
0.663456
1
0.672707
0.644346
1
0.653889
1
1
1
1.19765
1
1.47257
1.47153
1.00141
1.22848
1.39968
0.637288
0.763519
0.863853
1
1.47148
1.46747
1.47141
1.47191
1.40077
0.872604
1
1.40516
1
1.4528
1
1
0.996337
1.00953
1
1
1
1.47146
1
0.621722
1
1.4745
0.654783
1
1
1.47137
1
1.47153
0.999641
1
1
1.47221
1.4161
1
1.49166
1
1
1.01495
1
1.21512
1
1
0.654276
1
1
1.47356
0.999999
1.471
1
1.00003
0.644452
1
1
0.651441
1.00089
1
1.4683
0.638468
1.47572
0.662755
1.47242
1
1
1
1
1
1
1
1
1
1
1
1.45145
1
1.4731
1.47034
0.663958
1
1
1
1
1
1
1.45805
1
1
0.661055
1
1
1.46736
1
1
1.16961
1.39052
0.657462
0.666632
0.701524
0.737604
1
0.996654
0.654206
1.00032
1.44822
0.996899
1
1
1.46897
1
1
1
0.748049
1.00001
1.15892
1
1
1.18775
1.47012
1
0.639687
1
1
1
0.996478
1.00001
1.46905
1.47302
1
0.653547
1
1.25307
0.665434
1
0.876565
1
0.995965
0.634988
1
1
1
0.995581
0.674948
1
0.667273
0.998404
1.23978
1.42046
0.666981
0.6577
1
0.991437
1
0.998668
1
1.47216
1.47194
1
1.01985
1.47053
1.4711
1
1
1.47262
1
1
1.00005
1
1.47536
1
1
1.01793
1
0.99857
0.721305
1
1
1
1
1
1.47541
1.02902
1.00005
1
1
1
1
1
1.00003
1
0.660425
1.10772
0.99861
1.45718
1.47278
1
1.01568
1.4708
1.40686
1
1
0.627507
1.47226
1
1.47099
1
1.47349
1.33251
0.655873
1
0.664451
1.43603
0.999683
1
0.662267
0.62732
1
1
1.39449
1
0.999998
0.657305
1
1
1
1.1482
1
0.663873
1.47203
1
1
1
1
1.47212
1
1
1.46858
1.42158
1
1
1
1.46969
0.647253
1
1.473
1.47154
1
1.37386
0.999999
1.00003
1
1
1.44203
1.01929
1
0.64772
1.25564
1
1
0.996977
1
1
1.47127
1
1
1.00003
1
1.47192
1
1
1
1
1
1
1.00002
1.20932
1
1.46949
1
1
1.47364
1
1
1
1.47127
1.47096
1.0472
1
0.997566
1
1
1
1
1.47163
1
1
1.47195
0.659917
1
1
1
1
1
1
1.37738
1
1
1.46975
1.47164
1
1
1
1.47223
1.47259
1
0.999695
1.46661
1
1
1
1.00002
0.638319
1.02943
0.995994
0.996381
1
1
0.643842
1.47314
1
0.648503
1
1.46914
1.45173
0.657314
0.999411
1.47105
1.47216
1.47268
1
1
0.905391
1.42335
1.40302
0.635743
1
1
1
1.47023
1.47156
0.649298
0.9973
1
1.47157
0.630095
1
1.46917
0.66344
0.969989
1.00651
1
1.4754
1
1
1
1
1
1
1.00011
1.43791
1
1
1.47649
1
1
1
1.47273
1
0.659784
1
1
1
1.16192
1
1
1
1
1
0.782669
1
0.638914
1
1.47257
1.00006
0.864189
0.872641
1.00002
1.00525
1.23632
1
1
0.660173
1.47291
1.47174
1.47228
1
0.651581
0.640941
1
1.47086
1
1
1
1
1
1.00003
1
0.659336
1.28944
1
1
0.655372
0.981797
1.00001
1
1
1
0.633318
1
0.672947
1
1
1.4718
1
1
0.659553
1
1.47124
1
0.635442
1
0.663983
1
1.00733
1.47068
1.48973
1
1
1.46978
1
1
1.1033
0.996756
1
0.998182
1
1.47181
1
0.66057
1.00002
1.47166
0.998894
1
1
0.773529
1
0.999048
0.660277
1.47254
1.16959
1
1.00001
0.919969
1
1
1
0.767748
1
1
1
1.47117
1
0.65795
0.999999
1
1
1
0.656663
1.47192
1.42341
0.660472
1
1.47997
1
1
1.47145
1.4711
1.39465
0.655369
0.99766
0.999222
1
1.47201
1
1
1
1
1.47118
1.00004
1
1
1.47217
1
1
1.47091
0.650608
1
1
1
0.660795
1
0.999999
0.999999
0.998606
1
1
1
1
1.37548
1
1.47304
1.47103
1.48427
1.47146
1.47346
1.47147
1
1.47057
1
1.4726
1.47136
1
0.998839
0.647573
1.40076
0.999908
1
1
1
1
1.00294
1
1.0703
1
1
1
0.858928
1.47179
1.47188
1.47634
1.41679
0.999882
1
1.02223
1.47297
0.997846
1.05668
0.997159
0.694474
1
1.00002
1
1
1
1
1
1.47072
0.65719
1.47318
1.47202
0.994785
0.665205
1
1
1
1.47086
0.65111
1.41358
0.654595
1.47229
1.47655
0.665457
1.47196
1.02344
1
1.4736
0.782345
1
0.998776
0.62981
1
0.66268
1
1.47102
1.47173
0.752026
1
1.46983
0.689804
1
0.652248
1
1.47163
1
1
1.47339
1
0.839346
1
0.999665
0.663162
1.4746
0.999484
1
0.631932
1
1
1
1
1.25162
1
1.47222
1
1
1.48374
1
1
1.47333
1
0.646791
1
0.659507
1.00001
1
1
1
1
1.45105
1.25937
1.47088
1
1.471
1.43808
0.636296
0.631133
1
1
1.47214
1
0.641262
1
0.98416
1
1
1.47073
1
1.4746
0.643619
1.47208
1
0.646957
1
1
1.47128
1.46991
1
1.00004
1
1.46489
1
1
0.629938
0.999382
0.637916
1
1
1
1.47338
1.48044
1.47067
1
1
0.644722
1
1.47662
1
1
1
1.44295
1.47124
1.47152
0.665304
1.4712
1.47192
0.671705
1.47066
1.00004
0.683898
1.01317
1
1
1.46985
0.669996
1.2905
0.670422
1.47146
0.997502
0.652391
1.47328
1
1
1
1
1.47132
1.4702
0.660614
1
1.00002
0.664321
1.00004
1
0.679709
0.641084
1.32644
1.47202
0.998492
1.47122
1
1.47096
0.817288
0.661571
1.47081
1.47425
1
1.46867
1
1
1.47197
1
1.36063
1.4708
1
1
1
1
1.47191
1.46619
1.47301
1
1
1.47007
1.4752
1.47358
1
1.47202
1
1
1
1
1
0.661809
0.848977
0.643598
1
1
1.47264
1
1
1.47001
0.656812
1
1.47214
1.4664
1.44945
0.631998
1
0.666565
1
1.00003
1.47133
1.22117
1.47272
1.43036
1
0.638206
1
1.46983
1.3347
0.660397
1
1
1
0.791416
1
1
1.47107
1
0.661145
1.47278
1
1
1
1
1
1.37586
1.10765
1
1.47085
1
1.47084
1
0.99721
1
1.47216
1.46791
1.47246
1.47514
0.999587
1.4726
1
1.47127
1.47233
1.39575
1
1
0.627788
1.47507
1
1
1.47517
1.46873
1.47232
1
1.47304
1
1
1.00003
1.46747
1.47414
1.13462
1.09482
1.47054
1.47115
0.676005
1
1
1
1
1.00002
1.16001
1
1
1.38916
0.644138
0.999965
1
1.47157
0.999882
0.999818
1.06851
1.4141
1.47532
0.907788
1
0.636363
1
1.00319
1.47045
1.47492
1.46967
0.999021
1
1
0.653316
1
1
1.47058
1.04965
1
1
1
1
1
1
1
0.999934
1.47149
1.00002
1
1
1
1
1.2912
1
1.21635
1
1
1.47094
1.47948
0.654614
0.99879
1
0.999999
1
0.65627
1.47221
1.4714
1
1
1
1
1
1
1
1
1.4735
1.45905
0.644286
1.04996
0.657918
1
0.644049
1
1.47234
1.12024
1
1
0.735645
1
1.44944
0.795931
0.996697
0.657171
1
1
1.46961
1.00004
0.997257
0.648194
1.47264
1.48156
1
1
1
1
1.43866
1
1
1.47109
0.998933
1.47023
1.00006
1
1
0.651442
1
1
1.47332
0.656451
0.765307
0.665543
1.4729
0.999334
1
1.47797
0.67078
0.6599
1.01509
1
1
1.47169
1.00004
1.21237
1
1
1.47104
0.665442
1
1
1.00014
1.46904
1.00016
1.45141
1
1.00003
1
1
0.746771
1
0.798812
1.00001
1
1.4712
0.648061
1
0.769745
0.776943
1
1
1.47317
1
1
1
1.47076
1.47124
1.00005
1.45562
1.47157
0.792921
1.47159
1.44848
1
1
1.46617
0.999999
1
1
1
1
1.47227
1.47007
1
1
1
1.47364
1.00021
1
0.662728
0.734106
1
1.00003
1.17152
1
1
0.890096
0.674554
1
1
1
1.47926
1.43141
1.47167
1
1
1
1
0.624545
1
1.46145
1
1.46533
0.649944
1.47347
1
1
1
0.662578
1
1.47024
1.00003
1
0.664636
1.16848
1
0.999675
1.47386
0.641931
0.650995
1
1.47318
0.66436
0.662242
1
0.634781
1.00001
1
1
1
0.672668
1
1
1
1
1.46986
1
1.35962
0.634919
1
1
1
0.660095
1.47245
1
1
0.996788
1.46851
1
1.47319
1.47009
1
1
0.728703
0.663661
1
1
0.658468
1.13604
1.21251
1
1
1.46805
0.997338
1
0.997281
1.47355
1
1
1
1
1
1
1.47461
1
1.15762
1.14787
0.689831
1.41525
1
1.47116
1.47154
1
1
1
0.919703
0.655832
1
1.22387
0.999647
1.41054
1
1
1
0.999999
1
1.00923
1.20841
1.47291
1.47241
1
1.47074
1
0.660045
1
0.997412
0.999779
1
0.635813
1
0.657681
1.00002
1.4742
1.47174
0.649323
1.47358
0.634439
0.996209
1.367
0.664521
1.34261
1
1
0.998418
1
1
1
1.00006
1
0.635426
1
1
1
1
0.999614
1.47069
0.793366
1
1
1
1.03827
1
1
1
1.26951
0.746545
1
1
1
1.047
1.47455
1
0.674299
1
1.47319
0.886766
0.699096
1
0.648666
1
1
1.44582
0.998277
1.42667
1
1.00829
1
1
1.47246
1
1
1
1
1.09263
1
1.47157
1.47311
1.47543
0.656233
1.47088
0.997089
1.38164
1
1
0.628934
1
1
0.658039
1.46481
1
1
0.999962
1
1
1
0.645704
0.65614
1
1.4671
1
1.22473
1.47124
0.659018
1.3734
1
1
0.684775
1
1
1.47155
1.47155
1.16593
1
1
1.00228
1.47181
0.660646
0.657337
1.47317
1.47104
1.3128
1.18326
1
0.893038
1
1
1
1.44219
1.4761
1.47107
1
1
1.4719
0.647796
1.42122
0.638378
1
0.659143
1
0.649438
1.47123
0.645964
1
0.968909
0.702386
1
1
1
0.824901
1.42311
1.47147
1.47186
1.46631
1
1
1.47109
1
1
1.4732
1
0.665322
1
0.651228
1
1.47085
1
1
1.02287
1.35528
1
0.998685
0.675985
1.47166
1.00001
0.661674
1.0831
1
1
1.3495
1.47178
1.4711
1
1.47
1.1234
1
1.02306
1.47163
1
1
1
1
1.47135
1
0.635134
1.47157
0.666612
0.641798
0.822935
1.47025
1.16166
1.47259
1
1.46625
0.99748
1.00003
1.47267
1.47092
1
1.46658
1
1.47295
1
1.47197
1
1.00004
0.999988
1.46525
0.646136
0.666684
0.997893
0.999999
1
1
0.656395
1
1.30231
1
0.641994
1
1.18209
1.47326
1.4691
1
1
1.00003
0.999415
1
1.47083
1.4718
1
1.19729
1.46899
0.853964
1.47154
1.00093
0.648853
1.09415
0.673626
1
1
1.07527
1.47137
1
1
1.04147
0.998543
1
0.635094
1
0.778346
1
1.47162
1
1
0.664304
1.10754
1.06287
0.998493
1.47062
1.47126
0.772409
0.998083
0.642689
0.657403
0.651648
1
1
1
0.999045
0.705605
0.643681
1
1.47178
0.999742
1.47111
1.47075
1.47212
1.47177
1
0.660067
1.46943
0.679743
1
1.4752
1.46927
0.996573
0.813032
1.47651
1.33453
1
0.663109
1
1
1.47415
1
1.02693
1.47177
1
0.638414
0.62703
1
1
0.657547
0.677129
1.47131
1.00003
1
0.618737
0.65216
1.47751
1.45244
1.44101
1.47352
1.11995
0.972242
1.18797
1.47944
1.35236
1
1.23813
1
0.65126
0.842239
1
0.637859
1.47153
1.02187
1.47328
1
1.47252
1.47193
1
1.47054
1.47076
0.662867
1.47716
1
1.47571
1
0.740118
0.65174
1.47308
1
1
1
0.653454
1.46877
1.47284
1
0.656962
1
1
0.636315
1.00004
0.644264
1.472
1
0.803986
0.682242
1
1
1.25999
1
1
1
1.07011
0.655001
1
1.00001
1
1.47907
0.66347
1
1.47196
0.667725
0.674147
1
1
1.48081
1
1.47337
1.00001
1.4725
0.65907
1
1
0.663901
0.815827
0.649555
1
1
1
1
1.47481
0.635126
1
0.656997
1
1.474
1
1
0.931115
1
1
0.801598
0.999682
1.00005
1
0.667161
0.666921
1
1
1
1
0.787174
1.47001
1.4705
1
0.649535
0.681546
0.886153
0.660444
1
0.834127
1
0.671412
0.969919
1
1
0.664143
1
1.47052
1.467
0.652995
1
1
1
1.46955
1
1.04254
0.825065
1.15059
0.652478
1.1976
0.660763
1
1
0.696936
0.905289
1
1.04169
1
1
0.659985
1
0.933486
1.04254
0.659354
1
1.40236
0.728769
0.881334
1
1
1
0.662651
1
0.653287
0.658632
1
0.868021
0.649993
1.06637
0.726379
0.635221
1.47257
1
1.47108
1.25305
0.739078
1.47086
0.641459
0.999026
1.47263
0.999999
1
1.4742
1
0.726974
1
1.06243
1
1
1.47108
1
0.793443
0.81163
1.47216
0.932628
1
0.766663
1.47204
1.47288
0.91212
1
1.47192
1.11765
0.855666
1
1.01798
1
0.659234
1.20046
0.767789
0.747785
1
1
0.653471
1.47383
0.961251
0.661989
0.643744
0.843093
1
1.02579
1.47279
1.47106
1
1
0.999999
0.657918
1.21806
0.999993
1.47035
1.42206
0.65787
1.00001
1.09814
0.879385
1.28405
1.43173
1
1.04227
1
1.00005
0.624266
0.843872
1
1
0.803086
0.623823
1.04006
1
1.00001
0.65333
1.20603
1
1.46918
1
1.03544
1.25497
1
1.45982
1
1
1.46661
1
0.654463
1.47147
0.721339
1.12402
1
0.650258
0.99991
1
1.00003
1
0.798852
1.02589
0.663527
1.34136
1.4713
0.642423
1
1
1
1
1
0.967133
0.644504
1.04693
0.665997
0.654971
1.0757
1
0.999815
1.1108
1
1
0.672702
0.99186
1
1
1.12705
1
1.47274
1
1.47149
1.09628
1.02362
0.657489
1
1
0.667952
1
1
1
1
1.47242
1.04527
0.998054
1
0.658747
1.05216
0.999999
1
1.30133
1
0.654502
1.47291
1
1.00001
1
1.47415
0.6505
0.872667
0.644131
1.35464
1.47642
1
1
1.47231
1
0.675165
1
1
1
1
1
0.762624
1
1.47164
1
1
1.16187
1.47258
0.661895
0.874157
1
1.46844
1
1
1
1
1
1.4716
1.47157
0.675236
1.4714
0.644491
1
1
1.4718
1
1.47298
1.00526
1.02719
1.06062
1.47115
1.07234
1.31485
0.635266
1
0.641581
0.991072
1
1.47182
1
1
0.655752
1.47916
1
1.47178
1
1
1
1
1
1.00001
0.655568
1.47059
0.856112
1.47122
1
0.648525
0.676531
0.723128
1.46252
1.47066
0.95613
1
0.81318
1
1.18182
1
1.47214
0.653046
0.667326
0.853684
1
1.47308
1
1.07645
0.670586
1
1.47018
1.42378
0.998849
1
1.47292
0.652373
1.47262
1.47188
1.46693
0.656965
1.09603
1
1
0.641412
1
0.823452
0.843236
1
1.00002
1.4698
1
1.4802
1.08921
1
1.03979
1.47621
1
0.644934
1
0.777945
1
1
1.38636
1
0.804804
1
0.65826
1.03697
0.940286
0.662375
1.47153
1.38587
1.47393
0.663946
0.704576
0.995811
0.999999
1
0.688049
1.44416
0.66334
0.999963
1
1.47133
1.4706
0.891049
1
0.657028
0.695354
1.31219
0.978318
0.65502
0.999999
0.665843
1.11832
0.660476
1
1.00006
0.79912
1.47367
1.47222
0.818048
0.99959
1
1
0.710108
1
0.651775
1
0.682699
0.653661
1
1
1.00003
0.663374
1.47077
1
1
1.00007
1.00004
0.68429
1.47359
1.47065
0.999999
0.664874
1.47441
1
1.10022
1
1
1.47926
0.65309
1
1
0.668227
0.76128
0.657893
0.662345
1
0.675307
0.997091
1.09089
0.661034
1
1
1.12772
1
1.41857
1
1
1.32671
0.677126
1
0.682114
1.12556
1.47111
1
1
0.655709
0.640594
0.635713
0.708723
0.643452
1.35009
0.999424
1
1
1
1
1.46971
0.659528
1
0.940515
0.999676
0.998939
0.999944
0.743212
1.12576
1
1.47181
1.47292
1
1
1.45015
1.00005
0.999999
1.47246
0.654027
1.47794
0.999999
0.640669
1.47185
1.00005
1
0.824436
1
0.636925
1
1.47208
1
1
1.47503
1
1
1.4785
1
1
1
1.47571
1
0.740874
0.718657
1
0.634713
1.47046
1
1
0.97241
1
1.47488
1.26771
1.37635
1
1
0.685738
1
0.671611
1.47119
1.47311
1.47097
1
1.47052
0.652877
1
0.679881
1.38102
1.42288
1.47019
1.4742
0.748127
0.650828
1
1.30563
1.47065
1.47458
1.47131
0.769694
1.16858
1
1.35355
0.760943
1
1.00002
1
1.00002
0.908955
1
1.46931
1
1
1
1
1
1
1.00006
1.46945
1
1.47733
1.34715
0.664663
1.47089
1.02859
1.23175
1
1.4723
1
0.654725
1
1
1
1
1.40769
1
0.639931
1.47214
0.637418
1.47125
1.38349
1.23627
1
1.08505
1.21769
0.995544
0.698248
0.796146
1.00002
0.999999
0.922041
1
0.661496
1.47191
0.629377
0.912218
0.864191
1
1
1
1.01326
1
1
0.675144
0.99686
1.47573
1
1.47139
1
0.655577
1
1
1.47158
1.47285
0.644215
1
1.47049
1
0.821657
0.653634
1.47418
1.4222
1
1.07532
1.47214
0.998663
1
1.19597
1.41215
1.47353
0.995815
1
0.999998
1.40186
1
1
1
1.47052
0.998472
1
1
1.47136
1
1
0.658366
1
1
1
1.47339
1
1
0.87308
1.13606
1.42639
0.788715
1
1.47188
1
1.15776
1
1.46643
0.997196
1.47107
1
0.653513
1
1.32358
1
1
1.43624
1.00001
1.47118
1
1.4744
0.680299
0.665464
1.47095
1
1.39009
1
1.47242
1
1
1.00005
1.47495
1.46982
1.12169
1.47116
0.995496
0.662565
1.47157
0.858983
1
1.46882
1
1.47043
1
1.47332
1.47117
0.996211
0.647128
1
1.47187
1
1.03013
1
1
0.997982
0.746095
1.41601
1
1.42547
1
0.888474
0.650292
1.47304
1.47174
0.720058
1
1.46968
1.46914
1.46736
0.70587
1.47221
0.697954
1.47118
1.481
1
1
1.4709
1
1
1
1
0.658086
1
1
1.47301
1.47172
1
1.47218
1
1.47115
1.47367
1
1.39059
1
0.638799
1.47262
1.33302
1.12844
0.63583
1.47166
1
1
0.648837
1
1
1.47213
1
1
0.798934
1
1.473
1.00009
1.47231
0.643863
1.47018
1
1.46956
1.45237
0.90907
1
1.47248
0.766291
1.47281
1.32837
1.47062
1.46727
0.997315
1.47129
1.47291
1.47106
1.47141
1.00084
1
0.650621
1
1.47624
0.838791
1.42811
1
1.46309
1
1
1
1
1
1.46904
0.65049
0.684569
1.46978
1.47187
1
1
1
1
1
1.46807
1.42691
1.47228
1.0156
1
1
1
1.00003
1.47
1.47139
1
1.47206
1.47235
0.651173
1.3256
1
1.47137
1.47358
1.46803
0.997935
1.47183
1.47168
1
1.43383
1
1
1
1
1
1
1.47253
1.47132
1.43574
1.47072
0.649565
0.691052
1.47181
1.47199
1
0.646684
0.9247
1
1.2198
0.652794
1
0.999464
0.998295
0.661009
1
1.47396
1
1
1
1.47066
0.947831
1
1.47129
1.47073
1
1.47393
1
1
1.47135
1
0.655669
1
1.46679
1
1
0.646802
1
1.47523
1
0.638693
0.633942
1
1.46722
1
0.639105
0.89236
1
1.47223
1
1
1
1.47603
1
0.656481
1.06596
1.47227
1.4731
1.47127
1.03741
1.47318
1.47252
1
1.00002
1
1
1.00001
1.47159
1
0.999316
1.47556
1
0.644841
1
1.47086
1.21712
1.04417
1.21681
1.0601
1.47181
0.714015
1.47181
1
0.668421
0.997006
1.47056
0.934145
1.47054
1.47066
1.46211
1
1.47112
1.47103
1.47178
1
1.00003
1
1
1.47416
1.33107
1
1
0.665716
0.996715
1
1.47383
1
1.47164
1.47301
1.47041
0.897096
1.4723
1.47081
1.00919
1.22912
1.47296
1.47064
1
1.43405
0.850085
1.45276
0.991587
1.47076
1
1.47101
1.46905
1
0.65432
0.930689
0.707002
1
1.08006
0.99672
1.47109
1
1
0.996443
1
1.23052
1.45565
1
1
1.47193
1
1
1.32726
1.47104
1.45213
1.47015
1.47285
1
1.47234
0.762566
1.47039
1
0.995286
0.656414
1
1
0.733484
1
1.13814
1
1.47415
1
1.46285
1.29469
0.658338
1
1
1
1
1
1.47216
1.01151
1
1.47036