/*--------------------------------*- C++ -*----------------------------------*\
  =========                 |
  \\      /  F ield         | OpenFOAM: The Open Source CFD Toolbox
   \\    /   O peration     | Website:  https://openfoam.org
    \\  /    A nd           | Version:  12
     \\/     M anipulation  |
\*---------------------------------------------------------------------------*/
FoamFile
{
    format      ascii;
    class       surfaceScalarField;
    location    "8";
    object      phi;
}
// * * * * * * * * * * * * * * * * * * * * * * * * * * * * * * * * * * * * * //

dimensions      [1 0 -1 0 0 0 0];

internalField   nonuniform List<scalar> 
67988
(
-0.000338493
0.00034013
-1.66081e-06
-0.00029803
0.000298641
0.000204872
-0.000431091
0.000226524
0.000129873
-0.000289665
0.000160113
-0.000143805
-7.78146e-05
0.000221716
-8.86055e-05
0.000257313
-0.000170819
-7.2309e-05
0.000312156
-0.000238168
-7.94923e-05
-0.000191605
0.000271097
0.000188579
-0.000185741
-2.35806e-06
0.000212218
6.77372e-05
-0.000280757
-0.000316974
6.43452e-05
0.000252905
-0.000277081
0.000116899
0.000160146
-0.000281462
0.000103604
0.000177774
0.00017271
-0.000289168
0.000116458
0.000178208
-0.000133496
-4.41972e-05
-0.000157414
0.000110779
4.53792e-05
0.000236775
-0.000321116
8.43419e-05
-9.63764e-05
-0.000174021
0.000270397
-0.000174623
0.000254875
-8.04313e-05
-0.000309155
0.000200821
0.000109033
0.000216889
-0.000280001
6.31122e-05
-0.000425292
0.000395346
2.99624e-05
-0.000300905
0.00030232
-1.38275e-06
-0.000216623
0.000291733
-7.51103e-05
0.000102816
0.000177185
-0.000280001
-0.000221082
0.00013035
0.000167077
0.000105532
-0.000272609
0.00030659
-0.00030659
-1.12679e-05
0.000120263
-0.000109612
-0.000334558
0.000201149
0.000133303
3.12321e-05
-0.000218144
0.000187089
0.000314606
-0.000195791
-0.000118816
-0.000343369
0.000253096
9.02803e-05
-0.000188972
-6.45788e-05
0.000252915
0.000243393
-0.000283937
4.17875e-05
0.000260663
-0.000348021
8.73507e-05
-0.000206103
6.19289e-05
7.58803e-06
-0.000245197
0.000237609
0.000217278
4.8247e-05
-0.000265706
0.000133925
-0.000320153
0.000186229
-0.000310289
0.000121492
0.000188796
0.000131104
-0.000137296
5.85453e-06
-0.000215741
0.000223329
-0.000208815
-6.87337e-05
-0.000306568
0.000134799
0.000171769
-0.000380921
0.000273834
0.000107082
2.42902e-05
0.000106801
-0.000397412
0.000278121
0.000119189
-7.29021e-05
0.000316406
-0.00027798
6.13566e-05
0.000131085
0.000143827
-0.000275129
-0.000365351
0.000256814
0.000108816
0.000247289
-3.03997e-05
-0.000269795
0.000113767
0.000156723
-0.000326716
0.000326126
1.1018e-06
-0.000445752
0.00024094
0.000204832
-0.000377537
2.36985e-05
0.000353829
0.00028555
-0.000212757
-7.29261e-05
-0.000320838
9.74715e-05
0.00022325
0.000181014
-0.000189197
7.65769e-06
0.000130089
-0.000304361
0.000174273
-0.000207224
-0.000113634
-0.000304165
0.000214229
8.99364e-05
-9.88964e-05
0.000265973
-0.000290603
-1.02719e-05
0.000300999
0.0004443
-0.000285545
-0.000157331
0.000250293
-0.000246177
-4.11602e-06
4.2178e-05
-0.000217
0.000231891
-0.00035163
0.000120158
0.000258175
5.87711e-05
-0.000316667
8.57036e-05
-0.000216457
0.000131531
0.000166888
-0.00016914
1.80811e-06
-0.000197861
0.000328675
0.00028358
-0.000282789
-8.83799e-07
-6.22986e-05
-0.000315225
6.4102e-05
0.000242488
-0.000318725
0.000228061
9.06644e-05
0.000222048
-0.000285156
6.32244e-05
-4.77331e-05
0.000227296
0.000247885
-0.000250293
2.40801e-06
-0.000296774
0.000296012
0.000127046
-0.000284751
0.000155608
0.000132343
3.49783e-05
-0.000322078
0.000234565
8.73534e-05
-0.000318591
0.000214986
0.000103117
0.000340827
-0.000161957
-0.000178869
0.000189761
5.03617e-05
-0.000240149
0.000232257
2.93852e-05
-0.000260615
-0.000292051
0.000221189
0.000158617
3.02689e-05
-0.000173994
-0.000138251
8.93203e-05
-0.000276053
0.000186733
0.000237897
4.18583e-05
-0.000279583
-0.000263125
-0.000134331
-0.000260877
1.40281e-05
0.000246849
-4.43802e-05
-0.000201853
0.000246233
-5.20389e-05
0.000310491
1.92459e-05
-0.000276169
0.000257031
-0.000258861
0.000158419
0.000100669
-0.000173359
-0.000161056
0.000129914
7.8913e-05
-0.00020937
-0.000216775
-3.45848e-05
0.000250834
0.000235828
-6.25638e-05
-0.000173252
0.000192697
8.09483e-05
-0.000273645
-8.01643e-05
0.000272861
0.000243485
-7.07753e-05
0.000252459
-0.000255074
2.61521e-06
-8.56974e-05
-0.000339843
0.000169359
0.000145248
-0.000377321
5.34831e-05
0.00032382
-0.000269277
0.000264601
4.67602e-06
0.000145667
-0.000215003
6.95667e-05
0.000252054
-5.98763e-07
-0.000251618
0.000276005
-3.9231e-05
-6.70141e-05
-0.000310323
0.000329741
-0.000148986
-0.000180756
-0.000186649
-8.49803e-05
0.000271629
0.000148207
8.78026e-05
-7.00387e-05
-0.000203805
0.000273438
8.96831e-05
-0.000245733
0.00015641
-0.000202656
0.000304568
-0.000101912
-0.000271767
-1.06374e-05
0.000281849
-0.000292252
-0.000153274
-0.000304233
0.000438813
-0.000134949
-0.000225065
-4.91962e-05
0.000274261
-0.000232742
-3.93726e-05
-0.000321556
0.000233542
8.85539e-05
0.000287106
-0.000307048
1.91859e-05
0.000203778
-0.000304762
0.000100281
0.000158677
0.000117964
-0.000276641
-0.000278335
0.000106297
0.000171812
0.000315417
-0.000328771
1.36385e-05
0.000328432
-0.000139729
-0.000189368
0.000284511
-3.20523e-05
-0.000127369
0.00012932
-1.47255e-06
0.000199893
7.77563e-05
-0.000277649
-8.44763e-05
0.000284369
0.000235929
5.46282e-05
-0.000290557
-0.000197114
-0.000121777
-0.00029884
8.19957e-05
8.67163e-05
0.000187041
-0.000273757
0.000267412
-0.000113304
-0.000153583
-0.000147314
0.000305267
-0.00015777
0.000279161
9.74404e-06
-0.000288905
0.000150229
-6.91296e-05
-8.13879e-05
-8.83683e-05
-0.000181861
0.000270229
0.000184941
-0.000273309
-8.73603e-05
0.000272301
-0.000167151
-9.77456e-05
0.000264897
-8.05787e-05
-0.000225989
0.000236228
2.0346e-05
-0.000255507
0.000294085
-6.70883e-05
-0.000226997
0.000134715
-0.000130609
-4.24259e-06
-0.000112661
-0.000146174
0.00012562
9.20612e-06
-5.12557e-17
-0.000269277
0.000237861
1.2432e-05
0.000272125
-0.000113817
0.000113116
-0.00011163
-1.48964e-06
-0.000251731
-3.84991e-05
0.000115267
-2.14631e-06
0.000227277
-0.000316205
8.89283e-05
0.000237484
-0.000318437
8.08661e-05
0.000111961
-0.000138439
2.65039e-05
-0.000305322
6.51005e-05
0.00024006
-0.000167444
-5.35259e-05
0.000221468
2.53594e-06
0.000258733
0.000180181
-0.000276557
-0.000336294
0.000242371
9.3748e-05
-0.000327489
0.000203169
0.00012432
-7.72924e-05
-8.07977e-05
-0.000234017
6.68659e-05
0.000187654
-0.000303127
0.000112538
0.000276641
-0.000276641
-8.42429e-05
-0.000209582
0.000293854
0.000109115
-0.000111022
1.7981e-06
0.000113123
-4.0845e-06
0.000270866
1.53974e-05
0.000281383
-0.000202862
-7.84711e-05
7.02494e-05
-0.000238652
0.00016821
-0.000249938
0.000179511
-0.000188022
-8.14224e-05
0.000112181
-0.000113112
9.18178e-07
0.000114675
-2.54039e-06
0.000299155
-9.63356e-05
-0.000203043
0.00023842
7.34618e-05
-0.000310761
-0.000156269
-0.000171221
0.000280147
-0.000272391
-7.82002e-06
0.000352094
-0.000317402
-3.45444e-05
0.000119406
-0.000113434
-5.99133e-06
0.000118469
9.89185e-07
0.00021962
1.76722e-05
-0.000237936
5.25168e-05
0.000299676
0.000175457
0.000123832
-0.000266828
0.000116073
0.000150902
0.000190688
-6.09968e-05
0.000112185
-0.000113519
1.2535e-06
-0.000195148
-6.38655e-05
0.000257709
0.000218684
-0.000318392
0.000100423
0.00011468
-2.55763e-06
0.000234532
0.000210413
-0.000209473
0.000283429
-7.32532e-05
-0.000231049
-0.000164927
0.000395647
-0.000233431
-6.67663e-05
0.000300202
-0.000216532
-0.000164422
-0.000202512
0.000278322
-7.56142e-05
0.000319077
-0.000222594
-9.52647e-05
0.000200264
6.75287e-05
-0.00020439
0.000204154
-0.000297238
-4.12558e-05
0.000201746
7.06513e-05
0.000202217
-0.000282745
8.05283e-05
4.63745e-05
-0.000291124
0.000244845
-0.000178333
-0.000125832
-0.00020764
-0.000174645
0.000382385
0.000111449
-0.000112969
1.50091e-06
0.000113759
-2.25612e-06
-0.000317129
0.000228957
8.81723e-05
0.000268936
-0.000240548
-2.841e-05
-0.000306046
9.84024e-05
-0.0002223
-6.02792e-05
-0.00012658
-0.000139007
0.00026531
0.000328776
-9.06356e-05
0.000296602
-0.00024366
-5.46498e-05
-0.000130968
0.000333518
-0.000202244
9.96431e-05
-0.000319961
0.000220245
0.000117898
-0.000111741
-6.20001e-06
0.000117022
9.12263e-07
9.31564e-05
-0.000275017
-0.00034637
0.000171892
0.000146798
-0.000203154
5.6365e-05
0.000291123
-7.39684e-05
-0.000175478
0.000106249
6.59716e-05
6.83989e-05
0.000170222
-0.000238566
-0.000276794
0.000159277
0.000118012
-1.89189e-05
-0.000298593
-0.000183693
1.73322e-05
-0.000240697
9.58786e-05
0.000145237
-0.000287029
2.61521e-05
-0.000314234
0.000314218
0.000112153
-9.30788e-05
-0.000147016
-0.000241179
0.000156926
0.000157224
0.000183603
-0.000241599
0.000149164
-0.000236701
7.38008e-05
0.000162012
0.000324763
-0.000119705
-9.79106e-05
-0.000143001
-0.00023025
8.8457e-05
0.000142888
-9.49314e-05
-0.00014387
0.000224029
5.51322e-05
-0.000236903
8.22201e-05
0.000155081
-8.30698e-05
-0.000146025
0.000233936
9.41901e-05
0.000110028
-0.000111611
1.74467e-06
-0.000256587
8.34878e-05
0.000174677
0.000110408
-0.000112117
1.74821e-06
0.000113292
-3.29129e-06
0.000112998
-2.70892e-06
-7.47965e-05
-0.000162632
-0.000202077
-5.87442e-05
0.000260821
-7.20335e-05
-0.00018267
0.000302853
-6.42149e-05
0.000162913
0.000166828
0.000195978
-0.000290426
9.43586e-05
-0.000254861
0.000184959
-0.000126752
0.000286179
-0.000159607
-0.000191125
0.000214709
-2.33082e-05
0.000150792
0.000134689
0.000117413
-0.000111243
-6.11943e-06
-8.04125e-05
-0.000217465
0.000116642
6.59788e-07
0.000340089
-0.000173769
-0.000166321
0.00026999
-8.02446e-05
-0.000275214
4.17921e-05
-0.000347198
0.000150569
0.000195263
-8.71363e-05
0.000269305
-0.000182169
0.000264769
-3.20551e-05
-0.000232498
4.60322e-05
-0.000271097
-9.05244e-05
0.000271013
-0.000180489
7.88483e-05
-0.000265497
0.00025224
-0.000298862
4.66262e-05
-0.000151313
0.000285237
-0.000184372
-0.000121881
0.000176213
-0.000313109
0.000137173
0.000174634
-0.000126439
-9.09067e-05
-0.000144311
0.00023361
-0.000146876
0.000369827
-0.000224638
6.61434e-05
0.000217965
-0.000282915
-0.000203937
0.000111356
-0.000352025
0.000202856
0.000276577
-0.000100124
-7.42862e-05
-0.000203952
0.00032325
-0.000111997
-0.00018275
-8.85531e-05
0.000271303
-0.000228873
0.000249845
-2.09721e-05
0.000312298
-0.000313951
1.82267e-06
0.000311537
-0.000218704
-9.28686e-05
0.000107678
-0.000296969
0.000287853
-3.5769e-05
-5.86479e-05
0.000243096
0.000141083
-0.000351697
0.00021197
0.000275633
-4.83562e-05
-0.000340868
0.000109703
0.000334172
-0.000114593
-0.000166566
0.000197481
-0.0002121
-8.80006e-05
0.000300212
7.00862e-05
0.000164331
-0.000234317
-0.000179136
-0.00014198
-0.000266165
0.000193327
7.32408e-05
-0.000372361
6.77516e-05
0.000249313
-0.000146497
-0.000325157
4.51192e-05
0.000280266
0.000125657
5.24781e-05
-0.000186198
0.000320573
-0.000297573
-2.30031e-05
-0.000297465
0.00025477
4.25082e-05
5.37551e-05
0.000245466
-0.000112042
-6.17362e-05
-0.00029408
0.000297742
-3.74642e-06
0.000383881
-0.000247514
-0.000136386
-0.000256425
-7.02608e-05
0.000212386
0.000171394
-0.000220361
1.1228e-05
0.000209133
-7.67455e-05
-0.000233543
-0.000133283
-0.00017556
0.000228775
7.84355e-05
-0.000306128
0.000184086
5.45513e-05
-0.000238791
0.00026738
-0.000201454
-0.000218345
0.000173965
-0.000311893
0.000196029
0.000115864
0.000291584
-0.000291705
-7.50749e-08
1.62464e-05
9.53765e-05
-0.000111618
-0.000142755
0.00026784
-0.000264741
0.000185249
0.000219732
-1.62704e-05
0.000266304
-1.40635e-05
0.000216659
0.000103513
0.000166829
0.00011465
0.000316333
-0.000104224
-0.000212309
-0.000285789
9.07761e-06
0.000276713
-0.000230674
-8.75731e-05
0.000318564
0.00037688
-6.5542e-06
-0.000370627
6.80916e-05
0.000196521
0.000246905
1.69401e-05
-0.000263845
-0.000118664
0.000320881
-8.64363e-05
0.000274681
-0.000188245
-0.000201777
0.000207575
-6.41784e-06
-0.000171501
-0.000147225
-0.000169204
-0.000174166
0.000101866
-0.000334334
0.00023173
0.000203983
0.000101763
-0.000305982
-0.000195777
-7.35563e-05
0.000269333
0.00026411
-7.93665e-05
-0.000182564
-3.64969e-05
-0.000264374
0.000315598
-0.000188869
-0.000126059
-5.16284e-05
0.000304678
9.06364e-05
-0.000282241
9.08311e-05
0.000158634
-0.000249761
-2.14484e-05
-0.000275423
-0.000303459
0.000289241
1.42127e-05
0.000140588
-0.000126395
-0.000121462
0.000251835
-0.000124899
-7.62324e-05
0.000200983
0.000242906
-3.43065e-05
-0.000208618
0.000306708
-0.000207286
-9.04684e-05
0.000271041
-0.000180573
-0.00022706
0.000246406
1.78765e-06
0.00024076
0.00019999
-0.000130154
-2.87915e-05
0.000297203
-0.000268381
-5.29749e-05
0.000290542
0.000332293
-0.000234885
-9.79841e-05
-7.70003e-06
0.000301785
-8.27346e-05
-0.000213993
-0.000104065
0.000312664
-0.00021081
-0.000266131
6.34746e-05
-8.22934e-06
-0.000243322
0.000251559
0.000210631
-0.00027727
6.66318e-05
0.000104406
8.08588e-05
-0.000185815
0.000255021
6.39148e-05
-0.00031802
-6.17193e-05
0.000317581
0.000257629
-0.000222294
0.000307696
-8.5558e-05
-0.000130541
0.000123065
5.69366e-06
-7.22403e-05
0.000254549
-0.000182309
0.000119882
0.000194157
-0.000314003
7.79201e-05
0.000222266
-0.000299306
0.000277033
-0.000199277
1.1967e-05
0.000210752
-0.000271488
0.000109266
0.000162646
0.000189057
-0.000269221
-6.78508e-05
-0.000246937
0.000314186
9.36184e-05
0.000172887
-0.000266505
-9.36098e-05
8.25052e-05
-0.000273337
0.000188861
-0.000270447
0.000114259
0.000155914
-6.43163e-05
0.000272385
-0.000208069
-8.73883e-05
0.000267905
-0.000180517
0.000292838
-6.00465e-05
0.000224309
2.25961e-05
-8.85363e-05
0.000273477
-0.000184941
-0.00021142
0.00031322
-0.000272049
0.000184689
0.000310885
-0.000208534
-0.000102352
-0.000341639
0.000267474
7.45423e-05
-0.000185333
-7.91003e-05
0.000266897
-0.000187797
0.000268244
-0.000251077
0.000315337
-0.000174189
-0.000141149
-0.00025864
7.58901e-05
7.35843e-05
-0.000275661
-4.67462e-05
-0.000294688
-9.13644e-05
0.000278517
-0.000187153
0.000109773
0.000111383
-8.20367e-05
0.000145629
0.000169709
-0.000284187
0.000276214
8.25839e-06
0.00010318
-0.000250088
2.52188e-06
-9.83979e-05
0.000328842
-0.000229288
-6.93563e-05
0.000263761
-0.000194405
0.000269501
-0.000134121
0.000264209
0.000173952
-6.50806e-05
-0.000189981
-0.000121912
0.00046154
-0.000232608
-0.000228882
0.000256807
0.000204874
-0.000288322
0.000297805
-8.93505e-06
-0.000277845
0.000275661
2.18401e-06
0.000230303
-0.000193084
-3.69459e-05
-0.000257685
8.92923e-05
0.000168393
-8.60468e-05
0.000277512
-0.000191465
0.000156661
5.90522e-05
-0.000215713
-7.66083e-05
-0.000181077
0.000274801
-0.000196028
-0.000204445
0.000100471
0.000103865
-0.000262865
0.000183765
-0.000287505
5.86322e-05
0.00043046
-0.000173469
7.1436e-05
5.17485e-05
-0.000122621
0.000231418
0.000199188
-0.000257069
0.000180461
9.69436e-05
0.000186575
5.84188e-05
-0.000248218
0.000189988
0.000332394
-0.000121047
-0.000211441
0.000157831
0.000153054
-7.39763e-05
-0.000183093
-0.000284104
-8.16398e-05
0.000365723
0.000220772
-0.000130985
-7.43724e-05
0.000252873
-0.000178828
3.93117e-05
-0.000230293
0.000230833
5.09607e-06
0.000156515
-5.19139e-05
-0.000334978
0.000192351
0.000142683
0.000200985
-0.000270341
0.000204275
-0.000211786
7.63247e-06
-0.00017027
-0.00015108
-9.50864e-06
0.000211689
-0.000201838
-0.000123622
0.000213532
-2.55361e-05
0.000257797
-0.000232261
-0.000142073
0.000300749
-7.00596e-05
0.000311176
-0.000241477
0.000176793
0.000103208
0.000230861
7.81203e-06
-0.000238673
-0.00022065
0.000286956
-5.8494e-05
-0.000267161
-0.000269427
0.000214887
5.47148e-05
0.000117024
8.85242e-06
0.000115394
1.75245e-06
8.41626e-05
-0.000219723
0.000135927
0.000193973
0.000101918
-2.63481e-05
0.000257209
0.000288433
-0.000117018
-0.000170552
-0.000252617
2.32401e-06
-0.000211425
0.00025651
-4.47829e-05
-0.000193561
-0.000171629
-0.000102666
0.000301184
-0.000198485
0.000317369
-1.23174e-06
-0.000190266
-8.62991e-05
-0.000194508
0.000281077
-8.64704e-05
7.88642e-05
0.00025308
-0.00033151
-8.91192e-05
0.000268961
-0.000179838
-0.000163308
0.000289638
-0.000127769
-0.000166858
0.000288351
0.000303719
-4.67746e-05
-0.000154029
0.000258068
-6.74523e-05
0.000249677
-0.000182225
-7.17428e-05
-0.00023996
0.000311652
0.000217228
-0.000283389
5.44602e-05
0.000228929
-8.82283e-05
-0.000161421
0.000249649
0.000353848
-0.000211614
-0.000252897
0.000185445
0.000110022
5.26788e-06
0.000276026
-0.000219482
-5.66588e-05
0.000113598
-3.49567e-06
-6.71163e-05
-0.000185781
0.000265881
-6.21148e-05
4.7491e-05
-0.000274606
0.000226581
-3.41041e-05
-0.000249285
-0.0002127
-7.65743e-05
0.00029322
-0.000246643
0.000251553
-6.38402e-05
-0.000187713
0.000184437
0.000308851
-4.16511e-05
-0.000243243
0.000235018
-0.000316244
0.000316217
-0.000289124
0.000220184
6.8577e-05
6.93283e-05
-0.000289689
-0.000192642
0.000260133
-0.000197702
-3.55391e-06
0.000201255
-0.000224093
-8.78788e-05
0.000311901
-0.000250769
0.000186929
0.00026891
-5.06333e-05
0.000315337
-0.000138545
0.000272021
-0.000191073
0.000119656
-6.55483e-05
-0.000185221
-0.000251833
0.000177857
-0.000267793
0.000195553
-0.000241165
0.000176849
-0.000277461
-1.64896e-05
-6.18461e-05
0.000213008
-0.000151305
-0.000250206
0.000174555
7.59057e-05
0.000187685
-0.000253233
-0.000261549
0.000174161
-0.000137219
0.000211052
-7.49612e-05
-8.89938e-05
-0.000134063
0.000223008
0.000286553
-0.00012614
-0.000160413
-0.000267933
0.000182953
-0.000131414
0.000212731
6.34523e-05
-0.000276122
-0.000246912
0.000419436
-0.000172523
-0.00011
0.000285954
-0.00017518
-7.76723e-05
0.000251133
-0.000173461
-9.39383e-05
-0.00013914
0.000232937
-1.01912e-05
0.000120236
0.000168981
0.000109312
-0.000278293
0.000191286
-0.00026241
7.08907e-05
-1.41051e-05
-0.000203315
0.00021742
-0.000266078
0.000300213
-3.40489e-05
-0.000213893
-9.04684e-05
-0.000200407
0.000320249
-0.000444246
0.000192214
0.000252611
-0.000240689
-7.94643e-05
0.000273701
-0.000180545
0.000202363
-2.30699e-05
-0.000177562
-7.83302e-05
-0.000137818
0.000215466
0.000177633
-0.000213126
-6.62455e-05
0.000279371
-0.000192025
-8.42523e-05
0.000276277
0.000115957
2.63944e-06
0.000116982
-8.87706e-07
3.48601e-05
0.000241781
-0.000108608
-0.000194859
-0.000276725
0.000188189
-0.000123559
0.000217177
8.14237e-06
-0.000206391
-0.000189617
-7.87923e-05
0.000268409
6.24008e-05
0.000179962
-0.000242144
0.000103138
-3.16023e-05
0.00020106
-0.000210799
2.16567e-06
-0.000274457
0.000284639
-1.01805e-05
-0.000173825
-0.000143305
-0.00020169
0.000296426
-9.47356e-05
-0.000124202
-0.00016668
0.000290729
-0.000128493
0.000305677
-1.30537e-05
0.000243923
-0.000230869
-0.000250791
3.76657e-05
-7.06993e-05
0.000156963
-2.58359e-05
0.000214392
-0.000189125
0.000182953
-0.000109327
-0.000165302
0.000274488
0.000228107
-0.000148291
-7.83948e-05
-4.39366e-05
0.00019058
0.000188983
-0.0001189
-0.000186845
-8.92083e-05
0.000104963
4.69275e-05
-0.000234784
0.000165263
7.03333e-05
-0.000133085
-0.000178453
0.000311693
0.000190813
-0.000253623
6.52766e-05
-8.17222e-05
-0.000142508
0.000223523
3.2864e-05
-0.000263208
0.000100629
0.000201655
-0.000352161
9.07921e-05
0.000261168
0.000148079
-0.000272085
0.000125035
0.000182587
-3.74071e-05
8.76733e-05
-0.000281933
-9.76108e-05
-0.000107997
0.000180769
-0.000179443
0.000425063
-0.000245617
7.46666e-05
0.000169479
-0.000244443
-0.000151509
0.000293329
-0.000141821
9.36209e-05
-0.000315848
1.68723e-06
-0.000219651
6.87288e-05
-0.000306176
0.000238241
-8.37633e-05
0.000323375
0.000257257
6.97256e-05
-5.66771e-05
-7.51013e-05
0.000131842
-0.000139381
-0.000109958
-0.000129053
-0.000231729
-4.61162e-05
-0.00021277
0.0004392
-0.000226454
0.000110902
6.1046e-06
0.000112292
-1.51459e-06
-0.000178775
-0.000179097
0.000298349
-0.000118879
0.000193541
-0.000125193
0.000242061
-0.000293077
5.10162e-05
-0.000219051
-7.61725e-05
0.00029521
6.78443e-05
0.000189953
-0.000131289
0.000184162
-5.31332e-05
0.000141361
0.000190567
-0.000246333
0.000382436
-0.000137103
0.000267542
4.49098e-05
0.000122017
-0.000207037
-0.000140507
0.00018101
0.000110161
-0.000288934
-5.25282e-05
0.000280589
-4.62679e-05
0.000320117
-0.000134815
-0.000196058
0.000331018
0.000272003
-4.03632e-05
-7.1968e-05
-0.000198658
-3.50272e-05
-9.14019e-05
0.000187265
-0.000186204
-0.000150175
0.000251477
-0.000311804
0.000284621
-0.00012796
0.000213488
0.000107073
-7.03298e-05
-0.00016109
0.000232559
0.000255493
-0.000158307
-9.81482e-05
4.24266e-05
-0.000297276
-0.000133483
-0.00025048
0.000283339
-3.29183e-05
-0.000212845
0.000203583
-0.000204597
0.000273925
-0.00017268
-0.000124848
-0.000230691
-5.50957e-05
-8.15942e-05
-0.000145817
0.000226938
-0.000176505
-0.000122313
0.000300134
-0.000145852
9.52913e-05
4.92553e-05
-0.000188693
0.000247745
-0.000317015
0.000317014
0.000181609
0.000158481
0.000364559
-3.22495e-05
-0.000332794
-0.000308761
0.00017532
0.000133441
7.65243e-05
0.000190373
-9.85858e-05
0.000343712
-0.000245978
-0.000248144
-2.13935e-06
0.000245615
-1.1064e-05
7.59083e-05
0.000187853
-0.000337023
0.000106418
0.00022978
-0.000183208
-7.06384e-05
-0.000173673
0.000248955
-7.52905e-05
7.48821e-05
0.000241322
-0.000252083
-7.22893e-07
0.000252842
-4.93491e-05
-0.000233819
0.000243625
1.95312e-05
-0.000111913
0.000196391
-0.000179436
-0.000168841
0.000346997
0.000158672
-0.000337669
-0.000158647
0.000308166
-0.000147926
-0.00028828
0.000114599
-0.00023217
-0.00014888
-0.000169638
0.000317841
0.00021785
-0.000269561
-0.000202943
5.48242e-05
-0.000232289
0.000177465
0.000204288
-1.60052e-07
-5.50783e-05
-0.000160954
-8.90374e-05
0.000284988
-0.000100753
0.000270003
-0.000171194
2.96611e-05
-0.000240775
-0.000112029
-0.000102266
0.000185025
-0.000263621
7.85963e-05
-0.00026897
-4.80449e-05
-7.56003e-05
-0.000177017
0.000252617
0.000235906
7.27612e-05
-0.000308396
-0.000191345
-0.000159057
8.32692e-05
0.000207467
-0.00029103
-0.000165571
-8.67756e-05
0.000252332
0.000354253
-0.000189153
-0.000165103
0.000235882
-4.48874e-05
-0.000171109
-0.000145097
6.81243e-05
-0.000257825
0.000189701
-0.00014125
0.000411321
-0.000268435
0.000255357
-5.32844e-05
-0.000200456
0.000108694
7.9489e-06
0.000298207
-0.000169213
-0.000129092
0.000255551
-0.00028908
3.2089e-05
0.000179789
-0.000257461
0.000113463
0.000226648
0.000111447
-2.76298e-06
0.000234058
0.000296679
-0.00028742
-8.78653e-06
-8.7341e-05
-0.000143085
0.000230226
-0.000166817
0.000241481
-0.000119901
0.000236915
-0.000278377
0.000187013
0.000259086
-0.000257515
-1.57025e-06
-6.45963e-05
0.000245113
-0.000180517
0.000170659
-0.000235746
0.000353342
-0.00013004
-0.000223302
-7.91659e-05
0.000291353
0.000269753
-0.000258245
-1.1508e-05
-0.000183989
0.000182869
-0.000247465
-0.00027737
0.000191324
0.000251169
4.1502e-06
0.000131755
0.000123286
-0.000254492
6.51739e-05
-0.000239937
0.00017519
-0.000222629
0.000134401
0.000272469
-3.04081e-05
0.000121973
-0.000245793
0.000123528
-0.000113765
0.00024603
-0.000186141
-9.51639e-05
0.000281307
4.37582e-05
-0.000181917
-0.000198422
-6.80629e-05
-0.000192451
0.000130487
-0.000118224
0.000234964
-0.000116372
-4.57406e-05
-0.000268924
0.000267871
5.88013e-05
-0.000342906
-4.51568e-05
0.000255493
0.000139935
-0.000264494
0.000125092
-0.000241352
-2.47156e-05
9.49176e-05
0.000169174
-0.000264091
-5.34631e-05
-0.000253127
0.000330052
-9.5795e-05
-0.00023395
-5.61645e-05
-0.00023183
1.30589e-05
0.000252512
-9.43806e-05
-0.000138263
0.000232662
-0.000117868
0.00026616
0.000194362
8.62702e-05
-0.000280973
4.66528e-05
-0.000308614
0.000261145
0.000166897
-0.000297747
-0.000217877
0.000284045
-6.5833e-05
-0.000164382
0.000211576
0.000257537
-0.000203496
-2.91041e-05
-0.000261722
7.64728e-05
-0.000323043
0.000246181
-0.000227186
-0.000123162
0.000209595
0.000143747
-0.000303716
0.000177438
0.000121031
-0.000218408
8.6878e-05
0.000246786
-0.000107552
0.000229177
6.923e-05
0.000210902
-0.000431714
0.000198991
0.000242026
0.000140341
9.55466e-05
0.000199005
-0.00023038
-7.83807e-05
0.000364371
-0.000195775
-5.36649e-05
0.000249335
-6.24402e-05
0.000276669
-0.000120831
-4.6462e-05
0.000167218
-0.00023494
-0.000117605
7.95483e-05
-0.000264405
0.000184857
0.00025692
-7.30439e-05
0.000114844
0.000104794
-0.000219978
-0.000226122
-0.000126218
0.00015697
-0.000290347
0.000134898
-0.000184017
0.000172182
-0.000186287
0.000152434
-0.000292125
0.000136144
3.70465e-06
-0.000254278
0.000249533
-0.000119221
-0.000168462
0.000287761
-0.000178456
9.08169e-05
-9.6789e-05
0.000211307
-0.000309028
4.70049e-05
0.000263247
-7.52894e-05
0.000343568
-0.000268615
0.000105529
0.000271223
-4.50437e-05
-0.000252526
-0.000204584
0.000204892
-0.000174671
-0.000142592
1.83039e-05
-0.000213067
0.000194483
-5.9926e-05
0.000337243
-0.000277067
-0.000225127
0.000128571
-0.0001265
-0.000107828
0.000162538
-0.00031323
0.000151434
-0.000111795
0.000341373
-0.000178705
0.000275615
-9.64976e-05
0.000331792
-6.64907e-05
-0.000264521
0.000321014
-0.000228838
-9.22079e-05
-0.000182427
0.000432847
-0.000250056
0.000125206
0.000275603
-0.000400894
-7.18752e-05
-0.000199589
-0.000228771
0.000146651
0.000334099
1.16619e-05
-0.000345769
0.000155369
0.000142967
4.12999e-05
0.000279452
-2.75726e-05
-0.000288678
0.000244807
-0.000202654
-5.93878e-05
-0.00024631
0.000303838
-0.000217345
0.000111461
-0.000229389
0.000269646
0.000124538
-0.000395077
0.000172382
-0.000159857
2.81546e-05
-0.000129137
-0.000204718
0.000333989
-0.000153781
-7.20143e-06
-0.000109642
-0.000180946
-0.000174633
-0.000161592
0.00027243
-5.95852e-05
0.000196637
-0.000325759
0.00022051
4.23342e-05
-0.000263412
4.89728e-05
-0.000128238
0.000224491
0.000162797
-0.000321558
0.000159968
7.82783e-05
0.000227774
0.000254689
-0.000199865
5.5763e-05
-0.000185016
0.000127602
-0.000281737
7.71403e-05
-0.000220447
0.000131309
0.000160149
-0.000322908
0.000162335
-0.000247673
0.000312404
0.000160665
-0.00026966
0.00014315
0.000146245
0.000140309
-0.000193117
-8.20927e-05
-0.000332203
0.000193227
-0.000127407
0.000396345
0.000250872
-0.000279639
0.000270467
-0.000398248
0.000114813
-0.000221925
0.000229311
-0.000125311
0.000414051
-0.000131269
-0.000282251
0.000267562
-0.000143874
-0.000419098
0.000172189
0.000123268
0.000107198
8.81163e-05
-0.000283893
9.72765e-05
-0.000223273
-0.000291089
0.000101108
-0.000131836
-0.00026407
0.000395164
8.89283e-05
0.000182757
-0.000271685
-0.000192025
0.000292854
1.45444e-05
-0.000307329
-0.000235109
0.000140854
-0.000294071
0.000129763
-0.000131028
-0.00020024
0.000330964
0.000237354
-0.000175548
-6.14636e-05
-4.58165e-05
0.000307772
-0.000263038
-0.000255939
0.000142812
-0.000260906
0.000121413
0.000294714
-0.000206447
-8.77213e-05
0.000201251
-0.000332573
-0.000283812
6.34817e-06
0.000225315
-9.05162e-05
6.70679e-06
-0.000251236
0.000244513
-0.000207593
5.22197e-06
-0.000135084
0.000223892
-0.000304998
0.000234801
-9.89294e-05
-0.000206833
-0.000185025
-0.000111751
2.4084e-07
-9.98153e-05
0.000319328
3.63307e-06
0.000394747
0.000219383
-0.000189666
-4.09922e-05
0.000269949
-0.000142981
0.000216585
0.000263862
-0.000168306
-9.57046e-05
-5.82829e-05
0.000300445
0.000268446
-0.000280001
0.000139222
-0.000235533
-0.000100962
-0.000236298
-0.000155871
0.000240416
-0.000292228
0.000103174
0.000188693
0.000169517
-0.000368295
0.000197376
-0.000150981
0.000233997
-3.00634e-05
0.000249874
-0.000368117
0.000219361
0.000149215
0.000163519
-0.000367031
0.000205525
0.000268204
7.06989e-05
-0.00033829
-6.46928e-05
0.000332
-0.000334932
0.000249603
8.48708e-05
0.000205807
-0.000143103
-8.9509e-05
-0.000230419
-0.000239048
0.000163235
0.000156151
-0.000375364
0.00021671
-8.87985e-05
-0.000133742
0.000222411
-0.000140415
-0.000227224
-0.000240326
4.58255e-05
9.03003e-05
0.000179593
-0.000269893
-9.28204e-05
-0.000177241
0.000270061
0.000223352
-0.000402728
-0.000258301
8.42803e-05
-9.44877e-05
0.00028909
-0.000439776
0.000226991
-1.77751e-05
0.00023556
-7.17608e-05
0.000225547
-0.000153064
-0.000110009
-1.07342e-06
0.000103597
-0.000230043
0.00012684
0.000163856
-0.000321256
3.68182e-06
2.63978e-05
-0.000245467
-0.000237008
4.23789e-06
0.000123494
0.000180335
-0.000304806
-0.000278205
0.000137761
-0.000257465
6.43508e-05
7.41325e-05
-0.000228351
0.000153492
-0.000191715
0.000315012
0.000329508
-0.000150539
0.000263649
-0.000249621
-0.000117759
-0.000229057
0.000346936
-0.000177281
0.000337395
0.000123887
-0.000316097
-0.000224987
-8.17292e-05
0.000307465
-0.000299949
0.000217644
-0.000343892
0.000130354
-0.000183515
0.000308031
3.62321e-05
0.000194265
-0.000230497
-0.000317473
0.000134377
-0.000246287
5.04815e-05
-0.000312563
0.000242448
-0.000198118
-0.000137002
-0.000102861
0.000281734
-0.000178915
-0.000153676
-0.00015847
0.000311065
-0.000231207
0.000132074
0.000178949
-0.000277845
-0.000246448
2.95893e-05
0.000218057
0.000179734
-0.000334295
-0.000300113
0.00023873
-2.01582e-05
-0.000126847
0.000147505
2.58882e-05
-0.000258859
0.00023145
-0.000114877
1.75977e-06
-1.7405e-06
-0.000192846
0.000210979
-0.000222238
-0.000171247
0.000367385
-0.000196418
-0.000330228
8.31754e-05
-0.000275415
5.86639e-06
0.00032859
-0.00029544
0.000176365
-0.000219731
0.000138174
-0.000389983
0.000252045
-9.34364e-05
-0.000183205
6.09761e-05
0.00019669
-0.000350256
0.000232442
-9.82185e-05
0.000122153
0.00030081
-0.00014536
0.000211927
-0.000130152
0.000245998
-0.000282017
0.000194993
8.70243e-05
0.000257517
1.74441e-05
-0.000274961
0.000175669
7.98949e-05
-0.000207019
-7.17447e-05
0.000278763
-0.000169763
-0.000178918
0.00023109
-0.00021908
-0.000223077
-0.000116832
3.4423e-06
-2.15274e-06
0.000118165
0.000236088
-0.000312682
-0.000119158
-0.000115416
0.000300441
0.000229155
6.13964e-05
0.000340929
-0.000224257
-0.000117284
-0.000112247
-0.000181639
-0.000114742
0.000301121
-0.000184034
-0.00033778
0.000125161
-0.000281336
-0.000208601
0.000101604
0.00023809
0.000180513
-0.00028338
0.000132431
-0.000263659
0.000141542
0.000121203
2.76921e-05
-0.000216385
0.000140146
0.000129673
-0.000269203
-8.94443e-05
0.000269913
-0.000163658
8.27395e-05
8.14899e-05
-0.000122913
-0.000208711
-2.82058e-05
0.000313713
-0.000144733
-0.000290021
0.000112795
0.000175644
-0.000274065
9.71607e-05
0.000176904
0.000202049
-0.000190821
-9.22043e-05
-0.000181861
0.000188611
-0.000278053
-0.00041397
0.000273933
0.000218834
0.000196981
-0.000169289