/*--------------------------------*- C++ -*----------------------------------*\
  =========                 |
  \\      /  F ield         | OpenFOAM: The Open Source CFD Toolbox
   \\    /   O peration     | Website:  https://openfoam.org
    \\  /    A nd           | Version:  12
     \\/     M anipulation  |
\*---------------------------------------------------------------------------*/
FoamFile
{
    format      ascii;
    class       volScalarField;
    location    "8";
    object      rho;
}
// * * * * * * * * * * * * * * * * * * * * * * * * * * * * * * * * * * * * * //

dimensions      [1 -3 0 0 0 0 0];

internalField   nonuniform List<scalar> 
22702
(
1.40001
1.40001
1.25426
1.40001
1.45411
1.40001
1.83944
1.40001
1.40001
1.05805
1.83949
1.84024
1.40001
1.8419
1.27201
1.40001
1.40001
1.40001
1.83983
1.40001
1.84201
1.40001
1.83779
1.03329
1.84108
1.02199
1.40001
1.83331
1.03354
1.03494
1.40001
1.8413
1.40001
1.40001
1.40001
1.80897
1.84179
1.83833
1.40001
1.40001
1.03312
1.40001
1.62232
1.40001
1.83245
1.40001
1.40001
1.40001
1.40001
1.02534
1.40001
1.02239
1.40001
1.83945
1.40001
1.84137
1.40001
1.40001
1.40001
1.40001
1.00997
1.40001
1.40001
1.03982
1.40001
1.02824
1.40001
1.40001
1.40001
1.02333
1.40001
1.84108
1.671
1.40001
1.84195
1.8652
1.02585
1.84207
1.02264
1.40001
1.83777
1.02779
1.83658
1.83327
1.40001
1.40001
1.40001
1.40001
1.33011
1.04254
1.84272
1.40001
1.40001
1.07626
1.40001
1.84248
1.07544
1.40001
1.40001
1.40001
1.40001
1.62069
1.83878
1.0202
1.40001
1.40001
1.50758
1.40001
1.02752
1.40001
1.84482
1.83838
1.40001
1.40001
1.01953
1.02902
1.05126
1.40001
1.40001
1.40001
1.40001
1.40001
1.30758
1.40001
1.77787
1.44203
1.84542
1.40001
1.84826
1.83854
1.84132
1.83958
1.40001
1.00148
1.40001
1.0423
1.40001
1.40001
1.40001
1.40001
1.83768
1.40001
1.40001
1.40001
1.40001
1.84371
1.40001
1.42566
1.40001
1.40001
1.40001
1.40001
1.03274
1.40001
1.4108
1.40001
1.02203
1.40001
1.40001
1.40001
1.84184
1.40001
1.84076
1.04745
1.02093
1.83842
1.83635
1.40001
1.47386
1.65412
1.40001
1.83588
1.02267
1.81022
1.40001
1.40001
1.40001
1.40001
1.84217
1.75462
1.40001
1.83784
1.0369
1.83935
1.40001
1.01409
1.40001
1.02418
1.02881
1.3998
1.40001
1.40001
1.83717
1.40001
1.40001
1.84225
1.40001
1.84262
1.83821
1.02247
1.40001
1.40001
1.02832
1.84134
1.40001
1.40001
1.40001
1.84151
1.40001
1.04236
1.40001
1.40001
1.84101
1.84198
1.84445
1.40001
1.40005
1.40001
1.40001
1.40001
1.84169
1.40001
1.03156
1.85532
1.84152
1.84108
1.40001
1.40001
1.40001
1.01581
1.84148
1.60836
1.40001
1.84348
1.03251
1.03496
1.84358
1.84044
1.40001
1.85042
0.994738
1.79102
1.40001
1.40001
1.40001
1.40001
1.84223
1.40001
1.66081
1.44287
1.40001
1.40001
1.84206
1.05528
1.14567
1.40001
1.84317
1.05164
1.84804
1.40001
1.40001
1.40001
1.40001
1.40001
1.40001
1.40001
1.02301
1.13156
1.03623
1.84135
1.40001
1.40001
1.40001
1.40001
1.79722
1.40001
1.02248
1.40001
0.996554
1.02652
1.84131
1.02124
1.84203
1.40001
1.40001
1.40001
1.39749
1.01411
1.0055
1.4
1.40001
1.00137
1.40001
1.83807
1.02381
1.40001
1.40001
1.83873
1.05591
1.40001
1.84143
1.03087
1.84201
1.40001
1.00073
1.39773
1.40001
1.40001
1.40001
1.02176
1.40001
1.40001
1.4
1.40002
1.4127
1.67014
1.40001
1.03668
1.40001
1.40001
1.40001
1.40001
1.40001
1.40001
1.40001
1.83966
1.40001
1.83665
1.40001
1.40001
1.40001
1.04483
1.40001
1.84326
1.01841
1.40001
1.74164
1.40001
1.40001
1.83925
1.40001
1.40001
1.40001
1.82601
1.40001
1.40001
1.83058
1.83965
1.40001
1.49656
1.40001
1.40001
1.04864
1.40001
1.40001
1.40001
1.07203
1.40001
1.40001
1.40001
1.40001
1.0459
1.40001
1.40001
1.40001
1.40001
1.40001
1.04149
1.40007
1.84015
1.40001
1.4
1.8382
1.83772
1.40001
1.40001
1.02604
1.22348
1.83793
1.40001
1.40001
1.40001
1.84157
1.02045
1.40001
1.84079
1.40001
1.40001
1.08345
1.08729
1.40001
1.02975
1.04224
1.40001
1.40001
1.40001
1.40001
1.40001
1.40001
1.40001
1.83845
1.50646
1.81193
1.04774
1.3009
1.83665
1.40001
1.84268
1.838
1.03137
1.18162
1.40001
1.05535
1.40001
1.84558
1.40001
1.40001
1.40001
1.40001
1.8418
1.40001
1.40001
1.40001
1.40001
1.40001
1.40001
1.40001
1.56439
1.84138
1.40001
1.84104
1.40001
1.40001
1.02746
1.40001
1.40001
1.40001
1.40001
1.84164
1.73906
1.40001
1.40001
1.02814
1.84112
1.84192
1.40001
1.84124
1.84228
1.84136
1.40001
1.24358
1.40001
1.84225
1.38767
1.84108
1.40001
1.04262
1.39881
1.84094
1.40001
1.40001
1.40001
1.40001
1.03044
1.84194
1.80121
1.40001
1.84385
1.84197
1.83862
1.40001
1.61171
1.84083
1.40001
1.40001
1.70463
1.46646
1.8409
1.33372
1.84134
1.40001
1.84142
1.84149
1.84203
1.84109
1.40001
1.83622
1.3126
1.28894
1.40001
1.4
1.40001
1.40001
1.8411
1.40001
1.40001
1.40001
1.40001
1.40001
1.84197
1.40001
1.40001
1.39607
1.84216
1.78239
1.40001
1.77055
1.40005
1.40001
1.40001
1.84079
1.40001
1.39702
1.40452
1.40001
1.84206
1.40001
1.84117
1.40001
1.40001
1.72779
1.40001
1.84172
1.40003
1.40001
1.84326
1.40001
1.84196
1.40001
1.40001
1.40001
1.84229
1.40001
1.83846
1.40001
1.84201
1.84167
1.84152
1.83358
1.40001
1.83869
1.83871
1.40001
1.03289
1.81446
1.71606
1.40001
1.84202
1.40001
1.05109
1.03444
1.40001
1.40001
1.40001
1.40001
1.40001
1.07509
1.40001
1.84111
1.50926
1.8407
1.40001
1.40001
1.40001
1.40001
1.40001
1.84152
1.40001
1.8445
1.66663
1.18757
1.40001
1.40002
1.52898
1.5162
1.40001
1.40001
1.56092
1.40001
1.0253
1.8416
1.84183
1.40001
1.40001
1.40001
1.84267
1.40001
1.40003
1.8426
1.84119
1.34064
1.40001
1.40001
1.02314
1.80228
1.40001
1.40001
1.40001
1.40001
1.40001
1.84228
1.83788
1.40001
1.84391
1.83948
1.84181
1.40001
1.40001
1.40001
1.40001
1.02549
1.83712
1.40001
1.40001
1.80205
1.84086
1.40001
1.81618
1.84664
1.40001
1.40001
1.40001
1.40001
1.40001
1.84169
1.40001
1.40001
1.40001
1.40001
1.83946
1.40001
1.83923
1.04333
1.40001
1.03556
1.40001
1.40001
1.40001
1.39694
1.03236
1.39905
1.40001
1.40001
1.40001
1.46179
1.40001
1.40001
1.2586
1.40001
1.40001
1.40001
1.40001
1.40001
1.40001
1.40001
1.4
1.33392
1.4
1.40001
1.39753
1.40001
1.03115
1.40001
1.40001
1.40001
1.40001
1.73127
1.40001
1.40001
1.40001
1.40001
1.01783
1.40001
1.40001
1.81626
1.83726
1.4
1.40001
1.40001
1.28685
1.40001
1.40001
1.40001
1.40001
1.40001
1.40001
1.33848
1.40978
1.84182
1.40001
1.40001
1.40001
1.84477
1.28832
1.40001
1.40001
1.40001
1.83439
1.83439
1.40001
1.40001
1.40001
1.40001
1.40001
1.40001
1.40001
1.40001
1.40001
1.03979
1.40001
1.40001
1.83976
1.04595
1.40001
1.83833
1.40001
1.03314
1.40001
1.40001
1.03609
1.40001
1.40001
1.40001
1.40001
1.40001
1.40001
1.40001
1.83342
1.84121
1.40001
1.40001
1.40001
1.40001
1.80287
1.40001
1.53119
1.03112
1.40001
1.40001
1.40001
1.40001
1.40001
1.40001
1.40001
1.42619
1.40001
1.40001
1.62842
1.40001
1.40001
1.40001
1.76618
1.40001
1.40001
1.40001
1.40001
1.05221
1.40001
1.40001
1.02991
1.0547
1.40001
1.40001
1.84207
1.40001
1.37009
1.40001
1.40001
1.40001
1.70768
1.02429
1.40001
1.0194
1.40001
1.16493
1.40001
1.40001
1.40001
1.83952
1.40001
1.40001
1.84189
1.40001
1.40001
1.40001
1.84199
1.40001
1.40001
1.84226
1.40001
1.40001
1.03186
1.40001
1.5308
1.40001
1.40001
1.83693
1.83736
1.69448
1.79535
1.40001
1.04728
1.40001
1.40001
1.82195
1.40001
1.02921
1.40001
1.40001
1.40001
1.84193
1.40001
1.40001
1.40001
1.40001
1.66703
1.40001
1.82849
1.84397
1.06937
1.40001
1.40001
1.01922
1.02485
1.40001
1.40001
1.40001
1.71306
1.73856
1.40001
1.40001
1.40001
1.40001
1.40001
1.40001
1.40001
1.59043
1.83068
1.40321
1.40001
1.83645
0.997504
1.40001
1.40001
1.40001
1.64083
1.40001
1.48721
1.40001
1.80345
1.84035
1.40001
1.04117
1.40001
1.83932
1.40001
1.40001
1.84179
1.81521
1.40001
1.84463
1.40001
1.0372
1.40001
1.40001
1.40001
1.84075
1.83313
1.78888
1.40001
1.84058
1.84168
1.40001
1.8424
1.40001
1.84041
1.40001
1.05082
1.38133
1.04333
1.40001
1.40001
1.40001
1.40001
1.40001
1.84257
1.40001
1.84221
1.40001
1.40001
1.40001
1.81974
1.40001
1.03076
1.84208
1.40001
1.02944
1.04117
1.03347
1.40001
1.61084
1.43136
1.84408
1.84181
1.40001
1.4
1.40001
1.40001
1.84192
1.40001
1.40001
1.84184
1.8415
1.40001
1.55156
1.40029
1.40001
1.39667
1.84809
1.25343
1.40001
1.22132
1.02472
1.02624
1.32209
1.83566
1.83619
1.48985
1.84171
1.8411
1.40001
1.40001
1.84232
1.83933
1.84252
1.83885
1.40001
1.84219
1.02644
1.84505
1.84094
1.83743
1.84456
1.26126
1.28218
1.32016
1.84283
1.35795
1.84029
1.40001
1.40001
1.84417
1.84219
1.40001
1.05183
1.83936
1.84134
1.40001
1.84191
1.84193
1.40001
1.84143
1.02559
1.83761
1.83346
1.83908
1.8414
1.40001
1.40001
1.40001
1.84179
1.68927
1.02603
1.84163
1.03548
1.84229
1.40001
1.40001
1.40001
1.40001
1.84219
1.84208
1.40001
1.40001
1.84217
1.03887
1.84204
1.02798
1.40001
1.83871
1.40001
1.052
1.84286
1.1148
1.40001
1.84205
1.84477
1.84259
1.40001
1.40001
1.59106
1.84474
1.03092
1.842
1.40001
1.84199
1.27087
1.84355
1.04015
1.40001
1.84383
1.06368
1.84407
1.03247
1.40001
1.84165
1.40001
1.8442
1.40001
1.65953
1.82547
1.74792
0.996096
1.40001
1.844
1.40001
1.84194
1.40001
1.84101
1.40001
1.40001
1.84166
1.37893
1.8451
1.04606
1.81309
1.40001
1.71248
1.40001
1.84
1.84095
1.83947
1.40001
1.79683
1.8427
1.80938
1.67225
1.84934
1.40001
1.69333
1.40001
1.84292
1.40001
1.45544
1.40001
1.80939
1.40001
1.84216
1.82095
1.82058
1.40001
1.83095
1.03505
1.40001
1.04559
1.40001
1.40001
1.40001
1.84375
1.40001
1.84283
1.40001
1.40001
1.40001
1.84285
1.83702
1.76026
1.84105
1.84358
1.0339
1.83407
1.83858
1.40001
1.77859
1.8417
1.81709
1.40001
1.83611
1.84104
1.40001
1.84676
1.84197
1.84052
1.84238
1.40001
1.40001
1.40001
1.84261
1.01031
1.40001
1.84141
1.40001
1.40001
1.02724
1.40001
1.40001
1.84282
1.84207
1.40001
1.84131
1.84597
1.84261
1.3776
1.8419
1.40001
1.84167
1.84134
1.75572
1.40001
1.40001
1.40001
1.84307
1.84098
1.84163
1.34761
1.40001
1.84604
1.84128
1.84082
1.40001
1.84188
1.84091
1.84223
1.84703
1.40001
1.84223
1.84507
1.77806
1.84325
1.84629
1.40001
1.84565
1.83705
1.84168
1.84445
1.844
1.02282
1.84164
1.84455
1.40001
1.84159
1.84187
1.84161
1.84227
1.40001
1.84188
1.84136
1.40001
1.84173
1.77045
1.40001
1.40001
1.40001
1.83791
1.84607
1.40001
1.40001
1.63589
1.40001
1.84133
1.40001
1.40001
1.84152
1.84343
1.8427
1.84109
1.40001
1.40001
1.40001
1.70641
1.40001
1.84266
1.40001
1.40001
1.84785
1.83352
1.40001
1.8422
1.02827
1.84146
1.84047
1.09341
1.40001
0.988204
1.78005
1.84631
1.84356
1.84329
1.05123
1.84262
1.84238
1.04043
1.02574
1.40001
1.84214
1.84247
1.40001
1.40001
1.84252
1.40001
1.84747
1.40001
1.78565
1.40001
1.60799
1.84126
1.8441
1.70523
1.79321
1.84366
1.84103
1.80857
1.40001
1.00677
1.84319
1.84326
1.84349
1.40002
1.40001
1.40001
1.8432
1.40001
1.84314
1.84228
1.13806
1.40001
1.84222
1.39994
1.40001
1.40004
1.40005
1.84304
1.84126
1.39846
1.40001
1.40001
1.84208
1.84488
1.84194
1.84921
1.83892
1.01913
1.7715
1.40001
1.83867
1.84247
1.84142
1.8326
1.40001
1.84244
1.82995
1.84414
1.40001
1.84044
1.84154
1.24761
1.84204
1.84021
1.40001
1.84091
1.22424
1.84307
1.25462
1.84299
1.40001
1.84171
1.84836
1.84117
1.84115
1.84159
1.83519
1.84291
1.83772
1.40001
1.31076
1.84401
1.84151
1.23852
1.84263
1.37292
1.66637
1.84317
1.84043
1.84435
1.40001
1.84524
1.69071
1.84111
1.31148
1.84454
1.84372
1.40001
1.27057
1.40001
1.83783
1.40001
1.70581
1.40001
1.82711
1.27953
1.40001
1.84013
1.83386
1.40001
1.84428
1.8442
1.83672
1.83147
1.84489
1.40001
1.83716
1.40001
1.40001
1.40001
1.30195
1.8408
1.84326
1.84807
1.84238
1.84978
1.84614
1.84683
1.84222
1.30416
1.42971
1.40001
1.40001
1.84318
1.84225
1.84118
1.84149
1.40003
1.63077
1.40001
1.84631
1.81065
1.40001
1.40001
1.15236
1.84164
1.40001
1.40001
1.02855
1.84226
1.40001
1.83216
1.84201
1.84369
1.8256
1.84218
1.40001
0.994233
1.51087
1.84142
1.84188
1.40001
1.84151
1.8429
1.61314
1.41038
1.49961
1.40001
1.84332
1.84222
1.40001
1.40001
1.05264
1.40001
1.40001
1.84165
1.8417
1.84513
1.84197
1.84167
1.84341
1.84177
1.84213
1.84118
1.40001
1.39628
1.84246
1.84254
1.39699
1.84228
1.8424
1.01116
1.06911
1.84042
1.83869
1.40001
1.40001
1.40146
1.84235
1.84233
1.84184
1.40001
1.84284
1.40001
1.24033
1.84443
1.83316
1.40001
1.59648
1.84168
1.40001
1.8406
1.40001
1.84213
1.69218
1.84209
1.40001
1.84076
1.84632
1.03822
1.84247
1.40001
1.842
1.83105
1.40001
1.00892
1.83972
1.76606
1.39757
1.82872
1.84195
1.40001
1.39023
1.84581
1.39759
1.8417
1.40001
1.40001
1.84321
1.40001
1.84652
1.84261
1.39633
1.75674
1.40001
1.84246
1.40001
1.40001
1.40001
1.40001
1.84127
1.40001
1.40001
1.8403
1.40001
1.84148
1.40001
1.68478
1.84715
1.84275
1.40001
1.40001
1.38825
1.40001
1.84132
1.84194
1.84129
1.84142
1.84237
1.84161
1.84206
1.40001
1.84225
1.84193
1.40001
1.84189
1.84201
1.40001
1.8431
1.32777
1.45754
1.84226
1.84165
1.84151
1.40001
1.84143
1.40001
1.84194
1.8415
1.40001
1.84146
1.40001
1.40001
1.40001
1.40001
1.84187
0.999303
1.39784
1.40001
1.84189
1.83761
1.40001
1.8414
1.40001
1.40443
1.03262
1.84154
1.39962
1.40001
1.84036
1.39837
1.842
1.40001
1.39977
1.40001
1.84065
1.84441
1.84114
1.84335
1.035
1.8397
1.84182
1.84187
1.51014
1.40001
1.40001
1.59003
1.84222
0.993467
1.03451
1.40001
1.8414
1.84156
1.84239
1.40001
1.40001
1.84077
1.84225
1.39989
1.40001
1.7121
1.04201
1.40001
1.47836
1.83878
1.84161
1.39823
1.84179
1.84694
1.40001
1.39912
1.40001
1.84556
1.84711
1.57814
1.40001
1.8164
1.40001
1.40205
1.8422
1.02354
1.84093
1.84206
1.39689
1.39991
1.78241
1.40001
1.39969
1.40001
1.84164
1.40001
1.40002
0.994946
1.8427
1.40001
1.40001
1.40001
1.40001
1.84425
1.6503
1.40001
1.40001
1.03226
1.84213
1.65075
1.40001
1.40001
1.40001
1.82052
1.84154
1.83803
1.40001
1.40001
1.83875
1.40001
1.84159
1.84167
1.40001
1.40001
1.84257
1.84106
1.81815
1.40001
1.40001
1.84295
1.84504
1.40001
1.40001
1.40001
1.84396
1.40001
1.40001
1.40001
1.84036
1.84319
1.84483
1.40001
1.84515
1.40004
1.10867
1.84189
1.84262
1.40001
1.84277
1.81817
1.84052
1.40001
1.40001
1.84361
1.40001
1.6338
1.84162
1.40001
1.03954
1.40001
1.84302
1.40001
1.40001
1.84473
1.40001
1.40001
1.40001
1.538
1.84079
1.09779
1.40002
1.84278
1.40001
1.40001
1.84031
1.40001
1.84221
1.40001
1.40001
1.84086
1.84258
1.40001
1.40006
1.40001
1.40001
1.40001
1.40001
1.40001
1.40001
1.8435
1.84199
1.40001
1.83295
1.03088
1.84036
1.40001
1.84212
1.83925
1.8424
1.83529
1.8436
1.40001
1.40001
1.84435
1.40001
1.6778
1.84482
1.84127
1.40001
1.84658
1.83465
1.40001
1.79778
1.40001
1.842
1.68902
1.84299
1.39748
1.83224
1.80255
1.84394
1.84217
1.43619
1.84137
1.84476
1.40001
1.841
1.40001
1.84128
1.40001
1.40001
1.40001
1.40001
1.39683
1.84142
1.84162
1.76573
1.40001
1.84371
1.40001
1.40001
1.40001
0.991754
1.40001
1.83277
1.40001
1.80154
1.82246
1.40001
1.40001
1.40001
1.8279
1.84781
1.40001
1.40001
1.84266
1.04004
1.4676
1.40001
1.84212
1.84176
1.80364
1.83345
1.84142
1.40001
1.84033
1.40001
1.40001
1.40001
1.40001
1.84052
1.84205
1.40001
1.82994
1.44734
1.83965
1.81084
1.40001
1.40001
1.81211
1.40001
1.40001
1.03839
1.71009
1.40001
1.40001
1.84716
1.40001
1.84505
1.80135
1.40001
1.79963
1.03699
1.84192
1.84242
1.84267
1.40001
1.03477
1.40001
1.40001
1.40001
1.84077
1.75359
1.40001
1.84898
1.84068
1.40001
1.84194
1.40001
1.40001
1.40001
1.40001
1.84112
1.39937
1.40001
1.8427
1.40001
1.40001
1.8391
1.84146
1.40001
1.84595
1.48918
1.40003
1.40001
1.84042
1.40001
1.84059
1.40001
1.41334
1.8421
1.40001
1.83921
1.40001
1.40001
1.53287
1.84053
1.40001
1.40001
1.40001
1.40001
1.40001
1.39592
1.03254
0.996606
1.41805
1.40001
1.41772
1.40001
1.42148
1.40001
1.84176
1.40001
1.66245
1.40001
1.84222
1.40001
1.40001
1.40001
1.84213
1.40001
1.74469
1.84131
1.40001
1.64096
1.84247
1.40001
1.40001
1.8444
1.84227
1.40001
1.40001
1.44245
1.00172
1.40001
1.84278
1.40001
1.40001
1.40001
1.40001
1.47329
1.84295
1.40001
1.40001
1.40001
1.0578
1.40001
1.8415
1.84282
1.85187
1.40001
1.40001
1.40001
1.40001
1.62699
1.84259
1.40001
1.40001
1.40001
1.84327
1.84168
1.44562
1.40001
1.40001
1.40001
1.841
1.84158
1.40001
1.02939
1.84289
1.84173
1.84332
1.84289
1.84212
1.40001
1.40001
1.84546
1.84033
1.84174
1.04442
1.43956
1.8417
1.40001
1.40001
1.40001
1.40001
1.40001
1.84159
1.03389
1.40001
1.40001
1.84172
1.59792
1.40001
1.84503
1.40001
1.40001
1.40001
1.02749
1.40001
1.40001
1.51813
1.84334
1.84173
1.40001
1.84521
1.8424
1.40001
1.47044
1.40001
1.84825
1.40001
1.84257
1.04133
1.40001
1.40001
1.40001
1.40001
1.84247
1.40008
1.40001
1.40001
1.40001
1.81942
1.40001
1.40001
1.40001
1.40001
1.84175
1.02978
1.74841
1.84362
1.40001
1.8423
1.40001
1.40001
1.40001
1.39708
1.40001
1.83955
1.40001
1.19231
1.40001
1.40001
1.40004
1.84236
1.03337
1.40001
1.84317
1.40001
1.84406
1.84198
1.05916
1.40001
1.40001
1.8316
1.40001
1.40001
1.03093
1.40001
1.83934
1.40001
1.82097
1.3993
1.84114
1.40001
1.40001
1.40001
1.40001
1.83479
1.40001
1.40001
1.84171
1.40001
1.40001
1.40001
1.40001
1.40001
1.40001
1.40001
1.40001
1.68696
1.40001
1.54289
1.84019
1.40001
1.40001
1.40001
1.03072
1.40001
1.40001
1.40001
1.40001
1.83995
1.84232
1.44769
1.40001
1.40001
1.8428
1.40001
1.40001
1.84064
1.40001
1.40002
1.40001
1.40001
1.40001
1.40002
1.84115
1.16598
1.8416
1.8428
1.39715
1.40001
1.40001
1.40001
1.66184
1.40001
1.40001
1.84264
1.8415
1.40001
1.40001
1.40001
1.40001
1.04556
1.40001
1.40001
1.40001
1.69276
1.40001
1.84134
1.84515
1.40001
1.84347
1.40001
1.40001
1.40001
1.64169
1.40001
1.83914
1.40001
1.84166
1.40001
1.40001
1.39622
1.84161
1.40001
1.40001
1.40001
1.40001
1.40001
1.8426
1.40003
1.40001
1.03941
1.84539
1.0344
1.40001
1.84175
1.40001
1.39595
1.40001
1.84319
1.84457
1.40001
1.83874
1.26848
1.84159
1.83565
1.40004
1.40001
1.40001
1.03051
1.40001
1.40001
1.40001
1.84193
1.65848
1.84359
1.40001
1.40001
1.40001
1.40001
1.39679
1.8414
1.40001
1.04216
1.40001
1.40001
1.40001
1.40001
1.40001
1.40001
1.40001
1.84756
1.84444
1.83447
1.40001
1.40001
1.3969
1.40001
1.37948
1.40001
1.40001
1.40001
1.00195
1.37141
1.40001
1.02255
1.02942
1.40001
1.84283
1.84131
1.40001
1.84108
1.84225
1.03871
1.71378
1.40001
1.40001
1.40001
1.04087
1.84041
1.40001
1.03745
1.40001
1.85165
1.47053
1.40001
1.40001
1.40001
1.40001
1.84167
1.83907
1.40001
1.40001
1.8415
1.40001
1.40001
1.83948
1.84175
1.40001
1.81062
1.84181
1.83961
1.36551
1.84299
1.40843
1.03984
1.74082
1.8423
1.40001
1.40001
1.40001
1.02763
1.40001
1.03337
1.84679
1.36228
1.84184
1.33662
1.40001
1.84093
1.60084
1.40001
1.40001
1.84154
1.40001
1.58466
1.84236
1.40001
1.40001
1.83884
1.84906
1.02604
1.66924
1.39989
1.40001
1.66569
1.40001
1.8481
1.33229
1.85307
1.8495
1.40001
1.40001
1.40001
1.40001
1.84005
1.40001
1.40001
1.8441
1.39964
1.84064
1.77494
1.84049
1.03751
1.40001
1.40001
1.40001
1.40001
1.84086
1.40005
1.83929
1.40001
1.84034
1.84543
1.45808
1.84741
1.54201
1.84088
1.40001
1.70382
1.04998
1.84761
1.84117
1.75297
1.47112
1.83991
1.84148
1.84044
1.83984
1.40001
1.3164
1.4623
1.40001
1.8414
1.61069
1.84155
1.40004
1.40001
1.40001
1.08644
1.8418
1.83987
1.75995
1.40001
1.56773
1.40001
1.84148
1.84286
1.40001
1.84048
1.84056
1.40001
1.40001
1.40001
1.84043
1.40001
1.57503
1.84488
1.70515
1.40001
1.84124
1.40001
1.40001
1.40001
1.40001
1.40001
1.40001
1.40001
1.40001
1.40001
1.40001
1.09556
1.40001
1.81009
1.02053
1.66007
1.39857
1.84325
1.40001
1.63145
1.40002
1.68468
1.77713
1.40001
1.40276
1.84371
1.30515
1.40001
1.84098
1.84615
1.34418
1.40001
1.84169
1.84065
1.8442
1.40001
1.84195
1.83959
1.84336
1.40001
1.60969
1.40001
1.40006
1.84155
1.40001
1.83965
1.46494
1.83855
1.40001
1.40001
1.844
1.83984
1.05316
1.40001
1.84376
1.73347
1.84128
1.40001
1.40001
1.83953
1.84423
1.39823
1.40001
1.7855
1.39682
1.84122
1.40006
1.40001
1.40001
1.40001
1.40001
1.5986
1.40001
1.74443
1.84733
1.72947
1.84322
1.40001
1.4047
1.40001
1.40001
1.83975
1.40001
1.84484
1.40001
1.40001
1.40001
1.40001
1.4
1.40001
1.45123
1.6239
1.40001
1.40001
0.998326
1.40001
1.8417
1.09832
1.84565
1.40001
1.63289
1.39976
1.84046
1.67885
1.04221
1.64369
1.40004
1.84201
1.83971
1.40001
1.66543
1.84165
1.84252
1.39841
1.84555
1.82977
1.00867
1.40001
1.40001
1.39706
1.40001
1.83903
1.40001
1.03742
1.84537
1.40001
1.40001
1.79285
1.40001
1.84669
1.40001
1.84019
1.40001
1.06541
1.40001
1.40001
1.84518
1.84851
1.84679
1.40001
1.84324
1.84141
1.83898
1.40001
1.40001
1.83018
1.4
1.10716
1.40001
1.40001
1.40001
1.83996
1.40001
1.84117
1.68751
1.84276
1.40001
1.84157
1.39938
1.40001
1.40001
1.40001
1.40001
1.40001
1.40001
1.10311
1.40001
1.40001
1.84146
1.40001
1.8469
1.84373
1.40001
1.05788
1.03128
1.40001
1.84312
1.47043
1.03482
1.00443
1.40001
1.84153
1.40001
1.84355
1.06849
1.40111
1.40001
1.40001
1.39952
1.40001
1.40001
1.40001
1.39992
1.58555
1.84288
1.40001
1.40001
1.84283
1.65678
1.40001
1.8142
1.8429
1.84348
1.58557
1.83993
1.40001
1.84176
1.40001
1.83102
1.40001
1.84753
1.83925
1.39721
1.84194
1.84186
1.40001
1.40001
1.40001
1.40001
1.40001
1.314
1.83897
1.40005
1.40003
1.02177
1.39999
0.997895
0.993535
1.40001
1.83978
1.8425
1.84131
1.40001
1.84133
1.40001
1.04031
1.40001
1.40001
1.84147
1.23179
1.84245
1.40001
1.8408
1.40001
1.37662
1.8435
1.40001
1.40001
1.40001
1.84286
1.40001
1.84116
1.02862
1.40001
1.40001
1.65887
1.40001
1.40001
1.64507
1.40001
1.40001
1.83958
1.40001
1.40001
1.40001
1.40001
1.40001
1.84846
1.84229
1.40001
1.84113
1.84281
1.03506
1.6019
1.84401
1.40001
1.40001
1.79801
1.39892
1.40001
1.40001
1.84195
1.84087
1.69853
1.40001
1.84092
1.05298
1.81331
1.39974
1.40001
1.84343
1.40004
1.84331
1.78119
1.73817
1.40001
1.40001
1.84114
1.13083
1.01404
1.40001
1.84216
1.40001
1.84236
1.40001
1.66397
1.40001
1.40001
1.84051
1.68651
1.03792
1.40001
1.39811
1.40001
1.40001
1.42656
1.58293
1.84124
1.40001
1.84962
1.40001
1.40001
1.40001
1.40001
1.40001
1.40001
1.46566
1.04061
1.40001
1.40001
1.43013
1.40001
1.40001
1.40001
1.40001
1.40001
1.84208
1.40001
1.40001
1.84234
1.841
1.71637
1.40001
1.40001
1.40001
1.23437
1.84382
1.70655
1.40001
1.40001
1.40001
1.40001
1.84172
1.40001
1.40001
1.40001
1.84447
1.40001
1.40001
1.71199
1.85357
1.42805
1.14072
1.84348
1.71232
1.8405
1.40001
1.61765
1.40001
1.40001
1.40001
1.0112
1.40264
1.03587
1.40001
1.05287
1.02028
1.40001
1.0313
1.40001
1.40001
1.40001
1.58997
1.40001
1.84244
1.84182
1.40142
1.61895
1.77838
1.01165
1.15262
1.25896
1.40001
1.84183
1.83646
1.84178
1.8421
1.7782
1.26762
1.40001
1.78215
1.40001
1.82586
1.40001
1.40001
1.39634
1.40953
1.40001
1.40001
1.40001
1.84052
1.40001
0.993635
1.40001
1.84444
1.02571
1.40001
1.40001
1.84162
1.40001
1.84185
1.39969
1.40001
1.40001
1.8424
1.79171
1.40001
1.85815
1.40001
1.40001
1.41488
1.40001
1.6065
1.40001
1.40001
1.03174
1.40001
1.40001
1.84391
1.4
1.8412
1.40001
1.40004
1.01645
1.40001
1.40001
1.02216
1.40082
1.40001
1.83765
1.01349
1.84547
1.04157
1.84242
1.40001
1.40001
1.40001
1.40001
1.4
1.40001
1.40001
1.40001
1.40001
1.40001
1.40001
1.8238
1.40001
1.84312
1.83871
1.04159
1.40001
1.40001
1.40001
1.40001
1.40001
1.40001
1.82966
1.40001
1.40001
1.03689
1.40001
1.40001
1.83649
1.40001
1.40001
1.56356
1.76868
1.0343
1.04577
1.08487
1.12407
1.40001
1.39666
1.02628
1.40027
1.82234
1.3969
1.40001
1.40001
1.83918
1.40001
1.40001
1.40001
1.13586
1.40002
1.5545
1.40001
1.40001
1.58097
1.84036
1.40001
1.01563
1.40001
1.40001
1.40001
1.39648
1.40001
1.83965
1.84304
1.40001
1.03119
1.40001
1.64199
1.04309
1.40001
1.27217
1.40001
1.39603
1.00971
1.40001
1.40001
1.40001
1.39559
1.05329
1.40001
1.0468
1.39841
1.62946
1.79741
1.04618
1.03121
1.40001
1.39155
1.40001
1.39867
1.40001
1.84238
1.84227
1.40001
1.41739
1.8408
1.84134
1.40001
1.40001
1.8427
1.40001
1.40001
1.40005
1.40001
1.84506
1.40001
1.40001
1.41783
1.40001
1.39857
1.10673
1.40001
1.40001
1.40001
1.40001
1.40001
1.8452
1.42646
1.40006
1.40001
1.40001
1.40001
1.40001
1.40001
1.40004
1.40001
1.03817
1.50355
1.39861
1.82766
1.84352
1.40001
1.41574
1.84109
1.78547
1.40001
1.40001
1.00199
1.84232
1.40001
1.83978
1.40001
1.84363
1.71514
1.03207
1.40001
1.04179
1.8127
1.39969
1.40001
1.03932
1.00182
1.40001
1.40001
1.77234
1.40001
1.4
1.03475
1.40001
1.40001
1.40001
1.5442
1.40001
1.04167
1.8423
1.40001
1.40001
1.40001
1.40001
1.84229
1.40001
1.40001
1.8401
1.79683
1.40001
1.40001
1.40001
1.83971
1.02324
1.40001
1.84264
1.84166
1.40001
1.75358
1.4
1.40004
1.40001
1.40001
1.81587
1.41685
1.40001
1.01888
1.64432
1.40001
1.40001
1.39702
1.40001
1.40001
1.84236
1.40001
1.40001
1.40003
1.40001
1.84112
1.40001
1.40001
1.40001
1.40001
1.40001
1.40001
1.40002
1.60096
1.40001
1.83978
1.40001
1.40001
1.84359
1.40001
1.40001
1.40001
1.8415
1.84195
1.44684
1.40001
1.39757
1.40001
1.40001
1.40001
1.40001
1.83978
1.40001
1.40001
1.84203
1.03728
1.40001
1.40001
1.40001
1.40001
1.40001
1.40001
1.75691
1.40001
1.40001
1.83995
1.84123
1.40001
1.40001
1.40001
1.84174
1.8427
1.40001
1.39969
1.83753
1.40001
1.40001
1.40001
1.40002
1.0099
1.42938
1.396
1.39639
1.40001
1.40001
1.02039
1.8425
1.40001
1.02568
1.40001
1.8398
1.82397
1.03343
1.39942
1.84123
1.84167
1.84272
1.40001
1.40001
1.30186
1.79834
1.78033
1.01132
1.40001
1.40001
1.40001
1.84067
1.84179
1.0263
1.3973
1.40001
1.84171
1.00186
1.40001
1.84091
1.04046
1.36765
1.4065
1.40001
1.84517
1.40001
1.40001
1.40001
1.40001
1.40001
1.40001
1.40011
1.81161
1.40001
1.40001
1.84677
1.40001
1.40001
1.40001
1.8428
1.40001
1.03719
1.40001
1.40001
1.40001
1.5567
1.40001
1.40001
1.40001
1.40001
1.40001
1.17287
1.40001
1.01091
1.40001
1.84265
1.40007
1.25896
1.26778
1.40002
1.40533
1.62629
1.40001
1.40001
1.03736
1.84301
1.84189
1.8424
1.40001
1.02881
1.01666
1.40001
1.84121
1.40001
1.40001
1.40001
1.40001
1.40001
1.40004
1.40001
1.03231
1.67614
1.40001
1.40001
1.0321
1.37947
1.40001
1.40001
1.40001
1.40001
1.00788
1.40001
1.05313
1.40001
1.40001
1.84253
1.40001
1.40001
1.03749
1.40001
1.84146
1.40001
1.00998
1.40001
1.04067
1.40001
1.40731
1.84096
1.8562
1.40001
1.40001
1.83803
1.40001
1.40001
1.49925
1.39676
1.40001
1.39819
1.40001
1.84195
1.40001
1.03415
1.40002
1.83793
1.39888
1.40001
1.40001
1.16325
1.40001
1.39905
1.0386
1.84271
1.56292
1.40001
1.40001
1.31678
1.40001
1.40001
1.40001
1.15716
1.40001
1.40001
1.40001
1.84137
1.40001
1.03328
1.4
1.40001
1.40001
1.40001
1.03216
1.84207
1.79918
1.0388
1.40001
1.8495
1.40001
1.40001
1.84165
1.83992
1.77241
1.03138
1.39766
1.39923
1.40001
1.84217
1.40001
1.40001
1.40001
1.40001
1.84134
1.40004
1.40001
1.40001
1.84117
1.40001
1.40001
1.84112
1.02804
1.40001
1.40001
1.40001
1.0355
1.40001
1.4
1.4
1.39861
1.40001
1.40001
1.40001
1.40001
1.75639
1.40001
1.84128
1.84064
1.85199
1.84163
1.84327
1.84172
1.40001
1.84084
1.40001
1.84276
1.84161
1.40001
1.39884
1.02447
1.77805
1.39991
1.40001
1.40001
1.40001
1.40001
1.4006
1.40001
1.46946
1.40001
1.40001
1.40001
1.25197
1.8419
1.84204
1.8465
1.7905
1.39989
1.40001
1.42206
1.84288
1.39785
1.45375
1.39716
1.07554
1.40001
1.40003
1.40001
1.40001
1.40001
1.40001
1.40001
1.84105
1.03368
1.84336
1.84231
1.39481
1.04455
1.40001
1.40001
1.40001
1.84109
1.02835
1.78956
1.03047
1.84243
1.84673
1.04218
1.84213
1.4233
1.40001
1.84371
1.17144
1.40001
1.39878
1.00451
1.40001
1.0389
1.40001
1.84134
1.84193
1.1385
1.40001
1.83913
1.06977
1.40001
1.02798
1.40001
1.84179
1.40001
1.40001
1.84384
1.40001
1.23299
1.40001
1.39967
1.03877
1.84461
1.39949
1.40001
1.00666
1.40001
1.40001
1.40001
1.40001
1.63903
1.40001
1.84243
1.40001
1.40001
1.85168
1.40001
1.40001
1.8431
1.40001
1.01938
1.40001
1.03111
1.40002
1.40001
1.40001
1.40001
1.40001
1.82338
1.64864
1.84123
1.40001
1.84142
1.81168
1.01134
1.00595
1.40001
1.40001
1.84218
1.40001
1.01393
1.40001
1.3818
1.40001
1.40001
1.84094
1.40001
1.84442
1.02001
1.84111
1.40001
1.02368
1.40001
1.40001
1.84121
1.8403
1.40001
1.40005
1.40001
1.83957
1.40001
1.40001
1.00486
1.39939
1.01147
1.40001
1.40001
1.40001
1.84346
1.8504
1.8396
1.40001
1.40001
1.02151
1.40001
1.84712
1.40001
1.40001
1.40001
1.81523
1.84156
1.8417
1.04445
1.8414
1.8422
1.05189
1.83906
1.40005
1.06542
1.41086
1.40001
1.40001
1.84025
1.04988
1.67712
1.05037
1.84177
1.3975
1.02976
1.84337
1.40001
1.40001
1.40001
1.40001
1.84166
1.83876
1.03699
1.40001
1.40003
1.04175
1.40004
1.40001
1.06084
1.01351
1.71018
1.84221
1.3985
1.84143
1.40001
1.84019
1.20987
1.03819
1.8412
1.84214
1.40001
1.8393
1.40001
1.40001
1.84205
1.40001
1.74119
1.83925
1.40001
1.40001
1.40001
1.40001
1.84211
1.83702
1.84293
1.40001
1.40001
1.8402
1.84242
1.84287
1.40001
1.84219
1.40001
1.40001
1.40001
1.40001
1.40001
1.03976
1.24338
1.01993
1.40001
1.40001
1.84264
1.40001
1.40001
1.84015
1.03459
1.40001
1.84222
1.83721
1.82201
1.00696
1.40001
1.0459
1.40001
1.40003
1.84012
1.61253
1.84045
1.80479
1.40001
1.01402
1.40001
1.84052
1.71775
1.03481
1.40001
1.40001
1.40001
1.1826
1.40001
1.40001
1.83901
1.40001
1.03479
1.84286
1.40001
1.40001
1.40001
1.40001
1.40001
1.75547
1.50584
1.40001
1.84067
1.40001
1.8412
1.40001
1.39724
1.40001
1.84216
1.83882
1.84259
1.84493
1.39959
1.84047
1.40001
1.84152
1.84242
1.77345
1.40001
1.40001
1.00184
1.84286
1.40001
1.40001
1.84579
1.83936
1.8426
1.40001
1.84297
1.40001
1.40001
1.40004
1.83882
1.84454
1.53132
1.49227
1.84076
1.84159
1.05664
1.40001
1.40001
1.40001
1.40001
1.40002
1.55589
1.40001
1.40001
1.76695
1.01649
1.39997
1.40001
1.8418
1.39989
1.39982
1.46754
1.79037
1.84227
1.30434
1.40001
1.01141
1.40001
1.40084
1.84074
1.84476
1.84192
1.39902
1.40001
1.40001
1.03022
1.40001
1.40001
1.84089
1.44896
1.40001
1.40001
1.40001
1.40001
1.40001
1.40001
1.40001
1.39994
1.84038
1.40002
1.40001
1.40001
1.40001
1.40001
1.67763
1.40001
1.60908
1.40001
1.40001
1.84127
1.84872
1.02723
1.39879
1.40001
1.4
1.40001
1.03208
1.84046
1.8416
1.40001
1.40001
1.40001
1.40001
1.40001
1.40001
1.40001
1.40001
1.843
1.83006
1.01799
1.44934
1.03223
1.40001
1.0202
1.40001
1.84228
1.51547
1.40001
1.40001
1.12244
1.40001
1.822
1.1874
1.39674
1.03499
1.40001
1.40001
1.83878
1.40005
1.39727
1.02322
1.84089
1.85015
1.40001
1.40001
1.40001
1.40001
1.81226
1.40001
1.40001
1.8415
1.39894
1.83963
1.40007
1.40001
1.40001
1.02898
1.40001
1.40001
1.84333
1.03374
1.15461
1.03793
1.84292
1.39934
1.40001
1.84738
1.05054
1.03818
1.41267
1.40001
1.40001
1.8399
1.40004
1.60397
1.40001
1.40001
1.83943
1.04204
1.40001
1.40001
1.40014
1.83845
1.40016
1.82356
1.40001
1.40004
1.40001
1.40001
1.13457
1.40001
1.18817
1.40002
1.40001
1.84146
1.02514
1.40001
1.15919
1.16493
1.40001
1.40001
1.84308
1.40001
1.40001
1.40001
1.84082
1.84149
1.40006
1.82756
1.83928
1.18412
1.84181
1.82013
1.40001
1.40001
1.83827
1.4
1.40001
1.40001
1.40001
1.40001
1.84117
1.84048
1.40001
1.40001
1.40001
1.84353
1.40022
1.40001