/*--------------------------------*- C++ -*----------------------------------*\
  =========                 |
  \\      /  F ield         | OpenFOAM: The Open Source CFD Toolbox
   \\    /   O peration     | Website:  https://openfoam.org
    \\  /    A nd           | Version:  12
     \\/     M anipulation  |
\*---------------------------------------------------------------------------*/
FoamFile
{
    format      ascii;
    class       volScalarField;
    location    "8";
    object      T;
}
// * * * * * * * * * * * * * * * * * * * * * * * * * * * * * * * * * * * * * //

dimensions      [0 0 0 1 0 0 0];

internalField   nonuniform List<scalar> 
22702
(
1
1
0.961295
1
1.01833
1
1.12047
1
1
0.890747
1.12057
1.12063
1
1.11865
0.968525
1
1
1
1.12038
1
1.11869
1
1.11894
0.89752
1.11837
0.888951
1
1.11975
0.897105
0.896928
1
1.12056
1
1
1
1.11063
1.11854
1.11911
1
1
0.890495
1
1.06288
1
1.1198
1
1
1
1
0.898159
1
0.89725
1
1.1205
1
1.12067
1
1
1
1
0.889123
1
1
0.8969
1
0.897163
1
1
1
0.889146
1
1.11872
1.07582
1
1.11875
1.12535
0.897757
1.11961
0.899314
1
1.12072
0.897746
1.11987
1.11976
1
1
1
1
0.981818
0.889616
1.12082
1
1
0.889264
1
1.11872
0.889257
1
1
1
1
1.06292
1.12052
0.888999
1
1
1.03192
1
0.89765
1
1.11979
1.12069
1
1
0.884574
0.886529
0.889858
1
1
1
1
1
0.976357
1
1.10326
1.01339
1.11967
1
1.11977
1.12063
1.11851
1.12096
1
0.889251
1
0.889605
1
1
1
1
1.12082
1
1
1
1
1.11885
1
1.00789
1
1
1
1
0.8979
1
1.00299
1
0.900119
1
1
1
1.12047
1
1.11867
0.884714
0.889126
1.11882
1.1187
1
1.02307
1.07105
1
1.1206
0.899435
1.11085
1
1
1
1
1.11864
1.09942
1
1.12056
0.897737
1.12058
1
0.898356
1
0.897958
0.888827
0.999939
1
1
1.12047
1
1
1.11859
1
1.1198
1.12054
0.898306
1
1
0.896998
1.11857
1
1
1
1.11855
1
0.890959
1
1
1.11854
1.1186
1.11969
1
1.00001
1
1
1
1.1185
1
0.897229
1.12373
1.11858
1.11854
1
1
1
0.893682
1.1186
1.06088
1
1.11894
0.894586
0.893427
1.11895
1.11878
1
1.11822
0.88486
1.10601
1
1
1
1
1.11857
1
1.07289
1.01235
1
1
1.11853
0.88923
0.931202
1
1.11851
0.889519
1.11832
1
1
1
1
1
1
1
0.895706
0.929576
0.891533
1.11851
1
1
1
1
1.10882
1
0.897448
1
0.890166
0.898102
1.11842
0.896333
1.11869
1
1
1
0.99933
0.897562
0.885072
1
1
0.888456
1
1.12057
0.888941
1
1
1.12077
0.885514
1
1.11917
0.889073
1.11855
1
0.892697
0.999347
1
1
1
0.897324
1
1
1
1
1.00552
1.07643
1
0.890278
1
1
1
1
1
1
1
1.1208
1
1.12106
1
1
1
0.889971
1
1.1188
0.896428
1
1.09443
1
1
1.1208
1
1
1
1.11836
1
1
1.11886
1.12071
1
1.0285
1
1
0.889457
1
1
1
0.889627
1
1
1
1
0.888892
1
1
1
1
1
0.889057
1.00002
1.11867
1
0.999995
1.11869
1.11895
1
1
0.900804
0.945659
1.12067
1
1
1
1.11852
0.889043
1
1.1187
1
1
0.908687
0.90874
1
0.897173
0.889826
1
1
1
1
1
1
1
1.11982
1.03242
1.11438
0.889341
0.97489
1.12113
1
1.11882
1.12062
0.889667
0.933527
1
0.889622
1
1.12457
1
1
1
1
1.11857
1
1
1
1
1
1
1
1.047
1.11997
1
1.11856
1
1
0.89893
1
1
1
1
1.11855
1.09278
1
1
0.897744
1.11858
1.11855
1
1.11856
1.11858
1.1186
1
0.951309
1
1.11851
0.999182
1.1186
1
0.889827
0.999672
1.12062
1
1
1
1
0.896273
1.11847
1.10859
1
1.11863
1.11854
1.12045
1
1.05704
1.11838
1
1
1.08483
1.01777
1.11852
0.982778
1.11853
1
1.11857
1.11857
1.11858
1.11859
1
1.11329
0.975326
0.969091
1
1
1
1
1.11971
1
1
1
1
1
1.1205
1
1
0.998896
1.11855
1.10316
1
1.10113
1.00001
1
1
1.11862
1
0.999178
1.00132
1
1.1186
1
1.11864
1
1
1.09086
1
1.11856
1.00001
1
1.11834
1
1.11856
1
1
1
1.11858
1
1.11912
1
1.11856
1.12071
1.11854
1.11969
1
1.12075
1.1177
1
0.897774
1.11186
1.08819
1
1.1186
1
0.889338
0.888995
1
1
1
1
1
0.889213
1
1.11854
1.03465
1.1186
1
1
1
1
1
1.11855
1
1.11876
1.07405
0.934483
1
1
1.03645
1.03192
1
1
1.04715
1
0.900747
1.11844
1.11846
1
1
1
1.12068
1
1.00001
1.11897
1.11849
0.986197
1
1
0.897462
1.10888
1
1
1
1
1
1.11855
1.12077
1
1.11839
1.11898
1.11856
1
1
1
1
0.888914
1.12067
1
1
1.10891
1.11827
1
1.11231
1.12
1
1
1
1
1
1.11858
1
1
1
1
1.1196
1
1.11752
0.889224
1
0.889113
1
1
1
0.999125
0.897058
0.999723
1
1
1
1.01801
1
1
0.961747
1
1
1
1
1
1
1
0.999999
0.980668
1
1
0.999318
1
0.89625
1
1
1
1
1.09113
1
1
1
1
0.89742
1
1
1.1123
1.12057
1
1
1
0.969754
1
1
1
1
1
1
0.986632
1.00492
1.11853
1
1
1
1.11924
0.971625
1
1
1
1.11957
1.1192
1
1
1
1
1
1
1
1
1
0.889791
1
1
1.11979
0.890281
1
1.11952
1
0.898474
1
1
0.889178
1
1
1
1
1
1
1
1.11649
1.11834
1
1
1
1
1.10917
1
1.04049
0.896538
1
1
1
1
1
1
1
1.01158
1
1
1.06781
1
1
1
1.10018
1
1
1
1
0.889321
1
1
0.885546
0.889446
1
1
1.11852
1
1.00732
1
1
1
1.08558
0.885344
1
0.88495
1
0.934677
1
1
1
1.119
1
1
1.11856
1
1
1
1.11858
1
1
1.11851
1
1
0.889775
1
1.04016
1
1
1.1211
1.12096
1.08224
1.10727
1
0.889588
1
1
1.11383
1
0.889069
1
1
1
1.11868
1
1
1
1
1.07432
1
1.11551
1.11858
0.889456
1
1
0.888843
0.888904
1
1
1
1.08691
1.09242
1
1
1
1
1
1
1
1.0545
1.12053
1.00365
1
1.11728
0.889005
1
1
1
1.06841
1
1.02535
1
1.10928
1.11806
1
0.890071
1
1.12078
1
1
1.1187
1.11189
1
1.12122
1
0.895321
1
1
1
1.11952
1.11644
1.10563
1
1.11973
1.11853
1
1.11879
1
1.11808
1
0.889445
0.994788
0.888734
1
1
1
1
1
1.11852
1
1.11851
1
1
1
1.11328
1
0.897558
1.11856
1
0.897286
0.893555
0.886362
1
1.06197
1.01234
1.11893
1.11856
1
1
1
1
1.11855
1
1
1.11853
1.11852
1
1.04535
0.999985
1
0.999069
1.12039
0.95643
1
0.945899
0.900978
0.900278
0.988144
1.11883
1.11704
1.02678
1.11864
1.11862
1
1
1.12067
1.12044
1.11853
1.12076
1
1.11856
0.897009
1.11853
1.11858
1.11992
1.11921
0.961749
0.971835
0.979503
1.11855
0.989106
1.11861
1
1
1.11897
1.11875
1
0.889755
1.11907
1.11855
1
1.11853
1.11854
1
1.11854
0.897074
1.11923
1.12062
1.12098
1.11916
1
1
1
1.11852
1.08007
0.891703
1.11858
0.885925
1.11854
1
1
1
1
1.11866
1.11862
1
1
1.11861
0.887288
1.11877
0.89728
1
1.11779
1
0.891656
1.1189
0.917267
1
1.11856
1.11915
1.11869
1
1
1.05785
1.11898
0.89791
1.11852
1
1.11855
0.965882
1.11853
0.889988
1
1.11833
0.901101
1.11897
0.897543
1
1.11866
1
1.11927
1
1.07222
1.11458
1.09546
0.8844
1
1.11863
1
1.11861
1
1.11856
1
1
1.11866
0.99695
1.11916
0.894377
1.10783
1
1.08685
1
1.11885
1.11857
1.11871
1
1.10771
1.11867
1.11062
1.07571
1.11751
1
1.08147
1
1.1187
1
1.01872
1
1.11072
1
1.11857
1.11351
1.11345
1
1.1165
0.8888
1
0.889253
1
1
1
1.1205
1
1.11868
1
1
1
1.11879
1.11701
1.09972
1.11901
1.11892
0.889175
1.11835
1.12072
1
1.10559
1.11858
1.1129
1
1.12072
1.12082
1
1.12011
1.1187
1.11867
1.1189
1
1
1
1.11861
0.88825
1
1.1186
1
1
0.889126
1
1
1.11858
1.11852
1
1.11853
1.11976
1.11876
0.994955
1.11854
1
1.11855
1.1186
1.09693
1
1
1
1.11887
1.11864
1.11858
0.984712
1
1.12055
1.11864
1.11865
1
1.11863
1.11873
1.11859
1.12063
1
1.11859
1.11831
1.10511
1.11837
1.12025
1
1.11931
1.11735
1.11859
1.1189
1.11834
0.888771
1.1187
1.11855
1
1.11864
1.1186
1.11855
1.11853
1
1.1186
1.11863
1
1.11852
1.10114
1
1
1
1.11881
1.11814
1
1
1.0675
1
1.11852
1
1
1.11862
1.11896
1.11851
1.11858
1
1
1
1.08724
1
1.11845
1
1
1.12058
1.12073
1
1.11861
0.884673
1.11856
1.11914
0.914431
1
0.884726
1.10551
1.1192
1.11847
1.11852
0.888904
1.1187
1.11876
0.888865
0.885376
1
1.11843
1.11864
1
1
1.11853
1
1.11831
1
1.10529
1
1.059
1.11855
1.11913
1.08761
1.10892
1.12061
1.11901
1.1115
1
0.88911
1.11839
1.11858
1.12002
1
1
1
1.12017
1
1.1185
1.11856
0.924616
1
1.11853
0.999982
1
1.00001
1.00001
1.11862
1.11858
0.999565
1
1
1.11861
1.11899
1.11856
1.11886
1.11896
0.891581
1.10178
1
1.11776
1.11851
1.11849
1.11803
1
1.11854
1.11565
1.11881
1
1.11872
1.11852
0.959196
1.1185
1.1188
1
1.11858
0.952113
1.11875
0.958103
1.11857
1
1.11861
1.12195
1.11857
1.11859
1.1186
1.11921
1.11867
1.11968
1
0.980991
1.11873
1.11854
0.953156
1.11861
0.996304
1.07669
1.11862
1.11872
1.11868
1
1.11915
1.0818
1.11827
0.977185
1.11904
1.12186
1
0.962733
1
1.11859
1
1.08449
1
1.11334
0.96267
1
1.11912
1.11713
1
1.1188
1.11898
1.11707
1.11718
1.11828
1
1.12068
1
1
1
0.972115
1.11858
1.11878
1.11981
1.11861
1.11794
1.11986
1.11913
1.11867
0.972758
1.0091
1
1
1.12312
1.11864
1.11857
1.11852
1.00001
1.06435
1
1.11998
1.10578
1
1
0.919484
1.1186
1
1
0.897646
1.11853
1
1.1207
1.11853
1.12074
1.11444
1.11859
1
0.887448
1.03182
1.11858
1.11862
1
1.11851
1.11858
1.06304
1.00258
1.02857
1
1.11944
1.11855
1
1
0.889096
1
1
1.11858
1.11862
1.119
1.11859
1.11854
1.11993
1.11866
1.11893
1.11854
1
0.998907
1.11883
1.1186
0.999136
1.1186
1.11859
0.888922
0.889267
1.11853
1.11951
1
1
1.00043
1.11854
1.11889
1.11853
1
1.1186
1
0.958892
1.12017
1.1191
1
1.05792
1.11865
1
1.11915
1
1.11858
1.08411
1.11888
1
1.11851
1.12007
0.889038
1.11852
1
1.11861
1.12026
1
0.889026
1.11824
1.09947
0.99932
1.11715
1.1186
1
1.00134
1.11898
0.999419
1.11855
1
1
1.11887
1
1.11896
1.11859
0.998992
1.09462
1
1.11858
1
1
1
1
1.11852
1
1
1.117
1
1.11861
1
1.07866
1.11837
1.11871
1
1
1.00197
1
1.11876
1.11854
1.11852
1.11864
1.11856
1.11851
1.1186
1
1.11853
1.11863
1
1.11853
1.1186
1
1.11884
0.980762
1.01654
1.11854
1.11862
1.11848
1
1.11862
1
1.11853
1.11858
1
1.11854
1
1
1
1
1.11862
0.887197
0.99939
1
1.11855
1.11846
1
1.1185
1
1.00159
0.892783
1.11859
0.999883
1
1.11864
0.999534
1.11859
1
0.999933
1
1.11873
1.11928
1.11838
1.11933
0.894929
1.11839
1.11824
1.11868
1.03105
1
1
1.05478
1.11853
0.884681
0.894154
1
1.11879
1.11851
1.11822
1
1
1.11831
1.11839
0.999965
1
1.09062
0.885252
1
1.02308
1.1206
1.11658
0.999505
1.11857
1.12083
1
0.999736
1
1.11892
1.12018
1.05068
1
1.11254
1
1.00049
1.1188
0.889958
1.11862
1.11857
0.99914
0.999975
1.1027
1
0.999912
1
1.11898
1
1
0.884575
1.11853
1
1
1
1
1.11917
1.07085
1
1
0.889215
1.11856
1.07101
1
1
1
1.11358
1.11479
1.12012
1
1
1.11818
1
1.11853
1.11863
1
1
1.11898
1.11856
1.11415
1
1
1.11902
1.11887
1
1
1
1.11884
1
1
1
1.11868
1.11992
1.11913
1
1.11892
1.00001
0.906562
1.11862
1.11852
1
1.11993
1.1131
1.12055
1
1
1.11932
1
1.06732
1.11854
1
0.889023
1
1.11906
1
1
1.11807
1
1
1
1.03866
1.11859
0.899917
1
1.11891
1
1
1.11875
1
1.1194
1
1
1.11863
1.11854
1
1.00002
1
1
1
1
1
1
1.11966
1.11854
1
1.12062
0.890267
1.11998
1
1.1184
1.12027
1.11859
1.11997
1.12145
1
1
1.11805
1
1.07906
1.1196
1.11855
1
1.11922
1.11876
1
1.1066
1
1.11841
1.07978
1.11819
0.999283
1.11681
1.11026
1.11885
1.11872
1.01072
1.1185
1.11928
1
1.11855
1
1.11854
1
1
1
1
0.998905
1.11856
1.11851
1.10076
1
1.11937
1
1
1
0.88452
1
1.11607
1
1.10896
1.11517
1
1
1
1.11037
1.1205
1
1
1.11856
0.89038
1.02349
1
1.11952
1.11855
1.10914
1.11603
1.11855
1
1.1183
1
1
1
1
1.11832
1.11862
1
1.11729
1.0159
1.11871
1.11141
1
1
1.11176
1
1
0.892456
1.08581
1
1
1.11963
1
1.11939
1.1092
1
1.10886
0.890818
1.11866
1.11856
1.11873
1
0.896118
1
1
1
1.11849
1.10262
1
1.11693
1.11858
1
1.11861
1
1
1
1
1.11859
0.999812
1
1.11902
1
1
1.11837
1.11851
1
1.1196
1.02464
1.00001
1
1.11865
1
1.11868
1
1.00376
1.11853
1
1.11857
1
1
1.04079
1.11871
1
1
1
1
1
0.998938
0.889959
0.888871
1.00595
1
1.00959
1
1.00955
1
1.11854
1
1.07715
1
1.11863
1
1
1
1.11864
1
1.09887
1.11852
1
1.06649
1.11868
1
1
1.12026
1.11853
1
1
1.01462
0.884453
1
1.11877
1
1
1
1
1.02205
1.11847
1
1
1
0.891414
1
1.11864
1.11851
1.12127
1
1
1
1
1.06159
1.12207
1
1
1
1.11876
1.11853
1.01478
1
1
1
1.11862
1.11851
1
0.889076
1.11845
1.11861
1.11855
1.11836
1.11921
1
1
1.11903
1.11881
1.11859
0.894984
1.01187
1.11863
1
1
1
1
1
1.11859
0.892252
1
1
1.11859
1.0573
1
1.11858
1
1
1
0.892534
1
1
1.03404
1.11847
1.11851
1
1.11913
1.11917
1
1.02306
1
1.11893
1
1.11876
0.890444
1
1
1
1
1.1186
1.00002
1
1
1
1.11624
1
1
1
1
1.1185
0.891198
1.09528
1.11918
1
1.11867
1
1
1
0.999179
1
1.11898
1
0.943563
1
1
1.00001
1.11862
0.892309
1
1.11856
1
1.11894
1.11855
0.891547
1
1
1.11448
1
1
0.896979
1
1.11656
1
1.11388
0.999805
1.11838
1
1
1
1
1.12025
1
1
1.11862
1
1
1
1
1
1
1
1
1.08065
1
1.04203
1.11864
1
1
1
0.890265
1
1
1
1
1.11835
1.11849
1.01606
1
1
1.1189
1
1
1.11869
1
1
1
1
1
1
1.11863
0.936266
1.11854
1.11904
0.999135
1
1
1
1.07348
1
1
1.11878
1.11861
1
1
1
1
0.890821
1
1
1
1.07747
1
1.11856
1.11931
1
1.11886
1
1
1
1.0679
1
1.12077
1
1.11852
1
1
0.99886
1.11852
1
1
1
1
1
1.11865
1.00001
1
0.894234
1.1184
0.894693
1
1.11881
1
0.99887
1
1.1188
1.11926
1
1.11918
0.963736
1.11856
1.11904
1.00001
1
1
0.890622
1
1
1
1.11857
1.07203
1.11939
1
1
1
1
0.999099
1.11872
1
0.890304
1
1
1
1
1
1
1
1.12021
1.11833
1.11933
1
1
0.999121
1
0.994701
1
1
1
0.889466
0.994677
1
0.88705
0.89094
1
1.11873
1.1186
1
1.11824
1.11848
0.890288
1.08037
1
1
1
0.890066
1.11874
1
0.889468
1
1.12017
1.02446
1
1
1
1
1.11858
1.1199
1
1
1.11851
1
1
1.1201
1.11863
1
1.10901
1.11854
1.12015
0.990873
1.11855
1.00256
0.890471
1.09355
1.11867
1
1
1
0.889566
1
0.890208
1.11839
0.990561
1.1186
0.986947
1
1.11835
1.05784
1
1
1.1188
1
1.05201
1.11832
1
1
1.11875
1.12019
0.889774
1.07516
0.99997
1
1.07428
1
1.11915
0.985533
1.12139
1.11952
1
1
1
1
1.11607
1
1
1.11835
0.999897
1.1187
1.09832
1.11867
0.894175
1
1
1
1
1.11866
1.00001
1.1186
1
1.11884
1.11891
1.01655
1.12011
1.04111
1.11879
1
1.08437
0.894737
1.11848
1.11855
1.09669
1.02406
1.11955
1.11855
1.11848
1.1184
1
0.979628
1.01861
1
1.11858
1.05998
1.11859
1.00001
1
1
0.90156
1.11941
1.1194
1.09854
1
1.04852
1
1.11877
1.11862
1
1.11856
1.11913
1
1
1
1.11876
1
1.05012
1.11945
1.08546
1
1.11846
1
1
1
1
1
1
1
1
1
1
0.897282
1
1.1136
0.8888
1.07321
0.999592
1.11834
1
1.0662
1
1.07924
1.10161
1
1.00062
1.11946
0.976869
1
1.11857
1.11527
0.984845
1
1.11867
1.11872
1.11909
1
1.11851
1.11861
1.11873
1
1.05777
1
1.00002
1.11864
1
1.11885
1.01919
1.11884
1
1
1.11913
1.11885
0.899991
1
1.11862
1.09164
1.11838
1
1
1.11994
1.119
0.999498
1
1.10848
0.999106
1.11856
1.00002
1
1
1
1
1.05742
1
1.09222
1.11854
1.09107
1.11829
1
1.00051
1
1
1.11996
1
1.11885
1
1
1
1
1
1
1.01596
1.06554
1
1
0.890764
1
1.11852
0.899472
1.11924
1
1.06512
0.999928
1.1187
1.07868
0.89607
1.06866
1.00001
1.11857
1.11892
1
1.07489
1.11835
1.11851
0.999546
1.11959
1.11561
0.888805
1
1
0.999313
1
1.11896
1
0.896113
1.1183
1
1
1.10683
1
1.11863
1
1.11876
1
0.895001
1
1
1.1187
1.1199
1.1179
1
1.11811
1.11854
1.118
1
1
1.11566
1
0.922242
1
1
1
1.11886
1
1.11853
1.07995
1.11845
1
1.11855
0.999822
1
1
1
1
1
1
0.911918
1
1
1.11854
1
1.11974
1.11959
1
0.890472
0.890329
1
1.11896
1.02056
0.891592
0.884481
1
1.11838
1
1.11857
0.889202
1.00045
1
1
0.999859
1
1
1
0.999976
1.0521
1.11861
1
1
1.11878
1.07335
1
1.1076
1.11818
1.11877
1.05218
1.1176
1
1.11858
1
1.11698
1
1.11841
1.11887
0.999059
1.11834
1.11977
1
1
1
1
1
0.976947
1.12012
1.00001
1.00001
0.892505
0.999993
0.889557
0.886132
1
1.11875
1.11874
1.11863
1
1.11845
1
0.892901
1
1
1.11837
0.949234
1.11858
1
1.11863
1
0.996415
1.11862
1
1
1
1.11835
1
1.1187
0.889889
1
1
1.07244
1
1
1.06858
1
1
1.11865
1
1
1
1
1
1.11785
1.11847
1
1.11886
1.11855
0.890201
1.05798
1.11814
1
1
1.10783
0.999717
1
1
1.11855
1.11881
1.08426
1
1.11878
0.89092
1.11322
0.999869
1
1.11836
1.00001
1.11844
1.09874
1.09294
1
1
1.11858
0.911394
0.891192
1
1.11856
1
1.1186
1
1.07409
1
1
1.11837
1.07899
0.890187
1
0.999439
1
1
1.00721
1.05195
1.11859
1
1.11892
1
1
1
1
1
1
1.01944
0.889383
1
1
1.01099
1
1
1
1
1
1.11881
1
1
1.11846
1.11852
1.08731
1
1
1
0.952059
1.11895
1.08574
1
1
1
1
1.11867
1
1
1
1.11891
1
1
1.08813
1.12379
1.01205
0.925461
1.11843
1.08715
1.11889
1
1.06315
1
1
1
0.888532
1.00068
0.895668
1
0.889254
0.883602
1
0.889296
1
1
1
1.05627
1
1.11878
1.1187
1.00028
1.06072
1.10263
0.890039
0.92965
0.966873
1
1.11854
1.11983
1.11855
1.11863
1.10358
0.963452
1
1.10402
1
1.11448
1
1
0.998978
1.00282
1
1
1
1.11901
1
0.890272
1
1.1188
0.895529
1
1
1.11861
1
1.11855
0.999765
1
1
1.11879
1.10919
1
1.12284
1
1
1.00421
1
1.05727
1
1
0.889148
1
1
1.11816
1
1.11871
1
1.00001
0.893077
1
1
0.8967
1.00031
1
1.1194
0.889454
1.11948
0.890065
1.11865
1
1
1
1
1
1
1
1
1
1
1
1.11423
1
1.11905
1.1201
0.889198
1
1
1
1
1
1
1.11566
1
1
0.892315
1
1
1.11967
1
1
1.04852
1.10094
0.890358
0.888952
0.906468
0.923196
1
0.99902
0.895533
1.00012
1.11094
0.999107
1
1
1.11873
1
1
1
0.930842
1
1.04616
1
1
1.05125
1.1185
1
0.889267
1
1
1
0.999071
1
1.11871
1.11859
1
0.889984
1
1.06796
0.88998
1
0.967051
1
0.998938
0.883436
1
1
1
0.998847
0.890111
1
0.889306
0.999545
1.06591
1.10788
0.889116
0.893252
1
0.997059
1
0.999605
1
1.11859
1.11865
1
1.00638
1.11874
1.11848
1
1
1.11858
1
1
1.00001
1
1.11894
1
1
1.00539
1
0.999592
0.905116
1
1
1
1
1
1.11821
1.01111
1.00001
1
1
1
1
1
1.00001
1
0.890106
1.02921
0.999606
1.12068
1.11796
1
1.00388
1.11874
1.10482
1
1
0.887148
1.11878
1
1.11979
1
1.11862
1.08262
0.890693
1
0.890117
1.10904
0.999908
1
0.889904
0.888401
1
1
1.10155
1
1
0.886418
1
1
1
1.04061
1
0.889064
1.11835
1
1
1
1
1.11865
1
1
1.11957
1.10745
1
1
1
1.11928
0.887441
1
1.11877
1.11859
1
1.09647
1
1.00001
1
1
1.10989
1.00635
1
0.894724
1.06698
1
1
0.999309
1
1
1.11746
1
1
1.00001
1
1.11902
1
1
1
1
1
1
1
1.05617
1
1.11838
1
1
1.11886
1
1
1
1.11851
1.11899
1.01321
1
0.999317
1
1
1
1
1.12003
1
1
1.11857
0.890601
1
1
1
1
1
1
1.09774
1
1
1.11872
1.11906
1
1
1
1.11882
1.11847
1
0.999924
1.11895
1
1
1
1
0.893492
1.0087
0.998938
0.998816
1
1
0.887374
1.11894
1
0.888853
1
1.11898
1.11418
0.890794
0.999832
1.11861
1.11885
1.11856
1
1
0.979267
1.1069
1.10029
0.888943
1
1
1
1.11865
1.11859
0.88736
0.999237
1
1.11854
0.89112
1
1.11766
0.891004
0.993248
1.00196
1
1.11947
1
1
1
1
1
1
1.00003
1.11123
1
1
1.11853
1
1
1
1.11857
1
0.890445
1
1
1
1.04321
1
1
1
1
1
0.935341
1
0.892489
1
1.11853
1.00002
0.961749
0.963892
1
1.00116
1.0657
1
1
0.889912
1.11848
1.11854
1.11858
1
0.886344
0.887151
1
1.11857
1
1
1
1
1
1.00001
1
0.893462
1.0795
1
1
0.890202
0.997874
1
1
1
1
0.883235
1
0.901963
1
1
1.11935
1
1
0.888746
1
1.11853
1
0.889882
1
0.891427
1
1.00227
1.11864
1.12257
1
1
1.12015
1
1
1.02942
0.999077
1
0.999481
1
1.11911
1
0.893963
1
1.12041
0.999722
1
1
0.940159
1
0.999721
0.888405
1.1184
1.04668
1
1
0.97329
1
1
1
0.938673
1
1
1
1.11859
1
0.891578
1
1
1
1
0.888995
1.11855
1.11297
0.889915
1
1.11963
1
1
1.11859
1.11966
1.10166
0.888122
0.999353
0.999784
1
1.1186
1
1
1
1
1.11878
1.00001
1
1
1.11883
1
1
1.11859
0.889704
1
1
1
0.893023
1
1
1
0.999617
1
1
1
1
1.09384
1
1.1199
1.11881
1.12127
1.11857
1.11872
1.11857
1
1.11856
1
1.11857
1.11862
1
0.999675
0.889813
1.10314
0.999972
1
1
1
1
1.00124
1
1.02064
1
1
1
0.953702
1.11859
1.11875
1.11932
1.10402
0.999964
1
1.00633
1.11875
0.999404
1.01751
0.99918
0.889772
1
1.00001
1
1
1
1
1
1.11868
0.890618
1.11866
1.11861
0.998624
0.888752
1
1
1
1.11843
0.889006
1.10596
0.887522
1.11856
1.11952
0.891915
1.11858
1.00701
1
1.1192
0.940251
1
0.999643
0.888757
1
0.890063
1
1.11859
1.11856
0.926692
1
1.11926
0.889896
1
0.891025
1
1.11857
1
1
1.11627
1
0.952321
1
0.999908
0.890441
1.11836
0.999854
1
0.889013
1
1
1
1
1.06788
1
1.11838
1
1
1.12059
1
1
1.11871
1
0.892148
1
0.895202
1
1
1
1
1
1.11394
1.07323
1.11855
1
1.11852
1.11101
0.882916
0.888843
1
1
1.11825
1
0.890963
1
0.99765
1
1
1.11869
1
1.11825
0.888644
1.11949
1
0.888658
1
1
1.11922
1.11817
1
1.00001
1
1.11933
1
1
0.886393
0.999833
0.891335
1
1
1
1.11894
1.11803
1.11962
1
1
0.888887
1
1.11922
1
1
1
1.11454
1.1186
1.11859
0.889002
1.11904
1.11853
0.891209
1.11954
1.00001
0.892332
1.00555
1
1
1.11866
0.888707
1.07836
0.888643
1.11854
0.999251
0.887142
1.119
1
1
1
1
1.11846
1.11991
0.891261
1
1.00001
0.891218
1.00001
1
0.888456
0.892813
1.08545
1.11844
0.999567
1.11854
1
1.11872
0.947161
0.89051
1.11862
1.12229
1
1.11857
1
1
1.11857
1
1.0931
1.11971
1
1
1
1
1.11861
1.11735
1.11853
1
1
1.11824
1.12051
1.1188
1
1.11858
1
1
1
1
1
0.888914
0.952229
0.88867
1
1
1.11865
1
1
1.11891
0.885031
1
1.11857
1.11739
1.1139
0.885228
1
0.888727
1
1.00001
1.11951
1.06241
1.12001
1.10938
1
0.888909
1
1.11853
1.08765
0.892928
1
1
1
0.941153
1
1
1.12147
1
0.893935
1.11855
1
1
1
1
1
1.09726
1.02938
1
1.11877
1
1.11865
1
0.999234
1
1.11865
1.11934
1.11878
1.11947
0.999881
1.11985
1
1.11854
1.11874
1.10215
1
1
0.889333
1.11972
1
1
1.11916
1.1185
1.11828
1
1.11861
1
1
1.00001
1.11947
1.11813
1.03588
1.02846
1.11861
1.11849
0.902814
1
1
1
1
1
1.04605
1
1
1.10296
0.893847
0.999989
1
1.11854
0.99997
0.999945
1.01841
1.1114
1.12022
0.975375
1
0.889821
1
1.0019
1.11861
1.1192
1.11758
0.999726
1
1
0.889674
1
1
1.1186
1.01394
1
1
1
1
1
1
1
0.999982
1.11956
1
1
1
1
1
1.07943
1
1.05907
1
1
1.11854
1.11987
0.892538
0.999643
1
1
1
0.891171
1.11957
1.1186
1
1
1
1
1
1
1
1
1.11868
1.1184
0.891417
1.01445
0.892828
1
0.887753
1
1.11869
1.03614
1
1
0.910782
1
1.11402
0.942354
0.999031
0.887343
1
1
1.11923
1.00001
0.999204
0.884668
1.12001
1.11956
1
1
1
1
1.11161
1
1
1.1185
0.999701
1.11908
1.00001
1
1
0.889154
1
1
1.11867
0.889508
0.932394
0.8945
1.11856
0.999804
1
1.11905
0.888869
0.889281
1.00622
1
1
1.11993
1.00001
1.05585
1
1
1.11981
0.892158
1
1
1.00004
1.1193
1.00004
1.11629
1
1.00001
1
1
0.914027
1
0.93927
1
1
1.11864
0.889258
1
0.933335
0.942283
1
1
1.11865
1
1
1
1.11867
1.11854
1.00001
1.11729
1.12017
0.933621
1.11853
1.11415
1
1
1.11849
1
1
1
1
1
1.12097
1.11855
1
1
1
1.11859
1.00006
1
0.889698
0.913418
1
1.00001
1.0464
1
1
0.971504
0.893662
1
1
1
1.11979
1.10971
1.11857
1
1
1
1
0.890076
1
1.11482
1
1.11845
0.88935
1.11821
1
1
1
0.888919
1
1.11902
1.00001
1
0.891381
1.04734
1
0.9999
1.1228
0.885473
0.888631
1
1.1197
0.885846
0.889142
1
0.889157
1
1
1
1
0.888693
1
1
1
1
1.11938
1
1.0933
0.888888
1
1
1
0.890308
1.11859
1
1
0.999037
1.1162
1
1.11863
1.11934
1
1
0.914601
0.889299
1
1
0.891021
1.04001
1.05771
1
1
1.12026
0.999244
1
0.999352
1.12046
1
1
1
1
1
1
1.11856
1
1.0455
1.04202
0.903741
1.10635
1
1.11845
1.11865
1
1
1
0.976085
0.89074
1
1.06608
0.999903
1.104
1
1
1
1
1
1.00169
1.05642
1.1188
1.11877
1
1.1185
1
0.897426
1
0.9993
0.999936
1
0.886516
1
0.893877
1.00001
1.11934
1.11995
0.88959
1.11999
0.888876
0.998901
1.09233
0.889345
1.08753
1
1
0.999554
1
1
1
1.00002
1
0.889889
1
1
1
1
0.999884
1.11881
0.940924
1
1
1
1.01068
1
1
1
1.06952
0.924003
1
1
1
1.01512
1.12002
1
0.888955
1
1.11895
0.97197
0.88966
1
0.888962
1
1
1.11275
0.999493
1.11346
1
1.00251
1
1
1.11862
1
1
1
1
1.02604
1
1.11864
1.11889
1.11962
0.889242
1.11852
0.999173
1.09895
1
1
0.885236
1
1
0.890625
1.11881
1
1
0.999988
1
1
1
0.885271
0.889089
1
1.1201
1
1.05924
1.11854
0.889975
1.10115
1
1
0.894443
1
1
1.1186
1.11862
1.04744
1
1
1.00033
1.11947
0.888915
0.891792
1.11981
1.11849
1.08342
1.04994
1
0.971118
1
1
1
1.11234
1.11904
1.11865
1
1
1.11858
0.889064
1.10818
0.88657
1
0.894082
1
0.888871
1.11851
0.886132
1
0.99515
0.901671
1
1
1
0.9558
1.11208
1.1187
1.11905
1.11956
1
1
1.12007
1
1
1.1185
1
0.88889
1
0.888677
1
1.12007
1
1
1.00783
1.09323
1
0.999685
0.888923
1.11861
1
0.888914
1.02526
1
1
1.09411
1.11845
1.11861
1
1.11832
1.03418
1
1.00679
1.1185
1
1
1
1
1.11853
1
0.886833
1.11876
0.889962
0.888804
0.949036
1.11835
1.04492
1.11846
1
1.11974
0.999268
1.00001
1.11857
1.12023
1
1.11926
1
1.11851
1
1.1197
1
1.00001
0.999994
1.11903
0.88883
0.893754
0.999379
1
1
1
0.888894
1
1.08122
1
0.885004
1
1.04968
1.11862
1.11916
1
1
1.00001
0.999838
1
1.11964
1.11852
1
1.0537
1.11891
0.95554
1.11859
1.00008
0.886516
1.02742
0.888951
1
1
1.0221
1.12041
1
1
1.01304
0.999588
1
0.889005
1
0.935066
1
1.11849
1
1
0.888913
1.03001
1.01853
0.999574
1.11845
1.11852
0.932657
0.999451
0.889
0.888632
0.888865
1
1
1
0.99973
0.912874
0.89531
1
1.11851
0.999926
1.11857
1.11868
1.12011
1.11864
1
0.88878
1.11865
0.88778
1
1.11864
1.1193
0.999054
0.944554
1.11851
1.08793
1
0.890038
1
1
1.11875
1
1.00781
1.11856
1
0.889023
0.889296
1
1
0.886102
0.885008
1.11863
1.00002
1
0.884721
0.885428
1.11888
1.11381
1.11149
1.11965
1.03691
0.996396
1.05198
1.11845
1.09415
1
1.06422
1
0.885143
0.959339
1
0.88912
1.11861
1.00638
1.11887
1
1.11858
1.11943
1
1.11858
1.11865
0.889735
1.11939
1
1.1222
1
0.924141
0.889522
1.11865
1
1
1
0.889708
1.11866
1.11879
1
0.893705
1
1
0.890892
1.00001
0.885641
1.11991
1
0.947163
0.886609
1
1
1.07088
1
1
1
1.02193
0.890275
1
1
1
1.11846
0.890116
1
1.11856
0.88881
0.888884
1
1
1.11852
1
1.11866
1
1.11855
0.894393
1
1
0.889343
0.942609
0.888724
1
1
1
1
1.1183
0.885749
1
0.889744
1
1.11933
1
1
0.981462
1
1
0.947632
0.999909
1.00001
1
0.890064
0.893202
1
1
1
1
0.939646
1.11816
1.11946
1
0.889839
0.889107
0.974534
0.893838
1
0.948314
1
0.889132
0.997273
1
1
0.893369
1
1.1183
1.11609
0.890123
1
1
1
1.11851
1
1.01394
0.951709
1.04078
0.892922
1.05068
0.889418
1
1
0.911059
0.974574
1
1.01323
1
1
0.88886
1
0.982915
1.01434
0.890194
1
1.09871
0.925373
0.9661
1
1
1
0.89347
1
0.889912
0.890267
1
0.956664
0.889564
1.01996
0.92105
0.884958
1.11857
1
1.11857
1.0686
0.916893
1.11855
0.889037
0.99971
1.11946
1
1
1.11832
1
0.912168
1
1.02028
1
1
1.11862
1
0.929331
0.946882
1.12039
0.982171
1
0.927078
1.11856
1.11943
0.973862
1
1.11855
1.03478
0.955169
1
1.0065
1
0.894966
1.05405
0.929843
0.920354
1
1
0.895823
1.11863
0.990781
0.890583
0.886489
0.961381
1
1.00568
1.11957
1.11863
1
1
1
0.891828
1.05935
1
1.11826
1.11047
0.888821
1
1.02868
0.964914
1.07209
1.10332
1
1.01384
1
1.00002
0.884722
0.953702
1
1
0.946014
0.885079
1.01176
1
1
0.885083
1.05758
1
1.11681
1
1.01242
1.06779
1
1.11823
1
1
1.11868
1
0.886417
1.11959
0.904567
1.03385
1
0.892622
0.999975
1
1.00001
1
0.937738
1.00767
0.891195
1.09243
1.11985
0.883473
1
1
1
1
1
0.99137
0.888785
1.01588
0.890715
0.889944
1.02408
1
0.999941
1.03353
1
1
0.888068
0.999318
1
1
1.03692
1
1.1196
1
1.11947
1.02746
1.00802
0.891019
1
1
0.88905
1
1
1
1
1.11845
1.01251
0.999449
1
0.88566
1.0151
1
1
1.08059
1
0.888837
1.11863
1
1
1
1.11864
0.889267
0.964095
0.885852
1.09222
1.11837
1
1
1.11857
1
0.885425
1
1
1
1
1
0.930049
1
1.11879
1
1
1.04541
1.11947
0.890899
0.961751
1
1.1186
1
1
1
1
1
1.11855
1.1196
0.885329
1.11857
0.883899
1
1
1.11856
1
1.12004
1.00354
1.008
1.01869
1.11871
1.02073
1.08333
0.884396
1
0.885295
0.996642
1
1.11853
1
1
0.886986
1.11855
1
1.11943
1
1
1
1
1
1
0.891091
1.11939
0.956237
1.1185
1
0.889425
0.890043
0.91255
1.11967
1.11869
0.992301
1
0.938785
1
1.04886
1
1.11877
0.884922
0.889849
0.956345
1
1.11863
1
1.02463
0.895849
1
1.12025
1.10418
0.999674
1
1.11859
0.888961
1.11909
1.11846
1.11948
0.891519
1.02697
1
1
0.885034
1
0.943035
0.949902
1
1.00001
1.11864
1
1.11947
1.02569
1
1.01197
1.12114
1
0.889169
1
0.931151
1
1
1.09957
1
0.940296
1
0.89633
1.0108
0.987352
0.886245
1.11834
1.09792
1.11975
0.891556
0.905514
0.998805
1
1
0.899624
1.1125
0.889414
0.999991
1
1.11862
1.11919
0.973304
1
0.888941
0.90829
1.08214
0.994613
0.886674
1
0.888189
1.0343
0.893953
1
1.00002
0.945073
1.11978
1.11866
0.953272
0.999884
1
1
0.911945
1
0.888575
1
0.888265
0.890374
1
1
1.00001
0.894929
1.1186
1
1
1.00002
1.00001
0.890438
1.11867
1.11857
1
0.89092
1.12014
1
1.02893
1
1
1.11834
0.887056
1
1
0.888831
0.920486
0.890449
0.88882
1
0.904069
0.999196
1.02762
0.884485
1
1
1.03683
1
1.10627
1
1
1.0869
0.898033
1
0.888991
1.03575
1.11862
1
1
0.893892
0.888933
0.883928
0.917527
0.888938
1.09141
0.999829
1
1
1
1
1.11869
0.88888
1
0.982207
0.999907
0.999629
0.999983
0.925889
1.03621
1
1.11855
1.11866
1
1
1.11455
1.00001
1
1.11857
0.892464
1.11739
1
0.884393
1.1187
1.00002
1
0.948901
1
0.884595
1
1.11936
1
1
1.11932
1
1
1.11927
1
1
1
1.12038
1
0.922284
0.912431
1
0.884681
1.1187
1
1
0.994691
1
1.11926
1.07201
1.09737
1
1
0.894233
1
0.889303
1.11867
1.11994
1.1188
1
1.11955
0.890337
1
0.889381
1.09763
1.10989
1.1188
1.11873
0.928292
0.886562
1
1.07977
1.11925
1.11949
1.11855
0.922861
1.04677
1
1.09256
0.923145
1
1
1
1.00001
0.969546
1
1.11877
1
1
1
1
1
1
1.00002
1.11808
1
1.11953
1.09082
0.889881
1.12008
1.00965
1.06341
1
1.11848
1
0.889635
1
1
1
1
1.10277
1
0.883712
1.11837
0.883115
1.11856
1.09708
1.06526
1
1.02462
1.05911
0.998783
0.889387
0.93143
1.00001
1
0.978055
1
0.885709
1.11908
0.884802
0.980306
0.957866
1
1
1
1.00365
1
1
0.889512
0.998941
1.11998
1
1.11863
1
0.889345
1
1
1.11856
1.11831
0.884851
1
1.11928
1
0.94273
0.886322
1.11908
1.10766
1
1.02235
1.11858
0.99962
1
1.05313
1.10571
1.11869
0.998861
1
0.999999
1.10226
1
1
1
1.11859
0.999573
1
1
1.11869
1
1
0.892022
1
1
1
1.11917
1
1
0.958974
1.03978
1.10881
0.931482
1
1.11856
1
1.04333
1
1.11916
0.999211
1.11861
1
0.88902
1
1.08765
1
1
1.1115
1
1.11863
1
1.11847
0.903723
0.892324
1.11934
1
1.10241
1
1.11933
1
1
1.00001
1.11882
1.11866
1.03418
1.1185
0.99884
0.888981
1.11867
0.961902
1
1.11825
1
1.1186
1
1.11907
1.11943
0.998943
0.888034
1
1.11855
1
1.00864
1
1
0.999417
0.920516
1.10729
1
1.10881
1
0.962738
0.885426
1.11834
1.11861
0.902635
1
1.11871
1.11956
1.1189
0.903279
1.11846
0.895011
1.11898
1.11809
1
1
1.11862
1
1
1
1
0.890415
1
1
1.11948
1.11857
1
1.11864
1
1.12025
1.11986
1
1.10065
1
0.884177
1.11849
1.09017
1.03677
0.883563
1.1186
1
1
0.88759
1
1
1.11851
1
1
0.933559
1
1.11868
1.00002
1.11849
0.885531
1.11983
1
1.11856
1.11443
0.970023
1
1.11868
0.929701
1.11877
1.08581
1.11857
1.11878
0.999193
1.11995
1.11862
1.11859
1.1186
1.00011
1
0.888659
1
1.1199
0.948639
1.10917
1
1.11664
1
1
1
1
1
1.11792
0.886676
0.889624
1.11894
1.11854
1
1
1
1
1
1.1178
1.10849
1.11863
1.00514
1
1
1
1.00001
1.1183
1.1185
1
1.11924
1.11944
0.893459
1.08577
1
1.11861
1.11965
1.1178
0.999385
1.11863
1.11867
1
1.11009
1
1
1
1
1
1
1.11861
1.12
1.1112
1.11858
0.888149
0.906692
1.11854
1.11862
1
0.885893
0.984562
1
1.06061
0.886158
1
0.999845
0.999504
0.889476
1
1.11861
1
1
1
1.11941
0.986801
1
1.11854
1.11857
1
1.11877
1
1
1.11855
1
0.889198
1
1.11856
1
1
0.893471
1
1.11844
1
0.885819
0.886915
1
1.1151
1
0.885261
0.967399
1
1.11863
1
1
1
1.11971
1
0.890705
1.01779
1.11906
1.11887
1.1186
1.01293
1.11897
1.11852
1
1
1
1
1
1.11858
1
0.999801
1.11841
1
0.884114
1
1.11851
1.05871
1.01858
1.05875
1.01923
1.11909
0.907923
1.1186
1
0.890715
0.999182
1.11852
0.985204
1.11855
1.11868
1.11428
1
1.11916
1.11858
1.11859
1
1.00001
1
1
1.11921
1.08742
1
1
0.888366
0.999059
1
1.11861
1
1.11854
1.11866
1.11895
0.97482
1.11861
1.11871
1.00428
1.06141
1.11964
1.11869
1
1.11051
0.951371
1.11769
0.996758
1.11868
1
1.1185
1.11853
1
0.893864
0.982183
0.905829
1
1.02491
0.999076
1.11913
1
1
0.99905
1
1.06322
1.11184
1
1
1.11847
1
1
1.08719
1.11867
1.11425
1.11887
1.11864
1
1.11881
0.916726
1.11884
1
0.999946
0.892127
1
1
0.923046
1
1.04064
1
1.11898
1
1.11659
1.07812
0.888933
1
1
1
1
1
1.11876
1.00331
1
1.11929
1
1.11858
1.11863
1
1
0.992594
0.999956
0.885904
0.885033
0.914711
1.02594
1
0.999551
0.887023
1.00001
1
1.11858
0.98261
1.11128
1.10423
1
1
1
1
1
1.11859
1.11868
1
1.11901
1
1.11988
1.08261
0.998904
1
1
1
1.07179
1
0.988259
1
1.11846
1
1
1.11849
1
1
1
1
1
1.11883
0.883956
0.998847
1.10752
1.11853
1
1.11855
1
1
1
1
0.903317
1
1.11865
1.11855
1.11854
1.12005
0.987298
1
1.10219
1.03177
1.11974
1.11932
1.02385