/*--------------------------------*- C++ -*----------------------------------*\
  =========                 |
  \\      /  F ield         | OpenFOAM: The Open Source CFD Toolbox
   \\    /   O peration     | Website:  https://openfoam.org
    \\  /    A nd           | Version:  12
     \\/     M anipulation  |
\*---------------------------------------------------------------------------*/
FoamFile
{
    format      ascii;
    class       volScalarField;
    location    "8";
    object      T;
}
// * * * * * * * * * * * * * * * * * * * * * * * * * * * * * * * * * * * * * //

dimensions      [0 0 0 1 0 0 0];

internalField   nonuniform List<scalar> 
22702
(
1
1
0.959298
1
1.0177
1
1.1202
1
1
0.899559
1.12084
1.1209
1
1.11852
0.964681
1
1
1
1.12075
1
1.11864
1
1.11853
0.89897
1.11819
0.883922
1
1.11806
0.898093
0.898646
1
1.12124
1
1
1
1.11056
1.11816
1.11883
1
1
0.889551
1
1.06325
1
1.11803
1
1
1
1
0.895384
1
0.894609
1
1.12067
1
1.12157
1
1
1
1
0.87976
1
1
0.900156
1
0.897287
1
1
1
0.885046
1
1.11853
1.07589
1
1.11881
1.12588
0.896897
1.12002
0.897675
1
1.12072
0.895783
1.11923
1.11809
1
1
1
1
0.982113
0.892037
1.12173
1
1
0.903799
1
1.11875
0.903208
1
1
1
1
1.06283
1.12069
0.883388
1
1
1.03248
1
0.897002
1
1.12112
1.12056
1
1
0.882936
0.886192
0.895548
1
1
1
1
1
0.975384
1
1.10287
1.01429
1.12098
1
1.12192
1.12076
1.11835
1.12101
1
0.877021
1
0.892901
1
1
1
1
1.12068
1
1
1
1
1.11947
1
1.00738
1
1
1
1
0.897072
1
1.00312
1
0.898199
1
1
1
1.12136
1
1.11847
0.892441
0.88359
1.11829
1.11766
1
1.02324
1.07152
1
1.11972
0.897986
1.11088
1
1
1
1
1.11863
1.09712
1
1.12074
0.90038
1.12072
1
0.893778
1
0.89657
0.88626
0.999941
1
1
1.11956
1
1
1.1187
1
1.12083
1.12074
0.893657
1
1
0.896781
1.11843
1
1
1
1.11849
1
0.894535
1
1
1.11837
1.11865
1.121
1
1.00001
1
1
1
1.11859
1
0.897563
1.1236
1.11851
1.11843
1
1
1
0.893389
1.11848
1.05763
1
1.11889
0.895517
0.89475
1.11895
1.11823
1
1.12066
0.87416
1.10611
1
1
1
1
1.11868
1
1.07205
1.01235
1
1
1.11859
0.896211
0.925187
1
1.11904
0.894565
1.12025
1
1
1
1
1
1
1
0.893813
0.92066
0.893518
1.11847
1
1
1
1
1.11061
1
0.895997
1
0.886174
0.898408
1.11844
0.893864
1.11864
1
1
1
0.999288
0.892514
0.87808
1
1
0.886882
1
1.12052
0.88471
1
1
1.12073
0.895242
1
1.11874
0.887032
1.11857
1
0.889804
0.999351
1
1
1
0.894612
1
1
1
1
1.00591
1.07565
1
0.88856
1
1
1
1
1
1
1
1.12082
1
1.12013
1
1
1
0.891845
1
1.11923
0.892311
1
1.09602
1
1
1.12102
1
1
1
1.11758
1
1
1.11761
1.12103
1
1.02946
1
1
0.894796
1
1
1
0.903176
1
1
1
1
0.891835
1
1
1
1
1
0.890778
1.00002
1.11834
1
0.999998
1.11802
1.11825
1
1
0.896755
0.949727
1.12101
1
1
1
1.11849
0.883895
1
1.11845
1
1
0.904694
0.906187
1
0.897695
0.89094
1
1
1
1
1
1
1
1.11919
1.03215
1.1118
0.892928
0.973421
1.12081
1
1.11926
1.12085
0.888972
0.936695
1
0.896371
1
1.12434
1
1
1
1
1.11856
1
1
1
1
1
1
1
1.04785
1.12061
1
1.11841
1
1
0.897594
1
1
1
1
1.11852
1.09326
1
1
0.898282
1.11844
1.11859
1
1.11842
1.11871
1.1185
1
0.955956
1
1.11868
0.998837
1.11844
1
0.893054
0.99966
1.12113
1
1
1
1
0.896769
1.11859
1.10863
1
1.11883
1.1186
1.1208
1
1.05975
1.11843
1
1
1.08453
1.019
1.11836
0.983141
1.11849
1
1.11852
1.11851
1.11867
1.11845
1
1.11654
0.97693
0.969912
1
1
1
1
1.11821
1
1
1
1
1
1.12146
1
1
0.998876
1.11863
1.10417
1
1.101
1.00001
1
1
1.11841
1
0.999126
1.00129
1
1.11863
1
1.11839
1
1
1.09041
1
1.11855
1.00001
1
1.11893
1
1.11857
1
1
1
1.11869
1
1.11769
1
1.11862
1.12153
1.11849
1.11796
1
1.12101
1.11785
1
0.898914
1.11182
1.0874
1
1.11862
1
0.895057
0.888214
1
1
1
1
1
0.902559
1
1.11843
1.03281
1.11836
1
1
1
1
1
1.11852
1
1.11928
1.07474
0.938539
1
1
1.03696
1.03281
1
1
1.04693
1
0.900534
1.11849
1.11856
1
1
1
1.12181
1
1.00001
1.11848
1.11842
0.985251
1
1
0.894734
1.10884
1
1
1
1
1
1.11867
1.12094
1
1.1192
1.11806
1.11854
1
1
1
1
0.885297
1.12055
1
1
1.10894
1.11831
1
1.11241
1.12197
1
1
1
1
1
1.11853
1
1
1
1
1.11824
1
1.11699
0.891797
1
0.889191
1
1
1
0.999122
0.898278
0.999727
1
1
1
1.01813
1
1
0.960613
1
1
1
1
1
1
1
0.999999
0.983202
1
1
0.999292
1
0.897264
1
1
1
1
1.09129
1
1
1
1
0.893397
1
1
1.1123
1.12001
1
1
1
0.969207
1
1
1
1
1
1
0.984551
1.00517
1.11862
1
1
1
1.11906
0.96962
1
1
1
1.11826
1.11815
1
1
1
1
1
1
1
1
1
0.890252
1
1
1.11976
0.894858
1
1.11906
1
0.899345
1
1
0.889084
1
1
1
1
1
1
1
1.11644
1.11833
1
1
1
1
1.10916
1
1.0389
0.897278
1
1
1
1
1
1
1
1.00988
1
1
1.06561
1
1
1
1.09997
1
1
1
1
0.894806
1
1
0.886595
0.895739
1
1
1.11864
1
1.00303
1
1
1
1.08537
0.884632
1
0.883031
1
0.93144
1
1
1
1.11828
1
1
1.11855
1
1
1
1.11857
1
1
1.11862
1
1
0.889439
1
1.03876
1
1
1.12089
1.12081
1.0819
1.10711
1
0.893885
1
1
1.11377
1
0.886872
1
1
1
1.11869
1
1
1
1
1.07486
1
1.11614
1.11936
0.901754
1
1
0.882841
0.88478
1
1
1
1.08667
1.09312
1
1
1
1
1
1
1
1.05472
1.11825
1.00326
1
1.11733
0.875467
1
1
1
1.06806
1
1.02539
1
1.10916
1.11827
1
0.893094
1
1.12137
1
1
1.11859
1.11214
1
1.12201
1
0.897933
1
1
1
1.11915
1.11642
1.10561
1
1.11933
1.11845
1
1.1188
1
1.11829
1
0.894148
0.997062
0.891291
1
1
1
1
1
1.11874
1
1.11863
1
1
1
1.11328
1
0.89881
1.11858
1
0.897686
0.890537
0.887935
1
1.06012
1.01124
1.11919
1.11848
1
1
1
1
1.11858
1
1
1.11856
1.1184
1
1.04441
1.00007
1
0.999049
1.12267
0.959032
1
0.949099
0.900419
0.900115
0.989195
1.11776
1.11727
1.02753
1.11858
1.11841
1
1
1.12127
1.11988
1.1187
1.12095
1
1.11872
0.896495
1.11983
1.11915
1.1187
1.11942
0.961452
0.967841
0.979195
1.11881
0.990264
1.11844
1
1
1.11921
1.11872
1
0.895554
1.11867
1.11842
1
1.11849
1.11847
1
1.11848
0.895618
1.11762
1.11888
1.121
1.1184
1
1
1
1.11853
1.0806
0.8851
1.1185
0.888511
1.11868
1
1
1
1
1.11868
1.11865
1
1
1.1187
0.889721
1.11878
0.898317
1
1.11779
1
0.8988
1.11891
0.915135
1
1.11856
1.11928
1.11883
1
1
1.05645
1.11928
0.899363
1.11869
1
1.11866
0.964284
1.11908
0.890314
1
1.11927
0.898332
1.11918
0.899067
1
1.11863
1
1.1206
1
1.07291
1.11453
1.09542
0.874762
1
1.11916
1
1.1186
1
1.11844
1
1
1.11864
0.996342
1.11932
0.899999
1.11241
1
1.08648
1
1.1184
1.11842
1.11823
1
1.10758
1.11897
1.11057
1.07615
1.12096
1
1.08162
1
1.11903
1
1.01799
1
1.11066
1
1.1187
1.11351
1.11344
1
1.11808
0.888307
1
0.892671
1
1
1
1.12189
1
1.11888
1
1
1
1.1189
1.11668
1.0981
1.1183
1.11884
0.888826
1.11708
1.12112
1
1.10449
1.11857
1.11249
1
1.12016
1.12169
1
1.1202
1.11864
1.11867
1.11881
1
1
1
1.11874
0.879606
1
1.11845
1
1
0.885796
1
1
1.11877
1.11848
1
1.11851
1.11965
1.11898
0.995958
1.11862
1
1.1186
1.11855
1.09847
1
1
1
1.11904
1.1184
1.11859
0.987165
1
1.12019
1.1184
1.1184
1
1.11855
1.11849
1.11867
1.12034
1
1.11863
1.11922
1.10399
1.11894
1.12
1
1.12025
1.1174
1.11864
1.11971
1.11889
0.884549
1.11858
1.11943
1
1.11859
1.11869
1.11858
1.11858
1
1.11849
1.11849
1
1.11849
1.10104
1
1
1
1.11752
1.12
1
1
1.06674
1
1.11852
1
1
1.11854
1.11888
1.11871
1.11836
1
1
1
1.0868
1
1.11876
1
1
1.12278
1.11904
1
1.11864
0.885743
1.11848
1.11872
0.908162
1
0.872003
1.10489
1.11929
1.11898
1.11885
0.894117
1.11901
1.11863
0.890534
0.88517
1
1.11859
1.11879
1
1
1.11865
1
1.11936
1
1.10478
1
1.05949
1.11849
1.11916
1.08748
1.10725
1.12213
1.11853
1.11106
1
0.878645
1.11874
1.11899
1.11923
1
1
1
1.1195
1
1.11896
1.11872
0.922817
1
1.11863
0.999982
1
1.00001
1.00001
1.11895
1.11858
0.999559
1
1
1.11861
1.1193
1.11857
1.12004
1.11797
0.882721
1.10266
1
1.11771
1.11862
1.11852
1.11766
1
1.11877
1.11575
1.11912
1
1.11841
1.11875
0.957218
1.11869
1.11836
1
1.1184
0.950108
1.11893
0.959402
1.1189
1
1.11859
1.12366
1.11847
1.11846
1.11859
1.11819
1.11885
1.11881
1
0.976202
1.11918
1.11843
0.954549
1.11873
0.994646
1.07402
1.11891
1.11854
1.11924
1
1.11936
1.08012
1.11834
0.976565
1.1192
1.1208
1
0.964403
1
1.11813
1
1.08476
1
1.11243
0.966989
1
1.11827
1.11696
1
1.11972
1.11921
1.11776
1.11499
1.11959
1
1.11995
1
1
1
0.973767
1.11829
1.11899
1.11983
1.11869
1.12135
1.1194
1.11836
1.11875
0.974313
1.0086
1
1
1.124
1.11871
1.11852
1.11844
1.00001
1.06387
1
1.12004
1.11031
1
1
0.927173
1.11864
1
1
0.897947
1.1186
1
1.11917
1.1186
1.12234
1.11467
1.11866
1
0.874115
1.03185
1.11855
1.11861
1
1.11856
1.11883
1.05974
1.00287
1.02805
1
1.12048
1.11866
1
1
0.894445
1
1
1.11856
1.11853
1.11936
1.11857
1.11853
1.12074
1.11856
1.11851
1.11844
1
0.998934
1.11897
1.11874
0.999134
1.11863
1.11877
0.880058
0.901137
1.11815
1.11716
1
1
1.00041
1.11866
1.11888
1.11849
1
1.11876
1
0.955014
1.11953
1.11516
1
1.05606
1.11863
1
1.11964
1
1.11856
1.08234
1.11869
1
1.11838
1.11944
0.889577
1.11866
1
1.11859
1.11805
1
0.879349
1.11802
1.10035
0.999291
1.11751
1.1187
1
0.999529
1.12012
0.999272
1.11856
1
1
1.11893
1
1.11985
1.11875
0.998951
1.09857
1
1.11878
1
1
1
1
1.1184
1
1
1.11928
1
1.11851
1
1.0794
1.11982
1.11892
1
1
0.998932
1
1.1185
1.11862
1.11861
1.11853
1.11881
1.11858
1.1187
1
1.11859
1.11865
1
1.11867
1.11849
1
1.11896
0.981323
1.01662
1.11869
1.11852
1.11849
1
1.11853
1
1.11856
1.11854
1
1.11855
1
1
1
1
1.11846
0.87586
0.999383
1
1.11852
1.11791
1
1.11852
1
1.00126
0.893449
1.11858
0.999889
1
1.11818
0.999535
1.11862
1
0.999932
1
1.11824
1.11998
1.11835
1.11996
0.896939
1.11815
1.11857
1.11867
1.03145
1
1
1.05465
1.11857
0.873834
0.894984
1
1.11867
1.11842
1.11879
1
1
1.11828
1.11866
0.999967
1
1.08637
0.890467
1
1.02279
1.12017
1.11946
0.999493
1.11857
1.1206
1
0.99974
1
1.11939
1.12216
1.05048
1
1.11157
1
1.0005
1.11875
0.885448
1.11842
1.11858
0.99911
0.999974
1.10444
1
0.99991
1
1.1187
1
1
0.874373
1.1188
1
1
1
1
1.11957
1.07043
1
1
0.888004
1.11863
1.07055
1
1
1
1.11343
1.11943
1.11869
1
1
1.11833
1
1.11859
1.11856
1
1
1.11881
1.11845
1.11356
1
1
1.11892
1.11944
1
1
1
1.11917
1
1
1
1.11845
1.11957
1.11934
1
1.1197
1.00001
0.912983
1.11863
1.11881
1
1.12025
1.11399
1.12094
1
1
1.1191
1
1.06661
1.1187
1
0.889951
1
1.11891
1
1
1.11928
1
1
1
1.03895
1.11847
0.909385
1
1.11883
1
1
1.11832
1
1.11876
1
1
1.11846
1.11874
1
1.00001
1
1
1
1
1
1
1.11893
1.11869
1
1.1192
0.889106
1.11708
1
1.11864
1.11744
1.11881
1.11676
1.12238
1
1
1.11927
1
1.08034
1.11938
1.11838
1
1.11977
1.11618
1
1.1071
1
1.11861
1.08043
1.11932
0.999277
1.11493
1.11083
1.11916
1.11875
1.01042
1.11843
1.1193
1
1.11846
1
1.11856
1
1
1
1
0.999075
1.11843
1.11867
1.10087
1
1.11925
1
1
1
0.872969
1
1.11638
1
1.10875
1.11465
1
1
1
1.1147
1.12261
1
1
1.11888
0.892043
1.02143
1
1.11875
1.1185
1.10927
1.11656
1.11842
1
1.11821
1
1
1
1
1.11836
1.11854
1
1.11524
1.01578
1.11814
1.11105
1
1
1.11137
1
1
0.895825
1.08606
1
1
1.1198
1
1.11936
1.10874
1
1.10829
0.891913
1.11879
1.11871
1.11877
1
0.897981
1
1
1
1.11832
1.09784
1
1.11944
1.11829
1
1.1187
1
1
1
1
1.11837
0.999817
1
1.11883
1
1
1.1181
1.11854
1
1.12
1.02536
1.00001
1
1.11823
1
1.11829
1
1.00378
1.11862
1
1.11798
1
1
1.03938
1.11841
1
1
1
1
1
0.998831
0.889215
0.874986
1.00508
1
1.00738
1
1.00846
1
1.11858
1
1.0743
1
1.11883
1
1
1
1.11879
1
1.09312
1.1185
1
1.0681
1.11874
1
1
1.12172
1.11866
1
1
1.01444
0.876771
1
1.11874
1
1
1
1
1.02116
1.11884
1
1
1
0.901274
1
1.11865
1.11873
1.12219
1
1
1
1
1.06284
1.12003
1
1
1
1.11869
1.11844
1.0153
1
1
1
1.11848
1.11841
1
0.886495
1.11887
1.11851
1.11889
1.11883
1.11886
1
1
1.11877
1.11825
1.11857
0.899909
1.01146
1.11861
1
1
1
1
1
1.11851
0.892681
1
1
1.1186
1.05674
1
1.11913
1
1
1
0.89066
1
1
1.0339
1.11893
1.11862
1
1.11968
1.11844
1
1.0223
1
1.11968
1
1.11891
0.892265
1
1
1
1
1.11884
1.00002
1
1
1
1.11208
1
1
1
1
1.11862
0.88989
1.09469
1.11893
1
1.11864
1
1
1
0.999162
1
1.11749
1
0.940181
1
1
1.00001
1.11871
0.892938
1
1.11899
1
1.11882
1.11864
0.901823
1
1
1.11828
1
1
0.897757
1
1.11916
1
1.11354
0.999798
1.11831
1
1
1
1
1.11872
1
1
1.11854
1
1
1
1
1
1
1
1
1.07988
1
1.04043
1.11828
1
1
1
0.889095
1
1
1
1
1.11805
1.1186
1.01588
1
1
1.11885
1
1
1.11852
1
1
1
1
1
1
1.1184
0.931733
1.11848
1.11887
0.999179
1
1
1
1.07345
1
1
1.11894
1.11857
1
1
1
1
0.895111
1
1
1
1.08112
1
1.11851
1.11941
1
1.11893
1
1
1
1.06837
1
1.12073
1
1.11844
1
1
0.998917
1.11842
1
1
1
1
1
1.11879
1.00001
1
0.897465
1.11955
0.895905
1
1.11853
1
0.998837
1
1.11892
1.11941
1
1.11809
0.963715
1.11848
1.11706
1.00001
1
1
0.889424
1
1
1
1.11857
1.07266
1.11936
1
1
1
1
0.999082
1.11831
1
0.892485
1
1
1
1
1
1
1
1.12033
1.119
1.11682
1
1
0.999114
1
0.99642
1
1
1
0.877359
0.994124
1
0.885286
0.889597
1
1.11878
1.11853
1
1.11824
1.11857
0.891699
1.08715
1
1
1
0.891843
1.11834
1
0.890279
1
1.12092
1.0223
1
1
1
1
1.11855
1.11991
1
1
1.11854
1
1
1.11979
1.11852
1
1.11175
1.11864
1.12025
0.992333
1.11881
1.00241
0.892277
1.09361
1.11864
1
1
1
0.886207
1
0.88995
1.12043
0.991429
1.11854
0.983869
1
1.11824
1.05755
1
1
1.11826
1
1.05328
1.11869
1
1
1.119
1.12093
0.88646
1.07638
0.999968
1
1.07435
1
1.11969
0.982672
1.1224
1.11972
1
1
1
1
1.11979
1
1
1.11907
0.999895
1.11835
1.10083
1.11837
0.89462
1
1
1
1
1.11843
1.00001
1.118
1
1.11843
1.11928
1.01681
1.11947
1.0419
1.11847
1
1.08424
0.894544
1.11975
1.11842
1.09668
1.02251
1.11969
1.11843
1.11826
1.11818
1
0.978437
1.01749
1
1.11846
1.0597
1.11861
1.00001
1
1
0.90569
1.11913
1.11965
1.09845
1
1.04884
1
1.11936
1.11902
1
1.11831
1.11943
1
1
1
1.11811
1
1.04917
1.11967
1.08456
1
1.11843
1
1
1
1
1
1
1
1
1
1
0.908669
1
1.10991
0.883796
1.073
0.99959
1.11922
1
1.06557
1
1.07937
1.10237
1
1.00076
1.1188
0.975438
1
1.11841
1.11858
0.98615
1
1.1187
1.11836
1.11916
1
1.11866
1.11832
1.11869
1
1.05986
1
1.00002
1.11861
1
1.11818
1.01877
1.11787
1
1
1.11918
1.11855
0.894461
1
1.11918
1.09177
1.11844
1
1
1.12021
1.11888
0.999494
1
1.10369
0.999089
1.11844
1.00001
1
1
1
1
1.05694
1
1.09465
1.11976
1.09079
1.11891
1
1.00109
1
1
1.11987
1
1.11882
1
1
1
1
1
1
1.01457
1.06358
1
1
0.87838
1
1.1188
0.909587
1.11916
1
1.06611
0.999929
1.11859
1.07774
0.895146
1.06866
1.00001
1.11854
1.11835
1
1.0744
1.11865
1.11879
0.999544
1.12011
1.11572
0.879113
1
1
0.999121
1
1.11619
1
0.891844
1.1193
1
1
1.10501
1
1.11969
1
1.11833
1
0.899577
1
1
1.11897
1.11919
1.11926
1
1.11895
1.11841
1.11761
1
1
1.11692
1
0.914841
1
1
1
1.11838
1
1.11848
1.08001
1.11883
1
1.11849
0.999821
1
1
1
1
1
1
0.912014
1
1
1.1184
1
1.11912
1.11869
1
0.896825
0.88953
1
1.11897
1.02006
0.892706
0.885487
1
1.11856
1
1.11887
0.899627
1.00034
1
1
0.999862
1
1
1
0.999975
1.05355
1.11882
1
1
1.1188
1.07211
1
1.11139
1.11853
1.11934
1.0536
1.11851
1
1.11858
1
1.1155
1
1.1199
1.11801
0.9992
1.11861
1.11765
1
1
1
1
1
0.977357
1.12025
1.00001
1.00001
0.887943
0.999994
0.876189
0.873682
1
1.11825
1.119
1.11853
1
1.11846
1
0.893492
1
1
1.11863
0.952449
1.11883
1
1.11803
1
0.995678
1.11913
1
1
1
1.11894
1
1.11863
0.887585
1
1
1.07276
1
1
1.06907
1
1
1.1182
1
1
1
1
1
1.11971
1.11869
1
1.11913
1.11887
0.889258
1.05785
1.11892
1
1
1.10791
0.999689
1
1
1.11852
1.11827
1.08295
1
1.11856
0.895494
1.10865
0.999919
1
1.11903
1.00001
1.11876
1.1035
1.09297
1
1
1.11852
0.920181
0.8847
1
1.11875
1
1.11867
1
1.07389
1
1
1.11828
1.07985
0.890733
1
0.999453
1
1
1.00766
1.05281
1.11857
1
1.12028
1
1
1
1
1
1
1.01902
0.892305
1
1
1.01096
1
1
1
1
1
1.11862
1
1
1.11875
1.11834
1.08782
1
1
1
0.955156
1.11964
1.08495
1
1
1
1
1.1187
1
1
1
1.11925
1
1
1.08626
1.12214
1.01034
0.925662
1.11873
1.08639
1.11914
1
1.06189
1
1
1
0.880251
1.0007
0.89668
1
0.894499
0.884154
1
0.887664
1
1
1
1.05456
1
1.11895
1.11854
1.0004
1.06234
1.10188
0.88193
0.927396
0.960631
1
1.11849
1.11871
1.11848
1.11866
1.10285
0.963734
1
1.10385
1
1.11396
1
1
0.998954
1.00271
1
1
1
1.11928
1
0.87599
1
1.11921
0.893726
1
1
1.11854
1
1.11853
0.999866
1
1
1.11871
1.10651
1
1.12388
1
1
1.00428
1
1.05893
1
1
0.887808
1
1
1.11881
1
1.11852
1
1.00001
0.887636
1
1
0.892249
1.00031
1
1.11862
0.881958
1.11951
0.890829
1.11885
1
1
1
1
1
1
1
1
1
1
1
1.11418
1
1.11894
1.11953
0.892433
1
1
1
1
1
1
1.11566
1
1
0.892557
1
1
1.1186
1
1
1.04727
1.10068
0.889928
0.892445
0.905302
0.918671
1
0.999043
0.892435
1.00012
1.11259
0.999114
1
1
1.1182
1
1
1
0.922012
1
1.04374
1
1
1.0518
1.11835
1
0.881784
1
1
1
0.998991
1
1.11797
1.11893
1
0.887291
1
1.06841
0.893128
1
0.96465
1
0.9988
0.880436
1
1
1
0.998727
0.897123
1
0.892421
0.999544
1.0652
1.1064
0.892561
0.892917
1
0.997463
1
0.99962
1
1.11868
1.11857
1
1.00735
1.1184
1.11851
1
1
1.11884
1
1
1.00001
1
1.11948
1
1
1.00513
1
0.999592
0.912441
1
1
1
1
1
1.11944
1.00993
1.00002
1
1
1
1
1
1.00001
1
0.890601
1.03144
0.999603
1.11621
1.11846
1
1.00439
1.11843
1.10313
1
1
0.876767
1.11879
1
1.11937
1
1.11893
1.08768
0.889694
1
0.89292
1.10909
0.999909
1
0.8921
0.876659
1
1
1.10154
1
1
0.889322
1
1
1
1.04099
1
0.892244
1.11863
1
1
1
1
1.1187
1
1
1.11734
1.10763
1
1
1
1.11842
0.885576
1
1.11916
1.11865
1
1.09685
1
1.00001
1
1
1.11178
1.00717
1
0.890003
1.06908
1
1
0.999109
1
1
1.11802
1
1
1.00001
1
1.11927
1
1
1
1
1
1
1
1.05753
1
1.11823
1
1
1.11907
1
1
1
1.11853
1.11803
1.0133
1
0.999304
1
1
1
1
1.11985
1
1
1.11873
0.890685
1
1
1
1
1
1
1.09758
1
1
1.11832
1.11899
1
1
1
1.11912
1.11881
1
0.999919
1.1174
1
1
1
1
0.884888
1.00828
0.998853
0.99896
1
1
0.883367
1.11935
1
0.885178
1
1.11794
1.11429
0.890472
0.999832
1.11853
1.11912
1.11887
1
1
0.973651
1.10807
1.1033
0.880079
1
1
1
1.11825
1.11858
0.885727
0.999229
1
1.11864
0.880494
1
1.1173
0.892701
0.992939
1.00186
1
1.11944
1
1
1
1
1
1
1.00003
1.11121
1
1
1.1193
1
1
1
1.11886
1
0.890582
1
1
1
1.04496
1
1
1
1
1
0.934238
1
0.884827
1
1.11883
1.00002
0.961004
0.963658
1
1.00144
1.0643
1
1
0.890958
1.11886
1.11866
1.11876
1
0.886673
0.882612
1
1.1184
1
1
1
1
1
1.00001
1
0.89418
1.07702
1
1
0.888985
0.99641
1
1
1
1
0.879713
1
0.894602
1
1
1.11831
1
1
0.890013
1
1.11854
1
0.880828
1
0.893247
1
1.0021
1.11841
1.1236
1
1
1.11951
1
1
1.03027
0.999072
1
0.999481
1
1.11868
1
0.89426
1
1.12101
0.999697
1
1
0.930961
1
0.999728
0.89004
1.11877
1.04767
1
1
0.978115
1
1
1
0.928867
1
1
1
1.11854
1
0.891463
1
1
1
1
0.890685
1.11869
1.10761
0.890129
1
1.12028
1
1
1.11858
1.11936
1.10162
0.889605
0.999332
0.999778
1
1.11869
1
1
1
1
1.11857
1.00001
1
1
1.11942
1
1
1.1185
0.886013
1
1
1
0.893404
1
1
1
0.999602
1
1
1
1
1.09639
1
1.12002
1.11888
1.12203
1.11861
1.11912
1.11856
1
1.11841
1
1.11878
1.11854
1
0.999669
0.884951
1.10294
0.999974
1
1
1
1
1.00252
1
1.01971
1
1
1
0.960488
1.11869
1.11867
1.11935
1.1078
0.999966
1
1.00638
1.11899
0.999385
1.01762
0.999186
0.903978
1
1.00001
1
1
1
1
1
1.11839
0.890093
1.11886
1.11861
0.998487
0.891575
1
1
1
1.11847
0.886423
1.10587
0.889336
1.11875
1.11937
0.89394
1.11868
1.00669
1
1.11897
0.934991
1
0.999652
0.877775
1
0.893018
1
1.11844
1.11862
0.924762
1
1.11889
0.902746
1
0.888293
1
1.11864
1
1
1.11873
1
0.95304
1
0.999904
0.893778
1.11918
0.999853
1
0.878853
1
1
1
1
1.0691
1
1.11869
1
1
1.12182
1
1
1.11913
1
0.888295
1
0.895456
1
1
1
1
1
1.11413
1.06945
1.11841
1
1.11838
1.1113
0.88083
0.878362
1
1
1.11879
1
0.885439
1
0.997126
1
1
1.11847
1
1.11929
0.883397
1.11939
1
0.884793
1
1
1.11872
1.11823
1
1.00001
1
1.11486
1
1
0.87765
0.999824
0.882959
1
1
1
1.11895
1.12009
1.11923
1
1
0.883604
1
1.11919
1
1
1
1.11288
1.11848
1.11861
0.891786
1.11854
1.1186
0.894002
1.11955
1.00001
0.898673
1.00538
1
1
1.11822
0.893434
1.07727
0.893588
1.11852
0.999288
0.886953
1.11893
1
1
1
1
1.11848
1.11939
0.891877
1
1.00001
0.892783
1.00001
1
0.897023
0.885561
1.08586
1.11868
0.999569
1.11854
1
1.1191
0.945725
0.892129
1.11837
1.12042
1
1.1179
1
1
1.11874
1
1.09401
1.11955
1
1
1
1
1.11866
1.1174
1.11899
1
1
1.11842
1.12097
1.11946
1
1.11869
1
1
1
1
1
0.891104
0.955918
0.883432
1
1
1.11888
1
1
1.1184
0.8888
1
1.11876
1.11744
1.11374
0.878685
1
0.892239
1
1.00001
1.11942
1.06022
1.12028
1.10956
1
0.881139
1
1.11804
1.08781
0.893455
1
1
1
0.936908
1
1
1.1199
1
0.894486
1.11885
1
1
1
1
1
1.09726
1.0298
1
1.11872
1
1.1184
1
0.999181
1
1.11881
1.11761
1.11878
1.1194
0.999882
1.12018
1
1.11852
1.11878
1.10184
1
1
0.87729
1.1206
1
1
1.1189
1.11791
1.11867
1
1.11899
1
1
1.00001
1.11728
1.11887
1.03732
1.02714
1.11843
1.11839
0.895682
1
1
1
1
1
1.04378
1
1
1.10067
0.887172
0.999987
1
1.11858
0.999966
0.999948
1.01934
1.10578
1.12115
0.97437
1
0.880865
1
1.00259
1.11837
1.11933
1.11706
0.999722
1
1
0.887818
1
1
1.11838
1.01418
1
1
1
1
1
1
1
0.999981
1.11939
1
1
1
1
1
1.07752
1
1.0583
1
1
1.11842
1.12039
0.892172
0.999655
1
1
1
0.89022
1.11988
1.11858
1
1
1
1
1
1
1
1
1.11932
1.11619
0.886059
1.01422
0.892327
1
0.883819
1
1.11888
1.03489
1
1
0.917558
1
1.11374
0.938447
0.999028
0.888938
1
1
1.11893
1.00001
0.999207
0.886881
1.11995
1.12109
1
1
1
1
1.11139
1
1
1.1184
0.999695
1.11888
1.00002
1
1
0.886334
1
1
1.11898
0.889038
0.927961
0.897715
1.11891
0.99981
1
1.12005
0.89392
0.88989
1.00599
1
1
1.11983
1.00001
1.0582
1
1
1.11963
0.894034
1
1
1.00004
1.11869
1.00005
1.11429
1
1.00001
1
1
0.92148
1
0.941226
1
1
1.11851
0.885041
1
0.929658
0.933729
1
1
1.11902
1
1
1
1.11856
1.11852
1.00002
1.11508
1.12011
0.937487
1.11859
1.11414
1
1
1.11662
1
1
1
1
1
1.1195
1.11824
1
1
1
1.1191
1.00006
1
0.891635
0.916981
1
1.00001
1.04719
1
1
0.96915
0.900065
1
1
1
1.12033
1.1098
1.11866
1
1
1
1
0.877007
1
1.11743
1
1.11577
0.885695
1.11908
1
1
1
0.890527
1
1.11884
1.00001
1
0.89411
1.04728
1
0.999907
1.11955
0.884101
0.886391
1
1.11986
0.891256
0.891576
1
0.879827
1
1
1
1
0.894419
1
1
1
1
1.1191
1
1.09352
0.87996
1
1
1
0.891334
1.11878
1
1
0.999081
1.11705
1
1.11879
1.11908
1
1
0.915365
0.891316
1
1
0.891498
1.03888
1.05733
1
1
1.11855
0.999238
1
0.999212
1.12066
1
1
1
1
1
1
1.11928
1
1.04385
1.04079
0.90082
1.10618
1
1.11845
1.11858
1
1
1
0.977964
0.890767
1
1.0659
0.999899
1.10426
1
1
1
1
1
1.00251
1.05646
1.1189
1.11879
1
1.11835
1
0.897528
1
0.999252
0.999937
1
0.880219
1
0.894187
1.00001
1.11918
1.12004
0.885644
1.11915
0.879573
0.998912
1.09497
0.891361
1.08846
1
1
0.999548
1
1
1
1.00002
1
0.881255
1
1
1
1
0.99989
1.11846
0.937608
1
1
1
1.01092
1
1
1
1.07243
0.921396
1
1
1
1.01487
1.1207
1
0.894998
1
1.1189
0.969619
0.905201
1
0.887279
1
1
1.11296
0.999508
1.10954
1
1.00236
1
1
1.11888
1
1
1
1
1.02621
1
1.11866
1.11893
1.1206
0.888843
1.11838
0.999168
1.09868
1
1
0.87748
1
1
0.891022
1.11732
1
1
0.999989
1
1
1
0.885299
0.888307
1
1.11881
1
1.06145
1.1185
0.889904
1.09784
1
1
0.899058
1
1
1.11858
1.11851
1.04665
1
1
1.0006
1.11938
0.89047
0.89213
1.12002
1.11845
1.08215
1.04995
1
0.969858
1
1
1
1.11331
1.12001
1.11852
1
1
1.11895
0.88503
1.10732
0.885379
1
0.894931
1
0.885742
1.1185
0.887429
1
0.99276
0.905564
1
1
1
0.948083
1.10726
1.11856
1.11924
1.11823
1
1
1.12
1
1
1.11902
1
0.891645
1
0.886349
1
1.11976
1
1
1.00823
1.09268
1
0.99962
0.895797
1.11862
1
0.890217
1.02372
1
1
1.09136
1.11872
1.11849
1
1.11815
1.03557
1
1.00654
1.11856
1
1
1
1
1.11854
1
0.879903
1.11862
0.892897
0.882615
0.948718
1.11821
1.04453
1.11884
1
1.11836
0.999272
1.00001
1.11877
1.11994
1
1.11808
1
1.11884
1
1.11956
1
1.00001
0.999996
1.11746
0.88507
0.89795
0.999401
1
1
1
0.888441
1
1.08023
1
0.883002
1
1.05094
1.11882
1.11866
1
1
1.00001
0.999833
1
1.11986
1.11864
1
1.05458
1.11815
0.9579
1.11856
1.00026
0.885383
1.02659
0.894748
1
1
1.0214
1.12029
1
1
1.01342
0.999584
1
0.879812
1
0.932504
1
1.11859
1
1
0.891659
1.03146
1.01931
0.99957
1.11836
1.11854
0.930544
0.999452
0.882939
0.888687
0.886695
1
1
1
0.999728
0.90678
0.888912
1
1.11859
0.999926
1.11844
1.11836
1.1203
1.11854
1
0.889725
1.11813
0.89713
1
1.11925
1.11798
0.999021
0.944615
1.11957
1.0888
1
0.891193
1
1
1.11981
1
1.00769
1.11869
1
0.881305
0.87706
1
1
0.888619
0.895895
1.11851
1.00001
1
0.873352
0.886527
1.1203
1.1144
1.11186
1.12009
1.03492
0.993726
1.05225
1.12072
1.09151
1
1.06433
1
0.886157
0.953686
1
0.881343
1.11847
1.00623
1.11893
1
1.11878
1.11942
1
1.11845
1.11838
0.892128
1.1198
1
1.12057
1
0.920521
0.887106
1.11908
1
1
1
0.888109
1.11804
1.11888
1
0.892755
1
1
0.882719
1.00001
0.88487
1.11992
1
0.941271
0.897812
1
1
1.06973
1
1
1
1.01979
0.889119
1
1
1
1.12013
0.891887
1
1.11865
0.892458
0.894964
1
1
1.12102
1
1.11899
1
1.1187
0.892848
1
1
0.891461
0.945186
0.885752
1
1
1
1
1.11937
0.87998
1
0.889416
1
1.11927
1
1
0.981495
1
1
0.940375
0.999909
1.00001
1
0.893143
0.89728
1
1
1
1
0.935606
1.11825
1.11959
1
0.88642
0.897799
0.967641
0.894819
1
0.951211
1
0.894035
0.993035
1
1
0.895986
1
1.11834
1.11654
0.888064
1
1
1
1.11908
1
1.01366
0.948141
1.04198
0.891079
1.05405
0.890221
1
1
0.903548
0.973644
1
1.01347
1
1
0.889824
1
0.982173
1.01366
0.890365
1
1.10264
0.915174
0.966201
1
1
1
0.895919
1
0.887949
0.890493
1
0.961971
0.886405
1.0203
0.914324
0.879874
1.11876
1
1.11846
1.06756
0.920204
1.1184
0.882679
0.999722
1.11972
1
1
1.11914
1
0.914488
1
1.01915
1
1
1.11852
1
0.93758
0.94374
1.1204
0.981893
1
0.928525
1.11866
1.11985
0.975765
1
1.11867
1.03311
0.958157
1
1.00678
1
0.894698
1.05434
0.928854
0.921912
1
1
0.893885
1.11905
0.990478
0.892412
0.883465
0.954006
1
1.00904
1.11968
1.11856
1
1
1
0.891618
1.05977
0.999998
1.11828
1.10697
0.888889
1
1.02884
0.965658
1.07577
1.10954
1
1.01356
1
1.00001
0.875617
0.954372
1
1
0.940892
0.875395
1.01302
1
1
0.886821
1.05675
1
1.11905
1
1.01164
1.06871
1
1.11572
1
1
1.1177
1
0.888008
1.11946
0.912378
1.03492
1
0.889689
0.999974
1
1.00001
1
0.939514
1.00741
0.893021
1.08928
1.12006
0.884349
1
1
1
1
1
0.992196
0.883707
1.01479
0.893389
0.888611
1.02302
1
0.999947
1.03079
1
1
0.894422
0.99941
1
1
1.03649
1
1.11984
1
1.11944
1.02832
1.00833
0.890968
1
1
0.892588
1
1
1
1
1.11879
1.01289
0.999444
1
0.889466
1.01483
1
1
1.07998
1
0.887677
1.11882
1
1
1
1.11913
0.886224
0.964731
0.883397
1.09245
1.11981
1
1
1.11873
1
0.895134
1
1
1
1
1
0.927372
1
1.11859
1
1
1.04555
1.1196
0.890646
0.963907
1
1.11787
1
1
1
1
1
1.11862
1.11966
0.895205
1.11854
0.884123
1
1
1.11861
1
1.12014
1.0032
1.00772
1.01863
1.11845
1.02023
1.08326
0.88093
1
0.883445
0.999109
1
1.1186
1
1
0.888625
1.12063
1
1.11967
1
1
1
1
1
1
0.889764
1.11933
0.95827
1.1185
1
0.885381
0.896074
0.915018
1.11699
1.11844
0.988974
1
0.944175
1
1.05079
1
1.11874
0.887405
0.893118
0.95816
1
1.11899
1
1.02309
0.893576
1
1.11976
1.10862
0.999672
1
1.11887
0.887176
1.11881
1.11857
1.11732
0.892441
1.02821
1
1
0.884686
1
0.947661
0.954028
1
1.00001
1.11821
1
1.12079
1.02657
1
1.01294
1.12052
1
0.884034
1
0.932476
1
1
1.09967
1
0.941502
1
0.895862
1.0104
0.984226
0.890448
1.11851
1.0993
1.12032
0.894245
0.906295
0.998802
1
1
0.900518
1.11258
0.892047
0.999989
1
1.11854
1.11922
0.969171
1
0.889099
0.902935
1.08258
0.995682
0.888059
1
0.892384
1.03418
0.893532
1
1.00002
0.939594
1.1203
1.11889
0.945828
0.999883
1
1
0.908466
1
0.888782
1
0.898052
0.888189
1
1
1.00001
0.895934
1.11843
1
1
1.00002
1.00001
0.901868
1.11929
1.1184
1
0.892832
1.12094
1
1.02937
1
1
1.12005
0.88874
1
1
0.893297
0.926591
0.890014
0.89058
1
0.895408
0.999169
1.02687
0.890525
1
1
1.03608
1
1.10689
1
1
1.08615
0.896079
1
0.898476
1.03621
1.11851
1
1
0.894325
0.882128
0.880863
0.907907
0.883242
1.09141
0.999836
1
1
1
1
1.1184
0.889282
1
0.984253
0.999907
0.999666
0.999984
0.920309
1.03627
1
1.11863
1.11896
1
1
1.11438
1.00001
1
1.11876
0.891287
1.1203
1
0.882356
1.11869
1.00002
1
0.94803
1
0.881761
1
1.11949
1
1
1.11936
1
1
1.11973
1
1
1
1.12135
1
0.919434
0.911488
1
0.883204
1.11838
1
1
0.994019
1
1.11946
1.07197
1.09742
1
1
0.899473
1
0.893944
1.1185
1.12026
1.11851
1
1.11958
0.887785
1
0.897117
1.09842
1.10791
1.11841
1.11932
0.922095
0.887293
1
1.08103
1.11939
1.1203
1.11856
0.929439
1.04729
1
1.09223
0.926483
1
1
1
1.00001
0.974709
1
1.11846
1
1
1
1
1
1
1.00002
1.11809
1
1.11981
1.09062
0.892641
1.11975
1.00995
1.06326
1
1.11873
1
0.888812
1
1
1
1
1.10446
1
0.883548
1.11858
0.882337
1.11846
1.09898
1.06436
1
1.02409
1.05971
0.998717
0.904846
0.938457
1.00001
1
0.978783
1
0.890147
1.11945
0.877552
0.975729
0.960701
1
1
1
1.00373
1
1
0.896547
0.999005
1.12088
1
1.11855
1
0.890262
1
1
1.11854
1.11887
0.885624
1
1.11893
1
0.94694
0.887099
1.11989
1.10773
1
1.02104
1.11861
0.999618
1
1.05428
1.10547
1.11898
0.998794
1
1
1.10316
1
1
1
1.11838
0.999563
1
1
1.11857
1
1
0.893329
1
1
1
1.11977
1
1
0.963556
1.03886
1.10871
0.935943
1
1.11863
1
1.04357
1
1.11799
0.999198
1.11842
1
0.887486
1
1.08588
1
1
1.11085
1
1.11859
1
1.11931
0.897685
0.893655
1.11898
1
1.10025
1
1.11962
1
1
1.00001
1.11916
1.11813
1.03509
1.11852
0.99871
0.890879
1.11881
0.959158
1
1.11838
1
1.11834
1
1.11899
1.11937
0.998916
0.886192
1
1.11861
1
1.01037
1
1
0.999424
0.921539
1.10633
1
1.10883
1
0.968364
0.886893
1.11889
1.11865
0.911923
1
1.11837
1.11899
1.11801
0.906924
1.11874
0.903802
1.11905
1.12057
1
1
1.11845
1
1
1
1
0.89023
1
1
1.1199
1.11858
1
1.11874
1
1.1201
1.12048
1
1.10071
1
0.884692
1.1188
1.08678
1.03693
0.881761
1.11855
1
1
0.886385
1
1
1.11871
1
1
0.939395
1
1.11896
1.00002
1.11877
0.884484
1.11932
1
1.11805
1.11441
0.974775
1
1.11871
0.928509
1.11904
1.08644
1.1184
1.11782
0.999226
1.11967
1.11894
1.11841
1.11864
1.00023
1
0.886162
1
1.12098
0.952714
1.10911
1
1.11677
1
1
1
1
1
1.11807
0.888135
0.898895
1.11867
1.11861
1
1
1
1
1
1.1178
1.10802
1.11867
1.00648
1
1
1
1.00001
1.11824
1.11857
1
1.11944
1.11975
0.890735
1.08567
1
1.11852
1.11912
1.1178
0.999406
1.11866
1.1187
1
1.1106
1
1
1
1
1
1
1.11884
1.11997
1.11073
1.11845
0.888171
0.901962
1.1186
1.1186
1
0.884375
0.979564
1
1.06017
0.887237
1
0.999847
0.999513
0.890772
1
1.11916
1
1
1
1.11897
0.987625
1
1.11856
1.11841
1
1.11955
1
1
1.11855
1
0.888153
1
1.11755
1
1
0.888938
1
1.11937
1
0.8853
0.87951
1
1.11887
1
0.885455
0.970442
1
1.11878
1
1
1
1.11964
1
0.890876
1.01852
1.11939
1.11894
1.11855
1.01232
1.11892
1.11871
1
1
1
1
1
1.11864
1
0.999805
1.11967
1
0.885601
1
1.1185
1.05956
1.0162
1.05951
1.01859
1.1191
0.909884
1.11865
1
0.893833
0.999144
1.11841
0.983344
1.11841
1.11845
1.1171
1
1.11911
1.11853
1.11862
1
1.00001
1
1
1.11997
1.08699
1
1
0.892371
0.999059
1
1.11915
1
1.11855
1.11892
1.11822
0.971721
1.11882
1.11852
1.0043
1.06192
1.12
1.11847
1
1.11038
0.956229
1.11419
0.999262
1.1185
1
1.1185
1.1182
1
0.89211
0.982522
0.907256
1
1.02404
0.999058
1.11904
1
1
0.998972
1
1.06291
1.11533
1
1
1.11859
1
1
1.08598
1.11848
1.11435
1.11845
1.119
1
1.11882
0.926957
1.11879
1
1.00038
0.89226
1
1
0.916827
1
1.03944
1
1.11917
1
1.11671
1.07843
0.889559
1
1
1
1
1
1.11895
1.00328
1
1.11923
1
1.11861
1.11872
1
1
0.988168
0.999959
0.883755
0.881606
0.911972
1.02372
1
0.999548
0.894853
1.00001
1
1.11828
0.985068
1.11159
1.10567
1
1
1
1
1
1.1191
1.11875
1
1.11781
1
1.11937
1.08241
0.998914
1
1
1
1.07196
1
0.988677
1
1.11823
1
1
1.11847
1
1
1
1
1
1.11871
0.889
0.998831
1.10719
1.1184
1
1.11855
1
1
1
1
0.906813
1
1.11845
1.11856
1.11856
1.11969
0.987228
1
1.10199
1.03089
1.11956
1.11952
1.02232
1.11983
1
1
1
1.11892