/*--------------------------------*- C++ -*----------------------------------*\
  =========                 |
  \\      /  F ield         | OpenFOAM: The Open Source CFD Toolbox
   \\    /   O peration     | Website:  https://openfoam.org
    \\  /    A nd           | Version:  12
     \\/     M anipulation  |
\*---------------------------------------------------------------------------*/
FoamFile
{
    format      ascii;
    class       volVectorField;
    location    "8";
    object      U;
}
// * * * * * * * * * * * * * * * * * * * * * * * * * * * * * * * * * * * * * //

dimensions      [0 1 -1 0 0 0 0];

internalField   nonuniform List<vector> 
22702
(
(2 2.1999e-13 0)
(2 -1.44401e-13 0)
(2.04017 -0.0857633 0)
(2 -1.13705e-09 0)
(1.97832 0.0318604 0)
(2 -5.23596e-14 0)
(1.82978 0.228915 0)
(2 3.91414e-14 0)
(2 1.8657e-13 0)
(2.11799 -0.264499 0)
(1.82982 0.228645 0)
(1.83 0.22889 0)
(2 -5.16773e-13 0)
(1.83133 0.228734 0)
(2.03703 -0.0751693 0)
(2 1.37731e-13 0)
(2 1.18088e-13 0)
(2 -9.14969e-14 0)
(1.82972 0.228643 0)
(2 6.77187e-14 0)
(1.83137 0.22906 0)
(2 -1.23836e-13 0)
(1.83017 0.228591 0)
(2.10912 -0.26451 0)
(1.83216 0.229374 0)
(2.11781 -0.264832 0)
(2 9.84592e-14 0)
(1.82957 0.22846 0)
(2.10819 -0.263438 0)
(2.10963 -0.264357 0)
(2 -2.75626e-14 0)
(1.82993 0.228885 0)
(2 -6.73092e-14 0)
(2 9.51879e-14 0)
(2 -2.79879e-13 0)
(1.84401 0.214984 0)
(1.83155 0.229233 0)
(1.82981 0.2287 0)
(2 3.14357e-14 0)
(2 -2.42688e-14 0)
(2.11776 -0.264692 0)
(2 -4.48381e-14 0)
(1.91599 0.124739 0)
(2 -1.30827e-13 0)
(1.82942 0.228499 0)
(2 1.14026e-14 0)
(2 -4.4211e-13 0)
(2 -2.26471e-14 0)
(2 -2.31905e-13 0)
(2.10872 -0.263512 0)
(2 -1.97194e-14 0)
(2.111 -0.265123 0)
(2 -6.12775e-14 0)
(1.82976 0.228598 0)
(2 6.43395e-14 0)
(1.83004 0.228899 0)
(2 -3.47073e-13 0)
(2 1.34719e-09 0)
(2 -1.43989e-13 0)
(2 -4.51795e-13 0)
(2.11864 -0.264915 0)
(2 1.11781e-13 0)
(2 5.74713e-13 0)
(2.10888 -0.26429 0)
(2 8.9401e-14 0)
(2.10912 -0.263214 0)
(2 2.38339e-13 0)
(2 -2.64268e-13 0)
(2 1.4165e-13 0)
(2.11703 -0.264647 0)
(2 3.82161e-13 0)
(1.83135 0.228924 0)
(1.89769 0.149367 0)
(2 8.42179e-10 0)
(1.83136 0.228953 0)
(1.82162 0.237251 0)
(2.10832 -0.263608 0)
(1.82934 0.228767 0)
(2.10456 -0.263248 0)
(2 5.0096e-13 0)
(1.83028 0.228723 0)
(2.10933 -0.261361 0)
(1.82957 0.228819 0)
(1.82966 0.228804 0)
(2 4.51008e-13 0)
(2 9.46245e-07 0)
(2 1.45962e-14 0)
(2 3.44977e-13 0)
(2.02127 -0.0423788 0)
(2.11714 -0.264701 0)
(1.83004 0.228618 0)
(2 -2.19212e-13 0)
(2 -5.7968e-11 0)
(2.11707 -0.26476 0)
(2 5.87941e-14 0)
(1.83119 0.229148 0)
(2.11733 -0.264862 0)
(2 2.46864e-08 0)
(2 1.30319e-13 0)
(2 -4.0256e-13 0)
(2 -3.15344e-13 0)
(1.91682 0.123482 0)
(1.83 0.228621 0)
(2.11753 -0.264231 0)
(2 -1.82056e-09 0)
(2 -1.52905e-09 0)
(1.95746 0.0647599 0)
(2 -3.42001e-09 0)
(2.10858 -0.261297 0)
(2 -2.37375e-13 0)
(1.82938 0.228754 0)
(1.82998 0.228719 0)
(2 4.68666e-09 0)
(2 1.6276e-14 0)
(2.11997 -0.272477 0)
(2.12197 -0.272711 0)
(2.11747 -0.264667 0)
(2 -1.23272e-13 0)
(2 -1.56844e-07 0)
(2 1.22636e-14 0)
(2 1.2782e-13 0)
(2 1.05819e-07 0)
(2.02943 -0.0578279 0)
(2 -1.08137e-07 0)
(1.85586 0.200481 0)
(1.98343 0.0269401 0)
(1.82967 0.228744 0)
(2 -7.29695e-14 0)
(1.8296 0.228749 0)
(1.83002 0.228761 0)
(1.83115 0.228988 0)
(1.83041 0.228746 0)
(2 -2.2241e-13 0)
(2.11702 -0.264649 0)
(2 4.83145e-14 0)
(2.11739 -0.264786 0)
(2 -1.43359e-13 0)
(2 4.81135e-14 0)
(2 1.64471e-13 0)
(2 1.08796e-13 0)
(1.83021 0.22881 0)
(2 2.84034e-09 0)
(2 -3.93055e-13 0)
(2 -1.03111e-13 0)
(2 -1.47862e-13 0)
(1.83121 0.229047 0)
(2 -1.16207e-13 0)
(1.99453 0.0137261 0)
(2 6.3559e-14 0)
(2 -2.09057e-13 0)
(2 -6.70094e-11 0)
(2 3.67893e-14 0)
(2.10979 -0.265086 0)
(2 -7.43173e-15 0)
(1.9952 0.00968521 0)
(2 9.0187e-14 0)
(2.10323 -0.26313 0)
(2 2.77326e-13 0)
(2 2.47357e-13 0)
(2 1.40028e-13 0)
(1.82986 0.228979 0)
(2 2.58689e-14 0)
(1.83125 0.22888 0)
(2.12057 -0.272861 0)
(2.11875 -0.264843 0)
(1.83064 0.228722 0)
(1.83071 0.228753 0)
(2 -7.3895e-14 0)
(1.97018 0.0464893 0)
(1.90312 0.143603 0)
(2 1.26686e-13 0)
(1.83011 0.228836 0)
(2.10412 -0.263123 0)
(1.84389 0.215018 0)
(2 -5.2392e-14 0)
(2 5.82255e-13 0)
(2 5.11958e-14 0)
(2 -1.0297e-13 0)
(1.83139 0.228741 0)
(1.85749 0.197814 0)
(2 -3.02439e-13 0)
(1.82967 0.228707 0)
(2.10823 -0.264009 0)
(1.82991 0.228872 0)
(2 2.0886e-13 0)
(2.10534 -0.263018 0)
(2 4.25893e-13 0)
(2.10887 -0.264907 0)
(2.11774 -0.264662 0)
(2.00008 -0.000128938 0)
(2 5.54494e-14 0)
(2 5.11595e-13 0)
(1.82992 0.22871 0)
(2 3.64236e-14 0)
(2 -1.55779e-13 0)
(1.83127 0.229049 0)
(2 -1.40063e-13 0)
(1.82953 0.228807 0)
(1.82976 0.228613 0)
(2.09907 -0.280469 0)
(2 -4.36185e-13 0)
(2 2.50949e-13 0)
(2.10852 -0.263682 0)
(1.83174 0.229008 0)
(2 -7.43993e-14 0)
(2 2.2838e-13 0)
(2 4.8364e-13 0)
(1.83184 0.228991 0)
(2 -4.34237e-13 0)
(2.11749 -0.265222 0)
(2 -6.25113e-11 0)
(2 -3.03439e-13 0)
(1.8319 0.229009 0)
(1.83161 0.228888 0)
(1.82941 0.228805 0)
(2 -9.01008e-14 0)
(1.99999 2.38136e-05 0)
(2 1.17391e-14 0)
(2 2.41837e-13 0)
(2 2.6607e-13 0)
(1.83178 0.22915 0)
(2 -1.59307e-14 0)
(2.10963 -0.264219 0)
(1.82406 0.234969 0)
(1.83129 0.229012 0)
(1.83176 0.228984 0)
(2 1.93885e-07 0)
(2 4.98494e-13 0)
(2 -3.12984e-14 0)
(2.1163 -0.275229 0)
(1.83183 0.228842 0)
(1.9286 0.110628 0)
(2 -1.86239e-13 0)
(1.83101 0.229509 0)
(2.11335 -0.264249 0)
(2.11474 -0.264235 0)
(1.83113 0.229568 0)
(1.83187 0.22861 0)
(2 1.57611e-13 0)
(1.83045 0.231932 0)
(2.12083 -0.273063 0)
(1.85071 0.206834 0)
(2 -1.33282e-13 0)
(2 1.46254e-13 0)
(2 4.5786e-14 0)
(2 -3.09474e-13 0)
(1.83165 0.228974 0)
(2 2.44061e-13 0)
(1.90529 0.135046 0)
(1.9828 0.0301373 0)
(2 -5.67302e-14 0)
(2 -1.906e-13 0)
(1.83159 0.229007 0)
(2.11776 -0.265063 0)
(2.0767 -0.159893 0)
(2 -8.06995e-14 0)
(1.83169 0.229142 0)
(2.11699 -0.264839 0)
(1.83038 0.230917 0)
(2 1.36219e-13 0)
(2 9.02246e-14 0)
(2 -1.62438e-13 0)
(2 2.19406e-13 0)
(2 3.22465e-13 0)
(2 2.44905e-13 0)
(2 3.84382e-13 0)
(2.10982 -0.263951 0)
(2.08247 -0.165443 0)
(2.11718 -0.265219 0)
(1.83135 0.229094 0)
(2 1.06844e-14 0)
(2 -5.36644e-13 0)
(2 -1.63895e-07 0)
(2 -7.96691e-14 0)
(1.84645 0.211866 0)
(2 -1.6823e-07 0)
(2.10606 -0.262344 0)
(2 9.65662e-14 0)
(2.11218 -0.28594 0)
(2.10564 -0.264224 0)
(1.83163 0.229166 0)
(2.11032 -0.263599 0)
(1.83147 0.229028 0)
(2 5.69053e-14 0)
(2 -2.31912e-14 0)
(2 -7.457e-15 0)
(2.00076 -0.00167423 0)
(2.10742 -0.2626 0)
(2.12141 -0.272717 0)
(2 -3.00358e-07 0)
(2 -1.43263e-07 0)
(2.11805 -0.286271 0)
(2 2.40542e-09 0)
(1.82994 0.228755 0)
(2.11808 -0.264955 0)
(2 -3.3488e-13 0)
(2 -3.44312e-11 0)
(1.83029 0.228718 0)
(2.12126 -0.274867 0)
(2 -1.34888e-13 0)
(1.83542 0.227139 0)
(2.11844 -0.264764 0)
(1.83165 0.229071 0)
(2 -1.17637e-13 0)
(2.10773 -0.288201 0)
(2.00086 -0.00147303 0)
(2 1.80877e-13 0)
(2 2.66241e-06 0)
(2 -8.62958e-14 0)
(2.11007 -0.263659 0)
(2 -1.90356e-14 0)
(2 -1.71351e-07 0)
(2 -2.74342e-08 0)
(1.99999 1.13491e-05 0)
(1.99423 0.00673726 0)
(1.89605 0.151304 0)
(2 -2.74572e-11 0)
(2.11279 -0.253248 0)
(2 -1.47666e-11 0)
(2 1.57675e-06 0)
(2 2.12198e-13 0)
(2 4.17998e-13 0)
(2 -2.86679e-14 0)
(2 2.20235e-13 0)
(2 -6.29945e-13 0)
(1.83022 0.228733 0)
(2 5.32879e-13 0)
(1.82975 0.228723 0)
(2 5.61411e-13 0)
(2 4.19068e-13 0)
(2 2.23003e-15 0)
(2.11808 -0.264876 0)
(2 3.58376e-13 0)
(1.83138 0.229013 0)
(2.11027 -0.263762 0)
(2 1.91766e-14 0)
(1.86968 0.181677 0)
(2 2.43101e-13 0)
(2 7.24095e-14 0)
(1.82955 0.229267 0)
(2 -6.10954e-13 0)
(2 -9.12269e-09 0)
(2 -3.90728e-13 0)
(1.83028 0.227575 0)
(2 4.82098e-10 0)
(2 4.05651e-13 0)
(1.83672 0.218963 0)
(1.8297 0.229214 0)
(2 4.41214e-13 0)
(1.96423 0.055177 0)
(2 -3.29519e-14 0)
(2 -7.48936e-14 0)
(2.11711 -0.264816 0)
(2 2.07798e-13 0)
(2 -5.63509e-14 0)
(2 -2.17241e-13 0)
(2.11743 -0.264731 0)
(2 2.72331e-13 0)
(2 -3.36455e-14 0)
(2 -3.43352e-13 0)
(2 5.26097e-14 0)
(2.11835 -0.262448 0)
(2 -1.57009e-13 0)
(2 1.44015e-13 0)
(2 4.21585e-13 0)
(2 5.69429e-14 0)
(2 7.62504e-14 0)
(2.11848 -0.26636 0)
(1.99998 3.87568e-05 0)
(1.83117 0.228857 0)
(2 9.10656e-14 0)
(2 -2.75638e-05 0)
(1.83092 0.228833 0)
(1.83025 0.228702 0)
(2 1.4505e-13 0)
(2 -8.77376e-14 0)
(2.09957 -0.274689 0)
(2.0635 -0.127131 0)
(1.83022 0.228771 0)
(2 -1.15972e-13 0)
(2 7.3987e-15 0)
(2 1.13525e-13 0)
(1.83164 0.22904 0)
(2.11725 -0.26457 0)
(2 1.97224e-14 0)
(1.83139 0.228913 0)
(2 -5.01931e-13 0)
(2 -3.35737e-13 0)
(2.09634 -0.212194 0)
(2.09925 -0.216684 0)
(2 2.97836e-13 0)
(2.10757 -0.262543 0)
(2.11748 -0.264437 0)
(2 -3.87082e-13 0)
(2 1.02344e-14 0)
(2 4.17543e-13 0)
(2 -5.55302e-13 0)
(2 -8.95669e-11 0)
(2 -2.51059e-13 0)
(2 -2.84358e-13 0)
(1.82972 0.22882 0)
(1.95797 0.0636365 0)
(1.84004 0.213894 0)
(2.11731 -0.264177 0)
(2.0315 -0.0606915 0)
(1.83065 0.22886 0)
(2 2.03746e-13 0)
(1.83111 0.228942 0)
(1.83014 0.228791 0)
(2.11773 -0.265074 0)
(2.07497 -0.15425 0)
(2 1.27024e-12 0)
(2.11713 -0.26489 0)
(2 1.83234e-14 0)
(1.82259 0.23465 0)
(2 -1.19019e-13 0)
(2 -2.95411e-13 0)
(2 -1.63117e-13 0)
(2 -1.21165e-14 0)
(1.83169 0.228994 0)
(2 1.00412e-13 0)
(2 -1.44277e-13 0)
(2 -9.57285e-14 0)
(2 1.563e-09 0)
(2 4.56821e-13 0)
(2 5.15941e-14 0)
(2 -1.45697e-14 0)
(1.93824 0.0948712 0)
(1.82946 0.228818 0)
(2 -8.35526e-14 0)
(1.83145 0.229039 0)
(2 4.60478e-14 0)
(2 4.6902e-14 0)
(2.10717 -0.263549 0)
(2 -1.22296e-13 0)
(2 1.00509e-13 0)
(2 -7.2235e-14 0)
(2 3.69884e-13 0)
(1.83186 0.228984 0)
(1.872 0.18154 0)
(2 -5.92794e-14 0)
(2 1.00697e-13 0)
(2.10667 -0.262573 0)
(1.83122 0.228971 0)
(1.83188 0.22898 0)
(2 -1.35901e-13 0)
(1.83187 0.228966 0)
(1.83123 0.229019 0)
(1.83156 0.228932 0)
(2 1.60651e-13 0)
(2.0564 -0.111972 0)
(2 -2.92766e-13 0)
(1.8317 0.229006 0)
(2.00306 -0.0109839 0)
(1.83158 0.22893 0)
(2 -2.26614e-13 0)
(2.11772 -0.264911 0)
(2.00035 -0.000636521 0)
(1.83015 0.228735 0)
(2 1.72911e-15 0)
(2 2.62937e-13 0)
(2 -4.55901e-11 0)
(2 -2.14288e-11 0)
(2.1109 -0.261137 0)
(1.83168 0.229099 0)
(1.84728 0.211741 0)
(2 1.48654e-13 0)
(1.83202 0.228693 0)
(1.83171 0.229071 0)
(1.82997 0.228643 0)
(2 -3.60833e-13 0)
(1.91792 0.119556 0)
(1.83149 0.229371 0)
(2 -6.59268e-13 0)
(2 -4.81867e-14 0)
(1.88236 0.169142 0)
(1.97777 0.0397655 0)
(1.83188 0.229044 0)
(2.02172 -0.0454813 0)
(1.83186 0.229021 0)
(2 5.61142e-14 0)
(1.83181 0.228958 0)
(1.83123 0.228914 0)
(1.83173 0.228938 0)
(1.83129 0.228944 0)
(2 -3.60198e-13 0)
(1.83374 0.224763 0)
(2.03119 -0.0607314 0)
(2.04106 -0.0823271 0)
(2 3.9529e-13 0)
(2 -3.70319e-07 0)
(2 -2.39366e-13 0)
(2 3.94487e-13 0)
(1.83018 0.228485 0)
(2 -2.65573e-13 0)
(2 -1.64587e-13 0)
(2 -1.53661e-13 0)
(2 1.40389e-14 0)
(2 -6.57575e-14 0)
(1.82992 0.228692 0)
(2 -1.32464e-13 0)
(2 5.32755e-14 0)
(2.00144 -0.00246155 0)
(1.83185 0.228963 0)
(1.84607 0.225706 0)
(2 -2.95296e-13 0)
(1.86306 0.191911 0)
(1.99998 2.70466e-05 0)
(2 1.27628e-13 0)
(2 -2.17082e-15 0)
(1.83147 0.228942 0)
(2 1.30863e-13 0)
(2.0019 -0.00268212 0)
(1.99855 0.00397087 0)
(2 -1.4193e-13 0)
(1.83131 0.228831 0)
(2 5.28648e-13 0)
(1.83199 0.228801 0)
(2 -7.67806e-14 0)
(2 9.24759e-14 0)
(1.87537 0.178067 0)
(2 3.38458e-14 0)
(1.83202 0.228984 0)
(1.99999 1.29393e-05 0)
(2 -2.37553e-13 0)
(1.83172 0.229448 0)
(2 -3.41648e-13 0)
(1.83184 0.228978 0)
(2 8.23697e-13 0)
(2 3.00015e-06 0)
(2 4.44726e-13 0)
(1.83153 0.229019 0)
(2 -8.68248e-14 0)
(1.83182 0.228987 0)
(2 4.4525e-06 0)
(1.83174 0.228987 0)
(1.83016 0.228756 0)
(1.8318 0.229009 0)
(1.82971 0.228831 0)
(2 -8.77755e-14 0)
(1.83 0.228631 0)
(1.83394 0.22925 0)
(2 1.72507e-13 0)
(2.10847 -0.262818 0)
(1.84174 0.217404 0)
(1.87881 0.172843 0)
(2 -4.03559e-13 0)
(1.83149 0.228998 0)
(2 -6.28708e-14 0)
(2.11743 -0.26514 0)
(2.11814 -0.264684 0)
(2 1.22144e-13 0)
(2 7.02397e-14 0)
(2 1.16965e-13 0)
(2 2.2336e-13 0)
(2 1.72482e-09 0)
(2.11816 -0.265088 0)
(2 -4.6254e-13 0)
(1.83146 0.229054 0)
(1.95658 0.0644985 0)
(1.83133 0.22892 0)
(2 3.80248e-13 0)
(2 8.27676e-11 0)
(2 2.30177e-13 0)
(2 1.85631e-13 0)
(2 -5.56493e-08 0)
(1.83127 0.228975 0)
(2 -5.71965e-15 0)
(1.82948 0.229892 0)
(1.89958 0.146699 0)
(2.07354 -0.152258 0)
(2 1.30485e-09 0)
(1.99999 6.79551e-06 0)
(1.94686 0.0788073 0)
(1.96048 0.0663783 0)
(2 -3.04271e-14 0)
(2 5.20684e-14 0)
(1.93903 0.0910095 0)
(2 2.58169e-14 0)
(2.10392 -0.262097 0)
(1.8315 0.229101 0)
(1.83138 0.229071 0)
(2 -7.77741e-11 0)
(2 8.06347e-14 0)
(2 2.62512e-13 0)
(1.83012 0.228723 0)
(2 -1.80276e-13 0)
(1.99999 1.61851e-05 0)
(1.83111 0.228562 0)
(1.83169 0.229027 0)
(2.01457 -0.0313982 0)
(2 -1.87662e-13 0)
(2 1.705e-10 0)
(2.10862 -0.262167 0)
(1.84736 0.210796 0)
(2 -2.77909e-14 0)
(2 3.48477e-13 0)
(2 -1.30746e-13 0)
(2 -2.79113e-11 0)
(2 -9.11821e-15 0)
(1.83186 0.228981 0)
(1.83006 0.228611 0)
(2 -1.81694e-13 0)
(1.83171 0.229363 0)
(1.8318 0.229274 0)
(1.83177 0.229045 0)
(2 3.05095e-14 0)
(2 -5.3404e-14 0)
(2 -6.04161e-11 0)
(2 5.20407e-14 0)
(2.11817 -0.264695 0)
(1.83039 0.228799 0)
(2 -4.43769e-11 0)
(2 7.09575e-14 0)
(1.84674 0.212017 0)
(1.83182 0.228287 0)
(2 -2.08038e-13 0)
(1.84141 0.217976 0)
(1.82955 0.228783 0)
(2 -5.04142e-14 0)
(2 -2.18277e-07 0)
(2 9.42858e-11 0)
(2 1.71512e-13 0)
(2 7.27227e-15 0)
(1.83135 0.228861 0)
(2 2.87063e-13 0)
(2 2.37509e-14 0)
(2 1.95285e-13 0)
(2 1.70695e-13 0)
(1.83194 0.229049 0)
(2 -7.70371e-14 0)
(1.83605 0.224438 0)
(2.11775 -0.264689 0)
(2 3.8952e-14 0)
(2.11763 -0.265397 0)
(2 -4.97873e-13 0)
(2 -1.3987e-07 0)
(2 -4.32e-13 0)
(2.00114 -0.00175888 0)
(2.11003 -0.26512 0)
(2.00032 -0.000565192 0)
(2 -6.81252e-14 0)
(2 1.32429e-13 0)
(2 -1.20023e-07 0)
(1.97345 0.0398795 0)
(2 8.07277e-14 0)
(2 -1.96101e-13 0)
(2.03914 -0.0814839 0)
(2 -2.10941e-07 0)
(2 -5.72698e-14 0)
(2 1.01657e-13 0)
(2 -2.17148e-07 0)
(2 3.44393e-07 0)
(2 -1.38473e-07 0)
(2 -4.1754e-13 0)
(2 -1.6868e-06 0)
(2.02211 -0.0455513 0)
(2 -4.70466e-07 0)
(2 -4.05251e-08 0)
(2.00091 -0.00136458 0)
(2 5.22744e-13 0)
(2.11017 -0.261802 0)
(2 -2.78746e-11 0)
(2 -3.21527e-12 0)
(2 -1.24704e-10 0)
(2 9.27338e-14 0)
(1.87447 0.178083 0)
(2 -1.93633e-13 0)
(2 -8.58468e-14 0)
(2 -4.32639e-13 0)
(2 -1.6311e-07 0)
(2.10829 -0.263613 0)
(2 9.6734e-14 0)
(2 1.58042e-09 0)
(1.84079 0.218067 0)
(1.83025 0.22878 0)
(2 -2.92237e-07 0)
(2 -1.89119e-13 0)
(2 -1.13678e-07 0)
(2.03751 -0.0796375 0)
(2 -1.05636e-13 0)
(2 4.6007e-10 0)
(2 8.34858e-14 0)
(2 -2.23472e-13 0)
(2 -8.64752e-14 0)
(2 4.81827e-14 0)
(2.01281 -0.0277807 0)
(1.99404 0.00587128 0)
(1.8317 0.229136 0)
(2 1.55306e-13 0)
(2 -4.93672e-14 0)
(2 7.52284e-14 0)
(1.83104 0.227944 0)
(2.03466 -0.0685036 0)
(2 -3.66574e-09 0)
(2 1.73515e-14 0)
(2 5.68596e-15 0)
(1.8294 0.228736 0)
(1.83008 0.227871 0)
(2 -3.02976e-08 0)
(2 4.8437e-06 0)
(2 3.34802e-09 0)
(2 1.64413e-13 0)
(2 1.31617e-09 0)
(2 -2.4323e-13 0)
(2 -5.37653e-12 0)
(2 2.27102e-13 0)
(2 1.62318e-13 0)
(2.11747 -0.263859 0)
(2 -3.6275e-13 0)
(2 -1.52944e-11 0)
(1.8294 0.229107 0)
(2.11768 -0.264832 0)
(2 -1.96745e-13 0)
(1.82957 0.228724 0)
(2 7.12203e-11 0)
(2.10709 -0.263954 0)
(2 -1.80623e-14 0)
(2 -4.04668e-13 0)
(2.117 -0.263974 0)
(2 4.00101e-13 0)
(2 -1.20865e-11 0)
(2 -4.67349e-12 0)
(2 -4.12855e-14 0)
(2 -1.9669e-12 0)
(2 -4.73775e-14 0)
(2 -1.39342e-13 0)
(1.83449 0.225262 0)
(1.83174 0.228578 0)
(2 6.7714e-13 0)
(2 -3.56127e-14 0)
(2 2.04029e-13 0)
(2 1.03487e-12 0)
(1.84567 0.212639 0)
(2 9.54609e-13 0)
(1.94539 0.082603 0)
(2.10903 -0.262506 0)
(2 -3.21474e-08 0)
(2 8.66703e-13 0)
(2 -8.02486e-14 0)
(2 -6.37546e-14 0)
(2 -1.14627e-13 0)
(2 -1.24766e-13 0)
(2 2.03218e-14 0)
(1.98628 0.0187626 0)
(2 1.90675e-14 0)
(2 -1.43513e-13 0)
(1.90131 0.134185 0)
(2 -6.0044e-14 0)
(2 -2.87413e-14 0)
(2 6.1737e-14 0)
(1.86096 0.194671 0)
(2 -2.13409e-13 0)
(2 -1.56399e-13 0)
(2 2.43214e-13 0)
(2 3.17531e-13 0)
(2.11743 -0.264917 0)
(2 1.54045e-11 0)
(2 -4.09215e-13 0)
(2.12224 -0.277708 0)
(2.11716 -0.265262 0)
(2 3.68529e-13 0)
(2 1.21304e-13 0)
(1.83169 0.229021 0)
(2 -1.2583e-13 0)
(1.98624 -0.0149853 0)
(2 3.78102e-14 0)
(2 -9.70598e-14 0)
(2 -9.51863e-15 0)
(1.88178 0.17008 0)
(2.11744 -0.269717 0)
(2 -5.4083e-13 0)
(2.12274 -0.276531 0)
(2 2.55386e-13 0)
(2.07577 -0.157366 0)
(2 -4.24011e-13 0)
(2 -4.84755e-13 0)
(2 -3.67439e-13 0)
(1.83089 0.22869 0)
(2 -4.26795e-08 0)
(2 -9.84825e-14 0)
(1.83165 0.228858 0)
(2 3.52837e-13 0)
(2 -2.53527e-11 0)
(2 1.7115e-09 0)
(1.83155 0.22889 0)
(2 2.33492e-10 0)
(2 2.96315e-13 0)
(1.83172 0.228973 0)
(2 1.86271e-13 0)
(2 3.07632e-13 0)
(2.11791 -0.264923 0)
(2 -1.60592e-11 0)
(1.9464 0.0817719 0)
(2 2.97009e-13 0)
(2 1.91284e-13 0)
(1.83055 0.228824 0)
(1.83042 0.228921 0)
(1.8869 0.163213 0)
(1.84963 0.208797 0)
(2 -2.40135e-13 0)
(2.11732 -0.265137 0)
(2 8.76395e-14 0)
(2 9.92384e-15 0)
(1.83893 0.220556 0)
(2 -1.21891e-13 0)
(2.11718 -0.264221 0)
(2 -3.17555e-13 0)
(2 2.22268e-13 0)
(2 1.04288e-13 0)
(1.8313 0.229146 0)
(2 3.84214e-13 0)
(2 6.73295e-14 0)
(2 -2.92961e-13 0)
(2 -5.09356e-13 0)
(1.89888 0.146805 0)
(2 1.59111e-13 0)
(1.84445 0.208384 0)
(1.83033 0.230233 0)
(2.11719 -0.264736 0)
(2 -8.28523e-14 0)
(2 6.79357e-13 0)
(2.11667 -0.262848 0)
(2.11713 -0.26377 0)
(2 -9.64766e-14 0)
(2 5.73058e-15 0)
(2 -5.5937e-12 0)
(1.87983 0.172603 0)
(1.87296 0.180885 0)
(2 -2.18765e-13 0)
(2 6.45823e-14 0)
(2 -9.80997e-14 0)
(2 1.03298e-13 0)
(2 2.75054e-15 0)
(2 -1.15388e-14 0)
(2 -2.73338e-13 0)
(1.92796 0.107352 0)
(1.83021 0.228787 0)
(1.99552 0.00414226 0)
(2 -1.8838e-13 0)
(1.83379 0.226717 0)
(2.1175 -0.264517 0)
(2 1.2258e-13 0)
(2 2.19786e-13 0)
(2 -2.03883e-13 0)
(1.90657 0.137365 0)
(2 7.05391e-15 0)
(1.96653 0.0562152 0)
(2 -2.50617e-13 0)
(1.84622 0.212487 0)
(1.83249 0.22821 0)
(2 2.18781e-14 0)
(2.11786 -0.264935 0)
(2 -1.07339e-13 0)
(1.83036 0.228833 0)
(2 -2.74769e-14 0)
(2 -2.59695e-13 0)
(1.83147 0.228927 0)
(1.84183 0.217618 0)
(2 1.31105e-13 0)
(1.82559 0.22916 0)
(2 1.89436e-13 0)
(2.11299 -0.263921 0)
(2 -5.59856e-13 0)
(2 1.58498e-13 0)
(2 -5.4159e-13 0)
(1.82917 0.228916 0)
(1.83478 0.225094 0)
(1.85231 0.204984 0)
(2 -4.68275e-14 0)
(1.83011 0.228965 0)
(1.83174 0.2289 0)
(2 -2.88435e-13 0)
(1.83124 0.229294 0)
(2 -1.00742e-08 0)
(1.83246 0.228184 0)
(2 3.37038e-13 0)
(2.11709 -0.265048 0)
(2.00853 -0.0207892 0)
(2.11815 -0.265741 0)
(2 -3.26676e-11 0)
(2 -2.22095e-11 0)
(2 -3.16369e-11 0)
(2 6.29724e-14 0)
(2 -1.51369e-11 0)
(1.83141 0.228924 0)
(2 6.7537e-14 0)
(1.83146 0.228953 0)
(2 -3.9031e-11 0)
(2 -9.41923e-11 0)
(2 1.96925e-14 0)
(1.83975 0.219788 0)
(2 -1.39708e-13 0)
(2.10899 -0.263364 0)
(1.83165 0.228903 0)
(2 -3.59019e-14 0)
(2.10725 -0.263115 0)
(2.11154 -0.251354 0)
(2.11082 -0.265559 0)
(2 1.48691e-13 0)
(1.91772 0.122487 0)
(1.98546 0.0196545 0)
(1.83104 0.229644 0)
(1.83168 0.228902 0)
(2 -3.78199e-13 0)
(2 -3.54198e-07 0)
(2 -8.18202e-08 0)
(2 -6.50641e-14 0)
(1.83169 0.229023 0)
(2 -9.00624e-14 0)
(2 -1.39458e-13 0)
(1.83176 0.229018 0)
(1.83177 0.228931 0)
(2 -4.53115e-14 0)
(1.94216 0.0884594 0)
(1.99972 0.000941869 0)
(2 4.35523e-14 0)
(2.00114 -0.00196962 0)
(1.82992 0.22884 0)
(2.05055 -0.101659 0)
(2 -1.17484e-07 0)
(2.05784 -0.120061 0)
(2.10371 -0.261604 0)
(2.10413 -0.263072 0)
(1.99877 -0.0266112 0)
(1.83027 0.228689 0)
(1.83401 0.226472 0)
(1.96698 0.0512156 0)
(1.83148 0.229059 0)
(1.8316 0.228968 0)
(2 1.19999e-13 0)
(2 1.0701e-13 0)
(1.8304 0.22878 0)
(1.82987 0.228857 0)
(1.8316 0.229032 0)
(1.82876 0.22783 0)
(2 -1.06134e-13 0)
(1.8317 0.22898 0)
(2.10822 -0.263289 0)
(1.83135 0.229811 0)
(1.83129 0.229206 0)
(1.83022 0.228168 0)
(1.83194 0.22903 0)
(2.04519 -0.0890094 0)
(2.03637 -0.074923 0)
(2.02256 -0.0472125 0)
(1.83163 0.229074 0)
(2.01309 -0.0274651 0)
(1.83088 0.228914 0)
(2 2.65413e-13 0)
(2 -3.79337e-13 0)
(1.83105 0.229787 0)
(1.83185 0.229088 0)
(2 2.79953e-14 0)
(2.11723 -0.264741 0)
(1.83066 0.228394 0)
(1.83178 0.228961 0)
(2 -1.16195e-14 0)
(1.83158 0.228878 0)
(1.83145 0.228881 0)
(2 2.32689e-13 0)
(1.83179 0.229037 0)
(2.10812 -0.26367 0)
(1.83194 0.228772 0)
(1.8303 0.228821 0)
(1.83056 0.228737 0)
(1.83159 0.229469 0)
(2 -7.88333e-14 0)
(2 8.01085e-14 0)
(2 -1.06164e-07 0)
(1.83178 0.22898 0)
(1.89077 0.158741 0)
(2.10916 -0.253356 0)
(1.83154 0.228868 0)
(2.11972 -0.271436 0)
(1.83178 0.229003 0)
(2 3.40095e-14 0)
(2 -3.34784e-13 0)
(2 -3.64794e-15 0)
(2 1.33974e-14 0)
(1.83094 0.228792 0)
(1.83152 0.228974 0)
(2 9.86672e-14 0)
(2 -2.06704e-13 0)
(1.83152 0.228938 0)
(2.11784 -0.265118 0)
(1.83196 0.228994 0)
(2.10681 -0.262218 0)
(2 8.3411e-14 0)
(1.83273 0.22772 0)
(2 2.0887e-13 0)
(2.11747 -0.264183 0)
(1.83082 0.22957 0)
(2.09048 -0.194648 0)
(2 4.99395e-15 0)
(1.83164 0.228888 0)
(1.83042 0.230003 0)
(1.83187 0.22866 0)
(2 3.66849e-13 0)
(2 -2.17691e-13 0)
(1.9219 0.115052 0)
(1.83065 0.229641 0)
(2.10777 -0.263722 0)
(1.83153 0.228943 0)
(2 -9.97588e-14 0)
(1.83171 0.228971 0)
(2.0411 -0.0858511 0)
(1.83191 0.229091 0)
(2.11736 -0.263629 0)
(2 -4.13442e-14 0)
(1.83137 0.229506 0)
(2.10821 -0.238501 0)
(1.83106 0.229804 0)
(2.10801 -0.264607 0)
(2 -1.83031e-13 0)
(1.83128 0.229109 0)
(2 3.36189e-14 0)
(1.82976 0.228658 0)
(2 -3.99554e-13 0)
(1.90089 0.145713 0)
(1.83766 0.221684 0)
(1.86785 0.187208 0)
(2.12139 -0.27419 0)
(2 -2.58905e-13 0)
(1.83156 0.229077 0)
(2 5.67046e-14 0)
(1.83163 0.22888 0)
(2 -1.1548e-07 0)
(1.83164 0.229088 0)
(2 -2.37232e-07 0)
(2 2.59842e-13 0)
(1.83162 0.228685 0)
(2.00469 -0.00847245 0)
(1.83036 0.230032 0)
(2.11392 -0.264116 0)
(1.84881 0.211717 0)
(2 -6.99177e-14 0)
(1.88134 0.172358 0)
(2 -3.92148e-13 0)
(1.83105 0.228738 0)
(1.83171 0.229065 0)
(1.83121 0.229156 0)
(2 2.48075e-13 0)
(1.84819 0.210126 0)
(1.83166 0.228796 0)
(1.84391 0.215209 0)
(1.89668 0.150128 0)
(1.82695 0.230877 0)
(2 1.18295e-13 0)
(1.88862 0.161277 0)
(2 -1.51202e-13 0)
(1.83181 0.228792 0)
(2 3.57896e-13 0)
(1.97425 0.0387824 0)
(2 -1.1587e-13 0)
(1.8445 0.214698 0)
(2 -7.61989e-14 0)
(1.83168 0.228946 0)
(1.83919 0.220263 0)
(1.83953 0.219861 0)
(2 2.26536e-13 0)
(1.83022 0.225911 0)
(2.1175 -0.264548 0)
(2 2.67565e-13 0)
(2.11754 -0.264779 0)
(2 -1.82508e-13 0)
(2 2.72758e-13 0)
(2 -1.01549e-13 0)
(1.83006 0.228853 0)
(2 1.65345e-14 0)
(1.83164 0.229212 0)
(2 4.33036e-14 0)
(2 2.08259e-14 0)
(2 3.18536e-14 0)
(1.83128 0.229291 0)
(1.84285 0.220879 0)
(1.86336 0.190392 0)
(1.83168 0.228583 0)
(1.8308 0.229016 0)
(2.11734 -0.264847 0)
(1.82955 0.230087 0)
(1.83043 0.228815 0)
(2 -1.01257e-13 0)
(1.86295 0.192994 0)
(1.83188 0.229009 0)
(1.83296 0.229412 0)
(2 -2.59423e-13 0)
(1.83032 0.228828 0)
(1.8302 0.228869 0)
(2 1.56594e-13 0)
(1.82898 0.231257 0)
(1.83128 0.228685 0)
(1.83076 0.228712 0)
(1.83093 0.229498 0)
(2 2.5887e-13 0)
(2 -4.77267e-13 0)
(2 -4.80422e-13 0)
(1.83163 0.228859 0)
(2.12212 -0.272172 0)
(2 2.88835e-13 0)
(1.83186 0.229013 0)
(2 3.88606e-13 0)
(2 7.49308e-14 0)
(2.11855 -0.264854 0)
(2 2.12738e-13 0)
(2 1.98568e-13 0)
(1.83157 0.229032 0)
(1.83136 0.229062 0)
(2 1.87243e-13 0)
(1.83167 0.229 0)
(1.83171 0.229326 0)
(1.83148 0.22899 0)
(2.00775 -0.0195458 0)
(1.8314 0.228942 0)
(2 8.04563e-14 0)
(1.83137 0.228909 0)
(1.83137 0.228957 0)
(1.86154 0.192144 0)
(2 2.6099e-13 0)
(2 4.25053e-13 0)
(2 2.27074e-13 0)
(1.83114 0.228444 0)
(1.83142 0.229043 0)
(1.83143 0.228963 0)
(2.01332 -0.029812 0)
(2 -2.73612e-13 0)
(1.82787 0.231445 0)
(1.83133 0.228861 0)
(1.83173 0.228958 0)
(2 -3.16865e-13 0)
(1.83128 0.228874 0)
(1.83193 0.2288 0)
(1.83156 0.228999 0)
(1.82757 0.232033 0)
(2 8.74873e-14 0)
(1.83174 0.22891 0)
(1.8305 0.230554 0)
(1.8519 0.202507 0)
(1.83137 0.229367 0)
(1.82822 0.231319 0)
(2 -2.05039e-13 0)
(1.8306 0.229964 0)
(1.83325 0.226718 0)
(1.83139 0.228948 0)
(1.83166 0.229027 0)
(1.8314 0.229422 0)
(2.1188 -0.265627 0)
(1.83153 0.228944 0)
(1.83144 0.228986 0)
(2 -1.63439e-13 0)
(1.83161 0.228907 0)
(1.83135 0.22891 0)
(1.83157 0.229062 0)
(1.83164 0.22901 0)
(2 -5.68854e-08 0)
(1.83182 0.228904 0)
(1.83161 0.228872 0)
(2 -1.51447e-07 0)
(1.83175 0.228951 0)
(1.85828 0.198913 0)
(2 3.77954e-13 0)
(2 -8.4907e-15 0)
(2 6.58903e-10 0)
(1.83186 0.229 0)
(1.83178 0.231721 0)
(2 -2.22625e-13 0)
(2 -1.2346e-15 0)
(1.90746 0.136358 0)
(2 -1.89504e-13 0)
(1.83186 0.229056 0)
(2 -5.07346e-13 0)
(2 3.9046e-13 0)
(1.83168 0.22898 0)
(1.83099 0.229522 0)
(1.83115 0.229074 0)
(1.83167 0.228945 0)
(2 2.3095e-14 0)
(2 3.73863e-14 0)
(2 -4.50961e-13 0)
(1.88149 0.16703 0)
(2 -4.80186e-14 0)
(1.83143 0.229088 0)
(2 4.20056e-15 0)
(2 -2.09715e-13 0)
(1.83022 0.228847 0)
(1.83041 0.228847 0)
(2 -1.59001e-13 0)
(1.83185 0.228963 0)
(2.12022 -0.274377 0)
(1.83184 0.229058 0)
(1.83211 0.228493 0)
(2.09583 -0.206628 0)
(2 1.94724e-14 0)
(2.1209 -0.273672 0)
(1.85034 0.203334 0)
(1.83199 0.228758 0)
(1.83196 0.229072 0)
(1.83186 0.228953 0)
(2.11875 -0.264922 0)
(1.83158 0.228771 0)
(1.83131 0.229364 0)
(2.1185 -0.264914 0)
(2.12156 -0.274185 0)
(2 -2.65349e-07 0)
(1.8317 0.229117 0)
(1.83189 0.228806 0)
(2 1.09932e-13 0)
(2 -2.82962e-14 0)
(1.83166 0.229046 0)
(2 -9.48644e-15 0)
(1.82812 0.229791 0)
(2 2.48985e-06 0)
(1.85298 0.204909 0)
(2 6.51343e-14 0)
(1.92114 0.118807 0)
(1.83184 0.229006 0)
(1.83055 0.229913 0)
(1.88119 0.170759 0)
(1.85414 0.200682 0)
(1.83017 0.228879 0)
(1.83145 0.229518 0)
(1.83937 0.227852 0)
(2 -3.90898e-13 0)
(2.11861 -0.264783 0)
(1.83054 0.229615 0)
(1.83179 0.228799 0)
(1.8297 0.231182 0)
(2 7.28789e-06 0)
(2 3.5396e-10 0)
(2 1.52334e-09 0)
(1.83029 0.230183 0)
(2 3.40276e-13 0)
(1.83157 0.228952 0)
(1.83145 0.228833 0)
(2.08561 -0.177202 0)
(2 -5.31845e-13 0)
(1.8316 0.229049 0)
(2.00002 -4.05084e-05 0)
(2 4.72699e-13 0)
(1.99999 1.90587e-05 0)
(1.99998 2.80795e-05 0)
(1.83183 0.228788 0)
(1.8318 0.228854 0)
(2.00054 -0.000891546 0)
(2 4.66734e-14 0)
(2 4.28208e-13 0)
(1.8316 0.22886 0)
(1.83059 0.229769 0)
(1.83143 0.228977 0)
(1.83009 0.229886 0)
(1.83195 0.228974 0)
(2.11359 -0.25325 0)
(1.84777 0.222197 0)
(2 2.56462e-13 0)
(1.83267 0.2276 0)
(1.83124 0.229055 0)
(1.83147 0.228976 0)
(1.8321 0.226989 0)
(2 2.75714e-13 0)
(1.83162 0.228989 0)
(1.83615 0.22375 0)
(1.83092 0.22948 0)
(2 8.22868e-14 0)
(1.83075 0.228744 0)
(1.83099 0.229093 0)
(2.04559 -0.0916925 0)
(1.83161 0.229008 0)
(1.83084 0.228747 0)
(2 1.74246e-13 0)
(1.83139 0.228856 0)
(2.05287 -0.107523 0)
(1.83185 0.229043 0)
(2.04796 -0.0962593 0)
(1.83144 0.228993 0)
(2 -1.23278e-07 0)
(1.83141 0.228947 0)
(1.82473 0.235721 0)
(1.83179 0.22903 0)
(1.83155 0.229121 0)
(1.83145 0.229009 0)
(1.83012 0.228131 0)
(1.8313 0.229225 0)
(1.82992 0.227653 0)
(2 -2.89907e-13 0)
(2.02574 -0.0507384 0)
(1.83184 0.229046 0)
(1.83163 0.228985 0)
(2.0502 -0.106022 0)
(1.83184 0.229009 0)
(2.00655 -0.0144226 0)
(1.89506 0.15176 0)
(1.83146 0.229064 0)
(1.83115 0.228878 0)
(1.83059 0.229511 0)
(2 4.01317e-13 0)
(1.83033 0.229973 0)
(1.88899 0.160623 0)
(1.8307 0.229714 0)
(2.02599 -0.0530768 0)
(1.83051 0.229863 0)
(1.82601 0.229899 0)
(2 4.72358e-13 0)
(2.04569 -0.0879335 0)
(2 -3.8929e-09 0)
(1.83457 0.227651 0)
(2 -1.71651e-13 0)
(1.88456 0.165556 0)
(2 4.85126e-09 0)
(1.83648 0.216233 0)
(2.04259 -0.0837033 0)
(2 2.83776e-13 0)
(1.83206 0.228783 0)
(1.8289 0.229099 0)
(2 1.33663e-13 0)
(1.83026 0.229482 0)
(1.83104 0.229742 0)
(1.83072 0.231811 0)
(1.83201 0.225488 0)
(1.83269 0.230327 0)
(2 1.94692e-13 0)
(1.8304 0.228838 0)
(2 1.30918e-13 0)
(2 1.9337e-13 0)
(2 -1.74774e-13 0)
(2.03502 -0.0681379 0)
(1.83132 0.228907 0)
(1.83198 0.22859 0)
(1.83162 0.228306 0)
(1.83185 0.228974 0)
(1.82992 0.228847 0)
(1.83121 0.228319 0)
(1.83587 0.226801 0)
(1.83162 0.229214 0)
(2.03126 -0.0625141 0)
(1.98877 0.0215342 0)
(2 3.52622e-09 0)
(2 -1.95365e-14 0)
(1.82554 0.233193 0)
(1.83179 0.229086 0)
(1.83134 0.228943 0)
(1.83195 0.229011 0)
(1.99999 1.65006e-05 0)
(1.91035 0.13585 0)
(2 -1.66038e-07 0)
(1.82928 0.231081 0)
(1.85677 0.201415 0)
(2 -3.01499e-12 0)
(2 -5.35459e-11 0)
(2.0874 -0.188624 0)
(1.83136 0.22896 0)
(2 -1.71165e-13 0)
(2 -2.30328e-13 0)
(2.10678 -0.262537 0)
(1.83194 0.228982 0)
(2 -3.496e-13 0)
(1.83046 0.228819 0)
(1.83158 0.229064 0)
(1.83032 0.228849 0)
(1.83817 0.221591 0)
(1.83135 0.228959 0)
(2 -1.45698e-10 0)
(2.1198 -0.269257 0)
(1.95964 0.0643417 0)
(1.83138 0.22869 0)
(1.83139 0.228942 0)
(2 2.25585e-13 0)
(1.83175 0.229061 0)
(1.83153 0.229015 0)
(1.91297 0.12415 0)
(1.99819 0.00589713 0)
(1.96544 0.0588855 0)
(2 -1.44334e-13 0)
(1.8295 0.228813 0)
(1.8313 0.22892 0)
(2 -1.20769e-07 0)
(2 -2.13173e-10 0)
(2.11864 -0.264186 0)
(2 -2.41713e-10 0)
(2 -6.14712e-14 0)
(1.83185 0.229025 0)
(1.83184 0.22902 0)
(1.83215 0.228428 0)
(1.83149 0.228881 0)
(1.83148 0.228951 0)
(1.82836 0.229153 0)
(1.83146 0.229164 0)
(1.83207 0.228119 0)
(1.83129 0.229034 0)
(2 1.41982e-14 0)
(2.00157 -0.00254355 0)
(1.83201 0.228873 0)
(1.83166 0.228881 0)
(2.00111 -0.00173213 0)
(1.83179 0.229027 0)
(1.83139 0.228982 0)
(2.11821 -0.264351 0)
(2.11699 -0.264687 0)
(1.83185 0.22897 0)
(1.83087 0.229043 0)
(2 -4.14972e-13 0)
(2 1.99301e-13 0)
(1.99922 0.00204018 0)
(1.83158 0.22901 0)
(1.83214 0.228626 0)
(1.83195 0.22897 0)
(2 1.03338e-09 0)
(1.83176 0.228977 0)
(2 5.01959e-14 0)
(2.04897 -0.0983739 0)
(1.82916 0.231542 0)
(1.83426 0.229257 0)
(2 -4.39486e-13 0)
(1.92239 0.110639 0)
(1.83147 0.229029 0)
(2 -3.61575e-13 0)
(1.82826 0.228783 0)
(2 -1.03951e-10 0)
(1.83172 0.228921 0)
(1.88498 0.158622 0)
(1.83168 0.228273 0)
(2 1.29164e-11 0)
(1.83176 0.229131 0)
(1.83039 0.22935 0)
(2.11883 -0.264742 0)
(1.83166 0.22905 0)
(2 -1.23334e-07 0)
(1.83095 0.228995 0)
(1.82986 0.22883 0)
(2 7.15024e-09 0)
(2.11787 -0.262881 0)
(1.83131 0.229446 0)
(1.85136 0.215058 0)
(2.00074 -0.00101494 0)
(1.845 0.21977 0)
(1.83135 0.228921 0)
(2 -4.93597e-12 0)
(1.99873 -0.00245902 0)
(1.83147 0.229483 0)
(2.00245 -0.00215077 0)
(1.83162 0.229069 0)
(2 -2.40689e-12 0)
(2 -1.24506e-13 0)
(1.83121 0.228354 0)
(2 1.04532e-13 0)
(1.83126 0.228644 0)
(1.83161 0.229038 0)
(2.00135 -0.00232564 0)
(1.86203 0.188705 0)
(2 3.04537e-09 0)
(1.83142 0.228971 0)
(2 8.31825e-10 0)
(2 -2.2334e-13 0)
(2 1.0466e-11 0)
(2 6.97562e-12 0)
(1.83196 0.229006 0)
(2 7.03686e-09 0)
(2 2.44835e-14 0)
(1.83085 0.228075 0)
(2 1.03471e-13 0)
(1.83148 0.228742 0)
(2 3.28309e-10 0)
(1.89146 0.157842 0)
(1.83044 0.229393 0)
(1.83203 0.228658 0)
(2 9.0845e-10 0)
(2 8.00706e-14 0)
(1.99558 0.00279349 0)
(2 2.70599e-12 0)
(1.83126 0.228746 0)