/*--------------------------------*- C++ -*----------------------------------*\
  =========                 |
  \\      /  F ield         | OpenFOAM: The Open Source CFD Toolbox
   \\    /   O peration     | Website:  https://openfoam.org
    \\  /    A nd           | Version:  12
     \\/     M anipulation  |
\*---------------------------------------------------------------------------*/
FoamFile
{
    format      ascii;
    class       volScalarField;
    location    "2.52";
    object      T;
}
// * * * * * * * * * * * * * * * * * * * * * * * * * * * * * * * * * * * * * //

dimensions      [0 0 0 1 0 0 0];

internalField   nonuniform List<scalar> 
22702
(
1
1
0.958759
1
1.01623
1
1.12068
1
1
0.889842
1.12106
1.12065
1
1.11873
0.968091
1
1
1
1.12098
1
1.11885
1
1.11948
0.897875
1.11913
0.890697
1
1.12127
0.897934
0.895492
1
1.12037
1
1
1
1.11052
1.11984
1.1194
1
1
0.893566
1
1.06344
1
1.1214
1
1
1
1
0.89861
1
0.898478
1
1.12075
1
1.12028
1
1
1
1
0.889959
1
1
0.897382
1
0.890012
1
1
1
0.889685
1
1.11885
1.0758
1
1.11781
1.12402
0.892109
1.12003
0.902537
1
1.1205
0.89799
1.11955
1.11956
1
1
1
1
0.97892
0.890476
1.11943
1
1
0.889161
1
1.11868
0.889366
1
1
1
1
1.06313
1.12048
0.888496
1
1
1.03134
1
0.899255
1
1.12021
1.12026
1
1
0.881802
0.884268
0.890062
1
1
1
1
1
0.975201
1
1.10367
1.01258
1.1199
1
1.11963
1.12099
1.11827
1.12083
1
0.88957
1
0.886918
1
1
1
1
1.12048
1
1
1
1
1.11757
1
1.0078
1
1
1
1
0.896286
1
1.00322
1
0.903007
1
1
1
1.11933
1
1.11942
0.889791
0.889563
1.11878
1.11986
1
1.0236
1.07037
1
1.1202
0.902742
1.11079
1
1
1
1
1.11867
1.10315
1
1.12027
0.897855
1.12012
1
0.897671
1
0.898881
0.892706
0.999944
1
1
1.12108
1
1
1.11834
1
1.11962
1.12027
0.897288
1
1
0.893689
1.1185
1
1
1
1.11847
1
0.901292
1
1
1.11856
1.11861
1.11981
1
1.00001
1
1
1
1.1183
1
0.894655
1.12325
1.11845
1.11886
1
1
1
0.892393
1.11841
1.05894
1
1.11895
0.89842
0.902864
1.11905
1.11813
1
1.12007
0.876481
1.10625
1
1
1
1
1.11848
1
1.07234
1.0125
1
1
1.11857
0.886669
0.925432
1
1.11874
0.888675
1.11989
1
1
1
1
1
1
1
0.898372
0.924027
0.901993
1.1186
1
1
1
1
1.10653
1
0.900113
1
0.890784
0.895864
1.11875
0.896422
1.11883
1
1
1
0.999298
0.896877
0.881067
1
1
0.888544
1
1.1205
0.886038
1
1
1.12056
0.891591
1
1.11817
0.89042
1.11856
1
0.893941
0.99934
1
1
1
0.897816
1
1
1
1
1.00304
1.07622
1
0.887667
1
1
1
1
1
1
1
1.12065
1
1.12169
1
1
1
0.891088
1
1.1179
0.896864
1
1.09489
1
1
1.12051
1
1
1
1.11741
1
1
1.11631
1.12062
1
1.0289
1
1
0.887109
1
1
1
0.887078
1
1
1
1
0.885663
1
1
1
1
1
0.88359
1.00002
1.11959
1
0.999998
1.11953
1.11934
1
1
0.899488
0.946558
1.12128
1
1
1
1.11853
0.88997
1
1.11929
1
1
0.911438
0.910344
1
0.895596
0.890603
1
1
1
1
1
1
1
1.12016
1.0318
1.11247
0.88422
0.970914
1.12131
1
1.11742
1.1213
0.897395
0.933583
1
0.896525
1
1.12423
1
1
1
1
1.11847
1
1
1
1
1
1
1
1.04574
1.119
1
1.11862
1
1
0.897125
1
1
1
1
1.11844
1.09272
1
1
0.896077
1.11854
1.11848
1
1.11854
1.11834
1.11861
1
0.953291
1
1.11848
1.00015
1.11861
1
0.899385
0.999663
1.1199
1
1
1
1
0.898469
1.11864
1.10836
1
1.11821
1.11853
1.12064
1
1.05839
1.11918
1
1
1.0854
1.01883
1.11859
0.980025
1.11861
1
1.11865
1.11857
1.11862
1.11869
1
1.11733
0.97134
0.966133
1
1
1
1
1.11782
1
1
1
1
1
1.12016
1
1
0.998903
1.11843
1.10496
1
1.10013
1.00001
1
1
1.11909
1
0.999114
1.00133
1
1.11847
1
1.11832
1
1
1.08984
1
1.11842
1.00001
1
1.11884
1
1.11842
1
1
1
1.11844
1
1.11776
1
1.11847
1.12129
1.11863
1.11979
1
1.12089
1.11604
1
0.895524
1.11204
1.08716
1
1.11845
1
0.887326
0.891817
1
1
1
1
1
0.889227
1
1.1186
1.03478
1.11897
1
1
1
1
1
1.11862
1
1.11872
1.07335
0.937187
1
1
1.03734
1.03246
1
1
1.04664
1
0.898685
1.11862
1.11853
1
1
1
1.12102
1
1.00001
1.11987
1.11858
0.989718
1
1
0.899593
1.10863
1
1
1
1
1
1.1184
1.12062
1
1.11886
1.11829
1.11864
1
1
1
1
0.889351
1.12135
1
1
1.10891
1.11832
1
1.11213
1.11909
1
1
1
1
1
1.11848
1
1
1
1
1.11745
1
1.1164
0.898959
1
0.88342
1
1
1
0.999105
0.897171
0.999722
1
1
1
1.01722
1
1
0.96307
1
1
1
1
1
1
1
0.999999
0.980251
1
1
0.999303
1
0.898159
1
1
1
1
1.09066
1
1
1
1
0.897805
1
1
1.11217
1.12051
1
1
1
0.968626
1
1
1
1
1
1
0.989707
1.00456
1.11848
1
1
1
1.11827
0.969746
1
1
1
1.12023
1.11992
1
1
1
1
1
1
1
1
1
0.892582
1
1
1.11909
0.8995
1
1.11908
1
0.895651
1
1
0.892395
1
1
1
1
1
1
1
1.11664
1.11847
1
1
1
1
1.10914
1
1.04058
0.894304
1
1
1
1
1
1
1
1.01382
1
1
1.06759
1
1
1
1.09852
1
1
1
1
0.892261
1
1
0.886136
0.89415
1
1
1.11852
1
1.00604
1
1
1
1.08603
0.887591
1
0.886502
1
0.935673
1
1
1
1.11905
1
1
1.1185
1
1
1
1.11847
1
1
1.11853
1
1
0.896311
1
1.03984
1
1
1.12094
1.12134
1.08261
1.10735
1
0.899022
1
1
1.11383
1
0.886793
1
1
1
1.11864
1
1
1
1
1.07461
1
1.10876
1.11918
0.88897
1
1
0.894826
0.893658
1
1
1
1.08704
1.09188
1
1
1
1
1
1
1
1.05391
1.1202
1.00215
1
1.1173
0.890083
1
1
1
1.0675
1
1.02618
1
1.10914
1.11804
1
0.899424
1
1.12036
1
1
1.11851
1.11172
1
1.12138
1
0.888682
1
1
1
1.11836
1.11658
1.10538
1
1.11918
1.1185
1
1.11866
1
1.11803
1
0.888152
0.99556
0.888803
1
1
1
1
1
1.11846
1
1.11846
1
1
1
1.11329
1
0.896848
1.11851
1
0.898994
0.898405
0.891881
1
1.06218
1.01153
1.11906
1.11854
1
1
1
1
1.11856
1
1
1.11856
1.1185
1
1.04591
1.00006
1
0.999094
1.11954
0.952019
1
0.94458
0.899708
0.898304
0.988787
1.12023
1.11699
1.02471
1.11866
1.11861
1
1
1.12131
1.1203
1.11863
1.12121
1
1.11862
0.895132
1.11829
1.11879
1.11949
1.1197
0.96266
0.969998
0.981098
1.11854
0.988288
1.11915
1
1
1.11907
1.11868
1
0.897494
1.11971
1.11852
1
1.11857
1.11861
1
1.1186
0.898284
1.11909
1.12084
1.12078
1.12014
1
1
1
1.11849
1.0804
0.887315
1.11845
0.887008
1.11849
1
1
1
1
1.11787
1.11855
1
1
1.1185
0.887378
1.11856
0.897575
1
1.1179
1
0.889523
1.11904
0.919507
1
1.11851
1.1193
1.11896
1
1
1.06297
1.11915
0.896227
1.1185
1
1.11871
0.962139
1.11913
0.891829
1
1.11825
0.904734
1.11902
0.893909
1
1.11871
1
1.1188
1
1.07221
1.11465
1.09526
0.881687
1
1.11837
1
1.1184
1
1.11871
1
1
1.11838
0.997667
1.11913
0.888506
1.10726
1
1.08563
1
1.11895
1.11868
1.11889
1
1.10771
1.1187
1.11058
1.0763
1.11627
1
1.08218
1
1.11841
1
1.01789
1
1.11094
1
1.11872
1.11353
1.11352
1
1.11674
0.892992
1
0.898721
1
1
1
1.12073
1
1.11887
1
1
1
1.11865
1.11537
1.09798
1.11841
1.11842
0.883177
1.11933
1.12021
1
1.10255
1.11863
1.11572
1
1.12034
1.12045
1
1.1196
1.11819
1.11895
1.11899
1
1
1
1.11849
0.880725
1
1.11844
1
1
0.8901
1
1
1.1185
1.1182
1
1.1186
1.11938
1.11767
0.995883
1.1184
1
1.11839
1.11836
1.09644
1
1
1
1.11899
1.11871
1.11852
0.986684
1
1.12181
1.11857
1.11838
1
1.11861
1.11855
1.11847
1.1215
1
1.11833
1.1189
1.10626
1.11827
1.12085
1
1.11753
1.11742
1.11849
1.1184
1.11846
0.890892
1.11882
1.11826
1
1.11851
1.11848
1.11863
1.1187
1
1.11835
1.11861
1
1.11852
1.10133
1
1
1
1.11865
1.12003
1
1
1.06708
1
1.11836
1
1
1.1186
1.119
1.11842
1.11857
1
1
1
1.08885
1
1.11869
1
1
1.12091
1.121
1
1.11852
0.883459
1.11862
1.11924
0.910977
1
0.881154
1.10672
1.11957
1.11909
1.11918
0.886851
1.11863
1.11896
0.8862
0.886839
1
1.11895
1.11857
1
1
1.11862
1
1.11893
1
1.10469
1
1.05923
1.11864
1.11923
1.08889
1.10552
1.12047
1.11898
1.1087
1
0.889643
1.1198
1.11844
1.12012
1
1
1
1.12034
1
1.11839
1.11832
0.926228
1
1.11874
0.999982
1
1.00001
1.00001
1.11848
1.11818
0.999573
1
1
1.11839
1.11913
1.11841
1.11866
1.11877
0.88989
1.10323
1
1.11791
1.11827
1.1186
1.11918
1
1.1186
1.11568
1.11887
1
1.11897
1.11822
0.956466
1.11858
1.11889
1
1.11845
0.954757
1.11857
0.956225
1.11856
1
1.11852
1.12151
1.11869
1.11868
1.11856
1.12008
1.11872
1.11879
1
0.976834
1.11841
1.1185
0.956311
1.11865
0.995075
1.07552
1.11843
1.11809
1.11856
1
1.11924
1.08023
1.11806
0.980068
1.11905
1.12083
1
0.964468
1
1.11699
1
1.08442
1
1.116
0.964062
1
1.1178
1.11852
1
1.11875
1.11906
1.11943
1.11946
1.11993
1
1.11989
1
1
1
0.972953
1.11876
1.11863
1.11932
1.11863
1.1194
1.11981
1.11841
1.11887
0.973191
1.00915
1
1
1.12227
1.11869
1.11857
1.11864
1.00001
1.06406
1
1.11958
1.10502
1
1
0.921438
1.11838
1
1
0.899488
1.11862
1
1.12011
1.11873
1.12057
1.11426
1.11866
1
0.883564
1.03187
1.11843
1.11859
1
1.11872
1.11846
1.06147
1.00293
1.02716
1
1.11895
1.11848
1
1
0.882697
1
1
1.11866
1.1185
1.11907
1.11834
1.1185
1.119
1.11871
1.11794
1.11858
1
0.998962
1.11857
1.11853
0.999071
1.1184
1.11836
0.884858
0.889752
1.1183
1.11784
1
1
1.00027
1.11868
1.11889
1.1186
1
1.11849
1
0.958478
1.12023
1.11873
1
1.05484
1.11858
1
1.1194
1
1.11837
1.07902
1.11832
1
1.11866
1.11972
0.882253
1.11862
1
1.11818
1.11994
1
0.884675
1.11959
1.10567
0.999317
1.11399
1.11841
1
0.998592
1.11795
0.999425
1.11867
1
1
1.1186
1
1.11857
1.11846
0.999012
1.09599
1
1.1184
1
1
1
1
1.11861
1
1
1.12107
1
1.11845
1
1.07955
1.1186
1.11871
1
1
0.998727
1
1.11837
1.11858
1.11834
1.11852
1.1182
1.11856
1.11866
1
1.11865
1.11828
1
1.11871
1.11848
1
1.11839
0.978427
1.0169
1.11854
1.11851
1.11895
1
1.11864
1
1.11853
1.11859
1
1.11857
1
1
1
1
1.11834
0.885687
0.999408
1
1.11854
1.11968
1
1.11854
1
1.00157
0.885317
1.11857
0.999882
1
1.11813
0.999549
1.11852
1
0.999932
1
1.1184
1.11877
1.11849
1.11926
0.89323
1.11832
1.11887
1.11842
1.03047
1
1
1.0544
1.11855
0.881869
0.894032
1
1.11852
1.11849
1.11876
1
1
1.11801
1.11859
0.999966
1
1.08805
0.886618
1
1.02232
1.11972
1.11898
0.999496
1.11853
1.12212
1
0.999673
1
1.11887
1.11961
1.05058
1
1.11277
1
1.00073
1.11882
0.891994
1.11835
1.11852
0.999119
0.999975
1.10563
1
0.999915
1
1.11887
1
1
0.880761
1.11895
1
1
1
1
1.1182
1.0696
1
1
0.887114
1.11865
1.06986
1
1
1
1.11394
1.11401
1.12071
1
1
1.11992
1
1.11875
1.11857
1
1
1.11901
1.11848
1.11512
1
1
1.11908
1.11876
1
1
1
1.11878
1
1
1
1.11911
1.11953
1.11923
1
1.11936
1.00001
0.908515
1.11837
1.1183
1
1.11934
1.11717
1.12087
1
1
1.1194
1
1.06954
1.11821
1
0.883041
1
1.119
1
1
1.1195
1
1
1
1.03983
1.11821
0.899455
1
1.11889
1
1
1.11866
1
1.11965
1
1
1.11845
1.11858
1
1.00001
1
1
1
1
1
1
1.11764
1.11894
1
1.12001
0.892064
1.11905
1
1.11862
1.1203
1.11883
1.11617
1.12143
1
1
1.11978
1
1.07589
1.11989
1.11852
1
1.11899
1.11599
1
1.10737
1
1.11858
1.08052
1.11972
0.999325
1.11874
1.10946
1.11898
1.11885
1.01077
1.11875
1.11915
1
1.11847
1
1.11863
1
1
1
1
0.998891
1.11855
1.11847
1.0992
1
1.11924
1
1
1
0.874528
1
1.11563
1
1.10865
1.11677
1
1
1
1.10961
1.1207
1
1
1.11829
0.889464
1.02302
1
1.11989
1.11848
1.10888
1.11547
1.1185
1
1.11821
1
1
1
1
1.11887
1.11871
1
1.11667
1.01843
1.11884
1.11128
1
1
1.11145
1
1
0.892921
1.08558
1
1
1.11811
1
1.11928
1.10927
1
1.1094
0.888244
1.11888
1.1186
1.11868
1
0.899489
1
1
1
1.11865
1.09863
1
1.1207
1.11868
1
1.11887
1
1
1
1
1.11867
0.999815
1
1.11902
1
1
1.11956
1.11877
1
1.11911
1.02491
1.00001
1
1.11845
1
1.11836
1
1.00399
1.11848
1
1.11849
1
1
1.0412
1.1185
1
1
1
1
1
0.998879
0.89089
0.885304
1.00572
1
1.00786
1
1.00765
1
1.11843
1
1.07811
1
1.11871
1
1
1
1.11864
1
1.09332
1.11858
1
1.06592
1.11849
1
1
1.12049
1.11856
1
1
1.01572
0.881952
1
1.11889
1
1
1
1
1.02136
1.11839
1
1
1
0.893847
1
1.11849
1.11824
1.12061
1
1
1
1
1.06091
1.12085
1
1
1
1.11794
1.11858
1.01741
1
1
1
1.119
1.11858
1
0.882455
1.1183
1.11863
1.11866
1.11882
1.11912
1
1
1.119
1.11832
1.11844
0.895786
1.01157
1.11849
1
1
1
1
1
1.11855
0.890922
1
1
1.11845
1.05662
1
1.11997
1
1
1
0.897519
1
1
1.03193
1.11826
1.11858
1
1.12029
1.11877
1
1.02292
1
1.11964
1
1.11776
0.890362
1
1
1
1
1.11889
1.00002
1
1
1
1.11219
1
1
1
1
1.11839
0.89695
1.09519
1.11934
1
1.11828
1
1
1
0.999189
1
1.11948
1
0.939779
1
1
1.00001
1.11838
0.888535
1
1.11847
1
1.11874
1.11853
0.894993
1
1
1.11533
1
1
0.889869
1
1.11813
1
1.11397
0.999792
1.11858
1
1
1
1
1.12007
1
1
1.11875
1
1
1
1
1
1
1
1
1.08089
1
1.042
1.11833
1
1
1
0.894874
1
1
1
1
1.1181
1.11868
1.01871
1
1
1.11873
1
1
1.11858
1
1
1
1
1
1
1.11869
0.931724
1.11857
1.11895
0.999128
1
1
1
1.07326
1
1
1.11881
1.11853
1
1
1
1
0.895033
1
1
1
1.07769
1
1.11879
1.11932
1
1.11892
1
1
1
1.0671
1
1.12049
1
1.11855
1
1
0.998853
1.11861
1
1
1
1
1
1.11914
1.00001
1
0.894343
1.11923
0.888568
1
1.11819
1
0.998892
1
1.11878
1.11874
1
1.11985
0.964519
1.11865
1.12041
1.00001
1
1
0.893004
1
1
1
1.1184
1.07278
1.11833
1
1
1
1
0.999082
1.11883
1
0.88947
1
1
1
1
1
1
1
1.12005
1.11909
1.1189
1
1
0.999125
1
0.996359
1
1
1
0.883541
0.994577
1
0.895183
0.895982
1
1.11869
1.11858
1
1.1196
1.11866
0.890572
1.08159
1
1
1
0.888604
1.11889
1
0.885961
1
1.12006
1.02249
1
1
1
1
1.11877
1.11964
1
1
1.11867
1
1
1.1203
1.11853
1
1.11009
1.11855
1.11976
0.989447
1.11821
1.00252
0.889526
1.09356
1.11826
1
1
1
0.883991
1
0.892619
1.11918
0.98909
1.11861
0.985231
1
1.11868
1.05903
1
1
1.11861
1
1.05215
1.11884
1
1
1.11806
1.11856
0.893184
1.0717
0.99997
1
1.07597
1
1.11862
0.984702
1.11999
1.11814
1
1
1
1
1.11494
1
1
1.11895
0.999898
1.11843
1.0955
1.1184
0.890154
1
1
1
1
1.11845
1.00001
1.11849
1
1.11863
1.11865
1.0167
1.11736
1.04091
1.1189
1
1.08417
0.897911
1.11991
1.11856
1.09773
1.02276
1.11939
1.11867
1.11876
1.11819
1
0.973554
1.01939
1
1.1185
1.06084
1.11844
1.00001
1
1
0.902835
1.12005
1.11914
1.0994
1
1.04968
1
1.1185
1.11919
1
1.11891
1.11909
1
1
1
1.11894
1
1.04799
1.11831
1.08414
1
1.11826
1
1
1
1
1
1
1
1
1
1
0.902315
1
1.11367
0.891855
1.07214
0.999579
1.11931
1
1.0646
1
1.07967
1.10165
1
1.00045
1.11881
0.977117
1
1.11989
1.11519
0.984777
1
1.11908
1.11846
1.11901
1
1.11868
1.11883
1.11935
1
1.0559
1
1.00002
1.11842
1
1.1186
1.01893
1.11822
1
1
1.11857
1.1197
0.898995
1
1.11862
1.09076
1.11851
1
1
1.11939
1.11781
0.999496
1
1.10357
0.99916
1.11859
1.00002
1
1
1
1
1.05624
1
1.09456
1.11823
1.09015
1.11884
1
1.00046
1
1
1.11996
1
1.11966
1
1
1
1
1
1
1.01596
1.06501
1
1
0.89422
1
1.11821
0.902327
1.11897
1
1.06435
0.999926
1.11886
1.07956
0.894046
1.0677
1.00001
1.11856
1.11888
1
1.07512
1.11833
1.1189
0.999538
1.12052
1.11555
0.888254
1
1
0.999309
1
1.11462
1
0.896148
1.11926
1
1
1.10596
1
1.11838
1
1.11907
1
0.898376
1
1
1.11865
1.11784
1.1197
1
1.11863
1.11864
1.1193
1
1
1.1157
1
0.923029
1
1
1
1.11895
1
1.11845
1.08059
1.11869
1
1.11863
0.999821
1
1
1
1
1
1
0.906481
1
1
1.11861
1
1.11953
1.11911
1
0.892837
0.890138
1
1.11885
1.02117
0.88872
0.885249
1
1.11919
1
1.11824
0.888711
1.00043
1
1
0.999858
1
1
1
0.999975
1.05087
1.11876
1
1
1.11875
1.07408
1
1.10521
1.11798
1.11848
1.05222
1.1178
1
1.11859
1
1.11807
1
1.11867
1.11806
0.99911
1.11869
1.11918
1
1
1
1
1
0.979744
1.11947
1.00001
1.00001
0.896526
0.999993
0.883573
0.875038
1
1.1186
1.11858
1.11841
1
1.11847
1
0.889238
1
1
1.1192
0.949091
1.11846
1
1.11862
1
0.995056
1.11863
1
1
1
1.11958
1
1.11853
0.894656
1
1
1.07305
1
1
1.06755
1
1
1.11895
1
1
1
1
1
1.11913
1.11885
1
1.11887
1.11892
0.893046
1.05886
1.11843
1
1
1.10786
0.999715
1
1
1.1186
1.11888
1.07764
1
1.11872
0.89434
1.11128
0.999806
1
1.11909
1.00001
1.11827
1.10346
1.09259
1
1
1.11842
0.916846
0.89608
1
1.11869
1
1.1186
1
1.07381
1
1
1.11851
1.07956
0.887418
1
0.999545
1
1
1.00758
1.05079
1.11843
1
1.11938
1
1
1
1
1
1
1.01946
0.886863
1
1
1.01006
1
1
1
1
1
1.11845
1
1
1.11847
1.1182
1.08854
1
1
1
0.951701
1.11841
1.0846
1
1
1
1
1.11854
1
1
1
1.11969
1
1
1.08751
1.124
1.01406
0.926775
1.11856
1.08658
1.11894
1
1.06395
1
1
1
0.883205
1.00081
0.898595
1
0.89197
0.883966
1
0.890855
1
1
1
1.05615
1
1.11856
1.11838
1.00031
1.05836
1.1018
0.892745
0.925812
0.966443
1
1.11858
1.11986
1.11858
1.11857
1.10334
0.958902
1
1.10375
1
1.11225
1
1
0.99903
1.00283
1
1
1
1.11899
1
0.891365
1
1.11886
0.892663
1
1
1.11861
1
1.11852
0.999759
1
1
1.11889
1.10583
1
1.12122
1
1
1.00414
1
1.05639
1
1
0.892523
1
1
1.11784
0.999999
1.11883
1
1.00001
0.886573
1
1
0.898202
1.00031
1
1.11944
0.885824
1.11969
0.891457
1.11859
1
1
1
1
1
1
1
1
1
1
1
1.11402
1
1.11895
1.11973
0.887988
1
1
1
1
1
1
1.11591
1
1
0.8912
1
1
1.1196
1
1
1.04886
1.10132
0.893263
0.892419
0.905827
0.923801
1
0.999042
0.899165
1.00011
1.11126
0.999105
1
1
1.11862
1
1
1
0.928067
1
1.04615
1
1
1.05101
1.11866
1
0.891977
1
1
1
0.998976
1
1.11812
1.11869
1
0.888697
1
1.06704
0.889691
1
0.967282
1
0.998906
0.886742
1
1
1
0.998689
0.894539
1
0.893145
0.999544
1.0659
1.10791
0.896129
0.895613
1
0.997203
1
0.999603
1
1.11816
1.11851
1
1.00353
1.11845
1.11873
1
1
1.11874
1
1
1.00001
1
1.11976
1
1
1.00539
1
0.99959
0.905353
1
1
1
1
1
1.11924
1.01176
1.00001
1
1
1
1
1
1.00001
1
0.892928
1.02705
0.999605
1.12133
1.11784
1
1.00443
1.11844
1.10455
1
1
0.879949
1.11787
1
1.11958
1
1.11925
1.08844
0.889961
1
0.888493
1.11296
0.999907
1
0.887698
0.876871
1
1
1.10097
1
1
0.887272
1
1
1
1.0409
1
0.888575
1.11885
1
1
1
1
1.11865
1
1
1.11909
1.10746
1
1
1
1.12024
0.894593
1
1.11878
1.11846
1
1.09712
1
1.00001
1
1
1.10982
1.00459
1
0.887545
1.06762
1
1
0.999369
1
1
1.11972
1
1
1.00001
1
1.11914
1
1
1
1
1
1
1
1.05721
1
1.11897
1
1
1.11882
1
1
1
1.11871
1.11924
1.01296
1
0.999293
1
1
1
1
1.11997
1
1
1.11883
0.88835
1
1
1
1
1
1
1.09815
1
1
1.11771
1.11932
1
1
1
1.11888
1.11799
1
0.999925
1.1179
1
1
1
1.00001
0.897749
1.00827
0.998851
0.998875
1
1
0.887023
1.11955
1
0.889658
1
1.11828
1.11443
0.894435
0.999826
1.11849
1.11909
1.11834
1
1
0.97951
1.1096
1.10088
0.882631
1
1
1
1.11817
1.11857
0.888137
0.999215
1
1.11867
0.892513
1
1.11409
0.890175
0.993915
1.00207
1
1.11783
1
1
1
1
1
1
1.00003
1.11089
1
1
1.11943
1
1
1
1.11864
1
0.891978
1
1
1
1.04466
1
1
1
1
1
0.937354
1
0.893829
1
1.11888
1.00002
0.962613
0.964153
1
1.00098
1.066
1
1
0.889473
1.1187
1.11889
1.11867
1
0.882436
0.893747
1
1.11827
1
1
1
1
1
1.00001
1
0.896364
1.07966
1
1
0.894835
0.997375
1
1
1
1
0.88641
1
0.901821
1
1
1.11936
1
1
0.886677
1
1.11853
1
0.891949
1
0.892956
1
1.00219
1.11896
1.12082
1
1
1.11986
1
1
1.02817
0.999104
1
0.999496
1
1.11942
1
0.897624
1
1.12058
0.999666
1
1
0.936863
1
0.999735
0.886487
1.11934
1.04654
1
1
0.972318
1
1
1
0.93533
1
1
1
1.11858
1
0.891971
1
1
1
1
0.88544
1.11857
1.10696
0.887678
1
1.12031
1
1
1.1184
1.11953
1.10199
0.888498
0.999343
0.999799
1
1.11841
1
1
1
1
1.11826
1.00001
1
1
1.11774
1
1
1.11851
0.886786
1
1
1
0.890909
1
1
1
0.99963
1
1
1
1
1.09618
1
1.11981
1.11873
1.1215
1.11852
1.11836
1.11846
1
1.11877
1
1.11848
1.11847
1
0.999671
0.886611
1.10313
0.999973
1
1
1
1
1.00024
1
1.02113
1
1
1
0.956101
1.11848
1.11857
1.11919
1.10621
0.999963
1
1.00647
1.1184
0.999413
1.01746
0.999212
0.894628
1
1.00001
1
1
1
1
1
1.11864
0.888476
1.1186
1.11867
0.998618
0.894502
1
1
1
1.11869
0.891876
1.10588
0.885178
1.11849
1.11961
0.893226
1.11791
1.00687
1
1.11935
0.938742
1
0.999642
0.888595
1
0.893238
1
1.11845
1.11855
0.929287
1
1.11919
0.894538
1
0.892813
1
1.11873
1
1
1.11897
1
0.948701
1
0.999905
0.893192
1.11831
0.999855
1
0.889873
1
1
1
1
1.06864
1
1.11867
1
1
1.12139
1
1
1.11893
1
0.889989
1
0.896725
1
1
1
1
1
1.11418
1.07251
1.11856
1
1.11868
1.11147
0.886215
0.89329
1
1
1.11849
1
0.889528
1
0.996036
1
1
1.11851
1
1.11908
0.896258
1.11964
1
0.895756
1
1
1.11786
1.11828
1
1.00001
1
1.11797
1
1
0.875284
0.999842
0.896169
1
1
1
1.11898
1.1185
1.11976
1
1
0.88682
1
1.1188
1
1
1
1.11593
1.11861
1.11867
0.892875
1.11938
1.11861
0.891459
1.11995
1.00001
0.892308
1.00631
1
1
1.11848
0.89479
1.07938
0.894789
1.1186
0.999228
0.88541
1.11896
1
1
1
1
1.11872
1.11968
0.893294
1
1.00001
0.888157
1.00001
1
0.895068
0.897821
1.08517
1.11905
0.999558
1.11855
1
1.11987
0.949195
0.888745
1.11853
1.12262
1
1.1185
1
1
1.11869
1
1.09289
1.12019
1
1
1
1
1.11853
1.11737
1.11786
1
1
1.11824
1.12095
1.11889
1
1.11852
1
1
1
1
1
0.891998
0.949212
0.896699
1
1
1.1181
1
1
1.11937
0.884013
1
1.11855
1.11736
1.1145
0.881627
1
0.893991
1
1.00001
1.11964
1.06093
1.12048
1.10912
1
0.877671
1
1.11884
1.08713
0.896245
1
1
1
0.937418
1
1
1.12146
1
0.903524
1.11858
1
1
1
1
1
1.09794
1.02886
1
1.11854
1
1.11843
1
0.999196
1
1.11888
1.11781
1.11815
1.11972
0.999881
1.1202
1
1.11851
1.11874
1.10163
1
1
0.88474
1.11964
1
1
1.11994
1.11836
1.11809
1
1.1186
1
1
1.00001
1.11747
1.11831
1.0356
1.02892
1.11839
1.1188
0.901619
1
1
1
1
1
1.04352
1
1
1.10022
0.897426
0.999989
1
1.11846
0.999974
0.999946
1.02011
1.11328
1.12003
0.974878
1
0.891853
1
1.00165
1.11862
1.11927
1.12017
0.99975
1
1
0.892939
1
1
1.11864
1.01389
1
1
1
1
1
1
1
0.999983
1.11929
1
1
1
1
1
1.07939
1
1.05888
1
1
1.11858
1.11996
0.890854
0.999645
1
1
1
0.893424
1.1199
1.11844
1
1
1
1
1
1
1
1
1.11888
1.11762
0.884078
1.01428
0.894721
1
0.893671
1
1.11861
1.03985
1
1
0.913469
1
1.11453
0.944336
0.999089
0.884559
1
1
1.11971
1.00001
0.999258
0.882604
1.12022
1.12036
1
1
1
1
1.11119
1
1
1.11873
0.999707
1.11949
1.00002
1
1
0.886375
1
1
1.11827
0.886219
0.935334
0.892777
1.11865
0.999825
1
1.11982
0.894653
0.8917
1.00541
1
1
1.1198
1.00001
1.05928
1
1
1.11985
0.890662
1
1
1.00004
1.11962
1.00004
1.11511
1
1.00001
1
1
0.920859
1
0.939554
1.00001
1
1.11935
0.888842
1
0.933394
0.941286
1
1
1.11851
1
1
1
1.11916
1.11848
1.00001
1.11645
1.11987
0.936196
1.11853
1.11258
1
1
1.11798
1
1
1
1
1
1.12175
1.11822
1
1
1
1.11847
1.00006
1
0.88728
0.920452
1
1.00001
1.04812
1
1
0.971072
0.89586
1
1
1
1.11981
1.1097
1.1185
1
1
1
1
0.888287
1
1.11579
1
1.11835
0.886745
1.11974
1
1
1
0.894079
1
1.11915
1.00001
1
0.896177
1.04555
1
0.999909
1.12217
0.885211
0.896531
1
1.11962
0.886219
0.88682
1
0.890972
0.999999
1
1
1
0.895967
1
1
1
1
1.11983
1
1.09295
0.891012
1
1
1
0.888415
1.11857
1
1
0.999097
1.11968
1
1.11809
1.11983
1
1
0.906115
0.89665
1
1
0.888086
1.04182
1.05591
1
1
1.12102
0.999241
1
0.999385
1.12012
1
1
1
1
1
1
1.11821
1
1.04549
1.04155
0.904896
1.1067
1
1.11868
1.11862
1
1
1
0.975404
0.887939
1
1.06561
0.999916
1.10368
1
1
1
1
1
1.00179
1.05643
1.11871
1.11866
1
1.11864
1
0.894676
1
0.999301
0.999942
1
0.88347
1
0.889037
1.00001
1.11927
1.11984
0.886109
1.12016
0.876435
0.998903
1.09298
0.889038
1.08916
1
1
0.999547
1
1
1
1.00002
1
0.887121
1
1
1
1
0.999875
1.11865
0.941888
1
1
1
1.01102
1
1
1
1.07372
0.922889
1
1
1
1.01276
1.11999
1
0.895335
1
1.11901
0.971393
0.895445
1
0.890342
1
1
1.11282
0.999491
1.10826
1
1.00255
1
1
1.11887
1
1
1
1
1.026
1
1.11836
1.11901
1.11955
0.88988
1.11859
0.999164
1.10017
1
1
0.88132
1
1
0.882903
1.11944
1
1
0.999986
1
1
1
0.882835
0.891079
1
1.11981
1
1.05789
1.11851
0.88899
1.10111
1
1
0.898828
1
1
1.11861
1.11866
1.04536
1
1
1.00036
1.11887
0.890595
0.882727
1.1198
1.11874
1.08555
1.04993
1
0.970171
1
1
1
1.1117
1.11843
1.11811
1
1
1.11938
0.894316
1.10626
0.884661
1
0.895635
1
0.884909
1.11861
0.889451
1
0.993397
0.900639
1
1
1
0.955681
1.10863
1.11825
1.11951
1.11963
1
1
1.12067
1
1
1.11832
1
0.894751
1
0.891568
1
1.11933
1
1
1.00832
1.09426
1
0.999659
0.894313
1.11832
1
0.894286
1.02563
1
1
1.09627
1.11851
1.11842
1
1.11889
1.03675
1
1.00709
1.11872
1
1
1
1
1.11846
1
0.885915
1.11832
0.886794
0.894091
0.952333
1.11879
1.04529
1.119
1
1.11962
0.999227
1.00001
1.1184
1.12022
1
1.11947
1
1.11845
1
1.11922
1
1.00001
0.999989
1.11926
0.890738
0.89413
0.999381
1
1
1
0.882794
1
1.08143
1
0.887536
1
1.05191
1.11816
1.11992
1
1
1.00001
0.999854
1
1.11989
1.11851
1
1.05385
1.1187
0.95908
1.11841
1.00006
0.883871
1.02713
0.896495
1
1
1.02226
1.12056
1
1
1.01453
0.999575
1
0.889363
1
0.932012
1
1.11805
1
1
0.891164
1.02931
1.01972
0.999578
1.11856
1.11853
0.935963
0.999446
0.885157
0.890895
0.883302
1
1
1
0.999746
0.911968
0.892839
1
1.11868
0.999928
1.11851
1.11834
1.12002
1.11859
1
0.886336
1.11843
0.889986
1
1.11869
1.11775
0.999053
0.947671
1.11926
1.08631
1
0.887969
1
1
1.1209
1
1.00743
1.11904
1
0.894137
0.885919
1
1
0.885151
0.885329
1.11834
1.00001
1
0.887801
0.888087
1.12025
1.11654
1.11097
1.11932
1.03809
0.996304
1.05019
1.11729
1.09369
1
1.06153
1
0.882592
0.961263
1
0.884525
1.1184
1.00657
1.11891
1
1.1185
1.11964
1
1.1191
1.11849
0.889661
1.11915
1
1.12155
1
0.920845
0.893214
1.11871
1
1
1
0.889245
1.11846
1.11872
1
0.896471
1
1
0.884383
1.00001
0.88526
1.1202
1
0.946485
0.888618
1
1
1.07062
1
1
1
1.02291
0.89051
1
1
1
1.11939
0.886981
1
1.11846
0.898526
0.895513
1
1
1.1184
1
1.1184
1
1.11846
0.893954
1
1
0.898562
0.944627
0.88978
1
1
1
1
1.11887
0.882604
1
0.887094
1
1.11935
1
1
0.982075
1
1
0.948138
0.999914
1.00001
1
0.886945
0.895906
1
1
1
1
0.941365
1.11828
1.11946
1
0.890805
0.888041
0.971002
0.897702
1
0.951541
1
0.888376
0.996791
1
1
0.890008
1
1.11835
1.11673
0.890223
1
1
1
1.11779
1
1.01344
0.949184
1.04077
0.896248
1.05095
0.888336
1
1
0.908451
0.97047
1
1.01481
1
1
0.890543
1
0.983571
1.01512
0.887132
1
1.09707
0.923818
0.965439
1
1
1
0.889844
1
0.889126
0.886569
1
0.956608
0.890997
1.01998
0.920951
0.884694
1.11849
1
1.11865
1.06783
0.917742
1.11856
0.882981
0.999728
1.11948
1
1
1.11926
1
0.913978
1
1.01984
1
1
1.11853
1
0.931907
0.945988
1.12038
0.980452
1
0.92752
1.11843
1.11964
0.97029
1
1.11847
1.03398
0.956582
1
1.00708
1
0.896611
1.05331
0.92874
0.922837
1
1
0.896071
1.11873
0.991984
0.888501
0.888792
0.958889
1
1.00877
1.11936
1.11887
1
1
1
0.894444
1.06073
0.999995
1.11893
1.10889
0.886868
1
1.0267
0.964602
1.0757
1.10826
1
1.01271
1
1.00001
0.887335
0.955123
1
1
0.946308
0.884356
1.0125
1
1
0.888481
1.0583
1
1.11567
1
1.01329
1.06805
1
1.1149
1
1
1.11872
1
0.882136
1.11969
0.911213
1.03456
1
0.897015
0.999978
1
1.00001
1
0.936554
1.00739
0.888722
1.09083
1.11987
0.881101
1
1
1
1
1
0.993139
0.880229
1.01408
0.888056
0.892783
1.02036
1
0.999943
1.03212
1
1
0.892531
0.999244
1
1
1.03631
1
1.11975
1
1.11956
1.02655
1.00605
0.893467
1
1
0.895087
1
1
1
1
1.119
1.01244
0.999459
1
0.882244
1.01551
1
1
1.08112
1
0.895847
1.11809
1
1
1
1.11815
0.891165
0.965102
0.885414
1.09189
1.1196
1
1
1.11854
1
0.885999
1
1
1
1
1
0.933039
1
1.11826
1
1
1.04581
1.11945
0.894948
0.961642
1
1.1181
1
1
1
1
1
1.11857
1.11976
0.883684
1.11861
0.87948
1
1
1.11851
1
1.12026
1.00258
1.0074
1.01974
1.11835
1.01923
1.08466
0.883251
1
0.882721
0.997485
1
1.11835
1
1
0.883199
1.11895
1
1.11976
1
1
1
1
1
1
0.886059
1.11942
0.956326
1.11856
1
0.887182
0.890706
0.915303
1.11886
1.11819
0.992232
1
0.935536
1
1.04748
1
1.1179
0.880925
0.889097
0.956419
1
1.11883
1
1.01743
0.89748
1
1.12033
1.10301
0.999665
1
1.11855
0.893238
1.11849
1.11886
1.11749
0.888283
1.02426
1
1
0.886909
1
0.944092
0.951295
1
1.00001
1.11832
1
1.12057
1.02576
1
1.01233
1.1207
1
0.88381
1
0.933206
1
1
1.09844
1
0.944152
1
0.895466
1.01069
0.984449
0.891377
1.11894
1.09689
1.11933
0.888629
0.905856
0.998743
1
1
0.903611
1.11273
0.890686
0.999991
1
1.11848
1.11958
0.971925
1
0.893218
0.906554
1.08244
0.994682
0.881625
1
0.887155
1.03331
0.895149
1
1.00002
0.94334
1.11941
1.11909
0.951322
0.999878
1
1
0.911494
1
0.891192
1
0.889506
0.89201
1
1
1.00001
0.893277
1.11872
1
1
1.00002
1.00001
0.894255
1.11886
1.11854
1
0.88824
1.11992
1
1.0247
1
1
1.11915
0.88963
1
1
0.891859
0.92643
0.890552
0.891131
1
0.901096
0.999189
1.02528
0.881579
1
1
1.03678
1
1.10571
1
1
1.08404
0.899798
1
0.894498
1.03721
1.11849
1
1
0.893666
0.876665
0.881707
0.916238
0.877904
1.09186
0.999829
1
1
1
1
1.11899
0.897353
1
0.981727
0.999908
0.999529
0.999984
0.926319
1.03706
1
1.11853
1.11862
1
1
1.11482
1.00001
1
1.11855
0.893641
1.11988
1
0.883521
1.11888
1.00001
1
0.948785
1
0.88867
1
1.11877
1
1
1.11942
1
1
1.11949
1
1
1
1.11998
1
0.920796
0.912372
1
0.88288
1.11817
1
1
0.991306
1
1.11895
1.07107
1.09714
1
1
0.890826
1
0.891309
1.11818
1.11917
1.11845
1
1.11949
0.891624
1
0.892867
1.09732
1.10955
1.11891
1.11839
0.927768
0.884714
1
1.08154
1.11939
1.11927
1.11851
0.925778
1.04697
1
1.09258
0.923454
1
1
1
1.00001
0.968377
1
1.11897
1
1
1
1
1
1
1.00002
1.11792
1
1.1192
1.08976
0.890142
1.12017
1.0094
1.06001
1
1.11865
1
0.887669
1
1
1
1
1.10292
1
0.884679
1.11814
0.882795
1.11873
1.0971
1.06585
1
1.02415
1.06046
0.998744
0.893802
0.932453
1.00001
1
0.976843
1
0.883029
1.11924
0.88676
0.979838
0.955287
1
1
1
1.0034
1
1
0.890038
0.998999
1.12041
1
1.1184
1
0.889823
1
1
1.11846
1.11912
0.886718
1
1.11974
1
0.942303
0.886475
1.11948
1.10756
1
1.02042
1.11861
0.999622
1
1.05282
1.10548
1.11813
0.998758
1
0.999999
1.10246
1
1
1
1.11872
0.99957
1
1
1.11855
1
1
0.89495
1
1
1
1.1197
1
1
0.955227
1.0415
1.10961
0.928338
1
1.11866
1
1.04486
1
1.11925
0.999259
1.11864
1
0.892932
1
1.08323
1
1
1.11151
1
1.11884
1
1.11942
0.905904
0.88834
1.11899
1
1.10096
1
1.11901
1
1
1.00001
1.11867
1.11782
1.03498
1.1189
0.998717
0.891221
1.11866
0.96145
1
1.11793
1
1.11891
1
1.11901
1.11924
0.998901
0.891147
1
1.11854
1
1.0107
1
1
0.999409
0.926376
1.1069
1
1.10606
1
0.960826
0.885324
1.11919
1.11854
0.914252
1
1.11872
1.11948
1.11895
0.90148
1.11829
0.904486
1.11878
1.11714
1
1
1.11838
1
1
1
1
0.889499
1
1
1.11899
1.11853
1
1.11877
1
1.11991
1.11961
1
1.10088
1
0.885516
1.11854
1.09183
1.03786
0.886389
1.1185
1
1
0.884765
1
1
1.11843
1
1
0.930215
1
1.11887
1.00002
1.11875
0.887184
1.12033
1
1.1188
1.1145
0.969333
1
1.11825
0.922817
1.11922
1.08433
1.11838
1.11985
0.999158
1.12016
1.11876
1.11858
1.11886
1.00014
1
0.885636
1
1.12011
0.953129
1.10996
1
1.11659
1
1
1
1
1
1.11789
0.883568
0.90139
1.11918
1.11838
1
1
1
1
1
1.11779
1.1133
1.1187
1.00736
1
1
1
1.00001
1.11838
1.11852
1
1.11926
1.11941
0.897544
1.08517
1
1.11838
1.11975
1.11779
0.999417
1.1187
1.11859
1
1.10869
1
1
1
1
1
1
1.11896
1.12006
1.11134
1.11856
0.886522
0.903316
1.11868
1.11862
1
0.886523
0.984972
1
1.06089
0.880734
1
0.99984
0.999502
0.890018
1
1.11861
1
1
1
1.11959
0.985258
1
1.11861
1.11844
1
1.11895
1
1
1.11854
1
0.888534
1
1.11908
1
1
0.894077
1
1.11912
1
0.884741
0.893253
1
1.11705
1
0.884992
0.964396
1
1.1186
1
1
1
1.11979
1
0.881583
1.01825
1.11892
1.11903
1.11846
1.0145
1.11901
1.11827
1
1
1
1
1
1.11856
1
0.999793
1.11891
1
0.886117
1
1.11879
1.06028
1.02128
1.05984
1.01985
1.12025
0.902564
1.11855
1
0.890156
0.999167
1.11876
0.986528
1.11856
1.11861
1.11843
1
1.11889
1.11854
1.11857
1
1.00001
1
1
1.11927
1.08662
1
1
0.88476
0.998999
1
1.11859
1
1.11869
1.11883
1.11934
0.973024
1.11847
1.11855
1.00269
1.06019
1.11903
1.11885
1
1.11064
0.94749
1.1119
0.998821
1.11884
1
1.11855
1.11892
1
0.896189
0.982566
0.913122
1
1.02385
0.999143
1.11959
1
1
0.999012
1
1.05901
1.11623
1
1
1.11886
1
1
1.08715
1.11819
1.11431
1.11884
1.11872
1
1.11832
0.920202
1.11883
1
0.999203
0.886633
1
1
0.92378
1
1.04137
1
1.11895
1
1.11643
1.07842
0.892707
1
1
1
1
1
1.11854
1.00333
1
1.11921
1
1.11845
1.11862
1
1
0.991175
0.999954
0.884226
0.888534
0.916671
1.02456
1
0.999552
0.890772
1.00001
1
1.11879
0.983604
1.11169
1.10393
1
1
1
1
1
1.11892
1.11865
1
1.11938
1
1.11958
1.08279
0.998802
1
1
1
1.07055
1
0.989292
1
1.11902
1
1
1.11852
1
1
1
1
1
1.11884
0.883825
0.99886
1.10759
1.11865
1
1.11852
1
1
1
1
0.903025
1
1.1186
1.11866
1.11861
1.12029
0.985482