/*--------------------------------*- C++ -*----------------------------------*\
  =========                 |
  \\      /  F ield         | OpenFOAM: The Open Source CFD Toolbox
   \\    /   O peration     | Website:  https://openfoam.org
    \\  /    A nd           | Version:  12
     \\/     M anipulation  |
\*---------------------------------------------------------------------------*/
FoamFile
{
    format      ascii;
    class       surfaceScalarField;
    location    "0.65";
    object      phi;
}
// * * * * * * * * * * * * * * * * * * * * * * * * * * * * * * * * * * * * * //

dimensions      [1 0 -1 0 0 0 0];

internalField   nonuniform List<scalar> 
69079
(
-0.000157575
9.10491e-05
6.65255e-05
0.000127268
1.50026e-17
-0.000127268
-0.000134899
0.00013488
0.000128736
-1.46833e-06
-0.000133335
-1.59836e-06
-0.000133349
7.91994e-05
-0.000146755
6.75559e-05
1.85759e-06
0.000110647
-0.000113934
0.000130024
-0.000130024
-1.14925e-17
0.000129367
6.56883e-07
-9.80687e-05
-5.95058e-05
-0.000119007
0.0001291
-8.53586e-06
-0.000127564
0.000124821
2.74345e-06
-0.00012692
-6.44003e-07
3.5111e-06
-0.000112319
0.000108808
0.000129393
-2.57601e-08
0.000128749
6.44003e-07
-0.000129238
0.000127538
1.70017e-06
-0.000127822
-1.41681e-06
0.000129148
-0.000128427
-7.21283e-07
0.000128144
1.00464e-06
0.000128399
-0.000130842
2.40375e-06
-0.000139066
1.33437e-05
0.000125722
0.000149254
-9.7927e-05
-5.1327e-05
0.000123223
-1.55462e-05
-0.000107677
-0.000128749
-1.27512e-06
0.000128723
2.57601e-08
2.96241e-07
-1.28801e-08
0.000114912
-0.000114828
0.000121439
-0.000126555
5.1596e-06
0.000122219
-0.000132446
1.02268e-05
0.000142647
-2.04278e-05
0.000127422
7.21283e-07
-3.99282e-07
-0.000128672
2.38281e-05
0.000104844
0.000127216
-0.000127216
8.71427e-18
2.96241e-07
-5.93101e-06
0.000116859
-0.000110883
-1.13988e-05
-0.000127667
0.00010259
2.64814e-05
-0.000129071
-0.00013407
1.66196e-05
0.000126328
-0.000126328
-2.64003e-17
-6.11802e-06
-0.000112905
0.000134998
-2.40556e-05
0.000126121
1.41681e-06
-1.0948e-06
-7.45111e-05
0.000142299
-6.77877e-05
0.000123764
-0.000123764
2.64274e-18
0.000141925
-1.81609e-05
0.000120274
2.16514e-05
0.000141165
-2.08914e-05
0.000122362
-3.62332e-06
-0.000118754
-0.000103256
0.000122563
-2.10995e-05
-0.000132284
0.000133571
-1.31465e-06
-0.000134336
5.79136e-05
7.66344e-05
0.000122837
-0.000122837
7.2235e-18
0.000140715
-1.78775e-05
0.000121248
-2.15548e-08
-0.000121356
-7.42923e-05
-4.19116e-05
0.000116204
7.62885e-05
5.11724e-05
-0.000127461
0.000134029
-7.10268e-05
-6.31909e-05
-1.4387e-05
-0.000114285
5.00648e-05
-0.000124576
-0.00010722
0.000110731
0.000124177
6.44003e-07
-2.15097e-06
0.000149018
-0.000149604
-1.56443e-05
-0.00011781
-0.000124235
1.02834e-05
-5.08504e-05
0.00013005
0.000118329
2.23855e-05
0.000139723
-2.13938e-05
0.000122093
-1.39339e-05
-0.000108091
0.000130308
-0.000127629
-2.67894e-06
9.49904e-05
5.42637e-05
0.000114195
-0.000117453
3.25865e-06
-2.75633e-06
0.000116951
-0.000123172
1.13344e-05
0.000111837
0.000122219
2.04278e-05
-1.54561e-06
0.000117028
-0.00013922
2.21923e-05
0.000104177
1.81241e-05
0.000130526
-1.34983e-05
-7.90835e-05
-4.88412e-05
0.000127925
-0.000119643
0.000121176
-1.53273e-06
0.000116062
-0.000131454
1.53917e-05
0.000117015
-9.53124e-07
-8.51445e-05
-4.13817e-05
-6.33698e-06
-0.000102332
0.000108669
-7.06728e-05
0.000138937
-6.82643e-05
0.000145944
-4.33542e-05
-0.000129535
9.89188e-06
0.000120274
2.08914e-05
6.93591e-05
5.25892e-05
-0.000121948
-2.56313e-06
-0.000118393
-1.11412e-05
3.12985e-07
-0.000105998
0.000105685
0.000124896
-3.59087e-06
6.78907e-05
5.99309e-05
-0.000127822
5.42637e-05
-0.000124936
-0.000119437
1.04328e-06
0.000128697
-0.000128697
0.000130083
-8.83852e-06
2.09743e-05
-0.000136942
0.000115953
4.30065e-05
-0.00012209
-0.000123914
-1.02537e-05
0.000113898
-0.000132806
1.89079e-05
0.000116461
-2.56313e-06
7.21315e-06
0.000106547
-0.000116217
-6.44329e-06
0.000109003
-0.000102586
0.000118329
2.13938e-05
-2.08914e-05
-0.000104951
0.000105263
7.50907e-06
-0.000120995
0.000113486
-0.000114219
3.31696e-05
-7.92224e-06
0.00011781
-0.000109445
4.38051e-05
-0.000118097
-0.000110675
-3.62531e-06
0.000114179
0.000118258
-0.000121588
2.94201e-06
-0.000123584
0.000106557
1.70274e-05
-4.03733e-06
-0.000129356
0.000113757
1.67698e-05
-5.28082e-06
0.000119037
-0.000132909
0.000132909
-0.000113971
3.19723e-06
-3.61028e-05
0.000112391
0.000152599
-9.01648e-05
-6.13983e-05
-0.000133692
5.33612e-05
8.03142e-05
0.000122695
-5.92482e-07
-0.000122103
0.000111966
-0.000130655
1.8689e-05
0.000115676
-3.70945e-06
0.000124355
-1.70017e-06
0.000113151
-0.000111451
0.000115714
6.98099e-06
7.79758e-05
-0.000123726
4.57499e-05
0.000112803
-0.000136142
2.33387e-05
0.00013506
-2.22567e-05
-1.75292e-06
0.000119997
-7.74477e-05
0.000146176
-6.87279e-05
-9.64845e-05
-2.09687e-05
0.000108862
-0.000129354
2.04922e-05
0.000113267
-4.40498e-06
0.000119549
-0.00012781
8.52578e-06
-0.000121729
2.52449e-05
-3.11677e-05
-0.000102558
0.00011149
-0.000134532
2.30424e-05
-1.99641e-05
-0.000115152
0.000109292
8.53561e-05
-9.16931e-05
-0.000104957
0.000109688
0.00013676
-0.000136761
0.000115405
3.09121e-07
-2.07369e-05
0.000120533
-0.000127742
7.38334e-06
-0.000127759
3.8938e-06
7.33731e-05
7.92002e-05
-0.000128981
2.04664e-05
0.000108514
0.000109532
-0.00013318
2.36478e-05
-0.000111333
0.0001326
-2.30682e-05
-0.000123328
-1.85104e-06
0.00010654
-4.85295e-05
-4.07654e-05
0.000118741
-1.86503e-05
0.000141874
0.00011149
2.35705e-05
-0.000111593
0.000109893
-2.30424e-05
0.000115893
-0.000115884
6.9694e-05
-0.000121472
5.17778e-05
0.000108231
-0.000132059
2.38281e-05
0.000131608
-2.33773e-05
-1.9261e-05
-0.000111906
0.0001165
9.7502e-06
-0.00012625
-2.19053e-05
-0.000115062
1.48041e-05
-0.000110896
9.60733e-05
-7.75237e-05
0.000124876
-4.7279e-05
-0.000115611
4.17314e-06
0.000111438
5.15484e-06
0.000116978
-0.000111951
0.000104521
0.000112939
0.000124302
-3.46287e-06
0.000106917
-0.000131067
2.41501e-05
-2.58889e-05
7.08403e-07
-0.000112623
0.000111915
0.000110485
6.53019e-06
-2.26946e-05
4.86575e-05
8.55665e-05
0.000110665
4.89442e-07
-0.000111155
1.14632e-06
0.000109519
8.73279e-06
0.000121575
-4.74372e-05
-6.04976e-05
0.000107935
-0.000139185
8.00676e-05
5.79129e-05
7.39959e-05
-0.000121433
3.73521e-07
0.000112494
-0.000112868
-0.000112533
0.000112907
0.000101249
-0.000107614
-0.000118999
0.000123752
-4.75274e-06
0.000101662
-0.000122038
2.03762e-05
0.000110034
-8.37203e-06
-1.01997e-05
-9.90038e-05
0.000109204
6.70149e-05
4.77592e-05
-0.000114774
0.000108231
2.43691e-05
-2.38281e-05
1.68857e-05
-0.000117955
0.00010107
-0.000119564
-6.22839e-06
0.000120702
3.63649e-06
0.00010496
-0.000130024
2.50646e-05
0.000129135
-2.41759e-05
7.52581e-05
-0.000120329
4.50712e-05
0.000113757
-0.000106248
0.00011819
-0.000121868
0.000112688
3.81249e-06
-3.99281e-07
0.000121575
3.31782e-05
-0.000110721
-0.00011717
-1.82897e-06
0.000123923
-4.19728e-06
-7.07244e-05
-4.37664e-05
0.000114491
0.000103646
-0.000128582
2.49358e-05
0.000129418
-1.70919e-05
-0.000132982
-2.70095e-05
0.000101181
-8.64483e-05
0.000106917
2.46911e-05
-2.41501e-05
-7.9573e-05
-5.19581e-05
0.000131531
0.000128131
-0.000126392
-1.73881e-06
-1.4928e-05
0.00012844
-0.000113512
9.96529e-05
-0.000119823
2.01702e-05
0.000109094
-9.44108e-06
0.000106591
-0.000106914
4.94069e-07
-4.67546e-06
-0.000118909
-0.000132033
2.02474e-05
0.000111786
-2.36864e-05
-0.000108347
-1.65895e-05
-0.00011632
-4.73986e-05
0.000116758
-0.000146111
7.8388e-05
6.77233e-05
-0.000122142
0.000105719
1.64221e-05
0.000106175
4.40184e-07
0.000115903
-0.000110025
-5.84356e-06
-0.000138641
0.000122051
-0.000119359
-7.72803e-08
-0.000117453
0.000119372
-1.91913e-06
-7.14972e-05
-7.46141e-05
6.97841e-05
-0.000124885
5.51009e-05
-6.6979e-07
-0.000126959
-4.22466e-06
-0.000124756
0.000121094
-6.15896e-07
-0.000122811
5.3581e-06
0.000101688
-0.00012777
2.60821e-05
-2.76663e-05
0.000112476
3.31661e-06
9.79399e-05
-0.000117865
1.99254e-05
-0.000125439
2.62753e-06
0.000108231
-1.02912e-05
0.000107523
8.93875e-06
-2.25014e-05
0.000128388
-0.000122805
-5.15121e-06
-2.97529e-06
0.000114697
-0.000111722
0.00012522
-0.00012522
-0.000156441
7.35451e-05
8.2896e-05
-7.09176e-05
0.00012267
-5.1752e-05
-0.000111388
-3.8641e-06
0.000118316
-0.000125013
-2.76744e-06
-7.10246e-05
-4.55499e-05
0.000116543
6.89211e-05
4.26587e-05
-0.00011158
8.4336e-05
-9.45357e-05
3.97994e-06
0.000119604
-0.000123584
0.000103646
2.54896e-05
9.97302e-05
-0.000126418
2.66875e-05
-2.49358e-05
-0.000132497
0.000117569
-0.000118857
0.000118857
8.10026e-05
4.77979e-05
0.000125207
-2.54767e-05
-2.09816e-05
-0.000117659
0.000102378
7.4086e-05
-0.000121679
4.75931e-05
-3.69699e-06
-0.000113733
0.000115766
-1.16309e-06
0.000118691
-0.000116989
9.57374e-05
-0.000116075
2.03376e-05
0.000107329
-1.1592e-05
0.000128028
-0.000129097
-0.000107703
0.000111683
-7.6544e-05
-6.34847e-05
-6.45808e-05
0.000114736
-4.89231e-05
-0.000125584
2.707e-06
0.000121354
-0.000125738
4.23922e-06
-6.45935e-05
0.000131608
0.000123755
1.31877e-06
0.000123348
4.10439e-07
-0.00014861
7.36996e-05
7.49104e-05
3.6296e-05
0.000106003
0.000122872
3.52619e-07
7.32229e-05
-0.000107066
3.37431e-05
0.000124099
4.34058e-06
0.000109678
-3.64335e-05
3.31146e-05
9.84165e-05
-0.000124627
2.62109e-05
0.000118195
0.000124228
-2.58116e-05
0.000134452
-2.19991e-05
-0.000109573
-0.000109728
-1.40762e-06
0.000111293
-0.000140341
8.15951e-05
5.87459e-05
0.000105397
1.02783e-05
-2.23726e-05
-4.30194e-05
0.000118278
0.000130378
-0.000130463
-0.000107381
0.00010787
0.000112572
-0.000111425
-7.23189e-05
0.000121493
-4.9064e-05
-2.09945e-06
-0.000121072
9.71156e-05
-0.000123636
2.652e-05
-0.00011565
0.000118522
-2.87225e-06
0.000123236
-2.61207e-05
-0.00012488
0.000126236
0.000119408
3.32457e-06
2.85937e-06
-0.000114607
0.000111747
-0.000107492
0.000102068
-0.0001044
-8.6745e-06
0.00011009
-0.000120506
4.85578e-06
-0.000106041
-4.07138e-05
0.000100761
-0.000116307
0.000130688
-1.38232e-05
0.000121908
-5.02926e-07
-0.000118316
-2.18961e-06
0.00012182
-0.00012182
9.58018e-05
-0.000122644
2.6842e-05
0.000122257
-2.64556e-05
9.18734e-05
-0.000111722
1.98482e-05
0.000104702
-1.28285e-05
-7.05054e-05
-6.98356e-05
-0.000124473
4.70251e-05
-0.000116732
-1.58425e-06
6.6037e-05
6.762e-05
0.000122818
5.45178e-06
0.000104135
9.13196e-06
-2.22825e-05
-0.000117105
0.00010742
9.6858e-06
0.000133124
-0.000128028
-0.000102899
0.000114233
0.000106571
-0.000114558
7.76949e-06
0.000112919
-4.66258e-06
-0.000108257
9.45009e-05
-0.000121665
2.7164e-05
0.000121266
-2.67647e-05
-4.21178e-06
-0.00011793
-0.000118625
0.000125272
-4.63108e-06
7.21283e-07
-0.000116333
0.000133368
-2.38265e-05
-5.52683e-05
0.000123159
5.43583e-07
-0.000134294
2.19747e-05
-0.000112966
-1.26071e-05
0.000114323
-5.2293e-06
-0.000109094
9.84165e-05
2.67905e-05
0.000119604
-4.99102e-05
-2.62109e-05
-0.000121034
0.000109893
1.11412e-05
5.88105e-06
-0.000119258
-0.000154818
9.04051e-05
6.44131e-05
-0.000114568
3.79961e-06
0.000110768
-7.01705e-05
-8.46477e-05
4.2633e-06
0.000108708
-0.000112971
-0.000115199
5.33234e-06
0.000109867
-7.99851e-06
-0.000107201
-0.000119836
0.000111837
9.31872e-05
-0.00012066
2.74731e-05
-0.000115508
2.96241e-06
0.000112546
0.000115199
-4.93306e-06
-0.000110266
-3.92842e-06
0.00011462
-0.000110691
0.000111271
0.000120274
-2.70867e-05
0.000116449
-5.04898e-06
-0.0001114
0.000120209
-7.56209e-07
-0.00012655
-1.29573e-05
-0.00011954
-5.13914e-06
0.000116191
-0.000111052
6.72081e-05
4.47195e-05
-0.000111928
-0.000118587
4.78623e-05
-6.08105e-05
-6.46073e-05
-0.000137941
3.2121e-05
9.71156e-05
2.71125e-05
5.09043e-06
-0.000112818
-2.652e-05
5.66722e-06
0.000107252
-0.000108437
8.05003e-06
0.000100387
9.18863e-05
-0.000119681
2.77951e-05
-5.92216e-06
0.000121874
0.000115315
-4.55954e-06
-0.000110756
-0.000119838
-6.16363e-06
0.000119269
-2.7383e-05
-7.42568e-05
0.000113032
-3.89777e-05
0.000128041
-1.14632e-05
-0.000116577
0.000131369
-2.46245e-05
-0.000121856
0.000119073
2.87454e-06
0.000121843
-0.000121692
-0.000124408
7.36739e-06
0.000117041
2.20348e-06
0.000112355
-0.000114362
-6.56754e-05
0.000118265
8.72881e-05
-0.000106995
1.97065e-05
-1.52242e-05
0.000102512
1.04296e-05
0.000119952
9.48517e-07
0.000112197
-0.000113127
-1.11541e-05
9.93052e-05
-8.81511e-05
0.000135601
-8.01783e-05
-5.54229e-05
2.53737e-06
-0.00011498
0.000112443
2.46009e-06
-0.000119192
0.000118329
-0.000118329
-0.000111451
0.000112868
-1.41681e-06
0.000112539
-0.000115844
3.37546e-06
-0.000102989
0.000103697
-8.12057e-06
0.00012198
-0.000113119
-2.33143e-06
-0.000112934
0.000115228
5.89804e-05
6.62952e-05
-0.000125327
-1.27512e-06
0.000120647
-0.000116667
-1.49409e-06
0.000118162
-0.000121569
-6.46493e-08
0.000112197
-0.000114634
0.000105372
3.35654e-05
9.05725e-05
-0.000118677
2.81043e-05
-5.06444e-05
-5.66593e-05
0.000107304
9.58018e-05
2.74345e-05
-0.000134558
8.39135e-05
0.000115016
-4.09302e-05
-3.1466e-05
-2.6842e-05
-0.000141745
8.08867e-05
6.08582e-05
-6.57954e-05
0.000125239
-5.92446e-05
6.48987e-05
6.23807e-05
-0.000127279
-7.11494e-05
0.000121214
-0.000117131
0.000111374
5.75738e-06
-0.000118097
9.66004e-07
-0.000116618
3.91369e-06
0.00011281
4.05756e-06
0.000118954
-0.000108978
-3.09121e-06
0.000112069
-0.000101649
9.04952e-05
7.83434e-05
-0.000100883
0.000109027
-0.000121224
-3.59337e-06
0.000113631
-0.000109956
4.80704e-05
-0.000111483
-7.48073e-05
-6.69376e-05
-2.18261e-06
0.000115359
-0.000112936
-0.000121571
-6.28636e-06
-0.000144179
8.36817e-05
-2.92377e-06
-0.000121485
0.000125486
-0.00012689
-0.000100387
0.000120854
-0.000115502
0.000114926
-7.12745e-06
0.000119579
-0.000112427
-2.45623e-05
-9.42948e-05
6.91354e-05
-0.00014027
-3.45057e-05
0.000115508
-0.000111561
-1.91412e-06
0.000113511
1.75915e-06
8.62467e-05
-8.88767e-05
-1.96621e-07
-0.000113447
0.000113497
9.45009e-05
2.77565e-05
0.000113551
-1.9485e-06
-0.000111803
0.000114697
-6.18242e-07
-0.000114079
1.66131e-06
0.000111799
0.000112957
-0.000111286
-2.7164e-05
-0.000112868
-2.64041e-06
1.34027e-06
0.000111768
-0.000124022
0.000128195
-0.000112791
0.000113628
-8.37203e-07
-2.17469e-07
0.000112357
0.000110163
4.4565e-06
-0.000113138
3.47761e-07
-6.06833e-05
-4.87671e-05
0.000109322
-0.000135295
2.9297e-05
8.76887e-05
-8.71144e-05
-2.92731e-06
8.78162e-05
-0.000118329
3.05128e-05
0.000124892
-0.000120682
-4.47082e-06
-2.01251e-06
0.000122959
0.000116384
-2.8568e-05
4.26538e-05
-0.000113729
8.84215e-05
-0.000104006
1.55849e-05
-1.67569e-05
0.000105178
-0.000117415
0.000108154
9.26076e-06
0.000107149
-9.46684e-06
-0.000116925
0.00012133
-6.13992e-05
-4.04618e-05
9.38151e-05
-0.000116899
0.000112675
-3.14569e-06
-0.000111761
-7.20381e-05
-7.65719e-05
-9.6868e-05
1.08482e-06
9.57121e-05
-0.000113434
0.000110787
-5.27518e-07
0.000114299
-0.000113761
-4.03802e-06
-0.000106542
0.000111943
-1.49231e-06
0.000115401
-0.000113807
0.000136825
-6.68861e-05
-6.99387e-05
5.84754e-06
0.000108476
9.31872e-05
2.80785e-05
-0.00012268
1.0319e-05
0.000112436
-0.000114699
4.89872e-06
-2.74731e-05
8.70305e-05
-0.00011592
2.889e-05
-3.27926e-05
8.72881e-05
-0.000102706
1.54174e-05
-0.000110099
0.000107123
-0.000109455
-5.11338e-06
-1.74267e-05
0.000104715
4.93484e-06
5.15073e-05
8.40938e-05
0.000122592
-0.000120055
0.000115792
-1.0948e-06
-0.000119926
4.90086e-05
0.000112633
-3.6458e-07
-0.000112449
-0.000113579
0.000127937
0.000106466
-8.95807e-05
1.08192e-06
-0.000108463
-2.49893e-06
-0.000112577
0.000115173
-3.10409e-06
0.000121626
6.60489e-05
6.18114e-05
-0.00012786
7.75541e-05
6.40689e-05
-0.000141774
-0.000103297
-2.28379e-06
0.000104803
4.91915e-06
-0.000117973
0.000113092
7.48331e-06
0.000117737
-0.000117852
0.000118027
-0.000113098
0.000116436
-0.000118033
1.59713e-06
4.71593e-06
0.00011335
-9.69536e-07
0.000112585
-0.000111631
0.000119428
-0.000114617
-0.000123095
-6.88382e-05
0.000123884
-5.50333e-05
-6.91897e-05
0.000125741
-5.65496e-05
-0.000138293
3.7906e-05
0.000112517
-0.000114573
9.27271e-06
-0.000121738
0.000113324
-1.29445e-05
0.000124511
-0.000111567
0.000127319
-7.95601e-05
9.18863e-05
2.83876e-05
-0.000110704
3.43897e-06
0.000107265
8.03071e-05
-0.000135215
5.49077e-05
0.000119188
5.77342e-06
-0.000116667
-0.000137456
7.9895e-05
5.75609e-05
-2.77951e-05
0.000110446
-0.000107587
-0.000116655
-1.30089e-06
-0.000109659
0.000113155
-3.49565e-06
2.73315e-06
-0.000112393
-0.000116124
0.000104759
1.15461e-05
-0.000116548
0.000116666
-1.18496e-07
-0.00011488
-1.66797e-06
8.56266e-05
-0.000116577
3.09508e-05
-0.000121262
-2.44389e-07
0.000114658
-2.90316e-05
-0.000126508
8.45962e-05
-0.000118213
0.000114696
3.51752e-06
-0.000118677
4.63748e-07
-0.000114844
0.000114908
-6.38274e-08
-0.000115148
3.03414e-07
-0.000117955
-0.000114337
0.00011493
-7.55617e-07
-0.000117221
8.82283e-06
0.000108399
0.000114075
-0.000114726
-9.68879e-05
-2.50463e-08
-0.000117067
4.44362e-06
0.000112623
-0.000110073
-3.00105e-06
0.000113074
9.09074e-05
-1.0665e-06
0.000110968
-0.000110228
-0.000112971
-2.44721e-06
0.000115418
-0.000114542
2.40857e-06
0.000112134
-6.73884e-05
-8.90527e-05
4.04322e-06
0.000119823
-5.0039e-05
0.00011767
4.61083e-06
0.000110137
1.71305e-06
-0.00011185
9.01604e-07
0.00011301
-0.000113911
-0.000109543
0.000118329
-4.94079e-05
0.000116461
-5.51266e-06
-0.000110949
-0.000115663
1.70017e-06
0.000113963
9.05725e-05
2.86968e-05
-0.000114003
5.66722e-07
0.000113436
0.000108862
1.88049e-06
-0.000110743
-2.81043e-05
0.000119664
-1.86721e-06
-0.00011312
-1.08695e-06
0.0001142
6.99387e-06
2.18963e-06
-0.000115241
-0.000111556
0.000113794
2.2268e-06
-0.000113684
-0.000112386
0.000114667
0.000115431
-3.77385e-06
-0.000111657
8.4725e-05
-0.000114323
2.95984e-05
-3.31404e-05
0.000123759
-0.000123797
-0.000125881
0.00012257
2.21051e-06
-0.000114066
2.17673e-06
0.000111889
-6.81226e-05
-7.60567e-05
-0.000109036
9.51909e-05
0.00011471
-0.000114001
-7.08403e-07
-0.000113818
4.27709e-06
-0.000117743
4.55604e-05
-0.000113201
2.5522e-07
-0.000110898
0.000109424
-1.33719e-06
0.000110347
-0.000109069
-0.000115869
4.28906e-06
0.00011158
0.000127679
-0.000139416
0.000121098
-0.000115251
0.00011149
-0.000116539
-0.000117965
0.000121772
-5.32565e-07
0.000116665
-4.50638e-06
-0.000111803
0.000113035
-0.000118174
0.000115096
0.000118939
-0.000119238
-0.000116495
0.000116475
-2.53049e-07
-0.000114883
-1.87135e-06
-0.000121108
0.000116253
4.49721e-06
-0.000116978
-4.51065e-06
-0.000122016
0.00011626
5.74357e-06
-0.000116883
-5.1405e-06
-0.000122207
0.000116279
5.85859e-06
-0.000116912
-5.33667e-06
0.000140214
-9.17248e-05
-4.93944e-06
-0.000110025
0.000114707
-0.00012246
0.000116313
6.11265e-06
-0.000125065
6.72621e-05
5.79327e-05
-0.00011694
-5.57316e-06
-0.000122666
0.000116398
6.30069e-06
0.000115998
0.000123597
-0.000108656
-1.49409e-05
9.07013e-05
1.32407e-05
-0.000103942
-0.000116994
-5.65682e-06
0.000116822
-0.000122898
0.000116492
6.36341e-06
0.000119359
5.15202e-06
-0.00011712
-5.78378e-06
-0.000135919
3.09688e-05
-0.000110923
-2.69312e-06
0.000113644
-0.00012295
0.000116532
6.37959e-06
-6.78779e-05
-5.24604e-05
0.000120338
-0.000117157
-5.83173e-06
0.000100957
-0.000103455
2.42639e-06
4.30194e-06
-0.000110859
0.000106557
-0.000122967
0.000116573
6.41977e-06
-0.000112301
-5.79602e-06
-0.000117179
-5.7951e-06
1.05616e-06
-0.000113357
-0.000105592
-9.4139e-06
5.3478e-05
-0.000121356
-0.000116581
-5.23376e-06
0.00010183
-1.11284e-05
-0.000110987
0.000116114
-5.12626e-06
-0.00011328
2.29265e-06
-0.000123106
0.000116688
6.44902e-06
-0.000117271
-5.79749e-06
-4.7785e-06
0.000112404
-0.000107626
-3.66559e-06
0.000114749
-0.000110934
-0.000122627
0.00011617
6.42761e-06
-0.000117413
-5.21281e-06
0.000116449
-0.000118997
2.79137e-06
-2.62753e-06
0.000124447
-0.000123095
-0.000123151
0.000116864
6.29612e-06
8.53819e-05
-0.00011592
3.05386e-05
-0.000117439
-5.71154e-06
3.14273e-06
-0.000110743
0.0001076
9.6536e-05
1.34983e-05
-0.000123173
0.000116965
6.23098e-06
0.000113415
-7.8475e-06
-0.00010549
-0.000117514
-5.57809e-06
0.000113911
-2.85293e-05
-2.1793e-05
2.67905e-06
-0.000110717
0.000108038
0.000112546
-0.000115611
3.06545e-06
-1.28801e-08
0.000112559
-0.000123113
0.000117035
6.10759e-06
-0.000117584
-5.50852e-06
-0.000113698
9.5751e-05
1.61798e-05
3.81249e-06
-0.00011091
0.000107098
4.59818e-06
-0.000111786
0.000107188
-0.000122382
0.000116435
5.96699e-06
2.27422e-06
-0.000112656
0.000110421
-0.000117663
-4.75089e-06
-7.06629e-06
0.00011426
-0.00011632
-3.51625e-06
-0.000122253
0.000116562
5.76665e-06
-0.000117736
-4.49393e-06
-0.000114066
0.000114735
-6.69763e-07
-0.000113847
0.000115998
-2.15097e-06
-4.37922e-07
5.64729e-05
-0.000119678
-3.22001e-07
-0.000113525
-0.000111198
0.000120793
0.000117917
-0.000117461
-4.50136e-07
-6.282e-05
-6.35917e-05
0.000114285
-0.000122712
0.000117226
5.48419e-06
7.08403e-07
0.000111541
-0.00011225
-0.000117829
-4.87783e-06
-3.73521e-07
-0.00011185
0.000112224
-4.43074e-06
0.000111103
-0.000106673
1.06265e-05
-0.000121675
-0.000111807
0.000121943
-0.00012252
0.000117311
5.3106e-06
-0.000117834
-4.63533e-06
-0.000115818
3.04108e-06
0.000112983
-0.000109959
-3.69271e-06
0.000112259
-0.000121845
0.000116735
5.14638e-06
-0.000111321
-0.000117965
-3.87646e-06
-0.000118149
0.000120068
-1.91913e-06
-1.31911e-06
-0.000120237
-0.000122225
0.000117449
4.80622e-06
-0.00011805
-4.20548e-06
-0.000114877
2.25401e-06
-3.93666e-06
-0.000121858
0.000117362
4.52853e-06
-0.000118015
-3.9091e-06
-4.86472e-05
-6.72429e-05
6.44003e-08
0.000112147
-0.000112211
-0.000113061
0.000113125
0.000111941
-0.000110859
-0.000121843
0.000117478
4.40616e-06
-0.000116308
3.36718e-06
0.000112917
-0.000118087
-3.67058e-06
1.32337e-06
0.00011066
-0.000111457
-0.000121173
0.000128889
-0.00011691
3.60125e-06
0.000113539
-8.32225e-06
-0.000121826
0.000117725
4.18961e-06
-0.000118106
-3.47035e-06
0.00011381
4.10396e-06
-0.000121351
0.000117502
3.88438e-06
-0.000118189
-3.28982e-06
4.24364e-07
-0.000118075
0.000110896
-0.000116825
0.000118633
-1.80836e-06
-7.87494e-05
-4.31368e-05
0.000121325
-7.38703e-06
8.32051e-05
-0.000113499
3.02939e-05
5.8089e-06
-0.00012303
0.000103931
-2.13236e-06
-9.96076e-05
-3.28699e-05
-0.000112128
6.42867e-06
0.00010814
-5.97225e-06
-0.000118449
-6.72983e-05
-6.35888e-05
0.000130887
-0.000115862
0.00011653
-6.67851e-07
-0.000117471
6.46578e-07
-9.54012e-07
8.66827e-05
2.97014e-05
0.000112301
-0.000111593
-0.000116769
0.000117449
-6.80067e-07
0.000111928
9.45267e-05
3.07833e-06
-9.7605e-05
-1.0304e-07
-2.92377e-05
0.000102384
-7.85683e-06
0.000117974
6.59461e-07
-7.0325e-07
-1.58471e-06
0.000115504
-4.50923e-06
-0.000110992
0.00011802
-1.58425e-06
-1.50818e-06
0.000120466
6.39989e-05
7.61995e-05
-0.000133566
7.82205e-05
5.53456e-05
-8.55107e-05
-5.27824e-05
-1.45673e-05
0.00011717
-3.58598e-07
-0.000114198
-0.000119836
-0.000128116
6.73191e-05
-0.000110047
0.000110949
0.000111124
-0.000113189
-5.69162e-07
-0.000111767
-1.78539e-06
0.000113547
0.000125787
-4.84939e-05
-0.000111902
-9.8994e-07
0.000112873
6.6658e-06
-0.000113125
0.000107309
-0.000112675
1.2236e-06
-0.000113827
3.95786e-05
0.000121266
-9.47843e-05
-3.79513e-06
0.000113512
-0.000109705
-3.25449e-06
-0.000111331
0.000114515
7.24632e-05
-0.0001237
5.12368e-05
0.000108592
-0.00011337
0.000115959
-0.000102615
-0.000151147
8.93489e-05
6.17985e-05
-0.000112303
-1.34467e-06
0.000113701
1.00614e-06
-0.000112721
-0.000129756
6.50057e-05
9.85581e-05
6.16954e-06
-0.000104728
0.000107703
-9.14484e-06
-5.70586e-06
2.27174e-06
-0.000120686
8.23035e-06
2.36377e-06
-0.000114285
0.000114184
-0.000116206
2.12243e-06
0.00011198
-0.000111022
3.67607e-05
-0.000116748
0.000113571
-1.46587e-06
-0.000116228
0.000118434
-2.05188e-06
0.000120848
-0.000123781
-0.000116938
-1.0948e-06
1.2988e-06
-0.000113581
-6.458e-05
0.000101995
-3.38886e-05
2.03374e-06
-0.000115056
0.000112974
9.25432e-05
1.31763e-05
-0.000105719
0.000112193
-0.00011342
8.10928e-05
-0.000112971
3.18781e-05
0.000103646
-1.11026e-05
-1.25787e-06
-0.000110152
0.000111838
-0.000113231
0.00010904
-0.000112434
0.000110704
-2.96112e-05
-4.06587e-06
-0.000105081
0.000110025
-0.000114244
0.00011071
-6.69763e-05
0.000130733
-6.37562e-05
-0.000121939
0.000117602
4.3235e-06
-5.80347e-06
0.000109571
-0.000114641
-6.86378e-05
-6.88181e-05
0.000107567
-0.000110736
-4.00778e-06
0.000112212
0.000116011
-8.2896e-05
-6.57656e-05
0.000121988
-5.62609e-05
0.000112134
-0.000119187
-3.33626e-06
0.000118119
-7.04968e-06
-9.802e-05
3.41947e-05
-1.29227e-06
0.0001021
4.76562e-07
0.000117852
-0.000121433
5.6801e-06
0.000114465
-0.000120145
-0.000121727
0.000117888
3.89146e-06
-5.25466e-06
-0.000113869
-1.04887e-06
-3.3077e-06
0.000109238
-0.000105937
-0.000116899
9.48487e-05
1.42453e-05
-0.000121706
0.00011803
3.69232e-06
-0.000135649
2.84288e-05
0.000108883
-0.000112136
-5.02683e-06
-2.17286e-05
0.000113466
9.54695e-07
1.56599e-06
-0.000114452
0.000112729
0.000117427
-5.02193e-05
-0.000114522
-2.1145e-06
-0.000109134
0.000111547
0.000109627
-2.44441e-06
0.000115285
6.18713e-06
-0.000116951
0.000111325
-0.000121189
0.000118245
3.06506e-06
-0.000109725
7.47043e-07
0.00010948
-4.31795e-06
0.000125413
-8.27543e-05
-0.000109725
-5.15202e-06
0.000110205
-0.000112861
0.000113154
2.35563e-06
0.000117453
-2.13809e-06
7.86713e-05
-0.000109287
3.06159e-05
5.33865e-06
0.000107849
-0.000114609
-0.000115142
0.000111623
0.000126833
-0.000121587
0.00010939
-3.07189e-05
4.34053e-06
-0.000113638
0.000108893
-5.41488e-06
0.000114787
-0.00011131
7.59375e-06
0.000106264
-0.000111821
-0.000105284
0.000115003
0.000140779
-0.000111451
-2.93279e-05
8.12104e-06
-0.000111425
0.0001033
-0.000118336
0.000113926
-5.7262e-07
0.000111208
-0.000103094
5.04254e-05
9.03536e-05
0.000114769
2.07454e-06
4.33661e-06
-0.000114023
0.000109703
4.8486e-06
-0.000114922
0.00011043
9.41532e-06
0.000104367
-0.000113782
1.0304e-06
0.000111837
-0.000116148
-0.000119797
0.000105814
-0.000113292
0.000116226
3.4045e-06
1.94631e-06
0.000110437
-0.000112255
0.000127678
-0.000112205
0.000111663
-0.000118368
1.46833e-06
4.9702e-06
0.000116461
-2.70481e-07
4.46886e-06
-0.00011466
0.000108317
-0.000114817
-2.72086e-06
0.000107532
-0.000110976
-0.000111915
0.000106685
8.49439e-05
2.97143e-05
-0.000114916
0.000114156
7.59923e-07
0.000119865
-0.000117341
-2.45729e-06
0.000117816
2.02968e-06
-2.93794e-05
0.000111822
1.84434e-06
0.000119279
-0.00011725
-2.15142e-06
-0.00011889
0.000117507
1.47196e-06
0.000117559
1.65439e-06
1.02139e-05
0.000107767
-0.000117981
-9.84551e-05
0.000108669
1.18754e-05
-0.000110331
-0.000108721
0.000104058
-0.000117088
-1.74134e-06
5.79011e-07
8.90527e-05
-0.000102796
1.3743e-05
-3.35947e-07
0.000117083
0.000108789
-0.000109238
0.000112782
9.41145e-05
-5.06186e-06
-0.000116781
-8.0745e-05
0.000102706
-2.19605e-05
0.000121704
-8.55235e-06
0.000111915
-0.000102499
7.75121e-05
-0.000108283
3.07704e-05
0.000108502
-3.09894e-05
9.44199e-05
-9.80411e-05
0.000118882
-6.40903e-06
2.6374e-06
-0.00010879
0.000114518
-5.1599e-06
-0.000109891
0.000105635
-0.00011074
4.90097e-06
-0.000112586
-0.000113827
-1.32046e-06
8.68472e-07
0.000114333
-0.000110554
0.000112434
4.9073e-06
0.000104753
-0.000109661
0.000109274
8.37771e-06
-0.00012107
-0.000105331
-7.10351e-06
-3.40468e-06
-0.000108944
-0.000117624
1.0565e-06
7.08403e-07
0.000110884
-0.000111593
-0.000113539
-3.93228e-06
0.000119694
-0.000119694
3.91038e-06
-6.91401e-05
-8.20073e-05
-0.000113797
-1.08321e-06
-0.0001199
-6.41427e-07
-5.67237e-05
-7.68424e-05
5.53797e-06
-0.000121523
-0.00010499
-0.000117644
-2.1735e-06
0.000108181
-0.000111944
3.36246e-06
-0.000108208
-2.01955e-06
0.000110212
0.000107941
2.66431e-06
-0.000111058
-0.000119193
0.00012019
-0.000128877
0.000128897
-9.02028e-07
1.3099e-05
-9.3844e-05
-0.000112434
7.33159e-06
-0.000119479
2.2918e-06
-0.000119383
2.1786e-06
-0.000119192
2.07959e-06
-0.000119593
2.36183e-06
-2.98722e-06
-0.000118484
1.37817e-06
-0.00011885
5.8165e-05
-2.93492e-06
-0.000118839
1.8562e-06
-2.98914e-06
0.000115651
-2.75008e-06
0.000113105
-0.000118294
5.22359e-06
-0.000119767
2.36938e-06
-2.55789e-06
-0.000139787
7.82978e-05
6.14894e-05
-0.000118541
1.53443e-06
-3.02569e-06
-2.32837e-06
-0.000112314
0.000115444
-3.12985e-06
-0.000119722
2.28961e-06
0.000114876
-0.000123344
8.46116e-06
-0.000118235
1.287e-06
-1.99801e-06
-2.12745e-06
-0.000117862
8.64407e-07
0.000117836
-0.000114862
-2.9889e-06
-0.000119693
2.23731e-06
-1.72915e-06
-4.57242e-06
-0.000115784
-1.69791e-06
-2.81057e-06
-0.000117299
-8.50083e-07
-0.000119767
2.15942e-06
1.84862e-07
-0.00012634
5.93642e-05
0.000105372
-0.000110305
7.48717e-05
-0.000107098
3.22259e-05
-2.79232e-06
2.42145e-06
0.000114697
-2.20249e-06
-0.000112778
-3.60641e-07
-0.000119696
2.0018e-06
0.00011251
-0.000110204
2.94953e-06
-0.000112675
3.22001e-06
-1.1592e-06
-2.64745e-06
-3.68498e-05
3.43487e-06
0.000108197
-0.000111376
-0.000119536
1.81123e-06
1.70017e-06
-0.000108949
-1.02607e-06
0.000110159
-1.62501e-06
-0.000119475
1.60277e-06
-1.45255e-06
0.000134166
-0.000119205
1.40086e-06
-1.99774e-06
-0.000119185
1.25324e-06
1.32665e-06
-0.000115328
1.0098e-05
-0.000108025
-1.8034e-06
5.4869e-06
-0.000110949
0.000105462
-0.000119071
9.71978e-07
0.000124241
-6.44003e-07
-0.000105333
0.00011082
-0.00011404
-8.75843e-07
-7.82914e-07
-1.63089e-06
-0.000112599
0.000113919
-0.000110462
-1.34794e-06
0.000112031
-0.000118749
6.88692e-07
-1.29184e-06
-0.000118437
4.99583e-07
9.41918e-05
1.40393e-05
-1.0129e-06
-0.000108751
-2.22083e-06
0.000111074
-0.000118287
3.17198e-07
0.000113435
0.000117316
-2.85556e-06
-2.17286e-05
-7.76187e-07
-1.22774e-06
-0.000117804
-0.000115894
0.000115852
8.80461e-07
-0.000118411
6.59444e-08
-0.000118786
0.000117866
9.27143e-07
-0.000117403
-1.30619e-06
1.55591e-05
-0.000106518
9.09589e-05
-6.62836e-07
-0.000117908
5.25542e-07
-3.30337e-07
-5.54873e-05
-7.56574e-05
0.000131145
-2.60284e-06
-0.000109088
0.000112015
0.000107808
-0.000112034
3.1696e-06
-0.000117196
2.57601e-07
0.00010908
-0.000111369
-5.02322e-06
0.000111786
-0.000106763
2.1633e-06
-0.000111071
-2.34501e-06
0.000111402
1.88762e-06
0.000110143
-0.000112175
-7.0544e-05
0.000136593
-0.000107554
-0.000105157
0.000108718
-2.17307e-06
4.17314e-06
0.000109583
2.06081e-07
0.000112056
-0.000112263
-2.57601e-07
0.000112675
-0.000112417