/*--------------------------------*- C++ -*----------------------------------*\
  =========                 |
  \\      /  F ield         | OpenFOAM: The Open Source CFD Toolbox
   \\    /   O peration     | Website:  https://openfoam.org
    \\  /    A nd           | Version:  12
     \\/     M anipulation  |
\*---------------------------------------------------------------------------*/
FoamFile
{
    format      ascii;
    class       volVectorField;
    location    "0.48";
    object      U;
}
// * * * * * * * * * * * * * * * * * * * * * * * * * * * * * * * * * * * * * //

dimensions      [0 1 -1 0 0 0 0];

internalField   nonuniform List<vector> 
22702
(
(2 -3.31745e-13 0)
(2 -6.4331e-15 0)
(2.1114 -0.062889 0)
(2 -1.19324e-09 0)
(2.03533 0.0592234 0)
(2 1.49671e-13 0)
(1.84093 0.229032 0)
(2 7.35441e-14 0)
(2 -2.74708e-13 0)
(2.11383 -0.28491 0)
(1.83027 0.228771 0)
(1.84305 0.229809 0)
(2 3.86626e-13 0)
(2 4.55231e-12 0)
(2.12513 -0.0438489 0)
(2 3.87807e-13 0)
(2 3.10169e-13 0)
(2 -4.63179e-14 0)
(1.8299 0.228608 0)
(2 1.53147e-14 0)
(2.00003 0.000168183 0)
(2 -2.93606e-13 0)
(1.8687 0.23033 0)
(2.17501 -0.26847 0)
(2 -7.79852e-14 0)
(2.19948 -0.285366 0)
(2 8.93254e-14 0)
(1.87083 0.231124 0)
(2.1692 -0.269686 0)
(2.1842 -0.280732 0)
(2 3.04808e-14 0)
(1.84564 0.229934 0)
(2 3.74643e-15 0)
(2 1.52523e-14 0)
(2 7.77543e-14 0)
(1.94683 0.206889 0)
(2 -4.51258e-14 0)
(1.86891 0.230443 0)
(2 3.92339e-13 0)
(2 2.10736e-13 0)
(2.14545 -0.304073 0)
(2 -1.12444e-14 0)
(1.97725 0.156731 0)
(2 6.69475e-14 0)
(1.87027 0.23159 0)
(2 1.27768e-13 0)
(2 5.34022e-13 0)
(2 -7.24087e-14 0)
(2 4.98163e-14 0)
(2.16945 -0.268449 0)
(2 5.45069e-14 0)
(2.17064 -0.267584 0)
(2 3.69486e-14 0)
(1.83014 0.228715 0)
(2 -8.60339e-14 0)
(1.84721 0.230231 0)
(2 2.98236e-13 0)
(2 1.47575e-09 0)
(2 1.99057e-13 0)
(2 -9.64925e-14 0)
(2.22766 -0.273143 0)
(2 5.38576e-14 0)
(2 -2.04661e-13 0)
(2.18175 -0.270258 0)
(2 -4.7578e-14 0)
(2.19929 -0.276688 0)
(2 -2.46465e-13 0)
(2 2.04386e-14 0)
(2 2.97507e-15 0)
(2.0783 -0.281993 0)
(2 -2.47781e-13 0)
(1.87213 0.228011 0)
(1.96684 0.179469 0)
(2 1.39689e-09 0)
(1.8736 0.22806 0)
(1.86661 0.240802 0)
(2.19568 -0.276969 0)
(1.85434 0.230488 0)
(2.16512 -0.274511 0)
(2 -2.52922e-13 0)
(1.83069 0.22885 0)
(2.16531 -0.269587 0)
(1.86039 0.230479 0)
(1.86191 0.230493 0)
(2 -4.35863e-14 0)
(2 1.17849e-13 0)
(2 4.56347e-14 0)
(2 -5.00495e-14 0)
(2.09144 -0.0194881 0)
(2.09118 -0.284244 0)
(1.86772 0.232737 0)
(2 2.52401e-13 0)
(2 -1.44861e-13 0)
(2.16648 -0.264351 0)
(2 -6.76116e-15 0)
(1.99825 0.00231923 0)
(2.18253 -0.283331 0)
(2 2.26648e-08 0)
(2 -1.30949e-15 0)
(2 4.61594e-14 0)
(2 2.73364e-13 0)
(1.97972 0.156185 0)
(1.83017 0.228336 0)
(2.20756 -0.287297 0)
(2 7.4983e-12 0)
(2 -1.19376e-09 0)
(2.04077 0.102173 0)
(2 9.28593e-09 0)
(2.16425 -0.269304 0)
(2 -2.51103e-14 0)
(1.85511 0.230045 0)
(1.82922 0.228409 0)
(2 2.44302e-13 0)
(2 -4.9774e-14 0)
(2.22696 -0.28195 0)
(2.23839 -0.255779 0)
(2.0998 -0.282068 0)
(2 1.11034e-13 0)
(2 -9.55433e-14 0)
(2 1.45324e-16 0)
(2 4.2368e-14 0)
(2 1.22325e-07 0)
(2.10824 -0.0276344 0)
(2 -3.36147e-14 0)
(1.95256 0.20704 0)
(2.04363 0.0576119 0)
(1.86548 0.231082 0)
(2 -3.3148e-13 0)
(1.86558 0.231064 0)
(1.82981 0.228423 0)
(2 2.02814e-12 0)
(1.8314 0.2289 0)
(2 2.77074e-13 0)
(2.14499 -0.276505 0)
(2 2.98325e-14 0)
(2.26804 -0.268794 0)
(2 1.71243e-14 0)
(2 2.66543e-13 0)
(2 2.52075e-14 0)
(2 -6.38504e-15 0)
(1.82904 0.228389 0)
(2 4.37964e-14 0)
(2 1.53603e-13 0)
(2 -7.15169e-14 0)
(2 2.72808e-13 0)
(1.8755 0.229104 0)
(2 3.89706e-15 0)
(1.99559 0.0127359 0)
(2 5.10264e-14 0)
(2 1.27134e-13 0)
(2 1.90351e-13 0)
(2 -2.98034e-15 0)
(2.16903 -0.268729 0)
(2 4.49004e-14 0)
(1.99538 0.00904694 0)
(2 1.42012e-13 0)
(2.16497 -0.272244 0)
(2 -6.23257e-14 0)
(2 5.9493e-15 0)
(2 1.16097e-13 0)
(1.86742 0.232524 0)
(2 -4.35281e-14 0)
(1.86955 0.228683 0)
(2.26605 -0.272197 0)
(2.15714 -0.263609 0)
(1.87289 0.229448 0)
(1.87115 0.229065 0)
(2 1.75603e-14 0)
(2.02839 0.073249 0)
(1.96907 0.172468 0)
(2 2.16908e-13 0)
(1.85117 0.230702 0)
(2.16519 -0.276454 0)
(1.94147 0.205528 0)
(2 1.01901e-15 0)
(2 1.28657e-14 0)
(2 -8.31951e-14 0)
(2 1.85334e-13 0)
(2 5.28381e-12 0)
(1.86814 0.193317 0)
(2 1.86983e-13 0)
(1.82971 0.228463 0)
(2.20324 -0.279944 0)
(1.84957 0.230172 0)
(2 3.9256e-13 0)
(2.18797 -0.274433 0)
(2 -2.34113e-13 0)
(2.17255 -0.270123 0)
(2.17446 -0.272098 0)
(2 4.07323e-14 0)
(2 -7.24498e-14 0)
(2 -2.22309e-13 0)
(1.82899 0.229738 0)
(2 -1.9037e-14 0)
(2 -3.80278e-14 0)
(1.8797 0.22352 0)
(2 3.32062e-15 0)
(1.85821 0.229912 0)
(1.82964 0.22844 0)
(2.13746 -0.281361 0)
(2 1.07145e-14 0)
(2 3.77795e-14 0)
(2.16747 -0.264638 0)
(1.87677 0.222184 0)
(2 5.71303e-14 0)
(2 1.01824e-13 0)
(2 6.29706e-14 0)
(1.87684 0.221605 0)
(2 2.46547e-13 0)
(2.17107 -0.277878 0)
(2 9.28053e-14 0)
(2 1.8198e-13 0)
(1.8687 0.22205 0)
(1.86978 0.219429 0)
(1.85717 0.229983 0)
(2 -3.99064e-14 0)
(2 1.62648e-13 0)
(2 -7.43985e-14 0)
(2 -5.20132e-15 0)
(2 -2.18989e-13 0)
(2 -1.25146e-06 0)
(2 1.52896e-13 0)
(2.21529 -0.28119 0)
(1.86784 0.23799 0)
(1.8789 0.223345 0)
(2 9.25252e-13 0)
(2 1.90681e-07 0)
(2 1.70987e-15 0)
(2 -5.69886e-14 0)
(2.16565 -0.283852 0)
(1.85917 0.219012 0)
(1.91776 0.13244 0)
(2 1.65768e-14 0)
(1.94408 0.207971 0)
(2.20383 -0.277432 0)
(2.18959 -0.271667 0)
(1.94422 0.207368 0)
(1.85389 0.219368 0)
(2 -5.46466e-14 0)
(1.85301 0.218064 0)
(2.12688 -0.307966 0)
(1.95429 0.209699 0)
(2 -2.29108e-13 0)
(2 3.92672e-14 0)
(2 3.31814e-14 0)
(2 -2.86393e-13 0)
(1.87973 0.222372 0)
(2 -1.8964e-14 0)
(1.92683 0.118013 0)
(1.98994 0.019122 0)
(2 -3.14097e-13 0)
(2 2.35563e-13 0)
(1.88809 0.22268 0)
(2.28699 -0.281972 0)
(2.09052 -0.151175 0)
(2 -1.38619e-13 0)
(1.85708 0.217908 0)
(2.1605 -0.284319 0)
(1.85595 0.217659 0)
(2 1.05496e-14 0)
(2 3.80814e-14 0)
(2 -1.23702e-13 0)
(2 9.87889e-14 0)
(2 8.76307e-14 0)
(2 5.83227e-14 0)
(2 -8.5506e-15 0)
(2.16771 -0.279413 0)
(2.1156 -0.159305 0)
(2.19763 -0.276355 0)
(1.86159 0.220854 0)
(2 -1.13752e-14 0)
(2 3.32669e-14 0)
(2 -8.35891e-09 0)
(2 -5.67809e-14 0)
(1.88962 0.217837 0)
(2 3.91195e-08 0)
(2.16928 -0.277664 0)
(2 -1.15126e-13 0)
(2.16525 -0.293911 0)
(2.16473 -0.269175 0)
(1.86375 0.218098 0)
(2.18568 -0.274187 0)
(2.00001 6.52739e-05 0)
(2 4.03173e-14 0)
(2 -1.13183e-13 0)
(2 1.71813e-14 0)
(2.00058 -0.00110531 0)
(2.18391 -0.269296 0)
(2.12578 -0.302159 0)
(2 -7.50751e-08 0)
(2 -7.12075e-08 0)
(2.16676 -0.295335 0)
(2 1.44516e-09 0)
(1.82912 0.228449 0)
(2.1948 -0.290809 0)
(2 -8.63433e-14 0)
(2 -1.92566e-11 0)
(1.83157 0.228967 0)
(2.23498 -0.277057 0)
(2 4.51766e-14 0)
(1.86792 0.20356 0)
(2.16922 -0.275045 0)
(1.88851 0.222363 0)
(2 -3.88466e-13 0)
(2.15569 -0.295891 0)
(2.00072 -0.00122536 0)
(2 -2.42164e-14 0)
(2 2.82251e-06 0)
(2 1.85753e-15 0)
(2.17003 -0.266338 0)
(2 -9.59755e-14 0)
(2 1.20624e-14 0)
(2 -3.69496e-07 0)
(2 3.66895e-06 0)
(2.05164 0.0327725 0)
(1.97459 0.180017 0)
(2 -3.39318e-11 0)
(2.14116 -0.228286 0)
(2 -1.07303e-11 0)
(2 -1.14913e-13 0)
(2 4.94687e-14 0)
(2 -7.10651e-14 0)
(2 4.78652e-14 0)
(2 -2.66522e-14 0)
(2 4.83576e-13 0)
(1.83139 0.229015 0)
(2 5.80182e-13 0)
(1.82913 0.228873 0)
(2 7.46838e-14 0)
(2 -3.48686e-14 0)
(2 5.82753e-14 0)
(2.18488 -0.291527 0)
(2 -9.05827e-15 0)
(1.87563 0.228614 0)
(2.18299 -0.273255 0)
(2 2.22683e-13 0)
(2 -2.37722e-13 0)
(2 3.96753e-15 0)
(2 -2.49437e-13 0)
(1.83008 0.228344 0)
(2 -8.72046e-14 0)
(2 -1.04476e-08 0)
(2 8.86623e-14 0)
(1.86847 0.231733 0)
(2 3.9679e-10 0)
(2 2.14353e-14 0)
(1.83104 0.231093 0)
(1.82991 0.228625 0)
(2 4.733e-14 0)
(2.04356 0.094275 0)
(2 8.91545e-14 0)
(2 7.2934e-15 0)
(2.27774 -0.269519 0)
(2 3.07591e-14 0)
(2 -2.61133e-14 0)
(2 -5.45815e-14 0)
(2.17796 -0.278405 0)
(2 -7.5224e-14 0)
(2 -1.35365e-13 0)
(2 -1.08404e-14 0)
(2 7.23836e-15 0)
(2.21613 -0.240289 0)
(2 -1.95618e-14 0)
(2 1.27188e-13 0)
(2 1.2081e-14 0)
(2 2.44114e-15 0)
(2 2.82876e-13 0)
(2.15394 -0.305371 0)
(1.99999 2.23976e-05 0)
(1.87044 0.228521 0)
(2 -4.86579e-14 0)
(2.00002 -2.54216e-05 0)
(1.87137 0.228803 0)
(1.87273 0.229817 0)
(2 4.47732e-14 0)
(2 -1.31644e-14 0)
(2.13877 -0.276173 0)
(2.12626 -0.0996266 0)
(1.82952 0.22849 0)
(2 3.71584e-15 0)
(2 2.79632e-14 0)
(2 -5.96471e-14 0)
(1.88911 0.222448 0)
(2.07775 -0.284026 0)
(2 7.93594e-14 0)
(1.86985 0.228185 0)
(2 2.84015e-14 0)
(2 4.15019e-14 0)
(2.15047 -0.197431 0)
(2.17116 -0.199568 0)
(2 -5.24249e-14 0)
(2.18504 -0.273933 0)
(2.18626 -0.293639 0)
(2 -6.29748e-14 0)
(2 4.16135e-14 0)
(2 6.60647e-15 0)
(2 4.63764e-14 0)
(2 -1.02944e-10 0)
(2 2.1231e-13 0)
(2 1.70113e-13 0)
(1.86479 0.230989 0)
(2.03538 0.101401 0)
(1.85892 0.208899 0)
(2.1622 -0.294107 0)
(2.08513 -0.0424481 0)
(1.82951 0.228936 0)
(2 -5.1269e-12 0)
(1.87434 0.228903 0)
(1.82944 0.228666 0)
(2.21511 -0.277784 0)
(2.11154 -0.134214 0)
(2 -1.28276e-12 0)
(2.17447 -0.284054 0)
(2 -5.3044e-14 0)
(1.82259 0.236371 0)
(2 -2.29586e-13 0)
(2 3.82629e-15 0)
(2 1.81375e-13 0)
(2 4.86259e-14 0)
(1.87817 0.222327 0)
(2 7.11242e-14 0)
(2 1.30394e-13 0)
(2 8.99724e-14 0)
(2 2.82697e-10 0)
(2 -9.87032e-14 0)
(2 -7.39405e-14 0)
(2 -3.08554e-13 0)
(1.99357 0.123603 0)
(1.86781 0.231332 0)
(2 -1.82848e-13 0)
(1.86515 0.220575 0)
(2 -3.5133e-14 0)
(2 -1.98359e-14 0)
(2.16542 -0.270768 0)
(2 -7.84237e-14 0)
(2 2.58364e-13 0)
(2 -7.00774e-14 0)
(2 -1.06186e-13 0)
(1.87558 0.221328 0)
(1.9282 0.200335 0)
(2 -1.02795e-13 0)
(2 -1.68689e-14 0)
(2.18208 -0.272036 0)
(1.8788 0.22415 0)
(1.87101 0.222054 0)
(2 3.95143e-14 0)
(1.87036 0.222273 0)
(1.87988 0.223854 0)
(1.86891 0.219962 0)
(2 -5.1781e-14 0)
(2.1311 -0.0800661 0)
(2 1.16705e-13 0)
(1.88985 0.222648 0)
(2.06899 0.0227363 0)
(1.86732 0.220601 0)
(2 4.83844e-15 0)
(2.20218 -0.281227 0)
(2.00026 -0.000520093 0)
(1.82994 0.228496 0)
(2 -1.09798e-13 0)
(2 3.29905e-13 0)
(2 1.85859e-13 0)
(2 1.47139e-13 0)
(2.16501 -0.270724 0)
(1.86111 0.219734 0)
(1.9502 0.208875 0)
(2 -9.24116e-14 0)
(2 1.33831e-13 0)
(1.8895 0.22241 0)
(1.82962 0.228402 0)
(2 9.55232e-14 0)
(1.92288 0.121442 0)
(2 1.02403e-12 0)
(2 -2.342e-14 0)
(2 2.27094e-14 0)
(1.94479 0.193472 0)
(2.00013 -0.000274167 0)
(1.86829 0.221893 0)
(2.07284 -0.0210384 0)
(1.86957 0.221755 0)
(2 1.65992e-14 0)
(1.86949 0.221203 0)
(1.86284 0.220233 0)
(1.87004 0.220422 0)
(1.87898 0.224651 0)
(2 -9.70269e-14 0)
(1.87298 0.199619 0)
(2.08613 -0.0432046 0)
(2.09836 -0.0576793 0)
(2 1.36101e-15 0)
(2 -1.89623e-07 0)
(2 -1.65234e-13 0)
(2 -2.69002e-13 0)
(1.86638 0.208416 0)
(2 -1.50259e-14 0)
(2 8.70414e-14 0)
(2 4.1945e-15 0)
(2 -9.12185e-14 0)
(2 -4.45938e-15 0)
(1.82954 0.228487 0)
(2 4.41626e-14 0)
(2 -6.54684e-14 0)
(2.00104 -0.00197114 0)
(1.87176 0.222098 0)
(1.88797 0.183734 0)
(2 -1.21581e-13 0)
(1.89015 0.167154 0)
(1.99999 1.64476e-05 0)
(2 2.59409e-14 0)
(2 -4.20537e-13 0)
(1.87746 0.225572 0)
(2 2.90374e-14 0)
(2.00116 -0.00181578 0)
(1.99899 0.00295469 0)
(2 2.72438e-14 0)
(1.86233 0.220052 0)
(2 3.75796e-14 0)
(1.85752 0.218228 0)
(2 3.85566e-14 0)
(2 -1.22809e-14 0)
(1.93938 0.201528 0)
(2 7.97425e-14 0)
(1.85878 0.21772 0)
(1.99999 1.02268e-05 0)
(2 1.96275e-13 0)
(1.8571 0.2185 0)
(2 -1.907e-13 0)
(1.87419 0.221817 0)
(2 3.8884e-14 0)
(2 3.06368e-06 0)
(2 3.82755e-14 0)
(1.87962 0.22285 0)
(2 -1.65265e-13 0)
(1.8551 0.219193 0)
(2 4.1444e-06 0)
(1.8791 0.222305 0)
(1.83002 0.228932 0)
(1.88593 0.221832 0)
(1.86372 0.230464 0)
(2 7.91132e-14 0)
(1.83059 0.229004 0)
(1.85502 0.212986 0)
(2 6.58147e-14 0)
(2.19137 -0.282762 0)
(1.92637 0.212005 0)
(1.96721 0.196539 0)
(2 7.50654e-14 0)
(1.8792 0.222913 0)
(2 -1.7098e-13 0)
(2.28825 -0.272108 0)
(2.18752 -0.273501 0)
(2 1.38784e-13 0)
(2 -1.87594e-14 0)
(2 -7.53419e-15 0)
(2 -1.64316e-13 0)
(2 -9.78471e-10 0)
(2.19459 -0.282438 0)
(2 3.62324e-14 0)
(1.86347 0.221092 0)
(2.00743 0.0924187 0)
(1.87743 0.225161 0)
(2 7.58545e-14 0)
(2 1.00523e-10 0)
(2 3.5227e-14 0)
(2 -3.9422e-15 0)
(2 -3.18317e-08 0)
(1.86123 0.220537 0)
(2 -5.93591e-15 0)
(1.86532 0.211581 0)
(1.95123 0.173509 0)
(2.15576 -0.125581 0)
(2 8.2568e-10 0)
(1.99999 8.28127e-06 0)
(1.96491 0.0596934 0)
(1.97469 0.0457427 0)
(2 -2.19087e-14 0)
(2 -1.10146e-13 0)
(1.99829 0.121193 0)
(2 -2.26597e-13 0)
(2.15882 -0.269062 0)
(1.86501 0.218351 0)
(1.86352 0.219447 0)
(2 -3.11235e-13 0)
(2 -2.97183e-14 0)
(2 3.29411e-13 0)
(1.82954 0.228803 0)
(2 -2.2834e-13 0)
(1.99999 1.01081e-05 0)
(2 5.15632e-15 0)
(1.86214 0.218726 0)
(2.06712 -0.00559013 0)
(2 -1.84098e-13 0)
(2 2.47701e-10 0)
(2.17087 -0.270326 0)
(1.92602 0.212159 0)
(2 1.81419e-13 0)
(2 -2.54405e-13 0)
(2 2.52889e-14 0)
(2 -1.49373e-11 0)
(2 -7.3301e-14 0)
(1.87307 0.221653 0)
(1.83032 0.22879 0)
(2 -5.56971e-14 0)
(1.85904 0.216748 0)
(1.856 0.219378 0)
(1.88742 0.221991 0)
(2 -6.69319e-14 0)
(2 9.917e-14 0)
(2 -9.07447e-11 0)
(2 1.75734e-13 0)
(2.17566 -0.283123 0)
(1.82975 0.228819 0)
(2 -6.52464e-11 0)
(2 -1.26508e-13 0)
(1.93146 0.210739 0)
(1.92598 0.211075 0)
(2 2.20239e-13 0)
(1.93135 0.210491 0)
(1.86673 0.231595 0)
(2 -2.17236e-13 0)
(2 -1.80138e-07 0)
(2 2.14116e-10 0)
(2 4.05126e-14 0)
(2 -1.363e-13 0)
(1.86393 0.219362 0)
(2 1.29134e-14 0)
(2 -6.70315e-15 0)
(2 3.48693e-14 0)
(2 1.16193e-13 0)
(1.86854 0.208838 0)
(2 -6.52585e-14 0)
(1.86412 0.203809 0)
(2.18022 -0.284656 0)
(2 -1.6686e-13 0)
(2.20293 -0.278356 0)
(2 -3.87343e-14 0)
(2 -6.34113e-08 0)
(2 -6.87069e-14 0)
(2.0008 -0.00145649 0)
(2.17839 -0.273182 0)
(2.00028 -0.000481805 0)
(2 -2.61727e-14 0)
(2 -4.75712e-14 0)
(2 -1.02481e-07 0)
(1.97635 0.0353786 0)
(2 -1.40395e-13 0)
(2 6.43325e-14 0)
(2.0977 -0.067323 0)
(2 -1.48774e-07 0)
(2 1.44447e-15 0)
(2 -1.47693e-13 0)
(2 -1.8173e-07 0)
(2 4.40438e-07 0)
(2 8.10656e-08 0)
(2 1.27962e-13 0)
(2 -1.64173e-06 0)
(2.08194 -0.027428 0)
(2 -7.47033e-08 0)
(2 -3.65979e-08 0)
(2.0007 -0.00105261 0)
(2 -1.2077e-13 0)
(2.16479 -0.272271 0)
(2 -1.55846e-11 0)
(2 -6.52714e-12 0)
(2 -1.54367e-11 0)
(2 -2.47054e-13 0)
(1.93844 0.201819 0)
(2 -1.44001e-14 0)
(2 1.72647e-13 0)
(2 6.86255e-14 0)
(2 -1.59528e-13 0)
(2.18037 -0.272683 0)
(2 -1.26312e-13 0)
(2 -2.6655e-11 0)
(1.92576 0.21206 0)
(1.82994 0.22885 0)
(2 -2.51858e-07 0)
(2 2.07352e-13 0)
(2 -9.83275e-08 0)
(2.09303 -0.0458169 0)
(2 -4.49827e-14 0)
(2 2.52276e-10 0)
(2 -2.16389e-13 0)
(2 -3.34288e-14 0)
(2 2.74997e-13 0)
(2 2.9072e-13 0)
(2.06788 -0.00213284 0)
(2.04883 0.0343734 0)
(2 -1.59518e-06 0)
(2 -3.14955e-14 0)
(2 3.77554e-14 0)
(2 2.87793e-14 0)
(1.82995 0.227999 0)
(2.09948 -0.041752 0)
(2 -4.76642e-09 0)
(2 -9.78741e-14 0)
(2 -2.29621e-14 0)
(1.86916 0.231074 0)
(1.87248 0.230261 0)
(2 -2.88841e-08 0)
(2 4.08586e-06 0)
(2 8.73167e-10 0)
(2 -4.89995e-14 0)
(2 8.58702e-10 0)
(2 1.18397e-13 0)
(2 5.00781e-11 0)
(2 -1.27736e-13 0)
(2 -1.81772e-14 0)
(2.17845 -0.279559 0)
(2 -7.54439e-14 0)
(2 -1.5907e-11 0)
(1.82923 0.228602 0)
(2.17249 -0.28087 0)
(2 -1.06126e-14 0)
(1.82917 0.22839 0)
(2 1.13831e-10 0)
(2.16835 -0.267991 0)
(2 1.89307e-14 0)
(2 1.98053e-13 0)
(2.17659 -0.277447 0)
(2 -1.67134e-14 0)
(2 -1.03802e-11 0)
(2 -4.00012e-12 0)
(2 -2.13805e-14 0)
(2 5.39226e-13 0)
(2 -6.68374e-14 0)
(2 2.04366e-14 0)
(1.9275 0.211601 0)
(1.92693 0.211407 0)
(2 4.09202e-13 0)
(2 2.41271e-14 0)
(2 7.93767e-15 0)
(2 4.25927e-13 0)
(1.93067 0.210327 0)
(2 3.09461e-13 0)
(1.99636 0.109247 0)
(2.18991 -0.282528 0)
(2 -3.16876e-08 0)
(2 2.27176e-13 0)
(2 -2.60403e-15 0)
(2 -6.1067e-14 0)
(2 -6.34248e-14 0)
(2 7.03755e-14 0)
(2 -3.3744e-14 0)
(2.03585 0.0491505 0)
(2 7.26207e-14 0)
(2 1.49658e-13 0)
(1.90618 0.120458 0)
(2 1.20244e-13 0)
(2 -8.78015e-14 0)
(2 3.34491e-14 0)
(1.95764 0.207558 0)
(2 -2.75277e-13 0)
(2 1.3957e-13 0)
(2 -2.82149e-13 0)
(2 -2.63517e-13 0)
(2.17396 -0.291292 0)
(2 2.21152e-12 0)
(2 2.23448e-13 0)
(2.18479 -0.304407 0)
(2.1798 -0.287293 0)
(2 -1.2203e-13 0)
(2 1.22948e-13 0)
(1.88984 0.22287 0)
(2 9.60842e-14 0)
(2.02039 -0.0221416 0)
(2 1.13666e-14 0)
(2 1.29417e-13 0)
(2 2.2074e-14 0)
(1.9409 0.194173 0)
(2.17096 -0.281455 0)
(2 7.44374e-14 0)
(2.17886 -0.288294 0)
(2 -1.77695e-14 0)
(2.13511 -0.127631 0)
(2 -2.29626e-13 0)
(2 -9.65328e-14 0)
(2 -6.27367e-14 0)
(1.83043 0.228711 0)
(2 -3.61193e-08 0)
(2 -1.26366e-13 0)
(1.89669 0.219712 0)
(2 9.55222e-14 0)
(2 6.9169e-11 0)
(2 2.94191e-10 0)
(1.89668 0.219264 0)
(2 4.83647e-10 0)
(2 -2.93964e-14 0)
(1.89206 0.223006 0)
(2 6.76544e-14 0)
(2 -9.89898e-14 0)
(2.21733 -0.277621 0)
(2 -1.57766e-11 0)
(2.00359 0.108362 0)
(2 -1.499e-13 0)
(2 -2.22127e-13 0)
(1.82899 0.228861 0)
(1.83064 0.228571 0)
(1.94752 0.188447 0)
(1.93243 0.209386 0)
(2 2.70725e-13 0)
(2.20299 -0.279433 0)
(2 -1.56819e-13 0)
(2 -8.97425e-14 0)
(1.92552 0.213686 0)
(2 -5.02485e-14 0)
(2.20183 -0.280246 0)
(2 -2.811e-14 0)
(2 -1.06096e-13 0)
(2 -2.57523e-14 0)
(1.90179 0.219382 0)
(2 -1.03908e-13 0)
(2 -1.08812e-13 0)
(2 4.3908e-14 0)
(2 1.89269e-15 0)
(1.94991 0.173783 0)
(2 -1.26208e-13 0)
(2 -2.63538e-13 0)
(1.83087 0.229073 0)
(2.09226 -0.278565 0)
(2 -9.87793e-14 0)
(2 -1.04273e-14 0)
(2.2259 -0.280106 0)
(2.22087 -0.283521 0)
(2 1.82641e-14 0)
(2 -1.22946e-13 0)
(2 -6.56695e-12 0)
(1.93323 0.194746 0)
(1.92982 0.20084 0)
(2 -5.4047e-14 0)
(2 -7.20695e-14 0)
(2 -1.87123e-14 0)
(2 2.00943e-13 0)
(2 1.64232e-13 0)
(2 6.19851e-16 0)
(2 9.4163e-14 0)
(1.97899 0.135449 0)
(1.86288 0.231941 0)
(2.05164 0.0252254 0)
(2 -7.83826e-14 0)
(1.9446 0.205661 0)
(2.14979 -0.283472 0)
(2 -2.53235e-13 0)
(2 -2.28718e-13 0)
(2 6.78914e-14 0)
(1.96078 0.163525 0)
(2 -3.70908e-15 0)
(1.9991 0.00245856 0)
(2 -6.55739e-15 0)
(1.92684 0.212415 0)
(1.93151 0.209205 0)
(2 -2.67298e-15 0)
(2.2014 -0.277687 0)
(2 -6.52084e-14 0)
(1.84883 0.230885 0)
(2 5.93177e-14 0)
(2 -2.86181e-14 0)
(1.875 0.226217 0)
(1.93164 0.210618 0)
(2 -1.62392e-13 0)
(1.82674 0.228564 0)
(2 3.38417e-14 0)
(2.15931 -0.27235 0)
(2 -2.12924e-14 0)
(2 -8.30434e-15 0)
(2 3.17296e-14 0)
(1.85606 0.21564 0)
(1.92784 0.211366 0)
(1.92828 0.212556 0)
(2 -3.91787e-14 0)
(1.82941 0.23081 0)
(1.89541 0.221216 0)
(2 3.63091e-13 0)
(1.90105 0.220817 0)
(2 -8.6427e-09 0)
(1.93166 0.209363 0)
(2 -5.9127e-14 0)
(2.16531 -0.286416 0)
(2.05969 -0.00145934 0)
(2.18917 -0.298206 0)
(2 -3.263e-11 0)
(2 -6.79405e-12 0)
(2 -3.29566e-11 0)
(2 -9.39725e-14 0)
(2 -9.09487e-12 0)
(1.88677 0.223947 0)
(2 -3.2739e-14 0)
(1.88794 0.223288 0)
(2 5.78117e-11 0)
(2 -3.55442e-11 0)
(2 -1.67548e-13 0)
(1.92908 0.210743 0)
(2 -1.32965e-13 0)
(2.18523 -0.276818 0)
(1.89643 0.220067 0)
(2 -5.83055e-14 0)
(2.17941 -0.270824 0)
(2.17322 -0.243623 0)
(2.17265 -0.247648 0)
(2 -1.74175e-13 0)
(1.96823 0.15223 0)
(2.04715 0.0447025 0)
(1.93247 0.20435 0)
(1.89561 0.220486 0)
(2 7.72496e-14 0)
(2 -1.23478e-07 0)
(2 4.96024e-08 0)
(2 9.58477e-14 0)
(1.88314 0.219559 0)
(2 5.61041e-14 0)
(2 -1.00825e-13 0)
(1.88203 0.219847 0)
(1.89419 0.221574 0)
(2 -4.10417e-13 0)
(2.01164 0.119908 0)
(2.00035 -0.000683132 0)
(2 -4.87731e-14 0)
(2.00023 -0.000459194 0)
(1.86651 0.232152 0)
(2.10218 -0.0759376 0)
(2 -1.23253e-07 0)
(2.1136 -0.109287 0)
(2.15855 -0.272466 0)
(2.15732 -0.269684 0)
(2.02418 -0.0123621 0)
(1.86996 0.229852 0)
(1.93139 0.210101 0)
(2.0218 0.0801203 0)
(1.93301 0.202284 0)
(1.89155 0.219675 0)
(2 -3.04202e-14 0)
(2 -7.32047e-14 0)
(1.86595 0.232967 0)
(1.82911 0.229245 0)
(1.9182 0.196999 0)
(1.82841 0.227925 0)
(2 -4.74143e-14 0)
(1.93142 0.207965 0)
(2.18767 -0.274838 0)
(1.8316 0.228165 0)
(1.83093 0.228205 0)
(1.82969 0.228929 0)
(1.83139 0.230121 0)
(2.09858 -0.0646576 0)
(2.09096 -0.0498872 0)
(2.07682 -0.0247997 0)
(1.89098 0.223107 0)
(2.07131 -0.00407407 0)
(1.8307 0.229075 0)
(2 -1.95972e-13 0)
(2 -6.76511e-14 0)
(1.93193 0.206245 0)
(1.83125 0.228792 0)
(2 2.25011e-14 0)
(2.17282 -0.28003 0)
(1.83018 0.229121 0)
(1.89092 0.2213 0)
(2 -8.91717e-14 0)
(1.88568 0.215464 0)
(1.88542 0.216573 0)
(2 -2.03246e-13 0)
(1.88464 0.220817 0)
(2.17991 -0.271161 0)
(1.83202 0.228744 0)
(1.86465 0.232453 0)
(1.83051 0.228756 0)
(1.8295 0.231742 0)
(2 -6.9628e-14 0)
(2 3.35793e-14 0)
(2 -8.59808e-08 0)
(1.89075 0.221941 0)
(1.94362 0.184035 0)
(2.10089 -0.243939 0)
(1.89754 0.219062 0)
(2.19071 -0.303763 0)
(1.88968 0.221941 0)
(2 4.88678e-14 0)
(2 -2.83809e-13 0)
(2 -4.88468e-14 0)
(2 -2.0712e-13 0)
(1.83124 0.227722 0)
(1.89866 0.21986 0)
(2 -1.53889e-13 0)
(2 -3.62689e-13 0)
(1.90011 0.219896 0)
(2.19008 -0.301969 0)
(1.83126 0.228459 0)
(2.16359 -0.269981 0)
(2 2.98732e-14 0)
(1.92793 0.210226 0)
(2 -1.22301e-13 0)
(2.12473 -0.271055 0)
(1.90233 0.219167 0)
(2.13494 -0.173203 0)
(2 2.65858e-14 0)
(1.89621 0.220129 0)
(1.90541 0.219082 0)
(1.89353 0.201987 0)
(2 -5.05895e-14 0)
(2 2.92473e-13 0)
(2 -1.84036e-13 0)
(1.90498 0.218216 0)
(2.17671 -0.276672 0)
(1.90379 0.215898 0)
(2 7.53601e-14 0)
(1.94175 0.191748 0)
(2.09046 -0.0563529 0)
(1.89481 0.202553 0)
(2.18611 -0.282741 0)
(2 -3.45465e-14 0)
(1.83189 0.229501 0)
(2.18258 -0.223897 0)
(1.93206 0.207796 0)
(2.1743 -0.270209 0)
(2 1.37524e-13 0)
(1.90192 0.21906 0)
(2 -5.53048e-14 0)
(1.86746 0.230809 0)
(2 2.99173e-13 0)
(1.96758 0.172078 0)
(1.92668 0.211969 0)
(1.93502 0.205529 0)
(2.20129 -0.29008 0)
(2 -3.48729e-13 0)
(1.83158 0.22915 0)
(2 -7.25643e-14 0)
(1.93527 0.188658 0)
(2 -1.16382e-07 0)
(1.91133 0.214646 0)
(2 -2.30044e-07 0)
(2 -1.89851e-13 0)
(1.8313 0.229234 0)
(2.05878 0.0150147 0)
(1.90838 0.218801 0)
(2.12852 -0.271893 0)
(2 1.16807e-08 0)
(2 6.21765e-14 0)
(1.96438 0.197623 0)
(2 6.47257e-15 0)
(1.83066 0.228916 0)
(1.91137 0.213327 0)
(1.83084 0.228866 0)
(2 6.40645e-14 0)
(1.93231 0.209506 0)
(1.83152 0.229054 0)
(1.93208 0.209728 0)
(1.955 0.178677 0)
(1.82814 0.231785 0)
(2 9.77589e-14 0)
(1.94329 0.188729 0)
(2 9.82069e-14 0)
(1.83161 0.22857 0)
(2 -1.58243e-13 0)
(2.03667 0.058784 0)
(2 -1.25331e-13 0)
(1.92564 0.213834 0)
(2 -2.88333e-13 0)
(1.93881 0.188918 0)
(1.92605 0.213706 0)
(1.92866 0.210987 0)
(2 -1.9245e-13 0)
(2 2.87273e-08 0)
(2.17822 -0.275813 0)
(2 -1.2637e-13 0)
(2.18693 -0.278032 0)
(2 -2.28627e-13 0)
(2 3.93641e-14 0)
(2 -4.51807e-14 0)
(1.85648 0.231189 0)
(2 -9.96868e-14 0)
(1.90759 0.213421 0)
(2 1.31764e-14 0)
(2 -1.31475e-13 0)
(2 -1.56696e-13 0)
(1.90022 0.220797 0)
(2 -1.36479e-06 0)
(2 -5.65103e-08 0)
(1.83118 0.227629 0)
(1.83103 0.228673 0)
(2.20121 -0.275174 0)
(1.82962 0.231841 0)
(1.85931 0.232051 0)
(2 -9.0208e-15 0)
(2 1.64023e-08 0)
(1.91126 0.212177 0)
(2 2.76333e-08 0)
(2 -3.16909e-13 0)
(1.851 0.231092 0)
(1.84682 0.230595 0)
(2 -1.49207e-13 0)
(1.88149 0.232895 0)
(1.83136 0.229186 0)
(1.83074 0.228692 0)
(1.90175 0.219519 0)
(2 -1.67145e-13 0)
(2 -6.81038e-14 0)
(2 -6.6945e-14 0)
(1.93289 0.187926 0)
(2.14752 -0.282996 0)
(2 7.99968e-14 0)
(1.91619 0.212665 0)
(2 7.69144e-15 0)
(2 -4.85742e-14 0)
(2.20678 -0.267359 0)
(2 6.10384e-14 0)
(2 -7.86269e-14 0)
(1.91475 0.210403 0)
(1.83207 0.228859 0)
(2 1.39474e-13 0)
(1.91001 0.214229 0)
(2 -6.39271e-10 0)
(1.87482 0.228193 0)
(2.05671 0.0048012 0)
(1.88032 0.218035 0)
(2 6.04401e-15 0)
(1.87895 0.217901 0)
(1.91443 0.206083 0)
(2 -1.23074e-06 0)
(2 -2.89937e-14 0)
(2 -2.15606e-13 0)
(2 4.13733e-14 0)
(1.83199 0.228328 0)
(1.83145 0.228747 0)
(1.91814 0.206793 0)
(2.06576 -0.00781514 0)
(2 -1.36125e-13 0)
(1.87576 0.232756 0)
(1.83176 0.228776 0)
(1.88451 0.22698 0)
(2 -4.60656e-14 0)
(1.83166 0.229009 0)
(1.83136 0.228509 0)
(1.91442 0.209129 0)
(1.87713 0.233495 0)
(2 -1.62729e-13 0)
(1.91982 0.203636 0)
(1.90169 0.194022 0)
(1.8936 0.211382 0)
(1.83182 0.229031 0)
(1.87844 0.232374 0)
(2 8.13328e-14 0)
(1.83079 0.229038 0)
(1.92572 0.211611 0)
(1.91788 0.207052 0)
(1.83155 0.227348 0)
(1.8317 0.229605 0)
(2.15402 -0.287461 0)
(1.87516 0.226606 0)
(1.83193 0.228073 0)
(2 4.68463e-15 0)
(1.92283 0.193656 0)
(1.91691 0.207668 0)
(1.92247 0.196699 0)
(1.91857 0.203003 0)
(2 -5.5968e-08 0)
(1.92021 0.201603 0)
(1.92573 0.195772 0)
(2 -2.10076e-13 0)
(1.89215 0.2225 0)
(1.92994 0.211488 0)
(2 -1.3823e-13 0)
(2 -4.19942e-14 0)
(2 -1.50971e-09 0)
(1.83254 0.227988 0)
(1.83039 0.233297 0)
(2 -1.34501e-13 0)
(2 -6.95164e-14 0)
(1.95734 0.163688 0)
(2 -2.01103e-14 0)
(2 7.26679e-08 0)
(2 2.00421e-13 0)
(2 -7.29337e-14 0)
(1.89017 0.220058 0)
(1.9497 0.203647 0)
(1.83172 0.229372 0)
(1.89288 0.220311 0)
(2 9.61307e-14 0)
(2 -1.44438e-13 0)
(2 -1.0176e-13 0)
(1.91885 0.180271 0)
(2 -3.42408e-14 0)
(1.92638 0.185416 0)
(2 -6.6445e-14 0)
(2 1.62616e-14 0)
(1.86643 0.233018 0)
(1.86466 0.232847 0)
(2 2.17303e-14 0)
(1.91012 0.211061 0)
(2.19083 -0.293557 0)
(1.88609 0.221104 0)
(1.83201 0.228104 0)
(2.14365 -0.194485 0)
(2 -4.78552e-14 0)
(2.21404 -0.289007 0)
(1.89156 0.211393 0)
(1.83196 0.228704 0)
(1.95105 0.118046 0)
(1.95036 0.128562 0)
(2.23368 -0.277237 0)
(1.83155 0.229108 0)
(1.89468 0.223521 0)
(2.23516 -0.274197 0)
(2.19028 -0.30452 0)
(2 -2.46898e-07 0)
(1.97102 0.102422 0)
(1.83316 0.228028 0)
(2 1.28378e-13 0)
(2 -9.50686e-14 0)
(1.9183 0.198661 0)
(2 -3.07562e-14 0)
(1.82662 0.231108 0)
(2 -3.88349e-10 0)
(1.92819 0.212408 0)
(2 -2.00351e-13 0)
(1.98405 0.147273 0)
(1.83223 0.22918 0)
(1.90355 0.22 0)
(1.91926 0.183055 0)
(2.00005 -0.000198709 0)
(1.85787 0.231279 0)
(1.88429 0.22909 0)
(2.00005 -0.000179789 0)
(2 4.30947e-13 0)
(2.14021 -0.290545 0)
(2.00003 -0.000115166 0)
(1.83289 0.228089 0)
(1.88298 0.231238 0)
(2 -6.92991e-10 0)
(2 2.85803e-14 0)
(2 5.0158e-10 0)
(1.82886 0.230373 0)
(2 -5.18487e-14 0)
(1.8324 0.229277 0)
(1.88606 0.225553 0)
(2.14302 -0.151624 0)
(2 5.9903e-14 0)
(1.92302 0.199572 0)
(2.00002 -4.82743e-05 0)
(2 -2.53183e-14 0)
(2 -7.05268e-10 0)
(2 -1.01601e-12 0)
(1.83343 0.228285 0)
(1.88197 0.227494 0)
(2 -4.64948e-14 0)
(2 5.75665e-15 0)
(2 -1.37845e-14 0)
(1.92887 0.186907 0)
(1.90704 0.217852 0)
(1.93098 0.18882 0)
(1.83084 0.229877 0)
(1.83118 0.228841 0)
(2.20388 -0.234536 0)
(2 7.50672e-08 0)
(2 -1.43765e-13 0)
(1.92762 0.210381 0)
(1.83175 0.22928 0)
(1.83199 0.229299 0)
(1.82831 0.228482 0)
(2 -1.39298e-13 0)
(1.90717 0.215111 0)
(1.92913 0.210476 0)
(1.90908 0.217073 0)
(2 -1.17003e-13 0)
(1.83109 0.229192 0)
(1.83162 0.228511 0)
(2.11403 -0.0750304 0)
(1.90408 0.214956 0)
(1.83122 0.229192 0)
(2 6.39584e-14 0)
(1.92316 0.187857 0)
(2.12267 -0.0924919 0)
(1.83135 0.229001 0)
(2.11019 -0.0721412 0)
(1.90504 0.216235 0)
(2 -8.62672e-14 0)
(1.92964 0.19505 0)
(1.82503 0.231329 0)
(1.90929 0.213213 0)
(1.91104 0.215048 0)
(1.93024 0.19728 0)
(1.87259 0.230375 0)
(1.90945 0.216177 0)
(1.8297 0.229187 0)
(2 4.0124e-16 0)
(2.07643 -0.0238427 0)
(1.83148 0.228984 0)
(1.87254 0.223067 0)
(2.12121 -0.0924015 0)
(1.911 0.211289 0)
(2.06432 0.00590598 0)
(1.89877 0.142102 0)
(1.83161 0.229094 0)
(1.87343 0.228373 0)
(1.83132 0.228674 0)
(2 4.45275e-14 0)
(1.90761 0.218667 0)
(1.89452 0.146579 0)
(1.83224 0.228751 0)
(2.08375 -0.036434 0)
(1.90914 0.217747 0)
(1.82708 0.231152 0)
(2 1.17841e-13 0)
(2.10327 -0.0619268 0)
(2 -2.50471e-09 0)
(2.00001 -3.21333e-05 0)
(2 -4.18572e-14 0)
(1.9556 0.192623 0)
(2 3.96747e-09 0)
(2 -4.47599e-06 0)
(2.10111 -0.0554191 0)
(2 -7.14703e-14 0)
(1.9971 0.00918417 0)
(1.83227 0.229398 0)
(2 -1.94378e-13 0)
(1.82957 0.228202 0)
(1.93249 0.206031 0)
(1.83244 0.229582 0)
(1.94769 0.102972 0)
(1.9536 0.0990501 0)
(2 9.90043e-15 0)
(1.8302 0.228791 0)
(2 -2.56379e-13 0)
(2 -4.50817e-14 0)
(2 -1.26437e-13 0)
(2.09566 -0.0453888 0)
(1.87697 0.223276 0)
(1.832 0.229368 0)
(1.83208 0.229779 0)
(1.90873 0.211049 0)
(1.82837 0.23131 0)
(1.83206 0.229806 0)
(2 -1.02541e-06 0)
(1.90688 0.213623 0)
(2.09353 -0.0442866 0)
(2.00014 -0.000371009 0)
(2 1.62738e-10 0)
(2 5.74904e-14 0)
(1.82364 0.232835 0)
(1.90842 0.212731 0)
(1.90253 0.217513 0)
(1.89999 0.211439 0)
(2 2.21551e-06 0)
(1.91244 0.134421 0)
(2 -1.81156e-08 0)
(1.8817 0.232102 0)
(1.85091 0.214019 0)
(2 -6.05653e-12 0)
(2 -4.2685e-11 0)
(2.1338 -0.167345 0)
(1.91492 0.205922 0)
(2 1.912e-13 0)
(2 1.65639e-13 0)
(2.18115 -0.272549 0)
(1.90078 0.210012 0)
(2 5.78958e-14 0)
(1.86109 0.23231 0)
(1.92426 0.199741 0)
(1.85779 0.231844 0)
(1.93156 0.21006 0)
(1.93031 0.191823 0)
(2 -4.67305e-11 0)
(2.19996 -0.294767 0)
(1.9611 0.0642954 0)
(1.83121 0.22927 0)
(1.93106 0.194945 0)
(2 1.78271e-13 0)
(1.94488 0.187824 0)
(1.91555 0.210165 0)
(1.99893 0.00334757 0)
(1.99707 0.0068606 0)
(2.00015 -0.000383845 0)
(2 3.72244e-14 0)
(1.86769 0.231295 0)
(1.85997 0.219985 0)
(2 -1.16288e-10 0)
(2 -1.96783e-10 0)
(2.22227 -0.28228 0)
(2 -2.37429e-10 0)
(2 8.16442e-15 0)
(1.90926 0.211896 0)
(1.91328 0.212924 0)
(1.83229 0.227451 0)
(1.93447 0.190052 0)
(1.90017 0.20616 0)
(1.82882 0.228022 0)
(1.93158 0.203048 0)
(1.99913 0.00395604 0)
(1.86497 0.220429 0)
(2 -1.05872e-13 0)
(2.00001 -2.21415e-05 0)
(1.83133 0.228981 0)
(1.92864 0.18542 0)
(2.00001 -4.11658e-05 0)
(1.91607 0.21189 0)
(1.91513 0.207857 0)
(2.19187 -0.289001 0)
(2.08347 -0.283066 0)
(1.99678 0.0167814 0)
(1.9084 0.171314 0)
(2 2.51604e-14 0)
(2 5.68139e-14 0)
(1.99909 0.00225405 0)
(1.92023 0.197312 0)
(1.83257 0.227952 0)
(1.90016 0.210556 0)
(2 -4.38257e-14 0)
(1.9141 0.210987 0)
(2 -1.36173e-14 0)
(2.14714 -0.0591948 0)
(1.88228 0.232065 0)
(1.92301 0.149671 0)
(2 2.27788e-14 0)
(1.99421 0.0139737 0)
(1.8799 0.225486 0)
(2 3.65085e-13 0)
(1.82981 0.226804 0)
(2 -1.07853e-10 0)
(1.91813 0.203046 0)
(2 3.88851e-09 0)
(1.83617 0.227362 0)
(2 1.25526e-11 0)
(1.83106 0.230183 0)
(1.86575 0.209684 0)
(2.22444 -0.278308 0)
(1.91986 0.199437 0)
(2 -1.13999e-07 0)
(1.83144 0.228147 0)
(1.86272 0.231453 0)
(2 7.09761e-09 0)
(2.18582 -0.281679 0)
(1.90461 0.194323 0)
(2 1.41246e-07 0)
(2 5.96487e-12 0)
(2 -7.88236e-06 0)
(1.91516 0.207053 0)
(2 -6.05784e-12 0)
(2.06427 0.0237802 0)
(1.8314 0.22789 0)
(2 4.7253e-11 0)
(1.92323 0.199001 0)
(2 -7.03909e-12 0)
(2 -9.31746e-14 0)
(1.83182 0.228207 0)
(2 -1.34742e-13 0)
(1.83151 0.22752 0)
(1.91592 0.210079 0)
(2.00134 -0.00245203 0)
(1.87055 0.180297 0)
(2 3.15458e-09 0)
(1.91399 0.207739 0)
(2 -6.42219e-09 0)
(2 -1.88088e-12 0)
(2 1.01041e-11 0)
(2 6.39574e-12 0)
(1.89897 0.211694 0)
(2 6.81524e-09 0)
(2 -7.33327e-14 0)
(1.95928 0.0826892 0)
(2 1.27044e-13 0)
(1.92187 0.185451 0)
(2 3.2308e-10 0)
(1.96313 0.18495 0)
(1.90093 0.189725 0)
(1.8318 0.229425 0)
(2 1.09815e-11 0)
(2 -5.92599e-15 0)
(2.05463 0.0228381 0)
(2 3.01736e-12 0)
(1.83117 0.2292 0)
(1.91815 0.205238 0)
(1.83146 0.227792 0)