/*--------------------------------*- C++ -*----------------------------------*\
  =========                 |
  \\      /  F ield         | OpenFOAM: The Open Source CFD Toolbox
   \\    /   O peration     | Website:  https://openfoam.org
    \\  /    A nd           | Version:  12
     \\/     M anipulation  |
\*---------------------------------------------------------------------------*/
FoamFile
{
    format      ascii;
    class       surfaceScalarField;
    location    "2.65";
    object      phi;
}
// * * * * * * * * * * * * * * * * * * * * * * * * * * * * * * * * * * * * * //

dimensions      [1 0 -1 0 0 0 0];

internalField   nonuniform List<scalar> 
33852
(
0.000251329
2.24281e-05
-0.000273757
-0.000246121
1.32441e-05
0.000232877
-0.000176793
-7.24651e-05
0.000250546
0.000304053
-0.000163969
-0.000140085
0.000292574
-4.31428e-05
-0.000250029
2.72441e-05
-0.000260681
0.000233437
0.000316015
1.48042e-05
-0.000330922
0.000304277
-9.59564e-05
-0.000208321
0.000286413
-3.50841e-05
0.000188968
1.97971e-06
-0.000193817
0.000289517
-0.000366497
7.69591e-05
0.000360912
-4.58941e-05
-4.39602e-05
0.000263285
-0.000219325
-4.3906e-05
0.000318212
-0.000274271
6.17751e-05
-0.000237268
0.000252057
1.2236e-05
-0.000264293
0.000264853
-1.2796e-05
-0.000278433
3.23121e-05
0.000340686
-5.11301e-05
0.000158593
0.000112308
-0.000270901
-2.44022e-05
0.000303261
-0.000278815
0.000271377
-0.000276165
4.78802e-06
-1.77598e-05
0.000274538
-0.000257461
-0.000222999
1.43662e-05
0.000206782
-0.000153707
-0.000183343
0.000336547
-0.000142546
-6.66944e-05
0.000224052
3.72401e-05
0.000267037
-6.09662e-05
-0.000262537
0.000323392
-0.000206957
1.52132e-06
0.000197659
-0.00020577
-1.89757e-05
0.000142045
0.000137388
-0.000279433
0.000340688
1.92916e-05
0.000142618
0.000128347
-0.000270965
-0.000101136
0.000259729
-0.000250489
-3.78001e-06
0.000254269
0.000330882
-5.97056e-05
-0.000271066
-0.000358148
0.000203513
-0.000227633
0.000209389
0.000231645
3.32081e-05
-5.65602e-06
0.000237301
-8.21201e-06
0.000197692
-0.000232625
0.000259869
0.000315922
-5.69764e-05
-0.000258084
-0.000309093
5.51042e-05
0.000253989
0.000239365
-0.000300553
0.000273589
-0.000306321
3.27321e-05
-0.000180237
-5.49362e-05
0.000235173
0.000272133
-0.000272133
0.000148429
-0.000297473
0.000149045
-0.000209116
0.000219535
-7.47145e-06
-0.000268241
0.000237301
3.09401e-05
-0.000201316
0.000247124
-4.74166e-05
-9.16164e-05
-0.000217477
-0.000114508
-0.000252023
-0.000280169
0.000266113
1.40561e-05
0.00032856
1.17925e-05
-0.000250433
7.01963e-05
0.000117908
0.000145909
-0.000263817
1.34681e-05
-0.000267457
0.000253989
-0.000134569
0.000282997
-0.000156104
-5.24182e-05
0.000210191
-0.000274681
0.000245113
2.95681e-05
0.000237553
-0.000268437
3.08841e-05
-0.000193351
-2.45601e-05
0.000151665
0.000115565
-0.00026723
-0.00019194
-2.80043e-05
0.000224497
0.000263985
2.24281e-05
0.000275941
-2.35201e-06
0.000265329
-0.000250741
-1.45881e-05
0.000224589
-6.39063e-05
-0.000158241
-1.82001e-06
0.000239373
0.000366523
-0.000312149
-5.38433e-05
-2.84295e-05
0.000303934
-0.000275698
-0.000101584
0.000219493
0.000342974
2.42187e-05
-0.000372387
0.000354747
1.83557e-05
-0.000207718
2.19302e-05
0.000310083
-0.000322362
1.22953e-05
-0.000207146
0.000271345
-6.41124e-05
-4.45202e-06
1.71643e-05
-0.000319892
0.000302749
0.000234459
-0.000198644
-3.53963e-05
0.000268568
-0.000338644
6.9932e-05
0.000331797
-6.32708e-05
-0.000268941
0.000236573
3.23681e-05
-0.000129388
-0.000132609
0.000261997
-1.86761e-05
-0.000249565
-1.022e-05
-0.000258721
2.29002e-05
0.000212162
-0.00023466
3.11686e-05
-0.000217533
0.000185587
-2.5201e-05
0.00032889
-0.000304168
-0.000279329
0.000273701
5.62802e-06
0.000156129
-0.000296857
0.000140729
-5.952e-05
-0.000152693
0.000207841
0.000143277
0.0001218
-0.000265077
-0.000250067
0.000225864
-0.000214021
0.000149758
-0.000168813
0.000327181
-0.000158369
0.000185389
7.16523e-05
-0.000257041
0.000255193
2.07481e-05
-0.000192277
0.000148317
5.01787e-05
0.000266559
0.000307638
-0.000290453
9.11632e-05
-0.000226243
0.000135241
0.000117096
-0.000281065
-1.27074e-06
0.000244657
-0.000244087
0.000166489
0.000122836
-0.000289325
0.000144323
9.00896e-05
-3.92002e-06
0.000259113
0.00030438
5.47692e-06
-0.000324107
0.000314836
8.95229e-06
-3.99002e-05
0.000236293
-0.000196393
4.08802e-06
-0.000284257
-2.4796e-05
0.000170573
-0.000142208
-0.00016378
0.000139883
0.000201106
-0.00017176
-0.000269921
0.000264965
4.95602e-06
2.64041e-05
0.000174721
-0.000201125
2.87841e-05
-0.000257265
0.000228481
0.000276137
-0.000262669
0.000115108
0.000212073
0.000215637
-0.000192174
-0.000175813
0.000202217
1.35666e-05
0.00028338
-0.000296819
0.00026885
2.14928e-05
0.000272282
-0.000284172
1.24975e-05
3.86402e-06
0.000267513
-1.82243e-05
0.000290689
0.000330936
9.93993e-06
0.000213744
-0.000257537
0.000316098
-0.000315957
-6.63603e-06
-0.000272693
2.85007e-05
0.000201675
0.000187993
3.98722e-05
-0.000227865
-5.60349e-05
0.000225148
-0.00016872
0.000153609
-0.000270285
0.000116676
0.000279441
-0.000329701
5.02602e-05
-6.38122e-05
0.000249201
-0.000166909
0.000315897
-0.000148989
-0.000314212
-1.00616e-05
-0.000214929
0.000175029
2.78601e-05
-0.000278349
0.000276221
-1.88441e-05
-0.000248613
1.72146e-05
-0.000303008
0.000285745
0.000344989
-0.000158593
-0.000186397
-1.68949e-05
-0.000241093
0.000257726
-0.000266617
-3.30401e-06
0.000224001
2.45841e-05
-0.000248585
0.000284509
-0.000128381
0.000140197
0.000138853
-0.000279049
-0.000196828
-1.05846e-05
0.000258169
-0.000115551
0.000225595
-0.000242548
-6.38122e-05
0.000251805
-0.000207178
0.000249481
-5.60002e-07
-0.000248921
0.000255109
-0.000237441
-0.000326
0.000300424
-3.08841e-05
0.000203169
-0.000172285
0.000291234
1.26349e-06
-0.000292692
8.03882e-05
0.000136556
-0.000220751
4.82937e-05
-0.000201686
-0.000288668
-4.5816e-06
0.00029401
-1.5958e-06
-0.000286882
0.000146973
-0.000273925
0.000126952
-0.000263038
0.00022021
-0.000294457
0.000265321
0.000279441
-0.000311618
-1.24413e-05
0.000324532
0.000110661
0.000161018
-2.13855e-05
0.000352275
0.000140141
0.000139833
-0.000279973
0.000245029
-0.000250349
5.32002e-06
-0.000210953
0.000180069
0.000279133
-5.43202e-06
0.000350896
-3.26814e-05
-0.000301177
0.000302468
-2.65081e-06
0.000270985
-0.000270985
-0.000364437
0.000225786
0.000138727
-0.000218135
2.13735e-05
1.69198e-05
0.000275157
-0.000278461
3.30401e-06
-5.06128e-06
0.000172418
-0.000166136
-0.000197345
0.000254801
-5.74562e-05
-0.000205724
4.49436e-06
-0.000240646
0.000165546
8.63211e-05
-0.000180264
0.000261404
-8.11373e-05
0.000256285
-0.000287113
3.08281e-05
-0.000249229
5.18842e-05
-2.36644e-05
0.000275837
-0.000252206
-0.000253547
1.35801e-06
0.000252189
0.000231281
-7.28003e-06
-0.000294244
7.58447e-06
0.000286733
-0.000266085
0.000266085
-0.000284289
-5.50019e-05
-0.000170495
-0.000193911
-0.000171178
0.000215857
-4.38243e-05
-1.232e-05
-0.000239177
0.000251497
3.10801e-06
0.000210113
-0.000213221
-0.000185092
-2.26843e-05
0.000207384
7.59573e-06
0.000294402
-0.000301997
-0.000236153
-1.34401e-05
0.000249593
1.50361e-05
-0.000251189
-0.000241025
0.000256061
-0.000301239
0.000308838
0.000256117
7.16803e-06
-0.000169479
-3.22441e-05
0.000200716
-0.000145237
-0.000134765
-0.000244329
0.000240549
0.000298581
-4.49523e-07
-0.00029826
-0.000298947
6.17405e-07
0.000298281
1.91799e-05
0.000181217
0.000163773
7.70043e-05
-0.000257269
-0.000159242
0.000310908
0.000250721
-0.000108677
-0.000235145
-1.83681e-05
0.000253513
-0.000204658
-0.000126643
0.000331428
-6.10402e-06
-0.000229125
0.000235229
-2.33899e-05
-0.000193551
-0.000286197
-8.53405e-05
6.28209e-06
-0.000300458
-0.000212752
0.000328364
-0.000115595
0.000281597
0.000288205
-5.16322e-05
0.000271993
-1.57081e-05
-0.000188125
-1.42578e-05
0.000202934
0.000297702
3.86552e-07
-0.000297968
-0.000270758
-3.21641e-05
-0.000218821
0.000247605
-2.52362e-05
0.000310615
-0.00028536
0.000180893
8.08526e-06
-0.000189996
-3.4612e-05
0.00021278
-0.000301236
0.000276008
0.000292863
5.64733e-06
-0.000298466
0.000157445
0.00011886
-0.000276305
0.000288759
3.89292e-06
-0.000293882
-0.000232174
0.000112345
0.000122832
-0.000281881
0.000295411
0.000302513
-0.000156857
-0.000145657
0.000207005
-0.000203897
-0.000232009
-0.000121156
-0.000155009
-4.05905e-06
-0.000293989
0.000298065
-1.0136e-05
0.000276249
0.000290468
-2.01356e-05
-0.000270351
-0.000262885
2.91967e-05
0.000233815
0.000271433
-0.000267569
0.000249621
2.95121e-05
0.000315025
-9.74107e-06
-0.000305269
4.95199e-05
0.000154808
-0.000207433
-0.000101458
0.000200704
-9.68361e-05
0.000252617
-2.91201e-05
-0.000223497
8.22146e-07
0.000291876
-0.000176419
-3.15262e-05
0.000210004
-2.17435e-06
0.000290384
-9.33244e-05
0.000246933
-0.000255417
-5.26402e-06
0.000121184
0.000181329
1.34121e-05
0.000241557
-0.000254969
0.000236097
1.34961e-05
-0.000249593
0.000249509
-0.000242929
0.000256425
6.36919e-05
-0.000202925
0.000139523
-0.000211258
0.00011481
-0.000204809
0.000297192
1.4164e-06
-0.000298631
0.000253849
2.22881e-05
0.000268493
-0.000216441
-5.20522e-05
0.000225518
-0.000246849
2.13305e-05
0.000257909
1.40841e-05
5.88941e-05
0.000296375
0.000267186
-3.89594e-05
-0.000228226
0.000175858
1.274e-05
0.000240297
-0.000253037
0.000194992
-0.00011443
-8.04364e-05
-0.000207022
2.15733e-05
-1.27429e-06
-0.000297964
0.000299127
0.000220961
-0.000167561
-5.29225e-05
0.00034459
-4.12842e-05
0.000275969
-0.000135829
2.31561e-05
0.000238337
-0.000261493
-0.000231141
0.000254297
-2.66709e-05
-0.000229723
0.000256411
0.000157944
-0.000162149
-7.17735e-05
-0.000161217
-0.000261723
4.14346e-05
0.000220288
-3.17521e-05
-0.00022997
7.49459e-06
0.000261717
-3.25193e-05
-0.000229198
1.68062e-05
0.00012167
-0.000183912
0.000308785
-0.000171397
0.000262319
-3.57923e-05
-0.000226526
-0.000319508
0.00017052
-0.000102017
-0.000228453
-6.90203e-05
-1.33422e-06
-0.000297598
0.000298451
-2.76819e-05
0.000187733
-0.000158633
0.00030815
6.86374e-06
0.000250097
-0.000248249
-1.84801e-06
-0.000176213
6.17495e-05
0.000260247
-3.0709e-05
-0.000229535
0.000197345
-0.000250769
5.34242e-05
0.000254205
-0.000231206
-2.29992e-05
-0.000252337
0.000240017
0.000144142
0.000101523
-0.000101864
-0.000170269
0.000132496
-0.000261885
-0.000290249
0.000242201
4.80482e-05
0.000216809
3.1248e-05
-0.000248056
-0.000236413
-9.15808e-06
0.000248471
0.000326955
-2.2874e-05
0.000263996
-3.42721e-05
-0.000229724
0.00014657
-0.000236434
9.51195e-05
3.63259e-05
-0.000265637
0.000229311
-0.000253905
0.000121296
0.000249817
-5.24722e-05
0.000294673
-0.000154253
-0.000140421
0.000122248
-0.000289157
1.53441e-05
0.000237665
-0.000253009
-0.000262031
3.54705e-05
0.00022656
-2.75037e-06
-3.77917e-05
-0.000224239
0.000248413
-0.000272001
-0.000264649
3.44737e-05
0.000230175
0.000193257
0.000101416
-0.000149941
0.000290137
-0.000167395
-3.80048e-05
0.000205813
-1.81721e-05
0.000263201
-0.000293388
0.000310433
0.000117636
0.000103798
0.000261325
-0.000261325
0.000312875
-2.1756e-05
-0.000287347
5.32002e-07
0.000248949
0.000254857
1.65761e-05
0.000309938
-0.000276623
-3.32907e-05
-2.26336e-05
0.000266577
-0.000243943
3.00077e-05
-0.000260519
0.000230511
-0.000252139
0.000229506
0.000327538
3.11501e-05
-0.000260598
0.000229447
0.000276809
-3.16961e-05
-7.10939e-06
-0.00029506
0.000301939
0.000270765
3.90545e-05
0.000230245
-0.000266617
3.63721e-05
0.00020065
-0.000201123
-0.000258301
0.000238533
1.97681e-05
0.000169762
-0.000257245
8.74835e-05
-0.000209287
0.000163241
-0.000249145
8.59043e-05
-0.000266169
0.000224813
4.13562e-05
0.000253073
-2.78797e-05
-0.000225194
0.00017475
4.38734e-05
-0.000234837
-2.29601e-05
0.000257797
-0.000236377
-2.28761e-05
0.000259253
-1.94265e-05
0.000255969
-0.000236542
-0.000259345
0.000239919
-3.57824e-05
0.000183528
-0.000235929
-2.24001e-05
0.000258329
-0.00025484
0.000229192
2.56481e-05
2.94001e-06
0.000211289
-0.000214229
-0.000267031
3.79849e-05
0.000229046
0.000270677
4.48002e-06
4.1436e-05
0.000151916
-0.000196596
-3.31194e-05
0.000249928
-2.09415e-05
0.000218597
9.73004e-05
0.0002482
-0.000216951
0.000277207
-0.000278504
0.000277394
-0.000281274
-1.84997e-05
0.000258601
-0.000240101
-0.000261644
0.000243145
3.06959e-05
-0.000201785
-2.96956e-05
-0.000209861
0.00023447
0.000314863
-0.000287961
-2.7466e-05
0.000261297
-3.11081e-05
-0.000230189
3.28739e-05
-0.000262362
0.000229488
-0.000229853
0.000259645
-2.97921e-05
0.000325809
-1.76609e-05
0.00014512
-0.000206248
0.000256929
-0.000109956
-0.000285833
0.000286957
0.000241977
-6.41202e-06
-0.000235565
0.000228537
-0.000185954
-3.65221e-05
0.000219947
2.80653e-05
-0.000212268
-0.000239989
0.000260317
-2.03281e-05
-0.000103046
0.000191008
-8.63662e-05
3.07108e-05
-0.000200412
0.000240169
-0.000263424
2.32552e-05
-0.000115584
0.000258861
-0.000243993
0.000265721
-2.17281e-05
-0.000238953
0.000232541
0.000258626
-0.000245105
-1.35213e-05
0.000264349
-2.46681e-05
-0.000246317
-0.000272651
-1.04695e-05
0.000297106
-5.37469e-05
-9.4496e-06
0.000290216
-0.0002802
-0.000161397
0.000198282
0.00022855
1.83903e-05
-0.000246994
0.000329397
-0.000329399
0.000260955
-0.000245018
-1.59377e-05
-0.000302101
-6.79381e-07
0.000304966
9.6473e-06
3.72372e-05
0.000168276
-0.000208356
0.000215897
-3.64096e-05
-0.00018126
0.000278054
-0.000255789
-2.22648e-05
-0.000206579
3.09373e-05
3.15421e-05
-0.000261891
0.000230348
0.000284953
-0.000291964
2.44721e-05
-0.000259617
-0.000257965
1.87881e-05
0.000266057
-1.64361e-05
0.000151173
-0.000267625
0.000116452
0.000298851
-4.42113e-06
0.000238617
-7.53763e-05
2.12521e-05
0.000177045
-0.000198297
-0.000183877
0.000205129
-0.000236275
0.000257219
-2.09441e-05
0.000261462
-3.31689e-05
-0.000228293
-0.000197009
-5.21362e-05
0.000251581
-1.48401e-06
8.84901e-06
-0.000263954
0.000256288
-0.000343995
0.000236846
0.000106645
0.000266371
-0.000236811
-2.95597e-05
0.000306943
-0.000314627
7.78189e-06
-2.57041e-05
-0.000229097
0.000254801
0.000261493
-7.64403e-06
1.03251e-05
-0.00020855
0.000262411
-3.19033e-05
-0.000230508
-6.90483e-05
-0.000260653
-0.000194685
0.000248025
-5.33402e-05
-0.000266533
0.000249985
1.65481e-05
-0.00031796
1.67126e-05
-1.72687e-05
0.000296615
-0.000279114
-0.000276221
1.65481e-05
0.000249537
-0.000166598
6.41083e-05
0.000273698
1.4795e-05
-0.000288459
-0.000316061
0.000307803
8.23678e-06
3.46641e-05
-0.000263649
0.000228985
-1.75344e-05
0.000281352
-0.000315329
1.63475e-05
-0.000176541
-7.42283e-05
-0.000233351
0.000199132
-2.16721e-05
-0.000216469
0.000238141
-0.000314947
0.000296124
1.88695e-05
-0.000133685
0.000274199
-0.000141975
-8.35873e-06
3.31521e-05
-0.000263453
0.000230301
-0.000200019
2.45453e-05
0.000175483
0.000221539
0.000280762
-0.000280853
2.94101e-07
-0.000236993
-2.20921e-05
0.000224813
-0.000202721
0.000139273
0.000143753
-0.000278517
0.000201483
-5.71777e-05
0.000308308
-1.06149e-05
0.000209186
-0.000269012
2.92853e-05
0.00022306
-0.000252345
-0.000321393
0.000138046
0.00029661
2.92291e-05
1.94186e-05
-0.000224355
-2.77845e-05
-0.000135777
-0.000133024
-0.000326507
0.000113757
0.000242873
2.56201e-05
0.000218765
-0.000224869
1.10713e-05
-0.000287831
0.000276655
-0.000243515
0.000270888
-2.71499e-05
0.000281454
-0.000281912
0.000288824
-7.69819e-05
-8.88385e-06
0.000290316
-1.87881e-05
0.000247101
-0.000228313
0.000281507
-0.000290408
-5.59636e-06
-0.00028388
0.000289581
0.000282114
-0.000269572
0.000284415
0.000226314
2.67597e-05
-0.00031151
0.000317336
-8.43339e-06
0.000251359
-2.17118e-05
0.000229335
2.42649e-05
-0.000268913
0.000246057
-2.05381e-05
-0.000259401
3.02849e-05
0.000229116
0.000178305
7.64963e-05
1.01417e-05
0.000281246
-0.000290058
-0.000238141
-2.88401e-05
0.000266981
2.51441e-05
-0.000263285
0.000284117
-0.000162317
-0.000232177
0.000261129
-2.89521e-05
-0.000234697
0.000260709
-2.60121e-05
1.37326e-06
0.000279425
2.45001e-05
-0.000259197
2.38001e-05
-0.000255977
0.000274282
-0.000242854
-3.13889e-05
0.000317824
-1.00375e-05
-0.000307908
-2.42281e-06
-0.000255753
1.1816e-05
0.000243937
-1.6724e-05
-0.000261185
0.000228065
-0.000245337
0.000270145
-2.48081e-05
-0.000263229
1.49801e-05
-2.35644e-05
0.000285891
-0.000262362
2.13641e-05
-0.000266701
-0.000241652
-2.13288e-05
3.26313e-05
-9.0432e-05
0.000260194
0.00028075
-0.000286292
5.05122e-05
0.000237693
0.00028234
-0.000281753
-0.000243181
-2.39401e-05
0.000267121
-0.000260894
7.34723e-06
-0.0002956
1.9362e-05
0.00027644
-0.000268717
2.55361e-05
-8.36382e-06
0.000290561
-0.000268326
0.000243549
2.47772e-05
-0.000232513
0.000210841
0.000280252
-0.000289174
-6.16002e-07
0.000260289
-0.000259673
-0.000301835
-1.61419e-05
-0.000264573
2.35481e-05
-0.00024417
-2.41555e-05
-3.43281e-05
-0.000297965
0.00029394
0.000286674
-0.000158327
0.000295206
-0.000289553
2.30153e-05
4.89491e-06
0.000262577
-0.000255167
-7.21705e-06
0.000307587
-2.02098e-05
-0.000287207
5.9287e-05
-0.000246765
-2.19521e-05
-0.000356326
0.000241681
0.000285741
-0.000281308
2.33801e-05
-0.000189619
-1.61599e-05
-0.000306586
2.56445e-05
0.000280626
-0.000197068
0.000310912
-0.000113786
0.000259841
-0.000238533
-2.13081e-05
-0.000291614
2.94001e-05
0.000222097
-0.000251497
-0.000166185
0.000145078
-0.000172251
0.000251441
-0.000238029
-1.34121e-05
-0.000263873
3.40201e-05
-2.23161e-05
-0.000269837
0.000251469
0.000230427
3.12901e-05
-4.57563e-05
0.000197587
0.000232619
-0.000260499
-1.74076e-05
-3.74235e-06
0.000245022
-0.000242482
-0.000293233
-0.000237049
0.000265189
-2.81401e-05
0.000230096
3.22225e-05
-0.000268521
2.55921e-05
-0.000239905
-2.86161e-05
0.000228954
-0.000260706
-0.000282468
4.73202e-05
-0.000242005
0.000294653
-0.000284206
-0.000288289
1.32449e-05
0.000275636
-4.80053e-06
0.000215585
0.000228551
-0.00026107
0.000296885
-0.0001309
-0.000165985
0.000240908
-0.0002617
0.000269918
-0.000226213
-1.76681e-05
-0.000165001
0.000307408
-0.000142148
2.49649e-05
0.000222662
-0.000247627
-0.000193303
0.000193275
-0.0002837
0.000282265
6.92115e-06
-0.000290637
-0.000302485
0.000146693
0.000155793
0.000259995
-0.000239359
-2.06361e-05
-0.000215741
0.000193649
0.00026211
4.42678e-07
0.000257293
0.000232526
2.16797e-05
-0.000295738
-6.24803e-05
1.0308e-05
0.000234242
-0.000254117
1.73896e-05
-0.000230917
-2.37161e-05
0.000254633
-0.000242295
0.000263191
-2.08965e-05
8.37789e-05
0.00013633
2.01752e-05
-0.000305642
0.00028564
0.000256565
-1.80041e-05
-0.000238561
0.000243881
-0.000254017
1.0136e-05
-0.000226745
0.000207957
0.000223131
-0.000258923
-0.000244693
4.76842e-05
1.59732e-05
-0.000137736
-0.000218647
1.57921e-05
0.000245701
0.000280248
0.000292962
0.00030596
1.72208e-06
0.000249817
-0.000220417
2.51749e-05
0.000225009
-0.000250184
-0.000243178
0.000268865
-2.56873e-05
2.28201e-05
-0.000262725
-0.000108875
0.000295778
9.14023e-06
2.08181e-05
0.000261675
-0.000235103
-2.65721e-05
1.31639e-05
-0.000303687
0.000290672
0.000321812
-3.10024e-05
-0.00029077
0.000249733
1.63241e-05
0.000306167
-0.000293057
-0.000231243
-0.000112753
9.63204e-06
0.000250657
-4.9129e-05
-0.00020239
0.000251519
2.20333e-05
0.000246832
-0.000241686
-2.29629e-05
0.000260737
-2.24001e-05
0.000287749
-0.000268023
2.63369e-05
2.68241e-05
-0.000257965
0.000210617
-0.000207677
2.58161e-05
-0.000262865
0.000280577
0.000121744
-0.000256173
0.000134429
1.95481e-05
3.83768e-05
0.000158696
-0.000197302
-0.000239485
-2.85377e-05
3.99496e-05
0.000163708
-0.00020446
-0.000246691
0.000271066
-2.43747e-05
0.000209866
-0.000248826
1.98857e-05
1.7375e-05
-0.0001733
-3.01943e-05
0.000226701
-0.000257414
-2.88401e-05
0.000244245
-0.000215405
-2.16161e-05
0.000242985
-0.000221369
0.000201657
-0.000250786
-0.000273647
-0.000232905
-2.55081e-05
0.000258413
0.000241234
2.98318e-05
-0.000215083
-2.42467e-05
0.000233062
-2.18821e-05
-0.000224967
-0.000239345
6.28042e-05
0.000259004
-0.000229718
4.75106e-05
-0.000249901
-3.43393e-05
0.000257694
-0.000223354
0.000205675
-0.000240014
0.000261689
-1.1956e-05
-6.06763e-05
-0.000229572
-0.000218763
-1.77701e-05
0.000238979
0.000247109
5.3175e-05
0.000212448
-0.000265623
-0.000261097
0.000177353
-0.000231757
5.44042e-05
6.43641e-05
0.000136803
0.000259457
-0.000240915
-2.47224e-05
-0.000265385
0.000227165
3.82201e-05
-2.87813e-05
-0.000222158
0.00025094
-0.000284357
0.000264161
0.000234501
3.61761e-05
2.18821e-05
0.000234087
-0.000307217
0.000151089
0.000156129
0.000170754
-5.29957e-05
0.000254045
-0.000115192
2.56901e-05
0.000217446
-0.000243136
-0.000286373
0.000286574
9.25258e-06
0.000257377
-0.000245953
0.000208937
3.70161e-05
0.000254832
0.000250087
-1.88805e-05
-0.000246815
-2.02161e-05
-0.000263019
2.0724e-05
-0.000269215
2.24001e-05
2.79601e-05
0.000220024
-0.000247984
0.000242481
-0.000274597
1.32721e-05
0.000244065
-1.4915e-05
1.41037e-05
-0.000247465
-0.000328747
0.000124115
-0.000233135
-2.62109e-05
-0.000252113
0.000252113
0.000259782
-0.000144217
-1.86645e-05
-0.00027864
0.000297236
0.000278041
0.000258749
-0.000135913
0.000224113
2.39205e-05
0.00023468
7.80667e-05
-0.000341282
3.76578e-05
0.000258962
1.76364e-05
-0.000248843
-3.00917e-05
0.000207453
-3.01001e-05
0.000259701
2.95429e-05
0.000218353
-0.000247896
-3.05014e-05
-4.09782e-05
-0.000217818
0.000258797
-0.000233423
-2.14173e-05
3.72179e-05
-0.000195615
0.000158081
-3.30877e-05
0.000221671
-0.000255943
-0.000282068
-8.46295e-06
0.000290423
-0.000193332
0.000161573
0.000166349
8.16763e-05
1.28153e-05
-0.000294795
0.000235075
2.59446e-05
-0.000261019
-0.000195413
-1.39034e-06
0.000232743
-0.000264287
3.15449e-05
-8.42803e-06
-0.000217029
0.000225457
-0.000161077
0.000197522
-0.000249985
-3.46025e-05
0.000256274
0.000218076
-0.000252679
-0.000246289
0.000272245
-2.59561e-05
0.000253547
2.78321e-05
-0.000232062
-2.95821e-05
-0.000298409
0.000316643
-1.81997e-05
2.34233e-05
0.000212462
-0.000250254
-0.000267233
2.09441e-05
-2.12801e-05
-0.000245953
-3.61481e-05
0.00024861
-0.000290041
-1.35953e-05
0.00022082
-0.000256968
0.000247713
-0.000251036
1.94693e-06
2.80002e-06
0.000181413
-0.000184213
0.000255294
0.000234529
2.67681e-05
-2.62361e-05
0.000245001
-0.000218765
3.36001e-05
0.000216609
-0.000250209
0.000244861
2.73841e-05
0.000306545
-0.000143949
-0.000162597
1.54835e-05
0.000237894
-0.000256666
0.000271013
-0.000113568
0.000225569
-0.000256677
-0.000241139
0.00010502
-0.000265469
7.16803e-06
-0.000241635
-2.75801e-05
-0.000241361
-2.48081e-05
0.000310768
-2.73793e-05
-7.67483e-05
0.000243097
-1.1452e-05
-0.000215601
0.000224281
-8.68003e-06
0.000255193
-7.68883e-05
3.41623e-05
-0.000194034
0.000160278
-0.000265245
-1.40001e-07
-4.14962e-05
4.00553e-05
0.000153213
-0.000193373
0.000195387
-0.000160704
0.000257041
-7.05603e-06
0.000251151
-0.000218277
-1.82315e-05
-2.1128e-05
0.000275555
-9.43297e-05
-0.000179669
-1.42801e-05
-0.000191913
0.000206193
0.000258665
-1.53553e-05
-0.00024331
1.98101e-05
0.000238855
-0.000279965
-7.86119e-06
3.62045e-05
-0.000202189
0.000162578
1.36921e-05
0.000247997
-0.000166303
0.000201231
-1.95189e-05
0.000248711
3.38787e-05
0.000191785
-0.000225944
-4.17202e-06
-2.49389e-05
0.000265108
-0.000231955
-3.14693e-05
0.000297233
-0.000281954
-1.53301e-05
1.63717e-05
-0.000237659
0.000221288
-0.00010514
0.000226885
1.93052e-05
-0.000305289
0.000286041
2.52001e-05
-2.79441e-05
2.69165e-05
0.000308964
-0.000289669
0.000238891
1.97345e-05
2.15601e-06
0.000231617
-0.000233773
-0.000310609
2.55859e-05
0.000284587
-0.000162177
-0.000144145
0.000209178
-0.000250156
-0.000164271
0.000241924
1.90317e-05
0.000257409
-4.13534e-05
0.000250531
0.000214498
-0.000255851
0.000319152
-0.000319107
-1.08839e-05
0.000287445
-0.000276938
-0.000302948
1.95758e-05
0.000283395
4.20842e-05
-0.000286413
-3.86491e-05
0.000252483
2.62921e-05
-2.21211e-05
0.000307411
-0.000285244
2.43321e-05
3.95561e-05
0.000161978
-0.000200117
0.000249294
-0.000219751
2.83277e-05
-0.000261633
4.36802e-06
-1.99811e-05
0.000306619
-0.000286584
-0.000250987
-0.000266673
3.07441e-05
0.000252141
-0.000236741
-1.54001e-05
1.2264e-05
0.000239877
-0.000274847
-1.27358e-05
0.000255697
-7.03509e-06
0.000318553
-1.18855e-05
0.000298925
-0.000287075
-4.7855e-05
0.000247437
-0.000235621
0.000257601
-1.99361e-05
0.000134712
9.12048e-05
-0.000214266
0.000234804
3.03493e-05
0.000226759
-0.000258662
3.71393e-05
0.000271512
-0.00028884
1.67536e-05
0.000251273
-0.000239093
-1.31321e-05
0.000252225
-2.91201e-05
-0.000257265
2.56481e-05
0.000231617
-0.000228005
-2.92601e-05
0.000259765
-0.000233571
-2.61941e-05
0.000258721
-0.000265849
2.40689e-06
0.000288655
1.21909e-06
-0.000289929
0.000246786
-0.000236166
-1.85921e-05
0.000308803
-0.000300786
-8.00628e-06
0.000254996
-0.000102014
-0.000266897
2.56761e-05
0.000241221
-3.48881e-05
-0.000232009
-0.000266393
2.51161e-05
0.000241277
-1.22863e-05
-0.000267808
0.000280095
-3.45241e-05
-0.000231869
-0.000261679
1.89281e-05
-0.000266281
2.43881e-05
0.000241893
-0.000284046
-2.14893e-05
-0.000306279
2.7654e-05
0.000278612
-3.34041e-05
-0.000232877
-0.000168502
-0.000258133
2.94001e-05
0.000228733
0.000307901
-0.000307898
-0.000195805
0.000209049
-3.29281e-05
-0.000225205
0.000197663
-0.000279515
8.17401e-05
0.000283777
2.23093e-05
-0.000301953
1.76961e-05
0.000285889
-0.000281092
-4.96935e-06
-0.000257125
0.000231617
2.55081e-05
0.000166348
2.9765e-05
-0.000207988
-0.000266953
2.81681e-05
0.000238785
-0.000227361
-2.97641e-05
-3.67361e-05
-0.000230217
0.000277075
0.000297526
1.91184e-05
-0.000276036
-3.19475e-05
0.000307887
-0.000258679
-1.11141e-05
0.000298146
-0.000287823
1.49746e-05
-0.000301699
0.000286717
-0.000230609
-0.000307213
0.00028724
0.000263005
-2.55448e-05
-0.000280729
1.36081e-05
0.000165714
0.000233036
1.84757e-05
-0.000249022
-0.000194958
0.000157769
0.000236738
1.31517e-05
-0.00024989
-0.00025833
2.66093e-05
0.000231721
-1.09228e-05
0.000247661
5.74002e-06
0.000246877
-3.19817e-05
-0.000226348
0.0002996
-0.000285717
-1.38102e-05
0.000228024
-0.000226666
0.000289881
0.000237685
1.98521e-05
-0.000257537
-1.24236e-05
0.000250108
0.000246636
1.50389e-05
-0.000305528
1.5382e-05
0.00024448
2.18905e-05
3.23192e-05
-0.000199867
-0.000287449
-1.7778e-05
-0.000182869
0.000295177
-0.000151318
0.00018153
-3.36561e-05
2.99041e-05
-0.00020604
0.000176718
-0.000169352
0.000259149
-0.000239236
-1.99137e-05
0.000261221
-0.000274176
-0.0002415
0.000234381
-2.18739e-05
0.000301327
-0.000279428
0.000307924
-0.000292943
0.000242117
1.77241e-05
-0.000224975
0.00024443
-1.94545e-05
1.61001e-05
-0.000241075
-7.00003e-06
0.000260989
-0.000297124
4.86189e-06
0.000292228
-0.000174497
0.000160217
-1.74105e-05
-6.26066e-06
-0.00029087
-1.67605e-05
-0.000285008
4.28402e-06
-0.000299716
0.000135716
-0.000257464
2.37578e-05
0.000233739
0.000238197
1.32441e-05
-3.08141e-05
-0.000226663
-3.31631e-05
-0.000292698
2.08266e-05
-0.000223729
0.000204963
0.000254969
-0.000233465
-2.15041e-05
-0.000192321
0.000215722
-0.000186029
-7.53737e-06
0.000203562
0.000138922
0.000138702
3.94634e-06
0.000270393
0.000279956
-0.000305449
3.0653e-06
0.000243671
-1.98279e-05
0.000298656
-0.000278838
-0.000302268
0.000287523
1.47666e-05
-0.000258301
0.000230077
2.82241e-05
-2.64041e-05
-0.000231897
0.000302048
-0.00030105
0.000267347
-2.0028e-05
0.00030444
-0.000284339
0.000286099
-3.48372e-07
-0.000256873
0.000256873
-0.000268237
0.000295853
-0.000141975
-6.58567e-05
-6.81244e-06
0.000294404
-0.000287286
-0.000297511
0.000290546
0.000292134
-0.000278952
0.000290343
-0.000305352
1.48494e-05
3.46281e-05
-0.000242449
0.000212487
2.37121e-05
-1.45605e-05
-0.000244209
0.000230472
-1.4446e-05
0.0002981
-0.000284234
0.000263481
-1.96001e-05
0.000254224
-0.000235464
-1.87601e-05
-3.09984e-05
-0.000273857
0.000304847
1.43508e-05
-0.000297123
0.000282738
-1.45881e-05
0.000233465
-0.000218877
0.000207526
-0.000295252
0.000283121
-1.91908e-05
0.000304612
-0.000285495
0.00025102
-2.68737e-05
0.000297421
-0.000270542
-0.000295827
0.000268915
1.07156e-05
0.000244749
-0.000255465
0.000305156
-0.000311953
6.82099e-06
1.81751e-05
1.50842e-05
0.000286765
-0.000301371
6.35564e-06
0.000282778
2.31725e-06
-0.000318441
-0.000289538
0.000304127
-0.000242481
0.000243657
8.45603e-06
-0.0002264
0.000242772
-0.000293558
0.000274284
0.000284023
-0.000145578
-8.21039e-05
0.000294416
1.44659e-05
3.22331e-05
-0.000193541
0.000161559
-0.00027466
0.000257293
-0.000219535
0.00024982
0.000243411
1.92865e-05
-0.000262697
0.000236019
2.31309e-05
-0.000301436
0.000283045
0.000312253
-1.79519e-05
0.000237945
-0.000257069
1.91241e-05
-0.000222494
0.000247459
0.00029421
1.80292e-05
-0.000163981
-1.45617e-05
0.000298198
-0.000283503
-0.000142787
-0.000266415
0.000159993
0.000106423
-0.000309072
0.000295391
1.3647e-05
-0.000258699
0.000241826
1.68729e-05
-0.000146588
0.000146687
-0.000306704
0.000288777
1.79728e-05
-0.000223359
0.000179675
-9.69084e-06
0.000253101
2.04984e-05
1.75619e-05
-0.000304546
0.000286792
-0.000300848
-7.21692e-06
0.000307909
-0.000249229
0.000220109
-0.000201153
-8.52603e-05
-0.000272626
0.000250659
0.000303816
-0.000286351
-0.000189131
1.7743e-05
1.50183e-05
0.000284397
-0.000299429
-8.80603e-05
0.000239233
-0.000303826
1.93936e-05
0.000284456
-0.000206179
-2.89838e-06
-0.000298012
-0.000167452
2.05297e-05
0.000302906
-0.000288502
-1.43816e-05
-0.000173376
-0.000299255
-0.000174527
-2.26183e-05
0.000243528
0.000289538
1.72087e-05
0.000252869
5.77304e-05
-0.000285779
-0.000247213
-0.000271255
-2.33016e-05
-0.000274769
0.000300386
-0.000262785
0.000282319
-0.000167517
-4.21488e-05
0.000212132
0.000197569
1.56521e-05
-0.000213221
-1.24784e-05
-0.000285751
0.000298284
1.83597e-05
1.84731e-05
-0.000305439
0.000286836
0.000253345
-1.71361e-05
-0.000236209
1.89343e-05
-0.000304755
0.000285821
2.03561e-05
0.000232989
0.000216385
-2.46121e-05
-0.000191773
1.56953e-05
0.000282551
-0.000298377
-0.00025186
0.00011836
-0.000303665
1.86113e-05
0.000285024
0.000208116
-4.96277e-05
-0.000296431
1.57067e-05
0.000280434
0.000255837
-2.19801e-05
-0.000233857
-0.000303221
0.00010613
0.000234529
1.70521e-05
-0.000251581
0.000280104
1.67423e-05
0.000304126
-0.000285203
1.78342e-05
-0.000299549
0.000233512
1.84916e-05
-0.000252004
-1.90619e-05
-1.42918e-05
0.000298395
-0.000284064
-0.000280346
0.000299844
-0.000277998
0.000291573
-0.000304254
1.245e-05
0.000249741
-1.62291e-05
1.15121e-05
0.000250041
-1.55121e-05
0.000298772
-0.000283034
3.95922e-05