/*--------------------------------*- C++ -*----------------------------------*\
  =========                 |
  \\      /  F ield         | OpenFOAM: The Open Source CFD Toolbox
   \\    /   O peration     | Website:  https://openfoam.org
    \\  /    A nd           | Version:  12
     \\/     M anipulation  |
\*---------------------------------------------------------------------------*/
FoamFile
{
    format      ascii;
    class       volScalarField;
    location    "2.4";
    object      T;
}
// * * * * * * * * * * * * * * * * * * * * * * * * * * * * * * * * * * * * * //

dimensions      [0 0 0 1 0 0 0];

internalField   nonuniform List<scalar> 
9801
(
0.911118
0.91257
0.915543
0.917047
0.917408
0.91742
0.916665
0.916322
0.916524
0.916953
0.918068
0.920538
0.92286
0.923577
0.923802
0.923385
0.922994
0.922988
0.923179
0.923612
0.924996
0.92771
0.929267
0.929718
0.929632
0.92932
0.929299
0.929496
0.929992
0.93083
0.933255
0.935798
0.936695
0.936961
0.936852
0.936817
0.937076
0.93758
0.938139
0.939839
0.942729
0.944362
0.944891
0.945027
0.944836
0.945052
0.945541
0.946134
0.947277
0.949977
0.952393
0.953338
0.953489
0.953539
0.953752
0.953804
0.95453
0.955453
0.957635
0.961076
0.962867
0.963196
0.962952
0.962879
0.963092
0.963555
0.964391
0.965902
0.970016
0.973253
0.974216
0.974232
0.973139
0.973041
0.973589
0.974492
0.975992
0.979698
0.984463
0.986798
0.987786
0.986975
0.984921
0.984963
0.986075
0.988226
0.992662
0.999825
1.0043
1.007
1.00839
1.00672
1.00457
1.00705
1.01263
1.02541
1.03929
1.13303
1.41754
0.913283
0.915103
0.917308
0.918595
0.919272
0.919549
0.918778
0.918391
0.918696
0.919162
0.92028
0.922529
0.92435
0.925273
0.925774
0.925504
0.924583
0.9246
0.925004
0.925657
0.927293
0.929462
0.930874
0.931645
0.931899
0.931155
0.93089
0.931305
0.932004
0.933119
0.935371
0.937343
0.938454
0.939111
0.938869
0.938255
0.938599
0.939312
0.94015
0.942093
0.944429
0.945934
0.946823
0.94713
0.946205
0.946263
0.946958
0.947817
0.949248
0.951845
0.953964
0.955123
0.955682
0.955181
0.954725
0.954977
0.956024
0.957128
0.95922
0.962298
0.964333
0.965158
0.965093
0.963935
0.964005
0.964788
0.965841
0.967313
0.971086
0.974312
0.97571
0.976466
0.974996
0.973825
0.974485
0.975645
0.977107
0.980768
0.985625
0.988176
0.989569
0.989535
0.986692
0.986014
0.98761
0.989702
0.994126
1.00022
1.00435
1.00734
1.01012
1.00994
1.00707
1.00766
1.01223
1.02144
1.0331
1.12636
1.42442
0.915085
0.917009
0.918969
0.919971
0.920607
0.920939
0.920387
0.920167
0.920534
0.921099
0.922239
0.92438
0.925992
0.926865
0.927434
0.927346
0.926516
0.9265
0.92696
0.92774
0.92947
0.931543
0.932798
0.933569
0.933902
0.933272
0.932906
0.933288
0.934012
0.935201
0.93747
0.939274
0.940334
0.941076
0.941013
0.940384
0.940606
0.941276
0.942215
0.944185
0.946487
0.947918
0.948886
0.949325
0.948505
0.948433
0.949025
0.949886
0.951283
0.9539
0.956061
0.957288
0.957973
0.957673
0.957023
0.957186
0.958186
0.959331
0.961355
0.964381
0.966447
0.967469
0.96771
0.966523
0.966223
0.966936
0.968144
0.969793
0.973299
0.976445
0.978042
0.979083
0.978305
0.976609
0.976837
0.978016
0.979576
0.98288
0.987648
0.990587
0.992354
0.993258
0.991089
0.989363
0.990632
0.992819
0.996264
1.00217
1.00738
1.011
1.01435
1.01556
1.01302
1.01366
1.01813
1.02675
1.03609
1.12941
1.43075
0.917228
0.919335
0.921024
0.92182
0.922354
0.922728
0.922413
0.922343
0.922746
0.92337
0.924621
0.926643
0.928057
0.928856
0.929429
0.929576
0.928972
0.928943
0.929383
0.930213
0.932051
0.934011
0.935169
0.935864
0.936272
0.935883
0.935468
0.935748
0.9364
0.937712
0.940035
0.941748
0.942726
0.943434
0.943584
0.942962
0.943026
0.943602
0.944597
0.94669
0.949041
0.950493
0.951446
0.951988
0.951358
0.951035
0.951454
0.952247
0.953682
0.956383
0.958679
0.959969
0.960774
0.960833
0.95996
0.959832
0.96065
0.961774
0.963943
0.967089
0.969212
0.970331
0.971025
0.970144
0.969255
0.9697
0.970788
0.972466
0.976004
0.979418
0.98123
0.982493
0.982692
0.980725
0.980111
0.98114
0.982748
0.985672
0.990666
0.994284
0.996364
0.997953
0.997079
0.994444
0.994599
0.996747
0.999611
1.00485
1.01069
1.01482
1.01832
1.02144
1.02067
1.01909
1.02115
1.02775
1.0345
1.13174
1.43366
0.918996
0.921063
0.923035
0.923967
0.924555
0.924994
0.924737
0.924473
0.924792
0.925391
0.92668
0.928803
0.930233
0.931063
0.931664
0.931936
0.93153
0.93143
0.931817
0.932563
0.93442
0.936422
0.937588
0.938309
0.938788
0.938603
0.93811
0.938297
0.938876
0.940156
0.942574
0.944295
0.945269
0.945965
0.946219
0.945617
0.945532
0.946082
0.947018
0.949117
0.951612
0.95316
0.954152
0.954769
0.954322
0.953754
0.95408
0.954869
0.95628
0.95901
0.961401
0.962773
0.963664
0.964082
0.963122
0.962646
0.963405
0.964514
0.966701
0.969978
0.972244
0.973457
0.974387
0.974083
0.972623
0.972645
0.973662
0.975216
0.978669
0.982601
0.984721
0.98603
0.986838
0.985361
0.983824
0.984341
0.985839
0.988095
0.99273
0.997305
0.999952
1.00178
1.00252
1.00008
0.998636
0.999904
1.00245
1.00667
1.01259
1.01732
1.02107
1.02477
1.02623
1.02428
1.02375
1.02694
1.03116
1.13152
1.43395
0.920702
0.921993
0.924591
0.926094
0.926912
0.927454
0.927438
0.926955
0.926913
0.927283
0.928226
0.930445
0.932273
0.933304
0.933997
0.934421
0.934184
0.93387
0.934135
0.934772
0.936478
0.938693
0.939999
0.940802
0.94139
0.941382
0.940744
0.940773
0.941295
0.942422
0.944869
0.946729
0.947748
0.948476
0.948869
0.948305
0.948003
0.948488
0.949365
0.951314
0.953992
0.955686
0.956737
0.95744
0.957293
0.956469
0.956539
0.95727
0.958538
0.961279
0.96395
0.965459
0.966426
0.967142
0.96641
0.965348
0.965801
0.96679
0.96869
0.972259
0.974989
0.97636
0.977382
0.97768
0.976142
0.975397
0.976132
0.977393
0.980065
0.984534
0.987522
0.989089
0.990217
0.989608
0.98749
0.987105
0.988237
0.989917
0.993379
0.998717
1.00231
1.00451
1.00615
1.00526
1.00242
1.00232
1.00428
1.00722
1.01235
1.01745
1.02142
1.02499
1.02821
1.02828
1.0259
1.02557
1.027
1.12888
1.43319
0.922555
0.923415
0.925852
0.927852
0.928943
0.929602
0.929964
0.929518
0.928983
0.929222
0.929902
0.931859
0.934021
0.935245
0.936033
0.9366
0.936522
0.935996
0.936179
0.936782
0.938333
0.940689
0.942166
0.943059
0.943721
0.943842
0.943093
0.942949
0.94343
0.944444
0.946824
0.948867
0.949965
0.950731
0.951261
0.95082
0.950222
0.950562
0.95138
0.953104
0.955939
0.957851
0.958957
0.959726
0.959948
0.959087
0.95873
0.959328
0.960401
0.962912
0.965977
0.967696
0.968719
0.969571
0.969311
0.96794
0.967907
0.968751
0.970127
0.973519
0.97698
0.978721
0.979812
0.980483
0.979262
0.977952
0.978163
0.979192
0.980825
0.984914
0.98913
0.991312
0.992642
0.993053
0.990965
0.989533
0.989974
0.991364
0.993452
0.998209
1.00302
1.00579
1.00771
1.00877
1.00662
1.00466
1.00537
1.00747
1.01114
1.0166
1.02099
1.02445
1.02756
1.0295
1.02859
1.02597
1.0237
1.12499
1.43173
0.924557
0.925334
0.927475
0.929274
0.930405
0.93115
0.931667
0.931283
0.930865
0.931191
0.931832
0.933688
0.935712
0.936902
0.937717
0.938339
0.93826
0.937695
0.937914
0.938553
0.940081
0.942484
0.944039
0.944973
0.945658
0.945869
0.945116
0.944822
0.945247
0.946136
0.948392
0.95068
0.95189
0.952681
0.953281
0.953034
0.952212
0.952302
0.952999
0.95432
0.957219
0.959553
0.960784
0.961599
0.962075
0.96133
0.960665
0.96101
0.961872
0.963723
0.96713
0.96936
0.970507
0.97141
0.971564
0.970173
0.969763
0.970344
0.971339
0.973686
0.977828
0.980309
0.981588
0.982472
0.981906
0.980157
0.979821
0.980535
0.98171
0.984295
0.989239
0.992527
0.994217
0.995384
0.99451
0.991905
0.991467
0.99246
0.993944
0.996849
1.00219
1.00608
1.00837
1.01016
1.01059
1.00778
1.00651
1.00776
1.01009
1.01444
1.01937
1.02306
1.02622
1.02902
1.02993
1.0279
1.02333
1.12052
1.43006
0.926244
0.927411
0.929183
0.930611
0.93156
0.932261
0.932656
0.932182
0.93214
0.932659
0.933637
0.935561
0.937282
0.938391
0.939176
0.939765
0.939584
0.939052
0.9393
0.939943
0.941418
0.943958
0.945603
0.946543
0.947233
0.947522
0.946828
0.946454
0.946795
0.947512
0.949435
0.952091
0.953532
0.95434
0.954957
0.954864
0.953901
0.953753
0.954281
0.955193
0.957781
0.960717
0.962226
0.963104
0.963732
0.963271
0.962241
0.962292
0.962972
0.964143
0.967389
0.970454
0.971942
0.972921
0.973457
0.972301
0.971321
0.971512
0.972306
0.973643
0.977476
0.981217
0.98298
0.98401
0.984313
0.982517
0.981282
0.981568
0.982542
0.983948
0.987922
0.992702
0.995135
0.996517
0.997251
0.995261
0.993185
0.993386
0.994542
0.996192
1.00016
1.00533
1.00854
1.01058
1.01213
1.01161
1.00885
1.00838
1.00989
1.01254
1.0172
1.02157
1.02478
1.02754
1.02954
1.02927
1.02521
1.11723
1.42846
0.927432
0.929487
0.930943
0.931911
0.932698
0.933312
0.933376
0.932896
0.933044
0.933623
0.934756
0.937137
0.93889
0.939787
0.940494
0.941026
0.940808
0.940286
0.940473
0.941045
0.942189
0.944873
0.946925
0.947906
0.948592
0.948959
0.948345
0.947836
0.948079
0.948672
0.950039
0.952949
0.954874
0.955781
0.956408
0.956507
0.955464
0.954977
0.955348
0.956057
0.957943
0.961334
0.963327
0.964324
0.965042
0.964995
0.963709
0.963348
0.963853
0.964712
0.967084
0.970962
0.973083
0.974193
0.974966
0.974384
0.972779
0.972464
0.973017
0.97398
0.976398
0.981085
0.983939
0.985313
0.986149
0.985287
0.983032
0.982547
0.983184
0.98425
0.986292
0.991318
0.99533
0.997224
0.998558
0.998772
0.995948
0.994454
0.995134
0.996481
0.99859
1.00324
1.00776
1.01044
1.0123
1.01375
1.01285
1.01021
1.01018
1.01183
1.01474
1.01937
1.0232
1.026
1.02821
1.02915
1.02746
1.1155
1.42695
0.928141
0.930701
0.932582
0.933331
0.933852
0.934289
0.934224
0.933859
0.933959
0.934449
0.9353
0.9377
0.940132
0.941214
0.94181
0.942255
0.941998
0.941396
0.941453
0.941922
0.942719
0.945109
0.947855
0.949176
0.949903
0.950376
0.949883
0.949083
0.949122
0.949626
0.950554
0.953243
0.955837
0.957034
0.957718
0.958021
0.957063
0.956172
0.956366
0.956963
0.958115
0.961362
0.964076
0.965334
0.966126
0.966502
0.96528
0.964391
0.96473
0.965477
0.966846
0.970659
0.973866
0.975315
0.976162
0.97629
0.974557
0.973446
0.973749
0.974582
0.97589
0.979732
0.984151
0.9862
0.987358
0.9878
0.98577
0.983831
0.983895
0.984761
0.985994
0.98913
0.994476
0.997676
0.999274
1.00036
0.999635
0.996847
0.996084
0.99697
0.998372
1.00105
1.00603
1.00999
1.01242
1.01427
1.01529
1.01381
1.01159
1.01185
1.01352
1.01656
1.02097
1.02432
1.0266
1.02797
1.0287
1.11588
1.42544
0.928701
0.930699
0.933399
0.93478
0.935217
0.935496
0.935301
0.934831
0.934822
0.935211
0.935833
0.937514
0.940624
0.942401
0.94317
0.943583
0.943381
0.942524
0.942294
0.942677
0.943365
0.945149
0.948355
0.950245
0.951144
0.95168
0.951415
0.950285
0.950039
0.950489
0.951221
0.953264
0.956388
0.958045
0.958879
0.959381
0.958837
0.95758
0.957402
0.957856
0.9586
0.960993
0.964447
0.966203
0.96712
0.967802
0.967125
0.965706
0.965647
0.966256
0.967128
0.969605
0.973832
0.976091
0.977185
0.977863
0.976958
0.975001
0.974714
0.975338
0.97625
0.978153
0.982983
0.986552
0.988116
0.989198
0.989013
0.986266
0.985034
0.985599
0.986622
0.988044
0.992086
0.996974
0.999428
1.00088
1.00199
1.00069
0.997978
0.997689
0.99879
1.00039
1.00369
1.00851
1.01191
1.01407
1.01582
1.01673
1.01504
1.01299
1.01334
1.01486
1.01782
1.02188
1.02483
1.02642
1.02848
1.11749
1.42386
0.929345
0.930315
0.933151
0.935504
0.936526
0.936989
0.937018
0.936217
0.935765
0.935992
0.936532
0.937555
0.940467
0.942992
0.94414
0.944781
0.944961
0.943951
0.94328
0.943564
0.944193
0.945433
0.948463
0.950897
0.95204
0.952715
0.952878
0.951762
0.951085
0.951394
0.952039
0.953369
0.956523
0.958837
0.959911
0.960559
0.960609
0.959295
0.958536
0.958734
0.959317
0.960703
0.964301
0.966941
0.968144
0.96894
0.969035
0.967469
0.966675
0.966967
0.967646
0.968852
0.972677
0.97653
0.978224
0.979183
0.979449
0.9775
0.976013
0.976111
0.976763
0.977768
0.980783
0.985862
0.988626
0.989952
0.990914
0.989968
0.987389
0.986761
0.987351
0.988295
0.99013
0.994919
0.999254
1.00139
1.00277
1.00339
1.0016
0.999489
0.999587
1.00069
1.00241
1.00611
1.01069
1.01371
1.01575
1.01741
1.01803
1.01619
1.01423
1.01447
1.01576
1.01857
1.02226
1.02454
1.02735
1.11976
1.42219
0.930065
0.930531
0.932313
0.935575
0.937356
0.938244
0.938725
0.938276
0.937115
0.936937
0.937352
0.938046
0.940091
0.943083
0.944694
0.945556
0.946155
0.945819
0.944715
0.944646
0.94513
0.94593
0.948266
0.951162
0.95267
0.953511
0.954073
0.953542
0.952423
0.9524
0.952916
0.953758
0.95632
0.959373
0.960868
0.961653
0.962114
0.961256
0.959864
0.959685
0.960154
0.960964
0.963625
0.967332
0.969123
0.970042
0.970621
0.969633
0.967931
0.967697
0.968269
0.969116
0.971255
0.975987
0.979003
0.980307
0.981153
0.980476
0.977918
0.976973
0.97745
0.97829
0.979597
0.983695
0.988402
0.990592
0.991812
0.992635
0.990824
0.9883
0.988062
0.98894
0.990072
0.992507
0.997501
1.00113
1.00292
1.00433
1.00506
1.00297
1.00098
1.00125
1.00243
1.00429
1.00823
1.0125
1.01526
1.01716
1.01868
1.01922
1.01737
1.01527
1.01529
1.01623
1.01884
1.02185
1.02528
1.122
1.42038
0.930968
0.931084
0.932059
0.935133
0.93783
0.93908
0.939833
0.940148
0.939091
0.93819
0.938278
0.938733
0.939931
0.942902
0.945159
0.946289
0.947045
0.947399
0.946477
0.945826
0.946033
0.946571
0.948056
0.95122
0.953292
0.954323
0.955042
0.955221
0.954034
0.953467
0.953779
0.954416
0.956041
0.959512
0.961715
0.962731
0.963359
0.96321
0.96157
0.960815
0.961069
0.9617
0.963028
0.966857
0.969846
0.971159
0.971872
0.971863
0.969879
0.968763
0.969087
0.969867
0.970867
0.974074
0.978704
0.980967
0.982115
0.982724
0.981175
0.978767
0.978408
0.979048
0.979955
0.981781
0.986589
0.990622
0.992452
0.993529
0.993811
0.991603
0.989665
0.989785
0.990693
0.991944
0.994947
0.999956
1.00318
1.00487
1.00606
1.00623
1.00406
1.00248
1.00289
1.00406
1.00601
1.01005
1.01409
1.01665
1.01843
1.01981
1.02024
1.01846
1.01607
1.0156
1.01629
1.01841
1.02254
1.12339
1.41832
0.932065
0.931961
0.932627
0.935031
0.938099
0.939731
0.940605
0.94119
0.940911
0.939609
0.939215
0.939554
0.940348
0.942891
0.94566
0.947076
0.947902
0.948491
0.948091
0.946951
0.946842
0.947337
0.94829
0.951109
0.953884
0.955204
0.955989
0.956538
0.955797
0.954654
0.954665
0.955201
0.95612
0.959082
0.962297
0.963776
0.964523
0.964926
0.96372
0.962228
0.962071
0.962517
0.963214
0.965616
0.969866
0.972066
0.973103
0.973663
0.972617
0.970541
0.970165
0.970647
0.971315
0.972517
0.97665
0.980938
0.982802
0.983922
0.984301
0.982002
0.979956
0.979983
0.980755
0.981682
0.98387
0.988881
0.992324
0.993847
0.995066
0.995291
0.992726
0.991098
0.991479
0.992463
0.993826
0.997166
1.00187
1.00459
1.00609
1.00742
1.00776
1.00556
1.00404
1.00445
1.00558
1.00754
1.01153
1.01538
1.01778
1.01943
1.02065
1.02107
1.0195
1.01663
1.01546
1.01565
1.01924
1.12289
1.41592
0.93333
0.933172
0.933701
0.935464
0.938409
0.940239
0.941176
0.941787
0.942011
0.940892
0.940229
0.940568
0.941231
0.943216
0.946233
0.947874
0.948743
0.949378
0.949388
0.948201
0.947795
0.948178
0.948842
0.950806
0.954203
0.956092
0.957
0.957675
0.957557
0.956108
0.955616
0.95597
0.95663
0.958391
0.962262
0.964632
0.965705
0.966328
0.965988
0.964031
0.963153
0.963363
0.96394
0.964974
0.968628
0.972519
0.974148
0.975018
0.975208
0.973234
0.971393
0.971214
0.971765
0.972603
0.974564
0.979533
0.983201
0.984723
0.985703
0.985542
0.982889
0.981329
0.981458
0.982147
0.9832
0.986151
0.991347
0.994416
0.995809
0.996785
0.996412
0.993878
0.992702
0.993137
0.994013
0.995369
0.999031
1.00364
1.00629
1.00785
1.00902
1.00911
1.00698
1.00553
1.00589
1.00696
1.0088
1.01268
1.01641
1.01868
1.0202
1.02125
1.02166
1.02032
1.01719
1.01469
1.01595
1.12004
1.41322
0.934636
0.934576
0.935045
0.936235
0.938899
0.940761
0.941755
0.942418
0.942736
0.941985
0.941374
0.941646
0.942226
0.943561
0.946617
0.948705
0.949664
0.950345
0.950626
0.949586
0.948775
0.948937
0.949509
0.950696
0.954089
0.956861
0.958096
0.958805
0.959124
0.957821
0.95665
0.956737
0.957324
0.958265
0.961378
0.96507
0.966712
0.96751
0.967877
0.966422
0.964619
0.964381
0.964822
0.965447
0.967109
0.971588
0.974766
0.976054
0.976819
0.976376
0.973673
0.97229
0.972607
0.973431
0.974383
0.977056
0.982099
0.984969
0.986247
0.987175
0.986585
0.983694
0.982487
0.982969
0.983915
0.985163
0.988631
0.993408
0.995872
0.997176
0.99823
0.997742
0.995071
0.993957
0.994529
0.995584
0.99716
1.00099
1.00528
1.00768
1.00914
1.01032
1.01055
1.00854
1.00697
1.00717
1.00819
1.0099
1.01358
1.01719
1.01936
1.02069
1.02162
1.02196
1.02093
1.01716
1.0145
1.11478
1.4104
0.935871
0.935826
0.936213
0.937014
0.9394
0.941516
0.942504
0.943167
0.94358
0.943094
0.942433
0.942576
0.943095
0.943952
0.946642
0.949447
0.950728
0.951377
0.951771
0.95098
0.949741
0.949719
0.950294
0.951143
0.953653
0.95727
0.959048
0.959893
0.960368
0.959674
0.957988
0.957632
0.958104
0.958819
0.960321
0.964342
0.967324
0.9686
0.969253
0.969046
0.96687
0.965672
0.965766
0.966267
0.966957
0.969483
0.974123
0.976596
0.977649
0.978331
0.977364
0.974781
0.974021
0.974432
0.975092
0.976019
0.979275
0.984053
0.986466
0.987651
0.988476
0.987543
0.985063
0.984403
0.984931
0.985669
0.986843
0.99056
0.99504
0.997359
0.998675
0.999517
0.99885
0.996584
0.995758
0.996339
0.997262
0.99883
1.00259
1.00666
1.00903
1.01049
1.01162
1.01183
1.01003
1.00841
1.00843
1.00931
1.01081
1.01419
1.01767
1.01974
1.02097
1.02174
1.02205
1.02068
1.01693
1.1098
1.4077
0.937014
0.936763
0.937024
0.937667
0.939537
0.94221
0.943496
0.944101
0.944558
0.944381
0.943519
0.943428
0.943903
0.944591
0.946388
0.949703
0.951577
0.952392
0.952828
0.952485
0.95112
0.950777
0.951274
0.951974
0.953255
0.956737
0.959521
0.960702
0.961341
0.96154
0.960012
0.958848
0.958948
0.959468
0.960186
0.962547
0.967001
0.969384
0.970447
0.970986
0.969895
0.967543
0.966842
0.96713
0.967687
0.968514
0.971806
0.976314
0.978386
0.97936
0.979992
0.978356
0.975741
0.975089
0.975474
0.976175
0.977449
0.981423
0.985915
0.988009
0.989163
0.990091
0.988809
0.98627
0.98558
0.986029
0.986852
0.988289
0.992335
0.996557
0.998637
0.999886
1.00105
1.00056
0.998141
0.997189
0.997679
0.998613
1.00006
1.00375
1.00784
1.0102
1.0116
1.01275
1.01321
1.01171
1.00985
1.00956
1.01028
1.01148
1.01443
1.01786
1.01992
1.02103
1.02175
1.02167
1.02087
1.10796
1.40519
0.938207
0.937653
0.937817
0.93833
0.939386
0.942239
0.944289
0.94513
0.945692
0.945918
0.945016
0.944514
0.94481
0.945363
0.946186
0.948939
0.951797
0.95308
0.953792
0.954234
0.95332
0.952286
0.952354
0.952806
0.953403
0.955326
0.95923
0.961414
0.962412
0.963011
0.962493
0.96052
0.959789
0.960066
0.960698
0.961683
0.965165
0.969447
0.971336
0.972246
0.972518
0.970653
0.968537
0.968129
0.968433
0.968986
0.97019
0.974369
0.978451
0.980148
0.980967
0.981215
0.97904
0.976603
0.976282
0.976916
0.977769
0.979404
0.983834
0.987899
0.989742
0.990727
0.991232
0.989682
0.987284
0.986806
0.987484
0.988459
0.990109
0.994318
0.998377
1.00037
1.00152
1.00231
1.00173
0.999409
0.998395
0.998944
1.00001
1.00155
1.00503
1.00901
1.01141
1.01284
1.01393
1.01442
1.01328
1.01122
1.01051
1.01101
1.01199
1.01451
1.0178
1.01986
1.02103
1.02129
1.02274
1.1085
1.4028
0.939817
0.938881
0.938581
0.938782
0.939295
0.941421
0.944637
0.946274
0.946974
0.947496
0.9471
0.945962
0.945669
0.945837
0.946301
0.947756
0.951439
0.953866
0.954946
0.955596
0.955634
0.954125
0.953222
0.953255
0.953712
0.954598
0.957794
0.961694
0.963383
0.964169
0.964517
0.962942
0.96106
0.960855
0.961378
0.962071
0.963425
0.967736
0.971552
0.973092
0.973969
0.973905
0.971332
0.969396
0.969323
0.969915
0.970592
0.97209
0.976506
0.979989
0.981345
0.982225
0.982419
0.980035
0.978063
0.97806
0.978717
0.979523
0.981199
0.985536
0.989102
0.990705
0.991803
0.992527
0.990937
0.988849
0.988659
0.989359
0.99022
0.991805
0.995821
0.999481
1.0013
1.00248
1.00353
1.00317
1.00107
1.00017
1.0006
1.00147
1.00279
1.00597
1.00994
1.01239
1.0138
1.01485
1.01544
1.01465
1.01258
1.0115
1.01171
1.01241
1.01431
1.01744
1.01965
1.02053
1.02294
1.11086
1.40045
0.941529
0.940348
0.939111
0.939032
0.939451
0.940693
0.944346
0.947081
0.948224
0.948852
0.94908
0.947695
0.946354
0.946233
0.946656
0.947458
0.950353
0.954234
0.955965
0.956749
0.95726
0.95633
0.954428
0.953964
0.954334
0.954943
0.956364
0.960591
0.963882
0.965181
0.965833
0.965611
0.963337
0.962033
0.962142
0.962658
0.96339
0.965398
0.970256
0.973462
0.974752
0.975534
0.97497
0.972257
0.9709
0.970952
0.9713
0.971903
0.973906
0.978673
0.98184
0.98305
0.983832
0.983722
0.981121
0.97944
0.979429
0.979881
0.980747
0.982707
0.987292
0.990831
0.992436
0.993433
0.994046
0.992345
0.990266
0.990035
0.990625
0.991459
0.993
0.99697
1.00076
1.00275
1.00395
1.00495
1.00492
1.00288
1.00157
1.00181
1.00273
1.00398
1.00677
1.01061
1.01314
1.01457
1.01559
1.01633
1.01616
1.01416
1.01244
1.01218
1.01263
1.01396
1.01691
1.01888
1.02208
1.11384
1.39798
0.942831
0.941843
0.939831
0.939581
0.94
0.940851
0.943659
0.947437
0.949165
0.949943
0.950412
0.949615
0.947511
0.946892
0.947242
0.947873
0.949436
0.953561
0.956553
0.95777
0.958393
0.958402
0.95638
0.954993
0.955048
0.955564
0.956309
0.958642
0.963261
0.965817
0.966885
0.967424
0.966428
0.963867
0.96302
0.963382
0.964055
0.964886
0.967522
0.972407
0.975047
0.97616
0.976966
0.976118
0.973165
0.971854
0.97208
0.972722
0.973543
0.976127
0.980788
0.983423
0.984517
0.985141
0.984685
0.981966
0.980417
0.980665
0.981455
0.982464
0.98467
0.98913
0.992298
0.993828
0.994781
0.995153
0.993503
0.991445
0.991189
0.991963
0.992959
0.994562
0.998308
1.00202
1.00404
1.00529
1.00614
1.00616
1.00454
1.00319
1.00321
1.00395
1.00501
1.00722
1.01101
1.01387
1.01545
1.01647
1.01716
1.01726
1.01567
1.01344
1.01255
1.01264
1.01357
1.01594
1.01985
1.11599
1.39524
0.943801
0.943196
0.941078
0.940551
0.940933
0.941558
0.943198
0.947061
0.94973
0.950825
0.951369
0.951211
0.949266
0.947946
0.948073
0.948632
0.949455
0.952198
0.956456
0.958502
0.959404
0.95984
0.958772
0.956515
0.955914
0.95628
0.956899
0.957858
0.961096
0.96551
0.967545
0.968503
0.968861
0.967146
0.964845
0.964426
0.964774
0.965311
0.966292
0.969702
0.974397
0.976642
0.97766
0.978257
0.977013
0.974346
0.973515
0.97384
0.974371
0.97512
0.977883
0.982262
0.984535
0.985511
0.986281
0.985818
0.983412
0.982311
0.982605
0.983254
0.984082
0.986053
0.990264
0.993293
0.994718
0.995764
0.996448
0.995092
0.993293
0.993097
0.99373
0.99453
0.995835
0.999191
1.00284
1.0049
1.0061
1.00721
1.00781
1.00653
1.00478
1.0044
1.00502
1.006
1.00788
1.01144
1.01442
1.01606
1.01705
1.01777
1.01816
1.01712
1.01459
1.01281
1.01254
1.01284
1.01682
1.11597
1.39208
0.944283
0.944554
0.943084
0.942047
0.942201
0.942721
0.94345
0.945918
0.949537
0.951201
0.951887
0.952255
0.95146
0.949612
0.949225
0.949659
0.950282
0.951404
0.954973
0.958587
0.960053
0.960739
0.960893
0.959049
0.957318
0.95721
0.957677
0.958265
0.959356
0.963269
0.967442
0.969167
0.970083
0.970265
0.967954
0.965721
0.965483
0.966065
0.96676
0.967925
0.971684
0.975975
0.977889
0.978852
0.979591
0.97819
0.975568
0.974748
0.974968
0.975488
0.976421
0.979563
0.983885
0.986129
0.98708
0.987829
0.987358
0.984898
0.983592
0.98364
0.984192
0.985122
0.987272
0.991596
0.994775
0.996325
0.997297
0.998037
0.996994
0.994945
0.99433
0.994773
0.995594
0.996766
0.999845
1.00381
1.00622
1.00754
1.00848
1.00904
1.00819
1.00644
1.00581
1.00623
1.00701
1.00828
1.01138
1.01471
1.01662
1.01762
1.01829
1.01871
1.01825
1.01592
1.01345
1.01201
1.01369
1.11325
1.38854
0.945013
0.945756
0.945474
0.944018
0.943511
0.94375
0.944197
0.945032
0.948017
0.951142
0.952453
0.953108
0.953464
0.952123
0.950824
0.950835
0.951244
0.951731
0.953008
0.95708
0.960325
0.961638
0.962311
0.962056
0.959762
0.958428
0.958389
0.958747
0.959405
0.960993
0.96555
0.969267
0.970751
0.971569
0.971412
0.968913
0.967158
0.967096
0.967452
0.968013
0.96939
0.973599
0.977648
0.979432
0.980331
0.980801
0.979319
0.976859
0.976089
0.976393
0.977033
0.978086
0.981349
0.985497
0.987558
0.988459
0.988976
0.98849
0.986117
0.984696
0.984888
0.985697
0.986755
0.988784
0.992861
0.996029
0.997619
0.998561
0.999112
0.998368
0.996348
0.99547
0.995964
0.996931
0.998199
1.00085
1.00457
1.00703
1.00839
1.00942
1.0102
1.00998
1.00823
1.007
1.00705
1.0078
1.00888
1.01157
1.01492
1.01696
1.01798
1.01861
1.01907
1.01905
1.01737
1.01383
1.01248
1.10764
1.38487
0.945794
0.947051
0.94738
0.946574
0.945136
0.944732
0.944783
0.94505
0.946182
0.949992
0.953028
0.954265
0.954895
0.954826
0.95304
0.951997
0.951861
0.95207
0.952683
0.954665
0.959376
0.962281
0.963393
0.963956
0.963034
0.96033
0.959264
0.959551
0.960156
0.960845
0.962675
0.967476
0.970796
0.972106
0.973001
0.972779
0.969961
0.968113
0.968125
0.96874
0.969486
0.97104
0.975272
0.978997
0.980596
0.981645
0.982292
0.980614
0.978207
0.977671
0.97802
0.978525
0.97949
0.982761
0.986613
0.988449
0.989365
0.990178
0.989913
0.987718
0.986524
0.986731
0.987315
0.988092
0.989796
0.99368
0.996791
0.99833
0.999348
1.00028
0.999978
0.998167
0.997376
0.997739
0.998371
0.99925
1.00124
1.00496
1.00782
1.0094
1.01047
1.01121
1.01123
1.00987
1.00851
1.00829
1.00878
1.00955
1.01135
1.01462
1.01704
1.01823
1.01887
1.01929
1.0195
1.01804
1.0146
1.10201
1.38139
0.946328
0.948427
0.948835
0.94893
0.9473
0.945621
0.945125
0.945343
0.945954
0.948194
0.952785
0.955223
0.956156
0.956641
0.955729
0.953391
0.952553
0.952789
0.953296
0.954077
0.95686
0.961634
0.963981
0.964985
0.965397
0.963881
0.961381
0.960733
0.960894
0.961238
0.962009
0.964557
0.969599
0.972494
0.973649
0.974362
0.97372
0.97098
0.969595
0.969664
0.970037
0.970748
0.972621
0.977299
0.980844
0.982313
0.983122
0.983487
0.981516
0.979198
0.97868
0.979085
0.979718
0.980821
0.984169
0.988059
0.990093
0.990989
0.99165
0.991456
0.989245
0.987665
0.987652
0.988341
0.989244
0.990847
0.994561
0.997931
0.999748
1.0008
1.0016
1.00174
1.0001
0.998644
0.998612
0.999396
1.0004
1.00214
1.0055
1.00847
1.01013
1.01113
1.01202
1.01264
1.01189
1.01011
1.0092
1.00938
1.01005
1.01138
1.01431
1.01694
1.01831
1.01897
1.01951
1.01957
1.01911
1.09997
1.37815
0.946353
0.949493
0.95014
0.95044
0.949507
0.946856
0.945776
0.945975
0.946505
0.947539
0.951105
0.95538
0.957123
0.957842
0.958026
0.956084
0.95396
0.953667
0.954019
0.954504
0.955408
0.95899
0.963578
0.965558
0.966513
0.966932
0.964862
0.962101
0.961498
0.961968
0.962607
0.963595
0.966683
0.971354
0.973686
0.974684
0.975473
0.974847
0.97193
0.970587
0.970895
0.971617
0.972583
0.974618
0.978855
0.981866
0.983199
0.984027
0.98436
0.982727
0.980682
0.980198
0.980622
0.981343
0.982538
0.98565
0.989364
0.991316
0.992243
0.992699
0.992571
0.990841
0.989268
0.989125
0.989759
0.990704
0.992209
0.995369
0.998743
1.00071
1.00189
1.00262
1.00288
1.00186
1.00051
1.00032
1.00084
1.0016
1.00282
1.00565
1.00893
1.01101
1.01218
1.013
1.01356
1.01326
1.01166
1.01038
1.01023
1.01068
1.01147
1.01371
1.01658
1.01829
1.01924
1.01947
1.02109
1.1006
1.37507
0.94576
0.950069
0.951185
0.951542
0.951223
0.94883
0.946934
0.946891
0.947395
0.948005
0.949511
0.953912
0.957467
0.958811
0.959487
0.959179
0.956508
0.954806
0.954653
0.954933
0.955525
0.956917
0.961371
0.965522
0.967181
0.967994
0.968052
0.96557
0.963298
0.963081
0.963486
0.964006
0.965038
0.968443
0.972831
0.974941
0.975904
0.976459
0.975761
0.973417
0.972572
0.972862
0.97328
0.973887
0.975601
0.979744
0.982874
0.984284
0.985258
0.985887
0.984382
0.982321
0.981949
0.982402
0.982939
0.983798
0.986498
0.99009
0.992052
0.992984
0.993873
0.994263
0.992803
0.991129
0.990919
0.991421
0.992012
0.993019
0.995668
0.99918
1.00132
1.0025
1.00357
1.00446
1.00403
1.00236
1.00154
1.00181
1.00259
1.00363
1.00595
1.00925
1.0115
1.01271
1.01355
1.01434
1.01469
1.01353
1.01168
1.01091
1.01112
1.01167
1.01329
1.01607
1.01812
1.01901
1.02136
1.10303
1.37199
0.944777
0.9493
0.951515
0.9522
0.952446
0.951468
0.948949
0.948099
0.948348
0.948821
0.949441
0.951542
0.956358
0.959311
0.960444
0.960977
0.959934
0.956826
0.955515
0.955765
0.956367
0.957049
0.958761
0.963361
0.966895
0.968261
0.969093
0.969213
0.966674
0.964495
0.964265
0.964765
0.965366
0.966406
0.969726
0.973905
0.975982
0.977137
0.978046
0.977471
0.97497
0.973618
0.973652
0.974226
0.975043
0.976921
0.981174
0.984403
0.985832
0.986643
0.987083
0.985765
0.983762
0.98311
0.983406
0.984004
0.984906
0.987454
0.991239
0.993553
0.994562
0.995161
0.995587
0.994567
0.992629
0.991912
0.992315
0.993067
0.994052
0.996281
0.999939
1.00257
1.00394
1.00484
1.00553
1.00552
1.00412
1.00298
1.00297
1.00364
1.00451
1.00601
1.00909
1.01193
1.01353
1.01445
1.01514
1.0156
1.01497
1.01311
1.01183
1.01167
1.01199
1.01292
1.01553
1.01756
1.02059
1.10558
1.36873
0.944556
0.947023
0.950963
0.952681
0.953329
0.953551
0.952049
0.949843
0.94939
0.949746
0.950237
0.950906
0.953458
0.958204
0.960647
0.961629
0.962135
0.960689
0.957935
0.957181
0.957386
0.957704
0.95832
0.960334
0.965099
0.968352
0.969664
0.970398
0.970284
0.967903
0.966071
0.965767
0.965855
0.966339
0.967598
0.971483
0.97583
0.977829
0.978736
0.979406
0.978626
0.976031
0.974747
0.974904
0.975521
0.976407
0.978322
0.982292
0.98529
0.986737
0.987693
0.988374
0.987317
0.985301
0.984509
0.984793
0.98548
0.986465
0.988573
0.991995
0.994303
0.995489
0.99627
0.996752
0.996124
0.994438
0.993516
0.993708
0.994378
0.995322
0.997203
1.00043
1.00309
1.00462
1.00562
1.00654
1.007
1.006
1.00456
1.00409
1.00455
1.00541
1.00669
1.00932
1.01223
1.01397
1.01491
1.01561
1.01628
1.0164
1.01489
1.01293
1.01211
1.01218
1.01284
1.01486
1.01844
1.10699
1.36516
0.945134
0.94561
0.94856
0.952525
0.954206
0.954929
0.955013
0.952915
0.951044
0.950796
0.950934
0.951209
0.952058
0.955256
0.959971
0.962189
0.9631
0.963613
0.961903
0.959001
0.958124
0.958453
0.958997
0.959761
0.961952
0.966581
0.969569
0.970773
0.971639
0.971636
0.968814
0.966667
0.966613
0.967195
0.967984
0.9696
0.973513
0.977197
0.97887
0.979759
0.980471
0.979788
0.977243
0.976097
0.976319
0.976904
0.977647
0.979293
0.983235
0.986521
0.988111
0.988969
0.989692
0.989059
0.987115
0.98634
0.9866
0.987008
0.987565
0.989145
0.992555
0.99521
0.996524
0.997253
0.998025
0.998018
0.996363
0.995088
0.995137
0.995714
0.996394
0.997629
1.00051
1.00376
1.00575
1.00686
1.00759
1.0082
1.0079
1.00642
1.00565
1.0059
1.00649
1.00728
1.00893
1.01188
1.01417
1.01544
1.01626
1.01694
1.01729
1.01645
1.01436
1.01274
1.01238
1.01256
1.01574
1.10612
1.36121
0.945862
0.945889
0.946834
0.950631
0.954491
0.955938
0.956499
0.95616
0.953565
0.951735
0.95161
0.952052
0.952561
0.953606
0.957297
0.96173
0.963672
0.964522
0.964796
0.962821