/*--------------------------------*- C++ -*----------------------------------*\
  =========                 |
  \\      /  F ield         | OpenFOAM: The Open Source CFD Toolbox
   \\    /   O peration     | Website:  https://openfoam.org
    \\  /    A nd           | Version:  12
     \\/     M anipulation  |
\*---------------------------------------------------------------------------*/
FoamFile
{
    format      ascii;
    class       volScalarField;
    location    "23";
    object      p;
}
// * * * * * * * * * * * * * * * * * * * * * * * * * * * * * * * * * * * * * //

dimensions      [1 -1 -2 0 0 0 0];

internalField   nonuniform List<scalar> 
9801
(
0.654917
0.665516
0.666275
0.660774
0.646714
0.634991
0.633147
0.635604
0.643379
0.667344
0.701489
0.71698
0.720197
0.721133
0.714587
0.691973
0.676859
0.676551
0.67953
0.684816
0.701841
0.740947
0.767575
0.773658
0.775765
0.77426
0.759386
0.738171
0.732635
0.734832
0.739491
0.747163
0.76358
0.79977
0.825365
0.831953
0.833294
0.829633
0.815335
0.799735
0.797111
0.799976
0.805176
0.813653
0.83005
0.862626
0.887285
0.895106
0.898585
0.898072
0.885105
0.870552
0.869036
0.872727
0.878535
0.88626
0.905499
0.940783
0.962641
0.972025
0.977915
0.979922
0.967025
0.950532
0.948601
0.954098
0.962269
0.974059
1.00575
1.04445
1.06518
1.07711
1.08518
1.08548
1.0644
1.04533
1.04532
1.05495
1.06816
1.10397
1.16111
1.19621
1.21565
1.22976
1.2406
1.22932
1.19381
1.17969
1.19249
1.21886
1.28853
1.38861
1.45859
1.51417
1.57298
1.61223
1.57129
2.84459
17.1974
0.63872
0.655433
0.660251
0.659916
0.658116
0.655228
0.653772
0.657796
0.667245
0.671123
0.680888
0.700539
0.714232
0.718242
0.713396
0.704768
0.698648
0.696569
0.697315
0.704196
0.715234
0.727777
0.746557
0.763993
0.771647
0.773546
0.765876
0.756746
0.75222
0.751684
0.753835
0.7592
0.772323
0.790597
0.809281
0.822152
0.828372
0.830365
0.82341
0.814847
0.812612
0.814513
0.818306
0.823333
0.836337
0.86012
0.879216
0.891015
0.897044
0.899017
0.890203
0.879366
0.878611
0.88277
0.888078
0.894645
0.911238
0.940659
0.963791
0.974895
0.981747
0.983802
0.970651
0.955177
0.953537
0.958995
0.966818
0.977747
1.00781
1.04638
1.06767
1.07864
1.08707
1.09032
1.06904
1.04938
1.05048
1.05979
1.07303
1.10345
1.15477
1.19129
1.21283
1.23027
1.24628
1.23754
1.20001
1.18584
1.19979
1.22567
1.273
1.35315
1.42027
1.47542
1.52908
1.5555
1.49115
2.66032
17.4334
0.646457
0.645869
0.642972
0.644792
0.64875
0.651977
0.657759
0.674958
0.6886
0.69238
0.692304
0.696889
0.702895
0.702516
0.697789
0.698327
0.701257
0.704378
0.711119
0.72584
0.734961
0.737185
0.743913
0.752749
0.758701
0.759342
0.757687
0.758108
0.760768
0.764872
0.769534
0.77705
0.789562
0.796427
0.801725
0.808952
0.815275
0.819693
0.819627
0.819043
0.822014
0.825856
0.829933
0.835094
0.846171
0.8625
0.872707
0.880512
0.886487
0.890523
0.888181
0.883789
0.886087
0.891526
0.897443
0.903794
0.918541
0.94206
0.958253
0.968024
0.974612
0.978878
0.972288
0.960556
0.959956
0.966106
0.974421
0.984061
1.00895
1.04319
1.06278
1.07385
1.08286
1.08894
1.07477
1.05609
1.05507
1.0647
1.0772
1.09788
1.14591
1.19143
1.21612
1.23327
1.24843
1.24588
1.21217
1.19218
1.19997
1.22492
1.25922
1.3281
1.40532
1.46389
1.51754
1.54753
1.48936
2.62617
17.4506
0.662114
0.633605
0.623834
0.626786
0.636166
0.651377
0.670581
0.695388
0.709352
0.714452
0.716294
0.705532
0.684884
0.680105
0.684257
0.694218
0.706656
0.715938
0.727405
0.743036
0.752762
0.75552
0.749797
0.740372
0.73983
0.745146
0.755228
0.76504
0.771178
0.775649
0.780631
0.786891
0.794065
0.796912
0.797227
0.800687
0.808855
0.816025
0.82307
0.8298
0.833443
0.83596
0.838817
0.842034
0.846255
0.855938
0.866486
0.875807
0.88462
0.89174
0.896693
0.896676
0.897662
0.900567
0.903496
0.907398
0.91395
0.931496
0.950263
0.963381
0.973425
0.981503
0.983623
0.973614
0.970182
0.97328
0.978899
0.986374
1.00193
1.03467
1.05908
1.07363
1.08473
1.09439
1.09046
1.06954
1.06146
1.06782
1.07981
1.09446
1.12905
1.17979
1.21119
1.2301
1.24694
1.2571
1.237
1.20873
1.20057
1.21854
1.24863
1.29404
1.36171
1.42145
1.47337
1.51191
1.49383
2.70969
17.5364
0.661335
0.633747
0.628162
0.630653
0.634189
0.645567
0.677434
0.705387
0.71769
0.721668
0.718073
0.699429
0.685748
0.684496
0.687123
0.69236
0.704578
0.722749
0.737305
0.748134
0.752479
0.750584
0.744603
0.744099
0.747393
0.751022
0.755871
0.766364
0.776421
0.782794
0.785354
0.785652
0.788069
0.793806
0.801584
0.812053
0.820222
0.825874
0.830161
0.834373
0.838036
0.837512
0.834751
0.835102
0.838958
0.852402
0.871019
0.884751
0.894747
0.90197
0.907688
0.90573
0.900811
0.897546
0.897206
0.900988
0.907372
0.926793
0.95434
0.971342
0.981993
0.99022
0.99574
0.985314
0.97251
0.970158
0.974426
0.981803
0.993472
1.02466
1.05772
1.07649
1.0891
1.10031
1.10663
1.08794
1.0664
1.06481
1.07528
1.08923
1.11194
1.1616
1.20742
1.23346
1.25243
1.26933
1.2648
1.23488
1.21385
1.2138
1.23583
1.26982
1.3248
1.38607
1.43296
1.47314
1.47993
2.77908
17.6254
0.656001
0.642946
0.638998
0.641111
0.646556
0.658422
0.678211
0.70137
0.711011
0.711396
0.70523
0.700981
0.699889
0.698746
0.701796
0.707716
0.714315
0.720033
0.727115
0.734088
0.741298
0.746784
0.751684
0.759548
0.765609
0.76942
0.770555
0.770573
0.772395
0.772327
0.772031
0.774498
0.781535
0.798807
0.81704
0.829019
0.836581
0.84246
0.846165
0.839729
0.828439
0.82354
0.825447
0.830548
0.838343
0.858004
0.883749
0.900116
0.909325
0.915729
0.920395
0.911918
0.893123
0.887118
0.890665
0.897902
0.90696
0.928811
0.962359
0.982626
0.992662
1.00021
1.00645
0.99804
0.973895
0.963754
0.96766
0.976664
0.988925
1.01652
1.05735
1.08272
1.0962
1.10688
1.11598
1.10635
1.07796
1.06419
1.06811
1.0817
1.09925
1.1372
1.19221
1.23008
1.25405
1.27389
1.28342
1.26318
1.23427
1.22156
1.22755
1.25
1.28718
1.34269
1.38975
1.42506
1.44467
2.85547
17.7144
0.660278
0.658841
0.658571
0.661266
0.665854
0.670124
0.673627
0.677214
0.686799
0.696791
0.703817
0.712905
0.721492
0.725939
0.725073
0.723994
0.721968
0.713012
0.707425
0.710744
0.724496
0.745669
0.765265
0.779567
0.787531
0.791587
0.789342
0.778723
0.763614
0.755216
0.756954
0.763035
0.775123
0.803076
0.832077
0.846364
0.85334
0.85829
0.857737
0.838837
0.817763
0.813578
0.817765
0.825308
0.837206
0.862959
0.896724
0.913996
0.921088
0.926061
0.925742
0.911086
0.890204
0.882309
0.885902
0.893732
0.905874
0.929966
0.966191
0.989096
0.998912
1.00549
1.00929
1.00341
0.981515
0.966399
0.965742
0.974166
0.986363
1.00899
1.0514
1.08546
1.10198
1.11237
1.12114
1.1201
1.09357
1.07092
1.06651
1.0754
1.09015
1.11572
1.1659
1.2166
1.24781
1.26868
1.28656
1.28651
1.26197
1.2401
1.23357
1.24187
1.26339
1.30279
1.35204
1.38728
1.40835
2.90548
17.7797
0.664571
0.677309
0.682812
0.684273
0.682192
0.674825
0.663639
0.659873
0.663171
0.676885
0.704841
0.728449
0.739507
0.745072
0.747435
0.741346
0.720943
0.702476
0.699716
0.702252
0.709237
0.737773
0.777405
0.794764
0.801614
0.806359
0.806039
0.785025
0.757377
0.751648
0.75439
0.759269
0.769487
0.800527
0.840198
0.85637
0.863122
0.865295
0.857077
0.837637
0.822145
0.818828
0.822106
0.827359
0.836761
0.86211
0.897825
0.916278
0.922796
0.924526
0.921111
0.913566
0.900201
0.890535
0.891724
0.897952
0.90727
0.926516
0.960549
0.986383
0.997571
1.00321
1.00652
1.00828
0.996421
0.977145
0.972618
0.978097
0.988203
1.00252
1.03528
1.07648
1.10007
1.11214
1.12104
1.12683
1.11594
1.08838
1.07572
1.07783
1.0894
1.10443
1.13294
1.18224
1.22414
1.25213
1.27351
1.29135
1.29057
1.27202
1.25239
1.245
1.25157
1.27085
1.30932
1.35137
1.37729
2.95129
17.8333
0.667868
0.68966
0.695006
0.697726
0.69279
0.673439
0.659589
0.658427
0.660916
0.673212
0.705246
0.735751
0.747167
0.753081
0.755929
0.743342
0.715087
0.703869
0.704829
0.707839
0.71472
0.740139
0.780676
0.800957
0.808526
0.81192
0.802602
0.778308
0.761894
0.758687
0.761223
0.766694
0.779686
0.805889
0.835297
0.852047
0.857627
0.855173
0.849881
0.843448
0.831992
0.827688
0.831433
0.839992
0.849339
0.861259
0.885194
0.904189
0.912619
0.916016
0.920317
0.923362
0.915518
0.906049
0.905879
0.911358
0.916173
0.922226
0.941263
0.971389
0.988264
0.996532
1.00476
1.01319
1.016
1.00003
0.98875
0.989057
0.992971
0.999762
1.0118
1.0481
1.08653
1.10717
1.12007
1.13173
1.14036
1.12473
1.09927
1.08955
1.08997
1.09776
1.11167
1.14137
1.18946
1.23064
1.26046
1.28395
1.30038
1.30007
1.28411
1.26133
1.24817
1.25093
1.26688
1.30753
1.3432
2.99979
17.8858
0.678958
0.694312
0.69953
0.698424
0.681024
0.665865
0.662526
0.664022
0.669316
0.689679
0.720022
0.738452
0.748831
0.754338
0.75006
0.729378
0.716099
0.712457
0.713353
0.717242
0.730953
0.757581
0.779416
0.793169
0.799156
0.795933
0.785638
0.7777
0.772544
0.77228
0.776983
0.786891
0.797504
0.810201
0.824852
0.835417
0.839942
0.842381
0.847141
0.850822
0.84861
0.846923
0.850654
0.855631
0.856926
0.858978
0.8675
0.886793
0.900371
0.910925
0.921736
0.930808
0.937046
0.930345
0.920717
0.917243
0.915556
0.916117
0.922553
0.947427
0.97888
0.997789
1.01167
1.02255
1.03097
1.02746
1.00658
0.993722
0.989155
0.990802
0.998383
1.01741
1.06245
1.10119
1.12343
1.14031
1.15274
1.15748
1.1345
1.1046
1.09229
1.09343
1.10178
1.11671
1.14973
1.19856
1.24005
1.27053
1.29421
1.30657
1.30431
1.28714
1.26032
1.24208
1.24038
1.25765
1.29979
3.04602
17.9463
0.68732
0.69462
0.692162
0.675992
0.667272
0.667243
0.669948
0.674241
0.692737
0.720426
0.733726
0.741402
0.746762
0.743917
0.725294
0.716164
0.71683
0.719905
0.723909
0.737081
0.757154
0.771975
0.779831
0.783051
0.780403
0.776908
0.776716
0.778827
0.784042
0.791083
0.80032
0.805842
0.807737
0.808847
0.813053
0.819554
0.825009
0.836771
0.848879
0.859355
0.867181
0.868568
0.86415
0.858122
0.85187
0.850132
0.854165
0.871123
0.896653
0.916598
0.932494
0.943523
0.950857
0.951397
0.933708
0.915536
0.906965
0.908235
0.914626
0.930085
0.968977
1.00487
1.0238
1.03429
1.04171
1.04512
1.02601
0.996772
0.983775
0.983427
0.990546
1.0016
1.0317
1.08732
1.12707
1.14492
1.15635
1.16619
1.16483
1.13552
1.10571
1.09517
1.0984
1.10913
1.12685
1.16419
1.21316
1.25077
1.27605
1.29601
1.30363
1.29946
1.28261
1.25319
1.23035
1.22773
1.24753
3.06548
18.0209
0.696707
0.691944
0.66837
0.65601
0.656371
0.66156
0.671612
0.690604
0.723706
0.742426
0.748123
0.74952
0.74189
0.72131
0.710961
0.711272
0.71488
0.724153
0.742738
0.757849
0.767143
0.77394
0.775275
0.770486
0.768136
0.773084
0.780564
0.789108
0.799068
0.807241
0.813006
0.810267
0.802853
0.79886
0.801125
0.81187
0.828122
0.844819
0.861922
0.87384
0.881183
0.883807
0.87009
0.848971
0.84123
0.84367
0.849568
0.864366
0.899216
0.930853
0.945819
0.952991
0.958831
0.961017
0.941764
0.911572
0.901969
0.904624
0.911333
0.923058
0.958549
1.00626
1.02996
1.03977
1.04711
1.05084
1.04214
1.00936
0.987717
0.985257
0.990667
0.999857
1.01456
1.05297
1.10773
1.13879
1.15325
1.16341
1.17057
1.16519
1.13655
1.11207
1.10577
1.1109
1.12244
1.141
1.17873
1.22184
1.25241
1.27384
1.29107
1.297
1.29357
1.27691
1.2455
1.21851
1.20183
3.04261
18.1034
0.710452
0.688574
0.65659
0.652382
0.654522
0.658533
0.672538
0.705971
0.732728
0.746183
0.750353
0.743366
0.725761
0.716447
0.714889
0.717019
0.727537
0.745647
0.756932
0.761212
0.763021
0.762085
0.76279
0.765931
0.77043
0.780104
0.795407
0.808454
0.81578
0.81892
0.812762
0.798615
0.789056
0.789032
0.794402
0.811097
0.840926
0.865461
0.877639
0.883874
0.889249
0.888543
0.862975
0.839156
0.835105
0.839048
0.846026
0.863264
0.905506
0.93909
0.95241
0.959328
0.962631
0.956218
0.938109
0.916431
0.906065
0.908322
0.9158
0.928425
0.949376
0.99111
1.02442
1.0373
1.04163
1.04174
1.04348
1.03466
1.01094
1.00026
1.00305
1.01082
1.01813
1.02778
1.06007
1.10974
1.13955
1.15491
1.16641
1.17588
1.17333
1.15166
1.12958
1.12012
1.12154
1.13015
1.14715
1.1845
1.2247
1.25248
1.27272
1.28889
1.29472
1.29105
1.27008
1.22938
1.17902
2.97954
18.1865
0.704564
0.677733
0.660169
0.657018
0.661354
0.676376
0.696753
0.712718
0.726781
0.734362
0.732171
0.725096
0.722922
0.725486
0.730203
0.740534
0.750275
0.756305
0.759348
0.75408
0.743205
0.7411
0.74793
0.764022
0.784832
0.804711
0.817539
0.824001
0.827895
0.824603
0.800204
0.780116
0.777353
0.781179
0.788915
0.813184
0.855846
0.881088
0.890068
0.894646
0.894106
0.879283
0.85579
0.841192
0.838513
0.842085
0.850228
0.868837
0.903307
0.938658
0.95369
0.957767
0.952827
0.949406
0.945933
0.932732
0.922935
0.924636
0.932705
0.939569
0.944147
0.957529
0.993536
1.0205
1.03254
1.04159
1.05121
1.06019
1.0524
1.02817
1.01612
1.01377
1.01311
1.01599
1.02576
1.05975
1.11178
1.14523
1.16451
1.18039
1.19206
1.19162
1.1676
1.13837
1.12312
1.1228
1.13037
1.14929
1.19024
1.23047
1.25817
1.27836
1.29052
1.29272
1.28446
1.24908
1.18289
2.90005
18.2633
0.688309
0.680141
0.677048
0.680544
0.690707
0.700858
0.706343
0.709217
0.705135
0.702023
0.707954
0.718326
0.731591
0.748035
0.761662
0.76772
0.768831
0.764836
0.751294
0.731764
0.72524
0.727746
0.73502
0.760427
0.801862
0.827399
0.836303
0.839744
0.837013
0.818637
0.787515
0.77502
0.776014
0.779917
0.786842
0.813346
0.860621
0.885735
0.894329
0.896231
0.886268
0.873738
0.860946
0.84976
0.849954
0.857789
0.870941
0.879612
0.889544
0.914027
0.933884
0.941419
0.945432
0.951653
0.959163
0.963429
0.952727
0.942531
0.939941
0.937726
0.934684
0.936763
0.953116
0.995073
1.02963
1.05007
1.06643
1.0774
1.08368
1.06809
1.03536
1.0139
1.00642
1.00743
1.01408
1.02633
1.06736
1.12544
1.16231
1.18049
1.19302
1.199
1.19418
1.1687
1.13653
1.12112
1.12279
1.13233
1.15567
1.20146
1.2424
1.26599
1.27983
1.28455
1.28356
1.26341
1.20771
2.83475
18.3343
0.681973
0.689602
0.705267
0.715964
0.718634
0.717363
0.71
0.690891
0.678901
0.679397
0.686768
0.709383
0.745835
0.773725
0.785286
0.789755
0.788407
0.77265
0.737971
0.719983
0.719375
0.72285
0.729544
0.755115
0.809004
0.83521
0.843103
0.847475
0.841889
0.812951
0.788908
0.779493
0.780611
0.788085
0.805264
0.826445
0.851719
0.873548
0.880735
0.878108
0.873978
0.876632
0.877626
0.874969
0.873411
0.875841
0.879088
0.878726
0.876217
0.879711
0.902403
0.930617
0.948546
0.964235
0.977637
0.985538
0.983476
0.96296
0.942104
0.927809
0.921797
0.924773
0.932206
0.957865
1.01401
1.05699
1.07519
1.08518
1.09305
1.09394
1.0673
1.02723
1.00934
1.00873
1.01519
1.0253
1.04202
1.08502
1.13831
1.16779
1.18232
1.19267
1.19642
1.18964
1.16534
1.13868
1.12798
1.12953
1.13882
1.16417
1.21007
1.24473
1.26245
1.27144
1.27408
1.26603
1.237
2.80985
18.4082
0.67413
0.711045
0.730052
0.737071
0.739798
0.734331
0.707558
0.677856
0.672186
0.674517
0.679898
0.70069
0.752318
0.783978
0.792751
0.797412
0.795916
0.769562
0.73554
0.723692
0.723428
0.726939
0.739587
0.772523
0.810161
0.833407
0.84105
0.836739
0.822381
0.813147
0.802477
0.798142
0.802671
0.814017
0.824155
0.828453
0.83115
0.840457
0.858323
0.869713
0.877401
0.885975
0.897968
0.905818
0.903559
0.891665
0.87918
0.86559
0.860571
0.863927
0.87616
0.913526
0.955902
0.981198
0.993808
1.00052
1.00249
0.985231
0.94857
0.925498
0.921008
0.92471
0.931205
0.943775
0.982311
1.04301
1.07431
1.08581
1.08926
1.08706
1.08155
1.06009
1.03324
1.02452
1.02907
1.03888
1.04834
1.05888
1.09218
1.13539
1.16086
1.17511
1.18569
1.1929
1.19294
1.17708
1.15168
1.13627
1.13418
1.14025
1.163
1.20538
1.23626
1.25195
1.25993
1.2602
1.26007
2.82636
18.4876
0.680613
0.725827
0.73665
0.741733
0.744405
0.730189
0.694942
0.678343
0.67626
0.67784
0.684363
0.715903
0.761687
0.784667
0.79375
0.795911
0.780131
0.756474
0.741817
0.734835
0.736816
0.747554
0.766217
0.78183
0.798234
0.810832
0.814394
0.811279
0.810468
0.815153
0.823273
0.830522
0.831778
0.831275
0.829133
0.81904
0.811545
0.81403
0.832016
0.863419
0.88793
0.907068
0.918636
0.924361
0.924586
0.906713
0.873537
0.854927
0.853252
0.857619
0.864879
0.892219
0.952806
0.987215
0.99884
1.00528
1.00799
0.999579
0.969383
0.937511
0.928634
0.93286
0.945518
0.960463
0.972448
0.998691
1.03964
1.06303
1.07299
1.08029
1.08809
1.0933
1.08147
1.06037
1.0489
1.04546
1.04416
1.04702
1.05682
1.08921
1.13233
1.15949
1.17831
1.1958
1.20757
1.20954
1.18748
1.15254
1.13123
1.12734
1.13157
1.15425
1.19788
1.23048
1.24807
1.25264
1.27263
2.88437
18.5733
0.695464
0.728905
0.73793
0.742491
0.736331
0.709399
0.692389
0.68652
0.68679
0.691765
0.710313
0.738719
0.762168
0.776149
0.78019
0.770786
0.759308
0.754826
0.752789
0.755987
0.765582
0.778468
0.784864
0.785674
0.77931
0.779129
0.790466
0.803359
0.814123
0.829193
0.846708
0.85637
0.859238
0.846738
0.822069
0.80405
0.800282
0.80393
0.813758
0.848376
0.896778
0.922292
0.931551
0.936329
0.936049
0.914239
0.875456
0.857602
0.856265
0.860441
0.871229
0.892566
0.931048
0.974796
0.992772
0.997282
0.991842
0.989384
0.988794
0.974732
0.959342
0.956605
0.960822
0.965242
0.965482
0.966584
0.983475
1.02579
1.06039
1.08059
1.09711
1.11109
1.11853
1.10755
1.07769
1.05103
1.03815
1.03678
1.04178
1.05467
1.09496
1.14396
1.17639
1.19439
1.20646
1.21288
1.20953
1.18142
1.1428
1.12099
1.11804
1.12365
1.14921
1.19806
1.23283
1.2448
1.2721
2.96012
18.6792
0.712752
0.731441
0.736217
0.732539
0.709716
0.694349
0.691822
0.694492
0.702143
0.721362
0.737137
0.748525
0.756786
0.759535
0.754506
0.748581
0.750465
0.757482
0.769734
0.78302
0.790931
0.794495
0.790754
0.771937
0.760837
0.761681
0.771681
0.798255
0.828889
0.852073
0.862394
0.867008
0.869807
0.857145
0.820116
0.800279
0.799625
0.803619
0.810445
0.839612
0.897413
0.925799
0.934855
0.937435
0.927458
0.910964
0.88954
0.871606
0.869719
0.877629
0.893165
0.902904
0.909092
0.930238
0.96134
0.977767
0.98509
0.993694
1.00398
1.01264
1.00514
0.985113
0.971285
0.961117
0.950958
0.948885
0.955087
0.975853
1.02728
1.07654
1.10374
1.11643
1.12494
1.12799
1.11252
1.07342
1.04367
1.03592
1.03981
1.0477
1.0654
1.11374
1.16068
1.18477
1.197
1.20524
1.20813
1.20221
1.17486
1.13888
1.11846
1.11312
1.11822
1.14888
1.19738
1.22414
1.26024
3.0541
18.7939
0.725302
0.738104
0.733204
0.71256
0.69951
0.696032
0.697424
0.706954
0.72804
0.741041
0.745853
0.746734
0.742496
0.739715
0.741753
0.74603
0.755675
0.77385
0.792977
0.802659
0.806459
0.800099
0.775324
0.756429
0.753977
0.757828
0.76583
0.795506
0.845102
0.867183
0.874402
0.875969
0.867576
0.844183
0.817926
0.805116
0.804228
0.808914
0.824454
0.849548
0.8825
0.911744
0.921699
0.919398
0.912315
0.912975
0.912991
0.904934
0.897966
0.898923
0.903058
0.903175
0.896044
0.895402
0.91314
0.953184
0.985903
1.00658
1.02405
1.0345
1.03893
1.02354
0.988922
0.959658
0.947219
0.946945
0.95234
0.959872
0.985012
1.04966
1.0961
1.11277
1.12091
1.12344
1.11935
1.10211
1.07087
1.05173
1.05008
1.05707
1.0677
1.0824
1.12164
1.15963
1.17842
1.18815
1.19596
1.20238
1.20207
1.18018
1.14289
1.11737
1.10947
1.11133
1.14187
1.18296
1.23096
3.15319
18.8934
0.723661
0.729041
0.715073
0.706816
0.70555
0.706782
0.714889
0.729435
0.739497
0.744008
0.74355
0.730278
0.721808
0.723936
0.734917
0.754921
0.779733
0.797991
0.806043
0.810326
0.810614
0.790042
0.761392
0.751309
0.752591
0.756471
0.765496
0.805554
0.851906
0.871046
0.878201
0.879001
0.861959
0.840006
0.823588
0.816308
0.819072
0.831644
0.846398
0.852386
0.85812
0.873905
0.895399
0.907153
0.913491
0.921577
0.933838
0.942103
0.936733
0.920903
0.906335
0.89095
0.880151
0.880164
0.886427
0.911021
0.967115
1.013
1.03347
1.04276
1.04939
1.04936
1.02243
0.976523
0.954201
0.951729
0.9579
0.970344
0.986871
1.0121
1.05746
1.08854
1.10118
1.10764
1.11268
1.11609
1.11235
1.09348
1.0748
1.06552
1.06251
1.06509
1.07722
1.11522
1.15342
1.17469
1.1893
1.20288
1.21159
1.21159
1.18547
1.14108
1.10895
1.09674
1.09791
1.12549
1.18676
3.24096
18.9661
0.704355
0.710354
0.711652
0.71536
0.72006
0.73007
0.739381
0.744536
0.747052
0.741405
0.721122
0.709856
0.710396
0.715211
0.730788
0.770163
0.805193
0.817384
0.820452
0.816172
0.801558
0.775764
0.757536
0.753378
0.755393
0.761022
0.779471
0.811334
0.846529
0.864818
0.868629
0.859185
0.851505
0.848427
0.842206
0.840417
0.843592
0.848873
0.852585
0.848657
0.839296
0.839994
0.85905
0.894035
0.92075
0.941184
0.95684
0.964879
0.966162
0.946941
0.910543
0.884126
0.875974
0.87811
0.883157
0.892531
0.929376
0.997615
1.03287
1.04357
1.04529
1.03827
1.0296
1.01227
0.986857
0.97576
0.97719
0.983206
0.988737
0.992644
1.00547
1.04365
1.07807
1.09665
1.11042
1.12559
1.13586
1.13595
1.11197
1.07851
1.05816
1.05351
1.05559
1.06905
1.11207
1.15905
1.18668
1.20144
1.2115
1.21637
1.21122
1.18251
1.13592
1.09774
1.08044
1.07782
1.13166
3.2881
19.014
0.681024
0.69297
0.713065
0.732054
0.74687
0.754777
0.757628
0.757061
0.749765
0.725572
0.703508
0.699162
0.702039
0.708071
0.724392
0.775478
0.813102
0.824865
0.829664
0.825158
0.799605
0.774839
0.761665
0.760384
0.766929
0.783227
0.797283
0.805689
0.819274
0.835811
0.846231
0.851089
0.856041
0.861191
0.868986
0.873016
0.869367
0.86083
0.84835
0.832
0.824333
0.826347
0.834093
0.865037
0.91877
0.954506
0.970075
0.977627
0.980945
0.971159
0.929517
0.891246
0.880353
0.882272
0.891675
0.908248
0.925507
0.954529
0.997532
1.02012
1.02679
1.03116
1.03668
1.04104
1.03423
1.01495
0.999502
0.990898
0.983835
0.978832
0.982109
0.996503
1.03861
1.08373
1.11296
1.13015
1.14107
1.14818
1.14438
1.11068
1.069
1.04945
1.04713
1.05177
1.06846
1.12003
1.17067
1.19586
1.20639
1.21192
1.21237
1.20355
1.17534
1.12771
1.08772
1.06288
1.07459
3.26202
19.0516
0.663587
0.670604
0.700687
0.741115
0.764951
0.774106
0.777215
0.772769
0.751379
0.719645
0.703948
0.701622
0.704147
0.710969
0.733532
0.773273
0.807962
0.820047
0.818976
0.807719
0.799904
0.788868
0.781014
0.782085
0.789195
0.796739
0.800545
0.797733
0.791942
0.797402
0.821616
0.84862
0.866913
0.883131
0.893604
0.897806
0.894063
0.873663
0.842135
0.822442
0.818739
0.821828
0.826832
0.841938
0.898448
0.954196
0.972648
0.978386
0.973755
0.961182
0.946071
0.921367
0.904381
0.903306
0.91058
0.918231
0.923539
0.927466
0.940317
0.97622
1.00998
1.03084
1.04459
1.05623
1.06418
1.06021
1.03601
1.00572
0.983752
0.975541
0.976311
0.981348
0.997853
1.05108
1.10386
1.12818
1.13893
1.14654
1.14851
1.13864
1.10146
1.06439
1.05081
1.0516
1.05976
1.07813
1.12724
1.17245
1.19161
1.19784
1.20084
1.20129
1.19553
1.17095
1.12362
1.07464
1.04818
3.16607
19.0831
0.663302
0.665752
0.684314
0.736523
0.768785
0.777904
0.782123
0.779397
0.755118
0.726671
0.712763
0.71229
0.718064
0.729821
0.74181
0.755986
0.776889
0.794391
0.802004
0.805868
0.809858
0.812238
0.811729
0.808874
0.806738
0.803768
0.793829
0.779757
0.775884
0.779538
0.7929
0.831631
0.874868
0.899709
0.910512
0.915405
0.914706
0.89254
0.848059
0.82523
0.821875
0.825465
0.836453
0.854731
0.87939
0.921274
0.951532
0.960002
0.959887
0.96045
0.96157
0.959018
0.946565
0.933645
0.927435
0.923974
0.918479
0.911864
0.912944
0.925888
0.966725
1.01553
1.04701
1.06345
1.0728
1.07876
1.07346
1.04006
0.999098
0.979064
0.976713
0.981371
0.989778
1.01496
1.0709
1.11227
1.1284
1.13486
1.13626
1.13827
1.13525
1.10882
1.07788
1.06311
1.06016
1.06224
1.07426
1.11734
1.15948
1.17982
1.19049
1.198
1.19945
1.19387
1.16916
1.11205
1.04771
3.03726
19.1297
0.668452
0.672455
0.690288
0.724278
0.758918
0.770589
0.771768
0.766449
0.760112
0.747529
0.737092
0.734812
0.737803
0.74242
0.745551
0.743555
0.743985
0.759493
0.789112
0.810495
0.82312
0.832961
0.837758
0.835127
0.824861
0.807144
0.783079
0.769807
0.769141
0.772756
0.778946
0.806241
0.869797
0.904056
0.914306
0.919041
0.915598
0.897284
0.868526
0.843629
0.837399
0.842255
0.853151
0.861691
0.867171
0.876694
0.902504
0.931972
0.950354
0.962315
0.974861
0.985829
0.989005
0.975787
0.953162
0.931988
0.913801
0.904016
0.904139
0.909177
0.923139
0.974589
1.03594
1.06366
1.07353
1.07924
1.07863
1.06642
1.03216
0.999882
0.988323
0.990451
0.997923
1.00667
1.02558
1.07048
1.10591
1.12156
1.12945
1.13732
1.14571
1.14813
1.12525
1.08809
1.063
1.05376
1.05439
1.06375
1.10464
1.1519
1.17837
1.19111
1.19713
1.19656
1.19176
1.15641
1.08769
2.91892
19.2047
0.682286
0.686851
0.695024
0.707789
0.731409
0.752612
0.760904
0.764535
0.76789
0.770017
0.765762
0.758471
0.754037
0.749844
0.740532
0.732924
0.733424
0.738713
0.761153
0.802671
0.832081
0.847487
0.854028
0.855744
0.844615
0.814594
0.784947
0.772613
0.772172
0.775592
0.783893
0.802937
0.843843
0.889362
0.906716
0.909954
0.905898
0.900946
0.893512
0.878507
0.865814
0.862359
0.86406
0.865613
0.860941
0.854849
0.85946
0.884971
0.927388
0.963067
0.987815
1.00369
1.0117
1.013
0.992302
0.951246
0.917251
0.904637
0.905425
0.910435
0.919088
0.941172
0.998214
1.04589
1.06351
1.06905
1.06858
1.06677
1.06213
1.0419
1.01816
1.00611
1.00264
1.00271
1.00625
1.0203
1.0623
1.10273
1.12494
1.13714
1.14769
1.15782
1.16134
1.13694
1.09116
1.05875
1.0468
1.04663
1.05512
1.0964
1.1491
1.17809
1.19034
1.19313
1.19219
1.17722
1.14266
2.85905
19.2984
0.697588
0.699538
0.700272
0.701427
0.707496
0.729172
0.753872
0.768057
0.776492
0.781969
0.78465
0.780084
0.768644
0.752998
0.737233
0.731733
0.733525
0.737105
0.744843
0.782724
0.831984
0.851244
0.858169
0.862355
0.860495
0.834835
0.798045
0.78246
0.781987
0.787963
0.799377
0.809485
0.819457
0.845826
0.877955
0.894254
0.900947
0.905693
0.911373
0.915248
0.906568
0.889745
0.877444
0.866348
0.851057
0.842804
0.844183
0.850909
0.880839
0.943595
0.990584
1.00773
1.01487
1.01939
1.01514
0.984963
0.940334
0.917931
0.915433
0.921856
0.933804
0.946532
0.961924
0.998211
1.03393
1.05162
1.0597
1.06545
1.07139
1.07643
1.06715
1.03988
1.01609
1.00307
0.998873
0.999994
1.01128
1.0531
1.10123
1.13039
1.14831
1.16031
1.16659
1.16639
1.13923
1.08889
1.05356
1.04161
1.0411
1.04954
1.09438
1.14939
1.17633
1.18456
1.18609
1.17925
1.17906
2.87128
19.4046
0.707538
0.707837
0.704982
0.703086
0.704988
0.71244
0.739796
0.768605
0.782261
0.788704
0.79205
0.792188
0.780882
0.758516
0.741131
0.735657
0.73706
0.740815
0.747094
0.762694
0.809076
0.843602
0.853209
0.855519
0.852803
0.846267
0.828412
0.808974
0.802389
0.804166
0.808814
0.812841
0.813061
0.812084
0.826599
0.863432
0.893401
0.912183
0.92855
0.938585
0.941839
0.929618
0.900652
0.869796
0.849472
0.843444
0.845667
0.850352
0.860917
0.90059
0.967255
1.00055
1.01001
1.00967
1.0026
0.99547
0.980748
0.95703
0.944091
0.942809
0.946335
0.948792
0.948604
0.953592
0.979685
1.02019
1.04733
1.06367
1.07858
1.09109
1.09756
1.08648
1.04904
1.01324
0.994884
0.990333
0.992599
1.00512
1.05391
1.11437
1.1461
1.15747
1.16356
1.16596
1.16281
1.1355
1.08638
1.05187
1.04067
1.04064
1.04883
1.09272
1.14235
1.1658
1.17385
1.16979
1.198
2.93883
19.5155
0.712099
0.708802
0.705132
0.703946
0.705734
0.709176
0.723959
0.761417
0.785558
0.793719
0.796946
0.799541
0.794338
0.770619
0.749995
0.74376
0.745171
0.749249
0.754371
0.759427
0.775448
0.815289
0.841571
0.850574
0.854415
0.857822
0.858094
0.846285
0.829091
0.819482
0.815434
0.810469
0.801274
0.797664
0.801509
0.818732
0.866305
0.913068
0.937731
0.94925
0.955713
0.95755
0.939336
0.891634
0.859254
0.850832
0.853361
0.862443
0.875416
0.888668
0.914595
0.957432
0.982976
0.992236
0.997047
1.00244
1.00812
1.00675
0.991114
0.972864
0.959507
0.947683
0.936906
0.934412
0.940415
0.968643
1.02023
1.06183
1.08606
1.09789
1.10457
1.10592
1.08891
1.04087
1.00179
0.989364
0.990798
0.997891
1.01349
1.0644
1.1211
1.14581
1.15336
1.15674
1.15753
1.15776
1.13873
1.09413
1.0584
1.04256
1.03932
1.0425
1.08099
1.12906
1.15506
1.15833
1.19993
3.04092
19.6217
0.718865
0.710362
0.705488
0.703333
0.704719
0.707601
0.713141
0.741305
0.779652
0.794147
0.799648
0.802611
0.803656
0.792104
0.768132
0.75517
0.753018
0.754993
0.757969
0.76056
0.763652
0.774965
0.811348
0.842802
0.858363
0.867525
0.874076
0.876162
0.864648
0.842817
0.823274
0.806518
0.79637
0.795408
0.798658
0.803668
0.824576
0.889084
0.936788
0.951442
0.956027
0.952601
0.941408
0.923643
0.894327
0.876576
0.873686
0.877976
0.88331
0.887293
0.888261
0.897389
0.932356
0.970892
0.995207
1.0111
1.025
1.03394
1.03467
1.01649
0.982984
0.950388
0.932234
0.928644
0.931743
0.939404
0.977957
1.04602
1.08288
1.09536
1.1005
1.09976
1.09542
1.07777
1.03823
1.01045
1.00365
1.00586
1.01026
1.01925
1.05935
1.10932
1.13378
1.14407
1.15167
1.15817
1.16206
1.15138
1.10724
1.06015
1.03496
1.0284
1.03028
1.06792
1.11844
1.1404
1.19363
3.15486
19.7226
0.731225
0.713864
0.70486
0.701386
0.702634
0.705502
0.70904
0.720452
0.760436
0.79222
0.802309
0.806841
0.810203
0.809969
0.793207
0.770767
0.760559
0.759149
0.760737
0.761727
0.760693
0.763154
0.774364
0.81395
0.85355
0.873057
0.882839
0.888858
0.89169
0.877879
0.841995
0.812662
0.800873
0.799961
0.803989
0.812755
0.825583
0.849817
0.899431
0.931417
0.940621
0.942584
0.945106
0.946775
0.940113
0.920272
0.902034
0.892815
0.887825
0.881337
0.873705
0.873514
0.882358
0.918922
0.973514
1.01268
1.03183
1.04096
1.04699
1.04668
1.02102
0.97054
0.938558
0.931024
0.933904
0.943685
0.963428
1.00263
1.05277
1.07781
1.08577
1.08794
1.09027
1.09336
1.0873
1.06043
1.03224
1.01627
1.00915
1.00693
1.01061
1.03957
1.09157
1.12608
1.14515
1.15907
1.16762
1.17093
1.16072
1.11221
1.05423
1.0238
1.01618
1.0178
1.06162
1.10839
1.17517
3.26344
19.8109
0.748148
0.720862
0.70405
0.701139
0.702829
0.705857
0.710112
0.7156
0.731388
0.772184
0.799348
0.808318
0.812077
0.814524
0.815185
0.799828
0.779029
0.769119
0.765309
0.761613
0.759832
0.761787
0.765329
0.777122
0.822136
0.866905
0.884183
0.890504
0.893349
0.891648
0.875929
0.841902
0.819467
0.814482
0.817269
0.823259
0.828571
0.833105
0.844793
0.881595
0.918116
0.938229
0.949984
0.959308
0.966405
0.965674
0.946616
0.920335
0.898308
0.88094
0.871784
0.871277
0.875117
0.882834
0.923355
0.993096
1.02909
1.03983
1.04436
1.0415
1.03043
1.00556
0.970243
0.952154
0.951095
0.957444
0.96346
0.969747
0.994602
1.0379
1.06578
1.07857
1.08689
1.09917
1.11186
1.1116
1.08276
1.04256
1.01326
0.996462
0.990882
0.995155
1.02494
1.08851
1.13765
1.15907
1.16626
1.16864
1.16877
1.15453
1.10271
1.04399
1.01311
1.00536
1.01505
1.05812
1.14033
3.34014
19.8722
0.764123
0.742849
0.71267
0.704774
0.706062
0.71056
0.715448
0.718055
0.720932
0.734442
0.774566
0.802743
0.814067
0.821338
0.82627
0.82699
0.810478
0.7853
0.769391
0.762988
0.762012
0.763631
0.766461
0.769855
0.782024
0.83002
0.872486
0.886329
0.891221
0.895489
0.898118
0.88467
0.854246
0.834869
0.829366
0.829474
0.829248
0.825277
0.82493
0.832378
0.865269
0.913582
0.947688
0.965972
0.976539
0.982988
0.984452
0.965865
0.926548
0.89231
0.876691
0.874958
0.879165
0.886983
0.901531
0.941862
0.996709
1.0222
1.0293
1.03083
1.03136
1.03108
1.0207
0.997162
0.978377