/*--------------------------------*- C++ -*----------------------------------*\
  =========                 |
  \\      /  F ield         | OpenFOAM: The Open Source CFD Toolbox
   \\    /   O peration     | Website:  https://openfoam.org
    \\  /    A nd           | Version:  12
     \\/     M anipulation  |
\*---------------------------------------------------------------------------*/
FoamFile
{
    format      ascii;
    class       surfaceScalarField;
    location    "23";
    object      phi;
}
// * * * * * * * * * * * * * * * * * * * * * * * * * * * * * * * * * * * * * //

dimensions      [1 0 -1 0 0 0 0];

internalField   nonuniform List<scalar> 
19404
(
-0.00014897
-1.91357e-06
-0.000155098
-1.47598e-06
-0.000155994
-5.57046e-07
-0.000155986
-3.21184e-08
-0.000154505
1.10258e-06
-0.000146113
2.93947e-06
-0.00013849
2.22954e-06
-0.000137028
1.17214e-06
-0.000136959
3.99918e-07
-0.000137536
-8.6911e-07
-0.000141267
-2.17574e-06
-0.000149173
-2.92118e-06
-0.000154457
-1.14059e-06
-0.000155652
-1.72195e-07
-0.000155609
7.7854e-07
-0.0001535
2.56163e-06
-0.000147426
3.66942e-06
-0.000144106
1.82018e-06
-0.0001439
7.3607e-07
-0.000143965
-3.62217e-07
-0.000145494
-1.70816e-06
-0.000148398
-2.93902e-06
-0.00015075
-2.04991e-06
-0.00015203
-9.77927e-07
-0.000152607
2.03708e-08
-0.000152557
1.23316e-06
-0.000150928
2.73016e-06
-0.000148584
3.40416e-06
-0.000148553
1.78306e-06
-0.00014897
6.53808e-07
-0.000150965
-5.77354e-07
-0.000154161
-1.58397e-06
-0.00015529
-2.35501e-06
-0.000155195
-1.48968e-06
-0.000154297
-5.79843e-07
-0.000152065
4.80743e-07
-0.000150129
1.40498e-06
-0.000148731
2.16883e-06
-0.000148636
2.71543e-06
-0.000149562
1.28678e-06
-0.000152974
3.56119e-07
-0.000156606
-3.59123e-07
-0.000158639
-9.74065e-07
-0.000159218
-1.15404e-06
-0.000159158
-1.51597e-06
-0.000157331
-4.25854e-07
-0.000152979
6.05316e-07
-0.000150703
1.11565e-06
-0.000149765
1.29565e-06
-0.00014959
1.4847e-06
-0.000150308
1.39206e-06
-0.000155738
2.78303e-07
-0.000160476
-3.35464e-07
-0.000162344
-4.28576e-07
-0.000162979
-3.99283e-07
-0.000163099
-4.93045e-07
-0.000162586
-3.90443e-07
-0.000156993
2.0943e-07
-0.000152186
8.59556e-07
-0.000150978
9.48853e-07
-0.000150903
8.34981e-07
-0.000151023
6.10868e-07
-0.000153837
5.22649e-07
-0.000160559
2.12025e-07
-0.000164619
-1.19326e-07
-0.000166034
-1.23213e-07
-0.000166413
-1.05421e-07
-0.000166514
-5.87728e-08
-0.000165334
1.25616e-07
-0.000157739
3.97243e-07
-0.000152155
6.16719e-07
-0.000151011
3.55578e-07
-0.000151063
1.37323e-07
-0.000151926
-5.75707e-08
-0.000158409
-3.30987e-08
-0.000165863
3.37412e-08
-0.000168986
1.4342e-07
-0.000169946
2.57805e-07
-0.000170232
2.75573e-07
-0.000170247
9.02042e-08
-0.000165599
7.08334e-08
-0.000154191
3.19515e-08
-0.000148928
5.64606e-08
-0.000148427
-2.42106e-07
-0.000148765
-6.65245e-07
-0.000155257
-8.41285e-07
-0.000166364
-5.6557e-07
-0.000171487
-1.40989e-07
-0.000172956
4.97779e-07
-0.000173346
8.67046e-07
-0.000172814
7.20474e-07
-0.000164985
6.30422e-07
-0.000151033
1.62471e-07
-0.000138078
-6.86778e-07
-0.000128972
-1.29183e-06
-0.000128505
-9.87571e-07
-0.000136031
-1.33727e-05
-9.80131e-05
-4.76724e-05
3.75675e-05
-0.000147773
-2.87886e-06
-0.000152195
-2.31302e-06
-0.000152963
-3.19288e-07
-0.000152131
1.511e-06
-0.000149145
3.43164e-06
-0.000146428
4.01232e-06
-0.000143265
3.11154e-06
-0.00014192
1.32972e-06
-0.00014178
-5.14202e-07
-0.00014235
-2.02717e-06
-0.000143402
-3.16787e-06
-0.000146355
-3.3537e-06
-0.000149747
-1.66927e-06
-0.000151197
7.992e-07
-0.00015088
2.67895e-06
-0.000150351
4.30977e-06
-0.000150269
3.66538e-06
-0.000149724
2.66815e-06
-0.000148464
7.58483e-07
-0.000147924
-1.12118e-06
-0.000147863
-2.47499e-06
-0.000147812
-3.35126e-06
-0.000147916
-2.74545e-06
-0.000147992
-9.51104e-07
-0.00014836
7.82751e-07
-0.000149336
2.41487e-06
-0.000150203
3.65966e-06
-0.000151381
3.78123e-06
-0.000153007
2.2263e-06
-0.000154153
5.52507e-07
-0.000154585
-7.72655e-07
-0.00015464
-2.12268e-06
-0.000154434
-2.7462e-06
-0.000152462
-1.5741e-06
-0.000149632
1.44075e-07
-0.000148092
1.23499e-06
-0.000147617
2.05326e-06
-0.000147745
2.57193e-06
-0.000150186
2.68666e-06
-0.000154461
1.45546e-06
-0.000157317
3.72284e-07
-0.000158787
-3.57643e-07
-0.00015953
-1.18154e-06
-0.000159508
-1.56276e-06
-0.000158344
-1.32298e-06
-0.000153383
4.81123e-07
-0.000150049
1.52247e-06
-0.000148992
1.66404e-06
-0.000148817
1.5762e-06
-0.000148981
1.51164e-06
-0.000152228
1.16641e-06
-0.000158792
-9.58616e-08
-0.000162046
-5.51808e-07
-0.000163064
-4.14612e-07
-0.00016329
-4.71296e-07
-0.000163271
-4.83899e-07
-0.00016123
2.17038e-07
-0.000154706
1.2006e-06
-0.000151006
1.51449e-06
-0.000150375
1.19338e-06
-0.000150406
8.8898e-07
-0.000150668
5.16178e-07
-0.000154288
2.55033e-07
-0.000161419
-2.53255e-07
-0.000165085
-2.07861e-07
-0.000166113
-1.42169e-07
-0.000166364
4.52295e-08
-0.000166401
3.10674e-07
-0.000164701
5.6251e-07
-0.000157425
8.90653e-07
-0.000152189
8.15507e-07
-0.000150936
4.22508e-07
-0.000150995
2.70862e-08
-0.000151442
-3.1011e-07
-0.000156952
-5.37524e-07
-0.000164886
-2.66302e-07
-0.000168552
1.77442e-07
-0.000169714
3.95079e-07
-0.000169969
4.56758e-07
-0.000169885
4.27489e-07
-0.000165219
4.88885e-07
-0.000154371
3.33252e-07
-0.000148673
-2.9595e-07
-0.000147535
-1.07153e-06
-0.000147536
-1.57273e-06
-0.000150679
-2.12887e-06
-0.000160358
-1.68613e-06
-0.000167026
-3.93671e-07
-0.000169485
3.88132e-07
-0.00017016
6.02899e-07
-0.000169924
4.7969e-07
-0.000162985
2.07723e-07
-0.000149064
-1.20706e-06
-0.000136204
-3.32501e-06
-0.000126183
-4.97116e-06
-0.000121405
-6.17841e-06
-0.000123622
-2.58334e-05
-0.000129902
-5.32646e-05
4.31708e-05
-0.000143597
-2.67264e-06
-0.0001445
-1.36048e-06
-0.000145833
5.66585e-07
-0.000146902
2.29222e-06
-0.000146961
3.38587e-06
-0.000147299
3.24874e-06
-0.000147677
2.15878e-06
-0.000147417
1.03929e-06
-0.000146392
-2.89335e-07
-0.000145466
-1.63804e-06
-0.000144328
-2.96241e-06
-0.000142403
-1.7157e-06
-0.000141821
-2.35135e-07
-0.000143186
8.29411e-07
-0.000146227
2.33643e-06
-0.000149946
3.78075e-06
-0.00015302
3.02297e-06
-0.00015386
1.88369e-06
-0.000153558
9.34986e-07
-0.000151792
-2.61927e-07
-0.000149524
-1.68985e-06
-0.000145979
-2.74786e-06
-0.000142372
-1.03038e-06
-0.000141455
4.73997e-08
-0.000141903
5.23605e-07
-0.000144672
1.34167e-06
-0.00014992
2.59318e-06
-0.000155524
2.56097e-06
-0.000157678
1.46517e-06
-0.000157975
5.56885e-07
-0.000157621
-1.74057e-07
-0.000155669
-7.58052e-07
-0.000150348
-1.39537e-06
-0.000145293
3.53008e-07
-0.000144003
7.95248e-07
-0.000143973
7.87612e-07
-0.000144506
1.05338e-06
-0.00014664
1.43544e-06
-0.000153466
1.53927e-06
-0.000158692
5.43716e-07
-0.000159784
4.16802e-07
-0.00015992
4.43597e-08
-0.000159869
-5.97264e-07
-0.000158463
-4.63555e-07
-0.000152457
8.97252e-07
-0.000148327
1.64888e-06
-0.000147455
1.31717e-06
-0.000147427
1.22748e-06
-0.000147489
8.84514e-07
-0.000148761
4.26715e-07
-0.00015396
-3.21765e-08
-0.000159781
-1.32594e-07
-0.000161906
-3.43939e-07
-0.000162162
-2.11869e-07
-0.000162103
3.06896e-07
-0.000160905
1.01174e-06
-0.000157132
1.51458e-06
-0.000152432
1.41922e-06
-0.000149965
1.13683e-06
-0.000149516
6.18551e-07
-0.000149532
3.15169e-08
-0.000149963
-4.35764e-07
-0.000154281
-5.23321e-07
-0.000160911
-3.62802e-07
-0.000163301
1.35029e-08
-0.000163863
6.92688e-07
-0.000163886
1.13422e-06
-0.000163677
1.26315e-06
-0.000162119
1.16133e-06
-0.000156073
9.16142e-07
-0.000150951
2.41617e-07
-0.000149295
-3.80027e-07
-0.000149128
-7.10414e-07
-0.00014934
-9.29283e-07
-0.000153429
-1.20439e-06
-0.000161538
-4.84139e-07
-0.000165047
4.87981e-07
-0.000165914
1.03927e-06
-0.000166166
1.29769e-06
-0.00016611
1.29772e-06
-0.000163065
1.06826e-06
-0.00015361
2.67716e-07
-0.000146428
-1.42938e-06
-0.00014393
-2.51257e-06
-0.000143703
-3.04116e-06
-0.000144401
-3.43825e-06
-0.000151827
-3.61527e-06
-0.000160808
-2.05858e-06
-0.000164208
-5.46192e-07
-0.000164925
1.48175e-07
-0.000164973
2.79978e-07
-0.000159546
-2.36073e-07
-0.000147509
-2.04577e-06
-0.000136185
-5.73527e-06
-0.000126727
-8.9881e-06
-0.00012034
-1.16306e-05
-0.000121732
-3.11652e-05
-0.000134716
-5.23917e-05
4.35157e-05
-0.00014006
1.55965e-07
-0.000138665
1.24472e-06
-0.000138747
1.44045e-06
-0.000141593
1.54621e-06
-0.000147288
1.5693e-06
-0.000150416
1.822e-06
-0.000151217
9.54156e-07
-0.000151239
3.92443e-07
-0.000150624
-1.64431e-07
-0.000147275
-7.59135e-07
-0.000140431
1.89678e-07
-0.000137172
9.41918e-07
-0.000136775
1.1173e-06
-0.00013718
1.19109e-06
-0.000143003
1.04118e-06
-0.000152193
1.5239e-06
-0.000155563
1.40807e-06
-0.000155945
9.15362e-07
-0.000155875
5.07507e-07
-0.000155151
2.94743e-08
-0.000150061
-4.58639e-07
-0.000141058
8.31246e-07
-0.000138049
1.24093e-06
-0.000137816
9.25953e-07
-0.000137895
7.24219e-07
-0.000141015
3.04469e-07
-0.000151234
3.439e-07
-0.000157688
9.72193e-07
-0.000158803
7.27868e-07
-0.000158887
3.99097e-07
-0.000158666
-9.30158e-08
-0.000154329
5.3932e-07
-0.000144893
1.89678e-06
-0.00014151
1.97004e-06
-0.000141283
1.26343e-06
-0.000141351
5.8943e-07
-0.000142319
-1.81532e-07
-0.000146355
-4.93517e-07
-0.000154151
-9.82255e-09
-0.000158945
1.98328e-07
-0.000159767
2.4016e-07
-0.000159688
4.55231e-07
-0.000158476
1.13733e-06
-0.000153928
2.11743e-06
-0.000148661
2.56484e-06
-0.000146375
1.80972e-06
-0.000146208
8.12096e-07
-0.000146232
2.14919e-07
-0.000146596
-5.03675e-07
-0.000148464
-8.92845e-07
-0.000153759
-8.17842e-07
-0.000157859
-4.21764e-07
-0.000158819
4.67377e-07
-0.000158853
1.39295e-06
-0.00015823
2.09651e-06
-0.000157309
2.26004e-06
-0.000154967
1.96765e-06
-0.000151507
1.25547e-06
-0.000149596
1.64876e-07
-0.000148828
-3.99294e-07
-0.000148572
-8.76937e-07
-0.000148616
-1.05833e-06
-0.000150468
-1.11315e-06
-0.000155895
-2.39806e-07
-0.000158741
1.0652e-06
-0.000159674
1.81627e-06
-0.000160056
1.93173e-06
-0.000160118
1.70798e-06
-0.000159669
1.41531e-06
-0.000155069
8.2532e-07
-0.00014952
-3.80703e-07
-0.000147089
-1.29325e-06
-0.000146313
-1.54018e-06
-0.000146321
-1.45773e-06
-0.000147559
-1.44077e-06
-0.000154442
-7.99219e-07
-0.000159191
6.9439e-07
-0.000160615
1.57453e-06
-0.000161086
1.70323e-06
-0.000161256
1.41224e-06
-0.000160343
1.06153e-06
-0.000153079
2.27869e-07
-0.00014413
-1.65339e-06
-0.000139499
-3.53206e-06
-0.000138588
-4.51893e-06
-0.000138574
-4.90471e-06
-0.000141012
-5.3818e-06
-0.000148758
-4.80851e-06
-0.000153799
-2.94449e-06
-0.000155397
-1.48529e-06
-0.000155831
-1.20708e-06
-0.000153572
-1.50163e-06
-0.000144424
-3.28828e-06
-0.000133147
-7.37401e-06
-0.000122524
-1.12534e-05
-0.000116744
-1.36531e-05
-0.000120317
-3.20496e-05
-0.000136391
-5.20259e-05
4.41259e-05
-0.000137197
2.34979e-06
-0.000136925
2.97648e-06
-0.000137065
2.10401e-06
-0.000139572
1.33361e-06
-0.00014684
2.51751e-07
-0.00015134
-5.2748e-07
-0.000151718
-1.67067e-07
-0.000151564
-2.99215e-07
-0.000150185
-5.6812e-08
-0.000143329
1.47226e-06
-0.000136846
2.5653e-06
-0.000135421
2.66779e-06
-0.000135325
2.17288e-06
-0.000135832
1.2824e-06
-0.000141598
5.4454e-07
-0.000152311
-8.85812e-07
-0.00015575
-3.36085e-07
-0.000155947
-9.15671e-08
-0.000155808
-1.19855e-07
-0.000153542
5.72838e-07
-0.000144869
2.34787e-06
-0.000138418
3.12272e-06
-0.00013717
2.37471e-06
-0.000137114
1.59396e-06
-0.000137191
7.6254e-07
-0.000139493
-3.89536e-08
-0.000150144
-1.71516e-06
-0.000157223
-1.02004e-06
-0.000158088
-1.9564e-07
-0.000157862
3.18845e-07
-0.000155397
1.58387e-06
-0.000148958
3.09774e-06
-0.000143718
3.69779e-06
-0.000141651
2.37804e-06
-0.000141098
1.35832e-06
-0.000140985
4.41953e-07
-0.00014137
-8.54265e-07
-0.0001445
-2.00913e-06
-0.000151991
-1.80076e-06
-0.000155772
-4.48186e-07
-0.000156258
9.03038e-07
-0.000155722
2.15052e-06
-0.000153738
3.21732e-06
-0.000151275
3.44005e-06
-0.000148629
3.0589e-06
-0.000146256
1.67266e-06
-0.000145383
4.53222e-07
-0.000145302
-9.97068e-07
-0.000145402
-1.60103e-06
-0.00014598
-1.85537e-06
-0.000148832
-1.43817e-06
-0.000152195
2.70909e-08
-0.000153812
1.61971e-06
-0.000154478
2.73012e-06
-0.000154758
3.0163e-06
-0.000154827
2.65577e-06
-0.000154365
2.14333e-06
-0.000151151
1.25602e-06
-0.000148027
-1.68099e-07
-0.000146403
-1.2562e-06
-0.000145245
-1.43357e-06
-0.000144598
-1.05715e-06
-0.000144812
-7.29212e-07
-0.000148536
-3.12806e-07
-0.000153675
1.08012e-06
-0.00015586
2.05261e-06
-0.000156709
2.14551e-06
-0.000156996
1.82135e-06
-0.000156977
1.46278e-06
-0.000154387
1.05156e-06
-0.000147511
-2.77818e-07
-0.000143059
-1.13913e-06
-0.000141558
-1.79552e-06
-0.000141191
-1.76804e-06
-0.00014143
-1.67248e-06
-0.000146192
-1.40514e-06
-0.000153319
4.44125e-09
-0.000155943
1.39749e-06
-0.000156654
1.79086e-06
-0.000156944
1.54039e-06
-0.000156826
1.10279e-06
-0.00015273
4.79258e-07
-0.000143495
-1.31108e-06
-0.000136115
-3.47447e-06
-0.000133203
-4.64313e-06
-0.000133014
-6.16845e-06
-0.000133417
-6.88031e-06
-0.000138307
-7.16368e-06
-0.000145373
-6.23197e-06
-0.000148767
-4.66802e-06
-0.000149764
-3.90535e-06
-0.000149843
-3.93188e-06
-0.000145434
-4.47783e-06
-0.000136207
-8.11584e-06
-0.000125668
-1.21313e-05
-0.00011732
-1.5237e-05
-0.000117789
-3.19955e-05
-0.000137601
-4.98427e-05
4.42251e-05
-0.000137934
3.68453e-06
-0.000137827
4.16245e-06
-0.000138637
2.43809e-06
-0.000143033
3.47297e-07
-0.000147793
-1.22686e-06
-0.000149845
-1.48921e-06
-0.000149823
-1.55703e-06
-0.000148835
-6.60409e-07
-0.000143733
1.66906e-06
-0.000138812
3.13802e-06
-0.000136384
3.76695e-06
-0.000135899
3.87904e-06
-0.000135878
2.85282e-06
-0.000137737
1.19738e-06
-0.000144204
-9.34131e-07
-0.000150121
-2.02691e-06
-0.000153036
-1.81538e-06
-0.000153221
-1.12293e-06
-0.000151892
3.94227e-07
-0.000146473
2.78667e-06
-0.000141912
3.76294e-06
-0.000139144
3.81184e-06
-0.000137896
3.09021e-06
-0.000137645
1.87701e-06
-0.000138152
3.74486e-07
-0.000141248
-1.30567e-06
-0.000147267
-1.98703e-06
-0.000151764
-1.92304e-06
-0.000152755
-3.00943e-07
-0.000152034
1.65602e-06
-0.00014938
3.43759e-06
-0.000146923
3.95255e-06
-0.000144417
3.76141e-06
-0.00014264
2.41144e-06
-0.000142029
1.04636e-06
-0.000142164
-3.90725e-07
-0.000142434
-1.632e-06
-0.000142757
-2.04006e-06
-0.000145506
-1.95877e-06
-0.000148916
-3.14708e-07
-0.000150244
1.79106e-06
-0.000150361
3.32057e-06
-0.000150307
3.79469e-06
-0.000150221
3.4372e-06
-0.000149211
2.91196e-06
-0.000147345
1.40096e-06
-0.000145735
-9.98684e-09
-0.000144643
-1.17087e-06
-0.00014367
-1.71745e-06
-0.00014269
-1.25887e-06
-0.000142582
-5.31236e-07
-0.000144783
2.15955e-07
-0.00014844
1.70292e-06
-0.00015077
2.9025e-06
-0.000152345
3.0865e-06
-0.000153105
2.5635e-06
-0.000153119
1.88765e-06
-0.000151782
1.38004e-06
-0.000147294
2.12939e-07
-0.000143216
-1.00968e-06
-0.000140929
-1.03378e-06
-0.000140115
-6.95847e-07
-0.00014005
-4.47229e-07
-0.000141784
-2.87703e-07
-0.000148477
3.58207e-07
-0.000152669
1.47182e-06
-0.000153951
1.85647e-06
-0.000154257
1.74573e-06
-0.000154334
1.48497e-06
-0.000153561
1.23209e-06
-0.000147205
6.80249e-07
-0.000139981
-7.40476e-07
-0.000137168
-1.30872e-06
-0.000136885
-2.06936e-06
-0.000136892
-2.42244e-06
-0.000139049
-2.41464e-06
-0.000146751
-1.70501e-06
-0.000152192
2.52707e-07
-0.000153814
1.46056e-06
-0.000154184
1.58732e-06
-0.000154316
1.35935e-06
-0.000152272
1.0383e-06
-0.000144173
-5.08952e-08
-0.000136125
-2.43416e-06
-0.000131154
-4.59518e-06
-0.000129362
-6.35933e-06
-0.000129342
-7.66587e-06
-0.000130751
-8.83624e-06
-0.000136475
-9.23127e-06
-0.000141521
-8.41031e-06
-0.000143804
-7.4178e-06
-0.000144457
-7.116e-06
-0.000143996
-7.29474e-06
-0.000139675
-8.62094e-06
-0.00013252
-1.29116e-05
-0.000123501
-1.58944e-05
-0.000119224
-2.88465e-05
-0.000136427
-5.02588e-05
4.80243e-05
-0.000137524
3.32634e-06
-0.000141518
4.07066e-06
-0.000144948
2.55732e-06
-0.000146646
8.06739e-07
-0.00014719
-1.17252e-06
-0.000147036
-1.95202e-06
-0.000145602
-1.50889e-06
-0.000140247
6.4153e-07
-0.000136906
2.01372e-06
-0.000135932
2.80514e-06
-0.000135793
3.62885e-06
-0.00013589
3.74502e-06
-0.000138867
2.3096e-06
-0.000143729
4.85517e-07
-0.000146584
-3.7072e-07
-0.000148037
-1.81997e-06
-0.000148242
-1.79017e-06
-0.000147356
-2.47392e-07
-0.000143445
2.32466e-06
-0.000140737
2.95641e-06
-0.000139923
3.22918e-06
-0.000139605
3.45071e-06
-0.000139421
2.93934e-06
-0.000140024
8.14724e-07
-0.000141231
-3.69394e-07
-0.000142825
-8.81222e-07
-0.000143923
-1.58924e-06
-0.000144769
-6.88446e-07
-0.000145215
1.02507e-06
-0.000145108
2.77113e-06
-0.000145264
3.34412e-06
-0.000145292
3.19224e-06
-0.000145355
3.07236e-06
-0.000144905
1.86344e-06
-0.000144046
2.99803e-07
-0.000143399
-7.52171e-07
-0.000142292
-1.53043e-06
-0.000140615
-1.0675e-06
-0.000140138
-2.04966e-07
-0.000141258
4.8864e-07
-0.000144032
1.85857e-06
-0.000146349
3.1012e-06
-0.00014841
2.93674e-06
-0.000149556
2.62954e-06
-0.000149668
1.87917e-06
-0.000149017
1.27802e-06
-0.00014669
2.62859e-07
-0.000143531
-8.60534e-07
-0.000140173
-5.15391e-07
-0.000138354
1.53567e-07
-0.000138073
5.26238e-07
-0.000138695
7.17692e-07
-0.000143472
1.27242e-06
-0.000148434
2.04128e-06
-0.000150861
2.27425e-06
-0.000151741
1.95656e-06
-0.000151893
1.55077e-06
-0.000151665
1.21128e-06
-0.000147298
7.14857e-07
-0.000140192
1.85173e-07
-0.000137171
7.44317e-08
-0.000136695
-3.08471e-07
-0.000136692
-5.43099e-07
-0.000137669
-6.55907e-07
-0.000143765
-5.06358e-07
-0.000149943
4.56785e-07
-0.000151809
1.36886e-06
-0.000152067
1.62111e-06
-0.000152137
1.58831e-06
-0.000151859
1.56581e-06
-0.00014763
1.54789e-06
-0.000139791
4.27435e-07
-0.000135263
-1.23168e-06
-0.000134144
-2.28486e-06
-0.000134169
-3.16685e-06
-0.000134663
-3.69836e-06
-0.000139512
-3.7381e-06
-0.000147783
-2.08818e-06
-0.000151605
2.82481e-07
-0.000152308
1.33729e-06
-0.000152458
1.57444e-06
-0.000151833
1.60718e-06
-0.000146888
1.45059e-06
-0.00013853
-7.30077e-07
-0.000132244
-3.77718e-06
-0.00012864
-6.1629e-06
-0.000127484
-7.92518e-06
-0.00012762
-9.88886e-06
-0.000130078
-1.10714e-05
-0.000135306
-1.13649e-05
-0.000138749
-1.06844e-05
-0.000140255
-1.02301e-05
-0.000140823
-1.0494e-05
-0.000140109
-1.16826e-05
-0.000136759
-1.3962e-05
-0.000130517
-1.72305e-05
-0.000124014
-2.55109e-05
-0.000133267
-5.11851e-05
5.50881e-05
-0.000138993
1.76382e-06
-0.000147899
2.80327e-06
-0.000149948
1.80861e-06
-0.00014978
1.29711e-06
-0.000148398
7.20804e-07
-0.000144615
-2.42067e-07
-0.000136952
3.21118e-07
-0.000132653
1.79333e-06
-0.000132154
1.96008e-06
-0.000132286
1.82606e-06
-0.000133688
1.66616e-06
-0.000137728
1.76273e-06
-0.000144297
5.46354e-07
-0.000147423
4.05803e-07
-0.000147732
9.90903e-08
-0.000147497
-1.24373e-07
-0.000144716
8.86663e-07
-0.000140111
2.61838e-06
-0.000138427
2.94288e-06
-0.000138174
2.61769e-06
-0.000138163
2.50711e-06
-0.000139681
1.82413e-06
-0.000142186
3.36496e-07
-0.000142633
-2.76834e-07
-0.000142459
-3.75677e-07
-0.000142092
-5.39092e-07
-0.000141066
2.63398e-07
-0.000140044
1.49488e-06
-0.00013975
2.79167e-06
-0.000140471
3.30096e-06
-0.000142815
2.69829e-06
-0.000144917
2.2307e-06
-0.000146136
1.09406e-06
-0.000146342
4.89324e-07
-0.00014594
-2.60443e-07
-0.000143665
-5.45482e-07
-0.000139633
-2.58063e-07
-0.000136992
6.3007e-07
-0.000136399
1.16675e-06
-0.000136575
1.4118e-06
-0.000139483
1.85216e-06
-0.00014441
2.04296e-06
-0.000148265
1.9209e-06
-0.000149621
1.22832e-06
-0.000149662
1.06609e-06
-0.000149486
8.06169e-07
-0.000146749
3.5542e-07
-0.000140394
4.13578e-07
-0.000136699
1.06782e-06
-0.000135847
9.9222e-07
-0.000135744
8.72561e-07
-0.000136087
8.10086e-07
-0.000140453
7.92497e-07
-0.000147352
9.03187e-07
-0.000150302
1.14577e-06
-0.000150751
1.19943e-06
-0.000150774
1.13766e-06
-0.000150528
1.19936e-06
-0.000146853
1.7391e-06
-0.000139141
1.81838e-06
-0.00013543
5.25641e-07
-0.000134834
-1.38961e-07
-0.000134871
-8.96677e-07
-0.000135522
-1.53479e-06
-0.000140116
-1.67919e-06
-0.000147349
-8.0696e-07
-0.000150009
7.82192e-07
-0.000150339
1.62137e-06
-0.000150361
1.99122e-06
-0.000150127
2.15793e-06
-0.000148162
2.07614e-06
-0.00014148
1.3298e-06
-0.000135969
-7.73231e-07
-0.000133501
-2.56923e-06
-0.000132898
-3.80459e-06
-0.000132889
-4.74843e-06
-0.000133791
-5.01452e-06
-0.000140118
-4.73955e-06
-0.000147022
-2.28204e-06
-0.000149651
2.35679e-07
-0.00015027
1.35618e-06
-0.000150448
1.58547e-06
-0.000149214
1.76724e-06
-0.000143203
6.89367e-07
-0.000135781
-1.77152e-06
-0.000130697
-5.27223e-06
-0.000127724
-8.06433e-06
-0.000126611
-1.00537e-05
-0.000126879
-1.19437e-05
-0.000129531
-1.29442e-05
-0.000133792
-1.30148e-05
-0.00013623
-1.25306e-05
-0.000137419
-1.25685e-05
-0.000138001
-1.39471e-05
-0.000137444
-1.6343e-05
-0.000134894
-1.88179e-05
-0.000129695
-2.34889e-05
-0.000129733
-5.20241e-05
6.17631e-05
-0.00013921
6.89595e-07
-0.00014992
-6.68863e-09
-0.000151383
1.17043e-06
-0.00015127
1.11259e-06
-0.000150479
1.15264e-06
-0.00014199
2.38327e-06
-0.000132862
3.70067e-06
-0.000131058
2.6698e-06
-0.000130918
2.07738e-06
-0.000130877
1.61107e-06
-0.000132448
2.47623e-07
-0.000138755
-1.65268e-06
-0.000144796
-1.0232e-06
-0.000146915
-1.34175e-07
-0.000146666
7.24933e-07
-0.000144279
2.33361e-06
-0.000140003
4.06711e-06
-0.000138439
4.17409e-06
-0.000138251
3.23281e-06
-0.000138213
2.68473e-06
-0.000139537
1.33088e-06
-0.000142461
-2.66413e-07
-0.000142901
-1.36549e-06
-0.000142745
-1.05465e-06
-0.000141501
-5.58461e-07
-0.000138821
8.64364e-07
-0.000137423
2.04423e-06
-0.000137274
2.92822e-06
-0.000137876
3.87831e-06
-0.000140417
3.16212e-06
-0.000144101
2.31206e-06
-0.000146417
1.08287e-06
-0.000146853
2.02516e-07
-0.000146733
-3.37167e-07
-0.000145412
-4.16987e-07
-0.000140422
2.53212e-07
-0.000136073
1.29432e-06
-0.000134673
1.64429e-06
-0.000134434
1.73698e-06
-0.000134585
1.84928e-06
-0.000138471
1.72987e-06
-0.00014575
1.12309e-06
-0.000148353
7.33694e-07
-0.00014885
6.64557e-07
-0.000148899
5.25312e-07
-0.00014873
4.24724e-07
-0.000144761
1.06572e-06
-0.000137297
2.0343e-06
-0.000134486
1.68863e-06
-0.000134204
1.13279e-06
-0.000134227
6.52034e-07
-0.000134842
2.24829e-07
-0.000139691
-2.00138e-07
-0.000146996
-1.22624e-07
-0.000149356
4.3031e-07
-0.000149547
7.97784e-07
-0.00014937
1.31003e-06
-0.000148374
2.15489e-06
-0.000145545
2.8084e-06
-0.000139779
2.12317e-06
-0.000135789
1.08711e-06
-0.000134684
-3.4949e-07
-0.000134521
-1.51084e-06
-0.000134671
-2.59056e-06
-0.000136856
-2.71927e-06
-0.000143355
-2.18478e-06
-0.000147573
4.46154e-08
-0.000148528
1.76861e-06
-0.000148607
2.55422e-06
-0.000148644
2.76699e-06
-0.000148356
2.51137e-06
-0.000145192
2.06191e-06
-0.000139019
1.87601e-07
-0.000134737
-2.47341e-06
-0.000132375
-4.23756e-06
-0.000131782
-5.01641e-06
-0.000131796
-5.60801e-06
-0.000133113
-5.76059e-06
-0.00013957
-5.05706e-06
-0.00014551
-2.21186e-06
-0.000148116
1.01579e-07
-0.000148908
9.55048e-07
-0.000148996
1.06339e-06
-0.000147127
9.59737e-07
-0.00014147
-4.90679e-07
-0.000134939
-3.18231e-06
-0.000129927
-6.64959e-06
-0.000126737
-9.78486e-06
-0.000125647
-1.1942e-05
-0.000125935
-1.34114e-05
-0.000128699
-1.45794e-05
-0.000132616
-1.45115e-05
-0.000134908
-1.41769e-05
-0.000136294
-1.50676e-05
-0.00013674
-1.77455e-05
-0.000136314
-2.01098e-05
-0.000133625
-2.25918e-05
-0.000127971
-5.18073e-05
6.5983e-05
-0.000139453
-1.22422e-06
-0.000148251
-1.60086e-06
-0.000149821
-6.62716e-08
-0.00014954
1.40001e-06
-0.000146046
3.36321e-06
-0.000138749
5.18451e-06
-0.000133557
4.94957e-06
-0.000131945
3.78976e-06
-0.000131955
2.26516e-06
-0.000133907
1.70175e-07
-0.000136825
-1.84342e-06
-0.000138388
-2.90148e-06
-0.000140235
-2.48414e-06
-0.000141541
-3.78871e-07
-0.000141435
2.13895e-06
-0.000140283
4.12391e-06
-0.000139723
5.5179e-06
-0.00013958
5.08022e-06
-0.000139652
3.59298e-06
-0.000140859
1.70227e-06
-0.0001422
1.09269e-07
-0.000142363
-1.29482e-06
-0.000142191
-1.87396e-06
-0.000140077
-1.1507e-06
-0.000136123
6.05761e-07
-0.000134327
1.78238e-06
-0.000134078
2.47089e-06
-0.000134936
3.02067e-06
-0.000138631
3.73487e-06
-0.000143423
2.96901e-06
-0.000146167
1.80432e-06
-0.000146882
9.07386e-07
-0.000146828
7.11027e-08
-0.000146403
-2.72814e-07
-0.000141593
2.95042e-07
-0.000135582
1.49104e-06
-0.00013348
1.67557e-06
-0.000133115
1.63784e-06
-0.000133075
1.55026e-06
-0.000133772
1.56595e-06
-0.000140253
1.01334e-06
-0.000146833
-2.93537e-08
-0.000148355
4.58738e-07
-0.000148443
5.78899e-07
-0.000148368
6.78388e-07
-0.000146747
1.53312e-06
-0.000141689
2.81248e-06
-0.000136498
2.59845e-06
-0.000133973
1.70224e-06
-0.000133611
9.83e-07
-0.000133651
1.04191e-07
-0.000134797
-1.35835e-06
-0.000139628
-1.74971e-06
-0.00014548
-8.60489e-07
-0.000147385
1.5905e-07
-0.000147624
1.45254e-06
-0.000146922
2.66347e-06
-0.000146234
3.37879e-06
-0.000145323
3.27259e-06
-0.000142067
2.65886e-06
-0.000138111
9.5593e-07
-0.00013638
-9.50613e-07
-0.000135656
-2.41015e-06
-0.000134986
-3.01511e-06
-0.000135054
-2.8159e-06
-0.000136913
-2.75149e-06
-0.000142725
-1.1789e-06
-0.000146313
1.5328e-06
-0.000147589
2.99476e-06
-0.000148005
3.33804e-06
-0.000148207
3.04418e-06
-0.000147833
2.42259e-06
-0.000143336
1.42416e-06
-0.000137248
-1.20309e-06
-0.000133553
-3.82133e-06
-0.000131411
-5.20263e-06
-0.000130172
-5.6234e-06
-0.000130203
-5.63644e-06
-0.000131597
-5.89211e-06
-0.000138163
-5.25305e-06
-0.000144004
-2.83228e-06
-0.000146647
-8.774e-07
-0.000147516
-2.29167e-07
-0.000147527
-8.81034e-08
-0.000145741
-3.7778e-07
-0.000140769
-1.90886e-06
-0.000134074
-4.19545e-06
-0.000128414
-7.60304e-06
-0.000125238
-1.10608e-05
-0.000124445
-1.34083e-05
-0.000124843
-1.5363e-05
-0.00012826
-1.6466e-05
-0.000132591
-1.61371e-05
-0.000135119
-1.61437e-05
-0.000136211
-1.82598e-05
-0.000136336
-2.09695e-05
-0.000135615
-2.24515e-05
-0.000126826
-5.09744e-05
6.86259e-05
-0.000137275
-2.18831e-06
-0.000140992
-2.63795e-06
-0.000142695
-1.07268e-07
-0.000142366
2.73964e-06
-0.000140408
4.81212e-06
-0.000138881
6.15273e-06
-0.000137334
5.91789e-06
-0.000136546
3.72898e-06
-0.000137018
1.27172e-06
-0.00013795
-7.06384e-07
-0.000137899
-2.25345e-06
-0.000137396
-2.77217e-06
-0.000134892
-1.17206e-06
-0.000133722
5.4213e-07
-0.000134499
1.68035e-06
-0.000136776
3.41497e-06
-0.000139602
5.10157e-06
-0.000142523
4.87403e-06
-0.000144237
3.33058e-06
-0.000144661
1.83129e-06
-0.000144375
3.22026e-07
-0.000143419
-8.84115e-07
-0.000139208
-1.20148e-06
-0.000133797
2.45164e-07
-0.000131428
1.17604e-06
-0.000130978
1.57072e-06
-0.000131017
1.91216e-06
-0.000133477
2.17304e-06
-0.000141935
2.87892e-06
-0.000147374
1.76528e-06
-0.000148076
1.46707e-06
-0.000147984
1.29591e-06
-0.000147409
1.01335e-06
-0.000144158
6.87934e-07
-0.000136823
2.05003e-06
-0.000132705
2.31797e-06
-0.000131967
1.75218e-06
-0.000131931
1.3812e-06
-0.000132049
1.07463e-06
-0.00013469
-1.14028e-07
-0.000141624
-1.35353e-06
-0.000146779
-2.18518e-07
-0.000148071
3.30319e-07
-0.000148053
1.04315e-06
-0.000146615
2.47028e-06
-0.000143941
3.78876e-06
-0.000140916
3.77508e-06
-0.000137086
2.74526e-06
-0.000135323
1.60563e-06
-0.000135066
8.39946e-08
-0.000135639
-1.52835e-06
-0.00013588
-2.61404e-06
-0.000136934
-2.30705e-06
-0.000140897
-1.70872e-06
-0.000143936
5.91917e-07
-0.000144846
2.52632e-06
-0.000144998
3.73749e-06
-0.000145397
3.94804e-06
-0.000145546
3.23387e-06
-0.000145229
2.56503e-06
-0.00014206
1.39667e-06
-0.000138423
-8.34196e-07
-0.000135997
-2.63297e-06
-0.000134126
-3.19968e-06
-0.000132675
-2.82033e-06
-0.000132696
-2.41009e-06
-0.00013561
-2.11195e-06
-0.00014246
-2.09265e-07
-0.000146215
2.47912e-06
-0.000147608
3.43031e-06
-0.000148366
3.18044e-06
-0.000148593
2.46802e-06
-0.000147713
1.99186e-06
-0.000142008
9.43724e-07
-0.000135719
-1.73631e-06
-0.000131631
-4.17967e-06
-0.000129047
-5.13225e-06
-0.000128351
-5.3455e-06
-0.000128413
-5.97021e-06
-0.000130628
-6.57812e-06
-0.000137678
-6.3034e-06
-0.000143542
-4.23049e-06
-0.000146116
-2.47944e-06
-0.000146663
-1.81431e-06
-0.000146327
-1.34189e-06
-0.000144025
-1.64158e-06
-0.000139454
-2.90053e-06
-0.000132835
-5.162e-06
-0.000127045
-8.77448e-06
-0.000123926
-1.26987e-05
-0.000123388
-1.55023e-05
-0.000124032
-1.79663e-05
-0.000128536
-1.86533e-05
-0.000133116
-1.80378e-05
-0.000135614
-1.88857e-05
-0.000136315
-2.13517e-05
-0.000136971
-2.23998e-05
-0.000126523
-4.98857e-05
7.10335e-05
-0.000136072
-1.81904e-06
-0.000134831
-1.06942e-06
-0.000134019
1.03085e-06
-0.000134757
2.43922e-06
-0.000136093
4.05177e-06
-0.00013812
5.00607e-06
-0.000141427
4.65488e-06
-0.000142781
2.75972e-06
-0.000142624
1.56469e-06
-0.000141613
1.69526e-07
-0.000138614
-8.17506e-07
-0.000132681
-1.27419e-06
-0.000128974
5.83188e-07
-0.000128342
1.17786e-06
-0.000128495
1.44252e-06
-0.000132501
1.87654e-06
-0.000141645
2.88186e-06
-0.000147247
3.28392e-06
-0.00014831
2.31878e-06
-0.000148252
1.76e-06
-0.000147209
1.34038e-06
-0.000142366
1.04033e-06
-0.000133727
8.35126e-07
-0.00012932
1.82238e-06
-0.00012867
1.67895e-06
-0.00012859
1.5105e-06
-0.000128888
1.27878e-06
-0.000132747
1.20083e-06
-0.000144093
-5.3373e-07
-0.000148766
5.53523e-07
-0.000149209
1.1607e-06
-0.000149139
1.37404e-06
-0.000147981
1.8352e-06
-0.000142052
3.60424e-06
-0.000135912
3.82427e-06
-0.000132746
2.6641e-06
-0.000132101
1.86099e-06
-0.000132114
8.4369e-07
-0.000133412
-8.3497e-07
-0.000136109
-2.38814e-06
-0.000140698
-2.01373e-06
-0.000144306
-8.06858e-07
-0.000145201
1.01601e-06
-0.000144623
2.87575e-06
-0.000142973
4.49811e-06
-0.000142553
4.92383e-06
-0.000142255
4.15856e-06
-0.000140443
3.12035e-06
-0.000138408
1.16818e-06
-0.000137293
-8.26282e-07
-0.000136645
-2.25685e-06
-0.00013543
-2.63748e-06
-0.000134496
-2.11018e-06
-0.000134829
-1.3267e-06
-0.000138756
-8.97695e-08
-0.000142448
2.32905e-06
-0.000144236
3.87079e-06
-0.000145636
4.02471e-06
-0.000146754
3.22702e-06
-0.000146976
2.43723e-06
-0.000146001
1.81029e-06
-0.000141089
4.48946e-07
-0.000136091
-1.5997e-06
-0.000132379
-2.60459e-06
-0.000130501
-2.44573e-06
-0.000130188
-2.54382e-06
-0.000130546
-2.65472e-06
-0.00013604
-2.40272e-06
-0.000143665
-1.91847e-07
-0.000147196
2.25237e-06
-0.000148638
2.97915e-06
-0.000149056
2.52706e-06
-0.000149074
2.16974e-06
-0.000146579
1.91023e-06
-0.000138317
1.47027e-06
-0.000131822
-1.70316e-06
-0.000129144
-4.10665e-06
-0.000128087
-5.18131e-06
-0.000127714
-6.08575e-06