/*--------------------------------*- C++ -*----------------------------------*\
  =========                 |
  \\      /  F ield         | OpenFOAM: The Open Source CFD Toolbox
   \\    /   O peration     | Website:  https://openfoam.org
    \\  /    A nd           | Version:  12
     \\/     M anipulation  |
\*---------------------------------------------------------------------------*/
FoamFile
{
    format      ascii;
    class       surfaceScalarField;
    location    "23";
    object      phi;
}
// * * * * * * * * * * * * * * * * * * * * * * * * * * * * * * * * * * * * * //

dimensions      [1 0 -1 0 0 0 0];

internalField   nonuniform List<scalar> 
19404
(
-0.000135733
-3.56001e-07
-0.000135846
4.08241e-07
-0.000135498
6.04473e-07
-0.00013322
1.50098e-06
-0.000128682
1.62604e-06
-0.000125448
1.04716e-06
-0.000124711
7.3868e-07
-0.000124612
6.9041e-07
-0.000125428
-1.12258e-06
-0.000131148
-2.19125e-06
-0.000138142
-1.25642e-06
-0.000140048
4.66355e-07
-0.000140215
5.78642e-07
-0.000139932
7.30924e-07
-0.000136789
1.63019e-06
-0.000130351
2.0383e-06
-0.000127702
1.27498e-06
-0.000127524
7.91299e-07
-0.000127455
5.33401e-07
-0.000127679
-2.66202e-07
-0.000131625
-2.03808e-06
-0.000140313
-2.19572e-06
-0.000143574
-3.07294e-07
-0.000143878
5.51972e-07
-0.000143731
7.19774e-07
-0.000142265
1.21187e-06
-0.000136712
1.96272e-06
-0.00013209
1.60843e-06
-0.000131439
1.04395e-06
-0.000131432
7.21645e-07
-0.000131597
1.43016e-07
-0.000132321
-4.47031e-07
-0.000136306
-1.43385e-06
-0.000144069
-1.7757e-06
-0.000146679
-3.83278e-07
-0.000146823
4.86637e-07
-0.000146421
1.0489e-06
-0.000144418
1.42231e-06
-0.000139296
1.65077e-06
-0.000135957
1.39103e-06
-0.000135564
1.00498e-06
-0.00013557
5.85607e-07
-0.000135745
-1.7266e-08
-0.000136668
-4.18501e-07
-0.000140548
-8.96891e-07
-0.000147152
-1.10693e-06
-0.000149566
-2.71651e-07
-0.000149928
5.28809e-07
-0.000149822
8.70946e-07
-0.000148202
1.1102e-06
-0.000143133
1.33776e-06
-0.000140051
1.1508e-06
-0.000139624
8.70409e-07
-0.000139631
4.68047e-07
-0.000139678
1.06863e-07
-0.000140232
-2.64338e-07
-0.000144717
-5.50943e-07
-0.000150751
-5.62099e-07
-0.000152799
8.32204e-07
-0.000153296
8.82677e-07
-0.000153294
8.5646e-07
-0.000151611
7.92758e-07
-0.00014594
6.80067e-07
-0.000142373
6.79818e-07
-0.000141606
3.4439e-07
-0.000141551
8.36933e-08
-0.00014161
-1.22416e-07
-0.000143149
-3.18065e-07
-0.000149589
-4.50116e-07
-0.000154645
-3.50033e-07
-0.000156401
4.01515e-07
-0.000156856
3.48983e-07
-0.000156732
3.45005e-07
-0.000153466
3.61289e-07
-0.000145775
1.26226e-07
-0.000141543
-1.3634e-08
-0.000140654
4.72798e-07
-0.000140702
-5.1622e-07
-0.000141622
-1.9128e-07
-0.00014924
-3.32919e-07
-0.000156372
-3.18251e-07
-0.000158612
1.30026e-08
-0.00015918
3.5573e-07
-0.000159277
4.68769e-07
-0.000157683
4.79667e-07
-0.000148989
-3.75061e-07
-0.000138945
-2.65262e-07
-0.000134571
-5.30041e-07
-0.000134468
-6.06293e-07
-0.000136153
-1.45202e-06
-0.000147796
-2.07943e-06
-0.000157275
-1.76717e-06
-0.00016027
-6.88302e-07
-0.000160833
-5.58206e-07
-0.000159673
-1.06774e-06
-0.000150365
-1.20614e-06
-0.00012991
-4.95849e-06
-0.000106899
-3.38987e-05
1.87185e-05
-0.000138141
-1.78465e-06
-0.000138697
-1.94386e-06
-0.000138163
4.07377e-08
-0.000136923
1.42606e-06
-0.000135697
2.2764e-06
-0.000134901
2.5232e-06
-0.000134845
2.42291e-06
-0.000136698
1.87012e-06
-0.000138568
4.08813e-07
-0.000138808
-1.43583e-06
-0.000140313
-2.52477e-06
-0.000143214
-2.16274e-06
-0.000143578
-8.39841e-07
-0.000142938
4.9343e-07
-0.000140076
1.90579e-06
-0.000137462
2.88962e-06
-0.00013632
2.77922e-06
-0.000136026
2.10036e-06
-0.000136072
1.52595e-06
-0.000137819
2.50481e-07
-0.000139766
-1.1573e-06
-0.000141759
-2.71468e-06
-0.000144643
-2.0018e-06
-0.000145916
-1.104e-06
-0.000146012
3.13619e-07
-0.000144818
1.39306e-06
-0.000141611
2.59857e-06
-0.000139657
2.83552e-06
-0.000138787
2.32137e-06
-0.000138421
1.63166e-06
-0.000138348
7.60199e-07
-0.000139129
-1.35095e-07
-0.000141812
-1.07372e-06
-0.000144763
-2.21346e-06
-0.000146901
-1.64361e-06
-0.000147561
-1.87892e-07
-0.000147545
9.74022e-07
-0.000146524
1.71666e-06
-0.000143479
2.27558e-06
-0.000141508
2.2763e-06
-0.000140824
1.60008e-06
-0.00014057
8.65571e-07
-0.000140519
2.05814e-07
-0.000140787
-2.16483e-07
-0.000143858
-8.19822e-07
-0.00014774
-1.18678e-06
-0.000149711
-8.67767e-07
-0.000150131
2.97343e-07
-0.000150058
1.07924e-06
-0.000148818
1.55594e-06
-0.000144843
1.9298e-06
-0.000142335
1.75083e-06
-0.000141785
1.09556e-06
-0.000141746
5.35663e-07
-0.000141766
7.55252e-08
-0.000142273
-2.96306e-07
-0.000146003
-5.00294e-07
-0.000151004
-6.55934e-07
-0.000152918
-2.16052e-07
-0.000153272
4.71622e-07
-0.000153261
9.17438e-07
-0.000151682
1.14667e-06
-0.000146235
1.38699e-06
-0.000142747
1.08002e-06
-0.000141938
5.5419e-07
-0.000141981
1.68508e-07
-0.000142069
-1.77307e-07
-0.000143531
-4.54434e-07
-0.000150046
-6.49086e-07
-0.000154782
-1.36855e-07
-0.000156011
4.27911e-07
-0.000156287
7.31641e-07
-0.000156298
8.54638e-07
-0.00015357
8.84961e-07
-0.000146103
6.74263e-07
-0.000141815
1.84982e-07
-0.000140851
-2.86796e-07
-0.000140754
-4.70454e-07
-0.000141365
-8.42334e-07
-0.00014709
-9.3945e-07
-0.000154343
-4.35322e-07
-0.000157357
2.77952e-07
-0.000158235
5.5971e-07
-0.000158442
5.74573e-07
-0.000157644
5.37036e-07
-0.000149249
1.52995e-07
-0.000139414
-7.56282e-07
-0.000135139
-1.67202e-06
-0.000134435
-2.32895e-06
-0.000134855
-2.94647e-06
-0.00014106
-4.00244e-06
-0.000149346
-3.48385e-06
-0.000152406
-2.3641e-06
-0.000152814
-2.8141e-06
-0.000151241
-3.73505e-06
-0.000141439
-5.03082e-06
-0.000122111
-1.07063e-05
-0.000114241
-4.83036e-05
3.24508e-05
-0.000138096
-1.10662e-06
-0.000136192
-1.81847e-06
-0.000134687
-8.841e-08
-0.000134192
9.81848e-07
-0.000134117
1.97509e-06
-0.000134018
2.6063e-06
-0.000135404
2.2616e-06
-0.00013952
1.59067e-06
-0.000140849
6.18428e-07
-0.000140966
-1.03545e-07
-0.000141013
-1.19643e-06
-0.000140984
-2.34235e-06
-0.000140838
-1.16626e-06
-0.000139162
9.30061e-07
-0.000137309
1.72557e-06
-0.000136572
2.41924e-06
-0.000136275
2.76804e-06
-0.000136156
2.057e-06
-0.000137556
1.23249e-06
-0.000140318
3.21403e-07
-0.000140999
-2.55075e-07
-0.000141362
-9.75541e-07
-0.000142275
-2.04163e-06
-0.000143108
-1.01395e-06
-0.000143178
6.01543e-07
-0.000141999
1.46813e-06
-0.000140599
2.01293e-06
-0.000139761
2.50299e-06
-0.000139341
1.83048e-06
-0.000139179
1.23398e-06
-0.000139241
6.11987e-07
-0.000140704
9.1589e-08
-0.000142421
-5.37594e-07
-0.000143208
-5.92705e-07
-0.000144175
-3.23091e-07
-0.000145015
6.52259e-07
-0.000145244
1.18648e-06
-0.00014468
1.3449e-06
-0.000143006
1.58115e-06
-0.000141959
1.65987e-06
-0.000141391
9.10387e-07
-0.000140923
4.19757e-07
-0.000140743
1.46975e-07
-0.000140931
-1.65433e-07
-0.00014326
-4.38857e-07
-0.000145677
-3.45549e-09
-0.000147036
4.60388e-07
-0.000147687
1.01486e-06
-0.000147758
1.38782e-06
-0.000147133
1.45748e-06
-0.000144501
1.43811e-06
-0.000142661
1.18453e-06
-0.00014198
4.47604e-07
-0.000141693
4.33535e-08
-0.000141656
-1.57061e-07
-0.000141975
-3.44686e-07
-0.000145015
-4.6151e-07
-0.000148713
8.66865e-08
-0.000150413
8.17146e-07
-0.000150938
1.30975e-06
-0.000150959
1.54408e-06
-0.000150122
1.52715e-06
-0.000145866
1.38351e-06
-0.000142489
7.60082e-07
-0.000141556
1.60529e-07
-0.000141391
-2.08624e-07
-0.000141451
-4.53947e-07
-0.000142293
-6.99537e-07
-0.000147562
-6.19921e-07
-0.000152004
7.75828e-08
-0.000153348
8.71586e-07
-0.000153644
1.24466e-06
-0.000153707
1.35606e-06
-0.000152079
1.28744e-06
-0.000145564
8.6729e-07
-0.000140842
-1.40671e-07
-0.000139308
-8.37339e-07
-0.000139067
-1.1393e-06
-0.000139199
-1.26426e-06
-0.000142356
-1.51621e-06
-0.00015034
-8.35944e-07
-0.000154452
3.42884e-07
-0.000155318
8.70925e-07
-0.000155514
1.00979e-06
-0.000154967
9.60473e-07
-0.000148523
7.30777e-07
-0.000138493
-5.23278e-07
-0.000132506
-2.58537e-06
-0.000130731
-4.08519e-06
-0.000130601
-4.84388e-06
-0.000132928
-5.64245e-06
-0.000141041
-5.65734e-06
-0.000145641
-4.77374e-06
-0.000146407
-5.39812e-06
-0.000145654
-6.86165e-06
-0.000138133
-8.76492e-06
-0.000122467
-1.46228e-05
-0.000118335
-5.15868e-05
4.17402e-05
-0.000135887
-8.86283e-08
-0.000129772
9.33163e-07
-0.00012909
8.50423e-07
-0.000129176
6.67972e-07
-0.000130571
5.13241e-07
-0.00013308
9.36813e-07
-0.000137867
1.72544e-06
-0.000142664
6.36494e-07
-0.000143687
6.31623e-07
-0.000143621
2.34439e-07
-0.000143016
-1.55882e-07
-0.000138396
1.85565e-07
-0.000134373
1.2551e-06
-0.000133764
1.28396e-06
-0.000133913
9.08662e-07
-0.000135207
7.3933e-07
-0.000136239
1.18869e-06
-0.000137047
1.22201e-06
-0.00013916
5.26013e-07
-0.000142072
4.0612e-07
-0.00014261
1.89595e-07
-0.000142341
2.78873e-07
-0.000140258
9.92968e-07
-0.000138614
1.31647e-06
-0.000138361
1.25824e-06
-0.000138722
7.36056e-07
-0.00013992
4.1511e-07
-0.000140085
8.60735e-07
-0.000139832
8.95074e-07
-0.000139468
6.46952e-07
-0.000139426
3.80337e-07
-0.000140196
2.71857e-07
-0.000140817
6.57884e-07
-0.000140979
1.3603e-06
-0.000141002
2.02593e-06
-0.000141679
1.71253e-06
-0.000142422
1.16136e-06
-0.000142656
6.00605e-07
-0.000142686
9.59184e-08
-0.000142473
2.12878e-07
-0.000141685
1.47594e-07
-0.000140832
3.73702e-08
-0.000140263
9.5914e-08
-0.000140069
3.86582e-07
-0.000140533
6.54942e-07
-0.000142196
1.41908e-06
-0.000143704
1.93067e-06
-0.000145068
1.78341e-06
-0.000145582
1.25423e-06
-0.000145559
8.14799e-07
-0.000144646
4.88837e-07
-0.000143105
5.41081e-08
-0.000141992
-1.48914e-07
-0.000141054
-2.97014e-07
-0.000140336
-4.8009e-08
-0.000140214
3.14716e-07
-0.000141183
4.58627e-07
-0.000144509
1.08283e-06
-0.000146801
1.64783e-06
-0.000148035
1.71458e-06
-0.000148418
1.4789e-06
-0.000148333
1.16738e-06
-0.000145802
8.35455e-07
-0.000142162
-3.34679e-08
-0.000140432
-6.04123e-07
-0.000139538
-7.58697e-07
-0.000139166
-6.50171e-07
-0.000139332
-5.31862e-07
-0.000142485
-3.47961e-07
-0.00014742
4.72212e-07
-0.000149489
1.2643e-06
-0.000150201
1.54362e-06
-0.000150352
1.50292e-06
-0.000149946
1.28125e-06
-0.000145203
8.88558e-07
-0.000139191
-4.08407e-07
-0.000136579
-1.51838e-06
-0.000135923
-1.82153e-06
-0.000135897
-1.86479e-06
-0.000136657
-1.91588e-06
-0.000142747
-1.60984e-06
-0.000148293
-1.65164e-07
-0.000149931
9.89774e-07
-0.000150308
1.31622e-06
-0.000150363
1.11801e-06
-0.000147325
8.03301e-07
-0.000138326
-4.14013e-07
-0.000130292
-2.81938e-06
-0.000126226
-4.97969e-06
-0.000125441
-6.85131e-06
-0.000125638
-7.58124e-06
-0.000129511
-8.15413e-06
-0.000133978
-7.87059e-06
-0.000135432
-8.59477e-06
-0.000135526
-1.05941e-05
-0.000132267
-1.22567e-05
-0.000124586
-1.57559e-05
-0.000119605
-4.79897e-05
4.86366e-05
-0.000132945
1.60447e-06
-0.000128304
2.32717e-06
-0.000127828
1.33889e-06
-0.000127722
7.01685e-07
-0.000127844
2.56689e-07
-0.000130815
-2.96186e-07
-0.000138361
-8.20967e-07
-0.000142779
2.58038e-07
-0.000143474
5.05275e-07
-0.000143252
8.73159e-07
-0.00014093
1.88026e-06
-0.000135649
3.01962e-06
-0.000133184
2.47207e-06
-0.000132485
1.36805e-06
-0.000132351
7.23018e-07
-0.000132581
3.14101e-08
-0.000134353
-1.05802e-06
-0.000136859
-8.29223e-07
-0.000138994
4.89719e-08
-0.000140143
6.04227e-07
-0.000140205
1.48045e-06
-0.000139149
2.48391e-06
-0.000137781
3.26699e-06
-0.000137711
2.67333e-06
-0.000137627
1.37847e-06
-0.000137406
5.29534e-07
-0.000137507
-2.78209e-07
-0.000138275
-1.17665e-06
-0.00013857
-7.47886e-07
-0.000138474
-1.17135e-07
-0.000137895
5.84793e-07
-0.000137432
1.21611e-06
-0.000137743
1.90718e-06
-0.000138435
2.69183e-06
-0.000139771
2.98589e-06
-0.000141227
1.89369e-06
-0.000141743
1.11232e-06
-0.000141728
4.13021e-07
-0.000141248
-3.56205e-07
-0.000140811
-1.04739e-06
-0.000139918
-8.04875e-07
-0.000138278
1.29494e-07
-0.000136942
8.2574e-07
-0.000136524
1.23899e-06
-0.000136923
1.53088e-06
-0.000139588
1.91231e-06
-0.000142067
2.20708e-06
-0.000143663
1.77657e-06
-0.00014442
1.09398e-06
-0.000144474
4.8961e-07
-0.000143917
6.04078e-09
-0.000141643
-6.41608e-07
-0.000139336
-5.80853e-07
-0.000137575
2.09436e-08
-0.000136596
4.51183e-07
-0.000136407
7.98212e-07
-0.000136986
9.45441e-07
-0.000141128
1.2271e-06
-0.000144619
1.63348e-06
-0.000146029
1.59165e-06
-0.000146434
1.2291e-06
-0.000146463
8.55674e-07
-0.000145087
5.06722e-07
-0.000140479
-2.58252e-07
-0.000137196
-7.96668e-07
-0.000135745
-8.58821e-07
-0.000135208
-6.84238e-07
-0.000135181
-4.6998e-07
-0.000136717
-3.33315e-07
-0.000142304
2.35066e-07
-0.000145679
1.15827e-06
-0.000146786
1.52879e-06
-0.00014711
1.4136e-06
-0.000147172
1.12557e-06
-0.000145022
8.5711e-07
-0.000137881
-2.67848e-07
-0.000133115
-1.33276e-06
-0.000131839
-2.35307e-06
-0.000131561
-2.54286e-06
-0.000131652
-2.55781e-06
-0.000134696
-2.50449e-06
-0.000141706
-1.45808e-06
-0.000145199
1.97565e-07
-0.000145931
9.45202e-07
-0.000146172
9.9408e-07
-0.000145261
7.42766e-07
-0.000138909
6.42947e-08
-0.000130098
-2.33204e-06
-0.000123821
-5.0002e-06
-0.000121447
-7.11099e-06
-0.000121375
-9.05579e-06
-0.000122536
-1.02406e-05
-0.000127017
-1.08237e-05
-0.000129997
-1.15198e-05
-0.000130691
-1.39155e-05
-0.00012984
-1.62211e-05
-0.000127202
-1.72411e-05
-0.000118784
-4.34508e-05
5.53676e-05
-0.000132367
2.93334e-06
-0.000129329
2.74302e-06
-0.000128396
1.75943e-06
-0.000128185
6.61282e-07
-0.000128668
-5.00808e-07
-0.000130692
-1.74568e-06
-0.000135425
-1.82706e-06
-0.000138836
-7.43698e-07
-0.000139549
1.03835e-06
-0.000138952
2.36463e-06
-0.000137011
3.65386e-06
-0.000135962
4.08788e-06
-0.000134475
3.03368e-06
-0.000133508
1.53825e-06
-0.000133221
2.22649e-07
-0.000133472
-8.16889e-07
-0.000133554
-1.75243e-06
-0.000133583
-1.75666e-06
-0.000134213
-5.54064e-07
-0.000135402
1.00122e-06
-0.000136577
2.4883e-06
-0.000136991
3.54957e-06
-0.000137616
4.00228e-06
-0.000138404
2.94477e-06
-0.00013865
1.80298e-06
-0.000138245
7.07768e-07
-0.000137146
-5.68745e-07
-0.000136208
-1.45038e-06
-0.000135143
-1.49368e-06
-0.000133836
-3.27446e-07
-0.000133083
7.1943e-07
-0.000133003
1.38151e-06
-0.000134254
1.96108e-06
-0.000137584
2.69256e-06
-0.000140225
3.01926e-06
-0.000141467
2.07146e-06
-0.00014185
1.24719e-06
-0.000141854
4.04836e-07
-0.000140988
-2.84364e-07
-0.000137781
-7.37438e-07
-0.000134759
-1.04571e-07
-0.000133242
4.50523e-07
-0.00013279
7.96118e-07
-0.000132789
1.0759e-06
-0.000133769
1.28387e-06
-0.000138009
1.63525e-06
-0.00014162
1.89798e-06
-0.000143113
1.52117e-06
-0.000143575
1.05376e-06
-0.000143631
5.66329e-07
-0.000143016
1.86826e-07
-0.000138634
1.75093e-07
-0.000134446
5.51508e-07
-0.000133003
3.29152e-07
-0.000132685
2.33201e-07
-0.000132709
3.41774e-07
-0.000133474
4.60543e-07
-0.000138304
6.72152e-07
-0.000143078
1.11333e-06
-0.000144542
1.2767e-06
-0.000144724
1.1133e-06
-0.000144764
9.07712e-07
-0.000144199
7.62148e-07
-0.000139331
5.97231e-07
-0.000133676
1.37338e-07
-0.000131648
-3.58923e-07
-0.000131309
-7.8328e-07
-0.000131321
-9.26484e-07
-0.000132244
-8.85836e-07
-0.000137521
-5.77482e-07
-0.000142679
4.2256e-07
-0.000144354
1.20784e-06
-0.000144654
1.32239e-06
-0.000144762
1.17185e-06
-0.000144074
9.49022e-07
-0.00013822
4.71347e-07
-0.000131492
-1.10987e-06
-0.000128249
-2.01461e-06
-0.00012774
-2.95871e-06
-0.000127731
-3.45526e-06
-0.000128751
-3.57389e-06
-0.000134594
-3.35048e-06
-0.000140398
-1.85043e-06
-0.000142441
-3.45678e-07
-0.000142898
2.29142e-07
-0.00014295
3.32021e-07
-0.000139924
3.91677e-07
-0.000132019
-1.07314e-06
-0.000124686
-4.04454e-06
-0.000120109
-7.00372e-06
-0.000118685
-9.44792e-06
-0.000118808
-1.17492e-05
-0.000121408
-1.30042e-05
-0.000125664
-1.3821e-05
-0.00012771
-1.58282e-05
-0.000128039
-1.86248e-05
-0.000128025
-1.96072e-05
-0.000120191
-3.99424e-05
5.87732e-05
-0.000133185
3.06825e-06
-0.000131728
3.00279e-06
-0.000130814
1.63577e-06
-0.000130454
3.47578e-07
-0.000130429
-7.21106e-07
-0.000130302
-1.81851e-06
-0.000130294
-1.40559e-06
-0.000131001
-2.44518e-07
-0.000132867
1.04936e-06
-0.000134297
2.66048e-06
-0.000135024
3.53256e-06
-0.00013633
3.4983e-06
-0.000136836
2.56506e-06
-0.000136503
1.76615e-06
-0.000135331
6.91222e-07
-0.000134215
-6.61347e-07
-0.000132071
-1.58584e-06
-0.000129059
-4.68591e-07
-0.000128266
4.6165e-07
-0.000128619
7.75907e-07
-0.000131334
1.46055e-06
-0.000135166
2.72967e-06
-0.000138449
3.55502e-06
-0.000139949
2.36531e-06
-0.00014019
1.63811e-06
-0.000139878
1.0421e-06
-0.000137927
3.21119e-07
-0.000134008
-8.34915e-07
-0.000129945
-1.21185e-07
-0.000128493
5.20885e-07
-0.000128255
6.30588e-07
-0.000128518
7.53694e-07
-0.000130848
9.70734e-07
-0.000137129
1.64957e-06
-0.000141024
2.17628e-06
-0.000141891
1.71706e-06
-0.000142007
1.28703e-06
-0.000141926
7.41501e-07
-0.000140056
5.68356e-07
-0.000133934
1.00934e-06
-0.000129961
1.18348e-06
-0.000129269
8.99478e-07
-0.000129224
5.80111e-07
-0.000129532
3.67309e-07
-0.000131127
2.15432e-07
-0.000136899
4.91272e-07
-0.000141894
1.09719e-06
-0.000142844
1.30511e-06
-0.000142827
1.11645e-06
-0.00014267
1.07298e-06
-0.000141137
1.42779e-06
-0.000136017
1.96366e-06
-0.000131135
1.32841e-06
-0.000129623
6.56785e-07
-0.000129639
6.07693e-08
-0.000129753
-4.44214e-07
-0.000130837
-7.60466e-07
-0.00013562
-5.34357e-07
-0.000141173
2.48986e-07
-0.00014286
9.964e-07
-0.000142979
1.27461e-06
-0.000142937
1.41982e-06
-0.000142329
1.77177e-06
-0.000138691
2.00786e-06
-0.000132718
1.06329e-06
-0.000129285
-2.68797e-07
-0.000128744
-7.75797e-07
-0.000128804
-1.50732e-06
-0.00012931
-1.8246e-06
-0.000133064
-1.85058e-06
-0.000139638
-9.10311e-07
-0.000142548
6.38242e-07
-0.000143038
1.35669e-06
-0.000143124
1.53667e-06
-0.00014289
1.57145e-06
-0.00013941
1.53479e-06
-0.000132053
4.09712e-07
-0.000127164
-1.89197e-06
-0.0001253
-3.11568e-06
-0.000125271
-4.10801e-06
-0.000125461
-4.78573e-06
-0.000128464
-5.22552e-06
-0.000135226
-4.40494e-06
-0.000139436
-2.40505e-06
-0.000140666
-9.54744e-07
-0.000140916
-3.14196e-07
-0.000140347
-3.26154e-08
-0.00013553
-4.70527e-07
-0.0001282
-2.67894e-06
-0.000122347
-6.07812e-06
-0.00011877
-9.48084e-06
-0.000117637
-1.20736e-05
-0.000118145
-1.45846e-05
-0.000121973
-1.54866e-05
-0.000125742
-1.68926e-05
-0.000127273
-1.95893e-05
-0.000128201
-2.08452e-05
-0.000120857
-3.84656e-05
5.99647e-05
-0.000133797
2.0313e-06
-0.000134207
2.05304e-06
-0.000134095
1.26186e-06
-0.000133382
6.75625e-07
-0.000131773
2.21263e-07
-0.000128676
-4.09365e-07
-0.000126016
4.65823e-07
-0.000125528
1.07932e-06
-0.000125844
1.31582e-06
-0.000129133
1.64734e-06
-0.000135358
1.90709e-06
-0.00013828
2.27245e-06
-0.000138628
1.68742e-06
-0.000138554
1.36207e-06
-0.000137783
7.51186e-07
-0.000134547
1.76076e-07
-0.000128419
5.61538e-07
-0.000125383
1.29442e-06
-0.000124984
1.2687e-06
-0.000124914
1.15141e-06
-0.000126361
1.12423e-06
-0.000134233
8.53573e-07
-0.000140097
1.44406e-06
-0.000140935
1.48437e-06
-0.000140855
1.23791e-06
-0.000140663
9.79446e-07
-0.000138773
6.97428e-07
-0.000131453
1.43847e-06
-0.000126691
1.93873e-06
-0.000126082
1.39364e-06
-0.000126066
1.02519e-06
-0.000126236
6.61101e-07
-0.000128206
4.18652e-07
-0.000136077
-2.51386e-07
-0.000141269
3.85289e-07
-0.000141855
1.07319e-06
-0.000141791
1.17105e-06
-0.000141032
1.51914e-06
-0.000137806
2.19253e-06
-0.000132428
2.77233e-06
-0.00012902
1.76009e-06
-0.00012822
1.08293e-06
-0.000128158
5.62497e-07
-0.000128179
1.13385e-07
-0.000129294
-6.96754e-07
-0.000134832
-1.16129e-06
-0.000140204
-1.93787e-07
-0.000141262
9.93598e-07
-0.000141247
1.63426e-06
-0.000140474
2.31433e-06
-0.000138816
2.90769e-06
-0.000135645
2.90687e-06
-0.000131312
1.82502e-06
-0.000129095
7.36329e-07
-0.000128665
-1.41742e-07
-0.000128704
-9.44981e-07
-0.000129232
-1.64972e-06
-0.000132758
-1.64419e-06
-0.000138331
-6.13317e-07
-0.000140599
8.28279e-07
-0.000140939
1.75711e-06
-0.000140752
2.39908e-06
-0.00014033
2.76786e-06
-0.000138799
2.52456e-06
-0.000133623
1.82534e-06
-0.000129512
1.25246e-07
-0.000128035
-1.13575e-06
-0.000127834
-2.09039e-06
-0.000127904
-2.70108e-06
-0.000129383
-2.85552e-06
-0.000135147
-2.27779e-06
-0.000139953
-1.76372e-07
-0.000141278
1.44752e-06
-0.000141489
2.15687e-06
-0.000141479
2.49183e-06
-0.000140364
2.45104e-06
-0.000134706
1.66012e-06
-0.000128435
-9.25647e-07
-0.000125432
-3.19802e-06
-0.000124463
-4.53865e-06
-0.000124356
-5.88812e-06
-0.000124694
-6.20978e-06
-0.000128382
-6.25239e-06
-0.000133781
-4.82507e-06
-0.00013675
-2.73725e-06
-0.000138005
-1.48337e-06
-0.000138264
-1.03667e-06
-0.000137421
-7.41369e-07
-0.000133082
-2.32694e-06
-0.000126938
-4.76551e-06
-0.000121549
-8.31393e-06
-0.000118072
-1.21213e-05
-0.000117161
-1.4719e-05
-0.000118106
-1.68597e-05
-0.000122682
-1.78762e-05
-0.000125839
-2.02803e-05
-0.000127663
-2.16481e-05
-0.000121701
-3.71362e-05
6.04705e-05
-0.000135065
1.13917e-06
-0.000135515
7.78454e-07
-0.000135356
6.47497e-07
-0.000134794
6.18188e-07
-0.000131634
7.84345e-07
-0.000126261
1.9214e-06
-0.000124022
2.30728e-06
-0.000123815
2.19026e-06
-0.000123953
1.96713e-06
-0.000127317
1.37494e-06
-0.00013518
8.65824e-07
-0.000138658
2.95134e-07
-0.000138858
6.46851e-07
-0.000138735
6.43607e-07
-0.000137919
6.94542e-07
-0.000132174
1.59229e-06
-0.000125998
2.47274e-06
-0.000124599
2.34952e-06
-0.000124485
1.85676e-06
-0.000124458
1.54642e-06
-0.000125798
1.04727e-06
-0.000133023
5.0042e-09
-0.000139404
-8.11104e-07
-0.000140539
2.44566e-07
-0.000140572
6.45888e-07
-0.00014001
1.14745e-06
-0.000136067
2.35437e-06
-0.000129973
3.30301e-06
-0.000126815
3.01093e-06
-0.000126147
2.13035e-06
-0.000126075
1.3746e-06
-0.000126429
4.36513e-07
-0.000128723
-7.05037e-07
-0.000134017
-1.45078e-06
-0.000138452
-8.96311e-07
-0.000139447
2.96758e-07
-0.000139268
1.47893e-06
-0.000137917
2.75077e-06
-0.000136166
3.28287e-06
-0.000133084
3.09062e-06
-0.000129673
2.3855e-06
-0.000128693
1.27073e-06
-0.000128642
2.0408e-07
-0.000129061
-1.01082e-06
-0.000129531
-1.28373e-06
-0.000131883
-1.34131e-06
-0.000136085
-4.76823e-07
-0.000137873
1.09553e-06
-0.000138192
2.38027e-06
-0.000137875
3.18592e-06
-0.000137729
3.11474e-06
-0.000136653
3.12277e-06
-0.000133126
2.12573e-06
-0.000130513
4.85965e-07
-0.000129697
-8.22144e-07
-0.000129274
-1.86638e-06
-0.000129077
-1.65261e-06
-0.000129508
-1.61167e-06
-0.000133484
-1.06285e-06
-0.000137242
7.2793e-07
-0.000138377
2.22323e-06
-0.000138732
3.1365e-06
-0.000139011
2.91357e-06
-0.000138995
2.40679e-06
-0.000136806
1.90998e-06
-0.000131846
4.66098e-07
-0.000129201
-1.43961e-06
-0.000127997
-2.54209e-06
-0.0001273
-2.79109e-06
-0.000127364
-2.70239e-06
-0.000129018
-2.60386e-06
-0.000134983
-1.41803e-06
-0.00013876
9.06855e-07
-0.000139918
2.27891e-06
-0.00014026
2.66358e-06
-0.000140381
2.46737e-06
-0.000139029
1.79671e-06
-0.000132998
5.99589e-07
-0.000127711
-2.22937e-06
-0.000124739
-4.62121e-06
-0.000123241
-5.93213e-06
-0.000123063
-6.26414e-06
-0.000123499
-6.74761e-06
-0.000127218
-6.65836e-06
-0.000132037
-5.23624e-06
-0.000134963
-3.5201e-06
-0.000136467
-2.67095e-06
-0.000136748
-2.6729e-06
-0.000135725
-2.39193e-06
-0.00013205
-4.70436e-06
-0.000126406
-6.92237e-06
-0.000120695
-1.05626e-05
-0.00011707
-1.44815e-05
-0.000116552
-1.6915e-05
-0.000118397
-1.89496e-05
-0.000123301
-2.11588e-05
-0.000126132
-2.30793e-05
-0.000122727
-3.5239e-05
6.05068e-05
-0.000134942
9.98907e-08
-0.000135103
-2.58259e-07
-0.000134896
-1.00564e-07
-0.000132706
9.15022e-07
-0.000127641
2.35915e-06
-0.000124426
3.20154e-06
-0.000123853
3.32271e-06
-0.00012377
3.12964e-06
-0.00012483
2.28193e-06
-0.000130277
7.0559e-07
-0.000135159
-4.23887e-07
-0.00013715
-8.19965e-07
-0.000137621
-4.82547e-07
-0.00013744
-2.12519e-08
-0.000134384
1.42267e-06
-0.000129199
2.94125e-06
-0.000126529
3.2525e-06
-0.000125293
3.0819e-06
-0.000125135
2.54698e-06
-0.000125309
1.77719e-06
-0.00012844
1.41106e-07
-0.00013317
-7.73788e-07
-0.000136341
-1.15498e-06
-0.000137483
-4.50487e-07
-0.000137453
7.49465e-07
-0.000135658
2.44111e-06
-0.000132715
3.43235e-06
-0.00013008
3.38196e-06
-0.000128308
3.31525e-06
-0.000127804
2.27286e-06
-0.000127931
8.72232e-07
-0.000128766
-5.21044e-07
-0.000129801
-1.00158e-06
-0.000131981
-1.31135e-06
-0.000134045
-5.01713e-07
-0.000135079
7.43865e-07
-0.000135072
2.35266e-06
-0.000134906
3.03926e-06
-0.000134876
3.0401e-06
-0.000134299
2.98195e-06
-0.000132352
2.0831e-06
-0.000131056
6.55862e-07
-0.000130539
-7.36396e-07
-0.000130068
-1.32565e-06
-0.000129423
-1.04887e-06
-0.000129398
-4.18429e-07
-0.00013132
1.91368e-07
-0.000133934
1.56526e-06
-0.000135259
2.78997e-06
-0.000136503
3.14637e-06
-0.000137494
2.80881e-06
-0.000137525
2.17038e-06
-0.000136784
1.5745e-06
-0.000133477
5.11233e-07
-0.000130878
-9.5148e-07
-0.000129129
-1.82478e-06
-0.000127619
-1.3176e-06
-0.000127314
-7.79341e-07
-0.000128069
-5.55465e-07
-0.000132838
2.31277e-07
-0.000136498
1.96621e-06
-0.000138196
3.01251e-06
-0.00013924
2.62366e-06
-0.000139586
1.95792e-06
-0.000139363
1.56918e-06
-0.000135714
9.9822e-07
-0.000130767
-5.85226e-07
-0.000127666
-2.34482e-06
-0.000125699
-2.42583e-06
-0.000125031
-2.41082e-06
-0.000125185
-2.54313e-06
-0.000128447
-2.56111e-06
-0.000134894
-1.21911e-06
-0.000138337
9.83467e-07
-0.000139897
2.08538e-06
-0.000140594
1.75261e-06
-0.000140627
1.54202e-06
-0.000138462
1.1242e-06
-0.000131659
-2.51754e-08
-0.000125984
-2.7855e-06
-0.000123074
-5.17926e-06
-0.000121643
-6.26154e-06
-0.000121593
-6.67646e-06
-0.000122214
-7.32227e-06
-0.000126267
-7.38941e-06
-0.000131002
-6.2905e-06
-0.00013403
-5.04941e-06
-0.000135509
-4.66383e-06
-0.000135682
-4.81452e-06
-0.000134308
-4.68345e-06
-0.00013084
-6.78876e-06
-0.000125381
-8.93865e-06
-0.000119447
-1.2935e-05
-0.000115814
-1.66782e-05
-0.000115554
-1.89802e-05
-0.000119473
-2.12882e-05
-0.000123579
-2.54812e-05
-0.00012501
-3.20703e-05
5.99175e-05
-0.000134063
-6.92614e-08
-0.000133822
-5.29022e-07
-0.000131088
1.45704e-07
-0.000126872
1.82697e-06
-0.000124815
2.49152e-06
-0.000124313
3.22303e-06
-0.000124204
3.48169e-06
-0.00012479
3.17022e-06
-0.000129931
1.62415e-06
-0.000134177
4.85169e-07
-0.000135451
-8.88992e-08
-0.000135891
-8.82028e-07
-0.000135788
-6.18935e-07
-0.000133097
9.73921e-07
-0.000128436
2.69466e-06
-0.000126588
2.88875e-06
-0.000126173
2.93746e-06
-0.000126057
2.91977e-06
-0.000126278
2.22278e-06
-0.000128745
4.20986e-07
-0.000131747
-2.69076e-07
-0.000133649
-4.95119e-07
-0.000134149
-1.33226e-07
-0.000134055
7.87011e-07
-0.000132788
2.36466e-06
-0.000131596
3.0991e-06
-0.000130627
3.24026e-06
-0.000130419
2.97266e-06
-0.000130272
2.2325e-06
-0.000130612
1.01956e-06
-0.000130873
-4.20565e-07
-0.000130574
-7.59896e-07
-0.000130098
-7.10287e-07
-0.000129946
-4.49016e-09
-0.000130616
8.14122e-07
-0.000131197
2.07384e-06
-0.000132081
3.18807e-06
-0.000133687
2.75367e-06
-0.000134925
2.60805e-06
-0.00013546
1.86823e-06
-0.000135369
1.11855e-06
-0.00013399
1.91243e-07
-0.000131904
-7.40524e-07
-0.000129467
-1.0152e-06
-0.000127486
-8.20502e-08
-0.000126877
6.02018e-07
-0.000127254
9.47256e-07
-0.000130617
1.61447e-06
-0.000134184
2.59003e-06
-0.000136832
2.72853e-06
-0.000138455
2.06894e-06
-0.000138856
1.49602e-06
-0.000138773
1.09643e-06
-0.000136519
6.63898e-07
-0.000131601
7.45158e-08
-0.000127591
-4.92513e-07
-0.000125699
-3.39995e-07
-0.000125319
-3.66912e-07
-0.000125413
-4.70117e-07
-0.00012839
-3.94399e-07
-0.000134995
5.12578e-07
-0.000138867
1.94838e-06
-0.000140028
1.90832e-06
-0.00014015
1.71899e-06
-0.000140157
1.66597e-06
-0.000138689
1.51646e-06
-0.000132535
1.21913e-06
-0.000126949
-7.38984e-07
-0.000124218
-1.9502e-06
-0.000123432
-2.3085e-06
-0.000123476
-2.87024e-06
-0.000124039
-3.40981e-06
-0.000129405
-3.74069e-06
-0.000137039
-1.95699e-06
-0.000140099
5.67259e-07
-0.000140547
1.30801e-06
-0.000140666
1.40108e-06
-0.000140341
1.30789e-06
-0.000136843
1.15428e-06
-0.000129543
-1.08736e-07
-0.000124087
-3.05077e-06
-0.000121517
-5.57161e-06
-0.000120566
-6.73389e-06
-0.000120587
-7.64218e-06
-0.000121712
-8.54546e-06
-0.000126344
-8.79222e-06
-0.000131006
-7.67655e-06
-0.000133404
-6.72455e-06
-0.000134282
-6.52085e-06
-0.00013422
-6.5722e-06
-0.000132486
-6.79119e-06
-0.000129358
-8.61757e-06
-0.000124319
-1.13382e-05
-0.000118401
-1.52644e-05
-0.000114661
-1.87821e-05
-0.000115864
-2.128e-05
-0.000121412
-2.76977e-05
-0.000127688
-2.99148e-05
5.91751e-05
-0.000134625
7.4615e-07
-0.00013056
5.73445e-08
-0.00012446
1.56461e-06
-0.000122384
2.20633e-06
-0.000122213
2.26318e-06
-0.000122561
2.20088e-06
-0.0001238
2.01936e-06
-0.000128814
1.93863e-06
-0.000134887
3.47605e-07
-0.000136495
4.91378e-07
-0.000136418
4.87969e-07
-0.000136107
4.62967e-07
-0.00013286
1.82674e-06
-0.000128055
3.20776e-06
-0.000126033
3.0893e-06
-0.000125556
2.66359e-06
-0.000125544
2.43875e-06
-0.000126979
1.20464e-06
-0.000129503
-9.91117e-08
-0.000130906
-7.52899e-07
-0.000132065
-2.45107e-07
-0.000132342
2.87486e-07
-0.000131924
1.39801e-06
-0.000130385
2.85713e-06
-0.00013019
3.78181e-06
-0.000130691
3.19816e-06
-0.000131192
3.005e-06
-0.000131943
2.01611e-06
-0.000132566
8.16772e-07
-0.000132686
-2.98094e-07
-0.000132297
-1.10662e-06
-0.00013028
-5.70186e-07
-0.000128107
2.97966e-07
-0.000127266
1.19486e-06
-0.000127568
1.89056e-06
-0.000129505
2.84699e-06
-0.000131937
3.2014e-06
-0.000134725
2.65365e-06
-0.000136691
1.71878e-06
-0.000137311
1.02149e-06
-0.000137276
4.77577e-07
-0.000135892
1.23779e-07
-0.000130935
-2.58321e-07
-0.000126813
5.98037e-07
-0.000125341
7.75038e-07
-0.000125086
8.1876e-07
-0.000125287
9.37449e-07
-0.000128511
1.17567e-06
-0.000134952
1.77427e-06
-0.00013836
1.65872e-06
-0.000139143
1.59952e-06
-0.000139204
1.46431e-06
-0.000139172
1.08292e-06
-0.000137716
1.00309e-06
-0.000131032
1.64156e-06
-0.000125773
9.836e-07
-0.000124255
2.32454e-07
-0.000124195
-3.38048e-07
-0.000124247
-7.69976e-07
-0.000125666
-1.19445e-06
-0.000132735
-1.64035e-06
-0.000138726
1.14148e-07
-0.000140085
1.40122e-06
-0.000140265
1.74178e-06
-0.000140254
1.90284e-06
-0.000139528
2.55536e-06
-0.000134848
2.78706e-06
-0.000127684
1.58458e-06
-0.000124421
-9.42578e-07
-0.000123322
-2.3247e-06
-0.000123045
-3.31231e-06
-0.000123133
-4.38515e-06
-0.00012447
-5.27253e-06
-0.000131269
-5.07077e-06
-0.000137414
-2.21013e-06
-0.00013925
4.80801e-07
-0.00013952
1.44447e-06
-0.000139587
1.79504e-06
-0.000138752
1.87904e-06
-0.000134578