/*--------------------------------*- C++ -*----------------------------------*\
  =========                 |
  \\      /  F ield         | OpenFOAM: The Open Source CFD Toolbox
   \\    /   O peration     | Website:  https://openfoam.org
    \\  /    A nd           | Version:  12
     \\/     M anipulation  |
\*---------------------------------------------------------------------------*/
FoamFile
{
    format      ascii;
    class       volScalarField;
    location    "7.7";
    object      p;
}
// * * * * * * * * * * * * * * * * * * * * * * * * * * * * * * * * * * * * * //

dimensions      [1 -1 -2 0 0 0 0];

internalField   nonuniform List<scalar> 
45568
(
2.36345
1.21568
2.61568
1.54683
0.838358
1.20372
1.66274
1
0.629732
1.6966
2.3277
2.44992
1.83948
1
0.631729
0.331701
1
1
0.991711
1.65458
1
2.6155
1.64338
1
1
1.20626
1
1
0.331068
1.69447
0.908519
1
0.968528
1.60269
1.55753
1.67797
0.846578
1
1.68453
1
1
0.325808
1
2.45863
1
3.49741
0.324536
2.9491
1.56234
1
2.44713
2.05051
1
1.63541
2.27439
2.6059
2.57808
2.16468
1.79625
0.939414
1
1.80656
1
1
2.14435
1.94019
1
0.999945
1.6604
3.05315
0.712004
0.51971
2.44802
1.69898
2.60239
1
1
1.25648
0.947494
1
1.87933
1.47528
0.506924
2.43404
1.92279
1.00003
2.27302
1.23924
1.66729
0.622925
1.59309
1
1.84753
2.9878
1
1
3.03663
1.85118
1.00641
1.69957
0.775562
1.92681
2.99018
1
1
1
1
2.61357
1
2.9604
1
0.662326
1.55333
1
2.98773
1
1
2.97749
2.20028
1.69306
1
1.77576
2.60395
2.60493
1
1.77901
2.58087
2.06347
2.72222
1
2.37804
2.70209
2.62018
1
0.326859
1
1
1
1.93146
1.93406
1
1.54632
1.68965
1
0.326724
1
1
1
1
1
1.31183
1
0.393584
1.01694
0.382038
1
1
0.997789
0.317426
2.14706
0.311909
1
2.19172
0.327964
3.02566
0.646335
1.67326
1
2.183
1
0.331522
1
1.26083
1
2.21813
0.318516
0.314975
2.05379
2.29437
2.47955
2.20684
1.6454
0.329148
0.328139
1.26243
1.6769
1
1.33344
1.62311
0.331522
0.332362
1.65615
1.61841
1.25381
1.82073
0.773317
0.329894
1.53871
3.11098
0.330524
1.94117
1.51063
2.61434
3.9323
3.54065
2.07933
1.65453
1.53524
0.923423
2.38841
0.988955
1
2.01643
1
2.61776
0.327563
0.327529
1
1.68006
2.61949
1.84977
1.52312
1.85149
1.3464
2.27741
1.88715
0.325964
0.325206
1
1.60551
0.691889
1.68141
0.411215
2.35138
1.6142
2.3766
0.651086
1.21163
1
2.25392
0.296969
1.21568
2.22545
1.00003
1.21742
1.14885
2.6153
1.22297
1.15967
1.14983
1
1.11411
1.16142
2.60495
0.325195
1.05946
0.325851
0.324438
0.324681
1.12648
1
1.06844
1.30271
1
2.44595
1.0692
1.30902
1.4952
2.15482
0.325571
1.22616
0.325401
1
2.26314
3.9658
1.7557
1
1.41904
1
1
1
4.31317
1
3.14084
2.63251
1.68436
1.12889
1.8332
1.67587
1.13606
1.84003
2.6234
2.39515
1.68843
1
1
2.35852
1.71634
1.61103
1.54228
1.25492
1.79068
1
2.61688
1.65437
0.908534
1.43084
2.58446
1
1.57648
2.60428
1
1.92032
0.627603
0.651651
1.90231
1.82982
1.20239
0.445359
2.02961
2.61822
2.28496
2.6152
1
1
1.66018
1.60622
1.6573
1.69374
1
1
2.09294
0.411836
1.46986
1
2.70799
4.309
1.64642
2.27909
2.57246
4.27158
2.05431
2.61178
1.4002
1
1
1
0.792587
1
1.0042
1.88117
1.75563
1
1.19887
1.65995
1.86837
0.706239
1
1.86426
1.88938
4.05642
0.592788
1.53891
0.950867
0.941859
1.88552
1
1.84933
0.9341
2.48164
2.45716
2.17145
2.34486
1
1.57242
1.7346
1
2.00869
1.85483
0.684832
1.80475
1.78714
1
2.44041
0.317164
1
1.62624
1.92099
1
1.25185
1.75878
1
1.99224
1
0.331971
1
2.61135
1
1
1.23262
1
1
1.87528
1
1
2.23237
1
1
1.65403
1
1
1
2.24516
1
0.641852
1.65458
1
1.81098
1.6959
2.67501
1.73048
1
1
1
0.631454
1
2.49829
2.42072
2.30832
1
2.95895
1
1.00001
1
1
1.91406
0.940529
1
1
2.0719
0.322959
2.10615
1
1.69529
1.24236
1.63094
1
1
2.7656
1.86175
1.11259
1.50503
0.99999
0.679616
1.25804
1
0.967054
2.59328
1.69652
1.68986
1
1
1.81359
1
1
2.3219
1.92467
1.28609
0.348328
0.338557
0.977767
1.33397
1
3.21029
1
2.48525
2.079
2.3593
2.54348
1.61851
2.04295
1.99238
1.01616
1.04416
1
2.0325
1.83856
1
1.8677
2.26889
1
1
1.79047
1
0.315132
1.36781
0.310366
1
1.7437
1.72312
1
1.56292
2.02141
1
1
1.64843
2.00714
2.21456
1.63844
1
1.67179
0.96449
1.79903
1
3.11276
1
1
0.32873
1
1
1
1
2.03987
1.50576
1.14943
1
1
0.680032
1.25422
1
1
2.60394
1.50061
2.61754
1.60211
1
1.33896
0.330259
1
1.25956
1
2.03027
1
1.61863
3.00206
1
1
0.651502
1.17099
1
1
1
0.33198
0.332585
1
4.0947
1
1
0.965938
1
1.91992
0.322234
0.965764
1.51501
1.54608
1
1
1.606
1
1
1
0.709238
0.718896
1
1.58793
3.35239
0.623833
2.58287
1
0.340447
0.821652
1.72915
2.85514
1.15509
2.05581
1.6257
2.84488
1.0959
0.655006
1.53575
0.942012
1
3.12983
1.10561
1
2.43613
0.919695
1.7025
1.6705
2.26452
0.32623
1.15901
1
1
3.81607
0.325479
0.32479
2.44353
1.59466
2.34832
1
1.46029
1
0.617837
1.63029
1.81655
2.33038
1.81882
1.76875
1
1.59898
1
3.47603
2.02702
1.66039
2.62705
0.326344
1
1.26114
1.77528
1
1.88029
1.06402
1.60985
0.629463
2.6182
2.21487
1.69813
1
1.83082
4.28485
1.15344
1.57458
0.329103
1
3.70326
1
2.61713
1
1
1.97261
2.21639
2.43062
1
1.89126
1.08539
4.13216
1.86503
1.36561
1.70438
1.23331
0.972713
1.67737
1.66632
1.58627
4.1444
1.93251
1.74264
0.897309
0.936211
1
0.91613
0.715371
2.44233
1.38272
2.49311
0.670251
1
3.72623
1
1.61689
1.66259
1.84425
1.18005
4.36856
1.25052
1
1
2.7911
1.30025
0.325769
1.7761
2.2988
1
2.33388
0.325309
1.23766
2.03928
1.03759
1.10322
2.44694
1
1
1
1.60915
1
1.6905
1
1
1
1.00002
2.2996
1.43394
1.09868
1
1
0.863079
1.42259
4.40756
0.688752
1.83289
1.5057
1.20707
2.26112
2.24904
2.79001
1.84812
0.901719
2.02945
1
1
1.73892
2.32003
1.68573
1.33852
1.07521
1.85058
1.5275
2.29152
1.8843
1.72305
1.19723
2.02602
1.75226
1.80154
1
1.53419
1.22557
2.25245
1.21883
3.86812
2.61265
1.81493
1.8701
1
2.61761
1.8384
1
0.947901
1.85996
1
1.64879
1.18273
2.87446
1.11552
1
1
1.15325
1.5061
1.73187
1.03968
1.17947
1.51408
1.89391
2.60595
1.92291
0.740073
3.15447
0.805677
1.8471
1.17955
0.831453
1.22551
1.60504
1.6615
1.61606
1.75273
3.17895
2.73325
1.77171
1.16033
3.31612
1.22911
0.983165
1.75186
2.24156
1.84769
1.75011
1.67327
1.21128
2.58877
2.57747
0.472662
2.02916
0.491677
2.44802
2.19549
1.49143
2.03774
1.54349
0.62108
1.20933
1.37445
1.87668
1
0.668197
1
1.1575
1.44636
1.81335
1
1.31142
1
4.00563
1.60285
2.59697
2.45869
2.66466
1.22164
1.18269
2.95289
1.42953
2.61604
2.9491
1
0.950509
1
2.64597
1
1
2.2297
1.34543
1.73064
2.14417
0.887812
1.60096
1.42711
1.52824
2.01374
2.15845
2.04482
1
1.85362
2.08637
1.16286
1.72457
1.30804
1
0.317812
1.66885
0.324235
2.6708
1.23636
1
1.14943
1.22714
2.17481
2.02124
1
1.1451
1.89553
1.05793
1.34279
1.87716
1.10426
1.53845
2.01773
1.95526
1.88865
1.82933
1.71233
1.91623
1.89644
1.12676
2.07795
1.16752
2.02335
2.05246
1
1
3.10209
1
1.85763
3.82506
2.7482
1.10808
0.311234
1.22003
1.59399
0.315314
1.47436
1.79416
1.70002
2.62444
4.03016
1.13817
1.78244
1.69232
1
2.61557
1.61394
1.79319
2.0122
1.58277
1.58462
1.77958
1
1.78899
1.84066
1.80998
1.71823
0.936784
1.7452
0.910978
1
1.00364
1.75409
1.74313
0.709097
1.10609
0.322476
0.322483
0.751046
1.11877
1.94846
1.99472
1.0139
1.74748
1.74174
0.794145
2.44026
1
1.18102
2.58218
0.323988
1.22355
1.14481
1.81087
1
1
1.29979
1
1.68389
1.68437
1.16575
0.330769
0.330723
4.34837
2.63045
1
3.13538
1.90291
1.73431
1.23341
1.52763
1.07049
1
1.89417
0.980307
1.57991
0.943886
1
0.969041
0.980248
0.384989
0.960104
1.79767
1
1.2825
0.999997
1
1
0.992846
2.75064
1.21499
1
1
1.32719
1.03315
1.02343
1.89652
1.87528
1.67802
1.11258
1.10127
0.326824
1
1
1.87738
1.26545
0.331699
0.331361
1.35089
1.73619
1.77862
1.61285
1.19916
1
1
1.66472
1
0.323396
1.25752
1
1.94153
1.59511
1
1.58348
1.37846
1.34318
1.55969
0.805313
1
3.74223
0.324852
1.94711
1.64894
2.00689
1
0.757946
1
1
2.02568
2.03189
3.27907
2.03274
1.76343
1
1.30378
1.31184
1.28556
1.57718
0.329117
0.315796
1.65293
1.06744
0.328662
1.85115
0.888151
1.80671
0.31463
1.0945
1.14385
1
1.73269
1.78544
1.23308
1.28871
1.71059
1.26552
1.25327
0.326074
2.08397
1.17077
0.71148
1.87078
0.945612
1.22206
1.30402
1.84826
0.326586
1.5941
1.87873
1
1
1.57268
1.70628
2.82021
1
1.6106
1.20937
2.01305
2.3659
1.67772
3.14665
1
1.16177
0.862605
3.15118
1.70794
1
0.933252
1.87743
0.843969
1.65618
1.48512
1
3.03726
0.800063
3.03276
2.61269
1.03765
1.60456
2.34433
1.01461
1.56423
1
0.999985
1.65145
1.28347
0.955915
1.1565
2.21616
1.39985
1.14209
1.71009
2.15657
1.23756
1
1.58291
2.01011
1.57208
1.21115
1.20714
0.953786
1.15165
1.4213
1
2.13092
1.10149
2.06414
1
1.26818
0.325044
3.16509
2.04841
1.51536
1.81312
1.03291
1.61054
1.775
1.02605
1.85139
1.18835
1.25106
1
1
1.89673
1.95061
1
2.37294
2.52145
1.00028
0.947654
1
1.87391
0.99891
1.03805
1.73024
1.38655
1
1.14914
1
2.60804
1
0.787032
1.24168
1.55133
1.9048
1.2351
0.890492
1
0.78351
0.994754
0.324435
2.61868
1.37319
1.92563
3.5416
1.91872
1
1.95478
0.325913
1.96259
1.72213
1.39412
2.62191
2.20891
1.99371
2.0123
0.324928
1.62631
1
1.48045
1.38965
2.04662
1.48052
3.16794
2.04129
0.999914
1.22135
1.27667
2.09218
2.09918
1.37852
1
1.1889
2.1719
2.15027
0.947362
2.80497
1
2.75215
1
1
2.70056
1.58177
1.8666
1.21007
1.21691
1
1
1.67576
1.6412
1.22924
0.963493
1.86959
0.950145
0.975384
1.05065
0.605112
1.80747
1.07505
1.02397
1
0.845033
1.67646
2.05138
0.618465
0.325889
1.69788
1.99913
0.325567
1
1.13389
1.97609
0.949101
1.62814
1.83333
1
1.81986
1
1.64511
1.83526
1.27407
1.57932
1
0.883569
1.26719
0.924416
2.60803
1.0662
0.855595
1.71747
1.91479
2.60555
1
1.29972
1.30607
1.3379
1.33032
1.37862
1.3721
1.91896
1.88151
1
1.40839
1
1.40229
1.76288
1.55612
1.79396
1.58052
0.351549
2.03399
1.55024
1.57775
1.45014
1.44169
2.61806
1.56605
1.47664
0.326238
0.387164
1.48472
1.48181
1.53251
1
1
1.49766
1.49409
1.11471
1.15024
1.50232
2.61919
1.52323
1
1
1.16042
1.21691
1
1
2.11931
1
1.58235
1.57625
1.61779
1.61165
1.26677
1.19588
1.87853
1.89396
1.31241
1.13834
1.6897
1.6847
2.61144
1.32325
1.13425
0.324141
1.27244
1.10177
1
0.767932
1.12943
0.322277
2.58828
0.441781
0.324606
1.38742
2.61077
1
0.88268
1
1.62587
1.10411
2.61111
1.57196
0.581112
2.34045
1.75582
1.21187
2.61168
2.90576
1.94478
1.25889
1.94186
0.312311
2.61545
1.60555
1.85851
3.96165
3.54753
1.7589
2.60517
1.00054
1.57071
2.60905
1.15676
1.56757
2.60575
1.36303
2.6817
2.15626
2.60896
1.39559
1.34131
2.48863
1.15362
2.60661
1.59141
0.999939
2.60548
1.05858
1.77858
1
1.19992
1.42891
1.88939
3.46464
1.93075
1.14788
2.05081
1.56836
1
3.52746
1.00631
2.96771
2.60771
2.61342
2.52589
4.25798
1.95557
2.85953
2.61543
1.26701
1.90005
1.25676
2.40693
1.68224
1.53182
1.53796
2.25021
1
1
1.18647
1.89611
1.90362
2.24339
1.56119
2.27055
1.02317
3.43586
2.27174
1.92077
1.82793
1
4.27408
2.02908
4.27174
4.28851
1.43104
3.40188
4.36111
4.39551
1.05863
1.27276
4.38228
1
1
1.00004
2.85202
1
1
1
2.89179
1
1.34019
0.958125
1.83797
2.04584
1.83302
0.584291
1.67386
0.328557
2.81521
1.93893
0.880882
0.883527
0.858599
1.48474
2.37492
0.748512
1.55425
1.67603
1
2.01993
0.664854
1.81177
1.33541
1
1
1.86045
1.33226
2.95962
1.86672
3.01972
2.42536
1.92006
1
2.90447
2.41514
1
1
3.00837
1.3581
0.821137
0.820251
1.24778
2.74198
1.21695
1.11921
1.65821
1
1
1.59372
1.59444
0.693804
1.19799
1
1.20757
1.92028
1.24282
3.05324
1.25031
1.32916
2.19051
1.17081
1.7521
1.37389
2.76124
1.60366
1
2.01958
2.62927
1
1
1.64927
2.62242
0.326357
2.46615
1.81498
1.80854
1.6814
1.31481
1.22759
1.65432
1.63017
1.98293
1.13482
1
1.70501
1.30831
2.6123
2.5994
2.00258
4.40054
4.08246
1.78241
1
2.61216
1.50656
1
1.23816
0.329883
1.32446
1.93468
2.59955
1.9382
1.92539
2.18817
2.54539
1.93892
0.853979
2.60977
1.50362
1.01067
1.00926
2.763
1
2.77465
1.24919
2.35069
1.66069
4.19427
0.332669
4.09756
1.87345
4.17339
1.94306
1.67823
2.61899
4.22785
0.885028
0.999993
1.85394
2.21449
3.12781
1.83876
1.5756
1.86984
1.33677
1.07763
1
1.51498
1.32281
2.17637
4.29648
1
4.35021
0.880446
2.02744
1.54697
1.60045
1.91883
1.29516
1
1
1.85081
1.84745
0.760893
1.49339
1.65571
1.46641
1.68143
3.11259
1.67985
1
1
1.69258
1.95912
1.75581
1.24145
0.946086
2.74212
1
1.18628
1.99978
2.69516
2.68616
1.1661
1.37855
3.50274
1
1
0.734173
1.7338
1.20282
1
1.32075
0.9569
1
1
4.48161
0.711882
1.31282
1.68805
2.69241
1
1
4.3326
1
1
1.87776
1
1.54206
1.20121
1
2.62202
1.9038
1
1
1
2.0434
2.07474
1.555
1.87507
1
1.67957
1.88132
1.84821
2.63993
0.999956
1
0.868006
1.98588
1.18472
1.49405
3.38531
3.02011
1.89597
1.50151
2.10793
0.99933
1.7815
1
1.73694
2.03422
0.611976
2.03544
2.02212
2.60247
2.28936
1.75087
2.98981
1.83612
1
0.986455
2.04874
2.25181
2.07212
0.873733
1.25332
2.63812
2.08364
0.32542
1
1.89177
1.3102
2.20484
1.08587
1
1.67337
2.60851
1.84545
1
1.15583
1.16667
1
2.20826
1.00004
0.330494
2.22599
1.8988
1.97136
1.90316
2.30955
1
1.28913
1.84041
1.28625
1.91373
1.84563
3.12808
1.65673
0.807572
1.80456
2.61506
1.20913
0.99748
1.29759
0.873278
2.61574
1
1.12623
1.16131
0.7923
1
2.27544
2.56091
1.93579
2.10901
1.52455
1.00059
1.30663
2.61054
2.39506
2.62194
0.861641
1.34226
1.65343
2.6179
1.57991
1.24631
2.33535
2.19568
1.95237
0.895074
2.62223
1.84324
3.00244
2.61724
1
1
2.61374
2.38802
1.86162
2.36026
2.39498
1
1.71567
1
1.35303
1
1.56982
1
1.70626
1.24534
3.1997
2.16516
1
1
4.42889
1
0.891496
1.47957
4.30569
3.76705
1.97693
1
0.969948
2.61874
0.981731
1
1.23481
1
1.85204
1
0.953424
2.62226
2.62789
1.66809
1.29523
0.999999
1.90511
1.90398
1
1
1.1462
1.91074
0.999997
0.714171
2.61109
0.978368
1.79376
1.76709
2.75885
3.75187
0.862578
1
1.15966
1.36987
1
1.02259
2.62839
2.57328
1.08508
1.14432
1.57727
2.61662
1.8154
1.34965
1.03983
1.56397
2.65131
2.34362
0.999998
1.4393
2.60654
1
1.19966
1.80374
1.24683
1.29827
1.78394
2.39076
2.98905
3.31864
2.15269
0.953852
1.80612
2.35021
1.31609
1.11634
3.01815
3.38083
1
1
2.07374
1.81742
1
1.65407
2.16941
1.0958
1.72366
1
1.74056
1
1
1
1.52864
1.49635
1
1.11023
1.65585
1.5969
0.633273
2.42581
1.60616
2.74896
0.999971
2.44707
1.57485
1
1.85802
1
1.78335
1.59862
0.848102
2.73863
1.52877
1.87375
1.73337
1.48663
1.39617
1.16663
1.49894
1.4556
1.58157
1.46817
1.42835
2.62922
1.43284
1.8465
1.1368
1
2.01278
1.88695
1.91616
0.954311
2.60418
1.28858
1.38375
2.6291
2.0502
1.90631
2.05141
1
3.08671
1.00002
1.1163
1.86087
1.36394
1.37262
0.326192
1.91425
2.24358
2.61038
1.27697
1
1.16416
1.43512
2.60961
2.50039
1
2.17787
2.60685
2.17993
1.16131
4.01605
1.84457
1
2.61377
1.23878
1.85314
1.86756
1.36565
2.62405
1
2.62176
1
1.80037
0.906738
1
1.8869
1.32841
1
2.11384
1.764
3.30786
2.95025
4.08455
1.00002
1.25816
1.73919
0.999998
2.14217
1.9231
1.90464
1.73902
2.61725
3.25684
2.61059
1.81916
1.7495
1.00156
4.44354
1.4634
1.22294
1.66777
1.60635
3.6663
1.76338
0.805952
1.51042
1.58895
1.19065
1
4.42811
3.73287
0.853371
1.90016
1.00012
1
1.59085
2.45169
1.23795
2.23854
2.1878
0.848906
1
1.54004
1.88853
0.32614
4.2555
1.90307
1.02493
1.00243
1.57768
3.47567
2.26689
1.52787
0.815042
0.796794
1.53862
1.53652
3.8683
1
2.61943
2.58218
2.60806
1.26675
2.61313
2.50725
2.56754
1
1.52363
1
1
1
1.51175
1
1.16432
1.40148
0.763098
1.37562
1.07909
1.41223
2.54793
1.29209
1
2.55562
0.897285
1
0.924404
1.61276
1
1
1
2.03304
3.81576
1.18599
3.0758
1.1844
1.66796
4.46287
1
2.18643
1
3.05214
2.59496
1.25395
2.62763
1.67008
2.60712
1.92555
1.26192
1.832
1
2.60942
1
2.09281
1
1
1
2.60439
2.62224
1
1
1.94607
1.31708
2.61652
2.45456
1.6529
1.73263
2.44809
0.811246
1
1.85881
1
0.999687
2.61017
1.0091
2.18453
1.99296
1.95955
1.71638
1.97248
1.46396
0.321285
2.61099
2.62728
1.43201
1.7356
1
1.42903
2.62214
3.59535
2.91874
2.61518
0.924907
1
1.30443
4.11054
1.97983
1.98616
2.02753
1.46703
0.93293
1
1.33269
1
2.61812
1
1.7596
2.80678
1
2.61362
1.34198
1.2974
2.61191
1.75763
2.60853
1
0.879913
0.905949
1.64728
1.67487
1.78297
1.77338
2.61002
2.60929
1.41869
1.60876
1.17935
1.42586
2.02213
2.61461
1
1
1.44241
1
2.61563
1.62014
1.74985
1.51382
1
1
1.45272
1.83136
0.898826
1.22984
1.30616
1.50782
1.66253
1.75875
2.6127
2.02113
1
1.51469
1.236
2.45903
1.59266
3.07141
2.61088
0.859446
1.58935
1.59943
1.70306
1.80082
0.742618
2.62312
1.73358
1.77609
1.27417
2.61423
2.61011
1
2.6101
1.71839
0.76815
1.87052
1.89112
1.68985
1.68342
1.63347
1.27151
1.67709
2.64331
1.90049
2.61326
0.328147
2.5921
1.40813
1.58265
1.56353
1.1558
0.824796
1.86421
3.34397
2.15524
1
2.03872
1.84054
1.83507
1.5769
0.83826
1.31169
1.31819
2.64284
1.17351
1.90114
1.90611
0.806828
1.59924
2.62656
1
1.14274
0.801649
0.781088
1
2.02287
0.78016
1.93623
1.93014
2.01058
2.02235
2.04737
1.00042
1.97252
1.96748
2.63101
0.819271
1.61083
0.692038
2.6084
2.04097
2.02974
2.61835
1.96289
1.94412
1.71905
0.83687
2.61024
1.21058
2.19398
1.44573
2.63879
1
1
2.05134
2.0656
0.324177
2.61342
1.06839
0.760969
3.41396
1.57583
1.37872
1.85701
1.52648
1.74095
2.61478
1.16762
1.16027
2.02382
0.977587
1.15408
1.59272
1.61587
1.21352
1.23743
2.19537
1.19197
1
0.999993
1
1
2.19665
1.12651
1.3106
1.95167
1
1.66935
1
2.60669
1
1.1045
1.05844
1.75676
1
2.61562
4.19666
1.05551
1.51946
1.20631
1.55697
1.53134
1.67463
0.733704
1.31526
1
1
0.805682
1.47162
1.68456
1
0.869182
2.01264
3.22639
1.40109
1.31129
1.63935
0.94197
1
1.98175
1.426
0.875336
2.68646
2.0745
1.69142
2.07544
1.36752
1.00037
1.31621
1.29208
1.76872
0.830603
1
1.25743
1
1
1.9144
0.818196
4.41135
1.32031
1
1.25818
1.40419
1.20373
1.51983
1
1
1
1.51218
4.37494
1.9253
0.94036
1
1.60466
1.35022
1.54423
1.96439
2.21284
1.4275
1.4801
1.37063
2.04605
0.926278
4.32073
1.89124
1.28999
1.90821
1.08822
1.66715
1.04446
2.11918
1.13462
2.61182
1.30324
1.70411
1.96804
0.928445
1
1.29849
2.61283
1
2.32916
1
1.49744
1.49417
1.61147
2.55543
1
2.57466
1.46921
1.87777
1
3.14826
1.70133
0.85785
0.674439
1.95457
4.56191
1
0.79064
0.951994
2.55341
0.829911
1.91876
1.41361
0.997323
1
1
2.75693
1.40565
1.4125
1.40412
1.64464
1.63171
2.5117
1
4.3742
1.40478
0.965677
0.607323
1.74606
1
2.44352
1.00001
1.59779
3.10133
1
1.71266
1.40295
2.60311
1
2.61776
1.74994
1.38011
1.3722
2.61647
0.999974
1.37441
2.61587
0.889511
1.36138
0.999996
1.51724
2.10339
0.892499
1.47512
1.89787
1.00006
1.76187
1
1
1
2.61392
1
1.7858
1.779
1.20649
2.80829
2.95195
1.27244
2.29989
1.76239
1
2.01165
2.60555
2.61145
0.622024
1.76552
1.73021
4.31305
1.51991
2.61683
1.22902
1.04795
1.3446
2.60917
1.14448
0.999996
1.16821
2.61078
2.76761
1.15396
1.1131
1.17451
1.68371
1
2.47134
4.11421
1.88969
1.88019
1
1
1.74133
1
1.0003
1.86226
1.08057
0.99854
1
1.84414
1.2258
1.94619
1.00001
2.3755
1
1.40141
1.38146
1
1.41406
1.36401
2.33998
1.23826
1.00017
3.61069
2.42203
1.00001
1
1.4344
3.13851
1.26909
1
1.42088
1.44062
1.11238
4.35676
1.82091
1.24742
1.80667
1.31577
1.50312
2.86286
2.14775
1.75367
1.56335
1.25908
2.62473
1.96991
1.47255
1.8029
1.23173
1.80691
1.48446
1.67404
1.78951
3.09184
1.00073
2.62021
1.50104
2.64228
0.969843
1.50966
1
1.63541
1.35012
1.94789
1
1.84115
1.87196
0.994513
2.65458
1
1.33191
1.8629
2.33202
1.9186
2.66536
1
2.36386
1.2499
1
1.45686
0.835622
1.22478
4.2869
1.6692
1
1.79125
1.21973
1.59067
1.69008
1.00001
0.865024
0.833945
3.67491
1.62152
0.33149
2.16161
3.39179
2.0871
3.54962
2.04875
1
1.00003
1.63091
3.22492
1.99209
1.79451
0.88337
0.876146
1.67175
1.57818
2.60989
3.97536
1.80968
1.00123
1.24326
1.00062
2.60599
2.34667
1.2432
0.902327
1.52852
1.89556
1.90491
1.87303
1.88494
0.989809
2.82366
1.50432
4.31318
1.70307
2.63924
1.34255
2.00988
2.61856
1.4491
2.26585
1.34278
1.63909
2.34176
0.838473
2.37864
1.42254
1.03557
1.80523
2.61161
1.5427
1.42214
1.19449
1.80878
2.30454
0.80637
1.20138
1.225
1.75976
1.22091
0.999776
1.3973
1.83095
0.910688
1.39316
0.691712
1.25427
1
1.22957
1
1.44572
1
0.878743
2.35734
0.854523
1
1.78217
1.53629
1.06186
1.52037
0.678183
1.25467
2.3033
0.868931
1.62961
1.49822
1.02739
1
1
2.78122
1.53277
4.23257
1.52368
1.98877
1
1.00001
0.865316
2.0625
1.20204
1.18511
2.4894
0.94695
2.45104
1.9217
1.11899
1.9329
2.6114
1.75959
1.84331
0.909787
2.10621
0.999998
2.13223
0.831766
1
1
1.46196
1.00004
1.75638
2.33386
1.95356
1
1.96844
1
1.00001
1
0.999995
2.02954
1
2.03925
0.816253
1.23456
2.05398
1.00001
1.72653
2.62363
1.16649
2.38012
0.824414
2.29637
2.61271
4.34379
0.90674
1
1.1732
1.71368
2.10911
0.955369
1
1
1.98723
1
3.58704
4.31436
2.62603
2.61543
1.45251
1
1
1.00001
1.81124
2.25285
3.22327
4.2902
1
2.38784
1.03703
1.90621
2.62386
2.08875
0.858242
0.999999
1.07312
1.40009
2.61575
0.793803
2.31778
1.15079
1.78882
1.15967
2.64338
1
0.911135
0.743457
2.61241
0.934031
1.46495
0.864439
1.7645
1
0.923843
0.899231
3.95158
1.80441
1
1
0.981996
1
2.08987
1
1
1.4031
1.02556
1.32147
2.62689
1.34856
3.89094
1.24195
1.84684
1
1.20471
1
1.00001
1.53199
4.25033
1
1.66897
0.942727
1.10764
4.39366
0.999668
1
1
0.331708
1.73144
2.32087
1
1.84224
1.11721
1.84755
1.28154
2.3261
1
2.62187
1.30077
1
1.47327
1.9141
1.62038
1
2.61958
1.27835
1
1.794
1
1.83251
2.61432
1.8417
0.685786
1.94377
2.61486
0.793792
2.28151
1.89849
1.5698
1.00002
1.60491
1
1.68385
0.847338
1.94398
2.83118
2.46148
1.68961
1.11548
1
2.12152
0.80237
1
1.00006
1.00114
2.97696
0.954658
1
3.01427
1
1
2.94607
1.17065
2.72535
0.986038
1
2.67507
1
1.0001
0.795451
1.17547
4.35485
4.26004
1
1
1.00003
2.09516
1.10093
1.1844
2.05392
2.07691
1
1.48751
1
1
2.07333
1.27927
2.66185
1
2.39748
1
0.795591
1.00079
2.10019
1
2.60289
1.27924
1.26185
1
1
1
1.29371
1.05467
1
2.6127
1.26737
0.862535
0.851018
1.5957
1
1
0.999054
1.1927
1.17195
1
2.61127
1
1
1
2.29025
0.999997
1.41329
2.58652
1.418
1.27508
1
2.80932
1.0938
1.74942
1.13611
0.919632
2.36294
2.85864
1.15661
2.60985
3.2828
2.27353
1
3.39545
0.67067
2.20873
1.15436
1
2.61149
2.28695
1
1.54127
2.26986
1
1.74835
1.7224
1.72653
1.06342
1
0.998158
1
1
1.00009
1.43696
2.91868
1.73187
1.53591
1.44153
2.65062
0.883188
1.25807
2.8245
1
2.43319
1
2.18709
1.43748
2.19436
1
1
1
1
1.00003
2.43391
1
1.03128
1
1
1
4.34077
1.77809
4.25343
2.86464
2.95193
0.989437
4.19145
2.05076
1.13736
2.61705
2.39205
2.28855
1.19747
1.09459
1
2.03979
2.26198
2.96516
2.29843
1.87629
0.999955
3.00829
1.92689
2.12991
1.00017
4.1611
1.15538
2.44201
2.38428
2.61793
0.331538
2.83223
1
0.64346
1
1
1.77314
1.19009
1.3131
0.824076
1
3.00037
4.15352
1
1
1.99741
1.15643
2.34543
0.999653
1.13083
1.60256
2.61408
1
2.40174
1.90344
1
2.76512
0.984198
1
1.57412
0.640497
0.912287
1.3141
1.41337
2.61194
1
0.940901
2.61494
4.62294
1.15958
1
1.49437
2.6107
0.793959
1
2.61001
1.80645
1.22436
3.98573
0.994954
1
1.96044
1
2.61528
0.979478
0.955948
0.87368
2.10942
0.994834
1.01393
1
1
2.38447
1
2.61197
1.93714
0.769978
1.7208
1
1.65262
1
1.76921
1.91434
1.5827
1.24931
0.359134
2.61219
1.45998
1
1
1.35625
1.35658
1
1.55554
4.26774
1.69055
2.04549
1
1
1
0.915413
2.07921
1.50346
1.53802
1.32937
1.74818
1.57953
2.32103
1
1
1
1.72125
0.86509
0.895534
2.60898
0.900794
0.860691
2.31812
1
1.39796
1.08375
1
1
1
4.34384
2.81865
2.22087
1.42219
2.35613
1.19353
1.72891
1.38435
4.21525
1
1
1
2.61819
1.24366
1
2.67419
1
2.17757
1.84285
2.61427
2.61664
2.58508
2.47335
1.00001
2.61985
2.6064
2.38448
1
2.0477
0.999999
1
2.81037
2.52406
1
1
1.2376
1.32466
2.34227
0.801249
2.57323
1.58287
1
1
1
2.01613
1
1.73246
2.80857
2.99734
2.20682
2.15801
2.61072
1.80745
1.91357
1
1
1.47068
2.60741
1
1.38495
1.50205
1.86107
2.61855
1.96523
2.03859
0.885497
1.31449
2.06908
1.84651
4.37569
2.61795
1.61626
1.86329
2.612
2.61213
1.29487
1.64324
1
1
2.61595
2.28018
1.3052
1.55551
2.64597
1.21735
2.20006
1.00002
1.36644
2.76513
2.6085
1
1.1851
1.18401
2.02385
1.29608
2.60866
4.28904
2.61595
4.34718
2.61373
1.91219
1.59418
1.52632
2.61048
1
1.20013
2.16162
2.52403
1.0266
1
2.61397
0.800561
0.335773
2.79077
1
0.789845
1.19994
2.61128
2.03617
1.37536
1.29378
2.62374
1
1.73078
2.88239
0.952203
1.55343
1
1.54465
1.87612
1
2.60878
2.3836
3.50735
1.21846
1.21555
1.47033
0.999986
1.59591
1
2.12397
2.61119
1.76162
1.01258
1.10709
1.74668
1.66048
1.74311
1.74683
1
1.88447
1
1.42215
1.5292
0.959554
1.88468
1.09082
1
1.55773
1.20198
1.20559
1
1
0.790878
2.31051
2.61506
1
1
1.44059
1
1.45378
2.46429
0.991968
1
1.31768
1
2.26196
1.07317
2.62766
1.13321
1.47198
1
1.39378
1.76286
1.63331
1.44647
1
1.20485
2.62477
1
1.55082
1.4479
0.843592
1.42065
1.41443
1.64265
2.61031
1.46197
1.00001
1
1.00006
1.42065
1
1.76551
1.55358
1
1
1
0.999998
2.60362
1.10019
0.317412
2.56205
0.833562
3.655
1.53045
0.762477
0.806591
1.21762
1.66259
1
1.48713
2.59968
1.66226
0.628137
2.61582
1.99614
1
2.24443
2.6412
2.59034
1
1.23436
1.23407
1.61849
1.4627
1.66281
1.23947
2.72542
2.6166
1.13878
2.384
2.57347
2.62366
1.54229
2.2402
1
1.61224
1.37577
1
1
1
0.722901
1
1
1.58112
1
1
2.61645
1.00002
1.48223
2.61302
1
1
0.996855
1
2.73312
2.61253
1.59401
0.797761
2.61292
2.69411
2.55117
1
1
1.68497
2.52076
1
1.25195
1.26021
1.57454
0.832256
0.803381
1.19862
2.68595
1.00281
1.12353
2.61084
2.61187
0.799583
2.74281
2.61634
1
1
1.91767
1
1.49347
1
2.61579
1.18201
1.1781
1
1
1.3703
2.58088
2.52691
2.61062
1.00061
2.53615
1.53226
1
1.49047
1
2.58196
1
0.934197
1.41767
1
1
1
2.29549
1.44243
1
1
1.20877
1.31023
2.359
1.19641
1
1.27177
0.634663
0.831306
0.999997
1
2.60979
1.75361
1.40497
1
1.39057
1.73779
2.44773
2.61296
1.55732
2.59361
1
0.954219
1
4.19541
1.74028
2.61237
2.21904
2.60892
0.807162
1
1
0.744462
0.999997
1
2.61589
0.789508
0.773383
1.47045
1
1.00238
1
2.54248
2.86732
1
1
1.41982
1
1.41578
0.645845
1.47477
0.71746
2.95567
3.9853
1.07845
2.61187
1.16012
1
4.35703
1
1.85932
2.61172
0.748148
1
1
2.61043
1.40283
0.938728
1
0.334483
2.16227
1.78478
1.00565
2.5963
2.15839
1
1.54033
1.46771
0.810779
2.19362
1.60054
1
1
1.00406
1.20123
2.43542
2.61419
2.62671
1.87692
0.975447
1.65867
2.62073
1.6034
1.87107
1.47892
1
1.00117
1
0.999991
0.9978
0.665842
2.72744
1.14257
1
1.91987
1.41259
1.16232
1.07883
1.15927
1
1.40497
2.80685
1
1
1.16183
2.61357
2.80496
1
1
1
1
4.49484
2.59346
2.56504
2.97749
1.67077
1
0.999997
2.61457
2.67452
3.08351
1.1708
2.5769
1
2.73072
1
1
1.00028
1
1.10436
2.04625
1
1.51999
1
2.62554
1.51078
2.53494
1.00224
1.00025
1
0.627544
1.10106
1
2.27195
2.60767
1
2.56942
1.73932
3.15147
1
2.50332
1
1.00012
1.5157
1.52528
0.97967
1.99607
1
0.885214
0.99671
2.62557
1.76607
1
2.6253
0.985877
1
0.326034
2.38933
0.844363
0.595636
2.27721
1
1.9528
1
1
1
2.61542
2.35172
1
1.00135
1.11556
2.91986
1.85973
1
0.643794
2.6146
1
0.905731
2.82759
2.1268
1
2.0654
3.12675
1
1
1
1
2.68095
1.12306
0.631627
0.999364
2.35232
1.76267
2.58656
3.03111
1
1
1
1.61852
1
2.08293
2.97947
2.00454
1.90157
0.331671
0.474946
1.39167
0.664291
0.331919
1
3.50971
3.20671
2.23267
1
1
2.76202
2.62303
1.01101
2.39331
2.2653
2.56996
1.89795
1.73376
1.86637
0.809475
1.38647
1
1
1
1.74183
0.985849
1
1.41948
0.965595
1.22089
2.23913
1
2.53453
0.80501
3.44923
1
1
0.481066
1.53271
0.689642
1
2.61495
2.05894
0.670526
2.61307
4.30114
2.18911
2.53184
2.61212
1
1
1
1
0.401195
1
1.45511
0.944168
0.329033
2.61391
0.647286
1.28333
2.19204
1.12452
1.42237
1
1.0713
1
0.950397
2.61358
2.59283
3.80985
0.671456
1
1
1
0.635732
2.90868
1
1
1
1
2.26469
1
1
0.326624
1
1
1
1
0.533643
1
3.18177
1.93499
1.06614
1
1
1
1.35064
2.42595
1
1
2.94662
4.39502
1
0.483595
0.360196
1
1
1
1.31894
3.08612
1.18919
0.921116
1
1
1
1.14447
1.53664
1.13941
2.61408
2.61378
1
1
2.76488
1
1.63787
2.60879
0.876397
2.59121
4.03417
1.65044
2.621
3.36103
1
0.769912
0.43265
1
1.09402
1
1.94982
1.12906
1
0.601681
0.606125
1
1
1
0.9014
0.918748
2.61358
1
1
1
0.89746
1
1.12166
1
1
0.517478
1
1
1
2.28639
2.67041
1
0.440206
1.14213
0.34317
1
2.60442
1.72837
3.56664
0.982822
2.08083
1.14428
0.959175
0.500728
0.988716
0.329482
2.49907
3.21006
4.14474
0.349906
1.97916
1
1
1
2.41181
2.61041
1
1
0.74158
2.08183
1.02915
2.31116
1.13593
1.40131
2.34859
1
0.371073
2.58954
1.16507
2.19714
0.7353
3.97843
0.903536
2.59322
3.37749
1
2.61512
1
2.61285
2.15221
1.4134
1.92832
1.66721
1
2.60499
1
1
1
0.869696
1
2.61577
1
0.957471
1
1.31326
1
0.914413
1
2.51842
1
1
1
1.00016
3.39566
1
1.90541
2.61456
2.59423
1
1.88609
1
1
1.98642
2.60239
4.11784
0.348614
0.32048
1
1.73004
1
3.13172
0.630279
2.6124
0.359722
2.47734
1.42245
1.50522
2.61456
2.2436
1.00084
0.934056
1.39574
0.921931
0.554371
0.803329
1
1
3.26041
0.83569
1
2.36086
0.500304
1
1
1
1.80785
3.66698
2.6164
1.62183
1
2.61493
1.8513
0.992823
2.59998
0.977511
0.94309
1.00015
1.035
1
4.42377
0.916252
1.35357
0.976634
1
1
1.00015
2.61161
1
2.6136
1.0431
0.774673
0.328843
1.44194
0.959143
0.330052
1.23285
1
1.06387
1.07924
3.29838
1.08784
1
2.61399
1.47147
2.77206
1.70028
0.961911
2.82314
2.59855
1
1
1.10589
1.30234
1.16587
4.19641
1
1
0.993557
0.329716
1.63525
1
2.61812
1.17053
2.61199
1
3.64741
1
1
0.594943
1
1
2.60759
1
1
1
1.37075
1
1.66655
2.06213
1.55093
2.15868
1.46963
2.45809
2.61606
2.60905
3.25872
0.948236
1.54424
1.43099
1.36646
1
1.41714
0.996884
2.6065
2.61564
1.64674
1.08979
1.54216
0.326757
0.850858
2.61837
1
0.330899
1.58441
0.906843
1
1
1
0.329108
1.58259
0.820518
1
1.84739
1.38716
2.44498
1
1.48919
2.01708
2.6162
1.1081
1.53075
1.77498
1.4029
1.53027
2.64752
2.14789
1.78978
0.327419
1.39374
1
1
2.61361
1
0.78242
1
1
2.61131
2.61256
1.60766
1
1
2.67282
0.914359
1.65217
1
0.964004
1.50898
1
0.968638
0.962877
0.813769
2.24493
2.89006
1
1
1
0.943777
2.61117
2.22308
1.74689
4.36304
3.05567
1.92373
1.48703
0.580275
1
2.28499
1.31614
1.34167
0.330153
3.59177
3.21782
1
1.08794
1.62551
0.530644
2.61368
0.594517
2.61192
1.08407
0.379136
1
2.61551
0.610426
4.35888
2.69064
0.97093
1
3.74489
1.90375
1.24719
1
1
2.61145
0.95048
1.33036
2.6111
2.81556
3.14406
1.47043
1.2897
0.95765
2.04462
0.999477
1.34249
2.61449
1
1
1.65236
1.92502
4.2878
1
0.314629
1.25451
1.54547
1
2.62355
4.52393
1
1.72841
0.477166
3.06822
0.434962
4.27868
1
1
1
1
1
4.28337
1
1.66877
1
1.43529
0.319035
0.31764
2.50833
3.07007
0.328893
1.46677
1.22463
1.2277
1
3.65877
1.24804
0.969438
4.43389
1
2.61554
1.32245
0.327234
0.399744
1
1
0.960094
1.30567
4.34555
0.372216
1.29749
1.10504
1
4.29238
0.334444
1
2.61643
1.70872
1
0.999999
3.14496
1
2.59989
1
0.329363
1
1
1.31716
0.861047
1
0.99166
2.60724
1
1
1.01796
1
1
1.95947
2.30364
2.38319
1
1.57875
0.9258
2.60645
2.61825
1
2.63786
2.56518
1.1268
1
1
1.48082
3.03265
0.327129
0.987347
2.04041
1.1021
2.61598
0.977998
0.325919
1.06207
1
1
1.10964
2.03532
4.11831
1.07598
0.588194
3.74676
0.330329
0.3275
1
3.2654
0.342173
2.61453
1.951
1.12633
1
1
1.47213
1
1.94009
0.752044
1
1
0.328833
0.953856
1
2.61161
1
1.1244
0.414842
1
1.2884
1
1
2.67533
2.60869
2.6171
2.95733
0.331303
2.61583
2.60762
1.23903
1.46204
2.61059
1
2.24052
1
1.26193
0.991134
1
0.987119
1.30753
0.32167
0.856773
2.61114
1.6139
0.580204
1
0.331199
2.58866
0.326644
1.26211
2.60961
0.881055
1.30657
1.06518
0.894631
0.319525
0.800439
2.62666
1