/*--------------------------------*- C++ -*----------------------------------*\
  =========                 |
  \\      /  F ield         | OpenFOAM: The Open Source CFD Toolbox
   \\    /   O peration     | Website:  https://openfoam.org
    \\  /    A nd           | Version:  12
     \\/     M anipulation  |
\*---------------------------------------------------------------------------*/
FoamFile
{
    format      ascii;
    class       surfaceScalarField;
    location    "0.2";
    object      phi;
}
// * * * * * * * * * * * * * * * * * * * * * * * * * * * * * * * * * * * * * //

dimensions      [1 0 -1 0 0 0 0];

internalField   nonuniform List<scalar> 
69079
(
-0.000205532
0.00011876
8.67723e-05
0.000166001
1.77403e-17
-0.000166001
-0.000179374
0.000179374
0.000167917
-1.91521e-06
-0.000176703
-2.67121e-06
-0.000176703
0.000103304
-0.00019142
8.81163e-05
1.89841e-06
0.000142952
-0.00014485
0.000169597
-0.000169597
3.59549e-17
0.00016874
8.56803e-07
-0.000127916
-7.76163e-05
-0.000150231
0.000160488
-1.03584e-05
-0.000166388
0.000162809
3.57841e-06
-0.000165548
-8.40003e-07
4.5797e-06
-0.000146503
0.000141924
0.000168773
-3.36001e-08
0.000167933
8.40003e-07
-0.000168572
0.000166354
2.21761e-06
-0.000166724
-1.84801e-06
0.000168454
-0.000167513
-9.40804e-07
0.000167144
1.31041e-06
0.000170117
-0.00017257
2.45281e-06
-0.00018139
1.74049e-05
0.000163985
0.000194679
-0.000127731
-6.69483e-05
0.000160726
-2.02777e-05
-0.000140449
-0.000167933
-1.66321e-06
0.0001679
3.36001e-08
3.86402e-07
-1.68001e-08
0.000147723
-0.000145825
0.000161947
-0.000168909
7.22254e-06
0.000159416
-0.000172755
1.33393e-05
0.000186061
-2.66449e-05
0.000166203
9.40804e-07
-5.20802e-07
-0.000167833
3.10801e-05
0.000136753
0.000165934
-0.000165934
1.35119e-17
3.86402e-07
-8.58483e-06
0.000153855
-0.00014527
-1.48681e-05
-0.000166522
0.000133813
3.45409e-05
-0.000168353
-0.000170915
2.07939e-05
0.000164775
-0.000164775
-3.68629e-18
-7.98003e-06
-0.000137716
0.000167032
-2.95733e-05
0.000164506
1.84801e-06
-1.42801e-06
-9.71884e-05
0.000185607
-8.84187e-05
0.000161432
-0.000161432
-1.60733e-17
0.00018512
-2.36881e-05
0.000156879
2.82409e-05
0.000184129
-2.72497e-05
0.000159634
-4.73762e-06
-0.000154897
-0.000138097
0.000166405
-2.83081e-05
-0.000175846
0.00018013
-4.28401e-06
-0.000169439
7.26363e-05
9.68306e-05
0.000160222
-0.000160222
7.53249e-17
0.000183541
-2.33185e-05
0.000163475
-1.38756e-07
-0.000163375
-9.69028e-05
-5.46674e-05
0.00015157
9.95068e-05
6.67467e-05
-0.000166253
0.000179127
-9.12563e-05
-8.78711e-05
-1.87657e-05
-0.000149067
6.53019e-05
-0.00016249
-0.000139852
0.000144432
0.000161969
8.40003e-07
-2.80561e-06
0.00019604
-0.00019604
-1.93666e-05
-0.000150011
-0.000150645
1.27492e-05
-6.63267e-05
0.00016963
0.000154342
2.91985e-05
0.000182247
-2.79049e-05
0.000162265
-2.02222e-05
-0.000142043
0.000169966
-0.000166472
-3.49441e-06
0.0001239
7.07787e-05
0.000148949
-0.0001532
4.25042e-06
-3.59521e-06
0.000152545
-0.000160659
1.47841e-05
0.000145875
0.000159416
2.66449e-05
-2.01601e-06
0.000152645
-0.000181592
2.89465e-05
0.00013603
2.36041e-05
0.000170252
-1.76065e-05
-0.000103152
-6.37058e-05
0.000166858
-0.000156056
0.000158055
-1.99921e-06
0.000151385
-0.000171461
2.00761e-05
0.000152629
-1.2432e-06
-0.000112896
-5.51042e-05
-8.26563e-06
-0.000133477
0.000141742
-9.2182e-05
0.000181222
-8.90403e-05
0.000190362
-5.6549e-05
-0.000168958
1.29025e-05
0.000156879
2.72497e-05
9.04684e-05
6.85947e-05
-0.000159063
-3.34321e-06
-0.000154426
-1.45321e-05
4.08242e-07
-0.000138258
0.00013785
0.000168058
-4.62864e-06
8.85531e-05
7.81707e-05
-0.000166724
7.07787e-05
-0.000162961
-0.000155787
1.36081e-06
0.000167866
-0.000167866
0.000174054
-1.20033e-05
2.64265e-05
-0.00018218
0.000155753
5.60954e-05
-0.000159248
-0.000158267
-1.25211e-05
0.000148563
-0.000173225
2.46625e-05
0.000151906
-3.34321e-06
8.67492e-06
0.000138379
-0.000147049
-7.86243e-06
0.000143321
-0.000135459
0.000154342
2.79049e-05
-2.72497e-05
-0.000136892
0.0001373
9.79444e-06
-0.00015782
0.000148025
-0.000157904
4.50074e-05
-9.64253e-06
0.000147722
-0.000138146
5.7137e-05
-0.00015404
-0.000153554
-5.21805e-06
0.000158585
0.000154639
-0.000159088
4.24771e-06
-0.000161197
0.000138987
2.22097e-05
-5.77922e-06
-0.000170924
0.000148378
2.18737e-05
-6.88803e-06
0.000155266
-0.00017336
0.00017336
-0.000161374
7.62423e-06
-4.70906e-05
0.000146597
0.000188972
-0.000112585
-7.6454e-05
-0.000180635
7.3629e-05
0.000107005
0.000160037
-7.72803e-07
-0.000159265
0.000146043
-0.00017042
2.43769e-05
0.000150881
-4.83842e-06
0.000164338
-2.21761e-06
0.000147589
-0.000145371
0.000150932
9.10564e-06
0.000101708
-0.000161381
5.96738e-05
0.000147135
-0.000177577
3.04417e-05
0.000176165
-2.90305e-05
-2.36103e-06
0.00015684
-0.000101019
0.000190664
-8.96451e-05
-0.000125849
-2.73505e-05
0.000141994
-0.000168723
2.67289e-05
0.00014774
-5.74562e-06
0.000158631
-0.000170359
1.16703e-05
-0.000158777
3.29281e-05
-4.39326e-05
-0.000136702
0.000145421
-0.000175477
3.00553e-05
-2.60401e-05
-0.000151486
0.000142901
0.000111334
-0.0001196
-0.000132917
0.000141636
0.000178383
-0.000178383
0.000150529
4.03202e-07
-2.70481e-05
0.000160877
-0.000170336
9.71898e-06
-0.000155116
4.60235e-06
9.08581e-05
9.81419e-05
-0.000168236
2.66953e-05
0.000141541
0.000142868
-0.000173713
3.08449e-05
-0.00014942
0.000172957
-3.00889e-05
-0.000155614
-2.65723e-06
0.000134129
-6.15175e-05
-5.31722e-05
0.00015488
-2.43265e-05
0.000185053
0.000145421
3.07441e-05
-0.000145556
0.000143338
-3.00553e-05
0.000164418
-0.000164653
9.09052e-05
-0.000158441
6.75363e-05
0.000141171
-0.000172251
3.10801e-05
0.000171663
-3.04921e-05
-2.51161e-05
-0.000147454
0.000151957
1.27176e-05
-0.000164674
-2.84929e-05
-0.000153687
1.7869e-05
-0.000135387
0.000117638
-0.000103388
0.000164607
-6.12194e-05
-0.000150797
5.44322e-06
0.000145354
8.26395e-06
0.000154001
-0.000141144
0.000131476
0.000150881
0.000165143
-4.17374e-06
0.000139457
-0.000170957
3.15001e-05
-3.37681e-05
9.24004e-07
-0.0001469
0.000145976
0.000144111
8.51763e-06
-2.96017e-05
6.03253e-05
0.00010651
0.000144346
6.38402e-07
-0.000144985
1.49521e-06
0.000142851
1.13904e-05
0.000158576
-6.18746e-05
-7.89099e-05
0.000140785
-0.000187674
0.00011373
7.39438e-05
9.65164e-05
-0.000158391
4.87202e-07
0.000146732
-0.000147219
-0.000146782
0.000147269
0.000133594
-0.000141457
-0.000155216
0.000161415
-6.19922e-06
0.000132603
-0.000159181
2.65777e-05
0.000143523
-1.092e-05
-1.3304e-05
-0.000129135
0.000142439
8.74107e-05
6.22946e-05
-0.000149705
0.000141171
3.17857e-05
-3.10801e-05
2.20249e-05
-0.000153855
0.00013183
-0.000147543
-7.31904e-06
0.000160721
4.53699e-06
0.000136904
-0.000169597
3.26929e-05
0.000168437
-3.15337e-05
9.81628e-05
-0.000156951
5.87885e-05
0.000148378
-0.000138584
0.000163318
-0.00016872
0.000146984
4.97282e-06
-5.20802e-07
0.000158576
4.2857e-05
-0.000146245
-0.00015283
-2.38561e-06
0.000164618
-5.83985e-06
-9.22492e-05
-5.70866e-05
0.000149336
0.00013519
-0.000167715
3.25249e-05
0.000170924
-2.23945e-05
-0.000173645
-3.52297e-05
0.000123578
-0.000105648
0.000139457
3.22057e-05
-3.15001e-05
-0.000103791
-6.77715e-05
0.000171562
0.000167127
-0.000164859
-2.26801e-06
-1.94713e-05
0.00016753
-0.000148059
0.000129982
-0.000156291
2.63089e-05
0.000142297
-1.23144e-05
0.000143109
-0.000143509
4.56454e-07
-6.09842e-06
-0.000155098
-0.000172217
2.64097e-05
0.000145808
-3.08953e-05
-0.000141322
-2.16385e-05
-0.000151721
-6.18242e-05
0.000152293
-0.00019058
0.000102245
8.83347e-05
-0.000159315
0.000137895
2.14201e-05
0.000141922
9.71235e-07
0.000155306
-0.000147333
-7.89505e-06
-0.000180836
0.000159197
-0.000155686
-1.008e-07
-0.0001532
0.000155703
-2.50321e-06
-9.32572e-05
-9.73228e-05
9.10228e-05
-0.000162893
7.18707e-05
-8.73603e-07
-0.000165598
-5.51042e-06
-0.000162725
0.000161195
-3.31865e-07
-0.000160189
6.98883e-06
0.000132637
-0.000166657
3.40201e-05
-3.60865e-05
0.000150781
4.71163e-06
0.000127748
-0.000153737
2.59897e-05
-0.000163616
3.42721e-06
0.000141171
-1.34233e-05
0.000140247
1.16592e-05
-2.93497e-05
0.000164228
-0.000157929
-6.17043e-06
-3.88082e-06
0.000149605
-0.000145724
0.00016333
-0.00016333
-0.000204054
9.59284e-05
0.000108125
-9.25012e-05
0.000160004
-6.75027e-05
-0.00014244
-4.39661e-06
0.000146926
-0.000166867
-3.8485e-06
-9.64273e-05
-5.81417e-05
0.000154569
8.98972e-05
5.56418e-05
-0.000145539
0.000110003
-0.000123307
5.19122e-06
0.000156005
-0.000161197
0.00013519
3.32473e-05
0.000130083
-0.000164893
3.48097e-05
-3.25249e-05
-0.000172822
0.000153351
-0.000155031
0.000155031
0.000105656
6.2345e-05
0.000163313
-3.32305e-05
-2.73673e-05
-0.000153469
0.000136198
9.6634e-05
-0.000158712
6.20779e-05
-4.95602e-06
-0.000152881
0.000157837
-1.02176e-06
0.000154486
-0.000153459
0.000124875
-0.000151402
2.65273e-05
0.000139995
-1.51201e-05
0.000166993
-0.000168387
-0.000140482
0.000145673
-9.9369e-05
-8.83045e-05
-9.64996e-05
0.000156543
-6.00434e-05
-0.00016252
3.42569e-06
0.000162397
-0.000168117
5.9554e-06
-8.42523e-05
0.000171663
0.000166327
1.63175e-06
0.000165602
7.44175e-07
-0.000193839
9.613e-05
9.77092e-05
4.73426e-05
0.000138265
0.000165152
4.41701e-07
9.76879e-05
-0.000143021
4.53295e-05
0.000161869
5.66162e-06
0.00014658
-4.88416e-05
4.3193e-05
0.000128369
-0.000162557
3.41881e-05
0.000163103
0.000162037
-3.36673e-05
0.000167628
-2.82997e-05
-0.000139319
-0.000150367
-4.48586e-06
0.00015466
-0.000183054
0.000106428
7.66251e-05
0.000137475
1.34065e-05
-2.91817e-05
-5.61122e-05
0.000154275
0.000173867
-0.000174004
-0.000140062
0.000140701
0.000146833
-0.000145337
-9.40636e-05
0.000160071
-6.60075e-05
-2.73841e-06
-0.000157921
0.000126672
-0.000161264
3.45913e-05
-0.000150848
0.000154594
-3.74641e-06
0.000160743
-3.40705e-05
-0.000163417
0.000163425
0.000160503
4.55835e-06
3.72961e-06
-0.000149487
0.000145757
-0.000145085
0.000140129
-0.000131489
-1.04243e-05
0.000141932
-0.000157181
6.33362e-06
-0.000138315
-5.3105e-05
0.000131427
-0.000151705
0.000171361
-1.75057e-05
0.000163094
-7.26781e-07
-0.000154325
-2.85601e-06
0.000158895
-0.000158895
0.000124959
-0.00015997
3.50113e-05
0.000159466
-3.45073e-05
0.000119835
-0.000145724
2.58889e-05
0.000136568
-1.67329e-05
-9.19636e-05
-9.109e-05
-0.000162356
6.1337e-05
-0.000152259
-2.06641e-06
8.51142e-05
9.40132e-05
0.0001577
6.7108e-06
0.000135829
1.19112e-05
-2.90641e-05
-0.000152746
0.000140113
1.26336e-05
0.000173645
-0.000166993
-0.000134216
0.000149
0.000148489
-0.000150243
1.68601e-06
0.000147286
-6.08162e-06
-0.000141205
0.000123262
-0.000158693
3.54313e-05
0.000158173
-3.49105e-05
-5.49362e-06
-0.000153821
-0.000154081
0.000159647
-5.52011e-06
9.40804e-07
-0.000151738
0.000175258
-3.19369e-05
-7.20891e-05
0.000160642
3.34874e-07
-0.000175166
2.86626e-05
-0.000140294
-1.54697e-05
0.000149117
-6.82083e-06
-0.000142297
0.000128369
3.49441e-05
0.000156005
-6.51003e-05
-3.41881e-05
-0.00015787
0.000143338
1.45321e-05
7.12104e-06
-0.000147403
-0.000201937
0.00011792
8.40171e-05
-0.000149437
4.95602e-06
0.000144481
-9.15268e-05
-0.00011041
5.56082e-06
0.000141793
-0.000147353
-0.00015026
6.95523e-06
0.000143305
-1.04328e-05
-0.000139827
-0.000156308
0.000145875
0.000121548
-0.000157383
3.58345e-05
-0.000150663
3.86402e-06
0.000146799
0.00015026
-6.43443e-06
-0.000143825
-5.12402e-06
0.000149504
-0.00014438
0.000145136
0.000156879
-3.53305e-05
0.000151889
-6.58563e-06
-0.000145304
0.00016147
-9.87331e-07
-0.000165846
-1.69009e-05
-0.000155921
-6.70323e-06
0.000151553
-0.00014485
8.76627e-05
5.83298e-05
-0.000145993
-0.000154678
6.2429e-05
-7.82194e-05
-8.97812e-05
-0.000170948
3.94584e-05
0.000126672
3.53641e-05
6.60243e-06
-0.000144699
-3.45913e-05
7.39203e-06
0.000139894
-0.00014144
1.05e-05
0.00013094
0.000119852
-0.000156106
3.62545e-05
-4.86982e-06
0.000168963
0.000150411
-5.94722e-06
-0.000144464
-0.000159422
-8.22697e-06
0.000155569
-3.57169e-05
-9.35713e-05
0.000156509
-6.29381e-05
0.000167009
-1.49521e-05
-0.000152057
0.000174284
-3.13321e-05
-0.000162231
0.000158083
4.24122e-06
0.000162359
-0.000162262
-0.000162272
9.60964e-06
0.000152662
-2.53681e-06
0.000145522
-0.000142985
-8.56635e-05
0.000154258
0.000113854
-0.000139558
2.57041e-05
-1.98577e-05
0.000133712
1.4165e-05
0.000156459
-5.64482e-06
0.000149537
-0.000143893
-1.45489e-05
0.000129529
-0.00011498
0.000176871
-0.00010458
-7.22907e-05
3.30961e-06
-0.000149974
0.000146665
3.20881e-06
-0.000155468
0.000154342
-0.000154342
-0.000145371
0.000147219
-1.84801e-06
0.000154481
-0.000160142
5.47076e-06
-0.000134333
0.000135257
-2.52001e-06
0.000147471
-0.000144951
2.40241e-06
-0.000149873
0.000147471
7.54474e-05
9.19703e-05
-0.000167418
-1.66321e-06
0.000157366
-0.000152175
-1.94881e-06
0.000154124
-0.00015749
-3.32551e-07
0.000149017
-0.000146614
0.000137441
4.3781e-05
0.000118138
-0.000154796
3.66577e-05
-6.60579e-05
-7.39035e-05
0.000139961
0.000124959
3.57841e-05
-0.00017551
0.000109452
0.000150021
-5.33872e-05
-4.10426e-05
-3.50113e-05
-0.000184885
0.000105504
7.93803e-05
-8.80659e-05
0.00016501
-7.69443e-05
8.46505e-05
8.13661e-05
-0.000166017
-9.28036e-05
0.000158105
-0.00015278
0.00014527
7.50963e-06
-0.00015404
1.26e-06
-0.000148343
2.71657e-06
0.000145626
5.49362e-06
0.000160911
-0.000142145
-4.03202e-06
0.000146177
-0.000132586
0.000118037
0.000105706
-0.000134014
0.00014116
-0.000151581
5.20802e-07
0.000145405
-0.000145925
5.91866e-05
-0.000155686
-9.75748e-05
-8.73099e-05
-1.2096e-07
0.00014585
-0.000145729
-0.000161854
-8.04363e-06
-0.00018806
0.00010915
-3.81361e-06
-0.000158458
0.000162527
-0.00016249
-0.00013094
0.000157635
-0.000151415
0.000150403
-3.14161e-06
0.00014821
-0.000145069
-3.20377e-05
-0.000122993
9.55453e-05
-0.000186802
-4.50074e-05
0.000150663
-0.000148849
4.68722e-06
0.000144161
1.68001e-06
0.000115433
-0.000117113
6.66963e-06
-0.000151133
0.000144464
0.000123262
3.62041e-05
0.000145398
-1.09704e-06
-0.000144301
0.000149605
-8.06403e-07
-0.000148798
8.66883e-07
0.000144531
0.000144788
-0.000143921
-3.54313e-05
-0.000147219
-3.44401e-06
2.95009e-07
0.000144493
-0.000161768
0.000167211
-0.000147118
0.00014821
-1.092e-06
5.56082e-06
0.000143456
0.000143691
5.81282e-06
-0.000147572
4.53602e-07
-8.1697e-05
-6.26978e-05
0.000144395
-0.000176471
3.82134e-05
0.00011676
-0.00011508
-3.34904e-06
0.000114543
-0.000154342
3.97994e-05
0.000163035
-0.000157472
-5.50325e-06
-2.86998e-06
0.000164217
0.000151805
-3.72625e-05
5.48825e-05
-0.00015131
0.000115332
-0.000135661
2.03281e-05
-2.18569e-05
0.000137189
-0.000153149
0.00014107
1.20792e-05
0.00013976
-1.2348e-05
-0.000152511
0.000158257
-8.00859e-05
-5.33899e-05
0.000127019
-0.000152477
0.000146967
-3.67012e-06
-0.000147435
-9.39628e-05
-9.98764e-05
-0.000121327
1.32989e-06
0.000120082
-0.000149261
0.000145997
1.13064e-06
0.000145964
-0.000147095
-4.68722e-06
-0.00014186
0.000146547
4.13282e-07
0.000146394
-0.000146807
0.000178467
-8.72427e-05
-9.12244e-05
7.62723e-06
0.00014149
0.000121548
3.66241e-05
-0.000151889
6.87123e-06
0.000145018
-0.000148373
5.88547e-06
-3.58345e-05
0.000113518
-0.000151201
3.76825e-05
-4.2773e-05
0.000113854
-0.000133964
2.01097e-05
-0.000143607
0.000139726
-0.000142767
-6.66963e-06
-2.27305e-05
0.000136585
7.04646e-06
6.71835e-05
0.000109688
0.000159903
-0.000156593
0.000151033
-1.42801e-06
-0.000156425
6.39242e-05
0.000149319
-5.02322e-06
-0.000144296
-0.000146278
0.000170993
0.000138869
-0.000116844
1.41121e-06
-0.000141473
8.21523e-07
-0.000145304
0.000144482
-4.04882e-06
0.000158643
8.61507e-05
8.06235e-05
-0.000166774
0.000100379
8.86674e-05
-0.000189046
-0.000127807
-8.03551e-06
0.000135534
3.69601e-07
-0.000146194
0.000145825
9.76084e-06
0.000153569
-0.000153721
0.000146329
-0.000145959
0.000151873
-0.000153956
2.08321e-06
1.008e-07
0.000146228
-1.2432e-06
0.000146849
-0.000145606
0.00014779
-0.000147689
-0.000160558
-9.13588e-05
0.00016291
-7.15515e-05
-9.01828e-05
0.000165514
-7.53315e-05
-0.000180382
4.94426e-05
0.000145035
-0.000146132
1.74721e-06
-0.000146984
0.000145237
-1.68841e-05
0.000162406
-0.000145522
0.000166069
-0.000103774
0.000119852
3.70273e-05
-0.000144397
4.48562e-06
0.000139911
0.000104748
-0.000176367
7.16187e-05
0.000155605
7.47765e-06
-0.000152175
-0.00017929
0.000104211
7.50795e-05
-3.62545e-05
0.000144061
-0.000140331
-0.000152158
-1.69681e-06
-0.000143034
0.000147594
-4.55954e-06
3.56497e-06
-0.000146599
-0.000141276
0.000127558
1.38646e-05
-0.000152019
0.000152173
-1.54561e-07
-0.000149843
-2.17561e-06
0.000111687
-0.000152057
4.03706e-05
-0.000157104
-4.6714e-07
0.000149554
-3.78673e-05
-0.00016501
0.000110343
-0.000154191
0.000149603
4.5881e-06
-0.000154796
6.04802e-07
-0.000149798
0.00014988
-8.23203e-08
-0.000150193
3.94802e-07
-0.000153855
-0.000152225
0.000147303
4.92242e-06
-0.000152897
1.1508e-05
0.000141389
0.000147409
-0.000146279
-0.000121376
1.99478e-07
-0.000152696
5.79602e-06
0.0001469
-0.000143573
-3.91442e-06
0.000147488
0.000118575
3.29281e-06
0.000141994
-0.000145287
-0.000147353
-3.19201e-06
0.000150545
-0.000149403
3.14161e-06
0.000146261
-8.78979e-05
-0.000116156
5.67882e-06
0.000156291
-6.52683e-05
0.000156117
6.54192e-06
0.000143657
2.23441e-06
-0.000145892
1.176e-06
0.000147404
-0.00014858
-0.000140872
0.000154342
-6.44451e-05
0.000151906
-7.19043e-06
-0.000144716
-0.000150865
2.21761e-06
0.000148647
0.000118138
3.74305e-05
-0.000148699
7.39203e-07
0.00014796
0.000141994
2.45281e-06
-0.000144447
-3.66577e-05
0.000158685
-2.80189e-06
-0.000148496
5.10722e-06
0.000143389
9.12244e-06
-3.66241e-06
-0.000144833
-0.00014653
0.000142868
-3.79681e-06
-0.000142733
-0.000154913
0.000154913
0.000150562
-4.92242e-06
-0.00014564
0.000110511
-0.000149117
3.86066e-05
-4.32266e-05
0.000164617
-0.000164058
-0.000153872
0.000151268
2.60401e-06
-0.000148781
2.83921e-06
0.000145942
-8.88555e-05
-9.92044e-05
-0.000144889
0.000124667
0.000149621
-0.000148697
-9.24004e-07
-0.000156116
5.37872e-06
-0.000155199
6.11354e-05
-0.000144783
-5.09042e-06
-0.000155234
0.000150518
5.32562e-06
0.000140062
-0.000145388
-0.000151133
5.59442e-06
0.000145539
0.000169731
-0.000185851
0.000157954
-0.000150327
0.000145421
-0.000152007
-0.000151587
0.000152158
-5.71202e-07
0.000148366
-3.97243e-06
-0.000144394
0.000147437
-0.000154141
0.000150125
0.000158208
-0.000158402
-0.000151422
0.000152039
-6.16562e-07
-0.000149877
-1.54561e-06
-0.000154243
0.000152059
2.18401e-06
-0.000152847
-1.39609e-06
-0.000154215
0.000152069
2.14537e-06
-0.00015286
-1.35409e-06
-0.000154186
0.000152084
2.10169e-06
-0.000152869
-1.31713e-06
0.000174282
-0.000113945
-3.35833e-06
-0.000142145
0.000145504
-0.000154161
0.000152103
2.05801e-06
-0.000167839
9.34974e-05
7.4342e-05
-0.000152882
-1.27848e-06
-0.000154122
0.000152118
2.00425e-06
0.000151301
0.000161213
-0.000141725
-1.94881e-05
0.000118306
1.72705e-05
-0.000135577
-0.000152901
-1.22136e-06
0.000152377
-0.000154078
0.00015213
1.94881e-06
0.000155686
6.72003e-06
-0.000152914
-1.16424e-06
-0.000177286
4.03941e-05
-0.0001433
4.36802e-08
0.000143256
-0.000154035
0.000152133
1.90177e-06
-8.85363e-05
-6.84267e-05
0.000156963
-0.000152921
-1.11384e-06
0.000137258
-0.000141122
3.75417e-06
5.61122e-06
-0.000144598
0.000138987
-0.000153998
0.00015213
1.86817e-06
-0.00014648
-7.56003e-06
-0.000152916
-1.08192e-06
1.37761e-06
-0.000147857
-0.000130034
-1.12536e-05
6.97539e-05
-0.00015829
-0.00015133
-6.3476e-06
0.000132821
-1.45153e-05
-0.000144766
0.000151453
-6.68643e-06
-0.000147757
2.99041e-06
-0.000153966
0.000152116
1.84969e-06
-0.000152902
-1.06344e-06
-6.23282e-06
0.000146614
-0.000140381
1.34401e-07
0.000143607
-0.000143741
-0.00015326
0.000151404
1.85641e-06
-0.000152907
-3.52801e-07
0.000154193
-0.000158524
4.07621e-06
-3.42721e-06
0.000162322
-0.000160558
-0.000153957
0.000152143
1.81441e-06
0.000111368
-0.000151201
3.9833e-05
-0.000152859
-1.09872e-06
4.09922e-06
-0.000144447
0.000140348
0.000125916
1.76065e-05
-0.000153882
0.000152078
1.80433e-06
0.000147552
-8.72278e-06
-0.000138779
-0.000152844
-1.03824e-06
0.00014858
-3.72121e-05
-2.84257e-05
3.49441e-06
-0.000144413
0.000140919
0.000146799
-0.000150797
3.99842e-06
-1.68001e-08
0.000146816
-0.000153875
0.000152081
1.79425e-06
-0.000152827
-1.04832e-06
-0.000154594
0.000132469
2.21257e-05
4.97282e-06
-0.000144665
0.000139693
5.99762e-06
-0.000145808
0.00013981
-0.000153161
0.00015135
1.81105e-06
2.16774e-06
-0.000147678
0.000146261
-0.000152835
-3.25921e-07
-8.33892e-06
0.000149518
-0.000151721
-4.58642e-06
-0.000153121
0.000151323
1.79761e-06
-0.00015281
-3.10801e-07
-0.000148781
0.000149655
-8.73603e-07
-0.000148496
0.000151301
-2.80561e-06
-5.71202e-07
7.29156e-05
-0.000160787
-4.20002e-07
-0.000148076
-0.000143019
0.000144766
0.000149524
-0.000151671
2.14705e-06
-8.39185e-05
-8.48145e-05
0.000149067
-0.000153764
0.000151999
1.76569e-06
9.24004e-07
0.000145489
-0.000146413
-0.000152763
-1.00128e-06
-4.87202e-07
-0.000145892
0.000146379
-5.77922e-06
0.000144917
-0.000139138
2.83921e-06
-0.000145858
-0.000143809
0.000146648
-0.000153741
0.000151982
1.75897e-06
-0.000152745
-9.96244e-07
-0.000147704
1.97065e-06
0.000145734
-0.000143389
-2.58721e-06
0.000145976
-0.000153054
0.000151278
1.77577e-06
-0.000144632
-0.00015275
-3.04081e-07
-0.000154107
0.00015661
-2.50321e-06
-1.96494e-06
-0.00016019
-0.000153692
0.000151945
1.74721e-06
-0.000152701
-9.91204e-07
-0.00014984
2.94001e-06
-4.64434e-06
-0.000153672
0.000151928
1.74385e-06
-0.000152682
-9.89524e-07
-7.20695e-05
-9.28089e-05
8.40003e-08
0.000146278
-0.000146362
-0.000147471
0.000147555
0.000146009
-0.000144598
-0.000153652
0.000151911
1.74049e-06
-0.000147053
1.63129e-06
0.000145421
-0.000152664
-9.87844e-07
2.82466e-06
0.000137492
-0.000141938
-0.000158265
0.000158522
-0.000149378
3.18361e-06
0.000146194
-1.01044e-05
-0.000153633
0.000151893
1.74049e-06
-0.000152645
-9.87844e-07
0.000147323
2.20081e-06
-0.000153613
0.000151876
1.73713e-06
-0.000152622
-9.91204e-07
2.03152e-07
-0.000154353
0.00014037
-0.00015238
0.000154739
-2.35873e-06
-0.000104312
-5.6381e-05
0.000160693
-8.06429e-06
0.000108528
-0.000148042
3.95138e-05
7.57683e-06
-0.000160474
0.000133296
-2.94824e-06
-0.000130323
-4.28738e-05
-0.000144944
6.68557e-06
0.000138322
-7.37523e-06
-0.000146494
-8.77803e-05
-8.29419e-05
0.000170722
-0.000151127
0.000151995
-8.68563e-07
-0.000153223
8.43363e-07
-1.24656e-06
0.000113064
3.8741e-05
0.00014648
-0.000145556
-0.000152308
0.000153195
-8.87043e-07
0.000145993
0.000123296
4.01522e-06
-0.000127311
-1.34401e-07
-3.81361e-05
0.000133544
-1.0248e-05
0.000153879
8.60163e-07
-9.17284e-07
-1.78351e-06
0.000145891
-3.7668e-06
-0.000141988
0.000153939
-2.06641e-06
-2.13257e-06
0.000160352
7.96896e-05
9.4664e-05
-0.000174217
0.000102027
7.21899e-05
-0.000111536
-6.88467e-05
-1.90009e-05
0.00015283
-6.19922e-06
-0.000146026
-0.000156308
-0.000171878
9.36587e-05
-0.00014354
0.000144716
0.000143484
-0.000143605
4.53602e-06
-0.000146396
3.79681e-06
0.000142599
0.000168006
-6.7627e-05
-0.000146698
4.90562e-06
0.000141793
6.79309e-06
-0.000146639
0.000139891
-0.000146967
1.59601e-06
-0.000156101
6.25298e-05
0.000158173
-0.000123632
1.59601e-06
0.000142263
-0.000143859
-1.03656e-05
-0.000142011
0.000152377
9.45172e-05
-0.000161348
6.68307e-05
0.000141641
-0.000147874
0.000151251
-0.000133846
-0.000197149
0.000116542
8.06067e-05
-0.000147286
4.46882e-06
0.000142817
-4.97282e-06
-0.000141423
-0.000173782
8.40003e-05
0.000128554
8.04723e-06
-0.000136601
0.000140482
-1.1928e-05
-7.44243e-06
2.69083e-06
-0.000157417
1.07352e-05
-3.14161e-06
-0.000143557
0.000147805
-0.000147696
-1.092e-07
0.000142246
-0.000147891
4.76954e-05
-0.000152007
0.000144296
5.24162e-06
-0.000155098
0.000151369
3.72961e-06
0.000160488
-0.000164991
-0.000152528
-1.42801e-06
-4.63682e-06
-0.000142649
-8.42275e-05
0.000129377
-4.51531e-05
1.37425e-06
-0.00014692
0.000145546
0.000120708
1.71865e-05
-0.000137895
0.000144758
-0.000144344
0.000105773
-0.000147353
4.15802e-05
0.00013519
-1.44817e-05
-7.79523e-06
-0.000142384
0.000142679
-0.000142478
0.00013892
-0.000149285
0.000144397
-3.86234e-05
-1.27421e-05
-0.000127323
0.000140104
-0.000146396
0.000146917
-8.73603e-05
0.000170521
-8.31603e-05
-0.000152257
0.000153117
-8.60163e-07
-8.53443e-07
0.000141445
-0.000144803
-8.95275e-05
-8.97627e-05
0.00012795
-0.000140692
-1.34397e-05
0.000141647
0.000151318
-0.000108125
-9.0231e-05
0.000162626
-7.23948e-05
0.000146261
-0.000153116
1.2264e-06
0.000157316
-9.59284e-06
-0.000128826
4.46171e-05
-1.92343e-06
0.000139072
6.21602e-07
0.000153721
-0.000158391
7.40883e-06
0.000149302
-0.000156711
-0.000152155
0.000153015
-8.60163e-07
-8.04723e-07
-0.000148504
-1.37257e-06
2.75521e-06
0.000138433
-0.000141188
-0.000152477
0.000123716
1.85809e-05
-0.000152131
0.00015299
-8.58483e-07
-0.000176933
3.70811e-05
0.000145186
-0.000142431
-8.08083e-07
-2.83417e-05
0.000146646
-6.82083e-07
4.00178e-07
-0.000145992
0.000145592
0.000153166
-6.55035e-05
-0.000147715
-6.28322e-07
-0.000141154
0.000138617
0.000135994
-2.73099e-06
0.000146201
6.7497e-06
-0.000145969
0.000139118
-0.000152069
0.000152928
-8.58483e-07
-0.00014312
9.74404e-07
0.000142801
-7.91283e-07
0.000163582
-0.00010794
-0.00014312
-6.72003e-06
0.000142443
-0.000142399
0.000145821
2.85601e-08
0.0001532
-2.78881e-06
0.000102615
-0.000142549
3.99338e-05
4.58616e-06
0.000140948
-0.000145765
-0.000144296
0.00014443
0.000165963
-0.000155672
0.000142683
-4.00682e-05
3.39916e-06
-0.000146419
0.000142961
-5.1813e-06
0.000146869
-0.000141709
8.89452e-06
0.000137326
-0.000146196
-0.00013871
0.000147591
0.000183625
-0.000145371
-3.82537e-05
1.06008e-05
-0.000145337
0.000134737
-0.000154897
0.000155686
-7.89603e-07
0.000145069
-0.000134468
6.57723e-05
0.000117852
0.000147888
4.78298e-07
2.55279e-06
-0.000146536
0.000143987
3.76178e-06
-0.000146163
0.000142373
1.22808e-05
0.000136131
-0.000148412
1.34401e-06
0.000145875
-0.000144296
-0.000156257
0.000136702
-0.000139222
0.000149588
-1.37761e-06
-4.55282e-06
0.000147337
-0.000142649
0.000151144
-0.000149816
0.000148916
-0.000154393
1.91521e-06
2.35201e-07
0.000151906
-3.52801e-07
2.58553e-06
-0.000144731
0.000140381
-0.000142969
-3.62882e-06
0.000126933
-0.000140074
-0.000145976
0.000139155
0.000110796
3.87578e-05
-0.00014989
0.000148899
9.91204e-07
0.000152261
-0.000151317
-9.44164e-07
0.000151866
3.94802e-07
-3.83209e-05
0.00014821
-2.80561e-06
0.000152234
-0.000151275
-9.59284e-07
-0.000152224
0.000151731
4.92242e-07
0.000151831
4.03202e-07
1.33225e-05
0.000140566
-0.000153889
-0.00012842
0.000141742
1.54897e-05
-0.000143909
-0.000141809
0.000135728
-0.000151243
-9.81124e-07
-5.32562e-06
0.000116156
-0.000134081
1.79257e-05
-7.72072e-07
0.000154911
0.000144481
-0.000142647
0.000145965
0.000122758
-6.60243e-06
-0.000147858
-0.00010532
0.000133964
-2.86441e-05
0.000158744
-1.11552e-05
0.000145976
-0.000133695
0.000101103
-0.000141238
4.01354e-05
0.000141524
-4.0421e-05
0.000123228
-0.000127916
0.000163425
-9.09928e-06
3.49105e-06
-0.00014122
0.000145054
-7.47603e-06
-0.00014401
0.000138365
-0.000145841
3.75291e-06
-0.000144876
-0.000148471
-1.72201e-06
1.13232e-06
0.000146409
-0.000140392
0.00014162
6.40082e-06
0.000136635
-0.000143036
0.000142532
2.50321e-06
-0.000146312
-0.000132984
-8.40323e-06
-4.40162e-06
-0.000147185
-0.000151689
2.31169e-06
9.24004e-07
0.000144632
-0.000145556
-0.000148094
-5.12906e-06
0.000156123
-0.000156123
5.1005e-06
-9.01828e-05
-0.000106966
-0.00014843
-1.41289e-06
-0.000166545
-8.36643e-07
-7.39875e-05
-0.000100229
7.03528e-06
-0.000157037
-0.000138041
-0.000151839
-2.75521e-06
0.000124958
-0.000139995
1.54011e-05
-0.000128134
-1.3087e-05
0.000141058
0.000128467
1.22574e-05
-0.000140453
-0.000155659
0.000155777
-0.000147267
0.000146852
-1.09026e-06
1.70857e-05
-0.000122405
-0.000143484
1.56974e-05
-0.000149314
-3.60193e-06
-0.000149274
-3.64729e-06
-0.000149213
-3.70105e-06
-0.000149329
-3.57337e-06
2.81905e-06
-0.000154544
1.79761e-06
-0.000157338
7.56406e-05
2.85601e-06
-0.000149143
-3.75817e-06
2.80057e-06
0.000147809
2.90473e-06
0.000148266
-0.000148603
3.37681e-07
-0.000149327
-3.58009e-06
2.96017e-06
-0.000182331
0.000102128
8.02035e-05
-0.00014907
-3.81193e-06
2.78881e-06
3.01393e-06
-0.000146497
0.000150579
-4.08242e-06
-0.000149324
-3.53473e-06
0.000154681
-0.000166447
1.17172e-05
-0.000149013
-3.85562e-06
3.05593e-06
3.79345e-06
-0.000148963
-3.89762e-06
0.000149175
-0.000151611
2.43601e-06
-0.000149319
-3.52465e-06
3.09625e-06
-5.96402e-06
-0.000148911
-3.93626e-06
2.82409e-06
-0.000152998
-1.1088e-06
-0.000149314
-3.51289e-06
3.12817e-06
-0.000164792
7.74315e-05
0.000137441
-0.000143876
9.76588e-05
-0.000139693
4.20338e-05
2.76361e-06
3.15841e-06
0.000149605
-2.87281e-06
-0.000147101
-4.70402e-07
-0.000149306
-3.52969e-06
0.00014102
-0.000144817
3.84721e-06
-0.000146967
4.20002e-06
-1.51201e-06
2.77537e-06
-4.8065e-05
1.20784e-05
0.000127677
-0.000140503
-0.000149294
-3.51625e-06
2.21761e-06
-0.000144676
-2.14954e-06
0.000147109
3.72121e-06
-0.00014928
-3.48265e-06
3.70945e-06
0.000170472
-0.000149269
-3.47593e-06
2.73001e-06
-0.000149257
-3.49273e-06
1.73041e-06
-0.000150428
1.31713e-05
-0.000140902
2.72497e-06
7.15683e-06
-0.000144716
0.000137559
-0.000149238
-3.46249e-06
0.000162053
-8.40003e-07
-0.000137391
0.000144548
-0.000148748
-1.1424e-06
3.68929e-06
-1.25834e-06
-0.000146981
0.000147654
-0.000127581
-1.16135e-05
0.00013912
-0.000149223
-3.45913e-06
2.72161e-06
-0.000149208
-3.45577e-06
0.000122859
1.83121e-05
2.71993e-06
-0.000125776
-1.40371e-05
0.000139788
-0.000149191
-3.45409e-06
0.000147958
0.000148887
-1.08192e-06
-2.83417e-05
2.71993e-06
-1.76523e-06
-0.000156839
-0.000155162
0.00015572
-1.32049e-06
-0.000149171
-3.45073e-06
-0.000150618
0.000152062
-1.44481e-06
-0.000151446
8.28243e-07
2.02945e-05
-0.000138937
0.000118642
2.72161e-06
-0.000149151
-2.52001e-06
2.72497e-06
-7.23747e-05
-9.86836e-05
0.000171058
-1.07281e-05
-0.000128784
0.000139085
0.000131743
-0.000139915
8.26007e-06
-0.000152864
3.36001e-07
0.000127927
-0.000138942
-6.55203e-06
0.000145808
-0.000139256
1.03319e-05
-0.000139622
-1.03582e-05
0.000138356
1.04793e-05
0.000129483
-0.000139709
-9.2014e-05
0.000178165
-0.000147844
-0.000146438
0.000152154
-3.16467e-06
5.44322e-06
0.000142935
2.68801e-07
0.000146161
-0.000146429
-3.36001e-07