/*--------------------------------*- C++ -*----------------------------------*\
  =========                 |
  \\      /  F ield         | OpenFOAM: The Open Source CFD Toolbox
   \\    /   O peration     | Website:  https://openfoam.org
    \\  /    A nd           | Version:  12
     \\/     M anipulation  |
\*---------------------------------------------------------------------------*/
FoamFile
{
    format      ascii;
    class       volScalarField;
    location    "1.5";
    object      p;
}
// * * * * * * * * * * * * * * * * * * * * * * * * * * * * * * * * * * * * * //

dimensions      [1 -1 -2 0 0 0 0];

internalField   nonuniform List<scalar> 
46253
(
0.962765
1
1
1
1
1
0.918304
1.03408
1
1
0.964245
0.800098
1
1
1
1
1
1
1
1
1
1
1
0.940445
0.918613
1
1
1
1
1.03454
1.07468
1
1
1
1
1
1
1
1.01951
1
0.907944
0.800345
1
1
0.767544
1
1
1
1
1
1
1
1
1.07486
1
0.852043
1
1
1.21458
0.904492
1
1.06565
1
1
1
1
1
1
0.854103
0.771387
0.918919
1
1
1.08241
1
0.939262
1
1
1
1
1
1
1
1
0.912768
1
1.00006
1.00045
0.970283
1
1
0.906291
1
1
1
1
1
1
1.21245
1
1
1
1
1.07057
1
0.913555
0.806158
1.10558
1.1434
0.824478
1.02887
1
1
1
1
0.981468
0.776308
0.898542
1.42365
0.864572
1
1
1
1
1
1.44106
1
0.837217
1.00007
1
1.1795
1.17946
1
0.920748
1
1
0.999999
0.99998
0.86277
1
1
1.17197
1.17064
1.05933
1
1.00001
1.00011
1.00033
1.01975
1
0.82241
1
1
1
1.02061
0.771942
0.838094
1
0.9958
1
1.00062
0.81051
0.849375
1
0.918031
0.999974
0.921095
0.99997
1.68481
1
1.07695
1.09969
1
0.912283
1
0.764288
1.12352
1
1.13804
0.777805
1
1.01823
1.09266
1.08965
1
0.996009
0.996578
0.76555
1
1
1
1
1.06131
1
1
1
1.02435
1
1.11832
1.11728
1
1
1.05006
1.04148
1
0.774196
1.01402
1.18898
1.19047
1
1
1.42682
0.911305
1
1.13003
1
1.05434
0.912872
1.18142
1
1
1.17969
0.762224
1.0945
1.09302
0.913687
1
1
1.10177
1.10057
1.15295
1
1
1
1
1
1
1
1.14935
1.17297
1
1
1
1
1
1
1
1.01295
1
1.17409
1.17384
1.1691
1.08528
1
1.08393
1.16209
1.17911
0.871258
0.910967
1
0.925081
0.898278
0.81435
1.06284
0.899128
1
1
1
1.18423
1.16528
1.18191
1
1
1
1.16435
1
0.999964
1
1.08297
0.888834
1.06762
1.06662
1
1
1
1.08928
1.07357
0.863474
1.04558
1
1.20291
1.20092
0.910331
1
1.19255
1.11422
1
1.11104
0.912329
1.16089
1.41561
1.15971
0.841412
1.4081
1
1.17905
1.17757
1
1.06142
1
1
1.1899
1
1.15391
1
1.15214
0.85525
1.19001
1
1.08871
0.843119
1
0.918859
0.919219
1.07051
1.04067
1
1
1.14856
1.14743
1.03701
1.03652
1
1
1
1.08133
0.866933
1.16943
1.16917
1
1
1
1
1.39866
1
1.14161
1.14009
1
0.863145
1
1.06026
1
0.773873
1
0.814003
1
1.16197
1
1.16189
1
0.811062
1
1
1
1
1
1
1
1.13511
1
1
1
1
1.13393
1
1.18289
0.860074
1
1
1
0.91502
1.08041
0.841997
1.15764
1.07477
1.15721
1
1
1.12858
1.50403
1
1.04759
1.12721
1.05229
1
1.05693
0.999494
1.00009
1
1.01713
1
1.00216
1.00156
1.17996
1
1
1
1
1
1
1
1
1.37849
1
1.0203
1
1.07615
1
1
0.874027
1
1
1.12194
1
1.15012
1
1
1.12051
1.15011
1
1.16391
1
1
1
1
0.985432
1.04657
1
1
1.06646
0.845587
1
1.04652
1
0.989919
1.02552
1
1
0.860086
1
0.891897
1.02201
1
1.07223
1
0.999557
1.04801
1
1.14433
0.980411
1
0.980118
0.980425
1.14381
1
0.980436
1
1
1
1
1
1.03031
1
1.04974
0.842267
1.11165
0.879144
1.00879
1.11051
0.955084
0.980412
0.979896
1
1
1
1
0.999928
1
0.895472
0.913392
0.788059
0.897506
0.984856
0.977312
0.986515
1
1
1.13762
1.01508
0.814885
1.1373
1.1055
1.10475
0.971727
0.910234
1
0.970793
1.06786
1
1
1
0.904175
1
1.07871
1.07162
1
1
0.998505
1
1
1.0731
0.749772
1.01936
1
1
1.01977
1
1.01803
1.03072
1.01857
1
1.02029
1.04392
1
0.98068
1.01791
1
1
1.13133
1
0.929259
0.877059
1
1
1.13097
1
1
1
1
0.784557
1
1
1.09538
0.879385
1.09416
0.90066
1
1
1
1
1
1
1
0.984817
0.790152
1
1
1
1
1
1
0.925184
1.05204
1
1.03734
1
1
0.839856
1
1
1
1.12453
1
1
1.12396
1.03311
1.10577
1
1.10929
1.11038
1.11361
1.06049
1
1.08815
1.0874
1.04621
1.00129
1
1
1.06531
1
1.42286
1.16973
1
1.41303
0.999998
1
1.06041
1.0691
1
1
0.970737
0.98663
1
1
0.988799
1
1
1
1
0.999991
0.999997
0.991024
0.99524
0.762148
0.988801
1.21774
1.07112
1.22404
1.19442
1
0.923324
0.945898
1.19604
1
1.18212
1
1.18404
1
0.99558
1.17218
1
1.17421
1.3122
1
1.16245
1
1.16407
1
0.787145
1
0.882437
0.945267
1
1
1.15337
1.15464
1
1.01415
1.14356
1.14509
0.987689
1
1
1.12922
1.0778
1.13084
1
1.11501
1.12098
0.854332
1.12195
1.07702
1.11439
1
1
1
1.11067
1.11263
1.10087
1
1
1.10233
0.900986
1.10297
0.846197
1
1.08902
1.08965
1
1
1
1.05986
1
1.01888
1.01457
1.07876
1
1.07667
1
1.07718
1
1
1.02022
1.0217
1.06783
1.06862
0.980827
1.02805
1.06056
1.02927
1.06094
1
1.00121
1.04922
1.04972
1
0.865656
1.04123
1.04248
1.54273
1
1
1
1.03571
0.983964
1.03586
0.760851
1.0202
0.979976
0.820583
1.02694
1.02762
1.0149
1.02187
1.02261
0.865085
0.856699
1
1.03703
1.45982
1.07166
1
0.823539
1.07036
0.855272
1.00197
0.929234
1
1
1
1.10839
1
1
1
1
1
1.10774
1
1
1
0.877451
0.875046
1
0.995772
0.762356
0.956612
1
1
1
1
1
1.08316
1
0.988938
1
1.1009
1.108
1.10424
0.863374
1
1.0363
0.908034
1.11385
1
1
1
1
1
1.10709
1.10347
1.09589
0.930343
0.929184
1
0.884478
1
1
1.10694
1.01162
1
1.02911
0.999996
1
0.999143
1.00633
1
1.10979
0.837348
0.977979
1
0.984547
1.06118
1
1
0.982681
0.997075
1
1.06054
0.757533
1
1
1.13933
1.14055
0.987388
1
0.759366
0.760394
0.911367
1.08734
1
1.01522
1.06499
0.841228
1.30298
1
1
1
1.09837
1.09926
1
0.999995
1
1.09856
1.08428
1
1
1.08597
1.09816
0.983588
0.981824
1
0.98542
1.01897
0.823771
0.986602
0.841817
1.05689
1
1
1.05782
1
1
0.993884
0.98861
1
1.05433
0.878925
1.01291
0.861541
0.864394
1.05376
0.873374
0.86495
0.840107
0.837003
1
1
1.07519
1
1
0.987797
0.893595
0.879305
1
1
1.02036
1
1.01877
1.02174
1.00001
0.999298
1.04637
1
1
1
1
0.990633
1.02647
1.03432
0.762709
1
1.09103
1
0.99845
0.998966
1.09043
1
0.993568
0.986052
0.991259
1
1
1
1
0.984885
1.01765
1
0.98323
1
0.870422
1
0.867901
0.953638
0.919122
1
1.04729
1.04561
0.950496
1.36335
1
0.878416
0.979767
0.978752
0.882902
1
1
0.978244
0.756488
1
1
1.02322
0.779896
0.997142
0.980183
1
1
1
1
1
1
1.51049
1
0.957042
0.856485
0.861345
1.09642
0.764156
0.748736
0.766675
0.870798
1.02943
0.953717
0.756152
1.1672
1.17831
1.18898
1.15735
1.16895
1
1.12503
1.17961
1.19564
1.15916
0.982086
1.19126
1.12839
1.14854
1.19584
1
1.14475
1.1505
1.1167
1
1.13419
1.2114
1.00042
1.00017
1.13611
1
1.08964
1.125
1
1
1
1.12621
1
1.1165
1
1
1
1.04054
1.11782
1
1
1
1.10619
1.1146
1
1
1
1.1072
1.03968
0.773523
1.09293
1
0.939067
1.09447
1.07933
1.08036
0.853435
1.07172
1.07315
1.06407
1
0.942018
1.06538
1
1.05266
0.923794
1
1
1.05397
0.890822
0.780114
1.04618
1.04691
1.03819
1.08099
1.03852
0.75596
1.03145
1
1.00832
1.08015
1.03296
0.990366
0.971366
0.987135
1.02516
1.00362
1.00419
0.919268
1.02471
1.01722
1.01842
0.956614
0.792056
0.758057
1
0.79292
1
0.792391
0.788464
0.770456
1
1.43899
1.05847
1
1.03267
1.03113
1.04555
1.05267
1
0.975715
1.11245
1.12272
1.0906
0.993832
1.10866
1.11409
1.10966
1.10465
1.07286
0.862476
1.01988
0.985788
1
0.948637
0.889235
0.853329
0.976131
1
1.16264
1.10444
0.799699
1
1.03023
0.909361
0.954326
1.02922
1
1
1
0.911742
0.976608
1.03815
1.10641
0.988303
0.993951
0.827465
1.07479
0.957147
1.07401
1.00667
0.914665
0.806832
0.87183
0.803051
0.941936
1.11898
1.01245
1
1.11792
1.1949
0.915127
0.969461
1
1
1
1.00998
0.999987
1
1
0.768545
0.973009
0.839763
1
0.913793
1
1.00672
0.918166
1
1
0.750321
0.848542
1.15184
0.856341
1.0309
1.03208
1
1.12523
1.0194
1
1.02175
1
0.985527
1.02542
1.03279
0.887241
1
1
0.946192
1.02951
1.0008
0.984179
1.01979
1.02081
1
1.02516
1.00088
0.981316
0.982719
0.837904
0.98894
1
0.92241
0.873325
0.996614
0.824877
0.996688
1.1061
1
1
1
0.890983
0.986683
1
0.98525
0.987646
1.05447
0.998073
0.880902
0.98534
0.746828
0.918898
1.156
1
1
0.928335
1.17305
1
1
1
0.983551
1
0.983999
0.780963
0.902168
1.03081
1
1
1.02971
1
1.02099
0.992255
1.25289
0.999209
1
1.09744
1.25861
0.993792
1.02711
1.15204
1
0.910376
1.22557
1.18926
0.93067
1
1.14315
1.22877
1.20589
1
1.0098
0.758156
1
1
0.879318
1.20927
1
1.16775
1.06508
1
1
0.914271
1.18553
1.01675
1.03947
1.20785
1.06461
0.836974
1
1.18209
1.18861
1.05113
1.01584
1
1.09183
1.06387
1.08035
1.10611
1
1.16522
1
1
1
1.16502
1
1
0.899107
0.874718
1
0.903156
1.16809
1.0259
0.990064
1
0.904242
1
1.02484
1
1
1
1
1
0.900156
1
1
1
1
1
1
1.07365
0.771766
1
0.970219
1
1
1
1.03203
0.886965
0.800991
1
0.797143
1.06055
1
1
1
1.09055
1
1.11283
1
1.20207
0.863373
0.831704
1
1
1
1
1
1
1.24879
1.2351
1.01691
1.19776
1
1
1
1
0.875496
1
1
1
1.09962
1
0.999999
1
0.994587
1.00256
0.876784
1.14993
0.8733
0.981662
1
0.999999
1.01883
1.01808
1.10324
1.10835
0.822664
1.10941
1.10095
0.981162
1.10517
1.10608
1.01294
1.14008
1.00088
1.06381
1.10486
1.10468
1.00472
1.0007
1.10631
1.01263
1.11013
1
1.02274
1.10901
1.01327
1.10347
0.87342
1.02683
1.10793
1.12283
1.05687
1.12875
0.843808
1.12904
0.890055
1
1.01024
0.848254
1.05614
1.02322
1.12284
1.1107
1.04221
1
1.02541
1.17931
1
1
0.763039
1
1
1.0396
0.886595
1
1.11531
1.10941
1.11596
1
0.857463
1.08357
1.10763
1.10687
1.07703
1.10994
1.04567
1.01827
1.15134
0.876687
1.16255
1.1039
1.13386
1.10453
1.09704
1
0.882844
1
0.938218
1
0.764322
1.14494
1.09744
1.1098
1.04129
1.11235
1.01779
1.0829
1.09968
1.05989
0.880484
1.15974
1
1.09001
1.09037
1
1
1
1
1
1
1
0.905443
1
1.00414
0.763412
0.85649
1.1766
0.767146
0.855301
1.08352
0.840994
1
0.77229
1.00341
0.902669
1
1.09251
1.04956
1
1
1.21363
0.76482
0.874815
0.871291
1.08426
1
1
0.747273
0.966226
0.98091
1.14883
0.753105
1
1
1
1.10587
1
1.07887
1.07901
1.03155
0.763827
1.0704
1.07389
1
1.01776
1.07475
1.10459
1.0107
1
1.21066
1
1
1.06146
1.07034
1.04246
1.19266
0.765053
1.20456
1.21611
1.14522
1
1
1.0951
1.05482
1
1.05111
1
0.802149
1
1
1.05771
0.777345
1
1.06272
1.06592
1.06251
1
1
1.04986
1.15961
0.783947
0.861448
0.784308
1.01616
0.984998
0.998995
0.77067
1.01602
0.953875
1.02489
1
1.05933
0.768094
0.783904
1.01908
1.13574
1.05051
0.893792
1
1
1.02453
1.02291
0.920713
1
1.04568
0.94432
1.05249
1.03318
1.05326
1.00702
1.03157
1.00001
0.767594
1.00001
0.756425
1.00452
1.04557
1.01462
1.09512
0.759663
0.893324
1.10335
1
0.896513
1.04387
0.845245
1.23118
0.876791
1.0993
1.04344
1.23024
0.780715
1.05435
1.01176
1
1.04193
1.03717
1.15363
1.17696
1
1.02924
1
1.03334
0.887842
1.01495
0.823437
0.787754
1
0.787083
0.828195
1.0829
1
0.768698
1.03249
1.08249
1.11961
1.03859
0.772246
0.894325
1.01061
1.08572
1.12022
0.790666
1.09328
1.09674
1
1.09706
1
0.985321
1.21322
1.09445
0.84751
1.18611
1.08156
1
0.79072
1.10157
1.01796
1
0.815337
1.10175
1.13109
1.24869
1.0445
1
1.07994
0.996136
1.0843
1
1.09449
1.0852
1
1.12954
1.09502
1.03192
1.21546
1.08778
1.08247
0.916145
1
1
1.08843
0.80292
1
0.808979
1.00011
1.13104
1.13926
0.813941
1.04249
0.890287
1
0.830149
1.27675
1
1
1.15431
1.26974
0.811104
0.996719
1.07098
0.810058
0.807074
1.08593
0.910949
1.07202
1.06576
1.08374
1.18594
1.04544
1.0646
1.03171
0.994268
1.07131
1.06652
1.09738
0.974501
0.806438
1
1.09349
1.27976
1.05814
1.1595
1.27666
0.866657
1
1.06074
1.0428
1.01172
0.88807
1
1
1.03372
1.03156
0.881886
1.02205
1
1
1.02023
1.09448
1.04346
1
1
1.09535
1.04556
1.0487
1.23854
1.01787
0.839236
1.01211
1.04301
1
0.836143
1.04288
0.885348
0.821871
1.06543
1.10478
1.34987
1.06798
0.989683
1.0611
0.933129
1.06052
1.06884
0.928224
1.05823
1.08819
1
1.01344
1
1
0.93254
0.92168
0.946253
0.927005
1.24505
1.01794
1
1
0.942217
1.05456
0.820081
0.888194
1.02171
0.819411
1.06301
1.09527
1.05503
0.824112
0.8044
1.01951
1.28491
0.854098
1
0.970404
1.04965
0.823435
1.29612
1.02652
0.98686
1
1
0.984659
0.962782
0.99706
1
1
0.959539
1
1.04432
0.879551
0.834619
0.885897
1.02266
1.04561
1.00045
1
0.836649
0.889321
1
0.840469
0.831557
1.00189
0.988421
1.01573
1
1
1.0867
0.978513
1.05533
0.860294
0.856452
1.27699
0.88796
1
1
1.09872
1
1
1.10109
0.978112
1.04036
1.0957
1
0.787925
1.09668
0.906892
1
0.900508
1.1794
0.996129
1
1
1
0.877685
0.980824
1.08188
0.903804
1
1
0.811703
0.89484
0.853757
0.881681
1.09283
1.08478
0.894004
1
0.997138
1
1.09151
1
1
1
0.921331
1
1.09585
1
1
1
1
1
1
1
1
1
1
0.999889
1
1.04138
1.00003
1
0.991943
1.07922
1.12226
1
1
0.989354
0.846609
0.909493
1.09382
0.99989
0.994606
0.988739
1.04852
1.02307
1
1
1
1
1.01031
1.07536
1.12508
1.08604
1.01309
0.906781
1.07618
0.989045
0.897367
0.974182
1.11183
0.811297
1.12463
0.991242
1.12487
0.994295
1
1
0.78505
1.09855
1
1
1.05418
0.772187
0.921319
0.97721
0.93293
1.11795
1
0.883196
1
1.007
1.09679
0.986884
1.04136
0.877485
0.918767
0.983073
1.11264
1.00824
1.11819
0.99829
1
1.03922
1.01233
0.881934
1.09936
1.21455
1.0033
1
1
1.10209
1.10655
1.04472
1.08547
1.27692
1.0092
0.838709
1.01756
1
1.04355
1.05618
1
1.10708
0.950679
0.834917
1.09964
1.0598
1.01439
1.01906
1.09197
1.01697
1.03021
1
1.03731
1.03194
1.09259
1.00627
1
1.04094
1.0317
1.02362
1.02011
1.08604
1.02681
1.02549
1
1.09237
1
1.02645
0.806043
1
1
1.26995
1.10146
1.14821
0.809195
1
1
1.07166
1.04172
1.0194
0.807728
1
0.98141
1
1.016
1.24521
1.09587
1.10073
0.929671
0.971361
1
1.07673
1.03351
1.06781
0.91935
1.01503
1.08421
1.02669
0.965545
1
1.0807
0.98492
1.10047
1
1.07714
1.07203
1
1.02675
0.885803
0.979586
1.05231
1.08118
0.790993
0.999871
1.09345
1.0615
1
1.06417
0.99464
1.04376
1.3969
1.0411
1
1
1
0.974676
1.0257
1.06522
1.02037
1.06178
1.11161
1
1
1.27746
1.13027
1.04765
0.897268
1
1.04916
1
1.0671
1.0341
1.00729
1.05481
1.25895
1.0444
0.993328
1.096
1.05366
1.04903
1.0129
1
0.966768
0.789549
1.02328
1
1.08248
0.992228
1
1
1.01664
1
1
0.960324
0.876099
1.06307
1.04023
1.13387
1
1.00004
1
1.00319
1
0.910235
0.974982
0.900786
1.04205
0.826254
0.795272
1.05107
0.874729
1
0.847014
0.921087
1.09874
0.885125
1.09667
1
1.07838
1
1.10508
1.10026
1
1
1.03547
1
1.05283
1
1.0732
1.0998
1.0955
1.05062
1.03331
0.999999
0.867502
1
1.15916
1.09571
0.991971
1.0158
0.999999
1.00002
1.09645
1.08447
1
1.05919
1.08876
0.988679
1.01579
1.08745
0.984897
0.834041
0.999991
0.978403
1.08158
1.08587
1.09061
1.09519
0.938395
1.08326
0.95958
1
0.999981
1.02426
1.03462
0.9334
1.01039
0.986462
1.00123
0.983064
0.878133
1.04065
1.01957
0.890308
1
1.09067
1.05433
0.933544
1.07116
0.945987
1.00049
1
1.07362
1.06645
1
1
1
1
1.00056
1.16958
1.06461
1
0.930309
1
1.07392
1.03381
1.08211
1.08364
1.06785
1.03226
1.03628
1.06846
0.919997
1
1
0.960409
1.12007
1
1
1.02183
1.09329
1.06522
0.992597
1.0032
1.09181
1
1.06419
1.12747
1.05795
1.10221
1.11099
1.00347
1
1.05581
0.908686
1
0.992824
0.959686
1.10556
1.09235
1.10732
1.05556
0.903713
1.10358
1.19272
1.10315
1.12684
1.11446
1
1.09487
1.0908
1.12316
1.02742
1
1
1.0994
1.04309
0.904803
0.808843
1.09688
1
1.10603
0.994336
1.14393
0.890907
1.04298
1.13493
1.13915
1.01258
0.804244
1.10735
1.1296
0.891629
1.03428
1.02791
0.878379
1.20482
1.0303
0.883724
1.02806
1
0.972746
1.0226
0.991285
0.931241
1.01458
1.15285
1.29184
0.891261
0.995908
1.07468
0.998233
0.886552
1.05357
0.899912
1.14983
1.01321
1.00215
1.06963
0.994119
1.07881
1.09976
1.06862
1.01597
1.14666
1.00077
1.05821
0.996993
0.865377
0.879566
1.08786
0.883012
1.09521
1
1.00136
1
0.902662
1.09637
1
1
0.901876
1.00005
1
1.02145
1.06522
1.29348
0.983401
1
0.8104
1
0.969778
0.883352
1.08922
0.9001
0.993519
1.09086
0.992913
1.01493
1.02303
1
0.914023
1
1.08692
1.07025
1
0.972257
0.982463
1.15407
1.08693
1.15509
1
0.978429
0.801653
1.08135
1
1.16977
1.02918
0.964224
1.0833
0.982103
1.0326
1
0.968498
1
0.884531
1.27626
0.992151
0.810214
1
1.08514
0.837252
0.989543
0.796274
1.03423
1.07832
1.08707
1.02246
1
0.985297
0.991252
1
1.17004
1
1.14891
1.09649
1.08912
1.166
1
1
1.12647
1.02781
0.888814
1.17813
1
1
1.17333
1.15315
1.18667
0.788467
1.1822
1.1576
1
0.936793
1.01756
1.01446
1.15164
1.02633
0.945909
0.94223
1.2052
1.14929
1.16337
1.09794
1
1
1
0.888053
1.14435
1
1.04298
0.918528
1.19006
1.05626
1.01631
1.07
0.912618
1.1449
1.08424
1.04092
1.0471
0.775127
1.04881
1.0315
1
1.03972
1.03719
0.990217
1.03347
1.10576
1.09934
1.19444
1.04783
1.2117
1.20713
1
0.91072
0.781097
1.13921
1
1
1.05602
1
1.20306
0.847269
1.13941
1.07796
1
1.04504
1.02832
1.05392
1.05527
1.05512
1.03107
1.13342
1.01817
1.01775
1.19864
1
0.926091
1.01575
1.05132
1.05275
1.13455
1
0.956636
0.840464
1.01287
1.21624
1.04192
1.09695
1.22114
1.01639
1
0.994632
1.01708
1.0943
1.50316
1.06869
1.30016
1.12801
1.08272
0.895543
1.15649
1
1
1.09652
1.01101
1.12991
1.07466
1.01141
1.0089
1.08439
1.10517
1.01758
1
0.753735
1
0.804445
1.00858
1.12239
1.12335
0.917044
1
1
1.22503
1.1022
1
1
1.01877
0.913181
1.08912
1.2364
1.01451
0.991012
1.11242
1.01781
1.10231
0.891396
1
0.992968
1.11446
0.924111
0.892218
0.832129
1.01793
1.01913
1
1.03431
1
1
1.26763
0.893043
0.955731
1.09458
1.10631
1.27934
0.895917
1
1
1.1072
1.24372
0.99598
0.870517
1.02851
1
1.09416
1.01052
1.02666
1
1
1
1
1.03067
1
1.02699
1.09527
0.993816
1.03411
1.09676
1
1.02893
1
1
1
1.03576
1.0893
1.09148
1
1.08116
1.0339
0.876083
1
1
0.855659
1.02693
1
0.887028
1.04129
1
1
1
1
1
1.07911
1
0.939325
1.03924
1
1.13211
1.01284
1
1.08194
0.794724
1
0.880366
1.09402
1
1
1.13004
1.14759
1
1
1
0.857337
0.860699
0.937072
1.04671
0.784416
1.13059
1
1
0.883868
1.1306
1
0.863615
1.04494
1
0.951006
1
1.05814
1
0.947202
1
0.847001
1
1
0.975607
0.797049
1.1293
1
1
1.05656
1
0.925158
0.89856
1.05574
0.806779
1
0.791794
1
0.826545
0.899539
0.994652
0.91608
1
1.02413
1.05423
0.95857
0.962091
0.974573
1
1.00397
0.954464
1
1
0.870136
0.855197
1.07807
0.780791
1.0629
1
1
1
1.06074
1.29831
0.896829
1.06856
1
1.01469
0.968558
0.893283
0.892599
1.15242
1
1.096
1.06697
0.96638
1.04568
1.02619
0.848017
0.965941
0.999918
0.895075
0.856968
1
1.1181
1
1
0.822874
1.07487
1
0.991741
1
1
0.966125
1.07152
1
0.99854
1
1.0763
1.12009
1
0.729424
1
1.07321
1
0.997404
0.829503
1
0.999948
0.909299
1.0743
1
0.806938
1
0.767897
0.980373
1.0001
1.07931
0.976169
0.791415
1.08155
1.10288
0.88507
1.17989
1.11348
0.998058
0.992388
1.07766
1.07994
0.813515
1.10441
1.09923
0.888321
1
1.13707
1
1.27667
0.919578
1.08646
1.08747
0.790072
1.03559
1.02965
1
1.00966
1.09053
1.02667
0.953571
0.906267
1.1133
0.995796
0.922102
1
1.08571
1.08527
1
1
1
1.08444
0.925859
1.06907
1.08706
1.00366
1
1.09276
1.10655
1.05289
1.09161
1.07534
1
1.2766
0.81065
1.09112
1.09846
1.07668
1.05015
1
1
0.907584
1.08972
0.909538
1.10612
1.09299
1.02186
1.02448
1.02029
1.33973
1.09955
1.02464
0.83927
1
1.0404
1.09945
1.06473
1
1.10107
1
1.17806
1.03793
0.901776
1.19867
1.08749
1.03899
0.918253
1.0389
1.06044
1.15751
1
1.05309
1.01389
0.979613
1.03918
1.09939
1
1.0935
1.09723
1.08472
1.01188
0.922531
1
1.21987
1.05858
1.31332
1
1.14485
0.89163
1.04779
1.18135
0.913541
1.08797
1.07964
0.99232
1.16043
1.202
0.995811
1.10441
1.12417
1
1.08107
1.06752
1.08539
1.12864
1.13572
0.854786
1.23672
1.10871
1.22252
1.08357
1.01273
1.11167
1
1.10243
1.08075
1.06516
1.16099
1
1.10722
0.917458
1
1.32193
1.08249
1.14961
1.07391
1
1.23806
0.930132
1
1.15422
1.11356
1.14696
1
1
1.07175
1.15046
1
1.11231
1
1.14173
1.10975
0.896655
1
1.14821
1
1.13685
0.818819
1
1.02103
1.11851
1.14252
1.13181
1
1
1
1.08238
1.11756
0.931125
1.13789
1.04409
1.12451
1.12066
0.852629
1.02076
1.14369
1
1
1.07433
1.07177
1.03195
1
1.08049
1.14655
1
1.13203
0.944896
0.971495
0.945862
1.1223
0.999997
1.11605
1.11811
1.09153
0.926947
1.12564
1.02441
1.05327
0.873741
1.01042
1.09048
1
1.31284
1.12135
0.921621
1.10887
1.21161
1.0535
1.01816
0.915487
0.891909
1
1.11653
1.12679
1.05508
1.08827
1.12393
1
1.05786
1.09917
1.05554
1.12563
1.11023
1
1
1.1255
1.0931
1.05262
1
0.82354
1
1
1.05419
1.12559
1
1.1009
1.18798
1.0725
1
0.906608
1.05988
1.13327
1.08376
1
1.09401
1.01662
0.918032
1.10074
1.1756
1.00383
1.09902
1
1.12733
1.0661
0.861852
1
1
1.07364
0.928853
1.08473
1
1.09726
1.13056
1.12657
1
1.06702
1.06425
1
1.05629
1.07431
1.06382
0.896631
1.01551
1
0.909889
1
1.14045
1.02066
1
1
1.06439
1.03724
1.07472
1.04815
0.804413
1
1
0.90984
0.912818
1.1097
1.00922
1
0.958435
1.13978
1.08789
0.994608
1
1.10813
1
1.06724
1
1
1.03071
1
1.1472
0.965498
1
0.737512
1.11713
1.07131
0.851544
1
1.02175
1
1.09367
1.12445
1
1.14542
1
1
1.04554
1.11477
0.916337
1.10042
1
1.08536
1.09528
1.39597
1.17484
0.812508
1
0.912291
0.813945
1.00001
0.914129
1
1
0.908441
1.06446
1
0.770995
1.06358
1.12445
1.0683
1.15288
0.809045
0.999876
0.950157
0.984224
1.00443
1.03659
1.03811
1.0222
1.1219
1.00131
0.914884
0.923862
0.999997
1
1.15915
0.981487
1
1
0.900221
1
1
1.05594
1.02972
1
1.13233
0.999999
1.05325
0.913719
0.850595
1
0.999535
1.05325
1.27187
0.787294
1.1299
1.05476
1.05693
0.919683
1.06443
0.824118
0.804607
0.804053
1.01974
0.802386
0.999111
1.14862
1
1.0828
1
0.819895
0.88787
1.22489
1.2068
1
1.11412
0.814943
0.915004
0.995352
1.14051
1.06989
0.808122
1
1.08309
0.893027
1.18315
1.10493
1.0438
1
1
1
1
1.07784
1.0467
1.13786
0.819094
1.11249
0.833354
1
0.926612
1.21033
1.06246
1.22934
1.04149
1.08726
0.896258
1
1
0.802065
1
1.05564
0.928228
0.829694
1.00833
0.991558
0.959065
1.02388
1
1.07163
1
1
1.07777
1.14904
1.00264
1.18659
0.913001
1.05367
1.08951
1.30368
0.9122
0.828908
1.08733
1
0.898596
1.14671
0.99663
0.993597
1.05741
0.992064
1.08846
0.995098
1
1.02999
1.04957
0.848495
1
1.07079
0.909826
1.05538
0.905016
1
0.776579
1.09762
1.04054
1
0.90979
1
1
0.999857
1
1
1.06082
1.11187
0.870712
0.91343
0.850231
1.06795
1.04187
1.15667
1
1
0.865228
0.906007
0.998051
1.04767
1.07917
1
1.03625
0.807752
1.05602
0.909449
0.896786
0.805073
1
1.10556
1.06229
1.04231
1.1549
1.03746
1
1
1.2931
1.0294
1.16355
1.03903
1.06958
1.07721
1.04641
0.999144
1
1.00497
0.985814
1.15984
1
1.05438
0.911625
0.819353
1
1.03559
1.06673
0.871249
1.01494
0.849614
1.07717
1.1436
1
1.10817
1.03038
1
1.01136
1.01141
0.951987
0.804644
1.00518
1.07498
1.04286
0.872299
1.02019
1
1.08496
1
0.850209
1
1
1.07072
0.807783
1
0.984104
1.16275
1.015
1
1.13969
0.984341
1
1.00679
0.871785
1.01771
1.00727
1.08555
0.99477
0.816669
1.16325
1.02757
1.04014
0.837026
0.924256
1
1.08261
0.936808
0.944551
1.02139
0.924872
1
0.809969
1.08752
0.926408
1
1.05848
0.878557
1
1.10288
1.07966
1.09362
1.06011
0.922817
0.909082
0.914329
1.02191
1.05954
1
0.920445
1.04339
1.06008
0.953405
0.872831
1
0.874981
1.02699
1
1.04961
1
0.894784
1.03819
1
1.09171
1.05134
1
1.03119
1
0.940158
1.02707
1.04183
1.09557
1
0.805838
1
1.0501
1.33832
1.03019
1
1.05021
1.16259
1.06232
1.09459
1.06229
0.858718
0.933112
1.06293
1
1.24012
0.878527
1
0.90983
1.10302
0.966608
1.03138
1.20565
0.806263
1.03357
0.911395
1
1.0971
1.16917
1.04784
1.05743
0.951592
1
1.05711
1
0.871714
1
1.18086
1.06109
0.89865
0.999993
1.06533
1.10043
1.16564
1
1.13835
1.33025
1
1.02088
0.871209
1.05608
0.870264
1.04837
1.21373
1
1
0.989964
0.965646
1.12378
1.07369
1.15923
0.996879
0.910742
1.14096
0.966249
1
0.921212
0.914877
1.17155
1
0.868863
0.871597
0.805232
1.04889
1.07048
1
1
0.904683
0.79843
1.12692
1.06717
1.10119
1.09513
1.05188
0.804678
0.999195
1.03493
1
1.2136
0.91578
0.943245
1
0.919474
1.30458
1.069
1
0.927029
0.961513
0.782796
1.13795
1.08617
1.10388
1.03665
1.01367
0.968527
1.03918
1.00001
0.932473
1.08933
1.08272
1.04717
1.09549
1.07697
1.10188
1
0.959729
1.07221
1.06271
1
0.966963
1.03161
1.04513
0.999943
0.997296
1.11681
0.806601
1.04518
1.03796
1
1.04663
1.10819
1
1.12451
1.00135
0.923691
0.907953
1.04087
1
0.918153
0.92327
1.05677
1.05827
0.973425
1.07815
1.12922
1.03158
1.0341
1
1.24015
0.935942
0.991878
1.08064
0.98834
1.06058
1.13823
1.29801
1
1.02505
1.14558
1.08769
1
1.08045
1.09302
0.913484
1.07544
1
1.06981
1.1001
1.04326
1
1.13282
0.988754
1.09559
1.10552
1.05091
1.10613
0.815021
1.07218
1.14358
1
1
1.19072
1.16153
1.11521
0.920311
1.09405
0.931885
0.857087
1.0096
0.969218
0.990351
0.891886
0.887418
1.06126
1.08777
1.12258
0.945773
0.959605
0.922356
1.11471
0.985911
1.021
1.09375
1.1276
1
0.960077
1.03369
1.04919
1
1.15417
0.918394
1.05908
0.990767
1
1.13594
1.00399
1.10378
1
1.03054
0.987616
0.916834
0.798959
0.986718
1
0.854398
1.05461
1.1049
1.04621
0.822975
1.03373
1.19695
1.07738
1.14127
0.940098
1.28738
1.02589
0.888772
1.09078
0.872563
1
1.10234
1.0028
1.01608
1.29968
1.02507
1
1
0.94779
1.0467
1.09566
1
0.893004
0.963223
1.09225
1.09493
0.992183
0.913727
1.09159
1.15118
1.09152
1.10422
1
0.917913
1.02671
1.08191
1.25377
1
1
1.01246
1.0008
1
1.19952
1.09483
1
1.02743
1.19886
1
1
1.03074
0.886979
0.942803
0.87685
0.915705
0.950853
1.02361
1.15045
1
1.0137
1.119
1
0.774795
0.917912
1.10795
1.01921
1
0.820154
0.77995
0.92048
0.975466
0.769425
1.06399
1.0919
0.985666
1.04343
1.02954
0.96189
0.885966
1.04041
1
1.07745
1.04521
1.08065
0.998691
0.96568
0.949357
0.888712
0.930732
1
1.02788
1
1.11006
1.15732
0.76669
0.95791
0.963887
0.955989
1
0.920257
1
1.10439
0.816759
0.981461
0.963455
1.0503
0.966834
1
1.03393
1.33749
1
0.978514
0.956486
0.859725
0.95468
1.19938
1.18974
1
1.0899
0.96271
1.26162
1
0.912687
1
1.16921
0.919852
1.02251
1.0695
1
0.766883
0.922483
0.955884
1.08748
1
1
1
1.01002
1.06108
1.06347
1.07523
0.999994
1.15103
1.19601
1.0775
1.04425
0.793504
0.861231
1.15137
1.16362
1
1
0.898589
0.905591
0.995832
1
0.958722
1
0.990437
1
1.06723
0.994278
0.944787
0.910278
0.883344
0.762578
1.14423
1
1
0.926117
1
0.954922
1.08019
1.05791
1
0.946139
1.01157
1
1
0.966381
1.0421
0.962199
1.04786
1.06836
0.775165
0.913934
1.11312
0.885173
0.942291
1
1.29889
1
1.06373
1.04843
1.01663
1
1.34813
0.8604
1.12669
1.07059
1
1.07802
1.15515
0.982324
1.15867
1.07978
1
0.922469
1
1
1.06971
0.998486
0.907041
1.1298
1
1.08645
0.904507
1
0.890639
1.10109
1
1
1.00033
0.993524
0.763319
1.23468
1
1.08651
0.938662
1.04497
1
1.18889
0.927383
1.00085
1.05618
0.922892
1
1.02186
0.899194
1.10037
1.08494
1
1.09633
1.01465
0.917949
1.06134
1.07101
1.13389
0.914959
0.872857
1.00536
0.878293
1.07821
1.0969
1
1
1.23655
1.31411
1.06863
1
1.01969
0.997754
1.15282
0.945737
1
0.992596
0.960714
1
0.942301
0.872228
1.03704
1
1.10681
1.07819
1
0.88375
1
1.05984
1.0121
1
1.09555
0.917577
1.08396
0.982156
1
1.09872
1.13995
1.02552
0.902302
0.881833
1.00129
1
1.02383
1.10512
1.10101
1.21117
1
1.056
1
1.10403
1.11292
1.34812
1
0.850106
1
1.09468
1
0.930623
1.07763
1.07243
1.14884
1
1.12337
0.803523
1.01219
0.999999
1.12028
1.18557
1
1.10098
0.902403
1
1
1.00349
1.1048
1.06113
1.04317
1
1.00029
1.10694
0.993687
1.00608
1.01774
1.00001
1
1.11163
1
0.917116
1.19834
1.17475
1
1.04284
0.958136
1.12842
1
1.11087
0.999731
1
1.12909
1.12004
0.919214
0.91217
1.03636
0.849761
1.13035
0.924129
1
1.10843
1.0019
1
1.08738
1
1.11847
1.13617
1.22407
1.11665
0.99358
1.01146
0.994344
1
0.91104
0.919028
0.753154
1.00646
1.17854
1.20247
0.909475
1
0.943993
1
0.781126
1.08908
1.0202
1.07032
1.12619
1.15566
0.994955
0.824924
1.06082
1
1.11505
1.01156
0.983144
1.14455
1
1
1.11397
0.935462
0.999999
1.18819
1
0.925718
1.12327
1.00909
1
0.933012
1.12243
1.1175
1.07591
1.13371
0.950932
1.067
1
0.875509
0.907154
1.00596
0.846556
1
1.05244
0.926469
1.071
1
0.932498
1.15314
1.01789
1.12135
0.997612
1.03331
0.922632
0.803184
0.819508
1
1.04846
0.928586
1.12737
1.03221
1.14256
1.32963
1.08157
1
0.941997
1.1198
0.813292
1.00013
1.03813
1.00596
1.04418
0.92876
1.07279
0.901797
0.924716
1.03245
0.918045
1.05807
1.0101
0.999979
1.05104
1.14167
1
1.34993
1
1.06507
1
1
1
1
1.10073
1.12614
1.1616
1.07991
1
1.00504
1.05056
1.0346
1
1
1.02263
1.03961
1.15105
1
0.913603
1.03945
1.03631
1.13543
1
1.06084
1
0.960589
1.04927
0.999962
1.01439
1
1.09372
0.912328
1.14098
0.784293
1
1.16065
1.12025
0.955268
1.004
1.13307
1.05006
0.990279
0.954953
1.03647
1.15848
0.800605
0.941912
0.910778
0.949543
0.998703
1
1.1364
0.859949
1.03361
1.17438
1
1.1099
1.11129
1.02182
1.13658
0.928631
0.851103
1
1.2282
0.93758
0.925201
0.983619
1.13066
1.12567
1.12863
1
0.994496
1
1.12768
1
1.13385
1.01652
1.06445
0.867728
1
1
1
1.13086
1.32751
1.11758
1
1
1.11614
1.02275
1
1.32641
0.852386
1
0.996788
0.904494
1.01427
1.06776
1.00267
1.08709
1.13426
1
1.31526
0.875657
1.09112
1
0.906651
1
0.952444
1.13417
0.906823
0.928518
1.14341
1.07185
1.13816
1
1.03363
0.880236
1.17062
0.991107
1
0.878925
1.12234
1
1.20241
1.02509
0.837752
1.13732
1.25349
0.903784
0.850388
1.21954
0.873598
1
1.08279
1
1.05625
1.09317
1
1
1
1.07004
0.909757
0.824149
1.20407
0.99991
1.06786
0.917105
0.987199
0.869835
1.154
1
0.911678
0.966652
1.14748
0.81827
1.0526
1.01301
1.12822
1.12546
0.912942
0.99605
0.884804
1.00674
0.99715
1
1.02616
1.0716
0.867907
0.87415
1.14414
0.868322
1
1
1.14607
1.04388
0.874011
0.940104
1.06018
1.13839
1
1.09253
1.06183
0.897363
1.01102
1.00838
1.14989
1
0.869101
1.12373
1.00324
0.952732
0.903552
1.14818
1.06609
1.26265
1
1
1.13266
1
1
1.08313
1
1.12882
1.11265
0.927051
1
0.897023
1
0.918959
0.837977
1
0.92507
0.878771
1.02466
1.14634
0.922759
1.1144
1.01134
1.15703
0.978559
1.0728
1.11819
1
1.17889
0.905368
0.999943
1.06613
1
1.18122
0.999774
1.02077
1.00747
1.06675
0.931159
1.05179
0.880158
1.01558
0.919006
1.02237
1
0.989949
1
1.02511
0.82293
1
1
1
0.861378
1
1.02077
0.897161
0.984847
1.09774
1.21169
0.907572
0.959726
1
1.116
1.07147
0.896971
1
1.16666
1.10832
1
1
1
1
0.999966
1.01979
1
1
0.919178
1
0.816592
1
1
0.922256
1.01934
0.940795
1
1.07776
1
1
1
1.09419
1
0.783329
1
1.26252
1.2344
1
0.927158
1.17715
1.01247
1.0545
1
1.11143
0.921885
1.07389
1.06477
0.91091
1
1.08023
1
1
0.999999
1.04883
1.10058
1
1.10027
1.04947
1.10367
1
1.33591
1.05695
1
1
1.05386
1.07686
0.939679
1.19441
1
1.22756
0.999755
1.00018
0.926292
1.1016
0.822394
1.06564
1
1
0.853383
1.09081
0.88082
0.918254
0.918989
0.926769
0.942277
0.928685
1.04337
1.05199
1.1069
1.03262
0.824643
0.934185
0.821595
1.07022
1
1.09976
1.11076
1.13546
1
1
0.949841
1.09026
1.0981
0.923781
1.05239
0.935951
1
1
1.07644
0.965897
0.853585
1.1043
1.19409
1
0.981588
1.30144
0.964077
1.13011
0.943671
0.918369
0.944179
1.05872
0.986258
1.12826
1.10227
1.16296
0.965801
0.959767
1.08217
0.90324
0.854422
0.905465
1
1.1399
0.913562
1.046
1
0.827459
1.17436
1.35163
1.10016
1.06693
1.09586
1.12203
0.798124
0.923872
0.903077
0.958603
1.2099
1.00809
1
1
1.11779
1.16991
1.18603
0.989682
1.08343
0.993647
0.999999
1.17588
1
1.28741
1.09229
1
1.09715
0.915828
1
1.26904
1.01767
1.09807
0.888404
1.09473
1
1
1.01302
1.06118
1.09743
1.16536
1.05452
1.20752
1.03592
0.946999
1.25485
1.0043
1.09225
1.14893
1.11012
1
1.15562
1
0.914058
1.13092
1.11301
1
1.08572
0.904783
1
0.946404
1.18044
1
1.15488
0.76618
1.22336
1.11049
0.766593
1
1.24789
1
1.16558
1
1.12057
1.09285
1.1597
1.09552
1.17871
1.1023
1
1.06678
1
0.766613
1.13402
1
1
0.958724
1.00279
1.05324
1
1
0.949567
1.04734
1
1.02982
1
1.09509
0.999999