/*--------------------------------*- C++ -*----------------------------------*\
  =========                 |
  \\      /  F ield         | OpenFOAM: The Open Source CFD Toolbox
   \\    /   O peration     | Website:  https://openfoam.org
    \\  /    A nd           | Version:  12
     \\/     M anipulation  |
\*---------------------------------------------------------------------------*/
FoamFile
{
    format      ascii;
    class       volScalarField;
    location    "1.5";
    object      rho;
}
// * * * * * * * * * * * * * * * * * * * * * * * * * * * * * * * * * * * * * //

dimensions      [1 -3 0 0 0 0 0];

internalField   nonuniform List<scalar> 
46253
(
1.36256
1.40001
1.40001
1.40001
1.40001
1.40001
1.3173
1.43284
1.40001
1.40001
1.36405
1.19072
1.40001
1.40001
1.40001
1.40001
1.40001
1.40001
1.40001
1.40001
1.40001
1.40001
1.40001
1.3399
1.31762
1.40001
1.40001
1.40001
1.40001
1.43319
1.47017
1.40001
1.40001
1.40001
1.40001
1.40001
1.40001
1.40001
1.41958
1.40001
1.30667
1.19062
1.40001
1.40001
1.15544
1.40001
1.40001
1.40001
1.40001
1.40001
1.40001
1.40001
1.40001
1.47257
1.40001
1.24529
1.40001
1.40001
1.60284
1.30306
1.40001
1.4648
1.40001
1.40001
1.40001
1.40001
1.40001
1.40001
1.24739
1.16004
1.31793
1.40001
1.40001
1.48303
1.40001
1.3387
1.40001
1.40001
1.40001
1.40001
1.40001
1.40001
1.40001
1.40001
1.31162
1.40001
1.40006
1.40046
1.3674
1.40001
1.40001
1.30497
1.40001
1.40001
1.40001
1.40001
1.40001
1.40001
1.60188
1.40001
1.40001
1.40001
1.40001
1.46532
1.40001
1.31243
1.19715
1.50397
1.54058
1.2168
1.42937
1.40001
1.40001
1.40001
1.40001
1.37891
1.16524
1.29683
1.79584
1.25845
1.40001
1.40001
1.40001
1.40001
1.40001
1.81268
1.40001
1.22962
1.40008
1.40001
1.57507
1.575
1.40001
1.31981
1.40001
1.40001
1.4
1.39999
1.25612
1.40001
1.40001
1.56784
1.56657
1.45477
1.40001
1.40001
1.40012
1.40034
1.41991
1.40001
1.21403
1.40001
1.40001
1.40001
1.41586
1.16024
1.2305
1.40001
1.3958
1.40001
1.40061
1.20123
1.24181
1.40001
1.31702
1.39998
1.32016
1.39998
2.02122
1.40001
1.47576
1.49812
1.40001
1.31112
1.40001
1.15256
1.5216
1.40001
1.53737
1.1676
1.40001
1.41406
1.49137
1.48846
1.40001
1.39601
1.39658
1.15316
1.40001
1.40001
1.40001
1.40001
1.4604
1.40001
1.40001
1.40001
1.42491
1.40001
1.51637
1.51536
1.40001
1.40001
1.44954
1.44099
1.40001
1.16309
1.4094
1.58424
1.58564
1.40001
1.40001
1.79637
1.31012
1.40001
1.52771
1.40001
1.44919
1.31173
1.57691
1.40001
1.40001
1.57525
1.14955
1.49308
1.49168
1.31257
1.40001
1.40001
1.50032
1.49916
1.5444
1.40001
1.40001
1.40001
1.40001
1.40001
1.40001
1.40001
1.54167
1.56351
1.40001
1.40001
1.40001
1.40001
1.40001
1.40001
1.40001
1.40889
1.40001
1.56984
1.56961
1.56057
1.48424
1.40001
1.48292
1.55854
1.57485
1.26524
1.30977
1.40001
1.32424
1.29672
1.20662
1.45769
1.29846
1.40001
1.40001
1.40001
1.57967
1.56154
1.57742
1.40001
1.40001
1.40001
1.56068
1.40001
1.39997
1.40001
1.48018
1.28344
1.46697
1.466
1.40001
1.40001
1.40001
1.48774
1.47262
1.25687
1.44109
1.40001
1.59198
1.59103
1.30912
1.40001
1.58225
1.50791
1.40001
1.50403
1.31117
1.55739
1.78587
1.55625
1.23527
1.78624
1.40001
1.5746
1.57319
1.40001
1.45417
1.40001
1.40001
1.58688
1.40001
1.55064
1.40001
1.54893
1.24691
1.5807
1.40001
1.48558
1.23741
1.40001
1.31787
1.31824
1.46999
1.43566
1.40001
1.40001
1.54547
1.54439
1.4368
1.43632
1.40001
1.40001
1.40001
1.48016
1.26035
1.56546
1.56522
1.40001
1.40001
1.40001
1.40001
1.77731
1.40001
1.5388
1.53734
1.40001
1.25808
1.40001
1.46067
1.40001
1.16225
1.40001
1.2054
1.40001
1.55842
1.40001
1.55835
1.40001
1.20183
1.40001
1.40001
1.40001
1.40001
1.40001
1.40001
1.40001
1.53256
1.40001
1.40001
1.40001
1.40001
1.53142
1.40001
1.57317
1.25222
1.40001
1.40001
1.40001
1.31393
1.47923
1.23595
1.55425
1.47236
1.55383
1.40001
1.40001
1.52632
1.86554
1.40001
1.44252
1.52501
1.45164
1.40001
1.4556
1.39538
1.39384
1.40001
1.41702
1.40001
1.40215
1.40155
1.57103
1.40001
1.40001
1.40001
1.40001
1.40001
1.40001
1.40001
1.40001
1.75566
1.40001
1.42019
1.40001
1.47513
1.40001
1.40001
1.26766
1.40001
1.40001
1.51989
1.40001
1.54698
1.40001
1.40001
1.5185
1.54697
1.40001
1.56132
1.40001
1.40001
1.40001
1.40001
1.38536
1.4448
1.40001
1.40001
1.46443
1.2405
1.40001
1.44604
1.40001
1.38985
1.42122
1.40001
1.40001
1.25186
1.40001
1.28742
1.42184
1.40001
1.47129
1.40001
1.39957
1.44786
1.40001
1.54141
1.38017
1.40001
1.37988
1.38019
1.54091
1.40001
1.3802
1.40001
1.40001
1.40001
1.40001
1.40001
1.4309
1.40001
1.44949
1.23632
1.50987
1.27335
1.40422
1.50875
1.35543
1.38033
1.37981
1.40001
1.40001
1.40001
1.40001
1.39991
1.40001
1.29139
1.31226
1.17718
1.29407
1.38467
1.37699
1.38645
1.40001
1.40001
1.53497
1.41501
1.20684
1.53467
1.5039
1.50319
1.37161
1.30902
1.40001
1.37066
1.46331
1.40001
1.40001
1.40001
1.30279
1.40001
1.47606
1.47072
1.40001
1.40001
1.39841
1.40001
1.40001
1.47202
1.13671
1.41922
1.40001
1.40001
1.41964
1.40001
1.41792
1.43056
1.41848
1.40001
1.41917
1.44256
1.40001
1.38045
1.4178
1.40001
1.40001
1.52892
1.40001
1.3285
1.27078
1.40001
1.40001
1.5286
1.40001
1.40001
1.40001
1.40001
1.1746
1.40001
1.40001
1.4941
1.27312
1.49292
1.29917
1.40001
1.40001
1.40001
1.40001
1.40001
1.40001
1.40001
1.38461
1.17981
1.40001
1.40001
1.40001
1.40001
1.40001
1.40001
1.32434
1.44751
1.40001
1.43288
1.40001
1.40001
1.23299
1.40001
1.40001
1.40001
1.52242
1.40001
1.40001
1.52186
1.42814
1.50354
1.40001
1.50689
1.50792
1.51103
1.45659
1.40001
1.48705
1.48631
1.43933
1.39819
1.40001
1.40001
1.46632
1.40001
1.7995
1.56775
1.40001
1.79015
1.4
1.40001
1.45394
1.46252
1.40001
1.40001
1.36802
1.38637
1.40001
1.40001
1.38255
1.40001
1.40001
1.40001
1.40001
1.4
1.4
1.39094
1.39522
1.14862
1.38871
1.61127
1.47025
1.61719
1.58916
1.40001
1.32244
1.34547
1.59068
1.40001
1.57747
1.40001
1.5793
1.40001
1.39549
1.56799
1.40001
1.56989
1.69443
1.40001
1.55868
1.40001
1.56021
1.40001
1.17764
1.40001
1.27681
1.34482
1.40001
1.40001
1.54991
1.55113
1.40001
1.41404
1.54047
1.54193
1.38359
1.40001
1.40001
1.52666
1.47689
1.52818
1.40001
1.51315
1.51876
1.24993
1.51968
1.47612
1.51255
1.40001
1.40001
1.40001
1.50882
1.51073
1.49696
1.40001
1.40001
1.50073
1.2981
1.50136
1.24123
1.40001
1.48775
1.48838
1.40001
1.40001
1.40001
1.45907
1.40001
1.41874
1.41442
1.47363
1.40001
1.47566
1.40001
1.47614
1.40001
1.40001
1.42008
1.42155
1.46695
1.46773
1.38071
1.42787
1.45979
1.4291
1.46014
1.40001
1.39657
1.44851
1.44899
1.40001
1.25952
1.44077
1.44193
1.90084
1.40001
1.40001
1.40001
1.43536
1.38387
1.43552
1.15106
1.41628
1.37975
1.21312
1.42671
1.42738
1.41476
1.42166
1.42241
1.25978
1.25107
1.40001
1.43719
1.83255
1.47091
1.40001
1.21466
1.46964
1.25129
1.39861
1.32847
1.40001
1.40001
1.40001
1.50668
1.40001
1.40001
1.40001
1.40001
1.40001
1.50604
1.40001
1.40001
1.40001
1.27167
1.2717
1.40001
1.39118
1.14874
1.35633
1.40001
1.40001
1.40001
1.40001
1.40001
1.48199
1.40001
1.38888
1.40001
1.49895
1.50599
1.50232
1.25987
1.40001
1.4359
1.30676
1.51139
1.40001
1.40001
1.40001
1.40001
1.40001
1.50525
1.50148
1.49427
1.32961
1.32843
1.40001
1.27845
1.40001
1.40001
1.50499
1.4115
1.40001
1.42922
1.4
1.40001
1.39351
1.40064
1.40001
1.50792
1.22915
1.37778
1.40001
1.38445
1.46063
1.40001
1.40001
1.38243
1.39698
1.40001
1.45999
1.14694
1.40001
1.40001
1.53635
1.53752
1.3873
1.40001
1.14926
1.15044
1.31018
1.48595
1.40001
1.41514
1.46325
1.23378
1.68507
1.40001
1.40001
1.40001
1.49689
1.49776
1.40001
1.4
1.40001
1.49721
1.4831
1.40001
1.40001
1.48476
1.49682
1.38344
1.38163
1.40001
1.38536
1.41883
1.21521
1.38653
1.2368
1.45616
1.40001
1.40001
1.45707
1.40001
1.40001
1.39379
1.38853
1.40001
1.45387
1.27582
1.41281
1.25374
1.25675
1.45331
1.27004
1.26142
1.23513
1.2317
1.40001
1.40001
1.47132
1.40001
1.40001
1.38753
1.29134
1.27681
1.40001
1.40001
1.42022
1.40001
1.41868
1.42157
1.40001
1.39934
1.44166
1.40001
1.40001
1.40001
1.40001
1.39054
1.4263
1.43083
1.15308
1.40001
1.48986
1.40001
1.39816
1.39869
1.48927
1.40001
1.39328
1.38581
1.39097
1.40001
1.40001
1.40001
1.40001
1.38459
1.41757
1.40001
1.37865
1.40001
1.26707
1.40001
1.26445
1.3533
1.31814
1.40001
1.44694
1.44528
1.34995
1.74075
1.40001
1.27569
1.38002
1.37903
1.28025
1.40001
1.40001
1.37803
1.14626
1.40001
1.40001
1.42305
1.17005
1.39413
1.37996
1.40001
1.40001
1.40001
1.40001
1.40001
1.40001
1.8745
1.40001
1.35677
1.24958
1.25767
1.49246
1.1542
1.13765
1.15703
1.26271
1.42567
1.35338
1.14519
1.56324
1.57384
1.584
1.55376
1.56488
1.40001
1.52428
1.57506
1.5903
1.55549
1.3819
1.58615
1.52589
1.54528
1.59045
1.40001
1.5417
1.54713
1.5146
1.40001
1.5314
1.60316
1.40043
1.40016
1.53321
1.40001
1.48852
1.52262
1.40001
1.40001
1.40001
1.52377
1.40001
1.51445
1.40001
1.40001
1.40001
1.44028
1.51573
1.40001
1.40001
1.40001
1.50448
1.51203
1.40001
1.40001
1.40001
1.50547
1.43943
1.16444
1.49158
1.40001
1.33705
1.49309
1.47825
1.47924
1.24541
1.47081
1.4722
1.46323
1.40001
1.3415
1.46452
1.40001
1.45194
1.32292
1.40001
1.40001
1.45324
1.28748
1.17237
1.44556
1.44622
1.43782
1.48003
1.43813
1.14515
1.43114
1.40001
1.40819
1.47921
1.43263
1.38582
1.36526
1.38708
1.42495
1.40339
1.40399
1.31829
1.42452
1.41704
1.41822
1.35633
1.18468
1.147
1.40001
1.18554
1.40001
1.18505
1.18076
1.16152
1.40001
1.81269
1.45446
1.40001
1.43249
1.43096
1.43933
1.44638
1.40001
1.37305
1.51061
1.52049
1.48616
1.39065
1.50696
1.51219
1.50792
1.50256
1.4731
1.25624
1.41973
1.38553
1.40001
1.34753
1.28706
1.24909
1.36994
1.40001
1.55853
1.50253
1.19036
1.40001
1.43008
1.30813
1.35252
1.42908
1.40001
1.40001
1.40001
1.30913
1.37097
1.43491
1.50478
1.38272
1.38823
1.22288
1.47394
1.35548
1.47319
1.40652
1.31357
1.19615
1.26839
1.19657
1.34004
1.5169
1.41233
1.40001
1.51588
1.58938
1.31271
1.36777
1.40001
1.40001
1.40001
1.40989
1.39999
1.40001
1.40001
1.15938
1.37142
1.23465
1.40001
1.31267
1.40001
1.40664
1.31579
1.40001
1.40001
1.13678
1.24386
1.54853
1.25215
1.43072
1.4319
1.40001
1.52289
1.41927
1.40001
1.42166
1.40001
1.38397
1.4253
1.43261
1.28495
1.40001
1.40001
1.34517
1.42936
1.40053
1.38393
1.41969
1.42069
1.40001
1.42504
1.40062
1.38117
1.38263
1.23279
1.38746
1.40001
1.32021
1.27057
1.39634
1.2166
1.3964
1.504
1.40001
1.40001
1.40001
1.28878
1.38639
1.40001
1.38516
1.38734
1.45016
1.3945
1.27798
1.38524
1.13593
1.31791
1.55221
1.40001
1.40001
1.32607
1.56849
1.40001
1.40001
1.40001
1.38335
1.40001
1.38378
1.17087
1.30173
1.43065
1.40001
1.40001
1.42956
1.40001
1.42043
1.39216
1.64421
1.39918
1.40001
1.4956
1.64962
1.39372
1.42698
1.54839
1.40001
1.30917
1.6187
1.58396
1.32854
1.40001
1.54001
1.6217
1.60013
1.40001
1.40973
1.14745
1.40001
1.40001
1.27632
1.60333
1.40001
1.56342
1.46066
1.40001
1.40001
1.31316
1.58076
1.4167
1.43528
1.60166
1.46402
1.2318
1.40001
1.57716
1.58368
1.44705
1.4158
1.40001
1.48901
1.46329
1.47765
1.50448
1.40001
1.56122
1.40001
1.40001
1.40001
1.5608
1.40001
1.40001
1.29583
1.2736
1.40001
1.30038
1.56394
1.42574
1.38979
1.40001
1.30367
1.40001
1.42467
1.40001
1.40001
1.40001
1.40001
1.40001
1.2995
1.40001
1.40001
1.40001
1.40001
1.40001
1.40001
1.47272
1.16272
1.40001
1.36602
1.40001
1.40001
1.40001
1.43087
1.27945
1.19412
1.40001
1.1901
1.45586
1.40001
1.40001
1.40001
1.48814
1.40001
1.51033
1.40001
1.59623
1.25965
1.22739
1.40001
1.40001
1.40001
1.40001
1.40001
1.40001
1.64036
1.62755
1.41683
1.5921
1.40001
1.40001
1.40001
1.40001
1.27232
1.40001
1.40001
1.40001
1.49765
1.40001
1.4
1.40001
1.39456
1.40254
1.27348
1.54631
1.26993
1.38159
1.40001
1.4
1.41877
1.41802
1.50131
1.50662
1.21375
1.50768
1.49892
1.37559
1.50356
1.50445
1.4129
1.53713
1.40088
1.46422
1.50328
1.50271
1.40464
1.4007
1.50443
1.41259
1.50836
1.40001
1.42265
1.50723
1.41323
1.50199
1.27002
1.42667
1.506
1.5207
1.45638
1.52635
1.24007
1.52658
1.28424
1.40001
1.40874
1.24353
1.45566
1.42308
1.52069
1.50886
1.438
1.40001
1.42161
1.57449
1.40001
1.40001
1.15339
1.40001
1.40001
1.43517
1.2843
1.40001
1.51346
1.50767
1.51412
1.40001
1.25327
1.48058
1.50596
1.50521
1.47529
1.50819
1.441
1.41681
1.5471
1.27412
1.55362
1.50227
1.5312
1.50288
1.49572
1.40001
1.28045
1.40001
1.33817
1.40001
1.15432
1.54262
1.49613
1.50765
1.43689
1.51017
1.41767
1.48191
1.49762
1.45704
1.27742
1.55576
1.40001
1.4888
1.48918
1.40001
1.40001
1.40001
1.40001
1.40001
1.40001
1.40001
1.3035
1.40001
1.40411
1.15321
1.25214
1.57188
1.15775
1.2509
1.48249
1.23571
1.40001
1.1632
1.40339
1.30101
1.40001
1.49219
1.4479
1.40001
1.40001
1.60723
1.15514
1.26725
1.26384
1.48158
1.40001
1.40001
1.13614
1.36154
1.38069
1.54534
1.14237
1.40001
1.40001
1.40001
1.50425
1.40001
1.47798
1.47813
1.42718
1.15382
1.46963
1.47306
1.40001
1.41813
1.47392
1.50305
1.40933
1.40001
1.60436
1.40001
1.40001
1.45557
1.46957
1.43821
1.58723
1.15507
1.59611
1.6071
1.54198
1.40001
1.40001
1.49374
1.45436
1.40001
1.45071
1.40001
1.19547
1.40001
1.40001
1.45717
1.16917
1.40001
1.46214
1.46507
1.46194
1.40001
1.40001
1.44948
1.55522
1.17639
1.2575
1.17468
1.41611
1.38494
1.39897
1.16125
1.41591
1.35292
1.42478
1.40001
1.45877
1.15865
1.17639
1.41901
1.53305
1.45011
1.29083
1.40001
1.40001
1.42442
1.42281
1.31977
1.40001
1.44533
1.34385
1.45207
1.43297
1.45283
1.40699
1.43139
1.40002
1.15867
1.40001
1.14572
1.40449
1.44522
1.41457
1.49302
1.14912
1.28989
1.50181
1.40001
1.29118
1.43937
1.24043
1.6229
1.2735
1.4979
1.44313
1.62216
1.17302
1.45389
1.41173
1.40001
1.44164
1.43695
1.54994
1.57221
1.40001
1.42909
1.40001
1.43048
1.2809
1.41479
1.21464
1.18032
1.40001
1.17977
1.22366
1.4819
1.40001
1.15953
1.4259
1.47968
1.51762
1.43248
1.16356
1.29205
1.41057
1.48306
1.51818
1.18313
1.49205
1.49541
1.40001
1.49572
1.40001
1.38508
1.60678
1.49319
1.24278
1.58097
1.47852
1.40001
1.18338
1.50008
1.41782
1.40001
1.21002
1.50017
1.52849
1.63965
1.44016
1.40001
1.47902
1.39609
1.48328
1.40001
1.49322
1.48415
1.40001
1.52702
1.49375
1.42827
1.60935
1.48659
1.48149
1.31469
1.40001
1.40001
1.48723
1.19633
1.40001
1.20298
1.40002
1.52849
1.53639
1.20838
1.43791
1.28823
1.40001
1.22577
1.66542
1.40001
1.40001
1.55058
1.65897
1.20529
1.3967
1.47024
1.19991
1.1967
1.48365
1.30931
1.47126
1.46512
1.48093
1.58082
1.44377
1.46398
1.43152
1.39424
1.4692
1.46418
1.49319
1.37167
1.20018
1.40001
1.4912
1.66849
1.45764
1.55136
1.66546
1.26326
1.40001
1.46019
1.44252
1.40923
1.28587
1.40001
1.40001
1.43217
1.43007
1.27952
1.42192
1.40001
1.40001
1.42013
1.49081
1.44316
1.40001
1.40001
1.49377
1.44524
1.44834
1.63073
1.41777
1.23533
1.41212
1.44273
1.40001
1.23211
1.44259
1.28299
1.21686
1.46297
1.50319
1.72928
1.46728
1.38942
1.46049
1.33187
1.45993
1.4681
1.32745
1.45768
1.48403
1.40001
1.41421
1.40001
1.40001
1.33128
1.32036
1.34533
1.32575
1.63691
1.4178
1.40001
1.40001
1.34126
1.45407
1.21468
1.286
1.42162
1.21403
1.45802
1.49232
1.45453
1.21879
1.19804
1.41943
1.67386
1.24978
1.40001
1.36483
1.44549
1.2181
1.68442
1.4264
1.38662
1.40001
1.40001
1.38454
1.36193
1.39707
1.40001
1.40001
1.35871
1.40001
1.44399
1.27703
1.22977
1.28355
1.42256
1.44526
1.40042
1.40001
1.23188
1.28709
1.40001
1.23542
1.2263
1.40187
1.38834
1.41564
1.40001
1.40001
1.48406
1.37843
1.45029
1.2567
1.25268
1.66669
1.28508
1.40001
1.40001
1.49733
1.40001
1.40001
1.49858
1.37788
1.43595
1.4944
1.40001
1.18019
1.49408
1.30506
1.40001
1.29846
1.57455
1.3961
1.40001
1.40001
1.40001
1.27465
1.38074
1.47928
1.30195
1.40001
1.40001
1.20524
1.29264
1.24931
1.27918
1.4916
1.48181
1.29209
1.40001
1.39714
1.40001
1.49032
1.40001
1.40001
1.40001
1.32041
1.40001
1.49534
1.40001
1.40001
1.40001
1.40001
1.40001
1.40001
1.40001
1.40001
1.40001
1.40001
1.39989
1.40001
1.43671
1.40003
1.40001
1.39102
1.47682
1.52013
1.40001
1.40001
1.38932
1.23929
1.30778
1.49095
1.3999
1.39461
1.38787
1.44384
1.41736
1.40001
1.40001
1.40001
1.40001
1.41017
1.47454
1.52282
1.48328
1.41293
1.30498
1.47533
1.38901
1.29159
1.37342
1.51003
1.20575
1.52242
1.39116
1.5226
1.39421
1.40001
1.40001
1.17767
1.49712
1.40001
1.40001
1.45038
1.16376
1.32003
1.37638
1.33089
1.51605
1.40001
1.28015
1.40001
1.40602
1.49309
1.38513
1.44106
1.27446
1.3174
1.38286
1.51084
1.40818
1.51628
1.39823
1.40001
1.43893
1.41224
1.27898
1.498
1.60806
1.40245
1.40001
1.40001
1.49629
1.50488
1.4444
1.48438
1.66633
1.40907
1.23353
1.41562
1.40001
1.44325
1.45111
1.40001
1.50541
1.34948
1.22965
1.49826
1.45467
1.41422
1.41797
1.49075
1.41596
1.43005
1.40001
1.43708
1.43176
1.49137
1.40217
1.40001
1.44068
1.43052
1.42346
1.41999
1.48491
1.42665
1.42537
1.40001
1.48918
1.40001
1.42632
1.2002
1.40001
1.40001
1.65944
1.49777
1.54479
1.20353
1.40001
1.40001
1.47087
1.4401
1.41926
1.20197
1.40001
1.38039
1.40001
1.41593
1.63613
1.49259
1.49471
1.32827
1.37058
1.40001
1.47586
1.42935
1.46562
1.31816
1.41497
1.48188
1.42566
1.36478
1.40001
1.47978
1.38405
1.49908
1.40001
1.47627
1.47123
1.40001
1.42664
1.28353
1.3788
1.45184
1.48024
1.18319
1.39902
1.49088
1.46091
1.40001
1.46357
1.39383
1.44345
1.76948
1.44114
1.40001
1.40001
1.40001
1.37388
1.42655
1.46459
1.42065
1.46121
1.50581
1.40001
1.40001
1.66707
1.52767
1.44729
1.29413
1.40001
1.44771
1.40001
1.46525
1.43405
1.40721
1.45434
1.64895
1.44309
1.38904
1.49301
1.4532
1.44866
1.41278
1.40001
1.36542
1.18197
1.4222
1.40001
1.48147
1.39082
1.40001
1.40001
1.41652
1.40001
1.40001
1.35605
1.27282
1.46136
1.43997
1.52626
1.40001
1.40004
1.40001
1.40231
1.40001
1.30856
1.37338
1.29554
1.44175
1.2216
1.18772
1.45067
1.27151
1.40001
1.23939
1.31977
1.49616
1.28286
1.49534
1.40001
1.47629
1.40001
1.50291
1.49884
1.40001
1.40001
1.43423
1.40001
1.45131
1.40001
1.47125
1.49839
1.4942
1.4492
1.43218
1.4
1.26459
1.40001
1.5552
1.49168
1.3891
1.41086
1.4
1.40002
1.49348
1.48345
1.40001
1.45754
1.48763
1.38776
1.41471
1.4852
1.38486
1.22975
1.4
1.3769
1.47602
1.48363
1.48943
1.48943
1.3373
1.48226
1.35329
1.40001
1.39999
1.42416
1.43443
1.33216
1.40944
1.38563
1.40047
1.383
1.27561
1.43934
1.41859
1.28823
1.40001
1.48834
1.45282
1.33233
1.46922
1.34505
1.4005
1.40001
1.47282
1.4658
1.40001
1.40001
1.40001
1.40001
1.40057
1.56517
1.46399
1.40001
1.32909
1.40001
1.47313
1.43363
1.47996
1.48062
1.46718
1.4293
1.4351
1.46661
1.31867
1.40001
1.40001
1.35954
1.5169
1.40001
1.40001
1.42174
1.49086
1.4646
1.3926
1.40316
1.49051
1.40001
1.46198
1.5206
1.45583
1.49949
1.50807
1.40344
1.40001
1.45535
1.30694
1.40001
1.39282
1.35884
1.50276
1.48951
1.50447
1.4551
1.3013
1.50137
1.58726
1.50088
1.52348
1.51141
1.40001
1.49182
1.4895
1.51987
1.42255
1.40001
1.40001
1.49622
1.4428
1.30245
1.20173
1.49058
1.40001
1.50445
1.39051
1.53997
1.28886
1.4427
1.53129
1.53529
1.41194
1.19678
1.50577
1.52609
1.28958
1.43409
1.42777
1.27583
1.59879
1.43014
1.2809
1.42792
1.40001
1.37202
1.42041
1.39126
1.33046
1.41452
1.54881
1.68028
1.28427
1.39589
1.47187
1.39821
1.28437
1.44949
1.29817
1.54602
1.41316
1.40212
1.46893
1.39409
1.47607
1.4964
1.46318
1.41377
1.54253
1.40075
1.45597
1.39697
1.26188
1.27711
1.48516
1.28068
1.49391
1.40001
1.40134
1.40001
1.2971
1.49505
1.40001
1.40001
1.29918
1.40005
1.40001
1.42137
1.46297
1.68218
1.38316
1.40001
1.20366
1.40001
1.36962
1.28105
1.4881
1.29835
1.39349
1.48969
1.39288
1.4148
1.42293
1.40001
1.31291
1.40001
1.48584
1.46822
1.40001
1.36763
1.3824
1.55022
1.48586
1.55102
1.40001
1.37834
1.19461
1.48041
1.40001
1.56537
1.429
1.35853
1.48231
1.37804
1.42822
1.40001
1.36833
1.40001
1.28227
1.66545
1.39212
1.20359
1.40001
1.48411
1.23311
1.38951
1.18914
1.43404
1.47744
1.48427
1.42232
1.40001
1.38524
1.39121
1.40001
1.56544
1.40001
1.5459
1.49418
1.48322
1.56167
1.40001
1.40001
1.52427
1.42765
1.28671
1.57312
1.40001
1.40001
1.56865
1.54995
1.58124
1.18128
1.5771
1.55424
1.40001
1.33611
1.41634
1.41497
1.54852
1.42621
1.34547
1.34172
1.59919
1.54626
1.55889
1.49507
1.40001
1.40001
1.40001
1.28592
1.54151
1.40001
1.44269
1.31753
1.58456
1.45495
1.41616
1.46478
1.31051
1.54204
1.48189
1.44065
1.44674
1.16669
1.44845
1.43133
1.40001
1.43984
1.43691
1.39018
1.43425
1.50416
1.49791
1.58861
1.44748
1.60476
1.6006
1.40001
1.30855
1.17287
1.53655
1.40001
1.40001
1.45555
1.40001
1.5967
1.2436
1.53674
1.47207
1.40001
1.44471
1.42819
1.45348
1.45481
1.45465
1.4316
1.53097
1.41668
1.41769
1.59266
1.40001
1.32426
1.4157
1.45091
1.45217
1.53206
1.40001
1.35633
1.2366
1.41271
1.60911
1.44023
1.49423
1.61359
1.41624
1.40001
1.39057
1.417
1.49119
1.87209
1.46798
1.68735
1.52575
1.48012
1.29269
1.55304
1.40001
1.40001
1.49375
1.41097
1.52758
1.46898
1.41137
1.40886
1.48206
1.50358
1.41751
1.40001
1.14206
1.40001
1.19744
1.40853
1.52032
1.52125
1.31579
1.40001
1.40001
1.61736
1.50076
1.40001
1.40001
1.41869
1.31184
1.48637
1.62782
1.41445
1.39097
1.51067
1.41774
1.50077
1.28959
1.40001
1.39294
1.51264
1.32219
1.29045
1.22776
1.41784
1.41904
1.40001
1.43408
1.40001
1.40001
1.65816
1.2913
1.35096
1.49329
1.50473
1.66843
1.29427
1.40001
1.40001
1.50558
1.63597
1.39145
1.26738
1.42836
1.40001
1.49288
1.41047
1.42652
1.40001
1.40001
1.40001
1.40001
1.4305
1.40001
1.42686
1.494
1.3917
1.42967
1.49544
1.40001
1.42877
1.40001
1.40001
1.40001
1.43551
1.48818
1.4903
1.40001
1.48002
1.43367
1.27379
1.40001
1.40001
1.25245
1.4268
1.40001
1.28405
1.44101
1.40001
1.40001
1.40001
1.40001
1.40001
1.47822
1.40001
1.33773
1.43899
1.40001
1.52949
1.41276
1.40001
1.48099
1.18708
1.40001
1.27735
1.49271
1.40001
1.40001
1.52752
1.54453
1.40001
1.40001
1.40001
1.25422
1.25774
1.33543
1.44637
1.17689
1.52361
1.40001
1.40001
1.28129
1.52799
1.40001
1.2608
1.44463
1.40001
1.34962
1.40001
1.45758
1.40001
1.34569
1.40001
1.24223
1.40001
1.40001
1.37552
1.1896
1.52678
1.40001
1.40001
1.45603
1.40001
1.32433
1.2963
1.45524
1.19994
1.40001
1.18435
1.40001
1.22187
1.29676
1.3885
1.31498
1.40001
1.41967
1.45375
1.35723
1.35742
1.37448
1.40001
1.40382
1.35306
1.40001
1.40001
1.26676
1.25194
1.47503
1.1725
1.46231
1.40001
1.40001
1.40001
1.46019
1.68671
1.29424
1.46785
1.40001
1.41343
1.36727
1.28746
1.29055
1.54917
1.40001
1.49208
1.4663
1.36504
1.4439
1.42461
1.24335
1.36572
1.39992
1.29244
1.25272
1.40001
1.51617
1.40001
1.40001
1.21797
1.47402
1.40001
1.39168
1.40001
1.40001
1.3659
1.46887
1.40001
1.39854
1.40001
1.47541
1.5181
1.40001
1.11458
1.40001
1.47239
1.40001
1.39722
1.22499
1.40001
1.39995
1.30806
1.47345
1.40001
1.20046
1.40001
1.15874
1.37927
1.40011
1.47832
1.37502
1.1841
1.48056
1.50139
1.2821
1.57504
1.51174
1.39806
1.39116
1.47671
1.47898
1.20782
1.50287
1.49754
1.28545
1.40001
1.53442
1.40001
1.66617
1.31844
1.48533
1.48638
1.1826
1.43539
1.42949
1.40001
1.40841
1.48922
1.42654
1.34923
1.30127
1.51159
1.39457
1.32111
1.40001
1.48467
1.48423
1.40001
1.40001
1.40001
1.48335
1.32495
1.46808
1.486
1.40352
1.40001
1.49152
1.50494
1.45249
1.49039
1.47453
1.40001
1.66643
1.20473
1.48992
1.4971
1.47584
1.44978
1.40001
1.40001
1.30534
1.48854
1.30831
1.50451
1.49176
1.42177
1.42437
1.42021
1.71899
1.49817
1.42453
1.23524
1.40001
1.43999
1.49805
1.46261
1.40001
1.49956
1.40001
1.57359
1.43621
1.2993
1.59329
1.48641
1.43685
1.31627
1.43865
1.45983
1.5538
1.40001
1.45079
1.41384
1.37953
1.43737
1.49793
1.40001
1.49224
1.49589
1.48369
1.41183
1.32166
1.40001
1.61335
1.458
1.6984
1.40001
1.54154
1.28951
1.44738
1.57672
1.31142
1.48688
1.47873
1.39225
1.55657
1.59643
1.39563
1.50286
1.52125
1.40001
1.47799
1.46666
1.48435
1.52633
1.53255
1.25147
1.6291
1.50703
1.61587
1.48057
1.41149
1.50984
1.40001
1.50094
1.47981
1.46437
1.55749
1.40001
1.50559
1.31637
1.40001
1.70629
1.48151
1.54657
1.47291
1.40001
1.63043
1.32668
1.40001
1.55101
1.51175
1.54402
1.40001
1.40001
1.47078
1.54737
1.40001
1.51054
1.40001
1.53898
1.50799
1.29468
1.40001
1.54523
1.40001
1.53428
1.21366
1.40001
1.41979
1.51655
1.53974
1.52941
1.40001
1.40001
1.40001
1.48132
1.51563
1.32945
1.53528
1.44219
1.52237
1.5185
1.2492
1.42064
1.54048
1.40001
1.40001
1.47192
1.46925
1.43176
1.40001
1.47946
1.54317
1.40001
1.52963
1.34441
1.37136
1.3454
1.52014
1.4
1.51419
1.51603
1.49022
1.32512
1.52347
1.42039
1.44894
1.27131
1.41029
1.48931
1.40001
1.69877
1.51924
1.3205
1.50722
1.60533
1.45258
1.41806
1.31422
1.28989
1.40001
1.51465
1.52447
1.45457
1.48715
1.5211
1.40001
1.45695
1.49779
1.4546
1.52335
1.50854
1.40001
1.40001
1.52322
1.49189
1.45214
1.40001
1.21874
1.40001
1.40001
1.4537
1.5233
1.40001
1.49948
1.58265
1.47147
1.40001
1.30117
1.4589
1.53081
1.48277
1.40001
1.49277
1.41774
1.31699
1.49683
1.57098
1.40201
1.4976
1.40001
1.525
1.46543
1.25862
1.40001
1.40001
1.47286
1.32809
1.48371
1.40001
1.49589
1.5282
1.52426
1.40001
1.46178
1.4636
1.40001
1.45644
1.47352
1.46324
1.29429
1.41661
1.40001
1.30861
1.40001
1.53775
1.42055
1.40001
1.40001
1.46244
1.4352
1.47365
1.44761
1.19609
1.40001
1.40001
1.30861
1.31167
1.50786
1.40916
1.40001
1.35817
1.5371
1.48468
1.39458
1.40001
1.50634
1.40001
1.4666
1.40001
1.40001
1.43127
1.40001
1.54422
1.36129
1.40001
1.12403
1.51501
1.46992
1.24813
1.40001
1.42165
1.40001
1.49123
1.52085
1.40001
1.54252
1.40001
1.40001
1.44503
1.51273
1.31523
1.49893
1.40001
1.48387
1.49162
1.77056
1.57034
1.207
1.40001
1.31109
1.20855
1.40002
1.31296
1.40001
1.40001
1.307
1.46202
1.40001
1.16191
1.45814
1.5221
1.46575
1.54955
1.20181
1.39988
1.34532
1.38308
1.4044
1.43637
1.43789
1.42211
1.51963
1.40127
1.31376
1.32198
1.4
1.40001
1.55558
1.38034
1.40001
1.40001
1.29791
1.40001
1.40001
1.45541
1.4276
1.40001
1.5298
1.4
1.45246
1.31257
1.24707
1.40001
1.39955
1.45274
1.66173
1.17755
1.52744
1.45395
1.45591
1.31871
1.46382
1.2193
1.19768
1.19699
1.41967
1.19428
1.39908
1.54507
1.40001
1.4809
1.40001
1.21476
1.28563
1.6178
1.6007
1.40001
1.51219
1.20956
1.31382
1.39589
1.53774
1.46787
1.20108
1.40001
1.48061
1.29107
1.57803
1.50335
1.44348
1.40001
1.40001
1.40001
1.40001
1.4754
1.44558
1.53518
1.21392
1.51061
1.22902
1.40001
1.32565
1.60397
1.46188
1.6219
1.44118
1.48449
1.29448
1.40001
1.40001
1.195
1.40001
1.45518
1.32729
1.2251
1.40827
1.39153
1.35815
1.42235
1.40001
1.46891
1.40001
1.40001
1.47582
1.54598
1.4026
1.58122
1.31182
1.45325
1.48732
1.69007
1.31104
1.22427
1.48606
1.40001
1.297
1.54374
1.39537
1.39358
1.456
1.39202
1.48621
1.39508
1.40001
1.42837
1.44794
1.24489
1.40001
1.47001
1.30861
1.45492
1.30361
1.40001
1.16798
1.49519
1.43987
1.40001
1.30856
1.40001
1.40001
1.3986
1.40001
1.40001
1.45993
1.50949
1.26772
1.31229
1.24673
1.46723
1.44119
1.55326
1.40001
1.40001
1.26247
1.30416
1.39804
1.44731
1.47815
1.40001
1.43477
1.20089
1.45554
1.30816
1.29416
1.19804
1.40001
1.50335
1.46137
1.44148
1.55157
1.43723
1.40001
1.40001
1.68101
1.42847
1.55908
1.43819
1.46865
1.47619
1.44607
1.39915
1.40001
1.40495
1.38575
1.55561
1.40001
1.45392
1.30951
1.21413
1.40001
1.43538
1.46478
1.26954
1.41489
1.24495
1.4762
1.54069
1.40001
1.50586
1.42897
1.40001
1.40893
1.41138
1.35229
1.19776
1.40515
1.47398
1.43992
1.26968
1.4201
1.40001
1.48378
1.40001
1.24668
1.40001
1.40001
1.46977
1.20106
1.40001
1.38403
1.559
1.41495
1.40001
1.53693
1.38428
1.40001
1.40676
1.26911
1.41763
1.40724
1.48428
1.38845
1.21123
1.55949
1.42622
1.43863
1.23108
1.32339
1.40001
1.48141
1.33523
1.34302
1.42131
1.32405
1.40001
1.20335
1.48629
1.32539
1.40001
1.45855
1.27618
1.40001
1.4993
1.47654
1.49237
1.45891
1.32192
1.30686
1.31322
1.41736
1.45886
1.40001
1.31846
1.44308
1.45715
1.35204
1.26952
1.40001
1.27243
1.42685
1.40001
1.44887
1.40001
1.29209
1.43795
1.40001
1.49052
1.44969
1.40001
1.43101
1.40001
1.33851
1.42627
1.44155
1.49354
1.40001
1.19896
1.40001
1.4497
1.72217
1.4298
1.40001
1.44946
1.55883
1.4616
1.49307
1.46173
1.25556
1.33145
1.46236
1.40001
1.63217
1.27616
1.40001
1.30787
1.50146
1.36642
1.43091
1.5994
1.19932
1.43315
1.31022
1.40001
1.49552
1.56503
1.44747
1.45659
1.35017
1.40001
1.4566
1.40001
1.26906
1.40001
1.57623
1.46004
1.29631
1.4
1.46341
1.49894
1.56174
1.40001
1.53481
1.71387
1.40001
1.41961
1.26813
1.45558
1.26764
1.44788
1.60702
1.40001
1.40001
1.38993
1.36433
1.5207
1.47203
1.55566
1.39685
1.30885
1.53727
1.36606
1.40001
1.32027
1.31358
1.56729
1.40001
1.26615
1.26858
1.19827
1.44839
1.46973
1.40001
1.40001
1.30311
1.19197
1.52367
1.46624
1.49843
1.49188
1.45143
1.19761
1.39921
1.43388
1.40001
1.60686
1.31471
1.34263
1.40001
1.3185
1.69039
1.46827
1.40001
1.32622
1.36015
1.17502
1.53509
1.48378
1.50135
1.43598
1.41351
1.36837
1.4383
1.40001
1.32971
1.48815
1.48165
1.44574
1.49418
1.47606
1.50041
1.40001
1.35946
1.47143
1.46207
1.40001
1.36679
1.42568
1.44443
1.39995
1.39726
1.51478
1.19974
1.44361
1.43728
1.40001
1.44505
1.50651
1.40001
1.52224
1.4013
1.32281
1.30649
1.44048
1.40001
1.3169
1.32238
1.45502
1.45741
1.37224
1.47595
1.52687
1.43015
1.43274
1.40001
1.63137
1.33532
1.3845
1.47821
1.38804
1.45877
1.53562
1.68602
1.40001
1.42348
1.54259
1.48654
1.40001
1.47943
1.49177
1.31237
1.47456
1.40001
1.46908
1.49868
1.44283
1.40001
1.53024
1.38846
1.49426
1.50392
1.45037
1.50354
1.20911
1.47013
1.54077
1.40001
1.40001
1.58525
1.55751
1.51323
1.31935
1.4927
1.33118
1.2539
1.40956
1.36795
1.39011
1.28984
1.28545
1.45985
1.48536
1.52037
1.34532
1.35937
1.32149
1.51148
1.38549
1.42078
1.49247
1.52529
1.40001
1.35434
1.43266
1.44867
1.40001
1.55083
1.31739
1.45851
1.39052
1.40001
1.53341
1.40391
1.5022
1.40001
1.43038
1.38757
1.31579
1.19157
1.38635
1.40001
1.25106
1.45434
1.50314
1.44611
1.21804
1.43316
1.59112
1.47551
1.53854
1.33955
1.6745
1.42555
1.28657
1.48858
1.27019
1.40001
1.5008
1.40265
1.41597
1.68788
1.4248
1.40001
1.40001
1.34737
1.44598
1.49164
1.40001
1.2902
1.36164
1.49
1.4936
1.39198
1.3126
1.49031
1.54799
1.48901
1.50137
1.40001
1.3169
1.4264
1.47964
1.64424
1.40001
1.40001
1.41238
1.40071
1.40001
1.59328
1.49227
1.40001
1.42705
1.59262
1.40001
1.40001
1.43058
1.28448
1.34231
1.27321
1.31459
1.35049
1.42242
1.54729
1.40001
1.41363
1.51563
1.40001
1.16652
1.31687
1.50496
1.419
1.40001
1.2151
1.17209
1.31954
1.37529
1.16013
1.46165
1.4881
1.38447
1.44239
1.42875
1.36167
1.28356
1.43834
1.40001
1.47454
1.44082
1.47874
1.3987
1.3655
1.34897
1.28652
1.32978
1.40001
1.42575
1.40001
1.50701
1.55345
1.15624
1.35764
1.36369
1.35571
1.40001
1.31932
1.40001
1.50207
1.2115
1.38083
1.36325
1.44419
1.36666
1.40001
1.43329
1.72152
1.40001
1.37837
1.3562
1.25662
1.35437
1.59346
1.58446
1.40001
1.4885
1.3625
1.65192
1.40001
1.31156
1.40001
1.56514
1.31891
1.42172
1.4688
1.40001
1.15672
1.32161
1.35559
1.48614
1.40001
1.40001
1.40001
1.40966
1.45982
1.46097
1.47244
1.4
1.54772
1.5903
1.47499
1.44335
1.18578
1.2582
1.54818
1.55979
1.40001
1.40001
1.29634
1.30339
1.39571
1.40001
1.35846
1.40001