/*--------------------------------*- C++ -*----------------------------------*\
  =========                 |
  \\      /  F ield         | OpenFOAM: The Open Source CFD Toolbox
   \\    /   O peration     | Website:  https://openfoam.org
    \\  /    A nd           | Version:  12
     \\/     M anipulation  |
\*---------------------------------------------------------------------------*/
FoamFile
{
    format      ascii;
    class       volScalarField;
    location    "24";
    object      T;
}
// * * * * * * * * * * * * * * * * * * * * * * * * * * * * * * * * * * * * * //

dimensions      [0 0 0 1 0 0 0];

internalField   nonuniform List<scalar> 
9801
(
0.803866
0.807447
0.808832
0.810067
0.811042
0.812071
0.8127
0.811445
0.810313
0.810485
0.811188
0.812112
0.813649
0.817949
0.823442
0.827024
0.829481
0.831419
0.833011
0.834623
0.83519
0.832876
0.831397
0.831416
0.83187
0.832704
0.835972
0.841431
0.845408
0.848047
0.849979
0.851622
0.852872
0.851039
0.847657
0.846852
0.847555
0.848722
0.851805
0.859137
0.864272
0.866701
0.868213
0.869379
0.869009
0.864713
0.862564
0.863286
0.864682
0.866942
0.872645
0.880344
0.884636
0.886673
0.887693
0.888002
0.887469
0.882759
0.879521
0.879987
0.881609
0.883675
0.888814
0.898003
0.904322
0.907234
0.908998
0.910106
0.910916
0.907321
0.900502
0.898816
0.900375
0.903034
0.90936
0.921131
0.92949
0.933561
0.936055
0.938053
0.939246
0.93324
0.923902
0.922033
0.92487
0.930088
0.943778
0.959063
0.967335
0.972986
0.97856
0.982202
0.977807
0.966252
0.95953
0.961356
0.98451
1.17306
1.54817
0.806614
0.811265
0.8131
0.814581
0.81572
0.816759
0.81757
0.816309
0.814297
0.814157
0.814809
0.815736
0.817535
0.823365
0.829441
0.83258
0.834546
0.836144
0.837461
0.838207
0.836293
0.833228
0.832539
0.833154
0.834242
0.836741
0.842559
0.847889
0.850949
0.852964
0.854357
0.855396
0.854703
0.851184
0.849547
0.850191
0.851261
0.852971
0.858058
0.864895
0.868795
0.870557
0.871527
0.872142
0.871025
0.868136
0.867501
0.868476
0.869865
0.871472
0.876214
0.883301
0.887267
0.889178
0.890187
0.890976
0.891722
0.888889
0.885698
0.885398
0.886463
0.887933
0.891748
0.900388
0.906861
0.910183
0.912393
0.914042
0.91555
0.912987
0.906068
0.903846
0.905094
0.907381
0.912263
0.923587
0.932781
0.937482
0.940537
0.943073
0.94517
0.940206
0.930638
0.928122
0.930711
0.935198
0.945689
0.960746
0.970603
0.977182
0.983615
0.988626
0.986308
0.976842
0.968571
0.968896
0.974378
1.16217
1.57008
0.81021
0.816448
0.818961
0.820586
0.821734
0.822789
0.823376
0.820956
0.818597
0.818902
0.819902
0.82137
0.824474
0.831683
0.837533
0.840198
0.8417
0.842775
0.842997
0.840894
0.837534
0.836631
0.837225
0.838319
0.840054
0.84486
0.852083
0.856553
0.858492
0.859573
0.860265
0.859696
0.857349
0.855779
0.855971
0.85727
0.858818
0.861227
0.866897
0.872184
0.874502
0.875597
0.876337
0.877164
0.877571
0.876518
0.876387
0.877144
0.878358
0.879599
0.881873
0.887346
0.891767
0.89467
0.896918
0.898729
0.900496
0.899801
0.896142
0.894829
0.895254
0.896347
0.898411
0.90543
0.913936
0.918694
0.921545
0.923684
0.9256
0.92444
0.917994
0.915013
0.915982
0.918369
0.921974
0.932416
0.944093
0.950048
0.953525
0.956458
0.958688
0.955646
0.946843
0.943101
0.945247
0.950116
0.957928
0.974169
0.988832
0.997055
1.00365
1.01041
1.01055
1.0048
0.99864
0.998231
0.997909
1.17597
1.60232
0.817842
0.825113
0.82751
0.828954
0.829989
0.830834
0.830282
0.827885
0.827429
0.828293
0.829524
0.831198
0.83533
0.842613
0.847438
0.849219
0.849923
0.849476
0.848231
0.846478
0.845274
0.845674
0.847012
0.848619
0.851056
0.85621
0.862836
0.866167
0.867394
0.868044
0.868423
0.867829
0.866331
0.86648
0.86775
0.869003
0.870325
0.872007
0.876078
0.880112
0.88268
0.885212
0.887423
0.889184
0.890892
0.890908
0.889438
0.888476
0.887834
0.888213
0.889857
0.895508
0.903352
0.908428
0.911663
0.913983
0.915952
0.916087
0.910626
0.906745
0.906808
0.908501
0.910982
0.917414
0.928295
0.934806
0.93806
0.940457
0.942566
0.94253
0.936633
0.932531
0.933279
0.936126
0.939488
0.947318
0.960252
0.968149
0.972358
0.975794
0.97912
0.979353
0.97245
0.966425
0.966381
0.971217
0.977804
0.99009
1.00678
1.01843
1.0265
1.0348
1.03879
1.03601
1.02947
1.02513
1.01809
1.19329
1.63642
0.828401
0.835224
0.837353
0.838685
0.839709
0.840438
0.839856
0.839081
0.839717
0.841072
0.842654
0.844464
0.84825
0.853827
0.856799
0.85798
0.858335
0.858588
0.858764
0.858118
0.857881
0.85884
0.860307
0.861908
0.863568
0.867495
0.873253
0.876612
0.878388
0.879771
0.881058
0.881768
0.880768
0.880202
0.880532
0.880862
0.881369
0.882437
0.88559
0.891803
0.896906
0.900555
0.903351
0.905534
0.907504
0.90751
0.902615
0.899304
0.899242
0.90084
0.903114
0.908979
0.919538
0.92611
0.929131
0.931103
0.93266
0.932065
0.925997
0.922022
0.922685
0.925068
0.927971
0.933481
0.944355
0.952193
0.955942
0.958484
0.960751
0.962022
0.958066
0.952199
0.951414
0.954214
0.957777
0.963211
0.975492
0.986584
0.992128
0.995881
0.99957
1.0019
0.99788
0.990365
0.986698
0.988762
0.994995
1.00384
1.01879
1.03371
1.04397
1.05254
1.05985
1.06047
1.05504
1.04691
1.02952
1.20607
1.66247
0.839963
0.845991
0.848087
0.849649
0.851102
0.852436
0.852625
0.852793
0.853796
0.855084
0.856389
0.857532
0.85909
0.862935
0.865995
0.867879
0.86952
0.870964
0.872367
0.872826
0.872345
0.872908
0.873893
0.874688
0.875704
0.87764
0.883417
0.889007
0.891996
0.89393
0.89555
0.89712
0.897271
0.894464
0.892042
0.891684
0.892841
0.894528
0.897438
0.905604
0.913714
0.91782
0.919993
0.92168
0.92276
0.920197
0.913945
0.911985
0.913335
0.915531
0.918258
0.924258
0.935333
0.942216
0.944929
0.94658
0.947415
0.946721
0.942371
0.938039
0.938054
0.94057
0.943517
0.947941
0.957487
0.966503
0.970881
0.973557
0.976006
0.978417
0.977715
0.971114
0.967355
0.968482
0.971915
0.976057
0.984811
0.997996
1.00665
1.01162
1.01528
1.01848
1.01721
1.01015
1.00492
1.00386
1.00691
1.01294
1.02225
1.03596
1.04776
1.0568
1.06471
1.0695
1.0681
1.0618
1.04246
1.20847
1.67829
0.850904
0.856822
0.858891
0.860582
0.862245
0.863835
0.86475
0.865237
0.866281
0.867298
0.867375
0.867238
0.867954
0.870735
0.875504
0.879037
0.881744
0.883873
0.885689
0.887112
0.886718
0.885876
0.885401
0.885304
0.886069
0.887479
0.891869
0.900075
0.904858
0.907029
0.90855
0.910081
0.910611
0.906322
0.902129
0.902102
0.903798
0.905872
0.908791
0.91706
0.927205
0.93155
0.93332
0.934302
0.933693
0.93058
0.925819
0.923741
0.924926
0.927493
0.930787
0.936738
0.946817
0.953272
0.955641
0.956924
0.957819
0.958481
0.956963
0.952437
0.950494
0.952053
0.95462
0.957565
0.964372
0.974605
0.980932
0.984199
0.98686
0.989498
0.991397
0.987153
0.980541
0.978682
0.98066
0.984049
0.988901
1.00041
1.01337
1.02056
1.02499
1.02859
1.03065
1.02696
1.02073
1.01678
1.01585
1.0185
1.02417
1.03381
1.0459
1.05563
1.06364
1.07003
1.0722
1.06918
1.05547
1.21036
1.68869
0.859448
0.866702
0.86937
0.871051
0.872502
0.873931
0.875107
0.875436
0.875605
0.875338
0.874546
0.874494
0.875438
0.877881
0.884381
0.889807
0.892818
0.894837
0.896528
0.898238
0.898568
0.895525
0.89335
0.893314
0.894416
0.895931
0.899181
0.90793
0.914385
0.916984
0.918531
0.919673
0.919527
0.915836
0.911807
0.911209
0.912532
0.914509
0.917733
0.925602
0.935429
0.939672
0.941195
0.941374
0.94095
0.940136
0.937224
0.934514
0.934832
0.937035
0.939813
0.944157
0.951803
0.958309
0.961701
0.963824
0.96581
0.967781
0.968793
0.964922
0.960811
0.959799
0.961027
0.963214
0.966853
0.976652
0.986514
0.991689
0.994674
0.997232
0.999619
0.998823
0.99157
0.986747
0.985952
0.988086
0.991619
0.997949
1.0115
1.02335
1.02977
1.03429
1.03835
1.03968
1.03429
1.02732
1.02366
1.02359
1.0264
1.032
1.04115
1.05151
1.05986
1.06694
1.071
1.07157
1.06513
1.21588
1.69661
0.86539
0.873599
0.877716
0.879722
0.881056
0.882273
0.883503
0.883923
0.882024
0.879549
0.87907
0.880143
0.881737
0.884533
0.891806
0.898529
0.90163
0.903402
0.904909
0.90625
0.905729
0.901333
0.899002
0.899534
0.90096
0.902803
0.906178
0.914058
0.920576
0.923255
0.924669
0.925474
0.925666
0.923887
0.920295
0.919411
0.920544
0.922454
0.925103
0.930832
0.938311
0.942628
0.944646
0.94591
0.947431
0.948511
0.947152
0.94487
0.944344
0.944825
0.945759
0.947224
0.950859
0.95921
0.965765
0.969563
0.972403
0.974608
0.976512
0.975264
0.968728
0.964792
0.96431
0.966199
0.968835
0.975449
0.987936
0.996373
1.00057
1.00304
1.00508
1.00617
1.00129
0.993791
0.990712
0.990942
0.993423
0.996931
1.00484
1.01961
1.03122
1.03783
1.04202
1.04534
1.04492
1.03978
1.03375
1.03013
1.02975
1.03224
1.03757
1.04616
1.05573
1.06364
1.06947
1.07213
1.07069
1.22348
1.70261
0.87081
0.877636
0.883179
0.885674
0.887045
0.888125
0.889187
0.889665
0.88635
0.882751
0.882778
0.884037
0.885727
0.888899
0.897049
0.905049
0.908384
0.910032
0.91124
0.911542
0.909626
0.905742
0.903869
0.904368
0.905748
0.907525
0.910954
0.917909
0.923875
0.926583
0.928003
0.92917
0.930316
0.930307
0.927972
0.926944
0.927926
0.929319
0.930633
0.932378
0.937812
0.943773
0.947367
0.950284
0.952886
0.954942
0.956042
0.953615
0.95014
0.948018
0.947194
0.948068
0.9504
0.958199
0.968666
0.974745
0.977923
0.979846
0.981507
0.982156
0.976155
0.969028
0.96738
0.968548
0.971087
0.974885
0.985319
0.997815
1.00394
1.00663
1.00856
1.01055
1.01019
1.00308
0.997121
0.99569
0.996345
0.998295
1.00151
1.00973
1.02481
1.03625
1.04257
1.0469
1.05029
1.05046
1.04593
1.03937
1.03475
1.03385
1.03633
1.04128
1.05016
1.06017
1.06781
1.07207
1.07458
1.23176
1.70761
0.875405
0.880631
0.886752
0.889727
0.891174
0.892259
0.893229
0.893178
0.889806
0.887087
0.88729
0.888523
0.889953
0.892616
0.900856
0.909305
0.912661
0.914012
0.914331
0.914029
0.913012
0.910404
0.908426
0.908796
0.910025
0.911467
0.91343
0.918894
0.925121
0.928582
0.930856
0.932878
0.934469
0.93591
0.935031
0.932885
0.932233
0.931965
0.931792
0.932836
0.936327
0.944401
0.951248
0.955702
0.95843
0.960038
0.961582
0.960908
0.95422
0.948741
0.947416
0.948808
0.9512
0.9569
0.969339
0.978203
0.981753
0.983542
0.984664
0.985381
0.983016
0.975505
0.971643
0.971944
0.974061
0.976377
0.980647
0.993263
1.00424
1.00895
1.01189
1.01448
1.01698
1.01501
1.00683
1.00152
0.999734
0.999683
1.00164
1.00528
1.01468
1.02975
1.04132
1.04801
1.05248
1.05464
1.05419
1.05048
1.04379
1.0382
1.03666
1.03868
1.04339
1.05356
1.06417
1.07109
1.07653
1.24029
1.71212
0.878009
0.882664
0.889304
0.892774
0.894234
0.895294
0.896124
0.895964
0.893459
0.891298
0.891605
0.892972
0.894702
0.897304
0.903603
0.91076
0.914069
0.91542
0.91604
0.916608
0.916879
0.915301
0.913263
0.91294
0.913481
0.914227
0.915357
0.918217
0.925413
0.931323
0.934789
0.93718
0.939007
0.940521
0.941225
0.938146
0.934207
0.932134
0.932391
0.933958
0.93646
0.944345
0.954693
0.960219
0.962783
0.964417
0.965349
0.964909
0.959327
0.952106
0.950233
0.951254
0.953387
0.957058
0.967093
0.978545
0.983494
0.985513
0.986804
0.988273
0.989157
0.984544
0.978149
0.976066
0.975838
0.977038
0.979611
0.985849
1.00011
1.01061
1.01537
1.01871
1.02147
1.02319
1.01822
1.00849
1.00325
1.00258
1.00396
1.00642
1.01027
1.01937
1.03352
1.04449
1.05098
1.05522
1.05724
1.05685
1.05353
1.04679
1.0405
1.03823
1.03936
1.04425
1.05594
1.06653
1.0756
1.2494
1.71609
0.879432
0.884109
0.891242
0.895359
0.89692
0.897924
0.898775
0.899034
0.897113
0.895713
0.896153
0.897353
0.898782
0.900417
0.904286
0.910492
0.914241
0.916278
0.917914
0.91925
0.920467
0.920381
0.917757
0.915809
0.915167
0.915525
0.9167
0.918498
0.924697
0.933819
0.939148
0.941791
0.943284
0.944561
0.945757
0.943495
0.93642
0.933342
0.933657
0.935333
0.937695
0.944071
0.955651
0.962514
0.965216
0.966496
0.966597
0.966675
0.964427
0.958156
0.955137
0.955777
0.957495
0.959055
0.963062
0.974811
0.983889
0.987575
0.989815
0.991769
0.99346
0.992906
0.985582
0.979261
0.97731
0.977599
0.979564
0.982603
0.991114
1.00694
1.01701
1.02107
1.02324
1.02508
1.02617
1.02135
1.01303
1.00878
1.00809
1.0088
1.01066
1.01438
1.0236
1.03693
1.04699
1.05323
1.05736
1.05906
1.05863
1.05551
1.04862
1.0415
1.03848
1.03892
1.04502
1.05773
1.07105
1.25834
1.71953
0.880751
0.88547
0.892898
0.897656
0.899535
0.900679
0.901675
0.902452
0.901532
0.900163
0.900031
0.900501
0.901256
0.902318
0.904231
0.909966
0.915764
0.918787
0.92067
0.922155
0.923318
0.924267
0.922224
0.917872
0.9162
0.916597
0.918054
0.919821
0.92427
0.934846
0.942414
0.945401
0.946991
0.947965
0.948344
0.946678
0.940576
0.93631
0.936292
0.937622
0.939596
0.94359
0.953627
0.962088
0.965227
0.966605
0.967923
0.969464
0.970049
0.966121
0.961034
0.959504
0.959511
0.960387
0.962301
0.96864
0.981695
0.989795
0.993491
0.995747
0.997224
0.998447
0.994936
0.985885
0.981235
0.981123
0.982801
0.98441
0.987073
0.995485
1.01109
1.01994
1.02361
1.02698
1.03008
1.03159
1.02643
1.01797
1.01303
1.01173
1.01265
1.01469
1.01864
1.02814
1.04049
1.04939
1.05505
1.05891
1.06049
1.05987
1.05658
1.04933
1.04123
1.03754
1.03818
1.0464
1.06353
1.26629
1.72242
0.882278
0.886487
0.893891
0.899681
0.902242
0.903697
0.904788
0.905762
0.905943
0.904079
0.902739
0.902278
0.90261
0.903721
0.905174
0.909203
0.916907
0.921606
0.923666
0.924922
0.925889
0.926698
0.926405
0.921741
0.918656
0.918872
0.920216
0.921945
0.925057
0.934598
0.944092
0.947905
0.949588
0.950363
0.950651
0.95019
0.946281
0.941241
0.940104
0.940924
0.942234
0.943977
0.949285
0.959997
0.966419
0.969194
0.971016
0.972578
0.974047
0.973277
0.966927
0.961948
0.960665
0.961245
0.96297
0.965876
0.975425
0.989116
0.995535
0.997673
0.998882
1.0007
1.00233
0.997714
0.989624
0.986472
0.985735
0.985802
0.987106
0.989752
0.998526
1.01469
1.02527
1.02972
1.03235
1.03495
1.03547
1.03106
1.02316
1.01762
1.01586
1.01656
1.01864
1.02309
1.03267
1.04399
1.05173
1.05656
1.05993
1.06132
1.06083
1.05747
1.04935
1.03971
1.03578
1.03739
1.05235
1.27115
1.72433
0.884665
0.887855
0.893994
0.90129
0.905005
0.906762
0.90792
0.908812
0.909536
0.908008
0.904948
0.903874
0.904041
0.905121
0.906532
0.908886
0.916197
0.923101
0.926039
0.927455
0.928476
0.929461
0.930272
0.927414
0.922761
0.922167
0.923347
0.92493
0.926883
0.933037
0.943615
0.948928
0.95101
0.952099
0.95277
0.953455
0.952071
0.946657
0.943378
0.942869
0.943426
0.945061
0.947577
0.955786
0.967069
0.972488
0.974824
0.976298
0.977326
0.978262
0.974684
0.966747
0.963347
0.963548
0.965264
0.967174
0.970295
0.981284
0.99365
0.998728
1.00176
1.00436
1.00643
1.00728
1.00124
0.992759
0.988849
0.988174
0.988738
0.99005
0.992517
1.00099
1.0175
1.02813
1.0328
1.03591
1.03865
1.0389
1.03536
1.02829
1.02241
1.0201
1.02057
1.02237
1.02648
1.0362
1.04681
1.05383
1.05824
1.06128
1.06285
1.06203
1.05819
1.04788
1.03738
1.03354
1.03653
1.27166
1.7251
0.887278
0.889899
0.893693
0.901906
0.907276
0.909544
0.91062
0.911233
0.911698
0.911767
0.908894
0.906386
0.906093
0.906692
0.907756
0.909233
0.914286
0.923278
0.927971
0.930094
0.93156
0.932724
0.933801
0.933164
0.927919
0.925414
0.925958
0.927346
0.929004
0.931874
0.94098
0.949689
0.953016
0.954581
0.955276
0.955508
0.955697
0.952754
0.94724
0.945001
0.945262
0.946671
0.948548
0.951915
0.962791
0.972912
0.976764
0.978247
0.979135
0.980426
0.9812
0.975796
0.968978
0.967204
0.967292
0.968048
0.969668
0.973287
0.985833
0.99881
1.00465
1.00739
1.0096
1.01182
1.0121
1.00477
0.99597
0.992167
0.991158
0.991318
0.992699
0.99507
1.00362
1.01959
1.0308
1.0361
1.03927
1.04136
1.04225
1.04066
1.03423
1.02721
1.02327
1.02284
1.02438
1.02882
1.03918
1.0499
1.05665
1.06074
1.06336
1.06382
1.06244
1.05694
1.04448
1.03283
1.02568
1.26671
1.7248
0.890033
0.892536
0.894355
0.900878
0.908152
0.911258
0.912561
0.913455
0.914272
0.915139
0.9145
0.910544
0.90838
0.907982
0.908696
0.910038
0.913055
0.922185
0.929906
0.933244
0.935038
0.936291
0.937201
0.937515
0.933523
0.928781
0.928213
0.929475
0.931245
0.933096
0.93744
0.947536
0.953974
0.956147
0.956863
0.957383
0.958503
0.959158
0.95477
0.949685
0.948566
0.948989
0.949962
0.951498
0.955921
0.968506
0.977075
0.980116
0.98197
0.983329
0.98487
0.984522
0.976875
0.970373
0.968743
0.968959
0.969969
0.971945
0.976572
0.990475
1.00325
1.00867
1.01151
1.0138
1.01601
1.01585
1.00765
0.998521
0.994599
0.994227
0.995204
0.996473
0.99843
1.00498
1.0197
1.03207
1.03866
1.04265
1.04545
1.04634
1.04505
1.03814
1.02921
1.0243
1.02394
1.02587
1.03093
1.04222
1.05317
1.05926
1.06239
1.06386
1.06344
1.0617
1.05359
1.03766
1.02241
1.25693
1.72363
0.892568
0.895069
0.896401
0.899328
0.907115
0.912482
0.914678
0.916003
0.917073
0.918112
0.919116
0.915941
0.910307
0.908756
0.909555
0.911
0.913172
0.920567
0.931269
0.936248
0.938306
0.939468
0.939638
0.939573
0.938757
0.934318
0.93173
0.93212
0.933604
0.934819
0.936198
0.941213
0.951498
0.956709
0.958927
0.960546
0.962066
0.963472
0.963343
0.957084
0.952048
0.950756
0.950614
0.951689
0.953738
0.960756
0.974524
0.982122
0.984928
0.986786
0.988177
0.989414
0.986502
0.97715
0.971789
0.970779
0.971648
0.973455
0.975786
0.979927
0.993496
1.00681
1.01227
1.01442
1.01619
1.01874
1.01935
1.01314
1.00449
1.00008
0.998609
0.998203
0.998523
1.00024
1.00689
1.02167
1.03469
1.04163
1.04521
1.04728
1.04816
1.04691
1.03985
1.03112
1.02633
1.02546
1.02727
1.0327
1.04471
1.05492
1.05974
1.06234
1.06304
1.06276
1.06003
1.04654
1.02772
1.24517
1.72252
0.895159
0.896873
0.89767
0.899191
0.904614
0.913226
0.917299
0.919045
0.920171
0.92114
0.922213
0.920545
0.913251
0.910554
0.911376
0.912949
0.915088
0.919713
0.930096
0.937731
0.940346
0.941154
0.941175
0.941804
0.942842
0.941739
0.93702
0.935155
0.935005
0.9348
0.935564
0.937647
0.945623
0.956519
0.961667
0.964415
0.966058
0.967147
0.968239
0.96549
0.956947
0.952462
0.951975
0.952923
0.954545
0.956988
0.965957
0.979758
0.986039
0.988
0.988535
0.989471
0.991115
0.988654
0.980308
0.976031
0.975786
0.976982
0.97764
0.978598
0.981735
0.994305
1.00797
1.01429
1.01776
1.021
1.02381
1.02412
1.01755
1.00789
1.00188
1.00011
1.00046
1.00185
1.00415
1.00942
1.02308
1.03579
1.04253
1.04606
1.04834
1.04987
1.04946
1.04264
1.03274
1.02716
1.02605
1.02802
1.03391
1.04615
1.05529
1.05967
1.06242
1.06273
1.06236
1.05403
1.03873
1.23626
1.7222
0.897331
0.897873
0.898553
0.900001
0.903338
0.912789
0.91958
0.921941
0.923126
0.923879
0.923898
0.921573
0.916879
0.913832
0.914211
0.916095
0.918858
0.921298
0.926282
0.935451
0.940249
0.941919
0.943083
0.944326
0.945744
0.946798
0.943824
0.937911
0.935139
0.934426
0.935253
0.936899
0.940372
0.952114
0.963098
0.967347
0.969281
0.970317
0.970845
0.971094
0.965344
0.956928
0.954556
0.955374
0.957184
0.958645
0.960511
0.969195
0.982334
0.987919
0.990201
0.99245
0.994497
0.996338
0.993363
0.984911
0.980409
0.979145
0.978639
0.979248
0.980681
0.983516
0.995052
1.01062
1.01884
1.02203
1.02414
1.02539
1.02598
1.02224
1.01334
1.00673
1.00424
1.00382
1.00386
1.00557
1.0111
1.02509
1.03773
1.04446
1.04839
1.05124
1.05285
1.05162
1.04313
1.03307
1.02758
1.02668
1.02887
1.03498
1.04695
1.05546
1.05991
1.06174
1.06228
1.05813
1.04887
1.23313
1.72301
0.898905
0.898487
0.899492
0.900991
0.903442
0.911634
0.920718
0.923883
0.924829
0.92484
0.924045
0.923612
0.921659
0.918864
0.918312
0.919707
0.921581
0.922907
0.924316
0.929445
0.93871
0.943549
0.945859
0.947308
0.948497
0.949564
0.949778
0.943611
0.937187
0.935681
0.93646
0.938012
0.939916
0.945896
0.960201
0.968623
0.971031
0.971678
0.971861
0.9728
0.972719
0.965615
0.959347
0.958342
0.959004
0.959346
0.960168
0.962431
0.971844
0.985455
0.992416
0.995535
0.998162
1.00054
1.00205
0.998184
0.988698
0.98263
0.981051
0.981877
0.982766
0.98344
0.985261
0.994744
1.01005
1.01866
1.02258
1.02579
1.02895
1.03005
1.02688
1.01779
1.00923
1.00496
1.00419
1.00511
1.00726
1.01367
1.02848
1.04085
1.04711
1.05033
1.05217
1.05294
1.05176
1.04457
1.03423
1.02838
1.02743
1.02931
1.03512
1.04652
1.05477
1.05921
1.06102
1.06029
1.05588
1.23588
1.72518
0.901004
0.900001
0.901115
0.902759
0.904981
0.909936
0.918983
0.923783
0.924887
0.925
0.925432
0.926217
0.927125
0.925516
0.922682
0.922167
0.922525
0.922852
0.923769
0.925753
0.933445
0.943746
0.948102
0.949829
0.950757
0.951722
0.952753
0.95067
0.942161
0.938209
0.938519
0.940201
0.942291
0.944765
0.952561
0.965388
0.971002
0.972502
0.973511
0.974253
0.975301
0.974618
0.967411
0.961837
0.960294
0.960274
0.960923
0.962147
0.964126
0.973222
0.988123
0.996229
0.999528
1.00136
1.00355
1.00579
1.003
0.993942
0.987846
0.985668
0.98437
0.983941
0.984633
0.986339
0.994557
1.0108
1.02231
1.02716
1.02973
1.03119
1.03189
1.03024
1.02189
1.0125
1.00746
1.00611
1.0068
1.00912
1.01572
1.03061
1.0423
1.04801
1.05155
1.05422
1.05489
1.05338
1.04654
1.03498
1.02845
1.02743
1.02848
1.03359
1.04537
1.05428
1.05863
1.05949
1.0616
1.24313
1.72833
0.903915
0.902118
0.903241
0.905459
0.907253
0.908657
0.913342
0.921562
0.925447
0.927044
0.928381
0.930156
0.931576
0.932314
0.928933
0.924663
0.922902
0.922478
0.923397
0.925044
0.928693
0.940176
0.949243
0.95205
0.953392
0.954071
0.954449
0.954331
0.949052
0.942238
0.941053
0.942471
0.944544
0.946386
0.948284
0.955813
0.967701
0.973047
0.974783
0.975546
0.977183
0.979194
0.978658
0.971317
0.965094
0.963252
0.963098
0.963215
0.963659
0.965274
0.97411
0.989677
0.998006
1.00184
1.00548
1.00833
1.01018
1.00721
0.997443
0.989331
0.986019
0.985783
0.986252
0.987314
0.989231
0.995727
1.01109
1.0231
1.02836
1.03114
1.03326
1.03494
1.03426
1.02611
1.01518
1.00866
1.00681
1.00728
1.00969
1.01718
1.03312
1.0455
1.05176
1.05494
1.05604
1.05566
1.05411
1.04694
1.03505
1.02827
1.02662
1.02709
1.03243
1.04469
1.05371
1.05672
1.06449
1.25264
1.73191
0.908454
0.905589
0.905903
0.907382
0.907432
0.907821
0.909536
0.916016
0.925067
0.929862
0.932782
0.934391
0.935418
0.936445
0.935665
0.929017
0.924002
0.923061
0.924015
0.925653
0.927769
0.93453
0.947407
0.953655
0.955232
0.955555
0.955468
0.956055
0.955649
0.949814
0.94554
0.945365
0.946824
0.948101
0.94803
0.949319
0.95658
0.969039
0.97506
0.978061
0.980872
0.98303
0.984725
0.983163
0.974248
0.967194
0.964611
0.963825
0.964148
0.965319
0.967355
0.975841
0.992561
1.00309
1.00695
1.00899
1.01032
1.01145
1.01027
1.00279
0.994615
0.990832
0.989699
0.9896
0.989908
0.991218
0.996206
1.01126
1.02532
1.03221
1.03547
1.03694
1.03754
1.0363
1.02718
1.01503
1.0089
1.00758
1.0089
1.01177
1.01972
1.03572
1.04764
1.053
1.05477
1.05425
1.05414
1.05455
1.04819
1.03686
1.02956
1.02651
1.02572
1.03077
1.0431
1.05077
1.06404
1.26283
1.7351
0.913916
0.910212
0.907668
0.906853
0.906558
0.907522
0.909026
0.911603
0.920899
0.931293
0.935981
0.937886
0.938534
0.939161
0.939592
0.93481
0.926919
0.924749
0.925644
0.92741
0.929396
0.93175
0.939619
0.950816
0.954916
0.956022
0.956849
0.958234
0.96015
0.960042
0.954124
0.950044
0.949164
0.948299
0.947339
0.947909
0.949856
0.958768
0.973015
0.980685
0.98379
0.985953
0.98784
0.989316
0.986356
0.97604
0.968423
0.96638
0.967241
0.96899
0.970251
0.971508
0.977261
0.992432
1.00268
1.00702
1.01016
1.01337
1.01587
1.01567
1.00847
0.998577
0.992844
0.990724
0.990324
0.990762
0.992711
0.998399
1.01376
1.02785
1.03409
1.03621
1.03666
1.03727
1.03632
1.02808
1.01792
1.01276
1.01191
1.01264
1.01467
1.02081
1.03506
1.04619
1.05159
1.05414
1.05472
1.05551
1.05624
1.05074
1.03922
1.02958
1.02446
1.02236
1.02826
1.04059
1.05966
1.27226
1.73747
0.917293
0.916204
0.910669
0.907857
0.90762
0.908543
0.909967
0.91147
0.915688
0.928453
0.937269
0.940111
0.941243
0.941916
0.942609
0.940948
0.933092
0.92811
0.927898
0.929381
0.930934
0.932073
0.934005
0.942328
0.953057
0.957482
0.959461
0.961702
0.963512
0.964875
0.963385
0.956111
0.950362
0.948189
0.947647
0.948287
0.949684
0.951864
0.961871
0.977033
0.984114
0.986398
0.987451
0.989012
0.99099
0.989455
0.980854
0.974517
0.972711
0.972053
0.971485
0.971406
0.972193
0.976211
0.990319
1.00456
1.0118
1.01498
1.0175
1.01949
1.01889
1.01234
1.00215
0.995286
0.992762
0.992938
0.99492
0.997208
1.00132
1.01472
1.02819
1.03393
1.036
1.03757
1.03865
1.03877
1.03177
1.02198
1.01605
1.01373
1.013
1.01392
1.01902
1.03308
1.04615
1.05322
1.0557
1.05628
1.0574
1.0572
1.05155
1.03982
1.02749
1.0198
1.01842
1.02657
1.05134
1.27951
1.73882
0.918857
0.920161
0.917298
0.911461
0.909575
0.909901
0.911104
0.912401
0.914139
0.922229
0.935798
0.941157
0.942892
0.943867
0.944176
0.944275
0.940801
0.933078
0.930055
0.930097
0.931145
0.932408
0.933922
0.936092
0.944875
0.956403
0.961947
0.964284
0.965673
0.96698
0.968436
0.966127
0.956882
0.950818
0.949723
0.950647
0.95185
0.952691
0.954247
0.96384
0.978263
0.98467
0.987396
0.990655
0.993433
0.995514
0.994311
0.986543
0.97832
0.973855
0.97185
0.971238
0.97149
0.972376
0.976079
0.990775
1.0068
1.01433
1.01778
1.01995
1.02061
1.02129
1.01793
1.00797
1.00014
0.997291
0.996949
0.99708
0.998409
1.00291
1.01747
1.03087
1.03668
1.03896
1.04074
1.04212
1.04138
1.03517
1.02554
1.01759
1.01338
1.01228
1.01344
1.01802
1.03312
1.04859
1.05531
1.05616
1.05621
1.05679
1.05576
1.05177
1.04001
1.02405
1.01487
1.01494
1.03909
1.28251
1.73852
0.921191
0.922708
0.923324
0.917878
0.911615
0.910623
0.911656
0.913276
0.915106
0.918919
0.931385
0.941792
0.94456
0.945133
0.945162
0.945179
0.945204
0.941334
0.93484
0.932633
0.932802
0.934212
0.935367
0.936057
0.937776
0.946904
0.959365
0.96473
0.967192
0.969131
0.97098
0.97257
0.968661
0.958244
0.953437
0.952965
0.953232
0.953997
0.955
0.957068
0.96575
0.98031
0.988912
0.992581
0.995092
0.997592
0.999908
0.9994
0.991317
0.98118
0.975283
0.973088
0.973172
0.973801
0.974998
0.978016
0.989941
1.00607
1.0151
1.01909
1.02216
1.0244
1.02487
1.02221
1.01224
1.00221
0.997802
0.99751
0.998935
1.00115
1.00536
1.01908
1.0323
1.03827
1.04091
1.04228
1.04299
1.0428
1.03863
1.02791
1.01841
1.01421
1.01302
1.01354
1.01812
1.03411
1.04892
1.0538
1.0544
1.05502
1.05526
1.05552
1.05323
1.03974
1.02141
1.00963
1.02316
1.28008
1.73636
0.923999
0.925068
0.926113
0.924161
0.915694
0.91255
0.913266
0.915273
0.918247
0.921251
0.926318
0.937179
0.943337
0.944724
0.944707
0.945041
0.946661
0.948163
0.945525
0.939243
0.936718
0.936433
0.93598
0.935928
0.936944
0.939126
0.950471
0.964093
0.969332
0.971261
0.972968
0.974714
0.974951
0.968839
0.958604
0.955088
0.955496
0.956961
0.958791
0.960133
0.961435
0.966645
0.980436
0.990195
0.994847
0.997818
1.00034
1.00279
1.00298
0.995961
0.984986
0.97865
0.976551
0.976007
0.975744
0.976364
0.978806
0.989171
1.00671
1.01824
1.02303
1.02458
1.02512
1.02583
1.02471
1.01532
1.00515
1.00075
1.00014
0.999836
1.00122
1.00614
1.02074
1.03384
1.03969
1.04248
1.04413
1.0444
1.04406
1.03982
1.02948
1.02043
1.01562
1.01397
1.01406
1.01796
1.03348
1.04765
1.05222
1.05301
1.05433
1.05563
1.05681
1.05456
1.03986
1.01837
1.01035
1.27133
1.73352
0.926224
0.926943
0.927059
0.926754
0.922873
0.918045
0.917686
0.919795
0.922321
0.923667
0.924308
0.92694
0.936618
0.943082
0.945321
0.947411
0.949596
0.951705
0.952822
0.94849
0.940082
0.935847
0.935266
0.936225
0.937618
0.939585
0.94349
0.956423
0.968337
0.972286
0.973509
0.972729
0.972769
0.973696
0.971219
0.965098
0.962322
0.962238
0.962344
0.961722
0.961126
0.961556
0.965464
0.979291
0.991944
0.997916
1.00123
1.00406
1.00648
1.00622
0.999149
0.988137
0.980409
0.977158
0.976929
0.977466
0.978923
0.981022
0.988657
1.00613
1.01864
1.02325
1.02508
1.02609
1.02701
1.02683
1.01921
1.00703
1.00095
1.00007
1.00133
1.00369
1.00867
1.02313
1.03675
1.04261
1.04409
1.04396
1.04367
1.04405
1.04115
1.03303
1.02376
1.01728
1.01455
1.01408
1.01718
1.03092
1.045
1.05061
1.05265
1.05456
1.05703
1.05824
1.05488
1.03451
1.01298
1.25912
1.73165
0.927038
0.927829
0.928519
0.92966
0.930719
0.92732
0.923473
0.923218
0.923685
0.922686
0.922046
0.923064
0.927402
0.939289
0.947924
0.951266
0.953371
0.954772
0.956033
0.955505
0.948107
0.939261
0.937284
0.938463
0.941747
0.945061
0.946608
0.948099
0.955907
0.96529
0.968982
0.970824
0.973721
0.977429
0.980446
0.979176
0.9724
0.966915
0.963992
0.961474
0.960267
0.960747
0.961787
0.965526
0.979467
0.99424
1.00123
1.00435
1.00578
1.00631
1.00693
1.00363
0.993585
0.984646
0.98082
0.979876
0.979514
0.979556
0.981455
0.988772
1.00704
1.02122
1.02649
1.02785
1.02866
1.02925
1.02902
1.02141
1.01046
1.00539
1.00478
1.00608
1.00798
1.01139
1.02259
1.03496
1.0403
1.04238
1.04319
1.0445
1.04582
1.04446
1.03778
1.02654
1.0182
1.0145
1.01331
1.01516
1.02786
1.04258
1.04907
1.05271
1.05568
1.05844
1.05918
1.04806
1.02972
1.25019
1.73139
0.927601
0.93041
0.932235
0.933537
0.934887
0.934811
0.929645
0.924028
0.921454
0.920815
0.92159
0.923048
0.924792
0.931124
0.945214
0.952778
0.954863
0.955205
0.95405
0.954137
0.954589
0.95102
0.946001
0.945179
0.946567
0.947665
0.947229
0.944562
0.944863
0.951525
0.963047
0.971351
0.977013
0.982288
0.985846
0.987683
0.98572
0.976956
0.967845
0.962984
0.961997
0.962436
0.963387
0.964372
0.966749
0.977641
0.992297
1.00034
1.00432
1.00757
1.0098
1.01063
1.00848
0.99952
0.988433
0.982179
0.980232
0.98034
0.981991
0.98434
0.990228
1.00775
1.0226
1.0277
1.02849
1.02857
1.0295
1.03076
1.02562
1.01492
1.00878
1.00725
1.00696
1.00745
1.0102
1.0202
1.03322
1.04028
1.04316
1.04469
1.04696
1.04846
1.0472
1.04031
1.02705
1.01677
1.01205
1.01149
1.01347
1.02533
1.04081
1.04864
1.05319
1.05651
1.05921
1.05532
1.0445
1.24885
1.73309
0.927972
0.934055
0.935311
0.936328
0.937316
0.937856
0.936067
0.928005
0.92258
0.922007
0.923093
0.925332
0.928259
0.930096
0.934767
0.945684
0.951319
0.952761
0.953626
0.955402
0.959349
0.962222
0.959831
0.953291
0.949738
0.94755
0.944113
0.941491
0.941437
0.942602
0.949582
0.965265
0.977946
0.983907
0.98705
0.989477
0.99117
0.989426
0.979932
0.970762
0.967059
0.966036
0.965211
0.964475
0.964792
0.96625
0.975009
0.99226
1.00415
1.00899
1.0113
1.0125
1.01304
1.01194
1.00391
0.991798
0.984702
0.98288
0.983187
0.984008
0.985749
0.99083
1.00758
1.02196
1.02675
1.02892
1.03127
1.03261
1.03262
1.02819
1.01846
1.01098
1.00764
1.00732
1.00825
1.01002
1.01866
1.03303
1.04139
1.04426
1.04593
1.0479
1.0479
1.04715
1.04115
1.02731
1.01591
1.01084
1.0107
1.01172
1.0227
1.0384
1.04765
1.05283
1.05683
1.05749
1.05508
1.25522
1.73623
0.92426
0.934231
0.936383
0.936846
0.935344
0.934416
0.934785
0.93435
0.929533
0.927025
0.927674
0.929849
0.931078
0.930193
0.929328
0.932039
0.942525
0.950748
0.955197
0.960232
0.964958
0.967917
0.968855
0.964249
0.954711
0.94741
0.943756
0.942349
0.94257
0.943633
0.945606
0.952025
0.968797
0.981173
0.985907
0.988252
0.990255
0.992011
0.992042
0.986064
0.97647
0.96949
0.965886
0.965131
0.965249
0.966114
0.967942
0.975235
0.99257