/*--------------------------------*- C++ -*----------------------------------*\
  =========                 |
  \\      /  F ield         | OpenFOAM: The Open Source CFD Toolbox
   \\    /   O peration     | Website:  https://openfoam.org
    \\  /    A nd           | Version:  12
     \\/     M anipulation  |
\*---------------------------------------------------------------------------*/
FoamFile
{
    format      ascii;
    class       volScalarField;
    location    "7.22";
    object      p;
}
// * * * * * * * * * * * * * * * * * * * * * * * * * * * * * * * * * * * * * //

dimensions      [1 -1 -2 0 0 0 0];

internalField   nonuniform List<scalar> 
22702
(
1
1
0.885548
1
1.05215
1
1.47076
1
1
0.665458
1.47159
1.47083
1
1.47056
0.902094
1
1
1
1.4711
1
1.47223
1
1.47097
0.646168
1.47583
0.683826
1
1.4729
0.695257
0.647153
1
1.47133
1
1
1
1.43576
1.47408
1.47108
1
1
0.661327
1
1.22593
1
1.47215
1
1
1
1
0.662694
1
0.648223
1
1.47183
1
1.47156
1
1
1
1
0.612058
1
1
0.665678
1
0.653408
1
1
1
0.691958
1
1.47137
1.28614
1
1.46969
1.49247
0.664708
1.47273
0.6619
1
1.47048
0.659347
1.46993
1.46996
1
1
1
1
0.942663
0.682722
1.47155
1
1
0.681206
1
1.47284
0.673727
1
1
1
1
1.22881
1.47055
0.683781
1
1
1.10937
1
0.660506
1
1.47307
1.4728
1
1
0.657678
0.654034
0.675411
1
1
1
1
1
0.924258
1
1.40149
1.03341
1.47381
1
1.47289
1.47111
1.47134
1.47341
1
0.679226
1
0.65378
1
1
1
1
1.47207
1
1
1
1
1.46987
1
1.02497
1
1
1
1
0.662994
1
1.00968
1
0.65936
1
1
1
1.47082
1
1.47121
0.627449
0.649088
1.47006
1.47208
1
1.07398
1.26778
1
1.47093
0.663264
1.43616
1
1
1
1
1.47081
1.36681
1
1.47142
0.629611
1.47128
1
0.667046
1
0.649104
0.672272
0.999791
1
1
1.46973
1
1
1.47147
1
1.47051
1.47165
0.655516
1
1
0.654761
1.47117
1
1
1
1.47157
1
0.675774
1
1
1.47121
1.47177
1.47196
1
1.00004
1
1
1
1.4716
1
0.625683
1.48633
1.47097
1.47099
1
1
1
0.646844
1.47229
1.23228
1
1.47308
0.634916
0.643178
1.47318
1.47412
1
1.47279
0.677
1.41541
1
1
1
1
1.47192
1
1.27155
1.044
1
1
1.4717
0.640111
0.791673
1
1.47239
0.685437
1.46916
1
1
1
1
1
1
1
0.664453
0.77934
0.639045
1.47147
1
1
1
1
1.41404
1
0.663479
1
0.642721
0.658323
1.47092
0.653312
1.47176
1
1
1
0.997657
0.664257
0.658071
0.999999
1
0.640187
1
1.47159
0.689102
1
1
1.47117
0.623729
1
1.46573
0.647418
1.47235
1
0.645942
0.99774
1
1
1
0.652977
1
1
1
1.00001
1.00908
1.2853
1
0.698364
1
1
1
1
1
1
1
1.47245
1
1.46912
1
1
1
0.670364
1
1.47124
0.650316
1
1.36952
1
1
1.47382
1
1
1
1.46082
1
1
1.46767
1.47364
1
1.09544
1
1
0.644895
1
1
1
0.674439
1
1
1
1
0.673352
1
1
1
1
1
0.677598
1.00006
1.47169
1
0.999981
1.47177
1.47061
1
1
0.663441
0.81046
1.47311
1
1
1
1.47221
0.696434
1
1.4714
1
1
0.698979
0.707875
1
0.672399
0.651195
1
1
1
1
1
1
1
1.47399
1.11194
1.4404
0.674575
0.914059
1.47025
1
1.46819
1.47353
0.632216
0.786209
1
0.681029
1
1.48108
1
1
1
1
1.47133
1
1
1
1
1
1
1
1.1661
1.47076
1
1.47172
1
1
0.65851
1
1
1
1
1.47136
1.35463
1
1
0.672964
1.47061
1.47111
1
1.4711
1.4709
1.47171
1
0.819978
1
1.47206
0.977455
1.4717
1
0.646248
0.998946
1.47358
1
1
1
1
0.663073
1.47119
1.42712
1
1.47429
1.47225
1.47126
1
1.21726
1.47335
1
1
1.32168
1.06731
1.47111
0.940485
1.47112
1
1.47126
1.47164
1.47148
1.47049
1
1.44658
0.913378
0.887713
1
0.999999
1
1
1.47829
1
1
1
1
1
1.47586
1
1
0.996166
1.47096
1.42658
1
1.39401
1.00004
1
1
1.47245
1
0.996362
1.00466
1
1.47171
1
1.47223
1
1
1.34546
1
1.47143
1.00002
1
1.47016
1
1.47098
1
1
1
1.47189
1
1.47307
1.00001
1.47164
1.47124
1.47161
1.47242
1
1.47257
1.47804
1
0.652808
1.44189
1.33167
1
1.47134
1
0.637011
0.632701
1
1
1
1
1
0.670969
1
1.47173
1.11825
1.47166
1
1
1
1
1
1.47142
1
1.47917
1.27244
0.771898
1
1.00001
1.12967
1.11374
1
1
1.15893
1
0.658917
1.47093
1.471
1
1
1
1.4714
1
1.00003
1.46966
1.47143
0.943019
1
1
0.659746
1.42796
1
1
1
1
1
1.47103
1.47233
1
1.47018
1.47115
1.47193
1
1
1
1
0.692073
1.47306
1
1
1.42699
1.47049
1
1.44295
1.47086
1
1
1
1
1
1.47166
1
1
1
1
1.47549
1
1.46411
0.669414
1
0.643096
1
1
1
0.996602
0.657411
0.999061
1
1
1
1.06673
1
1
0.862355
1
1
1
1
1
1
1
0.999997
0.930889
0.999999
1
0.997512
1
0.663551
1
1
1
1
1.34864
1
1
1
1
0.652476
1
1
1.44371
1.47058
1
1
1
0.887546
1
1
1
1
1
1
0.95258
1.00824
1.47111
1
1
1
1.47137
0.916335
1
1
1
1.47183
1.46894
1
1.00001
1
1
1
1
1
1
1
0.668365
1
1
1.47209
0.680524
1
1.47084
1
0.660049
1
1
0.659515
1
1
1
1
1
1
1
1.46209
1.47042
1
1
1
1
1.42802
1
1.14828
0.667424
1
1
1
1
1
1
1
1.03519
1
1
1.23625
1
1
1
1.3882
1
1
1
1
0.669295
1
1
0.649145
0.671492
1
1
1.47211
1
1.00329
1
1
1
1.32598
0.632923
1
0.630812
1
0.769345
1
1
1
1.47174
1
1
1.47182
1
1
1
1.47174
1
1
1.47174
1
1
0.625365
1
1.14713
1
1
1.47161
1.47014
1.31213
1.42053
1
0.652284
1
1
1.44987
1
0.671175
1
1
1
1.47135
1
1
1
1
1.27413
1
1.43098
1.47707
0.685603
1
1
0.672015
0.673651
1
1
1
1.33127
1.35332
1
1
1
1
1
1
1
1.1904
1.47072
1.0017
1
1.46543
0.672232
1
1
1
1.25606
1
1.09033
1
1.42965
1.47001
1
0.642007
1
1.47111
1
1
1.47234
1.44099
1
1.47474
1
0.676127
1
1
1
1.47996
1.46191
1.41346
1
1.4706
1.47072
1
1.47183
1
1.47014
1
0.67667
0.972745
0.670484
1
1
1
1
1
1.46989
1
1.47057
1
1
1
1.44658
1
0.657201
1.47165
1
0.661006
0.661389
0.651755
1
1.23105
1.03763
1.4733
1.47084
1
0.999999
1
1
1.47175
1
1
1.47166
1.47072
1
1.16553
0.999667
1
0.996857
1.47121
0.856056
1
0.830746
0.659508
0.658239
0.953148
1.47229
1.4651
1.08331
1.47168
1.47149
1
1
1.47217
1.47012
1.47115
1.47256
1
1.47231
0.67156
1.47486
1.4716
1.4685
1.47128
0.857476
0.892437
0.927577
1.47236
0.959044
1.47054
1
1
1.47368
1.47111
1
0.682705
1.47328
1.47102
1
1.47185
1.47133
1
1.47171
0.655178
1.47006
1.47213
1.47342
1.47046
1
1
1
1.47116
1.30084
0.709256
1.47113
0.664227
1.47189
1
1
1
1
1.47559
1.47109
1
1
1.47085
0.658729
1.47167
0.661059
1
1.46763
1
0.6642
1.47341
0.718179
1
1.47119
1.47437
1.47126
1
1
1.23514
1.47363
0.660082
1.47109
1
1.47254
0.883207
1.47188
0.646567
1
1.47319
0.694309
1.47393
0.653546
1
1.47175
1
1.47076
1
1.27071
1.45377
1.36773
0.61748
1
1.47211
1
1.47004
1
1.47178
1
1
1.47234
0.97075
1.47414
0.678134
1.41224
1
1.33113
1
1.47192
1.47144
1.47336
1
1.42234
1.47164
1.43498
1.27911
1.47278
1
1.31071
1
1.47289
1
1.0637
1
1.43607
1
1.47263
1.44919
1.44768
1
1.46705
0.640784
1
0.664995
1
1
1
1.47249
1
1.4723
1
1
1
1.47177
1.45948
1.38131
1.47284
1.46996
0.645961
1.47882
1.47075
1
1.39759
1.47116
1.46888
1
1.47093
1.47114
1
1.48028
1.47135
1.4708
1.47334
1
1
1
1.47282
0.69145
1
1.47144
1
1
0.613872
1
1
1.47108
1.47223
1
1.47129
1.47561
1.46971
0.970528
1.47149
1
1.4714
1.47155
1.37533
1
1
1
1.47221
1.47111
1.47166
0.943804
1
1.48129
1.47084
1.47285
1
1.47082
1.47256
1.47158
1.47567
1
1.47082
1.47165
1.40857
1.47283
1.47215
1
1.48052
1.46648
1.47174
1.47427
1.47282
0.640693
1.47281
1.47308
1
1.47267
1.47165
1.47202
1.4706
1
1.47223
1.47193
1
1.47101
1.39292
1
1
1
1.47252
1.47771
1
1
1.25296
1
1.47154
1
1
1.47151
1.47305
1.47138
1.47107
1
1
1
1.33141
1
1.47111
1
1
1.47189
1.47172
1
1.47109
0.664225
1.4719
1.47003
0.732045
1
0.618418
1.41055
1.47041
1.47283
1.47343
0.674857
1.47209
1.47239
0.668585
0.643974
1
1.47218
1.47146
1
1
1.47155
1
1.47401
1
1.41027
1
1.21911
1.47271
1.47438
1.3318
1.42025
1.47189
1.47599
1.44093
1
0.661004
1.47366
1.47145
1.48112
1.00001
1
1
1.47702
1
1.47183
1.47021
0.746009
1
1.471
0.999945
1
1.00003
1.00004
1.47109
1.46876
0.998516
1
1
1.46994
1.47365
1.46944
1.46993
1.47258
0.63887
1.41973
1
1.46767
1.47174
1.47119
1.46423
1
1.47125
1.45749
1.47309
1
1.47094
1.47316
0.856776
1.4712
1.47092
1
1.47199
0.822156
1.471
0.866089
1.47138
1
1.47276
1.48092
1.47148
1.47184
1.47217
1.47019
1.47246
1.46853
1
0.929446
1.47168
1.47082
0.828523
1.47129
0.98373
1.29355
1.47122
1.46968
1.47439
1
1.47392
1.30238
1.47332
0.908461
1.47414
1.47472
1
0.859552
1
1.46901
1
1.31705
1
1.44496
0.877476
1
1.4759
1.47661
1
1.47612
1.47348
1.47529
1.47817
1.47955
1
1.46889
1
1
1
0.908652
1.47121
1.47021
1.46771
1.4711
1.47253
1.47002
1.46769
1.47213
0.915369
1.03141
1
1
1.47806
1.47185
1.47145
1.47151
1.00003
1.23766
1
1.481
1.42143
1
1
0.761848
1.47172
1
1
0.663893
1.47144
1
1.47014
1.47114
1.47214
1.45298
1.47287
1
0.620178
1.11071
1.47194
1.47308
1
1.4733
1.47116
1.23988
1.01113
1.10142
1
1.47084
1.47143
1
1
0.673551
1
1
1.47123
1.47142
1.47029
1.46973
1.47172
1.47367
1.472
1.46936
1.47167
1
0.996099
1.4722
1.47226
0.996998
1.47131
1.4714
0.633692
0.691711
1.47168
1.4724
1
1
1.00197
1.47091
1.46967
1.47135
1
1.47114
1
0.860006
1.48187
1.4764
1
1.20392
1.46928
1
1.47126
1
1.47052
1.29581
1.4734
1
1.47261
1.46674
0.665403
1.47202
1
1.47174
1.47057
1
0.635728
1.4754
1.40962
0.997522
1.46446
1.47168
1
0.998658
1.47925
0.997716
1.47219
1
1
1.47328
1
1.47236
1.47142
0.996146
1.3704
1
1.47157
1
1
1
1
1.4716
1
1
1.46881
1
1.4726
1
1.29838
1.46762
1.47013
1
1
0.986728
1
1.47101
1.47115
1.47382
1.47237
1.4716
1.47191
1.47276
1
1.47052
1.47051
1
1.4725
1.47075
1
1.47057
0.936931
1.05843
1.47089
1.47129
1.47203
1
1.47228
1
1.47151
1.47176
1
1.47245
1
1
1
1
1.4714
0.622364
0.997799
1
1.47175
1.47732
1
1.47119
1
1.00457
0.686928
1.47157
0.999621
1
1.4729
0.998291
1.47234
1
0.999777
1
1.47418
1.4737
1.47091
1.47246
0.66043
1.47268
1.47257
1.47178
1.11792
1
1
1.19662
1.47162
0.620376
0.655611
1
1.47233
1.47073
1.46765
1
1
1.47133
1.47023
0.999883
1
1.34471
0.668947
1
1.08231
1.46973
1.46709
0.998259
1.47153
1.4829
1
0.999064
1
1.47042
1.47175
1.18446
1
1.45241
1
1.00229
1.46947
0.668195
1.47171
1.47137
0.996954
0.999908
1.40516
1
0.999693
1
1.477
1
1.00001
0.634857
1.47199
1.00001
1
1
1
1.47958
1.25773
1
1
0.673172
1.47084
1.25774
1
1
1
1.44848
1.46825
1.46927
1
1
1.47185
1
1.47131
1.47105
1
1
1.47362
1.47133
1.44685
1
1
1.47375
1.4722
1
1
1
1.47219
1
1
1
1.47064
1.4757
1.47477
1
1.4797
1.00003
0.730787
1.47113
1.47019
1
1.47347
1.4592
1.47232
1
1
1.47454
1
1.25167
1.4682
1
0.657179
1
1.47327
1
1
1.47021
1
1
1
1.14094
1.47317
0.714922
1.00001
1.47206
1
1
1.47053
1
1.47469
1
1
1.47121
1.47011
1
1.00005
1
1
1
1
1
1
1.47168
1.47202
1
1.47021
0.656129
1.48032
1
1.47098
1.46789
1.47177
1.47838
1.47524
1
1
1.47402
1
1.28067
1.47544
1.47085
1
1.47437
1.47775
1
1.43487
1
1.47079
1.30084
1.47355
0.997386
1.46049
1.42921
1.47201
1.47235
1.03726
1.47142
1.47515
1
1.47119
1
1.47183
1
1
1
1
0.996212
1.47153
1.47196
1.39326
1
1.47896
1
1
1
0.687728
1
1.46154
1
1.42538
1.4498
1
1
1
1.43187
1.4724
1
1
1.47212
0.653434
1.07092
1
1.4752
1.47082
1.42789
1.46027
1.47087
1
1.4724
1
1
1
1
1.47037
1.47146
1
1.45522
1.03634
1.47126
1.43781
1
1
1.43949
1
1
0.646019
1.32634
1
1
1.46905
1
1.47509
1.42946
1
1.42827
0.658047
1.47162
1.47073
1.47215
1
0.641855
1
1
1
1.47082
1.38933
1
1.47401
1.47088
1
1.47189
1
1
1
1
1.47104
0.999331
1
1.4736
1
1
1.46926
1.47168
1
1.47181
1.08295
1.00002
1
1.47205
1
1.47258
1
1.01354
1.47169
1
1.47135
1
1
1.15107
1.47027
1
1
1
1
1
0.99645
0.644756
0.626322
1.01957
1
1.01049
1
1.02128
1
1.47151
1
1.2702
1
1.47157
1
1
1
1.47146
1
1.37087
1.47218
1
1.24702
1.47096
1
1
1.47256
1.47065
1
1
1.05041
0.620387
1
1.47274
1
1
1
1
1.07721
1.47198
1
1
1
0.67724
1
1.47121
1.47207
1.48456
1
1
1
1
1.23048
1.47701
1
1
1
1.47428
1.47155
1.05427
1
1
1
1.47067
1.47154
1
0.651102
1.47199
1.47115
1.47057
1.47146
1.47203
1
1
1.46967
1.47479
1.47078
0.673048
1.03989
1.46976
1
1
1
1
1
1.47114
0.659412
1
1
1.47075
1.19961
1
1.46963
1
1
1
0.646754
1
1
1.11992
1.47209
1.47038
1
1.47283
1.47291
1
1.07928
1
1.47262
1
1.47048
0.652674
1
1
1
1
1.47191
1.00005
1
1
1
1.46461
1
1
1
1
1.4719
0.642547
1.36591
1.4739
1
1.47065
1
1
1
0.997212
1
1.4709
1
0.807928
1
1
1.00003
1.47032
0.688702
1
1.46905
1
1.46959
1.47191
0.683431
1
1
1.44507
1
1
0.686442
1
1.47457
1
1.44905
0.999354
1.47305
1
1
1
1
1.47036
1
1
1.47135
1
1
1
1
1
1
1
1
1.30026
1
1.1485
1.4735
1
1
1
0.632746
1
1
1
1
1.46858
1.47175
1.03531
1
1
1.47215
1
1
1.47024
1
1.00002
1
1
1
1.00001
1.47162
0.786716
1.4714
1.47349
0.997235
1
1
1
1.27515
1
1
1.46992
1.47136
1
1
1
1
0.668766
1
1
1
1.29046
1
1.47165
1.47552
1
1.47315
1
1
1
1.25425
1
1.47299
1
1.47147
1
1
0.996329
1.47167
1
1
1
1
1
1.46883
1.00002
1
0.640149
1.47365
0.654405
1
1.47461
1
0.995892
1
1.47338
1.47419
1
1.46421
0.889588
1.47053
1.46803
1.00003
1
1
0.655648
1
1
1
1.46935
1.26846
1.46882
1
1
1
1
0.996896
1.47379
1
0.656756
1
1
1
1
1
1
1
1.472
1.4706
1.47833
1
1
0.996879
1
0.982794
1
1
1
0.63946
0.963302
1
0.648204
0.631422
1
1.47252
1.47154
1
1.4751
1.47182
0.655983
1.32961
1
1
1
0.660041
1.47084
1
0.660304
1
1.46759
1.07541
1
1
1
1
1.47193
1.46909
1
1
1.47136
1
1
1.47126
1.47085
1
1.42534
1.47109
1.47272
0.976801
1.47637
1.0086
0.655704
1.36042
1.47146
1
1
1
0.674051
1
0.638092
1.47557
0.97513
1.47112
0.942538
1
1.47352
1.20856
1
1
1.47225
1
1.19148
1.46866
1
1
1.4654
1.4693
0.654058
1.27225
0.9999
1
1.27882
1
1.47524
0.928201
1.48091
1.47012
1
1
1
1
1.45548
1
1
1.47003
0.999644
1.47075
1.39019
1.46995
0.650736
1
1
1
1
1.47072
1.00004
1.47135
1
1.4706
1.47169
1.05845
1.47998
1.14606
1.47114
1
1.3161
0.676835
1.47762
1.47168
1.37505
1.06915
1.46915
1.47089
1.4715
1.47293
1
0.9096
1.06436
1
1.47176
1.21839
1.47126
1.00003
1
1
0.693929
1.47194
1.47053
1.38154
1
1.17885
1
1.48013
1.47822
1
1.47378
1.47056
1
1
1
1.47426
1
1.18313
1.4682
1.32582
1
1.46977
1
1
1
1
1
1
1
1
1
1
0.711366
1
1.43302
0.642896
1.27385
0.998567
1.47583
1
1.24828
1.00001
1.30026
1.39445
1
1.00232
1.46833
0.909024
1
1.47604
1.47086
0.947364
1
1.46999
1.47056
1.47391
1
1.47168
1.47211
1.47442
1
1.20252
1
1.00006
1.47062
1
1.47065
1.06613
1.47365
1
1
1.47255
1.47773
0.662132
1
1.47228
1.3501
1.47059
1
1
1.47193
1.47498
0.998221
1
1.43288
0.996737
1.47187
1.00007
1
1
1
1
1.20522
1
1.35348
1.47277
1.34717
1.46823
1
1.00315
1
1
1.47233
1
1.47401
1
1
1
1
0.999999
1
1.05559
1.2417
1
1
0.634722
1
1.46817
0.714786
1.46863
1
1.22504
0.999745
1.47109
1.29266
0.679697
1.25342
1.00003
1.47125
1.47181
1
1.28179
1.47562
1.47127
0.998372
1.47936
1.45711
0.634535
1
1
0.997219
1
1.47113
1
0.685402
1.46853
1
1
1.4156
1
1.47157
1
1.47055
1
0.675591
1
1
1.46976
1.4654
1.47647
1
1.47397
1.47128
1.46396
1
1
1.46645
0.999999
0.746077
1
1
1
1.47114
1
1.47104
1.29803
1.47157
1
1.47119
0.999369
1
1
1
1
1
1
0.71538
1
1
1.47131
1
1.47078
1.47045
1
0.675296
0.656811
1
1.4736
1.07808
0.660059
0.635854
1
1.47292
1
1.47382
0.688197
1.00149
1
1
0.999521
1
1
1
0.999915
1.19292
1.47143
1
1
1.47313
1.27302
1
1.43016
1.47378
1.47277
1.19267
1.46309
1
1.47242
1
1.45359
1
1.46798
1.47169
0.997085
1.47078
1.4693
1
1
1
1
1
0.907254
1.47
1.00004
1.00003
0.658571
0.999981
0.623169
0.690564
1
1.47136
1.47225
1.47092
1
1.47136
1
0.649619
1
1
1.47349
0.840469
1.46913
1
1.47014
1
0.983195
1.47241
1
1
1
1.47106
1
1.47046
0.650605
1
1
1.27103
1
1
1.25482
1
1
1.47173
1
1
1
1
1
1.47874
1.47129
1
1.47164
1.47218
0.650694
1.20956
1.47428
1
1
1.42214
0.99899
1
1
1.47141
1.46947
1.30748
1
1.47288
0.678838
1.43854
0.999711
1
1.4701
1.00003
1.47211
1.38177
1.3572
1
1
1.47142
0.740516
0.645775
1
1.47177
1
1.47124
1
1.2763
1
1
1.47013
1.29767
0.661929
1
0.998077
1
1
1.02561
1.18919
1.4713
1
1.46772
1
1
1
1
1
1
1.0671
0.660587
1
1
1.03865
1
1
1
1
1
1.4729
1
1
1.47151
1.47066
1.34201
1
1
1
0.837391
1.47293
1.32668
1
1
1
1
1.47069
1
1
1
1.47418
1
1
1.33906
1.47915
1.03917
0.762898
1.47487
1.33511
1.47166
1
1.22606
1
1
1
0.676945
1.0025
0.662865
1
0.672645
0.644494
1
0.660413
1
1
1
1.19831
1
1.47295
1.47219
1.00103
1.22401
1.38644
0.637933
0.784188
0.861141
1
1.47164
1.46987
1.47155
1.47174
1.40154
0.873858
1
1.4056
1
1.45261
1
1
0.996471
1.00968
1
1
1
1.47177
1
0.632389
1
1.47284
0.626285
1
1
1.47153
1
1.47124
0.999163
1
1
1.47219
1.41029
1
1.48568
1
1
1.01452
1
1.21
1
1
0.650179
1
1
1.47485
0.999999
1.47242
1
1.00003
0.632841
1
1
0.643765
1.00089
1
1.46938
0.629896
1.47718
0.677871
1.47124
1
1
1
1
1
1
1
1
1
1
1
1.45224
1
1.4728
1.46957
0.652985
1
1
1
1
1
1
1.45742
1
1
0.655628
1
1
1.46914
1
1
1.16616
1.39266
0.669036
0.658985
0.705822
0.734091
1
0.996536
0.649157
1.00031
1.44241
0.996899
1
1
1.47016
1
1
1
0.767617
1.00002
1.16292
1
1
1.18911
1.47159
1
0.640868
1
1
1
0.996743
1.00001
1.47076
1.47147
1
0.672129
1
1.2536
0.664753
1
0.882009
1
0.995939
0.643176
1
1
1
0.996201
0.66868
1
0.668755
0.998362
1.2391
1.41761
0.670027
0.670737
1
0.990454
1
0.998653
1
1.47172
1.47166
1
1.02657
1.47057
1.47171
1
1
1.47139
1
1
1.00004
1
1.47333
1
1
1.01894
1
0.998598
0.729233
1
1
1
1
1
1.46852
1.02725
1.00005
1
1
1
1
1
1.00003
1
0.65001
1.10739
0.998613
1.45766
1.46927
1
1.01406
1.47092
1.40199
1
1
0.670401
1.4706
1
1.46989
1
1.47019
1.30683
0.657363
1
0.667759
1.44389
0.999672
1
0.65849
0.694049
1
1
1.39578
1
0.999998
0.649347
1
1
1
1.14603
1
0.650304
1.47067
1
1
1
1
1.4715
1
1
1.46806
1.42074
1
1
1
1.47659
0.657401
1
1.47105
1.47169
1
1.37022
0.999999
1.00003
1
1
1.45047
1.02869
1
0.634084
1.26341
1
1
0.997094
1
1
1.47788
1
1
1.00003
1
1.46945
1
1
1
1
1
1
1.00001
1.20196
1
1.47405
1
1
1.47327
1
1
1
1.47155
1.47023
1.04638
1
0.997687
1
1
1
1
1.47145
1
1
1.47155
0.651215
1
1
1
1
1
1
1.37705
1
1
1.46803
1.47134
1
1
1
1.47068
1.46874
1
0.999694
1.47242
1
1
1
1.00002
0.633447
1.02919
0.996411
0.996167
1
1
0.648293
1.47182
1
0.649862
1
1.47339
1.45218
0.674474
0.999412
1.47144
1.46993
1.4704
1
1
0.901739
1.41879
1.38544
0.680181
1
1
1
1.4686
1.47146
0.659693
0.997376
1
1.47137
0.641862
1
1.45789
0.657721
0.980526
1.0063
1
1.47017
1
1
1
1
1
1
1.00011
1.43768
1
1
1.46826
1
1
1
1.47123
1
0.649919
1
1
1
1.155
1
1
1
1
1
0.782368
1
0.639531
1
1.4719
1.00007
0.85705
0.854994
1.00002
1.00465
1.23864
1
1
0.65498
1.471
1.47203
1.47129
1
0.660729
0.651637
1
1.47079
1
1
1
1
1
1.00003
1
0.663132
1.29673
1
1
0.642451
0.988532
1.00001
1
1
1
0.645818
1
0.67144
1
1
1.47323
1
1
0.657029
1
1.47153
1
0.637008
1
0.660763
1
1.00801
1.47016
1.48004
1
1
1.47052
1
1
1.10448
0.996717
1
0.998128
1
1.47354
1
0.680869
1.00002
1.47278
0.999031
1
1
0.777164
1
0.999008
0.680976
1.47278
1.16921
1
1.00001
0.910353
1
1
1
0.783852
1
1
1
1.47168
1
0.657384
0.999999
1
1
1
0.645973
1.47171
1.45393
0.683763
1
1.4786
1
1
1.47147
1.47165
1.39531
0.654521
0.997752
0.999239
1
1.47118
1
1
1
1
1.47297
1.00004
1
1
1.46584
1
1
1.47164
0.647974
1
1
1
0.654834
1
0.999999
0.999999
0.998627
1
1
1
1
1.37814
1
1.47341
1.47222
1.48524
1.47156
1.47271
1.47172
1
1.47378
1
1.47128
1.47125
1
0.998826
0.660542
1.40173
0.999901
1
1
1
1
1.00652
1
1.07072
1
1
1
0.841229
1.47164
1.47253
1.48093
1.41188
0.999874
1
1.02348
1.47137
0.997915
1.05624
0.997209
0.693201
1
1.00002
1
1
1
1
1
1.47103
0.656841
1.47113
1.47139
0.995231
0.62221
1
1
1
1.47191
0.608095
1.4145
0.643745
1.47163
1.47813
0.660773
1.47106
1.02294
1
1.47412
0.789987
1
0.998755
0.62744
1
0.659502
1
1.47189
1.4716
0.761909
1
1.47007
0.690942
1
0.655407
1
1.47159
1
1
1.45561
1
0.830617
1
0.999691
0.657636
1.47557
0.999484
1
0.631457
1
1
1
1
1.24566
1
1.4711
1
1
1.47817
1
1
1.47026
1
0.629271
1
0.667394
1.00001
1
1
1
1
1.45073
1.27585
1.47103
1
1.47157
1.43703
0.64761
0.633162
1
1
1.46711
1
0.626277
1
0.988385
1
1
1.4706
1
1.47641
0.633464
1.48504
1
0.641721
1
1
1.47294
1.46948
1
1.00004
1
1.46341
1
1
0.688325
0.999369
0.654132
1
1
1
1.47389
1.4781
1.4706
1
1
0.654726
1
1.47464
1
1
1
1.44948
1.47079
1.4716
0.608747
1.47294
1.47135
0.657523
1.47259
1.00004
0.677671
1.01341
1
1
1.47094
0.604121
1.29038
0.612786
1.47124
0.997501
0.664665
1.47383
1
1
1
1
1.47255
1.47062
0.662252
1
1.00002
0.650439
1.00003
1
0.681303
0.652346
1.32682
1.47407
0.998486
1.47161
1
1.47933
0.820258
0.657604
1.47135
1.47993
1
1.47217
1
1
1.47178
1
1.35856
1.47207
1
1
1
1
1.47217
1.46562
1.47251
1
1
1.47359
1.47317
1.47165
1
1.47193
1
1
1
1
1
0.643402
0.845958
0.638179
1
1
1.47162
1
1
1.47325
0.666533
1
1.47172
1.46598
1.45122
0.651363
1
0.620028
1
1.00003
1.46985
1.21735
1.47165
1.4291
1
0.697999
1
1.46972
1.33436
0.684752
1
1
1
0.825027
1
1
1.47303
1
0.670407
1.47139
1
1
1
1
1
1.3756
1.10709
1
1.47297
1
1.46895
1
0.997301
1
1.47215
1.47064
1.47162
1.47495
0.999581
1.47156
1
1.47173
1.47171
1.39734
1
1
0.644091
1.47135
1
1
1.47179
1.47237
1.47334
1
1.47252
1
1
1.00003
1.47276
1.47506
1.13293
1.09736
1.47109
1.47336
0.676208
1
1
1
1
1.00002
1.16336
1
1
1.39325
0.652857
0.999966
1
1.47142
0.999871
0.999837
1.06937
1.41869
1.4716
0.916974
1
0.641351
1
0.998328
1.47166
1.4748
1.46476
0.99903
1
1
0.653267
1
1
1.47173
1.04991
1
1
1
1
1
1
1
0.999933
1.47162
1.00002
1
1
1
1
1.30012
1
1.21749
1
1
1.47116
1.47482
0.663303
0.998795
1
1
1
0.660809
1.47169
1.47158
1
1
1
1
1
1
1
1
1.47183
1.47835
0.649069
1.05021
0.659456
1
0.653908
1
1.47108
1.12593
1
1
0.703103
1
1.45138
0.811944
0.99658
0.67061
1
1
1.46884
1.00004
0.997181
0.63582
1.47187
1.48323
1
1
1
1
1.43958
1
1
1.47165
0.998968
1.4698
1.00003
1
1
0.640255
1
1
1.47303
0.657547
0.783823
0.654688
1.47176
0.999274
1
1.47257
0.672073
0.664198
1.00675
1
1
1.47182
1.00004
1.2066
1
1
1.4706
0.653715
1
1
1.00013
1.46964
1.00013
1.47467
1
1.00003
1
1
0.696981
1
0.785008
1.00002
1
1.46919
0.63626
1
0.765251
0.802133
1
1
1.47294
1
1
1
1.4705
1.47216
1.00005
1.45999
1.47241
0.790291
1.47146
1.4554
1
1
1.47209
0.999999
1
1
1
1
1.47133
1.47125
1
1
1
1.47327
1.00021
1
0.663379
0.694193
1
1.00003
1.17076
1
1
0.903245
0.686698
1
1
1
1.4748
1.43094
1.47173
1
1
1
1
0.636782
1
1.46661
1
1.46679
0.642608
1.47662
1
1
1
0.637985
1
1.47064
1.00003
1
0.688667
1.16035
1
0.99966
1.47408
0.653509
0.644942
1
1.47169
0.664514
0.661245
1
0.631213
1
1
1
1
0.607666
1
1
1
1
1.47122
1
1.35905
0.617476
1
1
1
0.666266
1.47172
1
1
0.996667
1.45827
1
1.471
1.47184
1
1
0.734204
0.6713
1
1
0.69082
1.1442
1.21832
1
1
1.46748
0.9974
1
0.99749
1.47224
1
1
1
1
1
1
1.47393
1
1.15583
1.14587
0.68646
1.41561
1
1.47254
1.47154
1
1
1
0.929668
0.66286
1
1.22344
0.999648
1.41619
1
1
1
0.999999
1
1.00801
1.20543
1.4728
1.4699
1
1.47225
1
0.698754
1
0.997464
0.999754
1
0.635427
1
0.635887
1.00002
1.47453
1.47179
0.662839
1.47911
0.706476
0.996112
1.35786
0.646516
1.33148
1
1
0.998426
1
1
1
1.00006
1
0.62436
1
1
1
1
0.999587
1.47382
0.792263
1
1
1
1.03734
1
1
1
1.25684
0.766412
1
1
1
1.04112
1.47115
1
0.618977
1
1.47351
0.893848
0.696948
1
0.659951
1
1
1.44447
0.998267
1.43738
1
1.00878
1
1
1.47144
1
1
1
1
1.09437
1
1.47156
1.47351
1.47164
0.627286
1.47242
0.997104
1.38479
1
1
0.634616
1
1
0.690924
1.47069
1
1
0.999947
1
1
1
0.634507
0.607999
1
1.47042
1
1.21715
1.47168
0.671591
1.38329
1
1
0.685936
1
1
1.47127
1.47125
1.15945
1
1
1.00147
1.47119
0.622951
0.659799
1.47266
1.47157
1.31432
1.17855
1
0.905026
1
1
1
1.4584
1.47192
1.47244
1
1
1.4737
0.644174
1.41602
0.634077
1
0.652446
1
0.647978
1.47108
0.648784
1
0.988469
0.705144
1
1
1
0.824761
1.42628
1.47164
1.47038
1.47026
1
1
1.47239
1
1
1.4727
1
0.622954
1
0.638409
1
1.47309
1
1
1.02607
1.36091
1
0.99871
0.677589
1.47008
1.00001
0.634658
1.08545
1
1
1.36044
1.4709
1.47186
1
1.47175
1.11957
1
1.02345
1.47144
1
1
1
1
1.47181
1
0.638836
1.47122
0.674736
0.632139
0.835953
1.47141
1.16367
1.47358
1
1.47006
0.997212
1.00003
1.47127
1.47109
1
1.47049
1
1.472
1
1.47068
1
1.00004
1.00002
1.46878
0.650613
0.666249
0.997884
0.999999
1
1
0.644224
1
1.30267
1
0.655757
1
1.18684
1.47098
1.46749
1
1
1.00003
0.999347
1
1.47262
1.47175
1
1.19394
1.47005
0.845987
1.47203
1.00111
0.664026
1.0975
0.624706
1
1
1.07586
1.47143
1
1
1.03852
0.998566
1
0.66606
1
0.802372
1
1.4686
1
1
0.622522
1.10508
1.06607
0.998489
1.47156
1.47144
0.751525
0.998063
0.645347
0.643616
0.649815
1
1
1
0.998994
0.705099
0.657579
1
1.47136
0.999734
1.47119
1.47161
1.4719
1.47101
1
0.645017
1.47158
0.682309
1
1.47157
1.47666
0.996534
0.817329
1.47272
1.33896
1
0.67624
1
1
1.47611
1
1.02603
1.4719
1
0.631864
0.640014
1
1
0.670339
0.677499
1.4716
1.00004
1
0.619402
0.662751
1.47123
1.46436
1.43863
1.47413
1.13002
0.96404
1.18898
1.47894
1.3608
1
1.23624
1
0.6386
0.839006
1
0.646833
1.47098
1.02305
1.47328
1
1.4713
1.46983
1
1.47057
1.47159
0.655103
1.47583
1
1.47462
1
0.750418
0.649179
1.471
1
1
1
0.662543
1.47078
1.47263
1
0.652557
1
1
0.625124
1.00004
0.638119
1.47136
1
0.799577
0.686405
1
1
1.2652
1
1
1
1.07809
0.65871
1
1.00001
1
1.47
0.673017
1
1.47173
0.643921
0.616182
1
1
1.48008
1
1.47065
1.00001
1.47123
0.655916
1
1
0.670967
0.811264
0.643799
1
1
1
1
1.47199
0.642144
1
0.668812
1
1.47188
1
1
0.916469
1
1
0.799378
0.999678
1.00005
1
0.674287
0.649837
1
1
1
1
0.78027
1.46928
1.47174
1
0.660749
0.683249
0.892118
0.648294
1
0.823834
1
0.649537
0.96884
1
1
0.656363
1
1.47159
1.45069
0.657821
1
1
1
1.47009
1
1.04468
0.83641
1.14556
0.639293
1.19013
0.672085
1
1
0.693304
0.91501
1
1.04294
1
1
0.648129
1
0.929251
1.04891
0.672295
1
1.38039
0.733949
0.889075
1
1
1
0.663889
1
0.663485
0.685232
1
0.867515
0.65776
1.06629
0.721544
0.625009
1.47129
1
1.47096
1.25721
0.735333
1.47112
0.64646
0.998996
1.47088
0.999999
1
1.47314
1
0.728052
1
1.06824
1
1
1.47143
1
0.794962
0.811582
1.47077
0.939074
1
0.765685
1.47133
1.47263
0.913223
1
1.47161
1.1239
0.850181
1
1.01809
1
0.651476
1.20262
0.765377
0.737127
1
1
0.657799
1.47189
0.954315
0.658085
0.643224
0.842842
1
1.01289
1.47203
1.47123
1
1
0.999999
0.655576
1.21896
1.00002
1.47171
1.42743
0.668671
1.00002
1.09444
0.88117
1.28529
1.39865
1
1.04197
1
1.00006
0.629105
0.840582
1
1
0.799226
0.628568
1.04401
1
1
0.627422
1.20515
1
1.47494
1
1.04294
1.25653
1
1.46421
1
1
1.46975
1
0.647648
1.47015
0.678535
1.11963
1
0.646313
0.999909
1
1.00003
1
0.806235
1.02658
0.661367
1.35635
1.47074
0.632397
1
1
1
1
1
0.953028
0.695753
1.04232
0.663615
0.643597
1.06387
1
0.999801
1.11855
1
1
0.666711
0.98311
1
1
1.12856
1
1.47243
1
1.47024
1.08309
1.02859
0.65693
1
1
0.647232
1
1
1
1
1.47382
1.043
0.998073
1
0.654143
1.05452
0.999999
1
1.30171
1
0.651844
1.46987
1
1.00001
1
1.47341
0.65761
0.864457
0.654633
1.35415
1.47315
1
1
1.47213
1
0.681055
1
1
1
1
1
0.775574
1
1.47144
1
1
1.1562
1.47257
0.659973
0.882204
1
1.4712
1
1
1
1
1
1.47159
1.47071
0.671885
1.47122
0.646861
1
1
1.47144
1
1.47198
1.01685
1.0295
1.06457
1.4718
1.0693
1.32212
0.647293
1
0.644223
0.996484
1
1.47204
1
1
0.651835
1.48034
1
1.471
1
1
1
1
1
1.00001
0.680559
1.47026
0.850339
1.47127
1
0.667205
0.664631
0.72322
1.4789
1.47307
0.941306
1
0.817683
1
1.18349
1
1.47121
0.64469
0.661438
0.867653
1
1.47145
1
1.0633
0.661981
1
1.47026
1.41071
0.998854
1
1.47153
0.647517
1.48021
1.4714
1.47715
0.663613
1.08384
1
1
0.645875
1
0.822367
0.839903
1
1.00002
1.47219
1
1.46971
1.09005
1
1.03909
1.47722
1
0.650572
1
0.760124
1
1
1.38427
1
0.796825
1
0.653434
1.03758
0.944984
0.672282
1.47226
1.37305
1.47497
0.657147
0.702749
0.995504
0.999999
1
0.679366
1.44239
0.649857
0.99996
1
1.4714
1.4717
0.883066
1
0.643585
0.697185
1.31211
0.967317
0.649658
0.999999
0.666607
1.11822
0.661695
1
1.00006
0.796571
1.47353
1.47019
0.822463
0.999576
1
1
0.714544
1
0.658699
1
0.686843
0.650565
1
1
1.00003
0.661681
1.47138
1
1
1.00007
1.00004
0.683142
1.47139
1.47159
0.999999
0.663787
1.47539
1
1.08926
1
1
1.47017
0.658766
1
1
0.617127
0.730221
0.663847
0.641816
1
0.671388
0.997054
1.10139
0.659878
1
1
1.12878
1
1.41329
1
1
1.32795
0.678843
1
0.671188
1.12199
1.47235
1
1
0.656736
0.703603
0.643859
0.715224
0.694248
1.34921
0.999414
1
1
1
1
1.47185
0.643881
1
0.949159
0.999684
0.998569
0.99994
0.738425
1.12466
1
1.47119
1.47159
1
1
1.4448
1.00005
0.999999
1.47236
0.658493
1.46808
0.999999
0.634572
1.47124
1.00005
1
0.816523
1
0.651054
1
1.47333
1
1
1.47515
1
1
1.4757
1
1
1
1.47171
1
0.738686
0.709552
1
0.635517
1.47324
1
1
0.966178
1
1.47633
1.26774
1.37691
1
1
0.685324
1
0.649713
1.46954
1.47225
1.47123
1
1.47107
0.656377
1
0.660761
1.37835
1.44916
1.46971
1.47279
0.74225
0.644063
1
1.30154
1.47139
1.47228
1.47141
0.766544
1.16837
1
1.35822
0.753592
1
1.00002
1
1.00002
0.916783
1
1.4764
1
1
1
1
1
1
1.00006
1.47079
1
1.47693
1.34913
0.65324
1.47075
1.02899
1.22363
1
1.47093
1
0.651042
1
1
1
1
1.39743
1
0.648065
1.47088
0.640328
1.47231
1.3733
1.23404
1
1.08789
1.21888
0.995895
0.686976
0.798118
1.00002
0.999999
0.910255
1
0.641607
1.47098
0.619363
0.914381
0.869816
1
1
1
1.01368
1
1
0.660635
0.995928
1.47232
1
1.47144
1
0.652709
1
1
1.47248
1.46989
0.645542
1
1.47111
1
0.827099
0.647387
1.47205
1.42054
1
1.07959
1.47145
0.998656
1
1.19127
1.41366
1.46922
0.995782
1
0.999998
1.39581
1
1
1
1.47129
0.998464
1
1
1.47181
1
1
0.665108
1
1
1
1.47141
1
1
0.870431
1.14195
1.42978
0.792045
1
1.47224
1
1.15741
1
1.47004
0.997273
1.47143
1
0.644122
1
1.31821
1
1
1.43937
1.00002
1.47132
1
1.47136
0.68068
0.649002
1.4703
1
1.40129
1
1.4744
1
1
1.00005
1.47005
1.46775
1.11936
1.47086
0.995198
0.6301
1.47218
0.851228
1
1.46926
1
1.4724
1
1.47421
1.4723
0.996162
0.655711
1
1.47179
1
1.03766
1
1
0.997922
0.74379
1.4209
1
1.43078
1
0.892708
0.639009
1.46976
1.47104
0.66314
1
1.47045
1.47039
1.47024
0.698419
1.47017
0.649046
1.47359
1.48134
1
1
1.47151
1
1
1
1
0.653369
1
1
1.47464
1.47171
1
1.47212
1
1.4711
1.4749
1
1.39021
1
0.645026
1.47083
1.35763
1.12272
0.646312
1.471
1
1
0.644076
1
1
1.47169
1
1
0.804659
1
1.47152
1.00009
1.47305
0.645306
1.47064
1
1.47152
1.4535
0.901969
1
1.46858
0.767339
1.47417
1.32579
1.4715
1.46888
0.997041
1.47051
1.47151
1.47107
1.4716
1.00031
1
0.683544
1
1.47224
0.829809
1.43077
1
1.46293
1
1
1
1
1
1.46875
0.64419
0.632583
1.46977
1.47179
1
1
1
1
1
1.46768
1.4243
1.47177
1.02353
1
1
1
1.00003
1.47097
1.47177
1
1.47122
1.47244
0.638979
1.32741
1
1.46983
1.47628
1.46783
0.997952
1.47171
1.47073
1
1.43448
1
1
1
1
1
1
1.47079
1.47057
1.43828
1.47146
0.649343
0.708865
1.47122
1.47161
1
0.635745
0.921558
1
1.22377
0.668505
1
0.999461
0.998295
0.648693
1
1.47248
1
1
1
1.47065
0.919788
1
1.47157
1.47145
1
1.47242
1
1
1.4714
1
0.645904
1
1.47215
1
1
0.651257
1
1.47272
1
0.644406
0.642265
1
1.46472
1
0.633894
0.886103
1
1.4716
1
1
1
1.47517
1
0.662328
1.06553
1.47272
1.47319
1.47156
1.03076
1.47322
1.47192
1
1.00002
1
1
1.00001
1.47173
1
0.999334
1.47012
1
0.63947
1
1.47173
1.21467
1.06408
1.21685
1.05765
1.47726
0.726415
1.47116
1
0.664555
0.997153
1.47129
0.927738
1.47137
1.47164
1.44721
1
1.47293
1.47174
1.4713
1
1.00004
1
1
1.47238
1.33183
1
1
0.674686
0.996585
1
1.47154
1
1.47127
1.47085
1.47035
0.902981
1.4707
1.47068
1.02098
1.22134
1.47245
1.47167
1
1.4345
0.854566
1.44779
0.974212
1.47093
1
1.4713
1.47177
1
0.654502
0.927714
0.686977
1
1.08641
0.997003
1.4723
1
1
0.996798
1
1.22185
1.42996
1
1
1.47186
1
1
1.33682
1.46968
1.45219
1.47097
1.47142
1
1.47107
0.763555
1.47162
1
0.994541
0.631338
1
1
0.742612
1
1.14038
1
1.47302
1
1.46275
1.29422
0.64312
1
1
1
1
1
1.47269
1.01174
1
1.46973
1
1.47096