/*--------------------------------*- C++ -*----------------------------------*\
  =========                 |
  \\      /  F ield         | OpenFOAM: The Open Source CFD Toolbox
   \\    /   O peration     | Website:  https://openfoam.org
    \\  /    A nd           | Version:  12
     \\/     M anipulation  |
\*---------------------------------------------------------------------------*/
FoamFile
{
    format      ascii;
    class       volVectorField;
    location    "5.78";
    object      U;
}
// * * * * * * * * * * * * * * * * * * * * * * * * * * * * * * * * * * * * * //

dimensions      [0 1 -1 0 0 0 0];

internalField   nonuniform List<vector> 
22702
(
(2 -7.56189e-14 0)
(2 -2.68874e-14 0)
(2.0427 -0.094533 0)
(2 -1.14242e-09 0)
(1.97667 0.030277 0)
(2 8.4113e-15 0)
(1.82958 0.228108 0)
(2 -3.23948e-14 0)
(2 -1.81054e-13 0)
(2.159 -0.259004 0)
(1.83095 0.228321 0)
(1.82673 0.227584 0)
(2 -5.47758e-14 0)
(1.83174 0.228881 0)
(2.03549 -0.078218 0)
(2 -8.28539e-14 0)
(2 -1.15311e-15 0)
(2 -1.43379e-14 0)
(1.8294 0.228115 0)
(2 1.59346e-14 0)
(1.83151 0.229469 0)
(2 -4.03777e-13 0)
(1.83064 0.228871 0)
(2.10911 -0.262274 0)
(1.83087 0.230017 0)
(2.10112 -0.26859 0)
(2 -7.17582e-14 0)
(1.83172 0.228951 0)
(2.11226 -0.255914 0)
(2.10386 -0.260662 0)
(2 -1.12621e-15 0)
(1.826 0.228229 0)
(2 -7.74642e-15 0)
(2 -3.55009e-14 0)
(2 -7.83328e-14 0)
(1.84452 0.214555 0)
(1.82906 0.230815 0)
(1.8304 0.228584 0)
(2 -3.13713e-14 0)
(2 -2.24272e-13 0)
(2.16095 -0.257242 0)
(2 5.168e-14 0)
(1.91591 0.122572 0)
(2 2.01268e-13 0)
(1.83158 0.228852 0)
(2 -2.65405e-13 0)
(2 -3.85291e-14 0)
(2 -2.7961e-13 0)
(2 -1.76812e-13 0)
(2.10937 -0.260766 0)
(2 -4.62975e-14 0)
(2.10938 -0.264414 0)
(2 1.87853e-13 0)
(1.83169 0.228731 0)
(2 -2.29859e-13 0)
(1.82681 0.229134 0)
(2 -3.41809e-14 0)
(2 1.51072e-09 0)
(2 -8.09591e-14 0)
(2 -1.50676e-13 0)
(2.09264 -0.277979 0)
(2 -1.52968e-13 0)
(2 -1.28943e-13 0)
(2.096 -0.254849 0)
(2 1.24229e-13 0)
(2.1065 -0.269462 0)
(2 -9.25009e-14 0)
(2 -2.11575e-13 0)
(2 -4.50669e-14 0)
(2.14826 -0.260695 0)
(2 -1.86744e-13 0)
(1.83121 0.228679 0)
(1.89641 0.151198 0)
(2 1.42827e-09 0)
(1.8299 0.228518 0)
(1.81988 0.235146 0)
(2.12025 -0.268462 0)
(1.82837 0.228143 0)
(2.11058 -0.262714 0)
(2 -1.34086e-13 0)
(1.83001 0.228915 0)
(2.1127 -0.262775 0)
(1.83063 0.2288 0)
(1.83085 0.228981 0)
(2 5.81699e-14 0)
(2 9.03364e-07 0)
(2 4.43049e-15 0)
(2 1.36053e-13 0)
(2.02164 -0.0489594 0)
(2.15232 -0.253671 0)
(1.82856 0.228534 0)
(2 -1.78683e-13 0)
(2 -6.97777e-11 0)
(2.14925 -0.25851 0)
(2 -4.29083e-15 0)
(1.83142 0.229343 0)
(2.15135 -0.258388 0)
(2 2.32629e-08 0)
(2 -1.77793e-14 0)
(2 -2.02806e-13 0)
(2 -2.55554e-14 0)
(1.91607 0.123591 0)
(1.82979 0.229078 0)
(2.15984 -0.264103 0)
(2 9.40045e-10 0)
(2 -9.48169e-10 0)
(1.9577 0.0584304 0)
(2 9.51799e-09 0)
(2.11186 -0.261612 0)
(2 -1.39001e-13 0)
(1.82776 0.22816 0)
(1.82959 0.229106 0)
(2 4.49659e-09 0)
(2 -2.14624e-13 0)
(2.10969 -0.274846 0)
(2.10647 -0.278875 0)
(2.15 -0.259097 0)
(2 5.8193e-15 0)
(2 -1.40583e-07 0)
(2 4.27363e-14 0)
(2 -1.62785e-13 0)
(2 1.09643e-07 0)
(2.02407 -0.0552075 0)
(2 -1.08482e-07 0)
(1.85568 0.20157 0)
(1.98154 0.0250417 0)
(1.8295 0.228502 0)
(2 -2.83907e-13 0)
(1.82921 0.228427 0)
(1.82883 0.228415 0)
(1.8313 0.229266 0)
(1.83058 0.229008 0)
(2 -8.18265e-14 0)
(2.12726 -0.265825 0)
(2 5.53333e-15 0)
(2.11356 -0.270297 0)
(2 -7.3513e-14 0)
(2 -2.18534e-15 0)
(2 7.84995e-14 0)
(2 4.31303e-14 0)
(1.82926 0.22907 0)
(2 3.01404e-09 0)
(2 -6.65125e-14 0)
(2 -2.31227e-13 0)
(2 -1.25377e-13 0)
(1.8289 0.228638 0)
(2 1.46568e-14 0)
(1.99549 0.0127507 0)
(2 -4.99585e-14 0)
(2 -2.57272e-13 0)
(2 -6.60752e-11 0)
(2 1.54961e-14 0)
(2.11301 -0.263061 0)
(2 -2.2439e-14 0)
(1.99564 0.00871446 0)
(2 5.2068e-15 0)
(2.1089 -0.264335 0)
(2 -1.4612e-13 0)
(2 3.17581e-14 0)
(2 -9.9562e-14 0)
(1.82865 0.228906 0)
(2 -6.66698e-15 0)
(1.83171 0.229119 0)
(2.08204 -0.286844 0)
(2.08858 -0.275852 0)
(1.83019 0.228274 0)
(1.83187 0.229243 0)
(2 -4.42193e-14 0)
(1.9694 0.0454992 0)
(1.90307 0.142572 0)
(2 -3.59994e-14 0)
(1.83292 0.22926 0)
(2.10853 -0.264894 0)
(1.84379 0.215458 0)
(2 -4.99944e-14 0)
(2 1.58449e-13 0)
(2 3.96386e-14 0)
(2 -1.2303e-13 0)
(1.83176 0.228649 0)
(1.86867 0.190731 0)
(2 3.1328e-15 0)
(1.82879 0.228712 0)
(2.08061 -0.255216 0)
(1.83079 0.229153 0)
(2 1.12831e-13 0)
(2.10806 -0.263883 0)
(2 7.76452e-14 0)
(2.10814 -0.264351 0)
(2.07723 -0.278977 0)
(2.00008 -0.000118763 0)
(2 1.55704e-14 0)
(2 -4.43505e-14 0)
(1.82969 0.229785 0)
(2 -5.57503e-14 0)
(2 -2.072e-13 0)
(1.83194 0.229193 0)
(2 -1.63743e-13 0)
(1.82939 0.228816 0)
(1.82856 0.228373 0)
(2.09602 -0.268318 0)
(2 -1.83596e-14 0)
(2 -2.50735e-13 0)
(2.10688 -0.260805 0)
(1.83179 0.229103 0)
(2 -6.61868e-14 0)
(2 -9.99143e-14 0)
(2 -9.24031e-14 0)
(1.83183 0.229166 0)
(2 -2.63192e-14 0)
(2.11278 -0.262145 0)
(2 -5.86094e-11 0)
(2 -1.23969e-13 0)
(1.83154 0.228857 0)
(1.83134 0.228887 0)
(1.82842 0.22834 0)
(2 2.79845e-14 0)
(1.99998 2.41495e-05 0)
(2 3.257e-14 0)
(2 -6.04244e-15 0)
(2 -1.954e-13 0)
(1.8317 0.228993 0)
(2 -9.44724e-14 0)
(2.0887 -0.259895 0)
(1.82316 0.234895 0)
(1.83176 0.228991 0)
(1.83172 0.229395 0)
(2 1.89635e-07 0)
(2 -1.21272e-14 0)
(2 1.41598e-14 0)
(2.11077 -0.271092 0)
(1.83222 0.228624 0)
(1.91638 0.134294 0)
(2 5.12063e-15 0)
(1.83083 0.229574 0)
(2.09781 -0.259021 0)
(2.10134 -0.260133 0)
(1.83094 0.229605 0)
(1.83141 0.227708 0)
(2 -2.84844e-15 0)
(1.83008 0.232104 0)
(2.15625 -0.260679 0)
(1.85053 0.206608 0)
(2 9.51788e-14 0)
(2 -1.88047e-13 0)
(2 -3.82062e-14 0)
(2 -3.04963e-13 0)
(1.83209 0.229113 0)
(2 -1.4878e-13 0)
(1.90368 0.147281 0)
(1.9832 0.0291317 0)
(2 -2.48644e-13 0)
(2 -1.27382e-13 0)
(1.83191 0.229346 0)
(2.13506 -0.257852 0)
(2.06416 -0.166624 0)
(2 -2.27782e-13 0)
(1.83185 0.228782 0)
(2.12715 -0.25758 0)
(1.82961 0.232566 0)
(2 -5.60645e-14 0)
(2 -2.14815e-15 0)
(2 1.11306e-13 0)
(2 -5.3595e-14 0)
(2 -9.22298e-15 0)
(2 -2.52404e-14 0)
(2 -2.35922e-14 0)
(2.1079 -0.264565 0)
(2.09364 -0.158594 0)
(2.10736 -0.262664 0)
(1.83139 0.228903 0)
(2 1.74383e-14 0)
(2 2.7353e-13 0)
(2 -1.44701e-07 0)
(2 -1.07539e-13 0)
(1.84194 0.210035 0)
(2 -1.23188e-07 0)
(2.10702 -0.263054 0)
(2 -4.66157e-14 0)
(2.12459 -0.278813 0)
(2.10463 -0.259693 0)
(1.83199 0.229182 0)
(2.10821 -0.260561 0)
(1.83151 0.229436 0)
(2 -1.24567e-13 0)
(2 -1.73324e-13 0)
(2 -3.36259e-14 0)
(2.00078 -0.00156001 0)
(2.10701 -0.265326 0)
(2.15301 -0.262434 0)
(2 -2.9868e-07 0)
(2 -1.50827e-07 0)
(2.12033 -0.279274 0)
(2 2.32058e-09 0)
(1.8289 0.228653 0)
(2.17513 -0.245191 0)
(2 4.96033e-14 0)
(2 -3.52024e-11 0)
(1.83018 0.228947 0)
(2.10397 -0.275421 0)
(2 -9.59766e-14 0)
(1.82813 0.231909 0)
(2.07484 -0.270652 0)
(1.8319 0.229343 0)
(2 -4.86132e-14 0)
(2.11687 -0.287861 0)
(2.00089 -0.001478 0)
(2 -2.39987e-14 0)
(2 2.73449e-06 0)
(2 1.13122e-14 0)
(2.11159 -0.266222 0)
(2 -3.02437e-13 0)
(2 -1.725e-07 0)
(2 -1.49683e-06 0)
(1.99999 1.43656e-05 0)
(1.99518 0.00107059 0)
(1.89385 0.152776 0)
(2 -2.53142e-11 0)
(2.09988 -0.251762 0)
(2 -1.63641e-11 0)
(2 1.49248e-06 0)
(2 -1.48567e-14 0)
(2 -1.14145e-13 0)
(2 -2.1052e-14 0)
(2 2.72483e-15 0)
(2 -9.8086e-13 0)
(1.83022 0.229143 0)
(2 2.20607e-13 0)
(1.82963 0.229347 0)
(2 5.44142e-14 0)
(2 -1.08534e-13 0)
(2 2.91007e-14 0)
(2.12278 -0.261579 0)
(2 1.24568e-13 0)
(1.82972 0.229074 0)
(2.09764 -0.258972 0)
(2 -2.07179e-13 0)
(1.86291 0.192508 0)
(2 -1.40038e-13 0)
(2 -1.56999e-13 0)
(1.82956 0.22881 0)
(2 -8.09937e-14 0)
(2 -1.00036e-08 0)
(2 -1.14546e-13 0)
(1.82944 0.227898 0)
(2 4.95926e-10 0)
(2 -1.44921e-13 0)
(1.83101 0.232849 0)
(1.83029 0.228223 0)
(2 -1.05769e-13 0)
(1.96211 0.057111 0)
(2 -2.32521e-14 0)
(2 -7.72557e-14 0)
(2.11646 -0.263589 0)
(2 6.09999e-14 0)
(2 -2.04447e-14 0)
(2 4.47717e-14 0)
(2.13956 -0.259459 0)
(2 5.65718e-14 0)
(2 9.96894e-14 0)
(2 1.73062e-13 0)
(2 8.4453e-14 0)
(2.10017 -0.271357 0)
(2 -1.19918e-13 0)
(2 6.77895e-14 0)
(2 -1.36827e-14 0)
(2 1.13751e-13 0)
(2 1.02279e-13 0)
(2.15922 -0.254455 0)
(1.99998 3.69291e-05 0)
(1.83183 0.229113 0)
(2 7.71882e-14 0)
(2 -3.45266e-05 0)
(1.83169 0.228852 0)
(1.83049 0.228669 0)
(2 8.04901e-14 0)
(2 1.13449e-13 0)
(2.09684 -0.268456 0)
(2.05571 -0.130289 0)
(1.8299 0.228846 0)
(2 -1.00188e-13 0)
(2 -1.15695e-13 0)
(2 7.14323e-14 0)
(1.83201 0.229287 0)
(2.14572 -0.260769 0)
(2 -6.13709e-14 0)
(1.83167 0.228993 0)
(2 -7.8282e-14 0)
(2 -1.18925e-13 0)
(2.0828 -0.212762 0)
(2.08631 -0.212455 0)
(2 -2.73512e-13 0)
(2.11159 -0.266995 0)
(2.10774 -0.263341 0)
(2 -5.06447e-14 0)
(2 -4.90739e-14 0)
(2 -1.89755e-13 0)
(2 4.4051e-14 0)
(2 -9.35364e-11 0)
(2 -1.7441e-14 0)
(2 7.30909e-15 0)
(1.83025 0.228497 0)
(1.9563 0.0611711 0)
(1.83369 0.221205 0)
(2.15036 -0.256912 0)
(2.03106 -0.0607391 0)
(1.82831 0.229074 0)
(2 -2.39332e-13 0)
(1.82859 0.228269 0)
(1.82987 0.228929 0)
(2.11582 -0.266146 0)
(2.06152 -0.154869 0)
(2 6.86284e-13 0)
(2.12934 -0.261188 0)
(2 1.01825e-13 0)
(1.82263 0.23738 0)
(2 -2.90565e-13 0)
(2 -3.50124e-15 0)
(2 -4.51677e-14 0)
(2 -2.43943e-14 0)
(1.83196 0.229146 0)
(2 5.81735e-14 0)
(2 -6.68698e-14 0)
(2 -3.27671e-14 0)
(2 1.54747e-09 0)
(2 2.8651e-14 0)
(2 3.12291e-14 0)
(2 -2.03147e-13 0)
(1.93935 0.0896766 0)
(1.82882 0.229243 0)
(2 7.54767e-14 0)
(1.83137 0.228819 0)
(2 2.55549e-13 0)
(2 2.41846e-14 0)
(2.11169 -0.265339 0)
(2 1.43822e-13 0)
(2 -5.87932e-14 0)
(2 -8.8761e-14 0)
(2 -9.50286e-14 0)
(1.83165 0.229193 0)
(1.87096 0.182456 0)
(2 -1.44113e-13 0)
(2 -1.61191e-13 0)
(2.11279 -0.264525 0)
(1.83143 0.228821 0)
(1.83139 0.228925 0)
(2 -1.27042e-13 0)
(1.83145 0.228913 0)
(1.83165 0.228953 0)
(1.83137 0.228804 0)
(2 -3.43838e-14 0)
(2.05587 -0.110206 0)
(2 1.74686e-13 0)
(1.83242 0.229092 0)
(2.00081 -0.0110656 0)
(1.83133 0.22878 0)
(2 -8.94399e-14 0)
(2.12085 -0.265651 0)
(2.00034 -0.00063546 0)
(1.82887 0.228598 0)
(2 2.3615e-14 0)
(2 -7.249e-14 0)
(2 -5.21335e-11 0)
(2 -1.84295e-11 0)
(2.11316 -0.259872 0)
(1.83208 0.229029 0)
(1.84732 0.211951 0)
(2 -3.65472e-14 0)
(1.83255 0.227167 0)
(1.83198 0.229183 0)
(1.82965 0.229042 0)
(2 -6.38596e-14 0)
(1.92154 0.122141 0)
(1.83103 0.229482 0)
(2 1.7502e-14 0)
(2 -1.56256e-14 0)
(1.88445 0.166337 0)
(1.97895 0.0368816 0)
(1.83139 0.228844 0)
(2.02132 -0.0484817 0)
(1.83133 0.228884 0)
(2 -2.89608e-14 0)
(1.83127 0.228915 0)
(1.8314 0.228868 0)
(1.83125 0.228956 0)
(1.83131 0.228929 0)
(2 1.50743e-14 0)
(1.83792 0.233684 0)
(2.03226 -0.0619743 0)
(2.03579 -0.0845544 0)
(2 5.69035e-14 0)
(2 -3.43339e-07 0)
(2 -8.98318e-14 0)
(2 4.20369e-14 0)
(1.83074 0.228631 0)
(2 4.25294e-15 0)
(2 6.14452e-14 0)
(2 1.24367e-14 0)
(2 1.00869e-13 0)
(2 2.27452e-14 0)
(1.8284 0.228617 0)
(2 6.34645e-14 0)
(2 1.29659e-13 0)
(2.00167 -0.00270123 0)
(1.8314 0.228982 0)
(1.85863 0.198757 0)
(2 -1.32283e-13 0)
(1.87077 0.184124 0)
(1.99998 2.63366e-05 0)
(2 -2.64152e-13 0)
(2 -1.47133e-13 0)
(1.83178 0.229295 0)
(2 -1.91042e-13 0)
(2.00186 -0.00232683 0)
(1.99814 0.00436293 0)
(2 3.11639e-14 0)
(1.83153 0.228847 0)
(2 -2.82225e-14 0)
(1.83229 0.228564 0)
(2 -1.01553e-13 0)
(2 7.73631e-15 0)
(1.87632 0.177596 0)
(2 -3.74231e-14 0)
(1.83211 0.228842 0)
(1.99999 1.30427e-05 0)
(2 -1.84581e-14 0)
(1.83156 0.229749 0)
(2 -1.73721e-14 0)
(1.83152 0.229119 0)
(2 -9.79242e-14 0)
(2 2.92393e-06 0)
(2 -1.07337e-13 0)
(1.83214 0.229168 0)
(2 -9.21374e-14 0)
(1.83081 0.228407 0)
(2 4.55515e-06 0)
(1.83196 0.229134 0)
(1.82853 0.228579 0)
(1.83188 0.229029 0)
(1.83082 0.228829 0)
(2 -9.95406e-14 0)
(1.833 0.228382 0)
(1.83889 0.22437 0)
(2 -1.37666e-13 0)
(2.10215 -0.260121 0)
(1.84216 0.21744 0)
(1.87734 0.173952 0)
(2 -1.13175e-13 0)
(1.83196 0.229154 0)
(2 1.26863e-13 0)
(2.12651 -0.261557 0)
(2.06837 -0.276439 0)
(2 6.46131e-15 0)
(2 3.00283e-16 0)
(2 -2.3629e-14 0)
(2 -1.86126e-13 0)
(2 1.91287e-09 0)
(2.1553 -0.251218 0)
(2 2.55661e-14 0)
(1.83137 0.228831 0)
(1.95618 0.0679383 0)
(1.83165 0.228997 0)
(2 -2.67652e-13 0)
(2 8.7956e-11 0)
(2 -1.17071e-13 0)
(2 -2.52985e-14 0)
(2 -5.12938e-08 0)
(1.83136 0.228931 0)
(2 -1.11509e-13 0)
(1.83106 0.228346 0)
(1.90078 0.143293 0)
(2.07238 -0.156991 0)
(2 1.30216e-09 0)
(1.99999 8.39086e-06 0)
(1.95204 0.0750336 0)
(1.9587 0.0653912 0)
(2 -1.1893e-14 0)
(2 -5.51327e-14 0)
(1.93945 0.0898886 0)
(2 7.89076e-14 0)
(2.10905 -0.263062 0)
(1.8318 0.229139 0)
(1.83174 0.2291 0)
(2 -6.25869e-11 0)
(2 1.28966e-13 0)
(2 -2.47616e-14 0)
(1.82938 0.228464 0)
(2 -4.5051e-14 0)
(1.99999 1.63813e-05 0)
(1.82997 0.230519 0)
(1.83203 0.228863 0)
(2.01315 -0.0257585 0)
(2 1.46443e-13 0)
(2 1.89543e-10 0)
(2.10885 -0.260543 0)
(1.8465 0.211857 0)
(2 5.61027e-14 0)
(2 -4.81183e-14 0)
(2 8.54299e-14 0)
(2 -2.95655e-11 0)
(2 1.08161e-13 0)
(1.83139 0.229062 0)
(1.83304 0.229324 0)
(2 2.61984e-14 0)
(1.83163 0.229654 0)
(1.83122 0.229268 0)
(1.83191 0.229196 0)
(2 1.52175e-13 0)
(2 3.74918e-14 0)
(2 -6.08758e-11 0)
(2 -4.51866e-14 0)
(2.14925 -0.260438 0)
(1.8305 0.228935 0)
(2 -4.33242e-11 0)
(2 -1.23028e-13 0)
(1.84682 0.211987 0)
(1.8323 0.228675 0)
(2 -1.65326e-13 0)
(1.84157 0.218101 0)
(1.8286 0.228743 0)
(2 -4.60149e-14 0)
(2 -2.17907e-07 0)
(2 7.34179e-11 0)
(2 -3.61421e-14 0)
(2 -2.03866e-13 0)
(1.83161 0.228914 0)
(2 3.07349e-14 0)
(2 -2.21478e-14 0)
(2 -1.17249e-13 0)
(2 -2.59707e-13 0)
(1.8307 0.229738 0)
(2 -2.46145e-13 0)
(1.82962 0.235177 0)
(2.13979 -0.258668 0)
(2 -7.15131e-14 0)
(2.09475 -0.269886 0)
(2 -1.44758e-13 0)
(2 -1.69233e-07 0)
(2 -4.52988e-14 0)
(2.00126 -0.00206283 0)
(2.10998 -0.264387 0)
(2.00033 -0.000489189 0)
(2 4.26842e-14 0)
(2 2.98051e-14 0)
(2 -1.18782e-07 0)
(1.97702 0.0346853 0)
(2 -1.61497e-13 0)
(2 -2.61245e-13 0)
(2.05048 -0.0926837 0)
(2 -2.10401e-07 0)
(2 9.61547e-15 0)
(2 4.61504e-14 0)
(2 -2.12861e-07 0)
(2 4.04622e-08 0)
(2 -1.73097e-07 0)
(2 -2.92844e-13 0)
(2 -1.61597e-06 0)
(2.02719 -0.0519243 0)
(2 -4.73047e-07 0)
(2 -4.32818e-08 0)
(2.0009 -0.00129777 0)
(2 -3.62293e-14 0)
(2.11057 -0.259744 0)
(2 -2.96209e-11 0)
(2 -4.55218e-12 0)
(2 -6.0956e-11 0)
(2 5.04295e-14 0)
(1.87392 0.180356 0)
(2 1.18894e-13 0)
(2 4.49954e-14 0)
(2 1.14483e-13 0)
(2 -1.62816e-07 0)
(2.09256 -0.256383 0)
(2 -2.18597e-14 0)
(2 1.36976e-09 0)
(1.84163 0.217432 0)
(1.83042 0.229137 0)
(2 -3.14099e-07 0)
(2 -7.89439e-14 0)
(2 -1.10507e-07 0)
(2.03142 -0.0817345 0)
(2 1.25917e-13 0)
(2 4.64175e-10 0)
(2 1.07378e-13 0)
(2 3.11107e-14 0)
(2 -1.86997e-13 0)
(2 -2.90634e-13 0)
(2.01909 -0.0304664 0)
(1.99484 0.00215055 0)
(1.83191 0.228744 0)
(2 8.17743e-14 0)
(2 -2.16239e-13 0)
(2 5.22864e-14 0)
(1.83094 0.230017 0)
(2.03134 -0.0692918 0)
(2 -4.84581e-09 0)
(2 1.36983e-13 0)
(2 1.06504e-13 0)
(1.83095 0.228803 0)
(1.83088 0.228834 0)
(2 -2.80799e-08 0)
(2 5.15841e-06 0)
(2 3.3252e-09 0)
(2 2.51187e-14 0)
(2 1.23154e-09 0)
(2 -3.5682e-14 0)
(2 -1.02488e-11 0)
(2 1.00367e-13 0)
(2 -9.51017e-14 0)
(2.11794 -0.264085 0)
(2 4.48242e-14 0)
(2 -1.4749e-11 0)
(1.8299 0.22862 0)
(2.11762 -0.262703 0)
(2 -1.63293e-13 0)
(1.83005 0.227783 0)
(2 5.00834e-11 0)
(2.11194 -0.265673 0)
(2 -3.18124e-14 0)
(2 -1.03676e-13 0)
(2.11607 -0.268852 0)
(2 -5.27194e-14 0)
(2 -1.09567e-11 0)
(2 -4.61719e-12 0)
(2 -6.59669e-14 0)
(2 -2.9822e-12 0)
(2 -1.97383e-13 0)
(2 1.34959e-13 0)
(1.83489 0.225296 0)
(1.83225 0.228794 0)
(2 4.40337e-13 0)
(2 -6.55451e-14 0)
(2 -7.50995e-14 0)
(2 3.81491e-13 0)
(1.84573 0.21263 0)
(2 3.29891e-13 0)
(1.94744 0.0855572 0)
(2.10711 -0.262483 0)
(2 -2.99569e-08 0)
(2 3.70162e-13 0)
(2 -1.43108e-13 0)
(2 -2.43797e-13 0)
(2 -9.50121e-14 0)
(2 -8.42211e-14 0)
(2 -3.69832e-14 0)
(1.98227 0.0265215 0)
(2 7.14285e-14 0)
(2 -7.7188e-14 0)
(1.9058 0.12095 0)
(2 -1.00421e-13 0)
(2 5.85238e-14 0)
(2 -1.45513e-15 0)
(1.85985 0.195257 0)
(2 -2.98159e-13 0)
(2 -6.37227e-15 0)
(2 -6.6251e-14 0)
(2 -1.25487e-13 0)
(2.14079 -0.260465 0)
(2 6.78537e-12 0)
(2 6.25693e-16 0)
(2.12212 -0.267551 0)
(2.13725 -0.259883 0)
(2 -1.29183e-14 0)
(2 -5.02695e-14 0)
(1.83231 0.2292 0)
(2 -1.9998e-13 0)
(2.00041 -0.0230136 0)
(2 -2.22426e-14 0)
(2 1.92736e-15 0)
(2 -3.63131e-14 0)
(1.88296 0.167264 0)
(2.10346 -0.270653 0)
(2 -3.35386e-13 0)
(2.10842 -0.279677 0)
(2 9.63712e-14 0)
(2.07068 -0.157971 0)
(2 -1.01454e-14 0)
(2 -3.11952e-14 0)
(2 -6.75899e-14 0)
(1.83054 0.229686 0)
(2 -4.52517e-08 0)
(2 -1.72455e-13 0)
(1.8319 0.229344 0)
(2 -2.01378e-13 0)
(2 -3.43972e-11 0)
(2 1.6535e-09 0)
(1.83179 0.229063 0)
(2 2.41749e-10 0)
(2 7.9068e-15 0)
(1.83147 0.228722 0)
(2 -2.0144e-13 0)
(2 6.64971e-14 0)
(2.11799 -0.268764 0)
(2 -1.7304e-11 0)
(1.94368 0.0861626 0)
(2 1.76012e-14 0)
(2 7.30168e-14 0)
(1.82896 0.229086 0)
(1.82847 0.228991 0)
(1.88659 0.163451 0)
(1.85021 0.208089 0)
(2 -1.48331e-13 0)
(2.12795 -0.264698 0)
(2 3.72105e-14 0)
(2 1.38363e-13 0)
(1.83885 0.220341 0)
(2 4.86896e-14 0)
(2.13413 -0.261399 0)
(2 -1.9452e-14 0)
(2 -7.79112e-16 0)
(2 5.10344e-14 0)
(1.83122 0.229284 0)
(2 1.69558e-14 0)
(2 1.25362e-13 0)
(2 1.64942e-15 0)
(2 -1.10988e-14 0)
(1.90002 0.144842 0)
(2 6.48892e-15 0)
(1.84019 0.225041 0)
(1.83057 0.228888 0)
(2.15295 -0.257012 0)
(2 -1.67332e-13 0)
(2 -9.23182e-14 0)
(2.12493 -0.27444 0)
(2.08475 -0.266725 0)
(2 1.19444e-13 0)
(2 1.15306e-13 0)
(2 -5.9353e-12 0)
(1.87951 0.17209 0)
(1.87253 0.180793 0)
(2 -1.84617e-13 0)
(2 -5.70019e-14 0)
(2 -1.69897e-13 0)
(2 3.9508e-14 0)
(2 3.01623e-14 0)
(2 -1.0522e-13 0)
(2 -1.46206e-13 0)
(1.92911 0.104684 0)
(1.83085 0.22849 0)
(1.99449 -0.00335439 0)
(2 -7.08669e-14 0)
(1.83379 0.226699 0)
(2.11687 -0.273841 0)
(2 -9.58062e-14 0)
(2 -1.00171e-13 0)
(2 -4.89784e-14 0)
(1.90804 0.136641 0)
(2 -5.38629e-14 0)
(1.9659 0.0545561 0)
(2 -1.00182e-13 0)
(1.84622 0.212419 0)
(1.83254 0.228173 0)
(2 -2.15589e-13 0)
(2.11633 -0.265837 0)
(2 -7.58416e-14 0)
(1.82923 0.229059 0)
(2 -3.97672e-14 0)
(2 -6.21218e-14 0)
(1.83153 0.229235 0)
(1.84217 0.217658 0)
(2 -2.32843e-13 0)
(1.82701 0.228097 0)
(2 2.90656e-14 0)
(2.09145 -0.269256 0)
(2 5.91812e-14 0)
(2 5.42961e-14 0)
(2 2.45448e-14 0)
(1.82972 0.229937 0)
(1.83472 0.225125 0)
(1.8514 0.206771 0)
(2 2.11096e-13 0)
(1.82953 0.231074 0)
(1.83143 0.228897 0)
(2 -8.28827e-14 0)
(1.8308 0.229369 0)
(2 -9.95682e-09 0)
(1.8323 0.228306 0)
(2 -5.24077e-14 0)
(2.13053 -0.260938 0)
(2.00314 -0.019388 0)
(2.12533 -0.262754 0)
(2 -3.38277e-11 0)
(2 -2.22296e-11 0)
(2 -3.38159e-11 0)
(2 -2.6695e-13 0)
(2 -1.53462e-11 0)
(1.83121 0.228669 0)
(2 -7.56958e-14 0)
(1.83165 0.229269 0)
(2 -4.40783e-11 0)
(2 -1.0146e-10 0)
(2 -3.46158e-14 0)
(1.83968 0.219543 0)
(2 -5.51881e-15 0)
(2.11629 -0.265616 0)
(1.83191 0.229435 0)
(2 3.26735e-14 0)
(2.11463 -0.264713 0)
(2.09778 -0.258003 0)
(2.09725 -0.26715 0)
(2 -5.57779e-14 0)
(1.91499 0.126476 0)
(1.9824 0.0253073 0)
(1.83054 0.229568 0)
(1.83161 0.22903 0)
(2 -1.87338e-13 0)
(2 -3.35735e-07 0)
(2 -1.05189e-07 0)
(2 1.02531e-13 0)
(1.83152 0.229023 0)
(2 5.25563e-14 0)
(2 -4.9119e-14 0)
(1.83131 0.228915 0)
(1.83133 0.228747 0)
(2 -1.73959e-13 0)
(1.94417 0.091683 0)
(1.99999 0.000918578 0)
(2 7.18175e-14 0)
(2.00115 -0.00191018 0)
(1.82863 0.228568 0)
(2.05148 -0.0977051 0)
(2 -1.18865e-07 0)
(2.06047 -0.118102 0)
(2.10639 -0.262828 0)
(2.10955 -0.267286 0)
(1.99658 -0.0512164 0)
(1.83173 0.229253 0)
(1.83415 0.226557 0)
(1.96617 0.0468046 0)
(1.83143 0.228946 0)
(1.83147 0.228784 0)
(2 1.44275e-13 0)
(2 2.06043e-14 0)
(1.83051 0.228676 0)
(1.82981 0.229808 0)
(1.83169 0.229208 0)
(1.82938 0.227912 0)
(2 3.82109e-15 0)
(1.83152 0.228947 0)
(2.13191 -0.265242 0)
(1.83073 0.226794 0)
(1.83163 0.227641 0)
(1.82965 0.228306 0)
(1.8307 0.230325 0)
(2.04709 -0.0973152 0)
(2.03275 -0.063998 0)
(2.02794 -0.0517043 0)
(1.83231 0.229074 0)
(2.01317 -0.0229179 0)
(1.83067 0.229523 0)
(2 5.3448e-14 0)
(2 -8.5556e-14 0)
(1.8307 0.229722 0)
(1.8313 0.229127 0)
(2 1.4688e-13 0)
(2.12504 -0.262591 0)
(1.83043 0.228973 0)
(1.83163 0.228617 0)
(2 -9.82062e-15 0)
(1.83195 0.228868 0)
(1.83177 0.228983 0)
(2 -2.00552e-14 0)
(1.8318 0.228996 0)
(2.09841 -0.257151 0)
(1.83086 0.230289 0)
(1.83071 0.228709 0)
(1.83045 0.229068 0)
(1.82945 0.231632 0)
(2 -1.06361e-13 0)
(2 -2.48107e-13 0)
(2 -1.03478e-07 0)
(1.83188 0.228676 0)
(1.88888 0.15856 0)
(2.12653 -0.236192 0)
(1.83142 0.228844 0)
(2.12314 -0.26896 0)
(1.83222 0.228866 0)
(2 -9.76794e-14 0)
(2 -2.06195e-13 0)
(2 1.17463e-13 0)
(2 2.92269e-14 0)
(1.83216 0.228588 0)
(1.83122 0.228922 0)
(2 -5.40987e-14 0)
(2 8.80555e-14 0)
(1.83122 0.228872 0)
(2.11591 -0.27058 0)
(1.83102 0.228909 0)
(2.10624 -0.259657 0)
(2 -2.91087e-14 0)
(1.83237 0.227752 0)
(2 3.35336e-14 0)
(2.15599 -0.261442 0)
(1.83093 0.229647 0)
(2.08302 -0.189643 0)
(2 2.03528e-13 0)
(1.83175 0.229205 0)
(1.83046 0.229848 0)
(1.83211 0.228865 0)
(2 -1.77963e-13 0)
(2 -1.05199e-13 0)
(1.91885 0.118467 0)
(1.83056 0.229634 0)
(2.10954 -0.265169 0)
(1.83153 0.229096 0)
(2 5.57664e-14 0)
(1.83208 0.229192 0)
(2.04575 -0.0864922 0)
(1.83204 0.228443 0)
(2.10668 -0.267257 0)
(2 -6.28593e-14 0)
(1.83241 0.228216 0)
(2.0893 -0.227841 0)
(1.83085 0.229683 0)
(2.11258 -0.269374 0)
(2 -7.01787e-14 0)
(1.83133 0.229347 0)
(2 -1.15825e-14 0)
(1.82925 0.228695 0)
(2 2.17591e-14 0)
(1.90004 0.145618 0)
(1.83806 0.221875 0)
(1.86768 0.187995 0)
(2.11113 -0.278402 0)
(2 -1.88391e-13 0)
(1.83136 0.228839 0)
(2 1.63058e-13 0)
(1.83186 0.229191 0)
(2 -1.19041e-07 0)
(1.83151 0.229205 0)
(2 -2.33233e-07 0)
(2 3.02528e-14 0)
(1.83131 0.229185 0)
(2.00205 -0.0142899 0)
(1.83054 0.230046 0)
(2.13679 -0.258649 0)
(1.84277 0.220217 0)
(2 -1.00453e-13 0)
(1.87839 0.172691 0)
(2 8.16149e-14 0)
(1.83118 0.229818 0)
(1.83153 0.229126 0)
(1.83057 0.228639 0)
(2 5.21478e-14 0)
(1.84887 0.210009 0)
(1.83117 0.229048 0)
(1.8441 0.215221 0)
(1.89731 0.147227 0)
(1.83092 0.231968 0)
(2 2.60055e-14 0)
(1.88908 0.161681 0)
(2 1.34549e-13 0)
(1.83143 0.228825 0)
(2 -8.36087e-14 0)
(1.97494 0.0423751 0)
(2 1.18962e-13 0)
(1.84346 0.215615 0)
(2 -1.11003e-13 0)
(1.83205 0.229279 0)
(1.84002 0.219501 0)
(1.83945 0.219539 0)
(2 1.07853e-14 0)
(1.84106 0.224372 0)
(2.05614 -0.271253 0)
(2 8.97234e-15 0)
(2.13701 -0.261094 0)
(2 -1.56772e-13 0)
(2 -9.46337e-14 0)
(2 -6.09758e-14 0)
(1.82787 0.228169 0)
(2 -4.44084e-14 0)
(1.83142 0.229371 0)
(2 8.78121e-14 0)
(2 -3.72812e-14 0)
(2 -9.23272e-14 0)
(1.83073 0.229246 0)
(1.83286 0.233795 0)
(1.86063 0.192272 0)
(1.8321 0.228737 0)
(1.83128 0.229911 0)
(2.09623 -0.26851 0)
(1.8274 0.230494 0)
(1.8304 0.228655 0)
(2 1.10678e-13 0)
(1.85064 0.21344 0)
(1.83151 0.229023 0)
(1.84344 0.213569 0)
(2 -2.49864e-13 0)
(1.83257 0.229171 0)
(1.82632 0.227868 0)
(2 2.07967e-14 0)
(1.83069 0.231379 0)
(1.83105 0.229293 0)
(1.83072 0.229395 0)
(1.83105 0.229828 0)
(2 -5.92345e-14 0)
(2 1.27647e-13 0)
(2 1.37701e-13 0)
(1.83175 0.229126 0)
(2.12463 -0.270001 0)
(2 -2.98239e-14 0)
(1.83175 0.228994 0)
(2 6.37661e-14 0)
(2 7.07225e-14 0)
(2.07784 -0.281616 0)
(2 -1.05243e-13 0)
(2 2.16148e-13 0)
(1.83148 0.228753 0)
(1.83192 0.228587 0)
(2 -1.02014e-13 0)
(1.8316 0.229096 0)
(1.83078 0.231178 0)
(1.82973 0.228583 0)
(1.99829 -0.011388 0)
(1.83113 0.228914 0)
(2 4.41548e-14 0)
(1.83118 0.228927 0)
(1.83149 0.228836 0)
(1.8755 0.179317 0)
(2 1.84611e-14 0)
(2 -1.4169e-13 0)
(2 3.25009e-14 0)
(1.83225 0.228922 0)
(1.83135 0.228795 0)
(1.83208 0.228828 0)
(2.01948 -0.045153 0)
(2 2.91964e-14 0)
(1.83015 0.231409 0)
(1.83142 0.228916 0)
(1.8332 0.229514 0)
(2 -1.10617e-13 0)
(1.83143 0.229084 0)
(1.83142 0.228834 0)
(1.8316 0.228732 0)
(1.82513 0.232027 0)
(2 1.07063e-13 0)
(1.83212 0.229242 0)
(1.83088 0.230477 0)
(1.85323 0.202625 0)
(1.83202 0.227923 0)
(1.82463 0.229948 0)
(2 3.71968e-14 0)
(1.83026 0.228952 0)
(1.83365 0.226978 0)
(1.83208 0.22885 0)
(1.83171 0.227857 0)
(1.83203 0.228508 0)
(2.05869 -0.277109 0)
(1.83161 0.229256 0)
(1.8324 0.228334 0)
(2 3.72662e-14 0)
(1.83124 0.228924 0)
(1.83196 0.228808 0)
(1.83117 0.229088 0)
(1.83159 0.228969 0)
(2 -4.6303e-08 0)
(1.83209 0.228915 0)
(1.83131 0.228841 0)
(2 -1.716e-07 0)
(1.83136 0.228653 0)
(1.8594 0.196949 0)
(2 4.07654e-14 0)
(2 2.1429e-15 0)
(2 1.25917e-09 0)
(1.83153 0.228557 0)
(1.82988 0.229859 0)
(2 1.308e-14 0)
(2 -1.49504e-13 0)
(1.90784 0.138675 0)
(2 2.81089e-13 0)
(1.83132 0.229257 0)
(2 -2.91055e-14 0)
(2 -9.00481e-14 0)
(1.83148 0.228761 0)
(1.83078 0.229601 0)
(1.83165 0.229083 0)
(1.83143 0.228768 0)
(2 2.57362e-14 0)
(2 -1.71513e-14 0)
(2 -8.40406e-15 0)
(1.88772 0.167793 0)
(2 5.78308e-14 0)
(1.83143 0.229131 0)
(2 7.89835e-14 0)
(2 -4.38022e-14 0)
(1.82971 0.228692 0)
(1.83074 0.228792 0)
(2 -4.73506e-15 0)
(1.83151 0.228963 0)
(2.13306 -0.273676 0)
(1.8319 0.229045 0)
(1.83108 0.229712 0)
(2.11832 -0.190238 0)
(2 5.63829e-14 0)
(2.13312 -0.274159 0)
(1.85543 0.204549 0)
(1.83007 0.2315 0)
(1.83178 0.229741 0)
(1.83185 0.229829 0)
(2.0949 -0.264003 0)
(1.83121 0.229002 0)
(1.83058 0.228937 0)
(2.09083 -0.273878 0)
(2.11886 -0.272482 0)
(2 -2.61802e-07 0)
(1.8317 0.229374 0)
(1.83185 0.229108 0)
(2 -8.40547e-14 0)
(2 -9.61953e-15 0)
(1.83189 0.228986 0)
(2 -3.08894e-13 0)
(1.82915 0.233715 0)
(2 2.47509e-06 0)
(1.85374 0.204401 0)
(2 2.00113e-13 0)
(1.92038 0.121853 0)
(1.83182 0.228719 0)
(1.8305 0.229909 0)
(1.88255 0.175018 0)
(1.85063 0.201786 0)
(1.82883 0.228462 0)
(1.83374 0.230386 0)
(1.8528 0.210142 0)
(2 -2.68077e-13 0)
(2.10262 -0.277187 0)
(1.83033 0.229831 0)
(1.83187 0.229065 0)
(1.8333 0.232064 0)
(2 6.82461e-06 0)
(2 3.26212e-10 0)
(2 1.51836e-09 0)
(1.82739 0.229075 0)
(2 -1.06713e-13 0)
(1.83195 0.229023 0)
(1.83118 0.228046 0)
(2.08308 -0.177515 0)
(2 -2.36489e-14 0)
(1.83117 0.22891 0)
(2.00003 -5.06279e-05 0)
(2 1.69839e-14 0)
(1.99999 1.96767e-05 0)
(1.99998 2.5654e-05 0)
(1.83185 0.229181 0)
(1.82932 0.228824 0)
(2.00056 -0.000915752 0)
(2 -1.91433e-14 0)
(2 -6.10528e-14 0)
(1.83178 0.229111 0)
(1.83071 0.229703 0)
(1.83163 0.228839 0)
(1.82999 0.23095 0)
(1.83181 0.228849 0)
(2.11474 -0.252898 0)
(1.87104 0.188617 0)
(2 5.1633e-14 0)
(1.83258 0.227643 0)
(1.83169 0.228995 0)
(1.83177 0.229157 0)
(1.82407 0.231939 0)
(2 -1.53264e-13 0)
(1.83157 0.229137 0)
(1.83571 0.223863 0)
(1.83119 0.229613 0)
(2 -5.78085e-14 0)
(1.83117 0.229168 0)
(1.83137 0.228643 0)
(2.05052 -0.0975077 0)
(1.8317 0.22902 0)
(1.83091 0.228897 0)
(2 -5.96442e-14 0)
(1.83142 0.228871 0)
(2.05668 -0.108738 0)
(1.83125 0.228999 0)
(2.05285 -0.10068 0)
(1.83143 0.229208 0)
(2 -1.06785e-07 0)
(1.83146 0.228906 0)
(1.82443 0.232261 0)
(1.83147 0.229087 0)
(1.83149 0.229307 0)
(1.83145 0.228894 0)
(1.83101 0.22832 0)
(1.83135 0.229495 0)
(1.8298 0.229102 0)
(2 -3.17732e-13 0)
(2.02759 -0.0469445 0)
(1.8313 0.22889 0)
(1.8316 0.228952 0)
(2.05084 -0.104819 0)
(1.83154 0.228947 0)
(2.00677 -0.0140961 0)
(1.8905 0.149465 0)
(1.83137 0.228829 0)
(1.83004 0.228537 0)
(1.83042 0.228528 0)
(2 1.28488e-13 0)
(1.83053 0.229999 0)
(1.88657 0.166944 0)
(1.83161 0.227592 0)
(2.02205 -0.0558746 0)
(1.83075 0.229974 0)
(1.82734 0.231981 0)
(2 -4.7501e-14 0)
(2.04182 -0.0882278 0)
(2 -4.28152e-09 0)
(1.83098 0.225837 0)
(2 4.06104e-14 0)
(1.88276 0.166624 0)
(2 4.50195e-09 0)
(1.84005 0.229098 0)
(2.03999 -0.0888426 0)
(2 -1.22742e-13 0)
(1.83155 0.228432 0)
(1.83769 0.225294 0)
(2 -3.08382e-14 0)
(1.83093 0.227892 0)
(1.83054 0.229831 0)
(1.83281 0.229367 0)
(1.83943 0.224955 0)
(1.83494 0.229441 0)
(2 -3.92083e-14 0)
(1.83069 0.229112 0)
(2 -2.50965e-14 0)
(2 -8.83456e-14 0)
(2 1.2059e-13 0)
(2.03151 -0.0690533 0)
(1.83177 0.228936 0)
(1.83113 0.229653 0)
(1.82858 0.231818 0)
(1.83149 0.229005 0)
(1.82905 0.232431 0)
(1.82896 0.230707 0)
(1.82986 0.233827 0)
(1.83122 0.229318 0)
(2.03452 -0.0672856 0)
(1.98851 0.0198686 0)
(2 3.61363e-09 0)
(2 4.81855e-16 0)
(1.82308 0.233986 0)
(1.83149 0.229247 0)
(1.8315 0.229132 0)
(1.8316 0.229091 0)
(1.99999 1.64269e-05 0)
(1.91179 0.136388 0)
(2 -1.68014e-07 0)
(1.83152 0.232407 0)
(1.85246 0.212505 0)
(2 -3.45714e-12 0)
(2 -6.13183e-11 0)
(2.09073 -0.190858 0)
(1.83175 0.228763 0)
(2 -3.91909e-14 0)
(2 1.63099e-14 0)
(2.12915 -0.267602 0)
(1.83147 0.229072 0)
(2 -4.07449e-14 0)
(1.8309 0.228594 0)
(1.83109 0.228925 0)
(1.82901 0.228364 0)
(1.8384 0.221706 0)
(1.83145 0.228928 0)
(2 -1.93172e-10 0)
(2.11823 -0.270965 0)
(1.96109 0.0649009 0)
(1.83138 0.229337 0)
(1.83144 0.228929 0)
(2 -2.01615e-14 0)
(1.83234 0.228801 0)
(1.83147 0.228722 0)
(1.91584 0.124228 0)
(1.99804 0.00609466 0)
(1.96659 0.057288 0)
(2 -7.38038e-14 0)
(1.82923 0.228493 0)
(1.83161 0.228882 0)
(2 -1.2057e-07 0)
(2 -2.09302e-10 0)
(2.06777 -0.26687 0)
(2 -2.36058e-10 0)
(2 5.3521e-14 0)
(1.83148 0.229066 0)
(1.83167 0.229087 0)
(1.83143 0.229667 0)
(1.83167 0.228967 0)
(1.83129 0.228982 0)
(1.8282 0.229071 0)
(1.8313 0.229174 0)
(1.8303 0.229831 0)
(1.83139 0.22884 0)
(2 2.58157e-13 0)
(2.00152 -0.00263677 0)
(1.83118 0.228637 0)
(1.83185 0.229155 0)
(2.00129 -0.00169262 0)
(1.83162 0.228863 0)
(1.83148 0.228752 0)
(2.09661 -0.271966 0)
(2.15624 -0.257113 0)
(1.83182 0.227954 0)
(1.83005 0.231735 0)
(2 -1.13282e-13 0)
(2 1.97396e-13 0)
(1.99922 0.00235111 0)
(1.83138 0.228997 0)
(1.83145 0.229615 0)
(1.83145 0.229109 0)
(2 1.07347e-09 0)
(1.83153 0.228797 0)
(2 8.89998e-16 0)
(2.0445 -0.0936397 0)
(1.83305 0.232912 0)
(1.8293 0.231706 0)
(2 -1.73481e-13 0)
(1.92348 0.111697 0)
(1.83049 0.22867 0)
(2 -3.26835e-15 0)
(1.82875 0.226908 0)
(2 -1.04485e-10 0)
(1.8321 0.229119 0)
(1.88841 0.157677 0)
(1.83174 0.229126 0)
(2 1.53679e-11 0)
(1.83181 0.228396 0)
(1.83484 0.231044 0)
(2.06713 -0.271859 0)
(1.83194 0.228962 0)
(2 -1.14721e-07 0)
(1.83138 0.228601 0)
(1.83086 0.228605 0)
(2 7.29994e-09 0)
(2.10274 -0.266476 0)
(1.83187 0.227734 0)
(1.86573 0.187668 0)
(2.00074 -0.00132172 0)
(1.82737 0.231701 0)
(1.83185 0.228826 0)
(2 -5.14756e-12 0)
(2.00127 -0.00161179 0)
(1.83048 0.226962 0)
(2.00158 -0.00206416 0)
(1.83116 0.229015 0)
(2 -3.13791e-12 0)
(2 8.4408e-14 0)
(1.83217 0.228094 0)
(2 3.7668e-13 0)
(1.83185 0.228747 0)
(1.8315 0.22875 0)
(2.00133 -0.00242144 0)
(1.86155 0.186527 0)
(2 3.24994e-09 0)
(1.83156 0.228795 0)
(2 -1.44326e-10 0)
(2 -9.86746e-13 0)
(2 1.02602e-11 0)
(2 6.13083e-12 0)
(1.83163 0.229073 0)
(2 6.98167e-09 0)
(2 -1.03225e-13 0)
(1.83011 0.223946 0)
(2 2.40051e-14 0)
(1.83141 0.22892 0)
(2 3.56455e-10 0)
(1.89244 0.156525 0)
(1.83054 0.232192 0)
(1.83107 0.229385 0)