/*--------------------------------*- C++ -*----------------------------------*\
  =========                 |
  \\      /  F ield         | OpenFOAM: The Open Source CFD Toolbox
   \\    /   O peration     | Website:  https://openfoam.org
    \\  /    A nd           | Version:  12
     \\/     M anipulation  |
\*---------------------------------------------------------------------------*/
FoamFile
{
    format      ascii;
    class       volScalarField;
    location    "3.12";
    object      p;
}
// * * * * * * * * * * * * * * * * * * * * * * * * * * * * * * * * * * * * * //

dimensions      [1 -1 -2 0 0 0 0];

internalField   nonuniform List<scalar> 
22702
(
1
1
0.856551
1
1.05443
1
1.47204
1
1
0.655677
1.47175
1.46979
1
1.47151
0.874653
1
1
1
1.47029
1
1.47246
1
1.46928
0.64489
1.47277
0.657505
1
1.47099
0.652645
0.648001
1
1.46795
1
1
1
1.43574
1.47703
1.46901
1
1
0.661518
1
1.23002
1
1.47007
1
1
1
1
0.654662
1
0.656052
1
1.47292
1
1.46746
1
1
1
1
0.659101
1
1
0.651212
1
0.668236
1
1
1
0.656578
1
1.47241
1.28543
1
1.47193
1.49747
0.66947
1.4701
0.65695
1
1.47078
0.653934
1.46915
1.47437
1
1
1
1
0.927257
0.655394
1.47091
1
1
0.651567
1
1.47221
0.650828
1
1
1
1
1.23165
1.47048
0.66056
1
1
1.11272
1
0.65585
1
1.46638
1.47199
1
1
0.642212
0.644132
0.654712
1
1
1
1
1
0.90451
1
1.4013
1.04655
1.47362
1
1.47043
1.47
1.47183
1.47474
1
0.66767
1
0.660205
1
1
1
1
1.47086
1
1
1
1
1.47063
1
1.02543
1
1
1
1
0.650277
1
1.01068
1
0.657984
1
1
1
1.46933
1
1.47203
0.644021
0.654043
1.47297
1.4729
1
1.07496
1.26647
1
1.4754
0.657626
1.43664
1
1
1
1
1.4711
1.39315
1
1.47172
0.652168
1.47093
1
0.669091
1
0.65537
0.657945
0.999784
1
1
1.46949
1
1
1.47189
1
1.46541
1.47192
0.674153
1
1
0.663151
1.47191
1
1
1
1.47204
1
0.647714
1
1
1.47141
1.47166
1.46617
1
1.00004
1
1
1
1.47091
1
0.662169
1.48928
1.4719
1.47296
1
1
1
0.64642
1.472
1.21671
1
1.47299
0.653973
0.646133
1.47311
1.47616
1
1.4694
0.647428
1.41487
1
1
1
1
1.47138
1
1.26863
1.04456
1
1
1.47153
0.653009
0.762312
1
1.47358
0.659226
1.46685
1
1
1
1
1
1
1
0.655703
0.755809
0.6516
1.47126
1
1
1
1
1.41698
1
0.660504
1
0.643296
0.662612
1.47252
0.655121
1.47243
1
1
1
0.997654
0.670392
0.654129
0.999999
1
0.6396
1
1.47047
0.662211
1
1
1.47391
0.653769
1
1.46548
0.654341
1.47158
1
0.646307
0.997729
1
1
1
0.656592
1
1
0.999999
1.00001
1.01456
1.2858
1
0.659706
1
1
1
1
1
1
1
1.47464
1
1.47144
1
1
1
0.668885
1
1.47061
0.656694
1
1.35804
1
1
1.47252
1
1
1
1.45931
1
1
1.45636
1.47265
1
1.10082
1
1
0.657859
1
1
1
0.654503
1
1
1
1
0.651018
1
1
1
1
1
0.660723
1.00006
1.47262
1
0.999986
1.47283
1.47309
1
1
0.677042
0.826258
1.46846
1
1
1
1.47138
0.655079
1
1.47145
1
1
0.715396
0.714409
1
0.663919
0.65346
1
1
1
1
1
1
1
1.47668
1.11113
1.44265
0.661781
0.914258
1.46809
1
1.47143
1.46928
0.657214
0.786767
1
0.653737
1
1.48676
1
1
1
1
1.47163
1
1
1
1
1
1
1
1.16632
1.46854
1
1.47117
1
1
0.65444
1
1
1
1
1.47212
1.35556
1
1
0.663717
1.47186
1.47149
1
1.4714
1.47185
1.47141
1
0.844796
1
1.47002
0.982209
1.47133
1
0.657324
0.998908
1.47084
1
1
1
1
0.656743
1.47232
1.42696
1
1.46933
1.47071
1.46898
1
1.21868
1.4725
1
1
1.3255
1.06819
1.47161
0.935044
1.47174
1
1.47177
1.47185
1.47192
1.47173
1
1.44881
0.910913
0.874295
1
0.999999
1
1
1.47938
1
1
1
1
1
1.47132
1
1
0.99621
1.47169
1.42759
1
1.38891
1.00004
1
1
1.4719
1
0.996168
1.0046
1
1.47179
1
1.46988
1
1
1.34641
1
1.47025
1.00002
1
1.46942
1
1.47214
1
1
1
1.4716
1
1.47404
1.00001
1.4716
1.46904
1.4711
1.47644
1
1.47536
1.47367
1
0.658722
1.44184
1.33721
1
1.47151
1
0.654312
0.653704
1
1
1
1
1
0.650977
1
1.47105
1.12121
1.47158
1
1
1
1
1
1.47144
1
1.47712
1.27321
0.795085
1
1.00001
1.12883
1.11336
1
1
1.16517
1
0.654425
1.47228
1.47223
1
1
1
1.47199
1
1.00003
1.47714
1.47257
0.946564
1
1
0.659988
1.42624
1
1
1
1
1
1.47188
1.47445
1
1.47031
1.47079
1.47119
1
1
1
1
0.661927
1.47071
1
1
1.426
1.47043
1
1.44262
1.46853
1
1
1
1
1
1.47228
1
1
1
1
1.4777
1
1.46462
0.644148
1
0.663503
1
1
1
0.996608
0.654559
0.99905
1
1
1
1.06145
1
1
0.868083
1
1
1
1
1
1
1
0.999997
0.935334
0.999999
1
0.997507
1
0.661328
1
1
1
1
1.34979
1
1
1
1
0.655193
1
1
1.44364
1.47168
1
1
1
0.876245
1
1
1
1
1
1
0.952884
1.01338
1.47077
1
1
1
1.47427
0.890995
1
1
1
1.46909
1.47
1
1.00001
1
1
1
1
1
1
1
0.666873
1
1
1.4714
0.651506
1
1.4698
1
0.649535
1
1
0.665363
1
1
1
1
1
1
1
1.46186
1.47041
1
1
1
1
1.42804
1
1.14892
0.664516
1
1
1
1
1
1
1
1.03775
1
1
1.23913
1
1
1
1.38795
1
1
1
1
0.650731
1
1
0.650966
0.652459
1
1
1.47009
1
1.01362
1
1
1
1.32607
0.644138
1
0.641973
1
0.772183
1
1
1
1.46954
1
1
1.47052
1
1
1
1.47057
1
1
1.472
1
1
0.660501
1
1.14712
1
1
1.46933
1.46844
1.31276
1.41907
1
0.652268
1
1
1.4499
1
0.659198
1
1
1
1.47347
1
1
1
1
1.2746
1
1.44319
1.47227
0.651623
1
1
0.659182
0.65523
1
1
1
1.33334
1.35346
1
1
1
1
1
1
1
1.18944
1.47574
1.00516
1
1.46573
0.666506
1
1
1
1.25802
1
1.09252
1
1.42825
1.46954
1
0.657745
1
1.46938
1
1
1.47126
1.44159
1
1.47576
1
0.656557
1
1
1
1.47875
1.46167
1.41352
1
1.46976
1.47175
1
1.47387
1
1.46954
1
0.66089
0.967627
0.663797
1
1
1
1
1
1.47142
1
1.47165
1
1
1
1.4474
1
0.653742
1.4711
1
0.653663
0.656658
0.64455
1
1.23255
1.04096
1.47362
1.47136
1
0.999999
1
1
1.47176
1
1
1.47156
1.47171
1
1.1581
0.999966
1
0.9968
1.4697
0.854544
1
0.832632
0.656882
0.654853
0.963479
1.47133
1.46458
1.08463
1.47117
1.47175
1
1
1.47583
1.47079
1.47212
1.47029
1
1.47186
0.664372
1.47645
1.4715
1.46886
1.46985
0.858419
0.900487
0.932016
1.47088
0.957112
1.46893
1
1
1.47375
1.47139
1
0.655048
1.46991
1.47118
1
1.47137
1.47113
1
1.47156
0.655409
1.47322
1.4768
1.4737
1.4689
1
1
1
1.47065
1.30002
0.661849
1.47027
0.648415
1.47013
1
1
1
1
1.47538
1.47082
1
1
1.47186
0.647955
1.47179
0.661567
1
1.46807
1
0.65835
1.47274
0.737039
1
1.47109
1.47386
1.47156
1
1
1.20793
1.47276
0.654313
1.47044
1
1.47175
0.885858
1.47174
0.656682
1
1.47252
0.672954
1.47371
0.65338
1
1.47336
1
1.4685
1
1.27044
1.45337
1.36505
0.655827
1
1.47174
1
1.47067
1
1.47251
1
1
1.47195
0.98681
1.47437
0.659997
1.41335
1
1.32953
1
1.4699
1.47201
1.47102
1
1.42089
1.47253
1.43546
1.28093
1.47112
1
1.30905
1
1.4723
1
1.06408
1
1.4348
1
1.47177
1.44947
1.44785
1
1.46725
0.653806
1
0.645184
1
1
1
1.46513
1
1.47266
1
1
1
1.47355
1.45971
1.38552
1.47412
1.47326
0.665097
1.47037
1.46513
1
1.40522
1.47145
1.45611
1
1.47432
1.4675
1
1.47521
1.47282
1.47005
1.4738
1
1
1
1.47219
0.643132
1
1.47152
1
1
0.653806
1
1
1.4711
1.47187
1
1.47128
1.481
1.47095
0.969854
1.47132
1
1.47127
1.47152
1.37439
1
1
1
1.47371
1.4716
1.47178
0.943978
1
1.47971
1.47191
1.47145
1
1.47128
1.47219
1.4719
1.48022
1
1.47159
1.47126
1.40703
1.47298
1.47873
1
1.47974
1.46624
1.47193
1.47689
1.47109
0.655828
1.47118
1.47351
1
1.47165
1.47114
1.47172
1.47191
1
1.47161
1.47141
1
1.47173
1.39647
1
1
1
1.47478
1.47181
1
1
1.25403
1
1.47149
1
1
1.47191
1.47304
1.47137
1.47137
1
1
1
1.32818
1
1.47289
1
1
1.47299
1.47654
1
1.47117
0.642567
1.47121
1.47171
0.721231
1
0.658791
1.40745
1.46977
1.47439
1.47431
0.656455
1.47294
1.4738
0.659049
0.644696
1
1.47237
1.47238
1
1
1.47244
1
1.47229
1
1.41034
1
1.21398
1.47234
1.47365
1.32739
1.41667
1.46386
1.47343
1.43784
1
0.657543
1.47742
1.4724
1.47732
1.00001
1
1
1.47244
1
1.47235
1.47114
0.749559
1
1.472
0.99994
1
1.00003
1.00005
1.47237
1.47027
0.99847
1
1
1.47117
1.47338
1.472
1.47311
1.47183
0.679731
1.39883
1
1.46776
1.47137
1.47151
1.46401
1
1.47123
1.45825
1.47317
1
1.47159
1.47451
0.855864
1.47084
1.47246
1
1.47112
0.832852
1.4718
0.860021
1.47083
1
1.472
1.486
1.47229
1.4721
1.47219
1.4715
1.4724
1.46957
1
0.938102
1.47181
1.47224
0.843661
1.47159
0.983574
1.28534
1.47191
1.47221
1.47643
1
1.47394
1.31019
1.4742
0.918104
1.47436
1.48019
1
0.869182
1
1.46318
1
1.3215
1
1.45597
0.868697
1
1.46784
1.4789
1
1.47195
1.47368
1.48154
1.47563
1.48041
1
1.47189
1
1
1
0.889476
1.47099
1.47043
1.46888
1.47142
1.46959
1.47127
1.47358
1.47287
0.892017
1.03244
1
1
1.48375
1.47203
1.47099
1.47114
1.00003
1.23625
1
1.47489
1.41428
1
1
0.748095
1.47162
1
1
0.657382
1.47144
1
1.47084
1.47186
1.46354
1.45279
1.47248
1
0.665933
1.10942
1.47209
1.47228
1
1.47199
1.47113
1.23192
1.01086
1.09624
1
1.46818
1.47125
1
1
0.655372
1
1
1.47183
1.47141
1.47105
1.47163
1.47152
1.47741
1.47152
1.4682
1.4719
1
0.996466
1.47188
1.47226
0.99668
1.47143
1.47124
0.663384
0.65084
1.47027
1.47074
1
1
1.00183
1.47187
1.47113
1.47136
1
1.47116
1
0.851503
1.47777
1.47452
1
1.19834
1.47251
1
1.47382
1
1.47184
1.32321
1.47154
1
1.47242
1.46884
0.657448
1.47254
1
1.47459
1.47585
1
0.66539
1.47685
1.40619
0.997535
1.45495
1.4713
1
0.99709
1.47752
0.998
1.47154
1
1
1.4735
1
1.47665
1.47162
0.996423
1.36401
1
1.47138
1
1
1
1
1.47107
1
1
1.47616
1
1.47165
1
1.29645
1.46969
1.47139
1
1
0.999426
1
1.47275
1.47258
1.47522
1.47154
1.47289
1.47157
1.4722
1
1.47224
1.46981
1
1.47231
1.47088
1
1.47046
0.930845
1.05917
1.47268
1.47111
1.47212
1
1.47171
1
1.47113
1.47169
1
1.47062
1
1
1
1
1.47121
0.65418
0.997888
1
1.47162
1.47775
1
1.4717
1
1.00532
0.659342
1.47181
0.99959
1
1.46959
0.998344
1.47148
1
0.999757
1
1.47038
1.47573
1.47159
1.47046
0.658637
1.47303
1.47217
1.47165
1.11317
1
1
1.19719
1.47153
0.654698
0.658728
1
1.47228
1.47216
1.47396
1
1
1.471
1.47271
0.999873
1
1.34023
0.641742
1
1.07829
1.47128
1.47503
0.99826
1.4715
1.48035
1
0.998961
1
1.46883
1.4695
1.1863
1
1.44418
1
1.00224
1.4705
0.663364
1.47139
1.47156
0.996973
0.999906
1.40086
1
0.999693
1
1.47216
1
1.00001
0.650259
1.47183
1.00001
1
1
1
1.47952
1.26343
1
1
0.65643
1.4725
1.26538
1
1
1
1.44832
1.47463
1.46846
1
1
1.46987
1
1.47166
1.4718
1
1
1.47353
1.47091
1.44963
1
1
1.47386
1.4724
1
1
1
1.47258
1
1
1
1.469
1.47236
1.47363
1
1.47779
1.00003
0.710363
1.47123
1.47128
1
1.4762
1.46404
1.46985
1
1
1.47577
1
1.26063
1.46964
1
0.658107
1
1.47303
1
1
1.47562
1
1
1
1.14447
1.46997
0.693418
1.00001
1.47194
1
1
1.47132
1
1.47708
1
1
1.47165
1.47116
1
1.00005
1
1
1
1
1
1
1.46831
1.47208
1
1.47101
0.662914
1.47467
1
1.47136
1.47426
1.47193
1.4794
1.47677
1
1
1.47646
1
1.28131
1.47754
1.47129
1
1.47229
1.47934
1
1.42728
1
1.47184
1.30105
1.47583
0.997728
1.46633
1.4275
1.47267
1.47133
1.03792
1.47095
1.47542
1
1.47067
1
1.47166
1
1
1
1
0.995836
1.47126
1.47182
1.40708
1
1.47324
1
1
1
0.638303
1
1.45597
1
1.42521
1.44701
1
1
1
1.43356
1.47297
1
1
1.47383
0.652433
1.07877
1
1.47795
1.47222
1.42749
1.45573
1.47222
1
1.47248
1
1
1
1
1.47072
1.47308
1
1.46108
1.05479
1.47051
1.43829
1
1
1.43856
1
1
0.663068
1.31863
1
1
1.46992
1
1.47645
1.42547
1
1.42547
0.656093
1.47136
1.46912
1.47175
1
0.648879
1
1
1
1.4711
1.3809
1
1.47895
1.47167
1
1.47207
1
1
1
1
1.47118
0.999346
1
1.47333
1
1
1.46438
1.47068
1
1.47332
1.08766
1.00002
1
1.46981
1
1.47027
1
1.01467
1.47147
1
1.47147
1
1
1.14262
1.47175
1
1
1
1
1
0.996059
0.663341
0.66773
1.02058
1
1.02568
1
1.02398
1
1.47157
1
1.28214
1
1.47209
1
1
1
1.47204
1
1.36715
1.47242
1
1.24598
1.47453
1
1
1.46539
1.46911
1
1
1.05014
0.649219
1
1.47362
1
1
1
1
1.07765
1.47233
1
1
1
0.657227
1
1.47188
1.47194
1.48281
1
1
1
1
1.22547
1.47801
1
1
1
1.47385
1.4713
1.04721
1
1
1
1.47262
1.47123
1
0.659156
1.47177
1.47117
1.47139
1.47021
1.46945
1
1
1.47229
1.47643
1.4714
0.654506
1.03996
1.47199
1
1
1
1
1
1.47133
0.658916
1
1
1.47257
1.2013
1
1.47219
1
1
1
0.659825
1
1
1.1114
1.47174
1.47179
1
1.47139
1.47371
1
1.07455
1
1.47255
1
1.47099
0.654399
1
1
1
1
1.47226
1.00007
1
1
1
1.46266
1
1
1
1
1.47147
0.660667
1.36075
1.47518
1
1.47069
1
1
1
0.997131
1
1.47465
1
0.813229
1
1
1.00003
1.47004
0.655077
1
1.46978
1
1.47176
1.47115
0.651366
1
1
1.45312
1
1
0.653724
1
1.46922
1
1.44904
0.999256
1.47097
1
1
1
1
1.47742
1
1
1.47176
1
1
1
1
1
1
1
1
1.30093
1
1.15288
1.47107
1
1
1
0.664597
1
1
1
1
1.46961
1.47161
1.05353
1
1
1.47214
1
1
1.47098
1
1.00002
1
1
1
1.00001
1.47147
0.79146
1.47151
1.47337
0.997124
1
1
1
1.27276
1
1
1.47148
1.47127
1
1
1
1
0.649976
1
1
1
1.3019
1
1.47174
1.47523
1
1.47295
1
1
1
1.25338
1
1.47282
1
1.47116
1
1
0.996243
1.47135
1
1
1
1
1
1.46828
1.00002
1
0.660671
1.47126
0.654635
1
1.47201
1
0.995736
1
1.47218
1.4761
1
1.46505
0.871471
1.47087
1.4671
1.00003
1
1
0.660318
1
1
1
1.47173
1.26709
1.47617
1
1
1
1
0.996745
1.47318
1
0.659397
1
1
1
1
1
1
1
1.47755
1.47346
1.47811
1
1
0.99687
1
0.976495
1
1
1
0.658817
0.974166
1
0.67184
0.664048
1
1.47243
1.47275
1
1.47631
1.47174
0.660589
1.31777
1
1
1
0.657731
1.47067
1
0.651984
1
1.47529
1.08478
1
1
1
1
1.47153
1.47281
1
1
1.47086
1
1
1.4721
1.47114
1
1.43006
1.47185
1.47127
0.959042
1.47571
1.00894
0.654808
1.35975
1.4705
1
1
1
0.660061
1
0.664207
1.4754
0.961058
1.47165
0.959036
1
1.47101
1.20461
1
1
1.47394
1
1.18911
1.47139
1
1
1.46976
1.47589
0.662567
1.26559
0.999898
1
1.28642
1
1.47366
0.946146
1.48019
1.46809
1
1
1
1
1.45235
1
1
1.47336
0.999647
1.47249
1.38512
1.47185
0.666198
1
1
1
1
1.47194
1.00004
1.47136
1
1.47121
1.46976
1.0587
1.47913
1.14338
1.47118
1
1.32005
0.693137
1.47077
1.47189
1.37957
1.08156
1.47277
1.47117
1.47154
1.47246
1
0.919148
1.06567
1
1.47237
1.21826
1.4724
1.00003
1
1
0.683134
1.4797
1.47238
1.3862
1
1.18256
1
1.47381
1.47131
1
1.4736
1.47205
1
1
1
1.47342
1
1.18316
1.47587
1.32648
1
1.47322
1
1
1
1
1
1
1
1
1
1
0.679431
1
1.42943
0.656113
1.27262
0.998599
1.47299
1
1.24353
1.00001
1.29777
1.3915
1
1.00248
1.47725
0.914275
1
1.47187
1.45902
0.942984
1
1.46776
1.47226
1.47536
1
1.47162
1.47352
1.47567
1
1.21401
1
1.00006
1.47234
1
1.47137
1.0681
1.47034
1
1
1.46955
1.47384
0.681251
1
1.47001
1.35088
1.47075
1
1
1.47138
1.47171
0.998231
1
1.41452
0.996709
1.47144
1.00003
1
1
1
1
1.20724
1
1.36299
1.47344
1.34739
1.47231
1
1.00412
1
1
1.47165
1
1.47603
1
1
1
1
0.999999
1
1.055
1.23729
1
1
0.659176
1
1.47021
0.691764
1.47843
1
1.22575
0.999735
1.47157
1.29532
0.67
1.25531
1.00003
1.47224
1.47422
1
1.27676
1.47502
1.47323
0.998408
1.47974
1.45798
0.668222
1
1
0.997795
1
1.46208
1
0.68956
1.47308
1
1
1.40812
1
1.47298
1
1.46934
1
0.684311
1
1
1.47018
1.4663
1.46857
1
1.46847
1.47106
1.46256
1
1
1.46867
0.999999
0.748334
1
1
1
1.47129
1
1.47187
1.29881
1.46895
1
1.47128
0.999375
1
1
1
1
1
1
0.703672
1
1
1.47157
1
1.47182
1.47817
1
0.655173
0.671187
1
1.47279
1.0785
0.658759
0.636562
1
1.4745
1
1.47489
0.653443
1.001
1
1
0.999498
1
1
1
0.999917
1.18929
1.47123
1
1
1.47242
1.27373
1
1.41784
1.47063
1.4719
1.18906
1.46917
1
1.47124
1
1.45507
1
1.4696
1.46974
0.997104
1.47106
1.47854
1
1
1
1
1
0.913119
1.47205
1.00004
1.00003
0.665589
0.99999
0.655264
0.646216
1
1.47306
1.47305
1.47249
1
1.47114
1
0.670743
1
1
1.47467
0.845813
1.46937
1
1.46953
1
0.98227
1.47
1
1
1
1.47121
1
1.47041
0.660089
1
1
1.26878
1
1
1.25472
1
1
1.47068
1
1
1
1
1
1.46525
1.47077
1
1.47125
1.47348
0.66303
1.20872
1.46854
1
1
1.42248
0.998977
1
1
1.47132
1.47296
1.3211
1
1.47361
0.674222
1.45361
0.999176
1
1.47344
1.00004
1.46927
1.37728
1.35715
1
1
1.47155
0.726267
0.652399
1
1.47045
1
1.47178
1
1.27287
1
1
1.47037
1.29588
0.658916
1
0.998262
1
1
1.0259
1.18923
1.47175
1
1.47349
1
1
1
1
1
1
1.06773
0.66302
1
1
1.03285
1
1
1
1
1
1.4716
1
1
1.47102
1.46964
1.35026
1
1
1
0.823869
1.47638
1.32709
1
1
1
1
1.47036
1
1
1
1.47757
1
1
1.33807
1.48809
1.04281
0.750609
1.47193
1.33277
1.46926
1
1.23225
1
1
1
0.661918
1.00267
0.671096
1
0.661152
0.654145
1
0.66545
1
1
1
1.20011
1
1.47301
1.47169
1.00114
1.23229
1.39075
0.654254
0.770333
0.878538
1
1.47127
1.46975
1.47141
1.47183
1.40342
0.870506
1
1.40579
1
1.45136
1
1
0.99654
1.00907
1
1
1
1.47144
1
0.660458
1
1.4726
0.664926
1
1
1.47176
1
1.47126
0.999625
1
1
1.47176
1.42914
1
1.48673
1
1
1.01529
1
1.21147
1
1
0.665337
1
1
1.46995
1
1.47244
1
1.00003
0.665184
1
1
0.651783
1.00089
1
1.47091
0.652417
1.47787
0.675547
1.47022
1
1
1
1
1
1
1
1
1
1
1
1.45155
1
1.47281
1.47066
0.657162
1
1
1
1
1
1
1.45758
1
1
0.673219
1
1
1.47168
1
1
1.16669
1.39276
0.654618
0.656696
0.716878
0.739308
1
0.996496
0.668222
1.00032
1.43392
0.996998
1
1
1.47282
1
1
1
0.776053
1.00001
1.16388
1
1
1.18913
1.47151
1
0.664187
1
1
1
0.99674
1.00001
1.46947
1.4717
1
0.679048
1
1.25395
0.646358
1
0.889234
1
0.995965
0.652734
1
1
1
0.996078
0.650831
1
0.659167
0.998387
1.24685
1.4174
0.653704
0.656778
1
0.991825
1
0.998634
1
1.47039
1.47179
1
1.01779
1.47229
1.47164
1
1
1.47162
1
1
1.00005
1
1.47644
1
1
1.01804
1
0.998583
0.713592
1
1
1
1
1
1.47453
1.032
1.00005
1
1
1
1
1
1.00003
1
0.657608
1.10296
0.99861
1.45627
1.46712
1
1.01755
1.4724
1.40614
1
1
0.658552
1.47132
1
1.47041
1
1.47044
1.31502
0.654919
1
0.646555
1.42897
0.999681
1
0.664403
0.658188
1
1
1.39593
1
0.999998
0.65745
1
1
1
1.14196
1
0.655378
1.47162
1
1
1
1
1.47106
1
1
1.47703
1.42062
1
1
1
1.47719
0.670331
1
1.47178
1.47253
1
1.3704
0.999999
1.00003
1
1
1.43923
1.01909
1
0.667425
1.25815
1
1
0.997964
1
1
1.46746
1
1
1.00003
1
1.47201
1
1
1
1
1
1
1.00001
1.19855
1
1.4722
1
1
1.4736
1
1
1
1.47056
1.47746
1.04628
1
0.997643
1
1
1
1
1.47289
1
1
1.47014
0.668959
1
1
1
1
1
1
1.37957
1
1
1.468
1.4704
1
1
1
1.47144
1.46976
1
0.999676
1.46748
1
1
1
1.00002
0.657944
1.03086
0.996437
0.995722
1
1
0.66316
1.46956
1
0.665902
1
1.47115
1.45138
0.654708
0.999412
1.47148
1.47146
1.47121
1
1
0.918537
1.42717
1.39428
0.666226
1
1
1
1.47185
1.47135
0.661632
0.997332
1
1.47158
0.66107
1
1.46429
0.652858
0.972751
1.00728
1
1.47649
1
1
1
1
1
1
1.00011
1.43825
1
1
1.47379
1
1
1
1.47103
1
0.654539
1
1
1
1.15585
1
1
1
1
1
0.779771
1
0.659541
1
1.47223
1.00006
0.86939
0.861555
1.00002
1.00316
1.24625
1
1
0.653205
1.47037
1.4724
1.47069
1
0.655756
0.672482
1
1.46899
1
1
1
1
1
1.00003
1
0.652938
1.29704
1
1
0.662432
0.975662
1.00001
1
1
1
0.65168
1
0.691878
1
1
1.47476
1
1
0.650844
1
1.47116
1
0.655794
1
0.652426
1
1.00828
1.47263
1.48542
1
1
1.4727
1
1
1.10296
0.996864
1
0.998172
1
1.4752
1
0.651768
1.00002
1.47049
0.998927
1
1
0.806257
1
0.999024
0.663149
1.47453
1.17185
1
1.00001
0.906032
1
1
1
0.804234
1
1
1
1.47173
1
0.657599
0.999999
1
1
1
0.647931
1.47096
1.44306
0.666169
1
1.47944
1
1
1.47156
1.47374
1.3954
0.64519
0.997727
0.999323
1
1.47115
1
1
1
1
1.47092
1.00004
1
1
1.4712
1
1
1.47184
0.657566
1
1
1
0.65239
1
0.999999
0.999999
0.998702
1
1
1
1
1.35971
1
1.47101
1.4714
1.48058
1.4723
1.4727
1.47059
1
1.47355
1
1.47193
1.47169
1
0.998844
0.672747
1.40145
0.99989
1
1
1
1
0.998502
1
1.0699
1
1
1
0.824774
1.47217
1.4703
1.47172
1.41857
0.99987
1
1.0225
1.47271
0.997965
1.06013
0.997085
0.656823
1
1.00002
1
1
1
1
1
1.47124
0.653947
1.47104
1.47164
0.994608
0.654458
1
1
1
1.47183
0.667609
1.4142
0.64429
1.47173
1.47513
0.651106
1.47223
1.02434
1
1.47503
0.793531
1
0.998731
0.658434
1
0.659856
1
1.47038
1.4712
0.762128
1
1.47281
0.657865
1
0.664112
1
1.47075
1
1
1.45652
1
0.819562
1
0.999684
0.662625
1.47065
0.99948
1
0.67029
1
1
1
1
1.25232
1
1.47294
1
1
1.49042
1
1
1.47141
1
0.665222
1
0.656058
1.00001
1
1
1
1
1.45067
1.27208
1.47133
1
1.47143
1.43641
0.657496
0.66041
1
1
1.47302
1
0.663653
1
0.980135
1
1
1.47106
1
1.46867
0.660467
1.47994
1
0.658021
1
1
1.46856
1.47019
1
1.00004
1
1.47698
1
1
0.642035
0.999386
0.662712
1
1
1
1.47363
1.47451
1.47059
1
1
0.663352
1
1.46948
1
1
1
1.44565
1.47136
1.47187
0.657831
1.47577
1.47142
0.664092
1.47042
1.00004
0.672446
1.01423
1
1
1.47112
0.656318
1.29135
0.655385
1.47129
0.997339
0.660561
1.47396
1
1
1
1
1.47174
1.473
0.660596
1
1.00002
0.663972
1.00003
1
0.66931
0.654133
1.32619
1.47062
0.998479
1.47161
1
1.47232
0.83689
0.656635
1.47151
1.46913
1
1.47309
1
1
1.47098
1
1.36115
1.47047
1
1
1
1
1.47216
1.46582
1.46971
1
1
1.46938
1.4761
1.47043
1
1.47209
1
1
1
1
1
0.647482
0.834833
0.663
1
1
1.47323
1
1
1.47308
0.640529
1
1.47184
1.46574
1.45147
0.652996
1
0.660559
1
1.00003
1.47329
1.23084
1.47074
1.42804
1
0.665401
1
1.47531
1.33421
0.648799
1
1
1
0.788287
1
1
1.47415
1
0.644773
1.47119
1
1
1
1
1
1.37629
1.10617
1
1.47194
1
1.47102
1
0.997367
1
1.47024
1.47151
1.4707
1.47594
0.999585
1.47116
1
1.47208
1.47079
1.39672
1
1
0.662533
1.46851
1
1
1.47019
1.47347
1.46885
1
1.47101
1
1
1.00003
1.47349
1.47035
1.13275
1.09478
1.47149
1.47215
0.68434
1
1
1
1
1.00002
1.16385
1
1
1.38759
0.660129
0.999966
1
1.47121
0.999914
0.99982
1.06418
1.40902
1.4682
0.91106
1
0.665932
1
0.997632
1.47094
1.47388
1.47536
0.999059
1
1
0.649089
1
1
1.47067
1.04944
1
1
1
1
1
1
1
0.999934
1.47375
1.00002
1
1
1
1
1.28722
1
1.21524
1
1
1.47128
1.47548
0.663687
0.998785
1
1
1
0.662692
1.47085
1.47142
1
1
1
1
1
1
1
1
1.47031
1.47463
0.660391
1.04968
0.650533
1
0.655189
1
1.47213
1.12463
1
1
0.727622
1
1.45004
0.806214
0.99663
0.65747
1
1
1.47028
1.00004
0.997172
0.637039
1.47133
1.48009
1
1
1
1
1.43866
1
1
1.47111
0.998992
1.46997
1.00005
1
1
0.656507
1
1
1.4727
0.651311
0.774489
0.650181
1.47129
0.999261
1
1.4712
0.652976
0.647864
1.01649
1
1
1.47223
1.00004
1.21646
1
1
1.47321
0.651371
1
1
1.00014
1.46971
1.00015
1.47415
1
1.00003
1
1
0.742135
1
0.786134
1.00002
1
1.46754
0.661079
1
0.770843
0.803641
1
1
1.47157
1
1
1
1.47111
1.47112
1.00005
1.46511
1.47205
0.772197
1.47187
1.45383
1
1
1.47295
0.999999
1
1
1
1
1.47041
1.47147
1
1
1
1.47166
1.0002
1
0.660678
0.738745
1
1.00003
1.16979
1
1
0.894269
0.651557
1
1
1
1.47495
1.43031
1.47263
1
1
1
1
0.663039
1
1.45503
1
1.46772
0.655742
1.47031
1
1
1
0.665494
1
1.47214
1.00003
1
0.648435
1.17367
1
0.999654
1.47518
0.654897
0.660501
1
1.47166
0.666563
0.661399
1
0.665286
1
1
1
1
0.661408
1
1
1
1
1.46963
1
1.35527
0.66814
1
1
1
0.65873
1.47114
1
1
0.996386
1.47305
1
1.4708
1.47005
1
1
0.710346
0.650298
1
1
0.653809
1.14822
1.21704
1
1
1.46806
0.997354
1
0.997755
1.47125
1
1
1
1
1
1
1.47253
1
1.16235
1.14811
0.691847
1.41949
1
1.472
1.47035
1
1
1
0.912978
0.660397
1
1.22199
0.999682
1.40455
1
1
1
0.999999
1
1.00692
1.2071
1.47295
1.47061
1
1.47202
1
0.66523
1
0.997658
0.999749
1
0.664496
1
0.66568
1.00002
1.47434
1.47149
0.677659
1.47804
0.660411
0.996107
1.35745
0.647515
1.33277
1
1
0.998441
1
1
1
1.00006
1
0.656571
1
1
1
1
0.999579
1.47258
0.801471
1
1
1
1.03655
1
1
1
1.25593
0.744906
1
1
1
1.0375
1.46885
1
0.653114
1
1.47357
0.908387
0.657231
1
0.665259
1
1
1.44445
0.998263
1.44617
1
1.00896
1
1
1.47056
1
1
1
1
1.09102
1
1.47098
1.47354
1.4683
0.666344
1.47157
0.997205
1.38495
1
1
0.651463
1
1
0.655468
1.47034
1
1
0.999959
1
1
1
0.640097
0.659631
1
1.4765
1
1.22071
1.47203
0.665633
1.37859
1
1
0.683876
1
1
1.47175
1.4716
1.17235
1
1
1.00089
1.47086
0.667279
0.664688
1.47134
1.47097
1.32114
1.17919
1
0.897914
1
1
1
1.45276
1.47507
1.4736
1
1
1.46992
0.665277
1.42126
0.631639
1
0.653627
1
0.655588
1.47199
0.653658
1
0.988982
0.689826
1
1
1
0.839609
1.42342
1.47138
1.46974
1.47656
1
1
1.47027
1
1
1.47441
1
0.663541
1
0.653653
1
1.47241
1
1
1.022
1.35688
1
0.998628
0.658068
1.47107
1.00001
0.65438
1.08563
1
1
1.36072
1.47176
1.47169
1
1.47233
1.11501
1
1.0257
1.47125
1
1
1
1
1.47202
1
0.655733
1.47303
0.66245
0.661928
0.820483
1.47216
1.16421
1.4703
1
1.47657
0.997342
1.00003
1.47156
1.47155
1
1.47568
1
1.47289
1
1.47018
1
1.00004
0.999997
1.47117
0.658352
0.648513
0.99792
0.999999
1
1
0.652465
1
1.30777
1
0.63934
1
1.18762
1.47079
1.46854
1
1
1.00003
0.999414
1
1.47082
1.4715
1
1.18823
1.47115
0.852571
1.47074
1.00022
0.663134
1.09727
0.659942
1
1
1.07667
1.47224
1
1
1.04376
0.998555
1
0.659435
1
0.771811
1
1.46978
1
1
0.665109
1.10888
1.06009
0.998509
1.47152
1.47167
0.757749
0.99813
0.672502
0.662168
0.655682
1
1
1
0.999056
0.727633
0.672209
1
1.4715
0.999737
1.47183
1.47219
1.47133
1.47186
1
0.650482
1.47306
0.675028
1
1.47141
1.47318
0.996788
0.825213
1.47267
1.3384
1
0.657861
1
1
1.47096
1
1.02619
1.46935
1
0.665828
0.654231
1
1
0.664097
0.645072
1.47133
1.00005
1
0.648538
0.649616
1.46834
1.46111
1.44009
1.47189
1.12339
0.977668
1.18934
1.47963
1.35717
1
1.2428
1
0.650769
0.853858
1
0.669022
1.47097
1.02266
1.47333
1
1.47187
1.4725
1
1.47027
1.47177
0.651895
1.47377
1
1.47209
1
0.75243
0.648336
1.47074
1
1
1
0.658315
1.47313
1.47292
1
0.655695
1
1
0.662245
1.00004
0.636795
1.47128
1
0.826758
0.645788
1
1
1.25929
1
1
1
1.0756
0.655683
1
1.00001
1
1.47077
0.662465
1
1.47109
0.652971
0.657303
1
1
1.47566
1
1.47226
1.00001
1.47114
0.652279
1
1
0.645596
0.818175
0.653382
1
1
1
1
1.46765
0.662978
1
0.661604
1
1.47213
1
1
0.926365
1
1
0.817324
0.999669
1.00005
1
0.660406
0.644255
1
1
1
1
0.784027
1.47001
1.47185
1
0.674553
0.655179
0.908393
0.650591
1
0.819178
1
0.656656
0.979059
1
1
0.654122
1
1.47134
1.45626
0.655191
1
1
1
1.47293
1
1.04675
0.839642
1.1479
0.661098
1.18927
0.652533
1
1
0.721273
0.909836
1
1.04397
1
1
0.659927
1
0.93843
1.04884
0.664039
1
1.38232
0.758186
0.876883
1
1
1
0.661629
1
0.660554
0.653469
1
0.845933
0.667006
1.06529
0.736978
0.64183
1.47186
1
1.4714
1.25494
0.744472
1.47155
0.67181
0.999003
1.47159
0.999999
1
1.47316
1
0.724799
1
1.07161
1
1
1.47129
1
0.767267
0.821811
1.473
0.936676
1
0.761302
1.4711
1.47093
0.910748
1
1.47123
1.12335
0.853586
1
1.0163
1
0.656914
1.20117
0.767127
0.732548
1
1
0.656416
1.47165
0.95974
0.654488
0.657987
0.867762
1
1.01864
1.47191
1.47037
1
1
0.999999
0.657081
1.21777
1.00001
1.47056
1.42676
0.673693
0.999992
1.09342
0.874811
1.27242
1.40113
1
1.04446
1
1.00006
0.649762
0.849861
1
1
0.813195
0.649741
1.03644
1
1.00001
0.640599
1.20496
1
1.47681
1
1.04039
1.25434
1
1.46975
1
1
1.47261
1
0.645239
1.47176
0.716346
1.11871
1
0.663608
0.999906
1
1.00003
1
0.784234
1.02723
0.655468
1.35947
1.47168
0.638908
1
1
1
1
1
0.961151
0.661262
1.0342
0.653091
0.663734
1.08039
1
0.9998
1.12048
1
1
0.655628
0.986225
1
1
1.12676
1
1.47172
1
1.47128
1.08361
1.02174
0.657061
1
1
0.653258
1
1
1
1
1.47056
1.04291
0.9981
1
0.644021
1.05262
0.999999
1
1.3057
1
0.66321
1.4693
1
1.00001
1
1.4729
0.654331
0.878878
0.654807
1.35053
1.47085
1
1
1.47063
1
0.647147
1
1
1
1
1
0.768452
1
1.4727
1
1
1.16255
1.47337
0.682701
0.874785
1
1.47153
1
1
1
1
1
1.47118
1.47117
0.645368
1.47157
0.633731
1
1
1.47179
1
1.47109
1.00486
1.0293
1.06338
1.47204
1.06917
1.31222
0.648286
1
0.656741
0.980452
1
1.47149
1
1
0.642892
1.47391
1
1.47109
1
1
1
1
1
1.00001
0.652949
1.47325
0.848347
1.47157
1
0.665193
0.668051
0.729228
1.47914
1.47039
0.965423
1
0.794294
1
1.18174
1
1.4712
0.644147
0.656093
0.851561
1
1.47097
1
1.08255
0.666886
1
1.47084
1.42046
0.998821
1
1.47238
0.647985
1.4762
1.47263
1.47532
0.666545
1.08196
1
1
0.651482
1
0.80636
0.816255
1
1.00002
1.47289
1
1.46924
1.09045
1
1.03729
1.47628
1
0.658546
1
0.755331
1
1
1.38703
1
0.795646
1
0.653914
1.03736
0.951898
0.648116
1.47367
1.37143
1.47143
0.655135
0.696289
0.995755
0.999999
1
0.710234
1.44306
0.648625
0.999968
1
1.47031
1.46973
0.896863
1
0.644222
0.704541
1.31035
0.969779
0.635709
0.999999
0.646982
1.11478
0.654165
1
1.00006
0.799134
1.47251
1.47066
0.845664
0.999576
1
1
0.732918
1
0.6434
1
0.645617
0.654942
1
1
1.00003
0.652778
1.47175
1
1
1.00007
1.00004
0.658709
1.47022
1.47088
0.999999
0.656408
1.47361
1
1.09354
1
1
1.46975
0.643903
1
1
0.668114
0.757943
0.661354
0.655989
1
0.703057
0.997176
1.09672
0.642433
1
1
1.12672
1
1.41555
1
1
1.33999
0.673805
1
0.65128
1.11892
1.47231
1
1
0.662302
0.655405
0.636697
0.741526
0.649449
1.34938
0.999405
1
1
1
1
1.47085
0.653498
1
0.9318
0.999668
0.998855
0.999939
0.749819
1.12064
1
1.47174
1.47271
1
1
1.45072
1.00004
0.999999
1.47078
0.658737
1.46366
0.999999
0.646764
1.4714
1.00005
1
0.826171
1
0.652138
1
1.47175
1
1
1.47428
1
1
1.47625
1
1
1
1.4734
1
0.740199
0.713924
1
0.630219
1.4708
1
1
0.967379
1
1.47211
1.26832
1.37513
1
1
0.654043
1
0.643112
1.47201
1.47345
1.47191
1
1.47262
0.659823
1
0.643584
1.37835
1.44702
1.47174
1.4725
0.758233
0.647465
1
1.30648
1.47103
1.47268
1.47147
0.743693
1.17053
1
1.35617
0.750558
1
1.00002
1
1.00002
0.897199
1
1.4721
1
1
1
1
1
1
1.00006
1.46606
1
1.47369
1.34691
0.64414
1.47172
1.02535
1.23562
1
1.47121
1
0.65711
1
1
1
1
1.40213
1
0.640767
1.47032
0.64099
1.47131
1.3762
1.24304
1
1.08774
1.21795
0.996035
0.656776
0.774219
1.00002
0.999999
0.919298
1
0.646294
1.47168
0.643556
0.919919
0.851843
1
1
1
1.01432
1
1
0.653847
0.99644
1.46979
1
1.47019
1
0.644603
1
1
1.47174
1.47263
0.638249
1
1.4699
1
0.805862
0.647113
1.47147
1.41969
1
1.0789
1.47239
0.99868
1
1.18779
1.41345
1.46892
0.995663
1
0.999998
1.39721
1
1
1
1.47201
0.998516
1
1
1.47252
1
1
0.661175
1
1
1
1.47021
1
1
0.85786
1.15097
1.42334
0.775249
1
1.4721
1
1.15754
1
1.47524
0.997381
1.47081
1
0.652626
1
1.31945
1
1
1.43831
1.00002
1.47057
1
1.46808
0.709734
0.661552
1.47072
1
1.39538
1
1.47327
1
1
1.00005
1.47287
1.46808
1.12092
1.47096
0.99592
0.661799
1.47104
0.866587
1
1.47137
1
1.47126
1
1.47357
1.47369
0.996298
0.660659
1
1.47175
1
1.0245
1
1
0.997904
0.770781
1.41896
1
1.42883
1
0.876822
0.646256
1.47287
1.47218
0.71589
1
1.47212
1.47347
1.47373
0.69057
1.47115
0.686683
1.47235
1.47964
1
1
1.47151
1
1
1
1
0.652305
1
1
1.47258
1.47184
1
1.4718
1
1.47252
1.47319
1
1.38938
1
0.641641
1.47219
1.34906
1.12231
0.645024
1.47167
1
1
0.659393
1
1
1.4718
1
1
0.787536
1
1.47094
1.00009
1.47016
0.643438
1.4717
1
1.47147
1.45308
0.901658
1
1.47286
0.743742
1.47431
1.3292
1.47201
1.46947
0.997219
1.47186
1.47202
1.47116
1.47018
1.00043
1
0.660195
1
1.47201
0.822002
1.42653
1
1.46327
1
1
1
1
1
1.46926
0.645952
0.676536
1.47079
1.47124
1
1
1
1
1
1.46773
1.42749
1.47068
1.02407
1
1
1
1.00003
1.47036
1.47191
1
1.47057
1.47212
0.662018
1.32718
1
1.47053
1.47657
1.46814
0.997755
1.47215
1.47172
1
1.44371
1
1
1
1
1
1
1.47095
1.47279
1.43742
1.47167
0.653849
0.716368
1.47139
1.47081
1
0.652678
0.939577
1
1.22209
0.649897
1
0.99947
0.998316
0.657806
1
1.47047
1
1
1
1.47028
0.934793
1
1.47086
1.4719
1
1.47282
1
1
1.47172
1
0.647999
1
1.47107
1
1
0.669662
1
1.47262
1
0.639501
0.653606
1
1.46807
1
0.629904
0.879287
1
1.47204
1
1
1
1.47629
1
0.663443
1.06488
1.47286
1.47348
1.47074
1.0392
1.47347
1.47185
1
1.00002
1
1
1.00001
1.47184
1
0.999333
1.47258
1
0.636704
1
1.47156
1.21466
1.06166
1.21447
1.06187
1.4766
0.715097
1.4715
1
0.6572
0.997106
1.47112
0.947634
1.47122
1.47156
1.44942
1
1.47246
1.47181
1.47161
1
1.00004
1
1
1.4725
1.33248
1
1
0.655631
0.996385
1
1.47038
1
1.4712
1.47093
1.4702
0.91371
1.47171
1.47058
1.00597
1.22309
1.47312
1.47089
1
1.43416
0.837136
1.45716
0.98172
1.47059
1
1.47118
1.47039
1
0.655211
0.928155
0.713119
1
1.08609
0.996842
1.47217
1
1
0.996817
1
1.23352
1.44808
1
1
1.47259
1
1
1.33534
1.47211
1.45223
1.47084
1.47075
1
1.47062
0.741241
1.47147
1
0.983572
0.666009
1
1
0.745291
1
1.14829
1
1.47292
1
1.46307
1.29015
0.651515
1
1
1
1
1
1.47206
1.01182
1
1.46842
1
1.47216
1.4718
0.999999
1
0.966177