/*--------------------------------*- C++ -*----------------------------------*\
  =========                 |
  \\      /  F ield         | OpenFOAM: The Open Source CFD Toolbox
   \\    /   O peration     | Website:  https://openfoam.org
    \\  /    A nd           | Version:  12
     \\/     M anipulation  |
\*---------------------------------------------------------------------------*/
FoamFile
{
    format      ascii;
    class       surfaceScalarField;
    location    "3.12";
    object      phi;
}
// * * * * * * * * * * * * * * * * * * * * * * * * * * * * * * * * * * * * * //

dimensions      [1 0 -1 0 0 0 0];

internalField   nonuniform List<scalar> 
33852
(
0.000251329
2.24281e-05
-0.000273757
-0.000246121
1.32441e-05
0.000232877
-0.00017366
-6.94775e-05
0.000244923
0.000304053
-0.000163969
-0.000140085
0.000292463
-4.22701e-05
-0.000248873
2.72441e-05
-0.000260681
0.000233437
0.000315105
1.47959e-05
-0.000330226
0.000304277
-9.59564e-05
-0.000208321
0.000286413
-3.50841e-05
0.000200727
1.93734e-06
-0.000201069
0.000289178
-0.000366678
7.71588e-05
0.000360044
-4.56949e-05
-4.39602e-05
0.000263285
-0.000219325
-4.38677e-05
0.00031821
-0.000274225
5.99057e-05
-0.000233193
0.000252057
1.2236e-05
-0.000264293
0.000264853
-1.2796e-05
-0.000278433
3.23121e-05
0.000340313
-5.1236e-05
0.000158593
0.000112308
-0.000270901
-2.43275e-05
0.00030336
-0.000279062
0.000271377
-0.000276165
4.78802e-06
-1.76673e-05
0.000274848
-0.000256895
-0.000218531
1.44006e-05
0.000204593
-0.000154552
-0.000183451
0.000337228
-0.000146001
-6.96504e-05
0.000213868
3.72401e-05
0.000267037
-6.11925e-05
-0.000262976
0.000324525
-0.000207785
1.4707e-06
0.000207511
-0.000201731
-1.87401e-05
0.000142045
0.000137388
-0.000279433
0.000340464
1.93507e-05
0.000142618
0.000128347
-0.000270965
-0.000101136
0.000259729
-0.000250489
-3.78001e-06
0.000254269
0.000330874
-5.97114e-05
-0.000271148
-0.000358449
0.000203807
-0.000226866
0.000209404
0.000231645
3.32081e-05
-5.65602e-06
0.000237301
-8.08178e-06
0.000210883
-0.000232625
0.000259869
0.000316599
-5.73234e-05
-0.000258521
-0.000309093
5.51042e-05
0.000253989
0.00024032
-0.000301171
0.000273589
-0.000306321
3.27321e-05
-0.000180237
-5.49362e-05
0.000235173
0.000272133
-0.000272133
0.000148429
-0.000297473
0.000149045
-0.000207953
0.00021776
-7.48166e-06
-0.000268241
0.000237301
3.09401e-05
-0.000199479
0.000246076
-4.65793e-05
-9.16164e-05
-0.000217477
-0.000114776
-0.000252136
-0.000280169
0.000266113
1.40561e-05
0.000329073
1.17801e-05
-0.000250433
7.01963e-05
0.000117908
0.000145909
-0.000263817
1.34681e-05
-0.000267457
0.000253989
-0.000134569
0.000282997
-0.00015194
-5.11224e-05
0.00020614
-0.000274681
0.000245113
2.95681e-05
0.000237553
-0.000268437
3.08841e-05
-0.000184618
-2.31168e-05
0.000151665
0.000115565
-0.00026723
-0.00019268
-2.89651e-05
0.000220224
0.000263985
2.24281e-05
0.000275941
-2.35201e-06
0.000265329
-0.000250741
-1.45881e-05
0.00022958
-6.45215e-05
-0.000161353
-1.82001e-06
0.000239373
0.000367039
-0.000313054
-5.40042e-05
-2.83977e-05
0.00030388
-0.000275635
-0.000101584
0.000219493
0.000342469
2.42471e-05
-0.000372375
0.000353947
1.82805e-05
-0.000215684
2.28476e-05
0.000308148
-0.000321393
1.21272e-05
-0.000207778
0.000271976
-6.39242e-05
-4.45202e-06
1.70934e-05
-0.000319367
0.000301514
0.000232305
-0.000197316
-3.4689e-05
0.000269676
-0.000338321
6.99722e-05
0.000334117
-6.35212e-05
-0.000268941
0.000236573
3.23681e-05
-0.000129388
-0.000132609
0.000261997
-1.86761e-05
-0.000249565
-1.022e-05
-0.000258721
2.3008e-05
0.000211076
-0.000233109
3.15868e-05
-0.000221389
0.000192788
-2.49385e-05
0.000327326
-0.00030251
-0.000279329
0.000273701
5.62802e-06
0.000156129
-0.000296857
0.000140729
-5.90499e-05
-0.000149801
0.000208181
0.000143277
0.0001218
-0.000265077
-0.000250117
0.000225732
-0.000211007
0.000151406
-0.000168813
0.000327181
-0.000158369
0.000185389
7.16523e-05
-0.000257041
0.000255193
2.07481e-05
-0.000192277
0.000148317
5.01434e-05
0.000266487
0.000306536
-0.000289942
9.17574e-05
-0.000238793
0.000135241
0.000117096
-0.000281065
-1.29179e-06
0.000245118
-0.000243377
0.000166489
0.000122836
-0.000289325
0.000143499
8.96523e-05
-3.92002e-06
0.000259113
0.00030237
5.48677e-06
-0.000324108
0.000315297
8.95792e-06
-3.99002e-05
0.000236293
-0.000196393
4.08802e-06
-0.000284257
-2.54781e-05
0.000165287
-0.000137467
-0.000155903
0.00013351
0.000210632
-0.000176648
-0.000269921
0.000264965
4.95602e-06
2.64041e-05
0.000174721
-0.000201125
2.87841e-05
-0.000257265
0.000228481
0.000276137
-0.000262669
0.000115108
0.000212073
0.000212906
-0.000189076
-0.000175813
0.000202217
1.35141e-05
0.000283302
-0.000296635
0.000270548
2.1859e-05
0.000271576
-0.000284862
1.23801e-05
3.86402e-06
0.000267513
-1.81424e-05
0.000289142
0.000330376
9.98187e-06
0.000213786
-0.000257687
0.000317154
-0.000317126
-6.63603e-06
-0.000272693
2.85e-05
0.000202818
0.000187993
3.98722e-05
-0.000227865
-5.46907e-05
0.000217943
-0.000164746
0.000153609
-0.000270285
0.000116676
0.000279441
-0.000329701
5.02602e-05
-6.38122e-05
0.000249201
-0.000166909
0.000315897
-0.000148989
-0.000313828
-1.00023e-05
-0.000214929
0.000175029
2.78601e-05
-0.000278349
0.000276221
-1.88441e-05
-0.000248613
1.71231e-05
-0.000302258
0.000285083
0.000344989
-0.000158593
-0.000186397
-1.67762e-05
-0.000240778
0.000257816
-0.000266617
-3.30401e-06
0.000224001
2.45841e-05
-0.000248585
0.000284509
-0.000128381
0.000140197
0.000138853
-0.000279049
-0.000196843
-1.03754e-05
0.000258169
-0.000115551
0.000225693
-0.000242547
-6.38122e-05
0.000251805
-0.000207681
0.000249481
-5.60002e-07
-0.000248921
0.000255109
-0.000237441
-0.000324145
0.000299198
-3.08841e-05
0.000203169
-0.000172285
0.000292045
1.25304e-06
-0.000293161
7.67961e-05
0.000131905
-0.000206718
4.60428e-05
-0.000197599
-0.000289505
-4.64972e-06
0.00029405
-1.54988e-06
-0.000287964
0.000146973
-0.000273925
0.000126952
-0.00026348
0.000219948
-0.000294452
0.000265463
0.000279441
-0.000313204
-1.24817e-05
0.000326577
0.000110925
0.000161908
-2.13945e-05
0.000352187
0.000140141
0.000139833
-0.000279973
0.000245029
-0.000250349
5.32002e-06
-0.000210953
0.000180069
0.000279133
-5.43202e-06
0.000350883
-3.25541e-05
-0.000302947
0.000305251
-1.33476e-06
0.000270985
-0.000270985
-0.000364821
0.000225958
0.000138833
-0.000204796
1.91461e-05
1.69371e-05
0.000275157
-0.000278461
3.30401e-06
-5.27032e-06
0.00017314
-0.000169794
-0.000197345
0.000254801
-5.74562e-05
-0.000203262
4.19177e-06
-0.000240755
0.000158502
8.05819e-05
-0.000180265
0.0002614
-8.11366e-05
0.000256285
-0.000287113
3.08281e-05
-0.000249229
5.18842e-05
-2.371e-05
0.000275883
-0.000252131
-0.000253547
1.35801e-06
0.000252189
0.000231281
-7.28003e-06
-0.000294381
7.5302e-06
0.000286845
-0.000266085
0.000266085
-0.000283242
-5.47289e-05
-0.000170835
-0.000194012
-0.000173527
0.000217302
-4.56223e-05
-1.232e-05
-0.000239177
0.000251497
3.10801e-06
0.000210113
-0.000213221
-0.000186963
-2.29263e-05
0.000208655
7.59868e-06
0.000294511
-0.000302168
-0.000236153
-1.34401e-05
0.000249593
1.50361e-05
-0.000251189
-0.000241025
0.000256061
-0.000301441
0.000309015
0.000256117
7.16803e-06
-0.000167825
-3.14939e-05
0.000199099
-0.000145237
-0.000134765
-0.000244329
0.000240549
0.00029855
-4.05604e-07
-0.000298161
-0.00029879
5.66234e-07
0.00029827
1.90633e-05
0.000181217
0.000163773
7.70044e-05
-0.000257269
-0.000159242
0.000310908
0.000250721
-0.000108677
-0.000235145
-1.83681e-05
0.000253513
-0.00020456
-0.000126817
0.00033134
-6.10402e-06
-0.000229125
0.000235229
-2.23468e-05
-0.000185937
-0.000286737
-8.56405e-05
6.36756e-06
-0.00030073
-0.000212742
0.000328262
-0.000115552
0.000281597
0.000288205
-5.16322e-05
0.000271993
-1.57081e-05
-0.000187346
-1.3806e-05
0.000200455
0.000297657
3.72366e-07
-0.000297881
-0.000268953
-3.28424e-05
-0.000218821
0.000247605
-2.52283e-05
0.000310532
-0.000285282
0.000177148
8.05366e-06
-0.000188324
-3.327e-05
0.000209461
-0.000301195
0.000275995
0.00029301
5.45391e-06
-0.000298607
0.000157445
0.00011886
-0.000276305
0.000287487
5.02475e-06
-0.000293552
-0.000247004
0.000116335
0.000127578
-0.000281864
0.000295413
0.000302513
-0.000156857
-0.000145657
0.000207005
-0.000203897
-0.000232009
-0.000121156
-0.000155009
-4.1083e-06
-0.000293996
0.00029803
-1.0136e-05
0.000276249
0.000292126
-2.11479e-05
-0.000271641
-0.000262896
2.88533e-05
0.000234269
0.000271433
-0.000267569
0.000249621
2.95121e-05
0.000314923
-9.76013e-06
-0.000305123
4.91945e-05
0.000154606
-0.000204754
-9.71476e-05
0.000193911
-9.56618e-05
0.000252617
-2.91201e-05
-0.000223497
5.18459e-07
0.00029162
-0.000178113
-3.19727e-05
0.000210947
-2.58598e-06
0.000290112
-9.33244e-05
0.000246933
-0.000255417
-5.26402e-06
0.000121184
0.000181329
1.34121e-05
0.000241557
-0.000254969
0.000236097
1.34961e-05
-0.000249593
0.000249509
-0.000242929
0.000256425
6.39417e-05
-0.000201348
0.00013916
-0.000212485
0.000113308
-0.000203404
0.000297176
1.35985e-06
-0.00029861
0.000253849
2.22881e-05
0.000268493
-0.000216441
-5.20522e-05
0.000225518
-0.000246849
2.13305e-05
0.000257909
1.40841e-05
5.9038e-05
0.000294947
0.000267186
-3.89594e-05
-0.000228226
0.000175723
1.274e-05
0.000240297
-0.000253037
0.000195475
-0.00011516
-8.06597e-05
-0.000208773
2.16714e-05
-1.23821e-06
-0.000298053
0.000299196
0.00021973
-0.000166264
-5.26078e-05
0.000344726
-4.13771e-05
0.000275969
-0.000135829
2.31561e-05
0.000238337
-0.000261493
-0.000231141
0.000254297
-2.66638e-05
-0.000229733
0.000256397
0.000159315
-0.0001657
-7.84628e-05
-0.000170212
-0.000261723
4.14346e-05
0.000220288
-3.17521e-05
-0.00022997
7.31346e-06
0.000261717
-3.25193e-05
-0.000229198
1.66663e-05
0.000126717
-0.000196846
0.000308785
-0.000171397
0.000262319
-3.57923e-05
-0.000226526
-0.000319923
0.000179762
-0.000101785
-0.000228453
-6.90203e-05
-9.85947e-07
-0.00029626
0.000297518
-2.73833e-05
0.000180427
-0.000153228
0.000308046
6.87335e-06
0.000250097
-0.000248249
-1.84801e-06
-0.00017666
6.18865e-05
0.000260251
-3.07159e-05
-0.000229538
0.000197345
-0.000250769
5.34242e-05
0.000254206
-0.000231206
-2.29992e-05
-0.000252337
0.000240017
0.000144744
0.000101718
-0.000101864
-0.000170269
0.000132496
-0.000261885
-0.000290249
0.0002422
4.80483e-05
0.000216808
3.12483e-05
-0.000248056
-0.000238422
-9.3855e-06
0.000246688
0.000326895
-2.28964e-05
0.000263996
-3.42721e-05
-0.000229724
0.000140184
-0.000228135
8.89445e-05
3.63259e-05
-0.000265637
0.000229311
-0.000253905
0.000121296
0.000249817
-5.24722e-05
0.000294673
-0.000154253
-0.000140421
0.000122248
-0.000289157
1.53441e-05
0.000237665
-0.000253009
-0.000262031
3.54705e-05
0.00022656
-2.75596e-06
-3.77917e-05
-0.000224239
0.000248947
-0.000272241
-0.000264649
3.44737e-05
0.000230175
0.000193257
0.000101416
-0.000149941
0.000290137
-0.000172142
-3.85107e-05
0.000214065
-1.81721e-05
0.000263201
-0.000292796
0.0003099
0.000116619
0.00010347
0.000261325
-0.000261325
0.000309824
-2.08502e-05
-0.000289132
5.32002e-07
0.000248949
0.000254857
1.65761e-05
0.000309637
-0.000276342
-3.31578e-05
-2.26336e-05
0.000266577
-0.000243943
3.00077e-05
-0.000260519
0.000230511
-0.000252139
0.000229506
0.000327483
3.11501e-05
-0.000260598
0.000229447
0.000276809
-3.16961e-05
-6.7197e-06
-0.000292546
0.000299653
0.000270732
3.89163e-05
0.000230245
-0.000266617
3.63721e-05
0.000201641
-0.000202724
-0.000258301
0.000238533
1.97681e-05
0.000169762
-0.000257245
8.74835e-05
-0.000205786
0.000163241
-0.000249145
8.59043e-05
-0.000266169
0.000224813
4.13562e-05
0.000253073
-2.78797e-05
-0.000225194
0.00017361
4.27613e-05
-0.000234837
-2.29601e-05
0.000257797
-0.000236377
-2.28761e-05
0.000259253
-1.94265e-05
0.000255969
-0.000236542
-0.000259345
0.000239919
-3.17404e-05
0.000174954
-0.000235929
-2.24001e-05
0.000258329
-0.00025484
0.000229192
2.56481e-05
2.94001e-06
0.000211289
-0.000214229
-0.000267031
3.79849e-05
0.000229046
0.000270677
4.48002e-06
4.19172e-05
0.00016359
-0.000204854
-3.31196e-05
0.000249928
-2.09978e-05
0.000218597
9.73004e-05
0.0002482
-0.000216951
0.000277834
-0.0002794
0.000277648
-0.000282369
-1.84997e-05
0.000258601
-0.000240101
-0.000261644
0.000243145
3.16209e-05
-0.000205259
-2.99417e-05
-0.000208195
0.000239405
0.00031442
-0.000286944
-2.73673e-05
0.000261297
-3.11081e-05
-0.000230189
3.28739e-05
-0.000262362
0.000229488
-0.000229853
0.000259645
-2.97921e-05
0.000325611
-1.76913e-05
0.000148127
-0.000209378
0.000256929
-0.000109956
-0.000286184
0.000287574
0.000241977
-6.41202e-06
-0.000235565
0.000228537
-0.000180019
-3.80011e-05
0.000216169
2.90932e-05
-0.0002099
-0.000239989
0.000260317
-2.03281e-05
-0.000104616
0.000192002
-8.71604e-05
3.07372e-05
-0.000199004
0.000240169
-0.000263424
2.32552e-05
-0.000115584
0.000258861
-0.000243993
0.000265721
-2.17281e-05
-0.000238953
0.000232541
0.000258626
-0.000245105
-1.35213e-05
0.000264349
-2.46681e-05
-0.000246317
-0.000274413
-1.0601e-05
0.000298453
-5.32198e-05
-9.05136e-06
0.000291972
-0.000280392
-0.000166071
0.000208781
0.000230108
1.7992e-05
-0.000250334
0.000328063
-0.000327923
0.000260955
-0.000245018
-1.59377e-05
-0.000301866
-6.83017e-07
0.000304917
9.77556e-06
3.77285e-05
0.000169266
-0.000208546
0.000215726
-3.51103e-05
-0.000178808
0.000278054
-0.000255789
-2.22648e-05
-0.000208446
3.15232e-05
3.15421e-05
-0.000261891
0.000230348
0.000285965
-0.00029232
2.44721e-05
-0.000259617
-0.000257965
1.87881e-05
0.000266057
-1.64361e-05
0.000151173
-0.000267625
0.000116452
0.000298975
-4.49006e-06
0.000238617
-7.53763e-05
2.12521e-05
0.000177045
-0.000198297
-0.000183877
0.000205129
-0.000236275
0.000257219
-2.09441e-05
0.000261462
-3.31689e-05
-0.000228293
-0.000197009
-5.21362e-05
0.000251581
-1.48401e-06
9.03127e-06
-0.000263502
0.000255533
-0.000342044
0.000235778
0.000106218
0.000266371
-0.000236811
-2.95597e-05
0.000306761
-0.000314572
7.81641e-06
-2.57041e-05
-0.000229097
0.000254801
0.000261493
-7.64403e-06
9.97068e-06
-0.000207151
0.000262411
-3.19033e-05
-0.000230508
-6.90483e-05
-0.000260653
-0.000194685
0.000248025
-5.33402e-05
-0.000266533
0.000249985
1.65481e-05
-0.000318142
1.66869e-05
-1.72267e-05
0.00029673
-0.000279113
-0.000276221
1.65481e-05
0.000249537
-0.000169567
6.51504e-05
0.000273912
1.47812e-05
-0.000288671
-0.000316073
0.000307821
8.26382e-06
3.46641e-05
-0.000263649
0.000228985
-1.75155e-05
0.000281433
-0.000315224
1.64498e-05
-0.000176541
-7.42283e-05
-0.000235572
0.000206041
-2.16721e-05
-0.000216469
0.000238141
-0.000314402
0.000295609
1.88376e-05
-0.000132851
0.000273482
-0.000140641
-8.42664e-06
3.31521e-05
-0.000263453
0.000230301
-0.000202771
2.49677e-05
0.000176783
0.000221526
0.00028038
-0.000280688
2.88064e-07
-0.000236993
-2.20921e-05
0.000224813
-0.000202721
0.000139273
0.000143753
-0.000278517
0.000201671
-5.65474e-05
0.000308273
-1.05721e-05
0.000209153
-0.000269081
2.92853e-05
0.00022306
-0.000252345
-0.000321473
0.000137968
0.000296257
2.91971e-05
1.94517e-05
-0.000224355
-2.77845e-05
-0.000136697
-0.000132724
-0.000326592
0.000113701
0.000242873
2.56201e-05
0.000218765
-0.000224869
1.11104e-05
-0.00028802
0.000276722
-0.000243393
0.000270304
-2.73424e-05
0.000281413
-0.000281825
0.000288514
-7.71525e-05
-8.83636e-06
0.000290266
-1.87881e-05
0.000247101
-0.000228313
0.000281529
-0.000290298
-5.68943e-06
-0.000283981
0.000289733
0.000282104
-0.00026987
0.000284678
0.000226314
2.67597e-05
-0.000308068
0.000315602
-9.35541e-06
0.000248466
-2.18146e-05
0.000223186
2.40156e-05
-0.000268913
0.000246057
-2.05381e-05
-0.000259401
3.02849e-05
0.000229116
0.000178305
7.64963e-05
1.03863e-05
0.000281878
-0.0002921
-0.000238141
-2.88401e-05
0.000266981
2.51441e-05
-0.000263285
0.000284117
-0.000162317
-0.000232177
0.000261129
-2.89521e-05
-0.000234697
0.000260709
-2.60121e-05
1.39196e-06
0.000279368
2.45001e-05
-0.000259197
2.38001e-05
-0.000255977
0.000274325
-0.000242911
-3.13689e-05
0.000317907
-1.00123e-05
-0.000308477
-1.05874e-06
-0.000255753
1.1816e-05
0.000243937
-1.40563e-05
-0.000261185
0.000228066
-0.000245337
0.000270145
-2.48081e-05
-0.000263229
1.49801e-05
-2.35989e-05
0.000286385
-0.000262671
2.13641e-05
-0.000266701
-0.000241501
-2.14019e-05
3.26236e-05
-9.0432e-05
0.000260194
0.000280968
-0.000286521
5.05122e-05
0.000237693
0.000282026
-0.000281196
-0.000243181
-2.39401e-05
0.000267121
-0.000260894
7.34723e-06
-0.0002956
1.93178e-05
0.000276401
-0.000268717
2.55361e-05
-8.08062e-06
0.000290688
-0.000268326
0.000243549
2.47772e-05
-0.000232513
0.000210841
0.000279877
-0.000287956
-6.16002e-07
0.000260289
-0.000259673
-0.000302002
-1.6119e-05
-0.000264573
2.35481e-05
-0.00024417
-2.41555e-05
-3.43281e-05
-0.000298076
0.000293958
0.000286674
-0.000158327
0.000295998
-0.000290305
2.30152e-05
4.91601e-06
0.000262241
-0.000254534
-7.13864e-06
0.00030746
-2.0218e-05
-0.000287247
5.9803e-05
-0.000246765
-2.19521e-05
-0.000357268
0.000242531
0.000285173
-0.000281748
2.33801e-05
-0.000189661
-1.59268e-05
-0.0003067
2.56999e-05
0.000280637
-0.000197217
0.000311289
-0.000113754
0.000259841
-0.000238533
-2.13081e-05
-0.000291654
2.94001e-05
0.000222097
-0.000251497
-0.000163097
0.00013708
-0.000164512
0.000251441
-0.000238029
-1.34121e-05
-0.000263873
3.40201e-05
-2.23161e-05
-0.000269837
0.000251469
0.000230427
3.12901e-05
-4.59408e-05
0.000200321
0.000232619
-0.000260499
-1.73947e-05
-3.11945e-06
0.000246086
-0.000244922
-0.000293397
-0.000237049
0.000265189
-2.81401e-05
0.000230096
3.22225e-05
-0.000268521
2.55921e-05
-0.000239905
-2.86161e-05
0.000228954
-0.000260706
-0.00028259
4.73202e-05
-0.000242005
0.000293652
-0.000283982
-0.000287977
1.32469e-05
0.000275409
-4.84051e-06
0.000221323
0.000228551
-0.00026107
0.000296885
-0.0001309
-0.000165985
0.000240615
-0.000261743
0.000269337
-0.000226213
-1.76681e-05
-0.000164704
0.000308517
-0.000142364
2.49649e-05
0.000222662
-0.000247627
-0.000192401
0.0001925
-0.000283864
0.000282534
7.04148e-06
-0.000290867
-0.000302485
0.000146693
0.000155793
0.000259995
-0.000239359
-2.06361e-05
-0.000215741
0.000193649
0.000262364
3.46986e-07
0.000257293
0.000232526
2.16795e-05
-0.00029603
-6.21099e-05
1.02305e-05
0.000233577
-0.000249642
1.77782e-05
-0.000230917
-2.37161e-05
0.000254633
-0.000242295
0.000263191
-2.08965e-05
8.31074e-05
0.000136009
2.02275e-05
-0.000305672
0.000285656
0.000256565
-1.80041e-05
-0.000238561
0.000243881
-0.000254017
1.0136e-05
-0.000226745
0.000207957
0.000223131
-0.000258923
-0.000244693
4.76842e-05
1.59779e-05
-0.000137856
-0.000219316
1.57921e-05
0.000245701
0.000280255
0.000294291
0.000305762
1.69681e-06
0.000249817
-0.000220417
2.51749e-05
0.000225009
-0.000250184
-0.000243178
0.000268865
-2.56873e-05
2.28201e-05
-0.000262725
-0.000115182
0.000296145
9.1054e-06
2.08181e-05
0.000261675
-0.000235103
-2.65721e-05
1.31058e-05
-0.000303507
0.000290533
0.000321706
-3.09767e-05
-0.000290785
0.000249733
1.63241e-05
0.000306197
-0.000293042
-0.000229988
-0.000112101
9.63204e-06
0.000250657
-4.9129e-05
-0.00020239
0.000251519
2.20333e-05
0.000246832
-0.000241686
-2.29629e-05
0.000260737
-2.24001e-05
0.000288045
-0.000268023
2.63369e-05
2.68241e-05
-0.000257965
0.000210617
-0.000207677
2.58161e-05
-0.000262865
0.000281404
0.000121744
-0.000256173
0.000134429
1.88481e-05
3.7909e-05
0.000158636
-0.000196434
-0.000239485
-2.85377e-05
3.9929e-05
0.000162877
-0.000203178
-0.000246691
0.000271066
-2.43747e-05
0.000209866
-0.000248826
1.98857e-05
1.73885e-05
-0.000172891
-3.01748e-05
0.000226692
-0.000257413
-2.88401e-05
0.000244245
-0.000215405
-2.16161e-05
0.000242985
-0.000221369
0.000201657
-0.000250786
-0.000273717
-0.000232905
-2.55081e-05
0.000258413
0.000241234
2.98318e-05
-0.000211508
-2.37851e-05
0.000236072
-2.18821e-05
-0.000224967
-0.000239345
6.28042e-05
0.000259004
-0.000229718
4.75106e-05
-0.000249901
-3.43393e-05
0.000257694
-0.000223354
0.000205675
-0.000240014
0.000261689
-1.1956e-05
-6.06763e-05
-0.000229572
-0.000226068
-1.75641e-05
0.000244208
0.000247109
5.3175e-05
0.000212448
-0.000265623
-0.000261095
0.000177353
-0.000231757
5.44042e-05
6.48419e-05
0.000138008
0.000259457
-0.000240915
-2.47224e-05
-0.000265385
0.000227165
3.82201e-05
-2.87813e-05
-0.000222158
0.00025094
-0.000284485
0.000264161
0.000234501
3.61761e-05
2.18821e-05
0.000234087
-0.000307217
0.000151089
0.000156129
0.000168779
-5.21782e-05
0.000254045
-0.000115192
2.56901e-05
0.000217446
-0.000243136
-0.000286425
0.000286932
9.31321e-06
0.000257377
-0.000245953
0.000208937
3.70161e-05
0.000254832
0.000243121
-1.95839e-05
-0.000246815
-2.02161e-05
-0.000263019
2.0724e-05
-0.000269215
2.24001e-05
2.79601e-05
0.000220024
-0.000247984
0.000242481
-0.000274597
1.32721e-05
0.000248087
-1.3509e-05
1.24548e-05
-0.000251643
-0.000328559
0.000124016
-0.000233135
-2.62109e-05
-0.000252113
0.000252113
0.000259782
-0.000144217
-1.81199e-05
-0.00027874
0.000297356
0.000274378
0.000258749
-0.000135913
0.000224113
2.39205e-05
0.00023468
7.81302e-05
-0.000340676
3.79009e-05
0.000258962
1.76364e-05
-0.000248843
-3.00917e-05
0.000207453
-3.01001e-05
0.000259701
2.95429e-05
0.000218353
-0.000247896
-3.05014e-05
-4.09782e-05
-0.000217818
0.000258797
-0.000233423
-2.14173e-05
3.77419e-05
-0.000200129
0.000164032
-3.30877e-05
0.000221671
-0.000255943
-0.000282105
-8.38514e-06
0.000290573
-0.000193265
0.000161219
0.000166349
8.16763e-05
1.25926e-05
-0.000294543
0.000235075
2.59446e-05
-0.000261019
-0.000195369
-1.56525e-06
0.000232743
-0.000264287
3.15449e-05
-8.42803e-06
-0.000217029
0.000225457
-0.000163234
0.000201933
-0.000249985
-3.46025e-05
0.000256274
0.000218076
-0.000252679
-0.000246289
0.000272245
-2.59561e-05
0.000253547
2.78321e-05
-0.000232062
-2.95821e-05
-0.000298277
0.000316487
-1.81759e-05
2.3378e-05
0.000212462
-0.000250254
-0.000267233
2.09441e-05
-2.12801e-05
-0.000245953
-3.61481e-05
0.00024861
-0.000290056
-1.36267e-05
0.00022082
-0.000256968
0.00024804
-0.000251627
1.75924e-06
2.80002e-06
0.000181413
-0.000184213
0.000255294
0.000234529
2.67681e-05
-2.62361e-05
0.000245001
-0.000218765
3.36001e-05
0.000216609
-0.000250209
0.000244861
2.73841e-05
0.000306545
-0.000143949
-0.000162597
1.56849e-05
0.000240891
-0.000255643
0.000271013
-0.000113568
0.000225569
-0.000256677
-0.000241198
0.000104593
-0.000265469
7.16803e-06
-0.000241635
-2.75801e-05
-0.000241361
-2.48081e-05
0.000310803
-2.74808e-05
-7.67483e-05
0.000243097
-1.1452e-05
-0.000215601
0.000224281
-8.68003e-06
0.000255193
-7.68883e-05
3.44615e-05
-0.000193572
0.000162692
-0.000265245
-1.40001e-07
-4.14962e-05
3.95421e-05
0.000160686
-0.00019962
0.000198211
-0.00016104
0.000257041
-7.05603e-06
0.000251151
-0.000218277
-1.81684e-05
-2.1128e-05
0.000277738
-9.45382e-05
-0.000184138
-1.42801e-05
-0.000191913
0.000206193
0.000258665
-1.53553e-05
-0.00024331
1.98101e-05
0.000238855
-0.000280082
-7.95605e-06
3.75952e-05
-0.000192165
0.000157685
1.36921e-05
0.000247997
-0.000158878
0.000197799
-1.95189e-05
0.000248711
3.26669e-05
0.00018481
-0.000217941
-4.17202e-06
-2.49389e-05
0.000265108
-0.000231955
-3.14693e-05
0.000296778
-0.000281294
-1.554e-05
1.63717e-05
-0.000237659
0.000221288
-0.00010514
0.000226885
1.9261e-05
-0.000305063
0.00028575
2.52001e-05
-2.79441e-05
2.69165e-05
0.000308732
-0.000289536
0.000238891
1.97345e-05
2.15601e-06
0.000231617
-0.000233773
-0.000310313
2.56835e-05
0.000284827
-0.000162177
-0.000144145
0.000209178
-0.000250156
-0.000165828
0.000241924
1.90317e-05
0.000256954
-4.13534e-05
0.000250531
0.000214498
-0.000255851
0.000318489
-0.000318045
-1.08781e-05
0.000287878
-0.000277019
-0.000302701
1.96321e-05
0.000283298
4.20842e-05
-0.000286413
-3.89929e-05
0.000252483
2.62921e-05
-2.21558e-05
0.000307437
-0.000285248
2.43321e-05
3.91603e-05
0.00016053
-0.000200742
0.000249294
-0.000219751
2.83277e-05
-0.000261633
4.36802e-06
-2.00904e-05
0.000307076
-0.000286974
-0.000250987
-0.000266673
3.07441e-05
0.000252141
-0.000236741
-1.54001e-05
1.2264e-05
0.000239877
-0.000274944
-1.27096e-05
0.000255697
-6.60695e-06
0.000319292
-1.21633e-05
0.00029813
-0.000286645
-4.7347e-05
0.000247437
-0.000235621
0.000257601
-1.99361e-05
0.000131484
8.53226e-05
-0.000218548
0.000222104
3.03493e-05
0.000226759
-0.000258662
3.71393e-05
0.00027158
-0.000288837
1.68223e-05
0.000251273
-0.000239093
-1.31321e-05
0.000252225
-2.91201e-05
-0.000257265
2.56481e-05
0.000231617
-0.000228005
-2.92601e-05
0.000259765
-0.000233571
-2.61941e-05
0.000258721
-0.00026635
2.36537e-06
0.000290673
1.304e-06
-0.0002915
0.000248681
-0.000232064
-1.85921e-05
0.000308823
-0.000300782
-8.00774e-06
0.00025305
-0.000102223
-0.000266897
2.56761e-05
0.000241221
-3.48881e-05
-0.000232009
-0.000266393
2.51161e-05
0.000241277
-1.24424e-05
-0.00026785
0.000280448
-3.45241e-05
-0.000231869
-0.000261873
1.85939e-05
-0.000266281
2.43881e-05
0.000241893
-0.000284138
-2.14864e-05
-0.000306263
2.76607e-05
0.000278607
-3.34041e-05
-0.000232877
-0.000170478
-0.000258133
2.94001e-05
0.000228733
0.000309215
-0.00030814
-0.000195805
0.000209049
-3.29281e-05
-0.000225205
0.00019741
-0.000279026
8.16415e-05
0.000283689
2.2379e-05
-0.000301953
1.76961e-05
0.000285448
-0.000280888
-5.01197e-06
-0.000257125
0.000231617
2.55081e-05
0.000170765
2.78561e-05
-0.000197723
-0.000266953
2.81681e-05
0.000238785
-0.000227361
-2.97641e-05
-3.67361e-05
-0.000230217
0.000276398
0.000297418
1.91039e-05
-0.000276182
-3.19172e-05
0.000307948
-0.000258679
-1.12832e-05
0.000297517
-0.000286118
1.50071e-05
-0.000302035
0.000287025
-0.000230609
-0.000307723
0.000287618
0.000263005
-2.55548e-05
-0.000280685
1.36081e-05
0.00016794
0.000228662
1.88831e-05
-0.000247351
-0.000199705
0.000165341
0.000236738
1.31517e-05
-0.00024989
-0.00025833
2.66093e-05
0.000231721
-1.09228e-05
0.000247661
5.74002e-06
0.000246877
-3.19817e-05
-0.000226348
0.000299598
-0.00028566
-1.38449e-05
0.000228024
-0.000226666
0.000289877
0.000237685
1.98521e-05
-0.000257537
-1.24236e-05
0.000250108
0.000246636
1.50389e-05
-0.000305472
1.54051e-05
0.00024448
2.18905e-05
3.22712e-05
-0.000198202
-0.000287456
-1.77115e-05
-0.000182869
0.000295177
-0.00015051
0.000184007
-3.31708e-05
3.02505e-05
-0.000195031
0.000166552
-0.000160725
0.000259149
-0.000239236
-1.99137e-05
0.000261936
-0.000274595
-0.000241455
0.000231653
-2.18902e-05
0.000301282
-0.000279384
0.000307968
-0.000292973
0.000242117
1.77241e-05
-0.000224975
0.00024443
-1.94545e-05
1.61001e-05
-0.000241075
-7.00003e-06
0.000260989
-0.000297166
4.82533e-06
0.000292373
-0.000174497
0.000160217
-1.74105e-05
-6.22926e-06
-0.000290891
-1.68466e-05
-0.000285113
4.28402e-06
-0.00030028
0.000135151
-0.000257464
2.37321e-05
0.000233777
0.000238197
1.32441e-05
-3.08186e-05
-0.000226656
-3.29889e-05
-0.000291459
2.09353e-05
-0.000228001
0.000204094
0.000254969
-0.000233465
-2.15041e-05
-0.000200607
0.000217691
-0.000185555
-7.39803e-06
0.000202741
0.000137912
0.000138297
4.0049e-06
0.000271256
0.00027989
-0.000305419
3.01227e-06
0.000242385
-1.98428e-05
0.000298596
-0.000278725
-0.000302324
0.000287451
1.4837e-05
-0.000258301
0.000230077
2.82241e-05
-2.64041e-05
-0.000231897
0.000302307
-0.000302715
0.000267511
-1.99602e-05
0.000304528
-0.000284528
0.000285996
-6.39265e-07
-0.000256873
0.000256873
-0.000268179
0.000295858
-0.000146439
-6.70882e-05
-6.75868e-06
0.000295631
-0.000288641
-0.000297369
0.000290574
0.000291795
-0.000278687
0.000290479
-0.000305378
1.49204e-05
3.43736e-05
-0.000241326
0.000217348
2.23679e-05
-1.44589e-05
-0.000247223
0.000230285
-1.43445e-05
0.000297767
-0.000283413
0.000263481
-1.96001e-05
0.000254224
-0.000235464
-1.87601e-05
-3.10277e-05
-0.00027377
0.000304804
1.44393e-05
-0.000297115
0.000282868
-1.45881e-05
0.000233465
-0.000218877
0.000208236
-0.000295364
0.000283144
-1.92649e-05
0.000304689
-0.000285356
0.00025102
-2.688e-05
0.00029729
-0.000270448
-0.000295723
0.000268826
1.07156e-05
0.000244749
-0.000255465
0.000305231
-0.000312054
6.76379e-06
1.82477e-05
1.53379e-05
0.000287172
-0.000302025
6.31566e-06
0.000284386
2.38145e-06
-0.00031926
-0.000288427
0.000303806
-0.000242481
0.000243657
8.45603e-06
-0.0002264
0.000242772
-0.000293214
0.000274134
0.000284251
-0.000146639
-8.17547e-05
0.000294221
1.44988e-05
3.12154e-05
-0.000196888
0.000167217
-0.000274308
0.000257293
-0.000219535
0.00024982
0.000243411
1.92865e-05
-0.000262697
0.000236019
2.31309e-05
-0.000301631
0.000283195
0.00031233
-1.79593e-05
0.000237945
-0.000257069
1.91241e-05
-0.000222494
0.000247459
0.000294518
1.81055e-05
-0.00016578
-1.45221e-05
0.000298269
-0.000283752
-0.000143406
-0.000266415
0.000159993
0.000106423
-0.000309049
0.000295401
1.36723e-05
-0.000258699
0.000241826
1.68729e-05
-0.000153305
0.000156293
-0.000306378
0.00028843
1.77926e-05
-0.000216683
0.000178299
-9.69084e-06
0.000253101
2.04503e-05
1.74672e-05
-0.00030412
0.000286686
-0.000300791
-7.16764e-06
0.000307879
-0.000249229
0.000220109
-0.000201153
-8.52603e-05
-0.00027276
0.000249165
0.000303695
-0.00028614
-0.000191131
1.77434e-05
1.50121e-05
0.000284285
-0.000299289
-8.80603e-05
0.000239233
-0.000303488
1.93898e-05
0.000284003
-0.000210317
-2.95586e-06
-0.000297807
-0.000165394
2.05297e-05
0.00030286
-0.000288514
-1.45898e-05
-0.000168239
-0.000299202
-0.000174063
-2.25665e-05
0.000243528
0.000289661
1.72441e-05
0.000252869
5.74817e-05
-0.000284381
-0.000247213
-0.000271003
-2.32758e-05
-0.000274699
0.000300276
-0.000262865
0.000281968
-0.000167658
-4.12671e-05
0.000207379
0.000197569
1.56521e-05
-0.000213221
-1.25528e-05
-0.000285726
0.000298187
1.83597e-05
1.85438e-05
-0.000305251
0.000286629
0.000253345
-1.71361e-05
-0.000236209
1.89609e-05
-0.000304893
0.000286023
2.03561e-05
0.000232989
0.000216385
-2.46121e-05
-0.000191773
1.58215e-05
0.00028254
-0.000298359
-0.000251138
0.000118687
-0.00030369
1.86009e-05
0.000285187
0.000223188
-5.09527e-05
-0.000295836
1.57126e-05
0.000279972
0.000255837
-2.19801e-05
-0.000233857
-0.000303382
0.000106134
0.000234529
1.70521e-05
-0.000251581
0.000279714
1.69765e-05
0.000304275
-0.00028522
1.77872e-05
-0.000299591
0.000233512
1.84916e-05
-0.000252004
-1.88922e-05
-1.42597e-05
0.000298286
-0.000284199
-0.000280356
0.000299952
-0.00027794
0.000289746
-0.000302774
1.24895e-05
0.000249741
-1.62291e-05
1.15713e-05
0.000250041
-1.55121e-05
0.000298679
-0.000282916
3.95922e-05
-0.000238086
2.21481e-05