/*--------------------------------*- C++ -*----------------------------------*\
  =========                 |
  \\      /  F ield         | OpenFOAM: The Open Source CFD Toolbox
   \\    /   O peration     | Website:  https://openfoam.org
    \\  /    A nd           | Version:  12
     \\/     M anipulation  |
\*---------------------------------------------------------------------------*/
FoamFile
{
    format      ascii;
    class       volScalarField;
    location    "4.4";
    object      T;
}
// * * * * * * * * * * * * * * * * * * * * * * * * * * * * * * * * * * * * * //

dimensions      [0 0 0 1 0 0 0];

internalField   nonuniform List<scalar> 
46253
(
0.959255
1
1
1
1
1
0.938805
1.02133
1
1
0.960167
0.94329
1
1
1
1
1
1
1
1
1
1
1
0.94993
0.933458
1
1
1
1
1.02148
1.03888
0.999598
0.996706
1
1
1
1
1
1.01968
1
0.922013
0.943454
0.999996
0.999973
0.926517
1
1
1
1.15334
1.14212
1.1259
1.12598
1
1.02263
1.00001
0.965469
1.11823
1.11683
1.07318
0.931155
1
0.922058
1
1
1
1
1
1
0.966637
0.926684
0.939479
1.11323
1.11308
1.01564
1
0.94976
1.09682
1.09638
1
1.0475
1.08771
1.10701
1
1.10671
0.940513
1
1.08198
1.08154
1.02249
1
1
0.923163
1
1.12376
1
1.12248
1
1
1.07225
1
1
1
1
1.03802
0.999996
0.9322
0.944416
1.06916
1.06886
0.951082
1.01973
1.11042
1.10957
1
1
1.02266
0.930487
0.940938
1.12117
0.96912
1
1
1.10429
1.10352
1
1.12253
1
0.959247
0.996646
1.09294
1.06052
1.06023
1
0.938787
1.09246
1
1.08877
1.08779
0.968268
1
1.0985
1.05581
1.05552
1.03517
1.09918
1.00031
1.08394
1.08339
1.0195
1
0.950621
1
1.0909
1.09041
1.02409
0.928004
0.958859
1
1.07793
1
1.0774
0.944399
0.964962
1
0.933533
1.086
0.938818
1.08557
1.16704
1
1.0743
1.07375
1
0.92874
1
0.92356
1.01729
1
1.01532
0.930888
1
1.02308
1.07093
1.07039
1
1.07995
1.07919
0.925541
1
1
1
1
0.934615
1
1
1
1.01961
1
1.02941
1.02908
1
1
1.07594
1.07558
1
0.929033
1.02183
1.06574
1.06514
1
1
1.12173
0.92235
1
1.01852
1
1.03432
0.936215
1.06228
1
1
1.06169
0.921842
1.0723
1.07206
0.930678
1
1
1.02162
1.02139
1.05764
1
1
1
1
1
1
1
1.05672
1.06272
1
1
1
1
1
1
1
1.02107
1
1.05744
1.05688
1.06153
1.01413
1
1.0137
1.06739
1.06688
0.972404
0.931175
1
0.938582
0.918901
0.949279
1.03606
1.01168
1
1
1
1.06375
1.05256
1.06347
1
1
1
1.05194
1
1.00014
1
1.02323
0.97909
1.00744
1.0073
1
1
1
0.936413
0.919517
0.970113
1.03109
1
1.07036
1.06949
0.939502
1
1.06784
1.04844
1
1.04796
0.922704
1.04942
1.11798
1.04893
0.96025
1.11656
1
1.05894
1.05853
1
1.0369
1
1
1.01584
1
1.04632
1
1.04571
0.967466
1.06701
1
1.02371
0.958758
1
0.937874
0.934626
1.02037
1.03018
1
1
1.04315
1.04265
0.994018
0.9941
1
1
1
0.925764
0.97176
1.05413
1.05367
1
1
1
1
1.12482
1
1.0403
1.03975
1
0.967977
1
1.02026
1
0.92953
1
0.945636
1
1.05065
1
1.05043
1
0.946456
1
1
1
1
1
1
1
1.03722
1
1
1
1
1.03663
1
1.06537
0.968455
1
1
1
0.928215
0.97608
0.959025
1.0477
1.02284
1.04738
1
1
1.03412
1.12901
1
1.03209
1.03364
0.920225
1
1.02132
1.01749
1.0191
1
1.0349
1
0.97906
0.979336
1.06431
1
0.99986
1
1
1
1
1
1
1.10799
1
1.03389
1
0.932246
1
1
0.972933
1
1
1.03124
1
1.04436
1
1
1.03062
1.04408
1
1.01619
1
1
1
1
1.02277
1.02246
1
1
1.0224
0.959284
1
0.923858
1
1.02485
1.02513
1
1
0.970657
1
0.979409
1.03667
1
0.92943
1
1.09345
1.02116
0.999246
1.04144
1.02633
1
1.02592
1.02646
1.04118
1
1.02571
1
1
1
1
1
1.01576
1
1.02126
0.959834
1.02605
0.975823
1.02016
1.02546
1.01348
0.967404
0.966871
1
1
1
1
0.996701
1
0.980953
0.931075
0.936722
0.981327
1.02536
0.941277
1.02459
1
1
1.03844
1.03271
0.949405
1.03818
1.02321
1.02261
0.964726
0.929799
1
0.963787
1.03685
1
1
1
0.92092
1
1.02334
0.928645
1
1
1.02787
1
1
0.963235
0.944045
1.03526
1
1
1.03551
1
1.03499
1.03687
1.0352
1
1.01985
1.01941
1
1.02566
1.03267
1
1
1.03537
1
0.941686
0.974799
1
1
1.03517
1
1
1
1
0.933772
1
1
1.01845
0.976421
1.01794
0.937768
1
1
1
1
1
1
1
1.02503
0.937838
1
1
1
1
1
1
0.938947
1.03312
1
1.02908
1
1
0.960059
1
1
1
1.03233
1
1
1.03208
1.02799
1.04308
1
1.04401
1.04432
1.04551
1.02629
1
1.01592
1.01528
1.03297
1.02647
1
1
1.01611
1
1.11593
1.01581
1
1.11651
1.01339
1
1.03632
1.03823
1
1
1.02419
1.02783
1
1
1.01569
1
0.999999
1.02977
1.01585
1.07312
1.07364
1.07126
1.07167
0.925878
1.02395
1.06908
0.9228
1.06946
1.06666
1
0.938927
0.950552
1.06702
1
1.06351
1
1.06405
1
1.0268
1.06124
1
1.06154
1.09406
1
1.05879
1
1.0592
1
0.9346
1
0.977279
0.950037
1
1
1.05611
1.05653
1
1.03353
1.05309
1.05367
1.01441
1
1
1.04887
1.01059
1.0492
1
1.02783
1.04654
0.960647
1.04694
1.01015
1.02739
1
1
1
1.04403
1.04441
1.02516
1
1
1.04145
0.982712
1.0419
0.959013
1
1.03711
1.03748
1
1
1
0.925674
1
1.03273
1.04058
1.03984
1
1.03295
1
1.03326
1
1
1.03345
1.03349
1.03019
1.03061
1.02341
1.03543
1.0278
1.03659
1.02824
1
1.01851
1.02385
1.02415
1
0.971172
1.02131
1.02178
1.15686
1
1
1
1.01917
1.02215
1.01933
0.952075
1.02792
1.02548
0.950266
1.01957
1.01617
1.04072
1.04538
1.04489
0.968155
0.967029
1
1.02036
1.12002
1.00877
1
0.954436
1.00836
0.961666
1.02709
0.94291
1
1
1
1.02417
1
1
1
1
1
1.02408
1
1
1
0.973735
0.96991
1
1.0166
0.925627
0.956912
1
1
1
1
1
0.938372
1
1.02442
1
1.04127
1.00053
1.04241
0.963422
1
0.924239
0.921304
1.0451
1
1
1
1
1
1.04361
1.04218
0.977771
0.942799
0.942096
1
0.977941
1
1
1.04345
1.04022
0.999371
1.02004
1.0263
1.00002
1.01851
1.02026
1
1.04447
0.960644
1.02406
1
1.02435
1.0036
1
0.999999
1.02623
1.02774
1
1.003
0.941389
1
1
1.05165
1.05209
1.02368
1
0.941585
0.94207
0.92253
1.01238
1
1.03315
1.02185
0.961376
1.09217
1
1
1
1.04001
1.04035
1
1.00316
1
1.02027
1.03591
1
1.01257
1.0362
1.01963
1.02463
1.0239
1
1.0234
1.03512
0.953992
1.02326
0.95787
1.02643
1
1
1.02664
1
1
1.02669
1.02428
1
1.00158
0.970983
1.03334
0.970107
0.971891
1.00139
0.966356
0.965465
0.95743
0.956781
1
1
1.02647
1
1
1.02733
0.97499
0.969448
1
1
1.03627
1
1.0337
1.03614
1.05536
1.09119
1.02981
1.00252
1
0.999963
1
1.02527
1.0352
1.02638
0.94327
1
1.01684
1
1.03517
1.03478
1.01685
1
1.03137
1.02867
1.03125
1
1
1
1
1.02919
1.03429
1
1.01324
1
0.965589
1
0.966138
0.955884
0.938452
1
0.998841
0.99766
0.94091
1.10606
1
0.968919
1.01929
1.01938
0.969167
1
1
1.02465
0.973971
1
1
1.03416
0.931351
1.02489
1.02595
1
1
1
1
1
1
1.1296
1
0.957201
0.967068
0.962659
1.02564
0.944096
0.934402
0.946385
0.973238
1.0295
0.955913
0.941477
1.06013
1.06229
1.06502
1.05756
1.06046
1
1.01535
1.06268
1.06776
1.05791
1.0241
1.06572
1.04831
1.0547
1.06823
1
1.07
1.05515
1.07028
1
1.05022
1.07105
1.07203
1.07254
1.05069
1.07896
1.07516
1.0479
1.08125
1
0.999224
1.04809
1
1.04537
0.999996
1
1
0.994504
1.04564
1
1
1
1.04287
1.04579
1
1
1
1.04306
0.994451
0.948124
1.03864
1
0.99629
1.03903
1.03428
1.03485
0.967185
1.03171
1.03207
1.02917
1
0.949464
1.02933
1
1.02531
0.938087
1
1
1.02555
0.978611
0.946835
1.0228
1.02295
1.0201
1.01236
1.02022
0.939633
1.01693
1
1.03935
1.01175
1.01786
1.01519
1.0107
1.02431
1.04516
1.03633
1.03688
0.939527
1.02573
1.04196
1.04422
0.957493
0.949846
0.942334
1
0.950636
1
0.949277
0.950918
0.947888
1
1.12052
1.0279
1
0.995986
0.991421
1.03227
1.03448
1
1.0241
1.04454
1.04692
1.02683
1.02511
1.04334
1.04517
1.04386
1.04287
1.01553
0.967888
1.03527
1.02619
1
0.996577
0.972647
0.960874
1.01205
1
1.05798
1.04323
0.942569
1
0.99215
0.92118
1.00146
0.990852
1
1.08038
1
0.986141
1.01171
1.02531
1.04247
1.01528
1.01673
0.963023
1.00926
1.00236
1.00925
1.03863
0.928404
0.944541
0.968676
0.955068
0.997192
1.04613
1.03993
1
1.04602
1.0666
0.987214
1.00646
1
1
1
1.03135
1.02747
1
1
0.94569
1.00723
0.957159
1
0.935131
1
1.0301
0.988887
1
1
0.944073
0.95949
1.07412
0.961143
1.03597
1.03624
1.00002
1.04756
1.03344
1
0.989277
1
1.01137
0.98748
0.995478
0.973653
1
1
0.995988
0.991273
1.03579
1.02748
1.03133
1.03169
1
0.987129
1.03547
1.02382
1.02358
0.956758
1.01231
1
0.990413
0.978435
1.03253
0.952778
1.03339
1.04342
1
1
1
0.974345
1.03035
1
1.02279
1.03054
1.02814
1.02731
0.968364
1.02256
0.943378
0.939521
1.05607
1
1
0.992621
1.06095
1
1
1
1.02713
1
1.02752
0.931354
1.01289
0.992817
1
1
0.992835
1
1.07871
1.02541
1.07697
1.07949
1
1.02315
1.07772
1.02702
0.992852
1.05534
1
0.929531
1.07256
1.06523
0.993412
1
1.05313
1.07352
1.06809
0.999966
1.03328
0.94181
1.00003
1
0.969285
1.06883
1
1.05962
1.03965
1
1
0.930002
1.06362
0.986087
1.0299
1.06931
1.00592
0.955745
1.06872
1.06409
1.06424
1.02802
0.985893
1
1.03884
1.0052
1.03944
1.04281
1
1.05841
1
1
1
1.05876
1
1
0.98233
1.0112
1
0.98344
1.05916
1.03576
1.02766
1
1.01329
1
1.03435
1
1
1
1
1
1.01167
1
1
1
1
1
1
0.919821
0.971145
1
1.00894
1
1
1
1.01972
0.980672
0.954447
1
0.952812
1.03986
1
1
1
1.03669
1.00008
1.0449
1.00003
1.06758
0.966249
0.963439
1
1.06484
1
1
1.06661
1
1.07288
1.07193
1.03293
1.06695
1
1
1.0593
1.05988
0.968056
1.05778
1
1.05779
1.04106
1
1.05587
1
0.984512
0.983729
0.970621
1.05473
0.966818
0.983314
1
1.05634
0.985605
0.986641
1.04194
1.0436
0.953084
1.0438
1.04158
1.01332
1.04292
1.04323
0.981765
1.05223
1.05347
1.01939
1.08094
1.04253
1.09126
1.0536
1.04331
0.981145
1.04416
1
0.99065
1.04398
1.07017
1.07806
0.967889
1.03424
1.04382
1.09071
1.00212
1.09219
0.967374
1.09388
0.980177
1
1.04463
0.95954
1.00201
1.0299
1.09096
1.04465
1.02974
1
1.02907
1.06338
1
1
0.944444
1
1
1.03015
0.978369
1
1.0855
1.08184
1.08626
1
0.964322
1.03806
1.04354
1.04328
0.949164
1.08234
1.02953
1.04441
1.05595
0.983902
1.06007
1.07818
1.05094
1.07881
1.07346
1
0.981047
1
1.01207
1
0.946368
1.01717
1.07394
1.04516
1.03068
1.04575
1.03294
1.06325
1.04134
1.02387
0.972638
1.05714
1
1.068
1.06861
1
1.05138
1
1
1
1
1
0.979708
1
0.979156
0.946192
0.964211
1.06187
0.945364
0.963511
1.06394
0.957675
1
0.944751
0.979234
0.985981
1
1.02004
1.04122
1
1
1.07154
0.946043
0.97485
0.973084
1.03887
1
1
0.936235
1.00775
1.02608
1.05455
0.937239
1
1
1
1.0808
1
1.06011
1.06064
1.02686
0.945806
1.0536
1.05703
1
1.01916
1.05773
1.07796
1.04564
1
1.07013
1
1
1.04369
1.05414
1.03136
1.06604
0.946628
1.06962
1.07245
1.05352
1
1
1.03992
1.00277
0.997661
1.00034
1
0.954988
0.998791
1
1.04565
0.945904
1
1.04865
0.929519
1.04937
1
1
1.00033
1.05724
0.946284
0.965555
0.932963
0.986694
0.98114
0.983658
0.947367
1.03429
0.998227
0.991547
1
1.04626
0.947576
0.946804
0.98571
1.05099
1.04911
0.979212
1
1
0.991477
0.990162
0.937654
1
1.03794
0.948699
1.0409
1.03914
1.04173
0.984262
1.03854
1.05507
0.962753
1.05537
0.940043
0.982314
1.03825
0.983939
1.0195
0.942249
0.979078
1.04177
1
0.982733
1.03177
0.958872
1.07406
0.97037
1.03051
1.04441
1.07397
0.947156
1.03312
0.990341
1
1.04371
1.03382
1.05559
1.06247
1
0.992982
1
1.02489
0.980239
1.04035
0.951588
0.947993
1
0.947372
0.962955
1.031
1
0.947091
1.02891
1.03803
1.08882
1.03032
0.946861
0.975558
0.986298
1.04039
1.08951
0.951615
1.02297
1.02567
1
1.02622
1
1.02543
1.07088
1.02344
0.961187
1.06469
1.03478
1
0.94846
1.07657
1.04181
1
0.94505
1.07716
1.05052
1.13116
1.03119
1
1.01565
1.07546
1.01794
1
1.07181
1.01882
1
1.04981
1.07252
1.02828
1.08543
1.06665
1.01592
0.982941
1
1
1.06725
0.954438
1
0.95948
1.02854
1.05054
1.05181
0.960818
1.03104
0.982794
1
0.963806
1.08392
1
1
1.05586
1.08297
0.960542
0.974626
1.01001
0.946515
0.94458
1.03993
0.982057
1.01061
1.00876
1.04074
1.0648
1.04045
1.00904
1.0356
0.97395
1.03382
1.03294
1.02599
1.02424
0.95905
1
1.04028
1.08475
1.00388
1.05897
1.08403
0.964058
1
1.00481
0.996121
1.02621
0.971215
1
1
1.0421
1.0419
0.986239
1.03125
1
1
1.03195
1.03874
0.995667
1
1
0.947513
1.00013
1.00098
1.07212
1.02702
0.965259
1.0125
0.996911
1
0.964978
0.995208
0.978131
0.961811
1.04001
1.04251
1.1029
1.05228
1.02703
1.05499
0.99097
1.05468
1.05276
0.940246
1.01989
1.02652
1
1.01676
1
1
0.990355
0.986368
0.994848
0.987312
1.07211
1.04167
1
1
0.993224
1.044
0.969944
0.980358
0.989581
0.969006
1.03279
1.03956
1.04462
0.971322
0.956434
0.989792
1.08516
0.963658
1
1.01021
1.03984
0.970513
1.08559
0.992478
1.02585
1
1
1.02491
1.00198
1.07532
1
1.00001
1.00088
1
1.03671
0.978939
0.972961
0.972958
0.990636
1.03726
0.976092
1
0.972305
0.974276
1
0.957468
1.02025
0.976563
1.02461
1.02632
1
1
1.03885
0.98294
1.03281
0.974277
0.97464
1.08386
0.973251
1.04948
1
1.02915
1
1
1.0339
1.02439
1.03126
1.02964
1
0.982252
1.03245
0.978927
1.057
0.976522
1.06327
0.98487
1.05961
1
1
0.968788
0.980812
1.0396
0.977438
0.999999
1
1.00556
0.975512
0.963528
0.977361
1.0215
1.03499
0.99312
1
1.0592
1
1.02208
1
1.0583
1.03508
0.937817
1
1.02031
1
1
1
1
1
1
1.06011
1.05735
1
1.05867
1.05419
1
1.03228
1.07523
1
1.01098
1.03471
1.0916
1
1
0.97224
0.962611
0.981176
1.03832
1.05454
1.05361
1.00954
1.03295
1.04839
1
1
1
1
1.04041
1.01427
1.09569
1.03839
1.0416
0.979664
1.01486
0.972773
0.983567
1.00524
1.08338
0.94474
1.09126
1.02614
1.09376
1.0273
1
1.02691
0.9438
1.04083
1
1
1.03902
0.943491
0.985253
1.00648
0.940527
1.08736
1
0.97329
1
1.01653
0.936515
0.940635
1.04306
0.968562
0.983726
1.02444
1.08422
1.03269
1.08783
1.01831
1
1.04166
1.03363
0.970273
1.07488
1.07156
1.01493
1
1
1.03418
1.08003
1.0452
1.06493
1.0843
1.04009
0.956377
1.04589
1
1.04442
1.04347
1
1.08077
0.99734
0.955799
1.07551
1.0332
1.04193
1.0198
1.06969
1.01893
0.989552
1
0.995487
0.995326
1.07063
1.01957
1
0.99557
1.02356
1.03468
1.04197
1.06567
1.03603
0.990959
1
1.03782
1
0.989708
0.945084
1
1
1.0831
0.933817
1.05428
0.945555
1
1
1.05512
1.04039
1.0417
0.945061
1
1.04809
1
0.987225
1.07719
1.01991
1.03421
0.942211
1.00412
1
1.05871
1.02853
1.03307
0.998917
0.984944
1.03656
1.02273
1.0029
1
1.06157
1.00847
1.07526
1
1.05925
1.05588
1
1.04388
0.97994
1.00743
0.933896
1.06225
1.00277
1.01312
1.03831
1.04722
0.998962
1.05055
1.01202
0.934421
1.11207
0.934586
1
1
0.999518
1.00494
0.934773
1.05127
1.01777
1.04772
1.03922
1.06295
0.999321
1.08565
1.04908
1.03904
0.980595
1.06485
1.02823
0.999259
1.03301
1.01814
1.02402
1.04265
1.07939
1.02752
1.03667
1.04046
1.0431
1.03973
1.04081
1.05884
1.04738
0.993067
1.022
1.05759
1.03183
1.04853
1
1
1.04143
1
1
1.00521
0.966834
1.03228
1.03495
1.05337
1.06827
1.07514
1
1.01428
1.0752
0.982078
1.0484
0.984659
1.03574
0.944729
0.959021
1.0323
0.967523
1.108
0.962698
0.986246
1.04285
0.982262
1.02427
1.1094
1.03737
1.08191
1.00877
1.02729
1
1
1.02477
1
1.02956
1
1.03618
1.02816
1.02483
1.02853
1.02383
1.10193
0.983183
1
1.05699
1.03446
1.04569
1.03677
1.10313
1.05949
1.03841
1.01662
1
1.03172
1.01993
1.00918
1.01858
1.0395
0.970504
0.956764
1.09779
1.04207
1.04133
1.03883
1.02064
1.04228
0.992226
1.01706
1.00656
1
1.09861
1.04298
0.993506
0.989818
1.01756
1.00865
1.01349
0.968959
0.98159
1.02701
1.02049
0.986605
1
1.04093
1.03049
0.991185
1.035
0.995255
1.09311
1
1.01157
1.00933
1
1
1
1
1.09402
1.06036
1.00639
1.061
0.98826
1
1.01293
0.993597
1.03795
1.03473
1.00939
1.02603
1.0256
1.0337
0.985644
1
1
1.0007
1.04765
1
1
0.989998
1.04186
1.00773
1.08857
1.01912
1.03855
1
1.03558
1.03624
1.0354
1.04336
1.0463
1.0192
1
1.00302
0.981529
1
1.08944
1.00006
1.04432
1.04042
1.04508
1.00323
0.979786
0.967889
1.06589
0.941883
1.04944
1.04688
1
1.03513
1.03831
1.04826
1.02586
1
0.999999
1.03512
0.999015
0.982078
0.941481
1.04281
1
1.08288
1.04662
1.05351
0.983446
0.997796
1.05167
1.05247
1.01914
0.943877
1.08373
1.05051
0.981824
0.99545
0.988474
0.981491
1.06847
0.993623
0.943138
0.988813
1
1.00441
1.03433
1.01382
1.00702
0.982724
1.05623
1.08544
0.981949
1.01481
1.03333
1.01501
0.970433
1.02793
0.985783
1.05511
0.983248
0.97753
1.00689
0.976888
1.03316
1.03479
1.038
1.03418
1.05449
0.978387
1.03305
0.975803
0.964176
0.988804
1.03317
0.989384
1.07045
1
1.01574
1
0.985698
1.07116
1
1
0.982535
1.05945
1
0.98906
1.03196
1.0856
1.02557
1.00001
0.942096
1
0.978522
0.989951
1.06536
0.987476
1.01399
1.06616
1.01435
1.04143
1.04264
1
0.926624
1
1.06225
1.03196
1.06102
1.01006
0.971468
1.0558
1.06291
1.05598
1
0.970763
0.939206
1.05863
1.08612
1.06044
1.03478
1.00799
1.05938
1.01234
1.03475
1.06596
0.977281
1
0.990603
1.08409
0.977705
0.942512
0.999695
1.05561
0.958973
0.976752
0.951998
0.994597
1.05636
1.03628
1.03041
1
1.00952
1.00991
1.10638
1.05994
1
1.05263
1.0397
1.04209
1.05902
1
1.10627
1.05315
1.04412
0.99186
1.06196
1
1
1.06083
1.04912
1.06395
0.942686
1.06297
1.04998
1
1.01103
1.02084
1.01367
1.04634
0.990572
0.949283
0.94934
1.06843
1.047
1.05824
1.0386
1
1
1
0.991291
1.04292
1
1.00135
0.938628
1.06467
1.02988
1.04135
1.03481
0.985966
1.0435
1.04038
1.00083
1.04716
0.963235
1.00614
1.03802
1
0.935224
1.04056
0.98539
0.934108
1.04222
1.04104
1.06563
1.00484
1.06942
1.06839
1
0.985148
0.947885
1.03993
1
1
1.00952
1
1.06757
0.958293
1.04056
1.04189
1
1.04583
1.04413
1.00801
1.08667
1.01215
0.935097
1.03667
1.04244
0.988644
1.06653
1
0.990308
0.99026
1.01172
1.0874
1.0374
1
0.982
0.967066
1.04053
1.07049
1.03194
1.0386
1.07168
1.04089
1
1.01598
1.0165
1.03765
1.13292
1.05924
1.08529
1.03345
1.03519
1.02685
1.05687
1
1
1.03947
1.0159
1.03398
1.04487
0.986074
1.02007
1.0359
1.07996
0.987399
1
0.94208
1
0.940571
1.01868
1.03069
1.03142
0.997616
1
1
1.07284
1.07719
1
1
1.02397
0.99701
1.03437
1.07519
1.02253
1.01882
1.02602
1.027
1.04137
0.989868
1
1.01961
1.02662
0.989583
0.990524
0.957316
1.02653
1.04116
1
1.03957
1
1
1.085
0.990103
1.00405
1.06902
1.02316
1.08487
0.990523
1
1
1.02397
1.08639
1.049
0.942449
1.03171
1
1.06957
1.02203
1.03078
1
1
1
1
1.0343
1
0.988989
1.01879
1.04455
1.03302
1.01935
1.00003
1.03352
1
1
1
1.03725
1.01587
1.01698
1
1.03548
1.03636
0.965592
1
1
0.960738
0.988446
1
0.974415
1.04048
1
1
1
1
1
1.01214
1
0.994705
1.04013
1
1.05084
1.03925
1
1.01266
0.942532
1
0.970985
1.03905
1
1
1.05036
1.05495
1
1.00002
1
0.961353
0.960751
0.993983
1.04558
0.944147
1.05248
1
1
0.996337
1.04985
1.03723
0.961142
1.04479
1
0.998658
1
1.05344
1.05764
0.997306
1
0.960442
0.999999
1
0.96586
0.956565
1.04904
1.00303
1
1.05257
1
0.990389
0.974392
1.04993
0.940903
1.02164
0.945159
1
0.956972
0.981327
1.04948
0.990286
1.11104
1.03424
1.04885
1.00225
1.00587
0.965878
1.05795
1.03133
1.00077
1
1
0.967122
0.960818
1.03343
0.94699
1.05445
1.10492
1.09972
1
1.05346
1.086
0.978833
1.05733
1.09974
1.04237
1.00532
0.981801
0.997254
1.05612
1.10522
1.03851
1.05651
1.00454
1.0313
1.02976
0.96195
1.01237
1.09532
0.977889
0.964216
1
1.0286
1
1
0.959387
1.06297
1.1005
1.01169
1
1
1.012
1.03159
1
1.09078
1
1.06195
1.02951
1
0.943608
1
1.06198
1
1.03582
0.957429
1
1.09637
0.922682
1.06111
1
0.962325
1
0.955825
1.00898
1.00031
1.06586
1.00816
0.950981
1.06548
1.02154
0.972573
1.0628
1.0848
1.09175
1.01277
1.06471
1.0647
0.955772
1.02229
1.04194
0.974657
1
1.0515
1
1.08406
0.991409
1.069
1.06886
0.950257
0.997225
1.00727
1
1.01753
1.0383
0.992364
1.00294
0.98659
1.08552
1.01347
1.00482
1
1.01411
1.06786
1
1
1
1.0683
1.00548
1.03192
1.01474
1.02311
1
1.0717
1.08177
1.05375
1.07224
1.0106
1
1.08487
0.955191
1.0707
1.07222
1.01137
1.05281
1.0002
1
0.982484
1.07107
0.988427
1.07886
1.06726
0.990816
0.991589
0.990641
1.10088
1.07313
0.991934
0.95737
1
1.0507
1.07474
1.03642
1
1.0761
1
1.06206
1.03581
0.981639
1.06652
1.06381
1.02875
0.98693
1.0493
1.05827
1.05692
1
1.0279
0.98525
0.970656
1.02788
1.0751
1
1.06805
1.07388
1.06045
0.985437
0.988422
1
1.07107
1.05723
1.09264
1
1.05434
0.973308
1.05186
1.06286
0.986051
1.0644
1.05723
1.01713
1.05765
1.06731
1.03564
1.07688
1.04877
1
1.03405
1.06091
1.06125
1.05394
1.05173
0.960314
1.07609
1.08073
1.07183
1.03605
1.01845
1.0827
1
1.07608
1.05778
1.06022
1.05104
1
1.07971
0.991113
1
1.09438
1.05465
1.04773
1.06325
1
1.07645
0.994326
1
1.05181
1.08248
1.04446
1
1
1.06231
1.04825
1
1.08165
1
1.04139
1.08111
0.997235
1
1.04539
1
1.03828
0.958878
1.00009
1.0218
1.08523
1.04209
1.0348
1
1
1
1.03645
1.08536
0.991408
1.03902
1.03606
1.0322
1.04559
0.957606
1.0049
1.05343
1.00003
1
1.03308
1.03381
1.00506
1
1.03894
1.05414
1
1.03567
1.01347
0.970011
1.01387
1.04856
1.04281
1.02726
1.04498
1.0387
0.990457
1.03277
1.02931
1.02816
0.9659
1.04047
1.03646
1
1.09318
1.04881
0.991024
1.0248
1.07075
0.934123
1.04094
0.990596
0.98262
1
1.0278
1.048
1.05183
1.03558
1.04818
1
0.934181
1.02009
1.029
1.05025
1.02534
1
1
1.04727
1.01783
1.05067
1
0.946785
1
1
0.935511
1.04968
1
1.02075
1.06397
1.03329
1
0.987143
1.03092
1.05041
1.0131
1
1.01821
0.928386
0.989863
1.02864
1.06118
1.04808
1.03999
1
1.05213
1.05777
0.942288
1
1
1.00826
0.942181
1.01345
1.06259
1.03938
1.0498
1.05153
1
1.04227
1.05666
1
0.935232
1.00923
1.00548
0.976172
0.926648
1
0.988223
1
1.0527
1.04245
1
1
1.03211
1.02741
1.03391
1.05255
0.942065
1
1
0.97995
0.935958
1.0432
1.02423
1.08046
0.959708
1.05205
0.941863
1.05563
1
1.0427
1
1.05498
1
1
0.935172
1
1.05462
1.00681
1
0.943612
1.04554
1.03181
0.958679
1.08474
1.04275
1
1.03475
1.04936
1
1.0541
1
1.04335
1.05155
1.0449
0.985599
1.04106
1
1.03687
1.03646
1.11146
1.06109
0.945151
1
0.983933
0.94507
1.05869
0.984289
1
1
0.991856
1.04037
1
0.946807
1.04379
1.04776
1.04046
1.0566
0.941973
1.058
1.00175
1.01005
1.01938
0.999871
1.00003
0.986531
1.04698
1.01941
0.980647
0.989139
1.04846
1
1.05604
1.00918
1
1
0.974841
1
1.06072
1.04636
1.03421
1
1.05014
1.06023
1.0265
0.980692
0.956149
1
1.0586
1.04961
1.08329
0.934727
1.04938
1.02681
1.02978
0.980146
1.02807
0.955137
0.941537
0.941525
0.986616
0.943305
1.05811
1.05449
1
1.03527
1
0.964931
0.993787
1.07222
1.06897
1
1.06218
0.944518
0.989594
0.937271
1.05242
1.03527
0.943278
1
1.03655
0.992713
1.0629
1.04199
1.05131
1.0648
1
1
1
1.03373
1.02651
1.05156
0.964539
1.07043
0.958387
1.06202
1.0057
1.06977
1.02709
1.07312
1.05051
1.0367
0.98807
1
1
0.940244
1
1.05554
1.00646
0.96864
1.02425
1.01435
0.999712
1.02982
1
1.03443
1
1
1.03665
1.05521
1.01638
1.06395
0.980334
1.05454
1.0384
1.09137
0.980241
0.968081
0.919799
1
0.989913
1.05442
1.01381
1.01397
1.03013
1.01385
0.984809
1.01409
1
1.03103
1.02995
0.971419
1.00003
1.03025
0.979424
1.00284
0.989576
1
0.948949
0.996781
1.02219
1.00033
0.990887
1
1
1.01501
1
1
1.02934
1.04432
0.988971
0.980666
0.970562
1.02967
1.02255
1.05762
1
1
0.96002
0.979213
1.01487
1.00645
1.03284
1
1.0268
0.942092
1.01344
0.987887
0.977181
0.93814
1
1.04296
1.02994
1.02655
1.05694
0.999506
1
1
1.08531
1.0238
1.0582
1.02457
1.03349
1.06596
1.00654
0.997838
1
1.02125
1.01753
1.05739
1
1.0126
0.984641
0.957423
1
0.998317
1.03388
0.943421
0.984507
0.960327
1.03218
1.05375
1
1.04349
1.02436
1.06863
1.03437
1.0096
0.942259
0.940019
1.02067
1.06533
1.03386
0.9758
1.02801
1
1.03689
1
0.956747
1
1.06341
1.03377
0.941788
1
1.00972
1.05977
0.982601
1
1.05293
0.984085
1
0.984129
0.975073
1.02719
0.983453
1.0353
1.05199
0.956841
1.05917
1.02335
1.02745
0.956912
0.981569
1
1.03439
0.993578
0.996365
0.988063
0.989906
1
0.942453
1.0375
1.0038
0.999033
1.02162
0.978787
1
1.03474
1.0347
1.03749
1.03066
0.980692
0.983148
0.980826
1.04774
1.03005
1.02832
0.987671
1.0415
1.03464
1.00009
0.967112
1
0.97862
1.04385
1
1.02466
1
0.975622
1.00388
1
1.03694
1.03098
1
1.04497
1
0.995094
1.04044
1.0407
1.04023
1
0.940918
1
1.04639
1.098
1.01807
1
1.02543
1.05824
1.03058
1.03829
1.00431
0.961632
0.992209
1.00424
1
1.07509
0.981915
1
0.978669
1.04094
0.961417
1.01847
1.06868
0.939021
1.06277
0.979377
1
1.03907
1.05977
1.04598
1.02761
0.999179
1
1.05143
0.999984
0.981751
1
1.06214
1.03119
0.976258
1.00006
1.03337
1.04032
1.05897
1
1.05242
1.09627
1.06005
1.02059
0.987181
1.05069
0.985378
1.0272
1.07077
1
1
0.985151
1.00422
1.04864
1.039
1.05742
0.98556
0.978233
1.05308
0.961247
1
0.97566
0.998417
1.06031
1
0.984885
0.987865
0.947037
1.02807
1.05931
1
1
0.990318
0.943069
1.04947
0.933304
1.0433
1.03686
1.05008
0.937388
1.0779
1.0406
1.06152
1.07066
0.934211
1.00916
1
0.974895
1.09088
1.05818
1
0.975894
1.00312
0.951388
1.05173
1.0388
1.04317
1.02031
1.04137
0.962393
1.02533
1.06676
0.994638
1.07043
1.06774
1.04136
1.07345
1.06416
1.07632
1
0.980022
1.06126
1.05589
1
0.982099
1.02814
1.02328
1.06562
1.02091
1.04542
0.939199
1.02829
1.021
1
1.02873
1.07911
1
1.04671
1.02219
0.981454
0.991329
1.02469
1
0.991665
0.977679
1.03217
1.02806
1.00752
1.03713
1.04925
1.02527
1.02453
1
1.07615
0.978169
1.0516
1.03358
1.00667
1.03263
1.0515
1.0885
1
1.02967
1.05428
1.06943
1
1.06661
1.07263
0.988839
1.06337
1
1.06005
1.07529
1.02511
1
1.05063
1.00665
1.07348
1.07782
1.05493
1.04388
0.968042
1.03612
1.05372
1
1
1.06454
1.05747
1.04662
0.978975
1.03966
0.977116
0.961364
1.01182
1.006
1.0073
0.997692
0.988797
1.0314
1.03988
1.04605
0.974313
0.9677
0.98871
1.04779
1.00538
1.01531
1.07255
1.04858
1
1.00595
1.02228
1.05374
1.07296
1.05555
0.979233
1.05386
1.00714
1.07099
1.0509
1.02947
1.07787
1
1.04645
1.01802
0.976824
0.94163
1.0061
1
0.960015
1.00049
1.0415
1.01068
0.958416
1.01923
1.06631
1.03739
1.05317
0.970686
1.08743
1.01989
0.996336
1.04017
0.944095
1
1.07693
1.05771
1.04047
1.08978
1.01625
1
1
0.969238
1.02356
1.03499
1
0.97521
0.942736
1.04101
1.03949
1.00758
0.980665
1.03844
1.05501
1.04143
1.04404
1
0.976927
1.01675
1.03768
1.07852
1
1
1.01174
1.0288
0.999925
1.06694
1.04229
1.00518
1.02049
1.06694
1
1
0.999537
0.995565
0.968653
1.03559
0.996069
0.970266
1.02177
1.05717
1
1.0394
1.04843
1
0.943972
0.996616
1.04546
1.01457
1
0.960775
0.943383
0.995608
1.0139
0.947034
1.03833
1.03507
1.01089
1.02639
1.02221
0.964231
0.996532
1.02928
1
1.03455
1.0294
1.03791
1.05892
0.963508
0.972098
0.995314
1.00266
1
1.02485
0.999999
1.04661
1.05658
0.937827
0.965354
0.964276
0.972225
1
0.996081
1
1.02272
0.960343
1.0038
0.963623
1.04537
0.964088
1.06296
1.01944
1.09612
1
1.0151
0.963872
0.972826
0.963357
1.06757
1.06549
1
1.0363
0.964383
1.07773
1
1.00588
1
1.06079
0.99539
1.02
1.0089
1
0.94457
0.988958
0.964612
1.03569
1
1
1.049
1.01551
1.031
1.03107
1.03235
1.06062
1.05548
1.0668
1.03184
1.02691
0.951923
0.971874
1.05592
1.06012
0.999268
1
0.975271
0.976976
1.00877
1.06312
0.961945
0.999999
1.01228
1
1.00752
1.00835
1.01345
0.987967
0.992216
0.945822
1.05325
1.00002
1
0.939873
1
0.963883
1.01271
1.0568
1
1.01371
1.01595
1
1
0.960782
1.03627
0.962261
1.05239
1.0338
0.950004
0.980091
1.04375
0.992451
1.01091
1.07149
1.08733
1
1.05977
1.0481
1.01243
1
1.09779
0.945423
1.05268
1.06192
1
1.01196
1.05623
1.02891
1.07276
1.06036
1
0.997266
1
1
1.03407
1.01734
0.978076
1.04931
0.999446
1.01701
0.983905
1
0.996739
1.04239
1
1
1.06378
1.05173
0.94403
1.07485
1
1.03489
0.995313
1.05166
1
1.06436
1.00639
1.05673
1.05606
0.996603
1
1.01538
0.944906
1.04205
1.01566
1
1.03882
1.06308
0.980441
1.05896
1.0301
1.05066
0.994158
0.986774
1.01058
0.98768
1.09575
1.02004
1
1
1.07465
1.09028
1.0609
1
1.01413
1.01135
1.05607
1.01066
1
1.05612
0.963339
1
1.01181
0.986312
1.03374
1
1.0423
1.06228
1
0.942858
1
1.03103
0.979935
1
1.01932
0.99126
1.03447
1.00467
1
1.03935
0.935572
1.02224
0.989504
0.970361
1.01187
1
1.02073
1.0422
1.04004
1.06998
1
0.939028
1.00001
1.02379
1.04438
1.09992
1
0.963717
1
1.03794
1
0.998114
1.03381
1.038
0.935564
1
1.04946
0.961037
0.991327
1.06747
1.04644
1.06379
1.03479
1.02252
0.982246
1
1
1.00904
1.04153
1.02707
1.05215
1
1.08421
1.04194
1.00808
0.97834
1.01283
1.06743
1
1.02733
1
0.991103
1.06697
1.06107
1.06203
1.07799
0.970682
1.04894
1.09722
1.0436
1.08532
1.06211
1.05042
1.04645
0.996996
0.990648
1.00516
0.961914
1.05074
0.990132
0.999762
1.02653
1.03888
1
1.03875
1.06111
1.04581
1.05107
1.07281
1.03138
1.0081
0.979753
1.03282
1.06069
0.988748
0.997585
0.942476
1.08064
1.06183
1.06793
0.988369
1
0.949518
1.06932
0.952606
1.03731
1.02037
1.03818
1.04827
1.05655
1.03362
0.955863
1.03119
1
1.0305
1.08138
1.03035
1.05377
1
1
1.04444
0.951058
1.05847
1.06418
1.06459
0.949946
1.03346
1.02313
1.06169
1.01028
1.04696
1.0472
1.03168
1.05043
0.955613
1.02943
1
0.984646
0.979025
0.978046
1.02173
1.06644
1.05788
0.996099
1.03642
1
0.99516
1.05652
1.01789
1.03266
1.03589
1.04786
1.00797
0.953159
0.957845
1.05985
1.02883
1.00615
1.03735
1.02268
1.05302
1.09833
1.03384
1
1.01217
1.04773
0.964847
1.05506
1.03558
1.01109
0.935074
1.00638
1.03069
0.977846
1.009
1.02212
1.04317
1.02769
1.0097
1.05603
0.935531
1.05288
1
1.09946
1
1.02876
1
1
0.999999
1
1.07433
1.03628
1.0589
1.03314
1.05781
1.00796
1.05741
1.02363
1
1
1.03153
1.03069
1.05579
1
0.989485
1.05154
1.03091
1.03968
1
0.935037
1.00005
0.958399
0.934816
1.05659
0.984887
1
1.03928
0.979562
1.05295
0.949433
1
1.05815
1.05241
0.964948
1.00739
1.03911
0.937731
1.05345
0.954305
0.99995
1.0582
0.952496
0.953501
0.979317
0.952921
1.05449
1
1.04316
0.958867
1.02266
1.06186
1
1.04263
1.04297
1.01764
1.05193
0.95049
0.959294
1
1.07425
0.951296
0.949788
1.03072
1.05008
1.0479
1.05274
1
1.05376
1
1.04853
1
1.04194
1.01751
0.938712
0.974268
1
1
1
1.04967
1.09505
1.04576
1
1
1.04528
1.01855
1
1.08914
0.957967
1.05315
1.03459
0.982582
0.983929
1.04016
1.01589
1.04605
1.05108
1
1.08981
0.977333
1.0367
1
0.979438
1
0.955027
1.05093
0.954063
0.994271
1.05334
1.00746
1.05188
1
1.00052
0.980268
1.06125
1.01251
1
0.987849
1.09215
1
1.06814
0.992102
0.970051
1.05177
1.07539
0.979065
0.958407
1.07134
0.983671
1
1.04551
1
1.00105
1.03769
1
1
1
1.02851
0.985378
0.96697
1.06794
1.06492
1.04909
0.990105
1.03175
0.965005
1.05648
1
0.988952
0.962259
1.05464
0.962633
1.03095
0.995986
1.05654
1.04871
0.978691
1.03463
0.966634
1.00849
1.03809
1
1.02288
1.02975
0.964659
0.976791
1.05376
0.97339
1
1
1.05423
1.02925
0.980284
0.951973
1.03068
1.05227
1
1.03326
1.03488
0.989249
0.996867
1.01348
1.05549
1
0.983311
1.05114
1.0051
0.954468
0.976499
1.05475
1.04812
1.08036
1.00002
1
1.05044
1
1
1.0397
1
1.04962
1.0862
1.00178
1
0.988234
1
0.980289
0.969371
1
1.00171
0.987368
0.993619
1.09147
0.993159
1.08678
1.01528
1.05734
1.01154
1.05258
1.09067
1
1.06197
0.977594
1.08857
1.03306
1
1.06266
1.0643
0.988491
1.01417
1.03515
1.0033
0.939001
0.965627
0.994758
0.979311
1.0432
1
1.03186
1
0.992586
0.966547
1
1
1
0.986638
1
0.987174
0.953606
1.00479
1.016
1.06971
0.990448
1.02197
0.999412
1.08726
1.05181
0.997778
1
1.05966
1.08285
1
1
1
1.06733
1.0896
1.04162
1
1
0.9899
0.999999
0.962305
1.0165
1.06133
1.00082
1.02125
1.03947
1.06944
1.05524
1.06264
1
1
1.03981
1.05944
0.948528
1
1.08015
1.07477
1.06112
0.950561
1.0618
1.01602
1.03169
1
1.08526
1.00021
1.0346
1.00587
0.977959
1.05718
1.03917
1
1
1.05903
0.938099
1.03884
1
1.03867
1.02788
1.0804
1
1.0885
1.03071
1
1.00001
1.02855
1.05443
0.996043
1.06593
1
1.07334
1.05425
1.05546
1.00477
1.07665
0.958969
1.03188
1
1.06761
0.959171
1.07853
0.970348
0.996719
0.998518
0.957186
0.998092
1.003
1.02878
1.02784
1.08187
1.02453
0.960129
0.997239
0.959528
1.03575
1
1.07661
1.05288
1.05152
1
1
0.955892
1.07946
1.07325
0.956871
1.02903
0.952305
1
1
1.03525
0.988062
0.958887
1.04555