/*--------------------------------*- C++ -*----------------------------------*\
  =========                 |
  \\      /  F ield         | OpenFOAM: The Open Source CFD Toolbox
   \\    /   O peration     | Website:  https://openfoam.org
    \\  /    A nd           | Version:  12
     \\/     M anipulation  |
\*---------------------------------------------------------------------------*/
FoamFile
{
    format      ascii;
    class       volScalarField;
    location    "9.82";
    object      rho;
}
// * * * * * * * * * * * * * * * * * * * * * * * * * * * * * * * * * * * * * //

dimensions      [1 -3 0 0 0 0 0];

internalField   nonuniform List<scalar> 
22702
(
1.40001
1.40001
1.27256
1.40001
1.44943
1.40001
1.84027
1.40001
1.40001
1.0194
1.83923
1.84
1.40001
1.84129
1.28651
1.40001
1.40001
1.40001
1.83896
1.40001
1.84249
1.40001
1.83709
1.0317
1.84229
1.0232
1.40001
1.84757
0.985359
1.02215
1.40001
1.84004
1.40001
1.40001
1.40001
1.80959
1.84106
1.8366
1.40001
1.40001
1.02409
1.40001
1.62347
1.40001
1.84631
1.40001
1.40001
1.40001
1.40001
1.02943
1.40001
1.03464
1.40001
1.83934
1.40001
1.83941
1.40001
1.40001
1.40001
1.40001
1.03412
1.40001
1.40001
0.994352
1.40001
1.04506
1.40001
1.40001
1.40001
1.03418
1.40001
1.84562
1.67236
1.40001
1.84221
1.86238
1.03957
1.84128
1.02256
1.40001
1.83648
1.02604
1.83569
1.83656
1.40001
1.40001
1.40001
1.40001
1.32759
1.0303
1.82814
1.40001
1.40001
1.03454
1.40001
1.84273
1.03242
1.40001
1.40001
1.40001
1.40001
1.62295
1.83679
1.02604
1.40001
1.40001
1.50835
1.40001
1.02888
1.40001
1.84133
1.839
1.40001
1.40001
1.00323
1.00369
1.02577
1.40001
1.40001
1.40001
1.40001
1.40001
1.30171
1.40001
1.77782
1.44321
1.84405
1.40001
1.83921
1.83821
1.84195
1.83902
1.40001
1.03655
1.40001
1.04595
1.40001
1.40001
1.40001
1.40001
1.83825
1.40001
1.40001
1.40001
1.40001
1.8382
1.40001
1.42483
1.40001
1.40001
1.40001
1.40001
1.02942
1.40001
1.4101
1.40001
1.01874
1.40001
1.40001
1.40001
1.82882
1.40001
1.8437
1.01777
1.03339
1.84641
1.84753
1.40001
1.47348
1.65173
1.40001
1.83794
1.02738
1.81044
1.40001
1.40001
1.40001
1.40001
1.84137
1.76385
1.40001
1.83727
1.02241
1.83869
1.40001
1.02113
1.40001
1.03293
1.02556
1.39979
1.40001
1.40001
1.84031
1.40001
1.40001
1.84253
1.40001
1.83693
1.83727
1.03595
1.40001
1.40001
1.02382
1.84215
1.40001
1.40001
1.40001
1.84202
1.40001
1.03182
1.40001
1.40001
1.84198
1.84179
1.83981
1.40001
1.40005
1.40001
1.40001
1.40001
1.84176
1.40001
1.06369
1.85986
1.84261
1.84123
1.40001
1.40001
1.40001
1.01477
1.84142
1.61575
1.40001
1.84268
1.03852
1.03241
1.84276
1.84055
1.40001
1.84568
1.0415
1.79038
1.40001
1.40001
1.40001
1.40001
1.84159
1.40001
1.6666
1.44091
1.40001
1.40001
1.843
1.03886
1.14681
1.40001
1.84001
1.0353
1.84775
1.40001
1.40001
1.40001
1.40001
1.40001
1.40001
1.40001
1.03382
1.15643
1.0374
1.84178
1.40001
1.40001
1.40001
1.40001
1.78851
1.40001
1.03279
1.40001
1.00486
1.0277
1.84099
1.05561
1.84234
1.40001
1.40001
1.40001
1.39769
1.0261
1.04647
1.4
1.40001
1.00519
1.40001
1.83829
1.02731
1.40001
1.40001
1.83746
1.03699
1.40001
1.84755
1.03475
1.84282
1.40001
1.00972
1.39767
1.40001
1.40001
1.40001
1.03293
1.40001
1.40001
1.4
1.40002
1.40704
1.67373
1.40001
1.03374
1.40001
1.40001
1.40001
1.40001
1.40001
1.40001
1.40001
1.83884
1.40001
1.84073
1.40001
1.40001
1.40001
1.039
1.40001
1.83865
1.05627
1.40001
1.75814
1.40001
1.40001
1.83829
1.40001
1.40001
1.40001
1.81993
1.40001
1.40001
1.83835
1.83797
1.40001
1.49704
1.40001
1.40001
1.04216
1.40001
1.40001
1.40001
1.04001
1.40001
1.40001
1.40001
1.40001
1.01572
1.40001
1.40001
1.40001
1.40001
1.40001
1.04817
1.40007
1.84596
1.40001
1.4
1.84738
1.84729
1.40001
1.40001
1.03758
1.20309
1.83757
1.40001
1.40001
1.40001
1.84206
1.03316
1.40001
1.84419
1.40001
1.40001
1.10552
1.10152
1.40001
1.02111
1.04473
1.40001
1.40001
1.40001
1.40001
1.40001
1.40001
1.40001
1.84589
1.50751
1.83206
1.04992
1.29311
1.83797
1.40001
1.83936
1.83908
1.03298
1.1627
1.40001
1.02496
1.40001
1.84949
1.40001
1.40001
1.40001
1.40001
1.84229
1.40001
1.40001
1.40001
1.40001
1.40001
1.40001
1.40001
1.55986
1.83004
1.40001
1.84198
1.40001
1.40001
1.02556
1.40001
1.40001
1.40001
1.40001
1.84177
1.73817
1.40001
1.40001
1.02202
1.84253
1.84187
1.40001
1.84184
1.8425
1.84192
1.40001
1.23095
1.40001
1.84087
1.38749
1.84199
1.40001
1.03148
1.39885
1.83757
1.40001
1.40001
1.40001
1.40001
1.03641
1.84115
1.80218
1.40001
1.84182
1.84131
1.83698
1.40001
1.61265
1.84257
1.40001
1.40001
1.70467
1.46002
1.84209
1.33099
1.84208
1.40001
1.84201
1.84168
1.84191
1.84207
1.40001
1.82204
1.30282
1.28905
1.40001
1.4
1.40001
1.40001
1.84637
1.40001
1.40001
1.40001
1.40001
1.40001
1.83751
1.40001
1.40001
1.39606
1.84176
1.7793
1.40001
1.7652
1.40005
1.40001
1.40001
1.84116
1.40001
1.39739
1.40432
1.40001
1.84173
1.40001
1.8428
1.40001
1.40001
1.72879
1.40001
1.84316
1.40003
1.40001
1.84294
1.40001
1.84172
1.40001
1.40001
1.40001
1.84209
1.40001
1.84672
1.40001
1.84206
1.83945
1.8424
1.84208
1.40001
1.83859
1.8339
1.40001
1.01882
1.81496
1.72135
1.40001
1.84259
1.40001
1.03972
1.03217
1.40001
1.40001
1.40001
1.40001
1.40001
1.03049
1.40001
1.84186
1.51759
1.84149
1.40001
1.40001
1.40001
1.40001
1.40001
1.84159
1.40001
1.84069
1.66519
1.17575
1.40001
1.40001
1.53022
1.51215
1.40001
1.40001
1.55801
1.40001
1.02114
1.84197
1.84203
1.40001
1.40001
1.40001
1.83925
1.40001
1.40003
1.8413
1.8409
1.34543
1.40001
1.40001
1.02755
1.8009
1.40001
1.40001
1.40001
1.40001
1.40001
1.84173
1.83762
1.40001
1.84223
1.84653
1.84271
1.40001
1.40001
1.40001
1.40001
1.02494
1.83947
1.40001
1.40001
1.8026
1.84091
1.40001
1.81657
1.83007
1.40001
1.40001
1.40001
1.40001
1.40001
1.84197
1.40001
1.40001
1.40001
1.40001
1.84785
1.40001
1.83833
1.011
1.40001
1.05472
1.40001
1.40001
1.40001
1.39697
1.03242
1.39903
1.40001
1.40001
1.40001
1.45987
1.40001
1.40001
1.26588
1.40001
1.40001
1.40001
1.40001
1.40001
1.40001
1.40001
1.4
1.32071
1.4
1.40001
1.39762
1.40001
1.0381
1.40001
1.40001
1.40001
1.40001
1.73072
1.40001
1.40001
1.40001
1.40001
1.04329
1.40001
1.40001
1.81622
1.83969
1.4
1.40001
1.40001
1.28991
1.40001
1.40001
1.40001
1.40001
1.40001
1.40001
1.34504
1.40901
1.84162
1.40001
1.40001
1.40001
1.84654
1.2923
1.40001
1.40001
1.40001
1.83812
1.84647
1.40001
1.40001
1.40001
1.40001
1.40001
1.40001
1.40001
1.40001
1.40001
1.04441
1.40001
1.40001
1.83909
1.03283
1.40001
1.83888
1.40001
1.02555
1.40001
1.40001
1.04101
1.40001
1.40001
1.40001
1.40001
1.40001
1.40001
1.40001
1.83318
1.84102
1.40001
1.40001
1.40001
1.40001
1.80377
1.40001
1.53557
1.0199
1.40001
1.40001
1.40001
1.40001
1.40001
1.40001
1.40001
1.43304
1.40001
1.40001
1.62825
1.40001
1.40001
1.40001
1.76576
1.40001
1.40001
1.40001
1.40001
1.01594
1.40001
1.40001
1.02058
1.01922
1.40001
1.40001
1.84088
1.40001
1.35945
1.40001
1.40001
1.40001
1.70752
1.03784
1.40001
1.03677
1.40001
1.17818
1.40001
1.40001
1.40001
1.84226
1.40001
1.40001
1.84142
1.40001
1.40001
1.40001
1.84137
1.40001
1.40001
1.84117
1.40001
1.40001
1.03477
1.40001
1.5327
1.40001
1.40001
1.83826
1.83804
1.69646
1.79604
1.40001
1.0233
1.40001
1.40001
1.82217
1.40001
1.02042
1.40001
1.40001
1.40001
1.84207
1.40001
1.40001
1.40001
1.40001
1.66499
1.40001
1.82761
1.83849
1.03272
1.40001
1.40001
1.02129
1.02154
1.40001
1.40001
1.40001
1.7113
1.73717
1.40001
1.40001
1.40001
1.40001
1.40001
1.40001
1.40001
1.59197
1.83857
1.40401
1.40001
1.83595
1.03661
1.40001
1.40001
1.40001
1.63685
1.40001
1.4868
1.40001
1.80313
1.84021
1.40001
1.03552
1.40001
1.83865
1.40001
1.40001
1.84037
1.81551
1.40001
1.84302
1.40001
1.02008
1.40001
1.40001
1.40001
1.8405
1.83288
1.78866
1.40001
1.84196
1.84163
1.40001
1.84315
1.40001
1.8401
1.40001
1.03535
1.37568
1.03296
1.40001
1.40001
1.40001
1.40001
1.40001
1.84274
1.40001
1.84293
1.40001
1.40001
1.40001
1.82015
1.40001
1.03758
1.84139
1.40001
1.00477
1.0644
1.04483
1.40001
1.61598
1.43435
1.84294
1.84138
1.40001
1.4
1.40001
1.40001
1.84183
1.40001
1.40001
1.84194
1.84158
1.40001
1.55234
1.39996
1.40001
1.3968
1.83106
1.23891
1.40001
1.20385
1.02231
1.02237
1.33645
1.84506
1.83583
1.48702
1.84216
1.8417
1.40001
1.40001
1.84799
1.84
1.84174
1.8403
1.40001
1.84232
1.01204
1.84325
1.84032
1.84116
1.84322
1.26577
1.29028
1.31886
1.8411
1.35006
1.84227
1.40001
1.40001
1.8434
1.84175
1.40001
1.03049
1.83992
1.8415
1.40001
1.84161
1.84186
1.40001
1.842
1.01513
1.84647
1.84536
1.8389
1.84454
1.40001
1.40001
1.40001
1.84122
1.68671
1.05493
1.84153
1.02225
1.84105
1.40001
1.40001
1.40001
1.40001
1.84119
1.8422
1.40001
1.40001
1.84242
1.029
1.84234
1.03361
1.40001
1.83871
1.40001
1.01907
1.84288
1.12986
1.40001
1.84125
1.84448
1.84291
1.40001
1.40001
1.61223
1.84435
1.02806
1.84193
1.40001
1.84202
1.25807
1.84116
1.05547
1.40001
1.84104
1.0808
1.84349
1.02513
1.40001
1.84192
1.40001
1.83252
1.40001
1.6589
1.82531
1.74764
1.03861
1.40001
1.84173
1.40001
1.84319
1.40001
1.8419
1.40001
1.40001
1.84087
1.37616
1.84518
1.01876
1.80027
1.40001
1.71305
1.40001
1.84094
1.84177
1.84032
1.40001
1.798
1.84143
1.80979
1.67265
1.83885
1.40001
1.6907
1.40001
1.84079
1.40001
1.45961
1.40001
1.80936
1.40001
1.84218
1.8216
1.82055
1.40001
1.83036
1.02664
1.40001
1.01167
1.40001
1.40001
1.40001
1.83954
1.40001
1.84215
1.40001
1.40001
1.40001
1.84346
1.83376
1.76557
1.84083
1.84529
1.05611
1.84257
1.83342
1.40001
1.78644
1.84172
1.8198
1.40001
1.83808
1.83929
1.40001
1.84536
1.84245
1.84129
1.84281
1.40001
1.40001
1.40001
1.84269
1.019
1.40001
1.84196
1.40001
1.40001
1.03468
1.40001
1.40001
1.84207
1.84193
1.40001
1.84177
1.84691
1.83925
1.37555
1.84197
1.40001
1.84207
1.8419
1.753
1.40001
1.40001
1.40001
1.84345
1.84178
1.84202
1.34774
1.40001
1.84967
1.84202
1.84224
1.40001
1.84209
1.84129
1.84062
1.85039
1.40001
1.8419
1.83977
1.78553
1.84146
1.84894
1.40001
1.84834
1.83669
1.84192
1.84205
1.84039
1.0433
1.8402
1.84248
1.40001
1.84134
1.84155
1.84104
1.84135
1.40001
1.84229
1.84176
1.40001
1.84137
1.77173
1.40001
1.40001
1.40001
1.84397
1.83803
1.40001
1.40001
1.63509
1.40001
1.84176
1.40001
1.40001
1.84175
1.84274
1.84186
1.84156
1.40001
1.40001
1.40001
1.70892
1.40001
1.84084
1.40001
1.40001
1.84264
1.84609
1.40001
1.84185
1.01753
1.84227
1.84465
1.12392
1.40001
1.04404
1.78296
1.84428
1.83958
1.83963
1.02729
1.84083
1.84345
1.03047
1.02085
1.40001
1.84081
1.84205
1.40001
1.40001
1.84175
1.40001
1.84205
1.40001
1.78607
1.40001
1.60785
1.84192
1.84367
1.70489
1.8035
1.83745
1.84376
1.80947
1.40001
1.03223
1.83963
1.84237
1.84724
1.40002
1.40001
1.40001
1.84204
1.40001
1.8418
1.84075
1.15002
1.40001
1.84159
1.39994
1.40001
1.40003
1.40005
1.84222
1.8413
1.3985
1.40001
1.40001
1.84332
1.84479
1.8423
1.84489
1.84014
1.06956
1.77693
1.40001
1.83863
1.84181
1.84145
1.84673
1.40001
1.84181
1.82986
1.84326
1.40001
1.84176
1.84109
1.26107
1.84169
1.84197
1.40001
1.84198
1.24009
1.84183
1.25273
1.84216
1.40001
1.84229
1.8414
1.84172
1.84198
1.8419
1.84733
1.84239
1.84061
1.40001
1.32391
1.8418
1.84184
1.23696
1.84155
1.37703
1.68849
1.84172
1.84396
1.84181
1.40001
1.84554
1.68981
1.84196
1.31665
1.84412
1.84786
1.40001
1.25997
1.40001
1.84341
1.40001
1.70578
1.40001
1.82043
1.25581
1.40001
1.84673
1.84184
1.40001
1.84006
1.84321
1.84835
1.83282
1.83266
1.40001
1.83922
1.40001
1.40001
1.40001
1.2898
1.84265
1.84203
1.84598
1.84181
1.84019
1.84598
1.8445
1.84214
1.29673
1.43162
1.40001
1.40001
1.84118
1.84196
1.84178
1.84187
1.40003
1.62642
1.40001
1.845
1.79079
1.40001
1.40001
1.11282
1.84174
1.40001
1.40001
1.00389
1.84184
1.40001
1.83321
1.84119
1.8367
1.82546
1.84166
1.40001
1.04878
1.50498
1.84089
1.84211
1.40001
1.84065
1.84161
1.6149
1.40928
1.50121
1.40001
1.8319
1.8419
1.40001
1.40001
1.03873
1.40001
1.40001
1.84174
1.84197
1.84416
1.84277
1.84175
1.83985
1.84214
1.84474
1.8419
1.40001
1.39641
1.84129
1.84289
1.39711
1.84185
1.84166
1.04915
1.03259
1.84082
1.85131
1.40001
1.40001
1.40096
1.84179
1.84339
1.84202
1.40001
1.84182
1.40001
1.26333
1.84715
1.84626
1.40001
1.60317
1.84214
1.40001
1.83835
1.40001
1.84206
1.70667
1.84093
1.40001
1.84193
1.84971
1.041
1.84141
1.40001
1.84237
1.83841
1.40001
1.05052
1.83762
1.76443
1.39757
1.83401
1.84147
1.40001
1.39883
1.83942
1.39753
1.84101
1.40001
1.40001
1.84161
1.40001
1.84086
1.84096
1.39663
1.75538
1.40001
1.84066
1.40001
1.40001
1.40001
1.40001
1.84192
1.40001
1.40001
1.83414
1.40001
1.84189
1.40001
1.68599
1.8398
1.84213
1.40001
1.40001
1.39827
1.40001
1.84299
1.84162
1.84106
1.84134
1.84064
1.84126
1.841
1.40001
1.84171
1.8429
1.40001
1.84087
1.84193
1.40001
1.84058
1.32185
1.45713
1.84147
1.84205
1.84104
1.40001
1.84137
1.40001
1.84189
1.8411
1.40001
1.84089
1.40001
1.40001
1.40001
1.40001
1.84234
1.04307
1.39793
1.40001
1.8418
1.84016
1.40001
1.84201
1.40001
1.40545
1.01991
1.84196
1.39958
1.40001
1.84346
1.39842
1.84201
1.40001
1.3998
1.40001
1.84312
1.84726
1.84135
1.84049
1.02849
1.84268
1.84012
1.84132
1.50976
1.40001
1.40001
1.59021
1.84225
1.03959
1.03468
1.40001
1.84109
1.84158
1.84027
1.40001
1.40001
1.84144
1.8408
1.39988
1.40001
1.72044
1.01686
1.40001
1.48114
1.83835
1.83155
1.39828
1.84189
1.84985
1.40001
1.39911
1.40001
1.84024
1.83377
1.5836
1.40001
1.80599
1.40001
1.40177
1.84188
1.02723
1.84168
1.84194
1.397
1.39991
1.78758
1.40001
1.39969
1.40001
1.84355
1.40001
1.40002
1.03331
1.84144
1.40001
1.40001
1.40001
1.40001
1.84206
1.64964
1.40001
1.40001
1.01894
1.84142
1.65047
1.40001
1.40001
1.40001
1.82178
1.82576
1.84236
1.40001
1.40001
1.84747
1.40001
1.84143
1.84173
1.40001
1.40001
1.84397
1.84152
1.82379
1.40001
1.40001
1.84403
1.8418
1.40001
1.40001
1.40001
1.84198
1.40001
1.40001
1.40001
1.84212
1.84307
1.84314
1.40001
1.83866
1.40004
1.0785
1.841
1.84082
1.40001
1.84099
1.82065
1.83919
1.40001
1.40001
1.84402
1.40001
1.63391
1.84106
1.40001
1.04588
1.40001
1.84331
1.40001
1.40001
1.83811
1.40001
1.40001
1.40001
1.53628
1.8416
1.05573
1.40002
1.84277
1.40001
1.40001
1.84294
1.40001
1.84487
1.40001
1.40001
1.84272
1.84237
1.40001
1.40006
1.40001
1.40001
1.40001
1.40001
1.40001
1.40001
1.84669
1.84113
1.40001
1.83403
1.0316
1.84845
1.40001
1.84217
1.85041
1.84151
1.84767
1.8379
1.40001
1.40001
1.83736
1.40001
1.66424
1.84674
1.84148
1.40001
1.84419
1.837
1.40001
1.78746
1.40001
1.8418
1.68982
1.83911
1.39761
1.82911
1.79502
1.84358
1.84237
1.43689
1.84185
1.84418
1.40001
1.84216
1.40001
1.84156
1.40001
1.40001
1.40001
1.40001
1.39635
1.84209
1.84155
1.76447
1.40001
1.84436
1.40001
1.40001
1.40001
1.0103
1.40001
1.8304
1.40001
1.80129
1.83464
1.40001
1.40001
1.40001
1.80587
1.84188
1.40001
1.40001
1.84049
1.03528
1.47207
1.40001
1.84627
1.84161
1.80304
1.83061
1.84188
1.40001
1.84272
1.40001
1.40001
1.40001
1.40001
1.8437
1.84266
1.40001
1.83066
1.44982
1.84181
1.81147
1.40001
1.40001
1.81256
1.40001
1.40001
1.0346
1.71902
1.40001
1.40001
1.84711
1.40001
1.84525
1.80096
1.40001
1.80015
1.03168
1.842
1.84235
1.84265
1.40001
1.03773
1.40001
1.40001
1.40001
1.84141
1.78211
1.40001
1.83238
1.8427
1.40001
1.84132
1.40001
1.40001
1.40001
1.40001
1.84243
1.39936
1.40001
1.84387
1.40001
1.40001
1.84014
1.84131
1.40001
1.84428
1.48882
1.40003
1.40001
1.8438
1.40001
1.84364
1.40001
1.41336
1.84186
1.40001
1.84213
1.40001
1.40001
1.53549
1.8409
1.40001
1.40001
1.40001
1.40001
1.40001
1.39641
1.05822
1.05024
1.41965
1.40001
1.41869
1.40001
1.42395
1.40001
1.84192
1.40001
1.66752
1.40001
1.84165
1.40001
1.40001
1.40001
1.8414
1.40001
1.76342
1.84226
1.40001
1.63744
1.84173
1.40001
1.40001
1.84002
1.84215
1.40001
1.40001
1.44696
1.02985
1.40001
1.84262
1.40001
1.40001
1.40001
1.40001
1.47385
1.84174
1.40001
1.40001
1.40001
1.01747
1.40001
1.84252
1.84201
1.84542
1.40001
1.40001
1.40001
1.40001
1.61629
1.84401
1.40001
1.40001
1.40001
1.84454
1.84161
1.44733
1.40001
1.40001
1.40001
1.84171
1.84188
1.40001
1.0502
1.84196
1.84149
1.8418
1.84115
1.841
1.40001
1.40001
1.84825
1.83993
1.84227
1.00473
1.44046
1.84242
1.40001
1.40001
1.40001
1.40001
1.40001
1.84244
1.03346
1.40001
1.40001
1.84202
1.59925
1.40001
1.84734
1.40001
1.40001
1.40001
1.02452
1.40001
1.40001
1.51541
1.84172
1.84198
1.40001
1.83976
1.84845
1.40001
1.47014
1.40001
1.84375
1.40001
1.83901
1.03841
1.40001
1.40001
1.40001
1.40001
1.84094
1.40007
1.40001
1.40001
1.40001
1.82372
1.40001
1.40001
1.40001
1.40001
1.84117
1.03061
1.74739
1.84551
1.40001
1.84288
1.40001
1.40001
1.40001
1.39722
1.40001
1.84421
1.40001
1.2049
1.40001
1.40001
1.40004
1.84317
1.01122
1.40001
1.84196
1.40001
1.84471
1.84205
1.00958
1.40001
1.40001
1.82781
1.40001
1.40001
1.01874
1.40001
1.84627
1.40001
1.82232
1.39937
1.8407
1.40001
1.40001
1.40001
1.40001
1.83809
1.40001
1.40001
1.84226
1.40001
1.40001
1.40001
1.40001
1.40001
1.40001
1.40001
1.40001
1.68964
1.40001
1.54765
1.84214
1.40001
1.40001
1.40001
1.04965
1.40001
1.40001
1.40001
1.40001
1.84309
1.84162
1.45336
1.40001
1.40001
1.84295
1.40001
1.40001
1.84034
1.40001
1.40002
1.40001
1.40001
1.40001
1.40002
1.842
1.17915
1.84162
1.84378
1.39696
1.40001
1.40001
1.40001
1.66338
1.40001
1.40001
1.84107
1.84226
1.40001
1.40001
1.40001
1.40001
1.0122
1.40001
1.40001
1.40001
1.68123
1.40001
1.84116
1.84368
1.40001
1.84335
1.40001
1.40001
1.40001
1.6422
1.40001
1.83915
1.40001
1.84198
1.40001
1.40001
1.3959
1.84111
1.40001
1.40001
1.40001
1.40001
1.40001
1.84461
1.40003
1.40001
1.02907
1.84117
1.02705
1.40001
1.84217
1.40001
1.39591
1.40001
1.84225
1.84718
1.40001
1.83631
1.27854
1.84151
1.84396
1.40004
1.40001
1.40001
1.03272
1.40001
1.40001
1.40001
1.84263
1.65426
1.84707
1.40001
1.40001
1.40001
1.40001
1.39668
1.84103
1.40001
1.03224
1.40001
1.40001
1.40001
1.40001
1.40001
1.40001
1.40001
1.84796
1.83962
1.84516
1.40001
1.40001
1.39687
1.40001
1.37744
1.40001
1.40001
1.40001
1.0475
1.37951
1.40001
1.04235
1.0516
1.40001
1.84242
1.84186
1.40001
1.83761
1.84167
1.02905
1.69114
1.40001
1.40001
1.40001
1.03299
1.84273
1.40001
1.02637
1.40001
1.8487
1.47576
1.40001
1.40001
1.40001
1.40001
1.84184
1.84133
1.40001
1.40001
1.8414
1.40001
1.40001
1.83903
1.84156
1.40001
1.82491
1.84225
1.83695
1.35772
1.83959
1.40821
1.03005
1.73994
1.84288
1.40001
1.40001
1.40001
1.04225
1.40001
1.05665
1.84013
1.35388
1.84241
1.34849
1.40001
1.84041
1.60458
1.40001
1.40001
1.84272
1.40001
1.58126
1.84071
1.40001
1.40001
1.8406
1.85002
1.05858
1.66576
1.3999
1.40001
1.66509
1.40001
1.84034
1.33693
1.84343
1.84798
1.40001
1.40001
1.40001
1.40001
1.83082
1.40001
1.40001
1.84034
1.39964
1.84216
1.74966
1.84209
1.02479
1.40001
1.40001
1.40001
1.40001
1.84206
1.40005
1.84222
1.40001
1.84293
1.84028
1.45785
1.83784
1.53768
1.84224
1.40001
1.7037
1.06328
1.83899
1.84193
1.76035
1.47663
1.8413
1.84134
1.84046
1.84233
1.40001
1.3094
1.46516
1.40001
1.84191
1.61439
1.84182
1.40004
1.40001
1.40001
1.06328
1.84735
1.83931
1.7612
1.40001
1.5627
1.40001
1.84049
1.8376
1.40001
1.84217
1.83965
1.40001
1.40001
1.40001
1.84005
1.40001
1.57437
1.8452
1.7096
1.40001
1.84225
1.40001
1.40001
1.40001
1.40001
1.40001
1.40001
1.40001
1.40001
1.40001
1.40001
1.04536
1.40001
1.81601
1.03978
1.66113
1.39857
1.84377
1.40001
1.63618
1.40002
1.68581
1.77792
1.40001
1.40216
1.84797
1.30978
1.40001
1.84019
1.82328
1.33227
1.40001
1.84325
1.84185
1.84291
1.40001
1.84145
1.843
1.83921
1.40001
1.6016
1.40001
1.40006
1.84206
1.40001
1.84289
1.46474
1.84274
1.40001
1.40001
1.84053
1.84192
1.07134
1.40001
1.84192
1.73204
1.84093
1.40001
1.40001
1.83767
1.84145
1.39825
1.40001
1.78963
1.39683
1.84192
1.40009
1.40001
1.40001
1.40001
1.40001
1.60168
1.40001
1.73491
1.84276
1.72993
1.84058
1.40001
1.40299
1.40001
1.40001
1.83747
1.40001
1.84004
1.40001
1.40001
1.40001
1.40001
1.4
1.40001
1.45677
1.6333
1.40001
1.40001
1.05074
1.40001
1.84239
1.05712
1.8454
1.40001
1.62483
1.39976
1.84111
1.68185
1.04774
1.64272
1.40004
1.84223
1.84362
1.40001
1.66668
1.8439
1.84093
1.39841
1.8363
1.82934
1.05319
1.40001
1.40001
1.39749
1.40001
1.84022
1.40001
1.0582
1.83898
1.40001
1.40001
1.79881
1.40001
1.84331
1.40001
1.84282
1.40001
1.06867
1.40001
1.40001
1.84479
1.84809
1.83838
1.40001
1.84066
1.84195
1.84268
1.40001
1.40001
1.83827
1.4
1.11682
1.40001
1.40001
1.40001
1.84264
1.40001
1.84215
1.6839
1.8404
1.40001
1.84133
1.39939
1.40001
1.40001
1.40001
1.40001
1.40001
1.40001
1.10609
1.40001
1.40001
1.84164
1.40001
1.84694
1.84753
1.40001
1.03699
1.04098
1.40001
1.8434
1.47458
1.02938
1.00319
1.40001
1.84025
1.40001
1.84334
1.02896
1.40151
1.40001
1.40001
1.39951
1.40001
1.40001
1.40001
1.39991
1.57994
1.84225
1.40001
1.40001
1.84235
1.66045
1.40001
1.79206
1.8424
1.84228
1.57827
1.84342
1.40001
1.84117
1.40001
1.8371
1.40001
1.84165
1.84351
1.39675
1.84343
1.84463
1.40001
1.40001
1.40001
1.40001
1.40001
1.31573
1.83901
1.40005
1.40003
1.03204
1.39999
1.043
1.03955
1.40001
1.84198
1.84064
1.84197
1.40001
1.84156
1.40001
1.02795
1.40001
1.40001
1.83827
1.21998
1.84194
1.40001
1.84403
1.40001
1.37884
1.842
1.40001
1.40001
1.40001
1.84265
1.40001
1.83816
1.05985
1.40001
1.40001
1.65591
1.40001
1.40001
1.64333
1.40001
1.40001
1.84196
1.40001
1.40001
1.40001
1.40001
1.40001
1.83683
1.84038
1.40001
1.83945
1.84102
1.04859
1.60533
1.84011
1.40001
1.40001
1.79782
1.39903
1.40001
1.40001
1.84183
1.84288
1.69702
1.40001
1.84377
1.05036
1.82282
1.39948
1.40001
1.84018
1.40004
1.84079
1.77324
1.7373
1.40001
1.40001
1.84178
1.08722
1.03151
1.40001
1.8417
1.40001
1.84143
1.40001
1.66465
1.40001
1.40001
1.84073
1.68245
1.02892
1.40001
1.39831
1.40001
1.40001
1.42511
1.58171
1.84167
1.40001
1.8449
1.40001
1.40001
1.40001
1.40001
1.40001
1.40001
1.46566
1.02402
1.40001
1.40001
1.44164
1.40001
1.40001
1.40001
1.40001
1.40001
1.8418
1.40001
1.40001
1.84168
1.84337
1.7124
1.40001
1.40001
1.40001
1.21921
1.84684
1.70978
1.40001
1.40001
1.40001
1.40001
1.84131
1.40001
1.40001
1.40001
1.83964
1.40001
1.40001
1.71785
1.85432
1.43606
1.12528
1.84381
1.71626
1.8403
1.40001
1.61829
1.40001
1.40001
1.40001
1.03762
1.40276
1.02701
1.40001
1.03033
1.02167
1.40001
1.04271
1.40001
1.40001
1.40001
1.59184
1.40001
1.84385
1.84227
1.4016
1.6094
1.77519
1.02174
1.16821
1.2915
1.40001
1.84102
1.83997
1.84102
1.84124
1.78022
1.27074
1.40001
1.7819
1.40001
1.82787
1.40001
1.40001
1.39651
1.40942
1.40001
1.40001
1.40001
1.83899
1.40001
1.04316
1.40001
1.84362
1.05137
1.40001
1.40001
1.84099
1.40001
1.84229
1.3999
1.40001
1.40001
1.84204
1.79523
1.40001
1.84963
1.40001
1.40001
1.41453
1.40001
1.58991
1.40001
1.40001
1.04835
1.40001
1.40001
1.84199
1.4
1.84329
1.40001
1.40004
1.04435
1.40001
1.40001
1.02561
1.40082
1.40001
1.83994
1.0351
1.84133
1.03532
1.84188
1.40001
1.40001
1.40001
1.40001
1.4
1.40001
1.40001
1.40001
1.40001
1.40001
1.40001
1.82458
1.40001
1.84326
1.83972
1.02546
1.40001
1.40001
1.40001
1.40001
1.40001
1.40001
1.82975
1.40001
1.40001
1.04115
1.40001
1.40001
1.83979
1.40001
1.40001
1.57034
1.77037
1.02241
1.03639
1.09084
1.13205
1.40001
1.39631
1.02983
1.40024
1.80458
1.39698
1.40001
1.40001
1.84015
1.40001
1.40001
1.40001
1.1821
1.40002
1.55893
1.40001
1.40001
1.58265
1.84167
1.40001
1.04071
1.40001
1.40001
1.40001
1.39684
1.40001
1.84378
1.84081
1.40001
1.0363
1.40001
1.64177
1.01772
1.40001
1.29224
1.40001
1.39637
1.02546
1.40001
1.40001
1.40001
1.39601
1.01389
1.40001
1.03081
1.39845
1.63616
1.79281
1.02666
1.01058
1.40001
1.39082
1.40001
1.39864
1.40001
1.84214
1.84297
1.40001
1.41216
1.84165
1.84092
1.40001
1.40001
1.84087
1.40001
1.40001
1.40005
1.40001
1.84666
1.40001
1.40001
1.41735
1.40001
1.39857
1.08462
1.40001
1.40001
1.40001
1.40001
1.40001
1.84011
1.43499
1.40005
1.40001
1.40001
1.40001
1.40001
1.40001
1.40004
1.40001
1.04681
1.49572
1.39858
1.82829
1.8408
1.40001
1.41572
1.84224
1.78595
1.40001
1.40001
1.05499
1.84024
1.40001
1.84003
1.40001
1.84224
1.703
1.0406
1.40001
1.01663
1.80211
1.39968
1.40001
1.01969
1.05993
1.40001
1.40001
1.77295
1.40001
1.4
1.02811
1.40001
1.40001
1.40001
1.54535
1.40001
1.02987
1.84273
1.40001
1.40001
1.40001
1.40001
1.84259
1.40001
1.40001
1.84686
1.79606
1.40001
1.40001
1.40001
1.84438
1.04015
1.40001
1.84042
1.84133
1.40001
1.75245
1.4
1.40003
1.40001
1.40001
1.80871
1.39948
1.40001
1.0518
1.63805
1.40001
1.40001
1.39792
1.40001
1.40001
1.84046
1.40001
1.40001
1.40004
1.40001
1.84127
1.40001
1.40001
1.40001
1.40001
1.40001
1.40001
1.40001
1.59807
1.40001
1.84148
1.40001
1.40001
1.84334
1.40001
1.40001
1.40001
1.84105
1.84575
1.44379
1.40001
1.39756
1.40001
1.40001
1.40001
1.40001
1.84038
1.40001
1.40001
1.84098
1.02763
1.40001
1.40001
1.40001
1.40001
1.40001
1.40001
1.75934
1.40001
1.40001
1.8461
1.84208
1.40001
1.40001
1.40001
1.8401
1.8436
1.40001
1.3997
1.84751
1.40001
1.40001
1.40001
1.40002
1.05079
1.43063
1.39606
1.39599
1.40001
1.40001
1.04017
1.84158
1.40001
1.0656
1.40001
1.84406
1.82353
1.01853
1.39942
1.84197
1.84067
1.84068
1.40001
1.40001
1.32665
1.80252
1.76577
1.06751
1.40001
1.40001
1.40001
1.84097
1.84162
1.03557
1.3973
1.40001
1.84157
1.05347
1.40001
1.83843
1.02163
1.37541
1.40702
1.40001
1.84556
1.40001
1.40001
1.40001
1.40001
1.40001
1.40001
1.40011
1.81176
1.40001
1.40001
1.84654
1.40001
1.40001
1.40001
1.84148
1.40001
1.04345
1.40001
1.40001
1.40001
1.55169
1.40001
1.40001
1.40001
1.40001
1.40001
1.1765
1.40001
1.05306
1.40001
1.84102
1.40008
1.25939
1.26103
1.40002
1.40486
1.63684
1.40001
1.40001
1.05786
1.8414
1.84088
1.84163
1.40001
1.01106
1.03453
1.40001
1.84352
1.40001
1.40001
1.40001
1.40001
1.40001
1.40004
1.40001
1.03831
1.68242
1.40001
1.40001
1.03142
1.38659
1.40001
1.40001
1.40001
1.40001
1.02493
1.40001
1.08561
1.40001
1.40001
1.84918
1.40001
1.40001
1.02872
1.40001
1.84118
1.40001
1.02258
1.40001
1.03456
1.40001
1.40782
1.84226
1.85019
1.40001
1.40001
1.84071
1.40001
1.40001
1.49871
1.39704
1.40001
1.39821
1.40001
1.84438
1.40001
1.01521
1.40002
1.83709
1.39871
1.40001
1.40001
1.20031
1.40001
1.39898
1.02331
1.83814
1.56273
1.40001
1.40001
1.29271
1.40001
1.40001
1.40001
1.20591
1.40001
1.40001
1.40001
1.84198
1.40001
1.03876
1.4
1.40001
1.40001
1.40001
1.01754
1.84152
1.80203
1.02536
1.40001
1.84372
1.40001
1.40001
1.84226
1.84078
1.77297
1.01741
1.39768
1.39929
1.40001
1.84212
1.40001
1.40001
1.40001
1.40001
1.8414
1.40004
1.40001
1.40001
1.84096
1.40001
1.40001
1.84151
1.03876
1.40001
1.40001
1.40001
1.02545
1.40001
1.4
1.4
1.39866
1.40001
1.40001
1.40001
1.40001
1.74487
1.40001
1.83969
1.84012
1.84594
1.84166
1.84098
1.84269
1.40001
1.84206
1.40001
1.84215
1.8418
1.40001
1.39885
1.03804
1.77975
1.39991
1.40001
1.40001
1.40001
1.40001
1.38038
1.40001
1.47088
1.40001
1.40001
1.40001
1.22867
1.84151
1.84084
1.84431
1.77112
1.39987
1.40001
1.42371
1.84191
1.39798
1.4608
1.39716
1.03263
1.40001
1.40003
1.40001
1.40001
1.40001
1.40001
1.40001
1.84294
1.03739
1.84297
1.84148
1.39566
1.02484
1.40001
1.40001
1.40001
1.84093
1.03661
1.79027
1.0118
1.84224
1.84633
1.03679
1.8434
1.42433
1.40001
1.84561
1.1867
1.40001
1.39868
1.04279
1.40001
1.0434
1.40001
1.84263
1.84209
1.14944
1.40001
1.8399
1.0361
1.40001
1.04377
1.40001
1.84124
1.40001
1.40001
1.83781
1.40001
1.23066
1.40001
1.39969
1.04492
1.84098
1.39948
1.40001
1.03775
1.40001
1.40001
1.40001
1.40001
1.63817
1.40001
1.84047
1.40001
1.40001
1.84729
1.40001
1.40001
1.84112
1.40001
1.04658
1.40001
1.00747
1.40002
1.40001
1.40001
1.40001
1.40001
1.82265
1.66099
1.84213
1.40001
1.84111
1.81077
1.02312
1.03467
1.40001
1.40001
1.84032
1.40001
1.0452
1.40001
1.38301
1.40001
1.40001
1.84163
1.40001
1.83937
1.03736
1.85113
1.40001
1.04198
1.40001
1.40001
1.84768
1.84015
1.40001
1.40005
1.40001
1.84542
1.40001
1.40001
1.0076
1.39945
1.03848
1.40001
1.40001
1.40001
1.84336
1.84042
1.84075
1.40001
1.40001
1.05905
1.40001
1.83769
1.40001
1.40001
1.40001
1.81781
1.842
1.84157
1.04016
1.84424
1.84173
1.03783
1.83975
1.40005
1.03732
1.40839
1.40001
1.40001
1.84243
1.03634
1.67984
1.03343
1.84187
1.39735
1.02267
1.84377
1.40001
1.40001
1.40001
1.40001
1.84154
1.84105
1.04286
1.40001
1.40003
1.0218
1.40004
1.40001
1.03528
1.04106
1.70554
1.84082
1.39849
1.84126
1.40001
1.83644
1.21113
1.02965
1.84156
1.85322
1.40001
1.84241
1.40001
1.40001
1.8421
1.40001
1.73644
1.84005
1.40001
1.40001
1.40001
1.40001
1.84073
1.83674
1.84129
1.40001
1.40001
1.84064
1.84698
1.84224
1.40001
1.84072
1.40001
1.40001
1.40001
1.40001
1.40001
1.0372
1.24251
1.03094
1.40001
1.40001
1.8415
1.40001
1.40001
1.84365
1.02948
1.40001
1.84221
1.83705
1.8239
1.027
1.40001
1.0485
1.40001
1.40003
1.84121
1.6197
1.83877
1.80508
1.40001
1.06443
1.40001
1.84346
1.71849
1.02325
1.40001
1.40001
1.40001
1.20673
1.40001
1.40001
1.84941
1.40001
1.02329
1.84193
1.40001
1.40001
1.40001
1.40001
1.40001
1.75742
1.49998
1.40001
1.84085
1.40001
1.84083
1.40001
1.3974
1.40001
1.84187
1.84806
1.84371
1.8459
1.39957
1.83874
1.40001
1.84184
1.84065
1.77432
1.40001
1.40001
1.05392
1.84213
1.40001
1.40001
1.84376
1.84203
1.83935
1.40001
1.84201
1.40001
1.40001
1.40003
1.84681
1.84142
1.53157
1.49733
1.84228
1.84204
1.09321
1.40001
1.40001
1.40001
1.40001
1.40002
1.55552
1.40001
1.40001
1.77949
1.03385
1.39998
1.40001
1.84177
1.39991
1.39982
1.46505
1.81078
1.84077
1.31157
1.40001
1.03445
1.40001
1.38791
1.84154
1.84343
1.83777
1.39899
1.40001
1.40001
1.05735
1.40001
1.40001
1.84155
1.44949
1.40001
1.40001
1.40001
1.40001
1.40001
1.40001
1.40001
1.39995
1.84083
1.40002
1.40001
1.40001
1.40001
1.40001
1.67616
1.40001
1.60754
1.40001
1.40001
1.84197
1.84663
1.02534
1.39876
1.40001
1.4
1.40001
1.04385
1.83924
1.84214
1.40001
1.40001
1.40001
1.40001
1.40001
1.40001
1.40001
1.40001
1.84196
1.83893
1.03396
1.44989
1.02797
1.40001
1.03999
1.40001
1.84137
1.52795
1.40001
1.40001
1.08598
1.40001
1.82337
1.21261
1.39683
1.02243
1.40001
1.40001
1.83877
1.40005
1.39739
1.00523
1.84053
1.83924
1.40001
1.40001
1.40001
1.40001
1.81276
1.40001
1.40001
1.84104
1.39895
1.84078
1.40011
1.40001
1.40001
1.0484
1.40001
1.40001
1.84162
1.0252
1.18432
1.0235
1.84216
1.39933
1.40001
1.83978
1.02505
1.02043
1.41099
1.40001
1.40001
1.84057
1.40005
1.59571
1.40001
1.40001
1.84025
1.02415
1.40001
1.40001
1.40014
1.84029
1.40014
1.83396
1.40001
1.40004
1.40001
1.40001
1.11088
1.40001
1.17972
1.40002
1.40001
1.84542
1.04646
1.40001
1.16327
1.1943
1.40001
1.40001
1.84234
1.40001
1.40001
1.40001
1.83959
1.8412
1.40005
1.83166
1.83959
1.1613
1.84185
1.82272
1.40001
1.40001
1.84177
1.4
1.40001
1.40001
1.40001
1.40001
1.84697
1.84289
1.40001
1.40001
1.40001
1.8416
1.40023
1.40001
1.02861
1.12393