/*--------------------------------*- C++ -*----------------------------------*\
  =========                 |
  \\      /  F ield         | OpenFOAM: The Open Source CFD Toolbox
   \\    /   O peration     | Website:  https://openfoam.org
    \\  /    A nd           | Version:  12
     \\/     M anipulation  |
\*---------------------------------------------------------------------------*/
FoamFile
{
    format      ascii;
    class       volScalarField;
    location    "7.62";
    object      p;
}
// * * * * * * * * * * * * * * * * * * * * * * * * * * * * * * * * * * * * * //

dimensions      [1 -1 -2 0 0 0 0];

internalField   nonuniform List<scalar> 
22702
(
1
1
0.867984
1
1.05964
1
1.46598
1
1
0.638142
1.47153
1.46585
1
1.47234
0.887585
1
1
1
1.47142
1
1.47138
1
1.46849
0.665459
1.46882
0.659418
1
1.46569
0.656917
0.658224
1
1.47057
1
1
1
1.43521
1.46797
1.4696
1
1
0.633651
1
1.2285
1
1.46398
1
1
1
1
0.656913
1
0.659178
1
1.47198
1
1.4754
1
1
1
1
0.661478
1
1
0.663609
1
0.64995
1
1
1
0.642702
1
1.47147
1.28192
1
1.47397
1.50319
0.649004
1.4687
0.654756
1
1.47406
0.653016
1.47271
1.46972
1
1
1
1
0.92777
0.631065
1.47841
1
1
0.673902
1
1.47158
0.668106
1
1
1
1
1.22605
1.47367
0.650563
1
1
1.11122
1
0.653872
1
1.46936
1.47118
1
1
0.638429
0.639692
0.631214
1
1
1
1
1
0.912412
1
1.39931
1.04557
1.47264
1
1.4769
1.47071
1.47117
1.47141
1
0.636006
1
0.676128
1
1
1
1
1.47095
1
1
1
1
1.47316
1
1.02376
1
1
1
1
0.656479
1
1.01049
1
0.655329
1
1
1
1.47679
1
1.46885
0.64848
0.654505
1.47498
1.46952
1
1.07375
1.26764
1
1.47606
0.654936
1.43629
1
1
1
1
1.47258
1.38991
1
1.47196
0.665228
1.4762
1
0.652661
1
0.65761
0.662553
0.999792
1
1
1.4697
1
1
1.47194
1
1.47311
1.47152
0.657361
1
1
0.662638
1.47161
1
1
1
1.47171
1
0.66914
1
1
1.47141
1.47154
1.47181
1
1.00004
1
1
1
1.47123
1
0.662807
1.49555
1.47206
1.47092
1
1
1
0.6485
1.4717
1.22346
1
1.47306
0.661499
0.666448
1.47301
1.47306
1
1.46721
0.65317
1.41531
1
1
1
1
1.47143
1
1.27241
1.0435
1
1
1.47235
0.655413
0.762884
1
1.46987
0.662964
1.47325
1
1
1
1
1
1
1
0.652023
0.767041
0.668262
1.47155
1
1
1
1
1.42199
1
0.653187
1
0.637205
0.662709
1.47062
0.648722
1.4715
1
1
1
0.997694
0.653148
0.661592
0.999999
1
0.63708
1
1.4707
0.657377
1
1
1.47164
0.660411
1
1.47298
0.653907
1.47239
1
0.642142
0.997695
1
1
1
0.660892
1
1
1
1.00001
1.01331
1.2827
1
0.662673
1
1
1
1
1
1
1
1.47082
1
1.47099
1
1
1
0.668337
1
1.47196
0.649208
1
1.37978
1
1
1.47437
1
1
1
1.46009
1
1
1.46066
1.47124
1
1.09112
1
1
0.67329
1
1
1
0.674351
1
1
1
1
0.649248
1
1
1
1
1
0.657516
1.00007
1.46868
1
0.999998
1.47063
1.47452
1
1
0.666803
0.816883
1.47394
1
1
1
1.47226
0.653898
1
1.46936
1
1
0.706801
0.692584
1
0.653747
0.667321
1
1
1
1
1
1
1
1.46752
1.11765
1.45785
0.660348
0.913921
1.47075
1
1.47578
1.47145
0.655268
0.783518
1
0.666695
1
1.4882
1
1
1
1
1.4716
1
1
1
1
1
1
1
1.16206
1.47478
1
1.47139
1
1
0.656048
1
1
1
1
1.47168
1.35285
1
1
0.656223
1.47187
1.47138
1
1.47131
1.47187
1.4714
1
0.835919
1
1.47118
0.98313
1.4715
1
0.668819
0.998863
1.47397
1
1
1
1
0.656663
1.4713
1.4267
1
1.47439
1.47221
1.47448
1
1.22088
1.47028
1
1
1.32248
1.06663
1.47185
0.927816
1.47179
1
1.47193
1.4718
1.47188
1.47149
1
1.44635
0.90843
0.876969
1
0.999999
1
1
1.47931
1
1
1
1
1
1.47359
1
1
0.996273
1.47144
1.40588
1
1.39133
1.00005
1
1
1.47035
1
0.996791
1.00381
1
1.47193
1
1.47236
1
1
1.34431
1
1.47269
1.00002
1
1.47112
1
1.47162
1
1
1
1.47181
1
1.47853
1.00001
1.47147
1.47214
1.47174
1.46753
1
1.47188
1.46458
1
0.65113
1.44077
1.33278
1
1.47198
1
0.664811
0.65479
1
1
1
1
1
0.658549
1
1.47146
1.1238
1.47074
1
1
1
1
1
1.4719
1
1.47133
1.27057
0.790298
1
1.00001
1.13409
1.11252
1
1
1.16459
1
0.659379
1.47098
1.47155
1
1
1
1.4716
1
1.00003
1.47132
1.47125
0.9512
1
1
0.659782
1.4273
1
1
1
1
1
1.47155
1.47305
1
1.47
1.47774
1.47232
1
1
1
1
0.66092
1.46935
1
1
1.42817
1.46995
1
1.44266
1.47823
1
1
1
1
1
1.4718
1
1
1
1
1.47914
1
1.45987
0.662347
1
0.651626
1
1
1
0.996929
0.655132
0.998985
1
1
1
1.0605
1
1
0.868567
1
1
1
1
1
1
1
0.999997
0.927453
0.999999
1
0.997611
1
0.66168
1
1
1
1
1.34899
1
1
1
1
0.65939
1
1
1.44257
1.46913
0.999999
1
1
0.888906
1
1
1
1
1
1
0.954162
1.01331
1.47195
1
1
1
1.47477
0.899177
1
1
1
1.46637
1.47067
1
1.00001
1
1
1
1
1
1
1
0.665802
1
1
1.47097
0.67025
1
1.47062
1
0.657869
1
1
0.662542
1
1
1
1
1
1
1
1.46128
1.47005
1
1
1
1
1.42957
1
1.14428
0.651516
1
1
1
1
1
1
1
1.04074
1
1
1.24272
1
1
1
1.3876
1
1
1
1
0.663787
1
1
0.651383
0.664768
1
1
1.47212
1
1.01494
1
1
1
1.32437
0.648121
1
0.640391
1
0.783752
1
1
1
1.47086
1
1
1.47072
1
1
1
1.47044
1
1
1.47033
1
1
0.657459
1
1.14248
1
1
1.47195
1.4699
1.31245
1.41974
1
0.664803
1
1
1.45029
1
0.658729
1
1
1
1.47267
1
1
1
1
1.27795
1
1.44402
1.47167
0.648534
1
1
0.651624
0.65215
1
1
1
1.32974
1.34931
1
1
1
1
1
1
1
1.19937
1.46738
1.01081
1
1.46536
0.654587
1
1
1
1.25103
1
1.09024
1
1.42935
1.47006
1
0.670335
1
1.4761
1
1
1.47138
1.44107
1
1.47268
1
0.659548
1
1
1
1.47688
1.46125
1.41356
1
1.47242
1.4723
1
1.47331
1
1.47006
1
0.662203
0.965462
0.666435
1
1
1
1
1
1.47136
1
1.47168
1
1
1
1.44659
1
0.653505
1.47151
1
0.67184
0.667859
0.649235
1
1.23081
1.03893
1.47286
1.47238
1
0.999999
1
1
1.47131
1
1
1.47134
1.47208
1
1.15707
0.999711
1
0.996796
1.47915
0.843435
1
0.807474
0.660623
0.656701
0.949116
1.46687
1.46514
1.09113
1.4715
1.47106
1
1
1.46835
1.47102
1.47107
1.46973
1
1.4725
0.651842
1.47739
1.47306
1.47271
1.47148
0.864632
0.901868
0.928461
1.47066
0.959215
1.47044
1
1
1.47374
1.47194
1
0.669487
1.46907
1.47023
1
1.47167
1.4714
1
1.47119
0.667787
1.47593
1.46551
1.47179
1.46917
1
1
1
1.47022
1.30055
0.674416
1.47056
0.661913
1.47028
1
1
1
1
1.47372
1.47126
1
1
1.47176
0.664258
1.47228
0.661517
1
1.46756
1
0.642475
1.47278
0.73318
1
1.47186
1.47343
1.47081
1
1
1.22024
1.47272
0.654948
1.47096
1
1.4714
0.89283
1.47083
0.664097
1
1.47092
0.670949
1.47397
0.661373
1
1.47225
1
1.47532
1
1.27022
1.45321
1.36753
0.64413
1
1.47113
1
1.47179
1
1.47189
1
1
1.47203
0.985466
1.47485
0.652121
1.41545
1
1.33344
1
1.47091
1.47151
1.47128
1
1.42266
1.47102
1.43499
1.28216
1.47004
1
1.31121
1
1.47274
1
1.06201
1
1.43668
1
1.47127
1.44878
1.44752
1
1.46388
0.659025
1
0.663171
1
1
1
1.47018
1
1.47233
1
1
1
1.47314
1.45736
1.38746
1.47378
1.47528
0.650228
1.46362
1.47374
1
1.40402
1.47104
1.46644
1
1.47608
1.47398
1
1.47689
1.472
1.47171
1.47317
1
1
1
1.47102
0.642529
1
1.47217
1
1
0.655164
1
1
1.4718
1.47181
1
1.47183
1.46986
1.47366
0.9764
1.47201
1
1.47201
1.47122
1.37692
1
1
1
1.47376
1.4719
1.47176
0.93136
1
1.47664
1.47189
1.47134
1
1.4717
1.47256
1.47117
1.4807
1
1.47108
1.47662
1.40582
1.47172
1.47971
1
1.47947
1.46575
1.47147
1.4769
1.46986
0.659349
1.47063
1.47321
1
1.47147
1.47133
1.47127
1.47095
1
1.47209
1.47171
1
1.47036
1.39414
1
1
1
1.47558
1.46573
1
1
1.24966
1
1.47082
1
1
1.47038
1.4732
1.47116
1.47204
1
1
1
1.32095
1
1.47085
1
1
1.47713
1.46512
1
1.47182
0.647782
1.47155
1.4739
0.726405
1
0.644758
1.40195
1.47382
1.47013
1.47004
0.652203
1.47102
1.4721
0.654558
0.651492
1
1.47113
1.47133
1
1
1.47148
1
1.46771
1
1.41015
1
1.20983
1.47135
1.47349
1.32079
1.43553
1.47296
1.47235
1.44142
1
0.66067
1.46872
1.47208
1.47551
1.00001
1
1
1.47228
1
1.47193
1.47146
0.754093
1
1.47087
0.999942
1
1.00003
1.00004
1.47187
1.47169
0.998429
1
1
1.47149
1.47318
1.4717
1.47358
1.47229
0.670696
1.42182
1
1.46748
1.47122
1.47163
1.46526
1
1.47168
1.458
1.47361
1
1.47187
1.47414
0.854229
1.47098
1.47262
1
1.47134
0.842648
1.47196
0.850207
1.47143
1
1.47147
1.47808
1.47137
1.47234
1.47143
1.47238
1.47302
1.47247
1
0.927348
1.47165
1.47127
0.842011
1.47102
0.987292
1.29797
1.47132
1.47444
1.47704
1
1.47454
1.30385
1.47312
0.921517
1.47454
1.48151
1
0.862633
1
1.47656
1
1.31987
1
1.43827
0.865606
1
1.47633
1.4708
1
1.47183
1.47304
1.48121
1.47748
1.47826
1
1.47049
1
1
1
0.89979
1.47156
1.47269
1.477
1.47146
1.46701
1.47394
1.46657
1.47196
0.899173
1.03248
1
1
1.48135
1.47214
1.47114
1.47126
1.00003
1.23671
1
1.47591
1.40553
1
1
0.746245
1.47127
1
1
0.665022
1.4712
1
1.47145
1.47088
1.47327
1.45313
1.47146
1
0.655482
1.10947
1.47223
1.47149
1
1.47174
1.47174
1.23891
1.01061
1.09855
1
1.47455
1.47183
1
1
0.65098
1
1
1.47122
1.47215
1.47221
1.47165
1.47178
1.47715
1.4714
1.47182
1.47144
1
0.995797
1.47226
1.47096
0.996507
1.472
1.47133
0.663668
0.655714
1.47343
1.47029
1
1
1.00188
1.47084
1.47181
1.47131
1
1.47188
1
0.859098
1.47623
1.47609
1
1.19923
1.47229
1
1.47449
1
1.47088
1.2956
1.4712
1
1.47262
1.47967
0.652809
1.472
1
1.47307
1.46786
1
0.665124
1.47468
1.39563
0.997608
1.44963
1.47124
1
0.998899
1.47669
0.997866
1.47171
1
1
1.47288
1
1.47651
1.47159
0.996489
1.36852
1
1.47121
1
1
1
1
1.47129
1
1
1.47902
1
1.47163
1
1.29368
1.46924
1.47329
1
1
0.995888
1
1.47047
1.47161
1.47405
1.47153
1.47319
1.47083
1.47118
1
1.47093
1.47169
1
1.47106
1.47088
1
1.46998
0.925054
1.05907
1.47106
1.47114
1.47078
1
1.47156
1
1.47137
1.47124
1
1.47205
1
1
1
1
1.47123
0.654793
0.997897
1
1.47267
1.48144
1
1.47115
1
1.00508
0.652284
1.4715
0.999579
1
1.47233
0.998325
1.47135
1
0.999763
1
1.47232
1.47842
1.47118
1.4745
0.655125
1.47166
1.47297
1.47147
1.11082
1
1
1.19963
1.47181
0.645239
0.656299
1
1.47224
1.47114
1.47023
1
1
1.47305
1.47076
0.999871
1
1.34829
0.64521
1
1.08033
1.47287
1.46342
0.998239
1.47143
1.47704
1
0.998832
1
1.47034
1.47765
1.18453
1
1.43772
1
1.00169
1.47185
0.628777
1.47139
1.47165
0.99702
0.999915
1.41704
1
0.999694
1
1.4718
1
1.00001
0.644801
1.47137
1.00001
1
1
1
1.47459
1.26368
1
1
0.662986
1.47154
1.26568
1
1
1
1.44764
1.46804
1.47206
1
1
1.46765
1
1.47127
1.47169
1
1
1.47396
1.47179
1.44941
1
1
1.47415
1.47165
1
1
1
1.47112
1
1
1
1.46977
1.47222
1.4734
1
1.47554
1.00003
0.716733
1.47152
1.47085
1
1.47664
1.44759
1.46863
1
1
1.47289
1
1.25723
1.47155
1
0.659709
1
1.47347
1
1
1.47428
1
1
1
1.14727
1.47041
0.685851
1.00001
1.47267
1
1
1.47185
1
1.47414
1
1
1.47157
1.4716
1
1.00005
1
1
1
1
1
1
1.46622
1.47166
1
1.47173
0.650608
1.47264
1
1.47135
1.47476
1.47188
1.48075
1.47008
1
1
1.47525
1
1.29232
1.47891
1.47142
1
1.47616
1.47335
1
1.41856
1
1.47136
1.29746
1.47569
0.997457
1.46314
1.42501
1.47605
1.47187
1.03693
1.47107
1.47601
1
1.47111
1
1.47165
1
1
1
1
0.995648
1.47139
1.47154
1.40351
1
1.4733
1
1
1
0.640092
1
1.45698
1
1.42815
1.45094
1
1
1
1.43273
1.47643
1
1
1.47006
0.663347
1.06666
1
1.47704
1.47142
1.42893
1.45829
1.47149
1
1.47301
1
1
1
1
1.47412
1.4725
1
1.46427
1.05147
1.47193
1.43816
1
1
1.44032
1
1
0.664359
1.32967
1
1
1.47711
1
1.47696
1.42508
1
1.4236
0.661464
1.47099
1.471
1.47183
1
0.665028
1
1
1
1.4716
1.38373
1
1.47803
1.47203
1
1.47149
1
1
1
1
1.47167
0.999318
1
1.47377
1
1
1.46344
1.47148
1
1.4764
1.08526
1.00002
1
1.47142
1
1.47122
1
1.01404
1.47156
1
1.4718
1
1
1.14556
1.47061
1
1
1
1
1
0.99684
0.638865
0.662907
1.01934
1
1.02842
1
1.03218
1
1.47182
1
1.27909
1
1.4715
1
1
1
1.47153
1
1.3636
1.47328
1
1.24536
1.47376
1
1
1.47048
1.47116
1
1
1.05025
0.643992
1
1.47136
1
1
1
1
1.0754
1.47216
1
1
1
0.665136
1
1.4714
1.47203
1.4743
1
1
1
1
1.22752
1.4703
1
1
1
1.47344
1.47135
1.04942
1
1
1
1.47158
1.4714
1
0.65502
1.47174
1.47172
1.47223
1.4696
1.46961
1
1
1.4764
1.47049
1.47194
0.664442
1.0398
1.47207
1
1
1
1
1
1.47177
0.658277
1
1
1.47206
1.20663
1
1.47752
1
1
1
0.666579
1
1
1.11594
1.47141
1.47095
1
1.46957
1.47679
1
1.06981
1
1.46709
1
1.47273
0.664222
1
1
1
1
1.47164
1.00006
1
1
1
1.45543
1
1
1
1
1.47147
0.666064
1.37006
1.4746
1
1.47139
1
1
1
0.997036
1
1.47229
1
0.811022
1
1
1.00004
1.47106
0.664651
1
1.46835
1
1.4683
1.4713
0.660874
1
1
1.45094
1
1
0.655721
1
1.46966
1
1.44947
0.999324
1.47252
1
1
1
1
1.47127
1
1
1.47133
1
1
1
1
1
1
1
1
1.30699
1
1.15008
1.4707
1
1
1
0.651708
1
1
1
1
1.4722
1.47123
1.05205
1
1
1.47249
1
1
1.47108
1
1.00002
1
1
1
1.00001
1.47289
0.779717
1.47131
1.47358
0.997197
1
1
1
1.27622
1
1
1.47145
1.47159
1
1
1
1
0.652465
1
1
1
1.29552
1
1.47195
1.47491
1
1.4734
1
1
1
1.24864
1
1.47113
1
1.47138
1
1
0.996042
1.47145
1
1
1
1
1
1.47196
1.00002
1
0.665415
1.46931
0.665844
1
1.47214
1
0.995927
1
1.47235
1.47812
1
1.4608
0.876619
1.47127
1.46692
1.00003
1
1
0.651528
1
1
1
1.47174
1.26746
1.47064
1
1
1
1
0.996759
1.47341
1
0.663361
1
1
1
1
1
1
1
1.47953
1.47145
1.47758
1
1
0.996883
1
0.975212
1
1
1
0.651133
0.973496
1
0.648924
0.652194
1
1.47191
1.47152
1
1.47391
1.47154
0.657832
1.31548
1
1
1
0.663725
1.46987
1
0.655627
1
1.47934
1.07183
1
1
1
1
1.47137
1.47069
1
1
1.47147
1
1
1.46853
1.47179
1
1.43842
1.47087
1.47803
0.962442
1.47431
1.00818
0.6622
1.35812
1.47147
1
1
1
0.655911
1
0.641195
1.47851
0.963417
1.47122
0.952155
1
1.47271
1.21047
1
1
1.47533
1
1.19249
1.46999
1
1
1.47472
1.46238
0.658043
1.2693
0.999896
1
1.27691
1
1.47312
0.95063
1.48104
1.47645
1
1
1
1
1.45586
1
1
1.4711
0.999639
1.47168
1.37936
1.47346
0.664388
1
1
1
1
1.47132
1.00004
1.47186
1
1.47223
1.47016
1.05868
1.4783
1.14545
1.4721
1
1.31982
0.677498
1.4746
1.47142
1.38722
1.07655
1.47258
1.4714
1.47181
1.47072
1
0.930136
1.06596
1
1.47177
1.21712
1.47213
1.00003
1
1
0.681924
1.46969
1.47511
1.38387
1
1.17519
1
1.47645
1.47707
1
1.47327
1.475
1
1
1
1.4735
1
1.17954
1.46922
1.32481
1
1.47329
1
1
1
1
1
1
1
1
1
1
0.678943
1
1.43361
0.659104
1.27524
0.99858
1.46892
1
1.24406
1.00001
1.2973
1.39405
1
1.00205
1.47749
0.923376
1
1.47652
1.45361
0.944236
1
1.47286
1.47079
1.47506
1
1.47119
1.47414
1.474
1
1.20932
1
1.00006
1.4721
1
1.47202
1.0646
1.47202
1
1
1.47059
1.47609
0.675844
1
1.47067
1.34966
1.47054
1
1
1.47706
1.47097
0.998246
1
1.41603
0.996872
1.47205
1.00006
1
1
1
1
1.20567
1
1.35578
1.47321
1.34871
1.46971
1
1.0033
1
1
1.47463
1
1.47448
1
1
1
1
0.999999
1
1.057
1.24163
1
1
0.652221
1
1.46934
0.695052
1.47854
1
1.23394
0.999752
1.4723
1.2958
0.673973
1.25368
1.00003
1.47296
1.47463
1
1.27827
1.47675
1.47279
0.998404
1.47479
1.45787
0.663456
1
1
0.997646
1
1.46094
1
0.684309
1.4683
1
1
1.40827
1
1.4732
1
1.46993
1
0.687674
1
1
1.47156
1.47657
1.47608
1
1.4722
1.47137
1.46332
1
1
1.47073
0.999999
0.736484
1
1
1
1.47246
1
1.47121
1.30465
1.47386
1
1.47139
0.999384
1
1
1
1
1
1
0.728562
1
1
1.47117
1
1.47155
1.46848
1
0.649456
0.661453
1
1.47356
1.0738
0.659312
0.636338
1
1.47353
1
1.47591
0.647475
1.00117
1
1
0.999497
1
1
1
0.999911
1.19298
1.47139
1
1
1.47323
1.27016
1
1.41669
1.46903
1.47356
1.19386
1.46739
1
1.47163
1
1.45359
1
1.47284
1.46996
0.996656
1.47263
1.47241
1
1
1
1
1
0.921129
1.47486
1.00004
1.00003
0.649559
0.999994
0.650151
0.651365
1
1.47019
1.47133
1.47222
1
1.47168
1
0.663951
1
1
1.47368
0.828972
1.46982
1
1.47211
1
0.985367
1.47148
1
1
1
1.47119
1
1.47233
0.657702
1
1
1.26808
1
1
1.25284
1
1
1.47108
1
1
1
1
1
1.47754
1.47177
1
1.47368
1.47335
0.660919
1.21092
1.47303
1
1
1.42293
0.999063
1
1
1.47161
1.47333
1.32445
1
1.4699
0.646226
1.4334
0.999264
1
1.47179
1.00004
1.47316
1.38088
1.35351
1
1
1.47163
0.727645
0.649733
1
1.47084
1
1.47183
1
1.27832
1
1
1.47039
1.29992
0.657269
1
0.998127
1
1
1.02579
1.19225
1.47158
1
1.4747
1
1
1
1
1
1
1.06845
0.65833
1
1
1.037
1
1
1
1
1
1.47169
1
1
1.47142
1.47127
1.34177
1
1
1
0.844181
1.47692
1.32526
1
1
1
1
1.47069
1
1
1
1.47098
1
1
1.3354
1.48683
1.04259
0.751644
1.46857
1.33266
1.47096
1
1.22549
1
1
1
0.656081
1.00331
0.65231
1
0.647159
0.641644
1
0.65609
1
1
1
1.20657
1
1.47137
1.47239
1.00142
1.22863
1.39283
0.648742
0.774563
0.881806
1
1.47148
1.47225
1.47144
1.47159
1.40196
0.879036
1
1.40551
1
1.45069
1
1
0.996501
1.00948
1
1
1
1.47484
1
0.650169
1
1.473
0.663007
1
1
1.47152
1
1.47126
0.99947
1
1
1.47226
1.42569
1
1.48927
1
1
1.01509
1
1.20205
1
1
0.661974
1
1
1.46915
0.999999
1.47079
1
1.00003
0.653985
1
1
0.656106
1.00089
1
1.47157
0.652209
1.47414
0.664904
1.47053
1
1
1
1
1
1
1
1
1
1
1
1.45201
1
1.47332
1.47041
0.657806
1
1
1
1
1
1
1.45748
1
1
0.663626
1
1
1.47148
1
1
1.17029
1.39536
0.673353
0.657464
0.722414
0.759725
1
0.996769
0.655518
1.00024
1.42299
0.996908
1
1
1.47052
1
1
1
0.773513
1.00001
1.16722
1
1
1.18817
1.47117
1
0.652004
1
1
1
0.996677
1
1.47082
1.47159
1
0.653153
1
1.25052
0.660368
1
0.884226
1
0.996647
0.638721
1
1
1
0.9957
0.654614
1
0.648596
0.998425
1.23904
1.4196
0.657305
0.670589
1
0.990534
1
0.998671
1
1.47162
1.47067
1
1.01603
1.47054
1.4719
1
1
1.47131
1
1
1.00004
1
1.47996
1
1
1.01823
1
0.998585
0.719402
1
1
1
1
1
1.46883
1.03731
1.00005
1
1
1
1
1
1.00003
1
0.665705
1.108
0.998613
1.44981
1.47199
1
1.01476
1.47096
1.4064
1
1
0.663854
1.47319
1
1.47049
1
1.46987
1.32379
0.658886
1
0.661107
1.45005
0.999679
1
0.658521
0.662216
1
1
1.3952
1
0.999998
0.650515
1
1
1
1.14469
1
0.658274
1.47325
1
1
1
1
1.47144
1
1
1.47378
1.42146
1
1
1
1.4762
0.642168
1
1.47294
1.47127
1
1.37476
0.999999
1.00003
1
1
1.42963
1.02027
1
0.655374
1.2439
1
1
0.997772
1
1
1.47787
1
1
1.00003
1
1.47326
1
1
1
1
1
1
1.00001
1.20551
1
1.47255
1
1
1.47308
1
1
1
1.47156
1.46839
1.04395
1
0.997522
1
1
1
1
1.47064
1
1
1.47089
0.662379
1
1
1
1
1
1
1.3766
1
1
1.47586
1.4713
1
1
1
1.4734
1.46922
1
0.999678
1.47346
1
1
1
1.00002
0.655527
1.03097
0.995974
0.996202
1
1
0.66219
1.47021
1
0.668238
1
1.47348
1.45132
0.671878
0.999405
1.47154
1.47331
1.47056
1
1
0.925238
1.42566
1.39237
0.66608
1
1
1
1.4739
1.47037
0.651118
0.997369
1
1.47171
0.664256
1
1.4584
0.656637
0.969198
1.00641
1
1.47092
1
1
1
1
1
1
1.00011
1.4377
1
1
1.46881
1
1
1
1.47111
1
0.664198
1
1
1
1.15435
1
1
1
1
1
0.797071
1
0.6649
1
1.47216
1.00007
0.875567
0.88418
1.00002
1.00403
1.2388
1
1
0.6385
1.47191
1.47218
1.47106
1
0.656621
0.653295
1
1.47107
1
1
1
1
1
1.00003
1
0.655912
1.30245
1
1
0.668741
0.987579
1.00001
1
1
1
0.638607
1
0.6954
1
1
1.48164
1
1
0.662043
1
1.47155
1
0.649118
1
0.655114
1
1.00767
1.47114
1.49093
1
1
1.47207
1
1
1.10425
0.996765
1
0.998109
1
1.47614
1
0.652969
1.00002
1.46891
0.998631
1
1
0.795431
1
0.998968
0.657968
1.47268
1.1671
1
1.00001
0.902471
1
1
1
0.795888
1
1
1
1.47169
1
0.658375
0.999999
1
1
1
0.655425
1.47123
1.43231
0.666568
1
1.47246
1
1
1.47166
1.47238
1.39632
0.65169
0.99766
0.999218
1
1.47151
1
1
1
1
1.4715
1.00004
1
1
1.47622
1
1
1.47153
0.650217
1
1
1
0.660474
1
0.999999
0.999999
0.998656
1
1
1
1
1.35711
1
1.47131
1.47153
1.47749
1.47204
1.47321
1.47113
1
1.47326
1
1.47205
1.47157
1
0.998913
0.650753
1.4032
0.999902
1
1
1
1
0.996935
1
1.07188
1
1
1
0.863572
1.47146
1.47107
1.47539
1.40182
0.999879
1
1.02198
1.47323
0.997883
1.05435
0.996981
0.667042
1
1.00002
1
1
1
1
1
1.47119
0.660572
1.4711
1.47129
0.994885
0.664551
1
1
1
1.47158
0.662981
1.4149
0.649853
1.47181
1.47748
0.657683
1.46956
1.02484
1
1.47602
0.772246
1
0.998847
0.654132
1
0.662708
1
1.47141
1.47128
0.759234
1
1.47119
0.666218
1
0.657138
1
1.47163
1
1
1.46207
1
0.842103
1
0.999713
0.663749
1.46174
0.999483
1
0.654427
1
1
1
1
1.25287
1
1.47077
1
1
1.48707
1
1
1.47259
1
0.661095
1
0.671577
1.00001
1
1
1
1
1.45059
1.27193
1.47162
1
1.47157
1.43671
0.640174
0.65165
1
1
1.47143
1
0.658532
1
0.989832
1
1
1.47049
1
1.47318
0.671819
1.48955
1
0.667358
1
1
1.47635
1.46997
1
1.00004
1
1.47621
1
1
0.644926
0.9994
0.661862
1
1
1
1.47352
1.47182
1.46997
1
1
0.66515
1
1.47602
1
1
1
1.4574
1.47162
1.47206
0.657681
1.47409
1.47124
0.684961
1.47139
1.00004
0.691815
1.01167
1
1
1.47285
0.65764
1.29551
0.662834
1.47123
0.997482
0.656664
1.47525
1
1
1
1
1.47168
1.47196
0.652261
1
1.00002
0.661547
1.00004
1
0.666179
0.650574
1.32681
1.47126
0.998477
1.47183
1
1.4798
0.818413
0.660848
1.47153
1.48067
1
1.47186
1
1
1.4708
1
1.3569
1.47
1
1
1
1
1.47177
1.46553
1.47215
1
1
1.47424
1.46858
1.4705
1
1.47135
1
1
1
1
1
0.658318
0.833536
0.669516
1
1
1.4733
1
1
1.47467
0.648972
1
1.4715
1.46585
1.45052
0.645362
1
0.656298
1
1.00003
1.47193
1.21215
1.4718
1.42696
1
0.666745
1
1.46901
1.33356
0.655905
1
1
1
0.799626
1
1
1.47973
1
0.664534
1.47188
1
1
1
1
1
1.37551
1.10551
1
1.4704
1
1.47429
1
0.99737
1
1.47041
1.47724
1.47049
1.47846
0.9996
1.47082
1
1.47146
1.47115
1.39719
1
1
0.65157
1.47003
1
1
1.47104
1.47175
1.47398
1
1.47227
1
1
1.00003
1.47604
1.46851
1.13449
1.09617
1.47183
1.47119
0.681632
1
1
1
1
1.00002
1.16047
1
1
1.39382
0.657911
0.999971
1
1.47153
0.999883
0.999813
1.0703
1.4241
1.47313
0.906258
1
0.671693
1
0.995076
1.47158
1.47337
1.4736
0.999019
1
1
0.652242
1
1
1.47164
1.05057
1
1
1
1
1
1
1
0.999936
1.47312
1.00002
1
1
1
1
1.28797
1
1.21876
1
1
1.47144
1.47877
0.659876
0.998746
1
1
1
0.653654
1.46911
1.47192
1
1
1
1
1
1
1
1
1.4718
1.47322
0.648653
1.0497
0.653382
1
0.655786
1
1.4716
1.12399
1
1
0.70958
1
1.44884
0.810314
0.996918
0.650214
1
1
1.47376
1.00004
0.997451
0.640258
1.47134
1.47945
1
1
1
1
1.43941
1
1
1.47172
0.998987
1.47137
1.00008
1
1
0.661666
1
1
1.4734
0.649186
0.778681
0.656458
1.47146
0.999311
1
1.47649
0.660329
0.66092
1.01367
1
1
1.47097
1.00004
1.20236
1
1
1.47088
0.66055
1
1
1.00013
1.47168
1.00016
1.46843
1
1.00003
1
1
0.730509
1
0.785503
1.00002
1
1.47101
0.66765
1
0.773235
0.79615
1
1
1.47238
1
1
1
1.46981
1.47205
1.00005
1.4634
1.47096
0.784789
1.47154
1.44607
1
1
1.47393
0.999999
1
1
1
1
1.47297
1.47207
1
1
1
1.4724
1.0002
1
0.658977
0.729992
1
1.00003
1.16517
1
1
0.89135
0.658535
1
1
1
1.47784
1.42974
1.47143
1
1
1
1
0.665312
1
1.45502
1
1.4697
0.648514
1.46897
1
1
1
0.665583
1
1.47165
1.00003
1
0.659653
1.16816
1
0.999646
1.46994
0.647985
0.667757
1
1.47232
0.658037
0.658671
1
0.663248
1.00001
1
1
1
0.665171
1
1
1
1
1.47111
1
1.35844
0.661902
1
1
1
0.669333
1.47037
1
1
0.996507
1.45778
1
1.47109
1.47144
1
1
0.725778
0.65699
1
1
0.665991
1.14189
1.21489
1
1
1.47301
0.99737
1
0.997709
1.47342
1
1
1
1
1
1
1.47273
1
1.15926
1.15207
0.708817
1.41822
1
1.47187
1.47138
1
1
1
0.910637
0.674109
1
1.22303
0.999648
1.42081
1
1
1
0.999999
1
1.00705
1.20503
1.47257
1.47222
1
1.472
1
0.654295
1
0.997676
0.999778
1
0.647653
1
0.65144
1.00002
1.47473
1.47029
0.647696
1.47792
0.661127
0.996166
1.35152
0.659799
1.3352
1
1
0.998431
1
1
1
1.00006
1
0.653924
1
1
1
1
0.999606
1.47185
0.807467
1
1
1
1.03712
1
1
1
1.25948
0.751476
1
1
1
1.04489
1.46815
1
0.666015
1
1.4736
0.895163
0.667926
1
0.656541
1
1
1.44416
0.998229
1.45085
1
1.00893
1
1
1.47097
1
1
1
1
1.09009
1
1.47171
1.47354
1.47399
0.657745
1.47231
0.997132
1.38375
1
1
0.650417
1
1
0.649254
1.4699
1
1
0.999957
1
1
1
0.638875
0.660539
1
1.47416
1
1.21454
1.47157
0.654253
1.39735
1
1
0.685095
1
1
1.4715
1.47105
1.16195
1
1
1.00174
1.4715
0.658415
0.644247
1.47149
1.47106
1.3195
1.18313
1
0.899084
1
1
1
1.44864
1.47857
1.47346
1
1
1.46982
0.657233
1.42564
0.632292
1
0.646537
1
0.653113
1.47172
0.644989
1
0.977664
0.703487
1
1
1
0.848794
1.44231
1.47245
1.47146
1.46974
1
1
1.46983
1
1
1.47293
1
0.668903
1
0.665781
1
1.47201
1
1
1.01585
1.35411
1
0.998711
0.650782
1.47097
1.00001
0.664641
1.08572
1
1
1.35114
1.47054
1.47108
1
1.47298
1.12472
1
1.02394
1.47121
1
1
1
1
1.47163
1
0.656936
1.4733
0.654577
0.671503
0.83846
1.4729
1.15927
1.47088
1
1.47276
0.99735
1.00003
1.47182
1.4712
1
1.46939
1
1.47106
1
1.4716
1
1.00004
1.00001
1.47327
0.648757
0.652117
0.997695
0.999999
1
1
0.654362
1
1.30308
1
0.649058
1
1.17765
1.47146
1.4729
1
1
1.00003
0.999375
1
1.47299
1.47093
1
1.19526
1.47195
0.844555
1.47129
1.00009
0.655573
1.09913
0.668538
1
1
1.07845
1.47241
1
1
1.03999
0.998581
1
0.656045
1
0.780344
1
1.46964
1
1
0.66154
1.10853
1.05836
0.998477
1.47202
1.47153
0.770631
0.998101
0.646202
0.661339
0.65515
1
1
1
0.99908
0.729668
0.656699
1
1.47125
0.999745
1.47185
1.47287
1.47068
1.47085
1
0.659218
1.47307
0.676471
1
1.47068
1.4791
0.996734
0.807877
1.47068
1.34127
1
0.658038
1
1
1.47016
1
1.02657
1.47065
1
0.669325
0.649721
1
1
0.646827
0.645295
1.47209
1.00005
1
0.645186
0.652044
1.47091
1.45613
1.4396
1.47095
1.11983
0.972866
1.19122
1.47836
1.376
1
1.24302
1
0.647513
0.857719
1
0.652764
1.47097
1.02274
1.47276
1
1.47199
1.47152
1
1.47183
1.47158
0.653297
1.4761
1
1.48706
1
0.738705
0.653693
1.47243
1
1
1
0.655689
1.47277
1.4727
1
0.659759
1
1
0.650888
1.00004
0.635841
1.472
1
0.813784
0.651398
1
1
1.27244
1
1
1
1.07461
0.657478
1
1.00001
1
1.47116
0.658694
1
1.47091
0.652494
0.667428
1
1
1.4793
1
1.47052
1.00001
1.4717
0.655351
1
1
0.659093
0.808468
0.661614
1
1
1
1
1.47616
0.650641
1
0.656369
1
1.4724
1
1
0.925889
1
1
0.828072
0.999684
1.00005
1
0.655996
0.659911
1
1
1
1
0.795538
1.46962
1.47367
1
0.666648
0.647786
0.903643
0.66106
1
0.821926
1
0.667924
0.976767
1
1
0.659176
1
1.47236
1.45849
0.655975
1
1
1
1.47036
1
1.04577
0.831119
1.14689
0.645086
1.18451
0.649655
1
1
0.7148
0.908261
1
1.03942
1
1
0.657949
1
0.927452
1.04878
0.655812
1
1.37889
0.741189
0.878467
1
1
1
0.653137
1
0.654741
0.668208
1
0.850301
0.656988
1.06006
0.740136
0.646288
1.47168
1
1.47132
1.25237
0.739484
1.47178
0.660834
0.998957
1.47182
0.999999
1
1.47169
1
0.722546
1
1.0614
1
1
1.47158
1
0.768972
0.826232
1.47132
0.927799
1
0.761879
1.47141
1.46912
0.908923
1
1.47154
1.12217
0.845709
1
1.01383
1
0.657629
1.19793
0.766844
0.734328
1
1
0.662104
1.47093
0.961623
0.66382
0.652737
0.85924
1
1.00365
1.47289
1.47092
1
1
0.999999
0.659135
1.22084
0.999994
1.47298
1.43373
0.657392
0.999989
1.09757
0.880149
1.26979
1.40234
1
1.0438
1
1.00005
0.649231
0.844013
1
1
0.820546
0.652661
1.04222
1
1.00002
0.643033
1.21071
1
1.47447
1
1.03969
1.24493
1
1.46794
1
1
1.47286
1
0.648763
1.47071
0.703442
1.12357
1
0.660341
0.999912
1
1.00003
1
0.795892
1.02756
0.659361
1.34235
1.47288
0.636924
1
1
1
1
1
0.964681
0.658019
1.04822
0.665152
0.654222
1.08119
1
0.999799
1.12149
1
1
0.65733
0.990335
1
1
1.1309
1
1.47031
1
1.4694
1.0916
1.02683
0.659568
1
1
0.660478
1
1
1
1
1.47145
1.04326
0.998027
1
0.655868
1.05086
0.999999
1
1.30231
1
0.662269
1.46992
1
1.00001
1
1.47359
0.656862
0.857634
0.655777
1.35414
1.47064
1
1
1.47076
1
0.650398
1
1
1
1
1
0.757223
1
1.47306
1
1
1.15413
1.47123
0.662509
0.867134
1
1.47171
1
1
1
1
1
1.47139
1.46904
0.649074
1.47108
0.648558
1
1
1.47166
1
1.47115
1.00674
1.02818
1.05876
1.47277
1.07145
1.31333
0.645742
1
0.65393
0.977719
1
1.4711
1
1
0.644381
1.47393
1
1.46878
1
1
1
1
1
1.00001
0.649999
1.47295
0.845982
1.47152
1
0.653101
0.664165
0.736815
1.48014
1.47198
0.96582
1
0.7916
1
1.17578
1
1.47295
0.646095
0.656353
0.855328
1
1.47094
1
1.08656
0.684622
1
1.46937
1.43589
0.99883
1
1.47181
0.658893
1.47551
1.47223
1.47909
0.657213
1.08564
1
1
0.644096
1
0.814803
0.826474
1
1.00002
1.47265
1
1.47522
1.08565
1
1.04404
1.47357
1
0.660668
1
0.764834
1
1
1.38571
1
0.794394
1
0.656462
1.03834
0.948737
0.650599
1.47224
1.37984
1.47217
0.660543
0.711588
0.995974
0.999999
1
0.689335
1.44394
0.654927
0.999972
1
1.47112
1.47232
0.901645
1
0.656858
0.706193
1.30617
0.980794
0.656471
0.999999
0.655362
1.11879
0.658114
1
1.00006
0.820994
1.47168
1.4726
0.826638
0.999587
1
1
0.732738
1
0.650522
1
0.654177
0.658059
1
1
1.00003
0.65914
1.47134
1
1
1.00007
1.00004
0.664895
1.47265
1.47158
0.999999
0.662585
1.47156
1
1.10018
1
1
1.46969
0.646083
1
1
0.661315
0.745975
0.658472
0.670299
1
0.696659
0.997257
1.09221
0.646072
1
1
1.13318
1
1.41678
1
1
1.33775
0.669382
1
0.657893
1.12724
1.47269
1
1
0.659731
0.659187
0.647294
0.730396
0.651947
1.34997
0.999399
1
1
1
1
1.47037
0.654182
1
0.938572
0.99969
0.99873
0.999935
0.741062
1.12945
1
1.47165
1.47107
1
1
1.45355
1.00004
0.999999
1.47182
0.661501
1.46989
0.999999
0.652563
1.47139
1.00005
1
0.822889
1
0.644608
1
1.47213
1
1
1.47369
1
1
1.47178
1
1
1
1.47129
1
0.747103
0.715101
1
0.627622
1.47213
1
1
0.976895
1
1.47366
1.26973
1.37806
1
1
0.665192
1
0.650909
1.472
1.47178
1.47211
1
1.47361
0.654772
1
0.666152
1.37539
1.43487
1.4742
1.47316
0.756348
0.655491
1
1.30505
1.47319
1.47184
1.47164
0.749086
1.16672
1
1.35156
0.74483
1
1.00002
1
1.00002
0.891857
1
1.47073
1
1
1
1
1
1
1.00006
1.46574
1
1.47385
1.34615
0.644912
1.47253
1.0248
1.23655
1
1.47114
1
0.653324
1
1
1
1
1.40086
1
0.641549
1.47225
0.637016
1.47131
1.37268
1.23517
1
1.08697
1.22168
0.995569
0.668488
0.776105
1.00002
0.999999
0.914999
1
0.645259
1.47294
0.645438
0.925938
0.856688
1
1
1
1.01485
1
1
0.661594
0.99678
1.47194
1
1.47108
1
0.652251
1
1
1.47138
1.47036
0.642557
1
1.4706
1
0.81225
0.651528
1.47178
1.42285
1
1.07863
1.47215
0.998673
1
1.19629
1.41372
1.46896
0.995483
1
0.999998
1.39945
1
1
1
1.4713
0.998516
1
1
1.47106
1
1
0.659197
1
1
1
1.47165
1
1
0.856663
1.14155
1.42441
0.771668
1
1.47219
1
1.15784
1
1.47115
0.997239
1.47238
1
0.662064
1
1.32868
1
1
1.43916
1.00002
1.47144
1
1.46921
0.697417
0.662081
1.47065
1
1.39757
1
1.47189
1
1
1.00005
1.47323
1.47507
1.12601
1.47089
0.995936
0.661383
1.46993
0.867024
1
1.47134
1
1.47065
1
1.47409
1.47111
0.99638
0.647905
1
1.47132
1
1.0206
1
1
0.997975
0.75158
1.42081
1
1.44572
1
0.869527
0.646786
1.47109
1.4706
0.710801
1
1.47284
1.47497
1.47281
0.692113
1.47002
0.67437
1.47238
1.47578
1
1
1.47182
1
1
1
1
0.661591
1
1
1.47219
1.47123
1
1.47154
1
1.47611
1.47102
1
1.38932
1
0.634004
1.47104
1.34742
1.13326
0.637582
1.47176
1
1
0.659213
1
1
1.47167
1
1
0.790131
1
1.47135
1.00009
1.47234
0.644758
1.46933
1
1.47164
1.45311
0.890487
1
1.47006
0.76947
1.47897
1.32779
1.47144
1.46954
0.997075
1.46599
1.47087
1.47235
1.47074
1.00021
1
0.655769
1
1.4716
0.813653
1.42684
1
1.46271
1
1
1
1
1
1.46928
0.652161
0.66426
1.47129
1.47174
1
1
1
1
1
1.46709
1.42514
1.47181
1.01202
1
1
1
1.00003
1.47034
1.47156
1
1.47449
1.47106
0.653917
1.32813
1
1.47216
1.47633
1.46826
0.997748
1.47287
1.47278
1
1.42154
1
1
1
1
1
1
1.47131
1.47153
1.43761
1.47163
0.653705
0.698313
1.47136
1.47206
1
0.648185
0.939851
1
1.22545
0.6438
1
0.999458
0.998274
0.65839
1
1.47107
1
1
1
1.47036
0.951005
1
1.4714
1.47185
1
1.47154
1
1
1.47169
1
0.643043
1
1.47073
1
1
0.660061
1
1.47207
1
0.632308
0.649178
1
1.45702
1
0.63689
0.89281
1
1.47064
1
1
1
1.47707
1
0.642615
1.06094
1.47167
1.47353
1.47069
1.04569
1.47393
1.47149
1
1.00002
1
1
1.00001
1.47161
1
0.999305
1.47065
1
0.636605
1
1.4712
1.21888
1.04479
1.2154
1.05841
1.46178
0.70046
1.47156
1
0.667648
0.99717
1.47134
0.922856
1.47157
1.47144
1.45142
1
1.471
1.47165
1.47143
1
1.00004
1
1
1.47193
1.33133
1
1
0.653316
0.996692
1
1.47057
1
1.47112
1.47179
1.47046
0.905401
1.47169
1.47243
1.0069
1.22322
1.47189
1.47062
1
1.43338
0.838526
1.46586
0.980305
1.47084
1
1.47115
1.4704
1
0.661709
0.932513
0.709724
1
1.08081
0.996523
1.46919
1
1
0.996852
1
1.23693
1.44462
1
1
1.47243
1
1
1.33268
1.47191
1.4525
1.47101
1.47182
1
1.46985
0.743084
1.46933
1
0.990495
0.647155
1
1
0.746362
1
1.13859
1
1.47273
1
1.46222
1.29559
0.658847
1
1
1
1
1
1.47195
1.01156
1
1.47292
1
1.47201
1.47159