/*--------------------------------*- C++ -*----------------------------------*\
  =========                 |
  \\      /  F ield         | OpenFOAM: The Open Source CFD Toolbox
   \\    /   O peration     | Website:  https://openfoam.org
    \\  /    A nd           | Version:  12
     \\/     M anipulation  |
\*---------------------------------------------------------------------------*/
FoamFile
{
    format      ascii;
    class       surfaceScalarField;
    location    "6.75";
    object      phi;
}
// * * * * * * * * * * * * * * * * * * * * * * * * * * * * * * * * * * * * * //

dimensions      [1 0 -1 0 0 0 0];

internalField   nonuniform List<scalar> 
33852
(
0.000251329
2.24281e-05
-0.000273757
-0.000246121
1.32441e-05
0.000232877
-0.000173254
-7.08735e-05
0.00024378
0.000304053
-0.000163969
-0.000140085
0.000293627
-4.3183e-05
-0.000249885
2.72441e-05
-0.000260681
0.000233437
0.00031552
1.48061e-05
-0.000330465
0.000304277
-9.59564e-05
-0.000208321
0.000286413
-3.50841e-05
0.000198524
1.69893e-06
-0.000194114
0.000289336
-0.000366424
7.70097e-05
0.000360685
-4.57763e-05
-4.39602e-05
0.000263285
-0.000219325
-4.38564e-05
0.000318218
-0.000274357
5.92485e-05
-0.000235143
0.000252057
1.2236e-05
-0.000264293
0.000264853
-1.2796e-05
-0.000278433
3.23121e-05
0.000340519
-5.11914e-05
0.000158593
0.000112308
-0.000270901
-2.43456e-05
0.000303249
-0.000278923
0.000271377
-0.000276165
4.78802e-06
-1.77102e-05
0.000275694
-0.000257205
-0.000218991
1.41716e-05
0.000205157
-0.000153755
-0.000183466
0.00033714
-0.000148321
-7.05033e-05
0.000215606
3.72401e-05
0.000267037
-6.1499e-05
-0.000263814
0.000325385
-0.000206513
1.56255e-06
0.000202941
-0.000201796
-1.84503e-05
0.000142045
0.000137388
-0.000279433
0.000340751
1.92891e-05
0.000142618
0.000128347
-0.000270965
-0.000101136
0.000259729
-0.000250489
-3.78001e-06
0.000254269
0.000330681
-5.95706e-05
-0.000271186
-0.000358013
0.000203629
-0.000227211
0.000209917
0.000231645
3.32081e-05
-5.65602e-06
0.000237301
-7.94577e-06
0.000214449
-0.000232625
0.000259869
0.000315238
-5.71884e-05
-0.000258436
-0.000309093
5.51042e-05
0.000253989
0.000240835
-0.000302252
0.000273589
-0.000306321
3.27321e-05
-0.000180237
-5.49362e-05
0.000235173
0.000272133
-0.000272133
0.000148429
-0.000297473
0.000149045
-0.000208826
0.000216241
-7.24439e-06
-0.000268241
0.000237301
3.09401e-05
-0.000197966
0.000244261
-4.64072e-05
-9.16164e-05
-0.000217477
-0.000114612
-0.000251886
-0.000280169
0.000266113
1.40561e-05
0.000328725
1.17832e-05
-0.000250433
7.01963e-05
0.000117908
0.000145909
-0.000263817
1.34681e-05
-0.000267457
0.000253989
-0.000134569
0.000282997
-0.000153809
-5.191e-05
0.00020604
-0.000274681
0.000245113
2.95681e-05
0.000237553
-0.000268437
3.08841e-05
-0.000186934
-2.34779e-05
0.000151665
0.000115565
-0.00026723
-0.000192739
-2.8679e-05
0.000221496
0.000263985
2.24281e-05
0.000275941
-2.35201e-06
0.000265329
-0.000250741
-1.45881e-05
0.000228993
-6.46956e-05
-0.000160481
-1.82001e-06
0.000239373
0.000366407
-0.000313201
-5.39736e-05
-2.80752e-05
0.000303649
-0.000275305
-0.000101584
0.000219493
0.000341722
2.41719e-05
-0.000370894
0.0003524
1.78855e-05
-0.000213748
2.28443e-05
0.000309695
-0.000322762
1.23826e-05
-0.000208548
0.000271714
-6.44955e-05
-4.45202e-06
1.70946e-05
-0.00031939
0.00030224
0.000235718
-0.000199699
-3.52161e-05
0.000268741
-0.000338208
6.987e-05
0.000333311
-6.3348e-05
-0.000268941
0.000236573
3.23681e-05
-0.000129388
-0.000132609
0.000261997
-1.86761e-05
-0.000249565
-1.022e-05
-0.000258721
2.37637e-05
0.000208935
-0.000232598
3.08215e-05
-0.000218604
0.000191241
-2.49137e-05
0.000327362
-0.00030201
-0.000279329
0.000273701
5.62802e-06
0.000156129
-0.000296857
0.000140729
-5.89111e-05
-0.000148254
0.000206525
0.000143277
0.0001218
-0.000265077
-0.000250056
0.000225704
-0.0002085
0.000149319
-0.000168813
0.000327181
-0.000158369
0.000185389
7.16523e-05
-0.000257041
0.000255193
2.07481e-05
-0.000192277
0.000148317
5.01043e-05
0.000265272
0.000307124
-0.000290074
9.38208e-05
-0.000242753
0.000135241
0.000117096
-0.000281065
-1.15499e-06
0.000245275
-0.000244859
0.000166489
0.000122836
-0.000289325
0.00014507
9.04836e-05
-3.92002e-06
0.000259113
0.000302996
5.30889e-06
-0.000324087
0.000315151
8.98204e-06
-3.99002e-05
0.000236293
-0.000196393
4.08802e-06
-0.000284257
-2.56777e-05
0.000164882
-0.000141463
-0.000159018
0.000131355
0.000207366
-0.000172323
-0.000269921
0.000264965
4.95602e-06
2.64041e-05
0.000174721
-0.000201125
2.87841e-05
-0.000257265
0.000228481
0.000276137
-0.000262669
0.000115108
0.000212073
0.000213822
-0.000191325
-0.000175813
0.000202217
1.35901e-05
0.000283405
-0.000296641
0.000269835
2.17331e-05
0.000271723
-0.000284623
1.23938e-05
3.86402e-06
0.000267513
-1.8132e-05
0.000289324
0.000330589
1.00328e-05
0.000213674
-0.000257601
0.000316602
-0.000316507
-6.63603e-06
-0.000272693
2.81461e-05
0.000202313
0.000187993
3.98722e-05
-0.000227865
-5.48615e-05
0.000217523
-0.000165497
0.000153609
-0.000270285
0.000116676
0.000279441
-0.000329701
5.02602e-05
-6.38122e-05
0.000249201
-0.000166909
0.000315897
-0.000148989
-0.000314006
-1.00252e-05
-0.000214929
0.000175029
2.78601e-05
-0.000278349
0.000276221
-1.88441e-05
-0.000248613
1.71228e-05
-0.000301287
0.000284865
0.000344989
-0.000158593
-0.000186397
-1.68615e-05
-0.000241144
0.000257987
-0.000266617
-3.30401e-06
0.000224001
2.45841e-05
-0.000248585
0.000284509
-0.000128381
0.000140197
0.000138853
-0.000279049
-0.000198318
-1.05169e-05
0.000258169
-0.000115551
0.000225722
-0.000242535
-6.38122e-05
0.000251805
-0.000209878
0.000249481
-5.60002e-07
-0.000248921
0.000255109
-0.000237441
-0.000324043
0.000299188
-3.08841e-05
0.000203169
-0.000172285
0.000292299
1.32246e-06
-0.000293541
7.35029e-05
0.000128861
-0.000204435
4.64732e-05
-0.000199756
-0.00028937
-4.65939e-06
0.000292844
-1.49316e-06
-0.000288486
0.000146973
-0.000273925
0.000126952
-0.000262842
0.000220486
-0.000294322
0.00026599
0.000279441
-0.000311922
-1.24044e-05
0.000325216
0.000110461
0.000160903
-2.13435e-05
0.000352001
0.000140141
0.000139833
-0.000279973
0.000245029
-0.000250349
5.32002e-06
-0.000210953
0.000180069
0.000279133
-5.43202e-06
0.000350923
-3.26544e-05
-0.00030118
0.000303528
-3.46791e-06
0.000270985
-0.000270985
-0.000364887
0.000226041
0.000138817
-0.000208944
1.99271e-05
1.69173e-05
0.000275157
-0.000278461
3.30401e-06
-5.4495e-06
0.000173588
-0.000169607
-0.000197345
0.000254801
-5.74562e-05
-0.000202611
4.28133e-06
-0.000242969
0.000159795
8.13992e-05
-0.000180264
0.000261402
-8.11344e-05
0.000256285
-0.000287113
3.08281e-05
-0.000249229
5.18842e-05
-2.35805e-05
0.000276202
-0.000252765
-0.000253547
1.35801e-06
0.000252189
0.000231281
-7.28003e-06
-0.00029424
7.62951e-06
0.000286795
-0.000266085
0.000266085
-0.000283426
-5.48259e-05
-0.000170749
-0.000194152
-0.000173096
0.000218814
-4.4998e-05
-1.232e-05
-0.000239177
0.000251497
3.10801e-06
0.000210113
-0.000213221
-0.00018434
-2.26124e-05
0.000209651
7.60927e-06
0.000294331
-0.000301941
-0.000236153
-1.34401e-05
0.000249593
1.50361e-05
-0.000251189
-0.000241025
0.000256061
-0.000301258
0.000308903
0.000256117
7.16803e-06
-0.000167973
-3.15425e-05
0.000198625
-0.000145237
-0.000134765
-0.000244329
0.000240549
0.000298526
-4.10394e-07
-0.000298129
-0.000298809
5.93183e-07
0.000298271
1.91008e-05
0.000181217
0.000163773
7.70043e-05
-0.000257269
-0.000159242
0.000310908
0.000250721
-0.000108677
-0.000235145
-1.83681e-05
0.000253513
-0.000204631
-0.000126822
0.000331443
-6.10402e-06
-0.000229125
0.000235229
-2.23433e-05
-0.000186298
-0.000286366
-8.55389e-05
6.25571e-06
-0.000300415
-0.000212535
0.000328072
-0.000115555
0.000281597
0.000288205
-5.16322e-05
0.000271993
-1.57081e-05
-0.000188648
-1.41962e-05
0.000201618
0.000297265
6.54888e-07
-0.000297668
-0.000270491
-3.22441e-05
-0.000218821
0.000247605
-2.52506e-05
0.000310623
-0.000285402
0.000179873
7.97836e-06
-0.000189861
-3.35812e-05
0.000211131
-0.000301306
0.000276053
0.000292587
6.0558e-06
-0.000297956
0.000157445
0.00011886
-0.000276305
0.000290291
4.69843e-06
-0.000294896
-0.000250413
0.000120704
0.000131394
-0.000281787
0.000295481
0.000302513
-0.000156857
-0.000145657
0.000207005
-0.000203897
-0.000232009
-0.000121156
-0.000155009
-4.08535e-06
-0.000294212
0.000298366
-1.0136e-05
0.000276249
0.000291587
-2.11088e-05
-0.000270154
-0.000263045
2.8831e-05
0.000234155
0.000271433
-0.000267569
0.000249621
2.95121e-05
0.000314863
-9.75935e-06
-0.00030497
4.88837e-05
0.000151424
-0.000202854
-0.000100268
0.000195525
-9.75174e-05
0.000252617
-2.91201e-05
-0.000223497
8.39241e-07
0.000291974
-0.000172612
-3.10993e-05
0.000205945
-1.72003e-06
0.000291575
-9.33244e-05
0.000246933
-0.000255417
-5.26402e-06
0.000121184
0.000181329
1.34121e-05
0.000241557
-0.000254969
0.000236097
1.34961e-05
-0.000249593
0.000249509
-0.000242929
0.000256425
6.33913e-05
-0.00020181
0.000138496
-0.000216514
0.000116309
-0.000204913
0.000297442
1.40902e-06
-0.000298867
0.000253849
2.22881e-05
0.000268493
-0.000216441
-5.20522e-05
0.000225518
-0.000246849
2.13305e-05
0.000257909
1.40841e-05
5.81893e-05
0.000294492
0.000267186
-3.89594e-05
-0.000228226
0.000174124
1.274e-05
0.000240297
-0.000253037
0.000196105
-0.000114972
-7.98455e-05
-0.000205009
2.1425e-05
-1.17043e-06
-0.000298008
0.000299283
0.000223777
-0.00016847
-5.3103e-05
0.000344566
-4.13396e-05
0.000275969
-0.000135829
2.31561e-05
0.000238337
-0.000261493
-0.000231141
0.000254297
-2.66952e-05
-0.000229732
0.000256403
0.000158917
-0.000165124
-7.58108e-05
-0.000168684
-0.000261723
4.14346e-05
0.000220288
-3.17521e-05
-0.00022997
7.36553e-06
0.000261717
-3.25193e-05
-0.000229198
1.67249e-05
0.000127491
-0.000197965
0.000308785
-0.000171397
0.000262319
-3.57923e-05
-0.000226526
-0.000319382
0.000172606
-9.85905e-05
-0.000228453
-6.90203e-05
1.21581e-07
-0.000300145
0.000299636
-2.7315e-05
0.000181588
-0.000154228
0.000308156
6.84853e-06
0.000250097
-0.000248249
-1.84801e-06
-0.00017525
6.17698e-05
0.00026026
-3.07429e-05
-0.00022952
0.000197345
-0.000250769
5.34242e-05
0.000254206
-0.000231206
-2.29991e-05
-0.000252337
0.000240017
0.000143806
0.000102034
-0.000101864
-0.000170269
0.000132496
-0.000261885
-0.000290249
0.000242201
4.80482e-05
0.000216808
3.12476e-05
-0.000248056
-0.000235582
-9.83623e-06
0.000247148
0.000326651
-2.28548e-05
0.000263996
-3.42721e-05
-0.000229724
0.000140543
-0.000233936
8.94379e-05
3.63259e-05
-0.000265637
0.000229311
-0.000253905
0.000121296
0.000249817
-5.24722e-05
0.000294673
-0.000154253
-0.000140421
0.000122248
-0.000289157
1.53441e-05
0.000237665
-0.000253009
-0.000262031
3.54705e-05
0.00022656
-2.77246e-06
-3.77917e-05
-0.000224239
0.000248656
-0.000272452
-0.000264649
3.44737e-05
0.000230175
0.000193257
0.000101416
-0.000149941
0.000290137
-0.000169512
-3.82953e-05
0.000206295
-1.81721e-05
0.000263201
-0.000292331
0.000310182
0.00011893
0.000104912
0.000261325
-0.000261325
0.000307401
-2.05744e-05
-0.000290801
5.32002e-07
0.000248949
0.000254857
1.65761e-05
0.000309342
-0.000275942
-3.31979e-05
-2.26336e-05
0.000266577
-0.000243943
3.00077e-05
-0.000260519
0.000230511
-0.000252139
0.000229506
0.0003284
3.11501e-05
-0.000260598
0.000229447
0.000276809
-3.16961e-05
-6.46089e-06
-0.00029501
0.000300372
0.000270742
3.89871e-05
0.000230245
-0.000266617
3.63721e-05
0.000200585
-0.000201323
-0.000258301
0.000238533
1.97681e-05
0.000169762
-0.000257245
8.74835e-05
-0.000205707
0.000163241
-0.000249145
8.59043e-05
-0.000266169
0.000224813
4.13562e-05
0.000253073
-2.78797e-05
-0.000225194
0.000171568
4.24483e-05
-0.000234837
-2.29601e-05
0.000257797
-0.000236377
-2.28761e-05
0.000259253
-1.94265e-05
0.000255969
-0.000236542
-0.000259345
0.000239919
-3.3279e-05
0.00017176
-0.000235929
-2.24001e-05
0.000258329
-0.00025484
0.000229192
2.56481e-05
2.94001e-06
0.000211289
-0.000214229
-0.000267031
3.79849e-05
0.000229046
0.000270677
4.48002e-06
4.22111e-05
0.000166902
-0.000198753
-3.31198e-05
0.000249928
-2.10742e-05
0.000218597
9.73004e-05
0.000248199
-0.000216955
0.00027746
-0.000279767
0.000276714
-0.000282477
-1.84997e-05
0.000258601
-0.000240101
-0.000261644
0.000243145
3.22098e-05
-0.000203454
-3.01634e-05
-0.000205772
0.000237313
0.000315018
-0.00028769
-2.74412e-05
0.000261297
-3.11081e-05
-0.000230189
3.28739e-05
-0.000262362
0.000229488
-0.000229853
0.000259645
-2.97921e-05
0.000325838
-1.76405e-05
0.000149105
-0.000209582
0.000256929
-0.000109956
-0.000286496
0.000287853
0.000241977
-6.41202e-06
-0.000235565
0.000228537
-0.00018519
-3.75421e-05
0.000222517
2.83955e-05
-0.00021055
-0.000239989
0.000260317
-2.03281e-05
-0.000104764
0.000192553
-8.77043e-05
3.09919e-05
-0.000203798
0.000240169
-0.000263424
2.32552e-05
-0.000115584
0.000258861
-0.000243993
0.000265721
-2.17281e-05
-0.000238953
0.000232541
0.000258626
-0.000245105
-1.35213e-05
0.000264349
-2.46681e-05
-0.000246317
-0.000274001
-1.06046e-05
0.000297706
-5.41947e-05
-9.05845e-06
0.000290573
-0.000282596
-0.00015935
0.00021105
0.000228292
1.81209e-05
-0.000246483
0.000328683
-0.000328663
0.000260955
-0.000245018
-1.59377e-05
-0.000300813
-5.94617e-07
0.000305146
9.69175e-06
3.80953e-05
0.000170409
-0.000214256
0.0002114
-3.41098e-05
-0.000178426
0.000278054
-0.000255789
-2.22648e-05
-0.000203712
3.06093e-05
3.15421e-05
-0.000261891
0.000230348
0.000285439
-0.00029212
2.44721e-05
-0.000259617
-0.000257965
1.87881e-05
0.000266057
-1.64361e-05
0.000151173
-0.000267625
0.000116452
0.00029892
-4.42822e-06
0.000238617
-7.53763e-05
2.12521e-05
0.000177045
-0.000198297
-0.000183877
0.000205129
-0.000236275
0.000257219
-2.09441e-05
0.000261462
-3.31689e-05
-0.000228293
-0.000197009
-5.21362e-05
0.000251581
-1.48401e-06
8.98741e-06
-0.000264995
0.000256172
-0.000342102
0.000235914
0.000106356
0.000266371
-0.000236811
-2.95597e-05
0.000306821
-0.000314709
7.80143e-06
-2.57041e-05
-0.000229097
0.000254801
0.000261493
-7.64403e-06
1.00716e-05
-0.000208143
0.000262411
-3.19033e-05
-0.000230508
-6.90483e-05
-0.000260653
-0.000194685
0.000248025
-5.33402e-05
-0.000266533
0.000249985
1.65481e-05
-0.000318006
1.67216e-05
-1.72562e-05
0.000296568
-0.000279405
-0.000276221
1.65481e-05
0.000249537
-0.000170402
6.5661e-05
0.000273603
1.48546e-05
-0.000288489
-0.000316071
0.000307892
8.24119e-06
3.46641e-05
-0.000263649
0.000228985
-1.75149e-05
0.00028129
-0.000315167
1.63555e-05
-0.000176541
-7.42283e-05
-0.000233076
0.000205583
-2.16721e-05
-0.000216469
0.000238141
-0.000314737
0.00029567
1.88315e-05
-0.000132972
0.000274478
-0.000141593
-8.39023e-06
3.31521e-05
-0.000263453
0.000230301
-0.000202123
2.44376e-05
0.000172581
0.000221503
0.000280672
-0.000280649
2.50274e-07
-0.000236993
-2.20921e-05
0.000224813
-0.000202721
0.000139273
0.000143753
-0.000278517
0.000200261
-5.67123e-05
0.000308191
-1.05397e-05
0.000208897
-0.000268922
2.92853e-05
0.00022306
-0.000252345
-0.000321513
0.000138173
0.000296649
2.91932e-05
1.93787e-05
-0.000224355
-2.77845e-05
-0.000135591
-0.000133136
-0.000326078
0.000113517
0.000242873
2.56201e-05
0.000218765
-0.000224869
1.09155e-05
-0.00028797
0.000276407
-0.000243501
0.000269772
-2.7034e-05
0.000281393
-0.000281838
0.0002876
-7.74515e-05
-8.85367e-06
0.000290239
-1.87881e-05
0.000247101
-0.000228313
0.0002814
-0.000290251
-5.50439e-06
-0.000283987
0.000289471
0.000282063
-0.000269778
0.000284504
0.000226314
2.67597e-05
-0.000308716
0.000317052
-8.58006e-06
0.000249539
-2.10983e-05
0.000227521
2.39488e-05
-0.000268913
0.000246057
-2.05381e-05
-0.000259401
3.02849e-05
0.000229116
0.000178305
7.64963e-05
9.71372e-06
0.000280507
-0.000290389
-0.000238141
-2.88401e-05
0.000266981
2.51441e-05
-0.000263285
0.000284117
-0.000162317
-0.000232177
0.000261129
-2.89521e-05
-0.000234697
0.000260709
-2.60121e-05
1.41682e-06
0.000279408
2.45001e-05
-0.000259197
2.38001e-05
-0.000255977
0.000274297
-0.000243007
-3.13363e-05
0.000317917
-9.99768e-06
-0.000309001
-1.67687e-07
-0.000255753
1.1816e-05
0.000243937
-1.54056e-05
-0.000261185
0.000228066
-0.000245337
0.000270145
-2.48081e-05
-0.000263229
1.49801e-05
-2.3603e-05
0.000286576
-0.000263067
2.13641e-05
-0.000266701
-0.000241572
-2.14061e-05
3.27112e-05
-9.0432e-05
0.000260194
0.000280629
-0.000286208
5.05122e-05
0.000237693
0.000281963
-0.000281528
-0.000243181
-2.39401e-05
0.000267121
-0.000260894
7.34723e-06
-0.000295671
1.94878e-05
0.000276695
-0.000268717
2.55361e-05
-8.45044e-06
0.000290082
-0.000268326
0.000243549
2.47773e-05
-0.000232513
0.000210841
0.00028036
-0.0002892
-6.16002e-07
0.000260289
-0.000259673
-0.000301941
-1.61191e-05
-0.000264573
2.35481e-05
-0.00024417
-2.41555e-05
-3.43281e-05
-0.000298144
0.000294185
0.000286674
-0.000158327
0.000295426
-0.000289379
2.30152e-05
4.94311e-06
0.000262176
-0.000254903
-7.13893e-06
0.000307321
-2.01998e-05
-0.00028713
5.97178e-05
-0.000246765
-2.19521e-05
-0.000356602
0.000241933
0.000284346
-0.000277952
2.33801e-05
-0.000189343
-1.59524e-05
-0.00030628
2.56534e-05
0.000280677
-0.000197153
0.000310589
-0.000114012
0.000259841
-0.000238533
-2.13081e-05
-0.000291599
2.94001e-05
0.000222097
-0.000251497
-0.000162444
0.000137866
-0.000165431
0.000251441
-0.000238029
-1.34121e-05
-0.000263873
3.40201e-05
-2.23161e-05
-0.000269837
0.000251469
0.000230427
3.12901e-05
-4.5538e-05
0.000196965
0.000232619
-0.000260499
-1.74016e-05
-3.27893e-06
0.000245575
-0.000242383
-0.000293541
-0.000237049
0.000265189
-2.81401e-05
0.000230096
3.22225e-05
-0.000268521
2.55921e-05
-0.000239905
-2.86161e-05
0.000228954
-0.000260706
-0.000282553
4.73202e-05
-0.000242005
0.000294213
-0.000283791
-0.000288481
1.31165e-05
0.000275702
-5.39872e-06
0.00021739
0.000228551
-0.00026107
0.000296885
-0.0001309
-0.000165985
0.000239976
-0.000261909
0.000270383
-0.000226213
-1.76681e-05
-0.000165113
0.000307425
-0.000142795
2.49649e-05
0.000222662
-0.000247627
-0.000191957
0.000192299
-0.000283694
0.000282378
6.94063e-06
-0.000290914
-0.000302485
0.000146693
0.000155793
0.000259995
-0.000239359
-2.06361e-05
-0.000215741
0.000193649
0.00026186
3.68368e-07
0.000257293
0.000232526
2.16797e-05
-0.000295773
-6.22928e-05
1.04975e-05
0.000234911
-0.000251512
1.68233e-05
-0.000230917
-2.37161e-05
0.000254633
-0.000242295
0.000263191
-2.08965e-05
8.23936e-05
0.0001344
2.01745e-05
-0.000305835
0.000285739
0.000256565
-1.80041e-05
-0.000238561
0.000243881
-0.000254017
1.0136e-05
-0.000226745
0.000207957
0.000223131
-0.000258923
-0.000244693
4.76842e-05
1.59633e-05
-0.00013771
-0.000218851
1.57921e-05
0.000245701
0.000280836
0.000293347
0.000305648
1.69173e-06
0.000249817
-0.000220417
2.51749e-05
0.000225009
-0.000250184
-0.000243178
0.000268865
-2.56873e-05
2.28201e-05
-0.000262725
-0.000115758
0.000295975
9.09749e-06
2.08181e-05
0.000261675
-0.000235103
-2.65721e-05
1.31256e-05
-0.000303865
0.00029076
0.000321513
-3.0972e-05
-0.000290631
0.000249733
1.63241e-05
0.000306164
-0.000293096
-0.00023007
-0.000112113
9.63204e-06
0.000250657
-4.9129e-05
-0.00020239
0.000251519
2.20333e-05
0.000246832
-0.000241686
-2.29629e-05
0.000260737
-2.24001e-05
0.000287518
-0.000268023
2.63369e-05
2.68241e-05
-0.000257965
0.000210617
-0.000207677
2.58161e-05
-0.000262865
0.000280275
0.000121744
-0.000256173
0.000134429
1.65365e-05
3.8226e-05
0.000158751
-0.000197058
-0.000239485
-2.85377e-05
4.00867e-05
0.000163901
-0.000205796
-0.000246691
0.000271066
-2.43747e-05
0.000209866
-0.000248826
1.98857e-05
1.73242e-05
-0.000174126
-2.99193e-05
0.00022668
-0.00025741
-2.88401e-05
0.000244245
-0.000215405
-2.16161e-05
0.000242985
-0.000221369
0.000201657
-0.000250786
-0.000273586
-0.000232905
-2.55081e-05
0.000258413
0.000241234
2.98318e-05
-0.000212538
-2.39355e-05
0.00023556
-2.18821e-05
-0.000224967
-0.000239345
6.28042e-05
0.000259004
-0.000229718
4.75106e-05
-0.000249901
-3.43393e-05
0.000257694
-0.000223354
0.000205675
-0.000240014
0.000261689
-1.1956e-05
-6.06763e-05
-0.000229572
-0.000221685
-1.85468e-05
0.000240246
0.000247109
5.3175e-05
0.000212448
-0.000265623
-0.000261103
0.000177353
-0.000231757
5.44042e-05
6.38351e-05
0.000135323
0.000259457
-0.000240915
-2.47224e-05
-0.000265385
0.000227165
3.82201e-05
-2.87813e-05
-0.000222158
0.00025094
-0.000284473
0.000264161
0.000234501
3.61761e-05
2.18821e-05
0.000234087
-0.000307217
0.000151089
0.000156129
0.000169439
-5.33198e-05
0.000254045
-0.000115192
2.56901e-05
0.000217446
-0.000243136
-0.000286246
0.000286664
9.29757e-06
0.000257377
-0.000245953
0.000208937
3.70161e-05
0.000254832
0.000247891
-1.97183e-05
-0.000246815
-2.02161e-05
-0.000263019
2.0724e-05
-0.000269215
2.24001e-05
2.79601e-05
0.000220024
-0.000247984
0.000242481
-0.000274597
1.32721e-05
0.000247298
-1.40808e-05
1.28196e-05
-0.000248565
-0.000328742
0.000124109
-0.000233135
-2.62109e-05
-0.000252113
0.000252113
0.000259782
-0.000144217
-1.8669e-05
-0.000277968
0.00029674
0.000272399
0.000258749
-0.000135913
0.000224113
2.39205e-05
0.00023468
7.85476e-05
-0.000341662
3.79543e-05
0.000258962
1.76364e-05
-0.000248843
-3.00917e-05
0.000207453
-3.01001e-05
0.000259701
2.95429e-05
0.000218353
-0.000247896
-3.05014e-05
-4.09782e-05
-0.000217818
0.000258797
-0.000233423
-2.14173e-05
3.69075e-05
-0.000197571
0.000157872
-3.30877e-05
0.000221671
-0.000255943
-0.000282048
-8.40129e-06
0.000290399
-0.00019086
0.000158702
0.000166349
8.16763e-05
1.29307e-05
-0.000294854
0.000235075
2.59446e-05
-0.000261019
-0.000196888
-1.36979e-06
0.000232743
-0.000264287
3.15449e-05
-8.42803e-06
-0.000217029
0.000225457
-0.000161753
0.000195842
-0.000249985
-3.46025e-05
0.000256274
0.000218076
-0.000252679
-0.000246289
0.000272245
-2.59561e-05
0.000253547
2.78321e-05
-0.000232062
-2.95821e-05
-0.000298102
0.000316359
-1.82489e-05
2.33811e-05
0.000212462
-0.000250254
-0.000267233
2.09441e-05
-2.12801e-05
-0.000245953
-3.61481e-05
0.00024861
-0.000290117
-1.35963e-05
0.00022082
-0.000256968
0.000247866
-0.000251512
1.78296e-06
2.80002e-06
0.000181413
-0.000184213
0.000255294
0.000234529
2.67681e-05
-2.62361e-05
0.000245001
-0.000218765
3.36001e-05
0.000216609
-0.000250209
0.000244861
2.73841e-05
0.000306545
-0.000143949
-0.000162597
1.53881e-05
0.000239786
-0.000256986
0.000271013
-0.000113568
0.000225569
-0.000256677
-0.000241213
0.000104742
-0.000265469
7.16803e-06
-0.000241635
-2.75801e-05
-0.000241361
-2.48081e-05
0.000310616
-2.74461e-05
-7.67483e-05
0.000243097
-1.1452e-05
-0.000215601
0.000224281
-8.68003e-06
0.000255193
-7.68883e-05
3.4348e-05
-0.00019421
0.000160207
-0.000265245
-1.40001e-07
-4.14962e-05
3.96117e-05
0.000155444
-0.000197269
0.000194048
-0.000160375
0.000257041
-7.05603e-06
0.000251151
-0.000218277
-1.81772e-05
-2.1128e-05
0.000275375
-9.24232e-05
-0.000179559
-1.42801e-05
-0.000191913
0.000206193
0.000258665
-1.53553e-05
-0.00024331
1.98101e-05
0.000238855
-0.000279934
-8.03518e-06
3.69841e-05
-0.000198864
0.000162618
1.36921e-05
0.000247997
-0.000162928
0.000201884
-1.95189e-05
0.000248711
3.3001e-05
0.000190116
-0.000222167
-4.17202e-06
-2.49389e-05
0.000265108
-0.000231955
-3.14693e-05
0.000297054
-0.000281809
-1.52742e-05
1.63717e-05
-0.000237659
0.000221288
-0.00010514
0.000226885
1.93377e-05
-0.000305384
0.000285914
2.52001e-05
-2.79441e-05
2.69165e-05
0.00030878
-0.000289629
0.000238891
1.97345e-05
2.15601e-06
0.000231617
-0.000233773
-0.000310055
2.56207e-05
0.000284421
-0.000162177
-0.000144145
0.000209178
-0.000250156
-0.000169288
0.000241924
1.90317e-05
0.000256097
-4.13534e-05
0.000250531
0.000214498
-0.000255851
0.000318681
-0.00031862
-1.09417e-05
0.000286515
-0.000276453
-0.000302606
1.94863e-05
0.000283232
4.20842e-05
-0.000286413
-3.8809e-05
0.000252483
2.62921e-05
-2.20945e-05
0.000307374
-0.000285288
2.43321e-05
3.97134e-05
0.000162245
-0.000197557
0.000249294
-0.000219751
2.83277e-05
-0.000261633
4.36802e-06
-2.00719e-05
0.000307096
-0.000286734
-0.000250987
-0.000266673
3.07441e-05
0.000252141
-0.000236741
-1.54001e-05
1.2264e-05
0.000239877
-0.000275015
-1.27639e-05
0.000255697
-7.30723e-06
0.000313871
-1.20119e-05
0.000299173
-0.000286974
-4.7255e-05
0.000247437
-0.000235621
0.000257601
-1.99361e-05
0.000134714
8.78121e-05
-0.000225763
0.000222972
3.03493e-05
0.000226759
-0.000258662
3.71393e-05
0.000271243
-0.000288844
1.68251e-05
0.000251273
-0.000239093
-1.31321e-05
0.000252225
-2.91201e-05
-0.000257265
2.56481e-05
0.000231617
-0.000228005
-2.92601e-05
0.000259765
-0.000233571
-2.61941e-05
0.000258721
-0.000266518
2.54794e-06
0.000289966
1.24301e-06
-0.000290323
0.000249056
-0.000233777
-1.85921e-05
0.00030885
-0.000300844
-8.00041e-06
0.000252713
-0.000102791
-0.000266897
2.56761e-05
0.000241221
-3.48881e-05
-0.000232009
-0.000266393
2.51161e-05
0.000241277
-1.22699e-05
-0.000268094
0.000280057
-3.45241e-05
-0.000231869
-0.000261736
1.85281e-05
-0.000266281
2.43881e-05
0.000241893
-0.000283956
-2.17554e-05
-0.000306338
2.77019e-05
0.0002786
-3.34041e-05
-0.000232877
-0.00017071
-0.000258133
2.94001e-05
0.000228733
0.0003081
-0.00030813
-0.000195805
0.000209049
-3.29281e-05
-0.000225205
0.000197475
-0.000278902
8.17451e-05
0.000283585
2.23491e-05
-0.000301953
1.76961e-05
0.000285645
-0.000281029
-4.60349e-06
-0.000257125
0.000231617
2.55081e-05
0.000159425
2.69757e-05
-0.000190108
-0.000266953
2.81681e-05
0.000238785
-0.000227361
-2.97641e-05
-3.67361e-05
-0.000230217
0.000276808
0.000297391
1.90908e-05
-0.000276106
-3.16319e-05
0.000307856
-0.000258679
-1.08893e-05
0.000297533
-0.000287807
1.50366e-05
-0.000301706
0.000286831
-0.000230609
-0.00030739
0.00028763
0.000263005
-2.55723e-05
-0.000280785
1.36081e-05
0.000164259
0.000230789
1.8606e-05
-0.000248419
-0.000196234
0.000157702
0.000236738
1.31517e-05
-0.00024989
-0.00025833
2.66093e-05
0.000231721
-1.09228e-05
0.000247661
5.74002e-06
0.000246877
-3.19817e-05
-0.000226348
0.000299495
-0.000285545
-1.38629e-05
0.000228024
-0.000226666
0.000289895
0.000237685
1.98521e-05
-0.000257537
-1.24236e-05
0.000250108
0.000246636
1.50389e-05
-0.000305577
1.54127e-05
0.00024448
2.18905e-05
3.21688e-05
-0.000197162
-0.000287532
-1.77934e-05
-0.000182869
0.000295177
-0.000147998
0.000180026
-3.27383e-05
3.0596e-05
-0.000203667
0.00017408
-0.000164876
0.000259149
-0.000239236
-1.99137e-05
0.00026065
-0.000274753
-0.000241268
0.000231201
-2.18778e-05
0.000301211
-0.000279355
0.000307949
-0.000292776
0.000242117
1.77241e-05
-0.000224975
0.00024443
-1.94545e-05
1.61001e-05
-0.000241075
-7.00003e-06
0.000260989
-0.000297095
4.88034e-06
0.000292152
-0.000174497
0.000160217
-1.74105e-05
-6.24656e-06
-0.000290859
-1.68136e-05
-0.000284853
4.28402e-06
-0.000299119
0.000135047
-0.000257437
2.37594e-05
0.000233752
0.000238197
1.32441e-05
-3.08162e-05
-0.000226635
-3.3032e-05
-0.000291328
2.10974e-05
-0.000225549
0.000204265
0.000254969
-0.000233465
-2.15041e-05
-0.000195275
0.000215722
-0.000185005
-7.39918e-06
0.000203781
0.000139009
0.000138734
4.07279e-06
0.00027178
0.000279916
-0.000305483
3.1151e-06
0.000243516
-1.98664e-05
0.000298763
-0.00027889
-0.000302171
0.000287314
1.47772e-05
-0.000258301
0.000230077
2.82241e-05
-2.64041e-05
-0.000231897
0.000302031
-0.000302181
0.000267527
-2.00483e-05
0.000304533
-0.000284445
0.000286157
-6.46029e-07
-0.000256873
0.000256873
-0.000268209
0.00029587
-0.000142995
-6.53929e-05
-6.90045e-06
0.00029466
-0.000287223
-0.000298185
0.000290886
0.00029181
-0.000278846
0.000290565
-0.000305229
1.45362e-05
3.50272e-05
-0.000241432
0.000215239
2.30681e-05
-1.4477e-05
-0.000245406
0.000227646
-1.43745e-05
0.000298401
-0.000284181
0.000263481
-1.96001e-05
0.000254224
-0.000235464
-1.87601e-05
-3.10266e-05
-0.0002738
0.0003048
1.43499e-05
-0.000296993
0.000282694
-1.45881e-05
0.000233465
-0.000218877
0.000202662
-0.000295255
0.000283573
-1.9205e-05
0.00030446
-0.000285308
0.00025102
-2.69262e-05
0.000297276
-0.00027038
-0.000295704
0.000268777
1.07156e-05
0.000244749
-0.000255465
0.000305065
-0.000311916
6.81715e-06
1.79924e-05
1.51278e-05
0.000286397
-0.00030122
6.34458e-06
0.000283877
2.34182e-06
-0.000318749
-0.000289999
0.000304834
-0.000242481
0.000243657
8.45603e-06
-0.0002264
0.000242772
-0.00029325
0.000273953
0.000284076
-0.000152454
-8.32659e-05
0.000294088
1.45045e-05
3.17031e-05
-0.00019501
0.000162474
-0.000274566
0.000257293
-0.000219535
0.00024982
0.000243411
1.92865e-05
-0.000262697
0.000236019
2.31309e-05
-0.000301261
0.000283148
0.000311978
-1.79326e-05
0.000237945
-0.000257069
1.91241e-05
-0.000222494
0.000247459
0.000293999
1.80581e-05
-0.000167037
-1.45906e-05
0.000298156
-0.000283552
-0.000141598
-0.000266415
0.000159993
0.000106423
-0.000309043
0.000295415
1.36498e-05
-0.000258699
0.000241826
1.68729e-05
-0.000146265
0.000152919
-0.000306846
0.000288675
1.7891e-05
-0.000220387
0.000181856
-9.69084e-06
0.000253101
2.05453e-05
1.74619e-05
-0.000304132
0.000286524
-0.000300488
-7.15037e-06
0.000307866
-0.000249229
0.000220109
-0.000201153
-8.52603e-05
-0.000272518
0.000251779
0.000303538
-0.00028611
-0.000192929
1.76962e-05
1.50225e-05
0.000284239
-0.000299249
-8.80603e-05
0.000239233
-0.000303442
1.9525e-05
0.000284004
-0.000207454
-2.57152e-06
-0.000297717
-0.00016988
2.05297e-05
0.000302985
-0.00028853
-1.4376e-05
-0.000171787
-0.000299256
-0.000174646
-2.24378e-05
0.000243528
0.000289883
1.72314e-05
0.000252869
5.75571e-05
-0.000284592
-0.000247213
-0.000271227
-2.35059e-05
-0.000274514
0.000300264
-0.000262452
0.00028253
-0.000169075
-4.09777e-05
0.000205925
0.000197569
1.56521e-05
-0.000213221
-1.25156e-05
-0.00028576
0.000298279
1.83597e-05
1.85934e-05
-0.000305459
0.000286901
0.000253345
-1.71361e-05
-0.000236209
1.89531e-05
-0.00030503
0.000286028
2.03561e-05
0.000232989
0.000216385
-2.46121e-05
-0.000191773
1.57496e-05
0.000282594
-0.000298401
-0.000250836
0.000117312
-0.000303734
1.86135e-05
0.000285219
0.000208436
-4.84541e-05
-0.000295879
1.15914e-05
0.000286571
0.000255837
-2.19801e-05
-0.000233857
-0.000303376
0.000105995
0.000234529
1.70521e-05
-0.000251581
0.000280173
1.66425e-05
0.000304294
-0.000285362
1.77106e-05
-0.000299423
0.000233512
1.84916e-05
-0.000252004
-1.90275e-05
-1.4337e-05
0.000298448
-0.000284173
-0.000280144
0.000299545
-0.000278441
0.000291946
-0.000304026
1.21084e-05
0.000249741
-1.62291e-05
1.14297e-05
0.000250041
-1.55121e-05
0.000298786
-0.000283014
3.95922e-05
-0.000238142