/*--------------------------------*- C++ -*----------------------------------*\
  =========                 |
  \\      /  F ield         | OpenFOAM: The Open Source CFD Toolbox
   \\    /   O peration     | Website:  https://openfoam.org
    \\  /    A nd           | Version:  12
     \\/     M anipulation  |
\*---------------------------------------------------------------------------*/
FoamFile
{
    format      ascii;
    class       volScalarField;
    location    "9.94";
    object      T;
}
// * * * * * * * * * * * * * * * * * * * * * * * * * * * * * * * * * * * * * //

dimensions      [0 0 0 1 0 0 0];

internalField   nonuniform List<scalar> 
22702
(
1
1
0.962996
1
1.01692
1
1.11923
1
1
0.904948
1.1205
1.11927
1
1.11839
0.968754
1
1
1
1.12016
1
1.11868
1
1.11952
0.887731
1.11854
0.883533
1
1.12007
0.90791
0.890158
1
1.12021
1
1
1
1.11065
1.11837
1.11958
1
1
0.899181
1
1.06216
1
1.12024
1
1
1
1
0.893935
1
0.893008
1
1.12056
1
1.12131
1
1
1
1
0.883822
1
1
0.902803
1
0.883202
1
1
1
0.898654
1
1.11852
1.07567
1
1.11858
1.12488
0.88392
1.11881
0.897233
1
1.12028
0.894608
1.12062
1.12058
1
1
1
1
0.98111
0.900845
1.12104
1
1
0.897228
1
1.11879
0.897714
1
1
1
1
1.06266
1.12021
0.886911
1
1
1.03327
1
0.89609
1
1.11881
1.12052
1
1
0.880993
0.881234
0.902224
1
1
1
1
1
0.976995
1
1.10342
1.01294
1.11877
1
1.11881
1.12014
1.11845
1.12136
1
0.887232
1
0.882279
1
1
1
1
1.12048
1
1
1
1
1.11905
1
1.00758
1
1
1
1
0.89661
1
1.0029
1
0.898702
1
1
1
1.12062
1
1.11864
0.889256
0.884188
1.11869
1.11875
1
1.02087
1.07058
1
1.12172
0.896912
1.11084
1
1
1
1
1.11849
1.10054
1
1.12054
0.894931
1.12151
1
0.909413
1
0.895227
0.882822
0.999936
1
1
1.12001
1
1
1.11867
1
1.12019
1.12043
0.897078
1
1
0.89853
1.11864
1
1
1
1.11859
1
0.899101
1
1
1.11841
1.11865
1.1194
1
1.00001
1
1
1
1.1186
1
0.885325
1.1233
1.11864
1.11821
1
1
1
0.891507
1.11857
1.05971
1
1.11902
0.892665
0.898731
1.11903
1.11903
1
1.11762
0.884524
1.10628
1
1
1
1
1.11842
1
1.07201
1.01249
1
1
1.11867
0.885334
0.927727
1
1.11835
0.900263
1.11783
1
1
1
1
1
1
1
0.892333
0.928798
0.895114
1.11856
1
1
1
1
1.10863
1
0.894178
1
0.888302
0.899629
1.11836
0.882189
1.11861
1
1
1
0.999328
0.908357
0.889952
1
1
0.885939
1
1.12001
0.887803
1
1
1.12056
0.89105
1
1.1184
0.883782
1.11861
1
0.892669
0.999352
1
1
1
0.893995
1
1
1
1
1.00608
1.07651
1
0.888699
1
1
1
1
1
1
1
1.12101
1
1.12117
1
1
1
0.895818
1
1.11897
0.890418
1
1.09511
1
1
1.121
1
1
1
1.1191
1
1
1.11679
1.12117
1
1.02732
1
1
0.88275
1
1
1
0.894377
1
1
1
1
0.883908
1
1
1
1
1
0.891371
1.00002
1.11856
1
1
1.1186
1.11882
1
1
0.899164
0.944448
1.12068
1
1
1
1.11855
0.898867
1
1.11856
1
1
0.9101
0.903452
1
0.90178
0.895343
1
1
1
1
1
1
1
1.11908
1.03519
1.11202
0.891899
0.97698
1.12074
1
1.11877
1.12089
0.88272
0.931355
1
0.899664
1
1.12495
1
1
1
1
1.11861
1
1
1
1
1
1
1
1.04661
1.12013
1
1.11854
1
1
0.896537
1
1
1
1
1.11862
1.09302
1
1
0.902072
1.11866
1.11838
1
1.11837
1.11874
1.11862
1
0.953151
1
1.11837
0.999142
1.11854
1
0.893838
0.999666
1.12049
1
1
1
1
0.895992
1.11838
1.10869
1
1.11871
1.11842
1.12016
1
1.05935
1.11865
1
1
1.08445
1.0188
1.11839
0.981186
1.1184
1
1.11846
1.11861
1.11856
1.11862
1
1.11231
0.973495
0.96133
1
1
1
1
1.1209
1
1
1
1
1
1.12043
1
1
0.998944
1.11841
1.10335
1
1.10034
1.00001
1
1
1.11844
1
0.999015
1.00106
1
1.11863
1
1.11878
1
1
1.09097
1
1.11886
1.00001
1
1.1183
1
1.11863
1
1
1
1.11855
1
1.11974
1
1.11843
1.12087
1.11871
1.11977
1
1.12149
1.11834
1
0.898076
1.11178
1.08809
1
1.11864
1
0.884468
0.883061
1
1
1
1
1
0.897011
1
1.11853
1.03512
1.11842
1
1
1
1
1
1.11856
1
1.11917
1.07424
0.931911
1
1
1.03689
1.03134
1
1
1.04666
1
0.898768
1.11844
1.11848
1
1
1
1.1206
1
1.00001
1.11815
1.11855
0.989971
1
1
0.893314
1.10869
1
1
1
1
1
1.11856
1.12167
1
1.11826
1.11946
1.11871
1
1
1
1
0.884936
1.12113
1
1
1.10882
1.11829
1
1.11227
1.11967
1
1
1
1
1
1.11868
1
1
1
1
1.12043
1
1.1175
0.891532
1
0.885352
1
1
1
0.999102
0.896484
0.999715
1
1
1
1.01792
1
1
0.964209
1
1
1
1
1
1
1
0.999999
0.982911
1
1
0.999317
1
0.896707
1
1
1
1
1.0913
1
1
1
1
0.906981
1
1
1.11218
1.1209
1
1
1
0.965789
1
1
1
1
1
1
0.98963
1.00583
1.11857
1
1
1
1.11982
0.973558
1
1
1
1.12012
1.11907
1
1
1
1
1
1
1
1
1
0.897598
1
1
1.11952
0.898878
1
1.1194
1
0.900127
1
1
0.896651
1
1
1
1
1
1
1
1.11647
1.11831
1
1
1
1
1.10925
1
1.04005
0.900955
1
1
1
1
1
1
1
1.01402
1
1
1.0656
1
1
1
1.09996
1
1
1
1
0.895089
1
1
0.890756
0.897774
1
1
1.11837
1
1.00395
1
1
1
1.0854
0.886358
1
0.880107
1
0.93455
1
1
1
1.11905
1
1
1.11839
1
1
1
1.11842
1
1
1.11859
1
1
0.883718
1
1.03894
1
1
1.12106
1.12021
1.08208
1.10701
1
0.893475
1
1
1.11378
1
0.886303
1
1
1
1.11861
1
1
1
1
1.07436
1
1.11213
1.11858
0.90071
1
1
0.883551
0.884209
1
1
1
1.08621
1.09287
1
1
1
1
1
1
1
1.0545
1.12126
1.00476
1
1.11741
0.884196
1
1
1
1.06888
1
1.02563
1
1.10909
1.11812
1
0.894129
1
1.12172
1
1
1.11845
1.11206
1
1.12211
1
0.904739
1
1
1
1.11915
1.1164
1.1056
1
1.11899
1.11864
1
1.11877
1
1.11813
1
0.898942
0.99212
0.895351
1
1
1
1
1
1.11851
1
1.11861
1
1
1
1.11323
1
0.882896
1.11839
1
0.912904
0.894757
0.886769
1
1.06203
1.01267
1.11902
1.11849
1
1
1
1
1.1185
1
1
1.1185
1.11874
1
1.04443
1
1
0.999065
1.11984
0.951602
1
0.946519
0.899655
0.898
0.986739
1.11933
1.11714
1.02685
1.11864
1.11878
1
1
1.12017
1.11987
1.11853
1.12135
1
1.1186
0.891238
1.11968
1.11863
1.11982
1.1186
0.963202
0.971397
0.982556
1.11847
0.989264
1.11858
1
1
1.11904
1.11858
1
0.899303
1.11862
1.11873
1
1.11858
1.11851
1
1.11868
0.91044
1.11939
1.12066
1.1213
1.11796
1
1
1
1.1186
1.07989
0.893615
1.11846
0.894629
1.1184
1
1
1
1
1.11903
1.11853
1
1
1.11854
0.895344
1.11871
0.898468
1
1.11778
1
0.905263
1.11876
0.918658
1
1.11838
1.11895
1.11831
1
1
1.05647
1.11881
0.899
1.11848
1
1.11889
0.967335
1.11831
0.89527
1
1.1185
0.895379
1.11905
0.899884
1
1.11857
1
1.11944
1
1.07228
1.11451
1.09547
0.880931
1
1.11843
1
1.11846
1
1.11878
1
1
1.11849
0.995712
1.11919
0.913694
1.10461
1
1.08661
1
1.11875
1.1187
1.11854
1
1.10778
1.11873
1.11052
1.07614
1.11854
1
1.08095
1
1.11838
1
1.01765
1
1.11069
1
1.11882
1.11343
1.11332
1
1.11859
0.8815
1
0.890139
1
1
1
1.11937
1
1.11883
1
1
1
1.11877
1.11618
1.09785
1.11866
1.11945
0.885389
1.11649
1.12114
1
1.1029
1.11853
1.11909
1
1.1218
1.12111
1
1.12056
1.11896
1.11891
1.11877
1
1
1
1.11852
0.88279
1
1.11852
1
1
0.883176
1
1
1.1185
1.11854
1
1.11864
1.12021
1.11876
0.994146
1.11853
1
1.11854
1.11858
1.09729
1
1
1
1.11902
1.1185
1.11851
0.982402
1
1.12063
1.11854
1.11842
1
1.11858
1.11841
1.11848
1.12037
1
1.11852
1.11979
1.10506
1.1186
1.11975
1
1.12046
1.11741
1.11854
1.11958
1.11842
0.884336
1.11849
1.11884
1
1.11863
1.11852
1.11876
1.11873
1
1.11841
1.1187
1
1.11872
1.10107
1
1
1
1.11935
1.11627
1
1
1.06714
1
1.11856
1
1
1.11877
1.11902
1.1185
1.11875
1
1
1
1.08776
1
1.11871
1
1
1.11984
1.12094
1
1.1185
0.881984
1.1187
1.11905
0.919011
1
0.879636
1.10579
1.11931
1.11907
1.11908
0.89259
1.11877
1.1191
0.891501
0.891666
1
1.11904
1.11855
1
1
1.1186
1
1.11816
1
1.10507
1
1.05745
1.11855
1.11892
1.08808
1.106
1.12023
1.11894
1.10809
1
0.889612
1.11999
1.11871
1.12015
1
1
1
1.1193
1
1.11868
1.11799
0.921115
1
1.11868
0.99998
1
1.00001
1.00001
1.11865
1.11859
0.999577
1
1
1.11843
1.11889
1.11848
1.11929
1.11822
0.888837
1.10697
1
1.1177
1.11843
1.11858
1.12009
1
1.11859
1.11565
1.11886
1
1.11889
1.11863
0.958584
1.11849
1.11909
1
1.11856
0.954388
1.11855
0.956858
1.11855
1
1.11842
1.12326
1.1187
1.11876
1.1185
1.11904
1.11878
1.11966
1
0.980929
1.11853
1.11851
0.954543
1.11844
0.99462
1.07893
1.11841
1.11856
1.11995
1
1.11913
1.07938
1.11883
0.981669
1.11907
1.12205
1
0.960659
1
1.11627
1
1.08397
1
1.11342
0.959976
1
1.11837
1.11911
1
1.11877
1.11906
1.12038
1.11755
1.11953
1
1.1208
1
1
1
0.969665
1.11864
1.1185
1.11966
1.11849
1.11729
1.11908
1.11753
1.11885
0.971465
1.0088
1
1
1.12338
1.11871
1.11851
1.11855
1.00001
1.0635
1
1.12042
1.10317
1
1
0.921045
1.11856
1
1
0.9072
1.11847
1
1.1215
1.11876
1.12027
1.11456
1.1186
1
0.882039
1.02989
1.11862
1.11848
1
1.11895
1.11853
1.06031
1.00275
1.02763
1
1.11973
1.11849
1
1
0.892321
1
1
1.1186
1.11858
1.11837
1.11843
1.11868
1.12115
1.11866
1.11796
1.11863
1
0.998968
1.11879
1.11854
0.999087
1.11849
1.11857
0.88686
0.901855
1.1185
1.11746
1
1
1.00033
1.11859
1.11826
1.11851
1
1.11846
1
0.960018
1.12045
1.11848
1
1.05574
1.11872
1
1.12046
1
1.11854
1.0787
1.11881
1
1.11862
1.11978
0.891442
1.11859
1
1.11903
1.12097
1
0.886068
1.11898
1.10561
0.999276
1.1148
1.11854
1
1.0027
1.11941
0.999339
1.11877
1
1
1.11864
1
1.11957
1.1185
0.999032
1.09598
1
1.11855
1
1
1
1
1.11858
1
1
1.12002
1
1.11847
1
1.07896
1.12005
1.11854
1
1
1.00217
1
1.11904
1.11866
1.11879
1.11872
1.11886
1.1186
1.11869
1
1.11867
1.11825
1
1.11878
1.11862
1
1.11812
0.980306
1.01659
1.11867
1.11857
1.11846
1
1.11879
1
1.11855
1.11872
1
1.11867
1
1
1
1
1.11842
0.884978
0.999408
1
1.11842
1.1197
1
1.11846
1
1.00154
0.888664
1.1185
0.99988
1
1.11819
0.999527
1.11849
1
0.999933
1
1.1183
1.11999
1.11854
1.11871
0.896825
1.11859
1.11895
1.11852
1.03168
1
1
1.05522
1.11868
0.881667
0.892135
1
1.11877
1.11876
1.119
1
1
1.11906
1.11863
0.999963
1
1.08779
0.884823
1
1.02207
1.12047
1.11947
0.999495
1.11862
1.12107
1
0.999674
1
1.1185
1.11954
1.05043
1
1.11085
1
1.00076
1.1182
0.896844
1.11804
1.11865
0.999118
0.999975
1.10138
1
0.999916
1
1.11914
1
1
0.879999
1.11857
1
1
1
1
1.11995
1.07025
1
1
0.889045
1.11864
1.07104
1
1
1
1.11366
1.1165
1.11938
1
1
1.11981
1
1.11847
1.11845
1
1
1.11892
1.11872
1.11391
1
1
1.11896
1.11848
1
1
1
1.11899
1
1
1
1.11855
1.1192
1.11899
1
1.11994
1.00001
0.909341
1.11802
1.11794
1
1.12092
1.11666
1.1194
1
1
1.11991
1
1.06836
1.11853
1
0.889348
1
1.11905
1
1
1.11991
1
1
1
1.03928
1.11863
0.899281
1
1.11888
1
1
1.11867
1
1.11995
1
1
1.11846
1.1185
1
1.00001
1
1
1
1
1
1
1.11832
1.1186
1
1.12143
0.887686
1.11809
1
1.11828
1.12066
1.11843
1.12114
1.12148
1
1
1.1195
1
1.07917
1.11984
1.11873
1
1.11882
1.12061
1
1.10678
1
1.11831
1.08005
1.11915
0.999313
1.11586
1.11074
1.11874
1.11862
1.0106
1.11853
1.11911
1
1.11852
1
1.11848
1
1
1
1
0.998976
1.1186
1.11851
1.10084
1
1.11963
1
1
1
0.881429
1
1.1157
1
1.10865
1.11221
1
1
1
1.11189
1.1197
1
1
1.11813
0.894976
1.02102
1
1.12003
1.11839
1.10891
1.11547
1.11863
1
1.11851
1
1
1
1
1.11884
1.11894
1
1.11664
1.01574
1.1186
1.11163
1
1
1.11182
1
1
0.892844
1.08725
1
1
1.11732
1
1.11933
1.10904
1
1.10894
0.895864
1.1187
1.11849
1.11877
1
0.895781
1
1
1
1.1186
1.09728
1
1.12069
1.11865
1
1.11854
1
1
1
1
1.11868
0.999806
1
1.11897
1
1
1.11787
1.11869
1
1.11973
1.02495
1.00001
1
1.11836
1
1.11837
1
1.00383
1.1185
1
1.11845
1
1
1.03991
1.11877
1
1
1
1
1
0.998882
0.883993
0.884181
1.00604
1
1.0096
1
1.00967
1
1.11854
1
1.07554
1
1.11847
1
1
1
1.11852
1
1.09302
1.11866
1
1.066
1.11868
1
1
1.11927
1.11855
1
1
1.0148
0.882551
1
1.11902
1
1
1
1
1.02205
1.11874
1
1
1
0.897202
1
1.11849
1.11857
1.12024
1
1
1
1
1.06203
1.12042
1
1
1
1.11893
1.11864
1.01495
1
1
1
1.11848
1.11863
1
0.887882
1.11848
1.11843
1.11868
1.11817
1.11833
1
1
1.11821
1.11884
1.11852
0.900205
1.0118
1.11885
1
1
1
1
1
1.11865
0.892763
1
1
1.11851
1.05564
1
1.11876
1
1
1
0.904646
1
1
1.0325
1.11842
1.11855
1
1.11825
1.1191
1
1.02237
1
1.11834
1
1.11874
0.894918
1
1
1
1
1.11853
1.00002
1
1
1
1.1178
1
1
1
1
1.11851
0.900705
1.0969
1.11943
1
1.11827
1
1
1
0.9992
1
1.12044
1
0.943565
1
1
1.00001
1.11831
0.898511
1
1.11882
1
1.11855
1.11867
0.898387
1
1
1.11661
1
1
0.909904
1
1.11694
1
1.11393
0.999796
1.11882
1
1
1
1
1.12055
1
1
1.11855
1
1
1
1
1
1
1
1
1.0802
1
1.04067
1.1185
1
1
1
0.891098
1
1
1
1
1.11835
1.11847
1.01622
1
1
1.11877
1
1
1.11893
1
1
1
1
1
1
1.11863
0.930205
1.11861
1.11897
0.999163
1
1
1
1.07269
1
1
1.11818
1.11863
1
1
1
1
0.895552
1
1
1
1.07641
1
1.11845
1.11913
1
1.11891
1
1
1
1.06736
1
1.12092
1
1.11859
1
1
0.998921
1.11868
1
1
1
1
1
1.11824
1.00001
1
0.893604
1.11841
0.885636
1
1.11913
1
0.998797
1
1.11863
1.11964
1
1.11567
0.962629
1.11853
1.12009
1.00001
1
1
0.88804
1
1
1
1.11849
1.0725
1.11835
1
1
1
1
0.999068
1.11854
1
0.895576
1
1
1
1
1
1
1
1.11989
1.11905
1.11928
1
1
0.999103
1
0.994955
1
1
1
0.88246
0.994952
1
0.889547
0.893551
1
1.11873
1.11855
1
1.11888
1.11857
0.893053
1.07929
1
1
1
0.895231
1.11879
1
0.892685
1
1.12008
1.02271
1
1
1
1
1.11868
1.11923
1
1
1.11865
1
1
1.1196
1.11843
1
1.1081
1.11854
1.12097
0.991398
1.1189
1.00246
0.89525
1.0936
1.11827
1
1
1
0.894331
1
0.883601
1.11988
0.990422
1.11852
0.987632
1
1.11888
1.05738
1
1
1.11939
1
1.05345
1.11883
1
1
1.11854
1.11746
0.88943
1.07372
0.99997
1
1.07534
1
1.11764
0.982239
1.12165
1.11775
1
1
1
1
1.1162
1
1
1.119
0.999896
1.1189
1.09637
1.11812
0.895429
1
1
1
1
1.11888
1.00001
1.11844
1
1.11881
1.11866
1.01656
1.11895
1.03936
1.11905
1
1.08301
0.902216
1.12001
1.11866
1.10045
1.02385
1.11914
1.11856
1.1185
1.11839
1
0.979157
1.01853
1
1.1187
1.05893
1.1189
1.00001
1
1
0.905862
1.11855
1.11959
1.099
1
1.05011
1
1.12059
1.12047
1
1.11864
1.11954
1
1
1
1.11863
1
1.0499
1.11857
1.08481
1
1.11857
1
1
1
1
1
1
1
1
1
1
0.901134
1
1.11021
0.886044
1.07221
0.999594
1.11876
1
1.06626
1
1.07915
1.10251
1
1.00055
1.12026
0.979069
1
1.11948
1.11475
0.983549
1
1.1186
1.1188
1.11899
1
1.1186
1.11914
1.1193
1
1.05754
1
1.00002
1.11892
1
1.11865
1.01942
1.11831
1
1
1.11846
1.11998
0.901169
1
1.11828
1.09158
1.1185
1
1
1.12047
1.119
0.999498
1
1.11033
0.999102
1.11861
1
1
1
1
1
1.05717
1
1.09269
1.11883
1.09122
1.119
1
1.00091
1
1
1.12045
1
1.1196
1
1
1
1
1
1
1.01588
1.06475
1
1
0.88264
1
1.11882
0.897436
1.12089
1
1.06377
0.999931
1.11896
1.07858
0.900254
1.06913
1.00001
1.1186
1.11918
1
1.07556
1.11999
1.11904
0.999547
1.12031
1.11567
0.885707
1
1
0.999302
1
1.11771
1
0.899303
1.11929
1
1
1.10573
1
1.11884
1
1.11883
1
0.902963
1
1
1.11899
1.11637
1.11931
1
1.1193
1.11862
1.11684
1
1
1.11817
1
0.925179
1
1
1
1.11921
1
1.11848
1.07966
1.1187
1
1.11858
0.999825
1
1
1
1
1
1
0.916009
1
1
1.11857
1
1.11974
1.11856
1
0.88897
0.891644
1
1.11902
1.02084
0.895732
0.884103
1
1.11903
1
1.11971
0.894119
1.00031
1
1
0.999858
1
1
1
0.999975
1.05346
1.11855
1
1
1.11862
1.07365
1
1.10686
1.11911
1.1187
1.05377
1.1157
1
1.11878
1
1.11608
1
1.11999
1.11824
0.999114
1.11861
1.11802
1
1
1
1
1
0.978639
1.11995
1.00001
1.00001
0.883321
0.999996
0.878058
0.88459
1
1.11879
1.11877
1.11892
1
1.11866
1
0.89429
1
1
1.11931
0.949605
1.11889
1
1.1188
1
0.994782
1.11828
1
1
1
1.11847
1
1.11878
0.888161
1
1
1.07268
1
1
1.06886
1
1
1.1187
1
1
1
1
1
1.12019
1.11857
1
1.11938
1.11897
0.88717
1.05757
1.11938
1
1
1.10793
0.999716
1
1
1.1186
1.11793
1.08465
1
1.11857
0.889761
1.10983
0.9998
1
1.11911
1.00001
1.11874
1.09946
1.09315
1
1
1.11863
0.916898
0.889582
1
1.11846
1
1.11831
1
1.0737
1
1
1.11845
1.07853
0.893832
1
0.999529
1
1
1.00737
1.05276
1.11859
1
1.11993
1
1
1
1
1
1
1.01907
0.894023
1
1
1.0126
1
1
1
1
1
1.11859
1
1
1.11851
1.1184
1.08807
1
1
1
0.949962
1.11991
1.08571
1
1
1
1
1.11855
1
1
1
1.11878
1
1
1.08798
1.12351
1.01349
0.924598
1.11851
1.08677
1.11841
1
1.0625
1
1
1
0.885122
1.00072
0.898218
1
0.889792
0.880729
1
0.88947
1
1
1
1.05768
1
1.11858
1.11882
1.00043
1.06057
1.09924
0.888188
0.927348
0.964838
1
1.11866
1.12002
1.11865
1.11849
1.10278
0.964111
1
1.10375
1
1.11375
1
1
0.998987
1.00295
1
1
1
1.11965
1
0.882204
1
1.11876
0.887544
1
1
1.11848
1
1.11853
0.999926
1
1
1.11883
1.11224
1
1.12293
1
1
1.00429
1
1.05464
1
1
0.887022
1
1
1.11924
1
1.11847
1
1.00001
0.887037
1
1
0.866626
1.00031
1
1.11945
0.878217
1.11989
0.894456
1.11841
1
1
1
1
1
1
1
1
1
1
1
1.1142
1
1.11904
1.12008
0.889509
1
1
1
1
1
1
1.11568
1
1
0.893704
1
1
1.11979
1
1
1.04881
1.10072
0.899712
0.889947
0.901106
0.924794
1
0.999005
0.868638
1.00013
1.11069
0.999139
1
1
1.11902
1
1
1
0.926576
1
1.04576
1
1
1.05191
1.1184
1
0.882932
1
1
1
0.99912
1
1.11806
1.11852
1
0.886498
1
1.06817
0.886085
1
0.967501
1
0.998836
0.879696
1
1
1
0.998935
0.896118
1
0.888824
0.99955
1.0661
1.10682
0.890603
0.905655
1
0.997327
1
0.999614
1
1.11835
1.11831
1
1.00666
1.11878
1.11884
1
1
1.11852
1
1
1.00001
1
1.11938
1
1
1.00499
1
0.999595
0.904829
1
1
1
1
1
1.11953
1.01209
1.00001
1
1
1
1
1
1.00001
1
0.889657
1.03176
0.999594
1.11573
1.11941
1
1.0049
1.11881
1.10435
1
1
0.889503
1.11867
1
1.11961
1
1.11813
1.08139
0.88735
1
0.888004
1.11166
0.999906
1
0.894949
0.889451
1
1
1.10215
1
1
0.884302
1
1
1
1.04068
1
0.887533
1.11872
1
1
1
1
1.11861
1
1
1.1173
1.10773
1
1
1
1.11954
0.887893
1
1.11898
1.11868
1
1.09668
1
1.00001
1
1
1.11202
1.00677
1
0.886721
1.06709
1
1
0.999292
1
1
1.11864
1
1
1.00001
1
1.11898
1
1
1
1
1
1
1
1.0553
1
1.1191
1
1
1.11891
1
1
1
1.1187
1.11842
1.01303
1
0.999331
1
1
1
1
1.12022
1
1
1.11835
0.891235
1
1
1
1
1
1
1.09786
1
1
1.11778
1.11905
1
1
1
1.11912
1.11811
1
0.999899
1.11849
1
1
1
1.00001
0.882482
1.00858
0.99894
0.998791
1
1
0.884109
1.11849
1
0.895307
1
1.11824
1.11421
0.90099
0.999832
1.1186
1.11902
1.11798
1
1
0.977706
1.10669
1.1006
0.894008
1
1
1
1.11824
1.11868
0.889115
0.999237
1
1.11853
0.880718
1
1.11491
0.890604
0.993419
1.00199
1
1.11793
1
1
1
1
1
1
1.00003
1.11128
1
1
1.11983
1
1
1
1.11851
1
0.889943
1
1
1
1.04354
1
1
1
1
1
0.936034
1
0.879925
1
1.11865
1.00001
0.964311
0.965539
1
1.00116
1.06494
1
1
0.880438
1.11858
1.11866
1.11852
1
0.891366
0.884548
1
1.11839
1
1
1
1
1
1.00001
1
0.892303
1.07987
1
1
0.898032
0.995539
1
1
1
1
0.879554
1
0.895258
1
1
1.1206
1
1
0.892334
1
1.11849
1
0.887507
1
0.890109
1
1.00236
1.11849
1.12235
1
1
1.12046
1
1
1.03099
0.99913
1
0.999489
1
1.11954
1
0.899159
1
1.12087
0.999686
1
1
0.937158
1
0.999709
0.892797
1.11933
1.04778
1
1
0.973953
1
1
1
0.936729
1
1
1
1.11853
1
0.887922
1
1
1
1
0.887703
1.11842
1.11381
0.894188
1
1.11987
1
1
1.11841
1.12
1.10138
0.887298
0.999364
0.999784
1
1.11857
1
1
1
1
1.11858
1.00001
1
1
1.11855
1
1
1.11863
0.88295
1
1
1
0.891508
1
1
1
0.999626
1
1
1
1
1.09753
1
1.11971
1.11916
1.12161
1.11879
1.11857
1.11848
1
1.11852
1
1.11876
1.11855
1
0.99967
0.882736
1.10272
0.999969
1
1
1
1
1.00132
1
1.02028
1
1
1
0.953459
1.1186
1.11822
1.11935
1.10557
0.999964
1
1.00672
1.11891
0.999403
1.01741
0.999194
0.898928
1
1
1
1
1
1
1
1.11849
0.891784
1.11848
1.11846
0.99856
0.882339
1
1
1
1.11861
0.883831
1.10597
0.886549
1.11873
1.1194
0.89092
1.11813
1.00727
1
1.11943
0.940532
1
0.999634
0.881124
1
0.889083
1
1.1185
1.1186
0.925676
1
1.11934
0.897982
1
0.890994
1
1.11839
1
1
1.11676
1
0.952568
1
0.999909
0.890185
1.118
0.999849
1
0.875993
1
1
1
1
1.06976
1
1.11868
1
1
1.12363
1
1
1.11885
1
0.886981
1
0.908662
1
1
1
1
1
1.1138
1.07202
1.11849
1
1.11867
1.11108
0.880486
0.880769
1
1
1.11872
1
0.884852
1
0.995289
1
1
1.11858
1
1.11951
0.883968
1.12258
1
0.883526
1
1
1.11815
1.1182
1
1.00001
1
1.11592
1
1
0.883646
0.999827
0.875126
1
1
1
1.11896
1.11918
1.11951
1
1
0.89209
1
1.11923
1
1
1
1.1148
1.11838
1.11854
0.892249
1.11966
1.11846
0.899175
1.11943
1.00001
0.898688
1.00586
1
1
1.11889
0.891165
1.07818
0.886121
1.11842
0.999245
0.891959
1.11888
1
1
1
1
1.1187
1.12014
0.888616
1
1.00001
0.891744
1.00001
1
0.889262
0.890241
1.08594
1.119
0.999568
1.11853
1
1.12035
0.948024
0.895559
1.11848
1.12092
1
1.11845
1
1
1.11867
1
1.09345
1.11964
1
1
1
1
1.11878
1.11739
1.11873
1
1
1.11922
1.11977
1.11875
1
1.11863
1
1
1
1
1
0.884696
0.953098
0.884132
1
1
1.11896
1
1
1.11848
0.891802
1
1.11878
1.11743
1.11427
0.883972
1
0.895903
1
1.00001
1.12004
1.05977
1.11989
1.1094
1
0.893269
1
1.11823
1.08763
0.900189
1
1
1
0.943161
1
1
1.12127
1
0.902324
1.11858
1
1
1
1
1
1.09765
1.02845
1
1.11888
1
1.11837
1
0.999202
1
1.11842
1.11953
1.11816
1.11959
0.999882
1.11948
1
1.11848
1.11823
1.1022
1
1
0.883973
1.11947
1
1
1.11902
1.11838
1.11895
1
1.11833
1
1
1.00001
1.11969
1.1194
1.03634
1.02767
1.1185
1.11867
0.900815
1
1
1
1
1
1.04608
1
1
1.10149
0.871768
0.999987
1
1.11851
0.999967
0.999948
1.01956
1.10899
1.12049
0.97643
1
0.87735
1
1.0011
1.11861
1.11915
1.1202
0.999712
1
1
0.885007
1
1
1.11855
1.01438
1
1
1
1
1
1
1
0.999983
1.1203
1
1
1
1
1
1.0796
1
1.06062
1
1
1.11846
1.11906
0.897248
0.999657
1
1
1
0.888669
1.11907
1.11844
1
1
1
1
1
1
1
1
1.11887
1.1174
0.888223
1.01443
0.890525
1
0.887467
1
1.11875
1.03581
1
1
0.904631
1
1.11439
0.943884
0.998926
0.892172
1
1
1.11961
1.00001
0.999146
0.883546
1.1196
1.12005
1
1
1
1
1.11144
1
1
1.11872
0.999696
1.11931
1.00002
1
1
0.887278
1
1
1.11863
0.889933
0.935362
0.890726
1.11851
0.999786
1
1.11932
0.891858
0.89141
1.00697
1
1
1.12012
1.00001
1.05928
1
1
1.12008
0.89294
1
1
1.00004
1.11938
1.00003
1.11648
1
1.00001
1
1
0.911693
1
0.939119
1
1
1.11812
0.885566
1
0.932149
0.94295
1
1
1.11861
1
1
1
1.1188
1.11873
1.00001
1.12003
1.12006
0.93585
1.11858
1.11233
1
1
1.11882
1
1
1
1
1
1.11982
1.11863
1
1
1
1.11836
1.00006
1
0.891126
0.913706
1
1.00001
1.04594
1
1
0.969231
0.901278
1
1
1
1.11907
1.10957
1.11867
1
1
1
1
0.879108
1
1.11537
1
1.11835
0.882242
1.11726
1
1
1
0.895193
1
1.11927
1.00001
1
0.899623
1.048
1
0.999903
1.12007
0.889014
0.884766
1
1.11942
0.890023
0.892583
1
0.88187
1
1
1
1
0.891297
1
1
1
1
1.11925
1
1.09356
0.880463
1
1
1
0.896464
1.11848
1
1
0.999047
1.11874
1
1.11854
1.1194
1
1
0.916953
0.890276
1
1
0.897113
1.03935
1.05798
1
1
1.11962
0.999247
1
0.999324
1.11995
1
1
1
1
1
1
1.11854
1
1.04516
1.04121
0.911242
1.10675
1
1.11873
1.11858
1
1
1
0.978558
0.883019
1
1.06398
0.999899
1.10467
1
1
1
1
1
1.00172
1.05619
1.11874
1.11867
1
1.11863
1
0.924455
1
0.999267
0.999929
1
0.879701
1
0.883369
1.00001
1.11934
1.11962
0.88241
1.11984
0.892286
0.998959
1.09277
0.888168
1.0879
1
1
0.999553
1
1
1
1.00002
1
0.879414
1
1
1
1
0.999882
1.11848
0.942193
1
1
1
1.01058
1
1
1
1.07093
0.926962
1
1
1
1.01585
1.11935
1
0.886078
1
1.11896
0.972515
0.902006
1
0.890972
1
1
1.11274
0.999493
1.11325
1
1.00245
1
1
1.11862
1
1
1
1
1.02588
1
1.11853
1.11898
1.12015
0.877107
1.11866
0.99919
1.09929
1
1
0.881271
1
1
0.88734
1.118
1
1
0.999986
1
1
1
0.884026
0.886485
1
1.12093
1
1.0595
1.11849
0.893269
1.1011
1
1
0.889717
1
1
1.11858
1.11838
1.04797
1
1
1.00048
1.11932
0.878964
0.882234
1.11967
1.11855
1.0832
1.04979
1
0.970604
1
1
1
1.11228
1.11997
1.11897
1
1
1.118
0.884736
1.10844
0.884743
1
0.881005
1
0.883555
1.11857
0.885466
1
0.994326
0.906663
1
1
1
0.953233
1.10859
1.11876
1.11924
1.11947
1
1
1.12022
1
1
1.11848
1
0.893672
1
0.885154
1
1.11981
1
1
1.00829
1.09262
1
0.999661
0.892588
1.11824
1
0.882973
1.02478
1
1
1.08974
1.11849
1.1185
1
1.11912
1.03594
1
1.00687
1.11853
1
1
1
1
1.11853
1
0.884122
1.11897
0.894136
0.883501
0.949127
1.11901
1.04504
1.11898
1
1.12044
0.999249
1.00001
1.1186
1.12005
1
1.11907
1
1.11853
1
1.11944
1
1.00001
0.999997
1.11887
0.882263
0.880584
0.999405
1
1
1
0.885986
1
1.08064
1
0.887182
1
1.05052
1.11866
1.11858
1
1
1.00001
0.99983
1
1.11959
1.11843
1
1.05504
1.11881
0.952971
1.11834
0.999963
0.883569
1.02874
0.893806
1
1
1.02203
1.12048
1
1
1.01255
0.999592
1
0.881383
1
0.935958
1
1.11824
1
1
0.889188
1.03183
1.01666
0.999578
1.11868
1.11857
0.923708
0.99946
0.880221
0.89453
0.88461
1
1
1
0.999749
0.910531
0.905599
1
1.11849
0.999926
1.11861
1.1189
1.11964
1.11835
1
0.886538
1.11858
0.891092
1
1.11827
1.11975
0.999077
0.944027
1.11833
1.09174
1
0.887967
1
1
1.11821
1
1.00762
1.1183
1
0.882776
0.880192
1
1
0.888108
0.891248
1.11868
1.00001
1
0.8777
0.882415
1.11835
1.11696
1.11139
1.1193
1.03508
0.994752
1.05071
1.11956
1.09659
1
1.06704
1
0.886448
0.954892
1
0.886489
1.11848
1.0062
1.1188
1
1.11875
1.11997
1
1.11878
1.1185
0.887209
1.11898
1
1.12064
1
0.922459
0.88548
1.11903
1
1
1
0.88695
1.11868
1.11878
1
0.888497
1
1
0.883859
1.00001
0.881816
1.11995
1
0.947714
0.891766
1
1
1.07233
1
1
1
1.02178
0.885366
1
1
1
1.11884
0.894344
1
1.11837
0.883326
0.8901
1
1
1.11873
1
1.11783
1
1.11852
0.891566
1
1
0.890729
0.944912
0.884011
1
1
1
1
1.11811
0.879786
1
0.892797
1
1.11806
1
1
0.980716
1
1
0.943866
0.999906
1.00002
1
0.89389
0.885636
1
1
1
1
0.939263
1.11823
1.11965
1
0.895073
0.893355
0.974271
0.887482
1
0.948567
1
0.891139
0.995859
1
1
0.89669
1
1.119
1.11524
0.885047
1
1
1
1.11652
1
1.01622
0.952916
1.04052
0.885922
1.05059
0.884975
1
1
0.912772
0.972524
1
1.01228
1
1
0.895488
1
0.98424
1.01412
0.894003
1
1.09733
0.92071
0.963914
1
1
1
0.895778
1
0.888202
0.89588
1
0.956756
0.890724
1.0203
0.918091
0.884645
1.11866
1
1.11842
1.06795
0.920037
1.11856
0.890083
0.999722
1.11932
1
1
1.11859
1
0.917292
1
1.01938
1
1
1.11846
1
0.931648
0.948845
1.12032
0.982057
1
0.920991
1.11846
1.11906
0.97285
1
1.11855
1.03377
0.957934
1
1.0074
1
0.890563
1.05471
0.933317
0.922833
1
1
0.89416
1.11831
0.990597
0.894804
0.883622
0.959344
1
1.00538
1.11982
1.11836
1
1
1
0.887102
1.05971
1
1.11901
1.11176
0.887807
0.999998
1.02866
0.964256
1.07204
1.10534
1
1.01506
1
1.00002
0.878212
0.957332
1
1
0.948884
0.879373
1.01264
1
1
0.886202
1.05635
1
1.11696
1
1.01184
1.06783
1
1.11661
1
1
1.11899
1
0.888901
1.11992
0.897706
1.03421
1
0.893635
0.999974
1
1.00001
1
0.935274
1.00785
0.893585
1.09013
1.1198
0.882466
1
1
1
1
1
0.990822
0.89161
1.01613
0.894788
0.893917
1.02342
1
0.999947
1.03327
1
1
0.897275
0.998493
1
1
1.03773
1
1.11938
1
1.11943
1.02728
1.0086
0.88725
1
1
0.885423
1
1
1
1
1.11909
1.01231
0.99945
1
0.888065
1.01569
1
1
1.08031
1
0.88758
1.1184
1
1
1
1.11864
0.888283
0.971264
0.882835
1.09242
1.11892
1
1
1.11842
1
0.889617
1
1
1
1
1
0.924243
1
1.11893
1
1
1.04367
1.11935
0.890042
0.964123
1
1.11852
1
1
1
1
1
1.11841
1.11922
0.890504
1.11872
0.887775
1
1
1.11863
1
1.11976
1.00289
1.00829
1.01711
1.11886
1.01873
1.08332
0.885216
1
0.889143
0.996493
1
1.1184
1
1
0.888955
1.11857
1
1.11898
1
1
1
1
1
1
0.894247
1.11993
0.956308
1.11857
1
0.884127
0.891605
0.915302
1.12066
1.11821
0.992001
1
0.942872
1
1.0498
1
1.11863
0.887521
0.888568
0.959854
1
1.11858
1
1.02375
0.902229
1
1.12037
1.10886
0.999676
1
1.1187
0.887548
1.11974
1.11892
1.12036
0.89729
1.02674
1
1
0.885241
1
0.945332
0.950384
1
1.00001
1.11874
1
1.11844
1.02631
1
1.01229
1.1201
1
0.890296
1
0.921158
1
1
1.09987
1
0.939446
1
0.898168
1.01068
0.98607
0.88604
1.11875
1.09977
1.11956
0.895708
0.911912
0.998906
1
1
0.898412
1.11249
0.8855
0.999991
1
1.11856
1.11935
0.972461
1
0.884263
0.909736
1.08243
0.995487
0.889537
1
0.889571
1.03335
0.890286
1
1.00002
0.947291
1.11925
1.11885
0.953078
0.999887
1
1
0.908665
1
0.888393
1
0.893009
0.886442
1
1
1.00001
0.895061
1.11851
1
1
1.00002
1.00001
0.896151
1.11908
1.11861
1
0.893779
1.12
1
1.02967
1
1
1.11843
0.885406
1
1
0.884862
0.92105
0.889089
0.888374
1
0.902021
0.999224
1.02452
0.891027
1
1
1.03659
1
1.10643
1
1
1.0862
0.902953
1
0.892905
1.03571
1.11838
1
1
0.896074
0.889466
0.88545
0.914449
0.889169
1.0911
0.999826
1
1
1
1
1.11876
0.882427
1
0.983338
0.999908
0.999544
0.999982
0.924042
1.03518
1
1.1186
1.11868
1
1
1.11407
1.00001
1
1.1184
0.893816
1.11661
1
0.881395
1.11863
1.00001
1
0.949669
1
0.883433
1
1.11934
1
1
1.11934
1
1
1.11789
1
1
1
1.12007
1
0.925146
0.91705
1
0.883933
1.11821
1
1
0.993431
1
1.11956
1.07243
1.09727
1
1
0.896718
1
0.889619
1.11815
1.1197
1.11907
1
1.11986
0.885971
1
0.894836
1.09745
1.10993
1.11937
1.11861
0.920379
0.887042
1
1.08225
1.11943
1.11938
1.11858
0.925136
1.04667
1
1.09209
0.920946
1
1
1
1.00001
0.971631
1
1.11793
1
1
1
1
1
1
1.00002
1.11781
1
1.11907
1.0907
0.881071
1.12021
1.00857
1.0637
1
1.11862
1
0.893058
1
1
1
1
1.10275
1
0.884833
1.11898
0.882801
1.11848
1.09699
1.06507
1
1.025
1.05946
0.998748
0.899126
0.93115
1.00001
1
0.978816
1
0.88364
1.11933
0.880936
0.979655
0.958275
1
1
1
1.00414
1
1
0.888163
0.99872
1.11995
1
1.11851
1
0.888311
1
1
1.11848
1.119
0.884616
1
1.1192
1
0.945553
0.89197
1.11917
1.10779
1
1.02278
1.1188
0.999623
1
1.05455
1.10572
1.1184
0.998789
1
1
1.10226
1
1
1
1.1186
0.999567
1
1
1.11856
1
1
0.892658
1
1
1
1.11922
1
1
0.959475
1.03896
1.109
0.935587
1
1.11857
1
1.04339
1
1.11946
0.999256
1.11849
1
0.885819
1
1.08749
1
1
1.11155
1.00001
1.11858
1
1.11792
0.900507
0.893151
1.11917
1
1.10221
1
1.11934
1
1
1.00001
1.11875
1.11779
1.0352
1.11859
0.998585
0.893254
1.11848
0.960961
1
1.1172
1
1.11845
1
1.11904
1.11939
0.998908
0.886375
1
1.11847
1
1.00741
1
1
0.99939
0.916975
1.10738
1
1.11026
1
0.964292
0.88693
1.11911
1.11883
0.902782
1
1.11918
1.12059
1.11937
0.899582
1.11817
0.889745
1.11905
1.11921
1
1
1.11872
1
1
1
1
0.891104
1
1
1.11941
1.11848
1
1.11874
1
1.1213
1.11971
1
1.10104
1
0.883418
1.11867
1.08966
1.03777
0.883955
1.11856
1
1
0.889989
1
1
1.11859
1
1
0.935169
1
1.1186
1.00002
1.11882
0.885371
1.11938
1
1.11877
1.11445
0.971868
1
1.11784
0.928944
1.12002
1.08635
1.11864
1.11839
0.999201
1.11894
1.11857
1.11862
1.11842
1.00022
1
0.894918
1
1.11978
0.947686
1.1093
1
1.11663
1
1
1
1
1
1.11812
0.886424
0.889371
1.11926
1.1186
1
1
1
1
1
1.11772
1.10853
1.11842
1.00764
1
1
1
1.00001
1.11838
1.11851
1
1.12003
1.1194
0.899771
1.08629
1
1.11845
1.1193
1.1179
0.999327
1.11879
1.11903
1
1.10664
1
1
1
1
1
1
1.11866
1.11998
1.11122
1.11858
0.888082
0.907652
1.11859
1.1184
1
0.881699
0.983026
1
1.05976
0.891056
1
0.999844
0.999509
0.885582
1
1.11835
1
1
1
1.11922
0.985451
1
1.11851
1.1187
1
1.11913
1
1
1.11859
1
0.883045
1
1.11815
1
1
0.901449
1
1.11853
1
0.885188
0.880714
1
1.11731
1
0.882565
0.971726
1
1.1187
1
1
1
1.11916
1
0.88248
1.0174
1.11918
1.11903
1.11858
1.01364
1.11906
1.11843
1
1
1
1
1
1.11867
1
0.999799
1.11888
1
0.882194
1
1.11854
1.05943
1.01706
1.0588
1.01668
1.1171
0.9142
1.11863
1
0.89223
0.999184
1.11849
0.984253
1.11859
1.11883
1.11637
1
1.11926
1.11868
1.11861
1
1.00001
1
1
1.1192
1.0867
1
1
0.893654
0.99905
1
1.11852
1
1.11846
1.11863
1.11818
0.971746
1.11886
1.1186
1.00222
1.06026
1.11951
1.11872
1
1.11049
0.953811
1.11778
0.997309
1.11847
1
1.11849
1.11882
1
0.890523
0.981519
0.909847
1
1.025
0.999138
1.11868
1
1
0.999146
1
1.06305
1.11028
1
1
1.1189
1
1
1.08758
1.11822
1.11425
1.11879
1.11886
1
1.11822
0.919928
1.11891
1
0.998299
0.882272
1
1
0.917499
1
1.03922
1
1.11895
1
1.11657
1.07854
0.884136
1
1
1
1
1
1.11894
1.00324
1
1.12
1
1.11885
1.11853
1
1
0.992295
0.999956
0.884469
0.880323
0.917848
1.02624
1
0.999552
0.887406
1.00001
1
1.11853
0.982933
1.1115
1.10283
1
1
1
1
1
1.11863
1.11853
1
1.11877
1
1.11968
1.08307
0.998838
1
1
1
1.07244
1
0.989229
1
1.11899
1
1
1.11847
1
1
1
1
1
1.1188
0.88705
0.99889
1.10728
1.11849
1
1.11858
1
1
1
1
0.90556
1
1.11846
1.11866
1.11874
1.11929
0.986673
1
1.10176
1.03159
1.12027
1.11863
1.02377
1.11865
1
1
1
1.11873
1
1.1188
1.00396
1.07742
1.11914