/*--------------------------------*- C++ -*----------------------------------*\
  =========                 |
  \\      /  F ield         | OpenFOAM: The Open Source CFD Toolbox
   \\    /   O peration     | Website:  https://openfoam.org
    \\  /    A nd           | Version:  12
     \\/     M anipulation  |
\*---------------------------------------------------------------------------*/
FoamFile
{
    format      ascii;
    class       volScalarField;
    location    "4.02";
    object      rho;
}
// * * * * * * * * * * * * * * * * * * * * * * * * * * * * * * * * * * * * * //

dimensions      [1 -3 0 0 0 0 0];

internalField   nonuniform List<scalar> 
22702
(
1.40001
1.40001
1.25309
1.40001
1.44918
1.40001
1.84229
1.40001
1.40001
1.05257
1.83837
1.84393
1.40001
1.84118
1.28623
1.40001
1.40001
1.40001
1.83855
1.40001
1.84142
1.40001
1.83809
1.02041
1.84558
1.04004
1.40001
1.83678
1.0228
1.03655
1.40001
1.8417
1.40001
1.40001
1.40001
1.80558
1.84529
1.83804
1.40001
1.40001
1.05605
1.40001
1.63237
1.40001
1.83519
1.40001
1.40001
1.40001
1.40001
1.03023
1.40001
1.02315
1.40001
1.83864
1.40001
1.83542
1.40001
1.40001
1.40001
1.40001
1.00079
1.40001
1.40001
1.02265
1.40001
1.04176
1.40001
1.40001
1.40001
1.06299
1.40001
1.84282
1.68196
1.40001
1.84312
1.86615
1.04999
1.84539
1.03118
1.40001
1.83821
1.0296
1.83747
1.83749
1.40001
1.40001
1.40001
1.40001
1.31309
1.06384
1.84099
1.40001
1.40001
1.05192
1.40001
1.84194
1.04723
1.40001
1.40001
1.40001
1.40001
1.62167
1.83861
1.07892
1.40001
1.40001
1.50583
1.40001
1.03139
1.40001
1.84352
1.8385
1.40001
1.40001
1.02147
1.0222
1.05979
1.40001
1.40001
1.40001
1.40001
1.40001
1.30715
1.40001
1.78748
1.43211
1.84126
1.40001
1.84181
1.83755
1.84228
1.83843
1.40001
1.05104
1.40001
1.0217
1.40001
1.40001
1.40001
1.40001
1.83777
1.40001
1.40001
1.40001
1.40001
1.84016
1.40001
1.42729
1.40001
1.40001
1.40001
1.40001
1.03166
1.40001
1.41132
1.40001
1.02587
1.40001
1.40001
1.40001
1.83993
1.40001
1.84161
0.99285
1.0147
1.84433
1.84202
1.40001
1.47302
1.66599
1.40001
1.83233
1.03175
1.80981
1.40001
1.40001
1.40001
1.40001
1.84128
1.75898
1.40001
1.83869
1.01965
1.83295
1.40001
1.02341
1.40001
1.03598
1.0332
1.39979
1.40001
1.40001
1.83745
1.40001
1.40001
1.84099
1.40001
1.83783
1.83903
1.03053
1.40001
1.40001
1.02149
1.84085
1.40001
1.40001
1.40001
1.84098
1.40001
1.03
1.40001
1.40001
1.84197
1.84159
1.8397
1.40001
1.40004
1.40001
1.40001
1.40001
1.84232
1.40001
1.02519
1.85985
1.84128
1.84228
1.40001
1.40001
1.40001
1.01618
1.84249
1.6101
1.40001
1.84364
1.0274
1.02479
1.84248
1.84421
1.40001
1.83762
1.04616
1.79868
1.40001
1.40001
1.40001
1.40001
1.84153
1.40001
1.65679
1.44511
1.40001
1.40001
1.84224
1.01881
1.16517
1.40001
1.8427
1.04896
1.83737
1.40001
1.40001
1.40001
1.40001
1.40001
1.40001
1.40001
1.02701
1.18083
1.02624
1.8414
1.40001
1.40001
1.40001
1.40001
1.79448
1.40001
1.02683
1.40001
1.0009
1.02231
1.84175
1.03607
1.84149
1.40001
1.40001
1.40001
1.39769
1.02161
1.04125
1.4
1.40001
1.00241
1.40001
1.83807
1.08174
1.40001
1.40001
1.83808
1.0059
1.40001
1.84319
1.01063
1.84245
1.40001
1.00815
1.39769
1.40001
1.40001
1.40001
1.01284
1.40001
1.40001
1.40001
1.40001
1.41679
1.66915
1.40001
1.03913
1.40001
1.40001
1.40001
1.40001
1.40001
1.40001
1.40001
1.83853
1.40001
1.83687
1.40001
1.40001
1.40001
1.01414
1.40001
1.83921
1.01518
1.40001
1.74476
1.40001
1.40001
1.83981
1.40001
1.40001
1.40001
1.82741
1.40001
1.40001
1.82702
1.83945
1.40001
1.48786
1.40001
1.40001
1.01936
1.40001
1.40001
1.40001
1.04958
1.40001
1.40001
1.40001
1.40001
1.02633
1.40001
1.40001
1.40001
1.40001
1.40001
1.05371
1.40007
1.84221
1.40001
1.39999
1.84304
1.84396
1.40001
1.40001
1.03699
1.20112
1.83875
1.40001
1.40001
1.40001
1.84252
1.06008
1.40001
1.84222
1.40001
1.40001
1.11383
1.12579
1.40001
1.03063
1.01156
1.40001
1.40001
1.40001
1.40001
1.40001
1.40001
1.40001
1.84041
1.50371
1.82351
1.04719
1.3017
1.8362
1.40001
1.84329
1.83856
1.01934
1.15758
1.40001
1.03118
1.40001
1.84531
1.40001
1.40001
1.40001
1.40001
1.84084
1.40001
1.40001
1.40001
1.40001
1.40001
1.40001
1.40001
1.56665
1.83894
1.40001
1.84153
1.40001
1.40001
1.02713
1.40001
1.40001
1.40001
1.40001
1.8412
1.73837
1.40001
1.40001
1.02073
1.84204
1.84186
1.40001
1.84191
1.84119
1.84156
1.40001
1.22503
1.40001
1.84188
1.38727
1.84156
1.40001
1.02234
1.39887
1.83932
1.40001
1.40001
1.40001
1.40001
1.03225
1.84212
1.79562
1.40001
1.84264
1.84251
1.83917
1.40001
1.6067
1.84318
1.40001
1.40001
1.70775
1.46684
1.84189
1.31562
1.84184
1.40001
1.84162
1.84139
1.84157
1.84231
1.40001
1.81954
1.31314
1.29899
1.40001
1.4
1.40001
1.40001
1.84656
1.40001
1.40001
1.40001
1.40001
1.40001
1.84035
1.40001
1.40001
1.39647
1.84172
1.78799
1.40001
1.77082
1.40005
1.40001
1.40001
1.84243
1.40001
1.39614
1.40427
1.40001
1.84186
1.40001
1.8422
1.40001
1.40001
1.72976
1.40001
1.84154
1.40003
1.40001
1.83992
1.40001
1.84115
1.40001
1.40001
1.40001
1.84112
1.40001
1.84394
1.40001
1.84115
1.83807
1.84221
1.83856
1.40001
1.8383
1.84166
1.40001
1.04169
1.81467
1.70495
1.40001
1.84096
1.40001
1.01643
1.00006
1.40001
1.40001
1.40001
1.40001
1.40001
1.05318
1.40001
1.8416
1.51023
1.84267
1.40001
1.40001
1.40001
1.40001
1.40001
1.84125
1.40001
1.84196
1.66532
1.16363
1.40001
1.40002
1.52539
1.51267
1.40001
1.40001
1.55773
1.40001
1.02151
1.84169
1.84194
1.40001
1.40001
1.40001
1.83973
1.40001
1.40003
1.84089
1.84236
1.32659
1.40001
1.40001
1.02766
1.80226
1.40001
1.40001
1.40001
1.40001
1.40001
1.84153
1.83821
1.40001
1.84031
1.84318
1.84228
1.40001
1.40001
1.40001
1.40001
1.0754
1.83778
1.40001
1.40001
1.80317
1.84122
1.40001
1.8176
1.84108
1.40001
1.40001
1.40001
1.40001
1.40001
1.8419
1.40001
1.40001
1.40001
1.40001
1.84691
1.40001
1.82891
1.01102
1.40001
1.04513
1.40001
1.40001
1.40001
1.397
1.03957
1.39903
1.40001
1.40001
1.40001
1.46225
1.40001
1.40001
1.24803
1.40001
1.40001
1.40001
1.40001
1.40001
1.40001
1.40001
1.4
1.32688
1.4
1.40001
1.39764
1.40001
1.03062
1.40001
1.40001
1.40001
1.40001
1.73143
1.40001
1.40001
1.40001
1.40001
0.998194
1.40001
1.40001
1.8163
1.83751
1.4
1.40001
1.40001
1.30071
1.40001
1.40001
1.40001
1.40001
1.40001
1.40001
1.32467
1.40918
1.84147
1.40001
1.40001
1.40001
1.83986
1.28447
1.40001
1.40001
1.40001
1.83673
1.83982
1.40001
1.40001
1.40001
1.40001
1.40001
1.40001
1.40001
1.40001
1.40001
1.01341
1.40001
1.40001
1.84017
1.03065
1.40001
1.83948
1.40001
1.02749
1.40001
1.40001
1.01177
1.40001
1.40001
1.40001
1.40001
1.40001
1.40001
1.40001
1.83294
1.84137
1.40001
1.40001
1.40001
1.40001
1.80408
1.40001
1.53358
1.04007
1.40001
1.40001
1.40001
1.40001
1.40001
1.40001
1.40001
1.41321
1.40001
1.40001
1.6343
1.40001
1.40001
1.40001
1.76697
1.40001
1.40001
1.40001
1.40001
1.03264
1.40001
1.40001
1.00059
1.03168
1.40001
1.40001
1.84248
1.40001
1.4094
1.40001
1.40001
1.40001
1.70886
1.03449
1.40001
1.03425
1.40001
1.18796
1.40001
1.40001
1.40001
1.84216
1.40001
1.40001
1.84196
1.40001
1.40001
1.40001
1.84189
1.40001
1.40001
1.84106
1.40001
1.40001
1.02319
1.40001
1.53496
1.40001
1.40001
1.83683
1.83657
1.69165
1.79316
1.40001
1.01711
1.40001
1.40001
1.82242
1.40001
1.04888
1.40001
1.40001
1.40001
1.84158
1.40001
1.40001
1.40001
1.40001
1.66863
1.40001
1.80191
1.84494
1.06397
1.40001
1.40001
1.0612
1.02028
1.40001
1.40001
1.40001
1.7171
1.73512
1.40001
1.40001
1.40001
1.40001
1.40001
1.40001
1.40001
1.58672
1.83605
1.39229
1.40001
1.83781
1.03557
1.40001
1.40001
1.40001
1.64498
1.40001
1.49131
1.40001
1.80426
1.84449
1.40001
1.02489
1.40001
1.83256
1.40001
1.40001
1.84118
1.81698
1.40001
1.84553
1.40001
1.00553
1.40001
1.40001
1.40001
1.84985
1.83227
1.78893
1.40001
1.84054
1.84162
1.40001
1.84206
1.40001
1.84242
1.40001
1.05102
1.38496
1.01309
1.40001
1.40001
1.40001
1.40001
1.40001
1.84164
1.40001
1.84188
1.40001
1.40001
1.40001
1.81932
1.40001
1.04653
1.8421
1.40001
0.995833
1.07967
1.067
1.40001
1.60993
1.43501
1.84139
1.84195
1.40001
1.4
1.40001
1.40001
1.84215
1.40001
1.40001
1.84215
1.84126
1.40001
1.55392
1.39969
1.40001
1.3967
1.84195
1.25249
1.40001
1.2171
1.02645
1.02224
1.34804
1.83842
1.83814
1.48968
1.84241
1.84156
1.40001
1.40001
1.83929
1.83852
1.84045
1.8411
1.40001
1.84631
1.05027
1.8427
1.84187
1.83895
1.84048
1.26397
1.27005
1.31285
1.84158
1.36163
1.8425
1.40001
1.40001
1.84622
1.84205
1.40001
1.03298
1.8414
1.84112
1.40001
1.84243
1.84137
1.40001
1.84229
0.997347
1.84204
1.83774
1.83784
1.84499
1.40001
1.40001
1.40001
1.84106
1.68302
1.06442
1.84145
1.00093
1.84139
1.40001
1.40001
1.40001
1.40001
1.84372
1.84146
1.40001
1.40001
1.84127
1.00306
1.84057
1.02828
1.40001
1.83685
1.40001
1.04547
1.8434
1.13195
1.40001
1.84199
1.84454
1.84293
1.40001
1.40001
1.621
1.84357
1.03021
1.84151
1.40001
1.84625
1.26691
1.8434
1.01778
1.40001
1.84337
1.10456
1.84643
1.02605
1.40001
1.84178
1.40001
1.83931
1.40001
1.67195
1.82561
1.74678
1.01707
1.40001
1.84205
1.40001
1.84505
1.40001
1.84214
1.40001
1.40001
1.84255
1.37072
1.84451
1.02091
1.77967
1.40001
1.7126
1.40001
1.84308
1.84181
1.84243
1.40001
1.79783
1.8419
1.8064
1.66996
1.84141
1.40001
1.69005
1.40001
1.84259
1.40001
1.4576
1.40001
1.80983
1.40001
1.84581
1.82114
1.81973
1.40001
1.82925
0.99801
1.40001
1.01082
1.40001
1.40001
1.40001
1.8409
1.40001
1.84226
1.40001
1.40001
1.40001
1.84207
1.83689
1.77384
1.84407
1.83972
1.05024
1.84969
1.83561
1.40001
1.76927
1.84097
1.83445
1.40001
1.83214
1.83743
1.40001
1.84269
1.84098
1.84163
1.84334
1.40001
1.40001
1.40001
1.83893
1.0293
1.40001
1.84193
1.40001
1.40001
0.997083
1.40001
1.40001
1.84101
1.8421
1.40001
1.84179
1.85233
1.84132
1.38033
1.84205
1.40001
1.84198
1.84208
1.7433
1.40001
1.40001
1.40001
1.84134
1.84181
1.84152
1.35141
1.40001
1.84893
1.84169
1.84093
1.40001
1.84156
1.84217
1.84127
1.85207
1.40001
1.84185
1.84688
1.78472
1.84297
1.85103
1.40001
1.84585
1.83688
1.84161
1.84341
1.84311
1.02729
1.84109
1.84221
1.40001
1.84097
1.84204
1.84166
1.84089
1.40001
1.84262
1.84119
1.40001
1.84106
1.77131
1.40001
1.40001
1.40001
1.84223
1.84907
1.40001
1.40001
1.64548
1.40001
1.84227
1.40001
1.40001
1.84136
1.84586
1.84185
1.84158
1.40001
1.40001
1.40001
1.70394
1.40001
1.84322
1.40001
1.40001
1.84106
1.83755
1.40001
1.8402
1.03339
1.84233
1.83982
1.13712
1.40001
1.03511
1.77988
1.8395
1.83748
1.83932
1.02234
1.84227
1.84211
1.02583
0.999996
1.40001
1.84579
1.84142
1.40001
1.40001
1.8425
1.40001
1.84426
1.40001
1.78789
1.40001
1.61604
1.84253
1.84463
1.6979
1.78302
1.83712
1.84259
1.8114
1.40001
1.02541
1.84631
1.84144
1.84428
1.40002
1.40001
1.40001
1.84498
1.40001
1.84216
1.84182
1.16849
1.40001
1.8422
1.39995
1.40001
1.40004
1.40005
1.84129
1.84033
1.39848
1.40001
1.40001
1.84084
1.84389
1.83909
1.83977
1.84493
1.06855
1.76535
1.40001
1.83728
1.84201
1.84182
1.83442
1.40001
1.84172
1.82867
1.84323
1.40001
1.84239
1.84134
1.25849
1.84126
1.84227
1.40001
1.84154
1.23779
1.84201
1.257
1.84184
1.40001
1.84257
1.85012
1.84156
1.8422
1.84204
1.84163
1.84258
1.83849
1.40001
1.32079
1.84202
1.84161
1.24139
1.84147
1.36676
1.67567
1.84202
1.84351
1.84136
1.40001
1.84453
1.69161
1.84377
1.29817
1.8442
1.84129
1.40001
1.27025
1.40001
1.84567
1.40001
1.70175
1.40001
1.83607
1.26487
1.40001
1.84031
1.84841
1.40001
1.84467
1.84134
1.84648
1.8358
1.83926
1.40001
1.83726
1.40001
1.40001
1.40001
1.28418
1.84164
1.84091
1.83689
1.84031
1.843
1.83978
1.85479
1.84212
1.28036
1.43219
1.40001
1.40001
1.84409
1.84152
1.84137
1.84174
1.40003
1.62993
1.40001
1.84235
1.80675
1.40001
1.40001
1.11491
1.84201
1.40001
1.40001
1.03019
1.84309
1.40001
1.83534
1.84215
1.83753
1.82842
1.84112
1.40001
1.0385
1.50884
1.84112
1.84128
1.40001
1.84655
1.84116
1.62595
1.41069
1.50035
1.40001
1.83909
1.84179
1.40001
1.40001
1.02246
1.40001
1.40001
1.84095
1.84113
1.84068
1.83937
1.84088
1.84146
1.8429
1.84415
1.84136
1.40001
1.39615
1.84159
1.83831
1.39672
1.84099
1.84211
1.04425
1.0657
1.8459
1.84799
1.40001
1.40001
1.40181
1.84086
1.8403
1.84265
1.40001
1.84044
1.40001
1.25893
1.84409
1.83515
1.40001
1.59613
1.84259
1.40001
1.84065
1.40001
1.84198
1.68038
1.84384
1.40001
1.84257
1.84722
1.02514
1.84127
1.40001
1.84019
1.83637
1.40001
1.05184
1.84002
1.78091
1.39753
1.81152
1.84208
1.40001
1.3906
1.84619
1.39751
1.84207
1.40001
1.40001
1.84311
1.40001
1.84094
1.84116
1.39623
1.75368
1.40001
1.84174
1.40001
1.40001
1.40001
1.40001
1.84168
1.40001
1.40001
1.83679
1.40001
1.84183
1.40001
1.68412
1.84711
1.84059
1.40001
1.40001
1.40119
1.40001
1.8401
1.84091
1.84136
1.84093
1.84113
1.84168
1.84123
1.40001
1.84119
1.84689
1.40001
1.8416
1.84246
1.40001
1.84178
1.31059
1.45496
1.84088
1.84055
1.84311
1.40001
1.84105
1.40001
1.84175
1.84096
1.40001
1.84648
1.40001
1.40001
1.40001
1.40001
1.84307
1.03021
1.39781
1.40001
1.84218
1.83973
1.40001
1.84149
1.40001
1.40468
1.04235
1.84255
1.39963
1.40001
1.83973
1.39836
1.84234
1.40001
1.39977
1.40001
1.8398
1.84035
1.84099
1.8416
1.04239
1.84277
1.84183
1.84266
1.51408
1.40001
1.40001
1.58964
1.84077
1.02747
1.04466
1.40001
1.8423
1.84107
1.83726
1.40001
1.40001
1.83955
1.84298
1.39989
1.40001
1.72992
1.02603
1.40001
1.47779
1.83816
1.82893
1.39821
1.84242
1.84794
1.40001
1.39866
1.40001
1.84001
1.84145
1.57331
1.40001
1.83092
1.40001
1.40217
1.84014
1.05865
1.8418
1.84186
1.39689
1.39991
1.78886
1.40001
1.3997
1.40001
1.84086
1.40001
1.40002
1.03626
1.84342
1.40001
1.40001
1.40001
1.40001
1.8463
1.6489
1.40001
1.40001
1.04333
1.8397
1.64895
1.40001
1.40001
1.40001
1.819
1.83684
1.83984
1.40001
1.40001
1.84525
1.40001
1.84132
1.84194
1.40001
1.40001
1.84194
1.84251
1.82422
1.40001
1.40001
1.84676
1.84219
1.40001
1.40001
1.40001
1.84195
1.40001
1.40001
1.40001
1.84205
1.84526
1.8445
1.40001
1.84843
1.40003
1.09258
1.84194
1.84127
1.40001
1.84174
1.8039
1.84343
1.40001
1.40001
1.84367
1.40001
1.64227
1.84085
1.40001
1.03435
1.40001
1.83898
1.40001
1.40001
1.84475
1.40001
1.40001
1.40001
1.53586
1.83922
1.07332
1.40002
1.84292
1.40001
1.40001
1.8405
1.40001
1.84468
1.40001
1.40001
1.84066
1.842
1.40001
1.40006
1.40001
1.40001
1.40001
1.40001
1.40001
1.40001
1.84857
1.84431
1.40001
1.83553
1.02721
1.84633
1.40001
1.84172
1.83472
1.84014
1.8492
1.8446
1.40001
1.40001
1.83887
1.40001
1.67448
1.84681
1.84125
1.40001
1.84506
1.84527
1.40001
1.80479
1.40001
1.84183
1.68373
1.83813
1.39755
1.83622
1.79606
1.844
1.84219
1.4388
1.84127
1.84523
1.40001
1.84156
1.40001
1.84216
1.40001
1.40001
1.40001
1.40001
1.39578
1.84248
1.84242
1.76572
1.40001
1.84146
1.40001
1.40001
1.40001
1.03545
1.40001
1.83179
1.40001
1.81242
1.82696
1.40001
1.40001
1.40001
1.81412
1.8414
1.40001
1.40001
1.84326
1.03913
1.46357
1.40001
1.84591
1.84167
1.8083
1.83179
1.84126
1.40001
1.84294
1.40001
1.40001
1.40001
1.40001
1.84048
1.8418
1.40001
1.83479
1.45256
1.84183
1.82236
1.40001
1.40001
1.82448
1.40001
1.40001
1.03249
1.71232
1.40001
1.40001
1.84171
1.40001
1.84563
1.80225
1.40001
1.80012
1.04143
1.84171
1.8433
1.83917
1.40001
1.01826
1.40001
1.40001
1.40001
1.84182
1.78232
1.40001
1.83785
1.84175
1.40001
1.84317
1.40001
1.40001
1.40001
1.40001
1.84104
1.39936
1.40001
1.83769
1.40001
1.40001
1.84389
1.84381
1.40001
1.8444
1.48608
1.40002
1.40001
1.84286
1.40001
1.84263
1.40001
1.41704
1.84216
1.40001
1.84092
1.40001
1.40001
1.53846
1.84071
1.40001
1.40001
1.40001
1.40001
1.40001
1.39627
1.02183
1.04844
1.42007
1.40001
1.42896
1.40001
1.43246
1.40001
1.84217
1.40001
1.66162
1.40001
1.84006
1.40001
1.40001
1.40001
1.84078
1.40001
1.77171
1.84221
1.40001
1.63365
1.843
1.40001
1.40001
1.8404
1.8433
1.40001
1.40001
1.45013
1.01086
1.40001
1.84206
1.40001
1.40001
1.40001
1.40001
1.47503
1.84213
1.40001
1.40001
1.40001
1.04209
1.40001
1.84041
1.84191
1.85185
1.40001
1.40001
1.40001
1.40001
1.61493
1.84165
1.40001
1.40001
1.40001
1.84376
1.83942
1.44702
1.40001
1.40001
1.40001
1.84299
1.83806
1.40001
1.03643
1.84225
1.84699
1.841
1.8406
1.84361
1.40001
1.40001
1.83876
1.8449
1.84115
1.03074
1.43963
1.84193
1.40001
1.40001
1.40001
1.40001
1.40001
1.84092
1.04369
1.40001
1.40001
1.84106
1.59769
1.40001
1.83978
1.40001
1.40001
1.40001
1.01039
1.40001
1.40001
1.5102
1.84233
1.84597
1.40001
1.84134
1.84175
1.40001
1.46053
1.40001
1.84018
1.40001
1.83993
1.03919
1.40001
1.40001
1.40001
1.40001
1.84244
1.40007
1.40001
1.40001
1.40001
1.83172
1.40001
1.40001
1.40001
1.40001
1.84144
1.01321
1.74411
1.84355
1.40001
1.84628
1.40001
1.40001
1.40001
1.39713
1.40001
1.83899
1.40001
1.21066
1.40001
1.40001
1.40004
1.84447
1.03431
1.40001
1.84346
1.40001
1.84636
1.84093
1.04231
1.40001
1.40001
1.82226
1.40001
1.40001
0.99217
1.40001
1.84465
1.40001
1.82948
1.39929
1.84352
1.40001
1.40001
1.40001
1.40001
1.83971
1.40001
1.40001
1.84112
1.40001
1.40001
1.40001
1.40001
1.40001
1.40001
1.40001
1.40001
1.68928
1.40001
1.5417
1.84021
1.40001
1.40001
1.40001
1.0124
1.40001
1.40001
1.40001
1.40001
1.83978
1.84305
1.45198
1.40001
1.40001
1.8395
1.40001
1.40001
1.84042
1.40001
1.40002
1.40001
1.40001
1.40001
1.40002
1.84159
1.19059
1.8429
1.83855
1.39708
1.40001
1.40001
1.40001
1.65899
1.40001
1.40001
1.84059
1.84112
1.40001
1.40001
1.40001
1.40001
1.03971
1.40001
1.40001
1.40001
1.68024
1.40001
1.84035
1.84534
1.40001
1.84303
1.40001
1.40001
1.40001
1.63654
1.40001
1.8384
1.40001
1.84009
1.40001
1.40001
1.39635
1.84323
1.40001
1.40001
1.40001
1.40001
1.40001
1.84015
1.40003
1.40001
1.02858
1.83951
1.01158
1.40001
1.84488
1.40001
1.39568
1.40001
1.84342
1.84544
1.40001
1.83543
1.29081
1.8424
1.84323
1.40004
1.40001
1.40001
1.02468
1.40001
1.40001
1.40001
1.84095
1.65232
1.83884
1.40001
1.40001
1.40001
1.40001
1.39674
1.84119
1.40001
1.03929
1.40001
1.40001
1.40001
1.40001
1.40001
1.40001
1.40001
1.85019
1.83919
1.84586
1.40001
1.40001
1.39686
1.40001
1.37942
1.40001
1.40001
1.40001
1.04178
1.38254
1.40001
1.02017
1.01553
1.40001
1.83703
1.84138
1.40001
1.83882
1.84145
1.02993
1.71316
1.40001
1.40001
1.40001
1.04115
1.84049
1.40001
1.03947
1.40001
1.83841
1.47179
1.40001
1.40001
1.40001
1.40001
1.84007
1.84011
1.40001
1.40001
1.83672
1.40001
1.40001
1.83761
1.84131
1.40001
1.80551
1.84036
1.83791
1.34339
1.84428
1.40907
1.03531
1.73944
1.84501
1.40001
1.40001
1.40001
1.05045
1.40001
1.02369
1.84903
1.34354
1.83971
1.34951
1.40001
1.84571
1.59644
1.40001
1.40001
1.84114
1.40001
1.57927
1.84054
1.40001
1.40001
1.84198
1.82883
1.0209
1.65435
1.3999
1.40001
1.65481
1.40001
1.84519
1.34779
1.84662
1.85536
1.40001
1.40001
1.40001
1.40001
1.82878
1.40001
1.40001
1.83962
1.39965
1.84106
1.76584
1.84011
1.03237
1.40001
1.40001
1.40001
1.40001
1.84107
1.40005
1.84082
1.40001
1.84112
1.84113
1.45678
1.84853
1.53524
1.84286
1.40001
1.69662
1.05273
1.84784
1.84146
1.7578
1.47496
1.84076
1.84687
1.84065
1.84345
1.40001
1.31274
1.46389
1.40001
1.84176
1.61305
1.84206
1.40004
1.40001
1.40001
1.05874
1.84874
1.84113
1.75826
1.40001
1.57126
1.40001
1.85346
1.85647
1.40001
1.84005
1.84093
1.40001
1.40001
1.40001
1.84
1.40001
1.57423
1.85152
1.7077
1.40001
1.84205
1.40001
1.40001
1.40001
1.40001
1.40001
1.40001
1.40001
1.40001
1.40001
1.40001
1.0479
1.40001
1.81929
1.03577
1.65862
1.39859
1.84673
1.40001
1.63788
1.40002
1.68042
1.76934
1.40001
1.40236
1.8371
1.30735
1.40001
1.83439
1.84248
1.33576
1.40001
1.84049
1.84089
1.84466
1.40001
1.84133
1.83911
1.84498
1.40001
1.5974
1.40001
1.40006
1.84112
1.40001
1.84138
1.46572
1.84222
1.40001
1.40001
1.84282
1.83864
1.06451
1.40001
1.84163
1.73358
1.83662
1.40001
1.40001
1.84021
1.84494
1.39823
1.40001
1.80431
1.39676
1.84134
1.40006
1.40001
1.40001
1.40001
1.40001
1.60272
1.40001
1.7364
1.84207
1.73116
1.84066
1.40001
1.40493
1.40001
1.40001
1.83719
1.40001
1.84485
1.40001
1.40001
1.40001
1.40001
1.4
1.40001
1.45364
1.63236
1.40001
1.40001
1.01721
1.40001
1.8452
1.06895
1.83872
1.40001
1.61656
1.39976
1.8422
1.68445
1.03758
1.64237
1.40004
1.84206
1.84167
1.40001
1.66438
1.84472
1.84338
1.39839
1.84922
1.83306
1.05584
1.40001
1.40001
1.39729
1.40001
1.83489
1.40001
1.06051
1.83908
1.40001
1.40001
1.78929
1.40001
1.84116
1.40001
1.84035
1.40001
1.06793
1.40001
1.40001
1.83953
1.85248
1.83546
1.40001
1.84473
1.84183
1.83615
1.40001
1.40001
1.84073
1.4
1.12159
1.40001
1.40001
1.40001
1.84187
1.40001
1.84161
1.68433
1.84428
1.40001
1.8475
1.39939
1.40001
1.40001
1.40001
1.40001
1.40001
1.40001
1.11203
1.40001
1.40001
1.84047
1.40001
1.84027
1.85056
1.40001
1.06026
1.02357
1.40001
1.84326
1.47652
1.04194
1.00417
1.40001
1.83992
1.40001
1.8424
1.02368
1.40123
1.40001
1.40001
1.39953
1.40001
1.40001
1.40001
1.39992
1.58327
1.84183
1.40001
1.40001
1.84329
1.66093
1.40001
1.81396
1.84197
1.84185
1.58551
1.82358
1.40001
1.84281
1.40001
1.83266
1.40001
1.84607
1.84426
1.39719
1.84055
1.83867
1.40001
1.40001
1.40001
1.40001
1.40001
1.31916
1.84036
1.40005
1.40003
1.05439
1.39999
1.02557
1.05729
1.40001
1.84133
1.84242
1.84167
1.40001
1.84205
1.40001
1.03391
1.40001
1.40001
1.8392
1.22786
1.84493
1.40001
1.83978
1.40001
1.37994
1.84195
1.40001
1.40001
1.40001
1.84119
1.40001
1.84162
1.02085
1.40001
1.40001
1.65259
1.40001
1.40001
1.63835
1.40001
1.40001
1.84161
1.40001
1.40001
1.40001
1.40001
1.40001
1.85677
1.8417
1.40001
1.84056
1.84212
1.03083
1.59705
1.84139
1.40001
1.40001
1.79729
1.39898
1.40001
1.40001
1.84147
1.83692
1.69098
1.40001
1.84164
1.04132
1.80822
1.39951
1.40001
1.84274
1.40004
1.84251
1.75846
1.73862
1.40001
1.40001
1.84123
1.08951
1.02883
1.40001
1.8419
1.40001
1.84131
1.40001
1.66268
1.40001
1.40001
1.84123
1.68309
1.04071
1.40001
1.39806
1.40001
1.40001
1.42565
1.5772
1.84081
1.40001
1.83814
1.40001
1.40001
1.40001
1.40001
1.40001
1.40001
1.4653
1.03549
1.40001
1.40001
1.43115
1.40001
1.40001
1.40001
1.40001
1.40001
1.84244
1.40001
1.40001
1.84219
1.84199
1.73246
1.40001
1.40001
1.40001
1.22707
1.84243
1.71047
1.40001
1.40001
1.40001
1.40001
1.84071
1.40001
1.40001
1.40001
1.84586
1.40001
1.40001
1.72164
1.85259
1.4226
1.14668
1.84227
1.71462
1.84262
1.40001
1.62471
1.40001
1.40001
1.40001
1.08761
1.40271
1.07037
1.40001
1.04863
1.02002
1.40001
1.02635
1.40001
1.40001
1.40001
1.59817
1.40001
1.84176
1.84184
1.40121
1.61362
1.78338
1.02314
1.15997
1.29071
1.40001
1.84502
1.83772
1.84513
1.84059
1.77901
1.2761
1.40001
1.78168
1.40001
1.82142
1.40001
1.40001
1.39633
1.40993
1.40001
1.40001
1.40001
1.84068
1.40001
1.0132
1.40001
1.84313
1.02576
1.40001
1.40001
1.84067
1.40001
1.84199
1.39876
1.40001
1.40001
1.84505
1.78713
1.40001
1.85394
1.40001
1.40001
1.41466
1.40001
1.60499
1.40001
1.40001
1.02749
1.40001
1.40001
1.84199
1.4
1.84067
1.40001
1.40004
1.02686
1.40001
1.40001
1.04276
1.40082
1.40001
1.83964
1.01825
1.8486
1.0353
1.84111
1.40001
1.40001
1.40001
1.40001
1.4
1.40001
1.40001
1.40001
1.40001
1.40001
1.40001
1.82567
1.40001
1.84064
1.83806
1.03597
1.40001
1.40001
1.40001
1.40001
1.40001
1.40001
1.82521
1.40001
1.40001
1.02778
1.40001
1.40001
1.83855
1.40001
1.40001
1.56605
1.77006
1.02015
1.02104
1.11436
1.13361
1.40001
1.39628
1.06703
1.40025
1.82457
1.39693
1.40001
1.40001
1.84088
1.40001
1.40001
1.40001
1.17472
1.40002
1.55559
1.40001
1.40001
1.58244
1.84145
1.40001
1.07004
1.40001
1.40001
1.40001
1.39676
1.40001
1.83931
1.84078
1.40001
1.05552
1.40001
1.63621
1.05878
1.40001
1.27201
1.40001
1.39611
1.01638
1.40001
1.40001
1.40001
1.39621
1.0426
1.40001
1.05685
1.39841
1.63248
1.79286
1.01989
1.01618
1.40001
1.39073
1.40001
1.39868
1.40001
1.84032
1.84601
1.40001
1.40359
1.84091
1.84649
1.40001
1.40001
1.84085
1.40001
1.40001
1.40005
1.40001
1.84679
1.40001
1.40001
1.41816
1.40001
1.39862
1.09564
1.40001
1.40001
1.40001
1.40001
1.40001
1.84471
1.43327
1.40005
1.40001
1.40001
1.40001
1.40001
1.40001
1.40004
1.40001
1.03599
1.50015
1.39863
1.82749
1.83907
1.40001
1.41424
1.84092
1.7964
1.40001
1.40001
1.05924
1.8418
1.40001
1.83895
1.40001
1.84054
1.6974
1.04187
1.40001
1.05741
1.81962
1.39967
1.40001
1.03322
1.07051
1.40001
1.40001
1.77053
1.40001
1.4
1.02785
1.40001
1.40001
1.40001
1.54071
1.40001
1.03578
1.83996
1.40001
1.40001
1.40001
1.40001
1.84075
1.40001
1.40001
1.83792
1.79555
1.40001
1.40001
1.40001
1.83427
1.01682
1.40001
1.84131
1.84139
1.40001
1.75383
1.4
1.40003
1.40001
1.40001
1.82201
1.40818
1.40001
1.02859
1.63532
1.40001
1.40001
1.39803
1.40001
1.40001
1.83688
1.40001
1.40001
1.40003
1.40001
1.84073
1.40001
1.40001
1.40001
1.40001
1.40001
1.40001
1.40002
1.59375
1.40001
1.84617
1.40001
1.40001
1.84307
1.40001
1.40001
1.40001
1.84612
1.84406
1.44502
1.40001
1.39768
1.40001
1.40001
1.40001
1.40001
1.83925
1.40001
1.40001
1.84207
1.02992
1.40001
1.40001
1.40001
1.40001
1.40001
1.40001
1.75576
1.40001
1.40001
1.84075
1.84191
1.40001
1.40001
1.40001
1.84106
1.83984
1.40001
1.39963
1.83634
1.40001
1.40001
1.40001
1.40002
1.02694
1.4289
1.39632
1.39621
1.40001
1.40001
1.0698
1.84215
1.40001
1.06775
1.40001
1.84139
1.82407
1.02258
1.39942
1.84122
1.841
1.84148
1.40001
1.40001
1.33653
1.77846
1.76228
1.07656
1.40001
1.40001
1.40001
1.83754
1.84127
1.01949
1.39739
1.40001
1.84163
1.01578
1.40001
1.85094
1.04214
1.35908
1.40716
1.40001
1.85553
1.40001
1.40001
1.40001
1.40001
1.40001
1.40001
1.40012
1.80765
1.40001
1.40001
1.84354
1.40001
1.40001
1.40001
1.84179
1.40001
1.03663
1.40001
1.40001
1.40001
1.55383
1.40001
1.40001
1.40001
1.40001
1.40001
1.17381
1.40001
1.02047
1.40001
1.84409
1.40009
1.2525
1.2595
1.40002
1.40431
1.63216
1.40001
1.40001
1.04471
1.84262
1.84456
1.84173
1.40001
1.02619
1.03117
1.40001
1.84291
1.40001
1.40001
1.40001
1.40001
1.40001
1.40004
1.40001
1.03377
1.68723
1.40001
1.40001
1.00939
1.39216
1.40001
1.40001
1.40001
1.40001
1.01556
1.40001
1.10514
1.40001
1.40001
1.84612
1.40001
1.40001
1.03885
1.40001
1.84194
1.40001
1.02686
1.40001
1.04219
1.40001
1.40815
1.83616
1.85548
1.40001
1.40001
1.83906
1.40001
1.40001
1.50006
1.39673
1.40001
1.39825
1.40001
1.84525
1.40001
1.03531
1.40002
1.83912
1.39891
1.40001
1.40001
1.19993
1.40001
1.39903
1.04325
1.83836
1.56063
1.40001
1.40001
1.28957
1.40001
1.40001
1.40001
1.19661
1.40001
1.40001
1.40001
1.84222
1.40001
1.04163
1.4
1.40001
1.40001
1.40001
1.03172
1.8419
1.81759
1.03108
1.40001
1.84956
1.40001
1.40001
1.84712
1.84103
1.77134
1.03326
1.39776
1.39937
1.40001
1.84202
1.40001
1.40001
1.40001
1.40001
1.84311
1.40005
1.40001
1.40001
1.84371
1.40001
1.40001
1.84253
1.04966
1.40001
1.40001
1.40001
1.03588
1.40001
1.4
1.4
1.39864
1.40001
1.40001
1.40001
1.40001
1.72874
1.40001
1.84127
1.84055
1.84461
1.84208
1.84307
1.84174
1.40001
1.84014
1.40001
1.84147
1.8426
1.40001
1.39886
1.05955
1.77832
1.39992
1.40001
1.40001
1.40001
1.40001
1.39876
1.40001
1.47003
1.40001
1.40001
1.40001
1.23748
1.84218
1.84198
1.84512
1.79836
1.39988
1.40001
1.42207
1.84154
1.39791
1.4488
1.39731
1.04208
1.40001
1.40002
1.40001
1.40001
1.40001
1.40001
1.40001
1.84204
1.04272
1.84177
1.84257
1.39484
0.991969
1.40001
1.40001
1.40001
1.84133
1.00456
1.791
1.0323
1.84151
1.84897
1.04322
1.83793
1.42307
1.40001
1.84431
1.18454
1.40001
1.39874
1.04778
1.40001
1.03252
1.40001
1.84208
1.84346
1.13954
1.40001
1.8403
1.04473
1.40001
1.03005
1.40001
1.8421
1.40001
1.40001
1.82938
1.40001
1.23885
1.40001
1.39967
1.03559
1.83813
1.39949
1.40001
1.01737
1.40001
1.40001
1.40001
1.40001
1.64395
1.40001
1.84173
1.40001
1.40001
1.85235
1.40001
1.40001
1.84156
1.40001
1.02713
1.40001
1.01149
1.40002
1.40001
1.40001
1.40001
1.40001
1.82283
1.66318
1.84098
1.40001
1.84543
1.81088
1.0193
1.07078
1.40001
1.40001
1.83858
1.40001
1.02795
1.40001
1.39267
1.40001
1.40001
1.84085
1.40001
1.84544
1.04089
1.83796
1.40001
1.0516
1.40001
1.40001
1.8397
1.83991
1.40001
1.40005
1.40001
1.83285
1.40001
1.40001
1.04053
1.39937
1.03488
1.40001
1.40001
1.40001
1.84137
1.84713
1.83963
1.40001
1.40001
1.06137
1.40001
1.84118
1.40001
1.40001
1.40001
1.84085
1.84835
1.84208
1.00318
1.8447
1.84258
1.02207
1.8411
1.40005
1.02881
1.41189
1.40001
1.40001
1.84413
0.993302
1.68306
0.992213
1.84244
1.39752
1.0282
1.84412
1.40001
1.40001
1.40001
1.40001
1.84657
1.83946
1.03761
1.40001
1.40003
1.04186
1.40004
1.40001
1.06013
1.03106
1.6986
1.83822
1.3985
1.84206
1.40001
1.84599
1.20028
1.034
1.84234
1.84442
1.40001
1.84186
1.40001
1.40001
1.84148
1.40001
1.74114
1.84017
1.40001
1.40001
1.40001
1.40001
1.84186
1.83441
1.85188
1.40001
1.40001
1.84486
1.83998
1.84338
1.40001
1.84166
1.40001
1.40001
1.40001
1.40001
1.40001
1.0321
1.2416
1.06608
1.40001
1.40001
1.84111
1.40001
1.40001
1.84523
1.03078
1.40001
1.84126
1.8348
1.82178
1.03844
1.40001
1.03169
1.40001
1.40003
1.83952
1.60119
1.83983
1.80428
1.40001
1.07325
1.40001
1.84249
1.71664
1.03009
1.40001
1.40001
1.40001
1.19657
1.40001
1.40001
1.84024
1.40001
1.02513
1.84188
1.40001
1.40001
1.40001
1.40001
1.40001
1.75454
1.50213
1.40001
1.8411
1.40001
1.83856
1.40001
1.39729
1.40001
1.84251
1.84859
1.84385
1.84639
1.39959
1.83971
1.40001
1.84189
1.84164
1.78228
1.40001
1.40001
1.04466
1.8433
1.40001
1.40001
1.84286
1.84143
1.83922
1.40001
1.84295
1.40001
1.40001
1.40004
1.84725
1.84014
1.52993
1.49771
1.84283
1.84557
1.08554
1.40001
1.40001
1.40001
1.40001
1.40002
1.55813
1.40001
1.40001
1.76141
1.04424
1.39998
1.40001
1.84173
1.39992
1.3998
1.46502
1.79686
1.83971
1.29563
1.40001
1.00788
1.40001
1.40058
1.84219
1.84416
1.84652
1.39909
1.40001
1.40001
1.02768
1.40001
1.40001
1.84205
1.4493
1.40001
1.40001
1.40001
1.40001
1.40001
1.40001
1.40001
1.39994
1.84103
1.40002
1.40001
1.40001
1.40001
1.40001
1.69329
1.40001
1.61178
1.40001
1.40001
1.8415
1.84816
1.02845
1.39877
1.40001
1.4
1.40001
1.03161
1.84042
1.83962
1.40001
1.40001
1.40001
1.40001
1.40001
1.40001
1.40001
1.40001
1.8426
1.84858
1.0316
1.44914
1.03502
1.40001
1.02942
1.40001
1.8409
1.50932
1.40001
1.40001
1.07823
1.40001
1.82139
1.21967
1.39666
1.03432
1.40001
1.40001
1.83938
1.40005
1.39719
1.02405
1.83944
1.85036
1.40001
1.40001
1.40001
1.40001
1.81573
1.40001
1.40001
1.84438
1.39905
1.84049
1.40003
1.40001
1.40001
1.00387
1.40001
1.40001
1.84049
1.03362
1.18492
1.04127
1.84164
1.39931
1.40001
1.8445
1.02189
1.03372
1.41198
1.40001
1.40001
1.83952
1.40004
1.60917
1.40001
1.40001
1.8394
1.04286
1.40001
1.40001
1.40013
1.84012
1.40013
1.84333
1.40001
1.40004
1.40001
1.40001
1.10389
1.40001
1.18308
1.40002
1.40001
1.83951
1.01888
1.40001
1.17078
1.16829
1.40001
1.40001
1.8423
1.40001
1.40001
1.40001
1.84108
1.84233
1.40006
1.82707
1.8395
1.16115
1.84173
1.82218
1.40001
1.40001
1.84228
1.4
1.40001
1.40001
1.40001
1.40001
1.84121
1.84433
1.40001