/*--------------------------------*- C++ -*----------------------------------*\
  =========                 |
  \\      /  F ield         | OpenFOAM: The Open Source CFD Toolbox
   \\    /   O peration     | Website:  https://openfoam.org
    \\  /    A nd           | Version:  12
     \\/     M anipulation  |
\*---------------------------------------------------------------------------*/
FoamFile
{
    format      ascii;
    class       volScalarField;
    location    "29";
    object      p;
}
// * * * * * * * * * * * * * * * * * * * * * * * * * * * * * * * * * * * * * //

dimensions      [1 -1 -2 0 0 0 0];

internalField   nonuniform List<scalar> 
9801
(
0.793319
0.816569
0.818744
0.809419
0.763799
0.691881
0.6418
0.619576
0.612697
0.612437
0.614754
0.623233
0.661117
0.778718
0.894796
0.935781
0.946497
0.94175
0.89115
0.790761
0.714525
0.682442
0.679357
0.685757
0.701679
0.72763
0.768568
0.838617
0.920109
0.96011
0.969083
0.966751
0.947045
0.904018
0.858701
0.826022
0.814834
0.817293
0.822792
0.828897
0.835415
0.847854
0.890009
0.992838
1.06499
1.08839
1.09805
1.09018
1.0204
0.932944
0.894267
0.889101
0.893924
0.90456
0.919837
0.946327
0.996499
1.04656
1.07353
1.08722
1.09768
1.10366
1.09149
1.05571
1.03474
1.03416
1.03961
1.04912
1.0756
1.10745
1.12981
1.1465
1.1603
1.1738
1.17723
1.16724
1.17127
1.18565
1.20767
1.25773
1.30558
1.33135
1.35039
1.37022
1.39023
1.39165
1.35858
1.3425
1.35692
1.39162
1.44403
1.56229
1.7066
1.81172
1.90593
2.01441
2.0123
3.81275
38.8493
0.787472
0.804383
0.795358
0.772493
0.736409
0.698514
0.665332
0.64348
0.636406
0.63828
0.650121
0.680074
0.719922
0.77893
0.859884
0.898815
0.901611
0.887425
0.86596
0.823063
0.757886
0.726579
0.724519
0.731177
0.73986
0.748863
0.762238
0.80571
0.878803
0.922647
0.935852
0.939839
0.942031
0.934839
0.908458
0.875626
0.849854
0.835036
0.828688
0.829455
0.832585
0.839996
0.881467
0.981112
1.04705
1.06762
1.07105
1.06281
1.02564
0.966507
0.928635
0.917649
0.919503
0.923792
0.928723
0.946011
0.997772
1.04927
1.07721
1.09203
1.10246
1.10845
1.09681
1.06984
1.05657
1.05666
1.06151
1.06852
1.08956
1.11852
1.14196
1.16099
1.17638
1.1904
1.19352
1.1784
1.17501
1.18256
1.19677
1.23473
1.29224
1.33306
1.36047
1.38197
1.40184
1.40926
1.38062
1.35679
1.35924
1.38667
1.43023
1.51331
1.62913
1.72026
1.80545
1.88643
1.86418
3.57627
39.3612
0.756026
0.763233
0.754174
0.74348
0.723598
0.698994
0.682592
0.675016
0.673188
0.679143
0.70474
0.730719
0.745068
0.762464
0.792031
0.830057
0.853135
0.861666
0.865221
0.860059
0.827683
0.786262
0.764492
0.757766
0.756465
0.758847
0.761865
0.771127
0.814108
0.877584
0.919611
0.940195
0.952969
0.963101
0.961453
0.932085
0.877225
0.837345
0.825515
0.825825
0.829644
0.847351
0.896844
0.960156
1.01115
1.04017
1.05304
1.05668
1.03952
1.00117
0.967996
0.944734
0.931116
0.930362
0.933587
0.953586
1.00432
1.05281
1.08081
1.09783
1.10996
1.11643
1.10511
1.0884
1.07837
1.07446
1.07432
1.07772
1.09318
1.12693
1.15634
1.1797
1.19862
1.21447
1.2162
1.18867
1.17209
1.17713
1.19224
1.22469
1.28987
1.33807
1.36381
1.38401
1.40488
1.41914
1.40168
1.37569
1.36594
1.37636
1.40722
1.45498
1.55267
1.66527
1.75801
1.84136
1.84853
3.71898
39.365
0.725989
0.736125
0.73849
0.73989
0.731373
0.712338
0.704289
0.706266
0.712973
0.73339
0.755044
0.766257
0.768413
0.754669
0.749424
0.766703
0.815197
0.853089
0.871128
0.880235
0.880876
0.857242
0.815943
0.790151
0.776973
0.764299
0.760822
0.763222
0.779722
0.832951
0.90464
0.949336
0.96852
0.978757
0.983312
0.955717
0.891677
0.842552
0.827948
0.829101
0.843021
0.879384
0.917578
0.944737
0.974023
1.00449
1.02406
1.03014
1.02343
1.00411
0.977594
0.954841
0.943747
0.942746
0.949873
0.980467
1.03048
1.06485
1.08808
1.10472
1.11555
1.11426
1.09586
1.08007
1.0741
1.07401
1.07917
1.08924
1.11852
1.15998
1.1916
1.21493
1.23222
1.24632
1.24065
1.20111
1.17707
1.17944
1.19283
1.21457
1.26713
1.3235
1.3557
1.37816
1.40052
1.42115
1.42266
1.40104
1.38173
1.37306
1.38137
1.41382
1.4683
1.55822
1.64763
1.72769
1.76541
4.03854
39.4837
0.699124
0.729456
0.739627
0.745581
0.748543
0.737434
0.727626
0.731015
0.743365
0.761345
0.771834
0.774408
0.760993
0.74475
0.741907
0.747138
0.782835
0.846162
0.880993
0.893244
0.900362
0.894038
0.859342
0.809456
0.778228
0.772133
0.773029
0.779963
0.7964
0.830461
0.885622
0.935425
0.960902
0.969077
0.957292
0.918794
0.874569
0.851295
0.846733
0.855003
0.888605
0.924806
0.942979
0.953415
0.960287
0.966027
0.969899
0.971682
0.974538
0.977972
0.974895
0.966603
0.965112
0.969412
0.989478
1.03172
1.06481
1.08405
1.09522
1.10196
1.09889
1.08603
1.06883
1.06011
1.06295
1.07241
1.08555
1.10611
1.15019
1.19866
1.22862
1.24747
1.26106
1.26981
1.25796
1.21773
1.18652
1.18049
1.18912
1.20421
1.23731
1.29984
1.35371
1.38685
1.4121
1.43532
1.44943
1.43633
1.40989
1.38537
1.37534
1.39048
1.4255
1.48475
1.56559
1.63759
1.67625
4.20806
39.6571
0.679956
0.732565
0.754265
0.763421
0.767897
0.768396
0.756516
0.753953
0.759565
0.76877
0.77288
0.766581
0.753896
0.748686
0.750728
0.754791
0.772623
0.833865
0.878418
0.89283
0.898873
0.894351
0.851178
0.80732
0.793498
0.790863
0.795456
0.810573
0.83467
0.860125
0.886615
0.910518
0.92351
0.918209
0.89659
0.878432
0.872116
0.873014
0.878592
0.908826
0.944143
0.961604
0.970932
0.969286
0.954493
0.938287
0.928595
0.924529
0.9298
0.945915
0.964911
0.975633
0.983971
1.00324
1.04319
1.07771
1.09357
1.09837
1.09442
1.08561
1.07912
1.06982
1.05508
1.04686
1.05262
1.06551
1.08308
1.11204
1.16816
1.22629
1.25866
1.27664
1.28843
1.29019
1.27317
1.23605
1.19818
1.17747
1.17668
1.18839
1.20656
1.25096
1.32365
1.38301
1.42165
1.44935
1.47056
1.47134
1.43741
1.40261
1.38638
1.38517
1.40158
1.43864
1.50498
1.57357
1.61233
4.29734
39.8104
0.667588
0.730271
0.772512
0.786284
0.79308
0.797464
0.791869
0.77911
0.773057
0.767061
0.759427
0.75433
0.754071
0.757514
0.762282
0.76744
0.779324
0.823638
0.862519
0.875262
0.877848
0.866211
0.838846
0.818792
0.811947
0.814602
0.830367
0.856608
0.874192
0.885858
0.889932
0.884531
0.869275
0.855327
0.849165
0.852302
0.863084
0.888296
0.9356
0.967235
0.980621
0.986291
0.980564
0.960544
0.941249
0.929673
0.921332
0.915222
0.915972
0.923952
0.941719
0.970453
1.00432
1.0436
1.0774
1.09568
1.10089
1.09605
1.0849
1.08063
1.08031
1.07662
1.06254
1.04601
1.04386
1.05529
1.07214
1.10201
1.16286
1.23408
1.27277
1.28947
1.29941
1.29812
1.2821
1.25213
1.2167
1.18954
1.1739
1.17332
1.18712
1.20982
1.26531
1.35601
1.42745
1.46477
1.48744
1.49662
1.47565
1.43553
1.40172
1.38637
1.39179
1.41163
1.45815
1.52396
1.56277
4.3246
39.8609
0.656609
0.705169
0.773704
0.803696
0.815064
0.818891
0.819264
0.807171
0.786841
0.771996
0.757624
0.749497
0.753029
0.759898
0.767237
0.772628
0.779114
0.80487
0.836712
0.848846
0.849781
0.841768
0.836122
0.834789
0.839595
0.855493
0.877712
0.889907
0.894979
0.891228
0.86978
0.843456
0.830254
0.827858
0.831614
0.84239
0.877326
0.942415
0.980408
0.993851
0.997472
0.98985
0.964608
0.943187
0.934032
0.931607
0.932016
0.93083
0.929127
0.934277
0.944021
0.966902
1.0121
1.05351
1.07894
1.08943
1.08961
1.08332
1.08188
1.08727
1.09385
1.09425
1.07692
1.05487
1.04646
1.04964
1.06059
1.07951
1.12698
1.20749
1.26288
1.28363
1.29458
1.29572
1.28546
1.26218
1.23055
1.20086
1.18175
1.17642
1.18183
1.19727
1.22736
1.29784
1.39221
1.45391
1.48548
1.50791
1.50673
1.47857
1.44001
1.40924
1.39476
1.39839
1.4204
1.47459
1.51651
4.33454
39.9051
0.673701
0.687876
0.724675
0.783753
0.817774
0.830504
0.834216
0.837549
0.824517
0.792735
0.7687
0.758229
0.756434
0.757815
0.758638
0.758742
0.759704
0.770356
0.801604
0.82669
0.837338
0.842885
0.853189
0.872058
0.888177
0.895571
0.898749
0.901214
0.8932
0.860461
0.827824
0.81505
0.814967
0.820917
0.833519
0.87558
0.946374
0.984409
0.998231
1.00389
0.994499
0.963309
0.94046
0.933213
0.934518
0.941507
0.949787
0.956251
0.960789
0.966657
0.97968
0.998823
1.01366
1.02953
1.04402
1.05624
1.07024
1.08345
1.09347
1.10197
1.11025
1.11633
1.10363
1.0738
1.05632
1.05263
1.05671
1.0666
1.08849
1.14853
1.22327
1.26499
1.28087
1.28551
1.28304
1.26976
1.23993
1.20888
1.19126
1.1875
1.19595
1.21156
1.22961
1.25622
1.32354
1.40565
1.45913
1.49137
1.51361
1.50081
1.47603
1.45168
1.42489
1.40483
1.39713
1.42366
1.47194
4.32492
39.9634
0.686505
0.682149
0.680543
0.708636
0.780231
0.828488
0.854377
0.867691
0.872812
0.848131
0.801687
0.776026
0.761878
0.750214
0.741123
0.737287
0.737716
0.743312
0.764922
0.800337
0.833834
0.869104
0.9059
0.923679
0.929178
0.924255
0.910208
0.886934
0.847248
0.815334
0.804097
0.804968
0.810841
0.822907
0.871599
0.955442
0.997442
1.01086
1.01572
0.998195
0.957948
0.930986
0.923549
0.925419
0.93231
0.947902
0.967486
0.989026
1.00362
1.00932
1.00936
1.01069
1.01034
1.00314
1.00189
1.01246
1.04219
1.07995
1.10083
1.11111
1.11957
1.12565
1.12178
1.09204
1.06254
1.05438
1.05794
1.06921
1.08667
1.1059
1.15158
1.21156
1.24588
1.26057
1.26632
1.26658
1.25641
1.2345
1.21922
1.21517
1.21722
1.22196
1.23077
1.24553
1.27111
1.33356
1.40143
1.44754
1.47975
1.49979
1.49197
1.48241
1.46886
1.4443
1.41109
1.3901
1.41316
4.29435
40.0052
0.686697
0.66662
0.662028
0.665056
0.70847
0.816328
0.874618
0.894428
0.904449
0.902536
0.852763
0.786768
0.749423
0.729837
0.723324
0.7232
0.726368
0.73234
0.74486
0.77167
0.832224
0.906466
0.937227
0.947965
0.953431
0.947901
0.91644
0.852742
0.807863
0.793446
0.793534
0.797846
0.807665
0.855951
0.951309
1.00129
1.01531
1.02226
1.01324
0.963541
0.921842
0.910532
0.912357
0.91966
0.934209
0.961123
0.995629
1.01728
1.02698
1.03183
1.02938
1.01611
0.998096
0.985874
0.983227
0.989408
1.00726
1.0544
1.09685
1.11421
1.12184
1.12451
1.11998
1.1041
1.08021
1.06752
1.06897
1.08008
1.09245
1.09953
1.10798
1.12736
1.17465
1.2177
1.24105
1.25373
1.26362
1.27168
1.27136
1.26031
1.24606
1.23411
1.22715
1.23206
1.24856
1.27735
1.33322
1.38817
1.42825
1.45932
1.48227
1.48936
1.49217
1.4895
1.46379
1.41221
1.36221
4.23918
40.0549
0.678335
0.655953
0.655493
0.658031
0.681886
0.781504
0.880283
0.905232
0.914057
0.914474
0.883985
0.807907
0.741763
0.721681
0.719331
0.721205
0.726333
0.73553
0.754318
0.799505
0.857931
0.906595
0.938046
0.951488
0.953768
0.929646
0.874609
0.825192
0.802383
0.796953
0.798192
0.803511
0.842104
0.930558
0.985933
1.00655
1.0178
1.01802
0.969954
0.917678
0.901656
0.902431
0.907837
0.921225
0.951868
0.987855
1.01031
1.02262
1.03185
1.03905
1.03558
1.01629
0.997904
0.985704
0.980906
0.985291
0.996169
1.01866
1.06413
1.09642
1.10878
1.11192
1.11281
1.11601
1.11138
1.10206
1.09901
1.10203
1.10498
1.09825
1.08153
1.07869
1.09648
1.149
1.20544
1.24214
1.27336
1.30406
1.32275
1.32245
1.29557
1.25998
1.23459
1.22889
1.23757
1.25155
1.27762
1.32234
1.36724
1.40731
1.44245
1.47449
1.50111
1.51201
1.50667
1.46282
1.36457
4.16085
40.131
0.679844
0.654946
0.656185
0.665345
0.709914
0.794481
0.86046
0.893741
0.905958
0.900728
0.853785
0.788688
0.748059
0.730681
0.727137
0.728763
0.734132
0.755229
0.803181
0.842419
0.864396
0.885934
0.907404
0.915578
0.900381
0.872388
0.847795
0.828383
0.812916
0.807935
0.812335
0.845692
0.921793
0.970266
0.989805
1.00062
1.00264
0.964265
0.909963
0.888859
0.889736
0.896462
0.905726
0.928154
0.972921
1.00933
1.02526
1.03201
1.03713
1.03817
1.03149
1.02092
1.00699
0.99773
0.995121
0.996024
0.994697
0.995246
1.00531
1.04479
1.08499
1.10513
1.11862
1.13787
1.15661
1.16104
1.14636
1.12987
1.11518
1.08853
1.06449
1.05698
1.06368
1.08544
1.14583
1.22313
1.2846
1.3207
1.34281
1.35503
1.34477
1.30604
1.26517
1.24009
1.23321
1.23874
1.24893
1.26956
1.30479
1.35276
1.40411
1.45309
1.49358
1.51648
1.52204
1.49483
1.41284
4.09712
40.33
0.683693
0.668014
0.672857
0.715634
0.773488
0.803955
0.826397
0.848461
0.856835
0.835657
0.805573
0.786132
0.77024
0.757678
0.749737
0.748818
0.76426
0.811127
0.84652
0.86189
0.870233
0.875375
0.869557
0.849277
0.835877
0.833099
0.835239
0.83581
0.831702
0.833347
0.861644
0.923393
0.96066
0.978656
0.986845
0.985368
0.951507
0.905931
0.881094
0.874488
0.877895
0.884486
0.896028
0.92801
0.980713
1.01611
1.03315
1.04171
1.04438
1.03993
1.03704
1.03265
1.02788
1.02186
1.0141
1.0031
0.984756
0.970613
0.971868
0.989059
1.0439
1.10452
1.154
1.191
1.20735
1.21261
1.19596
1.15528
1.11483
1.08523
1.06464
1.05698
1.06009
1.07027
1.09433
1.17733
1.27563
1.3265
1.3477
1.36029
1.35492
1.33437
1.30329
1.26985
1.24507
1.23295
1.2317
1.23685
1.25328
1.29468
1.36354
1.42593
1.47133
1.49896
1.50772
1.49533
1.4584
4.09274
40.6508
0.698572
0.698336
0.732842
0.789272
0.809328
0.814599
0.818962
0.811593
0.781246
0.763944
0.764576
0.772833
0.777127
0.772946
0.772778
0.783208
0.826144
0.856379
0.865645
0.869546
0.869479
0.853533
0.82426
0.807832
0.801408
0.802141
0.810386
0.825599
0.841025
0.879267
0.93764
0.970351
0.981935
0.983581
0.973937
0.941322
0.906035
0.883645
0.872504
0.869536
0.872917
0.879198
0.89733
0.932311
0.96954
1.00666
1.03058
1.0424
1.05033
1.05656
1.0593
1.05866
1.05259
1.04119
1.02263
0.992237
0.96766
0.959149
0.96299
0.971047
0.999028
1.09709
1.18948
1.22505
1.23923
1.24065
1.23265
1.19914
1.14195
1.10086
1.07785
1.06999
1.0765
1.08883
1.10387
1.13978
1.23416
1.30565
1.33387
1.35045
1.35336
1.33875
1.32337
1.30714
1.2802
1.24742
1.22401
1.21401
1.21484
1.23534
1.30775
1.38951
1.43699
1.46781
1.48203
1.4781
1.47242
4.13566
40.989
0.706604
0.750415
0.811607
0.833729
0.838549
0.83859
0.820084
0.771691
0.739299
0.729783
0.731534
0.741521
0.758182
0.770511
0.79007
0.839943
0.873442
0.883972
0.885781
0.884387
0.862253
0.824206
0.806377
0.801157
0.798501
0.796897
0.800628
0.815182
0.868099
0.924595
0.953227
0.971102
0.977577
0.968236
0.941865
0.916349
0.900312
0.887751
0.877573
0.877356
0.882744
0.893361
0.914222
0.932407
0.947972
0.976993
1.01591
1.04462
1.06343
1.07686
1.08331
1.08212
1.06838
1.04133
1.00796
0.979409
0.964535
0.963244
0.969413
0.991085
1.03152
1.09341
1.18152
1.23214
1.24541
1.23788
1.22063
1.20486
1.18418
1.14998
1.1217
1.10899
1.11017
1.11866
1.12925
1.14981
1.19412
1.25026
1.29377
1.32186
1.34086
1.3454
1.33516
1.32522
1.31219
1.281
1.23209
1.19719
1.18285
1.18907
1.24668
1.33948
1.40056
1.43396
1.45255
1.4562
1.46638
4.17134
41.2178
0.724712
0.810729
0.838421
0.844967
0.847706
0.829083
0.784221
0.752314
0.736801
0.731075
0.731931
0.73584
0.742199
0.762797
0.821601
0.868013
0.883392
0.889998
0.892745
0.870782
0.835282
0.817861
0.810466
0.805225
0.80522
0.811114
0.830066
0.870164
0.908401
0.926255
0.937829
0.941749
0.934974
0.928891
0.924612
0.917911
0.910512
0.903186
0.898473
0.89903
0.903879
0.91461
0.931343
0.943851
0.952221
0.960212
0.983613
1.03333
1.06812
1.08275
1.08864
1.0873
1.07959
1.05804
1.01508
0.98437
0.973978
0.977526
1.00151
1.0385
1.06309
1.08109
1.11966
1.17215
1.19806
1.20521
1.21065
1.21851
1.22212
1.21271
1.18373
1.15235
1.1368
1.13626
1.1426
1.15257
1.1733
1.20511
1.2424
1.27926
1.31019
1.33002
1.33668
1.32929
1.32025
1.30169
1.25287
1.19546
1.16992
1.17148
1.20956
1.28548
1.36188
1.40143
1.42175
1.42688
1.44488
4.18564
41.375
0.772187
0.829047
0.83859
0.842159
0.819317
0.784223
0.764093
0.754661
0.745343
0.738581
0.738786
0.742678
0.753458
0.79401
0.843419
0.869666
0.881563
0.885265
0.871548
0.841291
0.822822
0.820644
0.822899
0.825611
0.834978
0.861543
0.890807
0.909117
0.916379
0.915201
0.895985
0.880928
0.882624
0.90177
0.923304
0.932866
0.936796
0.932963
0.929279
0.930863
0.936323
0.946229
0.95599
0.960868
0.95814
0.956349
0.960744
0.979257
1.0235
1.05275
1.06368
1.06559
1.06369
1.06447
1.05114
1.02458
1.0148
1.02335
1.04393
1.06228
1.07232
1.07645
1.06694
1.07391
1.11872
1.17009
1.20569
1.23053
1.24835
1.25754
1.2431
1.20011
1.16406
1.14937
1.14863
1.155
1.16822
1.1904
1.21577
1.24265
1.2695
1.29488
1.31171
1.3117
1.30575
1.2947
1.26875
1.22202
1.18619
1.1827
1.21248
1.25589
1.31987
1.36513
1.38509
1.38172
1.40318
4.20184
41.4579
0.806352
0.82523
0.826513
0.797655
0.764885
0.75333
0.754
0.758326
0.762176
0.75937
0.757308
0.763341
0.79271
0.831407
0.85206
0.862803
0.868497
0.860609
0.838329
0.827094
0.826711
0.828724
0.833166
0.855556
0.897616
0.925912
0.937742
0.939788
0.922896
0.879126
0.847574
0.840956
0.845464
0.867858
0.914204
0.942998
0.955904
0.965847
0.974281
0.980918
0.986486
0.988629
0.984711
0.977222
0.967679
0.954822
0.941058
0.93457
0.945771
0.9925
1.03799
1.06122
1.07308
1.08175
1.09411
1.09509
1.07811
1.06573
1.06415
1.06739
1.06516
1.04657
1.02762
1.02889
1.04926
1.10652
1.18047
1.23378
1.25745
1.26592
1.26076
1.23117
1.19276
1.16872
1.16428
1.16994
1.18265
1.20685
1.22817
1.23516
1.24028
1.25128
1.26563
1.2748
1.27321
1.26992
1.26945
1.25931
1.24351
1.2462
1.25749
1.26829
1.28903
1.31722
1.33068
1.31773
1.33284
4.30641
41.5311
0.826368
0.82355
0.77863
0.739571
0.727863
0.730193
0.740794
0.755792
0.765572
0.772374
0.784053
0.816909
0.846431
0.858546
0.86332
0.864128
0.847431
0.821925
0.811801
0.813283
0.82112
0.834174
0.863152
0.914548
0.949063
0.962686
0.969294
0.960097
0.904144
0.848818
0.829439
0.828505
0.831672
0.841401
0.882884
0.942016
0.98012
1.00808
1.02251
1.028
1.02924
1.02271
1.00627
0.98644
0.964768
0.937886
0.912987
0.901679
0.903502
0.921441
0.985483
1.05273
1.09108
1.12081
1.14198
1.1526
1.13924
1.10204
1.07249
1.05634
1.04312
1.02382
1.01259
1.01336
1.02167
1.04198
1.11426
1.20005
1.23512
1.24364
1.23304
1.20638
1.19293
1.19632
1.20653
1.21872
1.22786
1.23481
1.23811
1.2303
1.2151
1.20653
1.20813
1.22334
1.24262
1.25441
1.26973
1.30304
1.33686
1.33524
1.31031
1.29233
1.28191
1.2739
1.26826
1.24737
1.23381
4.52344
41.6735
0.848552
0.798712
0.730471
0.705958
0.703308
0.707531
0.718804
0.738304
0.759772
0.787017
0.836107
0.870245
0.881229
0.885111
0.881387
0.859817
0.819957
0.798319
0.796482
0.800804
0.811851
0.84782
0.917096
0.954721
0.966487
0.973278
0.974382
0.933016
0.87493
0.845651
0.833351
0.830272
0.833745
0.844733
0.870204
0.927253
0.992363
1.02618
1.04553
1.05696
1.05946
1.05005
1.02809
0.995317
0.95748
0.921097
0.898512
0.892117
0.894433
0.901146
0.929466
1.02108
1.11148
1.15115
1.16767
1.1725
1.16649
1.1448
1.10484
1.06596
1.04446
1.02927
1.01824
1.02066
1.03227
1.04932
1.06924
1.11197
1.15465
1.17415
1.18154
1.18701
1.19867
1.23174
1.26351
1.27674
1.27667
1.26289
1.2411
1.20982
1.17401
1.15303
1.15547
1.17577
1.21802
1.25935
1.31967
1.38186
1.40593
1.39592
1.35797
1.323
1.29194
1.25702
1.21642
1.17746
1.17024
4.76359
41.6705
0.863547
0.771626
0.709105
0.697201
0.69705
0.699957
0.707257
0.721787
0.755464
0.822671
0.872333
0.88966
0.896799
0.901173
0.893601
0.845892
0.802269
0.790704
0.791974
0.796829
0.81551
0.886373
0.952837
0.976465
0.983978
0.982626
0.946749
0.887549
0.853224
0.84261
0.840845
0.841054
0.847796
0.873065
0.899829
0.92218
0.964154
1.01784
1.04935
1.06324
1.06479
1.06453
1.05904
1.02271
0.961563
0.916965
0.895839
0.891726
0.894562
0.904115
0.930015
0.995801
1.09609
1.15316
1.16956
1.16358
1.14092
1.11795
1.10308
1.0941
1.07866
1.06082
1.04893
1.04844
1.0538
1.05168
1.04455
1.03979
1.05088
1.07823
1.11493
1.16722
1.22924
1.27732
1.29879
1.30691
1.30588
1.2878
1.24549
1.1874
1.13555
1.11207
1.11627
1.1379
1.18854
1.27889
1.37137
1.41662
1.42855
1.41945
1.38501
1.35244
1.31608
1.25925
1.20305
1.14874
1.1228
4.86837
41.6526
0.835147
0.744461
0.709806
0.701881
0.701588
0.704212
0.712071
0.736829
0.791859
0.846287
0.876252
0.891578
0.89909
0.897779
0.870017
0.826258
0.800186
0.79348
0.795046
0.803766
0.843065
0.904383
0.956473
0.97961
0.98383
0.965461
0.915535
0.875452
0.855251
0.84723
0.84911
0.858999
0.885747
0.909052
0.917267
0.918781
0.922676
0.95374
1.01141
1.04187
1.05556
1.06187
1.0599
1.0413
0.985967
0.926592
0.901493
0.896954
0.901516
0.932147
0.989347
1.02822
1.05837
1.0935
1.10724
1.10148
1.1016
1.10782
1.12079
1.1302
1.13281
1.12054
1.09457
1.07302
1.0557
1.03038
1.00652
0.997068
1.00245
1.01516
1.04941
1.13497
1.23232
1.28105
1.30209
1.31565
1.31473
1.30037
1.25565
1.17938
1.12365
1.10102
1.10345
1.11779
1.16034
1.26585
1.35318
1.39289
1.40759
1.41124
1.38841
1.36205
1.33593
1.28397
1.22192
1.16341
1.11517
4.82879
41.5821
0.789833
0.73667
0.719979
0.713425
0.713422
0.718961
0.740424
0.778828
0.817802
0.849098
0.870434
0.879908
0.87853
0.862317
0.842581
0.822221
0.804997
0.80271
0.813289
0.843023
0.868619
0.89522
0.929315
0.945977
0.945552
0.931731
0.909465
0.885688
0.871382
0.872198
0.882202
0.903151
0.921839
0.928219
0.924678
0.908387
0.898035
0.900399
0.944466
1.01548
1.04734
1.05797
1.06291
1.05626
1.01437
0.950741
0.91931
0.913847
0.933917
0.993084
1.03005
1.0409
1.04114
1.01791
1.00802
1.0267
1.06305
1.10248
1.13687
1.16642
1.17908
1.17715
1.15227
1.10115
1.04361
1.00209
0.982406
0.980099
0.986821
0.998467
1.02869
1.0999
1.20025
1.26635
1.29286
1.29927
1.29232
1.27768
1.24634
1.19236
1.1407
1.11485
1.11469
1.13801
1.17078
1.22612
1.30854
1.35267
1.36488
1.3704
1.364
1.35148
1.33706
1.30707
1.26007
1.20569
1.15831
4.68733
41.7541
0.760729
0.738915
0.733081
0.73276
0.739043
0.761357
0.785846
0.804976
0.828855
0.845474
0.851987
0.850572
0.842144
0.83792
0.833013
0.827646
0.829534
0.839538
0.858732
0.865427
0.86681
0.865614
0.866063
0.886916
0.912837
0.923941
0.927467
0.920743
0.918754
0.92314
0.92951
0.934526
0.937942
0.935781
0.91293
0.889817
0.882745
0.88355
0.89544
0.956269
1.02712
1.05642
1.0655
1.05374
1.01339
0.971878
0.948752
0.948568
0.991082
1.03319
1.04449
1.04492
1.01587
0.969027
0.95704
0.968561
0.999474
1.06543
1.14448
1.18724
1.20028
1.20235
1.19413
1.14636
1.06027
1.00436
0.986154
0.985288
0.992705
1.01821
1.06579
1.10161
1.14495
1.21038
1.24916
1.26279
1.26641
1.26001
1.23652
1.20388
1.16953
1.14484
1.14375
1.16125
1.17356
1.19299
1.24419
1.29223
1.31205
1.32404
1.33689
1.34009
1.33494
1.31876
1.28667
1.24233
1.19176
4.48699
41.9079
0.74339
0.736763
0.743507
0.75874
0.787162
0.804084
0.810732
0.815394
0.820891
0.827615
0.828273
0.824498
0.82907
0.837476
0.844445
0.85648
0.872394
0.885681
0.883286
0.869379
0.844136
0.825095
0.820021
0.829384
0.873695
0.923561
0.948832
0.966691
0.977177
0.976613
0.965579
0.954421
0.942322
0.918624
0.895608
0.882512
0.8798
0.883516
0.892077
0.912199
0.970897
1.0234
1.03973
1.03145
1.01542
1.0015
0.995819
1.01523
1.04807
1.05824
1.05626
1.03602
0.980652
0.947487
0.941296
0.947322
0.961839
1.01266
1.12672
1.18859
1.20061
1.20255
1.18603
1.13117
1.075
1.0388
1.02078
1.02031
1.03565
1.07186
1.09416
1.09992
1.10411
1.14435
1.20539
1.2368
1.25196
1.25154
1.22945
1.20603
1.18725
1.17307
1.17402
1.17927
1.1737
1.17113
1.19108
1.23742
1.27215
1.2929
1.3152
1.32366
1.31998
1.31272
1.2961
1.26906
1.24695
4.32815
42.0959
0.748294
0.752146
0.770437
0.797396
0.809996
0.813291
0.812658
0.804999
0.796008
0.79591
0.810128
0.824516
0.837002
0.859337
0.889277
0.909812
0.918548
0.905648
0.875199
0.839691
0.814269
0.80407
0.802791
0.810283
0.833552
0.897531
0.969604
0.995233
1.00457
1.00246
0.992514
0.966618
0.931515
0.909663
0.895043
0.886409
0.885408
0.895735
0.910513
0.918264
0.923994
0.944624
0.979432
1.00365
1.01652
1.02781
1.0649
1.09351
1.09308
1.08179
1.0608
1.01187
0.963056
0.942314
0.939908
0.947089
0.958108
0.991927
1.08089
1.15213
1.17358
1.1774
1.16142
1.12285
1.09729
1.0878
1.08479
1.09095
1.10673
1.11676
1.11063
1.09219
1.08846
1.10202
1.1607
1.21432
1.23869
1.24107
1.21642
1.20099
1.19573
1.19559
1.20895
1.20715
1.18833
1.17224
1.16994
1.18761
1.23247
1.26599
1.28552
1.29421
1.28764
1.28677
1.28483
1.27235
1.29731
4.26139
42.329
0.774672
0.785363
0.799022
0.804942
0.808011
0.806402
0.788261
0.770972
0.766607
0.770189
0.795308
0.84149
0.890958
0.92247
0.936087
0.941608
0.930018
0.886442
0.835256
0.809601
0.803043
0.802176
0.805508
0.822538
0.864573
0.912147
0.956626
0.989286
1.00144
0.997596
0.980162
0.958592
0.934218
0.911482
0.902134
0.902413
0.911138
0.921293
0.924696
0.920573
0.902731
0.894121
0.907577
0.948637
1.00115
1.06331
1.12659
1.15019
1.14766
1.12624
1.0783
1.01123
0.969771
0.953691
0.956717
0.966097
0.977902
1.00673
1.05063
1.09341
1.12648
1.14254
1.1408
1.12658
1.12759
1.13633
1.15345
1.17352
1.17926
1.16574
1.12906
1.09569
1.08466
1.08452
1.11104
1.16625
1.20268
1.21407
1.20418
1.20004
1.20557
1.22479
1.24538
1.24037
1.21855
1.18402
1.16011
1.1562
1.17441
1.21184
1.2381
1.25334
1.25823
1.26543
1.27515
1.2698
1.30397
4.30998
42.6026
0.805128
0.817276
0.818942
0.8124
0.793599
0.768938
0.751251
0.745513
0.746027
0.750256
0.780986
0.877658
0.948343
0.968899
0.976942
0.968288
0.917641
0.840982
0.800005
0.791322
0.791873
0.800615
0.831851
0.882063
0.911637
0.9214
0.925216
0.925765
0.931433
0.942079
0.947769
0.948359
0.944843
0.939432
0.937689
0.940459
0.939102
0.934612
0.926581
0.909127
0.890739
0.88237
0.884301
0.897542
0.954027
1.07032
1.13592
1.15479
1.15741
1.13439
1.08974
1.04048
0.996987
0.979519
0.979532
0.984364
0.992199
1.01469
1.03829
1.05573
1.073
1.09252
1.10864
1.12624
1.14669
1.1774
1.21116
1.22535
1.22829
1.21054
1.15882
1.10848
1.08312
1.07451
1.07716
1.1012
1.14446
1.18077
1.20103
1.21456
1.23588
1.26869
1.27928
1.27153
1.25194
1.20715
1.15792
1.13405
1.1297
1.1455
1.18057
1.21595
1.24232
1.25121
1.26485
1.2656
1.30231
4.36124
42.9019
0.823572
0.828007
0.815375
0.792094
0.766262
0.750326
0.744713
0.742997
0.743538
0.75302
0.809729
0.905027
0.956827
0.975578
0.982813
0.958608
0.880246
0.816401
0.793378
0.789994
0.793136
0.823445
0.892078
0.928908
0.935103
0.924425
0.8851
0.85271
0.850268
0.879373
0.922228
0.947501
0.966025
0.983761
0.992534
0.984579
0.960861
0.933989
0.912574
0.895936
0.88864
0.890801
0.90186
0.925788
0.962554
1.02753
1.10133
1.12978
1.13254
1.13105
1.11739
1.08019
1.03966
1.01138
0.999728
0.998929
1.00225
1.01806
1.04097
1.05255
1.05081
1.04818
1.06292
1.09566
1.14921
1.20404
1.23887
1.25229
1.25626
1.24151
1.19052
1.12493
1.08447
1.06719
1.06368
1.06833
1.08375
1.12712
1.19072
1.24127
1.27507
1.29816
1.30609
1.30035
1.28183
1.23743
1.16774
1.12761
1.11132
1.1076
1.12671
1.1751
1.22244
1.24586
1.25441
1.25459
1.29652
4.35598
43.0806
0.834827
0.823194
0.785013
0.758585
0.744367
0.740402
0.741944
0.744501
0.755952
0.806938
0.862086
0.90079
0.93915
0.955842
0.944123
0.890696
0.839431
0.814245
0.804107
0.803943
0.827869
0.898363
0.943594
0.952675
0.944559
0.894882
0.832072
0.803791
0.800244
0.811428
0.861496
0.935627
0.992148
1.02838
1.04184
1.03878
0.999296
0.945295
0.912038
0.900233
0.899445
0.9131
0.942064
0.963525
0.976001
0.981028
1.00766
1.06476
1.10293
1.11807
1.1225
1.11535
1.08193
1.05084
1.03302
1.02699
1.0276
1.03487
1.05063
1.05805
1.04511
1.02893
1.03336
1.05504
1.11812
1.1961
1.2347
1.24858
1.25184
1.24077
1.20417
1.14138
1.08834
1.06807
1.06805
1.07941
1.10311
1.13351
1.18409
1.23376
1.26812
1.29126
1.30224
1.30593
1.29378
1.25781
1.19128
1.13726
1.11297
1.10127
1.10009
1.13821
1.19677
1.22224
1.22554
1.22429
1.27794
4.34258
43.118
0.841666
0.805882
0.76888
0.751258
0.743303
0.742138
0.744299
0.756519
0.813383
0.866776
0.883253
0.888372
0.89039
0.876979
0.85288
0.83917
0.835326
0.833943
0.835423
0.857394
0.915754
0.952908
0.961381
0.957628
0.914965
0.842891
0.801422
0.789842
0.790228
0.796028
0.815753
0.901837
1.01658
1.05597
1.0681
1.06517
1.03741
0.97542
0.928755
0.916605
0.927323
0.955964
0.974489
0.98298
0.974446
0.95447
0.950944
0.973429
1.03642
1.08907
1.11011
1.11487
1.10837
1.08624
1.07258
1.06811
1.06787
1.06846
1.06803
1.06235
1.04578
1.03221
1.03213
1.04243
1.07045
1.14247
1.20075
1.22277
1.22615
1.20685
1.17105
1.13198
1.10068
1.08387
1.0964
1.13819
1.16574
1.1759
1.17624
1.1852
1.22275
1.26225
1.27774
1.28085
1.26786
1.24737
1.21814
1.18049
1.15273
1.13344
1.12397
1.14195
1.18938
1.20175
1.18986
1.18224
1.24975
4.39231
43.1347
0.814489
0.788235
0.777634
0.76035
0.753222
0.75643
0.769673
0.818156
0.866879
0.883613
0.888259
0.877656
0.831367
0.794643
0.790915
0.80666
0.831618
0.852929
0.894974
0.957524
0.984753
0.986217
0.97076
0.925154
0.852609
0.798455
0.780622
0.780232
0.784905
0.795581
0.831013
0.92489
1.01992
1.06202
1.07297
1.05807
1.02191
0.991535
0.968949
0.964972
0.984798
1.00057
1.0048
0.993224
0.956894
0.93169
0.926017
0.931096
0.951717
1.0147
1.07726
1.10167
1.10624
1.09473
1.0922
1.09541
1.10198
1.10441
1.0972
1.07781
1.05595
1.04334
1.0418
1.04874
1.05927
1.08504
1.13704
1.17361
1.18196
1.16334
1.13958
1.12321
1.11654
1.12997
1.17758
1.20322
1.20524
1.19398
1.15778
1.13707
1.14814
1.19195
1.22606
1.24244
1.25612
1.26007
1.25528
1.24396
1.22317
1.20524
1.19241
1.18786
1.19213
1.1749
1.14383
1.12202
1.1871
4.61805
43.1092
0.794298
0.796561
0.801212
0.796222
0.792289
0.798833
0.827884
0.865141
0.881465
0.884362
0.871093
0.827659
0.77847
0.75676
0.755777
0.765908
0.799767
0.869324
0.972682
1.03303
1.04502
1.03938
1.00595
0.905136
0.814844
0.780031
0.773323
0.776217
0.784864
0.825107
0.896539
0.949692
0.992117
1.02696
1.03135
1.01141
1.00162
1.00105
1.01616
1.04573
1.05417
1.04839
1.03411
0.990782
0.939457
0.917775
0.914322
0.919161
0.926563
0.944502
0.997139
1.05181
1.07846
1.08605
1.08924
1.10099
1.11428
1.12136
1.12477
1.11327
1.08866
1.06816
1.0567
1.05318
1.05404
1.05529
1.07391
1.1094
1.12837
1.12513
1.12266
1.12862
1.14479
1.20922
1.24779
1.24931
1.23518
1.1902
1.12153
1.08759
1.0862
1.10759
1.15239
1.20186
1.24914
1.27951
1.28891
1.2867
1.27665
1.26697
1.25455
1.23633
1.20129
1.14909
1.10475
1.06641
1.09478
5.01437
42.9586
0.786804
0.809673
0.820741
0.831126
0.84066
0.853508
0.868061
0.876373
0.876838
0.862767
0.829948
0.793727
0.770582
0.757799
0.75598
0.761903
0.787343
0.876015
0.984899
1.03661
1.04963
1.04298
0.978693
0.885674
0.819334
0.786853
0.779694
0.786682
0.827603
0.896922
0.935784
0.950406
0.960905
0.956557
0.948848
0.959231
0.977715
1.01109
1.07533
1.11573
1.12304
1.11103
1.06976
0.99424
0.938336
0.917165
0.914101
0.91888
0.925977
0.93804
0.953537
0.975196
1.00801
1.0426
1.07001
1.09344
1.11567
1.13515
1.14833
1.15478
1.13899
1.09913
1.06704
1.04827
1.03908
1.03864
1.0431
1.04714
1.06303
1.08662
1.10542
1.12875
1.20557
1.26801
1.28177
1.27481
1.25565
1.18829
1.09837
1.06087
1.05407
1.06073
1.07724
1.13645
1.22421
1.27102
1.28403
1.2924
1.30007
1.30069
1.29867
1.2871
1.23389
1.14958
1.08224
1.0362
1.03072
5.28189
42.8358
0.768253
0.799431
0.830193
0.853322
0.884161
0.900176
0.90056
0.88664
0.864587
0.832562
0.796553
0.776214
0.769975
0.770499
0.779626
0.808294
0.838409
0.871215
0.93921
0.992934
1.00273
0.985191
0.951258
0.900295
0.848838
0.823673
0.823748
0.849578
0.898809
0.934838
0.948129
0.953028