/*--------------------------------*- C++ -*----------------------------------*\
  =========                 |
  \\      /  F ield         | OpenFOAM: The Open Source CFD Toolbox
   \\    /   O peration     | Website:  https://openfoam.org
    \\  /    A nd           | Version:  12
     \\/     M anipulation  |
\*---------------------------------------------------------------------------*/
FoamFile
{
    format      ascii;
    class       volScalarField;
    location    "29";
    object      T;
}
// * * * * * * * * * * * * * * * * * * * * * * * * * * * * * * * * * * * * * //

dimensions      [0 0 0 1 0 0 0];

internalField   nonuniform List<scalar> 
9801
(
0.777055
0.787516
0.792179
0.792533
0.791868
0.789861
0.78767
0.785606
0.784985
0.785887
0.789938
0.79671
0.802071
0.805026
0.806623
0.806139
0.803781
0.803218
0.803619
0.804168
0.805162
0.810211
0.81777
0.821832
0.823693
0.825042
0.826303
0.825866
0.824526
0.824745
0.825562
0.826499
0.82762
0.830643
0.834675
0.836244
0.836647
0.836496
0.835638
0.835187
0.835248
0.835766
0.836736
0.83824
0.840283
0.843464
0.848281
0.851313
0.852057
0.851848
0.848659
0.847536
0.848122
0.848595
0.84875
0.8494
0.850806
0.853212
0.860649
0.871467
0.877354
0.879592
0.88076
0.88146
0.878769
0.87276
0.868505
0.867423
0.868278
0.870124
0.873097
0.88174
0.894552
0.902232
0.905832
0.908032
0.909563
0.908763
0.900064
0.89114
0.889211
0.890514
0.893518
0.90521
0.920366
0.928382
0.932499
0.93556
0.938468
0.936424
0.927216
0.917354
0.914958
0.91894
0.93542
0.969656
0.992796
1.12516
1.50371
0.779933
0.78053
0.784315
0.788438
0.790424
0.791524
0.792367
0.793374
0.796306
0.798811
0.799042
0.799728
0.802129
0.8049
0.805782
0.804706
0.805051
0.805479
0.805996
0.806644
0.808699
0.814768
0.819808
0.822843
0.825033
0.826844
0.828074
0.82782
0.827185
0.827201
0.827936
0.828916
0.830137
0.833338
0.836595
0.838256
0.838951
0.839326
0.838986
0.837113
0.837088
0.838193
0.839289
0.840557
0.842234
0.845424
0.851192
0.855409
0.857017
0.857496
0.857699
0.855924
0.850761
0.849117
0.850506
0.852299
0.854087
0.856254
0.863194
0.874287
0.88061
0.883193
0.88463
0.885495
0.884269
0.877136
0.871321
0.870847
0.87216
0.87402
0.87694
0.885489
0.898658
0.906874
0.910518
0.912734
0.914635
0.914093
0.90537
0.896845
0.894999
0.896545
0.899353
0.908585
0.923537
0.933534
0.939458
0.944098
0.948498
0.9476
0.938855
0.929882
0.927719
0.930721
0.939387
0.964335
0.989525
1.12568
1.52671
0.795016
0.789512
0.787677
0.787245
0.789073
0.791613
0.793509
0.796587
0.804207
0.809954
0.812223
0.812711
0.812778
0.813239
0.811573
0.809211
0.808989
0.809724
0.810516
0.811515
0.814672
0.82175
0.826609
0.828993
0.830791
0.832459
0.833511
0.83317
0.832662
0.832646
0.832973
0.833566
0.834412
0.83696
0.840384
0.84231
0.843452
0.844235
0.844953
0.844002
0.843913
0.844951
0.846185
0.847186
0.848355
0.850382
0.855943
0.861661
0.864739
0.866291
0.867482
0.867825
0.862715
0.85839
0.858884
0.860872
0.863297
0.865871
0.87212
0.883374
0.890412
0.893236
0.894565
0.895198
0.894552
0.888371
0.882239
0.881668
0.88344
0.885747
0.888745
0.896511
0.909888
0.91849
0.922434
0.92487
0.926832
0.926595
0.918885
0.910612
0.908731
0.910798
0.914292
0.921594
0.938728
0.953718
0.961208
0.966089
0.970748
0.97076
0.964889
0.959057
0.956667
0.958025
0.96452
0.98558
1.00982
1.15294
1.56242
0.814327
0.807495
0.793265
0.78777
0.787653
0.790167
0.796029
0.806139
0.816533
0.822315
0.825294
0.827264
0.827483
0.823716
0.817633
0.815455
0.815692
0.816929
0.818772
0.821151
0.825733
0.832349
0.836512
0.838563
0.839938
0.840968
0.841763
0.841679
0.840976
0.840749
0.841019
0.841687
0.842757
0.84589
0.850186
0.852892
0.854628
0.855924
0.857238
0.857316
0.856202
0.856221
0.856861
0.857683
0.858939
0.860749
0.865938
0.874562
0.879514
0.881533
0.882668
0.883737
0.881046
0.875126
0.874089
0.875874
0.878514
0.881544
0.88663
0.897066
0.905529
0.90908
0.910801
0.91177
0.911989
0.907639
0.901076
0.899233
0.901051
0.903898
0.907326
0.913723
0.926651
0.936853
0.94164
0.944418
0.946336
0.947079
0.94163
0.932906
0.930119
0.932761
0.937386
0.944234
0.958938
0.976647
0.987301
0.99346
0.998773
1.00108
0.997505
0.992436
0.988875
0.989391
0.993227
1.00918
1.02528
1.1854
1.60364
0.826088
0.813737
0.801315
0.798008
0.797787
0.799031
0.804254
0.817529
0.830164
0.835976
0.839183
0.840707
0.838375
0.83212
0.827804
0.827315
0.827939
0.829308
0.831825
0.835653
0.841214
0.846345
0.849381
0.851188
0.852339
0.853398
0.854483
0.854473
0.852787
0.852044
0.852527
0.853635
0.855436
0.859827
0.865084
0.86838
0.870468
0.872074
0.873679
0.874595
0.872661
0.87125
0.871163
0.872047
0.873539
0.875367
0.879171
0.889011
0.896372
0.899251
0.900682
0.901933
0.901875
0.896906
0.89397
0.894954
0.897609
0.900452
0.903508
0.910461
0.920444
0.925923
0.928429
0.929941
0.931207
0.930677
0.924675
0.920369
0.920801
0.924091
0.927813
0.932483
0.9426
0.954635
0.961156
0.96447
0.966862
0.968507
0.965775
0.957647
0.952881
0.953658
0.958841
0.965898
0.977302
0.994802
1.00911
1.01716
1.02239
1.02621
1.0257
1.02149
1.01625
1.01176
1.0118
1.02245
1.03302
1.20623
1.63439
0.829353
0.819426
0.815372
0.813898
0.814355
0.817253
0.825515
0.8351
0.84308
0.848143
0.849765
0.848482
0.846384
0.845047
0.843802
0.843359
0.84399
0.845303
0.847411
0.850689
0.855126
0.858583
0.860793
0.862572
0.864493
0.866327
0.867909
0.868327
0.865741
0.864365
0.864902
0.866253
0.868603
0.874554
0.881874
0.885952
0.888074
0.889681
0.89129
0.892268
0.889834
0.88642
0.885749
0.886696
0.888393
0.890302
0.893182
0.902564
0.912482
0.916937
0.919125
0.920837
0.922407
0.919976
0.914708
0.913395
0.914507
0.916129
0.918072
0.921504
0.93101
0.940209
0.944851
0.947515
0.949581
0.951412
0.948935
0.942126
0.939594
0.940863
0.944005
0.94755
0.95346
0.965795
0.975683
0.980247
0.98288
0.984928
0.984789
0.979138
0.97374
0.9725
0.975001
0.980692
0.988544
1.00097
1.0158
1.02613
1.03246
1.03784
1.04182
1.04084
1.03636
1.02984
1.02476
1.02844
1.03245
1.21708
1.65284
0.834216
0.832351
0.832251
0.832916
0.836329
0.842323
0.847836
0.852463
0.855015
0.855157
0.854682
0.855238
0.85701
0.858827
0.859903
0.860718
0.861627
0.862701
0.863554
0.863868
0.864632
0.867027
0.870209
0.873658
0.876627
0.878925
0.880783
0.881435
0.878432
0.876634
0.877157
0.878534
0.880568
0.88673
0.896345
0.901329
0.903295
0.904713
0.906058
0.906758
0.904562
0.899841
0.898111
0.899233
0.901276
0.903615
0.906717
0.915102
0.925712
0.931229
0.933909
0.93597
0.938068
0.938339
0.933067
0.928531
0.926937
0.927203
0.928775
0.930978
0.937231
0.948838
0.956758
0.96086
0.963629
0.965987
0.967029
0.961736
0.955749
0.953877
0.955013
0.957622
0.961029
0.969591
0.982224
0.990032
0.994078
0.996814
0.99862
0.996288
0.990925
0.988011
0.987933
0.990312
0.994975
1.0018
1.01324
1.02601
1.03546
1.0423
1.0479
1.05103
1.04993
1.04492
1.03595
1.03045
1.02537
1.2215
1.6635
0.839392
0.841137
0.845717
0.852874
0.858802
0.862904
0.865677
0.864983
0.8611
0.858621
0.858926
0.861179
0.864626
0.868191
0.872233
0.875143
0.876808
0.875696
0.872764
0.871193
0.871387
0.87343
0.878757
0.882977
0.886031
0.888298
0.890231
0.890579
0.887189
0.885786
0.886777
0.8885
0.890744
0.896495
0.906413
0.91194
0.913951
0.915238
0.916336
0.91735
0.916792
0.912271
0.908513
0.908663
0.91063
0.913153
0.916656
0.924289
0.935002
0.941346
0.944313
0.946476
0.948692
0.950413
0.947458
0.939691
0.935413
0.934765
0.936164
0.938285
0.942215
0.952319
0.963082
0.968995
0.972258
0.974852
0.977258
0.976015
0.968446
0.963721
0.962629
0.964105
0.966683
0.971266
0.982647
0.994277
1.00083
1.00507
1.00833
1.00976
1.00559
1.00051
0.99825
0.99828
0.999969
1.00357
1.00902
1.01924
1.0309
1.03993
1.04742
1.05339
1.056
1.05377
1.04727
1.03675
1.02166
1.21973
1.67004
0.845094
0.849479
0.859522
0.865912
0.869991
0.872551
0.872313
0.86791
0.864302
0.864173
0.866423
0.870162
0.874408
0.878501
0.881474
0.884088
0.883996
0.879334
0.87626
0.876172
0.87732
0.882273
0.8878
0.892074
0.895075
0.897286
0.89902
0.897459
0.892305
0.891293
0.892608
0.894593
0.897439
0.902774
0.911552
0.917697
0.92034
0.921936
0.92343
0.925229
0.926424
0.922899
0.917674
0.916476
0.917838
0.919805
0.922162
0.928275
0.939049
0.946759
0.950438
0.952713
0.954878
0.956953
0.956351
0.94873
0.942566
0.94137
0.942341
0.944118
0.946593
0.953113
0.964481
0.9723
0.976347
0.979323
0.982048
0.983889
0.979658
0.972054
0.968781
0.968766
0.970383
0.972986
0.980048
0.993369
1.00371
1.00963
1.01361
1.01652
1.01735
1.01381
1.00955
1.00658
1.0048
1.00481
1.00757
1.01272
1.02265
1.03411
1.04351
1.05127
1.05677
1.05747
1.05402
1.0441
1.02681
1.21499
1.67494
0.85794
0.865982
0.869906
0.872649
0.874112
0.872254
0.869607
0.869403
0.870396
0.872206
0.876935
0.882721
0.886537
0.888928
0.890043
0.886928
0.880813
0.878338
0.878869
0.880673
0.885554
0.892761
0.898192
0.901399
0.903642
0.905466
0.906604
0.902564
0.896614
0.895477
0.896477
0.898111
0.900497
0.904716
0.912648
0.920363
0.924411
0.926773
0.929149
0.931394
0.93328
0.932961
0.927866
0.924864
0.924371
0.924447
0.925376
0.928206
0.93818
0.948825
0.953873
0.956449
0.958605
0.960634
0.961627
0.957081
0.949834
0.947274
0.947607
0.948797
0.950341
0.953009
0.961979
0.972596
0.978685
0.982592
0.985946
0.988716
0.989078
0.981835
0.97474
0.972106
0.972274
0.974277
0.978068
0.988117
1.00154
1.01083
1.01644
1.02061
1.02409
1.02599
1.02296
1.01677
1.01091
1.00712
1.00666
1.00999
1.01573
1.02629
1.03781
1.04683
1.05362
1.0564
1.05625
1.05012
1.03744
1.21175
1.68027
0.871891
0.874811
0.876559
0.87502
0.8686
0.866019
0.867048
0.870834
0.877952
0.886051
0.892315
0.895244
0.896864
0.897549
0.894264
0.883311
0.877401
0.877141
0.87886
0.882781
0.891764
0.902818
0.908498
0.910639
0.912048
0.912174
0.910367
0.905646
0.901628
0.900439
0.90107
0.902118
0.903527
0.90528
0.910919
0.920989
0.927773
0.931613
0.934559
0.937192
0.939429
0.940876
0.937647
0.930901
0.927369
0.926398
0.926929
0.928521
0.934775
0.948034
0.956014
0.959407
0.961503
0.963254
0.964646
0.963604
0.957819
0.953189
0.951496
0.950894
0.951365
0.953107
0.957804
0.97009
0.981079
0.987082
0.990474
0.993147
0.995446
0.991739
0.980919
0.974472
0.973561
0.975055
0.978207
0.98404
0.994597
1.00785
1.01831
1.02491
1.02874
1.03149
1.03246
1.02944
1.0217
1.01339
1.00884
1.00878
1.01308
1.01954
1.03098
1.04208
1.04956
1.05374
1.05502
1.05312
1.04643
1.21204
1.6856
0.883108
0.88342
0.877791
0.868109
0.862713
0.862277
0.863541
0.868459
0.883022
0.897816
0.903183
0.905478
0.905985
0.904259
0.893185
0.881176
0.877994
0.878469
0.879719
0.883025
0.895206
0.90986
0.915065
0.917136
0.917865
0.915741
0.912331
0.910087
0.907493
0.906164
0.906382
0.906739
0.906951
0.907694
0.909481
0.917705
0.929029
0.935728
0.939594
0.9424
0.944429
0.946014
0.945533
0.93733
0.929579
0.927401
0.92819
0.929935
0.933253
0.944685
0.956914
0.961841
0.964031
0.965579
0.966815
0.967606
0.964902
0.958027
0.952482
0.95037
0.951418
0.953815
0.956942
0.966275
0.98203
0.991018
0.994982
0.997605
0.999628
0.998596
0.989022
0.979529
0.976846
0.97765
0.980023
0.984123
0.98927
0.998837
1.01332
1.02478
1.03082
1.03419
1.0365
1.03697
1.03344
1.02449
1.01577
1.01204
1.0126
1.01662
1.0239
1.03556
1.04478
1.05037
1.05321
1.05371
1.05021
1.21383
1.68903
0.887464
0.886849
0.873566
0.864781
0.863177
0.863766
0.865005
0.870766
0.889544
0.902807
0.907012
0.909026
0.908758
0.900924
0.890382
0.88382
0.88139
0.881939
0.884241
0.890752
0.901989
0.912417
0.917699
0.919088
0.916972
0.915245
0.916065
0.916407
0.91534
0.9132
0.911736
0.911159
0.910849
0.910744
0.911172
0.914033
0.926076
0.937701
0.943345
0.946592
0.948716
0.950268
0.950189
0.942183
0.931657
0.929002
0.929897
0.931542
0.933851
0.941015
0.95492
0.962933
0.965675
0.967291
0.968608
0.969722
0.969674
0.963805
0.955774
0.9524
0.952391
0.954458
0.957197
0.962816
0.978059
0.991891
0.997151
0.999496
1.00041
1.00062
0.997856
0.989608
0.983777
0.98272
0.983516
0.985065
0.988308
0.992785
1.0026
1.01806
1.02919
1.03471
1.03806
1.04015
1.03988
1.03562
1.02662
1.01926
1.01663
1.0177
1.0204
1.0283
1.03921
1.04639
1.05019
1.05184
1.05098
1.21648
1.69083
0.886192
0.877734
0.869645
0.866861
0.866445
0.867245
0.871019
0.882415
0.89592
0.90431
0.907714
0.907397
0.901454
0.89544
0.8917
0.889248
0.889278
0.892043
0.897649
0.90205
0.904603
0.908882
0.912947
0.914374
0.914801
0.916049
0.919244
0.922397
0.924225
0.922883
0.918514
0.915083
0.913023
0.912376
0.912948
0.914242
0.921899
0.937856
0.946721
0.950287
0.952447
0.953939
0.952078
0.942602
0.934323
0.932168
0.933016
0.934598
0.936575
0.940033
0.950062
0.961295
0.966196
0.968069
0.969539
0.970935
0.971936
0.970452
0.963109
0.957225
0.95566
0.956376
0.958262
0.961013
0.96983
0.986853
0.997029
1.0007
1.00314
1.00467
1.00496
1.00139
0.994024
0.989825
0.9892
0.989993
0.991025
0.992896
0.996066
1.0053
1.02117
1.0318
1.0375
1.0412
1.0434
1.04162
1.03623
1.02851
1.02297
1.02127
1.02234
1.02447
1.03327
1.04235
1.04726
1.04878
1.05033
1.22019
1.69238
0.876205
0.872432
0.871669
0.871504
0.87291
0.878398
0.886356
0.892985
0.898277
0.901335
0.901184
0.897289
0.895329
0.895756
0.895978
0.897505
0.90148
0.905509
0.907859
0.908144
0.904827
0.902831
0.905211
0.911413
0.916597
0.920519
0.924439
0.928037
0.93051
0.93167
0.927557
0.918879
0.913936
0.9134
0.914464
0.9159
0.920618
0.937218
0.949443
0.953055
0.954857
0.954418
0.950599
0.944325
0.938521
0.936766
0.937853
0.93981
0.942094
0.943861
0.946251
0.954757
0.964294
0.968965
0.971344
0.973449
0.975813
0.977423
0.973828
0.965672
0.961376
0.960666
0.961228
0.962421
0.965262
0.975784
0.991884
1.00173
1.00605
1.00839
1.00962
1.01012
1.00715
1.00096
0.996735
0.994558
0.993235
0.992857
0.994754
0.998982
1.01129
1.02596
1.03485
1.04026
1.04371
1.04462
1.04121
1.03664
1.03116
1.02712
1.02565
1.02621
1.02859
1.03755
1.04445
1.04635
1.04941
1.22504
1.69419
0.868535
0.869442
0.872193
0.877593
0.886573
0.892943
0.895553
0.89632
0.896327
0.894633
0.891566
0.890497
0.891865
0.89601
0.902735
0.909169
0.912416
0.913616
0.913165
0.907782
0.901205
0.899735
0.900957
0.907032
0.918263
0.92615
0.930626
0.93299
0.934763
0.936088
0.93369
0.923438
0.916854
0.916562
0.917708
0.920546
0.92649
0.938082
0.949647
0.953416
0.953384
0.951008
0.949874
0.949057
0.946629
0.944533
0.944686
0.946038
0.947035
0.946374
0.945979
0.947565
0.956404
0.967701
0.973942
0.978005
0.980874
0.983327
0.983677
0.975868
0.967121
0.963984
0.963991
0.964625
0.966278
0.969945
0.980461
0.995964
1.00543
1.00992
1.01262
1.01508
1.01626
1.01318
1.0058
0.999351
0.995123
0.99346
0.994509
0.997722
1.00412
1.01764
1.02969
1.03677
1.04115
1.04286
1.04256
1.04123
1.03926
1.03617
1.03251
1.03004
1.02967
1.03204
1.03989
1.04447
1.04973
1.23232
1.69662
0.868179
0.870855
0.878334
0.889131
0.895649
0.898293
0.897781
0.893121
0.888344
0.887659
0.889563
0.891811
0.894601
0.902192
0.911934
0.916941
0.91907
0.918598
0.912951
0.904346
0.901161
0.901498
0.902469
0.905298
0.917606
0.93027
0.934837
0.936719
0.937476
0.93617
0.933071
0.927621
0.922763
0.922876
0.925986
0.930312
0.932319
0.935335
0.942803
0.947866
0.948872
0.949165
0.951756
0.955034
0.957257
0.956209
0.953213
0.951347
0.949379
0.946469
0.944711
0.945573
0.94911
0.961678
0.975697
0.98242
0.985877
0.98842
0.989481
0.985296
0.975108
0.968209
0.966506
0.967093
0.969238
0.973273
0.976705
0.983458
0.997267
1.00757
1.01302
1.01602
1.01769
1.01913
1.01749
1.01035
1.0018
0.996856
0.995951
0.997807
1.00179
1.00888
1.02096
1.03059
1.03634
1.03987
1.0415
1.04272
1.04452
1.04535
1.04271
1.03726
1.03216
1.02974
1.0318
1.03995
1.05022
1.24264
1.70001
0.872039
0.881706
0.89122
0.89635
0.898716
0.898634
0.891823
0.883929
0.882065
0.883506
0.888468
0.895991
0.905747
0.914089
0.918199
0.920408
0.921859
0.919591
0.909952
0.903419
0.90237
0.903288
0.905219
0.909339
0.919047
0.931337
0.936428
0.937411
0.935894
0.935521
0.936043
0.935234
0.933417
0.932964
0.934664
0.935687
0.933764
0.930651
0.930885
0.937343
0.945775
0.952206
0.957813
0.962742
0.965644
0.966615
0.963506
0.956819
0.949715
0.944941
0.943837
0.944918
0.946836
0.953735
0.97151
0.984001
0.988398
0.990281
0.989908
0.988323
0.984729
0.977726
0.973687
0.973553
0.975599
0.977649
0.977304
0.97749
0.981571
0.993899
1.0069
1.01386
1.0179
1.0214
1.02332
1.02239
1.01407
1.00464
0.999994
0.999636
1.00168
1.00507
1.01082
1.02058
1.02914
1.03546
1.04029
1.04365
1.04632
1.04909
1.0511
1.04761
1.03794
1.02945
1.02563
1.02901
1.04539
1.25434
1.70392
0.884907
0.895397
0.898515
0.900351
0.900098
0.892128
0.88288
0.880276
0.881012
0.882703
0.887731
0.902818
0.917884
0.923015
0.924339
0.92378
0.922141
0.916618
0.909452
0.905674
0.905542
0.907522
0.910841
0.913499
0.917402
0.926169
0.931827
0.933113
0.933874
0.937445
0.941943
0.945802
0.946747
0.943594
0.939618
0.934291
0.927664
0.925043
0.925557
0.928733
0.940229
0.955911
0.965703
0.970245
0.972396
0.973484
0.971582
0.962603
0.952381
0.947473
0.946501
0.947312
0.948952
0.952444
0.961196
0.975798
0.984314
0.987264
0.988664
0.989955
0.992169
0.992837
0.988555
0.983909
0.981765
0.980199
0.977031
0.974833
0.975731
0.979782
0.993542
1.01031
1.01933
1.02295
1.02508
1.02698
1.0263
1.01802
1.00858
1.00414
1.00356
1.00493
1.00712
1.01056
1.01776
1.02778
1.03716
1.043
1.04625
1.04921
1.05329
1.05331
1.04657
1.03337
1.02297
1.01971
1.0325
1.26122
1.70632
0.898968
0.904586
0.904174
0.902418
0.895276
0.884829
0.879506
0.879073
0.880194
0.882429
0.889585
0.90935
0.922485
0.926646
0.928481
0.928158
0.922517
0.916255
0.912151
0.910255
0.91138
0.9137
0.915091
0.914387
0.913609
0.91612
0.924844
0.932233
0.938279
0.944551
0.950076
0.953213
0.954884
0.952534
0.941771
0.928181
0.922577
0.922276
0.923609
0.926057
0.934266
0.955583
0.968968
0.972696
0.974798
0.976163
0.974345
0.968723
0.959547
0.953065
0.951347
0.952096
0.95383
0.954896
0.955716
0.960002
0.973038
0.983782
0.989655
0.995481
1.00045
1.00365
1.00374
0.99669
0.987171
0.98102
0.977721
0.975862
0.97598
0.977572
0.981279
0.99704
1.01491
1.02333
1.02696
1.02902
1.02982
1.02729
1.01981
1.01252
1.0084
1.00677
1.00633
1.00694
1.00899
1.01624
1.03032
1.04052
1.04472
1.04767
1.05188
1.0531
1.05128
1.04169
1.02495
1.01407
1.01902
1.2597
1.70637
0.908604
0.913574
0.911044
0.904032
0.89297
0.884866
0.881809
0.882071
0.883889
0.887668
0.896103
0.910719
0.922795
0.926679
0.926971
0.924622
0.922264
0.919803
0.917681
0.917144
0.917538
0.917755
0.915053
0.911116
0.910446
0.911286
0.916002
0.930558
0.944952
0.953363
0.957033
0.958988
0.959917
0.956629
0.94094
0.927229
0.92355
0.923926
0.925269
0.928938
0.939201
0.954861
0.967751
0.972808
0.97421
0.972559
0.971259
0.971668
0.969871
0.963701
0.959044
0.957479
0.956232
0.954008
0.952973
0.95368
0.958825
0.976513
0.99325
1.00193
1.007
1.01006
1.01042
1.00855
0.99898
0.986956
0.98056
0.978185
0.978133
0.97964
0.98225
0.987427
1.00463
1.02061
1.02711
1.02946
1.03065
1.02963
1.02664
1.02177
1.01638
1.01133
1.00727
1.00555
1.00581
1.00772
1.0189
1.0349
1.04241
1.04559
1.04941
1.05152
1.05133
1.04732
1.03349
1.01613
1.0102
1.25105
1.70435
0.911147
0.916749
0.916031
0.90787
0.895714
0.888907
0.887875
0.889475
0.891994
0.894746
0.898615
0.907032
0.916325
0.920725
0.921816
0.922846
0.924763
0.925868
0.925154
0.923783
0.921843
0.917052
0.911638
0.910149
0.910846
0.911955
0.914228
0.925671
0.946701
0.955904
0.958893
0.960296
0.957229
0.948596
0.939359
0.931309
0.927852
0.928752
0.932572
0.941275
0.948269
0.951914
0.957858
0.964788
0.968549
0.970444
0.972811
0.975017
0.977546
0.97686
0.970333
0.962223
0.956337
0.952977
0.952281
0.952799
0.955181
0.966129
0.989002
1.00346
1.00933
1.01131
1.01069
1.00894
1.00634
0.997994
0.988916
0.984349
0.983301
0.984309
0.986664
0.989424
0.995587
1.01049
1.02237
1.02722
1.02921
1.02993
1.02864
1.02699
1.02457
1.01991
1.01287
1.00688
1.00445
1.00469
1.00832
1.02376
1.0374
1.04248
1.04564
1.04848
1.04876
1.04809
1.04083
1.02484
1.01372
1.23931
1.70217
0.910723
0.914227
0.913484
0.910248
0.903776
0.898701
0.897275
0.89758
0.898568
0.899472
0.899894
0.901141
0.907149
0.915474
0.921584
0.925354
0.928102
0.930329
0.931225
0.92949
0.922855
0.915605
0.912371
0.911996
0.912953
0.916046
0.921891
0.930846
0.943668
0.952937
0.955103
0.952846
0.947485
0.943397
0.941616
0.939458
0.939521
0.942513
0.947824
0.952002
0.952761
0.949863
0.947729
0.950094
0.959669
0.969509
0.975509
0.979893
0.983237
0.985605
0.983167
0.970396
0.958623
0.954039
0.953589
0.954774
0.961686
0.970367
0.979503
0.993976
1.00372
1.00711
1.00732
1.00771
1.00815
1.00794
1.00365
0.996452
0.990703
0.989007
0.989749
0.991438
0.993963
0.999964
1.01185
1.02134
1.02622
1.02868
1.02908
1.02886
1.02865
1.02766
1.02289
1.01314
1.00605
1.00387
1.00416
1.0111
1.02673
1.03764
1.04174
1.04455
1.04532
1.04588
1.04458
1.03309
1.02374
1.23215
1.70153
0.908705
0.913178
0.914345
0.914623
0.912612
0.908021
0.904844
0.903405
0.902162
0.900004
0.899157
0.899941
0.902649
0.910174
0.921929
0.928189
0.930355
0.931536
0.930573
0.927844
0.92407
0.918849
0.91631
0.917585
0.921593
0.927032
0.930007
0.931177
0.934267
0.939621
0.943423
0.944261
0.944506
0.944801
0.946159
0.951424
0.956619
0.958177
0.958132
0.956426
0.950865
0.943835
0.94055
0.941093
0.946614
0.963
0.977247
0.984173
0.988165
0.990544
0.989609
0.980522
0.966007
0.959035
0.958402
0.962237
0.969655
0.973402
0.975423
0.978383
0.98636
0.997436
1.00474
1.00849
1.0111
1.01394
1.01507
1.01193
1.00321
0.996058
0.99351
0.993295
0.994241
0.996889
1.00194
1.0113
1.02053
1.02599
1.02816
1.02857
1.02943
1.03052
1.02983
1.02349
1.01231
1.00576
1.00405
1.00598
1.01371
1.02708
1.03638
1.04044
1.04245
1.04399
1.04553
1.03964
1.03104
1.23138
1.70264
0.908858
0.915342
0.917477
0.918852
0.918057
0.914636
0.909663
0.904638
0.901006
0.900584
0.901203
0.902184
0.904481
0.910056
0.919726
0.927738
0.930254
0.92944
0.927748
0.927724
0.928499
0.928417
0.927678
0.928674
0.930755
0.932277
0.932069
0.928304
0.923912
0.92377
0.929689
0.938141
0.944147
0.950621
0.959545
0.966263
0.969233
0.970001
0.966493
0.955983
0.943821
0.937657
0.936698
0.937616
0.93999
0.952623
0.974816
0.986067
0.989976
0.991541
0.989573
0.985017
0.978281
0.970528
0.967801
0.969704
0.973398
0.975169
0.973217
0.970034
0.971535
0.98134
0.997285
1.00803
1.01385
1.0178
1.02008
1.02089
1.01773
1.00799
0.999132
0.995593
0.995387
0.997085
0.999513
1.00307
1.01083
1.02014
1.02534
1.02688
1.02777
1.02981
1.03167
1.0309
1.02351
1.01276
1.00735
1.00646
1.00896
1.01419
1.02634
1.03509
1.03925
1.04144
1.04469
1.04446
1.03889
1.23539
1.7053
0.90982
0.916783
0.918497
0.918793
0.917656
0.91352
0.907711
0.904389
0.903422
0.903659
0.905712
0.91001
0.914596
0.916618
0.915955
0.9187
0.924424
0.926889
0.92792
0.930242
0.935045
0.940026
0.941775
0.939948
0.936871
0.933114
0.926049
0.919811
0.917286
0.917652
0.920057
0.928704
0.945007
0.961715
0.972082
0.976111
0.97712
0.976338
0.971115
0.954382
0.940607
0.935794
0.9356
0.936578
0.939865
0.947895
0.963389
0.980009
0.987567
0.989771
0.988608
0.987999
0.988495
0.986246
0.981222
0.977807
0.975785
0.973721
0.96974
0.966031
0.965982
0.969107
0.980143
0.999555
1.01335
1.01886
1.02067
1.02165
1.02163
1.01738
1.00753
1.00085
0.999101
0.999551
1.00105
1.00259
1.00388
1.00979
1.01809
1.02288
1.02554
1.02844
1.03278
1.03515
1.03359
1.02466
1.0148
1.00973
1.00887
1.00892
1.01337
1.0256
1.03404
1.03814
1.04141
1.04372
1.04824
1.24514
1.70916
0.907877
0.909399
0.912522
0.912412
0.910246
0.907545
0.906602
0.906774
0.908278
0.912644
0.917753
0.921256
0.922754
0.917299
0.910389
0.908595
0.913141
0.922417
0.929495
0.936684
0.943547
0.947458
0.949015
0.948078
0.941193
0.92822
0.918438
0.914535
0.914488
0.915571
0.917198
0.921358
0.942053
0.966646
0.975512
0.978737
0.980496
0.978232
0.966777
0.953837
0.943057
0.937828
0.937346
0.939033
0.945794
0.952383
0.956079
0.964155
0.977392
0.985363
0.988748
0.991217
0.994766
0.997115
0.996782
0.990037
0.981687
0.974849
0.969089
0.966167
0.966085
0.96785
0.970755
0.982486
1.00439
1.01587
1.01818
1.01851
1.01819
1.01641
1.01409
1.01065
1.00767
1.00605
1.0048
1.0029
1.00156
1.0016
1.00657
1.01688
1.02412
1.02953
1.03462
1.03962
1.03969
1.03548
1.02478
1.01491
1.0097
1.00811
1.0072
1.01143
1.02316
1.03247
1.03767
1.04128
1.05333
1.25766
1.71359
0.902399
0.896404
0.899222
0.903641
0.904819
0.904591
0.907209
0.91378
0.921638
0.927204
0.929678
0.929812
0.92311
0.911189
0.903705
0.902247
0.90369
0.912057
0.92823
0.942143
0.9499
0.952791
0.952857
0.950725
0.941242
0.92665
0.917828
0.915218
0.9154
0.91646
0.92011
0.930625
0.945821
0.962738
0.973939
0.977893
0.977535
0.971004
0.963948
0.957888
0.950733
0.945911
0.945301
0.947607
0.952336
0.954788
0.955018
0.955169
0.960093
0.974287
0.987157
0.995258
1.00133
1.00449
1.00567
1.00409
0.994307
0.980534
0.971735
0.968332
0.968242
0.970332
0.972809
0.97579
0.987806
1.00485
1.0121
1.01395
1.0156
1.01747
1.01926
1.02045
1.01911
1.01473
1.00818
1.00202
0.997817
0.996697
0.997806
1.00942
1.02454
1.03235
1.03775
1.04222
1.04212
1.04042
1.03491
1.02419
1.01519
1.01008
1.00585
1.00322
1.00643
1.01966
1.0325
1.03902
1.05668
1.27017
1.71779
0.893381
0.884097
0.885273
0.892121
0.90019
0.906246
0.91466
0.926305
0.934569
0.937916
0.938582
0.934072
0.918018
0.903685
0.898852
0.89889
0.899916
0.903039
0.920263
0.941974
0.950457
0.953519
0.953953
0.951944
0.944166
0.930495
0.921175
0.919718
0.921451
0.925562
0.933505
0.941033
0.945458
0.951807
0.960458
0.966344
0.967961
0.967733
0.966111
0.964409
0.962942
0.959985
0.957385
0.956779
0.956898
0.956074
0.952978
0.951928
0.953064
0.959022
0.978445
0.996107
1.00421
1.00702
1.00745
1.00679
1.00236
0.991518
0.980424
0.974218
0.972564
0.973181
0.974659
0.97637
0.979149
0.988869
1.00134
1.0085
1.01386
1.01934
1.02363
1.02631
1.02696
1.02351
1.0126
1.00115
0.995817
0.99456
0.99489
1.00208
1.0196
1.03211
1.03818
1.04217
1.0422
1.04056
1.03896
1.0334
1.02492
1.01782
1.00871
1.00046
0.997104
1.00124
1.02011
1.03553
1.05812
1.28133
1.72114
0.884179
0.875655
0.876062
0.879244
0.89021
0.90911
0.928528
0.940799
0.944991
0.945133
0.94322
0.932155
0.911262
0.89957
0.896898
0.897184
0.898149
0.900209
0.910729
0.933326
0.944975
0.948094
0.949858
0.95068
0.949508
0.943116
0.935931
0.93338
0.934082
0.935821
0.939976
0.943263
0.944199
0.943323
0.943585
0.94999
0.960209
0.966918
0.970433
0.973689
0.975808
0.976089
0.972422
0.966189
0.960345
0.955035
0.952061
0.951737
0.953431
0.958285
0.96717
0.985939
1.00097
1.00629
1.00637
1.00461
1.00335
1.00104
0.993376
0.984092
0.978804
0.977627
0.978506
0.979868
0.980492
0.981801
0.986784
0.997143
1.00973
1.01998
1.02462
1.02652
1.02819
1.02737
1.01948
1.00631
0.997352
0.99488
0.995749
1.00271
1.01242
1.02391
1.03445
1.04022
1.04121
1.03883
1.03786
1.03697
1.0341
1.02938
1.01978
1.0049
0.99374
0.991406
1.00139
1.02481
1.05385
1.29068
1.72312
0.878465
0.871756
0.8719
0.873039
0.879772
0.908525
0.940012
0.951033
0.954243
0.953621
0.94681
0.925489
0.906436
0.898679
0.897029
0.897236
0.898167
0.900341
0.906621
0.92021
0.93609
0.944829
0.95007
0.954029
0.956601
0.956724
0.95322
0.947744
0.943335
0.94191
0.942022
0.940578
0.937976
0.935894
0.935984
0.938552
0.948374
0.96457
0.975998
0.982556
0.986465
0.988066
0.985784
0.976728
0.964747
0.956734
0.953443
0.953151
0.957773
0.965193
0.969794
0.973952
0.984153
0.995751
1.00098
1.00174
1.00134
1.00044
1.00126
0.999877
0.99373
0.988342
0.985439
0.982998
0.980928
0.980114
0.981116
0.984358
0.996723
1.01422
1.02191
1.02363
1.02434
1.02306
1.02135
1.01685
1.00727
1.0015
1.0013
1.00529
1.00949
1.01296
1.02242
1.03262
1.03729
1.03725
1.03774
1.03788
1.03899
1.03817
1.03237
1.01867
1.00012
0.990804
0.990808
1.00491
1.04102
1.29611
1.72367
0.87428
0.870393
0.871044
0.87231
0.879787
0.914947
0.944456
0.952699
0.955824
0.954599
0.940622
0.920303
0.906882
0.900496
0.899115
0.899383
0.900052
0.902442
0.906681
0.912855
0.924924
0.94302
0.953957
0.959255
0.963138
0.965557
0.96528
0.961212
0.953717
0.946235
0.940257
0.936581
0.934038
0.932629
0.932556
0.933873
0.938665
0.954947
0.975851
0.98665
0.990699
0.991807
0.991396
0.986539
0.974865
0.962795
0.957973
0.959005
0.965324
0.970006
0.971992
0.969884
0.96779
0.972264
0.984687
0.993971
0.998265
1.00268
1.00721
1.00983
1.00859
1.00197
0.992691
0.984997
0.98157
0.981139
0.981737
0.982691
0.985268
0.997808
1.01127
1.01684
1.01922
1.02143
1.02269
1.0243
1.02271
1.01558
1.01032
1.00864
1.00947
1.01016
1.01074
1.01829
1.02947
1.03584
1.03746
1.03873
1.04114
1.04113
1.03699
1.03184
1.01533
0.997394
0.990914
0.989528
1.02103
1.2962
1.72297
0.870685
0.868435
0.869988
0.873428
0.892081
0.924588
0.943058
0.950526
0.952302
0.945355
0.930497
0.918865
0.911268
0.906042
0.903882
0.904013
0.904644
0.90639
0.911164
0.918548
0.926511
0.936317
0.951498
0.960741
0.964612
0.966982
0.968365
0.968109
0.96419
0.954794
0.945083
0.939393
0.93632
0.934394
0.933762
0.934551
0.938057
0.945509
0.963266
0.982148
0.990122
0.991938
0.987293
0.981215
0.978554
0.975073
0.971596
0.972536
0.974452
0.97439
0.972132
0.963676
0.95797
0.957766
0.963765
0.978591
0.994964
1.00626
1.01209
1.01482
1.01534
1.01241
1.00303
0.991811
0.985616
0.983521
0.983179
0.98304
0.982829
0.983808
0.992924
1.00678
1.01558
1.02083
1.02616
1.03061
1.03334
1.03088
1.02229
1.01442
1.00924
1.00752
1.00693
1.00699
1.0142
1.02762
1.03556
1.03896
1.04078
1.04149
1.03821
1.03452
1.02789
1.01045
0.99574
0.987996
1.0008
1.28727
1.72096
0.870437
0.867962
0.871575
0.887953
0.914336
0.928585
0.93661
0.940774
0.938141
0.930923
0.925104
0.920675
0.917329
0.914223
0.911803
0.912073
0.914125
0.918299
0.925104
0.931632
0.934799
0.936153
0.940149
0.951435
0.959908
0.9639
0.965905
0.965127
0.964535
0.96424
0.958044
0.948445
0.942079
0.939052
0.938353
0.940269
0.944886
0.948734
0.951782
0.961096
0.974289
0.980811
0.981657
0.981492
0.981902
0.986139
0.990946
0.989628
0.984645
0.978323
0.966973
0.956049
0.952078
0.952352
0.954928
0.962455
0.985158
1.00624
1.01319
1.01553
1.01568
1.01255
1.00638
1.00066
0.994852
0.990191
0.986888
0.984141
0.981509
0.979266
0.979457
0.990942
1.01046
1.023
1.02996
1.0359
1.0387
1.03872
1.0341
1.02309
1.01343
1.00826
1.00408
1.00195
1.00208
1.01156
1.02735
1.03653
1.03982
1.04101
1.03873
1.03459
1.03142
1.02257
1.00831
0.993983
0.992279
1.27331
1.71852
0.872632
0.871299
0.886671
0.913921
0.927181
0.930785
0.930631
0.922717
0.91675
0.917195
0.920887
0.923523
0.925386
0.925801
0.926345
0.928192
0.930954
0.934073
0.936614
0.937381
0.937619
0.936641
0.934589
0.935631
0.943729