/*--------------------------------*- C++ -*----------------------------------*\
  =========                 |
  \\      /  F ield         | OpenFOAM: The Open Source CFD Toolbox
   \\    /   O peration     | Website:  https://openfoam.org
    \\  /    A nd           | Version:  12
     \\/     M anipulation  |
\*---------------------------------------------------------------------------*/
FoamFile
{
    format      ascii;
    class       volScalarField;
    location    "1.85";
    object      p;
}
// * * * * * * * * * * * * * * * * * * * * * * * * * * * * * * * * * * * * * //

dimensions      [1 -1 -2 0 0 0 0];

internalField   nonuniform List<scalar> 
22702
(
1
1
0.859488
1
1.06395
1
1.47072
1
1
0.713429
1.47171
1.47016
1
1.47066
0.885492
1
1
1
1.4725
1
1.47121
1
1.46513
0.667143
1.47443
0.599669
1
1.46616
0.663192
0.647686
1
1.47041
1
1
1
1.43758
1.47819
1.46575
1
1
0.707052
1
1.22651
1
1.46363
1
1
1
1
0.656287
1
0.651977
1
1.47176
1
1.4708
1
1
1
1
0.624416
1
1
0.666355
1
0.658097
1
1
1
0.679897
1
1.47247
1.28699
1
1.47413
1.50473
0.655028
1.47196
0.656875
1
1.47401
0.656976
1.47028
1.46682
1
1
1
1
0.922103
0.698125
1.47432
1
1
0.683999
1
1.47132
0.683681
1
1
1
1
1.22808
1.47365
0.633886
1
1
1.10966
1
0.656124
1
1.4743
1.47043
1
1
0.629718
0.627898
0.702263
1
1
1
1
1
0.909533
1
1.40097
1.03996
1.4743
1
1.47675
1.47195
1.4696
1.46918
1
0.665733
1
0.652197
1
1
1
1
1.47179
1
1
1
1
1.47657
1
1.02286
1
1
1
1
0.656882
1
1.01053
1
0.657025
1
1
1
1.47213
1
1.46992
0.621331
0.623365
1.47865
1.47199
1
1.07927
1.26914
1
1.47124
0.656554
1.43797
1
1
1
1
1.47043
1.38969
1
1.47172
0.667715
1.47115
1
0.650305
1
0.644119
0.608091
0.999787
1
1
1.47075
1
1
1.46966
1
1.47452
1.47164
0.660873
1
1
0.664195
1.47516
1
1
1
1.47503
1
0.674037
1
1
1.47168
1.47025
1.47458
1
1.00004
1
1
1
1.47127
1
0.667743
1.49909
1.47732
1.4724
1
1
1
0.643594
1.48253
1.21485
1
1.4727
0.664982
0.669804
1.4728
1.46698
1
1.46546
0.684278
1.41421
1
1
1
1
1.46593
1
1.25623
1.04574
1
1
1.46529
0.681341
0.768178
1
1.46562
0.635341
1.4738
1
1
1
1
1
1
1
0.6546
0.785614
0.676763
1.47185
1
1
1
1
1.42646
1
0.656175
1
0.638427
0.661997
1.46437
0.658565
1.47133
1
1
1
0.99761
0.6541
0.684153
0.999999
1
0.634154
1
1.47185
0.644197
1
1
1.4732
0.653693
1
1.45931
0.617636
1.47117
1
0.644323
0.997766
1
1
1
0.669418
1
1
1
1
1.01874
1.28791
1
0.656111
1
1
1
1
1
1
1
1.47038
1
1.47327
1
1
1
0.690393
1
1.47394
0.66349
1
1.3536
1
1
1.47259
1
1
1
1.45501
1
1
1.45672
1.46978
1
1.08796
1
1
0.658701
1
1
1
0.683409
1
1
1
1
0.636759
1
1
1
1
1
0.704987
1.00006
1.47101
1
0.999982
1.47311
1.47865
1
1
0.659067
0.807335
1.47139
1
1
1
1.47718
0.670122
1
1.4717
1
1
0.716668
0.717673
1
0.658188
0.673514
1
1
1
1
1
1
1
1.46978
1.10913
1.45472
0.702175
0.909625
1.47317
1
1.47803
1.46994
0.689485
0.764652
1
0.689451
1
1.48469
1
1
1
1
1.47673
1
1
1
1
1
1
1
1.17057
1.46951
1
1.47313
1
1
0.660407
1
1
1
1
1.47259
1.35604
1
1
0.67007
1.47667
1.47194
1
1.47216
1.47004
1.47018
1
0.829763
1
1.46683
0.990705
1.4715
1
0.695508
0.998829
1.47413
1
1
1
1
0.656553
1.47936
1.42833
1
1.47555
1.47798
1.47325
1
1.22188
1.47199
1
1
1.32509
1.06675
1.47166
0.928017
1.47151
1
1.47112
1.47618
1.47085
1.47466
1
1.44413
0.906792
0.875561
1
0.999999
1
1
1.4724
1
1
1
1
1
1.47281
1
1
0.996413
1.47112
1.42912
1
1.41709
1.00004
1
1
1.47488
1
0.996044
1.00358
1
1.47823
1
1.4828
1
1
1.3472
1
1.47284
1.00002
1
1.46767
1
1.47061
1
1
1
1.46766
1
1.46543
1.00001
1.47225
1.47236
1.46932
1.46661
1
1.47035
1.47115
1
0.636019
1.44133
1.337
1
1.47601
1
0.669269
0.613418
1
1
1
1
1
0.689527
1
1.4732
1.11275
1.47531
1
1
1
1
1
1.47364
1
1.47851
1.27375
0.768911
1
1.00001
1.12023
1.11307
1
1
1.15898
1
0.658895
1.46579
1.47277
1
1
1
1.47461
1
1.00003
1.47921
1.4687
0.952193
1
1
0.655428
1.42753
1
1
1
1
1
1.47062
1.47069
1
1.46369
1.46833
1.46583
1
1
1
1
0.62193
1.46959
1
1
1.42857
1.47037
1
1.44351
1.47469
1
1
1
1
1
1.47425
1
1
1
1
1.4699
1
1.45385
0.710158
1
0.628314
1
1
1
0.997127
0.647436
0.99907
1
1
1
1.06011
1
1
0.865322
1
1
1
1
1
1
1
0.999997
0.926021
0.999999
1
0.997619
1
0.661273
1
1
1
1
1.34957
1
1
1
1
0.66354
1
1
1.4439
1.47062
1
1
1
0.885022
1
1
1
1
1
1
0.945788
1.0057
1.4719
1
1
1
1.4756
0.889533
1
1
1
1.46433
1.47379
1
1.00001
1
1
1
1
1
1
1
0.685742
1
1
1.47151
0.679732
1
1.47044
1
0.658012
1
1
0.677981
1
1
1
1
1
1
1
1.46179
1.47028
1
1
1
1
1.43005
1
1.14376
0.639415
1
1
1
1
1
1
1
1.03811
1
1
1.24393
1
1
1
1.38897
1
1
1
1
0.680547
1
1
0.644483
0.685943
1
1
1.47423
1
1.00042
1
1
1
1.3258
0.649092
1
0.644379
1
0.786326
1
1
1
1.47094
1
1
1.46867
1
1
1
1.4694
1
1
1.46864
1
1
0.68667
1
1.14753
1
1
1.47292
1.47213
1.31211
1.42079
1
0.705145
1
1
1.45009
1
0.648792
1
1
1
1.46893
1
1
1
1
1.27511
1
1.42746
1.46909
0.697198
1
1
0.628915
0.606817
1
1
1
1.33321
1.35353
1
1
1
1
1
1
1
1.18847
1.46457
1.0104
1
1.46508
0.646123
1
1
1
1.25758
1
1.09158
1
1.42913
1.46991
1
0.689943
1
1.47152
1
1
1.46722
1.44222
1
1.47306
1
0.662652
1
1
1
1.48443
1.46129
1.41277
1
1.4756
1.47508
1
1.4688
1
1.47
1
0.631344
0.968131
0.688329
1
1
1
1
1
1.46462
1
1.46458
1
1
1
1.44734
1
0.654525
1.4683
1
0.655234
0.674274
0.658629
1
1.23018
1.04468
1.47384
1.47428
1
0.999999
1
1
1.47524
1
1
1.47584
1.4747
1
1.16046
0.999832
1
0.996804
1.47879
0.843529
1
0.827896
0.662004
0.657214
0.91783
1.46573
1.46534
1.08877
1.47144
1.46856
1
1
1.47377
1.47283
1.47128
1.46995
1
1.47218
0.650765
1.4769
1.47266
1.4733
1.47872
0.864846
0.892355
0.914973
1.46586
0.958042
1.47046
1
1
1.47393
1.47269
1
0.686404
1.4684
1.46654
1
1.47379
1.47234
1
1.47374
0.660628
1.47889
1.46551
1.46962
1.47782
1
1
1
1.46584
1.299
0.685184
1.47256
0.663464
1.46643
1
1
1
1
1.47211
1.4755
1
1
1.47418
0.665302
1.47241
0.661122
1
1.46754
1
0.71187
1.477
0.734298
1
1.47078
1.47287
1.47067
1
1
1.21672
1.47162
0.659387
1.47069
1
1.46971
0.87887
1.47099
0.673165
1
1.4675
0.695354
1.47391
0.657739
1
1.47065
1
1.46958
1
1.27239
1.45372
1.36559
0.598911
1
1.47152
1
1.47068
1
1.47228
1
1
1.47134
0.982891
1.47491
0.712165
1.40431
1
1.33
1
1.47132
1.47177
1.47042
1
1.42272
1.47097
1.43582
1.28384
1.46358
1
1.30521
1
1.47147
1
1.05768
1
1.43537
1
1.46956
1.44894
1.44755
1
1.47286
0.603896
1
0.707331
1
1
1
1.4754
1
1.47265
1
1
1
1.47096
1.45597
1.38077
1.4738
1.47536
0.626742
1.46525
1.47292
1
1.40266
1.4714
1.46352
1
1.47154
1.47107
1
1.48586
1.47218
1.47146
1.47597
1
1
1
1.46977
0.646619
1
1.4716
1
1
0.619701
1
1
1.47113
1.4692
1
1.47169
1.47851
1.47378
0.975929
1.47335
1
1.47168
1.47148
1.36745
1
1
1
1.47236
1.47155
1.47178
0.942043
1
1.46902
1.47207
1.47934
1
1.47218
1.47169
1.47101
1.47943
1
1.47046
1.47367
1.40239
1.4675
1.47659
1
1.47787
1.46676
1.47181
1.47483
1.46832
0.612749
1.46948
1.46885
1
1.47167
1.47143
1.47242
1.47049
1
1.47206
1.47043
1
1.46953
1.39473
1
1
1
1.47481
1.47292
1
1
1.25335
1
1.47081
1
1
1.46757
1.47273
1.47102
1.47208
1
1
1
1.31825
1
1.47199
1
1
1.47994
1.46513
1
1.47134
0.692383
1.46809
1.47612
0.747442
1
0.626617
1.39945
1.47905
1.47128
1.47117
0.711537
1.47088
1.47819
0.700278
0.641618
1
1.47092
1.47287
1
1
1.47209
1
1.47089
1
1.41092
1
1.2196
1.47348
1.47751
1.31991
1.42984
1.4762
1.4786
1.45224
1
0.632856
1.4682
1.4702
1.47945
1.00001
1
1
1.47194
1
1.46997
1.46926
0.755566
1
1.47192
0.999939
1
1.00003
1.00004
1.47057
1.47161
0.998508
1
1
1.47009
1.47097
1.4721
1.47325
1.47349
0.667011
1.40462
1
1.46727
1.46987
1.47156
1.46251
1
1.47105
1.45863
1.47253
1
1.47256
1.47316
0.877606
1.47063
1.47276
1
1.47099
0.83044
1.4727
0.878143
1.47053
1
1.47215
1.47958
1.47179
1.47251
1.47229
1.47634
1.47263
1.4735
1
0.951109
1.47236
1.46931
0.818004
1.47127
0.969874
1.30044
1.47155
1.47564
1.47551
1
1.47227
1.30824
1.47308
0.925062
1.47492
1.48209
1
0.842802
1
1.47942
1
1.31802
1
1.44235
0.855142
1
1.46943
1.47341
1
1.47171
1.47389
1.47754
1.47678
1.47847
1
1.4732
1
1
1
0.888636
1.47613
1.46915
1.46835
1.47135
1.4688
1.46897
1.46827
1.47256
0.915235
1.03076
1
1
1.48008
1.47218
1.47381
1.47165
1.00003
1.23864
1
1.4865
1.41374
1
1
0.746388
1.47166
1
1
0.652856
1.4711
1
1.46636
1.47231
1.47655
1.45377
1.47226
1
0.597888
1.11098
1.47098
1.47224
1
1.47036
1.47121
1.23977
1.01093
1.09432
1
1.46858
1.47716
1
1
0.667173
1
1
1.47167
1.47172
1.47305
1.47105
1.47202
1.47745
1.47186
1.47312
1.47417
1
0.996016
1.47272
1.46921
0.996985
1.47128
1.47132
0.587891
0.694074
1.47401
1.47005
1
1
1.00204
1.47119
1.47391
1.47115
1
1.47115
1
0.863524
1.47712
1.47695
1
1.19814
1.46858
1
1.47409
1
1.47004
1.29625
1.46475
1
1.47204
1.47549
0.654084
1.47228
1
1.4717
1.46499
1
0.588912
1.47489
1.40095
0.997811
1.4531
1.47147
1
1.02283
1.47224
0.998239
1.47223
1
1
1.4716
1
1.47315
1.471
0.996495
1.36273
1
1.47123
1
1
1
1
1.47221
1
1
1.47808
1
1.47092
1
1.29706
1.46817
1.46878
1
1
1.00313
1
1.47178
1.47157
1.47159
1.47132
1.47188
1.47206
1.47225
1
1.47043
1.47276
1
1.47221
1.47001
1
1.46994
0.947769
1.05667
1.47119
1.47028
1.47083
1
1.47101
1
1.47198
1.47211
1
1.47232
1
1
1
1
1.47049
0.622058
0.997904
1
1.4684
1.48201
1
1.47208
1
1.00562
0.64154
1.47179
0.999585
1
1.4706
0.998383
1.471
1
0.999769
1
1.46988
1.47983
1.47266
1.47527
0.647481
1.47272
1.47259
1.47193
1.10586
1
1
1.19076
1.47206
0.623565
0.641418
1
1.47261
1.4748
1.47524
1
1
1.47242
1.47286
0.999877
1
1.34013
0.693659
1
1.08094
1.47415
1.47168
0.998248
1.47195
1.47079
1
0.999051
1
1.47449
1.47661
1.18742
1
1.43835
1
1.00076
1.46859
0.690214
1.47766
1.47041
0.997011
0.999916
1.41212
1
0.999703
1
1.48255
1
1.00001
0.674971
1.47157
1.00001
1
1
1
1.4739
1.26399
1
1
0.655391
1.47241
1.26453
1
1
1
1.4495
1.4657
1.47257
1
1
1.46756
1
1.47189
1.47148
1
1
1.47337
1.47213
1.44677
1
1
1.47364
1.4641
1
1
1
1.47127
1
1
1
1.46969
1.47668
1.48089
1
1.48488
1.00003
0.739142
1.47712
1.46276
1
1.47779
1.45939
1.47315
1
1
1.48158
1
1.26052
1.47558
1
0.607097
1
1.47356
1
1
1.47322
1
1
1
1.14802
1.47824
0.710675
1.00001
1.47181
1
1
1.47271
1
1.48291
1
1
1.47155
1.47066
1
1.00005
1
1
1
1
1
1
1.46636
1.47182
1
1.46735
0.661339
1.47307
1
1.48006
1.47926
1.47162
1.4625
1.47313
1
1
1.47527
1
1.2986
1.47172
1.47055
1
1.47193
1.46578
1
1.4054
1
1.47965
1.30026
1.47608
0.997558
1.46116
1.42983
1.46506
1.47593
1.03555
1.47197
1.47529
1
1.47327
1
1.47339
1
1
1
1
0.996516
1.47212
1.4726
1.39361
1
1.48516
1
1
1
0.652387
1
1.46966
1
1.42637
1.45365
1
1
1
1.43117
1.47842
1
1
1.47201
0.650627
1.08685
1
1.47909
1.47124
1.42767
1.466
1.46932
1
1.47234
1
1
1
1
1.4714
1.4773
1
1.46397
1.06614
1.4724
1.43979
1
1
1.44029
1
1
0.673082
1.33336
1
1
1.47404
1
1.47372
1.43179
1
1.41754
0.65375
1.47067
1.47084
1.47048
1
0.665974
1
1
1
1.47149
1.38187
1
1.48028
1.47888
1
1.47149
1
1
1
1
1.47638
0.999378
1
1.47343
1
1
1.46541
1.47078
1
1.48565
1.08317
1.00002
1
1.47119
1
1.47149
1
1.0157
1.47407
1
1.4716
1
1
1.13522
1.47035
1
1
1
1
1
0.995921
0.665914
0.601849
1.02036
1
1.01621
1
1.00733
1
1.47191
1
1.28291
1
1.47163
1
1
1
1.47158
1
1.36319
1.47174
1
1.24113
1.48062
1
1
1.47535
1.4709
1
1
1.03264
0.600734
1
1.47657
1
1
1
1
1.07728
1.46962
1
1
1
0.67849
1
1.47162
1.46928
1.4763
1
1
1
1
1.22841
1.47284
1
1
1
1.48092
1.47212
1.05195
1
1
1
1.47303
1.47139
1
0.599309
1.46954
1.47228
1.46841
1.47846
1.46602
1
1
1.48347
1.47518
1.47263
0.670566
1.03973
1.46987
1
1
1
1
1
1.47767
0.644513
1
1
1.46946
1.20175
1
1.48373
1
1
1
0.671596
1
1
1.116
1.46938
1.47179
1
1.4829
1.4698
1
1.08195
1
1.46232
1
1.47104
0.647953
1
1
1
1
1.47166
1.00007
1
1
1
1.43681
1
1
1
1
1.47173
0.673802
1.35285
1.47719
1
1.47214
1
1
1
0.997165
1
1.47213
1
0.829417
1
1
1.00004
1.4726
0.647064
1
1.46738
1
1.46908
1.47068
0.675377
1
1
1.44765
1
1
0.65902
1
1.46937
1
1.45048
0.999327
1.47144
1
1
1
1
1.47073
1
1
1.47065
1
1
1
1
1
1
1
1
1.30528
1
1.15058
1.47989
1
1
1
0.672758
1
1
1
1
1.47545
1.47149
1.05239
1
1
1.47177
1
1
1.47032
1
1.00002
1
1
1
1.00001
1.4692
0.809258
1.47169
1.47321
0.996871
1
1
1
1.27452
1
1
1.46893
1.47131
1
1
1
1
0.664409
1
1
1
1.29794
1
1.47159
1.4822
1
1.47352
1
1
1
1.24564
1
1.4693
1
1.47102
1
1
0.99594
1.47277
1
1
1
1
1
1.47292
1.00002
1
0.67046
1.47071
0.626213
1
1.47432
1
0.996071
1
1.47355
1.46807
1
1.47114
0.869216
1.47141
1.46474
1.00003
1
1
0.662954
1
1
1
1.47251
1.27453
1.46809
1
1
1
1
0.996787
1.47433
1
0.649849
1
1
1
1
1
1
1
1.48635
1.47346
1.47714
1
1
0.996872
1
0.956969
1
1
1
0.606567
0.955732
1
0.652106
0.673158
1
1.47189
1.47146
1
1.47432
1.47185
0.660516
1.30654
1
1
1
0.648673
1.47012
1
0.648674
1
1.4684
1.06568
1
1
1
1
1.47046
1.47672
1
1
1.47088
1
1
1.47054
1.4723
1
1.43547
1.47151
1.4703
0.973435
1.47115
1.00925
0.656744
1.36126
1.47285
1
1
1
0.608428
1
0.664828
1.47782
0.951025
1.47102
0.968653
1
1.47145
1.21639
1
1
1.4751
1
1.18969
1.47205
1
1
1.47792
1.47375
0.67512
1.26686
0.999896
1
1.28479
1
1.47215
0.958432
1.48258
1.47304
1
1
1
1
1.45212
1
1
1.47334
0.999636
1.47211
1.39145
1.47455
0.664079
1
1
1
1
1.47139
1.00004
1.47158
1
1.47314
1.47647
1.05882
1.47721
1.1429
1.47209
1
1.31405
0.678339
1.46853
1.47057
1.36992
1.06512
1.47638
1.47195
1.47168
1.47218
1
0.904583
1.06951
1
1.46903
1.21234
1.47186
1.00003
1
1
0.657794
1.47679
1.47433
1.36871
1
1.1742
1
1.47452
1.4753
1
1.47351
1.47331
1
1
1
1.47422
1
1.17908
1.46697
1.31926
1
1.46537
1
1
1
1
1
1
1
1
1
1
0.677241
1
1.44065
0.618312
1.27579
0.998583
1.47263
1
1.2329
1.00001
1.29735
1.41182
1
1.00243
1.4788
0.907223
1
1.46819
1.4564
0.965686
1
1.4688
1.47142
1.48199
1
1.47173
1.47185
1.47313
1
1.21282
1
1.00006
1.47151
1
1.47302
1.06569
1.47276
1
1
1.47074
1.47049
0.649723
1
1.47162
1.34962
1.47066
1
1
1.47189
1.48064
0.998239
1
1.43695
0.996848
1.47321
1.00005
1
1
1
1
1.20295
1
1.35574
1.46688
1.34989
1.47212
1
1.00212
1
1
1.47016
1
1.4738
1
1
1
1
0.999999
1
1.05585
1.23488
1
1
0.633958
1
1.46831
0.717564
1.47863
1
1.22349
0.999737
1.47242
1.29607
0.665698
1.25036
1.00003
1.47237
1.47393
1
1.28401
1.47065
1.47417
0.998428
1.47666
1.45684
0.666328
1
1
0.997717
1
1.47788
1
0.673755
1.46868
1
1
1.42169
1
1.4678
1
1.46982
1
0.692428
1
1
1.47368
1.47609
1.46641
1
1.47258
1.47204
1.46621
1
1
1.45151
0.999999
0.739277
1
1
1
1.4718
1
1.47134
1.30255
1.47391
1
1.47182
0.999367
1
1
1
1
1
1
0.72598
1
1
1.47204
1
1.47642
1.47403
1
0.661933
0.661861
1
1.47395
1.07635
0.651828
0.636715
1
1.47379
1
1.47012
0.728258
1.00144
1
1
0.999506
1
1
1
0.999913
1.18094
1.47109
1
1
1.46916
1.27271
1
1.42177
1.46933
1.47404
1.18276
1.4633
1
1.47078
1
1.45792
1
1.47187
1.46999
0.996658
1.4602
1.47383
1
1
1
1
1
0.921657
1.47575
1.00004
1.00003
0.665228
0.99999
0.637177
0.688288
1
1.4701
1.47186
1.47192
1
1.4704
1
0.663696
1
1
1.47451
0.848515
1.46932
1
1.47333
1
0.969902
1.47181
1
1
1
1.47081
1
1.47032
0.672029
1
1
1.27355
1
1
1.24797
1
1
1.47046
1
1
1
1
1
1.47645
1.47149
1
1.47082
1.47454
0.667663
1.21185
1.47188
1
1
1.42304
0.99903
1
1
1.47059
1.47294
1.30052
1
1.47143
0.654914
1.45281
0.999064
1
1.47171
1.00003
1.47264
1.38612
1.35825
1
1
1.4718
0.715429
0.647736
1
1.47106
1
1.47839
1
1.2778
1
1
1.4708
1.30109
0.654983
1
0.997984
1
1
1.02596
1.18444
1.47176
1
1.47403
1
1
1
1
1
1
1.06837
0.635248
1
1
1.0217
1
1
1
1
1
1.47674
1
1
1.47077
1.47078
1.33428
1
1
1
0.827992
1.47664
1.32329
1
1
1
1
1.4708
1
1
1
1.46875
1
1
1.32631
1.48468
1.03107
0.756565
1.47028
1.33185
1.47182
1
1.23231
1
1
1
0.695293
1.00291
0.716678
1
0.724152
0.639568
1
0.668007
1
1
1
1.20801
1
1.473
1.46283
1.0013
1.22379
1.3894
0.640452
0.802258
0.863736
1
1.47205
1.46989
1.47266
1.47146
1.40303
0.868094
1
1.40498
1
1.46095
1
1
0.99648
1.00732
1
1
1
1.47111
1
0.632125
1
1.4712
0.665172
1
1
1.47127
1
1.47131
0.999816
1
1
1.47167
1.43721
1
1.4906
1
1
1.01333
1
1.19857
1
1
0.664473
1
1
1.46895
0.999999
1.47504
1
1.00003
0.65057
1
1
0.601254
1.0009
1
1.47076
0.686556
1.48002
0.694884
1.47125
1
1
1
1
1
1
1
1
1
1
1
1.45231
1
1.473
1.47245
0.636577
1
1
1
1
1
1
1.45832
1
1
0.664059
1
1
1.4702
1
1
1.17557
1.39177
0.665502
0.689842
0.739243
0.7457
1
0.996622
0.640582
1.00028
1.42389
0.996961
1
1
1.46966
1
1
1
0.803714
1.00001
1.1623
1
1
1.18614
1.4705
1
0.649473
1
1
1
0.996804
1.00001
1.46994
1.47136
1
0.678419
1
1.24935
0.645617
1
0.864826
1
0.99595
0.643819
1
1
1
0.996166
0.661306
1
0.720461
0.998401
1.24435
1.40219
0.719829
0.662685
1
0.990945
1
0.998644
1
1.47063
1.47262
1
1.0175
1.47075
1.47113
1
1
1.47124
1
1
1.00004
1
1.47303
1
1
1.01746
1
0.998557
0.737746
1
1
1
1
1
1.47404
1.0147
1.00005
1
1
1
1
1
1.00003
1
0.651456
1.09812
0.998608
1.44915
1.45038
1
1.01503
1.4719
1.41745
1
1
0.698754
1.47043
1
1.47244
1
1.47126
1.32481
0.649898
1
0.645832
1.43457
0.999676
1
0.640592
0.709872
1
1
1.39578
1
0.999998
0.644838
1
1
1
1.14911
1
0.636209
1.47414
1
1
1
1
1.47048
1
1
1.47712
1.42201
1
1
1
1.47213
0.644505
1
1.47269
1.47186
1
1.37268
0.999999
1.00003
1
1
1.45935
1.0225
1
0.65518
1.25704
1
1
0.997853
1
1
1.47413
1
1
1.00003
1
1.47482
1
1
1
1
1
1
1.00001
1.19693
1
1.47581
1
1
1.47327
1
1
1
1.47082
1.47011
1.04458
1
0.997617
1
1
1
1
1.46935
1
1
1.47077
0.662111
1
1
1
1
1
1
1.37795
1
1
1.47345
1.47253
1
1
1
1.47255
1.46936
1
0.999711
1.47175
1
1
1
1.00002
0.635184
1.02893
0.996139
0.995934
1
1
0.689761
1.47218
1
0.713534
1
1.47035
1.4517
0.66398
0.999417
1.47144
1.4739
1.46238
1
1
0.913968
1.41872
1.38301
0.717456
1
1
1
1.47389
1.46722
0.667552
0.997315
1
1.47283
0.625238
1
1.47307
0.65536
0.996609
1.00696
1
1.47449
1
1
1
1
1
1
1.00011
1.43937
1
1
1.47462
1
1
1
1.47117
1
0.651329
1
1
1
1.16014
1
1
1
1
1
0.786318
1
0.625177
1
1.47208
1.00005
0.864234
0.871999
1.00002
1.00295
1.24772
1
1
0.655086
1.47148
1.47216
1.47128
1
0.646897
0.659105
1
1.4708
1
1
1
1
1
1.00003
1
0.654902
1.28827
1
1
0.675133
0.999667
1.00001
1
1
1
0.646881
1
0.697438
1
1
1.46166
1
1
0.645104
1
1.47194
1
0.632257
1
0.652854
1
1.0076
1.47421
1.49325
1
1
1.47243
1
1
1.09194
0.996824
1
0.998146
1
1.47905
1
0.664471
1.00002
1.46924
0.998644
1
1
0.787874
1
0.999042
0.647147
1.47393
1.15985
1
1.00001
0.889663
1
1
1
0.815498
1
1
1
1.47164
1
0.646182
0.999999
1
1
1
0.653441
1.4719
1.44598
0.657016
1
1.46889
1
1
1.47154
1.47164
1.3962
0.650358
0.997756
0.999227
1
1.47124
1
1
1
1
1.46112
1.00004
1
1
1.47966
1
1
1.47151
0.611961
1
1
1
0.659773
1
0.999999
0.999999
0.998717
1
1
1
1
1.35227
1
1.47093
1.47034
1.47651
1.47201
1.47293
1.47146
1
1.47367
1
1.47151
1.47266
1
0.998979
0.637556
1.39988
0.999906
1
1
1
1
1.00385
1
1.07064
1
1
1
0.841969
1.47091
1.47643
1.46809
1.40057
0.999871
1
1.02318
1.47308
0.997894
1.0562
0.997123
0.700495
1
1.00002
1
1
1
1
1
1.47095
0.650566
1.47097
1.47147
0.995257
0.598801
1
1
1
1.47211
0.642065
1.41449
0.646555
1.47162
1.46645
0.653379
1.4711
1.02398
1
1.47023
0.803706
1
0.998824
0.600923
1
0.688121
1
1.47161
1.47038
0.736595
1
1.47109
0.693988
1
0.659471
1
1.47222
1
1
1.4418
1
0.841073
1
0.999698
0.681435
1.46655
0.999474
1
0.635859
1
1
1
1
1.25268
1
1.47274
1
1
1.48583
1
1
1.47344
1
0.665401
1
0.658151
1.00001
1
1
1
1
1.4501
1.27434
1.47178
1
1.47275
1.43728
0.64374
0.636083
1
1
1.4756
1
0.664796
1
1.002
1
1
1.47093
1
1.46917
0.597763
1.48375
1
0.607194
1
1
1.46809
1.46999
1
1.00004
1
1.47617
1
1
0.644217
0.999417
0.602952
1
1
1
1.47443
1.46819
1.47166
1
1
0.704543
1
1.47209
1
1
1
1.45964
1.47277
1.47227
0.674167
1.48187
1.47104
0.657173
1.47047
1.00004
0.664772
1.01646
1
1
1.47309
0.665435
1.29514
0.634153
1.47123
0.997325
0.657685
1.46873
1
1
1
1
1.47206
1.47223
0.653044
1
1.00002
0.659692
1.00004
1
0.70887
0.650386
1.32412
1.46955
0.998488
1.47214
1
1.47409
0.811909
0.660098
1.47143
1.47874
1
1.47157
1
1
1.47079
1
1.37282
1.47053
1
1
1
1
1.46995
1.46641
1.46859
1
1
1.47423
1.47247
1.47083
1
1.47331
1
1
1
1
1
0.65753
0.845456
0.614734
1
1
1.47231
1
1
1.46258
0.649055
1
1.47126
1.46617
1.43447
0.667217
1
0.701431
1
1.00003
1.47182
1.22294
1.47253
1.4289
1
0.712291
1
1.46984
1.33441
0.65101
1
1
1
0.80771
1
1
1.47732
1
0.662759
1.47082
1
1
1
1
1
1.37601
1.10569
1
1.47044
1
1.47456
1
0.997556
1
1.46964
1.46967
1.47203
1.47298
0.999625
1.47209
1
1.47281
1.46534
1.39814
1
1
0.604072
1.47195
1
1
1.47702
1.47164
1.47361
1
1.47213
1
1
1.00003
1.47471
1.46888
1.13163
1.09469
1.47114
1.47268
0.670295
1
1
1
1
1.00002
1.16354
1
1
1.40607
0.604166
0.99997
1
1.472
0.999874
0.999817
1.07018
1.42118
1.47095
0.896213
1
0.602728
1
0.989923
1.4725
1.48086
1.47713
0.998956
1
1
0.677863
1
1
1.47261
1.04848
1
1
1
1
1
1
1
0.999932
1.4726
1.00002
1
1
1
1
1.28606
1
1.21506
1
1
1.47175
1.46907
0.661568
0.998738
1
1
1
0.6567
1.47092
1.47169
1
1
1
1
1
1
1
1
1.47035
1.47215
0.633256
1.05039
0.653766
1
0.672384
1
1.47253
1.13818
1
1
0.69602
1
1.4385
0.8239
0.997128
0.652564
1
1
1.47151
1.00004
0.997425
0.640418
1.47044
1.47405
1
1
1
1
1.44072
1
1
1.47278
0.999007
1.47166
1.00013
1
1
0.59921
1
1
1.47293
0.658412
0.792346
0.646927
1.47055
0.999353
1
1.47651
0.725203
0.657386
1.00067
1
1
1.46948
1.00004
1.20446
1
1
1.47054
0.656528
1
1
1.00013
1.47126
1.00011
1.45432
1
1.00003
1
1
0.716359
1
0.786692
1.00001
1
1.47616
0.596099
1
0.752272
0.792173
1
1
1.47113
1
1
1
1.46915
1.47172
1.00005
1.46677
1.46955
0.762336
1.47194
1.46764
1
1
1.46709
0.999999
1
1
1
1
1.47556
1.47152
1
1
1
1.47216
1.00021
1
0.636079
0.734116
1
1.00003
1.1716
1
1
0.90509
0.670788
1
1
1
1.46768
1.4304
1.47191
1
1
1
1
0.630428
1
1.44965
1
1.47173
0.609657
1.46929
1
1
1
0.706725
1
1.4713
1.00003
1
0.653662
1.17252
1
0.999648
1.47628
0.65281
0.626064
1
1.47129
0.652596
0.634192
1
0.601554
1
1
1
1
0.692956
1
1
1
1
1.46931
1
1.35655
0.633365
1
1
1
0.648384
1.47058
1
1
0.996563
1.47074
1
1.47099
1.47039
1
1
0.730003
0.710749
1
1
0.646393
1.15068
1.21917
1
1
1.47379
0.997354
1
0.997827
1.47392
1
1
1
1
1
1
1.47231
1
1.16394
1.15116
0.695676
1.40845
1
1.47231
1.47002
1
1
1
0.91987
0.631318
1
1.22403
0.999624
1.39786
1
1
1
0.999999
1
1.00756
1.20529
1.47337
1.47092
1
1.47253
1
0.702009
1
0.9978
0.999779
1
0.617827
1
0.657295
1.00002
1.46828
1.47077
0.672531
1.46927
0.704885
0.996174
1.34536
0.60913
1.34269
1
1
0.998434
1
1
1
1.00006
1
0.676161
1
1
1
1
0.999578
1.479
0.780353
1
1
1
1.0379
1
1
1
1.26244
0.762398
1
1
1
1.04154
1.47145
1
0.602514
1
1.47445
0.889907
0.679141
1
0.660314
1
1
1.44501
0.998244
1.43133
1
1.0091
1
1
1.47064
1
1
1
1
1.09053
1
1.47143
1.474
1.47185
0.629635
1.47274
0.997152
1.36629
1
1
0.639384
1
1
0.633931
1.47807
1
1
0.999958
1
1
1
0.641418
0.652466
1
1.47071
1
1.2204
1.47447
0.669538
1.39533
1
1
0.718426
1
1
1.47169
1.47294
1.16465
1
1
1.0016
1.47222
0.638676
0.63952
1.47076
1.47225
1.32407
1.1889
1
0.89059
1
1
1
1.43453
1.47941
1.4725
1
1
1.47093
0.664992
1.43295
0.64005
1
0.653411
1
0.612733
1.46725
0.635629
1
0.98769
0.688123
1
1
1
0.818339
1.42998
1.47114
1.47252
1.47044
1
1
1.47002
1
1
1.47251
1
0.700397
1
0.608074
1
1.46908
1
1
1.02356
1.33784
1
0.998672
0.727328
1.47319
1.00001
0.598964
1.08903
1
1
1.35356
1.47075
1.47007
1
1.47116
1.11428
1
1.02402
1.47104
1
1
1
1
1.47336
1
0.644528
1.47234
0.654404
0.594281
0.813234
1.47127
1.15614
1.46944
1
1.47049
0.997481
1.00003
1.47169
1.47082
1
1.47043
1
1.46773
1
1.47238
1
1.00004
1
1.47633
0.662039
0.644452
0.997841
0.999999
1
1
0.640105
1
1.30871
1
0.661453
1
1.19587
1.47139
1.47594
1
1
1.00003
0.999409
1
1.47095
1.47257
1
1.18989
1.47258
0.863554
1.4713
1.00026
0.681723
1.09744
0.667955
1
1
1.07797
1.47278
1
1
1.02009
0.99862
1
0.619856
1
0.786566
1
1.46961
1
1
0.671711
1.10203
1.07151
0.998497
1.47227
1.47226
0.771177
0.998103
0.628659
0.709586
0.615835
1
1
1
0.999069
0.71525
0.658071
1
1.47094
0.99973
1.47185
1.46902
1.47188
1.47316
1
0.609865
1.4722
0.665897
1
1.47071
1.48106
0.996752
0.813177
1.47103
1.3373
1
0.646983
1
1
1.46814
1
1.02593
1.47138
1
0.604564
0.643517
1
1
0.667776
0.655285
1.47086
1.00005
1
0.608133
0.702513
1.47087
1.46829
1.45044
1.47134
1.11983
0.96457
1.1853
1.48054
1.34371
1
1.24378
1
0.598102
0.853293
1
0.608234
1.47021
1.02365
1.4728
1
1.47133
1.47126
1
1.47307
1.47153
0.653414
1.47153
1
1.48551
1
0.745467
0.678216
1.47182
1
1
1
0.674236
1.47226
1.47369
1
0.664714
1
1
0.64263
1.00004
0.637313
1.47248
1
0.799206
0.697488
1
1
1.2781
1
1
1
1.07515
0.659475
1
1.00001
1
1.46946
0.643906
1
1.47176
0.606885
0.650867
1
1
1.47738
1
1.47236
1.00001
1.47119
0.65635
1
1
0.708493
0.809572
0.610761
1
1
1
1
1.48262
0.652278
1
0.666399
1
1.46748
1
1
0.934081
1
1
0.804528
0.99967
1.00005
1
0.640865
0.667751
1
1
1
1
0.775426
1.46991
1.47213
1
0.660654
0.722871
0.914595
0.674488
1
0.797513
1
0.622893
0.975561
1
1
0.65458
1
1.47231
1.46142
0.668305
1
1
1
1.47019
1
1.04577
0.86762
1.14975
0.667014
1.18372
0.645509
1
1
0.693742
0.925079
1
1.02601
1
1
0.695326
1
0.934658
1.06471
0.667585
1
1.38085
0.755503
0.889817
1
1
1
0.63501
1
0.678424
0.642872
1
0.859083
0.673262
1.06169
0.721818
0.602205
1.47111
1
1.47137
1.25149
0.734382
1.47186
0.596916
0.998947
1.47217
0.999999
1
1.47218
1
0.715969
1
1.08129
1
1
1.471
1
0.771632
0.80822
1.47222
0.947689
1
0.7915
1.47178
1.47053
0.920194
1
1.47184
1.12236
0.840929
1
1.01854
1
0.64614
1.20716
0.744998
0.709604
1
1
0.677828
1.47104
0.949917
0.662717
0.667777
0.854851
1
1.00968
1.47234
1.47003
1
1
0.999999
0.65854
1.2121
0.99997
1.47417
1.44004
0.688136
0.999999
1.10794
0.872501
1.27167
1.40453
1
1.04042
1
1.00006
0.657268
0.833348
1
1
0.812931
0.644819
1.04654
1
1.00001
0.612616
1.21192
1
1.47436
1
1.04667
1.24841
1
1.46629
1
1
1.47182
1
0.637967
1.47037
0.677232
1.12082
1
0.675163
0.999908
1
1.00003
1
0.772458
1.028
0.655566
1.34395
1.47301
0.639805
1
1
1
1
1
0.941611
0.700153
1.04084
0.661664
0.674204
1.07632
1
0.999793
1.11795
1
1
0.634515
0.970343
1
1
1.13338
1
1.47112
1
1.47024
1.07438
1.038
0.66976
1
1
0.60445
1
1
1
1
1.46964
1.04389
0.99803
1
0.641204
1.05438
0.999999
1
1.30661
1
0.674698
1.4695
1
1.00001
1
1.47299
0.638038
0.883492
0.692126
1.35361
1.46921
1
1
1.47264
1
0.695707
1
1
1
1
1
0.769901
1
1.47268
1
1
1.15765
1.471
0.661487
0.86056
1
1.47124
1
1
1
1
1
1.4721
1.47027
0.644792
1.47143
0.645616
1
1
1.47094
1
1.47031
0.991068
1.02642
1.05793
1.46941
1.07513
1.29567
0.651743
1
0.655233
1.00306
1
1.47208
1
1
0.651335
1.47024
1
1.47019
1
1
1
1
1
1.00001
0.633964
1.4726
0.827017
1.46854
1
0.641539
0.654669
0.700583
1.47815
1.47183
0.962829
1
0.807173
1
1.19328
1
1.46788
0.632394
0.637904
0.859376
1
1.47061
1
1.07206
0.671178
1
1.4709
1.42519
0.998911
1
1.47109
0.67448
1.4731
1.47274
1.46731
0.639014
1.09454
1
1
0.641134
1
0.794391
0.821122
1
1.00002
1.46674
1
1.47032
1.0839
1
1.03587
1.47677
1
0.602368
1
0.749721
1
1
1.3904
1
0.77301
1
0.659985
1.03705
0.931481
0.705904
1.47238
1.38023
1.47196
0.658153
0.695145
0.995804
0.999999
1
0.694369
1.44345
0.654712
0.999959
1
1.47126
1.47066
0.906634
1
0.673203
0.682225
1.30822
0.979209
0.647573
0.999999
0.630874
1.12207
0.653332
1
1.00006
0.815638
1.47228
1.4737
0.846636
0.999592
1
1
0.745624
1
0.648988
1
0.695915
0.664573
1
1
1.00003
0.653848
1.4712
1
1
1.00007
1.00004
0.683534
1.47111
1.47229
1
0.658711
1.47156
1
1.10493
1
1
1.46895
0.646926
1
1
0.653722
0.730713
0.657713
0.617616
1
0.687482
0.997166
1.09399
0.635206
1
1
1.12771
1
1.42694
1
1
1.33171
0.651421
1
0.684677
1.13033
1.47218
1
1
0.662537
0.674907
0.649215
0.746856
0.646888
1.35163
0.999393
1
1
1
1
1.47046
0.60868
1
0.951071
0.999666
0.998818
0.999941
0.731792
1.12733
1
1.47132
1.47115
1
1
1.45591
1.00005
0.999999
1.47724
0.677375
1.4796
0.999999
0.631956
1.4726
1.00005
1
0.799798
1
0.649623
1
1.47169
1
1
1.4756
1
1
1.47209
1
1
1
1.47561
1
0.719539
0.689015
1
0.636175
1.47232
1
1
0.976393
1
1.48537
1.26926
1.37817
1
1
0.648679
1
0.614248
1.47353
1.47337
1.471
1
1.47289
0.677734
1
0.654594
1.37608
1.42479
1.47423
1.47264
0.770743
0.654831
1
1.30842
1.47147
1.4742
1.47217
0.736001
1.15945
1
1.33654
0.731608
1
1.00002
1
1.00002
0.912086
1
1.47454
1
1
1
1
1
1
1.00006
1.47707
1
1.48088
1.34458
0.646063
1.47281
1.02667
1.23985
1
1.47124
1
0.655897
1
1
1
1
1.40158
1
0.641339
1.4717
0.640978
1.47084
1.37572
1.24106
1
1.08808
1.21932
0.996114
0.702313
0.800756
1.00002
0.999999
0.919272
1
0.624512
1.47197
0.598688
0.906325
0.881577
1
1
1
1.01486
1
1
0.703714
0.997125
1.47316
1
1.47115
1
0.64954
1
1
1.47106
1.47225
0.64051
1
1.47091
1
0.831625
0.619309
1.47388
1.42184
1
1.07844
1.47076
0.998701
1
1.18099
1.41442
1.46868
0.99615
1
0.999998
1.39881
1
1
1
1.47131
0.998473
1
1
1.47108
1
1
0.659306
1
1
1
1.47367
1
1
0.875709
1.15531
1.41012
0.770622
1
1.47064
1
1.16502
1
1.47054
0.997338
1.47407
1
0.677988
1
1.31705
1
1
1.43929
1.00001
1.47114
1
1.4704
0.706988
0.660547
1.47238
1
1.39867
1
1.47152
1
1
1.00005
1.4695
1.47469
1.12111
1.47182
0.995836
0.685777
1.46986
0.842825
1
1.4698
1
1.47233
1
1.47439
1.4713
0.9964
0.652032
1
1.47363
1
1.01996
1
1
0.997958
0.747405
1.41963
1
1.43704
1
0.88347
0.654105
1.47272
1.4701
0.690107
1
1.47214
1.47081
1.47139
0.67157
1.4623
0.654274
1.47116
1.46706
1
1
1.47312
1
1
1
1
0.650997
1
1
1.47156
1.47022
1
1.47241
1
1.47089
1.47153
1
1.37799
1
0.628841
1.47097
1.35109
1.13202
0.637938
1.47159
1
1
0.659491
1
1
1.47208
1
1
0.796047
1
1.47174
1.00009
1.47156
0.65381
1.4711
1
1.47342
1.45332
0.908934
1
1.47405
0.76707
1.47041
1.34406
1.47245
1.46838
0.997048
1.47106
1.47065
1.47428
1.47018
1.0005
1
0.702113
1
1.47485
0.829967
1.42111
1
1.46305
1
1
1
1
1
1.46867
0.652624
0.656229
1.47129
1.47204
1
1
1
1
1
1.46791
1.44348
1.47185
1.02825
1
1
1
1.00003
1.47048
1.4729
1
1.47163
1.47144
0.670923
1.3257
1
1.47333
1.47108
1.46745
0.997961
1.47234
1.47221
1
1.43797
1
1
1
1
1
1
1.47283
1.47214
1.43844
1.47207
0.655244
0.689853
1.47045
1.47296
1
0.605371
0.92599
1
1.22153
0.643687
1
0.999457
0.998278
0.647139
1
1.47191
1
1
1
1.47209
0.948213
1
1.47139
1.47197
1
1.47262
1
1
1.47164
1
0.644174
1
1.47754
1
1
0.667988
1
1.47233
1
0.634634
0.679602
1
1.45897
1
0.633572
0.888198
1
1.47001
1
1
1
1.46675
1
0.634045
1.06689
1.47149
1.47325
1.47129
1.04278
1.47381
1.47206
1
1.00002
1
1
1.00001
1.47102
1
0.999291
1.47382
1
0.637117
1
1.47187
1.21156
1.03747
1.21343
1.05811
1.48251
0.685282
1.47087
1
0.659157
0.997238
1.47212
0.934381
1.47214
1.47345
1.45614
1
1.46887
1.47142
1.47118
1
1.00004
1
1
1.47377
1.33198
1
1
0.639799
0.996568
1
1.47139
1
1.47164
1.47268
1.47589
0.898072
1.47133
1.47025
1.01249
1.22348
1.47235
1.47201
1
1.43432
0.850789
1.46865
1.00052
1.46987
1
1.47215
1.46981
1
0.677524
0.92804
0.717002
1
1.08712
0.996573
1.47113
1
1
0.99668
1
1.23996
1.42409
1
1
1.4727
1
1
1.32405
1.47378
1.45283
1.47134
1.47094
1
1.47047
0.75647
1.47042
1
0.98749
0.651766
1
1
0.760869
1
1.13406
1
1.47826
1
1.46238
1.28869
0.665823
1
1
1
1
1
1.47141
1.01203
1
1.47179
1
1.47166
1.47168
0.999999
1
0.948776