/*--------------------------------*- C++ -*----------------------------------*\
  =========                 |
  \\      /  F ield         | OpenFOAM: The Open Source CFD Toolbox
   \\    /   O peration     | Website:  https://openfoam.org
    \\  /    A nd           | Version:  12
     \\/     M anipulation  |
\*---------------------------------------------------------------------------*/
FoamFile
{
    format      ascii;
    class       volScalarField;
    location    "5.44";
    object      p;
}
// * * * * * * * * * * * * * * * * * * * * * * * * * * * * * * * * * * * * * //

dimensions      [1 -1 -2 0 0 0 0];

internalField   nonuniform List<scalar> 
22702
(
1
1
0.878937
1
1.0601
1
1.46935
1
1
0.664851
1.47099
1.47093
1
1.47214
0.897664
1
1
1
1.47127
1
1.47095
1
1.46351
0.634622
1.47439
0.644769
1
1.46217
0.664353
0.638837
1
1.47289
1
1
1
1.43599
1.47416
1.46442
1
1
0.685269
1
1.22503
1
1.46024
1
1
1
1
0.664509
1
0.648733
1
1.47054
1
1.47344
1
1
1
1
0.657407
1
1
0.639798
1
0.669473
1
1
1
0.668451
1
1.47397
1.28299
1
1.47656
1.50517
0.67671
1.46915
0.653974
1
1.47127
0.655638
1.4725
1.4682
1
1
1
1
0.928879
0.665572
1.47702
1
1
0.644645
1
1.47182
0.644905
1
1
1
1
1.22421
1.47086
0.668804
1
1
1.10915
1
0.654792
1
1.47033
1.47261
1
1
0.63799
0.637212
0.663376
1
1
1
1
1
0.914876
1
1.40182
1.03638
1.4752
1
1.47961
1.47127
1.47123
1.47286
1
0.673115
1
0.646243
1
1
1
1
1.47215
1
1
1
1
1.47411
1
1.02463
1
1
1
1
0.661256
1
1.0102
1
0.652799
1
1
1
1.4749
1
1.46768
0.635448
0.655366
1.47769
1.47037
1
1.07986
1.26841
1
1.47225
0.659099
1.43691
1
1
1
1
1.47306
1.38793
1
1.47021
0.628082
1.4733
1
0.675022
1
0.663272
0.644919
0.999803
1
1
1.47089
1
1
1.47201
1
1.47368
1.47052
0.657241
1
1
0.661219
1.47215
1
1
1
1.47202
1
0.632352
1
1
1.47201
1.47164
1.47255
1
1.00004
1
1
1
1.47182
1
0.634795
1.49883
1.47223
1.46941
1
1
1
0.647829
1.47181
1.21718
1
1.47271
0.641871
0.634189
1.47277
1.47154
1
1.47201
0.665828
1.41489
1
1
1
1
1.47164
1
1.27559
1.04213
1
1
1.47119
0.646765
0.77808
1
1.46929
0.654974
1.47583
1
1
1
1
1
1
1
0.658961
0.773825
0.632679
1.47144
1
1
1
1
1.42434
1
0.661688
1
0.635638
0.66378
1.47116
0.66041
1.47097
1
1
1
0.997678
0.676886
0.665417
0.999999
1
0.635826
1
1.47148
0.664335
1
1
1.47182
0.646868
1
1.47496
0.64974
1.47202
1
0.643554
0.997685
1
1
1
0.645676
1
1
0.999998
1.00002
1.00277
1.28363
1
0.656592
1
1
1
1
1
1
1
1.47251
1
1.47323
1
1
1
0.664324
1
1.47199
0.661389
1
1.36754
1
1
1.47372
1
1
1
1.45502
1
1
1.45587
1.47369
1
1.09243
1
1
0.645343
1
1
1
0.641815
1
1
1
1
0.643977
1
1
1
1
1
0.666769
1.00007
1.469
1
0.999995
1.47303
1.47697
1
1
0.664641
0.812208
1.4705
1
1
1
1.47189
0.669058
1
1.46854
1
1
0.720766
0.710147
1
0.674142
0.661148
1
1
1
1
1
1
1
1.46822
1.10738
1.46075
0.663926
0.908018
1.47137
1
1.47788
1.4706
0.656372
0.780615
1
0.641121
1
1.48183
1
1
1
1
1.47233
1
1
1
1
1
1
1
1.16672
1.47106
1
1.4716
1
1
0.659307
1
1
1
1
1.47156
1.35484
1
1
0.66248
1.47185
1.47165
1
1.47187
1.47178
1.47184
1
0.825728
1
1.47183
0.992284
1.47178
1
0.635865
0.998856
1.47248
1
1
1
1
0.657472
1.47143
1.42644
1
1.47389
1.47192
1.47056
1
1.22414
1.47128
1
1
1.32432
1.06693
1.47194
0.926561
1.47188
1
1.47176
1.4712
1.47172
1.47135
1
1.44688
0.899776
0.874092
1
0.999999
1
1
1.47813
1
1
1
1
1
1.47089
1
1
0.996168
1.47125
1.40327
1
1.38831
1.00004
1
1
1.46996
1
0.997179
1.00385
1
1.47124
1
1.47288
1
1
1.34505
1
1.47295
1.00002
1
1.47234
1
1.47135
1
1
1
1.47193
1
1.47727
1.00001
1.47215
1.47146
1.47084
1.46643
1
1.47039
1.46443
1
0.662861
1.44139
1.33403
1
1.47233
1
0.64466
0.646952
1
1
1
1
1
0.648218
1
1.47144
1.1166
1.47053
1
1
1
1
1
1.47122
1
1.47022
1.27166
0.775504
1
1.00001
1.13399
1.11302
1
1
1.1612
1
0.66175
1.47177
1.47177
1
1
1
1.47158
1
1.00003
1.47017
1.47117
0.957918
1
1
0.663119
1.42596
1
1
1
1
1
1.47126
1.4706
1
1.47066
1.47627
1.47101
1
1
1
1
0.658253
1.47137
1
1
1.42867
1.47055
1
1.44312
1.47863
1
1
1
1
1
1.47155
1
1
1
1
1.47935
1
1.45936
0.640644
1
0.659874
1
1
1
0.996977
0.666537
0.999008
1
1
1
1.06153
1
1
0.876935
1
1
1
1
1
1
1
0.999997
0.925493
0.999999
1
0.99761
1
0.660843
1
1
1
1
1.34697
1
1
1
1
0.655458
1
1
1.44267
1.47286
0.999999
1
1
0.886306
1
1
1
1
1
1
0.960739
1.00759
1.47206
1
1
1
1.47639
0.906227
1
1
1
1.46075
1.47215
1
1.00001
1
1
1
1
1
1
1
0.659256
1
1
1.47105
0.63135
1
1.47035
1
0.656258
1
1
0.655571
1
1
1
1
1
1
1
1.46174
1.47081
1
1
1
1
1.42908
1
1.14678
0.676063
1
1
1
1
1
1
1
1.04378
1
1
1.23981
1
1
1
1.38918
1
1
1
1
0.648673
1
1
0.647213
0.645942
1
1
1.47195
1
1.00612
1
1
1
1.32635
0.663322
1
0.654022
1
0.786223
1
1
1
1.47001
1
1
1.4711
1
1
1
1.47098
1
1
1.47126
1
1
0.65718
1
1.14482
1
1
1.47236
1.47105
1.31224
1.42013
1
0.644563
1
1
1.44956
1
0.661939
1
1
1
1.47259
1
1
1
1
1.27296
1
1.43073
1.47344
0.651282
1
1
0.662381
0.651041
1
1
1
1.33263
1.35328
1
1
1
1
1
1
1
1.18604
1.46542
1.00186
1
1.46632
0.67022
1
1
1
1.25759
1
1.08997
1
1.42803
1.46925
1
0.631425
1
1.47308
1
1
1.47078
1.44115
1
1.47614
1
0.631136
1
1
1
1.47569
1.46157
1.41166
1
1.46993
1.47124
1
1.47349
1
1.46935
1
0.662019
0.970408
0.66243
1
1
1
1
1
1.47056
1
1.47069
1
1
1
1.44728
1
0.654497
1.47156
1
0.646503
0.680838
0.662647
1
1.23161
1.0368
1.47332
1.47131
1
0.999999
1
1
1.4717
1
1
1.47162
1.47094
1
1.15969
0.999976
1
0.996709
1.48243
0.836912
1
0.821812
0.661383
0.657731
0.970211
1.46299
1.46494
1.08035
1.47158
1.47131
1
1
1.47232
1.47176
1.47155
1.47269
1
1.47147
0.6741
1.47572
1.4708
1.47209
1.47126
0.87226
0.90071
0.929252
1.47196
0.956008
1.46964
1
1
1.47356
1.47192
1
0.634314
1.47072
1.47103
1
1.47145
1.47135
1
1.4713
0.650775
1.47591
1.46464
1.4728
1.46894
1
1
1
1.4711
1.30127
0.672342
1.47093
0.651742
1.47168
1
1
1
1
1.47287
1.47128
1
1
1.47158
0.657079
1.4722
0.663686
1
1.46839
1
0.668546
1.47264
0.745248
1
1.47142
1.47366
1.47078
1
1
1.21975
1.47295
0.66034
1.47146
1
1.47156
0.875448
1.47036
0.660546
1
1.4714
0.684179
1.47347
0.652987
1
1.47216
1
1.47245
1
1.27314
1.45339
1.36687
0.643637
1
1.47179
1
1.47068
1
1.47179
1
1
1.47056
0.985761
1.47443
0.655898
1.41951
1
1.33197
1
1.47097
1.47173
1.46947
1
1.4222
1.47023
1.43483
1.28094
1.4698
1
1.30748
1
1.47077
1
1.06321
1
1.43573
1
1.4717
1.44833
1.44801
1
1.46553
0.640478
1
0.641074
1
1
1
1.47163
1
1.47272
1
1
1
1.47319
1.4593
1.38642
1.4731
1.4758
0.66185
1.46154
1.47414
1
1.39484
1.47161
1.46767
1
1.47245
1.47333
1
1.47832
1.47307
1.47095
1.47275
1
1
1
1.47107
0.64759
1
1.47165
1
1
0.652271
1
1
1.47127
1.47233
1
1.47156
1.47131
1.47515
0.978511
1.47166
1
1.47163
1.4714
1.3821
1
1
1
1.47345
1.47161
1.47119
0.938404
1
1.47534
1.47174
1.47182
1
1.47178
1.47102
1.47133
1.48022
1
1.47233
1.47797
1.40313
1.47207
1.47957
1
1.48047
1.46632
1.47117
1.47643
1.4705
0.655965
1.46993
1.47303
1
1.47126
1.47123
1.47226
1.47233
1
1.47087
1.47171
1
1.47105
1.39417
1
1
1
1.47546
1.46561
1
1
1.25282
1
1.47114
1
1
1.47136
1.47278
1.47165
1.47107
1
1
1
1.32079
1
1.47261
1
1
1.48278
1.46405
1
1.47183
0.65539
1.47132
1.47428
0.728391
1
0.645812
1.40152
1.47314
1.47252
1.47251
0.656524
1.47047
1.47236
0.656213
0.64855
1
1.47137
1.47058
1
1
1.47142
1
1.47176
1
1.40893
1
1.21909
1.47046
1.47354
1.32115
1.41849
1.47398
1.47205
1.44187
1
0.661203
1.47516
1.47177
1.4744
1.00001
1
1
1.47395
1
1.47185
1.47178
0.761206
1
1.47218
0.999934
1
1.00003
1.00004
1.47177
1.47169
0.998448
1
1
1.47091
1.47309
1.47162
1.47316
1.47097
0.665859
1.4235
1
1.46815
1.47149
1.47134
1.47142
1
1.47161
1.45823
1.4732
1
1.47131
1.47402
0.85853
1.47137
1.47234
1
1.4715
0.840727
1.47193
0.855832
1.47183
1
1.47098
1.47696
1.47186
1.47187
1.4711
1.47428
1.47257
1.47112
1
0.929227
1.47194
1.47075
0.837005
1.47128
0.981777
1.3041
1.47172
1.47689
1.47592
1
1.47373
1.30345
1.47255
0.922897
1.47427
1.48254
1
0.857861
1
1.46247
1
1.31885
1
1.44018
0.861064
1
1.46842
1.46721
1
1.47206
1.47358
1.47882
1.461
1.4751
1
1.47341
1
1
1
0.895182
1.47162
1.47231
1.47774
1.47185
1.46807
1.47619
1.46736
1.47255
0.904295
1.03024
1
1
1.47767
1.47239
1.47121
1.47141
1.00003
1.23702
1
1.47718
1.42126
1
1
0.743379
1.47136
1
1
0.657671
1.47133
1
1.46949
1.47259
1.4744
1.45251
1.47145
1
0.648956
1.10756
1.47088
1.47103
1
1.47262
1.4713
1.22178
1.01061
1.10339
1
1.47022
1.47158
1
1
0.661011
1
1
1.47185
1.47204
1.47033
1.4711
1.47178
1.47669
1.47182
1.46758
1.47144
1
0.996363
1.47255
1.47117
0.997041
1.47134
1.47145
0.658279
0.656058
1.47244
1.47235
1
1
1.00179
1.47194
1.47022
1.47144
1
1.47131
1
0.864618
1.47565
1.45982
1
1.20691
1.47199
1
1.47124
1
1.47221
1.31297
1.47086
1
1.47194
1.48039
0.659673
1.47124
1
1.47262
1.46608
1
0.662891
1.46941
1.40732
0.997598
1.45539
1.47139
1
0.996548
1.47636
0.998521
1.47244
1
1
1.47203
1
1.47581
1.47126
0.996564
1.36886
1
1.47146
1
1
1
1
1.4714
1
1
1.46918
1
1.47092
1
1.29607
1.47838
1.47254
1
1
0.997721
1
1.47322
1.47187
1.47332
1.47164
1.47275
1.47184
1.47125
1
1.47225
1.46968
1
1.47213
1.4723
1
1.47105
0.928015
1.05557
1.47245
1.47168
1.47049
1
1.47178
1
1.47141
1.47229
1
1.47243
1
1
1
1
1.47124
0.65292
0.997943
1
1.47208
1.48013
1
1.4709
1
1.00518
0.664236
1.47125
0.999569
1
1.46966
0.998326
1.47111
1
0.999774
1
1.46949
1.47786
1.4721
1.4714
0.668272
1.47237
1.47182
1.47137
1.11461
1
1
1.19353
1.47186
0.649136
0.660976
1
1.47288
1.47098
1.47492
1
1
1.47371
1.47281
0.999868
1
1.33951
0.655059
1
1.07596
1.47346
1.475
0.998249
1.47154
1.47589
1
0.999072
1
1.4699
1.4796
1.18387
1
1.43577
1
1.00297
1.47214
0.682238
1.47187
1.47124
0.996988
0.999912
1.40868
1
0.999696
1
1.47188
1
1.00001
0.653866
1.47129
1.00001
1
1
1
1.47406
1.26018
1
1
0.664883
1.47195
1.26366
1
1
1
1.44898
1.46491
1.47198
1
1
1.47176
1
1.47136
1.47164
1
1
1.47322
1.47191
1.44821
1
1
1.47338
1.47402
1
1
1
1.47289
1
1
1
1.46981
1.47134
1.47344
1
1.47452
1.00003
0.717315
1.47201
1.47184
1
1.47456
1.45415
1.46959
1
1
1.47427
1
1.24204
1.472
1
0.662879
1
1.4738
1
1
1.47566
1
1
1
1.14125
1.47072
0.690381
1.00001
1.47302
1
1
1.47228
1
1.47358
1
1
1.47181
1.47084
1
1.00005
1
1
1
1
1
1
1.47407
1.47132
1
1.47029
0.651526
1.46746
1
1.47192
1.4777
1.47142
1.47941
1.47229
1
1
1.47368
1
1.29221
1.47597
1.47099
1
1.47615
1.47088
1
1.42176
1
1.47166
1.30047
1.47188
0.997615
1.4631
1.4272
1.47404
1.47183
1.03673
1.47123
1.47511
1
1.47132
1
1.47143
1
1
1
1
0.99679
1.47154
1.4718
1.40123
1
1.47344
1
1
1
0.648741
1
1.45964
1
1.42573
1.45065
1
1
1
1.45479
1.48105
1
1
1.4709
0.661832
1.07143
1
1.4735
1.47106
1.42799
1.46123
1.47109
1
1.47299
1
1
1
1
1.47261
1.47187
1
1.46371
1.05468
1.47164
1.44
1
1
1.44046
1
1
0.635066
1.32783
1
1
1.46891
1
1.47602
1.42403
1
1.42236
0.666695
1.47016
1.47207
1.47265
1
0.635935
1
1
1
1.47122
1.37501
1
1.47955
1.47217
1
1.47121
1
1
1
1
1.47209
0.999342
1
1.47354
1
1
1.47075
1.472
1
1.47782
1.08998
1.00002
1
1.47046
1
1.47019
1
1.01337
1.4718
1
1.47121
1
1
1.15081
1.47169
1
1
1
1
1
0.996207
0.66061
0.656796
1.02082
1
1.02761
1
1.02463
1
1.47175
1
1.27911
1
1.47129
1
1
1
1.47126
1
1.36429
1.47212
1
1.2469
1.4724
1
1
1.47178
1.47206
1
1
1.0549
0.644912
1
1.47225
1
1
1
1
1.07561
1.47168
1
1
1
0.636048
1
1.47173
1.47234
1.47331
1
1
1
1
1.23422
1.47128
1
1
1
1.47583
1.47135
1.05588
1
1
1
1.47143
1.47127
1
0.664324
1.4717
1.47158
1.47142
1.47095
1.46973
1
1
1.47961
1.47017
1.47139
0.641544
1.04092
1.47175
1
1
1
1
1
1.47233
0.660879
1
1
1.4717
1.19848
1
1.47736
1
1
1
0.659158
1
1
1.11782
1.47162
1.47078
1
1.4672
1.47811
1
1.07158
1
1.4688
1
1.47319
0.659357
1
1
1
1
1.47118
1.00006
1
1
1
1.45332
1
1
1
1
1.47129
0.660886
1.37119
1.47457
1
1.47056
1
1
1
0.997112
1
1.4781
1
0.820637
1
1
1.00004
1.46927
0.657644
1
1.47365
1
1.46815
1.47299
0.655729
1
1
1.45938
1
1
0.630245
1
1.46817
1
1.45035
0.999315
1.47347
1
1
1
1
1.47011
1
1
1.46986
1
1
1
1
1
1
1
1
1.3022
1
1.14975
1.47104
1
1
1
0.661874
1
1
1
1
1.47277
1.47129
1.05571
1
1
1.47275
1
1
1.47211
1
1.00002
1
1
1
1.00001
1.4731
0.791651
1.47108
1.4736
0.997224
1
1
1
1.27411
1
1
1.47156
1.47173
1
1
1
1
0.673998
1
1
1
1.29657
1
1.47141
1.4744
1
1.47285
1
1
1
1.24614
1
1.47253
1
1.47135
1
1
0.996194
1.47153
1
1
1
1
1
1.47263
1.00002
1
0.632736
1.46873
0.624014
1
1.47192
1
0.995791
1
1.47246
1.47853
1
1.46255
0.887065
1.47079
1.47088
1.00003
1
1
0.651397
1
1
1
1.47148
1.27197
1.4707
1
1
1
1
0.996636
1.46944
1
0.661819
1
1
1
1
1
1
1
1.4801
1.47356
1.47843
1
1
0.996832
1
0.983586
1
1
1
0.675488
0.981147
1
0.644188
0.662531
1
1.47241
1.47162
1
1.4711
1.47141
0.658921
1.31154
1
1
1
0.662438
1.47168
1
0.659829
1
1.48038
1.07723
1
1
1
1
1.47051
1.47269
1
1
1.47201
1
1
1.46902
1.47145
1
1.44815
1.47028
1.47387
0.956762
1.47282
1.00844
0.663403
1.36017
1.47011
1
1
1
0.669403
1
0.661362
1.47832
0.960935
1.47049
0.951552
1
1.47316
1.21448
1
1
1.47498
1
1.18753
1.47376
1
1
1.47706
1.46176
0.665206
1.27152
0.999895
1
1.27597
1
1.46957
0.935966
1.48269
1.47335
1
1
1
1
1.4658
1
1
1.47347
0.999641
1.47142
1.37497
1.47486
0.659548
1
1
1
1
1.47175
1.00004
1.47139
1
1.47276
1.47002
1.05765
1.47659
1.14828
1.47207
1
1.31458
0.670961
1.4718
1.47162
1.39122
1.07567
1.4732
1.47077
1.47165
1.47269
1
0.92076
1.06728
1
1.4716
1.21676
1.47155
1.00003
1
1
0.69772
1.46824
1.47408
1.38192
1
1.17983
1
1.47808
1.47906
1
1.4702
1.47352
1
1
1
1.46909
1
1.18036
1.46879
1.32092
1
1.47229
1
1
1
1
1
1
1
1
1
1
0.684258
1
1.43432
0.65643
1.27106
0.998581
1.46718
1
1.246
1.00001
1.29659
1.40435
1
1.00231
1.47912
0.918753
1
1.46859
1.45407
0.932935
1
1.47229
1.4714
1.47385
1
1.47125
1.4742
1.4714
1
1.20408
1
1.00006
1.47174
1
1.47222
1.06523
1.46976
1
1
1.47002
1.47054
0.685546
1
1.47199
1.34982
1.47091
1
1
1.47498
1.472
0.998234
1
1.41345
0.996862
1.47187
1.00007
1
1
1
1
1.20256
1
1.35723
1.47283
1.34823
1.47388
1
1.00253
1
1
1.4708
1
1.47163
1
1
1
1
0.999999
1
1.05729
1.23866
1
1
0.675672
1
1.47453
0.681936
1.47938
1
1.23341
0.999754
1.47151
1.29824
0.663231
1.24846
1.00003
1.47205
1.47464
1
1.28242
1.47614
1.47191
0.998413
1.46532
1.45783
0.661211
1
1
0.997763
1
1.46951
1
0.671261
1.47474
1
1
1.42224
1
1.4732
1
1.47131
1
0.675604
1
1
1.47277
1.4645
1.47364
1
1.47226
1.47143
1.4631
1
1
1.46803
0.999999
0.726575
1
1
1
1.47244
1
1.47116
1.3009
1.47405
1
1.47096
0.999392
1
1
1
1
1
1
0.717793
1
1
1.47089
1
1.47462
1.46732
1
0.675423
0.656588
1
1.47293
1.07482
0.668278
0.637998
1
1.47251
1
1.47615
0.664096
1.00145
1
1
0.999496
1
1
1
0.999909
1.18504
1.47149
1
1
1.47288
1.27587
1
1.41725
1.47247
1.47461
1.19011
1.47256
1
1.46928
1
1.45354
1
1.47865
1.47028
0.996737
1.47348
1.47444
1
1
1
1
1
0.91832
1.4749
1.00004
1.00003
0.686529
0.999982
0.670239
0.669137
1
1.47018
1.47175
1.47162
1
1.47131
1
0.658867
1
1
1.47326
0.83255
1.47415
1
1.4727
1
0.980345
1.47181
1
1
1
1.47298
1
1.47134
0.67114
1
1
1.27195
1
1
1.24819
1
1
1.47019
1
1
1
1
1
1.48222
1.47202
1
1.47193
1.47128
0.656122
1.21449
1.47256
1
1
1.42276
0.999041
1
1
1.471
1.47487
1.32239
1
1.46983
0.677006
1.42865
0.999427
1
1.47419
1.00003
1.47426
1.38448
1.35758
1
1
1.47163
0.722798
0.6787
1
1.47061
1
1.47067
1
1.27369
1
1
1.47072
1.29719
0.66176
1
0.998393
1
1
1.02595
1.18249
1.47157
1
1.47577
1
1
1
1
1
1
1.06789
0.663861
1
1
1.03943
1
1
1
1
1
1.47192
1
1
1.47119
1.47116
1.33052
1
1
1
0.82679
1.47764
1.32523
1
1
1
1
1.47185
1
1
1
1.47048
1
1
1.34029
1.48713
1.04543
0.744637
1.46792
1.32955
1.46949
1
1.23338
1
1
1
0.66497
1.00245
0.701103
1
0.661046
0.644005
1
0.663924
1
1
1
1.20861
1
1.47182
1.47249
1.00185
1.22752
1.38745
0.673997
0.771235
0.886162
1
1.47173
1.47179
1.47152
1.47087
1.40234
0.884181
1
1.40434
1
1.4503
1
1
0.996418
1.0111
1
1
1
1.47291
1
0.673927
1
1.47286
0.638849
1
1
1.47079
1
1.47103
0.999865
1
1
1.47278
1.42866
1
1.49104
1
1
1.01488
1
1.19992
1
1
0.656998
1
1
1.47154
0.999999
1.47056
1
1.00003
0.66595
1
1
0.6468
1.00089
1
1.47151
0.65192
1.47236
0.665146
1.47192
1
1
1
1
1
1
1
1
1
1
1
1.45096
1
1.47376
1.47298
0.653512
1
1
1
1
1
1
1.45834
1
1
0.659536
1
1
1.4717
1
1
1.17084
1.3924
0.657235
0.650569
0.689746
0.731622
1
0.996648
0.68994
1.00033
1.42572
0.997015
1
1
1.47101
1
1
1
0.767809
1.00001
1.16801
1
1
1.18987
1.47131
1
0.653755
1
1
1
0.996896
1.00001
1.47003
1.47089
1
0.666583
1
1.24665
0.650415
1
0.888614
1
0.995987
0.636809
1
1
1
0.996182
0.666239
1
0.664273
0.998429
1.24783
1.41964
0.65031
0.656147
1
0.990844
1
0.998676
1
1.47188
1.47034
1
1.01254
1.47115
1.47235
1
1
1.47096
1
1
1.00004
1
1.47799
1
1
1.01822
1
0.998592
0.693529
1
1
1
1
1
1.47602
1.03684
1.00005
1
1
1
1
1
1.00003
1
0.65516
1.09406
0.998591
1.45083
1.47177
1
1.01577
1.47117
1.41027
1
1
0.673303
1.47471
1
1.47253
1
1.47019
1.31762
0.649345
1
0.648135
1.43302
0.999676
1
0.667814
0.680105
1
1
1.39548
1
0.999998
0.652674
1
1
1
1.14673
1
0.65091
1.47166
1
1
1
1
1.47178
1
1
1.47506
1.42132
1
1
1
1.47644
0.650476
1
1.47205
1.4718
1
1.37176
0.999999
1.00003
1
1
1.43152
1.01179
1
0.66076
1.2442
1
1
0.997095
1
1
1.47724
1
1
1.00003
1
1.47282
1
1
1
1
1
1
1.00001
1.19868
1
1.47227
1
1
1.47319
1
1
1
1.47187
1.46796
1.04456
1
0.997596
1
1
1
1
1.47219
1
1
1.47074
0.657001
1
1
1
1
1
1
1.37986
1
1
1.46912
1.4721
1
1
1
1.47227
1.47351
1
0.999659
1.4664
1
1
1
1.00002
0.669386
1.03072
0.996135
0.995848
1
1
0.662368
1.47155
1
0.68075
1
1.4687
1.45137
0.657737
0.999413
1.47157
1.47243
1.47237
1
1
0.924974
1.42362
1.38914
0.687375
1
1
1
1.47453
1.47144
0.662459
0.997366
1
1.47139
0.657806
1
1.46616
0.664916
0.976953
1.0067
1
1.47322
1
1
1
1
1
1
1.00011
1.43824
1
1
1.47709
1
1
1
1.47118
1
0.655269
1
1
1
1.15588
1
1
1
1
1
0.777878
1
0.64839
1
1.4718
1.00007
0.853582
0.862358
1.00002
1.00401
1.2454
1
1
0.657162
1.47192
1.47164
1.47154
1
0.652746
0.64675
1
1.47104
1
1
1
1
1
1.00003
1
0.660687
1.30182
1
1
0.659649
0.986781
1.00001
1
1
1
0.6369
1
0.682846
1
1
1.48117
1
1
0.65641
1
1.47131
1
0.671092
1
0.665237
1
1.00794
1.47151
1.49303
1
1
1.47077
1
1
1.10085
0.996899
1
0.998103
1
1.47371
1
0.679791
1.00002
1.4709
0.998851
1
1
0.796992
1
0.998966
0.652194
1.4728
1.1628
1
1.00001
0.906408
1
1
1
0.790702
1
1
1
1.47122
1
0.64651
0.999999
1
1
1
0.648867
1.47076
1.43255
0.656574
1
1.47632
1
1
1.47124
1.4722
1.39594
0.661625
0.997699
0.999214
1
1.47135
1
1
1
1
1.4719
1.00004
1
1
1.47855
1
1
1.47148
0.655242
1
1
1
0.657817
1
0.999999
0.999999
0.998648
1
1
1
1
1.35349
1
1.47239
1.47097
1.47856
1.47141
1.47272
1.47099
1
1.46969
1
1.47188
1.47149
1
0.998828
0.66438
1.4003
0.999898
1
1
1
1
0.99846
1
1.06829
1
1
1
0.842255
1.47157
1.47021
1.47002
1.3988
0.999876
1
1.02173
1.47339
0.997852
1.06506
0.997079
0.641831
1
1.00002
1
1
1
1
1
1.47183
0.660842
1.47124
1.47117
0.995421
0.632765
1
1
1
1.47125
0.657898
1.4143
0.646454
1.47127
1.46855
0.663897
1.46929
1.0244
1
1.47551
0.80641
1
0.998755
0.652076
1
0.639307
1
1.47092
1.47192
0.730457
1
1.47138
0.638401
1
0.648683
1
1.471
1
1
1.4649
1
0.835262
1
0.999713
0.635564
1.46902
0.99948
1
0.66398
1
1
1
1
1.25775
1
1.47241
1
1
1.48112
1
1
1.47203
1
0.641787
1
0.652252
1.00001
1
1
1
1
1.45029
1.27208
1.47151
1
1.47107
1.43683
0.641989
0.656826
1
1
1.4745
1
0.648977
1
0.98736
1
1
1.47168
1
1.47035
0.651434
1.4801
1
0.657544
1
1
1.46798
1.47005
1
1.00004
1
1.47492
1
1
0.647434
0.999382
0.669142
1
1
1
1.47311
1.47265
1.47165
1
1
0.674289
1
1.47644
1
1
1
1.45827
1.47101
1.4713
0.66098
1.47288
1.47127
0.674373
1.4711
1.00004
0.670131
1.00982
1
1
1.47282
0.647057
1.29883
0.637775
1.47122
0.997497
0.661281
1.47447
1
1
1
1
1.47248
1.47196
0.660273
1
1.00002
0.662236
1.00004
1
0.674559
0.681895
1.32811
1.46724
0.998492
1.47132
1
1.47792
0.811859
0.665467
1.47113
1.48239
1
1.47058
1
1
1.47091
1
1.36096
1.47123
1
1
1
1
1.47122
1.46658
1.47258
1
1
1.47451
1.47138
1.4723
1
1.47103
1
1
1
1
1
0.650527
0.850878
0.652666
1
1
1.47364
1
1
1.47034
0.661083
1
1.47146
1.46672
1.45045
0.652912
1
0.674173
1
1.00003
1.47229
1.21995
1.47191
1.4287
1
0.686347
1
1.47048
1.3317
0.665943
1
1
1
0.816755
1
1
1.48308
1
0.643141
1.47179
1
1
1
1
1
1.37926
1.104
1
1.47089
1
1.47433
1
0.997325
1
1.47085
1.47809
1.46973
1.47617
0.999585
1.47119
1
1.47153
1.47037
1.39666
1
1
0.67644
1.47365
1
1
1.47086
1.47023
1.47431
1
1.47149
1
1
1.00003
1.47674
1.4683
1.13345
1.09646
1.4721
1.47125
0.693256
1
1
1
1
1.00002
1.16045
1
1
1.39141
0.665779
0.999965
1
1.47129
0.999883
0.999827
1.06963
1.42154
1.47392
0.91002
1
0.663996
1
0.997462
1.47121
1.47361
1.47824
0.998944
1
1
0.653611
1
1
1.47114
1.04958
1
1
1
1
1
1
1
0.999939
1.47177
1.00002
1
1
1
1
1.28862
1
1.21815
1
1
1.47127
1.47839
0.676417
0.998794
1
1
1
0.652104
1.47093
1.47136
1
1
1
1
1
1
1
1
1.47209
1.47069
0.685286
1.04967
0.658621
1
0.651253
1
1.47181
1.12291
1
1
0.704722
1
1.44832
0.814637
0.99657
0.660536
1
1
1.47008
1.00004
0.997097
0.635179
1.47134
1.48238
1
1
1
1
1.43855
1
1
1.4718
0.998933
1.47127
1.00009
1
1
0.649656
1
1
1.47351
0.655736
0.789243
0.641042
1.47203
0.999294
1
1.47632
0.653142
0.655971
1.00698
1
1
1.47188
1.00004
1.21933
1
1
1.47224
0.663173
1
1
1.00013
1.47142
1.00013
1.46765
1
1.00003
1
1
0.716762
1
0.794284
1.00002
1
1.47309
0.646913
1
0.78348
0.789826
1
1
1.4716
1
1
1
1.46814
1.47199
1.00005
1.47207
1.4719
0.788206
1.47099
1.44931
1
1
1.47273
0.999999
1
1
1
1
1.47334
1.47217
1
1
1
1.47096
1.00022
1
0.653213
0.725505
1
1.00003
1.16616
1
1
0.899039
0.665867
1
1
1
1.47814
1.42983
1.47166
1
1
1
1
0.66135
1
1.45198
1
1.46713
0.650825
1.46777
1
1
1
0.673622
1
1.4709
1.00003
1
0.658193
1.16326
1
0.999654
1.47198
0.648938
0.656646
1
1.47198
0.649728
0.656414
1
0.646827
0.999998
1
1
1
0.652362
1
1
1
1
1.46964
1
1.3546
0.660256
1
1
1
0.651677
1.47179
1
1
0.996512
1.47417
1
1.47181
1.47098
1
1
0.737019
0.652252
1
1
0.65722
1.14838
1.21325
1
1
1.47297
0.99744
1
0.997707
1.47295
1
1
1
1
1
1
1.47273
1
1.16094
1.14272
0.706525
1.41702
1
1.47257
1.47133
1
1
1
0.911464
0.639895
1
1.22312
0.999638
1.42222
1
1
1
0.999999
1
1.00663
1.20574
1.47226
1.47265
1
1.47101
1
0.673707
1
0.997205
0.999782
1
0.653686
1
0.66213
1.00002
1.47516
1.47115
0.665796
1.47486
0.685949
0.996239
1.35108
0.649074
1.33605
1
1
0.998427
1
1
1
1.00007
1
0.658211
1
1
1
1
0.999592
1.4721
0.805644
1
1
1
1.0371
1
1
1
1.25939
0.761584
1
1
1
1.05357
1.47287
1
0.630275
1
1.47312
0.898844
0.652271
1
0.657186
1
1
1.44494
0.998245
1.45059
1
1.00875
1
1
1.47022
1
1
1
1
1.08774
1
1.47175
1.47346
1.47445
0.649981
1.47105
0.997137
1.38221
1
1
0.653874
1
1
0.663562
1.47092
1
1
0.999955
1
1
1
0.632969
0.661019
1
1.47191
1
1.21038
1.47194
0.667896
1.39606
1
1
0.676323
1
1
1.47194
1.47034
1.16324
1
1
1.00178
1.47264
0.6529
0.671229
1.47275
1.4712
1.31623
1.18334
1
0.899291
1
1
1
1.44437
1.4768
1.47478
1
1
1.47076
0.653601
1.42115
0.638494
1
0.66103
1
0.660021
1.47148
0.646296
1
0.973573
0.68426
1
1
1
0.846598
1.42542
1.47228
1.47188
1.46969
1
1
1.47112
1
1
1.4724
1
0.661407
1
0.655803
1
1.47226
1
1
1.02076
1.35637
1
0.998877
0.656123
1.46972
1.00001
0.631633
1.08599
1
1
1.35232
1.47084
1.47116
1
1.47386
1.12896
1
1.02475
1.47122
1
1
1
1
1.47145
1
0.651907
1.4737
0.664992
0.647178
0.81336
1.47338
1.16039
1.4697
1
1.47126
0.997397
1.00003
1.47161
1.47085
1
1.46982
1
1.47122
1
1.47264
1
1.00004
1.00001
1.474
0.646015
0.652098
0.997884
0.999999
1
1
0.656853
1
1.30952
1
0.652841
1
1.18467
1.47211
1.46795
1
1
1.00003
0.999346
1
1.47128
1.47163
1
1.19078
1.47303
0.840935
1.47102
1.00007
0.662036
1.09848
0.649979
1
1
1.07756
1.47075
1
1
1.04401
0.998625
1
0.655485
1
0.795125
1
1.47223
1
1
0.661554
1.10216
1.06721
0.998521
1.47126
1.47117
0.761824
0.998137
0.65966
0.680886
0.662573
1
1
1
0.999109
0.724894
0.676195
1
1.47118
0.99975
1.47208
1.47266
1.47128
1.47036
1
0.652838
1.47125
0.658853
1
1.47032
1.47643
0.996827
0.812105
1.46998
1.3428
1
0.652669
1
1
1.47247
1
1.02681
1.46952
1
0.647135
0.666183
1
1
0.648377
0.651862
1.47167
1.00006
1
0.63787
0.646973
1.47046
1.44937
1.43943
1.47226
1.12353
0.979507
1.18025
1.47681
1.37116
1
1.24557
1
0.644536
0.86023
1
0.674909
1.47154
1.02278
1.47298
1
1.47221
1.47166
1
1.4715
1.47112
0.644396
1.47659
1
1.4876
1
0.740981
0.657338
1.47173
1
1
1
0.656298
1.47126
1.4722
1
0.640769
1
1
0.676605
1.00004
0.635552
1.47241
1
0.827434
0.654075
1
1
1.27583
1
1
1
1.07613
0.646833
1
1.00001
1
1.47172
0.660642
1
1.47126
0.641534
0.63906
1
1
1.47715
1
1.46897
1.00001
1.47124
0.656106
1
1
0.646368
0.807293
0.658811
1
1
1
1
1.4781
0.659668
1
0.663852
1
1.47625
1
1
0.924219
1
1
0.823738
0.99967
1.00005
1
0.657525
0.637819
1
1
1
1
0.791911
1.47025
1.47192
1
0.667238
0.659334
0.90923
0.65379
1
0.815496
1
0.648196
0.982867
1
1
0.66162
1
1.47282
1.45751
0.65076
1
1
1
1.46534
1
1.04383
0.840379
1.14788
0.663561
1.1866
0.650099
1
1
0.721114
0.908564
1
1.05012
1
1
0.674949
1
0.935217
1.04886
0.666613
1
1.37575
0.750041
0.874625
1
1
1
0.657402
1
0.660757
0.656546
1
0.854267
0.664507
1.0701
0.747591
0.636693
1.47216
1
1.47133
1.25255
0.740306
1.47182
0.673164
0.998989
1.47318
0.999999
1
1.47058
1
0.728548
1
1.06899
1
1
1.47173
1
0.773048
0.82489
1.4716
0.934963
1
0.746329
1.47134
1.47166
0.901812
1
1.47101
1.1213
0.844223
1
1.01644
1
0.646816
1.19894
0.767942
0.755615
1
1
0.647553
1.47052
0.968121
0.66371
0.652545
0.861738
1
1.0239
1.47175
1.47077
1
1
0.999999
0.640563
1.22364
0.999998
1.47443
1.44106
0.66464
0.999993
1.08602
0.872322
1.27006
1.40746
1
1.03741
1
1.00006
0.637339
0.849595
1
1
0.822196
0.637813
1.04247
1
1.00001
0.633983
1.21204
1
1.47225
1
1.04336
1.25381
1
1.46695
1
1
1.47368
1
0.649493
1.47091
0.688223
1.12414
1
0.671604
0.999907
1
1.00003
1
0.780636
1.028
0.66471
1.33625
1.47138
0.632202
1
1
1
1
1
0.969697
0.680991
1.05212
0.66866
0.661076
1.07886
1
0.999802
1.12042
1
1
0.666606
0.990071
1
1
1.13317
1
1.47198
1
1.47033
1.08316
1.01601
0.645299
1
1
0.636362
1
1
1
1
1.4691
1.04369
0.998012
1
0.65922
1.05255
0.999999
1
1.30809
1
0.653341
1.47189
1
1.00001
1
1.4738
0.662571
0.873528
0.650238
1.35359
1.47142
1
1
1.47192
1
0.653727
1
1
1
1
1
0.772503
1
1.47451
1
1
1.15569
1.47226
0.662573
0.871571
1
1.47174
1
1
1
1
1
1.4709
1.4705
0.648338
1.47253
0.645179
1
1
1.4712
1
1.47194
1.00091
1.02897
1.06594
1.47273
1.06605
1.31459
0.635828
1
0.643055
0.983244
1
1.47125
1
1
0.65265
1.47239
1
1.47038
1
1
1
1
1
1.00001
0.682621
1.47227
0.851743
1.47152
1
0.662118
0.673626
0.713611
1.47908
1.46968
0.961483
1
0.794788
1
1.18863
1
1.47341
0.645522
0.650668
0.854502
1
1.47026
1
1.07874
0.685279
1
1.47228
1.42735
0.998859
1
1.47079
0.660942
1.4744
1.47251
1.47705
0.675718
1.0808
1
1
0.650145
1
0.811185
0.827236
1
1.00002
1.47214
1
1.47665
1.08131
1
1.04306
1.47454
1
0.66699
1
0.743595
1
1
1.38778
1
0.785542
1
0.654092
1.0376
0.951644
0.652194
1.47082
1.38167
1.47093
0.66484
0.707735
0.996078
0.999999
1
0.682396
1.44443
0.64741
0.999972
1
1.4716
1.47062
0.893836
1
0.652905
0.714353
1.31182
0.96543
0.654888
0.999999
0.644457
1.11492
0.659315
1
1.00006
0.825407
1.47193
1.472
0.843021
0.999603
1
1
0.710837
1
0.658344
1
0.659743
0.653454
1
1
1.00003
0.662702
1.47087
1
1
1.00006
1.00004
0.635698
1.47213
1.47153
0.999999
0.66731
1.47033
1
1.0847
1
1
1.4697
0.659948
1
1
0.656203
0.739361
0.659711
0.648539
1
0.691906
0.997248
1.09295
0.657356
1
1
1.13215
1
1.41594
1
1
1.3349
0.689429
1
0.653799
1.12959
1.47134
1
1
0.651947
0.676089
0.63604
0.734326
0.660265
1.34944
0.999388
1
1
1
1
1.47053
0.640202
1
0.936963
0.999688
0.998888
0.999931
0.760781
1.12902
1
1.47126
1.47064
1
1
1.45344
1.00004
0.999999
1.47201
0.664955
1.47085
0.999999
0.635876
1.47123
1.00005
1
0.828294
1
0.637309
1
1.47257
1
1
1.47451
1
1
1.46909
1
1
1
1.47213
1
0.753339
0.733653
1
0.633605
1.46956
1
1
0.972076
1
1.47418
1.26261
1.37487
1
1
0.66066
1
0.645539
1.47255
1.47253
1.47354
1
1.47226
0.656846
1
0.647493
1.37642
1.4385
1.4751
1.47235
0.754976
0.651512
1
1.30809
1.47121
1.47192
1.4715
0.758082
1.16377
1
1.35469
0.744942
1
1.00002
1
1.00002
0.894127
1
1.47205
1
1
1
1
1
1
1.00006
1.46772
1
1.47618
1.34777
0.652148
1.47216
1.03379
1.23533
1
1.47218
1
0.649005
1
1
1
1
1.39841
1
0.648964
1.4729
0.6429
1.47178
1.37472
1.24363
1
1.08766
1.21985
0.995549
0.643964
0.76782
1.00002
0.999999
0.92274
1
0.634974
1.471
0.63626
0.93205
0.857723
1
1
1
1.01496
1
1
0.642795
0.997155
1.47163
1
1.47179
1
0.654964
1
1
1.47099
1.47339
0.651265
1
1.4712
1
0.811612
0.648685
1.47236
1.42195
1
1.07946
1.47131
0.998654
1
1.18921
1.4138
1.47187
0.99539
1
0.999998
1.39754
1
1
1
1.47123
0.998488
1
1
1.47077
1
1
0.661944
1
1
1
1.47202
1
1
0.860484
1.14705
1.42591
0.774355
1
1.47177
1
1.15668
1
1.47077
0.997267
1.47133
1
0.658549
1
1.32991
1
1
1.44004
1.00002
1.4711
1
1.4689
0.681107
0.662193
1.47231
1
1.39758
1
1.47133
1
1
1.00005
1.4728
1.4694
1.12215
1.4711
0.995687
0.668354
1.47141
0.86625
1
1.4697
1
1.47015
1
1.47309
1.47111
0.996281
0.645649
1
1.47188
1
1.03611
1
1
0.997931
0.747087
1.42081
1
1.43849
1
0.874883
0.639886
1.47368
1.47121
0.699296
1
1.47188
1.47347
1.47164
0.670048
1.4708
0.663111
1.47148
1.47734
1
1
1.47198
1
1
1
1
0.65785
1
1
1.47181
1.4719
1
1.47161
1
1.4738
1.4703
1
1.39008
1
0.635809
1.47212
1.34492
1.12176
0.644789
1.47212
1
1
0.647758
1
1
1.47143
1
1
0.784995
1
1.47101
1.00009
1.47267
0.654363
1.46981
1
1.47114
1.45317
0.897224
1
1.4709
0.77312
1.47776
1.33253
1.47214
1.46909
0.997232
1.46904
1.47022
1.47117
1.47065
1.00102
1
0.680193
1
1.47182
0.825839
1.42738
1
1.46271
1
1
1
1
1
1.46883
0.648434
0.663891
1.47088
1.4713
1
1
1
1
1
1.46709
1.42299
1.47135
1.0184
1
1
1
1.00003
1.47045
1.4714
1
1.47374
1.47331
0.662693
1.32797
1
1.47096
1.47491
1.4686
0.997756
1.47258
1.47176
1
1.42293
1
1
1
1
1
1
1.47171
1.47193
1.43845
1.47186
0.654632
0.699116
1.47135
1.47138
1
0.642931
0.941766
1
1.2215
0.655837
1
0.999455
0.998294
0.652615
1
1.47197
1
1
1
1.47176
0.942125
1
1.47136
1.47231
1
1.47223
1
1
1.47176
1
0.654474
1
1.46985
1
1
0.673178
1
1.47108
1
0.637232
0.653241
1
1.45793
1
0.635378
0.878179
1
1.4716
1
1
1
1.47628
1
0.670864
1.06246
1.47132
1.47376
1.47139
1.04289
1.47394
1.47149
1
1.00002
1
1
1.00001
1.47163
1
0.999298
1.4769
1
0.640148
1
1.47128
1.22047
1.05143
1.21719
1.06293
1.46348
0.70682
1.47167
1
0.669079
0.997263
1.47186
0.936982
1.47187
1.47185
1.45468
1
1.47051
1.47164
1.47161
1
1.00004
1
1
1.47204
1.33083
1
1
0.65848
0.996706
1
1.47208
1
1.47132
1.47192
1.46931
0.901714
1.47181
1.47214
1.0015
1.22567
1.47211
1.47042
1
1.43427
0.836877
1.4685
0.983062
1.47024
1
1.47119
1.47017
1
0.644121
0.937933
0.715059
1
1.07558
0.996669
1.46948
1
1
0.996926
1
1.23362
1.44191
1
1
1.47252
1
1
1.3319
1.47226
1.4522
1.47166
1.47158
1
1.47149
0.738408
1.4703
1
0.990349
0.667855
1
1
0.751474
1
1.14769
1
1.47312
1
1.46218
1.29303
0.652666
1
1
1
1
1
1.47159
1.01129
1
1.47297
1
1.47156