/*--------------------------------*- C++ -*----------------------------------*\
  =========                 |
  \\      /  F ield         | OpenFOAM: The Open Source CFD Toolbox
   \\    /   O peration     | Website:  https://openfoam.org
    \\  /    A nd           | Version:  12
     \\/     M anipulation  |
\*---------------------------------------------------------------------------*/
FoamFile
{
    format      ascii;
    class       surfaceScalarField;
    location    "15.1";
    object      phi;
}
// * * * * * * * * * * * * * * * * * * * * * * * * * * * * * * * * * * * * * //

dimensions      [1 0 -1 0 0 0 0];

internalField   nonuniform List<scalar> 
19404
(
-0.000135778
1.25306e-07
-0.000135694
1.05027e-07
-0.000136479
1.03147e-07
-0.000138464
2.27439e-07
-0.000139622
2.55097e-07
-0.000140087
2.26287e-07
-0.000140275
1.87792e-07
-0.000140286
1.39127e-07
-0.000140194
1.01832e-07
-0.00013975
8.79014e-08
-0.000138415
1.90296e-07
-0.000137776
2.35424e-07
-0.000137569
2.11986e-07
-0.00013752
1.43343e-07
-0.000138541
1.47266e-07
-0.000140847
2.7009e-07
-0.000142194
1.99397e-07
-0.000142707
1.47921e-07
-0.000142881
1.07785e-07
-0.000142874
7.37156e-08
-0.000142751
8.35742e-08
-0.000141372
1.88057e-07
-0.000139775
3.29554e-07
-0.000139342
3.18829e-07
-0.000139228
2.39674e-07
-0.00013939
1.24996e-07
-0.000141414
1.3694e-07
-0.000143966
1.50618e-07
-0.000145043
1.49882e-07
-0.000145384
1.2377e-07
-0.000145457
1.14648e-07
-0.000145399
1.03511e-07
-0.000144437
1.78377e-07
-0.000142122
3.20992e-07
-0.00014128
3.29274e-07
-0.000141085
2.50421e-07
-0.000141066
1.52386e-07
-0.000142049
1.15015e-07
-0.000145074
1.20739e-07
-0.000147068
1.79753e-07
-0.000147738
1.50321e-07
-0.000147958
1.51714e-07
-0.000147969
9.85587e-08
-0.000147598
8.66806e-08
-0.000145096
1.68117e-07
-0.000143422
2.57357e-07
-0.000142994
2.62638e-07
-0.000142931
2.34925e-07
-0.000143203
1.62993e-07
-0.00014575
2.08926e-07
-0.000148808
2.66778e-07
-0.000150087
2.44373e-07
-0.000150514
2.04381e-07
-0.000150647
1.58632e-07
-0.000150524
5.28253e-08
-0.00014791
4.33007e-08
-0.000145049
1.55715e-07
-0.000144261
1.5337e-07
-0.000144208
1.61217e-07
-0.00014441
6.53535e-08
-0.000147112
2.35493e-07
-0.000151039
2.72353e-07
-0.00015284
3.03668e-07
-0.000153441
3.03924e-07
-0.000153612
2.54364e-07
-0.000153519
1.3964e-07
-0.000150377
7.90082e-08
-0.000145983
8.61732e-08
-0.000144676
3.97092e-08
-0.000144678
6.15958e-09
-0.000145019
-1.09024e-07
-0.000148726
-2.31862e-08
-0.000153743
1.61593e-07
-0.000155927
3.49895e-07
-0.000156557
4.27789e-07
-0.000156737
4.267e-07
-0.000156551
1.82358e-07
-0.000151969
4.75507e-08
-0.000145388
-1.0005e-07
-0.000143287
-1.21601e-07
-0.000143347
-2.57231e-07
-0.000144402
-5.41579e-07
-0.000150825
-3.46791e-07
-0.000156543
-5.95232e-08
-0.000158519
2.46439e-07
-0.00015919
5.22625e-07
-0.000159432
5.66996e-07
-0.000157666
4.09956e-07
-0.000147677
1.53063e-07
-0.000138488
-4.5339e-07
-0.000135871
-9.67983e-07
-0.000135915
-1.38426e-06
-0.000141587
-1.83884e-06
-0.000152446
-1.90449e-06
-0.000156216
-2.54912e-06
-0.000155791
-3.75549e-06
-0.000150018
-4.82742e-06
-0.000103563
-2.7375e-05
2.63909e-05
-0.0001364
2.62824e-07
-0.00013632
2.79803e-07
-0.000137207
2.29887e-07
-0.000139414
3.7762e-07
-0.000140564
4.41533e-07
-0.000140937
4.08416e-07
-0.000141019
3.58032e-07
-0.000140982
3.30398e-07
-0.000140839
2.75629e-07
-0.000140259
2.25004e-07
-0.000138986
3.68105e-07
-0.00013835
4.21973e-07
-0.000138123
3.88236e-07
-0.000138082
3.09129e-07
-0.000139318
2.76052e-07
-0.000141839
4.38828e-07
-0.000143079
2.89924e-07
-0.00014343
2.69076e-07
-0.000143487
2.71256e-07
-0.000143434
2.89627e-07
-0.000143123
2.76134e-07
-0.000141619
3.90266e-07
-0.000140272
5.47385e-07
-0.000139879
5.26812e-07
-0.000139756
3.86742e-07
-0.00013996
2.49417e-07
-0.000142207
2.19621e-07
-0.000144759
2.36887e-07
-0.000145678
2.78983e-07
-0.000145913
3.00834e-07
-0.000145925
3.39659e-07
-0.00014579
3.44137e-07
-0.000144632
4.08041e-07
-0.000142505
5.38177e-07
-0.000141712
5.2634e-07
-0.000141526
4.05778e-07
-0.00014151
2.7774e-07
-0.000142518
1.77558e-07
-0.00014575
2.12808e-07
-0.000147683
3.13678e-07
-0.000148269
3.25494e-07
-0.000148415
3.57489e-07
-0.000148417
3.31657e-07
-0.000147902
3.15677e-07
-0.000145362
3.8176e-07
-0.000143641
4.58404e-07
-0.000143157
4.4121e-07
-0.000143067
3.8432e-07
-0.000143324
2.81776e-07
-0.000146092
2.88931e-07
-0.000149357
3.85341e-07
-0.000150641
4.133e-07
-0.000151019
3.92352e-07
-0.000151103
3.45184e-07
-0.000150917
2.39643e-07
-0.00014821
2.38225e-07
-0.000145183
3.49657e-07
-0.000144279
3.2674e-07
-0.000144171
3.06871e-07
-0.000144332
1.85966e-07
-0.000146898
2.30466e-07
-0.000151184
3.89978e-07
-0.000153158
5.25836e-07
-0.000153765
5.52429e-07
-0.000153908
4.8643e-07
-0.000153813
3.50389e-07
-0.000150828
2.6923e-07
-0.000146232
2.10152e-07
-0.000144688
9.65275e-08
-0.000144549
1.62319e-09
-0.00014472
-1.42828e-07
-0.000147513
-2.05444e-07
-0.000152824
1.58852e-07
-0.000155537
5.56514e-07
-0.00015649
6.77881e-07
-0.000156719
5.70208e-07
-0.000156602
3.86676e-07
-0.000152444
2.5985e-07
-0.00014568
-2.78216e-08
-0.000143126
-3.72986e-07
-0.000142855
-6.47661e-07
-0.000143207
-9.4356e-07
-0.000147743
-1.03929e-06
-0.000154163
-2.59741e-07
-0.000157107
4.51392e-07
-0.000158096
6.28513e-07
-0.000158336
5.49303e-07
-0.000157358
4.07025e-07
-0.000149005
2.3468e-07
-0.000139266
-1.10621e-06
-0.000134506
-2.31353e-06
-0.000134348
-3.45735e-06
-0.000136257
-4.0707e-06
-0.000143595
-4.39044e-06
-0.000146287
-5.6714e-06
-0.000145818
-8.01373e-06
-0.000141863
-8.96947e-06
-0.000120497
-3.18657e-05
3.48041e-05
-0.000136127
4.12101e-07
-0.000136038
4.28588e-07
-0.000137101
3.80716e-07
-0.000139461
5.27667e-07
-0.000140493
6.1591e-07
-0.00014077
6.01787e-07
-0.000140808
5.55239e-07
-0.000140718
5.15911e-07
-0.000140536
4.3567e-07
-0.000139778
4.13779e-07
-0.000138542
5.22786e-07
-0.00013804
5.72198e-07
-0.000137857
5.04487e-07
-0.000137872
4.20207e-07
-0.000139604
3.77019e-07
-0.000142018
4.77651e-07
-0.000142836
5.62426e-07
-0.000143069
5.76882e-07
-0.000143079
5.79507e-07
-0.00014296
5.44631e-07
-0.000142522
4.84419e-07
-0.000141041
5.40724e-07
-0.000140048
5.96783e-07
-0.000139722
5.60307e-07
-0.000139637
4.55569e-07
-0.000139852
2.91925e-07
-0.000142218
3.08266e-07
-0.000144468
4.41809e-07
-0.000145192
5.57369e-07
-0.000145389
6.45623e-07
-0.00014537
6.6785e-07
-0.000145232
6.20006e-07
-0.000144058
5.71591e-07
-0.00014217
5.65362e-07
-0.000141454
5.42447e-07
-0.000141279
4.46514e-07
-0.000141246
3.15168e-07
-0.000142205
1.98812e-07
-0.000145374
3.34112e-07
-0.000147179
5.67455e-07
-0.000147717
6.55599e-07
-0.000147844
6.95228e-07
-0.000147834
6.60455e-07
-0.000147266
5.76856e-07
-0.000144649
5.54871e-07
-0.000142951
5.43777e-07
-0.000142516
4.55226e-07
-0.000142468
3.68018e-07
-0.000142725
2.15933e-07
-0.000145571
2.16236e-07
-0.000148942
4.46237e-07
-0.000150127
6.06329e-07
-0.000150427
6.69603e-07
-0.00015047
6.49036e-07
-0.00015021
6.07886e-07
-0.000147442
6.01544e-07
-0.000144296
5.42711e-07
-0.00014335
3.61558e-07
-0.000143218
2.45575e-07
-0.000143302
7.66983e-08
-0.000145333
-3.77651e-09
-0.000150028
2.87154e-07
-0.000152281
7.09762e-07
-0.000152835
8.14331e-07
-0.000152955
7.92087e-07
-0.000152906
7.16688e-07
-0.000150359
6.30438e-07
-0.000145499
3.97874e-07
-0.000143449
2.82838e-08
-0.000143052
-1.94405e-07
-0.000143138
-3.05835e-07
-0.000144709
-4.98579e-07
-0.000150445
-1.91044e-07
-0.000153869
5.56616e-07
-0.000154757
8.38849e-07
-0.000154948
9.00857e-07
-0.000154934
8.07024e-07
-0.000151928
6.39589e-07
-0.000144944
6.92611e-08
-0.000141274
-8.48248e-07
-0.000140549
-1.2972e-06
-0.000140586
-1.48399e-06
-0.000142906
-1.75814e-06
-0.000150262
-1.22116e-06
-0.000154562
4.12483e-08
-0.00015558
5.47015e-07
-0.000155779
6.73867e-07
-0.000155205
5.36906e-07
-0.000148754
2.56264e-07
-0.000139166
-9.09524e-07
-0.000133126
-3.18869e-06
-0.000131823
-5.08868e-06
-0.000132178
-6.03871e-06
-0.000136932
-6.96132e-06
-0.000140676
-8.81589e-06
-0.00014071
-1.18834e-05
-0.000139075
-1.30808e-05
-0.000124305
-3.24328e-05
4.008e-05
-0.000135619
5.18664e-07
-0.000135546
5.51645e-07
-0.00013666
5.20136e-07
-0.000139065
6.64509e-07
-0.000140097
7.97655e-07
-0.000140373
8.0496e-07
-0.000140413
7.69193e-07
-0.000140313
6.96585e-07
-0.000140097
6.13652e-07
-0.000139
5.8486e-07
-0.000137919
6.52989e-07
-0.000137493
6.21142e-07
-0.000137343
5.71481e-07
-0.000137358
4.78573e-07
-0.000139092
4.87881e-07
-0.000141364
6.62487e-07
-0.000142213
8.43317e-07
-0.000142446
8.65384e-07
-0.000142447
8.23688e-07
-0.000142356
7.52714e-07
-0.000141807
6.56998e-07
-0.000140315
6.10543e-07
-0.000139557
5.69874e-07
-0.000139258
5.32635e-07
-0.000139123
4.73429e-07
-0.000139281
3.87105e-07
-0.000141354
4.49135e-07
-0.00014343
7.45061e-07
-0.000144231
9.29383e-07
-0.000144494
9.60751e-07
-0.000144501
8.94755e-07
-0.000144421
8.15366e-07
-0.000143352
6.77817e-07
-0.000141623
5.53871e-07
-0.000140883
4.56031e-07
-0.000140606
4.12133e-07
-0.00014053
3.61884e-07
-0.00014112
2.89615e-07
-0.000144028
4.90194e-07
-0.000145937
8.62519e-07
-0.000146571
1.03146e-06
-0.000146744
1.01359e-06
-0.000146759
9.40324e-07
-0.000146324
7.99717e-07
-0.000143708
6.82487e-07
-0.00014196
5.16368e-07
-0.000141559
3.29366e-07
-0.0001415
2.14352e-07
-0.00014163
7.99294e-08
-0.000144054
1.0426e-07
-0.000147469
5.36456e-07
-0.000148667
9.28763e-07
-0.000148946
1.07826e-06
-0.000148992
1.08322e-06
-0.000148768
1.01073e-06
-0.00014633
8.81977e-07
-0.000143107
6.05837e-07
-0.000142053
1.32219e-07
-0.000141868
-5.46335e-08
-0.000141925
-1.31769e-07
-0.000143119
-2.43533e-07
-0.000147642
6.77962e-08
-0.000150222
7.76425e-07
-0.000150828
1.13947e-06
-0.000150981
1.22076e-06
-0.000150952
1.15258e-06
-0.000149176
9.8434e-07
-0.000144207
6.02843e-07
-0.000141529
-1.20117e-07
-0.000140959
-6.05698e-07
-0.000140985
-6.96462e-07
-0.000141596
-8.0976e-07
-0.000146387
-6.40092e-07
-0.000150588
2.66373e-07
-0.000151745
9.70365e-07
-0.000152025
1.18174e-06
-0.000152127
1.10964e-06
-0.000150816
8.97919e-07
-0.000144351
2.87821e-07
-0.000139049
-8.95311e-07
-0.000137673
-1.87393e-06
-0.000137665
-2.29075e-06
-0.000138159
-2.51223e-06
-0.000143191
-2.48238e-06
-0.000148688
-1.27931e-06
-0.000150615
1.74186e-08
-0.000151077
5.18103e-07
-0.00015116
4.8796e-07
-0.000147744
2.15172e-07
-0.000138902
-9.9644e-07
-0.000131556
-3.59689e-06
-0.000128124
-6.34783e-06
-0.000127537
-8.23131e-06
-0.000128606
-9.08064e-06
-0.000132487
-1.13595e-05
-0.000134198
-1.46004e-05
-0.000134639
-1.59672e-05
-0.000127638
-2.9384e-05
4.25654e-05
-0.000134797
6.00554e-07
-0.000134725
6.09771e-07
-0.000135849
5.94961e-07
-0.000138369
7.92113e-07
-0.000139453
9.88322e-07
-0.000139702
1.00744e-06
-0.000139697
9.60825e-07
-0.000139584
8.76949e-07
-0.000139298
8.03008e-07
-0.000138004
7.45515e-07
-0.000136935
7.28797e-07
-0.000136542
6.69422e-07
-0.000136364
5.97434e-07
-0.000136353
5.3342e-07
-0.000137836
5.32045e-07
-0.000140321
8.31004e-07
-0.000141275
1.06817e-06
-0.000141539
1.11185e-06
-0.000141565
1.03564e-06
-0.000141486
9.3752e-07
-0.000140964
8.09468e-07
-0.000139348
7.25666e-07
-0.000138458
6.09174e-07
-0.000138076
5.36727e-07
-0.000137906
5.10079e-07
-0.000137916
4.79763e-07
-0.000139609
5.19949e-07
-0.000142094
9.10111e-07
-0.00014307
1.18189e-06
-0.000143347
1.17588e-06
-0.00014341
1.08535e-06
-0.000143352
9.53941e-07
-0.000142502
7.96915e-07
-0.000140478
6.52006e-07
-0.000139514
4.67794e-07
-0.000139115
4.10188e-07
-0.000138992
4.21713e-07
-0.000139186
3.82292e-07
-0.000141805
5.25417e-07
-0.000144361
9.95678e-07
-0.000145148
1.25663e-06
-0.000145336
1.25486e-06
-0.000145339
1.14303e-06
-0.000145063
9.90025e-07
-0.000142722
8.54596e-07
-0.000140612
4.87744e-07
-0.000139984
2.07111e-07
-0.000139769
9.42668e-08
-0.000139762
6.92465e-08
-0.000141067
6.46523e-08
-0.000144707
5.2439e-07
-0.000146471
1.14544e-06
-0.000146928
1.36414e-06
-0.000147048
1.36718e-06
-0.000147003
1.24133e-06
-0.000145516
1.08109e-06
-0.000142032
6.54612e-07
-0.000140426
6.32139e-09
-0.000139946
-3.11018e-07
-0.000139827
-3.0312e-07
-0.000140112
-2.92657e-07
-0.000143535
-8.22432e-08
-0.000147092
7.15211e-07
-0.000148218
1.31507e-06
-0.000148505
1.44495e-06
-0.000148561
1.35972e-06
-0.000147987
1.19996e-06
-0.000143741
8.04869e-07
-0.00013965
-1.91191e-07
-0.000138505
-8.09829e-07
-0.000138299
-1.08957e-06
-0.000138428
-1.11022e-06
-0.000141179
-1.05952e-06
-0.000146571
-2.29431e-07
-0.000148731
8.92226e-07
-0.000149168
1.33803e-06
-0.000149269
1.33004e-06
-0.000149028
1.10754e-06
-0.000144663
6.87613e-07
-0.000137868
-7.84037e-07
-0.000134759
-2.07071e-06
-0.0001344
-2.90327e-06
-0.000134464
-3.33993e-06
-0.000136491
-3.5567e-06
-0.000142517
-2.93036e-06
-0.000146316
-1.35708e-06
-0.000147401
-2.98157e-07
-0.000147641
3.26753e-08
-0.00014665
-3.82037e-09
-0.000140304
-6.88257e-07
-0.000132453
-3.45752e-06
-0.000126746
-6.4393e-06
-0.000124829
-8.83765e-06
-0.000124993
-1.11833e-05
-0.000128587
-1.27975e-05
-0.000131814
-1.61329e-05
-0.000133521
-1.77494e-05
-0.000128905
-2.68061e-05
4.43472e-05
-0.000133816
6.55735e-07
-0.000133725
6.58096e-07
-0.000134696
6.23961e-07
-0.000137332
8.52775e-07
-0.000138525
1.13923e-06
-0.000138788
1.2035e-06
-0.000138787
1.15906e-06
-0.000138674
1.06709e-06
-0.000138387
9.80733e-07
-0.000137122
9.14631e-07
-0.00013596
8.14619e-07
-0.000135464
7.04505e-07
-0.000135246
6.60854e-07
-0.00013514
6.131e-07
-0.000136122
5.82115e-07
-0.000138922
8.70452e-07
-0.000140191
1.22664e-06
-0.000140452
1.30605e-06
-0.000140452
1.2213e-06
-0.000140375
1.11872e-06
-0.000140001
9.86403e-07
-0.00013838
8.86154e-07
-0.000137186
6.77145e-07
-0.000136673
5.30868e-07
-0.000136444
5.28762e-07
-0.000136377
5.42291e-07
-0.00013754
5.67934e-07
-0.00014055
9.10696e-07
-0.000141852
1.3068e-06
-0.000142128
1.35486e-06
-0.000142145
1.25925e-06
-0.000142091
1.11776e-06
-0.000141497
9.82473e-07
-0.000139249
8.05911e-07
-0.00013795
5.61268e-07
-0.000137465
3.85087e-07
-0.000137279
3.9612e-07
-0.000137304
4.07599e-07
-0.0001393
5.09314e-07
-0.00014253
9.54261e-07
-0.000143632
1.35647e-06
-0.000143836
1.4337e-06
-0.000143852
1.36678e-06
-0.000143729
1.23715e-06
-0.000142022
1.04683e-06
-0.000139349
5.57076e-07
-0.000138248
2.06009e-07
-0.000137835
5.22077e-09
-0.000137752
7.00381e-08
-0.000138213
8.64284e-08
-0.000141615
3.68569e-07
-0.000144316
1.0932e-06
-0.000145125
1.46693e-06
-0.000145329
1.49606e-06
-0.000145373
1.39187e-06
-0.000144939
1.21261e-06
-0.000141765
8.35676e-07
-0.00013871
3.80493e-08
-0.000137709
-2.55625e-07
-0.000137428
-3.7091e-07
-0.000137465
-3.34125e-07
-0.000139479
-2.3685e-07
-0.000144014
3.87319e-07
-0.000146004
1.21443e-06
-0.000146501
1.50565e-06
-0.000146655
1.48365e-06
-0.00014662
1.25601e-06
-0.000144197
9.8707e-07
-0.000138973
9.03151e-08
-0.000136362
-7.82846e-07
-0.000135881
-1.24322e-06
-0.000135866
-1.38937e-06
-0.000136736
-1.45375e-06
-0.000141811
-1.03274e-06
-0.000145998
3.51016e-07
-0.000147168
1.31231e-06
-0.000147384
1.51571e-06
-0.000147432
1.37147e-06
-0.000145357
1.09301e-06
-0.000138719
-3.88698e-09
-0.000133769
-2.01853e-06
-0.000132088
-3.10517e-06
-0.000131932
-3.95023e-06
-0.000132261
-4.27634e-06
-0.000135933
-4.31432e-06
-0.000141154
-3.27328e-06
-0.000143627
-1.84983e-06
-0.000144388
-1.1045e-06
-0.000144608
-9.92874e-07
-0.000142415
-6.94422e-07
-0.00013561
-2.66061e-06
-0.000128915
-5.78291e-06
-0.000124472
-9.12104e-06
-0.000123468
-1.14343e-05
-0.000125112
-1.38972e-05
-0.000129392
-1.68308e-05
-0.000132136
-1.89452e-05
-0.00013016
-2.38877e-05
4.56601e-05
-0.000132859
7.17116e-07
-0.000132739
7.18564e-07
-0.000133402
6.76799e-07
-0.000136088
8.63267e-07
-0.000137532
1.2491e-06
-0.000137817
1.35332e-06
-0.000137815
1.33538e-06
-0.00013773
1.26018e-06
-0.000137477
1.14004e-06
-0.000136292
1.04244e-06
-0.00013497
9.06449e-07
-0.00013439
7.86669e-07
-0.000134113
7.08661e-07
-0.000133998
7.01105e-07
-0.000134441
6.66428e-07
-0.000137257
8.50962e-07
-0.000139062
1.26663e-06
-0.000139435
1.43208e-06
-0.00013945
1.3996e-06
-0.000139355
1.30967e-06
-0.000139113
1.21318e-06
-0.000137613
1.04927e-06
-0.000135896
8.22805e-07
-0.000135238
6.3573e-07
-0.000134981
5.59604e-07
-0.000134902
5.56462e-07
-0.000135582
5.66995e-07
-0.000138762
8.26422e-07
-0.000140656
1.29063e-06
-0.000141062
1.46394e-06
-0.000141085
1.43078e-06
-0.000141024
1.33943e-06
-0.000140646
1.22222e-06
-0.000138535
1.05107e-06
-0.000136466
6.96336e-07
-0.000135818
4.75324e-07
-0.000135611
3.88907e-07
-0.000135628
3.98766e-07
-0.000136985
4.43917e-07
-0.000140497
8.27363e-07
-0.000142158
1.34774e-06
-0.000142559
1.53426e-06
-0.000142624
1.51664e-06
-0.000142617
1.42654e-06
-0.000141911
1.25079e-06
-0.000138936
8.95946e-07
-0.000136706
3.76083e-07
-0.000136045
1.57767e-07
-0.000135862
8.73648e-08
-0.000135987
9.48228e-08
-0.000138558
2.2089e-07
-0.000142284
8.3204e-07
-0.000143653
1.40915e-06
-0.000143992
1.54105e-06
-0.00014406
1.45901e-06
-0.000144005
1.25473e-06
-0.000142112
1.05632e-06
-0.000137943
4.32012e-07
-0.000135865
1.02198e-08
-0.000135465
-2.88993e-07
-0.00013545
-4.26469e-07
-0.000136281
-4.8454e-07
-0.000140807
-1.17196e-07
-0.000144277
9.05185e-07
-0.000145195
1.52339e-06
-0.000145316
1.56439e-06
-0.000145376
1.41286e-06
-0.000144547
1.15346e-06
-0.000139584
6.80073e-07
-0.000135445
-7.08356e-07
-0.000134058
-1.23744e-06
-0.000133961
-1.59442e-06
-0.000134075
-1.7856e-06
-0.000136737
-1.78294e-06
-0.000142676
-8.0752e-07
-0.000145571
7.71065e-07
-0.000146194
1.4423e-06
-0.00014634
1.51804e-06
-0.000145965
1.33522e-06
-0.000141525
9.39504e-07
-0.000134961
-9.50522e-07
-0.000131216
-3.15898e-06
-0.000130207
-4.0973e-06
-0.000130213
-4.70302e-06
-0.000131257
-5.1804e-06
-0.000135842
-5.06616e-06
-0.000140103
-3.86356e-06
-0.000142187
-2.76161e-06
-0.000142986
-2.34375e-06
-0.00014285
-2.31127e-06
-0.000139659
-2.41625e-06
-0.000133324
-4.80934e-06
-0.000127079
-8.36859e-06
-0.000123295
-1.17427e-05
-0.000123253
-1.38448e-05
-0.000126987
-1.72197e-05
-0.000130496
-2.03874e-05
-0.000131358
-2.12541e-05
4.65976e-05
-0.000131998
7.88872e-07
-0.000131851
7.88102e-07
-0.000132199
7.12413e-07
-0.000134792
8.42443e-07
-0.000136657
1.27767e-06
-0.000137073
1.49842e-06
-0.000137075
1.50625e-06
-0.000136961
1.44024e-06
-0.000136767
1.33965e-06
-0.000135823
1.21192e-06
-0.000134149
1.02433e-06
-0.000133373
9.15308e-07
-0.000133071
7.84952e-07
-0.00013295
7.52397e-07
-0.000133174
6.86926e-07
-0.000135641
8.00717e-07
-0.000138016
1.22393e-06
-0.000138665
1.51207e-06
-0.000138748
1.55128e-06
-0.000138682
1.49967e-06
-0.000138515
1.40492e-06
-0.000137486
1.29355e-06
-0.000135173
1.00584e-06
-0.000134071
8.21609e-07
-0.000133748
6.68171e-07
-0.000133646
6.11046e-07
-0.000134063
5.50991e-07
-0.000137008
7.11028e-07
-0.000139523
1.18838e-06
-0.000140198
1.49185e-06
-0.000140299
1.54958e-06
-0.000140252
1.50624e-06
-0.000140096
1.42873e-06
-0.000138575
1.29241e-06
-0.000135806
9.01521e-07
-0.000134599
6.65226e-07
-0.000134337
5.13557e-07
-0.000134281
4.33749e-07
-0.000135146
3.81205e-07
-0.000138655
6.37624e-07
-0.000140962
1.23491e-06
-0.000141592
1.56715e-06
-0.000141719
1.58491e-06
-0.00014171
1.50782e-06
-0.000141533
1.37698e-06
-0.000139162
1.18582e-06
-0.000135882
5.91794e-07
-0.000134679
3.94984e-07
-0.000134474
1.9369e-07
-0.000134492
7.95089e-08
-0.000136075
4.01786e-08
-0.000140477
4.45548e-07
-0.000142717
1.25808e-06
-0.000143167
1.56334e-06
-0.000143229
1.56924e-06
-0.000143249
1.43438e-06
-0.000142329
1.2897e-06
-0.000138077
9.6985e-07
-0.000134988
6.8129e-08
-0.000134152
-2.28775e-07
-0.000134143
-5.03087e-07
-0.000134347
-6.77172e-07
-0.000137386
-6.54601e-07
-0.000142446
2.45708e-07
-0.000144351
1.36604e-06
-0.000144654
1.69762e-06
-0.000144701
1.66342e-06
-0.000144488
1.47594e-06
-0.000141109
1.20199e-06
-0.000135806
6.26142e-08
-0.000133264
-1.27972e-06
-0.000132608
-1.91036e-06
-0.000132633
-2.06513e-06
-0.000133167
-2.28666e-06
-0.000137845
-2.11793e-06
-0.00014319
-6.35245e-07
-0.000145145
8.98662e-07
-0.00014557
1.39615e-06
-0.000145709
1.38521e-06
-0.000144462
1.23436e-06
-0.000138025
5.79403e-07
-0.000132151
-1.75302e-06
-0.000129596
-3.95674e-06
-0.000129159
-4.8357e-06
-0.000129256
-5.72897e-06
-0.000131222
-6.16663e-06
-0.000135764
-5.7951e-06
-0.000138948
-4.70181e-06
-0.000140562
-3.96625e-06
-0.000141199
-3.85785e-06
-0.00014071
-3.74849e-06
-0.000137534
-4.78051e-06
-0.000131994
-7.33066e-06
-0.000125837
-1.10807e-05
-0.000122406
-1.4188e-05
-0.000124024
-1.68462e-05
-0.000128518
-2.27044e-05
-0.000133257
-2.04151e-05
4.6994e-05
-0.00013144
8.77171e-07
-0.000131262
8.73782e-07
-0.000131316
7.80328e-07
-0.000133406
8.17817e-07
-0.000135867
1.23905e-06
-0.000136556
1.57055e-06
-0.000136625
1.63207e-06
-0.000136529
1.59268e-06
-0.000136373
1.53145e-06
-0.00013577
1.43505e-06
-0.000133969
1.25514e-06
-0.000132768
9.78031e-07
-0.000132367
8.94483e-07
-0.000132199
8.14128e-07
-0.000132236
7.21292e-07
-0.000134197
7.71737e-07
-0.000137017
1.15275e-06
-0.000137978
1.51817e-06
-0.00013815
1.61285e-06
-0.000138117
1.60864e-06
-0.000138016
1.56577e-06
-0.000137463
1.47958e-06
-0.000135157
1.321e-06
-0.0001335
9.316e-07
-0.000133043
8.25811e-07
-0.000132921
7.15446e-07
-0.000133038
5.91885e-07
-0.0001354
6.43526e-07
-0.000138387
1.06418e-06
-0.00013937
1.46773e-06
-0.000139595
1.62027e-06
-0.000139587
1.59313e-06
-0.00013951
1.57187e-06
-0.000138735
1.46101e-06
-0.000135876
1.26205e-06
-0.000134081
7.528e-07
-0.000133597
6.28089e-07
-0.000133515
5.00827e-07
-0.00013377
3.77285e-07
-0.00013679
4.85345e-07
-0.000139947
1.05702e-06
-0.000140905
1.57207e-06
-0.000141111
1.68276e-06
-0.000141135
1.64237e-06
-0.000141068
1.54471e-06
-0.000139529
1.42207e-06
-0.000135856
1.07444e-06
-0.000134035
4.226e-07
-0.000133666
2.34584e-07
-0.000133673
3.81727e-08
-0.000134266
-1.10919e-07
-0.000138348
4.90838e-08
-0.000141789
9.50297e-07
-0.000142643
1.62531e-06
-0.000142767
1.76985e-06
-0.000142774
1.72282e-06
-0.000142339
1.62169e-06
-0.000138961
1.37174e-06
-0.00013511
5.12616e-07
-0.000133658
-2.82372e-07
-0.000133385
-7.1388e-07
-0.000133429
-8.20191e-07
-0.000134374
-9.64765e-07
-0.000139436
-6.13458e-07
-0.000143254
8.19877e-07
-0.00014417
1.75773e-06
-0.000144248
1.9069e-06
-0.000144279
1.8178e-06
-0.000143041
1.70786e-06
-0.000137779
1.08268e-06
-0.000133522
-7.04824e-07
-0.000131889
-1.93498e-06
-0.000131735
-2.46499e-06
-0.000131788
-2.71028e-06
-0.000133298
-2.9908e-06
-0.000139218
-2.41559e-06
-0.000143554
-3.66765e-07
-0.000144831
9.46825e-07
-0.000145036
1.33698e-06
-0.000144987
1.44437e-06
-0.000142421
1.24123e-06
-0.000135769
9.38775e-09
-0.000130932
-2.76674e-06
-0.000128842
-4.91352e-06
-0.000128533
-5.84262e-06
-0.000128771
-6.72581e-06
-0.000131425
-7.05811e-06
-0.000135567
-6.48869e-06
-0.000138113
-5.58296e-06
-0.000139464
-5.25904e-06
-0.000139738
-5.49223e-06
-0.000138966
-5.51525e-06
-0.000135986
-7.46217e-06
-0.000131032
-1.01462e-05
-0.000125091
-1.34419e-05
-0.000122015
-1.60856e-05
-0.000125745
-2.26653e-05
-0.000134697
-1.95643e-05
4.72115e-05
-0.000131221
9.83745e-07
-0.000130998
9.59966e-07
-0.0001309
8.61327e-07
-0.000132193
8.358e-07
-0.000135011
1.17288e-06
-0.000136103
1.55681e-06
-0.000136314
1.70796e-06
-0.000136267
1.70362e-06
-0.000136119
1.67225e-06
-0.000135764
1.60696e-06
-0.000134148
1.49276e-06
-0.000132636
1.17355e-06
-0.000132056
9.87824e-07
-0.000131843
9.01354e-07
-0.000131775
7.92726e-07
-0.000133049
7.72009e-07
-0.000136052
1.0618e-06
-0.000137392
1.51291e-06
-0.000137724
1.66739e-06
-0.000137745
1.68085e-06
-0.000137659
1.68354e-06
-0.000137379
1.6119e-06
-0.000135472
1.52149e-06
-0.000133433
1.19145e-06
-0.000132762
9.17635e-07
-0.000132581
7.98082e-07
-0.000132568
6.66841e-07
-0.00013405
6.05471e-07
-0.000137337
9.65831e-07
-0.000138741
1.48055e-06
-0.000139089
1.70891e-06
-0.000139163
1.71884e-06
-0.000139092
1.68309e-06
-0.00013879
1.62714e-06
-0.000136333
1.46814e-06
-0.000134035
1.03282e-06
-0.000133303
6.66825e-07
-0.00013315
5.30953e-07
-0.000133168
3.91044e-07
-0.00013493
3.52004e-07
-0.000138845
8.33912e-07
-0.000140417
1.56978e-06
-0.000140725
1.83221e-06
-0.000140755
1.83587e-06
-0.000140716
1.76829e-06
-0.000139923
1.66316e-06
-0.000136383
1.37718e-06
-0.000134058
6.73767e-07
-0.000133427
2.13503e-07
-0.000133324
-7.23656e-08
-0.000133401
-2.05545e-07
-0.000135679
-2.50794e-07
-0.000140273
4.88265e-07
-0.000142016
1.57342e-06
-0.000142309
1.99936e-06
-0.000142374
2.0475e-06
-0.000142332
1.90948e-06
-0.000140653
1.76462e-06
-0.000136205
1.06725e-06
-0.000133741
-1.26954e-07
-0.000132932
-7.33097e-07
-0.000132783
-1.04125e-06
-0.000132895
-1.15465e-06
-0.000135411
-1.2582e-06
-0.000140961
-2.58249e-07
-0.000143471
1.40326e-06
-0.000144075
2.13373e-06
-0.000144149
2.17028e-06
-0.000144053
2.05288e-06
-0.000141032
1.97697e-06
-0.000135123
5.52462e-07
-0.000132183
-1.51716e-06
-0.000131268
-2.55192e-06
-0.000131108
-3.20473e-06
-0.000131225
-3.30844e-06
-0.000133674
-3.47071e-06
-0.000139628
-2.43181e-06
-0.000142901
-2.85075e-07
-0.000143905
9.10978e-07
-0.000144133
1.24241e-06
-0.000144057
1.24855e-06
-0.000141072
5.2085e-07
-0.000134468
-7.53613e-07
-0.00013003
-3.66285e-06
-0.000128177
-5.89533e-06
-0.000127972
-6.82343e-06
-0.00012838
-7.669e-06
-0.000131453
-7.85985e-06
-0.000135057
-7.18133e-06
-0.000137129
-6.60566e-06
-0.00013841
-6.66583e-06
-0.000138632
-7.11747e-06
-0.000137662
-7.70821e-06
-0.000134955
-9.98081e-06
-0.000130248
-1.25885e-05
-0.000124972
-1.55961e-05
-0.000123718
-2.22675e-05
-0.000135201
-2.02381e-05
4.78221e-05
-0.00013115
1.10241e-06
-0.000130886
1.06365e-06
-0.000130747
9.72028e-07
-0.000131397
8.87802e-07
-0.000134137
1.12903e-06
-0.000135692
1.54725e-06
-0.000136073
1.74736e-06
-0.000136103
1.78099e-06
-0.000136003
1.78873e-06
-0.000135812
1.73649e-06
-0.000134648
1.65696e-06
-0.00013271
1.3957e-06
-0.000131941
1.09166e-06
-0.000131664
9.95541e-07
-0.000131558
8.93422e-07
-0.000132216
7.91787e-07
-0.000135201
1.01144e-06
-0.00013692
1.4944e-06
-0.000137382
1.76391e-06
-0.00013749
1.811e-06
-0.000137421
1.78386e-06
-0.000137282
1.73767e-06
-0.000135957
1.63107e-06
-0.000133606
1.38289e-06
-0.000132727
1.01738e-06
-0.000132461
8.65108e-07
-0.000132381
7.41776e-07
-0.000132991
6.14658e-07
-0.000136206
8.32626e-07
-0.000138282
1.50363e-06
-0.000138779
1.8323e-06
-0.000138903
1.91181e-06
-0.000138886
1.84972e-06
-0.000138745
1.75901e-06
-0.000137071
1.63989e-06
-0.000134261
1.22867e-06
-0.000133249
7.60936e-07
-0.000132946
5.36301e-07
-0.000132899
4.15774e-07
-0.000133454
3.10128e-07
-0.000137156
5.51618e-07
-0.000139835
1.45877e-06
-0.000140423
1.99086e-06
-0.000140525
2.095e-06
-0.000140513
2.0216e-06
-0.000140263
1.88659e-06
-0.000137708
1.66146e-06
-0.000134582
9.3515e-07
-0.000133425
2.05941e-07
-0.00013305
-1.16175e-07
-0.000133021
-2.174e-07
-0.000133484
-3.26268e-07
-0.000137567
-7.2675e-08
-0.000141142
1.17823e-06
-0.000142067
2.12648e-06
-0.000142169
2.25055e-06
-0.000142202
2.19483e-06
-0.000141832
2.06018e-06
-0.00013834
1.76944e-06
-0.000134259
4.54826e-07
-0.000132671
-7.41985e-07
-0.000132281
-1.27253e-06
-0.000132245
-1.42123e-06
-0.000132622
-1.5066e-06
-0.00013693
-1.32321e-06
-0.000141924
3.76339e-07
-0.000143506
1.93191e-06
-0.000143734
2.35986e-06
-0.000143831
2.39689e-06
-0.000143443
2.18851e-06
-0.000139286
1.75117e-06
-0.000133929
-1.05458e-07
-0.000131379
-2.21678e-06
-0.00013036
-3.22687e-06
-0.000130211
-3.48775e-06
-0.000130459
-3.82845e-06
-0.00013398
-3.94565e-06
-0.000139795
-2.54702e-06
-0.00014279
-3.7877e-07
-0.000143715
5.89894e-07
-0.000143843
7.75834e-07
-0.000143387
7.16673e-07
-0.000139713
5.60486e-08
-0.000133395
-1.71445e-06
-0.000129156
-4.62518e-06
-0.000127363
-6.84248e-06
-0.000127309
-7.68203e-06
-0.000127976
-8.62515e-06
-0.000131604
-8.69716e-06
-0.000135051
-8.03068e-06
-0.000136843
-7.72178e-06
-0.000137679
-8.02661e-06
-0.000137829
-8.72241e-06
-0.000136849
-1.02818e-05
-0.000134274
-1.21827e-05
-0.000129266
-1.47542e-05
-0.000124684
-2.04691e-05
-0.000134809
-2.17234e-05
4.88741e-05
-0.00013115
1.23129e-06
-0.000130815
1.17322e-06
-0.000130671
1.10492e-06
-0.000130925
9.83186e-07
-0.000133385
1.11793e-06
-0.00013531
1.54367e-06
-0.000135844
1.78515e-06
-0.00013596
1.86343e-06
-0.000135899
1.88292e-06
-0.000135748
1.82624e-06
-0.000135096
1.75622e-06
-0.000132999
1.591e-06
-0.000131928
1.24646e-06
-0.000131586
1.09251e-06
-0.000131443
9.71603e-07
-0.000131647
8.63353e-07
-0.000134225
9.74e-07
-0.000136529
1.50681e-06
-0.000137164
1.87452e-06
-0.000137289
1.95832e-06
-0.000137274
1.9368e-06
-0.00013716
1.84378e-06
-0.000136454
1.74545e-06
-0.000134066
1.52762e-06
-0.000132784
1.11058e-06
-0.000132354
8.82067e-07
-0.000132215
7.96549e-07
-0.000132275
6.93882e-07
-0.000134656
7.58615e-07
-0.000137706
1.39899e-06
-0.000138595
1.97074e-06
-0.000138767
2.12888e-06
-0.000138781
2.05498e-06
-0.000138714
1.92579e-06
-0.000137869
1.81188e-06
-0.000134959
1.48743e-06
-0.000133293
8.58025e-07
-0.000132744
5.37196e-07
-0.000132565
4.26924e-07
-0.000132606
3.48537e-07
-0.000134791
3.58128e-07
-0.000138761
1.06963e-06
-0.000140165
2.03618e-06
-0.000140392
2.26602e-06
-0.000140423
2.25767e-06
-0.000140393
2.10548e-06
-0.000139289
1.96799e-06
-0.000135682
1.42263e-06
-0.000133515
4.06398e-07
-0.00013273
-1.26825e-07
-0.00013247
-3.01103e-07
-0.000132495
-3.52289e-07
-0.000134193
-3.98813e-07
-0.000139211
3.41861e-07
-0.000141648
1.85593e-06
-0.000142124
2.43043e-06
-0.000142169
2.56104e-06
-0.00014218
2.35035e-06
-0.000140912
2.1863e-06
-0.000136225
1.4047e-06
-0.000133144
-2.89862e-07
-0.000131929
-1.28411e-06
-0.000131477
-1.6093e-06
-0.000131458
-1.62915e-06
-0.000132528
-1.76259e-06
-0.000138165
-1.2249e-06
-0.000142232
8.02842e-07
-0.000143464
2.20393e-06
-0.000143779
2.49592e-06
-0.000143855
2.24143e-06
-0.000142982
2.06124e-06
-0.0001375
1.7065e-06
-0.000132316
-6.99459e-07
-0.000130272
-2.76003e-06
-0.000129653
-3.53965e-06
-0.000129601
-4.12746e-06
-0.000129964
-4.33978e-06
-0.000134036
-4.28964e-06
-0.000139537
-2.74047e-06
-0.000142075
-7.68648e-07
-0.000142806
4.62533e-08
-0.000142941
1.51129e-07
-0.000142422
1.25184e-07
-0.00013864
-8.56237e-07
-0.000132343
-2.55233e-06
-0.000128245
-5.55042e-06
-0.000126535
-7.71915e-06