/*--------------------------------*- C++ -*----------------------------------*\
  =========                 |
  \\      /  F ield         | OpenFOAM: The Open Source CFD Toolbox
   \\    /   O peration     | Website:  https://openfoam.org
    \\  /    A nd           | Version:  12
     \\/     M anipulation  |
\*---------------------------------------------------------------------------*/
FoamFile
{
    format      ascii;
    class       volScalarField;
    location    "7.375";
    object      p;
}
// * * * * * * * * * * * * * * * * * * * * * * * * * * * * * * * * * * * * * //

dimensions      [1 -1 -2 0 0 0 0];

internalField   nonuniform List<scalar> 
46253
(
0.928987
1.0631
1.17771
1.06276
1.17074
1.16359
0.900028
0.911665
1.0615
1.06306
0.92586
0.736941
1.03715
1.03364
0.135352
1.05805
1.05667
1.03482
1.03689
1.04879
1.04966
1.15322
0.0664875
0.959138
0.904521
1.06482
1.0529
1.04984
1.06265
0.910487
0.985244
1.01923
1.01705
1.04461
1.04424
0.386569
1.0299
1.03062
0.899322
0.181583
0.909359
0.736886
1.02614
1.02477
0.691458
1.03089
1.02882
0.133511
1.01868
1.01882
1.01677
1.01582
1.14987
0.894199
1.18847
0.792218
1.0085
1.00917
1.0672
0.90759
0.441624
0.898398
0.374818
0.223383
0.128158
1.03303
1.03328
1.14302
0.796208
0.694964
0.909572
1.00453
1.00312
0.903724
1.15144
0.951928
0.986061
0.988566
0.111466
1.01722
1.01682
0.994155
1.14921
0.992031
0.922827
1.12996
0.965766
0.961825
0.89023
0.379954
0.159885
0.906288
1.12877
1.01285
0.270615
1.013
1.12966
0.100612
1.06744
0.458532
0.209461
1.13027
1.14945
0.98487
1.18798
0.911611
0.739475
0.935569
0.934576
0.757265
0.905777
0.999806
0.999134
0.0843223
0.0897619
0.887444
0.705062
0.908572
1.18893
0.806964
0.125021
1.15577
0.988203
0.986839
1.12486
1.19617
0.47183
0.778395
1.20197
0.986984
0.922994
0.920718
1.15859
0.913418
0.985129
0.468593
0.971691
0.969933
0.804697
0.431888
0.982685
0.911482
0.911524
0.978308
0.982774
1.19582
0.968102
0.969218
0.90017
0.351469
0.757191
1.1547
0.980315
0.976054
0.948705
0.698192
0.777186
0.142411
0.95024
1.18492
0.950466
0.739572
0.789495
0.474435
0.89836
0.967914
0.915554
0.968305
1.30682
0.357851
0.95183
0.952595
1.14564
0.911968
1.18243
0.688258
0.899687
1.12742
0.901604
0.706689
1.18402
0.946408
0.939178
0.937714
1.16178
0.955953
0.951856
0.689313
1.1433
1.14584
1.15318
1.15488
0.899527
1.14978
1.14696
1.13697
0.90631
1.12143
0.856685
0.856191
0.117123
0.339906
0.951067
0.952848
0.475654
0.701269
0.941414
0.9353
0.935469
0.34734
0.0823558
1.189
0.911566
1.13536
0.897038
1.12341
0.972811
0.918522
0.927173
1.14438
1.14738
0.926237
0.68763
0.948795
0.945061
0.912512
1.12618
1.13544
0.835865
0.837663
1.02836
0.255318
0.482437
0.543631
1.12011
0.239686
1.14837
0.126109
1.02506
1.04061
1.12228
1.13078
1.1278
1.14187
0.498821
1.1481
0.147186
0.937309
1.1271
0.91321
0.912889
1.03795
0.81319
1.12755
0.816863
0.934932
0.935282
0.806341
0.910968
1.1275
0.924822
0.900981
0.755303
0.980523
0.897744
0.182585
0.0945875
0.110743
0.932678
0.905469
0.931709
1.13375
1.02776
15.4972
0.904511
1.12302
1.18997
0.309343
0.895101
0.828134
0.787893
0.791705
1.15223
1.13792
0.100268
0.902559
0.896043
0.804246
0.958574
0.361943
1.06359
1.06436
0.904609
0.140738
1.05756
1.00624
1.13536
1.00519
0.911548
0.896319
1.18074
0.896122
0.781435
1.17808
1.15401
0.917471
0.915354
0.340484
0.979336
1.14548
1.14903
0.901661
0.341604
0.891249
1.11711
0.891061
0.800201
1.05527
0.45196
0.895182
0.778754
1.11472
0.897194
0.905443
0.889577
0.95451
1.11544
1.12362
0.88052
0.878383
0.767685
0.7671
1.15426
0.445931
1.11143
0.896031
0.80241
0.90943
0.9083
0.197024
1.15293
1.15635
0.0948765
1.18788
1.12939
0.874809
0.876121
0.255752
0.80259
1.13229
0.895346
0.442239
0.702574
0.362104
0.74304
1.09799
0.900464
0.365695
0.898917
0.469391
0.744487
1.1534
1.12357
1.15302
1.14501
1.1179
1.11252
1.11324
0.871109
1.10421
1.10151
1.09879
1.09994
0.869948
1.11401
1.04703
0.803912
1.13104
1.11364
0.308513
0.913234
0.878081
0.779389
0.894423
0.901112
0.893935
1.12822
0.0297216
0.861417
1.21625
1.1423
0.962003
0.860199
0.895583
1.12173
0.903333
0.927453
0.927853
1.11902
0.873554
0.280838
0.942121
0.946143
1.04519
1.1319
1.10536
1.14688
0.657635
0.0492469
1.11374
1.11977
1.15439
1.16241
1.15696
0.871069
1.11349
0.899521
1.12613
1.11009
0.808758
1.11461
0.169608
0.85916
1.11058
0.887713
1.11164
0.290622
0.859293
0.885199
1.14223
0.900728
0.362169
0.219528
1.13384
1.12718
0.841288
0.889168
1.15003
1.14017
0.894773
0.780307
1.11278
0.898291
1.14415
0.845099
0.951243
1.15015
1.11592
0.79879
0.181513
0.828318
0.874503
0.569573
0.900146
7.97362
1.10255
0.89564
1.10197
0.875813
0.858451
1.11364
0.85621
0.855361
0.87498
1.10371
0.85371
1.12999
1.13307
1.11364
1.09622
1.13025
0.90285
0.441028
0.895366
0.782074
0.844206
0.824849
0.932729
0.840401
0.899813
0.93057
0.926692
0.333904
1.12495
1.12313
0.455456
1.20868
0.158147
0.830024
0.91182
0.719271
0.830809
0.855492
0.907229
0.853422
7.36239
1.09903
0.873958
0.864648
0.756175
0.873367
0.834172
0.834694
0.940436
0.910852
1.12132
0.941805
0.983867
0.656516
0.0626255
1.11374
0.903932
1.10921
0.900419
0.89825
0.468895
1.14508
0.854317
1.11759
0.516537
0.894826
1.15711
0.87309
1.13049
1.12362
0.873844
1.1027
0.872914
0.873576
0.87373
0.182558
0.899997
0.899776
0.199747
0.858324
0.861401
1.1158
0.389781
0.865696
0.192818
0.946493
0.820259
1.1074
1.12978
0.863762
0.459555
0.454437
1.11259
1.11007
0.712303
1.11434
1.11724
0.831723
0.82575
0.828866
0.908902
1.10364
1.10448
1.09039
1.09435
1.12557
1.1185
0.660643
0.854483
0.722058
1.14244
1.14211
0.430419
1.10992
1.15874
1.14215
0.934516
0.969114
0.499278
0.954702
1.1455
1.14101
0.780681
0.171114
1.14617
1.14432
0.858797
1.1231
1.1517
0.85984
0.953893
0.995372
1.11781
0.995536
0.997304
0.997203
0.922311
1.16113
0.815239
0.814085
0.963702
0.932828
1.11637
1.15141
0.903133
1.11925
1.1798
0.898423
1.11317
1.18185
1.10702
1.09744
0.978473
0.984687
1.10162
1.11374
0.918569
0.854109
1.10885
1.11899
0.919188
1.08907
1.08799
1.07635
1.08052
1.0717
1.07226
1.06427
1.06644
0.686363
0.843668
1.05852
0.880005
1.05949
1.05089
1.10672
0.947204
0.937414
1.05289
1.11734
1.04101
1.1135
1.04224
0.325707
0.850923
1.03846
1.1014
1.03951
1.11467
1.09413
1.03444
1.12824
1.03483
1.13531
0.714802
1.10165
0.829049
0.940039
1.14619
1.14858
1.02155
1.02446
1.12177
0.86781
1.01457
1.01432
0.917645
1.12301
1.12695
1.00106
0.81967
1.005
1.10781
0.852653
0.995938
0.78629
0.995412
0.819529
0.850641
1.09805
1.14987
1.15138
0.988666
0.991258
0.895589
1.10015
1.10092
0.978578
0.835756
0.978469
0.779654
1.10819
0.971354
0.974121
1.14166
1.1253
1.13811
0.899418
1.12624
0.861954
0.896543
0.985621
1.12257
0.959396
1.12176
0.961087
1.13239
1.12329
0.865131
0.866057
0.950342
0.95155
0.847196
0.872984
0.945495
0.874287
0.946599
1.12862
0.928443
0.934333
0.935051
1.1725
0.80363
0.923331
0.925994
1.27265
1.10937
1.10947
1.1543
0.911926
0.841315
0.913152
1.08608
0.942288
0.859214
0.758503
0.909496
0.908789
0.895345
0.904509
0.905831
0.804891
0.7977
1.09343
0.910117
1.18819
0.791146
0.414227
0.761762
0.789066
0.787565
0.938874
0.953056
1.08503
1.09355
1.08717
0.837251
1.12621
1.10158
1.12856
0.146769
1.10631
0.835704
0.136346
1.09894
1.10177
0.815704
0.802608
1.10276
0.924851
0.685458
0.94923
0.179336
0.463075
1.11664
1.11863
0.128458
0.879464
1.14253
0.844497
1.11284
0.983442
0.892509
0.986054
0.791108
1.16409
0.89719
0.909622
0.999241
1.11753
0.24011
1.12116
0.0570459
1.14337
0.990092
0.985647
0.878478
0.943231
0.951682
1.09591
0.828106
1.11209
1.10376
0.988232
0.891782
1.10552
0.91259
1.10363
1.11215
0.927515
0.932141
1.10305
0.991863
0.779375
0.855866
0.220708
0.852867
0.802803
0.213624
1.11619
0.853117
0.853839
1.11693
0.80307
1.13509
1.11406
0.401389
1.01413
1.01338
0.84274
1.13148
1.12861
1.1306
0.910162
0.8903
1.14352
0.868514
0.901438
0.781435
1.10845
1.11793
1.12096
0.185129
0.981321
0.979443
1.08728
1.11143
0.420349
0.835615
0.965579
0.514924
1.11243
0.967108
0.835362
0.854542
0.851458
0.293428
0.843569
0.87337
0.759617
0.841481
0.776168
0.942018
1.1496
1.15012
0.943277
0.147012
1.17585
0.849972
0.842999
1.1447
0.782114
0.806327
0.866657
0.804277
0.80091
0.78035
0.797328
0.795648
0.776579
0.773894
1.08432
1.12174
0.923913
1.12359
1.08503
0.853096
0.816303
0.79911
1.10175
1.1539
0.874918
1.12378
0.870398
0.873862
1.10153
1.10444
0.96224
1.10173
0.136997
1.10595
1.11303
0.846045
0.873149
0.92736
1.1256
1.09791
0.821645
1.11141
0.87619
0.877186
0.817533
1.11594
0.87554
0.86339
0.873979
1.12694
1.12645
1.12503
1.12972
0.864823
0.872428
1.20425
0.912224
1.11437
0.796872
1.18535
0.7975
0.955994
0.899392
1.10202
0.782992
0.783536
0.908174
1.15309
1.08489
0.797743
0.907589
0.908332
0.79896
1.09847
1.10182
0.856134
1.08701
1.09716
1.09921
0.870167
0.708947
0.921557
0.859502
1.13114
1.09329
1.11591
1.09602
1.143
1.1182
1.21997
1.1174
0.94341
0.799102
0.79062
0.900044
1.08192
1.11033
1.11085
0.811575
0.950814
0.953793
1.13162
1.03712
1.03983
1.04483
1.0295
1.03756
0.226685
0.901311
1.04055
1.05583
1.03122
0.852491
1.04741
1.00248
1.01605
1.05686
1.13022
1.0608
1.01785
1.06193
1.1506
1.00986
1.06525
1.06978
1.07038
1.01139
1.07289
1.06822
0.996448
1.07507
1.14435
1.08464
0.998316
1.12708
0.994661
1.08705
0.416569
1.10189
0.771615
0.994602
1.14696
1.14898
1.12696
0.980629
0.9985
1.18305
1.12584
1.13046
0.983829
0.770152
1.08866
0.978623
1.10511
0.872083
0.979135
0.963096
0.96353
0.798653
0.954207
0.956277
0.948022
1.11766
0.957159
0.948452
1.12086
0.938119
0.930216
1.1207
1.11248
0.939166
0.832645
1.0762
0.930223
0.931064
0.916012
0.820099
0.918538
1.08837
0.909471
1.12695
0.889286
0.822943
0.909797
0.9197
0.896701
0.848395
0.908323
0.881347
0.883896
0.925979
0.908724
0.899518
0.901396
0.945817
1.07011
1.1611
1.10578
1.06855
1.09721
1.07185
1.06475
1.07348
0.450178
1.19295
0.942287
0.0982888
0.756381
0.786665
0.960087
0.970896
1.10806
0.913574
0.995275
0.998853
0.921995
0.921591
0.98825
0.996729
0.992017
0.993561
0.901843
0.804079
0.873133
0.852699
1.10434
0.872675
0.809511
0.786646
0.904901
0.273002
1.03377
0.989012
0.735498
0.296275
0.768262
0.909168
0.884602
0.768268
0.231536
1.07792
1.11635
0.849425
0.902363
0.906226
0.982756
0.917964
0.923459
0.708123
0.808848
0.887488
0.797508
0.887454
0.914623
0.737708
0.800857
1.06022
0.875374
0.997811
0.892978
1.11796
0.997909
1.05054
0.852279
0.901764
1.12534
1.11567
1.08391
0.862896
1.10776
1.12348
1.06701
1.07596
0.906064
0.773876
0.225987
0.911974
1.07069
0.861044
0.854312
1.13745
0.256665
1.16471
0.783202
1.06595
0.787985
0.873182
0.87259
1.19258
1.00021
0.867573
1.10871
0.772333
1.07016
0.910911
0.745667
0.756281
0.814231
1.08324
1.09244
0.871888
0.788222
0.877408
0.854764
0.860991
0.861778
1.0837
0.74304
0.878559
0.851292
0.847615
0.773987
0.91333
1.11084
0.856833
0.745499
0.877529
0.75594
0.877632
0.991483
9.38554
1.13007
1.1329
0.814746
0.868009
1.14931
0.840686
0.870675
0.943833
0.93881
0.797765
0.84191
1.07975
0.926672
1.02996
1.10208
1.10273
0.864031
1.03376
1.11845
1.13087
1.09837
0.86076
1.11895
0.861299
0.709388
0.892217
0.761346
1.10554
1.10424
0.76117
0.175392
1.08582
0.847163
1.07823
1.09108
1.0942
1.00834
1.07858
0.852127
0.75749
1.02434
1.12153
0.911578
1.06998
1.04211
0.867042
0.055679
1.01622
1.07209
1.05522
1.12235
0.866983
1.13506
1.12515
1.11673
0.801313
1.05625
1.11743
1.03446
1.01972
0.151924
1.12438
0.912635
1.04451
0.940593
0.958339
1.06338
0.800126
0.768155
1.08144
1.03707
1.04607
0.939976
0.947864
1.13041
1.01961
0.805197
1.02686
0.985546
1.07337
1.03097
1.07743
1.15632
1.13611
1.03498
1.08293
1.13131
0.834831
0.891085
1.07627
0.840764
1.034
0.874891
0.852637
1.07651
0.896989
1.12756
0.870493
1.08424
1.08341
1.14064
1.1493
1.13412
0.894682
1.06335
1.05093
1.05166
1.14764
1.15554
1.13113
0.895492
1.09065
1.06441
0.899328
1.14686
1.06118
1.0697
0.901202
0.823302
1.06521
1.05172
1.06175
1.01938
1.05739
1.10065
1.14179
1.02265
1.03753
0.998633
1.03728
1.05948
0.791738
0.707401
1.15777
1.03853
1.0737
0.336666
1.04329
1.11843
1.0652
1.06363
0.86554
1.05457
1.10604
1.1568
1.022
1.02357
0.801008
1.0317
1.11306
1.02948
0.983069
1.11492
1.0166
1.11438
0.751082
0.752662
0.805047
1.0201
0.793984
0.796233
1.09569
1.02338
0.762492
0.765817
0.984913
0.992833
0.755941
0.993571
0.984383
0.911067
0.988866
0.989602
0.935699
1.01473
1.00875
0.895907
0.961999
0.98604
1.00387
1.00457
0.988773
0.927977
0.993991
0.362586
0.775441
0.992575
1.00796
0.961597
0.800195
0.870459
0.989412
0.992532
0.794956
0.990204
0.72125
0.990214
0.826
1.12528
1.06322
0.781326
0.78671
0.855384
0.994155
0.993195
0.960271
0.117669
0.944193
1.0348
1.10521
1.08496
1.12413
1.09998
1.10102
0.95824
0.748429
1.10094
0.977
0.973575
0.974592
1.123
0.788445
1.02569
0.992246
0.991727
1.01227
0.977367
0.9633
1.05141
1.02191
0.758536
1.03413
0.957162
1.0109
0.958295
0.954471
1.12978
0.754801
1.13385
0.898388
1.12288
1.10118
0.897201
0.95903
0.991298
0.956173
0.993849
0.863276
0.928522
0.984239
0.892597
0.813475
1.03262
1.12009
0.944067
0.94313
1.12093
1.08256
1.1143
1.10378
1.11289
1.1051
1.11008
0.829985
1.1297
0.929483
1.08917
0.787807
1.03351
1.07702
0.787175
0.931703
0.775892
1.09838
1.08231
0.933005
0.765899
1.09366
0.876465
1.04345
1.11737
1.12061
1.065
1.11352
0.819596
0.807657
1.02049
1.20415
1.10514
1.12159
0.898707
0.859579
1.02091
1.10756
1.1467
1.25292
1.11323
0.962403
1.13407
0.9266
0.924443
0.953686
1.08092
0.906665
0.925587
1.11202
0.902862
0.927687
0.96165
1.05754
1.09186
1.06587
1.12051
1.09512
1.05027
0.908479
0.956288
1.04597
1.08583
1.06356
1.06606
1.01713
1.10858
1.12306
0.975526
0.781863
1.04245
0.779362
1.13176
1.06356
1.03952
1.10838
0.893055
1.07678
1.11581
0.89905
0.898263
0.901255
1.19339
1.10113
0.781776
1.0249
1.07824
0.790363
0.711491
0.764515
0.963774
0.752861
1.09209
0.871559
0.877439
0.779075
1.11299
0.892852
1.08149
1.07948
0.764095
1.01236
0.897066
0.83316
1.12494
1.12134
0.778031
0.774236
0.906022
1.12055
0.878569
0.957387
0.881831
0.877064
0.886526
0.751933
0.875337
1.00441
1.05954
1.00868
1.09535
0.889903
0.87548
0.911992
0.898285
1.08682
0.830162
0.979199
1.09979
0.833434
0.959409
0.780821
1.0725
0.804632
0.863252
0.897382
1.0725
1.07492
0.854955
0.76825
1.09377
0.89462
0.862566
1.02718
1.03513
1.12335
0.756949
1.11541
0.906648
0.824648
0.885834
0.754935
1.07399
1.1169
1.07548
0.721756
0.855715
1.09809
1.0741
0.950208
1.0267
0.981656
0.953092
1.07269
0.818762
0.761966
1.02779
0.987774
1.0625
0.849503
0.836961
0.154008
0.842326
1.17205
0.853521
1.06755
0.84376
0.784455
1.04021
0.996535
1.12661
1.07305
0.962438
0.896551
1.12185
1.00235
0.959199
1.00622
1.19283
0.966056
1.12527
0.826906
1.07045
0.824707
1.10811
0.945901
0.826536
1.17097
1.00428
0.949003
0.940942
1.10763
0.942152
0.826455
0.838461
0.20734
0.206754
0.942918
1.06118
1.08248
1.06175
0.856555
1.00843
1.01389
1.09313
0.974151
0.759052
1.12477
0.711019
1.09611
0.665777
0.096082
1.02739
1.09463
1.07969
0.932783
0.815571
0.742446
0.738038
1.02591
0.832874
0.817699
0.802575
1.02522
1.04011
1.04374
0.803834
0.872708
0.927789
0.996097
0.993436
0.899996
0.913329
1.06148
1.09361
1.02442
1.09799
0.80725
1.03372
1.09648
0.794008
1.12695
0.806251
0.793463
0.939615
0.80496
1.13934
1.13878
1.04635
1.0463
0.765255
0.85896
1.17089
1.17591
0.863297
1.01648
0.780721
1.12326
1.10198
0.89387
0.785669
0.778361
1.06457
0.8539
0.717477
0.892115
0.799758
1.1177
0.716153
0.777817
0.747151
0.776505
1.03167
0.985021
1.14568
0.904375
0.85346
0.915689
0.859094
0.915045
0.904659
0.935549
0.887661
0.921842
1.12506
0.943307
1.0966
0.373053
0.854757
0.849363
0.868764
0.849588
1.06411
0.8896
1.09997
1.1377
0.86638
0.894814
0.737007
0.751077
0.777028
0.736566
0.970491
1.02473
0.893895
0.741419
1.05739
0.742658
1.10629
0.787346
1.11125
0.896666
1.01505
0.740925
1.10239
0.761374
0.854179
0.0731606
1.12317
0.855431
0.890215
1.07034
1.10736
1.08505
0.887347
1.10495
0.882189
0.746735
0.744345
0.811561
0.73725
0.88103
0.978196
1.12494
0.743847
0.815782
1.12332
0.77665
1.05873
0.998939
0.843816
0.853174
1.12063
1.14044
1.02063
0.815141
0.973372
0.745772
0.746315
1.09361
0.813552
1.04517
1.13465
0.866838
4.96922
4.8703
1.01078
0.857253
0.978426
0.866717
1.09732
1.05857
1.01284
0.822598
1.02932
0.819665
1.03613
0.750433
1.02621
1.08594
1.06205
0.802132
0.958339
1.0275
0.820212
1.04032
1.05573
1.06301
0.818861
0.786917
0.744071
0.847982
0.998562
0.784348
1.05549
1.0107
1.04374
0.849458
0.447705
1.02573
1.04546
0.909694
1.05151
0.876094
1.06468
1.14758
1.10871
1.06426
1.0717
1.10332
1.03153
1.03
1.08627
1.02293
1.00166
1.12978
0.978778
1.07537
1.10632
0.916279
0.999322
0.994828
1.08486
1.07102
0.931692
0.783973
0.828723
1.01334
1.0025
1.01088
0.913455
0.976002
1.07269
1.11342
1.08865
1.11243
1.10981
0.890879
0.823738
0.992566
1.0103
0.894632
0.829044
0.825499
0.936449
0.835596
0.895879
0.979907
1.00402
0.992385
0.848019
0.996746
0.852475
1.12374
1.08344
1.00281
0.97611
1.10984
1.11786
1.01641
1.00116
0.847614
0.89857
1.0006
0.975252
1.12668
0.814819
1.10777
0.922475
1.00195
1.00067
0.890774
0.7994
0.843287
0.852498
0.978588
0.864471
0.977169
0.831356
1.10629
0.885468
0.868161
0.805606
0.962153
1.06712
0.920407
1.17797
1.13874
0.991234
0.960745
0.899319
0.935767
1.09458
0.890137
0.770288
1.06337
1.13061
0.898982
1.04956
1.14956
0.966184
0.875042
0.769242
0.962865
0.971116
0.895602
0.938483
0.943121
0.933563
0.788679
1.05528
0.763561
0.763399
0.943829
0.930707
1.05434
0.777786
0.943263
0.872754
0.888616
0.939107
0.874665
0.7402
0.460655
1.01631
1.04901
0.749983
1.00661
1.11078
1.05262
1.09406
1.00183
1.01998
1.00609
1.10684
1.0395
0.913225
1.04366
0.888077
1.00865
1.03906
1.09133
0.30235
0.759372
1.07547
1.02317
0.986774
0.999094
0.893003
1.11756
0.929424
0.940753
1.00137
0.799666
0.778613
1.02542
0.942115
0.891492
1.04319
0.924662
0.90413
0.951794
1.13403
0.928415
0.919541
1.0445
0.891534
0.749769
0.900479
0.939459
0.926197
1.09174
0.919963
1.01721
0.894594
1.02471
0.903264
0.917872
0.941879
1.17096
0.941919
1.1386
1.11975
1.02648
0.894757
0.946657
0.903864
0.946166
0.896499
1.02052
1.02929
1.08467
1.09981
1.00447
0.876211
0.830689
1.02795
0.957579
1.08341
0.973783
0.947743
0.843859
0.891122
1.08494
0.954333
0.993658
1.02563
0.89298
0.877942
0.892955
1.0191
1.09536
1.05722
0.942589
1.02366
0.851405
1.09655
1.13255
1.11337
0.89527
1.10101
1.10584
0.898272
0.795854
0.97036
0.872596
1.01059
1.0823
1.07317
1.10174
0.920641
1.08066
0.831013
1.09815
0.840627
0.879182
1.00043
0.720615
0.852058
0.794979
1.00619
0.783497
0.850396
1.00288
0.754649
0.837689
1.0069
0.978691
1.07875
1.00952
0.852491
1.09394
1.16016
0.946156
1.09502
0.962547
0.122293
0.976172
0.861935
0.83522
0.959961
0.943649
0.998309
0.757252
1.10884
1.03273
1.02314
1.10236
1.00124
1.00154
1.02262
1.0133
0.824318
1.08276
0.968074
0.832862
0.911007
0.92843
0.992164
0.938942
1.01314
0.991308
1.06371
1.02527
0.98597
0.840923
1.03072
0.865357
0.823215
0.897108
1.09621
0.992056
0.89173
0.767932
0.852405
0.924182
0.907263
0.920021
0.93701
0.753367
0.951064
0.940345
0.766601
0.289759
0.99814
0.964481
0.862027
0.975805
0.869519
0.984807
1.10714
0.820152
0.80759
1.09075
1.11865
1.0786
1.08473
0.986606
1.03434
0.804157
1.02955
0.850044
1.12674
0.821436
0.770434
0.980709
0.998853
0.811259
0.953961
0.947822
0.974408
0.848922
1.09237
1.06652
0.885562
1.00444
0.223731
1.10073
0.778659
1.00054
0.801353
0.979996
0.836808
0.976693
1.09435
1.0009
1.00462
1.0003
1.00151
0.999762
0.837203
1.07312
0.798929
0.828223
1.10156
0.979952
0.882194
1.00005
1.02924
0.998345
0.804949
0.832136
1.01246
1.04452
1.01048
1.01141
1.0015
1.20782
1.00665
0.976859
1.00747
0.951954
1.15395
1.081
1.00646
0.795508
0.836316
0.733948
1.03344
1.06514
0.965616
1.10311
1.0197
0.757468
0.801089
1.0177
1.01939
0.902577
0.740075
0.968852
1.015
0.755293
0.757612
0.767721
0.756001
1.06105
0.77706
1.00201
0.783734
1.10044
0.893141
0.995235
0.822678
0.818671
0.792318
1.02236
1.10689
0.827142
0.824901
1.0042
0.82537
0.802443
0.943803
0.76477
1.02067
0.782208
0.995891
0.812526
0.890042
1.0002
1.00695
1.00014
0.987849
1.02055
0.972553
0.994191
0.930307
0.794661
0.774113
0.992788
0.775488
0.953025
0.711031
0.826123
1.13164
0.843244
0.951031
1.10469
1.0863
0.833883
1.02383
1.10285
0.771064
0.991147
1.10121
0.852909
1.0836
0.73484
0.364468
0.974915
0.777836
0.928391
0.769093
0.822959
0.930361
0.823508
0.895223
0.890875
1.12023
0.912291
1.13133
0.932469
0.989203
1.02882
0.898901
0.989959
1.02171
0.930584
1.0225
1.12001
0.987237
0.730124
0.925554
1.01162
1.03394
0.871418
0.896739
0.927932
0.909275
0.992957
1.01408
0.979782
1.10201
0.779326
1.09491
0.978839
0.738493
1.08505
0.915963
1.01296
0.968296
1.0636
0.764293
0.917913
1.02494
0.856799
1.11101
0.803899
0.804131
1.00489
1.0358
1.11188
0.907166
1.02537
1.03434
1.03087
0.23741
1.00532
0.90882
0.893824
0.78263
1.04396
0.218335
0.353518
1.04004
0.901181
1.04943
1.00089
1.04712
0.902291
1.11796
0.824063
0.94318
0.945829
0.89269
0.786254
0.948515
0.958398
1.06183
0.894688
1.0276
1.01789
1.12107
1.08851
1.11419
0.781208
0.886688
1.21962
0.79069
0.901098
1.05069
0.962082
0.889343
0.99366
0.842421
0.887434
1.02724
0.782276
0.895361
1.05719
0.807655
0.874313
1.10448
0.944378
0.881608
0.747265
0.947953
0.981334
0.976746
1.05229
0.806554
1.06047
1.05751
1.11013
0.839672
1.05364
0.88135
1.09557
1.10412
0.803147
1.07983
1.05476
1.01144
0.883067
1.03296
1.10293
0.897387
0.891813
0.801331
0.97903
0.820075
0.946608
0.874589
1.06504
0.769017
1.05303
1.12323
0.862619
0.768365
0.812686
0.979807
0.876225
1.12029
0.887736
0.720189
0.88813
1.06482
0.981971
1.01733
1.06763
0.886513
1.08237
0.923769
0.823954
1.0129
1.21534
0.927791
1.10445
0.863861
1.00716
1.06331
1.02669
1.11448
1.10164
1.02534
0.823914
0.865621
1.04126
0.760475
0.838066
1.00804
0.962146
0.771462
1.09241
1.14337
1.12187
0.729384
0.833477
0.860061
0.860044
0.795151
1.09719
1.11086
1.07094
0.959917
1.11175
1.09856
0.837511
0.794299
0.990933
1.07342
0.836162
0.832927
0.848158
0.854987
0.977697
0.769724
1.11139
0.835131
0.850031
0.86037
0.770482
1.01722
0.850933
0.891031
1.1116
0.878643
1.12848
1.08722
1.10681
0.769873
0.893624
0.949914
0.843809
1.09756
0.770838
0.124735
1.11081
0.844938
1.10735
1.10847
1.00139
0.856624
1.14074
0.95224
0.838361
0.854533
1.0684
1.11141
1.11681
1.11254
0.872847
1.06634
0.761446
0.828992
1.06633
0.979716
0.830562
1.08126
0.869925
1.09351
1.0544
1.11136
0.871938
0.828996
0.828534
1.05546
0.964967
0.872086
1.00424
1.12242
1.11054
1.00843
0.752734
1.04087
0.819461
0.882851
1.05387
1.20646
1.11793
1.21863
1.11767
0.806095
1.17174
0.871642
0.878539
1.04367
1.00858
0.887418
1.05528
0.80818
0.721515
0.442003
0.808918
0.977682
1.12407
1.07531
1.00582
1.02064
1.12542
1.03231
1.04434
1.00831
1.00827
0.865579
0.896477
1.00119
1.01071
1.21335
1.04163
0.792715
1.00524
1.02606
1.00824
0.894507
1.11832
0.88308
1.11054
0.912987
1.02739
0.881133
1.12521
0.783257
1.03867
1.10098
0.934325
0.723
1.00351
1.08424
1.11611
0.912593
1.10851
0.773769
0.8141
0.899939
0.730942
1.02365
1.0555
1.12138
1.01454
0.831204
1.10947
0.768864
1.00838
0.988171
0.898568
0.886064
0.898231
0.938653
1.02898
0.891132
0.882981
1.10954
1.16681
0.79438
1.00892
0.984039
1.05346
0.916022
1.00369
1.0092
1.06273
0.913997
1.10287
0.824394
0.919773
0.993769
1.06445
0.900141
0.829293
0.797865
1.02363
1.0046
1.02023
0.917921
0.896871
0.991692
0.986354
0.784663
0.819694
0.988714
0.821467
0.788371
1.12351
0.857784
1.08575
1.10551
1.04692
0.933714
0.995475
0.819198
1.09978
1.11844
0.822476
0.989906
1.12231
0.980947
1.08426
0.933642
0.859222
1.11043
1.17333
1.08512
0.931679
1.08422
0.88613
1.01553
1.11411
0.989797
0.91206
0.932076
1.16921
0.727875
1.12638
1.04489
0.903832
1.20131
0.942149
0.901901
1.04975
0.936766
0.839853
0.811977
1.03324
0.973285
0.982674
0.920217
0.940349
0.934733
1.04888
0.842047
0.991382
0.817967
1.12016
1.01216
1.09554
1.09424
0.775742
0.944934
0.945811
1.05004
0.794744
0.800153
1.13152
0.930222
0.977283
0.770868
0.890991
0.847834
0.976802
0.922899
0.815259
1.1074
0.82579
0.944093
1.08
1.11567
1.10759
0.943151
0.81568
0.961361
0.827773
0.891054
1.12005
0.952348
0.963601
0.915983
0.959401
0.808382
1.11117
1.09683
1.04979
0.94951
0.94822
0.804614
0.913891
1.08416
1.10974
0.841635
0.955567
0.769366
0.962505
0.936122
0.769331
0.769555
0.769047
1.1379
0.947441
0.770401
1.0126
1.08639
0.904473
0.960589
0.998992
1.108
0.962567
1.11338
1.0408
0.994898
0.839082
1.05194
0.927632
0.972392
0.84909
0.911402
0.9346
1.02338
1.11267
0.974038
0.757355
0.960974
0.959211
0.965003
1.11479
0.943502
0.961209
0.930476
0.758773
0.77071
1.10345
1.06323
0.933033
1.11335
1.08367
1.01987
0.811215
0.910356
1.0424
0.843831
0.927057
0.920267
0.824753
1.02637
1.05292
0.885882
0.968644
1.00606
1.10249
1.00618
0.931147
0.932032
0.911334
1.01741
1.01047
1.07888
0.973309
1.0657
1.00774
0.935785
0.978954
1.10877
0.964823
0.922339
0.930364
0.903801
1.09811
0.967745
0.781572
1.10364
1.1207
0.913603
0.897258
0.943392
1.11091
1.07935
0.865545
1.10839
0.905181
0.982943
0.88919
1.1108
1.09942
0.938644
0.899265
1.10995
0.982049
1.11205
0.884344
0.977799
0.800483
1.11003
0.890493
1.09522
0.878221
1.0473
1.09371
0.944282
0.986456
0.885559
0.868961
1.10301
1.10159
1.10492
0.955191
0.98415
0.860583
0.88018
0.994882
0.860581
0.983993
1.00999
0.80841
1.01709
1.09251
1.05717
0.999652
1.00398
0.807773
1.06703
0.953203
1.0188
1.10214
0.871583
0.829675
1.00985
0.830572
0.993371
1.10449
0.853334
0.979316
0.976582
0.861212
0.861986
0.943873
0.939961
1.00521
0.892603
0.961836
1.1222
1.11262
0.992497
0.775108
0.845578
1.06499
0.941904
0.889876
0.773299
0.757931
1.11676
0.855503
0.996859
0.911586
0.960637
1.01047
1.12109
0.941851
0.83354
0.958304
0.998742
0.846431
1.09538
1.12403
0.995298
0.827636
0.909551
1.1148
1.0024
1.12645
1.16918
0.948879
0.996216
0.149225
0.836387
1.04535
0.963406
1.12584
0.849155
0.960803
0.997195
0.813796
1.13011
0.827201
0.946648
0.770799
1.02199
1.0414
1.10099
0.975942
1.10854
1.01273
0.923571
0.998722
1.09249
1.13334
0.818347
0.952942
0.820384
1.05172
0.972091
0.995521
1.00998
1.13025
1.03181
0.920489
1.13381
0.951313
0.814831
0.78281
0.820313
0.94684
1.11633
0.772199
1.10043
1.01468
0.890796
1.05853
1.0898
0.990759
0.957848
0.962232
0.92985
0.73602
1.06076
1.1132
0.849275
0.915374
0.984391
0.842867
1.07846
0.974505
1.01194
1.00209
1.01106
1.10033
0.983379
1.10207
1.00894
1.11006
1.11162
0.944416
1.12719
1.00532
0.900611
1.09855
1.16594
0.989771
0.989627
1.00555
1.08147
0.89115
1.11097
1.00304
1.01394
1.06643
1.00907
1.09538
1.08299
0.926664
0.989807
0.762218
0.976358
1.17892
1.00756
1.02142
1.17115
1.04102
1.01211
1.14967
0.762038
1.01019
1.03142
0.761469
1.11076
1.10287
0.773751
1.03376
1.11095
1.10026
1.03308
0.995592
1.03273
1.02383
0.735174
1.03369
0.884162
0.909513
0.83687
0.7819
0.783233
0.761003
0.991405
0.836948
0.745952
0.858652
1.10068
1.08113
1.01346
0.905179
1.11755
1.10136
0.815544
1.12689
1.02385
0.927293
0.99644
1.13253
1.00915
1.02213
0.941033
0.743349
1.01014
1.08054
1.03429
0.92498
1.09381
0.716432
1.00702
0.942075
0.959189
1.00703
0.943455
1.01666
0.733308
0.732802
0.786284
0.738274
1.03581
1.01961
1.06811
1.00731
1.15743
1.06513
0.793944
1.0664
1.05722
1.15963
0.976125
1.00208
0.773351
0.95292
1.00734
0.976414
0.738335
1.10022
1.00834
0.783151
1.04438
0.979848
0.911649
1.05225
1.08537
1.08749
1.08467
0.99419
0.956309
1.00742
1.05204
0.977821
1.01341
1.05205
0.811716
1.05852
0.941366
1.06987
0.909602
1.0166
0.767473
1.08652
1.1023
0.730647
1.10554
0.922011
0.812332
0.723704
0.845436
0.823578
0.880375
0.977371
0.355618
1.00417
1.11722
0.379648
1.02601
1.0177
0.828212
1.04732
0.747346
0.917791
1.02399
1.10549
0.776269
0.72287
0.894505
1.09888
0.771344
1.01419
0.9228
0.823229
0.963235
0.823303
1.01914
0.82312
1.10146
0.985233
0.968495
0.73194
1.04818
0.940959
0.916539
0.789538
0.771486
0.1698
1.10175
1.01575
0.927148
1.0448
0.773035
1.15073
1.11166
0.923711
0.185683
1.11312
0.949239
0.998023
0.776598
0.784734
0.730744
0.939852
0.929006
1.02793
1.1326
1.13668
1.00761
0.825157
0.824434
0.802638
0.957861
1.10822
0.9468
0.734446
0.826563
0.764076
0.820792
0.723077
1.10118
0.991611
0.952585
0.955862
1.02454
0.776219
1.09093
1.11474
1.10469
0.947894
1.02644
0.950642
0.962983
0.949029
0.805698
1.21061
1.12024
0.84169
0.826534
1.02755
1.11953
0.824056
0.840741
1.04756
1.0901
0.782203
0.97139
0.955554
0.755495
0.783486
0.951326
1.01659
1.12388
0.995145
0.941476
1.04424
0.987661
0.802401
0.967022
0.732756
0.840244
0.946485
0.985041
0.743733
0.856795
1.06622
0.970122
1.08352
1.01086
1.06469
1.04529
0.96446
0.73595
1.06593
0.807084
1.03486
0.872272
1.14262
1.0149
0.750476
1.08709
0.752268
0.742383
0.856304
0.884511
0.964099
1.11886
1.04906
1.03427
0.940953
0.951623
0.773589
0.97205
0.202321
0.963681
0.863048
0.880079
0.772633
0.772895
1.09863
0.737975
0.97293
0.806118
1.05417
0.948046
0.753121
0.192875
1.00655
1.0066
0.963763
0.962731
1.00102
0.841187
0.74667
1.07216
0.959335
1.05056
0.853668
0.888677
1.00308
0.882553
0.795885
1.11718
0.7519
0.893243
1.07401
0.937317
1.11646
0.820136
0.803556
1.06573
0.962762
0.970298
1.07567
0.892852
1.07413
0.875812
1.04242
0.885712
0.981567
1.06117
0.733444
1.12114
0.899417
1.14007
0.914243
1.07408
0.938523
1.03051
0.959827
0.970078
0.783299
1.0107
0.860197
0.783924
0.338721
1.07786
0.758266
1.06504
0.823661
0.980305
0.928144
0.916047
1.05555
0.72235
1.03874
0.982425
1.07819
0.974001
1.03566
0.898232
0.944234
0.881855
1.06434
0.904148
1.11066
0.756944
1.118
1.03622
0.962461
0.819372
1.19523
0.969904
0.97784
1.03233
1.07907
1.01755
1.13054
1.02193
0.938131
0.772145
0.901464
0.761378
0.951465
1.06383
1.07723
1.15244
0.749006
0.894157
1.00033
1.03084
1.02795
0.749246
0.821612
1.02076
0.925485
1.05718
0.973
0.798822
1.03792
1.08379
0.760578
0.773808
0.724169
0.954701
0.924631
1.05846
1.05769
0.771665
1.001
1.00146
0.899601
0.989476
1.02178
0.90658
0.721471
1.08164
1.04263
1.03917
1.06484
0.902067
0.82132
1.08681
0.977221
1.10826
0.921488
1.06278
0.97924
0.889022
1.10921
1.01346
0.994686
0.995959
0.923127
0.892515
1.01669
0.953221
1.05758
0.866639
0.951003
0.942817
1.04341
0.962158
0.93857
0.961887
1.09145
1.00463
0.930474
0.917987
1.07214
0.868989
0.952499
0.932464
1.05698
0.838391
0.977106
0.726548
0.958964
0.924639
1.06573
0.964314
0.976011
1.07723
0.9937
0.840419
0.892128
0.773233
0.944783
1.06638