/*--------------------------------*- C++ -*----------------------------------*\
  =========                 |
  \\      /  F ield         | OpenFOAM: The Open Source CFD Toolbox
   \\    /   O peration     | Website:  https://openfoam.org
    \\  /    A nd           | Version:  12
     \\/     M anipulation  |
\*---------------------------------------------------------------------------*/
FoamFile
{
    format      ascii;
    class       volScalarField;
    location    "7.375";
    object      rho;
}
// * * * * * * * * * * * * * * * * * * * * * * * * * * * * * * * * * * * * * //

dimensions      [1 -3 0 0 0 0 0];

internalField   nonuniform List<scalar> 
46253
(
1.33247
1.50726
1.58914
1.50737
1.58224
1.57535
1.30047
1.31117
1.50335
1.50475
1.32935
1.12881
1.47034
1.46672
0.479416
1.49778
1.49602
1.46779
1.46995
1.48435
1.48486
1.56473
0.553297
1.36226
1.30526
1.5083
1.49033
1.4867
1.50577
1.30993
1.39717
1.45055
1.44796
1.47877
1.47791
0.793049
1.46277
1.46366
1.30046
1.07736
1.30997
1.12886
1.45858
1.45689
1.07849
1.46367
1.46162
0.500324
1.44753
1.44699
1.44398
1.44254
1.56184
1.29365
1.59827
1.19057
1.43227
1.43256
1.48016
1.30752
0.845897
1.29924
0.784909
0.785305
0.503853
1.46614
1.4662
1.5553
1.19509
1.08232
1.31022
1.42701
1.4252
1.304
1.56381
1.35488
1.40253
1.40482
0.514198
1.44761
1.44652
1.41368
1.561
1.41132
1.32384
1.54413
1.37789
1.37379
1.2902
0.757637
0.549077
1.30669
1.54365
1.4386
0.720252
1.43794
1.54527
0.458369
1.48015
0.880943
0.747308
1.54697
1.56255
1.39703
1.59882
1.31238
1.13157
1.34515
1.34417
1.15071
1.30538
1.42104
1.41978
0.39855
0.485621
1.28711
1.09356
1.30855
1.59977
1.20786
0.552038
1.56768
1.4069
1.4049
1.54794
1.60667
0.886565
1.17436
1.61242
1.40196
1.33133
1.32902
1.57015
1.31442
1.39991
0.915604
1.38542
1.38328
1.20531
0.831382
1.39965
1.31903
1.31915
1.39028
1.40003
1.60636
1.38086
1.3818
1.30111
0.721028
1.15074
1.56689
1.39453
1.39015
1.35984
1.08598
1.17289
0.56206
1.36154
1.59525
1.36151
1.13171
1.18804
0.924243
1.29887
1.38092
1.31662
1.38132
1.71085
0.745666
1.36261
1.36326
1.55748
1.31283
1.59347
1.07483
1.30574
1.54493
1.30186
1.09526
1.59524
1.35726
1.34919
1.34753
1.63248
1.36749
1.36328
1.0761
1.61111
1.61121
1.56537
1.73463
1.29941
1.70251
1.94723
2.00921
1.30599
1.54984
1.2606
1.26014
0.471745
0.727422
1.36193
1.36376
0.883948
1.08934
1.35226
1.34471
1.34474
0.760844
0.454944
1.59951
1.31237
1.54899
1.30306
1.55256
1.38487
1.3194
1.33596
1.55658
1.55942
1.33486
1.07426
1.35907
1.35528
1.3132
1.5517
1.55503
1.23842
1.24036
1.44129
0.973068
0.891856
0.988156
1.54427
0.740242
1.79906
0.542239
1.43785
1.4534
1.54606
1.54842
1.56231
1.79537
0.919662
1.56083
0.578261
1.34788
1.56323
1.32104
1.3206
1.45061
1.21406
1.56563
1.21802
1.34435
1.34474
1.20834
1.31156
1.56907
1.32627
1.30095
1.14854
1.39267
1.30003
0.620404
0.397356
0.500047
1.34164
1.31273
1.34065
1.55334
1.476
15.672
1.31161
1.54767
1.60005
0.710251
1.29459
1.23315
1.18674
1.19088
1.56491
1.55162
0.482034
1.30257
1.29542
1.20545
1.3701
0.767279
1.47656
1.47718
1.30498
0.516855
1.47051
1.41868
1.55388
1.41779
1.31227
1.30299
1.59144
1.3027
1.17731
1.58731
1.62713
1.32548
1.32337
0.745192
1.39185
1.62667
1.6134
1.30419
1.19354
1.29758
1.56558
1.29728
1.20086
1.46801
0.856171
1.29469
1.17398
1.5624
1.29765
1.3062
1.29051
1.36607
1.56305
1.55542
1.28626
1.28388
1.16459
1.16397
1.63346
0.864821
1.55765
1.29687
1.20411
1.31678
1.31566
0.600548
1.56496
1.56855
0.42552
1.59631
1.56788
1.28011
1.28136
0.968728
1.20173
1.55123
1.29465
0.852388
1.09087
1.01285
1.1354
1.53726
1.30729
0.756605
1.30574
0.890023
1.1371
1.56974
1.56331
1.57027
1.69217
1.55263
1.54627
1.54578
1.27612
1.54057
1.54658
1.53788
1.54245
1.27482
1.55315
1.4599
1.205
1.55211
1.55357
0.725276
1.31401
1.27836
1.17484
1.30085
1.30046
1.3004
1.56617
0.354077
1.26585
1.62553
1.60998
1.3738
1.26445
1.29514
1.5702
1.30278
1.33775
1.33876
1.56288
1.27669
0.722196
1.34698
1.35108
1.45787
1.55294
1.51551
1.64636
1.14566
0.391768
1.5598
1.56683
1.87512
1.57382
1.62665
1.27462
1.52487
1.29985
1.55926
1.55143
1.21137
1.52573
0.565154
1.26337
1.57065
1.29367
1.58874
0.684182
1.26341
1.29113
1.65375
1.30536
0.78477
0.714334
2.0361
2.04417
1.24282
1.28858
1.61557
1.73274
1.2942
1.17555
1.5232
1.29776
1.65319
1.24686
1.36236
1.74898
1.56186
1.20046
0.572289
1.23323
1.27777
0.985656
1.3008
9.3057
1.51282
1.29523
1.51159
1.2811
1.26116
1.56254
1.2588
1.2579
1.28031
1.54039
1.25613
1.54666
1.60822
1.52443
1.53455
1.60363
1.30335
1.40236
1.29495
1.17786
1.24747
1.22903
1.34339
1.24335
1.30209
1.33473
1.33073
0.758162
1.54938
1.55019
0.870418
1.61908
0.614332
1.23501
1.3125
1.10946
1.23527
1.25785
1.30708
1.25563
7.19681
1.53719
1.27902
1.2677
1.14955
1.27845
1.23676
1.23721
1.34457
1.31149
1.56036
1.34594
1.39584
1.14612
0.422639
1.56229
1.30399
1.5214
1.29976
1.2987
0.890335
1.63995
1.25645
1.56569
0.944709
1.29597
1.55229
1.27629
1.56984
1.5671
1.27718
1.53861
1.27623
1.27778
1.27718
0.857602
1.3049
1.30587
0.58981
1.26103
1.26451
1.55938
0.818821
1.27026
0.635831
1.34858
1.2241
1.54677
1.61713
1.26831
0.880731
0.851772
1.52578
1.52291
1.10152
1.52614
1.52882
1.234
1.23038
1.23089
1.30895
1.51382
1.51454
1.50056
1.50434
1.56543
1.52821
1.13291
1.2568
1.11241
1.7303
1.9811
0.829415
1.5222
1.65611
1.89951
1.33624
1.38093
0.92603
1.36614
1.76939
1.71508
1.17676
0.589953
1.769
1.61173
1.26292
1.58021
1.70516
1.26411
1.36545
1.40406
1.55753
1.40419
1.40584
1.40573
1.32088
1.68295
1.21639
1.21507
1.37578
1.33112
1.57512
1.75106
1.30342
1.56753
1.58862
1.30017
1.52485
1.5919
1.51796
1.53664
1.39084
1.3972
1.54079
1.55102
1.31764
1.25651
1.54768
1.56593
1.32967
1.4988
1.49769
1.48597
1.49005
1.48111
1.48164
1.47344
1.47559
1.07297
1.24532
1.4674
1.27971
1.46837
1.45956
1.54424
1.34919
1.34035
1.46156
1.55374
1.44941
1.5556
1.45064
1.08606
1.25291
1.44654
1.58442
1.44759
1.5274
1.524
1.44224
2.03772
1.44264
2.06743
1.10425
1.58538
1.23388
1.34297
1.73781
1.70071
1.42916
1.43203
1.56187
1.27066
1.42198
1.4217
1.32761
1.55383
1.55994
1.40833
1.22096
1.41222
1.5522
1.25633
1.40309
1.1816
1.40251
1.22074
1.25425
1.55615
1.7638
1.75889
1.39574
1.39828
1.2951
1.56533
1.56335
1.38551
1.23981
1.38533
1.17474
1.54061
1.37813
1.38089
1.61436
1.6058
1.6092
1.30053
1.60555
1.26517
1.30105
1.39766
1.54983
1.36596
1.7164
1.36764
1.7051
1.5583
1.26855
1.26959
1.3567
1.35789
1.24907
1.27705
1.35174
1.27846
1.35284
1.5586
1.33895
1.34024
1.34094
1.64507
1.20492
1.32889
1.3316
1.67963
1.60592
1.59223
1.70364
1.31709
1.24284
1.31833
1.48383
1.34073
1.26192
1.15199
1.31458
1.31381
1.29983
1.30936
1.31071
1.20464
1.1964
1.5042
1.30986
1.5971
1.19037
0.80885
1.15605
1.18807
1.18329
1.33724
1.35536
1.49508
1.50435
1.49714
1.23994
1.72123
1.51308
1.7155
0.335141
1.51752
1.23836
0.318037
1.50926
1.51214
1.21882
1.20038
1.53708
1.3352
1.07198
1.35296
0.563786
0.88348
1.56509
1.5285
1.18623
1.27946
1.68023
1.24622
1.52463
1.39116
1.29379
1.39387
1.18748
1.85333
1.29675
1.31022
1.40762
1.52763
0.659574
1.56169
0.406373
1.59286
1.39802
1.39349
1.27901
1.34564
1.35417
1.53622
1.23319
1.556
1.54202
1.39618
1.29611
1.51537
1.31235
1.51394
1.52176
1.33824
1.34307
1.53975
1.3999
1.17602
1.25837
0.56237
1.25505
1.20274
0.527415
1.52583
1.25549
1.25597
1.52731
1.20297
1.5309
1.52421
0.883642
1.42147
1.42066
1.24435
1.62358
1.52582
1.52759
1.31082
1.29213
1.63851
1.27171
1.30077
1.17813
1.52139
1.56429
1.56828
0.434241
1.38828
1.38631
1.49717
1.52297
0.815191
1.2381
1.37226
1.41118
1.52412
1.37377
1.23785
1.25683
1.25364
0.698178
1.24523
1.27651
1.15356
1.24302
1.17063
1.34815
1.6168
1.614
1.34942
0.50571
1.65013
1.25193
1.24464
1.61083
1.18045
1.20461
1.26947
1.20587
1.20296
1.17848
1.19455
1.19254
1.17123
1.16846
1.53095
1.53529
1.32222
1.53785
1.53136
1.25542
1.21566
1.19697
1.53771
1.83014
1.27817
1.55424
1.27384
1.27715
1.51168
1.5151
1.36138
1.51147
0.563576
1.51559
1.55298
1.24783
1.27717
1.32563
1.52128
1.53618
1.22314
1.59801
1.27979
1.28086
1.21882
1.52634
1.27907
1.26634
1.27747
1.56834
1.57037
1.57055
1.56902
1.26783
1.27586
1.79433
1.32217
1.52478
1.19398
1.72752
1.19461
1.35969
1.29994
1.54106
1.18132
1.18186
1.30808
1.5649
1.4948
1.19544
1.30867
1.30922
1.19675
1.50859
1.51175
1.25871
1.48452
1.52859
1.53274
1.27393
1.09772
1.32041
1.26221
1.60393
1.50446
1.54374
1.50708
1.59228
1.53053
1.62927
1.52941
1.34707
1.19864
1.18667
1.2994
1.47977
1.50657
1.5085
1.21517
1.34971
1.35749
1.52725
1.44507
1.44807
1.45339
1.43719
1.4455
0.64826
1.30166
1.44878
1.4646
1.4389
1.2547
1.45597
1.40926
1.42357
1.46561
1.6672
1.46981
1.42533
1.47097
1.62114
1.41719
1.47732
1.47906
1.47965
1.41863
1.48239
1.47825
1.40365
1.48451
1.73094
1.49428
1.40546
1.55843
1.4018
1.4966
0.962893
1.55398
1.16895
1.40166
1.61576
1.8977
1.6046
1.38761
1.40696
1.659
1.60218
2.02731
1.39077
1.16731
1.48712
1.38551
1.5388
1.27875
1.38598
1.36974
1.37013
1.19861
1.36065
1.36271
1.35433
1.56427
1.3603
1.35473
1.56247
1.34413
1.33182
1.55902
1.59276
1.34517
1.2364
1.47486
1.336
1.33683
1.32133
1.2214
1.3239
1.48639
1.31455
1.56665
1.29348
1.22446
1.31486
1.32988
1.30637
1.25033
1.31334
1.28522
1.28785
1.32729
1.31374
1.30418
1.3061
1.34953
1.46888
1.55588
1.54409
1.46791
1.53283
1.47041
1.46426
1.47204
0.859181
1.60299
1.3408
0.508975
1.15182
1.18457
1.37198
1.38314
1.54666
1.31279
1.40194
1.4056
1.32039
1.32046
1.39485
1.40343
1.39866
1.40243
1.30245
1.2042
1.27632
1.255
1.54048
1.27629
1.20818
1.18214
1.31488
0.657791
1.44202
1.3982
1.12719
0.806524
1.16516
1.30962
1.29186
1.16511
0.637499
1.4875
1.56444
1.25474
1.31218
1.30552
1.3893
1.32834
1.33399
1.09665
1.20927
1.29473
1.19718
1.29159
1.31541
1.13026
1.1984
1.46024
1.28203
1.40452
1.29733
1.55704
1.40462
1.45973
1.25756
1.30961
1.55438
1.55646
1.53916
1.26551
1.51908
1.57101
1.51041
1.47416
1.31393
1.16813
0.50426
1.31276
1.50295
1.26357
1.25995
1.61644
0.608604
1.56004
1.17823
1.47584
1.18353
1.27738
1.2768
1.60347
1.40695
1.271
1.52107
1.16922
1.49506
1.31911
1.14048
1.15172
1.21324
1.51596
1.53698
1.27551
1.18623
1.28111
1.25722
1.26451
1.26538
1.52298
1.13757
1.28228
1.2534
1.24951
1.16837
1.3215
1.523
1.26242
1.13869
1.2812
1.14954
1.28129
1.40047
8.28213
1.68771
1.69273
1.2139
1.2712
1.61509
1.24218
1.27398
1.34235
1.33718
1.1954
1.24347
1.47789
1.32797
1.43865
1.57263
1.59199
1.27027
1.44298
1.64135
1.69861
1.50986
1.26356
1.66158
1.26412
1.09826
1.29284
1.15741
1.53781
1.51575
1.15724
0.595307
1.4953
1.24898
1.48748
1.50054
1.52352
1.40878
1.48786
1.25425
1.15329
1.43226
1.58198
1.31238
1.47916
1.45175
1.27323
0.350904
1.42428
1.48123
1.46447
1.53417
1.26986
1.53115
1.53718
1.52995
1.19882
1.46549
1.53036
1.44295
1.41784
0.605874
1.54161
1.31342
1.45373
1.34597
1.35739
1.47318
1.19985
1.16204
1.49037
1.446
1.45527
1.33854
1.35321
1.91595
1.41824
1.20531
1.42544
1.39219
1.49628
1.44011
1.50063
1.6268
1.6125
1.44352
1.50262
1.57596
1.2395
1.29257
1.49715
1.24503
1.44312
1.27891
1.25491
1.49098
1.29788
1.54326
1.27435
1.54198
1.49913
1.58383
1.70767
1.98457
1.29656
1.47267
1.46219
1.4634
1.76507
1.67197
1.54981
1.2957
1.48821
1.51306
1.30867
1.61347
1.47073
1.50748
1.30572
1.22897
1.46421
1.45994
1.46085
1.41741
1.46575
1.53651
1.7502
1.42246
1.4451
1.40704
1.44502
1.4687
1.18804
1.0959
1.68283
1.44529
1.50187
0.753944
1.45011
1.57552
1.47519
1.47304
1.26869
1.46391
1.54348
1.72552
1.42872
1.43029
1.19819
1.43847
1.54977
1.43621
1.39079
1.57269
1.42333
1.55029
1.14573
1.14746
1.20313
1.42987
1.1912
1.19421
1.52612
1.4301
1.15837
1.16197
1.39269
1.40049
1.14972
1.40111
1.39222
1.32122
1.39589
1.39648
1.3407
1.42284
1.41521
1.29533
1.36879
1.39392
1.41024
1.41104
1.39667
1.33274
1.40182
0.800327
1.17267
1.40047
1.41434
1.36813
1.19773
1.27454
1.3974
1.39886
1.1942
1.39654
1.1113
1.39655
1.23131
1.57528
1.46187
1.1764
1.18538
1.25865
1.40052
1.40122
1.35946
0.410875
1.34294
1.44384
1.5513
1.55404
1.51998
1.56171
1.55577
1.35729
1.14197
1.55899
1.38312
1.37962
1.38073
1.57627
1.18421
1.42569
1.39945
1.39909
1.41263
1.38347
1.36248
1.45015
1.43171
1.15325
1.44702
1.36296
1.41885
1.36412
1.36018
1.58777
1.14915
1.71491
1.3008
1.56088
1.49911
1.302
1.36482
1.40057
1.35535
1.40325
1.26645
1.33358
1.3921
1.29209
1.21196
1.4409
1.69588
1.34953
1.34858
1.70508
1.49155
1.6056
1.59741
1.5968
1.59708
1.52015
1.23027
1.59019
1.33415
1.48626
1.1834
1.44264
1.47568
1.18273
1.33686
1.17069
1.53544
1.48031
1.33771
1.16155
1.50375
1.27591
1.4424
1.5442
1.54954
1.47452
1.51039
1.22387
1.2106
1.41905
1.68429
1.51513
1.51769
1.30821
1.26234
1.42888
1.50441
1.55865
1.82432
1.52696
1.36968
1.59529
1.33155
1.32936
1.36501
1.47901
1.31099
1.33047
1.58918
1.30341
1.33264
1.36837
1.4563
1.51432
1.47551
1.53673
1.51731
1.44776
1.31286
1.3555
1.45523
1.48354
1.4759
1.47852
1.42542
1.51873
1.56357
1.38195
1.17943
1.44963
1.17738
1.59578
1.46298
1.44687
1.53647
1.29688
1.47525
1.54685
1.3031
1.29842
1.30539
1.80536
1.51141
1.18002
1.43505
1.4768
1.18639
1.10055
1.16053
1.36806
1.14764
1.4899
1.2746
1.28175
1.17663
1.52654
1.29667
1.48011
1.4779
1.16014
1.42079
1.30248
1.23634
1.544
1.54203
1.1755
1.17135
1.30673
1.53613
1.28188
1.36059
1.28526
1.2815
1.29014
1.14677
1.27965
1.41105
1.45842
1.41535
1.49329
1.29288
1.27867
1.31608
1.30445
1.48418
1.23432
1.3857
1.51047
1.23936
1.35868
1.17569
1.48251
1.20273
1.26586
1.30272
1.48227
1.47394
1.25717
1.16472
1.54916
1.2998
1.26516
1.43564
1.44447
1.54546
1.15269
1.57849
1.30594
1.23029
1.28992
1.14848
1.4725
1.58064
1.47444
1.11148
1.25796
1.57148
1.47225
1.36185
1.42627
1.38789
1.36479
1.47142
1.21834
1.15798
1.42736
1.39408
1.4619
1.25143
1.23821
0.616737
1.24386
1.70835
1.25584
1.47739
1.24538
1.17982
1.44964
1.39697
1.58113
1.4715
1.3683
1.30116
1.54565
1.40376
1.36502
1.41324
1.60142
1.36545
1.6028
1.22756
1.48036
1.22523
1.59121
1.35143
1.22716
1.66376
1.4112
1.3546
1.33957
1.51908
1.34755
1.22707
1.23903
0.61487
0.481016
1.34834
1.46077
1.51208
1.46118
1.25881
1.41616
1.42229
1.4921
1.37363
1.15394
1.58247
1.09986
1.50578
1.15559
0.523104
1.43552
1.50419
1.47852
1.33732
1.2155
1.13524
1.13053
1.42577
1.2331
1.21776
1.20164
1.42517
1.44925
1.4426
1.20298
1.27694
1.33216
1.39662
1.39395
1.29936
1.31254
1.46197
1.50379
1.42425
1.50805
1.20664
1.44646
1.50641
1.19075
1.64354
1.20556
1.19189
1.33797
1.20327
1.63623
1.64725
1.44515
1.44512
1.16074
1.26243
1.67581
1.69715
1.26691
1.41673
1.17877
1.55128
1.54776
1.29484
1.18352
1.17566
1.47444
1.25695
1.10702
1.2941
1.19865
1.53503
1.10552
1.17566
1.14052
1.17039
1.4302
1.39179
1.55765
1.30863
1.25575
1.32182
1.26137
1.32109
1.30892
1.33732
1.28953
1.32025
1.55571
1.3447
1.50713
0.831274
1.25674
1.25073
1.27199
1.25102
1.47369
1.29376
1.51015
1.60729
1.26941
1.29872
1.1288
1.14496
1.17439
1.12827
1.36998
1.42434
1.29776
1.13375
1.45749
1.13682
1.51766
1.18301
1.54163
1.30632
1.41327
1.13317
1.51386
1.1575
1.2565
0.446693
1.5722
1.25776
1.29571
1.48007
1.5704
1.49463
1.29264
1.57564
1.28566
1.14009
1.13712
1.21035
1.13091
1.28446
1.38298
1.56135
1.13651
1.21496
1.55447
1.17115
1.45758
1.40401
1.2455
1.25619
1.55336
1.66584
1.41921
1.214
1.3728
1.13876
1.13943
1.50464
1.2123
1.45211
1.67341
1.26961
4.91552
4.85003
1.41115
1.25983
1.37799
1.26949
1.50696
1.45731
1.41318
1.22245
1.43608
1.21932
1.44542
1.14507
1.43295
1.50312
1.47082
1.19956
1.36292
1.42604
1.21986
1.44822
1.4658
1.46178
1.21841
1.1824
1.13707
1.24983
1.39895
1.18176
1.46818
1.41711
1.45178
1.25138
0.853103
1.43247
1.45252
1.31051
1.46198
1.27565
1.47361
1.62071
1.54043
1.47767
1.49358
1.53715
1.43828
1.43674
1.50464
1.42963
1.4082
1.59298
1.37834
1.48512
1.60478
1.32374
1.39982
1.40119
1.50778
1.49365
1.33609
1.18112
1.22869
1.41202
1.40907
1.41732
1.32083
1.37557
1.46959
1.54038
1.51144
1.55211
1.55227
1.29523
1.2242
1.39891
1.40903
1.29913
1.22902
1.22605
1.34093
1.24186
1.30222
1.38604
1.40493
1.39873
1.24993
1.40311
1.2546
1.67345
1.49309
1.40373
1.38255
1.54509
1.70347
1.41464
1.40214
1.24872
1.30506
1.40158
1.38139
1.67849
1.2135
1.54359
1.33032
1.40301
1.40171
1.29582
1.19666
1.24413
1.25476
1.38473
1.26723
1.38336
1.23286
1.54393
1.29025
1.27106
1.20349
1.368
1.47688
1.32818
1.73351
1.60562
1.39045
1.3666
1.30475
1.34102
1.50405
1.29446
1.16426
1.46177
1.59664
1.30435
1.44717
1.67129
1.37214
1.27889
1.16329
1.36874
1.3706
1.30012
1.34682
1.34858
1.34179
1.18676
1.48597
1.15962
1.15943
1.34931
1.34116
1.48669
1.17501
1.35172
1.27662
1.29269
1.34445
1.27874
1.13415
0.926189
1.41657
1.47728
1.14481
1.40743
1.54218
1.48309
1.50353
1.40295
1.42824
1.40694
1.54421
1.46403
1.31776
1.44261
1.29215
1.40942
1.46585
1.48888
0.663127
1.15499
1.48571
1.42338
1.38586
1.40042
1.29886
1.5417
1.33444
1.33939
1.40168
1.19829
1.17582
1.42528
1.35056
1.29721
1.46462
1.3296
1.31097
1.35865
1.59382
1.33342
1.32426
1.4678
1.29572
1.14348
1.30717
1.34126
1.33119
1.48968
1.32763
1.41711
1.29847
1.4436
1.30747
1.32547
1.34364
1.58208
1.34373
1.70576
1.54968
1.44689
1.3009
1.34835
1.30809
1.34742
1.30044
1.41887
1.44524
1.49417
1.51081
1.41125
1.27942
1.23489
1.44544
1.36637
1.49247
1.38291
1.34894
1.24609
1.2949
1.4947
1.36306
1.3926
1.42518
1.29682
1.28122
1.29738
1.43179
1.49261
1.45599
1.35103
1.43783
1.25344
1.49368
1.59468
1.56025
1.29981
1.54478
1.54731
1.30764
1.19319
1.37943
1.27565
1.42335
1.49121
1.48278
1.55504
1.32838
1.48956
1.23113
1.49539
1.24716
1.28252
1.40188
1.10987
1.25413
1.19235
1.41543
1.18077
1.25174
1.41248
1.14894
1.23898
1.41717
1.38795
1.48804
1.40993
1.25456
1.5044
1.96891
1.35469
1.50477
1.37145
0.549316
1.3854
1.26447
1.23636
1.36881
1.35213
1.40631
1.15181
1.55241
1.44133
1.4233
1.49912
1.40006
1.41028
1.43437
1.412
1.22481
1.492
1.37709
1.23387
1.31821
1.33648
1.40166
1.34338
1.41477
1.39897
1.46237
1.42317
1.39535
1.24237
1.4286
1.26817
1.22363
1.30692
1.53247
1.40036
1.29591
1.16482
1.25415
1.33211
1.31432
1.32773
1.34136
1.1475
1.35971
1.34875
1.16225
0.787981
1.40768
1.37343
1.2646
1.385
1.27295
1.39225
1.54064
1.22038
1.207
1.56557
1.54515
1.53032
1.54375
1.39462
1.44331
1.20333
1.44185
1.25159
1.55971
1.22173
1.16753
1.39002
1.39927
1.2109
1.36458
1.35639
1.38358
1.25014
1.51715
1.50617
1.29059
1.4141
0.629303
1.5391
1.17617
1.41014
1.20032
1.38742
1.2387
1.3831
1.5046
1.40001
1.40325
1.39938
1.41115
1.40938
1.23918
1.50251
1.19775
1.22816
1.51177
1.38781
1.287
1.40965
1.4278
1.40799
1.20418
1.23253
1.41283
1.45409
1.41088
1.42111
1.41119
1.89637
1.40584
1.38329
1.41721
1.36338
1.79933
1.4902
1.40567
1.19409
1.23729
1.12506
1.43122
1.48904
1.37287
1.49933
1.42947
1.15209
1.20007
1.42743
1.42922
1.30606
1.13182
1.37647
1.42479
1.14969
1.15318
1.16411
1.15051
1.47072
1.17419
1.40319
1.18141
1.54142
1.29915
1.39468
1.22355
1.21871
1.19057
1.4321
1.51805
1.233
1.22599
1.40456
1.22653
1.20059
1.34231
1.16028
1.43038
1.17971
1.40102
1.2126
1.29275
1.40056
1.40622
1.39865
1.38733
1.4304
1.37745
1.39391
1.33416
1.19138
1.17048
1.39244
1.172
1.3598
1.20579
1.22742
1.59868
1.2501
1.35788
1.63364
1.61151
1.23747
1.43568
1.53871
1.16782
1.39169
1.51269
1.25525
1.49265
1.12594
0.748591
1.37921
1.17456
1.33448
1.16503
1.22396
1.33665
1.22458
1.29977
1.29502
1.62648
1.31301
1.54869
1.33858
1.3898
1.4412
1.3084
1.39427
1.43156
1.33677
1.43255
1.62541
1.39148
1.12069
1.33142
1.42292
1.44266
1.27554
1.30647
1.33396
1.31894
1.39231
1.42669
1.38407
1.53685
1.17622
1.50436
1.38343
1.12962
1.49471
1.32147
1.41473
1.37263
1.46293
1.1606
1.32359
1.42489
1.26012
1.52345
1.20357
1.20385
1.41357
1.44574
1.52375
1.31239
1.42471
1.43214
1.44071
0.665987
1.41487
1.31418
1.29809
1.17986
1.45392
0.621127
0.766167
1.44992
1.30615
1.45938
1.40223
1.457
1.30739
1.53713
1.2245
1.35116
1.34714
1.29731
1.18429
1.35161
1.36158
1.47117
1.29945
1.43768
1.41674
1.54231
1.49778
1.54286
1.17829
1.29103
1.96253
1.18935
1.30156
1.46059
1.37188
1.29353
1.3929
1.24517
1.29187
1.42688
1.18028
1.30068
1.45606
1.20759
1.2786
1.5697
1.34613
1.28626
1.14165
1.34955
1.38785
1.3832
1.46227
1.2064
1.4704
1.46737
1.52061
1.2422
1.45295
1.28546
1.50607
1.57813
1.20287
1.48904
1.46473
1.4132
1.28731
1.43071
1.51341
1.30273
1.29602
1.20091
1.38643
1.22099
1.3483
1.27838
1.4637
1.16552
1.46293
1.54484
1.26712
1.16488
1.21311
1.38764
1.28015
1.54471
1.29003
1.11008
1.29233
1.47459
1.38121
1.41624
1.47745
1.29059
1.51251
1.33392
1.22519
1.41319
1.62493
1.33444
1.51507
1.26713
1.40755
1.46208
1.43639
1.52891
1.58106
1.42479
1.22514
1.26903
1.43887
1.15633
1.2402
1.40844
1.36882
1.16831
1.50251
1.53786
1.53938
1.11959
1.23534
1.2631
1.26313
1.19343
1.54705
1.55328
1.48063
1.36643
1.55324
1.54223
1.23972
1.19249
1.39012
1.48357
1.23829
1.23419
1.25056
1.25821
1.38425
1.1659
1.52279
1.23651
1.25258
1.26472
1.16671
1.41889
1.25394
1.29516
1.5622
1.28313
1.57946
1.54759
1.5183
1.16604
1.30296
1.3566
1.24593
1.508
1.16708
0.299277
1.56267
1.24718
1.51858
1.50436
1.40266
1.26
1.5539
1.35909
1.24048
1.2578
1.52011
1.52233
1.56088
1.54447
1.27705
1.50752
1.15765
1.23021
1.46454
1.37917
1.23191
1.49036
1.274
1.51808
1.48554
1.52439
1.27617
1.23016
1.22972
1.48514
1.37124
1.27633
1.40783
1.54635
1.54013
1.41125
1.1482
1.46728
1.21855
1.28763
1.48676
1.88088
1.54049
1.77744
1.53244
1.20576
1.97133
1.27693
1.28313
1.46652
1.41605
1.29141
1.48697
1.20802
1.11096
0.836468
1.20701
1.38415
1.54188
1.50613
1.41308
1.43003
1.5552
1.45238
1.47307
1.4113
1.41119
1.27056
1.3019
1.40239
1.42339
1.83957
1.46661
1.19092
1.41208
1.44346
1.41116
1.29986
1.54677
1.28905
1.78929
1.31894
1.44167
1.28702
1.55392
1.17855
1.46058
1.53805
1.3384
1.1125
1.41031
1.49322
1.5335
1.31847
1.54519
1.17023
1.21351
1.30561
1.12125
1.4427
1.45496
1.5403
1.41612
1.23472
1.50564
1.16488
1.41849
1.38755
1.3042
1.29225
1.3078
1.34279
1.44489
1.2952
1.28903
1.55012
1.98411
1.191
1.41174
1.3836
1.45291
1.32235
1.41195
1.42051
1.50826
1.32027
1.51405
1.22416
1.32633
1.40157
1.46308
1.30692
1.23497
1.19622
1.43323
1.41367
1.42045
1.32442
1.30351
1.39101
1.38564
1.1801
1.21973
1.39623
1.22095
1.18401
1.55413
1.2607
1.49602
1.5384
1.44698
1.34055
1.40395
1.21999
1.50984
1.53749
1.22271
1.39045
1.55178
1.38834
1.49484
1.34073
1.26225
1.54171
1.5677
1.49551
1.3384
1.50678
1.28995
1.41723
1.54706
1.39793
1.31286
1.33911
1.87812
1.11795
1.55998
1.44434
1.31076
1.61216
1.3493
1.30874
1.44974
1.34404
1.24173
1.21049
1.44206
1.38061
1.39059
1.32768
1.3474
1.34194
1.44884
1.2441
1.40051
1.21708
1.55033
1.42126
1.50551
1.50488
1.17238
1.35223
1.35338
1.4498
1.19354
1.19958
1.54408
1.33794
1.38383
1.16776
1.30009
1.25493
1.38455
1.33047
1.21502
1.6488
1.22674
1.35162
1.48922
1.54541
1.64683
1.35035
1.21549
1.36757
1.22889
1.29516
1.5465
1.36013
1.37113
1.32101
1.36706
1.20819
1.54692
1.50801
1.44951
1.35723
1.35488
1.20421
1.31886
1.49335
1.54372
1.24371
1.36311
1.16551
1.36938
1.34245
1.16603
1.16633
1.16569
1.55018
1.35423
1.16726
1.41435
1.50752
1.30924
1.36837
1.39789
1.54738
1.37067
1.54012
1.45001
1.3939
1.24085
1.46119
1.33364
1.37224
1.25246
1.31637
1.34021
1.43248
1.54082
1.37394
1.15283
1.36518
1.36886
1.37312
1.55356
1.35014
1.36895
1.33649
1.1544
1.16695
1.53897
1.47247
1.33862
1.52191
1.49439
1.42886
1.21007
1.31541
1.45158
1.24685
1.3332
1.32595
1.22546
1.43546
1.46215
1.28971
1.37671
1.4148
1.55448
1.40655
1.33674
1.3382
1.31671
1.42625
1.41305
1.48807
1.38179
1.4749
1.40811
1.34364
1.38735
1.54695
1.37275
1.32818
1.33594
1.30889
1.53464
1.3761
1.17873
1.51264
1.52938
1.31913
1.30205
1.34937
1.55636
1.48852
1.27299
1.5751
1.3104
1.39175
1.29365
1.54937
1.54455
1.34452
1.30422
1.56521
1.3908
1.55962
1.28858
1.38609
1.19917
1.56672
1.29507
1.53866
1.28219
1.44712
1.50451
1.35227
1.39552
1.28991
1.27249
1.59082
1.53057
1.55479
1.36153
1.39312
1.26514
1.2843
1.39382
1.26366
1.39272
1.41195
1.2083
1.42488
1.50344
1.59536
1.39999
1.40432
1.20766
1.59451
1.35951
1.42654
1.56871
1.27528
1.23044
1.41448
1.23137
1.40271
1.51523
1.25602
1.38792
1.38305
1.26576
1.26521
1.34262
1.33853
1.40878
1.29704
1.36834
1.59391
1.52347
1.40179
1.17169
1.24782
1.47432
1.3435
1.29396
1.16971
1.15266
1.63708
1.25834
1.40592
1.31746
1.36715
1.41977
1.66555
1.34349
1.23504
1.36672
1.40836
1.24878
1.54417
1.55361
1.40426
1.22875
1.3153
1.54627
1.40392
1.68718
1.94266
1.35049
1.40575
0.60483
1.23809
1.45564
1.36965
1.70067
1.25649
1.36946
1.4065
1.21398
1.59488
1.22833
1.34827
1.16699
1.42221
1.45151
1.49804
1.38274
1.61726
1.4228
1.33005
1.40008
1.54058
1.54948
1.21881
1.35524
1.22104
1.46478
1.37886
1.40474
1.41992
1.65527
1.42962
1.32682
1.55178
1.35279
1.2151
1.18084
1.22011
1.34842
1.61215
1.1685
1.56302
1.42443
1.29496
1.48567
1.54252
1.39133
1.36801
1.36849
1.33542
1.12756
1.48956
1.55039
1.24967
1.31621
1.39137
1.24527
1.48744
1.37862
1.42159
1.40289
1.4217
1.6504
1.39039
1.51113
1.41945
1.54004
1.52373
1.34619
1.57764
1.41545
1.31004
1.65554
1.55917
1.39693
1.39036
1.40825
1.49154
1.29532
1.5503
1.4038
1.42313
1.72368
1.4191
1.50451
1.49292
1.33215
1.397
1.15764
1.38285
1.97638
1.40801
1.4215
1.58247
1.45107
1.41283
1.92616
1.15742
1.41095
1.44297
1.15682
1.64089
1.53716
1.17029
1.43222
1.54512
1.49864
1.43081
1.40293
1.43118
1.43448
1.12646
1.44504
1.2931
1.31665
1.23876
1.17976
1.18123
1.15708
1.39873
1.23891
1.13976
1.26276
1.51062
1.51865
1.42397
1.31214
1.59829
1.5104
1.21516
1.55843
1.4363
1.33286
1.39589
1.60069
1.41662
1.43431
1.34688
1.13695
1.41188
1.49129
1.44566
1.33048
1.50335
1.10612
1.41454
1.34799
1.36786
1.41109
1.34947
1.41802
1.1242
1.1237
1.18435
1.12997
1.44702
1.42931
1.62813
1.40774
1.83139
1.46441
1.19187
1.47758
1.46828
1.84655
1.38458
1.40344
1.16976
1.35446
1.41492
1.38512
1.12987
1.55261
1.40722
1.18045
1.45532
1.38635
1.31647
1.46638
1.53128
1.50994
1.50692
1.39342
1.3651
1.41505
1.45277
1.38621
1.41521
1.46582
1.21126
1.46956
1.34733
1.48102
1.31438
1.41541
1.16338
1.50958
1.54106
1.12133
1.53838
1.32724
1.21191
1.11413
1.24774
1.2245
1.28491
1.37671
0.770386
1.40353
1.64671
0.787448
1.42585
1.42551
1.22964
1.45824
1.1413
1.32291
1.42388
1.51687
1.17236
1.11315
1.29509
1.54194
1.16767
1.42203
1.33035
1.22418
1.37309
1.22437
1.41944
1.22412
1.62384
1.38489
1.37699
1.12348
1.46598
1.34695
1.32008
1.18767
1.16776
0.633646
1.49913
1.41608
1.3326
1.46173
1.1695
1.72299
1.62422
1.3313
0.671671
1.62792
1.3553
1.40631
1.1732
1.18132
1.12209
1.34582
1.33453
1.43592
1.85215
1.67057
1.41048
1.2251
1.22559
1.20226
1.36422
1.56847
1.35487
1.12546
1.22791
1.1597
1.2202
1.11261
1.61806
1.39971
1.35874
1.36376
1.43257
1.17371
1.60695
1.62849
1.51569
1.35652
1.43729
1.35824
1.37066
1.35517
1.20552
1.62106
1.65729
1.24407
1.22726
1.43842
1.66492
1.22524
1.2431
1.44802
1.51333
1.18014
1.37997
1.35727
1.15069
1.1787
1.35757
1.426
1.80472
1.40336
1.34942
1.46014
1.3871
1.20201
1.36918
1.12348
1.24253
1.35258
1.3845
1.13683
1.26013
1.48915
1.37646
1.5628
1.41258
1.59658
1.46059
1.37235
1.12694
1.4877
1.20696
1.44306
1.27479
1.69679
1.42419
1.14504
1.50733
1.14711
1.13529
1.25962
1.28739
1.37061
1.51487
1.44917
1.44248
1.34885
1.35975
1.16828
1.37638
0.586532
1.37018
1.26783
1.28584
1.16955
1.1693
1.54354
1.12901
1.37929
1.20525
1.47278
1.34911
1.14731
0.560247
1.40583
1.40695
1.37031
1.37187
1.40545
1.24346
1.14055
1.46919
1.36657
1.46871
1.25746
1.29374
1.40244
1.28856
1.19257
1.52789
1.14593
1.29749
1.51041
1.34306
1.52756
1.21939
1.20312
1.49656
1.36933
1.3788
1.55079
1.29709
1.55143
1.28137
1.44139
1.29065
1.3894
1.48955
1.12407
1.55849
1.305
1.5477
1.3193
1.51324
1.34433
1.44034
1.3673
1.37674
1.18135
1.41365
1.26481
1.18197
1.21122
1.48907
1.15314
1.48646
1.22414
1.38719
1.33181
1.32118
1.46604
1.11181
1.44733
1.38686
1.50813
1.38072
1.4456
1.30377
1.35018
1.28782
1.4853
1.31
1.52035
1.15165
1.52805
1.4448
1.37138
1.21916
1.60621
1.37848
1.38471
1.44217
1.51287
1.42833
1.53875
1.43385
1.34648
1.16833
1.30724
1.1567
1.35802
1.47416
1.51892
1.61987
1.14352
1.3007
1.41094
1.43004
1.43768
1.14386
1.22198
1.43155
1.32905
1.48267
1.37706
1.19738
1.44787
1.5225
1.1558
1.17011
1.11379
1.3616
1.33137
1.47707
1.48263
1.16794
1.40237
1.41206
1.2997
1.39848
1.4218
1.31225
1.11084
1.49286
1.44167
1.45167
1.47534
1.30265
1.2215
1.50712
1.38123
1.51714
1.32814
1.48432
1.38331
1.29534
1.50589
1.42136
1.40366
1.40654
1.32847
1.29689
1.42112
1.36112
1.46639
1.27373
1.35847
1.35003
1.44242
1.36991
1.34558
1.36976
1.51594
1.40887
1.33718
1.32426
1.50347
1.27101
1.36416
1.33807
1.46576
1.24005
1.38566
1.11643
1.36728
1.33005
1.49653
1.37269
1.38426
1.75279
1.40261
1.24225
1.29478
1.16969
1.35072
1.47934
1.17157
1.38843
1.37976
1.35172
1.3093
1.39639
1.40447
1.35028
1.35965
1.59525
1.48448
1.39271
1.51638
1.39264
1.2996
1.3775
1.41607
1.51397
1.47775
1.37644
1.42813
1.35423
1.514
1.34985
1.36856
1.16642
1.34283
1.66246
1.33622
1.36831
1.35185
1.57786
1.41869
1.29822
1.36858
1.38141
1.33442
1.40944
1.12542
1.38997
1.42407
1.57362
1.5144
1.4553
1.4386
1.38387
1.38969
1.38207
1.39671
1.41238
1.30548
1.30793
1.29946
1.19538
1.16402
1.37509
1.40509
1.39819
1.39765
1.40047
1.16728
1.41557
1.2958
1.31452
1.36389
1.40519
1.93921
1.30783
1.34762
1.33547
1.4691
1.41797
1.38927
1.31926
1.29785
1.4647
1.41014
1.26199
1.36833
1.57408
1.30818
1.22962
1.37895
1.11243
1.29865
1.62947
1.41341
1.34982
1.39218
1.3491
1.44727
1.32381
1.45753
1.39265
1.42538
1.39782
1.51172
1.33768
1.19334
1.39804
1.37903
1.73092
1.36857
1.44673
1.29145
1.52064
1.31599
1.50908
1.7434
1.39331
1.33992
1.42393
1.72943
1.22039
1.40268
1.39754
1.38308
1.29959
1.15952
1.38257
1.41567
1.40183
1.40045
1.63324
1.37799
1.31714
1.40035
1.49136
1.54253
1.61646
1.30827
1.26032
1.4812
1.46399
1.39899
1.47959
1.33904
1.46419
1.58841
1.52568
1.17413
1.19163
1.38999
1.46173
1.18987
1.3877
1.35181
1.44278
1.58788
1.29277
1.41837
1.56259
1.40184
1.19032
1.40552
1.3147
1.68212
1.44164
1.40308
1.18997
1.22596
1.50577
1.41032
1.42373
1.32093
1.36461
1.34589
1.37855
1.19239
1.36359
0.612746
1.3969
1.36237
1.39506
1.44024
1.38059
1.38921
1.19363
1.20791
1.48265
1.36126
1.48143
1.40978
1.43859
1.0786
1.37974
1.37595
1.39011
1.55034
1.19037
1.50615
1.41124
1.4436
1.29068
1.39112
1.44592
1.37711
1.46259
1.32608
1.54606
1.58545
1.22553
1.40505
1.12682
1.41462
1.46188
1.45214
1.51216
1.37118
1.38643
1.48427
1.52003
1.21515
1.72891
1.44308
1.189
1.3404
1.20918
1.54817
1.07933
1.16768
1.40224
1.37027
1.5084
1.50757
1.46414
1.32326
1.37405
1.39043
1.40257
1.43688
1.42391
1.46101
1.39007
1.36474
1.11042
1.12549
1.43216
1.44411
1.4934