/*--------------------------------*- C++ -*----------------------------------*\
  =========                 |
  \\      /  F ield         | OpenFOAM: The Open Source CFD Toolbox
   \\    /   O peration     | Website:  https://openfoam.org
    \\  /    A nd           | Version:  12
     \\/     M anipulation  |
\*---------------------------------------------------------------------------*/
FoamFile
{
    format      ascii;
    class       volScalarField;
    location    "7.375";
    object      T;
}
// * * * * * * * * * * * * * * * * * * * * * * * * * * * * * * * * * * * * * //

dimensions      [0 0 0 1 0 0 0];

internalField   nonuniform List<scalar> 
46253
(
0.97607
0.987453
1.03755
0.987066
1.0359
1.03408
0.968918
0.973432
0.988531
0.989061
0.975066
0.913986
0.987536
0.98662
0.395258
0.988987
0.988852
0.987025
0.98755
0.989192
0.989677
1.03181
0.168233
0.985715
0.970176
0.988363
0.989084
0.988621
0.988006
0.973095
0.987244
0.983717
0.983361
0.988972
0.989197
0.682427
0.985711
0.9858
0.968163
0.235964
0.971862
0.913882
0.984928
0.98476
0.897595
0.986054
0.985448
0.373592
0.985236
0.985741
0.9858
0.985865
1.03072
0.967716
1.04104
0.93158
0.98578
0.986233
1.0094
0.971785
0.730912
0.968077
0.668546
0.398237
0.356099
0.986429
0.986636
1.02889
0.932726
0.898951
0.971899
0.985528
0.985387
0.970257
1.03083
0.983635
0.984288
0.985181
0.303489
0.983763
0.984115
0.984536
1.03069
0.98408
0.975921
1.0245
0.981267
0.980181
0.965992
0.702101
0.407666
0.971011
1.02373
0.985681
0.526013
0.986279
1.02347
0.307301
1.00964
0.728704
0.392404
1.0229
1.02988
0.986965
1.04025
0.972479
0.9149
0.973722
0.973398
0.921321
0.971439
0.985007
0.985218
0.296203
0.258776
0.965282
0.902643
0.972075
1.04046
0.935337
0.317062
1.03215
0.983358
0.983403
1.01736
1.04231
0.745082
0.92796
1.04363
0.985606
0.970607
0.969896
1.03304
0.972893
0.985194
0.716503
0.981923
0.981662
0.934683
0.727277
0.982938
0.96744
0.967398
0.985154
0.98276
1.04221
0.981521
0.98199
0.968594
0.68244
0.921209
1.03172
0.984165
0.982972
0.976725
0.900087
0.927676
0.354723
0.977082
1.03989
0.977336
0.914907
0.930357
0.718656
0.968308
0.981289
0.973535
0.981401
1.06938
0.671874
0.977954
0.978273
1.02981
0.972524
1.03887
0.896483
0.964638
1.02167
0.969577
0.903318
1.03912
0.976216
0.974551
0.974233
0.99633
0.978682
0.977495
0.896795
0.993489
0.995637
1.03135
0.932096
0.969165
0.945487
0.824633
0.792233
0.971553
1.01301
0.951421
0.951221
0.347587
0.654187
0.977657
0.978172
0.753345
0.901264
0.974652
0.973759
0.973915
0.63913
0.253434
1.0407
0.972438
1.02616
0.963776
1.01302
0.983441
0.974637
0.971622
1.02927
1.03008
0.971442
0.896142
0.977369
0.976249
0.972831
1.01609
1.02225
0.944929
0.945477
0.998907
0.36734
0.757314
0.770209
1.01547
0.453314
0.893644
0.3256
0.998078
1.00239
1.01626
1.0224
1.01063
0.890415
0.759357
1.0298
0.356345
0.973553
1.00942
0.967797
0.967783
1.00174
0.937739
1.00827
0.938909
0.973639
0.973717
0.93424
0.9724
1.00602
0.976238
0.969582
0.92067
0.985688
0.966786
0.412023
0.333261
0.310053
0.973251
0.965668
0.972956
1.02183
0.974842
1.38439
0.96547
1.01587
1.04119
0.60976
0.967985
0.940185
0.929479
0.930733
1.03081
1.02673
0.291217
0.970075
0.968386
0.934047
0.979496
0.660415
1.00844
1.00875
0.970478
0.381216
1.00685
0.992996
1.02292
0.99258
0.97249
0.963053
1.0387
0.963054
0.929251
1.03906
0.992927
0.969054
0.968361
0.639673
0.985077
0.985865
0.997058
0.967901
0.400697
0.961598
0.99897
0.961617
0.932901
1.00638
0.739042
0.967998
0.928687
0.998855
0.96796
0.970467
0.965057
0.978225
0.999085
1.01135
0.958388
0.957834
0.922868
0.922658
0.989289
0.721889
0.998946
0.967288
0.932953
0.966906
0.966533
0.459305
1.03141
1.0321
0.312154
1.0418
1.00846
0.95674
0.957245
0.369612
0.935008
1.02191
0.968208
0.726356
0.901671
0.500515
0.916205
0.999962
0.96433
0.676673
0.963814
0.738352
0.916616
1.02868
1.0062
1.028
0.947314
1.00801
1.00728
1.00826
0.955673
1.00346
0.997117
1.00029
0.998357
0.955378
1.00416
1.00407
0.934008
1.0202
1.00356
0.595525
0.972998
0.961634
0.92876
0.962596
0.97009
0.96241
1.00852
0.117518
0.952712
1.04751
0.993321
0.980352
0.95242
0.968097
1.00014
0.970745
0.970612
0.970302
1.0024
0.957932
0.544416
0.979211
0.980401
1.0037
1.02043
1.02112
0.975262
0.803638
0.175987
0.999643
1.00055
0.861893
1.03403
0.995763
0.956756
1.02231
0.96883
1.01111
1.00174
0.9347
1.02276
0.420156
0.952081
0.989918
0.96068
0.979583
0.594684
0.952194
0.959843
0.966969
0.966037
0.646099
0.430248
0.779621
0.771978
0.947693
0.966056
0.99658
0.921225
0.96792
0.929292
1.02278
0.969061
0.968921
0.948896
0.97753
0.920662
1.00028
0.931567
0.444039
0.940335
0.958159
0.80901
0.968795
1.1996
1.02033
0.968093
1.02062
0.9571
0.952959
0.997801
0.952258
0.951994
0.956785
1.00312
0.951489
1.02285
0.986372
1.02274
1.0001
0.986737
0.969803
0.440287
0.968007
0.929577
0.947429
0.939594
0.972038
0.94629
0.967481
0.976081
0.974932
0.61658
1.0165
1.01432
0.732569
1.04514
0.360403
0.940917
0.972609
0.907632
0.941606
0.952175
0.97173
0.951548
1.43222
1.00095
0.956627
0.95489
0.920926
0.956407
0.944281
0.944528
0.979208
0.972331
1.00609
0.979633
0.986801
0.801947
0.207449
0.998054
0.970492
1.02071
0.969867
0.968322
0.737314
0.977547
0.951924
0.999323
0.765478
0.96666
1.04359
0.957718
1.00819
1.00381
0.957883
1.00336
0.957572
0.957138
0.957758
0.298019
0.96559
0.96464
0.47413
0.952921
0.953699
1.00177
0.666441
0.954118
0.424556
0.982585
0.938128
1.00232
0.978089
0.953452
0.730506
0.74693
1.02087
1.02048
0.905324
1.02224
1.02311
0.94361
0.93959
0.942746
0.972127
1.02067
1.02095
1.01732
1.01845
1.00663
1.02467
0.816396
0.951844
0.908732
0.924364
0.807103
0.726523
1.02082
0.979553
0.841807
0.979108
0.982502
0.754827
0.978369
0.906364
0.931395
0.92879
0.406067
0.907094
0.994
0.952017
0.995029
0.945591
0.952273
0.978037
0.992496
1.00476
0.992569
0.993166
0.993144
0.977564
0.965911
0.938302
0.93799
0.980669
0.981103
0.992255
0.920575
0.970056
0.99963
1.03973
0.967411
1.02203
1.03938
1.021
0.99986
0.984918
0.986662
1.00097
1.0053
0.975986
0.95165
1.00305
1.00042
0.967808
1.01728
1.01703
1.01409
1.01523
1.01301
1.01319
1.01122
1.01181
0.89556
0.948465
1.0099
0.962726
1.01016
1.00801
1.00335
0.982876
0.979132
1.00855
1.00678
1.00553
1.00212
1.00586
0.419857
0.950827
1.00505
0.973207
1.00534
1.0217
1.00511
1.00415
0.775149
1.00425
0.7688
0.906246
0.972835
0.940672
0.979964
0.923392
0.9455
1.00071
1.00155
1.00552
0.956148
0.998891
0.998841
0.967688
1.01184
1.01141
0.995143
0.93987
0.996308
0.999184
0.950163
0.993746
0.931629
0.993636
0.939874
0.949491
0.98787
0.912704
0.916452
0.991687
0.99248
0.968135
0.983955
0.985896
0.988818
0.94374
0.988833
0.929159
1.00705
0.986775
0.987607
0.990074
0.981083
0.990154
0.968215
0.982058
0.95382
0.964729
0.987276
1.01405
0.98331
0.914977
0.983835
0.929774
1.00919
0.954781
0.955024
0.98068
0.981061
0.94957
0.957038
0.979252
0.957406
0.979602
1.01378
0.970783
0.976001
0.976237
0.997831
0.933747
0.972746
0.973566
1.06077
0.967122
0.975528
0.948573
0.969333
0.947705
0.969728
1.02473
0.983944
0.953233
0.921803
0.968597
0.968411
0.964348
0.967128
0.967546
0.935429
0.933454
1.01769
0.972752
1.04156
0.930478
0.716969
0.922517
0.929827
0.931806
0.982942
0.984446
1.01604
1.0177
1.01664
0.945331
0.916029
1.01926
0.921007
0.613108
1.02064
0.944787
0.6002
1.01939
1.02007
0.936963
0.936086
1.00442
0.969742
0.895206
0.982239
0.44533
0.733812
0.998861
1.02459
0.151607
0.962322
0.95198
0.948707
1.02188
0.989694
0.965778
0.990393
0.932693
0.879357
0.968628
0.971958
0.993836
1.02417
0.509655
1.00508
0.19653
1.00494
0.991499
0.990258
0.961584
0.981337
0.983896
0.998736
0.940125
1.00059
1.00211
0.990937
0.963267
1.02135
0.973543
1.02057
1.02317
0.970322
0.971654
1.00294
0.991936
0.927816
0.952196
0.549447
0.951373
0.934472
0.567058
1.02415
0.951314
0.951756
1.02383
0.934604
1.03804
1.02328
0.635944
0.998814
0.998643
0.948158
0.975669
1.03555
1.03617
0.972088
0.964628
0.977069
0.956135
0.970205
0.928602
1.02001
1.00052
1.00068
0.596862
0.989611
0.989117
1.01672
1.02169
0.721906
0.944885
0.985101
0.510845
1.02184
0.98558
0.944793
0.951891
0.950868
0.58839
0.948419
0.957863
0.921903
0.947751
0.928253
0.978253
0.995456
0.997632
0.978641
0.406988
0.997615
0.950501
0.94823
0.99488
0.927583
0.937119
0.955775
0.933762
0.932101
0.927037
0.934467
0.934066
0.928267
0.927254
0.991578
1.02289
0.978269
1.02288
0.991968
0.951347
0.940087
0.934662
1.00308
0.882698
0.958318
1.01226
0.956604
0.957924
1.02015
1.02054
0.98954
1.02048
0.340321
1.02161
1.00339
0.949224
0.957125
0.979393
1.03587
1.00059
0.940455
0.973697
0.958491
0.95878
0.939065
1.02357
0.95832
0.954525
0.957814
1.00598
1.00424
1.00287
1.00803
0.954986
0.957321
0.939599
0.965927
1.02318
0.934376
0.960625
0.934615
0.984338
0.968622
1.00115
0.927943
0.928163
0.971993
1.03159
1.01609
0.934252
0.970931
0.971318
0.934657
1.01941
1.02038
0.952238
1.02513
1.00486
1.00402
0.956281
0.90417
0.977108
0.953332
0.98733
1.01738
1.01201
1.01815
1.00498
1.02283
1.0483
1.02286
0.98048
0.933349
0.932753
0.969726
1.0236
1.03179
1.03096
0.935018
0.986246
0.983662
1.03734
1.00478
1.00532
1.00645
1.00286
1.0049
0.489557
0.969406
1.00552
1.00926
1.00335
0.951216
1.00715
0.9959
0.999234
1.00955
0.949085
1.01042
0.999768
1.0107
0.993648
0.997617
1.0095
1.0126
1.01276
0.998107
1.01326
1.01168
0.993858
1.01387
0.925563
1.01621
0.994441
1.01251
0.993387
1.01689
0.605674
0.992714
0.924134
0.99343
0.993804
0.847644
0.983271
0.989392
0.993563
0.998359
0.983773
0.78067
0.990362
0.923677
1.02489
0.988864
1.00543
0.954779
0.989045
0.984374
0.984541
0.932848
0.98181
0.982447
0.979996
1.0003
0.985096
0.980152
1.00431
0.977116
0.977843
1.00639
0.977848
0.977453
0.942825
1.02158
0.974788
0.975063
0.970557
0.940024
0.971344
1.02512
0.968591
1.00708
0.962527
0.940928
0.968712
0.968197
0.96097
0.949952
0.968264
0.960062
0.960872
0.97671
0.968397
0.965613
0.966205
0.981192
1.01993
1.04478
1.00259
1.01913
1.00213
1.02053
1.01802
1.02095
0.73355
1.04189
0.983893
0.270357
0.919361
0.929736
0.979696
0.982738
1.00299
0.974266
0.993903
0.99488
0.97759
0.977111
0.991906
0.994298
0.992972
0.991846
0.969394
0.934822
0.957744
0.95122
1.00364
0.957269
0.938039
0.931619
0.963484
0.581042
1.00366
0.990288
0.913508
0.514288
0.923112
0.971914
0.958657
0.92316
0.508474
1.01452
0.999008
0.947763
0.962761
0.971813
0.990331
0.967492
0.969159
0.904007
0.936425
0.959648
0.932623
0.961943
0.973442
0.913772
0.935586
1.01649
0.955925
0.994604
0.963651
1.00521
0.994631
1.00756
0.948816
0.96401
1.01358
1.00352
0.98592
0.954603
1.02093
1.0012
0.989014
1.02184
0.965423
0.92749
0.627419
0.972584
0.997358
0.954018
0.949278
0.985151
0.590422
1.04523
0.930624
1.01118
0.932113
0.957003
0.956789
1.04126
0.995271
0.955631
1.02046
0.924781
1.00213
0.966774
0.915351
0.919317
0.939569
1.00038
0.995089
0.956985
0.930273
0.95884
0.951841
0.95325
0.953464
0.996195
0.914461
0.959218
0.950863
0.949708
0.927436
0.967591
1.02112
0.950217
0.916582
0.958902
0.920643
0.95895
0.991154
1.58652
0.937422
0.936988
0.939659
0.955962
0.996254
0.947497
0.956807
0.984374
0.982917
0.934312
0.947896
1.02285
0.976935
1.0023
0.981108
0.969747
0.95228
1.00297
0.953994
0.932075
1.01845
0.953707
0.9428
0.953885
0.904292
0.966174
0.920927
1.00647
1.01992
0.920849
0.412476
1.01662
0.949601
1.01482
1.01798
1.00549
1.00206
1.01489
0.951149
0.919534
1.00127
0.992521
0.972441
1.01272
1.00497
0.95337
0.222143
0.998894
1.0133
1.00877
1.0242
0.955842
1.03784
1.02474
1.02188
0.935786
1.00906
1.02225
1.00367
1.00689
0.351054
1.0211
0.972801
1.00591
0.978351
0.988428
1.01056
0.933601
0.92546
1.01587
1.00408
1.00635
0.983142
0.980644
0.826001
1.0065
0.935264
1.00854
0.991076
1.0043
1.00227
1.00518
0.995116
0.986398
1.00378
1.00898
1.005
0.942933
0.965147
1.00644
0.945414
1.00311
0.957731
0.951219
1.01083
0.967571
1.02289
0.956326
0.984407
1.01178
1.00825
0.942233
0.800058
0.966066
1.01088
1.00623
1.00611
0.91028
0.967581
1.02179
0.967583
1.026
0.984877
0.962097
0.995129
1.01015
0.993439
0.96628
0.937882
1.0185
1.00854
1.01753
1.00687
1.00997
1.00287
0.913333
1.00651
1.00516
0.993641
1.00497
1.00993
0.933
0.903702
0.963191
1.00599
1.00087
0.625158
1.00725
0.993831
1.01091
1.01089
0.955126
1.00854
1.00323
0.938578
1.00146
1.0019
0.935922
1.00411
1.0055
1.00352
0.989586
0.992502
0.999941
1.00635
0.917768
0.918316
0.936781
0.998792
0.933165
0.933443
1.00514
1.00184
0.921548
0.922698
0.990087
0.992488
0.920505
0.992785
0.989888
0.965397
0.991778
0.992102
0.977088
0.998443
0.997912
0.968302
0.983938
0.990347
0.996583
0.99671
0.991135
0.974816
0.992704
0.634269
0.925767
0.992248
0.997746
0.984
0.935337
0.956145
0.991254
0.993342
0.931958
0.992664
0.908628
0.992666
0.939164
1.00008
1.01823
0.929839
0.929149
0.951452
0.993791
0.992332
0.988913
0.400942
0.984315
1.00338
0.997427
0.977421
1.0354
0.986085
0.990783
0.988397
0.917543
0.988668
0.988927
0.987964
0.988198
0.997425
0.93212
1.00722
0.992643
0.992379
1.00322
0.989046
0.98983
1.01505
0.999279
0.920838
1.00053
0.983181
0.997473
0.983504
0.982419
0.996173
0.919569
0.925647
0.966905
1.00714
1.02838
0.964736
0.983751
0.990896
0.987677
0.991552
0.95431
0.974771
0.989831
0.967148
0.939689
1.00332
0.924668
0.979377
0.979094
0.920375
1.01612
0.97162
0.96738
0.975729
0.968736
1.02235
0.944492
0.99459
0.975364
1.02596
0.932002
1.00296
1.02179
0.931785
0.975712
0.927872
1.00149
1.02359
0.976455
0.923132
1.01821
0.961709
1.01278
1.01303
1.01247
1.01118
1.03214
0.93755
0.934016
1.00679
1.00091
1.02116
1.03462
0.96177
0.95332
1.00028
1.0307
1.02999
0.961511
1.02067
0.983714
0.995241
0.974237
0.973568
0.978133
1.02318
0.96823
0.973958
0.979643
0.969772
0.97458
0.983883
1.01666
1.00944
1.01133
1.02082
1.01045
1.01563
0.968783
0.987686
1.00628
1.02469
1.00887
1.00945
0.99899
1.02192
1.00558
0.988269
0.928085
1.00677
0.926729
0.992913
1.01778
1.00585
1.00994
0.964069
1.02186
1.00988
0.96591
0.968538
0.966581
0.925442
1.01997
0.927521
0.999867
1.02217
0.932674
0.905087
0.922275
0.986279
0.918414
1.0262
0.957313
0.958389
0.926976
1.02073
0.964007
1.02296
1.02259
0.922075
0.99755
0.964238
0.943451
1.02003
1.01806
0.926622
0.925374
0.970693
1.02125
0.95953
0.98512
0.960559
0.958173
0.962024
0.917977
0.957669
0.996552
1.0171
0.997742
1.02692
0.963637
0.958559
0.970149
0.964089
1.02519
0.941596
0.989306
1.01936
0.941467
0.98859
0.929801
1.01281
0.93661
0.954732
0.964401
1.01298
1.021
0.952089
0.923446
0.988459
0.963591
0.954504
1.00168
1.00326
1.01762
0.919359
0.989283
0.971949
0.938406
0.961436
0.920272
1.02112
0.98926
1.02119
0.909116
0.952342
0.978275
1.02139
0.976829
1.0078
0.990228
0.977687
1.02062
0.940848
0.921221
1.0081
0.991975
1.01752
0.950356
0.946328
0.349602
0.948067
0.960505
0.951503
1.01163
0.948524
0.930855
1.0046
0.998697
0.997552
1.02092
0.984736
0.964661
1.01614
0.999668
0.983781
0.996798
1.0428
0.990506
0.982892
0.943066
1.01235
0.942347
0.97496
0.979899
0.942955
0.985335
0.996311
0.980811
0.983396
1.0208
0.978824
0.942933
0.947396
0.472096
0.601762
0.979046
1.01704
1.00225
1.0173
0.952633
0.996927
0.998005
1.02565
0.992856
0.920916
0.995077
0.905055
1.01911
0.806592
0.257148
1.00197
1.01881
1.02235
0.976503
0.93937
0.915601
0.913956
1.00737
0.945605
0.940072
0.93506
1.00711
1.00477
1.01292
0.935488
0.956817
0.97504
0.998509
0.997752
0.969711
0.97419
1.01649
1.01814
1.00698
1.01932
0.936611
1.00052
1.01903
0.933541
0.959962
0.936289
0.932011
0.983183
0.936569
0.974851
0.96786
1.01366
1.01363
0.922997
0.952566
0.978182
0.970029
0.953988
1.00448
0.927251
1.01373
0.996778
0.96647
0.929382
0.926893
1.01083
0.951083
0.907361
0.965126
0.934102
1.01938
0.906918
0.926244
0.917136
0.928846
1.0099
0.990838
1.02973
0.967525
0.9515
0.969848
0.953513
0.969705
0.967613
0.979401
0.96371
0.977533
1.01245
0.982104
1.01865
0.628285
0.952197
0.950737
0.956201
0.950765
1.01091
0.962655
1.01974
0.99097
0.955512
0.964597
0.91408
0.918386
0.926305
0.913961
0.991764
1.00722
0.964324
0.915535
1.01568
0.91459
1.02052
0.931765
1.00916
0.96097
1.00553
0.915396
1.01948
0.920887
0.951733
0.229297
1.00015
0.952176
0.961874
1.01244
0.987209
1.01636
0.961047
0.98178
0.960653
0.916974
0.916431
0.938724
0.912675
0.960288
0.99024
1.00869
0.916306
0.940027
1.0117
0.928416
1.01691
0.996087
0.948493
0.950847
1.00999
0.958452
1.00681
0.940037
0.992659
0.916861
0.91699
1.01757
0.939518
1.00767
0.949273
0.955864
1.4153
1.40586
1.0028
0.952639
0.994058
0.955824
1.01944
1.01694
1.0034
0.942077
1.00346
0.941124
1.00358
0.917507
1.00262
1.01145
1.01092
0.93617
0.984417
1.00874
0.941335
1.00569
1.00834
1.01809
0.940907
0.931741
0.916127
0.949873
0.999312
0.929202
1.00648
0.998497
1.00652
0.950348
0.734717
1.00249
1.00766
0.971815
1.00693
0.961502
1.0115
0.991311
1.00765
1.00833
1.00456
1.00488
1.00408
1.00366
1.01073
1.00173
0.99583
0.992917
0.994166
1.01374
0.965154
0.969066
0.999456
0.993984
1.00732
1.00387
0.97626
0.929262
0.944273
1.00472
0.99605
0.998533
0.968213
0.99334
1.0219
1.01195
1.00839
1.00342
1.00095
0.962945
0.942032
0.993344
1.00383
0.964096
0.944387
0.942625
0.977707
0.942005
0.963153
0.989777
1.0005
0.993287
0.949841
0.994544
0.951279
0.940117
1.01589
1.00015
0.988435
1.00562
0.918718
1.00589
0.999637
0.950308
0.963943
0.999473
0.988394
0.939746
0.940049
1.00473
0.970799
0.999802
0.99945
0.962394
0.935236
0.948941
0.951176
0.989384
0.955047
0.988928
0.944067
1.00316
0.960788
0.956234
0.937149
0.984662
1.01157
0.970178
0.951347
0.992914
0.998044
0.984227
0.964974
0.976928
1.01886
0.962713
0.92626
1.01844
0.99137
0.964906
1.01535
0.962963
0.985805
0.957915
0.925776
0.984858
0.991948
0.964411
0.975545
0.979086
0.974068
0.930398
0.994232
0.921843
0.921803
0.979292
0.971547
0.992861
0.926716
0.976956
0.957107
0.962386
0.977911
0.95761
0.913706
0.696315
1.00443
0.994137
0.917163
1.0013
1.00838
0.993653
1.01873
0.999729
0.999817
1.00113
1.00348
0.994041
0.970225
1.01284
0.962202
1.00192
0.992388
1.02619
0.638327
0.920466
1.01343
1.00637
0.996846
0.998795
0.962547
1.01484
0.975092
0.983326
1.00017
0.934276
0.927068
1.00724
0.976609
0.962139
0.997171
0.973629
0.965531
0.980769
0.996133
0.974778
0.972137
0.996252
0.963289
0.917967
0.964435
0.980604
0.974076
1.02602
0.970114
1.00494
0.964546
0.993764
0.967193
0.96949
0.98139
1.0362
0.981369
0.934503
1.0116
0.993219
0.962925
0.982923
0.967373
0.983092
0.965136
1.00695
0.997072
1.01632
1.01915
0.996466
0.958792
0.941759
0.995632
0.981149
1.01629
0.985819
0.983624
0.948089
0.963452
1.01621
0.9802
0.99894
1.00751
0.964032
0.959337
0.963593
0.996481
1.0274
1.01657
0.976758
0.996736
0.95096
1.02778
0.994295
0.999023
0.964284
0.997826
1.00056
0.961718
0.933796
0.984831
0.957664
0.994022
1.01611
1.01326
0.9919
0.970278
1.01569
0.945003
1.0281
0.943652
0.95972
0.99909
0.908991
0.951166
0.933432
0.995222
0.928966
0.95112
0.994022
0.919556
0.946564
0.994705
0.987194
1.01493
1.00241
0.951324
1.01803
0.824937
0.977809
1.01879
0.98259
0.311679
0.986465
0.954325
0.945767
0.981838
0.977064
0.99383
0.920426
0.999983
1.00313
1.00639
1.02948
1.0012
0.994244
0.998121
1.00469
0.942225
1.016
0.984184
0.945003
0.967533
0.972561
0.990992
0.978519
1.00257
0.992039
1.01834
1.00858
0.989258
0.947619
1.01009
0.955321
0.941872
0.961005
1.00145
0.991807
0.963359
0.922983
0.951541
0.971288
0.966408
0.9701
0.977973
0.919141
0.979248
0.976083
0.923417
0.514814
0.992701
0.983142
0.954327
0.986374
0.956305
0.99029
1.00608
0.94087
0.936728
0.975399
1.01357
0.986755
0.983725
0.990419
1.0033
0.935591
0.999676
0.950843
1.01137
0.941298
0.92384
0.987754
0.999378
0.937953
0.978727
0.978297
0.985974
0.950688
1.00803
0.991344
0.960638
0.994427
0.497732
1.00125
0.926846
0.993346
0.934662
0.988888
0.94578
0.988627
1.01827
1.0009
1.0023
1.00074
0.993597
0.99311
0.945858
0.999913
0.933839
0.94411
1.02012
0.988567
0.959654
0.993206
1.00921
0.992682
0.935853
0.945203
1.00327
1.00567
1.0027
0.996389
0.993563
0.891679
1.00247
0.988662
0.99524
0.977526
0.897851
1.01557
1.0024
0.932687
0.946295
0.913317
1.0109
1.00145
0.984703
1.03004
0.998687
0.920462
0.934552
0.998147
0.998559
0.9675
0.915434
0.985419
0.997344
0.919742
0.919768
0.923295
0.919942
1.01003
0.926501
0.99973
0.928746
0.999487
0.962476
0.999033
0.941323
0.940455
0.931693
0.999443
1.02082
0.939178
0.941989
1.00094
0.942104
0.935729
0.984372
0.922777
0.999003
0.928277
0.995173
0.938099
0.963884
0.999798
1.00249
1.00111
0.996874
0.998872
0.988482
0.99854
0.976219
0.933813
0.925917
0.998179
0.926356
0.9812
0.825557
0.942279
0.991002
0.944361
0.980537
0.946703
0.943727
0.943409
0.998385
1.00344
0.924371
0.997073
1.01917
0.951267
1.01634
0.913709
0.681624
0.989616
0.927131
0.973976
0.924209
0.94133
0.974458
0.941478
0.96426
0.963101
0.964245
0.972733
1.02272
0.975262
0.996464
0.999414
0.961835
0.99403
0.999187
0.974607
0.999269
0.964689
0.993288
0.912097
0.973231
0.995332
1.00337
0.956448
0.960939
0.973876
0.965161
0.998443
0.995112
0.99106
1.00388
0.927599
1.01895
0.99057
0.915256
1.0163
0.970396
1.00242
0.987606
1.01785
0.921946
0.970909
1.00704
0.951912
1.02098
0.935103
0.935153
0.995251
1.00304
1.02158
0.967728
1.00759
1.01113
1.00174
0.499072
0.994761
0.96817
0.963999
0.928659
1.00525
0.492122
0.645978
1.00423
0.965939
1.00673
0.999303
1.00617
0.966209
1.01823
0.942171
0.977279
0.982945
0.963358
0.929464
0.982475
0.985444
1.01046
0.96392
1.00068
1.00587
1.01763
1.01745
1.01103
0.92821
0.961533
0.870036
0.930737
0.969251
1.00711
0.981803
0.96255
0.998728
0.947178
0.961718
1.00789
0.927907
0.963734
1.01649
0.936345
0.957331
0.985078
0.982173
0.959569
0.916368
0.983396
0.989926
0.988615
1.00748
0.935988
1.0097
1.00896
1.02208
0.946345
1.01525
0.959883
1.01841
0.979496
0.934775
1.01526
1.00815
1.00199
0.960375
1.01079
1.02029
0.964399
0.96337
0.93418
0.988619
0.940314
0.982908
0.957795
1.01869
0.923735
1.00774
1.01793
0.95308
0.923457
0.937894
0.98854
0.958261
1.01535
0.963413
0.908283
0.962125
1.01095
0.99533
1.00567
1.01167
0.961669
1.00186
0.969533
0.941523
1.00345
1.04711
0.973376
1.02057
0.954451
1.00175
1.01817
1.00068
1.02052
0.975488
1.00751
0.941512
0.954964
1.01314
0.920733
0.946052
1.002
0.984065
0.924453
1.01788
1.04088
1.0203
0.912069
0.944576
0.953281
0.953241
0.932789
0.992905
1.00125
1.01262
0.983504
1.00207
0.997252
0.945794
0.932521
0.997981
1.01296
0.945364
0.94483
0.949515
0.951342
0.988828
0.924282
1.02178
0.945557
0.950077
0.952401
0.924547
1.00368
0.950056
0.963161
0.996191
0.958676
1.00027
0.983538
1.02058
0.924349
0.960178
0.980308
0.948157
1.01896
0.924684
0.583506
0.995182
0.948475
1.02088
1.03157
0.999493
0.951807
1.02777
0.980903
0.946174
0.951143
0.983984
1.02211
1.00171
1.00848
0.956882
0.99029
0.920853
0.943414
1.01934
0.994518
0.943892
1.01571
0.955964
1.00846
0.993694
1.02068
0.956549
0.943452
0.943266
0.99496
0.985209
0.956594
0.998661
1.0162
1.0095
1.00039
0.91781
0.993151
0.94149
0.959897
0.992376
0.89801
1.01597
0.959855
1.02108
0.935958
0.832148
0.955653
0.958559
0.996328
0.997151
0.962044
0.993566
0.93662
0.909237
0.739785
0.938256
0.988882
1.02063
0.999543
0.996514
0.999213
1.01311
0.995086
0.992539
1.00024
1.00027
0.953768
0.964032
0.999487
0.994102
0.923418
0.994323
0.931886
0.996644
0.995173
1.00027
0.963422
1.01221
0.959091
0.868922
0.969104
0.997694
0.958486
1.01376
0.930434
0.995588
1.00216
0.977329
0.909843
0.996185
1.01656
1.01895
0.969027
1.00436
0.9257
0.939211
0.965001
0.912662
0.993352
1.01563
1.01924
1.003
0.942472
1.03163
0.924054
0.995236
0.997038
0.964577
0.959947
0.961562
0.978647
0.997014
0.963242
0.959
1.00209
0.823308
0.933787
1.00053
0.995705
1.0151
0.969816
0.995202
0.994636
0.98645
0.9692
1.0198
0.942813
0.970866
0.992662
1.01856
0.964257
0.940114
0.933787
0.999899
0.994887
1.00555
0.970309
0.963262
0.998108
0.996582
0.930883
0.940843
0.991384
0.941936
0.932188
1.01209
0.95257
1.01607
1.00606
1.01294
0.975122
0.992679
0.940076
1.01977
1.01843
0.941735
0.996709
1.01254
0.989189
1.01547
0.974917
0.952992
1.00837
1.04782
1.01582
0.974566
1.00739
0.961735
1.00318
1.00821
0.991263
0.972603
0.974458
0.871561
0.911519
1.01087
1.01282
0.965369
1.04322
0.977554
0.964797
1.01374
0.975776
0.946906
0.939097
1.0031
0.986956
0.989329
0.970348
0.977062
0.975177
1.01353
0.947566
0.991024
0.940907
1.01155
0.997026
1.01877
1.01798
0.926358
0.978316
0.978398
1.01397
0.932222
0.933841
1.02594
0.973378
0.988705
0.924175
0.959468
0.945846
0.987703
0.971132
0.939383
0.9403
0.942423
0.977892
1.0153
1.0107
0.941582
0.97783
0.9395
0.984159
0.943036
0.963188
1.01395
0.980269
0.983893
0.970759
0.982521
0.936721
1.00564
1.01828
1.01393
0.979434
0.9798
0.935438
0.97012
1.0164
1.00642
0.9474
0.981434
0.924162
0.984031
0.976256
0.923701
0.923737
0.923629
1.02767
0.979468
0.924014
1.00233
1.00891
0.96718
0.982795
1.0005
1.00247
0.983172
1.01209
1.0049
0.999257
0.946705
1.00789
0.973793
0.99207
0.949113
0.969309
0.9763
1.00018
1.01099
0.992516
0.91974
0.985488
0.981039
0.983898
1.0046
0.978347
0.983014
0.974699
0.920204
0.924634
1.00381
1.01091
0.975822
1.02417
1.01523
0.999278
0.938545
0.968901
1.00536
0.947485
0.973512
0.971663
0.942224
1.00101
1.00817
0.96164
0.985038
0.995534
0.992937
1.00149
0.975215
0.97508
0.968986
0.998688
1.00114
1.01503
0.98614
1.01159
1.00194
0.975043
0.987883
1.00345
0.983982
0.972219
0.974978
0.966714
1.00177
0.984558
0.928289
1.02147
1.0259
0.969618
0.964757
0.978797
0.999309
1.01517
0.951907
0.985179
0.967076
0.988773
0.962296
1.00372
0.996531
0.977382
0.965309
0.992804
0.988546
0.998242
0.960812
0.987613
0.934544
0.991912
0.962644
0.996521
0.958918
1.0132
1.01774
0.977617
0.989626
0.96114
0.956042
0.970705
1.00762
0.99492
0.982186
0.98901
0.952322
0.95948
0.9993
0.953433
0.98914
1.00144
0.936667
0.99933
1.01735
0.927716
0.99966
1.00089
0.93643
0.936871
0.981598
0.999851
0.983613
0.956828
0.944011
0.999519
0.944318
0.991454
1.0205
0.951155
0.987843
0.988551
0.952555
0.953821
0.984214
0.983129
0.998954
0.963466
0.984097
0.985678
1.02246
0.991236
0.926147
0.948702
1.01131
0.981521
0.962806
0.925546
0.920573
0.955039
0.951814
0.992669
0.968702
0.983727
0.996408
0.942353
0.981472
0.944878
0.981646
0.992814
0.94893
0.993118
1.01289
0.99228
0.942989
0.968124
1.00935
0.999603
0.934717
0.842587
0.983671
0.992146
0.345413
0.94577
1.00539
0.984756
0.926799
0.946143
0.982234
0.992588
0.938498
0.992025
0.94281
0.982971
0.924704
1.00603
1.00444
1.02894
0.988127
0.959629
0.996507
0.972147
0.99867
0.9928
1.02401
0.940004
0.984417
0.940629
1.00521
0.987
0.992165
0.995813
0.955954
1.01044
0.971263
1.02292
0.984517
0.938824
0.928098
0.941263
0.983065
0.969426
0.925186
0.985658
0.997278
0.963055
0.99749
0.989109
0.99694
0.980251
0.984395
0.974818
0.913858
0.996983
1.00522
0.951443
0.973652
0.990499
0.9476
1.01506
0.989625
0.996583
1.00003
0.995637
0.933392
0.99018
1.02103
0.995122
1.00913
1.02136
0.982173
1.00028
0.994356
0.962459
0.928988
1.04692
0.991948
0.996494
0.999662
1.0151
0.963174
1.00327
1.00033
0.997463
0.866173
0.995494
1.01929
1.01559
0.973867
0.991933
0.921799
0.988471
0.835111
1.00184
1.00597
1.03611
1.00439
1.00292
0.835627
0.921759
1.00235
1.00071
0.921548
0.9477
1.00446
0.92563
1.01051
1.00661
1.02785
1.01084
0.99352
1.01023
0.999224
0.913704
1.00148
0.957258
0.967096
0.945802
0.927869
0.928298
0.920775
0.99231
0.945774
0.916275
0.951973
1.02008
0.99667
0.996398
0.965793
0.978899
1.02087
0.9396
1.01233
0.997981
0.974003
0.999381
0.990538
0.997314
0.99768
0.978147
0.915337
1.00165
1.0144
1.00163
0.973314
1.01862
0.906783
0.996669
0.97843
0.981729
0.999117
0.978787
1.00374
0.913218
0.912991
0.929458
0.914704
1.00215
0.998709
0.918456
1.00178
0.884796
1.01829
0.932592
1.01042
1.00806
0.879199
0.987002
0.999625
0.92557
0.98496
0.996719
0.98691
0.914859
0.992078
1.00317
0.928812
1.00469
0.989501
0.969493
1.00462
0.992323
1.00831
1.00772
0.998891
0.980761
0.996709
1.01383
0.987551
1.00253
1.00481
0.938203
1.00843
0.978172
1.01134
0.96886
1.00553
0.923576
1.00766
1.0014
0.912231
1.0061
0.972558
0.938413
0.909396
0.948604
0.941622
0.959238
0.99391
0.646257
1.00165
0.949845
0.674978
1.00742
0.999493
0.942962
1.0055
0.916747
0.971279
1.00682
1.02032
0.927002
0.909149
0.96697
0.997728
0.924824
0.998487
0.971116
0.94147
0.982114
0.941403
1.00519
0.941391
0.949631
0.995986
0.984683
0.912098
1.00101
0.978021
0.972029
0.930692
0.924917
0.375164
1.0289
1.00422
0.974044
1.00068
0.925398
0.93502
0.958203
0.971378
0.38703
0.957278
0.980552
0.993549
0.926732
0.930003
0.911729
0.977692
0.974582
1.00222
0.856112
0.952587
1.00012
0.94296
0.941757
0.934656
0.982985
0.989187
0.978341
0.913605
0.942406
0.922405
0.941743
0.90985
0.952779
0.991823
0.981518
0.981265
1.00125
0.925879
0.95044
0.958335
1.02038
0.97828
0.999813
0.979874
0.983597
0.980429
0.935683
1.04553
0.946329
0.947194
0.942872
1.00011
0.941397
0.941599
0.94686
1.01282
1.00847
0.92793
0.985494
0.985644
0.919183
0.930591
0.981066
0.998066
0.871848
0.992764
0.976771
1.00124
0.99685
0.934569
0.98879
0.913115
0.946733
0.979675
0.996074
0.91591
0.9519
1.00239
0.986718
0.970656
1.00186
0.933607
1.00193
0.983898
0.914279
1.0031
0.936172
1.00399
0.957947
0.942766
0.997665
0.917584
1.00969
0.918116
0.915485
0.951743
0.961884
0.984778
1.03403
1.01347
1.00381
0.976637
0.979795
0.927029
0.988736
0.482924
0.984661
0.953024
0.958215
0.924877
0.925386
0.996468
0.915107
0.987541
0.936377
1.00208
0.983811
0.918992
0.481976
1.00238
1.00162
0.984646
0.982476
0.997139
0.94709
0.916527
1.02167
0.982805
1.00141
0.950436
0.961672
1.00133
0.958884
0.934317
1.02368
0.918612
0.963821
0.995504
0.977059
1.02323
0.941617
0.935055
0.996969
0.984331
0.985223
0.971081
0.963693
0.969291
0.956895
1.01249
0.960757
0.98906
0.997375
0.913485
1.00713
0.964896
1.03128
0.970169
0.993708
0.977393
1.00165
0.982787
0.986471
0.928281
1.00095
0.95214
0.928535
0.391515
1.01339
0.920595
1.0031
0.941993
0.989361
0.975668
0.970698
1.00801
0.909594
1.00478
0.991736
1.00089
0.987603
1.00299
0.964535
0.97908
0.958678
1.00322
0.966266
1.02275
0.920176
1.02432
1.00409
0.982552
0.940916
1.04179
0.98505
0.988637
1.00214
0.998566
0.997365
1.0286
0.99781
0.975426
0.925257
0.965438
0.921526
0.980882
1.01031
0.992898
0.996014
0.917
0.962427
0.992575
1.00919
1.00101
0.917029
0.941306
0.998267
0.974899
0.99824
0.989212
0.934003
1.00361
0.996595
0.92128
0.925845
0.910262
0.981629
0.972296
1.00323
0.99875
0.924993
0.999307
0.992911
0.969031
0.990557
1.00612
0.967203
0.909283