/*--------------------------------*- C++ -*----------------------------------*\
  =========                 |
  \\      /  F ield         | OpenFOAM: The Open Source CFD Toolbox
   \\    /   O peration     | Website:  https://openfoam.org
    \\  /    A nd           | Version:  12
     \\/     M anipulation  |
\*---------------------------------------------------------------------------*/
FoamFile
{
    format      ascii;
    class       volScalarField;
    location    "22";
    object      p;
}
// * * * * * * * * * * * * * * * * * * * * * * * * * * * * * * * * * * * * * //

dimensions      [1 -1 -2 0 0 0 0];

internalField   nonuniform List<scalar> 
9801
(
0.595376
0.632712
0.676833
0.686246
0.686222
0.683931
0.674923
0.64841
0.629649
0.629979
0.636227
0.650444
0.682841
0.718525
0.730889
0.731651
0.729054
0.718613
0.695084
0.685
0.689082
0.699139
0.714234
0.731457
0.751862
0.768779
0.775024
0.775123
0.772447
0.757418
0.746237
0.74945
0.759527
0.776124
0.786842
0.794242
0.802881
0.814053
0.823343
0.828006
0.829624
0.825526
0.818868
0.822825
0.831214
0.841998
0.849684
0.854666
0.860549
0.871925
0.88936
0.900508
0.904798
0.906131
0.898439
0.897666
0.905045
0.911721
0.916256
0.921689
0.929436
0.948003
0.97454
0.991629
0.999476
1.0039
0.997623
0.986447
0.987296
0.991717
0.997495
1.00537
1.01901
1.05691
1.0943
1.11227
1.12237
1.12805
1.12207
1.10309
1.09143
1.0958
1.10782
1.13076
1.19107
1.24842
1.27817
1.2984
1.31634
1.3175
1.2857
1.25867
1.26324
1.3008
1.38826
1.53991
1.66842
3.20262
16.0177
0.606715
0.617197
0.652082
0.677511
0.686729
0.69063
0.687227
0.673347
0.659113
0.649235
0.64775
0.651784
0.665753
0.69631
0.720638
0.730739
0.734776
0.733332
0.72551
0.710526
0.700686
0.701761
0.707678
0.719564
0.73844
0.759016
0.773692
0.780836
0.78283
0.782686
0.777728
0.76537
0.761578
0.765806
0.774908
0.785838
0.795491
0.808857
0.826016
0.837027
0.841471
0.844392
0.844903
0.836557
0.830002
0.833074
0.840375
0.84798
0.854902
0.867891
0.890061
0.905843
0.91356
0.918756
0.921959
0.914192
0.904466
0.905308
0.911646
0.918713
0.926715
0.94683
0.975374
0.99188
1.00082
1.00804
1.0143
1.00512
0.989379
0.989327
0.99752
1.00805
1.02256
1.05674
1.08981
1.10807
1.12004
1.1312
1.13442
1.11069
1.09455
1.09929
1.11368
1.13357
1.17947
1.23296
1.26755
1.29306
1.31704
1.32748
1.30075
1.27184
1.27267
1.30407
1.35875
1.46711
1.56599
3.03088
16.2812
0.632003
0.636558
0.641939
0.660539
0.675375
0.679329
0.675897
0.672101
0.671907
0.673145
0.673174
0.673823
0.675825
0.682668
0.698988
0.714577
0.721493
0.725274
0.729361
0.731748
0.725973
0.720121
0.720166
0.723624
0.727574
0.738436
0.756892
0.769436
0.77731
0.785249
0.791744
0.793531
0.781563
0.775644
0.777832
0.78039
0.784625
0.794311
0.813855
0.831427
0.843265
0.852296
0.859048
0.860601
0.84829
0.840531
0.839718
0.841809
0.84639
0.856006
0.879674
0.902331
0.916275
0.926072
0.933376
0.935096
0.921037
0.911335
0.911142
0.915207
0.921391
0.935684
0.965724
0.989812
1.00428
1.01463
1.02364
1.02295
1.00368
0.993438
0.996076
1.00391
1.01543
1.04383
1.08257
1.109
1.12579
1.13859
1.14596
1.12488
1.10104
1.10062
1.11325
1.12986
1.162
1.22221
1.27109
1.30031
1.32423
1.33882
1.31869
1.29327
1.28819
1.30691
1.34991
1.43612
1.50882
2.9758
16.3394
0.655394
0.656776
0.646417
0.641952
0.64579
0.659174
0.67119
0.680704
0.68971
0.696307
0.700505
0.700534
0.692826
0.678577
0.67677
0.685785
0.709216
0.729839
0.740707
0.747456
0.75107
0.748575
0.740937
0.72761
0.718686
0.719091
0.729623
0.757569
0.783688
0.796897
0.804029
0.809094
0.806955
0.793969
0.779304
0.772574
0.773524
0.779055
0.798804
0.83296
0.854211
0.863627
0.870394
0.874757
0.867219
0.846663
0.834343
0.833764
0.83814
0.846619
0.871108
0.907375
0.92862
0.938332
0.945433
0.947684
0.931975
0.911515
0.905892
0.909348
0.916208
0.928531
0.961913
0.9978
1.01596
1.02561
1.0341
1.03541
1.01247
0.992424
0.99157
0.999535
1.01063
1.03572
1.0806
1.11282
1.12985
1.1421
1.15232
1.14161
1.11075
1.09884
1.10878
1.12557
1.14943
1.20043
1.25626
1.29176
1.31744
1.34026
1.33583
1.31
1.29388
1.29999
1.32834
1.38947
1.43754
2.97424
16.3894
0.670917
0.67561
0.653067
0.637143
0.636949
0.64363
0.666213
0.69019
0.700928
0.706698
0.710976
0.708512
0.691418
0.679399
0.67768
0.682096
0.701815
0.733158
0.750112
0.757122
0.762271
0.760201
0.742624
0.724672
0.719523
0.720447
0.726106
0.751211
0.78802
0.806378
0.813983
0.820057
0.819164
0.79696
0.776835
0.773421
0.775844
0.779774
0.794192
0.832571
0.861267
0.872385
0.87884
0.881376
0.86917
0.845045
0.834909
0.836855
0.841653
0.849519
0.871163
0.909672
0.934094
0.94426
0.949694
0.949448
0.932965
0.911851
0.907345
0.912564
0.919903
0.931086
0.960909
0.998641
1.01815
1.0277
1.03474
1.03632
1.01784
0.995624
0.99282
1.00128
1.01187
1.03145
1.07447
1.11265
1.13199
1.14471
1.156
1.15524
1.12614
1.10321
1.10267
1.11867
1.14017
1.1786
1.23631
1.28255
1.31351
1.33982
1.3535
1.335
1.31269
1.30169
1.30711
1.34645
1.3823
2.95538
16.436
0.673696
0.669073
0.650945
0.645567
0.645944
0.65025
0.665602
0.691934
0.70662
0.712544
0.710752
0.696274
0.686199
0.685154
0.687859
0.695339
0.712224
0.734016
0.751701
0.760586
0.76408
0.752688
0.734143
0.725866
0.726462
0.730339
0.742277
0.764972
0.787847
0.805232
0.815204
0.819863
0.810692
0.792077
0.783428
0.782813
0.785728
0.791553
0.807874
0.835548
0.857603
0.869404
0.875436
0.875603
0.864137
0.850368
0.846544
0.848914
0.853671
0.860761
0.879682
0.909771
0.929524
0.939293
0.944134
0.945409
0.936242
0.920358
0.915969
0.92068
0.927938
0.937634
0.961511
0.994983
1.01424
1.02431
1.0313
1.03513
1.02631
1.00586
0.997753
1.00399
1.01469
1.03017
1.06409
1.10596
1.13057
1.14434
1.15537
1.16114
1.14395
1.1174
1.10858
1.11671
1.13419
1.15921
1.20501
1.256
1.29371
1.32309
1.34937
1.35382
1.33661
1.31615
1.30315
1.31711
1.3317
2.93481
16.4836
0.660157
0.662306
0.660644
0.660616
0.664064
0.671884
0.680234
0.687288
0.696122
0.698504
0.691598
0.687939
0.689902
0.694315
0.70628
0.722081
0.73332
0.741053
0.747577
0.753202
0.747444
0.736011
0.733237
0.735437
0.739031
0.746961
0.767204
0.784757
0.795258
0.802269
0.807149
0.802682
0.792117
0.789298
0.790924
0.793887
0.798416
0.80869
0.82787
0.844587
0.85404
0.860193
0.863116
0.862736
0.858128
0.854146
0.85549
0.85944
0.865494
0.873929
0.89114
0.910605
0.922315
0.929292
0.934348
0.93986
0.940713
0.92928
0.923384
0.927692
0.936022
0.944436
0.960375
0.987934
1.00775
1.01848
1.02617
1.03421
1.03726
1.02152
1.00837
1.00925
1.01855
1.02923
1.0483
1.08743
1.12192
1.14115
1.15415
1.16609
1.16763
1.14617
1.12746
1.12274
1.13077
1.14746
1.17478
1.2218
1.26753
1.30315
1.33234
1.35665
1.35587
1.341
1.31558
1.29799
1.28117
2.90073
16.5606
0.641176
0.660289
0.676116
0.688134
0.694488
0.696336
0.695468
0.690396
0.678764
0.671585
0.673386
0.679999
0.690485
0.707714
0.732665
0.747479
0.752325
0.752809
0.75057
0.736524
0.722064
0.721508
0.726871
0.736349
0.748965
0.768829
0.790711
0.800917
0.80379
0.803715
0.795269
0.784303
0.781333
0.785127
0.791955
0.800332
0.811496
0.824953
0.839333
0.847794
0.851681
0.852641
0.854296
0.85787
0.858314
0.855305
0.858148
0.865489
0.873549
0.880552
0.892151
0.906637
0.916632
0.923649
0.932003
0.940765
0.947094
0.943736
0.93617
0.936743
0.94045
0.945407
0.952564
0.972525
1.00023
1.01704
1.02859
1.03915
1.04785
1.04412
1.02628
1.01788
1.01804
1.02459
1.03468
1.05944
1.10261
1.13553
1.15558
1.17069
1.18398
1.18134
1.15359
1.13416
1.13137
1.13953
1.15584
1.1864
1.23346
1.27548
1.30937
1.33785
1.35621
1.35308
1.33671
1.30648
1.25095
2.83968
16.6409
0.618896
0.643941
0.687288
0.711145
0.720657
0.723552
0.717032
0.692548
0.666191
0.657528
0.659316
0.665535
0.681385
0.716982
0.750989
0.764563
0.769482
0.770733
0.755352
0.7264
0.716177
0.717475
0.721442
0.729295
0.750595
0.780489
0.798037
0.805491
0.806344
0.798946
0.791475
0.788381
0.786474
0.78898
0.795507
0.806967
0.817762
0.827745
0.837653
0.844368
0.848068
0.851153
0.858845
0.865472
0.869625
0.869037
0.870438
0.873456
0.873903
0.875151
0.87907
0.892775
0.913353
0.928847
0.940337
0.94962
0.95725
0.960464
0.950348
0.940797
0.936555
0.937188
0.942489
0.955193
0.988158
1.01844
1.03676
1.04897
1.05813
1.06294
1.04661
1.0248
1.01603
1.01648
1.02492
1.03856
1.07377
1.12306
1.15745
1.1772
1.19135
1.20033
1.18777
1.15735
1.13805
1.13658
1.14688
1.16468
1.20022
1.24762
1.28562
1.31426
1.33785
1.34668
1.34167
1.31755
1.25628
2.77595
16.7388
0.61821
0.631662
0.685341
0.719832
0.728435
0.732943
0.730837
0.699615
0.667242
0.660937
0.662784
0.66787
0.681904
0.720068
0.755561
0.769104
0.772526
0.76538
0.745608
0.729358
0.72212
0.723814
0.731476
0.745752
0.761172
0.776629
0.790552
0.79584
0.795228
0.794728
0.798711
0.801943
0.802928
0.804953
0.809874
0.813974
0.814628
0.814829
0.818651
0.831019
0.84676
0.859555
0.869506
0.878818
0.886198
0.888247
0.881937
0.873675
0.86561
0.862963
0.866811
0.877886
0.906345
0.934475
0.952348
0.962886
0.969878
0.974545
0.964943
0.942804
0.930023
0.928809
0.93478
0.944574
0.972598
1.01733
1.04471
1.05754
1.06696
1.07473
1.06746
1.03697
1.01701
1.01428
1.01982
1.03003
1.04903
1.09541
1.14578
1.17493
1.19116
1.20385
1.20825
1.18962
1.15954
1.14375
1.14496
1.15627
1.1778
1.21664
1.25914
1.29007
1.31272
1.32823
1.33222
1.32222
1.27847
2.73457
16.841
0.625775
0.64474
0.68827
0.717935
0.728875
0.730917
0.717537
0.694054
0.678195
0.67225
0.674759
0.684915
0.700885
0.718007
0.74005
0.752765
0.754498
0.75119
0.747704
0.743887
0.74282
0.746554
0.753205
0.758909
0.762379
0.7619
0.762763
0.773056
0.787772
0.801005
0.81253
0.821925
0.826939
0.825507
0.820878
0.813884
0.803987
0.800247
0.803495
0.815012
0.842198
0.869015
0.886766
0.896243
0.902012
0.904812
0.893089
0.869713
0.856044
0.855022
0.859568
0.868261
0.896164
0.938611
0.962193
0.972511
0.979133
0.983777
0.976686
0.948161
0.930314
0.928275
0.93304
0.940611
0.958643
1.00455
1.04514
1.06229
1.07077
1.07604
1.07809
1.06004
1.02999
1.01908
1.0216
1.02996
1.04281
1.06617
1.11398
1.15717
1.1814
1.19612
1.20744
1.20931
1.19295
1.16889
1.15653
1.15853
1.16918
1.1892
1.22604
1.26354
1.28951
1.30773
1.31736
1.31835
1.29807
2.72298
16.9282
0.648759
0.665962
0.68241
0.698366
0.707412
0.707684
0.703898
0.701074
0.697357
0.697001
0.700934
0.707918
0.712459
0.715635
0.715587
0.721861
0.73468
0.744833
0.754851
0.766342
0.773495
0.77408
0.771299
0.765856
0.753521
0.744045
0.744767
0.752369
0.777268
0.809667
0.830015
0.840444
0.845917
0.846297
0.832311
0.808956
0.794643
0.792991
0.796393
0.803959
0.832363
0.875408
0.897637
0.906699
0.912406
0.914876
0.903417
0.872706
0.857513
0.857694
0.862267
0.869325
0.889528
0.934318
0.965232
0.976344
0.980997
0.980669
0.976546
0.960832
0.939611
0.934658
0.940081
0.950212
0.960748
0.980897
1.0239
1.05302
1.06491
1.07183
1.07797
1.08151
1.06362
1.04096
1.03461
1.03814
1.04476
1.05373
1.07213
1.11615
1.15738
1.182
1.1982
1.21154
1.21705
1.20662
1.18433
1.16787
1.16488
1.17297
1.19127
1.22774
1.26404
1.28857
1.30333
1.30921
1.30938
2.73713
16.9929
0.674274
0.68092
0.680725
0.681019
0.680181
0.684442
0.692969
0.704569
0.715363
0.724856
0.729349
0.728176
0.719841
0.706161
0.70004
0.702084
0.712583
0.737487
0.766811
0.785054
0.792073
0.795721
0.791813
0.771557
0.745665
0.739794
0.742541
0.748043
0.765898
0.808868
0.838825
0.848317
0.85371
0.855438
0.843641
0.811918
0.795983
0.795967
0.799567
0.806257
0.828312
0.87346
0.900653
0.91026
0.914155
0.909422
0.898087
0.881695
0.867195
0.866449
0.872956
0.883907
0.895018
0.917269
0.949728
0.965393
0.970708
0.972997
0.978007
0.980181
0.96745
0.955098
0.954128
0.957341
0.960597
0.965954
0.983382
1.02497
1.05488
1.07008
1.08164
1.0926
1.0985
1.07997
1.0559
1.04547
1.04286
1.04493
1.05383
1.0741
1.11932
1.16254
1.19071
1.21016
1.22459
1.22966
1.21865
1.19061
1.16802
1.16317
1.17042
1.18887
1.22887
1.26689
1.28906
1.29813
1.31188
2.77444
17.0517
0.689898
0.69589
0.687688
0.672254
0.669939
0.674491
0.686898
0.70814
0.728853
0.737967
0.742611
0.739343
0.719773
0.701494
0.698897
0.701729
0.71131
0.741709
0.776683
0.790455
0.796566
0.800669
0.794353
0.764896
0.746606
0.744186
0.746259
0.751182
0.772007
0.814207
0.839685
0.849883
0.854856
0.851366
0.834835
0.816358
0.804899
0.804564
0.809747
0.821507
0.838685
0.864453
0.889278
0.899171
0.899998
0.898335
0.89992
0.897538
0.889803
0.886279
0.889835
0.894574
0.89623
0.899595
0.916848
0.947441
0.965274
0.975897
0.985779
0.995614
0.999746
0.984102
0.967063
0.95937
0.954352
0.954379
0.961259
0.985584
1.03361
1.0696
1.08966
1.10323
1.11351
1.11576
1.0911
1.05931
1.04386
1.04279
1.04777
1.05734
1.08075
1.12991
1.17503
1.20219
1.21933
1.23089
1.23172
1.21728
1.18697
1.16388
1.15895
1.16595
1.18785
1.23303
1.26882
1.28461
1.30492
2.82968
17.123
0.692041
0.691488
0.676408
0.670796
0.672041
0.67913
0.699716
0.723733
0.735739
0.741663
0.743331
0.730168
0.709423
0.702756
0.703566
0.70625
0.720078
0.75611
0.780176
0.790836
0.796784
0.797877
0.779236
0.759276
0.752735
0.752754
0.755856
0.765242
0.789311
0.816692
0.834619
0.842505
0.84231
0.836336
0.832193
0.825289
0.821189
0.82316
0.830453
0.838161
0.842431
0.848135
0.865735
0.88249
0.890844
0.898026
0.906634
0.915653
0.918741
0.909244
0.900387
0.89437
0.888212
0.887735
0.894505
0.921601
0.959798
0.984263
1.00033
1.01044
1.01716
1.01234
0.984647
0.959072
0.948498
0.948241
0.953957
0.963437
0.996922
1.05408
1.09137
1.10694
1.1164
1.12371
1.12104
1.09108
1.05869
1.04604
1.04751
1.05522
1.06693
1.09674
1.14714
1.18485
1.20556
1.21961
1.22853
1.22766
1.21203
1.18289
1.16175
1.1574
1.16332
1.18955
1.23389
1.26166
1.28978
2.90197
17.2121
0.678914
0.67123
0.670356
0.674064
0.685315
0.704961
0.722415
0.731863
0.737401
0.74076
0.731021
0.710552
0.703716
0.705089
0.708433
0.715485
0.744236
0.773298
0.785684
0.791759
0.793459
0.780339
0.763558
0.756593
0.757393
0.761755
0.771983
0.786185
0.79968
0.814305
0.823725
0.827045
0.825996
0.82857
0.834621
0.839872
0.840649
0.840913
0.843735
0.842977
0.8369
0.835131
0.841662
0.864684
0.888979
0.907072
0.921316
0.930137
0.935472
0.930634
0.909189
0.888261
0.878992
0.880109
0.885871
0.899825
0.943356
0.988715
1.00893
1.01834
1.02512
1.02737
1.00821
0.970137
0.95175
0.950568
0.95578
0.964092
0.977355
1.01624
1.0706
1.09918
1.11106
1.11825
1.1216
1.11708
1.09107
1.06532
1.05777
1.06261
1.0727
1.08427
1.11126
1.15467
1.18475
1.202
1.2146
1.22416
1.22633
1.21286
1.18386
1.16133
1.15615
1.16004
1.18695
1.22517
1.26327
2.98164
17.3085
0.658557
0.659025
0.665138
0.67935
0.709198
0.735207
0.743445
0.745073
0.742576
0.731648
0.708536
0.696871
0.697748
0.702313
0.708847
0.731225
0.763882
0.782951
0.790662
0.791321
0.779485
0.769149
0.764607
0.762583
0.766562
0.777882
0.790088
0.796336
0.798811
0.801859
0.809791
0.818132
0.824551
0.832987
0.843876
0.854811
0.860865
0.858822
0.849396
0.836299
0.82744
0.827677
0.832754
0.849305
0.887157
0.918571
0.934139
0.941316
0.945788
0.942719
0.917188
0.888213
0.879227
0.881158
0.886271
0.894892
0.922924
0.97774
1.00929
1.01993
1.02283
1.02011
1.01548
0.99731
0.971842
0.963669
0.967592
0.976219
0.984968
0.993643
1.02319
1.06808
1.09478
1.10783
1.11709
1.12468
1.12439
1.10612
1.08466
1.07432
1.07303
1.07747
1.08724
1.11465
1.15553
1.18414
1.20272
1.21795
1.22928
1.2325
1.21654
1.18333
1.15594
1.1466
1.14979
1.17726
1.22708
3.05492
17.3938
0.64465
0.645249
0.653616
0.676828
0.725492
0.75105
0.758637
0.761708
0.754914
0.724066
0.701382
0.697024
0.698556
0.705228
0.724962
0.746703
0.765077
0.779333
0.783172
0.776158
0.769841
0.772483
0.774542
0.777832
0.784007
0.791018
0.796025
0.795858
0.789034
0.785382
0.791226
0.809885
0.83028
0.847711
0.860752
0.868438
0.873401
0.871971
0.851242
0.827477
0.820532
0.82277
0.827888
0.840557
0.880868
0.922814
0.939417
0.946878
0.951878
0.948567
0.927373
0.898223
0.886033
0.887654
0.895889
0.908321
0.921332
0.946865
0.984265
1.00402
1.01154
1.01695
1.0229
1.02565
1.01152
0.990961
0.982758
0.982538
0.983276
0.985226
0.992363
1.01868
1.06493
1.0973
1.1152
1.12805
1.13845
1.14198
1.12514
1.09589
1.07664
1.07225
1.07617
1.08631
1.11786
1.16151
1.19237
1.21191
1.22545
1.23383
1.23336
1.21461
1.17811
1.14556
1.1323
1.13417
1.17977
3.09993
17.4551
0.645111
0.644668
0.656483
0.690016
0.729762
0.753357
0.760544
0.7574
0.738661
0.719319
0.70755
0.704792
0.710957
0.727513
0.741988
0.747952
0.752321
0.75532
0.760037
0.766861
0.773734
0.781469
0.792329
0.801328
0.805765
0.80542
0.798631
0.784071
0.772916
0.772584
0.777921
0.797243
0.834847
0.863328
0.876439
0.882048
0.884508
0.877608
0.851648
0.82815
0.822162
0.824606
0.829138
0.838847
0.868778
0.915474
0.938556
0.945784
0.943809
0.938593
0.935411
0.922903
0.908094
0.904758
0.908738
0.914344
0.919082
0.923419
0.940012
0.976538
1.00371
1.01875
1.03021
1.04037
1.04555
1.03207
1.00623
0.988745
0.980582
0.978624
0.981778
0.989988
1.01896
1.07021
1.10789
1.12727
1.13873
1.14709
1.14878
1.13026
1.09609
1.07471
1.07132
1.07698
1.08985
1.12539
1.17127
1.20129
1.21768
1.22784
1.23265
1.22839
1.20864
1.16918
1.13396
1.11392
1.12537
3.08985
17.5046
0.654726
0.660025
0.680479
0.699414
0.716907
0.731616
0.735418
0.731808
0.728718
0.728609
0.728424
0.732234
0.73876
0.744187
0.747728
0.74456
0.732409
0.729019
0.736938
0.758303
0.781993
0.801728
0.815405
0.822495
0.825154
0.820328
0.797678
0.770101
0.761991
0.763895
0.768599
0.784341
0.831331
0.87017
0.883562
0.889794
0.893324
0.885634
0.85815
0.833877
0.8275
0.830629
0.83999
0.8531
0.866573
0.889947
0.91784
0.930735
0.93514
0.939531
0.944203
0.947974
0.941147
0.92716
0.919615
0.91653
0.912869
0.910258
0.91495
0.934792
0.979246
1.01644
1.03667
1.04789
1.05633
1.06092
1.04413
1.00969
0.986184
0.979467
0.981967
0.988237
0.997541
1.02888
1.08233
1.11733
1.13329
1.14333
1.14972
1.14863
1.12758
1.09532
1.07788
1.07588
1.08075
1.09479
1.13325
1.17767
1.20341
1.21626
1.22415
1.22751
1.22212
1.20164
1.16132
1.11956
1.09347
3.02039
17.5477
0.682012
0.689925
0.697635
0.701511
0.699373
0.695441
0.702216
0.715895
0.728328
0.742463
0.758131
0.766591
0.767568
0.761887
0.748041
0.727457
0.71424
0.713665
0.718162
0.738146
0.784187
0.819063
0.834251
0.840375
0.841747
0.830589
0.793621
0.76705
0.762443
0.764992
0.770025
0.783483
0.822031
0.867582
0.885224
0.890098
0.884102
0.874017
0.865667
0.853067
0.84559
0.847504
0.854319
0.860656
0.864361
0.866583
0.878281
0.906781
0.929893
0.944192
0.955705
0.965247
0.969923
0.959431
0.937954
0.92034
0.907974
0.903342
0.90614
0.912451
0.93689
0.992137
1.0336
1.05023
1.0585
1.06433
1.06481
1.04494
1.01076
0.991149
0.988103
0.992858
1.00072
1.01154
1.04239
1.09009
1.11881
1.13194
1.1402
1.14636
1.14773
1.13239
1.10421
1.08587
1.08155
1.085
1.09642
1.13184
1.17414
1.19866
1.21128
1.21945
1.22391
1.21999
1.19849
1.14762
1.08847
2.91169
17.5924
0.711104
0.714275
0.708093
0.69353
0.677133
0.674663
0.679754
0.697145
0.730031
0.76305
0.781324
0.787952
0.790093
0.783382
0.753439
0.717997
0.709702
0.71155
0.715852
0.728776
0.777926
0.82651
0.840545
0.846009
0.846232
0.82563
0.793759
0.77407
0.769497
0.773452
0.786335
0.803632
0.820443
0.844234
0.864772
0.870619
0.870361
0.871828
0.875767
0.879689
0.877261
0.870517
0.866974
0.86378
0.856972
0.851263
0.854013
0.871626
0.910658
0.944885
0.966883
0.980457
0.987393
0.988694
0.967783
0.931742
0.909154
0.904043
0.907177
0.912713
0.921574
0.951354
1.00691
1.04109
1.05367
1.05945
1.06338
1.06501
1.05048
1.02191
1.00406
1.00024
1.00321
1.00907
1.01808
1.04635
1.08933
1.11654
1.13107
1.14172
1.15184
1.15874
1.14639
1.11395
1.0889
1.07954
1.0799
1.08882
1.12409
1.16874
1.19608
1.21135
1.22071
1.22329
1.21895
1.18649
1.11932
2.80356
17.6536
0.73052
0.73477
0.716105
0.682209
0.669719
0.670647
0.674837
0.686886
0.729242
0.775059
0.789166
0.794584
0.796385
0.782558
0.74376
0.720403
0.714364
0.715918
0.722403
0.745327
0.786369
0.821905
0.837372
0.839686
0.826614
0.812132
0.802566
0.793564
0.792099
0.798758
0.809211
0.81587
0.817679
0.816099
0.823549
0.844922
0.863461
0.877561
0.891903
0.903633
0.908585
0.901254
0.883611
0.863957
0.846285
0.840329
0.842746
0.848924
0.876357
0.934652
0.973079
0.986428
0.993188
0.99814
0.99382
0.95987
0.923322
0.911206
0.912772
0.920075
0.929869
0.939912
0.962367
1.00694
1.0386
1.05301
1.06082
1.06721
1.07169
1.06392
1.04012
1.0197
1.01023
1.00811
1.01034
1.01768
1.04458
1.08897
1.12016
1.13977
1.15458
1.16498
1.17022
1.15463
1.1146
1.08258
1.07176
1.07345
1.08218
1.1195
1.16983
1.19993
1.21336
1.21855
1.21955
1.20682
1.16727
2.74736
17.7306
0.735231
0.735834
0.704486
0.679991
0.673132
0.673781
0.677436
0.695089
0.743515
0.777506
0.790044
0.794922
0.788588
0.762173
0.740162
0.729026
0.727464
0.733636
0.751524
0.768067
0.780953
0.7981
0.809325
0.810554
0.808125
0.809859
0.815431
0.823427
0.828131
0.82712
0.825221
0.819198
0.803824
0.794642
0.796638
0.813567
0.850689
0.887043
0.912125
0.924177
0.92973
0.927466
0.901794
0.863531
0.842379
0.838673
0.842049
0.847904
0.861796
0.9053
0.962395
0.986077
0.993564
0.992284
0.986596
0.979474
0.958556
0.936968
0.930461
0.932749
0.937125
0.940204
0.944298
0.956896
0.996298
1.03366
1.05326
1.06487
1.07486
1.08396
1.0832
1.0591
1.02901
1.0111
1.0052
1.00648
1.01463
1.04607
1.09766
1.13458
1.15335
1.16353
1.17064
1.17211
1.15186
1.10893
1.07833
1.06813
1.06891
1.07889
1.12006
1.17156
1.19887
1.20923
1.21306
1.20822
1.20134
2.75694
17.8272
0.733323
0.714739
0.689527
0.681894
0.680834
0.682983
0.693078
0.720328
0.7524
0.774218
0.78247
0.779056
0.762103
0.750978
0.745611
0.744519
0.750736
0.765387
0.77716
0.780673
0.775602
0.767448
0.77107
0.787608
0.80441
0.820585
0.839222
0.853146
0.858483
0.853999
0.836495
0.808402
0.788012
0.783745
0.786905
0.794472
0.829572
0.890586
0.922558
0.9331
0.938731
0.93885
0.920131
0.877163
0.848487
0.843543
0.847782
0.861895
0.879678
0.894699
0.921618
0.955818
0.972171
0.977792
0.982155
0.988414
0.994326
0.986477
0.966674
0.953023
0.945906
0.939884
0.934062
0.935648
0.948417
0.991064
1.03595
1.06345
1.08174
1.09222
1.09793
1.09327
1.06118
1.02247
1.00477
1.00371
1.00855
1.01888
1.05839
1.11338
1.14411
1.15645
1.16325
1.16615
1.16516
1.14878
1.11066
1.08054
1.0698
1.06968
1.07778
1.11789
1.16612
1.19035
1.19988
1.19818
1.21884
2.81946
17.9345
0.723883
0.694246
0.683446
0.683529
0.687411
0.702623
0.722397
0.735229
0.748719
0.758957
0.759728
0.752182
0.749298
0.754005
0.760341
0.771254
0.780516
0.785395
0.787152
0.777192
0.755139
0.745293
0.747212
0.761895
0.800245
0.840339
0.865612
0.875143
0.878086
0.870385
0.837309
0.797753
0.782724
0.782793
0.786698
0.794852
0.820793
0.878871
0.921553
0.934159
0.934829
0.921408
0.907783
0.895207
0.876847
0.868933
0.873364
0.882705
0.888831
0.889395
0.886798
0.897518
0.932205
0.96321
0.982603
1.00073
1.01585
1.02299
1.01452
0.985146
0.955056
0.934121
0.926773
0.92896
0.934857
0.95192
1.00719
1.05998
1.08147
1.09053
1.09609
1.09575
1.08566
1.05484
1.02379
1.01284
1.01505
1.02306
1.03351
1.06544
1.11218
1.13875
1.15016
1.15749
1.16481
1.16966
1.15831
1.1199
1.08459
1.06868
1.06633
1.07059
1.10739
1.1537
1.17971
1.18524
1.21972
2.91616
18.0445
0.713607
0.69493
0.689234
0.693125
0.709608
0.728554
0.736346
0.738211
0.734119
0.729881
0.734103
0.743421
0.754524
0.770175
0.789171
0.799891
0.803053
0.798784
0.781674
0.754137
0.739421
0.738378
0.742013
0.749916
0.789624
0.854375
0.878557
0.886144
0.888992
0.878255
0.837335
0.799735
0.786363
0.786861
0.796172
0.819609
0.841005
0.860156
0.888126
0.905247
0.907456
0.906899
0.910062
0.914396
0.920247
0.916098
0.905414
0.897578
0.888847
0.873237
0.865009
0.867856
0.883534
0.930065
0.982099
1.01313
1.02716
1.03497
1.0369
1.02203
0.977217
0.941266
0.930455
0.932263
0.939777
0.953885
0.977799
1.02622
1.06355
1.07713
1.08113
1.08128
1.08558
1.08706
1.06914
1.04305
1.02899
1.02416
1.02375
1.02938
1.05593
1.103
1.13441
1.15136
1.16365
1.17333
1.17902
1.1689
1.12596
1.08181
1.06032
1.05643
1.05963
1.09584
1.14483
1.16765
1.21267
3.02135
18.1483
0.713282
0.70963
0.711219
0.720264
0.729787
0.734879
0.736023
0.725537
0.709864
0.706532
0.712794
0.734826
0.769051
0.801179
0.816582
0.821386
0.820012
0.802906
0.763913
0.736907
0.731677
0.73401
0.739214
0.756152
0.803275
0.853851
0.878849
0.885425
0.876892
0.854662
0.836375
0.818049
0.808554
0.812924
0.828157
0.840821
0.844704
0.842135
0.838675
0.852414
0.879473
0.901351
0.920927
0.943018
0.955606
0.957894
0.942065
0.910612
0.879256
0.861024
0.857497
0.860865
0.867322
0.889835
0.957728
1.0112
1.02771
1.03325
1.03018
1.01798
1.00074
0.9733
0.954753
0.952479
0.958755
0.966625
0.972171
0.981743
1.01482
1.04892
1.06568
1.07554
1.08801
1.09994
1.1063
1.09153
1.05711
1.02989
1.01759
1.01541
1.01992
1.04579
1.09775
1.13809
1.16058
1.1731
1.17943
1.18139
1.16834
1.12409
1.07615
1.0517
1.0463
1.05065
1.09152
1.13533
1.19297
3.11976
18.2307
0.723273
0.73776
0.74495
0.746023
0.743753
0.736396
0.717786
0.699934
0.694387
0.696332
0.701671
0.722919
0.779896
0.81979
0.832086
0.836529
0.834894
0.805809
0.758974
0.737513
0.734036
0.737865
0.755922
0.782847
0.80432
0.829583
0.849614
0.854245
0.849876
0.84679
0.847419
0.849615
0.852917
0.853007
0.852274
0.849897
0.834768
0.815631
0.811529
0.817791
0.842488
0.891277
0.938599
0.965255
0.975673
0.979856
0.974228
0.938229
0.885181
0.862793
0.860187
0.864653
0.878088
0.900797
0.930372
0.974021
1.00243
1.01023
1.0096
1.00974
1.01367
1.0151
1.00444
0.987736
0.977406
0.97119
0.9636
0.960474
0.968566
1.00282
1.04765
1.07691
1.09471
1.10862
1.11785
1.12169
1.10119
1.05422
1.01991
1.00946
1.01074
1.01645
1.04453
1.10644
1.15055
1.1677
1.17396
1.17703
1.17635
1.16194
1.1206
1.07297
1.0464
1.0388
1.04576
1.0842
1.1565
3.19581
18.2871
0.73468
0.765834
0.772691
0.772444
0.76012
0.731898
0.700718
0.686739
0.686255
0.689688
0.6966
0.723956
0.781627
0.820662
0.833122
0.834526
0.819214
0.793062
0.769208
0.752957
0.752689
0.765803
0.786029
0.794775
0.79743
0.794351
0.7966
0.814375
0.833881
0.849204
0.87079
0.888918
0.894876
0.889166
0.872174
0.843744
0.81241
0.799188
0.799609
0.80435
0.815903
0.863722
0.938399
0.969498
0.978732
0.979283
0.964315
0.938752
0.910021
0.886445
0.881543
0.888951
0.902096
0.910623
0.914866
0.92056
0.944702
0.976013
0.995155
1.00824
1.02591
1.04016
1.04531
1.03247
1.00281
0.973672
0.955321
0.949609
0.952013
0.962034
1.00486
1.06268
1.09704
1.11186
1.11943
1.12326
1.11932
1.09172
1.04507
1.01836
1.01318
1.01724
1.02748
1.05485
1.10912
1.14623
1.15966
1.16415
1.16693
1.16878
1.16059
1.12534
1.07703
1.04364
1.03271
1.03332
1.10473
3.2369
18.3257
0.734466
0.777018
0.784807
0.788491
0.782049
0.739735
0.699327
0.688184
0.688659
0.695194
0.715869
0.73987
0.766115
0.795868
0.809024
0.808253
0.80217
0.797618
0.793067
0.791216
0.792076
0.795386
0.798626
0.796466
0.778026
0.765805
0.767222
0.779883
0.813477
0.860337
0.89865
0.916263
0.922128
0.92
0.895289
0.842388
0.809176
0.800876
0.802091
0.810109
0.833208
0.865426
0.90649
0.943876
0.956114
0.953524
0.945896
0.943455
0.942668
0.936981
0.927208
0.920952
0.918381
0.913026
0.898903
0.892282
0.898213
0.926676
0.973654
1.01382
1.03906
1.05277
1.05988
1.0607
1.03826
0.991287
0.957958
0.948686
0.950809
0.957192
0.973472
1.02603
1.08181
1.10461
1.11164
1.10909
1.10765
1.1083
1.09332
1.05984
1.03696
1.02859
1.02647
1.02764
1.04504
1.09427
1.13331
1.15035
1.15931
1.16676
1.1711
1.16626
1.13268
1.07882
1.03875
1.01337
1.03842
3.22117
18.3435
0.726907
0.776386
0.78462
0.784639
0.770072
0.743191
0.715509
0.704347
0.707331
0.721399
0.736634
0.742147
0.746142
0.7507
0.76685
0.786224
0.798518
0.811521
0.82662
0.833544
0.829281
0.817498
0.80055
0.775614
0.757307
0.752584
0.755177
0.761138
0.784701
0.855057
0.904371
0.919791
0.925784
0.921386
0.893126
0.855383
0.82631
0.817398
0.822533
0.840374
0.857181
0.863028
0.867683
0.879548
0.90467
0.925607
0.937734
0.951863
0.971039
0.981785
0.978725
0.959542
0.933446
0.905547
0.886067
0.881054
0.8843
0.89326
0.933596
1.00176
1.04093
1.05405
1.06039
1.06062
1.05082
1.02286
0.983064
0.963462
0.962673
0.971009
0.981846
0.993801
1.02843
1.06911
1.08826
1.0962
1.10426
1.11402
1.12102
1.11344
1.07939
1.04421
1.02364
1.01742
1.01743
1.03136
1.08085
1.12856
1.15384
1.16599
1.17237
1.17341
1.16524
1.13106
1.07519
1.01927
0.996092
3.14671
18.3566
0.714489
0.754446
0.763849
0.76271
0.758158
0.754556
0.747676
0.739715
0.737424
0.740437
0.743636
0.740437
0.726748
0.723596
0.731325
0.75795
0.797452
0.832485
0.854259
0.862082
0.861826
0.841036
0.801546
0.769894
0.756457
0.755188
0.757878
0.768837
0.795836
0.834977
0.881778
0.903765
0.906677
0.896306
0.885619
0.878927
0.869383
0.862335
0.861149
0.863684
0.866051
0.858248
0.841021
0.837884
0.85084
0.88755
0.932667
0.969864
0.994182
1.00516
1.00946
0.99991
0.959673
0.91155
0.887578
0.883306
0.886629
0.895879
0.917307
0.967366
1.02096
1.04257
1.04717
1.04099
1.03679
1.03745
1.02879
1.00694
0.9916
0.985895
0.982669
0.979667
0.983869
1.0095
1.05545
1.08771
1.10538
1.11862
1.13121
1.13797
1.12984
1.08802
1.04014
1.01478
1.00896
1.00994
1.02357
1.07896
1.13533
1.15975
1.1665
1.16869
1.16634
1.15542
1.12056
1.05508
0.997795
3.02467
18.3995
0.70156
0.71989
0.739966
0.753405
0.760944
0.769257
0.776743
0.777268
0.767746
0.755578
0.741325
0.723682
0.714609
0.714734
0.718228
0.730663
0.780007
0.836423
0.859008
0.866906
0.870878
0.861799
0.820356
0.778013
0.763798
0.764644
0.77637
0.797104
0.808474
0.814095
0.826804
0.852178
0.873049
0.882431
0.889108
0.902601
0.914694
0.914447
0.900542
0.882157
0.860969
0.837194
0.822734
0.821394
0.825901
0.843289
0.904021
0.971035
0.998909
1.0081
1.01243
1.00525
0.980272
0.938406
0.907774
0.89983
0.905141
0.918866
0.93142
0.940579
0.965317
0.999762
1.01934
1.0278
1.03474
1.04674
1.0587
1.05955
1.03757
1.00742
0.983538
0.970173
0.966092
0.970206
0.995423
1.04953
1.09537
1.12195
1.13522
1.14109
1.14318
1.13004
1.08058
1.03107
1.00986
1.0063
1.00973
1.0282
1.0843
1.13434
1.15263
1.15661
1.15694
1.15254
1.14278
1.102
1.04219
2.90446
18.4784
0.692694
0.694939
0.709963
0.742433
0.769706
0.78799
0.797623
0.800795
0.79473
0.770524
0.738836
0.719626
0.715214
0.717075
0.72085
0.731152
0.759189
0.814838
0.849625
0.858441
0.854965
0.843303
0.832445
0.813421
0.798616
0.797482
0.803693
0.809072
0.811004
0.801473
0.793066
0.799793
0.830167
0.871356
0.904682
0.930491
0.945292
0.950699
0.943695
0.910565
0.864398
0.833924
0.823389
0.823557
0.82773
0.841435
0.875215
0.939683
0.983683
0.996754
0.994588
0.981584
0.974622
0.970322
0.956531
0.942548
0.937011
0.937011
0.936273
0.927299
0.923998
0.939689