/*--------------------------------*- C++ -*----------------------------------*\
  =========                 |
  \\      /  F ield         | OpenFOAM: The Open Source CFD Toolbox
   \\    /   O peration     | Website:  https://openfoam.org
    \\  /    A nd           | Version:  12
     \\/     M anipulation  |
\*---------------------------------------------------------------------------*/
FoamFile
{
    format      ascii;
    class       surfaceScalarField;
    location    "22";
    object      phi;
}
// * * * * * * * * * * * * * * * * * * * * * * * * * * * * * * * * * * * * * //

dimensions      [1 0 -1 0 0 0 0];

internalField   nonuniform List<scalar> 
19404
(
-0.000148994
-6.06834e-07
-0.000148692
1.63105e-08
-0.000145932
1.85485e-06
-0.000140243
3.16826e-06
-0.000138903
1.88438e-06
-0.000138842
1.1617e-06
-0.000140275
-7.76379e-08
-0.000145968
-1.47881e-06
-0.000151247
-2.36601e-06
-0.000152528
-1.42856e-06
-0.000152553
-7.86487e-07
-0.000152037
-4.64306e-08
-0.000147964
1.57639e-06
-0.000141052
2.64041e-06
-0.00013858
2.18718e-06
-0.000138493
1.41232e-06
-0.000139111
7.02467e-07
-0.000145405
-9.38193e-07
-0.000153581
-2.25616e-06
-0.000156544
-1.34491e-06
-0.000157006
-7.70493e-07
-0.000156953
-3.44792e-07
-0.000155125
7.09266e-07
-0.000147457
2.27317e-06
-0.000141302
2.61329e-06
-0.000140209
1.39406e-06
-0.000140157
1.00363e-06
-0.000140556
2.67328e-07
-0.000145783
-1.19173e-06
-0.000154863
-2.46753e-06
-0.000158817
-1.39632e-06
-0.000159453
-7.10727e-07
-0.000159512
-2.25879e-07
-0.000158646
6.86502e-07
-0.000153325
2.19637e-06
-0.000146317
2.70278e-06
-0.000144116
1.34662e-06
-0.000144106
7.48027e-07
-0.000144242
-1.94758e-07
-0.000145301
-9.6477e-07
-0.000149528
-1.51281e-06
-0.000156678
-1.4493e-06
-0.000160122
-5.76376e-07
-0.000160717
-1.56878e-07
-0.000160741
3.52531e-07
-0.000160013
1.31282e-06
-0.00015598
2.01614e-06
-0.000149983
1.72456e-06
-0.000147945
8.6537e-07
-0.000147953
1.5126e-07
-0.0001481
-6.06432e-07
-0.000148788
-9.34407e-07
-0.000151929
-9.50884e-07
-0.000158101
-4.43556e-07
-0.000161545
-8.37459e-08
-0.000162365
2.09992e-07
-0.000162543
5.80234e-07
-0.000162302
1.03803e-06
-0.000159672
1.47955e-06
-0.000153343
1.29582e-06
-0.00015021
6.09056e-07
-0.000149842
-2.23128e-07
-0.000149902
-5.09971e-07
-0.000150455
-7.51631e-07
-0.000154666
-8.30138e-07
-0.000161764
-3.34404e-07
-0.000165083
-6.75037e-08
-0.000165941
2.30293e-07
-0.000166156
5.55716e-07
-0.000166072
8.27661e-07
-0.000162982
1.03313e-06
-0.000154786
9.31114e-07
-0.000150602
2.56388e-07
-0.000150009
-2.04416e-07
-0.000150081
-5.32619e-07
-0.000151825
-7.9371e-07
-0.000159583
-5.13437e-07
-0.000166327
-1.96107e-07
-0.000168668
6.84095e-08
-0.000169303
3.51694e-07
-0.0001695
5.31701e-07
-0.000168897
5.45735e-07
-0.000161798
5.96263e-07
-0.000150991
-2.19995e-07
-0.000146294
-5.78499e-07
-0.000146042
-1.02317e-06
-0.000146858
-1.44352e-06
-0.000155805
-1.40495e-06
-0.000166901
-9.6787e-07
-0.000170983
-3.9443e-07
-0.000171837
5.29265e-07
-0.000172144
8.25502e-07
-0.000168952
5.94613e-07
-0.00015702
1.82102e-07
-0.000142964
-5.1915e-07
-0.000132253
1.07128e-07
-0.000122898
-8.28682e-06
-0.000113224
-4.63352e-05
2.85963e-05
-0.000144974
-7.86784e-07
-0.000144579
1.44574e-06
-0.000143642
3.15936e-06
-0.000143472
4.11076e-06
-0.00014332
2.95071e-06
-0.000144104
9.00091e-07
-0.000145835
-8.66577e-07
-0.000147913
-2.19609e-06
-0.000149875
-3.02072e-06
-0.000150283
-2.32737e-06
-0.000149527
-2.94229e-07
-0.000146596
1.50977e-06
-0.000143759
2.64272e-06
-0.000142652
3.39285e-06
-0.000142165
3.42879e-06
-0.000142226
1.9441e-06
-0.000144721
-2.34105e-07
-0.000148743
-1.72088e-06
-0.000152797
-2.89034e-06
-0.000155007
-1.9564e-06
-0.000155086
-1.25804e-06
-0.000153329
7.80019e-07
-0.000149741
2.36656e-06
-0.000146844
3.03314e-06
-0.000144325
3.12137e-06
-0.000143351
2.32953e-06
-0.000143315
8.77758e-07
-0.000144917
-7.24707e-07
-0.00014863
-1.94503e-06
-0.000153526
-2.89892e-06
-0.000156181
-1.91783e-06
-0.000156787
-4.86227e-07
-0.000156194
1.1827e-06
-0.000154086
2.39592e-06
-0.000151824
2.83651e-06
-0.000149426
2.84804e-06
-0.0001478
1.64539e-06
-0.000147351
3.26054e-07
-0.000147389
-6.46253e-07
-0.00014756
-1.17196e-06
-0.000149912
-1.64277e-06
-0.000155016
-1.47241e-06
-0.000157404
-5.19593e-07
-0.00015794
8.88934e-07
-0.000157644
1.92243e-06
-0.000157128
2.27379e-06
-0.000156066
2.09052e-06
-0.000153056
1.81958e-06
-0.000151001
4.96893e-07
-0.00015023
-3.41214e-07
-0.000149956
-7.76558e-07
-0.000149997
-8.21434e-07
-0.000151749
-9.86957e-07
-0.00015682
-4.98577e-07
-0.000159549
4.75855e-07
-0.000160379
1.26196e-06
-0.000160524
1.6316e-06
-0.000160365
1.73572e-06
-0.000159531
1.61084e-06
-0.000155731
1.29043e-06
-0.000152571
6.1598e-08
-0.000151304
-6.49473e-07
-0.000151009
-5.86509e-07
-0.000151148
-7.80993e-07
-0.000154217
-9.52515e-07
-0.000160379
-4.00885e-07
-0.000163296
4.62617e-07
-0.000164233
1.17614e-06
-0.000164482
1.49056e-06
-0.000164466
1.52334e-06
-0.000162785
1.4069e-06
-0.000156557
1.06072e-06
-0.000151953
-3.48542e-07
-0.000150453
-6.05499e-07
-0.000150385
-8.46289e-07
-0.000151049
-1.10872e-06
-0.000156941
-1.19525e-06
-0.000163817
-1.30134e-07
-0.000166818
6.79936e-07
-0.000167802
9.30114e-07
-0.0001681
9.60286e-07
-0.000168028
8.22589e-07
-0.000162788
7.43266e-07
-0.000151905
-2.58507e-07
-0.000146217
-1.24685e-06
-0.000145153
-2.01804e-06
-0.000145249
-2.53938e-06
-0.000149874
-3.11825e-06
-0.000159636
-2.40497e-06
-0.000165207
-9.07887e-07
-0.000166879
5.98755e-08
-0.000167249
8.75104e-08
-0.000164866
-2.97153e-07
-0.000153712
-1.61485e-06
-0.000138838
-3.56091e-06
-0.000124899
-4.08208e-06
-0.000113807
-1.7155e-05
-0.000137574
-5.40982e-05
3.51595e-05
-0.000138461
-2.92035e-07
-0.000139191
5.49403e-07
-0.000141644
2.4188e-06
-0.000146048
3.661e-06
-0.000149144
2.50956e-06
-0.000150123
1.35194e-06
-0.000149996
8.11786e-08
-0.000149623
-1.29896e-06
-0.00014809
-2.58773e-06
-0.000143873
-8.45033e-07
-0.000141569
5.56417e-07
-0.000141135
1.05919e-06
-0.00014129
1.94772e-06
-0.000141624
2.70632e-06
-0.000144131
2.40604e-06
-0.000148204
1.27849e-06
-0.00015046
3.84488e-07
-0.000150835
-5.37589e-07
-0.000150915
-1.63062e-06
-0.000150864
-1.66137e-06
-0.000148858
5.77325e-07
-0.000146644
1.55194e-06
-0.00014588
1.75374e-06
-0.000145709
2.34862e-06
-0.000145676
2.6345e-06
-0.000145965
1.29019e-06
-0.000147146
2.06289e-07
-0.00014902
-4.11791e-07
-0.000150132
-1.42774e-06
-0.000150352
-1.18491e-06
-0.000150675
-2.09842e-07
-0.000150847
1.21041e-06
-0.000151153
1.76266e-06
-0.000151308
1.80378e-06
-0.000151246
2.21993e-06
-0.000151162
1.40117e-06
-0.000150862
7.17252e-07
-0.000149837
-1.76609e-07
-0.000148944
-4.2626e-07
-0.000148676
-8.10442e-07
-0.00014886
-7.30508e-07
-0.000150391
-1.664e-07
-0.000152028
1.18412e-06
-0.000153792
1.84761e-06
-0.000155298
1.60931e-06
-0.000155743
1.82233e-06
-0.000155921
1.29883e-06
-0.000155473
7.51742e-07
-0.000152924
-2.5579e-07
-0.000150748
-3.33621e-07
-0.000149863
-5.64909e-07
-0.000149556
-3.21512e-07
-0.000149759
-1.64722e-08
-0.00015219
5.42234e-07
-0.000155251
1.51591e-06
-0.000157602
1.76614e-06
-0.000158858
1.51194e-06
-0.00015915
1.31507e-06
-0.000159163
8.25545e-07
-0.000157345
5.21048e-07
-0.000153087
-1.14742e-07
-0.000151102
-5.72885e-07
-0.000150354
-5.44305e-07
-0.000150265
-2.70157e-07
-0.000150974
-1.5555e-07
-0.000155406
4.29856e-07
-0.000159335
1.29099e-06
-0.000161314
1.58511e-06
-0.000162191
1.47249e-06
-0.000162369
1.21032e-06
-0.000162055
9.25028e-07
-0.000157454
6.9275e-07
-0.000151812
-4.542e-07
-0.000149126
-1.07842e-06
-0.000148277
-1.0513e-06
-0.000148369
-9.49396e-07
-0.000151013
-1.10363e-06
-0.000158551
-2.91547e-07
-0.000162899
8.74594e-07
-0.000164389
1.21742e-06
-0.000164807
1.12176e-06
-0.000164905
8.81524e-07
-0.000161948
6.44995e-07
-0.000151693
-2.43105e-07
-0.000143983
-1.8232e-06
-0.000141152
-3.06634e-06
-0.000141001
-3.73889e-06
-0.000142046
-4.3763e-06
-0.000150124
-4.56012e-06
-0.000158232
-3.01939e-06
-0.000161256
-1.54687e-06
-0.000161628
-1.13219e-06
-0.000160514
-1.56275e-06
-0.000151459
-3.13835e-06
-0.000138119
-6.0621e-06
-0.000124515
-9.39794e-06
-0.000113401
-2.59495e-05
-0.000140526
-5.20819e-05
3.74456e-05
-0.00013294
1.09621e-07
-0.000133724
-9.81839e-09
-0.000139858
2.24739e-07
-0.000148969
1.89028e-06
-0.000153379
1.56183e-06
-0.000153837
1.20359e-06
-0.000153706
7.55203e-07
-0.000151885
-1.00056e-07
-0.000143272
8.75343e-07
-0.000137622
1.46013e-06
-0.000137009
1.033e-06
-0.000137003
6.83331e-07
-0.000138357
1.98008e-07
-0.000141718
1.20875e-07
-0.00014675
8.24671e-07
-0.000151389
8.35878e-07
-0.000152877
5.82927e-07
-0.000152743
2.07224e-07
-0.000151103
6.4248e-07
-0.000145917
1.93325e-06
-0.000143797
2.14931e-06
-0.000143551
1.47957e-06
-0.000143578
1.04873e-06
-0.000144756
5.70222e-07
-0.000146674
-7.53825e-08
-0.000147748
-1.14748e-08
-0.000148892
5.04912e-08
-0.000149055
-1.50619e-07
-0.00014867
4.7985e-07
-0.0001471
1.40977e-06
-0.000146498
2.4437e-06
-0.000146905
2.34507e-06
-0.000148466
1.41241e-06
-0.000150787
9.83696e-07
-0.000151805
3.72027e-07
-0.000151744
1.19869e-07
-0.000151439
-1.86731e-07
-0.000150164
-3.45556e-07
-0.00014825
-1.09601e-07
-0.000146769
6.59404e-07
-0.000146213
1.19925e-06
-0.000146384
1.67006e-06
-0.000148175
2.22869e-06
-0.000151436
1.56752e-06
-0.000154569
8.05459e-07
-0.000155833
4.29474e-07
-0.000155891
1.742e-07
-0.000155562
-2.6239e-07
-0.000152901
-4.17316e-07
-0.000149467
-1.074e-08
-0.000147231
6.11708e-07
-0.000146403
9.90821e-07
-0.000146345
1.17064e-06
-0.000148184
1.2805e-06
-0.000152629
1.35887e-06
-0.000155855
1.1861e-06
-0.000157904
7.63013e-07
-0.000158578
4.70933e-07
-0.000158583
1.1424e-07
-0.000157199
-1.09395e-07
-0.000151992
-4.81327e-08
-0.000148167
2.99475e-07
-0.000146694
3.39173e-07
-0.000146344
3.91107e-07
-0.000146562
4.06409e-07
-0.000150152
4.90641e-07
-0.000155704
8.92219e-07
-0.000158602
1.10826e-06
-0.000159836
1.01803e-06
-0.000160163
7.7094e-07
-0.000160167
5.24826e-07
-0.000157143
3.93267e-07
-0.000149366
-1.09836e-07
-0.000145124
-5.38169e-07
-0.000143989
-1.03913e-06
-0.000143924
-1.11616e-06
-0.000144716
-1.1808e-06
-0.000151402
-9.59145e-07
-0.000157655
1.40268e-07
-0.000159617
9.26074e-07
-0.000160052
1.06306e-06
-0.000160252
8.46317e-07
-0.000159087
5.40966e-07
-0.000151176
-5.01232e-09
-0.00014167
-1.65452e-06
-0.000136691
-3.53096e-06
-0.000135765
-5.0637e-06
-0.000135771
-5.81187e-06
-0.000138905
-6.53044e-06
-0.000146077
-6.24813e-06
-0.000149878
-4.75997e-06
-0.000150995
-3.90241e-06
-0.000151061
-4.26803e-06
-0.000145918
-5.4023e-06
-0.000135956
-7.93011e-06
-0.000125258
-1.12763e-05
-0.000117373
-2.55657e-05
-0.000137101
-5.17487e-05
4.22431e-05
-0.000131754
3.71406e-07
-0.00013185
-6.06709e-08
-0.000136604
-6.51064e-07
-0.000149015
-1.15297e-06
-0.000153604
5.55534e-07
-0.000153973
9.33442e-07
-0.000153523
1.29443e-06
-0.00014878
2.55191e-06
-0.000141059
3.59991e-06
-0.000137452
2.26019e-06
-0.000136797
1.26427e-06
-0.000136658
4.45972e-07
-0.000137031
-7.15205e-07
-0.000140107
-1.95315e-06
-0.000146571
-1.70149e-06
-0.000150313
-6.23162e-08
-0.000150565
1.00442e-06
-0.000149765
2.30087e-06
-0.000146596
3.63035e-06
-0.000144537
4.09055e-06
-0.000143873
2.57316e-06
-0.000143594
1.45336e-06
-0.00014387
1.89795e-07
-0.000145237
-1.27891e-06
-0.000146306
-1.62404e-06
-0.000146672
-1.46089e-06
-0.00014667
-3.62401e-07
-0.000145825
1.13202e-06
-0.000144916
2.35596e-06
-0.000144712
3.38756e-06
-0.000145126
3.84878e-06
-0.000147014
2.34158e-06
-0.000149025
1.32033e-06
-0.000150245
2.36134e-07
-0.000150673
-7.10373e-07
-0.000150625
-1.22667e-06
-0.000149949
-9.70978e-07
-0.000146712
2.96918e-07
-0.000143865
1.32593e-06
-0.000142827
1.86639e-06
-0.000142741
2.16912e-06
-0.000144094
2.34199e-06
-0.000148299
2.16376e-06
-0.000151581
1.12368e-06
-0.000153496
4.51343e-07
-0.000154376
-2.59794e-07
-0.000154374
-6.95535e-07
-0.000153482
-6.67423e-07
-0.000148411
5.71983e-07
-0.000144531
1.27792e-06
-0.000143279
1.26613e-06
-0.000143061
1.23804e-06
-0.000143161
1.24496e-06
-0.000145747
1.06934e-06
-0.000151687
7.30558e-07
-0.000154978
4.90448e-07
-0.000155905
2.83212e-07
-0.00015602
1.27819e-07
-0.000155974
1.71331e-07
-0.000153814
6.24259e-07
-0.000147438
1.26126e-06
-0.000143745
7.94311e-07
-0.000142842
2.19671e-07
-0.000142802
1.84053e-08
-0.000142987
-1.14674e-07
-0.000146224
-2.12229e-07
-0.000152824
4.90626e-08
-0.000155763
5.40357e-07
-0.000156288
7.99965e-07
-0.000156414
9.026e-07
-0.000156392
9.5196e-07
-0.000154208
1.09915e-06
-0.00014632
1.00044e-06
-0.000140889
-2.50496e-07
-0.000139582
-1.45387e-06
-0.000139521
-2.04044e-06
-0.000139787
-2.16257e-06
-0.000144352
-2.21018e-06
-0.000152269
-1.26073e-06
-0.000155321
2.43981e-07
-0.000155755
9.39944e-07
-0.000155907
1.05168e-06
-0.000155453
9.00065e-07
-0.000150395
5.38651e-07
-0.00014123
-9.9982e-07
-0.000134134
-3.37706e-06
-0.000131256
-5.01857e-06
-0.000131188
-7.0242e-06
-0.000131929
-8.43104e-06
-0.00013692
-9.10354e-06
-0.000142242
-8.45388e-06
-0.000144616
-7.46297e-06
-0.000145063
-7.56788e-06
-0.000144292
-8.49572e-06
-0.000138561
-1.03404e-05
-0.000129217
-1.31706e-05
-0.000120255
-2.31778e-05
-0.000134052
-5.11252e-05
4.86144e-05
-0.000132641
8.43607e-07
-0.000133023
-3.62044e-07
-0.000136605
-2.10285e-06
-0.000144991
-2.12689e-06
-0.000149658
-7.47414e-07
-0.000150007
1.28485e-06
-0.000148628
3.01233e-06
-0.000145266
4.50484e-06
-0.000142085
4.34231e-06
-0.00013951
2.93607e-06
-0.000138715
1.1859e-06
-0.000138854
-3.57724e-07
-0.00013964
-1.91713e-06
-0.000139758
-2.31358e-06
-0.000140596
-2.26142e-06
-0.00014319
-4.92643e-07
-0.000144972
1.77201e-06
-0.000145211
3.56325e-06
-0.000145108
4.6416e-06
-0.000145184
4.10308e-06
-0.000145511
2.69641e-06
-0.000145561
1.09277e-06
-0.000145208
-3.54445e-07
-0.000144905
-1.60912e-06
-0.000144288
-2.15208e-06
-0.000141994
-9.54098e-07
-0.000140122
6.03947e-07
-0.000139739
1.4385e-06
-0.000140589
2.27675e-06
-0.000143018
3.21395e-06
-0.000146175
3.51867e-06
-0.000148776
2.25369e-06
-0.000150029
1.12412e-06
-0.000150313
1.48762e-07
-0.000150246
-7.88921e-07
-0.000148483
-1.15541e-06
-0.000143439
1.61495e-07
-0.000140352
1.20667e-06
-0.000139509
1.43058e-06
-0.000139417
1.64276e-06
-0.000139757
1.75075e-06
-0.000143324
1.83546e-06
-0.00014947
1.41896e-06
-0.00015214
9.29896e-07
-0.000152823
4.8819e-07
-0.00015281
-5.11279e-08
-0.000152181
1.59568e-08
-0.00014793
1.02761e-06
-0.000142459
1.68783e-06
-0.000140189
1.26048e-06
-0.00013999
8.5442e-07
-0.000140068
6.3568e-07
-0.000140704
2.72088e-07
-0.000144409
1.08187e-07
-0.000150641
2.33759e-07
-0.000152931
4.12538e-07
-0.000153079
6.86471e-07
-0.000153009
1.03875e-06
-0.000152231
1.65661e-06
-0.000149545
2.16146e-06
-0.000144348
1.72459e-06
-0.00014054
5.59025e-07
-0.000139866
-4.08379e-07
-0.00013992
-1.04885e-06
-0.000140239
-1.45907e-06
-0.000143
-1.43418e-06
-0.000149294
-8.61088e-07
-0.000152243
3.12476e-07
-0.000152702
1.2697e-06
-0.000152756
1.76377e-06
-0.000152572
1.99635e-06
-0.000151263
2.07956e-06
-0.000145751
1.51891e-06
-0.000139118
-2.3314e-07
-0.000136474
-1.71803e-06
-0.000136386
-2.97799e-06
-0.000136498
-3.65171e-06
-0.000138588
-3.9038e-06
-0.0001455
-3.19524e-06
-0.000150757
-1.06973e-06
-0.000152287
6.47137e-07
-0.000152534
1.31229e-06
-0.00015253
1.50112e-06
-0.000149854
1.372e-06
-0.000142055
2.4716e-07
-0.000134705
-2.58178e-06
-0.000130195
-5.20536e-06
-0.000128576
-7.50971e-06
-0.000128533
-9.85413e-06
-0.000130039
-1.09822e-05
-0.000134684
-1.12432e-05
-0.000138011
-1.0578e-05
-0.000139514
-1.04259e-05
-0.000140079
-1.16523e-05
-0.000138855
-1.34571e-05
-0.000134164
-1.55266e-05
-0.000127303
-2.12355e-05
-0.000129893
-5.05328e-05
5.58128e-05
-0.000135682
8.84112e-07
-0.000135713
-8.04843e-07
-0.000136172
-2.04248e-06
-0.000137818
-1.93115e-06
-0.000140965
-4.81285e-07
-0.000143487
1.49758e-06
-0.000144184
3.39276e-06
-0.000144094
4.31296e-06
-0.000143935
3.97939e-06
-0.000143236
2.70718e-06
-0.000141864
1.25783e-06
-0.000140953
-4.18806e-07
-0.000140375
-1.90283e-06
-0.000138019
-1.62835e-06
-0.000135409
-2.87691e-07
-0.000135155
3.91172e-07
-0.000137161
8.65107e-07
-0.000140972
2.34756e-06
-0.000144582
3.7252e-06
-0.000147319
3.12915e-06
-0.000148214
2.06796e-06
-0.000148105
1.21845e-06
-0.000147159
3.37759e-07
-0.000144617
-9.10678e-07
-0.000139147
-5.40452e-07
-0.000135294
8.78728e-07
-0.000134501
1.0328e-06
-0.000134478
1.03339e-06
-0.000136083
1.08884e-06
-0.000142679
1.56433e-06
-0.000148911
2.31684e-06
-0.000150822
1.464e-06
-0.000151013
1.12886e-06
-0.000150882
6.4892e-07
-0.000149541
9.52721e-08
-0.000143162
1.00589e-06
-0.000137241
1.91563e-06
-0.000135941
1.63206e-06
-0.000135933
1.15064e-06
-0.000136169
7.1647e-07
-0.000137671
1.82576e-07
-0.000143611
2.16585e-07
-0.000149891
7.34308e-07
-0.000151698
8.07581e-07
-0.000151661
8.47419e-07
-0.000151031
1.26146e-06
-0.000148381
2.23504e-06
-0.000144266
2.79926e-06
-0.000140159
1.69719e-06
-0.000138011
1.03461e-06
-0.000137859
4.67881e-07
-0.000137953
-4.98154e-07
-0.000138855
-1.34112e-06
-0.000142495
-1.24953e-06
-0.000147862
-3.18522e-07
-0.000149927
8.30272e-07
-0.000150178
1.90264e-06
-0.000149761
2.72287e-06
-0.000149117
3.19381e-06
-0.000147994
2.80203e-06
-0.000144622
1.71393e-06
-0.000140039
3.46929e-07
-0.000138108
-8.84158e-07
-0.00013793
-2.27031e-06
-0.000137991
-2.55839e-06
-0.000139055
-2.44878e-06
-0.000143871
-1.61243e-06
-0.000148398
4.11505e-07
-0.000149689
2.02044e-06
-0.000149822
2.75401e-06
-0.00014987
2.99489e-06
-0.000149638
2.43518e-06
-0.000146776
1.52448e-06
-0.000140457
-5.65444e-08
-0.000136243
-2.14738e-06
-0.000134714
-3.74472e-06
-0.000134485
-4.79105e-06
-0.000134668
-4.72513e-06
-0.000137797
-4.65429e-06
-0.000144727
-3.01928e-06
-0.000148671
-4.81556e-07
-0.00014971
1.04299e-06
-0.000149896
1.62203e-06
-0.000149474
1.57734e-06
-0.000145484
9.4015e-07
-0.000138508
-1.47939e-06
-0.000132578
-4.70544e-06
-0.000128519
-7.72025e-06
-0.000126785
-9.9677e-06
-0.000126872
-1.16452e-05
-0.000128767
-1.26799e-05
-0.000132763
-1.27998e-05
-0.000135281
-1.25465e-05
-0.000136682
-1.34422e-05
-0.000137146
-1.60759e-05
-0.000136137
-1.83117e-05
-0.000132432
-2.11541e-05
-0.000128083
-4.92804e-05
6.16824e-05
-0.000138761
1.13303e-06
-0.00013753
2.1879e-07
-0.000135108
-8.95373e-07
-0.000133364
8.12926e-08
-0.000133223
5.59019e-07
-0.000135235
9.92883e-07
-0.000140527
1.75875e-06
-0.000144803
2.78896e-06
-0.000146084
2.74908e-06
-0.000146208
1.99318e-06
-0.0001456
1.35867e-06
-0.000143191
8.54982e-07
-0.000138383
-1.09816e-07
-0.000133154
6.28104e-07
-0.000131349
1.0796e-06
-0.000131127
1.00861e-06
-0.000131472
9.79899e-07
-0.00013734
8.54844e-07
-0.00014681
1.17462e-06
-0.000149683
1.58786e-06
-0.000149811
1.34404e-06
-0.000149694
1.01288e-06
-0.000148503
7.19879e-07
-0.000141844
1.28664e-06
-0.000134316
2.34408e-06
-0.000132233
1.97319e-06
-0.00013213
1.38177e-06
-0.00013212
9.58962e-07
-0.000133234
5.54673e-07
-0.00014151
-2.49924e-07
-0.000149684
-1.82649e-07
-0.000151093
7.7967e-07
-0.000151063
9.20333e-07
-0.000150596
1.11472e-06
-0.00014663
2.29948e-06
-0.000140269
3.34842e-06
-0.000136402
2.53569e-06
-0.000135054
1.68763e-06
-0.000134864
1.05134e-06
-0.000134934
1.59513e-07
-0.000136251
-1.28203e-06
-0.000141741
-1.83908e-06
-0.000147691
-6.37235e-07
-0.000149147
9.03249e-07
-0.000149132
2.04647e-06
-0.000147846
3.19828e-06
-0.000146152
3.90639e-06
-0.000144121
3.24434e-06
-0.000140803
2.16196e-06
-0.000138559
7.63143e-07
-0.00013779
-5.15877e-07
-0.000137653
-2.05636e-06
-0.000137668
-2.03621e-06
-0.000138357
-1.89011e-06
-0.000142431
-8.57237e-07
-0.000145922
1.20756e-06
-0.00014704
2.85097e-06
-0.000147365
3.90767e-06
-0.000147855
3.53657e-06
-0.000147862
2.66822e-06
-0.000146652
1.88401e-06
-0.00014248
4.19539e-07
-0.000139125
-1.33881e-06
-0.000137147
-2.48692e-06
-0.000136001
-2.51401e-06
-0.000135771
-1.97353e-06
-0.000137059
-1.54942e-06
-0.000142944
-3.13291e-07
-0.000146963
1.8528e-06
-0.000148369
2.96405e-06
-0.000149103
3.05283e-06
-0.000149384
2.15657e-06
-0.000148903
1.56187e-06
-0.000144203
5.89509e-07
-0.000138281
-1.63817e-06
-0.000134432
-3.82624e-06
-0.000132278
-4.49644e-06
-0.000131761
-4.61377e-06
-0.000132083
-4.82699e-06
-0.000136151
-4.80677e-06
-0.000142786
-3.16658e-06
-0.000146466
-7.51526e-07
-0.000147761
4.80942e-07
-0.000148069
6.29902e-07
-0.000147851
4.47777e-07
-0.00014393
-8.74867e-07
-0.00013687
-2.77839e-06
-0.000130667
-6.08473e-06
-0.000126732
-9.38854e-06
-0.000125306
-1.15816e-05
-0.00012545
-1.29582e-05
-0.000127911
-1.44083e-05
-0.000131911
-1.45398e-05
-0.000134399
-1.48632e-05
-0.000135489
-1.72383e-05
-0.000135449
-2.01723e-05
-0.000134732
-2.16259e-05
-0.0001271
-4.74635e-05
6.53281e-05
-0.000140913
1.14296e-06
-0.000138384
1.05271e-06
-0.000132859
2.04458e-06
-0.000131293
1.96715e-06
-0.000131215
1.59472e-06
-0.000131894
1.04487e-06
-0.000137119
9.80651e-07
-0.000145052
5.35821e-07
-0.000146967
9.96938e-07
-0.000146844
1.2218e-06
-0.000146567
1.18419e-06
-0.000143774
1.25437e-06
-0.000135743
2.51952e-06
-0.000131313
2.72465e-06
-0.000130695
1.95377e-06
-0.000130611
1.53769e-06
-0.000130927
1.03235e-06
-0.000136038
1.27953e-07
-0.000146287
-1.21863e-06
-0.00014953
-6.6698e-08
-0.000149685
5.38066e-07
-0.000149421
9.74112e-07
-0.000145982
2.2126e-06
-0.000138538
3.62667e-06
-0.000133916
3.76321e-06
-0.000132419
2.57829e-06
-0.000132198
1.76492e-06
-0.000132342
6.60268e-07
-0.000134282
-9.37177e-07
-0.000140327
-2.0647e-06
-0.000147084
-1.45583e-06
-0.000148918
7.96675e-08
-0.000148907
1.53844e-06
-0.000147005
3.03592e-06
-0.000143755
4.24547e-06
-0.00014037
3.9724e-06
-0.000137152
3.01353e-06
-0.000136221
1.61123e-06
-0.000136249
1.09487e-07
-0.000137164
-1.56555e-06
-0.000137265
-2.00475e-06
-0.00013803
-1.92335e-06
-0.000141579
-8.98325e-07
-0.000144195
1.19778e-06
-0.000145057
3.00737e-06
-0.000145306
4.21638e-06
-0.000145532
3.83467e-06
-0.000145427
3.21288e-06
-0.00014404
2.10625e-06
-0.000141417
6.03289e-07
-0.000139553
-9.95961e-07
-0.000137804
-2.07494e-06
-0.000135813
-1.69047e-06
-0.000135202
-8.09109e-07
-0.000135903
-2.51697e-07
-0.000140511
7.29086e-07
-0.000144373
2.52342e-06
-0.00014652
3.72996e-06
-0.000148187
3.0808e-06
-0.000148823
2.10085e-06
-0.00014875
1.53996e-06
-0.000146141
9.90444e-07
-0.000140664
-2.74467e-07
-0.000135884
-1.88692e-06
-0.000133156
-1.37655e-06
-0.000132537
-1.33568e-06
-0.00013269
-1.46829e-06
-0.000136421
-1.35785e-06
-0.000143543
-1.23419e-07
-0.000147677
1.72875e-06
-0.000149683
2.15806e-06
-0.000150062
1.78985e-06
-0.000150083
1.60215e-06
-0.000147924
1.39864e-06
-0.000140848
4.56842e-07
-0.000134527
-1.93394e-06
-0.000131004
-3.65331e-06
-0.000129592
-4.14645e-06
-0.000129604
-4.86776e-06
-0.000130347
-5.75724e-06
-0.000135719
-5.93657e-06
-0.000142988
-4.47437e-06
-0.000147047
-2.13735e-06
-0.000148071
-9.13772e-07
-0.000148192
-6.66991e-07
-0.000146595
-6.57261e-07
-0.000141833
-1.70517e-06
-0.000134831
-3.7379e-06
-0.000128509
-7.10826e-06
-0.000124984
-1.06492e-05
-0.000124102
-1.31661e-05
-0.000124501
-1.55389e-05
-0.000128088
-1.67056e-05
-0.000132444
-1.66708e-05
-0.000134838
-1.79864e-05
-0.000135477
-2.07122e-05
-0.000135962
-2.18322e-05
-0.000126919
-4.62248e-05
6.7596e-05
-0.000139987
1.1328e-06
-0.000135226
2.66894e-06
-0.00013227
3.44228e-06
-0.000131799
3.14682e-06
-0.00013173
2.51483e-06
-0.000133216
1.28536e-06
-0.000139032
-2.2149e-07
-0.000143917
-9.24555e-07
-0.000145713
-3.14081e-07
-0.000145799
3.3175e-07
-0.000144799
1.24975e-06
-0.000139327
2.86634e-06
-0.000133944
3.76458e-06
-0.00013188
3.39032e-06
-0.000131455
2.77149e-06
-0.000131399
1.89462e-06
-0.000133021
3.28914e-07
-0.00013824
-1.17724e-06
-0.000143661
-1.50067e-06
-0.000146164
-1.05644e-06
-0.000146462
3.98256e-07
-0.00014508
2.30384e-06
-0.000141589
3.83092e-06
-0.000138204
4.16934e-06
-0.000135326
4.03051e-06
-0.000134477
2.72143e-06
-0.000134514
1.00968e-06
-0.000135655
-7.65629e-07
-0.000136468
-1.8296e-06
-0.000137979
-2.09081e-06
-0.000140869
-1.105e-06
-0.000142901
7.67053e-07
-0.000143409
2.69794e-06
-0.000143004
4.10707e-06
-0.000142916
4.10387e-06
-0.000142116
4.10723e-06
-0.000140674
2.36231e-06
-0.000139595
7.40747e-07
-0.000139068
-8.22779e-07
-0.000138554
-1.65484e-06
-0.000136665
-1.52229e-06
-0.000135353
-3.53376e-07
-0.000135474
3.63067e-07
-0.000138206
1.17162e-06
-0.000141361
2.62431e-06
-0.000144077
3.6552e-06
-0.000146594
3.16121e-06
-0.000147355
2.19782e-06
-0.000147237
1.64617e-06
-0.000145271
9.81576e-07
-0.000140981
7.68649e-08
-0.000136117
-9.29838e-07
-0.000133272
-1.50422e-07
-0.000132593
1.20995e-08
-0.000132642
9.22422e-09
-0.000135379
1.05862e-07
-0.000142552
9.45502e-07
-0.000147566
2.01455e-06
-0.000149138
1.85614e-06
-0.00014933
1.7036e-06
-0.000149343
1.55448e-06
-0.000148225
1.24611e-06
-0.000141364
1.2996e-06
-0.000134207
4.62562e-07
-0.000131355
-6.02909e-07
-0.000130901
-1.15624e-06
-0.000130953
-1.70084e-06
-0.000132203
-2.27852e-06
-0.000139767
-2.94753e-06
-0.00014771
-8.72079e-07
-0.000149826
1.15342e-06
-0.000150102
1.71786e-06
-0.000150197
1.76074e-06
-0.000149505
2.06711e-06
-0.000144042
2.3174e-06
-0.000135751
9.96516e-07
-0.00013131
-2.09024e-06
-0.000129555
-3.88485e-06
-0.000128934
-5.1475e-06
-0.000129002
-6.35888e-06
-0.000130328
-7.65802e-06
-0.000136232
-7.80942e-06
-0.000142448
-5.59859e-06
-0.000145301
-3.15595e-06
-0.000146033
-1.87187e-06
-0.000145993
-1.35112e-06
-0.000144052
-1.21397e-06
-0.000139537
-2.60182e-06
-0.000133192
-5.0444e-06
-0.00012754
-9.01492e-06
-0.000124189
-1.31603e-05
-0.000123384
-1.59514e-05
-0.000124051
-1.86026e-05
-0.000128574
-1.89879e-05
-0.000132892
-1.91418e-05
-0.000134959
-2.11011e-05
-0.000136386
-2.22538e-05
-0.000127228
-4.46236e-05
7.01418e-05
-0.000135476
1.65201e-06
-0.000133575
2.93663e-06
-0.000133121
3.55825e-06
-0.000133051
3.43415e-06
-0.000134763
2.33832e-06
-0.000138208
9.79246e-07
-0.000140384
1.35598e-07
-0.000141694
-9.14709e-07
-0.000142238
-3.34957e-07
-0.00014181
6.4211e-07
-0.000138931
2.37912e-06
-0.000135902
2.94552e-06
-0.000133951
3.45961e-06
-0.000133269
3.61053e-06
-0.000133224
2.41309e-06
-0.00013456
5.96153e-07
-0.000136845
-3.20223e-07
-0.00013927
-6.52792e-07
-0.000140658
-1.03621e-06
-0.000141211
1.00573e-07
-0.000140675
1.96975e-06
-0.00013942
3.26601e-06
-0.000138523
3.54561e-06
-0.000138341
3.87069e-06
-0.000138174
2.90754e-06
-0.000138369
1.32667e-06
-0.000138543
-1.68295e-07
-0.000138256
-9.01396e-07
-0.000137303
-1.51569e-06
-0.000136089
-3.63884e-07
-0.000135805
6.19064e-07
-0.000136975
1.76343e-06
-0.000138403
3.13651e-06
-0.000140457
3.56788e-06
-0.00014325
3.20471e-06
-0.000144453
2.10678e-06
-0.000144565
1.36675e-06
-0.000143563
6.17754e-07
-0.000141291
-1.99962e-07
-0.00013729
-1.02575e-06
-0.000133721
2.41653e-07
-0.000132469
8.40056e-07
-0.000132338
1.06791e-06
-0.000133634
1.29416e-06
-0.000139586
1.48076e-06
-0.000145447
1.79826e-06
-0.000147633
1.73819e-06
-0.000147909
1.64266e-06
-0.000147875
1.384e-06
-0.00014707
1.11118e-06
-0.000140674
1.12611e-06
-0.000133521
1.49773e-06
-0.000131413
8.18594e-07
-0.00013133
3.0823e-07
-0.000131367
-1.02746e-07
-0.000132946
-3.40657e-07
-0.0001412
-1.39108e-06
-0.000148044
-1.2386e-07
-0.000149283
9.12341e-07
-0.00014931
1.36378e-06
-0.000149016
1.80719e-06
-0.000147429
2.82248e-06
-0.000142099
3.33158e-06
-0.000134857
2.19737e-06
-0.000131709
2.24e-07
-0.000131045
-1.24672e-06
-0.000131026
-2.55669e-06
-0.000131517
-4.19028e-06
-0.000134779
-4.72946e-06
-0.000143188
-3.81312e-06
-0.000147996
-2.88775e-07
-0.000148692
1.77883e-06
-0.000148454
2.79955e-06
-0.000147615
3.85904e-06
-0.000146129
3.50195e-06
-0.000141075
2.5843e-06
-0.000134942
-3.52781e-07
-0.000131665
-3.66251e-06
-0.000130356
-5.79213e-06
-0.000129721
-7.47205e-06
-0.000129548
-7.92539e-06
-0.000130233
-8.28098e-06
-0.000134936
-7.98435e-06
-0.000140103
-5.85925e-06
-0.000142542
-3.79925e-06
-0.0001433
-2.81377e-06
-0.000143313
-2.51331e-06
-0.000141809
-2.74692e-06
-0.000138551
-5.16724e-06
-0.000133184
-7.98631e-06
-0.00012726
-1.18549e-05
-0.000123486
-1.60909e-05
-0.000122629
-1.86731e-05
-0.000123554
-2.05869e-05
-0.000128752
-2.0776e-05
-0.000133027
-2.19688e-05
-0.000135715
-2.30505e-05
-0.000128202
-4.23045e-05
7.23824e-05
-0.000131936
1.45662e-06
-0.000131827
1.96191e-06
-0.000132171
2.60362e-06
-0.000135134
2.93316e-06
-0.000140247
1.3626e-06
-0.000141714
1.33541e-06
-0.000141497
1.19059e-06
-0.000140945
9.13405e-07
-0.00013888
9.64835e-07
-0.000135638
2.36791e-06
-0.000134146
2.7382e-06
-0.000133796
2.45036e-06
-0.000133802
2.53092e-06
-0.000134958
1.63419e-06
-0.000137007
2.84872e-07
-0.000137933
-2.31119e-07
-0.000138562
-4.24895e-08
-0.000138523
9.93532e-08
-0.000138102
1.03115e-06
-0.000136859
2.40498e-06
-0.00013654
3.69712e-06
-0.000137024
3.44723e-06
-0.000138103
3.05944e-06
-0.000139824
2.14482e-06
-0.000141392
9.84577e-07
-0.000141733
-2.33701e-08
-0.000141425
-6.86437e-07
-0.000138916
-4.59169e-07
-0.000134897
5.57291e-07
-0.000132977
1.43976e-06
-0.00013266
2.03445e-06
-0.000133413
2.55042e-06
-0.000136756
2.90164e-06
-0.0001419
2.69156e-06
-0.000145509
1.6751e-06
-0.000146235
1.06856e-06
-0.000146154
8.12871e-07
-0.000145516
6.62538e-07
-0.000140347
4.69396e-07
-0.00013379
1.42859e-06
-0.000131605
1.50046e-06
-0.00013131
1.28118e-06
-0.00013132
1.08612e-06
-0.000132721
1.23961e-06
-0.00014054
3.49762e-07
-0.000146525
2.73358e-07
-0.000147687
1.03562e-06
-0.000147698
1.28082e-06
-0.000147593
1.36015e-06
-0.000145771
2.3219e-06
-0.000139516
3.32595e-06
-0.000133611
2.36667e-06
-0.000131612
1.44532e-06
-0.000131406
4.43526e-07
-0.000131625
-7.56168e-07
-0.000133529
-2.51393e-06
-0.000139675
-2.61704e-06
-0.000146154
-1.47397e-06
-0.000147706
4.33843e-07
-0.000147625
2.03266e-06
-0.000146155
3.64908e-06
-0.000145034
4.50797e-06
-0.000143407
4.11212e-06
-0.000138939
3.06642e-06
-0.000134877
3.8994e-07
-0.000133471
-2.08123e-06
-0.000133186
-3.88728e-06
-0.000132787
-5.00433e-06
-0.000132828
-4.53178e-06
-0.000134388
-4.24913e-06
-0.000140672
-2.57628e-06
-0.000144843
8.89115e-07
-0.000146169
3.10789e-06
-0.000146438
4.01559e-06
-0.000146769
3.21804e-06
-0.000146342
2.28893e-06
-0.000141999
1.02598e-06
-0.000136327
-1.76921e-06
-0.000132375
-4.89128e-06
-0.000129676