/*--------------------------------*- C++ -*----------------------------------*\
  =========                 |
  \\      /  F ield         | OpenFOAM: The Open Source CFD Toolbox
   \\    /   O peration     | Website:  https://openfoam.org
    \\  /    A nd           | Version:  12
     \\/     M anipulation  |
\*---------------------------------------------------------------------------*/
FoamFile
{
    format      ascii;
    class       volScalarField;
    location    "22";
    object      rho;
}
// * * * * * * * * * * * * * * * * * * * * * * * * * * * * * * * * * * * * * //

dimensions      [1 -3 0 0 0 0 0];

internalField   nonuniform List<scalar> 
9801
(
1.1873
1.20302
1.19859
1.17345
1.15944
1.15979
1.1672
1.19352
1.23025
1.25155
1.26087
1.26555
1.25643
1.22743
1.20717
1.20562
1.20969
1.23434
1.28333
1.31586
1.32933
1.33664
1.33731
1.31285
1.27724
1.26621
1.26773
1.2726
1.29418
1.34444
1.38341
1.39951
1.40785
1.41136
1.39732
1.36467
1.34829
1.3487
1.35435
1.36605
1.38822
1.42857
1.46096
1.47609
1.48374
1.4866
1.47751
1.45301
1.44034
1.44281
1.45055
1.46212
1.48083
1.51575
1.54742
1.56307
1.57238
1.57838
1.57677
1.55664
1.54047
1.54218
1.55139
1.56292
1.58588
1.62912
1.66484
1.68342
1.69595
1.70556
1.70679
1.6815
1.65967
1.66199
1.6742
1.69222
1.73536
1.79216
1.82786
1.84877
1.865
1.87933
1.87461
1.83681
1.81682
1.82893
1.8543
1.91028
2.00451
2.07706
2.12212
2.16057
2.19825
2.20364
2.19053
2.19769
2.21131
4.3985
17.9912
1.17507
1.18303
1.17724
1.17836
1.18
1.18741
1.20279
1.21954
1.23588
1.24723
1.2508
1.24113
1.22881
1.2238
1.22407
1.22622
1.24135
1.2678
1.29416
1.3134
1.32403
1.32357
1.30874
1.29633
1.28886
1.28432
1.28832
1.30106
1.32397
1.3525
1.37666
1.38902
1.3918
1.38583
1.37861
1.37372
1.36892
1.37157
1.37871
1.38614
1.39842
1.42664
1.45181
1.46258
1.46544
1.46733
1.47039
1.4658
1.45997
1.46205
1.46736
1.47365
1.48427
1.51309
1.53994
1.55282
1.5605
1.56616
1.57172
1.56679
1.55676
1.55634
1.56209
1.57065
1.58681
1.62581
1.65794
1.67407
1.68493
1.69457
1.70074
1.68755
1.66984
1.66875
1.67824
1.69147
1.72495
1.77843
1.8153
1.83737
1.85485
1.8717
1.8763
1.84263
1.81869
1.82489
1.84682
1.88558
1.96407
2.03765
2.08741
2.129
2.16888
2.17627
2.15699
2.14418
2.08882
4.07305
17.953
1.14169
1.14584
1.16295
1.18622
1.21061
1.22339
1.22761
1.22928
1.22896
1.21676
1.20322
1.20381
1.21079
1.21879
1.23302
1.25805
1.27699
1.28471
1.28806
1.29479
1.29209
1.28157
1.28151
1.28697
1.29299
1.30117
1.31255
1.32603
1.33822
1.34467
1.3488
1.35191
1.35631
1.36422
1.37102
1.37891
1.38597
1.38948
1.39019
1.39356
1.39817
1.40735
1.4202
1.43114
1.44578
1.4574
1.46639
1.47505
1.47348
1.46727
1.46722
1.47105
1.47639
1.48947
1.51152
1.5304
1.54596
1.55709
1.56716
1.57362
1.5623
1.55465
1.55806
1.5647
1.57337
1.59715
1.62971
1.65163
1.6674
1.67998
1.69119
1.68908
1.66822
1.66069
1.66579
1.6765
1.69431
1.74166
1.78824
1.81526
1.83398
1.85075
1.86144
1.83632
1.80392
1.80006
1.81756
1.84361
1.90117
1.98589
2.04882
2.09234
2.13207
2.1441
2.12387
2.11062
2.04472
3.85669
17.6513
1.11528
1.11622
1.14455
1.19343
1.22905
1.24349
1.24829
1.24697
1.2203
1.18318
1.17611
1.18013
1.192
1.21531
1.24498
1.27403
1.29155
1.29792
1.2962
1.27516
1.25897
1.25995
1.26584
1.27742
1.29718
1.31257
1.32308
1.33139
1.33401
1.32876
1.32349
1.32635
1.33918
1.35535
1.37184
1.38144
1.38835
1.38979
1.38676
1.38212
1.38049
1.38309
1.39349
1.41531
1.43804
1.45603
1.46647
1.47417
1.47176
1.46007
1.45148
1.44937
1.45246
1.46219
1.49026
1.51886
1.53942
1.55344
1.56292
1.56938
1.55623
1.53806
1.53308
1.53678
1.54414
1.56282
1.60257
1.63409
1.65337
1.66672
1.67771
1.68212
1.65752
1.63473
1.63441
1.64495
1.65918
1.69536
1.75079
1.78464
1.80385
1.82001
1.83418
1.82353
1.78681
1.76765
1.77669
1.79979
1.83419
1.90178
1.96933
2.0176
2.05887
2.08462
2.07637
2.06271
1.99384
3.67431
17.4
1.1109
1.11061
1.12793
1.18509
1.23013
1.24339
1.24762
1.2357
1.20001
1.17856
1.17557
1.17915
1.18629
1.20393
1.24009
1.27089
1.28309
1.28313
1.27047
1.25733
1.25603
1.25909
1.26573
1.27925
1.29412
1.30542
1.3132
1.31343
1.31025
1.30963
1.31244
1.32567
1.34139
1.35564
1.36608
1.37476
1.38053
1.37367
1.36024
1.35498
1.35707
1.36477
1.38919
1.41629
1.43482
1.44763
1.45695
1.46247
1.44977
1.42813
1.42197
1.42549
1.4325
1.44648
1.48095
1.51315
1.53002
1.53976
1.54704
1.54801
1.52765
1.50724
1.50627
1.51363
1.52332
1.54178
1.58262
1.6169
1.63378
1.64435
1.65314
1.65679
1.63437
1.60664
1.60318
1.61446
1.629
1.65637
1.71233
1.75569
1.77758
1.79346
1.808
1.8078
1.77863
1.75131
1.74419
1.7599
1.78672
1.83476
1.90251
1.9595
2.00251
2.04052
2.05285
2.04309
1.96354
3.58091
17.2471
1.11336
1.11535
1.13425
1.17321
1.21156
1.22438
1.22267
1.20852
1.19528
1.18619
1.18411
1.1897
1.20077
1.20922
1.21685
1.23269
1.24666
1.25183
1.25342
1.25784
1.26467
1.27163
1.27721
1.28123
1.28485
1.28165
1.27277
1.27197
1.27927
1.29522
1.31672
1.33586
1.35013
1.35858
1.36434
1.36547
1.34899
1.33143
1.32871
1.33348
1.34113
1.35865
1.39393
1.42155
1.43412
1.44116
1.44493
1.43471
1.4109
1.39939
1.40174
1.40883
1.41933
1.44017
1.47694
1.50477
1.51602
1.52195
1.52406
1.51902
1.50353
1.48841
1.48733
1.49592
1.50726
1.52597
1.56353
1.59738
1.61289
1.62169
1.6287
1.63281
1.62246
1.59787
1.58596
1.59281
1.60678
1.62817
1.67253
1.72485
1.75608
1.77424
1.78937
1.79689
1.77828
1.74963
1.73644
1.74016
1.75922
1.7889
1.83951
1.89655
1.94146
1.97826
2.00715
2.01562
1.97195
3.53767
17.1988
1.12719
1.13247
1.14003
1.15095
1.16681
1.18396
1.19269
1.19745
1.20257
1.2056
1.20477
1.20442
1.2064
1.20347
1.19089
1.18732
1.19834
1.22292
1.24755
1.26887
1.28304
1.28917
1.28942
1.28287
1.26495
1.24233
1.23679
1.24119
1.25273
1.28386
1.32548
1.34978
1.35921
1.36363
1.36363
1.3447
1.31293
1.30263
1.30636
1.3142
1.32784
1.35673
1.39743
1.42081
1.42973
1.43242
1.42466
1.40844
1.39397
1.38647
1.38899
1.39722
1.41021
1.43237
1.46562
1.49041
1.4999
1.50303
1.50382
1.50556
1.50145
1.48705
1.4797
1.48499
1.49521
1.50775
1.53582
1.57235
1.59392
1.60427
1.61227
1.62118
1.62347
1.60436
1.58654
1.58425
1.59445
1.60755
1.63069
1.68117
1.72852
1.75567
1.77344
1.78912
1.79177
1.7712
1.75027
1.74229
1.7463
1.76292
1.7922
1.84064
1.88847
1.92469
1.95177
1.9725
1.96715
3.55029
17.2021
1.14507
1.14603
1.13866
1.12935
1.12826
1.13828
1.16575
1.19622
1.21408
1.22326
1.22685
1.22074
1.20379
1.18
1.16652
1.1668
1.17154
1.19398
1.24661
1.28133
1.29301
1.29851
1.29934
1.28111
1.2412
1.22376
1.22453
1.22903
1.23768
1.2693
1.32627
1.3515
1.3596
1.36376
1.35336
1.32476
1.30476
1.29959
1.30223
1.30823
1.32028
1.3483
1.38845
1.41063
1.41707
1.41532
1.4085
1.40424
1.39687
1.38919
1.39043
1.39783
1.40627
1.41441
1.43652
1.46505
1.48077
1.48833
1.49673
1.5065
1.51184
1.50172
1.48961
1.48585
1.48623
1.49053
1.50103
1.53488
1.57387
1.59548
1.60966
1.62271
1.63259
1.62623
1.60236
1.58818
1.58415
1.5889
1.60076
1.62854
1.68284
1.72931
1.75841
1.77985
1.79842
1.80137
1.77829
1.75361
1.7427
1.7471
1.76309
1.79465
1.84358
1.88601
1.91367
1.93322
1.94871
3.58711
17.2153
1.15615
1.15821
1.13457
1.11994
1.12031
1.12606
1.14702
1.18948
1.21849
1.2271
1.23158
1.22878
1.20025
1.16995
1.1642
1.16683
1.17202
1.19078
1.24214
1.28079
1.29292
1.29816
1.29158
1.26134
1.23438
1.22621
1.22715
1.23226
1.24573
1.27651
1.31686
1.3427
1.35018
1.34666
1.33272
1.32016
1.30931
1.3053
1.31037
1.32283
1.33306
1.33994
1.35919
1.3817
1.39318
1.39824
1.40522
1.41232
1.41526
1.40915
1.40531
1.40385
1.40037
1.39877
1.40421
1.42889
1.46167
1.48337
1.50072
1.51462
1.52448
1.52452
1.50448
1.48461
1.47211
1.47177
1.47951
1.5003
1.54802
1.59
1.61487
1.63043
1.64132
1.64518
1.62263
1.59116
1.57614
1.57528
1.58393
1.59912
1.6358
1.69658
1.74637
1.77576
1.79579
1.80777
1.80314
1.77976
1.75299
1.74101
1.74724
1.76574
1.80156
1.85088
1.88557
1.90425
1.92291
3.62554
17.2261
1.15571
1.14564
1.12673
1.12342
1.12497
1.13203
1.15903
1.19361
1.2138
1.22365
1.2266
1.21024
1.18376
1.17183
1.17038
1.17315
1.18272
1.20982
1.24317
1.2675
1.27861
1.27793
1.26421
1.25037
1.24086
1.23705
1.24181
1.25424
1.26737
1.27789
1.29539
1.3117
1.31987
1.32096
1.32504
1.32833
1.32756
1.32881
1.33325
1.33776
1.33584
1.33017
1.33066
1.34516
1.37006
1.39181
1.41099
1.42617
1.43438
1.4348
1.42016
1.40109
1.38575
1.38339
1.38889
1.40412
1.44484
1.48693
1.51114
1.5232
1.53087
1.53527
1.51834
1.4791
1.46218
1.46265
1.47038
1.48327
1.52336
1.5841
1.61925
1.63377
1.64425
1.65231
1.6433
1.60522
1.5786
1.57424
1.58059
1.59197
1.6105
1.65253
1.71059
1.75305
1.77853
1.79724
1.80597
1.79975
1.77891
1.75534
1.74565
1.75058
1.76817
1.80521
1.84854
1.87399
1.89429
3.67246
17.2391
1.13674
1.12964
1.12859
1.13161
1.13984
1.16146
1.17892
1.1913
1.20052
1.20505
1.19752
1.18568
1.18003
1.17901
1.18254
1.19337
1.21063
1.22614
1.24043
1.24779
1.24893
1.24519
1.24507
1.24815
1.25347
1.26165
1.27106
1.2767
1.27782
1.27471
1.27247
1.27934
1.29187
1.30615
1.32431
1.3426
1.35275
1.35551
1.35008
1.33834
1.32129
1.314
1.31618
1.32446
1.35469
1.39598
1.42274
1.43419
1.44114
1.44546
1.43116
1.39263
1.37625
1.37753
1.38386
1.39504
1.43437
1.48958
1.5155
1.52567
1.53198
1.53099
1.51523
1.48447
1.46463
1.46442
1.47247
1.48588
1.50746
1.5561
1.60582
1.62772
1.63738
1.64029
1.64215
1.63252
1.60545
1.59034
1.5913
1.60002
1.61064
1.62405
1.65811
1.70961
1.74757
1.77187
1.79073
1.80078
1.79999
1.78586
1.76198
1.74749
1.748
1.76173
1.7956
1.83231
1.85849
3.73478
17.2618
1.11638
1.12048
1.12783
1.14113
1.16979
1.18851
1.19355
1.19332
1.18947
1.17669
1.16914
1.17059
1.17601
1.18679
1.20528
1.21909
1.22692
1.23246
1.23214
1.22791
1.2249
1.23001
1.24117
1.25596
1.27261
1.28424
1.29047
1.28718
1.27136
1.25864
1.25702
1.26239
1.28149
1.31159
1.34065
1.35655
1.36403
1.36836
1.35769
1.32458
1.30742
1.30776
1.31366
1.32361
1.35682
1.40508
1.42749
1.43695
1.44336
1.44291
1.42137
1.39289
1.37982
1.38101
1.38834
1.40537
1.43789
1.48295
1.5107
1.52038
1.51923
1.51534
1.5147
1.50462
1.48699
1.48301
1.49005
1.4993
1.50514
1.51665
1.55576
1.59816
1.61964
1.63246
1.64556
1.65724
1.65186
1.62656
1.60892
1.60268
1.60192
1.60758
1.62084
1.6558
1.70639
1.74453
1.77259
1.79512
1.80813
1.8071
1.78685
1.75627
1.7366
1.73422
1.74411
1.77942
1.81751
3.80214
17.2969
1.10639
1.1093
1.12192
1.15223
1.18203
1.19914
1.20505
1.20311
1.18308
1.16933
1.16879
1.17219
1.18369
1.20595
1.21863
1.22308
1.22406
1.22096
1.21805
1.21803
1.2229
1.23718
1.25787
1.27681
1.28809
1.29394
1.29166
1.27356
1.25423
1.2492
1.25212
1.26035
1.28972
1.33291
1.35328
1.3611
1.36716
1.36886
1.34543
1.31519
1.30636
1.30902
1.31448
1.3313
1.3729
1.4098
1.42885
1.4373
1.43616
1.42579
1.41634
1.40175
1.39276
1.39664
1.40956
1.42191
1.43034
1.45394
1.48221
1.49657
1.50297
1.51037
1.52166
1.532
1.52707
1.50952
1.5016
1.49712
1.49243
1.49333
1.50634
1.55034
1.60189
1.63463
1.65522
1.67082
1.68086
1.67057
1.6354
1.60541
1.59384
1.59583
1.6042
1.62199
1.66558
1.71816
1.75652
1.78188
1.80015
1.80531
1.79703
1.77452
1.74192
1.71979
1.71639
1.72937
1.77225
3.84747
17.3463
1.10946
1.11599
1.13858
1.15648
1.17561
1.18805
1.18973
1.18271
1.1793
1.17968
1.18135
1.1913
1.20605
1.2153
1.21881
1.21446
1.20213
1.19779
1.20163
1.21342
1.23555
1.26316
1.28125
1.28975
1.29502
1.29535
1.27203
1.24704
1.2413
1.2447
1.25061
1.26529
1.31196
1.34719
1.35977
1.36592
1.36603
1.35021
1.33015
1.31578
1.31035
1.31428
1.32742
1.34875
1.37472
1.40445
1.41901
1.42163
1.41508
1.41617
1.42251
1.42361
1.42044
1.42044
1.42323
1.4217
1.41732
1.4182
1.43757
1.47344
1.4991
1.52019
1.53984
1.55219
1.55625
1.53789
1.50854
1.48584
1.47499
1.47671
1.48481
1.50426
1.56219
1.6254
1.6577
1.67238
1.68295
1.68486
1.6664
1.62584
1.59864
1.59382
1.60143
1.61469
1.63905
1.68691
1.73212
1.75934
1.77652
1.78964
1.79173
1.78323
1.76154
1.72932
1.70768
1.70171
1.72405
3.85254
17.4129
1.12852
1.13783
1.14474
1.14848
1.14859
1.15237
1.16435
1.17742
1.19073
1.20431
1.21516
1.22003
1.22222
1.21963
1.20231
1.18512
1.18164
1.18549
1.19342
1.21649
1.26337
1.28985
1.2977
1.30071
1.29748
1.27702
1.24803
1.23649
1.23725
1.24201
1.25338
1.28496
1.32249
1.34968
1.36122
1.36194
1.34901
1.33911
1.33243
1.32513
1.32714
1.33726
1.35021
1.35544
1.35933
1.37083
1.39071
1.40303
1.41109
1.42173
1.43684
1.44998
1.45296
1.4409
1.42445
1.40561
1.39574
1.39802
1.40839
1.4441
1.49813
1.53615
1.55513
1.56456
1.57049
1.56244
1.51924
1.48347
1.47331
1.47581
1.48317
1.49527
1.52464
1.58766
1.63889
1.66049
1.67057
1.67231
1.66862
1.65485
1.62801
1.61239
1.61315
1.62275
1.6351
1.65342
1.69392
1.72934
1.75
1.76467
1.77704
1.78232
1.77691
1.75508
1.7225
1.69609
1.67739
3.81388
17.4841
1.15154
1.14969
1.14096
1.12643
1.12204
1.12609
1.14191
1.17863
1.2139
1.23407
1.24145
1.24205
1.23216
1.20567
1.17673
1.16803
1.17046
1.17661
1.18902
1.23123
1.27755
1.29814
1.30622
1.30893
1.29289
1.26356
1.24727
1.24051
1.24369
1.25708
1.2784
1.29486
1.31599
1.33412
1.34029
1.33668
1.33527
1.34175
1.34714
1.35221
1.35466
1.35695
1.35579
1.34583
1.33609
1.33749
1.35607
1.38963
1.41849
1.44426
1.46
1.46765
1.47024
1.45477
1.41581
1.38941
1.38412
1.3889
1.39654
1.41805
1.4851
1.539
1.55804
1.56636
1.56829
1.5602
1.53798
1.50192
1.48462
1.48622
1.4976
1.51404
1.52499
1.54202
1.58384
1.62276
1.64345
1.65552
1.66571
1.67358
1.67146
1.65353
1.63425
1.62436
1.6236
1.63049
1.64977
1.68908
1.72335
1.74686
1.76575
1.77868
1.78232
1.77412
1.74707
1.70341
1.64733
3.74434
17.5473
1.17268
1.14994
1.12273
1.11199
1.11275
1.11715
1.12775
1.16977
1.22574
1.24457
1.25133
1.25467
1.24097
1.19761
1.17375
1.1702
1.17293
1.18196
1.20707
1.24115
1.27568
1.29458
1.29854
1.28747
1.27458
1.26822
1.26063
1.26181
1.27156
1.28474
1.29115
1.29063
1.28785
1.29385
1.31244
1.32805
1.34104
1.35618
1.37295
1.38218
1.38283
1.36975
1.34468
1.32261
1.31777
1.32225
1.33339
1.37062
1.42746
1.46031
1.4728
1.47882
1.47981
1.45972
1.41676
1.39103
1.3866
1.39178
1.40559
1.42829
1.45983
1.51018
1.53979
1.54902
1.54904
1.54847
1.55287
1.54642
1.52762
1.51735
1.51708
1.51897
1.51764
1.51849
1.52994
1.56912
1.61579
1.64706
1.66916
1.68601
1.69643
1.69366
1.66558
1.63154
1.61462
1.61528
1.62275
1.64466
1.6905
1.73233
1.75792
1.77221
1.77708
1.77503
1.7627
1.72371
1.65087
3.65525
17.61
1.18261
1.15501
1.12026
1.11476
1.11619
1.12114
1.1387
1.18218
1.2243
1.24442
1.2503
1.24383
1.22025
1.19875
1.18369
1.18261
1.19241
1.21303
1.22631
1.23345
1.24646
1.25929
1.26484
1.26666
1.27149
1.2809
1.2939
1.30124
1.30124
1.29764
1.28524
1.26674
1.26076
1.26582
1.2876
1.32673
1.36102
1.38381
1.394
1.39844
1.39826
1.37658
1.3326
1.31413
1.31416
1.31916
1.32778
1.35809
1.42292
1.46209
1.47432
1.47627
1.46524
1.45078
1.43324
1.41231
1.40702
1.4143
1.42802
1.43635
1.44106
1.4514
1.4863
1.51854
1.53525
1.54919
1.56677
1.5799
1.57877
1.55666
1.53222
1.51349
1.50221
1.50043
1.50672
1.52325
1.57215
1.63026
1.66689
1.68466
1.69589
1.69869
1.68953
1.65479
1.62143
1.60956
1.61173
1.62152
1.6498
1.70075
1.73949
1.75857
1.76603
1.76536
1.76171
1.7408
1.68465
3.58326
17.6812
1.17283
1.146
1.12907
1.12492
1.12892
1.14401
1.16473
1.1842
1.20677
1.21993
1.22135
1.21483
1.21348
1.21338
1.214
1.21841
1.22576
1.23143
1.2307
1.21644
1.20912
1.21686
1.23984
1.2636
1.28726
1.30955
1.32136
1.32615
1.32178
1.2972
1.26061
1.24553
1.24609
1.25133
1.26557
1.31686
1.37439
1.39533
1.40332
1.40687
1.39524
1.36345
1.33545
1.31968
1.31907
1.32825
1.34815
1.3696
1.39798
1.4339
1.45013
1.45211
1.44975
1.45425
1.45945
1.45768
1.44614
1.43925
1.43804
1.43218
1.42098
1.41896
1.43168
1.47384
1.5258
1.56224
1.58368
1.59632
1.60343
1.59505
1.5581
1.51829
1.49998
1.49868
1.50478
1.51468
1.53864
1.59538
1.64642
1.67016
1.68123
1.68544
1.68448
1.67629
1.65104
1.6269
1.61895
1.62189
1.63017
1.65363
1.69905
1.73063
1.74447
1.74892
1.7501
1.74513
1.72387
3.55796
17.7555
1.15533
1.14711
1.1448
1.14875
1.16071
1.17181
1.17566
1.1759
1.17436
1.18298
1.19505
1.20416
1.21804
1.24047
1.25361
1.25673
1.25045
1.23466
1.20739
1.1929
1.19261
1.19876
1.22148
1.27161
1.31486
1.33193
1.33825
1.33948
1.32995
1.28835
1.25423
1.24591
1.24817
1.25377
1.27084
1.31625
1.37074
1.39549
1.40195
1.39378
1.37675
1.36573
1.35234
1.3439
1.34579
1.35545
1.36468
1.36847
1.36917
1.37706
1.40602
1.43217
1.44878
1.46862
1.48658
1.49498
1.48791
1.46381
1.43734
1.415
1.40356
1.40444
1.41106
1.4295
1.49152
1.55798
1.5862
1.59717
1.60395
1.60268
1.58514
1.54534
1.51501
1.50764
1.51374
1.52827
1.5435
1.56119
1.60126
1.63691
1.65424
1.66356
1.67241
1.6824
1.68654
1.66656
1.63839
1.6217
1.61654
1.61956
1.63969
1.68359
1.71711
1.73309
1.73858
1.73747
1.75037
3.57797
17.8238
1.15253
1.15694
1.16706
1.17927
1.18644
1.1868
1.17146
1.15181
1.14815
1.15529
1.17771
1.20892
1.24369
1.26324
1.27079
1.27417
1.2656
1.22222
1.18962
1.18491
1.18798
1.19423
1.21601
1.28037
1.32365
1.33666
1.34229
1.33768
1.30914
1.28131
1.26248
1.25556
1.26004
1.27745
1.29922
1.31454
1.3403
1.36402
1.37064
1.36849
1.36963
1.37647
1.38496
1.38787
1.3802
1.37379
1.3677
1.3534
1.34291
1.34514
1.36217
1.40693
1.4566
1.48965
1.50686
1.51477
1.51649
1.49279
1.44453
1.41271
1.40383
1.40593
1.41252
1.42795
1.45887
1.51732
1.56373
1.58142
1.5861
1.58294
1.58184
1.57889
1.56173
1.54414
1.53745
1.5373
1.5376
1.54053
1.55206
1.58936
1.62742
1.65015
1.66882
1.68805
1.70019
1.70128
1.67538
1.63576
1.60874
1.60119
1.60265
1.62427
1.67533
1.71369
1.73037
1.73082
1.75801
3.63091
17.8852
1.15693
1.18057
1.19185
1.19658
1.19633
1.17812
1.15015
1.14053
1.14199
1.14717
1.17205
1.22997
1.26235
1.27164
1.27617
1.27519
1.24782
1.21085
1.19273
1.18922
1.1925
1.20675
1.2419
1.28469
1.31885
1.33185
1.32946
1.30953
1.29598
1.28899
1.2832
1.28552
1.29594
1.3084
1.31319
1.30923
1.30249
1.31039
1.33654
1.35928
1.37946
1.40133
1.41618
1.42107
1.41142
1.38583
1.35477
1.3331
1.32768
1.33156
1.33919
1.37046
1.44674
1.49471
1.51022
1.5175
1.51736
1.50302
1.46879
1.43117
1.41714
1.41984
1.43295
1.45066
1.4595
1.4689
1.49918
1.53774
1.55972
1.57076
1.58159
1.59629
1.60504
1.59448
1.56693
1.5416
1.52608
1.52055
1.5249
1.5427
1.59043
1.63975
1.67099
1.68872
1.69987
1.70563
1.70243
1.66918
1.62238
1.59414
1.58736
1.59073
1.61917
1.67737
1.71315
1.72028
1.75282
3.70248
17.9517
1.17384
1.19836
1.20376
1.20553
1.18587
1.15238
1.1392
1.14002
1.14378
1.15193
1.19198
1.24381
1.26538
1.27328
1.27439
1.25203
1.2251
1.2106
1.20279
1.2048
1.21985
1.2438
1.25703
1.27012
1.28556
1.29299
1.29147
1.29049
1.29642
1.30829
1.32209
1.32825
1.32654
1.32092
1.30457
1.28334
1.27582
1.28024
1.30249
1.3528
1.40047
1.42766
1.43819
1.44243
1.43398
1.3957
1.35135
1.33153
1.32907
1.33311
1.34387
1.36973
1.41547
1.47071
1.49533
1.5007
1.49425
1.48858
1.48858
1.47899
1.46306
1.45584
1.45687
1.45932
1.45306
1.44517
1.4499
1.47775
1.52806
1.56931
1.59557
1.61185
1.62176
1.62441
1.60366
1.5595
1.52535
1.51453
1.51659
1.52387
1.54678
1.60899
1.66088
1.68382
1.69387
1.69895
1.69837
1.6917
1.6598
1.61549
1.59021
1.58394
1.58809
1.62299
1.67244
1.69463
1.73333
3.78816
18.0146
1.18885
1.20482
1.20769
1.19627
1.16364
1.14419
1.14114
1.14348
1.1519
1.17828
1.21507
1.24593
1.26257
1.26516
1.24823
1.2298
1.22391
1.22095
1.22576
1.24117
1.25843
1.26524
1.26162
1.24462
1.238
1.24913
1.27163
1.29396
1.32016
1.34371
1.35495
1.35726
1.34609
1.31406
1.27707
1.26268
1.26338
1.2686
1.28059
1.33355
1.4081
1.43483
1.44314
1.44687
1.438
1.40851
1.36616
1.34253
1.34034
1.35074
1.37295
1.38713
1.39303
1.40868
1.44099
1.46607
1.47817
1.48825
1.50451
1.51809
1.51882
1.50115
1.47751
1.45447
1.4363
1.42879
1.43172
1.44076
1.47933
1.54968
1.59524
1.61189
1.6208
1.62396
1.61734
1.58806
1.54403
1.52233
1.52163
1.53135
1.54611
1.57016
1.62217
1.65948
1.67277
1.67833
1.68383
1.69123
1.69183
1.66659
1.62317
1.59227
1.5831
1.58203
1.61123
1.64999
1.69915
3.87705
18.0657
1.19972
1.21226
1.19787
1.17142
1.15414
1.14734
1.14842
1.15919
1.18355
1.20124
1.21336
1.22772
1.23369
1.22942
1.2242
1.22733
1.23602
1.25238
1.2672
1.27426
1.27529
1.26445
1.23481
1.21544
1.2134
1.22072
1.25257
1.31115
1.35587
1.37319
1.37854
1.37543
1.35271
1.29853
1.26635
1.26063
1.26393
1.27131
1.29519
1.33992
1.39305
1.42621
1.43505
1.42584
1.41013
1.40528
1.39829
1.38407
1.37856
1.38274
1.38888
1.3901
1.37795
1.36928
1.37866
1.41663
1.4654
1.50221
1.52707
1.54154
1.54906
1.54419
1.50881
1.4616
1.43467
1.42858
1.43192
1.44013
1.46037
1.51204
1.57245
1.59905
1.60722
1.60438
1.60039
1.59664
1.58264
1.56036
1.54796
1.54481
1.54412
1.54586
1.55947
1.60231
1.6395
1.66034
1.67671
1.69048
1.69996
1.70116
1.67508
1.62192
1.57976
1.56492
1.56417
1.59132
1.65607
3.95036
18.1004
1.20054
1.20555
1.18372
1.16953
1.16038
1.16035
1.17153
1.19306
1.20503
1.20795
1.19945
1.18839
1.19012
1.20458
1.22252
1.24604
1.27273
1.2888
1.2944
1.29263
1.27408
1.23221
1.20676
1.20251
1.20614
1.21214
1.23824
1.31857
1.3681
1.38077
1.38603
1.37838
1.33894
1.2986
1.27336
1.26745
1.27394
1.30136
1.32868
1.34006
1.35289
1.37503
1.3931
1.39969
1.40448
1.41333
1.42763
1.43747
1.43105
1.41429
1.39609
1.37329
1.35374
1.34839
1.35232
1.36601
1.42285
1.4979
1.53367
1.54593
1.5523
1.55137
1.53319
1.48993
1.45153
1.43984
1.44391
1.46019
1.47859
1.49264
1.52178
1.5572
1.57527
1.5828
1.58982
1.59918
1.61182
1.61051
1.58655
1.55895
1.53825
1.52683
1.52582
1.54032
1.58683
1.63807
1.67095
1.68836
1.69825
1.70269
1.69944
1.66816
1.61053
1.56447
1.54674
1.5444
1.60483
3.984
18.1293
1.18362
1.18551
1.18238
1.18252
1.1851
1.19313
1.2032
1.20929
1.20952
1.1923
1.16783
1.16009
1.16359
1.18266
1.23124
1.28297
1.30813
1.31503
1.31422
1.29767
1.24974
1.2087
1.19758
1.19937
1.20431
1.22252
1.2688
1.3218
1.3611
1.37507
1.36954
1.34421
1.32676
1.31353
1.30091
1.30089
1.3146
1.33031
1.33614
1.3324
1.31658
1.3139
1.33555
1.3756
1.41009
1.43872
1.46103
1.47105
1.47105
1.44782
1.4019
1.36345
1.34753
1.34698
1.3519
1.36203
1.39201
1.46046
1.51828
1.53808
1.54153
1.52899
1.51828
1.51224
1.49633
1.48099
1.47748
1.48056
1.48296
1.47931
1.47937
1.49882
1.53792
1.56746
1.58871
1.61204
1.62856
1.63598
1.62828
1.59142
1.54573
1.51971
1.5153
1.51905
1.53257
1.58753
1.64957
1.67961
1.69078
1.69605
1.69623
1.68646
1.65482
1.60123
1.55696
1.52695
1.55366
3.95215
18.1709
1.15969
1.18043
1.1947
1.21094
1.22265
1.2265
1.22456
1.21559
1.18881
1.15957
1.14906
1.1502
1.15495
1.16812
1.23192
1.29955
1.31929
1.3261
1.32603
1.29366
1.2406
1.21079
1.20183
1.20453
1.22586
1.26367
1.28752
1.30362
1.32023
1.32853
1.32841
1.32914
1.33283
1.33693
1.34825
1.35569
1.35459
1.348
1.33
1.30084
1.28665
1.28731
1.29652
1.33338
1.40508
1.45715
1.47741
1.4859
1.48831
1.47401
1.42623
1.37423
1.35386
1.35335
1.36408
1.38983
1.41044
1.42514
1.45676
1.49027
1.50536
1.51093
1.5171
1.52614
1.53772
1.5377
1.52007
1.49774
1.47702
1.46081
1.45486
1.46091
1.48805
1.54074
1.58869
1.61768
1.63114
1.6379
1.6405
1.62677
1.57745
1.53254
1.5162
1.51519
1.52084
1.54078
1.59705
1.64862
1.67115
1.67878
1.68101
1.67938
1.67382
1.65139
1.6065
1.55252
1.52492
3.86025
18.2238
1.13336
1.17942
1.21803
1.24277
1.25163
1.25277
1.24141
1.20698
1.1635
1.14335
1.14198
1.14554
1.15392
1.18717
1.24677
1.29529
1.31641
1.31908
1.29816
1.26929
1.24781
1.22993
1.22807
1.24307
1.26987
1.28287
1.28531
1.2742
1.26176
1.26836
1.29434
1.32386
1.35201
1.38129
1.39681
1.39895
1.3872
1.3537
1.30607
1.27755
1.27274
1.27626
1.28414
1.30711
1.37917
1.45432
1.47885
1.48451
1.4732
1.44968
1.43144
1.40961
1.39057
1.38834
1.39833
1.40858
1.41304
1.40739
1.40265
1.41869
1.46106
1.50002
1.52662
1.54868
1.564
1.57072
1.56118
1.52466
1.48092
1.45463
1.44839
1.45189
1.45981
1.49666
1.56966
1.61116
1.62491
1.63026
1.62784
1.62081
1.60658
1.57444
1.54432
1.53148
1.52942
1.53158
1.54078
1.58216
1.63051
1.65679
1.66776
1.67359
1.67575
1.67314
1.65695
1.60334
1.5265
3.74364
18.286
1.1151
1.15975
1.22895
1.25469
1.26281
1.26693
1.25721
1.20714
1.16034
1.14527
1.14489
1.15368
1.18457
1.21612
1.23914
1.26346
1.27668
1.27528
1.27006
1.269
1.26751
1.27145
1.28148
1.29037
1.29447
1.28982
1.25983
1.23218
1.22687
1.23371
1.25674
1.31279
1.37972
1.4161
1.42724
1.42962
1.41691
1.36412
1.30217
1.27768
1.27474
1.28033
1.30228
1.33769
1.36964
1.40799
1.43907
1.4461
1.44219
1.44202
1.44389
1.44733
1.44949
1.44331
1.43317
1.42068
1.40184
1.38129
1.37462
1.37957
1.40243
1.46443
1.52703
1.55895
1.57158
1.57792
1.57727
1.55648
1.50407
1.46444
1.45351
1.4574
1.47116
1.49257
1.52756
1.57479
1.59955
1.608
1.61246
1.61676
1.62134
1.6202
1.59853
1.56513
1.53967
1.52579
1.52111
1.52414
1.55961
1.61715
1.65491
1.67021
1.67527
1.67574
1.67365
1.64797
1.58345
3.6484
18.3695
1.1184
1.16021
1.22349
1.2535
1.2613
1.25566
1.23119
1.20184
1.17587
1.16484
1.1701
1.19341
1.21615
1.22313
1.22459
1.21625
1.21789
1.23657
1.25867
1.27998
1.30625
1.32464
1.32807
1.3217
1.30544
1.26671
1.22703
1.2115
1.21187
1.21725
1.23179
1.29456
1.38538
1.42073
1.43074
1.42887
1.39904
1.35725
1.32188
1.2999
1.29835
1.31397
1.34009
1.35414
1.35832
1.35586
1.36042
1.38582
1.41645
1.44056
1.46337
1.48515
1.49576
1.49344
1.47116
1.43201
1.3919
1.37105
1.36863
1.37328
1.38226
1.41868
1.50219
1.55303
1.56782
1.57023
1.55987
1.54705
1.53125
1.50444
1.48638
1.48349
1.48683
1.49013
1.49336
1.51072
1.54999
1.58099
1.59981
1.61592
1.63161
1.64083
1.64151
1.61777
1.57007
1.52901
1.51013
1.50615
1.50806
1.54663
1.61518
1.65808
1.67121
1.67184
1.67011
1.65891
1.6424
3.62061
18.4582
1.13813
1.16362
1.19318
1.21821
1.22564
1.22156
1.21485
1.21143
1.20797
1.20874
1.21601
1.22532
1.22941
1.22221
1.19329
1.17816
1.1796
1.1957
1.23893
1.29897
1.34542
1.36328
1.367
1.35066
1.30195
1.2494
1.21928
1.21223
1.21381
1.22296
1.25722
1.3029
1.354
1.39362
1.40389
1.39445
1.3778
1.36564
1.35689
1.3527
1.35374
1.35802
1.36175
1.36021
1.33782
1.31636
1.31506
1.32854
1.3702
1.43215
1.48319
1.50812
1.51777
1.52037
1.50796
1.46062
1.40148
1.37548
1.37225
1.37952
1.40089
1.42802
1.46119
1.50815
1.53409
1.53956
1.54076
1.54518
1.5503
1.55354
1.5415
1.51908
1.49938
1.48417
1.47309
1.47173
1.48575
1.52796
1.57735
1.61452
1.63585
1.64564
1.65041
1.64809
1.61753
1.56021
1.51659
1.49867
1.49624
1.50208
1.54572
1.61881
1.65602
1.66159
1.65999
1.64927
1.67319
3.66308
18.5466
1.15724
1.16452
1.16275
1.16365
1.1839
1.20584
1.21903
1.23339
1.24935
1.25817
1.25637
1.24827
1.23136
1.19732
1.17252
1.1671
1.1703
1.17725
1.20716
1.29907
1.35667
1.37066
1.3761
1.36826
1.31717
1.25292
1.22503
1.22064
1.23023
1.26303
1.29076
1.30036
1.30753
1.32025
1.34059
1.35775
1.36787
1.38058
1.40206
1.41564
1.41329
1.3987
1.37647
1.34318
1.30952
1.29649
1.29792
1.3041
1.32379
1.39749
1.48171
1.51036
1.51875
1.5154
1.49352
1.46466
1.43376
1.40806
1.40201
1.41088
1.42262
1.4291
1.43271
1.44047
1.4718
1.5064
1.52892
1.54744
1.5697
1.58393
1.58554
1.56553
1.52578
1.48496
1.4615
1.4558
1.45841
1.47311
1.53107
1.59934
1.63184
1.64199
1.64672
1.64504
1.63431
1.60362
1.55294
1.51522
1.50058
1.49995
1.50482
1.54605
1.60804
1.63689
1.64174
1.63231
1.679
3.75998
18.6224
1.16642
1.15377
1.13359
1.13123
1.14021
1.17613
1.22537
1.26516
1.28843
1.29493
1.28927
1.2622
1.21571
1.17723
1.16352
1.16392
1.1683
1.18088
1.22403
1.29004
1.34391
1.3623
1.35898
1.33286
1.30543
1.28119
1.26201
1.2617
1.27688
1.29385
1.30005
1.29668
1.27406
1.26302
1.27407
1.31127
1.36026
1.40765
1.44359
1.45853
1.46193
1.44429
1.39421
1.33755
1.30589
1.29778
1.29979
1.31064
1.34139
1.3839
1.43785
1.47914
1.49051
1.48515
1.4762
1.47374
1.47161
1.46587
1.45546
1.44573
1.4372
1.42456
1.40695
1.40137
1.41209
1.45225
1.50721
1.55433
1.58389
1.59714
1.6029
1.60039
1.56689
1.50429
1.46403
1.45364
1.45587
1.4639
1.48886
1.55201
1.6063
1.62638
1.63067
1.62516
1.62197
1.62184
1.60705
1.56781
1.52976
1.50722
1.50034
1.49893
1.52951
1.58594
1.61722
1.61804
1.66849
3.87298
18.6833
1.1628
1.13525
1.12812
1.12916
1.13273
1.14528
1.21121
1.28412
1.30668
1.3142
1.31392
1.28425
1.21595
1.17484
1.16521
1.16691
1.18166
1.21847
1.24609
1.26493
1.28889
1.30874
1.31527
1.31631
1.31889
1.31922
1.32086
1.3211
1.31887
1.31405
1.2998
1.26744
1.24354
1.23835
1.24258
1.25784
1.32146
1.41036
1.45165
1.464
1.46925
1.46035
1.41695
1.3566
1.323
1.31494
1.32265
1.34586
1.36655
1.37425
1.38171
1.4021
1.43326
1.45496
1.46706
1.4816
1.50289
1.51416
1.50917
1.48607
1.45282
1.41541
1.39073
1.38537
1.38914
1.40266
1.46106
1.543
1.58271
1.59489
1.59956
1.59401
1.57657
1.54182
1.49822
1.47559
1.47314
1.4797
1.48811
1.50006
1.54076
1.58463
1.60482
1.61116
1.61535
1.62317
1.63045
1.62479
1.58446
1.53243
1.49674
1.48423
1.48249
1.50983
1.56995
1.5969
1.65528
3.98426
18.7369
1.14973
1.12266
1.12337
1.12749
1.13417
1.15927
1.22098
1.28118
1.30652
1.31202
1.29923
1.26197
1.2223
1.19222
1.18419
1.19389
1.2234
1.24569
1.25119
1.24633
1.22982
1.23115
1.26033
1.30111
1.33199
1.36014
1.37797
1.38017
1.36549
1.33183
1.28599
1.24858
1.23393
1.23417
1.23886
1.25125
1.2921
1.37387
1.43459
1.45313
1.45011
1.42715
1.40621
1.39153
1.37373
1.36606
1.36928
1.37562
1.37856
1.36988
1.34933
1.34589
1.36544
1.41211
1.46161
1.50112
1.52707
1.53844
1.54184
1.52734
1.47825
1.42085
1.39206
1.38662
1.39097
1.40381
1.43297
1.49574
1.55304
1.57393
1.57718
1.57202
1.56821
1.56821
1.55743
1.5311
1.5081
1.49466
1.48598
1.48045
1.48336
1.5124
1.56451
1.59934
1.61589
1.62839
1.63931
1.64414
1.63424
1.58715
1.52449
1.48127
1.46766
1.46649
1.50046
1.55675
1.63138
4.07885
18.7838
1.14894
1.12406
1.12478
1.13277
1.15875
1.18605
1.2101
1.24703
1.27169
1.27492
1.2672
1.25686
1.24355
1.23433
1.23345
1.24094
1.24969
1.25318
1.24326
1.21011
1.19287
1.1945
1.20879
1.26016
1.33972
1.39212
1.41167
1.41735
1.41008
1.36945
1.29467
1.24884
1.2369
1.23836
1.25396
1.28957
1.31561
1.3323
1.36179
1.39116
1.40403
1.4081
1.41295
1.42162
1.43262
1.43287
1.42041
1.40257
1.37909
1.34728
1.32627
1.32342
1.32872
1.35419
1.42947
1.50215
1.53117
1.54078
1.54386
1.53229
1.50007
1.45177
1.41704
1.40761
1.4137
1.42715
1.43748
1.44692
1.47874
1.52129
1.54625
1.55727
1.56615
1.58165
1.59357
1.59181
1.56285
1.52024
1.48415
1.46462
1.45898
1.46174
1.49529
1.56171
1.61011
1.63193
1.64058
1.64327
1.64124
1.6246
1.57182
1.50777
1.46921
1.45879
1.46245
1.49943
1.58928
4.13165
18.8305
1.15981
1.13676
1.1414
1.16322
1.18599
1.19459
1.19846
1.19843
1.20494
1.22742
1.24807
1.26186
1.28002
1.29425
1.29418
1.28212
1.26695
1.24253
1.20492
1.18093
1.17626
1.17975
1.18733
1.22212
1.32586
1.39739
1.41566
1.41802
1.39562
1.35157
1.31199
1.27871
1.26653
1.27434
1.29784
1.31516
1.31928
1.3103
1.29528
1.30303
1.34334
1.39122
1.42737
1.45751
1.47689
1.48308
1.47289
1.43555
1.38243
1.34204
1.32549
1.32452
1.32889
1.34386