/*--------------------------------*- C++ -*----------------------------------*\
  =========                 |
  \\      /  F ield         | OpenFOAM: The Open Source CFD Toolbox
   \\    /   O peration     | Website:  https://openfoam.org
    \\  /    A nd           | Version:  12
     \\/     M anipulation  |
\*---------------------------------------------------------------------------*/
FoamFile
{
    format      ascii;
    class       volScalarField;
    location    "5.54";
    object      T;
}
// * * * * * * * * * * * * * * * * * * * * * * * * * * * * * * * * * * * * * //

dimensions      [0 0 0 1 0 0 0];

internalField   nonuniform List<scalar> 
22702
(
1
1
0.96003
1
1.01893
1
1.12052
1
1
0.900189
1.12071
1.12057
1
1.11881
0.964663
1
1
1
1.12046
1
1.11865
1
1.11902
0.901241
1.11766
0.885426
1
1.11999
0.894477
0.893208
1
1.12023
1
1
1
1.1105
1.11828
1.11909
1
1
0.900417
1
1.06293
1
1.11985
1
1
1
1
0.897762
1
0.902042
1
1.12068
1
1.12013
1
1
1
1
0.88389
1
1
0.895022
1
0.897324
1
1
1
0.896577
1
1.11882
1.07635
1
1.1189
1.1259
0.896847
1.1201
0.898785
1
1.12071
0.895857
1.11971
1.11986
1
1
1
1
0.980639
0.89856
1.12059
1
1
0.893708
1
1.11888
0.893369
1
1
1
1
1.06336
1.12064
0.88715
1
1
1.03133
1
0.896859
1
1.12006
1.12039
1
1
0.884537
0.886521
0.898369
1
1
1
1
1
0.974189
1
1.10308
1.01141
1.11953
1
1.11943
1.12047
1.11881
1.12113
1
0.888987
1
0.884444
1
1
1
1
1.12046
1
1
1
1
1.1191
1
1.00783
1
1
1
1
0.894255
1
1.00295
1
0.898978
1
1
1
1.12011
1
1.11873
0.885084
0.884108
1.1193
1.11904
1
1.02417
1.07113
1
1.12017
0.900659
1.11076
1
1
1
1
1.1187
1.10057
1
1.12047
0.897954
1.11995
1
0.893059
1
0.900528
0.885733
0.999937
1
1
1.12031
1
1
1.11864
1
1.11951
1.12055
0.898282
1
1
0.896454
1.11871
1
1
1
1.11869
1
0.887429
1
1
1.11849
1.11853
1.11957
1
1.00001
1
1
1
1.1182
1
0.898239
1.12452
1.11864
1.11855
1
1
1
0.893256
1.11868
1.05833
1
1.11897
0.895246
0.891461
1.11898
1.11835
1
1.11961
0.881262
1.1062
1
1
1
1
1.11835
1
1.07388
1.01201
1
1
1.11877
0.885496
0.926155
1
1.11804
0.887283
1.11944
1
1
1
1
1
1
1
0.896755
0.924542
0.890363
1.11866
1
1
1
1
1.10929
1
0.900142
1
0.888838
0.899108
1.11867
0.898695
1.11862
1
1
1
0.999346
0.893882
0.886661
1
1
0.888149
1
1.12027
0.889858
1
1
1.12082
0.890884
1
1.11903
0.883782
1.1187
1
0.891483
0.999343
1
1
1
0.902347
1
1
1
1
1.00243
1.07667
1
0.888485
1
1
1
1
1
1
1
1.12097
1
1.12134
1
1
1
0.887501
1
1.11893
0.898812
1
1.09577
1
1
1.12095
1
1
1
1.11803
1
1
1.11442
1.12091
1
1.02727
1
1
0.883581
1
1
1
0.891513
1
1
1
1
0.887475
1
1
1
1
1
0.89257
1.00002
1.11883
1
0.999999
1.11895
1.11954
1
1
0.900092
0.947755
1.12053
1
1
1
1.11864
0.895779
1
1.1187
1
1
0.915596
0.909268
1
0.890372
0.894128
1
1
1
1
1
1
1
1.12006
1.03102
1.11409
0.892556
0.970788
1.12062
1
1.11921
1.12032
0.890161
0.935017
1
0.885054
1
1.12445
1
1
1
1
1.11867
1
1
1
1
1
1
1
1.04785
1.11951
1
1.11864
1
1
0.89756
1
1
1
1
1.11871
1.09259
1
1
0.893811
1.11859
1.11854
1
1.11848
1.1187
1.11854
1
0.954339
1
1.11832
0.998217
1.1186
1
0.886551
0.999677
1.12107
1
1
1
1
0.896713
1.11862
1.10871
1
1.11742
1.11848
1.12042
1
1.05968
1.11837
1
1
1.08554
1.01878
1.11855
0.983345
1.11856
1
1.11856
1.11863
1.11856
1.11854
1
1.11386
0.972394
0.965874
1
1
1
1
1.12023
1
1
1
1
1
1.12097
1
1
0.998905
1.11867
1.10239
1
1.099
1.00001
1
1
1.1183
1
0.999165
1.00111
1
1.11859
1
1.11888
1
1
1.09063
1
1.11895
1.00001
1
1.11872
1
1.11874
1
1
1
1.11851
1
1.12007
1
1.11852
1.12227
1.11873
1.11997
1
1.12105
1.11695
1
0.887768
1.11197
1.08846
1
1.11864
1
0.883695
0.883736
1
1
1
1
1
0.892112
1
1.11864
1.03338
1.11827
1
1
1
1
1
1.11864
1
1.11822
1.07334
0.937952
1
1
1.0376
1.03157
1
1
1.04486
1
0.901011
1.11869
1.11864
1
1
1
1.12193
1
1.00001
1.11921
1.11866
0.989154
1
1
0.900024
1.10855
1
1
1
1
1
1.11868
1.12095
1
1.11852
1.11946
1.11875
1
1
1
1
0.889032
1.12043
1
1
1.10915
1.11821
1
1.11238
1.11951
1
1
1
1
1
1.11861
1
1
1
1
1.12
1
1.11755
0.884006
1
0.894957
1
1
1
0.999135
0.893164
0.99971
1
1
1
1.01836
1
1
0.96479
1
1
1
1
1
1
1
0.999999
0.975756
1
1
0.999321
1
0.897975
1
1
1
1
1.09121
1
1
1
1
0.89799
1
1
1.11232
1.12044
1
1
1
0.969406
1
1
1
1
1
1
0.989558
1.00211
1.11828
1
1
1
1.11959
0.971773
1
1
1
1.11939
1.11985
1
1
1
1
1
1
1
1
1
0.889301
1
1
1.11984
0.886273
1
1.11978
1
0.89436
1
1
0.890859
1
1
1
1
1
1
1
1.11642
1.11828
1
1
1
1
1.10936
1
1.04217
0.887466
1
1
1
1
1
1
1
1.01303
1
1
1.06488
1
1
1
1.10022
1
1
1
1
0.886177
1
1
0.883744
0.885783
1
1
1.11837
1
1.00764
1
1
1
1.08564
0.893126
1
0.887375
1
0.936321
1
1
1
1.11903
1
1
1.1186
1
1
1
1.11862
1
1
1.11845
1
1
0.891319
1
1.04211
1
1
1.12076
1.12051
1.08264
1.10726
1
0.885951
1
1
1.11385
1
0.884696
1
1
1
1.11867
1
1
1
1
1.0736
1
1.11562
1.11819
0.89801
1
1
0.885214
0.884668
1
1
1
1.08733
1.092
1
1
1
1
1
1
1
1.05264
1.1207
1.00352
1
1.11728
0.886366
1
1
1
1.06942
1
1.02557
1
1.10906
1.11811
1
0.887761
1
1.12034
1
1
1.11835
1.11185
1
1.12239
1
0.894518
1
1
1
1.11835
1.11646
1.10569
1
1.11876
1.11848
1
1.11882
1
1.11821
1
0.888786
0.994897
0.884076
1
1
1
1
1
1.11873
1
1.11875
1
1
1
1.11341
1
0.898367
1.11858
1
0.894821
0.899049
0.889228
1
1.06303
1.01155
1.11914
1.11841
1
1
1
1
1.1187
1
1
1.11869
1.11844
1
1.04612
1.00001
1
0.999039
1.12013
0.954125
1
0.945166
0.901092
0.899509
1.00023
1.11914
1.11718
1.02541
1.11872
1.11843
1
1
1.12093
1.12013
1.11854
1.12167
1
1.11863
0.894973
1.11956
1.11837
1.11998
1.11869
0.962684
0.973544
0.977542
1.1184
0.985244
1.11836
1
1
1.1191
1.11871
1
0.884928
1.11826
1.11839
1
1.11849
1.11849
1
1.1187
0.895397
1.1196
1.12086
1.12102
1.11854
1
1
1
1.11832
1.07967
0.888291
1.11863
0.88203
1.1183
1
1
1
1
1.11862
1.11867
1
1
1.11861
0.88713
1.11879
0.899023
1
1.11798
1
0.899551
1.11899
0.92413
1
1.11848
1.11918
1.11844
1
1
1.0585
1.11902
0.891505
1.1186
1
1.11882
0.962335
1.11832
0.896351
1
1.1183
0.899061
1.11912
0.894222
1
1.11868
1
1.11899
1
1.07268
1.11456
1.09484
0.885494
1
1.11848
1
1.1186
1
1.11855
1
1
1.11842
0.998259
1.11916
0.897316
1.10643
1
1.08669
1
1.11878
1.11857
1.11843
1
1.10766
1.11849
1.11052
1.07509
1.11814
1
1.0815
1
1.11841
1
1.01939
1
1.11057
1
1.11883
1.11375
1.11364
1
1.11596
0.88422
1
0.884478
1
1
1
1.12062
1
1.11875
1
1
1
1.11881
1.11678
1.09883
1.11861
1.11936
0.894876
1.11611
1.12039
1
1.1033
1.11851
1.11522
1
1.12032
1.12041
1
1.12059
1.11888
1.1187
1.11896
1
1
1
1.11866
0.88249
1
1.11853
1
1
0.883421
1
1
1.11852
1.11848
1
1.11847
1.11985
1.11889
0.995947
1.11864
1
1.11864
1.11856
1.09568
1
1
1
1.11915
1.11862
1.11851
0.98607
1
1.1197
1.11863
1.11847
1
1.11862
1.11847
1.11846
1.12094
1
1.1184
1.11956
1.10475
1.11851
1.12065
1
1.12021
1.11733
1.11854
1.11968
1.11832
0.886153
1.11839
1.11866
1
1.1186
1.11847
1.11862
1.11871
1
1.11841
1.11867
1
1.11846
1.10174
1
1
1
1.11937
1.11672
1
1
1.06857
1
1.11846
1
1
1.11846
1.11899
1.11847
1.1184
1
1
1
1.08545
1
1.11869
1
1
1.12073
1.12094
1
1.11854
0.88112
1.11871
1.11908
0.91343
1
0.887145
1.10408
1.11919
1.119
1.11913
0.887958
1.11837
1.11901
0.888414
0.885991
1
1.11908
1.11841
1
1
1.11859
1
1.11907
1
1.10496
1
1.05967
1.11841
1.11919
1.08622
1.10591
1.12037
1.11876
1.10944
1
0.886597
1.11961
1.11868
1.11986
1
1
1
1.11922
1
1.11871
1.11829
0.92619
1
1.11865
0.99998
1
1.00001
1.00001
1.11859
1.11898
0.999575
1
1
1.11853
1.119
1.11844
1.11924
1.11817
0.898255
1.10067
1
1.1179
1.11842
1.11866
1.11908
1
1.11849
1.11579
1.11879
1
1.1188
1.11888
0.96173
1.11854
1.11906
1
1.11842
0.956881
1.1187
0.959054
1.11861
1
1.11862
1.12281
1.11857
1.11854
1.11863
1.11985
1.11863
1.11985
1
0.980315
1.11858
1.11868
0.955678
1.11847
0.996273
1.08028
1.11849
1.11897
1.11968
1
1.11916
1.07878
1.11889
0.979895
1.11898
1.12158
1
0.960933
1
1.11652
1
1.08378
1
1.118
0.959128
1
1.11829
1.11711
1
1.11847
1.11918
1.12087
1.11665
1.11922
1
1.12077
1
1
1
0.9672
1.11852
1.11875
1.12008
1.11855
1.1176
1.11924
1.11964
1.11874
0.970093
1.0086
1
1
1.1232
1.11866
1.11864
1.11852
1.00001
1.06427
1
1.12033
1.10551
1
1
0.916303
1.11856
1
1
0.895452
1.11849
1
1.12057
1.11866
1.12041
1.11439
1.11868
1
0.890375
1.0301
1.11859
1.1187
1
1.11868
1.11852
1.06039
1.00272
1.02771
1
1.11905
1.11859
1
1
0.887853
1
1
1.11857
1.11857
1.11877
1.11844
1.11859
1.12068
1.11874
1.11841
1.11864
1
0.998974
1.11866
1.11871
0.999115
1.1185
1.11855
0.890639
0.898693
1.11808
1.11807
1
1
1.00034
1.11857
1.11844
1.1185
1
1.1185
1
0.954697
1.12015
1.1175
1
1.05623
1.11886
1
1.12017
1
1.11846
1.08073
1.11821
1
1.11857
1.12083
0.887965
1.1186
1
1.1189
1.12046
1
0.891172
1.11835
1.10203
0.999337
1.11377
1.1185
1
1.00082
1.11928
0.999433
1.11864
1
1
1.1188
1
1.1196
1.11848
0.999015
1.09558
1
1.11851
1
1
1
1
1.11852
1
1
1.1211
1
1.11849
1
1.07946
1.11999
1.11884
1
1
1.00135
1
1.11891
1.11859
1.11866
1.11862
1.11886
1.1185
1.1187
1
1.11868
1.11833
1
1.11872
1.11856
1
1.11838
0.978776
1.01713
1.11857
1.11852
1.1184
1
1.11871
1
1.11851
1.11859
1
1.11836
1
1
1
1
1.11842
0.889752
0.999403
1
1.11857
1.11808
1
1.11854
1
1.00154
0.89107
1.11862
0.999882
1
1.11817
0.999534
1.11855
1
0.999934
1
1.1185
1.11987
1.11836
1.11848
0.889096
1.11859
1.11851
1.11843
1.03073
1
1
1.05399
1.11858
0.886625
0.89228
1
1.11883
1.11852
1.11836
1
1
1.11909
1.11852
0.999963
1
1.08773
0.880313
1
1.02291
1.12085
1.11834
0.999497
1.11852
1.11997
1
0.999565
1
1.11835
1.11978
1.04992
1
1.11075
1
1.00032
1.11857
0.897771
1.11828
1.11866
0.999124
0.999974
1.10278
1
0.999914
1
1.11886
1
1
0.885101
1.11855
1
1
1
1
1.11883
1.06934
1
1
0.883848
1.11859
1.07067
1
1
1
1.11386
1.11756
1.11964
1
1
1.11953
1
1.11871
1.11858
1
1
1.11891
1.11864
1.1143
1
1
1.11899
1.11862
1
1
1
1.11876
1
1
1
1.11835
1.11912
1.11908
1
1.11838
1.00001
0.904405
1.11834
1.11831
1
1.12051
1.11614
1.12105
1
1
1.11946
1
1.06855
1.11904
1
0.88877
1
1.11892
1
1
1.11958
1
1
1
1.04088
1.11873
0.895253
1
1.11886
1
1
1.11876
1
1.1197
1
1
1.11857
1.11859
1
1.00001
1
1
1
1
1
1
1.11828
1.11857
1
1.12052
0.891535
1.11768
1
1.11867
1.12058
1.1185
1.12041
1.12163
1
1
1.11922
1
1.07937
1.11986
1.11839
1
1.11881
1.11847
1
1.10638
1
1.11864
1.08061
1.11865
0.999302
1.11867
1.1094
1.1189
1.11883
1.01062
1.11854
1.11918
1
1.11864
1
1.11871
1
1
1
1
0.999019
1.11851
1.11868
1.10052
1
1.11939
1
1
1
0.878672
1
1.11564
1
1.10851
1.11186
1
1
1
1.11131
1.12049
1
1
1.11837
0.885086
1.02347
1
1.11985
1.11863
1.10889
1.11538
1.11876
1
1.11896
1
1
1
1
1.11901
1.11877
1
1.11648
1.01793
1.11875
1.11112
1
1
1.11142
1
1
0.890667
1.08805
1
1
1.11874
1
1.11931
1.10892
1
1.10891
0.884975
1.1187
1.11859
1.1185
1
0.895063
1
1
1
1.11864
1.09844
1
1.1206
1.11859
1
1.11857
1
1
1
1
1.11866
0.999806
1
1.11893
1
1
1.11823
1.11859
1
1.12046
1.02475
1.00001
1
1.11841
1
1.11832
1
1.00355
1.11865
1
1.11855
1
1
1.03698
1.11835
1
1
1
1
1
0.998949
0.894794
0.891409
1.00579
1
1.00807
1
1.00588
1
1.11863
1
1.07663
1
1.11855
1
1
1
1.11858
1
1.09369
1.11868
1
1.0641
1.11844
1
1
1.12026
1.11859
1
1
1.01636
0.883909
1
1.11891
1
1
1
1
1.02182
1.11871
1
1
1
0.889183
1
1.11859
1.11853
1.11868
1
1
1
1
1.06218
1.11897
1
1
1
1.11934
1.11855
1.01641
1
1
1
1.1185
1.11855
1
0.888961
1.11852
1.11854
1.11851
1.11818
1.11802
1
1
1.12059
1.11786
1.1186
0.892581
1.01167
1.11889
1
1
1
1
1
1.11865
0.888953
1
1
1.11854
1.05709
1
1.11969
1
1
1
0.892734
1
1
1.03318
1.11844
1.11874
1
1.1162
1.1203
1
1.02327
1
1.11943
1
1.11882
0.885121
1
1
1
1
1.11857
1.00002
1
1
1
1.11706
1
1
1
1
1.11842
0.892657
1.09696
1.11939
1
1.11837
1
1
1
0.999187
1
1.1206
1
0.947109
1
1
1.00001
1.11868
0.888389
1
1.11853
1
1.11916
1.11841
0.891111
1
1
1.11699
1
1
0.896551
1
1.11908
1
1.11384
0.9998
1.1185
1
1
1
1
1.12007
1
1
1.11865
1
1
1
1
1
1
1
1
1.08071
1
1.04069
1.11839
1
1
1
0.894506
1
1
1
1
1.11792
1.11843
1.01869
1
1
1.11875
1
1
1.1184
1
1
1
1
1
1
1.11867
0.934499
1.11858
1.1189
0.999121
1
1
1
1.07276
1
1
1.11856
1.11864
1
1
1
1
0.894088
1
1
1
1.07785
1
1.11852
1.11915
1
1.11887
1
1
1
1.06725
1
1.1207
1
1.11852
1
1
0.998937
1.11862
1
1
1
1
1
1.1189
1.00001
1
0.892888
1.11805
0.892394
1
1.11821
1
0.998801
1
1.11882
1.11935
1
1.11542
0.961282
1.11851
1.11959
1.00001
1
1
0.893512
1
1
1
1.11845
1.07262
1.11874
1
1
1
1
0.999044
1.11862
1
0.883586
1
1
1
1
1
1
1
1.12097
1.11918
1.11941
1
1
0.999096
1
0.997219
1
1
1
0.891611
0.997303
1
0.892459
0.89585
1
1.1185
1.11861
1
1.11868
1.11843
0.886706
1.07982
1
1
1
0.88332
1.11857
1
0.88233
1
1.12007
1.0247
1
1
1
1
1.11865
1.12018
1
1
1.1184
1
1
1.12002
1.11851
1
1.11062
1.11872
1.11955
0.990779
1.11852
1.00235
0.884951
1.09393
1.11835
1
1
1
0.890457
1
0.894677
1.11974
0.990468
1.11852
0.989019
1
1.11855
1.05747
1
1
1.11936
1
1.05077
1.11853
1
1
1.11966
1.11929
0.895295
1.07009
0.99997
1
1.07616
1
1.11776
0.983222
1.1212
1.11827
1
1
1
1
1.11388
1
1
1.11913
0.999897
1.11858
1.09698
1.11932
0.894279
1
1
1
1
1.11848
1.00001
1.11855
1
1.11879
1.11812
1.01627
1.1191
1.03981
1.11898
1
1.0836
0.900877
1.11892
1.11863
1.09909
1.02503
1.11983
1.1186
1.11857
1.11858
1
0.981108
1.01847
1
1.1186
1.05888
1.11875
1.00001
1
1
0.899241
1.11773
1.11922
1.09906
1
1.04842
1
1.11903
1.11934
1
1.11858
1.11905
1
1
1
1.11847
1
1.0496
1.11926
1.08521
1
1.11841
1
1
1
1
1
1
1
1
1
1
0.899002
1
1.11034
0.887057
1.07174
0.999594
1.11799
1
1.0637
1
1.07994
1.10372
1
1.00055
1.12017
0.97745
1
1.12006
1.11433
0.983093
1
1.11893
1.11842
1.11888
1
1.1185
1.11891
1.11928
1
1.05774
1
1.00002
1.11865
1
1.11874
1.01902
1.11808
1
1
1.11824
1.1198
0.898275
1
1.11852
1.09145
1.11846
1
1
1.11936
1.1182
0.999496
1
1.10493
0.99908
1.1186
1.00001
1
1
1
1
1.05752
1
1.09294
1.11891
1.09103
1.11883
1
1.001
1
1
1.11965
1
1.11945
1
1
1
1
1
1
1.0159
1.06474
1
1
0.892627
1
1.11857
0.902283
1.12069
1
1.06372
0.99993
1.11884
1.07914
0.897086
1.06843
1.00001
1.1186
1.11921
1
1.07551
1.1196
1.11904
0.999548
1.11659
1.11564
0.89461
1
1
0.999361
1
1.11746
1
0.898569
1.11926
1
1
1.10602
1
1.11883
1
1.11858
1
0.901955
1
1
1.11919
1.11926
1.11896
1
1.11914
1.11862
1.11664
1
1
1.1166
1
0.918098
1
1
1
1.11912
1
1.11855
1.08031
1.11873
1
1.11858
0.999825
1
1
1
1
1
1
0.914026
1
1
1.11865
1
1.11985
1.11771
1
0.889898
0.890867
1
1.11895
1.02062
0.88539
0.883884
1
1.11898
1
1.11937
0.88769
1.00036
1
1
0.999855
1
1
1
0.999975
1.05113
1.11859
1
1
1.1188
1.0729
1
1.10706
1.11909
1.11885
1.05117
1.11718
1
1.1185
1
1.11483
1
1.12006
1.11802
0.999129
1.11896
1.11788
1
1
1
1
1
0.979217
1.11983
1.00001
1.00001
0.895712
0.999995
0.891354
0.880774
1
1.11856
1.11836
1.11876
1
1.11861
1
0.893804
1
1
1.11906
0.949313
1.11882
1
1.11898
1
0.993859
1.11878
1
1
1
1.11864
1
1.11867
0.895811
1
1
1.07346
1
1
1.06816
1
1
1.11878
1
1
1
1
1
1.11872
1.1186
1
1.11892
1.11909
0.897037
1.0582
1.11931
1
1
1.10802
0.999718
1
1
1.11857
1.11927
1.08359
1
1.11875
0.888767
1.11212
0.999852
1
1.11901
1.00001
1.11849
1.0996
1.09286
1
1
1.11864
0.907301
0.895082
1
1.11851
1
1.11838
1
1.07242
1
1
1.1184
1.0796
0.884213
1
0.99951
1
1
1.00747
1.05073
1.11863
1
1.11998
1
1
1
1
1
1
1.0186
0.882797
1
1
1.00935
1
1
1
1
1
1.1184
1
1
1.1185
1.11849
1.08656
1
1
1
0.951627
1.11999
1.08539
1
1
1
1
1.11837
1
1
1
1.11796
1
1
1.08761
1.12373
1.01307
0.924115
1.11816
1.08814
1.1182
1
1.06396
1
1
1
0.88862
1.00073
0.898814
1
0.889311
0.88471
1
0.894458
1
1
1
1.05739
1
1.11886
1.11857
1.00048
1.06174
1.10161
0.893541
0.931115
0.968662
1
1.11857
1.12017
1.11858
1.1185
1.10335
0.962856
1
1.10386
1
1.11506
1
1
0.999019
1.00282
1
1
1
1.11892
1
0.892044
1
1.11882
0.896894
1
1
1.1185
1
1.11847
1.0001
1
1
1.1188
1.11092
1
1.12294
1
1
1.00425
1
1.05482
1
1
0.8961
1
1
1.11907
1
1.11895
1
1.00001
0.896604
1
1
0.891533
1.00031
1
1.11921
0.88871
1.1178
0.884791
1.11839
1
1
1
1
1
1
1
1
1
1
1
1.11401
1
1.11889
1.12013
0.883938
1
1
1
1
1
1
1.11579
1
1
0.89381
1
1
1.11909
1
1
1.04872
1.10131
0.886999
0.888861
0.907817
0.923409
1
0.999037
0.894191
1.00012
1.10922
0.999114
1
1
1.11844
1
1
1
0.932942
1
1.04571
1
1
1.05222
1.1185
1
0.889266
1
1
1
0.999038
1
1.11783
1.11852
1
0.886461
1
1.06747
0.885047
1
0.969195
1
0.998874
0.887355
1
1
1
0.998755
0.893119
1
0.8888
0.999552
1.0669
1.10828
0.885805
0.889707
1
0.99731
1
0.999613
1
1.11816
1.11879
1
1.00602
1.11846
1.11867
1
1
1.11851
1
1
1.00001
1
1.11895
1
1
1.00517
1
0.99959
0.907856
1
1
1
1
1
1.11923
1.00993
1.00001
1
1
1
1
1
1.00001
1
0.893758
1.02861
0.999603
1.11611
1.11918
1
1.00439
1.11861
1.1032
1
1
0.887229
1.11875
1
1.11974
1
1.11849
1.08307
0.892804
1
0.885536
1.11528
0.999909
1
0.885131
0.885162
1
1
1.10173
1
0.999999
0.885508
1
1
1
1.04081
1
0.883669
1.11879
1
1
1
1
1.11847
1
1
1.11857
1.10759
1
1
1
1.11949
0.888238
1
1.11891
1.11861
1
1.09643
1
1.00001
1
1
1.11078
1.00582
1
0.897225
1.06593
1
1
0.999222
1
1
1.11876
1
1
1.00001
1
1.11933
1
1
1
1
1
1
1
1.05586
1
1.11895
1
1
1.11903
1
1
1
1.11847
1.11782
1.01262
1
0.999289
1
1
1
1
1.12021
1
1
1.11848
0.890016
1
1
1
1
1
1
1.09813
1
1
1.1179
1.11931
1
1
1
1.11893
1.11832
1
0.999901
1.11745
1
1
1
1.00001
0.89396
1.00865
0.998824
0.998814
1
1
0.889082
1.119
1
0.891703
1
1.11816
1.11411
0.887864
0.999833
1.11863
1.11902
1.11828
1
1
0.979044
1.11078
1.1003
0.890236
1
1
1
1.11887
1.1184
0.891086
0.999232
1
1.11871
0.888719
1
1.11511
0.888447
0.994318
1.00193
1
1.1181
1
1
1
1
1
1
1.00003
1.11117
1
1
1.11917
1
1
1
1.11852
1
0.892078
1
1
1
1.04368
1
1
1
1
1
0.934731
1
0.890062
1
1.11862
1.00002
0.963152
0.964461
1
1.00131
1.06678
1
1
0.893892
1.11857
1.11863
1.11854
1
0.885584
0.895636
1
1.11844
1
1
1
1
1
1.00001
1
0.893753
1.07918
1
1
0.88981
0.999176
1
1
1
1
0.888881
1
0.899855
1
1
1.12117
1
1
0.882257
1
1.11854
1
0.892656
1
0.890467
1
1.00236
1.11894
1.12315
1
1
1.12023
1
1
1.02846
0.999088
1
0.999494
1
1.11947
1
0.894503
1
1.12111
0.999728
1
1
0.94157
1
0.999712
0.884816
1.11911
1.0472
1
1
0.975826
1
1
1
0.94175
1
1
1
1.11861
1
0.89367
1
1
1
1
0.886969
1.1185
1.11074
0.888608
1
1.12044
1
1
1.11844
1.11979
1.10198
0.885463
0.999334
0.999801
1
1.11855
1
1
1
1
1.11864
1.00001
1
1
1.11967
1
1
1.11856
0.893008
1
1
1
0.891576
1
1
1
0.999603
1
1
1
1
1.09273
1
1.11933
1.11897
1.12057
1.11872
1.11866
1.11851
1
1.11843
1
1.11869
1.11861
1
0.999663
0.890875
1.10343
0.999969
1
1
1
1
1.00113
1
1.01964
1
1
1
0.953371
1.11864
1.1184
1.12025
1.1054
0.999963
1
1.00617
1.11892
0.999407
1.01894
0.999193
0.888431
1
1.00001
1
1
1
1
1
1.11863
0.887158
1.11848
1.11847
0.998507
0.885098
1
1
1
1.11849
0.885817
1.10596
0.886585
1.11867
1.12005
0.891206
1.11785
1.00723
1
1.1194
0.935709
1
0.999634
0.886782
1
0.888303
1
1.11847
1.11832
0.930337
1
1.1189
0.887915
1
0.893941
1
1.11851
1
1
1.11813
1
0.950848
1
0.999906
0.888631
1.11972
0.999853
1
0.883032
1
1
1
1
1.06956
1
1.11862
1
1
1.12206
1
1
1.11892
1
0.893174
1
0.891304
1
1
1
1
1
1.11392
1.07188
1.11854
1
1.11868
1.11086
0.888324
0.887928
1
1
1.11825
1
0.892512
1
0.998424
1
1
1.11833
1
1.11929
0.889534
1.11775
1
0.888894
1
1
1.11829
1.11832
1
1.00001
1
1.11904
1
1
0.881185
0.99982
0.885044
1
1
1
1.11903
1.1184
1.1195
1
1
0.89171
1
1.11942
1
1
1
1.11543
1.11858
1.11862
0.888632
1.11951
1.11853
0.899355
1.1195
1.00001
0.893584
1.0062
1
1
1.11887
0.888468
1.07936
0.886841
1.11853
0.999256
0.890331
1.11905
1
1
1
1
1.11865
1.12011
0.892909
1
1.00001
0.889916
1.00001
1
0.89363
0.895067
1.08472
1.11847
0.999566
1.11859
1
1.11924
0.950011
0.885644
1.11849
1.12149
1
1.11845
1
1
1.11857
1
1.09301
1.11953
1
1
1
1
1.11839
1.1174
1.11812
1
1
1.11809
1.1206
1.11893
1
1.1184
1
1
1
1
1
0.891733
0.950726
0.890782
1
1
1.11894
1
1
1.11868
0.880981
1
1.11865
1.1173
1.11438
0.883881
1
0.890155
1
1.00001
1.12008
1.05863
1.12023
1.10917
1
0.887923
1
1.11942
1.08795
0.890554
1
1
1
0.936659
1
1
1.12155
1
0.890805
1.11852
1
1
1
1
1
1.09756
1.02839
1
1.11894
1
1.11867
1
0.999221
1
1.11841
1.11975
1.11829
1.11969
0.999881
1.11989
1
1.11851
1.11856
1.10198
1
1
0.891769
1.11976
1
1
1.11897
1.1184
1.11948
1
1.11906
1
1
1.00001
1.11993
1.11903
1.03629
1.02746
1.11863
1.11892
0.899546
1
1
1
1
1
1.04499
1
1
1.10148
0.88903
0.999988
1
1.11858
0.999972
0.999948
1.01943
1.10882
1.11988
0.975045
1
0.881333
1
1.00156
1.11847
1.11911
1.1195
0.999715
1
1
0.895846
1
1
1.11847
1.01421
1
1
1
1
1
1
1
0.999983
1.11985
1
1
1
1
1
1.07875
1
1.05895
1
1
1.11854
1.11957
0.889669
0.999657
1
1
1
0.894217
1.1194
1.1185
1
1
1
1
1
1
1
1
1.1186
1.11744
0.895393
1.01436
0.891562
1
0.896343
1
1.11865
1.03658
1
1
0.913945
1
1.11438
0.939037
0.99896
0.885007
1
1
1.11983
1.00001
0.999173
0.882953
1.11964
1.1203
1
1
1
1
1.11134
1
1
1.11868
0.999702
1.11982
1.00001
1
1
0.887302
1
1
1.11879
0.885379
0.929727
0.890271
1.11844
0.999809
1
1.11911
0.886074
0.886652
1.00516
1
1
1.11997
1.00001
1.05739
1
1
1.1202
0.890746
1
1
1.00004
1.1198
1.00003
1.11675
1
1.00001
1
1
0.91951
1
0.935687
1.00001
1
1.11902
0.888466
1
0.931857
0.936878
1
1
1.11873
1
1
1
1.11871
1.11837
1.00001
1.12005
1.11998
0.932391
1.11862
1.11274
1
1
1.11796
1
1
1
1
1
1.12012
1.11864
1
1
1
1.11845
1.00006
1
0.881301
0.91769
1
1.00001
1.04606
1
1
0.970197
0.892351
1
1
1
1.11947
1.10947
1.11861
1
1
1
1
0.886505
1
1.11618
1
1.11715
0.892994
1.11733
1
1
1
0.89248
1
1.11895
1.00001
1
0.888787
1.04842
1
0.999904
1.11943
0.885932
0.890811
1
1.11955
0.884264
0.881365
1
0.8891
1
1
1
1
0.889691
1
1
1
1
1.11969
1
1.09273
0.884224
1
1
1
0.885892
1.11836
1
1
0.999021
1.11738
1
1.11865
1.11938
1
1
0.911405
0.885577
1
1
0.887389
1.04132
1.05755
1
1
1.12
0.999262
1
0.99935
1.12002
1
1
1
1
1
1
1.11877
1
1.04543
1.0415
0.912738
1.10669
1
1.11869
1.11842
1
1
1
0.974713
0.886075
1
1.06533
0.999904
1.1038
1
1
1
1
1
1.00177
1.05538
1.11879
1.11889
1
1.11859
1
0.897471
1
0.999256
0.99994
1
0.891492
1
0.896398
1.00001
1.11935
1.11974
0.88758
1.11973
0.885629
0.998948
1.09486
0.892655
1.08786
1
1
0.999552
1
1
1
1.00002
1
0.89079
1
1
1
1
0.999878
1.11849
0.937049
1
1
1
1.01058
1
1
1
1.07081
0.920815
1
1
1
1.01315
1.12008
1
0.886319
1
1.119
0.971182
0.891058
1
0.889466
1
1
1.11278
0.999495
1.1147
1
1.00242
1
1
1.11872
1
1
1
1
1.02601
1
1.11849
1.11903
1.11922
0.883432
1.11864
0.999174
1.09957
1
1
0.889762
1
1
0.889409
1.11811
1
1
0.99999
1
1
1
0.882829
0.886154
1
1.11953
1
1.05972
1.11858
0.892547
1.10229
1
1
0.89862
1
1
1.11859
1.11866
1.04811
1
1
1.00056
1.11954
0.885072
0.894486
1.11938
1.11851
1.08356
1.04996
1
0.973478
1
1
1
1.11271
1.11997
1.11906
1
1
1.11822
0.890349
1.10913
0.884065
1
0.898113
1
0.891898
1.11861
0.889524
1
0.998038
0.895819
1
1
1
0.953221
1.10846
1.11867
1.11986
1.11952
1
1
1.11979
1
1
1.11876
1
0.891064
1
0.887457
1
1.11882
1
1
1.00865
1.09384
1
0.999671
0.889443
1.11845
1
0.885053
1.02452
1
1
1.09068
1.11839
1.11839
1
1.1185
1.03328
1
1.00671
1.11852
1
1
1
1
1.11856
1
0.88659
1.11899
0.886718
0.888902
0.951628
1.11851
1.04476
1.11878
1
1.11927
0.999262
1.00001
1.11868
1.12008
1
1.11955
1
1.1186
1
1.11975
1
1.00001
0.999993
1.11901
0.892184
0.893256
0.999422
1
1
1
0.884983
1
1.08164
1
0.887455
1
1.0513
1.11866
1.11938
1
1
1.00001
0.999817
1
1.11962
1.11847
1
1.05223
1.11894
0.955638
1.11842
0.99999
0.882905
1.02768
0.89127
1
1
1.02177
1.1205
1
1
1.01438
0.999581
1
0.884058
1
0.93178
1
1.11827
1
1
0.889994
1.0288
1.02141
0.999575
1.11869
1.11859
0.93033
0.999458
0.891559
0.890038
0.892308
1
1
1
0.99975
0.910685
0.893983
1
1.11853
0.999929
1.11854
1.11864
1.11993
1.11868
1
0.892854
1.11897
0.885355
1
1.11832
1.12009
0.999064
0.946163
1.11822
1.09221
1
0.881735
1
1
1.11907
1
1.0075
1.11828
1
0.889932
0.889509
1
1
0.880001
0.883677
1.11859
1.00001
1
0.88293
0.884955
1.11853
1.11638
1.11121
1.11928
1.03752
0.996616
1.04982
1.11966
1.09832
1
1.06768
1
0.884714
0.961771
1
0.891802
1.11847
1.00629
1.11887
1
1.11868
1.11984
1
1.11895
1.11851
0.888855
1.11901
1
1.12177
1
0.922555
0.897148
1.11829
1
1
1
0.895225
1.119
1.1188
1
0.900343
1
1
0.895239
1.00001
0.884847
1.12027
1
0.949204
0.885395
1
1
1.07265
1
1
1
1.02154
0.895688
1
1
1
1.11893
0.882683
1
1.11843
0.88439
0.88955
1
1
1.11912
1
1.11857
1
1.11856
0.892657
1
1
0.884121
0.940511
0.886183
1
1
1
1
1.11972
0.888362
1
0.887317
1
1.11919
1
1
0.981283
1
1
0.943073
0.999908
1.00001
1
0.883815
0.897475
1
1
1
1
0.940892
1.11832
1.11967
1
0.890057
0.887862
0.974656
0.900759
1
0.944026
1
0.888759
0.997908
1
1
0.8897
1
1.11885
1.11549
0.896266
1
1
1
1.11703
1
1.01406
0.954593
1.04104
0.898348
1.05022
0.881198
1
1
0.912538
0.977958
1
1.01444
1
1
0.890127
1
0.986313
1.01489
0.887081
1
1.09767
0.927555
0.961339
1
1
1
0.884365
1
0.895326
0.886492
1
0.954486
0.894992
1.02088
0.917316
0.88205
1.11861
1
1.11852
1.06804
0.920678
1.11853
0.892014
0.999718
1.11945
1
1
1.11829
1
0.913431
1
1.02082
1
1
1.11855
1
0.929813
0.948166
1.12067
0.985916
1
0.926172
1.1186
1.11932
0.971929
1
1.1186
1.03392
0.949527
1
1.00712
1
0.898997
1.05372
0.927521
0.919563
1
1
0.901732
1.11838
0.991937
0.88803
0.892834
0.96193
1
1.00512
1.11984
1.11853
1
1
1
0.898307
1.05959
0.999997
1.11866
1.11098
0.883585
0.999998
1.02641
0.960291
1.07226
1.10547
1
1.01314
1
1.00002
0.883781
0.953747
1
1
0.948097
0.883719
1.01133
1
1
0.876806
1.05786
1
1.11778
1
1.01365
1.06712
1
1.11696
1
1
1.11898
1
0.878007
1.11972
0.909557
1.03495
1
0.900648
0.999975
1
1.00001
1
0.935711
1.00787
0.888419
1.08848
1.12017
0.882005
1
1
1
1
1
0.992279
0.888736
1.01287
0.887575
0.89235
1.02346
1
0.999946
1.03322
1
1
0.891246
0.996974
1
1
1.03767
1
1.11966
1
1.11939
1.02521
1.00495
0.898584
1
1
0.885191
1
1
1
1
1.11888
1.01232
0.999455
1
0.882742
1.01536
1
1
1.08161
1
0.890771
1.11867
1
1
1
1.11885
0.888145
0.960654
0.885811
1.09146
1.11886
1
1
1.11834
1
0.88423
1
1
1
1
1
0.930018
1
1.11908
1
1
1.04489
1.11953
0.894748
0.961825
1
1.11861
1
1
1
1
1
1.11851
1.11938
0.88407
1.11857
0.880683
1
1
1.11866
1
1.11963
1.00066
1.00819
1.02114
1.11864
1.02002
1.08338
0.887132
1
0.884243
0.997339
1
1.11842
1
1
0.880194
1.119
1
1.11916
1
1
1
1
1
1
0.892448
1.12
0.955395
1.11862
1
0.887504
0.888201
0.917011
1.12052
1.11816
0.992374
1
0.94041
1
1.04987
1
1.11867
0.876426
0.883911
0.959069
1
1.1186
1
1.02428
0.903773
1
1.12009
1.11087
0.999679
1
1.11865
0.897837
1.11967
1.11886
1.12043
0.883913
1.0257
1
1
0.888412
1
0.941127
0.944574
1
1.00001
1.11877
1
1.11937
1.02676
1
1.00997
1.11956
1
0.890117
1
0.928137
1
1
1.09966
1
0.935706
1
0.89375
1.0106
0.987091
0.885716
1.11858
1.09908
1.11988
0.888237
0.910331
0.998895
1
1
0.905366
1.11241
0.890116
0.999991
1
1.11851
1.11916
0.972934
1
0.897082
0.90612
1.08213
0.993269
0.883044
1
0.881764
1.03414
0.895357
1
1.00002
0.950166
1.11938
1.11894
0.955196
0.999888
1
1
0.912752
1
0.887783
1
0.886184
0.896285
1
1
1.00001
0.891901
1.11851
1
1
1.00002
1.00001
0.888216
1.1184
1.1185
1
0.888464
1.12023
1
1.02696
1
1
1.11861
0.885735
1
1
0.888151
0.925785
0.891505
0.888734
1
0.90609
0.999223
1.02753
0.877482
1
1
1.0367
1
1.10598
1
1
1.08686
0.897532
1
0.889143
1.03499
1.11898
1
1
0.893842
0.886029
0.885066
0.922597
0.885757
1.09142
0.999827
1
1
1
1
1.11916
0.88398
1
0.980773
0.999908
0.9996
0.999981
0.926653
1.03668
1
1.11864
1.11847
1
1
1.11545
1.00001
1
1.11836
0.897082
1.11655
1
0.881321
1.11866
1.00001
1
0.948656
1
0.889723
1
1.11945
1
1
1.11927
1
1
1.11798
1
1
1
1.12015
1
0.919845
0.909578
1
0.881961
1.11813
1
1
0.994268
1
1.11966
1.07228
1.0975
1
1
0.888767
1
0.890117
1.11848
1.1188
1.11904
1
1.11997
0.897443
1
0.888607
1.0976
1.10868
1.11935
1.11871
0.924956
0.884079
1
1.08094
1.11935
1.11876
1.1186
0.921934
1.04681
1
1.09336
0.923536
1
1
1
1.00001
0.969973
1
1.11797
1
1
1
1
1
1
1.00002
1.1178
1
1.11905
1.0906
0.891338
1.12035
1.00769
1.06359
1
1.11864
1
0.889098
1
1
1
1
1.10249
1
0.885388
1.1189
0.884941
1.11868
1.09635
1.06622
1
1.02476
1.05969
0.998717
0.889189
0.931291
1.00001
1
0.977287
1
0.887415
1.11933
0.88235
0.980265
0.958887
1
1
1
1.00413
1
1
0.888
0.998931
1.1213
1
1.11844
1
0.887801
1
1
1.11845
1.11882
0.886375
1
1.11937
1
0.942519
0.885942
1.11907
1.10732
1
1.02182
1.11875
0.999621
1
1.0521
1.10568
1.1186
0.998642
1
0.999999
1.10198
1
1
1
1.11855
0.999573
1
1
1.11847
1
1
0.894252
1
1
1
1.11987
1
1
0.958951
1.04214
1.10892
0.932991
1
1.11873
1
1.04362
1
1.11899
0.999212
1.11838
1
0.897524
1
1.08799
1
1
1.11141
1
1.11873
1
1.11777
0.909612
0.891736
1.11934
1
1.10245
1
1.11923
1
1
1.00001
1.11899
1.11809
1.03405
1.11853
0.998786
0.890219
1.11867
0.961857
1
1.11826
1
1.11823
1
1.11903
1.11901
0.998916
0.891492
1
1.11868
1
1.00746
1
1
0.999423
0.925816
1.10727
1
1.11074
1
0.962595
0.882837
1.11891
1.11874
0.910552
1
1.11845
1.11895
1.11863
0.900895
1.11843
0.902588
1.11899
1.11867
1
1
1.11863
1
1
1
1
0.888785
1
1
1.11952
1.11863
1
1.11877
1
1.1195
1.11975
1
1.10107
1
0.885778
1.11865
1.09016
1.03574
0.88658
1.11856
1
1
0.885141
1
1
1.11862
1
1
0.932615
1
1.11868
1.00002
1.11916
0.886021
1.12051
1
1.11868
1.11457
0.971916
1
1.11848
0.923154
1.12004
1.08585
1.11854
1.11815
0.999195
1.12017
1.11848
1.11838
1.11852
1.00023
1
0.889705
1
1.12047
0.951346
1.10925
1
1.11673
1
1
1
1
1
1.11814
0.88524
0.898528
1.11925
1.11847
1
1
1
1
1
1.11772
1.10803
1.11844
1.00587
1
1
1
1.00001
1.11815
1.11857
1
1.11867
1.11946
0.897752
1.08533
1
1.11847
1.1194
1.11781
0.999322
1.11878
1.11841
1
1.10664
1
1
1
1
1
1
1.11866
1.12034
1.11113
1.11862
0.888055
0.907449
1.11863
1.11842
1
0.889849
0.984243
1
1.06097
0.880411
1
0.999843
0.999505
0.885197
1
1.11873
1
1
1
1.11945
0.987362
1
1.11851
1.11861
1
1.11854
1
1
1.11853
1
0.886571
1
1.1185
1
1
0.897417
1
1.1185
1
0.884915
0.88648
1
1.1185
1
0.884009
0.964614
1
1.11849
1
1
1
1.11943
1
0.893879
1.01752
1.11837
1.11906
1.11832
1.01404
1.119
1.1185
1
1
1
1
1
1.11852
1
0.999801
1.11899
1
0.886293
1
1.11848
1.05877
1.01843
1.05902
1.01907
1.11539
0.901426
1.11853
1
0.890386
0.999186
1.11856
0.985951
1.11855
1.11871
1.11628
1
1.11854
1.11854
1.11851
1
1.00001
1
1
1.11847
1.08739
1
1
0.882629
0.998985
1
1.11843
1
1.11842
1.11868
1.11859
0.976779
1.11852
1.11865
1.00134
1.06027
1.11859
1.11869
1
1.11049
0.951582
1.11817
0.998939
1.11858
1
1.11856
1.11888
1
0.900985
0.985363
0.908308
1
1.02525
0.999122
1.11975
1
1
0.999128
1
1.06304
1.11211
1
1
1.11884
1
1
1.08705
1.11849
1.11436
1.1188
1.11834
1
1.11841
0.918276
1.11919
1
0.996298
0.895935
1
1
0.924481
1
1.0419
1
1.11897
1
1.11664
1.07717
0.892617
1
1
1
1
1
1.1189
1.00326
1
1.11912
1
1.11872
1.11857
1
1
0.993214
0.999952
0.881179
0.889094
0.912796
1.02585
1
0.999542
0.88584
1.00001
1
1.11826
0.981834
1.1114
1.1029
1
1
1
1
1
1.11861
1.11871
1
1.11869
1
1.11916
1.08274
0.998829
1
1
1
1.07198
1
0.987257
1
1.11897
1
1
1.11855
1
1
1
1
1
1.11866
0.880228
0.998851
1.10711
1.11842
1
1.11858
1
1
1
1
0.894997
1
1.11845
1.11863
1.11869
1.12067
0.987075
1