/*--------------------------------*- C++ -*----------------------------------*\
  =========                 |
  \\      /  F ield         | OpenFOAM: The Open Source CFD Toolbox
   \\    /   O peration     | Website:  https://openfoam.org
    \\  /    A nd           | Version:  12
     \\/     M anipulation  |
\*---------------------------------------------------------------------------*/
FoamFile
{
    format      ascii;
    class       volScalarField;
    location    "6.13";
    object      T;
}
// * * * * * * * * * * * * * * * * * * * * * * * * * * * * * * * * * * * * * //

dimensions      [0 0 0 1 0 0 0];

internalField   nonuniform List<scalar> 
22702
(
1
1
0.963266
1
1.01949
1
1.12121
1
1
0.888774
1.12059
1.12131
1
1.11861
0.968016
1
1
1
1.12053
1
1.11859
1
1.11834
0.886921
1.11825
0.884698
1
1.11918
0.892356
0.887277
1
1.1203
1
1
1
1.11067
1.11929
1.11853
1
1
0.890924
1
1.06246
1
1.11878
1
1
1
1
0.895658
1
0.892411
1
1.12051
1
1.11966
1
1
1
1
0.877488
1
1
0.891993
1
0.893651
1
1
1
0.883066
1
1.1193
1.07624
1
1.1195
1.12623
0.892781
1.12013
0.897249
1
1.12084
0.897746
1.11944
1.11974
1
1
1
1
0.980739
0.885204
1.12049
1
1
0.885772
1
1.11864
0.887005
1
1
1
1
1.06326
1.12075
0.890087
1
1
1.03204
1
0.897677
1
1.11953
1.12057
1
1
0.878094
0.877701
0.886151
1
1
1
1
1
0.974955
1
1.10293
1.01331
1.12037
1
1.12051
1.12073
1.11854
1.12041
1
0.885857
1
0.891902
1
1
1
1
1.1209
1
1
1
1
1.11858
1
1.00738
1
1
1
1
0.894984
1
1.00287
1
0.899667
1
1
1
1.12002
1
1.11841
0.879394
0.876881
1.12008
1.1194
1
1.02393
1.07162
1
1.12009
0.896906
1.11079
1
1
1
1
1.11853
1.09944
1
1.12055
0.893812
1.11955
1
0.908893
1
0.894088
0.882807
0.999939
1
1
1.1206
1
1
1.11873
1
1.11904
1.12052
0.897048
1
1
0.898983
1.11856
1
1
1
1.11848
1
0.893457
1
1
1.11845
1.11861
1.11908
1
1.00001
1
1
1
1.11849
1
0.897725
1.12504
1.11877
1.11882
1
1
1
0.893471
1.1187
1.0599
1
1.11894
0.895976
0.89564
1.11893
1.11822
1
1.11804
0.892796
1.10602
1
1
1
1
1.11847
1
1.07262
1.01234
1
1
1.11866
0.893924
0.928888
1
1.11808
0.893632
1.11926
1
1
1
1
1
1
1
0.892718
0.928343
0.893641
1.11861
1
1
1
1
1.1085
1
0.896188
1
0.890256
0.899245
1.11848
0.888489
1.1186
1
1
1
0.999347
0.907791
0.891561
1
1
0.888915
1
1.12074
0.889464
1
1
1.1206
0.884551
1
1.11722
0.877245
1.11865
1
0.89324
0.999349
1
1
1
0.895346
1
1
1
1
1.00425
1.07631
1
0.890141
1
1
1
1
1
1
1
1.12035
1
1.12154
1
1
1
0.892727
1
1.11818
0.895915
1
1.09288
1
1
1.1209
1
1
1
1.11686
1
1
1.11936
1.12077
1
1.02603
1
1
0.89282
1
1
1
0.886727
1
1
1
1
0.881773
1
1
1
1
1
0.890121
1.00002
1.119
1
0.999999
1.11954
1.12018
1
1
0.900211
0.945138
1.12079
1
1
1
1.11856
0.88268
1
1.11869
1
1
0.909392
0.903341
1
0.90324
0.890774
1
1
1
1
1
1
1
1.12033
1.03195
1.11542
0.890163
0.974482
1.12121
1
1.11963
1.1204
0.884472
0.933134
1
0.8908
1
1.12641
1
1
1
1
1.1186
1
1
1
1
1
1
1
1.0473
1.11943
1
1.11861
1
1
0.899139
1
1
1
1
1.11849
1.09273
1
1
0.903481
1.11886
1.11856
1
1.11849
1.11879
1.11863
1
0.949698
1
1.11852
0.999489
1.11862
1
0.888574
0.999679
1.1214
1
1
1
1
0.897005
1.11853
1.10875
1
1.11824
1.11853
1.1207
1
1.05976
1.11849
1
1
1.08499
1.0188
1.11855
0.982335
1.11859
1
1.1186
1.11857
1.11862
1.11886
1
1.11458
0.972139
0.963801
1
1
1
1
1.12063
1
1
1
1
1
1.12121
1
1
0.998896
1.11856
1.10374
1
1.09961
1.00001
1
1
1.11848
1
0.999096
1.00109
1
1.11855
1
1.11896
1
1
1.09009
1
1.11893
1.00001
1
1.1188
1
1.11854
1
1
1
1.11857
1
1.11933
1
1.11854
1.12209
1.11854
1.11999
1
1.12069
1.11655
1
0.892287
1.11194
1.08846
1
1.1187
1
0.893753
0.87744
1
1
1
1
1
0.888728
1
1.1186
1.03389
1.11866
1
1
1
1
1
1.11858
1
1.11897
1.07402
0.933483
1
1
1.03733
1.03121
1
1
1.04505
1
0.901326
1.11854
1.11859
1
1
1
1.12127
1
1.00001
1.11984
1.11847
0.98768
1
1
0.895744
1.10897
1
1
1
1
1
1.11856
1.12077
1
1.11858
1.11908
1.1186
1
1
1
1
0.88749
1.12029
1
1
1.10913
1.11823
1
1.1123
1.12001
1
1
1
1
1
1.11856
1
1
1
1
1.11973
1
1.1155
0.889627
1
0.883121
1
1
1
0.999102
0.89553
0.999719
1
1
1
1.01785
1
1
0.963861
1
1
1
1
1
1
1
0.999999
0.980277
1
1
0.999314
1
0.897302
1
1
1
1
1.09144
1
1
1
1
0.903418
1
1
1.11241
1.12006
1
1
1
0.967669
1
1
1
1
1
1
0.987991
1.00487
1.11854
1
1
1
1.11946
0.972081
1
1
1
1.11865
1.12003
1
1
1
1
1
1
1
1
1
0.893321
1
1
1.12031
0.892758
1
1.12017
1
0.896594
1
1
0.893598
1
1
1
1
1
1
1
1.11643
1.11824
1
1
1
1
1.10934
1
1.04153
0.899175
1
1
1
1
1
1
1
1.01234
1
1
1.06481
1
1
1
1.09987
1
1
1
1
0.892692
1
1
0.884967
0.890941
1
1
1.11852
1
1.00929
1
1
1
1.08526
0.887368
1
0.885125
1
0.932674
1
1
1
1.11902
1
1
1.11854
1
1
1
1.11853
1
1
1.11856
1
1
0.884476
1
1.04113
1
1
1.1212
1.12079
1.08158
1.10748
1
0.886822
1
1
1.11396
1
0.892497
1
1
1
1.11862
1
1
1
1
1.07439
1
1.11293
1.11803
0.884082
1
1
0.889818
0.886014
1
1
1
1.08618
1.0921
1
1
1
1
1
1
1
1.05405
1.12042
1.00585
1
1.11719
0.88247
1
1
1
1.06858
1
1.02568
1
1.10923
1.11812
1
0.891178
1
1.11976
1
1
1.1183
1.11198
1
1.1212
1
0.893655
1
1
1
1.11984
1.11646
1.10554
1
1.11955
1.1185
1
1.11879
1
1.11815
1
0.893665
0.992717
0.890731
1
1
1
1
1
1.11865
1
1.11866
1
1
1
1.11334
1
0.888046
1.11856
1
0.903691
0.892418
0.886277
1
1.06096
1.01213
1.11902
1.11851
1
1
1
1
1.11858
1
1
1.11859
1.11851
1
1.04577
0.999907
1
0.999081
1.12105
0.955359
1
0.94904
0.901854
0.899558
0.992705
1.11842
1.11712
1.02659
1.11862
1.11857
1
1
1.12126
1.12062
1.11845
1.12079
1
1.11866
0.89197
1.11921
1.11839
1.12072
1.11866
0.963485
0.971864
0.980085
1.1186
0.988419
1.11869
1
1
1.11906
1.11884
1
0.891893
1.11834
1.11853
1
1.11863
1.11859
1
1.11853
0.903745
1.1197
1.12077
1.12072
1.11915
1
1
1
1.11851
1.0797
0.898337
1.11849
0.88562
1.11852
1
1
1
1
1.1182
1.11855
1
1
1.11856
0.887659
1.1184
0.897672
1
1.11779
1
0.890671
1.11884
0.920588
1
1.11852
1.11912
1.11838
1
1
1.0617
1.11914
0.898831
1.1185
1
1.11854
0.967229
1.11834
0.890815
1
1.1186
0.894994
1.11906
0.896867
1
1.11861
1
1.11899
1
1.07255
1.1145
1.0954
0.887571
1
1.11849
1
1.1186
1
1.11874
1
1
1.11853
0.9966
1.11926
0.89341
1.10678
1
1.08632
1
1.11876
1.1187
1.11833
1
1.10783
1.11844
1.11062
1.07622
1.11723
1
1.08116
1
1.1183
1
1.02038
1
1.11102
1
1.11855
1.11365
1.11345
1
1.11678
0.878298
1
0.888664
1
1
1
1.11997
1
1.11885
1
1
1
1.1188
1.11528
1.09899
1.11852
1.11914
0.884365
1.11883
1.12012
1
1.10294
1.11863
1.11659
1
1.12005
1.12
1
1.1202
1.11884
1.11904
1.11882
1
1
1
1.11851
0.887222
1
1.11863
1
1
0.87529
1
1
1.11847
1.11841
1
1.11856
1.11775
1.11889
0.994504
1.1186
1
1.11865
1.11851
1.09701
1
1
1
1.11892
1.11868
1.11867
0.980721
1
1.12057
1.11858
1.11832
1
1.11867
1.11834
1.1185
1.12162
1
1.11841
1.11976
1.10536
1.11869
1.1213
1
1.12054
1.11738
1.11862
1.11828
1.11841
0.891194
1.11814
1.11876
1
1.11862
1.11859
1.11851
1.11847
1
1.11862
1.11867
1
1.11852
1.10152
1
1
1
1.11934
1.11755
1
1
1.06783
1
1.11853
1
1
1.11855
1.11898
1.11846
1.11854
1
1
1
1.08626
1
1.11848
1
1
1.12157
1.12088
1
1.11862
0.886509
1.11853
1.11927
0.917367
1
0.894378
1.1049
1.11891
1.11831
1.11837
0.88079
1.1184
1.11884
0.881147
0.884521
1
1.11834
1.11861
1
1
1.11856
1
1.11821
1
1.10471
1
1.05997
1.11864
1.11899
1.08624
1.10932
1.11982
1.11863
1.11189
1
0.879369
1.11794
1.11863
1.11935
1
1
1
1.11994
1
1.11853
1.11849
0.921937
1
1.11846
0.99998
1
1.00001
1.00001
1.11861
1.119
0.999554
1
1
1.11858
1.11914
1.11855
1.11922
1.11862
0.899411
1.10651
1
1.1178
1.11829
1.11851
1.12069
1
1.11851
1.11571
1.11888
1
1.11884
1.11866
0.960901
1.11846
1.11897
1
1.11864
0.949758
1.11872
0.959561
1.11861
1
1.11854
1.12266
1.1187
1.11867
1.11855
1.12022
1.11871
1.12037
1
0.979917
1.11856
1.11852
0.949152
1.11853
0.997186
1.08041
1.11851
1.11965
1.11892
1
1.11928
1.079
1.1185
0.978996
1.11906
1.12191
1
0.960254
1
1.11974
1
1.08346
1
1.11214
0.962057
1
1.11944
1.11816
1
1.11837
1.11903
1.12082
1.12103
1.1199
1
1.1204
1
1
1
0.970473
1.11867
1.11866
1.11947
1.11862
1.11807
1.11925
1.11792
1.11886
0.971632
1.00921
1
1
1.12396
1.11877
1.11857
1.11857
1.00001
1.06418
1
1.1199
1.10412
1
1
0.920467
1.11853
1
1
0.897095
1.11854
1
1.12045
1.11846
1.11991
1.11458
1.1185
1
0.895296
1.03045
1.1185
1.11854
1
1.1187
1.11848
1.06475
1.00237
1.02736
1
1.11899
1.11865
1
1
0.881743
1
1
1.11868
1.11868
1.11885
1.11857
1.11871
1.12049
1.11864
1.11835
1.1186
1
0.998842
1.11879
1.1185
0.998985
1.11858
1.11848
0.889428
0.883535
1.1189
1.11882
1
1
1.0004
1.11844
1.11862
1.11854
1
1.11854
1
0.959096
1.11962
1.12042
1
1.05492
1.11908
1
1.11889
1
1.11839
1.07915
1.11808
1
1.11877
1.12119
0.882413
1.11862
1
1.11913
1.1202
1
0.89302
1.11914
1.10202
0.999331
1.11246
1.11853
1
1.00014
1.11873
0.999408
1.11858
1
1
1.11878
1
1.11849
1.1185
0.999025
1.09573
1
1.11849
1
1
1
1
1.11857
1
1
1.12098
1
1.11866
1
1.07936
1.1184
1.11874
1
1
1.00025
1
1.11894
1.1186
1.11881
1.11863
1.11851
1.11856
1.11862
1
1.11843
1.11861
1
1.1186
1.11846
1
1.1182
0.979846
1.01662
1.11847
1.11852
1.11838
1
1.11866
1
1.1185
1.11852
1
1.11875
1
1
1
1
1.11846
0.89002
0.999398
1
1.1186
1.12054
1
1.11849
1
1.00149
0.887442
1.11854
0.999878
1
1.11874
0.999517
1.11862
1
0.999934
1
1.11872
1.11995
1.11845
1.11839
0.894499
1.11868
1.11883
1.1187
1.03104
1
1
1.05409
1.1187
0.890976
0.889805
1
1.11875
1.1185
1.11835
1
1
1.11896
1.11846
0.999962
1
1.0915
0.884313
1
1.02271
1.12094
1.11527
0.999498
1.11859
1.12046
1
0.999675
1
1.11843
1.12062
1.05003
1
1.10998
1
1.00051
1.11861
0.889938
1.11835
1.11863
0.999134
0.999976
1.10298
1
0.999913
1
1.11865
1
1
0.892394
1.11863
1
1
1
1
1.1183
1.07015
1
1
0.892301
1.11852
1.07074
1
1
1
1.1137
1.1157
1.12057
1
1
1.11931
1
1.11862
1.11855
1
1
1.119
1.11868
1.11518
1
1
1.11907
1.11898
1
1
1
1.11898
1
1
1
1.11876
1.1197
1.11899
1
1.11887
1.00001
0.910498
1.11838
1.11859
1
1.11988
1.11363
1.12074
1
1
1.11939
1
1.07015
1.11912
1
0.883812
1
1.11904
1
1
1.11929
1
1
1
1.0405
1.11846
0.900371
1
1.11887
1
1
1.11848
1
1.11931
1
1
1.11862
1.11867
1
1.00002
1
1
1
1
1
1
1.11772
1.11867
1
1.12034
0.891278
1.11921
1
1.11869
1.12086
1.11858
1.11988
1.12064
1
1
1.11912
1
1.07948
1.11947
1.11852
1
1.11936
1.11946
1
1.10573
1
1.11862
1.08003
1.11901
0.999282
1.11793
1.1088
1.11894
1.11878
1.01067
1.11854
1.11928
1
1.11856
1
1.11865
1
1
1
1
0.998708
1.11857
1.11854
1.10003
1
1.11908
1
1
1
0.886513
1
1.11622
1
1.10866
1.11577
1
1
1
1.10944
1.12142
1
1
1.11824
0.892991
1.02247
1
1.11924
1.1185
1.10899
1.11623
1.11853
1
1.11853
1
1
1
1
1.11907
1.11867
1
1.11872
1.01843
1.11896
1.11119
1
1
1.11168
1
1
0.888129
1.08884
1
1
1.12014
1
1.11943
1.10878
1
1.10811
0.892821
1.11868
1.11853
1.11865
1
0.897607
1
1
1
1.11845
1.09835
1
1.12091
1.11878
1
1.11867
1
1
1
1
1.11866
0.99981
1
1.11901
1
1
1.11829
1.11862
1
1.12048
1.02389
1.00001
1
1.11867
1
1.11862
1
1.00376
1.1186
1
1.11856
1
1
1.04154
1.11852
1
1
1
1
1
0.998971
0.882292
0.897574
1.00555
1
1.00877
1
1.00743
1
1.11861
1
1.07688
1
1.11867
1
1
1
1.11869
1
1.0953
1.11881
1
1.06671
1.11862
1
1
1.1197
1.11856
1
1
1.01526
0.883181
1
1.11883
1
1
1
1
1.02143
1.1185
1
1
1
0.887362
1
1.11864
1.11846
1.11981
1
1
1
1
1.06175
1.11971
1
1
1
1.1199
1.11846
1.01614
1
1
1
1.11899
1.11847
1
0.887734
1.1183
1.11857
1.11824
1.11844
1.118
1
1
1.12046
1.11821
1.11851
0.891569
1.01182
1.11899
1
1
1
1
1
1.11867
0.889211
1
1
1.11851
1.05554
1
1.11969
1
1
1
0.902581
1
1
1.03245
1.11823
1.11849
1
1.11644
1.11984
1
1.02232
1
1.11853
1
1.11836
0.892913
1
1
1
1
1.11869
1.00002
1
1
1
1.11434
1
1
1
1
1.11842
0.901642
1.09619
1.11923
1
1.11847
1
1
1
0.999168
1
1.11994
1
0.943318
1
1
1.00001
1.11837
0.892266
1
1.11802
1
1.11786
1.11856
0.891676
1
1
1.11258
1
1
0.894928
1
1.11813
1
1.11382
0.999806
1.11873
1
1
1
1
1.12086
1
1
1.11853
1
1
1
1
1
1
1
1
1.08002
1
1.04052
1.11831
1
1
1
0.893898
1
1
1
1
1.1188
1.11855
1.01861
1
1
1.11887
1
1
1.11844
1
1
1
1
1
1
1.1188
0.93731
1.11848
1.11905
0.99917
1
1
1
1.0737
1
1
1.11853
1.11871
1
1
1
1
0.893938
1
1
1
1.07668
1
1.11856
1.11918
1
1.11899
1
1
1
1.06597
1
1.12048
1
1.11847
1
1
0.998965
1.11847
1
1
1
1
1
1.11891
1.00001
1
0.890669
1.11831
0.893298
1
1.11814
1
0.99882
1
1.11878
1.11995
1
1.11655
0.960819
1.11853
1.11947
1.00001
1
1
0.892007
1
1
1
1.11857
1.07257
1.11833
1
1
1
1
0.999044
1.11893
1
0.895662
1
1
1
1
1
1
1
1.12119
1.11881
1.11983
1
1
0.999097
1
0.995266
1
1
1
0.894856
0.995157
1
0.892668
0.896827
1
1.11866
1.11855
1
1.11884
1.11858
0.895487
1.08131
1
1
1
0.894573
1.11893
1
0.893274
1
1.12024
1.02269
1
1
1
1
1.11858
1.12005
1
1
1.11857
1
1
1.12033
1.11859
1
1.11081
1.11845
1.11913
0.990006
1.11799
1.0024
0.896099
1.09357
1.11851
1
1
1
0.895383
1
0.882106
1.1197
0.989575
1.11845
0.98898
1
1.11878
1.05825
1
1
1.11905
1
1.05246
1.1182
1
1
1.1201
1.11658
0.891418
1.07225
0.99997
1
1.07367
1
1.11828
0.984327
1.12068
1.11998
1
1
1
1
1.11491
1
1
1.11859
0.999898
1.11861
1.09615
1.11892
0.894978
1
1
1
1
1.11858
1.00001
1.11856
1
1.11874
1.11818
1.01633
1.11891
1.042
1.11891
1
1.0831
0.903185
1.11905
1.11858
1.09944
1.02275
1.11962
1.11852
1.11859
1.11847
1
0.980715
1.01891
1
1.11852
1.05944
1.11854
1.00001
1
1
0.894715
1.11796
1.11922
1.09914
1
1.0475
1
1.1197
1.11929
1
1.119
1.11899
1
1
1
1.1189
1
1.04951
1.11773
1.08424
1
1.11863
1
1
1
1
1
1
1
1
1
1
0.893945
1
1.11085
0.890851
1.07381
0.999592
1.11819
1
1.06659
1
1.07964
1.10417
1
1.00057
1.1211
0.979272
1
1.1198
1.11427
0.983412
1
1.1186
1.11859
1.119
1
1.11861
1.119
1.11904
1
1.05772
1
1.00002
1.11859
1
1.11858
1.01883
1.11847
1
1
1.11835
1.11976
0.893819
1
1.11843
1.09136
1.11844
1
1
1.11921
1.11826
0.999496
1
1.10497
0.999079
1.11868
1.00001
1
1
1
1
1.05708
1
1.09173
1.11891
1.09108
1.11825
1
1.00094
1
1
1.11927
1
1.11923
1
1
1
1
1
1
1.01649
1.06537
1
1
0.895048
1
1.11815
0.899701
1.11976
1
1.06377
0.999925
1.11904
1.07964
0.894009
1.06778
1.00001
1.11859
1.11907
1
1.0756
1.1192
1.11892
0.999544
1.1173
1.11555
0.897952
1
1
0.99929
1
1.11692
1
0.890848
1.11818
1
1
1.10521
1
1.11892
1
1.11899
1
0.903089
1
1
1.11895
1.12043
1.11969
1
1.11836
1.11854
1.11932
1
1
1.11827
1
0.918757
1
1
1
1.11915
1
1.1185
1.07924
1.11885
1
1.11852
0.999826
1
1
1
1
1
1
0.913222
1
1
1.11844
1
1.11981
1.11742
1
0.884127
0.89295
1
1.11895
1.02085
0.89307
0.883533
1
1.1191
1
1.11859
0.882267
1.0005
1
1
0.999855
1
1
1
0.999974
1.05239
1.11863
1
1
1.11884
1.07309
1
1.10628
1.118
1.11883
1.05273
1.11913
1
1.11858
1
1.11606
1
1.11882
1.11812
0.999128
1.11923
1.11908
1
1
1
1
1
0.975694
1.11975
1.00001
1.00001
0.89409
0.999994
0.892149
0.895441
1
1.11888
1.1184
1.11857
1
1.11834
1
0.893888
1
1
1.11901
0.948079
1.11834
1
1.11889
1
0.995967
1.11841
1
1
1
1.11884
1
1.11819
0.890616
1
1
1.07279
1
1
1.06675
1
1
1.1189
1
1
1
1
1
1.11962
1.11857
1
1.11878
1.11901
0.885703
1.05845
1.11834
1
1
1.10786
0.999712
1
1
1.11857
1.11907
1.08338
1
1.11909
0.891625
1.11077
0.999839
1
1.1188
1.00001
1.11865
1.09809
1.09313
1
1
1.11871
0.909565
0.895204
1
1.11864
1
1.11842
1
1.07457
1
1
1.11837
1.07874
0.894166
1
0.999514
1
1
1.0074
1.05269
1.1187
1
1.11947
1
1
1
1
1
1
1.01898
0.891043
1
1
1.01259
1
1
1
1
1
1.11864
1
1
1.11829
1.11846
1.08633
1
1
1
0.954906
1.11941
1.0855
1
1
1
1
1.11838
1
1
1
1.11833
1
1
1.08768
1.12334
1.01271
0.928894
1.11835
1.08725
1.11841
1
1.06301
1
1
1
0.891492
1.0006
0.896233
1
0.8893
0.880541
1
0.889342
1
1
1
1.05761
1
1.11896
1.11888
1.00049
1.05885
1.10178
0.893955
0.933387
0.969383
1
1.1185
1.1206
1.11846
1.11858
1.10284
0.963754
1
1.10337
1
1.11459
1
1
0.999031
1.00275
1
1
1
1.11881
1
0.894709
1
1.11892
0.894428
1
1
1.11857
1
1.11845
0.999883
1
1
1.11875
1.11159
1
1.1228
1
1
1.00418
1
1.05387
1
1
0.885463
1
1
1.11817
1
1.11833
1
1.00001
0.893128
1
1
0.895048
1.00031
1
1.11946
0.887171
1.11824
0.894323
1.11844
1
1
1
1
1
1
1
1
1
1
1
1.11426
1
1.11904
1.11985
0.885277
1
1
1
1
1
1
1.11564
1
1
0.894046
1
1
1.11936
1
1
1.04894
1.10121
0.90093
0.880449
0.909638
0.922536
1
0.999055
0.895774
1.00013
1.10921
0.999135
1
1
1.11878
1
1
1
0.934735
1
1.04532
1
1
1.05236
1.1184
1
0.893281
1
1
1
0.999099
1
1.11826
1.11859
1
0.894876
1
1.06715
0.892005
1
0.96909
1
0.998783
0.879247
1
1
1
0.998845
0.891762
1
0.891471
0.999552
1.06554
1.10794
0.883823
0.901578
1
0.997342
1
0.999616
1
1.11851
1.1183
1
1.00372
1.11864
1.11868
1
1
1.11856
1
1
1.00001
1
1.12071
1
1
1.00512
1
0.999592
0.907459
1
1
1
1
1
1.11784
1.01252
1.00001
1
1
1
1
1
1.00001
1
0.886896
1.02796
0.999595
1.11548
1.1199
1
1.00463
1.11864
1.10504
1
1
0.894969
1.119
1
1.1196
1
1.11833
1.08346
0.884803
1
0.891547
1.11181
0.999906
1
0.892736
0.89942
1
1
1.10199
1
1
0.885067
1
1
1
1.04046
1
0.88381
1.11888
1
1
1
1
1.11858
1
1
1.12017
1.10744
1
1
1
1.12001
0.891075
1
1.1188
1.11856
1
1.09684
1
1.00001
1
1
1.11085
1.00369
1
0.895576
1.06558
1
1
0.999359
1
1
1.1203
1
1
1.00001
1
1.11904
1
1
1
1
1
1
1
1.05543
1
1.11876
1
1
1.11889
1
1
1
1.11862
1.11768
1.01247
1
0.999301
1
1
1
1
1.11998
1
1
1.11871
0.892037
1
1
1
1
1
1
1.09806
1
1
1.11931
1.11927
1
1
1
1.11876
1.11808
1
0.999899
1.11896
1
1
1
1.00001
0.896451
1.00851
0.99888
0.998889
1
1
0.896068
1.11916
1
0.900902
1
1.11887
1.11419
0.901871
0.999834
1.1187
1.11884
1.11857
1
1
0.980037
1.11021
1.09937
0.902418
1
1
1
1.11899
1.11856
0.890703
0.999228
1
1.11866
0.893963
1
1.11501
0.889816
0.99525
1.00185
1
1.11703
1
1
1
1
1
1
1.00003
1.11136
1
1
1.11791
1
1
1
1.11849
1
0.887223
1
1
1
1.04354
1
1
1
1
1
0.937207
1
0.893719
1
1.11869
1.00002
0.962763
0.96441
1
1.00121
1.06525
1
1
0.881334
1.11854
1.11873
1.11845
1
0.886665
0.883766
1
1.1185
1
1
1
1
1
1.00001
1
0.893087
1.07787
1
1
0.900348
0.997014
1
1
1
1
0.879164
1
0.906995
1
1
1.12098
1
1
0.891869
1
1.11863
1
0.893883
1
0.889047
1
1.00229
1.11846
1.12347
1
1
1.12028
1
1
1.0299
0.999162
1
0.999482
1
1.11903
1
0.896498
1
1.12056
0.999684
1
1
0.937361
1
0.999701
0.888059
1.11893
1.0455
1
1
0.973319
1
1
1
0.939434
1
1
1
1.11855
1
0.886108
1
1
1
1
0.887237
1.11856
1.10924
0.892176
1
1.11914
1
1
1.11855
1.11955
1.10152
0.886073
0.999339
0.999786
1
1.11847
1
1
1
1
1.11841
1.00001
1
1
1.12027
1
1
1.1184
0.889502
1
1
1
0.892574
1
1
1
0.999621
1
1
1
1
1.09475
1
1.1193
1.11889
1.11993
1.11852
1.11833
1.1184
1
1.11897
1
1.11851
1.11856
1
0.999685
0.89374
1.10262
0.999971
1
1
1
1
1.00027
1
1.01987
1
1
1
0.956243
1.1184
1.1184
1.1196
1.103
0.999964
1
1.00614
1.11851
0.999408
1.01829
0.999188
0.883619
1
1
1
1
1
1
1
1.11845
0.886861
1.11836
1.11849
0.998711
0.879047
1
1
1
1.11856
0.890487
1.10606
0.884696
1.11852
1.12008
0.888856
1.11828
1.00722
1
1.11932
0.945064
1
0.99965
0.891603
1
0.884568
1
1.11843
1.11854
0.929452
1
1.11862
0.883755
1
0.892492
1
1.11853
1
1
1.11762
1
0.954354
1
0.999906
0.885302
1.11739
0.999851
1
0.889697
1
1
1
1
1.07033
1
1.11844
1
1
1.12258
1
1
1.11882
1
0.88869
1
0.901118
1
1
1
1
1
1.11396
1.07336
1.11854
1
1.1185
1.11121
0.880146
0.892801
1
1
1.11854
1
0.887589
1
0.997074
1
1
1.11849
1
1.11869
0.891261
1.1221
1
0.891586
1
1
1.11929
1.1182
1
1.00001
1
1.11881
1
1
0.887555
0.999816
0.893127
1
1
1
1.119
1.11814
1.11933
1
1
0.894974
1
1.11946
1
1
1
1.11406
1.11852
1.11852
0.887859
1.11898
1.11856
0.893481
1.11948
1.00001
0.892775
1.00397
1
1
1.11893
0.881033
1.07913
0.880566
1.11854
0.999278
0.888893
1.11911
1
1
1
1
1.11863
1.12006
0.888375
1
1.00001
0.891554
1.00001
1
0.894208
0.896571
1.08504
1.11864
0.999567
1.11856
1
1.12042
0.950769
0.896132
1.11852
1.12224
1
1.11846
1
1
1.11863
1
1.09415
1.1194
1
1
1
1
1.11853
1.11732
1.11848
1
1
1.11911
1.12101
1.11872
1
1.11852
1
1
1
1
1
0.883583
0.955539
0.891551
1
1
1.11874
1
1
1.11861
0.890552
1
1.11857
1.11738
1.11381
0.887891
1
0.896569
1
1.00001
1.11975
1.05897
1.12044
1.10932
1
0.90292
1
1.11825
1.08654
0.894841
1
1
1
0.94419
1
1
1.12221
1
0.895404
1.11859
1
1
1
1
1
1.09755
1.0281
1
1.11891
1
1.11889
1
0.999281
1
1.11823
1.11973
1.11828
1.11945
0.999883
1.12024
1
1.11847
1.11838
1.10211
1
1
0.893913
1.11954
1
1
1.11875
1.1185
1.11898
1
1.11864
1
1
1.00001
1.12025
1.11783
1.03671
1.0283
1.11847
1.11846
0.906489
1
1
1
1
1.00001
1.04458
1
1
1.10356
0.893966
0.999989
1
1.11858
0.999967
0.999944
1.01936
1.11115
1.11955
0.975331
1
0.893793
1
0.99992
1.11841
1.11898
1.11946
0.999731
1
1
0.886403
1
1
1.11843
1.01442
1
1
1
1
1
1
1
0.999983
1.11958
1
1
1
1
1
1.07951
1
1.05922
1
1
1.11855
1.12007
0.899693
0.999649
1
1
1
0.890212
1.1199
1.11856
1
1
1
1
1
1
1
1
1.11842
1.11798
0.894734
1.01439
0.891279
1
0.884969
1
1.11862
1.03609
1
1
0.903969
1
1.11362
0.944308
0.998953
0.891855
1
1
1.11905
1.00001
0.999159
0.881864
1.12006
1.11944
1
1
1
1
1.11155
1
1
1.11857
0.999706
1.11969
1.00002
1
1
0.88972
1
1
1.11842
0.89047
0.934944
0.88698
1.11867
0.999799
1
1.11887
0.884373
0.897062
1.0039
1
1
1.1198
1.00001
1.05595
1
1
1.12
0.890864
1
1
1.00004
1.11994
1.00003
1.11575
1
1.00001
1
1
0.909974
1
0.94041
1.00001
1
1.11899
0.89081
1
0.930082
0.940687
1
1
1.11823
1
1
1
1.11811
1.11869
1.00002
1.11933
1.12001
0.931211
1.11858
1.11188
1
1
1.11861
1
1
1
1
1
1.12024
1.11861
1
1
1
1.11808
1.00006
1
0.886946
0.915162
1
1.00001
1.04639
1
1
0.970027
0.893699
1
1
1
1.11998
1.1096
1.11859
1
1
1
1
0.894647
1
1.11433
1
1.11929
0.888779
1.11814
1
1
1
0.894826
1
1.11883
1.00001
1
0.894213
1.04615
1
0.999903
1.12094
0.888436
0.891237
1
1.11977
0.887369
0.88838
1
0.893107
1
1
1
1
0.886974
1
1
1
1
1.11936
1
1.09329
0.887315
1
1
1
0.897229
1.11856
1
1
0.999042
1.11563
1
1.1184
1.11949
1
1
0.916504
0.892828
1
1
0.894424
1.0409
1.05788
1
1
1.11999
0.999252
1
0.999321
1.12022
1
1
1
1
1
1
1.11845
1
1.04477
1.04206
0.905378
1.10688
1
1.11864
1.11854
1
1
1
0.974469
0.890553
1
1.06574
0.999903
1.10765
1
1
1
1
1
1.00172
1.05519
1.11878
1.11878
1
1.11855
1
0.895965
1
0.999338
0.999936
1
0.890495
1
0.892254
1.00001
1.11942
1.12
0.894176
1.11956
0.902294
0.998943
1.09132
0.884264
1.08675
1
1
0.99955
1
1
1
1.00002
1
0.886797
1
1
1
1
0.999882
1.1185
0.943146
1
1
1
1.01048
1
1
1
1.07305
0.926032
1
1
1
1.01553
1.1202
1
0.87889
1
1.119
0.969632
0.885046
1
0.892083
1
1
1.1126
0.999491
1.11397
1
1.00242
1
1
1.11883
1
1
1
1
1.02545
1
1.11859
1.11898
1.11884
0.894704
1.11864
0.999172
1.09858
1
1
0.888835
1
1
0.88542
1.11863
1
1
0.999989
1
1
1
0.888006
0.886332
1
1.12011
1
1.05984
1.11846
0.894378
1.10058
1
1
0.901371
1
1
1.11868
1.1185
1.04553
1
1
1.00045
1.1196
0.894623
0.88484
1.11939
1.11853
1.08442
1.0506
1
0.971704
1
1
1
1.11212
1.12031
1.11918
1
1
1.11841
0.892236
1.11153
0.889163
1
0.885337
1
0.889019
1.11857
0.88431
1
0.997129
0.898661
1
1
1
0.957505
1.11094
1.11858
1.1196
1.12051
1
1
1.11964
1
1
1.11857
1
0.891921
1
0.890338
1
1.11933
1
1
1.00854
1.09319
1
0.999698
0.884916
1.11843
1
0.879317
1.02482
1
1
1.08974
1.11836
1.11845
1
1.11886
1.0374
1
1.00686
1.11857
1
1
1
1
1.11849
1
0.896072
1.11851
0.894861
0.891325
0.947622
1.11883
1.0444
1.11846
1
1.12021
0.999301
1.00001
1.11851
1.1203
1
1.12032
1
1.11848
1
1.11982
1
1.00001
0.999996
1.11915
0.882821
0.88464
0.999383
1
1
1
0.889966
1
1.08192
1
0.886015
1
1.05174
1.1185
1.12002
1
1
1.00001
0.999829
1
1.11966
1.11857
1
1.05425
1.11929
0.955474
1.11862
1
0.88983
1.02763
0.886833
1
1
1.02208
1.12046
1
1
1.01425
0.999584
1
0.890232
1
0.936384
1
1.11814
1
1
0.899517
1.03137
1.02007
0.999564
1.11858
1.11856
0.928336
0.99946
0.892531
0.900639
0.888943
1
1
1
0.999734
0.917329
0.903707
1
1.11858
0.999929
1.11854
1.1187
1.12032
1.11844
1
0.884288
1.11897
0.890304
1
1.11831
1.11911
0.999094
0.94799
1.11823
1.09126
1
0.888669
1
1
1.1186
1
1.00762
1.11809
1
0.892564
0.8893
1
1
0.886679
0.876614
1.11841
1.00001
1
0.888667
0.887538
1.11868
1.11607
1.11138
1.11905
1.03567
0.995451
1.05234
1.11907
1.09696
1
1.06599
1
0.879272
0.963607
1
0.891696
1.11847
1.00614
1.11886
1
1.11848
1.11947
1
1.11905
1.11854
0.884381
1.1195
1
1.12319
1
0.927272
0.888558
1.11829
1
1
1
0.891321
1.11904
1.1188
1
0.889694
1
1
0.890928
1.00001
0.884197
1.12032
1
0.945309
0.878149
1
1
1.07264
1
1
1
1.02179
0.884916
1
1
1
1.11881
0.894579
1
1.11863
0.882482
0.882652
1
1
1.11841
1
1.1183
1
1.11857
0.89366
1
1
0.891941
0.941608
0.890909
1
1
1
1
1.11865
0.890148
1
0.896015
1
1.11782
1
1
0.97961
1
1
0.948353
0.999906
1.00002
1
0.893631
0.884113
1
1
1
1
0.93569
1.11817
1.11971
1
0.894459
0.881847
0.972627
0.888502
1
0.944334
1
0.889015
0.99678
1
1
0.894569
1
1.11864
1.11292
0.884873
1
1
1
1.11796
1
1.01417
0.954293
1.04088
0.889984
1.04912
0.886259
1
1
0.907991
0.973855
1
1.01574
1
1
0.901904
1
0.982764
1.01592
0.896619
1
1.09673
0.925159
0.965542
1
1
1
0.889928
1
0.89244
0.896731
1
0.957981
0.89188
1.02124
0.926524
0.882953
1.11843
1
1.11849
1.06855
0.911705
1.11854
0.895006
0.999717
1.11949
1
1
1.11834
1
0.915007
1
1.0208
1
1
1.1186
1
0.927829
0.945918
1.12049
0.982361
1
0.927236
1.11859
1.11972
0.973129
1
1.11854
1.03393
0.956891
1
1.006
1
0.889739
1.05395
0.930861
0.915141
1
1
0.897754
1.11837
0.991471
0.893982
0.885072
0.961222
1
1.00332
1.11987
1.1187
1
1
1
0.887646
1.06033
0.999999
1.11889
1.11241
0.892406
1
1.0269
0.964946
1.07215
1.10392
1
1.01264
1
1.00002
0.889439
0.956105
1
1
0.945962
0.891034
1.0121
1
1.00001
0.880323
1.05886
1
1.11625
1
1.01313
1.06776
1
1.11675
1
1
1.11947
1
0.888467
1.11957
0.89736
1.03451
1
0.894262
0.999975
1
1.00001
1
0.930738
1.00789
0.892098
1.08865
1.12024
0.885336
1
1
1
1
1
0.992907
0.901494
1.01192
0.893633
0.888771
1.0256
1
0.999946
1.03233
1
1
0.888041
0.999069
1
1
1.03844
1
1.11982
1
1.11957
1.02517
1.00558
0.892372
1
1
0.881415
1
1
1
1
1.11849
1.0122
0.999445
1
0.888128
1.01492
1
1
1.08127
1
0.890355
1.1183
1
1
1
1.11831
0.898841
0.964967
0.891328
1.09218
1.11908
1
1
1.11854
1
0.88101
1
1
1
1
1
0.932302
1
1.11922
1
1
1.04503
1.11946
0.89058
0.962452
1
1.11853
1
1
1
1
1
1.11855
1.11976
0.876676
1.11849
0.886107
1
1
1.11862
1
1.11983
1.00121
1.00814
1.01967
1.11867
1.01979
1.08188
0.8858
1
0.888492
0.998057
1
1.11862
1
1
0.889236
1.11847
1
1.1197
1
1
1
1
1
1
0.895035
1.11971
0.95385
1.1186
1
0.893085
0.893501
0.910133
1.12041
1.11859
0.99261
1
0.935217
1
1.05178
1
1.11848
0.886267
0.886492
0.957448
1
1.11865
1
1.02657
0.896726
1
1.11974
1.10756
0.99967
1
1.11865
0.893213
1.11951
1.11872
1.11995
0.895969
1.02517
1
1
0.885205
1
0.937955
0.949541
1
1.00001
1.11867
1
1.11849
1.02389
1
1.01313
1.12032
1
0.898276
1
0.921281
1
1
1.10005
1
0.935384
1
0.894556
1.0109
0.98671
0.885213
1.11874
1.0996
1.11984
0.894333
0.906405
0.998909
1
1
0.897139
1.11246
0.883608
0.999991
1
1.11843
1.11937
0.973125
1
0.886997
0.911465
1.08169
0.991215
0.888733
1
0.88855
1.03245
0.890298
1
1.00002
0.943981
1.11914
1.11893
0.955315
0.999881
1
1
0.915106
1
0.885679
1
0.877661
0.884822
1
1
1.00001
0.893185
1.11854
1
1
1.00002
1.00001
0.885827
1.11828
1.11847
1
0.89211
1.11973
1
1.02632
1
1
1.11852
0.885255
1
1
0.898494
0.918911
0.887805
0.889411
1
0.905347
0.999243
1.0285
0.88919
1
1
1.03734
1
1.10627
1
1
1.08372
0.89903
1
0.886976
1.03771
1.11886
1
1
0.896041
0.898026
0.885218
0.922308
0.891898
1.09142
0.999822
1
1
1
1
1.11912
0.883268
1
0.980442
0.999904
0.999671
0.999982
0.922585
1.03759
1
1.11862
1.11839
1
1
1.11589
1.00001
1
1.11857
0.898777
1.11777
1
0.881738
1.11869
1.00001
1
0.942768
1
0.885243
1
1.11952
1
1
1.1192
1
1
1.11771
1
1
1
1.11979
1
0.925779
0.905482
1
0.886995
1.11858
1
1
0.994041
1
1.11927
1.07205
1.09728
1
1
0.890841
1
0.882965
1.11862
1.11926
1.1189
1
1.11992
0.886585
1
0.88184
1.09698
1.10824
1.11921
1.11835
0.930766
0.885495
1
1.08037
1.11937
1.11916
1.11857
0.919867
1.04541
1
1.09387
0.919113
1
1
1
1.00001
0.968729
1
1.11869
1
1
1
1
1
1
1.00002
1.11792
1
1.11954
1.09075
0.887077
1.12034
1.00855
1.06505
1
1.11857
1
0.892611
1
1
1
1
1.10244
1
0.883874
1.11885
0.8859
1.11862
1.09651
1.0649
1
1.02448
1.06038
0.998783
0.884361
0.930582
1.00001
1
0.977338
1
0.876636
1.11919
0.883758
0.98116
0.959767
1
1
1
1.00395
1
1
0.884651
0.999018
1.12086
1
1.11845
1
0.885854
1
1
1.1185
1.11835
0.882051
1
1.11944
1
0.94493
0.884707
1.11904
1.10787
1
1.02192
1.11868
0.999617
1
1.05346
1.10577
1.11811
0.998724
1
0.999999
1.10201
1
1
1
1.11852
0.999566
1
1
1.11845
1
1
0.893642
1
1
1
1.11938
1
1
0.956662
1.04068
1.10875
0.927999
1
1.11863
1
1.04447
1
1.11988
0.999214
1.11856
1
0.890352
1
1.08757
1
1
1.11171
1.00001
1.11887
1
1.11847
0.897637
0.892553
1.1194
1
1.10285
1
1.11881
1
1
1.00001
1.11901
1.11926
1.03522
1.11844
0.998886
0.901955
1.11866
0.960835
1
1.11879
1
1.11837
1
1.11898
1.11856
0.998977
0.888621
1
1.11857
1
1.00574
1
1
0.999404
0.918528
1.10757
1
1.11016
1
0.962248
0.891143
1.11853
1.11872
0.90051
1
1.11878
1.11915
1.11929
0.89293
1.11857
0.888354
1.119
1.11818
1
1
1.11851
1
1
1
1
0.886441
1
1
1.11936
1.11856
1
1.11867
1
1.11935
1.1193
1
1.10162
1
0.88303
1.11853
1.08844
1.03525
0.88269
1.11853
1
1
0.889174
1
1
1.11856
1
1
0.935809
1
1.11885
1.00002
1.11871
0.891255
1.12
1
1.11867
1.11451
0.970162
1
1.11812
0.929432
1.12008
1.0874
1.11848
1.11895
0.99918
1.1207
1.11843
1.11854
1.11874
1.00006
1
0.902677
1
1.11988
0.946346
1.10871
1
1.11661
1
1
1
1
1
1.11794
0.887466
0.887898
1.11925
1.11852
1
1
1
1
1
1.1176
1.10886
1.11858
1.00833
1
1
1
1.00001
1.1183
1.11855
1
1.11859
1.11936
0.899794
1.08589
1
1.11862
1.11937
1.11788
0.999369
1.11883
1.1185
1
1.10693
1
1
1
1
1
1
1.11867
1.1203
1.11132
1.11847
0.888366
0.910716
1.11861
1.11857
1
0.883488
0.985144
1
1.05987
0.890834
1
0.999842
0.999503
0.882571
1
1.11851
1
1
1
1.11944
0.985349
1
1.11867
1.11847
1
1.11882
1
1
1.11855
1
0.88652
1
1.11812
1
1
0.89989
1
1.11873
1
0.884417
0.890732
1
1.11451
1
0.88772
0.965406
1
1.11857
1
1
1
1.11964
1
0.884237
1.01809
1.11918
1.11897
1.11843
1.01437
1.11907
1.11851
1
1
1
1
1
1.11868
1
0.999798
1.11826
1
0.881717
1
1.11868
1.06008
1.01877
1.06001
1.01948
1.11722
0.907637
1.11864
1
0.89138
0.999178
1.1186
0.983308
1.11847
1.11869
1.11557
1
1.11929
1.11869
1.1186
1
1.00001
1
1
1.11905
1.08617
1
1
0.892927
0.999044
1
1.11851
1
1.11846
1.11881
1.11821
0.968353
1.11859
1.1183
1.0017
1.05982
1.11916
1.11875
1
1.11043
0.947283
1.11731
0.998095
1.11857
1
1.11851
1.11896
1
0.895081
0.980124
0.911204
1
1.02213
0.999017
1.12
1
1
0.999094
1
1.06485
1.11311
1
1
1.11878
1
1
1.08708
1.11867
1.11425
1.11917
1.11837
1
1.1183
0.915972
1.11915
1
0.999164
0.888369
1
1
0.92284
1
1.04094
1
1.11893
1
1.11645
1.07883
0.883007
1
1
1
1
1
1.11885
1.00335
1
1.11882
1
1.11855
1.11855
1
1
0.993803
0.999955
0.888709
0.880265
0.918474
1.02632
1
0.999543
0.892464
1.00001
1
1.1184
0.980867
1.1114
1.10175
1
1
1
1
1
1.11867
1.11862
1
1.11948
1
1.1194
1.08181
0.998901
1
1
1
1.07088
1
0.98784
1
1.11882
1
1
1.11849
1
1
1
1
1
1.11869
0.885937
0.998857
1.10742
1.11849
1
1.11855
1
1
1
1
0.899721
1
1.11876
1.11854
1.11859
1.12032
0.985545
1
1.10157
1.03128
1.1199
1.12001
1.0251