/*--------------------------------*- C++ -*----------------------------------*\
  =========                 |
  \\      /  F ield         | OpenFOAM: The Open Source CFD Toolbox
   \\    /   O peration     | Website:  https://openfoam.org
    \\  /    A nd           | Version:  12
     \\/     M anipulation  |
\*---------------------------------------------------------------------------*/
FoamFile
{
    format      ascii;
    class       volScalarField;
    location    "5.975";
    object      T;
}
// * * * * * * * * * * * * * * * * * * * * * * * * * * * * * * * * * * * * * //

dimensions      [0 0 0 1 0 0 0];

internalField   nonuniform List<scalar> 
46253
(
0.990808
1.01786
1.05106
1.01768
1.0501
1.04859
0.942669
0.97654
1.01604
1.01597
0.992599
0.927364
1.01037
1.01052
0.982603
1.01553
1.01548
1.01275
1.01285
1.01432
1.01419
1.0457
0.966134
0.976312
0.943564
1.01674
1.01494
1.01484
1.017
0.974962
0.993048
1.00825
1.00805
1.01364
1.01345
1.0331
1.01135
1.01116
0.963004
0.963845
0.967231
0.910226
1.00908
1.00893
0.883854
1.01216
1.01204
0.981544
1.00671
1.00658
1.00597
1.00578
1.04347
0.96749
1.05209
0.948525
1.00409
1.00384
1.02055
0.931641
1.03548
0.963574
1.0282
0.971977
0.983732
1.00982
1.00969
1.04555
0.951121
0.899686
0.958802
1.00326
1.00319
0.914447
1.0421
0.984922
0.998597
0.998402
0.965711
1.00743
1.00725
1.00175
1.0448
1.00153
0.951106
1.04096
0.992745
0.992447
0.966952
1.0447
0.974474
0.985887
1.03976
1.00507
0.972685
1.00481
1.03956
0.971953
1.01923
1.03343
0.960087
1.03966
1.04215
0.99251
1.05112
0.934901
0.896323
0.985929
0.985878
0.899056
0.966207
1.0026
1.00238
0.974614
0.967407
0.968059
0.899984
0.900904
1.0551
0.924617
0.955803
1.04657
1.00087
1.00059
1.03838
1.05699
1.03386
0.945517
1.0578
0.997315
0.981273
0.981293
1.04662
0.96188
0.996998
0.977211
0.99538
0.995197
0.921727
0.996445
0.999159
0.977286
0.977235
0.993252
0.999355
1.05495
0.993688
0.993435
0.962984
1.04396
0.898652
1.04215
0.996405
0.99603
0.980668
0.919451
0.930898
1.02501
0.990752
1.05084
0.990544
0.89666
0.947178
0.993065
0.923075
0.994542
0.96308
0.994385
1.0812
1.0321
0.988982
0.988794
1.04501
0.947309
1.05095
0.914133
1.01984
1.04082
0.956997
0.902731
1.05144
0.981866
0.986777
0.986548
1.02766
0.991716
0.991346
0.880638
1.02639
1.02713
1.04167
1.02184
0.927062
1.02157
1.02402
1.02373
0.966068
1.03844
0.958961
0.958489
0.970218
1.03321
0.989867
0.989747
1.03748
0.923472
0.98258
0.984125
0.983855
1.03608
0.969245
1.05535
0.94443
1.04193
1.01355
1.038
0.991263
0.957313
0.981669
1.04495
1.04546
0.981603
0.913276
0.987983
0.98758
0.965414
1.0397
1.03995
0.952799
0.953803
1.01057
0.956046
1.04376
1.04817
1.03762
0.978057
1.02365
0.967281
1.00936
1.01152
1.03814
1.0403
1.03805
1.02377
0.983155
1.04233
1.02656
0.98296
1.0377
0.978742
0.978025
1.01094
0.95097
1.03755
0.951058
0.985169
0.984799
0.94973
0.920344
1.03678
0.972222
1.02493
0.940718
0.993573
1.01308
1.02934
0.967065
0.974008
0.982875
0.976705
0.982486
1.04005
1.02609
1.34088
0.976223
1.03855
1.05401
1.03583
0.970043
0.948352
0.944881
0.94174
1.04221
1.04207
0.971
0.891512
1.03596
0.934143
0.986561
1.03502
1.0176
1.01816
0.949999
1.0339
1.01718
1.00253
1.04064
1.00095
0.957229
0.973224
1.05177
0.973366
0.948575
1.05126
1.02251
0.980481
0.980047
1.03416
0.99213
1.02595
1.02744
1.02173
0.966911
0.972474
1.03671
0.97175
0.927668
1.01713
1.03564
0.970782
0.910499
1.03646
0.938745
0.949095
0.960662
0.987406
1.03714
1.03681
0.969082
0.969116
0.997753
0.999397
1.02275
0.975839
1.03662
1.02823
0.95176
0.977329
0.977385
1.0298
1.04387
1.04129
0.965422
1.05419
1.03866
0.968336
0.968097
0.966551
0.94404
1.04115
0.962416
1.03119
0.917395
0.985021
0.905252
1.0385
0.974544
1.02997
0.973938
1.04382
0.924967
1.02204
1.03825
1.02205
1.02546
1.03828
1.03846
1.03857
0.96486
1.03894
1.03802
1.03812
1.03806
0.964567
1.03866
1.01516
0.921683
1.03917
1.03887
1.033
0.942204
0.994321
0.923139
0.973343
0.969829
0.973413
1.03867
0.951782
0.963878
1.06101
1.0261
0.986766
0.964097
1.04657
1.03799
0.968893
0.976368
0.977867
1.03689
0.967806
0.99347
0.988713
0.979783
1.01358
1.0395
1.03125
1.0237
1.04447
0.939847
1.03754
1.03661
1.02365
1.04524
1.02726
0.966427
1.03035
0.919102
1.0374
1.03637
0.941013
1.03037
1.03025
0.961313
1.02428
0.970224
1.02429
1.03371
0.960256
0.969745
1.02171
1.02108
1.03433
0.991021
1.02387
1.02389
0.954522
0.967805
1.02809
1.0237
0.967262
0.911247
1.03251
1.00303
1.02182
0.955468
0.981771
1.02202
1.03755
0.946569
1.02763
0.949326
0.968833
1.0026
0.914793
1.2243
1.02895
0.960783
1.03033
0.968936
0.962455
1.0383
0.959184
0.959144
0.969131
1.03877
0.957268
1.04047
1.02903
1.03052
1.03826
1.0292
1.0247
0.979125
0.961437
0.944799
0.959406
0.938121
0.981404
0.959793
0.987292
0.991524
0.991945
1.03478
1.03922
1.0391
1.03271
1.05989
1.0277
0.943884
0.956648
0.900718
0.944046
0.962322
0.901044
0.961161
1.21328
1.03846
0.966876
0.965444
0.924872
0.965878
0.954291
0.953368
0.984059
0.928392
1.03823
0.979914
0.993548
1.05109
0.943678
1.03908
0.994843
1.03115
0.969443
0.937506
1.03837
1.02538
0.958605
1.03696
0.987757
0.997828
1.03878
0.964942
1.03731
1.03621
0.965023
1.0386
0.965112
0.967415
0.965496
0.967024
0.979712
1.00154
1.02953
0.962011
0.962891
1.03653
1.03079
0.963891
1.02724
0.980243
0.933471
1.03612
1.02342
0.963782
1.03622
1.03064
1.0284
1.02877
0.904993
1.02845
1.02885
0.954062
0.946023
0.952788
0.916758
1.02437
1.0253
1.02428
1.02407
1.03712
1.03126
1.04921
0.96197
0.895547
1.02691
1.02335
1.03476
1.0301
1.0279
1.02411
0.976442
0.988743
0.996469
0.988737
1.02799
1.02471
0.946159
1.02932
1.02795
1.02853
0.963286
1.0284
1.02984
0.96312
0.988064
0.997568
1.03841
0.998496
0.99858
0.99902
1.00839
1.02871
0.949186
0.949994
0.988061
0.968779
1.0285
1.02207
0.919504
1.03894
1.05229
1.00627
1.03022
1.05239
1.03124
1.03791
0.993149
0.992072
1.03857
1.03848
0.989367
0.959573
1.03883
1.03702
0.97699
1.02126
1.02129
1.01992
1.0207
1.01844
1.01832
1.01634
1.01706
0.880356
0.959637
1.01513
1.02358
1.01517
1.01279
1.03893
0.978523
0.988918
1.0133
1.03824
1.01134
1.03627
1.01161
0.978847
0.957489
1.00919
1.02326
1.00964
1.03471
1.0381
1.00731
1.02404
1.00748
1.02399
0.923861
1.02329
0.95201
0.981914
1.02635
1.02645
1.00541
1.00585
1.03852
0.963409
1.00322
1.00348
0.97646
1.03734
1.03687
1.00019
0.945314
1.00056
1.03755
0.958271
0.998078
0.916987
0.998401
0.944283
0.959349
1.03781
1.02768
1.02762
0.996163
0.996494
0.97373
1.03763
1.03749
0.99359
0.944159
0.994006
0.907957
1.03886
0.991302
0.991759
1.02887
1.02953
1.02917
0.9251
1.02972
0.962948
0.976985
0.994168
1.03909
0.991229
1.02399
0.990319
1.02431
1.03913
0.963948
0.963966
0.98564
0.986876
0.956958
0.966277
0.989383
0.967516
0.988075
1.0386
0.976837
0.981435
0.979406
1.02743
0.947872
0.983441
0.985655
1.0732
1.0241
1.02407
1.02489
0.975871
0.96081
0.974308
1.01191
1.01551
0.962475
0.905736
0.979876
0.981761
0.975447
0.971404
0.970207
0.928281
0.951547
1.02696
0.965201
1.05449
0.946963
1.04873
0.93966
0.947157
0.932572
0.985805
0.982224
1.02339
1.02661
1.02398
0.958598
1.02411
1.02683
1.02406
1.02635
1.02777
0.956705
1.02473
1.02667
1.0262
0.933785
0.950623
1.03879
0.9765
0.880437
0.979147
1.03116
1.03995
1.03874
1.03141
0.95156
1.02281
1.02508
0.9554
1.03064
0.995348
1.02327
0.996353
0.920055
1.02395
1.01676
0.970674
0.99927
1.03071
1.03363
1.03836
0.968969
1.0251
0.997109
0.995344
1.01587
0.966038
0.96547
1.03803
0.951882
1.03687
1.03864
0.996078
0.967633
1.03118
0.972932
1.03065
1.03117
0.976592
0.981096
1.03861
0.996946
0.947984
0.959052
1.0263
0.961191
0.942391
1.02525
1.03103
0.957356
0.958472
1.03055
0.943772
1.0226
1.03276
0.990031
1.00246
1.00274
0.958849
1.02306
1.02124
1.02106
0.96371
1.02456
1.02613
0.966068
0.96865
0.934892
1.03344
1.03656
1.03714
1.02385
0.99304
0.992983
1.02165
1.03162
1.04131
0.955057
0.989728
0.990424
1.03154
0.990037
0.955588
0.962681
0.96171
1.03482
0.954783
0.967564
0.946186
0.954676
0.946329
0.986243
1.02814
1.02796
0.988495
1.02903
1.02663
0.957129
0.955558
1.02643
0.938578
0.950307
0.963338
0.934551
0.951558
0.937373
0.92486
0.937836
0.933137
0.935064
1.02016
1.03688
0.980375
1.037
1.02005
0.957739
0.948679
0.926137
1.03826
1.02408
0.968836
1.03752
0.966407
0.96758
1.02956
1.02915
1.01981
1.03041
1.03592
1.03067
1.03882
0.956995
0.966458
0.966518
1.01955
1.03827
0.949961
1.02402
0.965896
0.96311
0.949025
1.0316
0.966702
0.959652
0.968551
1.03922
1.03928
1.03935
1.0384
0.961176
0.966379
1.02527
0.973429
1.03054
0.924961
1.02486
0.937709
0.977129
0.949412
1.0382
0.937327
0.937483
0.903138
1.04462
1.02249
0.925424
0.96723
0.967428
0.921125
1.02379
1.02401
0.959026
1.01153
1.03829
1.03825
0.965288
0.883466
1.00427
0.962091
1.04141
1.02634
1.03846
1.02655
1.02428
1.02889
1.06155
1.02864
0.98207
0.941859
0.919424
0.969697
1.01117
1.02133
1.02119
0.932411
0.985908
0.978543
1.02624
1.0081
1.01033
1.01211
1.00656
1.00851
1.02908
1.00637
1.01073
1.01404
1.00688
0.961905
1.0123
1.00045
1.00418
1.01455
1.02549
1.01547
1.00461
1.01577
1.02851
1.00137
1.01902
1.01784
1.01813
1.00178
1.01858
1.01959
0.999124
1.01915
1.02545
1.02132
0.999472
1.03855
0.997226
1.02128
0.97015
1.03781
0.970146
0.9975
1.02876
1.02416
1.02919
0.994894
0.998906
1.02642
1.02956
1.02377
0.995375
0.979538
1.01817
0.992571
1.03888
0.960059
0.992569
0.99013
0.989162
0.942923
0.989182
0.990253
0.986725
1.03767
0.972986
0.985048
1.03826
0.980148
0.974112
1.03835
1.0238
0.982357
0.953611
1.01442
0.986435
0.984353
0.975248
0.949096
0.978386
1.01076
0.982384
1.03895
0.966603
0.946536
0.979448
0.977461
0.970426
0.957484
0.971225
0.973232
0.970634
0.961354
0.974683
0.977504
0.974638
0.979319
1.01186
1.03228
1.03859
1.01153
1.03855
0.999144
1.01728
1.01382
0.994986
1.0561
1.01933
1.0291
0.933916
0.988418
0.986731
0.991143
1.03881
0.974712
0.997333
0.998724
1.00185
1.0046
0.996386
0.997423
0.99683
0.997344
1.00615
0.928407
0.965671
0.957179
1.03877
0.962801
0.937295
0.933112
0.970013
1.02742
1.00784
0.998122
0.931219
1.02637
0.994102
0.954596
0.962749
0.993913
0.97332
1.02057
1.0376
0.957412
0.969966
0.96964
0.99566
0.977234
0.976239
0.99549
0.945111
0.965569
0.947664
0.967807
0.951016
0.899809
0.949186
0.990411
0.964241
0.997996
0.970757
1.03929
0.997938
1.0133
0.955915
0.966639
1.03827
1.03912
1.02029
0.964271
1.03099
1.03898
1.01971
1.00896
0.967694
0.946803
1.02617
0.93674
1.01923
0.964744
0.951338
1.04062
1.02727
1.03999
0.932084
1.01915
0.917521
0.966418
0.966428
1.05252
0.999481
0.965412
1.0309
0.983855
1.01884
0.973598
0.993111
0.93523
0.95357
1.02227
1.0224
0.962484
0.988662
0.970608
0.959459
0.96391
0.963822
1.02222
0.99307
0.972639
0.96069
0.957014
0.946457
0.972472
1.03025
0.955895
0.922123
0.964282
0.920424
0.962361
0.9982
1.30367
1.02295
1.02326
0.949346
0.964703
1.03898
0.957912
0.967443
1.02689
0.984071
0.920763
0.961051
1.004
0.961092
1.00613
1.02291
1.02334
0.960807
1.00911
1.02328
1.02329
1.02969
0.96127
1.02308
0.959445
0.880491
0.981968
0.941202
1.03889
1.03022
0.942612
1.02753
1.02357
0.957664
1.02306
1.02423
1.02205
1.01943
1.02357
0.957788
0.939938
1.00503
1.02891
0.940994
1.0198
1.01281
0.957971
0.952495
1.00382
1.01968
1.01598
1.03318
0.964145
1.03036
1.03377
1.03569
0.931906
1.01581
1.03479
1.00891
1.01099
1.02569
1.03738
0.936489
1.01182
0.993681
1.00746
1.0157
0.940452
0.933059
1.02063
1.01186
1.01218
0.99581
0.994203
1.0239
1.01769
0.940383
1.02818
0.995907
1.02015
1.00824
1.02037
1.02646
1.04034
1.00834
1.01941
1.02486
0.943744
0.991901
1.01963
0.946969
1.00905
0.967406
0.957961
1.01856
1.01479
1.03726
0.965043
1.02025
1.01869
1.02543
1.02708
1.02341
1.00709
1.01648
1.01746
1.01772
1.02775
1.028
1.0402
1.03688
1.01781
1.01968
0.973327
1.0286
1.01673
1.01918
0.994057
0.940666
0.994723
1.01506
1.01026
1.00844
1.01535
1.0388
1.02785
0.999862
1.01381
0.999049
1.01402
1.01444
0.949244
0.994712
1.02883
1.01155
1.01883
1.03066
1.01182
1.02853
1.01846
1.01705
0.96531
1.01373
1.03889
1.02988
1.0102
1.01057
0.924139
1.00846
1.03789
1.00865
0.995076
1.02524
1.00701
1.03802
1.03161
1.02236
0.951181
1.0072
0.923113
0.971297
1.03811
1.00744
0.967435
0.964375
0.995998
0.997191
0.940116
0.997224
0.994876
0.973044
0.995873
0.996138
0.987089
1.0032
1.00448
0.963706
0.99237
0.995497
1.00274
1.00481
0.99683
0.985649
0.997577
1.02807
0.987939
0.997428
1.00316
0.992414
0.938059
0.965046
0.996361
0.999155
0.942933
1.00099
0.997873
1.00113
0.942636
1.03918
0.986886
0.908567
0.941889
0.961474
0.999817
0.997264
1.00947
1.02572
0.975521
1.01095
1.03761
1.02208
1.02212
1.03781
1.03779
1.0078
0.921984
1.0377
0.996969
0.994118
0.997353
1.03948
0.948496
1.01063
0.996592
0.996517
0.984925
0.99444
1.01873
1.00723
1.00858
0.923357
1.01099
0.993156
1.00195
0.993745
0.990352
1.03962
0.925307
1.0245
0.990739
1.03892
1.01969
1.01255
0.990537
0.99905
1.00063
0.998859
0.963656
0.983752
0.994886
0.975101
0.937564
1.00702
1.02333
0.986997
0.987184
1.02352
1.02137
1.02374
1.02361
1.02338
1.02386
1.02837
0.945526
1.03941
0.998282
1.01498
0.950145
1.00952
1.00984
0.948785
0.984309
0.915058
1.03808
1.01202
0.999122
0.927529
1.02684
0.96821
1.00886
1.03838
1.03868
1.01664
1.02193
0.933304
0.939957
1.01735
1.02472
1.02847
1.02472
0.971595
0.963191
1.00466
1.02106
1.0453
1.02573
1.03061
0.992208
1.04045
0.982456
0.982564
0.986707
1.01173
0.978451
0.979545
1.02396
0.964298
0.9803
0.99242
0.990566
1.02114
1.01625
1.03149
1.0213
0.964101
0.978513
1.00012
1.01315
1.01586
1.01858
1.01966
1.00412
1.02831
1.03826
0.993089
0.93503
1.01319
0.936669
1.04034
0.994929
1.01347
1.02978
0.972305
1.00512
1.02969
0.975028
0.968658
0.974923
1.02491
1.02608
0.936987
1.00848
1.00691
0.949749
0.885914
0.96175
0.939904
1.01976
1.01836
0.96581
0.959661
0.992439
1.03061
0.973384
1.01665
1.01262
0.970818
1.00243
0.975611
0.953545
1.03246
1.03242
0.98983
0.985817
0.960477
1.03129
0.967153
0.970252
0.970055
0.968717
0.970683
1.02179
0.968555
1.00601
1.01283
1.00639
1.01523
0.979048
0.967212
1.0085
1.01386
1.01173
0.953502
0.994587
1.02826
0.950169
1.00327
0.945195
1.02151
0.950122
0.962933
0.972296
1.02157
1.01521
0.963513
0.991042
1.02231
0.971801
0.964338
1.00549
1.01002
1.03447
0.938611
1.02875
0.970208
0.942254
0.974894
0.903468
1.01193
1.0289
1.01216
0.993281
0.963035
1.02238
1.01251
0.98769
1.00912
0.997879
0.986937
1.00614
0.953965
0.998471
1.00782
0.998327
1.01693
0.954952
0.959411
1.02643
0.958791
1.02764
0.959154
1.01659
0.957445
0.948489
1.01236
0.980376
1.03987
1.00084
0.991312
0.972433
1.03347
0.996661
0.992054
1.00107
1.05566
1.00726
1.0282
0.950842
1.01994
0.954879
1.02293
0.989019
0.957395
1.02573
1.00094
0.989716
0.976488
1.03062
0.986238
0.948545
0.952369
1.03174
1.0263
0.986591
0.990186
1.02191
1.01393
0.960392
1.00137
1.00299
1.00998
1.01062
0.924593
1.03965
0.996375
1.02726
1.05115
1.01418
1.00545
1.02725
1.01142
0.993495
0.947396
0.922572
0.894334
1.00851
0.947276
0.947601
0.944823
1.00916
1.01241
1.01703
0.947304
0.965856
1.00008
0.98699
0.97889
0.970104
0.973948
1.01539
1.02621
1.00683
1.02765
0.945675
1.01161
1.02713
0.919163
1.02814
0.941011
0.938542
0.990823
0.92497
1.02937
1.02932
1.01777
1.01601
0.931106
0.962979
1.02557
1.02756
0.964386
0.985587
0.935889
1.03509
1.02086
1.03137
0.935309
0.93012
1.01771
0.960573
1.00195
1.01357
0.949405
1.03377
1.00109
0.934945
0.92188
0.993673
1.02759
0.995597
1.04327
0.977089
0.957766
0.980236
0.956641
0.980025
0.977838
0.979085
0.952077
1.00033
1.03527
1.0356
1.02605
1.02882
0.957959
0.949565
0.959606
0.9521
1.01767
0.972605
1.02593
1.02806
0.956105
0.971196
0.920864
0.919966
0.988206
0.921101
1.00957
1.00817
0.971538
0.918964
0.994745
1.00502
1.02885
0.944709
1.03465
0.972716
0.999481
0.917585
1.028
0.944824
0.9595
1.03263
1.03857
0.962823
0.965579
1.01992
1.0232
1.02288
0.96631
1.0233
0.967345
0.92109
0.918751
0.950256
1.00849
0.967283
1.00285
1.03986
0.91658
0.953794
1.03987
0.945619
1.00669
1.00772
0.955867
0.960961
1.03963
1.02811
1.01851
0.97529
1.01099
0.918751
0.920911
1.02681
0.930311
1.01231
1.0254
0.961118
1.19902
1.19012
0.999859
0.960916
1.01167
0.962167
1.02554
1.00475
0.985269
0.936059
1.00795
0.944285
1.01092
1.03074
1.01103
1.01891
1.01575
0.925031
0.942591
1.03136
0.936121
1.01442
1.01699
1.00115
0.952393
0.950544
0.921147
0.953692
1.012
0.938126
1.01807
1.0037
1.01469
0.953579
1.03307
1.00914
1.01271
0.963844
1.01715
0.967814
1.01611
1.03995
1.0389
1.01833
1.01983
1.03881
1.01125
1.00823
1.01911
1.00956
1.00523
1.04045
1.01123
1.02005
1.02397
0.976017
1.00978
1.00041
1.02068
1.01995
0.986891
0.915878
0.944792
1.00315
1.00554
1.00404
0.972735
1.01047
0.976069
1.03521
1.02094
1.03569
1.02418
0.967366
0.952408
1.00164
1.00117
0.966978
0.94969
0.952577
0.982119
0.954532
0.971062
0.995213
1.01338
1.00072
0.956196
1.00209
0.957729
1.02291
1.02278
1.01142
0.993737
1.03549
1.02369
0.99732
0.999596
0.953981
0.971868
0.99121
0.997636
1.02292
0.937189
1.0354
0.977194
0.998721
0.990527
0.971112
0.931097
0.954065
0.961178
0.996105
0.962608
0.997531
0.952054
1.03521
0.970095
0.964086
0.927385
0.990641
1.01673
0.974234
1.02451
1.03879
1.0117
0.994186
0.972575
0.985084
1.02796
0.967344
0.934519
1.0168
1.04037
0.972343
0.966189
1.02539
0.994093
0.962313
0.946274
0.990693
1.00953
0.967257
0.979047
0.987677
0.980258
0.98867
1.01597
0.92073
0.949355
0.988149
0.979231
1.01638
0.926431
0.984066
0.966599
0.975435
0.985612
0.96741
1.0046
0.983949
0.985487
1.01479
0.989758
1.00508
1.03445
1.01497
1.02741
1.00713
1.00455
1.00593
1.03536
1.0132
0.97864
1.01587
0.975419
0.990405
1.01358
1.0095
0.985702
0.991308
1.0223
1.01504
1.01007
1.0116
0.964521
1.03288
0.981362
0.9754
1.03648
0.943365
0.980612
1.00605
0.981569
0.963933
1.01191
0.982867
0.968618
0.990307
1.03987
0.981886
0.978863
1.01232
0.97584
0.920573
0.970554
1.03395
0.983153
1.01932
0.975938
0.995377
0.974391
1.01021
0.975415
0.976511
1.00926
1.04788
1.01369
1.02458
1.03619
1.01053
0.968948
0.921097
0.976021
1.00108
0.974749
1.03604
1.0088
1.02307
1.02831
1.00093
0.967842
0.950034
1.00909
0.986597
1.0226
0.990227
0.952053
0.95857
0.971293
1.02564
0.984644
1.02176
1.00772
0.971121
0.968804
0.967663
1.00719
1.02089
1.01198
0.979639
1.00765
0.963045
1.02174
1.03971
1.03855
0.971508
1.03503
1.03496
0.965422
0.920473
0.989144
0.965662
1.00366
1.02077
1.01981
1.01971
0.973422
1.02027
0.94422
1.02415
0.955719
0.966616
1.01058
0.925441
0.962948
0.92335
1.00502
0.914414
0.949531
0.998704
0.920255
0.959412
1.00533
0.993841
1.02051
1.01419
0.95907
1.02639
1.02626
0.984925
1.02489
0.989192
0.977788
0.993641
0.959894
0.959684
0.988199
0.984773
1.00255
0.9231
1.02334
1.00699
1.00932
1.01246
1.02392
1.00244
1.0099
1.00405
0.94886
1.02332
0.989082
0.95791
0.969779
0.980865
0.995016
0.987491
0.991984
1
1.00986
1.0353
0.994279
0.956035
1.04096
0.954924
0.950389
0.967451
1.03839
1.0009
0.975251
0.993938
0.957972
0.979705
0.968101
0.973665
0.991374
0.920201
0.984066
0.978491
0.93019
1.03407
0.9967
0.989211
0.954335
0.993001
0.961672
0.999193
1.03653
0.948996
0.948053
1.02214
1.03471
1.02012
1.0221
0.999119
1.00907
0.940332
1.01112
0.955382
1.03905
0.950917
0.992674
0.993567
1.01245
0.947671
0.984095
0.983822
0.991462
0.951261
1.02194
1.01955
0.966087
1.00296
0.972665
1.021
0.991583
0.99794
0.942244
0.996156
0.956864
0.992243
1.02773
1.01396
1.01958
1.01358
0.998794
1.00019
0.956597
1.01908
0.950355
0.942305
1.02854
0.997076
0.963793
0.998695
0.998612
0.999017
0.949241
0.952222
0.984555
1.01318
0.995648
1.00393
1.00146
1.026
1.01711
0.992011
1.00371
0.983491
1.02612
1.02294
1.01824
0.94508
0.946072
0.910444
1.03057
1.01873
0.994572
1.01365
1.00644
0.921673
0.95109
1.00444
1.00514
0.983355
0.93258
0.995469
1.00386
0.921035
0.923199
0.980273
0.926082
1.01508
0.964355
0.9968
0.9845
1.03504
0.965623
1.02337
0.951546
0.946596
0.987666
1.00847
1.02861
0.943686
0.950461
1.00834
0.951337
0.92242
1.0259
0.92738
1.00761
0.980342
1.00348
0.949097
0.972652
1.03651
1.02308
1.01745
1.01648
1.00762
0.988789
1.01874
0.983847
0.923494
0.935541
1.01629
0.935539
0.98894
1.04967
0.952331
1.04131
0.953441
0.988884
1.02848
1.02895
0.945212
1.00981
1.03866
0.982092
0.987416
1.02799
0.957094
1.02226
0.91377
0.984614
0.987416
0.936395
0.985292
0.929967
0.951012
0.984768
0.949779
0.968048
0.975339
1.02464
0.955771
1.0405
0.982897
1.00853
1.01112
0.972802
0.994407
1.00777
0.98425
1.0079
1.02456
1.04911
0.918993
0.980913
1.00614
1.00916
0.965162
0.971526
0.980635
0.971515
1.01769
1.00659
0.92564
1.03351
0.937117
1.02781
0.958445
0.901053
1.02301
0.97981
0.994695
1.01081
1.01009
0.931564
0.980741
1.00697
0.961936
1.03021
0.946574
0.946625
1.00367
1.01115
1.02972
0.975924
1.00898
0.999698
1.01023
1.0283
1.0044
0.976019
0.975318
0.938492
1.01225
1.0282
1.03293
1.01185
0.976218
1.01314
1.00982
1.01242
0.977097
1.03362
0.949101
0.98044
0.990936
0.971601
0.999779
0.974307
0.97067
1.01517
0.971756
1.00916
1.01222
1.03343
1.02456
1.03478
0.937169
0.972392
1.02604
0.937754
0.950526
1.01418
0.98805
0.972282
1.01587
0.948485
0.972862
1.00804
0.936732
0.973752
1.00931
0.944301
0.968224
1.0236
0.96051
0.969479
1.01233
0.913653
0.995295
0.993789
1.01544
0.941559
1.01739
1.01734
1.02877
0.95121
1.00024
0.966805
1.02772
1.02375
0.941028
1.02278
1.01713
0.995237
0.967696
0.978738
1.02855
0.972953
0.975852
0.943581
0.995494
0.954512
0.923073
0.969021
0.993467
0.980232
1.01643
1.03403
0.957413
0.988171
0.950409
0.995568
0.968112
1.03472
0.986371
0.993845
0.971654
1.01811
1.00154
1.01039
1.0192
0.97509
1.0221
0.977888
0.950746
0.985248
1.06007
0.982391
1.02814
0.962071
0.976726
1.01039
1.00653
1.0307
1.02258
1.00904
0.947459
0.964696
1.0415
0.998042
0.954303
0.988887
0.991924
0.985409
1.02409
1.02872
1.03196
0.936857
0.95586
0.964481
0.962055
0.94234
1.02002
1.03347
1.02072
0.992129
1.03325
1.02097
0.958765
0.941727
1.00011
1.0221
0.958165
0.952556
0.954736
0.959088
0.994714
0.931824
1.02956
0.952036
0.9558
0.959178
0.931121
1.0053
0.958553
0.972697
1.03322
0.968803
1.02839
1.02038
1.02991
0.9356
0.96589
0.987151
0.962519
1.02754
0.934284
1.02519
1.03322
0.961723
1.0308
1.0115
1.00864
0.963234
1.04266
0.988356
0.955883
0.962728
1.01992
1.02893
1.03691
1.03439
0.964931
1.01933
0.993276
0.951468
1.00053
1.01394
0.946886
1.02265
0.964287
1.02276
1.01683
1.03032
0.967468
0.953151
0.961026
1.01524
0.989227
0.966855
1.02045
1.03383
1.03481
0.988333
0.993201
1.01408
0.951562
0.969354
1.01711
1.02725
1.03259
1.02623
1.0308
0.962355
1.02612
0.963666
0.968746
1.01269
1.00135
0.968536
1.01553
0.95899
0.925883
1.02844
0.928719
0.992688
1.03218
1.01891
1.00098
1.00497
1.03498
1.01096
1.01442
0.984823
0.983268
0.962631
0.972595
0.984634
1.00482
1.02651
1.01291
0.930166
1.00113
1.00947
0.978125
0.971956
1.03495
0.960936
1.02998
0.979218
1.00814
0.959213
1.03509
0.930244
1.01136
1.03524
0.988881
0.930013
1.00082
1.02207
1.03392
0.978039
1.03332
0.934283
0.92833
0.975583
0.936559
1.00985
1.00318
1.03365
0.991124
0.949775
1.01236
0.948257
1.00568
1.01683
0.975001
0.967151
0.965954
0.987173
1.00842
0.969311
0.967409
1.03499
1.02663
0.942676
0.995961
1.00891
1.00081
0.978628
1.00261
1.00578
1.01732
0.978209
1.02946
0.941062
0.981142
1.00177
0.996867
0.968733
0.944195
0.934727
1.00578
1.00298
0.996195
0.980422
0.965751
1.02846
1.03097
0.950762
0.956304
0.999073
0.937535
0.943653
1.03569
0.964725
1.02231
1.03361
0.997714
0.983788
1.00217
0.950125
1.02597
1.0337
0.955914
1.02001
1.03997
0.998202
1.02347
0.983725
0.965092
1.03361
1.03241
1.02214
0.983546
1.02139
0.965992
0.996231
1.03581
0.999367
0.943909
0.983086
1.02602
0.930071
1.03961
1.00043
0.970336
1.05522
0.987457
0.971711
0.993086
0.986098
0.955955
0.930159
1.0102
0.995903
0.998782
0.976642
0.986502
0.985642
1.00831
0.961164
0.995645
0.937629
1.03948
1.00254
1.02489
1.02682
0.938133
0.988031
0.987608
0.993254
0.935132
0.945209
1.03985
0.979881
0.992372
0.968037
0.96788
0.950071
0.995842
0.976822
0.944682
1.03324
0.938145
0.987002
1.02311
1.03476
1.03285
0.987747
0.945132
0.987452
0.942251
0.968918
1.03864
0.990113
0.993139
0.977096
0.991034
0.944305
1.03627
1.02718
1.00956
0.989628
0.988454
0.959038
0.978604
1.0227
1.03354
0.953285
0.990205
0.908204
0.992039
0.98504
0.978691
0.972978
0.981991
1.04195
0.988465
0.971158
0.993773
1.02139
0.974819
0.992222
1.01343
1.03549
0.992993
1.03511
1.01191
1.01256
0.946925
1.01534
0.985143
1.03356
0.951321
0.980367
0.984821
1.00782
1.03514
1.02259
0.99621
0.939192
0.987522
0.992286
1.03585
0.985735
0.991873
0.981009
0.997682
0.954898
1.03564
1.0184
0.985424
1.03635
1.02348
1.00521
0.935203
0.977964
1.01181
0.948239
0.985414
0.981315
0.953734
1.00767
1.01576
0.965997
0.994654
1.00135
1.01961
0.978558
0.983591
0.981735
0.976715
1.00343
1.00342
1.02095
0.995522
1.01918
0.974415
0.981113
0.996156
1.03551
0.99395
0.981211
0.982034
0.977433
1.03856
0.994855
0.929972
1.02543
1.03643
0.978136
0.972574
0.988357
1.03357
1.02216
0.95626
1.03341
0.976622
0.997426
0.972994
1.03324
1.03474
0.988438
0.974324
1.03309
0.997081
1.03345
0.969453
0.995797
0.945783
1.03287
0.972147
1.03433
0.966653
0.996622
1.02666
0.980287
0.999272
0.971201
0.967575
1.02349
1.02227
1.02041
0.990643
0.998717
0.954234
0.966106
1.01243
0.960469
0.99922
0.999749
0.941746
1.00401
1.02701
1.02972
1.03753
1.01093
0.943393
1.03122
0.98916
1.00454
1.02316
0.968761
0.950835
1.00249
0.951116
1.00108
1.03045
0.958359
0.9987
0.992439
0.95403
0.960745
0.974642
0.996315
1.02777
0.966445
0.991535
1.02763
1.03535
1.00061
0.943362
0.958731
1.01654
0.998757
0.97303
0.942834
0.923216
1.02313
0.962199
1.00062
0.976957
0.991593
1.00125
1.02299
1.00341
0.947244
0.986593
1.00269
0.955304
1.01959
1.03588
1.00021
0.96191
0.976105
1.03611
0.99524
1.03119
1.02612
0.921492
1.00225
1.02119
0.950033
1.01264
0.987271
1.02335
0.948127
0.989742
1.0026
0.94746
1.04055
0.958907
0.924452
0.964707
1.01156
1.00979
1.02168
0.995148
1.0333
1.00462
0.980612
1.01248
1.02094
1.04143
0.92894
0.979256
0.938118
1.01242
0.994766
1.00206
1.00411
1.02677
0.980829
0.980023
1.04145
0.999339
0.931367
0.951018
0.953359
0.925126
1.03313
0.936115
1.0225
1.00412
0.973057
1.01778
1.0211
0.990639
0.987485
0.987517
0.9833
0.932998
1.01809
1.03614
0.963949
0.942003
0.99823
0.95697
1.02014
1.02084
1.0037
0.992307
1.00685
1.03251
0.997528
1.02514
1.00631
1.03476
1.02974
0.963766
1.02836
1.0059
0.968705
1.03238
1.02887
0.998965
0.997036
1.02069
1.02224
0.973491
1.03657
1.01048
1.00341
1.03369
1.00541
1.02501
1.02276
0.984452
0.998388
0.902985
0.994276
1.0258
1.01429
0.997187
1.04788
1.00973
0.987921
1.02588
0.969298
0.983592
1.00915
0.940029
1.03328
1.03594
0.936704
1.01635
1.03659
1.01419
1.01
1.00182
0.993891
1.0075
0.927025
1.00876
0.967644
0.970891
0.956794
0.935457
0.935
0.993351
1.00139
0.955567
1.03802
0.959109
1.02733
1.01853
1.00705
0.96955
1.02438
1.02562
0.929097
1.03766
1.01088
0.986999
1.0238
1.04059
1.00275
1.01047
0.982685
1.01406
1.00757
1.02212
1.00905
0.983783
1.02777
0.927587
1.00208
0.981763
0.988616
1.01968
0.983039
0.997186
0.893277
0.894413
0.994228
0.933061
1.00864
1.007
1.02968
0.991811
1.02618
0.995766
0.940001
1.01923
1.01705
1.02613
0.996965
0.995697
0.939461
0.946356
1.00519
0.991772
0.934881
1.02
1.01623
0.936622
1.01299
0.995107
0.980663
1.01309
1.01976
1.02146
1.02134
1.01526
0.982864
1.00489
0.996455
0.996441
0.993283
1.01259
0.947155
1.01763
0.984564
1.0202
0.977733
1.02192
0.915269
1.02164
1.0351
0.900726
1.03359
0.979046
0.948066
0.993448
0.959572
0.949018
0.961406
1.02621
1.03286
1.02527
1.02808
1.03447
1.00626
1.00652
0.952581
1.0134
1.03389
0.977175
1.00584
1.03435
0.968879
0.994416
1.04114
1.03454
0.928034
1.00591
0.975463
0.951842
0.988012
0.949644
0.998164
0.95187
1.02751
1.01415
0.988199
0.997365
1.01496
0.989099
0.975889
0.945443
0.937501
1.02656
1.01247
0.985253
0.977588
1.01447
0.904099
1.0269
1.02948
0.975431
1.0266
1.0297
0.984486
0.999164
0.933893
0.975033
0.99438
0.986607
0.978258
1.00811
1.02627
1.02703
0.991846
0.937751
0.951759
0.948688
0.989003
1.03303
0.986324
0.899538
0.952504
0.887613
0.93849
0.90752
1.02847
0.996939
0.985672
0.984863
1.00784
0.944142
1.02828
1.03036
1.02805
0.982158
1.00914
0.984687
0.990393
0.986965
0.947106
1.05934
1.03022
0.953348
0.955525
1.00897
1.03105
0.954592
0.955111
1.0091
1.0224
0.944823
0.990702
1.01401
0.991294
0.913593
0.989928
1.00491
1.02635
0.998141
0.9855
1.01397
1.01574
0.945269
0.994653
0.919662
0.952956
0.987433
1.01053
0.920647
0.960817
1.0169
0.991062
1.03566
1.00182
1.02824
1.01351
0.989704
0.901172
1.01667
0.946826
1.00898
1.00152
1.02695
1.0044
1.02061
1.02212
1.02127
0.919653
0.95987
0.990503
0.991665
1.01602
1.00983
1.00859
0.983314
0.985065
0.917234
1.02063
1.02824
0.990113
0.959775
0.960101
0.979468
0.931945
1.01912
0.920288
0.991444
0.941478
1.0155
0.985876
0.922917
1.02825
1.02389
0.977452
0.992454
0.989353
1.01358
0.955291
0.974213
0.980763
0.986239
1.01523
0.955717
0.970528
1.02492
0.966807
0.929081
1.03069
0.922667
0.975416
1.02023
0.983777
1.03056
0.944127
0.944238
1.01887
0.991715
0.990108
1.03556
0.976169
1.03591
0.962305
1.01488
0.969926
0.994636
1.01862
0.933709
1.03819
0.973813
1.03888
0.97814
1.02049
0.983176
1.00812
0.987926
0.993524
0.925513
1.0097
0.955364
0.926342
0.977168
1.02164
0.924411
1.01681
0.945031
0.995211
0.985345
0.98159
1.01578
0.890896
1.01015
1.00088
1.0193
0.994071
1.00891
0.973179
0.982133
0.963534
1.01625
0.976971
1.03142
0.924898
1.03122
1.00968
0.98962
0.947713
1.05259
0.991028
0.994971
1.00864
1.01946
1.00431
1.0375
1.01032
0.982321
0.933263
0.976182
0.931096
0.98589
1.01639
1.01983
1.02764
1.01431
0.96501
1.00209
1.00814
1.00737
1.02818
0.938006
1.00455
0.987667
1.01825
0.95542
0.942816
1.00912
1.01968
0.930344
0.932274
0.889677
0.985339
0.982025
1.01779
1.01803
0.935558
1.01041
1.00289
0.92357
0.998814
0.997905
0.975817
0.885365
1.02268
1.01529
1.0116
1.01653
0.921145
0.945726
1.02144
0.988096
1.03619
0.98159
1.01791
1.02866
0.96511
1.00945
1.0027
0.99656
0.997843
0.980101
0.968143
0.909425
0.985071
1.01255
0.956535
0.989277
0.988021
1.01002
0.991822
0.985247
0.993256
1.02216
0.946864
0.984042
0.980205
1.01844
0.980111
0.987815
0.980928
1.01204
0.953494
0.998144
0.929938
0.98524
0.977506
1.01817
0.985954
0.995575
1.03179
0.999991
0.955335
1.01299
0.936824
0.981631
1.01597
0.947623
1.03833
0.991367
0.982933
0.972307
0.994946
1.00155
0.986035
0.983124
1.03206
1.02236
1.01408
1.01722
1.0112
0.966558
0.991481
1.00342
1.032
1.0163
1.02262