/*--------------------------------*- C++ -*----------------------------------*\
  =========                 |
  \\      /  F ield         | OpenFOAM: The Open Source CFD Toolbox
   \\    /   O peration     | Website:  https://openfoam.org
    \\  /    A nd           | Version:  12
     \\/     M anipulation  |
\*---------------------------------------------------------------------------*/
FoamFile
{
    format      ascii;
    class       volScalarField;
    location    "4.8";
    object      p;
}
// * * * * * * * * * * * * * * * * * * * * * * * * * * * * * * * * * * * * * //

dimensions      [1 -1 -2 0 0 0 0];

internalField   nonuniform List<scalar> 
22702
(
1
1
0.862727
1
1.06372
1
1.47039
1
1
0.680046
1.47124
1.47162
1
1.46959
0.882738
1
1
1
1.47097
1
1.47198
1
1.47257
0.661413
1.47225
0.643348
1
1.47055
0.655402
0.645617
1
1.47177
1
1
1
1.43519
1.47593
1.47182
1
1
0.689474
1
1.21364
1
1.46871
1
1
1
1
0.653468
1
0.66979
1
1.47262
1
1.47085
1
1
1
1
0.623193
1
1
0.667376
1
0.655182
1
1
1
0.669188
1
1.47319
1.27225
1
1.47119
1.49971
0.645408
1.47598
0.655427
1
1.47103
0.654807
1.46728
1.47001
1
1
1
1
0.932005
0.673921
1.47126
1
1
0.683985
1
1.47241
0.69053
1
1
1
1
1.21375
1.47152
0.680418
1
1
1.11106
1
0.655904
1
1.47387
1.47111
1
1
0.644279
0.643342
0.674935
1
1
1
1
1
0.912831
1
1.39901
1.05041
1.4726
1
1.47233
1.47044
1.47083
1.47094
1
0.6551
1
0.655169
1
1
1
1
1.47101
1
1
1
1
1.47121
1
1.02605
1
1
1
1
0.648347
1
1.01028
1
0.65643
1
1
1
1.4702
1
1.4727
0.619381
0.636737
1.4726
1.47327
1
1.08349
1.25266
1
1.46851
0.65544
1.43504
1
1
1
1
1.46954
1.39152
1
1.47148
0.674954
1.46891
1
0.652328
1
0.657975
0.634119
0.999794
1
1
1.47088
1
1
1.47162
1
1.46711
1.47111
0.658045
1
1
0.660207
1.47218
1
1
1
1.47212
1
0.656745
1
1
1.47207
1.47116
1.46878
1
1.00004
1
1
1
1.47275
1
0.670325
1.49148
1.47197
1.47327
1
1
1
0.643194
1.47023
1.2184
1
1.47232
0.66253
0.65992
1.47221
1.46965
1
1.47972
0.673338
1.41383
1
1
1
1
1.47089
1
1.26936
1.04314
1
1
1.47318
0.666504
0.764635
1
1.47412
0.661776
1.47806
1
1
1
1
1
1
1
0.654912
0.781753
0.65756
1.4716
1
1
1
1
1.42397
1
0.658656
1
0.640154
0.660903
1.47168
0.664516
1.47197
1
1
1
0.997699
0.658708
0.668745
0.999999
1
0.635206
1
1.47089
0.691806
1
1
1.47081
0.634458
1
1.46714
0.629399
1.47324
1
0.643076
0.997861
1
1
1
0.672699
1
1
0.999998
1.00001
1.01571
1.28497
1
0.66775
1
1
1
1
1
1
1
1.47094
1
1.47238
1
1
1
0.652469
1
1.47046
0.665781
1
1.35827
1
1
1.47444
1
1
1
1.45818
1
1
1.45169
1.4739
1
1.09481
1
1
0.658274
1
1
1
0.668429
1
1
1
1
0.661842
1
1
1
1
1
0.694103
1.00007
1.47377
1
0.999972
1.47349
1.47273
1
1
0.660397
0.815498
1.47215
1
1
1
1.47318
0.671984
1
1.47231
1
1
0.728216
0.716708
1
0.645398
0.660184
1
1
1
1
1
1
1
1.47366
1.10197
1.44125
0.691185
0.898273
1.46992
1
1.47122
1.47221
0.661686
0.770699
1
0.663061
1
1.48445
1
1
1
1
1.4722
1
1
1
1
1
1
1
1.16809
1.47056
1
1.47174
1
1
0.656932
1
1
1
1
1.47198
1.35592
1
1
0.656317
1.47186
1.47107
1
1.4713
1.47157
1.47143
1
0.839922
1
1.47058
0.98983
1.47149
1
0.660827
0.998951
1.47117
1
1
1
1
0.656574
1.47132
1.42742
1
1.46898
1.47219
1.47187
1
1.22247
1.47353
1
1
1.32287
1.0679
1.47169
0.938261
1.4713
1
1.47111
1.47079
1.47113
1.47165
1
1.44957
0.901072
0.881819
1
0.999999
1
1
1.47401
1
1
1
1
1
1.47254
1
1
0.995977
1.47073
1.42123
1
1.39482
1.00004
1
1
1.47121
1
0.997001
1.00507
1
1.47103
1
1.47155
1
1
1.34949
1
1.47267
1.00002
1
1.47548
1
1.47176
1
1
1
1.47113
1
1.46857
1.00001
1.47175
1.47622
1.47237
1.47297
1
1.47431
1.47021
1
0.63919
1.4411
1.34167
1
1.47191
1
0.666914
0.621337
1
1
1
1
1
0.700191
1
1.47177
1.11967
1.4715
1
1
1
1
1
1.47091
1
1.47702
1.27779
0.78177
1
1.00001
1.13144
1.11469
1
1
1.1526
1
0.65463
1.47249
1.47271
1
1
1
1.47708
1
1.00003
1.47534
1.47075
0.948411
1
1
0.661638
1.42756
1
1
1
1
1
1.47121
1.47411
1
1.47578
1.46911
1.47296
1
1
1
1
0.676299
1.47212
1
1
1.42616
1.47006
1
1.44107
1.47146
1
1
1
1
1
1.4713
1
1
1
1
1.47365
1
1.46693
0.662878
1
0.658088
1
1
1
0.996948
0.646514
0.999111
1
1
1
1.06255
1
1
0.870821
1
1
1
1
1
1
1
0.999997
0.926317
0.999999
1
0.997564
1
0.6608
1
1
1
1
1.35224
1
1
1
1
0.669721
1
1
1.44314
1.47153
1
1
1
0.893651
1
1
1
1
1
1
0.943614
1.0114
1.47196
1
1
1
1.47526
0.896204
1
1
1
1.47052
1.47012
1
1.00001
1
1
1
1
1
1
1
0.656684
1
1
1.47229
0.657377
1
1.47132
1
0.649261
1
1
0.657649
1
1
1
1
1
1
1
1.46227
1.47053
1
1
1
1
1.42885
1
1.13901
0.640589
1
1
1
1
1
1
1
1.03155
1
1
1.23753
1
1
1
1.38889
1
1
1
1
0.665093
1
1
0.639246
0.665498
1
1
1.47094
1
1.01408
1
1
1
1.32375
0.671893
1
0.658195
1
0.79085
1
1
1
1.47011
1
1
1.4712
1
1
1
1.47144
1
1
1.47109
1
1
0.66149
1
1.13857
1
1
1.4712
1.46934
1.31262
1.42157
1
0.663158
1
1
1.4499
1
0.659473
1
1
1
1.47196
1
1
1
1
1.27862
1
1.4284
1.46984
0.674686
1
1
0.655359
0.63031
1
1
1
1.32802
1.35344
1
1
1
1
1
1
1
1.1991
1.47042
0.998126
1
1.46458
0.638367
1
1
1
1.25115
1
1.09083
1
1.42888
1.46436
1
0.659268
1
1.47004
1
1
1.46966
1.43897
1
1.47574
1
0.650655
1
1
1
1.47807
1.46254
1.41325
1
1.4685
1.47133
1
1.47249
1
1.46662
1
0.663291
0.976961
0.646916
1
1
1
1
1
1.47082
1
1.4724
1
1
1
1.44743
1
0.659227
1.47109
1
0.65717
0.689025
0.669774
1
1.2278
1.03693
1.47481
1.47108
1
0.999999
1
1
1.47161
1
1
1.47142
1.47145
1
1.14919
0.999991
1
0.996806
1.47319
0.847768
1
0.816522
0.659546
0.654361
0.944686
1.47326
1.46208
1.09038
1.47149
1.4718
1
1
1.47688
1.47197
1.47176
1.47047
1
1.46671
0.644486
1.47603
1.46939
1.47166
1.4689
0.872494
0.892837
0.91953
1.47088
0.962158
1.46981
1
1
1.47123
1.47276
1
0.660677
1.46855
1.47138
1
1.473
1.47254
1
1.47201
0.663889
1.46802
1.47505
1.47138
1.47112
1
1
1
1.4709
1.30264
0.676739
1.47181
0.638499
1.4706
1
1
1
1
1.47255
1.47197
1
1
1.472
0.649023
1.47254
0.661766
1
1.46937
1
0.677597
1.47256
0.751236
1
1.47093
1.47476
1.47525
1
1
1.20914
1.47372
0.648042
1.47121
1
1.47021
0.873893
1.47522
0.662305
1
1.47454
0.690955
1.47122
0.657316
1
1.47151
1
1.47053
1
1.25641
1.45316
1.36904
0.643438
1
1.47176
1
1.4669
1
1.47194
1
1
1.47075
0.988933
1.4747
0.6611
1.41657
1
1.33266
1
1.47027
1.47109
1.46929
1
1.42099
1.47025
1.43703
1.28853
1.47079
1
1.30871
1
1.47079
1
1.05977
1
1.43623
1
1.46604
1.44874
1.44828
1
1.47783
0.616614
1
0.663658
1
1
1
1.47312
1
1.47301
1
1
1
1.47273
1.47812
1.40858
1.47111
1.4766
0.657395
1.46343
1.46491
1
1.4156
1.47051
1.47409
1
1.46913
1.47144
1
1.48206
1.47234
1.47215
1.47247
1
1
1
1.47635
0.663349
1
1.4708
1
1
0.624655
1
1
1.47222
1.4715
1
1.47161
1.48455
1.47013
0.977733
1.47112
1
1.47158
1.47097
1.36517
1
1
1
1.47232
1.47261
1.47072
0.942947
1
1.47476
1.47143
1.47269
1
1.47131
1.46949
1.47147
1.47607
1
1.47154
1.47781
1.40074
1.47421
1.47546
1
1.48071
1.46609
1.4706
1.47673
1.47348
0.641978
1.4696
1.47359
1
1.47133
1.47126
1.47117
1.47193
1
1.47026
1.47128
1
1.47132
1.39283
1
1
1
1.47006
1.47896
1
1
1.24573
1
1.47239
1
1
1.47166
1.47378
1.47112
1.47168
1
1
1
1.32491
1
1.4674
1
1
1.47641
1.47579
1
1.47063
0.645125
1.47252
1.46913
0.746443
1
0.650476
1.40348
1.468
1.47536
1.47797
0.658407
1.47002
1.47304
0.655885
0.645424
1
1.46604
1.4697
1
1
1.47099
1
1.4712
1
1.40932
1
1.20247
1.47119
1.4741
1.32646
1.41331
1.4667
1.47527
1.41786
1
0.635407
1.47909
1.47024
1.48013
1.00001
1
1
1.4708
1
1.47134
1.46946
0.762212
1
1.4714
0.999931
1
1.00003
1.00004
1.46964
1.47192
0.998502
1
1
1.46818
1.47402
1.47317
1.477
1.46949
0.679093
1.42138
1
1.46851
1.47104
1.47112
1.4739
1
1.47158
1.45918
1.47337
1
1.47079
1.474
0.869184
1.47111
1.47219
1
1.46899
0.836126
1.47192
0.865542
1.47188
1
1.47073
1.48145
1.47113
1.4721
1.47147
1.47132
1.47268
1.47125
1
0.925671
1.47169
1.47015
0.830644
1.47134
0.972755
1.30734
1.47234
1.47154
1.47671
1
1.47485
1.30382
1.47343
0.922447
1.47399
1.48224
1
0.861558
1
1.45284
1
1.32627
1
1.45263
0.869747
1
1.48064
1.47478
1
1.47158
1.47557
1.47985
1.46063
1.47568
1
1.47113
1
1
1
0.895477
1.4718
1.47038
1.47007
1.47076
1.47163
1.472
1.46481
1.47253
0.904147
1.02964
1
1
1.48155
1.47179
1.47138
1.47205
1.00003
1.23498
1
1.48135
1.41141
1
1
0.736315
1.47077
1
1
0.647128
1.47228
1
1.46564
1.47117
1.46704
1.4499
1.47055
1
0.652785
1.10599
1.47125
1.47107
1
1.47245
1.47204
1.22182
1.01075
1.11039
1
1.47066
1.47179
1
1
0.650756
1
1
1.47061
1.47085
1.46871
1.47516
1.47026
1.47718
1.47129
1.47751
1.47132
1
0.996139
1.47009
1.47319
0.997275
1.47065
1.47161
0.651745
0.684166
1.47395
1.46668
1
1
1.00138
1.47169
1.46861
1.47225
1
1.47111
1
0.859066
1.48148
1.46733
1
1.20779
1.47181
1
1.47284
1
1.4719
1.29465
1.4708
1
1.47311
1.46729
0.650538
1.47063
1
1.47319
1.47063
1
0.65309
1.47314
1.37011
0.997763
1.44287
1.47122
1
0.995964
1.47726
0.998094
1.47114
1
1
1.46987
1
1.47603
1.4715
0.996455
1.37483
1
1.47187
1
1
1
1
1.47204
1
1
1.46998
1
1.46848
1
1.29156
1.47701
1.47084
1
1
0.997943
1
1.4724
1.47097
1.47256
1.47109
1.47211
1.46916
1.47109
1
1.47191
1.46833
1
1.47013
1.47201
1
1.46899
0.924046
1.05678
1.47143
1.47156
1.46941
1
1.47096
1
1.47137
1.47132
1
1.46682
1
1
1
1
1.47121
0.649238
0.997908
1
1.47141
1.46698
1
1.47102
1
1.00497
0.65698
1.47139
0.999578
1
1.47571
0.998339
1.46807
1
0.999761
1
1.47574
1.47869
1.47458
1.46888
0.644651
1.47226
1.46943
1.4711
1.11264
1
1
1.20079
1.47102
0.646912
0.652769
1
1.47083
1.4714
1.47422
1
1
1.46613
1.46791
0.999868
1
1.32734
0.646272
1
1.07927
1.47106
1.46713
0.998218
1.47189
1.4755
1
0.998533
1
1.46954
1.47273
1.18487
1
1.43618
1
1.00174
1.46982
0.683519
1.4715
1.47237
0.996927
0.999912
1.39558
1
0.999693
1
1.4757
1
1.00001
0.648764
1.47532
1.00001
1
1
1
1.4791
1.27327
1
1
0.65878
1.47281
1.26742
1
1
1
1.45244
1.4678
1.47013
1
1
1.47732
1
1.47071
1.47261
1
1
1.47693
1.4725
1.44402
1
1
1.4711
1.46982
1
1
1
1.47218
1
1
1
1.46999
1.4705
1.47439
1
1.47714
1.00003
0.710375
1.47058
1.46866
1
1.4757
1.43956
1.47749
1
1
1.47806
1
1.23607
1.47214
1
0.649012
1
1.47779
1
1
1.47858
1
1
1
1.14868
1.47268
0.687638
1.00001
1.47341
1
1
1.47193
1
1.47887
1
1
1.47015
1.47072
1
1.00005
1
1
1
1
1
1
1.47001
1.47514
1
1.46601
0.666597
1.46701
1
1.47296
1.47957
1.47051
1.47089
1.4728
1
1
1.47445
1
1.2927
1.47828
1.47152
1
1.47261
1.4646
1
1.42076
1
1.47286
1.30314
1.47474
0.997398
1.44057
1.43015
1.47257
1.47194
1.03902
1.47091
1.47547
1
1.47146
1
1.4709
1
1
1
1
0.996766
1.47206
1.47124
1.39818
1
1.47782
1
1
1
0.669703
1
1.4579
1
1.41611
1.44479
1
1
1
1.45972
1.47573
1
1
1.47017
0.64739
1.06787
1
1.47943
1.47048
1.41908
1.45745
1.47114
1
1.47271
1
1
1
1
1.47288
1.47226
1
1.45548
1.05336
1.47211
1.43618
1
1
1.43085
1
1
0.660603
1.32348
1
1
1.46213
1
1.47592
1.42695
1
1.42624
0.644357
1.47066
1.47306
1.47145
1
0.66815
1
1
1
1.47145
1.37315
1
1.47568
1.47211
1
1.4746
1
1
1
1
1.47209
0.999359
1
1.48025
1
1
1.46774
1.46855
1
1.47857
1.08976
1.00002
1
1.47092
1
1.47132
1
1.01058
1.47141
1
1.47106
1
1
1.1394
1.46587
1
1
1
1
1
0.996421
0.66746
0.656676
1.02083
1
1.02486
1
1.02849
1
1.47139
1
1.29002
1
1.47106
1
1
1
1.47198
1
1.36091
1.47261
1
1.24409
1.47295
1
1
1.47209
1.47175
1
1
1.04825
0.641566
1
1.47276
1
1
1
1
1.07169
1.47163
1
1
1
0.662876
1
1.47036
1.47168
1.47398
1
1
1
1
1.24371
1.47283
1
1
1
1.47745
1.47306
1.04835
1
1
1
1.47171
1.471
1
0.649045
1.47273
1.47074
1.471
1.47481
1.46924
1
1
1.47892
1.46878
1.4725
0.663723
1.04075
1.47187
1
1
1
1
1
1.47214
0.649102
1
1
1.47227
1.20473
1
1.47649
1
1
1
0.659197
1
1
1.12861
1.47196
1.4676
1
1.46586
1.47137
1
1.06811
1
1.47699
1
1.47007
0.646575
1
1
1
1
1.47425
1.00006
1
1
1
1.44478
1
1
1
1
1.47271
0.659032
1.37194
1.4746
1
1.47048
1
1
1
0.997147
1
1.47926
1
0.820259
1
1
1.00004
1.46569
0.655261
1
1.47445
1
1.47215
1.47042
0.662038
1
1
1.46205
1
1
0.651752
1
1.46647
1
1.44856
0.999346
1.47334
1
1
1
1
1.47048
1
1
1.47072
1
1
1
1
1
1
1
1
1.30081
1
1.14822
1.47289
1
1
1
0.664596
1
1
1
1
1.48111
1.47103
1.05254
1
1
1.47549
1
1
1.46605
1
1.00002
1
1
1
1.00001
1.47288
0.796927
1.47423
1.4796
0.997047
1
1
1
1.27342
1
1
1.46977
1.47237
1
1
1
1
0.660258
1
1
1
1.29505
1
1.47069
1.47538
1
1.4733
1
1
1
1.25047
1
1.47115
1
1.46961
1
1
0.996403
1.47344
1
1
1
1
1
1.4691
1.00002
1
0.665131
1.47358
0.651459
1
1.47281
1
0.995984
1
1.47296
1.47763
1
1.46385
0.87501
1.4676
1.47451
1.00003
1
1
0.666365
1
1
1
1.46935
1.26964
1.48337
1
1
1
1
0.996775
1.4687
1
0.646162
1
1
1
1
1
1
1
1.47847
1.47237
1.46783
1
1
0.996917
1
0.978394
1
1
1
0.646757
0.978639
1
0.672213
0.661426
1
1.47325
1.47175
1
1.47105
1.47043
0.656741
1.29903
1
1
1
0.646714
1.47139
1
0.648318
1
1.47692
1.07023
1
1
1
1
1.47113
1.47368
1
1
1.46888
1
1
1.46939
1.47083
1
1.44483
1.46715
1.47059
0.961232
1.47308
1.00879
0.649009
1.36085
1.4666
1
1
1
0.656161
1
0.665562
1.47794
0.958042
1.47068
0.950533
1
1.47111
1.21067
1
1
1.47098
1
1.19107
1.47083
1
1
1.47115
1.47181
0.676436
1.27985
0.999895
1
1.27609
1
1.47005
0.942519
1.48296
1.46473
1
1
1
1
1.47696
1
1
1.4717
0.999648
1.46818
1.37132
1.46653
0.663453
1
1
1
1
1.46841
1.00004
1.47073
1
1.47027
1.46969
1.05784
1.465
1.14091
1.47162
1
1.3298
0.697805
1.46794
1.47149
1.38473
1.07081
1.47405
1.46904
1.47237
1.47223
1
0.917099
1.06555
1
1.47095
1.21906
1.47166
1.00003
1
1
0.685623
1.47555
1.47377
1.38226
1
1.16943
1
1.48777
1.47835
1
1.47145
1.47363
1
1
1
1.46812
1
1.17919
1.48415
1.32106
1
1.47213
1
1
1
1
1
1
1
1
1
1
0.684051
1
1.42955
0.651681
1.2713
0.998591
1.47921
1
1.24477
1.00001
1.30562
1.40235
1
1.00351
1.47868
0.91255
1
1.47264
1.47128
0.939141
1
1.47078
1.46695
1.47456
1
1.47169
1.47351
1.46684
1
1.20513
1
1.00006
1.46888
1
1.46976
1.06345
1.46872
1
1
1.47004
1.48391
0.683652
1
1.4726
1.34732
1.47365
1
1
1.47224
1.47286
0.998253
1
1.4108
0.996821
1.47023
1.00004
1
1
1
1
1.20854
1
1.3618
1.47302
1.34596
1.47157
1
1.00359
1
1
1.4696
1
1.46758
1
1
1
1
0.999999
1
1.05518
1.2444
1
1
0.651696
1
1.4762
0.698738
1.47944
1
1.22767
0.999758
1.47177
1.29218
0.659689
1.25366
1.00003
1.47158
1.47405
1
1.29138
1.4772
1.46943
0.998402
1.46305
1.45775
0.664879
1
1
0.997821
1
1.46833
1
0.664418
1.47452
1
1
1.42197
1
1.47168
1
1.47135
1
0.690999
1
1
1.47162
1.47019
1.46855
1
1.47056
1.47177
1.46305
1
1
1.46045
0.999999
0.73777
1
1
1
1.47177
1
1.47132
1.29881
1.47348
1
1.47306
0.999384
1
1
1
1
1
1
0.715691
1
1
1.47435
1
1.47627
1.4664
1
0.647894
0.666494
1
1.47276
1.07834
0.643278
0.637052
1
1.47322
1
1.4767
0.672208
1.00125
1
1
0.999513
1
1
1
0.999914
1.19307
1.47508
1
1
1.47286
1.27466
1
1.44175
1.46974
1.4703
1.19119
1.4679
1
1.47229
1
1.45556
1
1.47434
1.46936
0.99705
1.47499
1.46755
1
1
1
1
1
0.921061
1.47394
1.00004
1.00003
0.679592
0.999986
0.642668
0.684133
1
1.47469
1.47022
1.4704
1
1.47248
1
0.665971
1
1
1.47192
0.835112
1.47397
1
1.47163
1
0.981511
1.47384
1
1
1
1.47535
1
1.4666
0.673833
1
1
1.27167
1
1
1.25676
1
1
1.47057
1
1
1
1
1
1.46695
1.47237
1
1.47229
1.46938
0.669391
1.21237
1.46759
1
1
1.42269
0.998917
1
1
1.47213
1.46713
1.30732
1
1.47663
0.657581
1.41203
0.999459
1
1.47413
1.00004
1.47373
1.39198
1.35569
1
1
1.47033
0.71035
0.655845
1
1.46899
1
1.47047
1
1.27366
1
1
1.47164
1.29635
0.652067
1
0.998264
1
1
1.0263
1.19181
1.4705
1
1.47693
1
1
1
1
1
1
1.06762
0.638518
1
1
1.03912
1
1
1
1
1
1.47182
1
1
1.47254
1.46949
1.32663
1
1
1
0.836814
1.47875
1.32303
1
1
1
1
1.46664
1
1
1
1.47085
1
1
1.3385
1.48862
1.03161
0.724687
1.47723
1.33292
1.46876
1
1.22679
1
1
1
0.703016
1.00254
0.683255
1
0.68512
0.646041
1
0.661703
1
1
1
1.21511
1
1.47579
1.47238
1.00166
1.22417
1.37393
0.653455
0.772169
0.888981
1
1.46942
1.46968
1.47178
1.47021
1.40019
0.874685
1
1.4041
1
1.45523
1
1
0.996294
1.01059
1
1
1
1.4724
1
0.647333
1
1.47324
0.663708
1
1
1.47021
1
1.46992
0.999746
1
1
1.47188
1.43944
1
1.48961
1
1
1.01486
1
1.20409
1
1
0.665557
1
1
1.47349
1
1.47647
1
1.00003
0.656704
1
1
0.649651
1.00089
1
1.46978
0.642855
1.47075
0.652027
1.46957
1
1
1
1
1
1
1
1
1
1
1
1.45025
1
1.47592
1.47089
0.639181
1
1
1
1
1
1
1.46169
1
1
0.667316
1
1
1.46917
1
1
1.17266
1.39334
0.654166
0.65606
0.721936
0.761939
1
0.99637
0.674047
1.00031
1.43937
0.996984
1
1
1.46894
1
1
1
0.775929
1.00001
1.16627
1
1
1.18996
1.4703
1
0.680535
1
1
1
0.996911
1.00001
1.47074
1.47091
1
0.657282
1
1.25261
0.64351
1
0.881377
1
0.99619
0.652073
1
1
1
0.996114
0.664792
1
0.683789
0.998429
1.23882
1.42014
0.65571
0.657404
1
0.990752
1
0.998647
1
1.47415
1.47284
1
1.01438
1.46944
1.46808
1
1
1.47083
1
1
1.00004
1
1.47594
1
1
1.01748
1
0.998552
0.718599
1
1
1
1
1
1.46612
1.03396
1.00006
1
1
1
1
1
1.00003
1
0.660449
1.10678
0.998591
1.45473
1.47373
1
1.01614
1.47053
1.42394
1
1
0.685457
1.47109
1
1.47067
1
1.46828
1.31972
0.658318
1
0.643989
1.41525
0.999686
1
0.639606
0.694919
1
1
1.4007
1
0.999998
0.644585
1
1
1
1.14889
1
0.640595
1.47173
1
1
1
1
1.46976
1
1
1.47432
1.41958
1
1
1
1.48316
0.660028
1
1.47237
1.47063
1
1.37516
0.999999
1.00003
1
1
1.43771
1.01316
1
0.65476
1.26068
1
1
0.997373
1
1
1.46151
1
1
1.00003
1
1.47395
1
1
1
1
1
1
1.00001
1.20559
1
1.47582
1
1
1.47234
1
1
1
1.46806
1.46593
1.0461
1
0.997607
1
1
1
1
1.47094
1
1
1.4691
0.664162
1
1
1
1
1
1
1.37817
1
1
1.46504
1.4724
1
1
1
1.47288
1.47337
1
0.999614
1.46232
1
1
1
1.00002
0.65466
1.03021
0.996225
0.995657
1
1
0.673798
1.47108
1
0.675047
1
1.46996
1.45177
0.654754
0.999417
1.4712
1.47333
1.4683
1
1
0.926845
1.40938
1.39706
0.689629
1
1
1
1.47062
1.47132
0.656511
0.997274
1
1.47082
0.650135
1
1.45679
0.650146
0.973864
1.00614
1
1.46572
1
1
1
1
1
1
1.00011
1.44204
1
1
1.46809
1
1
1
1.4705
1
0.659602
1
1
1
1.16249
1
1
1
1
1
0.799906
1
0.652571
1
1.47393
1.00007
0.87216
0.871172
1.00002
1.0044
1.23707
1
1
0.665399
1.47141
1.47435
1.47188
1
0.64129
0.674854
1
1.46944
1
1
1
1
1
1.00003
1
0.65364
1.29611
1
1
0.659174
0.991319
1.00001
1
1
1
0.657678
1
0.698879
1
1
1.47868
1
1
0.647454
1
1.4746
1
0.650762
1
0.649812
1
1.00789
1.47227
1.48902
1
1
1.47361
1
1
1.10371
0.996897
1
0.998198
1
1.47703
1
0.655049
1.00002
1.47063
0.99888
1
1
0.802721
1
0.99897
0.651881
1.47069
1.16788
1
1.00001
0.893648
1
1
1
0.799233
1
1
1
1.47178
1
0.661121
0.999999
1
1
1
0.65698
1.47091
1.43011
0.659872
1
1.46729
1
1
1.46686
1.47437
1.39663
0.64074
0.997703
0.999258
1
1.47181
1
1
1
1
1.47099
1.00004
1
1
1.4719
1
1
1.47223
0.664447
1
1
1
0.662062
1
0.999999
0.999999
0.998626
1
1
1
1
1.34997
1
1.47142
1.47168
1.48176
1.4744
1.47257
1.4708
1
1.47021
1
1.47038
1.47194
1
0.998872
0.663124
1.40191
0.999905
1
1
1
1
0.992742
1
1.07106
1
1
1
0.84007
1.47214
1.46977
1.48343
1.41231
0.999875
1
1.02154
1.47403
0.997888
1.05747
0.997155
0.674851
1
1.00002
1
1
1
1
1
1.47214
0.650032
1.47117
1.47167
0.995107
0.609703
1
1
1
1.47203
0.622446
1.4141
0.651107
1.47002
1.48098
0.651483
1.46827
1.02505
1
1.47487
0.798833
1
0.998728
0.64117
1
0.656875
1
1.47178
1.47128
0.753232
1
1.47042
0.670763
1
0.665706
1
1.47531
1
1
1.47544
1
0.82983
1
0.999654
0.658361
1.47979
0.999475
1
0.630208
1
1
1
1
1.25235
1
1.47162
1
1
1.48684
1
1
1.47304
1
0.657405
1
0.65909
1.00001
1
1
1
1
1.45086
1.26446
1.47188
1
1.47349
1.43813
0.657258
0.671104
1
1
1.46467
1
0.653422
1
0.994418
1
1
1.46688
1
1.46793
0.634272
1.47917
1
0.648326
1
1
1.47015
1.46897
1
1.00004
1
1.45139
1
1
0.671959
0.999392
0.647144
1
1
1
1.47527
1.47681
1.47114
1
1
0.678876
1
1.46817
1
1
1
1.45543
1.46979
1.47591
0.627151
1.47765
1.47223
0.678273
1.47246
1.00004
0.663767
1.01616
1
1
1.47363
0.613131
1.2911
0.612319
1.47264
0.997287
0.654834
1.47433
1
1
1
1
1.46862
1.47375
0.658108
1
1.00002
0.660218
1.00004
1
0.681878
0.654105
1.33556
1.47198
0.998495
1.4752
1
1.48756
0.834886
0.647112
1.47061
1.47914
1
1.47176
1
1
1.469
1
1.35675
1.47168
1
1
1
1
1.47201
1.46683
1.47681
1
1
1.48044
1.47572
1.47145
1
1.47206
1
1
1
1
1
0.652582
0.830767
0.667733
1
1
1.47237
1
1
1.46921
0.635321
1
1.46989
1.46687
1.45145
0.643851
1
0.653611
1
1.00003
1.47218
1.20669
1.47229
1.43015
1
0.705443
1
1.46723
1.33124
0.655745
1
1
1
0.798849
1
1
1.48197
1
0.656552
1.47196
1
1
1
1
1
1.37489
1.1029
1
1.47126
1
1.46755
1
0.996908
1
1.47029
1.47782
1.47406
1.47689
0.999583
1.47178
1
1.47133
1.46968
1.39763
1
1
0.644449
1.47304
1
1
1.46953
1.47162
1.4747
1
1.47503
1
1
1.00003
1.47754
1.46758
1.12746
1.09611
1.47124
1.46867
0.681983
1
1
1
1
1.00001
1.15965
1
1
1.3887
0.652155
0.99997
1
1.47285
0.999889
0.999797
1.07055
1.41902
1.47222
0.899827
1
0.643265
1
0.995808
1.47202
1.47453
1.48363
0.998967
1
1
0.677482
1
1
1.47193
1.04829
1
1
1
1
1
1
1
0.999938
1.47414
1.00002
1
1
1
1
1.2941
1
1.21529
1
1
1.47197
1.47209
0.646188
0.998764
1
1
1
0.664268
1.47083
1.46685
1
1
1
1
1
1
1
1
1.47134
1.47151
0.655976
1.05022
0.652777
1
0.674624
1
1.47093
1.13535
1
1
0.712115
1
1.45089
0.812115
0.996475
0.643338
1
1
1.47059
1.00004
0.997065
0.644383
1.47117
1.47754
1
1
1
1
1.44122
1
1
1.46838
0.998912
1.47255
1.00006
1
1
0.622309
1
1
1.47425
0.653952
0.777962
0.648605
1.47063
0.999272
1
1.4715
0.656006
0.66083
1.01426
1
1
1.47141
1.00004
1.21089
1
1
1.47134
0.653995
1
1
1.00014
1.47105
1.00012
1.47468
1
1.00003
1
1
0.731941
1
0.791875
1.00001
1
1.46969
0.62859
1
0.781228
0.816634
1
1
1.47232
1
1
1
1.4693
1.46662
1.00005
1.47523
1.47118
0.783577
1.47186
1.44386
1
1
1.47272
1
1
1
1
1
1.47176
1.47268
1
1
1
1.47188
1.00023
1
0.644744
0.729262
1
1.00003
1.17793
1
1
0.887527
0.658222
1
1
1
1.47205
1.43101
1.47069
1
1
1
1
0.6464
1
1.45255
1
1.4632
0.663955
1.47446
1
1
1
0.654377
1
1.47077
1.00003
1
0.657259
1.16748
1
0.999664
1.47035
0.656955
0.669647
1
1.47159
0.64164
0.640266
1
0.657957
1.00001
1
1
1
0.626321
1
1
1
1
1.47035
1
1.35858
0.623373
1
1
1
0.644522
1.47102
1
1
0.99678
1.46194
1
1.46909
1.47219
1
1
0.709468
0.656944
1
1
0.653865
1.13868
1.21471
1
1
1.47159
0.997347
1
0.997843
1.47248
1
1
1
1
1
1
1.47232
1
1.16517
1.15602
0.71414
1.4173
1
1.46569
1.47144
1
1
1
0.900258
0.649028
1
1.2246
0.999642
1.40788
1
1
1
0.999999
1
1.00673
1.21629
1.47328
1.47271
1
1.471
1
0.658102
1
0.997535
0.999768
1
0.6618
1
0.658806
1.00002
1.47512
1.47124
0.658133
1.47763
0.700272
0.996396
1.35918
0.663851
1.33237
1
1
0.998435
1
1
1
1.00006
1
0.645929
1
1
1
1
0.999595
1.4737
0.794288
1
1
1
1.0371
1
1
1
1.26254
0.752646
1
1
1
1.03931
1.47302
1
0.607967
1
1.47517
0.89862
0.683152
1
0.663117
1
1
1.44553
0.998232
1.43947
1
1.00866
1
1
1.47308
1
1
1
1
1.09292
1
1.47117
1.47316
1.47189
0.634443
1.47112
0.99714
1.38339
1
1
0.656389
1
1
0.655851
1.47042
1
1
0.999984
1
1
1
0.644372
0.627235
1
1.46791
1
1.21707
1.47173
0.660736
1.39954
1
1
0.695052
1
1
1.47065
1.47232
1.16206
1
1
1.0018
1.47145
0.630535
0.661282
1.47165
1.47106
1.31737
1.17929
1
0.898751
1
1
1
1.44571
1.47747
1.47437
1
1
1.46954
0.685976
1.41343
0.639072
1
0.657993
1
0.663908
1.47176
0.639366
1
0.992673
0.672687
1
1
1
0.839391
1.45762
1.47261
1.4735
1.47248
1
1
1.47195
1
1
1.47313
1
0.644403
1
0.623115
1
1.46913
1
1
1.02277
1.35859
1
0.998768
0.679574
1.46837
1.00001
0.609142
1.08782
1
1
1.35595
1.47279
1.47136
1
1.47435
1.12531
1
1.02302
1.47136
1
1
1
1
1.47156
1
0.656721
1.47391
0.650597
0.630211
0.816649
1.47518
1.15956
1.47317
1
1.46839
0.997478
1.00003
1.47078
1.47114
1
1.47446
1
1.47252
1
1.47093
1
1.00004
0.999984
1.46919
0.66169
0.652578
0.997929
0.999999
1
1
0.628178
1
1.30477
1
0.650385
1
1.18468
1.46921
1.47103
1
1
1.00003
0.999442
1
1.47265
1.4708
1
1.19516
1.47383
0.834501
1.47052
1.00019
0.645057
1.09037
0.628219
1
1
1.07578
1.47308
1
1
1.03943
0.998694
1
0.665503
1
0.780974
1
1.47259
1
1
0.639067
1.10515
1.06158
0.998492
1.4723
1.47164
0.779332
0.998086
0.663549
0.685155
0.662374
1
1
1
0.999063
0.726212
0.667064
1
1.47137
0.999742
1.47038
1.46955
1.47142
1.46957
1
0.664048
1.47306
0.646842
1
1.47214
1.4702
0.996684
0.81618
1.47576
1.35047
1
0.651898
1
1
1.46834
1
1.02593
1.46962
1
0.662922
0.638727
1
1
0.633936
0.647367
1.47134
1.00005
1
0.639006
0.667383
1.47007
1.45772
1.43898
1.47174
1.12537
0.980561
1.18216
1.47752
1.36153
1
1.24678
1
0.642802
0.867731
1
0.643561
1.47173
1.02148
1.47348
1
1.47135
1.47209
1
1.47265
1.47017
0.657045
1.47374
1
1.48097
1
0.752059
0.677338
1.47111
1
1
1
0.670682
1.47252
1.47372
1
0.674922
1
1
0.652976
1.00005
0.638958
1.47284
1
0.823753
0.659985
1
1
1.27211
1
1
1
1.07703
0.667075
1
1.00001
1
1.47499
0.648419
1
1.47253
0.61361
0.617626
1
1
1.47419
1
1.4773
1.00001
1.47156
0.656442
1
1
0.658615
0.816532
0.629068
1
1
1
1
1.47874
0.65721
1
0.657893
1
1.47072
1
1
0.933102
1
1
0.82331
0.999674
1.00005
1
0.645663
0.662138
1
1
1
1
0.791494
1.46945
1.47273
1
0.665103
0.667318
0.910308
0.668809
1
0.817454
1
0.619656
0.978683
1
1
0.653051
1
1.47378
1.45455
0.670795
1
1
1
1.46597
1
1.03515
0.83776
1.14899
0.660193
1.19384
0.653297
1
1
0.711868
0.912799
1
1.0369
1
1
0.674757
1
0.932258
1.04445
0.659508
1
1.38015
0.754244
0.881027
1
1
1
0.638369
1
0.672047
0.652284
1
0.854208
0.676425
1.06011
0.740908
0.620049
1.47209
1
1.47321
1.25265
0.730426
1.47101
0.65705
0.999005
1.47234
0.999999
1
1.47612
1
0.722567
1
1.05954
1
1
1.47175
1
0.770804
0.812743
1.4715
0.931828
1
0.769483
1.47152
1.47081
0.909363
1
1.47057
1.12071
0.827715
1
1.00217
1
0.668812
1.19713
0.752072
0.732738
1
1
0.673765
1.47003
0.960906
0.658989
0.664158
0.865829
1
1.01853
1.47191
1.4676
1
1
0.999999
0.672337
1.21877
1.00001
1.46442
1.43934
0.648658
0.999994
1.0949
0.864575
1.27765
1.42153
1
1.02972
1
1.00005
0.65961
0.829458
1
1
0.821229
0.657386
1.03917
1
1.00002
0.61431
1.20919
1
1.46629
1
1.03954
1.25236
1
1.46522
1
1
1.47327
1
0.63608
1.47178
0.701696
1.12007
1
0.669104
0.999907
1
1.00003
1
0.775677
1.02678
0.651193
1.34573
1.47235
0.643013
1
1
1
1
1
0.963505
0.705303
1.03544
0.653729
0.667628
1.07574
1
0.999813
1.12133
1
1
0.636518
0.987841
1
1
1.11976
1
1.47186
1
1.47116
1.09395
1.01697
0.6727
1
1
0.615647
1
1
1
1
1.47522
1.04363
0.998071
1
0.639927
1.05173
1
1
1.3037
1
0.68306
1.47321
1
1.00001
1
1.4742
0.656697
0.877821
0.667811
1.35235
1.476
1
1
1.47084
1
0.660639
1
1
1
1
1
0.772129
1
1.47449
1
1
1.15183
1.47362
0.673273
0.854446
1
1.47113
1
1
1
1
1
1.47431
1.47073
0.646814
1.47144
0.635274
1
1
1.47233
1
1.47132
1.00088
1.02713
1.06333
1.47036
1.07412
1.31365
0.652379
1
0.657975
0.982584
1
1.47153
1
1
0.638874
1.47365
1
1.47055
1
1
1
1
1
1.00001
0.65709
1.47235
0.847035
1.47189
1
0.662355
0.65914
0.714614
1.46976
1.4694
0.967574
1
0.785994
1
1.18165
1
1.46986
0.631029
0.648098
0.850625
1
1.47322
1
1.0715
0.692589
1
1.4712
1.4252
0.998849
1
1.47011
0.669836
1.47179
1.47205
1.46964
0.638654
1.09007
1
1
0.639951
1
0.805258
0.829006
1
1.00002
1.46988
1
1.47471
1.0872
1
1.04185
1.47228
1
0.658634
1
0.764574
1
1
1.38731
1
0.791545
1
0.653884
1.03515
0.948649
0.667399
1.47419
1.37522
1.47251
0.654193
0.70525
0.996173
0.999999
1
0.698607
1.4443
0.655185
0.999975
1
1.47285
1.4722
0.907471
1
0.66585
0.69716
1.31224
0.979618
0.63851
0.999999
0.640936
1.11694
0.653494
1
1.00005
0.818269
1.47149
1.47291
0.841171
0.999613
1
1
0.73571
1
0.645661
1
0.656042
0.670323
1
1
1.00004
0.650544
1.47089
1
1
1.00006
1.00004
0.664822
1.4712
1.47197
1
0.651543
1.47305
1
1.10022
1
1
1.47383
0.639584
1
1
0.627458
0.745761
0.655301
0.621107
1
0.705468
0.997327
1.09672
0.630802
1
1
1.13041
1
1.41496
1
1
1.34224
0.661397
1
0.67688
1.12547
1.47389
1
1
0.663843
0.699366
0.646822
0.736969
0.68494
1.34941
0.9994
1
1
1
1
1.47044
0.618524
1
0.925662
0.99969
0.998718
0.999936
0.752399
1.12695
1
1.47213
1.47128
1
1
1.44962
1.00004
0.999999
1.47119
0.666453
1.47793
0.999999
0.637626
1.47072
1.00005
1
0.823892
1
0.656327
1
1.47201
1
1
1.47505
1
1
1.46884
1
1
1
1.47571
1
0.732277
0.7105
1
0.637644
1.46994
1
1
0.976576
1
1.47733
1.26712
1.36995
1
1
0.655129
1
0.660978
1.46959
1.47126
1.47426
1
1.47263
0.674236
1
0.661313
1.37745
1.4377
1.47685
1.4729
0.771349
0.643333
1
1.30977
1.47238
1.47167
1.47202
0.744999
1.16445
1
1.35728
0.738713
1
1.00002
1
1.00002
0.891444
1
1.47863
1
1
1
1
1
1
1.00006
1.46705
1
1.4738
1.34866
0.650888
1.47348
1.01726
1.23208
1
1.47325
1
0.658776
1
1
1
1
1.39868
1
0.640372
1.47502
0.637834
1.47172
1.37361
1.2359
1
1.08
1.22002
0.995902
0.683213
0.780104
1.00002
1
0.92666
1
0.637028
1.47187
0.620182
0.92789
0.859174
1
1
1
1.01427
1
1
0.659477
0.996451
1.47567
1
1.47237
1
0.647845
1
1
1.47177
1.47139
0.638654
1
1.47173
1
0.813832
0.630017
1.4726
1.4214
1
1.07207
1.47067
0.99867
1
1.19515
1.412
1.47302
0.995585
1
0.999998
1.39629
1
1
1
1.47184
0.998504
1
1
1.47059
1
1
0.659345
1
1
1
1.4737
1
1
0.860768
1.14014
1.42617
0.758967
1
1.47173
1
1.16887
1
1.47074
0.997241
1.47131
1
0.669222
1
1.31475
1
1
1.4386
1.00002
1.47293
1
1.46801
0.704497
0.661203
1.47125
1
1.4031
1
1.47223
1
1
1.00005
1.47037
1.46551
1.12605
1.47133
0.995431
0.652256
1.47123
0.86827
1
1.46847
1
1.47029
1
1.47332
1.47116
0.996268
0.660376
1
1.4715
1
1.01861
1
1
0.99791
0.772468
1.41924
1
1.42172
1
0.864242
0.647314
1.47059
1.47261
0.703826
1
1.47023
1.46814
1.46952
0.679461
1.4694
0.679818
1.47148
1.47982
1
1
1.47307
1
1
1
1
0.653966
1
1
1.4724
1.47169
1
1.47227
1
1.46772
1.47267
1
1.39198
1
0.634951
1.47305
1.35768
1.13188
0.636032
1.47111
1
1
0.658404
1
1
1.47185
1
1
0.7884
1
1.4726
1.00009
1.46975
0.646542
1.47023
1
1.4708
1.45223
0.903371
1
1.46745
0.748178
1.47607
1.3314
1.47299
1.46897
0.99732
1.47081
1.47195
1.4715
1.46797
1.00123
1
0.70042
1
1.47569
0.834662
1.42767
1
1.46238
1
1
1
1
1
1.4687
0.653682
0.660545
1.47147
1.47094
1
1
1
1
1
1.46803
1.42103
1.47047
1.02152
1
1
1
1.00003
1.47006
1.47166
1
1.46949
1.47247
0.661635
1.33706
1
1.46928
1.47531
1.46859
0.997912
1.47195
1.47108
1
1.42175
1
1
1
1
1
1
1.47117
1.47171
1.43746
1.4718
0.654502
0.710241
1.47136
1.47084
1
0.658448
0.946319
1
1.22169
0.636582
1
0.999457
0.998282
0.652927
1
1.47313
1
1
1
1.4716
0.930625
1
1.47407
1.47286
1
1.47131
1
1
1.47143
1
0.662714
1
1.47049
1
1
0.665617
1
1.47377
1
0.640702
0.670614
1
1.44672
1
0.635212
0.876116
1
1.4713
1
1
1
1.47327
1
0.660388
1.06365
1.46919
1.47204
1.47096
1.04211
1.47327
1.47103
1
1.00002
1
1
1.00001
1.47227
1
0.999307
1.47009
1
0.635129
1
1.47204
1.21879
1.04876
1.21799
1.05843
1.4716
0.693415
1.47157
1
0.653154
0.99746
1.47098
0.949945
1.47182
1.47381
1.45979
1
1.4688
1.47245
1.47131
1
1.00003
1
1
1.4702
1.3273
1
1
0.641697
0.99653
1
1.47129
1
1.47019
1.47156
1.46802
0.90843
1.46977
1.467
1.00073
1.21495
1.47011
1.47106
1
1.43905
0.832411
1.44992
0.985845
1.46684
1
1.47102
1.47114
1
0.67538
0.929362
0.702305
1
1.07524
0.997059
1.47585
1
1
0.9968
1
1.23024
1.43975
1
1
1.47146
1
1
1.33542
1.46977
1.45128
1.47252
1.47087
1
1.46965
0.740547
1.47123
1
0.987743
0.661243
1
1
0.774941
1
1.13916
1
1.47344
1
1.46178
1.29535
0.660503
1
1
1
1
1
1.47154
1.01116
1
1.46731
1
1.47018
1.47232
0.999999
1
0.971986