/*--------------------------------*- C++ -*----------------------------------*\
  =========                 |
  \\      /  F ield         | OpenFOAM: The Open Source CFD Toolbox
   \\    /   O peration     | Website:  https://openfoam.org
    \\  /    A nd           | Version:  12
     \\/     M anipulation  |
\*---------------------------------------------------------------------------*/
FoamFile
{
    format      ascii;
    class       volScalarField;
    location    "9.69";
    object      T;
}
// * * * * * * * * * * * * * * * * * * * * * * * * * * * * * * * * * * * * * //

dimensions      [0 0 0 1 0 0 0];

internalField   nonuniform List<scalar> 
22702
(
1
1
0.962257
1
1.01811
1
1.12052
1
1
0.891096
1.12048
1.12042
1
1.11846
0.969493
1
1
1
1.12039
1
1.11863
1
1.11871
0.890955
1.1182
0.908183
1
1.12024
0.890179
0.889125
1
1.1201
1
1
1
1.1105
1.11819
1.11872
1
1
0.901953
1
1.06242
1
1.12014
1
1
1
1
0.897667
1
0.891645
1
1.12047
1
1.12018
1
1
1
1
0.902057
1
1
0.890359
1
0.899446
1
1
1
0.898429
1
1.11877
1.07594
1
1.11867
1.12543
0.899561
1.11983
0.899909
1
1.12079
0.895048
1.1189
1.11977
1
1
1
1
0.983079
0.895832
1.11942
1
1
0.870478
1
1.11874
0.871652
1
1
1
1
1.06256
1.12063
0.905358
1
1
1.03183
1
0.896734
1
1.11949
1.12073
1
1
0.8846
0.885322
0.894476
1
1
1
1
1
0.979398
1
1.10336
1.01118
1.12049
1
1.11971
1.12065
1.11835
1.12098
1
0.907736
1
0.878827
1
1
1
1
1.12086
1
1
1
1
1.11857
1
1.00704
1
1
1
1
0.898008
1
1.00301
1
0.899501
1
1
1
1.11923
1
1.11871
0.878037
0.902649
1.11933
1.11926
1
1.02375
1.071
1
1.1206
0.9008
1.11063
1
1
1
1
1.11857
1.10198
1
1.12052
0.894131
1.12027
1
0.899852
1
0.894499
0.904597
0.999934
1
1
1.11975
1
1
1.11856
1
1.11874
1.12055
0.896633
1
1
0.895744
1.11854
1
1
1
1.11859
1
0.89077
1
1
1.11852
1.11854
1.11897
1
1.00001
1
1
1
1.11861
1
0.898233
1.12416
1.11843
1.11836
1
1
1
0.892138
1.11866
1.05822
1
1.11887
0.895184
0.892687
1.11891
1.11908
1
1.11771
0.885517
1.10638
1
1
1
1
1.11867
1
1.07294
1.01262
1
1
1.11866
0.877814
0.940578
1
1.11841
0.889342
1.11824
1
1
1
1
1
1
1
0.895596
0.936869
0.892265
1.11848
1
1
1
1
1.10834
1
0.898499
1
0.891108
0.898407
1.1185
0.896204
1.11863
1
1
1
0.999305
0.900425
0.8837
1
1
0.888687
1
1.12064
0.903598
1
1
1.12067
0.876295
1
1.11986
0.901725
1.1188
1
0.894043
0.999361
1
1
1
0.894444
1
1
1
1
1.00445
1.07658
1
0.897517
1
1
1
1
1
1
1
1.12063
1
1.12023
1
1
1
0.893311
1
1.11861
0.89697
1
1.09767
1
1
1.1214
1
1
1
1.11699
1
1
1.11471
1.12102
1
1.02713
1
1
0.877808
1
1
1
0.871366
1
1
1
1
0.888933
1
1
1
1
1
0.874761
1.00002
1.11883
1
0.999991
1.11906
1.1196
1
1
0.899178
0.941018
1.12086
1
1
1
1.11882
0.896712
1
1.11866
1
1
0.901538
0.901182
1
0.902523
0.893993
1
1
1
1
1
1
1
1.12126
1.03171
1.11398
0.87464
0.980251
1.12096
1
1.11869
1.12058
0.891655
0.933944
1
0.89175
1
1.12478
1
1
1
1
1.11863
1
1
1
1
1
1
1
1.04706
1.11877
1
1.11851
1
1
0.89637
1
1
1
1
1.11851
1.09282
1
1
0.902362
1.11825
1.11843
1
1.11844
1.11837
1.11855
1
0.944875
1
1.11859
0.99769
1.11853
1
0.89216
0.999677
1.12102
1
1
1
1
0.896849
1.11851
1.10855
1
1.11884
1.11882
1.1207
1
1.05992
1.11849
1
1
1.08443
1.01871
1.11847
0.982345
1.11845
1
1.11844
1.11844
1.11846
1.11824
1
1.11359
0.980132
0.96652
1
1
1
1
1.12019
1
1
1
1
1
1.12099
1
1
0.998904
1.11839
1.10335
1
1.10044
1.00001
1
1
1.11845
1
0.999163
1.00123
1
1.11856
1
1.1189
1
1
1.09088
1
1.11895
1.00001
1
1.11853
1
1.11843
1
1
1
1.11867
1
1.12006
1
1.11866
1.12113
1.11863
1.12071
1
1.12103
1.11728
1
0.891806
1.11219
1.08756
1
1.11862
1
0.878368
0.900724
1
1
1
1
1
0.874968
1
1.11853
1.03465
1.11832
1
1
1
1
1
1.11841
1
1.11822
1.07481
0.928389
1
1
1.03722
1.03224
1
1
1.04527
1
0.900492
1.11854
1.11862
1
1
1
1.12118
1
1.00001
1.11823
1.11862
0.986792
1
1
0.895871
1.1086
1
1
1
1
1
1.11842
1.12115
1
1.11833
1.11972
1.11872
1
1
1
1
0.904763
1.12052
1
1
1.10864
1.11833
1
1.11224
1.11891
1
1
1
1
1
1.11859
1
1
1
1
1.12035
1
1.11812
0.890008
1
0.88831
1
1
1
0.999185
0.897064
0.999738
1
1
1
1.01792
1
1
0.961079
1
1
1
1
1
1
1
0.999999
0.982184
1
1
0.999305
1
0.897191
1
1
1
1
1.09107
1
1
1
1
0.897967
1
1
1.11235
1.12029
1
1
1
0.96228
1
1
1
1
1
1
0.988933
1.00556
1.11859
1
1
1
1.11908
0.973835
1
1
1
1.11927
1.11984
1
1
1
1
1
1
1
1
1
0.893869
1
1
1.12
0.89112
1
1.11975
1
0.899012
1
1
0.892766
1
1
1
1
1
1
1
1.11671
1.11852
1
1
1
1
1.10894
1
1.03866
0.897509
1
1
1
1
1
1
1
1.01353
1
1
1.06544
1
1
1
1.09898
1
1
1
1
0.891529
1
1
0.890263
0.891824
1
1
1.11878
1
1.00493
1
1
1
1.08539
0.878208
1
0.876641
1
0.92596
1
1
1
1.11888
1
1
1.11838
1
1
1
1.11837
1
1
1.11835
1
1
0.89213
1
1.03871
1
1
1.12115
1.12067
1.08223
1.10739
1
0.892135
1
1
1.11382
1
0.888962
1
1
1
1.11852
1
1
1
1
1.07524
1
1.11558
1.11978
0.877938
1
1
0.906263
0.907541
1
1
1
1.08658
1.09256
1
1
1
1
1
1
1
1.05465
1.12105
1.00552
1
1.11719
0.906535
1
1
1
1.06898
1
1.02499
1
1.10891
1.11821
1
0.892011
1
1.12034
1
1
1.11878
1.11211
1
1.12127
1
0.885165
1
1
1
1.11886
1.11668
1.10564
1
1.11938
1.11845
1
1.11871
1
1.11816
1
0.890191
0.987201
0.891503
1
1
1
1
1
1.11845
1
1.11849
1
1
1
1.11317
1
0.895685
1.11842
1
0.895709
0.887008
0.881541
1
1.06146
1.01118
1.119
1.11844
1
1
1
1
1.11858
1
1
1.11852
1.11842
1
1.04509
0.99995
1
0.999115
1.1195
0.9641
1
0.954643
0.901598
0.898073
0.987717
1.11927
1.11705
1.02679
1.1186
1.11846
1
1
1.12254
1.11986
1.11852
1.12067
1
1.11874
0.896267
1.11958
1.11875
1.11932
1.1184
0.95458
0.973927
0.983108
1.11844
0.98824
1.11847
1
1
1.1191
1.11887
1
0.89142
1.11937
1.11838
1
1.11858
1.11848
1
1.11863
0.896785
1.11851
1.1222
1.12107
1.11854
1
1
1
1.11836
1.08
0.903236
1.11836
0.891431
1.11846
1
1
1
1
1.11956
1.11843
1
1
1.11842
0.891599
1.11868
0.898848
1
1.11778
1
0.890928
1.11896
0.910211
1
1.1184
1.11916
1.11917
1
1
1.05642
1.11911
0.900021
1.11869
1
1.11864
0.9718
1.11874
0.89421
1
1.11902
0.89723
1.11908
0.896506
1
1.11855
1
1.11854
1
1.07228
1.11483
1.09509
0.885813
1
1.11881
1
1.11866
1
1.11849
1
1
1.11864
0.996096
1.1192
0.882745
1.11038
1
1.08614
1
1.11869
1.11849
1.11899
1
1.10803
1.11854
1.11079
1.07683
1.11884
1
1.08179
1
1.11888
1
1.01834
1
1.11065
1
1.11867
1.11357
1.11347
1
1.11753
0.903834
1
0.890998
1
1
1
1.12026
1
1.11875
1
1
1
1.11868
1.11768
1.09835
1.1193
1.1191
0.887697
1.11914
1.11941
1
1.1055
1.11854
1.11323
1
1.12056
1.1203
1
1.11967
1.11858
1.1188
1.11885
1
1
1
1.11875
0.890515
1
1.11859
1
1
0.89863
1
1
1.11845
1.11855
1
1.11861
1.12058
1.11859
0.988966
1.11857
1
1.11855
1.11871
1.09805
1
1
1
1.11879
1.11883
1.11864
0.978043
1
1.121
1.11869
1.11896
1
1.11863
1.11883
1.11855
1.12066
1
1.1184
1.11817
1.10551
1.11886
1.12003
1
1.12037
1.11731
1.11864
1.11947
1.11881
0.902164
1.11874
1.11896
1
1.11867
1.1185
1.11849
1.11853
1
1.11875
1.11864
1
1.11836
1.10104
1
1
1
1.11888
1.1204
1
1
1.06771
1
1.11855
1
1
1.11846
1.11888
1.11866
1.11843
1
1
1
1.08761
1
1.11858
1
1
1.12136
1.12238
1
1.11858
0.881427
1.1187
1.11837
0.915953
1
0.883497
1.10583
1.11788
1.1188
1.11889
0.880071
1.1188
1.11877
0.880103
0.890478
1
1.11875
1.11858
1
1
1.11866
1
1.11914
1
1.10515
1
1.05966
1.11865
1.11913
1.08792
1.10715
1.11957
1.11962
1.11231
1
0.902351
1.11901
1.11855
1.1205
1
1
1
1.11948
1
1.11867
1.11866
0.916454
1
1.11845
0.999981
1
1.00001
1.00001
1.11853
1.11812
0.999563
1
1
1.11865
1.11913
1.11846
1.11883
1.11903
0.892037
1.10288
1
1.1179
1.11854
1.11868
1.11588
1
1.1187
1.11554
1.11896
1
1.11886
1.11904
0.954703
1.11866
1.11895
1
1.11859
0.951223
1.11891
0.95355
1.11875
1
1.11867
1.12334
1.11849
1.11856
1.11855
1.11994
1.11879
1.11915
1
0.976675
1.11886
1.11838
0.95482
1.11857
0.997093
1.07888
1.11882
1.11883
1.11986
1
1.11918
1.07886
1.11915
0.976381
1.11911
1.12102
1
0.964783
1
1.11778
1
1.08354
1
1.11354
0.96705
1
1.11979
1.11836
1
1.11927
1.11902
1.11989
1.11981
1.12025
1
1.12059
1
1
1
0.973199
1.11823
1.11808
1.11791
1.11858
1.11923
1.11828
1.11916
1.11865
0.971906
1.00879
1
1
1.12371
1.11865
1.11851
1.11845
1.00001
1.06378
1
1.11978
1.10495
1
1
0.921403
1.11872
1
1
0.895775
1.11852
1
1.11984
1.11841
1.1197
1.11451
1.11868
1
0.88778
1.03114
1.1186
1.1187
1
1.11829
1.11848
1.0652
1.00316
1.0283
1
1.11853
1.11858
1
1
0.883994
1
1
1.11853
1.11861
1.11821
1.11853
1.11849
1.12024
1.11859
1.1189
1.11846
1
0.998875
1.11881
1.11873
0.999168
1.11858
1.11856
0.890461
0.878162
1.11792
1.12
1
1
1.00062
1.11843
1.11815
1.11853
1
1.11853
1
0.960125
1.12066
1.12048
1
1.05891
1.11828
1
1.11994
1
1.11842
1.08279
1.11868
1
1.11861
1.1204
0.883369
1.11872
1
1.11893
1.12083
1
0.890867
1.11889
1.09961
0.999294
1.11754
1.11857
1
1.00009
1.11959
0.999243
1.11855
1
1
1.11894
1
1.11936
1.11854
0.998912
1.09518
1
1.11854
1
1
1
1
1.11842
1
1
1.11778
1
1.1188
1
1.07938
1.11764
1.11805
1
1
1.00162
1
1.11853
1.11858
1.11919
1.11859
1.11885
1.11853
1.11872
1
1.11848
1.11849
1
1.11863
1.11848
1
1.11825
0.976187
1.01673
1.11842
1.11844
1.11847
1
1.11864
1
1.11846
1.11845
1
1.11821
1
1
1
1
1.11859
0.887887
0.99938
1
1.11852
1.11787
1
1.11847
1
1.0014
0.89253
1.11853
0.99989
1
1.11866
0.999514
1.11877
1
0.999936
1
1.11904
1.11978
1.11828
1.11981
0.895693
1.11872
1.11814
1.11857
1.03179
1
1
1.05515
1.11854
0.884949
0.889593
1
1.11907
1.11839
1.1181
1
1
1.11807
1.11836
0.999966
1
1.08784
0.88236
1
1.02315
1.12068
1.11815
0.999506
1.11858
1.12133
1
0.999658
1
1.11829
1.11958
1.05025
1
1.11254
1
1.00051
1.11796
0.903988
1.11898
1.11867
0.999137
0.999973
1.10695
1
0.999909
1
1.11932
1
1
0.881401
1.11858
1
1
1
1
1.11924
1.06928
1
1
0.889552
1.11853
1.07055
1
1
1
1.11374
1.11966
1.1192
1
1
1.11769
1
1.1188
1.11889
1
1
1.11904
1.11874
1.11438
1
1
1.11912
1.11854
1
1
1
1.11835
1
1
1
1.11844
1.11951
1.11909
1
1.11877
1.00001
0.906797
1.11885
1.1184
1
1.12014
1.11399
1.12115
1
1
1.11873
1
1.0675
1.1181
1
0.888697
1
1.11884
1
1
1.1178
1
1
1
1.03901
1.11842
0.903998
1
1.11873
1
1
1.1186
1
1.11903
1
1
1.1186
1.11857
1
1.00001
1
1
1
1
1
1
1.11987
1.11853
1
1.11971
0.891688
1.12053
1
1.11852
1.11943
1.11859
1.12056
1.12125
1
1
1.11766
1
1.07841
1.11992
1.11839
1
1.1193
1.11964
1
1.10765
1
1.11852
1.08036
1.1178
0.99925
1.11543
1.10995
1.11918
1.11879
1.01053
1.11853
1.11928
1
1.1185
1
1.11859
1
1
1
1
0.999001
1.11849
1.11866
1.10215
1
1.11954
1
1
1
0.88494
1
1.11589
1
1.10851
1.11493
1
1
1
1.10956
1.12119
1
1
1.11877
0.889402
1.02404
1
1.11964
1.11838
1.10891
1.11601
1.11839
1
1.11881
1
1
1
1
1.11811
1.11863
1
1.11753
1.01725
1.11865
1.1111
1
1
1.11135
1
1
0.891834
1.08614
1
1
1.11923
1
1.11945
1.10887
1
1.10881
0.89138
1.11844
1.11834
1.11866
1
0.89644
1
1
1
1.11859
1.1009
1
1.11868
1.11822
1
1.11876
1
1
1
1
1.11826
0.999822
1
1.11893
1
1
1.11623
1.11848
1
1.11875
1.0232
1.00001
1
1.11893
1
1.11898
1
1.00388
1.11855
1
1.11879
1
1
1.04033
1.11866
1
1
1
1
1
0.998813
0.891744
0.889402
1.00565
1
1.0076
1
1.00789
1
1.11855
1
1.07304
1
1.11873
1
1
1
1.11876
1
1.09625
1.11852
1
1.06625
1.11874
1
1
1.11969
1.11827
1
1
1.01669
0.886466
1
1.11863
1
1
1
1
1.02171
1.11871
1
1
1
0.887093
1
1.11864
1.11852
1.12142
1
1
1
1
1.06264
1.11975
1
1
1
1.11977
1.11846
1.01493
1
1
1
1.11843
1.11842
1
0.888553
1.11854
1.11852
1.11824
1.11825
1.11828
1
1
1.11878
1.11852
1.11837
0.890291
1.01126
1.11821
1
1
1
1
1
1.11845
0.88862
1
1
1.11838
1.05517
1
1.11884
1
1
1
0.894526
1
1
1.03416
1.11852
1.1187
1
1.11756
1.11954
1
1.02333
1
1.1186
1
1.11861
0.888172
1
1
1
1
1.11873
1.00002
1
1
1
1.11706
1
1
1
1
1.11841
0.893054
1.09611
1.11927
1
1.11858
1
1
1
0.999169
1
1.11883
1
0.94011
1
1
1.00001
1.11886
0.892023
1
1.11813
1
1.11944
1.11862
0.886536
1
1
1.11303
1
1
0.88805
1
1.12008
1
1.11382
0.999823
1.11831
1
1
1
1
1.1204
1
1
1.11854
1
1
1
1
1
1
1
1
1.08033
1
1.04038
1.11896
1
1
1
0.892481
1
1
1
1
1.11816
1.11848
1.01693
1
1
1.11874
1
1
1.11863
1
1
1
1
1
1
1.11817
0.931224
1.11851
1.11889
0.999208
1
1
1
1.07229
1
1
1.11805
1.11877
1
1
1
1
0.889184
1
1
1
1.0774
1
1.11867
1.11928
1
1.11891
1
1
1
1.06733
1
1.12073
1
1.11842
1
1
0.998915
1.11842
1
1
1
1
1
1.11885
1.00001
1
0.892319
1.11815
0.888313
1
1.11926
1
0.998795
1
1.11874
1.11921
1
1.11765
0.964977
1.1185
1.11585
1.00001
1
1
0.891186
1
1
1
1.11847
1.07167
1.11952
1
1
1
1
0.99907
1.11918
1
0.890632
1
1
1
1
1
1
1
1.11956
1.11849
1.12026
1
1
0.999105
1
0.998746
1
1
1
0.887723
0.996765
1
0.884706
0.893582
1
1.11873
1.11845
1
1.11891
1.11845
0.892246
1.08612
1
1
1
0.889705
1.11841
1
0.890694
1
1.11826
1.02424
1
1
1
1
1.11854
1.11971
1
1
1.11849
1
1
1.1203
1.11849
1
1.10757
1.11874
1.11986
0.986839
1.11975
1.00249
0.891939
1.0938
1.11856
1
1
1
0.887998
1
0.892089
1.11823
0.989897
1.11854
0.984702
1
1.11826
1.05714
1
1
1.11869
1
1.05077
1.1179
1
1
1.11914
1.12076
0.896696
1.07429
0.99997
1
1.07458
1
1.11967
0.98425
1.12102
1.11945
1
1
1
1
1.11894
1
1
1.11846
0.999897
1.11872
1.10073
1.11827
0.893928
1
1
1
1
1.11869
1.00001
1.11875
1
1.11863
1.11843
1.01639
1.12061
1.04108
1.1188
1
1.08334
0.894891
1.11995
1.1185
1.09645
1.02408
1.11939
1.11848
1.1187
1.1188
1
0.978365
1.01832
1
1.11855
1.05843
1.11864
1.00001
1
1
0.906358
1.11936
1.11918
1.09799
1
1.05027
1
1.11889
1.11857
1
1.11915
1.11895
1
1
1
1.11922
1
1.04943
1.11983
1.08557
1
1.11856
1
1
1
1
1
1
1
1
1
1
0.89679
1
1.11056
0.90102
1.07153
0.999599
1.11942
1
1.06529
1
1.07978
1.1038
1
1.0005
1.11968
0.977656
1
1.11833
1.11773
0.981396
1
1.11795
1.11867
1.11912
1
1.11844
1.11895
1.11915
1
1.05776
1
1.00002
1.11871
1
1.11865
1.01899
1.1191
1
1
1.11841
1.11834
0.905994
1
1.11863
1.0915
1.11849
1
1
1.11954
1.11954
0.999498
1
1.11025
0.999078
1.11878
1.00001
1
1
1
1
1.05612
1
1.09181
1.11869
1.09059
1.11779
1
1.00082
1
1
1.11999
1
1.11879
1
1
1
1
1
1
1.01591
1.06463
1
1
0.90177
1
1.11807
0.895777
1.11916
1
1.06091
0.999925
1.11898
1.07938
0.899425
1.06862
1.00001
1.11858
1.11895
1
1.07536
1.11922
1.1186
0.999539
1.11938
1.11545
0.885987
1
1
0.999269
1
1.11785
1
0.903248
1.11799
1
1
1.10509
1
1.11852
1
1.11843
1
0.903276
1
1
1.11828
1.11911
1.1191
1
1.11897
1.11864
1.11727
1
1
1.11809
1
0.926818
1
1
1
1.11877
1
1.11845
1.07962
1.11851
1
1.11851
0.999826
1
1
1
1
1
1
0.918808
1
1
1.11844
1
1.11891
1.11967
1
0.893054
0.891288
1
1.11897
1.02206
0.892659
0.885084
1
1.11879
1
1.11901
0.881303
1.00038
1
1
0.999862
1
1
1
0.999975
1.05137
1.11885
1
1
1.11875
1.07336
1
1.10982
1.11863
1.11869
1.05132
1.11758
1
1.11856
1
1.11483
1
1.11733
1.11862
0.999072
1.11885
1.11804
1
1
1
1
1
0.971049
1.11971
1.00001
1.00001
0.900959
0.999994
0.888586
0.887479
1
1.11903
1.11903
1.11871
1
1.11861
1
0.8936
1
1
1.11884
0.946032
1.11799
1
1.11818
1
0.996976
1.11863
1
1
1
1.11847
1
1.11838
0.896542
1
1
1.0727
1
1
1.06817
1
1
1.11844
1
1
1
1
1
1.11964
1.11835
1
1.11893
1.11882
0.887474
1.05823
1.11882
1
1
1.10781
0.999726
1
1
1.1186
1.11817
1.08165
1
1.11928
0.887151
1.10911
0.999803
1
1.11813
1.00001
1.11849
1.09829
1.09321
1
1
1.11853
0.917494
0.897716
1
1.11852
1
1.11822
1
1.07265
1
1
1.11839
1.07854
0.892528
1
0.999479
1
1
1.00739
1.0508
1.11854
1
1.11794
1
1
1
1
1
1
1.01904
0.889021
1
1
1.00971
1
1
1
1
1
1.1187
1
1
1.11851
1.11832
1.08914
1
1
1
0.948781
1.11914
1.086
1
1
1
1
1.11862
1
1
1
1.1187
1
1
1.08793
1.12231
1.01337
0.930613
1.11902
1.08751
1.11864
1
1.06416
1
1
1
0.892916
1.00069
0.898906
1
0.884933
0.879916
1
0.892524
1
1
1
1.05732
1
1.11909
1.11883
1.00032
1.06171
1.10126
0.897323
0.923064
0.971316
1
1.11849
1.11952
1.11847
1.11862
1.10356
0.964279
1
1.10415
1
1.11681
1
1
0.998932
1.0026
1
1
1
1.11896
1
0.902143
1
1.11899
0.897136
1
1
1.11858
1
1.11851
0.999883
1
1
1.11866
1.10522
1
1.12262
1
1
1.00431
1
1.05733
1
1
0.887978
1
1
1.11882
1
1.1187
1
1.00001
0.895592
1
1
0.905513
1.00031
1
1.11912
0.889551
1.11969
0.891404
1.11863
1
1
1
1
1
1
1
1
1
1
1
1.11429
1
1.11881
1.11986
0.88187
1
1
1
1
1
1
1.11574
1
1
0.89316
1
1
1.11927
1
1
1.04696
1.101
0.890154
0.88778
0.907442
0.923138
1
0.998991
0.90372
1.00012
1.10892
0.999124
1
1
1.11888
1
1
1
0.925
1
1.04467
1
1
1.05122
1.11859
1
0.896249
1
1
1
0.999092
1
1.11827
1.11845
1
0.888794
1
1.06763
0.886123
1
0.970176
1
0.998877
0.87976
1
1
1
0.998902
0.887503
1
0.88579
0.999549
1.06615
1.10777
0.887736
0.894124
1
0.997192
1
0.999615
1
1.11853
1.11867
1
1.006
1.11874
1.11845
1
1
1.11841
1
1
1.00001
1
1.12031
1
1
1.00533
1
0.999597
0.902459
1
1
1
1
1
1.11782
1.00931
1.00001
1
1
1
1
1
1.00001
1
0.885624
1.02887
0.999605
1.11525
1.11984
1
1.00446
1.11874
1.10215
1
1
0.884205
1.11863
1
1.11956
1
1.11875
1.08302
0.884531
1
0.886771
1.10815
0.999908
1
0.891082
0.889831
1
1
1.10149
1
1
0.882787
1
1
1
1.03942
1
0.880363
1.11824
1
1
1
1
1.11859
1
1
1.11724
1.1075
1
1
1
1.11836
0.881916
1
1.11883
1.11869
1
1.09646
1
1.00001
1
1
1.11309
1.00603
1
0.897087
1.06533
1
1
0.99922
1
1
1.11772
1
1
1.00001
1
1.11892
1
1
1
1
1
1
1
1.05598
1
1.1183
1
1
1.11888
1
1
1
1.11847
1.11864
1.01278
1
0.999329
1
1
1
1
1.11981
1
1
1.11845
0.892161
1
1
1
1
1
1
1.09813
1
1
1.11832
1.11883
1
1
1
1.11876
1.11812
1
0.999905
1.1184
1
1
1
1
0.901799
1.00825
0.99894
0.99887
1
1
0.887854
1.11876
1
0.881074
1
1.11866
1.11437
0.890499
0.99983
1.11876
1.11874
1.11852
1
1
0.981161
1.10654
1.09919
0.888806
1
1
1
1.11811
1.11845
0.893852
0.99925
1
1.11862
0.899182
1
1.11928
0.892872
0.993
1.00186
1
1.12072
1
1
1
1
1
1
1.00003
1.11089
1
1
1.11741
1
1
1
1.11835
1
0.886129
1
1
1
1.04369
1
1
1
1
1
0.939176
1
0.89807
1
1.11829
1.00002
0.959697
0.967051
1
1.0011
1.06644
1
1
0.890744
1.11812
1.1183
1.11836
1
0.8954
0.884305
1
1.11846
1
1
1
1
1
1.00001
1
0.893741
1.0786
1
1
0.891493
0.997002
1
1
1
1
0.881225
1
0.907954
1
1
1.12098
1
1
0.886318
1
1.11848
1
0.89714
1
0.892045
1
1.00225
1.11849
1.12257
1
1
1.11975
1
1
1.02892
0.999077
1
0.999457
1
1.1194
1
0.892589
1
1.1206
0.999676
1
1
0.940942
1
0.999708
0.895956
1.11882
1.04756
1
1
0.970945
1
1
1
0.935428
1
1
1
1.11856
1
0.885271
1
1
1
1
0.888785
1.11855
1.11224
0.89671
1
1.12012
1
1
1.11858
1.11976
1.10161
0.891197
0.999355
0.999777
1
1.11851
1
1
1
1
1.11881
1.00001
1
1
1.11908
1
1
1.11856
0.890083
1
1
1
0.891603
1
1
1
0.9996
1
1
1
1
1.09719
1
1.11969
1.11906
1.12126
1.11866
1.11898
1.11859
1
1.11916
1
1.11854
1.11853
1
0.999677
0.888827
1.1028
0.999969
1
1
1
1
1.00046
1
1.02036
1
1
1
0.952256
1.11861
1.11854
1.12015
1.10771
0.999965
1
1.00651
1.11886
0.999387
1.01843
0.999175
0.887104
1
1.00001
1
1
1
1
1
1.11906
0.886329
1.11898
1.11846
0.998595
0.894968
1
1
1
1.11828
0.888436
1.10594
0.88769
1.11861
1.11948
0.891745
1.11881
1.0069
1
1.11932
0.940779
1
0.999654
0.898733
1
0.889837
1
1.11864
1.11862
0.926416
1
1.11908
0.885824
1
0.889019
1
1.11865
1
1
1.11729
1
0.956131
1
0.999917
0.890245
1.11742
0.999853
1
0.903681
1
1
1
1
1.07007
1
1.11839
1
1
1.12296
1
1
1.11869
1
0.894275
1
0.895149
1
1
1
1
1
1.11406
1.07268
1.11857
1
1.1184
1.1113
0.880625
0.89597
1
1
1.11799
1
0.893111
1
0.99547
1
1
1.11863
1
1.11889
0.904463
1.12027
1
0.903829
1
1
1.11987
1.11824
1
1.00001
1
1.11611
1
1
0.888093
0.99982
0.897669
1
1
1
1.11902
1.11889
1.11941
1
1
0.883189
1
1.11923
1
1
1
1.1151
1.11858
1.1187
0.878706
1.11903
1.11853
0.894239
1.11978
1.00001
0.900425
1.00471
1
1
1.11871
0.877573
1.07942
0.88096
1.11856
0.999298
0.895935
1.11906
1
1
1
1
1.11851
1.11976
0.88866
1
1.00001
0.893145
1.00001
1
0.887771
0.898922
1.08504
1.11864
0.999563
1.11857
1
1.11807
0.944017
0.893096
1.11847
1.1216
1
1.11902
1
1
1.11858
1
1.09221
1.11965
1
1
1
1
1.11853
1.11725
1.11862
1
1
1.11828
1.12218
1.11873
1
1.11853
1
1
1
1
1
0.87961
0.953937
0.902726
1
1
1.11889
1
1
1.11951
0.892646
1
1.11869
1.11732
1.11405
0.880512
1
0.876957
1
1.00001
1.11935
1.06054
1.12018
1.1095
1
0.889709
1
1.1182
1.08772
0.891357
1
1
1
0.945827
1
1
1.12105
1
0.891843
1.11873
1
1
1
1
1
1.09719
1.0297
1
1.11901
1
1.11829
1
0.999237
1
1.11869
1.12059
1.11876
1.11981
0.999887
1.12013
1
1.11855
1.11848
1.10222
1
1
0.887522
1.11931
1
1
1.1179
1.11896
1.11829
1
1.11863
1
1
1.00001
1.1203
1.11888
1.03703
1.02717
1.11878
1.11855
0.90982
1
1
1
1
1.00001
1.04496
1
1
1.09888
0.901023
0.999987
1
1.11846
0.999966
0.999954
1.01916
1.10706
1.11975
0.97458
1
0.894103
1
1.002
1.11845
1.11915
1.11447
0.999714
1
1
0.894354
1
1
1.11841
1.01431
1
1
1
1
1
1
1
0.999982
1.1197
1
1
1
1
1
1.07842
1
1.0603
1
1
1.11858
1.11996
0.899629
0.999654
1
1
1
0.887588
1.11971
1.11852
1
1
1
1
1
1
1
1
1.11858
1.12023
0.892465
1.01406
0.892289
1
0.891394
1
1.11861
1.03877
1
1
0.907521
1
1.11412
0.945666
0.999032
0.893409
1
1
1.11974
1.00001
0.99918
0.886651
1.11965
1.12105
1
1
1
1
1.11141
1
1
1.11842
0.999691
1.11893
1.00002
1
1
0.896782
1
1
1.11905
0.891519
0.932635
0.886954
1.11864
0.999795
1
1.11973
0.887764
0.89111
1.00652
1
1
1.11972
1.00001
1.057
1
1
1.11968
0.893934
1
1
1.00004
1.11909
1.00004
1.11896
1
1.00001
1
1
0.90793
1
0.935077
1
1
1.11878
0.901349
1
0.938284
0.939159
1
1
1.11888
1
1
1
1.1186
1.11839
1.00001
1.11599
1.12018
0.937795
1.11854
1.11211
1
1
1.11768
1
1
1
1
1
1.11931
1.11824
1
1
1
1.11898
1.00006
1
0.88683
0.908793
1
1.00001
1.04816
1
1
0.966114
0.888132
1
1
1
1.11982
1.10969
1.11866
1
1
1
1
0.89789
1
1.11803
1
1.11631
0.890302
1.11955
1
1
1
0.879861
1
1.11886
1.00001
1
0.890723
1.04696
1
0.999899
1.11907
0.883361
0.899685
1
1.11968
0.892452
0.885931
1
0.903917
1
1
1
1
0.87525
1
1
1
1
1.11982
1
1.09306
0.901737
1
1
1
0.887698
1.11853
1
1
0.99896
1.11527
1
1.11882
1.1194
1
1
0.921514
0.889487
1
1
0.889931
1.04005
1.05932
1
1
1.11904
0.99927
1
0.99932
1.12053
1
1
1
1
1
1
1.11902
1
1.04354
1.04019
0.900831
1.10662
1
1.11849
1.11842
1
1
1
0.971958
0.885065
1
1.06565
0.999895
1.10328
1
1
1
1
1
1.00218
1.05602
1.11889
1.11893
1
1.11885
1
0.885036
1
0.999317
0.999932
1
0.884749
1
0.895565
1.00001
1.11926
1.12007
0.886662
1.12051
0.893217
0.998902
1.09612
0.890209
1.08716
1
1
0.999551
1
1
1
1.00002
1
0.890306
1
1
1
1
0.999887
1.11937
0.944258
1
1
1
1.01055
1
1
1
1.06903
0.925715
1
1
1
1.01472
1.1197
1
0.883458
1
1.11903
0.974944
0.885824
1
0.887708
1
1
1.11275
0.999509
1.11179
1
1.00249
1
1
1.11842
1
1
1
1
1.02627
1
1.11855
1.11904
1.11918
0.890845
1.11888
0.99918
1.09884
1
1
0.880162
1
1
0.88921
1.11846
1
1
0.999989
1
1
1
0.886641
0.883482
1
1.12012
1
1.05876
1.11861
0.89479
1.10232
1
1
0.893591
1
1
1.11855
1.11857
1.04784
1
1
1.00027
1.11943
0.892069
0.892174
1.11959
1.1184
1.08425
1.04939
1
0.9704
1
1
1
1.11475
1.11949
1.11887
1
1
1.11878
0.895859
1.10702
0.882437
1
0.894343
1
0.889193
1.1184
0.88789
1
0.996563
0.908384
1
1
1
0.957323
1.10823
1.11876
1.11904
1.11996
1
1
1.11988
1
1
1.11907
1
0.876257
1
0.896142
1
1.11976
1
1
1.00803
1.0927
1
0.999613
0.881889
1.1187
1
0.900109
1.02392
1
1
1.09362
1.11855
1.11862
1
1.118
1.03266
1
1.00672
1.11848
1
1
1
1
1.11855
1
0.894499
1.11875
0.893924
0.904806
0.947614
1.11809
1.04498
1.11881
1
1.11994
0.999252
1.00001
1.11849
1.11981
1
1.11972
1
1.11853
1
1.11957
1
1.00001
1.00001
1.11798
0.887536
0.891156
0.999375
1
1
1
0.883691
1
1.08115
1
0.89239
1
1.05144
1.11877
1.11766
1
1
1.00001
0.999811
1
1.12013
1.11852
1
1.05328
1.11846
0.956011
1.11868
1.00019
0.88276
1.02838
0.877646
1
1
1.02198
1.12026
1
1
1.0134
0.999594
1
0.905678
1
0.936872
1
1.11784
1
1
0.878506
1.02886
1.01823
0.999569
1.1185
1.1185
0.922625
0.999458
0.88728
0.877497
0.889292
1
1
1
0.999712
0.920578
0.899791
1
1.11852
0.999926
1.11856
1.11905
1.12036
1.11859
1
0.889464
1.11879
0.896645
1
1.11895
1.11978
0.999045
0.941745
1.11867
1.08834
1
0.88657
1
1
1.11997
1
1.00752
1.11866
1
0.903695
0.887436
1
1
0.888682
0.882871
1.11864
1.00002
1
0.893101
0.881307
1.1179
1.11621
1.11169
1.11988
1.03634
0.996954
1.05014
1.12092
1.09743
1
1.06465
1
0.886353
0.963834
1
0.886871
1.11857
1.0066
1.11889
1
1.11857
1.11908
1
1.11857
1.11859
0.881808
1.11946
1
1.12202
1
0.924395
0.893894
1.11859
1
1
1
0.891424
1.11886
1.1189
1
0.889367
1
1
0.892842
1.00001
0.886774
1.11998
1
0.950397
0.881283
1
1
1.07127
1
1
1
1.02118
0.88516
1
1
1
1.11807
0.89505
1
1.11852
0.899647
0.875431
1
1
1.12068
1
1.11901
1
1.11853
0.892009
1
1
0.88971
0.938463
0.898872
1
1
1
1
1.11806
0.881485
1
0.896557
1
1.12074
1
1
0.980444
1
1
0.950159
0.999909
1.00001
1
0.89308
0.889266
1
1
1
1
0.94309
1.11814
1.12011
1
0.895456
0.881471
0.972911
0.896264
1
0.951721
1
0.887288
0.997809
1
1
0.895423
1
1.11758
1.11547
0.886494
1
1
1
1.11818
1
1.0139
0.946235
1.04066
0.895399
1.05194
0.882542
1
1
0.915405
0.971659
1
1.01267
1
1
0.87946
1
0.981989
1.01162
0.897127
1
1.09934
0.924304
0.965635
1
1
1
0.887136
1
0.894044
0.889088
1
0.957741
0.896918
1.02126
0.9281
0.890281
1.11857
1
1.11859
1.06778
0.916311
1.11856
0.888873
0.999709
1.11943
1
1
1.11799
1
0.917127
1
1.02128
1
1
1.11857
1
0.927592
0.948522
1.12028
0.979924
1
0.925513
1.11845
1.1196
0.972757
1
1.11849
1.03441
0.957813
1
1.00715
1
0.889033
1.05405
0.93023
0.925246
1
1
0.898332
1.11895
0.992572
0.893756
0.891667
0.962488
1
1.00309
1.11958
1.11839
1
1
1
0.886974
1.05795
1
1.11821
1.10927
0.887197
1
1.02702
0.968007
1.07427
1.10251
1
1.01275
1
1.00002
0.887107
0.957267
1
1
0.941514
0.889125
1.01091
1
1
0.894498
1.05776
1
1.11972
1
1.01049
1.0676
1
1.11922
1
1
1.11833
1
0.884992
1.11917
0.898311
1.03501
1
0.898195
0.999974
1
1.00001
1
0.943558
1.00778
0.892512
1.08994
1.12017
0.88519
1
1
1
1
1
0.994071
0.886914
1.01506
0.89333
0.891516
1.02329
1
0.999941
1.03285
1
1
0.891136
1.00124
1
1
1.03853
1
1.11978
1
1.11911
1.02849
1.0045
0.893729
1
1
0.898068
1
1
1
1
1.11876
1.01216
0.999447
1
0.886993
1.01522
1
1
1.0811
1
0.893296
1.11826
1
1
1
1.11912
0.891057
0.966846
0.883995
1.09116
1.11824
1
1
1.11867
1
0.880877
1
1
1
1
1
0.927475
1
1.11875
1
1
1.04434
1.11972
0.88673
0.958982
1
1.11863
1
1
1
1
1
1.11857
1.11944
0.883387
1.11841
0.888248
1
1
1.11867
1
1.11965
1.00414
1.0084
1.0196
1.11903
1.02034
1.08294
0.885687
1
0.883403
0.996905
1
1.11869
1
1
0.889839
1.11944
1
1.11942
1
1
1
1
1
1
0.890655
1.11961
0.958948
1.11851
1
0.889142
0.888942
0.91285
1.11991
1.11908
0.991998
1
0.932043
1
1.05069
1
1.11875
0.880379
0.886068
0.954811
1
1.11848
1
1.02097
0.891048
1
1.11987
1.11006
0.999674
1
1.11851
0.893609
1.11959
1.11875
1.1205
0.891012
1.02708
1
1
0.886808
1
0.941889
0.951577
1
1.00001
1.1189
1
1.11964
1.02676
1
1.01082
1.12011
1
0.891402
1
0.927259
1
1
1.09902
1
0.94553
1
0.894905
1.0101
0.985317
0.880933
1.11867
1.09609
1.11979
0.894158
0.909323
0.998727
1
1
0.896167
1.11251
0.880937
0.99999
1
1.11846
1.11937
0.97536
1
0.884749
0.916228
1.08234
0.998287
0.891551
1
0.885783
1.03389
0.891683
1
1.00002
0.944901
1.12006
1.1186
0.95195
0.999881
1
1
0.916524
1
0.887404
1
0.883145
0.886362
1
1
1.00001
0.895234
1.11849
1
1
1.00002
1.00001
0.886146
1.1186
1.11851
1
0.891681
1.12028
1
1.02639
1
1
1.11823
0.887582
1
1
0.883672
0.916228
0.890163
0.890839
1
0.906931
0.999176
1.02912
0.883119
1
1
1.03681
1
1.10635
1
1
1.0879
0.903686
1
0.892695
1.03423
1.11868
1
1
0.894946
0.893105
0.885273
0.914341
0.893189
1.09165
0.999832
1
1
1
1
1.11884
0.901803
1
0.977
0.999908
0.9996
0.999983
0.929902
1.03652
1
1.1187
1.11868
1
1
1.1142
1.00001
1
1.11881
0.899886
1.11589
1
0.877581
1.11846
1.00002
1
0.95144
1
0.881198
1
1.11949
1
1
1.11925
1
1
1.11964
1
1
1
1.12069
1
0.926249
0.91813
1
0.88236
1.11912
1
1
0.997232
1
1.11894
1.07254
1.09708
1
1
0.895716
1
0.891023
1.1185
1.11994
1.11841
1
1.12013
0.890374
1
0.89018
1.09763
1.11182
1.11844
1.11892
0.93088
0.88946
1
1.0796
1.11964
1.11973
1.11857
0.922168
1.04695
1
1.09202
0.923448
1
1
1
1.00001
0.966644
1
1.12016
1
1
1
1
1
1
1.00002
1.11781
1
1.11935
1.09007
0.888415
1.11997
1.00883
1.06312
1
1.11832
1
0.891622
1
1
1
1
1.1029
1
0.882053
1.1177
0.883848
1.11867
1.09703
1.06563
1
1.02477
1.05802
0.998699
0.888741
0.927238
1.00001
1
0.978505
1
0.886713
1.11945
0.89218
0.981347
0.953699
1
1
1
1.00406
1
1
0.889438
0.998915
1.12028
1
1.11852
1
0.889188
1
1
1.11854
1.11834
0.883454
1
1.11911
1
0.940615
0.891143
1.11942
1.10746
1
1.02209
1.11847
0.999612
1
1.05322
1.10595
1.11824
0.99876
1
0.999999
1.10209
1
1
1
1.11854
0.999561
1
1
1.11859
1
1
0.892632
1
1
1
1.11937
1
1
0.955444
1.03905
1.10875
0.925531
1
1.11865
1
1.04461
1
1.11954
0.999213
1.11848
1
0.886534
1
1.08321
1
1
1.11157
1.00001
1.11855
1
1.11818
0.902732
0.894129
1.11922
1
1.10229
1
1.1194
1
1
1.00001
1.1182
1.1184
1.03223
1.1184
0.998668
0.877371
1.11863
0.965478
1
1.11913
1
1.11855
1
1.11902
1.11931
0.998891
0.885198
1
1.11861
1
1.00841
1
1
0.999402
0.917162
1.10731
1
1.111
1
0.958256
0.88637
1.11825
1.11829
0.897595
1
1.119
1.11968
1.11926
0.902502
1.11818
0.892008
1.11923
1.12092
1
1
1.11858
1
1
1
1
0.886734
1
1
1.11959
1.11863
1
1.11869
1
1.12005
1.11981
1
1.10065
1
0.886465
1.11832
1.09307
1.03946
0.884599
1.11861
1
1
0.887907
1
1
1.11852
1
1
0.935206
1
1.11849
1.00003
1.11863
0.885433
1.11965
1
1.11848
1.1145
0.97078
1
1.11874
0.933225
1.11874
1.08678
1.11862
1.11789
0.999119
1.12003
1.1185
1.11845
1.11837
1.00022
1
0.882679
1
1.12032
0.941156
1.10918
1
1.11671
1
1
1
1
1
1.11808
0.888051
0.889264
1.11869
1.11855
1
1
1
1
1
1.11768
1.10725
1.1185
1.00723
1
1
1
1.00001
1.11839
1.11853
1
1.11933
1.11949
0.896223
1.08537
1
1.11846
1.12024
1.1178
0.999407
1.11885
1.11876
1
1.10666
1
1
1
1
1
1
1.11841
1.12
1.11136
1.11881
0.889272
0.897878
1.1187
1.11848
1
0.889016
0.986155
1
1.05993
0.892504
1
0.999849
0.999515
0.881151
1
1.11864
1
1
1
1.11923
0.983038
1
1.11847
1.11862
1
1.11929
1
1
1.11859
1
0.880399
1
1.11844
1
1
0.89845
1
1.11825
1
0.887537
0.887195
1
1.11852
1
0.881618
0.967237
1
1.11851
1
1
1
1.12005
1
0.890202
1.01853
1.11938
1.11901
1.11852
1.01301
1.11916
1.11867
1
1
1
1
1
1.11861
1
0.999812
1.11834
1
0.88514
1
1.11856
1.05746
1.01968
1.05873
1.01936
1.11878
0.912171
1.11873
1
0.891135
0.999153
1.11879
0.981809
1.11877
1.11863
1.11297
1
1.11929
1.11859
1.11872
1
1.00001
1
1
1.11952
1.08693
1
1
0.891392
0.999047
1
1.11859
1
1.11868
1.11865
1.11801
0.974712
1.11863
1.11848
1.00369
1.06175
1.11964
1.11845
1
1.1103
0.946195
1.11477
0.998748
1.11844
1
1.1185
1.11856
1
0.896514
0.981197
0.905503
1
1.0252
0.999065
1.11942
1
1
0.999053
1
1.06176
1.11231
1
1
1.11874
1
1
1.08726
1.11845
1.11434
1.11843
1.11847
1
1.11833
0.913508
1.11925
1
1.00119
0.893496
1
1
0.927262
1
1.04193
1
1.11891
1
1.11665
1.07769
0.880259
1
1
1
1
1
1.1189
1.00323
1
1.11856
1
1.11861
1.11864
1
1
0.993172
0.999959
0.883187
0.885463
0.916984
1.02578
1
0.999549
0.890954
1.00001
1
1.11838
0.980405
1.11153
1.10045
1
1
1
1
1
1.11854
1.11855
1
1.11814
1
1.11951
1.08295
0.998974
1
1
1
1.07183
1
0.988034
1
1.11827
1
1
1.11854
1
1
1
1
1
1.1188
0.87901
0.998926
1.10754
1.11861
1
1.11856
1
1
1
1
0.908254
1
1.11862
1.11853
1.11856
1.11989
0.982772
1
1.10201
1.03149
1.11962
1.12048
1.02239