/*--------------------------------*- C++ -*----------------------------------*\
  =========                 |
  \\      /  F ield         | OpenFOAM: The Open Source CFD Toolbox
   \\    /   O peration     | Website:  https://openfoam.org
    \\  /    A nd           | Version:  12
     \\/     M anipulation  |
\*---------------------------------------------------------------------------*/
FoamFile
{
    format      ascii;
    class       volScalarField;
    location    "6.825";
    object      T;
}
// * * * * * * * * * * * * * * * * * * * * * * * * * * * * * * * * * * * * * //

dimensions      [0 0 0 1 0 0 0];

internalField   nonuniform List<scalar> 
46253
(
0.981755
1.00843
1.04145
1.00829
1.04158
1.04068
0.970518
0.963784
1.00845
1.00876
0.981823
0.902365
1.00181
1.00001
0.785248
1.0072
1.0069
1.00601
1.00559
1.00557
1.00584
1.03764
0.653655
0.977919
0.972663
1.00884
1.00582
1.00562
1.00817
0.964009
0.993424
0.997865
0.994628
1.00585
1.00665
1.03514
1.00079
1.00007
0.958158
0.731969
0.972494
0.911434
1.00446
1.00378
0.910931
1.00365
1.00211
0.784909
0.998084
1.00292
1.0027
1.00319
1.03588
0.963614
1.04329
0.94379
0.99164
0.990317
1.01341
0.982945
1.03686
0.954548
1.0117
0.802572
0.79263
1.00368
1.00603
1.03332
0.946086
0.909519
0.968799
0.993264
0.996864
0.967032
1.03294
0.97775
0.993611
0.993688
0.677684
0.994034
0.994551
0.996135
1.03618
0.99269
0.968344
1.03304
0.98085
0.983025
0.948495
1.02893
0.77587
0.96827
1.0329
0.999314
0.823022
0.993835
1.03274
0.68414
1.01298
1.03195
0.771456
1.03101
1.03003
0.992183
1.04174
0.968701
0.92608
0.98061
0.974012
0.925519
0.962716
0.998119
0.999243
0.702932
0.698172
0.948479
0.893986
0.971383
1.04639
0.930816
0.728748
1.04008
0.989341
0.98819
1.02949
1.04731
1.03515
0.94318
1.04961
0.986274
0.971588
0.970059
1.03948
0.973329
0.984933
0.891367
0.989761
0.991696
0.930656
0.919728
0.993912
0.972604
0.972226
0.984613
0.991309
1.04674
0.983385
0.981038
0.956137
1.02798
0.924005
1.03505
0.98553
0.987574
0.979262
0.904616
0.94135
0.740463
0.98713
1.0416
0.985902
0.931515
0.942262
0.901082
0.971579
0.989989
0.973358
0.987555
1.07349
1.02931
0.975744
0.975895
1.03502
0.972579
1.04119
0.890709
1.02292
1.03305
0.970002
0.893501
1.04139
0.980864
0.985012
0.985676
1.02959
0.986771
0.988355
0.908926
1.02764
1.02769
1.03457
1.01057
0.955008
1.01081
1.00778
1.00527
0.962591
1.02689
0.953503
0.952304
0.71752
1.02754
0.979448
0.976071
1.03901
0.895851
0.979914
0.973252
0.977747
1.02996
0.678048
1.04623
0.971615
1.03126
1.0155
1.02784
0.98334
0.966944
0.978636
1.03468
1.03367
0.97578
0.890487
0.981304
0.985643
0.966578
1.03058
1.03008
0.947191
0.946671
1.007
0.757018
1.02019
1.02506
1.03026
0.775694
1.00037
0.721604
1.00677
1.00671
1.03063
1.02937
1.0284
1.00049
0.90656
1.03102
0.741969
0.978531
1.02653
0.972022
0.973162
1.00582
0.943128
1.02625
0.94311
0.971892
0.970631
0.949255
0.979391
1.02627
0.97373
0.974209
0.907815
0.985934
0.943541
0.820003
0.72601
0.696717
0.979814
0.967938
0.980653
1.02946
1.032
1.48439
0.967741
1.03035
1.04549
1.03278
0.963311
0.951648
0.94
0.939753
1.03099
1.03064
0.684232
0.942997
0.985278
0.932661
0.987091
1.04401
1.01265
1.01401
0.962773
0.789351
1.01301
0.999699
1.02989
1.00003
0.968612
0.966878
1.04442
0.966827
0.943574
1.04405
1.01322
0.969875
0.970274
1.03484
0.989087
1.0266
1.02846
1.00878
0.787313
0.964911
1.02642
0.964658
0.934979
1.01332
1.03634
0.963126
0.925502
1.02654
0.972383
0.972877
0.936999
0.986017
1.02821
1.028
0.962502
0.962294
0.929115
0.929044
1.01269
0.895472
1.02713
1.00658
0.946009
0.970281
0.968929
0.781142
1.03561
1.0351
0.669093
1.04538
1.03024
0.960758
0.960814
0.774718
0.945079
1.03224
0.954159
1.02779
0.891608
0.867338
0.931588
1.02935
0.967249
1.02887
0.967339
1.03296
0.924512
1.0154
1.02957
1.01607
1.022
1.02944
1.02942
1.02979
0.959009
1.03034
1.02923
1.02962
1.02944
0.95835
1.02916
1.01106
0.930148
1.02986
1.03018
1.01122
0.967711
0.977103
0.938094
0.965987
0.965439
0.965751
1.03004
0.649818
0.956334
1.05204
1.03135
0.986218
0.95643
0.996263
1.02838
0.964743
0.971637
0.970447
1.02862
0.963583
0.833634
0.984631
0.984333
1.00937
1.02952
1.0263
1.01316
1.03428
0.641333
1.02708
1.02619
1.01532
1.03789
1.02992
0.956028
1.02497
0.938145
1.02921
1.026
0.948589
1.02529
0.781411
0.955529
1.01739
0.96389
1.01794
1.02494
0.95521
0.963494
1.01111
1.01968
1.03302
0.820963
1.00401
1.0021
0.958192
0.960939
1.03037
1.00458
0.964143
0.927127
1.02817
0.983432
1.01101
0.962731
0.977744
1.00873
1.0292
0.938487
0.756613
0.952054
0.961428
0.966003
0.931355
1.33522
1.02415
0.96264
1.02572
0.961509
0.957452
1.0275
0.957533
0.957951
0.961175
1.03075
0.956704
1.0323
1.02677
1.02495
1.02967
1.02684
0.966042
0.817622
0.962705
0.945625
0.951564
0.937646
0.974909
0.952585
0.938796
0.983032
0.983097
1.03007
1.03097
1.02863
1.03397
1.05158
0.731942
0.953844
0.966231
0.905513
0.954346
0.946669
0.96739
0.956222
1.35143
1.03043
0.960213
0.95491
0.908154
0.960022
0.950403
0.948922
0.982246
0.978907
1.02936
0.982076
0.989661
1.02801
0.647347
1.03022
0.980977
1.02731
0.965458
0.949628
1.04177
1.02729
0.961543
1.02518
0.896778
0.979745
1.03328
0.965069
1.02528
1.02792
0.964772
1.02983
0.959883
0.959898
0.959392
0.779982
0.995511
1.00741
0.782885
0.957594
0.959247
1.02611
1.03034
0.957167
0.814634
0.975352
0.939656
1.02534
1.01461
0.95677
1.04177
1.01521
1.02487
1.02519
0.919893
1.02398
1.02409
0.947913
0.937853
0.948206
0.9773
1.02171
1.02184
1.02053
1.02118
1.02604
1.02625
1.03094
0.947124
0.919732
1.02495
1.0073
1.03011
1.02636
1.02724
1.00998
0.974623
0.984723
0.913916
0.984214
1.02247
1.02319
0.940993
0.81082
1.02372
1.02693
0.956312
1.02789
1.02332
0.956393
0.98038
0.995516
1.0292
0.994568
0.994629
0.994847
0.971828
1.02658
0.944203
0.943769
0.98352
0.980046
1.02628
1.00817
0.964719
1.02877
1.04351
0.998505
1.02583
1.04437
1.0265
1.02906
0.986343
0.991962
1.03046
1.02894
0.969926
0.959971
1.03058
1.02753
0.974436
1.01881
1.01922
1.01664
1.01693
1.01556
1.01614
1.01368
1.01369
0.904622
0.947274
1.01185
0.990521
1.01255
1.01049
1.03016
0.974762
0.979882
1.01056
1.02916
1.00802
1.02566
1.00863
0.833165
0.959603
1.00673
1.01743
1.00702
1.02837
1.03005
1.00438
1.00224
1.00463
0.999961
0.911931
1.01761
0.941361
0.979696
1.02226
1.02287
1.00291
1.00347
1.03053
0.961727
1.0005
1.00042
0.973559
1.02755
1.0292
0.997054
0.941939
0.997743
1.02844
0.951555
0.996289
0.91993
0.996374
0.941728
0.951053
1.02761
1.02474
1.02453
0.993286
0.993804
0.962755
1.02747
1.02772
0.992131
0.955403
0.992337
0.91723
1.02984
0.988657
0.988587
1.02536
1.02317
1.02624
0.921482
1.02323
0.959083
0.968937
0.993338
1.02796
0.985136
1.02123
0.985201
1.0213
1.03156
0.958776
0.95906
0.983325
0.983942
0.960885
0.959279
0.981036
0.959562
0.98071
1.03022
0.970818
0.976385
0.977295
1.03007
0.939374
0.976674
0.976312
1.06555
1.01751
1.01765
1.02418
0.972837
0.943157
0.973598
1.02444
0.975467
0.957246
0.913066
0.972254
0.972288
0.968918
0.967925
0.968446
0.937561
0.946948
1.02244
0.965283
1.04518
0.940398
1.02682
0.916925
0.940529
0.928315
0.977784
0.975943
1.01937
1.02285
1.01995
0.952161
1.02122
1.02384
1.0209
0.741947
1.02402
0.952231
0.687719
1.02223
1.02189
0.945153
0.94198
1.03
0.973319
0.898017
0.981357
0.780355
1.03583
1.02845
1.0268
0.731494
0.999366
1.02446
0.963017
1.02696
0.99164
1.01404
0.992351
0.928299
1.01715
0.989893
0.969762
0.994819
1.02592
0.82113
1.02991
0.675736
1.01585
0.99282
0.994153
0.997113
0.976468
0.976132
1.02937
0.947012
1.02624
1.03103
0.994568
0.965172
1.02625
0.964866
1.02613
1.02594
0.97024
0.974453
1.02982
0.994514
0.938539
0.956576
0.97175
0.956083
0.936291
0.980643
1.02578
0.957402
0.961637
1.02583
0.93624
1.02983
1.02828
0.867582
1.00053
1.00051
0.94792
1.01448
1.02921
1.02844
0.968089
1.01344
1.02462
0.954276
0.965323
0.928261
1.02671
1.02754
1.02462
1.01472
0.99054
0.991282
1.01929
1.02645
1.03281
0.946633
0.987665
0.887536
1.02668
0.98805
0.947705
0.948026
0.949249
1.03227
0.962764
0.964713
0.927492
0.957932
0.94025
0.981072
1.02984
1.02946
0.980905
0.813648
1.03128
0.960429
0.957502
1.02975
0.936726
0.939565
0.962499
0.932727
0.94602
0.936889
0.935682
0.937703
0.917415
0.917186
1.01048
1.02943
0.979006
1.0293
1.01054
0.958963
0.941798
0.940586
1.02931
1.01696
0.960479
1.02812
0.955476
0.965508
1.02531
1.0242
0.975067
1.02586
0.718297
1.02585
1.02952
0.955507
0.95879
0.980243
1.02758
1.0294
0.947243
1.0186
0.962993
0.960934
0.946016
1.02756
0.959641
0.956911
0.961059
1.03082
1.03067
1.03117
1.03011
0.958762
0.955866
0.98766
0.969521
1.0252
0.934247
0.994846
0.93697
0.980576
0.972338
1.02943
0.934071
0.93333
0.969382
1.03549
1.01922
0.940302
0.975079
0.973197
0.940949
1.02148
1.02173
0.956748
1.02348
1.02958
1.02983
0.958425
0.901363
0.97083
0.955683
1.03302
1.02325
1.02802
1.02364
1.01579
1.02411
1.05255
1.02452
0.981504
0.94249
0.925854
0.966668
1.02348
1.02874
1.02176
0.943289
0.982681
0.980766
1.02906
1.00531
1.00748
1.00944
1.00413
1.00601
0.790527
0.967522
1.00755
1.01093
1.00417
0.948799
1.00997
0.997762
1.00103
1.01127
1.01569
1.01315
1.00177
1.0135
1.0256
0.999036
1.0136
1.01419
1.01486
0.999782
1.01657
1.0162
0.996519
1.01665
1.01986
1.01749
0.996438
1.03065
0.994873
1.01827
0.863159
1.02843
0.929649
0.995534
1.02558
1.00946
1.0256
0.992762
0.994981
1.03182
1.02494
1.00406
0.992696
0.929483
1.01655
0.989105
1.02977
0.961638
0.989487
0.985943
0.986616
0.942019
0.984782
0.984754
0.981312
1.02787
0.97822
0.982068
1.03042
0.978974
0.974431
1.03068
1.02168
0.98008
0.942035
1.03048
0.976226
0.975785
0.974987
0.942875
0.975783
1.02719
0.972771
1.03024
0.963786
0.942683
0.972406
0.97474
0.963822
0.96249
0.969708
0.96536
0.963977
0.971871
0.970957
0.969272
0.968138
0.981527
1.03369
1.03085
1.02943
1.03425
1.02989
1.02464
1.03604
1.01422
0.894568
1.04628
0.977356
0.730614
0.933317
0.929025
0.98584
0.983138
1.02958
0.969838
0.995403
0.995764
0.974779
0.970478
0.99486
0.994889
0.995294
0.995491
0.960307
0.93665
0.966274
0.954211
1.02995
0.960496
0.942284
0.926161
0.96499
0.951137
1.0044
0.994179
0.901435
0.78911
0.947358
0.981373
0.965598
0.955219
0.894631
1.01815
1.02639
0.949569
0.964527
0.969121
0.993558
0.974666
0.973021
0.91492
0.941001
0.967477
0.940745
0.963292
0.967541
0.931047
0.940197
1.00926
0.961157
0.995179
0.967085
1.03112
0.994997
1.01116
0.951858
0.964933
1.02885
1.03083
1.01371
0.952099
1.02643
1.03027
1.01251
1.0195
0.967273
0.940343
0.987412
0.969277
1.01379
0.950586
0.957269
1.03006
0.973237
1.03203
0.921891
1.01597
0.921649
0.959799
0.959983
1.04348
0.996403
0.956745
1.02715
0.925444
1.01232
0.969779
0.98278
0.933078
0.9402
1.01867
1.02036
0.960214
0.928975
0.965124
0.959326
0.957532
0.957886
1.01903
0.983054
0.965112
0.954834
0.961711
0.928473
0.96955
1.02652
0.957528
0.897307
0.958938
0.938034
0.959451
0.99421
1.45729
1.02277
1.02256
0.941327
0.960695
1.0261
0.948372
0.960842
0.974976
0.978624
0.939869
0.943196
1.023
0.971907
1.00304
1.01435
1.01836
0.957042
1.00723
1.02028
1.01958
1.02387
0.955089
1.01818
0.95543
0.914575
0.960701
0.93033
1.03019
1.02346
0.929839
0.819167
1.02029
0.953911
1.01947
1.02082
1.02287
0.938272
1.01963
0.962372
0.929982
1.00336
1.02705
0.974816
1.01637
1.00961
0.958543
0.682264
1.00146
1.01652
1.01301
1.02684
0.965373
1.02681
1.02714
1.02909
0.940788
1.01358
1.02919
1.00624
1.00768
0.722436
1.02946
0.968522
1.0101
0.984065
0.978225
1.01223
0.938482
0.942412
1.01804
1.00859
1.01027
0.981739
0.984099
1.00831
0.988523
0.937234
0.981164
0.994605
1.02
1.00551
1.0197
1.03088
1.03106
1.00519
1.01118
1.02669
0.954552
0.973151
1.01298
0.953608
1.00623
0.958486
0.959671
1.01753
0.961296
1.02966
0.959056
1.0139
1.01472
1.02787
1.02568
1.00696
0.958997
1.01057
1.00989
1.01441
1.02395
1.02734
1.02834
1.00533
1.02174
1.0115
0.969946
1.02676
1.00735
1.01358
0.991593
0.949758
1.0054
1.01157
1.03097
1.00924
1.01404
1.03059
1.0223
1.01188
1.00491
0.994839
1.00442
1.01196
0.946343
0.937232
1.02703
1.00455
1.01231
1.01135
1.00693
1.02791
1.01569
1.01468
0.955579
1.01165
1.02988
1.0246
1.00438
1.0031
0.93199
1.0026
1.02954
1.0042
0.991537
1.01821
0.999862
1.02899
0.999057
0.994312
0.94063
1.00434
0.937183
0.988009
1.03015
0.999407
0.92307
0.922639
0.992148
0.99301
0.934397
0.993234
0.993642
0.969626
0.994741
0.994901
0.983968
1.00015
0.99699
0.951441
0.982343
0.994389
0.997573
0.998289
0.992631
0.983981
0.993352
1.00142
0.926846
0.993156
0.996886
0.985742
0.938384
0.958518
0.994503
0.993945
0.93618
0.993318
0.902259
0.994874
0.95207
1.03109
1.02632
0.917257
0.936566
0.956261
0.992845
0.994449
0.9797
0.986265
0.985043
1.0081
1.02792
1.01871
1.02597
1.02776
1.02838
0.978581
0.905423
1.02735
0.987747
0.99083
0.988496
1.031
0.946323
0.997955
0.994272
0.993951
1.05604
0.990433
0.97539
0.978445
1.00332
0.906224
1.00526
0.983321
0.99842
0.984822
0.986302
1.03049
0.892338
1.02233
0.937722
1.03112
1.02227
1.01348
0.986988
0.994712
0.986066
0.996016
0.958328
0.973454
0.99329
0.957946
0.937272
1.00362
1.01957
0.981784
0.978804
1.01987
1.01877
1.02344
1.02149
1.02461
1.02143
1.02452
0.945729
1.02974
0.98458
1.02266
0.948313
1.00772
1.02149
0.947851
0.975533
0.91451
1.02906
1.02241
0.984666
0.905667
1.02417
0.936789
1.04065
1.02933
1.02635
1.01401
1.02307
0.938955
0.947994
0.998375
0.99861
1.02399
1.02711
0.969566
0.956787
1.00292
1.02654
1.03435
0.990575
1.02471
0.98276
1.03217
0.978566
0.976993
0.978431
1.02217
0.972212
0.972036
1.01788
0.960521
0.974189
0.985254
0.991688
1.01358
1.01269
1.02527
1.01371
1.04304
0.971368
0.990647
1.0105
1.02037
1.01355
1.01365
1.00215
1.02405
1.02978
0.990488
0.93568
1.00892
0.935865
1.03204
1.0056
1.00684
1.02495
0.967159
1.02041
1.02494
0.967792
0.970481
0.968301
0.990462
1.02196
0.935485
1.00449
1.02548
0.947378
0.921357
0.922126
0.986378
0.99288
1.01777
0.965791
0.958242
0.927963
1.02448
0.967159
1.01655
1.02865
0.924191
0.998996
0.969301
0.9421
1.02591
1.02635
0.927609
0.92641
0.971309
1.02542
0.962377
0.978531
0.962484
0.962959
0.96303
0.983356
0.961153
1.00137
1.02681
1.00069
1.02706
0.985603
0.962181
0.985677
1.00654
1.02562
0.946995
0.991635
1.02389
0.946811
0.991684
0.932306
1.01513
0.939868
0.957928
0.962711
1.01536
1.03262
0.957047
0.925677
1.01995
0.962434
0.957327
1.00315
1.00783
1.02842
0.930299
1.02816
0.968793
0.951527
0.962844
0.935512
1.03294
1.02734
1.03134
0.946195
0.95836
1.01933
1.01591
0.983238
1.00209
0.993633
0.98589
1.01584
0.94164
0.9265
1.01765
0.993792
1.0358
0.951632
0.95341
0.812836
0.951606
1.01924
0.949709
1.01327
0.954382
0.94859
1.00888
0.945247
1.03132
1.02598
0.983969
0.969299
1.0275
1.06577
0.983034
0.999108
1.04737
0.990024
1.03139
0.94305
1.01649
0.951432
1.01546
0.979563
0.949643
1.02474
0.999088
0.98291
0.984909
1.02466
0.984134
0.945751
0.950745
0.812311
0.95725
0.983292
1.00945
1.01665
1.00796
0.961108
0.998274
1.00025
1.02758
0.985013
0.881127
1.03049
0.910246
1.02273
1.0285
0.681916
1.00331
1.02197
1.02557
0.983917
0.944737
0.926589
0.931381
1.00778
0.950494
0.945519
0.939056
1.00411
1.00907
1.00615
0.939459
0.959568
0.983882
0.939783
0.973036
0.966959
0.970211
1.00828
1.02369
1.0134
1.02309
0.93996
1.00684
1.02233
0.929823
1.02475
0.940315
0.930115
0.974574
0.942529
1.02197
1.02202
0.979512
0.977453
0.940117
0.957905
1.02268
1.01967
0.957594
1.03662
0.931309
1.02854
1.01883
1.01056
0.93703
0.936618
1.01523
0.952957
0.917705
0.986468
0.931504
1.02842
0.917455
0.930509
0.908058
0.970559
0.99179
0.994544
1.03295
0.971627
0.954557
0.972226
0.954922
0.971792
0.972071
0.975223
0.931932
0.975551
1.02923
0.999156
1.02306
1.00336
0.955232
0.951441
0.958784
0.953931
1.01523
0.961129
1.02248
1.03074
0.956699
0.966084
0.89805
0.892928
0.927322
0.897623
1.00366
1.01322
0.966662
0.920122
1.00526
0.985919
1.02313
0.941249
1.02729
0.966567
1.02295
0.919648
1.02235
0.929014
0.949268
0.6627
1.02988
0.948053
0.967844
1.01648
1.01795
1.02029
0.967222
1.01921
0.961061
0.896861
0.937159
0.940271
0.962779
0.96188
0.985984
1.03153
0.93739
0.940429
1.03193
0.930014
0.999895
0.985914
0.956465
0.95197
1.03208
1.02462
0.995227
0.989017
1.01052
0.938975
0.938649
1.02141
0.940654
1.00884
1.01555
0.953911
1.31095
1.29748
1.0282
0.957169
0.980326
0.956413
1.02191
0.997932
1.04905
0.945579
0.999684
0.943272
1.00792
0.998314
1.00271
1.0119
1.01459
0.934051
0.986612
0.984792
0.944486
1.00507
1.00651
1.00453
0.941895
0.948607
0.910283
0.946095
0.93621
0.91663
1.01765
0.996328
1.00739
0.94802
1.03224
1.00517
1.00922
0.971243
1.00732
0.933088
1.01364
1.0298
1.03002
1.01799
1.01627
1.03024
1.00325
1.00087
1.01075
1.00481
1.00005
1.03112
0.979794
1.01752
1.01932
0.971439
0.93849
0.992198
1.01803
1.01898
0.983981
0.918961
0.946806
1.01605
1.00078
0.996421
0.972842
0.982296
1.03923
1.02908
1.01519
1.02756
1.01722
0.962693
0.942529
0.99662
1.03331
0.964874
0.945452
0.942169
0.983894
0.946812
0.964096
0.989839
0.927144
0.992564
0.96161
0.997085
0.962026
1.02165
1.01918
0.923639
0.990632
1.02699
1.02083
1.02003
0.933727
0.948804
0.966514
0.974486
0.989766
1.02289
0.938751
1.02721
0.978951
1.0648
1.02974
0.964185
0.939872
0.949322
0.948139
0.988242
0.963525
0.991901
0.94606
1.02764
0.965601
0.965515
0.93744
0.987488
1.01406
0.976823
0.998393
1.02794
0.982407
0.987236
0.965775
0.979462
1.0239
0.963014
0.942629
1.00647
1.03014
0.963283
1.04225
1.0255
0.989552
0.959942
0.938552
0.985832
0.990448
0.965166
0.976014
0.977306
0.976992
0.928012
1.00865
0.931188
0.932855
0.978224
0.972664
1.0097
0.929847
0.983947
0.95779
0.963057
0.98262
0.958842
0.930699
0.895528
1.03848
1.00766
0.926728
0.970037
1.02841
1.00708
1.02229
1.06766
1.00282
0.976093
1.02844
1.00608
0.970805
1.00395
0.962796
1.04794
1.00668
1.02555
0.901137
0.988993
1.01786
0.982015
0.994033
1.0384
0.964289
1.02756
0.977155
0.985037
0.990391
0.938213
0.985868
1.00429
0.980833
0.966474
1.00445
0.974249
0.972216
0.986881
1.03013
0.978124
0.970968
1.00463
0.965919
0.89435
0.969605
1.01475
0.97311
1.02055
0.970896
1.02334
0.967196
1.00281
0.969313
0.970146
0.976593
1.04103
0.976625
1.02224
1.02881
1.00288
0.963502
0.980389
0.970492
0.998689
0.967196
0.988337
1.00232
1.01935
1.02315
0.99876
0.961911
0.952932
1.0028
0.98314
1.01941
0.987412
0.996533
0.951555
0.96405
1.02055
0.981756
1.02692
1.01956
0.965081
0.961802
0.966029
0.997402
1.02051
1.0041
0.977835
0.997474
0.958312
1.02017
1.03032
1.03036
0.968563
1.02719
1.02767
0.962867
0.937307
0.988752
0.958243
0.999642
1.0179
1.01695
1.02022
0.973932
1.01715
0.950192
1.01908
0.948869
0.95948
1.06959
0.912358
0.957212
0.938489
0.995369
0.920705
0.949906
0.99297
0.89233
0.95539
0.99912
0.99377
1.01813
0.973329
0.951538
1.02358
0.99966
0.984748
1.02186
0.989044
0.738607
0.990497
0.952188
0.954907
0.985843
0.984594
0.998738
0.906834
1.02003
1.00356
0.992215
1.02926
1.0106
0.998394
1.00287
1.01363
0.949323
1.02064
0.990342
0.946928
0.973522
0.9791
0.994306
0.983126
0.98572
0.989572
1.04513
1.00391
0.995489
0.9455
1.00601
0.955733
0.95107
0.967886
1.0296
0.990594
0.968184
0.928159
0.955561
0.979349
0.972856
0.971517
0.983113
0.893508
0.981752
0.976163
0.939301
0.790606
0.99283
0.989959
0.954795
0.988311
0.959572
0.994713
1.02779
0.945815
0.940373
1.01933
1.02838
1.01255
1.01865
0.993984
1.00674
0.940373
1.00515
0.954743
1.03114
0.944242
0.927128
0.994948
0.937401
0.942446
0.978256
0.982953
0.987129
0.948892
1.02001
1.01311
0.965891
0.997782
0.829659
1.01216
0.927312
0.99205
0.939321
0.985956
0.945701
0.990707
1.02427
0.998058
0.976332
0.999151
0.994473
0.999804
0.945512
1.01352
0.937218
0.948878
1.02395
0.987535
0.962111
0.99769
1.02323
0.999146
0.938807
0.945923
1.05404
1.01054
1.03432
0.997541
0.99911
1.00444
0.988976
0.990685
0.996761
0.976889
1.00904
1.01993
0.986926
0.936202
0.951642
0.927922
1.01791
1.0122
0.988746
1.02836
1.00418
0.888457
0.933978
1.00139
1.0034
0.988684
0.900949
0.990574
0.998673
0.886366
0.932706
0.926967
0.890285
1.01212
0.930903
1.0659
0.927123
1.02774
0.962603
1.01358
0.949518
0.937905
0.985208
1.00366
1.02278
0.947387
0.951025
1.04628
0.950925
0.942436
0.975429
0.902389
1.00444
0.984702
0.985581
0.940191
0.98568
0.946085
0.987435
0.994113
1.01768
1.00424
0.985613
0.998559
0.98597
0.931483
0.954535
0.998349
0.952738
0.978643
1.03121
0.950616
1.03261
0.951473
0.977153
1.02208
1.02282
0.955727
1.0031
1.03009
0.925146
1.01732
1.02267
0.953528
1.01953
0.92745
0.901348
0.991223
0.938727
0.975184
0.940049
0.940902
0.978649
0.940867
0.967331
0.967897
1.01803
0.96752
1.02959
0.978102
1.04051
1.00482
0.967493
0.985638
1.00465
0.975682
1.00476
1.01726
0.99044
0.900156
0.973201
1.00166
1.00682
0.958967
0.969355
0.97581
0.966924
0.988999
0.998991
0.986936
1.0281
0.93953
1.02374
0.984816
0.908485
1.01967
0.972501
1.00304
0.987958
1.03236
0.930704
0.971462
1.00061
0.957291
1.02432
0.945195
0.944819
0.992591
1.00526
1.02447
0.97077
1.01631
1.02837
1.00425
1.012
0.993109
0.971794
0.968537
0.923195
1.00804
1.01474
1.02909
1.00672
0.967665
1.00939
1.07692
1.00894
0.967982
1.02804
0.947849
0.980547
0.995276
0.966403
0.927374
0.979202
0.978091
1.01227
0.966823
1.00421
0.99032
1.02793
1.02173
1.02886
0.919639
0.964297
1.00307
0.936013
0.970423
1.00942
0.986028
0.961162
0.980869
0.957178
0.964762
1.01361
0.936068
0.970044
1.00325
0.938464
0.960498
1.02127
0.962006
0.965494
0.991867
1.00431
0.992321
0.990961
1.00932
0.937437
1.01366
1.01254
1.02473
0.9532
0.999002
0.961737
1.02409
1.0215
0.941842
1.01939
1.01103
0.971611
0.962409
1.02882
1.02384
0.968707
0.966798
0.940746
0.987533
0.9438
0.974655
0.960631
1.04509
0.92406
1.00996
1.02811
0.952362
0.925676
0.944214
0.985729
0.960236
1.02865
0.990715
0.901297
0.961521
1.01455
0.971553
0.993497
1.01498
0.962539
1.01719
0.975423
0.947488
1.0465
1.05189
0.976931
1.02207
0.958285
1.02301
1.04591
1.00472
1.02514
1.01807
1.0155
0.944924
0.959582
1.00188
0.928262
0.949485
0.973856
0.981493
0.92694
1.02146
1.03172
1.02527
0.911517
0.950234
0.954413
0.954815
0.943797
1.01126
1.029
1.01531
0.9886
1.02863
1.01161
0.952482
0.944479
1.00012
1.01559
0.950016
0.950284
0.954045
0.954055
0.991772
0.915426
1.02453
0.950913
0.956425
0.951229
0.917706
1.02031
0.954923
0.968958
1.02777
0.964749
1.02585
1.01596
1.02413
0.924021
0.961086
0.983745
0.94822
1.02275
0.928791
1.0387
1.02752
0.947421
1.02473
1.03531
1.07642
0.957712
1.03102
0.981383
0.95387
0.955984
1.01146
1.0246
1.02695
1.02872
0.958867
1.01332
0.987121
0.946222
1.01113
1.01048
0.949095
1.01938
0.959095
1.02068
1.01053
1.02429
0.960198
0.946595
0.945314
1.00748
0.986746
0.959564
0.993829
1.0277
1.02795
0.957995
0.988988
1.00728
0.943683
0.963272
1.01067
1.00831
1.02702
1.01575
1.02529
0.942496
0.999939
0.959954
0.962193
1.00507
0.998487
0.968979
1.00768
0.94291
0.903771
1.01713
0.93536
0.990944
1.02531
1.01285
0.998862
1.00215
1.02896
1.00349
1.00739
0.959114
0.961517
0.960561
0.964397
1.01955
0.998463
1.01208
1.0053
0.938098
0.999209
1.00313
0.963105
0.965114
1.02785
0.961778
1.02288
0.973902
0.998642
0.960078
1.0293
0.941588
1.00381
1.0276
0.982725
0.909854
0.998751
1.01925
1.02805
0.97379
1.02805
0.948654
0.942553
0.970648
0.913315
1.0028
1.04219
1.02832
1.01376
0.952883
1.03498
0.912067
1.00204
1.00318
0.970061
0.963975
0.965498
0.982589
1.0005
0.966132
0.963921
1.02793
1.00123
0.9444
0.968486
1.0046
0.997658
0.970888
0.996979
1.00225
1.00877
0.970095
1.02377
0.945563
0.975157
0.99353
1.04658
0.968133
0.948024
0.940822
1.00364
0.99384
1.01041
0.974293
0.965938
1.03644
1.02874
0.947604
0.935682
0.992223
0.947129
0.942387
1.02934
0.955604
1.0192
1.02761
1.01505
0.97605
0.996829
0.94371
1.02177
1.02743
0.941671
1.04615
1.03257
0.99076
1.01926
0.975645
0.954272
1.02697
1.03955
1.01916
0.975442
1.01801
0.960934
1.02267
1.02752
0.989869
0.974707
0.975408
1.00206
0.9141
1.03186
0.975884
0.968769
1.04791
0.982082
0.969614
0.998577
0.979791
0.95296
0.938819
1.00792
0.991184
0.993528
0.975132
0.981466
0.978076
1.01755
0.950719
0.995529
0.94141
1.03241
1.00122
1.02176
1.02166
0.945899
0.979911
0.981815
0.995905
0.931844
0.938965
1.03279
0.97755
0.990339
0.928515
0.961446
0.954271
0.98979
0.975632
0.936649
1.02624
0.94613
0.98222
1.01979
1.0275
1.02711
0.979339
0.938687
0.98474
0.94658
0.9662
1.02901
0.98072
0.985228
0.97251
0.985395
0.94241
1.0274
1.02213
1.01934
0.979738
0.977773
0.942226
0.972178
1.01932
1.02781
0.945886
0.984944
0.93413
0.982297
0.982151
0.926688
0.927483
0.926448
1.03124
0.979873
0.92783
0.976757
1.01843
0.969148
0.984588
1.02124
1.02812
0.984752
1.02928
1.00927
1.01538
0.946582
1.01179
0.974041
1.0239
0.957852
0.972797
0.97828
1.0051
1.02822
1.01506
0.934106
0.984227
0.980473
0.986092
1.02722
0.983563
0.983861
0.977817
0.931128
0.951866
1.02736
1.01569
0.977777
1.02991
1.01925
1.00318
0.942697
0.971833
1.00972
0.95822
0.974008
0.971298
0.943537
1.00495
1.01238
0.960348
0.988352
1.0004
1.01756
1.05288
0.977614
0.978264
0.972601
0.999765
1.00534
1.01836
0.989606
1.01628
1.02895
0.979785
0.989086
1.02847
0.988098
0.971849
0.977188
0.968572
1.03062
0.98898
0.935156
1.02212
1.0301
0.972709
0.967302
0.981962
1.02885
1.01895
0.961109
1.02684
0.969508
0.989334
0.965305
1.02808
1.02649
0.980949
0.96739
1.02705
0.988996
1.02846
0.96322
0.98826
0.94035
1.02676
0.965815
1.02643
0.960472
1.01623
1.02236
0.979321
0.992532
0.963708
0.9603
1.0212
1.02322
1.0183
0.983815
0.991904
0.957616
0.960926
1.02149
0.955579
0.991573
0.960218
0.939346
1.00149
1.02346
1.02289
0.944139
1.04266
0.939543
1.02425
0.983091
1.00248
1.01488
0.960625
0.950236
0.986738
0.950864
0.99329
1.02615
0.957013
0.991394
0.990565
0.953918
0.956748
0.985632
0.981088
1.00378
0.964467
0.98652
1.02475
1.02885
0.992991
0.940252
0.948436
1.01347
0.983632
0.969217
0.925008
0.88199
1.01856
0.956751
0.994901
0.972332
0.98587
1.00014
1.01976
0.980019
0.95191
0.984729
0.99567
0.950565
1.01148
1.02948
0.994158
0.944776
0.969407
1.02762
1.05671
1.02562
1.00196
0.995746
0.99509
0.728303
0.953079
1.00944
0.986535
1.0191
0.954658
0.985017
0.994652
0.943601
1.03004
0.944951
0.986895
0.933699
0.985239
1.00698
1.02376
0.989132
1.0255
0.99736
0.974307
1.03442
1.01684
1.03323
0.942011
0.975594
0.9451
1.00649
0.988197
0.994437
0.996907
1.02513
1.02005
0.972808
1.03376
1.02233
0.942288
0.936513
0.942316
0.990189
1.02535
0.934934
1.01986
0.999111
0.961875
1.01198
1.01607
1.00776
0.979979
0.986608
0.973959
0.902347
1.01138
1.02757
0.964887
0.967741
0.992002
0.954693
1.01727
0.986667
0.998262
0.987913
0.998992
1.02772
0.991315
1.02215
0.998213
1.02868
1.02504
0.966751
1.02535
0.997932
0.969031
1.02781
1.03775
0.994255
0.98818
1.04068
1.01892
0.96228
1.02471
1.04911
1.00062
1.02647
0.99804
1.02217
1.01915
0.975133
0.993929
0.931386
0.990776
0.996701
0.938941
1.01346
1.0406
1.00691
1.0518
0.998102
0.948293
1.07036
1.00146
0.946719
1.02546
1.02764
0.904246
1.02345
1.02773
1.02095
1.00315
0.995639
1.04107
1.00196
0.914766
1.00286
0.962829
0.969828
0.948339
0.934153
0.934327
0.983991
0.994796
0.944897
0.999151
0.952529
1.02158
1.01651
1.00091
0.968448
1.0194
1.02201
0.941712
1.02981
1.003
0.978424
1.01138
1.03062
0.997543
1.00137
0.980982
1.00163
0.962535
1.01885
1.00264
0.97843
1.02287
0.899259
0.997443
0.981347
0.984316
1.00643
0.979292
1.0246
0.918395
0.929059
0.984195
0.900493
1.00252
1.00428
1.02407
0.968974
1.00873
1.00858
0.925989
1.01479
1.01148
1.00484
0.990944
1.06618
0.938878
0.949471
0.999936
0.991114
0.903716
1.0205
1.00585
0.912612
1.00863
0.9922
0.972962
1.00509
1.01616
1.01465
1.01823
1.02351
0.984196
0.99892
1.00649
0.990009
1.00614
1.0059
0.942497
1.01246
0.977801
1.01489
0.972078
0.985281
0.911487
1.01813
1.02771
0.90387
1.02748
0.974232
0.941389
0.926876
0.951194
0.951115
0.959622
1.00058
1.03605
0.998847
1.02185
1.03618
1.00971
1.00081
0.951312
1.00905
0.964715
0.972922
1.01271
1.02795
0.972532
0.934853
1.01822
1.0269
0.91671
1.00095
0.97471
0.94903
0.986299
0.940415
1.00658
0.943592
1.02144
0.997243
0.983844
0.921402
1.00992
0.982864
0.975002
0.93615
0.936397
0.976588
1.02083
1.04147
0.976898
1.00866
0.917474
1.02128
1.02341
0.974005
0.968059
1.02336
0.981308
0.995786
0.939242
0.973839
0.924256
0.983156
0.976813
1.0036
1.00218
1.02137
0.985127
0.945963
0.947532
0.93974
0.983895
1.02691
0.985074
0.931194
0.942474
0.898298
0.94855
0.920581
1.02249
0.996574
0.981732
0.983248
1.00259
0.935255
1.02227
1.02371
1.02222
0.981958
1.00508
0.980788
0.986834
0.982678
0.939173
1.05174
1.02318
0.947475
0.946732
1.00494
1.02328
0.942974
0.949086
1.02046
1.02004
0.933803
0.990621
1.03746
0.942241
0.927879
0.982529
1.00084
1.00623
0.996518
0.980992
1.00632
1.01986
0.94255
0.94899
0.901609
0.948104
0.98231
1.01581
0.877584
0.952945
1.0077
0.987973
1.02829
0.961494
1.02494
1.00613
0.989175
0.907444
1.00759
0.945936
1.0045
0.985706
1.02151
1.00086
0.992771
1.01869
0.983566
0.881132
0.952791
0.985844
0.986069
1.03733
1.02166
1.00437
0.979216
0.985388
0.914269
1.00113
1.01547
0.986039
0.960884
0.959615
0.925898
0.950899
1.01357
0.905938
0.988985
0.935419
1.01142
1.00256
0.919561
1.01701
0.985946
1.05305
0.986942
0.98583
1.00222
0.946167
0.979529
1.03644
0.986275
1.01051
0.955383
0.965207
1.00006
0.963995
0.938119
1.02644
0.921287
0.968456
1.01871
0.979254
1.02635
0.94871
0.937696
1.01318
0.986829
0.983974
1.02793
0.967716
1.02711
0.958997
1.00028
0.964299
0.990911
1.01482
0.904878
1.02935
0.965265
1.03208
0.972289
1.01866
0.980112
1.00556
0.984852
0.988932
0.938149
1.03694
0.959921
0.938401
0.79337
1.01543
0.960522
1.00819
0.941631
0.990457
0.981787
0.974304
1.0117
0.919163
1.00726
0.993597
1.01073
0.989455
1.00572
0.964412
0.98146
0.963042
1.00905
0.97015
1.02599
0.96113
1.02685
1.00717
0.98596
0.942119
1.04399
0.989917
0.989823
1.00556
1.0116
1.00148
1.03055
1.00343
0.98131
0.916838
0.970652
0.925358
0.982339
1.01465
1.01802
1.02952
0.992233
0.965018
0.998881
1.01729
1.00537
0.996318
0.940431
1.00199
0.981795
1.01464
0.978035
0.936357
1.00615
1.01478
0.921706
0.916683
0.90945
0.984655
0.975766
1.01436
1.01264
0.911223
1.07529
0.999337
0.951155
0.996692
1.01363
0.967421
0.913722
1.01884
1.0009
1.00587
1.01463
0.97026
0.947534
1.01833
0.982418
1.02953
0.975379
1.0151
0.99236
0.963881
1.02594
0.999211
0.991287
0.995356
0.977383
0.962391
0.979063
0.981635
1.01032
0.961157
0.983294
0.98032
1.03854
0.984274
0.979751
0.987109
1.02007
0.986437
0.975841
0.97231
1.01199
0.989923
0.980405
0.977567
1.0099
0.951617
0.991561
0.919205
0.985597
0.977206
1.01361
0.984246
0.98806
1.02725
0.993008
0.951452