/*--------------------------------*- C++ -*----------------------------------*\
  =========                 |
  \\      /  F ield         | OpenFOAM: The Open Source CFD Toolbox
   \\    /   O peration     | Website:  https://openfoam.org
    \\  /    A nd           | Version:  12
     \\/     M anipulation  |
\*---------------------------------------------------------------------------*/
FoamFile
{
    format      ascii;
    class       volScalarField;
    location    "14.3";
    object      T;
}
// * * * * * * * * * * * * * * * * * * * * * * * * * * * * * * * * * * * * * //

dimensions      [0 0 0 1 0 0 0];

internalField   nonuniform List<scalar> 
9801
(
0.830896
0.831755
0.832742
0.834832
0.838602
0.841875
0.843824
0.845257
0.846496
0.847579
0.848263
0.847605
0.847815
0.848705
0.850004
0.852487
0.856737
0.859984
0.861882
0.863301
0.864548
0.8656
0.865368
0.864523
0.865026
0.866097
0.867673
0.871099
0.875617
0.878406
0.880117
0.88148
0.88266
0.883041
0.881534
0.881427
0.882401
0.883753
0.886104
0.891027
0.895158
0.897453
0.899033
0.900391
0.901128
0.899517
0.898474
0.899201
0.900587
0.902581
0.907248
0.912607
0.915659
0.917538
0.918962
0.919938
0.918196
0.915935
0.916397
0.917942
0.920235
0.925215
0.93181
0.935742
0.937867
0.939442
0.940767
0.93848
0.934805
0.934917
0.936646
0.939544
0.946403
0.954405
0.958945
0.961504
0.963509
0.964895
0.961117
0.955851
0.956025
0.958716
0.963858
0.974935
0.984595
0.989874
0.993294
0.996385
0.996817
0.988769
0.982765
0.984928
0.99076
1.00665
1.029
1.04682
1.05585
1.15598
1.56318
0.834607
0.835573
0.836431
0.83829
0.842346
0.845879
0.847888
0.849293
0.850439
0.85142
0.851911
0.851341
0.851512
0.852337
0.853463
0.855814
0.860363
0.863774
0.865692
0.867061
0.868193
0.869094
0.868794
0.867984
0.868428
0.86941
0.870769
0.874174
0.878973
0.881902
0.883641
0.88496
0.886076
0.886405
0.885008
0.884794
0.885631
0.886814
0.888941
0.893948
0.898294
0.900669
0.902255
0.903548
0.90431
0.902856
0.901737
0.902318
0.903519
0.905204
0.909683
0.91528
0.918515
0.920477
0.92195
0.923036
0.921589
0.919292
0.919594
0.920914
0.9228
0.927472
0.93422
0.938305
0.940597
0.942316
0.943759
0.941982
0.938403
0.938224
0.93979
0.942176
0.948115
0.956357
0.961455
0.964437
0.966748
0.968629
0.965635
0.960211
0.959932
0.962349
0.966184
0.975662
0.985979
0.992181
0.996285
0.999975
1.00195
0.996073
0.98994
0.990952
0.996654
1.00721
1.0245
1.04101
1.05086
1.15639
1.58522
0.838871
0.839862
0.840688
0.842387
0.846525
0.850262
0.852291
0.85368
0.854814
0.855801
0.856297
0.855754
0.855929
0.856768
0.857871
0.86008
0.864728
0.868249
0.870162
0.871511
0.872627
0.873524
0.873201
0.8724
0.872854
0.873855
0.875148
0.878376
0.883329
0.886397
0.888178
0.88952
0.890687
0.891149
0.889758
0.889413
0.890223
0.891414
0.893382
0.898242
0.902762
0.905226
0.906857
0.908206
0.909191
0.908028
0.906658
0.907106
0.90828
0.909841
0.913908
0.919731
0.923245
0.925327
0.926924
0.928298
0.927433
0.925038
0.925008
0.926245
0.927941
0.931627
0.938577
0.943363
0.945965
0.947925
0.949679
0.948876
0.945422
0.94473
0.946117
0.948309
0.95266
0.961625
0.968099
0.971468
0.973951
0.976132
0.974716
0.969411
0.968123
0.970315
0.973756
0.981062
0.993451
1.00204
1.00689
1.01086
1.01378
1.01029
1.00481
1.00465
1.01003
1.01816
1.03374
1.05221
1.06359
1.17595
1.6092
0.844461
0.845517
0.846367
0.847966
0.852081
0.856096
0.858227
0.859643
0.860809
0.861847
0.862287
0.861726
0.861922
0.86279
0.863919
0.865982
0.870619
0.874323
0.876298
0.877681
0.878851
0.879809
0.879457
0.878671
0.879143
0.880189
0.881484
0.884442
0.889575
0.892918
0.894782
0.896172
0.897406
0.897947
0.896526
0.896056
0.896895
0.898162
0.899981
0.904575
0.90955
0.91228
0.914006
0.91544
0.916615
0.915645
0.913874
0.91419
0.915475
0.917095
0.920676
0.927003
0.931145
0.933378
0.935055
0.936581
0.936232
0.93339
0.932884
0.934232
0.936123
0.939163
0.946356
0.9523
0.955248
0.957356
0.959302
0.959436
0.955774
0.954084
0.955456
0.957885
0.961259
0.969613
0.9778
0.982054
0.984912
0.987571
0.988225
0.9833
0.979882
0.981548
0.985206
0.990302
1.00131
1.01251
1.01918
1.02381
1.0282
1.02798
1.023
1.02054
1.02377
1.03098
1.04207
1.05845
1.06837
1.19681
1.63084
0.850801
0.851933
0.852806
0.854334
0.858286
0.862579
0.86487
0.866349
0.867576
0.868671
0.869106
0.868589
0.868781
0.869645
0.870773
0.872592
0.877094
0.881164
0.883293
0.884736
0.885973
0.887005
0.886737
0.885951
0.886366
0.887399
0.888673
0.891196
0.896479
0.900338
0.902352
0.903797
0.905085
0.905751
0.904536
0.903919
0.904651
0.905892
0.907483
0.911525
0.9172
0.920433
0.922276
0.923767
0.92503
0.924374
0.922481
0.922604
0.923871
0.925509
0.928401
0.934809
0.939809
0.942353
0.944149
0.945778
0.946071
0.943241
0.942061
0.94325
0.945169
0.947716
0.954124
0.961297
0.965036
0.967411
0.96956
0.970857
0.967924
0.964512
0.964949
0.967331
0.97032
0.976929
0.986817
0.99289
0.996251
0.99914
1.00129
0.998233
0.992654
0.991707
0.995003
0.99939
1.0074
1.01986
1.02917
1.03517
1.04008
1.04305
1.03967
1.03561
1.03467
1.03861
1.04661
1.05977
1.06816
1.20883
1.64348
0.857436
0.858633
0.859528
0.860969
0.864702
0.869336
0.87186
0.873387
0.874625
0.87573
0.876247
0.875775
0.875895
0.87673
0.877855
0.879414
0.883603
0.888204
0.890612
0.892126
0.893395
0.894486
0.894412
0.893553
0.893842
0.894848
0.896117
0.898161
0.903296
0.90781
0.910096
0.911626
0.912954
0.913785
0.91277
0.911829
0.912411
0.913644
0.91517
0.918542
0.92458
0.928425
0.930495
0.93208
0.933473
0.933353
0.931085
0.930616
0.931785
0.933445
0.935901
0.941885
0.947772
0.950819
0.952824
0.954599
0.955717
0.953453
0.95077
0.951121
0.952926
0.955247
0.960493
0.968713
0.973724
0.976387
0.978584
0.980526
0.979363
0.974633
0.973062
0.97493
0.97776
0.982361
0.992045
1.00055
1.00517
1.00818
1.01084
1.0102
1.00432
1.001
1.00218
1.00592
1.01105
1.02107
1.03215
1.03957
1.04504
1.05008
1.05123
1.04734
1.04348
1.0432
1.04623
1.0558
1.06487
1.21648
1.65071
0.863737
0.864919
0.865816
0.867147
0.870447
0.875317
0.878177
0.879846
0.881139
0.882291
0.883
0.882428
0.882276
0.883031
0.884157
0.885596
0.889308
0.894259
0.897045
0.898714
0.90005
0.901249
0.901502
0.900314
0.900282
0.901247
0.902564
0.904462
0.909182
0.914034
0.916627
0.918314
0.919727
0.920897
0.920289
0.918515
0.918638
0.919864
0.921482
0.924577
0.930563
0.934913
0.937231
0.93895
0.940493
0.941303
0.939168
0.937301
0.937857
0.939416
0.941561
0.946778
0.953597
0.957413
0.959599
0.961407
0.963014
0.962177
0.958538
0.957406
0.958718
0.9608
0.964463
0.972558
0.979459
0.9829
0.985097
0.987114
0.987546
0.983218
0.979954
0.980488
0.982938
0.986043
0.992918
1.00341
1.01007
1.01382
1.01671
1.01862
1.01521
1.00954
1.00777
1.00959
1.01338
1.01968
1.03056
1.04018
1.04696
1.05216
1.05643
1.05579
1.05176
1.04723
1.0461
1.05025
1.05903
1.22008
1.65514
0.869152
0.870256
0.871176
0.872521
0.875568
0.880428
0.883463
0.8852
0.886537
0.887728
0.888625
0.888138
0.887562
0.888167
0.889299
0.890765
0.894195
0.899255
0.902308
0.904073
0.90546
0.906715
0.907421
0.906268
0.905535
0.906261
0.907539
0.909383
0.913825
0.918932
0.921759
0.923513
0.924965
0.926297
0.926529
0.924453
0.923655
0.924597
0.926089
0.928723
0.934602
0.939725
0.942323
0.944054
0.945596
0.946928
0.945863
0.943002
0.942554
0.943806
0.945613
0.949488
0.956907
0.962108
0.964641
0.966424
0.968083
0.968526
0.965013
0.962516
0.962952
0.964761
0.967186
0.973272
0.982042
0.987045
0.989695
0.991736
0.993267
0.990876
0.98614
0.984718
0.98607
0.988596
0.992265
1.00153
1.01138
1.01679
1.02032
1.02331
1.02418
1.01838
1.01306
1.01254
1.01494
1.01889
1.02628
1.03689
1.04523
1.05127
1.0562
1.05929
1.05834
1.05378
1.04779
1.04659
1.04982
1.22071
1.65745
0.873739
0.874592
0.875463
0.87673
0.879524
0.884468
0.887744
0.889569
0.890933
0.892113
0.893142
0.892928
0.891954
0.892239
0.893247
0.89457
0.89762
0.902914
0.906372
0.908279
0.909719
0.910994
0.912023
0.911263
0.909957
0.910256
0.911349
0.912835
0.916617
0.922275
0.925635
0.927508
0.928975
0.930316
0.931091
0.929312
0.927884
0.928327
0.929599
0.931408
0.936346
0.94267
0.9461
0.947957
0.949454
0.95084
0.950673
0.947621
0.946323
0.947082
0.94867
0.951068
0.957642
0.964627
0.968095
0.970033
0.971662
0.972769
0.970485
0.96682
0.966263
0.967567
0.969521
0.972784
0.981298
0.989044
0.99289
0.995259
0.997248
0.997417
0.992543
0.98845
0.988019
0.989723
0.992385
0.997722
1.00888
1.01783
1.02257
1.02566
1.02822
1.0272
1.02067
1.01643
1.01652
1.01902
1.02333
1.03167
1.0415
1.04873
1.05413
1.05882
1.0607
1.05936
1.05386
1.04682
1.04165
1.21804
1.65884
0.877643
0.878222
0.879032
0.880193
0.882479
0.88745
0.891174
0.893113
0.894503
0.895699
0.89678
0.896883
0.895645
0.895615
0.896462
0.897641
0.89996
0.905285
0.909483
0.911624
0.913115
0.914406
0.915555
0.915314
0.913581
0.913457
0.914336
0.915601
0.918221
0.924113
0.928512
0.930664
0.932161
0.933506
0.934594
0.933449
0.931301
0.931283
0.932329
0.933784
0.936987
0.943825
0.94859
0.950895
0.952453
0.953837
0.954464
0.951827
0.949465
0.949709
0.951046
0.95276
0.956867
0.964952
0.970132
0.972641
0.974359
0.975913
0.975567
0.971407
0.969149
0.969473
0.971091
0.973184
0.978575
0.988549
0.994821
0.997937
1.00014
1.00192
0.999728
0.993201
0.990435
0.991126
0.993374
0.996171
1.00298
1.01464
1.02241
1.02647
1.02951
1.03202
1.03031
1.02329
1.01934
1.01987
1.02273
1.02766
1.03653
1.04524
1.05146
1.05652
1.06072
1.06149
1.05902
1.05101
1.03968
1.21173
1.65975
0.880858
0.881156
0.881883
0.882973
0.884711
0.889362
0.89376
0.895929
0.897328
0.898518
0.899607
0.900031
0.898753
0.898331
0.899037
0.900144
0.901814
0.906581
0.911716
0.914254
0.915777
0.91705
0.918212
0.918532
0.916716
0.915975
0.916645
0.917812
0.919542
0.924613
0.930257
0.933061
0.934662
0.936005
0.937222
0.936978
0.934439
0.933706
0.934503
0.935804
0.937681
0.943363
0.949821
0.952986
0.95472
0.956148
0.957333
0.956058
0.952735
0.952007
0.952884
0.954356
0.956492
0.963198
0.970931
0.974641
0.976684
0.978354
0.979507
0.976702
0.972133
0.97111
0.972212
0.974113
0.976776
0.984801
0.994547
0.999279
1.00177
1.00375
1.00517
1.00143
0.995303
0.9935
0.994243
0.996361
0.999572
1.00795
1.01944
1.02655
1.03048
1.03347
1.03516
1.03233
1.02586
1.02252
1.02319
1.02625
1.03177
1.04101
1.04886
1.05421
1.05868
1.06139
1.06149
1.05607
1.04346
1.20506
1.66072
0.883599
0.883551
0.884117
0.88513
0.886458
0.890306
0.895465
0.898148
0.899643
0.900848
0.901936
0.902642
0.901536
0.900578
0.901087
0.902132
0.903462
0.907076
0.912944
0.916261
0.917942
0.919227
0.920393
0.921162
0.919713
0.918182
0.918536
0.919579
0.92092
0.924348
0.930877
0.934869
0.936789
0.938174
0.939449
0.940086
0.937891
0.936023
0.936312
0.937386
0.938811
0.942227
0.949668
0.954482
0.956725
0.958242
0.959651
0.960046
0.956714
0.954208
0.954342
0.955527
0.957177
0.960851
0.969638
0.975957
0.978816
0.980641
0.982218
0.982141
0.977172
0.973709
0.973655
0.974967
0.976907
0.980563
0.990447
0.999159
1.00313
1.00581
1.00811
1.00883
1.00302
0.996996
0.995841
0.997166
0.99961
1.0032
1.01226
1.02312
1.02952
1.03323
1.03618
1.03792
1.03516
1.02871
1.02539
1.02607
1.02919
1.03528
1.0445
1.05152
1.05645
1.06025
1.06179
1.05973
1.05023
1.20034
1.66181
0.88611
0.88567
0.885983
0.886917
0.888057
0.890814
0.8964
0.899961
0.901664
0.902885
0.903967
0.90486
0.904224
0.902765
0.902948
0.903899
0.905091
0.907406
0.913226
0.91774
0.919822
0.921174
0.92236
0.923389
0.922736
0.920561
0.920304
0.921143
0.92234
0.924313
0.930297
0.936041
0.938683
0.94021
0.941517
0.942653
0.941677
0.938695
0.937973
0.938707
0.939997
0.941872
0.94794
0.955111
0.958474
0.960263
0.961699
0.962923
0.961384
0.957213
0.956002
0.956816
0.958296
0.960202
0.966178
0.975393
0.980114
0.982391
0.984105
0.985693
0.984161
0.978346
0.975627
0.975736
0.977115
0.979262
0.984565
0.996029
1.00402
1.00744
1.00952
1.01138
1.01137
1.0052
0.999904
0.999005
1.00005
1.00229
1.00644
1.01637
1.02665
1.03272
1.03645
1.03944
1.04054
1.03754
1.03111
1.02765
1.02821
1.03121
1.03778
1.04704
1.05366
1.05817
1.06097
1.06113
1.05664
1.19931
1.66328
0.888491
0.887777
0.887741
0.888588
0.889665
0.891504
0.896641
0.901278
0.903425
0.904747
0.905867
0.906894
0.906942
0.90522
0.904832
0.905589
0.90668
0.90814
0.912741
0.918614
0.921499
0.923035
0.924276
0.925417
0.925681
0.9234
0.922144
0.922638
0.923716
0.925108
0.929102
0.93624
0.940247
0.942155
0.943508
0.944759
0.945158
0.942161
0.93991
0.940164
0.941242
0.942661
0.945951
0.954014
0.959682
0.962177
0.963704
0.965138
0.965731
0.962062
0.958646
0.958348
0.959238
0.9608
0.963528
0.971889
0.980302
0.984102
0.986394
0.98817
0.989304
0.985438
0.979286
0.97752
0.978295
0.979974
0.982263
0.988709
1.00039
1.00714
1.01023
1.01291
1.01533
1.01464
1.0074
1.00207
1.00141
1.00294
1.00556
1.01018
1.02022
1.02971
1.03538
1.03905
1.04192
1.04284
1.03943
1.03271
1.02915
1.02957
1.03243
1.03926
1.04848
1.05482
1.05902
1.06074
1.06114
1.2024
1.66532
0.890785
0.890152
0.889605
0.890305
0.891308
0.892589
0.896427
0.902066
0.905011
0.906547
0.907751
0.908853
0.90952
0.908084
0.906844
0.907227
0.908179
0.909375
0.912204
0.918668
0.922932
0.924879
0.926182
0.927354
0.92824
0.926717
0.924319
0.924231
0.925164
0.926421
0.928564
0.93511
0.941226
0.943917
0.945422
0.946693
0.947784
0.946406
0.942805
0.941899
0.942603
0.943829
0.9455
0.951122
0.959513
0.963688
0.96579
0.967273
0.968663
0.967768
0.962689
0.960078
0.960319
0.96159
0.963324
0.967439
0.977547
0.984797
0.987741
0.989485
0.991168
0.992078
0.987266
0.981689
0.980344
0.980718
0.982176
0.98467
0.992655
1.00476
1.01142
1.01434
1.01648
1.01816
1.01681
1.01007
1.00533
1.00472
1.00595
1.00843
1.0136
1.02394
1.03272
1.03792
1.04133
1.04388
1.04463
1.04099
1.0339
1.03013
1.03032
1.03283
1.03984
1.04913
1.05566
1.05889
1.06329
1.20931
1.66798
0.893
0.892897
0.891684
0.892057
0.892925
0.893995
0.896345
0.902199
0.906408
0.908341
0.909634
0.910774
0.911775
0.911199
0.909135
0.908892
0.909701
0.910835
0.91248
0.917816
0.923827
0.926587
0.928053
0.929257
0.930372
0.930174
0.92727
0.926112
0.926753
0.927873
0.929224
0.933195
0.940906
0.945262
0.947249
0.948602
0.949887
0.950374
0.947046
0.94411
0.943977
0.944864
0.946274
0.948904
0.956951
0.964411
0.967652
0.969572
0.97103
0.972033
0.96895
0.963664
0.962188
0.962771
0.964094
0.965927
0.971556
0.982221
0.988289
0.991157
0.993371
0.995208
0.995091
0.988641
0.983133
0.98227
0.983397
0.985174
0.987781
0.996132
1.0078
1.01372
1.01656
1.01918
1.02146
1.02012
1.01285
1.00776
1.00708
1.00858
1.01127
1.01691
1.0272
1.03528
1.04016
1.04348
1.04581
1.04645
1.04213
1.03462
1.03062
1.03053
1.03254
1.03986
1.04958
1.05565
1.0633
1.21822
1.67108
0.895074
0.89577
0.893985
0.893785
0.894499
0.895532
0.897004
0.901728
0.907395
0.910069
0.911487
0.912642
0.913723
0.914099
0.91199
0.910788
0.911328
0.912366
0.913578
0.916652
0.923572
0.927918
0.92987
0.931158
0.932338
0.933152
0.931151
0.928522
0.928381
0.929229
0.930429
0.932313
0.938784
0.945846
0.948911
0.95055
0.951841
0.953021
0.951842
0.947315
0.945581
0.946208
0.947492
0.948998
0.953201
0.962577
0.968486
0.970928
0.972556
0.974105
0.974837
0.970386
0.965381
0.964308
0.964832
0.966173
0.96839
0.975974
0.987003
0.992479
0.994762
0.996231
0.997912
0.997596
0.991089
0.986175
0.985314
0.985787
0.987272
0.990091
0.999394
1.0113
1.01747
1.02028
1.02244
1.02387
1.02219
1.01552
1.01057
1.00964
1.01081
1.01336
1.01978
1.03041
1.03816
1.04262
1.04542
1.04733
1.04774
1.04329
1.03544
1.03079
1.03014
1.03169
1.03987
1.04934
1.06036
1.22774
1.67412
0.897048
0.898339
0.896629
0.895642
0.896161
0.897136
0.898284
0.901136
0.907459
0.911453
0.913247
0.914479
0.915596
0.916529
0.915403
0.913149
0.913021
0.91383
0.914923
0.916495
0.921995
0.928556
0.931506
0.933038
0.934247
0.935384
0.935179
0.931803
0.930155
0.930636
0.931705
0.933006
0.936283
0.944455
0.950026
0.95238
0.95378
0.955002
0.955704
0.952483
0.94853
0.947985
0.94873
0.949955
0.951674
0.957725
0.96728
0.972101
0.974456
0.976231
0.977722
0.977234
0.971159
0.966675
0.966312
0.967439
0.968919
0.971225
0.979611
0.99009
0.994869
0.997578
0.999866
1.00166
1.00032
0.992819
0.987681
0.987102
0.988399
0.990332
0.993241
1.00229
1.01364
1.01935
1.02215
1.02448
1.02643
1.02507
1.01801
1.01258
1.01143
1.01273
1.01546
1.02244
1.03296
1.04023
1.04436
1.04706
1.04885
1.04913
1.04454
1.03616
1.03039
1.0289
1.03046
1.03937
1.05393
1.23598
1.67631
0.89899
0.90055
0.899641
0.89786
0.897902
0.898711
0.899742
0.901252
0.906452
0.912318
0.914956
0.91633
0.917477
0.918559
0.918728
0.916165
0.914793
0.915251
0.916265
0.917482
0.920332
0.927645
0.932681
0.93481
0.936092
0.937251
0.938184
0.936208
0.932763
0.932264
0.933098
0.934246
0.935695
0.940878
0.949344
0.953526
0.955499
0.956857
0.958171
0.958132
0.953494
0.950105
0.949914
0.950822
0.952177
0.954505
0.962525
0.971683
0.975628
0.977428
0.978736
0.980293
0.979463
0.973105
0.969306
0.968917
0.969483
0.970888
0.97366
0.98337
0.994157
0.998854
1.00091
1.00229
1.00382
1.00269
0.995738
0.991096
0.990398
0.990931
0.992352
0.995354
1.00513
1.01648
1.02226
1.02502
1.0271
1.02847
1.02717
1.0206
1.01495
1.0134
1.01427
1.01673
1.02414
1.03512
1.04247
1.04633
1.04855
1.05005
1.05015
1.04571
1.03662
1.02912
1.02688
1.02856
1.04419
1.24113
1.67739
0.90096
0.902571
0.902628
0.900521
0.899643
0.900167
0.90114
0.902307
0.90528
0.912081
0.91632
0.918156
0.919322
0.920399
0.9213
0.919877
0.917122
0.916827
0.917685
0.918801
0.920151
0.925029
0.932574
0.93616
0.937862
0.939087
0.940285
0.940529
0.936984
0.934425
0.934462
0.935238
0.936422
0.938501
0.945767
0.953602
0.95702
0.958934
0.960318
0.961512
0.959915
0.954305
0.951809
0.952184
0.953321
0.954647
0.957361
0.966513
0.974878
0.978325
0.98052
0.982299
0.98369
0.981514
0.974397
0.970737
0.970862
0.972184
0.973729
0.976433
0.986093
0.996145
1.00047
1.00309
1.00543
1.00716
1.00559
0.9982
0.992915
0.991984
0.993141
0.995095
0.998291
1.0077
1.01838
1.02386
1.02672
1.02899
1.03084
1.02973
1.02264
1.01633
1.01446
1.01536
1.0179
1.02557
1.03672
1.04396
1.04749
1.04949
1.05089
1.05084
1.04665
1.03667
1.02774
1.02336
1.03127
1.24014
1.67712
0.90287
0.904414
0.905066
0.903615
0.901637
0.901745
0.902643
0.903723
0.905187
0.910372
0.916799
0.919654
0.921076
0.922228
0.923327
0.923545
0.92062
0.918781
0.919082
0.919971
0.921093
0.923175
0.930281
0.936861
0.939533
0.940981
0.942166
0.943281
0.942064
0.937606
0.935908
0.936424
0.937502
0.938778
0.941809
0.950593
0.957393
0.960124
0.961785
0.963165
0.964365
0.96177
0.956104
0.95416
0.954359
0.955212
0.956683
0.960336
0.970606
0.978686
0.981845
0.983399
0.984718
0.986242
0.984017
0.977044
0.973851
0.973593
0.974059
0.975445
0.978545
0.989103
0.99971
1.0042
1.00621
1.00768
1.00925
1.00828
1.0014
0.996137
0.995013
0.995471
0.996865
1.00014
1.01039
1.02117
1.02652
1.02906
1.03097
1.03263
1.03182
1.02497
1.01822
1.0159
1.01634
1.01852
1.02625
1.03781
1.04499
1.04815
1.05004
1.05148
1.05139
1.04714
1.03604
1.02458
1.02105
1.23267
1.67553
0.904619
0.906116
0.907017
0.906889
0.904439
0.903559
0.90413
0.905061
0.906122
0.908612
0.91567
0.920747
0.922876
0.924091
0.925183
0.926163
0.924927
0.921415
0.92049
0.921162
0.922254
0.923497
0.927082
0.935457
0.940634
0.942761
0.943979
0.945148
0.945933
0.942859
0.938697
0.937988
0.938662
0.93967
0.941025
0.945326
0.954959
0.960794
0.963316
0.965106
0.966586
0.967283
0.963066
0.957221
0.955716
0.956492
0.957706
0.95911
0.963044
0.973637
0.981038
0.984093
0.986398
0.988239
0.989438
0.986265
0.978805
0.975219
0.975306
0.976585
0.978211
0.98114
0.991203
1.00122
1.00555
1.00814
1.01047
1.01219
1.01117
1.00419
0.99813
0.996434
0.997253
0.999131
1.00272
1.0128
1.02282
1.02782
1.03067
1.03313
1.03501
1.0341
1.02671
1.01933
1.01656
1.01694
1.01907
1.02679
1.03843
1.04545
1.04845
1.05043
1.05182
1.05162
1.04684
1.03241
1.01902
1.22042
1.67389
0.906159
0.907868
0.908866
0.909693
0.908098
0.905673
0.905505
0.906268
0.907329
0.908667
0.913205
0.920614
0.9242
0.925836
0.926929
0.927989
0.928508
0.925483
0.922551
0.922557
0.923522
0.924659
0.926043
0.931382
0.9399
0.943899
0.945777
0.946995
0.948191
0.948191
0.943645
0.940054
0.939732
0.940528
0.941709
0.943383
0.949331
0.959157
0.96418
0.966244
0.96756
0.96893
0.96965
0.964989
0.959568
0.95831
0.958557
0.959455
0.961046
0.965857
0.977222
0.98475
0.987578
0.988998
0.990334
0.991807
0.989158
0.981902
0.978491
0.978057
0.978374
0.979669
0.982813
0.993601
1.00443
1.00902
1.01105
1.01255
1.01419
1.01393
1.00748
1.00101
0.998956
0.999152
1.00047
1.00405
1.0149
1.02562
1.03075
1.03307
1.03489
1.03659
1.03606
1.02897
1.02089
1.0175
1.01749
1.01934
1.02681
1.0385
1.04538
1.04841
1.05069
1.05194
1.05161
1.04337
1.02704
1.20848
1.67308
0.907488
0.909667
0.91061
0.911625
0.911637
0.908755
0.90721
0.90769
0.908708
0.9098
0.911651
0.918145
0.924575
0.927155
0.928541
0.929658
0.930732
0.930171
0.926167
0.924377
0.924753
0.925652
0.926778
0.928742
0.935971
0.943846
0.947154
0.948932
0.950165
0.951272
0.949977
0.944319
0.941526
0.941859
0.943044
0.944234
0.945921
0.952831
0.962431
0.96679
0.968948
0.970716
0.972196
0.972182
0.966381
0.960805
0.959779
0.960744
0.962096
0.963582
0.968331
0.979462
0.986411
0.989373
0.991766
0.993618
0.994834
0.991696
0.983953
0.979696
0.979372
0.980537
0.982247
0.985363
0.995519
1.00569
1.01017
1.0128
1.01509
1.01681
1.01643
1.00995
1.0028
1.00006
1.00047
1.0022
1.0061
1.01674
1.02685
1.03165
1.03443
1.03692
1.03879
1.03816
1.03065
1.02179
1.01789
1.0177
1.01946
1.02659
1.03808
1.04499
1.04839
1.05081
1.05199
1.04928
1.03997
1.20235
1.67363
0.908075
0.911137
0.912156
0.913261
0.914198
0.91304
0.909945
0.909386
0.910056
0.910986
0.912057
0.915044
0.922923
0.928098
0.930165
0.93136
0.932436
0.933324
0.93122
0.927046
0.926086
0.926841
0.927983
0.929155
0.931831
0.940347
0.947246
0.949933
0.951525
0.952729
0.95388
0.951847
0.946178
0.94407
0.944314
0.945069
0.94626
0.948448
0.956536
0.965979
0.97005
0.971821
0.972899
0.974306
0.974536
0.968812
0.963687
0.962682
0.962885
0.963714
0.965313
0.970776
0.982648
0.990062
0.992769
0.994134
0.995298
0.996658
0.994495
0.987145
0.982904
0.982235
0.982575
0.983738
0.986773
0.997543
1.0086
1.01334
1.01535
1.0167
1.01837
1.01884
1.01304
1.00537
1.00228
1.00215
1.00333
1.00672
1.01764
1.0289
1.03443
1.03682
1.03859
1.04
1.03952
1.03251
1.02304
1.0185
1.01799
1.01942
1.02599
1.0372
1.04434
1.0481
1.05086
1.05107
1.04903
1.20378
1.6755
0.907472
0.91247
0.91387
0.915012
0.916047
0.916647
0.913991
0.911295
0.911246
0.912102
0.91317
0.914484
0.919116
0.927221
0.931268
0.93302
0.934084
0.935183
0.93565
0.931976
0.928496
0.928339
0.929188
0.930209
0.931358
0.93492
0.944126
0.950236
0.952739
0.954454
0.955872
0.956811
0.953468
0.947451
0.945589
0.946315
0.94756
0.948745
0.950882
0.959361
0.968334
0.972028
0.974168
0.975968
0.977449
0.977062
0.970785
0.965134
0.963986
0.964929
0.96636
0.967982
0.973092
0.984392
0.991198
0.99403
0.996263
0.998139
0.999451
0.997374
0.989937
0.984593
0.983471
0.984451
0.986148
0.989364
0.99939
1.00956
1.01415
1.01679
1.01905
1.02079
1.021
1.0153
1.0072
1.00336
1.00317
1.00465
1.00813
1.01843
1.02938
1.03479
1.03757
1.03987
1.04154
1.04135
1.03434
1.02411
1.01885
1.01802
1.0191
1.02489
1.03587
1.04345
1.04816
1.04975
1.05465
1.21091
1.67834
0.905414
0.913203
0.915431
0.9167
0.917714
0.918723
0.918348
0.914602
0.91291
0.913366
0.914337
0.91536
0.91689
0.923043
0.930942
0.934316
0.935943
0.937035
0.938144
0.937617
0.932906
0.930205
0.930248
0.931041
0.932128
0.933501
0.938127
0.947664
0.95318
0.955393
0.956779
0.958053
0.959058
0.955567
0.949937
0.948397
0.948625
0.949286
0.950541
0.953181
0.962391
0.971545
0.975288
0.97692
0.977951
0.979427
0.979613
0.973797
0.968328
0.967112
0.967223
0.967876
0.9694
0.974832
0.986715
0.994316
0.997144
0.99857
0.999798
1.00139
1.0005
0.993388
0.987677
0.986349
0.986593
0.987635
0.99047
1.00082
1.01198
1.01701
1.01906
1.02044
1.02219
1.02328
1.01845
1.00978
1.00543
1.00477
1.00564
1.00818
1.018
1.03017
1.03681
1.03977
1.04148
1.04256
1.04238
1.03596
1.02528
1.01914
1.01776
1.01825
1.02332
1.03431
1.04302
1.04694
1.05666
1.22153
1.68164
0.903058
0.911916
0.916342
0.918235
0.919317
0.920338
0.921244
0.919479
0.915689
0.914821
0.915319
0.916201
0.917313
0.919536
0.92725
0.934571
0.937467
0.938946
0.939982
0.941
0.939267
0.933935
0.931794
0.932214
0.933263
0.934282
0.935635
0.940972
0.950688
0.955725
0.957945
0.959675
0.961165
0.961759
0.957329
0.951332
0.949705
0.950444
0.951674
0.952875
0.955328
0.964431
0.973206
0.976825
0.979088
0.980978
0.982458
0.982311
0.976402
0.970134
0.968204
0.968807
0.970127
0.971782
0.976585
0.987746
0.995144
0.998292
1.00063
1.00251
1.00398
1.00314
0.996357
0.989722
0.987522
0.988062
0.989637
0.992539
1.002
1.01246
1.01751
1.02051
1.02301
1.02477
1.02551
1.02067
1.01159
1.00638
1.00542
1.00658
1.0092
1.01815
1.0302
1.03714
1.04044
1.04234
1.04332
1.04323
1.03742
1.0265
1.01933
1.01698
1.01691
1.02154
1.03329
1.04146
1.05572
1.23293
1.68483
0.902467
0.908391
0.915953
0.919427
0.920973
0.922001
0.923005
0.923442
0.920082
0.916672
0.916425
0.91732
0.918435
0.919616
0.922629
0.931231
0.937672
0.940256
0.9418
0.942936
0.943782
0.941018
0.935759
0.934093
0.934317
0.935008
0.936136
0.937846
0.944247
0.95396
0.958752
0.960731
0.961902
0.963168
0.964011
0.959828
0.954103
0.952536
0.952624
0.953151
0.954412
0.957201
0.966885
0.976265
0.980134
0.981782
0.982832
0.984274
0.984883
0.979779
0.973267
0.971103
0.971041
0.971552
0.972946
0.977678
0.98948
0.997967
1.0012
1.0027
1.00399
1.0057
1.00599
0.999901
0.992627
0.990017
0.989826
0.990647
0.993023
1.00271
1.01485
1.02076
1.02309
1.02449
1.02611
1.02749
1.02386
1.01445
1.00849
1.00706
1.00742
1.00905
1.01708
1.03003
1.038
1.04149
1.04303
1.04375
1.04377
1.0388
1.02793
1.01936
1.01573
1.01494
1.02026
1.03167
1.05041
1.24339
1.68718
0.903295
0.906088
0.912637
0.919598
0.922295
0.923576
0.924494
0.925506
0.925053
0.920547
0.918263
0.91865
0.919627
0.920675
0.921822
0.925518
0.93471
0.940683
0.943139
0.944725
0.945986
0.94665
0.942755
0.936969
0.935442
0.936204
0.937409
0.938521
0.94008
0.946809
0.95637
0.960775
0.962931
0.964737
0.966216
0.966674
0.961963
0.955613
0.953617
0.954232
0.955451
0.956766
0.959232
0.968388
0.977469
0.981358
0.983717
0.985682
0.987201
0.987642
0.982836
0.975493
0.972269
0.972372
0.97361
0.975202
0.979146
0.989989
0.998315
1.00204
1.00475
1.00675
1.00827
1.00838
1.00256
0.994507
0.990976
0.991012
0.992453
0.994992
1.00372
1.01506
1.02094
1.02417
1.02687
1.02867
1.02968
1.02588
1.01609
1.00922
1.00723
1.00782
1.00962
1.01704
1.02991
1.03838
1.04197
1.04332
1.04395
1.04406
1.03999
1.02935
1.0191
1.01377
1.01295
1.01838
1.04095
1.25065
1.68842
0.904523
0.906454
0.908611
0.916467
0.922617
0.924999
0.926257
0.92722
0.928138
0.926223
0.921555
0.920157
0.920614
0.921489
0.92261
0.92401
0.928567
0.937974
0.943374
0.945518
0.946897
0.948016
0.948609
0.944797
0.939526
0.938231
0.938504
0.939163
0.940269
0.942208
0.949628
0.959349
0.963847
0.965675
0.966738
0.967992
0.968895
0.96486
0.958603
0.956582
0.956543
0.956924
0.958098
0.960716
0.970255
0.980322
0.98462
0.98639
0.987468
0.988886
0.990026
0.986416
0.978749
0.975157
0.97462
0.974909
0.976158
0.980052
0.991883
1.00157
1.00532
1.00696
1.0081
1.00969
1.01065
1.00576
0.997391
0.993592
0.992989
0.99348
0.995256
1.00338
1.0165
1.02405
1.0269
1.02829
1.02949
1.03084
1.02851
1.01914
1.01151
1.00889
1.0087
1.00967
1.01604
1.02937
1.03857
1.04212
1.04324
1.04386
1.04401
1.04102
1.03096
1.01875
1.01163
1.00906
1.0276
1.25192
1.68806
0.905582
0.907311
0.908139
0.911453
0.920015
0.925662
0.927849
0.929015
0.929982
0.930654
0.92747
0.922823
0.921883
0.922688
0.923833
0.924863
0.926121
0.931157
0.940703
0.94571
0.947794
0.949366
0.950738
0.951224
0.946788
0.941012
0.939515
0.940281
0.941487
0.942633
0.944329
0.951605
0.961103
0.965365
0.967556
0.969414
0.970907
0.971591
0.967435
0.960505
0.957625
0.95788
0.959056
0.960484
0.962804
0.971455
0.981163
0.985553
0.988028
0.990088
0.991571
0.992462
0.989
0.980896
0.976329
0.975934
0.977174
0.978981
0.982467
0.992863
1.00184
1.0058
1.00847
1.01064
1.01225
1.0129
1.00824
0.999471
0.994532
0.993809
0.994989
0.997022
1.00397
1.01621
1.02367
1.02709
1.02974
1.03164
1.03282
1.03054
1.02116
1.01254
1.00892
1.00863
1.00966
1.01549
1.02876
1.0383
1.04169
1.04278
1.0438
1.04425
1.04201
1.03196
1.01788
1.00818
1.01307
1.24575
1.68585
0.906522
0.90832
0.90908
0.910392
0.914434
0.923172
0.928358
0.930569
0.93195
0.933046
0.933311
0.929083
0.924912
0.924317
0.924772
0.925529
0.926628
0.928232
0.934048
0.943439
0.948231
0.950204
0.951388
0.952509
0.953277
0.949367
0.94388
0.942422
0.942576
0.943083
0.944169
0.946139
0.953798
0.963773
0.968423
0.970261
0.971267
0.972456
0.97363
0.970631
0.963779
0.960756
0.960491
0.960759
0.961759
0.96392
0.972684
0.983583
0.988619
0.990522
0.991444
0.992752
0.994218
0.992228
0.984676
0.980173
0.979243
0.979115
0.979925
0.982847
0.993434
1.00416
1.00892
1.01089
1.01202
1.01351
1.01485
1.01163
1.0028
0.997402
0.996037
0.99606
0.99721
1.0028
1.0161
1.02592
1.02979
1.03132
1.03234
1.0336
1.03266
1.02424
1.01457
1.00994
1.00901
1.00965
1.01468
1.02799
1.03796
1.04142
1.04256
1.04371
1.04416
1.04235
1.03195
1.0142
1.00654
1.23283
1.68316
0.908173
0.909287
0.910117
0.911088
0.912325
0.917053
0.926241
0.931351
0.933514
0.934901
0.935971
0.935821
0.930746
0.926286
0.925734
0.926657
0.927812
0.928835
0.930212
0.936192
0.945638
0.950206
0.952255
0.953949
0.955387
0.955937
0.951665
0.945521
0.94353
0.944106
0.945279
0.946484
0.948162
0.9552
0.96494
0.969512
0.971805
0.973773
0.975293
0.976311
0.9736
0.966397
0.962104
0.961632
0.962626
0.964043
0.965937
0.973323
0.983653
0.988724
0.991489
0.993998
0.995789
0.997076
0.995017
0.987116
0.980953
0.979331
0.98011
0.981675
0.984568
0.993917
1.00413
1.00907
1.0121
1.01464
1.01627
1.01735
1.01439
1.00531
0.998477
0.996488
0.99709
0.998682
1.00317
1.01525
1.02519
1.02946
1.03204
1.03416
1.03554
1.03461
1.02638
1.01578
1.01018
1.00894
1.00953
1.01403
1.02697
1.03689
1.04031
1.04191
1.04363
1.04417
1.04211
1.02771
1.01093
1.21769
1.68143
0.910837
0.910287
0.910893
0.911861
0.912962
0.91462
0.920135
0.929212
0.933862
0.935851
0.937233
0.938273
0.937931
0.932993
0.928964
0.928358
0.928674
0.929341
0.930459
0.932255
0.938829
0.948319
0.952986
0.954877
0.955937
0.957049
0.958002
0.954607
0.94862
0.946553
0.94653
0.94682
0.947792
0.949567
0.956708
0.967242
0.972538
0.974567