/*--------------------------------*- C++ -*----------------------------------*\
  =========                 |
  \\      /  F ield         | OpenFOAM: The Open Source CFD Toolbox
   \\    /   O peration     | Website:  https://openfoam.org
    \\  /    A nd           | Version:  12
     \\/     M anipulation  |
\*---------------------------------------------------------------------------*/
FoamFile
{
    format      ascii;
    class       volScalarField;
    location    "27";
    object      rho;
}
// * * * * * * * * * * * * * * * * * * * * * * * * * * * * * * * * * * * * * //

dimensions      [1 -3 0 0 0 0 0];

internalField   nonuniform List<scalar> 
9801
(
1.12314
1.13504
1.15394
1.17436
1.19035
1.19824
1.20009
1.20103
1.20079
1.19544
1.19696
1.203
1.21197
1.22491
1.23695
1.24198
1.24382
1.24618
1.25238
1.26065
1.2711
1.28015
1.28599
1.29008
1.29278
1.29517
1.29317
1.28982
1.29029
1.29313
1.29731
1.30841
1.33326
1.35346
1.36341
1.36909
1.37323
1.37183
1.36615
1.36271
1.36382
1.36847
1.37483
1.38465
1.41106
1.44528
1.46312
1.47104
1.4768
1.48071
1.47244
1.45963
1.45751
1.46212
1.469
1.47693
1.49367
1.53216
1.56546
1.58098
1.58889
1.59553
1.5962
1.57438
1.55318
1.55194
1.55955
1.57054
1.58717
1.63204
1.68126
1.70763
1.72135
1.73095
1.73273
1.71072
1.68128
1.67528
1.68448
1.70017
1.73932
1.81326
1.86609
1.89521
1.91749
1.93923
1.94672
1.91181
1.87673
1.876
1.90345
1.96143
2.09191
2.21679
2.30884
2.42472
2.5045
4.15829
21.3333
1.1342
1.13963
1.14775
1.15761
1.16978
1.18707
1.2027
1.21026
1.21272
1.21524
1.21697
1.21588
1.21628
1.22097
1.22612
1.23142
1.2367
1.24185
1.2508
1.27105
1.28508
1.29091
1.29535
1.29945
1.30122
1.29147
1.28523
1.28768
1.29229
1.29718
1.30238
1.31526
1.34326
1.36107
1.36885
1.37427
1.37873
1.37405
1.36192
1.36182
1.36652
1.37215
1.37826
1.38627
1.40921
1.44274
1.46125
1.47082
1.47764
1.48184
1.4733
1.45789
1.45535
1.4599
1.4665
1.47387
1.48916
1.52793
1.56232
1.57879
1.58863
1.59534
1.5962
1.57403
1.55394
1.55218
1.5597
1.56923
1.5853
1.62976
1.6773
1.70085
1.71399
1.7249
1.73316
1.71299
1.67989
1.67341
1.68407
1.69978
1.72831
1.79101
1.84694
1.88046
1.90617
1.93067
1.94547
1.91217
1.87248
1.87002
1.8992
1.94464
2.03293
2.13758
2.21625
2.30743
2.35052
3.91441
21.3446
1.14819
1.15252
1.15319
1.15346
1.15541
1.16402
1.18111
1.1953
1.20767
1.21784
1.22495
1.22973
1.23049
1.22618
1.2219
1.22088
1.22315
1.22743
1.23647
1.26083
1.28033
1.28883
1.29385
1.29812
1.29727
1.28266
1.27571
1.2791
1.28559
1.29247
1.29928
1.31377
1.34202
1.35958
1.367
1.37215
1.3762
1.3711
1.35915
1.3586
1.36367
1.3699
1.37662
1.38434
1.40455
1.43564
1.45348
1.46266
1.46873
1.47298
1.46671
1.45076
1.44639
1.45014
1.45635
1.46352
1.47569
1.51033
1.54411
1.56083
1.57084
1.57775
1.58032
1.56192
1.54217
1.54063
1.54794
1.55722
1.57051
1.6073
1.65269
1.67842
1.69374
1.70613
1.71639
1.70409
1.67136
1.6595
1.66659
1.6811
1.69981
1.75105
1.81959
1.85858
1.88141
1.9026
1.91741
1.89589
1.85648
1.84179
1.85757
1.89452
1.95461
2.05645
2.13843
2.21504
2.24859
3.84176
20.9232
1.15594
1.15861
1.14563
1.13282
1.1297
1.1325
1.14997
1.18607
1.21165
1.22253
1.22867
1.23321
1.23393
1.21934
1.20126
1.19703
1.19986
1.20567
1.21788
1.2481
1.2734
1.28333
1.28878
1.29125
1.28519
1.27083
1.26562
1.26856
1.27448
1.28286
1.29228
1.30819
1.33368
1.35069
1.35842
1.3636
1.36786
1.36492
1.35302
1.34908
1.35175
1.35651
1.36234
1.36933
1.3863
1.41557
1.43446
1.44449
1.45156
1.45754
1.45494
1.43604
1.42645
1.42831
1.43385
1.44088
1.45124
1.48081
1.51583
1.53408
1.54437
1.55225
1.55782
1.54472
1.52328
1.51898
1.52476
1.53314
1.54355
1.56989
1.61647
1.64713
1.66381
1.67617
1.68704
1.68714
1.6577
1.63445
1.63551
1.64867
1.66498
1.69586
1.75988
1.80786
1.83306
1.85342
1.87273
1.86888
1.83743
1.81295
1.81021
1.83359
1.87434
1.94084
2.01752
2.08335
2.11849
3.8901
20.5136
1.15433
1.14193
1.11968
1.11359
1.11505
1.11914
1.1401
1.18391
1.21049
1.22038
1.22639
1.22956
1.21739
1.19254
1.18155
1.18247
1.18639
1.19298
1.20772
1.23587
1.25733
1.26617
1.26969
1.26953
1.26802
1.26264
1.25814
1.26008
1.26477
1.27012
1.2765
1.28769
1.30963
1.32987
1.34055
1.34709
1.35251
1.35511
1.34508
1.33455
1.33394
1.33752
1.34252
1.34876
1.36382
1.3941
1.41561
1.42589
1.43261
1.43811
1.43678
1.4173
1.40386
1.40534
1.41128
1.41831
1.42698
1.45046
1.48578
1.50638
1.51725
1.5251
1.53178
1.52693
1.50424
1.49234
1.49584
1.50381
1.51369
1.53074
1.5736
1.61121
1.63061
1.64403
1.65601
1.66388
1.64327
1.61063
1.6014
1.61221
1.62829
1.64885
1.69787
1.75909
1.79508
1.81763
1.83861
1.84788
1.82603
1.79791
1.78304
1.78842
1.81746
1.86183
1.92732
1.98746
2.01957
3.89941
20.2349
1.13089
1.10696
1.10177
1.10395
1.10806
1.11818
1.14908
1.18173
1.19952
1.20776
1.21086
1.20035
1.18146
1.17161
1.17068
1.17339
1.17761
1.18379
1.19808
1.21959
1.23503
1.24272
1.24609
1.24972
1.2544
1.2562
1.25263
1.25178
1.2539
1.25632
1.25939
1.26445
1.2817
1.3082
1.32391
1.33186
1.33766
1.34261
1.33838
1.3227
1.31669
1.31942
1.32438
1.33001
1.34105
1.37014
1.39582
1.4071
1.41349
1.41846
1.41951
1.40599
1.38984
1.38633
1.39146
1.39836
1.40592
1.42207
1.45538
1.48001
1.49281
1.50185
1.50992
1.51422
1.49804
1.47675
1.47113
1.47752
1.48723
1.5001
1.53414
1.5798
1.60493
1.6187
1.63019
1.64065
1.63493
1.60358
1.58367
1.58341
1.59704
1.61467
1.64529
1.70481
1.75639
1.78742
1.8109
1.8308
1.82671
1.8001
1.77792
1.7712
1.78099
1.80914
1.859
1.91623
1.94656
3.89886
20.0782
1.09936
1.09009
1.09324
1.0979
1.10609
1.12869
1.15854
1.17647
1.1841
1.18712
1.17877
1.16448
1.16014
1.16256
1.16628
1.17035
1.17473
1.17975
1.18898
1.20145
1.21155
1.21989
1.23052
1.24044
1.24713
1.25232
1.25192
1.24645
1.24391
1.24383
1.24571
1.24928
1.25913
1.28676
1.30874
1.31911
1.3256
1.33088
1.3324
1.31916
1.30722
1.30684
1.31114
1.31651
1.32359
1.3449
1.37442
1.3896
1.39725
1.40306
1.40792
1.40447
1.3875
1.37801
1.37827
1.38303
1.38909
1.39873
1.42702
1.45907
1.4762
1.48644
1.49517
1.50282
1.4987
1.47302
1.45891
1.45944
1.46826
1.47931
1.50197
1.54952
1.58692
1.60456
1.61604
1.62672
1.63095
1.60865
1.58123
1.57115
1.57599
1.59055
1.61028
1.65186
1.71213
1.75738
1.78674
1.81107
1.8269
1.81476
1.79219
1.77442
1.7698
1.78054
1.80707
1.85807
1.89102
3.89866
20.0005
1.08474
1.08584
1.08999
1.09696
1.11321
1.13934
1.15791
1.16546
1.16713
1.15956
1.15034
1.14864
1.15133
1.15616
1.16248
1.1684
1.17345
1.17756
1.18099
1.18741
1.19465
1.20646
1.22222
1.23427
1.24242
1.24888
1.25288
1.24572
1.23766
1.23572
1.23742
1.24097
1.24786
1.27199
1.29648
1.30933
1.31742
1.32366
1.32873
1.32294
1.30625
1.30077
1.30246
1.30631
1.31139
1.32377
1.35349
1.37588
1.38688
1.39457
1.40151
1.40658
1.39596
1.37803
1.3714
1.37219
1.37713
1.38405
1.4031
1.44123
1.4669
1.47917
1.48795
1.4957
1.49933
1.48051
1.45693
1.45195
1.45787
1.46768
1.48172
1.51698
1.56583
1.59441
1.60867
1.61951
1.6288
1.62273
1.59366
1.57449
1.57142
1.57831
1.59262
1.61262
1.65733
1.71241
1.75317
1.7837
1.81047
1.82248
1.81427
1.79495
1.77487
1.76661
1.7721
1.79994
1.83732
3.90383
19.97
1.08473
1.08732
1.09388
1.10799
1.12341
1.13779
1.14742
1.14973
1.14472
1.13954
1.1424
1.14841
1.15223
1.15498
1.16001
1.16707
1.17103
1.17004
1.17017
1.17571
1.19093
1.20797
1.22258
1.23381
1.24151
1.24771
1.25262
1.2434
1.23093
1.22904
1.23198
1.23663
1.24522
1.26928
1.29322
1.30592
1.31376
1.32024
1.3261
1.32605
1.3094
1.29833
1.29669
1.2995
1.30408
1.31138
1.33581
1.36626
1.38238
1.39156
1.39892
1.40549
1.40534
1.38354
1.36753
1.3646
1.36907
1.37593
1.38807
1.42237
1.45884
1.47587
1.48513
1.49264
1.49885
1.4934
1.46697
1.4524
1.4528
1.46119
1.47118
1.48738
1.53042
1.57666
1.60126
1.61501
1.62674
1.63641
1.62353
1.59451
1.57845
1.57528
1.58012
1.59297
1.61582
1.66325
1.71495
1.75443
1.78575
1.81265
1.81905
1.81312
1.79574
1.77046
1.75241
1.75645
1.77273
3.8991
19.9734
1.0903
1.09917
1.11254
1.12067
1.12456
1.12553
1.12529
1.1277
1.13009
1.1343
1.14565
1.1539
1.1608
1.16512
1.16756
1.16512
1.15944
1.15629
1.15834
1.16553
1.18931
1.21512
1.2309
1.24104
1.24811
1.2536
1.25346
1.23571
1.22197
1.22234
1.227
1.23358
1.24547
1.27203
1.2973
1.30929
1.31593
1.32164
1.32661
1.32699
1.31295
1.29681
1.29231
1.29499
1.29993
1.3062
1.32379
1.35853
1.38136
1.392
1.39882
1.40457
1.40755
1.39385
1.36959
1.36274
1.36498
1.37137
1.3797
1.40187
1.44476
1.47262
1.48497
1.49337
1.50079
1.5045
1.48807
1.46284
1.45433
1.4551
1.46195
1.47183
1.49327
1.54494
1.58943
1.61221
1.62723
1.64023
1.64818
1.6289
1.59647
1.57853
1.57574
1.5831
1.59723
1.62121
1.66843
1.71716
1.7549
1.78475
1.80855
1.8126
1.80747
1.78967
1.75895
1.73122
1.70975
3.87441
20.0029
1.10509
1.11879
1.1242
1.12631
1.11632
1.10397
1.10209
1.10822
1.12188
1.14061
1.15702
1.16887
1.17595
1.18027
1.17476
1.15619
1.14359
1.14351
1.14808
1.15695
1.18734
1.22693
1.24556
1.25256
1.25676
1.25828
1.24913
1.22703
1.2163
1.21728
1.22234
1.23002
1.2454
1.27497
1.30184
1.31372
1.31951
1.32368
1.32616
1.32623
1.31641
1.29878
1.29153
1.29252
1.29692
1.30254
1.31429
1.34748
1.37789
1.39104
1.39815
1.40387
1.40825
1.40463
1.38162
1.36513
1.36407
1.36901
1.37596
1.38689
1.42167
1.46467
1.48555
1.49562
1.50378
1.51062
1.50804
1.48233
1.45989
1.45312
1.45484
1.46342
1.47576
1.50542
1.56188
1.60494
1.62703
1.64002
1.6513
1.65535
1.63427
1.60339
1.58513
1.58129
1.58688
1.5996
1.62614
1.67535
1.72194
1.75574
1.78071
1.79893
1.80106
1.79596
1.77635
1.73879
1.67897
3.81884
20.065
1.12252
1.13163
1.13258
1.11906
1.09653
1.089
1.09065
1.09836
1.12275
1.15656
1.17584
1.18379
1.18839
1.19002
1.17591
1.14545
1.13618
1.1383
1.14256
1.15133
1.18734
1.23603
1.25248
1.2582
1.26131
1.25659
1.24155
1.22691
1.2178
1.21817
1.22254
1.22985
1.24221
1.26678
1.29763
1.31335
1.3192
1.32181
1.32371
1.32621
1.32381
1.30788
1.29412
1.29167
1.29437
1.29907
1.30592
1.32994
1.36807
1.38859
1.39796
1.40467
1.41052
1.41422
1.40081
1.37506
1.36542
1.36715
1.37366
1.38168
1.39983
1.44567
1.48292
1.49855
1.50704
1.51422
1.52047
1.51067
1.48042
1.46308
1.46188
1.46726
1.47348
1.48345
1.51282
1.57159
1.61334
1.63372
1.64807
1.66081
1.66432
1.64121
1.60767
1.58712
1.58299
1.59008
1.60351
1.63346
1.68324
1.72562
1.75376
1.77333
1.78552
1.78697
1.7813
1.75303
1.68849
3.75207
20.1516
1.13016
1.13725
1.12698
1.09824
1.08328
1.08279
1.08611
1.09633
1.13611
1.17546
1.18833
1.19399
1.19721
1.19205
1.16473
1.14254
1.13872
1.14101
1.14562
1.16229
1.20021
1.23523
1.25242
1.25833
1.25622
1.24623
1.24023
1.2331
1.22665
1.22774
1.23344
1.24001
1.24334
1.24936
1.27288
1.30024
1.31234
1.31822
1.32338
1.32863
1.33213
1.32384
1.30292
1.29208
1.29098
1.29484
1.30032
1.31366
1.35175
1.38463
1.39843
1.40622
1.4128
1.41807
1.41624
1.39292
1.37194
1.36835
1.37324
1.38108
1.3894
1.41528
1.46507
1.49557
1.50818
1.51661
1.52548
1.53254
1.51742
1.48643
1.47131
1.46662
1.46722
1.47371
1.48477
1.51946
1.58128
1.62412
1.64556
1.65897
1.66805
1.6647
1.64369
1.61343
1.59313
1.58859
1.59426
1.60682
1.63864
1.68712
1.72561
1.74999
1.76591
1.77243
1.77342
1.76012
1.71232
3.70268
20.2312
1.13116
1.13239
1.10302
1.08338
1.08173
1.08473
1.08849
1.10624
1.15492
1.1826
1.19147
1.19645
1.1963
1.17867
1.15757
1.14706
1.1453
1.1498
1.16406
1.18394
1.20155
1.22165
1.23476
1.23902
1.238
1.24065
1.24574
1.24905
1.24592
1.24248
1.24303
1.24222
1.23976
1.23948
1.24534
1.27329
1.30306
1.31673
1.32439
1.33086
1.33666
1.33595
1.31518
1.29412
1.28988
1.29245
1.29765
1.30556
1.33085
1.37407
1.39828
1.40808
1.41447
1.41915
1.42264
1.41536
1.39013
1.37603
1.37454
1.37739
1.38355
1.39285
1.42772
1.47939
1.5072
1.52099
1.53204
1.54064
1.54434
1.51998
1.48552
1.46848
1.46588
1.46937
1.47697
1.48842
1.52524
1.58728
1.62735
1.64748
1.66194
1.66962
1.66546
1.64771
1.61993
1.59828
1.59124
1.59509
1.60595
1.6386
1.68766
1.72437
1.74572
1.75705
1.75962
1.75552
1.73207
3.68218
20.286
1.12911
1.10969
1.08323
1.07887
1.08141
1.08502
1.09553
1.1324
1.16741
1.18355
1.19062
1.19147
1.17768
1.16366
1.1586
1.15759
1.16188
1.17425
1.18804
1.19337
1.19576
1.19749
1.20783
1.2199
1.22981
1.24317
1.25665
1.26539
1.26933
1.26177
1.24884
1.2374
1.23014
1.2298
1.23325
1.24823
1.28879
1.31592
1.3263
1.33254
1.33755
1.33875
1.32679
1.30282
1.29239
1.29361
1.29814
1.30462
1.31564
1.35036
1.38931
1.4065
1.41433
1.41991
1.42567
1.42939
1.41452
1.38781
1.37582
1.37427
1.37765
1.3847
1.39843
1.44417
1.49729
1.52301
1.53403
1.5414
1.54859
1.55024
1.51791
1.48407
1.47071
1.46934
1.47304
1.48111
1.49374
1.53424
1.59267
1.62961
1.64975
1.66446
1.66926
1.66557
1.65189
1.62496
1.59936
1.58852
1.59066
1.60146
1.63675
1.68712
1.7213
1.73784
1.74415
1.74181
1.74329
3.69701
20.3231
1.12086
1.08956
1.07762
1.07904
1.08275
1.09216
1.11857
1.14848
1.16773
1.17643
1.17712
1.16686
1.16128
1.16342
1.16687
1.17467
1.18747
1.19722
1.20154
1.19416
1.17938
1.17603
1.18238
1.20409
1.23116
1.25391
1.26806
1.27569
1.28144
1.27863
1.25085
1.22645
1.22072
1.22318
1.22777
1.23874
1.27331
1.31015
1.32503
1.33161
1.33485
1.33474
1.33251
1.31909
1.30217
1.2988
1.30198
1.30679
1.31227
1.3251
1.36457
1.39931
1.41405
1.42201
1.42866
1.43437
1.43464
1.40973
1.38382
1.37592
1.37772
1.38421
1.39225
1.40723
1.45674
1.50584
1.52674
1.53664
1.5438
1.54953
1.54684
1.51583
1.48756
1.47658
1.47773
1.48482
1.49287
1.5034
1.53808
1.59013
1.62655
1.6485
1.66378
1.66843
1.66552
1.65305
1.62443
1.5951
1.5822
1.5845
1.59687
1.6343
1.68355
1.71225
1.72409
1.72427
1.74532
3.74899
20.3627
1.11572
1.08775
1.08199
1.08517
1.09478
1.11502
1.13283
1.1464
1.15605
1.15811
1.15343
1.15167
1.15669
1.16815
1.18612
1.20038
1.20752
1.21011
1.20094
1.17723
1.16537
1.16592
1.17132
1.19653
1.24028
1.26584
1.27478
1.28007
1.28432
1.28076
1.2523
1.22485
1.22029
1.2235
1.22924
1.23913
1.26259
1.29799
1.31865
1.32635
1.32906
1.33079
1.33472
1.33515
1.31901
1.30562
1.30411
1.30687
1.31152
1.31709
1.3339
1.37836
1.41032
1.42333
1.42997
1.43484
1.44023
1.43547
1.40601
1.38507
1.38103
1.38334
1.38899
1.39731
1.41188
1.45859
1.50469
1.52472
1.53291
1.53897
1.54825
1.55293
1.53149
1.50578
1.49292
1.48888
1.48943
1.49423
1.50436
1.53766
1.58917
1.62553
1.64654
1.66028
1.66413
1.66211
1.65072
1.62069
1.59034
1.57794
1.57973
1.59168
1.62976
1.67464
1.69827
1.70347
1.72999
3.82841
20.4096
1.11187
1.09549
1.09472
1.10143
1.11704
1.1295
1.13511
1.13737
1.1346
1.13656
1.14481
1.15424
1.16604
1.18728
1.20732
1.21701
1.22203
1.21614
1.18312
1.1588
1.15633
1.15995
1.16707
1.197
1.24891
1.27117
1.2787
1.28373
1.28028
1.26529
1.24774
1.23124
1.22534
1.22794
1.23452
1.24471
1.2552
1.27656
1.30364
1.31838
1.32523
1.33027
1.33569
1.34224
1.3417
1.32287
1.31083
1.30887
1.31009
1.31317
1.31846
1.34156
1.3904
1.41915
1.43089
1.43866
1.44388
1.44983
1.44043
1.40972
1.39216
1.38966
1.39344
1.39428
1.394
1.40478
1.44875
1.49534
1.51931
1.53659
1.55343
1.56459
1.56755
1.54714
1.51518
1.49306
1.48629
1.48924
1.49525
1.50639
1.54063
1.58816
1.62207
1.64176
1.65445
1.65929
1.65968
1.64963
1.61894
1.5871
1.57314
1.57398
1.58413
1.62097
1.66134
1.67713
1.7058
3.92235
20.4681
1.11306
1.11121
1.11358
1.12198
1.13054
1.13546
1.13465
1.12243
1.11798
1.12147
1.13587
1.16256
1.18938
1.20792
1.21706
1.2227
1.22683
1.20874
1.16898
1.15474
1.15618
1.16025
1.1699
1.20773
1.25171
1.27274
1.28013
1.27791
1.26498
1.25785
1.25272
1.24355
1.23794
1.23934
1.24466
1.24962
1.25198
1.25566
1.27527
1.30556
1.32238
1.33188
1.34088
1.35015
1.35732
1.35086
1.32634
1.31256
1.30754
1.30718
1.31089
1.31883
1.35268
1.4043
1.4309
1.44112
1.44802
1.45568
1.46252
1.45137
1.41961
1.40207
1.39572
1.38885
1.38524
1.38858
1.40007
1.44177
1.49944
1.53615
1.55331
1.56373
1.57136
1.57258
1.55356
1.5206
1.4966
1.48908
1.49108
1.49723
1.50915
1.54168
1.58761
1.62016
1.63902
1.65116
1.65906
1.66149
1.65016
1.61627
1.58131
1.56532
1.56351
1.57141
1.60972
1.64244
1.67681
4.01663
20.5386
1.11299
1.12312
1.13685
1.14337
1.1458
1.14223
1.12795
1.11401
1.11161
1.11504
1.12603
1.16688
1.20789
1.22271
1.22752
1.22815
1.218
1.18899
1.16632
1.15879
1.16018
1.16691
1.18776
1.21583
1.24346
1.25944
1.26301
1.25768
1.25396
1.25801
1.26278
1.26307
1.25578
1.25125
1.25058
1.24827
1.24265
1.24177
1.2482
1.2789
1.31559
1.33698
1.35215
1.36251
1.36964
1.37131
1.34802
1.31637
1.30364
1.30335
1.30789
1.31484
1.32624
1.36872
1.41857
1.44172
1.45242
1.46197
1.47002
1.4743
1.45926
1.42538
1.40204
1.39146
1.38786
1.38821
1.39174
1.40142
1.44067
1.50364
1.53949
1.55582
1.56656
1.57367
1.57307
1.55489
1.52566
1.50105
1.49134
1.49207
1.49765
1.50953
1.5431
1.59063
1.62293
1.64079
1.65264
1.66064
1.66146
1.64489
1.60971
1.57277
1.55252
1.54756
1.55731
1.59437
1.64013
4.09808
20.6057
1.11198
1.14138
1.15623
1.16329
1.16614
1.15282
1.12328
1.10886
1.10869
1.11212
1.12244
1.16715
1.21385
1.22921
1.23521
1.23327
1.20691
1.18434
1.17323
1.17139
1.17697
1.19237
1.20619
1.21169
1.21796
1.22868
1.2423
1.25069
1.25531
1.26175
1.27294
1.28141
1.28311
1.27067
1.25461
1.2399
1.23095
1.23136
1.23582
1.25243
1.30308
1.34667
1.36622
1.37575
1.38029
1.38174
1.37031
1.33122
1.30818
1.30602
1.31129
1.32088
1.33103
1.34093
1.37789
1.42606
1.45037
1.46085
1.46564
1.47326
1.48022
1.4708
1.43534
1.40776
1.39509
1.39
1.39091
1.39626
1.40649
1.44403
1.50642
1.54417
1.55951
1.56818
1.5717
1.57101
1.56183
1.53491
1.50587
1.49255
1.49149
1.49665
1.50966
1.54839
1.59878
1.62865
1.64321
1.65199
1.65736
1.65344
1.63557
1.60169
1.56321
1.53866
1.53091
1.53883
1.59333
4.14881
20.6613
1.11874
1.1624
1.17287
1.1789
1.18179
1.16079
1.12053
1.1071
1.10844
1.1124
1.12459
1.16706
1.20981
1.22392
1.2261
1.21388
1.19994
1.19319
1.19117
1.19448
1.2013
1.20773
1.21118
1.20234
1.19135
1.19308
1.21381
1.24321
1.26229
1.27665
1.28902
1.29765
1.30316
1.29404
1.25857
1.23108
1.22412
1.22627
1.23182
1.24419
1.28638
1.3476
1.37195
1.37988
1.38085
1.37485
1.37003
1.35898
1.33448
1.32372
1.32605
1.33263
1.337
1.3358
1.34138
1.37384
1.42329
1.4491
1.46371
1.47735
1.48602
1.4915
1.47769
1.43467
1.40225
1.39134
1.39203
1.39719
1.40318
1.41169
1.44447
1.49978
1.5368
1.55523
1.56583
1.57269
1.57483
1.57049
1.5427
1.5079
1.49156
1.48992
1.4966
1.51267
1.55756
1.60588
1.62941
1.63938
1.64623
1.64912
1.6434
1.62923
1.59613
1.55419
1.52725
1.50685
1.53148
4.15818
20.7154
1.13398
1.177
1.18421
1.18837
1.18338
1.14959
1.11776
1.10947
1.11073
1.11527
1.1305
1.15944
1.1887
1.20375
1.20667
1.20432
1.206
1.20953
1.21596
1.22231
1.22432
1.21895
1.20218
1.18119
1.17352
1.17563
1.18672
1.22674
1.27068
1.29544
1.30621
1.31265
1.31571
1.30839
1.26805
1.23348
1.22683
1.22926
1.24012
1.26433
1.28995
1.32553
1.35922
1.37094
1.36978
1.36694
1.37249
1.37993
1.38014
1.35957
1.34432
1.33938
1.33406
1.32894
1.33069
1.33863
1.37326
1.43111
1.46503
1.4775
1.48345
1.48694
1.48815
1.47328
1.43742
1.41183
1.4024
1.40081
1.40292
1.40745
1.41432
1.43784
1.49153
1.5367
1.55908
1.57137
1.57911
1.581
1.57555
1.54487
1.50758
1.49148
1.49227
1.50056
1.51706
1.56179
1.60357
1.62276
1.63162
1.63913
1.64383
1.63786
1.62596
1.58996
1.54568
1.5042
1.47617
4.11035
20.7711
1.1508
1.18434
1.19005
1.19049
1.16639
1.13288
1.11865
1.11503
1.11684
1.12539
1.14013
1.15054
1.16214
1.17908
1.19403
1.20457
1.21661
1.22861
1.2363
1.24081
1.24191
1.22692
1.18944
1.16788
1.16577
1.16866
1.1749
1.20767
1.27494
1.30579
1.31591
1.32129
1.31768
1.29947
1.27727
1.25229
1.24241
1.24768
1.27015
1.28813
1.29415
1.29805
1.31324
1.34102
1.35771
1.36758
1.38189
1.39652
1.40477
1.40012
1.3712
1.34391
1.33103
1.32812
1.33032
1.33548
1.34388
1.37475
1.42956
1.45935
1.47058
1.47806
1.48467
1.48876
1.48011
1.45321
1.42537
1.40944
1.40437
1.40445
1.40649
1.4128
1.43737
1.49698
1.54493
1.56649
1.57697
1.58058
1.58201
1.57812
1.54803
1.51259
1.49854
1.49909
1.50327
1.51663
1.55863
1.59765
1.61693
1.62847
1.63947
1.6373
1.63303
1.62015
1.58094
1.52308
1.46288
4.01248
20.8348
1.16181
1.18704
1.19055
1.17262
1.14322
1.12971
1.12465
1.12531
1.13105
1.14372
1.15173
1.15079
1.14635
1.14984
1.16961
1.20102
1.22552
1.24053
1.24772
1.25215
1.25303
1.22919
1.18538
1.16882
1.16838
1.17126
1.18035
1.21236
1.26765
1.30611
1.31781
1.31844
1.30162
1.28988
1.28868
1.28455
1.27912
1.28214
1.29001
1.29421
1.2906
1.2775
1.27533
1.29578
1.34006
1.37299
1.39236
1.40775
1.41715
1.4218
1.41071
1.3704
1.34039
1.3323
1.33403
1.33796
1.34117
1.34611
1.36861
1.4197
1.45604
1.47351
1.48421
1.49194
1.49685
1.49168
1.46563
1.43349
1.41269
1.40562
1.40703
1.41194
1.42093
1.44779
1.50602
1.54962
1.56863
1.5773
1.58193
1.58765
1.58555
1.55674
1.52199
1.50405
1.50006
1.5019
1.51406
1.55448
1.59337
1.61475
1.62725
1.6328
1.62874
1.62587
1.6087
1.55943
1.48191
3.89036
20.9177
1.16253
1.17688
1.16324
1.13955
1.13209
1.1342
1.1375
1.14576
1.15777
1.16546
1.16465
1.14809
1.1361
1.13569
1.14342
1.18189
1.22749
1.24713
1.25537
1.26108
1.25905
1.22692
1.19045
1.17622
1.17632
1.18424
1.20802
1.22956
1.24927
1.2779
1.29425
1.29493
1.28991
1.29129
1.2974
1.3151
1.32881
1.32559
1.30998
1.29394
1.27322
1.25823
1.25773
1.26479
1.29632
1.35599
1.39557
1.41252
1.41994
1.42451
1.42481
1.40717
1.3688
1.34592
1.33938
1.33814
1.33761
1.33941
1.34535
1.36369
1.41138
1.45654
1.47994
1.48967
1.49436
1.49745
1.49744
1.48271
1.45129
1.42623
1.41733
1.41692
1.42031
1.42682
1.45336
1.51136
1.55394
1.57356
1.58416
1.59193
1.59767
1.59504
1.56643
1.53123
1.51009
1.50064
1.49857
1.50916
1.54801
1.58758
1.61013
1.62227
1.62141
1.61903
1.6157
1.59021
1.53276
3.78154
21.0174
1.14318
1.14242
1.13349
1.13231
1.13562
1.14382
1.16351
1.17826
1.18541
1.18357
1.16166
1.13569
1.12609
1.12663
1.13081
1.16066
1.22209
1.25022
1.2586
1.26296
1.25301
1.22555
1.20388
1.19537
1.19711
1.21086
1.22792
1.23352
1.23585
1.23483
1.24575
1.26813
1.2848
1.30004
1.32519
1.34743
1.35679
1.35611
1.3309
1.2881
1.25755
1.24934
1.25137
1.25709
1.2689
1.31406
1.38092
1.41052
1.41916
1.41928
1.41861
1.41785
1.40863
1.38008
1.35617
1.34432
1.34065
1.34316
1.34647
1.3501
1.36089
1.40195
1.45143
1.47676
1.49002
1.50082
1.50957
1.51393
1.49953
1.46534
1.43479
1.42131
1.41848
1.42164
1.42906
1.45929
1.51967
1.56207
1.58045
1.58853
1.59554
1.6031
1.60332
1.57734
1.53994
1.50901
1.49349
1.48821
1.49792
1.53762
1.58009
1.6052
1.61448
1.6104
1.61076
1.60199
1.58626
3.72691
21.1167
1.10785
1.10044
1.11354
1.1331
1.15728
1.17951
1.19244
1.19871
1.20101
1.18573
1.14376
1.12105
1.11808
1.12026
1.12726
1.15355
1.21183
1.24892
1.25919
1.25926
1.24185
1.22887
1.22262
1.2193
1.22082
1.22713
1.23199
1.2317
1.21644
1.20616
1.20995
1.23271
1.27535
1.31933
1.35379
1.36912
1.37577
1.37556
1.35117
1.29034
1.25747
1.2509
1.25475
1.26852
1.28407
1.29895
1.3306
1.37612
1.39868
1.4065
1.41136
1.41642
1.42151
1.42153
1.40188
1.37539
1.35968
1.35192
1.34741
1.34558
1.34805
1.35571
1.39349
1.45694
1.49467
1.50812
1.51674
1.52157
1.51938
1.50801
1.47436
1.43894
1.42271
1.42056
1.42682
1.4346
1.46019
1.51769
1.56183
1.58219
1.59364
1.60475
1.61296
1.60727
1.58355
1.5383
1.49859
1.48074
1.47623
1.48446
1.52819
1.57694
1.60119
1.60377
1.60205
1.59687
1.615
3.73281
21.2041
1.07736
1.07493
1.0941
1.14402
1.19161
1.21008
1.21541
1.21467
1.20384
1.16397
1.12655
1.11624
1.11709
1.12198
1.13979
1.17248
1.20419
1.23097
1.24357
1.24027
1.23141
1.23159
1.23667
1.24362
1.24753
1.2433
1.23284
1.21725
1.19956
1.19367
1.19651
1.20526
1.24891
1.32247
1.35975
1.37281
1.37885
1.36823
1.33768
1.30573
1.27684
1.26769
1.27467
1.28767
1.29543
1.29878
1.29831
1.31031
1.34863
1.38346
1.4038
1.4189
1.43277
1.44208
1.4438
1.42466
1.38776
1.35758
1.34277
1.33996
1.34293
1.34803
1.36079
1.40955
1.47364
1.50368
1.51449
1.51863
1.51774
1.51795
1.51299
1.4823
1.44735
1.43064
1.42643
1.42594
1.42978
1.45365
1.5171
1.56633
1.58837
1.60032
1.60805
1.60945
1.60621
1.58239
1.52771
1.4866
1.47061
1.46806
1.47855
1.52889
1.57663
1.59187
1.59117
1.58467
1.62301
3.77466
21.281
1.06057
1.06226
1.08198
1.15428
1.20778
1.22097
1.22637
1.22331
1.18828
1.14507
1.12531
1.12005
1.1227
1.14234
1.17573
1.19027
1.19353
1.1938
1.19968
1.21331
1.22479
1.23805
1.2533
1.26513
1.27034
1.26527
1.24224
1.21469
1.19782
1.19423
1.19671
1.20373
1.23185
1.29825
1.34775
1.36364
1.35916
1.33868
1.32955
1.32604
1.3185
1.31001
1.30603
1.30502
1.30253
1.29206
1.27791
1.27558
1.28873
1.33071
1.38378
1.42175
1.44247
1.45264
1.45747
1.45599
1.42884
1.37977
1.34901
1.34155
1.34487
1.35273
1.37073
1.38985
1.42051
1.46747
1.4954
1.50632
1.51089
1.51393
1.51991
1.51984
1.49104
1.4522
1.42885
1.42088
1.42188
1.42713
1.45099
1.51565
1.5651
1.58502
1.594
1.59868
1.59735
1.59791
1.57379
1.51976
1.48346
1.46926
1.46618
1.48026
1.53128
1.5675
1.57632
1.57039
1.61617
3.83919
21.3442
1.0584
1.06647
1.10841
1.16692
1.20597
1.22029
1.21928
1.19256
1.16195
1.14638
1.13804
1.14031
1.1581
1.18465
1.19712
1.19634
1.1754
1.15503
1.15339
1.17319
1.21204
1.24581
1.27206
1.28709
1.29452
1.29431
1.26469
1.2224
1.20343
1.20086
1.20646
1.22342
1.23974
1.26039
1.2966
1.32092
1.32692
1.32887
1.33419
1.34481
1.35945
1.36039
1.34504
1.32591
1.30486
1.27722
1.26058
1.25947
1.26522
1.27924
1.33196
1.408
1.4428
1.45206
1.45482
1.44699
1.43102
1.41289
1.3858
1.36744
1.36451
1.3701
1.37787
1.38304
1.38665
1.40662
1.45507
1.4901
1.50556
1.51488
1.52188
1.52685
1.52528
1.49359
1.45371
1.43325
1.4252
1.4225
1.42548
1.44759
1.51146
1.55977
1.57945
1.58999
1.59366
1.59435
1.59516
1.56907
1.51997
1.48147
1.46588
1.46401
1.47806
1.52204
1.54986
1.55239
1.60336
3.91316
21.3944
1.06851
1.11069
1.14365
1.15717
1.17297
1.17885
1.17133
1.1598
1.15635
1.16075
1.17297
1.19597
1.21179
1.217
1.21125
1.18101
1.14512
1.13126
1.1318
1.14078
1.18293
1.25107
1.29308
1.31035
1.31861
1.31774
1.29026
1.24326
1.21888
1.21457
1.22077
1.23353
1.24
1.24283
1.24355
1.26059
1.29346
1.32282
1.34598
1.37227
1.38982
1.39434
1.38521
1.3543
1.30747
1.27091
1.25777
1.25908
1.26488
1.27395
1.29749
1.3575
1.4115
1.42953
1.43224
1.42792
1.42477
1.42967
1.43375
1.42439
1.40496
1.39072
1.38106
1.37351
1.3708
1.3739
1.39906
1.45792
1.4991
1.51592
1.52197
1.52494
1.52935
1.52629
1.4986
1.46479
1.43977
1.42621
1.42133
1.4225
1.44203
1.50193
1.55054
1.57314
1.58473
1.58913
1.59424
1.59476
1.57097
1.52174
1.47612
1.4574
1.45565
1.46889
1.50922
1.52796
1.58549
3.98774
21.425
1.11832
1.15505
1.1586
1.14382
1.11945
1.11596
1.13257
1.15143
1.1704
1.20157
1.23337
1.24838
1.25147
1.24129
1.20252
1.14815
1.12284
1.11868
1.12084
1.12789
1.15822
1.24648
1.30447
1.32031
1.32553
1.32107
1.30356
1.27225
1.24121
1.22983
1.23128
1.23617
1.23707
1.22674
1.21844
1.22336
1.24667
1.29484
1.34948
1.38656
1.40345
1.40974
1.41048
1.38956
1.33251
1.2816
1.265
1.26629
1.27399
1.28938
1.30761
1.32112
1.34284
1.37589
1.40179
1.41666
1.42913
1.4469
1.46069
1.46806
1.45875
1.42195
1.38597
1.36849
1.36399
1.36645
1.37587
1.40939
1.47129
1.5069
1.51874
1.5219
1.52775
1.53298
1.5327
1.51075
1.47563
1.44361
1.42424
1.41595
1.41532
1.43191
1.48587
1.5382
1.56741
1.58208
1.58754
1.59334
1.59377
1.57172
1.52031
1.46972
1.44802
1.4436
1.45918
1.4911
1.55895
4.05953
21.4328
1.16228
1.1696
1.14763
1.10191
1.07846
1.07631
1.08757
1.13521
1.20502
1.25927
1.27941
1.28463
1.27839
1.24643
1.17737
1.13214
1.11829
1.11706
1.12155
1.14117
1.18507
1.23819
1.28954
1.31274
1.31621
1.29883
1.28353
1.27993
1.27299
1.25964
1.25205
1.24779
1.23798
1.21976
1.21288
1.2153
1.22236
1.24918
1.32492
1.38471
1.40213
1.40558
1.39327
1.36911
1.34465
1.31774
1.29702
1.29239
1.29662
1.30412
1.30985
1.30494
1.29997
1.30945
1.34568
1.39847
1.44091
1.46651
1.48031
1.48927
1.49068
1.46368
1.41044
1.3763
1.36677
1.36987
1.38362
1.39657
1.42194
1.47275
1.50497
1.51728
1.52322
1.52951
1.53892
1.53928
1.52016
1.47805
1.43819
1.41658
1.40815
1.40789
1.41958
1.47282
1.53505
1.5683
1.58155
1.58741
1.59126
1.58473
1.56272
1.51609
1.46199
1.43582
1.43253
1.44098
1.52072
4.116
21.4307
1.19132
1.15842
1.09954
1.07042
1.06466
1.06687
1.07376
1.11631
1.22744
1.28089
1.29442
1.30035
1.28775
1.22857
1.16986
1.13736
1.12465
1.12463
1.14522
1.18875
1.21343
1.22367
1.23872
1.2583
1.26907
1.27272
1.2776
1.28847
1.30062
1.30165
1.28707
1.26792
1.2435
1.22306
1.21769
1.22207
1.22962
1.2427
1.2796
1.34013
1.37014
1.37366
1.36875
1.36316
1.358
1.3564
1.35153
1.34046
1.33
1.32108
1.30728
1.28862
1.27894
1.27989
1.28951
1.34687
1.43358
1.47488
1.4887
1.49563
1.4913
1.48015
1.45122
1.40756
1.38565
1.38537
1.39238
1.39425
1.39645
1.41499
1.46611
1.50189
1.51658
1.52813
1.54069
1.54498
1.54094
1.52224
1.47731
1.43479
1.41109
1.40365
1.40527
1.4157
1.46933
1.53598
1.56788
1.5783
1.58232
1.58099
1.57224
1.55642
1.51325
1.45842
1.42611
1.41051
1.46843
4.13657
21.4313
1.19673
1.11561
1.06828
1.05812
1.05833
1.06397
1.08928
1.15782
1.23095
1.2753
1.29085
1.28548
1.24264
1.20091
1.17707
1.1587
1.15227
1.16386
1.19553
1.21468
1.21849
1.21235
1.19013
1.18623
1.20938
1.24821
1.27848
1.30244
1.32297
1.33193
1.32885
1.30354
1.26442
1.23446
1.22608
1.22857
1.23472
1.24403
1.25705
1.27895
1.30967
1.33433
1.35011
1.3619
1.37587
1.38896
1.39581
1.39456
1.37999
1.34861
1.30873
1.28382
1.2771
1.27865
1.28382
1.31341
1.39078
1.46063
1.48508
1.49019
1.47745
1.46884
1.47087
1.45775
1.42918
1.41179
1.40168
1.39448
1.3905
1.39202
1.4076
1.45996
1.50297
1.52225
1.5302
1.53554
1.53894
1.53972
1.5219
1.47706
1.43553
1.41222
1.4053
1.40533
1.41398
1.46406
1.5259
1.55883
1.57093
1.5761
1.57353
1.56408
1.55212
1.5139
1.46218
1.41048
1.41713
4.10467
21.4569
1.17112
1.08453
1.06121
1.05895
1.06077
1.08376
1.14279
1.18387
1.21044
1.2332
1.23858
1.22269
1.20556
1.19818
1.19453
1.19704
1.21142
1.2294
1.23671
1.23425
1.21517
1.17422
1.15331
1.15326
1.1646
1.20209
1.26512
1.31424
1.33757
1.34623
1.34857
1.33998
1.30163
1.25442
1.23696
1.23731
1.2451
1.25321
1.25887
1.25464
1.25652
1.27614
1.31434
1.35709
1.39247
1.41567
1.42533
1.42922
1.42518
1.38836
1.32723
1.29174
1.28406
1.28646
1.30608
1.33579
1.35679
1.39713
1.44294
1.46078
1.46279
1.46523
1.47301
1.48419
1.48415
1.45521
1.42418
1.40321
1.39078
1.38199
1.38097
1.39902
1.45262
1.49545
1.51695
1.53374
1.54082
1.54138
1.53602
1.51384
1.47805
1.43829
1.41093
1.40176
1.4009
1.40587
1.45344
1.52134
1.55964
1.57252
1.57675
1.56798
1.55845
1.54602
1.51319
1.45133
1.40472
4.02134
21.519
1.14488
1.08425
1.06781
1.06803
1.08826
1.14562
1.17719
1.18347
1.18526
1.17155
1.16455
1.17537
1.19087
1.20368
1.22847
1.26121
1.27719
1.27599
1.26634
1.24086
1.18269
1.14501
1.13778
1.14054
1.14823
1.16795
1.22972
1.31123
1.34148
1.34752
1.34072
1.32491
1.3132
1.30004
1.28217
1.27434
1.27427
1.2726
1.25895
1.24186
1.23619
1.24005
1.2578
1.3194
1.39433
1.42642
1.43579
1.44011
1.43458
1.41032