/*--------------------------------*- C++ -*----------------------------------*\
  =========                 |
  \\      /  F ield         | OpenFOAM: The Open Source CFD Toolbox
   \\    /   O peration     | Website:  https://openfoam.org
    \\  /    A nd           | Version:  12
     \\/     M anipulation  |
\*---------------------------------------------------------------------------*/
FoamFile
{
    format      ascii;
    class       volScalarField;
    location    "27";
    object      T;
}
// * * * * * * * * * * * * * * * * * * * * * * * * * * * * * * * * * * * * * //

dimensions      [0 0 0 1 0 0 0];

internalField   nonuniform List<scalar> 
9801
(
0.800735
0.802353
0.800874
0.798907
0.79669
0.795201
0.793526
0.790566
0.786733
0.784535
0.784515
0.785703
0.787226
0.788876
0.791544
0.799514
0.821499
0.838832
0.843771
0.845185
0.845723
0.840748
0.823614
0.805853
0.79949
0.799162
0.800714
0.804088
0.808851
0.817431
0.835633
0.85178
0.857563
0.85928
0.859908
0.859076
0.850736
0.833528
0.821598
0.818602
0.818899
0.820727
0.824036
0.829023
0.840058
0.857389
0.867717
0.871679
0.873636
0.874604
0.871534
0.859841
0.850054
0.847996
0.848099
0.849376
0.855701
0.863213
0.867809
0.871074
0.874266
0.877282
0.879217
0.879549
0.879802
0.880483
0.881788
0.884043
0.887093
0.890367
0.893552
0.896345
0.899356
0.899071
0.89394
0.893795
0.89676
0.900359
0.906863
0.919857
0.931094
0.936504
0.939212
0.940849
0.941493
0.933572
0.920947
0.914185
0.915142
0.919315
0.929312
0.949263
0.967252
0.982321
0.993307
0.997698
0.98246
1.07422
1.50898
0.799172
0.801428
0.802203
0.802856
0.802849
0.80251
0.80028
0.795918
0.791351
0.789738
0.790397
0.791952
0.794049
0.797472
0.802149
0.809784
0.824618
0.838326
0.842894
0.843575
0.841121
0.835602
0.826641
0.81563
0.809666
0.809157
0.810701
0.812927
0.815958
0.822428
0.837729
0.852013
0.857526
0.858845
0.858634
0.855293
0.848074
0.839881
0.831972
0.828104
0.828095
0.829432
0.831547
0.835543
0.84619
0.861019
0.869747
0.873408
0.875022
0.875449
0.87044
0.861886
0.857177
0.855807
0.856112
0.857524
0.863421
0.870104
0.874209
0.877235
0.880115
0.882771
0.884122
0.883757
0.883479
0.88372
0.885332
0.890279
0.894708
0.897168
0.898767
0.900941
0.903794
0.90448
0.901052
0.899934
0.902505
0.905725
0.910175
0.921407
0.932511
0.937963
0.940959
0.943275
0.945289
0.940447
0.929139
0.923627
0.925256
0.93043
0.938217
0.954511
0.970369
0.983176
0.993769
0.997723
0.981344
1.07097
1.5327
0.796678
0.805921
0.810203
0.811697
0.812137
0.812711
0.810844
0.803457
0.798539
0.797838
0.799196
0.801294
0.805211
0.809918
0.814408
0.820551
0.829949
0.837138
0.840294
0.840888
0.840201
0.839003
0.835621
0.830461
0.825663
0.823734
0.823728
0.824933
0.826778
0.832203
0.844178
0.85309
0.85728
0.858756
0.859269
0.857877
0.853795
0.850382
0.847813
0.844421
0.841981
0.841537
0.842605
0.846355
0.857791
0.868765
0.874908
0.878264
0.879983
0.880292
0.874973
0.870267
0.869399
0.869465
0.870221
0.872014
0.876675
0.881699
0.886137
0.889883
0.892959
0.895374
0.895996
0.893954
0.893683
0.894839
0.897356
0.903163
0.907374
0.909211
0.911071
0.913912
0.917301
0.919863
0.918116
0.916067
0.916716
0.919105
0.921991
0.929408
0.94157
0.94857
0.952373
0.955733
0.958697
0.957087
0.950667
0.948002
0.950183
0.956156
0.963547
0.975435
0.991783
1.00639
1.01985
1.02722
1.01582
1.1055
1.56937
0.796193
0.811478
0.821284
0.824624
0.825422
0.825965
0.826133
0.81888
0.811451
0.810863
0.812668
0.816502
0.821225
0.824723
0.827996
0.831965
0.835861
0.839098
0.842066
0.84517
0.847265
0.848406
0.849634
0.846153
0.841598
0.839993
0.83988
0.840762
0.842358
0.846258
0.854101
0.860168
0.863375
0.865271
0.866384
0.867215
0.86633
0.864759
0.862728
0.860738
0.859656
0.859706
0.860854
0.865442
0.875817
0.882971
0.887093
0.890102
0.892178
0.892344
0.887875
0.885901
0.885886
0.886131
0.886991
0.889217
0.894724
0.900199
0.90497
0.909275
0.912676
0.915078
0.914997
0.912051
0.911333
0.912415
0.91457
0.919865
0.925657
0.928878
0.931626
0.935407
0.939897
0.943909
0.943673
0.938997
0.936663
0.937581
0.940244
0.944297
0.955502
0.966517
0.972813
0.977691
0.982417
0.984849
0.983391
0.981816
0.981879
0.985727
0.992783
1.00089
1.01343
1.02818
1.04321
1.05251
1.0482
1.15784
1.6149
0.800927
0.81496
0.832433
0.839031
0.840196
0.840586
0.840893
0.837742
0.83032
0.828445
0.830295
0.834047
0.837717
0.840475
0.840762
0.840032
0.841046
0.845518
0.851853
0.85728
0.860844
0.863061
0.865173
0.864384
0.858675
0.855634
0.854597
0.854602
0.855815
0.859418
0.867761
0.873484
0.876225
0.878123
0.879752
0.881229
0.88016
0.877887
0.877062
0.876457
0.876489
0.878187
0.881257
0.889538
0.898118
0.902671
0.905522
0.90782
0.909599
0.908117
0.903184
0.901104
0.901212
0.902246
0.904343
0.909284
0.917397
0.923687
0.928457
0.93246
0.935631
0.937967
0.937507
0.932651
0.93018
0.930644
0.932549
0.937106
0.945497
0.951829
0.956031
0.960184
0.964235
0.967685
0.968857
0.962582
0.956183
0.95479
0.956737
0.960198
0.968287
0.98263
0.993172
0.999839
1.0057
1.01129
1.01471
1.01441
1.01261
1.01225
1.01359
1.01969
1.0288
1.04207
1.05663
1.06649
1.06604
1.1967
1.6523
0.811361
0.819689
0.838758
0.851807
0.855396
0.856033
0.856384
0.85696
0.854262
0.849857
0.849341
0.851319
0.852503
0.851411
0.849558
0.849415
0.850546
0.856106
0.866822
0.873926
0.877142
0.879303
0.881225
0.879598
0.871298
0.867291
0.867388
0.86907
0.871708
0.877422
0.88544
0.890796
0.893294
0.894922
0.896288
0.895662
0.89146
0.889584
0.890684
0.892977
0.895282
0.897674
0.90289
0.913481
0.92084
0.924013
0.926064
0.927951
0.928277
0.922628
0.91583
0.913943
0.915071
0.917594
0.921323
0.928836
0.939132
0.946266
0.950829
0.954089
0.956553
0.958408
0.957565
0.950851
0.945551
0.944717
0.94614
0.949365
0.957939
0.969438
0.977665
0.982743
0.98621
0.98868
0.989778
0.984839
0.975118
0.96944
0.968635
0.971467
0.976974
0.989113
1.00355
1.01441
1.02388
1.03189
1.03737
1.03831
1.03461
1.02962
1.02722
1.02835
1.03433
1.04385
1.05809
1.07015
1.07314
1.22337
1.67685
0.826133
0.832133
0.84244
0.859015
0.867674
0.870767
0.872339
0.874284
0.875887
0.872894
0.867421
0.864567
0.861769
0.860155
0.860379
0.861679
0.863237
0.868778
0.881207
0.889021
0.891682
0.893241
0.893003
0.887117
0.880449
0.87887
0.879858
0.88223
0.886421
0.893181
0.90111
0.906343
0.909071
0.910339
0.909332
0.905142
0.901078
0.900564
0.902494
0.905797
0.909674
0.914065
0.922412
0.933447
0.939234
0.941802
0.943455
0.943978
0.941314
0.932409
0.924816
0.923774
0.925697
0.928851
0.93327
0.942125
0.955295
0.96403
0.968273
0.9708
0.972889
0.974402
0.972918
0.965125
0.956312
0.952493
0.952899
0.955526
0.961698
0.976789
0.991596
1.0001
1.00488
1.00765
1.00868
1.00429
0.993187
0.983503
0.979043
0.979171
0.982735
0.989483
1.003
1.01993
1.03442
1.04381
1.04946
1.05279
1.05118
1.044
1.03641
1.03312
1.03515
1.04145
1.05339
1.06918
1.07603
1.23948
1.69103
0.845467
0.850678
0.851807
0.858094
0.87205
0.881258
0.885436
0.887696
0.889441
0.890959
0.886731
0.87634
0.870227
0.868349
0.869234
0.870747
0.872821
0.878884
0.891002
0.898365
0.900599
0.900851
0.897506
0.892213
0.88977
0.890165
0.891845
0.895577
0.901295
0.906917
0.912306
0.916499
0.918001
0.917377
0.91489
0.912376
0.910742
0.91088
0.912266
0.914402
0.918035
0.925505
0.937124
0.946541
0.950873
0.952521
0.952803
0.951521
0.947992
0.940013
0.932687
0.930945
0.932789
0.935629
0.939701
0.948431
0.964148
0.975194
0.979443
0.982025
0.984485
0.985191
0.982137
0.973974
0.963492
0.956913
0.955843
0.957951
0.96145
0.973576
0.996287
1.0116
1.01863
1.0223
1.02357
1.01978
1.00817
0.996237
0.989873
0.987854
0.989197
0.99275
0.999086
1.01502
1.03507
1.04858
1.05471
1.05847
1.06089
1.05676
1.04803
1.04031
1.03724
1.0387
1.0449
1.06115
1.07235
1.25012
1.69943
0.86298
0.864287
0.862385
0.862349
0.867386
0.882824
0.89256
0.895533
0.896989
0.898503
0.897731
0.889369
0.880275
0.877909
0.878711
0.880385
0.882645
0.886809
0.894157
0.900434
0.902691
0.902503
0.900305
0.899232
0.899879
0.901484
0.905834
0.911747
0.916182
0.918777
0.920272
0.919928
0.918409
0.918086
0.918726
0.919752
0.920503
0.920594
0.921972
0.924887
0.929534
0.935876
0.944258
0.95141
0.954555
0.955453
0.955104
0.954303
0.952435
0.946921
0.940091
0.937137
0.937359
0.939214
0.941898
0.948556
0.966102
0.980994
0.986322
0.988836
0.990122
0.988757
0.985709
0.978736
0.968104
0.960805
0.959035
0.960443
0.962903
0.968997
0.993437
1.01699
1.02551
1.02991
1.03229
1.03048
1.02069
1.00744
1.00023
0.997834
0.997709
0.999368
1.00225
1.00926
1.029
1.04789
1.05732
1.06148
1.0644
1.06395
1.05891
1.05099
1.04282
1.03872
1.0395
1.04954
1.06254
1.25516
1.70448
0.875919
0.870646
0.867541
0.866622
0.867052
0.875013
0.892165
0.900614
0.903689
0.90571
0.907038
0.903804
0.894682
0.889596
0.889054
0.890267
0.891633
0.891834
0.89192
0.895607
0.900818
0.904106
0.906105
0.907654
0.912335
0.918704
0.922354
0.923996
0.925472
0.926059
0.92239
0.917363
0.916264
0.917812
0.921331
0.925118
0.927968
0.931766
0.935352
0.938003
0.940324
0.942782
0.946505
0.95095
0.953779
0.954955
0.955714
0.956638
0.957296
0.954126
0.946787
0.942752
0.942487
0.943723
0.945757
0.950669
0.964236
0.981626
0.989596
0.991806
0.991012
0.988526
0.986807
0.982826
0.972756
0.964888
0.963208
0.964833
0.967918
0.974162
0.990262
1.01459
1.02747
1.03254
1.0341
1.0322
1.02774
1.01923
1.01102
1.00745
1.00752
1.00963
1.01232
1.01524
1.02381
1.0417
1.05515
1.06185
1.06628
1.0689
1.06434
1.05864
1.05097
1.04108
1.0357
1.03952
1.05186
1.25594
1.70723
0.882349
0.871431
0.868875
0.868191
0.868505
0.870733
0.885567
0.902678
0.909169
0.911706
0.913738
0.91424
0.910235
0.902038
0.897365
0.895282
0.892182
0.889444
0.889244
0.890806
0.896116
0.903381
0.909899
0.919515
0.92765
0.931399
0.933569
0.934002
0.932118
0.92593
0.9188
0.916212
0.916586
0.918155
0.921679
0.928358
0.937794
0.943749
0.946326
0.947319
0.946997
0.94651
0.945973
0.94686
0.950714
0.954688
0.957056
0.958829
0.960412
0.960334
0.953662
0.949038
0.948648
0.950069
0.954129
0.961149
0.967246
0.976205
0.985452
0.98901
0.989078
0.987753
0.987287
0.986532
0.981308
0.97312
0.970448
0.972282
0.977261
0.984268
0.991816
1.00504
1.01991
1.02694
1.0295
1.03036
1.02951
1.02797
1.02376
1.01959
1.01831
1.01942
1.02156
1.02413
1.02718
1.03639
1.05004
1.05884
1.06401
1.06802
1.06713
1.06271
1.05731
1.04795
1.03801
1.03411
1.04433
1.25393
1.70902
0.8804
0.870385
0.868716
0.868755
0.869594
0.873609
0.886381
0.901366
0.910595
0.915279
0.918149
0.919959
0.91819
0.911818
0.90368
0.895103
0.89014
0.889135
0.889659
0.891383
0.896325
0.90511
0.918353
0.928883
0.933716
0.936255
0.937883
0.937486
0.93106
0.922234
0.918093
0.917973
0.919075
0.920898
0.92521
0.937098
0.946897
0.950452
0.952294
0.953405
0.950851
0.944868
0.942036
0.942461
0.947161
0.955116
0.959607
0.961843
0.963531
0.964454
0.960532
0.956697
0.956431
0.958323
0.963989
0.968343
0.970417
0.971321
0.973442
0.980217
0.986361
0.989003
0.990142
0.990604
0.990884
0.986957
0.982792
0.982857
0.986202
0.990516
0.993952
0.997735
1.00645
1.01805
1.02549
1.02964
1.03267
1.03484
1.03535
1.0337
1.03149
1.03012
1.02947
1.02975
1.03169
1.03529
1.04447
1.05407
1.05971
1.06362
1.06502
1.06336
1.06011
1.05528
1.04708
1.03941
1.03892
1.25153
1.71127
0.873707
0.869515
0.869682
0.870684
0.873237
0.880688
0.896159
0.907105
0.912211
0.91605
0.918761
0.920331
0.918633
0.909263
0.898465
0.892688
0.891475
0.891785
0.892587
0.895441
0.904859
0.917927
0.927047
0.932454
0.936132
0.938287
0.937859
0.93175
0.925044
0.921572
0.920954
0.921557
0.923092
0.926214
0.935417
0.946876
0.952419
0.95472
0.956405
0.956943
0.949468
0.940905
0.939286
0.940744
0.945353
0.955644
0.962902
0.966173
0.967904
0.968801
0.967365
0.965408
0.965169
0.966674
0.970228
0.972385
0.97133
0.966682
0.965685
0.96958
0.981075
0.990524
0.994618
0.99716
1.00018
1.00227
0.999371
0.994311
0.992913
0.993696
0.994512
0.995977
0.999346
1.00597
1.01679
1.02609
1.03248
1.03622
1.0395
1.0422
1.04406
1.04292
1.03843
1.03444
1.03373
1.03573
1.03989
1.04799
1.05508
1.05916
1.06117
1.06125
1.06061
1.05999
1.05863
1.05226
1.04414
1.24769
1.71446
0.868833
0.869735
0.870788
0.873034
0.879111
0.893455
0.906771
0.913137
0.916084
0.917638
0.918301
0.915436
0.907691
0.900426
0.896917
0.895914
0.895713
0.896348
0.898406
0.908071
0.921034
0.927802
0.931443
0.934498
0.936376
0.934852
0.928699
0.924539
0.923608
0.924174
0.924974
0.926424
0.929522
0.936376
0.94471
0.95158
0.955895
0.957903
0.95877
0.955989
0.946606
0.939875
0.939047
0.940352
0.943912
0.955079
0.965578
0.969979
0.972314
0.973185
0.973159
0.972929
0.972837
0.973428
0.974123
0.973174
0.969604
0.965046
0.963854
0.966325
0.973391
0.988231
0.999178
1.00623
1.01116
1.01342
1.01375
1.00731
0.99957
0.996981
0.997301
0.997483
0.997356
0.999674
1.00447
1.01359
1.02394
1.03231
1.03839
1.04385
1.04851
1.05146
1.04894
1.04141
1.03627
1.03589
1.0378
1.04128
1.04772
1.05312
1.05651
1.05822
1.05998
1.06356
1.0657
1.06423
1.0566
1.24524
1.7177
0.866489
0.869807
0.872068
0.879674
0.891386
0.902449
0.910523
0.91583
0.917698
0.916669
0.912262
0.905875
0.899146
0.89574
0.896175
0.897695
0.898999
0.901801
0.912279
0.924849
0.931437
0.934107
0.935599
0.936325
0.933025
0.927188
0.923399
0.921753
0.922643
0.924959
0.928162
0.932348
0.93824
0.945754
0.951749
0.954744
0.95701
0.958157
0.957945
0.954278
0.94719
0.942258
0.941377
0.942475
0.945316
0.952964
0.964154
0.971119
0.974325
0.975399
0.976097
0.977695
0.97908
0.97903
0.977942
0.977028
0.973285
0.967043
0.964573
0.966453
0.970045
0.981111
0.999553
1.01163
1.01773
1.02092
1.02254
1.02077
1.01139
1.00479
1.00284
1.00161
0.999502
0.998016
0.998171
1.0003
1.00719
1.02045
1.03405
1.04268
1.04788
1.05196
1.05352
1.04919
1.04109
1.03642
1.03613
1.03776
1.04026
1.04431
1.04948
1.0546
1.06035
1.06712
1.07243
1.0734
1.06963
1.24579
1.71988
0.868445
0.872709
0.882491
0.894717
0.901149
0.904601
0.909153
0.911721
0.910996
0.90841
0.905994
0.903048
0.89886
0.895943
0.896495
0.89837
0.90342
0.914146
0.9255
0.933253
0.937466
0.939106
0.939328
0.934067
0.927855
0.925332
0.924477
0.923229
0.92376
0.925827
0.930773
0.937114
0.942345
0.948875
0.955503
0.958228
0.958207
0.957663
0.957811
0.956287
0.950106
0.946293
0.946603
0.948782
0.952224
0.954108
0.957749
0.965341
0.971201
0.975021
0.978633
0.981686
0.984354
0.986571
0.986669
0.984176
0.978452
0.971121
0.967053
0.967287
0.9696
0.973597
0.989671
1.01009
1.01921
1.02233
1.02383
1.02483
1.02339
1.01826
1.01318
1.00927
1.00476
0.999574
0.996144
0.995469
0.997245
1.00508
1.02353
1.03926
1.04729
1.05217
1.05448
1.05259
1.04639
1.03865
1.03422
1.03322
1.03383
1.03662
1.04144
1.05003
1.06028
1.06987
1.07657
1.07772
1.07761
1.24644
1.72191
0.876917
0.889165
0.898928
0.903647
0.904613
0.902675
0.899659
0.899774
0.903728
0.906515
0.90741
0.906322
0.902525
0.90239
0.904963
0.910185
0.917252
0.923379
0.928798
0.934965
0.937669
0.937659
0.934312
0.930144
0.928421
0.928058
0.928306
0.930024
0.932741
0.936189
0.9388
0.939381
0.94095
0.945592
0.952385
0.956008
0.957983
0.960284
0.961618
0.961083
0.957835
0.955513
0.955239
0.955826
0.955922
0.954468
0.952697
0.954216
0.962825
0.973983
0.982486
0.989034
0.994035
0.997629
0.999285
0.995269
0.985409
0.976265
0.971096
0.969539
0.970153
0.971555
0.976508
0.996763
1.01439
1.02056
1.02398
1.02806
1.03156
1.03085
1.02466
1.01679
1.0088
1.00096
0.995332
0.993853
0.994916
0.998004
1.01253
1.03315
1.0448
1.05079
1.05444
1.05426
1.05
1.04292
1.03532
1.03062
1.02942
1.03084
1.03398
1.04235
1.05647
1.06828
1.07725
1.08014
1.08063
1.24781
1.72341
0.896365
0.905409
0.907775
0.908027
0.901437
0.892172
0.888613
0.889361
0.896671
0.905559
0.909775
0.912363
0.915541
0.917662
0.919031
0.920814
0.923019
0.925004
0.927477
0.929734
0.931384
0.931923
0.931823
0.931834
0.932651
0.934989
0.939644
0.943076
0.944405
0.943143
0.940553
0.938339
0.936907
0.937562
0.944829
0.95585
0.962653
0.966417
0.96937
0.971439
0.970462
0.965759
0.962183
0.959824
0.955679
0.950304
0.948058
0.948684
0.953205
0.968286
0.986634
0.999813
1.00659
1.00941
1.01077
1.00705
0.993076
0.978896
0.971072
0.968518
0.969039
0.970711
0.973682
0.981827
1.00445
1.02163
1.02882
1.03211
1.03455
1.03501
1.03356
1.02651
1.0145
1.00336
0.997309
0.995898
0.996935
0.999073
1.00823
1.02791
1.04182
1.04856
1.0524
1.05311
1.05009
1.04717
1.04203
1.03471
1.02865
1.02634
1.02843
1.03361
1.04699
1.06327
1.07437
1.07832
1.08023
1.25148
1.72476
0.915429
0.916994
0.914809
0.904732
0.89021
0.883884
0.88339
0.884957
0.891014
0.903762
0.91605
0.925224
0.929559
0.931145
0.92991
0.927506
0.926227
0.923705
0.921558
0.92127
0.923372
0.927874
0.93231
0.935873
0.941526
0.948247
0.952362
0.954399
0.955059
0.949305
0.939614
0.93268
0.930764
0.931326
0.936331
0.953705
0.968943
0.976516
0.979879
0.982151
0.981814
0.974958
0.966575
0.958149
0.950772
0.94686
0.9461
0.947269
0.950474
0.960644
0.987872
1.00732
1.01347
1.01589
1.01625
1.01388
1.00237
0.982537
0.971643
0.968924
0.969526
0.972241
0.976472
0.98335
0.992944
1.01142
1.02586
1.03196
1.03453
1.0356
1.03523
1.03269
1.02402
1.01194
1.00345
1.00123
1.00255
1.00531
1.01389
1.0272
1.03848
1.04609
1.05029
1.05157
1.04904
1.04802
1.04833
1.04444
1.0351
1.02804
1.02657
1.02914
1.03586
1.05143
1.06627
1.0727
1.07816
1.2578
1.72709
0.926848
0.926291
0.916687
0.89514
0.881813
0.879477
0.88017
0.881928
0.88892
0.908253
0.927376
0.934452
0.937149
0.938516
0.936788
0.931536
0.923443
0.918695
0.917446
0.918077
0.919989
0.924063
0.932406
0.94387
0.953781
0.958017
0.959473
0.96051
0.96051
0.953072
0.936294
0.928239
0.927477
0.928531
0.93242
0.948583
0.973008
0.982964
0.986762
0.988838
0.987659
0.981605
0.968955
0.955272
0.948277
0.946292
0.946643
0.949714
0.95867
0.971266
0.985289
1.00422
1.01448
1.01739
1.015
1.00887
1.00036
0.987572
0.975434
0.971225
0.971958
0.977628
0.987125
0.994622
0.999377
1.0025
1.00849
1.01893
1.02766
1.03133
1.03205
1.03263
1.03197
1.02368
1.01389
1.00995
1.01088
1.01505
1.02373
1.03092
1.03545
1.0403
1.04563
1.04771
1.04711
1.04723
1.04866
1.0506
1.04783
1.03978
1.03327
1.03197
1.03236
1.03795
1.053
1.06275
1.07329
1.2654
1.73052
0.934616
0.932848
0.910847
0.889091
0.881328
0.880445
0.881103
0.883779
0.896026
0.919744
0.933271
0.93798
0.940309
0.940833
0.937279
0.927691
0.920646
0.917719
0.917541
0.918578
0.920484
0.923311
0.931693
0.949847
0.959966
0.963398
0.964872
0.964294
0.958592
0.946206
0.9331
0.927793
0.927729
0.929668
0.936155
0.951302
0.971138
0.984483
0.989103
0.989981
0.984124
0.973656
0.965183
0.957279
0.950009
0.948225
0.950686
0.962472
0.976013
0.981659
0.983506
0.98748
0.997582
1.00363
1.00423
1.00249
0.999621
0.994505
0.986175
0.981699
0.98417
0.991642
0.997791
1.00119
1.00139
0.996976
0.994724
0.997634
1.00879
1.0218
1.02812
1.03078
1.03232
1.03023
1.02585
1.02417
1.02524
1.02893
1.03339
1.03551
1.035
1.03474
1.03528
1.03862
1.04273
1.04589
1.04863
1.05184
1.05526
1.05437
1.04666
1.03926
1.03478
1.03395
1.0384
1.04635
1.06173
1.2749
1.73477
0.935679
0.925348
0.901904
0.889665
0.885064
0.884447
0.886245
0.895181
0.912842
0.926607
0.935045
0.939388
0.941318
0.938849
0.930486
0.924522
0.922094
0.920417
0.919932
0.920912
0.923628
0.930187
0.939978
0.951224
0.96102
0.964887
0.965462
0.961737
0.953296
0.942066
0.933832
0.930247
0.930569
0.935889
0.94894
0.95761
0.964054
0.974212
0.979754
0.97829
0.971522
0.964845
0.962622
0.962124
0.96008
0.960791
0.969725
0.979224
0.98321
0.98375
0.980035
0.973587
0.972938
0.981956
0.992744
0.997726
0.999146
0.999995
1.00044
1.0019
1.0043
1.00618
1.00704
1.00619
0.999602
0.990407
0.986771
0.987287
0.991344
1.00549
1.02064
1.02747
1.03105
1.03292
1.0349
1.03899
1.04269
1.04385
1.04254
1.03915
1.03419
1.02892
1.0262
1.02782
1.03589
1.04372
1.04937
1.05605
1.0621
1.06339
1.05735
1.04865
1.04037
1.03321
1.0299
1.02872
1.04514
1.28316
1.73756
0.926892
0.91066
0.900215
0.894468
0.893258
0.89547
0.903808
0.915751
0.925341
0.931619
0.934685
0.936169
0.934167
0.928676
0.926247
0.926489
0.926178
0.92568
0.926426
0.929465
0.935572
0.941611
0.944286
0.947629
0.953669
0.956412
0.955487
0.952595
0.948844
0.944045
0.939065
0.93851
0.942335
0.952078
0.959015
0.960767
0.961219
0.959294
0.958155
0.960464
0.963751
0.965688
0.966728
0.968125
0.975412
0.986723
0.991665
0.991081
0.987703
0.979901
0.968672
0.962301
0.961531
0.965025
0.976279
0.989083
0.997225
1.00406
1.01421
1.02187
1.02355
1.02062
1.01651
1.00927
0.995881
0.986617
0.983693
0.984436
0.986603
0.992704
1.00794
1.02143
1.02965
1.03604
1.04297
1.04928
1.05271
1.05322
1.04949
1.04228
1.03328
1.02458
1.01971
1.02041
1.02645
1.04016
1.05362
1.06267
1.06661
1.06697
1.06138
1.05492
1.04835
1.03812
1.02735
1.02158
1.0233
1.28951
1.73854
0.913791
0.90606
0.903076
0.904381
0.908663
0.916089
0.921745
0.92483
0.9289
0.931255
0.931295
0.928978
0.924972
0.923283
0.924226
0.926667
0.929908
0.935493
0.941179
0.94437
0.945575
0.945702
0.943823
0.940172
0.938268
0.942061
0.947723
0.949717
0.950053
0.95044
0.951996
0.95603
0.960726
0.963124
0.963389
0.961522
0.954112
0.944275
0.940007
0.942115
0.952742
0.9645
0.971717
0.983653
0.999965
1.00727
1.00733
1.00079
0.986855
0.969475
0.959343
0.956508
0.956955
0.959115
0.963233
0.974431
0.992332
1.00912
1.02176
1.02964
1.03306
1.03309
1.02924
1.01705
0.999737
0.988515
0.985133
0.985855
0.987976
0.991506
0.99891
1.01077
1.02461
1.03781
1.04748
1.05313
1.05617
1.05647
1.0541
1.04759
1.03622
1.02456
1.01818
1.01692
1.02015
1.03186
1.05121
1.06335
1.0665
1.06644
1.06204
1.05722
1.05419
1.04773
1.03387
1.01851
1.00986
1.28459
1.73607
0.908472
0.909437
0.913533
0.919793
0.926069
0.928868
0.929321
0.928562
0.926073
0.923581
0.922669
0.923132
0.924098
0.924376
0.925321
0.929264
0.940837
0.951094
0.955066
0.955916
0.952673
0.944977
0.93414
0.926841
0.925037
0.928625
0.940286
0.949078
0.954232
0.962332
0.971385
0.975752
0.975565
0.970566
0.963094
0.954217
0.945371
0.937957
0.935104
0.935949
0.940528
0.955001
0.979447
1.00534
1.01797
1.02093
1.02016
1.01053
0.98592
0.966352
0.958948
0.957528
0.958449
0.961429
0.967006
0.973893
0.984017
1.00238
1.02132
1.031
1.03342
1.03182
1.02723
1.02255
1.01331
1.00181
0.995305
0.993136
0.993487
0.995573
0.998793
1.005
1.0153
1.03242
1.04654
1.05271
1.05507
1.05563
1.05528
1.0523
1.04194
1.02921
1.02125
1.02023
1.02212
1.0262
1.03906
1.05712
1.06374
1.06324
1.06092
1.05861
1.05723
1.05554
1.04489
1.0242
1.00528
1.27414
1.73151
0.910603
0.920668
0.9278
0.931037
0.931863
0.930427
0.928156
0.923313
0.917722
0.915305
0.915701
0.919122
0.924044
0.927821
0.933332
0.94444
0.955452
0.960778
0.962667
0.963344
0.95694
0.937679
0.922221
0.917375
0.917084
0.918783
0.928228
0.948718
0.968674
0.982634
0.987639
0.988707
0.983742
0.97152
0.958057
0.948074
0.940492
0.935761
0.933997
0.934673
0.938212
0.949613
0.982169
1.01098
1.02086
1.02343
1.02036
1.00431
0.985674
0.972136
0.965074
0.963974
0.966924
0.971934
0.977457
0.982215
0.985499
0.989962
1.00313
1.01831
1.02529
1.02775
1.02902
1.02951
1.02767
1.02132
1.01083
1.00278
1.00026
1.0006
1.00227
1.00588
1.0112
1.01979
1.03575
1.04641
1.04986
1.05054
1.0509
1.05108
1.04736
1.03813
1.02889
1.02415
1.02401
1.02548
1.02896
1.04309
1.05617
1.05913
1.05942
1.06091
1.06112
1.06122
1.05413
1.03245
1.00756
1.2636
1.72792
0.923593
0.933063
0.935634
0.936589
0.933289
0.924956
0.91693
0.912189
0.9107
0.911372
0.91325
0.916837
0.923675
0.935288
0.950084
0.958724
0.96188
0.963496
0.964793
0.964125
0.950288
0.928479
0.917424
0.915255
0.915429
0.916847
0.923126
0.949066
0.981659
0.992276
0.995622
0.994709
0.986806
0.971574
0.956735
0.946746
0.940906
0.937728
0.937569
0.942517
0.951903
0.962456
0.977547
1.00024
1.01273
1.01441
1.00829
0.998433
0.989884
0.983204
0.97931
0.978577
0.979729
0.981571
0.983832
0.985319
0.985337
0.985159
0.987308
0.995615
1.01266
1.0261
1.03224
1.03557
1.03771
1.0354
1.0251
1.01409
1.00736
1.0049
1.00505
1.00836
1.0129
1.01505
1.02067
1.03526
1.04395
1.047
1.04918
1.05107
1.04997
1.04568
1.03685
1.02826
1.025
1.02519
1.02647
1.03141
1.0446
1.05448
1.05871
1.0626
1.06385
1.06355
1.05924
1.03986
1.01618
1.25667
1.72681
0.934819
0.938671
0.939218
0.935537
0.924461
0.914713
0.909914
0.908284
0.908258
0.909367
0.911682
0.915644
0.925961
0.946289
0.961361
0.967427
0.96916
0.967913
0.964414
0.954441
0.93605
0.921267
0.915382
0.914389
0.915018
0.919087
0.93619
0.963205
0.982206
0.992297
0.995743
0.990511
0.976286
0.966693
0.960382
0.952763
0.947269
0.946218
0.949765
0.956238
0.962343
0.966218
0.970614
0.978726
0.989787
0.996676
0.997958
0.997811
0.997306
0.996421
0.995866
0.995241
0.993199
0.990781
0.988736
0.985335
0.981397
0.980536
0.981739
0.983532
0.994791
1.01927
1.03283
1.0372
1.03979
1.03718
1.0287
1.02077
1.01412
1.0102
1.00933
1.01237
1.01591
1.01622
1.01578
1.02022
1.03421
1.04383
1.04838
1.04955
1.04868
1.04462
1.03904
1.03434
1.03028
1.02752
1.02693
1.02787
1.03363
1.04592
1.0555
1.06107
1.06395
1.06434
1.06291
1.0476
1.03178
1.25398
1.72884
0.940068
0.942383
0.938677
0.924072
0.9134
0.909291
0.908301
0.908601
0.909289
0.910672
0.915075
0.92406
0.935128
0.948819
0.96282
0.969604
0.971708
0.971261
0.96228
0.944206
0.928155
0.918701
0.915596
0.915427
0.917177
0.932186
0.956782
0.969133
0.976178
0.982345
0.981863
0.974492
0.969351
0.96804
0.966373
0.963965
0.96212
0.961987
0.963106
0.964799
0.966708
0.967439
0.965499
0.965078
0.96923
0.978787
0.989631
0.997695
1.00188
1.00512
1.00895
1.01009
1.0082
1.00285
0.994685
0.985817
0.980886
0.980446
0.981762
0.983446
0.991556
1.00842
1.02459
1.03266
1.03615
1.0325
1.02414
1.01939
1.01836
1.0172
1.01788
1.02104
1.02169
1.01706
1.01178
1.01127
1.01871
1.03383
1.04278
1.04553
1.04577
1.04395
1.04062
1.04011
1.04048
1.03784
1.03316
1.02974
1.0291
1.03278
1.04146
1.05089
1.05786
1.06129
1.06229
1.0563
1.04908
1.25679
1.73383
0.94051
0.940373
0.928032
0.91535
0.910457
0.90972
0.909921
0.91036
0.912681
0.920027
0.929048
0.935657
0.939846
0.944598
0.955362
0.962698
0.96378
0.960285
0.952546
0.941382
0.929313
0.920586
0.917853
0.918597
0.928852
0.953636
0.966014
0.96912
0.970058
0.964336
0.959281
0.961494
0.96657
0.970473
0.9742
0.978414
0.981375
0.979472
0.974309
0.970544
0.967394
0.963025
0.960846
0.96066
0.961947
0.965085
0.973813
0.988901
1.00154
1.00859
1.01265
1.01552
1.01681
1.0153
1.00635
0.992226
0.984243
0.983161
0.984387
0.989575
1.00022
1.00685
1.01051
1.01622
1.01979
1.01944
1.01871
1.01983
1.02185
1.02675
1.03182
1.03204
1.02718
1.0175
1.00869
1.00608
1.00827
1.0166
1.03026
1.03835
1.04074
1.04141
1.04326
1.04747
1.04927
1.04888
1.04449
1.03473
1.02619
1.02329
1.02503
1.03115
1.04262
1.05314
1.05942
1.05998
1.06219
1.26861
1.74028
0.929927
0.924801
0.920179
0.916052
0.912291
0.912299
0.914068
0.919587
0.928374
0.935509
0.93928
0.940224
0.939765
0.939777
0.940651
0.946075
0.952295
0.954186
0.953116
0.94533
0.93353
0.927007
0.925887
0.929753
0.94967
0.965236
0.969058
0.96867
0.959233
0.945972
0.942619
0.94693
0.959275
0.971673
0.98221
0.992493
0.997059
0.996268
0.986666
0.97449
0.967019
0.963703
0.962489
0.962385
0.96322
0.965104
0.967767
0.97364
0.988842
1.00388
1.01093
1.01346
1.01442
1.01482
1.01407
1.00625
0.998126
0.995663
0.997057
1.00112
1.00472
1.00576
1.00185
0.996191
0.995918
1.00161
1.01109
1.0199
1.02943
1.04005
1.04419
1.04332
1.03553
1.02172
1.00982
1.00494
1.00395
1.00488
1.01057
1.02177
1.03025
1.03629
1.04541
1.05497
1.05777
1.05695
1.05558
1.04659
1.02919
1.01902
1.01567
1.01449
1.01836
1.03392
1.04932
1.05625
1.06957
1.28181
1.74612
0.912027
0.911141
0.916386
0.919533
0.921075
0.922923
0.928409
0.936289
0.941963
0.944511
0.94502
0.942336
0.936925
0.931159
0.927709
0.927997
0.936036
0.946716
0.950833
0.950274
0.943344
0.938195
0.93856
0.949689
0.965522
0.970618
0.970655
0.965101
0.948737
0.938526
0.937224
0.939599
0.94729
0.966226
0.987362
0.999161
1.00366
1.00528
1.00227
0.986557
0.971929
0.967296
0.966984
0.968561
0.971144
0.973676
0.973646
0.971623
0.973104
0.982471
0.998529
1.00906
1.01418
1.01743
1.0193
1.02029
1.01833
1.01555
1.01252
1.0097
1.00745
1.0015
0.990366
0.982195
0.981457
0.984499
0.995621
1.01755
1.03954
1.05049
1.05321
1.05297
1.04509
1.02819
1.01218
1.00442
1.00242
1.00232
1.0034
1.00657
1.01646
1.03234
1.0483
1.05901
1.06255
1.0618
1.06012
1.05524
1.03912
1.02123
1.01124
1.00638
1.00386
1.01108
1.03191
1.04578
1.06919
1.29072
1.749
0.900399
0.903147
0.910291
0.920376
0.929343
0.938614
0.944629
0.948107
0.949525
0.949763
0.94751
0.939721
0.929905
0.923072
0.920065
0.91974
0.922582
0.933944
0.945872
0.950007
0.950019
0.950727
0.95835
0.972115
0.976174
0.975499
0.971468
0.957848
0.941784
0.935546
0.935236
0.937731
0.942088
0.95505
0.984388
1.00128
1.00507
1.00553
1.00126
0.993505
0.984484
0.978873
0.977991
0.979375
0.980529
0.979276
0.974654
0.969563
0.966405
0.966836
0.973053
0.991985
1.01125
1.02139
1.02703
1.03058
1.03268
1.03226
1.02649
1.01727
1.00695
0.994866
0.982919
0.9767
0.975674
0.976721
0.982505
1.01255
1.04392
1.05323
1.05586
1.05533
1.04956
1.03511
1.01836
1.00811
1.00516
1.00521
1.00594
1.00795
1.01325
1.02547
1.04567
1.05845
1.06304
1.06277
1.06103
1.05627
1.04512
1.03006
1.01449
1.00319
0.997408
0.999115
1.01512
1.03178
1.06121
1.2931
1.74856
0.896322
0.899656
0.903418
0.915456
0.933968
0.948619
0.957338
0.958694
0.957605
0.953961
0.946697
0.934784
0.923297
0.917179
0.915563
0.915819
0.917653
0.922435
0.934497
0.946372
0.954202
0.966319
0.983708
0.989926
0.989559
0.984285
0.972505
0.953191
0.939293
0.935357
0.93563
0.93783
0.941951
0.950327
0.969636
0.991241
0.999331
1.00038
1.00001
0.998894
0.997334
0.995116
0.993372
0.991787
0.989332
0.983531
0.974673
0.966727
0.962501
0.961599
0.961895
0.967775
0.995754
1.02146
1.03142
1.0353
1.03774
1.03597
1.03255
1.02616
1.01045
0.993516
0.983034
0.977663
0.976637
0.979679
0.991604
1.01552
1.03871
1.05007
1.05332
1.04979
1.04055
1.03058
1.02334
1.01823
1.01572
1.01615
1.01747
1.01881
1.02041
1.02115
1.03211
1.05039
1.06055
1.06326
1.0623
1.05773
1.04804
1.03883
1.02863
1.01349
1.00061
0.994567
1.00471
1.01801
1.0486
1.29045
1.74598
0.89747
0.901533
0.907262
0.913374
0.927447
0.950244
0.963069
0.965481
0.965186
0.961954
0.950998
0.934478
0.920866
0.913722
0.912159
0.912655
0.91424
0.91647
0.921413
0.932553
0.952678
0.98046
0.998997
1.00278
1.0031
0.997899
0.977295
0.952788
0.94054
0.937274
0.938398
0.94182
0.94631
0.952523
0.96007
0.971834
0.985378
0.992974
0.996299
0.998833
1.00228
1.00594
1.00816
1.00763
1.00317
0.990626
0.97409
0.963084
0.959655