/*--------------------------------*- C++ -*----------------------------------*\
  =========                 |
  \\      /  F ield         | OpenFOAM: The Open Source CFD Toolbox
   \\    /   O peration     | Website:  https://openfoam.org
    \\  /    A nd           | Version:  12
     \\/     M anipulation  |
\*---------------------------------------------------------------------------*/
FoamFile
{
    format      ascii;
    class       volVectorField;
    location    "27";
    object      U;
}
// * * * * * * * * * * * * * * * * * * * * * * * * * * * * * * * * * * * * * //

dimensions      [0 1 -1 0 0 0 0];

internalField   nonuniform List<vector> 
9801
(
(1.14065 -0.0646481 0)
(1.13511 -0.0613791 0)
(1.14049 -0.0586594 0)
(1.14927 -0.0557542 0)
(1.15857 -0.0503727 0)
(1.16404 -0.0454857 0)
(1.16539 -0.0430249 0)
(1.164 -0.0427587 0)
(1.16005 -0.0433464 0)
(1.1495 -0.0439679 0)
(1.14143 -0.0438203 0)
(1.13585 -0.0428106 0)
(1.13215 -0.0392615 0)
(1.13141 -0.0339358 0)
(1.13243 -0.0292088 0)
(1.1307 -0.0258302 0)
(1.12768 -0.0229808 0)
(1.12509 -0.0211106 0)
(1.12621 -0.0184731 0)
(1.12939 -0.0176975 0)
(1.13105 -0.0187042 0)
(1.13109 -0.019318 0)
(1.12844 -0.0189619 0)
(1.12353 -0.0183986 0)
(1.11609 -0.0179784 0)
(1.10881 -0.016882 0)
(1.101 -0.0130418 0)
(1.09352 -0.00828367 0)
(1.08892 -0.00455236 0)
(1.08566 -0.00257327 0)
(1.08248 -0.00158782 0)
(1.08313 -0.000279635 0)
(1.09242 0.000421941 0)
(1.09784 0.000568106 0)
(1.09738 0.000693368 0)
(1.09438 0.000657041 0)
(1.08985 0.000380341 0)
(1.0807 -0.000269097 0)
(1.06918 0.000706743 0)
(1.05947 0.00348973 0)
(1.05256 0.00679927 0)
(1.04699 0.00993988 0)
(1.0421 0.0125153 0)
(1.03931 0.0153133 0)
(1.04888 0.0184973 0)
(1.06438 0.0208368 0)
(1.06972 0.0209913 0)
(1.06864 0.0197153 0)
(1.06478 0.0182921 0)
(1.05885 0.0176119 0)
(1.044 0.0179098 0)
(1.02546 0.0194802 0)
(1.01374 0.0220531 0)
(1.00648 0.0250165 0)
(1.00067 0.0272367 0)
(0.995566 0.0289338 0)
(0.995255 0.0316086 0)
(1.00925 0.0340306 0)
(1.02031 0.034626 0)
(1.02094 0.0334693 0)
(1.01786 0.0309404 0)
(1.01321 0.0298407 0)
(1.00478 0.0293703 0)
(0.982291 0.0315956 0)
(0.960154 0.0354379 0)
(0.949112 0.0391499 0)
(0.941861 0.0420713 0)
(0.935135 0.0436731 0)
(0.931785 0.0448043 0)
(0.945351 0.0440882 0)
(0.962733 0.0420845 0)
(0.965438 0.0430732 0)
(0.960817 0.045522 0)
(0.95377 0.0485334 0)
(0.943117 0.0515599 0)
(0.917691 0.0539534 0)
(0.885982 0.0552617 0)
(0.867178 0.0547553 0)
(0.857151 0.052611 0)
(0.849447 0.0507835 0)
(0.852372 0.050099 0)
(0.872088 0.0520295 0)
(0.879712 0.0558273 0)
(0.87525 0.0600505 0)
(0.866764 0.0634293 0)
(0.85677 0.064749 0)
(0.839438 0.0659928 0)
(0.798876 0.0664391 0)
(0.753848 0.0648375 0)
(0.724763 0.0596134 0)
(0.707942 0.0527431 0)
(0.700975 0.0465372 0)
(0.720234 0.0418286 0)
(0.731349 0.0407398 0)
(0.717252 0.0352174 0)
(0.679418 0.0242745 0)
(0.628466 0.00643995 0)
(-0.0718056 -0.107426 0)
(-1.37173 -0.0809183 0)
(1.21837 -0.128901 0)
(1.21185 -0.132505 0)
(1.20673 -0.130749 0)
(1.20149 -0.1238 0)
(1.19631 -0.111826 0)
(1.19527 -0.0983907 0)
(1.19829 -0.090503 0)
(1.20001 -0.0877214 0)
(1.1999 -0.0854049 0)
(1.19944 -0.0861254 0)
(1.19887 -0.0903103 0)
(1.19413 -0.0962058 0)
(1.18637 -0.100036 0)
(1.17903 -0.099002 0)
(1.17051 -0.0920059 0)
(1.16219 -0.0825645 0)
(1.15546 -0.0748418 0)
(1.15038 -0.0693748 0)
(1.14821 -0.0632958 0)
(1.15596 -0.0580851 0)
(1.16244 -0.0576578 0)
(1.16247 -0.0579524 0)
(1.15997 -0.0581217 0)
(1.1566 -0.0581261 0)
(1.15278 -0.0585052 0)
(1.13922 -0.0566402 0)
(1.12403 -0.0495167 0)
(1.11588 -0.0437692 0)
(1.11053 -0.0406578 0)
(1.10625 -0.0389615 0)
(1.10245 -0.0377807 0)
(1.10382 -0.03625 0)
(1.11645 -0.0349552 0)
(1.12205 -0.0334806 0)
(1.12019 -0.0314447 0)
(1.11632 -0.029664 0)
(1.11228 -0.0286674 0)
(1.1027 -0.0277121 0)
(1.08606 -0.0250618 0)
(1.07619 -0.0217867 0)
(1.07082 -0.0200658 0)
(1.06613 -0.0187333 0)
(1.06159 -0.0175173 0)
(1.05786 -0.0160053 0)
(1.06304 -0.0132295 0)
(1.07366 -0.00932109 0)
(1.07487 -0.0061884 0)
(1.07108 -0.0035886 0)
(1.06634 -0.0017702 0)
(1.06114 -9.39571e-05 0)
(1.04811 0.00144719 0)
(1.02986 0.00293479 0)
(1.01885 0.00498826 0)
(1.01222 0.00677912 0)
(1.0067 0.00820637 0)
(1.00166 0.00900487 0)
(1.00058 0.0108734 0)
(1.01367 0.0143623 0)
(1.02356 0.0182265 0)
(1.02287 0.0213676 0)
(1.01828 0.023581 0)
(1.01335 0.0249783 0)
(1.00471 0.0269877 0)
(0.982508 0.0282066 0)
(0.960813 0.0287325 0)
(0.949497 0.0288558 0)
(0.942667 0.0291365 0)
(0.936935 0.0292211 0)
(0.93402 0.0295826 0)
(0.946828 0.0324621 0)
(0.960692 0.0373562 0)
(0.962032 0.0419105 0)
(0.958154 0.0465811 0)
(0.952046 0.0496912 0)
(0.943545 0.0505102 0)
(0.919951 0.0482711 0)
(0.887706 0.045757 0)
(0.868844 0.0447174 0)
(0.857667 0.0445953 0)
(0.849098 0.0438287 0)
(0.84688 0.0446006 0)
(0.862409 0.0541651 0)
(0.874468 0.0640672 0)
(0.873269 0.067192 0)
(0.865473 0.0672944 0)
(0.8553 0.0663744 0)
(0.839628 0.0640128 0)
(0.801458 0.0569709 0)
(0.757418 0.0489404 0)
(0.727673 0.0417991 0)
(0.707553 0.0356611 0)
(0.693517 0.0319103 0)
(0.695134 0.0412695 0)
(0.700258 0.0564143 0)
(0.688842 0.0534319 0)
(0.65748 0.0440352 0)
(0.61722 0.027813 0)
(-0.0859831 -0.146297 0)
(-1.39658 -0.125624 0)
(1.2177 -0.12145 0)
(1.21139 -0.128928 0)
(1.20533 -0.131308 0)
(1.19781 -0.127938 0)
(1.19241 -0.120346 0)
(1.19145 -0.107279 0)
(1.19615 -0.0898107 0)
(1.19957 -0.0788466 0)
(1.20134 -0.0785857 0)
(1.20012 -0.0829076 0)
(1.19643 -0.086138 0)
(1.19174 -0.0895631 0)
(1.18636 -0.0946462 0)
(1.17761 -0.0984333 0)
(1.16682 -0.0957697 0)
(1.15878 -0.0877885 0)
(1.15342 -0.0787182 0)
(1.14945 -0.0714415 0)
(1.14855 -0.0641017 0)
(1.15717 -0.0556703 0)
(1.16266 -0.0524707 0)
(1.16108 -0.053239 0)
(1.15749 -0.0539596 0)
(1.15362 -0.0541217 0)
(1.1473 -0.0535124 0)
(1.1321 -0.0507566 0)
(1.12162 -0.0484873 0)
(1.11592 -0.0459848 0)
(1.11044 -0.0420648 0)
(1.10561 -0.038989 0)
(1.10131 -0.0370639 0)
(1.10266 -0.0354612 0)
(1.11417 -0.033631 0)
(1.11888 -0.0311902 0)
(1.11699 -0.0289659 0)
(1.11326 -0.0271695 0)
(1.1091 -0.0258418 0)
(1.09908 -0.0248311 0)
(1.08377 -0.0251043 0)
(1.07454 -0.025087 0)
(1.06836 -0.0243654 0)
(1.0629 -0.0230623 0)
(1.05795 -0.0214865 0)
(1.05376 -0.0199393 0)
(1.05783 -0.0172081 0)
(1.06885 -0.0125098 0)
(1.07148 -0.0079118 0)
(1.06899 -0.00372148 0)
(1.06479 -7.06594e-05 0)
(1.06 0.0025259 0)
(1.04816 0.00391914 0)
(1.02977 0.00327746 0)
(1.01809 0.00343283 0)
(1.01091 0.00461976 0)
(1.00515 0.00601692 0)
(1.00007 0.00707444 0)
(0.997788 0.00867135 0)
(1.00982 0.0129803 0)
(1.02086 0.0184477 0)
(1.02103 0.0230129 0)
(1.01681 0.0270749 0)
(1.01176 0.0299466 0)
(1.00368 0.0321656 0)
(0.982666 0.0319941 0)
(0.960181 0.0300698 0)
(0.947781 0.0287994 0)
(0.940129 0.0279633 0)
(0.93413 0.0272926 0)
(0.929723 0.027122 0)
(0.939269 0.031474 0)
(0.95348 0.0402791 0)
(0.955905 0.0461677 0)
(0.952262 0.048864 0)
(0.946382 0.04981 0)
(0.939114 0.0505772 0)
(0.919744 0.0502008 0)
(0.888091 0.0452634 0)
(0.86586 0.041586 0)
(0.852613 0.0415017 0)
(0.843346 0.0421583 0)
(0.836622 0.0423497 0)
(0.846256 0.0479665 0)
(0.863455 0.0555378 0)
(0.865401 0.0576505 0)
(0.858398 0.0586729 0)
(0.848872 0.05947 0)
(0.834246 0.0607585 0)
(0.801144 0.0576206 0)
(0.757181 0.0462253 0)
(0.722638 0.0333843 0)
(0.697564 0.0244976 0)
(0.6805 0.0198029 0)
(0.671611 0.0161064 0)
(0.67693 0.0139192 0)
(0.671852 0.00324602 0)
(0.645711 -0.0084841 0)
(0.621641 -0.017408 0)
(-0.0820261 -0.170151 0)
(-1.40958 -0.112974 0)
(1.21785 -0.123847 0)
(1.2087 -0.12687 0)
(1.1939 -0.124435 0)
(1.18285 -0.114049 0)
(1.17854 -0.105849 0)
(1.17713 -0.0989344 0)
(1.18289 -0.0877224 0)
(1.19808 -0.0819001 0)
(1.20447 -0.0852478 0)
(1.20152 -0.0885152 0)
(1.19628 -0.0903204 0)
(1.19084 -0.0917565 0)
(1.1842 -0.0935058 0)
(1.16861 -0.0912904 0)
(1.15377 -0.0833831 0)
(1.14752 -0.0765137 0)
(1.14439 -0.0710017 0)
(1.14162 -0.0663082 0)
(1.14255 -0.0622719 0)
(1.15514 -0.0590615 0)
(1.16276 -0.0571425 0)
(1.15958 -0.0560981 0)
(1.15447 -0.0553995 0)
(1.14919 -0.0534786 0)
(1.139 -0.0490123 0)
(1.12352 -0.0454588 0)
(1.11391 -0.0453495 0)
(1.10991 -0.0454873 0)
(1.10601 -0.0449034 0)
(1.10254 -0.0434947 0)
(1.09944 -0.0418604 0)
(1.10106 -0.0399132 0)
(1.11007 -0.0358485 0)
(1.11426 -0.0308741 0)
(1.11258 -0.0273569 0)
(1.10894 -0.0250967 0)
(1.10474 -0.0235646 0)
(1.0955 -0.0228425 0)
(1.07984 -0.0245245 0)
(1.06937 -0.0251128 0)
(1.06303 -0.0239642 0)
(1.05756 -0.0219036 0)
(1.05262 -0.0194261 0)
(1.04844 -0.0167687 0)
(1.05109 -0.0123957 0)
(1.06231 -0.00675107 0)
(1.06683 -0.0025859 0)
(1.06529 0.000426252 0)
(1.06151 0.00249353 0)
(1.05707 0.00317774 0)
(1.04718 0.00340805 0)
(1.02698 0.00290191 0)
(1.01278 0.00390526 0)
(1.00536 0.00572148 0)
(0.99979 0.00743148 0)
(0.994692 0.00881656 0)
(0.991425 0.0106332 0)
(1.0006 0.0152454 0)
(1.01278 0.0214622 0)
(1.01441 0.0256642 0)
(1.01105 0.0285598 0)
(1.00626 0.0302164 0)
(0.999507 0.0312195 0)
(0.981343 0.0297656 0)
(0.957974 0.0264288 0)
(0.943344 0.0252732 0)
(0.934599 0.0253418 0)
(0.928086 0.0255592 0)
(0.922293 0.0258081 0)
(0.925966 0.0295052 0)
(0.940755 0.0383618 0)
(0.945645 0.0443456 0)
(0.942726 0.0479222 0)
(0.937214 0.0510805 0)
(0.93071 0.0527052 0)
(0.917669 0.051871 0)
(0.887616 0.0434714 0)
(0.859937 0.0369287 0)
(0.843999 0.0359913 0)
(0.833964 0.0368246 0)
(0.82569 0.0368533 0)
(0.825164 0.0398645 0)
(0.840443 0.0532643 0)
(0.847529 0.0641365 0)
(0.843423 0.0673891 0)
(0.835128 0.0675149 0)
(0.823676 0.0668318 0)
(0.798527 0.0610558 0)
(0.758071 0.0462469 0)
(0.720372 0.0298342 0)
(0.690055 0.0160761 0)
(0.668123 0.00814512 0)
(0.652802 0.00597797 0)
(0.646327 0.00404886 0)
(0.644572 -0.00728186 0)
(0.626426 -0.0231067 0)
(0.617176 -0.0285844 0)
(-0.0714716 -0.161783 0)
(-1.43004 -0.107658 0)
(1.21551 -0.12908 0)
(1.19655 -0.119187 0)
(1.17912 -0.105612 0)
(1.17169 -0.0981679 0)
(1.16854 -0.0950842 0)
(1.16585 -0.0934907 0)
(1.17378 -0.0944705 0)
(1.19595 -0.0974554 0)
(1.2031 -0.0975318 0)
(1.19916 -0.0967113 0)
(1.19351 -0.0959775 0)
(1.18797 -0.094424 0)
(1.17425 -0.0861867 0)
(1.15481 -0.0736988 0)
(1.14412 -0.0679057 0)
(1.14026 -0.0666688 0)
(1.1369 -0.0659666 0)
(1.13396 -0.0646851 0)
(1.13605 -0.0635315 0)
(1.14763 -0.0626401 0)
(1.15395 -0.0590468 0)
(1.15166 -0.0546893 0)
(1.14748 -0.0496187 0)
(1.14199 -0.0436151 0)
(1.1347 -0.0390709 0)
(1.12348 -0.0384683 0)
(1.11221 -0.041079 0)
(1.10564 -0.0431192 0)
(1.101 -0.0443272 0)
(1.09671 -0.0442957 0)
(1.09312 -0.0430138 0)
(1.09294 -0.039101 0)
(1.10066 -0.0311183 0)
(1.10751 -0.0241644 0)
(1.10761 -0.0208472 0)
(1.10452 -0.0189714 0)
(1.10029 -0.0178288 0)
(1.09443 -0.0173087 0)
(1.07985 -0.0199116 0)
(1.0649 -0.0226349 0)
(1.05623 -0.0219326 0)
(1.05044 -0.020071 0)
(1.0456 -0.0179867 0)
(1.04148 -0.0157843 0)
(1.04297 -0.0114118 0)
(1.05465 -0.0045786 0)
(1.06078 9.05302e-06 0)
(1.05955 0.00242378 0)
(1.05595 0.00419898 0)
(1.05172 0.0055596 0)
(1.04341 0.00704004 0)
(1.0233 0.00612405 0)
(1.00634 0.00474019 0)
(0.997836 0.00514816 0)
(0.992248 0.00610577 0)
(0.987131 0.00690848 0)
(0.983045 0.00795239 0)
(0.988793 0.0118717 0)
(1.00151 0.0195406 0)
(1.00471 0.0255329 0)
(1.00194 0.0294876 0)
(0.997431 0.0322499 0)
(0.991861 0.0340781 0)
(0.979087 0.0334517 0)
(0.955215 0.0263142 0)
(0.937198 0.0219686 0)
(0.926762 0.0224035 0)
(0.919371 0.0241934 0)
(0.912943 0.0254434 0)
(0.911059 0.0282334 0)
(0.923941 0.037673 0)
(0.933026 0.0461437 0)
(0.931764 0.0495356 0)
(0.926637 0.0511775 0)
(0.920403 0.0516627 0)
(0.911569 0.0513171 0)
(0.886904 0.0453198 0)
(0.854936 0.0350515 0)
(0.835221 0.0299504 0)
(0.823429 0.0299618 0)
(0.814531 0.0311373 0)
(0.807871 0.0328001 0)
(0.815607 0.0421625 0)
(0.828169 0.0558015 0)
(0.827791 0.0616816 0)
(0.820209 0.0622897 0)
(0.810579 0.0613583 0)
(0.792791 0.05762 0)
(0.759529 0.0455117 0)
(0.721041 0.0272027 0)
(0.688776 0.00844355 0)
(0.665063 -0.00546998 0)
(0.648601 -0.012798 0)
(0.637145 -0.0188829 0)
(0.638629 -0.0326474 0)
(0.632629 -0.0495742 0)
(0.630299 -0.0536966 0)
(-0.0653377 -0.145474 0)
(-1.44617 -0.103568 0)
(1.20129 -0.119798 0)
(1.17952 -0.0986952 0)
(1.17113 -0.0916768 0)
(1.16693 -0.0896338 0)
(1.16278 -0.089169 0)
(1.16241 -0.0915203 0)
(1.17684 -0.100259 0)
(1.19199 -0.105934 0)
(1.19525 -0.10339 0)
(1.19178 -0.0989818 0)
(1.18697 -0.0938751 0)
(1.17516 -0.0814502 0)
(1.1593 -0.0667349 0)
(1.14726 -0.0603717 0)
(1.1397 -0.0609709 0)
(1.13486 -0.0629703 0)
(1.13093 -0.0644219 0)
(1.12794 -0.0655458 0)
(1.13031 -0.0659907 0)
(1.13792 -0.0638545 0)
(1.14151 -0.0575919 0)
(1.14063 -0.0496024 0)
(1.13752 -0.0422034 0)
(1.13361 -0.0389074 0)
(1.12915 -0.0381107 0)
(1.12242 -0.0386007 0)
(1.11143 -0.0414493 0)
(1.10259 -0.0439395 0)
(1.09601 -0.0443842 0)
(1.09028 -0.0428939 0)
(1.08579 -0.0405413 0)
(1.08276 -0.0376129 0)
(1.08766 -0.0302321 0)
(1.09831 -0.0214629 0)
(1.10117 -0.0178742 0)
(1.09845 -0.0170689 0)
(1.09413 -0.0166709 0)
(1.08963 -0.0161176 0)
(1.07909 -0.016768 0)
(1.06106 -0.0202516 0)
(1.04932 -0.0208103 0)
(1.04291 -0.0188772 0)
(1.038 -0.0168029 0)
(1.03376 -0.0152569 0)
(1.03296 -0.012455 0)
(1.04405 -0.00520261 0)
(1.05268 0.00165801 0)
(1.05204 0.00501256 0)
(1.04845 0.00694712 0)
(1.04416 0.0086561 0)
(1.03743 0.0103383 0)
(1.02074 0.00843836 0)
(1.00138 0.00329414 0)
(0.990582 0.00130067 0)
(0.984543 0.00212403 0)
(0.979144 0.00387571 0)
(0.974424 0.00594558 0)
(0.975698 0.0105672 0)
(0.987541 0.0199699 0)
(0.993468 0.0272254 0)
(0.991881 0.0310024 0)
(0.987856 0.0338095 0)
(0.982714 0.0355023 0)
(0.975251 0.0358695 0)
(0.95531 0.0306593 0)
(0.931671 0.0228092 0)
(0.917972 0.0206074 0)
(0.909971 0.0222025 0)
(0.903339 0.0243198 0)
(0.89847 0.0267776 0)
(0.90604 0.0345459 0)
(0.919391 0.0457491 0)
(0.921017 0.0507512 0)
(0.91635 0.051963 0)
(0.910348 0.0524315 0)
(0.903483 0.0526089 0)
(0.887056 0.0495553 0)
(0.855709 0.0379262 0)
(0.82991 0.0268774 0)
(0.814971 0.0216926 0)
(0.805074 0.0213944 0)
(0.796665 0.022357 0)
(0.794877 0.0275005 0)
(0.806301 0.0426951 0)
(0.81224 0.0565665 0)
(0.807826 0.0621139 0)
(0.799191 0.0626921 0)
(0.787252 0.0613188 0)
(0.763776 0.0510258 0)
(0.728842 0.0322058 0)
(0.695274 0.0117771 0)
(0.669126 -0.00969748 0)
(0.649619 -0.0258737 0)
(0.636897 -0.032979 0)
(0.637762 -0.0471103 0)
(0.64157 -0.0661551 0)
(0.644018 -0.070588 0)
(-0.060825 -0.138925 0)
(-1.45587 -0.102862 0)
(1.1846 -0.10296 0)
(1.16908 -0.0911997 0)
(1.16463 -0.089674 0)
(1.16038 -0.0891674 0)
(1.15861 -0.0899165 0)
(1.16685 -0.0962654 0)
(1.18033 -0.104362 0)
(1.18633 -0.105144 0)
(1.18522 -0.101456 0)
(1.18217 -0.0951001 0)
(1.173 -0.0809211 0)
(1.16017 -0.0657568 0)
(1.1503 -0.0583564 0)
(1.1435 -0.0567192 0)
(1.1376 -0.0572507 0)
(1.13243 -0.0588834 0)
(1.12795 -0.0605902 0)
(1.12411 -0.0621138 0)
(1.12365 -0.0627322 0)
(1.12657 -0.0595027 0)
(1.12877 -0.0521788 0)
(1.12975 -0.0422805 0)
(1.13013 -0.0356483 0)
(1.12891 -0.0336414 0)
(1.12511 -0.0336088 0)
(1.12043 -0.0340292 0)
(1.11221 -0.0376296 0)
(1.1003 -0.0413458 0)
(1.09083 -0.0410949 0)
(1.08359 -0.0381942 0)
(1.07838 -0.0350737 0)
(1.07476 -0.0333435 0)
(1.07522 -0.0300212 0)
(1.08752 -0.0221237 0)
(1.09408 -0.0166145 0)
(1.09226 -0.0144089 0)
(1.0882 -0.0131054 0)
(1.08372 -0.011979 0)
(1.07726 -0.0114089 0)
(1.06039 -0.0151702 0)
(1.04385 -0.0193648 0)
(1.03582 -0.0194755 0)
(1.03079 -0.0176112 0)
(1.02646 -0.0153904 0)
(1.0233 -0.0128799 0)
(1.02972 -0.00631032 0)
(1.04128 0.00307876 0)
(1.04328 0.00833344 0)
(1.04047 0.0111889 0)
(1.03637 0.0134321 0)
(1.03152 0.0148918 0)
(1.02084 0.0136902 0)
(1.0012 0.00705662 0)
(0.9858 0.00178935 0)
(0.977176 0.000474466 0)
(0.971212 0.00191494 0)
(0.966108 0.00414411 0)
(0.963419 0.00774753 0)
(0.971959 0.0176399 0)
(0.981932 0.0285303 0)
(0.982667 0.0334693 0)
(0.979254 0.0356752 0)
(0.97437 0.0375623 0)
(0.968876 0.038478 0)
(0.956481 0.0370383 0)
(0.931187 0.0288381 0)
(0.911661 0.0225318 0)
(0.901652 0.021502 0)
(0.895097 0.0226711 0)
(0.889242 0.0243321 0)
(0.889847 0.0291504 0)
(0.903764 0.0417632 0)
(0.911342 0.0522072 0)
(0.908471 0.0552239 0)
(0.902559 0.0551414 0)
(0.896308 0.054611 0)
(0.885761 0.0526925 0)
(0.861164 0.0432057 0)
(0.832038 0.0294889 0)
(0.81153 0.0190909 0)
(0.798704 0.0133812 0)
(0.790075 0.0124194 0)
(0.783003 0.0135356 0)
(0.786266 0.0219863 0)
(0.797074 0.0375543 0)
(0.799795 0.0479058 0)
(0.794408 0.0520645 0)
(0.785287 0.0527749 0)
(0.769989 0.0505343 0)
(0.743255 0.038018 0)
(0.71177 0.0164562 0)
(0.682739 -0.00768203 0)
(0.65968 -0.0291192 0)
(0.642984 -0.0430022 0)
(0.637586 -0.0554875 0)
(0.645965 -0.0741817 0)
(0.653586 -0.0809036 0)
(-0.0577189 -0.134714 0)
(-1.46146 -0.102719 0)
(1.17432 -0.0934539 0)
(1.16458 -0.089916 0)
(1.16085 -0.0890393 0)
(1.15768 -0.089615 0)
(1.16082 -0.0949746 0)
(1.17088 -0.101237 0)
(1.17779 -0.101768 0)
(1.17782 -0.0977955 0)
(1.17563 -0.0902541 0)
(1.16888 -0.0764739 0)
(1.16044 -0.0645485 0)
(1.15272 -0.0602268 0)
(1.14629 -0.060335 0)
(1.14071 -0.0604425 0)
(1.13557 -0.0600661 0)
(1.13046 -0.0600008 0)
(1.12528 -0.0603175 0)
(1.12051 -0.0599983 0)
(1.11642 -0.0571926 0)
(1.11627 -0.0501233 0)
(1.11724 -0.0439453 0)
(1.12063 -0.0400573 0)
(1.12496 -0.0376479 0)
(1.1254 -0.0366845 0)
(1.12241 -0.0363174 0)
(1.1175 -0.0361402 0)
(1.11171 -0.0365268 0)
(1.09832 -0.0382295 0)
(1.08517 -0.0369359 0)
(1.07668 -0.0337326 0)
(1.07121 -0.0303023 0)
(1.06739 -0.0277963 0)
(1.06606 -0.0256594 0)
(1.07681 -0.0224072 0)
(1.08597 -0.018799 0)
(1.08575 -0.0160914 0)
(1.08241 -0.0136728 0)
(1.07797 -0.0114628 0)
(1.07311 -0.0103694 0)
(1.06085 -0.011789 0)
(1.04152 -0.016015 0)
(1.02993 -0.0173709 0)
(1.02397 -0.0163843 0)
(1.01936 -0.0143838 0)
(1.01533 -0.0122956 0)
(1.01608 -0.00762098 0)
(1.02789 0.00263502 0)
(1.03425 0.0099863 0)
(1.03317 0.012743 0)
(1.02978 0.0144021 0)
(1.02517 0.0155158 0)
(1.01939 0.0156032 0)
(1.00416 0.0103754 0)
(0.984551 0.00335535 0)
(0.971398 0.00182086 0)
(0.963523 0.00367126 0)
(0.957964 0.00630275 0)
(0.953533 0.00863879 0)
(0.956181 0.0147167 0)
(0.969729 0.0266793 0)
(0.97503 0.0344677 0)
(0.972381 0.037386 0)
(0.967493 0.0389338 0)
(0.962233 0.04011 0)
(0.954763 0.0408698 0)
(0.934375 0.0352803 0)
(0.910588 0.0267982 0)
(0.896934 0.0219891 0)
(0.889208 0.020728 0)
(0.883226 0.0211146 0)
(0.878733 0.0227866 0)
(0.885622 0.0318195 0)
(0.898871 0.0469338 0)
(0.90139 0.0559675 0)
(0.89699 0.0586491 0)
(0.891075 0.0589398 0)
(0.884203 0.0585299 0)
(0.86876 0.0519022 0)
(0.840763 0.0347303 0)
(0.81601 0.0199756 0)
(0.799041 0.01098 0)
(0.787125 0.00536299 0)
(0.7781 0.00421435 0)
(0.771777 0.00673887 0)
(0.776573 0.0192562 0)
(0.784193 0.0354977 0)
(0.784187 0.044075 0)
(0.778476 0.0462002 0)
(0.769037 0.0458614 0)
(0.752546 0.0392521 0)
(0.729508 0.0245709 0)
(0.702884 0.00200224 0)
(0.677836 -0.0258109 0)
(0.655958 -0.0470217 0)
(0.642206 -0.0615522 0)
(0.645457 -0.0824472 0)
(0.658653 -0.0927027 0)
(-0.0555199 -0.129653 0)
(-1.46572 -0.102555 0)
(1.17193 -0.0850604 0)
(1.16398 -0.084814 0)
(1.16178 -0.0895254 0)
(1.16155 -0.0968628 0)
(1.1629 -0.102945 0)
(1.16609 -0.102414 0)
(1.16776 -0.095131 0)
(1.16685 -0.0843805 0)
(1.16197 -0.0708009 0)
(1.15676 -0.0596946 0)
(1.15426 -0.0568498 0)
(1.15089 -0.0570191 0)
(1.14591 -0.0588448 0)
(1.13916 -0.0616556 0)
(1.13365 -0.0640594 0)
(1.12781 -0.0650547 0)
(1.12178 -0.062826 0)
(1.11356 -0.056338 0)
(1.10828 -0.0492524 0)
(1.10692 -0.0414279 0)
(1.1128 -0.03318 0)
(1.11953 -0.0320802 0)
(1.12363 -0.0342033 0)
(1.1236 -0.0355691 0)
(1.12043 -0.0369332 0)
(1.11569 -0.0380917 0)
(1.10982 -0.0387463 0)
(1.0943 -0.0376493 0)
(1.07785 -0.0335083 0)
(1.06955 -0.0289631 0)
(1.06465 -0.0253076 0)
(1.06073 -0.022765 0)
(1.05968 -0.0205417 0)
(1.07001 -0.018782 0)
(1.07982 -0.0174119 0)
(1.08072 -0.0159167 0)
(1.0778 -0.0142315 0)
(1.0736 -0.0124587 0)
(1.06891 -0.0115536 0)
(1.06071 -0.0111022 0)
(1.04151 -0.0134357 0)
(1.02645 -0.0143921 0)
(1.01831 -0.0126319 0)
(1.01301 -0.0103959 0)
(1.00868 -0.00863999 0)
(1.00593 -0.00642365 0)
(1.01438 0.000812228 0)
(1.02592 0.00975025 0)
(1.02774 0.0136497 0)
(1.02489 0.0147614 0)
(1.02052 0.0154714 0)
(1.01573 0.0160847 0)
(1.00717 0.0158399 0)
(0.986015 0.00954368 0)
(0.967473 0.00525483 0)
(0.95689 0.00496604 0)
(0.950915 0.00645097 0)
(0.946071 0.00828908 0)
(0.944009 0.0118141 0)
(0.955222 0.02229 0)
(0.966867 0.0337832 0)
(0.966942 0.0387175 0)
(0.962389 0.0405639 0)
(0.957044 0.0417578 0)
(0.951232 0.0427416 0)
(0.938684 0.0407487 0)
(0.914528 0.029928 0)
(0.89618 0.0215688 0)
(0.886124 0.0177343 0)
(0.879197 0.0161281 0)
(0.872951 0.0163881 0)
(0.869693 0.0200832 0)
(0.880151 0.0357431 0)
(0.891155 0.0529428 0)
(0.891394 0.0607321 0)
(0.886537 0.062133 0)
(0.880546 0.0612679 0)
(0.872711 0.0581785 0)
(0.854292 0.0450877 0)
(0.827614 0.02381 0)
(0.805427 0.00853271 0)
(0.787762 0.00151074 0)
(0.774631 -0.000830994 0)
(0.766072 -0.000574744 0)
(0.761519 0.00246839 0)
(0.76724 0.0141315 0)
(0.773256 0.0263667 0)
(0.772847 0.0309316 0)
(0.767177 0.0309154 0)
(0.756639 0.0306845 0)
(0.739832 0.0235805 0)
(0.720524 0.00947794 0)
(0.699672 -0.013989 0)
(0.676136 -0.0422794 0)
(0.654555 -0.0625996 0)
(0.644442 -0.0871581 0)
(0.659832 -0.112355 0)
(-0.0550388 -0.12515 0)
(-1.47085 -0.102836 0)
(1.17488 -0.0809438 0)
(1.169 -0.0870746 0)
(1.16833 -0.0989779 0)
(1.16437 -0.10431 0)
(1.15946 -0.104163 0)
(1.15493 -0.0968633 0)
(1.15197 -0.0820214 0)
(1.152 -0.0649169 0)
(1.15204 -0.052884 0)
(1.15055 -0.0498543 0)
(1.15204 -0.0510313 0)
(1.15117 -0.0552875 0)
(1.14748 -0.0601538 0)
(1.1415 -0.0665219 0)
(1.13392 -0.0717985 0)
(1.12335 -0.071124 0)
(1.11117 -0.0626785 0)
(1.10275 -0.0518005 0)
(1.0983 -0.0447293 0)
(1.09707 -0.0386883 0)
(1.10795 -0.0314775 0)
(1.12039 -0.0301551 0)
(1.12443 -0.0344111 0)
(1.12329 -0.0387651 0)
(1.11933 -0.0414303 0)
(1.11445 -0.0423558 0)
(1.10647 -0.0415564 0)
(1.08589 -0.0364748 0)
(1.06906 -0.030872 0)
(1.06203 -0.0273986 0)
(1.05762 -0.0243489 0)
(1.05402 -0.0214125 0)
(1.05419 -0.018833 0)
(1.06581 -0.0171382 0)
(1.07641 -0.0159402 0)
(1.07725 -0.0149433 0)
(1.07424 -0.013698 0)
(1.07017 -0.0125839 0)
(1.06559 -0.0112835 0)
(1.0586 -0.00932031 0)
(1.04184 -0.00917168 0)
(1.02374 -0.0111325 0)
(1.01311 -0.0108865 0)
(1.00721 -0.00914511 0)
(1.00266 -0.00702962 0)
(0.998836 -0.0048994 0)
(1.00247 0.000188679 0)
(1.01715 0.00951256 0)
(1.02343 0.0151014 0)
(1.02161 0.0172549 0)
(1.01761 0.0187005 0)
(1.0131 0.0199083 0)
(1.0071 0.0209892 0)
(0.989922 0.0185702 0)
(0.966753 0.0117158 0)
(0.952966 0.00846326 0)
(0.945519 0.00739757 0)
(0.940588 0.00767062 0)
(0.936244 0.00869868 0)
(0.940227 0.0148697 0)
(0.955605 0.0290656 0)
(0.961582 0.0385579 0)
(0.958832 0.0421468 0)
(0.953908 0.0435547 0)
(0.948626 0.0441122 0)
(0.941396 0.0435 0)
(0.923161 0.0353666 0)
(0.900212 0.0216701 0)
(0.885327 0.0139784 0)
(0.875344 0.0114613 0)
(0.867327 0.0117687 0)
(0.860891 0.0130727 0)
(0.860499 0.0201219 0)
(0.873987 0.0397465 0)
(0.882772 0.0554433 0)
(0.881919 0.0615587 0)
(0.877694 0.0617128 0)
(0.872231 0.0597047 0)
(0.863369 0.055442 0)
(0.842364 0.0401384 0)
(0.814572 0.0196447 0)
(0.792042 0.00628257 0)
(0.775552 -0.000416384 0)
(0.763664 -0.00439263 0)
(0.755338 -0.00533187 0)
(0.751535 -0.00234513 0)
(0.75769 0.00804763 0)
(0.763065 0.0161975 0)
(0.761953 0.0174779 0)
(0.755676 0.0167569 0)
(0.74548 0.0160006 0)
(0.731342 0.0078609 0)
(0.716974 -0.00784586 0)
(0.700498 -0.0303765 0)
(0.677366 -0.0561245 0)
(0.652439 -0.0742752 0)
(0.660988 -0.136153 0)
(-0.0579897 -0.124451 0)
(-1.47544 -0.104254 0)
(1.17993 -0.0849403 0)
(1.1757 -0.0985174 0)
(1.17109 -0.103802 0)
(1.16557 -0.102849 0)
(1.15218 -0.09487 0)
(1.14091 -0.0808642 0)
(1.13709 -0.0690661 0)
(1.13759 -0.0571426 0)
(1.14231 -0.0469776 0)
(1.14983 -0.0457491 0)
(1.15473 -0.0524387 0)
(1.15365 -0.0595909 0)
(1.14936 -0.0645701 0)
(1.14449 -0.068205 0)
(1.13277 -0.072023 0)
(1.11238 -0.0683063 0)
(1.09841 -0.0584954 0)
(1.09228 -0.0511434 0)
(1.0884 -0.0460316 0)
(1.08743 -0.0408854 0)
(1.1027 -0.0347684 0)
(1.12322 -0.0338683 0)
(1.12658 -0.0374575 0)
(1.12297 -0.0400345 0)
(1.11839 -0.0416508 0)
(1.11254 -0.0419509 0)
(1.09962 -0.0380286 0)
(1.07793 -0.0318331 0)
(1.0629 -0.029624 0)
(1.05668 -0.0286613 0)
(1.05236 -0.0280118 0)
(1.04874 -0.0266627 0)
(1.04985 -0.0248173 0)
(1.0617 -0.0215601 0)
(1.0729 -0.0168489 0)
(1.07449 -0.0134659 0)
(1.07176 -0.0116116 0)
(1.06793 -0.00976417 0)
(1.0631 -0.00708211 0)
(1.05672 -0.00412143 0)
(1.04267 -0.00337711 0)
(1.02302 -0.0062479 0)
(1.00975 -0.0081175 0)
(1.00244 -0.00810715 0)
(0.997632 -0.0070845 0)
(0.993335 -0.00577041 0)
(0.992967 -0.0024547 0)
(1.00672 0.00684785 0)
(1.01794 0.0156999 0)
(1.01779 0.0196883 0)
(1.01393 0.02166 0)
(1.00933 0.023332 0)
(1.00407 0.0249948 0)
(0.993561 0.0250625 0)
(0.970943 0.0176083 0)
(0.952332 0.0104029 0)
(0.942454 0.00819291 0)
(0.936124 0.007554 0)
(0.931192 0.00777883 0)
(0.928524 0.00947719 0)
(0.939613 0.0198997 0)
(0.953855 0.0342377 0)
(0.95561 0.0408906 0)
(0.95159 0.0431339 0)
(0.946466 0.0439188 0)
(0.941154 0.0443884 0)
(0.931113 0.0417073 0)
(0.908607 0.0286993 0)
(0.887317 0.0156926 0)
(0.873541 0.00923461 0)
(0.863972 0.00618966 0)
(0.857121 0.00531529 0)
(0.850786 0.00596517 0)
(0.853278 0.0151993 0)
(0.868174 0.0376486 0)
(0.876724 0.0527896 0)
(0.876114 0.0571956 0)
(0.87082 0.0576503 0)
(0.864324 0.05687 0)
(0.853656 0.0521498 0)
(0.831667 0.0351411 0)
(0.804643 0.0129541 0)
(0.782144 -0.00140682 0)
(0.764734 -0.00725178 0)
(0.752529 -0.00966828 0)
(0.745208 -0.0101889 0)
(0.743388 -0.00832585 0)
(0.750999 -0.00137345 0)
(0.755967 0.00223433 0)
(0.75414 0.0020327 0)
(0.74764 0.00233161 0)
(0.738684 0.0012065 0)
(0.727708 -0.00824803 0)
(0.717826 -0.0240304 0)
(0.702849 -0.0441637 0)
(0.677541 -0.067913 0)
(0.663278 -0.129848 0)
(-0.0648834 -0.126204 0)
(-1.47897 -0.103199 0)
(1.18486 -0.0907748 0)
(1.17917 -0.0954524 0)
(1.17305 -0.0982711 0)
(1.15664 -0.0920645 0)
(1.13825 -0.0773143 0)
(1.13015 -0.0661536 0)
(1.12735 -0.0596002 0)
(1.12702 -0.0530066 0)
(1.13945 -0.0480229 0)
(1.15616 -0.0523174 0)
(1.15917 -0.0599619 0)
(1.15544 -0.0644956 0)
(1.15064 -0.0672756 0)
(1.14488 -0.0686264 0)
(1.12709 -0.0648717 0)
(1.10121 -0.0569985 0)
(1.08947 -0.0528032 0)
(1.08551 -0.0508337 0)
(1.08247 -0.0484686 0)
(1.08224 -0.0459294 0)
(1.10125 -0.0456238 0)
(1.12459 -0.0456403 0)
(1.12719 -0.0432823 0)
(1.12275 -0.0418997 0)
(1.1177 -0.0397738 0)
(1.10822 -0.0355648 0)
(1.09334 -0.0292664 0)
(1.07592 -0.0263315 0)
(1.06183 -0.0271695 0)
(1.05478 -0.0289448 0)
(1.05011 -0.0306353 0)
(1.04619 -0.0333233 0)
(1.04448 -0.0354846 0)
(1.05202 -0.030616 0)
(1.06517 -0.0201364 0)
(1.06956 -0.0133099 0)
(1.06756 -0.00959804 0)
(1.06375 -0.00546625 0)
(1.05895 -0.00191214 0)
(1.0537 0.000361407 0)
(1.04464 0.00105937 0)
(1.02615 -0.00321004 0)
(1.00895 -0.00767235 0)
(0.999051 -0.00813295 0)
(0.992776 -0.00697091 0)
(0.988239 -0.00553025 0)
(0.985054 -0.00375149 0)
(0.993318 0.00365317 0)
(1.00955 0.0160588 0)
(1.01378 0.0225951 0)
(1.01102 0.0249696 0)
(1.00662 0.0264994 0)
(1.00171 0.027817 0)
(0.995335 0.0284641 0)
(0.978622 0.0240888 0)
(0.954896 0.0138852 0)
(0.940829 0.00799834 0)
(0.933259 0.00613334 0)
(0.927967 0.00555276 0)
(0.923018 0.00528667 0)
(0.923905 0.00869121 0)
(0.94006 0.0237057 0)
(0.950242 0.0365829 0)
(0.949329 0.0417821 0)
(0.944747 0.0445214 0)
(0.93953 0.0459454 0)
(0.933541 0.0463243 0)
(0.919056 0.0395374 0)
(0.894365 0.0216205 0)
(0.875959 0.00757079 0)
(0.864929 0.000515529 0)
(0.856326 -0.00313458 0)
(0.847744 -0.00331661 0)
(0.841302 -0.000519229 0)
(0.84392 0.0135384 0)
(0.859495 0.0398953 0)
(0.867194 0.0559706 0)
(0.866164 0.0599328 0)
(0.862224 0.0580604 0)
(0.856392 0.0541838 0)
(0.844784 0.0466 0)
(0.820873 0.0307774 0)
(0.792176 0.0119061 0)
(0.769477 -0.00124015 0)
(0.753845 -0.00830315 0)
(0.743279 -0.0135428 0)
(0.737167 -0.0162263 0)
(0.737957 -0.0173022 0)
(0.74698 -0.0128828 0)
(0.751225 -0.0099606 0)
(0.748844 -0.00905944 0)
(0.743046 -0.00836412 0)
(0.736028 -0.0120877 0)
(0.728698 -0.0232469 0)
(0.720778 -0.0377037 0)
(0.70359 -0.0582186 0)
(0.677233 -0.116035 0)
(-0.0720274 -0.132597 0)
(-1.48212 -0.101335 0)
(1.1858 -0.0939483 0)
(1.17928 -0.0940964 0)
(1.16504 -0.0919366 0)
(1.14038 -0.0759652 0)
(1.12636 -0.0647812 0)
(1.12147 -0.0607717 0)
(1.11862 -0.0583056 0)
(1.12101 -0.0551684 0)
(1.1449 -0.0566977 0)
(1.16305 -0.0631869 0)
(1.1617 -0.0646164 0)
(1.15656 -0.0646183 0)
(1.15136 -0.0644903 0)
(1.14075 -0.0617905 0)
(1.11741 -0.0531807 0)
(1.09571 -0.0466866 0)
(1.08643 -0.0461661 0)
(1.08285 -0.0471663 0)
(1.0802 -0.0490396 0)
(1.08357 -0.0551083 0)
(1.10012 -0.0628106 0)
(1.11798 -0.0597305 0)
(1.12153 -0.0527541 0)
(1.11837 -0.0463705 0)
(1.11147 -0.0374016 0)
(1.10078 -0.0271482 0)
(1.09084 -0.0225283 0)
(1.07881 -0.0232947 0)
(1.06587 -0.0286765 0)
(1.05738 -0.033953 0)
(1.05179 -0.0389546 0)
(1.04701 -0.0423792 0)
(1.04247 -0.0420341 0)
(1.03971 -0.0390841 0)
(1.04844 -0.0254476 0)
(1.05929 -0.00912467 0)
(1.06155 -0.00165711 0)
(1.05962 0.00087151 0)
(1.05603 0.00212009 0)
(1.05175 0.00282065 0)
(1.04604 0.00301213 0)
(1.03219 -0.000110088 0)
(1.01077 -0.00677261 0)
(0.995998 -0.00914127 0)
(0.987962 -0.00780739 0)
(0.983308 -0.00614942 0)
(0.979597 -0.00466907 0)
(0.980798 -0.00113332 0)
(0.996946 0.0101797 0)
(1.00831 0.0203479 0)
(1.00793 0.0244144 0)
(1.00383 0.0262379 0)
(0.998937 0.0277225 0)
(0.99367 0.0293729 0)
(0.984033 0.0296004 0)
(0.962123 0.0210993 0)
(0.942047 0.0105558 0)
(0.932149 0.00543648 0)
(0.926203 0.00196624 0)
(0.921081 -8.73534e-05 0)
(0.916544 -8.74143e-05 0)
(0.921792 0.00787225 0)
(0.938603 0.0277616 0)
(0.944423 0.0400872 0)
(0.941838 0.0449104 0)
(0.93691 0.0468425 0)
(0.932073 0.0465354 0)
(0.926023 0.0444394 0)
(0.909266 0.03171 0)
(0.884933 0.0103376 0)
(0.867701 -0.00351133 0)
(0.854552 -0.00820233 0)
(0.843679 -0.00764154 0)
(0.835671 -0.00530546 0)
(0.830099 -0.0017334 0)
(0.835864 0.0123645 0)
(0.853326 0.0371085 0)
(0.862103 0.0498224 0)
(0.861497 0.051176 0)
(0.856209 0.0498694 0)
(0.847819 0.0470203 0)
(0.832745 0.040427 0)
(0.808892 0.0272739 0)
(0.782216 0.0096459 0)
(0.761091 -0.00479866 0)
(0.746357 -0.0135205 0)
(0.736466 -0.0203467 0)
(0.731621 -0.0257301 0)
(0.735177 -0.0279822 0)
(0.744731 -0.0223111 0)
(0.748291 -0.0171381 0)