/*--------------------------------*- C++ -*----------------------------------*\
  =========                 |
  \\      /  F ield         | OpenFOAM: The Open Source CFD Toolbox
   \\    /   O peration     | Website:  https://openfoam.org
    \\  /    A nd           | Version:  12
     \\/     M anipulation  |
\*---------------------------------------------------------------------------*/
FoamFile
{
    format      ascii;
    class       volScalarField;
    location    "9.18";
    object      T;
}
// * * * * * * * * * * * * * * * * * * * * * * * * * * * * * * * * * * * * * //

dimensions      [0 0 0 1 0 0 0];

internalField   nonuniform List<scalar> 
22702
(
1
1
0.960148
1
1.01649
1
1.11784
1
1
0.90855
1.12052
1.11818
1
1.11841
0.96935
1
1
1
1.12007
1
1.11881
1
1.11951
0.896698
1.11923
0.866708
1
1.1197
0.916506
0.896735
1
1.12056
1
1
1
1.11062
1.11931
1.11961
1
1
0.8802
1
1.06296
1
1.11973
1
1
1
1
0.893244
1
0.8942
1
1.1205
1
1.12269
1
1
1
1
0.8537
1
1
0.912663
1
0.885851
1
1
1
0.876965
1
1.11825
1.07568
1
1.11849
1.1251
0.887057
1.11846
0.897633
1
1.12058
0.895985
1.12023
1.11983
1
1
1
1
0.978054
0.88701
1.12136
1
1
0.916355
1
1.119
0.916744
1
1
1
1
1.06271
1.12036
0.876301
1
1
1.03273
1
0.896133
1
1.11908
1.1206
1
1
0.872565
0.872445
0.896548
1
1
1
1
1
0.97447
1
1.10308
1.01476
1.11928
1
1.11956
1.12009
1.11853
1.12102
1
0.861766
1
0.902826
1
1
1
1
1.12051
1
1
1
1
1.11902
1
1.00653
1
1
1
1
0.897573
1
1.00291
1
0.898785
1
1
1
1.12094
1
1.11829
0.879233
0.857618
1.11852
1.11842
1
1.02118
1.071
1
1.12232
0.897238
1.1108
1
1
1
1
1.11836
1.1006
1
1.1203
0.901457
1.12278
1
0.900079
1
0.894913
0.866994
0.999944
1
1
1.12008
1
1
1.11871
1
1.12015
1.12021
0.897275
1
1
0.897647
1.11857
1
1
1
1.11851
1
0.905301
1
1
1.11857
1.11858
1.1198
1
1.00001
1
1
1
1.11868
1
0.882116
1.12349
1.1187
1.1185
1
1
1
0.891733
1.11872
1.05816
1
1.1189
0.897199
0.903811
1.11892
1.1191
1
1.11889
0.897107
1.1061
1
1
1
1
1.11856
1
1.07259
1.0125
1
1
1.11879
0.909819
0.919735
1
1.11874
0.894517
1.11794
1
1
1
1
1
1
1
0.892425
0.928797
0.902977
1.11857
1
1
1
1
1.10918
1
0.89423
1
0.888328
0.898053
1.11849
0.890193
1.11874
1
1
1
0.999328
0.898883
0.901609
1
1
0.887003
1
1.12003
0.883392
1
1
1.12077
0.89745
1
1.1184
0.860266
1.11869
1
0.892156
0.999354
1
1
1
0.896244
1
1
1
1
1.00467
1.07573
1
0.881944
1
1
1
1
1
1
1
1.12084
1
1.12121
1
1
1
0.895953
1
1.11899
0.895259
1
1.09709
1
1
1.12108
1
1
1
1.11902
1
1
1.11625
1.12108
1
1.02924
1
1
0.906301
1
1
1
0.913931
1
1
1
1
0.87599
1
1
1
1
1
0.89901
1.00002
1.11821
1
0.999996
1.1183
1.1187
1
1
0.902572
0.942735
1.12068
1
1
1
1.11849
0.874486
1
1.11825
1
1
0.906787
0.906986
1
0.897466
0.893128
1
1
1
1
1
1
1
1.11932
1.03281
1.11154
0.899865
0.975061
1.12094
1
1.11873
1.12075
0.887943
0.923931
1
0.902292
1
1.12343
1
1
1
1
1.11861
1
1
1
1
1
1
1
1.04728
1.12038
1
1.11858
1
1
0.897909
1
1
1
1
1.11849
1.09277
1
1
0.897776
1.11876
1.11857
1
1.11857
1.11875
1.1186
1
0.951803
1
1.11822
0.997786
1.11861
1
0.901124
0.999696
1.12065
1
1
1
1
0.894746
1.11853
1.10862
1
1.11852
1.11825
1.1202
1
1.06056
1.11901
1
1
1.08488
1.01873
1.11845
0.979602
1.11851
1
1.11849
1.11855
1.11851
1.11871
1
1.11269
0.976823
0.963963
1
1
1
1
1.12053
1
1
1
1
1
1.12026
1
1
0.998903
1.11852
1.10745
1
1.10032
1.00001
1
1
1.11866
1
0.998919
1.00132
1
1.11867
1
1.11876
1
1
1.09082
1
1.11866
1.00001
1
1.11831
1
1.11849
1
1
1
1.1186
1
1.11927
1
1.11859
1.12106
1.11866
1.11936
1
1.121
1.12069
1
0.897349
1.11193
1.08739
1
1.11865
1
0.90904
0.86211
1
1
1
1
1
0.916877
1
1.11859
1.03255
1.11872
1
1
1
1
1
1.11853
1
1.12018
1.07397
0.928966
1
1
1.03637
1.0315
1
1
1.04812
1
0.900339
1.11851
1.11856
1
1
1
1.12038
1
1.00001
1.11823
1.11863
0.987198
1
1
0.891834
1.10887
1
1
1
1
1
1.11851
1.12111
1
1.11839
1.11878
1.11872
1
1
1
1
0.874255
1.12097
1
1
1.10901
1.11834
1
1.11217
1.12025
1
1
1
1
1
1.11863
1
1
1
1
1.12012
1
1.11814
0.899906
1
0.880992
1
1
1
0.999016
0.894833
0.999732
1
1
1
1.01778
1
1
0.962511
1
1
1
1
1
1
1
0.999999
0.981305
1
1
0.999289
1
0.895135
1
1
1
1
1.0912
1
1
1
1
0.903791
1
1
1.11223
1.12094
1
1
1
0.963283
1
1
1
1
1
1
0.98791
1.00423
1.11864
1
1
1
1.11992
0.968579
1
1
1
1.11985
1.11907
1
1
1
1
1
1
1
1
1
0.896384
1
1
1.1195
0.904119
1
1.11936
1
0.901625
1
1
0.893886
1
1
1
1
1
1
1
1.11645
1.11834
1
1
1
1
1.10911
1
1.04048
0.896172
1
1
1
1
1
1
1
1.01066
1
1
1.06513
1
1
1
1.09893
1
1
1
1
0.898584
1
1
0.887001
0.900066
1
1
1.11818
1
1.00875
1
1
1
1.08571
0.884705
1
0.881088
1
0.930689
1
1
1
1.11909
1
1
1.11847
1
1
1
1.11849
1
1
1.11852
1
1
0.888686
1
1.03921
1
1
1.12111
1.12044
1.08124
1.10755
1
0.89981
1
1
1.11364
1
0.889216
1
1
1
1.11864
1
1
1
1
1.07477
1
1.10867
1.11887
0.907983
1
1
0.871794
0.868947
1
1
1
1.08657
1.09242
1
1
1
1
1
1
1
1.05396
1.12062
1.00354
1
1.11725
0.858384
1
1
1
1.06885
1
1.02571
1
1.10914
1.11819
1
0.901517
1
1.12314
1
1
1.11872
1.11194
1
1.12252
1
0.921892
1
1
1
1.12018
1.11641
1.10544
1
1.11918
1.11863
1
1.11887
1
1.11818
1
0.89244
0.992985
0.895509
1
1
1
1
1
1.11878
1
1.11878
1
1
1
1.113
1
0.890735
1.11848
1
0.905706
0.894203
0.88956
1
1.06025
1.01252
1.11889
1.11851
1
1
1
1
1.11859
1
1
1.1186
1.1187
1
1.04458
0.999844
1
0.999092
1.12061
0.957899
1
0.949604
0.900537
0.899346
0.998387
1.11899
1.11715
1.02738
1.11866
1.11873
1
1
1.12006
1.12004
1.11857
1.12129
1
1.11865
0.889372
1.11942
1.11844
1.11982
1.11852
0.96003
0.970546
0.980402
1.11835
0.990981
1.11851
1
1
1.11896
1.11867
1
0.903263
1.11879
1.11872
1
1.11859
1.11858
1
1.11864
0.904268
1.11866
1.12026
1.12113
1.11694
1
1
1
1.11857
1.07898
0.890401
1.1185
0.892007
1.11832
1
1
1
1
1.1191
1.11861
1
1
1.11863
0.892565
1.11843
0.896888
1
1.11764
1
0.908026
1.11883
0.916348
1
1.11847
1.11908
1.11844
1
1
1.06184
1.11893
0.899502
1.11844
1
1.11855
0.964138
1.11857
0.890868
1
1.11886
0.901379
1.11898
0.900885
1
1.11859
1
1.11976
1
1.07165
1.11464
1.09517
0.869852
1
1.11872
1
1.11843
1
1.11876
1
1
1.11841
0.997078
1.11918
0.926459
1.10484
1
1.08676
1
1.11885
1.11865
1.11855
1
1.10775
1.11875
1.11075
1.0763
1.1191
1
1.08083
1
1.11828
1
1.02087
1
1.1106
1
1.1185
1.11333
1.11321
1
1.11693
0.861266
1
0.899029
1
1
1
1.11986
1
1.11886
1
1
1
1.11888
1.1166
1.09941
1.11864
1.11921
0.880416
1.11912
1.12136
1
1.1024
1.1185
1.11854
1
1.12264
1.12257
1
1.12051
1.11887
1.11871
1.11882
1
1
1
1.11845
0.876477
1
1.11855
1
1
0.8567
1
1
1.11846
1.11862
1
1.11853
1.12006
1.11883
0.994599
1.11855
1
1.11853
1.11853
1.09674
1
1
1
1.11898
1.11846
1.11852
0.984723
1
1.12049
1.11837
1.11855
1
1.11837
1.11834
1.11851
1.12055
1
1.11856
1.1188
1.10485
1.11896
1.12004
1
1.12078
1.11735
1.11854
1.11944
1.11847
0.867911
1.11884
1.11921
1
1.11855
1.11854
1.11845
1.11843
1
1.11876
1.11859
1
1.11866
1.1008
1
1
1
1.11911
1.11678
1
1
1.0684
1
1.11865
1
1
1.11875
1.11887
1.11834
1.11869
1
1
1
1.08791
1
1.11837
1
1
1.12028
1.12024
1
1.11848
0.892862
1.11865
1.1187
0.923161
1
0.869472
1.10559
1.11886
1.11828
1.1183
0.902314
1.11876
1.11906
0.898792
0.886656
1
1.11867
1.11818
1
1
1.11863
1
1.11821
1
1.10518
1
1.05798
1.11805
1.11905
1.08865
1.108
1.12083
1.11874
1.11306
1
0.858381
1.11905
1.11859
1.1198
1
1
1
1.11932
1
1.11877
1.11832
0.923133
1
1.11845
0.999982
1
1.00001
1.00001
1.11858
1.11885
0.999565
1
1
1.11844
1.11898
1.11857
1.11897
1.1186
0.88225
1.10678
1
1.11769
1.11841
1.11868
1.12074
1
1.11849
1.11549
1.11886
1
1.11871
1.11875
0.957397
1.11847
1.11904
1
1.1187
0.947482
1.11864
0.959984
1.11849
1
1.11859
1.12258
1.11867
1.11871
1.11857
1.11902
1.1187
1.11967
1
0.979256
1.11871
1.11846
0.950216
1.1185
0.996671
1.07823
1.11863
1.11838
1.11979
1
1.11919
1.0792
1.11831
0.977474
1.11912
1.12214
1
0.960125
1
1.11673
1
1.0839
1
1.11242
0.965558
1
1.11931
1.11744
1
1.11869
1.11896
1.11841
1.12074
1.12081
1
1.12102
1
1
1
0.974846
1.11851
1.11907
1.12037
1.11847
1.1182
1.11988
1.11829
1.11886
0.97604
1.00881
1
1
1.12277
1.11872
1.11849
1.11855
1.00001
1.06352
1
1.12031
1.10782
1
1
0.927655
1.11855
1
1
0.898505
1.11848
1
1.12134
1.11841
1.12111
1.11455
1.11856
1
0.86919
1.03013
1.11865
1.11859
1
1.11874
1.11846
1.06467
1.00299
1.02881
1
1.11998
1.11867
1
1
0.898711
1
1
1.11856
1.11856
1.11787
1.11856
1.11862
1.12097
1.1187
1.11784
1.11854
1
0.998837
1.1186
1.11842
0.999157
1.11849
1.11851
0.87512
0.906757
1.11874
1.11961
1
1
1.00052
1.1185
1.11772
1.11847
1
1.11845
1
0.963042
1.12013
1.11991
1
1.05656
1.1186
1
1.12015
1
1.11851
1.0778
1.11897
1
1.11822
1.11697
0.892462
1.11869
1
1.11938
1.12029
1
0.874071
1.11906
1.10403
0.999271
1.11329
1.11853
1
0.999309
1.11949
0.999299
1.11842
1
1
1.11881
1
1.11896
1.11849
0.998956
1.09534
1
1.11851
1
1
1
1
1.11856
1
1
1.11569
1
1.11859
1
1.07973
1.11789
1.11891
1
1
0.995828
1
1.11894
1.11845
1.1188
1.11856
1.11884
1.11861
1.11851
1
1.11842
1.11847
1
1.11852
1.11852
1
1.11918
0.984446
1.01667
1.11845
1.11856
1.11863
1
1.11855
1
1.11846
1.11847
1
1.11873
1
1
1
1
1.11871
0.873664
0.999393
1
1.11848
1.12032
1
1.1185
1
1.00154
0.885676
1.11857
0.999881
1
1.1187
0.999526
1.11847
1
0.999941
1
1.11853
1.11972
1.11861
1.11908
0.895228
1.11867
1.11872
1.1185
1.0313
1
1
1.05483
1.1186
0.871722
0.890327
1
1.11873
1.11871
1.11887
1
1
1.11839
1.11848
0.999962
1
1.08819
0.895421
1
1.02221
1.12075
1.11761
0.999497
1.11851
1.12082
1
0.99964
1
1.11839
1.12025
1.04967
1
1.11115
1
1.00049
1.11859
0.879398
1.11835
1.11858
0.999149
0.999974
1.10233
1
0.999912
1
1.11929
1
1
0.877704
1.11868
1
1
1
1
1.12093
1.06992
1
1
0.892051
1.11859
1.07078
1
1
1
1.11352
1.11707
1.11955
1
1
1.12024
1
1.11857
1.11851
1
1
1.11907
1.11863
1.11403
1
1
1.11903
1.11882
1
1
1
1.11905
1
1
1
1.11869
1.11906
1.1189
1
1.12016
1.00001
0.916947
1.1183
1.11838
1
1.12091
1.11487
1.11915
1
1
1.11962
1
1.06669
1.11886
1
0.888569
1
1.11906
1
1
1.11813
1
1
1
1.03952
1.11891
0.910528
1
1.11886
1
1
1.11856
1
1.11965
1
1
1.11859
1.11872
1
1.00002
1
1
1
1
1
1
1.1193
1.1187
1
1.12111
0.887812
1.12076
1
1.11851
1.1206
1.11864
1.12093
1.12237
1
1
1.11879
1
1.07631
1.11965
1.11871
1
1.11887
1.12065
1
1.10673
1
1.1185
1.0804
1.11886
0.999258
1.11676
1.11043
1.11875
1.11868
1.01035
1.11857
1.11909
1
1.11847
1
1.11872
1
1
1
1
0.998996
1.11851
1.11873
1.10191
1
1.11962
1
1
1
0.877824
1
1.11567
1
1.10886
1.11349
1
1
1
1.11095
1.12028
1
1
1.11874
0.895406
1.02138
1
1.11975
1.11846
1.10926
1.11561
1.11848
1
1.11836
1
1
1
1
1.11813
1.11891
1
1.11357
1.01402
1.11861
1.11127
1
1
1.11154
1
1
0.903219
1.0873
1
1
1.11762
1
1.11933
1.1088
1
1.10879
0.896164
1.11866
1.1184
1.11863
1
0.900124
1
1
1
1.11857
1.10155
1
1.11776
1.11866
1
1.1187
1
1
1
1
1.1186
0.999812
1
1.11909
1
1
1.11858
1.11853
1
1.12009
1.02359
1.00001
1
1.11868
1
1.11885
1
1.004
1.11858
1
1.11854
1
1
1.03833
1.11867
1
1
1
1
1
0.998944
0.882107
0.870767
1.00594
1
1.00339
1
1.00647
1
1.11857
1
1.07673
1
1.11867
1
1
1
1.11867
1
1.09738
1.1183
1
1.06537
1.11858
1
1
1.11981
1.11838
1
1
1.01736
0.871871
1
1.11897
1
1
1
1
1.02175
1.11879
1
1
1
0.91025
1
1.11862
1.1187
1.12095
1
1
1
1
1.06236
1.1207
1
1
1
1.11921
1.11858
1.01953
1
1
1
1.11858
1.1186
1
0.883008
1.11859
1.11851
1.11814
1.11832
1.11941
1
1
1.11851
1.11909
1.11855
0.91271
1.01176
1.11872
1
1
1
1
1
1.11863
0.890681
1
1
1.11853
1.058
1
1.11831
1
1
1
0.900821
1
1
1.03404
1.11865
1.11852
1
1.1184
1.11886
1
1.02364
1
1.11903
1
1.11888
0.89397
1
1
1
1
1.11872
1.00002
1
1
1
1.11853
1
1
1
1
1.11861
0.900354
1.0948
1.11943
1
1.11834
1
1
1
0.999173
1
1.12106
1
0.942148
1
1
1.00001
1.11839
0.894674
1
1.11875
1
1.11787
1.11858
0.9091
1
1
1.11229
1
1
0.919876
1
1.11713
1
1.11386
0.999828
1.11878
1
1
1
1
1.11968
1
1
1.11855
1
1
1
1
1
1
1
1
1.08139
1
1.04133
1.11871
1
1
1
0.89064
1
1
1
1
1.11949
1.11855
1.01484
1
1
1.11884
1
1
1.11881
1
1
1
1
1
1
1.1187
0.933657
1.11857
1.11907
0.999194
1
1
1
1.07356
1
1
1.11878
1.11858
1
1
1
1
0.890153
1
1
1
1.07769
1
1.1186
1.11905
1
1.11895
1
1
1
1.06612
1
1.12086
1
1.11856
1
1
0.99892
1.1186
1
1
1
1
1
1.11804
1.00001
1
0.905076
1.11909
0.906515
1
1.11929
1
0.998848
1
1.11867
1.12041
1
1.118
0.962932
1.11844
1.12019
1.00001
1
1
0.888931
1
1
1
1.11852
1.07216
1.11814
1
1
1
1
0.999116
1.11876
1
0.894175
1
1
1
1
1
1
1
1.12042
1.118
1.11916
1
1
0.999104
1
0.996501
1
1
1
0.87358
0.991143
1
0.88738
0.893231
1
1.11863
1.11851
1
1.11913
1.11859
0.893408
1.07945
1
1
1
0.893561
1.11888
1
0.893657
1
1.12066
1.02352
1
1
1
1
1.11863
1.11904
1
1
1.11853
1
1
1.11939
1.1185
1
1.10764
1.11861
1.12168
0.994695
1.11885
1.00248
0.896131
1.0935
1.11833
1
1
1
0.879977
1
0.882045
1.11975
0.994397
1.1185
0.985029
1
1.11884
1.05848
1
1
1.11952
1
1.05252
1.11833
1
1
1.11861
1.11622
0.888251
1.07249
0.999971
1
1.07426
1
1.11794
0.980273
1.12157
1.11885
1
1
1
1
1.11445
1
1
1.11807
0.999898
1.11882
1.09608
1.11873
0.89599
1
1
1
1
1.11883
1.00001
1.11857
1
1.11867
1.11839
1.01662
1.11875
1.03832
1.11907
1
1.08371
0.898734
1.11968
1.11856
1.09545
1.02262
1.11903
1.11848
1.11853
1.11879
1
0.979178
1.01871
1
1.1186
1.05915
1.11863
1.00001
1
1
0.902204
1.11808
1.1193
1.09907
1
1.04899
1
1.11959
1.12016
1
1.11899
1.11943
1
1
1
1.11891
1
1.04995
1.11817
1.08445
1
1.11859
1
1
1
1
1
1
1
1
1
1
0.908498
1
1.11039
0.868418
1.07352
0.999589
1.1186
1
1.06476
1
1.07972
1.10298
1
1.00054
1.12052
0.976176
1
1.11969
1.11588
0.984978
1
1.1185
1.1187
1.11891
1
1.11862
1.11887
1.11826
1
1.05869
1
1.00002
1.11879
1
1.11859
1.01906
1.11903
1
1
1.11944
1.11933
0.890646
1
1.11845
1.09127
1.11833
1
1
1.12052
1.11938
0.99949
1
1.11129
0.999114
1.11858
1.00001
1
1
1
1
1.05778
1
1.09233
1.11907
1.09051
1.1182
1
1.00048
1
1
1.12135
1
1.11863
1
1
1
1
1
1
1.01602
1.06468
1
1
0.863775
1
1.11836
0.910177
1.12031
1
1.06455
0.999926
1.11873
1.0794
0.901373
1.06781
1.00001
1.11864
1.11915
1
1.07504
1.11965
1.11843
0.999543
1.11998
1.11564
0.879708
1
1
0.999356
1
1.11885
1
0.898495
1.11822
1
1
1.10594
1
1.11892
1
1.11895
1
0.902093
1
1
1.11822
1.11832
1.11956
1
1.1193
1.11855
1.11615
1
1
1.1177
1
0.924279
1
1
1
1.11939
1
1.11844
1.08137
1.11894
1
1.11851
0.999818
1
1
1
1
1
1
0.916222
1
1
1.11859
1
1.11987
1.11798
1
0.892884
0.890782
1
1.11903
1.0198
0.89512
0.887018
1
1.11869
1
1.11942
0.906843
1.00036
1
1
0.999857
1
1
1
0.999977
1.05313
1.11858
1
1
1.11865
1.07269
1
1.10718
1.11899
1.11914
1.05288
1.11458
1
1.11873
1
1.11566
1
1.11751
1.11876
0.999071
1.11842
1.118
1
1
1
1
1
0.975696
1.11944
1.00001
1.00001
0.865741
0.999996
0.87387
0.895287
1
1.11859
1.11875
1.11875
1
1.11852
1
0.895006
1
1
1.11878
0.953181
1.11815
1
1.11827
1
0.997742
1.11843
1
1
1
1.1184
1
1.11894
0.888052
1
1
1.07338
1
1
1.06673
1
1
1.11861
1
1
1
1
1
1.12035
1.11846
1
1.11957
1.11844
0.887441
1.05885
1.11941
1
1
1.10797
0.999727
1
1
1.11856
1.11859
1.08435
1
1.11855
0.890069
1.11081
0.99977
1
1.11817
1.00001
1.11886
1.09922
1.09227
1
1
1.11861
0.919843
0.871305
1
1.11851
1
1.11839
1
1.07448
1
1
1.1183
1.07972
0.893463
1
0.999543
1
1
1.00713
1.05238
1.11861
1
1.1193
1
1
1
1
1
1
1.01927
0.892661
1
1
1.01452
1
1
1
1
1
1.11886
1
1
1.11845
1.11843
1.08934
1
1
1
0.955621
1.12023
1.08491
1
1
1
1
1.11865
1
1
1
1.11926
1
1
1.08824
1.12338
1.01032
0.927901
1.11835
1.08712
1.11823
1
1.06243
1
1
1
0.882708
1.00063
0.877921
1
0.896221
0.88066
1
0.88945
1
1
1
1.05665
1
1.11876
1.11882
1.00041
1.06007
1.10052
0.869984
0.933234
0.962216
1
1.11853
1.12045
1.11853
1.11866
1.10327
0.965011
1
1.10405
1
1.11561
1
1
0.998979
1.00293
1
1
1
1.11978
1
0.863004
1
1.11877
0.886098
1
1
1.11864
1
1.1185
0.999989
1
1
1.11872
1.11239
1
1.12298
1
1
1.0042
1
1.05436
1
1
0.88658
1
1
1.11914
1
1.11845
1
1.00001
0.874791
1
1
0.868117
1.00031
1
1.11963
0.88913
1.11986
0.896511
1.11856
1
1
1
1
1
1
1
1
1
1
1
1.11419
1
1.11903
1.12025
0.891101
1
1
1
1
1
1
1.11559
1
1
0.89315
1
1
1.11998
1
1
1.04896
1.10114
0.902314
0.893902
0.906736
0.923566
1
0.999009
0.864478
1.00014
1.1105
0.999141
1
1
1.11873
1
1
1
0.927171
1
1.04604
1
1
1.05153
1.11849
1
0.874118
1
1
1
0.999116
1
1.11904
1.11867
1
0.890737
1
1.06693
0.891668
1
0.967995
1
0.998728
0.879433
1
1
1
0.9989
0.889591
1
0.891949
0.999532
1.06602
1.10666
0.898154
0.901629
1
0.997487
1
0.999617
1
1.11835
1.11834
1
1.00863
1.11862
1.11874
1
1
1.11862
1
1
1.00001
1
1.11925
1
1
1.00498
1
0.999595
0.91498
1
1
1
1
1
1.1183
1.01176
1.00001
1
1
1
1
1
1.00001
1
0.88858
1.02839
0.999594
1.1158
1.11867
1
1.00474
1.1187
1.10652
1
1
0.906723
1.1188
1
1.11971
1
1.11829
1.08151
0.885618
1
0.892866
1.11494
0.99991
1
0.893221
0.90808
1
1
1.10131
1
1
0.885814
1
1
1
1.0392
1
0.889789
1.11805
1
1
1
1
1.11852
1
1
1.11738
1.10767
1
1
1
1.11907
0.884129
1
1.11901
1.11854
1
1.09699
1
1.00001
1
1
1.10995
1.00739
1
0.876801
1.07098
1
1
0.999204
1
1
1.12004
1
1
1.00001
1
1.11903
1
1
1
1
1
1
1
1.05701
1
1.11881
1
1
1.11896
1
1
1
1.1185
1.11825
1.01318
1
0.999329
1
1
1
1
1.12024
1
1
1.11856
0.892368
1
1
1
1
1
1
1.09785
1
1
1.11914
1.11914
1
1
1
1.11919
1.11828
1
0.999925
1.1208
1
1
1
1.00001
0.864735
1.00867
0.998911
0.998821
1
1
0.884207
1.11852
1
0.911121
1
1.11913
1.11435
0.90182
0.99983
1.11861
1.11906
1.11834
1
1
0.972811
1.1071
1.10349
0.912984
1
1
1
1.11832
1.11869
0.888429
0.999238
1
1.11871
0.868909
1
1.11606
0.892015
0.995606
1.00177
1
1.1183
1
1
1
1
1
1
1.00003
1.11111
1
1
1.12021
1
1
1
1.11857
1
0.890231
1
1
1
1.04315
1
1
1
1
1
0.938363
1
0.871231
1
1.11867
1.00001
0.959183
0.963144
1
1.00106
1.06627
1
1
0.882437
1.11847
1.11871
1.11852
1
0.889557
0.883973
1
1.11844
1
1
1
1
1
1.00001
1
0.891372
1.07897
1
1
0.900401
0.996608
1
1
1
1
0.879469
1
0.892729
1
1
1.11992
1
1
0.891725
1
1.11848
1
0.867685
1
0.891848
1
1.00233
1.11857
1.12253
1
1
1.12034
1
1
1.02999
0.999136
1
0.999475
1
1.11925
1
0.891987
1
1.12022
0.999676
1
1
0.931952
1
0.999716
0.890974
1.11853
1.04537
1
1
0.968639
1
1
1
0.932168
1
1
1
1.11856
1
0.887031
1
1
1
1
0.890825
1.11842
1.11451
0.892319
1
1.11683
1
1
1.1186
1.11985
1.10162
0.888977
0.999358
0.999793
1
1.11848
1
1
1
1
1.11892
1.00001
1
1
1.11863
1
1
1.11853
0.880598
1
1
1
0.894636
1
1
1
0.999599
1
1
1
1
1.09492
1
1.12008
1.1194
1.12147
1.11855
1.11829
1.11855
1
1.11898
1
1.11857
1.1186
1
0.999664
0.883332
1.10296
0.999971
1
1
1
1
0.997271
1
1.01882
1
1
1
0.959116
1.11854
1.11866
1.11918
1.10268
0.999963
1
1.00647
1.11861
0.999408
1.02031
0.999151
0.908636
1
1
1
1
1
1
1
1.11839
0.889587
1.11842
1.11851
0.998641
0.864257
1
1
1
1.1187
0.881421
1.10611
0.889512
1.11849
1.11846
0.893259
1.11785
1.00692
1
1.11946
0.936717
1
0.999643
0.870742
1
0.900825
1
1.11858
1.11846
0.929267
1
1.11919
0.907983
1
0.889352
1
1.11854
1
1
1.11539
1
0.953242
1
0.999916
0.901626
1.11913
0.999849
1
0.86381
1
1
1
1
1.06989
1
1.11845
1
1
1.12167
1
1
1.1188
1
0.885354
1
0.902621
1
1
1
1
1
1.11398
1.07315
1.11846
1
1.11861
1.11117
0.879806
0.871001
1
1
1.11891
1
0.883914
1
0.998482
1
1
1.1186
1
1.11984
0.872287
1.12025
1
0.871308
1
1
1.11835
1.11831
1
1.00001
1
1.11822
1
1
0.876153
0.999826
0.866181
1
1
1
1.11901
1.1192
1.11956
1
1
0.909343
1
1.11913
1
1
1
1.11529
1.11849
1.1186
0.897072
1.11935
1.11849
0.893425
1.11939
1.00001
0.897825
1.00189
1
1
1.11855
0.889087
1.0791
0.878179
1.11846
0.999271
0.890091
1.11894
1
1
1
1
1.1187
1.12024
0.890128
1
1.00001
0.893265
1.00001
1
0.899092
0.870124
1.08571
1.1189
0.999559
1.11839
1
1.11981
0.94493
0.896853
1.11855
1.12163
1
1.11874
1
1
1.11874
1
1.0936
1.11961
1
1
1
1
1.11876
1.11741
1.11843
1
1
1.11891
1.11998
1.11825
1
1.11869
1
1
1
1
1
0.888811
0.95346
0.87326
1
1
1.11889
1
1
1.11833
0.892113
1
1.11863
1.11745
1.11432
0.881994
1
0.909325
1
1.00001
1.12009
1.0584
1.11968
1.10911
1
0.909078
1
1.1182
1.08745
0.899256
1
1
1
0.942077
1
1
1.12128
1
0.906
1.11851
1
1
1
1
1
1.09732
1.02905
1
1.11901
1
1.11845
1
0.999195
1
1.11838
1.1187
1.11815
1.11943
0.999883
1.11944
1
1.11851
1.11856
1.10169
1
1
0.873596
1.11932
1
1
1.11806
1.11877
1.11919
1
1.11837
1
1
1.00001
1.11905
1.11933
1.03667
1.02745
1.11838
1.11861
0.893428
1
1
1
1
1.00001
1.04532
1
1
1.10408
0.867433
0.999988
1
1.11846
0.999965
0.999953
1.01941
1.10814
1.12121
0.976867
1
0.87262
1
0.995851
1.11851
1.11896
1.12037
0.99973
1
1
0.888343
1
1
1.11851
1.01425
1
1
1
1
1
1
1
0.999982
1.11992
1
1
1
1
1
1.07732
1
1.05942
1
1
1.11847
1.11946
0.8953
0.999654
1
1
1
0.888895
1.11911
1.11858
1
1
1
1
1
1
1
1
1.11856
1.11901
0.874292
1.01424
0.891665
1
0.888277
1
1.11849
1.03532
1
1
0.897408
1
1.11435
0.949071
0.999003
0.890794
1
1
1.11923
1.00001
0.999194
0.886493
1.11952
1.12018
1
1
1
1
1.11145
1
1
1.1186
0.999716
1.11933
1.00003
1
1
0.881618
1
1
1.11841
0.892246
0.939532
0.894186
1.11871
0.9998
1
1.11931
0.899425
0.891655
1.0014
1
1
1.12018
1.00001
1.05857
1
1
1.12008
0.894784
1
1
1.00004
1.11962
1.00005
1.11746
1
1.00001
1
1
0.912585
1
0.938224
1
1
1.11787
0.877046
1
0.929512
0.942331
1
1
1.11842
1
1
1
1.11866
1.11872
1.00001
1.12004
1.12015
0.938569
1.11862
1.11434
1
1
1.11883
1
1
1
1
1
1.12031
1.11849
1
1
1
1.11822
1.00006
1
0.890715
0.920893
1
1.00001
1.04655
1
1
0.969556
0.910764
1
1
1
1.11939
1.10947
1.11853
1
1
1
1
0.870439
1
1.11392
1
1.12009
0.879077
1.11831
1
1
1
0.910966
1
1.11915
1.00001
1
0.899167
1.04762
1
0.999905
1.12224
0.884684
0.878585
1
1.11943
0.889801
0.891156
1
0.86979
0.999999
1
1
1
0.902748
1
1
1
1
1.11911
1
1.09356
0.865667
1
1
1
0.894818
1.11846
1
1
0.998982
1.11761
1
1.11843
1.11936
1
1
0.917117
0.897382
1
1
0.896292
1.04144
1.05905
1
1
1.11988
0.99926
1
0.999354
1.12034
1
1
1
1
1
1
1.11847
1
1.04559
1.0406
0.902968
1.10678
1
1.11873
1.1185
1
1
1
0.977536
0.892837
1
1.06372
0.999905
1.10622
1
1
1
1
1
1.00156
1.05493
1.11892
1.11834
1
1.11857
1
0.924654
1
0.999216
0.999933
1
0.876567
1
0.885506
1.00001
1.1194
1.11967
0.886616
1.11944
0.902291
0.998895
1.09129
0.883371
1.08586
1
1
0.999551
1
1
1
1.00002
1
0.885142
1
1
1
1
0.999878
1.11869
0.940981
1
1
1
1.01057
1
1
1
1.07028
0.928798
1
1
1
1.0177
1.11869
1
0.869021
1
1.119
0.97081
0.902515
1
0.888022
1
1
1.11254
0.999498
1.11472
1
1.00252
1
1
1.1187
1
1
1
1
1.02501
1
1.11871
1.11909
1.12093
0.882718
1.11859
0.999179
1.09943
1
1
0.876331
1
1
0.884437
1.11776
1
1
0.999979
1
1
1
0.886874
0.879328
1
1.12077
1
1.05994
1.11853
0.892197
1.10146
1
1
0.899972
1
1
1.11857
1.11845
1.04612
1
1
1.00058
1.11939
0.884561
0.879903
1.11972
1.11859
1.08462
1.05056
1
0.968774
1
1
1
1.1115
1.11963
1.11899
1
1
1.11789
0.877887
1.10855
0.885476
1
0.888032
1
0.88094
1.11855
0.885662
1
0.996322
0.905729
1
1
1
0.952193
1.11078
1.11845
1.11922
1.11862
1
1
1.12014
1
1
1.11868
1
0.907024
1
0.876189
1
1.11987
1
1
1.00647
1.09341
1
0.999701
0.90222
1.11843
1
0.865728
1.02496
1
1
1.09345
1.11846
1.11862
1
1.11895
1.03682
1
1.00677
1.11855
1
1
1
1
1.1185
1
0.8777
1.11871
0.892631
0.870973
0.948703
1.11886
1.04326
1.11913
1
1.11977
0.999212
1.00001
1.11874
1.11984
1
1.1183
1
1.11858
1
1.11955
1
1.00001
1
1.11854
0.883736
0.887904
0.999408
1
1
1
0.879389
1
1.0812
1
0.888752
1
1.05136
1.11843
1.11844
1
1
1.00001
0.999822
1
1.11947
1.11852
1
1.05315
1.11887
0.955614
1.11851
1.00001
0.888543
1.02766
0.899018
1
1
1.02232
1.12054
1
1
1.01071
0.999593
1
0.869522
1
0.935857
1
1.11854
1
1
0.904336
1.03125
1.02003
0.99957
1.11819
1.11862
0.932247
0.999465
0.879523
0.9101
0.881788
1
1
1
0.99973
0.906001
0.896575
1
1.11854
0.999927
1.11851
1.1187
1.11966
1.11839
1
0.881867
1.11859
0.896038
1
1.1185
1.11967
0.999102
0.943396
1.1187
1.09173
1
0.889615
1
1
1.11837
1
1.00752
1.11812
1
0.870851
0.877676
1
1
0.889242
0.897735
1.11838
1.00001
1
0.866774
0.886856
1.1183
1.11538
1.11159
1.11977
1.03583
0.992681
1.05184
1.1194
1.09419
1
1.0662
1
0.881441
0.953652
1
0.875935
1.11864
1.00631
1.11892
1
1.11857
1.12006
1
1.11868
1.11859
0.889949
1.11903
1
1.12308
1
0.925953
0.889047
1.11922
1
1
1
0.886785
1.11873
1.11893
1
0.89012
1
1
0.872615
1.00001
0.885127
1.11989
1
0.941294
0.901897
1
1
1.0722
1
1
1
1.02214
0.884754
1
1
1
1.11895
0.892355
1
1.11889
0.867684
0.889399
1
1
1.11938
1
1.11804
1
1.11853
0.89413
1
1
0.898542
0.940388
0.87279
1
1
1
1
1.11795
0.879352
1
0.890867
1
1.11867
1
1
0.980846
1
1
0.941719
0.999902
1.00002
1
0.89245
0.892459
1
1
1
1
0.932918
1.11828
1.1195
1
0.889583
0.904918
0.967951
0.892414
1
0.949862
1
0.891595
0.996685
1
1
0.897492
1
1.11866
1.11218
0.884976
1
1
1
1.11609
1
1.01475
0.951072
1.04092
0.888891
1.05152
0.886745
1
1
0.902048
0.975227
1
1.01281
1
1
0.909231
1
0.979718
1.01644
0.892188
1
1.09726
0.916561
0.966666
1
1
1
0.893274
1
0.888013
0.897233
1
0.962771
0.889866
1.02137
0.913311
0.876808
1.11871
1
1.11843
1.07009
0.917188
1.11851
0.87616
0.999722
1.11933
1
1
1.11886
1
0.916522
1
1.0233
1
1
1.11855
1
0.938363
0.945778
1.12037
0.982695
1
0.925833
1.11879
1.11905
0.974865
1
1.11843
1.03461
0.958224
1
1.00547
1
0.890349
1.05473
0.929873
0.919846
1
1
0.896823
1.11857
0.987095
0.893307
0.883551
0.954137
1
1.00141
1.11967
1.11844
1
1
1
0.887608
1.05811
0.999999
1.11901
1.11226
0.892565
0.999999
1.02898
0.965401
1.07355
1.10394
1
1.01397
1
1.00002
0.871194
0.956409
1
1
0.944498
0.871312
1.01348
1
1.00001
0.864974
1.0581
1
1.11708
1
1.01203
1.06886
1
1.117
1
1
1.11921
1
0.890468
1.12002
0.892341
1.03356
1
0.891662
0.999972
1
1.00001
1
0.934808
1.00781
0.894933
1.09317
1.11978
0.884797
1
1
1
1
1
0.989094
0.906157
1.01914
0.894493
0.889098
1.02404
1
0.999946
1.0334
1
1
0.894531
0.998072
1
1
1.03759
1
1.11936
1
1.11959
1.02632
1.00968
0.889769
1
1
0.869315
1
1
1
1
1.11917
1.01241
0.999453
1
0.886339
1.01565
1
1
1.08093
1
0.884859
1.11842
1
1
1
1.11836
0.885322
0.966342
0.884569
1.09215
1.11928
1
1
1.11831
1
0.898046
1
1
1
1
1
0.924625
1
1.11888
1
1
1.04512
1.11934
0.88787
0.967391
1
1.11848
1
1
1
1
1
1.1184
1.11936
0.89666
1.11846
0.887812
1
1
1.11861
1
1.11959
1.00493
1.00812
1.01952
1.11864
1.01906
1.08404
0.884005
1
0.885554
0.997423
1
1.1188
1
1
0.891265
1.11836
1
1.11907
1
1
1
1
1
1
0.88287
1.11989
0.959518
1.11863
1
0.886019
0.890864
0.915198
1.12024
1.11893
0.986288
1
0.944131
1
1.0508
1
1.11884
0.88858
0.890252
0.959627
1
1.11883
1
1.02388
0.894898
1
1.12049
1.10673
0.99966
1
1.11851
0.890639
1.11983
1.11839
1.12015
0.893993
1.02726
1
1
0.883474
1
0.9496
0.954952
1
1.00001
1.11868
1
1.11797
1.02355
1
1.0124
1.12083
1
0.879684
1
0.930053
1
1
1.09903
1
0.939234
1
0.898506
1.0107
0.990811
0.891746
1.11881
1.09983
1.11937
0.895886
0.908122
0.998904
1
1
0.894791
1.11227
0.889746
0.999992
1
1.11852
1.11933
0.965321
1
0.889293
0.901848
1.08226
0.993168
0.891399
1
0.890527
1.032
0.891349
1
1.00002
0.938907
1.11966
1.11876
0.946885
0.999881
1
1
0.908755
1
0.88697
1
0.90278
0.887279
1
1
1.00001
0.896544
1.11859
1
1
1.00002
1.00001
0.909019
1.11923
1.11849
1
0.894421
1.11965
1
1.02776
1
1
1.11827
0.886457
1
1
0.900186
0.916536
0.890474
0.885147
1
0.894411
0.999212
1.02797
0.890776
1
1
1.03587
1
1.10648
1
1
1.0857
0.892515
1
0.899607
1.03698
1.11837
1
1
0.898094
0.889851
0.884978
0.910148
0.878658
1.09172
0.999824
1
1
1
1
1.11891
0.86886
1
0.986451
0.999908
0.999521
0.999983
0.919282
1.03767
1
1.11859
1.11878
1
1
1.11458
1.00001
1
1.11827
0.89506
1.11728
1
0.882851
1.11883
1.00001
1
0.948426
1
0.881761
1
1.11934
1
1
1.11922
1
1
1.11828
1
1
1
1.1197
1
0.919685
0.908554
1
0.885734
1.11898
1
1
0.992415
1
1.11965
1.07192
1.09758
1
1
0.89325
1
0.887085
1.11815
1.11948
1.11885
1
1.11976
0.886926
1
0.895147
1.09711
1.11151
1.11908
1.11829
0.919573
0.886842
1
1.08574
1.11941
1.11901
1.11861
0.929215
1.04497
1
1.09274
0.911395
1
1
1
1.00001
0.969955
1
1.11851
1
1
1
1
1
1
1.00002
1.11771
1
1.11906
1.0902
0.887386
1.12026
1.00865
1.06419
1
1.11841
1
0.891241
1
1
1
1
1.10299
1
0.882538
1.11855
0.881379
1.11839
1.0963
1.06549
1
1.02461
1.05902
0.99881
0.908213
0.938301
1.00001
1
0.971833
1
0.873814
1.11924
0.873405
0.979355
0.962929
1
1
1
1.00386
1
1
0.904499
0.999031
1.11999
1
1.11857
1
0.889062
1
1
1.11859
1.1183
0.883796
1
1.11921
1
0.950049
0.887049
1.11886
1.10762
1
1.02229
1.11875
0.999612
1
1.05157
1.10583
1.11825
0.998868
1
1
1.10266
1
1
1
1.11855
0.999566
1
1
1.11886
1
1
0.890838
1
1
1
1.11906
1
1
0.963077
1.04217
1.10906
0.936447
1
1.1184
1
1.04376
1
1.11885
0.999197
1.1185
1
0.889351
1
1.08348
1
1
1.11149
1.00001
1.11853
1
1.11804
0.900553
0.894805
1.11931
1
1.10311
1
1.11915
1
1
1.00001
1.11896
1.11912
1.0324
1.11867
0.99864
0.907452
1.11815
0.958765
1
1.11521
1
1.11868
1
1.1192
1.11917
0.998912
0.88569
1
1.11859
1
1.00962
1
1
0.999401
0.917215
1.10713
1
1.11031
1
0.968113
0.888117
1.11828
1.11891
0.906258
1
1.11964
1.12106
1.11955
0.897233
1.11859
0.886336
1.11912
1.12032
1
1
1.11862
1
1
1
1
0.890548
1
1
1.11929
1.11859
1
1.1186
1
1.12231
1.11936
1
1.10051
1
0.884944
1.11844
1.08935
1.03406
0.881378
1.11845
1
1
0.888215
1
1
1.11852
1
1
0.941252
1
1.11884
1.00002
1.11914
0.884986
1.11989
1
1.1186
1.1146
0.966943
1
1.11815
0.930123
1.1206
1.08596
1.11876
1.11843
0.999148
1.11778
1.11887
1.11857
1.11854
1.0001
1
0.908821
1
1.11946
0.948467
1.10919
1
1.11669
1
1
1
1
1
1.11804
0.886769
0.891489
1.11921
1.11845
1
1
1
1
1
1.11764
1.10681
1.1185
1.00812
1
1
1
1.00001
1.11842
1.11849
1
1.12086
1.11943
0.89686
1.08579
1
1.11849
1.11912
1.11792
0.999352
1.11878
1.11928
1
1.10941
1
1
1
1
1
1
1.11875
1.11997
1.11138
1.11851
0.886687
0.901376
1.11856
1.11849
1
0.877497
0.984037
1
1.05894
0.888856
1
0.999846
0.999511
0.888513
1
1.11842
1
1
1
1.11933
0.984296
1
1.1188
1.11857
1
1.11885
1
1
1.11858
1
0.883294
1
1.1181
1
1
0.894482
1
1.11882
1
0.887805
0.875367
1
1.11312
1
0.882915
0.971008
1
1.1187
1
1
1
1.11912
1
0.878721
1.01673
1.11891
1.11908
1.11865
1.01344
1.11902
1.11881
1
1
1
1
1
1.11864
1
0.999807
1.11814
1
0.883572
1
1.11869
1.0589
1.01853
1.05911
1.01768
1.11666
0.904018
1.11846
1
0.893183
0.999198
1.1185
0.981388
1.11849
1.11865
1.11415
1
1.11933
1.11867
1.11843
1
1.00001
1
1
1.11886
1.0864
1
1
0.892187
0.999052
1
1.11861
1
1.11839
1.11852
1.11822
0.968069
1.11874
1.1188
1.00567
1.06056
1.11931
1.1184
1
1.11024
0.956729
1.11422
0.992431
1.1184
1
1.11857
1.11877
1
0.893806
0.980253
0.915181
1
1.02268
0.999179
1.11821
1
1
0.999043
1
1.06336
1.10994
1
1
1.11844
1
1
1.08807
1.11813
1.11441
1.11872
1.11875
1
1.1191
0.927213
1.11904
1
1.0012
0.881819
1
1
0.924811
1
1.0403
1
1.11893
1
1.11658
1.07752
0.888407
1
1
1
1
1
1.11897
1.00338
1
1.11969
1
1.11863
1.1185
1
1
0.990995
0.999954
0.886377
0.88065
0.921651
1.02514
1
0.999547
0.895406
1.00001
1
1.11837
0.982364
1.1116
1.10327
1
1
1
1
1
1.11866
1.11857
1
1.11882
1
1.1201
1.08245
0.998928
1
1
1
1.07154
1
0.991342
1
1.11902
1
1
1.1185
1
1
1
1
1
1.11888
0.887569
0.998874
1.10746
1.11842
1
1.1186
1
1
1
1
0.907892
1
1.11826
1.11866
1.11865
1.11937
0.99275
1