/*--------------------------------*- C++ -*----------------------------------*\
  =========                 |
  \\      /  F ield         | OpenFOAM: The Open Source CFD Toolbox
   \\    /   O peration     | Website:  https://openfoam.org
    \\  /    A nd           | Version:  12
     \\/     M anipulation  |
\*---------------------------------------------------------------------------*/
FoamFile
{
    format      ascii;
    class       volVectorField;
    location    "6.3";
    object      U;
}
// * * * * * * * * * * * * * * * * * * * * * * * * * * * * * * * * * * * * * //

dimensions      [0 1 -1 0 0 0 0];

internalField   nonuniform List<vector> 
22702
(
(2 4.36774e-13 0)
(2 -1.38071e-14 0)
(2.04327 -0.0933331 0)
(2 -1.12808e-09 0)
(1.9753 0.0368523 0)
(2 -2.99386e-14 0)
(1.82992 0.228735 0)
(2 2.49376e-13 0)
(2 2.47194e-13 0)
(2.11773 -0.264961 0)
(1.83019 0.228755 0)
(1.83016 0.228739 0)
(2 -8.07635e-13 0)
(1.83115 0.229106 0)
(2.0378 -0.0755765 0)
(2 9.65347e-14 0)
(2 3.28425e-13 0)
(2 -9.51763e-14 0)
(1.82995 0.228618 0)
(2 3.74744e-14 0)
(1.83141 0.22912 0)
(2 -2.22206e-13 0)
(1.83041 0.228674 0)
(2.10791 -0.261786 0)
(1.83197 0.229024 0)
(2.1177 -0.264274 0)
(2 1.99409e-13 0)
(1.82975 0.228605 0)
(2.10875 -0.263891 0)
(2.10804 -0.26252 0)
(2 -3.74987e-14 0)
(1.83007 0.228703 0)
(2 -8.93084e-14 0)
(2 2.25863e-13 0)
(2 -4.52896e-13 0)
(1.8443 0.214859 0)
(1.83161 0.229886 0)
(1.83008 0.228736 0)
(2 1.38038e-13 0)
(2 5.08331e-14 0)
(2.11759 -0.265007 0)
(2 -3.12832e-13 0)
(1.91596 0.124808 0)
(2 1.79761e-13 0)
(1.82964 0.228555 0)
(2 -8.91538e-14 0)
(2 -7.80853e-13 0)
(2 3.01556e-13 0)
(2 1.05351e-13 0)
(2.10691 -0.263407 0)
(2 -1.38076e-13 0)
(2.10884 -0.264196 0)
(2 1.13969e-13 0)
(1.83012 0.228659 0)
(2 1.49693e-13 0)
(1.83011 0.228791 0)
(2 -9.87459e-13 0)
(2 1.47092e-09 0)
(2 -2.16611e-13 0)
(2 2.37984e-13 0)
(2.11783 -0.264745 0)
(2 1.63594e-13 0)
(2 3.50916e-13 0)
(2.10928 -0.263971 0)
(2 1.70763e-13 0)
(2.10882 -0.263589 0)
(2 2.20742e-13 0)
(2 -1.7139e-13 0)
(2 2.83353e-13 0)
(2.11705 -0.264491 0)
(2 1.56874e-13 0)
(1.83146 0.228989 0)
(1.89765 0.14893 0)
(2 1.16773e-09 0)
(1.83138 0.22893 0)
(1.82168 0.237264 0)
(2.10798 -0.263658 0)
(1.82939 0.228692 0)
(2.10456 -0.26385 0)
(2 3.43242e-13 0)
(1.83048 0.228823 0)
(2.10942 -0.261149 0)
(1.82946 0.228789 0)
(1.82947 0.228801 0)
(2 5.44943e-13 0)
(2 9.78281e-07 0)
(2 -2.66238e-14 0)
(2 3.07127e-13 0)
(2.02286 -0.0458439 0)
(2.11698 -0.264606 0)
(1.83028 0.228676 0)
(2 -4.69643e-13 0)
(2 -6.18867e-11 0)
(2.11716 -0.264846 0)
(2 -5.60491e-14 0)
(1.83123 0.229186 0)
(2.11718 -0.264678 0)
(2 2.13913e-08 0)
(2 1.38814e-13 0)
(2 -2.43914e-13 0)
(2 -7.33402e-13 0)
(1.9166 0.123323 0)
(1.83021 0.228795 0)
(2.1178 -0.264183 0)
(2 -1.1068e-09 0)
(2 -1.74905e-09 0)
(1.95665 0.0666116 0)
(2 -2.95575e-09 0)
(2.10958 -0.261342 0)
(2 -2.42268e-14 0)
(1.82944 0.228715 0)
(1.82969 0.228751 0)
(2 4.38384e-09 0)
(2 1.66564e-13 0)
(2.12232 -0.275524 0)
(2.12016 -0.271968 0)
(2.11733 -0.264746 0)
(2 -6.52991e-14 0)
(2 -1.47445e-07 0)
(2 6.75001e-14 0)
(2 5.58733e-14 0)
(2 1.33046e-07 0)
(2.02817 -0.0546211 0)
(2 -1.08271e-07 0)
(1.85611 0.200294 0)
(1.98123 0.0269473 0)
(1.82947 0.228817 0)
(2 1.32037e-14 0)
(1.82954 0.2288 0)
(1.83 0.228665 0)
(1.83111 0.229108 0)
(1.83016 0.228788 0)
(2 -5.05343e-13 0)
(2.11695 -0.264338 0)
(2 9.08662e-14 0)
(2.11739 -0.26494 0)
(2 -1.01647e-13 0)
(2 -1.49784e-13 0)
(2 1.46016e-13 0)
(2 2.59391e-13 0)
(1.82985 0.228724 0)
(2 2.92785e-09 0)
(2 -6.36522e-13 0)
(2 1.30006e-13 0)
(2 -2.06325e-13 0)
(1.83103 0.228978 0)
(2 -5.14503e-15 0)
(1.9943 0.0136992 0)
(2 -6.16024e-14 0)
(2 -2.51493e-13 0)
(2 -6.85828e-11 0)
(2 -5.9608e-14 0)
(2.10732 -0.262873 0)
(2 1.17738e-14 0)
(1.99585 0.008736 0)
(2 7.70715e-14 0)
(2.10289 -0.263996 0)
(2 8.7515e-13 0)
(2 3.54373e-13 0)
(2 1.63759e-13 0)
(1.83004 0.229038 0)
(2 -6.74171e-14 0)
(1.83147 0.229012 0)
(2.12212 -0.274928 0)
(2.1178 -0.264594 0)
(1.83087 0.228889 0)
(1.83103 0.228877 0)
(2 -1.85983e-13 0)
(1.97084 0.0430533 0)
(1.90258 0.144261 0)
(2 -2.62307e-13 0)
(1.83007 0.228818 0)
(2.10423 -0.26341 0)
(1.84398 0.214981 0)
(2 7.93754e-15 0)
(2 3.26235e-13 0)
(2 -3.83029e-14 0)
(2 -5.16762e-13 0)
(1.83116 0.229003 0)
(1.86075 0.190728 0)
(2 -4.35649e-13 0)
(1.82981 0.228861 0)
(2.10778 -0.263332 0)
(1.82995 0.228859 0)
(2 -1.09355e-13 0)
(2.10721 -0.263843 0)
(2 1.47065e-14 0)
(2.10682 -0.262856 0)
(2.11808 -0.264787 0)
(2.00009 -0.000135011 0)
(2 4.31076e-13 0)
(2 3.76758e-14 0)
(1.82942 0.228784 0)
(2 5.24331e-14 0)
(2 2.61774e-14 0)
(1.83126 0.228937 0)
(2 1.74716e-13 0)
(1.8295 0.228797 0)
(1.82978 0.228947 0)
(2.10093 -0.278663 0)
(2 -4.86671e-14 0)
(2 -3.41251e-15 0)
(2.10838 -0.263707 0)
(1.8317 0.228957 0)
(2 -3.75043e-14 0)
(2 -8.06401e-14 0)
(2 -2.32068e-14 0)
(1.83177 0.228992 0)
(2 -1.08761e-12 0)
(2.11839 -0.264845 0)
(2 -6.18981e-11 0)
(2 -6.77987e-13 0)
(1.8319 0.228964 0)
(1.83154 0.229018 0)
(1.82947 0.228845 0)
(2 -2.49002e-14 0)
(1.99998 2.43187e-05 0)
(2 -1.36235e-13 0)
(2 -1.65282e-13 0)
(2 -1.07182e-13 0)
(1.83192 0.229018 0)
(2 -7.63943e-14 0)
(2.10877 -0.263238 0)
(1.82419 0.235189 0)
(1.83125 0.228992 0)
(1.83179 0.229206 0)
(2 1.80606e-07 0)
(2 2.84463e-13 0)
(2 4.48888e-13 0)
(2.11167 -0.271655 0)
(1.83162 0.229318 0)
(1.91478 0.130733 0)
(2 -7.8464e-14 0)
(1.83103 0.229527 0)
(2.11285 -0.26393 0)
(2.11478 -0.264663 0)
(1.8311 0.229585 0)
(1.83148 0.229686 0)
(2 1.80338e-13 0)
(1.83111 0.229565 0)
(2.12058 -0.273905 0)
(1.85099 0.206694 0)
(2 1.29908e-13 0)
(2 3.91634e-14 0)
(2 3.2299e-13 0)
(2 -2.4544e-13 0)
(1.83152 0.228978 0)
(2 3.76269e-13 0)
(1.8973 0.151831 0)
(1.98424 0.0292287 0)
(2 -2.33411e-14 0)
(2 -5.44856e-13 0)
(1.83157 0.229037 0)
(2.11724 -0.264516 0)
(2.07732 -0.159893 0)
(2 1.09605e-13 0)
(1.83171 0.22918 0)
(2.11754 -0.264252 0)
(1.83201 0.228702 0)
(2 -6.30175e-14 0)
(2 1.40987e-13 0)
(2 1.95903e-13 0)
(2 1.53575e-13 0)
(2 3.5616e-13 0)
(2 1.94573e-13 0)
(2 2.3667e-13 0)
(2.11138 -0.263206 0)
(2.08115 -0.166523 0)
(2.11756 -0.264844 0)
(1.83156 0.228893 0)
(2 -1.07488e-13 0)
(2 -2.12827e-13 0)
(2 -1.69286e-07 0)
(2 3.90085e-13 0)
(1.84646 0.211296 0)
(2 -2.06468e-07 0)
(2.10756 -0.263861 0)
(2 2.57775e-13 0)
(2.1127 -0.281797 0)
(2.10619 -0.264106 0)
(1.83162 0.228911 0)
(2.10911 -0.263042 0)
(1.83148 0.229157 0)
(2 -1.22277e-14 0)
(2 -2.00487e-15 0)
(2 -2.21781e-13 0)
(2.00077 -0.00168496 0)
(2.10788 -0.265273 0)
(2.12066 -0.273772 0)
(2 -3.17163e-07 0)
(2 -1.48298e-07 0)
(2.11576 -0.282741 0)
(2 2.46492e-09 0)
(1.82981 0.228588 0)
(2.11756 -0.264592 0)
(2 -1.20718e-13 0)
(2 -3.23043e-11 0)
(1.83049 0.228753 0)
(2.122 -0.273473 0)
(2 9.39044e-14 0)
(1.83206 0.231909 0)
(2.11796 -0.264385 0)
(1.83161 0.229051 0)
(2 -3.24052e-13 0)
(2.10681 -0.288057 0)
(2.00083 -0.00146679 0)
(2 -1.25635e-13 0)
(2 2.80606e-06 0)
(2 -4.79821e-14 0)
(2.10888 -0.264436 0)
(2 4.01524e-13 0)
(2 -1.70082e-07 0)
(2 -9.26535e-08 0)
(1.99999 1.51171e-05 0)
(1.99353 0.0064137 0)
(1.89598 0.150751 0)
(2 -2.61971e-11 0)
(2.1148 -0.258325 0)
(2 -1.47598e-11 0)
(2 1.59447e-06 0)
(2 -7.34127e-14 0)
(2 3.30812e-13 0)
(2 -5.45348e-14 0)
(2 -7.16671e-14 0)
(2 -6.89406e-13 0)
(1.83021 0.22881 0)
(2 4.49268e-13 0)
(1.82935 0.229172 0)
(2 2.78003e-13 0)
(2 3.86506e-13 0)
(2 2.67105e-15 0)
(2.1162 -0.264557 0)
(2 3.67943e-13 0)
(1.83123 0.228905 0)
(2.10866 -0.263085 0)
(2 -1.29868e-13 0)
(1.87643 0.169931 0)
(2 7.29582e-13 0)
(2 9.35855e-14 0)
(1.82967 0.228759 0)
(2 -4.38341e-13 0)
(2 -9.56953e-09 0)
(2 -2.04882e-13 0)
(1.83058 0.227619 0)
(2 4.85397e-10 0)
(2 2.01794e-13 0)
(1.83347 0.230583 0)
(1.82997 0.228456 0)
(2 2.95315e-13 0)
(1.96442 0.0547479 0)
(2 -1.37133e-13 0)
(2 -1.51689e-13 0)
(2.11713 -0.264877 0)
(2 1.99618e-13 0)
(2 1.11166e-13 0)
(2 1.68313e-15 0)
(2.11741 -0.264871 0)
(2 -1.79391e-13 0)
(2 7.40179e-14 0)
(2 -3.60068e-13 0)
(2 -2.6108e-13 0)
(2.11662 -0.264878 0)
(2 -2.51905e-13 0)
(2 1.04367e-13 0)
(2 4.09636e-13 0)
(2 6.65135e-14 0)
(2 -3.46615e-13 0)
(2.11839 -0.266227 0)
(1.99998 4.04922e-05 0)
(1.83143 0.228994 0)
(2 2.28604e-13 0)
(2.00001 -2.88874e-05 0)
(1.83122 0.228922 0)
(1.83047 0.228963 0)
(2 -2.9387e-14 0)
(2 -2.18741e-13 0)
(2.09774 -0.274752 0)
(2.06187 -0.129921 0)
(1.83029 0.228865 0)
(2 -2.44289e-13 0)
(2 8.46259e-15 0)
(2 2.11643e-13 0)
(1.83159 0.22897 0)
(2.11736 -0.264615 0)
(2 -8.08948e-15 0)
(1.83155 0.229017 0)
(2 -7.70778e-14 0)
(2 2.86628e-14 0)
(2.09895 -0.207329 0)
(2.10103 -0.215079 0)
(2 1.36119e-13 0)
(2.10843 -0.264259 0)
(2.11637 -0.26432 0)
(2 -2.46826e-13 0)
(2 -1.0031e-13 0)
(2 5.80051e-13 0)
(2 -3.08722e-14 0)
(2 -8.97463e-11 0)
(2 -4.1639e-13 0)
(2 -5.86042e-13 0)
(1.82948 0.228835 0)
(1.95506 0.0670467 0)
(1.84071 0.21821 0)
(2.1177 -0.264292 0)
(2.03277 -0.0647023 0)
(1.83019 0.228777 0)
(2 2.24503e-13 0)
(1.83107 0.228896 0)
(1.83006 0.228907 0)
(2.11785 -0.264578 0)
(2.07461 -0.153946 0)
(2 1.28834e-12 0)
(2.11763 -0.264296 0)
(2 -4.28394e-14 0)
(1.82293 0.235604 0)
(2 -8.9001e-14 0)
(2 6.7553e-14 0)
(2 -3.94767e-13 0)
(2 -7.93239e-16 0)
(1.8316 0.22894 0)
(2 -1.21421e-13 0)
(2 -1.71759e-13 0)
(2 -2.39131e-13 0)
(2 1.57737e-09 0)
(2 -2.47873e-13 0)
(2 2.1494e-13 0)
(2 -3.06858e-13 0)
(1.93774 0.0933452 0)
(1.82966 0.228805 0)
(2 -1.25564e-14 0)
(1.83155 0.228892 0)
(2 -1.35758e-13 0)
(2 -1.51529e-14 0)
(2.10675 -0.261079 0)
(2 -2.98357e-13 0)
(2 -3.42534e-13 0)
(2 4.8423e-14 0)
(2 6.03117e-13 0)
(1.83182 0.229009 0)
(1.8705 0.183314 0)
(2 2.80808e-13 0)
(2 5.26143e-13 0)
(2.10709 -0.264842 0)
(1.83134 0.228985 0)
(1.83185 0.229007 0)
(2 8.70153e-14 0)
(1.83184 0.229001 0)
(1.83131 0.228932 0)
(1.83151 0.228927 0)
(2 -1.91568e-13 0)
(2.05464 -0.111405 0)
(2 -2.80703e-13 0)
(1.8316 0.228876 0)
(2.00288 -0.00975939 0)
(1.83161 0.228934 0)
(2 4.76126e-14 0)
(2.11799 -0.264438 0)
(2.00035 -0.000640019 0)
(1.83028 0.228774 0)
(2 -1.22779e-13 0)
(2 -2.77287e-13 0)
(2 -5.55696e-11 0)
(2 -2.06002e-11 0)
(2.11171 -0.261737 0)
(1.83156 0.229171 0)
(1.84732 0.211967 0)
(2 1.77821e-13 0)
(1.83247 0.228547 0)
(1.83161 0.228956 0)
(1.83008 0.228799 0)
(2 -3.24489e-13 0)
(1.92056 0.116698 0)
(1.83156 0.228798 0)
(2 -4.14965e-13 0)
(2 8.96422e-14 0)
(1.88376 0.166683 0)
(1.97921 0.0370795 0)
(1.83188 0.228986 0)
(2.02155 -0.0447992 0)
(1.83187 0.22903 0)
(2 -7.04497e-14 0)
(1.83173 0.229084 0)
(1.83125 0.229028 0)
(1.83166 0.229083 0)
(1.83146 0.228995 0)
(2 -8.99552e-14 0)
(1.84445 0.213029 0)
(2.02781 -0.0565255 0)
(2.03817 -0.0756557 0)
(2 2.65419e-13 0)
(2 -3.85201e-07 0)
(2 -4.89707e-13 0)
(2 2.64122e-14 0)
(1.82939 0.231345 0)
(2 -1.11596e-13 0)
(2 6.80804e-14 0)
(2 -1.30039e-13 0)
(2 -3.37367e-13 0)
(2 1.2126e-13 0)
(1.83018 0.228745 0)
(2 -9.21798e-15 0)
(2 -2.20069e-13 0)
(2.00158 -0.0026126 0)
(1.83183 0.229033 0)
(1.85807 0.196669 0)
(2 -1.20604e-13 0)
(1.85363 0.205859 0)
(1.99998 2.54135e-05 0)
(2 3.09811e-13 0)
(2 -1.65686e-13 0)
(1.83163 0.229015 0)
(2 4.83177e-14 0)
(2.00146 -0.00199381 0)
(1.99847 0.00384282 0)
(2 -1.32803e-13 0)
(1.83119 0.22903 0)
(2 3.9231e-13 0)
(1.83186 0.229102 0)
(2 5.33641e-15 0)
(2 2.47549e-13 0)
(1.87534 0.178635 0)
(2 1.97969e-13 0)
(1.83184 0.228919 0)
(1.99999 1.27883e-05 0)
(2 -2.47222e-13 0)
(1.83215 0.228606 0)
(2 4.39167e-13 0)
(1.83181 0.229016 0)
(2 4.98307e-14 0)
(2 3.06601e-06 0)
(2 8.53561e-14 0)
(1.83138 0.228975 0)
(2 -1.84567e-13 0)
(1.83139 0.229364 0)
(2 4.723e-06 0)
(1.83161 0.228964 0)
(1.82982 0.228729 0)
(1.83181 0.229049 0)
(1.82945 0.22878 0)
(2 1.28084e-13 0)
(1.83043 0.228824 0)
(1.83063 0.228323 0)
(2 3.71348e-13 0)
(2.10737 -0.263355 0)
(1.84206 0.216879 0)
(1.8789 0.173316 0)
(2 -4.3471e-13 0)
(1.83134 0.22898 0)
(2 1.29251e-14 0)
(2.11712 -0.26462 0)
(2.11819 -0.264645 0)
(2 3.73446e-14 0)
(2 2.80634e-13 0)
(2 3.23124e-13 0)
(2 -5.93879e-14 0)
(2 1.93447e-09 0)
(2.11739 -0.264458 0)
(2 -9.08439e-14 0)
(1.8316 0.22888 0)
(1.95316 0.0707486 0)
(1.83148 0.229022 0)
(2 3.10807e-13 0)
(2 7.73509e-11 0)
(2 1.19482e-13 0)
(2 1.22444e-13 0)
(2 -5.25088e-08 0)
(1.83125 0.229026 0)
(2 4.03806e-14 0)
(1.83051 0.229852 0)
(1.89964 0.147425 0)
(2.07382 -0.151447 0)
(2 1.32929e-09 0)
(1.99999 7.27369e-06 0)
(1.95134 0.0737024 0)
(1.9613 0.0641262 0)
(2 2.01421e-14 0)
(2 3.1382e-13 0)
(1.93867 0.0912282 0)
(2 1.04098e-13 0)
(2.1034 -0.261392 0)
(1.83151 0.228824 0)
(1.83147 0.228809 0)
(2 -6.73091e-11 0)
(2 -3.62378e-13 0)
(2 -2.6984e-13 0)
(1.8297 0.228698 0)
(2 4.53184e-13 0)
(1.99999 1.60477e-05 0)
(1.83151 0.229685 0)
(1.83167 0.229187 0)
(2.01774 -0.0350031 0)
(2 -8.47699e-14 0)
(2 1.73209e-10 0)
(2.10755 -0.264563 0)
(1.84651 0.211908 0)
(2 -1.233e-13 0)
(2 1.90568e-13 0)
(2 -1.77248e-13 0)
(2 -2.79531e-11 0)
(2 3.16889e-15 0)
(1.83184 0.229021 0)
(1.83038 0.228765 0)
(2 -3.00864e-13 0)
(1.83208 0.228582 0)
(1.83152 0.228913 0)
(1.83175 0.229051 0)
(2 -3.17772e-14 0)
(2 2.06899e-13 0)
(2 -6.01795e-11 0)
(2 1.82915e-13 0)
(2.11778 -0.264498 0)
(1.83021 0.22885 0)
(2 -4.37338e-11 0)
(2 6.31834e-14 0)
(1.84641 0.212102 0)
(1.83182 0.228302 0)
(2 -3.57387e-13 0)
(1.84145 0.217719 0)
(1.82968 0.228774 0)
(2 6.22554e-13 0)
(2 -2.14591e-07 0)
(2 9.44849e-11 0)
(2 -1.21333e-14 0)
(2 3.71561e-14 0)
(1.83121 0.228969 0)
(2 2.44475e-13 0)
(2 -2.03364e-13 0)
(2 2.93164e-13 0)
(2 2.26166e-13 0)
(1.82963 0.231779 0)
(2 2.57378e-13 0)
(1.83673 0.227469 0)
(2.11777 -0.264063 0)
(2 3.8753e-15 0)
(2.11757 -0.264736 0)
(2 -2.14208e-13 0)
(2 -1.44514e-07 0)
(2 -2.73037e-13 0)
(2.00118 -0.0018013 0)
(2.10725 -0.262274 0)
(2.00031 -0.000551716 0)
(2 -4.45655e-13 0)
(2 1.22603e-14 0)
(2 -1.18832e-07 0)
(1.97625 0.0348956 0)
(2 8.22866e-14 0)
(2 1.07652e-13 0)
(2.04332 -0.0883268 0)
(2 -2.09274e-07 0)
(2 -8.62844e-14 0)
(2 1.0301e-13 0)
(2 -2.10792e-07 0)
(2 2.82188e-07 0)
(2 -1.15225e-07 0)
(2 -3.89398e-13 0)
(2 -1.6464e-06 0)
(2.0189 -0.0414924 0)
(2 -4.90864e-07 0)
(2 -4.00279e-08 0)
(2.00093 -0.00138649 0)
(2 2.13626e-13 0)
(2.11145 -0.262485 0)
(2 -2.77976e-11 0)
(2 -3.43816e-12 0)
(2 -9.51133e-11 0)
(2 -2.13206e-13 0)
(1.87313 0.180151 0)
(2 -4.34981e-14 0)
(2 -3.47385e-13 0)
(2 -4.74129e-13 0)
(2 -1.69428e-07 0)
(2.10807 -0.262691 0)
(2 3.37065e-14 0)
(2 1.30623e-09 0)
(1.84139 0.217462 0)
(1.83005 0.228812 0)
(2 -3.12307e-07 0)
(2 -3.4819e-13 0)
(2 -1.15563e-07 0)
(2.03658 -0.0768235 0)
(2 2.64292e-14 0)
(2 4.64724e-10 0)
(2 1.57904e-14 0)
(2 -4.60555e-14 0)
(2 -2.82232e-13 0)
(2 -1.62255e-14 0)
(2.01548 -0.032355 0)
(1.99317 0.00702928 0)
(1.83195 0.228933 0)
(2 -2.90995e-13 0)
(2 5.40206e-13 0)
(2 9.47499e-14 0)
(1.83043 0.230075 0)
(2.03426 -0.067047 0)
(2 -3.51088e-09 0)
(2 -1.96747e-13 0)
(2 -4.5206e-14 0)
(1.82974 0.228706 0)
(1.83025 0.228064 0)
(2 -2.94055e-08 0)
(2 4.98734e-06 0)
(2 3.34823e-09 0)
(2 2.0121e-13 0)
(2 1.28465e-09 0)
(2 9.83479e-15 0)
(2 -9.18723e-12 0)
(2 -9.7525e-14 0)
(2 2.76167e-13 0)
(2.11633 -0.26431 0)
(2 -2.2405e-13 0)
(2 -1.44911e-11 0)
(1.82914 0.228137 0)
(2.1187 -0.264714 0)
(2 -1.0615e-13 0)
(1.82935 0.228052 0)
(2 6.82653e-11 0)
(2.10718 -0.261926 0)
(2 1.10692e-13 0)
(2 -7.44914e-13 0)
(2.116 -0.264294 0)
(2 7.32363e-13 0)
(2 -1.14768e-11 0)
(2 -4.21232e-12 0)
(2 2.73536e-13 0)
(2 -1.82274e-12 0)
(2 -2.24435e-13 0)
(2 -3.15757e-13 0)
(1.83458 0.225276 0)
(1.83174 0.228538 0)
(2 6.51631e-13 0)
(2 2.08237e-13 0)
(2 2.98521e-13 0)
(2 7.90789e-13 0)
(1.8461 0.21218 0)
(2 6.62905e-13 0)
(1.94748 0.0794454 0)
(2.10951 -0.264836 0)
(2 -3.13482e-08 0)
(2 5.49111e-13 0)
(2 -1.02004e-13 0)
(2 -2.17637e-13 0)
(2 7.30266e-14 0)
(2 2.03047e-13 0)
(2 7.66184e-14 0)
(1.9854 0.0226726 0)
(2 1.05533e-13 0)
(2 -1.06977e-13 0)
(1.90881 0.121713 0)
(2 -8.84769e-14 0)
(2 -3.25185e-13 0)
(2 2.19665e-13 0)
(1.86099 0.19501 0)
(2 -2.16282e-13 0)
(2 -2.84813e-13 0)
(2 2.40421e-13 0)
(2 -5.56355e-15 0)
(2.11769 -0.264101 0)
(2 1.10333e-11 0)
(2 -8.78418e-13 0)
(2.12306 -0.277079 0)
(2.1176 -0.26426 0)
(2 6.52958e-13 0)
(2 -1.38618e-14 0)
(1.83156 0.228875 0)
(2 -6.93699e-15 0)
(1.99275 -0.0328321 0)
(2 -2.95185e-14 0)
(2 3.04789e-14 0)
(2 2.36119e-13 0)
(1.88292 0.168614 0)
(2.1164 -0.268085 0)
(2 -4.22878e-13 0)
(2.12013 -0.274576 0)
(2 1.39515e-13 0)
(2.07666 -0.160501 0)
(2 -3.18048e-13 0)
(2 -5.93885e-13 0)
(2 -2.21093e-13 0)
(1.83072 0.228637 0)
(2 -4.07695e-08 0)
(2 3.53667e-13 0)
(1.83174 0.228868 0)
(2 2.70196e-13 0)
(2 -2.56288e-11 0)
(2 1.72235e-09 0)
(1.83163 0.228912 0)
(2 2.35338e-10 0)
(2 4.73186e-13 0)
(1.8316 0.228937 0)
(2 -3.72347e-14 0)
(2 3.35417e-14 0)
(2.11796 -0.264537 0)
(2 -1.60241e-11 0)
(1.94675 0.0807084 0)
(2 6.36526e-14 0)
(2 1.79011e-13 0)
(1.83006 0.228818 0)
(1.83023 0.228711 0)
(1.88734 0.162097 0)
(1.84882 0.209427 0)
(2 -7.89292e-13 0)
(2.11764 -0.264438 0)
(2 2.77306e-13 0)
(2 -4.10083e-13 0)
(1.83915 0.220394 0)
(2 8.68729e-14 0)
(2.11737 -0.264038 0)
(2 -2.65611e-13 0)
(2 -4.43255e-13 0)
(2 1.65656e-13 0)
(1.83127 0.229105 0)
(2 -6.45123e-14 0)
(2 -9.96136e-14 0)
(2 -2.8621e-13 0)
(2 -2.68851e-13 0)
(1.89839 0.148636 0)
(2 7.02011e-14 0)
(1.84544 0.212522 0)
(1.83116 0.228373 0)
(2.11707 -0.26457 0)
(2 1.56485e-13 0)
(2 3.02382e-13 0)
(2.11878 -0.264356 0)
(2.118 -0.264378 0)
(2 -3.22518e-13 0)
(2 -1.66247e-13 0)
(2 -5.61218e-12 0)
(1.88078 0.17072 0)
(1.87238 0.182026 0)
(2 1.49021e-13 0)
(2 1.33906e-13 0)
(2 -1.17969e-13 0)
(2 -4.09673e-15 0)
(2 5.76526e-14 0)
(2 -1.13786e-13 0)
(2 -1.9385e-13 0)
(1.92698 0.109697 0)
(1.83014 0.228837 0)
(1.99472 0.00494912 0)
(2 2.5462e-13 0)
(1.83379 0.226675 0)
(2.11752 -0.264698 0)
(2 6.99685e-14 0)
(2 1.9587e-13 0)
(2 -3.07452e-13 0)
(1.90757 0.136116 0)
(2 -3.04396e-14 0)
(1.96518 0.055523 0)
(2 2.61785e-15 0)
(1.84616 0.212447 0)
(1.8325 0.22817 0)
(2 1.35135e-13 0)
(2.11826 -0.264708 0)
(2 -2.64373e-13 0)
(1.83035 0.228806 0)
(2 -1.21818e-13 0)
(2 -3.36724e-13 0)
(1.8314 0.22902 0)
(1.84226 0.216766 0)
(2 2.03119e-13 0)
(1.82757 0.228829 0)
(2 3.39697e-13 0)
(2.11217 -0.264018 0)
(2 -4.88705e-13 0)
(2 3.26982e-13 0)
(2 -5.41844e-13 0)
(1.83117 0.231424 0)
(1.83461 0.22534 0)
(1.85123 0.20641 0)
(2 -2.0621e-13 0)
(1.83018 0.229321 0)
(1.83179 0.228888 0)
(2 -6.07679e-13 0)
(1.83122 0.229275 0)
(2 -9.22861e-09 0)
(1.83236 0.22819 0)
(2 2.50121e-13 0)
(2.11744 -0.264142 0)
(2.00649 -0.0173054 0)
(2.11596 -0.265405 0)
(2 -3.28479e-11 0)
(2 -2.22682e-11 0)
(2 -3.21943e-11 0)
(2 2.7319e-13 0)
(2 -1.47929e-11 0)
(1.83146 0.229027 0)
(2 1.12424e-13 0)
(1.83149 0.229046 0)
(2 -3.61271e-11 0)
(2 -9.04465e-11 0)
(2 -1.77256e-14 0)
(1.84001 0.219255 0)
(2 7.72406e-14 0)
(2.10837 -0.26251 0)
(1.83174 0.228918 0)
(2 -1.03518e-14 0)
(2.10848 -0.264237 0)
(2.11716 -0.257033 0)
(2.11703 -0.26357 0)
(2 -2.72529e-13 0)
(1.91636 0.124308 0)
(1.98582 0.0225697 0)
(1.83111 0.229642 0)
(1.83173 0.228912 0)
(2 -4.54359e-13 0)
(2 -3.63628e-07 0)
(2 -7.94135e-08 0)
(2 2.82333e-13 0)
(1.83174 0.228999 0)
(2 -3.94713e-14 0)
(2 3.12289e-14 0)
(1.83176 0.22902 0)
(1.83178 0.228933 0)
(2 -7.12605e-14 0)
(1.93928 0.0902644 0)
(2.00003 0.000689909 0)
(2 -1.69024e-14 0)
(2.00116 -0.00195139 0)
(1.83004 0.228848 0)
(2.05183 -0.10532 0)
(2 -1.22265e-07 0)
(2.05866 -0.116387 0)
(2.10286 -0.260627 0)
(2.10389 -0.261839 0)
(2.00163 -0.0495921 0)
(1.83061 0.228777 0)
(1.83396 0.22644 0)
(1.96504 0.0517383 0)
(1.83148 0.229096 0)
(1.83164 0.228998 0)
(2 3.87154e-13 0)
(2 3.6975e-13 0)
(1.83028 0.22883 0)
(1.82917 0.228818 0)
(1.83166 0.228995 0)
(1.82835 0.227781 0)
(2 4.5157e-13 0)
(1.83167 0.229048 0)
(2.10963 -0.264235 0)
(1.83015 0.229461 0)
(1.8307 0.228155 0)
(1.82871 0.228713 0)
(1.83092 0.229393 0)
(2.04556 -0.0951804 0)
(2.03519 -0.0704675 0)
(2.02314 -0.0447598 0)
(1.83148 0.228981 0)
(2.01466 -0.0293105 0)
(1.83111 0.228917 0)
(2 2.2821e-13 0)
(2 -1.91472e-13 0)
(1.83103 0.229824 0)
(1.83172 0.228972 0)
(2 3.92218e-13 0)
(2.11789 -0.264392 0)
(1.83013 0.228848 0)
(1.83173 0.228971 0)
(2 9.85459e-14 0)
(1.83146 0.228847 0)
(1.83135 0.228834 0)
(2 4.10489e-13 0)
(1.83184 0.229011 0)
(2.10868 -0.26364 0)
(1.83065 0.229963 0)
(1.83015 0.228899 0)
(1.8301 0.228809 0)
(1.83187 0.229041 0)
(2 6.66472e-13 0)
(2 7.37716e-13 0)
(2 -1.04741e-07 0)
(1.83173 0.228907 0)
(1.89086 0.158029 0)
(2.11531 -0.255451 0)
(1.83158 0.22888 0)
(2.12051 -0.272369 0)
(1.83168 0.228912 0)
(2 -6.78306e-14 0)
(2 -5.74277e-13 0)
(2 1.23661e-13 0)
(2 -2.1814e-13 0)
(1.83144 0.228662 0)
(1.83155 0.228975 0)
(2 5.67716e-14 0)
(2 -1.08313e-13 0)
(1.83153 0.228925 0)
(2.11751 -0.266466 0)
(1.8321 0.228908 0)
(2.10878 -0.263754 0)
(2 1.01892e-13 0)
(1.83268 0.227692 0)
(2 2.77706e-13 0)
(2.11731 -0.264659 0)
(1.83086 0.229531 0)
(2.09256 -0.186954 0)
(2 2.16183e-13 0)
(1.83172 0.228886 0)
(1.83044 0.229982 0)
(1.83177 0.228947 0)
(2 5.5103e-13 0)
(2 -7.51072e-13 0)
(1.91749 0.123859 0)
(1.83068 0.229645 0)
(2.10664 -0.261787 0)
(1.83154 0.228949 0)
(2 2.16e-14 0)
(1.83177 0.228856 0)
(2.04083 -0.0809283 0)
(1.83197 0.228596 0)
(2.11631 -0.264009 0)
(2 -3.91226e-13 0)
(1.83171 0.228785 0)
(2.10939 -0.242194 0)
(1.83106 0.22983 0)
(2.10886 -0.262319 0)
(2 2.20136e-13 0)
(1.83126 0.229058 0)
(2 1.51e-13 0)
(1.82988 0.228692 0)
(2 -7.44607e-13 0)
(1.90131 0.146017 0)
(1.83754 0.221956 0)
(1.86764 0.18759 0)
(2.12061 -0.272635 0)
(2 -8.57705e-14 0)
(1.83157 0.228836 0)
(2 -1.07162e-13 0)
(1.83158 0.228935 0)
(2 -1.14741e-07 0)
(1.83165 0.229129 0)
(2 -2.41172e-07 0)
(2 1.6082e-13 0)
(1.83162 0.228954 0)
(2.00513 -0.011979 0)
(1.83037 0.230068 0)
(2.1137 -0.264437 0)
(1.84244 0.225409 0)
(2 -1.44235e-14 0)
(1.88146 0.171928 0)
(2 -4.61289e-13 0)
(1.83082 0.228684 0)
(1.83181 0.22908 0)
(1.83081 0.228074 0)
(2 1.2629e-13 0)
(1.84831 0.209941 0)
(1.83184 0.229066 0)
(1.84425 0.214445 0)
(1.89667 0.150888 0)
(1.8378 0.227447 0)
(2 3.12792e-13 0)
(1.88793 0.161876 0)
(2 -3.41113e-13 0)
(1.83194 0.229016 0)
(2 8.46336e-14 0)
(1.97501 0.0365228 0)
(2 1.51961e-13 0)
(1.84396 0.2154 0)
(2 -2.39526e-13 0)
(1.83175 0.228834 0)
(1.8397 0.219565 0)
(1.83949 0.219904 0)
(2 1.42505e-13 0)
(1.84112 0.224557 0)
(2.1184 -0.264637 0)
(2 1.34535e-13 0)
(2.11774 -0.264103 0)
(2 4.47815e-13 0)
(2 1.58953e-13 0)
(2 -8.68065e-14 0)
(1.83011 0.22879 0)
(2 -6.72553e-14 0)
(1.83164 0.229178 0)
(2 -5.41636e-14 0)
(2 1.52739e-13 0)
(2 1.19308e-14 0)
(1.83129 0.229245 0)
(1.83682 0.22846 0)
(1.85459 0.205055 0)
(1.83117 0.229548 0)
(1.83063 0.229016 0)
(2.11729 -0.264473 0)
(1.83232 0.229727 0)
(1.83051 0.228818 0)
(2 -3.51613e-14 0)
(1.85364 0.206909 0)
(1.83188 0.229023 0)
(1.84056 0.216247 0)
(2 -2.12494e-13 0)
(1.8303 0.22881 0)
(1.83026 0.228854 0)
(2 3.78948e-13 0)
(1.82897 0.231254 0)
(1.83108 0.228826 0)
(1.8311 0.228929 0)
(1.83092 0.229519 0)
(2 4.83569e-13 0)
(2 -6.9802e-13 0)
(2 -5.13319e-13 0)
(1.83163 0.228903 0)
(2.11745 -0.269776 0)
(2 -1.7197e-13 0)
(1.83176 0.22899 0)
(2 -1.47911e-13 0)
(2 -5.00861e-14 0)
(2.11773 -0.264562 0)
(2 -2.91389e-14 0)
(2 -6.66512e-14 0)
(1.83151 0.228978 0)
(1.83134 0.22896 0)
(2 -7.993e-15 0)
(1.83174 0.229035 0)
(1.82956 0.229816 0)
(1.83138 0.228935 0)
(2.00661 -0.0168646 0)
(1.83137 0.22896 0)
(2 1.1225e-15 0)
(1.83136 0.228948 0)
(1.83135 0.228978 0)
(1.85759 0.196312 0)
(2 3.38421e-13 0)
(2 4.14346e-13 0)
(2 4.18113e-13 0)
(1.83087 0.229159 0)
(1.83147 0.229005 0)
(1.8315 0.228898 0)
(2.01726 -0.0369752 0)
(2 -3.49104e-13 0)
(1.82808 0.231514 0)
(1.83125 0.229047 0)
(1.83159 0.228805 0)
(2 -9.42529e-14 0)
(1.83121 0.228953 0)
(1.83199 0.229055 0)
(1.83151 0.228998 0)
(1.82788 0.232102 0)
(2 1.90766e-14 0)
(1.83161 0.229079 0)
(1.83084 0.22927 0)
(1.85235 0.202359 0)
(1.83181 0.228944 0)
(1.82867 0.231479 0)
(2 -1.521e-13 0)
(1.83219 0.230437 0)
(1.83322 0.226804 0)
(1.83144 0.228899 0)
(1.83124 0.229322 0)
(1.83184 0.228565 0)
(2.11838 -0.26442 0)
(1.83145 0.229014 0)
(1.83145 0.229544 0)
(2 -1.11436e-13 0)
(1.83155 0.228995 0)
(1.83139 0.228904 0)
(1.83163 0.229027 0)
(1.83165 0.229048 0)
(2 -5.54683e-08 0)
(1.83184 0.228879 0)
(1.83162 0.228887 0)
(2 -1.65792e-07 0)
(1.83169 0.228942 0)
(1.85919 0.197161 0)
(2 1.32242e-13 0)
(2 1.04527e-13 0)
(2 9.03999e-10 0)
(1.83106 0.229882 0)
(1.83139 0.229459 0)
(2 1.34442e-13 0)
(2 -1.12002e-13 0)
(1.90853 0.134674 0)
(2 1.21745e-13 0)
(1.83177 0.229169 0)
(2 -9.24273e-13 0)
(2 1.76937e-13 0)
(1.83166 0.228993 0)
(1.83097 0.229539 0)
(1.83132 0.228779 0)
(1.83168 0.228976 0)
(2 9.28619e-14 0)
(2 7.00304e-14 0)
(2 -3.94032e-13 0)
(1.88069 0.1675 0)
(2 2.06891e-13 0)
(1.83161 0.228736 0)
(2 4.0339e-13 0)
(2 5.4327e-13 0)
(1.83028 0.228825 0)
(1.83025 0.228836 0)
(2 -1.16985e-13 0)
(1.83177 0.228973 0)
(2.12103 -0.27484 0)
(1.83184 0.229009 0)
(1.83116 0.229859 0)
(2.09672 -0.202474 0)
(2 2.74563e-13 0)
(2.12106 -0.273134 0)
(1.85005 0.203865 0)
(1.83146 0.229884 0)
(1.8321 0.228403 0)
(1.83219 0.228459 0)
(2.11907 -0.265479 0)
(1.8315 0.229048 0)
(1.83124 0.229412 0)
(2.11906 -0.265421 0)
(2.12167 -0.275649 0)
(2 -2.63101e-07 0)
(1.83208 0.228524 0)
(1.83188 0.228854 0)
(2 1.50984e-13 0)
(2 -2.39329e-14 0)
(1.83183 0.228872 0)
(2 8.49133e-14 0)
(1.83236 0.227688 0)
(2 2.46963e-06 0)
(1.85329 0.204821 0)
(2 -4.72355e-15 0)
(1.92171 0.118604 0)
(1.83194 0.228706 0)
(1.83056 0.229901 0)
(1.88077 0.171164 0)
(1.84478 0.220038 0)
(1.83022 0.228821 0)
(1.83116 0.229518 0)
(1.83554 0.223219 0)
(2 -6.07236e-13 0)
(2.11788 -0.264814 0)
(1.83161 0.228103 0)
(1.83169 0.22902 0)
(1.82944 0.230906 0)
(2 7.21544e-06 0)
(2 3.58711e-10 0)
(2 1.55336e-09 0)
(1.82693 0.229224 0)
(2 4.03641e-13 0)
(1.83164 0.22891 0)
(1.83141 0.228907 0)
(2.08374 -0.173544 0)
(2 4.73312e-14 0)
(1.83174 0.228926 0)
(2.00002 -4.54496e-05 0)
(2 1.37198e-13 0)
(1.99999 1.9051e-05 0)
(1.99998 2.72372e-05 0)
(1.83171 0.228983 0)
(1.83189 0.228828 0)
(2.00055 -0.000900192 0)
(2 -2.2772e-13 0)
(2 2.59729e-13 0)
(1.83157 0.228963 0)
(1.8306 0.229733 0)
(1.83142 0.228962 0)
(1.83078 0.228559 0)
(1.83135 0.22943 0)
(2.11267 -0.251424 0)
(1.85796 0.196886 0)
(2 3.97417e-13 0)
(1.83274 0.227463 0)
(1.83133 0.228784 0)
(1.83152 0.228879 0)
(1.83383 0.227037 0)
(2 7.76183e-13 0)
(1.83171 0.229008 0)
(1.83602 0.223847 0)
(1.83092 0.229506 0)
(2 3.24279e-13 0)
(1.83101 0.229029 0)
(1.83112 0.228975 0)
(2.04531 -0.0924716 0)
(1.83171 0.228974 0)
(1.83084 0.229067 0)
(2 1.40597e-13 0)
(1.83126 0.2291 0)
(2.05524 -0.113945 0)
(1.83177 0.228888 0)
(2.04713 -0.092998 0)
(1.83147 0.229037 0)
(2 -1.1227e-07 0)
(1.83138 0.228991 0)
(1.8239 0.231843 0)
(1.83183 0.229044 0)
(1.83161 0.229148 0)
(1.83146 0.228987 0)
(1.83025 0.22832 0)
(1.83128 0.229279 0)
(1.82943 0.228688 0)
(2 -4.56252e-13 0)
(2.02265 -0.0471802 0)
(1.83168 0.228911 0)
(1.8317 0.228988 0)
(2.05293 -0.107317 0)
(1.83186 0.228998 0)
(2.00416 -0.0147266 0)
(1.89263 0.150978 0)
(1.83154 0.228901 0)
(1.83124 0.228919 0)
(1.83016 0.229722 0)
(2 3.95047e-14 0)
(1.83033 0.230014 0)
(1.88964 0.164423 0)
(1.83167 0.228111 0)
(2.02243 -0.0472628 0)
(1.83049 0.229918 0)
(1.82682 0.231876 0)
(2 5.7622e-13 0)
(2.04476 -0.0899845 0)
(2 -5.13283e-09 0)
(1.8296 0.231416 0)
(2 -5.37526e-13 0)
(1.88466 0.165516 0)
(2 4.82386e-09 0)
(1.84398 0.2104 0)
(2.04316 -0.0890333 0)
(2 -5.48325e-14 0)
(1.83086 0.230048 0)
(1.83627 0.22587 0)
(2 2.14834e-13 0)
(1.83148 0.228527 0)
(1.83103 0.229837 0)
(1.83062 0.229309 0)
(1.83797 0.223457 0)
(1.83123 0.229398 0)
(2 4.53848e-13 0)
(1.8302 0.228818 0)
(2 3.64885e-14 0)
(2 2.46595e-13 0)
(2 3.57372e-15 0)
(2.03164 -0.0637685 0)
(1.83126 0.229007 0)
(1.83163 0.229398 0)
(1.82962 0.231407 0)
(1.8318 0.228993 0)
(1.83355 0.228153 0)
(1.82951 0.230528 0)
(1.83185 0.231195 0)
(1.83162 0.229199 0)
(2.03053 -0.0623798 0)
(1.9866 0.0223487 0)
(2 3.56834e-09 0)
(2 -1.25106e-13 0)
(1.82459 0.232901 0)
(1.83175 0.229066 0)
(1.8313 0.228967 0)
(1.83193 0.22903 0)
(1.99999 1.62949e-05 0)
(1.91603 0.124879 0)
(2 -1.66845e-07 0)
(1.82917 0.231157 0)
(1.86002 0.207331 0)
(2 -2.91827e-12 0)
(2 -5.26602e-11 0)
(2.08512 -0.183709 0)
(1.83136 0.228957 0)
(2 -1.61768e-13 0)
(2 2.98162e-14 0)
(2.10799 -0.26466 0)
(1.83185 0.228994 0)
(2 -2.89252e-13 0)
(1.83038 0.228835 0)
(1.83174 0.228953 0)
(1.83039 0.228833 0)
(1.83779 0.221902 0)
(1.83139 0.22889 0)
(2 -1.25964e-10 0)
(2.11953 -0.267764 0)
(1.95701 0.0669938 0)
(1.83155 0.228986 0)
(1.83137 0.228963 0)
(2 -1.03156e-13 0)
(1.83177 0.228909 0)
(1.83147 0.228976 0)
(1.91585 0.124892 0)
(1.99956 0.00470604 0)
(1.96371 0.0581907 0)
(2 -5.22872e-13 0)
(1.82972 0.228758 0)
(1.83122 0.228882 0)
(2 -1.21524e-07 0)
(2 -2.07367e-10 0)
(2.11818 -0.263812 0)
(2 -2.38184e-10 0)
(2 -5.19456e-13 0)
(1.83185 0.229023 0)
(1.83176 0.22901 0)
(1.83157 0.229617 0)
(1.83145 0.228976 0)
(1.83136 0.22901 0)
(1.82795 0.23049 0)
(1.83148 0.229184 0)
(1.83134 0.229377 0)
(1.83133 0.228916 0)
(2 2.69645e-13 0)
(2.00162 -0.00269024 0)
(1.8317 0.229153 0)
(1.83163 0.22887 0)
(2.00121 -0.00167256 0)
(1.83167 0.229007 0)
(1.83138 0.22899 0)
(2.11839 -0.265505 0)
(2.11699 -0.264634 0)
(1.83152 0.229358 0)
(1.82921 0.229629 0)
(2 -9.07771e-14 0)
(2 1.10911e-13 0)
(1.99909 0.00249859 0)
(1.83168 0.229008 0)
(1.83163 0.229321 0)
(1.83188 0.229009 0)
(2 1.029e-09 0)
(1.83164 0.228978 0)
(2 -9.10809e-14 0)
(2.04948 -0.0941911 0)
(1.82894 0.231425 0)
(1.82937 0.230111 0)
(2 -1.34727e-13 0)
(1.92386 0.111459 0)
(1.83165 0.229048 0)
(2 -6.65359e-13 0)
(1.82954 0.228385 0)
(2 -1.03649e-10 0)
(1.83163 0.229074 0)
(1.8868 0.158615 0)
(1.83105 0.229611 0)
(2 1.30634e-11 0)
(1.83192 0.228728 0)
(1.83048 0.23048 0)
(2.11891 -0.265101 0)
(1.83183 0.228842 0)
(2 -1.25781e-07 0)
(1.8312 0.229054 0)
(1.8298 0.228809 0)
(2 7.18616e-09 0)
(2.11806 -0.263953 0)
(1.83211 0.22826 0)
(1.86815 0.186074 0)
(2.00077 -0.00109701 0)
(1.83441 0.231912 0)
(1.83138 0.228944 0)
(2 -5.37068e-12 0)
(1.99898 -0.0030324 0)
(1.83204 0.229892 0)
(2.00172 -0.00183211 0)
(1.83174 0.22896 0)
(2 -2.08532e-12 0)
(2 -1.13142e-13 0)
(1.83065 0.229674 0)
(2 1.40526e-13 0)
(1.83129 0.229094 0)
(1.83154 0.229016 0)
(2.00132 -0.00227196 0)
(1.86934 0.178122 0)
(2 2.96792e-09 0)
(1.83142 0.228981 0)
(2 2.78971e-10 0)
(2 -4.1895e-13 0)
(2 1.05391e-11 0)
(2 6.59687e-12 0)
(1.83192 0.229042 0)
(2 7.08807e-09 0)
(2 2.25435e-13 0)
(1.83694 0.224632 0)
(2 1.70573e-13 0)
(1.83136 0.228978 0)
(2 3.0773e-10 0)
(1.89203 0.15724 0)
(1.83056 0.230559 0)
(1.83166 0.229237 0)
(2 8.27395e-10 0)
(2 -5.59044e-14 0)
(1.99912 -0.00314877 0)