/*--------------------------------*- C++ -*----------------------------------*\
  =========                 |
  \\      /  F ield         | OpenFOAM: The Open Source CFD Toolbox
   \\    /   O peration     | Website:  https://openfoam.org
    \\  /    A nd           | Version:  12
     \\/     M anipulation  |
\*---------------------------------------------------------------------------*/
FoamFile
{
    format      ascii;
    class       volVectorField;
    location    "6.3";
    object      U;
}
// * * * * * * * * * * * * * * * * * * * * * * * * * * * * * * * * * * * * * //

dimensions      [0 1 -1 0 0 0 0];

internalField   nonuniform List<vector> 
22702
(
(2 -2.16316e-13 0)
(2 -7.67233e-14 0)
(2.0483 -0.0932421 0)
(2 -1.18215e-09 0)
(1.97444 0.0393182 0)
(2 -5.33503e-14 0)
(1.82749 0.228245 0)
(2 1.31846e-14 0)
(2 -1.95512e-13 0)
(2.13874 -0.260883 0)
(1.82971 0.229356 0)
(1.82758 0.22863 0)
(2 2.79278e-14 0)
(1.83142 0.228955 0)
(2.04021 -0.0799296 0)
(2 -1.73332e-13 0)
(2 -2.19001e-13 0)
(2 1.37158e-14 0)
(1.82949 0.229313 0)
(2 4.01694e-14 0)
(1.83164 0.229092 0)
(2 -1.49939e-13 0)
(1.83082 0.229114 0)
(2.10929 -0.26576 0)
(1.83192 0.228056 0)
(2.09705 -0.270706 0)
(2 -3.43586e-14 0)
(1.82993 0.228963 0)
(2.11141 -0.265317 0)
(2.10904 -0.262098 0)
(2 -2.77375e-14 0)
(1.82973 0.22934 0)
(2 -1.81874e-14 0)
(2 -7.27925e-14 0)
(2 1.62521e-13 0)
(1.84421 0.214865 0)
(1.83251 0.227951 0)
(1.8306 0.229059 0)
(2 -2.80573e-13 0)
(2 -1.54282e-13 0)
(2.11992 -0.265823 0)
(2 -7.37037e-14 0)
(1.91462 0.126349 0)
(2 -1.72586e-14 0)
(1.83014 0.228861 0)
(2 -1.83213e-13 0)
(2 -2.0184e-13 0)
(2 -2.55286e-13 0)
(2 -1.69501e-13 0)
(2.10636 -0.262161 0)
(2 2.45948e-14 0)
(2.11709 -0.271124 0)
(2 -1.14627e-13 0)
(1.82984 0.229664 0)
(2 -1.79413e-13 0)
(1.8315 0.229563 0)
(2 5.1063e-14 0)
(2 1.3026e-09 0)
(2 5.97929e-14 0)
(2 -1.53177e-13 0)
(2.10421 -0.272059 0)
(2 -2.50534e-14 0)
(2 -9.07294e-14 0)
(2.11063 -0.26619 0)
(2 8.9625e-14 0)
(2.11383 -0.261652 0)
(2 -1.11887e-13 0)
(2 -1.23926e-13 0)
(2 -5.08315e-14 0)
(2.11407 -0.265461 0)
(2 -6.1561e-14 0)
(1.83103 0.228917 0)
(1.89721 0.149289 0)
(2 8.34032e-10 0)
(1.83104 0.229028 0)
(1.82215 0.237807 0)
(2.10547 -0.260769 0)
(1.82857 0.228171 0)
(2.1041 -0.260196 0)
(2 -1.59009e-13 0)
(1.83003 0.229053 0)
(2.10729 -0.262801 0)
(1.83119 0.229038 0)
(1.83116 0.229201 0)
(2 -1.22278e-13 0)
(2 9.31608e-07 0)
(2 6.97848e-14 0)
(2 -8.1534e-14 0)
(2.02534 -0.0447329 0)
(2.12466 -0.266506 0)
(1.82957 0.228468 0)
(2 -1.64962e-14 0)
(2 -5.70101e-11 0)
(2.13026 -0.259142 0)
(2 9.06574e-14 0)
(1.83138 0.229279 0)
(2.13109 -0.259979 0)
(2 2.69668e-08 0)
(2 6.1195e-14 0)
(2 -8.12294e-14 0)
(2 -1.25377e-13 0)
(1.91494 0.125199 0)
(1.82961 0.228949 0)
(2.09717 -0.272016 0)
(2 -4.90202e-10 0)
(2 -1.30675e-09 0)
(1.95521 0.0668461 0)
(2 6.0594e-09 0)
(2.10761 -0.262629 0)
(2 -5.34595e-14 0)
(1.8284 0.22824 0)
(1.82895 0.228693 0)
(2 4.76731e-09 0)
(2 -8.85079e-14 0)
(2.10467 -0.282582 0)
(2.10222 -0.278686 0)
(2.13048 -0.265455 0)
(2 2.68851e-14 0)
(2 -1.3977e-07 0)
(2 -3.28257e-14 0)
(2 1.79904e-14 0)
(2 9.74627e-08 0)
(2.03148 -0.0592136 0)
(2 -1.19528e-07 0)
(1.85555 0.201078 0)
(1.97835 0.0260229 0)
(1.82852 0.228337 0)
(2 -4.88599e-14 0)
(1.82836 0.228403 0)
(1.82946 0.229164 0)
(1.83141 0.22868 0)
(1.83014 0.22898 0)
(2 2.55259e-15 0)
(2.10661 -0.273036 0)
(2 9.21291e-15 0)
(2.11441 -0.26387 0)
(2 2.13375e-14 0)
(2 9.1567e-14 0)
(2 -9.71596e-14 0)
(2 1.12152e-14 0)
(1.82915 0.228728 0)
(2 3.25601e-09 0)
(2 1.91655e-13 0)
(2 -2.59302e-13 0)
(2 3.1526e-14 0)
(1.83118 0.229082 0)
(2 1.62304e-14 0)
(1.99171 0.0153999 0)
(2 3.65551e-15 0)
(2 -3.14373e-14 0)
(2 -6.74365e-11 0)
(2 -1.6141e-14 0)
(2.10543 -0.261543 0)
(2 2.48078e-14 0)
(1.99548 0.0091896 0)
(2 -1.24116e-13 0)
(2.10174 -0.262658 0)
(2 1.32385e-13 0)
(2 6.87192e-14 0)
(2 -2.10734e-14 0)
(1.8298 0.228888 0)
(2 2.1615e-14 0)
(1.83111 0.228808 0)
(2.12818 -0.274298 0)
(2.1086 -0.270614 0)
(1.83006 0.228589 0)
(1.83039 0.228705 0)
(2 2.2535e-14 0)
(1.97118 0.0409686 0)
(1.90318 0.143291 0)
(2 3.72592e-14 0)
(1.8318 0.229124 0)
(2.10593 -0.263913 0)
(1.84441 0.214569 0)
(2 7.84907e-15 0)
(2 -1.64302e-14 0)
(2 -2.96815e-15 0)
(2 -2.99489e-14 0)
(1.83148 0.229123 0)
(1.85402 0.188845 0)
(2 -1.21634e-13 0)
(1.83039 0.229709 0)
(2.10941 -0.265397 0)
(1.83163 0.229317 0)
(2 1.28105e-13 0)
(2.10997 -0.263133 0)
(2 1.41697e-13 0)
(2.1154 -0.267048 0)
(2.10164 -0.275393 0)
(2.00007 -0.000120309 0)
(2 -1.18509e-13 0)
(2 7.2011e-14 0)
(1.83009 0.228035 0)
(2 1.18416e-13 0)
(2 -1.16487e-14 0)
(1.83204 0.228893 0)
(2 -6.40105e-14 0)
(1.83048 0.228947 0)
(1.83022 0.228933 0)
(2.10442 -0.27814 0)
(2 1.22924e-13 0)
(2 -3.38398e-13 0)
(2.11058 -0.263789 0)
(1.83142 0.229307 0)
(2 8.64074e-14 0)
(2 -5.99494e-14 0)
(2 -1.95204e-13 0)
(1.83125 0.229216 0)
(2 2.04506e-14 0)
(2.11567 -0.267677 0)
(2 -6.21204e-11 0)
(2 1.61303e-14 0)
(1.83129 0.229112 0)
(1.83138 0.228697 0)
(1.82944 0.228611 0)
(2 5.32103e-15 0)
(1.99998 2.28691e-05 0)
(2 1.00403e-14 0)
(2 9.7717e-15 0)
(2 1.05154e-14 0)
(1.83201 0.229014 0)
(2 -1.37956e-13 0)
(2.1106 -0.26428 0)
(1.82464 0.235049 0)
(1.83183 0.229051 0)
(1.83173 0.228628 0)
(2 1.94467e-07 0)
(2 -6.3391e-14 0)
(2 -3.94856e-14 0)
(2.11108 -0.272893 0)
(1.8315 0.229022 0)
(1.92404 0.116276 0)
(2 1.15074e-14 0)
(1.8307 0.229472 0)
(2.11567 -0.264067 0)
(2.11369 -0.267163 0)
(1.83075 0.229523 0)
(1.83155 0.227635 0)
(2 -2.31457e-15 0)
(1.82904 0.234699 0)
(2.13231 -0.277856 0)
(1.8505 0.207211 0)
(2 -9.43208e-15 0)
(2 -2.38515e-13 0)
(2 -1.22227e-13 0)
(2 -2.1289e-13 0)
(1.83159 0.229062 0)
(2 -8.71324e-14 0)
(1.90643 0.137819 0)
(1.98348 0.0284321 0)
(2 1.31235e-13 0)
(2 -7.23796e-14 0)
(1.83223 0.229515 0)
(2.12727 -0.262287 0)
(2.07743 -0.164986 0)
(2 -1.51799e-13 0)
(1.83161 0.229215 0)
(2.12393 -0.263802 0)
(1.82816 0.231421 0)
(2 2.40506e-14 0)
(2 -2.21858e-14 0)
(2 2.74155e-15 0)
(2 -1.11302e-13 0)
(2 -2.06309e-13 0)
(2 -9.62173e-14 0)
(2 -9.52993e-14 0)
(2.11004 -0.263456 0)
(2.07532 -0.165365 0)
(2.11295 -0.267146 0)
(1.83145 0.228861 0)
(2 -1.879e-14 0)
(2 4.74973e-13 0)
(2 -1.58653e-07 0)
(2 -4.39316e-14 0)
(1.84614 0.213928 0)
(2 -1.30086e-07 0)
(2.11206 -0.264931 0)
(2 2.67652e-15 0)
(2.11477 -0.278252 0)
(2.11051 -0.26505 0)
(1.83194 0.229113 0)
(2.11129 -0.267814 0)
(1.83167 0.229057 0)
(2 -5.10442e-14 0)
(2 -2.5588e-13 0)
(2 -1.83683e-13 0)
(2.0009 -0.00161895 0)
(2.11376 -0.262501 0)
(2.14027 -0.274995 0)
(2 -2.9654e-07 0)
(2 -1.49482e-07 0)
(2.11757 -0.280691 0)
(2 2.35535e-09 0)
(1.82933 0.229029 0)
(2.10167 -0.274424 0)
(2 -8.31273e-15 0)
(2 -3.17975e-11 0)
(1.83063 0.229167 0)
(2.13609 -0.274111 0)
(2 -1.87197e-13 0)
(1.8304 0.228989 0)
(2.10963 -0.268955 0)
(1.83214 0.229422 0)
(2 -6.12095e-14 0)
(2.10972 -0.283672 0)
(2.00092 -0.00152701 0)
(2 -5.96053e-14 0)
(2 2.81832e-06 0)
(2 7.50595e-14 0)
(2.11546 -0.266999 0)
(2 -2.74559e-13 0)
(2 -1.66167e-07 0)
(2 -1.02813e-07 0)
(1.99999 1.03188e-05 0)
(1.9901 0.0115287 0)
(1.89692 0.149264 0)
(2 -2.55269e-11 0)
(2.09514 -0.260328 0)
(2 -1.58036e-11 0)
(2 1.67198e-06 0)
(2 8.6182e-14 0)
(2 -2.0354e-13 0)
(2 -1.91388e-14 0)
(2 6.89056e-14 0)
(2 -8.52419e-13 0)
(1.83045 0.229215 0)
(2 4.18724e-13 0)
(1.83017 0.228198 0)
(2 -7.7739e-14 0)
(2 -1.15819e-13 0)
(2 -6.28635e-14 0)
(2.11274 -0.270621 0)
(2 -3.0244e-14 0)
(1.83134 0.229314 0)
(2.11914 -0.26635 0)
(2 8.87225e-14 0)
(1.87143 0.182761 0)
(2 1.51679e-14 0)
(2 1.60343e-13 0)
(1.8291 0.229598 0)
(2 -7.88986e-14 0)
(2 -9.64277e-09 0)
(2 -9.09317e-14 0)
(1.83065 0.227643 0)
(2 5.41663e-10 0)
(2 -6.67385e-14 0)
(1.84107 0.221487 0)
(1.82949 0.229324 0)
(2 -1.92889e-14 0)
(1.96434 0.0538683 0)
(2 -1.82593e-14 0)
(2 3.72653e-14 0)
(2.11696 -0.258969 0)
(2 -1.44679e-13 0)
(2 7.01788e-14 0)
(2 1.7084e-13 0)
(2.1343 -0.262677 0)
(2 -4.90781e-14 0)
(2 1.92448e-13 0)
(2 1.00636e-13 0)
(2 -1.11422e-13 0)
(2.09799 -0.267174 0)
(2 3.00056e-15 0)
(2 -8.6873e-15 0)
(2 6.13777e-14 0)
(2 1.01585e-13 0)
(2 1.81221e-13 0)
(2.11404 -0.263023 0)
(1.99998 4.01821e-05 0)
(1.83093 0.228792 0)
(2 4.86655e-15 0)
(1.99998 -2.34482e-05 0)
(1.83053 0.228706 0)
(1.82985 0.228707 0)
(2 4.58784e-14 0)
(2 1.05177e-13 0)
(2.10352 -0.279335 0)
(2.06444 -0.128129 0)
(1.8287 0.228692 0)
(2 -2.40808e-13 0)
(2 -8.04034e-14 0)
(2 -8.28175e-14 0)
(1.83226 0.229242 0)
(2.11022 -0.267267 0)
(2 3.41435e-14 0)
(1.83106 0.228766 0)
(2 2.25681e-14 0)
(2 1.27766e-13 0)
(2.11628 -0.209539 0)
(2.11208 -0.210914 0)
(2 -1.65759e-13 0)
(2.10651 -0.25988 0)
(2.1157 -0.26722 0)
(2 -7.29204e-14 0)
(2 -1.3331e-14 0)
(2 -2.06884e-14 0)
(2 9.83954e-14 0)
(2 -9.65812e-11 0)
(2 -6.99684e-14 0)
(2 -1.87988e-13 0)
(1.82882 0.228227 0)
(1.95644 0.0659808 0)
(1.83918 0.212431 0)
(2.1181 -0.259675 0)
(2.02496 -0.0694005 0)
(1.82949 0.22888 0)
(2 -4.66481e-13 0)
(1.83077 0.228954 0)
(1.82947 0.228745 0)
(2.11136 -0.263485 0)
(2.07773 -0.153772 0)
(2 7.76164e-13 0)
(2.11504 -0.263393 0)
(2 7.41254e-14 0)
(1.81936 0.235642 0)
(2 2.56852e-14 0)
(2 5.11674e-14 0)
(2 -1.56788e-13 0)
(2 8.2258e-15 0)
(1.8315 0.229203 0)
(2 -2.47319e-13 0)
(2 -4.33035e-14 0)
(2 5.52065e-14 0)
(2 1.52247e-09 0)
(2 -1.60441e-13 0)
(2 -2.4621e-13 0)
(2 -9.42267e-14 0)
(1.93584 0.0965379 0)
(1.83006 0.228975 0)
(2 -6.92719e-14 0)
(1.83144 0.228849 0)
(2 1.37627e-13 0)
(2 -1.68618e-14 0)
(2.10681 -0.262704 0)
(2 6.48965e-14 0)
(2 8.47639e-14 0)
(2 -3.9024e-14 0)
(2 -1.17287e-13 0)
(1.83118 0.229216 0)
(1.87029 0.183403 0)
(2 -9.1002e-14 0)
(2 -6.59365e-14 0)
(2.10329 -0.261997 0)
(1.83173 0.228752 0)
(1.83124 0.229163 0)
(2 -1.15541e-13 0)
(1.83131 0.229182 0)
(1.83206 0.228709 0)
(1.83142 0.228773 0)
(2 -1.28243e-13 0)
(2.05508 -0.111505 0)
(2 -1.39927e-13 0)
(1.83149 0.228357 0)
(2.00254 -0.0107064 0)
(1.83144 0.228768 0)
(2 -1.17482e-13 0)
(2.10966 -0.264915 0)
(2.00038 -0.00056534 0)
(1.82918 0.228178 0)
(2 4.07093e-14 0)
(2 1.16533e-13 0)
(2 -5.04247e-11 0)
(2 -2.2411e-11 0)
(2.11077 -0.262068 0)
(1.83178 0.229196 0)
(1.84768 0.211801 0)
(2 -6.25723e-14 0)
(1.83113 0.22975 0)
(1.83181 0.228722 0)
(1.82868 0.228784 0)
(2 -7.22915e-14 0)
(1.92303 0.126923 0)
(1.83232 0.228528 0)
(2 2.42317e-13 0)
(2 -8.64585e-14 0)
(1.88386 0.165875 0)
(1.97941 0.0357955 0)
(1.83141 0.228907 0)
(2.02414 -0.0438323 0)
(1.83136 0.228856 0)
(2 -3.40519e-14 0)
(1.8314 0.228686 0)
(1.83159 0.228954 0)
(1.8314 0.228682 0)
(1.83163 0.228509 0)
(2 1.38063e-13 0)
(1.83509 0.234628 0)
(2.01911 -0.0579503 0)
(2.03407 -0.0713412 0)
(2 -8.21382e-14 0)
(2 -3.54628e-07 0)
(2 1.11745e-13 0)
(2 9.23101e-14 0)
(1.83105 0.227722 0)
(2 -7.19195e-14 0)
(2 -3.51291e-17 0)
(2 4.35093e-14 0)
(2 -1.80829e-14 0)
(2 7.46715e-14 0)
(1.82861 0.228128 0)
(2 -6.36438e-15 0)
(2 1.08042e-13 0)
(2.00152 -0.00267849 0)
(1.8313 0.229239 0)
(1.8501 0.215017 0)
(2 -9.17158e-14 0)
(1.86911 0.185099 0)
(1.99998 2.85542e-05 0)
(2 5.17535e-14 0)
(2 -3.32908e-14 0)
(1.83118 0.228409 0)
(2 1.60312e-14 0)
(2.00247 -0.00268732 0)
(1.99782 0.00482016 0)
(2 -8.13556e-14 0)
(1.83164 0.229036 0)
(2 -4.24532e-14 0)
(1.83135 0.228694 0)
(2 1.35575e-13 0)
(2 -1.47076e-14 0)
(1.87617 0.177992 0)
(2 1.00679e-13 0)
(1.83171 0.228506 0)
(1.99999 1.27466e-05 0)
(2 -2.00497e-13 0)
(1.83133 0.229117 0)
(2 -5.25233e-14 0)
(1.83128 0.229252 0)
(2 -1.89699e-13 0)
(2 3.05092e-06 0)
(2 -5.70565e-14 0)
(1.83179 0.229019 0)
(2 -1.93128e-14 0)
(1.83134 0.227087 0)
(2 4.39179e-06 0)
(1.83153 0.229128 0)
(1.83046 0.228837 0)
(1.83158 0.22915 0)
(1.83029 0.228616 0)
(2 1.51824e-13 0)
(1.83069 0.229687 0)
(1.8342 0.232164 0)
(2 1.05661e-13 0)
(2.10925 -0.261282 0)
(1.84208 0.216751 0)
(1.87943 0.172244 0)
(2 -1.57125e-13 0)
(1.83175 0.229133 0)
(2 1.32551e-14 0)
(2.12284 -0.263059 0)
(2.10896 -0.270136 0)
(2 1.06256e-14 0)
(2 -1.45149e-13 0)
(2 -1.16443e-13 0)
(2 -1.31169e-14 0)
(2 1.94857e-09 0)
(2.13301 -0.262296 0)
(2 4.28584e-14 0)
(1.83143 0.228861 0)
(1.95551 0.0641302 0)
(1.83124 0.228511 0)
(2 -3.54936e-14 0)
(2 6.32125e-11 0)
(2 -3.60173e-14 0)
(2 -3.74202e-14 0)
(2 -4.90698e-08 0)
(1.8315 0.228943 0)
(2 -3.52889e-14 0)
(1.82929 0.229208 0)
(1.89729 0.148974 0)
(2.07499 -0.154391 0)
(2 1.32153e-09 0)
(2 6.38719e-06 0)
(1.95057 0.077554 0)
(1.95575 0.0704364 0)
(2 4.00558e-14 0)
(2 3.34226e-14 0)
(1.9397 0.0916375 0)
(2 1.88093e-13 0)
(2.10317 -0.26218 0)
(1.83187 0.229134 0)
(1.83184 0.229034 0)
(2 -6.41416e-11 0)
(2 4.7349e-14 0)
(2 1.70951e-13 0)
(1.82981 0.228628 0)
(2 1.37968e-14 0)
(1.99999 1.6225e-05 0)
(1.83192 0.229358 0)
(1.83195 0.229064 0)
(2.01715 -0.0370473 0)
(2 -4.3621e-14 0)
(2 1.59427e-10 0)
(2.11142 -0.262152 0)
(1.84569 0.212521 0)
(2 -1.78064e-13 0)
(2 -1.31422e-13 0)
(2 5.2679e-14 0)
(2 -2.751e-11 0)
(2 -4.09805e-13 0)
(1.83124 0.229245 0)
(1.83088 0.229369 0)
(2 -1.71027e-13 0)
(1.83161 0.229484 0)
(1.83117 0.227431 0)
(1.83182 0.229327 0)
(2 1.16997e-14 0)
(2 -1.50441e-13 0)
(2 -5.97691e-11 0)
(2 3.25093e-15 0)
(2.10179 -0.275338 0)
(1.83131 0.229285 0)
(2 -4.59754e-11 0)
(2 -5.13218e-14 0)
(1.84625 0.212718 0)
(1.83206 0.228581 0)
(2 -1.03981e-13 0)
(1.84189 0.217308 0)
(1.8294 0.228794 0)
(2 5.19698e-14 0)
(2 -2.18263e-07 0)
(2 9.74257e-11 0)
(2 -1.72713e-13 0)
(2 -2.07065e-13 0)
(1.83178 0.22898 0)
(2 -1.42854e-13 0)
(2 -1.02522e-13 0)
(2 5.24081e-14 0)
(2 6.93557e-14 0)
(1.83141 0.229284 0)
(2 -9.62853e-14 0)
(1.82805 0.232391 0)
(2.11383 -0.262574 0)
(2 -2.17357e-13 0)
(2.11996 -0.2647 0)
(2 -1.82658e-14 0)
(2 -1.53111e-07 0)
(2 -4.02009e-14 0)
(2.00115 -0.00187741 0)
(2.1081 -0.264771 0)
(2.00035 -0.000533778 0)
(2 6.44662e-14 0)
(2 -7.38602e-14 0)
(2 -1.18147e-07 0)
(1.97401 0.0375177 0)
(2 -1.89254e-13 0)
(2 -3.4273e-15 0)
(2.04689 -0.0930906 0)
(2 -2.1723e-07 0)
(2 2.77612e-14 0)
(2 -6.39994e-14 0)
(2 -2.18837e-07 0)
(2 9.50328e-08 0)
(2 -1.5045e-07 0)
(2 -5.55305e-14 0)
(2 -1.62017e-06 0)
(2.01658 -0.0430137 0)
(2 -4.62942e-07 0)
(2 -3.76676e-08 0)
(2.00086 -0.0013798 0)
(2 -1.47767e-14 0)
(2.11429 -0.264582 0)
(2 -2.8366e-11 0)
(2 -4.33005e-12 0)
(2 -3.05561e-11 0)
(2 -4.58615e-15 0)
(1.87323 0.180386 0)
(2 1.78487e-14 0)
(2 3.2299e-14 0)
(2 1.27927e-13 0)
(2 -1.74957e-07 0)
(2.12141 -0.267063 0)
(2 5.32011e-14 0)
(2 1.39817e-09 0)
(1.84136 0.217112 0)
(1.83154 0.229356 0)
(2 -3.021e-07 0)
(2 -4.14674e-14 0)
(2 -1.10712e-07 0)
(2.0417 -0.0723079 0)
(2 1.11936e-13 0)
(2 4.23944e-10 0)
(2 6.41476e-14 0)
(2 -4.38268e-14 0)
(2 8.43594e-14 0)
(2 7.56114e-14 0)
(2.01386 -0.0359434 0)
(1.99129 0.00571303 0)
(1.83195 0.229161 0)
(2 -1.50029e-13 0)
(2 2.13844e-14 0)
(2 -4.3737e-14 0)
(1.8314 0.227538 0)
(2.03806 -0.0712499 0)
(2 -4.85541e-09 0)
(2 7.55425e-14 0)
(2 2.86964e-14 0)
(1.83035 0.229083 0)
(1.83019 0.227956 0)
(2 -2.83582e-08 0)
(2 4.78157e-06 0)
(2 3.1062e-09 0)
(2 -9.39418e-14 0)
(2 1.22057e-09 0)
(2 -9.30716e-14 0)
(2 -1.82436e-11 0)
(2 -8.53178e-14 0)
(2 -2.44391e-14 0)
(2.11477 -0.265988 0)
(2 2.92536e-14 0)
(2 -1.56882e-11 0)
(1.82945 0.227999 0)
(2.11531 -0.265088 0)
(2 -6.3557e-14 0)
(1.82985 0.228202 0)
(2 6.63864e-11 0)
(2.1047 -0.261207 0)
(2 -6.87821e-14 0)
(2 -1.21599e-13 0)
(2.11605 -0.264633 0)
(2 -7.24668e-14 0)
(2 -1.21621e-11 0)
(2 -5.59531e-12 0)
(2 -1.56322e-13 0)
(2 -3.29528e-12 0)
(2 -2.4205e-13 0)
(2 2.60562e-13 0)
(1.83449 0.22538 0)
(1.83185 0.228697 0)
(2 4.98219e-13 0)
(2 -8.86948e-14 0)
(2 9.49506e-15 0)
(2 4.69022e-13 0)
(1.84646 0.212616 0)
(2 2.5081e-13 0)
(1.94258 0.0831 0)
(2.109 -0.2585 0)
(2 -2.94784e-08 0)
(2 1.35681e-13 0)
(2 -2.23202e-13 0)
(2 -4.6496e-14 0)
(2 -6.7402e-14 0)
(2 -2.16068e-13 0)
(2 1.88702e-14 0)
(1.98511 0.0174672 0)
(2 -8.2659e-14 0)
(2 -1.70487e-13 0)
(1.90432 0.126972 0)
(2 -5.45572e-14 0)
(2 6.57318e-14 0)
(2 1.38257e-13 0)
(1.86115 0.192149 0)
(2 -9.25076e-14 0)
(2 3.47971e-14 0)
(2 3.38161e-14 0)
(2 2.07567e-13 0)
(2.11531 -0.263183 0)
(2 -1.2086e-12 0)
(2 1.39104e-14 0)
(2.11492 -0.278355 0)
(2.11538 -0.263956 0)
(2 -1.25567e-13 0)
(2 -1.14369e-13 0)
(1.8315 0.228315 0)
(2 -7.02218e-14 0)
(1.97168 -0.029887 0)
(2 -3.40735e-14 0)
(2 5.88644e-15 0)
(2 -1.99924e-14 0)
(1.88299 0.166894 0)
(2.13572 -0.255562 0)
(2 9.6497e-14 0)
(2.1368 -0.265956 0)
(2 -1.76858e-14 0)
(2.08696 -0.152735 0)
(2 -9.47579e-14 0)
(2 -8.02889e-14 0)
(2 -9.85498e-14 0)
(1.8303 0.229056 0)
(2 -4.36381e-08 0)
(2 -1.34587e-13 0)
(1.83137 0.228758 0)
(2 -1.50122e-13 0)
(2 -1.95245e-11 0)
(2 1.68627e-09 0)
(1.83137 0.228757 0)
(2 2.42641e-10 0)
(2 -5.45131e-14 0)
(1.83147 0.228743 0)
(2 -1.12983e-13 0)
(2 3.62901e-14 0)
(2.1105 -0.264629 0)
(2 -1.77713e-11 0)
(1.94594 0.0777883 0)
(2 8.86542e-14 0)
(2 8.61652e-14 0)
(1.82906 0.228832 0)
(1.82996 0.228937 0)
(1.88831 0.160644 0)
(1.84894 0.209326 0)
(2 -4.34586e-14 0)
(2.11008 -0.263928 0)
(2 9.34623e-14 0)
(2 -4.77977e-14 0)
(1.83881 0.220149 0)
(2 2.39778e-13 0)
(2.11629 -0.26372 0)
(2 7.69472e-16 0)
(2 -1.56162e-13 0)
(2 -4.01641e-14 0)
(1.83156 0.229453 0)
(2 -1.72583e-13 0)
(2 9.36128e-14 0)
(2 1.72551e-14 0)
(2 -1.22699e-14 0)
(1.89853 0.148532 0)
(2 4.41281e-14 0)
(1.83993 0.23102 0)
(1.82995 0.230911 0)
(2.13438 -0.261819 0)
(2 4.69861e-15 0)
(2 -1.202e-13 0)
(2.09902 -0.273283 0)
(2.09616 -0.267557 0)
(2 2.14399e-13 0)
(2 8.56074e-14 0)
(2 -6.42037e-12 0)
(1.88094 0.169066 0)
(1.87228 0.182115 0)
(2 -4.81645e-14 0)
(2 6.31164e-15 0)
(2 -7.67254e-14 0)
(2 1.04358e-13 0)
(2 -1.43113e-13 0)
(2 -1.84297e-13 0)
(2 -7.18568e-14 0)
(1.92796 0.10854 0)
(1.83152 0.228842 0)
(1.99379 0.0109779 0)
(2 -1.37198e-13 0)
(1.83359 0.226788 0)
(2.10171 -0.269746 0)
(2 6.85601e-15 0)
(2 1.4528e-13 0)
(2 -5.16573e-14 0)
(1.90571 0.138766 0)
(2 -5.62282e-14 0)
(1.9636 0.0559526 0)
(2 -1.07713e-13 0)
(1.84617 0.212207 0)
(1.83268 0.228117 0)
(2 -1.49409e-13 0)
(2.11097 -0.266662 0)
(2 -7.27829e-14 0)
(1.83231 0.229093 0)
(2 4.84721e-14 0)
(2 -1.43086e-13 0)
(1.83138 0.228762 0)
(1.84251 0.216744 0)
(2 -1.32692e-13 0)
(1.82584 0.23014 0)
(2 -1.0574e-13 0)
(2.11999 -0.262186 0)
(2 -6.94762e-14 0)
(2 -1.19061e-13 0)
(2 -3.308e-14 0)
(1.82708 0.230737 0)
(1.83443 0.225641 0)
(1.85105 0.206797 0)
(2 1.89726e-13 0)
(1.82889 0.228389 0)
(1.83173 0.228908 0)
(2 -1.3394e-13 0)
(1.83135 0.229527 0)
(2 -8.48701e-09 0)
(1.83247 0.228081 0)
(2 -5.63843e-15 0)
(2.12237 -0.262987 0)
(2.00604 -0.0121604 0)
(2.1108 -0.271322 0)
(2 -3.50121e-11 0)
(2 -2.18967e-11 0)
(2 -3.44222e-11 0)
(2 -1.2115e-13 0)
(2 -1.51604e-11 0)
(1.83172 0.229273 0)
(2 1.65712e-13 0)
(1.83232 0.229405 0)
(2 -3.87749e-11 0)
(2 -9.98237e-11 0)
(2 9.23298e-14 0)
(1.84046 0.218998 0)
(2 1.20692e-14 0)
(2.103 -0.266233 0)
(1.83149 0.228791 0)
(2 2.47339e-14 0)
(2.11227 -0.263383 0)
(2.12785 -0.238457 0)
(2.12483 -0.254195 0)
(2 8.63855e-15 0)
(1.91805 0.121122 0)
(1.98519 0.0182394 0)
(1.83074 0.229588 0)
(1.83158 0.228891 0)
(2 -4.08183e-14 0)
(2 -3.45326e-07 0)
(2 -1.01415e-07 0)
(2 -1.68275e-13 0)
(1.83152 0.228917 0)
(2 -5.02548e-15 0)
(2 1.92257e-14 0)
(1.83158 0.229058 0)
(1.8318 0.22897 0)
(2 -8.14011e-14 0)
(1.93917 0.09197 0)
(2.00005 0.000930232 0)
(2 1.14149e-13 0)
(2.00124 -0.00193087 0)
(1.82865 0.228421 0)
(2.04312 -0.108094 0)
(2 -1.27007e-07 0)
(2.04599 -0.123547 0)
(2.10314 -0.260747 0)
(2.10377 -0.262874 0)
(2.01725 -0.0243685 0)
(1.83068 0.229018 0)
(1.8341 0.226486 0)
(1.96611 0.0542984 0)
(1.83121 0.22889 0)
(1.83169 0.229122 0)
(2 1.14578e-13 0)
(2 3.15881e-14 0)
(1.82858 0.228498 0)
(1.82976 0.228204 0)
(1.8314 0.229079 0)
(1.82812 0.227038 0)
(2 -3.30107e-14 0)
(1.83173 0.229059 0)
(2.09872 -0.26227 0)
(1.83048 0.22836 0)
(1.83073 0.229067 0)
(1.8304 0.227301 0)
(1.83126 0.22926 0)
(2.05199 -0.0929215 0)
(2.03418 -0.0671705 0)
(2.01728 -0.0475562 0)
(1.83129 0.228554 0)
(2.01416 -0.0358061 0)
(1.83065 0.229189 0)
(2 -1.10533e-13 0)
(2 -4.21442e-14 0)
(1.83097 0.22971 0)
(1.83126 0.229497 0)
(2 8.27287e-14 0)
(2.11605 -0.265457 0)
(1.83059 0.229423 0)
(1.83176 0.228879 0)
(2 -8.54049e-14 0)
(1.83159 0.22912 0)
(1.83153 0.229109 0)
(2 1.67595e-14 0)
(1.83151 0.228986 0)
(2.11966 -0.266887 0)
(1.83162 0.228777 0)
(1.83017 0.228472 0)
(1.8292 0.228744 0)
(1.83022 0.23079 0)
(2 -1.12626e-14 0)
(2 5.88889e-14 0)
(2 -9.87127e-08 0)
(1.8317 0.228672 0)
(1.89076 0.156634 0)
(2.10323 -0.255504 0)
(1.8313 0.228767 0)
(2.11297 -0.275043 0)
(1.83147 0.228484 0)
(2 4.26271e-14 0)
(2 4.03415e-14 0)
(2 5.26651e-14 0)
(2 6.20122e-15 0)
(1.83112 0.228306 0)
(1.83114 0.228905 0)
(2 1.51066e-13 0)
(2 1.22055e-13 0)
(1.83124 0.228914 0)
(2.11254 -0.272134 0)
(1.8316 0.228717 0)
(2.11149 -0.267562 0)
(2 -6.61913e-14 0)
(1.83256 0.227796 0)
(2 3.44376e-14 0)
(2.13715 -0.260517 0)
(1.8311 0.229972 0)
(2.10582 -0.18366 0)
(2 -6.63834e-17 0)
(1.83153 0.228764 0)
(1.83052 0.23025 0)
(1.83193 0.229494 0)
(2 -1.13159e-13 0)
(2 4.92712e-14 0)
(1.91561 0.121569 0)
(1.83074 0.229933 0)
(2.10133 -0.260892 0)
(1.83165 0.228965 0)
(2 7.52026e-14 0)
(1.83207 0.229103 0)
(2.02729 -0.080299 0)
(1.83199 0.228986 0)
(2.11804 -0.265101 0)
(2 -1.20615e-13 0)
(1.8317 0.22981 0)
(2.11409 -0.233646 0)
(1.831 0.229692 0)
(2.10953 -0.263302 0)
(2 -1.4382e-13 0)
(1.83157 0.229484 0)
(2 1.94528e-13 0)
(1.83016 0.229018 0)
(2 -8.33515e-14 0)
(1.90121 0.142262 0)
(1.8375 0.222074 0)
(1.86757 0.18797 0)
(2.11615 -0.27635 0)
(2 -2.56282e-13 0)
(1.83112 0.228772 0)
(2 4.64133e-14 0)
(1.83196 0.229075 0)
(2 -1.1886e-07 0)
(1.83176 0.229104 0)
(2 -2.40653e-07 0)
(2 3.14799e-14 0)
(1.83086 0.228984 0)
(2.00537 -0.015681 0)
(1.8306 0.230164 0)
(2.13816 -0.257804 0)
(1.84313 0.228993 0)
(2 9.32273e-14 0)
(1.88116 0.170897 0)
(2 -5.02014e-14 0)
(1.83034 0.229186 0)
(1.83178 0.228992 0)
(1.83064 0.228983 0)
(2 7.24756e-14 0)
(1.84807 0.210272 0)
(1.83086 0.228773 0)
(1.84447 0.214097 0)
(1.8971 0.153008 0)
(1.82611 0.2323 0)
(2 -2.42083e-14 0)
(1.88924 0.159733 0)
(2 -8.30686e-14 0)
(1.83104 0.229193 0)
(2 1.20139e-13 0)
(1.97519 0.0358998 0)
(2 3.72525e-14 0)
(1.84334 0.215738 0)
(2 5.60278e-14 0)
(1.83205 0.229156 0)
(1.83983 0.219122 0)
(1.83926 0.220035 0)
(2 2.18741e-13 0)
(1.84263 0.223509 0)
(2.10351 -0.268955 0)
(2 1.49319e-13 0)
(2.11299 -0.263171 0)
(2 -2.05684e-13 0)
(2 -3.8283e-14 0)
(2 -4.09843e-16 0)
(1.82887 0.227924 0)
(2 1.34783e-13 0)
(1.83129 0.229084 0)
(2 -1.76116e-14 0)
(2 -2.77713e-15 0)
(2 -1.38557e-13 0)
(1.8311 0.229479 0)
(1.83412 0.234293 0)
(1.85773 0.196393 0)
(1.83062 0.228383 0)
(1.83206 0.22769 0)
(2.1208 -0.264419 0)
(1.83099 0.232178 0)
(1.83109 0.228792 0)
(2 -1.58566e-13 0)
(1.85216 0.206892 0)
(1.83161 0.228889 0)
(1.84232 0.215409 0)
(2 -1.43972e-13 0)
(1.83219 0.229118 0)
(1.83116 0.229161 0)
(2 2.09978e-15 0)
(1.82967 0.231917 0)
(1.83119 0.228579 0)
(1.8308 0.228739 0)
(1.83121 0.229932 0)
(2 -2.14376e-13 0)
(2 1.73978e-13 0)
(2 1.6822e-13 0)
(1.83174 0.229111 0)
(2.10589 -0.27348 0)
(2 -2.24706e-13 0)
(1.83162 0.228874 0)
(2 -1.56075e-13 0)
(2 6.62412e-14 0)
(2.10808 -0.272458 0)
(2 -6.60708e-14 0)
(2 6.61191e-14 0)
(1.83141 0.228805 0)
(1.83204 0.228769 0)
(2 -3.75515e-14 0)
(1.83186 0.228976 0)
(1.82943 0.230778 0)
(1.83132 0.229286 0)
(2.00962 -0.0159207 0)
(1.832 0.229106 0)
(2 -4.35562e-14 0)
(1.83194 0.229172 0)
(1.83165 0.228847 0)
(1.87539 0.179624 0)
(2 -7.61394e-14 0)
(2 -1.22354e-13 0)
(2 -1.98181e-13 0)
(1.83183 0.227578 0)
(1.83148 0.228912 0)
(1.83166 0.228866 0)
(2.01912 -0.04107 0)
(2 -2.94947e-14 0)
(1.82691 0.230562 0)
(1.83166 0.22869 0)
(1.83166 0.22851 0)
(2 -7.81614e-14 0)
(1.83172 0.228747 0)
(1.83102 0.229147 0)
(1.83137 0.228815 0)
(1.82674 0.230886 0)
(2 1.8465e-15 0)
(1.83169 0.229105 0)
(1.83135 0.227263 0)
(1.85018 0.201604 0)
(1.83148 0.229272 0)
(1.82762 0.230682 0)
(2 4.71503e-14 0)
(1.83115 0.228922 0)
(1.83327 0.227139 0)
(1.83169 0.228857 0)
(1.83196 0.228476 0)
(1.8313 0.229793 0)
(2.10696 -0.267036 0)
(1.83144 0.228819 0)
(1.83184 0.228683 0)
(2 5.31245e-14 0)
(1.83137 0.228894 0)
(1.83152 0.228886 0)
(1.83138 0.229101 0)
(1.83161 0.229121 0)
(2 -5.4116e-08 0)
(1.83193 0.228759 0)
(1.83137 0.228918 0)
(2 -1.68236e-07 0)
(1.83169 0.228843 0)
(1.85913 0.196755 0)
(2 -2.36455e-13 0)
(2 2.40554e-14 0)
(2 1.42451e-09 0)
(1.83207 0.228637 0)
(1.83135 0.23286 0)
(2 1.24984e-13 0)
(2 -2.00583e-14 0)
(1.90794 0.134415 0)
(2 -1.16249e-15 0)
(1.83205 0.228885 0)
(2 1.36802e-14 0)
(2 1.28489e-13 0)
(1.83158 0.229134 0)
(1.83078 0.229612 0)
(1.8318 0.228986 0)
(1.83176 0.229099 0)
(2 -6.26065e-15 0)
(2 1.52687e-13 0)
(2 -7.23499e-15 0)
(1.88183 0.165132 0)
(2 -2.29587e-14 0)
(1.83152 0.229126 0)
(2 -9.42089e-14 0)
(2 -5.88064e-14 0)
(1.82824 0.228403 0)
(1.83029 0.2288 0)
(2 5.47576e-15 0)
(1.83135 0.228794 0)
(2.1195 -0.276965 0)
(1.83167 0.229006 0)
(1.83218 0.228442 0)
(2.094 -0.20336 0)
(2 2.1386e-14 0)
(2.11106 -0.275478 0)
(1.84883 0.202844 0)
(1.8313 0.228536 0)
(1.832 0.229673 0)
(1.8319 0.229667 0)
(2.13459 -0.261263 0)
(1.83067 0.228563 0)
(1.83115 0.229675 0)
(2.13193 -0.261727 0)
(2.11471 -0.276594 0)
(2 -2.63937e-07 0)
(1.83158 0.229142 0)
(1.83211 0.228834 0)
(2 -8.1821e-14 0)
(2 2.2994e-15 0)
(1.83169 0.228905 0)
(2 -1.59885e-15 0)
(1.82798 0.232143 0)
(2 2.42917e-06 0)
(1.85332 0.204468 0)
(2 1.01322e-14 0)
(1.92149 0.11653 0)
(1.83219 0.228538 0)
(1.8307 0.230169 0)
(1.88237 0.167648 0)
(1.85172 0.201505 0)
(1.82963 0.228382 0)
(1.8306 0.229803 0)
(1.85165 0.210226 0)
(2 -2.15522e-13 0)
(2.10411 -0.269875 0)
(1.83054 0.229357 0)
(1.83187 0.228879 0)
(1.82959 0.23122 0)
(2 6.6345e-06 0)
(2 2.67136e-10 0)
(2 1.3829e-09 0)
(1.83164 0.229677 0)
(2 6.1567e-14 0)
(1.83172 0.229145 0)
(1.83082 0.228346 0)
(2.09475 -0.170929 0)
(2 7.31358e-14 0)
(1.83147 0.229015 0)
(2.00002 -3.97441e-05 0)
(2 1.6582e-14 0)
(1.99999 1.9446e-05 0)
(1.99998 2.50691e-05 0)
(1.8318 0.229016 0)
(1.83235 0.229381 0)
(2.00057 -0.00090846 0)
(2 1.12745e-13 0)
(2 5.6129e-15 0)
(1.83177 0.229033 0)
(1.83066 0.230055 0)
(1.83152 0.228781 0)
(1.83151 0.229599 0)
(1.83056 0.229651 0)
(2.10122 -0.255267 0)
(1.87121 0.189721 0)
(2 -1.0517e-13 0)
(1.83256 0.227657 0)
(1.83185 0.229069 0)
(1.8319 0.229312 0)
(1.83578 0.224245 0)
(2 7.06095e-15 0)
(1.83172 0.229043 0)
(1.83609 0.224086 0)
(1.83123 0.229603 0)
(2 1.52218e-13 0)
(1.83108 0.229209 0)
(1.83056 0.228898 0)
(2.05124 -0.0884675 0)
(1.83167 0.228962 0)
(1.8312 0.229147 0)
(2 -3.2236e-14 0)
(1.83126 0.228934 0)
(2.05944 -0.109504 0)
(1.83137 0.229165 0)
(2.05211 -0.0880428 0)
(1.83151 0.229083 0)
(2 -9.62167e-08 0)
(1.83128 0.228804 0)
(1.82491 0.233109 0)
(1.83166 0.228926 0)
(1.83178 0.229164 0)
(1.83128 0.228815 0)
(1.82996 0.228463 0)
(1.83148 0.229362 0)
(1.82952 0.226593 0)
(2 1.34228e-14 0)
(2.02816 -0.0513156 0)
(1.83127 0.229016 0)
(1.83149 0.229236 0)
(2.05774 -0.111683 0)
(1.83138 0.228881 0)
(2.00299 -0.0143788 0)
(1.89301 0.1532 0)
(1.83126 0.228786 0)
(1.8307 0.228787 0)
(1.83007 0.227625 0)
(2 8.42836e-14 0)
(1.83053 0.230241 0)
(1.89433 0.162527 0)
(1.83129 0.227666 0)
(2.02959 -0.0426044 0)
(1.83087 0.229995 0)
(1.82561 0.227653 0)
(2 6.4276e-14 0)
(2.04355 -0.0834947 0)
(2 -3.33434e-09 0)
(1.82872 0.22623 0)
(2 1.41573e-13 0)
(1.88436 0.166171 0)
(2 2.88325e-09 0)
(1.83952 0.227156 0)
(2.03516 -0.0837002 0)
(2 -8.64197e-14 0)
(1.83197 0.228355 0)
(1.83571 0.22734 0)
(2 -3.50067e-14 0)
(1.83028 0.23062 0)
(1.83076 0.229696 0)
(1.82905 0.23046 0)
(1.84136 0.222151 0)
(1.83273 0.228607 0)
(2 4.10173e-15 0)
(1.83181 0.229301 0)
(2 7.87867e-15 0)
(2 -1.02148e-13 0)
(2 -3.74623e-15 0)
(2.02881 -0.0778396 0)
(1.83153 0.229108 0)
(1.83186 0.229196 0)
(1.83029 0.229037 0)
(1.83137 0.228857 0)
(1.82783 0.230273 0)
(1.83013 0.230644 0)
(1.83007 0.234249 0)
(1.83138 0.229091 0)
(2.03072 -0.070606 0)
(1.98797 0.0216704 0)
(2 3.59139e-09 0)
(2 7.28064e-14 0)
(1.82456 0.233289 0)
(1.83132 0.228961 0)
(1.83176 0.229354 0)
(1.83174 0.228969 0)
(1.99999 1.60828e-05 0)
(1.91503 0.127623 0)
(2 -1.69203e-07 0)
(1.8299 0.231476 0)
(1.85731 0.212421 0)
(2 -3.49028e-12 0)
(2 -6.1539e-11 0)
(2.092 -0.185036 0)
(1.83169 0.228853 0)
(2 4.19524e-14 0)
(2 -4.99507e-14 0)
(2.09901 -0.261618 0)
(1.83148 0.229094 0)
(2 3.7784e-14 0)
(1.83188 0.228796 0)
(1.83146 0.229013 0)
(1.82961 0.228299 0)
(1.83823 0.221854 0)
(1.83136 0.228857 0)
(2 -1.62263e-10 0)
(2.10922 -0.271057 0)
(1.95916 0.064321 0)
(1.83074 0.228812 0)
(1.83128 0.228891 0)
(2 8.0022e-14 0)
(1.83215 0.228869 0)
(1.83148 0.228783 0)
(1.91646 0.123922 0)
(1.99923 0.00541812 0)
(1.96454 0.0578573 0)
(2 -4.96179e-14 0)
(1.83022 0.229005 0)
(1.83157 0.229097 0)
(2 -1.23499e-07 0)
(2 -2.26267e-10 0)
(2.13182 -0.25995 0)
(2 -2.43451e-10 0)
(2 1.85218e-14 0)
(1.83156 0.228873 0)
(1.83152 0.228892 0)
(1.83224 0.228613 0)
(1.83157 0.228965 0)
(1.83139 0.228724 0)
(1.82783 0.228018 0)
(1.83113 0.228984 0)
(1.83049 0.229713 0)
(1.83153 0.228876 0)
(2 1.15018e-13 0)
(2.00144 -0.00268417 0)
(1.83114 0.2288 0)
(1.8318 0.229109 0)
(2.00123 -0.00187204 0)
(1.83156 0.228824 0)
(1.83153 0.228802 0)
(2.11594 -0.263447 0)
(2.13031 -0.26052 0)
(1.83199 0.228223 0)
(1.82799 0.230977 0)
(2 -9.06289e-14 0)
(2 2.7988e-13 0)
(1.99898 0.00236077 0)
(1.83136 0.229032 0)
(1.83251 0.229141 0)
(1.83162 0.229009 0)
(2 1.0612e-09 0)
(1.83141 0.228781 0)
(2 -1.00679e-14 0)
(2.04622 -0.0932213 0)
(1.82936 0.231894 0)
(1.82657 0.231674 0)
(2 -2.04214e-13 0)
(1.92677 0.109694 0)
(1.8314 0.228838 0)
(2 -8.7054e-14 0)
(1.8286 0.230106 0)
(2 -1.05151e-10 0)
(1.8316 0.229106 0)
(1.89037 0.157624 0)
(1.83124 0.229697 0)
(2 1.42852e-11 0)
(1.83226 0.228457 0)
(1.83453 0.228825 0)
(2.13123 -0.262148 0)
(1.83173 0.228846 0)
(2 -1.24208e-07 0)
(1.83143 0.228088 0)
(1.83135 0.228542 0)
(2 7.35257e-09 0)
(2.11355 -0.264751 0)
(1.83208 0.227081 0)
(1.86704 0.185127 0)
(2.00074 -0.00116367 0)
(1.82846 0.232485 0)
(1.83155 0.228878 0)
(2 -5.75785e-12 0)
(1.9992 -0.00122618 0)
(1.83245 0.229662 0)
(2.00226 -0.00275593 0)
(1.83157 0.22903 0)
(2 -3.33177e-12 0)
(2 -1.1469e-13 0)
(1.83156 0.228615 0)
(2 6.52233e-14 0)
(1.83145 0.228165 0)
(1.8315 0.228765 0)
(2.00131 -0.00230694 0)
(1.87565 0.176077 0)
(2 3.31671e-09 0)
(1.83142 0.228798 0)
(2 -4.85588e-10 0)
(2 -7.21733e-13 0)
(2 1.13178e-11 0)
(2 6.30303e-12 0)
(1.83178 0.228903 0)
(2 7.1687e-09 0)
(2 -1.84527e-13 0)
(1.83701 0.224519 0)
(2 6.32716e-14 0)
(1.83142 0.228842 0)
(2 2.96495e-10 0)
(1.89256 0.157294 0)
(1.8299 0.230747 0)
(1.83174 0.229025 0)
(2 9.09e-10 0)
(2 -1.79489e-13 0)
(2.00021 -0.00436747 0)