/*--------------------------------*- C++ -*----------------------------------*\
  =========                 |
  \\      /  F ield         | OpenFOAM: The Open Source CFD Toolbox
   \\    /   O peration     | Website:  https://openfoam.org
    \\  /    A nd           | Version:  12
     \\/     M anipulation  |
\*---------------------------------------------------------------------------*/
FoamFile
{
    format      ascii;
    class       surfaceScalarField;
    location    "5.88";
    object      phi;
}
// * * * * * * * * * * * * * * * * * * * * * * * * * * * * * * * * * * * * * //

dimensions      [1 0 -1 0 0 0 0];

internalField   nonuniform List<scalar> 
33852
(
0.000251329
2.24281e-05
-0.000273757
-0.000246121
1.32441e-05
0.000232877
-0.00017511
-7.2322e-05
0.000249982
0.000304053
-0.000163969
-0.000140085
0.000291534
-4.26754e-05
-0.000248396
2.72441e-05
-0.000260681
0.000233437
0.000315712
1.47862e-05
-0.000330174
0.000304277
-9.59564e-05
-0.000208321
0.000286413
-3.50841e-05
0.000202351
1.32096e-06
-0.000206361
0.000289375
-0.000366374
7.70065e-05
0.00036142
-4.58182e-05
-4.39602e-05
0.000263285
-0.000219325
-4.38573e-05
0.0003183
-0.000274444
6.11861e-05
-0.000234587
0.000252057
1.2236e-05
-0.000264293
0.000264853
-1.2796e-05
-0.000278433
3.23121e-05
0.000340565
-5.11789e-05
0.000158593
0.000112308
-0.000270901
-2.43623e-05
0.000303216
-0.000278915
0.000271377
-0.000276165
4.78802e-06
-1.76461e-05
0.000274618
-0.000256596
-0.000226561
1.41249e-05
0.000204281
-0.000153552
-0.000183414
0.000337025
-0.000145702
-6.93214e-05
0.000215016
3.72401e-05
0.000267037
-6.11398e-05
-0.000263272
0.000324878
-0.000216659
2.12902e-06
0.00021514
-0.000209098
-1.94621e-05
0.000142045
0.000137388
-0.000279433
0.000341026
1.93442e-05
0.000142618
0.000128347
-0.000270965
-0.000101136
0.000259729
-0.000250489
-3.78001e-06
0.000254269
0.000330899
-5.97639e-05
-0.000271218
-0.000357483
0.000203329
-0.00022669
0.00020939
0.000231645
3.32081e-05
-5.65602e-06
0.000237301
-7.71746e-06
0.000206291
-0.000232625
0.000259869
0.000315153
-5.68485e-05
-0.000258091
-0.000309093
5.51042e-05
0.000253989
0.000240612
-0.000301294
0.000273589
-0.000306321
3.27321e-05
-0.000180237
-5.49362e-05
0.000235173
0.000272133
-0.000272133
0.000148429
-0.000297473
0.000149045
-0.000210716
0.000214616
-7.29918e-06
-0.000268241
0.000237301
3.09401e-05
-0.000199103
0.000244217
-4.65295e-05
-9.16164e-05
-0.000217477
-0.000114483
-0.000251934
-0.000280169
0.000266113
1.40561e-05
0.000328291
1.17668e-05
-0.000250433
7.01963e-05
0.000117908
0.000145909
-0.000263817
1.34681e-05
-0.000267457
0.000253989
-0.000134569
0.000282997
-0.000150078
-4.97226e-05
0.000199573
-0.000274681
0.000245113
2.95681e-05
0.000237553
-0.000268437
3.08841e-05
-0.000187983
-2.39828e-05
0.000151665
0.000115565
-0.00026723
-0.000183753
-2.76145e-05
0.000208863
0.000263985
2.24281e-05
0.000275941
-2.35201e-06
0.000265329
-0.000250741
-1.45881e-05
0.000223363
-6.53993e-05
-0.000168229
-1.82001e-06
0.000239373
0.000367093
-0.000312882
-5.39594e-05
-2.82356e-05
0.000303315
-0.000274764
-0.000101584
0.000219493
0.00034285
2.42605e-05
-0.000372918
0.000354406
1.84307e-05
-0.000216631
2.17593e-05
0.000309306
-0.000323572
1.23222e-05
-0.000206981
0.000269082
-6.41802e-05
-4.45202e-06
1.70412e-05
-0.000319288
0.000301846
0.000233844
-0.000199444
-3.538e-05
0.000269723
-0.000336909
6.98455e-05
0.000335133
-6.35774e-05
-0.000268941
0.000236573
3.23681e-05
-0.000129388
-0.000132609
0.000261997
-1.86761e-05
-0.000249565
-1.022e-05
-0.000258721
2.30864e-05
0.000212453
-0.000234289
3.12217e-05
-0.000229246
0.000190107
-2.49703e-05
0.000327038
-0.000302033
-0.000279329
0.000273701
5.62802e-06
0.000156129
-0.000296857
0.000140729
-6.17131e-05
-0.000154826
0.000218949
0.000143277
0.0001218
-0.000265077
-0.000250029
0.000225673
-0.0002181
0.000159784
-0.000168813
0.000327181
-0.000158369
0.000185389
7.16523e-05
-0.000257041
0.000255193
2.07481e-05
-0.000192277
0.000148317
5.01758e-05
0.00026574
0.000306877
-0.000290077
9.16831e-05
-0.000237272
0.000135241
0.000117096
-0.000281065
-1.22444e-06
0.000244671
-0.00024233
0.000166489
0.000122836
-0.000289325
0.000143315
8.94165e-05
-3.92002e-06
0.000259113
0.000301533
5.38679e-06
-0.000324011
0.000315213
8.95393e-06
-3.99002e-05
0.000236293
-0.000196393
4.08802e-06
-0.000284257
-2.49773e-05
0.000168361
-0.000142304
-0.000161376
0.00013681
0.000209821
-0.000183957
-0.000269921
0.000264965
4.95602e-06
2.64041e-05
0.000174721
-0.000201125
2.87841e-05
-0.000257265
0.000228481
0.000276137
-0.000262669
0.000115108
0.000212073
0.000214789
-0.000191315
-0.000175813
0.000202217
1.35762e-05
0.000283185
-0.00029639
0.000270327
2.14886e-05
0.000271168
-0.000285097
1.23583e-05
3.86402e-06
0.000267513
-1.81275e-05
0.000288757
0.000330617
9.92994e-06
0.000213653
-0.000257575
0.000316781
-0.000316755
-6.63603e-06
-0.000272693
2.74857e-05
0.000190708
0.000187993
3.98722e-05
-0.000227865
-5.53001e-05
0.000222788
-0.000159393
0.000153609
-0.000270285
0.000116676
0.000279441
-0.000329701
5.02602e-05
-6.38122e-05
0.000249201
-0.000166909
0.000315897
-0.000148989
-0.000313871
-1.00448e-05
-0.000214929
0.000175029
2.78601e-05
-0.000278349
0.000276221
-1.88441e-05
-0.000248613
1.71405e-05
-0.000302575
0.000285032
0.000344989
-0.000158593
-0.000186397
-1.68091e-05
-0.000240386
0.000257086
-0.000266617
-3.30401e-06
0.000224001
2.45841e-05
-0.000248585
0.000284509
-0.000128381
0.000140197
0.000138853
-0.000279049
-0.000201861
-1.09757e-05
0.000258169
-0.000115551
0.000225794
-0.000242562
-6.38122e-05
0.000251805
-0.000209577
0.000249481
-5.60002e-07
-0.000248921
0.000255109
-0.000237441
-0.000323815
0.000298932
-3.08841e-05
0.000203169
-0.000172285
0.000291525
1.21996e-06
-0.00029251
7.79743e-05
0.000133294
-0.000212611
4.50208e-05
-0.000195645
-0.00028974
-4.613e-06
0.000294397
-1.58449e-06
-0.000287861
0.000146973
-0.000273925
0.000126952
-0.000263335
0.000220339
-0.00029376
0.000265607
0.000279441
-0.000311432
-1.23721e-05
0.000325152
0.000109523
0.000159016
-2.1365e-05
0.000352182
0.000140141
0.000139833
-0.000279973
0.000245029
-0.000250349
5.32002e-06
-0.000210953
0.000180069
0.000279133
-5.43202e-06
0.000351043
-3.27179e-05
-0.000303311
0.000302868
-2.19963e-06
0.000270985
-0.000270985
-0.000364754
0.000225877
0.000138849
-0.000201151
1.96435e-05
1.68646e-05
0.000275157
-0.000278461
3.30401e-06
-4.95075e-06
0.000175047
-0.000161549
-0.000197345
0.000254801
-5.74562e-05
-0.000204772
4.17326e-06
-0.000240072
0.000158672
8.10402e-05
-0.000180265
0.000261398
-8.11333e-05
0.000256285
-0.000287113
3.08281e-05
-0.000249229
5.18842e-05
-2.36084e-05
0.000275775
-0.000252146
-0.000253547
1.35801e-06
0.000252189
0.000231281
-7.28003e-06
-0.000294269
7.60007e-06
0.000286864
-0.000266085
0.000266085
-0.000282053
-5.44742e-05
-0.000170763
-0.000193999
-0.000173006
0.000218606
-4.44485e-05
-1.232e-05
-0.000239177
0.000251497
3.10801e-06
0.000210113
-0.000213221
-0.000186411
-2.2632e-05
0.000210002
7.59177e-06
0.000294445
-0.000301898
-0.000236153
-1.34401e-05
0.000249593
1.50361e-05
-0.000251189
-0.000241025
0.000256061
-0.000301266
0.000308972
0.000256117
7.16803e-06
-0.000170252
-3.26819e-05
0.00020761
-0.000145237
-0.000134765
-0.000244329
0.000240549
0.000298662
-4.74682e-07
-0.000298207
-0.000298851
5.76845e-07
0.00029828
1.89874e-05
0.000181217
0.000163773
7.70045e-05
-0.000257269
-0.000159242
0.000310908
0.000250721
-0.000108677
-0.000235145
-1.83681e-05
0.000253513
-0.000204627
-0.00012674
0.000331391
-6.10402e-06
-0.000229125
0.000235229
-2.12299e-05
-0.000179256
-0.000287151
-8.58173e-05
6.27095e-06
-0.000300396
-0.0002126
0.000328082
-0.000115722
0.000281597
0.000288205
-5.16322e-05
0.000271993
-1.57081e-05
-0.000187438
-1.42565e-05
0.000201121
0.000297396
3.31732e-07
-0.000297796
-0.00027026
-3.2805e-05
-0.000218821
0.000247605
-2.52413e-05
0.000310589
-0.000285324
0.000175944
7.71409e-06
-0.000180199
-3.3669e-05
0.00021648
-0.000301248
0.000276009
0.00029243
5.34607e-06
-0.000297789
0.000157445
0.00011886
-0.000276305
0.000287753
5.62768e-06
-0.000293362
-0.000241401
0.000116569
0.000126878
-0.000281747
0.000295329
0.000302513
-0.000156857
-0.000145657
0.000207005
-0.000203897
-0.000232009
-0.000121156
-0.000155009
-4.09063e-06
-0.000294202
0.000298297
-1.0136e-05
0.000276249
0.000292397
-2.14028e-05
-0.000271663
-0.000262958
2.87962e-05
0.00023419
0.000271433
-0.000267569
0.000249621
2.95121e-05
0.000314951
-9.68705e-06
-0.000305032
4.9393e-05
0.000158277
-0.00020185
-0.000100304
0.000198805
-9.6897e-05
0.000252617
-2.91201e-05
-0.000223497
5.17352e-07
0.000291754
-0.000182111
-3.21023e-05
0.000215585
-2.33057e-06
0.000290567
-9.33244e-05
0.000246933
-0.000255417
-5.26402e-06
0.000121184
0.000181329
1.34121e-05
0.000241557
-0.000254969
0.000236097
1.34961e-05
-0.000249593
0.000249509
-0.000242929
0.000256425
6.24084e-05
-0.000200382
0.000137132
-0.000211559
0.000114637
-0.000197123
0.000297295
1.47052e-06
-0.00029873
0.000253849
2.22881e-05
0.000268493
-0.000216441
-5.20522e-05
0.000225518
-0.000246849
2.13305e-05
0.000257909
1.40841e-05
5.77409e-05
0.000294613
0.000267186
-3.89594e-05
-0.000228226
0.000171816
1.274e-05
0.000240297
-0.000253037
0.000195656
-0.000115039
-8.00349e-05
-0.000206728
2.16663e-05
-1.31907e-06
-0.00029775
0.000299065
0.000206843
-0.000160651
-4.95889e-05
0.00034452
-4.13852e-05
0.000275969
-0.000135829
2.31561e-05
0.000238337
-0.000261493
-0.000231141
0.000254297
-2.66635e-05
-0.000229741
0.000256399
0.00015825
-0.000156325
-7.55464e-05
-0.000166068
-0.000261723
4.14346e-05
0.000220288
-3.17521e-05
-0.00022997
7.16756e-06
0.000261717
-3.25193e-05
-0.000229198
1.67524e-05
0.000126148
-0.000195886
0.000308785
-0.000171397
0.000262319
-3.57923e-05
-0.000226526
-0.000319576
0.000174758
-0.000100865
-0.000228453
-6.90203e-05
-5.83756e-07
-0.000296293
0.000297604
-2.75932e-05
0.000179286
-0.00015222
0.000308169
6.85296e-06
0.000250097
-0.000248249
-1.84801e-06
-0.000175541
6.14282e-05
0.000260253
-3.07194e-05
-0.000229541
0.000197345
-0.000250769
5.34242e-05
0.000254206
-0.000231206
-2.29991e-05
-0.000252337
0.000240017
0.000143046
0.000100696
-0.000101864
-0.000170269
0.000132496
-0.000261885
-0.000290249
0.000242201
4.80482e-05
0.000216808
3.1248e-05
-0.000248056
-0.000239017
-9.15111e-06
0.000246644
0.000326807
-2.30402e-05
0.000263996
-3.42721e-05
-0.000229724
0.000144193
-0.000234414
9.28284e-05
3.63259e-05
-0.000265637
0.000229311
-0.000253905
0.000121296
0.000249817
-5.24722e-05
0.000294673
-0.000154253
-0.000140421
0.000122248
-0.000289157
1.53441e-05
0.000237665
-0.000253009
-0.000262031
3.54705e-05
0.00022656
-2.78343e-06
-3.77917e-05
-0.000224239
0.000248546
-0.000272133
-0.000264649
3.44737e-05
0.000230175
0.000193257
0.000101416
-0.000149941
0.000290137
-0.000174602
-3.88166e-05
0.000214988
-1.81721e-05
0.000263201
-0.000292954
0.000309864
0.000109724
9.73224e-05
0.000261325
-0.000261325
0.000315033
-2.32046e-05
-0.00028982
5.32002e-07
0.000248949
0.000254857
1.65761e-05
0.000309865
-0.00027656
-3.32858e-05
-2.26336e-05
0.000266577
-0.000243943
3.00077e-05
-0.000260519
0.000230511
-0.000252139
0.000229506
0.000327537
3.11501e-05
-0.000260598
0.000229447
0.000276809
-3.16961e-05
-6.99111e-06
-0.000292689
0.000301466
0.000270864
3.8911e-05
0.000230245
-0.000266617
3.63721e-05
0.000201196
-0.000201935
-0.000258301
0.000238533
1.97681e-05
0.000169762
-0.000257245
8.74835e-05
-0.000201321
0.000163241
-0.000249145
8.59043e-05
-0.000266169
0.000224813
4.13562e-05
0.000253073
-2.78797e-05
-0.000225194
0.000181901
4.4049e-05
-0.000234837
-2.29601e-05
0.000257797
-0.000236377
-2.28761e-05
0.000259253
-1.94265e-05
0.000255969
-0.000236542
-0.000259345
0.000239919
-3.48841e-05
0.000179956
-0.000235929
-2.24001e-05
0.000258329
-0.00025484
0.000229192
2.56481e-05
2.94001e-06
0.000211289
-0.000214229
-0.000267031
3.79849e-05
0.000229046
0.000270677
4.48002e-06
4.15205e-05
0.000160443
-0.000203716
-3.31196e-05
0.000249928
-2.0978e-05
0.000218597
9.73004e-05
0.000248201
-0.000216951
0.000277939
-0.000279261
0.000278053
-0.000282623
-1.84997e-05
0.000258601
-0.000240101
-0.000261644
0.000243145
3.09282e-05
-0.000202137
-2.98122e-05
-0.000209495
0.000234042
0.000314663
-0.000287358
-2.73662e-05
0.000261297
-3.11081e-05
-0.000230189
3.28739e-05
-0.000262362
0.000229488
-0.000229853
0.000259645
-2.97921e-05
0.000325846
-1.76616e-05
0.000145818
-0.000219891
0.000256929
-0.000109956
-0.000285799
0.000287211
0.000241977
-6.41202e-06
-0.000235565
0.000228537
-0.000173722
-3.70731e-05
0.000210338
2.81384e-05
-0.000211429
-0.000239989
0.000260317
-2.03281e-05
-0.000102731
0.000191129
-8.52669e-05
3.14207e-05
-0.000199585
0.000240169
-0.000263424
2.32552e-05
-0.000115584
0.000258861
-0.000243993
0.000265721
-2.17281e-05
-0.000238953
0.000232541
0.000258626
-0.000245105
-1.35213e-05
0.000264349
-2.46681e-05
-0.000246317
-0.000275177
-1.07377e-05
0.000298401
-5.32969e-05
-8.9677e-06
0.000292717
-0.000281798
-0.000166051
0.00020692
0.00023642
1.73133e-05
-0.000250603
0.000328518
-0.000328499
0.000260955
-0.000245018
-1.59377e-05
-0.000302216
-6.64784e-07
0.000305102
9.68392e-06
3.67973e-05
0.000163879
-0.000200869
0.000214181
-3.52892e-05
-0.000180154
0.000278054
-0.000255789
-2.22648e-05
-0.000207593
3.16619e-05
3.15421e-05
-0.000261891
0.000230348
0.000285677
-0.000292266
2.44721e-05
-0.000259617
-0.000257965
1.87881e-05
0.000266057
-1.64361e-05
0.000151173
-0.000267625
0.000116452
0.000299081
-4.42248e-06
0.000238617
-7.53763e-05
2.12521e-05
0.000177045
-0.000198297
-0.000183877
0.000205129
-0.000236275
0.000257219
-2.09441e-05
0.000261462
-3.31689e-05
-0.000228293
-0.000197009
-5.21362e-05
0.000251581
-1.48401e-06
8.91375e-06
-0.000265264
0.000255478
-0.000341692
0.000235618
0.000106094
0.000266371
-0.000236811
-2.95597e-05
0.000306861
-0.00031472
7.86868e-06
-2.57041e-05
-0.000229097
0.000254801
0.000261493
-7.64403e-06
1.009e-05
-0.000209765
0.000262411
-3.19033e-05
-0.000230508
-6.90483e-05
-0.000260653
-0.000194685
0.000248025
-5.33402e-05
-0.000266533
0.000249985
1.65481e-05
-0.00031794
1.66942e-05
-1.69743e-05
0.000296538
-0.000279438
-0.000276221
1.65481e-05
0.000249537
-0.000166412
6.42337e-05
0.000273593
1.48331e-05
-0.000288426
-0.00031606
0.000307846
8.18803e-06
3.46641e-05
-0.000263649
0.000228985
-1.74472e-05
0.000281286
-0.000315276
1.64226e-05
-0.000176541
-7.42283e-05
-0.000235141
0.000201393
-2.16721e-05
-0.000216469
0.000238141
-0.000314735
0.000295828
1.88579e-05
-0.00013301
0.000272675
-0.000140969
-8.41525e-06
3.31521e-05
-0.000263453
0.000230301
-0.00019338
2.43524e-05
0.000175484
0.000221519
0.000280562
-0.000281122
2.91098e-07
-0.000236993
-2.20921e-05
0.000224813
-0.000202721
0.000139273
0.000143753
-0.000278517
0.000199386
-5.63736e-05
0.000308068
-1.06845e-05
0.000209095
-0.000269094
2.92853e-05
0.00022306
-0.000252345
-0.000321453
0.000138417
0.000296613
2.92247e-05
1.93669e-05
-0.000224355
-2.77845e-05
-0.000136808
-0.000132888
-0.000326104
0.0001135
0.000242873
2.56201e-05
0.000218765
-0.000224869
1.09477e-05
-0.000287963
0.000276202
-0.000243025
0.000270277
-2.72499e-05
0.000281439
-0.000281877
0.000290225
-7.71916e-05
-8.85242e-06
0.000290323
-1.87881e-05
0.000247101
-0.000228313
0.000281496
-0.000290328
-5.57506e-06
-0.000283968
0.000289533
0.000282103
-0.000269605
0.000284422
0.000226314
2.67597e-05
-0.000306371
0.000315295
-9.4993e-06
0.000254639
-2.06855e-05
0.000220592
2.39078e-05
-0.000268913
0.000246057
-2.05381e-05
-0.000259401
3.02849e-05
0.000229116
0.000178305
7.64963e-05
1.0522e-05
0.000281915
-0.000292311
-0.000238141
-2.88401e-05
0.000266981
2.51441e-05
-0.000263285
0.000284117
-0.000162317
-0.000232177
0.000261129
-2.89521e-05
-0.000234697
0.000260709
-2.60121e-05
1.35401e-06
0.000278772
2.45001e-05
-0.000259197
2.38001e-05
-0.000255977
0.000274316
-0.000242923
-3.13614e-05
0.000317777
-9.96187e-06
-0.000307617
-1.12305e-06
-0.000255753
1.1816e-05
0.000243937
-1.39476e-05
-0.000261185
0.000228066
-0.000245337
0.000270145
-2.48081e-05
-0.000263229
1.49801e-05
-2.35876e-05
0.000286078
-0.00026253
2.13641e-05
-0.000266701
-0.0002415
-2.13969e-05
3.26536e-05
-9.0432e-05
0.000260194
0.000280822
-0.000286481
5.05122e-05
0.000237693
0.000282311
-0.000281988
-0.000243181
-2.39401e-05
0.000267121
-0.000260894
7.34723e-06
-0.000295695
1.94941e-05
0.000276212
-0.000268717
2.55361e-05
-8.44194e-06
0.000290767
-0.000268326
0.000243549
2.47773e-05
-0.000232513
0.000210841
0.000280071
-0.000288255
-6.16002e-07
0.000260289
-0.000259673
-0.000301832
-1.60997e-05
-0.000264573
2.35481e-05
-0.00024417
-2.41555e-05
-3.43281e-05
-0.000298186
0.000294116
0.000286674
-0.000158327
0.000296352
-0.000290621
2.30153e-05
4.92363e-06
0.000262621
-0.00025531
-7.20158e-06
0.000307406
-2.02433e-05
-0.000287123
6.00672e-05
-0.000246765
-2.19521e-05
-0.000356439
0.00024179
0.000285258
-0.000280718
2.33801e-05
-0.000192406
-1.59619e-05
-0.000306473
2.56551e-05
0.000280883
-0.000197268
0.000311666
-0.000113677
0.000259841
-0.000238533
-2.13081e-05
-0.000291707
2.94001e-05
0.000222097
-0.000251497
-0.000159963
0.0001367
-0.00016417
0.000251441
-0.000238029
-1.34121e-05
-0.000263873
3.40201e-05
-2.23161e-05
-0.000269837
0.000251469
0.000230427
3.12901e-05
-4.70937e-05
0.00020835
0.000232619
-0.000260499
-1.74202e-05
-2.75028e-06
0.000247343
-0.00024383
-0.000293242
-0.000237049
0.000265189
-2.81401e-05
0.000230096
3.22225e-05
-0.000268521
2.55921e-05
-0.000239905
-2.86161e-05
0.000228954
-0.000260706
-0.000282481
4.73202e-05
-0.000242005
0.000293187
-0.000283851
-0.000287979
1.29369e-05
0.000275252
-4.38538e-06
0.000214798
0.000228551
-0.00026107
0.000296885
-0.0001309
-0.000165985
0.000240719
-0.000261745
0.000269379
-0.000226213
-1.76681e-05
-0.000165236
0.00030728
-0.00014226
2.49649e-05
0.000222662
-0.000247627
-0.000193895
0.000193812
-0.000283722
0.000282411
7.00002e-06
-0.00029072
-0.000302485
0.000146693
0.000155793
0.000259995
-0.000239359
-2.06361e-05
-0.000215741
0.000193649
0.000262232
4.34786e-07
0.000257293
0.000232526
2.16796e-05
-0.000295674
-6.26839e-05
1.0261e-05
0.000233996
-0.000247326
1.78193e-05
-0.000230917
-2.37161e-05
0.000254633
-0.000242295
0.000263191
-2.08965e-05
8.15606e-05
0.000132289
2.0062e-05
-0.000305827
0.000285749
0.000256565
-1.80041e-05
-0.000238561
0.000243881
-0.000254017
1.0136e-05
-0.000226745
0.000207957
0.000223131
-0.000258923
-0.000244693
4.76842e-05
1.59299e-05
-0.000137725
-0.000218825
1.57921e-05
0.000245701
0.000280604
0.000294631
0.000305799
1.75462e-06
0.000249817
-0.000220417
2.51749e-05
0.000225009
-0.000250184
-0.000243178
0.000268865
-2.56873e-05
2.28201e-05
-0.000262725
-0.000114805
0.000296218
9.15735e-06
2.08181e-05
0.000261675
-0.000235103
-2.65721e-05
1.3151e-05
-0.000303766
0.0002906
0.000321825
-3.09726e-05
-0.000290884
0.000249733
1.63241e-05
0.000306099
-0.000292874
-0.000229706
-0.000112007
9.63204e-06
0.000250657
-4.9129e-05
-0.00020239
0.000251519
2.20333e-05
0.000246832
-0.000241686
-2.29629e-05
0.000260737
-2.24001e-05
0.000287776
-0.000268023
2.63369e-05
2.68241e-05
-0.000257965
0.000210617
-0.000207677
2.58161e-05
-0.000262865
0.00028151
0.000121744
-0.000256173
0.000134429
1.80545e-05
3.83546e-05
0.000163112
-0.000197548
-0.000239485
-2.85377e-05
3.94807e-05
0.000158141
-0.000199365
-0.000246691
0.000271066
-2.43747e-05
0.000209866
-0.000248826
1.98857e-05
1.7377e-05
-0.000175774
-3.06561e-05
0.000226686
-0.000257414
-2.88401e-05
0.000244245
-0.000215405
-2.16161e-05
0.000242985
-0.000221369
0.000201657
-0.000250786
-0.000273606
-0.000232905
-2.55081e-05
0.000258413
0.000241234
2.98318e-05
-0.000205955
-2.33759e-05
0.000234882
-2.18821e-05
-0.000224967
-0.000239345
6.28042e-05
0.000259004
-0.000229718
4.75106e-05
-0.000249901
-3.43393e-05
0.000257694
-0.000223354
0.000205675
-0.000240014
0.000261689
-1.1956e-05
-6.06764e-05
-0.000229572
-0.000228849
-1.67715e-05
0.000243236
0.000247109
5.3175e-05
0.000212448
-0.000265623
-0.000261093
0.000177353
-0.000231757
5.44042e-05
6.39817e-05
0.000135692
0.000259457
-0.000240915
-2.47224e-05
-0.000265385
0.000227165
3.82201e-05
-2.87813e-05
-0.000222158
0.00025094
-0.000284852
0.000264161
0.000234501
3.61761e-05
2.18821e-05
0.000234087
-0.000307217
0.000151089
0.000156129
0.000165851
-4.94253e-05
0.000254045
-0.000115192
2.56901e-05
0.000217446
-0.000243136
-0.000286362
0.000287185
9.25817e-06
0.000257377
-0.000245953
0.000208937
3.70161e-05
0.000254832
0.000238411
-2.15306e-05
-0.000246815
-2.02161e-05
-0.000263019
2.0724e-05
-0.000269215
2.24001e-05
2.79601e-05
0.000220024
-0.000247984
0.000242481
-0.000274597
1.32721e-05
0.00025072
-1.33858e-05
1.25123e-05
-0.000252353
-0.000328704
0.000124141
-0.000233135
-2.62109e-05
-0.000252113
0.000252113
0.000259782
-0.000144217
-1.81973e-05
-0.000278645
0.00029729
0.000276358
0.000258749
-0.000135913
0.000224113
2.39205e-05
0.00023468
7.81302e-05
-0.00034049
3.79005e-05
0.000258962
1.76364e-05
-0.000248843
-3.00917e-05
0.000207453
-3.01001e-05
0.000259701
2.95429e-05
0.000218353
-0.000247896
-3.05014e-05
-4.09782e-05
-0.000217818
0.000258797
-0.000233423
-2.14173e-05
3.74712e-05
-0.00019779
0.000165342
-3.30877e-05
0.000221671
-0.000255943
-0.000281717
-8.4566e-06
0.000290209
-0.000194065
0.000167166
0.000166349
8.16763e-05
1.27476e-05
-0.000294512
0.000235075
2.59446e-05
-0.000261019
-0.000201015
-9.42207e-07
0.000232743
-0.000264287
3.15449e-05
-8.42803e-06
-0.000217029
0.000225457
-0.000158787
0.00020062
-0.000249985
-3.46025e-05
0.000256274
0.000218076
-0.000252679
-0.000246289
0.000272245
-2.59561e-05
0.000253547
2.78321e-05
-0.000232062
-2.95821e-05
-0.000298347
0.000316505
-1.82001e-05
2.34091e-05
0.000212462
-0.000250254
-0.000267233
2.09441e-05
-2.12801e-05
-0.000245953
-3.61481e-05
0.00024861
-0.00029006
-1.37611e-05
0.00022082
-0.000256968
0.000248299
-0.000252069
1.70504e-06
2.80002e-06
0.000181413
-0.000184213
0.000255294
0.000234529
2.67681e-05
-2.62361e-05
0.000245001
-0.000218765
3.36001e-05
0.000216609
-0.000250209
0.000244861
2.73841e-05
0.000306545
-0.000143949
-0.000162597
1.48043e-05
0.000241235
-0.000254761
0.000271013
-0.000113568
0.000225569
-0.000256677
-0.000240838
0.000104813
-0.000265469
7.16803e-06
-0.000241635
-2.75801e-05
-0.000241361
-2.48081e-05
0.000310689
-2.74218e-05
-7.67483e-05
0.000243097
-1.1452e-05
-0.000215601
0.000224281
-8.68003e-06
0.000255193
-7.68883e-05
3.4234e-05
-0.000196459
0.000164548
-0.000265245
-1.40001e-07
-4.14962e-05
3.95107e-05
0.000160513
-0.000195363
0.000200985
-0.000162461
0.000257041
-7.05603e-06
0.000251151
-0.000218277
-1.81845e-05
-2.1128e-05
0.000272484
-9.36968e-05
-0.000175763
-1.42801e-05
-0.000191913
0.000206193
0.000258665
-1.53553e-05
-0.00024331
1.98101e-05
0.000238855
-0.000279924
-8.142e-06
3.72409e-05
-0.000191076
0.000153255
1.36921e-05
0.000247997
-0.000157446
0.000192652
-1.95189e-05
0.000248711
3.33387e-05
0.000180333
-0.000215816
-4.17202e-06
-2.49389e-05
0.000265108
-0.000231955
-3.14693e-05
0.00029695
-0.000281505
-1.53958e-05
1.63717e-05
-0.000237659
0.000221288
-0.00010514
0.000226885
1.92706e-05
-0.000305104
0.000285846
2.52001e-05
-2.79441e-05
2.69165e-05
0.000308833
-0.000289539
0.000238891
1.97345e-05
2.15601e-06
0.000231617
-0.000233773
-0.000310315
2.56344e-05
0.000284728
-0.000162177
-0.000144145
0.000209178
-0.000250156
-0.000156801
0.000241924
1.90317e-05
0.000254464
-4.13534e-05
0.000250531
0.000214498
-0.000255851
0.000318722
-0.000318607
-1.07218e-05
0.000286954
-0.000276289
-0.000302964
1.96791e-05
0.000283108
4.20842e-05
-0.000286413
-3.88497e-05
0.000252483
2.62921e-05
-2.21011e-05
0.000307298
-0.000285247
2.43321e-05
3.96181e-05
0.000164543
-0.000205294
0.000249294
-0.000219751
2.83277e-05
-0.000261633
4.36802e-06
-1.99917e-05
0.000306738
-0.000286738
-0.000250987
-0.000266673
3.07441e-05
0.000252141
-0.000236741
-1.54001e-05
1.2264e-05
0.000239877
-0.000275491
-1.28487e-05
0.000255697
-5.40058e-06
0.000320172
-1.21599e-05
0.000298216
-0.0002874
-4.93054e-05
0.000247437
-0.000235621
0.000257601
-1.99361e-05
0.000132133
8.63663e-05
-0.000217351
0.000224442
3.03493e-05
0.000226759
-0.000258662
3.71393e-05
0.000270524
-0.000288445
1.69576e-05
0.000251273
-0.000239093
-1.31321e-05
0.000252225
-2.91201e-05
-0.000257265
2.56481e-05
0.000231617
-0.000228005
-2.92601e-05
0.000259765
-0.000233571
-2.61941e-05
0.000258721
-0.000267504
2.52806e-06
0.000291731
1.26513e-06
-0.000292339
0.000249125
-0.000231571
-1.85921e-05
0.000308802
-0.00030076
-8.01806e-06
0.000239939
-9.9824e-05
-0.000266897
2.56761e-05
0.000241221
-3.48881e-05
-0.000232009
-0.000266393
2.51161e-05
0.000241277
-1.21558e-05
-0.000268168
0.00028019
-3.45241e-05
-0.000231869
-0.000262022
1.89423e-05
-0.000266281
2.43881e-05
0.000241893
-0.000284209
-2.17173e-05
-0.00030619
2.76214e-05
0.00027866
-3.34041e-05
-0.000232877
-0.00016235
-0.000258133
2.94001e-05
0.000228733
0.00030763
-0.000307836
-0.000195805
0.000209049
-3.29281e-05
-0.000225205
0.000197479
-0.000279366
8.17016e-05
0.000283941
2.22814e-05
-0.000301953
1.76961e-05
0.000285156
-0.000280427
-4.78704e-06
-0.000257125
0.000231617
2.55081e-05
0.000174288
2.85824e-05
-0.000201293
-0.000266953
2.81681e-05
0.000238785
-0.000227361
-2.97641e-05
-3.67361e-05
-0.000230217
0.000276124
0.000297334
1.91311e-05
-0.000276469
-3.1624e-05
0.000308165
-0.000258679
-1.11478e-05
0.000297227
-0.000285951
1.50114e-05
-0.000301946
0.00028694
-0.000230609
-0.000307445
0.000287502
0.000263005
-2.55264e-05
-0.000280648
1.36081e-05
0.000169826
0.000224757
1.96706e-05
-0.000247665
-0.000205028
0.000166764
0.000236738
1.31517e-05
-0.00024989
-0.00025833
2.66093e-05
0.000231721
-1.09228e-05
0.000247661
5.74002e-06
0.000246877
-3.19817e-05
-0.000226348
0.000299319
-0.000285549
-1.3776e-05
0.000228024
-0.000226666
0.000289718
0.000237685
1.98521e-05
-0.000257537
-1.24236e-05
0.000250108
0.000246636
1.50389e-05
-0.000305382
1.53818e-05
0.00024448
2.18905e-05
3.17921e-05
-0.000204236
-0.000287402
-1.77281e-05
-0.000182869
0.000295177
-0.000158245
0.000196383
-3.48332e-05
3.03655e-05
-0.000195956
0.000163053
-0.000164649
0.000259149
-0.000239236
-1.99137e-05
0.00026105
-0.000273101
-0.000241432
0.000230393
-2.18992e-05
0.000301099
-0.000279233
0.000307915
-0.000292951
0.000242117
1.77241e-05
-0.000224975
0.00024443
-1.94545e-05
1.61001e-05
-0.000241075
-7.00003e-06
0.000260989
-0.000297115
4.87613e-06
0.000292256
-0.000174497
0.000160217
-1.74105e-05
-6.2429e-06
-0.000290867
-1.68177e-05
-0.00028511
4.28402e-06
-0.000301312
0.000136082
-0.000257466
2.37582e-05
0.000233746
0.000238197
1.32441e-05
-3.08105e-05
-0.000226656
-3.30091e-05
-0.000290907
1.98109e-05
-0.000231959
0.0002127
0.000254969
-0.000233465
-2.15041e-05
-0.000202406
0.000225057
-0.000186091
-7.47435e-06
0.000203556
0.000136756
0.000139047
3.96006e-06
0.000271327
0.000279884
-0.000305378
2.99539e-06
0.000243528
-1.98539e-05
0.000298659
-0.00027885
-0.000302294
0.000287479
1.4806e-05
-0.000258301
0.000230077
2.82241e-05
-2.64041e-05
-0.000231897
0.000301983
-0.000303484
0.000267418
-1.99803e-05
0.000304465
-0.000284543
0.000285855
-6.81391e-07
-0.000256873
0.000256873
-0.000268127
0.000295828
-0.000154297
-7.06716e-05
-6.85557e-06
0.000295479
-0.000288395
-0.000297228
0.000290344
0.000291788
-0.000279048
0.000290276
-0.000305115
1.50225e-05
3.51857e-05
-0.000237167
0.000219169
2.24547e-05
-1.44941e-05
-0.000249749
0.000231199
-1.4257e-05
0.00029773
-0.000283509
0.000263481
-1.96001e-05
0.000254224
-0.000235464
-1.87601e-05
-3.09958e-05
-0.000273666
0.000304663
1.44308e-05
-0.000297293
0.000282923
-1.45881e-05
0.000233465
-0.000218877
0.000214054
-0.000295708
0.000283394
-1.92323e-05
0.000304692
-0.000285444
0.00025102
-2.69002e-05
0.000297385
-0.00027052
-0.000295792
0.000268893
1.07156e-05
0.000244749
-0.000255465
0.000305196
-0.00031197
6.79574e-06
1.84292e-05
1.57455e-05
0.000286993
-0.000302203
6.38914e-06
0.000285145
2.3245e-06
-0.000318997
-0.000287844
0.000303289
-0.000242481
0.000243657
8.45603e-06
-0.0002264
0.000242772
-0.000293424
0.000274195
0.000284118
-0.000147823
-8.26379e-05
0.000294383
1.44768e-05
3.22917e-05
-0.000198749
0.000171503
-0.000274586
0.000257293
-0.000219535
0.00024982
0.000243411
1.92865e-05
-0.000262697
0.000236019
2.31309e-05
-0.000301441
0.000282968
0.000312339
-1.79466e-05
0.000237945
-0.000257069
1.91241e-05
-0.000222494
0.000247459
0.000294318
1.80383e-05
-0.000167724
-1.44184e-05
0.000298367
-0.000283903
-0.000142279
-0.000266415
0.000159993
0.000106423
-0.000309041
0.00029531
1.36771e-05
-0.000258699
0.000241826
1.68729e-05
-0.000156564
0.000156104
-0.000306392
0.000288495
1.78075e-05
-0.00021025
0.000174441
-9.69084e-06
0.000253101
2.04697e-05
1.75106e-05
-0.000304116
0.00028657
-0.000300655
-7.22819e-06
0.000307846
-0.000249229
0.000220109
-0.000201153
-8.52603e-05
-0.000272202
0.000251023
0.000303801
-0.000286313
-0.000194226
1.81845e-05
1.50655e-05
0.000284503
-0.000299551
-8.80603e-05
0.000239233
-0.000303444
1.94436e-05
0.000283976
-0.000209279
-2.91437e-06
-0.000297797
-0.000161822
2.05297e-05
0.000303037
-0.000288664
-1.44634e-05
-0.000176935
-0.000299095
-0.000177188
-2.32163e-05
0.000243528
0.000289575
1.71196e-05
0.000252869
5.74223e-05
-0.000284052
-0.000247213
-0.000270763
-2.3311e-05
-0.000274735
0.000300315
-0.000262874
0.000282498
-0.000164232
-4.1359e-05
0.000206799
0.000197569
1.56521e-05
-0.000213221
-1.25427e-05
-0.000285679
0.000298216
1.83597e-05
1.85934e-05
-0.000305373
0.000286819
0.000253345
-1.71361e-05
-0.000236209
1.89338e-05
-0.000304842
0.000285904
2.03561e-05
0.000232989
0.000216385
-2.46121e-05
-0.000191773
1.57688e-05
0.000282325
-0.000298343
-0.000251525
0.000117961
-0.000303833
1.86694e-05
0.000285179
0.000226598
-5.21098e-05
-0.000296136
1.29795e-05
0.000283004
0.000255837
-2.19801e-05
-0.000233857
-0.000303428
0.000106172
0.000234529
1.70521e-05
-0.000251581
0.000279943
1.70051e-05
0.000304192
-0.000285224
1.79056e-05
-0.000299496
0.000233512
1.84916e-05
-0.000252004
-1.89298e-05
-1.42605e-05
0.000298101
-0.000283872
-0.000280327
0.000300011
-0.000278786
0.000290359
-0.000303015
1.28757e-05
0.000249741
-1.62291e-05
1.15218e-05
0.000250041
-1.55121e-05
0.000298494
-0.000283147
3.95922e-05