/*--------------------------------*- C++ -*----------------------------------*\
  =========                 |
  \\      /  F ield         | OpenFOAM: The Open Source CFD Toolbox
   \\    /   O peration     | Website:  https://openfoam.org
    \\  /    A nd           | Version:  12
     \\/     M anipulation  |
\*---------------------------------------------------------------------------*/
FoamFile
{
    format      ascii;
    class       volScalarField;
    location    "22.1";
    object      p;
}
// * * * * * * * * * * * * * * * * * * * * * * * * * * * * * * * * * * * * * //

dimensions      [1 -1 -2 0 0 0 0];

internalField   nonuniform List<scalar> 
9801
(
0.659034
0.65703
0.665519
0.686462
0.706942
0.718074
0.723568
0.722578
0.70834
0.697822
0.698639
0.705741
0.725891
0.749978
0.764598
0.771674
0.774935
0.767079
0.747303
0.734759
0.734738
0.739427
0.76111
0.795828
0.818393
0.828496
0.834695
0.835623
0.817593
0.79218
0.784949
0.786781
0.791017
0.809139
0.84849
0.876782
0.888833
0.895753
0.898136
0.884281
0.859382
0.851937
0.854639
0.860615
0.871503
0.898109
0.931477
0.949758
0.958829
0.964344
0.96421
0.949816
0.930486
0.927543
0.932958
0.940787
0.953176
0.978982
1.01334
1.03412
1.04548
1.05276
1.05808
1.05213
1.02708
1.01653
1.02155
1.03037
1.04544
1.08146
1.12348
1.14738
1.16066
1.17117
1.17972
1.16806
1.13509
1.12505
1.13431
1.15025
1.1868
1.24765
1.29218
1.31812
1.33719
1.35496
1.35965
1.31942
1.28492
1.291
1.32017
1.37989
1.49755
1.60666
1.69382
1.79448
1.82715
3.13669
20.1472
0.679917
0.682038
0.688843
0.694024
0.70017
0.704684
0.706432
0.708696
0.712107
0.715919
0.72473
0.737092
0.747704
0.757478
0.764771
0.766536
0.757698
0.74892
0.746938
0.748907
0.75192
0.767381
0.788917
0.807488
0.820537
0.828283
0.828489
0.816055
0.805862
0.801937
0.800971
0.804325
0.814642
0.835836
0.860522
0.877896
0.886975
0.889375
0.882509
0.87416
0.869721
0.869158
0.874224
0.880994
0.889265
0.909307
0.934262
0.948266
0.954114
0.954288
0.953905
0.952018
0.945289
0.945755
0.951178
0.956829
0.964232
0.984521
1.0151
1.03304
1.04214
1.04769
1.05281
1.05257
1.03782
1.03044
1.03363
1.04093
1.0521
1.08396
1.12347
1.14613
1.15895
1.1692
1.1785
1.17261
1.14659
1.13677
1.14344
1.15665
1.18279
1.23819
1.2856
1.31422
1.33588
1.35633
1.36864
1.33844
1.30305
1.30018
1.32705
1.37136
1.46014
1.54945
1.62433
1.70474
1.7133
2.98086
20.4987
0.704352
0.707152
0.701244
0.691421
0.678043
0.675852
0.683116
0.699595
0.722309
0.746418
0.759243
0.763895
0.764926
0.76145
0.748852
0.735313
0.734479
0.739741
0.746856
0.75851
0.781722
0.802052
0.810365
0.813743
0.818272
0.814549
0.801199
0.799499
0.804077
0.809528
0.816213
0.826493
0.841557
0.856551
0.864833
0.868861
0.869465
0.868751
0.872043
0.875445
0.881196
0.888042
0.892235
0.895166
0.900426
0.91153
0.924931
0.932148
0.938091
0.947305
0.954685
0.961641
0.963787
0.961548
0.961099
0.965242
0.971065
0.981187
1.00214
1.01863
1.03186
1.04359
1.0533
1.06058
1.0538
1.04231
1.04243
1.0483
1.05673
1.07486
1.11046
1.13663
1.1531
1.16643
1.1782
1.18229
1.16244
1.14724
1.14911
1.16041
1.17647
1.22057
1.2802
1.31689
1.3403
1.36091
1.37761
1.35995
1.32129
1.30867
1.32595
1.3617
1.42561
1.5199
1.5983
1.67482
1.69424
3.01952
20.5595
0.724426
0.732144
0.71689
0.679736
0.664315
0.664955
0.669255
0.687391
0.732368
0.766573
0.779489
0.78507
0.786828
0.767232
0.73254
0.723752
0.726201
0.732376
0.74589
0.770773
0.799524
0.819709
0.827259
0.829079
0.817344
0.799102
0.795382
0.79819
0.803871
0.81664
0.830468
0.840956
0.852417
0.860163
0.86167
0.858688
0.860115
0.868283
0.877188
0.887538
0.895474
0.900668
0.902058
0.901106
0.899748
0.901555
0.910333
0.924173
0.940488
0.956605
0.970012
0.978568
0.979682
0.971606
0.963935
0.959929
0.961456
0.967844
0.990756
1.01972
1.03971
1.05458
1.0666
1.07562
1.07048
1.04987
1.03982
1.04173
1.04967
1.06283
1.09961
1.13815
1.16083
1.17657
1.18951
1.19977
1.18438
1.1531
1.14554
1.15626
1.17206
1.20081
1.26168
1.31189
1.34071
1.36267
1.3825
1.37912
1.34488
1.32137
1.32261
1.35053
1.39157
1.4617
1.5379
1.60515
1.63648
3.15039
20.6587
0.732279
0.736783
0.706382
0.677783
0.670585
0.671955
0.675714
0.688988
0.73345
0.774079
0.787399
0.791366
0.780879
0.753861
0.735753
0.731351
0.733661
0.739476
0.751825
0.774533
0.803775
0.819722
0.8229
0.816438
0.807323
0.805712
0.805984
0.809796
0.818397
0.827472
0.834723
0.841126
0.84418
0.848566
0.853861
0.859345
0.871265
0.8842
0.894239
0.900964
0.905824
0.905568
0.895681
0.886773
0.886257
0.890919
0.906699
0.935204
0.958846
0.974099
0.984304
0.992223
0.990292
0.965854
0.949979
0.949909
0.95615
0.965441
0.992574
1.03316
1.05737
1.06926
1.07811
1.08421
1.07442
1.04384
1.03161
1.0365
1.04681
1.06084
1.09565
1.14309
1.17026
1.18471
1.19619
1.20527
1.19447
1.15746
1.14028
1.14766
1.1648
1.18731
1.23924
1.30467
1.34396
1.3678
1.3882
1.39547
1.37182
1.34275
1.32952
1.33949
1.37189
1.4207
1.48918
1.54832
1.57764
3.22256
20.7385
0.725513
0.717586
0.697176
0.687794
0.684659
0.687118
0.695656
0.712434
0.736304
0.762253
0.773065
0.771474
0.762811
0.756614
0.751504
0.750138
0.75421
0.761844
0.768187
0.772973
0.781027
0.796626
0.806716
0.810779
0.816078
0.823493
0.829487
0.832067
0.834043
0.835639
0.829751
0.821624
0.822276
0.831491
0.851022
0.873419
0.892806
0.904881
0.91196
0.917541
0.914654
0.891881
0.875955
0.875785
0.881708
0.891051
0.915209
0.955821
0.980053
0.990888
0.99757
0.998222
0.97979
0.952449
0.943434
0.947963
0.956562
0.969825
1.00082
1.04452
1.06753
1.07642
1.08161
1.08092
1.06904
1.0466
1.03349
1.03621
1.04769
1.06363
1.09532
1.14378
1.17348
1.18702
1.19644
1.2037
1.20034
1.1748
1.15093
1.14755
1.16044
1.17972
1.21532
1.27666
1.32827
1.35947
1.38314
1.40195
1.39671
1.3688
1.34764
1.34365
1.35665
1.38776
1.44074
1.49858
1.52819
3.27272
20.8052
0.706167
0.70671
0.705289
0.705395
0.708971
0.715253
0.722115
0.728218
0.733331
0.736127
0.742711
0.752053
0.760367
0.767719
0.775997
0.780328
0.780645
0.780223
0.776845
0.765054
0.760877
0.766454
0.786217
0.812839
0.833852
0.846448
0.852852
0.855342
0.850052
0.833049
0.813157
0.808834
0.812432
0.821171
0.849825
0.89107
0.912549
0.921198
0.927048
0.927561
0.906496
0.876584
0.868073
0.87149
0.878326
0.891753
0.92496
0.969361
0.991141
0.998655
0.998954
0.988832
0.971992
0.956757
0.949393
0.952273
0.959799
0.974537
1.00443
1.04274
1.06454
1.07273
1.07496
1.07547
1.07512
1.0632
1.0467
1.04423
1.0526
1.0653
1.08641
1.12694
1.16357
1.1821
1.19303
1.20205
1.20834
1.19782
1.17312
1.16205
1.16523
1.179
1.19706
1.23516
1.29287
1.33854
1.36931
1.39407
1.41114
1.40128
1.38005
1.36335
1.35939
1.36978
1.39774
1.45074
1.48677
3.31084
20.8661
0.688274
0.695659
0.711548
0.725785
0.735209
0.740542
0.742081
0.736247
0.722665
0.717967
0.720833
0.735944
0.761266
0.784183
0.79397
0.799301
0.801238
0.792497
0.768842
0.756421
0.756514
0.759922
0.774138
0.813146
0.847856
0.859114
0.865206
0.868371
0.856058
0.823392
0.809176
0.810494
0.814715
0.822271
0.850026
0.898826
0.921755
0.929792
0.931521
0.918799
0.896387
0.880948
0.876985
0.88011
0.887146
0.900966
0.928716
0.964619
0.983524
0.989233
0.986579
0.982301
0.97978
0.970651
0.964037
0.967244
0.976981
0.985333
0.995765
1.02244
1.04723
1.05958
1.06653
1.0756
1.08532
1.08851
1.07441
1.06529
1.06489
1.06801
1.07532
1.09237
1.13509
1.17251
1.19336
1.20779
1.2214
1.2282
1.20986
1.18641
1.17654
1.17621
1.1858
1.2029
1.24264
1.29831
1.34266
1.376
1.40387
1.42029
1.41644
1.39511
1.37116
1.36016
1.36556
1.39597
1.43996
3.35277
20.9376
0.690382
0.696512
0.715098
0.735512
0.743523
0.747331
0.742806
0.727745
0.71889
0.718814
0.725335
0.744321
0.773361
0.791784
0.800742
0.806751
0.805177
0.78221
0.761962
0.759496
0.762371
0.768144
0.787507
0.826984
0.852049
0.863853
0.869873
0.865883
0.84241
0.82296
0.817719
0.8191
0.824269
0.837361
0.865261
0.896262
0.914774
0.920459
0.91514
0.905775
0.898781
0.89155
0.890811
0.897816
0.91072
0.918765
0.92779
0.945272
0.960886
0.969301
0.975202
0.983482
0.992067
0.997142
0.991268
0.988738
0.988708
0.986568
0.986057
0.993646
1.02107
1.04906
1.06819
1.0855
1.10024
1.11027
1.1063
1.08458
1.06848
1.05987
1.06181
1.0718
1.10017
1.15363
1.19436
1.21917
1.2362
1.24858
1.2467
1.21529
1.18563
1.17494
1.17781
1.18871
1.2097
1.25525
1.31226
1.35758
1.39073
1.41706
1.42445
1.41701
1.39514
1.365
1.34689
1.35442
1.38031
3.37769
21.0088
0.704345
0.716118
0.729171
0.735736
0.740163
0.7345
0.724347
0.720961
0.723111
0.728179
0.744392
0.768192
0.784526
0.794285
0.800711
0.801207
0.7843
0.770563
0.767618
0.768482
0.771826
0.783074
0.811925
0.83626
0.850456
0.85736
0.856505
0.843519
0.832052
0.82736
0.828768
0.834573
0.846675
0.860057
0.874972
0.888766
0.896932
0.898821
0.899799
0.90493
0.908293
0.910436
0.914969
0.922502
0.927171
0.924061
0.920028
0.922537
0.93726
0.955363
0.973272
0.993514
1.0097
1.0187
1.01921
1.00507
0.987935
0.974003
0.972706
0.979176
0.998748
1.0414
1.07924
1.10194
1.11395
1.1223
1.12564
1.10083
1.06605
1.05225
1.05402
1.06305
1.07842
1.1243
1.18771
1.22453
1.24123
1.25371
1.26131
1.24747
1.20842
1.18304
1.17866
1.18656
1.20102
1.22678
1.27398
1.32513
1.36321
1.39041
1.41197
1.41559
1.40836
1.38711
1.35463
1.33158
1.32059
3.36548
21.0981
0.730373
0.736436
0.737891
0.731217
0.71703
0.710873
0.712703
0.717538
0.726511
0.749082
0.779193
0.792174
0.796698
0.799671
0.797021
0.776347
0.763513
0.763837
0.768692
0.775522
0.788847
0.811861
0.832084
0.843453
0.846427
0.843157
0.835634
0.831847
0.831519
0.836355
0.845189
0.858234
0.865295
0.868062
0.870591
0.875888
0.879749
0.883519
0.895277
0.910919
0.925691
0.935456
0.938927
0.935257
0.924286
0.910131
0.905515
0.909033
0.922565
0.954213
0.987177
1.00865
1.01931
1.02701
1.03199
1.01488
0.977237
0.962995
0.965531
0.973426
0.989123
1.03458
1.0869
1.10993
1.12026
1.12775
1.12801
1.11049
1.07447
1.0563
1.0567
1.0645
1.07781
1.10032
1.15219
1.20572
1.23202
1.24538
1.25343
1.25551
1.24295
1.21451
1.19808
1.19803
1.20675
1.22068
1.24236
1.28528
1.32836
1.3588
1.38231
1.40152
1.40656
1.40196
1.37964
1.34084
1.29042
3.30409
21.2002
0.754013
0.758358
0.739595
0.715605
0.699245
0.697749
0.701883
0.710066
0.728791
0.771451
0.798121
0.807649
0.811267
0.807607
0.783935
0.765395
0.761408
0.763977
0.770401
0.786962
0.80681
0.820851
0.833346
0.837699
0.834354
0.829559
0.83345
0.838748
0.844986
0.853329
0.863346
0.870118
0.867549
0.859468
0.854439
0.857542
0.869877
0.888257
0.908755
0.930056
0.943585
0.951207
0.953976
0.936939
0.905619
0.894678
0.897234
0.904369
0.919449
0.962889
1.00585
1.02208
1.02915
1.03398
1.03125
1.00584
0.977144
0.966274
0.968801
0.976443
0.992662
1.02971
1.08136
1.1094
1.11947
1.11911
1.11659
1.11497
1.09962
1.07917
1.07506
1.08199
1.09119
1.09786
1.11056
1.15207
1.20104
1.2286
1.24441
1.25812
1.26883
1.26278
1.2395
1.2198
1.21151
1.21343
1.2242
1.24696
1.28922
1.32931
1.35933
1.38407
1.40046
1.40465
1.39654
1.35906
1.28897
3.2187
21.3062
0.764126
0.772366
0.749862
0.712676
0.70002
0.700428
0.704245
0.717366
0.745314
0.776068
0.8002
0.808217
0.805495
0.790435
0.77897
0.772175
0.771216
0.778908
0.794637
0.805881
0.810039
0.812253
0.813861
0.820324
0.827329
0.833946
0.843146
0.8578
0.86981
0.875618
0.876086
0.868681
0.85279
0.841881
0.842202
0.848445
0.867396
0.904349
0.936076
0.949787
0.956186
0.961023
0.957217
0.923727
0.896553
0.891524
0.895221
0.901694
0.923848
0.974803
1.01205
1.02719
1.03379
1.03072
1.01939
1.00673
0.987929
0.979048
0.983962
0.997316
1.00986
1.01952
1.04768
1.08193
1.09925
1.10791
1.11647
1.1266
1.13477
1.12242
1.10281
1.09491
1.09162
1.08899
1.09249
1.10628
1.15019
1.20673
1.24364
1.26541
1.28204
1.29263
1.28637
1.25579
1.22395
1.21018
1.21385
1.22547
1.25135
1.29934
1.34276
1.37187
1.39061
1.39773
1.39815
1.3742
1.30971
3.14292
21.4037
0.761942
0.759851
0.735651
0.720101
0.711957
0.714833
0.727444
0.744388
0.752874
0.761708
0.77345
0.781416
0.783159
0.78464
0.789405
0.795582
0.801675
0.804998
0.808866
0.810104
0.800688
0.788762
0.788289
0.798832
0.822402
0.848306
0.871903
0.884382
0.890019
0.892018
0.882864
0.853461
0.831951
0.828574
0.8324
0.840795
0.867097
0.919936
0.950829
0.961486
0.96665
0.963353
0.941854
0.918354
0.901436
0.896566
0.901677
0.91676
0.939981
0.969866
1.00264
1.01745
1.01905
1.01354
1.01579
1.01969
1.01608
1.00967
1.00887
1.01145
1.0105
1.00777
1.01084
1.03521
1.07726
1.10629
1.1275
1.14711
1.15961
1.16276
1.13919
1.10715
1.08707
1.07946
1.08102
1.08929
1.10807
1.16205
1.22583
1.26376
1.28269
1.29554
1.29827
1.2868
1.25377
1.22232
1.21137
1.21582
1.22968
1.26334
1.31593
1.35504
1.37641
1.38587
1.38767
1.37777
1.33696
3.10093
21.4942
0.738212
0.737572
0.739178
0.739623
0.743613
0.748819
0.754035
0.757312
0.7518
0.738445
0.737623
0.750966
0.772973
0.794499
0.815434
0.828219
0.832281
0.828509
0.816854
0.79707
0.778451
0.774111
0.777091
0.784549
0.814216
0.866345
0.894049
0.903037
0.907311
0.905196
0.881062
0.844726
0.830257
0.830383
0.834247
0.842993
0.872126
0.922682
0.954107
0.963981
0.961279
0.946264
0.93675
0.92759
0.918443
0.919302
0.928256
0.940583
0.945996
0.949447
0.961553
0.987752
1.00425
1.01393
1.02474
1.03867
1.04976
1.04762
1.03077
1.01423
0.997611
0.989613
0.99283
1.00324
1.04048
1.10047
1.14167
1.16081
1.17246
1.17981
1.17368
1.13369
1.09397
1.07992
1.08129
1.08892
1.10112
1.12564
1.18241
1.23869
1.26681
1.28114
1.28943
1.29056
1.28062
1.25396
1.22926
1.22164
1.22633
1.23909
1.27244
1.32111
1.35166
1.36678
1.37269
1.37033
1.35728
3.10358
21.5829
0.714325
0.730202
0.750337
0.769641
0.778082
0.7795
0.773418
0.756089
0.730438
0.721836
0.723207
0.72962
0.758126
0.809418
0.838714
0.847653
0.85236
0.849754
0.824073
0.783943
0.77114
0.77242
0.776692
0.784594
0.81604
0.872213
0.899299
0.907883
0.910473
0.896814
0.871223
0.85049
0.838503
0.839585
0.850446
0.87058
0.886553
0.905287
0.928116
0.93696
0.935506
0.934801
0.940881
0.948742
0.954992
0.953744
0.951137
0.94801
0.937107
0.926472
0.928138
0.949178
0.990627
1.02389
1.0487
1.06479
1.07313
1.07409
1.05085
1.0109
0.986995
0.982202
0.986852
0.99411
1.01125
1.07345
1.13872
1.1637
1.17381
1.17684
1.17244
1.15782
1.12271
1.09719
1.09341
1.10163
1.11537
1.12683
1.1428
1.1864
1.23037
1.2544
1.26883
1.28078
1.28973
1.28933
1.26714
1.23979
1.2261
1.22614
1.2356
1.26667
1.31163
1.3402
1.35369
1.35644
1.36911
3.15267
21.683
0.702261
0.735445
0.772032
0.786442
0.792128
0.794118
0.780736
0.742306
0.722965
0.722222
0.724945
0.732009
0.766008
0.82059
0.843473
0.851846
0.855742
0.84542
0.811264
0.785407
0.776481
0.777363
0.784102
0.805884
0.83742
0.868163
0.890283
0.896437
0.888361
0.877664
0.874879
0.868321
0.86573
0.870589
0.881493
0.889351
0.889178
0.8818
0.883749
0.904128
0.925725
0.941718
0.958568
0.976469
0.986754
0.987987
0.971636
0.941995
0.91754
0.911508
0.915477
0.925487
0.964137
1.0279
1.06471
1.07865
1.08611
1.08784
1.06915
1.0223
0.991542
0.986111
0.991033
1.00398
1.02548
1.05122
1.09684
1.13622
1.15245
1.15911
1.16319
1.16803
1.16556
1.14588
1.12745
1.12086
1.12037
1.12102
1.12607
1.14056
1.1823
1.22599
1.25318
1.27512
1.29456
1.30484
1.30182
1.27169
1.23571
1.21824
1.21778
1.22476
1.25796
1.30506
1.33398
1.34361
1.36834
3.2303
21.7954
0.713301
0.760418
0.782135
0.790184
0.794883
0.789804
0.759095
0.735364
0.728194
0.728183
0.732263
0.750494
0.790288
0.823237
0.840929
0.847455
0.840697
0.819749
0.803945
0.794277
0.791617
0.797952
0.817287
0.833295
0.840195
0.850024
0.858005
0.862544
0.863777
0.867646
0.879135
0.894992
0.90551
0.906595
0.901906
0.890441
0.868799
0.858576
0.860813
0.875811
0.916985
0.958304
0.985911
0.998777
1.00434
1.00523
0.986841
0.937098
0.912344
0.911305
0.916375
0.924487
0.950338
1.01607
1.06577
1.08107
1.08387
1.07298
1.0592
1.04323
1.01986
1.01045
1.01535
1.02691
1.03622
1.04085
1.04635
1.07426
1.11738
1.14493
1.1603
1.17608
1.19087
1.19571
1.17637
1.14554
1.12304
1.11348
1.11368
1.12134
1.14181
1.19144
1.24105
1.27207
1.29023
1.3023
1.30651
1.29694
1.26282
1.22565
1.20856
1.20891
1.21771
1.25721
1.30564
1.3276
1.36108
3.3153
21.9177
0.740136
0.775502
0.784495
0.790183
0.785906
0.758742
0.740277
0.735748
0.736672
0.741506
0.760698
0.786188
0.805451
0.819663
0.825674
0.820061
0.807529
0.805363
0.808114
0.811061
0.820471
0.83541
0.845694
0.847282
0.834314
0.821112
0.821799
0.836269
0.856376
0.877063
0.901789
0.92128
0.930656
0.933222
0.915512
0.873615
0.850114
0.848004
0.852202
0.861449
0.899803
0.968811
0.999634
1.00949
1.01413
1.0061
0.973421
0.940069
0.920198
0.918149
0.926014
0.946753
0.969267
0.993266
1.02994
1.05225
1.05775
1.0594
1.06382
1.06796
1.06824
1.05673
1.0462
1.04198
1.0366
1.02549
1.02256
1.03081
1.06356
1.12057
1.16518
1.18924
1.20336
1.21279
1.21215
1.18492
1.14278
1.11721
1.11275
1.11868
1.12924
1.15644
1.21439
1.25888
1.28023
1.29139
1.298
1.29898
1.28861
1.25784
1.22454
1.20832
1.20524
1.21514
1.2577
1.29576
1.33962
3.40678
22.0338
0.764871
0.786782
0.789999
0.782085
0.754951
0.738588
0.736402
0.739038
0.74856
0.774
0.792476
0.798685
0.803101
0.804386
0.79828
0.793128
0.794365
0.804179
0.8229
0.8428
0.854808
0.859416
0.856566
0.835582
0.810384
0.803353
0.806452
0.820387
0.859427
0.904366
0.928375
0.936513
0.940471
0.939079
0.906162
0.863529
0.849444
0.850467
0.855039
0.867366
0.908909
0.967926
1.00028
1.00987
1.00537
0.986109
0.970862
0.956401
0.945839
0.946459
0.956411
0.967749
0.973035
0.973725
0.975489
0.997936
1.03095
1.05456
1.0743
1.09554
1.10775
1.10703
1.08424
1.05363
1.02841
1.0151
1.01368
1.01912
1.0303
1.07511
1.14805
1.18878
1.20399
1.21211
1.21417
1.20668
1.1764
1.14139
1.12655
1.12882
1.13891
1.15116
1.17531
1.22372
1.25629
1.27157
1.28211
1.29132
1.29813
1.29436
1.26816
1.23065
1.20644
1.19895
1.20429
1.24325
1.30168
3.49717
22.1221
0.771819
0.787509
0.780809
0.756961
0.743509
0.741476
0.742594
0.754929
0.781937
0.799446
0.804803
0.799541
0.781211
0.771201
0.773055
0.782493
0.799822
0.82579
0.85416
0.869265
0.875678
0.873553
0.844628
0.806654
0.794767
0.796505
0.801863
0.814865
0.868171
0.924378
0.941253
0.947747
0.946142
0.921778
0.888003
0.86582
0.856303
0.858236
0.8712
0.897018
0.920119
0.946548
0.972363
0.981119
0.978611
0.976287
0.98042
0.98532
0.98975
0.986616
0.981354
0.976453
0.964078
0.949339
0.94737
0.956712
0.990293
1.04484
1.09129
1.11666
1.12861
1.13439
1.12426
1.07987
1.03464
1.01658
1.01555
1.0217
1.03615
1.06012
1.1044
1.15904
1.18605
1.19516
1.19711
1.19886
1.19944
1.18684
1.16418
1.14903
1.14333
1.14254
1.14854
1.16825
1.21183
1.24726
1.26995
1.28766
1.30205
1.31014
1.30646
1.27462
1.22495
1.19013
1.17994
1.18352
1.24961
3.56822
22.185
0.76216
0.766243
0.754901
0.749433
0.750467
0.75381
0.771168
0.791323
0.802104
0.806125
0.799916
0.773256
0.755082
0.753518
0.759875
0.781488
0.825317
0.864064
0.878123
0.883108
0.884927
0.865966
0.819606
0.79545
0.79312
0.796554
0.80287
0.830777
0.887624
0.927674
0.943862
0.947205
0.928341
0.902646
0.888736
0.878296
0.877499
0.887555
0.906098
0.917233
0.919753
0.917302
0.920475
0.941019
0.962838
0.980003
1.0018
1.02009
1.02786
1.02353
1.00359
0.974177
0.945904
0.933301
0.934271
0.940018
0.954153
1.014
1.09028
1.12108
1.1319
1.13567
1.12705
1.10358
1.0623
1.03536
1.03114
1.0404
1.05668
1.06727
1.0752
1.09921
1.14091
1.16739
1.18082
1.19253
1.20779
1.2186
1.21118
1.18174
1.15274
1.1353
1.12921
1.13346
1.15525
1.20644
1.25417
1.28301
1.29793
1.3073
1.31135
1.30328
1.26752
1.21308
1.17365
1.15315
1.18491
3.58672
22.2292
0.732814
0.728564
0.737667
0.751076
0.77214
0.796694
0.8106
0.815909
0.816462
0.802933
0.765917
0.743452
0.740728
0.74444
0.753077
0.788374
0.856865
0.886562
0.894737
0.896474
0.878636
0.837169
0.808804
0.798292
0.79742
0.804206
0.830388
0.860357
0.885277
0.910487
0.920717
0.914791
0.901649
0.898852
0.902374
0.907848
0.916728
0.9227
0.925401
0.921437
0.903062
0.887989
0.887741
0.902447
0.941986
0.991771
1.02846
1.04633
1.0539
1.0534
1.02717
0.977452
0.943951
0.934133
0.935941
0.942186
0.961595
0.99676
1.05214
1.09744
1.11336
1.11401
1.10727
1.10504
1.10195
1.08605
1.07211
1.06841
1.06929
1.06677
1.05991
1.06258
1.08477
1.13021
1.1668
1.19312
1.21444
1.22754
1.23385
1.22212
1.1808
1.13961
1.12233
1.12181
1.12782
1.15233
1.21548
1.26754
1.28966
1.29838
1.30437
1.30423
1.29229
1.25603
1.2008
1.15266
1.13692
3.52502
22.2596
0.705681
0.707874
0.723981
0.761583
0.809416
0.83233
0.838082
0.836479
0.822562
0.779671
0.742341
0.7338
0.735843
0.740173
0.75467
0.809239
0.865899
0.890298
0.897376
0.887487
0.853404
0.828442
0.815335
0.81083
0.818951
0.844021
0.866009
0.873635
0.873102
0.866973
0.87018
0.884798
0.897329
0.911423
0.931402
0.949393
0.956068
0.952453
0.936019
0.905559
0.87878
0.870887
0.87377
0.880724
0.911626
0.98675
1.0367
1.05218
1.05922
1.0606
1.04286
0.998773
0.958306
0.94568
0.948857
0.965566
0.987241
0.996175
1.00417
1.02922
1.06524
1.08748
1.09814
1.10876
1.12446
1.13479
1.12688
1.10291
1.07854
1.05848
1.04687
1.04601
1.05377
1.08252
1.1403
1.18956
1.21566
1.22784
1.23449
1.2356
1.21621
1.16734
1.13211
1.1219
1.12313
1.13054
1.16273
1.22367
1.26637
1.28263
1.28894
1.2918
1.29153
1.28322
1.25042
1.1873
1.13099
3.39504
22.2963
0.690174
0.692627
0.710351
0.772797
0.829853
0.845702
0.851485
0.850117
0.815136
0.764161
0.74243
0.73744
0.739855
0.756126
0.791952
0.824678
0.853748
0.870541
0.868535
0.850818
0.837223
0.836725
0.83781
0.847675
0.863158
0.873151
0.876855
0.869318
0.84291
0.828165
0.83056
0.851142
0.893183
0.936517
0.969245
0.982661
0.985729
0.975618
0.937984
0.891735
0.870194
0.868344
0.872336
0.880174
0.9047
0.962226
1.02364
1.04659
1.05051
1.03624
1.02201
1.01515
1.00033
0.986729
0.985358
0.991135
0.996309
0.993333
0.979713
0.97865
1.00055
1.05039
1.09479
1.12397
1.14543
1.15791
1.16361
1.14821
1.10423
1.06295
1.04483
1.04427
1.05066
1.06124
1.10296
1.17236
1.20758
1.21971
1.22526
1.22528
1.22038
1.20323
1.16862
1.14267
1.13393
1.1343
1.13803
1.15987
1.2127
1.25414
1.27159
1.279
1.28537
1.2882
1.28334
1.24077
1.16246
3.25869
22.3606
0.690833
0.693934
0.723543
0.786236
0.830308
0.846656
0.849224
0.829353
0.793621
0.767801
0.753568
0.754159
0.770565
0.802288
0.819456
0.823926
0.822007
0.817256
0.823754
0.834736
0.842556
0.856082
0.879453
0.895305
0.899669
0.895437
0.875776
0.836722
0.813458
0.810851
0.81565
0.828166
0.877161
0.955912
0.989433
0.999578
1.00305
0.991686
0.945491
0.894563
0.873861
0.872617
0.881184
0.908548
0.934155
0.949444
0.97248
1.00059
1.0138
1.01822
1.02373
1.03192
1.04382
1.04625
1.03275
1.0145
0.99559
0.973958
0.959281
0.958093
0.964077
0.992044
1.06467
1.12624
1.15168
1.16229
1.16694
1.16252
1.13637
1.08656
1.0566
1.05207
1.05993
1.07458
1.09441
1.13171
1.17666
1.19851
1.20748
1.21377
1.22039
1.22463
1.2173
1.1905
1.1594
1.13871
1.13017
1.12958
1.14576
1.19804
1.24678
1.27126
1.2822
1.2883
1.29035
1.27331
1.22273
3.18141
22.4588
0.700409
0.719084
0.754693
0.78452
0.810116
0.819387
0.811924
0.795498
0.785457
0.783152
0.784817
0.796773
0.81448
0.824105
0.826018
0.808892
0.782483
0.777398
0.787304
0.8178
0.858091
0.897334
0.920446
0.927045
0.924683
0.908576
0.858674
0.813813
0.803118
0.805226
0.810643
0.826872
0.883799
0.955896
0.990426
0.99939
0.99107
0.963223
0.939303
0.917435
0.901648
0.902966
0.918624
0.935141
0.941057
0.937524
0.926292
0.931672
0.964264
1.005
1.03559
1.06136
1.07918
1.08703
1.08093
1.04651
0.99908
0.96675
0.955875
0.957446
0.963348
0.977476
1.02201
1.10147
1.14296
1.15485
1.15298
1.14227
1.13295
1.11988
1.09769
1.08449
1.08295
1.08566
1.08824
1.09426
1.11856
1.15927
1.18712
1.20469
1.21979
1.23403
1.24306
1.23996
1.20711
1.15935
1.1279
1.11762
1.11632
1.13254
1.19071
1.2474
1.27347
1.28166
1.28593
1.27906
1.26985
3.18421
22.5833
0.733616
0.759961
0.767776
0.771473
0.768247
0.769851
0.780817
0.789057
0.795386
0.809045
0.830564
0.842754
0.846203
0.841446
0.813236
0.773939
0.7601
0.761053
0.767084
0.791538
0.863767
0.92414
0.940811
0.946666
0.942775
0.905159
0.845866
0.815795
0.807759
0.810156
0.827956
0.864543
0.894895
0.925676
0.953138
0.960232
0.954093
0.950058
0.94965
0.950197
0.954427
0.955866
0.954787
0.951196
0.935971
0.909125
0.897781
0.900433
0.914597
0.965727
1.03768
1.07949
1.09568
1.10369
1.10331
1.0807
1.02437
0.977258
0.963081
0.964974
0.980042
1.00461
1.02565
1.05331
1.09495
1.11765
1.12394
1.12812
1.13407
1.14295
1.14924
1.137
1.11353
1.09374
1.08023
1.07236
1.07606
1.09787
1.14536
1.19049
1.22187
1.24024
1.24988
1.25509
1.24652
1.20328
1.14723
1.11531
1.10661
1.10948
1.12794
1.19008
1.24616
1.26761
1.2747
1.26969
1.29304
3.25884
22.7252
0.769235
0.779181
0.773379
0.745263
0.730522
0.733647
0.753032
0.787407
0.823153
0.853228
0.865724
0.867525
0.863519
0.840084
0.788027
0.76121
0.757528
0.760639
0.766602
0.795192
0.872399
0.924818
0.941855
0.944548
0.923758
0.884466
0.853892
0.833398
0.83092
0.84436
0.871998
0.88808
0.891865
0.889256
0.886002
0.900093
0.924391
0.945773
0.969173
0.994792
1.00748
1.00584
0.989817
0.9575
0.91563
0.890735
0.887206
0.891001
0.899108
0.928028
1.0112
1.07831
1.09742
1.101
1.08605
1.06147
1.04065
1.01565
0.999506
1.00104
1.0123
1.02065
1.024
1.02112
1.02762
1.06057
1.09661
1.12063
1.1427
1.16592
1.17794
1.17799
1.15509
1.11271
1.07526
1.05979
1.05881
1.06454
1.0917
1.16036
1.216
1.23739
1.24632
1.251
1.24732
1.23314
1.19154
1.14132
1.11484
1.10888
1.11135
1.12652
1.18378
1.2322
1.25232
1.25105
1.29344
3.3838
22.8666
0.791864
0.789397
0.75325
0.722977
0.717582
0.720495
0.730208
0.77621
0.849964
0.880966
0.888893
0.889194
0.867522
0.811292
0.773828
0.762597
0.76222
0.766471
0.789985
0.828457
0.864594
0.900067
0.913959
0.907514
0.889539
0.878482
0.875906
0.876007
0.882429
0.891091
0.896303
0.896417
0.876243
0.850931
0.846254
0.85562
0.885494
0.940304
0.997685
1.03028
1.04101
1.04271
1.028
0.973692
0.914032
0.89202
0.889953
0.896346
0.919411
0.95274
0.985959
1.03043
1.05957
1.06343
1.05765
1.05685
1.05829
1.06151
1.06158
1.05385
1.04273
1.02917
1.0102
0.994395
0.993856
1.00808
1.05194
1.10901
1.1554
1.17902
1.18863
1.19268
1.18702
1.14571
1.0871
1.06018
1.05695
1.06232
1.07481
1.11328
1.17823
1.21818
1.23144
1.23346
1.22803
1.22883
1.22664
1.19956
1.15763
1.12632
1.11114
1.10714
1.11512
1.1645
1.21295
1.22894
1.28253
3.52576
22.9985
0.799059
0.769663
0.735126
0.723299
0.721023
0.72273
0.731929
0.783626
0.855919
0.884238
0.89238
0.888223
0.847904
0.80273
0.778325
0.770814
0.775402
0.801671
0.8342
0.846498
0.850331
0.850332
0.857355
0.872146
0.881905
0.891338
0.909248
0.927681
0.932778
0.926463
0.911008
0.879843
0.84562
0.830468
0.830423
0.835087
0.849744
0.914525
1.00362
1.03589
1.04551
1.04479
1.01619
0.973795
0.937387
0.915835
0.914851
0.930168
0.953077
0.964219
0.968527
0.968697
0.98177
1.01171
1.03765
1.05695
1.0804
1.10227
1.11059
1.10294
1.07593
1.03621
0.998827
0.983621
0.984361
0.990435
1.0085
1.07825
1.15111
1.17712
1.18567
1.18616
1.17525
1.15744
1.12693
1.09279
1.07939
1.08081
1.08839
1.09672
1.11549
1.16118
1.19665
1.21132
1.21793
1.22477
1.23447
1.23988
1.21894
1.16847
1.12261
1.0973
1.08999
1.09494
1.14759
1.19566
1.26497
3.65942
23.1134
0.788085
0.74158
0.723283
0.723384
0.725842
0.735325
0.766754
0.805286
0.844214
0.867606
0.869457
0.84851
0.823981
0.810037
0.79898
0.800924
0.819034
0.841649
0.850501
0.848572
0.824722
0.805329
0.806198
0.828752
0.87246
0.915795
0.951872
0.967209
0.9704
0.957602
0.91624
0.866777
0.837664
0.830474
0.832343
0.838984
0.866198
0.91337
0.970497
1.01192
1.0227
1.01333
0.994797
0.984112
0.977081
0.971039
0.969093
0.970729
0.972756
0.968909
0.945981
0.929652
0.932142
0.953717
1.00273
1.05954
1.10406
1.1247
1.1326
1.13191
1.1131
1.05723
1.00518
0.987616
0.988159
0.997605
1.01973
1.05528
1.11014
1.14956
1.16162
1.16225
1.15932
1.16186
1.16536
1.15607
1.12978
1.10849
1.09617
1.08821
1.08519
1.0942
1.13599
1.1855
1.21404
1.22995
1.24349
1.2515
1.25194
1.22517
1.16827
1.11141
1.0799
1.07242
1.08459
1.14099
1.2331
3.76073
23.1993
0.785711
0.735681
0.724755
0.726248
0.739747
0.774999
0.796492
0.804955
0.812977
0.818133
0.82256
0.825944
0.829235
0.830442
0.840469
0.854625
0.862402
0.864331
0.856709
0.821872
0.792498
0.78653
0.789853
0.800595
0.847447
0.931867
0.972879
0.984229
0.989026
0.980853
0.936476
0.874184
0.843624
0.837931
0.844238
0.872463
0.901877
0.912323
0.91982
0.938025
0.963074
0.979635
0.987322
0.998605
1.01868
1.0313
1.02754
1.01036
0.986659
0.953261
0.92263
0.913128
0.915605
0.923515
0.953598
1.04109
1.10646
1.12578
1.13207
1.12529
1.10114
1.07174
1.03871
1.01782
1.01663
1.02632
1.0365
1.04243
1.05203
1.08345
1.12
1.14095
1.15364
1.17044
1.18941
1.19894
1.19096
1.15393
1.10947
1.07888
1.06735
1.06554
1.07608
1.12766
1.19276
1.23075
1.24569
1.25105
1.25147
1.24421
1.21369
1.15595
1.10058
1.07196
1.06584
1.07927
1.18105
3.81161
23.271
0.778675
0.745538
0.739826
0.750994
0.77877
0.796574
0.800858
0.794185
0.771856
0.765832
0.778202
0.809447
0.842788
0.876251
0.896322
0.899821
0.893497
0.87488
0.831621
0.789256
0.776007
0.777306
0.782478
0.796115
0.846113
0.927715
0.973558
0.985035
0.978291
0.947745
0.92152
0.899841
0.878984
0.876058
0.889523
0.906477
0.912809
0.909108
0.887838
0.87902
0.893671
0.937276
0.986123
1.02602
1.05644
1.06984
1.07349
1.05594
1.00622
0.951317
0.922425
0.916032
0.918974
0.932407
0.965225
1.01329
1.07108
1.10058
1.10506
1.09553
1.08692
1.08667
1.08565
1.07751
1.0636
1.05327
1.04453
1.03086
1.01965
1.02392
1.0531
1.10512
1.15145
1.18439
1.20538
1.21542
1.22001
1.20376
1.14614
1.08899
1.0641
1.06016
1.06415
1.07955
1.14314
1.21031
1.23537
1.24048
1.23782
1.2291
1.21766
1.20077
1.15879
1.1079
1.07695
1.0554
1.10919
3.78918
23.3105
0.789582
0.780094
0.781239
0.789221
0.796721
0.799626
0.787403
0.758068
0.744185
0.745009
0.752275
0.783056
0.858827
0.915267
0.931281
0.934626
0.924985
0.87898
0.813577
0.784267
0.778017
0.780023
0.796418
0.835791
0.865923
0.891669
0.923521
0.936959
0.932951
0.929825
0.930639
0.931009
0.936528
0.939327
0.936269
0.929229
0.912672
0.880407
0.858947
0.854721
0.85887
0.878853
0.952244
1.03219
1.06503
1.07546
1.07986
1.06955
1.02858
0.973154
0.942044
0.935735
0.945366
0.967592
0.98443
0.991054
1.0043
1.03269
1.05966
1.07386
1.0828
1.10198
1.122
1.12875
1.11675
1.08679
1.04987
1.0174
1.00215
1.00118
1.00753
1.04272
1.12235
1.18399
1.20698
1.21548
1.21894
1.21062
1.18407
1.13028
1.08715
1.07272
1.0758
1.08534
1.09915
1.14551
1.19387
1.21126
1.21409
1.21505
1.21784
1.21826
1.20789
1.16962
1.1158
1.06368
1.04678
3.69246
23.3152
0.808104
0.826545
0.825635
0.815646
0.803847
0.780107
0.751889
0.737324
0.736046
0.739536
0.744982
0.777228