/*--------------------------------*- C++ -*----------------------------------*\
  =========                 |
  \\      /  F ield         | OpenFOAM: The Open Source CFD Toolbox
   \\    /   O peration     | Website:  https://openfoam.org
    \\  /    A nd           | Version:  12
     \\/     M anipulation  |
\*---------------------------------------------------------------------------*/
FoamFile
{
    format      ascii;
    class       surfaceScalarField;
    location    "8.87";
    object      phi;
}
// * * * * * * * * * * * * * * * * * * * * * * * * * * * * * * * * * * * * * //

dimensions      [1 0 -1 0 0 0 0];

internalField   nonuniform List<scalar> 
33852
(
0.000251329
2.24281e-05
-0.000273757
-0.000246121
1.32441e-05
0.000232877
-0.000175603
-7.11591e-05
0.000245625
0.000304053
-0.000163969
-0.000140085
0.00029124
-4.29555e-05
-0.00024991
2.72441e-05
-0.000260681
0.000233437
0.000315703
1.47941e-05
-0.000330268
0.000304277
-9.59564e-05
-0.000208321
0.000286413
-3.50841e-05
0.000201125
1.89779e-06
-0.000205311
0.000289476
-0.000366326
7.69646e-05
0.000361528
-4.58372e-05
-4.39602e-05
0.000263285
-0.000219325
-4.39027e-05
0.000318192
-0.00027446
6.02413e-05
-0.000236405
0.000252057
1.2236e-05
-0.000264293
0.000264853
-1.2796e-05
-0.000278433
3.23121e-05
0.000340621
-5.11025e-05
0.000158593
0.000112308
-0.000270901
-2.44486e-05
0.000303292
-0.000278966
0.000271377
-0.000276165
4.78802e-06
-1.77795e-05
0.000275878
-0.000257775
-0.000223161
1.43869e-05
0.000208773
-0.000153147
-0.000183738
0.00033804
-0.00014267
-6.73031e-05
0.000214719
3.72401e-05
0.000267037
-6.16101e-05
-0.000264106
0.000325523
-0.000214031
1.9358e-06
0.00021227
-0.000204326
-1.86857e-05
0.000142045
0.000137388
-0.000279433
0.000341614
1.93748e-05
0.000142618
0.000128347
-0.000270965
-0.000101136
0.000259729
-0.000250489
-3.78001e-06
0.000254269
0.000330978
-5.97748e-05
-0.000271235
-0.000356101
0.000203224
-0.00022762
0.00021025
0.000231645
3.32081e-05
-5.65602e-06
0.000237301
-8.68439e-06
0.000204989
-0.000232625
0.000259869
0.000315104
-5.74362e-05
-0.000258701
-0.000309093
5.51042e-05
0.000253989
0.00024101
-0.000302778
0.000273589
-0.000306321
3.27321e-05
-0.000180237
-5.49362e-05
0.000235173
0.000272133
-0.000272133
0.000148429
-0.000297473
0.000149045
-0.000211295
0.000216956
-7.18508e-06
-0.000268241
0.000237301
3.09401e-05
-0.000200134
0.000247479
-4.7009e-05
-9.16164e-05
-0.000217477
-0.000114595
-0.00025173
-0.000280169
0.000266113
1.40561e-05
0.000329347
1.18345e-05
-0.000250433
7.01963e-05
0.000117908
0.000145909
-0.000263817
1.34681e-05
-0.000267457
0.000253989
-0.000134569
0.000282997
-0.000151112
-4.98721e-05
0.000202368
-0.000274681
0.000245113
2.95681e-05
0.000237553
-0.000268437
3.08841e-05
-0.000188486
-2.3747e-05
0.000151665
0.000115565
-0.00026723
-0.000183569
-2.77922e-05
0.00021209
0.000263985
2.24281e-05
0.000275941
-2.35201e-06
0.000265329
-0.000250741
-1.45881e-05
0.000222441
-6.39234e-05
-0.000160297
-1.82001e-06
0.000239373
0.000366311
-0.000312716
-5.39136e-05
-2.83061e-05
0.000303733
-0.000274867
-0.000101584
0.000219493
0.000341962
2.4288e-05
-0.000371276
0.000352695
1.80459e-05
-0.000206509
2.21605e-05
0.000308806
-0.000321427
1.22422e-05
-0.000208566
0.000273005
-6.41225e-05
-4.45202e-06
1.70301e-05
-0.000318917
0.000301467
0.000234614
-0.000197306
-3.56748e-05
0.000270265
-0.000339778
7.01417e-05
0.00033392
-6.35414e-05
-0.000268941
0.000236573
3.23681e-05
-0.000129388
-0.000132609
0.000261997
-1.86761e-05
-0.000249565
-1.022e-05
-0.000258721
2.31377e-05
0.000209866
-0.000232788
3.16276e-05
-0.000222042
0.00018718
-2.48699e-05
0.000327728
-0.000301283
-0.000279329
0.000273701
5.62802e-06
0.000156129
-0.000296857
0.000140729
-6.03895e-05
-0.000155146
0.000213136
0.000143277
0.0001218
-0.000265077
-0.000250225
0.000225812
-0.000218258
0.000155632
-0.000168813
0.000327181
-0.000158369
0.000185389
7.16523e-05
-0.000257041
0.000255193
2.07481e-05
-0.000192277
0.000148317
5.0235e-05
0.000265105
0.000306403
-0.000289668
8.8955e-05
-0.000230865
0.000135241
0.000117096
-0.000281065
-1.28829e-06
0.000245556
-0.000244672
0.000166489
0.000122836
-0.000289325
0.000144885
9.05118e-05
-3.92002e-06
0.000259113
0.0003032
5.41379e-06
-0.000323846
0.000315208
9.00742e-06
-3.99002e-05
0.000236293
-0.000196393
4.08802e-06
-0.000284257
-2.57953e-05
0.000165172
-0.000135489
-0.000154191
0.000133381
0.000208276
-0.000179663
-0.000269921
0.000264965
4.95602e-06
2.64041e-05
0.000174721
-0.000201125
2.87841e-05
-0.000257265
0.000228481
0.000276137
-0.000262669
0.000115108
0.000212073
0.00021578
-0.00019219
-0.000175813
0.000202217
1.35853e-05
0.000283258
-0.000296646
0.000269325
2.1702e-05
0.000270496
-0.000283207
1.23339e-05
3.86402e-06
0.000267513
-1.80069e-05
0.00028846
0.000330592
9.9263e-06
0.000213601
-0.000257506
0.000317326
-0.000317239
-6.63603e-06
-0.000272693
2.80861e-05
0.00019412
0.000187993
3.98722e-05
-0.000227865
-5.54208e-05
0.000222784
-0.000166132
0.000153609
-0.000270285
0.000116676
0.000279441
-0.000329701
5.02602e-05
-6.38122e-05
0.000249201
-0.000166909
0.000315897
-0.000148989
-0.000313759
-1.00239e-05
-0.000214929
0.000175029
2.78601e-05
-0.000278349
0.000276221
-1.88441e-05
-0.000248613
1.71722e-05
-0.000301787
0.000284953
0.000344989
-0.000158593
-0.000186397
-1.67931e-05
-0.00024104
0.000257919
-0.000266617
-3.30401e-06
0.000224001
2.45841e-05
-0.000248585
0.000284509
-0.000128381
0.000140197
0.000138853
-0.000279049
-0.000200837
-1.0903e-05
0.000258169
-0.000115551
0.000225754
-0.000242546
-6.38122e-05
0.000251805
-0.000208319
0.000249481
-5.60002e-07
-0.000248921
0.000255109
-0.000237441
-0.000323094
0.000299804
-3.08841e-05
0.000203169
-0.000172285
0.000292164
1.32577e-06
-0.000293584
8.11461e-05
0.000136096
-0.000210623
4.55204e-05
-0.000196506
-0.00028922
-4.54227e-06
0.000293119
-1.59088e-06
-0.00028829
0.000146973
-0.000273925
0.000126952
-0.000263805
0.000220555
-0.000294474
0.000266145
0.000279441
-0.000312425
-1.24114e-05
0.000324881
0.000111147
0.000161569
-2.1399e-05
0.000352263
0.000140141
0.000139833
-0.000279973
0.000245029
-0.000250349
5.32002e-06
-0.000210953
0.000180069
0.000279133
-5.43202e-06
0.000350926
-3.28392e-05
-0.000304201
0.000305242
-3.46727e-06
0.000270985
-0.000270985
-0.000364954
0.000226117
0.000138772
-0.000204175
1.96657e-05
1.69058e-05
0.000275157
-0.000278461
3.30401e-06
-5.29183e-06
0.000172605
-0.000166536
-0.000197345
0.000254801
-5.74562e-05
-0.000203868
4.36762e-06
-0.000237626
0.000159246
8.16876e-05
-0.000180264
0.000261403
-8.11385e-05
0.000256285
-0.000287113
3.08281e-05
-0.000249229
5.18842e-05
-2.32383e-05
0.000276034
-0.00025306
-0.000253547
1.35801e-06
0.000252189
0.000231281
-7.28003e-06
-0.000294244
7.54529e-06
0.00028668
-0.000266085
0.000266085
-0.000284097
-5.50033e-05
-0.000170839
-0.000194139
-0.000173386
0.00022026
-4.51747e-05
-1.232e-05
-0.000239177
0.000251497
3.10801e-06
0.000210113
-0.000213221
-0.000185964
-2.2554e-05
0.000208186
7.61872e-06
0.000294565
-0.000302136
-0.000236153
-1.34401e-05
0.000249593
1.50361e-05
-0.000251189
-0.000241025
0.000256061
-0.000301333
0.000308984
0.000256117
7.16803e-06
-0.000176335
-3.20181e-05
0.000207058
-0.000145237
-0.000134765
-0.000244329
0.000240549
0.000298578
-4.13206e-07
-0.000298147
-0.000298835
5.91657e-07
0.000298249
1.91817e-05
0.000181217
0.000163773
7.70043e-05
-0.000257269
-0.000159242
0.000310908
0.000250721
-0.000108677
-0.000235145
-1.83681e-05
0.000253513
-0.000204583
-0.000126646
0.000331275
-6.10402e-06
-0.000229125
0.000235229
-2.18467e-05
-0.000179868
-0.000286532
-8.5661e-05
6.31625e-06
-0.000300626
-0.000212539
0.000327819
-0.000115221
0.000281597
0.000288205
-5.16322e-05
0.000271993
-1.57081e-05
-0.000188687
-1.4328e-05
0.000202323
0.000297347
4.18979e-07
-0.000297823
-0.0002683
-3.33159e-05
-0.000218821
0.000247605
-2.52512e-05
0.000310527
-0.000285195
0.000184726
7.38482e-06
-0.000187417
-3.42982e-05
0.000220247
-0.000301215
0.00027608
0.000291782
5.83389e-06
-0.000297655
0.000157445
0.00011886
-0.000276305
0.000289754
5.79256e-06
-0.000295028
-0.000243306
0.000113371
0.000125894
-0.000281688
0.000295413
0.000302513
-0.000156857
-0.000145657
0.000207005
-0.000203897
-0.000232009
-0.000121156
-0.000155009
-4.08778e-06
-0.0002941
0.000298173
-1.0136e-05
0.000276249
0.000290297
-2.03293e-05
-0.000270333
-0.000262947
2.89914e-05
0.000233989
0.000271433
-0.000267569
0.000249621
2.95121e-05
0.000315005
-9.75295e-06
-0.000305236
5.00782e-05
0.000160536
-0.000210416
-9.81977e-05
0.000196651
-9.53803e-05
0.000252617
-2.91201e-05
-0.000223497
5.155e-07
0.000291547
-0.000179514
-3.13369e-05
0.00020493
-1.77107e-06
0.000291596
-9.33244e-05
0.000246933
-0.000255417
-5.26402e-06
0.000121184
0.000181329
1.34121e-05
0.000241557
-0.000254969
0.000236097
1.34961e-05
-0.000249593
0.000249509
-0.000242929
0.000256425
6.37071e-05
-0.000203285
0.000138939
-0.000209973
0.000113982
-0.000209625
0.000297256
1.3941e-06
-0.000298641
0.000253849
2.22881e-05
0.000268493
-0.000216441
-5.20522e-05
0.000225518
-0.000246849
2.13305e-05
0.000257909
1.40841e-05
5.82711e-05
0.0002941
0.000267186
-3.89594e-05
-0.000228226
0.000173294
1.274e-05
0.000240297
-0.000253037
0.000195799
-0.00011463
-7.98331e-05
-0.000207753
2.13806e-05
-1.25649e-06
-0.000297701
0.000299133
0.000215142
-0.00016393
-5.14372e-05
0.000344423
-4.12096e-05
0.000275969
-0.000135829
2.31561e-05
0.000238337
-0.000261493
-0.000231141
0.000254297
-2.66888e-05
-0.000229752
0.000256403
0.000157684
-0.000162109
-8.08832e-05
-0.000171745
-0.000261723
4.14346e-05
0.000220288
-3.17521e-05
-0.00022997
7.51025e-06
0.000261717
-3.25193e-05
-0.000229198
1.67573e-05
0.000124123
-0.000191414
0.000308785
-0.000171397
0.000262319
-3.57923e-05
-0.000226526
-0.000319845
0.000186244
-0.00010418
-0.000228453
-6.90203e-05
1.0761e-07
-0.000300531
0.000300148
-2.75082e-05
0.000180969
-0.00015281
0.000308152
6.85488e-06
0.000250097
-0.000248249
-1.84801e-06
-0.000174838
6.14798e-05
0.000260251
-3.07305e-05
-0.000229524
0.000197345
-0.000250769
5.34242e-05
0.000254206
-0.000231206
-2.29991e-05
-0.000252337
0.000240017
0.000144905
0.000102381
-0.000101864
-0.000170269
0.000132496
-0.000261885
-0.000290249
0.0002422
4.80483e-05
0.00021681
3.12465e-05
-0.000248056
-0.000236787
-1.05052e-05
0.000244515
0.000327022
-2.299e-05
0.000263996
-3.42721e-05
-0.000229724
0.000139397
-0.000225574
8.80475e-05
3.63259e-05
-0.000265637
0.000229311
-0.000253905
0.000121296
0.000249817
-5.24722e-05
0.000294673
-0.000154253
-0.000140421
0.000122248
-0.000289157
1.53441e-05
0.000237665
-0.000253009
-0.000262031
3.54705e-05
0.00022656
-2.72834e-06
-3.77917e-05
-0.000224239
0.000248526
-0.000272805
-0.000264649
3.44737e-05
0.000230175
0.000193257
0.000101416
-0.000149941
0.000290137
-0.000176313
-3.80779e-05
0.000212045
-1.81721e-05
0.000263201
-0.000292709
0.000310344
0.000115411
0.000102679
0.000261325
-0.000261325
0.000309121
-2.10128e-05
-0.000289771
5.32002e-07
0.000248949
0.000254857
1.65761e-05
0.000309101
-0.000275847
-3.29908e-05
-2.26336e-05
0.000266577
-0.000243943
3.00077e-05
-0.000260519
0.000230511
-0.000252139
0.000229506
0.00032917
3.11501e-05
-0.000260598
0.000229447
0.000276809
-3.16961e-05
-6.38608e-06
-0.000294398
0.000299819
0.000270682
3.8774e-05
0.000230245
-0.000266617
3.63721e-05
0.000201126
-0.000201943
-0.000258301
0.000238533
1.97681e-05
0.000169762
-0.000257245
8.74835e-05
-0.000209813
0.000163241
-0.000249145
8.59043e-05
-0.000266169
0.000224813
4.13562e-05
0.000253073
-2.78797e-05
-0.000225194
0.000179029
4.33721e-05
-0.000234837
-2.29601e-05
0.000257797
-0.000236377
-2.28761e-05
0.000259253
-1.94265e-05
0.000255969
-0.000236542
-0.000259345
0.000239919
-3.08898e-05
0.000175475
-0.000235929
-2.24001e-05
0.000258329
-0.00025484
0.000229192
2.56481e-05
2.94001e-06
0.000211289
-0.000214229
-0.000267031
3.79849e-05
0.000229046
0.000270677
4.48002e-06
4.07775e-05
0.000157486
-0.000208681
-3.31196e-05
0.000249928
-2.1031e-05
0.000218597
9.73004e-05
0.000248202
-0.000216955
0.000277212
-0.000279468
0.000276922
-0.000282199
-1.84997e-05
0.000258601
-0.000240101
-0.000261644
0.000243145
3.19465e-05
-0.000200403
-3.04025e-05
-0.000207248
0.000237163
0.000315149
-0.000287061
-2.74015e-05
0.000261297
-3.11081e-05
-0.000230189
3.28739e-05
-0.000262362
0.000229488
-0.000229853
0.000259645
-2.97921e-05
0.000325828
-1.76906e-05
0.00014328
-0.000208924
0.000256929
-0.000109956
-0.000286557
0.000287679
0.000241977
-6.41202e-06
-0.000235565
0.000228537
-0.00017404
-3.71337e-05
0.000214092
2.80881e-05
-0.000204474
-0.000239989
0.000260317
-2.03281e-05
-0.00010229
0.00018844
-8.62315e-05
3.06583e-05
-0.000206749
0.000240169
-0.000263424
2.32552e-05
-0.000115584
0.000258861
-0.000243993
0.000265721
-2.17281e-05
-0.000238953
0.000232541
0.000258626
-0.000245105
-1.35213e-05
0.000264349
-2.46681e-05
-0.000246317
-0.000273897
-1.06572e-05
0.000298157
-5.39944e-05
-7.64873e-06
0.000291807
-0.00028664
-0.000171789
0.000205074
0.000230527
1.85198e-05
-0.000248357
0.000328329
-0.000328632
0.000260955
-0.000245018
-1.59377e-05
-0.000301257
-5.60389e-07
0.000305835
9.73279e-06
3.79194e-05
0.000175032
-0.000209302
0.000214767
-3.52438e-05
-0.000179028
0.000278054
-0.000255789
-2.22648e-05
-0.000214872
3.12091e-05
3.15421e-05
-0.000261891
0.000230348
0.000285424
-0.000292042
2.44721e-05
-0.000259617
-0.000257965
1.87881e-05
0.000266057
-1.64361e-05
0.000151173
-0.000267625
0.000116452
0.000299025
-4.44518e-06
0.000238617
-7.53763e-05
2.12521e-05
0.000177045
-0.000198297
-0.000183877
0.000205129
-0.000236275
0.000257219
-2.09441e-05
0.000261462
-3.31689e-05
-0.000228293
-0.000197009
-5.21362e-05
0.000251581
-1.48401e-06
9.09227e-06
-0.000263763
0.000255484
-0.000342032
0.000236601
0.000106545
0.000266371
-0.000236811
-2.95597e-05
0.000306836
-0.00031466
7.81573e-06
-2.57041e-05
-0.000229097
0.000254801
0.000261493
-7.64403e-06
1.0072e-05
-0.000207009
0.000262411
-3.19033e-05
-0.000230508
-6.90483e-05
-0.000260653
-0.000194685
0.000248025
-5.33402e-05
-0.000266533
0.000249985
1.65481e-05
-0.000318045
1.67218e-05
-1.71197e-05
0.000296827
-0.000279853
-0.000276221
1.65481e-05
0.000249537
-0.000167552
6.44573e-05
0.000273714
1.47756e-05
-0.000288524
-0.000316103
0.00030786
8.25555e-06
3.46641e-05
-0.000263649
0.000228985
-1.74791e-05
0.000281247
-0.000315237
1.63993e-05
-0.000176541
-7.42283e-05
-0.000236158
0.000205945
-2.16721e-05
-0.000216469
0.000238141
-0.000314497
0.000295626
1.88385e-05
-0.000132122
0.000272777
-0.000141644
-8.40435e-06
3.31521e-05
-0.000263453
0.000230301
-0.000206511
2.45826e-05
0.00018267
0.0002215
0.000280162
-0.00028053
3.13779e-07
-0.000236993
-2.20921e-05
0.000224813
-0.000202721
0.000139273
0.000143753
-0.000278517
0.000202113
-5.73872e-05
0.000308007
-1.06386e-05
0.000209339
-0.000269135
2.92853e-05
0.00022306
-0.000252345
-0.000322734
0.000139025
0.00029649
2.92181e-05
1.93778e-05
-0.000224355
-2.77845e-05
-0.000135759
-0.000132709
-0.000325975
0.000113626
0.000242873
2.56201e-05
0.000218765
-0.000224869
1.10294e-05
-0.000287914
0.000277285
-0.000243281
0.00026962
-2.71604e-05
0.000281424
-0.000281834
0.000286515
-7.64483e-05
-8.8507e-06
0.000290271
-1.87881e-05
0.000247101
-0.000228313
0.000281497
-0.000290344
-5.61978e-06
-0.000283966
0.000289612
0.000282093
-0.000269805
0.000284547
0.000226314
2.67597e-05
-0.000307136
0.00031775
-8.30781e-06
0.000250618
-2.10431e-05
0.000222281
2.4275e-05
-0.000268913
0.000246057
-2.05381e-05
-0.000259401
3.02849e-05
0.000229116
0.000178305
7.64963e-05
9.96049e-06
0.000281333
-0.000291547
-0.000238141
-2.88401e-05
0.000266981
2.51441e-05
-0.000263285
0.000284117
-0.000162317
-0.000232177
0.000261129
-2.89521e-05
-0.000234697
0.000260709
-2.60121e-05
1.34527e-06
0.000278852
2.45001e-05
-0.000259197
2.38001e-05
-0.000255977
0.000274242
-0.000242924
-3.13394e-05
0.000317885
-1.0019e-05
-0.000306069
-1.59702e-06
-0.000255753
1.1816e-05
0.000243937
-1.52609e-05
-0.000261185
0.000228065
-0.000245337
0.000270145
-2.48081e-05
-0.000263229
1.49801e-05
-2.35768e-05
0.000286328
-0.000262735
2.13641e-05
-0.000266701
-0.000241589
-2.13547e-05
3.27415e-05
-9.0432e-05
0.000260194
0.000280813
-0.000286429
5.05122e-05
0.000237693
0.000282166
-0.000281959
-0.000243181
-2.39401e-05
0.000267121
-0.000260894
7.34723e-06
-0.000295137
1.9265e-05
0.00027518
-0.000268717
2.55361e-05
-8.52878e-06
0.0002905
-0.000268326
0.000243549
2.47773e-05
-0.000232513
0.000210841
0.000280206
-0.000288741
-6.16002e-07
0.000260289
-0.000259673
-0.000301895
-1.61543e-05
-0.000264573
2.35481e-05
-0.00024417
-2.41555e-05
-3.43281e-05
-0.000298082
0.00029397
0.000286674
-0.000158327
0.000296031
-0.000290867
2.30152e-05
4.92275e-06
0.000261988
-0.000255092
-7.0858e-06
0.000307527
-2.0242e-05
-0.00028727
5.97034e-05
-0.000246765
-2.19521e-05
-0.000356124
0.000241794
0.000283262
-0.000277507
2.33801e-05
-0.000187522
-1.56896e-05
-0.00030656
2.57069e-05
0.00028091
-0.000197083
0.000311283
-0.000113623
0.000259841
-0.000238533
-2.13081e-05
-0.000291779
2.94001e-05
0.000222097
-0.000251497
-0.000167733
0.000138456
-0.000164998
0.000251441
-0.000238029
-1.34121e-05
-0.000263873
3.40201e-05
-2.23161e-05
-0.000269837
0.000251469
0.000230427
3.12901e-05
-4.65394e-05
0.000203669
0.000232619
-0.000260499
-1.74074e-05
-3.56547e-06
0.000244637
-0.000243357
-0.000293391
-0.000237049
0.000265189
-2.81401e-05
0.000230096
3.22225e-05
-0.000268521
2.55921e-05
-0.000239905
-2.86161e-05
0.000228954
-0.000260706
-0.00028251
4.73202e-05
-0.000242005
0.000293399
-0.000282959
-0.000288245
1.32518e-05
0.000274746
-4.23972e-06
0.000218951
0.000228551
-0.00026107
0.000296885
-0.0001309
-0.000165985
0.000241515
-0.000261863
0.000271057
-0.000226213
-1.76681e-05
-0.000164778
0.000307295
-0.000142622
2.49649e-05
0.000222662
-0.000247627
-0.000191241
0.000190797
-0.00028374
0.000282507
7.02029e-06
-0.000290755
-0.000302485
0.000146693
0.000155793
0.000259995
-0.000239359
-2.06361e-05
-0.000215741
0.000193649
0.000261636
3.14661e-07
0.000257293
0.000232526
2.168e-05
-0.000294648
-6.17385e-05
1.03701e-05
0.000235514
-0.000249884
1.75578e-05
-0.000230917
-2.37161e-05
0.000254633
-0.000242295
0.000263191
-2.08965e-05
8.23331e-05
0.000133779
2.0225e-05
-0.00030571
0.000285671
0.000256565
-1.80041e-05
-0.000238561
0.000243881
-0.000254017
1.0136e-05
-0.000226745
0.000207957
0.000223131
-0.000258923
-0.000244693
4.76842e-05
1.5984e-05
-0.00013747
-0.000218567
1.57921e-05
0.000245701
0.000280928
0.000293916
0.00030584
1.72127e-06
0.000249817
-0.000220417
2.51749e-05
0.000225009
-0.000250184
-0.000243178
0.000268865
-2.56873e-05
2.28201e-05
-0.000262725
-0.00011227
0.000296747
9.15977e-06
2.08181e-05
0.000261675
-0.000235103
-2.65721e-05
1.31536e-05
-0.000303733
0.0002906
0.000321744
-3.09319e-05
-0.000290805
0.000249733
1.63241e-05
0.000306131
-0.000292991
-0.000229567
-0.000111874
9.63204e-06
0.000250657
-4.9129e-05
-0.00020239
0.000251519
2.20333e-05
0.000246832
-0.000241686
-2.29629e-05
0.000260737
-2.24001e-05
0.000287824
-0.000268023
2.63369e-05
2.68241e-05
-0.000257965
0.000210617
-0.000207677
2.58161e-05
-0.000262865
0.000280265
0.000121744
-0.000256173
0.000134429
1.78704e-05
3.8611e-05
0.00016657
-0.00020675
-0.000239485
-2.85377e-05
3.9995e-05
0.000163596
-0.000198202
-0.000246691
0.000271066
-2.43747e-05
0.000209866
-0.000248826
1.98857e-05
1.73131e-05
-0.000173599
-3.01442e-05
0.000226688
-0.000257414
-2.88401e-05
0.000244245
-0.000215405
-2.16161e-05
0.000242985
-0.000221369
0.000201657
-0.000250786
-0.000273388
-0.000232905
-2.55081e-05
0.000258413
0.000241234
2.98318e-05
-0.000210579
-2.3696e-05
0.000238341
-2.18821e-05
-0.000224967
-0.000239345
6.28042e-05
0.000259004
-0.000229718
4.75106e-05
-0.000249901
-3.43393e-05
0.000257694
-0.000223354
0.000205675
-0.000240014
0.000261689
-1.1956e-05
-6.06763e-05
-0.000229572
-0.000228487
-1.7816e-05
0.000242893
0.000247109
5.3175e-05
0.000212448
-0.000265623
-0.000261098
0.000177353
-0.000231757
5.44042e-05
6.45968e-05
0.000136866
0.000259457
-0.000240915
-2.47224e-05
-0.000265385
0.000227165
3.82201e-05
-2.87813e-05
-0.000222158
0.00025094
-0.00028465
0.000264161
0.000234501
3.61761e-05
2.18821e-05
0.000234087
-0.000307217
0.000151089
0.000156129
0.000172995
-5.20719e-05
0.000254045
-0.000115192
2.56901e-05
0.000217446
-0.000243136
-0.000286165
0.000287369
9.25333e-06
0.000257377
-0.000245953
0.000208937
3.70161e-05
0.000254832
0.000241834
-2.07701e-05
-0.000246815
-2.02161e-05
-0.000263019
2.0724e-05
-0.000269215
2.24001e-05
2.79601e-05
0.000220024
-0.000247984
0.000242481
-0.000274597
1.32721e-05
0.000250653
-1.38476e-05
1.25363e-05
-0.000252076
-0.000328738
0.000124068
-0.000233135
-2.62109e-05
-0.000252113
0.000252113
0.000259782
-0.000144217
-1.84321e-05
-0.000279256
0.000297033
0.000276265
0.000258749
-0.000135913
0.000224113
2.39205e-05
0.00023468
7.86375e-05
-0.000342504
3.79683e-05
0.000258962
1.76363e-05
-0.000248843
-3.00917e-05
0.000207453
-3.01001e-05
0.000259701
2.95429e-05
0.000218353
-0.000247896
-3.05014e-05
-4.09782e-05
-0.000217818
0.000258797
-0.000233423
-2.14173e-05
3.74403e-05
-0.000202671
0.000164907
-3.30877e-05
0.000221671
-0.000255943
-0.000282004
-8.23852e-06
0.000290052
-0.000199703
0.00016598
0.000166349
8.16763e-05
1.26659e-05
-0.000294933
0.000235075
2.59446e-05
-0.000261019
-0.00019888
-1.17273e-06
0.000232743
-0.000264287
3.15449e-05
-8.42803e-06
-0.000217029
0.000225457
-0.000166135
0.000204029
-0.000249985
-3.46025e-05
0.000256274
0.000218076
-0.000252679
-0.000246289
0.000272245
-2.59561e-05
0.000253547
2.78321e-05
-0.000232062
-2.95821e-05
-0.000298369
0.000316594
-1.82164e-05
2.33821e-05
0.000212462
-0.000250254
-0.000267233
2.09441e-05
-2.12801e-05
-0.000245953
-3.61481e-05
0.00024861
-0.000290175
-1.36371e-05
0.00022082
-0.000256968
0.000247278
-0.000251599
1.76713e-06
2.80002e-06
0.000181413
-0.000184213
0.000255294
0.000234529
2.67681e-05
-2.62361e-05
0.000245001
-0.000218765
3.36001e-05
0.000216609
-0.000250209
0.000244861
2.73841e-05
0.000306545
-0.000143949
-0.000162597
1.55288e-05
0.000241088
-0.000255649
0.000271013
-0.000113568
0.000225569
-0.000256677
-0.000241468
0.000104327
-0.000265469
7.16803e-06
-0.000241635
-2.75801e-05
-0.000241361
-2.48081e-05
0.000310587
-2.75578e-05
-7.67483e-05
0.000243097
-1.1452e-05
-0.000215601
0.000224281
-8.68003e-06
0.000255193
-7.68883e-05
3.41919e-05
-0.000200734
0.000161682
-0.000265245
-1.40001e-07
-4.14962e-05
4.02661e-05
0.000165975
-0.000206142
0.000197984
-0.000168126
0.000257041
-7.05603e-06
0.000251151
-0.000218277
-1.81832e-05
-2.1128e-05
0.000277147
-9.23695e-05
-0.000179754
-1.42801e-05
-0.000191913
0.000206193
0.000258665
-1.53553e-05
-0.00024331
1.98101e-05
0.000238855
-0.00027919
-8.13127e-06
3.69988e-05
-0.000189775
0.000155726
1.36921e-05
0.000247997
-0.000154467
0.000192944
-1.95189e-05
0.000248711
3.34976e-05
0.000183043
-0.000214877
-4.17202e-06
-2.49389e-05
0.000265108
-0.000231955
-3.14693e-05
0.000296896
-0.000281766
-1.51308e-05
1.63717e-05
-0.000237659
0.000221288
-0.00010514
0.000226885
1.92715e-05
-0.000305009
0.000285829
2.52001e-05
-2.79441e-05
2.69165e-05
0.000308998
-0.000289534
0.000238891
1.97345e-05
2.15601e-06
0.000231617
-0.000233773
-0.000310167
2.56462e-05
0.000284792
-0.000162177
-0.000144145
0.000209178
-0.000250156
-0.000165351
0.000241924
1.90317e-05
0.000256387
-4.13534e-05
0.000250531
0.000214498
-0.000255851
0.000318282
-0.000319045
-1.06967e-05
0.000286603
-0.00027621
-0.000302695
1.96223e-05
0.000283037
4.20842e-05
-0.000286413
-3.9535e-05
0.000252483
2.62921e-05
-2.2088e-05
0.000307379
-0.000285239
2.43321e-05
3.92348e-05
0.00015491
-0.000196547
0.000249294
-0.000219751
2.83277e-05
-0.000261633
4.36802e-06
-1.99746e-05
0.000306436
-0.000286532
-0.000250987
-0.000266673
3.07441e-05
0.000252141
-0.000236741
-1.54001e-05
1.2264e-05
0.000239877
-0.000275235
-1.26985e-05
0.000255697
-7.297e-06
0.000315852
-1.22467e-05
0.00029849
-0.00028611
-4.76281e-05
0.000247437
-0.000235621
0.000257601
-1.99361e-05
0.000129098
8.40132e-05
-0.000209969
0.000224257
3.03493e-05
0.000226759
-0.000258662
3.71393e-05
0.000271424
-0.000288493
1.69366e-05
0.000251273
-0.000239093
-1.31321e-05
0.000252225
-2.91201e-05
-0.000257265
2.56481e-05
0.000231617
-0.000228005
-2.92601e-05
0.000259765
-0.000233571
-2.61941e-05
0.000258721
-0.000265885
2.32466e-06
0.000290802
1.28236e-06
-0.000292114
0.00025064
-0.000233473
-1.85921e-05
0.00030875
-0.000300878
-7.99325e-06
0.000242571
-9.94018e-05
-0.000266897
2.56761e-05
0.000241221
-3.48881e-05
-0.000232009
-0.000266393
2.51161e-05
0.000241277
-1.23132e-05
-0.000267802
0.000279656
-3.45241e-05
-0.000231869
-0.000261798
1.85044e-05
-0.000266281
2.43881e-05
0.000241893
-0.000284115
-2.15849e-05
-0.000306281
2.76601e-05
0.000278629
-3.34041e-05
-0.000232877
-0.000174198
-0.000258133
2.94001e-05
0.000228733
0.00030872
-0.000308901
-0.000195805
0.000209049
-3.29281e-05
-0.000225205
0.000197443
-0.00027902
8.16478e-05
0.000283869
2.23433e-05
-0.000301953
1.76961e-05
0.000285711
-0.000280774
-4.67948e-06
-0.000257125
0.000231617
2.55081e-05
0.00017505
2.84061e-05
-0.000199594
-0.000266953
2.81681e-05
0.000238785
-0.000227361
-2.97641e-05
-3.67361e-05
-0.000230217
0.000273835
0.000297497
1.91071e-05
-0.000276211
-3.1594e-05
0.000307554
-0.000258679
-1.05461e-05
0.000297349
-0.000286642
1.49806e-05
-0.000302001
0.00028691
-0.000230609
-0.000307574
0.00028731
0.000263005
-2.55377e-05
-0.000280735
1.36081e-05
0.000161467
0.000226674
1.92033e-05
-0.000247711
-0.000204337
0.000161789
0.000236738
1.31517e-05
-0.00024989
-0.00025833
2.66093e-05
0.000231721
-1.09228e-05
0.000247661
5.74002e-06
0.000246877
-3.19817e-05
-0.000226348
0.000299628
-0.000285761
-1.38419e-05
0.000228024
-0.000226666
0.00028989
0.000237685
1.98521e-05
-0.000257537
-1.24236e-05
0.000250108
0.000246636
1.50389e-05
-0.000305621
1.53874e-05
0.00024448
2.18905e-05
3.17991e-05
-0.000198551
-0.000287336
-1.76789e-05
-0.000182869
0.000295177
-0.000155422
0.000189819
-3.41373e-05
3.05391e-05
-0.000193128
0.00016389
-0.000159097
0.000259149
-0.000239236
-1.99137e-05
0.000260695
-0.000274195
-0.000240454
0.000229258
-2.18859e-05
0.000301227
-0.000279323
0.000307804
-0.000292919
0.000242117
1.77241e-05
-0.000224975
0.00024443
-1.94545e-05
1.61001e-05
-0.000241075
-7.00003e-06
0.000260989
-0.000297144
4.87043e-06
0.000292238
-0.000174497
0.000160217
-1.74105e-05
-6.26342e-06
-0.000290917
-1.68208e-05
-0.000285169
4.28402e-06
-0.000298669
0.000134776
-0.000257443
2.37015e-05
0.000233756
0.000238197
1.32441e-05
-3.0817e-05
-0.000226621
-3.29551e-05
-0.000289999
2.05674e-05
-0.000228728
0.000206858
0.000254969
-0.000233465
-2.15041e-05
-0.000199405
0.000219002
-0.000186533
-7.56142e-06
0.000201327
0.000140223
0.000139984
4.0101e-06
0.000271775
0.000279859
-0.000305427
3.33336e-06
0.000241297
-1.98268e-05
0.000298742
-0.000278918
-0.000302246
0.000287455
1.48168e-05
-0.000258301
0.000230077
2.82241e-05
-2.64041e-05
-0.000231897
0.000300145
-0.000301766
0.000267554
-2.00413e-05
0.000304461
-0.000284504
0.000286609
-4.07831e-07
-0.000256873
0.000256873
-0.000268201
0.000295874
-0.000146618
-6.60812e-05
-7.24473e-06
0.000294555
-0.000287302
-0.000297562
0.000290549
0.000291854
-0.00028014
0.000291673
-0.00030635
1.50879e-05
3.50006e-05
-0.00024151
0.000220937
2.20957e-05
-1.44986e-05
-0.000247123
0.000224805
-1.42965e-05
0.000298292
-0.000283859
0.000263481
-1.96001e-05
0.000254224
-0.000235464
-1.87601e-05
-3.10183e-05
-0.00027377
0.000304813
1.43963e-05
-0.00029711
0.00028259
-1.45881e-05
0.000233465
-0.000218877
0.000210741
-0.00029584
0.000283859
-1.92241e-05
0.000304685
-0.000285335
0.00025102
-2.69162e-05
0.000297285
-0.000270383
-0.000295781
0.000268852
1.07156e-05
0.000244749
-0.000255465
0.000305199
-0.000312006
6.79622e-06
1.8587e-05
1.47876e-05
0.000287092
-0.000302366
6.31941e-06
0.000283285
2.38772e-06
-0.000319014
-0.000289421
0.000304432
-0.000242481
0.000243657
8.45603e-06
-0.0002264
0.000242772
-0.00029322
0.000274102
0.000284888
-0.000144521
-8.10973e-05
0.00029462
1.45316e-05
3.14499e-05
-0.000204665
0.000169694
-0.000274399
0.000257293
-0.000219535
0.00024982
0.000243411
1.92865e-05
-0.000262697
0.000236019
2.31309e-05
-0.000300772
0.000282283
0.000312727
-1.80572e-05
0.000237945
-0.000257069
1.91241e-05
-0.000222494
0.000247459
0.000294573
1.8116e-05
-0.000173729
-1.45364e-05
0.000298474
-0.000283972
-0.000143632
-0.000266415
0.000159993
0.000106423
-0.000309146
0.000295462
1.36444e-05
-0.000258699
0.000241826
1.68729e-05
-0.000157382
0.000158019
-0.000306138
0.000288376
1.78224e-05
-0.000212025
0.000178942
-9.69084e-06
0.000253101
2.04533e-05
1.75652e-05
-0.000304218
0.000286845
-0.000300765
-7.10783e-06
0.000308006
-0.000249229
0.000220109
-0.000201153
-8.52603e-05
-0.00027189
0.000252552
0.000304048
-0.00028635
-0.000191901
1.78413e-05
1.50527e-05
0.000284514
-0.000299565
-8.80603e-05
0.000239233
-0.00030377
1.94881e-05
0.00028442
-0.000209113
-2.59707e-06
-0.000297954
-0.000170471
2.05297e-05
0.000302382
-0.00028774
-1.47192e-05
-0.00016664
-0.000299192
-0.000174046
-2.27685e-05
0.000243528
0.000289301
1.71371e-05
0.000252869
5.74929e-05
-0.000284208
-0.000247213
-0.000271053
-2.34186e-05
-0.000274632
0.000300317
-0.00026296
0.000282228
-0.00015809
-4.11526e-05
0.000201122
0.000197569
1.56521e-05
-0.000213221
-1.24821e-05
-0.000285531
0.000297976
1.83597e-05
1.84954e-05
-0.000305715
0.000287282
0.000253345
-1.71361e-05
-0.000236209
1.89417e-05
-0.000304783
0.00028586
2.03561e-05
0.000232989
0.000216385
-2.46121e-05
-0.000191773
1.57727e-05
0.000282385
-0.000298123
-0.000251969
0.000118471
-0.000303946
1.86401e-05
0.000285266
0.000228309
-5.2499e-05
-0.00029735
1.30336e-05
0.00028205
0.000255837
-2.19801e-05
-0.000233857
-0.000303752
0.000106327
0.000234529
1.70521e-05
-0.000251581
0.000280156
1.69491e-05
0.000304212
-0.000285261
1.79237e-05
-0.000299602
0.000233512
1.84916e-05
-0.000252004
-1.89447e-05
-1.42201e-05
0.000298429
-0.000284175
-0.000280322
0.000299979
-0.000278189
0.000289851
-0.000300474
1.03745e-05
0.000249741
-1.62291e-05
1.16412e-05
0.000250041
-1.55121e-05
0.000298486
-0.000282709
3.95922e-05
-0.00023812
2.21481e-05
-0.000253065