/*--------------------------------*- C++ -*----------------------------------*\
  =========                 |
  \\      /  F ield         | OpenFOAM: The Open Source CFD Toolbox
   \\    /   O peration     | Website:  https://openfoam.org
    \\  /    A nd           | Version:  12
     \\/     M anipulation  |
\*---------------------------------------------------------------------------*/
FoamFile
{
    format      ascii;
    class       volScalarField;
    location    "7.9";
    object      p;
}
// * * * * * * * * * * * * * * * * * * * * * * * * * * * * * * * * * * * * * //

dimensions      [1 -1 -2 0 0 0 0];

internalField   nonuniform List<scalar> 
22702
(
1
1
0.869885
1
1.05798
1
1.4718
1
1
0.657537
1.47103
1.47148
1
1.47169
0.885257
1
1
1
1.47099
1
1.47198
1
1.47188
0.658354
1.47089
0.656981
1
1.47091
0.657789
0.658892
1
1.47136
1
1
1
1.43513
1.47105
1.47179
1
1
0.657434
1
1.2293
1
1.47019
1
1
1
1
0.656674
1
0.656443
1
1.47121
1
1.47147
1
1
1
1
0.657842
1
1
0.657873
1
0.658511
1
1
1
0.657422
1
1.47164
1.28316
1
1.47143
1.49686
0.659076
1.47175
0.657728
1
1.47148
0.660658
1.47141
1.47133
1
1
1
1
0.931279
0.657533
1.47254
1
1
0.657157
1
1.47216
0.657183
1
1
1
1
1.22821
1.47152
0.657978
1
1
1.112
1
0.658902
1
1.4718
1.47116
1
1
0.647282
0.647954
0.657622
1
1
1
1
1
0.915022
1
1.40293
1.04295
1.47123
1
1.47142
1.47099
1.47098
1.47158
1
0.657509
1
0.657287
1
1
1
1
1.47107
1
1
1
1
1.47145
1
1.02558
1
1
1
1
0.657799
1
1.0104
1
0.658432
1
1
1
1.47143
1
1.47191
0.646992
0.657737
1.47145
1.47164
1
1.07438
1.2662
1
1.47157
0.657311
1.43623
1
1
1
1
1.4718
1.3943
1
1.47149
0.657798
1.47162
1
0.657289
1
0.657568
0.65695
0.999771
1
1
1.47074
1
1
1.47137
1
1.4716
1.47157
0.660033
1
1
0.658306
1.47132
1
1
1
1.47135
1
0.65736
1
1
1.47143
1.47137
1.47168
1
1.00004
1
1
1
1.47125
1
0.657607
1.48846
1.4714
1.47078
1
1
1
0.645682
1.47119
1.22263
1
1.47333
0.65828
0.658283
1.47333
1.47178
1
1.47096
0.650151
1.41613
1
1
1
1
1.4716
1
1.27788
1.04321
1
1
1.47157
0.657385
0.776915
1
1.47108
0.657008
1.47285
1
1
1
1
1
1
1
0.656214
0.767602
0.657927
1.47123
1
1
1
1
1.41901
1
0.656711
1
0.639676
0.658697
1.47094
0.657916
1.47197
1
1
1
0.997694
0.656855
0.649554
0.999999
1
0.636297
1
1.47095
0.656927
1
1
1.47153
0.646829
1
1.47376
0.657794
1.47159
1
0.646197
0.997709
1
1
1
0.655931
1
1
0.999999
1.00001
1.01001
1.28438
1
0.669344
1
1
1
1
1
1
1
1.47176
1
1.47229
1
1
1
0.659799
1
1.47147
0.657774
1
1.37104
1
1
1.4727
1
1
1
1.46101
1
1
1.4579
1.4723
1
1.09809
1
1
0.657129
1
1
1
0.657278
1
1
1
1
0.658603
1
1
1
1
1
0.657489
1.00007
1.47182
1
0.999978
1.47168
1.47147
1
1
0.66827
0.818141
1.47126
1
1
1
1.47142
0.657526
1
1.47186
1
1
0.711221
0.70628
1
0.657832
0.659689
1
1
1
1
1
1
1
1.47112
1.11241
1.45756
0.658229
0.904348
1.47093
1
1.4713
1.47129
0.657473
0.78319
1
0.656999
1
1.48734
1
1
1
1
1.47142
1
1
1
1
1
1
1
1.16991
1.47161
1
1.47135
1
1
0.660886
1
1
1
1
1.47129
1.35628
1
1
0.657904
1.47148
1.4714
1
1.47144
1.47143
1.47138
1
0.835415
1
1.47132
0.991943
1.47142
1
0.656898
0.99889
1.47149
1
1
1
1
0.658132
1.47082
1.42511
1
1.47261
1.47142
1.47144
1
1.21756
1.47082
1
1
1.32177
1.06351
1.47121
0.93293
1.4712
1
1.47119
1.47117
1.47123
1.4716
1
1.45846
0.909102
0.887542
1
0.999999
1
1
1.47342
1
1
1
1
1
1.47177
1
1
0.99608
1.47138
1.40482
1
1.38984
1.00004
1
1
1.47184
1
0.997179
1.00469
1
1.47158
1
1.47201
1
1
1.34781
1
1.47187
1.00002
1
1.47104
1
1.47129
1
1
1
1.47147
1
1.47451
1.00001
1.47151
1.47118
1.47159
1.4712
1
1.4715
1.46359
1
0.658769
1.44121
1.33526
1
1.47141
1
0.657264
0.657878
1
1
1
1
1
0.65738
1
1.47142
1.11323
1.47178
1
1
1
1
1
1.47112
1
1.47108
1.277
0.784042
1
1.00001
1.13458
1.11772
1
1
1.16144
1
0.656458
1.4713
1.47147
1
1
1
1.47126
1
1.00003
1.47188
1.47096
0.948307
1
1
0.65619
1.42759
1
1
1
1
1
1.47135
1.47154
1
1.47125
1.47419
1.47161
1
1
1
1
0.656958
1.47113
1
1
1.42761
1.47004
1
1.44283
1.47154
1
1
1
1
1
1.47153
1
1
1
1
1.47145
1
1.46973
0.657787
1
0.657965
1
1
1
0.99698
0.659097
0.999043
1
1
1
1.06177
1
1
0.868673
1
1
1
1
1
1
1
0.999997
0.929366
0.999999
1
0.99755
1
0.657797
1
1
1
1
1.3492
1
1
1
1
0.657135
1
1
1.44288
1.4713
0.999999
1
1
0.889489
1
1
1
1
1
1
0.950367
1.00871
1.47151
1
1
1
1.47199
0.896318
1
1
1
1.47165
1.46886
1
1.00001
1
1
1
1
1
1
1
0.658873
1
1
1.47102
0.65697
1
1.47051
1
0.65858
1
1
0.657458
1
1
1
1
1
1
1
1.46195
1.47036
1
1
1
1
1.42903
1
1.14493
0.658052
1
1
1
1
1
1
1
1.03375
1
1
1.23895
1
1
1
1.38385
1
1
1
1
0.657841
1
1
0.647631
0.657696
1
1
1.4713
1
0.98664
1
1
1
1.3251
0.648832
1
0.648405
1
0.78536
1
1
1
1.47141
1
1
1.47153
1
1
1
1.47154
1
1
1.4714
1
1
0.65714
1
1.1447
1
1
1.47119
1.471
1.30911
1.41994
1
0.657295
1
1
1.44968
1
0.657898
1
1
1
1.47185
1
1
1
1
1.27888
1
1.45523
1.47111
0.657342
1
1
0.65896
0.658298
1
1
1
1.33019
1.35479
1
1
1
1
1
1
1
1.19392
1.47117
1.00653
1
1.4658
0.657658
1
1
1
1.25474
1
1.08807
1
1.42928
1.46927
1
0.65696
1
1.47143
1
1
1.47181
1.44151
1
1.47462
1
0.657592
1
1
1
1.47286
1.46179
1.41303
1
1.46989
1.47153
1
1.47238
1
1.46937
1
0.657318
0.97377
0.657669
1
1
1
1
1
1.47155
1
1.47154
1
1
1
1.44727
1
0.657727
1.47161
1
0.657505
0.675226
0.655028
1
1.22548
1.0366
1.47317
1.47161
1
0.999999
1
1
1.47145
1
1
1.47145
1.47151
1
1.1616
1.00001
1
0.996775
1.47147
0.850869
1
0.822315
0.659028
0.656917
0.938526
1.47183
1.46463
1.08991
1.47162
1.47182
1
1
1.47119
1.47108
1.47135
1.47077
1
1.47154
0.658434
1.47465
1.47116
1.47205
1.4748
0.865139
0.897751
0.926465
1.47153
0.958562
1.47145
1
1
1.47341
1.47139
1
0.656858
1.47008
1.47156
1
1.47152
1.47154
1
1.47149
0.6572
1.47351
1.4713
1.47131
1.47573
1
1
1
1.47142
1.3004
0.673403
1.47145
0.649594
1.4714
1
1
1
1
1.47207
1.47163
1
1
1.47146
0.654363
1.47245
0.658032
1
1.46791
1
0.657532
1.47306
0.738977
1
1.47158
1.4743
1.47238
1
1
1.21631
1.47342
0.658433
1.47146
1
1.47167
0.87992
1.47232
0.659952
1
1.47022
0.68904
1.47343
0.659139
1
1.47181
1
1.47164
1
1.27072
1.45325
1.3679
0.646237
1
1.47143
1
1.47171
1
1.47166
1
1
1.47173
0.98208
1.4744
0.657209
1.41614
1
1.3272
1
1.47128
1.47164
1.47097
1
1.42238
1.472
1.43537
1.2849
1.46646
1
1.30676
1
1.47245
1
1.06712
1
1.43598
1
1.47173
1.44839
1.44798
1
1.46584
0.657344
1
0.65795
1
1
1
1.47168
1
1.47211
1
1
1
1.4724
1.46356
1.38414
1.47398
1.47498
0.65774
1.46802
1.47119
1
1.4077
1.47158
1.45123
1
1.47154
1.47153
1
1.47777
1.47174
1.47163
1.47291
1
1
1
1.47175
0.651812
1
1.47157
1
1
0.657895
1
1
1.47156
1.47102
1
1.47146
1.47871
1.47139
0.977166
1.47133
1
1.47138
1.47158
1.37553
1
1
1
1.47366
1.47131
1.47161
0.939224
1
1.47895
1.47146
1.47088
1
1.47159
1.47231
1.47145
1.48019
1
1.47154
1.47084
1.40723
1.47021
1.47901
1
1.47592
1.46585
1.47161
1.47504
1.47071
0.657052
1.4719
1.4705
1
1.47164
1.47161
1.47137
1.47145
1
1.47189
1.4717
1
1.47144
1.39263
1
1
1
1.47076
1.47529
1
1
1.25225
1
1.47115
1
1
1.47178
1.47335
1.47135
1.47171
1
1
1
1.32648
1
1.47156
1
1
1.47125
1.47138
1
1.47163
0.647783
1.47157
1.47322
0.723501
1
0.647047
1.40785
1.47449
1.47205
1.47235
0.658113
1.4721
1.47268
0.65772
0.647523
1
1.47188
1.47182
1
1
1.47164
1
1.47078
1
1.41105
1
1.21479
1.47179
1.47413
1.32436
1.42378
1.4715
1.47237
1.4388
1
0.657845
1.4732
1.47143
1.47693
1.00001
1
1
1.47356
1
1.47132
1.47127
0.758631
1
1.47146
0.999933
1
1.00003
1.00004
1.4715
1.47105
0.998477
1
1
1.47169
1.47353
1.47145
1.47369
1.47206
0.663821
1.39823
1
1.46774
1.47133
1.47152
1.46799
1
1.47146
1.45798
1.47269
1
1.47161
1.47248
0.866149
1.47138
1.47178
1
1.47114
0.83818
1.47148
0.861657
1.47156
1
1.47148
1.482
1.47158
1.47173
1.47139
1.47008
1.47208
1.47091
1
0.922682
1.47146
1.47129
0.837653
1.47162
0.982604
1.29105
1.47133
1.47143
1.47374
1
1.47437
1.30134
1.4706
0.920729
1.47372
1.48053
1
0.871764
1
1.46599
1
1.31812
1
1.4578
0.878393
1
1.47368
1.47131
1
1.47163
1.47339
1.47379
1.47039
1.47452
1
1.47136
1
1
1
0.899447
1.47145
1.47132
1.47245
1.47164
1.47529
1.47261
1.4736
1.47211
0.900616
1.03119
1
1
1.48305
1.47182
1.47157
1.47133
1.00003
1.23551
1
1.47731
1.40844
1
1
0.741784
1.47161
1
1
0.658234
1.47147
1
1.47117
1.47146
1.47153
1.45275
1.4716
1
0.654455
1.11115
1.47168
1.47158
1
1.47137
1.47151
1.2356
1.0093
1.10118
1
1.47169
1.47166
1
1
0.658337
1
1
1.47161
1.47167
1.47275
1.47147
1.47121
1.47603
1.47179
1.47255
1.47111
1
0.996257
1.47163
1.47173
0.996992
1.47157
1.47151
0.658173
0.657246
1.47061
1.47572
1
1
1.00126
1.47137
1.47255
1.47148
1
1.4716
1
0.856537
1.47776
1.47668
1
1.21371
1.47168
1
1.47252
1
1.47151
1.32023
1.47324
1
1.47132
1.47732
0.658025
1.47163
1
1.47193
1.47115
1
0.657887
1.47179
1.38937
0.997614
1.45815
1.47159
1
0.99416
1.47497
0.997989
1.47163
1
1
1.47263
1
1.47509
1.47145
0.996562
1.36619
1
1.47147
1
1
1
1
1.47132
1
1
1.46747
1
1.47175
1
1.29764
1.46954
1.47145
1
1
0.99462
1
1.47148
1.47144
1.47229
1.47163
1.47203
1.47105
1.47163
1
1.47141
1.47184
1
1.47135
1.47165
1
1.47261
0.922575
1.05919
1.47141
1.47152
1.4714
1
1.47166
1
1.4711
1.47139
1
1.47131
1
1
1
1
1.47186
0.653438
0.99789
1
1.47161
1.46957
1
1.47143
1
1.00499
0.657281
1.47141
0.999584
1
1.47087
0.998304
1.4717
1
0.999772
1
1.47191
1.47639
1.47059
1.47121
0.659539
1.4718
1.47072
1.47174
1.11416
1
1
1.19508
1.47128
0.647094
0.658824
1
1.47131
1.47143
1.47034
1
1
1.47025
1.47097
0.999877
1
1.33778
0.648823
1
1.08236
1.47163
1.46946
0.998266
1.47143
1.47997
1
0.999042
1
1.47093
1.47146
1.18805
1
1.44341
1
1.00188
1.47242
0.657654
1.47095
1.4715
0.996991
0.999912
1.40647
1
0.999691
1
1.4724
1
1.00001
0.64659
1.47163
1.00001
1
1
1
1.47249
1.26067
1
1
0.658313
1.4715
1.26192
1
1
1
1.44869
1.4657
1.47203
1
1
1.47032
1
1.47158
1.4713
1
1
1.47331
1.47158
1.44892
1
1
1.47348
1.47275
1
1
1
1.47279
1
1
1
1.47154
1.471
1.47415
1
1.47114
1.00003
0.706188
1.47119
1.47124
1
1.47448
1.45543
1.4718
1
1
1.47528
1
1.2514
1.47102
1
0.657837
1
1.47358
1
1
1.46933
1
1
1
1.144
1.4707
0.687188
1.00001
1.47291
1
1
1.47224
1
1.47533
1
1
1.47162
1.47163
1
1.00005
1
1
1
1
1
1
1.4752
1.47157
1
1.47121
0.657609
1.47805
1
1.47113
1.4744
1.4717
1.47497
1.47302
1
1
1.46987
1
1.28873
1.47622
1.47158
1
1.47423
1.46653
1
1.42261
1
1.47105
1.30195
1.4699
0.997514
1.46673
1.4275
1.47271
1.47229
1.03744
1.47148
1.47504
1
1.47156
1
1.47156
1
1
1
1
0.996286
1.47144
1.47143
1.40178
1
1.47449
1
1
1
0.648576
1
1.46003
1
1.42664
1.45638
1
1
1
1.43346
1.47138
1
1
1.47269
0.658477
1.07567
1
1.47581
1.47129
1.42846
1.45927
1.47126
1
1.47048
1
1
1
1
1.47008
1.472
1
1.45928
1.05525
1.47142
1.43917
1
1
1.44021
1
1
0.658306
1.32373
1
1
1.47379
1
1.47546
1.42807
1
1.42713
0.658027
1.47187
1.47135
1.4723
1
0.658081
1
1
1
1.47155
1.39435
1
1.47181
1.47143
1
1.47169
1
1
1
1
1.47146
0.999354
1
1.47348
1
1
1.47174
1.47146
1
1.47573
1.08528
1.00002
1
1.47204
1
1.47216
1
1.01314
1.47138
1
1.47151
1
1
1.14037
1.47136
1
1
1
1
1
0.996475
0.657567
0.658054
1.02035
1
1.02395
1
1.0258
1
1.47131
1
1.27802
1
1.47164
1
1
1
1.47167
1
1.37554
1.47107
1
1.24375
1.47208
1
1
1.47166
1.47122
1
1
1.05329
0.646347
1
1.4727
1
1
1
1
1.07739
1.47131
1
1
1
0.657812
1
1.47159
1.47107
1.47644
1
1
1
1
1.22952
1.47328
1
1
1
1.47471
1.47127
1.05227
1
1
1
1.47182
1.47135
1
0.65764
1.47125
1.47172
1.4706
1.47053
1.47425
1
1
1.47035
1.47115
1.47144
0.658115
1.04039
1.47155
1
1
1
1
1
1.47145
0.658161
1
1
1.47142
1.20795
1
1.47106
1
1
1
0.657453
1
1
1.12039
1.47123
1.47166
1
1.47096
1.47495
1
1.07391
1
1.47187
1
1.47151
0.659614
1
1
1
1
1.47166
1.00007
1
1
1
1.45287
1
1
1
1
1.47105
0.657008
1.36721
1.47453
1
1.47175
1
1
1
0.997134
1
1.47594
1
0.809831
1
1
1.00004
1.47212
0.657073
1
1.47011
1
1.47367
1.47137
0.657439
1
1
1.45079
1
1
0.657664
1
1.46691
1
1.44994
0.999317
1.47058
1
1
1
1
1.47169
1
1
1.4717
1
1
1
1
1
1
1
1
1.30546
1
1.1479
1.47071
1
1
1
0.657042
1
1
1
1
1.47036
1.47144
1.0549
1
1
1.4728
1
1
1.4715
1
1.00002
1
1
1
1.00001
1.47131
0.789576
1.47153
1.47351
0.997136
1
1
1
1.27304
1
1
1.47258
1.47147
1
1
1
1
0.65705
1
1
1
1.29582
1
1.47155
1.47505
1
1.47289
1
1
1
1.25005
1
1.47122
1
1.47135
1
1
0.996269
1.47122
1
1
1
1
1
1.47318
1.00002
1
0.657923
1.47114
0.65804
1
1.47448
1
0.996029
1
1.47264
1.47034
1
1.47309
0.875295
1.47163
1.46738
1.00003
1
1
0.656712
1
1
1
1.47149
1.26949
1.47407
1
1
1
1
0.996842
1.47262
1
0.660203
1
1
1
1
1
1
1
1.4788
1.47077
1.47489
1
1
0.996911
1
0.980908
1
1
1
0.65719
0.980841
1
0.655633
0.657026
1
1.47228
1.47162
1
1.47225
1.47136
0.658309
1.32256
1
1
1
0.660577
1.47139
1
0.657835
1
1.47298
1.07916
1
1
1
1
1.47164
1.47148
1
1
1.47147
1
1
1.47183
1.47176
1
1.42866
1.47169
1.47168
0.966421
1.47284
1.00886
0.6583
1.3589
1.47177
1
1
1
0.657026
1
0.657239
1.47145
0.963004
1.47144
0.954257
1
1.47053
1.20976
1
1
1.47118
1
1.18845
1.47011
1
1
1.46838
1.47792
0.657899
1.26887
0.999895
1
1.28182
1
1.47045
0.939349
1.48103
1.4722
1
1
1
1
1.45548
1
1
1.4708
0.99964
1.4712
1.38741
1.47278
0.659498
1
1
1
1
1.47133
1.00004
1.4716
1
1.47211
1.47172
1.05834
1.47285
1.14063
1.47174
1
1.31701
0.679756
1.47165
1.47114
1.36861
1.07788
1.47162
1.4716
1.47128
1.47208
1
0.916436
1.06538
1
1.47132
1.21818
1.4715
1.00003
1
1
0.69172
1.47193
1.47138
1.37908
1
1.17381
1
1.47414
1.47453
1
1.47215
1.47131
1
1
1
1.47281
1
1.18472
1.47439
1.32207
1
1.47101
1
1
1
1
1
1
1
1
1
1
0.674671
1
1.43694
0.657514
1.27151
0.998562
1.47015
1
1.24173
1.00001
1.29938
1.39823
1
1.00221
1.47539
0.910784
1
1.47366
1.45618
0.940941
1
1.47042
1.4712
1.47402
1
1.47124
1.47186
1.47402
1
1.2096
1
1.00006
1.47134
1
1.4722
1.06704
1.47283
1
1
1.47347
1.4739
0.689294
1
1.47176
1.35082
1.47048
1
1
1.4714
1.47495
0.99824
1
1.4335
0.996895
1.47161
1.00004
1
1
1
1
1.20936
1
1.35527
1.47058
1.34769
1.4701
1
1.00347
1
1
1.47167
1
1.47446
1
1
1
1
0.999999
1
1.05486
1.23978
1
1
0.657635
1
1.46966
0.677913
1.47378
1
1.23582
0.999752
1.47169
1.29581
0.662477
1.25419
1.00003
1.47172
1.47405
1
1.28182
1.47073
1.47187
0.998407
1.4766
1.45788
0.656645
1
1
0.997206
1
1.4693
1
0.665158
1.46988
1
1
1.41517
1
1.47092
1
1.47136
1
0.682827
1
1
1.47327
1.47558
1.47028
1
1.47086
1.47165
1.46638
1
1
1.46876
0.999999
0.741029
1
1
1
1.47172
1
1.47151
1.30339
1.47268
1
1.47153
0.999376
1
1
1
1
1
1
0.713106
1
1
1.47154
1
1.4725
1.47137
1
0.665645
0.658497
1
1.47314
1.076
0.658275
0.634594
1
1.47134
1
1.47021
0.658544
1.0013
1
1
0.99951
1
1
1
0.999915
1.18942
1.47175
1
1
1.47258
1.27462
1
1.41946
1.46977
1.47149
1.18972
1.46644
1
1.4716
1
1.45699
1
1.46945
1.47227
0.997024
1.47177
1.47407
1
1
1
1
1
0.919198
1.47148
1.00004
1.00003
0.657315
0.999985
0.657547
0.653196
1
1.47132
1.47201
1.47139
1
1.47139
1
0.660531
1
1
1.47178
0.827651
1.47052
1
1.47293
1
0.982767
1.47184
1
1
1
1.47066
1
1.47194
0.658271
1
1
1.27031
1
1
1.25373
1
1
1.47177
1
1
1
1
1
1.47098
1.47118
1
1.47088
1.47218
0.66002
1.21103
1.47118
1
1
1.42296
0.999013
1
1
1.47139
1.47305
1.3032
1
1.47129
0.672185
1.44519
0.999346
1
1.4704
1.00003
1.47247
1.3892
1.3562
1
1
1.47122
0.717976
0.657278
1
1.47146
1
1.4709
1
1.27605
1
1
1.47042
1.29891
0.660492
1
0.998296
1
1
1.02591
1.18809
1.4713
1
1.47403
1
1
1
1
1
1
1.06744
0.657797
1
1
1.03471
1
1
1
1
1
1.47258
1
1
1.47146
1.47143
1.34013
1
1
1
0.835675
1.47494
1.32393
1
1
1
1
1.47148
1
1
1
1.47115
1
1
1.33609
1.48741
1.03373
0.752569
1.46964
1.32915
1.47048
1
1.23199
1
1
1
0.657808
1.00268
0.65682
1
0.658724
0.645576
1
0.65929
1
1
1
1.20474
1
1.47138
1.47235
1.0014
1.22508
1.39363
0.657265
0.768976
0.882989
1
1.47119
1.47145
1.47126
1.47164
1.4028
0.870906
1
1.40572
1
1.45894
1
1
0.996428
1.01107
1
1
1
1.47107
1
0.657628
1
1.47262
0.65748
1
1
1.4716
1
1.47131
0.999173
1
1
1.47246
1.42652
1
1.48693
1
1
1.01487
1
1.20927
1
1
0.659345
1
1
1.4699
0.999999
1.47258
1
1.00003
0.657336
1
1
0.6578
1.00089
1
1.47202
0.657724
1.47465
0.659805
1.47157
1
1
1
1
1
1
1
1
1
1
1
1.45137
1
1.4735
1.47162
0.657905
1
1
1
1
1
1
1.45791
1
1
0.660854
1
1
1.47183
1
1
1.17162
1.3926
0.657572
0.657853
0.70618
0.742933
1
0.996524
0.656997
1.0003
1.44198
0.99693
1
1
1.47142
1
1
1
0.770626
1.00001
1.16416
1
1
1.18955
1.47184
1
0.658089
1
1
1
0.996711
1.00001
1.47059
1.47151
1
0.660054
1
1.25074
0.658723
1
0.883605
1
0.995984
0.645193
1
1
1
0.996144
0.657079
1
0.658212
0.998409
1.24391
1.42188
0.658075
0.657264
1
0.991114
1
0.998641
1
1.47058
1.47207
1
1.01231
1.47121
1.47119
1
1
1.47149
1
1
1.00004
1
1.47525
1
1
1.01809
1
0.998587
0.70163
1
1
1
1
1
1.47117
1.0341
1.00005
1
1
1
1
1
1.00003
1
0.660154
1.10172
0.998618
1.4525
1.47075
1
1.01686
1.47116
1.40766
1
1
0.655489
1.47155
1
1.4716
1
1.4724
1.309
0.657434
1
0.658703
1.43288
0.999681
1
0.657771
0.657843
1
1
1.3952
1
0.999998
0.652442
1
1
1
1.15136
1
0.65818
1.47006
1
1
1
1
1.47205
1
1
1.47457
1.42035
1
1
1
1.47603
0.654531
1
1.47093
1.47161
1
1.37426
0.999999
1.00003
1
1
1.4364
1.01271
1
0.656967
1.24601
1
1
0.997417
1
1
1.46955
1
1
1.00003
1
1.47144
1
1
1
1
1
1
1.00001
1.20094
1
1.47192
1
1
1.47318
1
1
1
1.47137
1.47033
1.04654
1
0.997642
1
1
1
1
1.47142
1
1
1.47156
0.659022
1
1
1
1
1
1
1.3779
1
1
1.47058
1.47182
1
1
1
1.47098
1.47012
1
0.999647
1.46962
1
1
1
1.00002
0.657845
1.02987
0.996233
0.996223
1
1
0.657108
1.47153
1
0.659413
1
1.47249
1.45151
0.657143
0.999406
1.47142
1.47122
1.47116
1
1
0.924474
1.43208
1.3864
0.659158
1
1
1
1.47282
1.47171
0.654976
0.997314
1
1.4716
0.658018
1
1.46094
0.659449
0.97332
1.0068
1
1.47308
1
1
1
1
1
1
1.00011
1.43789
1
1
1.46989
1
1
1
1.47147
1
0.65937
1
1
1
1.16022
1
1
1
1
1
0.788056
1
0.657876
1
1.47134
1.00007
0.862624
0.874021
1.00002
1.00367
1.2429
1
1
0.658041
1.47116
1.47138
1.47157
1
0.650863
0.653504
1
1.47162
1
1
1
1
1
1.00003
1
0.658982
1.29855
1
1
0.657392
0.985204
1.00001
1
1
1
0.644766
1
0.691836
1
1
1.47689
1
1
0.65834
1
1.47154
1
0.657539
1
0.659398
1
1.00741
1.47241
1.48482
1
1
1.47176
1
1
1.10033
0.996804
1
0.998139
1
1.47402
1
0.657758
1.00002
1.4707
0.99889
1
1
0.795612
1
0.999023
0.654738
1.47172
1.16793
1
1.00001
0.905409
1
1
1
0.790842
1
1
1
1.47147
1
0.657635
0.999999
1
1
1
0.653333
1.47145
1.44229
0.657551
1
1.47688
1
1
1.47166
1.47184
1.39469
0.652744
0.997758
0.999236
1
1.47147
1
1
1
1
1.47297
1.00004
1
1
1.4697
1
1
1.47179
0.659996
1
1
1
0.660036
1
0.999999
0.999999
0.998657
1
1
1
1
1.35873
1
1.47194
1.47091
1.48111
1.47157
1.47271
1.47175
1
1.47212
1
1.47137
1.47162
1
0.99885
0.65981
1.40144
0.999888
1
1
1
1
0.998181
1
1.07113
1
1
1
0.84676
1.47179
1.47185
1.47571
1.40831
0.999875
1
1.02255
1.47263
0.997915
1.0579
0.997068
0.658344
1
1.00002
1
1
1
1
1
1.47188
0.657616
1.47192
1.47166
0.994858
0.656772
1
1
1
1.47063
0.657962
1.41439
0.649987
1.4713
1.47542
0.659304
1.47088
1.02507
1
1.47476
0.796351
1
0.998772
0.656857
1
0.658534
1
1.47187
1.47143
0.754444
1
1.47218
0.658401
1
0.659701
1
1.47162
1
1
1.46217
1
0.836673
1
0.999694
0.658524
1.4695
0.999487
1
0.657547
1
1
1
1
1.2557
1
1.47103
1
1
1.48852
1
1
1.47116
1
0.658134
1
0.657212
1.00001
1
1
1
1
1.45068
1.27342
1.47144
1
1.47148
1.4376
0.644174
0.656681
1
1
1.47027
1
0.658647
1
0.984209
1
1
1.47138
1
1.47084
0.658333
1.48573
1
0.657006
1
1
1.47315
1.46967
1
1.00004
1
1.47564
1
1
0.651892
0.999362
0.657728
1
1
1
1.47329
1.47031
1.47138
1
1
0.658677
1
1.47533
1
1
1
1.45781
1.47175
1.47162
0.65844
1.4738
1.47139
0.661256
1.47146
1.00004
0.660824
1.01169
1
1
1.47081
0.657849
1.29439
0.657173
1.47137
0.997432
0.65427
1.4736
1
1
1
1
1.47121
1.4718
0.659781
1
1.00002
0.659204
1.00004
1
0.660611
0.657578
1.32651
1.47103
0.998472
1.47157
1
1.47523
0.822628
0.657864
1.4716
1.48014
1
1.47189
1
1
1.47144
1
1.35877
1.47157
1
1
1
1
1.47146
1.46574
1.47014
1
1
1.46995
1.47137
1.47163
1
1.47144
1
1
1
1
1
0.658378
0.840387
0.65848
1
1
1.47212
1
1
1.47208
0.646579
1
1.47135
1.46598
1.45016
0.64781
1
0.658482
1
1.00003
1.4718
1.22463
1.47144
1.42996
1
0.659401
1
1.46986
1.33378
0.657366
1
1
1
0.807437
1
1
1.47952
1
0.657957
1.47143
1
1
1
1
1
1.37611
1.10353
1
1.47094
1
1.47298
1
0.997503
1
1.47215
1.47266
1.47159
1.47577
0.999577
1.47131
1
1.47137
1.47156
1.397
1
1
0.657251
1.47153
1
1
1.47535
1.47169
1.47203
1
1.4719
1
1
1.00003
1.47234
1.46937
1.134
1.10028
1.47184
1.47185
0.695454
1
1
1
1
1.00002
1.16492
1
1
1.38247
0.657739
0.999966
1
1.47145
0.99989
0.999807
1.06787
1.42174
1.47139
0.909199
1
0.657767
1
1.00014
1.47185
1.47428
1.46742
0.999041
1
1
0.657479
1
1
1.47183
1.04904
1
1
1
1
1
1
1
0.999939
1.47213
1.00002
1
1
1
1
1.2915
1
1.21955
1
1
1.47138
1.47674
0.656449
0.998802
1
1
1
0.659608
1.47138
1.47168
1
1
1
1
1
1
1
1
1.47148
1.4696
0.657623
1.05048
0.659043
1
0.652651
1
1.4717
1.1305
1
1
0.714166
1
1.45074
0.812118
0.996904
0.654519
1
1
1.47134
1.00004
0.997222
0.641223
1.4716
1.4809
1
1
1
1
1.43915
1
1
1.47132
0.998958
1.4719
1.00005
1
1
0.657083
1
1
1.47198
0.654779
0.777412
0.658749
1.47144
0.999304
1
1.47584
0.657875
0.657382
1.01244
1
1
1.47141
1.00004
1.20557
1
1
1.47165
0.659454
1
1
1.00013
1.47189
1.00012
1.45679
1
1.00003
1
1
0.725312
1
0.785674
1.00002
1
1.47355
0.657845
1
0.784166
0.811668
1
1
1.4723
1
1
1
1.47198
1.47116
1.00005
1.46882
1.47115
0.785643
1.47142
1.4472
1
1
1.46804
0.999999
1
1
1
1
1.47204
1.47132
1
1
1
1.472
1.0002
1
0.658093
0.720095
1
1.00003
1.16989
1
1
0.892094
0.657802
1
1
1
1.47639
1.43108
1.47156
1
1
1
1
0.657674
1
1.45648
1
1.4674
0.659491
1.47027
1
1
1
0.659413
1
1.47215
1.00003
1
0.657122
1.16887
1
0.999656
1.4677
0.647739
0.657873
1
1.47202
0.648969
0.65769
1
0.658177
1
1
1
1
0.657511
1
1
1
1
1.47046
1
1.35854
0.657857
1
1
1
0.658645
1.47166
1
1
0.996716
1.46222
1
1.47145
1.47117
1
1
0.718669
0.657945
1
1
0.657292
1.14376
1.21535
1
1
1.47196
0.997382
1
0.997522
1.4719
1
1
1
1
1
1
1.47235
1
1.16271
1.15003
0.6989
1.41543
1
1.47118
1.47174
1
1
1
0.912873
0.657914
1
1.22181
0.999658
1.40602
1
1
1
0.999999
1
1.00651
1.20962
1.47274
1.4716
1
1.47175
1
0.656993
1
0.99752
0.999773
1
0.653383
1
0.658189
1.00002
1.47494
1.47104
0.659283
1.47706
0.659313
0.996155
1.35777
0.659077
1.33494
1
1
0.998416
1
1
1
1.00006
1
0.65838
1
1
1
1
0.999594
1.47147
0.805193
1
1
1
1.03752
1
1
1
1.26111
0.756241
1
1
1
1.04398
1.47156
1
0.65745
1
1.47331
0.895982
0.658241
1
0.654842
1
1
1.44526
0.998227
1.43534
1
1.0089
1
1
1.47168
1
1
1
1
1.09427
1
1.47173
1.47315
1.47138
0.657383
1.47182
0.997081
1.38196
1
1
0.648261
1
1
0.657486
1.47387
1
1
0.999954
1
1
1
0.642979
0.658
1
1.47157
1
1.21609
1.4714
0.659109
1.39227
1
1
0.669083
1
1
1.4716
1.47179
1.1695
1
1
1.00176
1.47132
0.65756
0.657619
1.4719
1.47131
1.31997
1.18239
1
0.896681
1
1
1
1.44967
1.47674
1.4723
1
1
1.47126
0.658964
1.42805
0.63575
1
0.658042
1
0.657992
1.47119
0.641326
1
0.983119
0.688256
1
1
1
0.845409
1.4361
1.47159
1.47166
1.47159
1
1
1.47148
1
1
1.47221
1
0.658488
1
0.657644
1
1.47157
1
1
1.0252
1.35789
1
0.998904
0.659109
1.47179
1.00001
0.656836
1.08911
1
1
1.36087
1.47095
1.47196
1
1.47038
1.12017
1
1.02392
1.47133
1
1
1
1
1.47134
1
0.657544
1.47264
0.659613
0.658679
0.824945
1.4704
1.16319
1.47112
1
1.47147
0.997486
1.00003
1.47157
1.47155
1
1.47155
1
1.47133
1
1.47163
1
1.00004
1.00001
1.47264
0.653511
0.657479
0.997894
0.999999
1
1
0.656764
1
1.30526
1
0.646464
1
1.18114
1.4713
1.46984
1
1
1.00003
0.999353
1
1.47169
1.47111
1
1.1922
1.47092
0.846542
1.47142
1.00018
0.651399
1.10018
0.658982
1
1
1.07726
1.47163
1
1
1.04112
0.998552
1
0.658047
1
0.784754
1
1.47014
1
1
0.657831
1.10472
1.06634
0.998506
1.47073
1.47141
0.77575
0.998081
0.659099
0.658028
0.657772
1
1
1
0.999052
0.727924
0.656824
1
1.47134
0.999748
1.47153
1.47208
1.47103
1.47184
1
0.657815
1.47167
0.654014
1
1.47218
1.47547
0.996692
0.814699
1.47215
1.33064
1
0.660099
1
1
1.4709
1
1.02705
1.4715
1
0.658783
0.657476
1
1
0.650777
0.647262
1.47163
1.00004
1
0.647198
0.647428
1.47141
1.45558
1.43891
1.47192
1.12859
0.984049
1.18681
1.47515
1.36416
1
1.23738
1
0.648141
0.864817
1
0.657798
1.47184
1.0221
1.47301
1
1.47136
1.47155
1
1.47145
1.47162
0.657487
1.47508
1
1.4819
1
0.741067
0.657287
1.47124
1
1
1
0.656809
1.47153
1.47272
1
0.65704
1
1
0.658431
1.00004
0.641068
1.47172
1
0.824735
0.651615
1
1
1.26738
1
1
1
1.07719
0.657224
1
1.00001
1
1.47279
0.658124
1
1.47168
0.658118
0.657568
1
1
1.47615
1
1.4707
1.00001
1.4714
0.660064
1
1
0.65782
0.813569
0.65679
1
1
1
1
1.47394
0.650256
1
0.657005
1
1.47701
1
1
0.932359
1
1
0.817889
0.999683
1.00005
1
0.65931
0.658797
1
1
1
1
0.801466
1.46972
1.47169
1
0.65806
0.659123
0.90812
0.65874
1
0.820635
1
0.657913
0.986004
1
1
0.658948
1
1.47033
1.45884
0.657074
1
1
1
1.46805
1
1.04436
0.835252
1.14858
0.657977
1.1819
0.656656
1
1
0.719131
0.905041
1
1.04346
1
1
0.658532
1
0.939763
1.0492
0.657517
1
1.37653
0.757569
0.88047
1
1
1
0.657632
1
0.656875
0.657702
1
0.853846
0.65703
1.06918
0.745858
0.646565
1.47159
1
1.47151
1.25362
0.725501
1.47149
0.657331
0.999019
1.47219
0.999999
1
1.47136
1
0.718735
1
1.06914
1
1
1.47159
1
0.771372
0.813494
1.47167
0.937164
1
0.755342
1.4716
1.47158
0.903137
1
1.47138
1.12297
0.853709
1
1.01665
1
0.657827
1.20122
0.770612
0.741526
1
1
0.655631
1.47219
0.964417
0.659343
0.650925
0.863917
1
1.01785
1.47207
1.47175
1
1
0.999999
0.657178
1.21655
0.999997
1.47073
1.43424
0.657111
1.00001
1.09177
0.877797
1.2719
1.41099
1
1.04258
1
1.00005
0.646567
0.845982
1
1
0.812726
0.647138
1.03815
1
1.00001
0.650456
1.20907
1
1.47047
1
1.0373
1.25335
1
1.46561
1
1
1.47169
1
0.649532
1.47147
0.698018
1.12521
1
0.658461
0.999915
1
1.00003
1
0.795921
1.02701
0.658576
1.34963
1.47182
0.638904
1
1
1
1
1
0.967624
0.658227
1.04363
0.659205
0.657786
1.07307
1
0.999801
1.11898
1
1
0.659482
0.989572
1
1
1.13009
1
1.47171
1
1.47119
1.08995
1.02
0.657403
1
1
0.658173
1
1
1
1
1.47115
1.04374
0.998081
1
0.643538
1.0527
0.999999
1
1.30392
1
0.659053
1.47065
1
1.00001
1
1.47219
0.657761
0.876959
0.649612
1.35365
1.47171
1
1
1.47155
1
0.647102
1
1
1
1
1
0.771823
1
1.47204
1
1
1.1581
1.47188
0.664398
0.870392
1
1.47161
1
1
1
1
1
1.47156
1.47125
0.648002
1.47136
0.641748
1
1
1.47151
1
1.47168
0.999791
1.02762
1.06712
1.4721
1.0737
1.31764
0.645701
1
0.646371
0.9861
1
1.47165
1
1
0.650515
1.47385
1
1.47125
1
1
1
1
1
1.00001
0.657317
1.47174
0.848344
1.47131
1
0.6587
0.663814
0.719511
1.477
1.47219
0.970517
1
0.793849
1
1.17996
1
1.47166
0.64716
0.65954
0.855082
1
1.47157
1
1.07111
0.680293
1
1.47145
1.42589
0.998876
1
1.47175
0.65748
1.47311
1.47125
1.47559
0.656963
1.08896
1
1
0.640046
1
0.806876
0.827736
1
1.00002
1.4717
1
1.47661
1.08749
1
1.03863
1.47272
1
0.657168
1
0.77222
1
1
1.38539
1
0.802053
1
0.657953
1.03786
0.949358
0.650193
1.47083
1.38312
1.47219
0.658782
0.700383
0.995805
0.999999
1
0.688684
1.4441
0.657717
0.999966
1
1.47181
1.47117
0.904211
1
0.657998
0.712727
1.31136
0.978653
0.643766
0.999999
0.658442
1.11312
0.657601
1
1.00006
0.813627
1.47143
1.47137
0.839756
0.999592
1
1
0.726407
1
0.652527
1
0.656539
0.657673
1
1
1.00003
0.658705
1.47156
1
1
1.00007
1.00004
0.657903
1.47137
1.47177
0.999999
0.659168
1.47222
1
1.09277
1
1
1.47208
0.651162
1
1
0.657813
0.748115
0.658894
0.658452
1
0.705433
0.997203
1.09528
0.64616
1
1
1.13042
1
1.41559
1
1
1.32577
0.679947
1
0.658154
1.12367
1.47183
1
1
0.656565
0.659256
0.641381
0.730243
0.658044
1.35203
0.999402
1
1
1
1
1.47168
0.657735
1
0.933081
0.999677
0.99898
0.999939
0.764674
1.12587
1
1.47163
1.47191
1
1
1.45129
1.00004
0.999999
1.47156
0.656334
1.47174
0.999999
0.646393
1.47167
1.00005
1
0.828609
1
0.647319
1
1.4715
1
1
1.47505
1
1
1.47369
1
1
1
1.47132
1
0.750298
0.720566
1
0.634855
1.47224
1
1
0.972816
1
1.47426
1.26831
1.3748
1
1
0.671517
1
0.659555
1.47194
1.47121
1.47205
1
1.47188
0.657153
1
0.659087
1.3768
1.42698
1.47448
1.47265
0.757521
0.64901
1
1.29664
1.47142
1.47072
1.47154
0.741953
1.16706
1
1.35379
0.753181
1
1.00002
1
1.00002
0.89253
1
1.47413
1
1
1
1
1
1
1.00006
1.46909
1
1.47584
1.3464
0.658754
1.4718
1.0242
1.22967
1
1.47113
1
0.658654
1
1
1
1
1.40062
1
0.642065
1.47059
0.638311
1.4714
1.37502
1.24081
1
1.08868
1.2161
0.995608
0.65794
0.775792
1.00002
0.999999
0.918645
1
0.650631
1.47153
0.646393
0.926989
0.853828
1
1
1
1.01315
1
1
0.657975
0.996492
1.47113
1
1.47182
1
0.654245
1
1
1.47149
1.47076
0.64355
1
1.4708
1
0.811213
0.654181
1.47131
1.42116
1
1.07968
1.47175
0.998671
1
1.19163
1.41196
1.47092
0.995975
1
0.999998
1.39858
1
1
1
1.47156
0.998508
1
1
1.4713
1
1
0.659544
1
1
1
1.47142
1
1
0.855321
1.14403
1.42745
0.774419
1
1.47136
1
1.1649
1
1.47143
0.997255
1.4718
1
0.65884
1
1.33
1
1
1.43897
1.00002
1.47153
1
1.47195
0.696986
0.660111
1.4709
1
1.3985
1
1.47213
1
1
1.00005
1.47133
1.4711
1.11865
1.47132
0.995871
0.65817
1.47141
0.863327
1
1.47011
1
1.4718
1
1.47372
1.47222
0.996231
0.656965
1
1.47141
1
1.02753
1
1
0.997969
0.745305
1.419
1
1.42538
1
0.874193
0.647557
1.4709
1.47189
0.696669
1
1.47135
1.47127
1.47148
0.691933
1.47117
0.671579
1.47188
1.46966
1
1
1.47159
1
1
1
1
0.657841
1
1
1.47199
1.47144
1
1.47162
1
1.47148
1.47235
1
1.39059
1
0.636343
1.47111
1.3485
1.13425
0.637297
1.47159
1
1
0.651661
1
1
1.47133
1
1
0.784307
1
1.47158
1.00009
1.47164
0.646935
1.47188
1
1.47201
1.4528
0.893231
1
1.47118
0.763498
1.47169
1.32891
1.47152
1.47125
0.997249
1.47178
1.47147
1.47173
1.47155
1.00053
1
0.65849
1
1.47098
0.827176
1.42915
1
1.46275
1
1
1
1
1
1.46887
0.647169
0.659005
1.47193
1.47134
1
1
1
1
1
1.46796
1.43452
1.47179
1.01358
1
1
1
1.00003
1.4702
1.47121
1
1.47135
1.47194
0.657932
1.32736
1
1.4716
1.47553
1.46814
0.997993
1.47189
1.47121
1
1.42973
1
1
1
1
1
1
1.47172
1.47171
1.43783
1.47173
0.648897
0.699544
1.47161
1.4718
1
0.652017
0.939649
1
1.22019
0.6469
1
0.999453
0.998281
0.658606
1
1.47174
1
1
1
1.47094
0.939985
1
1.47158
1.47133
1
1.4716
1
1
1.47156
1
0.657112
1
1.4735
1
1
0.657815
1
1.47175
1
0.637371
0.653075
1
1.46702
1
0.63711
0.883339
1
1.47185
1
1
1
1.47589
1
0.657568
1.06547
1.4712
1.4731
1.47183
1.04201
1.47328
1.47162
1
1.00002
1
1
1.00001
1.47126
1
0.999288
1.47138
1
0.639445
1
1.47122
1.21484
1.05496
1.21403
1.06228
1.47782
0.700185
1.47158
1
0.658333
0.997134
1.47156
0.935901
1.47169
1.47154
1.46493
1
1.47119
1.47126
1.47157
1
1.00004
1
1
1.47104
1.33201
1
1
0.658446
0.996636
1
1.47157
1
1.47158
1.4717
1.4736
0.903102
1.4714
1.47189
1.00034
1.22789
1.47093
1.47162
1
1.43436
0.831902
1.46331
0.986863
1.47185
1
1.47138
1.47161
1
0.656313
0.930726
0.703652
1
1.08137
0.996753
1.4716
1
1
0.996572
1
1.22589
1.44046
1
1
1.47131
1
1
1.33202
1.47199
1.4521
1.47108
1.47126
1
1.47259
0.731535
1.47113
1
0.990186
0.658083
1
1
0.747617
1
1.14465
1
1.47316
1
1.46247
1.29372
0.658831
1
1
1
1
1
1.47085
1.01147
1
1.4716
1
1.47151
1.47171
0.999999
1
0.972896
0.999846