/*--------------------------------*- C++ -*----------------------------------*\
  =========                 |
  \\      /  F ield         | OpenFOAM: The Open Source CFD Toolbox
   \\    /   O peration     | Website:  https://openfoam.org
    \\  /    A nd           | Version:  12
     \\/     M anipulation  |
\*---------------------------------------------------------------------------*/
FoamFile
{
    format      ascii;
    class       volScalarField;
    location    "11.7";
    object      p;
}
// * * * * * * * * * * * * * * * * * * * * * * * * * * * * * * * * * * * * * //

dimensions      [1 -1 -2 0 0 0 0];

internalField   nonuniform List<scalar> 
9801
(
0.611695
0.612791
0.614732
0.617733
0.622347
0.632279
0.642389
0.647792
0.650728
0.652839
0.654481
0.655261
0.656467
0.658351
0.661032
0.664717
0.673012
0.685205
0.692884
0.696761
0.699445
0.701065
0.701785
0.702806
0.704666
0.707324
0.710925
0.718363
0.731741
0.741352
0.746138
0.749259
0.750801
0.751252
0.752002
0.753982
0.756988
0.760633
0.767593
0.782691
0.794468
0.800132
0.803681
0.805276
0.804614
0.805047
0.807134
0.810241
0.814461
0.821835
0.839664
0.855023
0.861751
0.865624
0.865373
0.862781
0.863358
0.865857
0.869593
0.874743
0.88519
0.907005
0.925032
0.933487
0.938142
0.936048
0.92904
0.928234
0.932335
0.938141
0.945524
0.962959
0.991979
1.01154
1.02134
1.02751
1.02254
1.00951
1.00714
1.01284
1.0236
1.04111
1.08132
1.11643
1.13462
1.14729
1.15311
1.13951
1.12124
1.1221
1.13878
1.17407
1.2476
1.31399
1.369
1.43078
1.45056
2.20494
8.79876
0.61677
0.618348
0.620787
0.623864
0.62909
0.639585
0.64799
0.653129
0.656741
0.659586
0.660575
0.659788
0.66113
0.663777
0.666921
0.670782
0.679829
0.690998
0.69783
0.70223
0.705653
0.707233
0.705615
0.706359
0.709123
0.712585
0.716386
0.723805
0.736977
0.746144
0.751383
0.755276
0.757254
0.75455
0.754378
0.757292
0.761216
0.765307
0.771858
0.78671
0.798938
0.80523
0.809597
0.811838
0.807531
0.806257
0.809282
0.81363
0.818371
0.825341
0.842171
0.857935
0.865883
0.871023
0.872999
0.86634
0.863861
0.867025
0.871919
0.877516
0.886981
0.908707
0.927207
0.936412
0.942199
0.943354
0.933076
0.928779
0.93326
0.939892
0.947384
0.965081
0.994798
1.01411
1.02448
1.03204
1.0305
1.01369
1.00788
1.01589
1.02592
1.04348
1.08032
1.11265
1.13158
1.14651
1.15965
1.15069
1.12617
1.12619
1.14522
1.17369
1.22882
1.28507
1.33314
1.3834
1.38471
2.11532
8.93694
0.6193
0.620812
0.623212
0.626302
0.631542
0.642132
0.650459
0.655403
0.659084
0.662139
0.663484
0.662579
0.663581
0.666126
0.669333
0.673263
0.682344
0.693522
0.700193
0.70459
0.708164
0.710133
0.708583
0.708919
0.711498
0.714983
0.718822
0.725979
0.739075
0.748312
0.753648
0.757755
0.760222
0.757813
0.757222
0.759877
0.763667
0.767768
0.773893
0.788269
0.800802
0.80742
0.812111
0.814802
0.811011
0.80935
0.812096
0.816305
0.82101
0.827301
0.843073
0.859081
0.867545
0.873163
0.876362
0.871021
0.86693
0.869068
0.87403
0.879991
0.888685
0.908866
0.927675
0.937388
0.943694
0.94719
0.939236
0.932363
0.935122
0.941481
0.948995
0.96454
0.992304
1.01242
1.02394
1.03263
1.03622
1.0216
1.01157
1.01678
1.02737
1.04124
1.07179
1.109
1.13413
1.1508
1.16542
1.1629
1.13738
1.12906
1.14532
1.17134
1.21528
1.27222
1.31944
1.36779
1.37532
2.10956
8.94176
0.622872
0.624068
0.626276
0.629377
0.635058
0.645679
0.653916
0.65877
0.662378
0.665488
0.667292
0.666236
0.666652
0.668923
0.672119
0.676484
0.68594
0.696978
0.703588
0.707898
0.711456
0.713885
0.712421
0.711882
0.713988
0.717326
0.721427
0.728987
0.742166
0.751628
0.757031
0.761172
0.764159
0.762091
0.760219
0.762062
0.765496
0.76977
0.77626
0.790548
0.803684
0.810719
0.815576
0.819028
0.816189
0.812717
0.814147
0.817731
0.822396
0.828851
0.844465
0.86142
0.870582
0.876437
0.880802
0.877458
0.870493
0.870838
0.875197
0.881112
0.889543
0.908859
0.929114
0.939968
0.946799
0.952255
0.947511
0.936523
0.936503
0.942345
0.949916
0.962786
0.989745
1.01322
1.02645
1.03585
1.04312
1.03402
1.01786
1.01734
1.02714
1.03943
1.06251
1.1011
1.13075
1.14888
1.1639
1.17211
1.15475
1.13722
1.14204
1.16451
1.19494
1.24314
1.28954
1.33245
1.35077
2.14781
8.96606
0.625941
0.626997
0.629084
0.632026
0.63797
0.648959
0.65718
0.661931
0.665438
0.668434
0.670443
0.669613
0.669607
0.671669
0.674652
0.678943
0.688781
0.700089
0.706717
0.710963
0.714433
0.71711
0.716186
0.715021
0.716783
0.719846
0.723629
0.731
0.744597
0.754569
0.760074
0.764143
0.767392
0.766302
0.763565
0.764932
0.768135
0.772106
0.778066
0.791921
0.805828
0.813425
0.818366
0.822316
0.821343
0.816206
0.816398
0.819887
0.82448
0.830745
0.845572
0.862902
0.872768
0.878879
0.883709
0.883476
0.875163
0.872986
0.876888
0.882653
0.890307
0.907838
0.929365
0.941616
0.949018
0.955291
0.95601
0.944204
0.938593
0.942711
0.950022
0.96029
0.983767
1.01149
1.02733
1.03723
1.04609
1.04649
1.02847
1.01912
1.02503
1.03691
1.05361
1.08732
1.1238
1.14769
1.16469
1.17946
1.1759
1.15443
1.14546
1.15692
1.18145
1.21909
1.26372
1.30016
1.3189
2.1774
8.98496
0.629625
0.630611
0.63256
0.635305
0.64062
0.65177
0.660344
0.665174
0.668684
0.671666
0.673957
0.673495
0.673165
0.675035
0.677858
0.681583
0.690913
0.70289
0.709884
0.714205
0.717668
0.720579
0.720372
0.718594
0.719878
0.722752
0.726271
0.732689
0.746381
0.757275
0.763182
0.767335
0.770837
0.77111
0.767392
0.76748
0.770361
0.774272
0.779729
0.792834
0.807611
0.816067
0.821408
0.825764
0.827433
0.821602
0.818662
0.82126
0.825775
0.831849
0.845652
0.863753
0.874709
0.881356
0.886699
0.890119
0.883501
0.876416
0.877864
0.883068
0.889846
0.904755
0.928293
0.943357
0.951651
0.958369
0.963407
0.955279
0.943568
0.943065
0.949537
0.9583
0.975863
1.00662
1.02878
1.04077
1.04992
1.05579
1.04329
1.02675
1.02514
1.03465
1.04732
1.07083
1.10883
1.1395
1.16028
1.17781
1.18905
1.17705
1.15813
1.15552
1.16891
1.19417
1.23334
1.27014
1.28956
2.20748
9.00827
0.632899
0.633963
0.635855
0.638649
0.6436
0.654342
0.663029
0.667949
0.671555
0.674648
0.677198
0.676994
0.676209
0.677867
0.680719
0.684426
0.693142
0.7053
0.71266
0.717162
0.720771
0.723958
0.724586
0.721805
0.722198
0.724919
0.728619
0.73493
0.74824
0.759648
0.765955
0.770358
0.774155
0.776213
0.772219
0.769688
0.771817
0.77572
0.781379
0.794114
0.809454
0.818479
0.824065
0.828686
0.832342
0.828825
0.822621
0.822934
0.826852
0.832318
0.844368
0.863837
0.876755
0.883877
0.88941
0.894374
0.892175
0.882116
0.879772
0.883792
0.889758
0.900627
0.924511
0.944631
0.95473
0.961559
0.967684
0.96533
0.951144
0.945988
0.950202
0.957868
0.968797
0.99525
1.02542
1.04243
1.05283
1.06163
1.06099
1.04168
1.03066
1.03305
1.04336
1.05827
1.08912
1.12598
1.15301
1.17278
1.19009
1.19474
1.17908
1.16366
1.1644
1.17802
1.20472
1.24214
1.26484
2.2298
9.03456
0.636089
0.636862
0.63866
0.641467
0.646169
0.65685
0.665959
0.671044
0.67472
0.677871
0.680641
0.680956
0.679331
0.680382
0.683076
0.686631
0.694889
0.7076
0.715557
0.720252
0.72398
0.727334
0.729112
0.726042
0.724769
0.726962
0.730406
0.736219
0.74948
0.761894
0.768656
0.773269
0.777251
0.780537
0.778241
0.773399
0.773917
0.77736
0.782112
0.793529
0.81041
0.820861
0.826815
0.831589
0.835926
0.835742
0.827975
0.82574
0.828539
0.833228
0.841676
0.861302
0.878475
0.887175
0.892921
0.898064
0.899252
0.889308
0.883462
0.885466
0.890805
0.897954
0.916647
0.942549
0.95718
0.965098
0.97157
0.974414
0.963064
0.951854
0.951395
0.95749
0.965517
0.981458
1.01426
1.04059
1.05485
1.06503
1.07296
1.06391
1.04187
1.03563
1.04155
1.05307
1.0715
1.10585
1.13874
1.16243
1.18121
1.1975
1.19865
1.18237
1.16763
1.1682
1.18048
1.21006
1.23878
2.25374
9.06022
0.639582
0.639874
0.641384
0.644072
0.648038
0.658319
0.668782
0.674348
0.678059
0.681226
0.684099
0.68501
0.682909
0.683236
0.685618
0.6888
0.695499
0.708921
0.718475
0.723562
0.727316
0.730678
0.733116
0.73071
0.728188
0.729574
0.732671
0.737103
0.748883
0.763475
0.771554
0.776442
0.780465
0.784083
0.783797
0.778023
0.777044
0.779671
0.783685
0.791582
0.809233
0.823055
0.830082
0.834966
0.839366
0.841488
0.834616
0.829404
0.830758
0.834973
0.840639
0.855897
0.877896
0.89005
0.89648
0.901655
0.905205
0.898555
0.888814
0.888086
0.892238
0.898084
0.90855
0.934327
0.95695
0.968036
0.975154
0.981074
0.977866
0.961735
0.954489
0.956798
0.963947
0.973311
0.997032
1.03189
1.05401
1.06633
1.0759
1.08064
1.0651
1.04625
1.04374
1.05068
1.06258
1.08503
1.12005
1.14945
1.17099
1.18875
1.2017
1.19977
1.18346
1.16736
1.16569
1.17771
1.20748
2.27026
9.08537
0.643241
0.643095
0.644213
0.646748
0.650068
0.658979
0.67104
0.677703
0.681566
0.684717
0.687595
0.689058
0.686894
0.686411
0.688384
0.691331
0.696206
0.708948
0.720844
0.72686
0.730798
0.734174
0.737033
0.735745
0.732018
0.732533
0.735231
0.738861
0.747363
0.763598
0.774234
0.779745
0.78386
0.787592
0.789114
0.783648
0.78055
0.782263
0.785847
0.79099
0.805585
0.82371
0.833097
0.83841
0.84277
0.846159
0.841979
0.834081
0.833572
0.836891
0.841685
0.85059
0.872795
0.891
0.899504
0.90502
0.90986
0.909002
0.897441
0.891891
0.893469
0.898461
0.905095
0.922251
0.951562
0.969677
0.978833
0.98564
0.990238
0.978204
0.961675
0.958921
0.963712
0.971451
0.982725
1.01228
1.04531
1.06394
1.07544
1.08515
1.08824
1.06925
1.05173
1.05114
1.0595
1.07243
1.09805
1.13132
1.15733
1.17717
1.19416
1.20339
1.19933
1.18131
1.16247
1.1571
1.16938
2.2674
9.11016
0.647043
0.646462
0.647152
0.649515
0.652432
0.659379
0.672236
0.68048
0.684864
0.688179
0.691139
0.693238
0.691367
0.689746
0.691233
0.693949
0.697598
0.70795
0.722103
0.729718
0.734053
0.737559
0.740716
0.741086
0.736619
0.735684
0.73787
0.741123
0.746553
0.761582
0.775846
0.782769
0.787154
0.790967
0.793856
0.790215
0.784679
0.785132
0.788121
0.792211
0.801435
0.821364
0.835043
0.84156
0.84614
0.850222
0.849904
0.840892
0.837043
0.839069
0.843208
0.848685
0.864232
0.888603
0.901969
0.908665
0.913842
0.917424
0.909544
0.897272
0.895216
0.898858
0.904806
0.913567
0.938655
0.966495
0.980284
0.987921
0.994308
0.996002
0.979847
0.966117
0.965197
0.96992
0.977651
0.992573
1.02683
1.05767
1.0748
1.08584
1.09458
1.09303
1.07296
1.05821
1.05887
1.06755
1.0818
1.11028
1.14186
1.16504
1.18251
1.19726
1.20295
1.19649
1.17622
1.15302
1.13807
2.24156
9.13595
0.650927
0.650286
0.650279
0.652395
0.655075
0.660053
0.672485
0.682783
0.687978
0.691523
0.694576
0.697158
0.696261
0.693399
0.694134
0.696608
0.699756
0.706957
0.721965
0.732082
0.737181
0.740857
0.744144
0.746069
0.742163
0.739149
0.740598
0.743601
0.747458
0.758356
0.775697
0.785331
0.790397
0.794331
0.797857
0.7972
0.790167
0.788203
0.790518
0.794189
0.799523
0.81577
0.835093
0.844384
0.849558
0.853859
0.856784
0.850248
0.84183
0.841385
0.84452
0.849221
0.857433
0.880552
0.902097
0.91196
0.917923
0.923003
0.922734
0.908517
0.899764
0.900599
0.905194
0.911184
0.923595
0.95416
0.978499
0.990043
0.997956
1.00495
1.00204
0.981032
0.969349
0.970664
0.977061
0.985546
1.00354
1.03922
1.06698
1.08225
1.09307
1.10188
1.0994
1.07835
1.06435
1.06567
1.07466
1.09078
1.12112
1.15042
1.17103
1.18675
1.19871
1.20105
1.19183
1.1639
1.12765
2.19281
9.16013
0.654807
0.654691
0.653584
0.655292
0.657813
0.661455
0.672057
0.684479
0.690866
0.694715
0.69788
0.700719
0.701226
0.697664
0.697185
0.699314
0.702279
0.706996
0.720375
0.733582
0.739999
0.744009
0.74742
0.750313
0.748479
0.743467
0.743524
0.746122
0.74951
0.755978
0.773039
0.786924
0.793398
0.797645
0.80141
0.803529
0.797559
0.792142
0.793027
0.79615
0.800239
0.809775
0.831398
0.846158
0.852844
0.857446
0.86164
0.86061
0.84942
0.844397
0.846259
0.85042
0.855644
0.869395
0.896301
0.912842
0.920241
0.925777
0.930641
0.925941
0.910024
0.903835
0.905371
0.91019
0.916984
0.93573
0.96948
0.990492
1.00021
1.00682
1.01224
1.00609
0.985401
0.976195
0.977836
0.983688
0.992428
1.01424
1.05044
1.07609
1.09083
1.10173
1.10893
1.10381
1.08312
1.07008
1.07142
1.0802
1.0979
1.13009
1.15797
1.17632
1.18972
1.19732
1.19806
1.1806
1.13835
2.1412
9.18504
0.658449
0.659309
0.656985
0.658155
0.66055
0.663604
0.671524
0.685347
0.69353
0.697791
0.701048
0.703995
0.705778
0.702674
0.700575
0.702096
0.704854
0.708319
0.717974
0.733731
0.742521
0.747117
0.750676
0.753919
0.754645
0.749082
0.746795
0.748624
0.751755
0.755876
0.768415
0.786688
0.796045
0.800956
0.80483
0.808274
0.806089
0.797762
0.795804
0.798124
0.80184
0.807073
0.823509
0.845166
0.855752
0.86137
0.865685
0.868708
0.861191
0.850467
0.84897
0.851647
0.856135
0.862585
0.88315
0.909582
0.922657
0.929728
0.935482
0.938985
0.92708
0.910956
0.907789
0.911237
0.916907
0.924238
0.947317
0.980663
0.99837
1.0076
1.01554
1.0215
1.01127
0.989147
0.98104
0.983956
0.990949
1.00059
1.02484
1.05996
1.08327
1.09715
1.10798
1.11489
1.10893
1.08724
1.07393
1.07487
1.0836
1.10325
1.13652
1.16291
1.17935
1.19008
1.19497
1.19016
1.16227
2.10813
9.2114
0.66185
0.663742
0.660604
0.661156
0.663393
0.666218
0.671461
0.684741
0.695549
0.700724
0.704218
0.70728
0.70987
0.708357
0.704547
0.704958
0.707348
0.710424
0.716304
0.731809
0.744338
0.750149
0.753944
0.757298
0.759796
0.755998
0.750798
0.751244
0.753975
0.757481
0.764585
0.783173
0.797631
0.804044
0.808207
0.811974
0.813742
0.806043
0.799692
0.800481
0.803618
0.807657
0.815955
0.838457
0.856467
0.864121
0.869075
0.873491
0.874018
0.861791
0.853089
0.853251
0.856563
0.8615
0.871091
0.897963
0.921527
0.931666
0.937407
0.94243
0.944458
0.930048
0.916078
0.913915
0.916275
0.921545
0.93075
0.959468
0.992732
1.00914
1.0174
1.02391
1.02777
1.01571
0.995243
0.988279
0.990838
0.99727
1.0078
1.03555
1.06958
1.09084
1.10384
1.11421
1.11983
1.11253
1.09035
1.07673
1.07702
1.08513
1.10616
1.1405
1.1657
1.17988
1.18787
1.18896
1.18216
2.1043
9.23849
0.665087
0.667978
0.66482
0.664451
0.666323
0.668911
0.672303
0.682634
0.69659
0.703667
0.707516
0.710677
0.713545
0.713969
0.709329
0.70795
0.709845
0.712787
0.716618
0.728159
0.744622
0.752918
0.757243
0.760659
0.763792
0.763241
0.756368
0.754275
0.756313
0.759546
0.763675
0.776585
0.796572
0.806736
0.811759
0.815571
0.819042
0.816248
0.806321
0.803466
0.805404
0.808852
0.81349
0.827419
0.852262
0.8663
0.873057
0.877967
0.882031
0.877174
0.862135
0.856636
0.858461
0.862439
0.867524
0.880512
0.910437
0.930766
0.93998
0.946543
0.952323
0.950804
0.931469
0.918455
0.918171
0.922688
0.928731
0.938735
0.969402
1.00058
1.0151
1.02373
1.03164
1.03594
1.02147
0.999914
0.993274
0.996874
1.00428
1.01643
1.04594
1.07757
1.09683
1.10931
1.11937
1.12482
1.11638
1.09244
1.07802
1.07769
1.08503
1.10701
1.14178
1.1655
1.17797
1.18164
1.19192
2.12663
9.27002
0.668437
0.672327
0.66994
0.667976
0.669022
0.6713
0.674154
0.680649
0.695767
0.706068
0.710822
0.714042
0.716936
0.718891
0.715338
0.711633
0.712628
0.715293
0.71846
0.724884
0.741751
0.75463
0.760351
0.76403
0.76736
0.769501
0.764158
0.758414
0.758896
0.761627
0.76504
0.771402
0.790571
0.807646
0.814855
0.819152
0.822973
0.825126
0.816843
0.807937
0.807502
0.810372
0.814299
0.820455
0.84082
0.864361
0.874909
0.880426
0.884962
0.888506
0.879991
0.865467
0.86172
0.863293
0.867166
0.873023
0.891704
0.923456
0.941276
0.948939
0.953827
0.958618
0.955703
0.936517
0.925507
0.925061
0.928056
0.933661
0.946029
0.980125
1.01065
1.02472
1.03252
1.03884
1.04106
1.02659
1.00677
1.00041
1.00314
1.00974
1.0233
1.05551
1.08591
1.10365
1.11509
1.12433
1.12916
1.11968
1.09427
1.07853
1.07728
1.08351
1.10607
1.14064
1.16338
1.17196
1.19074
2.17228
9.30743
0.671966
0.676398
0.675541
0.671833
0.671714
0.673805
0.676594
0.680529
0.692652
0.707015
0.713719
0.717336
0.720335
0.723058
0.722231
0.716769
0.715765
0.717743
0.720614
0.724308
0.736153
0.754135
0.763064
0.767542
0.770931
0.774072
0.77294
0.764713
0.761945
0.763734
0.766863
0.770723
0.781773
0.804034
0.817169
0.823113
0.82695
0.830597
0.828975
0.816893
0.811283
0.812609
0.815766
0.819831
0.828456
0.853537
0.874273
0.883226
0.888984
0.893921
0.895368
0.880962
0.867192
0.865717
0.869202
0.873754
0.879763
0.90132
0.932314
0.947765
0.955836
0.9626
0.967967
0.961382
0.939642
0.92879
0.929784
0.934909
0.941319
0.954222
0.988234
1.01648
1.02936
1.0377
1.0455
1.04862
1.0329
1.0115
1.00455
1.00782
1.0153
1.03091
1.06386
1.09238
1.109
1.12021
1.12906
1.13389
1.12295
1.09537
1.07783
1.07543
1.08063
1.10377
1.13798
1.15672
1.18213
2.22724
9.34468
0.675327
0.680029
0.680927
0.677169
0.675125
0.676619
0.679162
0.682042
0.688998
0.70505
0.715629
0.720479
0.723795
0.72682
0.728627
0.72386
0.719449
0.720184
0.722715
0.725867
0.73188
0.749444
0.764371
0.770673
0.774377
0.777709
0.78
0.773946
0.766422
0.766265
0.768987
0.772357
0.777105
0.793833
0.815577
0.825405
0.830519
0.834389
0.837594
0.831522
0.818956
0.815591
0.817302
0.820591
0.825162
0.838221
0.866154
0.883775
0.891076
0.895659
0.899986
0.900167
0.884665
0.873131
0.871968
0.873981
0.878285
0.885922
0.912251
0.943303
0.957637
0.964339
0.969072
0.973558
0.96694
0.946488
0.936864
0.937063
0.940259
0.946033
0.961378
0.997707
1.02529
1.03779
1.04534
1.05148
1.05315
1.03832
1.01771
1.01045
1.01257
1.01905
1.03569
1.07058
1.09914
1.11517
1.12532
1.13312
1.13713
1.1256
1.09635
1.07618
1.07222
1.07621
1.10132
1.13118
1.16437
2.2822
9.37592
0.678357
0.683472
0.685591
0.684095
0.679733
0.679597
0.681471
0.684071
0.687838
0.700326
0.716103
0.723435
0.727292
0.730337
0.733113
0.731904
0.724919
0.723127
0.725103
0.728088
0.731574
0.74196
0.761829
0.772831
0.777845
0.781313
0.784645
0.784193
0.774536
0.769911
0.771133
0.773908
0.777405
0.784557
0.806408
0.825514
0.833718
0.838654
0.842554
0.844119
0.832615
0.820934
0.819791
0.822798
0.826538
0.831284
0.847733
0.876159
0.891373
0.898486
0.904045
0.908913
0.905558
0.886396
0.875593
0.876215
0.880465
0.885349
0.893054
0.9202
0.949393
0.962497
0.970304
0.977162
0.981901
0.973117
0.951073
0.940538
0.941571
0.946857
0.953651
0.969843
1.0049
1.02994
1.04169
1.04992
1.05749
1.06027
1.04446
1.02199
1.01359
1.01574
1.02277
1.04059
1.07557
1.10357
1.11904
1.12903
1.13644
1.1397
1.12786
1.09713
1.07359
1.06722
1.07139
1.09547
1.13764
2.32404
9.3971
0.681136
0.686921
0.689387
0.690662
0.685867
0.682742
0.683904
0.686395
0.689316
0.696184
0.713144
0.725063
0.73022
0.733516
0.736549
0.738577
0.733306
0.727506
0.727857
0.730253
0.733215
0.737772
0.753817
0.77266
0.780827
0.785084
0.788463
0.791266
0.78621
0.775808
0.77358
0.77579
0.779095
0.782897
0.79364
0.818391
0.834335
0.840969
0.845502
0.849401
0.849158
0.835558
0.825999
0.825558
0.827713
0.831475
0.837469
0.858565
0.886798
0.900253
0.906344
0.91029
0.914443
0.910419
0.892232
0.883186
0.882963
0.885169
0.889685
0.899225
0.929871
0.959176
0.971778
0.978008
0.982781
0.987174
0.979564
0.958751
0.948787
0.948809
0.952005
0.957975
0.976481
1.0133
1.03792
1.04916
1.05644
1.06285
1.06558
1.0509
1.02783
1.01827
1.01912
1.02462
1.04196
1.07852
1.10749
1.12282
1.13197
1.13848
1.14087
1.12938
1.09802
1.0701
1.06099
1.06263
1.1034
2.34069
9.41205
0.683421
0.690259
0.69271
0.695184
0.693211
0.687455
0.686884
0.68892
0.691623
0.695217
0.707053
0.724317
0.732639
0.736814
0.740005
0.742979
0.742488
0.734344
0.73096
0.732368
0.73516
0.738461
0.745973
0.766483
0.782153
0.788595
0.792244
0.795559
0.796824
0.78702
0.778462
0.778402
0.781085
0.784399
0.78858
0.803258
0.828718
0.84228
0.848635
0.853414
0.857479
0.853869
0.837039
0.828761
0.830061
0.833839
0.83789
0.844064
0.867214
0.8941
0.906106
0.912847
0.918586
0.922982
0.915917
0.895598
0.886064
0.88724
0.891697
0.896835
0.906267
0.936202
0.963583
0.975625
0.983396
0.99018
0.99473
0.98636
0.964332
0.952533
0.952584
0.957623
0.964749
0.984297
1.01916
1.04174
1.05316
1.06218
1.0696
1.0725
1.05609
1.03073
1.01973
1.02057
1.02653
1.04404
1.0805
1.10961
1.12468
1.13331
1.13905
1.14068
1.13006
1.09873
1.06794
1.05026
1.06482
2.31978
9.42302
0.684698
0.693113
0.695837
0.698641
0.69984
0.694402
0.690625
0.691614
0.693928
0.6967
0.702402
0.719292
0.733902
0.740025
0.7434
0.746415
0.74885
0.74392
0.735835
0.735101
0.737504
0.740614
0.744176
0.755304
0.777658
0.790293
0.79589
0.79948
0.8028
0.800998
0.788637
0.782417
0.783183
0.785831
0.789327
0.794682
0.813715
0.838437
0.849902
0.855228
0.85914
0.862778
0.857922
0.842041
0.835638
0.836192
0.838476
0.84253
0.850558
0.87709
0.903573
0.914896
0.920321
0.92409
0.928192
0.92205
0.903074
0.894413
0.894232
0.89632
0.900785
0.911891
0.944657
0.97268
0.984408
0.990397
0.995279
0.999931
0.993581
0.972134
0.959998
0.959063
0.962229
0.968328
0.989152
1.02654
1.05029
1.06087
1.06762
1.07363
1.07683
1.06207
1.03642
1.02418
1.02368
1.02828
1.04409
1.08045
1.11019
1.12526
1.13346
1.13858
1.13965
1.12959
1.09893
1.05969
1.04253
2.26033
9.43355
0.684959
0.696186
0.699103
0.70187
0.704284
0.702382
0.695781
0.694573
0.696475
0.69921
0.702408
0.711909
0.73098
0.741871
0.746669
0.74983
0.752878
0.753449
0.744728
0.73928
0.740114
0.742524
0.745483
0.749837
0.765476
0.787779
0.798275
0.803452
0.80693
0.809889
0.804081
0.790295
0.7861
0.788155
0.791586
0.795058
0.801039
0.822915
0.846445
0.856623
0.862221
0.867045
0.870585
0.862244
0.844636
0.838631
0.840756
0.844762
0.848963
0.856935
0.883853
0.908817
0.919497
0.926336
0.932144
0.936257
0.928574
0.907959
0.897534
0.89804
0.902398
0.907858
0.918944
0.950115
0.976099
0.987708
0.995604
1.00232
1.00707
1.00046
0.978136
0.96384
0.962304
0.966783
0.973971
0.995073
1.03045
1.05232
1.06329
1.07253
1.08021
1.08394
1.06911
1.04122
1.02634
1.02476
1.02887
1.04329
1.0793
1.10998
1.12521
1.13278
1.13714
1.13716
1.12795
1.09106
1.04713
2.18222
9.45343
0.683083
0.698227
0.701994
0.704891
0.707589
0.709167
0.703669
0.698731
0.699349
0.701632
0.704309
0.708241
0.722389
0.741165
0.749522
0.753588
0.756649
0.759436
0.756266
0.745967
0.74283
0.744558
0.747562
0.750794
0.756429
0.775942
0.796587
0.805406
0.810318
0.813969
0.816189
0.807552
0.794904
0.792127
0.793564
0.796254
0.800033
0.808139
0.832947
0.855044
0.864272
0.868985
0.872446
0.875685
0.867636
0.851376
0.846161
0.846736
0.848926
0.853113
0.862973
0.892533
0.917784
0.928126
0.933181
0.93697
0.941278
0.935758
0.916215
0.90598
0.905305
0.907297
0.911619
0.923506
0.957154
0.984609
0.996032
1.0019
1.00684
1.01225
1.00825
0.986112
0.970729
0.968116
0.970429
0.975983
0.996454
1.0349
1.0607
1.07229
1.07925
1.08542
1.08843
1.07451
1.04597
1.02875
1.02583
1.02918
1.04216
1.07721
1.10833
1.12372
1.13103
1.13438
1.13459
1.11963
1.08217
2.12309
9.48169
0.678601
0.698206
0.704734
0.708281
0.711098
0.713765
0.712771
0.705073
0.70243
0.703836
0.706364
0.709269
0.71528
0.733684
0.75018
0.756925
0.760413
0.763344
0.765362
0.757953
0.748475
0.747528
0.749791
0.75275
0.755898
0.76308
0.785569
0.804678
0.8127
0.817564
0.821498
0.822821
0.81067
0.797555
0.795757
0.798718
0.802377
0.806032
0.81461
0.840612
0.861331
0.869876
0.875587
0.880572
0.883521
0.872787
0.854857
0.848937
0.851076
0.855239
0.859728
0.869159
0.897748
0.921545
0.931784
0.938735
0.944631
0.948878
0.943013
0.922569
0.909745
0.908654
0.912653
0.918171
0.930162
0.961696
0.987127
0.998975
1.0074
1.01424
1.01935
1.01485
0.992073
0.974265
0.970476
0.974089
0.98079
1.00031
1.03723
1.06271
1.07469
1.08259
1.0893
1.09274
1.08032
1.05141
1.0315
1.02679
1.02908
1.03955
1.07362
1.10584
1.12162
1.12819
1.1316
1.12763
1.11912
2.10815
9.51508
0.674305
0.693239
0.706336
0.711769
0.714674
0.717335
0.719428
0.71441
0.707156
0.7067
0.708907
0.711672
0.714658
0.722729
0.743667
0.758056
0.764059
0.767589
0.770644
0.770627
0.75965
0.752072
0.752084
0.75428
0.75736
0.761046
0.770743
0.795007
0.812149
0.819121
0.823405
0.826953
0.827704
0.81539
0.804051
0.802586
0.803999
0.806703
0.810733
0.821697
0.849606
0.869685
0.877762
0.882026
0.885434
0.88878
0.879689
0.862589
0.856938
0.857356
0.859291
0.863445
0.874205
0.905136
0.930099
0.940192
0.945176
0.949096
0.954006
0.951003
0.931197
0.917743
0.915734
0.917403
0.92151
0.93337
0.967266
0.995538
1.00752
1.01354
1.01837
1.02411
1.02265
1.00082
0.981588
0.976592
0.977725
0.98204
0.998692
1.03716
1.0663
1.0798
1.08713
1.09313
1.09717
1.08713
1.05673
1.03317
1.02615
1.02762
1.03658
1.06955
1.10225
1.1181
1.1254
1.12423
1.13901
2.13225
9.55081
0.674196
0.684706
0.703563
0.713696
0.718124
0.720941
0.723765
0.724352
0.716201
0.711076
0.711682
0.713621
0.716122
0.719617
0.730851
0.753355
0.766043
0.771478
0.774735
0.777632
0.774838
0.761655
0.755582
0.756762
0.759849
0.763023
0.7665
0.777735
0.803115
0.818842
0.825486
0.830183
0.834341
0.834142
0.819201
0.806977
0.805979
0.809072
0.812794
0.816679
0.827627
0.855522
0.874428
0.882477
0.888423
0.893412
0.896302
0.886077
0.867336
0.859791
0.861128
0.865208
0.869939
0.880164
0.909271
0.932907
0.94336
0.950665
0.956674
0.961307
0.958003
0.937872
0.921778
0.918653
0.922109
0.927571
0.93936
0.970682
0.997083
1.00972
1.0188
1.02614
1.03164
1.02961
1.00714
0.98496
0.977748
0.979784
0.985451
1.00112
1.03754
1.06835
1.08357
1.09123
1.09655
1.09952
1.09161
1.06188
1.03503
1.02557
1.0258
1.033
1.06454
1.09712
1.11441
1.11746
1.14381
2.18576
9.58835
0.675932
0.680555
0.694175
0.712779
0.721111
0.725094
0.727949
0.730682
0.727971
0.717703
0.714169
0.715611
0.718324
0.721181
0.725261
0.739495
0.761738
0.772861
0.778232
0.781923
0.784658
0.779047
0.765784
0.761407
0.762347
0.764386
0.767519
0.771816
0.785907
0.81154
0.826005
0.83211
0.835884
0.839205
0.839175
0.825268
0.814295
0.812915
0.814091
0.816712
0.820907
0.834095
0.863564
0.882771
0.890336
0.894351
0.897819
0.901743
0.894201
0.875715
0.867891
0.867749
0.869461
0.873345
0.884132
0.915328
0.941169
0.951762
0.956898
0.960819
0.965911
0.965498
0.946706
0.929746
0.92571
0.926744
0.930357
0.94075
0.97368
1.0049
1.01884
1.0254
1.02995
1.03539
1.0364
1.01656
0.993007
0.984334
0.984211
0.987556
0.999285
1.03515
1.06875
1.08497
1.0928
1.09829
1.1019
1.09619
1.06723
1.03689
1.02421
1.02307
1.02888
1.05899
1.09199
1.10543
1.13982
2.25132
9.62554
0.677738
0.681273
0.68672
0.704713
0.721777
0.728676
0.732102
0.734769
0.736668
0.729596
0.719877
0.718652
0.720651
0.723254
0.725905
0.730314
0.747489
0.769834
0.780245
0.78538
0.789099
0.791404
0.78323
0.768759
0.764638
0.766782
0.770169
0.773408
0.777333
0.7925
0.818294
0.831693
0.837765
0.842667
0.846905
0.845931
0.829972
0.81733
0.815924
0.818954
0.822868
0.826995
0.83948
0.868049
0.886285
0.894344
0.900505
0.905585
0.909
0.901249
0.881588
0.871043
0.871047
0.874854
0.879762
0.890044
0.918816
0.943157
0.954327
0.961994
0.968271
0.973218
0.972447
0.953693
0.93414
0.928177
0.930677
0.935829
0.945995
0.975755
1.00521
1.01967
1.02906
1.0372
1.04298
1.0437
1.02398
0.99756
0.985598
0.985042
0.989201
0.999976
1.03322
1.0684
1.08667
1.09505
1.10016
1.1033
1.0997
1.0728
1.03877
1.02214
1.01945
1.024
1.05423
1.08145
1.12456
2.31837
9.65634
0.680291
0.683578
0.68642
0.694407
0.714852
0.72962
0.735571
0.738852
0.741565
0.741756
0.731234
0.72319
0.722709
0.724474
0.727235
0.730577
0.736628
0.756246
0.777271
0.786425
0.79115
0.794804
0.796725
0.787978
0.774891
0.77158
0.772519
0.774457
0.777685
0.78268
0.800425
0.8262
0.839136
0.844651
0.84791
0.851207
0.851483
0.837419
0.82524
0.823291
0.824234
0.826607
0.830831
0.844741
0.875027
0.894515
0.902179
0.906195
0.909673
0.914007
0.909584
0.890498
0.879373
0.878165
0.879595
0.883139
0.89283
0.923067
0.950877
0.962815
0.968368
0.972268
0.977364
0.979447
0.963336
0.942832
0.935767
0.935675
0.938382
0.945947
0.974837
1.01043
1.02872
1.03649
1.04123
1.04606
1.04883
1.03352
1.00612
0.991555
0.989033
0.991378
0.999015
1.02968
1.06691
1.08693
1.09585
1.10102
1.10405
1.10193
1.07797
1.04114
1.01977
1.01461
1.01925
1.04461
1.09748
2.36986
9.67556
0.683719
0.686093
0.688573
0.69194
0.702107
0.723795
0.736922
0.74247
0.745599
0.748138
0.745828
0.732854
0.726233
0.727088
0.729957
0.733049
0.736151
0.742374
0.76358
0.783909
0.79259
0.797368
0.801401
0.803507
0.793245
0.778332
0.77455
0.776839
0.780315
0.783757
0.788289
0.806062
0.831417
0.843523
0.849506
0.854595
0.858809
0.858578
0.843551
0.82906
0.826019
0.828595
0.832609
0.837063
0.849722
0.878231
0.897019
0.905501
0.911949
0.917198
0.921174
0.917011
0.89747
0.883327
0.881121
0.884457
0.889266
0.898406
0.925456
0.951823
0.964467
0.972971
0.979987
0.985267
0.986887
0.971313
0.948169
0.937923
0.938449
0.94299
0.950624
0.975404
1.00942
1.02813
1.0381
1.04683
1.0531
1.05608
1.04175
1.01212
0.99405
0.990023
0.992483
0.999089
1.02649
1.06473
1.08687
1.09629
1.10129
1.10426
1.103
1.08239
1.04441
1.01704
1.00898
1.00902
1.06233
2.38947
9.68582
0.688018
0.688804
0.691264
0.6939
0.697545
0.709414
0.731207
0.743307
0.748746
0.752218
0.754682
0.749566
0.736561
0.732085
0.733072
0.734859
0.737479
0.741003
0.748945
0.771401
0.79058
0.798609
0.802851
0.805944
0.807677
0.798737
0.785459
0.782051
0.782954
0.784684
0.787843
0.793145
0.812668
0.83856
0.851011
0.856321
0.859407
0.86298
0.864791
0.85219
0.83752
0.833822
0.834471
0.836338
0.840415
0.853276
0.883688
0.904943
0.913453
0.917753
0.921236
0.925815
0.92504
0.907118
0.891949
0.888604
0.88931
0.892251
0.899743
0.927205
0.958544
0.973618
0.980168
0.984228
0.989086
0.993026
0.9817
0.95795
0.946108
0.944113
0.94538
0.950218
0.971576
1.01067
1.03601
1.04629
1.05175
1.05606
1.05942
1.04982
1.02116
0.999623
0.993014
0.993839
0.998482
1.02282
1.06216
1.08638
1.09638
1.10089
1.10347
1.10244
1.08586
1.04801
1.01653
0.997696
1.02242
2.36523
9.68929
0.695274
0.69258
0.694207
0.696413
0.698579
0.702006
0.715541
0.738127
0.749942
0.755299
0.758708
0.760833
0.754266
0.74054
0.735783
0.737378
0.740438
0.743457
0.746554
0.754248
0.777415
0.795963
0.803558
0.808265
0.812461
0.814806
0.805097
0.789876
0.785004
0.786837
0.790239
0.79376
0.798377
0.81684
0.842195
0.854404
0.860782
0.866207
0.87058
0.871995
0.859634
0.842539
0.836513
0.838138
0.841934
0.846494
0.857752
0.885792
0.906588
0.916108
0.923221
0.928849
0.933245
0.932414
0.914751
0.896459
0.890978
0.893334
0.897857
0.905237
0.928897
0.958602
0.974244
0.983558
0.991577
0.997338
1.00071
0.990188
0.964391
0.948158
0.945466
0.948972
0.954823
0.972559
1.00898
1.03461
1.04632
1.05452
1.0614
1.06551
1.05754
1.02797
1.00282
0.993988
0.994188
0.998021
1.01871
1.05814
1.08401
1.09464
1.09943
1.10208
1.10143
1.08781
1.05174
1.00915
1.00046
2.29457
9.69027
0.706357
0.69758
0.696462
0.697673
0.699961
0.702784
0.70731
0.722324
0.744436
0.755623
0.760859
0.764723
0.767001
0.760062
0.747012
0.742922
0.74357
0.744879
0.747398
0.751082
0.760423
0.784275
0.802422
0.80999
0.814016
0.816821
0.819645
0.812472
0.797824
0.792699
0.792984
0.794237
0.797164
0.802345