/*--------------------------------*- C++ -*----------------------------------*\
  =========                 |
  \\      /  F ield         | OpenFOAM: The Open Source CFD Toolbox
   \\    /   O peration     | Website:  https://openfoam.org
    \\  /    A nd           | Version:  12
     \\/     M anipulation  |
\*---------------------------------------------------------------------------*/
FoamFile
{
    format      ascii;
    class       volScalarField;
    location    "11.7";
    object      rho;
}
// * * * * * * * * * * * * * * * * * * * * * * * * * * * * * * * * * * * * * //

dimensions      [1 -3 0 0 0 0 0];

internalField   nonuniform List<scalar> 
9801
(
1.0807
1.09118
1.09583
1.10019
1.10397
1.10703
1.1065
1.10718
1.11016
1.11431
1.12309
1.1359
1.1451
1.15103
1.15595
1.16022
1.16392
1.16355
1.16275
1.16541
1.16961
1.17665
1.19021
1.20232
1.20962
1.21501
1.21978
1.22375
1.22289
1.22104
1.22357
1.22796
1.23432
1.24785
1.26261
1.27176
1.27806
1.28327
1.28753
1.28612
1.28272
1.28501
1.28972
1.2964
1.31013
1.32819
1.33961
1.34672
1.35266
1.35713
1.35299
1.34837
1.35106
1.35683
1.36459
1.3811
1.40288
1.41617
1.4243
1.43108
1.43612
1.42813
1.42116
1.42461
1.43167
1.44233
1.46595
1.49171
1.50752
1.51736
1.52537
1.52969
1.51599
1.50694
1.51228
1.52255
1.54258
1.57947
1.60861
1.62585
1.63856
1.64967
1.64687
1.62406
1.61817
1.6316
1.65361
1.70353
1.75987
1.79632
1.82259
1.84905
1.8619
1.84965
1.84594
1.87564
1.95851
3.19963
8.70545
1.08658
1.09821
1.10259
1.10652
1.10996
1.11228
1.11194
1.11279
1.1156
1.11944
1.12829
1.14219
1.15166
1.1575
1.16205
1.16596
1.16899
1.16841
1.16802
1.17061
1.17446
1.18109
1.19546
1.20808
1.21539
1.22061
1.22503
1.22856
1.22766
1.226
1.22831
1.23231
1.23806
1.25192
1.26758
1.27692
1.28305
1.28802
1.29205
1.29051
1.28718
1.28913
1.29345
1.29932
1.31306
1.33214
1.34389
1.35105
1.35684
1.36121
1.35767
1.35271
1.35471
1.35982
1.36648
1.38227
1.405
1.41898
1.42747
1.4344
1.43957
1.43292
1.42537
1.42774
1.43411
1.44309
1.46566
1.49249
1.5088
1.51881
1.52693
1.53208
1.52024
1.51034
1.51441
1.52373
1.53915
1.57322
1.60465
1.62347
1.63733
1.64999
1.65196
1.6291
1.61982
1.63054
1.6485
1.68719
1.74083
1.77918
1.80766
1.83516
1.85039
1.83734
1.82661
1.84065
1.86148
3.02344
8.70827
1.08551
1.09713
1.10129
1.10506
1.10837
1.1104
1.11023
1.11144
1.11438
1.1182
1.12704
1.14134
1.15064
1.15616
1.16048
1.16424
1.16703
1.16645
1.16653
1.16925
1.17306
1.17928
1.19358
1.20637
1.21359
1.2187
1.22306
1.22666
1.22589
1.22418
1.22644
1.23043
1.23587
1.24929
1.26531
1.27471
1.28076
1.2857
1.28991
1.28865
1.28489
1.28657
1.29085
1.29645
1.30948
1.32895
1.34102
1.34821
1.35397
1.35875
1.35651
1.3505
1.35156
1.35634
1.36253
1.3765
1.39964
1.41469
1.42355
1.43061
1.43648
1.4324
1.42379
1.42428
1.42978
1.4374
1.45473
1.48307
1.50195
1.51269
1.52104
1.52785
1.51971
1.50755
1.50874
1.517
1.52836
1.5562
1.59374
1.61602
1.62986
1.64202
1.64731
1.62729
1.61209
1.61887
1.63506
1.6609
1.71226
1.75946
1.79164
1.81891
1.83764
1.82581
1.81454
1.82555
1.82636
2.91257
8.61929
1.08463
1.09652
1.10059
1.1043
1.10748
1.10911
1.10892
1.11039
1.1134
1.11716
1.12547
1.13978
1.14921
1.15474
1.15904
1.16281
1.16541
1.16468
1.16493
1.16763
1.17136
1.17696
1.19063
1.20398
1.21144
1.21659
1.22097
1.2246
1.22376
1.22182
1.22395
1.22787
1.23288
1.245
1.26171
1.27173
1.27784
1.28281
1.2871
1.28608
1.2817
1.28302
1.28724
1.2925
1.30366
1.32356
1.33689
1.34434
1.35007
1.35504
1.35408
1.34666
1.34646
1.35097
1.35691
1.36787
1.39102
1.40862
1.41815
1.4252
1.43128
1.43005
1.41916
1.41668
1.42156
1.429
1.44181
1.47038
1.49355
1.50523
1.51354
1.52111
1.51779
1.50138
1.49775
1.50519
1.51575
1.53504
1.57302
1.60071
1.61569
1.62758
1.63713
1.62641
1.605
1.60317
1.6176
1.63655
1.67254
1.72011
1.75586
1.78413
1.80904
1.80925
1.79346
1.78862
1.76882
2.82991
8.56641
1.08284
1.09509
1.09913
1.10282
1.10594
1.10745
1.10698
1.10829
1.11122
1.11488
1.12227
1.13666
1.1468
1.15246
1.15675
1.16047
1.16305
1.16221
1.16208
1.16453
1.16814
1.17306
1.18568
1.20019
1.2082
1.21336
1.21767
1.22118
1.22054
1.21833
1.22006
1.22371
1.2282
1.23823
1.25578
1.26712
1.27344
1.27833
1.2825
1.28217
1.27753
1.27812
1.28193
1.28679
1.29536
1.31475
1.33017
1.33827
1.34402
1.34903
1.34984
1.34233
1.34016
1.34387
1.34937
1.35756
1.37846
1.39925
1.41023
1.41751
1.42372
1.42563
1.41498
1.40848
1.412
1.41916
1.4291
1.45343
1.48057
1.49448
1.50317
1.51123
1.51367
1.49862
1.48789
1.49192
1.50186
1.51516
1.54667
1.58285
1.60318
1.61631
1.62816
1.62885
1.60643
1.59309
1.5995
1.61611
1.64127
1.68484
1.72639
1.75759
1.78436
1.80163
1.79298
1.77805
1.73841
2.77416
8.5492
1.08076
1.09341
1.0975
1.10119
1.10436
1.10604
1.10537
1.10641
1.10919
1.11266
1.11887
1.13307
1.14432
1.15026
1.15448
1.15809
1.16086
1.16021
1.15953
1.16172
1.16521
1.16958
1.18058
1.19617
1.20508
1.21034
1.21451
1.21805
1.21807
1.21538
1.21645
1.21986
1.22414
1.23218
1.24956
1.26252
1.26935
1.2743
1.27859
1.27976
1.2747
1.27349
1.27661
1.28129
1.28831
1.30613
1.32377
1.33302
1.33911
1.34438
1.34759
1.34092
1.33458
1.33652
1.34181
1.34915
1.36715
1.39068
1.40377
1.41144
1.41778
1.42251
1.41549
1.40406
1.40377
1.41011
1.41854
1.43713
1.46775
1.48674
1.49661
1.5047
1.51079
1.50156
1.48534
1.48315
1.49095
1.5017
1.52212
1.56112
1.59117
1.60817
1.62123
1.63037
1.61794
1.59516
1.5907
1.60239
1.62053
1.65239
1.69412
1.72821
1.75582
1.78052
1.78966
1.7805
1.73718
2.72299
8.55822
1.07911
1.0921
1.09627
1.10002
1.10325
1.10505
1.10407
1.10478
1.1074
1.11088
1.11654
1.12991
1.14189
1.14829
1.15271
1.15647
1.1596
1.15923
1.15755
1.1592
1.16256
1.1669
1.17668
1.19233
1.20214
1.20776
1.21215
1.21608
1.2174
1.21363
1.21305
1.21598
1.22032
1.22761
1.24409
1.25834
1.26593
1.27126
1.27594
1.27915
1.27488
1.27015
1.27181
1.27619
1.28256
1.29839
1.31811
1.32893
1.33539
1.34094
1.34576
1.34257
1.33316
1.33192
1.33651
1.34289
1.35667
1.38193
1.39894
1.40749
1.41395
1.41987
1.41796
1.40465
1.40026
1.40458
1.41192
1.42342
1.45203
1.47972
1.4935
1.50222
1.50991
1.50865
1.4905
1.48052
1.48358
1.49303
1.50594
1.53609
1.57549
1.60038
1.61572
1.62868
1.63241
1.61177
1.59449
1.59555
1.60869
1.62932
1.66567
1.70316
1.73158
1.75459
1.77316
1.77507
1.74295
2.69405
8.57721
1.07794
1.0916
1.09602
1.09983
1.10311
1.10528
1.10405
1.10385
1.10621
1.10964
1.11498
1.12783
1.14033
1.1472
1.1519
1.15587
1.15939
1.16007
1.15723
1.15776
1.16084
1.16497
1.17386
1.18966
1.20038
1.20645
1.21114
1.21533
1.21819
1.21476
1.21169
1.21367
1.2177
1.224
1.23963
1.2558
1.26443
1.27009
1.27496
1.27925
1.27749
1.27014
1.26949
1.2734
1.27877
1.29117
1.31308
1.32714
1.33444
1.34009
1.34526
1.34542
1.33528
1.33129
1.33429
1.33985
1.34833
1.37112
1.39484
1.40645
1.41349
1.41983
1.4223
1.41046
1.40077
1.40167
1.40794
1.41607
1.43525
1.46921
1.49136
1.50259
1.51086
1.51647
1.50385
1.48487
1.48162
1.48838
1.49858
1.51509
1.55154
1.58676
1.60819
1.6233
1.63602
1.6354
1.61221
1.59806
1.60238
1.61647
1.64044
1.67772
1.71005
1.73368
1.7513
1.7612
1.74904
2.68318
8.59515
1.07737
1.09176
1.09646
1.10035
1.10369
1.10635
1.10547
1.10433
1.10622
1.10945
1.11402
1.12588
1.13971
1.14739
1.15226
1.15629
1.15993
1.16166
1.15858
1.15793
1.16056
1.16437
1.17148
1.18726
1.19989
1.20662
1.21142
1.21563
1.21916
1.21733
1.21267
1.21345
1.21708
1.22206
1.23486
1.25371
1.26449
1.27056
1.27543
1.2799
1.28048
1.27276
1.27013
1.27297
1.27781
1.28571
1.3064
1.32576
1.33508
1.34102
1.34628
1.34919
1.3411
1.3332
1.33386
1.33857
1.34473
1.35965
1.38815
1.40621
1.41471
1.4212
1.4265
1.42012
1.40497
1.40116
1.40569
1.41308
1.42358
1.45187
1.48454
1.50166
1.51118
1.51913
1.5206
1.50149
1.48651
1.48653
1.49409
1.50481
1.52711
1.56657
1.59785
1.61747
1.63239
1.64285
1.63671
1.61466
1.60366
1.6094
1.62383
1.65102
1.68797
1.71524
1.7322
1.74339
1.74785
2.69117
8.61102
1.07743
1.09276
1.09781
1.10182
1.10524
1.10823
1.10803
1.10613
1.10738
1.11032
1.11421
1.12414
1.13956
1.14865
1.1538
1.15789
1.16156
1.16401
1.16139
1.15956
1.16154
1.16509
1.1704
1.18459
1.19998
1.20793
1.21295
1.2172
1.22103
1.22097
1.21548
1.21489
1.21788
1.22225
1.23089
1.25049
1.26514
1.27224
1.2772
1.28169
1.28407
1.27773
1.27251
1.27405
1.27825
1.28377
1.29823
1.32227
1.33597
1.34289
1.34827
1.35286
1.34915
1.33769
1.33488
1.33821
1.34392
1.35243
1.37669
1.40362
1.41653
1.42368
1.4297
1.43087
1.41596
1.40479
1.40533
1.41121
1.41881
1.43358
1.46862
1.49725
1.51136
1.52069
1.52904
1.52471
1.50071
1.48908
1.49213
1.50121
1.51316
1.54043
1.57899
1.60613
1.62402
1.6389
1.64791
1.63974
1.61771
1.60793
1.61379
1.6284
1.6583
1.69307
1.71514
1.72665
1.73932
2.71309
8.62511
1.07769
1.09418
1.09991
1.10412
1.10765
1.11084
1.11149
1.10891
1.10939
1.11205
1.11555
1.12289
1.13888
1.15025
1.15605
1.16027
1.16401
1.16704
1.16543
1.16227
1.1635
1.16668
1.17081
1.18148
1.19929
1.20965
1.2152
1.21957
1.22359
1.22536
1.22011
1.21747
1.2197
1.22355
1.22901
1.24502
1.26459
1.27414
1.27963
1.28424
1.28803
1.28472
1.27685
1.27614
1.27932
1.28406
1.29229
1.31493
1.33556
1.34486
1.35072
1.35583
1.35711
1.34583
1.33786
1.33915
1.3441
1.35041
1.36423
1.39456
1.41586
1.42529
1.43201
1.43758
1.43299
1.41493
1.40742
1.40952
1.41602
1.4245
1.44682
1.4852
1.50963
1.52171
1.53038
1.53632
1.52604
1.50332
1.4952
1.49917
1.50814
1.52171
1.55319
1.58952
1.6139
1.63082
1.6452
1.6513
1.6408
1.61894
1.60967
1.61507
1.62965
1.66191
1.6936
1.71024
1.72623
2.74446
8.64042
1.07804
1.09572
1.10258
1.10698
1.11054
1.1138
1.1153
1.11252
1.11199
1.11435
1.1177
1.12284
1.13727
1.15168
1.15875
1.16318
1.16696
1.17034
1.17027
1.16604
1.16596
1.16868
1.17237
1.17917
1.19678
1.21113
1.21794
1.22249
1.22657
1.22969
1.22622
1.22107
1.22183
1.2251
1.22942
1.23945
1.26112
1.27555
1.28236
1.28719
1.29159
1.29226
1.28344
1.27888
1.28084
1.28499
1.29043
1.30519
1.33123
1.34618
1.35333
1.35863
1.36307
1.35779
1.34486
1.34169
1.3444
1.34982
1.35711
1.37883
1.41002
1.42656
1.43504
1.44183
1.44607
1.43267
1.41428
1.41079
1.41541
1.42277
1.43219
1.46021
1.49756
1.51794
1.52882
1.53783
1.54399
1.52983
1.50659
1.5002
1.50551
1.51525
1.53116
1.56472
1.5977
1.6196
1.63574
1.64933
1.65372
1.64083
1.61801
1.60865
1.61303
1.62769
1.66119
1.68768
1.70856
2.78323
8.65744
1.07847
1.09669
1.10532
1.11005
1.11369
1.117
1.11927
1.11693
1.11513
1.11698
1.12015
1.12409
1.13499
1.15199
1.16131
1.16629
1.17021
1.17375
1.17538
1.17099
1.16879
1.17079
1.17424
1.17887
1.19267
1.21122
1.22047
1.2256
1.22977
1.23355
1.233
1.22594
1.22418
1.22675
1.23075
1.23665
1.25454
1.27513
1.28469
1.29019
1.29479
1.29832
1.29282
1.28358
1.28284
1.28615
1.29085
1.29845
1.32131
1.3449
1.35535
1.36149
1.36677
1.36896
1.35691
1.34551
1.34501
1.3491
1.35518
1.36563
1.39526
1.42336
1.43587
1.44282
1.44876
1.45086
1.43421
1.41861
1.41683
1.42064
1.42765
1.43972
1.47349
1.50921
1.52782
1.53823
1.54651
1.54894
1.5322
1.51147
1.50666
1.51211
1.52187
1.54065
1.57559
1.60559
1.62516
1.63982
1.65191
1.6547
1.63994
1.61571
1.60518
1.60812
1.62384
1.65563
1.68401
2.8226
8.67553
1.07916
1.09648
1.10775
1.11318
1.11693
1.12029
1.12311
1.12203
1.11891
1.1198
1.1226
1.1261
1.13322
1.15053
1.1633
1.16938
1.17348
1.17709
1.17987
1.17694
1.1723
1.17311
1.17624
1.1802
1.18887
1.20869
1.22233
1.22864
1.23299
1.23694
1.23908
1.23277
1.2275
1.22878
1.23226
1.23668
1.24722
1.27066
1.28618
1.29318
1.29797
1.30243
1.30273
1.29193
1.28596
1.28733
1.29123
1.29658
1.30951
1.33763
1.35629
1.36469
1.37051
1.37544
1.37217
1.35563
1.34818
1.34987
1.35482
1.36101
1.37536
1.40915
1.43332
1.44424
1.45181
1.45869
1.45675
1.43495
1.42089
1.42113
1.42696
1.43469
1.44829
1.48417
1.51706
1.53359
1.54376
1.5527
1.5557
1.53738
1.51647
1.51218
1.518
1.52822
1.54994
1.58477
1.6118
1.62982
1.64369
1.65416
1.65551
1.6385
1.61224
1.59952
1.60137
1.61669
1.65248
2.85077
8.69245
1.08037
1.0946
1.10912
1.11605
1.12021
1.12373
1.12693
1.12756
1.12347
1.12273
1.12504
1.12837
1.13312
1.14741
1.16402
1.17194
1.17647
1.1802
1.18359
1.18342
1.17728
1.17596
1.17849
1.18211
1.18721
1.20313
1.22228
1.2311
1.23605
1.24015
1.24375
1.24133
1.23287
1.23126
1.23385
1.23779
1.24347
1.26164
1.28473
1.29536
1.30107
1.30571
1.30951
1.30358
1.29137
1.28901
1.29205
1.29682
1.30326
1.32358
1.35187
1.36557
1.37219
1.37761
1.38227
1.3746
1.35763
1.35245
1.35419
1.359
1.36598
1.38703
1.42321
1.44412
1.45333
1.45938
1.46501
1.46113
1.43938
1.42751
1.42774
1.43218
1.4395
1.45626
1.49451
1.52563
1.54165
1.5517
1.55961
1.56002
1.54157
1.52184
1.51742
1.52272
1.53293
1.55758
1.59289
1.61832
1.63473
1.647
1.6555
1.65504
1.63685
1.60847
1.59174
1.58966
1.61456
2.85487
8.70854
1.0822
1.09214
1.10922
1.11872
1.12349
1.12714
1.13044
1.13253
1.12891
1.12607
1.12768
1.1308
1.13451
1.14379
1.16241
1.17383
1.17931
1.18331
1.18696
1.18923
1.18413
1.17961
1.18081
1.18394
1.18785
1.19718
1.21861
1.23277
1.23908
1.24336
1.24732
1.24916
1.2412
1.23476
1.23563
1.23896
1.24336
1.2528
1.27742
1.29613
1.30415
1.30914
1.31354
1.31456
1.30256
1.29348
1.29378
1.2971
1.30208
1.31088
1.33782
1.36333
1.3746
1.38133
1.38707
1.38963
1.37512
1.35861
1.35586
1.35949
1.36519
1.37244
1.39702
1.43242
1.45068
1.4601
1.468
1.47421
1.46638
1.44246
1.43096
1.43235
1.43858
1.44668
1.46476
1.50272
1.53145
1.54643
1.55675
1.56529
1.5663
1.54648
1.52566
1.521
1.52612
1.53687
1.5636
1.59863
1.62266
1.6381
1.64951
1.65584
1.65347
1.63427
1.60416
1.58057
1.57686
2.83048
8.72804
1.08452
1.09101
1.10723
1.12045
1.12643
1.13031
1.1337
1.13667
1.13535
1.13057
1.13066
1.1332
1.13646
1.14166
1.15789
1.17451
1.18203
1.18648
1.19029
1.1937
1.19202
1.18461
1.18329
1.18577
1.18937
1.19445
1.21096
1.23194
1.24145
1.24648
1.25059
1.25435
1.25168
1.24104
1.23817
1.24058
1.2444
1.24937
1.26492
1.29154
1.30541
1.31185
1.31663
1.32109
1.31804
1.30294
1.29629
1.2976
1.30149
1.30692
1.32059
1.35234
1.37403
1.38289
1.38825
1.39351
1.39509
1.37844
1.36378
1.36152
1.36376
1.36895
1.37822
1.40873
1.44419
1.46091
1.46891
1.47484
1.48008
1.4717
1.44882
1.43825
1.43889
1.44353
1.45123
1.47257
1.51176
1.53888
1.55302
1.56282
1.57029
1.57023
1.55121
1.53013
1.52436
1.5283
1.53832
1.56668
1.60263
1.62645
1.64074
1.65027
1.65433
1.65038
1.63035
1.59295
1.56041
2.77849
8.75058
1.08709
1.09171
1.10363
1.12056
1.12894
1.13342
1.13703
1.14033
1.14165
1.13649
1.13377
1.13532
1.13834
1.14213
1.15261
1.17277
1.18434
1.18974
1.1936
1.19716
1.19887
1.192
1.18672
1.18789
1.19108
1.1949
1.2033
1.22589
1.24261
1.24966
1.25401
1.25809
1.26051
1.25186
1.24278
1.24243
1.24515
1.24927
1.25626
1.27905
1.30368
1.31459
1.32068
1.32534
1.32856
1.31889
1.30338
1.29987
1.30255
1.30702
1.31271
1.33053
1.36358
1.38228
1.39082
1.39731
1.40312
1.40075
1.37944
1.36546
1.36519
1.37003
1.37607
1.38536
1.41698
1.45047
1.46583
1.47496
1.48281
1.48818
1.47766
1.45309
1.44169
1.44305
1.44945
1.45824
1.48129
1.51902
1.54381
1.55745
1.56779
1.57629
1.57685
1.5552
1.53179
1.52513
1.5289
1.53875
1.56808
1.60486
1.62834
1.64138
1.64882
1.65095
1.64638
1.61941
1.57124
2.71631
8.77633
1.08983
1.09362
1.10054
1.11833
1.13093
1.13659
1.14036
1.14369
1.14642
1.14346
1.13765
1.13782
1.14059
1.14407
1.14969
1.16714
1.18484
1.19244
1.19676
1.2005
1.20387
1.20139
1.1925
1.19056
1.1928
1.19621
1.20066
1.21551
1.23994
1.25198
1.25764
1.26176
1.26567
1.26412
1.2511
1.245
1.24663
1.25033
1.2549
1.26544
1.29338
1.31407
1.32239
1.3277
1.33243
1.33471
1.32135
1.30715
1.30489
1.30695
1.31133
1.31821
1.34234
1.37584
1.39202
1.39918
1.40381
1.4089
1.40574
1.38479
1.37279
1.37192
1.37447
1.37976
1.3915
1.42735
1.46084
1.47543
1.48287
1.48874
1.49337
1.48356
1.4601
1.44893
1.44929
1.45404
1.46245
1.48876
1.52796
1.55219
1.56457
1.57353
1.58039
1.57961
1.5582
1.53426
1.52649
1.52911
1.53811
1.56797
1.60565
1.62867
1.64013
1.64513
1.64671
1.63714
1.60412
2.67529
8.80441
1.09272
1.09614
1.10031
1.11395
1.13133
1.13941
1.14357
1.14692
1.15004
1.15033
1.14362
1.14109
1.14308
1.14627
1.14997
1.16002
1.18154
1.1945
1.20024
1.20412
1.20769
1.20949
1.20145
1.19424
1.19469
1.19776
1.20161
1.20834
1.23019
1.25186
1.26077
1.2655
1.26938
1.2725
1.26484
1.25179
1.24943
1.25195
1.25566
1.2605
1.27562
1.30568
1.32304
1.3308
1.33652
1.34153
1.34028
1.32154
1.30877
1.30883
1.31305
1.31805
1.32512
1.35148
1.38342
1.39787
1.40588
1.4125
1.41784
1.41127
1.3878
1.37522
1.37567
1.38087
1.38717
1.39893
1.43414
1.46531
1.47915
1.48792
1.49558
1.50064
1.49016
1.46518
1.45239
1.45291
1.45906
1.46897
1.4968
1.53401
1.55592
1.5678
1.57723
1.58515
1.58509
1.56211
1.53609
1.52681
1.52855
1.5366
1.56659
1.60476
1.62697
1.63642
1.64051
1.63817
1.63298
2.67011
8.8315
1.09618
1.09899
1.10202
1.10956
1.12814
1.14097
1.14654
1.15023
1.15356
1.1561
1.15182
1.14554
1.14572
1.14835
1.15176
1.15678
1.17351
1.19414
1.2031
1.20757
1.21115
1.21449
1.21205
1.20094
1.19755
1.19988
1.20356
1.20756
1.21788
1.24401
1.26148
1.26861
1.2731
1.27712
1.27816
1.2655
1.25446
1.25366
1.2564
1.26047
1.26646
1.28748
1.31746
1.3318
1.33818
1.34262
1.34724
1.34468
1.32566
1.31541
1.31521
1.31765
1.3223
1.33139
1.36233
1.39382
1.40731
1.41369
1.41819
1.42321
1.41734
1.39498
1.38344
1.38283
1.38547
1.39081
1.40453
1.44287
1.47436
1.48769
1.49482
1.50086
1.50576
1.49684
1.47231
1.45901
1.45834
1.46263
1.4713
1.50105
1.54014
1.5629
1.57481
1.5832
1.58956
1.58894
1.56623
1.53807
1.52667
1.52732
1.53433
1.56412
1.60231
1.62317
1.63176
1.63114
1.64606
2.69426
8.85615
1.09993
1.10149
1.10428
1.1083
1.1218
1.14076
1.14951
1.15381
1.15712
1.16021
1.16013
1.15226
1.14895
1.1508
1.15408
1.15771
1.16576
1.18768
1.20401
1.21066
1.21457
1.21817
1.22049
1.21252
1.20303
1.2026
1.20523
1.20871
1.21332
1.22901
1.25629
1.27042
1.27688
1.28125
1.28518
1.2823
1.26557
1.25714
1.25849
1.26235
1.26659
1.27318
1.29786
1.32643
1.33891
1.34555
1.35122
1.35589
1.349
1.32759
1.31792
1.31949
1.32411
1.32917
1.33817
1.36931
1.399
1.41188
1.41994
1.42662
1.43149
1.42369
1.39976
1.38645
1.38631
1.39144
1.39806
1.41203
1.44858
1.47759
1.49078
1.49983
1.50768
1.51274
1.50308
1.47692
1.46151
1.46037
1.46579
1.4761
1.50625
1.54445
1.56665
1.57833
1.58694
1.59347
1.59301
1.57002
1.53952
1.52567
1.525
1.53104
1.56067
1.59784
1.61797
1.62211
1.64519
2.74154
8.88022
1.1037
1.10391
1.10668
1.10999
1.11694
1.13595
1.15072
1.15678
1.16039
1.16372
1.16649
1.16218
1.15435
1.15388
1.1564
1.15964
1.16356
1.17651
1.20044
1.21275
1.2182
1.22193
1.22543
1.22486
1.21279
1.20599
1.20711
1.21052
1.21433
1.22
1.24096
1.26693
1.27826
1.28399
1.28832
1.292
1.28604
1.26924
1.26326
1.26435
1.2672
1.27157
1.28048
1.30936
1.33634
1.34748
1.35302
1.35696
1.36136
1.3544
1.33402
1.32571
1.32588
1.32821
1.33298
1.34426
1.37902
1.40898
1.42112
1.42703
1.43149
1.43641
1.43079
1.40797
1.39489
1.39376
1.39631
1.40153
1.4166
1.45603
1.48632
1.499
1.50582
1.51185
1.51743
1.51025
1.48426
1.46788
1.46558
1.46915
1.47721
1.50721
1.54703
1.57045
1.58224
1.59013
1.59603
1.59599
1.57389
1.5408
1.52376
1.52165
1.52702
1.55616
1.59189
1.60716
1.63589
2.79736
8.90161
1.10887
1.107
1.10928
1.11238
1.11592
1.12747
1.14832
1.1591
1.16409
1.16756
1.17085
1.17176
1.1632
1.1576
1.15853
1.16138
1.16483
1.1704
1.18921
1.21152
1.22107
1.22572
1.2292
1.23248
1.22746
1.21415
1.21058
1.21271
1.21606
1.21974
1.2271
1.25228
1.27612
1.28611
1.29188
1.29666
1.29985
1.28912
1.27114
1.26649
1.2693
1.27355
1.27799
1.28747
1.3177
1.34286
1.35323
1.35989
1.36557
1.36955
1.35947
1.33734
1.32824
1.32995
1.3348
1.34023
1.35113
1.38453
1.41248
1.42452
1.43253
1.43914
1.44411
1.43799
1.41439
1.39869
1.39687
1.40149
1.40814
1.42367
1.46084
1.48848
1.50133
1.51103
1.51902
1.52449
1.51661
1.48897
1.46993
1.46633
1.4705
1.47915
1.50804
1.54819
1.57231
1.5842
1.59231
1.59818
1.59874
1.57767
1.54181
1.5211
1.51751
1.52182
1.55139
1.58043
1.61665
2.85306
8.91854
1.11611
1.11109
1.11185
1.11426
1.11732
1.12256
1.14014
1.15933
1.16725
1.17124
1.17448
1.17751
1.17453
1.16424
1.16163
1.1638
1.1671
1.17056
1.17795
1.20111
1.2209
1.22885
1.23334
1.23701
1.2392
1.2292
1.21701
1.21517
1.2174
1.22087
1.22511
1.23534
1.26351
1.2848
1.2933
1.29817
1.30218
1.30499
1.2935
1.27733
1.27369
1.27503
1.27797
1.28267
1.29488
1.32775
1.35214
1.36181
1.36667
1.37057
1.37508
1.36647
1.34526
1.33684
1.33687
1.33894
1.3436
1.35615
1.39226
1.42141
1.43315
1.43889
1.4436
1.44926
1.44598
1.42299
1.4067
1.40397
1.40611
1.41107
1.42658
1.46641
1.49717
1.51035
1.51738
1.52319
1.52885
1.52329
1.49611
1.47542
1.47056
1.47315
1.48048
1.50741
1.54824
1.57392
1.58644
1.59421
1.59955
1.60007
1.58071
1.54284
1.5179
1.51176
1.51637
1.54127
1.58737
2.89495
8.93068
1.12407
1.11701
1.11458
1.11674
1.11985
1.1232
1.13147
1.15302
1.16823
1.17441
1.17802
1.1814
1.18368
1.17614
1.1673
1.16684
1.16902
1.17202
1.17596
1.18667
1.21283
1.22998
1.237
1.24119
1.24478
1.24477
1.23049
1.21979
1.21978
1.22318
1.22694
1.23107
1.24309
1.27277
1.29212
1.30009
1.30555
1.31054
1.31213
1.29709
1.28005
1.27689
1.28008
1.28457
1.2892
1.30129
1.33376
1.35679
1.36645
1.37329
1.37901
1.38281
1.37288
1.35038
1.33958
1.34026
1.34486
1.35051
1.36251
1.39646
1.42385
1.43604
1.44445
1.45122
1.45657
1.45292
1.42983
1.4108
1.40661
1.41044
1.41678
1.4322
1.46972
1.49872
1.5121
1.52173
1.53005
1.53606
1.53064
1.50246
1.47916
1.47266
1.47497
1.48138
1.5058
1.54726
1.57434
1.58726
1.5948
1.59959
1.59989
1.58266
1.54469
1.51451
1.50502
1.50495
1.55069
2.91009
8.94175
1.13048
1.12696
1.11953
1.11989
1.12236
1.12529
1.12888
1.14125
1.16461
1.17668
1.18193
1.18543
1.18875
1.18848
1.17698
1.17019
1.17111
1.17427
1.17778
1.18222
1.19646
1.22323
1.23779
1.24421
1.24861
1.25225
1.24978
1.2342
1.22585
1.22612
1.22826
1.23174
1.23652
1.25211
1.28267
1.30035
1.30759
1.31175
1.31565
1.31768
1.30342
1.28766
1.28459
1.28573
1.28854
1.29336
1.30786
1.34257
1.3659
1.3749
1.37952
1.38346
1.38821
1.38116
1.35907
1.34814
1.34741
1.34942
1.3538
1.36632
1.40277
1.43269
1.44478
1.45071
1.4555
1.46143
1.46076
1.43884
1.41858
1.41333
1.41447
1.41877
1.43247
1.47183
1.50604
1.52146
1.52907
1.53516
1.54031
1.53627
1.50941
1.48385
1.47516
1.47633
1.4819
1.50402
1.54513
1.57351
1.58696
1.59436
1.59865
1.59862
1.58366
1.54635
1.51324
1.49307
1.51009
2.88841
8.9565
1.13482
1.1377
1.12819
1.1235
1.12449
1.127
1.13012
1.13529
1.15309
1.17536
1.18492
1.18931
1.19245
1.19553
1.19144
1.17864
1.17494
1.17691
1.18003
1.18329
1.18795
1.20565
1.23251
1.2457
1.25192
1.25647
1.26006
1.25488
1.23704
1.22896
1.23044
1.23424
1.23809
1.2426
1.25939
1.28991
1.30625
1.31348
1.31922
1.32418
1.32491
1.30834
1.291
1.28747
1.29055
1.29521
1.3001
1.31366
1.34697
1.36913
1.37874
1.38575
1.39156
1.39574
1.3886
1.36568
1.35163
1.3505
1.35474
1.36045
1.37251
1.40617
1.43427
1.44724
1.45612
1.4633
1.4689
1.46775
1.44567
1.42258
1.41518
1.41768
1.4236
1.43675
1.47322
1.50698
1.52282
1.53182
1.53952
1.54572
1.54303
1.51641
1.48858
1.47764
1.47763
1.48202
1.50094
1.54159
1.57202
1.58647
1.59338
1.59663
1.59592
1.58268
1.54828
1.5052
1.48901
2.82933
8.97535
1.13855
1.14402
1.13973
1.12949
1.1274
1.12956
1.13268
1.13594
1.14268
1.16423
1.18429
1.19246
1.19677
1.20015
1.20249
1.19378
1.18171
1.17959
1.1815
1.18459
1.18841
1.19442
1.21529
1.24111
1.25271
1.25823
1.26244
1.26582
1.2601
1.24328
1.23653
1.237
1.239
1.24254
1.24799
1.26786
1.29891
1.31468
1.32121
1.32496
1.32902
1.33114
1.31632
1.29947
1.29564
1.29648
1.29892
1.30367
1.3189
1.35436
1.37798
1.38713
1.39181
1.39589
1.40099
1.39718
1.37503
1.36017
1.35787
1.35945
1.36347
1.37491
1.41053
1.4427
1.45632
1.46263
1.46727
1.47313
1.47491
1.45526
1.43089
1.42232
1.42227
1.4255
1.4353
1.47078
1.50992
1.52966
1.53856
1.54476
1.54954
1.54805
1.52472
1.49416
1.47961
1.47788
1.48131
1.49746
1.53752
1.56961
1.58475
1.59115
1.59355
1.59188
1.58108
1.54228
1.49799
2.75102
9.00223
1.14159
1.14782
1.14914
1.14065
1.1327
1.13284
1.13511
1.13787
1.14133
1.15029
1.17492
1.19328
1.20058
1.20455
1.20781
1.20844
1.1958
1.18473
1.18418
1.18724
1.19083
1.19429
1.20037
1.22352
1.24869
1.25951
1.26518
1.26998
1.27361
1.2659
1.24695
1.23941
1.24113
1.24498
1.24904
1.25403
1.27383
1.30426
1.31922
1.32647
1.33243
1.33738
1.33852
1.32289
1.30382
1.29821
1.30067
1.3052
1.31041
1.3242
1.35741
1.38022
1.39043
1.39781
1.40376
1.40833
1.40474
1.38263
1.36448
1.36063
1.36421
1.36986
1.3809
1.41296
1.44334
1.45772
1.46727
1.47517
1.48108
1.48217
1.46273
1.43556
1.42371
1.42405
1.42908
1.43879
1.47047
1.5096
1.53086
1.54101
1.54825
1.55378
1.55371
1.53186
1.499
1.48134
1.47793
1.48017
1.49328
1.53247
1.56668
1.58245
1.58808
1.58907
1.58802
1.57305
1.53962
2.69521
9.03402
1.1442
1.15156
1.15428
1.15313
1.14189
1.13629
1.13738
1.14032
1.14351
1.14744
1.15906
1.18481
1.20095
1.20778
1.21201
1.21549
1.21408
1.19959
1.19063
1.1905
1.1923
1.19531
1.19931
1.20735
1.23284
1.25665
1.26658
1.27159
1.27507
1.27841
1.27203
1.25447
1.24756
1.24785
1.24957
1.25307
1.25886
1.28099
1.31245
1.32779
1.33409
1.33769
1.34181
1.34483
1.33213
1.31288
1.30677
1.30709
1.30911
1.31359
1.32772
1.36327
1.38886
1.39883
1.4037
1.40776
1.41317
1.41316
1.39304
1.37375
1.36882
1.36947
1.37282
1.3818
1.41422
1.45026
1.46714
1.47443
1.47906
1.48456
1.4883
1.47308
1.44496
1.43147
1.42963
1.43188
1.43791
1.46574
1.50893
1.53442
1.54538
1.55151
1.55568
1.55615
1.53839
1.50447
1.48249
1.4767
1.47816
1.48894
1.52708
1.56291
1.57902
1.58347
1.58496
1.57911
1.58
2.68549
9.06272
1.14523
1.15531
1.15788
1.16074
1.15621
1.14426
1.14129
1.14327
1.14625
1.14928
1.15323
1.16668
1.19332
1.20864
1.2154
1.21975
1.22313
1.21986
1.20301
1.19373
1.19449
1.19798
1.20175
1.20542
1.21346
1.24002
1.26288
1.27217
1.27776
1.28276
1.28635
1.27845
1.25898
1.25033
1.25154
1.25535
1.25961
1.26486
1.28566
1.31612
1.3311
1.33863
1.34486
1.34985
1.35241
1.34001
1.31864
1.30956
1.31062
1.31496
1.3203
1.33286
1.36535
1.39004
1.40123
1.40937
1.41576
1.4207
1.42052
1.401
1.37872
1.3712
1.37333
1.37849
1.38713
1.41527
1.44955
1.46711
1.47746
1.48637
1.49267
1.49585
1.48139
1.45136
1.43364
1.43061
1.43429
1.44111
1.46518
1.50675
1.53374
1.54544
1.5522
1.55771
1.55984
1.54486
1.50969
1.4839
1.4756
1.47584
1.48436
1.52134
1.55821
1.57421
1.57935
1.57487
1.59878
2.71272
9.08723
1.14213
1.15891
1.16245
1.16573
1.16775
1.15885
1.14788
1.14639
1.14825
1.15094
1.15425
1.15904
1.17475
1.20129
1.2154
1.22153
1.22586
1.22914
1.22517
1.20918
1.20139
1.2016
1.20326
1.20615
1.21026
1.22041
1.24843
1.27069
1.27968
1.28426
1.28736
1.29122
1.28591
1.2675
1.25898
1.25874
1.26004
1.26323
1.26887
1.29098
1.3234
1.33968
1.34629
1.34997
1.35407
1.3583
1.34986
1.32841
1.31851
1.31775
1.31921
1.32314
1.3349
1.36938
1.3982
1.41001
1.41551
1.41939
1.42468
1.4274
1.41115
1.38806
1.37943
1.3787
1.38081
1.38696
1.41321
1.45385
1.47666
1.48578
1.49082
1.49561
1.50026
1.49138
1.46215
1.44183
1.43659
1.43714
1.44078
1.45966
1.50338
1.53567
1.54938
1.55538
1.55944
1.56147
1.55069
1.5157
1.48514
1.47356
1.47263
1.4794
1.51512
1.55188
1.5689
1.56875
1.60128
2.76747
9.11119
1.13239
1.15951
1.16656
1.17038
1.17343
1.17391
1.16177
1.15171
1.15124
1.15397
1.15712
1.16011
1.16433
1.18136
1.20842
1.22202
1.22819
1.23274
1.23646
1.23202
1.21424
1.20476
1.20537
1.20882
1.21265
1.21644
1.22586
1.25384
1.27541
1.28425
1.29018
1.29528
1.29916
1.29331
1.27354
1.26209
1.26175
1.26521
1.26961
1.27493
1.29467
1.3257
1.342
1.35026
1.35701
1.36221
1.36592
1.35809
1.33546
1.32177
1.32058
1.32445
1.32954
1.33997
1.37064
1.39827
1.41111
1.41993
1.42724
1.43277
1.43514
1.41968
1.39383
1.38129
1.38113
1.38578
1.39254
1.41456
1.45233
1.47528
1.48661
1.49612
1.50305
1.50749
1.49964
1.46967
1.44476
1.43662
1.43817
1.44331
1.46007
1.50091
1.53439
1.54906
1.55586
1.56046
1.56299
1.55529
1.52131
1.48593
1.47063
1.46863
1.47475
1.50881
1.54476
1.55621
1.59481
2.83155
9.13267
1.12124
1.14943
1.16671
1.17407
1.17843
1.18185
1.18046
1.16639
1.15783
1.15745
1.15871
1.16114
1.1647
1.17034
1.18964
1.2159
1.22862
1.23429
1.23809
1.24129
1.23806
1.22212
1.21323
1.21285
1.21409
1.21671
1.2208
1.23172
1.26097
1.28318
1.29214
1.29664
1.29984
1.30415
1.30161
1.28314
1.2711
1.26944
1.27029
1.27291
1.27809
1.29804
1.33196
1.35086
1.35835
1.36241
1.3663
1.37111
1.36742
1.34584
1.33114
1.32833
1.32889
1.33204
1.3408
1.37227
1.40592
1.42132
1.42794
1.432
1.4367
1.44106
1.43056
1.40468
1.39067
1.38812
1.38898
1.39303
1.41027
1.45143
1.48255
1.49528
1.50119
1.50518
1.50986
1.50755
1.48133
1.45395
1.44333
1.44191
1.44391
1.45496
1.49473
1.53273
1.54971
1.55663
1.56098
1.56358
1.55835
1.52679
1.48736
1.46797
1.46477
1.46967
1.50299
1.53039
1.57683
2.89423
9.14833
1.1183
1.13077
1.15837
1.17527
1.18223
1.18654
1.18978
1.18637
1.16985
1.16045
1.16091
1.16398
1.16736
1.17077
1.17586
1.19569
1.22189
1.2341
1.23996
1.24484
1.2489
1.24578
1.22806
1.21651
1.21596
1.21912
1.22302
1.22687
1.2364
1.26463
1.28667
1.29606
1.30255
1.30784
1.31201
1.30946
1.29056
1.27494
1.27185
1.27471
1.27908
1.28453
1.30171
1.33344
1.35234
1.3615
1.36888
1.37454
1.37885
1.37552
1.35381
1.33505
1.33046
1.33344
1.33859
1.34707
1.3744
1.40661
1.42255
1.43124
1.4391
1.44504
1.44889
1.43974
1.41251
1.39344
1.38924
1.3924
1.39788
1.41212
1.44881
1.4796
1.4939
1.50354
1.51166
1.51673
1.51507
1.48962
1.45774
1.4426
1.44075
1.44423
1.45493
1.49135
1.53012
1.54863
1.55622
1.56083
1.5636
1.56071
1.53244
1.48957
1.4652
1.45984
1.46496
1.49054
1.54748
2.94075
9.15908
1.11941
1.12481
1.14076
1.16785
1.18264
1.18894
1.19308
1.19583
1.19094
1.17518
1.1677
1.1679
1.16933
1.17167
1.17534
1.18165
1.20317
1.22914
1.24121
1.2466
1.2498
1.25299
1.25206
1.23674
1.22517
1.2236
1.22449
1.22665
1.23058
1.24095
1.27078
1.29476
1.30441
1.30906
1.31202
1.31626
1.31701
1.3009
1.28443
1.28039
1.28096
1.28294
1.28737
1.30322
1.33763
1.3608
1.37014
1.37484
1.37826
1.38311
1.3836
1.36495
1.3452
1.33952
1.33945
1.34149
1.34737
1.37143
1.40884
1.43066
1.4393
1.44385
1.44794
1.45282
1.44924
1.42454
1.40356
1.39727
1.39682
1.39928
1.40853
1.44368
1.48328
1.5023
1.50974
1.51387
1.51784
1.51913
1.49977
1.46702
1.44906
1.44482
1.44591
1.45177
1.48395
1.52565
1.54725
1.55612
1.5608
1.56309
1.5608
1.53675
1.49313
1.463
1.45451
1.45267
1.50971
2.95572
9.16723
1.12324
1.12783
1.13298
1.14848
1.17429
1.18821
1.19425
1.19855
1.20214
1.19833
1.18127
1.17141
1.17147
1.17459
1.17824
1.18178
1.18721
1.20811
1.23381
1.2455
1.25151
1.25669
1.26095
1.26017
1.24361
1.22881
1.22608
1.22878
1.2328
1.23707
1.24606
1.27366
1.29711
1.30729
1.31397
1.31954
1.32399
1.32484
1.30977
1.29015
1.28304
1.2846
1.28871
1.29385
1.30674
1.33792
1.36115
1.372
1.38007
1.38654
1.39129
1.3918
1.37379