/*--------------------------------*- C++ -*----------------------------------*\
  =========                 |
  \\      /  F ield         | OpenFOAM: The Open Source CFD Toolbox
   \\    /   O peration     | Website:  https://openfoam.org
    \\  /    A nd           | Version:  12
     \\/     M anipulation  |
\*---------------------------------------------------------------------------*/
FoamFile
{
    format      ascii;
    class       surfaceScalarField;
    location    "4.48";
    object      phi;
}
// * * * * * * * * * * * * * * * * * * * * * * * * * * * * * * * * * * * * * //

dimensions      [1 0 -1 0 0 0 0];

internalField   nonuniform List<scalar> 
33852
(
0.000251329
2.24281e-05
-0.000273757
-0.000246121
1.32441e-05
0.000232877
-0.000175717
-7.17455e-05
0.000246038
0.000304053
-0.000163969
-0.000140085
0.000292623
-4.29532e-05
-0.000250409
2.72441e-05
-0.000260681
0.000233437
0.000315711
1.48277e-05
-0.000331363
0.000304277
-9.59564e-05
-0.000208321
0.000286413
-3.50841e-05
0.000218397
6.90266e-07
-0.000216449
0.000289844
-0.000366827
7.69915e-05
0.000359782
-4.57418e-05
-4.39602e-05
0.000263285
-0.000219325
-4.38788e-05
0.000318363
-0.000274628
6.08429e-05
-0.000237234
0.000252057
1.2236e-05
-0.000264293
0.000264853
-1.2796e-05
-0.000278433
3.23121e-05
0.000340886
-5.11891e-05
0.000158593
0.000112308
-0.000270901
-2.43414e-05
0.000303341
-0.000279094
0.000271377
-0.000276165
4.78802e-06
-1.76924e-05
0.000275099
-0.000256864
-0.000219771
1.46687e-05
0.000208123
-0.000153491
-0.000183811
0.000337948
-0.000153851
-7.56909e-05
0.000206509
3.72401e-05
0.000267037
-6.13488e-05
-0.000263489
0.000324966
-0.000202049
1.86725e-06
0.000210777
-0.000201045
-1.86008e-05
0.000142045
0.000137388
-0.000279433
0.000340096
1.92e-05
0.000142618
0.000128347
-0.000270965
-0.000101136
0.000259729
-0.000250489
-3.78001e-06
0.000254269
0.000330724
-5.95317e-05
-0.000271162
-0.000356503
0.000203437
-0.000227023
0.000209675
0.000231645
3.32081e-05
-5.65602e-06
0.000237301
-7.35205e-06
0.000218743
-0.000232625
0.000259869
0.000316556
-5.73646e-05
-0.000259091
-0.000309093
5.51042e-05
0.000253989
0.000240553
-0.000301757
0.000273589
-0.000306321
3.27321e-05
-0.000180237
-5.49362e-05
0.000235173
0.000272133
-0.000272133
0.000148429
-0.000297473
0.000149045
-0.000208289
0.000217556
-7.24241e-06
-0.000268241
0.000237301
3.09401e-05
-0.000199257
0.000249164
-4.74325e-05
-9.16164e-05
-0.000217477
-0.000114552
-0.000252202
-0.000280169
0.000266113
1.40561e-05
0.000328494
1.17861e-05
-0.000250433
7.01963e-05
0.000117908
0.000145909
-0.000263817
1.34681e-05
-0.000267457
0.000253989
-0.000134569
0.000282997
-0.000147576
-4.92041e-05
0.000193509
-0.000274681
0.000245113
2.95681e-05
0.000237553
-0.000268437
3.08841e-05
-0.000179243
-2.20657e-05
0.000151665
0.000115565
-0.00026723
-0.000192924
-2.85478e-05
0.000221938
0.000263985
2.24281e-05
0.000275941
-2.35201e-06
0.000265329
-0.000250741
-1.45881e-05
0.000241595
-6.80836e-05
-0.000174777
-1.82001e-06
0.000239373
0.000367218
-0.000313336
-5.38767e-05
-2.82043e-05
0.000303881
-0.000275867
-0.000101584
0.000219493
0.000342612
2.42034e-05
-0.000372406
0.000353741
1.82524e-05
-0.000213745
2.25841e-05
0.000307912
-0.00032159
1.21558e-05
-0.000206073
0.000269386
-6.33649e-05
-4.45202e-06
1.71801e-05
-0.00031917
0.000302346
0.000232945
-0.000197725
-3.51097e-05
0.000270349
-0.000339164
7.01754e-05
0.000334241
-6.36045e-05
-0.000268941
0.000236573
3.23681e-05
-0.000129388
-0.000132609
0.000261997
-1.86761e-05
-0.000249565
-1.022e-05
-0.000258721
2.29346e-05
0.000210151
-0.00023342
3.30778e-05
-0.000239056
0.000205037
-2.49256e-05
0.0003269
-0.000301903
-0.000279329
0.000273701
5.62802e-06
0.000156129
-0.000296857
0.000140729
-6.00129e-05
-0.000142881
0.000219734
0.000143277
0.0001218
-0.000265077
-0.000250021
0.000225612
-0.00020352
0.000159147
-0.000168813
0.000327181
-0.000158369
0.000185389
7.16523e-05
-0.000257041
0.000255193
2.07481e-05
-0.000192277
0.000148317
5.00216e-05
0.0002663
0.000307288
-0.000289943
9.72354e-05
-0.000259599
0.000135241
0.000117096
-0.000281065
-1.11458e-06
0.000244865
-0.000244226
0.000166489
0.000122836
-0.000289325
0.00014358
9.01636e-05
-3.92002e-06
0.000259113
0.000302171
5.43685e-06
-0.000323874
0.000314944
8.94843e-06
-3.99002e-05
0.000236293
-0.000196393
4.08802e-06
-0.000284257
-2.51089e-05
0.000163368
-0.000141905
-0.000158919
0.000130864
0.000225926
-0.00019206
-0.000269921
0.000264965
4.95602e-06
2.64041e-05
0.000174721
-0.000201125
2.87841e-05
-0.000257265
0.000228481
0.000276137
-0.000262669
0.000115108
0.000212073
0.000215097
-0.00019173
-0.000175813
0.000202217
1.38108e-05
0.000282925
-0.000296742
0.000269359
2.16647e-05
0.000270995
-0.000284022
1.2401e-05
3.86402e-06
0.000267513
-1.8129e-05
0.000289011
0.000330749
9.87158e-06
0.000213687
-0.000257638
0.00031617
-0.000316246
-6.63603e-06
-0.000272693
2.87226e-05
0.000198423
0.000187993
3.98722e-05
-0.000227865
-5.24061e-05
0.000207856
-0.000152106
0.000153609
-0.000270285
0.000116676
0.000279441
-0.000329701
5.02602e-05
-6.38122e-05
0.000249201
-0.000166909
0.000315897
-0.000148989
-0.000313795
-1.00955e-05
-0.000214929
0.000175029
2.78601e-05
-0.000278349
0.000276221
-1.88441e-05
-0.000248613
1.70938e-05
-0.000302182
0.000284872
0.000344989
-0.000158593
-0.000186397
-1.69257e-05
-0.000241052
0.00025754
-0.000266617
-3.30401e-06
0.000224001
2.45841e-05
-0.000248585
0.000284509
-0.000128381
0.000140197
0.000138853
-0.000279049
-0.000197031
-1.07771e-05
0.000258169
-0.000115551
0.000225562
-0.000242527
-6.38122e-05
0.000251805
-0.000206539
0.000249481
-5.60002e-07
-0.000248921
0.000255109
-0.000237441
-0.000323917
0.000299099
-3.08841e-05
0.000203169
-0.000172285
0.000292068
1.36744e-06
-0.000293018
7.09294e-05
0.000125541
-0.000197576
4.36286e-05
-0.000199664
-0.000289785
-4.63223e-06
0.000294231
-1.5215e-06
-0.000288217
0.000146973
-0.000273925
0.000126952
-0.00026285
0.000220321
-0.000293677
0.000265258
0.000279441
-0.000312834
-1.24286e-05
0.000326333
0.00010997
0.000159793
-2.13287e-05
0.000351986
0.000140141
0.000139833
-0.000279973
0.000245029
-0.000250349
5.32002e-06
-0.000210953
0.000180069
0.000279133
-5.43202e-06
0.000351056
-3.27808e-05
-0.000300964
0.000304215
-1.01006e-06
0.000270985
-0.000270985
-0.000364412
0.000225825
0.000138681
-0.000201921
1.84522e-05
1.6878e-05
0.000275157
-0.000278461
3.30401e-06
-5.27127e-06
0.000169294
-0.000167051
-0.000197345
0.000254801
-5.74562e-05
-0.000201348
4.52504e-06
-0.000249415
0.000153439
7.65338e-05
-0.000180265
0.000261402
-8.11391e-05
0.000256285
-0.000287113
3.08281e-05
-0.000249229
5.18842e-05
-2.36255e-05
0.000275939
-0.000252127
-0.000253547
1.35801e-06
0.000252189
0.000231281
-7.28003e-06
-0.00029415
7.49961e-06
0.000286629
-0.000266085
0.000266085
-0.000283193
-5.4745e-05
-0.000170449
-0.000193908
-0.00017402
0.000215947
-4.30621e-05
-1.232e-05
-0.000239177
0.000251497
3.10801e-06
0.000210113
-0.000213221
-0.00018755
-2.266e-05
0.000209381
7.57835e-06
0.000294521
-0.000302083
-0.000236153
-1.34401e-05
0.000249593
1.50361e-05
-0.000251189
-0.000241025
0.000256061
-0.00030144
0.000309006
0.000256117
7.16803e-06
-0.000167835
-3.15212e-05
0.00019911
-0.000145237
-0.000134765
-0.000244329
0.000240549
0.000298389
-3.23092e-07
-0.000298108
-0.000299049
6.32342e-07
0.000298399
1.90912e-05
0.000181217
0.000163773
7.70043e-05
-0.000257269
-0.000159242
0.000310908
0.000250721
-0.000108677
-0.000235145
-1.83681e-05
0.000253513
-0.000204539
-0.000126727
0.000331397
-6.10402e-06
-0.000229125
0.000235229
-2.19332e-05
-0.000187184
-0.000286904
-8.57219e-05
6.35045e-06
-0.000300562
-0.000212489
0.000327642
-0.000115108
0.000281597
0.000288205
-5.16322e-05
0.000271993
-1.57081e-05
-0.000187204
-1.4071e-05
0.000200765
0.000297533
6.12289e-07
-0.000298227
-0.000269698
-3.21981e-05
-0.000218821
0.000247605
-2.52438e-05
0.000310602
-0.000285418
0.000178698
7.81858e-06
-0.000189406
-3.34748e-05
0.000210027
-0.00030134
0.000276059
0.0002913
5.77782e-06
-0.000298703
0.000157445
0.00011886
-0.000276305
0.000287867
4.9343e-06
-0.000293566
-0.000254552
0.00012351
0.000132794
-0.000281812
0.000295615
0.000302513
-0.000156857
-0.000145657
0.000207005
-0.000203897
-0.000232009
-0.000121156
-0.000155009
-4.14091e-06
-0.000293952
0.00029812
-1.0136e-05
0.000276249
0.000287527
-2.12753e-05
-0.000269737
-0.000262963
2.90312e-05
0.00023369
0.000271433
-0.000267569
0.000249621
2.95121e-05
0.000314779
-9.72872e-06
-0.00030472
4.79281e-05
0.000153948
-0.000194122
-0.000103706
0.000196003
-9.76909e-05
0.000252617
-2.91201e-05
-0.000223497
6.03232e-07
0.000290284
-0.000181109
-3.18503e-05
0.000213116
-1.69408e-06
0.000290611
-9.33244e-05
0.000246933
-0.000255417
-5.26402e-06
0.000121184
0.000181329
1.34121e-05
0.000241557
-0.000254969
0.000236097
1.34961e-05
-0.000249593
0.000249509
-0.000242929
0.000256425
6.36216e-05
-0.000201443
0.000140019
-0.000221892
0.000118248
-0.000204261
0.000297108
1.48315e-06
-0.000298657
0.000253849
2.22881e-05
0.000268493
-0.000216441
-5.20522e-05
0.000225518
-0.000246849
2.13305e-05
0.000257909
1.40841e-05
5.80907e-05
0.000294472
0.000267186
-3.89594e-05
-0.000228226
0.000175443
1.274e-05
0.000240297
-0.000253037
0.000196198
-0.000115482
-8.14986e-05
-0.000208765
2.16657e-05
-1.33995e-06
-0.00029682
0.000298115
0.000222787
-0.000169011
-5.31292e-05
0.000344629
-4.14156e-05
0.000275969
-0.000135829
2.31561e-05
0.000238337
-0.000261493
-0.000231141
0.000254297
-2.66772e-05
-0.000229736
0.000256409
0.000156478
-0.000164086
-7.63283e-05
-0.000171984
-0.000261723
4.14346e-05
0.000220288
-3.17521e-05
-0.00022997
7.6568e-06
0.000261717
-3.25193e-05
-0.000229198
1.68063e-05
0.000134118
-0.000213252
0.000308785
-0.000171397
0.000262319
-3.57923e-05
-0.000226526
-0.000318951
0.000174079
-9.64427e-05
-0.000228453
-6.90203e-05
-1.0982e-06
-0.000300632
0.000298211
-2.75459e-05
0.000173854
-0.000151931
0.000308389
6.91286e-06
0.000250097
-0.000248249
-1.84801e-06
-0.000176969
6.19075e-05
0.000260255
-3.07286e-05
-0.000229516
0.000197345
-0.000250769
5.34242e-05
0.000254206
-0.000231206
-2.29991e-05
-0.000252337
0.000240017
0.00014693
0.000103157
-0.000101864
-0.000170269
0.000132496
-0.000261885
-0.000290249
0.000242201
4.80483e-05
0.000216808
3.12477e-05
-0.000248057
-0.000238256
-9.36028e-06
0.000248844
0.00032651
-2.29916e-05
0.000263996
-3.42721e-05
-0.000229724
0.000141763
-0.000238885
9.03808e-05
3.63259e-05
-0.000265637
0.000229311
-0.000253905
0.000121296
0.000249817
-5.24722e-05
0.000294673
-0.000154253
-0.000140421
0.000122248
-0.000289157
1.53441e-05
0.000237665
-0.000253009
-0.000262031
3.54705e-05
0.00022656
-2.78951e-06
-3.77917e-05
-0.000224239
0.000248739
-0.000272088
-0.000264649
3.44737e-05
0.000230175
0.000193257
0.000101416
-0.000149941
0.000290137
-0.000169927
-3.85746e-05
0.000207928
-1.81721e-05
0.000263201
-0.000292699
0.000309689
0.000118287
0.00010433
0.000261325
-0.000261325
0.000309912
-2.0595e-05
-0.000288474
5.32002e-07
0.000248949
0.000254857
1.65761e-05
0.000309895
-0.000276711
-3.33782e-05
-2.26336e-05
0.000266577
-0.000243943
3.00077e-05
-0.000260519
0.000230511
-0.000252139
0.000229506
0.000327586
3.11501e-05
-0.000260598
0.000229447
0.000276809
-3.16961e-05
-7.51042e-06
-0.000293352
0.000301064
0.000270769
3.88166e-05
0.000230245
-0.000266617
3.63721e-05
0.00020039
-0.000200953
-0.000258301
0.000238533
1.97681e-05
0.000169762
-0.000257245
8.74835e-05
-0.000191205
0.000163241
-0.000249145
8.59043e-05
-0.000266169
0.000224813
4.13562e-05
0.000253073
-2.78797e-05
-0.000225194
0.000181046
4.31088e-05
-0.000234837
-2.29601e-05
0.000257797
-0.000236377
-2.28761e-05
0.000259253
-1.94265e-05
0.000255969
-0.000236542
-0.000259345
0.000239919
-3.31917e-05
0.00017124
-0.000235929
-2.24001e-05
0.000258329
-0.00025484
0.000229192
2.56481e-05
2.94001e-06
0.000211289
-0.000214229
-0.000267031
3.79849e-05
0.000229046
0.000270677
4.48002e-06
4.23715e-05
0.000177286
-0.00020555
-3.31198e-05
0.000249928
-2.11039e-05
0.000218597
9.73004e-05
0.0002482
-0.000216954
0.000278129
-0.000279622
0.000277792
-0.000282573
-1.84997e-05
0.000258601
-0.000240101
-0.000261644
0.000243145
3.14651e-05
-0.0002049
-2.98071e-05
-0.000202499
0.000234103
0.000314627
-0.000287669
-2.74978e-05
0.000261297
-3.11081e-05
-0.000230189
3.28739e-05
-0.000262362
0.000229488
-0.000229853
0.000259645
-2.97921e-05
0.000326267
-1.77443e-05
0.000154534
-0.000224601
0.000256929
-0.000109956
-0.000286264
0.000287971
0.000241977
-6.41202e-06
-0.000235565
0.000228537
-0.000184025
-3.6735e-05
0.000223231
2.83568e-05
-0.000207485
-0.000239989
0.000260317
-2.03281e-05
-0.000105042
0.000189249
-8.72416e-05
3.09184e-05
-0.000203612
0.000240169
-0.000263424
2.32552e-05
-0.000115584
0.000258861
-0.000243993
0.000265721
-2.17281e-05
-0.000238953
0.000232541
0.000258626
-0.000245105
-1.35213e-05
0.000264349
-2.46681e-05
-0.000246317
-0.000274369
-1.06593e-05
0.000297749
-5.32522e-05
-7.30998e-06
0.00029527
-0.000282858
-0.000162138
0.000220111
0.000228978
1.81887e-05
-0.000245878
0.000328878
-0.000328879
0.000260955
-0.000245018
-1.59377e-05
-0.000302087
-6.50635e-07
0.000304467
9.71273e-06
3.79399e-05
0.000170674
-0.000208204
0.000209445
-3.34928e-05
-0.000177339
0.000278054
-0.000255789
-2.22648e-05
-0.00021126
3.14233e-05
3.15421e-05
-0.000261891
0.000230348
0.000284906
-0.00029229
2.44721e-05
-0.000259617
-0.000257965
1.87881e-05
0.000266057
-1.64361e-05
0.000151173
-0.000267625
0.000116452
0.00029895
-4.45091e-06
0.000238617
-7.53763e-05
2.12521e-05
0.000177045
-0.000198297
-0.000183877
0.000205129
-0.000236275
0.000257219
-2.09441e-05
0.000261462
-3.31689e-05
-0.000228293
-0.000197009
-5.21362e-05
0.000251581
-1.48401e-06
8.92626e-06
-0.0002653
0.000256624
-0.000341941
0.000235913
0.000106341
0.000266371
-0.000236811
-2.95597e-05
0.000306727
-0.000314598
7.95425e-06
-2.57041e-05
-0.000229097
0.000254801
0.000261493
-7.64403e-06
1.0158e-05
-0.000208022
0.000262411
-3.19033e-05
-0.000230508
-6.90483e-05
-0.000260653
-0.000194685
0.000248025
-5.33402e-05
-0.000266533
0.000249985
1.65481e-05
-0.000318064
1.66373e-05
-1.70847e-05
0.000296463
-0.00027928
-0.000276221
1.65481e-05
0.000249537
-0.000171121
6.5142e-05
0.000273714
1.48034e-05
-0.000288571
-0.000315908
0.0003077
8.27193e-06
3.46641e-05
-0.000263649
0.000228985
-1.75133e-05
0.0002812
-0.000315306
1.63889e-05
-0.000176541
-7.42283e-05
-0.000230191
0.000203044
-2.16721e-05
-0.000216469
0.000238141
-0.000314719
0.0002953
1.88624e-05
-0.000133122
0.000273812
-0.000141765
-8.43847e-06
3.31521e-05
-0.000263453
0.000230301
-0.000203248
2.49035e-05
0.00017778
0.000221524
0.000281806
-0.000282092
1.7112e-07
-0.000236993
-2.20921e-05
0.000224813
-0.000202721
0.000139273
0.000143753
-0.000278517
0.000202244
-5.73924e-05
0.000307792
-1.08717e-05
0.000209286
-0.000268495
2.92853e-05
0.00022306
-0.000252345
-0.000322761
0.000138963
0.000296962
2.9273e-05
1.95045e-05
-0.000224355
-2.77845e-05
-0.000136591
-0.000132984
-0.000325847
0.00011348
0.000242873
2.56201e-05
0.000218765
-0.000224869
1.08368e-05
-0.000287749
0.000277094
-0.000241855
0.000269488
-2.72215e-05
0.00028126
-0.000281634
0.000287135
-7.72892e-05
-8.78989e-06
0.000290031
-1.87881e-05
0.000247101
-0.000228313
0.000281471
-0.000290369
-5.52527e-06
-0.000284013
0.00028927
0.000281953
-0.000269803
0.000284577
0.000226314
2.67597e-05
-0.00031129
0.00032008
-8.11316e-06
0.000251265
-2.10392e-05
0.000227183
2.42759e-05
-0.000268913
0.000246057
-2.05381e-05
-0.000259401
3.02849e-05
0.000229116
0.000178305
7.64963e-05
9.74786e-06
0.000283401
-0.000293352
-0.000238141
-2.88401e-05
0.000266981
2.51441e-05
-0.000263285
0.000284117
-0.000162317
-0.000232177
0.000261129
-2.89521e-05
-0.000234697
0.000260709
-2.60121e-05
1.4566e-06
0.000279507
2.45001e-05
-0.000259197
2.38001e-05
-0.000255977
0.000274291
-0.000242976
-3.13576e-05
0.000317774
-9.9882e-06
-0.000303776
-1.48633e-06
-0.000255753
1.1816e-05
0.000243937
-1.47487e-05
-0.000261185
0.000228065
-0.000245337
0.000270145
-2.48081e-05
-0.000263229
1.49801e-05
-2.36353e-05
0.00028632
-0.0002625
2.13641e-05
-0.000266701
-0.000241508
-2.13953e-05
3.27003e-05
-9.0432e-05
0.000260194
0.000280752
-0.000286599
5.05122e-05
0.000237693
0.000283083
-0.000282402
-0.000243181
-2.39401e-05
0.000267121
-0.000260894
7.34723e-06
-0.000295096
1.94807e-05
0.000276116
-0.000268717
2.55361e-05
-8.26403e-06
0.000290249
-0.000268326
0.000243549
2.47772e-05
-0.000232513
0.000210841
0.000280115
-0.000289798
-6.16002e-07
0.000260289
-0.000259673
-0.000301936
-1.60929e-05
-0.000264573
2.35481e-05
-0.00024417
-2.41556e-05
-3.43281e-05
-0.000297977
0.000293834
0.000286674
-0.000158327
0.000294422
-0.000290316
2.30152e-05
4.97467e-06
0.000262767
-0.000255469
-7.21538e-06
0.000307307
-2.02906e-05
-0.000287246
5.97739e-05
-0.000246765
-2.19521e-05
-0.00035625
0.000241723
0.000280097
-0.000274739
2.33801e-05
-0.000185654
-1.5886e-05
-0.000306499
2.56334e-05
0.000281002
-0.000196884
0.000310709
-0.000114119
0.000259841
-0.000238533
-2.13081e-05
-0.00029169
2.94001e-05
0.000222097
-0.000251497
-0.000150784
0.000128566
-0.0001585
0.000251441
-0.000238029
-1.34121e-05
-0.000263873
3.40201e-05
-2.23161e-05
-0.000269837
0.000251469
0.000230427
3.12901e-05
-4.72689e-05
0.000210996
0.000232619
-0.000260499
-1.74911e-05
-3.16472e-06
0.000247232
-0.000242779
-0.000293377
-0.000237049
0.000265189
-2.81401e-05
0.000230096
3.22225e-05
-0.000268521
2.55921e-05
-0.000239905
-2.86161e-05
0.000228954
-0.000260706
-0.000282818
4.73202e-05
-0.000242005
0.00029499
-0.000284836
-0.00028857
1.32506e-05
0.000275647
-5.44463e-06
0.000215706
0.000228551
-0.00026107
0.000296884
-0.0001309
-0.000165985
0.000240895
-0.000261965
0.00026946
-0.000226213
-1.76681e-05
-0.000164421
0.00030804
-0.000142283
2.49649e-05
0.000222662
-0.000247627
-0.000193163
0.000193022
-0.000283094
0.000281809
6.87714e-06
-0.000290443
-0.000302485
0.000146693
0.000155793
0.000259995
-0.000239359
-2.06361e-05
-0.000215741
0.000193649
0.000262344
4.11804e-07
0.000257293
0.000232526
2.16798e-05
-0.00029458
-6.1882e-05
1.04114e-05
0.000231483
-0.000250364
1.72921e-05
-0.000230917
-2.37161e-05
0.000254633
-0.000242295
0.000263191
-2.08965e-05
8.36853e-05
0.000135497
2.02942e-05
-0.000306009
0.000285368
0.000256565
-1.80041e-05
-0.000238561
0.000243881
-0.000254017
1.0136e-05
-0.000226745
0.000207957
0.000223131
-0.000258923
-0.000244693
4.76842e-05
1.59385e-05
-0.00013765
-0.000218612
1.57921e-05
0.000245701
0.000279726
0.000292621
0.000305567
1.70817e-06
0.000249817
-0.000220417
2.51749e-05
0.000225009
-0.000250184
-0.000243178
0.000268865
-2.56873e-05
2.28201e-05
-0.000262725
-0.000125835
0.00029523
9.10862e-06
2.08181e-05
0.000261675
-0.000235103
-2.65721e-05
1.32367e-05
-0.000303743
0.000290481
0.000321756
-3.0974e-05
-0.000290729
0.000249733
1.63241e-05
0.000306076
-0.000292877
-0.000229899
-0.000112035
9.63204e-06
0.000250657
-4.9129e-05
-0.00020239
0.000251519
2.20333e-05
0.000246832
-0.000241686
-2.29629e-05
0.000260737
-2.24001e-05
0.000287384
-0.000268023
2.63369e-05
2.68241e-05
-0.000257965
0.000210617
-0.000207677
2.58161e-05
-0.000262865
0.000279728
0.000121744
-0.000256173
0.000134429
1.79841e-05
3.82896e-05
0.000166282
-0.000200887
-0.000239485
-2.85377e-05
3.9672e-05
0.000159709
-0.000199808
-0.000246691
0.000271066
-2.43747e-05
0.000209866
-0.000248826
1.98857e-05
1.73253e-05
-0.000170708
-3.02632e-05
0.000226695
-0.000257411
-2.88401e-05
0.000244245
-0.000215405
-2.16161e-05
0.000242985
-0.000221369
0.000201657
-0.000250786
-0.000273625
-0.000232905
-2.55081e-05
0.000258413
0.000241234
2.98318e-05
-0.000211746
-2.40009e-05
0.000235306
-2.18821e-05
-0.000224967
-0.000239345
6.28042e-05
0.000259004
-0.000229718
4.75106e-05
-0.000249901
-3.43393e-05
0.000257694
-0.000223354
0.000205675
-0.000240014
0.000261689
-1.1956e-05
-6.06763e-05
-0.000229573
-0.000223892
-1.70289e-05
0.000242399
0.000247109
5.3175e-05
0.000212448
-0.000265623
-0.000261103
0.000177353
-0.000231757
5.44042e-05
6.50287e-05
0.000137936
0.000259457
-0.000240915
-2.47224e-05
-0.000265385
0.000227165
3.82201e-05
-2.87813e-05
-0.000222158
0.00025094
-0.000283848
0.000264161
0.000234501
3.61761e-05
2.18821e-05
0.000234087
-0.000307217
0.000151089
0.000156129
0.000168483
-5.29914e-05
0.000254045
-0.000115192
2.56901e-05
0.000217446
-0.000243136
-0.000286222
0.00028678
9.21158e-06
0.000257377
-0.000245953
0.000208937
3.70161e-05
0.000254832
0.000246281
-1.9518e-05
-0.000246815
-2.02161e-05
-0.000263019
2.0724e-05
-0.000269215
2.24001e-05
2.79601e-05
0.000220024
-0.000247984
0.000242481
-0.000274597
1.32721e-05
0.000245612
-1.4272e-05
1.29214e-05
-0.000249373
-0.000328425
0.000124044
-0.000233135
-2.62109e-05
-0.000252113
0.000252113
0.000259782
-0.000144217
-1.83538e-05
-0.000277805
0.00029688
0.000276119
0.000258749
-0.000135913
0.000224113
2.39205e-05
0.00023468
7.8373e-05
-0.000341354
3.79637e-05
0.000258962
1.76363e-05
-0.000248843
-3.00917e-05
0.000207453
-3.01001e-05
0.000259701
2.95429e-05
0.000218353
-0.000247896
-3.05014e-05
-4.09782e-05
-0.000217818
0.000258797
-0.000233423
-2.14173e-05
3.73822e-05
-0.000197858
0.000159851
-3.30877e-05
0.000221671
-0.000255943
-0.000281929
-8.52963e-06
0.000290587
-0.000193631
0.000161717
0.000166349
8.16763e-05
1.28512e-05
-0.000294844
0.000235075
2.59446e-05
-0.000261019
-0.000196084
-1.39991e-06
0.000232743
-0.000264287
3.15449e-05
-8.42803e-06
-0.000217029
0.000225457
-0.000162101
0.000198762
-0.000249985
-3.46025e-05
0.000256274
0.000218076
-0.000252679
-0.000246289
0.000272245
-2.59561e-05
0.000253547
2.78321e-05
-0.000232062
-2.95821e-05
-0.000298412
0.000316625
-1.82561e-05
2.34007e-05
0.000212462
-0.000250254
-0.000267233
2.09441e-05
-2.12801e-05
-0.000245953
-3.61481e-05
0.00024861
-0.000290144
-1.36561e-05
0.00022082
-0.000256968
0.000246923
-0.000250402
1.7872e-06
2.80002e-06
0.000181413
-0.000184213
0.000255294
0.000234529
2.67681e-05
-2.62361e-05
0.000245001
-0.000218765
3.36001e-05
0.000216609
-0.000250209
0.000244861
2.73841e-05
0.000306545
-0.000143949
-0.000162597
1.57221e-05
0.000237368
-0.00025421
0.000271013
-0.000113568
0.000225569
-0.000256677
-0.000241231
0.00010474
-0.000265469
7.16803e-06
-0.000241635
-2.75801e-05
-0.000241361
-2.48081e-05
0.000309796
-2.76233e-05
-7.67483e-05
0.000243097
-1.1452e-05
-0.000215601
0.000224281
-8.68003e-06
0.000255193
-7.68883e-05
3.45502e-05
-0.000199377
0.00016689
-0.000265245
-1.40001e-07
-4.14962e-05
3.94946e-05
0.000156256
-0.000197766
0.000201858
-0.000165467
0.000257041
-7.05603e-06
0.000251151
-0.000218277
-1.82292e-05
-2.1128e-05
0.000273978
-9.36058e-05
-0.00017845
-1.42801e-05
-0.000191913
0.000206193
0.000258665
-1.53553e-05
-0.00024331
1.98101e-05
0.000238855
-0.000279744
-8.23621e-06
3.72007e-05
-0.000196948
0.000162069
1.36921e-05
0.000247997
-0.00016091
0.000201088
-1.95189e-05
0.000248711
3.25011e-05
0.000189399
-0.000221149
-4.17202e-06
-2.49389e-05
0.000265108
-0.000231955
-3.14693e-05
0.000296938
-0.000281601
-1.5498e-05
1.63717e-05
-0.000237659
0.000221288
-0.00010514
0.000226885
1.92946e-05
-0.00030567
0.000285803
2.52001e-05
-2.79441e-05
2.69165e-05
0.00030912
-0.000290352
0.000238891
1.97345e-05
2.15601e-06
0.000231617
-0.000233773
-0.000309748
2.56344e-05
0.000284353
-0.000162177
-0.000144145
0.000209178
-0.000250156
-0.000165452
0.000241924
1.90317e-05
0.000255614
-4.13534e-05
0.000250531
0.000214498
-0.000255851
0.000318749
-0.000318965
-1.05052e-05
0.000286713
-0.000276153
-0.00030296
1.97713e-05
0.000283134
4.20842e-05
-0.000286413
-3.93197e-05
0.000252483
2.62921e-05
-2.21882e-05
0.00030724
-0.000285101
2.43321e-05
3.9574e-05
0.000160604
-0.000199961
0.000249294
-0.000219751
2.83277e-05
-0.000261633
4.36802e-06
-1.99905e-05
0.000306774
-0.000286829
-0.000250987
-0.000266673
3.07441e-05
0.000252141
-0.000236741
-1.54001e-05
1.2264e-05
0.000239877
-0.000275424
-1.28539e-05
0.000255697
-7.06876e-06
0.000316083
-1.18893e-05
0.000297918
-0.000287149
-5.0063e-05
0.000247437
-0.000235621
0.000257601
-1.99361e-05
0.000134403
8.48604e-05
-0.000235156
0.000211412
3.03493e-05
0.000226759
-0.000258662
3.71393e-05
0.00027166
-0.000288175
1.69669e-05
0.000251273
-0.000239093
-1.31321e-05
0.000252225
-2.91201e-05
-0.000257265
2.56481e-05
0.000231617
-0.000228005
-2.92601e-05
0.000259765
-0.000233571
-2.61941e-05
0.000258721
-0.000267025
2.30195e-06
0.00029071
1.23307e-06
-0.000291844
0.000247783
-0.000232428
-1.85921e-05
0.000308711
-0.000300784
-8.02017e-06
0.000244059
-0.000102565
-0.000266897
2.56761e-05
0.000241221
-3.48881e-05
-0.000232009
-0.000266393
2.51161e-05
0.000241277
-1.21367e-05
-0.000267642
0.000279533
-3.45241e-05
-0.000231869
-0.00026174
1.92653e-05
-0.000266281
2.43881e-05
0.000241893
-0.000284186
-2.17453e-05
-0.000306192
2.76507e-05
0.000278623
-3.34041e-05
-0.000232877
-0.000170568
-0.000258133
2.94001e-05
0.000228733
0.000308507
-0.000307837
-0.000195805
0.000209049
-3.29281e-05
-0.000225205
0.000197318
-0.000278831
8.14787e-05
0.00028389
2.2277e-05
-0.000301953
1.76961e-05
0.000285756
-0.00028092
-4.61659e-06
-0.000257125
0.000231617
2.55081e-05
0.000174174
2.79867e-05
-0.000182164
-0.000266953
2.81681e-05
0.000238785
-0.000227361
-2.97641e-05
-3.67361e-05
-0.000230217
0.000276386
0.00029742
1.9132e-05
-0.00027587
-3.16717e-05
0.000307817
-0.000258679
-1.11471e-05
0.00029833
-0.000286965
1.49858e-05
-0.000301743
0.000287387
-0.000230609
-0.000307626
0.000287376
0.000263005
-2.55339e-05
-0.000280658
1.36081e-05
0.000170119
0.000231899
1.88783e-05
-0.000251154
-0.000197692
0.000158979
0.000236738
1.31517e-05
-0.00024989
-0.00025833
2.66093e-05
0.000231721
-1.09228e-05
0.000247661
5.74002e-06
0.000246877
-3.19817e-05
-0.000226348
0.000298983
-0.000285234
-1.37889e-05
0.000228024
-0.000226666
0.000289608
0.000237685
1.98521e-05
-0.000257537
-1.24236e-05
0.000250108
0.000246636
1.50389e-05
-0.000305505
1.53783e-05
0.00024448
2.18905e-05
3.25568e-05
-0.000199376
-0.000288071
-1.77122e-05
-0.000182869
0.000295177
-0.000148961
0.000181603
-3.29053e-05
3.05991e-05
-0.000200543
0.000173927
-0.000162718
0.000259149
-0.000239236
-1.99137e-05
0.000260992
-0.000272666
-0.000240469
0.000231328
-2.18999e-05
0.000301255
-0.000279327
0.000308257
-0.000292471
0.000242117
1.77241e-05
-0.000224975
0.00024443
-1.94545e-05
1.61001e-05
-0.000241075
-7.00003e-06
0.000260989
-0.000296916
4.88114e-06
0.000292679
-0.000174497
0.000160217
-1.74105e-05
-6.28987e-06
-0.000290436
-1.68391e-05
-0.000284312
4.28402e-06
-0.000300593
0.000135437
-0.000257467
2.37312e-05
0.000233622
0.000238197
1.32441e-05
-3.08106e-05
-0.000226641
-3.30186e-05
-0.000290947
2.15844e-05
-0.000224903
0.000204361
0.000254969
-0.000233465
-2.15041e-05
-0.000196383
0.000217403
-0.000186046
-7.4733e-06
0.000203152
0.000137739
0.00013985
4.02666e-06
0.00027151
0.000279884
-0.000305427
3.33591e-06
0.000244423
-1.98519e-05
0.000298661
-0.0002788
-0.000302491
0.000286841
1.48182e-05
-0.000258301
0.000230077
2.82241e-05
-2.64041e-05
-0.000231897
0.000301317
-0.000302318
0.00026772
-2.00096e-05
0.000304621
-0.000284614
0.000286211
-5.86899e-07
-0.000256873
0.000256873
-0.000268162
0.000295874
-0.000143751
-6.59179e-05
-6.86485e-06
0.000295623
-0.000288572
-0.000297251
0.000290746
0.000292317
-0.000279033
0.000289449
-0.000304317
1.48295e-05
3.45194e-05
-0.000239369
0.000215105
2.29584e-05
-1.44932e-05
-0.000247503
0.000230509
-1.44832e-05
0.000297948
-0.000283663
0.000263481
-1.96001e-05
0.000254224
-0.000235464
-1.87601e-05
-3.10331e-05
-0.000273748
0.000304797
1.449e-05
-0.000296962
0.000282515
-1.45881e-05
0.000233465
-0.000218877
0.000209575
-0.000295096
0.000282734
-1.92401e-05
0.000303984
-0.00028521
0.00025102
-2.7095e-05
0.000299328
-0.000272043
-0.000297306
0.000270478
1.07156e-05
0.000244749
-0.000255465
0.000305624
-0.000312246
6.74484e-06
1.80355e-05
1.51596e-05
0.000286039
-0.000301019
6.35244e-06
0.000283777
2.28401e-06
-0.000318641
-0.000290184
0.00030525
-0.000242481
0.000243657
8.45603e-06
-0.0002264
0.000242772
-0.000292953
0.000273538
0.00028529
-0.000157034
-8.44737e-05
0.000294223
1.45625e-05
3.1874e-05
-0.000195802
0.000163451
-0.000274695
0.000257293
-0.000219535
0.00024982
0.000243411
1.92865e-05
-0.000262697
0.000236019
2.31309e-05
-0.000301482
0.000283075
0.00031225
-1.80353e-05
0.000237945
-0.000257069
1.91241e-05
-0.000222494
0.000247459
0.00029446
1.809e-05
-0.000168066
-1.44307e-05
0.000298365
-0.000284158
-0.00014315
-0.000266415
0.000159993
0.000106423
-0.000309163
0.000295472
1.36729e-05
-0.000258699
0.000241826
1.68729e-05
-0.000165008
0.000168465
-0.000306467
0.000288731
1.79328e-05
-0.000220159
0.000183852
-9.69084e-06
0.000253101
2.0469e-05
1.75788e-05
-0.000304801
0.000287235
-0.000300574
-6.9877e-06
0.000308319
-0.000249229
0.000220109
-0.000201153
-8.52603e-05
-0.000271983
0.000253441
0.000304193
-0.000286628
-0.000189796
1.77954e-05
1.4919e-05
0.000284302
-0.000299127
-8.80603e-05
0.000239233
-0.000303785
1.92771e-05
0.000284271
-0.000207549
-2.91914e-06
-0.000297256
-0.000169315
2.05297e-05
0.00030321
-0.000288103
-1.44222e-05
-0.0001683
-0.000299165
-0.00017499
-2.24735e-05
0.000243528
0.000289508
1.71293e-05
0.000252869
5.74233e-05
-0.000284312
-0.000247213
-0.000270771
-2.36297e-05
-0.000274668
0.00030035
-0.000263006
0.000282361
-0.000165566
-4.11804e-05
0.000199458
0.000197569
1.56521e-05
-0.000213221
-1.25759e-05
-0.000285515
0.000298151
1.83597e-05
1.85306e-05
-0.000305449
0.000286711
0.000253345
-1.71361e-05
-0.000236209
1.889e-05
-0.000304596
0.000285424
2.03561e-05
0.000232989
0.000216385
-2.46121e-05
-0.000191773
1.58459e-05
0.000282179
-0.000298165
-0.000250694
0.000117551
-0.000303469
1.85847e-05
0.000284644
0.000242625
-5.37398e-05
-0.000298594
1.20187e-05
0.000284459
0.000255837
-2.19801e-05
-0.000233857
-0.000303444
0.000106052
0.000234529
1.70521e-05
-0.000251581
0.000279836
1.69079e-05
0.000303735
-0.000285077
1.77534e-05
-0.000299789
0.000233512
1.84916e-05
-0.000252004
-1.89198e-05
-1.42162e-05
0.000298165
-0.000283933
-0.000280264
0.000300066
-0.000278425
0.000291692
-0.000303991
1.20702e-05
0.000249741
-1.62291e-05
1.15996e-05
0.000250041
-1.55121e-05
0.00029818
-0.000282946
3.95922e-05
-0.000237363
2.21481e-05
-0.000253065