/*--------------------------------*- C++ -*----------------------------------*\
  =========                 |
  \\      /  F ield         | OpenFOAM: The Open Source CFD Toolbox
   \\    /   O peration     | Website:  https://openfoam.org
    \\  /    A nd           | Version:  12
     \\/     M anipulation  |
\*---------------------------------------------------------------------------*/
FoamFile
{
    format      ascii;
    class       volScalarField;
    location    "21.2";
    object      p;
}
// * * * * * * * * * * * * * * * * * * * * * * * * * * * * * * * * * * * * * //

dimensions      [1 -1 -2 0 0 0 0];

internalField   nonuniform List<scalar> 
9801
(
0.690783
0.646622
0.633873
0.634249
0.637521
0.662572
0.717798
0.750894
0.761847
0.767076
0.762855
0.726711
0.69303
0.685602
0.687322
0.693157
0.713283
0.758599
0.793886
0.807421
0.812997
0.81076
0.78586
0.758562
0.751955
0.754844
0.762958
0.77738
0.801468
0.829118
0.848191
0.856233
0.857584
0.849549
0.83368
0.824778
0.826109
0.832325
0.844231
0.858166
0.870511
0.88565
0.901518
0.909949
0.911588
0.910375
0.909376
0.907269
0.909233
0.915685
0.924766
0.931691
0.937733
0.949176
0.970921
0.98348
0.988286
0.993073
0.999256
1.00373
0.999424
0.998294
1.00322
1.00988
1.01803
1.03323
1.06395
1.0852
1.09566
1.10487
1.11377
1.12186
1.11167
1.09544
1.09618
1.10632
1.12125
1.15666
1.20327
1.23285
1.251
1.26562
1.27941
1.2768
1.24095
1.22483
1.2383
1.26349
1.32095
1.4101
1.47511
1.51971
1.56257
1.59767
1.59476
1.5793
1.55413
3.37259
18.844
0.676328
0.656299
0.650245
0.653181
0.66577
0.69296
0.727022
0.750065
0.758384
0.756177
0.739851
0.7228
0.709692
0.705643
0.710466
0.720036
0.735217
0.761767
0.788754
0.799584
0.79954
0.791049
0.786344
0.779644
0.77534
0.779076
0.785462
0.792087
0.800937
0.819694
0.836351
0.843251
0.844518
0.848317
0.852833
0.851586
0.849315
0.852367
0.856249
0.859217
0.863795
0.873193
0.888799
0.901148
0.911348
0.921931
0.928971
0.933251
0.9321
0.929507
0.928176
0.929543
0.933175
0.940296
0.958549
0.979025
0.995792
1.00755
1.01601
1.02315
1.0212
1.01022
1.00621
1.00906
1.01493
1.02546
1.05318
1.08271
1.10309
1.11583
1.12544
1.13433
1.12757
1.10582
1.10057
1.10775
1.11984
1.14673
1.19486
1.23089
1.25373
1.27171
1.28805
1.29043
1.25399
1.23177
1.24013
1.26272
1.30405
1.38115
1.44754
1.49561
1.54075
1.57701
1.5732
1.54418
1.46347
3.12075
19.0838
0.671579
0.672166
0.673771
0.682113
0.69436
0.70575
0.71871
0.72889
0.732149
0.730272
0.730659
0.732616
0.732582
0.73274
0.734443
0.738386
0.742844
0.751448
0.763665
0.774414
0.780826
0.786765
0.794662
0.802336
0.804614
0.800735
0.798945
0.799113
0.797255
0.797753
0.808264
0.826851
0.843771
0.858589
0.869522
0.875931
0.876122
0.868489
0.860218
0.852757
0.850331
0.854082
0.869037
0.895363
0.919733
0.937209
0.946619
0.953049
0.953474
0.940242
0.923916
0.917801
0.919905
0.926246
0.94428
0.978693
1.00727
1.02227
1.03085
1.03822
1.03824
1.01712
1.00042
0.999064
1.00456
1.01436
1.04241
1.08541
1.11433
1.12973
1.14015
1.14899
1.14126
1.11179
1.09737
1.10168
1.11313
1.13448
1.18786
1.23721
1.26299
1.27984
1.29553
1.3
1.26839
1.23766
1.23763
1.25818
1.28801
1.35232
1.43437
1.49362
1.54044
1.58171
1.58357
1.55714
1.46898
3.02069
19.1151
0.671097
0.688277
0.705852
0.71612
0.720026
0.71979
0.712148
0.70328
0.70477
0.715079
0.731112
0.745815
0.755273
0.761281
0.763166
0.760519
0.754207
0.742509
0.740802
0.748919
0.771392
0.796792
0.811917
0.819763
0.824774
0.825238
0.816232
0.797917
0.786066
0.785075
0.790188
0.814533
0.852831
0.874649
0.883683
0.889668
0.893428
0.885023
0.858843
0.844277
0.844403
0.84888
0.861317
0.897567
0.934517
0.950714
0.959179
0.965689
0.964318
0.939303
0.915845
0.912587
0.917571
0.925285
0.943645
0.985862
1.02004
1.03442
1.04275
1.04797
1.04179
1.01471
0.995828
0.996422
1.00391
1.01438
1.04056
1.08908
1.12206
1.13705
1.14655
1.15321
1.14573
1.1146
1.0968
1.10194
1.11465
1.13236
1.17719
1.23312
1.26351
1.28064
1.29601
1.30569
1.28727
1.25343
1.2399
1.25376
1.28104
1.32258
1.39367
1.45848
1.5081
1.55492
1.57289
1.56309
1.49179
2.94955
19.2166
0.664542
0.702409
0.724263
0.732921
0.737169
0.72985
0.70529
0.697331
0.699076
0.706351
0.72538
0.753704
0.768348
0.774624
0.777821
0.769681
0.747173
0.736793
0.736831
0.742271
0.765266
0.802055
0.822449
0.830144
0.836123
0.835303
0.812653
0.790059
0.784701
0.786592
0.791862
0.814681
0.85843
0.883747
0.893357
0.899665
0.899028
0.877021
0.851641
0.845279
0.848273
0.853455
0.86618
0.903659
0.941996
0.957994
0.964677
0.965121
0.95442
0.932492
0.918067
0.918184
0.924366
0.933283
0.951408
0.989768
1.02151
1.03443
1.0405
1.04203
1.0371
1.01944
1.00463
1.00447
1.01194
1.0218
1.04159
1.08473
1.11857
1.13408
1.1437
1.15079
1.15008
1.12786
1.10622
1.1048
1.11722
1.13306
1.16396
1.21949
1.26053
1.2816
1.29747
1.31069
1.30752
1.27981
1.25625
1.25402
1.27346
1.30404
1.35666
1.42336
1.47832
1.52436
1.55866
1.56672
1.50336
2.936
19.3232
0.675994
0.70977
0.728814
0.735615
0.731507
0.714979
0.705128
0.704986
0.707932
0.716496
0.737778
0.760448
0.77363
0.780054
0.774962
0.75541
0.744049
0.742394
0.744392
0.754213
0.779555
0.807644
0.824974
0.834039
0.83743
0.822596
0.800134
0.791189
0.792168
0.796245
0.807528
0.835202
0.864116
0.883018
0.892839
0.895291
0.883185
0.866485
0.858749
0.858173
0.861381
0.867181
0.881052
0.910587
0.937562
0.950463
0.954573
0.952503
0.947116
0.938045
0.931493
0.93187
0.937403
0.945628
0.959716
0.988005
1.01258
1.02457
1.0309
1.03549
1.03888
1.03236
1.01797
1.0147
1.02183
1.03162
1.04436
1.07527
1.10847
1.12565
1.13585
1.14494
1.15406
1.14798
1.12374
1.1132
1.12044
1.13407
1.15154
1.19119
1.24199
1.27498
1.29605
1.31371
1.32438
1.30912
1.282
1.26851
1.27189
1.29255
1.32398
1.37666
1.43222
1.47632
1.51129
1.53493
1.51528
2.968
19.4337
0.692497
0.705259
0.713235
0.713715
0.711419
0.712359
0.714395
0.718444
0.728784
0.74306
0.754463
0.762056
0.768251
0.764569
0.750777
0.745377
0.746983
0.750909
0.762776
0.784804
0.801429
0.812544
0.820783
0.826399
0.81799
0.803466
0.800009
0.802011
0.805531
0.812546
0.832852
0.855389
0.869478
0.876868
0.879847
0.874443
0.866522
0.864678
0.867058
0.870463
0.876642
0.88656
0.900372
0.917298
0.92817
0.934279
0.937576
0.942499
0.947518
0.945948
0.945027
0.949349
0.954956
0.959887
0.966323
0.978687
0.998204
1.01092
1.02079
1.03197
1.04206
1.04799
1.03747
1.02801
1.02964
1.03584
1.04322
1.0576
1.09179
1.11847
1.13288
1.14544
1.15772
1.16641
1.15096
1.13113
1.12477
1.13049
1.14193
1.16065
1.20663
1.25799
1.29122
1.31378
1.33296
1.33932
1.31854
1.29328
1.28202
1.28605
1.30437
1.33755
1.38945
1.43665
1.46967
1.49411
1.50305
3.02411
19.5301
0.704715
0.699776
0.688679
0.688029
0.695555
0.710499
0.729267
0.747668
0.759649
0.765224
0.768438
0.768005
0.752444
0.737272
0.735821
0.740278
0.7477
0.76169
0.791335
0.813505
0.820286
0.822502
0.822546
0.808158
0.792515
0.791348
0.796486
0.806011
0.818413
0.836296
0.855976
0.868338
0.871648
0.869988
0.864279
0.861938
0.862311
0.864929
0.871572
0.883746
0.894289
0.899651
0.905544
0.913513
0.918589
0.922636
0.93097
0.942834
0.951146
0.958719
0.960988
0.961586
0.96214
0.960801
0.960106
0.965231
0.983484
1.00698
1.02473
1.03943
1.0508
1.05993
1.06014
1.04333
1.03225
1.02902
1.03263
1.04135
1.06876
1.1105
1.13774
1.15554
1.16903
1.18005
1.17791
1.15158
1.13167
1.12529
1.13026
1.14315
1.16888
1.22321
1.27546
1.30953
1.33378
1.35312
1.35408
1.32718
1.29805
1.28655
1.29403
1.31372
1.35038
1.40185
1.44071
1.46498
1.48352
3.07978
19.6101
0.709612
0.683596
0.671755
0.67285
0.678651
0.699349
0.741919
0.773057
0.784942
0.788417
0.783868
0.763133
0.733637
0.723522
0.725582
0.731527
0.741944
0.770868
0.810586
0.828887
0.835653
0.83685
0.821
0.797936
0.790311
0.791559
0.796267
0.806404
0.826184
0.846654
0.86091
0.867351
0.865928
0.860507
0.862515
0.868667
0.873666
0.879148
0.88633
0.895115
0.899209
0.898185
0.896124
0.898949
0.910907
0.926596
0.940834
0.954267
0.966057
0.97438
0.977208
0.96742
0.95523
0.947774
0.948948
0.955596
0.973865
1.0086
1.03638
1.05376
1.06412
1.07207
1.07541
1.05556
1.02891
1.01922
1.023
1.03213
1.05092
1.09736
1.1436
1.16744
1.18074
1.19181
1.1974
1.17442
1.13958
1.12431
1.12535
1.13486
1.15026
1.18725
1.25005
1.30008
1.32902
1.34932
1.36123
1.35353
1.3285
1.30336
1.2944
1.30218
1.32253
1.36372
1.41061
1.43966
1.46106
3.1296
19.6822
0.718064
0.676987
0.670127
0.672771
0.676913
0.691603
0.742469
0.782396
0.793355
0.79826
0.795348
0.761993
0.73292
0.7277
0.729802
0.735924
0.753873
0.783973
0.813081
0.829433
0.832764
0.823651
0.810189
0.803561
0.799698
0.803064
0.813702
0.827137
0.835039
0.839932
0.844449
0.850214
0.85769
0.864023
0.871567
0.881859
0.893238
0.900374
0.902221
0.899673
0.891886
0.882427
0.881204
0.886797
0.903485
0.933142
0.958366
0.973787
0.982113
0.988078
0.989535
0.968324
0.941946
0.935124
0.939261
0.947653
0.966785
1.01033
1.04847
1.06544
1.07453
1.08122
1.08094
1.05998
1.03058
1.01946
1.02124
1.02876
1.04146
1.0792
1.13708
1.17181
1.18661
1.19555
1.20065
1.19529
1.16162
1.1348
1.13005
1.13714
1.15066
1.17008
1.21052
1.26544
1.3046
1.32914
1.3484
1.35855
1.3532
1.3347
1.31343
1.30472
1.30949
1.32638
1.36496
1.40401
1.4323
3.1934
19.7511
0.71304
0.681662
0.676661
0.679087
0.685874
0.708226
0.748125
0.780238
0.791866
0.792364
0.777197
0.756608
0.743589
0.740095
0.745184
0.759005
0.773938
0.783584
0.795038
0.805614
0.810943
0.812958
0.815912
0.819435
0.824719
0.829156
0.832949
0.836862
0.835017
0.824723
0.82094
0.827322
0.846741
0.870617
0.891749
0.906542
0.91456
0.919042
0.916391
0.897858
0.875496
0.868052
0.870867
0.877982
0.895822
0.938459
0.974273
0.988899
0.995777
0.999611
0.993567
0.965597
0.941438
0.935865
0.939499
0.946373
0.961613
1.00535
1.05108
1.07031
1.07826
1.07938
1.07632
1.06667
1.04303
1.02766
1.02889
1.03867
1.05206
1.06597
1.10419
1.15157
1.17542
1.18636
1.19416
1.20162
1.197
1.17098
1.15348
1.15203
1.15788
1.16747
1.18167
1.21605
1.26523
1.30226
1.32785
1.34842
1.36095
1.36115
1.34645
1.32179
1.30432
1.30275
1.31508
1.35364
1.39468
3.2693
19.8249
0.709177
0.694336
0.692984
0.699442
0.71281
0.726497
0.743047
0.759483
0.768167
0.768185
0.765136
0.765408
0.765033
0.767916
0.773255
0.778979
0.783179
0.780298
0.77162
0.773568
0.788921
0.810041
0.829341
0.845315
0.853741
0.855381
0.850561
0.840098
0.821759
0.809228
0.808957
0.81381
0.830106
0.872828
0.90933
0.925258
0.932175
0.935298
0.928278
0.895965
0.870369
0.86678
0.870586
0.875965
0.890911
0.938463
0.979367
0.993832
1.00037
0.999559
0.987769
0.97086
0.951362
0.944736
0.94963
0.961018
0.97479
0.992912
1.02989
1.05638
1.06581
1.0692
1.07318
1.0793
1.07324
1.05592
1.04888
1.05112
1.05458
1.05923
1.06832
1.10284
1.15007
1.17735
1.1933
1.20825
1.22061
1.21738
1.19092
1.17021
1.16222
1.16157
1.16824
1.18354
1.2195
1.26693
1.30464
1.33468
1.3584
1.37029
1.36857
1.34781
1.31461
1.29034
1.2857
1.29963
1.34779
3.33463
19.9
0.712287
0.714565
0.718181
0.726629
0.73206
0.735038
0.735953
0.734828
0.739806
0.749687
0.761403
0.776694
0.791697
0.798566
0.799126
0.794848
0.781815
0.763181
0.756814
0.759127
0.768179
0.801395
0.843322
0.864048
0.871859
0.876125
0.871237
0.843978
0.812657
0.805461
0.807952
0.812731
0.824161
0.86716
0.91542
0.931233
0.937682
0.940217
0.925332
0.895856
0.876768
0.872569
0.876493
0.88659
0.905987
0.935095
0.969204
0.985505
0.989024
0.984843
0.984076
0.984307
0.977138
0.969077
0.969485
0.974803
0.978895
0.982157
0.992086
1.02532
1.05403
1.06896
1.08113
1.09235
1.10133
1.09408
1.07191
1.05858
1.05144
1.04745
1.05173
1.06414
1.10533
1.16251
1.19887
1.21667
1.22978
1.24037
1.23463
1.20278
1.17249
1.16041
1.16318
1.17236
1.18959
1.23043
1.28201
1.31966
1.34392
1.36187
1.36797
1.36121
1.33726
1.29996
1.27316
1.26844
1.29248
3.36147
19.9826
0.711971
0.731821
0.742664
0.746475
0.746612
0.741157
0.727476
0.722853
0.725292
0.735065
0.760943
0.793059
0.807678
0.813515
0.816597
0.808086
0.777206
0.757389
0.756516
0.759924
0.767859
0.799288
0.848588
0.869238
0.876702
0.880915
0.87325
0.839201
0.815647
0.810613
0.812903
0.818527
0.837363
0.876245
0.910917
0.92764
0.932714
0.926003
0.915266
0.905363
0.893539
0.891181
0.896791
0.907672
0.915313
0.921942
0.939528
0.962336
0.974482
0.981297
0.988969
0.998784
1.00696
1.00252
0.989161
0.980919
0.973776
0.969286
0.972981
0.990373
1.03426
1.0722
1.09403
1.10904
1.1185
1.12272
1.10318
1.06882
1.04837
1.04308
1.04602
1.05376
1.06943
1.12078
1.1836
1.21712
1.23282
1.24446
1.24981
1.23708
1.20235
1.17355
1.16496
1.16952
1.18074
1.20393
1.25208
1.29863
1.32727
1.34482
1.3578
1.35928
1.34979
1.32412
1.28613
1.25809
1.24643
3.33269
20.071
0.7218
0.743474
0.750256
0.753466
0.748487
0.73119
0.722935
0.722991
0.726267
0.741003
0.776001
0.801708
0.811011
0.816662
0.818333
0.798424
0.770497
0.76128
0.761325
0.764279
0.774808
0.813288
0.851255
0.868386
0.875745
0.87535
0.857571
0.837154
0.824966
0.822609
0.826828
0.839427
0.856651
0.875465
0.895308
0.906347
0.908945
0.906852
0.910128
0.916211
0.920167
0.917153
0.916531
0.918617
0.916238
0.910756
0.912962
0.931052
0.962156
0.984784
1.00208
1.0157
1.02427
1.02757
1.01257
0.985363
0.966159
0.960472
0.964342
0.972701
1.00238
1.06154
1.10167
1.11754
1.12701
1.13449
1.13127
1.09567
1.05878
1.04681
1.04869
1.05639
1.06809
1.08757
1.13905
1.19434
1.22158
1.23465
1.24271
1.24486
1.23471
1.20715
1.1848
1.17966
1.18586
1.19762
1.21951
1.26474
1.30329
1.32503
1.33917
1.34951
1.35156
1.34267
1.31421
1.27042
1.22778
3.25004
20.1507
0.734011
0.746154
0.751429
0.750317
0.734114
0.723596
0.723193
0.726376
0.734561
0.76203
0.790835
0.80424
0.811132
0.815474
0.805634
0.780414
0.769907
0.76878
0.770893
0.776541
0.79759
0.828769
0.850485
0.8606
0.862427
0.853654
0.846508
0.841712
0.839705
0.843002
0.851803
0.862464
0.867299
0.86897
0.872795
0.885531
0.89634
0.904593
0.916363
0.930932
0.941691
0.945478
0.937351
0.922762
0.907177
0.900018
0.902458
0.911957
0.943824
0.987393
1.01499
1.02866
1.03606
1.04034
1.02975
0.993458
0.966799
0.961509
0.965306
0.971843
0.985262
1.03213
1.09266
1.11871
1.12829
1.12984
1.12713
1.1198
1.09247
1.06788
1.06308
1.06915
1.07856
1.08718
1.09953
1.14008
1.18833
1.21502
1.22969
1.24131
1.24822
1.24548
1.22541
1.20245
1.19066
1.19044
1.19842
1.22054
1.2638
1.29971
1.32195
1.33813
1.34812
1.34991
1.33946
1.29857
1.23118
3.14541
20.2244
0.743593
0.748954
0.745437
0.730655
0.722003
0.722283
0.725356
0.730301
0.7507
0.78759
0.803762
0.808818
0.812535
0.806745
0.78349
0.770521
0.769684
0.773664
0.782156
0.799608
0.817763
0.834221
0.844254
0.847294
0.842173
0.840336
0.845491
0.851623
0.858527
0.863751
0.869084
0.872539
0.865528
0.855443
0.854733
0.865077
0.888427
0.911851
0.932925
0.946991
0.954707
0.959678
0.95377
0.923943
0.898489
0.893699
0.897507
0.904513
0.928294
0.983521
1.02171
1.03511
1.04255
1.04693
1.03934
1.00929
0.978256
0.96919
0.972803
0.982906
0.996283
1.01321
1.05184
1.09375
1.1125
1.12063
1.12813
1.13529
1.1326
1.10915
1.0887
1.08218
1.08191
1.08212
1.08691
1.09931
1.1377
1.18626
1.21752
1.23759
1.25289
1.26308
1.26271
1.23861
1.20557
1.1875
1.18636
1.19317
1.21613
1.26243
1.30239
1.32701
1.34192
1.34736
1.34669
1.32373
1.26229
3.05944
20.2995
0.754057
0.751236
0.733336
0.716288
0.713601
0.717309
0.723955
0.733185
0.765945
0.799539
0.813667
0.818154
0.81415
0.79438
0.780037
0.774757
0.776825
0.78627
0.802999
0.814158
0.819948
0.826869
0.831982
0.834007
0.83674
0.842502
0.853069
0.867542
0.878006
0.882838
0.881069
0.869009
0.851361
0.844349
0.846937
0.854811
0.881797
0.92394
0.950791
0.961211
0.966413
0.967829
0.955066
0.921017
0.898563
0.895304
0.899151
0.905159
0.921117
0.969507
1.01855
1.0362
1.04169
1.03687
1.03186
1.0258
1.00684
0.990903
0.98903
0.99422
1.00072
1.00681
1.01461
1.04376
1.08755
1.1161
1.13149
1.14134
1.15081
1.15322
1.13221
1.1043
1.08672
1.0804
1.08119
1.08717
1.10063
1.14173
1.19367
1.22787
1.2477
1.26112
1.2686
1.26509
1.23707
1.20035
1.18236
1.18137
1.1897
1.21533
1.2663
1.30786
1.32886
1.33801
1.3403
1.33168
1.30129
3.02185
20.3815
0.770604
0.765169
0.730621
0.715958
0.714792
0.717743
0.725149
0.74533
0.772787
0.79869
0.809721
0.809962
0.799269
0.792632
0.789154
0.788851
0.794365
0.803873
0.811044
0.815403
0.815129
0.809245
0.810075
0.820826
0.8386
0.857681
0.874187
0.884989
0.89115
0.894726
0.887288
0.858473
0.839092
0.837023
0.841135
0.848894
0.876882
0.9295
0.959284
0.969954
0.975803
0.975953
0.956806
0.92458
0.904186
0.901015
0.906108
0.919042
0.935243
0.955809
0.990997
1.01727
1.02595
1.02925
1.03401
1.03863
1.03889
1.0252
1.01096
1.00534
1.00359
1.00085
0.999627
1.00669
1.03687
1.08895
1.12551
1.14516
1.15867
1.16861
1.17154
1.14781
1.10961
1.08647
1.08124
1.08551
1.09346
1.11018
1.15713
1.20853
1.23703
1.252
1.26301
1.26792
1.26105
1.23155
1.19782
1.18263
1.18092
1.18848
1.21738
1.26911
1.30552
1.32172
1.32863
1.32688
1.32545
3.04758
20.4788
0.770865
0.764857
0.737617
0.723255
0.723625
0.729813
0.741534
0.753155
0.76496
0.778778
0.789152
0.794555
0.797994
0.801846
0.806274
0.812447
0.81717
0.819037
0.817731
0.809096
0.796163
0.792101
0.795973
0.808013
0.839775
0.874803
0.894264
0.901218
0.904051
0.902045
0.884193
0.854011
0.838562
0.837812
0.841363
0.848164
0.871271
0.924056
0.960382
0.971628
0.972337
0.962021
0.952239
0.939822
0.925056
0.920837
0.925821
0.934393
0.941133
0.945489
0.951531
0.976093
1.00707
1.02612
1.03868
1.05109
1.06188
1.06443
1.04735
1.02485
1.00835
0.994781
0.989419
0.993173
1.00186
1.03696
1.10125
1.14469
1.16248
1.17238
1.1788
1.17602
1.14667
1.10832
1.08969
1.08848
1.09502
1.10508
1.12637
1.1745
1.21666
1.23793
1.2498
1.25915
1.26502
1.26139
1.23518
1.20192
1.18458
1.18212
1.18735
1.21427
1.26343
1.29665
1.31162
1.31295
1.33706
3.12566
20.5923
0.76422
0.766502
0.757309
0.746761
0.744002
0.746659
0.751106
0.754932
0.754738
0.753471
0.761203
0.781234
0.801812
0.817312
0.828506
0.835042
0.837405
0.834974
0.822383
0.798233
0.782485
0.781118
0.78499
0.794667
0.830805
0.880656
0.903247
0.911727
0.916421
0.913956
0.888381
0.856544
0.843111
0.843753
0.851121
0.86561
0.881656
0.904817
0.93617
0.951877
0.954959
0.955432
0.957944
0.960232
0.958929
0.951001
0.945448
0.943957
0.9408
0.932026
0.928837
0.937325
0.970087
1.01309
1.04411
1.06742
1.08068
1.08781
1.08489
1.0542
1.01424
0.992601
0.988772
0.99317
0.999944
1.01244
1.0553
1.12113
1.15511
1.16767
1.17309
1.17332
1.16971
1.1482
1.1185
1.10369
1.10267
1.10828
1.11697
1.13478
1.17787
1.21572
1.2365
1.24997
1.26165
1.27086
1.27075
1.24413
1.20588
1.18221
1.17619
1.17892
1.2037
1.25213
1.28671
1.29888
1.33326
3.23112
20.7157
0.760114
0.769176
0.773289
0.775107
0.768813
0.762122
0.757474
0.749618
0.741064
0.739909
0.743619
0.757472
0.793521
0.826836
0.845042
0.8526
0.85599
0.852542
0.829898
0.796373
0.78217
0.782439
0.785941
0.793025
0.820076
0.875416
0.905134
0.913414
0.913194
0.903479
0.891328
0.874302
0.862813
0.863041
0.869686
0.877205
0.882046
0.885631
0.893668
0.918751
0.942511
0.957034
0.970326
0.982643
0.989716
0.98598
0.969867
0.952765
0.933849
0.918465
0.915903
0.920399
0.932748
0.980835
1.04372
1.07459
1.08603
1.09317
1.09743
1.08534
1.04169
1.00538
0.996186
0.999829
1.01075
1.02555
1.04031
1.0708
1.11731
1.1447
1.15682
1.16452
1.17153
1.17558
1.16532
1.14101
1.12172
1.11245
1.11056
1.1153
1.13122
1.17441
1.21574
1.24094
1.25775
1.27046
1.27961
1.27966
1.24966
1.20353
1.17383
1.16475
1.16614
1.1911
1.24411
1.27706
1.32202
3.34367
20.8385
0.75105
0.775813
0.78433
0.789586
0.791523
0.78457
0.766797
0.747212
0.738184
0.738648
0.742134
0.748406
0.776143
0.827328
0.850742
0.858545
0.863481
0.863619
0.839198
0.803787
0.789821
0.790012
0.795838
0.807683
0.824414
0.852731
0.884298
0.896973
0.899287
0.899868
0.90152
0.900739
0.893702
0.886049
0.883389
0.882384
0.876922
0.869311
0.870398
0.883421
0.919066
0.957647
0.98492
1.00274
1.01074
1.01355
1.00011
0.964562
0.931802
0.917848
0.917244
0.921621
0.928912
0.950656
1.01238
1.06576
1.08414
1.08992
1.08465
1.07778
1.06943
1.04589
1.02661
1.02274
1.02714
1.03285
1.03586
1.03922
1.05751
1.10149
1.13674
1.15622
1.17078
1.18592
1.1956
1.18902
1.15739
1.12473
1.10768
1.10395
1.10766
1.12565
1.17408
1.22253
1.25135
1.26858
1.27907
1.28388
1.2786
1.24549
1.19693
1.16419
1.15292
1.15413
1.18563
1.2364
1.29593
3.44815
20.9389
0.743181
0.778427
0.787164
0.792537
0.796545
0.798662
0.784063
0.753051
0.741541
0.742274
0.745398
0.751707
0.772536
0.818984
0.849804
0.859058
0.861402
0.854526
0.840879
0.821902
0.809748
0.80906
0.8145
0.821973
0.826725
0.831188
0.845597
0.873719
0.893116
0.9044
0.914221
0.921277
0.923246
0.913779
0.899169
0.884576
0.868337
0.859741
0.860798
0.865951
0.885273
0.939897
0.98944
1.00953
1.01809
1.0241
1.02336
0.992918
0.945718
0.925704
0.924365
0.931288
0.945903
0.960811
0.978458
1.0175
1.05261
1.06693
1.07267
1.07905
1.08648
1.091
1.07797
1.05687
1.0434
1.03508
1.02566
1.02166
1.02727
1.04869
1.09936
1.14651
1.17723
1.19426
1.20348
1.20738
1.19502
1.15321
1.11454
1.10045
1.10096
1.10701
1.12752
1.18448
1.23628
1.26054
1.27055
1.27648
1.27831
1.27164
1.24207
1.19402
1.15858
1.14453
1.14549
1.17658
1.25143
3.52449
21.0108
0.739715
0.776209
0.787792
0.793276
0.796478
0.796209
0.783266
0.762328
0.752003
0.752342
0.756437
0.764073
0.776793
0.80349
0.833277
0.844986
0.846846
0.845355
0.84499
0.841752
0.834055
0.82947
0.829715
0.830517
0.826124
0.820869
0.823717
0.841091
0.878709
0.908486
0.925455
0.935414
0.940199
0.939056
0.920805
0.890552
0.868483
0.86136
0.862936
0.867231
0.874794
0.906578
0.972607
1.00806
1.01845
1.01993
1.01169
1.00131
0.980871
0.956549
0.948377
0.951574
0.958303
0.963751
0.965642
0.968388
0.992853
1.03551
1.06695
1.0868
1.10295
1.1152
1.12022
1.10535
1.07149
1.03944
1.02138
1.01767
1.02197
1.02912
1.05673
1.12296
1.17036
1.18909
1.19852
1.20337
1.20149
1.18595
1.14851
1.11785
1.10849
1.11087
1.11881
1.13724
1.18687
1.2321
1.25285
1.26255
1.2696
1.27486
1.2709
1.24381
1.19564
1.15438
1.13506
1.12995
1.19035
3.5529
21.0564
0.739468
0.773735
0.78642
0.791285
0.793568
0.794167
0.786097
0.772022
0.766545
0.767449
0.771242
0.776163
0.780079
0.788366
0.810383
0.832185
0.842572
0.847721
0.852161
0.857123
0.857663
0.849694
0.841173
0.832423
0.821281
0.816961
0.81937
0.825171
0.85064
0.900126
0.930627
0.942834
0.949451
0.95398
0.947578
0.910892
0.878218
0.86826
0.870081
0.876342
0.886609
0.899925
0.93044
0.97662
0.999305
1.00526
1.0083
1.01213
1.01353
1.00379
0.98525
0.972725
0.966442
0.959689
0.950032
0.947946
0.954344
0.980978
1.0372
1.08635
1.11158
1.12281
1.13017
1.13203
1.11174
1.0636
1.03005
1.02115
1.02434
1.03387
1.05133
1.08423
1.13714
1.16917
1.18133
1.18634
1.19065
1.19637
1.1927
1.16298
1.133
1.11907
1.11528
1.1168
1.12954
1.17584
1.22365
1.24849
1.26109
1.26973
1.27542
1.27278
1.24754
1.1967
1.14945
1.11749
1.11938
3.51624
21.0807
0.737012
0.769692
0.785138
0.791369
0.795418
0.79827
0.793567
0.782633
0.777045
0.7771
0.779427
0.781946
0.782442
0.7835
0.790003
0.814412
0.840151
0.854006
0.862775
0.868599
0.871978
0.868245
0.852104
0.833432
0.821406
0.818209
0.820529
0.824715
0.833086
0.873915
0.925356
0.944667
0.951211
0.952735
0.94914
0.936854
0.906663
0.88691
0.883883
0.887774
0.893734
0.898878
0.904531
0.923089
0.96245
0.993381
1.01073
1.02222
1.03307
1.03883
1.03107
1.00577
0.978498
0.956376
0.94527
0.944894
0.949536
0.956905
0.98797
1.06051
1.10706
1.12174
1.12743
1.12506
1.1164
1.09838
1.06604
1.04553
1.04239
1.0475
1.05368
1.06019
1.08264
1.12816
1.15986
1.17547
1.18775
1.20105
1.20929
1.20915
1.18084
1.14127
1.11579
1.10788
1.10955
1.12059
1.16499
1.2171
1.24757
1.26363
1.27281
1.2759
1.27084
1.24577
1.19286
1.12944
1.08518
3.4152
21.1019
0.731636
0.762359
0.787331
0.796028
0.800235
0.803326
0.803221
0.793657
0.784896
0.78211
0.782036
0.781664
0.780391
0.780782
0.783744
0.794852
0.828367
0.85756
0.871319
0.877473
0.881305
0.882517
0.868594
0.841218
0.825074
0.822063
0.824995
0.829428
0.8352
0.850389
0.895877
0.933773
0.945867
0.950485
0.954104
0.95509
0.942314
0.917099
0.901955
0.898119
0.898365
0.897926
0.895504
0.897924
0.91292
0.956327
1.00156
1.0291
1.04395
1.05289
1.05781
1.04892
1.00912
0.968575
0.95115
0.949891
0.955441
0.967273
0.983915
1.01425
1.06601
1.09792
1.10865
1.11296
1.11662
1.11896
1.11245
1.0911
1.07017
1.05834
1.05205
1.0498
1.05348
1.07275
1.12127
1.16341
1.18627
1.19943
1.21147
1.22131
1.2226
1.19081
1.14077
1.11059
1.1015
1.10252
1.11204
1.1586
1.21934
1.25271
1.26567
1.27097
1.27072
1.26299
1.23669
1.17178
1.09486
3.27703
21.1561
0.728321
0.749069
0.781293
0.798247
0.804137
0.805465
0.807184
0.806917
0.798233
0.790497
0.786603
0.783622
0.780443
0.778842
0.780412
0.784571
0.80415
0.848384
0.875342
0.885928
0.890869
0.893777
0.888444
0.86017
0.834971
0.828312
0.829765
0.83335
0.838141
0.844161
0.860242
0.902569
0.936457
0.950095
0.955775
0.958587
0.962395
0.956471
0.934893
0.917077
0.90695
0.898196
0.891448
0.892121
0.896805
0.911507
0.962297
1.02013
1.04571
1.05416
1.05773
1.05492
1.04262
1.00925
0.979375
0.969738
0.971865
0.978277
0.984509
0.99001
1.00813
1.0516
1.08767
1.10661
1.11794
1.12717
1.13585
1.13657
1.11528
1.08286
1.05775
1.0455
1.04358
1.04752
1.06709
1.12085
1.17002
1.1968
1.21337
1.22254
1.22755
1.22317
1.18665
1.13547
1.10621
1.09816
1.10003
1.11194
1.15991
1.21913
1.24909
1.25934
1.26264
1.26059
1.25232
1.2152
1.14979
3.15892
21.2546
0.734482
0.740297
0.754107
0.783404
0.801014
0.809355
0.814991
0.819765
0.820445
0.809965
0.797505
0.78796
0.779095
0.774678
0.775932
0.779422
0.786709
0.822627
0.870997
0.890171
0.897167
0.901868
0.903941
0.888667
0.854038
0.836353
0.834417
0.837833
0.843601
0.848338
0.851933
0.861429
0.898321
0.93501
0.952934
0.964389
0.974269
0.979286
0.974271
0.949383
0.921376
0.902667
0.895083
0.89531
0.899471
0.904472
0.91835
0.970719
1.02465
1.04498
1.05173
1.05636
1.05938
1.05227
1.0258
0.999751
0.987705
0.98395
0.982018
0.981158
0.984488
0.998471
1.04093
1.08565
1.11359
1.13125
1.14275
1.15021
1.15212
1.12847
1.08343
1.05159
1.04125
1.042
1.04743
1.06958
1.13179
1.18614
1.20793
1.21594
1.21798
1.21974
1.21807
1.19038
1.1431
1.11327
1.10355
1.10301
1.10945
1.15277
1.20941
1.23803
1.24827
1.25163
1.2521
1.23737
1.21105
3.1102
21.3743
0.736989
0.735458
0.736336
0.750764
0.787284
0.813356
0.826723
0.834269
0.838086
0.835318
0.814901
0.789339
0.775224
0.772409
0.77501
0.778921
0.785349
0.801253
0.846963
0.885533
0.898146
0.901898
0.900076
0.898798
0.887681
0.862754
0.850137
0.848803
0.850438
0.849843
0.847536
0.848727
0.856774
0.893844
0.941792
0.968369
0.979585
0.986451
0.991537
0.988406
0.960282
0.923906
0.904711
0.900506
0.902416
0.906528
0.912442
0.926341
0.973662
1.02504
1.04897
1.05806
1.06219
1.06491
1.06337
1.04669
1.02087
1.00052
0.987485
0.980944
0.979684
0.983151
0.994277
1.0375
1.0946
1.12915
1.14396
1.15175
1.15707
1.15581
1.12654
1.07889
1.05183
1.04626
1.05022
1.05764
1.07753
1.13247
1.17998
1.19952
1.20868
1.21729
1.22341
1.22321
1.19874
1.15083
1.11451
1.09943
1.09759
1.10244
1.14068
1.19654
1.22819
1.24084
1.24582
1.23952
1.25059
3.1395
21.4926
0.735836
0.730062
0.730736
0.734377
0.754225
0.802587
0.832551
0.843384
0.849075
0.852654
0.841819
0.802592
0.779254
0.776182
0.779244
0.787176
0.796319
0.802877
0.813314
0.848142
0.879956
0.89274
0.89972
0.906956
0.911613
0.904795
0.880312
0.862947
0.854803
0.84947
0.845193
0.843831
0.846659
0.855018
0.896471
0.953418
0.979879
0.989669
0.995762
1.00076
0.997123
0.963501
0.923944
0.907929
0.90707
0.912047
0.920746
0.927814
0.934837
0.964418
1.0124
1.04208
1.05511
1.06336
1.07149
1.07752
1.07046
1.04225
1.00995
0.989114
0.981312
0.981737
0.986293
0.997892
1.0493
1.11145
1.13946
1.1492
1.15403
1.15411
1.15053
1.12665
1.08724
1.06363
1.05687
1.05711
1.06059
1.07418
1.12385
1.17656
1.2028
1.21271
1.21806
1.22327
1.22707
1.20995
1.16057
1.11639
1.09525
1.08976
1.09165
1.12687
1.18567
1.22098
1.23649
1.23406
1.27108
3.22106
21.6099
0.734258
0.726617
0.728482
0.731794
0.738887
0.774217
0.826261
0.845784
0.851614
0.852202
0.846398
0.830001
0.802776
0.791499
0.792401
0.7966
0.800661
0.802634
0.801815
0.807766
0.839365
0.880262
0.90391
0.916645
0.925806
0.930375
0.921914
0.892948
0.866622
0.850744
0.843032
0.843122
0.846992
0.852804
0.865686
0.909489
0.964195
0.988325
0.996135
0.996974
0.994037
0.991964
0.972626
0.943072
0.929154
0.927598
0.929304
0.927911
0.924709
0.927714
0.948617
0.999981
1.04286
1.0646
1.07841
1.08753
1.09288
1.08736
1.05185
1.00827
0.986931
0.984269
0.988883
0.997109
1.01296
1.06209
1.11347
1.13571
1.14367
1.14783
1.15167
1.15387
1.13998
1.1067
1.07818
1.06295
1.05861
1.06082
1.06934
1.10855
1.16296
1.19368
1.20959
1.22215
1.23044
1.23421
1.22005
1.1669
1.11232
1.08611
1.0799
1.08171
1.11772
1.17955
1.21715
1.22428
1.27425
3.3318
21.7311
0.736754
0.726571
0.728642
0.733637
0.742097
0.758164
0.79626
0.832734
0.844969
0.848327
0.851387
0.852649
0.840417
0.816714
0.804692
0.801917
0.800586
0.796753
0.79468
0.796935
0.804068
0.839271
0.891888
0.919844
0.930465
0.93656
0.940894
0.933857
0.895602
0.860424
0.84817
0.848326
0.853949
0.863948
0.870706
0.877808
0.908454
0.955966
0.979551
0.987642
0.995005
1.00414
1.0084
0.995766
0.966553
0.945242
0.932973
0.923927
0.917337
0.917098
0.921885
0.94117
1.00143
1.05898
1.08192
1.08992
1.09494
1.09555
1.08498
1.04938
1.01311
0.998624
0.998487
1.00409
1.01067
1.01993
1.05542
1.10234
1.12816
1.14012
1.14841
1.15848
1.16774
1.16303
1.1283
1.088
1.06445
1.05399
1.05042
1.05642
1.09441
1.16077
1.20479
1.22288
1.23122
1.2351
1.23553
1.21828
1.16222
1.10645
1.07964
1.07246
1.07507
1.11454
1.17431
1.20056
1.26306
3.45264
21.8433
0.745881
0.730906
0.733729
0.742642
0.752151
0.758578
0.766509
0.794284
0.829651
0.848238
0.857162
0.862008
0.864977
0.855233
0.830548
0.812995
0.803296
0.797669
0.796067
0.798192
0.801806
0.809102
0.848466
0.904663
0.928691
0.936238
0.939885
0.937419
0.927458
0.898797
0.872733
0.864629
0.866093
0.869921
0.872668
0.873633
0.877403
0.896028
0.943355
0.981546
1.0005
1.01056
1.01866
1.02419
1.01841
0.988742
0.952849
0.927288
0.917633
0.918658
0.92305
0.930498
0.953745
1.01789
1.06697
1.08291
1.08743
1.0836
1.08304
1.0838
1.06512
1.03435
1.01723
1.01137
1.00796
1.00553
1.01117
1.04085
1.09183
1.1266
1.14812
1.16719
1.17798
1.18333
1.17703
1.13629
1.08324
1.05328
1.0462
1.04803
1.05466
1.0941
1.16645
1.2112
1.22525
1.22915
1.22876
1.22504
1.21036
1.16276
1.10773
1.07755
1.06883
1.06949
1.10953
1.15595
1.2335
3.57027
21.9326
0.764887
0.745715
0.747859
0.753993
0.759027