/*--------------------------------*- C++ -*----------------------------------*\
  =========                 |
  \\      /  F ield         | OpenFOAM: The Open Source CFD Toolbox
   \\    /   O peration     | Website:  https://openfoam.org
    \\  /    A nd           | Version:  12
     \\/     M anipulation  |
\*---------------------------------------------------------------------------*/
FoamFile
{
    format      ascii;
    class       volVectorField;
    location    "21.2";
    object      U;
}
// * * * * * * * * * * * * * * * * * * * * * * * * * * * * * * * * * * * * * //

dimensions      [0 1 -1 0 0 0 0];

internalField   nonuniform List<vector> 
9801
(
(1.14079 -0.0596564 0)
(1.12677 -0.0601104 0)
(1.12417 -0.0589627 0)
(1.12916 -0.0563546 0)
(1.15584 -0.0496345 0)
(1.17936 -0.0432421 0)
(1.18224 -0.0410122 0)
(1.18042 -0.0401092 0)
(1.17538 -0.0391471 0)
(1.16097 -0.0385967 0)
(1.13588 -0.0396867 0)
(1.12243 -0.0396066 0)
(1.11767 -0.0377407 0)
(1.11537 -0.0354418 0)
(1.11802 -0.0329784 0)
(1.12856 -0.0286808 0)
(1.14354 -0.0232195 0)
(1.15161 -0.0201641 0)
(1.15244 -0.0188269 0)
(1.1501 -0.0187948 0)
(1.14025 -0.0197385 0)
(1.11985 -0.0228639 0)
(1.10893 -0.0236861 0)
(1.10376 -0.0214181 0)
(1.10241 -0.0183166 0)
(1.10232 -0.0147 0)
(1.10219 -0.0108694 0)
(1.10332 -0.00728458 0)
(1.10751 -0.00368201 0)
(1.11272 -0.00120595 0)
(1.11468 -0.000285409 0)
(1.11315 -0.000459163 0)
(1.1093 -0.00124189 0)
(1.09706 -0.00344573 0)
(1.08685 -0.0041312 0)
(1.08124 -0.00171379 0)
(1.07731 0.00219088 0)
(1.07415 0.00582138 0)
(1.07043 0.00827557 0)
(1.06753 0.0101368 0)
(1.06911 0.0117329 0)
(1.07616 0.0133668 0)
(1.08157 0.0148291 0)
(1.08173 0.0156975 0)
(1.07883 0.015951 0)
(1.06963 0.0160263 0)
(1.05412 0.0160836 0)
(1.0462 0.0183826 0)
(1.04074 0.021048 0)
(1.03576 0.023254 0)
(1.03068 0.0243602 0)
(1.0259 0.025283 0)
(1.027 0.026124 0)
(1.03661 0.0257481 0)
(1.04269 0.0267325 0)
(1.04194 0.0279683 0)
(1.03777 0.0285091 0)
(1.02741 0.0289328 0)
(1.0087 0.0291515 0)
(0.997432 0.0313984 0)
(0.990182 0.0338862 0)
(0.983974 0.0360445 0)
(0.978293 0.0371089 0)
(0.97377 0.0377237 0)
(0.978389 0.0379002 0)
(0.989955 0.0378514 0)
(0.993801 0.0392295 0)
(0.990904 0.0410579 0)
(0.985036 0.0425802 0)
(0.971003 0.0450067 0)
(0.947717 0.045803 0)
(0.931394 0.0481664 0)
(0.921182 0.051572 0)
(0.913628 0.0531899 0)
(0.90688 0.0531542 0)
(0.907164 0.0508479 0)
(0.922804 0.0505432 0)
(0.929596 0.0520313 0)
(0.925303 0.0545541 0)
(0.917676 0.0577168 0)
(0.907086 0.0604451 0)
(0.885498 0.0620381 0)
(0.85295 0.0632422 0)
(0.82864 0.0634601 0)
(0.815284 0.0620096 0)
(0.805886 0.0597012 0)
(0.809652 0.0561319 0)
(0.829258 0.0553459 0)
(0.832065 0.0581292 0)
(0.822772 0.0630101 0)
(0.810147 0.0661906 0)
(0.790266 0.0673045 0)
(0.751927 0.0644478 0)
(0.699751 0.058798 0)
(0.650174 0.0534308 0)
(0.60966 0.0490193 0)
(0.587704 -0.00894828 0)
(0.112034 -0.0937978 0)
(-1.14332 -0.0667589 0)
(1.22395 -0.109774 0)
(1.21868 -0.112467 0)
(1.21419 -0.122091 0)
(1.21002 -0.127752 0)
(1.20716 -0.125977 0)
(1.21342 -0.11098 0)
(1.21698 -0.0972802 0)
(1.21569 -0.0910279 0)
(1.21308 -0.0880934 0)
(1.20915 -0.0846238 0)
(1.20077 -0.0829195 0)
(1.19028 -0.0879954 0)
(1.18178 -0.0944665 0)
(1.17706 -0.0965678 0)
(1.17165 -0.0949846 0)
(1.16702 -0.0895103 0)
(1.17021 -0.0777903 0)
(1.17623 -0.0663911 0)
(1.17754 -0.0614833 0)
(1.17543 -0.0584905 0)
(1.17329 -0.0550479 0)
(1.17166 -0.0556235 0)
(1.16359 -0.0637398 0)
(1.15336 -0.0707562 0)
(1.14674 -0.0690737 0)
(1.13954 -0.0639955 0)
(1.13326 -0.0587126 0)
(1.1275 -0.0524813 0)
(1.12591 -0.043154 0)
(1.1311 -0.0338844 0)
(1.13528 -0.0298525 0)
(1.13488 -0.0278306 0)
(1.13287 -0.0272367 0)
(1.13085 -0.0286559 0)
(1.12418 -0.0350307 0)
(1.11241 -0.0395126 0)
(1.1038 -0.0374327 0)
(1.09654 -0.0335817 0)
(1.09036 -0.0292026 0)
(1.08473 -0.0244856 0)
(1.08109 -0.0177962 0)
(1.08595 -0.00863047 0)
(1.09193 -0.00420324 0)
(1.09148 -0.0024213 0)
(1.08858 -0.0013905 0)
(1.08506 -0.00162339 0)
(1.07731 -0.00540368 0)
(1.06415 -0.00968533 0)
(1.05412 -0.00833941 0)
(1.04675 -0.00542086 0)
(1.04053 -0.00234418 0)
(1.03503 0.000513481 0)
(1.03304 0.00584057 0)
(1.03994 0.0137962 0)
(1.04473 0.0179256 0)
(1.04338 0.020533 0)
(1.03925 0.0223354 0)
(1.03472 0.0227086 0)
(1.02407 0.019982 0)
(1.00846 0.0160257 0)
(0.996835 0.0174073 0)
(0.988777 0.0200559 0)
(0.981656 0.0219184 0)
(0.976033 0.024037 0)
(0.979555 0.0282126 0)
(0.989139 0.033636 0)
(0.990775 0.0377966 0)
(0.987778 0.0414037 0)
(0.982875 0.0438687 0)
(0.976244 0.0446657 0)
(0.959779 0.0410397 0)
(0.938174 0.0370088 0)
(0.924966 0.0374216 0)
(0.915876 0.0385533 0)
(0.908415 0.0390324 0)
(0.90677 0.0418968 0)
(0.917829 0.0469082 0)
(0.924273 0.0542394 0)
(0.922455 0.0597575 0)
(0.916203 0.0619285 0)
(0.907747 0.0615071 0)
(0.88965 0.0575945 0)
(0.856191 0.0519768 0)
(0.831566 0.0491503 0)
(0.817101 0.0477601 0)
(0.807089 0.0469247 0)
(0.804126 0.0478466 0)
(0.815711 0.0578725 0)
(0.822005 0.0701443 0)
(0.816012 0.0749851 0)
(0.804272 0.0748583 0)
(0.786087 0.0724833 0)
(0.7484 0.0653048 0)
(0.695158 0.0558515 0)
(0.6446 0.0491304 0)
(0.597094 0.0462236 0)
(0.569312 -0.0135953 0)
(0.0967259 -0.0929769 0)
(-1.16074 -0.0956208 0)
(1.22089 -0.0981089 0)
(1.21276 -0.100113 0)
(1.20848 -0.108597 0)
(1.2088 -0.120025 0)
(1.20825 -0.127757 0)
(1.20712 -0.123889 0)
(1.21466 -0.107068 0)
(1.21515 -0.0902548 0)
(1.21159 -0.0795616 0)
(1.20721 -0.0738901 0)
(1.19964 -0.072577 0)
(1.18968 -0.0757772 0)
(1.18105 -0.0818693 0)
(1.17386 -0.0886961 0)
(1.16977 -0.0931655 0)
(1.16604 -0.0934006 0)
(1.16412 -0.0879822 0)
(1.17149 -0.0732417 0)
(1.17579 -0.0579622 0)
(1.17552 -0.049607 0)
(1.17269 -0.0484508 0)
(1.16857 -0.0495864 0)
(1.16319 -0.0521929 0)
(1.15177 -0.0597264 0)
(1.14142 -0.0653132 0)
(1.13559 -0.0655728 0)
(1.12973 -0.0623174 0)
(1.1253 -0.0566028 0)
(1.12309 -0.0490189 0)
(1.12927 -0.0358393 0)
(1.13543 -0.0250949 0)
(1.13557 -0.0227761 0)
(1.1325 -0.0242746 0)
(1.12794 -0.0256474 0)
(1.12236 -0.0277914 0)
(1.11105 -0.0330509 0)
(1.1003 -0.0364282 0)
(1.09229 -0.0348437 0)
(1.08564 -0.0301031 0)
(1.08111 -0.0250154 0)
(1.07851 -0.0200269 0)
(1.08358 -0.0107779 0)
(1.09165 -0.00145259 0)
(1.09226 0.00123551 0)
(1.08875 0.000668179 0)
(1.08382 1.17366e-05 0)
(1.07758 -0.00165809 0)
(1.06392 -0.00591504 0)
(1.0514 -0.00832369 0)
(1.04285 -0.00691464 0)
(1.03599 -0.00307 0)
(1.03087 0.000848298 0)
(1.02806 0.00495953 0)
(1.03499 0.014545 0)
(1.04339 0.0228131 0)
(1.04373 0.0252486 0)
(1.03953 0.0253042 0)
(1.03441 0.0248879 0)
(1.02557 0.0226863 0)
(1.00788 0.0177013 0)
(0.993352 0.0152207 0)
(0.983995 0.016594 0)
(0.976626 0.0201122 0)
(0.971324 0.0234537 0)
(0.971941 0.0298534 0)
(0.982447 0.0394632 0)
(0.987492 0.0450634 0)
(0.985596 0.0464577 0)
(0.980272 0.0464343 0)
(0.97418 0.0457995 0)
(0.959571 0.0416504 0)
(0.9351 0.0351761 0)
(0.919112 0.0327977 0)
(0.909339 0.0346312 0)
(0.901933 0.0371057 0)
(0.897795 0.040916 0)
(0.905914 0.0499718 0)
(0.915709 0.057569 0)
(0.916167 0.0588935 0)
(0.910996 0.0578182 0)
(0.903628 0.0573131 0)
(0.888397 0.0563675 0)
(0.855549 0.0502587 0)
(0.827389 0.0442315 0)
(0.810459 0.0430669 0)
(0.799623 0.0431788 0)
(0.791488 0.043471 0)
(0.79613 0.0481555 0)
(0.806743 0.0541936 0)
(0.805158 0.0562939 0)
(0.794752 0.05688 0)
(0.779354 0.056477 0)
(0.746042 0.0502522 0)
(0.698312 0.0380668 0)
(0.650736 0.0247692 0)
(0.6002 0.012221 0)
(0.579744 -0.0662537 0)
(0.084247 -0.105065 0)
(-1.16991 -0.0887563 0)
(1.22079 -0.0983001 0)
(1.2148 -0.100169 0)
(1.21055 -0.106461 0)
(1.20693 -0.109859 0)
(1.20112 -0.111777 0)
(1.19539 -0.111817 0)
(1.19479 -0.108412 0)
(1.20003 -0.0955824 0)
(1.20464 -0.0824168 0)
(1.20288 -0.0764756 0)
(1.19794 -0.0756125 0)
(1.19135 -0.0766131 0)
(1.18324 -0.0794326 0)
(1.1749 -0.0823344 0)
(1.16523 -0.0835913 0)
(1.15739 -0.0820605 0)
(1.15462 -0.0799705 0)
(1.15388 -0.0750387 0)
(1.16236 -0.0633559 0)
(1.17269 -0.0547033 0)
(1.1728 -0.0533912 0)
(1.16791 -0.0530943 0)
(1.16264 -0.0527614 0)
(1.15543 -0.053935 0)
(1.14079 -0.0576132 0)
(1.12742 -0.0567678 0)
(1.12019 -0.0514594 0)
(1.11717 -0.0475264 0)
(1.11473 -0.0442543 0)
(1.11784 -0.0383731 0)
(1.13115 -0.0307094 0)
(1.13646 -0.0286825 0)
(1.13259 -0.0291751 0)
(1.12715 -0.0292039 0)
(1.12166 -0.0288983 0)
(1.11154 -0.0293276 0)
(1.09524 -0.0296775 0)
(1.08338 -0.0260982 0)
(1.07735 -0.0213386 0)
(1.07378 -0.0176743 0)
(1.07102 -0.0147918 0)
(1.07407 -0.0108153 0)
(1.08683 -0.0060533 0)
(1.09187 -0.00432462 0)
(1.0884 -0.00450278 0)
(1.08301 -0.00464305 0)
(1.07716 -0.0045576 0)
(1.06382 -0.00518588 0)
(1.04623 -0.0047852 0)
(1.03441 -0.000464098 0)
(1.02794 0.00430514 0)
(1.02348 0.0079644 0)
(1.02011 0.0107368 0)
(1.02515 0.014943 0)
(1.03801 0.0197605 0)
(1.04142 0.0210833 0)
(1.03798 0.0205657 0)
(1.03284 0.0200779 0)
(1.02527 0.0198544 0)
(1.00646 0.0181742 0)
(0.986688 0.0181217 0)
(0.975543 0.0209654 0)
(0.968669 0.0242806 0)
(0.963368 0.0267435 0)
(0.961347 0.0298611 0)
(0.971718 0.0360808 0)
(0.981455 0.0403145 0)
(0.98115 0.0408505 0)
(0.975981 0.0407687 0)
(0.969943 0.0406872 0)
(0.958305 0.0403857 0)
(0.9319 0.0362244 0)
(0.910647 0.0341329 0)
(0.899548 0.0356456 0)
(0.892076 0.0375385 0)
(0.886162 0.0393118 0)
(0.890293 0.0446768 0)
(0.903127 0.0529475 0)
(0.905602 0.0575445 0)
(0.900638 0.0595748 0)
(0.893794 0.0602169 0)
(0.883508 0.0598451 0)
(0.857363 0.0520833 0)
(0.823885 0.0399656 0)
(0.802197 0.0344215 0)
(0.788973 0.0343167 0)
(0.779258 0.0345879 0)
(0.775252 0.0370378 0)
(0.781838 0.0472736 0)
(0.782483 0.0576479 0)
(0.774267 0.0614301 0)
(0.762056 0.0605379 0)
(0.737804 0.053306 0)
(0.698503 0.0324946 0)
(0.653752 0.0106889 0)
(0.606534 -0.00589649 0)
(0.601829 -0.0854379 0)
(0.0777731 -0.106021 0)
(-1.18155 -0.0869802 0)
(1.21947 -0.104537 0)
(1.21556 -0.101996 0)
(1.21085 -0.102623 0)
(1.2059 -0.10159 0)
(1.19711 -0.0974606 0)
(1.18989 -0.0958473 0)
(1.18715 -0.0963775 0)
(1.18552 -0.0963504 0)
(1.19006 -0.092628 0)
(1.19559 -0.0857639 0)
(1.19385 -0.0818995 0)
(1.18871 -0.0805319 0)
(1.18238 -0.0796481 0)
(1.1717 -0.0773597 0)
(1.16021 -0.0728842 0)
(1.15257 -0.0692603 0)
(1.14939 -0.0681128 0)
(1.14724 -0.0677338 0)
(1.15107 -0.0681526 0)
(1.16203 -0.0655126 0)
(1.16628 -0.0594313 0)
(1.16324 -0.0554109 0)
(1.15846 -0.0530202 0)
(1.15232 -0.0510239 0)
(1.13602 -0.0481429 0)
(1.11963 -0.0447511 0)
(1.11309 -0.0431029 0)
(1.10976 -0.0426927 0)
(1.10684 -0.0423832 0)
(1.1087 -0.042006 0)
(1.12215 -0.04088 0)
(1.12961 -0.0369674 0)
(1.12704 -0.0329411 0)
(1.12222 -0.0296231 0)
(1.11697 -0.0264332 0)
(1.1064 -0.0225914 0)
(1.08793 -0.018538 0)
(1.07591 -0.0164266 0)
(1.07116 -0.0156413 0)
(1.06738 -0.0151987 0)
(1.06409 -0.0146223 0)
(1.06662 -0.0143077 0)
(1.07947 -0.0141283 0)
(1.08516 -0.0114063 0)
(1.08232 -0.00757116 0)
(1.07735 -0.0043806 0)
(1.07177 -0.00143266 0)
(1.05896 0.00185893 0)
(1.0391 0.00454274 0)
(1.02707 0.00592068 0)
(1.02127 0.00673008 0)
(1.01661 0.00723127 0)
(1.01284 0.00816678 0)
(1.01674 0.00961059 0)
(1.03013 0.0122405 0)
(1.03421 0.0158435 0)
(1.03075 0.0191491 0)
(1.02582 0.0217889 0)
(1.01934 0.0244316 0)
(1.00283 0.0256352 0)
(0.980523 0.0246568 0)
(0.967911 0.0247067 0)
(0.961013 0.0253956 0)
(0.955523 0.0257437 0)
(0.95187 0.026762 0)
(0.959919 0.0305055 0)
(0.971712 0.0358431 0)
(0.972161 0.0392594 0)
(0.967316 0.0414304 0)
(0.961601 0.0427391 0)
(0.952848 0.0438411 0)
(0.929792 0.0408912 0)
(0.904095 0.0350376 0)
(0.890409 0.0332984 0)
(0.882471 0.0342576 0)
(0.875894 0.0355591 0)
(0.875064 0.0390059 0)
(0.887214 0.0478589 0)
(0.893652 0.0552146 0)
(0.889901 0.0573905 0)
(0.883161 0.0571743 0)
(0.875168 0.0564834 0)
(0.856972 0.0525515 0)
(0.823736 0.0420117 0)
(0.795609 0.0310331 0)
(0.779139 0.0256252 0)
(0.768647 0.0248744 0)
(0.761073 0.0251426 0)
(0.762734 0.0303426 0)
(0.766577 0.039529 0)
(0.761825 0.0446497 0)
(0.751343 0.0447748 0)
(0.736966 0.0417748 0)
(0.709413 0.0281532 0)
(0.670815 0.00787831 0)
(0.625617 -0.0108368 0)
(0.616802 -0.089292 0)
(0.0725941 -0.104936 0)
(-1.18973 -0.0847856 0)
(1.21129 -0.109968 0)
(1.20954 -0.103236 0)
(1.20583 -0.0984976 0)
(1.19942 -0.0915741 0)
(1.19216 -0.087482 0)
(1.18892 -0.0870006 0)
(1.18615 -0.0885231 0)
(1.18351 -0.091814 0)
(1.18182 -0.0939798 0)
(1.18317 -0.0925215 0)
(1.18411 -0.086141 0)
(1.18066 -0.0797118 0)
(1.17538 -0.0728868 0)
(1.16512 -0.0652129 0)
(1.15579 -0.0614238 0)
(1.15098 -0.0604655 0)
(1.14741 -0.0603639 0)
(1.14665 -0.0633567 0)
(1.15002 -0.0692868 0)
(1.15264 -0.0707273 0)
(1.15479 -0.0659103 0)
(1.15347 -0.0586306 0)
(1.14927 -0.0536858 0)
(1.14197 -0.0465078 0)
(1.12812 -0.0369627 0)
(1.11778 -0.0341483 0)
(1.11182 -0.0355836 0)
(1.10763 -0.0365764 0)
(1.104 -0.0371871 0)
(1.10563 -0.0401117 0)
(1.11413 -0.0429513 0)
(1.11801 -0.0407061 0)
(1.11697 -0.0351807 0)
(1.11334 -0.0296481 0)
(1.10839 -0.0246675 0)
(1.0964 -0.0168357 0)
(1.08117 -0.0106495 0)
(1.07172 -0.00998419 0)
(1.06623 -0.0110529 0)
(1.06173 -0.0119508 0)
(1.05791 -0.0129741 0)
(1.06134 -0.0151052 0)
(1.07116 -0.016129 0)
(1.07442 -0.0126957 0)
(1.07244 -0.00787676 0)
(1.06837 -0.00328913 0)
(1.0629 0.00128791 0)
(1.05081 0.0066752 0)
(1.03287 0.00957215 0)
(1.02119 0.00929368 0)
(1.01498 0.00861466 0)
(1.01013 0.00819978 0)
(1.00587 0.00779165 0)
(1.00884 0.00810325 0)
(1.01989 0.0108335 0)
(1.02351 0.0154168 0)
(1.02088 0.0197801 0)
(1.01642 0.023447 0)
(1.01065 0.026451 0)
(0.997575 0.0278916 0)
(0.975514 0.0246819 0)
(0.961076 0.0218876 0)
(0.953769 0.0218984 0)
(0.948158 0.0220567 0)
(0.943719 0.0227514 0)
(0.948725 0.0263282 0)
(0.960366 0.0328938 0)
(0.962137 0.0378112 0)
(0.957913 0.0407394 0)
(0.952433 0.0427988 0)
(0.945334 0.0447135 0)
(0.928334 0.0439061 0)
(0.90182 0.0370502 0)
(0.883952 0.0312382 0)
(0.874974 0.030051 0)
(0.868298 0.0302504 0)
(0.863788 0.0314309 0)
(0.870041 0.0388246 0)
(0.879982 0.0508174 0)
(0.880036 0.0575912 0)
(0.874231 0.0598756 0)
(0.866924 0.0603371 0)
(0.854861 0.0593724 0)
(0.828147 0.0490994 0)
(0.797083 0.0349219 0)
(0.775532 0.0236374 0)
(0.762157 0.0164194 0)
(0.752952 0.0144439 0)
(0.748326 0.0158278 0)
(0.750726 0.0234962 0)
(0.749806 0.0310158 0)
(0.742666 0.0335171 0)
(0.732696 0.0321995 0)
(0.71759 0.0244551 0)
(0.693851 0.0079067 0)
(0.657963 -0.0103778 0)
(0.63976 -0.0799261 0)
(0.0652779 -0.106273 0)
(-1.19597 -0.0808899 0)
(1.19788 -0.118038 0)
(1.19576 -0.104984 0)
(1.19418 -0.0903527 0)
(1.19162 -0.0805285 0)
(1.18944 -0.0778234 0)
(1.18769 -0.0790026 0)
(1.1862 -0.0824741 0)
(1.18404 -0.0868123 0)
(1.18106 -0.0908144 0)
(1.1777 -0.0915802 0)
(1.17368 -0.090111 0)
(1.16807 -0.0826388 0)
(1.16025 -0.0714644 0)
(1.15372 -0.0611473 0)
(1.14788 -0.0562507 0)
(1.14368 -0.0555151 0)
(1.14381 -0.0564179 0)
(1.14798 -0.0608308 0)
(1.14897 -0.0646407 0)
(1.14787 -0.0653405 0)
(1.14599 -0.0642608 0)
(1.14336 -0.0617235 0)
(1.13897 -0.0561114 0)
(1.12802 -0.0449499 0)
(1.11872 -0.037682 0)
(1.11243 -0.0353619 0)
(1.10715 -0.034967 0)
(1.10249 -0.0351414 0)
(1.09969 -0.0357651 0)
(1.10449 -0.0370793 0)
(1.10902 -0.0378596 0)
(1.10917 -0.0358341 0)
(1.10752 -0.0322184 0)
(1.10451 -0.0282533 0)
(1.0994 -0.0236005 0)
(1.08694 -0.018429 0)
(1.0747 -0.0159664 0)
(1.06703 -0.0149133 0)
(1.06137 -0.0143558 0)
(1.05626 -0.0142436 0)
(1.05235 -0.0142673 0)
(1.05686 -0.0143884 0)
(1.06329 -0.0132566 0)
(1.06405 -0.00950531 0)
(1.06209 -0.00459666 0)
(1.05865 0.000520984 0)
(1.05376 0.00479407 0)
(1.04414 0.00712854 0)
(1.02892 0.00589432 0)
(1.01716 0.00492276 0)
(1.01018 0.00512662 0)
(1.00468 0.00533015 0)
(0.999729 0.00542029 0)
(1.00108 0.00722143 0)
(1.00972 0.0119272 0)
(1.01269 0.0168579 0)
(1.01083 0.0213678 0)
(1.00723 0.0258277 0)
(1.00229 0.0287393 0)
(0.993932 0.0300805 0)
(0.974989 0.0262942 0)
(0.957346 0.0213954 0)
(0.948112 0.0188204 0)
(0.941909 0.0185712 0)
(0.936541 0.0189194 0)
(0.937233 0.022186 0)
(0.947412 0.0320443 0)
(0.952186 0.0407682 0)
(0.94941 0.0444061 0)
(0.944384 0.0464486 0)
(0.938378 0.0479654 0)
(0.927461 0.0472333 0)
(0.904549 0.0397297 0)
(0.88313 0.0315158 0)
(0.871062 0.0257912 0)
(0.86301 0.0236552 0)
(0.85616 0.0239596 0)
(0.854223 0.0283219 0)
(0.863537 0.0411475 0)
(0.869667 0.0530119 0)
(0.866821 0.0585329 0)
(0.86013 0.0602369 0)
(0.851772 0.0604132 0)
(0.835386 0.0556775 0)
(0.807617 0.03898 0)
(0.781176 0.0222798 0)
(0.761958 0.0122564 0)
(0.749736 0.00654908 0)
(0.741403 0.00487011 0)
(0.739065 0.0076584 0)
(0.740702 0.0148214 0)
(0.737929 0.0189024 0)
(0.731722 0.0179313 0)
(0.723602 0.0126463 0)
(0.70956 0.00143464 0)
(0.687279 -0.0124629 0)
(0.664786 -0.0602604 0)
(0.0609808 -0.109391 0)
(-1.20206 -0.0776193 0)
(1.18685 -0.117267 0)
(1.17701 -0.110704 0)
(1.17455 -0.096544 0)
(1.17731 -0.0825814 0)
(1.18388 -0.0730773 0)
(1.18773 -0.0724952 0)
(1.18728 -0.0754734 0)
(1.18509 -0.0787674 0)
(1.18203 -0.0824632 0)
(1.1772 -0.0860548 0)
(1.16717 -0.0871694 0)
(1.15382 -0.0842292 0)
(1.14592 -0.0786273 0)
(1.14116 -0.0719586 0)
(1.13824 -0.064107 0)
(1.13728 -0.0574886 0)
(1.1426 -0.0538812 0)
(1.14834 -0.053515 0)
(1.14771 -0.0540044 0)
(1.14579 -0.0550996 0)
(1.14317 -0.055242 0)
(1.14022 -0.0549881 0)
(1.13059 -0.0535073 0)
(1.11823 -0.0499608 0)
(1.11084 -0.0465953 0)
(1.10542 -0.0429034 0)
(1.10084 -0.0393099 0)
(1.09655 -0.036745 0)
(1.09562 -0.034566 0)
(1.1014 -0.0327096 0)
(1.10446 -0.0304127 0)
(1.10306 -0.028121 0)
(1.10055 -0.0258285 0)
(1.09734 -0.0233691 0)
(1.09303 -0.0209122 0)
(1.08275 -0.0190792 0)
(1.06995 -0.0188786 0)
(1.06231 -0.0190886 0)
(1.0567 -0.0191418 0)
(1.0512 -0.0189105 0)
(1.04743 -0.01794 0)
(1.05047 -0.0138051 0)
(1.05565 -0.00633377 0)
(1.05628 -0.00107921 0)
(1.05389 0.0024174 0)
(1.05059 0.00519978 0)
(1.04698 0.00667235 0)
(1.04187 0.00736733 0)
(1.02819 0.00564083 0)
(1.01443 0.00245831 0)
(1.00643 0.000617617 0)
(0.999954 0.000813678 0)
(0.994353 0.00184498 0)
(0.991802 0.00538101 0)
(0.998617 0.015258 0)
(1.00415 0.0239556 0)
(1.00354 0.0271952 0)
(1.00042 0.028196 0)
(0.99643 0.0289455 0)
(0.991338 0.0290863 0)
(0.978141 0.0261109 0)
(0.958422 0.0191597 0)
(0.945385 0.0153555 0)
(0.937116 0.014594 0)
(0.93087 0.0157618 0)
(0.926308 0.0183594 0)
(0.931472 0.028289 0)
(0.941061 0.0412418 0)
(0.942186 0.0477344 0)
(0.938411 0.0491679 0)
(0.933592 0.0488702 0)
(0.927442 0.0479361 0)
(0.912446 0.0409871 0)
(0.888576 0.0281052 0)
(0.870176 0.0202887 0)
(0.858408 0.0180503 0)
(0.850078 0.0189012 0)
(0.843695 0.0209174 0)
(0.844827 0.0297972 0)
(0.854609 0.0461189 0)
(0.858199 0.0568634 0)
(0.854591 0.0608312 0)
(0.847904 0.0606405 0)
(0.839347 0.0583802 0)
(0.821451 0.0490476 0)
(0.793353 0.0300266 0)
(0.76876 0.0132862 0)
(0.750969 0.00320502 0)
(0.739668 -0.0017886 0)
(0.732179 -0.00285505 0)
(0.731493 0.000743996 0)
(0.732694 0.00652236 0)
(0.730127 0.00737893 0)
(0.725999 0.00125294 0)
(0.718717 -0.00863127 0)
(0.70617 -0.0199257 0)
(0.68752 -0.0485889 0)
(0.0604016 -0.10874 0)
(-1.20688 -0.073196 0)
(1.17801 -0.112179 0)
(1.16274 -0.109486 0)
(1.15972 -0.103288 0)
(1.15992 -0.0946461 0)
(1.17338 -0.0800993 0)
(1.18727 -0.0703307 0)
(1.19006 -0.0696833 0)
(1.1875 -0.0714048 0)
(1.18449 -0.0736052 0)
(1.17883 -0.0774527 0)
(1.16479 -0.0810025 0)
(1.14734 -0.079858 0)
(1.13732 -0.077496 0)
(1.13278 -0.0753473 0)
(1.12913 -0.0723329 0)
(1.12833 -0.0665254 0)
(1.13579 -0.0567935 0)
(1.146 -0.0482706 0)
(1.14871 -0.0459603 0)
(1.14633 -0.0461848 0)
(1.14363 -0.0469105 0)
(1.13871 -0.0474843 0)
(1.12783 -0.0469927 0)
(1.11507 -0.046852 0)
(1.10616 -0.0466805 0)
(1.10073 -0.0463654 0)
(1.09566 -0.0453635 0)
(1.09104 -0.0431401 0)
(1.08924 -0.0387707 0)
(1.09422 -0.0307291 0)
(1.09933 -0.0229637 0)
(1.09941 -0.0192061 0)
(1.09664 -0.0175065 0)
(1.09317 -0.0159976 0)
(1.08972 -0.0155036 0)
(1.08245 -0.0168156 0)
(1.07071 -0.0205565 0)
(1.06141 -0.0231912 0)
(1.05446 -0.0241356 0)
(1.04819 -0.0235835 0)
(1.04268 -0.0217375 0)
(1.03994 -0.015862 0)
(1.04508 -0.00340065 0)
(1.04917 0.00633235 0)
(1.04901 0.00966582 0)
(1.04733 0.0104488 0)
(1.0445 0.00981722 0)
(1.04035 0.00899223 0)
(1.03085 0.00518655 0)
(1.01563 -0.00169222 0)
(1.00362 -0.00444421 0)
(0.994989 -0.00340779 0)
(0.987976 -2.9894e-05 0)
(0.982942 0.00344507 0)
(0.984878 0.0119719 0)
(0.994747 0.0244178 0)
(0.998807 0.0306733 0)
(0.997654 0.0316188 0)
(0.994165 0.0307228 0)
(0.989517 0.0299075 0)
(0.981524 0.0276801 0)
(0.963165 0.0196923 0)
(0.944869 0.0129438 0)
(0.932658 0.0122428 0)
(0.924274 0.0148515 0)
(0.918221 0.0179392 0)
(0.916063 0.0230844 0)
(0.926294 0.0365555 0)
(0.935222 0.0477727 0)
(0.935638 0.0508504 0)
(0.932048 0.049329 0)
(0.926701 0.048075 0)
(0.918298 0.0454603 0)
(0.897889 0.0342 0)
(0.873389 0.0216155 0)
(0.856275 0.0163865 0)
(0.845051 0.0156152 0)
(0.837751 0.0167197 0)
(0.832711 0.0189415 0)
(0.837783 0.0292784 0)
(0.848364 0.0446629 0)
(0.851563 0.0521628 0)
(0.847736 0.0540177 0)
(0.840322 0.0540952 0)
(0.828827 0.0519293 0)
(0.80832 0.0420809 0)
(0.780761 0.0229428 0)
(0.757209 0.00647871 0)
(0.74068 -0.0034247 0)
(0.730738 -0.00890604 0)
(0.724923 -0.0108424 0)
(0.72657 -0.00775566 0)
(0.728997 -0.00430072 0)
(0.728127 -0.00773272 0)
(0.725083 -0.0180109 0)
(0.718168 -0.0270729 0)
(0.70472 -0.0421719 0)
(0.0632198 -0.106752 0)
(-1.21105 -0.0694269 0)
(1.17391 -0.102331 0)
(1.15761 -0.0992977 0)
(1.15545 -0.0966791 0)
(1.15305 -0.0942576 0)
(1.15898 -0.0887454 0)
(1.17996 -0.076212 0)
(1.18973 -0.0695297 0)
(1.18811 -0.0685117 0)
(1.18379 -0.0682652 0)
(1.17935 -0.0682976 0)
(1.16547 -0.0701416 0)
(1.14591 -0.0726761 0)
(1.13544 -0.072229 0)
(1.13072 -0.0716276 0)
(1.12674 -0.0711884 0)
(1.12321 -0.070329 0)
(1.12411 -0.0663081 0)
(1.13655 -0.0546009 0)
(1.14434 -0.0447881 0)
(1.14349 -0.0410459 0)
(1.1402 -0.039453 0)
(1.13661 -0.0384297 0)
(1.12851 -0.0395785 0)
(1.11584 -0.0436923 0)
(1.10567 -0.0469204 0)
(1.09831 -0.0476087 0)
(1.09219 -0.0465238 0)
(1.0872 -0.0452169 0)
(1.08279 -0.0436685 0)
(1.08285 -0.0378413 0)
(1.09001 -0.0252605 0)
(1.09424 -0.0153145 0)
(1.09404 -0.0115505 0)
(1.09159 -0.0112917 0)
(1.08811 -0.0118176 0)
(1.0834 -0.0134682 0)
(1.07342 -0.0191431 0)
(1.06212 -0.0247249 0)
(1.05243 -0.0262746 0)
(1.04328 -0.024109 0)
(1.0356 -0.0192342 0)
(1.03059 -0.0146612 0)
(1.03086 -0.00665343 0)
(1.04044 0.00610034 0)
(1.04608 0.0125969 0)
(1.04622 0.0124258 0)
(1.04345 0.0109068 0)
(1.03924 0.00962663 0)
(1.03354 0.0076777 0)
(1.01911 0.00142944 0)
(1.00193 -0.00382006 0)
(0.989339 -0.0033443 0)
(0.980996 0.000525613 0)
(0.975533 0.00441644 0)
(0.97287 0.00897802 0)
(0.982203 0.0196912 0)
(0.993428 0.0291398 0)
(0.995387 0.0317265 0)
(0.992264 0.0311291 0)
(0.987653 0.0304326 0)
(0.982211 0.0295479 0)
(0.968767 0.024941 0)
(0.946135 0.0168334 0)
(0.92935 0.013799 0)
(0.919031 0.0143848 0)
(0.912435 0.0163535 0)
(0.907405 0.0185412 0)
(0.911075 0.0259162 0)
(0.926304 0.039635 0)
(0.933439 0.0465961 0)
(0.930857 0.0485836 0)
(0.925602 0.0485288 0)
(0.919558 0.0481756 0)
(0.906569 0.0445988 0)
(0.880022 0.0316062 0)
(0.857041 0.020992 0)
(0.843403 0.0163947 0)
(0.834522 0.0139447 0)
(0.827923 0.0134298 0)
(0.824378 0.0155006 0)
(0.832378 0.0267373 0)
(0.842025 0.0411094 0)
(0.842449 0.0481335 0)
(0.836967 0.0502848 0)
(0.829048 0.0503924 0)
(0.81657 0.046716 0)
(0.795747 0.0359903 0)
(0.769375 0.0170175 0)
(0.747447 -6.19701e-05 0)
(0.732357 -0.0114023 0)
(0.723673 -0.0184295 0)
(0.720037 -0.0210547 0)
(0.724298 -0.0167591 0)
(0.728202 -0.0150108 0)
(0.72935 -0.0233434 0)
(0.726742 -0.0325005 0)
(0.717948 -0.040105 0)
(0.0679782 -0.102843 0)
(-1.21469 -0.0663484 0)
(1.17399 -0.0897724 0)
(1.15855 -0.0882864 0)
(1.15593 -0.089498 0)
(1.15274 -0.0906664 0)
(1.15244 -0.091076 0)
(1.16648 -0.0865787 0)
(1.18315 -0.0759267 0)
(1.18397 -0.070268 0)
(1.17987 -0.0674173 0)
(1.17557 -0.0642322 0)
(1.16641 -0.0599845 0)
(1.14877 -0.0616484 0)
(1.13558 -0.0671345 0)
(1.12973 -0.0690403 0)
(1.12572 -0.0695432 0)
(1.12174 -0.0696804 0)
(1.11855 -0.0694593 0)
(1.12181 -0.0645534 0)
(1.13283 -0.0507106 0)
(1.13672 -0.04055 0)
(1.1349 -0.0356864 0)
(1.13147 -0.0326779 0)
(1.12722 -0.0309745 0)
(1.11863 -0.0333657 0)
(1.10576 -0.0400482 0)
(1.09631 -0.0441073 0)
(1.09024 -0.0455113 0)
(1.08426 -0.0456878 0)
(1.078 -0.0434509 0)
(1.07354 -0.0405151 0)
(1.07515 -0.03196 0)
(1.08565 -0.0170155 0)
(1.09092 -0.0094733 0)
(1.09021 -0.00859295 0)
(1.08699 -0.0095718 0)
(1.08276 -0.01033 0)
(1.07687 -0.0126396 0)
(1.0642 -0.0193275 0)
(1.04925 -0.024079 0)
(1.03673 -0.0224213 0)
(1.02813 -0.0172389 0)
(1.02281 -0.012739 0)
(1.01971 -0.00839539 0)
(1.02872 0.00106489 0)
(1.04268 0.00981745 0)
(1.0456 0.0117038 0)
(1.04256 0.0109977 0)
(1.03819 0.0103333 0)
(1.03327 0.00954103 0)
(1.02249 0.00678229 0)
(1.00126 0.00125168 0)
(0.984257 2.42258e-05 0)
(0.975377 0.00142089 0)
(0.970279 0.00280201 0)
(0.966027 0.00430912 0)
(0.96942 0.0101551 0)
(0.985573 0.0227784 0)
(0.99288 0.0292365 0)
(0.990652 0.030908 0)
(0.986023 0.0311291 0)
(0.981076 0.0315734 0)
(0.97245 0.0319653 0)
(0.950781 0.0259362 0)
(0.929048 0.0181228 0)
(0.916807 0.0154612 0)
(0.909598 0.0146207 0)
(0.904251 0.0144831 0)
(0.900921 0.0153726 0)
(0.911184 0.0249504 0)
(0.925161 0.0402503 0)
(0.927458 0.0467211 0)
(0.923101 0.0485112 0)
(0.917359 0.0497414 0)
(0.909713 0.0511767 0)
(0.892401 0.0460708 0)
(0.865895 0.0296167 0)
(0.846562 0.0174088 0)
(0.834438 0.0121734 0)
(0.826379 0.00947015 0)
(0.820119 0.00780521 0)
(0.818222 0.00909225 0)
(0.827125 0.021094 0)
(0.833977 0.0351534 0)
(0.83248 0.0422149 0)
(0.826374 0.0451647 0)
(0.818011 0.0456316 0)
(0.804893 0.0412881 0)
(0.785538 0.0293442 0)
(0.761686 0.00906926 0)
(0.741212 -0.0100715 0)
(0.726891 -0.0234511 0)
(0.719485 -0.0302259 0)
(0.717686 -0.0311002 0)
(0.72463 -0.0257626 0)
(0.731263 -0.0277218 0)
(0.733652 -0.036949 0)
(0.728373 -0.0407728 0)
(0.0744202 -0.0984263 0)
(-1.21833 -0.0640342 0)
(1.1767 -0.0791141 0)
(1.16207 -0.0803063 0)
(1.15757 -0.085886 0)
(1.15428 -0.0902407 0)
(1.15197 -0.0944366 0)
(1.15546 -0.0950119 0)
(1.16822 -0.0860418 0)
(1.17348 -0.0747724 0)
(1.17114 -0.0671306 0)
(1.16682 -0.0591373 0)
(1.1613 -0.0528613 0)
(1.1527 -0.0507284 0)
(1.13897 -0.0563 0)
(1.12971 -0.0632626 0)
(1.125 -0.0668763 0)
(1.12118 -0.0700345 0)
(1.11685 -0.0710808 0)
(1.11293 -0.0692294 0)
(1.1155 -0.0605071 0)
(1.12518 -0.0437341 0)
(1.12852 -0.0329944 0)
(1.12748 -0.0287829 0)
(1.1243 -0.0281416 0)
(1.12008 -0.0285277 0)
(1.11257 -0.0324698 0)
(1.09999 -0.041367 0)
(1.08959 -0.0469162 0)
(1.08047 -0.0460536 0)
(1.0725 -0.0412691 0)
(1.0676 -0.0363848 0)
(1.06465 -0.0326039 0)
(1.07214 -0.0235226 0)
(1.08628 -0.0126144 0)
(1.08936 -0.00975408 0)
(1.08629 -0.00999581 0)
(1.08177 -0.0104501 0)
(1.07695 -0.0109274 0)
(1.06779 -0.0133371 0)
(1.04741 -0.0181403 0)
(1.0298 -0.0177233 0)
(1.02189 -0.0151384 0)
(1.0176 -0.0129537 0)
(1.01424 -0.0108523 0)
(1.01837 -0.00659757 0)
(1.03639 0.00271357 0)
(1.04386 0.00820137 0)
(1.04106 0.00972346 0)
(1.03647 0.0102832 0)
(1.03158 0.011538 0)
(1.02341 0.0136528 0)
(1.00303 0.0121606 0)
(0.982902 0.00741117 0)
(0.973407 0.00515019 0)
(0.968004 0.0041304 0)
(0.963362 0.00377527 0)
(0.961271 0.00406161 0)
(0.973224 0.0119035 0)
(0.986511 0.0243177 0)
(0.987292 0.0296496 0)
(0.983226 0.0322419 0)
(0.978459 0.0347643 0)
(0.972416 0.0371725 0)
(0.958121 0.0358614 0)
(0.933995 0.0254017 0)
(0.91796 0.0168705 0)
(0.909708 0.0130383 0)
(0.903771 0.00992724 0)
(0.898066 0.00861382 0)
(0.895694 0.0113156 0)
(0.907781 0.0268492 0)
(0.917797 0.0441886 0)
(0.917483 0.0516628 0)
(0.913269 0.0546051 0)
(0.908082 0.0552524 0)
(0.900107 0.0545411 0)
(0.881089 0.0448699 0)
(0.856014 0.0259808 0)
(0.838933 0.0125323 0)
(0.827692 0.00548945 0)
(0.81976 0.00200324 0)
(0.81342 0.00108989 0)
(0.811246 0.00508441 0)
(0.818467 0.0194868 0)
(0.823228 0.0332089 0)
(0.82129 0.0396279 0)
(0.815518 0.0415195 0)
(0.807605 0.0404181 0)
(0.796193 0.0335315 0)
(0.779603 0.0199385 0)
(0.757241 -0.00167609 0)
(0.737016 -0.0220643 0)
(0.723494 -0.0357818 0)
(0.717204 -0.0410695 0)
(0.717465 -0.0397365 0)
(0.728184 -0.0360531 0)
(0.737216 -0.0412763 0)
(0.735753 -0.0440962 0)
(0.082163 -0.0914998 0)
(-1.22185 -0.0613951 0)
(1.17612 -0.0730816 0)
(1.16723 -0.0736023 0)
(1.16185 -0.0818293 0)
(1.15817 -0.0903531 0)
(1.15417 -0.095352 0)
(1.15067 -0.0954389 0)
(1.15221 -0.0900047 0)
(1.15807 -0.0788146 0)
(1.15964 -0.0647632 0)
(1.1582 -0.0541693 0)
(1.15586 -0.0498957 0)
(1.15221 -0.0495403 0)
(1.14702 -0.0514757 0)
(1.13696 -0.0592773 0)
(1.1285 -0.0672785 0)
(1.12121 -0.0701824 0)
(1.11301 -0.0664056 0)
(1.10765 -0.0610029 0)
(1.10516 -0.0567549 0)
(1.10893 -0.047319 0)
(1.11998 -0.0350929 0)
(1.12489 -0.0308422 0)
(1.1243 -0.030794 0)
(1.12024 -0.0314525 0)
(1.11537 -0.0320973 0)
(1.1072 -0.0354374 0)
(1.09002 -0.0413637 0)
(1.07449 -0.0408657 0)
(1.06655 -0.0360795 0)
(1.06239 -0.0324135 0)
(1.05903 -0.0295851 0)
(1.06117 -0.0256934 0)
(1.07786 -0.0188287 0)
(1.08676 -0.0139008 0)
(1.08425 -0.012728 0)
(1.07949 -0.012267 0)
(1.07465 -0.0112878 0)
(1.06742 -0.00881107 0)
(1.04753 -0.00633131 0)
(1.02742 -0.00838288 0)
(1.01962 -0.00970367 0)
(1.01573 -0.0105606 0)
(1.01215 -0.0113748 0)
(1.0124 -0.0117154 0)
(1.02653 -0.00674508 0)
(1.03827 0.00197011 0)
(1.03753 0.00673774 0)
(1.0333 0.0107367 0)
(1.02823 0.0151457 0)
(1.02166 0.0191693 0)
(1.00809 0.0198611 0)
(0.987568 0.0128674 0)
(0.974716 0.00639229 0)
(0.968346 0.00333572 0)
(0.963479 0.00103683 0)
(0.958888 -0.00046621 0)
(0.959402 0.00168397 0)
(0.972677 0.0166002 0)
(0.979631 0.0309631 0)
(0.97806 0.0364155 0)
(0.973822 0.0386398 0)
(0.968822 0.0401214 0)
(0.962537 0.0403219 0)
(0.947024 0.0326039 0)
(0.925873 0.0171812 0)
(0.911599 0.00777174 0)
(0.902004 0.00490283 0)
(0.895149 0.00463017 0)
(0.889558 0.0049407 0)
(0.888849 0.0104964 0)
(0.901313 0.0297709 0)
(0.909369 0.0470695 0)
(0.908563 0.0536193 0)
(0.904157 0.0556317 0)
(0.898869 0.0557065 0)
(0.890501 0.0533488 0)
(0.872057 0.0403108 0)
(0.849312 0.0196048 0)
(0.832524 0.00595975 0)
(0.820318 0.000240401 0)
(0.811079 -0.00126418 0)
(0.804807 -0.00124387 0)
(0.803552 0.00313855 0)
(0.810699 0.0167471 0)
(0.815106 0.0281373 0)
(0.813752 0.0322949 0)
(0.808638 0.0325457 0)
(0.801118 0.0304198 0)
(0.790777 0.0231272 0)
(0.775295 0.00986323 0)
(0.753186 -0.0121968 0)
(0.733235 -0.0332771 0)
(0.721101 -0.0466282 0)