/*--------------------------------*- C++ -*----------------------------------*\
  =========                 |
  \\      /  F ield         | OpenFOAM: The Open Source CFD Toolbox
   \\    /   O peration     | Website:  https://openfoam.org
    \\  /    A nd           | Version:  12
     \\/     M anipulation  |
\*---------------------------------------------------------------------------*/
FoamFile
{
    format      ascii;
    class       volScalarField;
    location    "9.64";
    object      rho;
}
// * * * * * * * * * * * * * * * * * * * * * * * * * * * * * * * * * * * * * //

dimensions      [1 -3 0 0 0 0 0];

internalField   nonuniform List<scalar> 
22702
(
1.40001
1.40001
1.25783
1.40001
1.44901
1.40001
1.84074
1.40001
1.40001
1.01029
1.83789
1.8408
1.40001
1.84159
1.269
1.40001
1.40001
1.40001
1.83819
1.40001
1.84188
1.40001
1.84035
1.03645
1.84073
1.02094
1.40001
1.83657
1.00652
1.03561
1.40001
1.83881
1.40001
1.40001
1.40001
1.80938
1.84188
1.83999
1.40001
1.40001
1.00294
1.40001
1.62024
1.40001
1.83565
1.40001
1.40001
1.40001
1.40001
1.02665
1.40001
1.02823
1.40001
1.83882
1.40001
1.83628
1.40001
1.40001
1.40001
1.40001
1.04897
1.40001
1.40001
1.04003
1.40001
1.04575
1.40001
1.40001
1.40001
1.02323
1.40001
1.84184
1.67275
1.40001
1.84207
1.86296
1.03759
1.84298
1.02493
1.40001
1.83863
1.03343
1.83775
1.83796
1.40001
1.40001
1.40001
1.40001
1.32689
1.01865
1.84135
1.40001
1.40001
1.04427
1.40001
1.84219
1.04255
1.40001
1.40001
1.40001
1.40001
1.62234
1.8389
0.995763
1.40001
1.40001
1.50235
1.40001
1.02821
1.40001
1.84086
1.83852
1.40001
1.40001
1.01011
1.01371
1.01324
1.40001
1.40001
1.40001
1.40001
1.40001
1.30735
1.40001
1.78022
1.44337
1.84152
1.40001
1.84189
1.83796
1.84127
1.83878
1.40001
1.02747
1.40001
1.05918
1.40001
1.40001
1.40001
1.40001
1.83811
1.40001
1.40001
1.40001
1.40001
1.84322
1.40001
1.42603
1.40001
1.40001
1.40001
1.40001
1.02466
1.40001
1.41074
1.40001
1.02714
1.40001
1.40001
1.40001
1.84015
1.40001
1.84089
1.05331
1.04479
1.83947
1.8394
1.40001
1.4759
1.65394
1.40001
1.8369
1.02385
1.81011
1.40001
1.40001
1.40001
1.40001
1.84193
1.77708
1.40001
1.83789
1.06689
1.83596
1.40001
1.02204
1.40001
1.02561
1.03715
1.39978
1.40001
1.40001
1.83735
1.40001
1.40001
1.84197
1.40001
1.8382
1.838
1.02907
1.40001
1.40001
1.032
1.84209
1.40001
1.40001
1.40001
1.84218
1.40001
1.0275
1.40001
1.40001
1.84167
1.84203
1.8393
1.40001
1.40005
1.40001
1.40001
1.40001
1.84194
1.40001
1.06482
1.85276
1.84194
1.84098
1.40001
1.40001
1.40001
1.00487
1.84186
1.61279
1.40001
1.84357
1.03782
1.0309
1.84372
1.84235
1.40001
1.84007
1.00345
1.79141
1.40001
1.40001
1.40001
1.40001
1.84203
1.40001
1.67012
1.44085
1.40001
1.40001
1.84177
1.05706
1.14577
1.40001
1.83867
1.03112
1.84648
1.40001
1.40001
1.40001
1.40001
1.40001
1.40001
1.40001
1.02457
1.133
1.03504
1.84155
1.40001
1.40001
1.40001
1.40001
1.79449
1.40001
1.02462
1.40001
1.00977
1.02655
1.84103
1.04358
1.84198
1.40001
1.40001
1.40001
1.39771
1.02085
1.02447
1.4
1.40001
0.998477
1.40001
1.83858
0.997051
1.40001
1.40001
1.83848
1.06429
1.40001
1.84423
1.05477
1.84195
1.40001
1.01714
1.39785
1.40001
1.40001
1.40001
1.02792
1.40001
1.40001
1.4
1.40002
1.41782
1.67414
1.40001
1.02781
1.40001
1.40001
1.40001
1.40001
1.40001
1.40001
1.40001
1.83877
1.40001
1.83706
1.40001
1.40001
1.40001
1.00814
1.40001
1.84274
1.03994
1.40001
1.74756
1.40001
1.40001
1.84057
1.40001
1.40001
1.40001
1.8308
1.40001
1.40001
1.82291
1.83984
1.40001
1.49212
1.40001
1.40001
1.05287
1.40001
1.40001
1.40001
1.05883
1.40001
1.40001
1.40001
1.40001
1.02157
1.40001
1.40001
1.40001
1.40001
1.40001
1.02953
1.40007
1.84102
1.40001
1.39999
1.84013
1.83869
1.40001
1.40001
1.0425
1.22635
1.83854
1.40001
1.40001
1.40001
1.84191
1.02178
1.40001
1.84096
1.40001
1.40001
1.13139
1.12126
1.40001
1.02083
1.01081
1.40001
1.40001
1.40001
1.40001
1.40001
1.40001
1.40001
1.8407
1.50514
1.83312
1.03963
1.28392
1.83684
1.40001
1.84252
1.83793
1.03816
1.18683
1.40001
1.03437
1.40001
1.84776
1.40001
1.40001
1.40001
1.40001
1.84205
1.40001
1.40001
1.40001
1.40001
1.40001
1.40001
1.40001
1.56174
1.83996
1.40001
1.84168
1.40001
1.40001
1.03318
1.40001
1.40001
1.40001
1.40001
1.84212
1.73795
1.40001
1.40001
1.02217
1.84177
1.84177
1.40001
1.8416
1.8419
1.84192
1.40001
1.2494
1.40001
1.84173
1.3845
1.84177
1.40001
1.0393
1.3989
1.84015
1.40001
1.40001
1.40001
1.40001
1.02538
1.84123
1.79874
1.40001
1.84406
1.84196
1.83926
1.40001
1.60693
1.84105
1.40001
1.40001
1.70599
1.46831
1.84166
1.33208
1.84176
1.40001
1.84166
1.84136
1.84186
1.84157
1.40001
1.83578
1.29976
1.2873
1.40001
1.4
1.40001
1.40001
1.84358
1.40001
1.40001
1.40001
1.40001
1.40001
1.8405
1.40001
1.40001
1.396
1.8417
1.7821
1.40001
1.7688
1.40005
1.40001
1.40001
1.84132
1.40001
1.39755
1.40503
1.40001
1.84173
1.40001
1.84271
1.40001
1.40001
1.72699
1.40001
1.84232
1.40003
1.40001
1.84018
1.40001
1.84192
1.40001
1.40001
1.40001
1.84199
1.40001
1.84783
1.40001
1.84209
1.83904
1.84172
1.83918
1.40001
1.83888
1.83521
1.40001
1.02767
1.81484
1.7183
1.40001
1.84194
1.40001
1.05606
1.06364
1.40001
1.40001
1.40001
1.40001
1.40001
1.04284
1.40001
1.84168
1.51402
1.8414
1.40001
1.40001
1.40001
1.40001
1.40001
1.84124
1.40001
1.84007
1.66675
1.19452
1.40001
1.40001
1.53379
1.51171
1.40001
1.40001
1.55327
1.40001
1.02487
1.84159
1.84201
1.40001
1.40001
1.40001
1.84101
1.40001
1.40003
1.84277
1.8413
1.3375
1.40001
1.40001
1.03057
1.80263
1.40001
1.40001
1.40001
1.40001
1.40001
1.8419
1.83883
1.40001
1.83897
1.84753
1.84175
1.40001
1.40001
1.40001
1.40001
1.00496
1.8374
1.40001
1.40001
1.80198
1.84048
1.40001
1.81631
1.8415
1.40001
1.40001
1.40001
1.40001
1.40001
1.84195
1.40001
1.40001
1.40001
1.40001
1.84065
1.40001
1.83778
1.01972
1.40001
1.05791
1.40001
1.40001
1.40001
1.39678
1.02328
1.39905
1.40001
1.40001
1.40001
1.46086
1.40001
1.40001
1.25472
1.40001
1.40001
1.40001
1.40001
1.40001
1.40001
1.40001
1.4
1.32369
1.4
1.40001
1.39762
1.40001
1.02444
1.40001
1.40001
1.40001
1.40001
1.73163
1.40001
1.40001
1.40001
1.40001
1.01796
1.40001
1.40001
1.81628
1.83747
1.4
1.40001
1.40001
1.3025
1.40001
1.40001
1.40001
1.40001
1.40001
1.40001
1.32562
1.4063
1.84192
1.40001
1.40001
1.40001
1.84256
1.29261
1.40001
1.40001
1.40001
1.83827
1.83513
1.40001
1.40001
1.40001
1.40001
1.40001
1.40001
1.40001
1.40001
1.40001
1.00998
1.40001
1.40001
1.83975
1.03308
1.40001
1.83968
1.40001
1.02479
1.40001
1.40001
1.01152
1.40001
1.40001
1.40001
1.40001
1.40001
1.40001
1.40001
1.83357
1.84082
1.40001
1.40001
1.40001
1.40001
1.80291
1.40001
1.53798
1.02233
1.40001
1.40001
1.40001
1.40001
1.40001
1.40001
1.40001
1.42934
1.40001
1.40001
1.62597
1.40001
1.40001
1.40001
1.764
1.40001
1.40001
1.40001
1.40001
1.02313
1.40001
1.40001
0.994706
1.02861
1.40001
1.40001
1.84198
1.40001
1.40538
1.40001
1.40001
1.40001
1.70654
1.06949
1.40001
1.05891
1.40001
1.19967
1.40001
1.40001
1.40001
1.84083
1.40001
1.40001
1.842
1.40001
1.40001
1.40001
1.84108
1.40001
1.40001
1.84096
1.40001
1.40001
1.03966
1.40001
1.53764
1.40001
1.40001
1.83723
1.83719
1.69739
1.7955
1.40001
1.03508
1.40001
1.40001
1.82205
1.40001
1.03661
1.40001
1.40001
1.40001
1.84259
1.40001
1.40001
1.40001
1.40001
1.66754
1.40001
1.83291
1.84526
1.0362
1.40001
1.40001
1.00186
1.02815
1.40001
1.40001
1.40001
1.71325
1.73425
1.40001
1.40001
1.40001
1.40001
1.40001
1.40001
1.40001
1.59398
1.83626
1.40589
1.40001
1.83675
1.03183
1.40001
1.40001
1.40001
1.63711
1.40001
1.49087
1.40001
1.80372
1.84001
1.40001
1.03965
1.40001
1.83567
1.40001
1.40001
1.8417
1.81466
1.40001
1.84237
1.40001
1.03923
1.40001
1.40001
1.40001
1.84208
1.83327
1.78847
1.40001
1.83975
1.84132
1.40001
1.84246
1.40001
1.84008
1.40001
1.0286
1.37538
1.00387
1.40001
1.40001
1.40001
1.40001
1.40001
1.84122
1.40001
1.84173
1.40001
1.40001
1.40001
1.82023
1.40001
1.04048
1.84217
1.40001
1.00105
1.09424
1.07488
1.40001
1.61663
1.44232
1.84355
1.84154
1.40001
1.4
1.40001
1.40001
1.84227
1.40001
1.40001
1.84238
1.84089
1.40001
1.5575
1.39999
1.40001
1.39682
1.8407
1.23141
1.40001
1.19916
1.02351
1.02648
1.36121
1.83928
1.83572
1.48994
1.84172
1.84143
1.40001
1.40001
1.83853
1.83849
1.84132
1.83668
1.40001
1.8421
1.01332
1.84377
1.84032
1.83985
1.84085
1.27504
1.28284
1.30486
1.8416
1.35722
1.83987
1.40001
1.40001
1.84364
1.84216
1.40001
1.03694
1.84096
1.84098
1.40001
1.84043
1.84095
1.40001
1.84197
1.00736
1.84104
1.83807
1.83817
1.84294
1.40001
1.40001
1.40001
1.84087
1.68966
1.02605
1.84115
0.994353
1.84151
1.40001
1.40001
1.40001
1.40001
1.84504
1.84191
1.40001
1.40001
1.84186
0.999025
1.84156
1.02214
1.40001
1.83872
1.40001
1.0117
1.84369
1.14484
1.40001
1.84164
1.84436
1.84337
1.40001
1.40001
1.59313
1.84331
1.02041
1.84193
1.40001
1.84216
1.25431
1.84385
1.02253
1.40001
1.84375
1.08935
1.84361
1.02456
1.40001
1.84251
1.40001
1.8414
1.40001
1.65917
1.82576
1.74797
1.03313
1.40001
1.84214
1.40001
1.84175
1.40001
1.84192
1.40001
1.40001
1.842
1.38728
1.84443
1.02295
1.81007
1.40001
1.71172
1.40001
1.84141
1.84163
1.84158
1.40001
1.797
1.84117
1.80929
1.67181
1.84287
1.40001
1.69422
1.40001
1.84263
1.40001
1.45417
1.40001
1.80972
1.40001
1.84231
1.82106
1.82085
1.40001
1.83089
1.06798
1.40001
1.02307
1.40001
1.40001
1.40001
1.83852
1.40001
1.84252
1.40001
1.40001
1.40001
1.84244
1.83727
1.76121
1.84408
1.84188
1.05939
1.84703
1.83495
1.40001
1.78197
1.84153
1.81815
1.40001
1.83641
1.83675
1.40001
1.84993
1.84157
1.84036
1.84373
1.40001
1.40001
1.40001
1.84242
1.00656
1.40001
1.84112
1.40001
1.40001
1.05912
1.40001
1.40001
1.84104
1.84228
1.40001
1.84136
1.84711
1.84224
1.37687
1.84222
1.40001
1.84222
1.84125
1.75553
1.40001
1.40001
1.40001
1.84197
1.84171
1.84243
1.34767
1.40001
1.84395
1.84164
1.84212
1.40001
1.84158
1.84245
1.8418
1.84402
1.40001
1.8417
1.84075
1.77625
1.84325
1.84307
1.40001
1.84876
1.837
1.84253
1.84494
1.84311
1.03421
1.84161
1.84295
1.40001
1.84231
1.84183
1.84229
1.84159
1.40001
1.84195
1.84174
1.40001
1.8408
1.77154
1.40001
1.40001
1.40001
1.84243
1.84857
1.40001
1.40001
1.63631
1.40001
1.84163
1.40001
1.40001
1.84141
1.8436
1.84209
1.84114
1.40001
1.40001
1.40001
1.70605
1.40001
1.84272
1.40001
1.40001
1.8394
1.83721
1.40001
1.84157
1.01776
1.84176
1.84006
1.09344
1.40001
1.02504
1.77886
1.84024
1.84432
1.84458
1.06178
1.84166
1.84222
1.05889
0.999121
1.40001
1.84256
1.8418
1.40001
1.40001
1.84198
1.40001
1.84277
1.40001
1.78552
1.40001
1.60742
1.84312
1.84454
1.70745
1.79212
1.83687
1.84318
1.80984
1.40001
1.0325
1.84393
1.84155
1.84814
1.40002
1.40001
1.40001
1.84489
1.40001
1.842
1.84057
1.165
1.40001
1.84174
1.39995
1.40001
1.40003
1.40005
1.84119
1.84268
1.39846
1.40001
1.40001
1.84166
1.84352
1.84141
1.84169
1.84338
1.05737
1.77231
1.40001
1.83846
1.8422
1.84205
1.83259
1.40001
1.84162
1.83013
1.84289
1.40001
1.84116
1.84397
1.27168
1.84209
1.84133
1.40001
1.84177
1.242
1.84209
1.26957
1.84168
1.40001
1.84148
1.84875
1.84172
1.84179
1.84145
1.8363
1.84219
1.83894
1.40001
1.3309
1.84211
1.84158
1.23497
1.84178
1.36365
1.67957
1.84207
1.8412
1.84458
1.40001
1.84423
1.68877
1.8444
1.32789
1.84402
1.84632
1.40001
1.25643
1.40001
1.83611
1.40001
1.70521
1.40001
1.82927
1.24886
1.40001
1.84276
1.84788
1.40001
1.84493
1.84362
1.84817
1.84708
1.84995
1.40001
1.83807
1.40001
1.40001
1.40001
1.27547
1.84164
1.84017
1.83804
1.84183
1.8431
1.84034
1.84705
1.8425
1.28808
1.43149
1.40001
1.40001
1.84612
1.84198
1.84203
1.84191
1.40003
1.62897
1.40001
1.84955
1.79518
1.40001
1.40001
1.13334
1.84178
1.40001
1.40001
1.00098
1.84252
1.40001
1.83472
1.8421
1.83642
1.82508
1.84198
1.40001
1.03679
1.50849
1.8417
1.84183
1.40001
1.84149
1.84077
1.6314
1.41049
1.49338
1.40001
1.84106
1.84192
1.40001
1.40001
1.06359
1.40001
1.40001
1.84165
1.84137
1.84114
1.84156
1.84189
1.84389
1.84189
1.8421
1.84148
1.40001
1.39621
1.84181
1.84227
1.3966
1.84104
1.84079
1.04575
1.02881
1.84022
1.84212
1.40001
1.40001
1.40185
1.8413
1.84041
1.84224
1.40001
1.84121
1.40001
1.2384
1.84939
1.8473
1.40001
1.59318
1.84186
1.40001
1.84126
1.40001
1.84167
1.69357
1.84209
1.40001
1.84301
1.8473
1.06231
1.84208
1.40001
1.84173
1.83697
1.40001
1.03835
1.84638
1.76408
1.39751
1.82692
1.84184
1.40001
1.39909
1.84811
1.39747
1.84231
1.40001
1.40001
1.84346
1.40001
1.84413
1.84098
1.39619
1.74812
1.40001
1.8415
1.40001
1.40001
1.40001
1.40001
1.84159
1.40001
1.40001
1.8442
1.40001
1.84291
1.40001
1.68202
1.83854
1.84017
1.40001
1.40001
1.40315
1.40001
1.84089
1.84244
1.84269
1.8422
1.84208
1.8418
1.8424
1.40001
1.84181
1.84163
1.40001
1.84237
1.84125
1.40001
1.84085
1.31866
1.45737
1.84259
1.84137
1.84219
1.40001
1.84213
1.40001
1.84145
1.84201
1.40001
1.84107
1.40001
1.40001
1.40001
1.40001
1.84131
1.04029
1.39784
1.40001
1.84256
1.83684
1.40001
1.84185
1.40001
1.40489
1.03302
1.84144
1.39962
1.40001
1.84076
1.39831
1.84295
1.40001
1.39975
1.40001
1.84252
1.84433
1.84111
1.84065
1.02726
1.84331
1.84103
1.84164
1.51324
1.40001
1.40001
1.58983
1.84192
1.02932
1.02985
1.40001
1.84221
1.84082
1.84097
1.40001
1.40001
1.83933
1.84209
1.39989
1.40001
1.71482
1.02209
1.40001
1.4778
1.83965
1.84106
1.39827
1.84103
1.8452
1.40001
1.399
1.40001
1.8395
1.84115
1.57752
1.40001
1.8276
1.40001
1.40204
1.83956
1.00436
1.84116
1.84101
1.39696
1.39992
1.78429
1.40001
1.3997
1.40001
1.84511
1.40001
1.40002
1.01863
1.84293
1.40001
1.40001
1.40001
1.40001
1.83984
1.65186
1.40001
1.40001
1.02814
1.84194
1.65156
1.40001
1.40001
1.40001
1.82174
1.8394
1.84032
1.40001
1.40001
1.84142
1.40001
1.84193
1.84199
1.40001
1.40001
1.84322
1.84105
1.81493
1.40001
1.40001
1.84371
1.842
1.40001
1.40001
1.40001
1.84295
1.40001
1.40001
1.40001
1.8399
1.84432
1.84376
1.40001
1.83946
1.40003
1.09021
1.84099
1.84041
1.40001
1.84226
1.81912
1.84089
1.40001
1.40001
1.84534
1.40001
1.65033
1.84249
1.40001
1.05302
1.40001
1.84306
1.40001
1.40001
1.84289
1.40001
1.40001
1.40001
1.53728
1.84302
1.07103
1.40002
1.84245
1.40001
1.40001
1.84149
1.40001
1.84537
1.40001
1.40001
1.84176
1.84141
1.40001
1.40006
1.40001
1.40001
1.40001
1.40001
1.40001
1.40001
1.84068
1.84272
1.40001
1.8353
1.03651
1.84853
1.40001
1.84161
1.84104
1.84264
1.844
1.8402
1.40001
1.40001
1.8454
1.40001
1.66815
1.84507
1.84097
1.40001
1.84476
1.83602
1.40001
1.80927
1.40001
1.84152
1.6848
1.84307
1.39755
1.83305
1.80453
1.84208
1.84265
1.43667
1.84224
1.84575
1.40001
1.84191
1.40001
1.84232
1.40001
1.40001
1.40001
1.40001
1.39598
1.84131
1.84229
1.77046
1.40001
1.84693
1.40001
1.40001
1.40001
0.994418
1.40001
1.83301
1.40001
1.80002
1.82185
1.40001
1.40001
1.40001
1.80651
1.84018
1.40001
1.40001
1.84327
1.03225
1.4636
1.40001
1.84515
1.84157
1.80212
1.83256
1.84186
1.40001
1.84327
1.40001
1.40001
1.40001
1.40001
1.84081
1.84164
1.40001
1.83221
1.44277
1.84176
1.81206
1.40001
1.40001
1.81321
1.40001
1.40001
1.05641
1.70766
1.40001
1.40001
1.8463
1.40001
1.8461
1.80421
1.40001
1.80006
1.03107
1.84096
1.83971
1.84221
1.40001
1.04249
1.40001
1.40001
1.40001
1.84163
1.75966
1.40001
1.84828
1.84186
1.40001
1.84268
1.40001
1.40001
1.40001
1.40001
1.84182
1.39929
1.40001
1.84313
1.40001
1.40001
1.83959
1.84136
1.40001
1.84628
1.4821
1.40003
1.40001
1.84049
1.40001
1.84098
1.40001
1.41518
1.84221
1.40001
1.84192
1.40001
1.40001
1.53239
1.83952
1.40001
1.40001
1.40001
1.40001
1.40001
1.39586
1.03765
1.03643
1.42045
1.40001
1.42904
1.40001
1.42983
1.40001
1.84217
1.40001
1.66076
1.40001
1.84225
1.40001
1.40001
1.40001
1.84213
1.40001
1.74977
1.84256
1.40001
1.63071
1.84376
1.40001
1.40001
1.83897
1.8398
1.40001
1.40001
1.44295
1.03561
1.40001
1.84212
1.40001
1.40001
1.40001
1.40001
1.47558
1.84215
1.40001
1.40001
1.40001
1.05388
1.40001
1.84164
1.84211
1.84897
1.40001
1.40001
1.40001
1.40001
1.62151
1.84148
1.40001
1.40001
1.40001
1.84553
1.84169
1.44302
1.40001
1.40001
1.40001
1.8415
1.84151
1.40001
1.05521
1.84188
1.84174
1.84036
1.83963
1.84138
1.40001
1.40001
1.841
1.84115
1.84155
1.04066
1.43955
1.84198
1.40001
1.40001
1.40001
1.40001
1.40001
1.84194
1.03179
1.40001
1.40001
1.8419
1.59457
1.40001
1.84506
1.40001
1.40001
1.40001
1.02219
1.40001
1.40001
1.51378
1.84204
1.84172
1.40001
1.84164
1.84752
1.40001
1.47062
1.40001
1.83681
1.40001
1.84218
1.03655
1.40001
1.40001
1.40001
1.40001
1.84255
1.40008
1.40001
1.40001
1.40001
1.82425
1.40001
1.40001
1.40001
1.40001
1.84118
1.02114
1.74389
1.84361
1.40001
1.84221
1.40001
1.40001
1.40001
1.39709
1.40001
1.84419
1.40001
1.22181
1.40001
1.40001
1.40004
1.84243
1.02676
1.40001
1.83827
1.40001
1.84447
1.84178
1.0272
1.40001
1.40001
1.81715
1.40001
1.40001
1.03001
1.40001
1.84078
1.40001
1.82201
1.39927
1.84102
1.40001
1.40001
1.40001
1.40001
1.84088
1.40001
1.40001
1.84162
1.40001
1.40001
1.40001
1.40001
1.40001
1.40001
1.40001
1.40001
1.6884
1.40001
1.54665
1.84253
1.40001
1.40001
1.40001
1.02441
1.40001
1.40001
1.40001
1.40001
1.83982
1.84262
1.44563
1.40001
1.40001
1.84239
1.40001
1.40001
1.83959
1.40001
1.40002
1.40001
1.40001
1.40001
1.40002
1.84134
1.19358
1.84173
1.84315
1.39723
1.40001
1.40001
1.40001
1.66244
1.40001
1.40001
1.84016
1.8423
1.40001
1.40001
1.40001
1.40001
1.00516
1.40001
1.40001
1.40001
1.68141
1.40001
1.84258
1.84529
1.40001
1.84315
1.40001
1.40001
1.40001
1.64214
1.40001
1.83828
1.40001
1.84159
1.40001
1.40001
1.39637
1.84165
1.40001
1.40001
1.40001
1.40001
1.40001
1.84544
1.40003
1.40001
1.05933
1.84177
1.05208
1.40001
1.84499
1.40001
1.39598
1.40001
1.84345
1.84334
1.40001
1.83571
1.28719
1.84175
1.8381
1.40004
1.40001
1.40001
1.03271
1.40001
1.40001
1.40001
1.84143
1.65488
1.84469
1.40001
1.40001
1.40001
1.40001
1.39679
1.84441
1.40001
1.04072
1.40001
1.40001
1.40001
1.40001
1.40001
1.40001
1.40001
1.84606
1.84362
1.84709
1.40001
1.40001
1.39691
1.40001
1.37314
1.40001
1.40001
1.40001
1.02573
1.37294
1.40001
1.02399
1.02643
1.40001
1.84256
1.84212
1.40001
1.84652
1.84251
1.03777
1.71212
1.40001
1.40001
1.40001
1.03989
1.84007
1.40001
1.03096
1.40001
1.83683
1.47227
1.40001
1.40001
1.40001
1.40001
1.84152
1.84113
1.40001
1.40001
1.84131
1.40001
1.40001
1.83877
1.84154
1.40001
1.80983
1.84193
1.83817
1.35596
1.8454
1.40859
1.03348
1.74066
1.8422
1.40001
1.40001
1.40001
1.02576
1.40001
1.03894
1.84121
1.35449
1.84185
1.35422
1.40001
1.84093
1.59986
1.40001
1.40001
1.84183
1.40001
1.58459
1.84064
1.40001
1.40001
1.83677
1.84926
1.02974
1.66555
1.3999
1.40001
1.66533
1.40001
1.84533
1.34067
1.85188
1.84818
1.40001
1.40001
1.40001
1.40001
1.83839
1.40001
1.40001
1.843
1.39965
1.84043
1.77526
1.83998
1.0383
1.40001
1.40001
1.40001
1.40001
1.84062
1.40005
1.84188
1.40001
1.84162
1.84034
1.45778
1.85006
1.53023
1.84125
1.40001
1.70329
1.06147
1.84728
1.84162
1.75852
1.47637
1.84138
1.84171
1.8422
1.84371
1.40001
1.31702
1.46354
1.40001
1.84186
1.61169
1.84271
1.40004
1.40001
1.40001
1.0909
1.84226
1.84101
1.75572
1.40001
1.57509
1.40001
1.84019
1.84037
1.40001
1.84371
1.84081
1.40001
1.40001
1.40001
1.84434
1.40001
1.57322
1.84505
1.70993
1.40001
1.8426
1.40001
1.40001
1.40001
1.40001
1.40001
1.40001
1.40001
1.40001
1.40001
1.40001
1.07054
1.40001
1.80845
1.0285
1.66121
1.39859
1.84449
1.40001
1.62995
1.40002
1.68273
1.77486
1.40001
1.40153
1.84058
1.31338
1.40001
1.84114
1.84431
1.33816
1.40001
1.83973
1.8399
1.84501
1.40001
1.8413
1.84149
1.84542
1.40001
1.6016
1.40001
1.40006
1.84094
1.40001
1.84198
1.46552
1.84215
1.40001
1.40001
1.84127
1.83987
1.08356
1.40001
1.84182
1.73262
1.84126
1.40001
1.40001
1.83976
1.84523
1.39826
1.40001
1.80331
1.39678
1.84368
1.40008
1.40001
1.40001
1.40001
1.40001
1.59722
1.40001
1.73557
1.84241
1.72967
1.84091
1.40001
1.40392
1.40001
1.40001
1.83811
1.40001
1.84596
1.40001
1.40001
1.40001
1.40001
1.4
1.40001
1.45492
1.6291
1.40001
1.40001
1.01469
1.40001
1.8386
1.05617
1.83995
1.40001
1.61776
1.39975
1.84143
1.67912
1.06162
1.64376
1.40004
1.84223
1.84158
1.40001
1.6689
1.84532
1.84343
1.39838
1.8464
1.82904
1.04125
1.40001
1.40001
1.39729
1.40001
1.83811
1.40001
1.06506
1.83996
1.40001
1.40001
1.78909
1.40001
1.84131
1.40001
1.83965
1.40001
1.07942
1.40001
1.40001
1.84023
1.84836
1.84646
1.40001
1.8432
1.84223
1.83441
1.40001
1.40001
1.84205
1.4
1.13446
1.40001
1.40001
1.40001
1.84136
1.40001
1.8418
1.6854
1.84214
1.40001
1.84174
1.39939
1.40001
1.40001
1.40001
1.40001
1.40001
1.40001
1.11759
1.40001
1.40001
1.84156
1.40001
1.84089
1.84448
1.40001
1.0503
1.04437
1.40001
1.84288
1.4769
1.03284
1.01819
1.40001
1.84386
1.40001
1.84397
1.05461
1.40122
1.40001
1.40001
1.39953
1.40001
1.40001
1.40001
1.39992
1.58584
1.84303
1.40001
1.40001
1.84388
1.66196
1.40001
1.81325
1.84319
1.8428
1.58678
1.84007
1.40001
1.84186
1.40001
1.82621
1.40001
1.83883
1.84024
1.39712
1.84175
1.84248
1.40001
1.40001
1.40001
1.40001
1.40001
1.33072
1.84087
1.40005
1.40003
1.0135
1.39999
1.02832
0.999115
1.40001
1.83984
1.8421
1.84192
1.40001
1.8416
1.40001
1.0447
1.40001
1.40001
1.84365
1.24029
1.83949
1.40001
1.84038
1.40001
1.36784
1.8423
1.40001
1.40001
1.40001
1.84076
1.40001
1.84154
1.03108
1.40001
1.40001
1.65933
1.40001
1.40001
1.64388
1.40001
1.40001
1.84081
1.40001
1.40001
1.40001
1.40001
1.40001
1.84727
1.84149
1.40001
1.84051
1.84388
1.03703
1.60039
1.84314
1.40001
1.40001
1.79819
1.39901
1.40001
1.40001
1.84101
1.84034
1.6908
1.40001
1.84091
1.03841
1.81494
1.39949
1.40001
1.84158
1.40004
1.84272
1.7727
1.73764
1.40001
1.40001
1.84117
1.1091
1.00206
1.40001
1.84064
1.40001
1.84088
1.40001
1.66416
1.40001
1.40001
1.84129
1.68129
1.03882
1.40001
1.39802
1.40001
1.40001
1.42562
1.58271
1.84119
1.40001
1.83982
1.40001
1.40001
1.40001
1.40001
1.40001
1.40001
1.46646
1.03457
1.40001
1.40001
1.43284
1.40001
1.40001
1.40001
1.40001
1.40001
1.84256
1.40001
1.40001
1.84171
1.84075
1.72582
1.40001
1.40001
1.40001
1.2149
1.84291
1.71016
1.40001
1.40001
1.40001
1.40001
1.83995
1.40001
1.40001
1.40001
1.84042
1.40001
1.40001
1.72059
1.8543
1.42803
1.13429
1.84523
1.71687
1.84092
1.40001
1.61708
1.40001
1.40001
1.40001
0.993658
1.4025
1.01458
1.40001
1.0324
1.01755
1.40001
1.02791
1.40001
1.40001
1.40001
1.59135
1.40001
1.84229
1.84249
1.40141
1.6188
1.77676
0.997419
1.15733
1.26957
1.40001
1.84189
1.83883
1.84191
1.84226
1.77878
1.27913
1.40001
1.78224
1.40001
1.82434
1.40001
1.40001
1.39628
1.41038
1.40001
1.40001
1.40001
1.84013
1.40001
1.00865
1.40001
1.84269
1.05616
1.40001
1.40001
1.84257
1.40001
1.84185
1.39906
1.40001
1.40001
1.8423
1.79083
1.40001
1.85684
1.40001
1.40001
1.41492
1.40001
1.60574
1.40001
1.40001
1.03289
1.40001
1.40001
1.84437
1.4
1.8419
1.40001
1.40004
1.03968
1.40001
1.40001
1.02774
1.40082
1.40001
1.84036
1.0419
1.84724
1.01901
1.84079
1.40001
1.40001
1.40001
1.40001
1.4
1.40001
1.40001
1.40001
1.40001
1.40001
1.40001
1.82427
1.40001
1.84293
1.83877
1.03629
1.40001
1.40001
1.40001
1.40001
1.40001
1.40001
1.82978
1.40001
1.40001
1.04563
1.40001
1.40001
1.83898
1.40001
1.40001
1.56066
1.77159
1.0207
1.04786
1.06927
1.12513
1.40001
1.39653
1.01911
1.40027
1.8161
1.39694
1.40001
1.40001
1.83948
1.40001
1.40001
1.40001
1.16058
1.40002
1.55725
1.40001
1.40001
1.58075
1.84253
1.40001
1.01108
1.40001
1.40001
1.40001
1.39687
1.40001
1.83995
1.84252
1.40001
1.04517
1.40001
1.6422
1.05154
1.40001
1.27324
1.40001
1.39658
1.01911
1.40001
1.40001
1.40001
1.39628
1.00686
1.40001
1.02141
1.39842
1.62828
1.79182
1.03143
1.01986
1.40001
1.39084
1.40001
1.39864
1.40001
1.84233
1.84231
1.40001
1.4116
1.83951
1.84133
1.40001
1.40001
1.84232
1.40001
1.40001
1.40005
1.40001
1.84776
1.40001
1.40001
1.41886
1.40001
1.3986
1.07438
1.40001
1.40001
1.40001
1.40001
1.40001
1.84211
1.43509
1.40006
1.40001
1.40001
1.40001
1.40001
1.40001
1.40004
1.40001
1.03859
1.50195
1.39862
1.8224
1.83927
1.40001
1.41628
1.83978
1.77992
1.40001
1.40001
1.02241
1.84207
1.40001
1.83968
1.40001
1.84353
1.70357
1.03211
1.40001
1.04791
1.80602
1.39968
1.40001
1.0348
1.00432
1.40001
1.40001
1.77357
1.40001
1.4
1.02289
1.40001
1.40001
1.40001
1.54084
1.40001
1.03728
1.8405
1.40001
1.40001
1.40001
1.40001
1.84214
1.40001
1.40001
1.841
1.79642
1.40001
1.40001
1.40001
1.83991
1.01557
1.40001
1.84166
1.84263
1.40001
1.75289
1.4
1.40004
1.40001
1.40001
1.8249
1.41929
1.40001
1.04095
1.63772
1.40001
1.40001
1.39807
1.40001
1.40001
1.84191
1.40001
1.40001
1.40003
1.40001
1.84156
1.40001
1.40001
1.40001
1.40001
1.40001
1.40001
1.40002
1.59671
1.40001
1.84007
1.40001
1.40001
1.84351
1.40001
1.40001
1.40001
1.84142
1.84219
1.44439
1.40001
1.39765
1.40001
1.40001
1.40001
1.40001
1.83906
1.40001
1.40001
1.8408
1.04471
1.40001
1.40001
1.40001
1.40001
1.40001
1.40001
1.75753
1.40001
1.40001
1.83931
1.84141
1.40001
1.40001
1.40001
1.84121
1.83962
1.40001
1.39966
1.83983
1.40001
1.40001
1.40001
1.40002
1.02386
1.42954
1.39626
1.39609
1.40001
1.40001
1.0104
1.84099
1.40001
1.01723
1.40001
1.84191
1.82446
1.02177
1.39942
1.84176
1.84143
1.84018
1.40001
1.40001
1.32077
1.79734
1.76262
1.00961
1.40001
1.40001
1.40001
1.84011
1.84136
1.02311
1.39738
1.40001
1.84213
1.04688
1.40001
1.84231
1.03657
1.36693
1.40679
1.40001
1.84579
1.40001
1.40001
1.40001
1.40001
1.40001
1.40001
1.40011
1.81146
1.40001
1.40001
1.8397
1.40001
1.40001
1.40001
1.84167
1.40001
1.03449
1.40001
1.40001
1.40001
1.5506
1.40001
1.40001
1.40001
1.40001
1.40001
1.17744
1.40001
1.04817
1.40001
1.84164
1.40009
1.24924
1.26882
1.40002
1.40435
1.6263
1.40001
1.40001
1.05563
1.84083
1.84175
1.84124
1.40001
0.998084
1.01422
1.40001
1.84012
1.40001
1.40001
1.40001
1.40001
1.40001
1.40004
1.40001
1.02709
1.68334
1.40001
1.40001
1.01765
1.39083
1.40001
1.40001
1.40001
1.40001
1.01235
1.40001
1.05574
1.40001
1.40001
1.84843
1.40001
1.40001
1.03335
1.40001
1.84198
1.40001
0.999001
1.40001
1.03028
1.40001
1.40784
1.84142
1.85406
1.40001
1.40001
1.83902
1.40001
1.40001
1.49924
1.39674
1.40001
1.39816
1.40001
1.84413
1.40001
1.00561
1.40002
1.83727
1.39883
1.40001
1.40001
1.19471
1.40001
1.39898
1.00781
1.84411
1.56141
1.40001
1.40001
1.31584
1.40001
1.40001
1.40001
1.19265
1.40001
1.40001
1.40001
1.84145
1.40001
1.03188
1.4
1.40001
1.40001
1.40001
1.03229
1.84135
1.80407
1.01446
1.40001
1.84838
1.40001
1.40001
1.84188
1.84252
1.77373
1.03109
1.39774
1.39922
1.40001
1.84066
1.40001
1.40001
1.40001
1.40001
1.84253
1.40004
1.40001
1.40001
1.83851
1.40001
1.40001
1.84087
1.05213
1.40001
1.40001
1.40001
1.03534
1.40001
1.4
1.4
1.39869
1.40001
1.40001
1.40001
1.40001
1.76125
1.40001
1.84016
1.84082
1.85103
1.84282
1.8428
1.8411
1.40001
1.84365
1.40001
1.84096
1.84181
1.40001
1.39891
1.05098
1.78011
1.39991
1.40001
1.40001
1.40001
1.40001
1.39979
1.40001
1.47042
1.40001
1.40001
1.40001
1.22469
1.84097
1.84152
1.84949
1.79402
1.39988
1.40001
1.4224
1.84203
1.39785
1.44639
1.39709
1.06095
1.40001
1.40002
1.40001
1.40001
1.40001
1.40001
1.40001
1.84175
1.03061
1.84224
1.8421
1.39468
1.07722
1.40001
1.40001
1.40001
1.84085
1.04758
1.79025
1.02417
1.84104
1.84742
1.02876
1.84245
1.42471
1.40001
1.84462
1.2051
1.40001
1.39878
1.01869
1.40001
1.06219
1.40001
1.84065
1.84188
1.1262
1.40001
1.84033
1.06443
1.40001
1.03609
1.40001
1.84249
1.40001
1.40001
1.82938
1.40001
1.24884
1.40001
1.39969
1.06146
1.82936
1.39949
1.40001
1.0418
1.40001
1.40001
1.40001
1.40001
1.64103
1.40001
1.84258
1.40001
1.40001
1.85498
1.40001
1.40001
1.84176
1.40001
1.05312
1.40001
1.01334
1.40002
1.40001
1.40001
1.40001
1.40001
1.82335
1.66023
1.8416
1.40001
1.84155
1.81202
1.00968
1.00581
1.40001
1.40001
1.84085
1.40001
1.04954
1.40001
1.38985
1.40001
1.40001
1.83995
1.40001
1.84193
1.02588
1.84555
1.40001
1.01892
1.40001
1.40001
1.84171
1.84028
1.40001
1.40004
1.40001
1.83931
1.40001
1.40001
0.9986
1.39937
1.03628
1.40001
1.40001
1.40001
1.84354
1.84761
1.83955
1.40001
1.40001
1.0437
1.40001
1.84649
1.40001
1.40001
1.40001
1.81735
1.84179
1.84283
1.06055
1.84419
1.84213
1.04881
1.84037
1.40005
1.02333
1.41742
1.40001
1.40001
1.84051
1.0775
1.67735
1.07814
1.84183
1.39746
1.006
1.84479
1.40001
1.40001
1.40001
1.40001
1.84141
1.84096
1.02866
1.40001
1.40003
1.04455
1.40004
1.40001
1.02008
1.00481
1.7069
1.84197
1.39848
1.84256
1.40001
1.83705
1.2024
1.03176
1.84204
1.84604
1.40001
1.8426
1.40001
1.40001
1.84066
1.40001
1.73809
1.83948
1.40001
1.40001
1.40001
1.40001
1.84047
1.83702
1.8421
1.40001
1.40001
1.84011
1.84007
1.8418
1.40001
1.8402
1.40001
1.40001
1.40001
1.40001
1.40001
1.03972
1.25012
1.01129
1.40001
1.40001
1.84214
1.40001
1.40001
1.84073
1.02832
1.40001
1.84106
1.83718
1.82043
1.03384
1.40001
1.03563
1.40001
1.40003
1.83985
1.61387
1.8397
1.80422
1.40001
0.98738
1.40001
1.84061
1.71612
1.01688
1.40001
1.40001
1.40001
1.18238
1.40001
1.40001
1.84798
1.40001
1.0204
1.84146
1.40001
1.40001
1.40001
1.40001
1.40001
1.75568
1.50392
1.40001
1.84188
1.40001
1.84043
1.40001
1.39729
1.40001
1.84161
1.84135
1.84286
1.84493
1.3996
1.83977
1.40001
1.84235
1.84105
1.77448
1.40001
1.40001
1.03087
1.84023
1.40001
1.40001
1.84299
1.84286
1.84217
1.40001
1.84291
1.40001
1.40001
1.40004
1.84194
1.84433
1.5311
1.49598
1.84167
1.84177
1.07493
1.40001
1.40001
1.40001
1.40001
1.40003
1.5576
1.40001
1.40001
1.75671
1.02916
1.39999
1.40001
1.84138
1.39988
1.39982
1.46707
1.79699
1.83774
1.30212
1.40001
1.04094
1.40001
1.39861
1.84143
1.84332
1.84132
1.399
1.40001
1.40001
1.04056
1.40001
1.40001
1.84184
1.44938
1.40001
1.40001
1.40001
1.40001
1.40001
1.40001
1.40001
1.39994
1.84159
1.40002
1.40001
1.40001
1.40001
1.40001
1.68264
1.40001
1.6065
1.40001
1.40001
1.84158
1.84349
1.02582
1.39878
1.40001
1.4
1.40001
1.03248
1.8396
1.84175
1.40001
1.40001
1.40001
1.40001
1.40001
1.40001
1.40001
1.40001
1.84148
1.84658
1.02014
1.44913
1.03144
1.40001
1.02749
1.40001
1.84124
1.50601
1.40001
1.40001
1.12516
1.40001
1.82074
1.18476
1.39679
1.02427
1.40001
1.40001
1.84032
1.40005
1.3973
1.01543
1.8385
1.85071
1.40001
1.40001
1.40001
1.40001
1.81284
1.40001
1.40001
1.84161
1.39893
1.8413
1.40006
1.40001
1.40001
1.05258
1.40001
1.40001
1.84207
1.0287
1.15416
1.03816
1.84136
1.39929
1.40001
1.84542
1.03019
1.0141
1.41747
1.40001
1.40001
1.83925
1.40004
1.60349
1.40001
1.40001
1.83941
1.03214
1.40001
1.40001
1.40013
1.841
1.40014
1.8437
1.40001
1.40004
1.40001
1.40001
1.13904
1.40001
1.17798
1.40002
1.40001
1.8461
1.04664
1.40001
1.17209
1.19233
1.40001
1.40001
1.84231
1.40001
1.40001
1.40001
1.84084
1.84145
1.40006
1.83268
1.8392
1.17786
1.8412
1.82035
1.40001
1.40001
1.84296
1.4
1.40001
1.40001
1.40001
1.40001
1.83889
1.84056
1.40001
1.40001
1.40001
1.84248
1.40022
1.40001