/*--------------------------------*- C++ -*----------------------------------*\
  =========                 |
  \\      /  F ield         | OpenFOAM: The Open Source CFD Toolbox
   \\    /   O peration     | Website:  https://openfoam.org
    \\  /    A nd           | Version:  12
     \\/     M anipulation  |
\*---------------------------------------------------------------------------*/
FoamFile
{
    format      ascii;
    class       surfaceScalarField;
    location    "0.1";
    object      phi;
}
// * * * * * * * * * * * * * * * * * * * * * * * * * * * * * * * * * * * * * //

dimensions      [1 0 -1 0 0 0 0];

internalField   nonuniform List<scalar> 
35488
(
9.55453e-18
5.84114e-18
-1.01915e-17
1.26581e-17
-1.04219e-17
4.79759e-18
-2.33375e-17
9.85269e-18
4.75694e-18
1.61275e-17
-8.28059e-18
-1.16281e-17
1.5748e-17
-1.56396e-17
-4.25549e-18
-1.78612e-05
-1.66571e-08
-9.0828e-08
-7.59869e-05
-3.48876e-05
2.0505e-17
6.47133e-18
-1.07336e-17
-3.80826e-18
1.08556e-17
9.7917e-18
3.998e-18
-1.35186e-17
-1.58836e-17
1.97054e-17
9.7505e-05
-0.000123359
2.68116e-05
-8.48388e-18
1.23599e-17
6.45636e-05
6.35793e-05
5.05761e-06
0.000103863
-0.000108793
5.04154e-18
-4.77049e-18
-1.02593e-17
-1.30375e-17
1.24548e-17
1.96241e-17
-4.22839e-18
1.71304e-17
-1.79707e-17
-2.19551e-18
7.45389e-20
-9.65378e-05
0.000101824
2.22804e-17
-4.81115e-18
-1.4962e-17
8.36191e-18
3.13334e-17
-1.45283e-17
-3.15503e-17
1.26852e-17
2.08438e-17
-2.33103e-18
-9.25638e-18
0.000120859
-0.00011244
-1.80098e-05
-2.93683e-17
1.21566e-17
1.91091e-18
6.83047e-18
3.38813e-18
3.7676e-18
6.23416e-19
-1.20753e-17
2.3988e-18
-1.15468e-17
7.35902e-18
1.3417e-17
-1.81739e-17
8.86335e-18
1.04761e-17
-2.71215e-05
-8.68723e-05
0.000113005
-6.00377e-18
1.04897e-17
-6.91179e-19
5.78693e-18
-4.5672e-18
-3.18484e-18
-1.76183e-18
1.11131e-18
-2.09311e-05
0.000118809
3.63208e-18
-6.23416e-19
-4.35036e-18
-2.90024e-18
5.0822e-18
3.00866e-18
-5.64096e-10
2.46522e-09
1.59468e-09
8.3348e-18
-7.16929e-18
-7.08797e-18
-5.17707e-18
-2.1684e-18
-5.96311e-19
-1.07065e-17
-2.62919e-18
-4.68917e-18
8.3348e-18
5.70561e-18
1.5748e-17
1.28342e-17
4.33681e-19
4.22839e-18
-1.36067e-17
-0.000104994
-7.70635e-06
0.000111286
-2.02746e-17
-8.11796e-18
7.81567e-05
5.57373e-05
-0.000108287
8.02157e-05
3.8706e-17
-3.60226e-17
-1.19398e-17
8.1489e-05
4.70266e-05
7.57694e-05
5.32095e-05
-5.54298e-18
-4.26905e-18
-8.94467e-19
8.92434e-18
-6.23416e-18
2.35136e-18
-9.17546e-05
-8.69962e-06
0.00010038
-4.87891e-18
5.23128e-18
6.03087e-18
-5.6243e-18
-1.43657e-18
2.76472e-18
2.62241e-18
3.21466e-17
2.98156e-19
7.86047e-19
-2.26327e-18
4.79759e-18
1.66696e-18
-1.36338e-17
7.96889e-18
-1.65883e-17
-7.12863e-18
-3.90313e-18
-1.34034e-17
-5.19062e-18
8.0231e-18
3.17265e-17
-2.32697e-17
-8.8227e-18
-7.98244e-18
-2.05998e-18
-2.44217e-17
-1.20482e-17
1.27936e-17
0.000144015
-6.75339e-05
6.35614e-18
-1.58022e-17
-4.47233e-19
-8.36869e-18
8.41612e-18
-2.08709e-17
1.53279e-17
3.17129e-18
-3.69984e-18
5.06865e-18
1.30104e-18
-7.7656e-18
-5.9089e-18
3.46945e-18
-1.42708e-17
1.57074e-17
7.35902e-18
-1.02864e-17
1.51788e-18
5.54298e-18
-2.59666e-17
-3.51688e-18
-1.04558e-17
1.25767e-17
-2.08844e-17
-3.22918e-05
0.000113316
-8.15839e-05
3.19162e-18
5.54976e-18
-2.62919e-18
-1.65476e-17
7.27771e-18
0.000123905
-5.94802e-05
-6.42769e-05
-5.94956e-18
-1.55447e-17
4.66207e-18
1.64799e-17
-3.34747e-18
7.45389e-19
5.12286e-18
4.18773e-18
1.31866e-17
1.15671e-17
4.45878e-18
-5.24483e-18
3.13063e-18
2.50722e-18
-2.00984e-17
1.24683e-18
-7.18284e-18
1.09437e-17
-5.25838e-18
-6.54587e-18
5.66496e-18
-6.39679e-18
3.93023e-19
2.8894e-17
-3.27022e-17
-9.28348e-18
-1.2631e-17
1.54634e-17
-5.96311e-19
-1.09233e-17
2.32697e-17
-1.05574e-17
0.000103662
-0.00013664
3.22485e-05
-7.45389e-19
1.3024e-17
1.00153e-17
-1.08285e-17
-7.58942e-18
-0.0001178
8.51297e-05
7.7656e-18
-5.96311e-18
-1.2116e-17
2.69695e-18
1.2963e-17
-2.58853e-18
-1.35254e-17
2.3229e-17
8.39313e-06
0.000111374
-6.79466e-05
0.000132459
-6.55614e-05
-1.86483e-17
-6.34258e-18
1.84585e-17
3.27622e-05
9.06592e-05
8.53809e-19
-1.26581e-17
-2.82248e-05
-9.43953e-05
0.000122784
-5.42101e-19
5.48877e-18
-3.02221e-18
1.96647e-17
-1.80791e-17
-1.072e-17
1.04897e-17
-2.23888e-17
5.24483e-18
8.5923e-18
1.02457e-17
1.07336e-17
-1.42573e-17
-2.09251e-17
9.48677e-20
9.63585e-18
-6.15285e-18
-1.83366e-17
-5.47522e-18
-4.06576e-19
-8.56381e-05
0.0001367
-5.2449e-05
5.44812e-18
-1.27529e-17
1.49078e-19
-1.84721e-17
3.11708e-19
-6.50521e-19
-9.21572e-18
-6.77626e-18
5.81403e-18
-2.84603e-18
-1.7537e-17
1.76183e-19
1.00153e-17
-2.45301e-18
-3.19162e-18
1.61614e-17
4.02436e-05
-0.000127006
-7.81981e-18
-8.94467e-19
-5.32614e-18
-3.94379e-18
-1.77538e-18
-1.70762e-18
6.2816e-18
-8.71427e-18
1.94343e-17
-2.06541e-17
-2.8772e-17
2.20906e-17
-1.21973e-19
8.53809e-18
-1.35525e-18
-5.28549e-18
-2.02475e-17
8.61941e-18
-8.95822e-18
9.01243e-19
-3.04932e-18
-1.26445e-17
-6.77626e-20
-1.31595e-17
2.84603e-19
6.81692e-18
5.54298e-18
2.92735e-18
1.19262e-18
6.46456e-18
1.77538e-18
2.57065e-05
-0.000125421
5.04217e-05
-5.05299e-05
-9.92741e-06
-6.6873e-05
7.77836e-05
2.43945e-18
7.04054e-18
-7.53521e-18
3.7676e-18
-1.39456e-17
3.25261e-19
1.10453e-17
6.4239e-18
-1.1376e-16
-8.42967e-17
-3.16845e-16
2.7349e-05
-0.000112779
8.40716e-05
-1.6507e-17
-8.18573e-18
-1.41624e-17
1.19262e-18
-2.11419e-18
-4.68917e-18
1.19262e-18
1.01779e-17
-1.23328e-18
-1.82553e-17
1.70084e-17
-1.12757e-17
2.3988e-18
8.10441e-18
-5.07542e-18
-7.18284e-19
1.17229e-17
-1.17636e-17
-1.10182e-17
6.91179e-18
2.07354e-18
1.26689e-16
-3.48757e-14
-7.03043e-15
7.08797e-18
4.50622e-18
9.42627e-06
-0.000100307
8.99642e-05
9.66295e-18
8.13152e-18
-1.30375e-17
-1.06387e-17
5.24483e-18
-3.64563e-17
8.46897e-17
4.97242e-17
-2.03694e-17
6.34258e-18
-1.53008e-17
1.68187e-17
-1.76996e-17
-4.47233e-18
-1.93801e-18
-1.28546e-17
-3.40168e-18
3.68629e-18
-3.11708e-18
1.21702e-17
-5.47522e-18
6.99519e-05
5.30911e-05
3.40168e-18
5.29904e-18
3.42879e-18
-7.16929e-18
-6.78742e-05
-7.27942e-05
0.000140759
-5.44812e-18
7.16929e-18
-1.01102e-17
-1.17907e-17
5.01444e-18
-2.9409e-18
3.5545e-05
-0.000122297
8.62366e-05
1.24683e-18
9.98821e-18
-5.44812e-18
-0.000126683
1.67916e-17
1.16552e-18
7.71e-05
3.96193e-05
-0.000117357
4.55365e-18
-3.39491e-18
9.48677e-19
-3.65241e-18
-5.75305e-18
3.10353e-18
8.00954e-18
-3.59142e-18
2.83654e-17
-2.12233e-17
1.44199e-17
-3.27971e-18
-7.16929e-18
-4.40457e-18
5.57009e-18
-5.53621e-18
9.66419e-05
-0.000104928
7.59358e-06
2.30393e-18
2.54788e-18
-1.73472e-17
2.27276e-17
-3.98444e-18
-2.05998e-18
6.72205e-18
-1.27529e-17
1.4447e-17
-1.47248e-17
-5.29904e-18
-1.44063e-17
-5.3397e-18
1.8323e-17
-9.18861e-18
2.25243e-17
2.1928e-17
-1.13164e-17
-5.19062e-18
8.82454e-05
-7.97697e-05
2.85145e-17
-2.04372e-17
-2.62377e-17
-6.77626e-20
2.08709e-18
-2.10064e-18
-2.73761e-18
-1.54905e-17
1.25632e-17
-2.01391e-17
1.82959e-17
1.41759e-17
-5.84114e-18
-7.63007e-18
-1.6263e-18
4.60786e-19
6.64074e-19
1.39591e-18
6.97955e-18
-2.49366e-18
3.20108e-05
-0.000111425
7.98677e-05
-2.98156e-19
3.7405e-18
3.38813e-18
7.52762e-07
-0.000113098
0.000101217
-8.82135e-05
0.000114054
-1.43928e-17
7.61652e-18
7.19639e-18
2.10064e-18
-1.00695e-17
3.5101e-18
8.91756e-18
3.11708e-19
1.35525e-20
4.03188e-18
-1.6629e-17
9.20217e-18
5.58364e-18
-6.03765e-18
-3.77438e-18
1.13977e-17
-1.93937e-17
2.07083e-17
-6.4239e-18
-1.13841e-17
-2.34459e-18
-1.36203e-18
4.90601e-18
-3.80826e-18
-9.17506e-18
-1.47994e-17
8.40257e-18
-1.77945e-17
2.99511e-18
2.2443e-17
-9.1073e-18
5.25838e-18
1.49755e-17
-5.93601e-18
1.1479e-17
-3.91668e-18
5.82759e-18
1.12893e-17
8.47033e-18
-6.72577e-05
0.000115685
-5.69186e-05
-8.94467e-18
3.98444e-18
4.59431e-18
-5.96311e-19
-4.74338e-18
-6.24772e-18
8.52454e-18
-5.1093e-18
-6.38324e-18
-1.48536e-17
3.75405e-18
1.58158e-17
-8.42967e-18
1.30917e-17
2.54788e-18
-5.51588e-18
4.93312e-18
9.40705e-05
-0.000122221
9.25638e-18
-4.90601e-18
-6.95245e-18
-8.29415e-18
1.24277e-17
-1.80249e-18
-8.45234e-05
-3.44804e-05
0.000119179
-1.68916e-08
1.02104e-09
-3.00102e-06
1.0449e-17
-7.90112e-18
1.33357e-17
-1.30511e-17
2.33103e-17
-1.49213e-17
-1.8716e-17
-6.08518e-12
1.40179e-12
5.45166e-10
1.4718e-17
-5.96311e-19
-8.83074e-09
1.02457e-17
-1.10318e-17
3.86109e-09
-3.20777e-09
1.22786e-17
-1.55447e-17
-4.68917e-18
1.39456e-17
-1.6385e-17
2.46898e-12
4.1665e-12
1.98273e-17
-9.6494e-18
-3.63343e-17
1.61275e-18
1.00831e-17
-8.61941e-18
9.1344e-18
1.82959e-18
4.90601e-18
6.66784e-18
-2.24972e-18
-1.59784e-17
-2.08709e-17
2.62512e-17
3.32037e-18
1.19262e-17
-1.59513e-17
2.9924e-17
7.03376e-18
-0.000118911
3.61228e-05
8.24649e-05
1.47587e-17
-1.28342e-17
8.81704e-05
2.18007e-05
-0.000115496
-2.58853e-18
5.42101e-20
2.42726e-17
-2.25921e-17
-1.19262e-18
6.77188e-05
-0.000121619
5.26356e-05
-8.0502e-18
-1.57209e-18
1.84314e-18
8.10316e-05
-0.000115563
3.62496e-05
0.000141352
-7.06618e-05
-6.87113e-18
-1.19262e-18
-2.49366e-18
1.04761e-17
9.51387e-18
-4.06576e-18
9.45966e-18
-1.61275e-18
-2.56143e-18
9.6494e-18
-2.47334e-17
8.22638e-18
1.41217e-17
-2.02339e-17
1.09911e-17
-9.28348e-18
2.27682e-18
2.62919e-18
-4.45878e-18
2.83064e-05
-0.000111207
8.3759e-05
-8.6919e-06
9.15648e-05
-8.2488e-05
6.36969e-18
-7.7927e-18
-1.40404e-17
1.0842e-18
2.10064e-18
0.000110383
-7.71377e-06
1.35525e-18
2.54788e-18
-1.6629e-17
3.38813e-18
1.0056e-17
-7.80626e-18
-7.29126e-18
-9.96111e-18
9.59519e-18
6.31548e-18
4.16063e-18
3.7405e-18
-8.5923e-18
6.22061e-18
-1.03948e-17
1.18043e-17
-4.8247e-18
1.00695e-17
-2.63326e-17
2.52077e-18
-1.92175e-17
-1.35525e-19
-1.76183e-18
-1.32408e-17
2.69695e-18
7.20994e-18
-4.07931e-18
2.32832e-17
-1.0571e-18
6.03087e-18
-2.42319e-17
-7.71139e-18
7.16929e-18
8.67362e-19
-9.54098e-18
5.62403e-05
8.58322e-05
5.06865e-18
-7.42001e-18
-0.000108332
9.89951e-05
2.47334e-18
4.22839e-18
7.7927e-18
-1.7686e-17
1.50704e-17
-2.08844e-17
1.80113e-17
-4.34223e-17
-1.98002e-17
-0.000108442
3.25926e-05
7.54489e-05
-7.81303e-18
1.08014e-17
-1.08691e-17
-6.50521e-18
8.64651e-18
3.0158e-05
0.000125674
-4.92628e-05
-8.13152e-19
-1.01508e-17
-8.77551e-05
7.90117e-05
3.12657e-17
-7.60297e-18
-4.49944e-18
-1.76183e-17
1.52195e-17
9.74427e-18
-5.24483e-18
-2.79182e-18
9.02598e-18
-4.8247e-18
5.66496e-18
-5.70561e-18
-2.79182e-18
5.50233e-18
9.73749e-18
1.90413e-17
-1.46232e-17
4.39102e-18
2.01933e-18
-7.98244e-18
9.50032e-18
-7.2506e-18
2.50315e-17
-2.18196e-18
-2.36356e-17
1.01034e-17
-8.42967e-18
6.06476e-18
7.5081e-18
-6.80337e-18
7.02021e-18
-7.58942e-18
-1.29562e-17
-9.28687e-05
-2.62908e-05
-1.54499e-18
9.83913e-18
6.91099e-06
-9.85254e-05
2.13452e-18
-1.75505e-18
3.59887e-17
-9.44611e-18
-1.68864e-17
2.06676e-17
5.89535e-18
4.07931e-18
-4.91957e-18
-2.27682e-18
-3.07642e-18
-6.26127e-18
5.44812e-18
-2.50722e-18
1.15739e-17
6.36969e-19
-2.49366e-18
7.35902e-18
1.41217e-17
-2.48011e-18
-1.0571e-18
-5.3668e-18
-1.37965e-17
-7.66455e-05
0.000130441
-5.42759e-05
-1.35525e-20
-7.99599e-18
1.71304e-17
9.50721e-05
1.76183e-18
7.64363e-18
-8.78204e-18
-8.13152e-20
-7.45389e-19
1.12215e-17
-1.3539e-17
1.85128e-17
-2.65494e-17
-7.04731e-19
2.86988e-05
2.30282e-05
-7.75205e-18
7.45389e-18
9.78492e-18
2.96123e-18
6.09864e-19
6.63396e-18
-6.73561e-18
-9.02598e-18
-2.71051e-19
-2.01933e-18
-5.28549e-19
7.89763e-05
-8.75079e-05
2.92735e-18
-3.08998e-18
7.00666e-18
-1.66967e-17
7.19639e-18
-1.76183e-18
-1.61953e-17
-5.40746e-18
-2.78098e-17
1.79707e-17
-1.02864e-17
5.89535e-18
2.19551e-18
-1.32408e-17
2.35814e-18
-0.000121334
1.25767e-17
-6.26127e-18
1.44877e-17
-3.28649e-18
-4.68917e-18
-1.19804e-17
-1.91091e-18
1.08827e-17
-9.9069e-18
1.33357e-17
9.12085e-18
-4.06576e-20
7.10152e-18
9.6494e-18
1.93801e-18
-2.74032e-17
-2.98156e-19
1.92852e-17
-8.19928e-18
3.08998e-18
3.94379e-18
-2.40693e-17
9.35124e-18
7.65718e-18
-2.61564e-18
-1.00018e-17
7.07442e-18
-7.7927e-18
2.82977e-17
-1.63579e-17
-1.15332e-17
2.9409e-18
-9.21572e-18
8.47033e-18
-2.91379e-18
-6.88468e-18
-8.90401e-18
6.61363e-18
2.98156e-17
-8.28737e-18
1.79978e-17
-1.26039e-18
-1.77267e-17
2.56536e-05
-0.000106651
8.0988e-05
-1.00966e-17
9.21572e-18
-6.11219e-18
-8.94467e-19
3.10353e-18
-1.35525e-20
-7.99599e-18
9.08697e-18
-6.41035e-18
-7.53521e-18
1.49078e-18
-6.17995e-18
-1.90955e-17
7.48099e-18
-6.75584e-05
0.000123938
-9.24282e-18
-8.95822e-18
5.44812e-18
9.32414e-18
1.43657e-17
-6.81014e-18
2.18196e-18
1.53957e-17
-7.44034e-18
-1.40404e-17
-6.7085e-18
-7.92823e-18
-1.29129e-07
-6.55942e-18
-2.3988e-18
4.64852e-18
-9.70361e-18
8.25349e-18
1.49078e-18
-3.2255e-18
-3.10353e-18
1.20753e-17
-1.34983e-17
-2.71051e-19
-1.76183e-19
-1.47587e-17
2.29715e-17
-8.34836e-18
-9.54098e-18
2.12639e-17
5.14996e-19
-4.3097e-18
1.97189e-17
1.11673e-17
5.6243e-18
-4.62141e-18
-4.18773e-18
-5.16351e-18
2.62648e-17
2.65358e-17
4.36292e-05
-8.13152e-19
2.75116e-18
0.000146282
-9.28818e-05
-2.24972e-18
-9.21572e-19
1.3146e-18
8.17217e-18
1.43521e-17
-2.40422e-17
-8.32957e-05
-3.19497e-05
0.000114511
-8.93112e-18
-4.88569e-18
1.05506e-17
-1.53144e-18
-5.27193e-18
-0.000120156
0.000117729
6.33883e-06
-7.87402e-18
-1.43792e-17
-2.59531e-18
3.84214e-18
-1.48265e-17
-2.45301e-18
1.36203e-17
1.09911e-17
-1.30308e-17
-1.04354e-17
0.000141221
-4.5751e-06
8.90401e-18
1.28613e-17
-1.18314e-17
6.61889e-05
5.52627e-05
-0.000122035
-1.96647e-17
7.63685e-18
-5.28549e-19
9.08019e-18
5.71917e-18
6.6814e-18
3.60497e-18
5.0822e-18
1.03406e-17
-1.72659e-17
7.94856e-18
2.53432e-18
8.14507e-18
1.52873e-17
-1.12215e-17
-5.02799e-18
-2.03288e-18
7.00666e-18
-5.11552e-05
0.000127675
1.73472e-18
0.000135834
-5.38318e-05
-5.48212e-05
0.000117665
2.33103e-18
-5.20417e-18
1.46367e-18
-4.58075e-18
-1.65341e-18
1.39727e-17
-1.76454e-17
1.175e-17
2.37508e-09
-6.7286e-11
2.03151e-12
4.33681e-19
1.23057e-17
-1.43792e-17
5.86824e-18
-1.00018e-17
3.78793e-18
-7.10152e-18
4.7339e-17
1.11131e-18
-3.26684e-17
1.00018e-17
5.14996e-19
6.77626e-18
-1.13841e-18
1.3146e-18
-5.75982e-18
-9.35124e-19
-1.15874e-17
5.75982e-19
-1.69407e-18
-8.26513e-05
1.35525e-18
1.71101e-17
3.49926e-17
-1.48536e-17
6.78304e-18
1.82959e-19
-1.40879e-17
-1.03948e-17
2.23888e-17
-1.21973e-17
2.17925e-17
-5.84114e-18
-6.23416e-19
-7.99599e-18
2.00577e-17
-5.1093e-18
-7.18284e-18
1.16552e-18
4.66207e-18
-2.52077e-18
3.63208e-18
-1.21702e-17
1.34441e-17
2.0505e-17
-1.24819e-17
-1.73472e-18
-1.09775e-17
1.13435e-17
-5.50233e-18
3.18484e-18
-1.1479e-17
-8.51099e-18
3.73372e-18
-7.19415e-05
0.000127232
-5.62426e-05
-6.09864e-19
-5.17707e-18
4.07931e-18
-1.6385e-17
7.92823e-18
-1.02999e-18
1.63986e-18
3.25261e-18
-1.04354e-18
-2.84603e-18
5.17296e-05
-6.78982e-18
1.13028e-17
7.88757e-18
0.00011186
-6.18567e-05
-2.6834e-18
-1.28885e-17
-9.05309e-18
4.68917e-18
-2.72406e-18
-1.71439e-18
-2.71051e-18
6.22061e-18
-1.1872e-17
1.37965e-17
1.67374e-17
-1.51517e-17
-2.29038e-18
-1.15196e-17
-3.34747e-18
5.44812e-18
-1.23057e-17
-1.31324e-17
-2.13859e-17
-1.24277e-17
1.66696e-18
1.70762e-18
1.00153e-17
-1.08014e-17
9.51767e-05
-9.72534e-05
1.77498e-06
7.34547e-18
3.44234e-18
-7.60734e-05
4.40457e-18
1.41217e-17
1.71711e-17
1.00153e-17
1.26445e-17
-3.55618e-17
3.7676e-18
1.4447e-17
4.06576e-18
-5.32614e-18
1.29833e-17
2.76472e-18
-1.47316e-17
7.5081e-18
9.31059e-18
6.71528e-18
-7.00666e-18
1.46096e-17
-1.47451e-17
-3.49655e-18
-0.000124074
7.12898e-05
5.14043e-05
-2.50722e-18
1.63986e-18
-3.71339e-18
5.48877e-18
-2.64274e-18
2.41235e-18
6.97955e-18
1.54499e-18
0.000134112
-8.86848e-05
9.061e-05
5.34213e-06
8.28059e-18
-1.5748e-17
2.1413e-18
6.48162e-05
5.3684e-05
-0.000120035
-6.87113e-18
6.25449e-18
1.19804e-17
-3.57787e-18
-5.67851e-18
8.57197e-18
7.68428e-18
-1.27258e-17
2.52077e-18
8.90401e-18
5.91687e-05
-8.48825e-05
2.56869e-05
0.000135595
-7.01788e-05
-1.56566e-05
0.000110487
6.11219e-18
-1.87703e-18
-6.35614e-18
7.57586e-18
-3.26616e-18
-4.77049e-18
-2.77827e-18
-1.01373e-17
7.56231e-18
2.55808e-05
-0.000109563
2.79182e-18
-1.61682e-17
7.39968e-18
9.73071e-18
-1.97731e-17
-2.33103e-18
-1.40404e-17
5.16351e-18
-1.35525e-20
1.73405e-17
3.57109e-18
-1.58022e-17
-2.7227e-17
-1.53144e-17
-1.59107e-17
2.06947e-17
5.66496e-18
-1.14925e-17
-1.0327e-17
-8.0231e-18
2.19551e-18
1.1601e-17
-1.0842e-17
4.09286e-18
3.79471e-19
-9.02598e-18
1.35985e-09
-1.84252e-12
1.49078e-17
-8.3077e-18
-5.51049e-05
-8.21266e-05
5.33703e-05
9.14909e-05
0.000112908
-8.56664e-05
-3.93023e-18
8.66006e-18
-0.000124526
-2.36763e-17
1.2509e-17
6.95245e-18
-1.82959e-18
7.02021e-18
-6.85758e-18
5.73272e-18
1.1872e-17
1.17907e-18
-8.44322e-18
5.12286e-18
-1.69407e-19
7.10152e-18
-7.5081e-18
7.54815e-05
-1.58434e-05
8.68717e-18
6.49166e-18
-5.42101e-20
1.01983e-17
-1.60326e-17
-6.93889e-18
2.27005e-18
1.06116e-17
-3.18484e-19
6.65429e-18
-1.66154e-17
8.97177e-18
-6.35614e-18
1.36881e-18
-3.83537e-18
-1.37965e-17
1.47723e-18
9.75782e-19
-1.58565e-17
8.19928e-18
9.12085e-18
-1.24954e-17
9.06664e-18
-8.30619e-05
0.000118117
2.18196e-18
2.35814e-18
-1.24141e-17
-1.35525e-20
-4.24194e-18
-2.46656e-18
1.52466e-18
1.14248e-17
-9.08019e-19
5.23128e-18
-2.73761e-18
-1.42573e-17
-9.9069e-18
6.57298e-18
1.76183e-18
1.36881e-17
-1.18043e-17
-5.28549e-19
-9.75782e-18
4.29615e-18
2.1535e-17
4.14707e-18
-4.38088e-11
-5.39492e-11
5.52032e-09
9.40545e-18
-8.8227e-18
1.29901e-17
1.08226e-09
-8.45375e-12
-2.84603e-18
-1.02457e-17
9.83913e-18
-6.93889e-18
1.76183e-18
-2.18196e-18
1.98816e-17
-5.67851e-18
1.64663e-17
-1.07878e-17
-3.483e-18
7.60297e-18
-7.04731e-19
4.138e-13
2.31045e-13
-5.17029e-18
-1.20753e-17
8.35513e-18
-8.57391e-05
-1.44069e-05
8.5923e-18
-1.51517e-17
1.39591e-18
-1.11808e-17
1.00831e-17
-1.51111e-18
4.20128e-18
4.29615e-18
-1.3932e-17
9.3648e-18
-0.000135114
0.000114205
1.21973e-19
-2.38524e-18
-1.00018e-17
-2.15485e-18
-2.15079e-17
-3.24583e-18
7.42001e-18
8.76849e-18
1.95156e-18
-2.57558e-06
-9.44078e-05
9.63345e-05
3.06287e-18
3.71339e-18
-4.37747e-18
-2.66307e-18
-3.97089e-18
-3.06694e-17
1.84179e-17
-0.000135093
4.14684e-05
-1.23464e-17
-3.86247e-18
-1.87025e-18
2.87314e-18
9.25638e-18
1.42844e-17
3.56431e-18
-9.73071e-18
1.26987e-17
-1.65341e-18
-9.71716e-18
2.33103e-18
7.19639e-18
-9.934e-18
-1.50975e-17
5.48877e-18
-9.31059e-18
6.47811e-18
2.20906e-18
8.55164e-18
-1.06252e-17
1.95175e-05
-9.64329e-05
6.51877e-18
1.42302e-18
9.59519e-18
1.381e-17
-1.7415e-17
1.17094e-17
4.32326e-18
-1.13706e-17
1.01102e-17
-7.8731e-05
-1.49362e-05
9.37554e-05
1.81739e-17
-1.17094e-17
1.46232e-17
-5.25838e-18
4.55365e-18
-4.32326e-18
-2.62919e-18
1.49078e-18
7.66799e-15
-5.5971e-13
-1.88109e-17
1.18856e-17
6.50521e-19
-1.91091e-18
-7.84691e-18
-6.35614e-18
-1.99222e-18
1.1872e-17
-2.98156e-19
-3.25261e-18
-3.71339e-18
4.90601e-18
-6.15285e-18
9.06664e-18
-2.77827e-18
8.74138e-18
8.98533e-18
-5.58364e-18
3.73718e-05
-2.76771e-05
-1.10809e-05
-3.93023e-18
-3.25261e-19
4.97378e-18
2.43945e-19
5.49555e-18
-1.0327e-17
1.41759e-17
2.15485e-18
1.09775e-18
1.35254e-17
0.000109544
-7.7532e-05
2.13046e-17
-7.91468e-18
-4.20128e-18
-2.25379e-17
-4.86536e-18
-6.0512e-18
-1.51111e-18
4.76371e-18
2.18738e-17
1.30375e-17
-1.35932e-17
-6.73561e-18
-7.99599e-18
-4.24194e-18
2.06134e-17
-1.04626e-17
4.45878e-18
-3.10353e-18
-2.37169e-18
-8.20606e-18
8.66006e-18
-6.69495e-18
0.000110085
-9.33183e-05
-1.88979e-05
5.29904e-18
-5.52943e-18
3.67273e-18
-1.27258e-17
3.00188e-18
-2.06947e-17
1.52737e-17
-3.65918e-18
-8.00954e-18
-5.42101e-19
-4.09286e-18
2.08031e-18
-5.52265e-18
9.96111e-19
-4.62141e-18
-5.01444e-18
4.94667e-18
6.27482e-18
-6.81692e-18
7.42678e-18
-9.37835e-18
-1.11131e-18
-4.81115e-18
1.11537e-17
2.13298e-05
-9.38194e-05
0.000124088
-4.80162e-05
-7.51087e-05
-3.998e-18
8.53809e-19
1.82959e-18
-1.56396e-17
7.80626e-18
-1.43928e-17
1.21295e-17
-2.43945e-18
3.00866e-18
1.38236e-18
-3.7676e-18
2.66578e-17
-3.7676e-18
-8.67362e-19
-6.70172e-18
3.57787e-18
7.69784e-18
-1.03541e-17
-6.43261e-05
0.000103387
6.69495e-18
-9.35124e-18
-1.56532e-17
2.70847e-17
7.87402e-18
1.8838e-18
-1.95156e-18
9.29703e-18
2.34459e-18
-3.41524e-18
3.93023e-18
6.35614e-18
-1.56125e-17
-6.34258e-18
3.7405e-18
-6.1664e-18
2.81893e-18
1.38236e-18
-8.19928e-18
7.31836e-18
2.1684e-18
-7.67073e-18
-7.49455e-18
1.44199e-17
-1.33357e-17
6.50521e-19
8.10441e-18
-1.35794e-05
-0.000120814
-7.72494e-19
3.25261e-19
5.23128e-18
3.78116e-18
6.4239e-18
-7.32575e-05
7.10027e-06
-1.17568e-17
5.6243e-18
1.33763e-17
1.06387e-17
-2.66443e-17
-2.07354e-18
-1.43657e-17
1.33357e-17
4.17418e-18
4.0251e-18
-9.24282e-18
-8.53809e-19
-7.77915e-18
-2.48011e-18
2.04643e-17
6.966e-18
-1.75099e-17
-6.77626e-19
-3.53721e-18
4.06576e-18
-3.18484e-18
-7.31836e-19
-8.11796e-18
3.12386e-18
6.36291e-18
2.29207e-05
0.000117771
-5.71917e-18
1.51517e-17
1.43657e-18
-6.55942e-18
9.3648e-18
-7.16929e-18
-5.59719e-18
1.45825e-17
-7.34547e-18
-9.02598e-18
1.89735e-17
-2.01865e-17
-1.33899e-17
2.73761e-18
5.99022e-18
-1.28749e-17
-1.29427e-18
-3.88958e-18
1.15739e-17
1.25767e-17
-7.99599e-19
4.59431e-18
2.29038e-18
3.04525e-17
-2.01255e-17
4.16063e-18
-7.2235e-18
9.28348e-18
-1.49036e-05
8.58531e-05
-6.88524e-05
-6.61363e-18
4.57533e-17
-3.45318e-17
1.79707e-17
-4.78404e-18
-6.23416e-19
1.22921e-17
1.76454e-17
-7.77915e-18
-7.45389e-18
-6.57298e-18
-6.50521e-19
-4.89246e-18
0.000132428
-6.56329e-05
-6.66703e-05
7.73172e-18
-8.75129e-05
7.05437e-06
5.85469e-18
-2.95445e-18
4.33681e-18
-1.02593e-17
-3.11708e-18
5.27193e-18
1.22379e-17
4.87891e-19
6.43066e-05
5.66607e-05
-0.000121646
-4.60786e-18
3.55076e-18
-2.29038e-18
-9.82558e-18
-1.26852e-17
-9.70361e-18
-5.96311e-19
-1.0571e-18
3.32037e-18
-8.13152e-18
1.33221e-17
-3.95734e-18
-1.66018e-17
2.58853e-18
1.47045e-17
7.83336e-18
-5.00088e-18
-7.96889e-18
6.17995e-18
-1.69407e-19
9.52743e-18
-1.36745e-17
-1.56125e-17
9.62229e-18
-8.70072e-18
6.73561e-18
-1.69407e-18
-1.56803e-17
2.1413e-18
6.58653e-18
7.61652e-18
-4.73661e-18
-8.12865e-05
-4.40951e-05
-7.72494e-18
-7.2235e-18
1.26648e-17
3.7676e-18
3.75405e-18
8.28059e-18
9.28348e-18
-1.21973e-18
-9.18861e-18
3.96948e-05
0.000114963
-3.71339e-18
5.09575e-18
2.03288e-18
-1.39591e-18
5.28549e-19
2.43945e-18
-4.9399e-18
-2.33781e-18
1.01915e-17
-1.76183e-17
-8.95748e-05
-2.7979e-05
-9.24282e-18
-5.99022e-18
-5.01444e-18
1.47723e-18
-8.5652e-18
-1.36067e-17
5.38035e-18
-2.30393e-18
4.29615e-18
-8.52454e-18
-2.72406e-18
5.70561e-18
8.19928e-18
-1.69407e-17
-1.49078e-19
5.42101e-20
1.16687e-17
-8.71427e-18
-8.63978e-05
-3.03383e-05
0.000116394
-0.00012244
3.4313e-05
-4.41812e-18
-1.94885e-17
-3.79471e-19
1.01915e-17
-4.25549e-18
-7.87402e-18
6.00377e-18
-1.9868e-17
3.07642e-18
2.03966e-17
-9.21572e-19
2.01391e-17
-7.50132e-18
3.79471e-18
-3.17265e-17
3.02221e-18
4.18773e-18
3.36103e-18
1.3417e-18
1.0842e-18
5.7395e-18
-8.13152e-18
-6.57298e-19
-2.01933e-18
4.81115e-18
-3.87602e-18
7.04731e-18
-4.74338e-18
-1.23057e-17
-4.60108e-18
1.30172e-17
-1.55312e-17
8.15862e-18
1.0842e-19
9.21572e-19
-0.000102458
5.28549e-18
2.44623e-17
4.5401e-18
-3.21195e-18
-6.25449e-18
4.67562e-19
3.41524e-18
-8.14507e-18
-1.60597e-17
-9.30381e-18
1.40404e-17
3.55076e-18
-9.96111e-18
4.8247e-18
-1.04083e-17
9.75782e-19
8.17743e-05
-8.49254e-05
-8.5344e-05
0.000113742
-2.92535e-05
-8.3348e-18
-1.18585e-18
-1.51788e-18
-4.97378e-18
7.75205e-18
-4.10642e-18
1.38642e-17
-5.6514e-18
-1.30917e-17
-8.5652e-18
-1.68051e-18
-1.13841e-17
1.81468e-17
-2.35814e-18
-8.10441e-18
8.45678e-18
2.3351e-17
-1.38507e-17
-1.6263e-18
2.1684e-18
1.37423e-17
-1.70762e-18
-5.96311e-18
9.6494e-18
-8.3077e-18
-2.81893e-18
4.5672e-18
-9.86624e-18
-5.31259e-18
-4.78404e-18
-2.64274e-18
-1.40811e-17
-0.000111399
4.40511e-05
6.66894e-05
-1.35322e-17
1.11266e-17
-1.30104e-17
-1.46096e-17
-8.95822e-18
-3.72694e-18
1.04219e-17
-1.4203e-17
6.26804e-18
6.89824e-18
5.00088e-18
-9.43256e-18
4.06576e-18
0.000127295
-7.36971e-05
1.38778e-17
-7.61652e-18
1.05574e-17
6.75998e-05
6.31548e-18
-1.07878e-17
8.91756e-18
-2.27682e-18
-1.13164e-17
-4.26905e-18
-8.64651e-18
-6.81692e-18
-6.50521e-19
1.47858e-17
-1.13841e-18
-4.45878e-18
-5.29904e-18
7.18284e-18
-2.6834e-18
1.95427e-17
-2.08709e-18
-1.0964e-17
1.58429e-17
4.89246e-18
-1.40946e-18
4.93312e-18
-1.35525e-17
-5.27193e-18
2.91379e-18
9.9069e-18
-1.45893e-17
-1.05981e-17
3.82181e-18
2.07354e-18
-9.95284e-05
8.60657e-05
1.39693e-05
1.24548e-17
1.44199e-17
-1.68932e-17
1.06116e-17
-1.04354e-18
-4.75694e-18
1.30917e-17
8.66006e-18
-3.52366e-18
-5.9089e-18
-7.20994e-18
-1.32476e-17
3.1984e-18
1.24548e-17
7.53521e-18
2.45436e-17
2.90024e-18
4.5672e-18
4.95345e-18
8.28737e-18
1.17771e-17
-5.6514e-18
2.18196e-18
-5.52943e-18
1.75505e-17
-3.72694e-18
-6.67632e-05
0.000132299
9.31059e-18
-2.20364e-17
-7.48099e-18
3.15774e-18
-7.44034e-18
-3.82181e-18
-2.50722e-18
3.31359e-18
-4.67562e-18
1.29698e-17
1.46367e-18
1.96914e-05
9.06636e-05
-0.000106881
-9.47322e-18
1.93666e-17
-9.6494e-18
1.54499e-18
-3.12521e-17
1.5992e-17
-1.16552e-18
1.21973e-17
-1.26987e-17
-1.18856e-17
-3.06287e-18
1.74828e-18
-3.44912e-18
1.06523e-17
-6.97955e-18
-1.53144e-18
8.85049e-05
3.81902e-05
-3.14419e-18
-5.73272e-18
2.15485e-18
3.23905e-18
-7.15573e-18
-7.37257e-18
7.96889e-18
-1.5992e-18
4.18773e-18
2.968e-18
-1.11131e-18
-1.16281e-17
-9.1073e-18
-4.81115e-18
-3.23228e-18
-1.34441e-17
1.04354e-17
-1.93666e-17
2.30393e-18
-1.14248e-17
3.58329e-17
-1.66154e-17
7.98244e-18
1.44334e-18
1.31595e-17
-3.21873e-18
-3.94379e-18
0.000119476
-3.15269e-05
1.03677e-17
-4.47233e-19
-4.25549e-18
-0.000121129
3.73391e-05
-4.90601e-18
4.20128e-18
6.77626e-20
-1.61275e-18
-1.54363e-17
1.88787e-17
-1.78216e-17
8.80914e-18
4.70273e-18
-7.93861e-05
0.000118529
1.11022e-08
-1.68509e-09
5.42101e-20
7.58942e-19
-1.37558e-17
-8.67362e-18
1.08014e-17
-3.08998e-18
2.41235e-18
5.43555e-13
-1.48447e-12
-3.55076e-18
2.03966e-17
6.23416e-19
1.42573e-17
-4.89924e-18
-1.14654e-17
2.16298e-17
1.0842e-19
-1.55176e-17
0
-1.18314e-17
1.76996e-17
-7.65718e-18
5.82759e-18
2.49366e-18
8.19928e-19
1.93666e-17
-7.19639e-18
-5.01444e-18
9.31059e-18
1.60259e-17
-1.01508e-17
-4.33681e-19
7.49455e-18
-1.96512e-18
-2.05456e-17
4.41812e-18
1.37829e-17
0.000110509
-7.52419e-05
-3.88083e-05
1.73472e-17
-3.3407e-18
0.000110154
-8.78882e-05
-1.11537e-17
-1.06116e-17
1.66154e-17
1.55312e-17
-8.5923e-18
-1.43792e-17
2.79182e-18
6.84403e-18
5.55654e-19
-3.45589e-18
-6.11897e-18
-4.98733e-18
6.46456e-18
-2.10064e-18
1.22108e-17
-5.50233e-18
3.17129e-18
-5.78693e-18
-4.30642e-05
0.000139748
-0.000101155
-4.07931e-18
1.76183e-17
6.77626e-18
7.08797e-18
-1.49078e-18
1.03812e-17
-6.55942e-18
-3.53721e-18
3.13063e-18
-2.30108e-13
5.91583e-14
-9.47999e-18
1.27462e-17
3.57109e-18
2.42726e-17
-1.38236e-17
-4.47233e-18
9.69006e-18
-1.37829e-17
1.6629e-17
-7.31836e-19
5.39391e-18
-6.50521e-18
7.80626e-18
2.18196e-18
6.63914e-05
2.77788e-05
-9.48042e-05
1.28749e-18
-5.35325e-18
-1.54228e-17
6.85758e-18
-1.66696e-18
9.63585e-18
-3.61852e-18
-1.86889e-17
-2.73761e-18
-2.11419e-18
6.64074e-19
-1.23464e-17
8.57875e-18
8.68717e-18
-9.55453e-18
8.19928e-18
-8.72783e-18
9.94755e-18
-3.07642e-18
-2.83248e-18
-3.90313e-18
-7.69784e-18
1.43521e-17
-1.77335e-17
1.56193e-17
-5.99022e-18
-6.50521e-19
1.69407e-19
-1.43386e-17
1.58836e-17
8.90401e-18
9.79848e-18
6.80337e-18
-1.16281e-17
-2.18738e-17
-6.89824e-18
1.79978e-17
1.5599e-17
-7.15573e-18
-1.30923e-10
6.25357e-09
-1.04354e-17
2.25379e-17
5.66759e-12
1.86618e-17
-9.01243e-18
-8.68038e-05
-2.1908e-05
0.000108786
-2.22261e-18
1.03406e-17
-2.76472e-18
1.26174e-17
-1.51246e-17
-4.26905e-18
1.69271e-17
-1.47723e-17
-1.64934e-17
-1.24683e-18
-8.47033e-18
1.31053e-17
-1.05439e-17
2.59124e-17
2.19551e-18
-3.40168e-18
9.6765e-18
-1.17365e-17
3.30817e-17
1.77538e-18
2.11826e-17
-7.38613e-18
-6.00377e-18
1.59513e-17
1.45419e-17
-9.98821e-18
-5.1093e-18
6.84403e-18
9.54098e-18
4.40457e-18
8.17217e-18
-9.33769e-18
-8.09763e-18
-9.62229e-18
1.09775e-17
1.84992e-17
-1.16416e-17
-2.57091e-17
-0.00011729
3.50539e-05
2.968e-18
2.29038e-18
-7.53521e-18
-6.87113e-18
1.91091e-18
-8.1925e-18
1.0117e-17
-1.33221e-17
0.000107185
1.0571e-17
7.5081e-18
-9.96111e-18
-2.3473e-17
2.13452e-17
4.5672e-18
-8.44322e-18
4.86536e-18
-6.9931e-18
1.26039e-18
-5.93601e-18
-1.4718e-17
8.26704e-18
1.21566e-17
-2.28496e-17
-7.14218e-18
7.42678e-18
8.3348e-18
9.48677e-19
-3.84892e-18
3.33356e-05
-3.26616e-18
1.18449e-17
4.01155e-18
4.76371e-18
-1.07336e-17
-3.18484e-18
-1.40946e-18
2.98156e-19
-4.06576e-20
-5.44134e-18
-2.1535e-17
1.9231e-17
1.57209e-18
-1.17094e-17
-1.52466e-17
6.12574e-18
6.49166e-18
5.12286e-18
-8.51099e-18
5.00088e-18
2.70644e-17
-1.97189e-17
9.62229e-18
1.84314e-18
9.89334e-18
1.00289e-18
-2.11419e-18
5.92245e-18
3.17129e-18
-1.09504e-17
8.70072e-18
-3.49655e-18
-0.000103116
-1.94669e-05
-3.38813e-18
0.000112543
-8.26695e-05
-3.00926e-05
4.78404e-18
-9.87979e-18
1.31866e-17
-1.56803e-17
3.52366e-19
4.29615e-18
-8.69792e-05
0.00011676
-2.95286e-05
-2.16163e-17
-1.8838e-18
1.45148e-17
1.59513e-17
-1.78283e-17
-9.60941e-05
-2.1201e-05
0.000117718
1.95156e-18
2.99511e-18
-1.67645e-17
-3.93193e-05
0.000116143
-8.10811e-05
1.56897e-05
7.88757e-18
-5.73272e-18
9.9069e-18
-2.12368e-17
9.28348e-18
6.69495e-18
-7.81981e-18
7.7656e-18
6.81692e-18
1.70762e-18
-1.08691e-17
1.88516e-17
2.9409e-18
-8.00954e-18
1.55854e-17
-1.55854e-17
-6.31548e-18
-3.13063e-18
-4.18773e-18
-9.58164e-18
-1.02051e-17
8.08059e-05
1.44877e-17
-9.60874e-18
-1.13841e-17
3.33392e-18
-2.33646e-17
-1.26513e-17
-3.25938e-18
5.01444e-19
-5.26961e-05
5.32251e-05
-3.63885e-17
2.38796e-17
9.86624e-18
-1.59242e-18
4.29615e-18
-8.25349e-18
-7.30481e-18
-4.94667e-18
-3.998e-18
1.87025e-18
-1.11673e-17
5.19062e-18
-4.87891e-18
3.53721e-18
9.96111e-18
1.97986e-05
-0.000106148
9.02598e-18
-9.43256e-18
-1.44605e-17
1.56938e-17
-1.0449e-17
-3.33392e-18
-5.84114e-18
3.42879e-18
4.59431e-18
-4.13352e-18
6.53232e-18
-1.53144e-17
-1.24006e-17
8.22638e-18
-6.81692e-18
3.03577e-18
2.34459e-18
-6.451e-18
-1.31324e-17
1.50162e-17
1.37829e-17
-1.68051e-18
-0.000129322
3.43252e-05
2.19822e-17
-3.20111e-17
8.80914e-19
8.21283e-18
-3.04932e-18
-4.37747e-18
-4.99449e-07
-2.57634e-17
2.57876e-05
-3.18861e-06
-4.83151e-05
1.76725e-17
-1.70355e-17
-5.69206e-18
8.80914e-18
-2.46656e-18
-1.51517e-17
1.17771e-17
1.02457e-17
-5.52943e-18
-2.17925e-17
4.66207e-18
-6.61363e-18
3.25261e-18
2.20229e-18
-3.998e-18
4.72983e-18
-6.15962e-18
-1.78487e-17
4.33681e-18
-2.77827e-18
1.49078e-19