/*--------------------------------*- C++ -*----------------------------------*\
  =========                 |
  \\      /  F ield         | OpenFOAM: The Open Source CFD Toolbox
   \\    /   O peration     | Website:  https://openfoam.org
    \\  /    A nd           | Version:  12
     \\/     M anipulation  |
\*---------------------------------------------------------------------------*/
FoamFile
{
    format      ascii;
    class       surfaceScalarField;
    location    "0.1";
    object      phi;
}
// * * * * * * * * * * * * * * * * * * * * * * * * * * * * * * * * * * * * * //

dimensions      [1 0 -1 0 0 0 0];

internalField   nonuniform List<scalar> 
19404
(
-0.000123971
2.87839e-07
-0.000124091
3.10597e-07
-0.00012423
3.36629e-07
-0.000124361
3.05443e-07
-0.000124483
2.95491e-07
-0.000124634
3.14889e-07
-0.000124775
2.95298e-07
-0.000124928
3.0151e-07
-0.000125084
2.90781e-07
-0.000125229
2.93103e-07
-0.00012539
2.95587e-07
-0.000125546
2.97973e-07
-0.000125715
3.01452e-07
-0.000125873
2.96658e-07
-0.000126047
3.04686e-07
-0.000126218
3.02695e-07
-0.000126394
3.06079e-07
-0.000126579
3.10994e-07
-0.000126763
3.09819e-07
-0.000126937
2.96302e-07
-0.000127133
3.1478e-07
-0.000127316
2.97917e-07
-0.000127501
2.96537e-07
-0.000127694
3.0129e-07
-0.000127884
2.94941e-07
-0.000128065
2.75435e-07
-0.00012827
2.88753e-07
-0.000128464
2.68869e-07
-0.000128667
2.70814e-07
-0.000128869
2.62721e-07
-0.000129069
2.5679e-07
-0.000129268
2.4692e-07
-0.000129484
2.55465e-07
-0.000129701
2.46306e-07
-0.000129917
2.42295e-07
-0.000130114
2.2833e-07
-0.000130311
2.3702e-07
-0.00013053
2.54935e-07
-0.000130721
2.176e-07
-0.000130957
2.4644e-07
-0.00013118
2.25729e-07
-0.000131416
2.38738e-07
-0.000131626
2.11515e-07
-0.00013187
2.38214e-07
-0.000132089
2.10039e-07
-0.000132314
2.21509e-07
-0.000132548
2.22954e-07
-0.00013279
2.18257e-07
-0.000133031
2.02844e-07
-0.000133268
1.93544e-07
-0.000133508
1.88191e-07
-0.000133746
1.77731e-07
-0.000133983
1.72468e-07
-0.000134231
1.79755e-07
-0.000134491
1.829e-07
-0.000134729
1.59761e-07
-0.000135001
1.90567e-07
-0.000135243
1.56914e-07
-0.000135501
1.70152e-07
-0.000135747
1.54689e-07
-0.000136027
1.84008e-07
-0.000136268
1.41265e-07
-0.000136536
1.65938e-07
-0.000136814
1.67549e-07
-0.000137079
1.49169e-07
-0.000137345
1.45972e-07
-0.000137607
1.36596e-07
-0.000137882
1.45283e-07
-0.000138156
1.35698e-07
-0.00013843
1.26174e-07
-0.000138706
1.23174e-07
-0.00013899
1.25901e-07
-0.000139261
1.0603e-07
-0.000139555
1.22434e-07
-0.000139839
9.91079e-08
-0.000140135
9.46485e-08
-0.000140448
9.79303e-08
-0.000140742
9.0996e-08
-0.000140954
7.13971e-08
-0.000141079
7.38777e-08
-0.00014074
5.47801e-09
-0.000139015
-1.01261e-08
-0.000138344
-1.31442e-07
-0.000138212
-3.65737e-07
-0.000138154
-3.22639e-07
-0.000138149
-2.43704e-07
-0.000138145
-1.33954e-07
-0.000138088
3.49636e-10
-0.000137786
2.27627e-08
-0.000137302
3.04591e-08
-0.000137079
1.18139e-08
-0.000137111
-3.62718e-08
-0.000137212
-1.6089e-07
-0.00013731
-2.54507e-07
-0.000137147
-5.11626e-07
-0.000136478
-7.17997e-07
-0.000135559
-1.06037e-06
-0.000134348
-1.83349e-06
-2.2908e-06
-0.000124099
3.32515e-07
-0.000124266
4.13874e-07
-0.000124427
4.34526e-07
-0.000124582
4.07536e-07
-0.000124744
4.18442e-07
-0.000124911
4.44007e-07
-0.000125056
4.10652e-07
-0.000125228
4.50462e-07
-0.000125392
4.32802e-07
-0.000125551
4.28139e-07
-0.000125728
4.54483e-07
-0.000125894
4.43358e-07
-0.000126055
4.45634e-07
-0.000126231
4.53869e-07
-0.000126403
4.59991e-07
-0.000126576
4.56102e-07
-0.000126749
4.60017e-07
-0.000126919
4.6112e-07
-0.000127091
4.60313e-07
-0.000127287
4.72273e-07
-0.000127458
4.63781e-07
-0.000127641
4.58972e-07
-0.000127837
4.72261e-07
-0.000128031
4.73972e-07
-0.000128215
4.56774e-07
-0.000128424
4.66047e-07
-0.00012862
4.65882e-07
-0.000128816
4.47212e-07
-0.000129022
4.61349e-07
-0.000129227
4.55042e-07
-0.000129429
4.51044e-07
-0.000129629
4.3957e-07
-0.000129832
4.50032e-07
-0.000130052
4.54981e-07
-0.00013027
4.53839e-07
-0.000130478
4.42425e-07
-0.000130687
4.62721e-07
-0.000130883
4.6512e-07
-0.000131103
4.43258e-07
-0.000131328
4.69019e-07
-0.000131552
4.53315e-07
-0.000131771
4.70536e-07
-0.000132
4.59254e-07
-0.000132227
4.86333e-07
-0.000132456
4.68254e-07
-0.000132681
4.85792e-07
-0.000132908
4.91132e-07
-0.00013314
4.92581e-07
-0.000133382
4.91628e-07
-0.000133626
4.85023e-07
-0.000133869
4.79338e-07
-0.000134124
4.81157e-07
-0.000134376
4.76482e-07
-0.000134625
4.8074e-07
-0.000134875
4.81443e-07
-0.000135127
4.5985e-07
-0.000135372
4.84934e-07
-0.000135633
4.65261e-07
-0.000135894
4.78286e-07
-0.000136153
4.62752e-07
-0.000136409
4.87632e-07
-0.000136682
4.61965e-07
-0.000136937
4.71079e-07
-0.000137205
4.85205e-07
-0.000137475
4.6856e-07
-0.000137743
4.64966e-07
-0.000138023
4.69308e-07
-0.000138303
4.78577e-07
-0.00013858
4.67078e-07
-0.00013886
4.59051e-07
-0.000139139
4.56749e-07
-0.000139429
4.7112e-07
-0.000139717
4.5211e-07
-0.000139988
4.51794e-07
-0.000140293
4.56717e-07
-0.000140596
4.38257e-07
-0.000140908
4.38143e-07
-0.000141218
4.46607e-07
-0.000141465
4.37221e-07
-0.000141568
4.0908e-07
-0.000141479
3.59557e-07
-0.000140257
3.66167e-07
-0.00013908
6.54282e-08
-0.000138529
-2.43414e-07
-0.000138292
-1.54183e-07
-0.000138215
-1.28226e-07
-0.000138237
-6.98952e-08
-0.000138263
-4.45088e-08
-0.000138097
-6.11165e-08
-0.000137648
-5.19296e-08
-0.000137128
-1.83135e-07
-0.000136687
-3.43519e-07
-0.000136387
-6.10507e-07
-0.000135954
-1.03078e-06
-0.00013527
-1.45018e-06
-0.000134222
-1.91078e-06
-0.000133144
-2.34298e-06
-0.000132703
-2.9101e-06
-3.19345e-06
-0.000123722
2.55924e-07
-0.000123886
3.35335e-07
-0.000124053
3.68512e-07
-0.000124242
3.71422e-07
-0.000124411
3.67084e-07
-0.000124594
4.1339e-07
-0.000124768
3.80424e-07
-0.000124938
4.24383e-07
-0.000125111
4.17459e-07
-0.000125306
4.37974e-07
-0.000125475
4.46776e-07
-0.000125666
4.63996e-07
-0.000125844
4.59813e-07
-0.000126034
4.86867e-07
-0.000126209
4.85307e-07
-0.000126395
4.99919e-07
-0.000126578
5.07244e-07
-0.000126773
5.26885e-07
-0.000126967
5.28528e-07
-0.000127148
5.34035e-07
-0.00012734
5.40826e-07
-0.000127543
5.54527e-07
-0.000127731
5.60073e-07
-0.000127916
5.66455e-07
-0.000128126
5.80595e-07
-0.000128309
5.72481e-07
-0.000128502
5.91378e-07
-0.000128721
6.07316e-07
-0.000128911
6.00424e-07
-0.000129112
6.1438e-07
-0.00012931
6.18945e-07
-0.000129521
6.24281e-07
-0.000129723
6.27885e-07
-0.000129926
6.35018e-07
-0.00013014
6.51436e-07
-0.00013036
6.56176e-07
-0.000130562
6.61436e-07
-0.000130764
6.6347e-07
-0.000130988
6.63503e-07
-0.000131211
6.91151e-07
-0.000131432
6.78613e-07
-0.000131647
6.97004e-07
-0.000131872
6.99821e-07
-0.000132081
7.08332e-07
-0.000132308
7.03709e-07
-0.000132548
7.28799e-07
-0.000132772
7.23736e-07
-0.000133008
7.50515e-07
-0.000133244
7.61073e-07
-0.000133483
7.65699e-07
-0.000133723
7.71629e-07
-0.000133961
7.82747e-07
-0.000134213
8.02294e-07
-0.000134451
7.97131e-07
-0.000134701
8.14966e-07
-0.000134969
8.14787e-07
-0.000135218
8.24221e-07
-0.000135481
8.20303e-07
-0.000135744
8.34905e-07
-0.000136006
8.21279e-07
-0.000136266
8.42179e-07
-0.000136541
8.35112e-07
-0.000136814
8.43011e-07
-0.000137071
8.42799e-07
-0.000137343
8.41494e-07
-0.000137629
8.55758e-07
-0.000137912
8.59063e-07
-0.000138181
8.58531e-07
-0.000138461
8.61463e-07
-0.000138743
8.57731e-07
-0.00013904
8.7393e-07
-0.000139306
8.6213e-07
-0.000139598
8.76581e-07
-0.0001399
8.92939e-07
-0.000140179
8.75112e-07
-0.000140501
8.9114e-07
-0.000140838
8.99673e-07
-0.000141145
9.05526e-07
-0.000141397
9.21923e-07
-0.000141553
9.16239e-07
-0.000141606
8.76916e-07
-0.000141102
8.82613e-07
-0.000139331
7.15413e-07
-0.000138517
2.23683e-07
-0.000138368
6.25601e-08
-0.000138376
-5.21362e-08
-0.000138475
-1.16666e-07
-0.000138505
-1.88311e-07
-0.000138291
-1.48081e-07
-0.000137813
-1.46307e-07
-0.000137372
-2.80067e-07
-0.000136986
-5.78748e-07
-0.000136597
-1.03533e-06
-0.000136175
-1.61254e-06
-0.000135667
-2.09995e-06
-0.000134991
-2.61419e-06
-0.000134244
-3.20507e-06
-0.00013364
-4.23121e-06
-5.03826e-06
-0.000123363
1.71717e-07
-0.000123548
2.83527e-07
-0.000123711
3.02033e-07
-0.000123897
3.19873e-07
-0.000124057
2.99742e-07
-0.000124235
3.67031e-07
-0.000124429
3.51542e-07
-0.000124603
3.82716e-07
-0.000124794
3.94563e-07
-0.000124969
4.03626e-07
-0.000125169
4.41713e-07
-0.000125344
4.38428e-07
-0.000125541
4.61927e-07
-0.000125725
4.80885e-07
-0.000125933
5.0862e-07
-0.000126114
5.0481e-07
-0.000126319
5.42244e-07
-0.000126508
5.54382e-07
-0.000126698
5.64003e-07
-0.0001269
5.88321e-07
-0.000127112
6.12748e-07
-0.000127312
6.23047e-07
-0.000127508
6.34585e-07
-0.000127714
6.58915e-07
-0.000127907
6.68758e-07
-0.000128124
6.93276e-07
-0.000128327
7.05902e-07
-0.000128531
7.30369e-07
-0.000128747
7.42306e-07
-0.000128963
7.64536e-07
-0.000129165
7.64241e-07
-0.000129391
8.00683e-07
-0.00012962
8.09903e-07
-0.000129858
8.21521e-07
-0.00013009
8.32822e-07
-0.000130334
8.62691e-07
-0.000130565
8.74434e-07
-0.0001308
8.90695e-07
-0.000131036
8.91066e-07
-0.000131261
8.98986e-07
-0.000131515
9.13169e-07
-0.000131749
9.21687e-07
-0.000131986
9.40765e-07
-0.000132218
9.45676e-07
-0.000132459
9.38475e-07
-0.000132701
9.54585e-07
-0.000132946
9.66108e-07
-0.000133169
9.8618e-07
-0.000133393
1.00509e-06
-0.000133635
1.03343e-06
-0.000133891
1.06506e-06
-0.000134147
1.08569e-06
-0.000134392
1.10397e-06
-0.00013465
1.1218e-06
-0.000134906
1.14927e-06
-0.000135165
1.16065e-06
-0.000135423
1.17783e-06
-0.000135695
1.19844e-06
-0.000135952
1.20917e-06
-0.000136236
1.23258e-06
-0.000136506
1.24643e-06
-0.000136778
1.25129e-06
-0.000137061
1.28106e-06
-0.000137343
1.28976e-06
-0.00013764
1.31376e-06
-0.000137923
1.32413e-06
-0.000138205
1.33769e-06
-0.000138486
1.34885e-06
-0.000138793
1.39029e-06
-0.000139086
1.38582e-06
-0.000139381
1.4143e-06
-0.000139689
1.42774e-06
-0.000139994
1.45534e-06
-0.000140279
1.46923e-06
-0.000140594
1.49193e-06
-0.000140916
1.50779e-06
-0.000141274
1.54513e-06
-0.000141625
1.57431e-06
-0.000141897
1.60321e-06
-0.000142078
1.62606e-06
-0.000142182
1.61627e-06
-0.000142078
1.56102e-06
-0.000140599
1.47524e-06
-0.000139334
1.02376e-06
-0.000139019
5.16944e-07
-0.000138972
2.20472e-07
-0.000138905
2.09877e-08
-0.000138767
-8.98264e-08
-0.00013834
-1.77879e-07
-0.000137831
-2.29561e-07
-0.000137348
-4.6356e-07
-0.000136929
-8.64763e-07
-0.000136558
-1.35995e-06
-0.000136301
-1.89594e-06
-0.000136049
-2.45553e-06
-0.000135751
-3.11069e-06
-0.000135381
-3.93081e-06
-0.000134889
-5.45881e-06
-8.24438e-06
-0.000123273
1.89649e-07
-0.000123455
3.4603e-07
-0.000123601
3.15581e-07
-0.000123787
3.86501e-07
-0.000123961
3.5329e-07
-0.000124131
4.19912e-07
-0.000124309
4.16699e-07
-0.000124479
4.4129e-07
-0.000124666
4.6946e-07
-0.00012485
4.81193e-07
-0.000125021
5.05279e-07
-0.000125215
5.27171e-07
-0.000125396
5.37778e-07
-0.000125591
5.71648e-07
-0.00012577
5.84566e-07
-0.000125975
6.07414e-07
-0.000126153
6.1927e-07
-0.000126354
6.55739e-07
-0.000126555
6.6643e-07
-0.000126757
6.90938e-07
-0.000126944
7.0215e-07
-0.000127144
7.26771e-07
-0.000127356
7.51617e-07
-0.000127567
7.76603e-07
-0.000127779
7.89283e-07
-0.00012799
8.16084e-07
-0.000128201
8.30909e-07
-0.000128413
8.58868e-07
-0.000128639
8.86311e-07
-0.000128851
9.00424e-07
-0.000129087
9.29883e-07
-0.000129305
9.56934e-07
-0.000129521
9.69307e-07
-0.000129755
9.95806e-07
-0.000129998
1.01198e-06
-0.000130245
1.04979e-06
-0.000130495
1.08689e-06
-0.000130712
1.10209e-06
-0.000130934
1.12032e-06
-0.000131159
1.12191e-06
-0.00013139
1.13755e-06
-0.000131633
1.16169e-06
-0.000131865
1.1687e-06
-0.000132102
1.17938e-06
-0.000132374
1.22087e-06
-0.000132618
1.2268e-06
-0.000132887
1.27145e-06
-0.000133153
1.28597e-06
-0.000133415
1.29981e-06
-0.000133676
1.32561e-06
-0.000133936
1.35451e-06
-0.000134194
1.3687e-06
-0.00013445
1.38284e-06
-0.000134732
1.42585e-06
-0.000134983
1.42537e-06
-0.000135261
1.46757e-06
-0.000135536
1.48543e-06
-0.000135799
1.49822e-06
-0.000136075
1.53168e-06
-0.000136351
1.56545e-06
-0.000136625
1.58818e-06
-0.000136916
1.6165e-06
-0.000137191
1.63725e-06
-0.000137479
1.66578e-06
-0.000137767
1.69667e-06
-0.000138053
1.71326e-06
-0.000138353
1.74475e-06
-0.000138653
1.76017e-06
-0.000138938
1.79225e-06
-0.000139251
1.82152e-06
-0.00013955
1.8404e-06
-0.000139861
1.87071e-06
-0.00014017
1.9012e-06
-0.000140472
1.91702e-06
-0.000140774
1.94175e-06
-0.00014109
1.9569e-06
-0.000141432
1.9909e-06
-0.000141795
2.03203e-06
-0.000142123
2.07627e-06
-0.000142349
2.08947e-06
-0.000142481
2.08908e-06
-0.000142526
2.03038e-06
-0.000142026
1.96217e-06
-0.000140524
1.72915e-06
-0.000139686
1.28974e-06
-0.000139366
9.12566e-07
-0.000139204
6.51534e-07
-0.000138973
3.53312e-07
-0.000138625
2.83364e-09
-0.000138233
-3.3415e-07
-0.000137816
-7.17245e-07
-0.000137379
-1.18583e-06
-0.000136962
-1.71012e-06
-0.000136624
-2.26381e-06
-0.000136339
-2.95172e-06
-0.000136006
-3.83325e-06
-0.000135503
-5.15959e-06
-0.00013482
-7.4006e-06
-1.08372e-05
-0.000123351
3.48484e-07
-0.000123528
5.08723e-07
-0.000123677
4.55897e-07
-0.000123854
5.48133e-07
-0.000124031
5.09729e-07
-0.000124197
5.69692e-07
-0.000124372
5.66552e-07
-0.00012454
5.83855e-07
-0.000124709
6.08976e-07
-0.000124892
6.31435e-07
-0.000125072
6.48837e-07
-0.000125251
6.67989e-07
-0.000125441
6.8649e-07
-0.000125619
7.05357e-07
-0.000125808
7.25827e-07
-0.000125997
7.45577e-07
-0.000126197
7.66603e-07
-0.000126383
7.86882e-07
-0.000126569
7.95159e-07
-0.000126766
8.29505e-07
-0.000126964
8.39617e-07
-0.000127173
8.74593e-07
-0.000127369
8.86826e-07
-0.000127565
9.10273e-07
-0.000127773
9.35854e-07
-0.000127981
9.6437e-07
-0.000128201
9.92072e-07
-0.000128409
1.00831e-06
-0.00012863
1.05065e-06
-0.000128852
1.06783e-06
-0.000129071
1.1001e-06
-0.000129286
1.13038e-06
-0.00012951
1.15939e-06
-0.000129719
1.17394e-06
-0.000129961
1.21661e-06
-0.000130203
1.23993e-06
-0.000130458
1.2825e-06
-0.000130708
1.31411e-06
-0.000130948
1.36726e-06
-0.000131166
1.38087e-06
-0.000131384
1.39652e-06
-0.000131616
1.41797e-06
-0.000131882
1.45085e-06
-0.000132159
1.48613e-06
-0.000132423
1.54204e-06
-0.000132703
1.60113e-06
-0.000132971
1.63228e-06
-0.000133237
1.6397e-06
-0.000133525
1.66967e-06
-0.000133792
1.67301e-06
-0.000134043
1.67335e-06
-0.000134318
1.69646e-06
-0.000134591
1.69589e-06
-0.000134849
1.70798e-06
-0.000135132
1.71848e-06
-0.0001354
1.7374e-06
-0.000135667
1.74247e-06
-0.000135946
1.76135e-06
-0.000136225
1.78489e-06
-0.000136502
1.80823e-06
-0.000136778
1.81724e-06
-0.000137068
1.85631e-06
-0.000137356
1.87152e-06
-0.000137645
1.89622e-06
-0.000137918
1.90868e-06
-0.000138218
1.95017e-06
-0.000138503
1.96345e-06
-0.000138803
1.99009e-06
-0.0001391
2.01705e-06
-0.000139397
2.04247e-06
-0.000139692
2.05626e-06
-0.000140003
2.09755e-06
-0.000140299
2.11053e-06
-0.000140602
2.13632e-06
-0.000140901
2.16018e-06
-0.000141216
2.18425e-06
-0.000141551
2.21014e-06
-0.000141903
2.23193e-06
-0.000142267
2.28847e-06
-0.000142561
2.31009e-06
-0.000142759
2.33028e-06
-0.000142867
2.28164e-06
-0.000142803
2.19749e-06
-0.00014186
2.08104e-06
-0.000140624
1.85233e-06
-0.000139941
1.39141e-06
-0.000139513
9.3677e-07
-0.000139165
4.88158e-07
-0.000138843
4.8166e-08
-0.000138496
-4.73114e-07
-0.000138095
-9.6203e-07
-0.000137668
-1.46101e-06
-0.00013727
-2.10067e-06
-0.00013686
-2.8567e-06
-0.000136367
-3.83182e-06
-0.000135779
-5.1355e-06
-0.000135126
-7.04649e-06
-0.000134496
-9.63464e-06
-1.20281e-05
-0.000123308
5.49094e-07
-0.000123484
7.27016e-07
-0.000123652
6.61605e-07
-0.000123808
7.42126e-07
-0.000123987
7.26815e-07
-0.00012414
7.56272e-07
-0.000124314
7.72904e-07
-0.000124506
8.05761e-07
-0.000124676
8.0703e-07
-0.000124856
8.38071e-07
-0.000125038
8.55479e-07
-0.000125217
8.72071e-07
-0.000125395
8.89751e-07
-0.000125586
9.21588e-07
-0.000125777
9.41157e-07
-0.000125968
9.61298e-07
-0.000126157
9.81728e-07
-0.000126346
1.00248e-06
-0.000126548
1.02413e-06
-0.000126736
1.04628e-06
-0.00012695
1.08197e-06
-0.000127138
1.09247e-06
-0.00012735
1.13023e-06
-0.000127563
1.15397e-06
-0.000127775
1.17954e-06
-0.000127985
1.20608e-06
-0.000128194
1.23118e-06
-0.000128415
1.25759e-06
-0.000128623
1.28358e-06
-0.000128844
1.31073e-06
-0.000129063
1.33884e-06
-0.00012928
1.3663e-06
-0.000129489
1.39196e-06
-0.000129717
1.42786e-06
-0.00012992
1.43659e-06
-0.000130144
1.46105e-06
-0.000130385
1.49222e-06
-0.000130668
1.54738e-06
-0.000130929
1.58369e-06
-0.00013119
1.63144e-06
-0.00013143
1.67305e-06
-0.000131663
1.71116e-06
-0.000131899
1.75635e-06
-0.000132156
1.82263e-06
-0.000132381
1.84107e-06
-0.000132606
1.873e-06
-0.000132832
1.88138e-06
-0.000133074
1.89233e-06
-0.000133305
1.9061e-06
-0.000133552
1.92374e-06
-0.000133813
1.94462e-06
-0.000134061
1.96572e-06
-0.000134323
1.988e-06
-0.000134586
2.01091e-06
-0.00013485
2.03137e-06
-0.0001351
2.0506e-06
-0.000135378
2.09331e-06
-0.000135654
2.12247e-06
-0.00013593
2.15354e-06
-0.000136206
2.18383e-06
-0.000136495
2.21427e-06
-0.000136754
2.22905e-06
-0.000137041
2.27367e-06
-0.000137327
2.30153e-06
-0.000137627
2.32998e-06
-0.000137899
2.34561e-06
-0.000138198
2.38779e-06
-0.000138495
2.41566e-06
-0.000138791
2.44378e-06
-0.000139088
2.47071e-06
-0.000139399
2.49847e-06
-0.000139697
2.52604e-06
-0.000140008
2.55413e-06
-0.000140315
2.58014e-06
-0.000140615
2.6057e-06
-0.000140915
2.62899e-06
-0.000141231
2.65179e-06
-0.000141607
2.69781e-06
-0.000141969
2.72509e-06
-0.00014231
2.78389e-06
-0.000142526
2.80648e-06
-0.000142647
2.78894e-06
-0.000142655
2.70385e-06
-0.000142065
2.48905e-06
-0.000141036
2.10373e-06
-0.000140311
1.46733e-06
-0.000139832
8.79305e-07
-0.000139452
3.34009e-07
-0.00013911
-1.38696e-07
-0.000138683
-6.94221e-07
-0.000138132
-1.38621e-06
-0.000137615
-2.11254e-06
-0.000137192
-2.91398e-06
-0.000136729
-3.9316e-06
-0.000136118
-5.33483e-06
-0.000135403
-7.12926e-06
-0.000134688
-9.28593e-06
-0.000134284
-1.12282e-05
-1.22611e-05
-0.000123973
1.2337e-06
-0.000124131
1.40568e-06
-0.000124272
1.31469e-06
-0.000124409
1.38791e-06
-0.000124556
1.36746e-06
-0.000124715
1.38932e-06
-0.000124866
1.38899e-06
-0.000125013
1.40396e-06
-0.000125174
1.40635e-06
-0.000125322
1.41043e-06
-0.000125481
1.42664e-06
-0.000125653
1.44413e-06
-0.000125811
1.43734e-06
-0.000125982
1.46959e-06
-0.00012614
1.46386e-06
-0.00012631
1.48458e-06
-0.000126479
1.49214e-06
-0.00012666
1.5135e-06
-0.00012684
1.5221e-06
-0.000127021
1.53219e-06
-0.000127188
1.54133e-06
-0.00012738
1.56405e-06
-0.00012756
1.57453e-06
-0.000127752
1.59817e-06
-0.000127929
1.59554e-06
-0.00012812
1.61909e-06
-0.00012831
1.62828e-06
-0.000128513
1.65139e-06
-0.000128716
1.66113e-06
-0.000128921
1.67182e-06
-0.000129128
1.68339e-06
-0.000129336
1.69618e-06
-0.000129552
1.72188e-06
-0.000129748
1.7321e-06
-0.000129951
1.73828e-06
-0.000130154
1.7424e-06
-0.000130381
1.76114e-06
-0.000130607
1.775e-06
-0.000130861
1.79928e-06
-0.000131125
1.83074e-06
-0.000131385
1.85911e-06
-0.000131636
1.88436e-06
-0.000131852
1.87432e-06
-0.000132055
1.88633e-06
-0.000132264
1.88402e-06
-0.000132488
1.90121e-06
-0.000132698
1.88611e-06
-0.000132923
1.89951e-06
-0.000133149
1.90429e-06
-0.000133377
1.9105e-06
-0.000133604
1.92308e-06
-0.000133831
1.9365e-06
-0.000134072
1.96473e-06
-0.000134298
1.9698e-06
-0.000134539
2.00142e-06
-0.000134793
2.02705e-06
-0.000135047
2.05636e-06
-0.000135286
2.05883e-06
-0.000135537
2.08943e-06
-0.000135788
2.1061e-06
-0.000136038
2.12339e-06
-0.000136301
2.13936e-06
-0.000136549
2.15701e-06
-0.00013681
2.18605e-06
-0.000137071
2.20372e-06
-0.000137345
2.22011e-06
-0.000137604
2.23775e-06
-0.000137876
2.2682e-06
-0.000138147
2.28516e-06
-0.000138416
2.30103e-06
-0.000138684
2.31757e-06
-0.000138953
2.33386e-06
-0.000139237
2.36563e-06
-0.000139518
2.38148e-06
-0.000139807
2.41137e-06
-0.000140074
2.40868e-06
-0.000140361
2.4342e-06
-0.000140653
2.4495e-06
-0.000141003
2.4916e-06
-0.00014135
2.53406e-06
-0.000141654
2.57225e-06
-0.000141842
2.56789e-06
-0.000141939
2.49213e-06
-0.000141865
2.30408e-06
-0.000141195
1.95495e-06
-0.000140519
1.19907e-06
-0.00014005
5.33507e-07
-0.000139629
-1.00914e-07
-0.000139104
-7.54237e-07
-0.000138542
-1.48728e-06
-0.00013802
-2.35468e-06
-0.000137505
-3.35384e-06
-0.00013688
-4.50626e-06
-0.000136151
-5.92567e-06
-0.000135419
-7.59864e-06
-0.000134724
-9.3945e-06
-0.000134291
-1.0902e-05
-0.00013422
-1.17965e-05
-1.21797e-05
-0.000124766
2.82361e-06
-0.000124882
2.91397e-06
-0.000125025
2.84335e-06
-0.000125135
2.84007e-06
-0.000125269
2.80439e-06
-0.000125396
2.7835e-06
-0.000125526
2.7469e-06
-0.000125655
2.72499e-06
-0.000125797
2.70463e-06
-0.000125938
2.67047e-06
-0.00012608
2.6506e-06
-0.000126209
2.61929e-06
-0.000126364
2.60132e-06
-0.000126505
2.58431e-06
-0.000126658
2.55492e-06
-0.000126811
2.53829e-06
-0.000126977
2.52314e-06
-0.00012713
2.49476e-06
-0.000127282
2.4669e-06
-0.000127445
2.45262e-06
-0.000127621
2.4377e-06
-0.000127784
2.41139e-06
-0.000127947
2.38429e-06
-0.000128108
2.37118e-06
-0.000128294
2.35756e-06
-0.000128466
2.33105e-06
-0.000128637
2.30363e-06
-0.000128806
2.28984e-06
-0.000128987
2.27559e-06
-0.000129154
2.23529e-06
-0.000129349
2.23468e-06
-0.000129533
2.19603e-06
-0.000129728
2.19919e-06
-0.000129904
2.16187e-06
-0.000130083
2.14754e-06
-0.000130269
2.12724e-06
-0.000130443
2.08936e-06
-0.000130622
2.05202e-06
-0.000130809
2.0181e-06
-0.00013103
2.01611e-06
-0.000131248
1.97489e-06
-0.000131461
1.93494e-06
-0.000131675
1.89461e-06
-0.00013189
1.86515e-06
-0.000132115
1.82825e-06
-0.000132325
1.79322e-06
-0.00013256
1.7778e-06
-0.000132782
1.75236e-06
-0.000133017
1.74381e-06
-0.000133249
1.72123e-06
-0.00013348
1.7002e-06
-0.000133723
1.69263e-06
-0.000133951
1.6725e-06
-0.000134205
1.66665e-06
-0.000134444
1.64691e-06
-0.000134682
1.62708e-06
-0.00013492
1.61396e-06
-0.00013517
1.58688e-06
-0.000135418
1.57267e-06
-0.000135651
1.52958e-06
-0.000135909
1.52645e-06
-0.000136167
1.49494e-06
-0.000136423
1.46321e-06
-0.000136664
1.42852e-06
-0.000136917
1.40768e-06
-0.000137183
1.38543e-06
-0.000137433
1.33336e-06
-0.000137697
1.32347e-06
-0.000137943
1.26871e-06
-0.000138216
1.25472e-06
-0.000138472
1.19626e-06
-0.000138741
1.16327e-06
-0.00013901
1.12937e-06
-0.000139279
1.07928e-06
-0.000139529
1.03024e-06
-0.000139799
9.90479e-07
-0.000140062
9.44647e-07
-0.000140326
8.74716e-07
-0.000140595
8.04524e-07
-0.000140907
7.59358e-07
-0.000141262
7.47287e-07
-0.000141617
7.5261e-07
-0.000141832
7.51572e-07
-0.000141915
6.57425e-07
-0.00014161
5.94646e-07
-0.000140562
1.2158e-07
-0.000139634
-7.98481e-07
-0.000139034
-1.62081e-06
-0.000138537
-2.47013e-06
-0.000137983
-3.40505e-06
-0.00013729
-4.48387e-06
-0.000136561
-5.69333e-06
-0.000135836
-7.03667e-06
-0.000135129
-8.47175e-06
-0.000134527
-9.80514e-06
-0.000134187
-1.08309e-05
-0.000134113
-1.14624e-05
-0.000134211
-1.18006e-05
-1.20498e-05
-0.000127052
5.59553e-06
-0.000127089
5.55584e-06
-0.000127158
5.47126e-06
-0.000127222
5.39294e-06
-0.000127292
5.30333e-06
-0.000127348
5.20595e-06
-0.000127431
5.13337e-06
-0.0001275
5.03647e-06
-0.000127569
4.9531e-06
-0.000127651
4.86983e-06
-0.000127733
4.78672e-06
-0.000127828
4.70414e-06
-0.00012791
4.61005e-06
-0.000128005
4.54111e-06
-0.000128098
4.44667e-06
-0.000128192
4.36532e-06
-0.000128272
4.27102e-06
-0.000128378
4.20297e-06
-0.000128484
4.10913e-06
-0.000128576
4.01489e-06
-0.000128681
3.94615e-06
-0.000128785
3.85192e-06
-0.000128901
3.76982e-06
-0.000129017
3.68798e-06
-0.00012912
3.59315e-06
-0.000129235
3.51034e-06
-0.000129362
3.42761e-06
-0.000129475
3.33105e-06
-0.0001296
3.25999e-06
-0.000129723
3.14853e-06
-0.000129847
3.07529e-06
-0.000129986
2.97568e-06
-0.0001301
2.8771e-06
-0.000130252
2.8064e-06
-0.000130372
2.69504e-06
-0.000130495
2.61871e-06
-0.000130611
2.50928e-06
-0.000130738
2.40666e-06
-0.000130865
2.28635e-06
-0.000130976
2.17651e-06
-0.000131115
2.06614e-06
-0.000131255
1.92862e-06
-0.00013141
1.81518e-06
-0.000131546
1.70638e-06
-0.000131696
1.61584e-06
-0.000131859
1.52869e-06
-0.000132011
1.42994e-06
-0.000132174
1.34335e-06
-0.000132336
1.25419e-06
-0.000132496
1.14826e-06
-0.000132655
1.03915e-06
-0.000132812
9.41399e-07
-0.00013298
8.39938e-07
-0.000133133
7.21658e-07
-0.000133297
6.13921e-07
-0.000133472
5.02814e-07
-0.000133632
3.75048e-07
-0.000133805
2.58602e-07
-0.000133961
1.26315e-07
-0.000134141
4.19351e-09
-0.000134306
-1.20952e-07
-0.000134469
-2.62655e-07
-0.000134643
-3.9338e-07
-0.000134815
-5.4063e-07
-0.000134997
-6.64278e-07
-0.000135149
-8.32563e-07
-0.000135341
-9.63201e-07
-0.000135502
-1.12416e-06
-0.000135675
-1.2882e-06
-0.000135845
-1.42747e-06
-0.000136011
-1.61227e-06
-0.000136187
-1.76001e-06
-0.000136347
-1.93966e-06
-0.000136521
-2.10856e-06
-0.000136706
-2.27989e-06
-0.000136873
-2.46643e-06
-0.000137028
-2.64506e-06
-0.000137184
-2.83523e-06
-0.000137338
-3.05083e-06
-0.00013752
-3.2463e-06
-0.000137722
-3.45853e-06
-0.000137977
-3.63623e-06
-0.000138326
-3.72808e-06
-0.000138708
-3.78109e-06
-0.000138813
-3.80395e-06
-0.00013874
-3.80381e-06
-0.000138113
-4.14527e-06
-0.000137392
-4.94514e-06
-0.000136787
-5.80136e-06
-0.000136209
-6.66927e-06
-0.000135612
-7.58281e-06
-0.000135013
-8.5347e-06
-0.00013448
-9.46084e-06
-0.000134129
-1.02138e-05
-0.000133964
-1.07862e-05
-0.000133971
-1.11604e-05
-0.00013408
-1.14338e-05
-0.000134211
-1.16773e-05
-1.19168e-05
-0.000130256
9.17839e-06
-0.000130213
9.00897e-06
-0.000130196
8.85532e-06
-0.000130186
8.69949e-06
-0.000130165
8.51902e-06
-0.000130169
8.36478e-06
-0.00013016
8.19763e-06
-0.000130151
8.01732e-06
-0.000130155
7.86309e-06
-0.000130158
7.69559e-06
-0.000130162
7.52799e-06
-0.000130165
7.36011e-06
-0.000130167
7.17851e-06
-0.000130169
7.02283e-06
-0.000130183
6.85396e-06
-0.000130197
6.68452e-06
-0.000130223
6.51468e-06
-0.000130223
6.33102e-06
-0.000130248
6.17328e-06
-0.000130285
6.00177e-06
-0.000130296
5.81656e-06
-0.000130331
5.65676e-06
-0.000130353
5.46993e-06
-0.000130387
5.30857e-06
-0.000130421
5.12038e-06
-0.000130453
4.94436e-06
-0.000130485
4.76781e-06
-0.000130528
4.59035e-06
-0.000130544
4.3986e-06
-0.000130597
4.23225e-06
-0.000130622
4.0377e-06
-0.000130673
3.86838e-06
-0.000130725
3.6716e-06
-0.000130765
3.48807e-06
-0.00013083
3.30524e-06
-0.000130864
3.10838e-06
-0.000130916
2.9353e-06
-0.000130949
2.73072e-06
-0.000130991
2.53406e-06
-0.000131031
2.33319e-06
-0.000131066
2.1293e-06
-0.000131115
1.92798e-06
-0.000131166
1.70359e-06
-0.000131237
1.50468e-06
-0.000131307
1.31135e-06
-0.000131374
1.11869e-06
-0.000131439
9.11797e-07
-0.000131514
7.29195e-07
-0.000131572
5.168e-07
-0.000131641
3.15047e-07
-0.00013172
1.10853e-07
-0.000131784
-1.0898e-07
-0.000131858
-3.04313e-07
-0.00013193
-5.28523e-07
-0.000132
-7.41325e-07
-0.000132066
-9.56259e-07
-0.000132144
-1.17332e-06
-0.000132206
-1.40558e-06
-0.000132279
-1.62615e-06
-0.00013235
-1.84844e-06
-0.000132418
-2.07241e-06
-0.000132497
-2.29825e-06
-0.000132561
-2.5389e-06
-0.00013265
-2.75433e-06
-0.000132708
-2.99818e-06
-0.000132792
-3.2303e-06
-0.000132859
-3.46408e-06
-0.000132924
-3.71262e-06
-0.000133015
-3.93572e-06
-0.000133076
-4.1868e-06
-0.000133175
-4.41251e-06
-0.000133245
-4.66614e-06
-0.000133325
-4.90795e-06
-0.000133404
-5.15096e-06
-0.000133482
-5.39504e-06
-0.000133558
-5.65296e-06
-0.000133644
-5.88466e-06
-0.000133709
-6.14413e-06
-0.000133797
-6.38027e-06
-0.000133849
-6.64708e-06
-0.00013393
-6.90283e-06
-0.00013405
-7.14193e-06
-0.000134177
-7.39834e-06
-0.000134388
-7.62013e-06
-0.000134684
-7.80466e-06
-0.000134865
-7.94988e-06
-0.000134921
-8.07493e-06
-0.000134701
-8.31914e-06
-0.000134406
-8.70283e-06
-0.000134156
-9.13079e-06
-0.000133941
-9.54863e-06
-0.000133789
-9.92431e-06
-0.000133724
-1.02814e-05
-0.000133735
-1.05753e-05
-0.000133833
-1.08212e-05
-0.000133946
-1.10784e-05
-0.000134078
-1.1305e-05
-0.000134211
-1.15444e-05
-1.17838e-05
-0.000133165
1.13095e-05
-0.000133059
1.10795e-05
-0.000132975
1.08687e-05
-0.000132876
1.06408e-05
-0.00013279
1.04136e-05
-0.000132705
1.01995e-05
-0.000132606
9.95862e-06
-0.000132532
9.74417e-06
-0.000132459
9.52959e-06
-0.000132372
9.28833e-06
-0.000132298
9.07339e-06
-0.000132224
8.84498e-06
-0.000132162
8.61634e-06
-0.0001321
8.40071e-06
-0.000132024
8.15837e-06
-0.000131961
7.94231e-06
-0.000131898
7.7128e-06
-0.000131847
7.48302e-06
-0.000131796
7.26626e-06
-0.000131731
7.02269e-06
-0.000131692
6.80546e-06
-0.000131626
6.56134e-06
-0.000131585
6.34353e-06
-0.000131531
6.11211e-06
-0.00013149
5.88046e-06
-0.000131448
5.64851e-06
-0.000131418
5.42966e-06
-0.000131375
5.18395e-06
-0.000131345
4.95124e-06
-0.000131313
4.73156e-06
-0.000131281
4.48497e-06
-0.000131248
4.26458e-06
-0.000131228
4.03052e-06
-0.000131194
3.78292e-06
-0.000131174
3.56192e-06
-0.000131167
3.32776e-06
-0.000131132
3.08019e-06
-0.000131121
2.85868e-06
-0.000131106
2.62297e-06
-0.000131091
2.3863e-06
-0.000131076
2.14893e-06
-0.000131059
1.9109e-06
-0.000131056
1.6755e-06
-0.000131056
1.43799e-06
-0.000131057
1.20113e-06
-0.000131057
9.64503e-07
-0.00013107
7.27744e-07
-0.000131068
4.90696e-07
-0.000131078
2.53306e-07
-0.000131087
1.56347e-08
-0.000131096
-2.22308e-07
-0.000131116
-4.60513e-07
-0.000131123
-6.9893e-07
-0.000131142
-9.37552e-07
-0.000131161
-1.17633e-06
-0.000131179
-1.41526e-06
-0.000131196
-1.65434e-06
-0.000131226
-1.89357e-06
-0.000131256
-2.13292e-06
-0.000131285
-2.37236e-06
-0.000131314
-2.6119e-06
-0.000131341
-2.85151e-06
-0.000131395
-3.07791e-06
-0.000131422
-3.33097e-06
-0.000131462
-3.57077e-06
-0.000131515
-3.79735e-06
-0.000131555
-4.05057e-06
-0.000131607
-4.29054e-06
-0.000131659
-4.51723e-06
-0.00013171
-4.77056e-06
-0.000131762
-4.9973e-06
-0.000131826
-5.23735e-06
-0.000131877
-5.49071e-06
-0.000131941
-5.71748e-06
-0.000132005
-5.95757e-06
-0.000132082
-6.19766e-06
-0.000132145
-6.4377e-06
-0.000132235
-6.66443e-06
-0.000132298
-6.91776e-06
-0.000132386
-7.14456e-06
-0.000132461
-7.39808e-06
-0.000132536
-7.62501e-06
-0.000132629
-7.86508e-06
-0.000132725
-8.1048e-06
-0.000132849
-8.33046e-06
-0.000132976
-8.58099e-06
-0.000133087
-8.80291e-06
-0.000133188
-9.03806e-06
-0.000133249
-9.2771e-06
-0.000133318
-9.50953e-06
-0.000133387