/*--------------------------------*- C++ -*----------------------------------*\
  =========                 |
  \\      /  F ield         | OpenFOAM: The Open Source CFD Toolbox
   \\    /   O peration     | Website:  https://openfoam.org
    \\  /    A nd           | Version:  12
     \\/     M anipulation  |
\*---------------------------------------------------------------------------*/
FoamFile
{
    format      ascii;
    class       volScalarField;
    location    "5.775";
    object      T;
}
// * * * * * * * * * * * * * * * * * * * * * * * * * * * * * * * * * * * * * //

dimensions      [0 0 0 1 0 0 0];

internalField   nonuniform List<scalar> 
46253
(
0.985264
1.01785
1.05078
1.01768
1.04896
1.04789
0.929567
0.973193
1.01676
1.01663
0.986048
0.907382
1.01099
1.01133
0.993885
1.01608
1.01586
1.01289
1.0132
1.01475
1.01469
1.04817
0.983459
0.982455
0.96366
1.01725
1.01528
1.01521
1.01723
0.973601
0.994394
1.00907
1.00894
1.01407
1.01382
1.03335
1.01203
1.01201
0.995142
0.9821
0.944953
0.9044
1.0094
1.00956
0.902219
1.01238
1.01249
0.994752
1.00693
1.0068
1.00652
1.00657
1.04416
0.966126
1.05399
0.940304
1.00476
1.00444
1.02217
0.991863
1.03205
0.999575
1.03047
0.986092
0.993665
1.01022
1.00986
1.04648
0.938585
0.900692
0.924921
1.00383
1.00373
1.00539
1.0442
0.981381
0.99919
0.998977
0.982596
1.00818
1.00765
1.00237
1.04429
1.00219
0.982102
1.04194
0.993953
0.993567
0.946851
1.01924
0.9934
0.971878
1.04224
1.00589
0.988053
1.00563
1.04254
0.987346
1.02072
1.02635
0.979567
1.04179
1.04178
0.993774
1.05392
0.9653
0.90791
0.987205
0.987017
0.919685
0.983465
1.00322
1.00301
0.989342
0.9835
0.949253
0.90673
0.975113
1.05518
0.940732
0.978233
1.04808
1.00153
1.00133
1.04038
1.05568
1.03178
0.937572
1.05713
0.998165
0.981688
0.9813
1.04798
0.944884
0.997889
0.973721
0.996062
0.995544
0.937068
0.986167
0.999808
0.979038
0.978616
0.99403
1.00003
1.05528
0.99447
0.994625
0.998389
1.01959
0.919484
1.0443
0.997302
0.996921
0.982407
0.899482
0.936867
1.02765
0.991129
1.05337
0.991048
0.918915
0.941437
0.984423
0.957183
0.994801
0.938101
0.994769
1.08216
1.033
0.990083
0.989654
1.04737
0.907555
1.05244
0.892258
0.918782
1.04231
1.00321
0.90684
1.05274
0.982908
0.987387
0.987488
1.02592
0.992423
0.991787
0.904378
1.02589
1.02576
1.04443
1.02323
0.962549
1.02313
1.02592
1.0258
0.987294
1.03881
0.958032
0.95686
0.986072
1.03282
0.990797
0.99081
1.02381
0.901646
0.983302
0.98475
0.984502
1.0356
0.984847
1.05564
0.905769
1.04147
0.910641
1.03958
0.99233
0.991526
0.983028
1.04748
1.04501
0.982708
0.890798
0.98843
0.988051
0.987812
1.04012
1.04036
0.954668
0.954247
1.01119
0.977816
1.01799
1.01997
1.04072
0.992907
1.02566
0.98423
1.01038
1.01296
1.04087
1.04088
1.0386
1.02586
0.979436
1.04296
1.0285
0.983812
1.03821
0.979895
0.97974
1.01193
0.949853
1.03874
0.949441
0.986114
0.985476
0.941883
0.936504
1.03871
0.945506
0.955965
0.919062
0.994368
0.961655
1.0304
0.984039
0.989475
0.983891
0.97684
0.983902
1.04003
1.02142
1.30093
0.976603
1.04056
1.0544
1.03537
0.96358
0.94688
0.945416
0.945179
1.04321
1.04114
0.986532
0.921294
1.01919
0.942134
0.987922
1.03492
1.01846
1.01821
0.964242
1.03473
1.01761
1.00341
1.04072
1.00238
0.950435
0.974674
1.05333
0.974424
0.935404
1.05215
1.02438
0.980652
0.980525
1.03409
0.993215
1.02586
1.02573
0.921307
0.983717
0.97298
1.03891
0.972918
0.933353
1.01801
1.02556
0.961895
0.930949
1.03886
0.929124
0.968055
1.01901
0.988182
1.03916
1.0395
0.970142
0.969457
0.9987
0.995645
1.02451
0.969652
1.03853
0.999751
0.941836
0.977821
0.977468
1.0308
1.04389
1.04441
0.981661
1.05502
1.04053
0.968579
0.969706
0.984101
0.93607
1.04188
0.984096
1.02455
0.904032
0.995555
0.929771
1.03982
0.975833
1.0314
0.975576
1.01881
0.930144
1.02447
1.03953
1.02459
1.02558
1.03965
1.03966
1.03977
0.967396
1.03995
1.03922
1.03916
1.0392
0.965071
1.03943
1.0165
0.936704
1.04021
1.03967
1.03257
0.966567
0.932004
0.935336
0.973647
0.969552
0.973569
1.04099
0.971396
0.96237
1.06112
1.02605
0.988338
0.964771
1.04358
1.03993
0.970626
0.977123
0.97936
1.0392
0.965946
1.00449
0.992355
0.994554
1.01542
1.03998
1.03137
1.02536
1.02004
0.96645
1.03816
1.03747
1.02529
1.04658
1.02593
0.96185
1.03158
0.963465
1.03933
1.03736
0.942003
1.03169
1.03287
0.964786
1.0271
0.972111
1.02683
1.03377
0.961682
0.971808
1.02421
0.918208
1.03429
1.00217
1.02595
1.02601
0.965975
0.962095
1.02559
1.02551
0.967274
0.932679
1.03284
1.02911
1.02421
0.965751
0.983593
1.02327
1.03883
0.94185
1.02919
0.947247
0.965639
1.00313
0.969958
1.19391
1.03032
0.964274
1.03044
0.968693
0.959005
1.03884
0.962218
0.962546
0.968064
1.0397
0.964482
1.04222
1.03052
1.0311
1.03929
1.03071
0.917131
0.992103
0.964234
0.937821
0.961061
0.946611
0.982648
0.96166
1.00185
0.985769
0.988388
1.03286
1.04053
1.03943
1.02741
1.05834
1.0294
0.950426
0.974101
0.906479
0.950928
0.956255
0.970305
0.954347
1.18612
1.03968
0.969161
0.958947
0.914617
0.969568
0.956084
0.955312
0.986371
0.931143
1.03964
0.985692
0.994483
1.01928
0.969173
1.03895
0.953731
1.03191
0.968503
0.994957
1.02495
1.02595
0.968032
1.03795
0.988171
0.985484
1.03661
0.971193
1.0384
1.03922
0.971366
1.03953
0.970851
0.967861
0.970997
0.983148
0.942253
0.93032
1.03031
0.95895
0.965343
1.03928
1.03058
0.962829
1.02867
0.974173
0.945428
1.03709
1.02256
0.961701
1.02533
1.01767
1.02966
1.02988
0.90739
1.02882
1.02924
0.954043
0.946397
0.953806
0.979364
1.02562
1.02598
1.02503
1.0254
1.03873
1.0326
1.02356
0.955998
0.904342
1.02492
1.02546
1.0266
1.03163
1.02846
1.02581
0.959538
0.990225
0.989539
0.989163
1.02691
1.02654
0.934747
1.03036
1.02807
1.03023
0.966342
1.03084
1.02701
0.967167
0.988499
0.997801
1.03969
0.998846
0.998952
0.999965
0.98301
1.02738
0.951445
0.950924
0.989509
0.993757
1.03021
1.02343
0.997609
1.03933
1.0519
0.933209
1.03188
1.05306
1.03175
1.03914
0.993982
0.993374
1.03985
1.03952
0.979007
0.963535
1.03973
1.03992
0.978001
1.02271
1.0225
1.02087
1.02177
1.01941
1.01915
1.01765
1.01851
0.904207
0.958435
1.01583
0.970359
1.01556
1.01421
1.0399
0.98631
0.981228
1.01513
1.03961
1.01217
1.03829
1.01177
0.992363
0.967512
1.01027
1.02608
1.01137
1.03677
1.03805
1.00876
1.02607
1.00826
1.02607
0.910068
1.02607
0.94582
0.979455
1.02512
1.02533
1.006
1.00718
1.03999
0.969558
1.00508
1.00459
0.978712
1.03948
1.03963
1.00094
0.948485
1.00097
1.0388
0.957417
0.999627
0.929293
1.00025
0.948063
0.959459
1.03855
1.02875
1.02916
0.997322
0.997173
0.956597
1.03874
1.03899
0.995055
0.953103
0.995647
0.927781
1.03961
0.992035
0.992575
1.03034
1.03078
1.03056
0.979704
1.03096
0.966088
0.970152
0.995463
1.03897
0.989405
1.02613
0.989634
1.0262
1.03975
0.960915
0.961496
0.986067
0.986311
0.959087
0.96399
0.98527
0.968034
0.985672
1.04052
0.9781
0.982605
0.982051
1.02604
0.942964
0.977772
0.97874
1.07483
1.02432
1.02431
1.02579
0.978724
0.952801
0.978173
1.0076
0.990434
0.958017
0.916031
0.973895
0.974169
0.970123
0.976867
0.976126
0.935881
0.938196
1.02744
0.977615
1.0544
0.945929
1.02197
0.923141
0.945876
0.928322
0.992156
0.982085
1.02379
1.02772
1.02459
0.960374
1.0262
1.02802
1.02614
1.02792
1.02845
0.959077
1.02625
1.02704
1.0264
0.943816
0.937429
1.03944
0.976847
0.904492
0.984282
1.03185
1.01941
1.03855
1.03274
0.971932
0.963324
1.02663
0.965737
1.03211
0.997147
0.972862
0.997776
0.93108
1.02553
1.04013
0.957188
0.999821
1.03216
1.03437
1.03991
0.984981
1.02249
0.998006
0.997471
0.956222
0.975203
0.982786
1.03915
0.945287
1.0379
1.03969
0.998025
0.974231
1.03119
0.968787
1.03103
1.03142
0.97763
0.982366
1.03984
0.998373
0.931239
0.961215
1.02823
0.953981
0.941233
1.02731
1.03189
0.965
0.967327
1.03202
0.940401
1.0302
1.03304
1.0013
1.00418
1.00458
0.960033
1.02275
1.02792
1.02649
0.958078
0.948634
1.02571
0.96099
0.971142
0.927384
1.03419
1.03828
1.03728
1.02589
0.994096
0.994253
1.02264
1.03216
1.01921
0.954141
0.990703
0.997016
1.03214
0.991065
0.954032
0.953123
0.953247
1.03364
0.965344
0.966193
0.929947
0.966062
0.931313
0.982473
1.02569
1.02559
0.983674
1.03018
1.02614
0.967053
0.965836
1.02596
0.942897
0.939986
0.96923
0.94221
0.941764
0.94329
0.941205
0.940962
0.925585
0.924931
1.0214
1.03763
0.989409
1.0378
1.02106
0.966138
0.941921
0.937847
1.03855
1.02534
0.965715
1.03981
0.961637
0.966649
1.03061
1.03044
0.99012
1.0306
1.03584
1.03061
1.03973
0.965149
0.963761
0.992311
1.0247
1.03948
0.953292
1.0245
0.968834
0.971746
0.953268
1.03259
0.964471
0.967214
0.96183
1.04088
1.04107
1.04087
1.04056
0.965955
0.966632
1.02704
0.975934
1.03116
0.941229
1.02651
0.941056
0.983861
0.907116
1.0385
0.93517
0.934216
0.975669
1.04437
1.02309
0.937358
0.952667
0.955133
0.940693
1.02556
1.02556
0.961683
1.00764
1.03836
1.03839
0.961317
0.908016
0.981154
0.959068
1.0434
1.02789
1.03867
1.02785
1.02248
1.02943
1.06172
1.02962
0.984351
0.934642
0.930892
0.961558
1.01237
1.01832
1.0173
0.942702
0.994793
0.984045
1.03103
1.0085
1.01221
1.01217
1.00834
1.00906
1.03028
0.965364
1.01225
1.01587
1.00854
0.953155
1.01293
1.00086
1.00465
1.01586
1.02221
1.01589
1.00498
1.01657
1.03033
1.00179
1.02037
1.01919
1.0193
1.0028
1.01939
1.02013
1.00104
1.01995
1.02535
1.02237
1.00091
1.04015
0.997789
1.0226
0.984627
1.03924
1.00125
0.998387
1.03035
1.02599
1.03062
0.996564
1.0001
1.02625
1.03073
1.02585
0.996871
1.00207
1.01208
0.993373
1.03942
0.963522
0.993573
0.990281
0.99012
0.934016
0.987326
0.988282
0.986345
1.03952
0.980535
0.985867
1.04008
0.981798
0.950982
1.04006
1.0246
0.981607
0.946955
1.00613
0.980759
0.981774
0.977953
0.948986
0.97714
1.01409
0.976198
1.04111
0.974608
0.949195
0.977597
0.979037
0.970278
0.959927
0.975919
0.966879
0.970542
0.966645
0.973887
0.972376
0.974789
0.98483
1.00666
1.02756
1.03998
1.00707
1.03947
1.00716
1.00482
1.00844
0.990613
1.0551
0.999626
1.03195
0.919571
1.01524
0.988332
0.992177
1.03998
0.974431
0.998765
1.00021
0.985894
0.981375
0.997541
0.999062
0.998185
0.997647
0.969031
0.935536
0.969338
0.965471
1.04005
0.961065
0.942989
0.928074
0.971535
1.02913
1.00829
0.998638
0.915817
1.03002
0.998175
0.94244
0.966875
0.999764
0.988069
1.0218
1.03814
0.952349
0.970787
0.966198
0.996525
0.979008
0.976647
1.00686
0.947003
0.969063
0.946682
0.974175
0.968713
0.928104
0.939212
1.00683
0.963301
0.999785
0.971419
1.03989
0.999454
1.0151
0.954743
0.968301
1.03999
1.03963
1.02164
0.962888
1.03184
1.04091
1.02107
1.00932
0.970151
0.931885
1.02802
0.971438
1.01986
0.959103
0.958024
1.04239
1.029
1.03387
0.92726
1.01972
0.930052
0.965077
0.965435
1.05448
1.00039
0.959916
1.03174
1.00218
1.01946
0.972344
0.994742
0.92278
0.940488
1.02454
1.02467
0.961028
1.01253
0.966186
0.963197
0.96624
0.965827
1.0244
0.994012
0.965379
0.953334
0.959741
0.928025
0.972858
1.03179
0.957363
0.921951
0.969102
0.932175
0.971252
0.998599
1.27496
1.02538
1.02553
0.941826
0.963604
1.04144
0.960767
0.961258
0.992363
0.991476
0.940396
0.952313
1.00394
0.966513
1.00755
1.02259
1.0233
0.958335
1.01062
1.02514
1.02568
1.02918
0.962356
1.02519
0.965726
0.907062
0.901397
0.959876
1.0395
1.02984
0.962602
1.02902
1.02548
0.964581
1.02286
1.02594
1.02149
0.996703
1.02332
0.964694
0.939574
1.0066
1.0304
0.918949
1.01993
1.01284
0.960976
0.971234
1.00463
1.02035
1.01661
1.03335
0.967935
1.028
1.03435
1.03601
0.938075
1.01703
1.03544
1.00915
0.994536
1.02945
1.03824
0.961021
1.01327
0.995434
0.988365
1.01609
0.943815
0.933123
1.02203
1.01219
1.01367
1.00865
0.995748
1.02578
0.999656
0.94236
0.998077
0.997355
1.01942
1.00959
1.01947
1.02603
1.04258
1.0085
1.01945
1.02313
0.953001
0.906127
1.01909
0.953645
1.01001
0.967941
0.966608
1.01917
0.908589
1.03815
0.961798
1.02167
1.0193
1.02336
1.0251
1.02553
0.929907
1.01683
1.01837
1.01854
1.02857
1.0284
1.03995
1.01096
1.01198
1.02105
0.974193
1.03041
1.01721
1.01974
0.900531
0.951332
1.00322
1.01554
1.00746
0.993597
1.01584
1.0397
1.02764
1.00166
1.01418
0.999483
1.01454
1.01614
0.934872
1.0036
1.02822
1.01213
1.01946
1.03088
1.01242
1.03094
1.01934
1.01859
0.959062
1.01564
1.04011
1.02746
1.01048
1.01077
0.939534
1.00897
1.03806
1.00934
0.996921
1.02534
1.0075
1.03812
1.01672
1.00038
0.937796
1.00814
0.935113
1.01134
1.03817
1.00784
0.979052
0.983922
0.997672
0.997672
0.931615
0.99772
0.99703
0.975766
0.997654
0.99781
0.993971
1.00399
1.00507
0.991042
0.994564
0.997636
1.00318
1.0054
0.998014
0.993449
0.997919
1.02818
1.00183
0.998001
1.00349
0.992303
0.941872
0.966602
0.998215
0.999791
0.940752
1.00168
1.00394
1.00211
0.94931
1.04055
0.997075
0.929336
0.943198
0.958733
0.999882
0.998399
1.02675
1.027
1.00705
1.01231
1.03857
1.02397
1.02249
1.03873
1.03915
0.987562
0.927726
1.03847
0.996664
0.996068
0.997204
1.04027
0.937111
1.00374
0.997885
0.997707
1.00528
0.9961
1.00822
0.99644
1.00945
0.924147
1.01098
0.992236
1.00289
0.993083
0.990479
1.04151
0.929793
1.02639
0.989677
1.03991
1.01527
0.922464
0.992309
0.999995
1.02891
1.00015
0.959926
0.984518
0.996934
0.956299
0.943894
1.00812
1.02582
0.988855
0.9892
1.02592
1.02228
1.02475
1.02353
1.02495
1.02377
1.02951
0.94634
1.04142
0.991676
1.0131
0.93489
1.01146
1.01037
0.93774
0.984869
0.924786
1.03932
1.0118
0.991645
0.926197
1.02773
0.96454
1.00075
1.03986
1.03838
1.01788
1.01841
0.945447
0.941773
0.998813
1.02689
1.02916
1.02138
0.973365
0.958098
1.00581
1.01757
1.04495
1.02753
1.03129
0.994424
1.04175
0.983223
0.983111
0.9876
1.01185
0.979467
0.980278
1.02443
0.999779
0.98196
0.992207
0.995924
1.02
1.01651
1.03246
1.02029
0.996121
0.97786
1.01797
1.01389
1.01262
1.01867
1.02155
1.00511
1.02935
1.03971
0.99486
0.954352
1.01334
0.939975
1.04182
1.00305
1.0137
1.0303
0.975466
1.00781
1.0304
0.973383
1.0118
0.973851
1.02649
1.02681
0.936213
1.00989
1.0076
0.935087
0.907122
0.983985
0.992398
0.999099
1.01261
0.967869
0.965285
1.00347
1.03128
0.976188
1.01106
1.00763
0.980735
1.00315
0.974519
0.947202
1.03311
1.03306
1.00274
1.00255
0.906286
1.03229
0.966797
0.979616
0.971806
0.971466
0.971406
1.00077
0.971933
1.0066
1.0033
1.00699
1.015
0.999101
0.967775
0.992891
0.899238
1.01343
0.946918
0.995782
1.02887
0.951556
0.994853
0.928239
1.0218
0.940123
0.965288
0.975356
1.02179
1.00601
0.963793
1.01803
1.02448
0.973021
0.966643
1.00705
1.0119
1.03548
0.93572
1.03086
0.968404
0.949386
0.967115
0.927895
1.00683
1.03086
1.00686
1.00478
0.96276
1.02399
1.00923
0.988172
1.00674
0.999296
0.987851
1.00758
0.941705
0.992909
1.0063
0.999565
1.00482
0.959656
0.957199
1.03057
0.956757
1.02834
0.961803
1.01713
0.961707
0.937876
1.01235
1.00143
1.04069
1.00689
0.992653
0.972496
1.03473
0.995481
0.99189
1.00252
1.05763
0.986023
1.02638
0.949873
1.02065
0.956887
1.02341
0.988234
0.956997
1.02684
1.00203
0.988788
1.01095
1.03139
0.98672
0.95
0.94955
1.0326
1.02835
0.987852
1.00684
1.02372
0.995484
0.964783
1.00249
1.00384
0.995862
0.991569
0.927346
1.04074
1.00555
1.02882
1.02111
1.02254
1.00719
1.02845
0.995656
0.98934
0.943962
0.931076
0.917256
1.00576
0.950317
0.94714
0.955261
1.00515
1.01232
0.999978
0.953476
0.964665
0.987368
1.00065
1.01117
0.960604
0.974091
0.995378
1.0274
1.00809
1.02888
0.933175
1.01169
1.02873
0.93712
1.02889
0.934913
0.95157
0.993828
0.942792
1.03094
1.03094
0.998355
0.998233
0.929151
0.962103
1.02672
1.0283
0.968562
1.00777
0.940789
1.03629
1.02127
0.9891
0.92813
0.933603
1.019
0.964334
1.00186
0.953949
0.947726
1.03466
1.00253
0.951903
0.927243
1.00778
0.998767
0.997269
1.04277
0.980253
0.966547
0.980378
0.95825
0.98067
0.980366
0.957408
1.03453
0.986032
1.03582
0.937409
1.02724
1.02982
0.95658
0.955363
0.95838
0.955355
1.01905
0.97147
1.02702
1.02652
0.958283
0.971178
0.914171
0.925573
0.994452
0.917268
0.997105
1.00841
0.973162
0.915089
1.003
1.00907
1.02907
0.932166
1.03597
0.972794
0.999428
0.914927
1.02857
0.968659
0.962375
1.03329
1.04056
0.953368
0.965269
1.02055
1.02383
1.02431
0.963794
1.02378
0.968013
0.923144
0.920647
0.940824
0.995799
0.966769
0.993782
1.04007
0.921649
0.940767
1.04027
0.927689
1.00304
0.995345
0.965761
0.966596
1.04014
1.02814
0.999332
1.01183
0.989667
0.925945
0.925687
1.02868
0.94439
1.01275
1.02206
0.964989
1.17927
1.17211
1.00331
0.958566
1.01542
0.965683
1.02581
1.0024
1.00662
0.949247
1.00821
0.945348
1.0123
1.01555
1.01126
1.01957
1.01619
0.940257
0.990963
0.99871
0.947887
1.01492
1.01763
1.00215
0.942268
0.935258
0.925263
0.953746
0.996351
0.932904
1.01871
1.00405
1.01519
0.955365
1.0292
1.00984
1.01293
0.914715
1.01801
0.976303
1.01653
1.04462
1.03971
1.01881
1.01927
1.03945
1.01167
1.00851
1.01938
1.0101
1.00579
1.04266
1.03712
1.02151
1.02406
0.975736
0.992603
1.00042
1.01968
1.01914
0.993137
0.926317
0.950587
1.00507
1.00608
1.00453
0.975345
1.03722
1.0003
1.03571
1.01978
1.03662
1.02694
0.975866
0.953913
1.00265
1.01214
0.977424
0.947258
0.951587
0.995367
0.949193
0.970342
0.996161
0.999407
1.00089
0.966678
1.00287
0.966
1.02535
1.02316
0.995542
0.995065
1.03658
1.02598
0.994518
0.994815
0.951544
0.969523
0.998314
0.998134
1.02541
0.944029
1.03654
0.980353
1.0037
1.0029
0.970184
0.937702
0.94972
0.955989
0.996145
0.968591
0.998712
0.945322
1.03636
0.96826
0.968819
0.941645
0.993271
1.01785
0.978533
1.02633
1.04588
1.02637
0.994479
0.975258
0.98539
1.02934
0.975612
0.933027
1.00696
1.04279
0.975937
0.995972
1.02684
0.995455
0.964017
0.931552
0.993242
1.02105
0.977701
0.978984
0.98911
0.978541
1.02053
1.01663
0.936896
0.932851
0.988159
0.980726
1.01699
0.948759
0.985657
0.962983
0.967803
0.985795
0.967814
0.983888
0.986231
1.00775
1.01513
0.982453
1.00478
1.03517
1.0152
1.02853
1.00071
1.00576
1.00528
1.0365
1.01365
0.977789
1.00005
0.967639
1.00678
1.01402
1.00832
0.98729
1.01076
1.02406
1.00469
1.01102
0.999813
0.969043
1.0336
0.98295
1.01232
1.00752
0.940663
1.00572
1.00163
0.984525
0.966751
1.01224
0.983491
0.970372
0.990688
1.04145
0.983068
0.97857
1.01256
0.969523
0.924872
0.969098
0.966177
0.983958
1.01258
0.973961
1.00642
0.976067
1.01086
0.975719
0.974519
0.985726
1.04994
0.981734
1.02635
1.03653
1.0112
0.970827
1.028
0.978515
0.992822
0.974198
1.01004
1.00907
1.02363
1.02888
1.00134
0.969439
0.948792
1.00942
0.988407
1.02291
0.990911
1.03322
0.954248
0.970678
1.02568
0.985856
1.01352
1.00861
0.97041
0.971021
0.974834
1.00793
1.01429
1.00339
0.982522
1.00831
0.961409
1.01481
1.04134
1.03893
0.972403
1.03695
1.03658
0.967124
0.939147
0.989725
0.968526
1.00523
1.02209
1.02103
1.02152
0.976258
1.0216
0.951898
1.01805
0.949935
0.968547
1.00349
0.907545
0.962026
0.935672
1.00548
0.92918
0.955124
0.999482
0.923286
0.962311
1.00556
0.994976
1.02189
0.999345
0.95789
1.02749
1.02784
0.984448
1.02533
0.990476
0.99409
0.994605
0.961331
0.960208
0.989785
0.985412
1.0022
0.923963
1.02454
1.00806
1.00472
1.01993
1.02157
1.00286
1.01033
1.00614
0.952332
1.02452
0.989661
0.955217
0.974305
0.979888
0.996022
0.987311
1.00004
1.00169
1.00301
0.998639
0.995328
0.953535
1.00496
0.959166
0.954977
0.970893
1.03943
1.00176
0.968675
0.993913
0.955776
0.980613
0.971686
0.974305
0.985731
0.923164
0.984621
0.979874
0.929719
1.03509
0.997503
0.990035
0.958749
0.993923
0.958916
0.998688
1.03701
0.951901
0.947614
1.02388
1.03515
1.0216
1.02413
0.999351
1.00972
0.941778
1.01151
0.954888
1.03969
0.954321
0.994472
0.994742
0.995297
0.943006
0.985894
0.983651
0.992229
0.953417
1.02338
1.02067
0.963473
1.0038
0.984948
1.02032
0.996346
0.998617
0.951926
0.998143
0.962031
0.993873
1.02825
1.0029
1.01625
1.001
0.999616
1.00109
0.961999
1.01962
0.949286
0.951605
1.02901
0.998293
0.96323
0.999653
0.999654
0.999985
0.938015
0.946979
1.00582
1.0138
1.00349
1.0047
1.00238
1.02772
1.00214
0.993839
1.00447
0.985163
1.02754
1.0242
1.00487
0.928691
0.950609
0.922398
1.00605
1.01918
0.994698
1.02057
1.00757
0.92398
0.937606
1.00532
1.00613
0.89632
0.918095
0.994731
1.00461
0.926588
0.925251
0.98746
0.929716
1.0161
0.982646
1.00228
1.0056
1.03663
0.970262
1.01486
0.961141
0.947706
0.985206
1.00949
1.02915
0.952471
0.960893
1.01159
0.961504
0.941693
0.992911
0.925962
1.00879
0.992327
0.994319
0.94287
0.98211
0.997462
1.00885
1.01203
1.01053
1.00869
0.99404
1.02472
0.987736
0.940113
0.939597
1.01361
0.939661
0.987724
1.02282
0.962834
1.04312
0.951121
0.989631
1.02918
1.02863
0.952313
1.01007
1.03983
1.00327
1.0141
1.02852
0.964806
1.02276
0.922805
0.976699
1.01436
0.938565
0.988044
0.930918
0.946816
0.988831
0.946408
0.975785
0.968268
1.02626
0.971079
1.04097
0.981917
1.00989
1.01132
0.972607
0.980175
1.00904
0.981518
1.00915
1.02644
0.979298
0.916958
0.983286
1.00675
1.00986
0.964539
0.973391
0.985164
0.972891
1.03813
1.00737
1.01226
1.03598
0.938289
1.02904
0.980649
0.914181
1.0241
0.979156
0.992115
0.987869
1.00707
0.937217
0.97811
1.00245
0.959245
1.03102
0.96062
0.96122
1.00489
1.01148
1.03064
0.978101
1.00754
1.00277
1.01063
1.02915
1.00524
0.979637
0.970323
0.933647
1.01329
1.02906
1.03302
1.01239
0.976173
1.01459
1.00224
1.01403
0.975771
1.03425
0.950324
0.979908
1.00136
0.973247
1.00304
0.979135
0.981092
1.01605
0.974325
1.01021
1.00071
1.03452
1.02522
1.03497
0.93316
0.972303
1.02787
0.937722
0.918996
1.015
0.98783
0.971583
1.03857
0.955351
0.972209
1.00559
0.944118
0.972442
1.00277
0.953182
0.970985
1.02398
1.00818
0.967988
1.01717
1.021
0.996134
0.995368
1.0157
0.941643
1.0191
1.01844
1.02987
0.953451
1.0038
0.96952
1.0284
1.02401
0.936735
1.02363
1.0176
0.993632
0.970396
0.997691
1.02909
0.973279
0.969807
0.931949
0.996751
0.957454
1.02337
0.966974
0.999881
1.00369
1.01665
1.03516
0.958784
1.01499
0.963051
0.997545
0.967101
1.03544
1.01098
1.00397
0.971361
1.01944
0.991274
1.00051
1.01988
0.967136
1.02425
0.978662
0.964335
1.00692
1.06149
0.982861
1.02858
0.966145
1.00841
1.0028
1.00687
1.03162
1.02363
1.0079
0.957683
0.967567
0.995409
0.991172
0.945301
1.00121
0.994208
0.988455
1.02505
1.03436
1.03278
0.916548
0.948683
0.962765
0.961739
0.941119
1.02061
1.03621
1.02077
0.991253
1.03603
1.02039
0.960932
0.941087
0.993475
1.02276
0.965224
0.963857
0.958641
0.959528
0.995404
0.933393
1.0305
0.960619
0.959399
0.955858
0.93486
1.00103
0.954696
0.970435
1.03568
0.969334
1.03072
1.02177
1.03025
0.932106
0.96649
0.986103
0.958306
1.02875
0.933097
1.02707
1.03582
0.959026
1.03151
1.02025
1.00139
0.961637
1.04201
0.986471
0.957337
0.960951
1.02137
1.03004
1.03862
1.03478
0.967173
1.02009
0.998773
0.957437
1.00278
0.997399
0.957437
1.02319
0.966552
1.02366
1.0173
1.03113
0.967616
0.948721
0.949915
1.01557
0.990647
0.966732
0.990926
1.03515
1.03579
1.00101
0.997422
1.01453
0.942517
0.970773
1.01727
1.02849
1.03324
1.02755
1.03181
0.953204
1.02774
0.959971
0.970547
1.01291
1.00272
0.973545
1.01601
0.953799
0.907092
1.01773
0.942987
0.994058
1.0329
1.01956
1.00233
1.00629
1.03588
1.01159
1.01486
1.00069
1.01681
0.958553
0.974037
0.998599
1.00539
1.02803
1.01324
0.934723
1.00206
1.00994
1.01615
0.973018
1.03631
0.966065
1.02977
0.978038
1.00865
0.965453
1.03608
0.937128
1.0119
1.03678
0.990219
0.906717
1.0014
1.02256
1.03456
0.977189
1.03593
0.936751
0.944442
0.976319
0.916837
1.01039
1.00018
1.03464
0.995898
0.949496
1.02128
0.924366
1.00578
1.02132
0.975415
0.96504
0.968366
0.988913
1.00882
0.967147
0.964033
1.03632
1.02809
0.935277
0.98433
1.00215
1.00362
0.979627
1.00379
1.00617
1.01749
0.979465
1.02949
0.948905
0.981137
1.00168
1.00049
0.971829
0.952283
0.936042
1.00637
1.00438
1.00709
0.980498
0.97065
1.0126
1.01107
0.934911
0.942061
1.00041
0.948185
0.93279
1.03605
0.96437
1.02307
1.0361
1.00202
0.98553
1.0017
0.943035
1.0264
1.03409
0.945782
0.997889
1.04029
0.998334
1.02379
0.984563
0.964041
1.03616
1.03938
1.02313
0.985181
1.02209
0.969944
0.996017
1.03661
1.00117
0.911105
0.984756
1.02767
0.908481
1.04016
0.997478
0.970501
1.0557
0.987299
0.969799
0.997072
0.986838
0.956101
0.944149
1.01215
0.99517
0.998256
0.976945
0.986513
0.98528
0.99813
0.956924
0.996563
0.945036
1.0402
1.00335
1.02545
1.02868
0.92839
0.989495
0.988292
0.997204
0.93972
0.931565
1.04086
0.982106
0.994166
0.996757
0.967341
0.95479
0.995804
0.975398
0.944552
1.03458
0.94932
0.988803
1.02417
1.03614
1.03437
0.989215
0.945421
0.987595
0.948073
0.967278
1.03956
0.990735
0.994614
0.982482
0.990734
0.947393
1.03696
1.02853
0.998048
0.989309
0.991
0.951181
0.980789
1.02303
1.03592
0.949759
0.990109
0.943917
0.993343
0.988706
1.00922
1.00334
1.01122
1.0428
0.991373
1.00277
0.997498
1.02273
0.981633
0.993624
1.01701
1.03637
0.9932
1.03544
1.01222
1.00818
0.950432
1.01561
0.982501
0.988743
0.955158
0.974316
0.983524
1.00883
1.03588
0.991721
0.986951
0.990151
0.988996
0.992794
1.03686
0.987126
0.993051
0.985586
0.988782
0.924148
1.0368
1.01896
0.981763
1.03731
1.02381
1.00604
0.942995
0.977075
1.01271
0.955452
0.985087
0.97857
0.945048
1.00913
1.01617
0.969207
0.994772
1.00216
1.02121
1.01132
0.985838
0.984163
0.980421
1.00435
0.98359
1.02221
0.996291
1.01955
1.00837
0.982224
0.997175
1.0365
0.994198
0.980188
0.986363
0.975983
1.03948
0.995795
0.936622
1.02627
1.03876
0.980378
0.975505
0.988139
1.03615
1.02269
0.962424
1.03548
0.97659
0.998042
0.972107
1.03588
1.03697
0.986452
0.976047
1.03574
0.997519
1.03589
0.971314
0.996696
0.941201
1.03562
0.972384
1.0368
0.967686
1.00286
1.02856
0.980552
0.999778
0.97187
0.968052
1.02337
1.02161
1.02123
0.990135
0.999432
0.960884
0.968471
1.01833
0.962177
0.999745
1.00265
0.952857
1.00463
1.02898
1.02961
0.99923
1.01207
0.953708
1.02974
0.989333
1.00524
1.02286
0.967573
0.954268
1.0093
0.954858
1.0017
1.0313
0.961014
0.999188
0.994285
0.960059
0.963778
1.00841
1.00923
0.993611
0.976447
0.993589
1.02966
1.03741
1.00101
0.925397
0.959391
1.01707
0.993781
0.969706
0.927293
0.927492
1.02519
0.963118
1.00129
0.977544
0.993313
1.00199
1.02533
0.992526
0.956378
0.988033
1.00323
0.958881
1.0206
1.03623
1.00081
0.952799
0.978707
1.0367
0.989322
1.03266
1.02772
1.00724
1.00291
1.02621
0.955473
1.01321
0.989446
1.02578
0.956568
0.989715
1.00333
0.953569
1.0432
0.956265
1.0359
0.925044
1.00561
1.01097
1.01592
0.996216
1.03504
1.00514
0.982408
1.00129
1.02285
1.04221
0.943058
0.984956
0.9515
1.01225
0.995378
1.00285
1.00459
1.02905
0.994378
0.982079
1.04235
0.950535
0.944319
0.950369
0.941942
1.03786
1.03521
0.930391
1.02437
1.00483
0.971933
1.01776
1.02323
1.01411
0.988741
0.989862
0.980994
0.926909
1.01822
1.03691
0.988832
0.978579
0.997856
0.95214
1.02154
0.969647
1.00433
1.00061
1.00752
1.03443
0.996873
1.02583
1.00687
1.03526
1.03145
1.01083
1.03084
1.00671
0.971483
1.03435
1.03748
0.997863
1.01279
0.990388
1.02271
0.971681
1.03747
0.998813
1.00383
1.02976
1.00636
1.02549
1.02323
0.978548
0.997728
0.947215
0.994978
1.02754
0.9963
1.00511
1.04967
1.01072
1.00148
1.02757
0.984673
1.00608
1.00972
0.976001
1.03489
1.03698
0.935213
1.0018
1.03701
1.01941
0.993699
0.999844
1.00111
1.00827
0.928294
1.00927
0.967411
0.974547
0.964107
0.932756
0.932789
0.993835
0.999146
0.953842
1.00469
0.954831
1.02724
1.02022
1.00769
0.971605
1.0258
1.02643
0.944552
1.04015
1.0116
0.982866
1.01635
1.04308
1.00087
1.0112
0.983819
0.988393
1.01353
1.02334
1.00971
0.982263
1.02893
0.912984
1.00035
0.984216
0.988913
1.02328
0.987712
0.996829
0.908339
0.90748
0.994335
0.918525
1.00947
1.008
1.02919
1.00122
1.02756
0.99834
0.938903
1.02003
1.01783
1.02761
0.997792
0.99836
0.927854
0.962802
1.00353
0.991818
0.927599
1.02149
1.01201
0.931551
1.01393
0.995912
0.976777
1.01368
1.02121
1.02066
1.0221
1.00946
0.985088
1.00305
0.998787
0.997413
0.993173
1.01317
0.944277
1.01869
0.987191
1.02063
0.977802
1.00708
0.941622
1.02097
1.0366
0.912328
1.03606
0.982365
0.944113
0.99452
0.96261
0.959845
0.964868
1.00085
1.03286
1.01458
1.02897
1.03451
1.00774
1.00492
0.956061
1.01461
1.01063
0.982859
1.00866
1.03496
0.987133
0.994699
1.00301
1.03687
0.935072
1.00416
0.97471
0.96154
0.988064
0.938889
1.00677
0.95778
1.02863
1.01443
0.990286
0.993934
1.01451
0.986697
1.01258
0.954421
0.929907
1.02855
1.01538
1.00688
0.980416
1.01414
0.94948
1.02865
1.02884
0.97595
1.0285
1.02862
0.985798
0.999208
0.931269
0.983302
0.994162
0.985768
0.980493
1.00701
1.0278
1.02858
1.01897
0.948302
0.963181
0.955545
0.989302
1.03573
0.986345
0.913023
0.937806
0.929239
0.947183
0.913045
1.02907
0.997712
0.985943
0.985131
1.00684
0.942611
1.02882
1.02881
1.02846
0.98214
1.01056
0.98477
0.991196
0.989849
0.957739
1.05826
1.02901
0.952165
0.95623
1.01
1.02909
0.944678
0.951449
1.00127
1.0235
0.939099
0.990526
1.00143
0.982632
0.935142
0.989193
1.00618
1.0278
0.998228
0.987663
1.0123
1.00864
0.951822
0.979996
0.917037
0.946299
0.98926
1.00494
0.924275
0.965873
1.01495
0.991583
1.03088
1.0045
1.02925
1.01185
0.991409
0.913979
1.01465
0.960161
1.00865
0.985845
1.02858
1.0053
1.02063
1.02324
0.999458
0.92767
0.964371
1.00042
0.989628
1.02274
1.00208
1.0078
0.985831
0.984637
0.923867
1.02374
1.02917
0.988278
0.958701
0.964744
0.989263
0.935148
1.02101
0.918245
0.992107
0.944197
1.01333
1.01356
0.924626
1.02919
1.01081
1.01134
0.993189
0.989254
1.00351
0.94979
0.977581
1.00135
0.987824
1.01303
0.953953
0.970576
1.01404
0.964513
0.936305
1.03233
0.92403
0.969746
1.01895
0.982517
1.03221
0.944533
0.944723
1.01706
0.993232
0.992286
1.03206
0.970814
1.03105
0.962036
1.00075
0.970551
0.996107
1.01686
0.917755
1.03953
0.9747
1.04009
0.977027
1.01926
0.983098
1.00892
0.988313
0.991551
0.94637
0.989399
0.959724
0.946292
0.990237
1.0226
0.928013
1.01508
0.945197
0.996583
0.987744
0.977183
1.01606
0.912985
1.01059
1.02508
1.01788
0.992171
1.01046
0.974623
0.984971
0.965313
1.01466
0.977896
1.03159
0.927097
1.03262
1.01008
0.989682
0.942989
1.05507
0.990976
0.996432
1.00988
1.01803
1.00603
1.03958
1.01073
0.983576
0.932511
0.976942
0.931423
0.986307
1.01826
1.01903
1.02579
1.01789
0.968952
1.00252
0.999646
1.00757
1.01465
0.946371
1.00637
0.987888
1.01622
0.982894
0.939766
1.01075
1.01868
0.931525
0.932798
0.912991
0.986687
0.983072
1.01708
1.01597
0.934746
1.00259
1.00311
0.991508
0.999431
1.00373
0.979352
0.912711
1.02279
1.00048
1.01198
1.0183
0.961049
0.95196
1.0228
0.996283
1.03551
0.981892
1.01674
1.00816
0.966263
1.0114
1.00353
0.998005
0.998609
0.97948
0.976553
0.99267
0.984999
1.01315
0.962667
0.989866
0.988664
1.00105
0.992386
0.986159
0.994024
1.02341
0.990571
0.984546
0.981506
1.01773
1.01216
0.988248
0.981067
1.0132
0.952876
0.998674
0.914631
0.985359
0.97987
1.01732
0.986712
0.996207
1.02961
1.00053
0.947822
1.02459
0.935237
0.982993
1.0165
0.924905
1.01181
0.993285
0.985298
0.970889
0.996798
1.00234
0.987413
0.984329
1.02969
1.02356
1.01181
1.02362
1.00764
0.969846
0.992439
1.00401
1.03235
1.01656
1.00132
1.00652
0.989716
1.01889