/*--------------------------------*- C++ -*----------------------------------*\
  =========                 |
  \\      /  F ield         | OpenFOAM: The Open Source CFD Toolbox
   \\    /   O peration     | Website:  https://openfoam.org
    \\  /    A nd           | Version:  12
     \\/     M anipulation  |
\*---------------------------------------------------------------------------*/
FoamFile
{
    format      ascii;
    class       volScalarField;
    location    "14.1";
    object      p;
}
// * * * * * * * * * * * * * * * * * * * * * * * * * * * * * * * * * * * * * //

dimensions      [1 -1 -2 0 0 0 0];

internalField   nonuniform List<scalar> 
9801
(
0.656193
0.664234
0.668015
0.671645
0.674767
0.676674
0.675627
0.67669
0.67948
0.683436
0.692262
0.703714
0.711335
0.71631
0.720499
0.724155
0.727098
0.725986
0.725292
0.727698
0.731393
0.737519
0.749938
0.76146
0.768242
0.773062
0.777252
0.780872
0.780413
0.777247
0.778714
0.782364
0.787207
0.797651
0.81309
0.823598
0.830035
0.834913
0.839123
0.840417
0.834814
0.83439
0.837927
0.84295
0.851137
0.868614
0.884236
0.893008
0.899079
0.904137
0.906693
0.899564
0.895836
0.899251
0.904875
0.913079
0.93241
0.953327
0.965409
0.973129
0.979729
0.983464
0.974496
0.966094
0.968658
0.975646
0.986417
1.01089
1.03869
1.05432
1.06413
1.07266
1.07814
1.06516
1.05094
1.05371
1.06385
1.08196
1.11976
1.15469
1.17506
1.189
1.20147
1.20482
1.17953
1.16252
1.1719
1.19245
1.23808
1.30739
1.35776
1.39348
1.42842
1.45354
1.44674
1.44305
1.4502
2.77173
11.3814
0.662952
0.671846
0.675354
0.678595
0.681387
0.682785
0.682083
0.683174
0.685791
0.689435
0.6985
0.710842
0.718637
0.723522
0.727402
0.73072
0.733131
0.732046
0.73161
0.733894
0.737254
0.742928
0.756
0.768113
0.774997
0.779726
0.783656
0.786944
0.786414
0.783542
0.784821
0.788149
0.792469
0.802618
0.818918
0.829815
0.836212
0.840971
0.84512
0.846281
0.841198
0.840441
0.843523
0.84795
0.855322
0.873133
0.889546
0.89863
0.904741
0.909796
0.912523
0.905985
0.901804
0.904491
0.909489
0.916608
0.935408
0.957163
0.969963
0.978056
0.984716
0.989052
0.981314
0.972233
0.973852
0.980143
0.989283
1.01214
1.04099
1.0582
1.06842
1.07708
1.08306
1.07193
1.05728
1.05884
1.06818
1.08176
1.1152
1.15246
1.17518
1.19079
1.20485
1.21329
1.19093
1.17077
1.17608
1.19442
1.22823
1.28932
1.33976
1.37683
1.41249
1.43851
1.43011
1.41138
1.37189
2.60636
11.5374
0.665471
0.674334
0.67772
0.680867
0.683616
0.6849
0.684435
0.685749
0.688447
0.692019
0.701008
0.713637
0.721315
0.726032
0.729785
0.733058
0.735472
0.734511
0.734272
0.736572
0.739876
0.745096
0.757972
0.770399
0.777333
0.782058
0.785996
0.789435
0.789265
0.786353
0.787475
0.790747
0.794907
0.804246
0.820644
0.831914
0.838424
0.8433
0.847689
0.84967
0.844723
0.843142
0.845933
0.850262
0.856953
0.874074
0.891188
0.900611
0.906822
0.912047
0.91571
0.910232
0.904909
0.906902
0.91168
0.918077
0.934592
0.957438
0.971456
0.979977
0.986844
0.992169
0.986934
0.976872
0.976916
0.982598
0.990379
1.00762
1.03815
1.05854
1.0697
1.07862
1.08595
1.07942
1.06359
1.06165
1.0696
1.08079
1.10641
1.14978
1.17825
1.19464
1.20838
1.21875
1.20328
1.17814
1.17762
1.19463
1.21896
1.26996
1.33057
1.37436
1.4109
1.44214
1.43819
1.41897
1.36817
2.53435
11.5582
0.669069
0.678168
0.68154
0.684694
0.687407
0.688269
0.687889
0.689403
0.69215
0.695641
0.704177
0.717014
0.724924
0.729729
0.733539
0.736924
0.739319
0.73817
0.737879
0.740103
0.743361
0.74806
0.760271
0.773504
0.780896
0.785772
0.78982
0.79342
0.79343
0.790166
0.790984
0.794166
0.798228
0.806248
0.822803
0.835363
0.8423
0.847357
0.851896
0.854378
0.849148
0.846324
0.848921
0.853325
0.859293
0.874855
0.893759
0.904315
0.910756
0.916109
0.920432
0.916056
0.908761
0.909748
0.91451
0.920616
0.933846
0.958234
0.974919
0.984015
0.990902
0.99678
0.994563
0.98219
0.979336
0.984524
0.992329
1.00503
1.03531
1.06068
1.07356
1.08291
1.09125
1.09054
1.07189
1.06366
1.07047
1.08173
1.09923
1.13961
1.17567
1.19501
1.20908
1.22209
1.21895
1.19277
1.18084
1.19268
1.2146
1.2482
1.30305
1.35106
1.38917
1.42574
1.43653
1.42594
1.3733
2.46849
11.6092
0.672476
0.681792
0.685171
0.688393
0.691092
0.691663
0.691127
0.692631
0.695383
0.698787
0.706637
0.719858
0.728334
0.733273
0.737151
0.740607
0.742951
0.741525
0.740902
0.742984
0.746211
0.75048
0.761685
0.776122
0.784254
0.789234
0.793315
0.796922
0.797134
0.793653
0.794011
0.797
0.800955
0.807502
0.823772
0.838313
0.845821
0.850891
0.855309
0.857822
0.8531
0.849691
0.851874
0.856069
0.861289
0.874059
0.894598
0.907044
0.913929
0.91936
0.924042
0.921635
0.913079
0.912352
0.916559
0.92239
0.932124
0.955636
0.976137
0.986728
0.993969
1.00032
1.00182
0.989132
0.981594
0.985328
0.992974
1.00313
1.02882
1.05922
1.07535
1.0854
1.09431
1.09925
1.08398
1.06796
1.06928
1.08009
1.09359
1.12388
1.16811
1.19603
1.21258
1.22703
1.23453
1.21514
1.19259
1.19073
1.2079
1.23312
1.27746
1.3292
1.37049
1.40544
1.43238
1.43272
1.3782
2.43717
11.6627
0.676102
0.685668
0.688961
0.692131
0.694788
0.695287
0.694518
0.695933
0.698671
0.702
0.709
0.722702
0.732119
0.737234
0.741064
0.744435
0.746793
0.745333
0.744324
0.746271
0.749445
0.753351
0.763084
0.778624
0.787882
0.793093
0.797157
0.800745
0.801484
0.797763
0.797485
0.80032
0.804238
0.809729
0.824559
0.840822
0.849245
0.854507
0.85888
0.861882
0.85823
0.853315
0.854569
0.858602
0.86368
0.873982
0.894885
0.909705
0.917458
0.923199
0.928313
0.928823
0.919264
0.914619
0.917787
0.923642
0.931915
0.952992
0.977261
0.99
0.997675
1.00427
1.00904
0.999838
0.986519
0.98584
0.992764
1.00176
1.02126
1.0551
1.07743
1.08886
1.09781
1.10553
1.09865
1.07797
1.07142
1.07858
1.09035
1.10884
1.1498
1.18927
1.21255
1.22918
1.2433
1.23977
1.21285
1.19808
1.20324
1.22229
1.25187
1.29814
1.34123
1.37571
1.40461
1.4206
1.39465
2.42698
11.7173
0.679288
0.68924
0.692615
0.695827
0.698587
0.699178
0.697897
0.699002
0.701675
0.70498
0.711192
0.724824
0.735245
0.740734
0.744658
0.748067
0.750737
0.749438
0.747488
0.748987
0.752112
0.756009
0.764604
0.780292
0.790662
0.796343
0.800623
0.804473
0.806428
0.802279
0.80013
0.802427
0.806398
0.811776
0.825207
0.842289
0.851802
0.857539
0.862198
0.866329
0.865456
0.858023
0.856277
0.859715
0.864884
0.873846
0.894011
0.911409
0.920295
0.926372
0.93181
0.93542
0.927931
0.91885
0.919222
0.924569
0.931651
0.948482
0.975573
0.992081
1.0005
1.00716
1.01344
1.01023
0.994536
0.989076
0.993614
1.00149
1.01356
1.04387
1.07562
1.0922
1.10212
1.11102
1.11292
1.09399
1.07832
1.07762
1.08708
1.09993
1.12701
1.17258
1.20726
1.22808
1.24436
1.2552
1.24122
1.21575
1.20757
1.21614
1.23549
1.26931
1.31422
1.35002
1.37548
1.39497
1.39324
2.44273
11.7682
0.682382
0.692647
0.69613
0.699404
0.702271
0.703219
0.701368
0.701867
0.704356
0.707656
0.713523
0.726922
0.73826
0.744173
0.74827
0.751802
0.754834
0.754422
0.751098
0.751463
0.754306
0.758178
0.766224
0.782074
0.793596
0.799668
0.804136
0.808149
0.811239
0.808391
0.80372
0.80453
0.808092
0.813028
0.825127
0.843436
0.8545
0.86058
0.865435
0.869963
0.872075
0.864791
0.859779
0.861726
0.866368
0.873177
0.891058
0.912104
0.923142
0.929561
0.935071
0.940003
0.936995
0.925247
0.922632
0.926543
0.932496
0.942889
0.96917
0.992541
1.00372
1.01081
1.01749
1.01987
1.00619
0.994672
0.994938
1.0015
1.01016
1.02933
1.06652
1.09305
1.1065
1.11612
1.1237
1.11462
1.09031
1.08135
1.08575
1.09679
1.1114
1.14584
1.18992
1.21963
1.23937
1.25599
1.2634
1.24643
1.2224
1.21649
1.22664
1.24692
1.28339
1.32424
1.3527
1.3715
1.38375
2.47412
11.8145
0.684941
0.695979
0.699679
0.703021
0.705963
0.707521
0.705373
0.704887
0.70699
0.710106
0.715104
0.727947
0.740721
0.74744
0.751836
0.755494
0.758783
0.759578
0.755459
0.75445
0.756778
0.760349
0.766774
0.782402
0.796056
0.80304
0.807754
0.811804
0.815402
0.814366
0.808345
0.807526
0.810399
0.814606
0.823247
0.842349
0.856785
0.863992
0.869046
0.873598
0.876979
0.872013
0.864705
0.864926
0.868752
0.873855
0.88594
0.909646
0.925358
0.933169
0.938864
0.944081
0.945062
0.934159
0.927244
0.928689
0.933712
0.940457
0.958837
0.988847
1.00628
1.01489
1.02171
1.02703
1.02006
1.00278
0.997429
1.00151
1.00932
1.01974
1.04852
1.08631
1.10736
1.1187
1.12777
1.13249
1.11513
1.09322
1.08871
1.0943
1.10532
1.12346
1.16336
1.20464
1.23178
1.25089
1.26683
1.26906
1.25065
1.22865
1.22382
1.23399
1.25535
1.29414
1.33025
1.35209
1.36915
2.51106
11.8575
0.687207
0.699226
0.703122
0.7066
0.709641
0.711813
0.709836
0.708345
0.71002
0.712959
0.716966
0.728018
0.742613
0.750609
0.755254
0.758989
0.762372
0.764301
0.760499
0.758074
0.759843
0.763176
0.767929
0.781274
0.797661
0.806258
0.811289
0.815432
0.819245
0.820296
0.814012
0.811202
0.813167
0.816947
0.822491
0.838717
0.857659
0.867246
0.8728
0.877477
0.881724
0.880146
0.871077
0.868488
0.871021
0.875572
0.882603
0.903334
0.925665
0.93647
0.942778
0.948185
0.952291
0.944988
0.93295
0.930982
0.934643
0.940634
0.950674
0.978557
1.00579
1.01871
1.02618
1.03234
1.03386
1.01763
1.00374
1.00299
1.00878
1.01666
1.03041
1.06704
1.10179
1.11937
1.13044
1.1402
1.1417
1.11707
1.09675
1.09529
1.10299
1.11493
1.13674
1.17814
1.21515
1.23983
1.25821
1.27281
1.27324
1.25431
1.23273
1.22818
1.23715
1.25895
1.29813
1.32883
1.35113
2.55715
11.9022
0.689019
0.702375
0.706553
0.710111
0.713172
0.715743
0.714615
0.71214
0.713243
0.715963
0.719399
0.727882
0.743535
0.753388
0.758528
0.762368
0.765786
0.768484
0.766043
0.762174
0.763195
0.766167
0.769973
0.779428
0.797518
0.808921
0.814673
0.818966
0.822871
0.825531
0.820809
0.815389
0.816145
0.81928
0.823558
0.834164
0.855786
0.869678
0.876374
0.881245
0.885744
0.887651
0.879145
0.872447
0.873308
0.877178
0.882389
0.895605
0.922064
0.938728
0.946454
0.952053
0.95702
0.95593
0.941901
0.934512
0.936207
0.941529
0.94814
0.964572
0.997873
1.01954
1.02934
1.03629
1.04242
1.03833
1.01772
1.00725
1.00808
1.01424
1.02279
1.04291
1.08502
1.11667
1.13235
1.14248
1.15052
1.1464
1.12088
1.10416
1.10409
1.11192
1.12416
1.14946
1.19068
1.22415
1.24683
1.26457
1.27695
1.27529
1.25613
1.23402
1.22819
1.23504
1.25827
1.29595
1.32672
2.60902
11.9506
0.690257
0.705168
0.709902
0.713592
0.71669
0.719511
0.719506
0.7163
0.716589
0.719049
0.722216
0.728033
0.743041
0.755535
0.761606
0.765696
0.769241
0.772432
0.771949
0.767016
0.766565
0.769027
0.772441
0.778269
0.795004
0.810625
0.817975
0.822561
0.82652
0.830002
0.828254
0.820706
0.819135
0.821549
0.825435
0.83181
0.850918
0.870619
0.879734
0.88508
0.889594
0.893341
0.888812
0.878158
0.876174
0.879044
0.883685
0.890866
0.91313
0.938027
0.949575
0.955836
0.961059
0.964945
0.955977
0.94197
0.939123
0.942039
0.947797
0.955943
0.981319
1.01482
1.03202
1.041
1.0482
1.05326
1.03993
1.01749
1.01095
1.01436
1.02169
1.0307
1.05547
1.09899
1.12684
1.14075
1.15138
1.16075
1.15477
1.12679
1.11073
1.11153
1.12021
1.13334
1.16187
1.20144
1.2315
1.25268
1.26967
1.27992
1.27687
1.25594
1.23171
1.22328
1.22845
1.25349
1.29368
2.65474
11.9961
0.690927
0.707399
0.713142
0.717015
0.720208
0.723184
0.724385
0.721093
0.720134
0.722129
0.725074
0.729056
0.741206
0.756762
0.764659
0.769153
0.772839
0.776247
0.777718
0.77276
0.770042
0.771716
0.774912
0.779068
0.791318
0.810589
0.820874
0.826155
0.830208
0.83393
0.835097
0.827489
0.82265
0.824212
0.827759
0.832316
0.844837
0.868369
0.88217
0.888636
0.893315
0.897594
0.898187
0.887248
0.880261
0.881347
0.885197
0.890313
0.902614
0.931243
0.950882
0.959396
0.965233
0.970545
0.970681
0.954786
0.943131
0.942954
0.947585
0.953958
0.965923
0.999557
1.02982
1.04297
1.05029
1.05678
1.0602
1.04291
1.0225
1.01777
1.02032
1.02696
1.03744
1.06845
1.1126
1.13921
1.1529
1.16298
1.16924
1.15902
1.13248
1.11799
1.11906
1.12779
1.14218
1.17422
1.21261
1.23986
1.25868
1.2738
1.28147
1.27678
1.25363
1.22589
1.21392
1.21814
1.25268
2.67955
12.0371
0.691083
0.708588
0.716186
0.720477
0.72383
0.726912
0.729118
0.726618
0.72391
0.725061
0.727724
0.731055
0.739272
0.756417
0.767356
0.772666
0.776514
0.77999
0.782708
0.77939
0.77411
0.774564
0.777427
0.781122
0.788481
0.807723
0.822764
0.829477
0.8338
0.837618
0.840631
0.836047
0.827893
0.827335
0.830287
0.8343
0.840862
0.861477
0.882491
0.891705
0.896995
0.901528
0.905337
0.899528
0.887057
0.884025
0.886321
0.890922
0.897386
0.918149
0.947651
0.962516
0.969956
0.97554
0.98019
0.973361
0.9543
0.947077
0.948867
0.95391
0.960337
0.976869
1.01463
1.04077
1.05272
1.06122
1.06878
1.06873
1.04487
1.02505
1.02225
1.02736
1.03525
1.04649
1.07975
1.12237
1.14637
1.15935
1.16982
1.17687
1.1664
1.13918
1.12467
1.12586
1.13476
1.15092
1.18569
1.22221
1.24677
1.26392
1.27725
1.28236
1.27479
1.24914
1.2184
1.20067
1.2061
2.66612
12.0751
0.691232
0.708333
0.718887
0.72399
0.727508
0.730644
0.733364
0.73244
0.728099
0.727983
0.730319
0.733486
0.738676
0.754092
0.769121
0.776014
0.780129
0.783653
0.786884
0.786365
0.779666
0.777903
0.780135
0.783478
0.787889
0.802046
0.82228
0.832203
0.837314
0.841348
0.845094
0.845051
0.835788
0.831229
0.832738
0.836118
0.840585
0.852754
0.878321
0.893919
0.900773
0.905542
0.909914
0.910684
0.897892
0.888033
0.888318
0.892166
0.897314
0.906747
0.935095
0.961118
0.972043
0.978293
0.983851
0.987997
0.975937
0.957075
0.951851
0.953447
0.958453
0.965922
0.989392
1.03003
1.05361
1.06366
1.07016
1.07639
1.07468
1.05054
1.03301
1.03068
1.03399
1.04079
1.05379
1.09066
1.13201
1.15518
1.16835
1.17876
1.18349
1.17194
1.14573
1.13094
1.13131
1.13945
1.15729
1.19509
1.23071
1.25298
1.26769
1.27834
1.28101
1.27167
1.24281
1.20474
1.17616
2.61689
12.1098
0.692299
0.706587
0.720729
0.727318
0.731069
0.734235
0.737143
0.738067
0.73334
0.731306
0.733119
0.736083
0.739728
0.750418
0.768751
0.778709
0.783614
0.787331
0.790751
0.792725
0.787205
0.782094
0.782831
0.785588
0.789217
0.797056
0.817994
0.833877
0.840742
0.84513
0.849024
0.852036
0.846236
0.836546
0.835299
0.838046
0.842029
0.848025
0.86814
0.892715
0.903907
0.909639
0.913984
0.917935
0.91291
0.89772
0.892359
0.893894
0.897827
0.903272
0.917664
0.950601
0.97263
0.982289
0.988813
0.994572
0.995373
0.976329
0.958693
0.956005
0.95974
0.965542
0.97314
0.999918
1.03995
1.06068
1.07135
1.08024
1.08755
1.08228
1.05465
1.03675
1.03514
1.04071
1.04899
1.06323
1.10089
1.13985
1.16147
1.17458
1.18513
1.19007
1.1778
1.14992
1.13425
1.13428
1.14241
1.16199
1.20161
1.23595
1.25635
1.26982
1.27781
1.2784
1.26665
1.22728
1.17418
2.53937
12.1462
0.694406
0.704237
0.720722
0.729972
0.734411
0.737761
0.740797
0.743064
0.739862
0.73547
0.736106
0.738655
0.741843
0.747822
0.765337
0.780369
0.786963
0.790998
0.794509
0.797655
0.795782
0.78773
0.785658
0.787774
0.791145
0.795657
0.810422
0.832627
0.843538
0.848819
0.852819
0.856613
0.856786
0.845827
0.839415
0.840553
0.843817
0.848042
0.857467
0.883842
0.904318
0.912681
0.917972
0.922568
0.925499
0.914479
0.899332
0.896068
0.898522
0.90312
0.909512
0.930929
0.965459
0.983544
0.991136
0.996136
1.00175
1.00134
0.98044
0.965043
0.962661
0.964634
0.969846
0.979241
1.01185
1.0529
1.07291
1.0819
1.08829
1.09407
1.08819
1.06203
1.04556
1.04384
1.04794
1.05542
1.07168
1.1117
1.14846
1.1683
1.18041
1.19023
1.19407
1.18164
1.15398
1.13749
1.13643
1.1437
1.16421
1.20543
1.23951
1.25847
1.26972
1.27479
1.27432
1.25356
1.20076
2.46912
12.1899
0.696902
0.70298
0.718135
0.731647
0.737592
0.741288
0.744481
0.747359
0.746912
0.740889
0.739272
0.741233
0.744287
0.748138
0.760101
0.779654
0.789691
0.794531
0.798143
0.801509
0.803193
0.796009
0.789729
0.790442
0.793415
0.797013
0.804043
0.825725
0.844456
0.852169
0.856669
0.86069
0.864243
0.859108
0.846836
0.843551
0.845228
0.848767
0.853721
0.869362
0.898488
0.914938
0.922395
0.927668
0.932206
0.931693
0.914678
0.901927
0.90122
0.904564
0.909397
0.916487
0.942506
0.975991
0.99167
0.999959
1.0066
1.01231
1.00721
0.982314
0.967456
0.967009
0.971789
0.977855
0.986968
1.01994
1.0592
1.07765
1.08782
1.09675
1.10367
1.09647
1.06851
1.05082
1.04897
1.05445
1.06298
1.08086
1.12059
1.1543
1.17281
1.18509
1.1952
1.20051
1.18686
1.15652
1.13894
1.13724
1.14382
1.16464
1.20671
1.24008
1.25762
1.26683
1.27075
1.26494
1.23811
2.43465
12.239
0.69925
0.703796
0.714267
0.731702
0.740494
0.744802
0.748059
0.751058
0.752944
0.748057
0.743278
0.744178
0.746978
0.750259
0.756258
0.774635
0.790812
0.797631
0.801665
0.805202
0.808433
0.806165
0.796585
0.793797
0.795645
0.798797
0.80285
0.815589
0.840784
0.854796
0.860924
0.865008
0.86892
0.870334
0.858628
0.84782
0.847248
0.850326
0.854555
0.860837
0.883131
0.911385
0.92405
0.93016
0.935
0.939894
0.937078
0.917889
0.907223
0.906659
0.909179
0.913977
0.923439
0.955406
0.988288
1.00234
1.00885
1.01346
1.01917
1.01354
0.989092
0.97614
0.974745
0.976714
0.981905
0.992736
1.0296
1.07018
1.08903
1.09788
1.10459
1.10974
1.10271
1.07664
1.05914
1.05636
1.06006
1.06748
1.08774
1.13004
1.16319
1.1807
1.19162
1.20062
1.20476
1.19109
1.15972
1.1401
1.13705
1.14254
1.16306
1.20586
1.23884
1.25494
1.26314
1.26294
1.26306
2.44591
12.2937
0.701936
0.705973
0.711677
0.728616
0.742167
0.747968
0.751522
0.754691
0.757648
0.756452
0.749345
0.747683
0.749612
0.752498
0.756035
0.767257
0.788573
0.800081
0.805315
0.808987
0.812412
0.814494
0.806805
0.798318
0.798056
0.800871
0.80448
0.810069
0.830051
0.853952
0.864214
0.869277
0.872941
0.876542
0.87345
0.858433
0.85172
0.852862
0.85583
0.860047
0.868355
0.896079
0.921975
0.932974
0.939421
0.944911
0.949126
0.940812
0.919267
0.91021
0.911568
0.915823
0.920702
0.930591
0.96422
0.995154
1.00842
1.01693
1.02391
1.02918
1.01998
0.993312
0.979043
0.978722
0.983691
0.990159
1.00073
1.03647
1.07507
1.09291
1.10253
1.11106
1.11786
1.11158
1.0843
1.06434
1.06039
1.06502
1.07373
1.09575
1.13741
1.16828
1.18498
1.19672
1.20637
1.21107
1.19573
1.16158
1.13973
1.13541
1.13994
1.16004
1.20333
1.23576
1.25165
1.25467
1.27373
2.49352
12.3546
0.705012
0.708495
0.711617
0.723056
0.741481
0.750708
0.755174
0.758587
0.761753
0.763715
0.757851
0.751762
0.752009
0.754502
0.757774
0.763129
0.781244
0.800473
0.808469
0.812637
0.816126
0.81952
0.818143
0.806564
0.801673
0.803401
0.806751
0.81045
0.818772
0.844177
0.864326
0.872278
0.877044
0.880938
0.884194
0.876225
0.860446
0.855641
0.857134
0.860488
0.865117
0.877392
0.909455
0.932698
0.941878
0.946937
0.951421
0.95589
0.945872
0.924745
0.917214
0.917361
0.91992
0.92497
0.937696
0.975361
1.00673
1.01927
1.02535
1.03007
1.03552
1.02766
1.00198
0.988638
0.987194
0.989165
0.994188
1.00575
1.04408
1.08381
1.10225
1.11112
1.11822
1.12398
1.11927
1.09303
1.07157
1.0664
1.06891
1.07592
1.09938
1.14375
1.17618
1.19299
1.20306
1.21089
1.21442
1.19952
1.16393
1.13902
1.13287
1.13592
1.15594
1.19938
1.23145
1.24297
1.27127
2.56406
12.4197
0.708148
0.710775
0.713471
0.719337
0.737134
0.752459
0.758889
0.762479
0.765571
0.768473
0.767045
0.758082
0.755122
0.75702
0.760108
0.763493
0.772367
0.795029
0.810012
0.816174
0.819942
0.823501
0.82635
0.819609
0.808424
0.806594
0.808636
0.811729
0.815831
0.828867
0.857024
0.873861
0.881125
0.885991
0.890088
0.891541
0.877547
0.862324
0.85994
0.862872
0.866828
0.871399
0.886072
0.919697
0.94054
0.949406
0.95583
0.961391
0.964273
0.949509
0.927095
0.920091
0.922389
0.927217
0.932337
0.944612
0.981693
1.01132
1.02397
1.03271
1.03987
1.04484
1.0355
1.00836
0.992292
0.990577
0.995103
1.00167
1.01348
1.05014
1.08766
1.1057
1.1163
1.12532
1.13167
1.12621
1.09823
1.0744
1.06793
1.07143
1.07996
1.10437
1.14842
1.17991
1.196
1.20652
1.21463
1.2184
1.20333
1.1655
1.13714
1.12913
1.1309
1.15084
1.19451
1.2213
1.25871
2.64276
12.4807
0.711671
0.713541
0.716216
0.719727
0.730737
0.750681
0.761113
0.765783
0.769097
0.772189
0.774302
0.76806
0.760246
0.759972
0.762234
0.765245
0.769255
0.783947
0.807768
0.819061
0.824185
0.827748
0.831221
0.8318
0.819926
0.81073
0.810683
0.813644
0.817234
0.822017
0.840162
0.868621
0.882353
0.888473
0.892965
0.897326
0.89771
0.881168
0.867883
0.86632
0.868045
0.871578
0.876918
0.895963
0.931203
0.950703
0.95847
0.962722
0.967244
0.970781
0.955927
0.934657
0.928435
0.928734
0.931153
0.936249
0.950872
0.991326
1.02238
1.03451
1.04049
1.04526
1.05063
1.04409
1.01781
1.00136
0.998758
1.00077
1.00572
1.01797
1.05758
1.09636
1.11385
1.1222
1.12882
1.13556
1.13345
1.10653
1.0815
1.07385
1.07503
1.08119
1.10453
1.15022
1.18393
1.2009
1.21049
1.21727
1.22014
1.20604
1.16723
1.13484
1.12403
1.12426
1.14594
1.18489
1.23325
2.71694
12.5282
0.716603
0.716667
0.719038
0.721912
0.726734
0.743629
0.761479
0.768901
0.772829
0.77597
0.778969
0.77853
0.768551
0.763337
0.764456
0.767339
0.770673
0.776632
0.797385
0.818982
0.827703
0.832002
0.835308
0.838696
0.835227
0.820684
0.814853
0.816116
0.818969
0.822409
0.828276
0.851099
0.878445
0.890501
0.89673
0.901869
0.906274
0.903224
0.883186
0.870695
0.870486
0.87415
0.878325
0.883428
0.903768
0.938489
0.956363
0.964682
0.971348
0.976919
0.978738
0.961294
0.938499
0.931247
0.933486
0.938496
0.943988
0.957558
0.995951
1.02538
1.03796
1.04668
1.05393
1.05907
1.05214
1.02523
1.00593
1.00207
1.00602
1.01249
1.02514
1.06287
1.09823
1.11512
1.12686
1.13709
1.14378
1.14051
1.11179
1.08345
1.07378
1.07554
1.08242
1.10516
1.15122
1.18584
1.20261
1.21217
1.21871
1.22128
1.20803
1.16911
1.1322
1.11702
1.11714
1.1369
1.19651
2.76843
12.563
0.723201
0.720098
0.721538
0.724143
0.727273
0.735746
0.75684
0.770736
0.776323
0.779582
0.782623
0.78534
0.780451
0.769712
0.767613
0.769843
0.773036
0.776403
0.784877
0.809804
0.828407
0.835712
0.839907
0.843409
0.846093
0.837591
0.822943
0.818916
0.820388
0.823409
0.827411
0.835488
0.862487
0.888201
0.898705
0.903945
0.907846
0.91229
0.908811
0.888725
0.878015
0.877371
0.878978
0.882617
0.888737
0.912512
0.94854
0.966416
0.973542
0.977574
0.982418
0.985664
0.96976
0.947353
0.940362
0.940463
0.942492
0.947447
0.962481
1.00373
1.03542
1.04779
1.05377
1.05854
1.06429
1.061
1.03527
1.01464
1.00959
1.01077
1.01526
1.02813
1.06965
1.1092
1.12708
1.13562
1.14237
1.14785
1.14501
1.11761
1.0888
1.07823
1.07851
1.08407
1.10501
1.1509
1.18698
1.20433
1.21322
1.21888
1.22077
1.20898
1.17121
1.1299
1.10947
1.10387
1.15005
2.77704
12.5857
0.731163
0.724367
0.724334
0.726872
0.729816
0.733505
0.746618
0.768107
0.778368
0.783105
0.786408
0.78967
0.791076
0.781493
0.772942
0.772799
0.775011
0.777984
0.781831
0.794295
0.821503
0.837421
0.844088
0.84821
0.851697
0.852817
0.839291
0.825076
0.823035
0.82593
0.829635
0.833454
0.842512
0.871763
0.895857
0.905538
0.911544
0.916806
0.920923
0.914039
0.892068
0.880828
0.881298
0.885075
0.889433
0.89509
0.918467
0.953392
0.970536
0.979103
0.986101
0.991665
0.993773
0.977148
0.952964
0.943268
0.944407
0.949158
0.954965
0.968771
1.00716
1.0372
1.05024
1.05927
1.06659
1.07223
1.06877
1.04322
1.01965
1.01269
1.01558
1.02214
1.03571
1.07525
1.1121
1.1289
1.13835
1.14667
1.15394
1.15351
1.1266
1.09485
1.08104
1.08017
1.08461
1.10299
1.14864
1.18601
1.20381
1.21263
1.21801
1.21929
1.20892
1.17266
1.12845
1.09809
1.10309
2.73523
12.603
0.739609
0.732205
0.728278
0.729712
0.732119
0.734806
0.739685
0.758055
0.778263
0.786444
0.790579
0.793765
0.796842
0.794977
0.782274
0.776152
0.777263
0.780317
0.783648
0.788064
0.804514
0.831756
0.845198
0.851153
0.855319
0.858923
0.858745
0.843427
0.831037
0.829684
0.831377
0.834391
0.838687
0.850439
0.881983
0.905055
0.914142
0.918719
0.922335
0.926754
0.920804
0.899336
0.889074
0.888296
0.889583
0.893183
0.899596
0.925644
0.962725
0.980759
0.987823
0.991789
0.996652
1.00071
0.98733
0.962619
0.952568
0.95189
0.953521
0.958019
0.972052
1.0128
1.04625
1.05972
1.06607
1.07102
1.07737
1.07769
1.05406
1.02914
1.02096
1.02063
1.02381
1.03553
1.07513
1.11616
1.13722
1.14759
1.15491
1.16137
1.16096
1.13439
1.09968
1.08278
1.08043
1.08426
1.10055
1.14522
1.18426
1.2029
1.21149
1.21632
1.21697
1.20731
1.17277
1.11819
1.08484
2.64569
12.624
0.74589
0.743504
0.733793
0.732134
0.733988
0.736806
0.740039
0.747869
0.770384
0.787594
0.794236
0.797714
0.80069
0.803406
0.797321
0.784172
0.78104
0.783003
0.785924
0.788978
0.793899
0.813954
0.840635
0.852802
0.858716
0.863314
0.867329
0.865186
0.84676
0.834213
0.833685
0.837043
0.840894
0.844928
0.857048
0.889032
0.910861
0.919728
0.925987
0.931275
0.935195
0.927175
0.904106
0.891851
0.891742
0.895551
0.900284
0.906243
0.930374
0.965969
0.983608
0.99252
0.999877
1.00551
1.00864
0.995896
0.96982
0.955948
0.954959
0.959186
0.965056
0.97812
1.01558
1.04722
1.06174
1.07186
1.07991
1.08589
1.08527
1.06107
1.03212
1.02048
1.02095
1.02622
1.03821
1.07603
1.1192
1.14196
1.15268
1.15971
1.16516
1.16536
1.14191
1.10533
1.08501
1.08085
1.08359
1.09742
1.14084
1.18159
1.20111
1.20947
1.21362
1.21296
1.20421
1.16205
1.10273
2.54165
12.6625
0.749804
0.753014
0.743629
0.73634
0.736676
0.739264
0.742303
0.745769
0.756534
0.781036
0.795743
0.80172
0.805181
0.808307
0.809836
0.79921
0.787458
0.785649
0.787424
0.790363
0.794004
0.800381
0.823543
0.849085
0.859947
0.865046
0.868784
0.872684
0.870817
0.852835
0.841603
0.840785
0.842227
0.845255
0.849773
0.864183
0.897835
0.919942
0.928424
0.932665
0.936277
0.940895
0.935275
0.912868
0.900837
0.899518
0.900432
0.903622
0.909829
0.935636
0.97427
0.993714
1.00118
1.00518
1.00981
1.0148
1.0063
0.980094
0.965192
0.962834
0.963984
0.967907
0.980027
1.01947
1.05631
1.07212
1.07917
1.08377
1.08958
1.09184
1.07054
1.04075
1.02832
1.02713
1.03043
1.03933
1.07399
1.11892
1.14364
1.1548
1.16292
1.16986
1.17148
1.14958
1.11076
1.08666
1.08037
1.08219
1.09361
1.1359
1.17803
1.19798
1.20607
1.20923
1.2092
1.19292
1.15352
2.47366
12.7159
0.75308
0.758219
0.756269
0.745121
0.740777
0.74206
0.744405
0.747189
0.751238
0.765498
0.790957
0.803992
0.809516
0.812779
0.815893
0.815498
0.801279
0.790481
0.79002
0.792976
0.796403
0.79969
0.806425
0.831567
0.856266
0.866387
0.871923
0.87678
0.880835
0.876916
0.856879
0.844743
0.844404
0.847818
0.851797
0.855976
0.869573
0.902697
0.924021
0.932981
0.939597
0.944988
0.949151
0.943049
0.919679
0.904402
0.902319
0.905677
0.910567
0.916601
0.939653
0.976246
0.995384
1.00473
1.01236
1.0182
1.02241
1.01494
0.988576
0.969514
0.965322
0.96869
0.974335
0.985924
1.02211
1.05715
1.07308
1.0831
1.09197
1.09847
1.10078
1.08075
1.04809
1.03137
1.02853
1.0319
1.03904
1.0702
1.11922
1.14889
1.16132
1.16801
1.1733
1.17472
1.15617
1.11589
1.08787
1.07937
1.08015
1.08973
1.13026
1.17324
1.19403
1.20162
1.20521
1.19978
1.19697
2.46789
12.776
0.756707
0.762116
0.76444
0.758517
0.747196
0.744784
0.746736
0.749721
0.752741
0.757184
0.774284
0.799354
0.811116
0.816715
0.82047
0.8237
0.821113
0.805503
0.796559
0.796362
0.798001
0.800852
0.804634
0.813286
0.840578
0.8644
0.874026
0.878785
0.881959
0.886021
0.883435
0.864444
0.853011
0.851881
0.852869
0.855565
0.860036
0.875288
0.910262
0.933076
0.941721
0.945992
0.949706
0.954617
0.952038
0.929884
0.91385
0.910763
0.91131
0.913788
0.919356
0.94269
0.982793
1.00502
1.01344
1.01774
1.02227
1.02773
1.02461
0.999353
0.978693
0.973362
0.973635
0.976798
0.986454
1.02334
1.06447
1.08432
1.09295
1.09912
1.10484
1.10733
1.08895
1.05514
1.0356
1.03179
1.03523
1.04251
1.06955
1.11732
1.14851
1.16201
1.16984
1.17532
1.17718
1.16228
1.12204
1.08943
1.07787
1.07739
1.08484
1.12356
1.16753
1.18884
1.19778
1.19523
1.21914
2.51041
12.8378
0.759156
0.765799
0.768634
0.770262
0.760594
0.750777
0.750113
0.752253
0.754782
0.757404
0.762319
0.782399
0.807519
0.818816
0.824388
0.828411
0.831673
0.827354
0.809522
0.799891
0.800311
0.803583
0.807088
0.81052
0.819075
0.847026
0.870052
0.879293
0.885176
0.890305
0.894432
0.890496
0.870084
0.856312
0.854837
0.857937
0.862031
0.866259
0.879733
0.913363
0.935775
0.945458
0.952655
0.958328
0.962855
0.960225
0.93857
0.918754
0.913177
0.915555
0.920162
0.926153
0.94633
0.983668
1.0057
1.01609
1.02432
1.03061
1.03549
1.03283
1.00851
0.983967
0.975499
0.977264
0.982477
0.991897
1.02464
1.06577
1.08635
1.09558
1.10204
1.10791
1.11305
1.10079
1.06618
1.04306
1.03704
1.03765
1.04173
1.06404
1.11416
1.1497
1.16437
1.17183
1.17763
1.18049
1.16789
1.1267
1.08974
1.07516
1.07368
1.07984
1.11732
1.16079
1.18383
1.18712
1.22402
2.58696
12.9035
0.759706
0.770421
0.77337
0.776645
0.775818
0.762676
0.75432
0.753861
0.755714
0.758729
0.762306
0.76873
0.790922
0.815068
0.825364
0.830444
0.834362
0.837651
0.833624
0.816515
0.807597
0.807246
0.808507
0.811144
0.815067
0.825199
0.854662
0.878152
0.887589
0.892202
0.895478
0.899884
0.898312
0.879056
0.86508
0.862707
0.863218
0.865274
0.869564
0.883849
0.919792
0.945028
0.954601
0.959188
0.962678
0.967712
0.968706
0.949762
0.92856
0.922113
0.92207
0.923801
0.928532
0.947385
0.988106
1.01491
1.02523
1.03022
1.03464
1.04045
1.0416
1.02011
0.99366
0.983954
0.982799
0.984545
0.991182
1.02148
1.06593
1.08999
1.10099
1.10979
1.11674
1.12077
1.10919
1.07336
1.04598
1.03744
1.03917
1.04488
1.06485
1.1123
1.15058
1.16735
1.17393
1.17789
1.17993
1.17109
1.13224
1.09114
1.07275
1.06958
1.07435
1.11027
1.15369
1.17107
1.21829
2.67733
12.9685
0.75527
0.774033
0.778387
0.781426
0.784059
0.779467
0.763943
0.757243
0.758392
0.761474
0.764753
0.767855
0.774187
0.798139
0.822056
0.832009
0.837263
0.841732
0.845352
0.840458
0.82131
0.810659
0.810588
0.813681
0.817197
0.82072
0.829963
0.859193
0.882533
0.8922
0.8987
0.903989
0.908255
0.906108
0.886376
0.869047
0.864998
0.867457
0.871587
0.876164
0.88843
0.921963
0.946632
0.957283
0.964927
0.970992
0.975765
0.976679
0.959579
0.93535
0.924857
0.925318
0.929513
0.935181
0.951134
0.988162
1.01461
1.02695
1.03645
1.04361
1.04895
1.04978
1.02944
0.999837
0.985633
0.984438
0.98865
0.995546
1.02083
1.06661
1.09696
1.10905
1.11465
1.11885
1.12388
1.11824
1.08554
1.05569
1.04485
1.04337
1.04546
1.05971
1.10565
1.14617
1.16383
1.17193
1.17787
1.18123
1.17488
1.13773
1.09242
1.06934
1.06421
1.06782
1.10423
1.13957
1.19834
2.76635
13.0209
0.74413
0.772584
0.781097
0.785658
0.788708
0.790682
0.78311
0.768239
0.763561
0.764434
0.766147
0.769055
0.772768
0.781034
0.806583
0.829502
0.838899
0.84356
0.84664
0.849928
0.846805
0.828996
0.818503
0.817432
0.818308
0.820723
0.824648
0.83526
0.86611
0.891131
0.900997
0.90561
0.908631
0.912973
0.913837
0.896526
0.878343
0.873551
0.873733
0.875176
0.879066
0.891011
0.926077
0.955048
0.966624
0.97179
0.975178
0.980086
0.983824
0.971186
0.945877
0.93417
0.932641
0.933577
0.937324
0.950763
0.990051
1.02342
1.03729
1.04343
1.04752
1.05316
1.05701
1.04149
1.01033
0.99399
0.990701
0.991597
0.995892
1.01685
1.06329
1.09436
1.10761
1.11794
1.12646