/*--------------------------------*- C++ -*----------------------------------*\
  =========                 |
  \\      /  F ield         | OpenFOAM: The Open Source CFD Toolbox
   \\    /   O peration     | Website:  https://openfoam.org
    \\  /    A nd           | Version:  12
     \\/     M anipulation  |
\*---------------------------------------------------------------------------*/
FoamFile
{
    format      ascii;
    class       volScalarField;
    location    "14.1";
    object      rho;
}
// * * * * * * * * * * * * * * * * * * * * * * * * * * * * * * * * * * * * * //

dimensions      [1 -3 0 0 0 0 0];

internalField   nonuniform List<scalar> 
9801
(
1.04917
1.05003
1.05135
1.05425
1.05767
1.064
1.07644
1.089
1.09568
1.09929
1.10222
1.10403
1.10486
1.10611
1.10853
1.11169
1.11606
1.12548
1.14053
1.15099
1.15627
1.15965
1.16198
1.16286
1.16367
1.16564
1.16877
1.17263
1.17948
1.19443
1.20867
1.21599
1.22021
1.22305
1.22358
1.22384
1.22542
1.2284
1.23223
1.238
1.2516
1.27044
1.28116
1.28679
1.29007
1.28973
1.28856
1.28943
1.29239
1.29652
1.30199
1.3147
1.33829
1.35393
1.36104
1.36511
1.36345
1.35949
1.35983
1.3634
1.36881
1.37528
1.38966
1.4173
1.43692
1.44652
1.45327
1.45116
1.44163
1.43952
1.44382
1.45141
1.46118
1.48389
1.51934
1.54283
1.55571
1.56389
1.55874
1.54359
1.53848
1.54522
1.55768
1.58054
1.63209
1.675
1.69808
1.71568
1.72787
1.71646
1.69256
1.68962
1.71521
1.76487
1.86375
1.96822
2.05922
3.05129
9.12234
1.05379
1.05428
1.05642
1.0599
1.06356
1.07022
1.08349
1.09423
1.10057
1.10499
1.10861
1.10967
1.10841
1.10992
1.11323
1.11703
1.1214
1.1311
1.14581
1.15536
1.16105
1.1653
1.16801
1.16594
1.16564
1.16865
1.17279
1.17715
1.18352
1.19845
1.21288
1.22053
1.22548
1.22926
1.22728
1.22429
1.22657
1.23087
1.23567
1.24126
1.25389
1.27324
1.28475
1.29104
1.29565
1.29493
1.28866
1.28902
1.29336
1.29863
1.30441
1.31601
1.33889
1.35533
1.36361
1.36933
1.36986
1.36052
1.35834
1.36282
1.36919
1.37588
1.38963
1.41755
1.43741
1.44769
1.45506
1.45593
1.44342
1.43801
1.44267
1.45116
1.46111
1.48361
1.51912
1.54128
1.55376
1.56355
1.56487
1.54499
1.53568
1.54356
1.55724
1.57854
1.62177
1.66199
1.68717
1.70759
1.72623
1.72166
1.69497
1.68877
1.71056
1.74887
1.81764
1.89693
1.95724
2.91671
9.14508
1.05289
1.05349
1.05544
1.05886
1.06259
1.06908
1.08232
1.09297
1.09914
1.10367
1.10746
1.10904
1.10769
1.10881
1.11196
1.11581
1.12018
1.12966
1.14439
1.15389
1.15958
1.164
1.16708
1.16531
1.16451
1.16722
1.17123
1.17562
1.18165
1.19619
1.21083
1.2187
1.22387
1.22794
1.22661
1.22331
1.22519
1.22931
1.23408
1.23938
1.25096
1.27017
1.28202
1.28857
1.29351
1.29374
1.28759
1.28736
1.29139
1.29661
1.30232
1.31248
1.33424
1.35102
1.35974
1.36589
1.36824
1.3598
1.35554
1.35882
1.36508
1.37197
1.38441
1.41062
1.43096
1.44178
1.44955
1.45332
1.44303
1.43421
1.43663
1.4444
1.4538
1.47304
1.50644
1.53007
1.54425
1.55553
1.56163
1.54425
1.5288
1.53354
1.54661
1.5629
1.59687
1.64322
1.6759
1.69724
1.71582
1.71686
1.6919
1.68004
1.69267
1.72569
1.77844
1.84681
1.88623
2.85216
9.0293
1.05243
1.05284
1.05413
1.05723
1.0611
1.06801
1.0813
1.09188
1.09797
1.10243
1.10625
1.10843
1.10679
1.10697
1.10963
1.11345
1.11825
1.12816
1.14267
1.15203
1.15764
1.16206
1.16553
1.16414
1.16205
1.1639
1.16757
1.17215
1.17864
1.19307
1.20789
1.216
1.22131
1.22567
1.22546
1.22075
1.22097
1.22429
1.22898
1.23459
1.24596
1.26516
1.2777
1.28457
1.28983
1.29187
1.28541
1.28244
1.28499
1.28966
1.29552
1.30541
1.32677
1.34456
1.35379
1.36021
1.36453
1.35762
1.3493
1.35069
1.35616
1.36299
1.37437
1.39927
1.4216
1.43355
1.44166
1.4477
1.44096
1.42649
1.42542
1.43238
1.44152
1.45675
1.48886
1.51651
1.53177
1.54274
1.55136
1.54268
1.52175
1.51771
1.52864
1.5432
1.56697
1.61021
1.6471
1.67062
1.68997
1.70205
1.68662
1.66727
1.6666
1.68911
1.72525
1.78126
1.81182
2.82985
8.94648
1.05072
1.05101
1.05176
1.05452
1.05817
1.06526
1.07888
1.08937
1.09531
1.09962
1.10329
1.10578
1.10448
1.10402
1.10632
1.1098
1.11439
1.12459
1.1392
1.14842
1.15387
1.15817
1.16173
1.16124
1.15853
1.15978
1.16304
1.16717
1.17329
1.18756
1.2028
1.21112
1.21638
1.22075
1.22202
1.21716
1.21615
1.21902
1.2232
1.22817
1.23845
1.25751
1.27089
1.27802
1.28329
1.28676
1.28165
1.27612
1.27778
1.28227
1.28787
1.29687
1.31708
1.33541
1.34514
1.35164
1.35675
1.35357
1.34293
1.34157
1.34641
1.35297
1.36271
1.38497
1.40887
1.42208
1.43056
1.43759
1.43787
1.42262
1.41459
1.41911
1.42766
1.43924
1.46597
1.49854
1.51735
1.52902
1.53934
1.54205
1.52147
1.50649
1.50992
1.52325
1.54112
1.57597
1.61859
1.64908
1.67097
1.69013
1.69042
1.66974
1.65841
1.66262
1.6851
1.72791
1.7566
2.81807
8.91025
1.04883
1.04913
1.0496
1.05224
1.05559
1.06196
1.07578
1.08668
1.09259
1.09673
1.10022
1.10292
1.10217
1.1013
1.1033
1.10654
1.11052
1.11975
1.135
1.14478
1.15027
1.1544
1.15793
1.15846
1.15537
1.15582
1.15876
1.16257
1.16766
1.18088
1.19717
1.20625
1.21167
1.21599
1.21848
1.21434
1.2113
1.21327
1.21716
1.22186
1.23068
1.24932
1.26392
1.27179
1.27728
1.2817
1.27978
1.27172
1.27077
1.27465
1.28012
1.28815
1.30687
1.3264
1.33713
1.34409
1.34984
1.35187
1.34194
1.3347
1.33707
1.34306
1.35136
1.37016
1.39682
1.41302
1.4223
1.42977
1.43536
1.42496
1.41004
1.40874
1.41593
1.42574
1.44461
1.47991
1.50709
1.52169
1.53235
1.5402
1.52868
1.50627
1.50065
1.50945
1.52358
1.54705
1.58739
1.62437
1.65084
1.6728
1.68912
1.68199
1.66305
1.6549
1.66134
1.68547
1.71307
2.81438
8.90738
1.0469
1.04728
1.04769
1.05035
1.05365
1.05942
1.07261
1.08373
1.08983
1.09415
1.0978
1.10093
1.1007
1.09902
1.10051
1.10363
1.10744
1.11553
1.13061
1.14111
1.14698
1.15131
1.15512
1.15695
1.15328
1.15209
1.15456
1.15848
1.16361
1.17581
1.19215
1.20191
1.20774
1.21229
1.2161
1.21428
1.20819
1.20809
1.21162
1.21657
1.2252
1.24311
1.25837
1.26672
1.27253
1.27754
1.2797
1.27193
1.2666
1.26871
1.27367
1.28055
1.2972
1.31907
1.33177
1.33919
1.34523
1.35019
1.34464
1.3331
1.33123
1.33599
1.3431
1.35646
1.38448
1.40692
1.41814
1.42578
1.43261
1.4296
1.41181
1.40458
1.40884
1.41753
1.42937
1.45779
1.49391
1.51538
1.5279
1.53834
1.54109
1.52055
1.50322
1.50253
1.51299
1.52848
1.55842
1.5985
1.63093
1.65568
1.67728
1.6877
1.67813
1.66066
1.6498
1.6577
1.67265
2.80215
8.92043
1.04612
1.04634
1.04635
1.04886
1.05214
1.0579
1.0709
1.08206
1.08824
1.09269
1.09653
1.09998
1.1006
1.09792
1.09856
1.1014
1.10518
1.11288
1.12791
1.13896
1.14502
1.14956
1.15357
1.15659
1.15381
1.15026
1.15173
1.15529
1.16027
1.17203
1.18885
1.19925
1.20532
1.21017
1.21455
1.21586
1.20892
1.20585
1.20841
1.21281
1.22016
1.2375
1.25472
1.264
1.27009
1.27536
1.27968
1.27535
1.26647
1.26572
1.26972
1.27536
1.28773
1.31194
1.32924
1.33787
1.34403
1.34964
1.34929
1.33601
1.32974
1.33232
1.33867
1.34714
1.36954
1.39959
1.41619
1.42498
1.43222
1.4356
1.42204
1.40716
1.40551
1.41209
1.42116
1.43706
1.47286
1.50565
1.52395
1.5362
1.54654
1.54312
1.51787
1.50446
1.50782
1.51971
1.53757
1.57091
1.60729
1.6356
1.65865
1.67903
1.68412
1.67468
1.65611
1.64229
1.63216
2.77961
8.94392
1.04654
1.04686
1.046
1.04816
1.05128
1.05633
1.06915
1.08166
1.08835
1.09283
1.09662
1.10005
1.10137
1.09824
1.0978
1.1003
1.1039
1.11036
1.12547
1.13828
1.145
1.14962
1.15358
1.157
1.15567
1.1508
1.15096
1.15406
1.15831
1.16779
1.18578
1.19822
1.20496
1.21
1.21443
1.21729
1.21193
1.20647
1.20749
1.2114
1.21675
1.23087
1.25174
1.26384
1.2705
1.27573
1.28045
1.27977
1.26934
1.2654
1.26795
1.27317
1.28093
1.30255
1.3266
1.3384
1.34493
1.35052
1.35364
1.34357
1.33198
1.33142
1.33659
1.34331
1.35554
1.38588
1.41226
1.42496
1.43304
1.43994
1.43743
1.41804
1.40708
1.40827
1.41582
1.42579
1.44896
1.48849
1.51731
1.53361
1.54546
1.55352
1.54342
1.51961
1.51012
1.51521
1.52724
1.54752
1.58255
1.61566
1.64074
1.66072
1.67692
1.67811
1.66699
1.64452
1.60826
2.7438
8.97363
1.04793
1.0487
1.04694
1.04877
1.05179
1.05596
1.0673
1.08181
1.08958
1.09414
1.09787
1.10126
1.10316
1.10008
1.09855
1.10058
1.104
1.10899
1.12259
1.13805
1.14607
1.15093
1.15497
1.15862
1.15899
1.15333
1.15191
1.15433
1.15821
1.16465
1.18175
1.198
1.20609
1.2112
1.21565
1.21946
1.21675
1.20903
1.20815
1.2113
1.216
1.22512
1.24694
1.26411
1.2721
1.27737
1.28208
1.28417
1.27522
1.26735
1.26826
1.27281
1.27859
1.29198
1.31954
1.33803
1.34636
1.35221
1.35749
1.35448
1.33964
1.3333
1.33529
1.34107
1.34855
1.36853
1.40281
1.42424
1.43486
1.44267
1.44863
1.43698
1.41529
1.40899
1.41324
1.42198
1.43306
1.46153
1.50067
1.52569
1.54068
1.55264
1.55971
1.5473
1.52368
1.51575
1.52191
1.5345
1.5574
1.59228
1.62171
1.64366
1.66146
1.67135
1.66981
1.65234
1.61003
2.69896
9.00426
1.05005
1.05167
1.04917
1.05051
1.05333
1.0569
1.06583
1.08157
1.09116
1.09617
1.09998
1.10339
1.10587
1.10341
1.10057
1.10192
1.10501
1.10904
1.11956
1.13724
1.14762
1.15303
1.15716
1.16092
1.16294
1.15791
1.15417
1.1557
1.15913
1.16379
1.17679
1.1967
1.20754
1.21324
1.21769
1.22179
1.22208
1.21374
1.21015
1.21236
1.21656
1.22239
1.23933
1.26215
1.27356
1.27949
1.28427
1.28826
1.28378
1.27265
1.27027
1.27324
1.27835
1.28553
1.30725
1.33441
1.34766
1.35458
1.36043
1.36368
1.35258
1.33781
1.3353
1.33943
1.34619
1.3562
1.38499
1.41789
1.43453
1.44333
1.45046
1.45401
1.43764
1.41831
1.41456
1.41876
1.42689
1.44029
1.47405
1.51177
1.53476
1.54914
1.5607
1.5642
1.5494
1.52805
1.52148
1.52777
1.54047
1.56607
1.60083
1.62749
1.6458
1.65861
1.66394
1.65747
1.62404
2.66536
9.03298
1.0527
1.05541
1.05238
1.05306
1.05562
1.05885
1.06504
1.08044
1.09262
1.09856
1.10258
1.10607
1.10903
1.10784
1.10367
1.10402
1.10677
1.11036
1.11727
1.13478
1.14885
1.15549
1.15982
1.16362
1.1667
1.16384
1.1578
1.15786
1.1608
1.16475
1.17274
1.19275
1.20836
1.21551
1.22021
1.22441
1.22708
1.22083
1.2138
1.21431
1.21773
1.22234
1.2319
1.25575
1.27383
1.28171
1.28692
1.29171
1.29288
1.2817
1.27355
1.27408
1.27807
1.28367
1.29521
1.32415
1.3469
1.35702
1.36349
1.36916
1.36775
1.35001
1.33929
1.33991
1.34505
1.35179
1.36506
1.39967
1.4292
1.44319
1.45207
1.46014
1.46074
1.43838
1.42015
1.41844
1.42465
1.43386
1.44922
1.48485
1.51968
1.54042
1.55433
1.56558
1.56863
1.55292
1.53171
1.52557
1.53163
1.54463
1.57293
1.60712
1.63053
1.64516
1.65343
1.65498
1.63906
2.65028
9.05691
1.05578
1.05958
1.05642
1.05602
1.05816
1.06119
1.06544
1.07829
1.09351
1.10106
1.10543
1.10903
1.11227
1.11285
1.108
1.10667
1.10895
1.11236
1.11694
1.13078
1.1487
1.15756
1.16248
1.16643
1.17002
1.1701
1.1631
1.16062
1.16285
1.16644
1.1713
1.18635
1.20718
1.21745
1.22292
1.22728
1.23119
1.22937
1.21974
1.21669
1.21885
1.22287
1.2284
1.24547
1.27075
1.28354
1.28986
1.29477
1.2989
1.29368
1.27987
1.27577
1.27835
1.28333
1.28964
1.3082
1.33946
1.35693
1.36485
1.37091
1.37615
1.37007
1.35078
1.34265
1.34365
1.34879
1.3562
1.37557
1.41446
1.44099
1.45303
1.46074
1.467
1.46425
1.44168
1.42623
1.42547
1.43092
1.43958
1.4575
1.49475
1.52716
1.54653
1.55989
1.57016
1.57119
1.55507
1.53418
1.5278
1.53315
1.54654
1.57743
1.61077
1.63073
1.64132
1.64524
1.64784
2.65716
9.07823
1.05915
1.06376
1.06105
1.05916
1.06065
1.06348
1.06696
1.07601
1.09304
1.1032
1.10829
1.11204
1.11542
1.11762
1.1137
1.11004
1.11138
1.11449
1.11822
1.1269
1.14614
1.159
1.16503
1.16924
1.17302
1.17546
1.17012
1.16431
1.1649
1.16792
1.17192
1.18057
1.20234
1.2185
1.22559
1.23026
1.23447
1.23675
1.22839
1.22013
1.22027
1.22355
1.22814
1.23687
1.26154
1.28306
1.29233
1.29788
1.30268
1.30463
1.29237
1.28082
1.27982
1.2829
1.28812
1.29633
1.3227
1.35242
1.36649
1.37401
1.38029
1.38412
1.37038
1.3504
1.34522
1.34861
1.35489
1.36244
1.38519
1.42446
1.44771
1.45893
1.46769
1.47533
1.47028
1.44519
1.43008
1.43008
1.43676
1.44642
1.46667
1.50352
1.53286
1.55074
1.56387
1.57352
1.57399
1.55649
1.53469
1.52778
1.5323
1.54591
1.57868
1.61041
1.62742
1.63325
1.64721
2.68592
9.10048
1.06253
1.06759
1.06609
1.06264
1.06318
1.06573
1.06895
1.07469
1.09062
1.10452
1.11095
1.11503
1.11855
1.12165
1.12028
1.11458
1.11407
1.11657
1.11999
1.12513
1.14114
1.15902
1.1672
1.17194
1.17586
1.17936
1.17783
1.16949
1.16716
1.16944
1.17313
1.17821
1.19428
1.21685
1.22767
1.23313
1.23742
1.24132
1.23867
1.22672
1.22263
1.22474
1.22872
1.23383
1.24837
1.27663
1.29312
1.30032
1.30562
1.31034
1.30799
1.29153
1.28246
1.28305
1.28715
1.29288
1.30544
1.33815
1.36414
1.37501
1.38107
1.38644
1.38903
1.37286
1.35492
1.351
1.35295
1.35835
1.36719
1.39539
1.43552
1.45784
1.46831
1.4759
1.48102
1.47355
1.45017
1.43655
1.43667
1.44267
1.4522
1.47539
1.51218
1.53893
1.55511
1.5673
1.57596
1.57582
1.55716
1.53389
1.52595
1.5295
1.54331
1.57743
1.6071
1.61979
1.63777
2.72915
9.1256
1.06569
1.07105
1.07124
1.06707
1.06598
1.06799
1.07099
1.07488
1.08683
1.10433
1.11324
1.11795
1.12165
1.12503
1.12641
1.12065
1.11716
1.11868
1.12181
1.12567
1.13578
1.15629
1.16881
1.17456
1.17864
1.18238
1.18429
1.17699
1.17058
1.17138
1.1746
1.17861
1.18686
1.2098
1.22813
1.23573
1.24035
1.24453
1.24701
1.23782
1.22741
1.22638
1.22902
1.23342
1.24016
1.26252
1.28981
1.30244
1.309
1.31423
1.31819
1.30899
1.29109
1.2857
1.28799
1.29271
1.29854
1.31479
1.34974
1.37226
1.38238
1.38955
1.39599
1.39552
1.374
1.35637
1.354
1.35862
1.3653
1.37419
1.40333
1.44205
1.46234
1.47269
1.48125
1.48803
1.48023
1.45538
1.44119
1.44127
1.44803
1.45849
1.48408
1.51954
1.54378
1.55901
1.5708
1.57909
1.57824
1.55706
1.53173
1.52254
1.52501
1.53913
1.57416
1.59893
1.62238
2.77924
9.15221
1.06864
1.07432
1.07608
1.07269
1.06922
1.0703
1.07301
1.07636
1.08368
1.10173
1.11483
1.12072
1.1246
1.12803
1.13091
1.12796
1.12144
1.12116
1.12383
1.12731
1.1327
1.14998
1.16861
1.17678
1.18141
1.1853
1.18879
1.18623
1.17655
1.17404
1.17624
1.17973
1.18429
1.19883
1.22413
1.23734
1.24334
1.2477
1.25183
1.25033
1.23638
1.22893
1.23006
1.23378
1.23869
1.24886
1.27735
1.30055
1.30996
1.31541
1.32031
1.32359
1.31093
1.29436
1.2905
1.29208
1.29645
1.30325
1.32568
1.36236
1.38254
1.39101
1.39631
1.40169
1.4004
1.37907
1.36343
1.36118
1.36357
1.36904
1.37923
1.41179
1.45029
1.47053
1.48071
1.48846
1.49295
1.48432
1.46115
1.44698
1.4462
1.4519
1.46257
1.49126
1.52675
1.54959
1.5636
1.57429
1.58149
1.57964
1.55667
1.52865
1.51751
1.51865
1.53429
1.56667
1.59828
2.82728
9.17585
1.07141
1.07744
1.07996
1.0789
1.07344
1.07289
1.07526
1.07845
1.08287
1.09679
1.11459
1.12292
1.12736
1.13095
1.1343
1.135
1.12789
1.12432
1.12591
1.12897
1.13273
1.14274
1.16471
1.17839
1.18435
1.1884
1.19216
1.19414
1.18585
1.17793
1.17798
1.18088
1.18476
1.19142
1.21324
1.23611
1.24596
1.25138
1.2555
1.25872
1.25083
1.23638
1.23289
1.23512
1.23895
1.24405
1.25843
1.28974
1.30944
1.31794
1.32385
1.32924
1.32943
1.31139
1.29574
1.29368
1.29733
1.30261
1.30934
1.33392
1.36969
1.38785
1.3972
1.40476
1.4109
1.40659
1.38233
1.36597
1.36434
1.36925
1.37613
1.3865
1.41858
1.45523
1.4742
1.48454
1.49319
1.49905
1.49072
1.46561
1.44998
1.44894
1.45504
1.46694
1.49746
1.53217
1.55365
1.56709
1.57747
1.58353
1.57995
1.55575
1.52493
1.51071
1.5112
1.5261
1.56595
2.85882
9.19426
1.07384
1.08033
1.08309
1.08463
1.0795
1.0763
1.07782
1.0807
1.08401
1.09189
1.11107
1.12429
1.13009
1.13393
1.1374
1.14021
1.13618
1.12871
1.12812
1.13068
1.13417
1.13923
1.15625
1.17745
1.18678
1.1915
1.19532
1.19888
1.19664
1.18494
1.18064
1.18259
1.18611
1.19026
1.20056
1.22714
1.24578
1.25323
1.25819
1.2626
1.2645
1.25205
1.23896
1.23698
1.23928
1.24337
1.24937
1.2699
1.30198
1.31851
1.32552
1.33007
1.33506
1.33437
1.31516
1.30132
1.2994
1.30134
1.30605
1.31431
1.34396
1.38061
1.39794
1.40562
1.41077
1.41592
1.41203
1.38918
1.37395
1.37186
1.37441
1.37989
1.39151
1.42655
1.46276
1.48102
1.49075
1.49857
1.50287
1.49467
1.4705
1.45424
1.45205
1.4568
1.4686
1.50133
1.53684
1.55784
1.57021
1.57914
1.58375
1.57908
1.55456
1.52124
1.50287
1.49885
1.52695
2.86161
9.21222
1.07583
1.08327
1.08624
1.0892
1.08701
1.08097
1.08051
1.08273
1.08581
1.09017
1.10458
1.12374
1.13249
1.13695
1.14042
1.14369
1.14412
1.13574
1.13122
1.13275
1.13599
1.13966
1.14771
1.17035
1.18752
1.19446
1.19853
1.20229
1.20487
1.19689
1.18627
1.18498
1.18727
1.19069
1.19547
1.21139
1.23941
1.25449
1.26145
1.26658
1.27099
1.26939
1.25222
1.2411
1.24112
1.24464
1.24913
1.25561
1.27972
1.31081
1.32526
1.3327
1.33876
1.3439
1.33923
1.31649
1.30302
1.30295
1.30762
1.31323
1.32113
1.3503
1.3852
1.40149
1.41049
1.41807
1.42393
1.4187
1.39422
1.37721
1.37482
1.37957
1.38659
1.39928
1.43383
1.46711
1.48399
1.49415
1.50284
1.5085
1.50019
1.47357
1.45566
1.45307
1.45792
1.47037
1.5037
1.53894
1.55949
1.57141
1.57947
1.5827
1.57716
1.55242
1.51794
1.49213
1.48887
2.83333
9.23462
1.07754
1.08647
1.08954
1.09274
1.09378
1.0873
1.08353
1.085
1.08794
1.09131
1.09886
1.11875
1.1335
1.13962
1.14342
1.14691
1.14989
1.14567
1.13669
1.13545
1.13777
1.141
1.14506
1.15855
1.18347
1.19641
1.20205
1.2059
1.20956
1.20935
1.19668
1.18821
1.18849
1.19162
1.19558
1.20177
1.22364
1.2505
1.26249
1.26818
1.2726
1.27702
1.27346
1.25542
1.24645
1.24645
1.24892
1.25339
1.26185
1.29094
1.32118
1.33423
1.34028
1.3443
1.34925
1.34446
1.32253
1.31093
1.30996
1.31189
1.31649
1.32578
1.35847
1.39445
1.41074
1.41812
1.42338
1.42845
1.42459
1.40184
1.38523
1.38229
1.38486
1.3903
1.40395
1.4411
1.47436
1.49047
1.49932
1.50687
1.51198
1.50466
1.4783
1.45907
1.4552
1.45871
1.46959
1.50321
1.53956
1.56046
1.57167
1.57818
1.58018
1.5738
1.54962
1.50815
1.47424
2.77315
9.26173
1.0785
1.08975
1.09274
1.09587
1.09847
1.09533
1.08834
1.08781
1.09018
1.09325
1.09706
1.10997
1.13135
1.14192
1.14686
1.15043
1.15385
1.15489
1.1457
1.13898
1.13953
1.14238
1.14596
1.15162
1.17155
1.19495
1.20491
1.20973
1.21329
1.21668
1.21173
1.19691
1.19171
1.19343
1.19674
1.20081
1.20855
1.23465
1.25944
1.26989
1.27583
1.281
1.28487
1.27648
1.2566
1.2489
1.25076
1.255
1.25965
1.26829
1.29845
1.32703
1.33923
1.34667
1.35282
1.35755
1.34994
1.3262
1.31328
1.31315
1.31777
1.32357
1.33232
1.3633
1.39752
1.41326
1.42214
1.4297
1.43557
1.43177
1.40846
1.38936
1.38492
1.38876
1.39559
1.41067
1.44699
1.4774
1.49259
1.50304
1.51225
1.51794
1.50971
1.48111
1.45981
1.45479
1.45831
1.4687
1.50181
1.53877
1.55989
1.57036
1.57554
1.57605
1.56993
1.54017
1.48944
2.70378
9.29552
1.0771
1.09188
1.0956
1.09906
1.10221
1.10321
1.09591
1.09127
1.09227
1.09488
1.09815
1.1041
1.12348
1.14232
1.14988
1.15385
1.15725
1.16043
1.15708
1.14557
1.14222
1.14433
1.14777
1.15143
1.15932
1.18401
1.20428
1.21229
1.21699
1.22078
1.22331
1.21394
1.19966
1.19625
1.19793
1.20114
1.20558
1.21647
1.24608
1.26859
1.27759
1.28239
1.28634
1.29025
1.28093
1.26198
1.25576
1.25632
1.25885
1.2635
1.27453
1.30807
1.33657
1.34812
1.35365
1.35767
1.3625
1.35654
1.33403
1.32182
1.32047
1.32212
1.32645
1.33613
1.36984
1.40569
1.42178
1.42914
1.43464
1.44011
1.43839
1.41645
1.39632
1.39107
1.3929
1.39802
1.41312
1.45207
1.48499
1.50059
1.50875
1.51567
1.52073
1.51399
1.486
1.46263
1.45574
1.4578
1.46639
1.49886
1.53701
1.55837
1.56777
1.57117
1.5717
1.56106
1.52847
2.65941
9.33149
1.07289
1.09339
1.09892
1.10252
1.10562
1.10837
1.10522
1.09651
1.09486
1.09711
1.10034
1.10392
1.1136
1.13659
1.1511
1.15704
1.16066
1.16411
1.1662
1.15756
1.1477
1.147
1.14932
1.15239
1.15632
1.16819
1.19568
1.21289
1.22014
1.22493
1.22889
1.22981
1.21559
1.20172
1.20004
1.20318
1.20704
1.21139
1.22386
1.25483
1.2754
1.28392
1.28977
1.29497
1.29771
1.28438
1.26437
1.2583
1.26068
1.26529
1.27004
1.28048
1.31311
1.34023
1.35185
1.35955
1.36585
1.37047
1.36349
1.33976
1.32473
1.323
1.32722
1.33314
1.34273
1.3744
1.40809
1.42384
1.43306
1.44089
1.44688
1.44498
1.42262
1.40021
1.39306
1.39552
1.40186
1.41775
1.45547
1.48643
1.50135
1.5114
1.52032
1.52615
1.51951
1.48985
1.4636
1.45473
1.45594
1.46339
1.49525
1.53416
1.5555
1.56346
1.56651
1.56292
1.56067
2.65695
9.36566
1.06711
1.09132
1.10105
1.10555
1.10872
1.11183
1.1134
1.10586
1.09931
1.09989
1.1025
1.10557
1.10959
1.12429
1.14811
1.1594
1.16442
1.16788
1.17123
1.17042
1.15775
1.15019
1.15078
1.15383
1.1574
1.162
1.17839
1.20626
1.22054
1.22661
1.23102
1.23505
1.23501
1.21945
1.20742
1.20632
1.20812
1.21151
1.21633
1.23227
1.26472
1.28408
1.2918
1.296
1.3
1.30332
1.29065
1.2716
1.26607
1.26649
1.26871
1.27333
1.28565
1.32102
1.34932
1.36063
1.36611
1.37025
1.37541
1.37124
1.3485
1.33321
1.33062
1.33209
1.33615
1.34575
1.37978
1.41584
1.43205
1.43939
1.44482
1.4507
1.45144
1.43061
1.40656
1.39831
1.39883
1.40309
1.41702
1.45639
1.49227
1.50957
1.51762
1.52407
1.52824
1.52247
1.49414
1.46538
1.45405
1.45382
1.45974
1.49079
1.53035
1.55106
1.55875
1.55674
1.57479
2.68662
9.39512
1.06348
1.08277
1.10087
1.10829
1.11221
1.11546
1.11858
1.11711
1.10696
1.10306
1.10443
1.10721
1.11052
1.11633
1.13627
1.15829
1.16743
1.17175
1.17492
1.17801
1.17296
1.1587
1.15416
1.15598
1.15918
1.16263
1.16774
1.18775
1.21499
1.22765
1.23378
1.23867
1.24292
1.24031
1.22168
1.21005
1.21003
1.21363
1.21763
1.2222
1.23886
1.27112
1.28919
1.29721
1.30339
1.30857
1.31067
1.29577
1.27517
1.2683
1.2704
1.27495
1.27994
1.29106
1.32452
1.35173
1.36357
1.37154
1.37796
1.38283
1.37849
1.35575
1.33727
1.33296
1.3364
1.3422
1.35231
1.38429
1.41755
1.43335
1.44312
1.45133
1.45728
1.45717
1.43623
1.4102
1.39956
1.40046
1.40606
1.41999
1.45734
1.49248
1.50944
1.51853
1.52589
1.53106
1.52706
1.49878
1.4665
1.45199
1.45043
1.45551
1.48618
1.52491
1.54535
1.54847
1.57443
2.7397
9.42329
1.06374
1.0732
1.09511
1.10992
1.11578
1.11914
1.12229
1.12478
1.11858
1.10853
1.10716
1.10951
1.11269
1.11602
1.12335
1.14692
1.16687
1.17479
1.17913
1.1826
1.18478
1.17522
1.16192
1.15912
1.16078
1.16363
1.1674
1.17404
1.1977
1.22372
1.23491
1.2402
1.24398
1.248
1.2453
1.22711
1.21703
1.21653
1.21815
1.22156
1.22682
1.24651
1.28
1.29796
1.30509
1.30901
1.31312
1.31649
1.30365
1.28327
1.2765
1.27643
1.27823
1.28261
1.29499
1.33119
1.36057
1.37224
1.37776
1.38188
1.38721
1.38625
1.36501
1.34551
1.34048
1.3415
1.34521
1.3544
1.38798
1.42478
1.44185
1.4494
1.45454
1.46045
1.46321
1.44474
1.41724
1.40522
1.40408
1.40703
1.41734
1.45409
1.49342
1.51348
1.52272
1.52886
1.53298
1.53002
1.50283
1.46713
1.44931
1.44647
1.4509
1.48067
1.51829
1.53366
1.56539
2.80186
9.44959
1.06581
1.07098
1.08397
1.10668
1.11777
1.12265
1.12588
1.12909
1.12992
1.11973
1.11213
1.11232
1.11441
1.11717
1.12081
1.13105
1.15749
1.17538
1.18265
1.18688
1.19025
1.19107
1.17768
1.16449
1.16286
1.16583
1.16944
1.17303
1.18017
1.20589
1.23073
1.24101
1.2468
1.25183
1.25596
1.25042
1.23023
1.21953
1.22001
1.22366
1.22782
1.23268
1.25183
1.28447
1.30168
1.30975
1.31614
1.3213
1.32378
1.31039
1.28816
1.27868
1.27961
1.28403
1.28937
1.30069
1.33415
1.36206
1.37433
1.38239
1.38898
1.39418
1.39315
1.37277
1.35055
1.34287
1.345
1.35032
1.36002
1.39109
1.42526
1.44212
1.45256
1.46138
1.46759
1.46949
1.45088
1.42102
1.40566
1.4039
1.40832
1.41902
1.4536
1.49315
1.51404
1.52353
1.5297
1.5338
1.53196
1.5067
1.46816
1.44624
1.44183
1.44535
1.47549
1.50604
1.54552
2.86268
9.47056
1.06824
1.07239
1.07725
1.09521
1.11665
1.12562
1.12991
1.13313
1.13617
1.13359
1.1207
1.11494
1.11607
1.11905
1.12235
1.12652
1.13998
1.1671
1.18265
1.18917
1.19362
1.19722
1.19676
1.18212
1.17055
1.1693
1.17084
1.17368
1.17774
1.18703
1.21507
1.23894
1.2487
1.25356
1.25688
1.26097
1.25656
1.2373
1.22748
1.22679
1.22804
1.23127
1.23676
1.25815
1.29257
1.3105
1.31749
1.32124
1.32526
1.32932
1.31937
1.29722
1.28739
1.28667
1.28809
1.29205
1.3034
1.33867
1.36981
1.38269
1.38856
1.39283
1.3983
1.40025
1.38228
1.35868
1.35
1.34971
1.3527
1.36037
1.39146
1.43117
1.4514
1.4598
1.46494
1.47045
1.47466
1.46007
1.42949
1.4123
1.40867
1.41059
1.41759
1.44938
1.4906
1.51325
1.52351
1.53005
1.53434
1.53348
1.5103
1.4694
1.44292
1.43589
1.43995
1.46509
1.51524
2.9075
9.48652
1.07098
1.07444
1.07751
1.0846
1.10669
1.12587
1.13341
1.13704
1.13991
1.14246
1.13549
1.1222
1.1193
1.12144
1.12454
1.12769
1.13185
1.14796
1.17555
1.18989
1.19624
1.20087
1.20485
1.20332
1.18591
1.17346
1.17277
1.17599
1.17979
1.18361
1.19285
1.2214
1.24438
1.25376
1.25982
1.26495
1.26891
1.26274
1.24189
1.23003
1.22974
1.23328
1.23771
1.24286
1.26244
1.29544
1.31289
1.32123
1.32788
1.33316
1.3367
1.32749
1.30429
1.29061
1.28925
1.29308
1.29837
1.30882
1.34075
1.37053
1.38418
1.39294
1.39998
1.40542
1.4069
1.38983
1.36398
1.35201
1.35212
1.35685
1.36506
1.39298
1.43046
1.4505
1.46152
1.47138
1.47816
1.48167
1.46719
1.43445
1.41283
1.40724
1.40979
1.41626
1.44509
1.48795
1.51316
1.5243
1.53039
1.53388
1.53297
1.51275
1.47141
1.43985
1.4296
1.4283
1.4766
2.92418
9.50144
1.07464
1.07715
1.07999
1.0833
1.09219
1.11635
1.13352
1.14039
1.14412
1.14728
1.14849
1.1372
1.12574
1.12429
1.12611
1.12888
1.13245
1.13772
1.15682
1.18376
1.19661
1.20221
1.20613
1.20957
1.20808
1.19182
1.18068
1.17963
1.18108
1.18388
1.18807
1.1991
1.22928
1.25247
1.2618
1.26638
1.26953
1.27373
1.27006
1.25031
1.23857
1.23709
1.23791
1.24071
1.24597
1.26683
1.30219
1.32157
1.32908
1.33316
1.3373
1.3421
1.33688
1.31401
1.29927
1.29664
1.29763
1.30103
1.31038
1.34339
1.37766
1.39284
1.39941
1.40368
1.40915
1.41304
1.39945
1.3726
1.35938
1.3573
1.35902
1.36455
1.38974
1.43294
1.45932
1.46999
1.47586
1.48056
1.48401
1.47274
1.44046
1.41661
1.40941
1.41036
1.41604
1.44217
1.48466
1.51125
1.52317
1.5294
1.53254
1.53123
1.51361
1.47346
1.43918
1.41763
1.43396
2.90099
9.51899
1.08043
1.08013
1.08208
1.08455
1.08808
1.09942
1.12546
1.14133
1.14781
1.15142
1.15447
1.15396
1.13976
1.12892
1.12845
1.13145
1.13496
1.13821
1.1433
1.16416
1.19066
1.20255
1.20822
1.21285
1.21692
1.21442
1.19619
1.18363
1.18291
1.18614
1.1901
1.19406
1.20411
1.2337
1.25643
1.26591
1.27223
1.27741
1.2815
1.27727
1.25668
1.24172
1.2393
1.24231
1.24678
1.25213
1.2704
1.30394
1.32329
1.33239
1.33953
1.34502
1.34923
1.34475
1.32209
1.30348
1.29884
1.30174
1.30681
1.3157
1.34509
1.3775
1.39346
1.40309
1.41108
1.41678
1.41994
1.40704
1.37851
1.36131
1.35854
1.36225
1.36875
1.39014
1.43091
1.4574
1.4692
1.47747
1.48428
1.48871
1.48024
1.44865
1.42142
1.41148
1.41114
1.41482
1.43683
1.48025
1.50947
1.52222
1.52777
1.52994
1.52804
1.5126
1.47586
1.43072
1.41298
2.83773
9.54185
1.08822
1.08215
1.08344
1.08638
1.08943
1.0936
1.10739
1.13344
1.14807
1.15455
1.15878
1.16215
1.15968
1.14412
1.13513
1.13498
1.13659
1.13918
1.14281
1.14931
1.17216
1.19785
1.20918
1.21437
1.21765
1.22131
1.22019
1.20342
1.1916
1.19023
1.19134
1.19389
1.19796
1.20925
1.24027
1.26436
1.27393
1.27848
1.28146
1.28582
1.28487
1.2662
1.2505
1.24707
1.24769
1.25
1.25476
1.2729
1.30923
1.33172
1.34043
1.34481
1.34879
1.35381
1.35304
1.33213
1.31207
1.3064
1.30661
1.30928
1.31646
1.34551
1.38371
1.4028
1.41052
1.41495
1.42009
1.42494
1.41667
1.38843
1.36942
1.36455
1.36452
1.36799
1.38489
1.4281
1.46212
1.47715
1.48407
1.48956
1.49364
1.48706
1.45557
1.42424
1.4111
1.40974
1.41317
1.43284
1.47563
1.50657
1.51996
1.52498
1.52637
1.52369
1.511
1.4697
1.42346
2.75409
9.57449
1.09973
1.08744
1.08608
1.08857
1.09144
1.09417
1.09825
1.1141
1.14132
1.15571
1.16205
1.16629
1.1695
1.16556
1.14826
1.13839
1.13855
1.14169
1.14515
1.14835
1.15432
1.17784
1.20329
1.21414
1.21991
1.22491
1.22908
1.22706
1.20886
1.19486
1.19305
1.19603
1.20008
1.20406
1.21358
1.24306
1.26684
1.27695
1.28365
1.28911
1.29348
1.29268
1.2744
1.25539
1.2495
1.25153
1.25588
1.26098
1.27587
1.30945
1.33217
1.3427
1.35043
1.35625
1.36085
1.36027
1.34045
1.31718
1.30852
1.30996
1.31469
1.3219
1.34679
1.38258
1.40206
1.41266
1.42169
1.42804
1.43231
1.42455
1.39533
1.37161
1.36432
1.36622
1.37152
1.38605
1.42574
1.46185
1.47888
1.48687
1.49173
1.49469
1.49035
1.4627
1.42903
1.4128
1.40964
1.41139
1.42726
1.47
1.50334
1.51725
1.52149
1.52164
1.51979
1.50291
1.46805
2.69217
9.61319
1.11196
1.09967
1.09097
1.09088
1.09243
1.09524
1.09884
1.1043
1.12276
1.14921
1.16214
1.16779
1.17182
1.1749
1.17104
1.15485
1.14585
1.14522
1.14626
1.14869
1.15248
1.16007
1.18527
1.21074
1.22171
1.22672
1.22978
1.23368
1.23365
1.21746
1.20351
1.20094
1.20151
1.20331
1.20715
1.21726
1.24806
1.27432
1.28511
1.29003
1.29321
1.29774
1.30005
1.28541
1.26522
1.2581
1.25756
1.25885
1.26301
1.27711
1.31321
1.34028
1.35098
1.35586
1.35962
1.36483
1.36743
1.35087
1.32644
1.31674
1.31556
1.31688
1.32193
1.34419
1.38537
1.41106
1.42116
1.4263
1.43054
1.43563
1.43295
1.40628
1.38044
1.37147
1.37025
1.37222
1.38182
1.41948
1.45981
1.47859
1.48654
1.49277
1.49734
1.49542
1.46949
1.43263
1.41236
1.40727
1.4084
1.42205
1.4644
1.4995
1.51378
1.5169
1.51755
1.51076
1.51123
2.67955
9.64955
1.11909
1.1169
1.10103
1.09392
1.09494
1.0981
1.10166
1.10513
1.11029
1.12937
1.15541
1.16793
1.17382
1.17819
1.18191
1.17833
1.16007
1.14858
1.14814
1.15116
1.1549
1.15854
1.16516
1.18968
1.21487
1.22577
1.23206
1.23743
1.24175
1.24138
1.22451
1.20756
1.20301
1.20515
1.20904
1.21315
1.22136
1.24939
1.27553
1.28728
1.29495
1.30112
1.30583
1.30789
1.29436
1.27118
1.26038
1.26058
1.26473
1.26978
1.28075
1.31252
1.33927
1.35182
1.36075
1.3676
1.37257
1.3745
1.35908
1.33227
1.31844
1.31737
1.32137
1.32728
1.34541
1.38315
1.40887
1.42116
1.43075
1.43813
1.44294
1.44038
1.41412
1.38427
1.37104
1.36987
1.37354
1.38244
1.41586
1.4587
1.48193
1.49089
1.49539
1.49824
1.49707
1.4754
1.43714
1.4127
1.4052
1.40514
1.41669
1.45868
1.49501
1.50887
1.5128
1.50738
1.53213
2.7077
9.68051
1.12224
1.12708
1.1199
1.10513
1.10054
1.10212
1.10438
1.10686
1.11013
1.11568
1.13557
1.16153
1.17387
1.17927
1.18279
1.18571
1.18344
1.16752
1.15683
1.15571
1.15683
1.15899
1.16259
1.16991
1.19519
1.22194
1.23381
1.23907
1.24216
1.24597
1.24789
1.23425
1.2167
1.21129
1.21118
1.21216
1.21551
1.22358
1.25244
1.28273
1.2963
1.30207
1.30546
1.30982
1.31393
1.30512
1.28207
1.27036
1.26824
1.26805
1.27096
1.28064
1.31403
1.34713
1.36146
1.36756
1.37118
1.37593
1.38014
1.36947
1.34263
1.32755
1.32423
1.32435
1.32756
1.34135
1.38099
1.41545
1.43017
1.43651
1.44035
1.445
1.44641
1.42518
1.39355
1.37787
1.37437
1.37578
1.38117
1.4109
1.45593
1.48095
1.49026
1.49533
1.49916
1.49981
1.48117
1.44096
1.41195
1.40207
1.40141
1.41169
1.45312
1.48897
1.50374
1.50168
1.53627
2.76418
9.70884
1.12227
1.12985
1.1326
1.12671
1.11197
1.10596
1.10691
1.1099
1.11264
1.11522
1.11999
1.14035
1.16669
1.17869
1.18427
1.18886
1.19281
1.19112
1.17442
1.16078
1.15857
1.16123
1.16489
1.16852
1.17442
1.1979
1.22477
1.23694
1.24379
1.24945
1.25389
1.25563
1.24282
1.22241
1.21332
1.21372
1.21723
1.22163
1.22846
1.2536
1.2833
1.29762
1.306
1.31327
1.31832
1.3219
1.31329
1.28776
1.2712
1.26866
1.27194
1.277
1.28605
1.31471
1.34609
1.36133
1.37063
1.37866