/*--------------------------------*- C++ -*----------------------------------*\
  =========                 |
  \\      /  F ield         | OpenFOAM: The Open Source CFD Toolbox
   \\    /   O peration     | Website:  https://openfoam.org
    \\  /    A nd           | Version:  12
     \\/     M anipulation  |
\*---------------------------------------------------------------------------*/
FoamFile
{
    format      ascii;
    class       volScalarField;
    location    "14.1";
    object      T;
}
// * * * * * * * * * * * * * * * * * * * * * * * * * * * * * * * * * * * * * //

dimensions      [0 0 0 1 0 0 0];

internalField   nonuniform List<scalar> 
9801
(
0.824405
0.824647
0.825071
0.825969
0.826979
0.828891
0.832641
0.836456
0.838523
0.839609
0.840415
0.84087
0.841105
0.841507
0.842237
0.843142
0.844395
0.847165
0.851591
0.854684
0.856226
0.857135
0.857672
0.857853
0.8581
0.858697
0.859568
0.860622
0.862555
0.866851
0.870916
0.872953
0.874012
0.874557
0.874554
0.874615
0.875147
0.875971
0.87696
0.878476
0.88224
0.887482
0.890361
0.891696
0.8923
0.891998
0.891549
0.891786
0.892569
0.893584
0.894916
0.898244
0.904605
0.90873
0.910374
0.911169
0.910399
0.908986
0.908992
0.909814
0.911103
0.912647
0.916279
0.923364
0.928228
0.930377
0.931692
0.930864
0.927852
0.927023
0.927865
0.929498
0.931705
0.937216
0.945894
0.951297
0.953836
0.955296
0.953573
0.949105
0.947394
0.94863
0.951223
0.956293
0.968085
0.977494
0.98211
0.985176
0.987128
0.983855
0.976686
0.974526
0.978399
0.987817
1.00929
1.02968
1.04129
1.147
1.53695
0.827785
0.827874
0.828514
0.829565
0.830666
0.832698
0.836752
0.839981
0.841868
0.843166
0.8442
0.844467
0.844024
0.844442
0.84539
0.846498
0.847775
0.850647
0.854983
0.857751
0.859369
0.860544
0.861269
0.860568
0.860413
0.861232
0.862378
0.863607
0.865411
0.869688
0.873772
0.875886
0.877181
0.878139
0.877454
0.876489
0.877077
0.878229
0.879528
0.88103
0.884503
0.88983
0.892921
0.894509
0.895599
0.895303
0.893371
0.893365
0.894447
0.895789
0.897261
0.900305
0.906391
0.910678
0.912701
0.914002
0.914016
0.911265
0.910507
0.911512
0.913035
0.914642
0.918108
0.925261
0.9302
0.932578
0.934161
0.934222
0.930683
0.929012
0.929954
0.931869
0.934146
0.939631
0.948319
0.953501
0.956135
0.958051
0.958148
0.952854
0.950134
0.951696
0.95466
0.959457
0.969546
0.978535
0.983688
0.987578
0.991193
0.989916
0.982866
0.980413
0.98406
0.991062
1.00579
1.02428
1.03667
1.14676
1.55761
0.831901
0.832023
0.832563
0.833572
0.834711
0.836724
0.840849
0.844059
0.845839
0.847145
0.848261
0.848718
0.848237
0.848472
0.849328
0.850457
0.851765
0.854623
0.859015
0.861741
0.863333
0.864589
0.865483
0.864889
0.864519
0.865167
0.866266
0.867527
0.869267
0.873462
0.877618
0.879802
0.881231
0.882392
0.881985
0.88083
0.881191
0.882243
0.883565
0.885036
0.88826
0.893559
0.89678
0.898538
0.899891
0.899978
0.898084
0.897823
0.898772
0.900122
0.901654
0.904385
0.910183
0.91456
0.916793
0.918395
0.919069
0.916769
0.915423
0.916152
0.917687
0.919414
0.922608
0.929417
0.934586
0.937244
0.939141
0.940132
0.937506
0.935068
0.935599
0.937503
0.939811
0.94463
0.952954
0.958764
0.962162
0.96481
0.966322
0.962083
0.95805
0.959122
0.962207
0.966145
0.974578
0.98571
0.993053
0.997583
1.0018
1.00225
0.996922
0.994211
0.996978
1.00343
1.01493
1.03398
1.04722
1.16299
1.57921
0.837208
0.837303
0.837691
0.83863
0.839826
0.841991
0.846149
0.849411
0.851234
0.852536
0.853656
0.854301
0.853764
0.853791
0.854557
0.855685
0.857133
0.860153
0.864537
0.867305
0.868917
0.870182
0.871198
0.870766
0.870106
0.8706
0.871626
0.87295
0.874865
0.879124
0.883419
0.885713
0.887197
0.888453
0.888403
0.88701
0.887036
0.88792
0.889219
0.890818
0.894103
0.899557
0.903049
0.904935
0.906406
0.906999
0.905208
0.904365
0.905049
0.906312
0.907933
0.910724
0.916659
0.92147
0.923922
0.925658
0.92687
0.925078
0.922952
0.923355
0.924853
0.926722
0.929834
0.936559
0.942481
0.945617
0.947773
0.949419
0.947736
0.944087
0.943953
0.945939
0.948459
0.952565
0.960968
0.96813
0.972147
0.975064
0.977352
0.97531
0.970176
0.969287
0.972295
0.976216
0.982627
0.993934
1.00333
1.00898
1.01368
1.01697
1.01427
1.01023
1.01018
1.01555
1.02415
1.03962
1.05051
1.18053
1.59854
0.843101
0.843192
0.843449
0.844357
0.845536
0.847806
0.852116
0.855406
0.857251
0.858582
0.859706
0.860475
0.860071
0.859949
0.860691
0.861786
0.863215
0.866368
0.870849
0.873659
0.875309
0.876604
0.877691
0.877552
0.876773
0.877189
0.8782
0.879462
0.88133
0.885631
0.890162
0.892608
0.894145
0.89544
0.895834
0.8945
0.894269
0.895153
0.896413
0.897903
0.900957
0.906525
0.910391
0.912446
0.913982
0.915005
0.91362
0.912175
0.912755
0.914105
0.915758
0.918403
0.924197
0.929379
0.932138
0.934017
0.935513
0.934702
0.931896
0.931668
0.933168
0.935132
0.937977
0.944237
0.950885
0.954599
0.956992
0.958989
0.959135
0.95522
0.953191
0.954653
0.957206
0.960578
0.967948
0.97678
0.981942
0.985135
0.987999
0.988855
0.983772
0.979993
0.981053
0.984974
0.990092
0.999646
1.01076
1.0184
1.02379
1.02874
1.02934
1.02507
1.02248
1.02341
1.02891
1.04027
1.04942
1.19014
1.60953
0.849387
0.849517
0.849688
0.850582
0.851709
0.85382
0.858283
0.861767
0.863664
0.865007
0.866144
0.867047
0.866836
0.866585
0.867243
0.868304
0.869604
0.872547
0.877318
0.88037
0.882107
0.88344
0.884594
0.88479
0.883912
0.884095
0.885047
0.886281
0.887913
0.891999
0.896944
0.899706
0.901377
0.902749
0.903553
0.902378
0.901516
0.902219
0.903468
0.904949
0.907664
0.913236
0.917569
0.919935
0.921621
0.92301
0.9225
0.92023
0.920027
0.92129
0.922986
0.925424
0.930928
0.936625
0.939801
0.941896
0.943642
0.944266
0.941482
0.939492
0.940334
0.942219
0.944743
0.950191
0.957787
0.962439
0.965089
0.967249
0.968861
0.966159
0.9621
0.961798
0.964039
0.966983
0.972399
0.981974
0.989233
0.993319
0.996256
0.998473
0.995702
0.99006
0.988566
0.991016
0.995092
1.00161
1.01217
1.02136
1.02763
1.03289
1.03713
1.03623
1.0319
1.02932
1.03018
1.03652
1.04518
1.19546
1.61561
0.855198
0.855363
0.855529
0.856447
0.857583
0.85954
0.863884
0.867512
0.869533
0.870961
0.872173
0.873219
0.873154
0.87263
0.873157
0.874205
0.875492
0.87815
0.882961
0.886298
0.888208
0.889639
0.890901
0.891506
0.890391
0.890053
0.89091
0.892205
0.893882
0.897728
0.90278
0.9058
0.90765
0.909121
0.910342
0.909802
0.907995
0.908
0.909182
0.910778
0.913474
0.918917
0.923537
0.9261
0.927903
0.929443
0.930105
0.927849
0.926287
0.926981
0.92855
0.930687
0.935651
0.942106
0.945874
0.94807
0.949837
0.951283
0.9498
0.946536
0.946003
0.947499
0.94967
0.953618
0.961517
0.967802
0.971076
0.973235
0.975186
0.974446
0.969732
0.96768
0.96888
0.971465
0.974928
0.982742
0.992245
0.99783
1.00129
1.00413
1.00498
0.999988
0.995512
0.995168
0.9979
1.00215
1.0102
1.02054
1.02843
1.0343
1.03931
1.04181
1.03991
1.03516
1.03127
1.03283
1.03831
1.19707
1.61916
0.860326
0.860449
0.860474
0.861357
0.86251
0.864489
0.868811
0.872488
0.874513
0.875964
0.877222
0.878369
0.878597
0.877781
0.878011
0.878995
0.880294
0.882845
0.887681
0.891222
0.893168
0.894617
0.895917
0.896916
0.896108
0.895032
0.895529
0.896726
0.898373
0.9021
0.907344
0.910596
0.912484
0.913968
0.915321
0.915764
0.913748
0.912799
0.913613
0.915042
0.917355
0.922645
0.927902
0.930718
0.932519
0.934068
0.935369
0.934195
0.93161
0.931354
0.932587
0.934347
0.938069
0.945107
0.950171
0.952708
0.954447
0.956062
0.95603
0.952411
0.950558
0.951262
0.953163
0.955682
0.962056
0.970287
0.97489
0.977423
0.979441
0.980405
0.976891
0.972905
0.972356
0.974163
0.976759
0.981272
0.991
0.999399
1.00403
1.00732
1.01013
1.00933
1.00285
0.999256
0.999952
1.00293
1.00768
1.01652
1.02592
1.03279
1.03814
1.04266
1.04391
1.04163
1.0359
1.03138
1.02998
1.19531
1.62094
0.864754
0.864915
0.86464
0.865376
0.866442
0.868149
0.872425
0.876556
0.878744
0.880206
0.881441
0.882583
0.883055
0.882101
0.881956
0.882771
0.883949
0.886071
0.890955
0.895078
0.897227
0.898692
0.899956
0.901099
0.900746
0.899272
0.899305
0.900283
0.901631
0.904638
0.91025
0.914156
0.916222
0.917727
0.919069
0.91997
0.918436
0.916808
0.917095
0.918279
0.919932
0.924256
0.93051
0.934183
0.936134
0.937658
0.939073
0.938919
0.935946
0.934761
0.935487
0.93703
0.939385
0.945715
0.952522
0.955973
0.957879
0.95949
0.960395
0.957623
0.95439
0.954171
0.955626
0.957561
0.961109
0.969654
0.976732
0.980254
0.982525
0.984396
0.983724
0.978563
0.975542
0.975753
0.977756
0.980527
0.986982
0.997732
1.00511
1.00919
1.01214
1.01421
1.01158
1.00539
1.0028
1.00387
1.00694
1.0123
1.02142
1.02969
1.03568
1.04052
1.04438
1.04472
1.04162
1.03436
1.02534
1.19047
1.62214
0.868408
0.868697
0.868139
0.86875
0.869747
0.871117
0.874862
0.87963
0.882201
0.883706
0.884923
0.886027
0.886643
0.885673
0.885192
0.885826
0.886903
0.888495
0.892869
0.897831
0.900419
0.901975
0.903259
0.904417
0.904538
0.902807
0.902378
0.90311
0.904291
0.906283
0.911589
0.916604
0.919115
0.920687
0.922039
0.923189
0.922372
0.920072
0.919813
0.920739
0.922139
0.924902
0.931388
0.936459
0.93892
0.940482
0.94186
0.942465
0.939861
0.937589
0.937845
0.939147
0.940836
0.944826
0.952706
0.957859
0.960359
0.962054
0.963552
0.962704
0.95854
0.956764
0.957265
0.958879
0.961015
0.966817
0.976359
0.982034
0.984978
0.987137
0.988706
0.985474
0.979543
0.977791
0.978829
0.981145
0.98424
0.992091
1.00268
1.00905
1.01267
1.01564
1.01757
1.01439
1.00807
1.00582
1.00719
1.01058
1.01662
1.02553
1.03264
1.03795
1.04267
1.0452
1.04472
1.039
1.02733
1.18393
1.62318
0.871269
0.871815
0.870996
0.871451
0.872397
0.873584
0.876495
0.881634
0.884762
0.886385
0.887613
0.888705
0.889495
0.8887
0.88779
0.888232
0.889235
0.89052
0.893853
0.899459
0.902769
0.904467
0.905764
0.906935
0.907558
0.905994
0.904839
0.905328
0.906403
0.907826
0.911841
0.917877
0.921222
0.922963
0.924322
0.925556
0.925636
0.923114
0.922036
0.922732
0.924
0.925724
0.930838
0.937477
0.940879
0.942661
0.944067
0.945222
0.943901
0.94065
0.939975
0.940854
0.942304
0.944371
0.950813
0.95847
0.962205
0.964253
0.965886
0.966781
0.963607
0.959421
0.958704
0.959842
0.961733
0.964596
0.972859
0.981936
0.986318
0.988696
0.990617
0.991583
0.987091
0.981795
0.9807
0.981681
0.983872
0.987607
0.996816
1.00694
1.01292
1.0165
1.0194
1.02033
1.01643
1.01068
1.00879
1.01028
1.01386
1.02061
1.02929
1.03564
1.04036
1.04408
1.04539
1.04273
1.03281
1.17892
1.62438
0.873576
0.874459
0.873447
0.873673
0.874521
0.875596
0.87764
0.882667
0.886632
0.888522
0.889795
0.890895
0.891824
0.891434
0.89008
0.890193
0.891082
0.892249
0.894463
0.899991
0.904411
0.906504
0.907852
0.909023
0.909969
0.90907
0.90718
0.907197
0.908123
0.909367
0.91183
0.917964
0.922673
0.924879
0.926298
0.927563
0.928362
0.926463
0.924329
0.924488
0.925541
0.92693
0.929817
0.936953
0.942166
0.944547
0.946064
0.94745
0.947784
0.944494
0.942095
0.94225
0.943409
0.945015
0.948451
0.956917
0.963258
0.966165
0.968032
0.969606
0.969188
0.964119
0.961073
0.961227
0.962614
0.964543
0.968445
0.978222
0.986188
0.989826
0.992395
0.994677
0.994796
0.988575
0.983503
0.982978
0.98455
0.987112
0.991424
1.00106
1.01041
1.01581
1.01924
1.02206
1.02293
1.01881
1.01312
1.01132
1.01293
1.01663
1.02395
1.03226
1.03795
1.04221
1.04471
1.04457
1.0388
1.1767
1.62573
0.875601
0.876831
0.875769
0.875628
0.876325
0.877323
0.878736
0.882957
0.887889
0.89032
0.891704
0.892836
0.893853
0.89403
0.892456
0.892016
0.892748
0.893847
0.895332
0.899761
0.905353
0.908159
0.90968
0.910895
0.911997
0.912014
0.909813
0.909027
0.909718
0.910842
0.912347
0.917058
0.923348
0.926508
0.928155
0.929466
0.930637
0.930081
0.927147
0.926213
0.926863
0.928083
0.929732
0.934976
0.9424
0.946125
0.948014
0.949436
0.950638
0.949103
0.945024
0.943805
0.94457
0.94602
0.947854
0.953396
0.962419
0.967266
0.969584
0.971281
0.972773
0.97101
0.965496
0.963159
0.963401
0.964794
0.966915
0.97247
0.983451
0.990675
0.993846
0.995906
0.997652
0.996901
0.990703
0.986467
0.986197
0.987553
0.990033
0.995042
1.00507
1.01369
1.01877
1.02213
1.02472
1.02502
1.02077
1.01518
1.01335
1.01489
1.0186
1.02634
1.03434
1.0396
1.04326
1.04455
1.04327
1.17807
1.62742
0.877522
0.879015
0.878106
0.877469
0.877951
0.87888
0.88003
0.883005
0.888536
0.891855
0.893477
0.894665
0.895732
0.896428
0.895157
0.893966
0.894393
0.895385
0.896584
0.899361
0.90545
0.909478
0.911376
0.912677
0.913839
0.914586
0.912912
0.911079
0.911255
0.912193
0.913439
0.916127
0.922862
0.927735
0.929946
0.931345
0.932606
0.933286
0.930751
0.928225
0.928257
0.92925
0.930628
0.933287
0.940741
0.946991
0.949761
0.951407
0.95281
0.953382
0.949775
0.946363
0.946065
0.94696
0.948469
0.95097
0.958776
0.967187
0.971069
0.973325
0.975102
0.976159
0.972239
0.966506
0.965025
0.965894
0.967588
0.969886
0.976535
0.987479
0.993557
0.996445
0.999033
1.00128
0.999903
0.992926
0.988746
0.988706
0.99046
0.993234
0.998799
1.00866
1.01646
1.0212
1.0245
1.0269
1.02699
1.02234
1.01658
1.01472
1.01608
1.01964
1.02756
1.03541
1.04055
1.04303
1.04602
1.18329
1.62963
0.879388
0.881034
0.88053
0.87938
0.879555
0.880392
0.881457
0.883346
0.888566
0.893064
0.895155
0.896461
0.897582
0.898563
0.89812
0.896274
0.896104
0.896899
0.897993
0.899617
0.904753
0.910329
0.912942
0.914407
0.915612
0.916689
0.916208
0.913589
0.91285
0.913556
0.914705
0.91626
0.921327
0.928162
0.931481
0.933163
0.934455
0.935628
0.934832
0.931205
0.929953
0.930595
0.931795
0.933289
0.937804
0.946196
0.95097
0.95318
0.954716
0.956091
0.955394
0.950553
0.947884
0.948053
0.949248
0.950924
0.95469
0.964235
0.971556
0.974598
0.976325
0.977885
0.978632
0.974023
0.968923
0.967794
0.968273
0.969759
0.972322
0.98038
0.991605
0.997621
1.00035
1.00243
1.00388
1.00181
0.995396
0.991722
0.991698
0.993261
0.996017
1.00231
1.01209
1.01922
1.02355
1.0266
1.02866
1.02858
1.02365
1.01759
1.01553
1.01652
1.01981
1.02804
1.03605
1.04063
1.04653
1.19101
1.63236
0.881191
0.882939
0.882999
0.881617
0.881254
0.881921
0.882916
0.884206
0.888141
0.893801
0.896729
0.89824
0.89942
0.900496
0.900935
0.899081
0.897946
0.898429
0.899431
0.900662
0.90389
0.910371
0.914276
0.9161
0.917361
0.918513
0.919104
0.916827
0.914815
0.915062
0.916071
0.917319
0.919896
0.92701
0.932509
0.934887
0.936284
0.937547
0.938297
0.935527
0.932368
0.93205
0.932846
0.93416
0.936209
0.943052
0.951049
0.954709
0.956722
0.958247
0.959395
0.956717
0.95146
0.949891
0.950559
0.951868
0.953578
0.958528
0.968649
0.974801
0.977642
0.979841
0.981686
0.981541
0.975405
0.970367
0.9697
0.970909
0.97272
0.975426
0.983818
0.994524
0.999821
1.00245
1.00488
1.00685
1.00476
0.997929
0.994054
0.994017
0.995832
0.998768
1.00561
1.01508
1.0216
1.02568
1.02856
1.03046
1.03018
1.02473
1.01822
1.01574
1.01622
1.01931
1.02823
1.03601
1.04488
1.19991
1.6353
0.882941
0.884798
0.885376
0.884262
0.883114
0.883473
0.884378
0.885491
0.887896
0.893806
0.898037
0.899966
0.90121
0.902304
0.903222
0.902274
0.900172
0.900073
0.900925
0.902031
0.90373
0.909268
0.915047
0.917652
0.919086
0.92029
0.92137
0.920578
0.917564
0.916781
0.917474
0.918567
0.919952
0.924567
0.932269
0.93623
0.93812
0.939417
0.940665
0.940222
0.936012
0.933752
0.934094
0.935234
0.93667
0.939821
0.948397
0.955116
0.957876
0.959524
0.960985
0.961954
0.958239
0.953383
0.952248
0.952684
0.953915
0.955952
0.962562
0.973142
0.978795
0.981136
0.982631
0.9842
0.983836
0.977788
0.973372
0.972732
0.973335
0.974847
0.977775
0.987021
0.997714
1.00317
1.00584
1.00795
1.00914
1.00678
1.00044
0.996598
0.99629
0.997817
1.00079
1.00848
1.01798
1.02419
1.02788
1.03032
1.03194
1.03147
1.02576
1.01859
1.01523
1.01511
1.01869
1.02809
1.04011
1.20853
1.63777
0.884634
0.886605
0.887436
0.887091
0.885292
0.885115
0.885907
0.886974
0.888432
0.893034
0.898751
0.901489
0.902916
0.904063
0.905126
0.905348
0.903065
0.901908
0.902408
0.903386
0.904571
0.907767
0.914702
0.918932
0.920846
0.922095
0.923259
0.923879
0.921315
0.918856
0.918876
0.919791
0.921003
0.923076
0.929889
0.936745
0.939723
0.941407
0.942655
0.943624
0.94126
0.936896
0.935848
0.936539
0.937686
0.93917
0.943642
0.952978
0.958576
0.961093
0.962919
0.964474
0.964524
0.959244
0.954645
0.954056
0.955089
0.95653
0.958601
0.965967
0.976158
0.981045
0.983679
0.985958
0.987737
0.986498
0.979576
0.974928
0.974477
0.975778
0.977682
0.980776
0.98983
0.999994
1.00508
1.00773
1.00997
1.01159
1.00939
1.00257
0.998309
0.997917
0.999537
1.00278
1.01099
1.0204
1.02625
1.02963
1.03189
1.0333
1.03251
1.02669
1.01856
1.01394
1.01353
1.01779
1.03235
1.21439
1.63918
0.886201
0.888312
0.889223
0.889731
0.888053
0.887007
0.887516
0.88848
0.889584
0.892171
0.898433
0.902665
0.904573
0.905801
0.9069
0.907788
0.906498
0.904093
0.90389
0.904703
0.905812
0.907398
0.912867
0.919427
0.922359
0.923857
0.925044
0.926162
0.925481
0.921865
0.920536
0.921155
0.922266
0.923513
0.926779
0.934951
0.940471
0.942774
0.944284
0.945609
0.946181
0.942428
0.938485
0.937885
0.938577
0.939795
0.94163
0.947872
0.957346
0.962093
0.964121
0.965465
0.966963
0.966757
0.961136
0.957099
0.956529
0.957044
0.958404
0.96086
0.969524
0.980014
0.984846
0.986946
0.988401
0.989862
0.988771
0.982299
0.978016
0.977439
0.978094
0.979608
0.98296
0.992816
1.00283
1.00779
1.01032
1.01231
1.01347
1.01132
1.00477
1.00027
0.999515
1.00079
1.00403
1.01289
1.02259
1.02821
1.03112
1.03301
1.03421
1.03334
1.02748
1.01812
1.01211
1.01087
1.02177
1.21557
1.63944
0.887587
0.890006
0.890983
0.891956
0.891246
0.88927
0.889125
0.889866
0.890897
0.892316
0.897089
0.903216
0.906065
0.907501
0.9086
0.909627
0.909756
0.907074
0.905614
0.906093
0.907128
0.908286
0.910853
0.918038
0.92331
0.925529
0.926808
0.927989
0.9288
0.926354
0.923072
0.922674
0.923384
0.924436
0.925888
0.930907
0.939421
0.943874
0.946011
0.947571
0.948888
0.94841
0.943251
0.939892
0.9399
0.940976
0.942241
0.94422
0.951622
0.960688
0.964742
0.966985
0.968832
0.970308
0.968939
0.962281
0.958329
0.958318
0.959613
0.961165
0.963596
0.972241
0.982073
0.986456
0.988942
0.991217
0.992917
0.991414
0.98447
0.979676
0.979012
0.980267
0.982261
0.985914
0.995542
1.00478
1.00941
1.01199
1.01415
1.0157
1.01354
1.00639
1.00144
1.00057
1.00181
1.00521
1.01437
1.02405
1.02935
1.03196
1.03381
1.0349
1.03398
1.02782
1.01721
1.00962
1.01034
1.21095
1.63847
0.888854
0.891746
0.89275
0.893802
0.894147
0.892033
0.890802
0.891291
0.892277
0.893396
0.895867
0.902358
0.907042
0.909038
0.910237
0.911332
0.912268
0.910923
0.908042
0.907637
0.908374
0.909403
0.910662
0.915029
0.922819
0.92681
0.928641
0.929832
0.930981
0.930931
0.927025
0.924385
0.924462
0.925427
0.926615
0.928546
0.935379
0.943441
0.946996
0.948746
0.95007
0.951419
0.950344
0.944915
0.942215
0.942207
0.942926
0.944246
0.946846
0.955574
0.964441
0.968177
0.969891
0.971071
0.97254
0.97115
0.964751
0.961369
0.96107
0.961571
0.962902
0.965649
0.975155
0.985396
0.98991
0.991924
0.993395
0.994838
0.993774
0.987353
0.982682
0.981859
0.982484
0.984027
0.987947
0.998314
1.00749
1.01185
1.01412
1.01599
1.01742
1.01558
1.00848
1.00305
1.00177
1.00267
1.00576
1.01514
1.02502
1.03011
1.03251
1.03432
1.03531
1.03429
1.02744
1.01421
1.00531
1.20068
1.63694
0.889795
0.893472
0.894448
0.89547
0.896325
0.895306
0.893025
0.892858
0.893646
0.894663
0.89589
0.900164
0.907005
0.91037
0.911972
0.91309
0.914158
0.914484
0.911555
0.909399
0.909572
0.910488
0.911633
0.913431
0.919835
0.927057
0.930149
0.931708
0.932818
0.933868
0.932347
0.927746
0.926121
0.926645
0.927663
0.928854
0.931283
0.939395
0.946777
0.949852
0.951716
0.953273
0.954422
0.951924
0.945943
0.943622
0.944196
0.945454
0.94676
0.949466
0.958583
0.966792
0.970173
0.972414
0.974285
0.975645
0.973432
0.966483
0.962714
0.962684
0.96395
0.965581
0.968269
0.97736
0.986986
0.991229
0.993654
0.995878
0.997533
0.996444
0.989891
0.98454
0.983281
0.984278
0.986232
0.990479
1.0006
1.00903
1.01316
1.01581
1.01814
1.01972
1.01763
1.00991
1.00388
1.00228
1.00321
1.0063
1.01564
1.02542
1.0303
1.03274
1.0347
1.03546
1.03419
1.02417
1.00895
1.18867
1.63595
0.889932
0.894762
0.895987
0.897118
0.89815
0.898483
0.89611
0.894596
0.894924
0.895791
0.896868
0.8988
0.905126
0.911082
0.91351
0.914775
0.915836
0.916836
0.915775
0.912113
0.911049
0.911736
0.912852
0.913999
0.916557
0.924401
0.930598
0.933111
0.934602
0.935742
0.936505
0.933605
0.929166
0.9281
0.928607
0.929592
0.930933
0.934381
0.943462
0.950153
0.952826
0.954279
0.955483
0.956672
0.953888
0.948206
0.946344
0.946498
0.947222
0.948628
0.951978
0.961946
0.970256
0.973533
0.975092
0.976258
0.977667
0.975962
0.969434
0.965898
0.965497
0.965908
0.96715
0.969999
0.979775
0.989958
0.994403
0.996391
0.997872
0.999424
0.998997
0.992883
0.987194
0.985639
0.986028
0.98752
0.991861
1.00273
1.01175
1.01591
1.01798
1.01975
1.02119
1.01951
1.01185
1.00518
1.00313
1.00378
1.00649
1.01559
1.02532
1.03021
1.03289
1.03481
1.03553
1.03174
1.02014
1.18059
1.63601
0.889132
0.895794
0.897648
0.898816
0.899828
0.900731
0.899718
0.896879
0.896339
0.897083
0.898142
0.899283
0.902464
0.909866
0.914429
0.916348
0.917482
0.918571
0.919233
0.916507
0.913391
0.913181
0.913936
0.914931
0.91616
0.920019
0.928657
0.933884
0.936119
0.9376
0.938776
0.939041
0.934654
0.930352
0.929832
0.930821
0.932011
0.933311
0.93725
0.94674
0.952769
0.955281
0.957127
0.958691
0.959494
0.955531
0.949521
0.947704
0.948432
0.949757
0.951136
0.954388
0.96415
0.971887
0.975093
0.977376
0.979286
0.980636
0.978611
0.971714
0.967357
0.966853
0.967992
0.969659
0.972567
0.981785
0.991278
0.995552
0.998042
1.00023
1.0019
1.00138
0.995165
0.988882
0.986796
0.987421
0.989241
0.993737
1.00425
1.01276
1.01674
1.01933
1.02166
1.02328
1.02158
1.01339
1.00596
1.00352
1.00399
1.00647
1.01517
1.02474
1.02988
1.03285
1.03491
1.03443
1.03033
1.17946
1.63738
0.887717
0.895651
0.898828
0.900332
0.90137
0.902394
0.902913
0.900469
0.898334
0.898523
0.899375
0.900367
0.901646
0.90647
0.914035
0.917587
0.919225
0.920307
0.921371
0.921132
0.917149
0.914768
0.914968
0.915964
0.917103
0.918554
0.92383
0.932466
0.936761
0.938615
0.939946
0.941163
0.941142
0.936351
0.932656
0.932326
0.932884
0.933914
0.935427
0.940417
0.950251
0.955989
0.958257
0.959495
0.960711
0.961712
0.957949
0.952265
0.950622
0.950731
0.951353
0.952749
0.956474
0.966937
0.975146
0.978352
0.979896
0.981074
0.982568
0.981408
0.974869
0.970432
0.969663
0.970026
0.97116
0.973972
0.98381
0.994005
0.99848
1.00043
1.00183
1.00351
1.0038
0.998063
0.99127
0.988784
0.988854
0.99012
0.994184
1.00514
1.01485
1.01945
1.0216
1.02333
1.02449
1.02292
1.01499
1.00695
1.00402
1.00422
1.00616
1.01422
1.02381
1.02937
1.03293
1.03398
1.03672
1.18411
1.63971
0.886948
0.89339
0.899251
0.901707
0.90301
0.904077
0.9051
0.904631
0.901334
0.900051
0.900491
0.901391
0.902447
0.904332
0.910825
0.917754
0.920639
0.922049
0.923062
0.924061
0.922495
0.918012
0.916591
0.917182
0.918214
0.919271
0.92087
0.927252
0.935613
0.93938
0.941254
0.942753
0.944048
0.943263
0.937568
0.934008
0.934019
0.935164
0.936363
0.937757
0.942995
0.952764
0.957982
0.960328
0.962252
0.963816
0.964422
0.960015
0.953859
0.951816
0.952447
0.953731
0.955212
0.958651
0.968609
0.976364
0.979626
0.981936
0.983853
0.985267
0.984016
0.977447
0.972101
0.97085
0.971766
0.973405
0.976423
0.985629
0.995007
0.999361
1.002
1.00423
1.0059
1.00589
1.00009
0.992765
0.989687
0.98992
0.991534
0.995508
1.00586
1.01538
1.01998
1.02252
1.02446
1.02575
1.02454
1.01664
1.00786
1.00422
1.00402
1.00544
1.01295
1.02266
1.0292
1.03188
1.03939
1.19314
1.64261
0.887475
0.890627
0.897899
0.90269
0.904644
0.905746
0.906776
0.907582
0.905583
0.902303
0.901846
0.902608
0.903639
0.904678
0.907084
0.914707
0.920947
0.923471
0.924907
0.926003
0.926704
0.923725
0.919534
0.918647
0.919164
0.920053
0.921191
0.923291
0.930749
0.938688
0.942043
0.943656
0.94483
0.946106
0.945302
0.939757
0.936693
0.936543
0.937034
0.93806
0.939717
0.945789
0.955855
0.961155
0.963223
0.964369
0.965615
0.966624
0.962855
0.956797
0.954787
0.954745
0.955228
0.956549
0.960281
0.970951
0.979425
0.982711
0.984258
0.985386
0.986913
0.986694
0.980632
0.974983
0.973516
0.973758
0.974783
0.977489
0.987163
0.997527
1.00225
1.00426
1.0056
1.00726
1.0081
1.00302
0.995248
0.991755
0.991381
0.992299
0.995322
1.00546
1.01605
1.02158
1.02424
1.02579
1.02664
1.02564
1.01819
1.00877
1.00425
1.00347
1.0043
1.0114
1.02178
1.02784
1.03943
1.20381
1.64565
0.888597
0.890274
0.894676
0.902099
0.905706
0.907337
0.908377
0.909415
0.909682
0.906382
0.9039
0.903952
0.904626
0.905519
0.90667
0.910053
0.918541
0.924133
0.926436
0.927813
0.928886
0.929148
0.924956
0.920773
0.920239
0.921165
0.922279
0.923337
0.925587
0.933699
0.941242
0.944323
0.946155
0.947752
0.949019
0.947363
0.941209
0.937935
0.938091
0.939229
0.940443
0.941936
0.947913
0.957691
0.962644
0.964986
0.966969
0.968542
0.969256
0.965312
0.958688
0.95587
0.956137
0.957381
0.958951
0.962407
0.972306
0.980259
0.983664
0.985973
0.987913
0.989416
0.989121
0.983266
0.976854
0.974643
0.97519
0.976728
0.979604
0.988502
0.998118
1.0028
1.00563
1.00803
1.00973
1.01026
1.00508
0.996713
0.992397
0.991903
0.993177
0.996163
1.00565
1.01641
1.02232
1.02505
1.02645
1.02715
1.02648
1.0198
1.00991
1.00413
1.00237
1.00267
1.01026
1.02013
1.03564
1.21426
1.64817
0.889816
0.891185
0.892811
0.898822
0.905765
0.908675
0.910108
0.911128
0.912095
0.911266
0.907089
0.905209
0.905577
0.906553
0.907628
0.90897
0.913399
0.922041
0.926866
0.928942
0.930361
0.931473
0.931321
0.926715
0.923041
0.922624
0.92308
0.923948
0.925192
0.92816
0.936933
0.944217
0.947179
0.948663
0.949712
0.950992
0.949676
0.943815
0.940823
0.94061
0.940967
0.941933
0.943645
0.950186
0.960486
0.965769
0.967794
0.968886
0.970064
0.971251
0.96835
0.961792
0.958872
0.958635
0.958999
0.960167
0.963575
0.973945
0.982926
0.986583
0.988244
0.989393
0.990937
0.991537
0.986455
0.979644
0.977133
0.976993
0.977829
0.98012
0.989075
1.00022
1.00583
1.00811
1.00945
1.01093
1.01213
1.00812
0.999584
0.994729
0.993656
0.994203
0.996154
1.00485
1.0162
1.0227
1.02553
1.02683
1.02756
1.02725
1.02147
1.01115
1.00365
1.00061
1.00102
1.00858
1.02788
1.2221
1.64963
0.891114
0.892254
0.89328
0.895667
0.902973
0.909144
0.911579
0.912768
0.913678
0.914496
0.912258
0.907962
0.907028
0.90773
0.908756
0.909765
0.91112
0.916388
0.925142
0.929561
0.931535
0.932988
0.934196
0.933704
0.928241
0.92429
0.924066
0.925082
0.926274
0.927434
0.930405
0.939362
0.946304
0.949097
0.951012
0.952627
0.953824
0.95197
0.945626
0.941998
0.941916
0.942986
0.944279
0.945884
0.951955
0.961806
0.966827
0.969198
0.971213
0.972787
0.973811
0.971104
0.964223
0.960165
0.959759
0.960838
0.962396
0.965584
0.975024
0.983545
0.98736
0.989845
0.991869
0.993417
0.993842
0.98897
0.981556
0.978116
0.978109
0.979494
0.98191
0.989878
1.0004
1.00599
1.00904
1.0117
1.0135
1.01442
1.01047
1.0014
0.995365
0.993734
0.994359
0.996095
1.00403
1.01605
1.02327
1.02608
1.02711
1.02774
1.02762
1.02299
1.01245
1.00275
0.998564
0.998072
1.01673
1.22546
1.64989
0.892708
0.893532
0.894496
0.895574
0.898571
0.906503
0.911965
0.914182
0.915406
0.916395
0.916784
0.913171
0.909484
0.909027
0.909626
0.910546
0.91169
0.913413
0.919614
0.928073
0.932008
0.933719
0.934923
0.935975
0.935506
0.930414
0.926925
0.926601
0.927061
0.927939
0.929263
0.932795
0.942152
0.949214
0.952014
0.953388
0.954357
0.955648
0.954554
0.94857
0.945002
0.944549
0.944772
0.945609
0.947237
0.953603
0.964141
0.969801
0.971946
0.973105
0.974285
0.975673
0.97419
0.967469
0.963106
0.962324
0.962582
0.9636
0.966412
0.976135
0.985996
0.99031
0.992153
0.993286
0.994801
0.995937
0.992151
0.984456
0.980659
0.979996
0.980466
0.982096
0.989366
1.00151
1.00886
1.01179
1.01329
1.01446
1.01541
1.01234
1.00354
0.996877
0.994665
0.994825
0.996279
1.00363
1.01578
1.02325
1.02594
1.02697
1.02784
1.02785
1.0242
1.01334
1.00194
0.995089
1.00289
1.22176
1.64843
0.894998
0.894878
0.895539
0.896365
0.897525
0.90131
0.909793
0.914829
0.91689
0.91806
0.919046
0.918897
0.914361
0.910891
0.910752
0.911748
0.912899
0.913913
0.915548
0.922287
0.930549
0.934137
0.935876
0.937335
0.938586
0.937819
0.932155
0.92824
0.928028
0.929071
0.930297
0.931515
0.934736
0.943947
0.950761
0.953551
0.955515
0.957134
0.958369
0.957099
0.950873
0.946318
0.945589
0.94648
0.947792
0.949435
0.955056
0.965038
0.970585
0.973144
0.975264
0.976905
0.978146
0.97684
0.970182
0.964709
0.963362
0.964185
0.96568
0.968386
0.977069
0.986337
0.990814
0.99353
0.995792
0.997384
0.998287
0.994642
0.986523
0.981604
0.980761
0.981819
0.983697
0.989784
1.00129
1.00873
1.01198
1.01411
1.01585
1.01707
1.01485
1.00625
0.998607
0.99552
0.995263
0.996253
1.00267
1.01521
1.02308
1.02567
1.02672
1.02778
1.02795
1.02487
1.01354
0.998669
0.994718
1.21076
1.64591
0.897931
0.895895
0.896332
0.897318
0.898308
0.899671
0.904267
0.912682
0.917297
0.919386
0.920769
0.921848
0.92108
0.916126
0.913265
0.913226
0.913745
0.914578
0.915705
0.917793
0.925092
0.933066
0.936515
0.938094
0.939126
0.9403
0.939973
0.934786
0.931119
0.930699
0.931045
0.93182
0.933118
0.936683
0.946244
0.953549
0.956405
0.95776
0.958663
0.959989
0.959711
0.954102
0.949352
0.948309
0.948464
0.949121
0.950554
0.956058
0.966841
0.973405
0.975904
0.977163
0.97828
0.97975
0.979587
0.97354
0.967653
0.965992
0.966033
0.966802
0.968934
0.977483
0.988458
0.993896
0.996065
0.99725
0.99863
1.00003
0.997766
0.989772
0.984328
0.982826
0.982758
0.98376
0.988694
1.00093
1.01042
1.01451
1.01623
1.01763
1.01876
1.01711
1.00858
0.999698
0.995667
0.995143
0.996164
1.00218
1.01452
1.02235
1.02497
1.02637
1.02773
1.02796
1.02484
1.01019
0.995992
1.19624
1.64409
0.902046
0.897982
0.89754
0.898364
0.899311
0.900181
0.901509
0.906766
0.915541
0.920083
0.922097
0.923499
0.924535
0.923317
0.917813
0.914656
0.91471
0.915721
0.916813
0.917769
0.919662
0.927196
0.935067
0.938343
0.940166
0.941766
0.943065
0.942452
0.936828
0.932469
0.931915
0.932865
0.9341
0.935333
0.938386
0.947524
0.954625
0.957579
0.959617
0.961317
0.96264
0.962396
0.956912
0.951139
0.949343
0.949921
0.951167
0.952703
0.957262
0.967278
0.973827
0.976824
0.979099
0.98085
0.982227
0.982078
0.976321
0.969507
0.966972
0.967364
0.968716
0.970889
0.978236
0.988501
0.993995
0.996994
0.999506
1.00125
1.00244
1.00029
0.992067
0.985292
0.983123
0.983627
0.985122
0.989284
1.0006
1.01072
1.01529
1.0173
1.01856
1.01947
1.01845
1.01093
1.00123
0.996334
0.995444
0.996191
1.0013
1.0133
1.0213
1.02425
1.02618
1.02766
1.028
1.02153
1.00816
1.18487
1.64348
0.90635
0.902323
0.899457
0.89942
0.899926
0.900848