/*--------------------------------*- C++ -*----------------------------------*\
  =========                 |
  \\      /  F ield         | OpenFOAM: The Open Source CFD Toolbox
   \\    /   O peration     | Website:  https://openfoam.org
    \\  /    A nd           | Version:  12
     \\/     M anipulation  |
\*---------------------------------------------------------------------------*/
FoamFile
{
    format      ascii;
    class       volVectorField;
    location    "14.1";
    object      U;
}
// * * * * * * * * * * * * * * * * * * * * * * * * * * * * * * * * * * * * * //

dimensions      [0 1 -1 0 0 0 0];

internalField   nonuniform List<vector> 
9801
(
(1.23514 -0.116026 0)
(1.23478 -0.11231 0)
(1.2322 -0.110388 0)
(1.22861 -0.108133 0)
(1.22433 -0.105742 0)
(1.2192 -0.102746 0)
(1.21121 -0.0990398 0)
(1.20561 -0.0963873 0)
(1.20138 -0.0943228 0)
(1.19795 -0.0920942 0)
(1.19887 -0.0887675 0)
(1.20294 -0.0857589 0)
(1.20343 -0.0833999 0)
(1.20133 -0.0812527 0)
(1.19802 -0.0790892 0)
(1.19398 -0.0769636 0)
(1.18935 -0.0745361 0)
(1.18116 -0.0710038 0)
(1.17348 -0.0681118 0)
(1.16869 -0.0660184 0)
(1.16456 -0.0641857 0)
(1.16238 -0.0616671 0)
(1.16608 -0.0583753 0)
(1.16928 -0.0556452 0)
(1.1684 -0.0533903 0)
(1.16556 -0.0512152 0)
(1.16174 -0.0491558 0)
(1.15735 -0.0470826 0)
(1.14975 -0.0440456 0)
(1.13971 -0.0411108 0)
(1.13373 -0.0390204 0)
(1.12915 -0.037276 0)
(1.12533 -0.0354383 0)
(1.12597 -0.0325493 0)
(1.13139 -0.0295064 0)
(1.13276 -0.0270026 0)
(1.13047 -0.0248298 0)
(1.12688 -0.0228004 0)
(1.12252 -0.0208879 0)
(1.11572 -0.0183957 0)
(1.10361 -0.0156165 0)
(1.09544 -0.0136697 0)
(1.09021 -0.012053 0)
(1.08562 -0.0105611 0)
(1.08367 -0.00837324 0)
(1.0888 -0.00514404 0)
(1.09284 -0.00241596 0)
(1.09173 -0.000138453 0)
(1.08828 0.0019113 0)
(1.08396 0.00365129 0)
(1.07778 0.00577927 0)
(1.06394 0.0082834 0)
(1.05255 0.00999987 0)
(1.04614 0.0114009 0)
(1.04109 0.0124968 0)
(1.03778 0.0141386 0)
(1.04211 0.0172144 0)
(1.04836 0.0200669 0)
(1.04829 0.0225552 0)
(1.04483 0.0247405 0)
(1.03999 0.0264704 0)
(1.03379 0.0283111 0)
(1.01785 0.030437 0)
(1.00211 0.0315852 0)
(0.994146 0.0324679 0)
(0.988407 0.0330723 0)
(0.984258 0.0342286 0)
(0.990091 0.0370077 0)
(0.997609 0.0402014 0)
(0.997518 0.0428366 0)
(0.993589 0.0449739 0)
(0.987991 0.0465323 0)
(0.980285 0.0480595 0)
(0.959978 0.0495692 0)
(0.93856 0.0496715 0)
(0.927549 0.0496985 0)
(0.920322 0.0498199 0)
(0.917405 0.0508439 0)
(0.926763 0.0533031 0)
(0.933484 0.0562549 0)
(0.931243 0.0590099 0)
(0.925382 0.0613742 0)
(0.917851 0.0627793 0)
(0.903926 0.0643923 0)
(0.872384 0.0634702 0)
(0.843667 0.0610966 0)
(0.828548 0.0600843 0)
(0.81897 0.0595367 0)
(0.821917 0.0593235 0)
(0.834856 0.0599941 0)
(0.834533 0.0618368 0)
(0.824238 0.0642809 0)
(0.809554 0.0644296 0)
(0.783131 0.0631128 0)
(0.734515 0.0588346 0)
(0.673495 0.0520331 0)
(0.609744 0.0080889 0)
(0.200165 -0.0952327 0)
(-0.928513 -0.0687404 0)
(1.23569 -0.118152 0)
(1.23451 -0.114659 0)
(1.23174 -0.112588 0)
(1.22815 -0.110211 0)
(1.22393 -0.107742 0)
(1.21864 -0.104607 0)
(1.21098 -0.101034 0)
(1.20525 -0.0983547 0)
(1.20102 -0.0963007 0)
(1.19753 -0.0942338 0)
(1.19878 -0.0909193 0)
(1.2032 -0.0879582 0)
(1.20339 -0.0856324 0)
(1.20099 -0.0834664 0)
(1.19761 -0.081223 0)
(1.19359 -0.0790075 0)
(1.18888 -0.0764268 0)
(1.18089 -0.0729759 0)
(1.17324 -0.0701934 0)
(1.16828 -0.0680761 0)
(1.16419 -0.0663316 0)
(1.1619 -0.0638798 0)
(1.16605 -0.0604576 0)
(1.16935 -0.0576737 0)
(1.16821 -0.055375 0)
(1.16522 -0.053165 0)
(1.16141 -0.0510596 0)
(1.15704 -0.0489364 0)
(1.14956 -0.0460147 0)
(1.13959 -0.0432906 0)
(1.1333 -0.041203 0)
(1.12869 -0.0393845 0)
(1.12483 -0.03766 0)
(1.1255 -0.034653 0)
(1.13134 -0.0314268 0)
(1.13262 -0.028839 0)
(1.13022 -0.0265991 0)
(1.12661 -0.0245481 0)
(1.12226 -0.0226751 0)
(1.11564 -0.0202956 0)
(1.10379 -0.0179563 0)
(1.0951 -0.0161344 0)
(1.08962 -0.0143459 0)
(1.08512 -0.0128093 0)
(1.08287 -0.0105697 0)
(1.08833 -0.00696912 0)
(1.09275 -0.00406038 0)
(1.09161 -0.00175507 0)
(1.08813 0.000270781 0)
(1.0838 0.00193189 0)
(1.07778 0.00386678 0)
(1.06431 0.00591763 0)
(1.0523 0.00733709 0)
(1.04548 0.00884946 0)
(1.04043 0.0101671 0)
(1.03681 0.0118171 0)
(1.04099 0.0151416 0)
(1.04777 0.0185147 0)
(1.04796 0.0212435 0)
(1.04454 0.0234329 0)
(1.03975 0.0250225 0)
(1.03381 0.0264697 0)
(1.0185 0.027944 0)
(1.00208 0.0285213 0)
(0.993401 0.0293568 0)
(0.987555 0.0301997 0)
(0.982975 0.0312415 0)
(0.987425 0.0341139 0)
(0.995362 0.0384232 0)
(0.996176 0.0413737 0)
(0.992641 0.0436275 0)
(0.987155 0.0449868 0)
(0.979854 0.04613 0)
(0.960655 0.0467984 0)
(0.938659 0.0459405 0)
(0.926771 0.0453409 0)
(0.919199 0.0451386 0)
(0.913905 0.0455976 0)
(0.920225 0.0511213 0)
(0.929027 0.0579589 0)
(0.928817 0.0612534 0)
(0.923224 0.0626484 0)
(0.915629 0.0626306 0)
(0.903845 0.0617082 0)
(0.874089 0.0585808 0)
(0.843543 0.054519 0)
(0.826781 0.0514067 0)
(0.816338 0.0497758 0)
(0.812563 0.0508302 0)
(0.820853 0.060388 0)
(0.822473 0.0702767 0)
(0.813953 0.074089 0)
(0.800417 0.0731837 0)
(0.775904 0.0700451 0)
(0.729523 0.0623547 0)
(0.667946 0.0554924 0)
(0.610554 0.0136749 0)
(0.196129 -0.0858003 0)
(-0.932588 -0.0724432 0)
(1.23639 -0.115124 0)
(1.2347 -0.111475 0)
(1.23174 -0.109321 0)
(1.22802 -0.107008 0)
(1.22373 -0.104656 0)
(1.21833 -0.101605 0)
(1.21096 -0.098058 0)
(1.20536 -0.0954453 0)
(1.20107 -0.0935035 0)
(1.19748 -0.0916388 0)
(1.1987 -0.0884237 0)
(1.20348 -0.0851258 0)
(1.20362 -0.0825825 0)
(1.20108 -0.0803207 0)
(1.19761 -0.0780889 0)
(1.19351 -0.0759892 0)
(1.18874 -0.0736459 0)
(1.18079 -0.070476 0)
(1.17321 -0.0677515 0)
(1.16811 -0.0656285 0)
(1.16396 -0.0639448 0)
(1.16129 -0.0616995 0)
(1.1653 -0.057914 0)
(1.16906 -0.0545931 0)
(1.16806 -0.0521554 0)
(1.16506 -0.0499923 0)
(1.16125 -0.0480203 0)
(1.15688 -0.0461645 0)
(1.14962 -0.0437325 0)
(1.13943 -0.0412288 0)
(1.13283 -0.0390707 0)
(1.12809 -0.0371903 0)
(1.12409 -0.0356128 0)
(1.1241 -0.0326626 0)
(1.1301 -0.0286974 0)
(1.13189 -0.0257089 0)
(1.12973 -0.0234979 0)
(1.12616 -0.0215945 0)
(1.12183 -0.0200012 0)
(1.11578 -0.0182533 0)
(1.10384 -0.0165818 0)
(1.09426 -0.0146897 0)
(1.08845 -0.0126286 0)
(1.08388 -0.010981 0)
(1.08103 -0.00892733 0)
(1.08596 -0.00484163 0)
(1.09119 -0.00114035 0)
(1.09054 0.00127017 0)
(1.08724 0.00317331 0)
(1.08295 0.00466564 0)
(1.07743 0.00609198 0)
(1.06457 0.00714316 0)
(1.0514 0.00808727 0)
(1.04381 0.00978068 0)
(1.03851 0.0113893 0)
(1.03429 0.0128804 0)
(1.03688 0.0168556 0)
(1.04464 0.0217425 0)
(1.04589 0.024689 0)
(1.04274 0.026547 0)
(1.03803 0.0278196 0)
(1.03251 0.0287121 0)
(1.01879 0.0289265 0)
(1.00138 0.0281594 0)
(0.99109 0.0288459 0)
(0.984489 0.0302525 0)
(0.97903 0.0313263 0)
(0.979707 0.0352737 0)
(0.988679 0.0420904 0)
(0.991591 0.0457328 0)
(0.988628 0.0472227 0)
(0.983302 0.048007 0)
(0.976856 0.0484516 0)
(0.960691 0.0473335 0)
(0.93746 0.0440879 0)
(0.922507 0.0434316 0)
(0.913521 0.044631 0)
(0.906795 0.0452945 0)
(0.908325 0.049191 0)
(0.919364 0.0563908 0)
(0.921617 0.0591443 0)
(0.91665 0.0596294 0)
(0.909425 0.0598936 0)
(0.899346 0.0605501 0)
(0.874195 0.0576757 0)
(0.841677 0.0514324 0)
(0.820748 0.0477487 0)
(0.808448 0.0464133 0)
(0.799945 0.0450966 0)
(0.803176 0.0480933 0)
(0.808442 0.0534645 0)
(0.803136 0.0547226 0)
(0.791372 0.0534998 0)
(0.771913 0.0502955 0)
(0.732213 0.0426 0)
(0.675862 0.031868 0)
(0.625647 -0.0246082 0)
(0.191101 -0.0916968 0)
(-0.939106 -0.0639675 0)
(1.23481 -0.112935 0)
(1.23314 -0.109001 0)
(1.23015 -0.10682 0)
(1.2263 -0.104645 0)
(1.22192 -0.10251 0)
(1.2161 -0.099729 0)
(1.20874 -0.0966135 0)
(1.20328 -0.09412 0)
(1.19899 -0.0921037 0)
(1.19534 -0.0902624 0)
(1.19622 -0.0871168 0)
(1.20127 -0.0835183 0)
(1.20166 -0.0807446 0)
(1.19914 -0.0784157 0)
(1.19565 -0.0762745 0)
(1.19152 -0.0743983 0)
(1.18671 -0.0723519 0)
(1.17861 -0.069596 0)
(1.17105 -0.0670594 0)
(1.16588 -0.064889 0)
(1.16168 -0.0630652 0)
(1.15861 -0.060957 0)
(1.16201 -0.0570928 0)
(1.16636 -0.0533797 0)
(1.16559 -0.0508587 0)
(1.16262 -0.0487946 0)
(1.15883 -0.0469946 0)
(1.15453 -0.045374 0)
(1.14751 -0.0432171 0)
(1.13719 -0.040937 0)
(1.13033 -0.0389302 0)
(1.12545 -0.0370528 0)
(1.12131 -0.035486 0)
(1.12021 -0.0327065 0)
(1.12613 -0.0282093 0)
(1.12871 -0.024943 0)
(1.12674 -0.0229566 0)
(1.1232 -0.021352 0)
(1.11896 -0.0199897 0)
(1.11346 -0.0183826 0)
(1.10167 -0.0165012 0)
(1.09133 -0.0147088 0)
(1.08525 -0.0129371 0)
(1.08049 -0.0113821 0)
(1.07686 -0.00962938 0)
(1.08041 -0.00547648 0)
(1.08665 -0.000969621 0)
(1.08659 0.00158854 0)
(1.08341 0.00324667 0)
(1.07921 0.00451097 0)
(1.07421 0.00571358 0)
(1.06257 0.00681083 0)
(1.0484 0.00762226 0)
(1.03993 0.00912977 0)
(1.03419 0.0107805 0)
(1.02938 0.0120011 0)
(1.02947 0.015148 0)
(1.03767 0.0205181 0)
(1.0402 0.0238524 0)
(1.03735 0.025514 0)
(1.03291 0.0266768 0)
(1.02787 0.0275831 0)
(1.01661 0.0280872 0)
(0.99836 0.0271817 0)
(0.986008 0.0278313 0)
(0.978421 0.0295621 0)
(0.972463 0.0307131 0)
(0.969894 0.0327568 0)
(0.978199 0.0386815 0)
(0.983367 0.0434262 0)
(0.980999 0.045596 0)
(0.975926 0.0469323 0)
(0.970126 0.0474897 0)
(0.958003 0.0468107 0)
(0.934224 0.0423508 0)
(0.91596 0.0400301 0)
(0.905794 0.040816 0)
(0.898578 0.0415237 0)
(0.89509 0.0433297 0)
(0.903979 0.0519067 0)
(0.909679 0.0602693 0)
(0.906341 0.063473 0)
(0.899739 0.0641699 0)
(0.891585 0.0640614 0)
(0.873488 0.0606716 0)
(0.841414 0.0498585 0)
(0.815972 0.0407353 0)
(0.800463 0.0375564 0)
(0.789949 0.0366714 0)
(0.784654 0.0385468 0)
(0.786964 0.0481209 0)
(0.783333 0.0552732 0)
(0.773161 0.0549296 0)
(0.758739 0.0515916 0)
(0.729971 0.0409026 0)
(0.687549 0.0220409 0)
(0.654662 -0.0384205 0)
(0.184547 -0.0886534 0)
(-0.949043 -0.059865 0)
(1.23184 -0.109752 0)
(1.23012 -0.105873 0)
(1.22716 -0.103882 0)
(1.22329 -0.101771 0)
(1.21897 -0.0996305 0)
(1.21295 -0.0968514 0)
(1.20543 -0.0938829 0)
(1.19997 -0.0914316 0)
(1.19563 -0.0893304 0)
(1.1919 -0.0874805 0)
(1.19211 -0.0842918 0)
(1.19745 -0.0803297 0)
(1.1983 -0.0775696 0)
(1.19582 -0.0754984 0)
(1.19231 -0.0735921 0)
(1.18822 -0.0718054 0)
(1.18347 -0.0697592 0)
(1.17524 -0.0670657 0)
(1.16743 -0.0645922 0)
(1.16214 -0.0624262 0)
(1.15784 -0.0605184 0)
(1.15437 -0.0585399 0)
(1.15677 -0.0546136 0)
(1.16201 -0.0503795 0)
(1.16174 -0.047805 0)
(1.15876 -0.0459622 0)
(1.15497 -0.0443319 0)
(1.15072 -0.0427387 0)
(1.14395 -0.0406403 0)
(1.13353 -0.0385266 0)
(1.12616 -0.0366738 0)
(1.12103 -0.0348549 0)
(1.11673 -0.0332949 0)
(1.11436 -0.0309749 0)
(1.11981 -0.0263196 0)
(1.12374 -0.0224245 0)
(1.12206 -0.0202484 0)
(1.11852 -0.0186467 0)
(1.11435 -0.0172395 0)
(1.10907 -0.0155707 0)
(1.09779 -0.0138948 0)
(1.08672 -0.0125923 0)
(1.08004 -0.0111284 0)
(1.075 -0.00953633 0)
(1.07078 -0.00807763 0)
(1.07215 -0.00445706 0)
(1.07945 0.000708884 0)
(1.08056 0.00389407 0)
(1.07759 0.00572996 0)
(1.07349 0.00709993 0)
(1.06882 0.0083103 0)
(1.05883 0.0090347 0)
(1.04369 0.0084487 0)
(1.03375 0.0091849 0)
(1.02745 0.0108919 0)
(1.02233 0.0125016 0)
(1.01995 0.0150913 0)
(1.02739 0.0209617 0)
(1.03222 0.0259514 0)
(1.03019 0.0283181 0)
(1.02599 0.029724 0)
(1.02124 0.0305042 0)
(1.01276 0.0307336 0)
(0.994504 0.0275753 0)
(0.979227 0.0256058 0)
(0.970684 0.0270034 0)
(0.964314 0.0289305 0)
(0.959734 0.0311268 0)
(0.964958 0.0371433 0)
(0.973104 0.0442091 0)
(0.972478 0.047199 0)
(0.967761 0.0482087 0)
(0.962251 0.0484851 0)
(0.953778 0.0483066 0)
(0.932634 0.0436138 0)
(0.910189 0.0378147 0)
(0.897775 0.0367325 0)
(0.890027 0.0378257 0)
(0.883718 0.0392206 0)
(0.886589 0.0454378 0)
(0.896059 0.0562511 0)
(0.896103 0.0616252 0)
(0.890061 0.0625239 0)
(0.88264 0.0620643 0)
(0.870364 0.0601618 0)
(0.8438 0.0511836 0)
(0.813514 0.0390428 0)
(0.793971 0.0306268 0)
(0.782285 0.0281972 0)
(0.773654 0.0276501 0)
(0.772661 0.0315727 0)
(0.772492 0.0374592 0)
(0.766201 0.0375303 0)
(0.756155 0.0339215 0)
(0.739999 0.0282542 0)
(0.708491 0.0183091 0)
(0.679493 -0.0264691 0)
(0.182876 -0.0866413 0)
(-0.954424 -0.0550337 0)
(1.22715 -0.10714 0)
(1.22555 -0.103059 0)
(1.22264 -0.101168 0)
(1.21882 -0.099183 0)
(1.21455 -0.0971806 0)
(1.20846 -0.0947401 0)
(1.20064 -0.0920804 0)
(1.19498 -0.0897447 0)
(1.19052 -0.0876012 0)
(1.18667 -0.0857674 0)
(1.18604 -0.0827504 0)
(1.19167 -0.0784826 0)
(1.19323 -0.0753737 0)
(1.19087 -0.0732305 0)
(1.18741 -0.0713809 0)
(1.18342 -0.0696469 0)
(1.17878 -0.0677579 0)
(1.1706 -0.0654769 0)
(1.1623 -0.0632392 0)
(1.15667 -0.0611396 0)
(1.15217 -0.0591488 0)
(1.14839 -0.0573724 0)
(1.14951 -0.053935 0)
(1.15563 -0.0494574 0)
(1.15617 -0.0464212 0)
(1.15336 -0.0443558 0)
(1.14965 -0.0426471 0)
(1.14547 -0.0411005 0)
(1.13914 -0.0394795 0)
(1.12852 -0.0381437 0)
(1.12043 -0.0363972 0)
(1.11495 -0.0343928 0)
(1.11047 -0.0325152 0)
(1.10723 -0.0304673 0)
(1.11155 -0.0264128 0)
(1.11688 -0.0222196 0)
(1.11589 -0.0195611 0)
(1.11251 -0.0176636 0)
(1.10845 -0.0161132 0)
(1.10357 -0.0146498 0)
(1.09304 -0.0141711 0)
(1.0809 -0.0140861 0)
(1.07351 -0.0123453 0)
(1.06814 -0.0100673 0)
(1.06366 -0.00808158 0)
(1.06311 -0.00483583 0)
(1.07062 0.000386833 0)
(1.07335 0.00420111 0)
(1.0709 0.00640607 0)
(1.06696 0.00800587 0)
(1.06248 0.00916614 0)
(1.05469 0.00976709 0)
(1.03908 0.00811863 0)
(1.02677 0.00770439 0)
(1.01993 0.00961502 0)
(1.01461 0.0117298 0)
(1.01098 0.0141552 0)
(1.01638 0.0194073 0)
(1.02351 0.0251109 0)
(1.02276 0.02777 0)
(1.0189 0.0292087 0)
(1.01432 0.0302654 0)
(1.00811 0.0310422 0)
(0.992411 0.0291584 0)
(0.973566 0.0257495 0)
(0.962964 0.0251956 0)
(0.956571 0.0265308 0)
(0.951205 0.0281464 0)
(0.952193 0.0328411 0)
(0.961978 0.0418785 0)
(0.96463 0.0473315 0)
(0.960776 0.0487993 0)
(0.95548 0.0490147 0)
(0.949071 0.0491688 0)
(0.93324 0.0462174 0)
(0.908876 0.0391318 0)
(0.892372 0.0342801 0)
(0.882709 0.0334557 0)
(0.875663 0.0341831 0)
(0.872046 0.0371359 0)
(0.879821 0.0476788 0)
(0.885487 0.0584339 0)
(0.882295 0.0628309 0)
(0.875437 0.0635411 0)
(0.866859 0.0630767 0)
(0.848662 0.0569043 0)
(0.818685 0.0419518 0)
(0.793603 0.0296134 0)
(0.77777 0.0218476 0)
(0.768257 0.0191726 0)
(0.762305 0.0193526 0)
(0.762275 0.0242646 0)
(0.759502 0.0268967 0)
(0.753217 0.023122 0)
(0.743743 0.0171834 0)
(0.725387 0.00877473 0)
(0.706225 -0.0199911 0)
(0.184542 -0.0813909 0)
(-0.959077 -0.0499296 0)
(1.22157 -0.104334 0)
(1.22037 -0.100133 0)
(1.21759 -0.098076 0)
(1.21387 -0.0959929 0)
(1.20967 -0.09403 0)
(1.20361 -0.0918375 0)
(1.19515 -0.0895281 0)
(1.18922 -0.0872828 0)
(1.18469 -0.0850576 0)
(1.18082 -0.0831003 0)
(1.17947 -0.0803045 0)
(1.18499 -0.0762679 0)
(1.18747 -0.0730102 0)
(1.18547 -0.0706943 0)
(1.18216 -0.0686891 0)
(1.17826 -0.0668861 0)
(1.17385 -0.0651623 0)
(1.16562 -0.0635369 0)
(1.1563 -0.0619749 0)
(1.15041 -0.0597349 0)
(1.14586 -0.0573191 0)
(1.14206 -0.0551298 0)
(1.1422 -0.0517854 0)
(1.1485 -0.0475068 0)
(1.1501 -0.0443531 0)
(1.14775 -0.0420786 0)
(1.14426 -0.040114 0)
(1.14018 -0.0385156 0)
(1.13475 -0.0371058 0)
(1.12376 -0.0367046 0)
(1.11408 -0.0359293 0)
(1.10837 -0.0338282 0)
(1.10385 -0.031531 0)
(1.10039 -0.0290435 0)
(1.10347 -0.024834 0)
(1.10958 -0.0203255 0)
(1.10964 -0.0173898 0)
(1.10675 -0.0151722 0)
(1.10296 -0.0132672 0)
(1.09862 -0.0118588 0)
(1.09029 -0.0112702 0)
(1.07634 -0.0123985 0)
(1.06685 -0.0120269 0)
(1.06135 -0.0100512 0)
(1.05682 -0.00799166 0)
(1.05498 -0.00484815 0)
(1.06164 0.000805304 0)
(1.06624 0.00547638 0)
(1.06467 0.00784867 0)
(1.06106 0.0096117 0)
(1.05673 0.0110331 0)
(1.05112 0.0120696 0)
(1.03736 0.010723 0)
(1.02189 0.00877036 0)
(1.01331 0.00888188 0)
(1.00798 0.0101846 0)
(1.00359 0.0119035 0)
(1.00576 0.0167144 0)
(1.01449 0.0247673 0)
(1.01622 0.0293526 0)
(1.01298 0.0310474 0)
(1.00855 0.0319726 0)
(1.00336 0.0325785 0)
(0.99186 0.0314999 0)
(0.972061 0.0273053 0)
(0.958181 0.0249299 0)
(0.950388 0.0249619 0)
(0.944705 0.0258166 0)
(0.941272 0.0282472 0)
(0.948819 0.0370071 0)
(0.956661 0.0467258 0)
(0.955453 0.0502828 0)
(0.950552 0.0506118 0)
(0.944913 0.050187 0)
(0.934739 0.0485354 0)
(0.912752 0.0403743 0)
(0.8911 0.0328188 0)
(0.878091 0.0299155 0)
(0.870134 0.0298391 0)
(0.86376 0.0306718 0)
(0.864449 0.0361 0)
(0.873517 0.048146 0)
(0.876048 0.0563425 0)
(0.871332 0.0596081 0)
(0.863951 0.0602339 0)
(0.852953 0.0592278 0)
(0.830241 0.0497442 0)
(0.801619 0.0322943 0)
(0.780399 0.0198458 0)
(0.766794 0.0128928 0)
(0.758577 0.0105222 0)
(0.755591 0.0113946 0)
(0.756368 0.0148573 0)
(0.754166 0.0126148 0)
(0.749209 0.00522364 0)
(0.738907 -0.00151917 0)
(0.725432 -0.0152015 0)
(0.189194 -0.0754831 0)
(-0.963722 -0.0463517 0)
(1.21605 -0.101553 0)
(1.21525 -0.0970647 0)
(1.21238 -0.0952997 0)
(1.2086 -0.0935205 0)
(1.20439 -0.0917843 0)
(1.19872 -0.0898701 0)
(1.18992 -0.0878172 0)
(1.18338 -0.0858343 0)
(1.17884 -0.0836612 0)
(1.17503 -0.0815762 0)
(1.17335 -0.0785596 0)
(1.17855 -0.074072 0)
(1.18191 -0.0704482 0)
(1.18036 -0.0680445 0)
(1.17708 -0.0661854 0)
(1.17319 -0.0646295 0)
(1.16888 -0.0631445 0)
(1.16163 -0.061588 0)
(1.15136 -0.0602751 0)
(1.14451 -0.0585706 0)
(1.13991 -0.0564598 0)
(1.13609 -0.0543333 0)
(1.13561 -0.0507976 0)
(1.14183 -0.045816 0)
(1.14442 -0.0422618 0)
(1.14244 -0.0401006 0)
(1.13896 -0.0384798 0)
(1.1349 -0.0371426 0)
(1.13029 -0.0358522 0)
(1.12067 -0.0350014 0)
(1.10918 -0.0345109 0)
(1.10242 -0.0332465 0)
(1.09785 -0.031503 0)
(1.09419 -0.0294012 0)
(1.09597 -0.0249645 0)
(1.10276 -0.0191775 0)
(1.10396 -0.0157396 0)
(1.10133 -0.0139012 0)
(1.09758 -0.0125581 0)
(1.09335 -0.0114182 0)
(1.08747 -0.0102931 0)
(1.07448 -0.0106313 0)
(1.06239 -0.0108326 0)
(1.05581 -0.0100192 0)
(1.05116 -0.00881787 0)
(1.04794 -0.00672457 0)
(1.05271 -0.000846289 0)
(1.05961 0.00599531 0)
(1.05944 0.00930648 0)
(1.05599 0.0107536 0)
(1.05172 0.0117154 0)
(1.04705 0.0125901 0)
(1.03663 0.0125265 0)
(1.02015 0.0100078 0)
(1.00927 0.0092418 0)
(1.0029 0.009871 0)
(0.998078 0.0107901 0)
(0.996074 0.0135139 0)
(1.00423 0.0219767 0)
(1.01016 0.029663 0)
(1.0084 0.0323487 0)
(1.0041 0.0330803 0)
(0.999245 0.0334697 0)
(0.991673 0.0333087 0)
(0.973729 0.0287356 0)
(0.956523 0.0243204 0)
(0.946389 0.0234207 0)
(0.939799 0.0241912 0)
(0.934423 0.0252815 0)
(0.935275 0.030251 0)
(0.946025 0.0416948 0)
(0.950135 0.0493997 0)
(0.947011 0.051857 0)
(0.941731 0.0523769 0)
(0.935116 0.0522198 0)
(0.918936 0.0471871 0)
(0.894237 0.0359705 0)
(0.877205 0.0293159 0)
(0.867128 0.0266652 0)
(0.859847 0.0260382 0)
(0.854469 0.0273349 0)
(0.858625 0.0360462 0)
(0.865895 0.048884 0)
(0.865442 0.0558276 0)
(0.85976 0.0586024 0)
(0.852003 0.0590244 0)
(0.839408 0.0553877 0)
(0.815988 0.042154 0)
(0.78945 0.0238192 0)
(0.770326 0.0115804 0)
(0.758629 0.00462385 0)
(0.751605 0.00238754 0)
(0.751079 0.00439258 0)
(0.752848 0.00628686 0)
(0.75241 -0.000799671 0)
(0.747548 -0.00933829 0)
(0.739848 -0.0160515 0)
(0.19546 -0.0691353 0)
(-0.967273 -0.042537 0)
(1.21122 -0.0989874 0)
(1.21096 -0.0942248 0)
(1.20828 -0.0922798 0)
(1.20468 -0.0903034 0)
(1.20064 -0.0885202 0)
(1.1957 -0.0868169 0)
(1.18686 -0.085152 0)
(1.1793 -0.0833699 0)
(1.17447 -0.081509 0)
(1.17046 -0.0798279 0)
(1.16789 -0.0774655 0)
(1.17248 -0.0727055 0)
(1.177 -0.068332 0)
(1.17603 -0.0657844 0)
(1.173 -0.0637943 0)
(1.16931 -0.061966 0)
(1.16521 -0.0603848 0)
(1.15944 -0.0589662 0)
(1.14893 -0.0580108 0)
(1.1406 -0.0565304 0)
(1.13555 -0.0547785 0)
(1.13146 -0.0532375 0)
(1.12951 -0.0506285 0)
(1.1354 -0.0451429 0)
(1.13958 -0.0405256 0)
(1.1382 -0.0380617 0)
(1.13495 -0.0362445 0)
(1.13108 -0.034671 0)
(1.1269 -0.0333404 0)
(1.11914 -0.0325315 0)
(1.10701 -0.0326444 0)
(1.09855 -0.0317225 0)
(1.09339 -0.0302631 0)
(1.08923 -0.0290151 0)
(1.08843 -0.025842 0)
(1.09567 -0.0189706 0)
(1.09926 -0.0139245 0)
(1.0974 -0.0115966 0)
(1.09388 -0.0100365 0)
(1.0898 -0.00882778 0)
(1.08504 -0.00788293 0)
(1.07361 -0.0083082 0)
(1.06038 -0.00966923 0)
(1.05224 -0.00926781 0)
(1.04691 -0.00808016 0)
(1.04267 -0.00694754 0)
(1.04336 -0.00299885 0)
(1.05204 0.0052567 0)
(1.05494 0.0105478 0)
(1.05236 0.0126031 0)
(1.04833 0.0137625 0)
(1.04395 0.0145295 0)
(1.03663 0.014583 0)
(1.02072 0.01141 0)
(1.00729 0.00892287 0)
(0.999348 0.00924849 0)
(0.993794 0.0104918 0)
(0.989396 0.0120178 0)
(0.992387 0.0178387 0)
(1.00244 0.0279146 0)
(1.00447 0.033322 0)
(1.00105 0.0347877 0)
(0.996269 0.0349742 0)
(0.990814 0.0351885 0)
(0.977831 0.0322997 0)
(0.957749 0.0253734 0)
(0.944403 0.0222331 0)
(0.93656 0.0219701 0)
(0.930627 0.022594 0)
(0.926236 0.0241799 0)
(0.932196 0.0329173 0)
(0.942239 0.0454607 0)
(0.94304 0.0513328 0)
(0.938544 0.053082 0)
(0.932911 0.0534062 0)
(0.924126 0.0527556 0)
(0.904075 0.04314 0)
(0.881291 0.0298197 0)
(0.866603 0.023942 0)
(0.857324 0.0225658 0)
(0.850562 0.0224461 0)
(0.847085 0.0247803 0)
(0.853313 0.0351777 0)
(0.858536 0.0462767 0)
(0.856654 0.0512585 0)
(0.850682 0.0529428 0)
(0.842149 0.0530615 0)
(0.827597 0.0484941 0)
(0.804231 0.0340628 0)
(0.779812 0.0152714 0)
(0.762242 0.00260509 0)
(0.752182 -0.00437893 0)
(0.746917 -0.00649864 0)
(0.749766 -0.0040104 0)
(0.754218 -0.00642075 0)
(0.754376 -0.0149048 0)
(0.749813 -0.018503 0)
(0.202199 -0.0620505 0)
(-0.970589 -0.0393856 0)
(1.2071 -0.0965428 0)
(1.20771 -0.0913124 0)
(1.20532 -0.0894882 0)
(1.20186 -0.0875935 0)
(1.19795 -0.0858251 0)
(1.19351 -0.0841559 0)
(1.1851 -0.0826245 0)
(1.17668 -0.0812102 0)
(1.17134 -0.0794901 0)
(1.16713 -0.0777881 0)
(1.16375 -0.0758469 0)
(1.16658 -0.0715725 0)
(1.17259 -0.0664293 0)
(1.17269 -0.0633967 0)
(1.16996 -0.0614214 0)
(1.16645 -0.0596731 0)
(1.16242 -0.0580829 0)
(1.15745 -0.0565292 0)
(1.14741 -0.0557075 0)
(1.13812 -0.0548601 0)
(1.13249 -0.0533675 0)
(1.12814 -0.0518178 0)
(1.12484 -0.0498467 0)
(1.12865 -0.0448849 0)
(1.1349 -0.0390791 0)
(1.13478 -0.0360196 0)
(1.13186 -0.0342303 0)
(1.12821 -0.0327204 0)
(1.12412 -0.0314348 0)
(1.11805 -0.0303797 0)
(1.10586 -0.0308681 0)
(1.09608 -0.030755 0)
(1.09013 -0.0294788 0)
(1.0856 -0.0279723 0)
(1.08239 -0.0260162 0)
(1.0874 -0.0200261 0)
(1.0942 -0.0130815 0)
(1.09399 -0.00994254 0)
(1.09083 -0.00848296 0)
(1.08695 -0.0073538 0)
(1.08268 -0.00642143 0)
(1.07409 -0.00650061 0)
(1.05962 -0.00874138 0)
(1.04974 -0.00925711 0)
(1.04357 -0.00808965 0)
(1.03882 -0.00673674 0)
(1.03585 -0.00461499 0)
(1.04248 0.00271912 0)
(1.04976 0.0105712 0)
(1.04919 0.0138247 0)
(1.04558 0.0150728 0)
(1.04136 0.0158589 0)
(1.03628 0.0163052 0)
(1.02319 0.013855 0)
(1.00667 0.00974587 0)
(0.996754 0.00891867 0)
(0.990422 0.00987306 0)
(0.985438 0.0108713 0)
(0.982884 0.0135046 0)
(0.991486 0.0230298 0)
(0.999161 0.0323269 0)
(0.998305 0.0358949 0)
(0.994274 0.0370681 0)
(0.989687 0.0374538 0)
(0.981646 0.0366489 0)
(0.962784 0.029652 0)
(0.94494 0.0222349 0)
(0.934615 0.0200163 0)
(0.927445 0.0200942 0)
(0.921675 0.0208791 0)
(0.919315 0.0243003 0)
(0.928953 0.0372355 0)
(0.936418 0.0493767 0)
(0.935057 0.0540795 0)
(0.930283 0.0550203 0)
(0.924617 0.0546367 0)
(0.913808 0.0519215 0)
(0.890582 0.0392981 0)
(0.86937 0.0268266 0)
(0.856839 0.0215477 0)
(0.84879 0.0194561 0)
(0.84229 0.0189668 0)
(0.840602 0.0223401 0)
(0.847012 0.0338378 0)
(0.849938 0.043832 0)
(0.846768 0.0482167 0)
(0.840213 0.0492565 0)
(0.831588 0.0477844 0)
(0.817204 0.0406687 0)
(0.794863 0.0250078 0)
(0.772071 0.005784 0)
(0.756092 -0.00801336 0)
(0.747565 -0.0145308 0)
(0.744709 -0.0155729 0)
(0.751754 -0.0141938 0)
(0.757957 -0.0193076 0)
(0.75678 -0.0222742 0)
(0.210186 -0.0534262 0)
(-0.973473 -0.0360134 0)
(1.20292 -0.0945249 0)
(1.20464 -0.0887312 0)
(1.2025 -0.0868092 0)
(1.19911 -0.0849716 0)
(1.19525 -0.0832085 0)
(1.19104 -0.0816107 0)
(1.18343 -0.0800867 0)
(1.17425 -0.0790091 0)
(1.16848 -0.0775676 0)
(1.16416 -0.0759742 0)
(1.16044 -0.0744642 0)
(1.16081 -0.0709506 0)
(1.16766 -0.0651987 0)
(1.16933 -0.0613961 0)
(1.16696 -0.0591785 0)
(1.16358 -0.0573689 0)
(1.15967 -0.0557906 0)
(1.15528 -0.0543198 0)
(1.14637 -0.0534077 0)
(1.13595 -0.0531293 0)
(1.12971 -0.0520623 0)
(1.12516 -0.0506146 0)
(1.12129 -0.0492397 0)
(1.12174 -0.045508 0)
(1.12929 -0.0385814 0)
(1.13132 -0.0342374 0)
(1.12885 -0.0322107 0)
(1.1253 -0.0307481 0)
(1.1213 -0.0295097 0)
(1.11652 -0.0283791 0)
(1.10565 -0.0286369 0)
(1.09404 -0.0294481 0)
(1.08721 -0.0286398 0)
(1.08233 -0.027119 0)
(1.07827 -0.0256857 0)
(1.07886 -0.0217423 0)
(1.08761 -0.0137452 0)
(1.0904 -0.00873345 0)
(1.08793 -0.00678664 0)
(1.08418 -0.00568484 0)
(1.08005 -0.00480471 0)
(1.0742 -0.00428435 0)
(1.06051 -0.00647322 0)
(1.04787 -0.00841044 0)
(1.04068 -0.00791822 0)
(1.0355 -0.00652773 0)
(1.0312 -0.00517583 0)
(1.03249 -0.00072967 0)
(1.04245 0.00886012 0)
(1.04561 0.0146498 0)
(1.04296 0.0166439 0)
(1.03884 0.0173905 0)
(1.03438 0.0180734 0)
(1.02589 0.0175241 0)
(1.00863 0.0125796 0)
(0.995374 0.00929424 0)
(0.988027 0.00915054 0)
(0.982276 0.0101262 0)
(0.977442 0.0112243 0)
(0.978952 0.0164054 0)
(0.990252 0.0287056 0)
(0.99423 0.0362097 0)
(0.991512 0.0385397 0)
(0.986889 0.0390148 0)
(0.981794 0.0392808 0)
(0.970606 0.0356094 0)
(0.950048 0.0249816 0)
(0.934485 0.0185715 0)
(0.925045 0.0176975 0)
(0.918583 0.0183604 0)
(0.913299 0.0192524 0)
(0.914202 0.0244853 0)
(0.925758 0.0392484 0)
(0.931072 0.0494425 0)
(0.928436 0.0526293 0)
(0.922871 0.0536841 0)
(0.915836 0.0545146 0)
(0.90239 0.0506746 0)
(0.879251 0.0352739 0)
(0.86036 0.0220571 0)
(0.848418 0.0170296 0)
(0.840559 0.0155802 0)
(0.834486 0.0155304 0)
(0.834477 0.0202717 0)
(0.840526 0.0314223 0)
(0.84206 0.03912 0)
(0.838487 0.041862 0)
(0.831994 0.0424016 0)
(0.823046 0.0401396 0)
(0.809032 0.0318807 0)
(0.787953 0.0148347 0)
(0.766615 -0.00562925 0)
(0.752137 -0.0195227 0)
(0.745064 -0.0248128 0)
(0.74614 -0.0261721 0)
(0.757203 -0.0279638 0)
(0.760284 -0.0288715 0)
(0.218294 -0.0424635 0)
(-0.976449 -0.0333627 0)
(1.19819 -0.0928526 0)
(1.20124 -0.0864104 0)
(1.19955 -0.0842589 0)
(1.19626 -0.0824211 0)
(1.19255 -0.0806429 0)
(1.18846 -0.0791255 0)
(1.18206 -0.0776746 0)
(1.17228 -0.0768358 0)
(1.16563 -0.0756333 0)
(1.16105 -0.0741377 0)
(1.15718 -0.0727774 0)
(1.15541 -0.070237 0)
(1.16163 -0.06438 0)
(1.1656 -0.0594106 0)
(1.164 -0.0568646 0)
(1.16078 -0.0550669 0)
(1.15702 -0.053534 0)
(1.1529 -0.0522059 0)
(1.14581 -0.0513159 0)
(1.13459 -0.0515208 0)
(1.127 -0.0508 0)
(1.12202 -0.0493256 0)
(1.11796 -0.0478893 0)
(1.11563 -0.0455151 0)
(1.12204 -0.0390825 0)
(1.1273 -0.0330411 0)
(1.12601 -0.0303198 0)
(1.12266 -0.028814 0)
(1.1188 -0.0275703 0)
(1.1146 -0.0264696 0)
(1.10626 -0.026309 0)
(1.0932 -0.0278487 0)
(1.08453 -0.027697 0)
(1.07912 -0.0263102 0)
(1.07486 -0.0249132 0)
(1.07223 -0.0226337 0)
(1.07903 -0.0156621 0)
(1.0859 -0.00845372 0)
(1.08516 -0.00536809 0)
(1.08168 -0.00404629 0)
(1.07769 -0.00308349 0)
(1.07322 -0.00224885 0)
(1.06265 -0.00341016 0)
(1.04755 -0.00678662 0)
(1.03837 -0.00752517 0)
(1.03263 -0.00658891 0)
(1.02797 -0.0053402 0)
(1.02491 -0.00320892 0)
(1.03209 0.00492824 0)
(1.04036 0.0142429 0)
(1.0402 0.017962 0)
(1.03666 0.0193455 0)
(1.03257 0.0200653 0)
(1.02743 0.020318 0)
(1.01362 0.0164374 0)
(0.996538 0.00994422 0)
(0.986198 0.00783982 0)
(0.97942 0.00856917 0)
(0.973911 0.00991353 0)
(0.970157 0.0119801 0)
(0.976898 0.0210995 0)
(0.987307 0.033851 0)
(0.988456 0.0391833 0)
(0.985173 0.040765 0)
(0.98056 0.041063 0)
(0.974376 0.0413444 0)
(0.958181 0.0353271 0)
(0.937118 0.0238864 0)
(0.924442 0.0183042 0)
(0.916799 0.0168008 0)
(0.910706 0.0164803 0)
(0.905569 0.0175443 0)
(0.908815 0.0258627 0)
(0.920183 0.0428631 0)
(0.923052 0.0527225 0)
(0.919509 0.0556178 0)
(0.914297 0.0554163 0)
(0.907714 0.054307 0)
(0.893181 0.0476398 0)
(0.869325 0.0315129 0)
(0.85119 0.019296 0)
(0.839989 0.0142913 0)
(0.832707 0.0124733 0)
(0.827133 0.0125416 0)
(0.828611 0.0185376 0)
(0.833921 0.0291099 0)
(0.834394 0.035072 0)
(0.830781 0.0362526 0)
(0.824609 0.0357651 0)
(0.816144 0.0320362 0)
(0.803222 0.0226564 0)
(0.783445 0.00375712 0)
(0.763354 -0.0174753 0)
(0.749812 -0.0303108 0)
(0.744378 -0.0352761 0)
(0.751157 -0.0394185 0)
(0.758489 -0.0385552 0)
(0.224954 -0.0307373 0)
(-0.979278 -0.0313888 0)
(1.19284 -0.0915328 0)
(1.19736 -0.084362 0)
(1.19657 -0.0816945 0)
(1.19351 -0.0798772 0)
(1.18992 -0.0781275 0)
(1.18592 -0.0766957 0)
(1.18064 -0.0753096 0)
(1.17094 -0.0747006 0)
(1.1631 -0.0738603 0)
(1.15811 -0.0724292 0)
(1.15405 -0.0708909 0)
(1.15086 -0.0691038 0)
(1.15455 -0.0640749 0)
(1.16107 -0.0578575 0)
(1.16096 -0.0546617 0)
(1.15804 -0.0528643 0)
(1.15445 -0.0513787 0)
(1.15043 -0.0501241 0)
(1.14511 -0.0491253 0)
(1.13411 -0.049528 0)
(1.12469 -0.0494714 0)
(1.11906 -0.0481553 0)
(1.11469 -0.0465758 0)
(1.11113 -0.0449781 0)
(1.11381 -0.0401561 0)
(1.1219 -0.0327281 0)
(1.12297 -0.0287343 0)
(1.12006 -0.0269367 0)
(1.11639 -0.0256238 0)
(1.11236 -0.0245087 0)
(1.1065 -0.0237797 0)
(1.09361 -0.0253239 0)
(1.08263 -0.0263705 0)
(1.07649 -0.025586 0)
(1.07189 -0.0243162 0)
(1.068 -0.0230559 0)
(1.06984 -0.01853 0)
(1.07937 -0.00951461 0)
(1.08191 -0.00435735 0)
(1.07922 -0.00234793 0)
(1.07543 -0.00123069 0)
(1.07132 -0.000346743 0)
(1.0646 -0.000269321 0)
(1.0496 -0.0040235 0)
(1.0371 -0.00689416 0)
(1.03016 -0.00669265 0)
(1.02487 -0.00539729 0)
(1.02045 -0.00413037 0)
(1.0209 0.000217908 0)
(1.03165 0.0114598 0)
(1.03632 0.0188692 0)
(1.03424 0.0212062 0)
(1.03011 0.0217904 0)
(1.02576 0.0223153 0)
(1.01841 0.0213363 0)
(1.00106 0.0142375 0)
(0.985766 0.0086134 0)
(0.977154 0.00781823 0)
(0.971215 0.00858185 0)
(0.966249 0.00939852 0)
(0.96474 0.0126675 0)
(0.975671 0.0252186 0)
(0.983523 0.0367212 0)
(0.982429 0.0405838 0)
(0.97806 0.0421251 0)
(0.973234 0.0430155 0)
(0.965963 0.0421535 0)
(0.947887 0.0317751 0)
(0.928463 0.0190741 0)
(0.916528 0.0143003 0)
(0.908264 0.0141964 0)
(0.902393 0.0148324 0)
(0.898262 0.0161628 0)
(0.904396 0.0257347 0)
(0.915274 0.0418232 0)
(0.917318 0.0495012 0)
(0.913283 0.0517174 0)
(0.907349 0.0524147 0)
(0.899271 0.0523436 0)
(0.8833 0.0452131 0)
(0.860449 0.0282047 0)
(0.843272 0.015666 0)
(0.832222 0.0107168 0)
(0.825184 0.00901029 0)
(0.820454 0.00948486 0)
(0.823625 0.0164697 0)
(0.828747 0.0255731 0)
(0.828829 0.0293926 0)
(0.825289 0.0293539 0)
(0.819368 0.0286398 0)
(0.811365 0.024037 0)
(0.799693 0.0131698 0)
(0.78132 -0.00707366 0)
(0.761557 -0.0278196 0)
(0.748099 -0.0397547 0)
(0.746009 -0.0483686 0)
(0.75238 -0.0527564 0)