/*--------------------------------*- C++ -*----------------------------------*\
  =========                 |
  \\      /  F ield         | OpenFOAM: The Open Source CFD Toolbox
   \\    /   O peration     | Website:  https://openfoam.org
    \\  /    A nd           | Version:  12
     \\/     M anipulation  |
\*---------------------------------------------------------------------------*/
FoamFile
{
    format      ascii;
    class       surfaceScalarField;
    location    "1.89";
    object      phi;
}
// * * * * * * * * * * * * * * * * * * * * * * * * * * * * * * * * * * * * * //

dimensions      [1 0 -1 0 0 0 0];

internalField   nonuniform List<scalar> 
33852
(
0.000251329
2.24281e-05
-0.000273757
-0.000246121
1.32441e-05
0.000232877
-0.000178221
-7.35944e-05
0.000249765
0.000304053
-0.000163969
-0.000140085
0.000289609
-4.33325e-05
-0.000247149
2.72441e-05
-0.000260681
0.000233437
0.000315584
1.47834e-05
-0.000330592
0.000304277
-9.59564e-05
-0.000208321
0.000286413
-3.50841e-05
0.000206907
4.01748e-07
-0.000216351
0.000289464
-0.000366437
7.69323e-05
0.000361041
-4.5784e-05
-4.39602e-05
0.000263285
-0.000219325
-4.39708e-05
0.000318173
-0.000274098
6.23458e-05
-0.000240152
0.000252057
1.2236e-05
-0.000264293
0.000264853
-1.2796e-05
-0.000278433
3.23121e-05
0.00034064
-5.11396e-05
0.000158593
0.000112308
-0.000270901
-2.43712e-05
0.000303376
-0.000278936
0.000271377
-0.000276165
4.78802e-06
-1.76913e-05
0.000274587
-0.000257
-0.000220938
1.43452e-05
0.000206726
-0.000153694
-0.00018311
0.000336982
-0.000159622
-8.14865e-05
0.000221716
3.72401e-05
0.000267037
-6.11226e-05
-0.000262718
0.00032397
-0.000212332
1.66309e-06
0.000204618
-0.000202632
-1.86401e-05
0.000142045
0.000137388
-0.000279433
0.000341475
1.93477e-05
0.000142618
0.000128347
-0.000270965
-0.000101136
0.000259729
-0.000250489
-3.78001e-06
0.000254269
0.000331036
-5.96489e-05
-0.000271065
-0.000356805
0.000203306
-0.000227075
0.000209289
0.000231645
3.32081e-05
-5.65602e-06
0.000237301
-7.69649e-06
0.000199051
-0.000232625
0.000259869
0.000316592
-5.7203e-05
-0.000258701
-0.000309093
5.51042e-05
0.000253989
0.000240027
-0.000301036
0.000273589
-0.000306321
3.27321e-05
-0.000180237
-5.49362e-05
0.000235173
0.000272133
-0.000272133
0.000148429
-0.000297473
0.000149045
-0.000207264
0.000214009
-7.29102e-06
-0.000268241
0.000237301
3.09401e-05
-0.000196706
0.000244244
-4.65272e-05
-9.16164e-05
-0.000217477
-0.000114513
-0.000251983
-0.000280169
0.000266113
1.40561e-05
0.000329175
1.1848e-05
-0.000250433
7.01963e-05
0.000117908
0.000145909
-0.000263817
1.34681e-05
-0.000267457
0.000253989
-0.000134569
0.000282997
-0.000129883
-4.12928e-05
0.000167547
-0.000274681
0.000245113
2.95681e-05
0.000237553
-0.000268437
3.08841e-05
-0.000193193
-2.43881e-05
0.000151665
0.000115565
-0.00026723
-0.000182523
-2.72326e-05
0.000216435
0.000263985
2.24281e-05
0.000275941
-2.35201e-06
0.000265329
-0.000250741
-1.45881e-05
0.000220485
-6.49359e-05
-0.00017709
-1.82001e-06
0.000239373
0.00036645
-0.00031251
-5.39149e-05
-2.82349e-05
0.000303774
-0.000275827
-0.000101584
0.000219493
0.000342365
2.41878e-05
-0.000372116
0.000354001
1.82447e-05
-0.00020335
2.14447e-05
0.00031098
-0.000322529
1.23886e-05
-0.000208962
0.000273264
-6.4075e-05
-4.45202e-06
1.71986e-05
-0.000320563
0.000303405
0.000233798
-0.000200091
-3.53451e-05
0.000267431
-0.000337513
6.95559e-05
0.000330969
-6.31079e-05
-0.000268941
0.000236573
3.23681e-05
-0.000129388
-0.000132609
0.000261997
-1.86761e-05
-0.000249565
-1.022e-05
-0.000258721
2.24712e-05
0.000209903
-0.000236465
3.13351e-05
-0.000241132
0.000190409
-2.49325e-05
0.000327875
-0.000303507
-0.000279329
0.000273701
5.62802e-06
0.000156129
-0.000296857
0.000140729
-6.30099e-05
-0.000156599
0.000229217
0.000143277
0.0001218
-0.000265077
-0.000250145
0.000225762
-0.000222006
0.000170098
-0.000168813
0.000327181
-0.000158369
0.000185389
7.16523e-05
-0.000257041
0.000255193
2.07481e-05
-0.000192277
0.000148317
5.00549e-05
0.000266518
0.000308237
-0.000290944
0.000102137
-0.000262301
0.000135241
0.000117096
-0.000281065
-1.35088e-06
0.000244154
-0.000242314
0.000166489
0.000122836
-0.000289325
0.00014306
8.93487e-05
-3.92002e-06
0.000259113
0.000305603
5.49597e-06
-0.000324016
0.000314633
8.88864e-06
-3.99002e-05
0.000236293
-0.000196393
4.08802e-06
-0.000284257
-2.44008e-05
0.000166204
-0.000151867
-0.000167457
0.000131443
0.000212218
-0.000194307
-0.000269921
0.000264965
4.95602e-06
2.64041e-05
0.000174721
-0.000201125
2.87841e-05
-0.000257265
0.000228481
0.000276137
-0.000262669
0.000115108
0.000212073
0.000217153
-0.000194944
-0.000175813
0.000202217
1.33981e-05
0.000283121
-0.000296329
0.000269903
2.21929e-05
0.000272959
-0.000285384
1.24806e-05
3.86402e-06
0.000267513
-1.82845e-05
0.000290737
0.000330868
1.00221e-05
0.000213818
-0.000257724
0.000315709
-0.000315472
-6.63603e-06
-0.000272693
2.68563e-05
0.000176384
0.000187993
3.98722e-05
-0.000227865
-5.47558e-05
0.000225286
-0.000155543
0.000153609
-0.000270285
0.000116676
0.000279441
-0.000329701
5.02602e-05
-6.38122e-05
0.000249201
-0.000166909
0.000315897
-0.000148989
-0.00031426
-1.00023e-05
-0.000214929
0.000175029
2.78601e-05
-0.000278349
0.000276221
-1.88441e-05
-0.000248613
1.71765e-05
-0.000302574
0.000285405
0.000344989
-0.000158593
-0.000186397
-1.68841e-05
-0.000241131
0.000257688
-0.000266617
-3.30401e-06
0.000224001
2.45841e-05
-0.000248585
0.000284509
-0.000128381
0.000140197
0.000138853
-0.000279049
-0.000199461
-1.05928e-05
0.000258169
-0.000115551
0.000225603
-0.000242549
-6.38122e-05
0.000251805
-0.000208626
0.000249481
-5.60002e-07
-0.000248921
0.000255109
-0.000237441
-0.000325175
0.000299526
-3.08841e-05
0.000203169
-0.000172285
0.000291543
1.22524e-06
-0.000292801
6.87993e-05
0.000124566
-0.000204678
3.67991e-05
-0.000184422
-0.00028894
-4.6119e-06
0.000293866
-1.59588e-06
-0.000287185
0.000146973
-0.000273925
0.000126952
-0.000262914
0.000220179
-0.000294446
0.000265207
0.000279441
-0.000311737
-1.24652e-05
0.000323881
0.000111298
0.00016201
-2.13278e-05
0.000352752
0.000140141
0.000139833
-0.000279973
0.000245029
-0.000250349
5.32002e-06
-0.000210953
0.000180069
0.000279133
-5.43202e-06
0.000350688
-3.25362e-05
-0.00030149
0.000302569
-3.05204e-06
0.000270985
-0.000270985
-0.000364658
0.000225972
0.000138847
-0.000215741
2.12985e-05
1.69279e-05
0.000275157
-0.000278461
3.30401e-06
-5.37909e-06
0.000172393
-0.000167407
-0.000197345
0.000254801
-5.74562e-05
-0.000201724
4.40234e-06
-0.00027099
0.000161654
8.17012e-05
-0.000180265
0.000261397
-8.11331e-05
0.000256285
-0.000287113
3.08281e-05
-0.000249229
5.18842e-05
-2.36949e-05
0.000275895
-0.000252389
-0.000253547
1.35801e-06
0.000252189
0.000231281
-7.28003e-06
-0.000294095
7.47708e-06
0.000286599
-0.000266085
0.000266085
-0.000284645
-5.49896e-05
-0.000170494
-0.000193984
-0.000171727
0.000217411
-4.474e-05
-1.232e-05
-0.000239177
0.000251497
3.10801e-06
0.000210113
-0.000213221
-0.000185409
-2.30785e-05
0.000208911
7.63047e-06
0.000294482
-0.000302179
-0.000236153
-1.34401e-05
0.000249593
1.50361e-05
-0.000251189
-0.000241025
0.000256061
-0.000301528
0.000309034
0.000256117
7.16803e-06
-0.000176063
-3.15014e-05
0.000201213
-0.000145237
-0.000134765
-0.000244329
0.000240549
0.000298575
-3.66072e-07
-0.000298158
-0.000298852
4.78697e-07
0.00029767
1.92499e-05
0.000181217
0.000163773
7.70043e-05
-0.000257269
-0.000159242
0.000310908
0.000250721
-0.000108677
-0.000235145
-1.83681e-05
0.000253513
-0.000204547
-0.000126828
0.000331322
-6.10402e-06
-0.000229125
0.000235229
-2.30756e-05
-0.000190203
-0.000286506
-8.53774e-05
6.38468e-06
-0.00030052
-0.000212776
0.000328387
-0.000115545
0.000281597
0.000288205
-5.16322e-05
0.000271993
-1.57081e-05
-0.000187331
-1.41696e-05
0.000202187
0.000295238
2.2543e-07
-0.000295647
-0.000270857
-3.21916e-05
-0.000218821
0.000247605
-2.52097e-05
0.000310633
-0.000285428
0.000186542
7.22891e-06
-0.000189913
-3.46217e-05
0.000220524
-0.000301425
0.000276177
0.000293774
6.15922e-06
-0.000297348
0.000157445
0.00011886
-0.000276305
0.000290692
5.2703e-06
-0.000296125
-0.000251389
0.00012913
0.000135956
-0.000281531
0.000295138
0.000302513
-0.000156857
-0.000145657
0.000207005
-0.000203897
-0.000232009
-0.000121156
-0.000155009
-4.11466e-06
-0.000293963
0.000298062
-1.0136e-05
0.000276249
0.000291804
-1.96709e-05
-0.00027078
-0.000262967
2.9133e-05
0.000233803
0.000271433
-0.000267569
0.000249621
2.95121e-05
0.00031491
-9.73181e-06
-0.000305233
5.04914e-05
0.000165555
-0.000200166
-0.00010436
0.0002043
-9.85464e-05
0.000252617
-2.91201e-05
-0.000223497
5.08144e-07
0.000293641
-0.000173095
-3.14463e-05
0.000199368
-2.14229e-06
0.000291868
-9.33244e-05
0.000246933
-0.000255417
-5.26402e-06
0.000121184
0.000181329
1.34121e-05
0.000241557
-0.000254969
0.000236097
1.34961e-05
-0.000249593
0.000249509
-0.000242929
0.000256425
6.33519e-05
-0.000201667
0.000138219
-0.000216852
0.000118137
-0.000210888
0.000297126
1.48846e-06
-0.000298331
0.000253849
2.22881e-05
0.000268493
-0.000216441
-5.20522e-05
0.000225518
-0.000246849
2.13305e-05
0.000257909
1.40841e-05
5.89623e-05
0.000295765
0.000267186
-3.89594e-05
-0.000228226
0.000174285
1.274e-05
0.000240297
-0.000253037
0.000194313
-0.000114628
-7.97745e-05
-0.000206348
2.1606e-05
-1.21045e-06
-0.000299331
0.000300921
0.000217436
-0.000165771
-5.19076e-05
0.000344713
-4.12645e-05
0.000275969
-0.000135829
2.31561e-05
0.000238337
-0.000261493
-0.000231141
0.000254297
-2.66907e-05
-0.000229724
0.000256424
0.000158257
-0.000163255
-7.03814e-05
-0.000161647
-0.000261723
4.14346e-05
0.000220288
-3.17521e-05
-0.00022997
7.13539e-06
0.000261717
-3.25193e-05
-0.000229198
1.67341e-05
0.00014054
-0.000218775
0.000308785
-0.000171397
0.000262319
-3.57923e-05
-0.000226526
-0.000319758
0.000162048
-9.41267e-05
-0.000228453
-6.90203e-05
-2.39824e-07
-0.000299109
0.000301779
-2.67622e-05
0.000154568
-0.000147998
0.000307893
6.81994e-06
0.000250097
-0.000248249
-1.84801e-06
-0.00017671
6.16744e-05
0.000260259
-3.07266e-05
-0.000229533
0.000197345
-0.000250769
5.34242e-05
0.000254206
-0.000231206
-2.29991e-05
-0.000252337
0.000240017
0.000144098
0.000102362
-0.000101864
-0.000170269
0.000132496
-0.000261885
-0.000290249
0.000242201
4.80481e-05
0.000216808
3.12475e-05
-0.000248056
-0.000237964
-1.01771e-05
0.000244334
0.000326907
-2.2927e-05
0.000263996
-3.42721e-05
-0.000229724
0.000149579
-0.000247984
9.58409e-05
3.63259e-05
-0.000265637
0.000229311
-0.000253905
0.000121296
0.000249817
-5.24722e-05
0.000294673
-0.000154253
-0.000140421
0.000122248
-0.000289157
1.53441e-05
0.000237665
-0.000253009
-0.000262031
3.54705e-05
0.00022656
-2.75095e-06
-3.77917e-05
-0.000224239
0.000248453
-0.000272136
-0.000264649
3.44737e-05
0.000230175
0.000193257
0.000101416
-0.000149941
0.000290137
-0.000172322
-3.78597e-05
0.000208017
-1.81721e-05
0.000263201
-0.000292919
0.000310138
0.000115641
0.000102455
0.000261325
-0.000261325
0.000313547
-2.04813e-05
-0.000289791
5.32002e-07
0.000248949
0.000254857
1.65761e-05
0.000309743
-0.00027641
-3.32082e-05
-2.26336e-05
0.000266577
-0.000243943
3.00077e-05
-0.000260519
0.000230511
-0.000252139
0.000229506
0.00032772
3.11501e-05
-0.000260598
0.000229447
0.000276809
-3.16961e-05
-6.71043e-06
-0.000295313
0.000301685
0.000270718
3.90021e-05
0.000230245
-0.000266617
3.63721e-05
0.000201715
-0.000202442
-0.000258301
0.000238533
1.97681e-05
0.000169762
-0.000257245
8.74835e-05
-0.000196835
0.000163241
-0.000249145
8.59043e-05
-0.000266169
0.000224813
4.13562e-05
0.000253073
-2.78797e-05
-0.000225194
0.000191525
4.5084e-05
-0.000234837
-2.29601e-05
0.000257797
-0.000236377
-2.28761e-05
0.000259253
-1.94265e-05
0.000255969
-0.000236542
-0.000259345
0.000239919
-3.81032e-05
0.000173594
-0.000235929
-2.24001e-05
0.000258329
-0.00025484
0.000229192
2.56481e-05
2.94001e-06
0.000211289
-0.000214229
-0.000267031
3.79849e-05
0.000229046
0.000270677
4.48002e-06
4.16181e-05
0.000165225
-0.000194736
-3.31198e-05
0.000249928
-2.09441e-05
0.000218597
9.73004e-05
0.000248201
-0.000216953
0.000277413
-0.00027882
0.00027742
-0.000281682
-1.84997e-05
0.000258601
-0.000240101
-0.000261644
0.000243145
3.06442e-05
-0.000201055
-3.04402e-05
-0.000204767
0.000230974
0.000314564
-0.000288131
-2.73946e-05
0.000261297
-3.11081e-05
-0.000230189
3.28739e-05
-0.000262362
0.000229488
-0.000229853
0.000259645
-2.97921e-05
0.00032535
-1.76396e-05
0.000141894
-0.000230294
0.000256929
-0.000109956
-0.000286038
0.000287221
0.000241977
-6.41202e-06
-0.000235565
0.000228537
-0.000180189
-3.80367e-05
0.000221034
2.82591e-05
-0.000205287
-0.000239989
0.000260317
-2.03281e-05
-0.000104729
0.000192419
-8.76936e-05
3.05863e-05
-0.000202671
0.000240169
-0.000263424
2.32552e-05
-0.000115584
0.000258861
-0.000243993
0.000265721
-2.17281e-05
-0.000238953
0.000232541
0.000258626
-0.000245105
-1.35213e-05
0.000264349
-2.46681e-05
-0.000246317
-0.000273636
-1.06105e-05
0.000298021
-5.3197e-05
-8.56435e-06
0.000288957
-0.000285173
-0.000156302
0.00020768
0.000233746
1.8097e-05
-0.000251369
0.000329501
-0.000329547
0.000260955
-0.000245018
-1.59377e-05
-0.000301811
-6.62283e-07
0.000304711
9.57388e-06
3.8763e-05
0.000179936
-0.000216309
0.000210736
-3.50927e-05
-0.000181132
0.000278054
-0.000255789
-2.22648e-05
-0.000216296
3.11478e-05
3.15421e-05
-0.000261891
0.000230348
0.000285215
-0.000292058
2.44721e-05
-0.000259617
-0.000257965
1.87881e-05
0.000266057
-1.64361e-05
0.000151173
-0.000267625
0.000116452
0.000298932
-4.49992e-06
0.000238617
-7.53763e-05
2.12521e-05
0.000177045
-0.000198297
-0.000183877
0.000205129
-0.000236275
0.000257219
-2.09441e-05
0.000261462
-3.31689e-05
-0.000228293
-0.000197009
-5.21362e-05
0.000251581
-1.48401e-06
8.99811e-06
-0.000265711
0.000255747
-0.000342518
0.00023605
0.000106304
0.000266371
-0.000236811
-2.95597e-05
0.000307455
-0.000314945
7.74379e-06
-2.57041e-05
-0.000229097
0.000254801
0.000261493
-7.64403e-06
9.92231e-06
-0.000210478
0.000262411
-3.19033e-05
-0.000230508
-6.90483e-05
-0.000260653
-0.000194685
0.000248025
-5.33402e-05
-0.000266533
0.000249985
1.65481e-05
-0.000318212
1.66748e-05
-1.70682e-05
0.000296733
-0.000279887
-0.000276221
1.65481e-05
0.000249537
-0.000170148
6.54712e-05
0.000273705
1.46906e-05
-0.000288429
-0.00031608
0.000307842
8.27941e-06
3.46641e-05
-0.000263649
0.000228985
-1.74807e-05
0.000281168
-0.00031579
1.64393e-05
-0.000176541
-7.42283e-05
-0.000229587
0.000197884
-2.16721e-05
-0.000216469
0.000238141
-0.000314942
0.000296531
1.89072e-05
-0.000130911
0.00027434
-0.000140543
-8.33392e-06
3.31521e-05
-0.000263453
0.000230301
-0.000211855
2.50944e-05
0.00018422
0.000221514
0.00028071
-0.000280955
2.4566e-07
-0.000236993
-2.20921e-05
0.000224813
-0.000202721
0.000139273
0.000143753
-0.000278517
0.000198746
-5.63705e-05
0.000307347
-1.05177e-05
0.000209454
-0.000268915
2.92853e-05
0.00022306
-0.000252345
-0.000320866
0.000137832
0.000296143
2.91962e-05
1.94478e-05
-0.000224355
-2.77845e-05
-0.000135532
-0.000133
-0.00032672
0.000113836
0.000242873
2.56201e-05
0.000218765
-0.000224869
1.08272e-05
-0.000287621
0.000276352
-0.000243124
0.000269925
-2.73152e-05
0.000281372
-0.000281774
0.000283376
-7.67938e-05
-8.78765e-06
0.00029006
-1.87881e-05
0.000247101
-0.000228313
0.000281365
-0.000290464
-5.61417e-06
-0.000283315
0.000289809
0.000281618
-0.000269825
0.000284496
0.000226314
2.67597e-05
-0.000307017
0.000312536
-6.54609e-06
0.000250757
-2.0966e-05
0.000221613
2.41311e-05
-0.000268913
0.000246057
-2.05381e-05
-0.000259401
3.02849e-05
0.000229116
0.000178305
7.64963e-05
1.05089e-05
0.000278467
-0.000289414
-0.000238141
-2.88401e-05
0.000266981
2.51441e-05
-0.000263285
0.000284117
-0.000162317
-0.000232177
0.000261129
-2.89521e-05
-0.000234697
0.000260709
-2.60121e-05
1.39629e-06
0.000279291
2.45001e-05
-0.000259197
2.38001e-05
-0.000255977
0.000274256
-0.00024291
-3.13667e-05
0.000317878
-9.99166e-06
-0.000307388
-2.72467e-06
-0.000255753
1.1816e-05
0.000243937
-1.64766e-05
-0.000261185
0.000228066
-0.000245337
0.000270145
-2.48081e-05
-0.000263229
1.49801e-05
-2.34787e-05
0.000286157
-0.000262686
2.13641e-05
-0.000266701
-0.00024167
-2.12862e-05
3.26745e-05
-9.0432e-05
0.000260194
0.00028045
-0.000285231
5.05122e-05
0.000237693
0.000280009
-0.000279924
-0.000243181
-2.39401e-05
0.000267121
-0.000260894
7.34723e-06
-0.000295671
1.96375e-05
0.000276271
-0.000268717
2.55361e-05
-8.66704e-06
0.000290412
-0.000268326
0.000243549
2.47774e-05
-0.000232513
0.000210841
0.00028114
-0.000287774
-6.16002e-07
0.000260289
-0.000259673
-0.000302029
-1.61183e-05
-0.000264573
2.35481e-05
-0.00024417
-2.41555e-05
-3.43281e-05
-0.00029798
0.000293816
0.000286674
-0.000158327
0.00029736
-0.000289662
2.30152e-05
4.95674e-06
0.000262654
-0.000255375
-7.18196e-06
0.000307358
-2.01583e-05
-0.000287153
5.93546e-05
-0.000246765
-2.19521e-05
-0.000356259
0.000241606
0.000286302
-0.000281636
2.33801e-05
-0.000188739
-1.60994e-05
-0.000306264
2.56559e-05
0.000280737
-0.00019752
0.000311584
-0.000113557
0.000259841
-0.000238533
-2.13081e-05
-0.000291639
2.94001e-05
0.000222097
-0.000251497
-0.000157571
0.000112239
-0.000152452
0.000251441
-0.000238029
-1.34121e-05
-0.000263873
3.40201e-05
-2.23161e-05
-0.000269837
0.000251469
0.000230427
3.12901e-05
-4.95114e-05
0.00022489
0.000232619
-0.000260499
-1.73355e-05
-2.22744e-06
0.000248627
-0.000246025
-0.00029334
-0.000237049
0.000265189
-2.81401e-05
0.000230096
3.22225e-05
-0.000268521
2.55921e-05
-0.000239905
-2.86161e-05
0.000228954
-0.000260706
-0.000281826
4.73202e-05
-0.000242005
0.000291919
-0.00028206
-0.000288492
1.29119e-05
0.000275572
-5.95083e-06
0.000212485
0.000228551
-0.00026107
0.000296885
-0.0001309
-0.000165985
0.000241977
-0.000261359
0.000271722
-0.000226213
-1.76681e-05
-0.000164703
0.000307511
-0.000142084
2.49649e-05
0.000222662
-0.000247627
-0.000194476
0.000194883
-0.000284793
0.000283982
7.17549e-06
-0.000290084
-0.000302485
0.000146693
0.000155793
0.000259995
-0.000239359
-2.06361e-05
-0.000215741
0.000193649
0.000262064
4.01736e-07
0.000257293
0.000232526
2.16797e-05
-0.000295415
-6.13631e-05
1.04694e-05
0.000234569
-0.000247789
1.72665e-05
-0.000230917
-2.37161e-05
0.000254633
-0.000242295
0.000263191
-2.08965e-05
8.15972e-05
0.000132468
2.0111e-05
-0.000305919
0.00028584
0.000256565
-1.80041e-05
-0.000238561
0.000243881
-0.000254017
1.0136e-05
-0.000226745
0.000207957
0.000223131
-0.000258923
-0.000244693
4.76842e-05
1.59407e-05
-0.000137735
-0.000218657
1.57921e-05
0.000245701
0.000282378
0.000294953
0.00030579
1.71202e-06
0.000249817
-0.000220417
2.51749e-05
0.000225009
-0.000250184
-0.000243178
0.000268865
-2.56873e-05
2.28201e-05
-0.000262725
-0.000132124
0.00029543
9.17929e-06
2.08181e-05
0.000261675
-0.000235103
-2.65721e-05
1.31052e-05
-0.000303585
0.000290694
0.000321786
-3.09429e-05
-0.000290834
0.000249733
1.63241e-05
0.000305967
-0.000292832
-0.000230833
-0.000112464
9.63204e-06
0.000250657
-4.9129e-05
-0.00020239
0.000251519
2.20333e-05
0.000246832
-0.000241686
-2.29629e-05
0.000260737
-2.24001e-05
0.000288718
-0.000268023
2.63369e-05
2.68241e-05
-0.000257965
0.000210617
-0.000207677
2.58161e-05
-0.000262865
0.000280896
0.000121744
-0.000256173
0.000134429
1.88291e-05
3.84208e-05
0.000159968
-0.000208886
-0.000239485
-2.85377e-05
3.99953e-05
0.000167051
-0.000199091
-0.000246691
0.000271066
-2.43747e-05
0.000209866
-0.000248826
1.98857e-05
1.73322e-05
-0.000174355
-3.04076e-05
0.000226689
-0.000257413
-2.88401e-05
0.000244245
-0.000215405
-2.16161e-05
0.000242985
-0.000221369
0.000201657
-0.000250786
-0.000273629
-0.000232905
-2.55081e-05
0.000258413
0.000241234
2.98318e-05
-0.000211567
-2.39652e-05
0.000239279
-2.18821e-05
-0.000224967
-0.000239345
6.28042e-05
0.000259004
-0.000229718
4.75106e-05
-0.000249901
-3.43393e-05
0.000257694
-0.000223354
0.000205675
-0.000240014
0.000261689
-1.1956e-05
-6.06763e-05
-0.000229572
-0.000229167
-1.74242e-05
0.000240881
0.000247109
5.3175e-05
0.000212448
-0.000265623
-0.000261097
0.000177353
-0.000231757
5.44042e-05
6.39706e-05
0.00013501
0.000259457
-0.000240915
-2.47224e-05
-0.000265385
0.000227165
3.82201e-05
-2.87813e-05
-0.000222158
0.00025094
-0.000284769
0.000264161
0.000234501
3.61761e-05
2.18821e-05
0.000234087
-0.000307217
0.000151089
0.000156129
0.000172239
-5.22518e-05
0.000254045
-0.000115192
2.56901e-05
0.000217446
-0.000243136
-0.000286277
0.00028651
9.1498e-06
0.000257377
-0.000245953
0.000208937
3.70161e-05
0.000254832
0.000242532
-2.0244e-05
-0.000246815
-2.02161e-05
-0.000263019
2.0724e-05
-0.000269215
2.24001e-05
2.79601e-05
0.000220024
-0.000247984
0.000242481
-0.000274597
1.32721e-05
0.000251567
-1.3636e-05
1.25588e-05
-0.000253103
-0.000328535
0.000123933
-0.000233135
-2.62109e-05
-0.000252113
0.000252113
0.000259782
-0.000144217
-1.85671e-05
-0.000278362
0.00029691
0.000276534
0.000258749
-0.000135913
0.000224113
2.39205e-05
0.00023468
7.81013e-05
-0.000340832
3.77539e-05
0.000258962
1.76363e-05
-0.000248843
-3.00917e-05
0.000207453
-3.01001e-05
0.000259701
2.95429e-05
0.000218353
-0.000247896
-3.05014e-05
-4.09782e-05
-0.000217818
0.000258797
-0.000233423
-2.14173e-05
3.78334e-05
-0.000200991
0.000162434
-3.30877e-05
0.000221671
-0.000255943
-0.00028211
-8.45104e-06
0.000290462
-0.000200247
0.000160219
0.000166349
8.16763e-05
1.29155e-05
-0.000294896
0.000235075
2.59446e-05
-0.000261019
-0.00019961
-1.16888e-06
0.000232743
-0.000264287
3.15449e-05
-8.42803e-06
-0.000217029
0.000225457
-0.000165457
0.000203145
-0.000249985
-3.46025e-05
0.000256274
0.000218076
-0.000252679
-0.000246289
0.000272245
-2.59561e-05
0.000253547
2.78321e-05
-0.000232062
-2.95821e-05
-0.000298374
0.000316492
-1.82193e-05
2.3394e-05
0.000212462
-0.000250254
-0.000267233
2.09441e-05
-2.12801e-05
-0.000245953
-3.61481e-05
0.00024861
-0.00028975
-1.36878e-05
0.00022082
-0.000256968
0.000248128
-0.000252841
1.92464e-06
2.80002e-06
0.000181413
-0.000184213
0.000255294
0.000234529
2.67681e-05
-2.62361e-05
0.000245001
-0.000218765
3.36001e-05
0.000216609
-0.000250209
0.000244861
2.73841e-05
0.000306545
-0.000143949
-0.000162597
1.51413e-05
0.000242023
-0.000252314
0.000271013
-0.000113568
0.000225569
-0.000256677
-0.000241094
0.000104912
-0.000265469
7.16803e-06
-0.000241635
-2.75801e-05
-0.000241361
-2.48081e-05
0.000310672
-2.74267e-05
-7.67483e-05
0.000243097
-1.1452e-05
-0.000215601
0.000224281
-8.68003e-06
0.000255193
-7.68883e-05
3.38867e-05
-0.000196812
0.000153413
-0.000265245
-1.40001e-07
-4.14962e-05
3.96837e-05
0.000158761
-0.000200584
0.000191112
-0.000167542
0.000257041
-7.05603e-06
0.000251151
-0.000218277
-1.82293e-05
-2.1128e-05
0.000270848
-9.4822e-05
-0.000175328
-1.42801e-05
-0.000191913
0.000206193
0.000258665
-1.53553e-05
-0.00024331
1.98101e-05
0.000238855
-0.00027988
-8.11432e-06
3.72158e-05
-0.0001959
0.000161157
1.36921e-05
0.000247997
-0.000159783
0.000198509
-1.95189e-05
0.000248711
3.32913e-05
0.000187062
-0.000217031
-4.17202e-06
-2.49389e-05
0.000265108
-0.000231955
-3.14693e-05
0.000297162
-0.000281876
-1.53391e-05
1.63717e-05
-0.000237659
0.000221288
-0.00010514
0.000226885
1.94357e-05
-0.000306528
0.00028683
2.52001e-05
-2.79441e-05
2.69165e-05
0.000309045
-0.000290264
0.000238891
1.97345e-05
2.15601e-06
0.000231617
-0.000233773
-0.000310889
2.55602e-05
0.00028421
-0.000162177
-0.000144145
0.000209178
-0.000250156
-0.000170549
0.000241924
1.90317e-05
0.000254495
-4.13534e-05
0.000250531
0.000214498
-0.000255851
0.000319184
-0.000319136
-1.08557e-05
0.000287565
-0.000275354
-0.000302905
1.97385e-05
0.000283288
4.20842e-05
-0.000286413
-3.97622e-05
0.000252483
2.62921e-05
-2.21674e-05
0.000307391
-0.000285274
2.43321e-05
3.90698e-05
0.000156975
-0.000197346
0.000249294
-0.000219751
2.83277e-05
-0.000261633
4.36802e-06
-2.01973e-05
0.000307869
-0.000287248
-0.000250987
-0.000266673
3.07441e-05
0.000252141
-0.000236741
-1.54001e-05
1.2264e-05
0.000239877
-0.00027633
-1.31672e-05
0.000255697
-6.42378e-06
0.00031913
-1.18759e-05
0.000298988
-0.000287089
-5.05883e-05
0.000247437
-0.000235621
0.000257601
-1.99361e-05
0.000144242
9.2743e-05
-0.000242321
0.000228854
3.03493e-05
0.000226759
-0.000258662
3.71393e-05
0.000270794
-0.000289524
1.69602e-05
0.000251273
-0.000239093
-1.31321e-05
0.000252225
-2.91201e-05
-0.000257265
2.56481e-05
0.000231617
-0.000228005
-2.92601e-05
0.000259765
-0.000233571
-2.61941e-05
0.000258721
-0.000269113
2.34706e-06
0.000288713
1.33689e-06
-0.000288411
0.000250179
-0.000230108
-1.85921e-05
0.000308987
-0.000300945
-7.95993e-06
0.000218707
-9.2549e-05
-0.000266897
2.56761e-05
0.000241221
-3.48881e-05
-0.000232009
-0.000266393
2.51161e-05
0.000241277
-1.2716e-05
-0.000268756
0.000282012
-3.45241e-05
-0.000231869
-0.000261826
1.86758e-05
-0.000266281
2.43881e-05
0.000241893
-0.000283996
-2.18008e-05
-0.000306398
2.76677e-05
0.00027875
-3.34041e-05
-0.000232877
-0.000177404
-0.000258133
2.94001e-05
0.000228733
0.000308001
-0.000308526
-0.000195805
0.000209049
-3.29281e-05
-0.000225205
0.000197493
-0.000279216
8.16779e-05
0.000283758
2.23497e-05
-0.000301953
1.76961e-05
0.000285952
-0.000280959
-4.8189e-06
-0.000257125
0.000231617
2.55081e-05
0.000175759
2.94367e-05
-0.000203838
-0.000266953
2.81681e-05
0.000238785
-0.000227361
-2.97641e-05
-3.67361e-05
-0.000230217
0.000275043
0.000297355
1.9072e-05
-0.000276359
-3.16822e-05
0.000308116
-0.000258679
-1.11399e-05
0.000298281
-0.00028785
1.49456e-05
-0.000301101
0.000286345
-0.000230609
-0.000307958
0.000288699
0.000263005
-2.55575e-05
-0.000280779
1.36081e-05
0.000156663
0.000225894
1.8779e-05
-0.000248608
-0.000199229
0.000157328
0.000236738
1.31517e-05
-0.00024989
-0.00025833
2.66093e-05
0.000231721
-1.09228e-05
0.000247661
5.74002e-06
0.000246877
-3.19817e-05
-0.000226348
0.000299762
-0.000285867
-1.38509e-05
0.000228024
-0.000226666
0.000289877
0.000237685
1.98521e-05
-0.000257537
-1.24236e-05
0.000250108
0.000246636
1.50389e-05
-0.00030533
1.53522e-05
0.00024448
2.18905e-05
3.19452e-05
-0.000199155
-0.000288163
-1.7972e-05
-0.000182869
0.000295177
-0.000155712
0.000190241
-3.40932e-05
3.1449e-05
-0.000199752
0.000172817
-0.000162808
0.000259149
-0.000239236
-1.99137e-05
0.00026307
-0.000274163
-0.000241376
0.000228263
-2.19021e-05
0.000301114
-0.000279252
0.000308045
-0.000292715
0.000242117
1.77241e-05
-0.000224975
0.00024443
-1.94545e-05
1.61001e-05
-0.000241075
-7.00003e-06
0.000260989
-0.000297559
4.85232e-06
0.000292472
-0.000174497
0.000160217
-1.74105e-05
-6.21997e-06
-0.000291205
-1.66985e-05
-0.000284719
4.28402e-06
-0.000301154
0.000135987
-0.000257445
2.36624e-05
0.000233729
0.000238197
1.32441e-05
-3.08079e-05
-0.00022662
-3.31319e-05
-0.000293049
2.04911e-05
-0.000229757
0.000205698
0.000254969
-0.000233465
-2.15041e-05
-0.000199936
0.000215724
-0.000186541
-7.22456e-06
0.000204274
0.000134628
0.000141389
3.93316e-06
0.000270642
0.00027999
-0.000305514
3.08498e-06
0.000243024
-1.98479e-05
0.000298799
-0.000278978
-0.000302199
0.000287386
1.47764e-05
-0.000258301
0.000230077
2.82241e-05
-2.64041e-05
-0.000231897
0.000303164
-0.000302642
0.000267287
-2.00094e-05
0.000304597
-0.00028464
0.000286249
-3.90569e-07
-0.000256873
0.000256873
-0.000268218
0.000295936
-0.000145096
-6.6061e-05
-6.9193e-06
0.000294243
-0.00028744
-0.000297714
0.000290517
0.00029213
-0.000278931
0.000290274
-0.00030557
1.46864e-05
3.46717e-05
-0.000239906
0.000219634
2.24425e-05
-1.45523e-05
-0.000250877
0.000228223
-1.43397e-05
0.000298271
-0.000284061
0.000263481
-1.96001e-05
0.000254224
-0.000235464
-1.87601e-05
-3.10187e-05
-0.000273659
0.000304726
1.43526e-05
-0.000297043
0.000282623
-1.45881e-05
0.000233465
-0.000218877
0.000204167
-0.000295141
0.000283163
-1.9214e-05
0.000304599
-0.000285547
0.00025102
-2.6617e-05
0.000295047
-0.000269051
-0.000294736
0.000267032
1.07156e-05
0.000244749
-0.000255465
0.00030496
-0.000312043
6.85737e-06
1.81103e-05
1.54586e-05
0.000286217
-0.000301223
6.29958e-06
0.000284343
2.27433e-06
-0.000318028
-0.000289111
0.000303835
-0.000242481
0.000243657
8.45603e-06
-0.0002264
0.000242772
-0.000293744
0.000274506
0.000284198
-0.000159628
-8.53485e-05
0.000293628
1.42952e-05
3.11787e-05
-0.000199654
0.000164342
-0.000274602
0.000257293
-0.000219535
0.00024982
0.000243411
1.92865e-05
-0.000262697
0.000236019
2.31309e-05
-0.000301342
0.000283057
0.000310987
-1.77669e-05
0.000237945
-0.000257069
1.91241e-05
-0.000222494
0.000247459
0.000293353
1.78545e-05
-0.00016988
-1.45911e-05
0.00029835
-0.000283806
-0.000141752
-0.000266415
0.000159993
0.000106423
-0.000309107
0.000295415
1.36388e-05
-0.000258699
0.000241826
1.68729e-05
-0.000161197
0.000156689
-0.000306167
0.000287744
1.77753e-05
-0.000218139
0.000182491
-9.69084e-06
0.000253101
2.05785e-05
1.75465e-05
-0.000303464
0.000286722
-0.000301069
-7.15208e-06
0.000307692
-0.000249229
0.000220109
-0.000201153
-8.52603e-05
-0.000272452
0.000253546
0.000304264
-0.000285918
-0.000194564
1.82049e-05
1.50582e-05
0.000284578
-0.000299278
-8.80603e-05
0.000239233
-0.000303715
1.94031e-05
0.000284443
-0.000211832
-2.7149e-06
-0.000298552
-0.000169265
2.05297e-05
0.000303061
-0.000288621
-1.43834e-05
-0.00016932
-0.000299152
-0.000176064
-2.29392e-05
0.000243528
0.000290458
1.73448e-05
0.000252869
5.75398e-05
-0.000285319
-0.000247213
-0.000271231
-2.34119e-05
-0.000274657
0.000300351
-0.000262615
0.000282583
-0.000165518
-4.14049e-05
0.000209994
0.000197569
1.56521e-05
-0.000213221
-1.24558e-05
-0.000285621
0.000298186
1.83597e-05
1.84671e-05
-0.000305474
0.000286865
0.000253345
-1.71361e-05
-0.000236209
1.89848e-05
-0.000304658
0.00028579
2.03561e-05
0.000232989
0.000216385
-2.46121e-05
-0.000191773
1.5781e-05
0.000282738
-0.0002985
-0.000246041
0.000116178
-0.000304327
1.86456e-05
0.000285111
0.000230054
-5.37648e-05
-0.00029718
1.17175e-05
0.000282366
0.000255837
-2.19801e-05
-0.000233857
-0.000303538
0.000106321
0.000234529
1.70521e-05
-0.000251581
0.000280035
1.67264e-05
0.000304204
-0.000285054
1.77967e-05
-0.000299443
0.000233512
1.84916e-05
-0.000252004
-1.90196e-05
-1.43492e-05
0.000298487
-0.000283986
-0.000280255
0.000300033
-0.000276974
0.000291669
-0.000304479
1.25594e-05
0.000249741
-1.62291e-05
1.19308e-05
0.000250041
-1.55121e-05
0.0002988
-0.000282968
3.95922e-05
-0.00024175