/*--------------------------------*- C++ -*----------------------------------*\
  =========                 |
  \\      /  F ield         | OpenFOAM: The Open Source CFD Toolbox
   \\    /   O peration     | Website:  https://openfoam.org
    \\  /    A nd           | Version:  12
     \\/     M anipulation  |
\*---------------------------------------------------------------------------*/
FoamFile
{
    format      ascii;
    class       volScalarField;
    location    "19.5";
    object      T;
}
// * * * * * * * * * * * * * * * * * * * * * * * * * * * * * * * * * * * * * //

dimensions      [0 0 0 1 0 0 0];

internalField   nonuniform List<scalar> 
9801
(
0.827801
0.82435
0.818161
0.817446
0.818133
0.81966
0.822679
0.828841
0.835912
0.839844
0.84149
0.841899
0.839363
0.835464
0.834665
0.835472
0.837501
0.840602
0.84412
0.847727
0.85145
0.853794
0.854716
0.854456
0.85378
0.853622
0.854353
0.855878
0.858028
0.860031
0.861496
0.862836
0.86526
0.868163
0.869529
0.871088
0.872681
0.87382
0.874766
0.874867
0.875323
0.876196
0.877107
0.878429
0.880911
0.885679
0.888753
0.890826
0.892526
0.893792
0.894848
0.893425
0.892355
0.892954
0.89413
0.895701
0.899889
0.906118
0.9097
0.911851
0.913565
0.91485
0.915276
0.91151
0.909564
0.910484
0.912442
0.915594
0.923272
0.930602
0.934306
0.936594
0.938306
0.939803
0.937039
0.931041
0.930179
0.932409
0.935744
0.944256
0.954937
0.961371
0.965139
0.967639
0.969764
0.967099
0.957708
0.954447
0.957762
0.963505
0.977145
0.994229
1.0071
1.01785
1.0251
1.02601
1.01174
1.12526
1.56006
0.827002
0.825488
0.823656
0.823341
0.824318
0.825694
0.827578
0.831736
0.83738
0.840566
0.841707
0.841301
0.841987
0.841918
0.841114
0.841782
0.843085
0.844505
0.845782
0.847896
0.851186
0.853745
0.855464
0.857794
0.859309
0.860373
0.860872
0.861399
0.861918
0.861777
0.862101
0.862958
0.864937
0.869136
0.873454
0.876186
0.878011
0.879387
0.880559
0.880199
0.878767
0.878252
0.878729
0.879728
0.881703
0.887109
0.892324
0.895389
0.897453
0.898957
0.900177
0.898659
0.895907
0.895542
0.8963
0.897597
0.901031
0.907817
0.91308
0.915987
0.917913
0.919412
0.92021
0.916628
0.913607
0.913907
0.915439
0.917779
0.924477
0.932644
0.937489
0.940444
0.942502
0.944405
0.942466
0.936219
0.934569
0.936302
0.939056
0.945689
0.956784
0.964511
0.969219
0.972652
0.975414
0.974407
0.965356
0.961053
0.96362
0.96901
0.979252
0.994215
1.00633
1.01729
1.02548
1.02643
1.0092
1.12328
1.58318
0.828503
0.829973
0.831358
0.831424
0.83125
0.831965
0.833351
0.83427
0.836307
0.839987
0.842455
0.84502
0.847457
0.849379
0.850358
0.849912
0.849481
0.849027
0.847895
0.848055
0.850124
0.854975
0.860401
0.864647
0.867291
0.869019
0.870218
0.869582
0.866339
0.863451
0.863178
0.864204
0.866637
0.872856
0.880015
0.883957
0.885853
0.887315
0.888584
0.887376
0.882699
0.880884
0.88148
0.882852
0.885405
0.892003
0.899246
0.903075
0.905066
0.906559
0.907682
0.90552
0.900832
0.899661
0.900559
0.90219
0.905673
0.9137
0.920794
0.924413
0.926471
0.928088
0.928961
0.925155
0.920666
0.920209
0.921623
0.9238
0.929914
0.940125
0.946573
0.949874
0.952125
0.954163
0.953094
0.946808
0.943752
0.945085
0.947966
0.953112
0.965438
0.976171
0.98177
0.985475
0.988681
0.988941
0.981561
0.975989
0.977322
0.983081
0.991125
1.00575
1.02074
1.03334
1.04434
1.04876
1.03385
1.14371
1.61221
0.834934
0.838588
0.840229
0.841712
0.842482
0.841857
0.839368
0.83758
0.837894
0.840838
0.847888
0.854076
0.857229
0.858827
0.86047
0.861508
0.859068
0.853584
0.851717
0.852178
0.853717
0.860048
0.869734
0.874738
0.876971
0.878733
0.879994
0.877558
0.871118
0.868948
0.869621
0.87102
0.8739
0.88149
0.889859
0.893774
0.895737
0.897052
0.897027
0.893441
0.889015
0.888301
0.889469
0.891181
0.894337
0.902029
0.909979
0.913547
0.915212
0.916169
0.915959
0.912772
0.908997
0.908679
0.910265
0.912344
0.915993
0.924584
0.932482
0.935993
0.93789
0.939204
0.939501
0.935776
0.931546
0.931488
0.933646
0.936269
0.941456
0.952
0.959692
0.963347
0.96582
0.968046
0.968193
0.96239
0.958033
0.959219
0.962629
0.966963
0.977136
0.99007
0.997586
1.00203
1.00581
1.008
1.00358
0.997063
0.995414
1.00037
1.00796
1.01873
1.03326
1.04656
1.05841
1.06579
1.05981
1.17221
1.64281
0.843106
0.848031
0.849817
0.851886
0.852088
0.847963
0.844191
0.843767
0.844411
0.846975
0.855696
0.864189
0.867432
0.869292
0.871017
0.870151
0.863983
0.859802
0.859671
0.860552
0.862237
0.868939
0.879977
0.885532
0.887844
0.88904
0.887384
0.882262
0.878779
0.878659
0.879895
0.881614
0.884793
0.892581
0.900511
0.903916
0.905312
0.905302
0.904137
0.901971
0.899811
0.89981
0.901189
0.903033
0.905851
0.912659
0.920127
0.923446
0.924965
0.925749
0.926031
0.924559
0.921791
0.921616
0.923302
0.925482
0.92832
0.935279
0.943257
0.947225
0.949434
0.951144
0.952377
0.950603
0.946144
0.945296
0.947582
0.950385
0.954225
0.963302
0.972416
0.976963
0.979754
0.982323
0.983988
0.980241
0.974217
0.973188
0.976532
0.980795
0.987778
1.0009
1.01174
1.01779
1.02198
1.0255
1.02468
1.01852
1.01428
1.0148
1.02073
1.02881
1.04097
1.0541
1.06471
1.0726
1.0713
1.19302
1.66419
0.852726
0.857458
0.85975
0.860375
0.856317
0.852499
0.851882
0.852628
0.854382
0.859543
0.867818
0.873783
0.877181
0.879072
0.87819
0.87335
0.870153
0.869755
0.870567
0.871881
0.874798
0.88228
0.890131
0.894313
0.895969
0.89527
0.892961
0.891316
0.890753
0.891149
0.892351
0.894159
0.896962
0.90314
0.9091
0.911966
0.913208
0.91383
0.914442
0.914144
0.912858
0.912863
0.914107
0.915887
0.917822
0.921935
0.928338
0.932363
0.93469
0.936536
0.938213
0.938515
0.935983
0.934749
0.935889
0.937799
0.939933
0.944021
0.951885
0.957183
0.960104
0.962445
0.964744
0.965526
0.961429
0.958442
0.959523
0.961938
0.964803
0.971042
0.981196
0.987557
0.990835
0.99355
0.996243
0.995913
0.989976
0.986493
0.987442
0.990961
0.995267
1.00436
1.01731
1.02614
1.03203
1.03682
1.03962
1.0365
1.03039
1.02734
1.02847
1.03367
1.04142
1.05309
1.06366
1.0712
1.07345
1.20876
1.67675
0.862963
0.865818
0.866534
0.863067
0.860585
0.8608
0.861788
0.863199
0.867125
0.874181
0.879502
0.882738
0.884653
0.884368
0.881325
0.879634
0.879781
0.880535
0.881826
0.884298
0.889134
0.894989
0.898379
0.90001
0.900306
0.900102
0.900437
0.900931
0.902045
0.903201
0.90481
0.906692
0.908488
0.911082
0.914633
0.917115
0.919322
0.921746
0.923633
0.92509
0.924461
0.92422
0.9252
0.926186
0.927225
0.929046
0.933879
0.939011
0.942354
0.945117
0.947494
0.949459
0.94871
0.946057
0.945562
0.946435
0.947902
0.950226
0.956999
0.964432
0.968524
0.971257
0.973775
0.975997
0.974738
0.970115
0.968359
0.96931
0.971501
0.975027
0.984167
0.99375
0.999036
1.00235
1.00538
1.00764
1.00443
0.99829
0.995466
0.996336
0.999705
1.00475
1.01589
1.02867
1.03723
1.04278
1.04729
1.04838
1.04359
1.03785
1.03528
1.03666
1.04117
1.04925
1.06038
1.06886
1.07319
1.21904
1.68437
0.872474
0.872923
0.867271
0.864948
0.8655
0.866973
0.869426
0.873698
0.881024
0.886738
0.889078
0.889767
0.888429
0.885485
0.884596
0.885258
0.886618
0.889084
0.892795
0.896138
0.899168
0.90164
0.902887
0.903233
0.903838
0.905829
0.907456
0.908823
0.910119
0.912504
0.914555
0.914831
0.914531
0.915318
0.918302
0.922448
0.926222
0.92922
0.931375
0.933299
0.934469
0.933311
0.932227
0.931657
0.932128
0.93373
0.937714
0.944886
0.949915
0.952987
0.955269
0.957367
0.958373
0.955019
0.951639
0.951092
0.952385
0.954478
0.959869
0.969301
0.975463
0.978798
0.981397
0.983758
0.984393
0.979062
0.974203
0.973204
0.97504
0.97777
0.98412
0.995953
1.00452
1.00934
1.01265
1.01532
1.01497
1.00747
1.00148
1.00052
1.00244
1.00595
1.01233
1.02507
1.03688
1.04441
1.04941
1.05322
1.05317
1.04841
1.0427
1.04008
1.04131
1.04549
1.05442
1.0651
1.07203
1.22755
1.69
0.880336
0.874741
0.869327
0.869215
0.870075
0.871728
0.875287
0.882083
0.888591
0.892321
0.893269
0.892112
0.890074
0.890154
0.890587
0.891657
0.894397
0.898151
0.900836
0.902129
0.902475
0.902913
0.9048
0.90679
0.909835
0.912866
0.915502
0.917758
0.919248
0.919395
0.918273
0.916261
0.916001
0.917344
0.921503
0.928547
0.933573
0.936809
0.939076
0.941021
0.942163
0.939125
0.934718
0.933852
0.935136
0.937239
0.941434
0.950058
0.956724
0.960003
0.962022
0.963917
0.964949
0.960894
0.954809
0.953372
0.95471
0.957025
0.961725
0.971746
0.980387
0.984819
0.987368
0.989259
0.989847
0.985363
0.978471
0.976385
0.97738
0.979785
0.983882
0.994499
1.00697
1.01345
1.01661
1.01909
1.02068
1.01687
1.00876
1.00487
1.00506
1.00749
1.01141
1.01935
1.03205
1.04255
1.04917
1.05364
1.05665
1.0558
1.05186
1.04655
1.04336
1.04383
1.04781
1.05843
1.06857
1.23508
1.69419
0.880211
0.875796
0.873937
0.874327
0.876263
0.880409
0.884587
0.887204
0.890047
0.892061
0.892807
0.892945
0.894233
0.896285
0.898541
0.900559
0.902276
0.904104
0.90456
0.902172
0.900844
0.902078
0.906144
0.912251
0.917556
0.921322
0.923579
0.925233
0.925817
0.922553
0.917415
0.916165
0.917215
0.919129
0.923883
0.933604
0.94078
0.943721
0.945418
0.946961
0.946806
0.940941
0.935815
0.9353
0.936595
0.938684
0.943724
0.953684
0.961164
0.964503
0.966455
0.967566
0.967104
0.963773
0.95874
0.95678
0.957737
0.959783
0.963176
0.971704
0.982275
0.987518
0.989803
0.991038
0.991691
0.990403
0.984351
0.980359
0.980534
0.982674
0.985558
0.990815
1.00295
1.01292
1.01743
1.02008
1.02256
1.02393
1.01884
1.01183
1.00948
1.01055
1.01314
1.01696
1.02475
1.03625
1.04539
1.05159
1.05603
1.05877
1.05838
1.05516
1.0493
1.04467
1.04414
1.04903
1.06147
1.24185
1.6973
0.880506
0.881
0.881436
0.882966
0.885485
0.887823
0.889338
0.888249
0.886528
0.887932
0.892076
0.896782
0.901196
0.90509
0.907499
0.908839
0.908943
0.907436
0.902577
0.900103
0.900527
0.902096
0.906693
0.917407
0.925391
0.928539
0.930212
0.931174
0.929426
0.922172
0.917353
0.917191
0.918328
0.920087
0.925083
0.937124
0.94476
0.947778
0.949515
0.949971
0.947333
0.942801
0.938923
0.93829
0.939543
0.941551
0.945402
0.953925
0.962636
0.966395
0.967792
0.967907
0.968208
0.967704
0.964133
0.961824
0.96258
0.96454
0.966327
0.969583
0.979285
0.986882
0.989729
0.991513
0.9936
0.995412
0.992942
0.987467
0.985572
0.986116
0.987484
0.989483
0.994488
1.00689
1.01671
1.02151
1.02468
1.02744
1.02865
1.02359
1.01722
1.01455
1.01471
1.0168
1.02064
1.02872
1.03959
1.04806
1.05402
1.05852
1.06115
1.06093
1.05727
1.04964
1.04332
1.04306
1.05065
1.24584
1.69944
0.883201
0.888348
0.891366
0.892763
0.893205
0.89274
0.888776
0.884478
0.884138
0.8853
0.889752
0.900345
0.908996
0.912584
0.914294
0.915252
0.914005
0.906605
0.900667
0.900159
0.901208
0.902745
0.907161
0.920048
0.929158
0.932199
0.933964
0.93452
0.930257
0.92356
0.920001
0.919862
0.921077
0.923794
0.929516
0.938334
0.945944
0.949009
0.949482
0.948295
0.947939
0.946675
0.944195
0.943803
0.945294
0.947414
0.948873
0.951528
0.959282
0.964647
0.966673
0.968271
0.970511
0.972529
0.972052
0.96827
0.966632
0.966686
0.967388
0.968652
0.972698
0.983233
0.990661
0.994388
0.997197
0.999631
1.00111
0.997069
0.991022
0.988446
0.987851
0.988612
0.991021
0.997487
1.01101
1.02139
1.02668
1.03054
1.03375
1.03471
1.0288
1.02089
1.01727
1.01756
1.01987
1.0241
1.03307
1.0438
1.05154
1.0569
1.06103
1.06282
1.06192
1.05712
1.04778
1.04088
1.03889
1.24497
1.70057
0.887301
0.895765
0.897708
0.89919
0.899327
0.894221
0.886025
0.884059
0.884852
0.88618
0.890261
0.902875
0.912825
0.916046
0.917809
0.918481
0.914047
0.905924
0.902614
0.902569
0.903562
0.905888
0.912531
0.922747
0.930282
0.933434
0.934255
0.931783
0.929162
0.926793
0.924759
0.925274
0.927561
0.930684
0.932436
0.93585
0.941705
0.945129
0.946524
0.947974
0.95021
0.952273
0.952459
0.950338
0.949692
0.949615
0.949285
0.949658
0.952876
0.961557
0.967977
0.971633
0.974785
0.977339
0.978936
0.976328
0.970889
0.967835
0.966631
0.967472
0.969633
0.976711
0.989418
0.997628
1.00168
1.00436
1.00629
1.00638
0.999626
0.991784
0.988576
0.98856
0.990274
0.99319
1.00165
1.01675
1.0275
1.03247
1.03542
1.03761
1.03719
1.03112
1.02346
1.01996
1.02043
1.02305
1.02824
1.03834
1.04856
1.05501
1.05913
1.06244
1.06315
1.06175
1.05502
1.04354
1.03335
1.23946
1.70097
0.892547
0.899117
0.90088
0.902113
0.899731
0.891106
0.886701
0.886478
0.88709
0.888648
0.895288
0.907289
0.914538
0.917691
0.918984
0.916555
0.911411
0.907869
0.906255
0.907011
0.909335
0.913549
0.917944
0.92305
0.927326
0.929285
0.929413
0.929891
0.931325
0.932068
0.932212
0.932774
0.934184
0.934839
0.933407
0.932908
0.935326
0.941924
0.947511
0.951507
0.955147
0.957962
0.959673
0.958182
0.953386
0.949288
0.947466
0.948305
0.950429
0.957433
0.969049
0.97649
0.980159
0.98205
0.983651
0.983311
0.976191
0.968839
0.966631
0.967348
0.969202
0.972632
0.984234
0.998222
1.00469
1.00725
1.00932
1.01091
1.00862
0.998895
0.992027
0.99081
0.992103
0.994497
0.997969
1.00689
1.02139
1.03055
1.03469
1.03732
1.03933
1.0387
1.0331
1.02651
1.02357
1.02411
1.02678
1.03233
1.04283
1.05174
1.0568
1.06044
1.06301
1.06334
1.0607
1.04996
1.0351
1.23068
1.70102
0.896066
0.900962
0.902635
0.901604
0.895104
0.890702
0.889568
0.890048
0.891541
0.895752
0.903022
0.909944
0.914169
0.915692
0.91464
0.913019
0.912142
0.911385
0.912238
0.914448
0.917715
0.919704
0.920303
0.920157
0.922088
0.925346
0.927879
0.931131
0.935295
0.938603
0.940464
0.940331
0.93817
0.934174
0.931195
0.931375
0.933153
0.939141
0.94958
0.956935
0.960519
0.962351
0.963873
0.963761
0.956878
0.948768
0.947128
0.948277
0.950139
0.954689
0.968304
0.979154
0.982954
0.985061
0.986408
0.985953
0.981526
0.972938
0.969041
0.969485
0.971532
0.974556
0.979582
0.991991
1.00317
1.00756
1.00944
1.00999
1.01095
1.00928
1.00198
0.997354
0.996968
0.998293
1.0001
1.0026
1.00995
1.02297
1.03168
1.03608
1.03895
1.04115
1.04144
1.0373
1.03091
1.02712
1.02682
1.02914
1.03473
1.04502
1.05311
1.05783
1.06146
1.06342
1.06357
1.05711
1.04255
1.22214
1.70112
0.899625
0.90187
0.900932
0.895914
0.892492
0.892009
0.892881
0.895167
0.899627
0.903574
0.906797
0.909674
0.911158
0.911184
0.91093
0.912379
0.914518
0.917232
0.919619
0.921142
0.922483
0.921553
0.917769
0.916608
0.917887
0.922744
0.929605
0.935986
0.940821
0.943477
0.945283
0.945746
0.939787
0.931829
0.930145
0.931102
0.93296
0.938064
0.951012
0.960726
0.963925
0.965544
0.966185
0.963662
0.957294
0.951242
0.949398
0.950412
0.953052
0.95769
0.965877
0.977655
0.983356
0.985338
0.984879
0.984602
0.984824
0.981545
0.976485
0.975433
0.976855
0.978625
0.979636
0.982353
0.992799
1.00336
1.00797
1.01093
1.01383
1.0163
1.01509
1.0078
1.00257
1.00098
1.00087
1.00179
1.00439
1.01171
1.0245
1.03357
1.03867
1.04236
1.04519
1.04587
1.04133
1.0332
1.02821
1.02767
1.02976
1.03549
1.04607
1.05418
1.05917
1.06271
1.06422
1.06173
1.05216
1.21725
1.70183
0.900531
0.900385
0.896736
0.895046
0.894812
0.895522
0.898369
0.903036
0.905959
0.907055
0.906413
0.905677
0.907116
0.909874
0.912532
0.915624
0.920185
0.923988
0.926124
0.92672
0.923926
0.918054
0.915547
0.916163
0.918033
0.923169
0.934101
0.942326
0.945542
0.947204
0.948591
0.946946
0.938279
0.932653
0.931965
0.93292
0.934616
0.94036
0.952621
0.961702
0.965222
0.966257
0.964659
0.963065
0.960566
0.956625
0.95528
0.956749
0.959715
0.961644
0.963279
0.96935
0.978198
0.982234
0.98419
0.986268
0.988725
0.990845
0.987984
0.982525
0.980294
0.979279
0.978288
0.979002
0.982449
0.994092
1.00708
1.01394
1.01746
1.02033
1.02253
1.02066
1.01203
1.00451
1.00152
1.00167
1.00318
1.00603
1.01503
1.02856
1.03769
1.04245
1.04561
1.04766
1.04739
1.04185
1.03307
1.02822
1.02789
1.03024
1.03643
1.04729
1.05553
1.06046
1.06341
1.06342
1.05956
1.21832
1.70352
0.897609
0.896774
0.896848
0.898209
0.900055
0.902815
0.905276
0.907047
0.907992
0.905773
0.902183
0.901746
0.903898
0.910103
0.917356
0.923434
0.927058
0.928923
0.930248
0.929652
0.921757
0.915341
0.914644
0.915788
0.918124
0.925561
0.938554
0.946186
0.949034
0.950483
0.949588
0.944384
0.939103
0.93524
0.93495
0.936683
0.940402
0.944875
0.950995
0.958335
0.96197
0.96287
0.963109
0.964719
0.96622
0.965826
0.963294
0.962402
0.962577
0.96202
0.961091
0.962186
0.968917
0.97942
0.986109
0.990906
0.994633
0.996867
0.997626
0.992172
0.983703
0.978672
0.977097
0.977728
0.979598
0.983989
0.998513
1.01299
1.01941
1.02216
1.0243
1.02547
1.02233
1.01265
1.0053
1.00322
1.00425
1.00659
1.01038
1.02016
1.03268
1.04018
1.04403
1.04666
1.0482
1.04772
1.04216
1.03402
1.02963
1.02909
1.03093
1.03708
1.04789
1.05586
1.06077
1.06257
1.06459
1.22468
1.70625
0.893246
0.897052
0.900933
0.905011
0.908477
0.910411
0.9112
0.910301
0.905874
0.900726
0.899419
0.900472
0.902638
0.910561
0.923358
0.93063
0.932963
0.933834
0.933004
0.928148
0.919966
0.916228
0.9162
0.917212
0.919443
0.927316
0.94056
0.948015
0.950461
0.949917
0.946724
0.944875
0.94264
0.940941
0.941269
0.943261
0.945529
0.946651
0.947253
0.950211
0.957253
0.962325
0.965659
0.968823
0.971959
0.973813
0.972558
0.96774
0.963073
0.959541
0.958452
0.959546
0.962348
0.972523
0.986694
0.994709
0.998314
1.00057
1.00209
1.00104
0.991281
0.981386
0.978482
0.979062
0.980897
0.983875
0.989665
1.0037
1.01615
1.02111
1.02323
1.02429
1.02463
1.02273
1.01567
1.0099
1.00855
1.0096
1.01153
1.01441
1.02305
1.03429
1.04091
1.04458
1.04724
1.0493
1.0499
1.04468
1.03601
1.03076
1.02973
1.03082
1.03639
1.04707
1.05548
1.05955
1.06652
1.23505
1.70985
0.889347
0.899059
0.907744
0.913218
0.915497
0.91656
0.916385
0.911753
0.902475
0.898272
0.898476
0.899783
0.901904
0.910062
0.926169
0.933474
0.93585
0.937135
0.935393
0.927756
0.92137
0.918644
0.919311
0.921964
0.926394
0.930895
0.937216
0.943661
0.94608
0.946188
0.946426
0.947824
0.949216
0.949536
0.948339
0.947685
0.947005
0.945041
0.944003
0.945325
0.951167
0.961835
0.969838
0.974882
0.977518
0.979078
0.979477
0.974241
0.964675
0.959435
0.95872
0.959838
0.961621
0.966199
0.981231
0.994891
0.999779
1.00166
1.00181
1.00077
0.998063
0.990305
0.984406
0.983771
0.985636
0.988204
0.990045
0.993059
1.00356
1.01498
1.0205
1.02313
1.02555
1.02786
1.02761
1.02153
1.01506
1.01196
1.01127
1.01241
1.01541
1.02468
1.03581
1.04264
1.04704
1.05044
1.05245
1.05271
1.04704
1.03729
1.03077
1.02868
1.02896
1.03416
1.04586
1.05453
1.06629
1.24686
1.71375
0.886269
0.897994
0.911702
0.917923
0.920193
0.921544
0.920919
0.912732
0.903123
0.900004
0.900252
0.901539
0.905191
0.914444
0.92644
0.93364
0.935818
0.934609
0.931457
0.929353
0.926501
0.925307
0.926283
0.928637
0.930772
0.931894
0.932074
0.934096
0.94029
0.945622
0.949474
0.952897
0.955624
0.957094
0.956044
0.951813
0.946588
0.942732
0.941991
0.943152
0.945848
0.956585
0.97088
0.977654
0.980483
0.982275
0.983127
0.980312
0.970359
0.962446
0.960953
0.962323
0.965423
0.969267
0.974699
0.986323
0.995236
0.998453
0.999783
1.00094
1.00254
1.00238
0.996765
0.991666
0.99019
0.990006
0.989451
0.989954
0.992714
1.00278
1.01573
1.0235
1.02761
1.03051
1.03274
1.03259
1.02597
1.0172
1.01237
1.01167
1.01305
1.0162
1.02602
1.03821
1.04595
1.05012
1.05245
1.05384
1.05386
1.04806
1.03751
1.02966
1.02635
1.02615
1.03273
1.04588
1.06278
1.25775
1.71708
0.887352
0.897548
0.912706
0.919372
0.921687
0.922341
0.918596
0.912203
0.906742
0.904393
0.905113
0.907692
0.911913
0.916377
0.922203
0.927602
0.929947
0.930436
0.931227
0.932711
0.934443
0.934947
0.933996
0.933385
0.932514
0.929708
0.927785
0.928679
0.933663
0.944361
0.953137
0.958337
0.961029
0.962565
0.962699
0.957308
0.948041
0.943366
0.94309
0.944222
0.945997
0.951255
0.966199
0.977659
0.981373
0.982423
0.981181
0.980502
0.978472
0.972121
0.968083
0.967974
0.969351
0.970886
0.97206
0.974458
0.983822
0.99402
0.999505
1.003
1.00672
1.00918
1.00952
1.00379
0.996131
0.991157
0.988972
0.988662
0.989944
0.993116
1.0046
1.01942
1.02773
1.03138
1.0337
1.03507
1.03435
1.02748
1.01777
1.01289
1.01227
1.01361
1.01724
1.02837
1.04119
1.04856
1.05209
1.05385
1.0547
1.05384
1.04799
1.03745
1.0283
1.02375
1.02388
1.03287
1.05439
1.26558
1.71891
0.892056
0.900772
0.91094
0.9172
0.918936
0.917976
0.916513
0.915169
0.913152
0.91243
0.913204
0.91504
0.916786
0.917401
0.916402
0.91798
0.924346
0.930426
0.934623
0.938362
0.941334
0.942914
0.9423
0.93825
0.932091
0.927009
0.925897
0.926898
0.929166
0.939074
0.954042
0.961458
0.964517
0.966205
0.966927
0.963268
0.952663
0.946275
0.945714
0.947272
0.950168
0.953257
0.958569
0.969869
0.977456
0.97997
0.981396
0.982986
0.984376
0.983706
0.978287
0.973679
0.971915
0.970874
0.969741
0.970121
0.97291
0.98312
0.996683
1.00532
1.00963
1.01252
1.01463
1.01479
1.00763
0.996761
0.99058
0.989447
0.990632
0.992626
0.996555
1.00955
1.02374
1.03022
1.03295
1.03474
1.03567
1.03451
1.02726
1.01846
1.01443
1.01421
1.01574
1.01932
1.03039
1.04311
1.04989
1.05241
1.05334
1.05414
1.05371
1.04894
1.03825
1.02723
1.02188
1.02163
1.04071
1.26897
1.7191
0.897836
0.901698
0.906476
0.911334
0.914015
0.915189
0.916527
0.91838
0.920476
0.92141
0.920817
0.920336
0.918974
0.91438
0.912215
0.913035
0.917186
0.928329
0.938217
0.944061
0.946766
0.948135
0.948154
0.942885
0.932149
0.926584
0.926395
0.927571
0.929374
0.935248
0.951681
0.96271
0.965901
0.966985
0.96581
0.963745
0.959696
0.953347
0.950717
0.951358
0.953021
0.954494
0.955759
0.958952
0.968992
0.97831
0.983284
0.986197
0.988698
0.99044
0.98963
0.983234
0.976337
0.971789
0.969602
0.96948
0.970782
0.973535
0.985341
1.00203
1.01054
1.01371
1.01568
1.0168
1.01546
1.00709
0.99715
0.993198
0.99349
0.995434
0.998138
1.00221
1.01311
1.02468
1.03025
1.03275
1.03424
1.03546
1.03576
1.03082
1.02292
1.0181
1.01655
1.01709
1.01954
1.02973
1.04223
1.04886
1.05158
1.05323
1.05488
1.0551
1.05087
1.03881
1.02548
1.01827
1.02306
1.2657
1.71756
0.901719
0.902427
0.901773
0.904508
0.910662
0.915775
0.919622
0.923214
0.925867
0.927428
0.927369
0.923942
0.917095
0.912564
0.912203
0.913284
0.915295
0.924151
0.940093
0.947652
0.950235
0.951538
0.951528
0.94548
0.934149
0.928586
0.928313
0.929805
0.933485
0.93895
0.947299
0.958166
0.963246
0.964347
0.964457
0.964975
0.965524
0.963104
0.958263
0.955818
0.955332
0.955215
0.954868
0.955401
0.958409
0.969298
0.981299
0.987858
0.991596
0.994118
0.995845
0.994743
0.985909
0.975854
0.97111
0.970608
0.9718
0.973643
0.977638
0.990981
1.00604
1.01229
1.0144
1.015
1.01508
1.01476
1.00993
1.0026
0.998979
0.998484
0.999048
1.00035
1.0032
1.01315
1.02441
1.03031
1.03346
1.03636
1.03919
1.04058
1.03596
1.02606
1.01881
1.01601
1.01614
1.01821
1.0285
1.04226
1.04985
1.05287
1.05471
1.0562
1.05609
1.05153
1.03777
1.02093
1.01262
1.25579
1.71485
0.90272
0.900503
0.900039
0.901487
0.907291
0.917276
0.924473
0.928163
0.929884
0.930994
0.931091
0.924994
0.915456
0.91268
0.913224
0.914425
0.916542
0.924637
0.940002
0.948569
0.951171
0.951491
0.94849
0.944607
0.939307
0.934581
0.934175
0.936417
0.939867
0.941869
0.943164
0.946994
0.955687
0.961609
0.96451
0.966865
0.969557
0.971535
0.970347
0.96475
0.959834
0.9566
0.954182
0.953679
0.954792
0.958219
0.971555
0.986429
0.993119
0.995788
0.997597
0.998778
0.9961
0.984965
0.976047
0.973723
0.974704
0.976992
0.979699
0.983206
0.992822
1.00484
1.0111
1.01369
1.01547
1.01746
1.01891
1.01617
1.00891
1.00319
1.00035
0.999458
1.00009
1.00285
1.01315
1.02582
1.03351
1.03787
1.04073
1.04276
1.04343
1.0379
1.02646
1.01794
1.01508
1.0155
1.0181
1.02872
1.04316
1.05075
1.05336
1.05512
1.05615
1.05576
1.05007
1.0317
1.01259
1.24247
1.71278
0.90124
0.89985
0.900437
0.901726
0.905318
0.917319
0.92786
0.932025
0.933645
0.934136
0.931418
0.92333
0.916625
0.914413
0.915091
0.91748
0.922326
0.927809
0.936046
0.944184
0.946973
0.946693
0.945707
0.946579
0.946696
0.944668
0.942588
0.942528
0.943295
0.942588
0.939728
0.939396
0.943766
0.954975
0.964088
0.97017
0.975033
0.977658
0.978978
0.975842
0.965864
0.956791
0.95315
0.95313
0.954499
0.95659
0.961893
0.978391
0.992304
0.996905
0.998412
0.998223
0.997502
0.995306
0.987159
0.980971
0.97966
0.980608
0.981829
0.982381
0.983814
0.990108
1.00274
1.01164
1.01606
1.01879
1.02136
1.02342
1.02188
1.01334
1.00443
0.999977
0.999324
1.00038
1.00333
1.01458
1.02917
1.03727
1.04051
1.04232
1.04375
1.04395
1.03863
1.02718
1.01885
1.01619
1.01626
1.01857
1.02909
1.043
1.04971
1.05226
1.05454
1.05558
1.05478
1.04402
1.02537
1.23027
1.71196
0.900545
0.899654
0.900571
0.901928
0.904773
0.91608
0.928867
0.933398
0.935016
0.934725
0.931089
0.925377
0.920227
0.919191
0.920762
0.924347
0.9271
0.928349
0.929587
0.933842
0.940865
0.94497
0.947571
0.950354
0.95352
0.955016
0.952779
0.948551
0.944669
0.939518
0.936387
0.936528
0.938077
0.94466
0.961243
0.97385
0.978889
0.981339
0.982654
0.982277
0.974838
0.961215
0.955019
0.954795
0.956488
0.960282
0.964904
0.970182
0.981638
0.991309
0.994784
0.995814
0.996379
0.998019
0.999316
0.995785
0.989936
0.986375
0.984084
0.981738
0.980675
0.982019
0.988324
1.00272
1.01395
1.01979
1.02346
1.02558
1.02674
1.02433
1.01396
1.00395
1.00022
1.00031
1.00174
1.00526
1.01727
1.03133
1.03829
1.04089
1.04255
1.04416
1.04469
1.04023
1.02945
1.02047
1.01696
1.0168
1.01862
1.02785
1.04086
1.04766
1.05109
1.05385
1.05542
1.05145
1.04094
1.22423
1.71266
0.901401
0.900942
0.902053
0.904447
0.907834
0.914024
0.924607
0.930547
0.931956
0.931635
0.931907
0.931425
0.928902
0.926722
0.926466
0.927449
0.928237
0.926546
0.924583
0.925574
0.932205
0.943279
0.951394
0.957177
0.960312
0.961866
0.961447
0.954895
0.944355
0.937545
0.93585
0.936725
0.938169
0.941396
0.9534
0.972018
0.979894
0.982156
0.98174
0.978721
0.975656
0.970671
0.96407
0.96215
0.963666
0.966305
0.96796
0.968078
0.968377
0.975021
0.985974
0.992657
0.997099
1.00229
1.00601
1.00758
1.00396
0.99492
0.986196
0.98089
0.979681
0.980709
0.982656
0.99022
1.00794
1.01991
1.02397
1.02579
1.02678
1.02672
1.02339
1.01389
1.00579
1.00303
1.00334
1.00472
1.00738
1.0179
1.0314
1.0385
1.0415
1.04337
1.04502
1.04621
1.04344
1.03251
1.02167
1.01681
1.01618
1.01736
1.02516
1.03811
1.0462
1.05106
1.0546
1.05471
1.05187
1.22653
1.71491
0.90515
0.904281
0.905606
0.907929
0.909444
0.910928
0.915222
0.924121
0.929886
0.932629
0.934992
0.937058
0.938093
0.935917
0.931987
0.928997
0.925718
0.922587
0.921841
0.922851
0.925321
0.936381
0.952506
0.96062
0.963993
0.965751
0.966519
0.962154
0.948725
0.939404
0.937643
0.938629
0.942242
0.947719
0.952965
0.961516
0.971661
0.97573
0.976476
0.976824
0.978055
0.979715
0.979805
0.975514
0.971724
0.969988
0.967579
0.963491
0.962272
0.963991
0.971827
0.987449
1.00018
1.00664
1.00976
1.01156
1.01171
1.00625
0.992788
0.983292
0.981008
0.981888
0.984341
0.98858
0.997202
1.01189
1.0205
1.02343
1.02448
1.025
1.02594
1.02543
1.01911
1.01147
1.00735
1.00606
1.00634
1.0079
1.01537
1.02874
1.03729
1.04156
1.04473
1.04736
1.0488
1.04659
1.03487
1.02175
1.01582
1.01487
1.0156
1.0227
1.03641
1.04599
1.05213
1.05398
1.05916
1.23455
1.71813
0.912599
0.908443
0.908596
0.909609
0.909774
0.909275
0.910218
0.914989
0.926011
0.934603
0.939091
0.942135
0.943579
0.943586
0.939185
0.931119
0.924547
0.921869
0.921971
0.923105
0.924925
0.930445
0.947247
0.960803
0.964929
0.965884
0.963663
0.96036
0.955637
0.94833
0.945357
0.946436
0.949324
0.951439
0.952375
0.952154
0.954843
0.964052
0.972292
0.977575
0.983055
0.987952
0.990247
0.989352
0.982234
0.972478
0.964616
0.960953
0.960889
0.96225
0.964678
0.97513
0.996165
1.00713
1.01038
1.01135
1.01007
1.00708
1.00206
0.993494
0.988364
0.98787
0.989444
0.991219
0.992775
0.997203
1.00881
1.01778
1.02178
1.02416
1.02721
1.0307
1.03181
1.02605
1.01594
1.00877
1.00515
1.00392
1.00528
1.013
1.02831
1.03953
1.04521
1.04832
1.04968
1.04991
1.04667
1.03399
1.02085
1.0151
1.01378
1.01413
1.02147
1.03554
1.04634
1.05082
1.06213
1.24582
1.72172
0.921441
0.91565
0.911681
0.910093
0.908973
0.908443
0.90913
0.91059
0.916898
0.931195
0.940857
0.944809
0.946685
0.947947
0.947132
0.937922
0.927208
0.923691
0.924096
0.926186
0.929689
0.933162
0.938839
0.950885
0.95864
0.960741
0.961358
0.962285
0.962757
0.961808
0.957875
0.954785
0.953647
0.95228
0.948246
0.945894
0.946654
0.950884
0.963185
0.977977
0.987758
0.99248
0.994701
0.995711
0.993268
0.980869
0.96701
0.962289
0.962287
0.964311
0.969113
0.975552
0.985075
0.998099
1.00443
1.00597
1.00593
1.00643
1.00762
1.00764
1.00322
0.997493
0.994165
0.992283
0.99026
0.98981
0.993335
1.00513
1.01692
1.02475
1.03085
1.03414
1.03579
1.03571
1.02821
1.01449
1.00557
1.00356
1.00425
1.00604
1.01388
1.03096
1.04264
1.04693
1.04842
1.04845
1.04767
1.04481
1.03464
1.02261
1.01615
1.01371
1.01316
1.01991
1.03434
1.04366
1.06123
1.25842
1.7252
0.926279
0.92533
0.918108
0.912453
0.909889
0.909411
0.910022
0.911108
0.912735
0.921323
0.937428
0.944834
0.946935
0.947627
0.947331
0.945385
0.93721
0.930589
0.929618
0.930808
0.932476
0.933858
0.934774
0.936856
0.946008
0.955988
0.961656
0.965727
0.969811
0.971856
0.971015
0.96524
0.957613
0.950026
0.945031
0.943932
0.944943
0.946634
0.952027
0.970577
0.987654
0.99335
0.995156
0.994406
0.990629
0.985486
0.977527
0.971155
0.970146
0.972134
0.974649
0.976261
0.977241
0.980464
0.990506
0.999333
1.00393
1.00751
1.01243
1.01573
1.01615
1.01053
1.00104
0.992637
0.987643
0.986631
0.987683
0.99191
1.00749
1.02381
1.03105
1.03388
1.03546
1.0358
1.03441
1.02687
1.01489
1.00829
1.00709
1.00817
1.01
1.01588
1.02991
1.04024
1.04446
1.04623
1.04721
1.04776
1.04685
1.03826
1.02543
1.01643
1.01191
1.01023
1.01715
1.03114
1.05549
1.27106
1.72809
0.929107
0.930326
0.927885
0.918818
0.912356
0.910966
0.911537
0.912614
0.913843
0.916026
0.925995
0.940311
0.946077
0.947814
0.949188
0.950178
0.948507
0.941208
0.935631
0.933965
0.933572
0.932485
0.931228
0.931663
0.934344
0.944695
0.958991
0.968946
0.974164
0.97692
0.978292
0.977032
0.966631
0.952672
0.946362
0.945458
0.94662
0.950054
0.955764
0.963338
0.976419
0.986122
0.989043
0.989199
0.989101
0.989809
0.990168
0.987471
0.982673
0.979539
0.97768
0.974813
0.971422
0.971323
0.974945
0.986974
1.00105
1.01095
1.01636
1.01906
1.02051
1.01978
1.01117
0.997082
0.989138
0.987577
0.988793
0.991879
0.998137
1.01257
1.02548
1.03054
1.03209
1.03223
1.03282
1.03366
1.03023
1.02076
1.01347
1.01025
1.00905
1.00904
1.01254
1.02579
1.03831
1.04472
1.04758
1.04895
1.04965
1.04904
1.04132
1.02703
1.01452
1.00764
1.00633
1.01391
1.04513
1.28068
1.72974
0.931341
0.93304
0.933636
0.928214
0.917526
0.91312
0.913106
0.91412
0.915409
0.916674
0.918646
0.927705
0.941733
0.948506
0.950996
0.952377
0.953558
0.952712
0.94605
0.939262
0.934957
0.931882
0.930547
0.931043
0.932273
0.934992
0.948015
0.966744
0.975165
0.977822
0.978735
0.976842
0.972061
0.962723
0.954335
0.952121
0.953385
0.956256
0.958423
0.959802
0.961577
0.969449
0.979851