/*--------------------------------*- C++ -*----------------------------------*\
  =========                 |
  \\      /  F ield         | OpenFOAM: The Open Source CFD Toolbox
   \\    /   O peration     | Website:  https://openfoam.org
    \\  /    A nd           | Version:  12
     \\/     M anipulation  |
\*---------------------------------------------------------------------------*/
FoamFile
{
    format      ascii;
    class       volScalarField;
    location    "10";
    object      p;
}
// * * * * * * * * * * * * * * * * * * * * * * * * * * * * * * * * * * * * * //

dimensions      [1 -1 -2 0 0 0 0];

internalField   nonuniform List<scalar> 
22702
(
1
1
0.855998
1
1.05796
1
1.47364
1
1
0.61162
1.4718
1.47169
1
1.47156
0.879773
1
1
1
1.47099
1
1.47252
1
1.47215
0.664314
1.47439
0.660811
1
1.47236
0.642409
0.662245
1
1.46957
1
1
1
1.43561
1.4765
1.47239
1
1
0.587021
1
1.22383
1
1.47218
1
1
1
1
0.648865
1
0.659428
1
1.47082
1
1.46931
1
1
1
1
0.677337
1
1
0.677315
1
0.672036
1
1
1
0.628607
1
1.47194
1.2839
1
1.47174
1.49726
0.651523
1.47017
0.655957
1
1.47008
0.657661
1.47255
1.473
1
1
1
1
0.926871
0.623665
1.47441
1
1
0.668328
1
1.47209
0.665048
1
1
1
1
1.22352
1.47046
0.656253
1
1
1.10857
1
0.656622
1
1.46966
1.47342
1
1
0.664652
0.661861
0.6216
1
1
1
1
1
0.911641
1
1.40008
1.04499
1.47016
1
1.4706
1.47085
1.47245
1.47346
1
0.630212
1
0.689237
1
1
1
1
1.47204
1
1
1
1
1.46982
1
1.02689
1
1
1
1
0.648791
1
1.01075
1
0.656283
1
1
1
1.47337
1
1.47178
0.652585
0.659755
1.47211
1.47178
1
1.07891
1.26762
1
1.47147
0.656293
1.4364
1
1
1
1
1.47126
1.36569
1
1.47187
0.69849
1.47032
1
0.647313
1
0.654046
0.64828
0.999791
1
1
1.47038
1
1
1.47048
1
1.47121
1.47249
0.661499
1
1
0.66341
1.47088
1
1
1
1.47116
1
0.659446
1
1
1.47219
1.47091
1.4703
1
1.00004
1
1
1
1.4717
1
0.690421
1.48971
1.47053
1.47296
1
1
1
0.648109
1.47064
1.22695
1
1.47325
0.681423
0.676507
1.47336
1.46954
1
1.47882
0.64997
1.4156
1
1
1
1
1.47139
1
1.27246
1.04219
1
1
1.47105
0.687168
0.785485
1
1.47132
0.637524
1.47627
1
1
1
1
1
1
1
0.652621
0.779442
0.682003
1.47134
1
1
1
1
1.41553
1
0.655761
1
0.638727
0.661282
1.47244
0.671025
1.47234
1
1
1
0.997465
0.648002
0.640239
0.999999
1
0.637886
1
1.47101
0.644854
1
1
1.4703
0.637069
1
1.47303
0.671553
1.47099
1
0.640799
0.997629
1
1
1
0.661789
1
1
0.999999
1.00001
1.00594
1.28384
1
0.679518
1
1
1
1
1
1
1
1.47139
1
1.46772
1
1
1
0.64808
1
1.46999
0.671701
1
1.37702
1
1
1.47225
1
1
1
1.46365
1
1
1.45898
1.47306
1
1.09807
1
1
0.687808
1
1
1
0.685716
1
1
1
1
0.662121
1
1
1
1
1
0.62975
1.00006
1.47182
1
0.999995
1.47177
1.47229
1
1
0.667321
0.815827
1.47218
1
1
1
1.47039
0.624862
1
1.47165
1
1
0.720143
0.726141
1
0.656465
0.654709
1
1
1
1
1
1
1
1.47017
1.11132
1.44211
0.63678
0.90262
1.47051
1
1.47106
1.4726
0.688058
0.786383
1
0.665644
1
1.48299
1
1
1
1
1.47091
1
1
1
1
1
1
1
1.16594
1.47313
1
1.4717
1
1
0.659968
1
1
1
1
1.4712
1.3539
1
1
0.656782
1.47102
1.47192
1
1.47246
1.47061
1.47103
1
0.836037
1
1.47185
0.989367
1.47121
1
0.686196
0.998781
1.47065
1
1
1
1
0.656506
1.4713
1.42654
1
1.46936
1.47068
1.47101
1
1.22203
1.47308
1
1
1.32472
1.06303
1.47138
0.932373
1.47105
1
1.47087
1.47191
1.47086
1.47154
1
1.46512
0.914317
0.888273
1
0.999999
1
1
1.47181
1
1
1
1
1
1.47122
1
1
0.996006
1.47164
1.4022
1
1.38677
1.00004
1
1
1.47196
1
0.997214
1.0046
1
1.47189
1
1.47181
1
1
1.34551
1
1.47297
1.00002
1
1.4741
1
1.47118
1
1
1
1.47066
1
1.47066
1.00001
1.47133
1.46958
1.4708
1.47169
1
1.47211
1.45892
1
0.660254
1.44155
1.32958
1
1.47053
1
0.688584
0.679614
1
1
1
1
1
0.659957
1
1.47158
1.11424
1.47187
1
1
1
1
1
1.47135
1
1.47151
1.27246
0.785837
1
1.00001
1.13307
1.11766
1
1
1.15965
1
0.658624
1.47253
1.47246
1
1
1
1.46736
1
1.00003
1.47281
1.47231
0.95051
1
1
0.655001
1.42569
1
1
1
1
1
1.47143
1.47163
1
1.47412
1.46998
1.47116
1
1
1
1
0.638524
1.47247
1
1
1.42609
1.47092
1
1.44196
1.47275
1
1
1
1
1
1.47239
1
1
1
1
1.46808
1
1.46805
0.667481
1
0.666561
1
1
1
0.996988
0.64913
0.999045
1
1
1
1.06553
1
1
0.86608
1
1
1
1
1
1
1
0.999997
0.92995
0.999999
1
0.997552
1
0.659144
1
1
1
1
1.34695
1
1
1
1
0.672565
1
1
1.44283
1.47178
1
1
1
0.889855
1
1
1
1
1
1
0.948117
1.00437
1.47109
1
1
1
1.46914
0.886778
1
1
1
1.47263
1.47078
1
1.00001
1
1
1
1
1
1
1
0.651341
1
1
1.46963
0.663774
1
1.46867
1
0.652125
1
1
0.653519
1
1
1
1
1
1
1
1.46212
1.47095
1
1
1
1
1.4276
1
1.14756
0.657013
1
1
1
1
1
1
1
1.03686
1
1
1.2311
1
1
1
1.38492
1
1
1
1
0.651032
1
1
0.63562
0.657273
1
1
1.47105
1
0.995497
1
1
1
1.32668
0.664705
1
0.65962
1
0.786193
1
1
1
1.47186
1
1
1.47139
1
1
1
1.47167
1
1
1.47302
1
1
0.686472
1
1.14735
1
1
1.47232
1.47038
1.31136
1.42
1
0.687219
1
1
1.4493
1
0.649113
1
1
1
1.47114
1
1
1
1
1.27444
1
1.43532
1.47418
0.650147
1
1
0.674139
0.677015
1
1
1
1.33242
1.3526
1
1
1
1
1
1
1
1.18941
1.47283
0.998782
1
1.46588
0.638781
1
1
1
1.25539
1
1.08949
1
1.42752
1.46888
1
0.685292
1
1.46939
1
1
1.47185
1.44061
1
1.4763
1
0.70382
1
1
1
1.45874
1.46184
1.41164
1
1.47411
1.47029
1
1.47175
1
1.46886
1
0.635986
0.972009
0.643173
1
1
1
1
1
1.47144
1
1.47088
1
1
1
1.44713
1
0.666147
1.47068
1
0.642222
0.68788
0.676807
1
1.23003
1.04237
1.47294
1.47067
1
0.999999
1
1
1.47147
1
1
1.47181
1.47084
1
1.16112
1.00009
1
0.996724
1.47195
0.849739
1
0.820582
0.658259
0.658979
0.938459
1.47191
1.46386
1.0845
1.47239
1.47141
1
1
1.46999
1.46894
1.47177
1.47509
1
1.47124
0.63285
1.4701
1.47292
1.4684
1.47378
0.868396
0.886915
0.919913
1.47296
0.960045
1.47328
1
1
1.47296
1.47028
1
0.664581
1.47441
1.47159
1
1.4706
1.47087
1
1.47073
0.657375
1.4708
1.47135
1.47412
1.47746
1
1
1
1.47182
1.3023
0.68767
1.4719
0.637846
1.4716
1
1
1
1
1.46886
1.4725
1
1
1.47164
0.643467
1.47107
0.659916
1
1.46789
1
0.601134
1.47376
0.738313
1
1.47066
1.47492
1.47282
1
1
1.22671
1.47343
0.650795
1.47127
1
1.47024
0.869826
1.47234
0.659542
1
1.47155
0.704058
1.47284
0.661581
1
1.47109
1
1.47253
1
1.27137
1.45334
1.36668
0.663893
1
1.47205
1
1.47118
1
1.47181
1
1
1.47252
0.97951
1.47406
0.622378
1.43238
1
1.33286
1
1.47262
1.47156
1.47222
1
1.42119
1.47215
1.43541
1.27837
1.47034
1
1.31
1
1.47243
1
1.06855
1
1.43464
1
1.47077
1.44851
1.4478
1
1.46651
0.667072
1
0.67692
1
1
1
1.46966
1
1.47219
1
1
1
1.47199
1.45655
1.39258
1.46999
1.4688
0.657953
1.48121
1.47251
1
1.39767
1.47158
1.45734
1
1.47027
1.46945
1
1.47255
1.47105
1.47134
1.47292
1
1
1
1.47114
0.661663
1
1.47126
1
1
0.685205
1
1
1.47103
1.47167
1
1.47144
1.46372
1.47084
0.972877
1.47149
1
1.47134
1.47126
1.37807
1
1
1
1.47001
1.47095
1.47102
0.947672
1
1.48125
1.47091
1.47059
1
1.47111
1.47206
1.47083
1.48283
1
1.472
1.46991
1.41056
1.47108
1.48088
1
1.46538
1.46593
1.47108
1.47125
1.47243
0.661275
1.47173
1.47017
1
1.4707
1.47112
1.47133
1.47163
1
1.47143
1.47139
1
1.47235
1.39491
1
1
1
1.47014
1.48044
1
1
1.25255
1
1.47216
1
1
1.47137
1.47328
1.47149
1.4713
1
1
1
1.32928
1
1.47159
1
1
1.47016
1.47166
1
1.47162
0.624864
1.47071
1.4704
0.718061
1
0.643179
1.40919
1.4739
1.47026
1.46951
0.674155
1.47237
1.47245
0.674564
0.637095
1
1.47035
1.47211
1
1
1.47121
1
1.47796
1
1.40956
1
1.21727
1.47163
1.47501
1.32218
1.42749
1.47032
1.47271
1.45292
1
0.640503
1.47031
1.47163
1.47458
1.00001
1
1
1.47478
1
1.47188
1.47251
0.766183
1
1.47187
0.999944
1
1.00003
1.00004
1.47196
1.4692
0.998442
1
1
1.47149
1.4734
1.47234
1.47077
1.47341
0.67243
1.41375
1
1.46803
1.4718
1.47196
1.46257
1
1.47154
1.45774
1.4727
1
1.47099
1.47086
0.860629
1.47141
1.47115
1
1.47139
0.843643
1.47032
0.858865
1.47137
1
1.47153
1.47989
1.47154
1.47181
1.47142
1.47172
1.4722
1.46924
1
0.929019
1.47118
1.4711
0.850271
1.4717
0.969709
1.28418
1.47132
1.47171
1.46943
1
1.47411
1.30388
1.46941
0.92425
1.47364
1.47185
1
0.867694
1
1.4709
1
1.31798
1
1.43845
0.868824
1
1.47188
1.46454
1
1.47171
1.47318
1.46525
1.4601
1.46136
1
1.47078
1
1
1
0.891105
1.47084
1.47208
1.47656
1.47177
1.47704
1.47577
1.46558
1.47216
0.894609
1.0312
1
1
1.47856
1.47188
1.47121
1.47134
1.00003
1.24114
1
1.47219
1.4188
1
1
0.729637
1.47117
1
1
0.634456
1.47143
1
1.4733
1.47172
1.47052
1.45208
1.47168
1
0.660169
1.11123
1.47213
1.4713
1
1.47189
1.47086
1.22599
1.0108
1.10392
1
1.47288
1.47093
1
1
0.677613
1
1
1.47165
1.47153
1.47142
1.47163
1.471
1.46884
1.47256
1.46973
1.47193
1
0.99615
1.47083
1.47122
0.996967
1.47109
1.47094
0.674209
0.638752
1.474
1.48204
1
1
1.00138
1.47206
1.47281
1.47148
1
1.47112
1
0.858057
1.47456
1.4766
1
1.20932
1.47239
1
1.47084
1
1.4721
1.3085
1.4718
1
1.47086
1.47826
0.674241
1.47097
1
1.47008
1.47273
1
0.6704
1.4671
1.39449
0.99767
1.44936
1.47108
1
0.994363
1.47302
0.998165
1.47093
1
1
1.4708
1
1.46874
1.47084
0.996354
1.37172
1
1.47084
1
1
1
1
1.47126
1
1
1.46183
1
1.47064
1
1.2957
1.47233
1.47148
1
1
0.99348
1
1.4708
1.47104
1.47042
1.47094
1.47091
1.47149
1.47064
1
1.47176
1.47155
1
1.47079
1.47186
1
1.47308
0.928399
1.05841
1.47149
1.47189
1.47193
1
1.47088
1
1.47155
1.47151
1
1.47274
1
1
1
1
1.47204
0.666695
0.997823
1
1.47042
1.47987
1
1.47136
1
1.00483
0.641903
1.47174
0.999631
1
1.47097
0.998343
1.47083
1
0.999775
1
1.46929
1.46847
1.47215
1.47612
0.648511
1.47081
1.46998
1.47223
1.11412
1
1
1.19365
1.47098
0.6528
0.649433
1
1.47033
1.47122
1.47487
1
1
1.47002
1.47246
0.999892
1
1.33506
0.629425
1
1.07663
1.47055
1.47203
0.998245
1.47127
1.48159
1
0.99901
1
1.47431
1.47173
1.18585
1
1.45569
1
1.00244
1.47313
0.598245
1.47199
1.47112
0.996981
0.999915
1.42345
1
0.999704
1
1.47032
1
1.00001
0.626707
1.47139
1.00001
1
1
1
1.46825
1.25905
1
1
0.650749
1.47176
1.26034
1
1
1
1.44886
1.46233
1.47013
1
1
1.47675
1
1.47214
1.47083
1
1
1.47368
1.47091
1.45297
1
1
1.47321
1.47521
1
1
1
1.47292
1
1
1
1.47391
1.47478
1.47552
1
1.46784
1.00003
0.691119
1.47239
1.47286
1
1.47162
1.44421
1.47014
1
1
1.47376
1
1.2434
1.46906
1
0.678918
1
1.47432
1
1
1.46809
1
1
1
1.1445
1.4683
0.67683
1.00001
1.4733
1
1
1.47095
1
1.47347
1
1
1.47191
1.47178
1
1.00005
1
1
1
1
1
1
1.47914
1.47108
1
1.47301
0.667907
1.48013
1
1.47047
1.47268
1.47149
1.46834
1.47543
1
1
1.46707
1
1.28487
1.47552
1.47152
1
1.47522
1.46636
1
1.41945
1
1.47144
1.30309
1.46895
0.997564
1.46485
1.42066
1.47304
1.47258
1.0359
1.47144
1.47514
1
1.4712
1
1.47183
1
1
1
1
0.99646
1.47137
1.47198
1.38055
1
1.47102
1
1
1
0.663164
1
1.46006
1
1.42704
1.45189
1
1
1
1.44112
1.47029
1
1
1.47202
0.653892
1.06829
1
1.47352
1.47164
1.42895
1.4601
1.47091
1
1.47023
1
1
1
1
1.47043
1.47098
1
1.46295
1.03878
1.47026
1.43903
1
1
1.44061
1
1
0.692674
1.32784
1
1
1.47787
1
1.4751
1.42805
1
1.42703
0.652084
1.47197
1.47204
1.47294
1
0.683408
1
1
1
1.47191
1.38735
1
1.47016
1.47065
1
1.47136
1
1
1
1
1.47082
0.999394
1
1.47423
1
1
1.47488
1.47167
1
1.47345
1.09011
1.00002
1
1.47187
1
1.47163
1
1.01443
1.47203
1
1.47152
1
1
1.14761
1.4726
1
1
1
1
1
0.99634
0.667725
0.655278
1.02029
1
1.02296
1
1.03031
1
1.47173
1
1.28094
1
1.4716
1
1
1
1.47155
1
1.38959
1.47083
1
1.24813
1.47156
1
1
1.46958
1.47176
1
1
1.04997
0.668457
1
1.47396
1
1
1
1
1.0752
1.47175
1
1
1
0.681177
1
1.47188
1.47156
1.48361
1
1
1
1
1.2304
1.47671
1
1
1
1.47179
1.47154
1.05075
1
1
1
1.47253
1.47155
1
0.674659
1.47154
1.47185
1.47145
1.47219
1.47497
1
1
1.47325
1.46861
1.47118
0.673608
1.03933
1.47166
1
1
1
1
1
1.47074
0.650281
1
1
1.47066
1.20042
1
1.47568
1
1
1
0.657707
1
1
1.12004
1.4718
1.47117
1
1.47621
1.4795
1
1.07509
1
1.4809
1
1.47084
0.655385
1
1
1
1
1.47112
1.00006
1
1
1
1.45422
1
1
1
1
1.47076
0.659698
1.36662
1.47335
1
1.47226
1
1
1
0.997126
1
1.47079
1
0.812686
1
1
1.00003
1.46996
0.64053
1
1.47452
1
1.46784
1.47204
0.641375
1
1
1.45158
1
1
0.694394
1
1.48409
1
1.45048
0.99932
1.47299
1
1
1
1
1.47294
1
1
1.47112
1
1
1
1
1
1
1
1
1.30059
1
1.14302
1.46959
1
1
1
0.668336
1
1
1
1
1.47557
1.47125
1.04676
1
1
1.47325
1
1
1.47277
1
1.00002
1
1
1
1.00001
1.4712
0.786028
1.47148
1.47421
0.997082
1
1
1
1.27393
1
1
1.47299
1.4715
1
1
1
1
0.616526
1
1
1
1.29061
1
1.47141
1.47607
1
1.47294
1
1
1
1.25314
1
1.47394
1
1.47165
1
1
0.996243
1.47155
1
1
1
1
1
1.47425
1.00002
1
0.694183
1.47391
0.734166
1
1.47133
1
0.996198
1
1.47352
1.46763
1
1.4763
0.872221
1.47117
1.47924
1.00003
1
1
0.666644
1
1
1
1.47237
1.27093
1.4711
1
1
1
1
0.996767
1.46896
1
0.66281
1
1
1
1
1
1
1
1.47932
1.47015
1.46745
1
1
0.996942
1
0.98442
1
1
1
0.634621
0.974113
1
0.670075
0.667211
1
1.47286
1.47097
1
1.46742
1.47111
0.668573
1.31487
1
1
1
0.661226
1.47245
1
0.662471
1
1.47158
1.08797
1
1
1
1
1.4712
1.46815
1
1
1.47189
1
1
1.47418
1.47208
1
1.44349
1.47096
1.47106
0.956436
1.46934
1.00859
0.663644
1.3586
1.47222
1
1
1
0.627293
1
0.667652
1.46844
0.965379
1.47127
0.950847
1
1.47301
1.20575
1
1
1.47026
1
1.19061
1.47304
1
1
1.46994
1.46558
0.655713
1.26891
0.999887
1
1.27529
1
1.47889
0.92789
1.47734
1.47705
1
1
1
1
1.47138
1
1
1.47091
0.999624
1.47122
1.37994
1.4673
0.665993
1
1
1
1
1.47153
1.00005
1.47173
1
1.4708
1.47392
1.05711
1.47706
1.14386
1.47265
1
1.31568
0.69228
1.48158
1.47172
1.36586
1.0805
1.46828
1.47111
1.47099
1.47126
1
0.923322
1.06844
1
1.47217
1.22055
1.4705
1.00003
1
1
0.717718
1.4774
1.46845
1.38085
1
1.17633
1
1.47768
1.47742
1
1.46947
1.4692
1
1
1
1.46864
1
1.18783
1.47145
1.32419
1
1.47006
1
1
1
1
1
1
1
1
1
1
0.683202
1
1.45489
0.654166
1.27311
0.998539
1.47777
1
1.24851
1.00001
1.29901
1.40379
1
1.00218
1.46961
0.919906
1
1.46969
1.47102
0.923924
1
1.47277
1.47184
1.47444
1
1.47118
1.47038
1.46939
1
1.20624
1
1.00006
1.471
1
1.47098
1.06467
1.47091
1
1
1.47365
1.46897
0.716853
1
1.4722
1.35265
1.47093
1
1
1.46863
1.4731
0.99823
1
1.41781
0.997053
1.47161
1.00004
1
1
1
1
1.20784
1
1.3585
1.47036
1.34739
1.4729
1
1.00504
1
1
1.47329
1
1.46861
1
1
1
1
0.999999
1
1.05611
1.23977
1
1
0.633907
1
1.47544
0.663034
1.4717
1
1.23144
0.999755
1.47054
1.29584
0.667694
1.25689
1.00003
1.47033
1.46963
1
1.28239
1.4699
1.46971
0.998383
1.47607
1.45866
0.650329
1
1
0.997561
1
1.46793
1
0.674979
1.47154
1
1
1.41154
1
1.47068
1
1.47313
1
0.696395
1
1
1.46986
1.47549
1.47912
1
1.4705
1.47116
1.47539
1
1
1.46146
0.999999
0.735453
1
1
1
1.47241
1
1.4711
1.29904
1.46828
1
1.47147
0.999371
1
1
1
1
1
1
0.7237
1
1
1.47115
1
1.47212
1.47768
1
0.649753
0.661964
1
1.47315
1.07633
0.651167
0.632227
1
1.46905
1
1.47012
0.663931
1.00072
1
1
0.99952
1
1
1
0.999913
1.19142
1.47186
1
1
1.47205
1.27581
1
1.43694
1.47273
1.4714
1.19267
1.47271
1
1.47279
1
1.47181
1
1.47232
1.47296
0.997071
1.4722
1.4726
1
1
1
1
1
0.922495
1.46756
1.00004
1.00003
0.589438
0.999984
0.657269
0.645965
1
1.47181
1.47188
1.47058
1
1.47166
1
0.665657
1
1
1.46757
0.833614
1.4733
1
1.47108
1
0.97257
1.47179
1
1
1
1.47208
1
1.47184
0.655766
1
1
1.27127
1
1
1.25577
1
1
1.47173
1
1
1
1
1
1.47921
1.47103
1
1.47175
1.4693
0.651799
1.208
1.47003
1
1
1.42228
0.998916
1
1
1.47095
1.46735
1.30173
1
1.47094
0.651885
1.43191
0.999643
1
1.47006
1.00003
1.46864
1.40284
1.35689
1
1
1.47126
0.718642
0.613435
1
1.47182
1
1.47216
1
1.2765
1
1
1.471
1.29691
0.666154
1
0.998522
1
1
1.02562
1.18957
1.47149
1
1.46969
1
1
1
1
1
1
1.06653
0.659081
1
1
1.03936
1
1
1
1
1
1.47145
1
1
1.47177
1.47203
1.33511
1
1
1
0.846076
1.47107
1.32513
1
1
1
1
1.47245
1
1
1
1.47382
1
1
1.33717
1.48171
1.03787
0.747991
1.47743
1.32569
1.47341
1
1.23324
1
1
1
0.630701
1.00206
0.561728
1
0.645217
0.636647
1
0.654141
1
1
1
1.19839
1
1.47082
1.47233
1.00084
1.21803
1.39512
0.619486
0.746714
0.893159
1
1.4718
1.47326
1.47166
1.47167
1.40373
0.866552
1
1.40525
1
1.46345
1
1
0.996524
1.00965
1
1
1
1.47084
1
0.635748
1
1.47249
0.688274
1
1
1.47187
1
1.47174
0.999761
1
1
1.47294
1.405
1
1.48463
1
1
1.01392
1
1.2057
1
1
0.652748
1
1
1.47277
1
1.47016
1
1.00003
0.666433
1
1
0.67962
1.00089
1
1.47275
0.679728
1.4751
0.64524
1.47219
1
1
1
1
1
1
1
1
1
1
1
1.4518
1
1.47421
1.47146
0.658803
1
1
1
1
1
1
1.45831
1
1
0.664853
1
1
1.47276
1
1
1.17998
1.39427
0.648131
0.673628
0.681005
0.758018
1
0.996624
0.591115
1.00041
1.43852
0.996829
1
1
1.47283
1
1
1
0.762114
1.00001
1.16751
1
1
1.19659
1.47204
1
0.643834
1
1
1
0.996523
1.00001
1.47397
1.47159
1
0.647545
1
1.25368
0.657347
1
0.905152
1
0.99602
0.641404
1
1
1
0.995868
0.622876
1
0.640729
0.998405
1.24403
1.41701
0.663648
0.646368
1
0.990272
1
0.998645
1
1.47342
1.47024
1
1.02316
1.47199
1.47263
1
1
1.47168
1
1
1.00004
1
1.47636
1
1
1.01837
1
0.998584
0.676104
1
1
1
1
1
1.47656
1.03606
1.00005
1
1
1
1
1
1.00003
1
0.651677
1.10496
0.998646
1.4659
1.47302
1
1.01426
1.4714
1.41563
1
1
0.63307
1.47158
1
1.47144
1
1.4729
1.32494
0.653178
1
0.655534
1.42684
0.999689
1
0.657927
0.636123
1
1
1.39578
1
0.999998
0.641735
1
1
1
1.14763
1
0.661071
1.47111
1
1
1
1
1.47225
1
1
1.47515
1.41936
1
1
1
1.47185
0.652749
1
1.47092
1.47114
1
1.37168
0.999999
1.00003
1
1
1.44387
1.01523
1
0.670677
1.25107
1
1
0.997483
1
1
1.47623
1
1
1.00004
1
1.4691
1
1
1
1
1
1
1.00001
1.19591
1
1.47078
1
1
1.47388
1
1
1
1.47177
1.47565
1.0424
1
0.997575
1
1
1
1
1.47272
1
1
1.47179
0.660509
1
1
1
1
1
1
1.37971
1
1
1.47333
1.47139
1
1
1
1.47095
1.47473
1
0.999642
1.47351
1
1
1
1.00002
0.647893
1.0302
0.996176
0.996116
1
1
0.633125
1.4723
1
0.635303
1
1.4708
1.45171
0.647111
0.999389
1.47136
1.47007
1.4738
1
1
0.923106
1.41382
1.39245
0.635302
1
1
1
1.46837
1.47144
0.654675
0.997285
1
1.47187
0.684448
1
1.46793
0.657462
0.972159
1.0061
1
1.48093
1
1
1
1
1
1
1.00012
1.4385
1
1
1.47834
1
1
1
1.47172
1
0.65157
1
1
1
1.15919
1
1
1
1
1
0.79358
1
0.69958
1
1.47069
1.00007
0.874012
0.878169
1.00002
1.00388
1.24343
1
1
0.660811
1.47122
1.47063
1.47194
1
0.633268
0.658193
1
1.47212
1
1
1
1
1
1.00003
1
0.654052
1.29649
1
1
0.662642
0.983962
1.00001
1
1
1
0.646871
1
0.68529
1
1
1.48062
1
1
0.656536
1
1.47166
1
0.624456
1
0.655356
1
1.00826
1.47056
1.48508
1
1
1.4701
1
1
1.10718
0.996733
1
0.998232
1
1.47278
1
0.613554
1.00002
1.47252
0.999007
1
1
0.808739
1
0.999053
0.643744
1.4682
1.16911
1
1.00001
0.903328
1
1
1
0.79229
1
1
1
1.47141
1
0.654181
0.999999
1
1
1
0.657666
1.47175
1.42241
0.648298
1
1.46763
1
1
1.47161
1.47033
1.39508
0.647203
0.997697
0.999206
1
1.47095
1
1
1
1
1.47085
1.00004
1
1
1.47115
1
1
1.47107
0.675219
1
1
1
0.662203
1
0.999999
0.999999
0.998665
1
1
1
1
1.37233
1
1.47277
1.47182
1.47768
1.4705
1.47064
1.47193
1
1.46945
1
1.47191
1.47105
1
0.998858
0.659135
1.40307
0.999895
1
1
1
1
0.984703
1
1.07454
1
1
1
0.844908
1.47163
1.47045
1.4699
1.40093
0.999872
1
1.02332
1.47006
0.997937
1.06346
0.99738
0.682585
1
1.00003
1
1
1
1
1
1.47238
0.649952
1.47251
1.47175
0.995338
0.664979
1
1
1
1.47055
0.683796
1.41466
0.652406
1.47179
1.46795
0.656672
1.47478
1.02283
1
1.47321
0.786903
1
0.998734
0.669103
1
0.694357
1
1.47191
1.47229
0.75894
1
1.47199
0.684554
1
0.664395
1
1.47117
1
1
1.47733
1
0.829311
1
0.999632
0.695544
1.474
0.999499
1
0.676834
1
1
1
1
1.24447
1
1.47169
1
1
1.47442
1
1
1.47047
1
0.688146
1
0.644096
1.00001
1
1
1
1
1.45156
1.26973
1.4714
1
1.47112
1.43591
0.642104
0.644118
1
1
1.47497
1
0.687412
1
0.984368
1
1
1.47232
1
1.47015
0.659715
1.47511
1
0.650078
1
1
1.46965
1.46992
1
1.00004
1
1.46719
1
1
0.659532
0.999374
0.654009
1
1
1
1.47301
1.47709
1.47161
1
1
0.634664
1
1.46834
1
1
1
1.44983
1.47091
1.47058
0.685714
1.47229
1.47132
0.657149
1.47152
1.00004
0.664585
1.0114
1
1
1.47065
0.681432
1.29169
0.666985
1.47137
0.997328
0.636876
1.47254
1
1
1
1
1.47159
1.4693
0.655858
1
1.00002
0.661205
1.00004
1
0.638033
0.611395
1.32861
1.47443
0.998438
1.4713
1
1.47849
0.818355
0.661402
1.4719
1.4855
1
1.47167
1
1
1.47189
1
1.35086
1.47201
1
1
1
1
1.47117
1.4666
1.47513
1
1
1.47479
1.4702
1.47071
1
1.47066
1
1
1
1
1
0.660458
0.830914
0.643021
1
1
1.47078
1
1
1.47632
0.65694
1
1.47185
1.46683
1.45026
0.638412
1
0.671591
1
1.00003
1.47097
1.21914
1.47015
1.42909
1
0.635723
1
1.47511
1.33424
0.632727
1
1
1
0.794111
1
1
1.47757
1
0.651705
1.47138
1
1
1
1
1
1.37563
1.10256
1
1.47129
1
1.46863
1
0.996804
1
1.47372
1.47154
1.47197
1.47518
0.999579
1.47103
1
1.47202
1.47094
1.39764
1
1
0.641052
1.46954
1
1
1.47822
1.47137
1.46861
1
1.47086
1
1
1.00003
1.47249
1.47364
1.12971
1.10042
1.47149
1.47042
0.718078
1
1
1
1
1.00002
1.16
1
1
1.39978
0.65004
0.999977
1
1.4717
0.999883
0.999801
1.0659
1.42617
1.46925
0.927762
1
0.667799
1
0.990006
1.47107
1.47552
1.47801
0.998975
1
1
0.657164
1
1
1.47123
1.04912
1
1
1
1
1
1
1
0.999937
1.47039
1.00002
1
1
1
1
1.30377
1
1.21599
1
1
1.47132
1.48074
0.658441
0.998802
1
0.999999
1
0.660309
1.47332
1.47177
1
1
1
1
1
1
1
1
1.4718
1.47104
0.632338
1.05135
0.653488
1
0.66701
1
1.47147
1.12748
1
1
0.718489
1
1.45052
0.809634
0.996661
0.656215
1
1
1.47128
1.00004
0.997197
0.647425
1.47304
1.47666
1
1
1
1
1.43949
1
1
1.47125
0.998917
1.47204
1.00002
1
1
0.679811
1
1
1.46991
0.663429
0.781143
0.659349
1.47209
0.999346
1
1.47008
0.655917
0.638594
1.00605
1
1
1.47323
1.00004
1.21191
1
1
1.47167
0.660869
1
1
1.00014
1.47265
1.00011
1.45922
1
1.00003
1
1
0.730221
1
0.775182
1.00001
1
1.47481
0.678193
1
0.800827
0.788088
1
1
1.47217
1
1
1
1.47184
1.47295
1.00005
1.445
1.47342
0.801442
1.47115
1.43959
1
1
1.4694
0.999999
1
1
1
1
1.48127
1.47125
1
1
1
1.47226
1.00022
1
0.663592
0.729331
1
1.00003
1.17283
1
1
0.895109
0.631909
1
1
1
1.4803
1.43075
1.47108
1
1
1
1
0.674693
1
1.4682
1
1.45869
0.676679
1.47903
1
1
1
0.64092
1
1.47193
1.00003
1
0.634995
1.16181
1
0.999665
1.4777
0.646937
0.642074
1
1.47169
0.641528
0.661959
1
0.661571
1.00001
1
1
1
0.657512
1
1
1
1
1.47054
1
1.35555
0.683158
1
1
1
0.654667
1.47152
1
1
0.99686
1.46955
1
1.47246
1.47201
1
1
0.721838
0.647389
1
1
0.640975
1.14556
1.21668
1
1
1.47243
0.997351
1
0.997621
1.47056
1
1
1
1
1
1
1.4713
1
1.15786
1.14377
0.68566
1.41554
1
1.47155
1.47158
1
1
1
0.92011
0.709286
1
1.22279
0.999639
1.43134
1
1
1
0.999999
1
1.00715
1.20492
1.47314
1.47184
1
1.47092
1
0.609197
1
0.997531
0.999787
1
0.664944
1
0.675569
1.00002
1.47475
1.47268
0.648088
1.47905
0.650842
0.996186
1.34666
0.678094
1.34406
1
1
0.998421
1
1
1
1.00006
1
0.684962
1
1
1
1
0.999594
1.47275
0.827913
1
1
1
1.03643
1
1
1
1.26845
0.751777
1
1
1
1.04861
1.4697
1
0.675791
1
1.47304
0.89396
0.649032
1
0.652883
1
1
1.44566
0.998238
1.43079
1
1.00911
1
1
1.47192
1
1
1
1
1.08739
1
1.47184
1.47306
1.46972
0.683224
1.47081
0.997067
1.38351
1
1
0.649175
1
1
0.639693
1.47672
1
1
0.999966
1
1
1
0.646918
0.684512
1
1.47289
1
1.21912
1.47172
0.659719
1.39285
1
1
0.645542
1
1
1.47165
1.47088
1.1626
1
1
1.0014
1.47107
0.684215
0.655083
1.47316
1.47142
1.32221
1.18666
1
0.885874
1
1
1
1.44365
1.46997
1.4682
1
1
1.47422
0.641628
1.4165
0.636686
1
0.667409
1
0.664648
1.47076
0.641948
1
0.987926
0.686503
1
1
1
0.861795
1.43238
1.47157
1.47104
1.47275
1
1
1.47246
1
1
1.47176
1
0.636015
1
0.671488
1
1.47524
1
1
1.02318
1.35645
1
0.999044
0.651041
1.47098
1.00001
0.668427
1.08847
1
1
1.35451
1.47249
1.47104
1
1.47382
1.12027
1
1.02432
1.47137
1
1
1
1
1.47186
1
0.66344
1.47029
0.663308
0.670512
0.800647
1.4737
1.15124
1.47238
1
1.47323
0.997257
1.00003
1.47196
1.47315
1
1.47221
1
1.47196
1
1.47145
1
1.00004
0.999981
1.47183
0.65778
0.663464
0.997903
0.999999
1
1
0.673942
1
1.30668
1
0.662981
1
1.17596
1.47228
1.47607
1
1
1.00003
0.999431
1
1.47131
1.47168
1
1.19183
1.47087
0.851874
1.47145
1.00057
0.638864
1.09653
0.646821
1
1
1.07909
1.46952
1
1
1.0386
0.998581
1
0.670365
1
0.777822
1
1.47392
1
1
0.67051
1.10893
1.06703
0.998483
1.4708
1.47119
0.782405
0.998036
0.665092
0.64565
0.657558
1
1
1
0.999039
0.730543
0.650312
1
1.4714
0.999742
1.47155
1.47055
1.47147
1.47073
1
0.673853
1.47068
0.659869
1
1.47261
1.46847
0.996553
0.811826
1.47159
1.32957
1
0.669699
1
1
1.48314
1
1.02718
1.47316
1
0.654122
0.666469
1
1
0.638674
0.651658
1.47167
1.00004
1
0.656837
0.622106
1.479
1.45248
1.4388
1.47167
1.12479
0.987891
1.18936
1.46666
1.36182
1
1.2317
1
0.670729
0.861472
1
0.650742
1.47194
1.0231
1.47311
1
1.47211
1.47159
1
1.47045
1.4716
0.65856
1.4765
1
1.47746
1
0.760303
0.655325
1.47232
1
1
1
0.659952
1.47114
1.47259
1
0.661742
1
1
0.661302
1.00004
0.641555
1.46986
1
0.834435
0.637779
1
1
1.2653
1
1
1
1.0805
0.65866
1
1.00001
1
1.4729
0.663602
1
1.47208
0.680979
0.659231
1
1
1.47619
1
1.47126
1.00001
1.47205
0.658109
1
1
0.65441
0.816776
0.66699
1
1
1
1
1.47566
0.6479
1
0.661368
1
1.47852
1
1
0.93233
1
1
0.830774
0.9997
1.00005
1
0.664841
0.660377
1
1
1
1
0.806285
1.46997
1.47089
1
0.655098
0.669385
0.906298
0.659299
1
0.831978
1
0.679598
0.994487
1
1
0.65804
1
1.46958
1.46486
0.657135
1
1
1
1.47488
1
1.04542
0.83235
1.14137
0.667796
1.18699
0.670907
1
1
0.741663
0.908423
1
1.04416
1
1
0.656894
1
0.942368
1.04817
0.662376
1
1.3756
0.761914
0.878473
1
1
1
0.656562
1
0.66082
0.637788
1
0.846952
0.652455
1.06635
0.759992
0.677076
1.47227
1
1.4716
1.25819
0.730536
1.47141
0.641549
0.999043
1.47123
0.999999
1
1.46981
1
0.718614
1
1.0665
1
1
1.47175
1
0.765693
0.808795
1.47091
0.940863
1
0.734128
1.47199
1.47273
0.907356
1
1.4717
1.12433
0.844154
1
1.01655
1
0.656873
1.19729
0.792042
0.768528
1
1
0.662189
1.47234
0.964298
0.66034
0.652216
0.864734
1
1.00861
1.47071
1.47144
1
1
0.999999
0.659761
1.21959
0.999989
1.47349
1.42011
0.641781
1.00003
1.09613
0.870906
1.28957
1.40363
1
1.04193
1
1.00005
0.632009
0.839806
1
1
0.811786
0.639844
1.02075
1
1.00002
0.672559
1.20461
1
1.46192
1
1.04683
1.25167
1
1.4596
1
1
1.4688
1
0.645062
1.47247
0.70721
1.1218
1
0.654179
0.999918
1
1.00003
1
0.786793
1.02676
0.652097
1.35054
1.47089
0.645722
1
1
1
1
1
0.963897
0.638195
1.04796
0.655748
0.670498
1.07749
1
0.999796
1.11579
1
1
0.690269
0.982497
1
1
1.1285
1
1.4707
1
1.4731
1.08175
1.02645
0.66081
1
1
0.677571
1
1
1
1
1.47269
1.0443
0.998066
1
0.634997
1.05187
1
1
1.30307
1
0.643227
1.47225
1
1.00001
1
1.46947
0.63907
0.885088
0.627694
1.35199
1.47731
1
1
1.47143
1
0.627925
1
1
1
1
1
0.760096
1
1.46874
1
1
1.15365
1.47002
0.658559
0.88821
1
1.47191
1
1
1
1
1
1.47154
1.47349
0.658723
1.47178
0.63856
1
1
1.47117
1
1.47343
1.01433
1.02831
1.06266
1.47094
1.06915
1.31868
0.651005
1
0.648655
0.979146
1
1.47201
1
1
0.655501
1.47692
1
1.47376
1
1
1
1
1
1.00001
0.62494
1.47071
0.85802
1.4709
1
0.654147
0.650126
0.714775
1.47061
1.47238
0.957651
1
0.787085
1
1.17493
1
1.47152
0.63846
0.663941
0.842508
1
1.47207
1
1.07651
0.671684
1
1.47204
1.41255
0.998879
1
1.47163
0.650312
1.47827
1.47079
1.46998
0.65661
1.08499
1
1
0.641894
1
0.81932
0.826647
1
1.00002
1.47099
1
1.47777
1.08705
1
1.02371
1.48005
1
0.636491
1
0.772844
1
1
1.38332
1
0.810829
1
0.655566
1.03755
0.96446
0.625066
1.47008
1.38354
1.4718
0.657769
0.689385
0.995713
0.999999
1
0.689417
1.44491
0.658528
0.999966
1
1.47206
1.47219
0.892872
1
0.656057
0.739956
1.31257
0.981975
0.639089
0.999999
0.661234
1.11802
0.65208
1
1.00006
0.818615
1.47137
1.47034
0.841819
0.999604
1
1
0.704409
1
0.644953
1
0.653345
0.652614
1
1
1.00003
0.653719
1.47174
1
1
1.00006
1.00004
0.684862
1.47217
1.47119
0.999999
0.651301
1.47148
1
1.09418
1
1
1.47188
0.643427
1
1
0.679247
0.746721
0.650233
0.6769
1
0.714624
0.997141
1.09204
0.641637
1
1
1.1286
1
1.4155
1
1
1.31417
0.716182
1
0.649217
1.12038
1.47076
1
1
0.668871
0.659947
0.647794
0.734697
0.675176
1.3492
0.999424
1
1
1
1
1.4717
0.678567
1
0.92582
0.999672
0.998421
0.999943
0.777231
1.11957
1
1.4713
1.47214
1
1
1.45371
1.00004
0.999999
1.47135
0.661443
1.47567
0.999999
0.639052
1.47146
1.00005
1
0.83988
1
0.647492
1
1.47095
1
1
1.47566
1
1
1.4774
1
1
1
1.46786
1
0.773216
0.75173
1
0.636037
1.47198
1
1
0.980467
1
1.47095
1.26497
1.3764
1
1
0.669711
1
0.677494
1.47145
1.47127
1.47054
1
1.47065
0.65909
1
0.67608
1.37803
1.42691
1.46993
1.47091
0.75143
0.646214
1
1.32272
1.4713
1.46975
1.47125
0.75712
1.17149
1
1.35436
0.748265
1
1.00002
1
1.00002
0.880767
1
1.4761
1
1
1
1
1
1
1.00006
1.47021
1
1.47736
1.34916
0.657676
1.46915
1.02203
1.23101
1
1.47143
1
0.662599
1
1
1
1
1.40132
1
0.640002
1.47037
0.639752
1.47228
1.37568
1.24078
1
1.0829
1.21893
0.995591
0.669689
0.753053
1.00002
0.999999
0.9009
1
0.661802
1.47105
0.672982
0.940123
0.847444
1
1
1
1.01369
1
1
0.686042
0.996983
1.46998
1
1.47209
1
0.649346
1
1
1.47172
1.47136
0.638079
1
1.47198
1
0.793052
0.685321
1.46985
1.42084
1
1.07412
1.47146
0.998669
1
1.1915
1.41209
1.47294
0.996001
1
0.999998
1.39822
1
1
1
1.47162
0.998466
1
1
1.4721
1
1
0.654685
1
1
1
1.47023
1
1
0.834117
1.14318
1.42906
0.778075
1
1.47185
1
1.16377
1
1.47272
0.997285
1.47129
1
0.655849
1
1.31052
1
1
1.43734
1.00001
1.47128
1
1.47717
0.699779
0.663964
1.47101
1
1.39722
1
1.47119
1
1
1.00005
1.47081
1.47368
1.12355
1.47205
0.995781
0.661332
1.47161
0.872261
1
1.46721
1
1.47169
1
1.47364
1.47156
0.996302
0.656155
1
1.47179
1
1.02489
1
1
0.997946
0.743587
1.41676
1
1.42408
1
0.867376
0.650305
1.47064
1.47118
0.702898
1
1.47211
1.4724
1.47242
0.69568
1.47156
0.671446
1.47103
1.47513
1
1
1.47167
1
1
1
1
0.650639
1
1
1.47132
1.47123
1
1.47136
1
1.47108
1.47171
1
1.3913
1
0.635869
1.47188
1.34675
1.13317
0.636447
1.47169
1
1
0.65089
1
1
1.47143
1
1
0.76739
1
1.47147
1.00009
1.46941
0.648994
1.4733
1
1.47171
1.45286
0.876944
1
1.47095
0.760082
1.4708
1.32738
1.47198
1.47413
0.997097
1.47331
1.47223
1.47117
1.4717
1.00078
1
0.646232
1
1.46864
0.838912
1.43036
1
1.4636
1
1
1
1
1
1.46924
0.654556
0.65567
1.47204
1.47152
1
1
1
1
1
1.46834
1.43238
1.47169
1.01265
1
1
1
1.00003
1.47013
1.47182
1
1.47194
1.4719
0.667064
1.32805
1
1.47184
1.47871
1.46816
0.998028
1.47166
1.47203
1
1.42711
1
1
1
1
1
1
1.47131
1.47109
1.43674
1.47117
0.653592
0.698886
1.47141
1.47142
1
0.671104
0.948615
1
1.22353
0.650587
1
0.999449
0.99825
0.664087
1
1.47159
1
1
1
1.47128
0.951494
1
1.47186
1.47236
1
1.47121
1
1
1.47154
1
0.671308
1
1.47632
1
1
0.650644
1
1.47082
1
0.640813
0.627109
1
1.44918
1
0.634732
0.882007
1
1.47144
1
1
1
1.4795
1
0.652348
1.06365
1.47313
1.47311
1.47145
1.04653
1.47294
1.47163
1
1.00002
1
1
1.00001
1.47109
1
0.999311
1.47739
1
0.640354
1
1.47138
1.21679
1.0559
1.21274
1.05446
1.47757
0.702624
1.47154
1
0.652804
0.99725
1.47175
0.949735
1.47115
1.47131
1.45113
1
1.4748
1.47098
1.47158
1
1.00004
1
1
1.47084
1.3333
1
1
0.659525
0.996604
1
1.47195
1
1.4719
1.47101
1.47491
0.915605
1.47138
1.47153
1.01558
1.2237
1.47254
1.47121
1
1.43398
0.819166
1.44274
0.972836
1.4713
1
1.47123
1.47232
1
0.662906
0.938956
0.702831
1
1.08144
0.996716
1.47051
1
1
0.996529
1
1.22649
1.45305
1
1
1.47063
1
1
1.33554
1.47138
1.45298
1.47136
1.47242
1
1.4729
0.7186
1.47192
1
0.988634
0.672919
1
1
0.736542
1
1.13905
1
1.47409
1
1.46322
1.29324
0.662111
1
1
1
1
1
1.47105
1.01153
1
1.47273
1
1.47072
1.47161
0.999999
1
0.97485