/*--------------------------------*- C++ -*----------------------------------*\
  =========                 |
  \\      /  F ield         | OpenFOAM: The Open Source CFD Toolbox
   \\    /   O peration     | Website:  https://openfoam.org
    \\  /    A nd           | Version:  12
     \\/     M anipulation  |
\*---------------------------------------------------------------------------*/
FoamFile
{
    format      ascii;
    class       surfaceScalarField;
    location    "10";
    object      phi;
}
// * * * * * * * * * * * * * * * * * * * * * * * * * * * * * * * * * * * * * //

dimensions      [1 0 -1 0 0 0 0];

internalField   nonuniform List<scalar> 
67988
(
-0.000338067
0.000340069
-1.87872e-06
-0.000297691
0.000297825
0.000204497
-0.000430617
0.000226432
0.000136105
-0.000298756
0.000162799
-0.000143814
-7.75819e-05
0.000221567
-8.94539e-05
0.000262084
-0.000173236
-7.32498e-05
0.000310346
-0.000233295
-7.94923e-05
-0.000191605
0.000271097
0.000188018
-0.000185805
-2.50479e-06
0.000212079
6.74981e-05
-0.000279703
-0.000316488
6.55742e-05
0.00025113
-0.000165989
6.92096e-05
9.68791e-05
-0.000238833
8.12681e-05
0.000158813
0.00017271
-0.000289168
0.000116458
0.000173208
-0.000132303
-4.05944e-05
-0.000158016
0.000111643
4.55318e-05
0.000236775
-0.000321116
8.43419e-05
-9.63764e-05
-0.000174021
0.000270397
-0.000175974
0.000257568
-8.11331e-05
-0.000312096
0.000203163
0.000109059
0.000216889
-0.000280001
6.31122e-05
-0.000425429
0.000395436
2.97945e-05
-0.000301593
0.000303413
-1.09793e-06
-0.000216623
0.000291733
-7.51103e-05
0.000102816
0.000177185
-0.000280001
-0.000223313
0.000133235
0.000167077
0.000105532
-0.000272609
0.00030659
-0.00030659
-1.09557e-05
0.000119364
-0.000107768
-0.00033373
0.000200596
0.000132935
3.11117e-05
-0.000218175
0.000187073
0.000314606
-0.000195791
-0.000118816
-0.000343451
0.000253593
8.9858e-05
-0.000202033
-6.46414e-05
0.000265629
0.000250314
-0.000294501
4.41111e-05
0.000264134
-0.000351338
8.76282e-05
-0.00020527
6.14237e-05
7.58803e-06
-0.000245197
0.000237609
0.000216993
4.86858e-05
-0.000265222
0.000133925
-0.000320153
0.000186229
-0.000310289
0.000121492
0.000188796
0.000129064
-0.000137034
8.84362e-06
-0.000215741
0.000223329
-0.000119703
-4.60801e-05
-0.000306568
0.000134799
0.000171769
-0.000382531
0.000275135
0.000107333
4.08865e-05
8.31104e-05
-0.000396746
0.000277846
0.000118968
-7.65181e-05
0.000327495
-0.00027798
6.13566e-05
0.000127773
0.000158106
-0.000286164
-0.000366376
0.000257138
0.000109065
0.000247289
-3.03997e-05
-0.000224592
9.01091e-05
0.000132128
-0.000329907
0.000328062
1.36645e-06
-0.000445504
0.000240933
0.000204871
-0.00037779
2.38134e-05
0.000354422
0.000180257
-0.000138902
-4.12124e-05
-0.000335029
9.60626e-05
0.000239766
0.000178496
-0.000199196
1.90903e-05
0.000130089
-0.000304361
0.000174273
-0.000220266
-0.000114141
-0.000304165
0.000214229
8.99364e-05
-9.88964e-05
0.000265973
-0.000290535
-1.04289e-05
0.000301504
0.000447246
-0.000284833
-0.000162259
0.000250293
-0.000246177
-4.11602e-06
4.27758e-05
-0.00021857
0.000233575
-0.000353629
0.00012026
0.000258944
5.8991e-05
-0.000318047
8.72573e-05
-0.000219499
0.000133115
0.000168215
-0.000171278
1.96545e-06
-0.000217638
0.000345116
0.000282018
-0.000281261
-7.09809e-07
-6.21275e-05
-0.000315083
6.4102e-05
0.000242488
-0.000318725
0.000228061
9.06644e-05
0.000230639
-0.000299121
6.86765e-05
-5.83495e-05
0.000236708
0.000247885
-0.000250293
2.40801e-06
-0.000294121
0.00029432
0.000132865
-0.000295646
0.000163219
0.000133061
3.38765e-05
-0.000334639
0.000236205
9.87655e-05
-0.000340145
0.00022303
0.000117414
0.000340827
-0.000161957
-0.000178869
0.000120341
2.05628e-05
-0.000140856
0.000235858
3.03749e-05
-0.000265185
-0.000288554
0.000219071
0.000157991
3.02077e-05
-0.000174325
-0.000141053
8.93203e-05
-0.000276053
0.000186733
0.000238488
4.33599e-05
-0.000281512
-0.000262377
-0.000134268
-0.000260877
1.40281e-05
0.000246849
-4.43802e-05
-0.000201853
0.000246233
-5.21101e-05
0.000311062
1.93174e-05
-0.000275629
0.000256249
-0.000259711
0.000158406
0.000100548
-0.000172455
-0.000161068
0.000130448
7.91353e-05
-0.000209507
-0.000221241
-4.64348e-05
0.000267733
0.000109087
-3.03883e-05
-7.88284e-05
0.000192697
8.09483e-05
-0.000273645
-8.01643e-05
0.000272861
0.000243485
-7.07753e-05
0.000252459
-0.000255074
2.61521e-06
-8.56135e-05
-0.000340197
0.000169359
0.000145248
-0.000377929
5.36405e-05
0.000324184
-0.000269277
0.000264601
4.67602e-06
0.000144749
-0.000214033
6.93145e-05
0.000260689
2.12675e-06
-0.000261945
0.000276005
-3.9231e-05
-6.73554e-05
-0.000310597
0.000329741
-0.000148986
-0.000180756
-0.000186649
-8.49803e-05
0.000271629
6.6851e-05
4.20859e-05
-8.08129e-05
-0.000207912
0.000289555
6.10734e-05
-0.000181974
0.000121115
-0.000202656
0.000304568
-0.000101912
-0.000271083
-1.02565e-05
0.000280873
-0.000291726
-0.000153382
-0.000304599
0.0004394
-0.000135001
-0.000225065
-4.91962e-05
0.000274261
-0.000231827
-3.94616e-05
-0.000343923
0.000243006
0.00010098
0.000287468
-0.0003075
1.96834e-05
0.000200468
-0.000310839
0.000110295
0.000158677
0.000117964
-0.000276641
-0.000166087
5.73767e-05
0.000108654
0.000316136
-0.000330069
1.38112e-05
0.000325022
-0.000147319
-0.000177621
0.000284511
-3.20523e-05
-0.000127373
0.000129806
-1.62231e-06
0.000199893
7.77563e-05
-0.000277649
-8.44763e-05
0.000284369
0.000235929
5.46282e-05
-0.000290557
-0.000203754
-0.000136242
-0.000317015
9.55757e-05
8.67163e-05
0.000187041
-0.000273757
0.000208602
-9.37419e-05
-0.00011436
-0.000149766
0.000316141
-0.000165563
0.000279161
9.74404e-06
-0.000288905
0.000150978
-0.000116287
-3.49477e-05
-8.83683e-05
-0.000181861
0.000270229
0.000184941
-0.000273309
-8.73603e-05
0.000272301
-0.000167151
-9.77456e-05
0.000264897
-8.05787e-05
-0.000225989
0.000247016
2.2899e-05
-0.000269016
0.000294085
-6.70883e-05
-0.000226997
0.000135055
-0.000130737
-3.97383e-06
-0.000113205
-0.000146709
0.000126172
9.07362e-06
-5.22721e-17
-0.000269277
0.000237861
1.2432e-05
0.000271678
-0.000113848
0.000112806
-0.000111283
-1.53002e-06
-0.000251614
-3.83121e-05
0.000114979
-2.12704e-06
0.000227277
-0.000316205
8.89283e-05
0.000237573
-0.000318313
8.07502e-05
9.88924e-05
-0.000128094
2.92776e-05
-0.000324914
7.50202e-05
0.00025002
-0.000165542
-5.31614e-05
0.000219466
2.60246e-06
0.000262031
0.000180181
-0.000276557
-0.000336403
0.000242053
9.43813e-05
-0.000327489
0.000203169
0.00012432
-7.74875e-05
-8.10297e-05
-0.000234017
6.68659e-05
0.000194238
-0.000307004
0.000114013
0.000276641
-0.000276641
-7.87633e-05
-0.000219186
0.000299159
0.000109039
-0.000110923
1.78282e-06
0.000113028
-4.10459e-06
0.000272293
1.50943e-05
0.000170932
-0.000133744
-3.73738e-05
4.68998e-05
-0.000152584
0.000105238
-0.000261059
0.000181344
-0.000167001
-5.9583e-05
0.000112136
-0.00011302
9.50237e-07
0.000114772
-2.60723e-06
0.000299766
-9.61132e-05
-0.000202888
0.00023424
7.35843e-05
-0.000306275
-0.000156269
-0.000171221
0.000277561
-0.0002725
-5.08496e-06
0.000352167
-0.000318225
-3.30737e-05
0.000119459
-0.000113391
-6.00314e-06
0.000118564
8.94308e-07
0.000221567
1.74172e-05
-0.000239009
5.14977e-05
0.000301294
0.000176281
0.000124075
-0.00018619
7.38493e-05
0.000113085
0.000190995
-6.05514e-05
0.000112095
-0.000113377
1.28587e-06
-0.000214053
-6.18011e-05
0.000276935
0.000215658
-0.000318764
0.000102912
0.000114615
-2.47772e-06
0.000235163
0.000212419
-0.000215951
0.000289022
-7.33295e-05
-0.000231109
-0.000164993
0.00039597
-0.00023424
-6.67105e-05
0.000300861
-0.000217695
-0.000164862
-0.000134589
0.00019798
-6.32093e-05
0.000317999
-0.000220781
-9.65933e-05
0.000148673
5.99205e-05
-0.000203241
0.00020446
-0.000297254
-4.08235e-05
0.000201222
7.05165e-05
0.000202217
-0.000282745
8.05283e-05
4.68315e-05
-0.000291749
0.00024528
-0.000178333
-0.000125832
-0.000207512
-0.000174586
0.00038205
0.000111504
-0.000112985
1.5061e-06
0.000113774
-2.26139e-06
-0.000317129
0.000228957
8.81723e-05
0.00026841
-0.000240327
-2.82257e-05
-0.000306137
9.8455e-05
-0.000188118
-4.95413e-05
-0.000134943
-0.00013807
0.000272674
0.000330991
-9.1379e-05
0.000314727
-0.000253585
-5.79674e-05
-0.000129501
0.00034277
-0.000213757
0.000100613
-0.000320977
0.000220143
0.000117828
-0.000111754
-6.19394e-06
0.000116901
8.67302e-07
9.31564e-05
-0.000275017
-0.00034779
0.000173752
0.000180102
-0.000225518
4.45724e-05
0.000291875
-7.40989e-05
-0.000167411
0.000103681
6.13709e-05
5.03195e-05
0.000100949
-0.000151866
-0.000281427
0.000158504
0.000119794
-1.80321e-05
-0.000299198
-0.00018123
1.65642e-05
-0.000215928
9.80832e-05
0.00011865
-0.000287029
2.61521e-05
-0.000313173
0.000314248
9.90071e-05
-9.78095e-05
-0.000118634
-0.000247475
0.000169816
0.000157224
0.000183603
-0.000212107
0.000114165
-0.000242543
6.98458e-05
0.000174875
0.000324327
-0.000119537
-0.000103158
-0.000109242
-0.000201245
7.49652e-05
0.000122509
-9.02294e-05
-0.000149053
0.000224029
5.51322e-05
-0.00024328
8.07383e-05
0.000163115
-7.78455e-05
-0.000129662
0.00022801
9.70088e-05
0.000110092
-0.000111753
1.76823e-06
-0.000259848
8.22438e-05
0.000178379
0.000110421
-0.000111941
1.59491e-06
0.000113113
-3.00379e-06
0.000113172
-2.50782e-06
-7.39762e-05
-0.000169813
-0.000202077
-5.87442e-05
0.000260821
-7.12638e-05
-0.000188208
0.000315862
-6.81576e-05
0.000162913
0.000166828
0.000215501
-0.000308099
9.2295e-05
-0.000261884
0.000189954
-0.000126309
0.000290223
-0.000163073
-0.00016103
0.000169867
-8.54376e-06
0.000103106
7.7473e-05
0.000117493
-0.000111601
-6.13415e-06
-8.05472e-05
-0.000217097
0.000116849
6.16588e-07
0.000340089
-0.000173769
-0.000166321
0.000162343
-4.16546e-05
-0.000276219
4.19014e-05
-0.000350229
0.000151991
0.000198449
-8.71363e-05
0.000269305
-0.000182169
0.00026492
-3.21269e-05
-0.000232702
4.60322e-05
-0.000271097
-9.05244e-05
0.000271013
-0.000180489
7.88483e-05
-0.000265497
0.0002525
-0.000298951
4.64511e-05
-0.000151313
0.000285237
-0.000190237
-0.000134407
0.000176462
-0.000313925
0.000137429
0.000174754
-0.000125886
-9.21714e-05
-0.000144659
0.000237805
-0.000147456
0.00037454
-0.000226566
6.58878e-05
0.000218787
-0.000285672
-0.000204892
0.000113628
-0.000351989
0.000204695
0.000276589
-0.000100096
-4.33911e-05
-0.000122976
0.000323424
-0.000111317
-0.00018275
-8.85531e-05
0.000271303
-0.000228873
0.000249845
-2.09721e-05
0.000311649
-0.000313376
1.74291e-06
0.000310936
-0.000218212
-9.24999e-05
0.000111075
-0.000312966
0.000302407
-4.0474e-05
-5.912e-05
0.000253758
0.000142819
-0.000357912
0.000213835
0.000275633
-4.83562e-05
-0.00034044
0.000109705
0.000336365
-0.000114963
-0.000166653
0.000198215
-0.000162283
-0.000101168
0.000263279
4.94679e-05
0.000102343
-0.00015202
-0.000179136
-0.00014198
-0.000205559
0.000149654
5.64187e-05
-0.000372408
6.78093e-05
0.000249313
-0.000146497
-0.000326465
4.60026e-05
0.000280148
0.000124623
4.92513e-05
-0.000185341
0.000321372
-0.000298696
-2.27264e-05
-0.000312223
0.000262603
5.00837e-05
5.36792e-05
0.000244214
-0.0001115
-6.07489e-05
-0.000294375
0.000297979
-3.66398e-06
0.00038382
-0.000247454
-0.000136221
-0.000259308
-7.08776e-05
0.000212407
0.000171404
-0.000220361
1.1228e-05
0.000209133
-7.67455e-05
-0.000233543
-0.000134955
-0.000177102
0.000233557
7.97869e-05
-0.000313232
0.000178153
4.80079e-05
-0.000225834
0.000268643
-0.000201255
-0.000218345
0.000173965
-0.000311893
0.000196029
0.000115864
0.000291547
-0.000291466
1.01134e-08
1.57591e-05
9.53387e-05
-0.000110999
-0.000148344
0.00028168
-0.000264741
0.000185249
0.00022789
-2.76288e-05
0.000267633
-1.51371e-05
0.000215514
0.000103778
0.000107363
6.33318e-05
0.000315848
-0.000104072
-0.000211729
-0.000286404
8.57987e-06
0.000277806
-0.000230399
-8.62391e-05
0.000316856
0.000377604
-6.55437e-06
-0.00037109
6.82189e-05
0.000196702
0.000246905
1.69401e-05
-0.000263845
-0.000118664
0.000320881
-8.64363e-05
0.000274681
-0.000188245
-0.000204304
0.000210499
-6.3493e-06
-0.000171501
-0.000147225
-0.000169218
-0.000174233
0.000103199
-0.000334225
0.000232245
0.000204067
0.000102044
-0.000306136
-0.000195777
-7.35563e-05
0.000269333
0.000253604
-7.18035e-05
-0.000185015
-3.64094e-05
-0.00026431
0.000314693
-0.000188563
-0.000126103
-6.2636e-05
0.00031622
9.06364e-05
-0.000282241
6.29536e-05
0.000145535
-0.00020793
-2.13094e-05
-0.000272597
-0.000302096
0.000287438
1.46602e-05
0.000143316
-0.000124988
-0.00012367
0.000259999
-0.000142836
-6.58188e-05
0.000208788
0.000241186
-3.37676e-05
-0.000207686
0.00030777
-0.000207452
-9.04684e-05
0.000271041
-0.000180573
-0.000227427
0.000246642
9.83433e-07
0.000240516
0.000117263
-7.03392e-05
-2.87597e-05
0.000296905
-0.000268629
-5.26624e-05
0.000290125
0.000331431
-0.000231741
-9.8856e-05
-7.70003e-06
0.000301785
-8.18419e-05
-0.000219795
-0.000127281
0.000304101
-0.000177592
-0.000266131
6.34746e-05
-8.24704e-06
-0.000243691
0.000252265
0.000210072
-0.000276637
6.67998e-05
0.000104918
8.11144e-05
-0.000186068
0.00025331
7.00716e-05
-0.000322543
-6.69663e-05
0.0003204
0.000257629
-0.000244093
0.000326085
-8.20881e-05
-0.00012658
0.000123095
5.09629e-06
-7.22403e-05
0.000254549
-0.000182309
0.000121471
0.00019608
-0.0003178
8.03871e-05
0.000227376
-0.00030781
0.000277033
-0.000199277
1.03643e-05
0.000220248
-0.000210272
8.70999e-05
0.000124505
0.000189057
-0.000269221
-7.60836e-05
-0.00023639
0.000312882
9.36184e-05
0.000172887
-0.000266505
-9.23342e-05
8.11954e-05
-0.000273337
0.000188861
-0.000137708
5.63317e-05
8.13295e-05
-6.43163e-05
0.000272385
-0.000208069
-8.73883e-05
0.000267905
-0.000180517
0.000299128
-6.22241e-05
0.000224309
2.25961e-05
-8.85363e-05
0.000273477
-0.000184941
-0.000211829
0.000316918
-0.000272049
0.000184689
0.000310885
-0.000208534
-0.000102352
-0.000341457
0.000267149
7.49811e-05
-0.000185333
-7.91003e-05
0.000266897
-0.000187797
0.00026833
-0.000250865
0.000315337
-0.000174189
-0.000141149
-0.00025864
7.58901e-05
7.35843e-05
-0.000275661
-4.67808e-05
-0.000293701
-9.13644e-05
0.000278517
-0.000187153
0.000110283
0.000111011
-8.20006e-05
0.000145629
0.000169709
-0.000284537
0.00027608
8.08817e-06
0.000110889
-0.000259775
2.17961e-06
-9.9246e-05
0.000332416
-0.000231973
-6.93563e-05
0.000263761
-0.000194405
0.000269501
-0.000134121
0.000264209
0.000175949
-6.46866e-05
-0.000189981
-0.000121912
0.000461596
-0.000232618
-0.00022902
0.000256849
0.000204784
-0.000288128
0.000295866
-8.93681e-06
-0.000277845
0.000275661
2.18401e-06
0.000104592
-8.93425e-05
-1.51105e-05
-0.000257685
8.92923e-05
0.000168393
-8.60468e-05
0.000277512
-0.000191465
0.000156661
5.90522e-05
-0.000215713
-7.66083e-05
-0.000181077
0.000278044
-0.000198113
-0.000210344
9.37916e-05
0.000116886
-0.000262865
0.000183765
-0.000287505
5.86322e-05
0.000430158
-0.000173258
7.07327e-05
5.11361e-05
-0.000122146
0.00023118
0.000198983
-0.000257069
0.000180461
9.60439e-05
0.000186103
5.84802e-05
-0.000249568
0.000191348
0.000335677
-0.000122104
-0.000214403
0.000157831
0.000153054
-7.39763e-05
-0.000183093
-0.00028416
-8.1892e-05
0.000365425
0.000174212
-0.000110771
-7.69762e-05
0.000265195
-0.000189539
2.2118e-05
-0.000183003
0.000230833
5.09607e-06
0.000156771
-5.19138e-05
-0.000347431
0.000198256
0.00014711
0.000200985
-0.000270341
0.000187878
-0.000208203
1.99403e-05
-0.000175497
-0.00016859
-9.17713e-06
0.00021047
-0.000200835
-9.92229e-05
0.000160528
-2.55361e-05
0.000257797
-0.000232261
-0.000142073
0.000300749
-7.55501e-05
0.000314616
-0.000238297
0.000176793
0.000103208
0.000230861
7.81203e-06
-0.000238673
-0.000224008
0.000288977
-5.92237e-05
-0.000267414
-0.000268835
0.000231375
3.73158e-05
0.000117424
8.73291e-06
0.000115334
2.07311e-06
8.53896e-05
-0.000221989
0.000137081
0.000205429
0.000109716
-2.63481e-05
0.000257209
0.000242382
-9.49896e-05
-0.000147072
-0.000252617
2.32401e-06
-0.000145739
0.00018833
-4.37286e-05
-0.000194498
-0.000171998
-0.000101023
0.000316157
-0.000214565
0.00031696
-1.10367e-06
-0.000197696
-8.49677e-05
-0.000118141
0.000188647
-7.07047e-05
8.58295e-05
0.000243931
-0.000330991
-8.86769e-05
0.000268681
-0.000179826
-0.000163636
0.000290801
-0.000128116
-0.000166858
0.000288351
0.000303922
-4.68609e-05
-0.000127494
0.000210045
-6.74523e-05
0.000249677
-0.000182225
-7.304e-05
-0.000238483
0.000308355
0.000127785
-0.000283389
5.44602e-05
0.000228929
-8.82283e-05
-0.000161421
0.000249649
0.000357351
-0.000215948
-0.000252897
0.000185445
0.000110015
5.10314e-06
0.000277887
-0.000219646
-5.80435e-05
0.000113572
-3.45582e-06
-6.71163e-05
-0.000185781
0.000266191
-6.2115e-05
4.72799e-05
-0.000274875
0.00022625
-3.41041e-05
-0.000249285
-0.000217737
-8.10035e-05
0.000293839
-0.000246637
0.000251553
-6.38402e-05
-0.000187713
0.000184437
0.000310391
-4.20272e-05
-0.000243211
0.000235394
-0.000316503
0.00031565
-0.00030417
0.000228286
7.45309e-05
6.93283e-05
-0.000289689
-0.000192115
0.000258106
-0.00020706
1.08065e-05
0.000198631
-0.000228007
-8.77294e-05
0.000314973
-0.000250769
0.000186929
0.000272307
-5.68277e-05
0.000315337
-0.000138545
0.000272021
-0.000191073
0.000119692
-6.55483e-05
-0.000185221
-0.000251833
0.000177857
-0.000267793
0.000195553
-0.000241165
0.000176849
-0.000277767
-1.67389e-05
-5.92954e-05
0.000170701
-0.00011168
-0.000247021
0.000167566
7.91663e-05
0.000187685
-0.000253233
-0.000261549
0.000174161
-0.000136536
0.000210609
-7.51926e-05
-9.80621e-05
-0.000136583
0.000234041
0.000286553
-0.00012614
-0.000160413
-0.000267933
0.000182953
-0.000131161
0.000213412
6.35293e-05
-0.000277094
-0.00024689
0.000419387
-0.000172509
-0.000111925
0.000292675
-0.000180145
-7.76723e-05
0.000251133
-0.000173461
-0.000100012
-0.000142164
0.000241055
-1.0053e-05
0.000120998
0.000168981
0.000109312
-0.000278293
0.000191237
-0.000262381
7.11479e-05
-1.41051e-05
-0.000203315
0.00021742
-0.000265319
0.000299239
-3.39135e-05
-0.000213893
-9.04684e-05
-0.000203417
0.000324951
-0.00044405
0.000192116
0.000252919
-0.000240689
-7.94643e-05
0.000273701
-0.000180545
0.000201325
-2.30194e-05
-0.000179541
-6.92771e-05
-0.000113078
0.000183726
0.000177633
-0.000213126
-6.62455e-05
0.000279371
-0.000192025
-8.42523e-05
0.000276277
0.000115949
2.57712e-06
0.000116806
-9.28863e-07
3.48601e-05
0.000241781
-0.000109021
-0.000193072
-0.000276725
0.000188189
-0.000123559
0.000217177
-4.85737e-06
-0.000199277
-0.000189617
-7.87923e-05
0.000268409
5.17297e-05
0.000113291
-0.000165302
0.000102236
-3.15319e-05
0.000198802
-0.000216117
-2.40272e-07
-0.000273845
0.000284889
-1.0654e-05
-0.000173825
-0.000143305
-0.00020169
0.000296426
-9.47356e-05
-0.000124815
-0.000172266
0.000296994
-0.000128493
0.000305677
-1.30537e-05
0.000243923
-0.000230869
-0.000250791
3.76657e-05
-7.1818e-05
0.000158834
0.000108295
0.00023432
-0.000345005
0.000182953
-0.000110417
-0.000172995
0.000283995
0.000106675
-8.25366e-05
-2.41019e-05
-3.35799e-05
0.00021319
0.000111426
-6.20088e-05
-0.000186845
-8.92083e-05
6.25595e-05
8.82073e-05
-0.000234423
0.000165009
7.013e-05
-0.000131964
-0.000185424
0.000316787
0.000114559
-0.000155618
4.10152e-05
-7.23531e-05
-0.000129841
0.000198748
3.2181e-05
-0.000262118
0.000100694
0.000202955
-0.000351808
9.07835e-05
0.000260976
0.000148843
-0.000274204
0.000125785
0.000182108
-3.72818e-05
8.80425e-05
-0.00029999
-0.000109404
-0.000102156
0.000180769
-0.000179377
0.000424668
-0.00024566
7.72303e-05
0.000178924
-0.000255615
-0.000151509
0.000293329
-0.000141821
9.1292e-05
-0.00033516
1.53977e-06
-0.000219791
7.34408e-05
-0.000309704
0.000237238
-8.36531e-05
0.000321747
0.000257461
7.0169e-05
-5.68988e-05
-7.51768e-05
0.000131751
-0.000133105
-0.000114437
-0.000129053
-0.000231729
-4.61162e-05
-0.000212867
0.000439368
-0.000226493
0.000110859
6.07319e-06
0.000112295
-1.49903e-06
-0.000176425
-0.000183456
0.000306329
-0.000122714
0.000118609
-6.87413e-05
0.000242061
-0.000293077
5.10162e-05
-0.000219553
-7.64741e-05
0.000296175
6.78443e-05
0.000189953
-0.000133353
0.000184112
-5.13822e-05
0.00014264
0.000192004
-0.00025121
0.000391945
-0.000140076
0.000266884
4.48283e-05
0.000123927
-0.000208876
-0.000141412
0.00018101
0.000113724
-0.000297093
-5.25282e-05
0.000280589
-4.60529e-05
0.000321139
-0.000131292
-0.000204634
0.000335
0.000272454
-3.97267e-05
-3.77395e-05
-0.00010022
-3.50408e-05
-9.18379e-05
0.000187265
-0.000194694
-0.000153818
0.00024798
-0.000315061
0.000284621
-0.00012796
0.000213739
0.000107201
-6.90397e-05
-0.000167134
0.000237053
0.000201047
-0.000126761
-7.38512e-05
4.30473e-05
-0.000297027
-0.000133421
-0.000248157
0.000280494
-3.27277e-05
-0.000211844
0.000203266
-0.000204597
0.000273925
-0.000175909
-0.000136331
-0.00023175
-5.46237e-05
-7.46708e-05
-0.000145196
0.000219228
-0.000176593
-0.000124366
0.000300945
-0.00014489
9.53595e-05
4.97521e-05
-0.000188693
0.000247745
-0.000314415
0.000314409
0.000181609
0.000158481
0.000365222
-3.24817e-05
-0.000332989
-0.000308761
0.00017532
0.000133441
7.65243e-05
0.000190373
-0.000104313
0.000343817
-0.00023896
-0.000246489
-1.97078e-06
0.000258022
-2.12816e-05
7.59083e-05
0.000187853
-0.000337455
0.00010742
0.000230149
-0.000191752
-7.18154e-05
-0.000175254
0.000249791
-7.4536e-05
7.46642e-05
0.000240211
-0.000251214
-1.0928e-06
0.000252204
-4.92388e-05
-0.000232229
0.000235864
1.63465e-05
-0.000112754
0.00019803
-0.00018013
-0.000170439
0.000347906
0.000160051
-0.000342563
-0.000159609
0.000311496
-0.000152195
-0.000290313
0.000115057
-0.000250028
-0.000150283
-0.000172821
0.000323565
0.000206849
-0.000269502
-0.000201412
5.48242e-05
-0.000232289
0.000177465
0.000205418
-2.88896e-07
-5.55808e-05
-0.000162514
-8.56589e-05
0.00030112
-0.000101996
0.000283081
-0.000179801
2.65137e-05
-0.000173174
-0.000112218
-0.00010199
0.000185025
-0.000263621
7.85963e-05
-0.000266676
-4.77441e-05
-7.56003e-05
-0.000177017
0.000252617
0.000236963
7.52536e-05
-0.00031138
-0.000192648
-0.000160461
8.58687e-05
0.000209097
-0.000296709
-0.000166779
-8.73014e-05
0.000254132
0.000357349
-0.000189352
-0.000167998
0.00023615
-4.48993e-05
-0.000171109
-0.000145097
6.81243e-05
-0.000257825
0.000189701
-0.000141895
0.000411664
-0.000269528
0.000262843
-5.61966e-05
-0.000206046
0.000108607
8.17356e-06
0.000298817
-0.000169315
-0.000129365
0.000258344
-0.000291075
3.30071e-05
0.000179789
-0.000257461
0.000113519
0.000226884
0.000111302
-2.87507e-06
0.000235269
0.000297639
-0.000288729
-8.91589e-06
-8.75841e-05
-0.000143449
0.000231395
-0.000176318
0.000253255
-6.87583e-05
0.000137896
-0.000278377
0.000187013
0.000259086
-0.000257515
-1.57025e-06
-6.45963e-05
0.000245113
-0.000180517
0.000181801
-0.000247476
0.000353342
-0.00013004
-0.000223302
-7.94401e-05
0.000290551
0.000269753
-0.000258245
-1.1508e-05
-0.000183989
0.000182869
-0.000247465
-0.00027737
0.000191324
0.000254421
4.36315e-06
0.000137236
0.000124342
-0.000261386
6.70547e-05
-0.000249919
0.000183496
-0.000222629
0.000134401
0.000272469
-3.04081e-05
0.000121315
-0.00024376
0.000122303
-0.000114924
0.000252884
-0.000185669
-9.50168e-05
0.000280722
4.36856e-05
-0.000181612
-0.000143875
-4.17774e-05
-0.000151688
9.22172e-05
-0.000121661
0.000239796
-0.000116731
-4.51838e-05
-0.000266792
0.000267891
5.85981e-05
-0.00034325
-4.52625e-05
0.000255492
0.000139663
-0.000262657
0.000123988
-0.000240541
-2.47678e-05
9.49176e-05
0.000169174
-0.000264091
-5.34631e-05
-0.000253127
0.000332645
-9.67285e-05
-0.000235515
-5.59463e-05
-0.000232759
1.34414e-05
0.000255111
-9.4447e-05
-0.000135457
0.000227623
-0.000118759
0.000266651
0.000195141
8.80076e-05
-0.000282919
4.58221e-05
-0.000306102
0.000259195
0.000181099
-0.000310499
-0.000216311
0.000281952
-6.55179e-05
-0.000163914
0.000210702
0.00025744
-0.000203788
-2.94027e-05
-0.000262045
8.08431e-05
-0.00032073
0.00023939
-0.000232623
-0.000125818
0.000209595
0.000143747
-0.000309637
0.000174102
8.4696e-05
-0.000188668
8.21037e-05
0.000260206
-0.000112461
0.000196689
6.84673e-05
0.000209088
-0.000431779
0.000198987
0.000248853
0.000143765
9.54811e-05
0.000198902
-0.00023038
-7.83807e-05
0.000364851
-0.000194111
-5.29802e-05
0.000246861
-6.24402e-05
0.000276669
-0.000119365
-2.86397e-05
0.000148594
-0.000235951
-0.000116929
7.95483e-05
-0.000264405
0.000184857
0.000252058
-7.35665e-05
9.00911e-05
9.9857e-05
-0.000186975
-0.000225979
-0.000125829
0.00015793
-0.000291338
0.000136201
-0.000184017
0.000172182
-0.000186287
0.000151863
-0.0002883
0.000135398
3.13545e-06
-0.000244844
0.000244602
-0.000117732
-0.000175046
0.000291841
-0.000178076
9.08972e-05
-9.05829e-05
0.000182393
-0.000309326
4.6641e-05
0.000262926
-7.60443e-05
0.000344963
-0.000270341
0.000105883
0.000271562
-4.54469e-05
-0.000253026
-0.00020247
0.000202642
-0.000184766
-0.000134237
-0.000108327
-0.000218316
0.000329689
-6.00637e-05
0.000335384
-0.000274085
-0.000192938
0.000102668
-0.000126778
-0.000107933
0.000162098
-0.000312796
0.000150826
-0.000113586
0.000347123
-0.000129163
0.000210616
-8.17921e-05
0.000332253
-6.67664e-05
-0.000266356
0.000326011
-0.000232911
-9.36899e-05
-0.000182456
0.000433212
-0.000250085
0.000125483
0.000275161
-0.00039911
-6.09009e-05
-0.000147755
-0.000222623
0.000138148
0.000334225
1.17402e-05
-0.000346157
0.000155642
0.000144509
4.19775e-05
0.000283471
-2.79743e-05
-0.000289083
0.000247081
-0.000203866
-6.33735e-05
-0.0002406
0.000304612
-0.000212962
0.000101677
-0.000223265
0.00027003
0.000124823
-0.000394628
0.000172578
-0.000157819
2.75097e-05
-0.000125563
-0.000210779
0.000337422
-0.000150474
-7.31515e-06
-0.000108307
-0.000199895
-0.000174565
-0.000162065
0.000273181
-5.98334e-05
0.000204411
-0.000328727
0.000232162
4.03766e-05
-0.000272228
4.91357e-05
-0.000108601
0.000206251
0.000165364
-0.000326415
0.00016183
7.93685e-05
0.000226891
0.000254689
-0.000199865
5.55335e-05
-0.000185862
0.000127845
-0.000281737
7.71403e-05
-0.000220085
0.000131643
0.000159663
-0.000320945
0.000162468
-0.000246859
0.000318079
0.000160665
-0.000274344
0.000148743
0.000146245
0.000140309
-0.000194112
-8.21444e-05
-0.000335717
0.000194404
-0.000127755
0.000397459
0.00025114
-0.00028039
0.000270296
-0.00039791
7.86236e-05
-0.000191927
0.000204268
-0.000100064
0.000413763
-0.000131821
-0.000282899
0.000274047
-0.000149755
-0.000419092
0.000172192
5.76156e-05
4.71375e-05
8.81163e-05
-0.000283893
8.91003e-05
-0.000231469
-0.000291089
0.000101108
-0.000133162
-0.00026534
0.00039751
8.89283e-05
0.000182757
-0.000271685
-0.000192025
0.000295477
1.48526e-05
-0.000310136
-0.000225066
0.000127754
-0.000293523
0.000129467
-0.000127369
-0.000208596
0.000335161
0.000239131
-0.000176751
-6.20439e-05
-4.61849e-05
0.000308931
-0.000262484
-0.000264377
0.000150306
-0.000266416
0.000128762
0.000237275
-0.000160011
-7.97218e-05
0.000207952
-0.000336131
-0.000284626
6.69394e-06
0.000225315
-9.05162e-05
6.69465e-06
-0.000250148
0.000243331
-0.000148389
1.43033e-05
-0.000111538
0.000186371
-0.000316228
0.000239989
-6.93022e-05
-0.000247805
-0.000185025
-0.000111601
8.3549e-08
-0.000101294
0.000318906
3.4989e-06
0.000396208
0.000223941
-0.000192566
-4.09922e-05
0.000269949
-0.000150039
0.000220981
0.000264346
-0.00016854
-9.58028e-05
-5.7958e-05
0.000300252
0.000268708
-0.000280001
0.000146052
-0.000234415
-0.000101574
-0.000235485
-0.000160294
0.000243245
-0.000292911
0.000103446
0.000189366
0.000168715
-0.000366062
0.000196709
-0.000158194
0.000239782
-2.79711e-05
0.000260322
-0.000366925
0.000218641
0.000148414
0.000163118
-0.000368089
0.000205253
0.000268362
7.13721e-05
-0.000339007
-6.51821e-05
0.000332432
-0.000337464
0.000251232
8.52752e-05
0.000143265
-9.18466e-05
-9.05404e-05
-0.000230011
-0.00024693
0.000171751
0.00015796
-0.000374937
0.000217865
-7.62406e-05
-0.000109211
0.000185747
-0.000140282
-0.000226522
-0.000162642
4.42842e-05
9.03003e-05
0.000179593
-0.000269893
-9.28204e-05
-0.000177241
0.000270061
0.00022329
-0.000402827
-0.000258301
8.42803e-05
-9.54741e-05
0.000291461
-0.000439959
0.000227139
-2.00385e-05
0.000226875
-6.97916e-05
0.000230699
-0.000161606
-0.00011006
-9.63109e-07
0.000109098
-0.000201472
9.02911e-05
0.000167123
-0.000325737
3.55959e-06
2.66188e-05
-0.000246115
-0.000235885
4.23479e-06
0.000130833
0.000125473
-0.000257098
-0.000281246
0.000134156
-0.000258807
6.47036e-05
7.02341e-05
-0.000229381
0.000160411
-0.000196542
0.000326926
0.000285561
-0.000159947
0.000263649
-0.000249621
-0.000112087
-0.000232282
0.000344805
-0.000177841
0.0003363
0.000130176
-0.000327799
-0.000228344
-8.79991e-05
0.000314848
-0.000307205
0.000225021
-0.000352765
0.000131241
-0.000185976
0.000316047
3.62321e-05
0.000194265
-0.000230497
-0.000325604
0.000138623
-0.000244572
4.99018e-05
-0.000315982
0.000241358
-0.000200369
-0.00013794
-0.000102868
0.00028176
-0.000178913
-0.000155098
-0.000162005
0.000317453
-0.000310403
0.000239951
0.000178949
-0.000277845
-0.000245813
2.94449e-05
0.000216961
0.00018289
-0.00033778
-0.000298007
0.000234908
-2.03818e-05
-0.000127178
0.000147566
2.58151e-05
-0.00025679
0.000230576
-0.000114735
1.77723e-06
-1.71278e-06
-0.000346962
0.000237422
-0.000228146
-0.000171052
0.000365482
-0.000195179
-0.000325213
8.89644e-05
-0.000275332
5.8296e-06
0.000335095
-0.000301517
0.000182746
-0.000235204
0.00013723
-0.000389908
0.00025205
-9.34364e-05
-0.000183205
6.10611e-05
0.000196319
-0.000346518
0.000234988
-8.76782e-05
0.000124265
0.000301416
-0.000145681
0.000219395
-9.97612e-05
0.000173772
-0.000282017
0.000194993
8.70243e-05
0.000257517
1.74441e-05
-0.000274961
0.000179019
8.40288e-05
-0.000207019
-7.17447e-05
0.000278763
-0.000171411
-0.000180319
0.000234301
-0.000220811
-0.00018937
-0.000116852
3.46612e-06
-2.07945e-06
0.00011911
0.000238238
-0.000312706
-0.000119218
-0.000115416
0.000300441
0.000189873
5.27417e-05
0.000344431
-0.000226366
-0.000119018
-0.000111845
-0.0001816
-0.000130442
0.000332383
-0.000207594
-0.000294144
0.000131652
-0.00028144
-0.000208601
0.000102964
0.000237432
0.000180502
-0.000283379
0.000134648
-0.00026425
0.00014176
0.000121105
2.76921e-05
-0.000216385
0.000139821
0.0001288
-0.000268512
-8.94414e-05
0.000269982
-0.000103423
2.41897e-05
7.93983e-05
-0.000124146
-0.000207503
-2.81e-05
0.000313713
-0.000144733
-0.00029545
0.000113492
0.000179089
-0.000274065
9.71607e-05
0.000176904
0.000202049
-0.000190821
-9.22043e-05
-0.000181861
0.000188622
-0.000278054
-0.000414662
0.000273203
0.000186399
0.000196981