/*--------------------------------*- C++ -*----------------------------------*\
  =========                 |
  \\      /  F ield         | OpenFOAM: The Open Source CFD Toolbox
   \\    /   O peration     | Website:  https://openfoam.org
    \\  /    A nd           | Version:  12
     \\/     M anipulation  |
\*---------------------------------------------------------------------------*/
FoamFile
{
    format      ascii;
    class       volScalarField;
    location    "10";
    object      T;
}
// * * * * * * * * * * * * * * * * * * * * * * * * * * * * * * * * * * * * * //

dimensions      [0 0 0 1 0 0 0];

internalField   nonuniform List<scalar> 
22702
(
1
1
0.95823
1
1.01791
1
1.12044
1
1
0.871763
1.12071
1.1203
1
1.11856
0.965744
1
1
1
1.12016
1
1.11878
1
1.11948
0.900032
1.11915
0.889976
1
1.12006
0.890245
0.898984
1
1.11998
1
1
1
1.11069
1.1197
1.11968
1
1
0.860136
1
1.06121
1
1.12022
1
1
1
1
0.894148
1
0.896725
1
1.12062
1
1.12024
1
1
1
1
0.89627
1
1
0.90357
1
0.901599
1
1
1
0.8776
1
1.11874
1.07582
1
1.1187
1.12515
0.893955
1.1192
0.897841
1
1.12016
0.895213
1.12013
1.12004
1
1
1
1
0.980249
0.875571
1.12138
1
1
0.893685
1
1.11869
0.892281
1
1
1
1
1.06112
1.12009
0.888219
1
1
1.03164
1
0.895696
1
1.11927
1.12106
1
1
0.891481
0.890402
0.874926
1
1
1
1
1
0.97565
1
1.10278
1.01434
1.11921
1
1.1195
1.12024
1.11874
1.12134
1
0.877842
1
0.901385
1
1
1
1
1.1208
1
1
1
1
1.11843
1
1.00774
1
1
1
1
0.893424
1
1.0031
1
0.898712
1
1
1
1.12105
1
1.11878
0.886771
0.889285
1.11898
1.11889
1
1.02365
1.07188
1
1.12074
0.898146
1.11086
1
1
1
1
1.1185
1.09532
1
1.12067
0.911651
1.12045
1
0.89294
1
0.895619
0.884881
0.99994
1
1
1.11964
1
1
1.11836
1
1.11982
1.12056
0.897167
1
1
0.898901
1.11844
1
1
1
1.11846
1
0.892268
1
1
1.11868
1.11842
1.11942
1
1.00001
1
1
1
1.1186
1
0.907777
1.12359
1.11837
1.1189
1
1
1
0.893486
1.1183
1.06034
1
1.11895
0.903436
0.900645
1.11898
1.11802
1
1.11989
0.8858
1.10625
1
1
1
1
1.11856
1
1.07203
1.01203
1
1
1.11849
0.90036
0.934817
1
1.11845
0.881504
1.11967
1
1
1
1
1
1
1
0.892884
0.932771
0.901672
1.11857
1
1
1
1
1.10791
1
0.896477
1
0.890345
0.899042
1.11866
0.901805
1.11874
1
1
1
0.999281
0.892583
0.881916
1
1
0.88889
1
1.12025
0.88369
1
1
1.12026
0.880613
1
1.11817
0.893745
1.11847
1
0.891789
0.999323
1
1
1
0.897818
1
1
1
1
1.00333
1.0758
1
0.897073
1
1
1
1
1
1
1
1.1206
1
1.11949
1
1
1
0.885096
1
1.11841
0.902012
1
1.09563
1
1
1.12119
1
1
1
1.11913
1
1
1.11663
1.1214
1
1.02882
1
1
0.900753
1
1
1
0.900361
1
1
1
1
0.890578
1
1
1
1
1
0.877615
1.00002
1.11877
1
0.999998
1.11879
1.11914
1
1
0.900124
0.945059
1.12098
1
1
1
1.11834
0.875998
1
1.1187
1
1
0.912262
0.914306
1
0.896555
0.887664
1
1
1
1
1
1
1
1.11925
1.03237
1.1128
0.880418
0.972916
1.12054
1
1.11866
1.12111
0.901349
0.935205
1
0.892471
1
1.12364
1
1
1
1
1.11845
1
1
1
1
1
1
1
1.04659
1.12057
1
1.11863
1
1
0.897775
1
1
1
1
1.11846
1.0923
1
1
0.897191
1.11846
1.11861
1
1.11876
1.11838
1.11847
1
0.951708
1
1.11865
0.998622
1.11849
1
0.901164
0.999653
1.12019
1
1
1
1
0.894724
1.11837
1.10868
1
1.11808
1.1184
1.12024
1
1.05999
1.11892
1
1
1.08551
1.01777
1.11846
0.981887
1.11838
1
1.11836
1.11872
1.11836
1.11858
1
1.11755
0.976447
0.968393
1
1
1
1
1.11835
1
1
1
1
1
1.12028
1
1
0.998858
1.11857
1.1042
1
1.09978
1.00001
1
1
1.11871
1
0.99919
1.00131
1
1.1187
1
1.11863
1
1
1.09034
1
1.11873
1.00001
1
1.11903
1
1.11847
1
1
1
1.11841
1
1.11804
1
1.11854
1.12005
1.1184
1.11952
1
1.12132
1.11564
1
0.898655
1.11201
1.08664
1
1.11838
1
0.900942
0.896779
1
1
1
1
1
0.890054
1
1.11859
1.03308
1.11867
1
1
1
1
1
1.1186
1
1.11847
1.07307
0.935056
1
1
1.03707
1.03253
1
1
1.04499
1
0.900196
1.11876
1.11874
1
1
1
1.11959
1
1.00001
1.11913
1.11855
0.987278
1
1
0.896466
1.10848
1
1
1
1
1
1.1185
1.12126
1
1.11908
1.11811
1.11849
1
1
1
1
0.881066
1.12126
1
1
1.10859
1.11844
1
1.1121
1.12041
1
1
1
1
1
1.11879
1
1
1
1
1.11737
1
1.11663
0.892693
1
0.892744
1
1
1
0.999137
0.892708
0.999727
1
1
1
1.01889
1
1
0.961389
1
1
1
1
1
1
1
0.999999
0.981138
1
1
0.9993
1
0.896066
1
1
1
1
1.09069
1
1
1
1
0.902602
1
1
1.11229
1.12088
1
1
1
0.968824
1
1
1
1
1
1
0.986559
1.00293
1.11846
1
1
1
1.11807
0.967964
1
1
1
1.1201
1.11938
1
1
1
1
1
1
1
1
1
0.886455
1
1
1.11925
0.89319
1
1.11883
1
0.895519
1
1
0.887354
1
1
1
1
1
1
1
1.11652
1.11844
1
1
1
1
1.10893
1
1.04183
0.896232
1
1
1
1
1
1
1
1.01212
1
1
1.06393
1
1
1
1.09937
1
1
1
1
0.886526
1
1
0.880103
0.889031
1
1
1.11849
1
1.00559
1
1
1
1.086
0.891456
1
0.889649
1
0.935217
1
1
1
1.11911
1
1
1.1185
1
1
1
1.11856
1
1
1.11891
1
1
0.901148
1
1.04177
1
1
1.12105
1.12034
1.08234
1.10723
1
0.900675
1
1
1.11369
1
0.88566
1
1
1
1.11844
1
1
1
1
1.07357
1
1.11303
1.11945
0.886745
1
1
0.895081
0.896178
1
1
1
1.0873
1.09199
1
1
1
1
1
1
1
1.05255
1.12067
1.00128
1
1.11736
0.881261
1
1
1
1.06893
1
1.02536
1
1.10889
1.11801
1
0.901329
1
1.12053
1
1
1.11868
1.1118
1
1.12201
1
0.910872
1
1
1
1.1166
1.11646
1.10535
1
1.11968
1.11829
1
1.11858
1
1.118
1
0.880802
0.99361
0.883133
1
1
1
1
1
1.11857
1
1.11845
1
1
1
1.11324
1
0.900944
1.11837
1
0.890022
0.900325
0.896104
1
1.06269
1.01362
1.11893
1.11837
1
1
1
1
1.11849
1
1
1.11856
1.11842
1
1.04538
1.00002
1
0.999064
1.12053
0.956352
1
0.946808
0.900094
0.899575
0.989007
1.11924
1.11691
1.02513
1.11881
1.11852
1
1
1.12007
1.11928
1.11862
1.12169
1
1.11853
0.885737
1.11857
1.11913
1.11869
1.11887
0.962142
0.968017
0.978151
1.1189
0.990135
1.11909
1
1
1.11892
1.11837
1
0.892667
1.11968
1.11857
1
1.11837
1.11843
1
1.11836
0.895824
1.11877
1.12028
1.1215
1.12012
1
1
1
1.11863
1.08023
0.899983
1.11859
0.880988
1.11859
1
1
1
1
1.11811
1.11872
1
1
1.11853
0.883218
1.11854
0.897949
1
1.11778
1
0.867866
1.11904
0.918723
1
1.11837
1.11928
1.1188
1
1
1.06125
1.11896
0.894545
1.11853
1
1.11824
0.962711
1.1187
0.889607
1
1.11873
0.906273
1.11889
0.897832
1
1.11845
1
1.11981
1
1.07279
1.1146
1.09522
0.891076
1
1.11875
1
1.11844
1
1.11867
1
1
1.11885
0.995801
1.11909
0.879302
1.10961
1
1.08741
1
1.11922
1.1186
1.1191
1
1.1075
1.11875
1.11066
1.07445
1.11747
1
1.08203
1
1.11882
1
1.02079
1
1.11045
1
1.11835
1.11352
1.11339
1
1.11735
0.89207
1
0.896344
1
1
1
1.11991
1
1.11876
1
1
1
1.11861
1.11439
1.10064
1.1183
1.11812
0.889537
1.12117
1.12099
1
1.10164
1.11857
1.11556
1
1.12067
1.12039
1
1.119
1.11859
1.11876
1.11886
1
1
1
1.11843
0.890307
1
1.1185
1
1
0.899013
1
1
1.11844
1.11858
1
1.11858
1.11677
1.11853
0.99382
1.11861
1
1.1186
1.11852
1.09823
1
1
1
1.11813
1.1185
1.11846
0.986421
1
1.12118
1.11848
1.11841
1
1.11851
1.11875
1.11841
1.12139
1
1.11866
1.11798
1.10594
1.11857
1.12085
1
1.11797
1.11736
1.11847
1.1186
1.11879
0.890376
1.11867
1.11837
1
1.11847
1.11849
1.11855
1.1186
1
1.11857
1.11859
1
1.11875
1.1016
1
1
1
1.11837
1.1209
1
1
1.06822
1
1.11871
1
1
1.11851
1.11895
1.11855
1.11851
1
1
1
1.08784
1
1.11855
1
1
1.12017
1.12045
1
1.11858
0.875728
1.11836
1.11845
0.911168
1
0.883063
1.10602
1.11875
1.11819
1.11804
0.895337
1.11884
1.11879
0.895605
0.880688
1
1.11837
1.11867
1
1
1.11851
1
1.11959
1
1.10488
1
1.05957
1.11856
1.1193
1.08749
1.10789
1.12031
1.11888
1.11565
1
0.882017
1.11812
1.11863
1.11933
1
1
1
1.11987
1
1.11869
1.11879
0.928363
1
1.11865
0.999984
1
1.00001
1.00001
1.11869
1.11815
0.999555
1
1
1.11852
1.11896
1.1187
1.11824
1.11908
0.894264
1.10612
1
1.11781
1.11861
1.11868
1.11757
1
1.1186
1.11556
1.11882
1
1.11867
1.11853
0.959659
1.11858
1.11874
1
1.11857
0.954254
1.11836
0.959062
1.11855
1
1.1186
1.1232
1.11859
1.11866
1.1186
1.11944
1.11873
1.11893
1
0.980802
1.11855
1.11849
0.956336
1.11856
0.992915
1.07611
1.1186
1.11872
1.1183
1
1.1191
1.08035
1.11816
0.979396
1.119
1.11992
1
0.961916
1
1.11912
1
1.08392
1
1.11101
0.962212
1
1.11833
1.11675
1
1.11861
1.11897
1.1162
1.11561
1.11668
1
1.12052
1
1
1
0.96923
1.11844
1.1186
1.11937
1.11861
1.12018
1.11974
1.11701
1.11874
0.97029
1.00895
1
1
1.12314
1.11867
1.11849
1.11848
1.00001
1.0644
1
1.11888
1.10683
1
1
0.915483
1.1185
1
1
0.887365
1.11847
1
1.12109
1.11862
1.12045
1.11433
1.1186
1
0.889757
1.03126
1.1188
1.11854
1
1.11862
1.11841
1.06144
1.00302
1.02896
1
1.12005
1.11846
1
1
0.896516
1
1
1.11861
1.11856
1.11842
1.11853
1.11843
1.11936
1.11883
1.1181
1.11871
1
0.998898
1.11847
1.11846
0.999129
1.11845
1.11845
0.89517
0.882047
1.11916
1.12018
1
1
1.00039
1.11868
1.11888
1.11848
1
1.11846
1
0.958915
1.11938
1.11933
1
1.05756
1.11881
1
1.11972
1
1.1187
1.08176
1.11858
1
1.11832
1.12032
0.895307
1.11846
1
1.1182
1.12038
1
0.893754
1.11744
1.10186
0.99933
1.11417
1.11848
1
1.00008
1.11899
0.999437
1.11846
1
1
1.11836
1
1.11789
1.1184
0.998959
1.09694
1
1.11841
1
1
1
1
1.11847
1
1
1.116
1
1.11835
1
1.07862
1.11845
1.11844
1
1
0.999788
1
1.11854
1.11845
1.11833
1.11851
1.1186
1.11862
1.11846
1
1.11862
1.1186
1
1.1185
1.11866
1
1.11889
0.980658
1.01668
1.11854
1.11867
1.11871
1
1.1185
1
1.11853
1.1186
1
1.11883
1
1
1
1
1.1187
0.892153
0.999378
1
1.11832
1.1206
1
1.11856
1
1.00138
0.886162
1.11867
0.999895
1
1.11829
0.999528
1.11839
1
0.999936
1
1.118
1.11785
1.11859
1.12026
0.890829
1.11847
1.11817
1.11879
1.03191
1
1
1.05369
1.11843
0.886784
0.890034
1
1.11839
1.11851
1.11908
1
1
1.11824
1.11872
0.999969
1
1.08836
0.877585
1
1.02169
1.12014
1.11815
0.999498
1.11848
1.12139
1
0.999712
1
1.11914
1.12022
1.05021
1
1.11378
1
1.00067
1.11883
0.864477
1.11869
1.11852
0.999137
0.999976
1.10813
1
0.999915
1
1.11839
1
1
0.876463
1.11859
1
1
1
1
1.11786
1.06984
1
1
0.886363
1.1186
1.07016
1
1
1
1.11364
1.11623
1.11892
1
1
1.11997
1
1.1187
1.11849
1
1
1.11908
1.11847
1.11514
1
1
1.11898
1.11938
1
1
1
1.11889
1
1
1
1.1192
1.11965
1.11942
1
1.11821
1.00001
0.901387
1.11877
1.11886
1
1.11982
1.11303
1.12
1
1
1.11909
1
1.06556
1.11812
1
0.896974
1
1.11922
1
1
1.11766
1
1
1
1.03991
1.11796
0.896056
1
1.11896
1
1
1.11852
1
1.11903
1
1
1.11867
1.11865
1
1.00001
1
1
1
1
1
1
1.11999
1.11852
1
1.12093
0.894388
1.12023
1
1.1183
1.11867
1.11855
1.11725
1.12234
1
1
1.11751
1
1.07787
1.11947
1.11856
1
1.11939
1.117
1
1.10718
1
1.11845
1.08039
1.11814
0.999302
1.11675
1.10892
1.11893
1.11878
1.01028
1.11856
1.11937
1
1.11849
1
1.11865
1
1
1
1
0.99897
1.11849
1.1187
1.09927
1
1.11855
1
1
1
0.890903
1
1.11611
1
1.1088
1.11534
1
1
1
1.11214
1.12006
1
1
1.11863
0.888749
1.02078
1
1.11905
1.1186
1.10923
1.11613
1.11844
1
1.11836
1
1
1
1
1.11835
1.11846
1
1.11745
1.01266
1.11837
1.11147
1
1
1.11182
1
1
0.906279
1.08605
1
1
1.12005
1
1.11939
1.10911
1
1.10885
0.888727
1.11869
1.11866
1.11885
1
0.905211
1
1
1
1.11865
1.09954
1
1.11742
1.11839
1
1.11857
1
1
1
1
1.11844
0.999827
1
1.1192
1
1
1.11974
1.1186
1
1.11918
1.02531
1.00001
1
1.11867
1
1.11862
1
1.00405
1.11866
1
1.11856
1
1
1.04183
1.11892
1
1
1
1
1
0.998955
0.894106
0.887867
1.0057
1
1.00822
1
1.01026
1
1.11863
1
1.07548
1
1.11859
1
1
1
1.11859
1
1.09948
1.11829
1
1.06717
1.11862
1
1
1.11968
1.1186
1
1
1.01572
0.89278
1
1.11912
1
1
1
1
1.02127
1.11865
1
1
1
0.901451
1
1.11867
1.11857
1.12192
1
1
1
1
1.06209
1.12105
1
1
1
1.11868
1.11855
1.01592
1
1
1
1.11885
1.11857
1
0.895384
1.1186
1.11861
1.1186
1.11884
1.11922
1
1
1.11917
1.118
1.11843
0.901
1.0113
1.11863
1
1
1
1
1
1.11842
0.888953
1
1
1.11833
1.05531
1
1.11955
1
1
1
0.891827
1
1
1.03369
1.11863
1.11848
1
1.11948
1.11986
1
1.02264
1
1.1199
1
1.11852
0.889054
1
1
1
1
1.1185
1.00002
1
1
1
1.11365
1
1
1
1
1.11833
0.891218
1.09442
1.119
1
1.11877
1
1
1
0.999178
1
1.11852
1
0.944067
1
1
1.00001
1.11828
0.884934
1
1.11934
1
1.11769
1.11865
0.886165
1
1
1.11523
1
1
0.907928
1
1.12167
1
1.11399
0.999806
1.11888
1
1
1
1
1.12052
1
1
1.11846
1
1
1
1
1
1
1
1
1.07978
1
1.0395
1.11821
1
1
1
0.894264
1
1
1
1
1.11925
1.11843
1.01488
1
1
1.11897
1
1
1.11906
1
1
1
1
1
1
1.11839
0.935079
1.1186
1.1192
0.999161
1
1
1
1.07341
1
1
1.1188
1.11859
1
1
1
1
0.874538
1
1
1
1.07655
1
1.11852
1.11957
1
1.1189
1
1
1
1.06837
1
1.12129
1
1.11859
1
1
0.998925
1.11856
1
1
1
1
1
1.11912
1.00001
1
0.907775
1.11896
0.920724
1
1.1185
1
0.998909
1
1.11898
1.11836
1
1.12094
0.963397
1.11854
1.11973
1.00001
1
1
0.894279
1
1
1
1.11871
1.07266
1.11849
1
1
1
1
0.999075
1.11807
1
0.891945
1
1
1
1
1
1
1
1.12042
1.11834
1.11851
1
1
0.999126
1
0.997172
1
1
1
0.880209
0.994193
1
0.894126
0.894285
1
1.11883
1.11843
1
1.11752
1.11842
0.894563
1.08331
1
1
1
0.89121
1.11884
1
0.891295
1
1.11899
1.02616
1
1
1
1
1.11847
1.11925
1
1
1.11864
1
1
1.12037
1.11866
1
1.11294
1.11842
1.12012
0.989064
1.11824
1.00245
0.892836
1.09331
1.11876
1
1
1
0.877337
1
0.894384
1.11781
0.991671
1.11848
0.98737
1
1.11888
1.05667
1
1
1.1182
1
1.05289
1.11889
1
1
1.11886
1.1181
0.888903
1.07254
0.999968
1
1.07307
1
1.12026
0.98048
1.12064
1.11973
1
1
1
1
1.11811
1
1
1.11848
0.999893
1.11852
1.09754
1.11766
0.896737
1
1
1
1
1.11861
1.00001
1.11861
1
1.11847
1.11911
1.01627
1.1194
1.04096
1.11906
1
1.08337
0.902455
1.12087
1.1187
1.09448
1.02416
1.11905
1.11852
1.11842
1.11857
1
0.979411
1.01918
1
1.11878
1.05974
1.11837
1.00001
1
1
0.910999
1.11963
1.11902
1.09847
1
1.04925
1
1.11942
1.11956
1
1.11814
1.11898
1
1
1
1.11803
1
1.05072
1.11835
1.08535
1
1.1183
1
1
1
1
1
1
1
1
1
1
0.898271
1
1.11396
0.887622
1.07321
0.999582
1.11976
1
1.06721
1
1.07943
1.10392
1
1.0006
1.11812
0.97857
1
1.11842
1.11746
0.979312
1
1.11887
1.11867
1.11924
1
1.1185
1.11837
1.11801
1
1.05685
1
1.00002
1.11849
1
1.11852
1.0184
1.11848
1
1
1.1189
1.11802
0.910701
1
1.11878
1.09199
1.11843
1
1
1.11954
1.11899
0.999494
1
1.10773
0.999158
1.11854
1
1
1
1
1
1.05726
1
1.09353
1.11819
1.09076
1.11885
1
1.00128
1
1
1.12024
1
1.11777
1
1
1
1
1
1
1.01578
1.06508
1
1
0.879918
1
1.11956
0.89058
1.11783
1
1.06292
0.99993
1.11863
1.07868
0.895648
1.06928
1.00001
1.11831
1.11819
1
1.07548
1.11819
1.11824
0.999538
1.11926
1.11578
0.885748
1
1
0.999281
1
1.11877
1
0.897964
1.11872
1
1
1.10557
1
1.11829
1
1.11903
1
0.90388
1
1
1.11827
1.11932
1.12075
1
1.11831
1.11853
1.11977
1
1
1.11628
1
0.920139
1
1
1
1.1191
1
1.11847
1.07936
1.11782
1
1.11859
0.99982
1
1
1
1
1
1
0.913814
1
1
1.11851
1
1.11839
1.11983
1
0.886184
0.892643
1
1.11892
1.02152
0.889118
0.884756
1
1.11805
1
1.11817
0.891232
1.00022
1
1
0.999863
1
1
1
0.999975
1.0531
1.11869
1
1
1.11867
1.07381
1
1.11018
1.11875
1.11871
1.05344
1.11926
1
1.1189
1
1.11805
1
1.11863
1.11889
0.999161
1.11861
1.11889
1
1
1
1
1
0.978885
1.11939
1.00001
1.00001
0.862154
0.999995
0.889149
0.884254
1
1.11873
1.11876
1.11839
1
1.11862
1
0.895297
1
1
1.11784
0.950944
1.11894
1
1.1186
1
0.993728
1.1187
1
1
1
1.11863
1
1.11881
0.888995
1
1
1.07276
1
1
1.069
1
1
1.11865
1
1
1
1
1
1.12024
1.11842
1
1.11916
1.11814
0.887124
1.0573
1.1182
1
1
1.1078
0.999691
1
1
1.11846
1.11781
1.07977
1
1.11855
0.887029
1.11067
0.999894
1
1.11822
1.00001
1.11789
1.10254
1.09291
1
1
1.11851
0.911507
0.87294
1
1.11862
1
1.11875
1
1.07402
1
1
1.11845
1.07889
0.892898
1
0.999575
1
1
1.00736
1.05261
1.11857
1
1.11785
1
1
1
1
1
1
1.019
0.890786
1
1
1.0128
1
1
1
1
1
1.11857
1
1
1.11864
1.11867
1.08722
1
1
1
0.957018
1.11863
1.0856
1
1
1
1
1.11889
1
1
1
1.11891
1
1
1.08843
1.12184
1.01234
0.923859
1.11983
1.08565
1.11914
1
1.06351
1
1
1
0.877961
1.00053
0.851775
1
0.883996
0.881105
1
0.887835
1
1
1
1.05484
1
1.1185
1.11865
1.00024
1.05959
1.10122
0.874251
0.921519
0.969838
1
1.11863
1.12006
1.11859
1.11861
1.10357
0.961785
1
1.10392
1
1.11623
1
1
0.999006
1.00272
1
1
1
1.11919
1
0.880284
1
1.11877
0.906095
1
1
1.11865
1
1.1186
0.999896
1
1
1.11886
1.10394
1
1.12234
1
1
1.00399
1
1.05665
1
1
0.887354
1
1
1.11879
1
1.11833
1
1.00001
0.895616
1
1
0.900668
1.00031
1
1.11965
0.897906
1.11926
0.884002
1.11877
1
1
1
1
1
1
1
1
1
1
1
1.11427
1
1.11919
1.12001
0.890594
1
1
1
1
1
1
1.11571
1
1
0.894806
1
1
1.11994
1
1
1.0496
1.10151
0.885827
0.895159
0.89744
0.925779
1
0.999034
0.863318
1.00016
1.11076
0.999094
1
1
1.11907
1
1
1
0.926882
1
1.04627
1
1
1.05398
1.11862
1
0.883472
1
1
1
0.999004
1
1.11902
1.1186
1
0.88488
1
1.06851
0.890224
1
0.973512
1
0.99883
0.882975
1
1
1
0.998808
0.876385
1
0.882154
0.999544
1.06621
1.1057
0.89122
0.887941
1
0.997128
1
0.999613
1
1.11899
1.1183
1
1.00829
1.11872
1.11884
1
1
1.11862
1
1
1.00001
1
1.11939
1
1
1.00525
1
0.999595
0.895584
1
1
1
1
1
1.1196
1.01189
1.00001
1
1
1
1
1
1.00001
1
0.887224
1.0307
0.999613
1.11872
1.11829
1
1.00406
1.11856
1.10601
1
1
0.879098
1.11863
1
1.11962
1
1.119
1.0863
0.888327
1
0.889683
1.10967
0.999911
1
0.890422
0.880275
1
1
1.10183
1
0.999999
0.883267
1
1
1
1.04071
1
0.8913
1.1185
1
1
1
1
1.1187
1
1
1.11955
1.10714
1
1
1
1.11874
0.887379
1
1.11876
1.11848
1
1.09638
1
1.00001
1
1
1.11116
1.00605
1
0.898308
1.06787
1
1
0.999247
1
1
1.12024
1
1
1.00001
1
1.11882
1
1
1
1
1
1
1
1.05425
1
1.11843
1
1
1.1191
1
1
1
1.11865
1.11927
1.012
1
0.999307
1
1
1
1
1.12044
1
1
1.11861
0.891514
1
1
1
1
1
1
1.09815
1
1
1.1191
1.11903
1
1
1
1.11894
1.11924
1
0.999896
1.11865
1
1
1
1.00001
0.887236
1.00858
0.998906
0.998884
1
1
0.87897
1.1191
1
0.879941
1
1.11823
1.11427
0.885902
0.999825
1.11855
1.11885
1.11907
1
1
0.979027
1.10559
1.10096
0.879916
1
1
1
1.11789
1.11853
0.888062
0.999224
1
1.11865
0.900138
1
1.11781
0.889835
0.99361
1.00174
1
1.12031
1
1
1
1
1
1
1.00003
1.11134
1
1
1.11989
1
1
1
1.11862
1
0.887364
1
1
1
1.04409
1
1
1
1
1
0.937884
1
0.906769
1
1.11836
1.00002
0.964158
0.965383
1
1.00106
1.06605
1
1
0.89192
1.11846
1.11836
1.11865
1
0.879383
0.889304
1
1.11869
1
1
1
1
1
1.00001
1
0.891298
1.07883
1
1
0.891125
0.997025
1
1
1
1
0.885013
1
0.899174
1
1
1.12009
1
1
0.888934
1
1.11863
1
0.8759
1
0.88927
1
1.00235
1.11841
1.12241
1
1
1.11977
1
1
1.03131
0.999066
1
0.999495
1
1.11886
1
0.875333
1
1.12084
0.999734
1
1
0.942705
1
0.99973
0.883684
1.11798
1.04739
1
1
0.973024
1
1
1
0.937222
1
1
1
1.1186
1
0.889412
1
1
1
1
0.890901
1.11862
1.10726
0.885422
1
1.11839
1
1
1.11856
1.11942
1.1017
0.885601
0.999342
0.999773
1
1.11845
1
1
1
1
1.11836
1.00001
1
1
1.119
1
1
1.11845
0.89554
1
1
1
0.894049
1
1
1
0.999619
1
1
1
1
1.09677
1
1.12008
1.11904
1.12069
1.11837
1.11842
1.11864
1
1.11812
1
1.11869
1.11847
1
0.999674
0.889409
1.10348
0.99997
1
1
1
1
0.997305
1
1.02084
1
1
1
0.956155
1.11856
1.11842
1.11799
1.10461
0.999963
1
1.00664
1.11831
0.999411
1.0195
0.999248
0.899342
1
1.00001
1
1
1
1
1
1.11872
0.887361
1.11874
1.11856
0.998647
0.891479
1
1
1
1.11837
0.898938
1.10609
0.888006
1.11865
1.118
0.890354
1.1193
1.0065
1
1.11897
0.936207
1
0.99964
0.89334
1
0.904292
1
1.11863
1.11875
0.927053
1
1.11948
0.900436
1
0.892902
1
1.11848
1
1
1.11949
1
0.949883
1
0.999895
0.905436
1.11897
0.999857
1
0.896282
1
1
1
1
1.06762
1
1.11851
1
1
1.1207
1
1
1.1186
1
0.903768
1
0.888672
1
1
1
1
1
1.11423
1.07204
1.11851
1
1.1185
1.11081
0.883028
0.883519
1
1
1.11935
1
0.902684
1
0.997159
1
1
1.11881
1
1.11822
0.889852
1.11987
1
0.886116
1
1
1.11809
1.1182
1
1.00001
1
1.11904
1
1
0.889493
0.999821
0.888123
1
1
1
1.11887
1.11882
1.11967
1
1
0.879689
1
1.11783
1
1
1
1.11288
1.11839
1.11837
0.899243
1.11876
1.11846
0.888702
1.11973
1.00001
0.891496
1.00497
1
1
1.11844
0.897691
1.07766
0.892259
1.11848
0.999237
0.880797
1.1188
1
1
1
1
1.11862
1.11945
0.889516
1
1.00001
0.891638
1.00001
1
0.880883
0.872757
1.08637
1.11932
0.999553
1.11854
1
1.11972
0.945995
0.892327
1.11861
1.12267
1
1.11862
1
1
1.11864
1
1.09173
1.12002
1
1
1
1
1.11854
1.11747
1.11926
1
1
1.11923
1.11985
1.11879
1
1.11844
1
1
1
1
1
0.89083
0.950318
0.883361
1
1
1.11857
1
1
1.11973
0.888912
1
1.11865
1.11753
1.11397
0.881185
1
0.894114
1
1.00001
1.11945
1.06011
1.11959
1.10927
1
0.880109
1
1.11923
1.08768
0.882877
1
1
1
0.937861
1
1
1.1211
1
0.891531
1.11856
1
1
1
1
1
1.09722
1.0285
1
1.11875
1
1.11794
1
0.999067
1
1.11912
1.11799
1.11869
1.11938
0.99988
1.11966
1
1.11863
1.11846
1.10225
1
1
0.882934
1.11917
1
1
1.11969
1.11856
1.11791
1
1.11849
1
1
1.00001
1.11843
1.11897
1.0358
1.02844
1.11848
1.11834
0.911423
1
1
1
1
1
1.04408
1
1
1.10299
0.888224
0.99999
1
1.11863
0.999966
0.999943
1.01844
1.10918
1.11965
0.980417
1
0.891846
1
0.998848
1.11846
1.11941
1.11997
0.999707
1
1
0.88963
1
1
1.11851
1.014
1
1
1
1
1
1
1
0.999982
1.11938
1
1
1
1
1
1.08116
1
1.05827
1
1
1.11849
1.12061
0.893196
0.999658
1
1
1
0.891385
1.11989
1.11858
1
1
1
1
1
1
1
1
1.1189
1.11882
0.880693
1.01461
0.889815
1
0.892798
1
1.11862
1.03665
1
1
0.911427
1
1.11404
0.943108
0.999025
0.888729
1
1
1.11947
1.00001
0.999191
0.885975
1.11975
1.12044
1
1
1
1
1.11157
1
1
1.11853
0.999691
1.11913
1
1
1
0.89739
1
1
1.11825
0.891662
0.9335
0.896174
1.11871
0.999813
1
1.11805
0.8882
0.881425
1.00339
1
1
1.1205
1.00001
1.05808
1
1
1.1199
0.892455
1
1
1.00004
1.11943
1.00003
1.11636
1
1.00001
1
1
0.915703
1
0.9328
1
1
1.11934
0.89682
1
0.940063
0.937731
1
1
1.11879
1
1
1
1.11885
1.11892
1.00002
1.1133
1.12074
0.940262
1.11853
1.1118
1
1
1.11782
1
1
1
1
1
1.12145
1.11847
1
1
1
1.1188
1.00006
1
0.89191
0.915393
1
1.00001
1.04764
1
1
0.970774
0.883711
1
1
1
1.1205
1.10966
1.11847
1
1
1
1
0.895643
1
1.1189
1
1.11548
0.89604
1.12052
1
1
1
0.882189
1
1.11926
1.00001
1
0.882824
1.04556
1
0.999904
1.12087
0.88664
0.883009
1
1.11935
0.882475
0.891502
1
0.890569
1
1
1
1
0.888702
1
1
1
1
1.11921
1
1.09261
0.898757
1
1
1
0.889029
1.11854
1
1
0.999101
1.11934
1
1.11873
1.11953
1
1
0.913114
0.884861
1
1
0.884097
1.04133
1.0585
1
1
1.11954
0.999242
1
0.999312
1.12
1
1
1
1
1
1
1.11862
1
1.04404
1.03954
0.899601
1.10629
1
1.11861
1.1185
1
1
1
0.978132
0.909563
1
1.06485
0.999897
1.10973
1
1
1
1
1
1.00196
1.05543
1.11893
1.11875
1
1.11844
1
0.875002
1
0.99929
0.999939
1
0.891565
1
0.900837
1.00001
1.11927
1.12033
0.885084
1.12026
0.886064
0.998903
1.09078
0.896666
1.08938
1
1
0.999549
1
1
1
1.00002
1
0.900017
1
1
1
1
0.999884
1.11887
0.949082
1
1
1
1.0104
1
1
1
1.07233
0.923263
1
1
1
1.01548
1.1194
1
0.895685
1
1.11887
0.971798
0.886279
1
0.888942
1
1
1.11291
0.999497
1.10981
1
1.00261
1
1
1.11869
1
1
1
1
1.02481
1
1.11864
1.11893
1.11923
0.898892
1.11841
0.999162
1.0991
1
1
0.885458
1
1
0.883397
1.11981
1
1
0.99999
1
1
1
0.885864
0.898926
1
1.12043
1
1.06011
1.11859
0.890136
1.1022
1
1
0.883795
1
1
1.1186
1.11842
1.04574
1
1
1.00036
1.11921
0.899301
0.890994
1.11983
1.11855
1.08459
1.05086
1
0.967674
1
1
1
1.11303
1.11838
1.1178
1
1
1.11939
0.882686
1.10598
0.884757
1
0.899085
1
0.891613
1.11845
0.88588
1
0.998334
0.899749
1
1
1
0.959988
1.10927
1.11859
1.11886
1.11978
1
1
1.12055
1
1
1.11866
1
0.880262
1
0.894261
1
1.12083
1
1
1.00848
1.09287
1
0.999723
0.88642
1.1184
1
0.892897
1.02511
1
1
1.09341
1.11881
1.11836
1
1.11904
1.03477
1
1.00688
1.11851
1
1
1
1
1.11858
1
0.891006
1.11837
0.891596
0.893988
0.941419
1.11901
1.0424
1.11879
1
1.12017
0.99921
1.00001
1.1187
1.12004
1
1.11939
1
1.11859
1
1.11948
1
1.00001
0.999994
1.11882
0.88961
0.897218
0.999404
1
1
1
0.895108
1
1.08122
1
0.891363
1
1.0494
1.11871
1.11985
1
1
1.00001
0.999838
1
1.11971
1.11864
1
1.05322
1.11854
0.957082
1.11854
1.00015
0.88142
1.02724
0.88454
1
1
1.02244
1.12011
1
1
1.01257
0.999595
1
0.893595
1
0.932313
1
1.11904
1
1
0.894083
1.03174
1.02042
0.999567
1.11831
1.11855
0.933896
0.999439
0.891647
0.884149
0.88895
1
1
1
0.999726
0.915739
0.891196
1
1.1185
0.999926
1.11854
1.11838
1.12003
1.11839
1
0.895107
1.11848
0.889611
1
1.11874
1.1181
0.999016
0.943967
1.11852
1.08684
1
0.893701
1
1
1.12179
1
1.00775
1.11902
1
0.887687
0.892906
1
1
0.881292
0.886303
1.1186
1.00001
1
0.888455
0.874567
1.12041
1.113
1.11141
1.11987
1.03619
0.99825
1.05252
1.11764
1.09364
1
1.06268
1
0.893672
0.959859
1
0.886765
1.11868
1.00659
1.11887
1
1.11874
1.11959
1
1.11854
1.11856
0.890659
1.11966
1
1.12071
1
0.927496
0.888751
1.11894
1
1
1
0.890639
1.11861
1.11878
1
0.894537
1
1
0.891884
1.00001
0.883062
1.11949
1
0.951185
0.880899
1
1
1.07099
1
1
1
1.02267
0.890345
1
1
1
1.11854
0.891852
1
1.11873
0.897658
0.889376
1
1
1.12036
1
1.11863
1
1.11866
0.89225
1
1
0.887567
0.94584
0.892558
1
1
1
1
1.11971
0.884973
1
0.891054
1
1.1193
1
1
0.981906
1
1
0.94993
0.999914
1.00001
1
0.892269
0.895087
1
1
1
1
0.941886
1.1182
1.11933
1
0.88848
0.893372
0.97391
0.894587
1
0.950416
1
0.897268
1.00016
1
1
0.894021
1
1.11815
1.11631
0.889613
1
1
1
1.11933
1
1.01444
0.950528
1.03959
0.897661
1.05132
0.894083
1
1
0.919638
0.974539
1
1.01412
1
1
0.888727
1
0.984835
1.01523
0.891385
1
1.09666
0.9268
0.965234
1
1
1
0.893995
1
0.890833
0.881906
1
0.955279
0.887433
1.02023
0.926161
0.896181
1.11876
1
1.11854
1.06898
0.91696
1.11852
0.882901
0.999727
1.11915
1
1
1.11813
1
0.911635
1
1.02024
1
1
1.11859
1
0.928161
0.942835
1.1201
0.984413
1
0.916923
1.11871
1.11956
0.97425
1
1.11862
1.03484
0.954413
1
1.00639
1
0.893359
1.05373
0.937275
0.929055
1
1
0.897056
1.11869
0.991322
0.891879
0.887065
0.96095
1
1.00417
1.11927
1.11856
1
1
1
0.892112
1.06017
0.999997
1.11902
1.10714
0.882596
1.00001
1.02832
0.962938
1.07725
1.10301
1
1.0135
1
1.00001
0.878604
0.95303
1
1
0.94384
0.881743
1.00759
1
1
0.894403
1.0564
1
1.11655
1
1.01486
1.06788
1
1.11665
1
1
1.11798
1
0.884279
1.11997
0.907402
1.03438
1
0.890896
0.999976
1
1.00001
1
0.935565
1.00768
0.889316
1.0911
1.11957
0.885494
1
1
1
1
1
0.991189
0.881227
1.01524
0.889765
0.894601
1.02342
1
0.999942
1.03228
1
1
0.901166
0.996635
1
1
1.03691
1
1.11926
1
1.11997
1.02446
1.00918
0.892154
1
1
0.896381
1
1
1
1
1.11883
1.01265
0.999448
1
0.880228
1.01483
1
1
1.08035
1
0.883398
1.11874
1
1
1
1.1181
0.881568
0.968359
0.876831
1.09179
1.11961
1
1
1.11854
1
0.876956
1
1
1
1
1
0.926488
1
1.1179
1
1
1.04347
1.1191
0.889255
0.968322
1
1.11863
1
1
1
1
1
1.11857
1.12018
0.889057
1.11864
0.882068
1
1
1.11853
1
1.11988
1.00578
1.00798
1.0192
1.11846
1.01938
1.08406
0.88744
1
0.887004
0.99574
1
1.11869
1
1
0.88849
1.12004
1
1.11999
1
1
1
1
1
1
0.877845
1.11923
0.958806
1.11845
1
0.887496
0.886027
0.911577
1.11864
1.11876
0.989372
1
0.935689
1
1.04896
1
1.11862
0.881591
0.891824
0.954317
1
1.11873
1
1.02306
0.894258
1
1.12053
1.10555
0.99968
1
1.11863
0.886483
1.11938
1.11842
1.11816
0.89201
1.02526
1
1
0.885679
1
0.946231
0.948676
1
1.00001
1.11846
1
1.12007
1.02589
1
1.0084
1.12116
1
0.880607
1
0.930779
1
1
1.099
1
0.943382
1
0.895014
1.0106
0.991353
0.875771
1.11831
1.09782
1.11968
0.89239
0.900898
0.998774
1
1
0.900956
1.11273
0.890429
0.99999
1
1.11866
1.1194
0.969735
1
0.888943
0.919233
1.08265
0.996486
0.882145
1
0.890663
1.03415
0.891112
1
1.00002
0.946009
1.11994
1.1186
0.953581
0.999887
1
1
0.906126
1
0.885431
1
0.887023
0.887764
1
1
1.00001
0.893332
1.11863
1
1
1.00002
1.00001
0.901963
1.11899
1.11849
1
0.888245
1.12008
1
1.02776
1
1
1.11841
0.884123
1
1
0.897476
0.921521
0.887348
0.896269
1
0.909904
0.999183
1.02726
0.882745
1
1
1.03635
1
1.10624
1
1
1.08299
0.910753
1
0.885892
1.03475
1.11847
1
1
0.898865
0.889658
0.886049
0.917145
0.895433
1.09122
0.999835
1
1
1
1
1.11894
0.896738
1
0.979902
0.999906
0.999535
0.999984
0.932044
1.03454
1
1.11856
1.11874
1
1
1.11513
1.00001
1
1.11853
0.893821
1.11973
1
0.881767
1.11859
1.00002
1
0.952932
1
0.886033
1
1.11919
1
1
1.11947
1
1
1.11948
1
1
1
1.11945
1
0.930848
0.923173
1
0.883744
1.11868
1
1
0.996567
1
1.11855
1.07133
1.09744
1
1
0.89349
1
0.896299
1.11859
1.11983
1.11847
1
1.11929
0.890134
1
0.895848
1.09778
1.10833
1.11837
1.11848
0.923098
0.885269
1
1.0848
1.11927
1.11905
1.11856
0.925129
1.048
1
1.09235
0.922041
1
1
1
1.00001
0.966082
1
1.11975
1
1
1
1
1
1
1.00002
1.11832
1
1.11985
1.09115
0.890341
1.11954
1.00807
1.06306
1
1.11853
1
0.892079
1
1
1
1
1.10305
1
0.88354
1.11832
0.883544
1.11875
1.09724
1.06542
1
1.02356
1.06002
0.998732
0.894258
0.923676
1.00001
1
0.972309
1
0.890312
1.11909
0.894643
0.984126
0.955413
1
1
1
1.00386
1
1
0.900375
0.999012
1.11935
1
1.11867
1
0.887063
1
1
1.11862
1.1186
0.882568
1
1.11937
1
0.937511
0.899318
1.11874
1.10741
1
1.02072
1.11859
0.99962
1
1.05313
1.10546
1.1189
0.998847
1
0.999999
1.10234
1
1
1
1.1186
0.999562
1
1
1.11874
1
1
0.89111
1
1
1
1.11884
1
1
0.951231
1.0407
1.10927
0.932622
1
1.11865
1
1.0452
1
1.11951
0.999224
1.11852
1
0.888532
1
1.08184
1
1
1.11107
1
1.11857
1
1.11996
0.904836
0.893585
1.11914
1
1.1026
1
1.11937
1
1
1.00001
1.11825
1.11924
1.03558
1.11869
0.99879
0.890553
1.11877
0.963312
1
1.11819
1
1.11863
1
1.11902
1.11956
0.998943
0.88962
1
1.11859
1
1.00881
1
1
0.999414
0.920399
1.10649
1
1.1079
1
0.961859
0.887748
1.11843
1.11851
0.905869
1
1.11899
1.11991
1.11925
0.903231
1.11858
0.894089
1.11905
1.11861
1
1
1.1186
1
1
1
1
0.887373
1
1
1.11943
1.11849
1
1.11859
1
1.12031
1.11988
1
1.10083
1
0.883251
1.11864
1.09083
1.03801
0.882511
1.11857
1
1
0.887621
1
1
1.11846
1
1
0.928776
1
1.1186
1.00002
1.11813
0.887074
1.12009
1
1.11864
1.11451
0.964872
1
1.11863
0.92682
1.11887
1.08611
1.11869
1.11905
0.99916
1.11991
1.11876
1.11848
1.1186
1.00022
1
0.884482
1
1.11904
0.952668
1.10958
1
1.11688
1
1
1
1
1
1.11811
0.890234
0.887919
1.11911
1.1185
1
1
1
1
1
1.11785
1.11
1.11861
1.00564
1
1
1
1.00001
1.11826
1.11858
1
1.11947
1.11932
0.896995
1.08625
1
1.11858
1.12016
1.11786
0.999435
1.11861
1.11884
1
1.10866
1
1
1
1
1
1
1.11854
1.11979
1.11094
1.11847
0.890643
0.904777
1.11857
1.11855
1
0.893852
0.986802
1
1.06111
0.886451
1
0.999843
0.9995
0.892005
1
1.11862
1
1
1
1.11928
0.989297
1
1.11869
1.11879
1
1.11886
1
1
1.11859
1
0.894146
1
1.11944
1
1
0.889966
1
1.11841
1
0.886
0.876585
1
1.11348
1
0.883833
0.967304
1
1.11851
1
1
1
1.12032
1
0.888921
1.01792
1.11954
1.11893
1.11847
1.01482
1.11886
1.11859
1
1
1
1
1
1.11849
1
0.999803
1.12003
1
0.882946
1
1.11856
1.05947
1.01884
1.05849
1.01701
1.12061
0.905764
1.11856
1
0.888101
0.999214
1.11862
0.987741
1.11848
1.11853
1.11445
1
1.11998
1.11848
1.11855
1
1.00001
1
1
1.11915
1.08744
1
1
0.890089
0.999028
1
1.11871
1
1.1186
1.11849
1.119
0.978291
1.11859
1.11865
1.00614
1.06036
1.11986
1.11853
1
1.11038
0.946339
1.11168
0.993832
1.11858
1
1.11855
1.11889
1
0.895412
0.985197
0.905735
1
1.0244
0.999058
1.11897
1
1
0.99899
1
1.06191
1.11381
1
1
1.11839
1
1
1.08802
1.11855
1.11454
1.11868
1.11889
1
1.11888
0.911446
1.11904
1
0.998384
0.898588
1
1
0.917906
1
1.03965
1
1.11908
1
1.1168
1.07811
0.891242
1
1
1
1
1
1.11869
1.0033
1
1.1197
1
1.11844
1.11858
1
1
0.994384
0.999956
0.883619
0.88825
0.914124
1.02543
1
0.999545
0.890756
1.00001
1
1.11859
0.976691
1.11113
1.10331
1
1
1
1
1
1.11855
1.11883
1
1.11835
1
1.12091
1.08264
0.998981
1
1
1
1.07119
1
0.988983
1
1.11832
1
1
1.11856
1
1
1
1
1
1.11882
0.882154
0.99885
1.10734
1.11857
1
1.11859
1
1
1
1
0.901643
1
1.11881
1.11877
1.11845
1.11954
0.990711
1
1.10225
1.03152
1.11957
1.11887
1.02427
1.11916
1
1
1
1.11867
1