/*--------------------------------*- C++ -*----------------------------------*\
  =========                 |
  \\      /  F ield         | OpenFOAM: The Open Source CFD Toolbox
   \\    /   O peration     | Website:  https://openfoam.org
    \\  /    A nd           | Version:  12
     \\/     M anipulation  |
\*---------------------------------------------------------------------------*/
FoamFile
{
    format      ascii;
    class       volVectorField;
    location    "10";
    object      U;
}
// * * * * * * * * * * * * * * * * * * * * * * * * * * * * * * * * * * * * * //

dimensions      [0 1 -1 0 0 0 0];

internalField   nonuniform List<vector> 
22702
(
(2 -2.74079e-13 0)
(2 -2.48145e-15 0)
(2.03804 -0.0915697 0)
(2 -1.13165e-09 0)
(1.9784 0.0315382 0)
(2 9.03129e-14 0)
(1.83099 0.228964 0)
(2 5.60397e-14 0)
(2 -3.08779e-13 0)
(2.05749 -0.270147 0)
(1.82985 0.228226 0)
(1.83015 0.228252 0)
(2 1.09606e-13 0)
(1.8313 0.229064 0)
(2.0344 -0.07632 0)
(2 -9.57684e-15 0)
(2 -1.21273e-13 0)
(2 -5.12788e-14 0)
(1.82952 0.22823 0)
(2 -9.17083e-14 0)
(1.83167 0.22892 0)
(2 -2.09303e-13 0)
(1.83091 0.228924 0)
(2.1132 -0.268013 0)
(1.83156 0.227794 0)
(2.12145 -0.26767 0)
(2 3.565e-14 0)
(1.83045 0.228443 0)
(2.09605 -0.262575 0)
(2.11468 -0.263459 0)
(2 2.72966e-15 0)
(1.82889 0.228208 0)
(2 3.99652e-14 0)
(2 -1.41129e-13 0)
(2 -1.3139e-13 0)
(1.84375 0.215506 0)
(1.83247 0.227525 0)
(1.83074 0.228863 0)
(2 -1.23211e-13 0)
(2 -3.10322e-13 0)
(2.03892 -0.270797 0)
(2 8.38457e-14 0)
(1.91407 0.126311 0)
(2 -3.02953e-13 0)
(1.83036 0.228238 0)
(2 -6.48306e-14 0)
(2 2.20988e-13 0)
(2 -1.8243e-14 0)
(2 -1.88966e-13 0)
(2.10042 -0.259756 0)
(2 -4.95319e-14 0)
(2.11019 -0.265881 0)
(2 -1.83692e-13 0)
(1.82964 0.228768 0)
(2 -2.27273e-14 0)
(1.82876 0.228241 0)
(2 2.13632e-13 0)
(2 1.4546e-09 0)
(2 3.26956e-15 0)
(2 -3.07241e-13 0)
(2.13635 -0.256835 0)
(2 5.07112e-14 0)
(2 -1.89289e-13 0)
(2.12542 -0.270184 0)
(2 -3.7134e-14 0)
(2.12316 -0.260522 0)
(2 -2.5702e-13 0)
(2 -8.72025e-14 0)
(2 -1.03241e-14 0)
(2.08845 -0.277536 0)
(2 -1.41235e-13 0)
(1.83128 0.228579 0)
(1.89593 0.150343 0)
(2 1.18311e-09 0)
(1.83117 0.228524 0)
(1.8222 0.237615 0)
(2.10467 -0.259926 0)
(1.82917 0.228674 0)
(2.10637 -0.261405 0)
(2 -1.7857e-13 0)
(1.82949 0.228335 0)
(2.11095 -0.258176 0)
(1.83029 0.22898 0)
(1.83037 0.228962 0)
(2 2.81766e-14 0)
(2 8.49472e-07 0)
(2 -3.969e-14 0)
(2 3.10446e-14 0)
(2.01848 -0.0518138 0)
(2.07878 -0.27669 0)
(1.83066 0.228576 0)
(2 -4.53326e-14 0)
(2 -7.087e-11 0)
(2.12702 -0.257783 0)
(2 -1.30976e-14 0)
(1.83125 0.22924 0)
(2.12673 -0.26688 0)
(2 2.45734e-08 0)
(2 -1.56441e-14 0)
(2 -3.39322e-14 0)
(2 1.82315e-13 0)
(1.91395 0.125853 0)
(1.82936 0.228209 0)
(2.11637 -0.263437 0)
(2 7.06956e-10 0)
(2 -1.16025e-09 0)
(1.95678 0.0656814 0)
(2 8.61435e-09 0)
(2.10886 -0.258108 0)
(2 -1.04445e-13 0)
(1.82886 0.228647 0)
(1.8303 0.228862 0)
(2 4.75346e-09 0)
(2 -5.32358e-14 0)
(2.13251 -0.273197 0)
(2.12848 -0.266164 0)
(2.07749 -0.271056 0)
(2 -3.44028e-14 0)
(2 -1.37552e-07 0)
(2 -4.96802e-14 0)
(2 -2.3103e-14 0)
(2 1.05696e-07 0)
(2.02819 -0.0572727 0)
(2 -1.06209e-07 0)
(1.85443 0.203131 0)
(1.9831 0.022753 0)
(1.82907 0.228738 0)
(2 -3.02422e-16 0)
(1.82924 0.228943 0)
(1.82939 0.228047 0)
(1.83143 0.228589 0)
(1.83073 0.228832 0)
(2 1.90424e-14 0)
(2.0893 -0.275654 0)
(2 2.39737e-14 0)
(2.14857 -0.262196 0)
(2 -3.77324e-14 0)
(2 -1.18444e-14 0)
(2 -5.42642e-14 0)
(2 4.10762e-15 0)
(1.82985 0.228603 0)
(2 3.32678e-09 0)
(2 -1.13078e-13 0)
(2 -1.03938e-13 0)
(2 -5.33653e-14 0)
(1.82996 0.228759 0)
(2 -1.88115e-14 0)
(1.99426 0.013742 0)
(2 -5.87959e-14 0)
(2 -2.39769e-14 0)
(2 -6.67139e-11 0)
(2 3.51902e-15 0)
(2.1011 -0.262117 0)
(2 -3.98505e-14 0)
(1.99593 0.00866332 0)
(2 -3.93896e-14 0)
(2.10569 -0.26235 0)
(2 -7.73719e-14 0)
(2 -8.00562e-15 0)
(2 3.35937e-15 0)
(1.83066 0.228998 0)
(2 -6.22752e-14 0)
(1.83125 0.228654 0)
(2.12759 -0.276271 0)
(2.11927 -0.263238 0)
(1.83098 0.228886 0)
(1.83097 0.228849 0)
(2 -2.68047e-14 0)
(1.97064 0.0480531 0)
(1.90279 0.140367 0)
(2 -3.68162e-14 0)
(1.82993 0.228643 0)
(2.10585 -0.262141 0)
(1.84369 0.215441 0)
(2 8.21435e-14 0)
(2 1.47521e-14 0)
(2 -4.90621e-15 0)
(2 -1.23458e-13 0)
(1.83139 0.229194 0)
(1.86021 0.194187 0)
(2 -1.22782e-13 0)
(1.83013 0.229402 0)
(2.14348 -0.274675 0)
(1.82924 0.228386 0)
(2 -5.69419e-14 0)
(2.09711 -0.263017 0)
(2 -2.2582e-13 0)
(2.10388 -0.262593 0)
(2.1096 -0.254616 0)
(2.00007 -0.000120011 0)
(2 -2.32098e-13 0)
(2 -2.68352e-13 0)
(1.82899 0.227739 0)
(2 4.35539e-14 0)
(2 -8.6457e-14 0)
(1.83146 0.229052 0)
(2 -5.14006e-14 0)
(1.82965 0.228839 0)
(1.83034 0.22933 0)
(2.09608 -0.280448 0)
(2 1.12023e-13 0)
(2 -1.14484e-13 0)
(2.11341 -0.265375 0)
(1.83157 0.228768 0)
(2 -1.12319e-13 0)
(2 -2.06291e-14 0)
(2 9.78913e-15 0)
(1.8315 0.228802 0)
(2 5.48424e-14 0)
(2.11628 -0.25917 0)
(2 -5.95355e-11 0)
(2 -1.45594e-13 0)
(1.83185 0.228843 0)
(1.83117 0.228989 0)
(1.82927 0.228617 0)
(2 -7.6576e-15 0)
(1.99999 2.28667e-05 0)
(2 4.39931e-14 0)
(2 2.66241e-14 0)
(2 -1.83207e-13 0)
(1.83142 0.22886 0)
(2 -1.26403e-13 0)
(2.13809 -0.270648 0)
(1.82478 0.235483 0)
(1.83148 0.229077 0)
(1.83194 0.228538 0)
(2 1.94168e-07 0)
(2 4.83187e-14 0)
(2 -2.07309e-13 0)
(2.11714 -0.270052 0)
(1.83137 0.228944 0)
(1.91764 0.130524 0)
(2 -6.95449e-14 0)
(1.83077 0.229523 0)
(2.13686 -0.267585 0)
(2.13206 -0.263905 0)
(1.83086 0.229609 0)
(1.83034 0.231996 0)
(2 -2.96659e-15 0)
(1.8312 0.230029 0)
(2.12057 -0.272976 0)
(1.85138 0.205652 0)
(2 -2.51812e-13 0)
(2 -2.06618e-13 0)
(2 -2.70261e-13 0)
(2 -3.32463e-13 0)
(1.8318 0.229201 0)
(2 9.07959e-14 0)
(1.89965 0.144845 0)
(1.98376 0.0304872 0)
(2 -2.25407e-14 0)
(2 -1.32999e-13 0)
(1.83169 0.228652 0)
(2.14864 -0.263293 0)
(2.08332 -0.165697 0)
(2 5.04824e-15 0)
(1.83088 0.229872 0)
(2.09457 -0.269253 0)
(1.83146 0.227402 0)
(2 -6.1005e-15 0)
(2 5.55638e-14 0)
(2 -2.11636e-13 0)
(2 -2.79068e-14 0)
(2 -2.3092e-14 0)
(2 -4.29254e-14 0)
(2 -1.39879e-13 0)
(2.10777 -0.262762 0)
(2.08916 -0.164194 0)
(2.13671 -0.263912 0)
(1.83122 0.228872 0)
(2 -7.86928e-14 0)
(2 1.00066e-13 0)
(2 -1.57057e-07 0)
(2 -2.06314e-13 0)
(1.84574 0.209711 0)
(2 -2.12249e-07 0)
(2.10778 -0.262081 0)
(2 6.14426e-14 0)
(2.11886 -0.285638 0)
(2.10885 -0.265862 0)
(1.83219 0.228871 0)
(2.12495 -0.264788 0)
(1.83163 0.229014 0)
(2 6.86832e-14 0)
(2 -1.45856e-13 0)
(2 -1.14272e-13 0)
(2.00084 -0.00164399 0)
(2.10068 -0.263567 0)
(2.1115 -0.286215 0)
(2 -3.03805e-07 0)
(2 -1.49609e-07 0)
(2.1222 -0.282174 0)
(2 2.46611e-09 0)
(1.82942 0.228188 0)
(2.10591 -0.275874 0)
(2 2.07654e-14 0)
(2 -3.36181e-11 0)
(1.82942 0.228406 0)
(2.11118 -0.278001 0)
(2 -2.46807e-13 0)
(1.83537 0.228087 0)
(2.13002 -0.265572 0)
(1.83158 0.228861 0)
(2 7.26964e-14 0)
(2.11046 -0.28694 0)
(2.0008 -0.00148996 0)
(2 -6.71839e-14 0)
(2 2.99423e-06 0)
(2 1.41026e-13 0)
(2.11236 -0.26587 0)
(2 1.94166e-14 0)
(2 -1.43877e-07 0)
(2 -7.608e-07 0)
(1.99999 1.46847e-05 0)
(1.99282 0.0110405 0)
(1.89734 0.148407 0)
(2 -2.50257e-11 0)
(2.12263 -0.247346 0)
(2 -1.56917e-11 0)
(2 1.59789e-06 0)
(2 -1.28682e-13 0)
(2 -1.46129e-13 0)
(2 -1.11641e-14 0)
(2 1.52293e-13 0)
(2 -1.26239e-12 0)
(1.82971 0.228476 0)
(2 4.60871e-13 0)
(1.82802 0.229067 0)
(2 2.87388e-13 0)
(2 -1.62351e-13 0)
(2 2.30803e-14 0)
(2.10582 -0.267818 0)
(2 2.16159e-14 0)
(1.83008 0.22865 0)
(2.12561 -0.2672 0)
(2 -7.98088e-14 0)
(1.86861 0.183132 0)
(2 -6.00254e-14 0)
(2 -3.53214e-14 0)
(1.82932 0.229385 0)
(2 -3.29154e-14 0)
(2 -9.72904e-09 0)
(2 1.97997e-14 0)
(1.8312 0.227582 0)
(2 5.07385e-10 0)
(2 6.19879e-14 0)
(1.83259 0.227285 0)
(1.82994 0.228659 0)
(2 1.40795e-13 0)
(1.96478 0.0545239 0)
(2 -5.78397e-14 0)
(2 -1.09367e-14 0)
(2.1478 -0.256802 0)
(2 -2.81722e-13 0)
(2 8.2535e-14 0)
(2 6.06344e-14 0)
(2.1453 -0.26538 0)
(2 6.79012e-14 0)
(2 7.96871e-14 0)
(2 4.22159e-14 0)
(2 1.82114e-13 0)
(2.11891 -0.250664 0)
(2 -8.38129e-14 0)
(2 1.71777e-13 0)
(2 -3.59458e-13 0)
(2 -9.91194e-14 0)
(2 -5.39958e-14 0)
(2.09582 -0.276189 0)
(1.99998 3.79441e-05 0)
(1.83124 0.228657 0)
(2 7.63591e-14 0)
(2.00002 -1.29972e-05 0)
(1.8311 0.228764 0)
(1.8308 0.228893 0)
(2 -4.79563e-14 0)
(2 -1.90847e-14 0)
(2.10311 -0.278562 0)
(2.06178 -0.127116 0)
(1.83037 0.228623 0)
(2 -1.2045e-13 0)
(2 2.75776e-14 0)
(2 9.38881e-14 0)
(1.83142 0.22885 0)
(2.0841 -0.274167 0)
(2 8.6505e-14 0)
(1.83126 0.228682 0)
(2 -1.28844e-14 0)
(2 -7.10801e-14 0)
(2.10088 -0.211596 0)
(2.11277 -0.207814 0)
(2 -1.09715e-13 0)
(2.10818 -0.2625 0)
(2.11182 -0.267246 0)
(2 -8.90828e-14 0)
(2 -2.19915e-14 0)
(2 1.12632e-13 0)
(2 -6.79611e-14 0)
(2 -9.02451e-11 0)
(2 -1.312e-13 0)
(2 -4.31669e-14 0)
(1.82899 0.228665 0)
(1.95861 0.0652169 0)
(1.84142 0.221622 0)
(2.09812 -0.26783 0)
(2.02987 -0.0700499 0)
(1.82919 0.228655 0)
(2 -1.85188e-13 0)
(1.83062 0.22865 0)
(1.83047 0.228559 0)
(2.14722 -0.259875 0)
(2.07782 -0.15618 0)
(2 6.37886e-13 0)
(2.12164 -0.266632 0)
(2 -6.89475e-14 0)
(1.82328 0.234239 0)
(2 -2.70737e-13 0)
(2 3.78951e-14 0)
(2 -1.77142e-13 0)
(2 -1.67231e-14 0)
(1.83157 0.228849 0)
(2 -2.11941e-13 0)
(2 -1.45832e-14 0)
(2 -4.39988e-14 0)
(2 1.49283e-09 0)
(2 8.26078e-14 0)
(2 -1.64106e-13 0)
(2 -3.38478e-14 0)
(1.93618 0.0953431 0)
(1.83064 0.228764 0)
(2 2.80215e-13 0)
(1.83148 0.228899 0)
(2 -8.38075e-15 0)
(2 -7.59111e-14 0)
(2.11103 -0.260077 0)
(2 -5.58518e-14 0)
(2 6.04113e-14 0)
(2 -7.16486e-14 0)
(2 1.14032e-13 0)
(1.83147 0.228694 0)
(1.87042 0.18361 0)
(2 -3.56758e-14 0)
(2 1.64693e-14 0)
(2.10724 -0.264144 0)
(1.83146 0.228971 0)
(1.83176 0.228637 0)
(2 -1.33925e-14 0)
(1.83198 0.228702 0)
(1.83149 0.228943 0)
(1.83124 0.228997 0)
(2 -6.61579e-14 0)
(2.05785 -0.112024 0)
(2 -5.6335e-14 0)
(1.83215 0.229152 0)
(2.00216 -0.0111929 0)
(1.83131 0.228958 0)
(2 -7.34252e-14 0)
(2.14474 -0.262643 0)
(2.00039 -0.000736351 0)
(1.82949 0.228678 0)
(2 1.81506e-13 0)
(2 6.32172e-15 0)
(2 -4.20724e-11 0)
(2 -1.97652e-11 0)
(2.10612 -0.258764 0)
(1.83163 0.228986 0)
(1.84776 0.210141 0)
(2 3.77055e-14 0)
(1.83082 0.23023 0)
(1.83147 0.229045 0)
(1.82958 0.228271 0)
(2 -9.2596e-15 0)
(1.92084 0.118283 0)
(1.83243 0.228147 0)
(2 -1.95966e-13 0)
(2 -2.00065e-13 0)
(1.88384 0.165785 0)
(1.97708 0.0400273 0)
(1.83145 0.229115 0)
(2.01955 -0.0490358 0)
(1.8313 0.228898 0)
(2 -4.70855e-14 0)
(1.83115 0.228948 0)
(1.83158 0.228672 0)
(1.83115 0.228948 0)
(1.83155 0.228981 0)
(2 1.08617e-13 0)
(1.84384 0.214898 0)
(2.02976 -0.0579105 0)
(2.04155 -0.0719928 0)
(2 4.34883e-14 0)
(2 -3.76326e-07 0)
(2 6.13772e-14 0)
(2 -2.51422e-13 0)
(1.83061 0.230912 0)
(2 1.37744e-13 0)
(2 2.07366e-13 0)
(2 -7.36751e-14 0)
(2 1.71996e-13 0)
(2 1.7149e-14 0)
(1.82956 0.228861 0)
(2 -1.91706e-14 0)
(2 2.1903e-13 0)
(2.0016 -0.0024238 0)
(1.83169 0.228498 0)
(1.85135 0.207709 0)
(2 -1.46052e-13 0)
(1.85308 0.208652 0)
(1.99998 2.42053e-05 0)
(2 -2.03551e-13 0)
(2 5.64176e-14 0)
(1.83153 0.229152 0)
(2 -1.45092e-13 0)
(2.00153 -0.0024921 0)
(1.99871 0.00334935 0)
(2 1.4149e-14 0)
(1.83164 0.228637 0)
(2 1.31105e-13 0)
(1.83176 0.228605 0)
(2 7.7915e-14 0)
(2 8.87831e-14 0)
(1.87581 0.17717 0)
(2 3.90284e-14 0)
(1.83207 0.228514 0)
(1.99999 1.28423e-05 0)
(2 -2.50214e-13 0)
(1.83231 0.22847 0)
(2 -1.27315e-13 0)
(1.83152 0.228581 0)
(2 1.80884e-14 0)
(2 3.02427e-06 0)
(2 3.7234e-14 0)
(1.83162 0.229158 0)
(2 4.40616e-14 0)
(1.82982 0.231117 0)
(2 4.76834e-06 0)
(1.83175 0.229069 0)
(1.82907 0.228639 0)
(1.83144 0.228684 0)
(1.82974 0.228715 0)
(2 -1.05711e-13 0)
(1.83088 0.228877 0)
(1.82831 0.23042 0)
(2 -1.20402e-13 0)
(2.11185 -0.261253 0)
(1.84147 0.217872 0)
(1.87838 0.172704 0)
(2 -1.13762e-13 0)
(1.83154 0.229085 0)
(2 -1.91724e-14 0)
(2.14871 -0.258492 0)
(2.13751 -0.258602 0)
(2 -7.71476e-14 0)
(2 7.31538e-14 0)
(2 1.0976e-13 0)
(2 -1.26864e-13 0)
(2 1.74706e-09 0)
(2.1206 -0.264626 0)
(2 9.56546e-14 0)
(1.83138 0.228925 0)
(1.95122 0.0730025 0)
(1.83159 0.229014 0)
(2 -9.96539e-14 0)
(2 8.68519e-11 0)
(2 -1.80046e-13 0)
(2 -6.6177e-14 0)
(2 -5.34391e-08 0)
(1.83116 0.228742 0)
(2 -7.03646e-15 0)
(1.83083 0.230907 0)
(1.89927 0.148295 0)
(2.07499 -0.152016 0)
(2 1.34838e-09 0)
(1.99999 7.79966e-06 0)
(1.94853 0.0766164 0)
(1.96443 0.0607822 0)
(2 1.97285e-14 0)
(2 5.8319e-14 0)
(1.94071 0.0914742 0)
(2 1.32041e-13 0)
(2.10621 -0.262279 0)
(1.83227 0.228763 0)
(1.83219 0.228759 0)
(2 -6.73133e-11 0)
(2 -1.22892e-13 0)
(2 -1.93318e-14 0)
(1.82771 0.228687 0)
(2 -1.67854e-13 0)
(1.99999 1.54622e-05 0)
(1.8315 0.228785 0)
(1.83205 0.228899 0)
(2.01414 -0.0386266 0)
(2 -8.27366e-14 0)
(2 1.41213e-10 0)
(2.1059 -0.262617 0)
(1.84614 0.212111 0)
(2 -1.0524e-13 0)
(2 -1.29144e-13 0)
(2 2.46722e-14 0)
(2 -3.03489e-11 0)
(2 -2.83946e-13 0)
(1.83155 0.228506 0)
(1.83068 0.229242 0)
(2 -1.11299e-14 0)
(1.83209 0.2284 0)
(1.82916 0.22924 0)
(1.83162 0.228635 0)
(2 1.24903e-14 0)
(2 7.95005e-14 0)
(2 -6.24383e-11 0)
(2 -9.64471e-14 0)
(2.10031 -0.263706 0)
(1.83074 0.22856 0)
(2 -4.73828e-11 0)
(2 -4.36691e-14 0)
(1.84627 0.212488 0)
(1.8321 0.228617 0)
(2 -1.712e-13 0)
(1.84153 0.217566 0)
(1.83033 0.228791 0)
(2 -1.69662e-13 0)
(2 -2.16657e-07 0)
(2 7.80412e-11 0)
(2 2.196e-13 0)
(2 -7.29297e-14 0)
(1.83209 0.228684 0)
(2 2.6931e-13 0)
(2 -6.35416e-14 0)
(2 -2.61984e-13 0)
(2 -1.44743e-13 0)
(1.82992 0.232346 0)
(2 -4.91294e-14 0)
(1.84202 0.222501 0)
(2.12733 -0.262259 0)
(2 1.57037e-13 0)
(2.1262 -0.258893 0)
(2 -6.37761e-14 0)
(2 -1.24525e-07 0)
(2 -2.49296e-14 0)
(2.00121 -0.00168038 0)
(2.10116 -0.261233 0)
(2.0003 -0.000589427 0)
(2 -3.73234e-14 0)
(2 1.36439e-15 0)
(2 -1.21507e-07 0)
(1.97611 0.0350272 0)
(2 4.61747e-14 0)
(2 -5.09813e-14 0)
(2.04532 -0.0953671 0)
(2 -2.1257e-07 0)
(2 -1.02306e-13 0)
(2 1.16543e-13 0)
(2 -2.12639e-07 0)
(2 2.77756e-07 0)
(2 -1.33242e-07 0)
(2 -2.42915e-13 0)
(2 -1.62979e-06 0)
(2.02616 -0.0474099 0)
(2 -4.63957e-07 0)
(2 -3.95824e-08 0)
(2.00102 -0.00136066 0)
(2 -2.38782e-14 0)
(2.10756 -0.263783 0)
(2 -2.99251e-11 0)
(2 -4.07218e-12 0)
(2 -4.55082e-13 0)
(2 3.13921e-14 0)
(1.87294 0.179984 0)
(2 -3.10288e-15 0)
(2 -7.35242e-14 0)
(2 3.86381e-14 0)
(2 -1.736e-07 0)
(2.1253 -0.269378 0)
(2 -1.89437e-14 0)
(2 1.21186e-09 0)
(1.84107 0.217634 0)
(1.83023 0.228497 0)
(2 -3.05459e-07 0)
(2 1.70874e-13 0)
(2 -1.17247e-07 0)
(2.04164 -0.0728298 0)
(2 -8.20311e-14 0)
(2 4.63016e-10 0)
(2 -3.08191e-14 0)
(2 8.58969e-14 0)
(2 -9.29454e-14 0)
(2 -1.03069e-13 0)
(2.01278 -0.0388542 0)
(1.9921 0.00942902 0)
(1.83132 0.229216 0)
(2 1.90126e-13 0)
(2 -3.04975e-13 0)
(2 -1.13755e-13 0)
(1.82993 0.230561 0)
(2.02812 -0.0667282 0)
(2 -4.66803e-09 0)
(2 -1.71873e-14 0)
(2 4.00921e-14 0)
(1.83058 0.228857 0)
(1.83075 0.227982 0)
(2 -2.74327e-08 0)
(2 5.24053e-06 0)
(2 3.32067e-09 0)
(2 -2.52301e-14 0)
(2 1.28446e-09 0)
(2 6.23135e-14 0)
(2 -1.52301e-11 0)
(2 1.54636e-13 0)
(2 5.81248e-14 0)
(2.10879 -0.266888 0)
(2 5.93516e-14 0)
(2 -1.30133e-11 0)
(1.8279 0.227768 0)
(2.12041 -0.265891 0)
(2 -1.87019e-13 0)
(1.82853 0.227508 0)
(2 6.54196e-11 0)
(2.10209 -0.265256 0)
(2 -2.43692e-14 0)
(2 1.38232e-13 0)
(2.11192 -0.264811 0)
(2 1.12669e-13 0)
(2 -1.17221e-11 0)
(2 -5.59657e-12 0)
(2 -2.0655e-13 0)
(2 -2.56607e-12 0)
(2 -6.65563e-14 0)
(2 -6.08053e-14 0)
(1.83484 0.225494 0)
(1.83204 0.228809 0)
(2 3.95142e-13 0)
(2 -1.37796e-13 0)
(2 -1.82163e-13 0)
(2 4.08625e-13 0)
(1.8456 0.212731 0)
(2 3.19807e-13 0)
(1.94683 0.0742515 0)
(2.10883 -0.26125 0)
(2 -3.10116e-08 0)
(2 2.86467e-13 0)
(2 -9.60578e-14 0)
(2 3.0499e-14 0)
(2 -1.38715e-13 0)
(2 -1.05857e-13 0)
(2 -8.55335e-14 0)
(1.98576 0.0161711 0)
(2 5.23664e-14 0)
(2 -6.39936e-14 0)
(1.90843 0.122208 0)
(2 7.80571e-16 0)
(2 6.91732e-14 0)
(2 1.46624e-13 0)
(1.86022 0.196126 0)
(2 -1.9648e-13 0)
(2 -2.15387e-14 0)
(2 -3.68372e-13 0)
(2 -2.58411e-13 0)
(2.11024 -0.269782 0)
(2 -7.56288e-13 0)
(2 2.73928e-13 0)
(2.11267 -0.28166 0)
(2.11614 -0.265027 0)
(2 1.19223e-13 0)
(2 4.76885e-14 0)
(1.83179 0.229152 0)
(2 -2.51394e-14 0)
(1.99087 -0.0467679 0)
(2 1.15668e-14 0)
(2 1.81462e-13 0)
(2 3.71843e-14 0)
(1.88325 0.166541 0)
(2.12767 -0.266631 0)
(2 -2.12661e-13 0)
(2.13226 -0.266712 0)
(2 1.57016e-13 0)
(2.07979 -0.150562 0)
(2 -8.80631e-14 0)
(2 -1.84278e-14 0)
(2 -1.08502e-13 0)
(1.83056 0.228136 0)
(2 -3.8963e-08 0)
(2 -9.30901e-14 0)
(1.83162 0.228999 0)
(2 -1.2419e-13 0)
(2 -1.239e-11 0)
(2 1.67551e-09 0)
(1.83172 0.229007 0)
(2 2.08552e-10 0)
(2 -4.50918e-13 0)
(1.83251 0.229396 0)
(2 -1.99772e-13 0)
(2 5.53492e-14 0)
(2.14568 -0.261237 0)
(2 -1.78156e-11 0)
(1.94765 0.0755324 0)
(2 2.34e-14 0)
(2 -1.55512e-13 0)
(1.8301 0.228584 0)
(1.82926 0.228669 0)
(1.88772 0.161376 0)
(1.84991 0.208847 0)
(2 -2.65417e-14 0)
(2.14453 -0.259382 0)
(2 -2.334e-13 0)
(2 8.70289e-14 0)
(1.83872 0.219804 0)
(2 9.47424e-15 0)
(2.11138 -0.271628 0)
(2 -1.78446e-14 0)
(2 6.38324e-14 0)
(2 -6.03136e-14 0)
(1.831 0.229007 0)
(2 4.80637e-16 0)
(2 -6.14286e-14 0)
(2 -1.25214e-13 0)
(2 -5.44079e-14 0)
(1.89786 0.149348 0)
(2 -1.16894e-13 0)
(1.83806 0.230248 0)
(1.83064 0.229163 0)
(2.10846 -0.267559 0)
(2 -1.07196e-13 0)
(2 7.28861e-14 0)
(2.13433 -0.260102 0)
(2.1356 -0.262515 0)
(2 -7.01214e-14 0)
(2 6.52209e-14 0)
(2 -6.65065e-12 0)
(1.8814 0.168984 0)
(1.87313 0.181464 0)
(2 -1.51026e-13 0)
(2 -9.80685e-15 0)
(2 2.96641e-14 0)
(2 -1.35757e-14 0)
(2 -2.51603e-14 0)
(2 -1.32227e-14 0)
(2 -3.03477e-14 0)
(1.9241 0.112659 0)
(1.83058 0.228843 0)
(1.99181 0.00662251 0)
(2 -2.03138e-13 0)
(1.83375 0.226768 0)
(2.09907 -0.264562 0)
(2 2.52163e-15 0)
(2 1.14076e-13 0)
(2 9.78626e-14 0)
(1.90814 0.13599 0)
(2 7.16697e-14 0)
(1.9684 0.0552039 0)
(2 -1.44244e-13 0)
(1.84517 0.212411 0)
(1.83212 0.228146 0)
(2 -7.96113e-14 0)
(2.14243 -0.262168 0)
(2 3.63005e-14 0)
(1.82905 0.228427 0)
(2 1.2421e-14 0)
(2 -3.36757e-14 0)
(1.83138 0.229012 0)
(1.84209 0.217526 0)
(2 4.70033e-14 0)
(1.82745 0.229203 0)
(2 -9.11332e-14 0)
(2.14826 -0.265097 0)
(2 7.76822e-15 0)
(2 -6.48733e-14 0)
(2 -1.94453e-15 0)
(1.83044 0.232744 0)
(1.83499 0.225329 0)
(1.85081 0.206226 0)
(2 -1.81266e-14 0)
(1.83006 0.227094 0)
(1.8314 0.228766 0)
(2 8.64523e-14 0)
(1.83072 0.229259 0)
(2 -8.60014e-09 0)
(1.83197 0.228191 0)
(2 3.35071e-14 0)
(2.09295 -0.273033 0)
(2.00713 -0.0159847 0)
(2.107 -0.273255 0)
(2 -3.4206e-11 0)
(2 -2.41719e-11 0)
(2 -3.61591e-11 0)
(2 -5.45714e-14 0)
(2 -1.47761e-11 0)
(1.83211 0.228714 0)
(2 2.75554e-14 0)
(1.83171 0.228686 0)
(2 -4.27434e-11 0)
(2 -9.64736e-11 0)
(2 -1.38518e-14 0)
(1.84005 0.219516 0)
(2 1.95711e-13 0)
(2.11886 -0.262556 0)
(1.83136 0.228924 0)
(2 4.43026e-14 0)
(2.09365 -0.261013 0)
(2.1202 -0.247501 0)
(2.12674 -0.258651 0)
(2 -7.22384e-14 0)
(1.91718 0.122551 0)
(1.98742 0.0195653 0)
(1.83065 0.229561 0)
(1.83148 0.228731 0)
(2 -4.15843e-14 0)
(2 -3.27302e-07 0)
(2 -4.29588e-08 0)
(2 -1.87002e-13 0)
(1.83138 0.228783 0)
(2 -1.86473e-14 0)
(2 1.38757e-13 0)
(1.83154 0.228709 0)
(1.83175 0.228772 0)
(2 8.8543e-15 0)
(1.94048 0.0916832 0)
(1.99972 0.000948109 0)
(2 -1.00862e-13 0)
(2.00112 -0.00199577 0)
(1.82995 0.228615 0)
(2.04829 -0.0998808 0)
(2 -1.22527e-07 0)
(2.05679 -0.128528 0)
(2.10473 -0.262244 0)
(2.10817 -0.263127 0)
(1.98116 -0.0673588 0)
(1.83082 0.228837 0)
(1.83376 0.226439 0)
(1.96291 0.0561996 0)
(1.8316 0.228984 0)
(1.83149 0.229035 0)
(2 9.18763e-14 0)
(2 3.06236e-14 0)
(1.82917 0.228723 0)
(1.82787 0.228466 0)
(1.83165 0.228858 0)
(1.82858 0.227243 0)
(2 -1.57646e-13 0)
(1.83123 0.228998 0)
(2.08499 -0.265042 0)
(1.82961 0.230586 0)
(1.83111 0.228047 0)
(1.82824 0.227757 0)
(1.83043 0.228909 0)
(2.04835 -0.0939584 0)
(2.03091 -0.0650131 0)
(2.02184 -0.0540891 0)
(1.83243 0.229478 0)
(2.01328 -0.0283722 0)
(1.83183 0.228721 0)
(2 -8.54542e-14 0)
(2 4.62329e-15 0)
(1.83061 0.229642 0)
(1.83057 0.228624 0)
(2 -4.77099e-13 0)
(2.12313 -0.26242 0)
(1.83176 0.228158 0)
(1.83189 0.229136 0)
(2 8.63194e-14 0)
(1.83134 0.228968 0)
(1.83145 0.228864 0)
(2 3.70926e-14 0)
(1.83116 0.228754 0)
(2.10814 -0.26757 0)
(1.83048 0.230068 0)
(1.8298 0.228666 0)
(1.83124 0.228864 0)
(1.831 0.228327 0)
(2 -2.47205e-13 0)
(2 -3.62021e-13 0)
(2 -1.06348e-07 0)
(1.83211 0.229136 0)
(1.89155 0.158444 0)
(2.12357 -0.246466 0)
(1.83187 0.228961 0)
(2.11226 -0.280542 0)
(1.83191 0.229307 0)
(2 -1.85294e-14 0)
(2 1.24766e-13 0)
(2 -3.05546e-14 0)
(2 -1.18318e-13 0)
(1.83006 0.229596 0)
(1.83188 0.229189 0)
(2 1.13935e-13 0)
(2 1.02056e-13 0)
(1.83152 0.229049 0)
(2.11177 -0.276198 0)
(1.83103 0.229459 0)
(2.10778 -0.265859 0)
(2 4.69194e-14 0)
(1.83292 0.227689 0)
(2 3.83585e-14 0)
(2.0516 -0.257917 0)
(1.83127 0.229816 0)
(2.08796 -0.195463 0)
(2 -4.20849e-14 0)
(1.83142 0.228794 0)
(1.83074 0.230183 0)
(1.83219 0.228581 0)
(2 -1.6677e-15 0)
(2 4.64078e-14 0)
(1.91564 0.121365 0)
(1.83083 0.229698 0)
(2.10139 -0.260755 0)
(1.83177 0.228883 0)
(2 -3.08087e-14 0)
(1.83149 0.229283 0)
(2.03581 -0.0819682 0)
(1.83239 0.228858 0)
(2.11384 -0.261973 0)
(2 -8.32987e-14 0)
(1.83202 0.229154 0)
(2.12081 -0.232119 0)
(1.83072 0.229666 0)
(2.11221 -0.269387 0)
(2 7.75123e-14 0)
(1.83099 0.229028 0)
(2 2.49769e-14 0)
(1.83064 0.229002 0)
(2 2.18895e-13 0)
(1.90125 0.140588 0)
(1.83777 0.221805 0)
(1.86706 0.188011 0)
(2.1399 -0.27217 0)
(2 -4.01408e-13 0)
(1.83142 0.229305 0)
(2 -5.36929e-15 0)
(1.83168 0.229493 0)
(2 -1.139e-07 0)
(1.83167 0.229191 0)
(2 -2.41092e-07 0)
(2 -3.42072e-13 0)
(1.83138 0.228471 0)
(2.00172 -0.00653756 0)
(1.8304 0.229958 0)
(2.07227 -0.265805 0)
(1.85992 0.200171 0)
(2 -9.15869e-14 0)
(1.88107 0.169817 0)
(2 1.69775e-14 0)
(1.8309 0.227797 0)
(1.83182 0.229054 0)
(1.83087 0.228014 0)
(2 -1.75421e-14 0)
(1.84831 0.20979 0)
(1.8315 0.229374 0)
(1.84427 0.215245 0)
(1.89425 0.153479 0)
(1.83869 0.22617 0)
(2 -6.54268e-14 0)
(1.88784 0.163451 0)
(2 1.88962e-14 0)
(1.83129 0.228541 0)
(2 -3.11335e-13 0)
(1.97571 0.0328276 0)
(2 -7.54648e-14 0)
(1.84306 0.215461 0)
(2 7.17304e-14 0)
(1.83166 0.229563 0)
(1.83906 0.219767 0)
(1.83979 0.219493 0)
(2 -4.42885e-15 0)
(1.83376 0.232189 0)
(2.12338 -0.258189 0)
(2 7.47276e-14 0)
(2.1354 -0.261286 0)
(2 -2.96663e-13 0)
(2 1.20475e-13 0)
(2 -5.41203e-14 0)
(1.82912 0.228791 0)
(2 2.89165e-14 0)
(1.8315 0.229341 0)
(2 -5.20447e-15 0)
(2 -2.22523e-14 0)
(2 5.04502e-14 0)
(1.83102 0.22919 0)
(1.82958 0.232298 0)
(1.87145 0.187787 0)
(1.83066 0.229249 0)
(1.83009 0.230572 0)
(2.11878 -0.263023 0)
(1.82954 0.229867 0)
(1.83074 0.228887 0)
(2 -4.71593e-14 0)
(1.84712 0.211635 0)
(1.83182 0.228806 0)
(1.84179 0.218471 0)
(2 -3.71129e-13 0)
(1.82966 0.228456 0)
(1.82896 0.228325 0)
(2 -2.34732e-13 0)
(1.8268 0.23016 0)
(1.83097 0.228921 0)
(1.83106 0.228757 0)
(1.83073 0.229715 0)
(2 6.32066e-14 0)
(2 -3.78568e-14 0)
(2 4.23632e-14 0)
(1.83155 0.229435 0)
(2.1238 -0.258719 0)
(2 -1.57926e-13 0)
(1.8314 0.229008 0)
(2 -1.40986e-13 0)
(2 8.72074e-14 0)
(2.14322 -0.255906 0)
(2 1.61598e-14 0)
(2 1.38287e-13 0)
(1.83133 0.228999 0)
(1.83182 0.229121 0)
(2 9.35594e-14 0)
(1.83188 0.228997 0)
(1.83091 0.233165 0)
(1.83078 0.228681 0)
(2.00683 -0.0169956 0)
(1.83147 0.228945 0)
(2 -1.72492e-14 0)
(1.83137 0.228962 0)
(1.83151 0.228888 0)
(1.87703 0.179204 0)
(2 -2.54858e-14 0)
(2 -1.29005e-13 0)
(2 5.67788e-14 0)
(1.83094 0.230204 0)
(1.831 0.228825 0)
(1.83162 0.228998 0)
(2.02072 -0.0427758 0)
(2 -1.90999e-15 0)
(1.82907 0.23221 0)
(1.83109 0.229014 0)
(1.83146 0.228828 0)
(2 1.16343e-14 0)
(1.83117 0.22888 0)
(1.8314 0.228741 0)
(1.83126 0.228916 0)
(1.82946 0.232864 0)
(2 -1.07848e-13 0)
(1.83204 0.228749 0)
(1.82967 0.232106 0)
(1.85539 0.20242 0)
(1.83198 0.229532 0)
(1.83007 0.232094 0)
(2 -1.16193e-14 0)
(1.82846 0.233435 0)
(1.83325 0.227098 0)
(1.83158 0.228981 0)
(1.8303 0.229761 0)
(1.83196 0.228746 0)
(2.11995 -0.26255 0)
(1.83126 0.228926 0)
(1.83152 0.229884 0)
(2 -3.01456e-14 0)
(1.83118 0.228875 0)
(1.83147 0.228854 0)
(1.8313 0.228852 0)
(1.83201 0.228994 0)
(2 -6.07883e-08 0)
(1.83186 0.229035 0)
(1.83147 0.229249 0)
(2 -1.6861e-07 0)
(1.83239 0.229119 0)
(1.85877 0.197256 0)
(2 -9.26111e-14 0)
(2 5.85586e-14 0)
(2 1.16912e-09 0)
(1.83111 0.230054 0)
(1.83027 0.228896 0)
(2 -3.54225e-14 0)
(2 -7.46438e-14 0)
(1.90928 0.132424 0)
(2 -3.22108e-13 0)
(1.83154 0.228627 0)
(2 1.60854e-13 0)
(2 4.60034e-14 0)
(1.83144 0.229121 0)
(1.8307 0.229509 0)
(1.83143 0.228707 0)
(1.83162 0.228882 0)
(2 2.31159e-15 0)
(2 5.69174e-14 0)
(2 -1.41806e-14 0)
(1.8832 0.165706 0)
(2 -1.1954e-14 0)
(1.8317 0.229113 0)
(2 -1.17031e-13 0)
(2 -1.32456e-13 0)
(1.82921 0.228648 0)
(1.82993 0.228822 0)
(2 3.1549e-15 0)
(1.83168 0.228959 0)
(2.10173 -0.285099 0)
(1.83121 0.22872 0)
(1.83099 0.229809 0)
(2.09224 -0.20002 0)
(2 -1.48712e-14 0)
(2.11878 -0.277082 0)
(1.85139 0.205118 0)
(1.83189 0.230196 0)
(1.83142 0.229519 0)
(1.83157 0.229897 0)
(2.13468 -0.255817 0)
(1.83144 0.229283 0)
(1.8314 0.229403 0)
(2.13445 -0.255472 0)
(2.11418 -0.2813 0)
(2 -2.50832e-07 0)
(1.83132 0.229872 0)
(1.83182 0.228757 0)
(2 -7.02899e-14 0)
(2 1.08723e-14 0)
(1.83166 0.22902 0)
(2 -1.10749e-13 0)
(1.83227 0.227943 0)
(2 2.53491e-06 0)
(1.85315 0.203436 0)
(2 -1.39155e-13 0)
(1.92255 0.115145 0)
(1.83161 0.228997 0)
(1.83095 0.230276 0)
(1.8773 0.172019 0)
(1.84592 0.206703 0)
(1.82948 0.228952 0)
(1.83039 0.229308 0)
(1.8558 0.208683 0)
(2 1.65639e-13 0)
(2.10159 -0.267031 0)
(1.82997 0.23001 0)
(1.8319 0.229088 0)
(1.82773 0.231082 0)
(2 6.75977e-06 0)
(2 2.40263e-10 0)
(2 1.52193e-09 0)
(1.82859 0.22923 0)
(2 8.04654e-14 0)
(1.83199 0.22904 0)
(1.83253 0.229091 0)
(2.08842 -0.176926 0)
(2 4.18941e-14 0)
(1.83175 0.229122 0)
(2.00002 -4.9372e-05 0)
(2 4.79774e-14 0)
(1.99999 1.89992e-05 0)
(1.99998 2.7101e-05 0)
(1.83191 0.22898 0)
(1.83043 0.228579 0)
(2.00053 -0.000923507 0)
(2 -9.04873e-14 0)
(2 -5.50704e-15 0)
(1.83158 0.229245 0)
(1.83077 0.229562 0)
(1.83159 0.228764 0)
(1.82917 0.230286 0)
(1.83142 0.228005 0)
(2.11258 -0.247857 0)
(1.86287 0.190943 0)
(2 -2.85692e-14 0)
(1.83297 0.227558 0)
(1.83168 0.228938 0)
(1.83196 0.22879 0)
(1.83298 0.235716 0)
(2 -6.00364e-14 0)
(1.83188 0.228974 0)
(1.83604 0.223831 0)
(1.83091 0.229576 0)
(2 -2.17657e-13 0)
(1.83043 0.228696 0)
(1.83112 0.229785 0)
(2.04863 -0.0966173 0)
(1.83192 0.228854 0)
(1.83049 0.228793 0)
(2 -1.07452e-13 0)
(1.83136 0.228599 0)
(2.05641 -0.109354 0)
(1.83058 0.228838 0)
(2.05236 -0.0989523 0)
(1.83166 0.229014 0)
(2 -1.19266e-07 0)
(1.83135 0.228932 0)
(1.82332 0.232489 0)
(1.83181 0.229034 0)
(1.83172 0.229177 0)
(1.83138 0.22878 0)
(1.83075 0.22833 0)
(1.83133 0.22935 0)
(1.82898 0.22738 0)
(2 -3.51367e-14 0)
(2.02437 -0.0485963 0)
(1.83095 0.229085 0)
(1.83164 0.228814 0)
(2.05673 -0.107533 0)
(1.83172 0.228794 0)
(1.99942 -0.0163033 0)
(1.89992 0.155759 0)
(1.83118 0.229138 0)
(1.83112 0.228714 0)
(1.83009 0.230034 0)
(2 -8.33552e-14 0)
(1.83043 0.229813 0)
(1.8915 0.167686 0)
(1.83049 0.229995 0)
(2.02788 -0.0504204 0)
(1.83059 0.22979 0)
(1.82591 0.231909 0)
(2 2.36641e-14 0)
(2.04369 -0.0881711 0)
(2 -4.254e-09 0)
(1.8343 0.225287 0)
(2 -6.62191e-14 0)
(1.88369 0.168566 0)
(2 4.4955e-09 0)
(1.839 0.231714 0)
(2.04366 -0.0864665 0)
(2 -3.11356e-14 0)
(1.83115 0.230091 0)
(1.8267 0.231496 0)
(2 2.98844e-14 0)
(1.83039 0.229757 0)
(1.83056 0.229681 0)
(1.8299 0.231941 0)
(1.82706 0.232661 0)
(1.82927 0.234031 0)
(2 -4.58602e-13 0)
(1.82975 0.22845 0)
(2 2.56027e-15 0)
(2 1.68164e-14 0)
(2 -2.94983e-14 0)
(2.03415 -0.0656931 0)
(1.83159 0.229021 0)
(1.83143 0.228728 0)
(1.8318 0.229825 0)
(1.83177 0.228929 0)
(1.83474 0.22653 0)
(1.83014 0.228876 0)
(1.8291 0.231726 0)
(1.83157 0.229302 0)
(2.03254 -0.0663672 0)
(1.98904 0.0220619 0)
(2 3.52672e-09 0)
(2 2.52385e-14 0)
(1.82468 0.232115 0)
(1.83164 0.229211 0)
(1.83139 0.229036 0)
(1.83156 0.229056 0)
(1.99999 1.66147e-05 0)
(1.91515 0.128083 0)
(2 -1.69703e-07 0)
(1.82652 0.230517 0)
(1.85951 0.199885 0)
(2 -2.92567e-12 0)
(2 -5.76944e-11 0)
(2.07526 -0.195 0)
(1.8315 0.228905 0)
(2 -1.62148e-13 0)
(2 1.98824e-14 0)
(2.08447 -0.26108 0)
(1.83139 0.228916 0)
(2 -2.04632e-13 0)
(1.83104 0.228819 0)
(1.8316 0.229016 0)
(1.82961 0.228791 0)
(1.83823 0.221427 0)
(1.83131 0.228867 0)
(2 -7.81428e-11 0)
(2.12723 -0.266724 0)
(1.95568 0.0667475 0)
(1.83134 0.228799 0)
(1.83124 0.228897 0)
(2 -2.45033e-13 0)
(1.83216 0.228605 0)
(1.83127 0.228948 0)
(1.91573 0.125362 0)
(1.99893 0.00515005 0)
(1.96789 0.0540936 0)
(2 -2.5316e-14 0)
(1.83058 0.228971 0)
(1.8312 0.228613 0)
(2 -1.23518e-07 0)
(2 -1.85879e-10 0)
(2.13582 -0.254762 0)
(2 -2.45543e-10 0)
(2 6.01812e-14 0)
(1.83182 0.228961 0)
(1.83154 0.229062 0)
(1.83127 0.22857 0)
(1.83145 0.229035 0)
(1.83106 0.229015 0)
(1.8275 0.231692 0)
(1.83149 0.229082 0)
(1.83012 0.229676 0)
(1.83162 0.228772 0)
(2 -3.00038e-14 0)
(2.00144 -0.00239162 0)
(1.83086 0.228878 0)
(1.83163 0.229382 0)
(2.00102 -0.00172138 0)
(1.83134 0.228961 0)
(1.83132 0.228893 0)
(2.13246 -0.257126 0)
(2.09716 -0.275053 0)
(1.83205 0.227833 0)
(1.83138 0.228848 0)
(2 -1.75765e-13 0)
(2 1.0789e-13 0)
(1.99956 0.00173006 0)
(1.83171 0.229025 0)
(1.83156 0.227824 0)
(1.83144 0.228976 0)
(2 1.00211e-09 0)
(1.8314 0.228956 0)
(2 -7.2044e-14 0)
(2.04947 -0.0975448 0)
(1.8273 0.230758 0)
(1.83713 0.229666 0)
(2 -1.52265e-13 0)
(1.92162 0.110446 0)
(1.8316 0.22911 0)
(2 1.01781e-13 0)
(1.82923 0.230064 0)
(2 -1.04812e-10 0)
(1.83211 0.228812 0)
(1.89324 0.153299 0)
(1.83193 0.229065 0)
(2 1.27674e-11 0)
(1.83138 0.229336 0)
(1.82871 0.230058 0)
(2.13394 -0.255245 0)
(1.83158 0.229111 0)
(2 -1.36282e-07 0)
(1.8309 0.229942 0)
(1.83038 0.228731 0)
(2 7.38585e-09 0)
(2.12589 -0.257414 0)
(1.83009 0.230396 0)
(1.86056 0.194227 0)
(2.00058 -0.000970745 0)
(1.82997 0.228044 0)
(1.83142 0.228844 0)
(2 -5.2064e-12 0)
(1.99796 0.00168318 0)
(1.82912 0.229291 0)
(2.00185 -0.00213388 0)
(1.83122 0.229009 0)
(2 -3.26434e-12 0)
(2 2.29988e-13 0)
(1.831 0.229673 0)
(2 -2.51679e-14 0)
(1.8306 0.230096 0)
(1.83127 0.228936 0)
(2.00147 -0.00223182 0)
(1.85862 0.196833 0)
(2 2.85306e-09 0)
(1.83129 0.228922 0)
(2 -2.09569e-10 0)
(2 -6.31e-13 0)
(2 1.01955e-11 0)
(2 7.71047e-12 0)
(1.8316 0.229089 0)
(2 7.29209e-09 0)
(2 1.98562e-15 0)
(1.82872 0.234733 0)
(2 -3.42208e-14 0)
(1.83117 0.229105 0)
(2 3.08215e-10 0)
(1.89156 0.154121 0)
(1.82961 0.22858 0)
(1.83155 0.22897 0)
(2 6.66099e-10 0)