/*--------------------------------*- C++ -*----------------------------------*\
  =========                 |
  \\      /  F ield         | OpenFOAM: The Open Source CFD Toolbox
   \\    /   O peration     | Website:  https://openfoam.org
    \\  /    A nd           | Version:  12
     \\/     M anipulation  |
\*---------------------------------------------------------------------------*/
FoamFile
{
    format      ascii;
    class       volScalarField;
    location    "9.96";
    object      T;
}
// * * * * * * * * * * * * * * * * * * * * * * * * * * * * * * * * * * * * * //

dimensions      [0 0 0 1 0 0 0];

internalField   nonuniform List<scalar> 
22702
(
1
1
0.962993
1
1.01788
1
1.12015
1
1
0.878602
1.12107
1.12015
1
1.11862
0.969165
1
1
1
1.1206
1
1.1186
1
1.1183
0.900348
1.11807
0.89466
1
1.11977
0.877258
0.89641
1
1.11995
1
1
1
1.11058
1.11794
1.11848
1
1
0.879311
1
1.06295
1
1.11935
1
1
1
1
0.900269
1
0.900629
1
1.12105
1
1.11988
1
1
1
1
0.889644
1
1
0.884477
1
0.912345
1
1
1
0.874076
1
1.11887
1.07591
1
1.1189
1.1257
0.909197
1.12025
0.899581
1
1.12127
0.896394
1.11892
1.11962
1
1
1
1
0.982545
0.873787
1.12028
1
1
0.890835
1
1.11883
0.893602
1
1
1
1
1.06226
1.12081
0.892875
1
1
1.03273
1
0.89656
1
1.11976
1.12011
1
1
0.885844
0.886227
0.875394
1
1
1
1
1
0.977402
1
1.10288
1.01294
1.12044
1
1.12013
1.1205
1.1184
1.12157
1
0.875257
1
0.904186
1
1
1
1
1.1201
1
1
1
1
1.11856
1
1.00727
1
1
1
1
0.898656
1
1.00308
1
0.900706
1
1
1
1.11978
1
1.11826
0.88215
0.88975
1.11967
1.11932
1
1.02298
1.07151
1
1.11999
0.898765
1.11071
1
1
1
1
1.11864
1.10295
1
1.1203
0.904197
1.11973
1
0.893942
1
0.900219
0.892859
0.999935
1
1
1.11953
1
1
1.11871
1
1.11862
1.12031
0.897245
1
1
0.896503
1.11854
1
1
1
1.11863
1
0.875531
1
1
1.1186
1.11848
1.11889
1
1.00001
1
1
1
1.11863
1
0.91834
1.1245
1.11857
1.11832
1
1
1
0.892835
1.11883
1.05928
1
1.1189
0.899355
0.883727
1.11891
1.11908
1
1.12026
0.887674
1.10612
1
1
1
1
1.11872
1
1.07238
1.01261
1
1
1.11871
0.89794
0.935309
1
1.11915
0.874604
1.11818
1
1
1
1
1
1
1
0.896441
0.931443
0.888151
1.11869
1
1
1
1
1.1097
1
0.896234
1
0.889806
0.89719
1.11846
0.905966
1.11865
1
1
1
0.999335
0.893866
0.881455
1
1
0.888372
1
1.12005
0.890777
1
1
1.12164
0.878403
1
1.11839
0.890911
1.1187
1
0.89271
0.999357
1
1
1
0.900171
1
1
1
1
1.0072
1.07614
1
0.903545
1
1
1
1
1
1
1
1.12167
1
1.12048
1
1
1
0.882767
1
1.11848
0.905728
1
1.09754
1
1
1.12111
1
1
1
1.11732
1
1
1.11415
1.12115
1
1.02826
1
1
0.904126
1
1
1
0.891032
1
1
1
1
0.893925
1
1
1
1
1
0.881161
1.00002
1.11869
1
0.999996
1.11921
1.11985
1
1
0.901758
0.949298
1.12012
1
1
1
1.11862
0.876338
1
1.11836
1
1
0.918301
0.91642
1
0.891309
0.884288
1
1
1
1
1
1
1
1.12092
1.0331
1.11155
0.882545
0.970796
1.12038
1
1.11905
1.12012
0.898098
0.938749
1
0.875225
1
1.12382
1
1
1
1
1.11862
1
1
1
1
1
1
1
1.048
1.1191
1
1.11843
1
1
0.896729
1
1
1
1
1.11858
1.09233
1
1
0.893268
1.11834
1.11863
1
1.11866
1.11853
1.11842
1
0.952087
1
1.11835
0.996722
1.1184
1
0.885253
0.999695
1.12091
1
1
1
1
0.895177
1.11863
1.10867
1
1.11879
1.11851
1.12012
1
1.05974
1.11827
1
1
1.08576
1.01921
1.11853
0.982875
1.11855
1
1.11847
1.11876
1.11854
1.11833
1
1.1126
0.97215
0.967373
1
1
1
1
1.11988
1
1
1
1
1
1.12061
1
1
0.998896
1.11862
1.10782
1
1.10012
1.00001
1
1
1.11839
1
0.998953
1.00138
1
1.11877
1
1.11858
1
1
1.09053
1
1.11819
1.00001
1
1.11806
1
1.11858
1
1
1
1.11873
1
1.11895
1
1.11868
1.12048
1.11861
1.1204
1
1.12147
1.12196
1
0.892783
1.11212
1.08721
1
1.11869
1
0.902037
0.89133
1
1
1
1
1
0.891556
1
1.11853
1.03137
1.11833
1
1
1
1
1
1.1188
1
1.12
1.07366
0.937538
1
1
1.03666
1.0318
1
1
1.04784
1
0.898046
1.11838
1.11847
1
1
1
1.12007
1
1.00001
1.11818
1.11854
0.989003
1
1
0.899579
1.10849
1
1
1
1
1
1.11859
1.12141
1
1.11845
1.11843
1.1187
1
1
1
1
0.891685
1.12049
1
1
1.10884
1.11825
1
1.11238
1.1193
1
1
1
1
1
1.11858
1
1
1
1
1.1199
1
1.11762
0.880753
1
0.895994
1
1
1
0.99901
0.895289
0.999729
1
1
1
1.01789
1
1
0.962449
1
1
1
1
1
1
1
0.999999
0.977331
1
1
0.999287
1
0.89537
1
1
1
1
1.09108
1
1
1
1
0.899105
1
1
1.11238
1.12076
1
1
1
0.972077
1
1
1
1
1
1
0.983475
1.00187
1.11873
1
1
1
1.11906
0.974261
1
1
1
1.11884
1.11995
1
1
1
1
1
1
1
1
1
0.884357
1
1
1.11948
0.875847
1
1.1194
1
0.898169
1
1
0.886242
1
1
1
1
1
1
1
1.11646
1.1183
1
1
1
1
1.10908
1
1.03876
0.890238
1
1
1
1
1
1
1
1.01005
1
1
1.0654
1
1
1
1.0997
1
1
1
1
0.881994
1
1
0.877666
0.880953
1
1
1.11847
1
1.0121
1
1
1
1.08596
0.895239
1
0.891767
1
0.940978
1
1
1
1.11877
1
1
1.11834
1
1
1
1.11832
1
1
1.11845
1
1
0.898426
1
1.04035
1
1
1.12022
1.12069
1.08252
1.1075
1
0.885496
1
1
1.11378
1
0.88848
1
1
1
1.11903
1
1
1
1
1.07442
1
1.11376
1.12001
0.875554
1
1
0.896314
0.896137
1
1
1
1.08705
1.09184
1
1
1
1
1
1
1
1.05405
1.12066
1.00541
1
1.11728
0.880379
1
1
1
1.06777
1
1.02612
1
1.10911
1.11821
1
0.886978
1
1.11994
1
1
1.1188
1.11202
1
1.12205
1
0.89003
1
1
1
1.12081
1.11637
1.10572
1
1.11864
1.11856
1
1.11917
1
1.11823
1
0.878146
0.995167
0.880865
1
1
1
1
1
1.11858
1
1.11865
1
1
1
1.1133
1
0.902906
1.1185
1
0.881144
0.904152
0.896241
1
1.06196
1.01395
1.11897
1.11852
1
1
1
1
1.11854
1
1
1.11846
1.11849
1
1.0454
0.999943
1
0.99909
1.12055
0.952451
1
0.941004
0.899027
0.898329
1.00524
1.11871
1.11718
1.0276
1.11857
1.11844
1
1
1.12197
1.11945
1.11851
1.12113
1
1.11875
0.890095
1.11894
1.11851
1.11921
1.11858
0.966263
0.969594
0.973586
1.11846
0.988117
1.11832
1
1
1.11908
1.11854
1
0.874847
1.11915
1.11825
1
1.11865
1.11858
1
1.11854
0.886264
1.11869
1.12166
1.12083
1.11723
1
1
1
1.11825
1.08026
0.904949
1.11832
0.877787
1.11825
1
1
1
1
1.11941
1.11843
1
1
1.11862
0.879749
1.11888
0.896703
1
1.11776
1
0.880934
1.11876
0.926199
1
1.11851
1.11893
1.11846
1
1
1.05864
1.11882
0.894302
1.11842
1
1.11883
0.960987
1.11863
0.887976
1
1.11893
0.905633
1.11909
0.895203
1
1.11892
1
1.1185
1
1.07187
1.11463
1.09511
0.889571
1
1.11873
1
1.11869
1
1.1187
1
1
1.11854
0.996815
1.11916
0.881125
1.10743
1
1.08692
1
1.11864
1.11863
1.11877
1
1.10777
1.11871
1.11079
1.07615
1.11917
1
1.08202
1
1.11887
1
1.01772
1
1.11047
1
1.11867
1.11374
1.1134
1
1.11727
0.892705
1
0.883246
1
1
1
1.12016
1
1.11879
1
1
1
1.11903
1.11715
1.09945
1.11906
1.1191
0.895757
1.11744
1.11911
1
1.10583
1.11852
1.1131
1
1.12009
1.12003
1
1.11995
1.11875
1.11854
1.11889
1
1
1
1.11867
0.895046
1
1.11856
1
1
0.89107
1
1
1.11845
1.1187
1
1.11858
1.12022
1.11865
0.997811
1.1186
1
1.11853
1.11851
1.09654
1
1
1
1.11903
1.11862
1.11863
0.985618
1
1.12069
1.11868
1.11877
1
1.11853
1.11886
1.11854
1.1211
1
1.11842
1.11889
1.10533
1.11883
1.12069
1
1.12032
1.11736
1.11861
1.11963
1.11865
0.893187
1.11867
1.1191
1
1.11877
1.11854
1.11865
1.11845
1
1.11867
1.11864
1
1.11836
1.10189
1
1
1
1.11916
1.11819
1
1
1.0671
1
1.11846
1
1
1.11841
1.1189
1.11857
1.11842
1
1
1
1.08671
1
1.11853
1
1
1.12181
1.12171
1
1.11846
0.887653
1.11862
1.11864
0.91332
1
0.892532
1.10531
1.1182
1.1188
1.11892
0.883932
1.11877
1.11878
0.887392
0.879144
1
1.11908
1.11833
1
1
1.11861
1
1.11917
1
1.10501
1
1.05877
1.11854
1.11891
1.08729
1.10843
1.11927
1.11898
1.11129
1
0.884206
1.11929
1.11853
1.11962
1
1
1
1.11995
1
1.11866
1.11854
0.932515
1
1.11848
0.999983
1
1.00001
1.00001
1.1184
1.11853
0.999566
1
1
1.1186
1.11894
1.11846
1.11903
1.11877
0.897948
1.10108
1
1.11769
1.11862
1.11873
1.11597
1
1.11857
1.11572
1.1189
1
1.11876
1.11934
0.965961
1.11848
1.11911
1
1.11855
0.952107
1.11862
0.965482
1.11854
1
1.1187
1.12315
1.11864
1.11869
1.11867
1.12013
1.11876
1.11875
1
0.980799
1.11869
1.11862
0.948039
1.1185
0.992496
1.07684
1.11873
1.11913
1.11948
1
1.11911
1.08139
1.11933
0.980947
1.11911
1.12101
1
0.956751
1
1.1167
1
1.08454
1
1.11686
0.961093
1
1.12002
1.12022
1
1.11965
1.11899
1.12021
1.12132
1.12063
1
1.1211
1
1
1
0.971739
1.11824
1.11819
1.11868
1.11846
1.1188
1.11875
1.11905
1.11879
0.973756
1.00897
1
1
1.12296
1.11866
1.11848
1.1185
1.00001
1.06376
1
1.11968
1.10308
1
1
0.918227
1.11853
1
1
0.881365
1.11847
1
1.11955
1.1185
1.11927
1.11459
1.11869
1
0.891417
1.03098
1.11851
1.11876
1
1.11843
1.11846
1.06563
1.0031
1.02722
1
1.11857
1.11881
1
1
0.891515
1
1
1.11855
1.11855
1.11817
1.11858
1.11856
1.1206
1.11862
1.11891
1.11853
1
0.998856
1.11872
1.11863
0.999077
1.11851
1.1185
0.895432
0.875374
1.11791
1.11922
1
1
1.0006
1.11845
1.11807
1.11845
1
1.11845
1
0.953797
1.11978
1.12008
1
1.05471
1.11849
1
1.12034
1
1.11839
1.08354
1.11848
1
1.11859
1.11614
0.893027
1.11868
1
1.11898
1.12054
1
0.899031
1.11943
1.09916
0.999356
1.11546
1.11851
1
1.00307
1.11961
0.999356
1.11875
1
1
1.11907
1
1.11962
1.11852
0.998949
1.09485
1
1.11852
1
1
1
1
1.11852
1
1
1.11981
1
1.11873
1
1.07777
1.11805
1.11823
1
1
1.00338
1
1.11888
1.11859
1.1191
1.11869
1.11882
1.11854
1.11879
1
1.11842
1.11855
1
1.11873
1.11847
1
1.11836
0.98061
1.01738
1.11848
1.1185
1.1187
1
1.11869
1
1.11853
1.11859
1
1.1182
1
1
1
1
1.11848
0.889797
0.999389
1
1.11868
1.11724
1
1.11842
1
1.00145
0.891491
1.1186
0.999886
1
1.11865
0.999511
1.1187
1
0.999934
1
1.11898
1.1198
1.11831
1.1189
0.893166
1.11893
1.11882
1.11859
1.03239
1
1
1.05454
1.11854
0.892153
0.894423
1
1.11873
1.11847
1.11822
1
1
1.11844
1.11832
0.999965
1
1.08756
0.885379
1
1.02312
1.12098
1.11908
0.999502
1.11847
1.12088
1
0.999594
1
1.11874
1.12018
1.05031
1
1.11108
1
1.00034
1.1181
0.878808
1.11872
1.11863
0.999139
0.999975
1.10504
1
0.999912
1
1.11887
1
1
0.892392
1.11865
1
1
1
1
1.12111
1.0712
1
1
0.886121
1.11864
1.07122
1
1
1
1.11352
1.12007
1.11923
1
1
1.11717
1
1.11857
1.11867
1
1
1.11903
1.11863
1.11462
1
1
1.11912
1.11868
1
1
1
1.11862
1
1
1
1.11843
1.11943
1.11895
1
1.12019
1.00001
0.910754
1.11868
1.1184
1
1.12037
1.11538
1.12134
1
1
1.11905
1
1.06964
1.11852
1
0.89916
1
1.1189
1
1
1.11911
1
1
1
1.04046
1.1185
0.901048
1
1.11875
1
1
1.1188
1
1.11926
1
1
1.11851
1.11858
1
1.00001
1
1
1
1
1
1
1.11834
1.11868
1
1.11954
0.889846
1.12023
1
1.1188
1.11973
1.11858
1.12095
1.1219
1
1
1.11925
1
1.07892
1.12
1.11832
1
1.11951
1.11982
1
1.10981
1
1.11867
1.07874
1.11915
0.999256
1.11745
1.1101
1.11936
1.11858
1.01049
1.11852
1.11944
1
1.11842
1
1.11868
1
1
1
1
0.998871
1.11847
1.11865
1.10279
1
1.11909
1
1
1
0.889435
1
1.11564
1
1.10894
1.11438
1
1
1
1.10928
1.12164
1
1
1.1189
0.887842
1.02271
1
1.1197
1.11869
1.10915
1.116
1.11856
1
1.11905
1
1
1
1
1.11863
1.11876
1
1.11257
1.017
1.1185
1.11137
1
1
1.1117
1
1
0.898851
1.08574
1
1
1.11897
1
1.11963
1.10842
1
1.10815
0.888788
1.11863
1.11835
1.11863
1
0.897867
1
1
1
1.11871
1.09918
1
1.12005
1.11827
1
1.11864
1
1
1
1
1.11826
0.999807
1
1.11897
1
1
1.11803
1.11864
1
1.11982
1.02312
1.00001
1
1.11857
1
1.11862
1
1.00391
1.11855
1
1.11853
1
1
1.04081
1.11853
1
1
1
1
1
0.998827
0.897483
0.892545
1.00585
1
1.00765
1
1.00769
1
1.11858
1
1.07242
1
1.11857
1
1
1
1.11858
1
1.09519
1.11849
1
1.06646
1.11897
1
1
1.11962
1.11836
1
1
1.0165
0.889627
1
1.11873
1
1
1
1
1.02196
1.11874
1
1
1
0.8829
1
1.11854
1.11869
1.12202
1
1
1
1
1.06175
1.1198
1
1
1
1.11921
1.11856
1.01589
1
1
1
1.11848
1.11855
1
0.900043
1.11871
1.11848
1.11851
1.1183
1.11847
1
1
1.11876
1.11898
1.11863
0.883812
1.01139
1.11843
1
1
1
1
1
1.11847
0.891859
1
1
1.11879
1.05642
1
1.11812
1
1
1
0.883686
1
1
1.03354
1.11868
1.11875
1
1.1186
1.11786
1
1.02258
1
1.11875
1
1.11856
0.887705
1
1
1
1
1.11865
1.00002
1
1
1
1.11698
1
1
1
1
1.11868
0.884935
1.09536
1.1192
1
1.11844
1
1
1
0.999194
1
1.12026
1
0.950178
1
1
1.00001
1.11902
0.878795
1
1.11808
1
1.11958
1.11851
0.877905
1
1
1.11194
1
1
0.892009
1
1.12011
1
1.11374
0.99981
1.11829
1
1
1
1
1.12043
1
1
1.11864
1
1
1
1
1
1
1
1
1.08088
1
1.04197
1.1187
1
1
1
0.896712
1
1
1
1
1.11834
1.11852
1.01735
1
1
1.11878
1
1
1.1184
1
1
1
1
1
1
1.11854
0.941737
1.1186
1.11894
0.999206
1
1
1
1.07234
1
1
1.11818
1.11851
1
1
1
1
0.877224
1
1
1
1.07801
1
1.11855
1.11927
1
1.11896
1
1
1
1.06705
1
1.12079
1
1.1185
1
1
0.998941
1.11859
1
1
1
1
1
1.11778
1.00001
1
0.898388
1.11913
0.902827
1
1.11858
1
0.998807
1
1.1187
1.11953
1
1.11618
0.966515
1.1186
1.11619
1.00001
1
1
0.889751
1
1
1
1.11846
1.07143
1.11978
1
1
1
1
0.999089
1.11925
1
0.887421
1
1
1
1
1
1
1
1.1205
1.11885
1.12022
1
1
0.999099
1
0.996405
1
1
1
0.893252
0.99684
1
0.884569
0.896665
1
1.1186
1.1187
1
1.11918
1.11854
0.888107
1.08452
1
1
1
0.887484
1.11871
1
0.886641
1
1.11901
1.02425
1
1
1
1
1.11864
1.11952
1
1
1.11856
1
1
1.12018
1.11847
1
1.10825
1.11877
1.12057
0.989705
1.11953
1.00227
0.887536
1.09273
1.11841
1
1
1
0.878845
1
0.899513
1.11996
0.989665
1.11854
0.987045
1
1.1183
1.05719
1
1
1.11927
1
1.05082
1.11814
1
1
1.11969
1.11991
0.896294
1.07007
0.999971
1
1.07544
1
1.11956
0.984967
1.12091
1.11867
1
1
1
1
1.11549
1
1
1.11858
0.999898
1.11879
1.09861
1.11939
0.894072
1
1
1
1
1.11852
1.00001
1.11851
1
1.11881
1.1189
1.01667
1.12085
1.04021
1.1189
1
1.08477
0.893773
1.11759
1.11845
1.09807
1.02416
1.11939
1.11861
1.11856
1.11903
1
0.975777
1.01847
1
1.11851
1.05871
1.11863
1.00001
1
1
0.898893
1.11815
1.11964
1.09835
1
1.04927
1
1.11933
1.11907
1
1.11909
1.11956
1
1
1
1.11931
1
1.04951
1.11976
1.08544
1
1.11891
1
1
1
1
1
1
1
1
1
1
0.891819
1
1.11086
0.891119
1.07212
0.9996
1.11801
1
1.06673
1
1.0789
1.10208
1
1.00059
1.11994
0.976978
1
1.1196
1.11639
0.984346
1
1.11826
1.11868
1.11929
1
1.11858
1.11885
1.11952
1
1.05585
1
1.00002
1.11856
1
1.11887
1.01901
1.11873
1
1
1.11873
1.11978
0.901622
1
1.11846
1.09083
1.1183
1
1
1.12019
1.11912
0.99949
1
1.10893
0.999074
1.11857
1.00001
1
1
1
1
1.05689
1
1.09242
1.11882
1.09055
1.11803
1
1.00103
1
1
1.12032
1
1.11956
1
1
1
1
1
1
1.01634
1.06559
1
1
0.899166
1
1.11807
0.897081
1.12033
1
1.06176
0.999925
1.11877
1.07904
0.893797
1.06845
1.00001
1.11872
1.11916
1
1.07502
1.11939
1.11889
0.999546
1.11984
1.11553
0.892637
1
1
0.999255
1
1.11805
1
0.892452
1.11818
1
1
1.10663
1
1.1186
1
1.11864
1
0.896928
1
1
1.11844
1.11961
1.11743
1
1.11883
1.1185
1.11696
1
1
1.1145
1
0.917786
1
1
1
1.11893
1
1.11842
1.08082
1.11917
1
1.11856
0.999818
1
1
1
1
1
1
0.910502
1
1
1.11865
1
1.11925
1.11773
1
0.892783
0.892016
1
1.11901
1.02187
0.889756
0.885558
1
1.11909
1
1.11945
0.884456
1.00028
1
1
0.999858
1
1
1
0.999977
1.05145
1.11851
1
1
1.11885
1.07335
1
1.1083
1.11834
1.11905
1.05149
1.11814
1
1.11837
1
1.11388
1
1.11805
1.1183
0.999118
1.11805
1.11819
1
1
1
1
1
0.980951
1.11989
1.00001
1.00001
0.890756
0.999995
0.903553
0.89078
1
1.11918
1.1188
1.11871
1
1.1187
1
0.89308
1
1
1.11926
0.954658
1.11798
1
1.11826
1
0.99198
1.11857
1
1
1
1.11812
1
1.11825
0.896738
1
1
1.07218
1
1
1.06797
1
1
1.11858
1
1
1
1
1
1.11629
1.11851
1
1.11926
1.11902
0.8949
1.05825
1.11896
1
1
1.10781
0.99972
1
1
1.11865
1.11951
1.08459
1
1.11938
0.892995
1.11118
0.999828
1
1.11849
1.00001
1.11911
1.09983
1.09217
1
1
1.11856
0.90834
0.887924
1
1.11836
1
1.11864
1
1.07243
1
1
1.11827
1.07933
0.888372
1
0.999481
1
1
1.00759
1.05077
1.11857
1
1.11894
1
1
1
1
1
1
1.0195
0.883684
1
1
1.0105
1
1
1
1
1
1.11844
1
1
1.11869
1.11835
1.08799
1
1
1
0.957467
1.11935
1.08606
1
1
1
1
1.11838
1
1
1
1.11924
1
1
1.08845
1.12309
1.00644
0.922548
1.11774
1.0869
1.11862
1
1.06411
1
1
1
0.884391
1.00067
0.881303
1
0.883596
0.887758
1
0.893773
1
1
1
1.05635
1
1.11925
1.1182
1.00025
1.06199
1.10239
0.883576
0.933401
0.965919
1
1.11853
1.12004
1.11856
1.11862
1.1033
0.963628
1
1.1039
1
1.1126
1
1
0.998995
1.00245
1
1
1
1.11958
1
0.897018
1
1.11884
0.914305
1
1
1.11858
1
1.11846
0.999814
1
1
1.11865
1.10537
1
1.12284
1
1
1.004
1
1.05639
1
1
0.894076
1
1
1.11832
1
1.1189
1
1.00001
0.910088
1
1
0.906716
1.00031
1
1.11984
0.904094
1.11965
0.885045
1.11842
1
1
1
1
1
1
1
1
1
1
1
1.1143
1
1.11887
1.12041
0.883652
1
1
1
1
1
1
1.1157
1
1
0.893477
1
1
1.12011
1
1
1.04738
1.10148
0.880791
0.885727
0.90969
0.920659
1
0.999101
0.895848
1.00013
1.10952
0.999125
1
1
1.11883
1
1
1
0.934718
1
1.0456
1
1
1.05066
1.11857
1
0.890995
1
1
1
0.99905
1
1.11835
1.1186
1
0.892008
1
1.06723
0.886145
1
0.969312
1
0.999019
0.883763
1
1
1
0.998785
0.876038
1
0.885879
0.999529
1.06615
1.10802
0.881144
0.87881
1
0.997161
1
0.999627
1
1.11816
1.11887
1
1.00683
1.11891
1.11847
1
1
1.11857
1
1
1.00001
1
1.11679
1
1
1.00539
1
0.999589
0.907599
1
1
1
1
1
1.11841
1.01013
1.00001
1
1
1
1
1
1.00001
1
0.89174
1.0296
0.999604
1.11512
1.11711
1
1.0044
1.11897
1.10289
1
1
0.884641
1.1187
1
1.1199
1
1.11834
1.08153
0.892254
1
0.884486
1.11016
0.999909
1
0.884153
0.888908
1
1
1.10124
1
1
0.889494
1
1
1
1.03899
1
0.884525
1.11883
1
1
1
1
1.11864
1
1
1.11873
1.10749
1
1
1
1.12021
0.885922
1
1.11891
1.11855
1
1.09708
1
1.00001
1
1
1.11421
1.00724
1
0.913212
1.0714
1
1
0.999245
1
1
1.11688
1
1
1.00001
1
1.1191
1
1
1
1
1
1
1
1.05666
1
1.11881
1
1
1.11902
1
1
1
1.11849
1.11778
1.01282
1
0.999342
1
1
1
1
1.12082
1
1
1.11835
0.891083
1
1
1
1
1
1
1.09797
1
1
1.1184
1.11882
1
1
1
1.11904
1.11786
1
0.999907
1.11873
1
1
1
1.00001
0.903606
1.00856
0.99896
0.998856
1
1
0.892249
1.1187
1
0.879092
1
1.11884
1.11425
0.878944
0.999832
1.11853
1.119
1.11838
1
1
0.977948
1.11209
1.09991
0.881547
1
1
1
1.11921
1.11831
0.891324
0.999231
1
1.11871
0.903274
1
1.11426
0.890548
0.995465
1.00185
1
1.11746
1
1
1
1
1
1
1.00003
1.11113
1
1
1.11798
1
1
1
1.1185
1
0.891135
1
1
1
1.04329
1
1
1
1
1
0.93528
1
0.905192
1
1.11866
1.00002
0.959353
0.960315
1
1.00113
1.06636
1
1
0.896027
1.11847
1.11868
1.11848
1
0.880401
0.890763
1
1.11837
1
1
1
1
1
1.00001
1
0.893307
1.07875
1
1
0.886981
1.00247
1
1
1
1
0.881221
1
0.906113
1
1
1.11783
1
1
0.886019
1
1.11852
1
0.88062
1
0.891181
1
1.0022
1.11883
1.1231
1
1
1.1199
1
1
1.0292
0.999084
1
0.999467
1
1.11948
1
0.879665
1
1.12062
0.99966
1
1
0.940705
1
0.999723
0.882905
1.11917
1.04706
1
1
0.974591
1
1
1
0.94239
1
1
1
1.11864
1
0.892771
1
1
1
1
0.887336
1.11844
1.11556
0.885838
1
1.11989
1
1
1.11849
1.11962
1.1018
0.888231
0.999357
0.999771
1
1.11847
1
1
1
1
1.11845
1.00001
1
1
1.11975
1
1
1.11858
0.894635
1
1
1
0.891781
1
1
1
0.999605
1
1
1
1
1.0917
1
1.12009
1.11913
1.12079
1.11863
1.11904
1.1185
1
1.11908
1
1.11866
1.11868
1
0.999688
0.894762
1.10337
0.99997
1
1
1
1
1.00165
1
1.01994
1
1
1
0.959559
1.11858
1.1189
1.12034
1.10703
0.999965
1
1.00641
1.11902
0.999392
1.01875
0.999146
0.884526
1
1.00001
1
1
1
1
1
1.11835
0.890054
1.11835
1.11853
0.998544
0.89306
1
1
1
1.11872
0.89142
1.10589
0.885235
1.11858
1.11942
0.892167
1.11757
1.00702
1
1.11941
0.935255
1
0.999664
0.892737
1
0.899105
1
1.11852
1.11839
0.924902
1
1.11982
0.882896
1
0.889405
1
1.11854
1
1
1.11573
1
0.95055
1
0.999912
0.89815
1.12001
0.999854
1
0.894325
1
1
1
1
1.06933
1
1.11841
1
1
1.12344
1
1
1.11876
1
0.909809
1
0.879978
1
1
1
1
1
1.11404
1.07268
1.11851
1
1.11867
1.11111
0.887175
0.891969
1
1
1.11797
1
0.907344
1
1.00206
1
1
1.11843
1
1.11909
0.893112
1.12118
1
0.893518
1
1
1.1199
1.11825
1
1.00001
1
1.11836
1
1
0.891201
0.99982
0.899471
1
1
1
1.11898
1.119
1.11981
1
1
0.883023
1
1.11942
1
1
1
1.11626
1.11868
1.11867
0.887585
1.11913
1.11849
0.891707
1.1196
1.00001
0.886454
1.00646
1
1
1.11859
0.885537
1.07922
0.887401
1.11849
0.999277
0.885404
1.11926
1
1
1
1
1.11864
1.11995
0.890822
1
1.00001
0.890644
1.00001
1
0.889441
0.891192
1.08594
1.11788
0.999567
1.11855
1
1.12007
0.940473
0.888211
1.11852
1.12152
1
1.11856
1
1
1.1184
1
1.093
1.11989
1
1
1
1
1.11871
1.11731
1.11839
1
1
1.11827
1.12168
1.11885
1
1.11873
1
1
1
1
1
0.889507
0.953842
0.887117
1
1
1.11893
1
1
1.11908
0.883941
1
1.11857
1.11739
1.11386
0.889227
1
0.883727
1
1.00001
1.12008
1.05783
1.12012
1.10885
1
0.886196
1
1.11799
1.08771
0.873301
1
1
1
0.941274
1
1
1.12103
1
0.874394
1.1186
1
1
1
1
1
1.09744
1.02946
1
1.11895
1
1.11921
1
0.999222
1
1.11863
1.11858
1.1184
1.11996
0.999888
1.11969
1
1.11864
1.1187
1.10168
1
1
0.891994
1.1193
1
1
1.11772
1.11863
1.11916
1
1.11878
1
1
1.00001
1.11887
1.11792
1.03672
1.02728
1.11845
1.11886
0.907566
1
1
1
1
1.00001
1.04471
1
1
1.09888
0.901867
0.999987
1
1.11852
0.999963
0.99995
1.02017
1.10661
1.1196
0.975573
1
0.901239
1
1.00121
1.11858
1.11898
1.11519
0.999703
1
1
0.896795
1
1
1.11858
1.01404
1
1
1
1
1
1
1
0.999982
1.11948
1
1
1
1
1
1.07757
1
1.05918
1
1
1.11851
1.11992
0.889411
0.999657
1
1
1
0.890413
1.11934
1.11847
1
1
1
1
1
1
1
1
1.11873
1.1191
0.897523
1.01413
0.892075
1
0.886336
1
1.11856
1.03744
1
1
0.915433
1
1.11361
0.939251
0.999133
0.886996
1
1
1.11995
1.00001
0.999237
0.881179
1.11949
1.12113
1
1
1
1
1.11151
1
1
1.11864
0.999698
1.11918
1.00002
1
1
0.893799
1
1
1.11884
0.88618
0.927063
0.893647
1.11842
0.999795
1
1.11989
0.880306
0.882257
1.00234
1
1
1.12008
1.00001
1.05633
1
1
1.12064
0.892638
1
1
1.00004
1.11949
1.00004
1.11764
1
1.00001
1
1
0.913211
1
0.931219
1
1
1.11761
0.894061
1
0.931517
0.94237
1
1
1.1187
1
1
1
1.11813
1.11827
1.00001
1.11657
1.11976
0.935165
1.11858
1.11623
1
1
1.11786
1
1
1
1
1
1.11942
1.11843
1
1
1
1.11866
1.00006
1
0.88471
0.906467
1
1.00001
1.04738
1
1
0.973075
0.877515
1
1
1
1.11976
1.1095
1.1186
1
1
1
1
0.903544
1
1.11882
1
1.11701
0.894372
1.1182
1
1
1
0.879669
1
1.1195
1.00001
1
0.873994
1.04838
1
0.999904
1.11811
0.888561
0.886999
1
1.1196
0.87975
0.884375
1
0.893352
1
1
1
1
0.882055
1
1
1
1
1.11975
1
1.09244
0.892151
1
1
1
0.882287
1.11831
1
1
0.998957
1.1147
1
1.11833
1.11926
1
1
0.91327
0.879813
1
1
0.879001
1.04103
1.05918
1
1
1.11912
0.999262
1
0.999332
1.11998
1
1
1
1
1
1
1.11912
1
1.04433
1.04042
0.908272
1.10675
1
1.11867
1.11831
1
1
1
0.975877
0.901871
1
1.06366
0.999892
1.10335
1
1
1
1
1
1.0022
1.05572
1.11883
1.11834
1
1.11872
1
0.880982
1
0.999327
0.999931
1
0.893733
1
0.909424
1.00001
1.11935
1.11933
0.893886
1.11992
0.887749
0.998917
1.09526
0.892785
1.0869
1
1
0.999552
1
1
1
1.00002
1
0.906362
1
1
1
1
0.99989
1.11885
0.944523
1
1
1
1.0105
1
1
1
1.07005
0.92151
1
1
1
1.01568
1.11956
1
0.890826
1
1.11894
0.970844
0.875012
1
0.891829
1
1
1.11264
0.999503
1.11386
1
1.00253
1
1
1.11854
1
1
1
1
1.02618
1
1.11853
1.11904
1.11911
0.900452
1.11874
0.999185
1.09851
1
1
0.891146
1
1
0.88721
1.11804
1
1
0.999988
1
1
1
0.882076
0.89008
1
1.11972
1
1.059
1.11865
0.893159
1.10364
1
1
0.895501
1
1
1.11853
1.11871
1.04783
1
1
1.00026
1.11943
0.89788
0.903849
1.11999
1.11854
1.08458
1.04954
1
0.973373
1
1
1
1.11504
1.11919
1.11909
1
1
1.11872
0.883837
1.10846
0.884085
1
0.903657
1
0.894406
1.11862
0.88612
1
0.996888
0.891273
1
1
1
0.953182
1.10853
1.11886
1.11893
1.12004
1
1
1.12
1
1
1.1191
1
0.880159
1
0.894612
1
1.12035
1
1
1.00537
1.09278
1
0.999638
0.879296
1.11865
1
0.894032
1.02399
1
1
1.09249
1.11846
1.11832
1
1.11823
1.0334
1
1.00654
1.11853
1
1
1
1
1.1186
1
0.893439
1.1191
0.888069
0.891952
0.948828
1.11826
1.0444
1.1187
1
1.11956
0.99923
1.00001
1.11865
1.11951
1
1.11989
1
1.11882
1
1.1197
1
1.00001
1
1.11834
0.88734
0.898031
0.999419
1
1
1
0.893534
1
1.08177
1
0.882038
1
1.05011
1.11839
1.11737
1
1
1.00001
0.999828
1
1.11963
1.11857
1
1.05218
1.11847
0.958865
1.11863
1.00016
0.888163
1.0276
0.880762
1
1
1.0219
1.12086
1
1
1.00895
0.99961
1
0.897424
1
0.934374
1
1.1179
1
1
0.889132
1.02956
1.02187
0.999565
1.11852
1.11857
0.934519
0.999462
0.894281
0.881812
0.89426
1
1
1
0.999725
0.916733
0.891626
1
1.11852
0.999929
1.11851
1.11855
1.11961
1.11876
1
0.89381
1.11885
0.881715
1
1.11838
1.11988
0.999053
0.941093
1.11864
1.08934
1
0.887306
1
1
1.11995
1
1.00752
1.1183
1
0.889383
0.89774
1
1
0.879194
0.882137
1.11873
1.00001
1
0.888928
0.884115
1.11808
1.11689
1.11177
1.12002
1.03635
0.995305
1.05024
1.12047
1.09343
1
1.06537
1
0.882441
0.957411
1
0.894145
1.11848
1.00666
1.11895
1
1.11869
1.11973
1
1.11858
1.11856
0.887725
1.1197
1
1.12039
1
0.919856
0.896482
1.11865
1
1
1
0.893985
1.11892
1.11883
1
0.896511
1
1
0.906181
1.00001
0.881777
1.12016
1
0.946456
0.880635
1
1
1.07132
1
1
1
1.02119
0.893556
1
1
1
1.11828
0.885426
1
1.11858
0.897452
0.882981
1
1
1.1202
1
1.11889
1
1.11854
0.892927
1
1
0.879581
0.944608
0.894797
1
1
1
1
1.1189
0.891809
1
0.889788
1
1.1184
1
1
0.980775
1
1
0.947743
0.999911
1.00001
1
0.885353
0.897528
1
1
1
1
0.934344
1.11819
1.11941
1
0.889522
0.881794
0.976428
0.899146
1
0.942618
1
0.89234
0.995941
1
1
0.893464
1
1.11873
1.11656
0.894235
1
1
1
1.11813
1
1.01355
0.954367
1.04106
0.903533
1.05209
0.88858
1
1
0.912646
0.980104
1
1.01055
1
1
0.884896
1
0.984018
1.01541
0.888871
1
1.09918
0.923337
0.967105
1
1
1
0.888462
1
0.894339
0.880282
1
0.956777
0.894573
1.02055
0.921271
0.886149
1.11869
1
1.1185
1.06751
0.917478
1.11853
0.894484
0.999719
1.11978
1
1
1.11888
1
0.905076
1
1.02308
1
1
1.11852
1
0.929914
0.939336
1.12107
0.986965
1
0.922243
1.11858
1.1195
0.976661
1
1.1185
1.03456
0.948716
1
1.00618
1
0.897358
1.05411
0.930149
0.916453
1
1
0.89826
1.11845
0.990022
0.890888
0.8902
0.961221
1
1.00524
1.1194
1.11836
1
1
1
0.894586
1.05903
1.00001
1.11831
1.10972
0.887752
1
1.02824
0.960284
1.07271
1.10307
1
1.01355
1
1.00002
0.888338
0.947471
1
1
0.945495
0.890185
1.0121
1
1
0.891735
1.05776
1
1.11991
1
1.0141
1.06827
1
1.1192
1
1
1.11888
1
0.883576
1.11951
0.905928
1.03344
1
0.897825
0.999975
1
1.00001
1
0.933135
1.00791
0.892473
1.09247
1.1199
0.880894
1
1
1
1
1
0.987551
0.886636
1.01582
0.892116
0.892785
1.02274
1
0.999944
1.03329
1
1
0.887008
0.996448
1
1
1.03685
1
1.11964
1
1.11898
1.02605
1.00747
0.894439
1
1
0.894652
1
1
1
1
1.11855
1.01227
0.999434
1
0.889412
1.01472
1
1
1.08174
1
0.880542
1.11819
1
1
1
1.11891
0.886252
0.964419
0.88934
1.09152
1.11814
1
1
1.11829
1
0.882855
1
1
1
1
1
0.930228
1
1.1189
1
1
1.04509
1.11958
0.897133
0.964243
1
1.11836
1
1
1
1
1
1.11847
1.11902
0.88065
1.11851
0.883562
1
1
1.1186
1
1.11984
1.00272
1.0082
1.02009
1.1185
1.02039
1.08375
0.884148
1
0.888401
0.996365
1
1.11867
1
1
0.883688
1.11972
1
1.11902
1
1
1
1
1
1
0.881718
1.11963
0.952773
1.11864
1
0.891974
0.895557
0.913257
1.11986
1.11874
0.990341
1
0.937496
1
1.05034
1
1.11884
0.882895
0.886287
0.956711
1
1.11857
1
1.02215
0.903243
1
1.12049
1.1089
0.999665
1
1.11857
0.894367
1.1193
1.11874
1.12006
0.886035
1.02967
1
1
0.888479
1
0.94421
0.947246
1
1.00001
1.11881
1
1.11818
1.02653
1
1.01232
1.12045
1
0.891931
1
0.929189
1
1
1.09902
1
0.934126
1
0.89601
1.01038
0.986985
0.882031
1.1188
1.09623
1.11975
0.892312
0.899963
0.998771
1
1
0.906364
1.11249
0.888154
0.999991
1
1.11846
1.11893
0.97123
1
0.893939
0.912981
1.08176
0.99583
0.884907
1
0.883572
1.03484
0.894718
1
1.00002
0.946694
1.11988
1.1187
0.95402
0.999879
1
1
0.915752
1
0.887942
1
0.881744
0.894136
1
1
1.00001
0.895674
1.11855
1
1
1.00002
1.00001
0.884159
1.11871
1.11859
1
0.892652
1.12013
1
1.02786
1
1
1.11836
0.888329
1
1
0.89231
0.922096
0.892635
0.892289
1
0.91082
0.999205
1.02957
0.884272
1
1
1.03598
1
1.10618
1
1
1.0879
0.89895
1
0.884996
1.03402
1.11878
1
1
0.893526
0.894271
0.882468
0.918087
0.891951
1.09164
0.999831
1
1
1
1
1.11881
0.897194
1
0.983353
0.99991
0.999612
0.999983
0.921113
1.03651
1
1.11854
1.11871
1
1
1.11522
1.00001
1
1.1184
0.892789
1.11568
1
0.884655
1.11859
1.00001
1
0.946329
1
0.88498
1
1.11943
1
1
1.1191
1
1
1.11879
1
1
1
1.11968
1
0.923318
0.910787
1
0.879418
1.11887
1
1
0.995723
1
1.11907
1.07166
1.09754
1
1
0.888836
1
0.888909
1.11859
1.11969
1.11877
1
1.11956
0.895238
1
0.88483
1.09728
1.11194
1.11861
1.11897
0.924044
0.886962
1
1.07899
1.119
1.11907
1.11856
0.919856
1.04608
1
1.09233
0.926924
1
1
1
1.00001
0.971082
1
1.11864
1
1
1
1
1
1
1.00002
1.11758
1
1.11945
1.09044
0.892995
1.1204
1.0101
1.06277
1
1.11843
1
0.887872
1
1
1
1
1.10265
1
0.883733
1.11856
0.885319
1.11851
1.09679
1.06623
1
1.02462
1.06011
0.998845
0.886379
0.930266
1.00001
1
0.975823
1
0.887138
1.11889
0.886532
0.978596
0.959163
1
1
1
1.00419
1
1
0.900384
0.99906
1.11937
1
1.11844
1
0.887785
1
1
1.11862
1.11854
0.882863
1
1.11921
1
0.94599
0.887563
1.11889
1.10754
1
1.02243
1.11864
0.999616
1
1.05203
1.10569
1.11807
0.99879
1
0.999999
1.1025
1
1
1
1.11853
0.999564
1
1
1.11864
1
1
0.893332
1
1
1
1.1189
1
1
0.955627
1.04254
1.10834
0.928972
1
1.11858
1
1.04318
1
1.11932
0.999208
1.11851
1
0.89419
1
1.08323
1
1
1.11156
1.00001
1.11853
1
1.11827
0.902029
0.891981
1.11933
1
1.10208
1
1.11965
1
1
1.00001
1.11874
1.11869
1.03431
1.11843
0.99886
0.886142
1.11872
0.958392
1
1.11768
1
1.11838
1
1.1191
1.11988
0.99897
0.88825
1
1.11865
1
1.01076
1
1
0.999403
0.923988
1.1072
1
1.111
1
0.963866
0.886483
1.11863
1.11847
0.895395
1
1.11879
1.11906
1.11895
0.898651
1.11833
0.890347
1.11927
1.12122
1
1
1.11868
1
1
1
1
0.890208
1
1
1.11958
1.11867
1
1.11862
1
1.11955
1.11992
1
1.10023
1
0.880338
1.11848
1.09181
1.03736
0.885904
1.11848
1
1
0.888844
1
1
1.11854
1
1
0.9373
1
1.11859
1.00003
1.11908
0.890784
1.11974
1
1.11861
1.11459
0.970868
1
1.11855
0.928915
1.1192
1.08707
1.11869
1.11811
0.999199
1.11973
1.11865
1.11848
1.11831
1.00006
1
0.883884
1
1.11917
0.95472
1.1089
1
1.11681
1
1
1
1
1
1.11814
0.887301
0.883444
1.11919
1.11863
1
1
1
1
1
1.11769
1.10759
1.1185
1.0059
1
1
1
1.00001
1.11839
1.11856
1
1.11887
1.11998
0.896568
1.08614
1
1.11853
1.11964
1.11789
0.999364
1.1188
1.11874
1
1.10929
1
1
1
1
1
1
1.11849
1.1206
1.1111
1.11856
0.891231
0.902553
1.11852
1.11853
1
0.889163
0.98296
1
1.06024
0.881429
1
0.999848
0.999514
0.887981
1
1.11856
1
1
1
1.11946
0.986861
1
1.11854
1.11876
1
1.11905
1
1
1.11855
1
0.89363
1
1.11855
1
1
0.893547
1
1.11884
1
0.880746
0.885742
1
1.11863
1
0.887089
0.963099
1
1.11849
1
1
1
1.11968
1
0.899476
1.01816
1.11933
1.119
1.11838
1.01238
1.11906
1.11868
1
1
1
1
1
1.11864
1
0.999806
1.11837
1
0.880752
1
1.11871
1.05997
1.01827
1.05917
1.02017
1.11947
0.901556
1.11846
1
0.893066
0.999209
1.11857
0.987565
1.11857
1.11861
1.1128
1
1.1195
1.1187
1.11842
1
1.00001
1
1
1.11915
1.08735
1
1
0.884582
0.999095
1
1.11838
1
1.11839
1.11849
1.11841
0.975652
1.11839
1.11852
1.00278
1.06149
1.11955
1.11837
1
1.11057
0.94998
1.11694
0.997203
1.11839
1
1.1185
1.11866
1
0.896283
0.989001
0.897974
1
1.02591
0.999014
1.11983
1
1
0.999056
1
1.06225
1.11094
1
1
1.11873
1
1
1.08772
1.1185
1.11448
1.11842
1.11864
1
1.11849
0.916024
1.11914
1
1.0004
0.907623
1
1
0.922879
1
1.04207
1
1.11881
1
1.11667
1.07745
0.892102
1
1
1
1
1
1.11889
1.00331
1
1.11852
1
1.11858
1.11852
1
1
0.990684
0.999957
0.888894
0.882369
0.91084
1.02503
1
0.999544
0.887709
1.00001
1
1.11831
0.982199
1.11165
1.10059
1
1
1
1
1
1.11847
1.11848
1
1.11805
1
1.12032
1.08207
0.998988
1
1
1
1.07151
1
0.986443
1
1.11888
1
1
1.11841
1
1
1
1
1
1.11881
0.886938
0.99881
1.10713
1.11842
1
1.11857
1
1
1
1
0.895851
1
1.11867
1.11862
1.11858
1.11962
0.989193
1
1.10203
1.03209
1.11935
1.1203
1.02474
1.11926
1
1
1