/*--------------------------------*- C++ -*----------------------------------*\
  =========                 |
  \\      /  F ield         | OpenFOAM: The Open Source CFD Toolbox
   \\    /   O peration     | Website:  https://openfoam.org
    \\  /    A nd           | Version:  12
     \\/     M anipulation  |
\*---------------------------------------------------------------------------*/
FoamFile
{
    format      ascii;
    class       volScalarField;
    location    "3.2";
    object      rho;
}
// * * * * * * * * * * * * * * * * * * * * * * * * * * * * * * * * * * * * * //

dimensions      [1 -3 0 0 0 0 0];

internalField   nonuniform List<scalar> 
9801
(
1.12094
1.12189
1.12581
1.13351
1.14101
1.14593
1.14929
1.152
1.1533
1.15239
1.15368
1.15636
1.16139
1.16958
1.17661
1.18098
1.18432
1.18709
1.18724
1.18662
1.18852
1.19171
1.19811
1.20721
1.21365
1.21786
1.22121
1.22314
1.22152
1.2211
1.22344
1.2275
1.23551
1.24565
1.25237
1.25687
1.26063
1.26221
1.25917
1.25939
1.26194
1.26614
1.27479
1.28484
1.29084
1.29499
1.29812
1.29692
1.29215
1.29155
1.29346
1.29745
1.30659
1.31629
1.32188
1.32562
1.32895
1.32589
1.32345
1.3262
1.33121
1.33892
1.3528
1.36362
1.36969
1.37445
1.37627
1.37052
1.37035
1.37462
1.38061
1.39388
1.41052
1.42183
1.42895
1.43427
1.43269
1.4245
1.42571
1.43283
1.44463
1.46721
1.48677
1.49878
1.50798
1.51527
1.50822
1.49928
1.50658
1.5222
1.55365
1.59207
1.62218
1.6507
1.68352
1.70639
1.71949
2.26098
4.7187
1.12663
1.12805
1.13136
1.13884
1.14651
1.15108
1.15417
1.15663
1.15807
1.15823
1.1596
1.16206
1.1664
1.1747
1.18176
1.18596
1.18905
1.19141
1.19214
1.19221
1.19411
1.19714
1.20308
1.21208
1.21841
1.22237
1.22537
1.22709
1.22614
1.2262
1.22863
1.23233
1.23997
1.25008
1.25669
1.26103
1.26444
1.26565
1.26327
1.26356
1.26602
1.26971
1.27805
1.28827
1.29427
1.2982
1.30092
1.29965
1.29552
1.29515
1.29706
1.30062
1.30994
1.32013
1.32585
1.3296
1.33245
1.32986
1.32755
1.32979
1.33412
1.34088
1.35504
1.36649
1.37283
1.37766
1.37999
1.3752
1.37429
1.37773
1.3828
1.39474
1.41189
1.42347
1.43074
1.43625
1.43629
1.4289
1.42891
1.43516
1.44471
1.46506
1.48551
1.4985
1.50832
1.51732
1.5138
1.50418
1.50921
1.52285
1.54757
1.58214
1.60949
1.63514
1.66249
1.67507
1.66153
2.18695
4.69934
1.12832
1.12953
1.13205
1.13824
1.14555
1.15036
1.15371
1.15648
1.15878
1.16023
1.16129
1.16334
1.16674
1.17421
1.18119
1.18545
1.1886
1.19127
1.19326
1.19425
1.19595
1.19854
1.20305
1.21149
1.21765
1.22153
1.22455
1.22681
1.22718
1.22787
1.2303
1.23357
1.23995
1.24971
1.25615
1.26029
1.26353
1.26507
1.26352
1.264
1.26648
1.26993
1.27773
1.28796
1.29392
1.29774
1.30035
1.29975
1.29608
1.29571
1.29771
1.30114
1.31015
1.32054
1.32617
1.32974
1.33259
1.33077
1.32783
1.32937
1.33329
1.3392
1.35297
1.36521
1.37185
1.37681
1.38022
1.37668
1.37414
1.37677
1.38141
1.39052
1.40763
1.42091
1.4287
1.4346
1.43694
1.42996
1.42815
1.4334
1.44099
1.45619
1.47963
1.49539
1.50581
1.51515
1.5154
1.50398
1.50574
1.51833
1.53665
1.56841
1.59842
1.62347
1.64881
1.66384
1.64182
2.14862
4.66119
1.1313
1.13197
1.13322
1.13694
1.1453
1.15159
1.15528
1.15821
1.16084
1.16316
1.16397
1.16531
1.16757
1.1734
1.18115
1.18605
1.18955
1.19251
1.19499
1.19611
1.19709
1.19918
1.20276
1.2106
1.21753
1.22185
1.22513
1.22787
1.22892
1.22934
1.23137
1.23424
1.23947
1.24891
1.2557
1.25994
1.26322
1.26537
1.2644
1.26457
1.2668
1.26993
1.27637
1.28639
1.29265
1.29643
1.29921
1.29955
1.29608
1.29546
1.29753
1.30083
1.3089
1.31997
1.32622
1.33009
1.33316
1.3322
1.32805
1.32861
1.33209
1.33709
1.34948
1.36318
1.37064
1.37577
1.37992
1.37775
1.37323
1.37463
1.37903
1.38612
1.40224
1.41832
1.42691
1.43276
1.43692
1.43138
1.42559
1.42917
1.43639
1.44716
1.46962
1.48903
1.50056
1.50997
1.51526
1.5058
1.50071
1.51042
1.52525
1.54901
1.57822
1.60322
1.62645
1.64602
1.63354
2.12165
4.62681
1.13082
1.13075
1.13264
1.13767
1.14687
1.15332
1.15734
1.16048
1.16327
1.16464
1.16376
1.16451
1.16706
1.17342
1.18186
1.18712
1.19084
1.19396
1.19663
1.19706
1.19693
1.19863
1.2019
1.20962
1.21779
1.22269
1.22624
1.2293
1.23093
1.23071
1.2319
1.23435
1.23846
1.24735
1.25499
1.25963
1.26308
1.26578
1.26538
1.26476
1.26655
1.26941
1.27455
1.28448
1.29152
1.29546
1.29832
1.2995
1.29627
1.29494
1.29692
1.30013
1.30701
1.3189
1.32636
1.3305
1.33357
1.33363
1.32875
1.32759
1.33044
1.33482
1.34513
1.35999
1.3687
1.3741
1.37877
1.37907
1.37339
1.37256
1.37641
1.38232
1.39487
1.41335
1.42417
1.43044
1.43577
1.43375
1.42547
1.4256
1.432
1.44031
1.45747
1.48057
1.49564
1.50607
1.51494
1.51261
1.50164
1.50384
1.51641
1.53518
1.56303
1.58757
1.60747
1.62761
1.6269
2.11182
4.60051
1.13018
1.13101
1.13361
1.14067
1.14981
1.1556
1.1595
1.16269
1.16543
1.16472
1.16296
1.16433
1.16734
1.17496
1.18379
1.18901
1.19263
1.19576
1.19812
1.19692
1.19596
1.19773
1.20118
1.20959
1.21895
1.22433
1.22798
1.2311
1.23298
1.23169
1.23164
1.23372
1.23737
1.24603
1.25506
1.26024
1.26382
1.26681
1.26715
1.26517
1.266
1.26845
1.27235
1.28167
1.29011
1.29464
1.29782
1.30011
1.29805
1.29532
1.29665
1.29978
1.3055
1.31752
1.32665
1.33133
1.33448
1.33581
1.33158
1.32783
1.32944
1.33337
1.34106
1.35631
1.3676
1.37375
1.37862
1.3811
1.37591
1.37204
1.37447
1.3798
1.38834
1.4071
1.42264
1.43059
1.43643
1.43798
1.42933
1.4252
1.42934
1.43664
1.44796
1.47012
1.4898
1.5025
1.51279
1.51938
1.51069
1.50341
1.51032
1.52428
1.54685
1.57252
1.59249
1.60983
1.61849
2.11272
4.57812
1.1303
1.1323
1.13578
1.14451
1.15335
1.15852
1.16205
1.16506
1.16603
1.16292
1.16247
1.16454
1.16825
1.17729
1.1866
1.19173
1.19517
1.19802
1.19918
1.19633
1.1955
1.19757
1.20122
1.2102
1.22065
1.22641
1.23003
1.23301
1.2345
1.23201
1.23107
1.23316
1.23677
1.24556
1.25617
1.26202
1.26561
1.26857
1.26954
1.2663
1.26521
1.26706
1.27025
1.27857
1.28918
1.29497
1.29851
1.30145
1.30119
1.29745
1.29726
1.29998
1.30439
1.31532
1.3268
1.33262
1.33603
1.33827
1.33576
1.33055
1.33026
1.33346
1.33874
1.35151
1.36654
1.37445
1.37948
1.38308
1.37983
1.37396
1.37448
1.37914
1.38508
1.399
1.41903
1.43065
1.4373
1.44225
1.43807
1.42895
1.42887
1.43479
1.44299
1.4595
1.48225
1.49851
1.5101
1.52029
1.5225
1.51149
1.50924
1.51832
1.53384
1.55826
1.57986
1.59512
1.60643
2.11682
4.55839
1.13188
1.13471
1.13886
1.14845
1.15706
1.16171
1.16483
1.1667
1.16494
1.16271
1.16367
1.16597
1.16961
1.17917
1.18941
1.19452
1.19768
1.20009
1.20005
1.19698
1.19669
1.19883
1.20215
1.21079
1.22236
1.22867
1.23221
1.23497
1.23607
1.23326
1.23189
1.23384
1.23727
1.24539
1.25721
1.26405
1.26775
1.27058
1.27188
1.26808
1.26517
1.26633
1.26922
1.27621
1.28848
1.29607
1.30012
1.30341
1.30471
1.30079
1.29927
1.30105
1.30446
1.31258
1.32634
1.33455
1.33863
1.34141
1.34095
1.33516
1.33301
1.33494
1.33891
1.34686
1.36358
1.37543
1.38132
1.38552
1.38544
1.37852
1.37641
1.37936
1.38453
1.39261
1.41157
1.42908
1.43822
1.44447
1.44752
1.43819
1.4315
1.43465
1.44177
1.452
1.47236
1.49225
1.50596
1.51702
1.5266
1.52591
1.5149
1.51542
1.52499
1.54185
1.56462
1.58102
1.5935
2.12461
4.53919
1.13471
1.13782
1.14236
1.15233
1.16074
1.16452
1.16658
1.16691
1.16539
1.16486
1.16618
1.16865
1.17207
1.18055
1.1913
1.19701
1.2001
1.20214
1.20175
1.19929
1.19929
1.20146
1.20448
1.21153
1.22332
1.23047
1.23429
1.23706
1.23848
1.23602
1.23444
1.23614
1.23907
1.24501
1.25719
1.26548
1.26955
1.27238
1.27396
1.27066
1.26688
1.26731
1.26986
1.275
1.28742
1.29741
1.3023
1.30576
1.30802
1.30511
1.30192
1.30294
1.30584
1.31088
1.32419
1.3362
1.34173
1.34502
1.34656
1.34166
1.33711
1.33742
1.3404
1.34482
1.35779
1.37466
1.38324
1.3882
1.39149
1.38667
1.38024
1.38082
1.38477
1.39051
1.40287
1.42397
1.43786
1.44542
1.45121
1.45077
1.44024
1.43708
1.44163
1.44913
1.46228
1.48405
1.50143
1.51384
1.52456
1.53218
1.52778
1.51804
1.52
1.52916
1.54675
1.56503
1.57944
2.13181
4.51836
1.13845
1.14217
1.14665
1.15512
1.16197
1.16533
1.16722
1.16849
1.16843
1.16805
1.16961
1.17222
1.17528
1.18183
1.19198
1.1981
1.20145
1.20393
1.20498
1.20293
1.20268
1.20473
1.20751
1.2124
1.22321
1.23172
1.23626
1.23949
1.2418
1.23996
1.23776
1.23905
1.24162
1.24532
1.25567
1.26601
1.27098
1.27403
1.27619
1.27403
1.26966
1.26965
1.27193
1.27529
1.28514
1.29799
1.30454
1.30831
1.31129
1.31032
1.30568
1.30541
1.30794
1.31154
1.32096
1.33634
1.34462
1.34877
1.35168
1.34959
1.34257
1.34047
1.3422
1.34549
1.35269
1.37047
1.38439
1.39102
1.39583
1.39632
1.38754
1.38356
1.38607
1.39089
1.39757
1.41427
1.43416
1.44523
1.45203
1.45775
1.45458
1.4437
1.44279
1.4485
1.45676
1.47304
1.49371
1.50873
1.52025
1.53064
1.53642
1.52965
1.52048
1.52243
1.5305
1.54633
1.56354
2.13653
4.49637
1.14338
1.14717
1.14996
1.15539
1.16178
1.16603
1.16901
1.17165
1.17332
1.17307
1.1741
1.17629
1.17886
1.18264
1.19142
1.19913
1.20333
1.20631
1.20858
1.20787
1.20676
1.20811
1.21043
1.21354
1.22232
1.23302
1.23875
1.24236
1.2452
1.24507
1.24185
1.24182
1.24369
1.24638
1.25365
1.26568
1.27234
1.2759
1.27866
1.27852
1.27394
1.27258
1.27409
1.27665
1.28263
1.29668
1.30635
1.31114
1.31472
1.31618
1.31134
1.30866
1.31026
1.31338
1.31869
1.33347
1.34655
1.35245
1.356
1.3572
1.35038
1.34448
1.34464
1.34721
1.35134
1.36354
1.38241
1.39274
1.3983
1.40242
1.39955
1.39029
1.3885
1.39173
1.39678
1.40566
1.426
1.44354
1.45292
1.45941
1.46337
1.45711
1.4482
1.44922
1.45533
1.46449
1.48285
1.50201
1.51557
1.52623
1.53567
1.53929
1.53077
1.52118
1.52187
1.52788
1.54638
2.13603
4.47371
1.14834
1.15099
1.15177
1.15394
1.16041
1.16809
1.17245
1.17544
1.17798
1.17892
1.17862
1.17952
1.18119
1.1837
1.19044
1.20028
1.20592
1.20923
1.2118
1.21266
1.21057
1.21051
1.21256
1.21562
1.22235
1.23401
1.24136
1.24526
1.2481
1.24928
1.24552
1.2436
1.24526
1.24812
1.25319
1.26498
1.27398
1.27829
1.28117
1.28272
1.27863
1.27494
1.27536
1.27792
1.282
1.29406
1.30771
1.31445
1.31842
1.32145
1.31865
1.31298
1.3126
1.31498
1.31865
1.32852
1.34574
1.35527
1.36006
1.36303
1.3604
1.35144
1.34847
1.34974
1.35261
1.35811
1.37494
1.39201
1.39999
1.40521
1.40888
1.40208
1.39313
1.3934
1.3977
1.40334
1.41498
1.43613
1.45076
1.45881
1.4652
1.4691
1.46108
1.45293
1.45496
1.46137
1.47183
1.49111
1.5086
1.52097
1.53084
1.53887
1.54094
1.53145
1.52009
1.51655
1.52879
2.12382
4.45118
1.15292
1.15256
1.1519
1.15401
1.15976
1.17
1.17639
1.17973
1.18233
1.18425
1.18324
1.18231
1.18361
1.18599
1.19103
1.2011
1.20818
1.21192
1.21456
1.21621
1.2145
1.21388
1.21589
1.21872
1.22375
1.2346
1.24328
1.24761
1.25034
1.25171
1.24896
1.24641
1.24774
1.25036
1.25394
1.26357
1.27495
1.28041
1.28353
1.28552
1.28286
1.27751
1.2774
1.28002
1.28347
1.29184
1.30759
1.31716
1.32205
1.32539
1.32534
1.31821
1.31493
1.31672
1.32007
1.3254
1.34089
1.3564
1.36334
1.36753
1.36928
1.36236
1.35397
1.35255
1.35422
1.35751
1.36649
1.38655
1.40056
1.40712
1.41181
1.41325
1.4044
1.39783
1.39936
1.40359
1.40956
1.4244
1.44551
1.45836
1.46594
1.47185
1.47337
1.46413
1.45769
1.4605
1.46698
1.47858
1.49807
1.51418
1.52542
1.53415
1.54052
1.54109
1.5313
1.51613
1.51443
2.10215
4.42985
1.1563
1.1539
1.15351
1.15563
1.1604
1.17121
1.17933
1.18326
1.18591
1.18806
1.18763
1.18573
1.18661
1.18879
1.19228
1.20109
1.20978
1.21426
1.21721
1.21956
1.21923
1.2182
1.21986
1.22243
1.22567
1.23367
1.24371
1.24903
1.25206
1.2543
1.25348
1.25049
1.25102
1.25319
1.25577
1.26119
1.27332
1.28127
1.28498
1.28759
1.28777
1.28242
1.28073
1.28307
1.28642
1.2911
1.30412
1.31783
1.32432
1.32819
1.33039
1.32534
1.31894
1.31909
1.32214
1.32594
1.33491
1.35356
1.3656
1.37081
1.37445
1.37339
1.36272
1.35639
1.35695
1.35975
1.36396
1.37663
1.39628
1.40721
1.41276
1.41773
1.41764
1.40684
1.40181
1.40463
1.40972
1.41695
1.43408
1.45321
1.46411
1.47108
1.47707
1.47837
1.46841
1.4626
1.46572
1.47201
1.48423
1.50328
1.51818
1.52827
1.53579
1.54024
1.53975
1.52687
1.51235
2.07395
4.40882
1.15878
1.15625
1.15628
1.15837
1.16204
1.17193
1.18117
1.18574
1.18867
1.191
1.19177
1.19004
1.18997
1.19154
1.19379
1.19996
1.21048
1.2168
1.22046
1.22335
1.22492
1.22348
1.22359
1.22528
1.22745
1.23172
1.24234
1.25033
1.25434
1.25718
1.25878
1.25595
1.25415
1.25499
1.25681
1.25969
1.26894
1.28099
1.28679
1.29021
1.2928
1.29032
1.28618
1.28684
1.28925
1.29221
1.29881
1.31445
1.32512
1.33013
1.3335
1.33383
1.32661
1.32328
1.32539
1.32895
1.33301
1.34512
1.36309
1.37216
1.37653
1.3793
1.37605
1.36566
1.36191
1.36319
1.3658
1.37075
1.38649
1.4047
1.41394
1.41921
1.42285
1.42062
1.41089
1.40789
1.41111
1.41603
1.42405
1.44259
1.46029
1.47039
1.47724
1.48257
1.48233
1.4725
1.46738
1.47039
1.47644
1.4887
1.50697
1.52059
1.52939
1.53526
1.53832
1.53456
1.52303
2.05292
4.38748
1.16143
1.15959
1.15968
1.16167
1.16426
1.17197
1.1825
1.18829
1.19171
1.19438
1.19629
1.1948
1.19285
1.19329
1.19523
1.19944
1.21067
1.21991
1.22433
1.22738
1.22991
1.22913
1.2265
1.2265
1.22819
1.23113
1.23968
1.25131
1.25719
1.26025
1.26269
1.26195
1.2574
1.25618
1.25748
1.25989
1.26521
1.27876
1.28888
1.29357
1.29668
1.29792
1.29308
1.29009
1.29091
1.2933
1.29698
1.30775
1.32409
1.33267
1.33714
1.34015
1.33741
1.33016
1.329
1.33103
1.33384
1.33838
1.35319
1.3702
1.37799
1.38248
1.38559
1.37997
1.36964
1.36707
1.36887
1.37176
1.37751
1.39437
1.4108
1.41873
1.42393
1.42875
1.42572
1.4155
1.41315
1.41675
1.42204
1.43118
1.44998
1.46599
1.4752
1.48171
1.48718
1.48718
1.4776
1.47227
1.47473
1.48004
1.4915
1.50867
1.52118
1.52854
1.53316
1.53312
1.53415
2.04516
4.36509
1.16454
1.16366
1.16317
1.16475
1.16688
1.1719
1.18344
1.19138
1.19517
1.19799
1.20018
1.19897
1.19496
1.19475
1.19685
1.20024
1.21012
1.22217
1.22809
1.23123
1.23382
1.23436
1.23004
1.22818
1.22945
1.23184
1.23726
1.25017
1.25911
1.26305
1.26562
1.26705
1.26272
1.25864
1.25911
1.26131
1.26445
1.27391
1.28874
1.29623
1.29995
1.30273
1.30114
1.29494
1.29356
1.29562
1.29869
1.30356
1.31808
1.33333
1.34026
1.34424
1.34638
1.34091
1.33394
1.33283
1.33484
1.3381
1.34468
1.36287
1.37858
1.38548
1.3893
1.39084
1.38327
1.37429
1.37247
1.37393
1.37682
1.38407
1.40287
1.41838
1.42581
1.4306
1.43396
1.42977
1.4208
1.41917
1.42266
1.4278
1.43713
1.45585
1.47129
1.48033
1.48686
1.49204
1.49215
1.48295
1.47668
1.4781
1.48252
1.4925
1.50858
1.52007
1.52663
1.52782
1.53765
2.04942
4.34184
1.16817
1.16794
1.16611
1.16722
1.16946
1.17332
1.18391
1.19387
1.19854
1.20118
1.20316
1.20249
1.198
1.19719
1.19914
1.20202
1.20924
1.22276
1.23085
1.23459
1.23723
1.23878
1.23494
1.23074
1.23113
1.23314
1.23617
1.24621
1.25931
1.26535
1.26847
1.27092
1.2698
1.26356
1.26174
1.26315
1.26548
1.26978
1.28369
1.2969
1.30286
1.30627
1.30849
1.30374
1.29851
1.2988
1.30109
1.30397
1.31037
1.32786
1.34128
1.34726
1.35099
1.35184
1.34382
1.33715
1.33734
1.34042
1.34424
1.35247
1.37167
1.38498
1.39082
1.3947
1.39588
1.38716
1.37856
1.37755
1.37996
1.38343
1.39163
1.41004
1.42356
1.4302
1.43522
1.43965
1.43593
1.42653
1.42447
1.42779
1.43299
1.4424
1.46086
1.47605
1.48496
1.49133
1.49638
1.49708
1.4883
1.48048
1.48028
1.48374
1.4921
1.50691
1.51781
1.52145
1.53456
2.06139
4.31789
1.17165
1.17222
1.16963
1.17075
1.17295
1.17574
1.18353
1.195
1.20107
1.20403
1.20622
1.20645
1.20234
1.20055
1.20205
1.20451
1.20892
1.22125
1.23244
1.23757
1.24037
1.24258
1.24064
1.23452
1.23307
1.23449
1.23677
1.24222
1.25675
1.26714
1.27162
1.27438
1.276
1.27092
1.26512
1.26449
1.26608
1.26891
1.27675
1.29428
1.3053
1.31055
1.31381
1.31414
1.30663
1.30225
1.30258
1.30458
1.30793
1.31772
1.33717
1.34849
1.35379
1.35759
1.35732
1.34807
1.34289
1.34356
1.34574
1.34916
1.35907
1.37886
1.39106
1.39665
1.4006
1.40138
1.39276
1.38531
1.3843
1.38539
1.38807
1.39693
1.41585
1.42947
1.43656
1.44164
1.44533
1.44164
1.43251
1.43002
1.43294
1.43785
1.44697
1.46513
1.4803
1.48914
1.49537
1.50026
1.50169
1.49333
1.48355
1.48145
1.4838
1.49031
1.50428
1.51203
1.52762
2.07559
4.29277
1.17535
1.1777
1.17466
1.17468
1.1763
1.17843
1.18246
1.19386
1.20263
1.20678
1.20937
1.21097
1.20797
1.20447
1.20505
1.20718
1.21009
1.21855
1.23241
1.23965
1.24323
1.2455
1.24554
1.23931
1.23526
1.23604
1.23828
1.24148
1.25218
1.26726
1.27417
1.27761
1.28005
1.27841
1.26983
1.26615
1.26747
1.27029
1.27457
1.28812
1.30581
1.31399
1.31828
1.32098
1.31702
1.30701
1.30391
1.30566
1.30872
1.31319
1.32733
1.34661
1.35599
1.36077
1.36463
1.36199
1.35085
1.3455
1.34636
1.34922
1.35362
1.36677
1.38678
1.39783
1.4033
1.40768
1.40763
1.39716
1.38858
1.38726
1.38914
1.39258
1.40301
1.42239
1.43529
1.44183
1.44707
1.4517
1.44829
1.43804
1.43483
1.43756
1.44212
1.45048
1.46843
1.48424
1.49316
1.49917
1.50356
1.5051
1.49748
1.48592
1.48159
1.48253
1.48811
1.49841
1.5168
2.08563
4.26647
1.17928
1.18303
1.18054
1.17783
1.17811
1.17995
1.18297
1.19171
1.20359
1.20962
1.21281
1.21485
1.21382
1.20912
1.20837
1.21031
1.21286
1.21726
1.22946
1.24044
1.24516
1.24777
1.24946
1.24536
1.23889
1.23845
1.24056
1.24322
1.24866
1.26354
1.27537
1.2803
1.28317
1.28413
1.27715
1.26996
1.27013
1.2729
1.27631
1.28315
1.30096
1.31518
1.32119
1.32479
1.32607
1.31722
1.3083
1.30803
1.31089
1.3144
1.32082
1.3388
1.35557
1.3629
1.36688
1.36954
1.36407
1.35231
1.34914
1.3515
1.35515
1.36061
1.37681
1.39599
1.40519
1.40955
1.41243
1.411
1.3998
1.39208
1.39205
1.39473
1.39881
1.41025
1.42937
1.44185
1.44828
1.45307
1.45656
1.45266
1.44235
1.43899
1.44191
1.44653
1.45482
1.47222
1.48769
1.49628
1.50179
1.50566
1.507
1.50088
1.48837
1.48094
1.48068
1.48321
1.50377
2.0859
4.23858
1.18266
1.18689
1.18589
1.18156
1.18093
1.18271
1.18513
1.19034
1.20207
1.21078
1.21465
1.21718
1.21893
1.21603
1.21306
1.21395
1.21598
1.21832
1.2246
1.23801
1.24584
1.24922
1.25149
1.25152
1.24528
1.24223
1.24352
1.24584
1.24865
1.25721
1.27296
1.28135
1.285
1.28754
1.28589
1.27738
1.27459
1.27662
1.27964
1.28318
1.29279
1.31081
1.32119
1.32562
1.32881
1.32863
1.31907
1.31353
1.31496
1.31816
1.32169
1.32922
1.34709
1.36071
1.3666
1.37046
1.37275
1.36631
1.35725
1.35618
1.35904
1.36267
1.36879
1.38485
1.40105
1.40887
1.41331
1.41671
1.41467
1.40449
1.3986
1.39904
1.40132
1.40494
1.41645
1.43485
1.44612
1.45216
1.45693
1.46039
1.45704
1.44816
1.44498
1.44752
1.45176
1.45874
1.47449
1.4893
1.49775
1.5028
1.50633
1.5078
1.50388
1.49156
1.48122
1.4755
1.49025
2.0723
4.21008
1.18496
1.18973
1.1901
1.18716
1.18524
1.18638
1.18841
1.19095
1.19834
1.21033
1.21685
1.22013
1.22261
1.22315
1.21892
1.2171
1.21793
1.21975
1.22281
1.23251
1.24526
1.25096
1.25361
1.25555
1.25313
1.24732
1.2465
1.24827
1.25077
1.25442
1.26555
1.27964
1.28638
1.28972
1.29177
1.28785
1.28086
1.28027
1.28259
1.28555
1.28941
1.30077
1.31756
1.32657
1.33087
1.33412
1.33279
1.32367
1.31996
1.32129
1.32362
1.32705
1.33581
1.35399
1.36643
1.37206
1.37577
1.37808
1.37075
1.36277
1.36244
1.365
1.36832
1.37436
1.39071
1.40657
1.41444
1.41859
1.42182
1.42028
1.41014
1.40403
1.40433
1.40709
1.41106
1.42135
1.43805
1.44949
1.45597
1.46077
1.46494
1.464
1.45569
1.45108
1.45234
1.4561
1.46152
1.47457
1.4892
1.4981
1.50313
1.5063
1.50785
1.50616
1.49597
1.48039
1.48132
2.04429
4.18206
1.18562
1.19162
1.19381
1.1944
1.1913
1.19025
1.19124
1.19299
1.19631
1.207
1.21826
1.22327
1.22584
1.22789
1.2259
1.2211
1.22054
1.22218
1.22428
1.22812
1.24
1.25122
1.25588
1.25838
1.25997
1.25562
1.25141
1.25173
1.25344
1.25534
1.25881
1.27127
1.2852
1.29171
1.29541
1.29738
1.29226
1.28653
1.28647
1.28858
1.29115
1.29476
1.30659
1.32339
1.33226
1.33671
1.33983
1.33733
1.32813
1.32461
1.32645
1.32967
1.33373
1.34299
1.3603
1.37191
1.37768
1.38115
1.38238
1.37529
1.36794
1.36764
1.37082
1.3748
1.38141
1.39645
1.41144
1.41947
1.42395
1.42644
1.42551
1.41764
1.41158
1.41081
1.41226
1.41535
1.42365
1.43999
1.45316
1.46073
1.46579
1.4696
1.4698
1.46305
1.457
1.45642
1.45922
1.46344
1.47366
1.48798
1.49778
1.5032
1.50619
1.50737
1.50682
1.49678
1.48618
2.01231
4.15474
1.18633
1.19477
1.19727
1.19969
1.19864
1.19447
1.19385
1.19539
1.19757
1.20314
1.21632
1.225
1.22881
1.23121
1.23249
1.22807
1.22442
1.22468
1.22599
1.2277
1.23285
1.24735
1.25769
1.26214
1.26477
1.26514
1.25941
1.25558
1.25501
1.25563
1.25791
1.26296
1.27839
1.29264
1.29903
1.30298
1.30434
1.29799
1.29231
1.29168
1.29262
1.29478
1.29918
1.31298
1.32958
1.33772
1.34207
1.34542
1.34287
1.33439
1.33181
1.33338
1.33566
1.33881
1.34715
1.36439
1.37591
1.38134
1.38572
1.38819
1.38224
1.3758
1.37563
1.37783
1.38043
1.38522
1.39911
1.41486
1.42336
1.42819
1.43255
1.43326
1.42538
1.41721
1.41505
1.4166
1.4199
1.42722
1.44243
1.45624
1.46404
1.46908
1.47354
1.47581
1.47077
1.46299
1.46025
1.46174
1.46487
1.47211
1.48586
1.49688
1.50273
1.50523
1.50648
1.50396
1.50387
1.9975
4.12708
1.1863
1.19825
1.20115
1.20362
1.20486
1.20046
1.19718
1.19779
1.19958
1.20214
1.21116
1.22501
1.23157
1.23467
1.23689
1.23623
1.22976
1.22638
1.22654
1.22822
1.23098
1.24
1.2566
1.26516
1.26876
1.27105
1.26928
1.26106
1.25699
1.25754
1.25962
1.26257
1.26979
1.28804
1.30119
1.30661
1.3101
1.31037
1.30181
1.29483
1.29455
1.29688
1.29971
1.30436
1.31934
1.33618
1.34426
1.34866
1.35215
1.34896
1.33976
1.33577
1.33627
1.33847
1.34201
1.35156
1.37012
1.3827
1.38846
1.39268
1.39533
1.38984
1.38179
1.37924
1.38081
1.38407
1.38912
1.40382
1.42128
1.43045
1.43469
1.43762
1.43871
1.4323
1.4236
1.42078
1.4217
1.42412
1.42939
1.44334
1.45881
1.46797
1.47339
1.47758
1.48037
1.47758
1.469
1.46378
1.46365
1.46586
1.4707
1.48316
1.49518
1.5013
1.50407
1.50262
1.51316
1.99817
4.09897
1.18496
1.20032
1.20486
1.20733
1.2094
1.20761
1.20159
1.20008
1.20135
1.20351
1.20791
1.22126
1.23315
1.2377
1.24005
1.24162
1.23704
1.22945
1.22824
1.22992
1.23228
1.23617
1.24946
1.26495
1.27151
1.27469
1.27638
1.27144
1.26245
1.2603
1.26184
1.26456
1.2682
1.27871
1.29744
1.30794
1.31269
1.3158
1.31479
1.30538
1.2995
1.29951
1.3012
1.30412
1.3102
1.32778
1.34374
1.35071
1.35463
1.35747
1.35408
1.34387
1.33928
1.34045
1.34359
1.34764
1.35789
1.37692
1.38893
1.3945
1.3982
1.40069
1.3958
1.3863
1.38353
1.38599
1.38995
1.39551
1.40878
1.42509
1.43423
1.43913
1.44264
1.4445
1.43933
1.42964
1.42485
1.42522
1.42801
1.43282
1.44518
1.46107
1.47106
1.47674
1.48095
1.48406
1.48337
1.4753
1.46759
1.46545
1.46661
1.46944
1.47974
1.49224
1.49948
1.49996
1.51351
2.00988
4.07207
1.1834
1.20035
1.2077
1.21086
1.21303
1.21369
1.20762
1.20307
1.20367
1.20572
1.20826
1.21553
1.23057
1.23918
1.24269
1.24472
1.24448
1.23646
1.23181
1.23258
1.23464
1.23705
1.24244
1.25842
1.2718
1.27738
1.28063
1.28143
1.27304
1.26509
1.2649
1.26734
1.27023
1.27404
1.28634
1.30439
1.31337
1.31773
1.32123
1.3197
1.30839
1.30241
1.30357
1.30658
1.31021
1.31767
1.33514
1.34907
1.35524
1.3594
1.36275
1.35863
1.34812
1.3447
1.34653
1.34958
1.35356
1.36461
1.38269
1.39339
1.39861
1.4027
1.40563
1.40115
1.39289
1.39091
1.39292
1.39555
1.39975
1.41186
1.42914
1.4394
1.44451
1.44749
1.44919
1.44537
1.43575
1.43029
1.43022
1.43244
1.43616
1.44605
1.46223
1.47372
1.47993
1.48408
1.48702
1.48758
1.48122
1.47163
1.46692
1.46685
1.46875
1.47678
1.4889
1.49383
1.50971
2.02541
4.04417
1.18309
1.19689
1.20905
1.2138
1.21624
1.21786
1.21496
1.2081
1.20683
1.20831
1.2103
1.21303
1.22297
1.23791
1.24467
1.24774
1.24967
1.24621
1.23774
1.23558
1.23675
1.2387
1.24147
1.24927
1.26665
1.27802
1.28281
1.28584
1.28545
1.27618
1.27001
1.27009
1.27208
1.27484
1.27955
1.29398
1.31093
1.31896
1.32302
1.32554
1.3228
1.31268
1.30876
1.31018
1.31255
1.3157
1.32378
1.34222
1.35546
1.36147
1.36498
1.36747
1.36297
1.35266
1.34962
1.35166
1.35489
1.35936
1.37022
1.38781
1.39868
1.40415
1.40778
1.41096
1.4079
1.39877
1.39521
1.39729
1.40092
1.40589
1.41664
1.43242
1.44282
1.44829
1.4516
1.4534
1.45143
1.44252
1.43531
1.43409
1.43632
1.43985
1.44813
1.46335
1.47545
1.48209
1.48606
1.48892
1.49034
1.48663
1.47701
1.46958
1.46772
1.46825
1.47382
1.48206
1.50053
2.03575
4.0138
1.18507
1.19163
1.20621
1.21492
1.21857
1.22078
1.22183
1.21625
1.21089
1.2106
1.21194
1.21389
1.21784
1.231
1.24464
1.25017
1.25285
1.25381
1.24741
1.24014
1.23953
1.2415
1.24385
1.24679
1.25576
1.27329
1.28363
1.28828
1.29165
1.29054
1.28037
1.27467
1.27531
1.27781
1.28068
1.28537
1.29969
1.31565
1.32308
1.32719
1.33074
1.32798
1.31745
1.31337
1.31518
1.3183
1.32239
1.33088
1.34745
1.35927
1.36488
1.36846
1.371
1.3679
1.35923
1.35629
1.35805
1.36122
1.36575
1.37556
1.39173
1.40274
1.40872
1.41264
1.41525
1.41376
1.40668
1.40352
1.40495
1.40746
1.41063
1.41824
1.43329
1.44519
1.45158
1.45526
1.45711
1.45618
1.44939
1.44208
1.43983
1.44134
1.44431
1.44947
1.46177
1.47499
1.48298
1.4873
1.49013
1.49246
1.49226
1.48407
1.47323
1.46774
1.46722
1.46802
1.48808
2.03503
3.98072
1.18769
1.19033
1.19886
1.21345
1.22063
1.22393
1.22606
1.22502
1.21707
1.21346
1.21433
1.21628
1.21833
1.22287
1.23761
1.24998
1.25497
1.2579
1.25808
1.25038
1.24486
1.24484
1.24612
1.24793
1.25146
1.26268
1.28033
1.28983
1.29422
1.29711
1.29503
1.28546
1.28087
1.28119
1.28245
1.28492
1.29028
1.30594
1.32157
1.32899
1.33286
1.33548
1.33292
1.32395
1.32089
1.32244
1.32447
1.32714
1.33396
1.35001
1.36254
1.36889
1.37381
1.37767
1.37555
1.36696
1.36365
1.36507
1.36723
1.37028
1.37807
1.39375
1.40566
1.41196
1.41689
1.42142
1.42207
1.41489
1.40896
1.4085
1.41129
1.41499
1.42105
1.43394
1.44676
1.45416
1.45781
1.46026
1.46164
1.45803
1.45052
1.44558
1.44486
1.44692
1.45064
1.45968
1.47358
1.48381
1.48941
1.49247
1.49457
1.49535
1.48996
1.47763
1.46872
1.46294
1.4747
2.02093
3.94629
1.19042
1.19195
1.19514
1.20682
1.22043
1.22625
1.22897
1.23065
1.22683
1.21929
1.21759
1.2184
1.21955
1.22156
1.22757
1.24439
1.25622
1.26093
1.26368
1.26277
1.25359
1.24797
1.24846
1.25086
1.25332
1.25689
1.26899
1.28639
1.2951
1.29943
1.30274
1.30042
1.28968
1.28419
1.28508
1.28764
1.29061
1.29586
1.31114
1.32634
1.3336
1.33831
1.34192
1.33963
1.32993
1.32503
1.32566
1.32818
1.33142
1.33831
1.35507
1.3692
1.37591
1.37991
1.38326
1.38188
1.37309
1.3679
1.36852
1.37133
1.37499
1.38195
1.39736
1.41138
1.41867
1.42291
1.42605
1.42738
1.42283
1.4166
1.41489
1.41645
1.41931
1.42369
1.4339
1.44805
1.45788
1.46266
1.46483
1.46644
1.46545
1.4586
1.45071
1.44786
1.4491
1.45213
1.45809
1.47154
1.48443
1.49112
1.49403
1.49561
1.49618
1.49308
1.48252
1.46797
1.46938
1.99145
3.91322
1.19399
1.19456
1.19622
1.20035
1.21394
1.22635
1.23151
1.23424
1.23538
1.22898
1.22138
1.21989
1.22121
1.22316
1.22568
1.23402
1.2517
1.26203
1.26654
1.26907
1.2672
1.25797
1.25367
1.25416
1.25542
1.25742
1.26169
1.27598
1.29298
1.3009
1.30481
1.30734
1.30468
1.29486
1.29055
1.29103
1.29224
1.29473
1.30068
1.31774
1.3333
1.34026
1.34399
1.34688
1.34531
1.33596
1.33053
1.33097
1.33334
1.33666
1.34376
1.35969
1.37309
1.38001
1.3844
1.38804
1.3876
1.3801
1.37458
1.3746
1.377
1.38048
1.38676
1.40045
1.41392
1.42163
1.42644
1.43093
1.43413
1.4314
1.42409
1.42024
1.42072
1.42326
1.42685
1.4352
1.45023
1.46113
1.46613
1.46833
1.46937
1.46961
1.46474
1.4556
1.45087
1.45143
1.45419
1.45885
1.47119
1.4846
1.4915
1.49425
1.49545
1.49564
1.4946
1.48487
1.47564
1.9608
3.88275
1.1987
1.19709
1.19807
1.19976
1.20513
1.22094
1.2326
1.23727
1.23968
1.23946
1.2305
1.22402
1.22379
1.22537
1.22716
1.22962
1.23964
1.2579
1.26765
1.2723
1.27548
1.27301
1.26223
1.25682
1.25762
1.26003
1.26258
1.26708
1.28194
1.29791
1.30515
1.30934
1.31279
1.3103
1.29897
1.29334
1.29433
1.29694
1.30022
1.30716
1.32402
1.3379
1.34433
1.34867
1.3524
1.35125
1.3411
1.33545
1.33615
1.33858
1.34178
1.34796
1.36322
1.37773
1.38518
1.38926
1.39308
1.39425
1.38725
1.38043
1.37993
1.38248
1.38566
1.39026
1.40213
1.41799
1.42779
1.43269
1.43591
1.43864
1.43832
1.43123
1.42523
1.42515
1.42822
1.43179
1.43791
1.45113
1.46258
1.46791
1.47011
1.47125
1.47243
1.47044
1.46227
1.45631
1.45581
1.45787
1.46048
1.46842
1.48162
1.48985
1.49335
1.4945
1.49532
1.49343
1.49371
1.94695
3.85299
1.20447
1.19925
1.19985
1.20142
1.20356
1.21101
1.22812
1.23843
1.24277
1.24534
1.24339
1.23328
1.22785
1.22728
1.2279
1.22978
1.23352
1.24701
1.26556
1.27447
1.27852
1.28097
1.27735
1.26678
1.26262
1.2631
1.26417
1.26638
1.27185
1.28859
1.30433
1.31124
1.31473
1.31703
1.31355
1.30319
1.29921
1.30039
1.3024
1.3053
1.31252
1.33015
1.34423
1.35053
1.354
1.35639
1.35483
1.34573
1.34014
1.34086
1.34389
1.3478
1.35431
1.36838
1.3827
1.39038
1.39439
1.39696
1.39793
1.39329
1.38648
1.38492
1.38757
1.39137
1.39675
1.40672
1.42055
1.43009
1.4354
1.43921
1.44212
1.44296
1.43833
1.43274
1.43178
1.4339
1.43683
1.44077
1.45075
1.4622
1.46878
1.47202
1.4739
1.47581
1.47634
1.47063
1.46235
1.45859
1.45902
1.46106
1.46625
1.4782
1.48812
1.49265
1.49478
1.49352
1.50328
1.94726
3.82197
1.21234
1.20365
1.20224
1.20325
1.20473
1.20724
1.21725
1.23531
1.24466
1.2486
1.25087
1.24659
1.23477
1.22951
1.23019
1.23219
1.23459
1.23957
1.25501
1.27184
1.27941
1.28344
1.28645
1.28249
1.27035
1.26523
1.26636
1.26876
1.27184
1.27859
1.29486
1.30858
1.31459
1.31798
1.32109
1.31841
1.30768
1.30339
1.30492
1.30783
1.312
1.3198
1.33472
1.34691
1.35284
1.35639
1.35975
1.35985
1.35277
1.34798
1.34856
1.35135
1.35471
1.35968
1.37073
1.38398
1.39181
1.39618
1.39971
1.4029
1.40105
1.39542
1.39372
1.39579
1.39883
1.40167
1.40711
1.41921
1.43082
1.43759
1.44168
1.44597
1.44973
1.44826
1.44194
1.43877
1.43916
1.44067
1.4427
1.44871
1.46025
1.46953
1.47473
1.47747
1.47948
1.48091
1.47734
1.46782
1.46144
1.46051
1.46193
1.46526
1.47563
1.48613
1.49204
1.49265
1.50438
1.95688
3.78978
1.22064
1.21229
1.20558
1.20506
1.2063
1.20814
1.21165
1.22481
1.24219
1.24996
1.25345
1.25526
1.24855
1.23736
1.2344
1.23548
1.23726
1.2397
1.24553
1.26236
1.27835
1.28528
1.28865
1.2905
1.28522
1.27451
1.27116
1.27254
1.27465
1.27737
1.28372
1.29964
1.31317
1.31941
1.32268
1.32441
1.32176
1.31389
1.31115
1.31275
1.31507
1.31784
1.32347
1.33694
1.35023
1.35769
1.36171
1.365
1.36672
1.36133
1.3553
1.35438
1.35627
1.35903
1.36257
1.3708
1.38478
1.39536
1.40137
1.40522
1.40922
1.41044
1.40586
1.40106
1.40021
1.40223
1.40513
1.4092
1.41883
1.4324
1.4422
1.44765
1.45161
1.45545
1.4561
1.44997
1.4441
1.44216
1.44312
1.44508
1.44922
1.45996
1.47123
1.47768
1.48053
1.48218
1.48306
1.48098
1.47339
1.46558
1.46271
1.46321
1.46511
1.47277
1.48375
1.48833
1.50138
1.96917
3.75558
1.22575
1.22443
1.21254
1.20802
1.20854
1.21035
1.21256
1.21704
1.23179
1.24749
1.25405
1.25693
1.25863
1.25159
1.24115
1.23891
1.24069
1.2432
1.24613
1.25253
1.26842
1.28244
1.28837
1.29139
1.29409
1.29018
1.27993
1.27614
1.27743
1.28012
1.28345
1.28895
1.30198
1.31508
1.32189
1.32602
1.32971
1.32919
1.32161
1.31668
1.31704
1.31982
1.32352
1.32855
1.33914
1.35292
1.36175
1.36664
1.37002
1.37231
1.36957
1.36294
1.3597