/*--------------------------------*- C++ -*----------------------------------*\
  =========                 |
  \\      /  F ield         | OpenFOAM: The Open Source CFD Toolbox
   \\    /   O peration     | Website:  https://openfoam.org
    \\  /    A nd           | Version:  12
     \\/     M anipulation  |
\*---------------------------------------------------------------------------*/
FoamFile
{
    format      ascii;
    class       volVectorField;
    location    "3.54";
    object      U;
}
// * * * * * * * * * * * * * * * * * * * * * * * * * * * * * * * * * * * * * //

dimensions      [0 1 -1 0 0 0 0];

internalField   nonuniform List<vector> 
22702
(
(2 -4.94932e-13 0)
(2 6.41682e-14 0)
(2.03913 -0.0946943 0)
(2 -1.16011e-09 0)
(1.97761 0.0339433 0)
(2 2.36518e-14 0)
(1.82988 0.229023 0)
(2 7.46821e-14 0)
(2 -4.08778e-13 0)
(2.09285 -0.265844 0)
(1.82971 0.228282 0)
(1.83071 0.229278 0)
(2 -7.73572e-14 0)
(1.83179 0.228587 0)
(2.03173 -0.0783174 0)
(2 -3.14009e-13 0)
(2 -1.09505e-13 0)
(2 1.24071e-14 0)
(1.82919 0.228365 0)
(2 2.08198e-14 0)
(1.83159 0.229384 0)
(2 -2.46136e-13 0)
(1.82891 0.22848 0)
(2.11543 -0.264307 0)
(1.83159 0.230198 0)
(2.08681 -0.273727 0)
(2 3.57657e-14 0)
(1.82868 0.228777 0)
(2.13083 -0.264092 0)
(2.11652 -0.264993 0)
(2 -3.80552e-14 0)
(1.83075 0.22913 0)
(2 3.39708e-15 0)
(2 -2.02649e-14 0)
(2 5.75094e-14 0)
(1.84451 0.214757 0)
(1.83043 0.229714 0)
(1.82881 0.228507 0)
(2 7.4726e-14 0)
(2 5.36327e-14 0)
(2.07524 -0.271579 0)
(2 -1.21373e-14 0)
(1.91565 0.124643 0)
(2 -5.87476e-14 0)
(1.82863 0.22821 0)
(2 -3.89842e-13 0)
(2 -5.83213e-14 0)
(2 -1.06658e-13 0)
(2 -1.95515e-13 0)
(2.11831 -0.269592 0)
(2 -1.75178e-13 0)
(2.11921 -0.266661 0)
(2 -9.62413e-14 0)
(1.8299 0.228416 0)
(2 -2.62508e-13 0)
(1.83073 0.22903 0)
(2 -1.63366e-14 0)
(2 1.40925e-09 0)
(2 1.47484e-13 0)
(2 -2.70881e-13 0)
(2.09135 -0.267442 0)
(2 -1.2513e-13 0)
(2 -3.17477e-13 0)
(2.13814 -0.268552 0)
(2 2.16213e-14 0)
(2.10734 -0.265985 0)
(2 -2.66149e-13 0)
(2 -4.10507e-13 0)
(2 6.97689e-14 0)
(2.08866 -0.270895 0)
(2 -3.25195e-13 0)
(1.83158 0.229198 0)
(1.89765 0.149 0)
(2 1.21838e-09 0)
(1.8316 0.229123 0)
(1.82242 0.237967 0)
(2.11125 -0.264771 0)
(1.83072 0.229185 0)
(2.10744 -0.262659 0)
(2 -3.34148e-13 0)
(1.82901 0.228508 0)
(2.10726 -0.263134 0)
(1.82825 0.228117 0)
(1.82816 0.228075 0)
(2 -8.21298e-15 0)
(2 8.70045e-07 0)
(2 -1.13687e-13 0)
(2 5.87037e-14 0)
(2.02131 -0.0462227 0)
(2.08495 -0.265575 0)
(1.83051 0.228534 0)
(2 -1.22447e-13 0)
(2 -5.35964e-11 0)
(2.15991 -0.257428 0)
(2 -8.1631e-15 0)
(1.83128 0.229571 0)
(2.15796 -0.25983 0)
(2 2.26513e-08 0)
(2 1.38874e-14 0)
(2 -3.15291e-13 0)
(2 -1.26239e-13 0)
(1.91703 0.122297 0)
(1.82917 0.228412 0)
(2.08735 -0.272627 0)
(2 5.25028e-10 0)
(2 -1.17613e-09 0)
(1.95778 0.0674382 0)
(2 9.35168e-09 0)
(2.10711 -0.261412 0)
(2 -3.00141e-13 0)
(1.83142 0.229152 0)
(1.83019 0.228528 0)
(2 4.07795e-09 0)
(2 -1.18338e-13 0)
(2.11598 -0.275678 0)
(2.11237 -0.267615 0)
(2.08724 -0.266518 0)
(2 -3.96615e-14 0)
(2 -1.36296e-07 0)
(2 -1.17183e-13 0)
(2 9.18507e-14 0)
(2 1.16145e-07 0)
(2.02268 -0.0566749 0)
(2 -1.07673e-07 0)
(1.85548 0.201428 0)
(1.98298 0.0277216 0)
(1.83132 0.2292 0)
(2 -1.79596e-13 0)
(1.83125 0.229267 0)
(1.82967 0.228641 0)
(1.83126 0.229066 0)
(1.83054 0.228607 0)
(2 -1.60288e-13 0)
(2.08065 -0.26975 0)
(2 -1.01559e-14 0)
(2.16111 -0.26168 0)
(2 -2.11176e-14 0)
(2 1.1241e-15 0)
(2 1.31174e-14 0)
(2 8.57765e-15 0)
(1.83042 0.228751 0)
(2 3.08837e-09 0)
(2 6.55288e-14 0)
(2 -2.64946e-13 0)
(2 1.16305e-13 0)
(1.83115 0.228979 0)
(2 5.67796e-14 0)
(1.99299 0.0144665 0)
(2 -4.62729e-15 0)
(2 -2.15953e-13 0)
(2 -6.63458e-11 0)
(2 -2.90726e-14 0)
(2.11967 -0.266727 0)
(2 1.27357e-14 0)
(1.99542 0.00859976 0)
(2 -3.67475e-14 0)
(2.10212 -0.264537 0)
(2 -2.1714e-13 0)
(2 5.87161e-14 0)
(2 -8.60974e-14 0)
(1.83001 0.228634 0)
(2 4.26795e-14 0)
(1.83091 0.229004 0)
(2.13896 -0.265989 0)
(2.09191 -0.271593 0)
(1.83119 0.229239 0)
(1.83114 0.229046 0)
(2 -3.6147e-14 0)
(1.96972 0.0412329 0)
(1.90228 0.144627 0)
(2 -1.41339e-13 0)
(1.82873 0.228716 0)
(2.11178 -0.26196 0)
(1.84419 0.215571 0)
(2 4.62806e-14 0)
(2 1.4776e-14 0)
(2 1.49558e-14 0)
(2 -1.25397e-13 0)
(1.83184 0.228573 0)
(1.86441 0.182886 0)
(2 -1.7013e-13 0)
(1.82994 0.228532 0)
(2.12574 -0.265885 0)
(1.82964 0.228951 0)
(2 -6.20976e-14 0)
(2.1073 -0.263473 0)
(2 -1.76368e-13 0)
(2.12581 -0.263186 0)
(2.0912 -0.273854 0)
(2.00007 -0.000143024 0)
(2 2.92165e-14 0)
(2 -2.71551e-13 0)
(1.83035 0.228861 0)
(2 -3.79872e-14 0)
(2 -1.30187e-13 0)
(1.8318 0.229179 0)
(2 -2.98013e-13 0)
(1.82974 0.228415 0)
(1.82998 0.228434 0)
(2.09827 -0.27611 0)
(2 1.5441e-13 0)
(2 -1.65482e-13 0)
(2.10932 -0.26685 0)
(1.83184 0.229144 0)
(2 -5.60327e-14 0)
(2 -1.37727e-13 0)
(2 -1.60423e-13 0)
(1.83168 0.229024 0)
(2 -1.43495e-13 0)
(2.12935 -0.261384 0)
(2 -5.8193e-11 0)
(2 -1.01878e-13 0)
(1.83171 0.228971 0)
(1.8311 0.228836 0)
(1.83074 0.228981 0)
(2 7.34271e-14 0)
(1.99999 2.36895e-05 0)
(2 -1.29106e-14 0)
(2 -1.0331e-13 0)
(2 -1.70784e-13 0)
(1.83168 0.229137 0)
(2 -2.97207e-14 0)
(2.10865 -0.266349 0)
(1.82472 0.234777 0)
(1.83182 0.229212 0)
(1.8317 0.228779 0)
(2 2.00003e-07 0)
(2 1.08135e-13 0)
(2 4.74198e-14 0)
(2.10598 -0.270683 0)
(1.83192 0.229098 0)
(1.91968 0.127984 0)
(2 1.0556e-13 0)
(1.83091 0.229622 0)
(2.11338 -0.267857 0)
(2.1214 -0.265703 0)
(1.83111 0.229755 0)
(1.83129 0.22939 0)
(2 -3.4737e-14 0)
(1.82993 0.233591 0)
(2.1113 -0.272337 0)
(1.85023 0.206195 0)
(2 -6.33899e-14 0)
(2 -2.33241e-13 0)
(2 4.75371e-15 0)
(2 -2.33526e-13 0)
(1.83172 0.228985 0)
(2 -3.11419e-13 0)
(1.90794 0.135714 0)
(1.98307 0.0294824 0)
(2 -2.00351e-13 0)
(2 -2.50031e-13 0)
(1.83216 0.229107 0)
(2.16154 -0.256835 0)
(2.06316 -0.163175 0)
(2 1.11191e-13 0)
(1.83095 0.229934 0)
(2.11327 -0.265502 0)
(1.82972 0.230526 0)
(2 -1.28804e-14 0)
(2 2.72215e-14 0)
(2 -8.81677e-14 0)
(2 -2.81432e-14 0)
(2 -8.85297e-14 0)
(2 -2.91331e-14 0)
(2 -7.96131e-15 0)
(2.11749 -0.259209 0)
(2.06323 -0.171814 0)
(2.12626 -0.263669 0)
(1.83137 0.228889 0)
(2 1.14553e-13 0)
(2 7.8409e-14 0)
(2 -1.63579e-07 0)
(2 -1.56401e-14 0)
(1.85038 0.213474 0)
(2 -1.31553e-07 0)
(2.11395 -0.259316 0)
(2 -1.15906e-14 0)
(2.106 -0.27966 0)
(2.11172 -0.266407 0)
(1.83186 0.229098 0)
(2.1077 -0.266649 0)
(1.83158 0.22928 0)
(2 -4.15888e-14 0)
(2 -2.16194e-13 0)
(2 -2.16564e-13 0)
(2.00082 -0.00166637 0)
(2.10741 -0.262646 0)
(2.12622 -0.267967 0)
(2 -3.21226e-07 0)
(2 -1.43708e-07 0)
(2.10644 -0.282925 0)
(2 2.44515e-09 0)
(1.82998 0.228533 0)
(2.09388 -0.27918 0)
(2 -1.40051e-14 0)
(2 -3.84758e-11 0)
(1.82904 0.228562 0)
(2.14802 -0.268881 0)
(2 -1.781e-13 0)
(1.82937 0.228866 0)
(2.09797 -0.27318 0)
(1.83202 0.228967 0)
(2 -1.32088e-13 0)
(2.11218 -0.285316 0)
(2.0009 -0.00149026 0)
(2 -3.82461e-14 0)
(2 2.75959e-06 0)
(2 7.47622e-14 0)
(2.10451 -0.265135 0)
(2 -7.78163e-14 0)
(2 -1.65222e-07 0)
(2 3.17249e-07 0)
(1.99999 1.03943e-05 0)
(1.99586 0.0086833 0)
(1.89584 0.150369 0)
(2 -2.5571e-11 0)
(2.09777 -0.251305 0)
(2 -1.56781e-11 0)
(2 1.68566e-06 0)
(2 6.27529e-14 0)
(2 -3.52175e-14 0)
(2 3.06902e-14 0)
(2 -3.47062e-14 0)
(2 -9.16664e-13 0)
(1.82958 0.228591 0)
(2 2.76531e-13 0)
(1.83049 0.228489 0)
(2 7.51748e-14 0)
(2 -1.36845e-14 0)
(2 8.70095e-16 0)
(2.11772 -0.263442 0)
(2 1.0466e-13 0)
(1.83103 0.228811 0)
(2.10622 -0.264205 0)
(2 2.11594e-13 0)
(1.87644 0.169498 0)
(2 -3.2172e-13 0)
(2 -2.79851e-13 0)
(1.8291 0.22914 0)
(2 1.42643e-14 0)
(2 -1.02785e-08 0)
(2 1.44172e-14 0)
(1.82993 0.22702 0)
(2 5.2545e-10 0)
(2 -2.22342e-14 0)
(1.83876 0.225543 0)
(1.82937 0.2293 0)
(2 2.25181e-14 0)
(1.9623 0.0583677 0)
(2 2.32226e-14 0)
(2 2.31376e-14 0)
(2.16037 -0.258924 0)
(2 -2.97545e-14 0)
(2 -1.3959e-13 0)
(2 9.41263e-14 0)
(2.16724 -0.262754 0)
(2 -7.79684e-14 0)
(2 -1.04708e-13 0)
(2 1.22536e-13 0)
(2 2.59582e-13 0)
(2.10609 -0.253378 0)
(2 -1.21784e-14 0)
(2 1.56543e-13 0)
(2 -1.18571e-13 0)
(2 -1.35204e-13 0)
(2 5.76581e-15 0)
(2.11731 -0.269788 0)
(1.99998 3.95381e-05 0)
(1.83144 0.229238 0)
(2 -4.02157e-14 0)
(1.99998 -1.97331e-05 0)
(1.83144 0.229234 0)
(1.83097 0.229061 0)
(2 7.30865e-14 0)
(2 -2.887e-14 0)
(2.08439 -0.270236 0)
(2.07192 -0.126002 0)
(1.83023 0.229106 0)
(2 -5.5592e-14 0)
(2 1.71737e-13 0)
(2 5.44785e-14 0)
(1.83196 0.228697 0)
(2.08758 -0.269802 0)
(2 -9.51499e-14 0)
(1.83128 0.229157 0)
(2 -6.54528e-14 0)
(2 -2.73842e-14 0)
(2.09832 -0.220973 0)
(2.1021 -0.222128 0)
(2 -1.5828e-13 0)
(2.09658 -0.262342 0)
(2.10752 -0.264445 0)
(2 5.25337e-14 0)
(2 -3.38696e-14 0)
(2 -1.38535e-13 0)
(2 1.10346e-13 0)
(2 -9.34709e-11 0)
(2 -2.40945e-13 0)
(2 -2.07347e-13 0)
(1.83098 0.229311 0)
(1.9536 0.0681759 0)
(1.84042 0.213788 0)
(2.12668 -0.261873 0)
(2.03219 -0.0672816 0)
(1.8302 0.228756 0)
(2 -5.78098e-13 0)
(1.83134 0.229151 0)
(1.8302 0.229008 0)
(2.12148 -0.26053 0)
(2.08083 -0.15741 0)
(2 9.78751e-13 0)
(2.12729 -0.261085 0)
(2 -1.17797e-14 0)
(1.82152 0.235577 0)
(2 -1.60197e-13 0)
(2 9.11708e-14 0)
(2 -1.52502e-13 0)
(2 -1.6912e-14 0)
(1.83183 0.229115 0)
(2 6.62885e-15 0)
(2 -1.10135e-13 0)
(2 -3.99764e-14 0)
(2 1.50662e-09 0)
(2 -2.5046e-14 0)
(2 -2.06949e-14 0)
(2 -3.33334e-13 0)
(1.9382 0.0872025 0)
(1.82874 0.228182 0)
(2 1.84453e-13 0)
(1.83127 0.228844 0)
(2 8.66258e-14 0)
(2 1.37796e-13 0)
(2.10762 -0.264308 0)
(2 1.32663e-15 0)
(2 -6.36806e-14 0)
(2 -5.73578e-14 0)
(2 -1.9221e-13 0)
(1.83165 0.228985 0)
(1.87188 0.179464 0)
(2 -3.15328e-13 0)
(2 -2.43367e-13 0)
(2.09489 -0.266121 0)
(1.8317 0.229251 0)
(1.83159 0.228918 0)
(2 6.58106e-14 0)
(1.83169 0.229016 0)
(1.83172 0.229203 0)
(1.83111 0.228838 0)
(2 -2.79583e-14 0)
(2.06684 -0.11073 0)
(2 -1.31015e-13 0)
(1.83164 0.228538 0)
(2.00528 -0.0137009 0)
(1.83117 0.228834 0)
(2 -2.75146e-14 0)
(2.13186 -0.261902 0)
(2.00037 -0.000604086 0)
(1.82983 0.228152 0)
(2 3.12999e-14 0)
(2 -6.71959e-14 0)
(2 -4.41925e-11 0)
(2 -2.23177e-11 0)
(2.1107 -0.258999 0)
(1.83189 0.229097 0)
(1.84754 0.211522 0)
(2 9.09497e-14 0)
(1.83086 0.228656 0)
(1.83164 0.228517 0)
(1.82956 0.228602 0)
(2 -2.43989e-14 0)
(1.92051 0.128428 0)
(1.83128 0.229829 0)
(2 -2.23974e-13 0)
(2 -2.58989e-14 0)
(1.88302 0.168705 0)
(1.97813 0.0398694 0)
(1.83157 0.228837 0)
(2.0255 -0.0449116 0)
(1.83143 0.22881 0)
(2 -3.36363e-14 0)
(1.83121 0.228813 0)
(1.83132 0.22907 0)
(1.83115 0.22878 0)
(1.83159 0.229283 0)
(2 1.39428e-13 0)
(1.83452 0.234559 0)
(2.02782 -0.0600974 0)
(2.03974 -0.0709703 0)
(2 2.78184e-14 0)
(2 -4.0451e-07 0)
(2 2.0985e-13 0)
(2 -1.3178e-13 0)
(1.83057 0.22782 0)
(2 -3.31963e-14 0)
(2 -7.74783e-15 0)
(2 6.46201e-15 0)
(2 -4.90442e-14 0)
(2 1.39109e-14 0)
(1.82984 0.22825 0)
(2 -2.14071e-14 0)
(2 -2.2053e-14 0)
(2.00158 -0.00260836 0)
(1.83166 0.228972 0)
(1.84974 0.214411 0)
(2 -3.13719e-13 0)
(1.86846 0.185712 0)
(1.99998 2.86084e-05 0)
(2 6.49907e-14 0)
(2 -1.8283e-13 0)
(1.83134 0.229014 0)
(2 -8.85032e-15 0)
(2.00244 -0.00288352 0)
(1.99766 0.00468989 0)
(2 -2.44905e-14 0)
(1.83132 0.229072 0)
(2 7.07715e-14 0)
(1.83235 0.228604 0)
(2 1.37053e-14 0)
(2 2.85274e-15 0)
(1.87432 0.179289 0)
(2 -4.41784e-14 0)
(1.83228 0.228674 0)
(1.99999 1.26525e-05 0)
(2 -1.93532e-13 0)
(1.83207 0.229198 0)
(2 -1.36477e-13 0)
(1.8317 0.22901 0)
(2 -5.58898e-15 0)
(2 2.97212e-06 0)
(2 -2.04814e-14 0)
(1.83181 0.229079 0)
(2 2.7624e-14 0)
(1.83198 0.228207 0)
(2 4.45119e-06 0)
(1.83172 0.228982 0)
(1.82952 0.228717 0)
(1.83178 0.229036 0)
(1.82924 0.228692 0)
(2 6.31921e-14 0)
(1.83058 0.228106 0)
(1.83262 0.233766 0)
(2 6.39441e-14 0)
(2.11356 -0.263889 0)
(1.84237 0.21701 0)
(1.87718 0.1734 0)
(2 -8.12191e-14 0)
(1.83184 0.229169 0)
(2 -2.49376e-14 0)
(2.15811 -0.256966 0)
(2.09762 -0.269352 0)
(2 8.10457e-14 0)
(2 1.94986e-16 0)
(2 3.38732e-14 0)
(2 -2.71536e-13 0)
(2 2.18941e-09 0)
(2.16096 -0.2564 0)
(2 4.74659e-14 0)
(1.83134 0.22884 0)
(1.9594 0.0644117 0)
(1.83159 0.229281 0)
(2 -2.14721e-13 0)
(2 7.67748e-11 0)
(2 -1.20552e-13 0)
(2 -2.12224e-13 0)
(2 -5.30317e-08 0)
(1.83129 0.229084 0)
(2 8.11387e-14 0)
(1.82915 0.229502 0)
(1.89947 0.143667 0)
(2.08592 -0.154375 0)
(2 1.34293e-09 0)
(1.99999 6.69506e-06 0)
(1.94906 0.079166 0)
(1.95654 0.0703249 0)
(2 2.26006e-14 0)
(2 9.70382e-14 0)
(1.93906 0.0915764 0)
(2 -1.64939e-13 0)
(2.10819 -0.262966 0)
(1.83169 0.228949 0)
(1.83159 0.228898 0)
(2 -7.35127e-11 0)
(2 1.13474e-13 0)
(2 -8.06506e-14 0)
(1.83124 0.228907 0)
(2 -1.13084e-13 0)
(1.99999 1.60609e-05 0)
(1.83036 0.228218 0)
(1.83194 0.229071 0)
(2.01049 -0.0293851 0)
(2 -8.53861e-14 0)
(2 1.75707e-10 0)
(2.11419 -0.265072 0)
(1.84722 0.210652 0)
(2 1.47668e-13 0)
(2 5.0424e-14 0)
(2 4.40168e-14 0)
(2 -2.70409e-11 0)
(2 -1.18321e-13 0)
(1.83162 0.228943 0)
(1.8309 0.228282 0)
(2 1.16785e-13 0)
(1.83175 0.229575 0)
(1.83132 0.228281 0)
(1.83189 0.229043 0)
(2 -2.84621e-14 0)
(2 2.16799e-14 0)
(2 -6.04879e-11 0)
(2 -7.6835e-14 0)
(2.09038 -0.278303 0)
(1.83053 0.228923 0)
(2 -4.66378e-11 0)
(2 2.39547e-15 0)
(1.84754 0.210408 0)
(1.83231 0.228386 0)
(2 -3.20045e-13 0)
(1.84077 0.21804 0)
(1.83001 0.228848 0)
(2 -1.94296e-13 0)
(2 -2.19164e-07 0)
(2 9.60389e-11 0)
(2 -7.39666e-14 0)
(2 -2.69524e-13 0)
(1.83132 0.229008 0)
(2 -3.49109e-14 0)
(2 -3.79406e-13 0)
(2 -7.71287e-14 0)
(2 -1.81783e-13 0)
(1.83097 0.229053 0)
(2 -3.15308e-13 0)
(1.82673 0.232564 0)
(2.13067 -0.260656 0)
(2 -4.33192e-14 0)
(2.11452 -0.265137 0)
(2 5.14478e-14 0)
(2 -1.59101e-07 0)
(2 1.02462e-13 0)
(2.00122 -0.00180127 0)
(2.12557 -0.261939 0)
(2.00034 -0.000538256 0)
(2 8.71195e-14 0)
(2 2.14895e-14 0)
(2 -1.18119e-07 0)
(1.97556 0.0370991 0)
(2 -1.52548e-13 0)
(2 1.77265e-13 0)
(2.04254 -0.0960014 0)
(2 -2.1397e-07 0)
(2 -1.09668e-13 0)
(2 4.8642e-14 0)
(2 -2.20018e-07 0)
(2 3.38698e-07 0)
(2 -1.13621e-07 0)
(2 -2.83555e-13 0)
(2 -1.70506e-06 0)
(2.02836 -0.0501072 0)
(2 -4.35027e-07 0)
(2 -4.0736e-08 0)
(2.00088 -0.00139168 0)
(2 3.67676e-14 0)
(2.11301 -0.259162 0)
(2 -2.78251e-11 0)
(2 -4.35887e-12 0)
(2 -7.48671e-11 0)
(2 1.357e-13 0)
(1.87409 0.178327 0)
(2 -7.85254e-14 0)
(2 -5.44796e-14 0)
(2 6.36569e-14 0)
(2 -1.67842e-07 0)
(2.10313 -0.26275 0)
(2 -8.93026e-14 0)
(2 1.56345e-09 0)
(1.84105 0.218349 0)
(1.83017 0.228479 0)
(2 -2.95387e-07 0)
(2 9.14524e-14 0)
(2 -1.10888e-07 0)
(2.03197 -0.0636471 0)
(2 -1.1981e-14 0)
(2 4.51232e-10 0)
(2 2.40536e-14 0)
(2 7.83889e-14 0)
(2 2.49469e-13 0)
(2 9.71732e-14 0)
(2.01191 -0.0311174 0)
(1.99576 0.00709391 0)
(1.83181 0.228789 0)
(2 2.03576e-13 0)
(2 -1.48314e-13 0)
(2 -7.89205e-14 0)
(1.83223 0.227421 0)
(2.03145 -0.0684005 0)
(2 -4.92651e-09 0)
(2 3.73144e-14 0)
(2 8.46994e-14 0)
(1.82866 0.227989 0)
(1.83043 0.227713 0)
(2 -2.91087e-08 0)
(2 4.77619e-06 0)
(2 3.6923e-09 0)
(2 -2.71566e-14 0)
(2 1.16575e-09 0)
(2 -8.50013e-14 0)
(2 -1.7124e-11 0)
(2 2.34646e-13 0)
(2 1.45796e-13 0)
(2.11482 -0.262409 0)
(2 7.65425e-14 0)
(2 -1.67877e-11 0)
(1.82945 0.229355 0)
(2.13246 -0.263177 0)
(2 -1.528e-13 0)
(1.82999 0.228841 0)
(2 7.25605e-11 0)
(2.11327 -0.264097 0)
(2 -2.73061e-14 0)
(2 -2.40942e-13 0)
(2.11302 -0.26587 0)
(2 -3.03741e-13 0)
(2 -1.2217e-11 0)
(2 -5.34266e-12 0)
(2 4.03581e-14 0)
(2 -3.4117e-12 0)
(2 -1.75299e-13 0)
(2 -4.42951e-14 0)
(1.83505 0.225104 0)
(1.83214 0.228634 0)
(2 4.0276e-13 0)
(2 3.07963e-14 0)
(2 4.11391e-14 0)
(2 4.17109e-13 0)
(1.84589 0.212409 0)
(2 3.11043e-13 0)
(1.94629 0.0870172 0)
(2.10796 -0.262311 0)
(2 -3.26038e-08 0)
(2 3.83006e-13 0)
(2 -1.09644e-13 0)
(2 -3.99047e-13 0)
(2 -5.72742e-14 0)
(2 -8.69092e-14 0)
(2 -5.08085e-15 0)
(1.98085 0.0185841 0)
(2 -5.34501e-14 0)
(2 -9.086e-14 0)
(1.90459 0.123193 0)
(2 1.92394e-14 0)
(2 6.71442e-14 0)
(2 -7.55094e-14 0)
(1.85953 0.195189 0)
(2 -1.55257e-13 0)
(2 7.82024e-14 0)
(2 -2.06479e-13 0)
(2 -4.194e-14 0)
(2.11731 -0.263985 0)
(2 7.55972e-12 0)
(2 3.39599e-14 0)
(2.11426 -0.28169 0)
(2.11947 -0.259883 0)
(2 -1.52213e-13 0)
(2 1.42915e-13 0)
(1.83155 0.228461 0)
(2 1.3312e-13 0)
(1.97066 -0.0429901 0)
(2 -2.56122e-15 0)
(2 1.85975e-14 0)
(2 -6.22279e-14 0)
(1.88221 0.16915 0)
(2.11033 -0.269616 0)
(2 -2.38217e-13 0)
(2.11938 -0.274418 0)
(2 1.01532e-13 0)
(2.0756 -0.15874 0)
(2 -3.02376e-13 0)
(2 1.42498e-13 0)
(2 4.52507e-14 0)
(1.83065 0.228286 0)
(2 -4.43663e-08 0)
(2 -2.5564e-13 0)
(1.83164 0.22893 0)
(2 -2.01493e-13 0)
(2 -2.81895e-11 0)
(2 1.75098e-09 0)
(1.83163 0.229005 0)
(2 2.20115e-10 0)
(2 -1.80115e-13 0)
(1.83186 0.228986 0)
(2 -4.11249e-13 0)
(2 6.86192e-14 0)
(2.11984 -0.262449 0)
(2 -1.73675e-11 0)
(1.94209 0.0872174 0)
(2 -7.27508e-14 0)
(2 -1.59558e-13 0)
(1.83077 0.228589 0)
(1.82968 0.22909 0)
(1.88627 0.165087 0)
(1.84978 0.207715 0)
(2 -1.08709e-13 0)
(2.12607 -0.260748 0)
(2 -1.17853e-13 0)
(2 2.10149e-14 0)
(1.8388 0.220798 0)
(2 -6.11538e-14 0)
(2.12006 -0.265503 0)
(2 -1.61538e-13 0)
(2 4.30194e-14 0)
(2 -1.70053e-13 0)
(1.83104 0.229094 0)
(2 3.77875e-14 0)
(2 1.11655e-14 0)
(2 5.93219e-15 0)
(2 -6.54402e-14 0)
(1.89918 0.145686 0)
(2 -2.13765e-15 0)
(1.85177 0.204779 0)
(1.82892 0.230105 0)
(2.12805 -0.262091 0)
(2 -4.51972e-13 0)
(2 -1.2713e-13 0)
(2.08571 -0.267893 0)
(2.08701 -0.266516 0)
(2 -3.38112e-14 0)
(2 -2.83011e-14 0)
(2 -6.6012e-12 0)
(1.87935 0.173517 0)
(1.87259 0.179461 0)
(2 -2.1302e-14 0)
(2 -2.47765e-14 0)
(2 4.46095e-14 0)
(2 8.26951e-15 0)
(2 -2.33364e-14 0)
(2 -5.98417e-14 0)
(2 -5.35204e-14 0)
(1.92993 0.105869 0)
(1.8278 0.228288 0)
(1.99032 -0.00403806 0)
(2 -3.61701e-14 0)
(1.83425 0.226861 0)
(2.07975 -0.271236 0)
(2 -9.72109e-14 0)
(2 -1.18643e-13 0)
(2 2.80493e-13 0)
(1.90978 0.135111 0)
(2 2.07628e-13 0)
(1.96625 0.0519911 0)
(2 -1.75242e-13 0)
(1.84652 0.211314 0)
(1.83192 0.228101 0)
(2 -1.41341e-13 0)
(2.13215 -0.262615 0)
(2 -1.15316e-14 0)
(1.83061 0.228935 0)
(2 2.75098e-14 0)
(2 4.49098e-14 0)
(1.83103 0.228524 0)
(1.84193 0.217576 0)
(2 2.19949e-14 0)
(1.82625 0.229099 0)
(2 -1.55469e-13 0)
(2.15607 -0.260976 0)
(2 -7.83444e-14 0)
(2 -1.36241e-13 0)
(2 -5.78219e-14 0)
(1.82651 0.231294 0)
(1.8351 0.225032 0)
(1.85215 0.205621 0)
(2 7.54168e-14 0)
(1.83003 0.229713 0)
(1.83174 0.228866 0)
(2 -3.56163e-14 0)
(1.83087 0.229328 0)
(2 -8.99856e-09 0)
(1.83185 0.228095 0)
(2 -1.1176e-13 0)
(2.10656 -0.268383 0)
(2.01236 -0.0176943 0)
(2.11968 -0.265869 0)
(2 -3.37851e-11 0)
(2 -2.4023e-11 0)
(2 -3.14893e-11 0)
(2 -1.0251e-13 0)
(2 -1.52452e-11 0)
(1.83204 0.229185 0)
(2 -4.0965e-14 0)
(1.83226 0.229137 0)
(2 -4.32117e-11 0)
(2 -9.47316e-11 0)
(2 2.82922e-14 0)
(1.83948 0.220107 0)
(2 1.546e-13 0)
(2.11004 -0.26636 0)
(1.83161 0.228936 0)
(2 3.91207e-15 0)
(2.11398 -0.262459 0)
(2.11177 -0.245665 0)
(2.12237 -0.252178 0)
(2 -1.89989e-13 0)
(1.9161 0.128435 0)
(1.98624 0.0203957 0)
(1.83069 0.229553 0)
(1.83165 0.228852 0)
(2 -3.19981e-14 0)
(2 -3.84696e-07 0)
(2 -1.24143e-07 0)
(2 -7.05208e-16 0)
(1.83144 0.22898 0)
(2 1.65807e-13 0)
(2 8.30172e-14 0)
(1.83158 0.229083 0)
(1.83185 0.22887 0)
(2 -1.8615e-13 0)
(1.94021 0.0892605 0)
(1.99978 0.000751846 0)
(2 5.35247e-14 0)
(2.00118 -0.00195738 0)
(1.83122 0.229181 0)
(2.05587 -0.107192 0)
(2 -1.2027e-07 0)
(2.06156 -0.118715 0)
(2.10924 -0.262795 0)
(2.10434 -0.262649 0)
(1.98509 -0.00626947 0)
(1.82978 0.228437 0)
(1.83373 0.226128 0)
(1.96813 0.049878 0)
(1.83143 0.228998 0)
(1.83158 0.228941 0)
(2 1.38549e-13 0)
(2 5.91442e-14 0)
(1.83114 0.228918 0)
(1.83012 0.229045 0)
(1.83143 0.228673 0)
(1.82851 0.228057 0)
(2 -7.53056e-15 0)
(1.83108 0.228903 0)
(2.11763 -0.262253 0)
(1.83204 0.230373 0)
(1.83101 0.230456 0)
(1.83088 0.228299 0)
(1.83253 0.230268 0)
(2.04198 -0.0933001 0)
(2.02683 -0.0661055 0)
(2.02468 -0.0509354 0)
(1.83168 0.228946 0)
(2.01728 -0.0273911 0)
(1.83119 0.228544 0)
(2 1.52128e-13 0)
(2 -1.6144e-14 0)
(1.8305 0.229647 0)
(1.83151 0.22932 0)
(2 -3.24277e-14 0)
(2.13237 -0.262201 0)
(1.83013 0.228093 0)
(1.83178 0.22886 0)
(2 4.52372e-14 0)
(1.83168 0.228998 0)
(1.83152 0.228982 0)
(2 -5.25941e-14 0)
(1.83164 0.229002 0)
(2.10865 -0.261134 0)
(1.83099 0.228243 0)
(1.82929 0.228862 0)
(1.83097 0.228613 0)
(1.82717 0.230656 0)
(2 -1.70407e-13 0)
(2 -1.31725e-13 0)
(2 -1.01865e-07 0)
(1.8319 0.228799 0)
(1.88911 0.158779 0)
(2.09402 -0.25384 0)
(1.83163 0.229017 0)
(2.1171 -0.273715 0)
(1.8317 0.228667 0)
(2 -5.0114e-14 0)
(2 1.41694e-13 0)
(2 -9.37626e-14 0)
(2 -8.37966e-14 0)
(1.8308 0.22831 0)
(1.83152 0.229206 0)
(2 3.53697e-14 0)
(2 -1.43273e-13 0)
(1.83147 0.229047 0)
(2.11228 -0.272439 0)
(1.83103 0.229071 0)
(2.11431 -0.2624 0)
(2 8.10817e-14 0)
(1.83273 0.227489 0)
(2 -8.13048e-14 0)
(2.09712 -0.260235 0)
(1.83073 0.22953 0)
(2.08649 -0.196458 0)
(2 -4.24323e-14 0)
(1.83162 0.228887 0)
(1.83017 0.229864 0)
(1.83195 0.229519 0)
(2 9.1627e-14 0)
(2 5.78825e-14 0)
(1.92168 0.116425 0)
(1.83055 0.229467 0)
(2.11729 -0.258048 0)
(1.83168 0.228898 0)
(2 4.74799e-14 0)
(1.83211 0.229124 0)
(2.0426 -0.0851068 0)
(1.83199 0.22926 0)
(2.10723 -0.263932 0)
(2 -1.43476e-13 0)
(1.83316 0.229469 0)
(2.11352 -0.234959 0)
(1.83053 0.229676 0)
(2.10556 -0.265182 0)
(2 5.09114e-14 0)
(1.83106 0.229028 0)
(2 1.41327e-13 0)
(1.82899 0.228366 0)
(2 -1.07502e-13 0)
(1.9012 0.145314 0)
(1.83793 0.221993 0)
(1.86787 0.185794 0)
(2.11195 -0.280277 0)
(2 -1.68039e-13 0)
(1.83168 0.22938 0)
(2 8.486e-14 0)
(1.83191 0.229139 0)
(2 -1.1655e-07 0)
(1.83185 0.229138 0)
(2 -2.40857e-07 0)
(2 -2.62881e-13 0)
(1.83107 0.228715 0)
(2.00656 -0.00592709 0)
(1.83031 0.229989 0)
(2.12736 -0.256935 0)
(1.84259 0.232711 0)
(2 2.17792e-14 0)
(1.87881 0.172534 0)
(2 -2.64118e-13 0)
(1.83085 0.228846 0)
(1.83199 0.228975 0)
(1.83088 0.229316 0)
(2 -1.06828e-13 0)
(1.8489 0.208668 0)
(1.83147 0.228885 0)
(1.84358 0.215212 0)
(1.8986 0.146534 0)
(1.83184 0.235004 0)
(2 -5.68679e-14 0)
(1.8888 0.163432 0)
(2 -2.11043e-13 0)
(1.83104 0.229002 0)
(2 -7.77783e-14 0)
(1.97534 0.0393393 0)
(2 -6.9097e-14 0)
(1.84461 0.214402 0)
(2 9.61431e-14 0)
(1.83207 0.2292 0)
(1.8396 0.220506 0)
(1.83939 0.220046 0)
(2 6.85339e-14 0)
(1.84318 0.224193 0)
(2.09456 -0.266423 0)
(2 -1.19682e-13 0)
(2.12853 -0.258432 0)
(2 -2.66571e-13 0)
(2 -9.05779e-15 0)
(2 9.52511e-14 0)
(1.83186 0.229104 0)
(2 3.57597e-15 0)
(1.83176 0.229273 0)
(2 4.69502e-14 0)
(2 4.19239e-14 0)
(2 -3.19863e-14 0)
(1.831 0.229349 0)
(1.83637 0.233376 0)
(1.85412 0.201394 0)
(1.83113 0.229836 0)
(1.83143 0.229219 0)
(2.11423 -0.265248 0)
(1.83228 0.224949 0)
(1.82935 0.228519 0)
(2 1.38378e-13 0)
(1.85634 0.201104 0)
(1.83181 0.228847 0)
(1.83947 0.216069 0)
(2 -5.39124e-14 0)
(1.8293 0.228862 0)
(1.83089 0.229228 0)
(2 1.49337e-13 0)
(1.83224 0.232435 0)
(1.83112 0.228665 0)
(1.83125 0.22834 0)
(1.83071 0.229553 0)
(2 -8.3127e-14 0)
(2 1.49238e-13 0)
(2 1.28018e-13 0)
(1.8316 0.229205 0)
(2.1037 -0.268054 0)
(2 -1.25822e-13 0)
(1.83158 0.228963 0)
(2 -4.90204e-14 0)
(2 2.63613e-13 0)
(2.1006 -0.273622 0)
(2 -1.15533e-13 0)
(2 2.27843e-13 0)
(1.83146 0.228842 0)
(1.8307 0.228109 0)
(2 -1.2299e-13 0)
(1.83202 0.228937 0)
(1.82818 0.230656 0)
(1.83127 0.228884 0)
(2.00466 -0.0104846 0)
(1.83139 0.229011 0)
(2 1.42441e-14 0)
(1.83138 0.229039 0)
(1.83155 0.229142 0)
(1.86917 0.183972 0)
(2 7.87664e-14 0)
(2 -6.84074e-14 0)
(2 1.25523e-13 0)
(1.83125 0.229265 0)
(1.83121 0.229502 0)
(1.83185 0.229149 0)
(2.02301 -0.0419657 0)
(2 7.30521e-14 0)
(1.82542 0.230353 0)
(1.83107 0.228955 0)
(1.83206 0.228522 0)
(2 -8.76551e-14 0)
(1.8318 0.229077 0)
(1.83085 0.228977 0)
(1.83147 0.228878 0)
(1.82538 0.230723 0)
(2 -9.52603e-14 0)
(1.83183 0.228654 0)
(1.83229 0.226394 0)
(1.84848 0.200062 0)
(1.83148 0.228628 0)
(1.82574 0.23041 0)
(2 -8.85714e-16 0)
(1.82964 0.227342 0)
(1.83383 0.226745 0)
(1.83178 0.22918 0)
(1.83078 0.229563 0)
(1.83062 0.228483 0)
(2.08684 -0.27208 0)
(1.83089 0.22856 0)
(1.83308 0.229296 0)
(2 -2.39512e-14 0)
(1.8313 0.229087 0)
(1.83184 0.228827 0)
(1.83141 0.228925 0)
(1.83182 0.228654 0)
(2 -5.93163e-08 0)
(1.83114 0.229318 0)
(1.83156 0.229075 0)
(2 -1.59835e-07 0)
(1.83192 0.228925 0)
(1.85879 0.198645 0)
(2 8.98668e-14 0)
(2 1.40521e-14 0)
(2 8.55554e-10 0)
(1.83056 0.227466 0)
(1.82819 0.232926 0)
(2 -1.35033e-14 0)
(2 1.39836e-14 0)
(1.90957 0.137093 0)
(2 9.4232e-15 0)
(1.83135 0.229171 0)
(2 -5.21464e-14 0)
(2 -6.0683e-14 0)
(1.83154 0.228942 0)
(1.83082 0.22952 0)
(1.83141 0.228513 0)
(1.83168 0.228905 0)
(2 2.26604e-14 0)
(2 -3.25647e-14 0)
(2 -4.65478e-14 0)
(1.88074 0.164231 0)
(2 4.08092e-14 0)
(1.83149 0.229165 0)
(2 7.58024e-14 0)
(2 -3.36889e-14 0)
(1.83184 0.229058 0)
(1.82898 0.228692 0)
(2 -5.38082e-15 0)
(1.83158 0.228818 0)
(2.12121 -0.276556 0)
(1.83166 0.228936 0)
(1.83288 0.229391 0)
(2.08768 -0.215675 0)
(2 -4.21489e-14 0)
(2.10634 -0.281839 0)
(1.84829 0.200991 0)
(1.83168 0.230034 0)
(1.83148 0.229539 0)
(1.83172 0.22991 0)
(2.14603 -0.26082 0)
(1.83123 0.228585 0)
(1.83137 0.229605 0)
(2.14553 -0.259508 0)
(2.11318 -0.281671 0)
(2 -2.58411e-07 0)
(1.83192 0.22886 0)
(1.83178 0.229186 0)
(2 -1.55204e-14 0)
(2 4.99855e-14 0)
(1.83111 0.229116 0)
(2 -4.06443e-13 0)
(1.83104 0.228815 0)
(2 2.54911e-06 0)
(1.8514 0.206327 0)
(2 9.34695e-15 0)
(1.92208 0.115618 0)
(1.83153 0.229337 0)
(1.83034 0.229848 0)
(1.88019 0.168523 0)
(1.84458 0.206237 0)
(1.8314 0.228702 0)
(1.83087 0.22925 0)
(1.85405 0.210136 0)
(2 -2.51709e-13 0)
(2.08293 -0.270026 0)
(1.83154 0.228501 0)
(1.83186 0.22912 0)
(1.83063 0.230754 0)
(2 7.0094e-06 0)
(2 2.74214e-10 0)
(2 1.5306e-09 0)
(1.82969 0.231177 0)
(2 -1.04875e-14 0)
(1.83188 0.22888 0)
(1.83107 0.228541 0)
(2.0847 -0.178588 0)
(2 -2.86225e-14 0)
(1.83139 0.22895 0)
(2.00002 -4.45272e-05 0)
(2 6.86295e-16 0)
(1.99999 1.82893e-05 0)
(1.99998 2.53307e-05 0)
(1.83201 0.228984 0)
(1.83224 0.22959 0)
(2.00056 -0.00092516 0)
(2 2.63866e-14 0)
(2 -3.60434e-14 0)
(1.83168 0.229119 0)
(1.83049 0.229705 0)
(1.83158 0.228649 0)
(1.83276 0.230763 0)
(1.83127 0.229161 0)
(2.09838 -0.253585 0)
(1.86666 0.1916 0)
(2 -2.7215e-14 0)
(1.83281 0.22746 0)
(1.83072 0.228298 0)
(1.83135 0.228805 0)
(1.83606 0.223317 0)
(2 -1.22028e-13 0)
(1.83195 0.229028 0)
(1.83608 0.22358 0)
(1.83111 0.229447 0)
(2 -2.62743e-13 0)
(1.83091 0.228298 0)
(1.83078 0.229853 0)
(2.05496 -0.0996488 0)
(1.8318 0.229041 0)
(1.83056 0.228204 0)
(2 4.38006e-14 0)
(1.83159 0.228786 0)
(2.05565 -0.115558 0)
(1.83137 0.229451 0)
(2.05456 -0.0978801 0)
(1.83168 0.228978 0)
(2 -1.0616e-07 0)
(1.83136 0.228868 0)
(1.8253 0.233847 0)
(1.83197 0.22894 0)
(1.83184 0.229146 0)
(1.83141 0.228836 0)
(1.83052 0.22853 0)
(1.8315 0.229237 0)
(1.83069 0.227945 0)
(2 -2.95864e-13 0)
(2.02032 -0.0462855 0)
(1.83183 0.229124 0)
(1.8318 0.229117 0)
(2.0482 -0.10731 0)
(1.83146 0.228869 0)
(2.00418 -0.0180914 0)
(1.89365 0.151146 0)
(1.83122 0.22943 0)
(1.8314 0.229199 0)
(1.83 0.228062 0)
(2 2.36993e-14 0)
(1.83028 0.229926 0)
(1.89085 0.162287 0)
(1.83237 0.228465 0)
(2.02316 -0.0576718 0)
(1.83058 0.229863 0)
(1.82563 0.229921 0)
(2 -5.79246e-14 0)
(2.04169 -0.0873835 0)
(2 -3.48728e-09 0)
(1.8267 0.229397 0)
(2 1.22859e-13 0)
(1.88319 0.168235 0)
(2 4.20466e-09 0)
(1.84103 0.219532 0)
(2.04365 -0.0883822 0)
(2 1.35609e-13 0)
(1.83064 0.229568 0)
(1.83305 0.22753 0)
(2 -8.72276e-14 0)
(1.82955 0.229225 0)
(1.83059 0.229701 0)
(1.82861 0.230646 0)
(1.83114 0.23394 0)
(1.82939 0.231427 0)
(2 -1.36837e-13 0)
(1.82999 0.228254 0)
(2 -1.43734e-14 0)
(2 -1.42918e-13 0)
(2 -3.08785e-14 0)
(2.03553 -0.0704434 0)
(1.83192 0.229275 0)
(1.83121 0.22863 0)
(1.83254 0.230679 0)
(1.83157 0.228843 0)
(1.83123 0.232868 0)
(1.8316 0.230711 0)
(1.8318 0.233294 0)
(1.83177 0.229278 0)
(2.036 -0.0680458 0)
(1.9875 0.0219204 0)
(2 3.44114e-09 0)
(2 -8.02294e-14 0)
(1.82473 0.232706 0)
(1.83179 0.22899 0)
(1.83125 0.228813 0)
(1.83177 0.228939 0)
(1.99999 1.687e-05 0)
(1.92047 0.121581 0)
(2 -1.65292e-07 0)
(1.83235 0.231653 0)
(1.84595 0.22076 0)
(2 -3.18748e-12 0)
(2 -5.7219e-11 0)
(2.0979 -0.188563 0)
(1.83154 0.229038 0)
(2 3.5952e-14 0)
(2 4.69299e-15 0)
(2.11819 -0.262391 0)
(1.83139 0.228889 0)
(2 6.96278e-14 0)
(1.82778 0.228592 0)
(1.83135 0.228935 0)
(1.83168 0.228974 0)
(1.83789 0.221625 0)
(1.83142 0.229001 0)
(2 -7.86571e-11 0)
(2.10623 -0.275482 0)
(1.96042 0.0624944 0)
(1.83097 0.228859 0)
(1.83137 0.228962 0)
(2 -1.90572e-13 0)
(1.83225 0.228797 0)
(1.83157 0.228818 0)
(1.91852 0.124124 0)
(1.99865 0.00678742 0)
(1.96699 0.057628 0)
(2 -2.04723e-13 0)
(1.82911 0.228628 0)
(1.8314 0.228981 0)
(2 -1.15351e-07 0)
(2 -2.17908e-10 0)
(2.13472 -0.254112 0)
(2 -2.43161e-10 0)
(2 -7.16136e-14 0)
(1.83189 0.228824 0)
(1.83162 0.228915 0)
(1.83183 0.229829 0)
(1.83161 0.228972 0)
(1.8312 0.228582 0)
(1.82876 0.228136 0)
(1.83138 0.22903 0)
(1.83036 0.230006 0)
(1.83124 0.228951 0)
(2 -6.77383e-14 0)
(2.00128 -0.00241355 0)
(1.83228 0.228503 0)
(1.83166 0.22916 0)
(2.00112 -0.00151153 0)
(1.83153 0.228968 0)
(1.83161 0.228825 0)
(2.1104 -0.263058 0)
(2.12331 -0.268367 0)
(1.83169 0.228216 0)
(1.8273 0.231342 0)
(2 6.25561e-14 0)
(2 1.43181e-13 0)
(1.9992 0.00210643 0)
(1.83148 0.22871 0)
(1.83169 0.229825 0)
(1.83154 0.228907 0)
(2 9.60138e-10 0)
(1.83148 0.228816 0)
(2 -5.98532e-14 0)
(2.04348 -0.101546 0)
(1.83104 0.23222 0)
(1.82973 0.234614 0)
(2 5.4993e-14 0)
(1.92699 0.117518 0)
(1.83124 0.229426 0)
(2 -1.0664e-13 0)
(1.82879 0.228355 0)
(2 -1.05876e-10 0)
(1.83183 0.228677 0)
(1.88816 0.162962 0)
(1.83142 0.229375 0)
(2 1.00005e-11 0)
(1.83147 0.228905 0)
(1.83453 0.228678 0)
(2.12907 -0.260232 0)
(1.83113 0.229209 0)
(2 -1.22721e-07 0)
(1.83206 0.228761 0)
(1.82778 0.22865 0)
(2 6.94514e-09 0)
(2.10638 -0.264824 0)
(1.83072 0.229769 0)
(1.87398 0.183059 0)
(2.00076 -0.00116416 0)
(1.83146 0.235227 0)
(1.83161 0.228824 0)
(2 -4.90098e-12 0)
(1.99902 -0.0034498 0)
(1.82902 0.231189 0)
(2.00227 -0.00247781 0)
(1.8313 0.229069 0)
(2 -2.88185e-12 0)
(2 1.32961e-13 0)
(1.83217 0.229717 0)
(2 -4.19744e-14 0)
(1.83073 0.229483 0)
(1.83157 0.228899 0)
(2.00125 -0.00227908 0)
(1.86461 0.185059 0)
(2 3.2521e-09 0)
(1.83162 0.228748 0)
(2 -6.43647e-10 0)
(2 -4.94915e-13 0)
(2 9.30694e-12 0)
(2 7.21175e-12 0)
(1.83193 0.228924 0)
(2 6.75455e-09 0)
(2 -3.02981e-13 0)
(1.83315 0.230666 0)
(2 1.82671e-13 0)
(1.83115 0.229433 0)
(2 3.28119e-10 0)
(1.89299 0.154299 0)
(1.83279 0.227523 0)
(1.83086 0.228551 0)
(2 9.34708e-10 0)
(2 -2.63023e-13 0)