/*--------------------------------*- C++ -*----------------------------------*\
  =========                 |
  \\      /  F ield         | OpenFOAM: The Open Source CFD Toolbox
   \\    /   O peration     | Website:  https://openfoam.org
    \\  /    A nd           | Version:  12
     \\/     M anipulation  |
\*---------------------------------------------------------------------------*/
FoamFile
{
    format      ascii;
    class       volScalarField;
    location    "1.1";
    object      rho;
}
// * * * * * * * * * * * * * * * * * * * * * * * * * * * * * * * * * * * * * //

dimensions      [1 -3 0 0 0 0 0];

internalField   nonuniform List<scalar> 
9801
(
1.207
1.20597
1.20925
1.21408
1.21735
1.21975
1.22138
1.22134
1.22165
1.22327
1.22825
1.2334
1.23648
1.23842
1.23951
1.2378
1.23804
1.24028
1.24555
1.25193
1.25601
1.25848
1.26032
1.25928
1.2575
1.25848
1.26154
1.26797
1.27428
1.27793
1.28065
1.2827
1.28087
1.28005
1.28138
1.28531
1.29252
1.2978
1.30098
1.30434
1.30455
1.30301
1.30418
1.30764
1.31304
1.31919
1.3234
1.32639
1.32822
1.32654
1.32694
1.32985
1.33491
1.34223
1.3478
1.35033
1.35401
1.35464
1.35489
1.35669
1.36185
1.36783
1.3729
1.37692
1.37959
1.37976
1.3818
1.38531
1.39042
1.39806
1.40581
1.41144
1.4154
1.41637
1.41367
1.4154
1.4202
1.42731
1.43837
1.4488
1.45601
1.46143
1.46281
1.45842
1.46025
1.46704
1.47815
1.4946
1.50741
1.51731
1.52636
1.53172
1.52945
1.53695
1.55585
1.59362
1.64227
1.9613
3.1832
1.21157
1.21129
1.21455
1.21986
1.22328
1.22547
1.22664
1.22647
1.22694
1.22858
1.23371
1.23908
1.24204
1.24383
1.24415
1.24278
1.24335
1.24538
1.25085
1.25757
1.26145
1.26372
1.26497
1.26351
1.26254
1.26383
1.26673
1.27343
1.27964
1.28305
1.28552
1.28647
1.28478
1.28481
1.28648
1.29066
1.29793
1.30278
1.30581
1.3084
1.30774
1.30694
1.30863
1.3121
1.31814
1.32421
1.32807
1.33064
1.33147
1.33022
1.33115
1.33413
1.33978
1.34729
1.3524
1.35469
1.35751
1.35764
1.35776
1.3594
1.36435
1.37132
1.37716
1.38145
1.38467
1.38551
1.38631
1.38871
1.39258
1.39941
1.4076
1.41346
1.41764
1.42002
1.41891
1.42019
1.42412
1.42973
1.43996
1.45025
1.45728
1.46262
1.46519
1.4624
1.46381
1.46987
1.4788
1.49393
1.50709
1.5172
1.52656
1.53279
1.53088
1.53357
1.54749
1.57035
1.60052
1.90046
3.1392
1.21332
1.21365
1.21715
1.22242
1.22572
1.22768
1.22844
1.2282
1.22897
1.23094
1.23623
1.24137
1.24409
1.24566
1.24534
1.24445
1.24549
1.24768
1.25335
1.25987
1.26338
1.26542
1.26591
1.26443
1.26447
1.26617
1.26928
1.27604
1.28168
1.28474
1.28677
1.28657
1.28565
1.28674
1.28877
1.29349
1.30031
1.3045
1.30737
1.30896
1.30758
1.30791
1.31037
1.31431
1.3205
1.32613
1.32965
1.33178
1.3318
1.33118
1.3328
1.33626
1.34264
1.34935
1.35383
1.3561
1.35852
1.35776
1.35771
1.3595
1.36457
1.37259
1.37941
1.38417
1.38772
1.38904
1.38822
1.38921
1.3921
1.39761
1.4064
1.41325
1.41788
1.42174
1.42222
1.42216
1.42551
1.43022
1.43806
1.44887
1.45656
1.46224
1.46644
1.46458
1.46496
1.47057
1.47761
1.48936
1.50387
1.5153
1.52524
1.5332
1.53139
1.53343
1.54637
1.56653
1.58329
1.87476
3.09055
1.21583
1.21663
1.22035
1.22538
1.22845
1.23021
1.23073
1.23069
1.2317
1.23399
1.23933
1.24399
1.24652
1.24785
1.24734
1.24709
1.24837
1.25073
1.2565
1.26253
1.26579
1.26754
1.26745
1.26662
1.26738
1.26933
1.2728
1.2792
1.28418
1.28683
1.28818
1.28763
1.28769
1.28935
1.29213
1.29765
1.3034
1.30682
1.3091
1.30956
1.30863
1.30988
1.31281
1.31785
1.3238
1.32849
1.33146
1.33314
1.33283
1.33281
1.33478
1.33852
1.34532
1.35186
1.3559
1.35805
1.35983
1.35814
1.35808
1.36023
1.36535
1.37423
1.38183
1.3866
1.3902
1.3922
1.39004
1.38887
1.39126
1.39587
1.4055
1.41452
1.41984
1.42411
1.42575
1.42434
1.42595
1.42975
1.43556
1.44656
1.45622
1.46239
1.46734
1.46728
1.46557
1.46987
1.47648
1.48525
1.4989
1.51135
1.52154
1.53115
1.53393
1.53151
1.53754
1.55326
1.56616
1.86008
3.04476
1.21874
1.21982
1.22347
1.22814
1.23108
1.23282
1.23342
1.23354
1.23466
1.23713
1.24219
1.24626
1.2487
1.25011
1.24989
1.24987
1.25128
1.25391
1.2595
1.26455
1.26747
1.2693
1.26967
1.26909
1.27003
1.2722
1.27629
1.28186
1.28573
1.28822
1.28977
1.28968
1.29002
1.29176
1.29512
1.301
1.3055
1.30831
1.3105
1.31089
1.31038
1.31198
1.31507
1.32038
1.32597
1.33025
1.33313
1.3348
1.33427
1.33423
1.3362
1.33998
1.34711
1.354
1.35802
1.36026
1.3618
1.35957
1.35915
1.36125
1.36583
1.37485
1.38378
1.38888
1.39242
1.39402
1.39051
1.38869
1.39118
1.39556
1.40503
1.41583
1.42196
1.42633
1.42889
1.42644
1.42569
1.42886
1.43381
1.44324
1.45525
1.46298
1.46869
1.47151
1.4686
1.46936
1.47511
1.48267
1.49461
1.50772
1.51838
1.52814
1.53579
1.5346
1.535
1.54418
1.55339
1.84557
3.00226
1.2217
1.22297
1.22656
1.23104
1.23382
1.23547
1.23604
1.23637
1.23767
1.24039
1.24523
1.24879
1.251
1.25227
1.25233
1.25282
1.25434
1.2572
1.26261
1.26683
1.26941
1.27117
1.27168
1.2717
1.27296
1.27526
1.27974
1.28468
1.28771
1.28987
1.29141
1.29171
1.29253
1.29445
1.29825
1.30417
1.30799
1.31032
1.31221
1.31257
1.31246
1.31418
1.31728
1.32299
1.32854
1.33248
1.33516
1.33671
1.33608
1.33589
1.33768
1.34096
1.34795
1.35595
1.36053
1.3629
1.36422
1.36178
1.36125
1.3633
1.36705
1.37487
1.3849
1.39067
1.39426
1.39519
1.39158
1.39027
1.39272
1.39656
1.40486
1.41678
1.4239
1.42853
1.43131
1.42853
1.42644
1.42875
1.43338
1.44108
1.45379
1.4639
1.47031
1.47516
1.47366
1.47088
1.4745
1.48132
1.49099
1.50389
1.51491
1.52465
1.53426
1.53925
1.53697
1.53939
1.54331
1.82804
2.95864
1.22464
1.22604
1.22963
1.2339
1.23652
1.23814
1.2388
1.23927
1.24064
1.24353
1.24813
1.25135
1.25345
1.2547
1.25492
1.25562
1.25723
1.26016
1.26531
1.26925
1.2717
1.27336
1.27387
1.2742
1.27571
1.27819
1.28267
1.28705
1.28989
1.29202
1.29344
1.29386
1.29495
1.29697
1.30089
1.30644
1.3102
1.31262
1.31443
1.31479
1.31483
1.31654
1.31934
1.32474
1.3311
1.3351
1.33754
1.33897
1.33837
1.33814
1.33982
1.34264
1.34808
1.35701
1.36257
1.36535
1.3668
1.36468
1.3641
1.36617
1.36958
1.37535
1.38508
1.39158
1.39511
1.39633
1.39383
1.39289
1.39575
1.39973
1.40576
1.41653
1.42505
1.42997
1.43279
1.43093
1.42827
1.43026
1.43457
1.44037
1.45138
1.4632
1.47081
1.47648
1.47899
1.4755
1.47576
1.48113
1.48887
1.50077
1.51276
1.5224
1.53126
1.53941
1.54115
1.53933
1.5365
1.80979
2.9145
1.22761
1.22917
1.23284
1.23688
1.23928
1.2408
1.24138
1.24202
1.24357
1.2468
1.25115
1.25404
1.25599
1.25714
1.25748
1.25832
1.25997
1.26311
1.26815
1.27175
1.27403
1.27562
1.27628
1.27677
1.27829
1.28085
1.28561
1.28972
1.29234
1.29438
1.29577
1.29635
1.29745
1.29937
1.30295
1.30871
1.31262
1.315
1.31689
1.31751
1.31759
1.31918
1.32161
1.32566
1.33274
1.33792
1.34053
1.34176
1.34119
1.34085
1.34243
1.34508
1.34892
1.35692
1.36378
1.36704
1.36917
1.36848
1.3679
1.36979
1.37292
1.37666
1.38403
1.39122
1.39528
1.39765
1.39782
1.39752
1.40012
1.40363
1.40735
1.41428
1.42377
1.42966
1.4334
1.43489
1.43287
1.43385
1.43781
1.44242
1.44927
1.46047
1.46978
1.47625
1.48149
1.48253
1.47955
1.48218
1.48833
1.4973
1.50949
1.51979
1.52852
1.53679
1.54209
1.54189
1.53489
1.79206
2.87042
1.23066
1.23227
1.23587
1.23981
1.24206
1.24348
1.24408
1.24479
1.24635
1.2497
1.25409
1.25692
1.2588
1.25995
1.26021
1.26085
1.26244
1.26561
1.2707
1.27437
1.2767
1.27834
1.27903
1.27937
1.2807
1.28292
1.28746
1.29242
1.29514
1.29712
1.29859
1.29918
1.30001
1.30166
1.30443
1.31016
1.31513
1.31775
1.31977
1.32082
1.32086
1.322
1.32404
1.32663
1.33243
1.33942
1.34306
1.34502
1.34549
1.34481
1.34586
1.34814
1.35081
1.35577
1.36323
1.36789
1.37101
1.37284
1.37286
1.37376
1.37599
1.37845
1.38226
1.3898
1.39617
1.40004
1.4027
1.40306
1.40385
1.40593
1.40873
1.41252
1.42058
1.42948
1.43487
1.43907
1.43999
1.43832
1.43999
1.4437
1.44858
1.45708
1.46779
1.47583
1.48205
1.48677
1.48653
1.48506
1.48895
1.49547
1.50502
1.51628
1.5253
1.53298
1.53982
1.54247
1.53735
1.77759
2.82637
1.23358
1.2354
1.23914
1.24283
1.24488
1.24618
1.24665
1.24736
1.24902
1.25281
1.25724
1.25991
1.26167
1.26274
1.26298
1.26349
1.26492
1.26784
1.2733
1.27724
1.27957
1.28123
1.28204
1.28221
1.28315
1.28493
1.28857
1.29446
1.29815
1.3003
1.30193
1.3025
1.30268
1.30385
1.3059
1.31036
1.31695
1.3209
1.32316
1.3247
1.32477
1.325
1.32631
1.32811
1.33124
1.33883
1.34501
1.34832
1.35044
1.35051
1.35012
1.35107
1.35259
1.35517
1.36119
1.36864
1.3734
1.37642
1.37825
1.37807
1.37841
1.37956
1.3821
1.3879
1.39709
1.40294
1.40661
1.40882
1.40797
1.40774
1.40931
1.41236
1.41786
1.42851
1.43694
1.44175
1.44541
1.44465
1.44289
1.4452
1.44929
1.45492
1.46456
1.47442
1.48178
1.48786
1.49215
1.49131
1.4908
1.49514
1.50165
1.51097
1.52097
1.52887
1.53521
1.54021
1.53996
1.76792
2.78193
1.2365
1.23846
1.24228
1.2458
1.24775
1.24904
1.24946
1.24995
1.25143
1.25516
1.25998
1.26285
1.2647
1.26595
1.2662
1.26628
1.26735
1.26958
1.27493
1.28005
1.28265
1.28438
1.28546
1.28545
1.28569
1.28698
1.28947
1.29549
1.30099
1.30369
1.30552
1.30636
1.30579
1.306
1.30748
1.31024
1.31716
1.3236
1.3269
1.32884
1.32955
1.32862
1.32844
1.3294
1.33136
1.33683
1.3458
1.35134
1.35439
1.35623
1.35547
1.35384
1.35399
1.35584
1.35988
1.36874
1.37593
1.37972
1.38246
1.3828
1.38087
1.38093
1.38305
1.38715
1.39666
1.40519
1.40984
1.41302
1.41296
1.41026
1.41072
1.41341
1.41733
1.4257
1.43677
1.44343
1.44793
1.45069
1.44859
1.44774
1.4506
1.45486
1.46134
1.47161
1.48088
1.48784
1.49372
1.49708
1.49595
1.4963
1.50072
1.50684
1.51549
1.52437
1.53113
1.53618
1.53943
1.76177
2.73663
1.23926
1.2415
1.24564
1.24888
1.25068
1.25192
1.25226
1.2526
1.25385
1.25721
1.26279
1.26604
1.26792
1.26925
1.26955
1.26913
1.2698
1.27149
1.27596
1.2823
1.28582
1.28773
1.28905
1.28904
1.28844
1.28918
1.29095
1.29562
1.30275
1.30689
1.30905
1.31046
1.30972
1.30848
1.30923
1.31115
1.31601
1.32489
1.33026
1.33279
1.33434
1.33334
1.33096
1.33096
1.33255
1.33596
1.34496
1.35329
1.35748
1.36002
1.36086
1.35761
1.35594
1.35739
1.36031
1.36807
1.37766
1.38268
1.38571
1.38706
1.38415
1.38293
1.3849
1.38801
1.39523
1.40587
1.41198
1.41576
1.41764
1.41455
1.41305
1.41536
1.41885
1.42386
1.43415
1.44376
1.44932
1.45349
1.45513
1.45228
1.45234
1.45574
1.46039
1.46794
1.47831
1.4869
1.49351
1.4992
1.502
1.50054
1.50125
1.50562
1.51129
1.51931
1.52706
1.53259
1.53704
1.75612
2.69046
1.2419
1.24405
1.2484
1.25191
1.25379
1.25513
1.25548
1.25535
1.25625
1.25879
1.26478
1.26909
1.27117
1.2726
1.27316
1.27239
1.27248
1.27373
1.2768
1.28365
1.28869
1.29103
1.29257
1.29304
1.2918
1.29163
1.29289
1.29587
1.30333
1.30943
1.31234
1.31416
1.31426
1.31178
1.31132
1.31279
1.31574
1.32428
1.33227
1.33608
1.33817
1.33853
1.33475
1.33308
1.33438
1.33708
1.34391
1.35405
1.35959
1.36261
1.36433
1.36158
1.35848
1.35952
1.36211
1.36773
1.37833
1.38493
1.3885
1.39046
1.38814
1.38569
1.38711
1.38997
1.39424
1.40387
1.41243
1.41699
1.4202
1.4207
1.41789
1.41823
1.42099
1.42443
1.43057
1.4416
1.44979
1.45481
1.45848
1.45856
1.45576
1.45709
1.4611
1.46617
1.47489
1.48518
1.49295
1.49908
1.5039
1.50563
1.50459
1.50584
1.51003
1.51526
1.52268
1.52884
1.53354
1.74986
2.64398
1.24445
1.24648
1.25115
1.25513
1.25706
1.25842
1.25874
1.25817
1.25874
1.2605
1.26606
1.27179
1.27444
1.276
1.27687
1.27602
1.27535
1.27622
1.27822
1.28415
1.29074
1.29405
1.29586
1.29692
1.29574
1.29446
1.29523
1.29723
1.30316
1.31102
1.31518
1.31731
1.31835
1.31599
1.31406
1.31496
1.31708
1.32304
1.33282
1.33827
1.34114
1.34266
1.33969
1.33628
1.33689
1.33918
1.3439
1.35385
1.36097
1.36443
1.36663
1.36511
1.36168
1.36218
1.36458
1.36836
1.3777
1.38623
1.39047
1.39311
1.39288
1.38976
1.38976
1.39196
1.39489
1.40064
1.41101
1.41797
1.42201
1.42526
1.42428
1.42162
1.42287
1.42615
1.43021
1.43793
1.44798
1.45466
1.45918
1.46229
1.46172
1.46029
1.46302
1.46764
1.47326
1.48179
1.49053
1.49724
1.50285
1.50724
1.50923
1.50904
1.5105
1.51442
1.51896
1.52488
1.52992
1.74181
2.59723
1.24701
1.24869
1.25313
1.25809
1.26031
1.26174
1.26222
1.26134
1.26139
1.26262
1.26677
1.2737
1.27748
1.2793
1.28047
1.28001
1.27863
1.27895
1.28035
1.28445
1.29195
1.29653
1.29882
1.30033
1.30002
1.29798
1.29799
1.29946
1.30323
1.31152
1.31719
1.31995
1.32162
1.32064
1.31771
1.31771
1.31935
1.32294
1.33198
1.33934
1.34282
1.34512
1.34452
1.34066
1.3402
1.3421
1.34511
1.35302
1.36159
1.36578
1.36824
1.36848
1.36553
1.36527
1.36732
1.37008
1.37607
1.38583
1.3918
1.39514
1.39721
1.39503
1.39267
1.39382
1.39658
1.40023
1.40812
1.41784
1.42363
1.42717
1.42921
1.42766
1.42667
1.42897
1.43235
1.43619
1.44312
1.45212
1.45851
1.463
1.46672
1.46703
1.46687
1.46981
1.4741
1.47903
1.48581
1.49364
1.50041
1.50615
1.51073
1.51359
1.51439
1.51524
1.51778
1.52114
1.52602
1.73174
2.55001
1.24964
1.251
1.25469
1.26062
1.2635
1.26508
1.26586
1.26488
1.26422
1.2651
1.26768
1.27473
1.28018
1.28251
1.28392
1.28412
1.28236
1.28189
1.28292
1.28539
1.29238
1.29857
1.30152
1.30332
1.30399
1.302
1.30107
1.30214
1.30441
1.31123
1.31871
1.32237
1.32438
1.3248
1.322
1.32093
1.32217
1.32438
1.33083
1.33955
1.34414
1.34676
1.34792
1.3454
1.34395
1.34531
1.34747
1.35235
1.36137
1.36708
1.37003
1.37157
1.36994
1.36859
1.36991
1.37228
1.37561
1.38345
1.39193
1.39651
1.3994
1.40055
1.39807
1.3973
1.39939
1.40229
1.40603
1.41406
1.42266
1.42769
1.43143
1.43411
1.4331
1.43247
1.43396
1.43637
1.44013
1.44743
1.45699
1.46382
1.46865
1.47277
1.47392
1.47347
1.47498
1.47796
1.4823
1.48874
1.4971
1.50442
1.5103
1.51519
1.51872
1.51971
1.51905
1.51948
1.52085
1.72033
2.50237
1.25243
1.25339
1.25608
1.26253
1.26647
1.26833
1.26941
1.2688
1.26738
1.26778
1.26932
1.27481
1.28207
1.28554
1.28719
1.28803
1.28654
1.28509
1.28567
1.28725
1.29241
1.30006
1.30409
1.30614
1.30737
1.30612
1.30441
1.30499
1.30665
1.31105
1.3194
1.32442
1.32689
1.32821
1.32663
1.32469
1.32532
1.32708
1.33072
1.33891
1.34509
1.34826
1.35019
1.34978
1.34802
1.34863
1.35046
1.35306
1.35984
1.36765
1.3718
1.37423
1.37486
1.37307
1.37299
1.37469
1.37706
1.38084
1.3893
1.3968
1.40096
1.40405
1.40497
1.40281
1.40257
1.40421
1.40652
1.41035
1.41904
1.42801
1.43323
1.4369
1.43932
1.43762
1.43607
1.43765
1.44072
1.44489
1.453
1.46293
1.46971
1.47452
1.47851
1.47919
1.47706
1.478
1.48171
1.48635
1.49302
1.50196
1.50931
1.51488
1.51931
1.52195
1.52244
1.52064
1.5187
1.70571
2.45484
1.25536
1.25588
1.25762
1.2638
1.26924
1.27154
1.27285
1.27291
1.27096
1.27056
1.27164
1.27484
1.28283
1.2882
1.29038
1.29164
1.29102
1.28875
1.28859
1.2898
1.29281
1.30057
1.30631
1.30888
1.31042
1.3102
1.3081
1.30801
1.30937
1.31188
1.31904
1.32591
1.32922
1.33108
1.33122
1.32903
1.32869
1.33
1.33201
1.33771
1.34555
1.34989
1.3523
1.35355
1.3524
1.35193
1.3531
1.35495
1.35832
1.36631
1.37304
1.37666
1.37896
1.37902
1.37722
1.37729
1.3788
1.38102
1.38539
1.39466
1.40201
1.40608
1.4092
1.40981
1.40701
1.40631
1.40814
1.41091
1.41536
1.42493
1.4335
1.4383
1.44189
1.44355
1.4408
1.43982
1.44211
1.44558
1.45041
1.46001
1.46932
1.47509
1.47956
1.48189
1.48068
1.47953
1.48223
1.48665
1.49174
1.49922
1.50739
1.51329
1.51801
1.52142
1.52328
1.52361
1.52062
1.69157
2.40796
1.25855
1.25845
1.25957
1.26429
1.27136
1.27478
1.27625
1.27691
1.27506
1.2736
1.27424
1.27596
1.28229
1.29001
1.29346
1.29499
1.29541
1.29307
1.29176
1.29251
1.29421
1.29999
1.30786
1.3117
1.31347
1.31418
1.31228
1.31116
1.312
1.31366
1.31818
1.3264
1.33124
1.33368
1.33506
1.33392
1.33235
1.33289
1.33447
1.33743
1.34485
1.35135
1.35468
1.35667
1.35706
1.35562
1.35563
1.35704
1.35907
1.36355
1.37232
1.37839
1.38186
1.38408
1.38337
1.381
1.38089
1.38246
1.38494
1.39046
1.40064
1.40745
1.41122
1.41419
1.4136
1.41021
1.4102
1.41244
1.41557
1.42124
1.43123
1.43864
1.44301
1.44618
1.44663
1.44383
1.44434
1.44765
1.45175
1.45753
1.46626
1.47339
1.47821
1.4814
1.48307
1.48392
1.48536
1.48877
1.49321
1.49792
1.50385
1.51001
1.51494
1.51898
1.5223
1.52517
1.52612
1.68027
2.36127
1.26206
1.26121
1.26191
1.26468
1.27225
1.2777
1.27966
1.28072
1.27968
1.27715
1.27698
1.27812
1.2816
1.29032
1.29598
1.29821
1.29934
1.29797
1.2954
1.29534
1.29657
1.29965
1.30783
1.31389
1.31655
1.31787
1.317
1.31473
1.31469
1.31602
1.31849
1.32555
1.33265
1.33612
1.33803
1.33864
1.33675
1.33607
1.3371
1.33881
1.34322
1.35146
1.35672
1.35959
1.36134
1.36062
1.35893
1.3592
1.36064
1.36294
1.36914
1.37847
1.38383
1.38707
1.38895
1.38691
1.38401
1.38434
1.38638
1.3895
1.39689
1.40691
1.41265
1.41599
1.41824
1.41597
1.41329
1.41449
1.41731
1.42092
1.42744
1.43661
1.44291
1.44688
1.44932
1.44934
1.44871
1.45059
1.45406
1.45803
1.46284
1.46912
1.47494
1.47958
1.48374
1.48771
1.49058
1.4925
1.49496
1.49808
1.5015
1.50545
1.51046
1.516
1.52118
1.5256
1.52903
1.67183
2.31411
1.26585
1.26441
1.26448
1.26596
1.27165
1.27955
1.28303
1.28434
1.28446
1.28157
1.28006
1.28073
1.28239
1.28886
1.29736
1.30121
1.30276
1.30294
1.30001
1.29854
1.29925
1.30085
1.30631
1.3148
1.31916
1.32112
1.32176
1.31945
1.31791
1.31859
1.32014
1.32419
1.33251
1.33796
1.34066
1.34231
1.3419
1.33988
1.33979
1.34104
1.34319
1.34951
1.35779
1.36224
1.36474
1.36589
1.36359
1.36177
1.36251
1.36444
1.36755
1.37562
1.38437
1.38891
1.3919
1.39293
1.38942
1.38727
1.38855
1.391
1.39496
1.40359
1.41212
1.4168
1.41965
1.421
1.41886
1.41794
1.41995
1.42299
1.42677
1.43285
1.4402
1.4457
1.44942
1.45259
1.45469
1.45535
1.457
1.45956
1.46228
1.46545
1.47021
1.47703
1.48386
1.48884
1.49313
1.49672
1.49873
1.49949
1.50065
1.50311
1.50701
1.51222
1.51929
1.52555
1.52993
1.6655
2.26705
1.26976
1.26827
1.26727
1.26822
1.27105
1.27958
1.28564
1.28786
1.28876
1.28692
1.2838
1.2835
1.28454
1.28764
1.2966
1.30325
1.30601
1.30713
1.30558
1.30246
1.3021
1.30324
1.30584
1.31365
1.32074
1.32396
1.32552
1.32507
1.32223
1.3215
1.32249
1.32448
1.3307
1.33888
1.3431
1.34529
1.34644
1.34463
1.34285
1.3434
1.34499
1.34807
1.35619
1.36373
1.36753
1.36972
1.36971
1.36639
1.36525
1.36646
1.36856
1.37262
1.38195
1.38949
1.39327
1.39598
1.39603
1.39247
1.39177
1.39368
1.39632
1.4006
1.40858
1.41562
1.41976
1.42253
1.42443
1.42392
1.42412
1.42605
1.42864
1.43142
1.43542
1.44209
1.44896
1.45385
1.45738
1.46045
1.46189
1.46232
1.46284
1.46478
1.46832
1.47356
1.48162
1.4886
1.49333
1.49735
1.50063
1.50237
1.5022
1.50298
1.50564
1.50978
1.51601
1.52338
1.52857
1.6598
2.22039
1.27351
1.27286
1.2705
1.27087
1.27217
1.27775
1.28677
1.29104
1.2925
1.29245
1.28883
1.28673
1.28722
1.28864
1.29427
1.30363
1.30836
1.31043
1.31088
1.30782
1.30554
1.30596
1.30736
1.31177
1.32056
1.32587
1.32835
1.32958
1.3279
1.3252
1.32519
1.3265
1.32959
1.3377
1.34469
1.34804
1.34979
1.34993
1.34717
1.3462
1.34722
1.34903
1.35322
1.36254
1.36919
1.37255
1.3745
1.37309
1.36937
1.3689
1.37049
1.37291
1.37819
1.38749
1.39382
1.39717
1.39958
1.39935
1.39703
1.39705
1.39884
1.40129
1.40487
1.4114
1.41837
1.42326
1.4266
1.42951
1.43038
1.43029
1.43069
1.43197
1.43436
1.43812
1.44538
1.45328
1.45841
1.4622
1.4657
1.4671
1.46585
1.46614
1.46894
1.47277
1.47818
1.48598
1.49218
1.49671
1.50053
1.50348
1.50516
1.50529
1.50655
1.5098
1.51393
1.52034
1.52597
1.65114
2.17412
1.27702
1.27776
1.27452
1.27375
1.27457
1.27698
1.28533
1.29283
1.29589
1.29699
1.29528
1.2912
1.29026
1.29118
1.29365
1.30166
1.30948
1.31292
1.3146
1.31402
1.31033
1.30908
1.30999
1.312
1.31871
1.32673
1.33058
1.33253
1.33315
1.33038
1.32859
1.32919
1.33071
1.33522
1.34433
1.35009
1.35287
1.35431
1.35283
1.34981
1.34961
1.351
1.35319
1.35903
1.36866
1.37429
1.37719
1.37867
1.37624
1.3731
1.37328
1.375
1.37761
1.38325
1.39182
1.39758
1.40086
1.40348
1.40398
1.40249
1.40214
1.40316
1.40518
1.40816
1.41399
1.422
1.42787
1.43154
1.43475
1.43636
1.43515
1.43395
1.43509
1.43772
1.44176
1.4501
1.45816
1.46303
1.46667
1.46969
1.47056
1.46925
1.47033
1.47348
1.47722
1.48209
1.48904
1.49482
1.4993
1.50333
1.50665
1.50877
1.50909
1.51029
1.51336
1.51798
1.52379
1.64081
2.12817
1.28042
1.28227
1.27962
1.27716
1.27733
1.27846
1.2831
1.29246
1.29775
1.30009
1.30088
1.2977
1.29428
1.29424
1.29539
1.29974
1.3087
1.31439
1.31695
1.31832
1.31655
1.31322
1.31294
1.31411
1.31747
1.32584
1.33208
1.33494
1.33655
1.33612
1.33298
1.33211
1.33311
1.33515
1.34156
1.35065
1.35532
1.35762
1.35835
1.3553
1.35288
1.35339
1.35502
1.35774
1.36489
1.37383
1.37856
1.38132
1.38272
1.3801
1.37744
1.37772
1.37936
1.38197
1.38725
1.39552
1.40158
1.40519
1.40802
1.40926
1.40782
1.40636
1.40676
1.40861
1.41147
1.41766
1.42674
1.43266
1.43624
1.43946
1.44078
1.43799
1.43674
1.43886
1.44205
1.44677
1.45524
1.46229
1.46683
1.47039
1.473
1.47385
1.47318
1.4745
1.47755
1.48124
1.48578
1.49187
1.49758
1.50236
1.50655
1.50987
1.51219
1.51302
1.51419
1.51751
1.52105
1.62856
2.08266
1.28298
1.28621
1.28545
1.28175
1.28054
1.28126
1.28319
1.2903
1.29822
1.30183
1.3037
1.30401
1.30023
1.29803
1.29859
1.30029
1.3068
1.31477
1.31866
1.32071
1.32158
1.31876
1.3165
1.31696
1.31841
1.32382
1.3325
1.33707
1.33924
1.34041
1.33829
1.33566
1.33585
1.33718
1.33994
1.34795
1.35631
1.36027
1.36232
1.36203
1.35818
1.35655
1.35736
1.3589
1.36203
1.37013
1.37858
1.38295
1.38555
1.38675
1.3844
1.38186
1.38191
1.38341
1.38599
1.39094
1.39949
1.406
1.40981
1.41277
1.41429
1.41208
1.40952
1.41012
1.41243
1.41567
1.42281
1.43179
1.43712
1.44048
1.44311
1.44333
1.44081
1.44113
1.44383
1.44711
1.45166
1.45907
1.46543
1.46984
1.47336
1.47612
1.4774
1.47732
1.47864
1.48145
1.48497
1.4891
1.49474
1.50044
1.50525
1.50962
1.51333
1.51563
1.51622
1.51777
1.51967
1.61565
2.03786
1.28427
1.28938
1.29033
1.28786
1.28462
1.28441
1.28535
1.2891
1.29727
1.30282
1.3054
1.30695
1.30637
1.30289
1.3021
1.303
1.30614
1.31401
1.31984
1.32258
1.32426
1.32413
1.32098
1.32003
1.32099
1.32337
1.33096
1.33845
1.34179
1.34344
1.34361
1.34043
1.33898
1.33963
1.34103
1.34465
1.35412
1.36169
1.36507
1.36687
1.36554
1.36139
1.36012
1.36115
1.36305
1.36678
1.37508
1.38281
1.38697
1.38972
1.39117
1.38895
1.38602
1.38584
1.38733
1.38987
1.39493
1.40407
1.41069
1.41436
1.41718
1.41834
1.41513
1.41299
1.41438
1.41695
1.4206
1.42802
1.43585
1.44051
1.44362
1.44593
1.44633
1.4452
1.44606
1.4486
1.45176
1.45578
1.46181
1.4679
1.47263
1.47636
1.47956
1.48147
1.48143
1.48216
1.48457
1.48803
1.49231
1.49818
1.50387
1.50862
1.51298
1.51631
1.51745
1.51841
1.51921
1.60404
1.99379
1.28438
1.29113
1.29316
1.2935
1.29022
1.28821
1.28868
1.29015
1.29619
1.30319
1.30669
1.30859
1.30967
1.30803
1.30593
1.30626
1.30752
1.31296
1.3206
1.32446
1.32644
1.32766
1.32596
1.32358
1.32377
1.32495
1.32876
1.33782
1.34393
1.34657
1.34783
1.34618
1.3427
1.34217
1.34334
1.34516
1.34995
1.35987
1.36646
1.36953
1.37121
1.36921
1.36518
1.3643
1.36529
1.36707
1.37082
1.3794
1.38723
1.39145
1.39413
1.39557
1.39307
1.3897
1.38961
1.39133
1.39406
1.39975
1.40893
1.41497
1.41835
1.42094
1.42152
1.41841
1.41737
1.41914
1.42175
1.42551
1.43212
1.43886
1.44342
1.44666
1.44933
1.45058
1.45024
1.45096
1.45293
1.4555
1.45878
1.46406
1.47073
1.47606
1.48002
1.48339
1.48505
1.48405
1.48469
1.48759
1.49119
1.49642
1.5024
1.50715
1.51151
1.51557
1.51715
1.51838
1.51929
1.5939
1.95039
1.28398
1.29188
1.29487
1.29636
1.29595
1.29294
1.29235
1.29323
1.29641
1.30333
1.30787
1.31018
1.31166
1.31193
1.30981
1.30936
1.3104
1.31304
1.32063
1.32629
1.32874
1.3303
1.33042
1.32765
1.32665
1.32747
1.32911
1.33491
1.34435
1.34918
1.35122
1.35173
1.34843
1.34574
1.34589
1.34703
1.34905
1.355
1.36513
1.37103
1.37389
1.37546
1.37314
1.36894
1.36793
1.36907
1.3712
1.37529
1.38393
1.39149
1.39556
1.3983
1.39977
1.39679
1.39347
1.39376
1.39562
1.39854
1.40466
1.41327
1.41869
1.42186
1.42426
1.42481
1.42274
1.42235
1.42397
1.42636
1.42962
1.43505
1.44163
1.44669
1.4503
1.45319
1.45511
1.45487
1.45465
1.45609
1.4588
1.46213
1.46755
1.47452
1.4797
1.48348
1.48627
1.48632
1.48569
1.48798
1.49148
1.49582
1.50101
1.50564
1.50987
1.51377
1.5159
1.51787
1.51959
1.58451
1.90782
1.2845
1.2919
1.29614
1.2981
1.2992
1.2977
1.29614
1.29669
1.29818
1.30394
1.30946
1.31215
1.31387
1.31486
1.31343
1.31241
1.31314
1.3145
1.3196
1.3276
1.33151
1.33318
1.33415
1.33215
1.32987
1.33008
1.33127
1.33354
1.34112
1.35002
1.35412
1.35603
1.35557
1.3512
1.34885
1.34925
1.35063
1.35321
1.36028
1.36998
1.37527
1.37803
1.37959
1.37711
1.37296
1.3721
1.37319
1.37522
1.37941
1.38836
1.39583
1.39972
1.40226
1.40354
1.40029
1.39745
1.39805
1.4
1.40317
1.40928
1.41696
1.42204
1.42521
1.42769
1.42882
1.42758
1.427
1.42813
1.43034
1.43337
1.43828
1.44506
1.45041
1.45408
1.45697
1.45886
1.45793
1.45752
1.45965
1.46272
1.46638
1.47205
1.47823
1.48258
1.48606
1.48706
1.48687
1.48868
1.49186
1.49572
1.50006
1.50423
1.50822
1.51148
1.514
1.51735
1.52041
1.57508
1.86612
1.28632
1.29191
1.29718
1.29962
1.30103
1.30119
1.29965
1.2996
1.30077
1.30501
1.3117
1.3149
1.31657
1.31767
1.31685
1.31526
1.31544
1.31658
1.31902
1.32694
1.33379
1.3365
1.33767
1.33713
1.334
1.3329
1.33348
1.33464
1.33776
1.3472
1.35547
1.359
1.36066
1.35911
1.35433
1.35245
1.35303
1.3544
1.35731
1.36514
1.37445
1.37939
1.38203
1.38364
1.38113
1.37676
1.37582
1.37711
1.37941
1.38406
1.39294
1.3998
1.40341
1.40586
1.407
1.404
1.40182
1.40261
1.40454
1.40766
1.41313
1.4202
1.42538
1.42877
1.43136
1.43294
1.432
1.43104
1.43203
1.43431
1.43733
1.44216
1.44891
1.45404
1.45759
1.46025
1.46101
1.46002
1.46124
1.46405
1.4673
1.47138
1.47628
1.48082
1.48438
1.48656
1.48758
1.48964
1.49248
1.49583
1.49953
1.50322
1.50647
1.50915
1.51242
1.51669
1.52084
1.56552
1.82523
1.28965
1.29282
1.29853
1.30127
1.30284
1.30373
1.30273
1.30217
1.30318
1.30573
1.31283
1.31806
1.31986
1.32096
1.32058
1.31838
1.31787
1.31879
1.32018
1.32432
1.33369
1.33931
1.34145
1.34213
1.33957
1.3362
1.33579
1.3369
1.33852
1.34273
1.35285
1.36011
1.36333
1.36506
1.36303
1.35797
1.35606
1.35668
1.35825
1.36159
1.36989
1.37871
1.38334
1.38594
1.38756
1.38491
1.38067
1.38002
1.38134
1.38367
1.38852
1.39715
1.40354
1.40698
1.40932
1.41044
1.4081
1.4063
1.407
1.40889
1.41188
1.41668
1.42345
1.42883
1.43233
1.43496
1.43668
1.43566
1.43469
1.43602
1.43845
1.44161
1.44645
1.4526
1.45719
1.46046
1.46228
1.46254
1.46339
1.46574
1.4687
1.47197
1.47556
1.47903
1.482
1.48491
1.48784
1.49029
1.49301
1.49606
1.49933
1.50233
1.50475
1.50761
1.51122
1.5157
1.52005
1.55594
1.7852
1.29336
1.29534
1.30042
1.30344
1.30514
1.30626
1.30564
1.30481
1.30545
1.30677
1.31149
1.31967
1.32374
1.32498
1.32525
1.32277
1.32079
1.3209
1.32183
1.32354
1.32995
1.33986
1.34459
1.34643
1.34621
1.34204
1.33928
1.33936
1.3403
1.34199
1.3473
1.35803
1.36466
1.3676
1.36924
1.36689
1.36175
1.35992
1.3606
1.36229
1.3659
1.37435
1.38275
1.38714
1.38964
1.39129
1.38862
1.38454
1.38404
1.38551
1.38806
1.39317
1.40114
1.40697
1.4103
1.41262
1.41399
1.41241
1.41078
1.41134
1.41319
1.41597
1.42024
1.42682
1.43229
1.4358
1.43836
1.43981
1.43873
1.43853
1.44035
1.44286
1.4461
1.45058
1.45562
1.45953
1.46234
1.46394
1.46564
1.46756
1.47004
1.47285
1.47556
1.47783
1.48042
1.48358
1.48713
1.49038
1.49323
1.49626
1.4992
1.50138
1.50361
1.50648
1.5099
1.51431
1.51833
1.5466
1.74612
1.29591
1.29848
1.30403
1.30678
1.3082
1.30923
1.3087
1.30733
1.30737
1.30835
1.31046
1.31808
1.32598
1.32918
1.33002
1.32875
1.3248
1.32324
1.3238
1.3251
1.32749
1.33589
1.34533
1.3495
1.35125
1.35015
1.34504
1.34223
1.34245
1.34374
1.34606
1.35251
1.36271
1.36855
1.37132
1.37309
1.37092
1.36573
1.36386
1.36459
1.36642
1.37026
1.37867
1.38663
1.3908
1.39322
1.3948
1.39219
1.38859
1.38841
1.38993
1.39253
1.3974
1.40465
1.41017
1.41353
1.41588
1.41759
1.41674
1.41511
1.41552
1.41736
1.42004
1.4241
1.43036
1.43556
1.43895
1.44137
1.44238
1.4419
1.4428
1.44487
1.44735
1.45045
1.45401
1.45774
1.46121
1.46438
1.46681
1.46917
1.47152
1.47371
1.47551
1.47736
1.48004
1.48316
1.48635
1.48967
1.49307
1.49616
1.49836
1.50009
1.50234
1.50526
1.50873
1.51292
1.51616
1.53732
1.70817
1.29762
1.29941
1.30566
1.31077
1.31224
1.31298
1.31236
1.3102
1.30966
1.31048
1.31171
1.31482
1.32426
1.33145
1.33428
1.33495
1.33191
1.32747
1.32642
1.32707
1.3283
1.33146
1.34144
1.35027
1.354
1.3558
1.35407
1.3485
1.346
1.34633
1.34746
1.34994
1.35696
1.36687
1.37237
1.37504
1.37682
1.37484
1.36976
1.36792
1.36875
1.37065
1.37462
1.38284
1.39031
1.39426
1.3966
1.39817
1.39585
1.39275
1.39271
1.39425
1.39692
1.40145
1.40791
1.41322
1.41673
1.41919
1.42118
1.42079
1.41922
1.41966
1.42152
1.42416
1.42813
1.43384
1.43855
1.44175
1.44392
1.44481
1.44559
1.44729
1.44938
1.45164
1.45412
1.45672
1.45987
1.4637
1.46709
1.4699
1.47247
1.47466
1.4759
1.47748
1.48002
1.48296
1.486
1.48929
1.49254
1.49531
1.49695
1.49866
1.50108
1.50406
1.50741
1.51101
1.51364
1.52886
1.67161
1.29938
1.30024
1.30419
1.31231
1.31664
1.31785
1.31773
1.31489
1.31275
1.31266
1.3133
1.31458
1.31921
1.33017
1.33674
1.33927
1.33952
1.33507
1.33039
1.32944
1.33024
1.33177
1.33597
1.34664
1.35468
1.35807
1.35986
1.3581
1.35238
1.34955
1.34984
1.35119
1.35424
1.36157
1.37074
1.37588
1.3785
1.3804
1.37873
1.37384
1.37209
1.37296
1.37491
1.37895
1.38685
1.3938
1.39755
1.39981
1.4014
1.39961
1.39707
1.39713
1.39866
1.40125
1.40517
1.41089
1.41621
1.41993
1.42248
1.42454
1.42446
1.4232
1.42382
1.42573
1.42838
1.4322
1.4371
1.44124
1.44425
1.44616
1.4476
1.44949
1.45161
1.45354
1.45516
1.45709
1.45954
1.4627
1.46659
1.46989
1.47274
1.47515
1.47633
1.47758
1.47997
1.48276
1.48587
1.48912
1.49199
1.49386
1.49512
1.49721
1.49986
1.50278
1.50567
1.50871
1.5108
1.52078
1.63668
1.3013
1.30146
1.30313
1.30992
1.31848
1.32236
1.32333
1.32179
1.31727
1.31505
1.31531
1.31641
1.31818
1.32438
1.33554
1.3414
1.34382
1.34384
1.33851
1.33371
1.33291
1.33369
1.33542
1.34049
1.35129
1.35864
1.3618
1.36368
1.36212
1.35645
1.35368
1.35399
1.35531
1.35839
1.36556
1.37434
1.37935
1.38192
1.38387
1.38253
1.37792
1.37627
1.37717
1.37917
1.38328
1.39068
1.39704
1.40065
1.40288
1.40453
1.40353
1.40151
1.4015
1.40297
1.40539
1.40877
1.41386
1.41924
1.42309
1.42569
1.42765
1.4278
1.42713
1.42805
1.42997
1.43262
1.43616
1.44012
1.44371
1.44651
1.44854
1.45069
1.45311
1.45532
1.45674
1.45803
1.46016
1.46269
1.46586
1.4695
1.47252
1.47514
1.47653
1.47772
1.47994
1.48261
1.48562
1.48867
1.49131
1.49268
1.49376
1.49583
1.49837
1.50099
1.50368
1.50651
1.5077
1.51246
1.60334
1.30373
1.30324
1.30442
1.30693
1.31518
1.32384
1.32755
1.32865
1.32581
1.32033
1.31836
1.31857
1.31941
1.32144
1.32923
1.34044
1.34574
1.34799
1.34791
1.34219
1.33725
1.33644
1.33731
1.33934
1.34503
1.35546
1.36224
1.36522
1.36712
1.36606
1.36071
1.35773
1.35796
1.35938
1.36263
1.36952
1.3778
1.38268
1.38527
1.38724
1.38621
1.38198
1.38047
1.38142
1.38347
1.38754
1.39424
1.40004
1.40358
1.40585
1.40761
1.40758
1.40609
1.40587
1.40718
1.40936
1.41237
1.417
1.42229