/*--------------------------------*- C++ -*----------------------------------*\
  =========                 |
  \\      /  F ield         | OpenFOAM: The Open Source CFD Toolbox
   \\    /   O peration     | Website:  https://openfoam.org
    \\  /    A nd           | Version:  12
     \\/     M anipulation  |
\*---------------------------------------------------------------------------*/
FoamFile
{
    format      ascii;
    class       volScalarField;
    location    "1.1";
    object      T;
}
// * * * * * * * * * * * * * * * * * * * * * * * * * * * * * * * * * * * * * //

dimensions      [0 0 0 1 0 0 0];

internalField   nonuniform List<scalar> 
9801
(
0.948319
0.948546
0.949139
0.949206
0.949179
0.948801
0.948658
0.948767
0.949233
0.950476
0.952325
0.952885
0.953045
0.952499
0.952448
0.952525
0.952777
0.954075
0.956023
0.956718
0.95692
0.956514
0.956265
0.956391
0.956692
0.95779
0.960336
0.961436
0.961693
0.961221
0.960738
0.960742
0.960843
0.961418
0.963646
0.965765
0.96632
0.966365
0.965694
0.96566
0.965817
0.966208
0.967074
0.96991
0.971518
0.971665
0.971389
0.971288
0.97135
0.97165
0.972129
0.973752
0.975875
0.976823
0.977039
0.977027
0.97737
0.977851
0.978581
0.980025
0.981178
0.981614
0.981979
0.982365
0.982772
0.983303
0.984272
0.986528
0.988531
0.989117
0.989127
0.989168
0.989385
0.989861
0.990627
0.991938
0.995088
0.997541
0.998343
0.998173
0.997469
0.997746
0.998494
0.999789
1.0022
1.00617
1.00889
1.01017
1.00983
1.00858
1.00887
1.01051
1.01374
1.02047
1.02697
1.03335
1.03751
1.09753
1.32867
0.949383
0.949661
0.950326
0.950564
0.950647
0.950057
0.949788
0.950031
0.950664
0.952131
0.953647
0.954307
0.954656
0.954126
0.953687
0.953824
0.954212
0.95552
0.957286
0.958147
0.95857
0.958275
0.957563
0.957754
0.958157
0.959218
0.961285
0.96251
0.96315
0.963042
0.962085
0.962106
0.962392
0.963086
0.964828
0.966505
0.967448
0.968023
0.967339
0.967
0.967335
0.96787
0.96873
0.970399
0.971827
0.972707
0.973176
0.972759
0.972866
0.973354
0.974158
0.975229
0.97626
0.97725
0.977919
0.977845
0.978278
0.979014
0.980137
0.981592
0.982631
0.983127
0.983062
0.983163
0.98375
0.98442
0.985242
0.987092
0.989385
0.990432
0.990838
0.990126
0.990059
0.990821
0.991751
0.992938
0.99576
0.998267
0.9994
0.99972
0.998452
0.998369
0.999401
1.00072
1.00307
1.00706
1.00965
1.01119
1.01198
1.01045
1.01012
1.01213
1.01515
1.02008
1.02509
1.03035
1.03244
1.09057
1.32979
0.949295
0.94972
0.950559
0.950886
0.951049
0.950531
0.950274
0.950548
0.951218
0.952748
0.954213
0.95487
0.955211
0.954851
0.954436
0.954544
0.954993
0.956282
0.957917
0.958773
0.959198
0.958947
0.958392
0.958616
0.959083
0.960248
0.96208
0.963155
0.963762
0.963569
0.962809
0.962934
0.963385
0.96441
0.966081
0.967393
0.968253
0.968729
0.968073
0.967945
0.968418
0.969199
0.970273
0.971517
0.972522
0.973452
0.973851
0.973563
0.973854
0.974559
0.975746
0.976855
0.977581
0.978298
0.978803
0.978811
0.979124
0.979836
0.981064
0.982786
0.983994
0.984631
0.984786
0.984679
0.985088
0.985859
0.9868
0.98836
0.990514
0.991758
0.992392
0.991963
0.991609
0.99226
0.993329
0.994713
0.997244
0.999675
1.00102
1.00174
1.00082
1.0002
1.00112
1.00254
1.00458
1.00812
1.01115
1.01325
1.01487
1.01392
1.01277
1.01478
1.01778
1.02193
1.02698
1.03245
1.03601
1.09246
1.33017
0.949635
0.950222
0.951181
0.951579
0.951815
0.951375
0.951122
0.951373
0.95201
0.953579
0.955045
0.955735
0.956054
0.955898
0.955592
0.955672
0.956069
0.957201
0.958714
0.959591
0.960019
0.959925
0.959645
0.959889
0.960344
0.96149
0.962976
0.96388
0.964408
0.964311
0.963995
0.964258
0.964762
0.966012
0.96734
0.968289
0.969018
0.969423
0.969164
0.969386
0.969925
0.970935
0.97201
0.972808
0.97336
0.973832
0.974085
0.974422
0.975139
0.976272
0.977789
0.978743
0.979325
0.979755
0.979779
0.979547
0.979867
0.980608
0.98214
0.984307
0.985752
0.986544
0.987003
0.986694
0.986641
0.987157
0.988062
0.989644
0.991816
0.993251
0.994164
0.994427
0.993839
0.994119
0.995024
0.996297
0.998614
1.00129
1.00287
1.00396
1.00388
1.00279
1.00322
1.0046
1.00642
1.00958
1.01301
1.01543
1.01732
1.01793
1.01652
1.01704
1.01976
1.02325
1.02789
1.03291
1.0361
1.0937
1.32792
0.950134
0.950792
0.951857
0.952316
0.952588
0.952253
0.952015
0.952255
0.952804
0.954313
0.955841
0.95659
0.956923
0.956875
0.956743
0.956849
0.957217
0.9581
0.9594
0.960326
0.960833
0.960867
0.960859
0.96121
0.961711
0.962738
0.963823
0.964549
0.964995
0.965031
0.965176
0.965656
0.966333
0.967517
0.968468
0.969155
0.969705
0.969963
0.970105
0.970681
0.971431
0.972521
0.973542
0.974243
0.974686
0.974782
0.974743
0.975172
0.976108
0.977634
0.979458
0.980546
0.981163
0.981622
0.981306
0.980586
0.980793
0.981544
0.983181
0.985753
0.987484
0.988424
0.989082
0.988857
0.988166
0.988286
0.989029
0.990605
0.993199
0.995012
0.996062
0.996781
0.996334
0.996011
0.996627
0.997653
0.99951
1.00253
1.00474
1.00608
1.00676
1.00574
1.00537
1.00644
1.00801
1.01049
1.0139
1.0167
1.01887
1.02074
1.02033
1.01948
1.02087
1.02373
1.02776
1.03206
1.03423
1.09396
1.32401
0.950836
0.951495
0.952609
0.953108
0.953416
0.953195
0.953007
0.953248
0.953744
0.955103
0.956629
0.95746
0.957872
0.957922
0.957914
0.958064
0.958455
0.959164
0.960186
0.961026
0.961573
0.961806
0.962144
0.962648
0.963221
0.964043
0.9648
0.965294
0.965559
0.965754
0.966239
0.967034
0.967999
0.968983
0.969701
0.970203
0.970514
0.970594
0.970878
0.971621
0.972829
0.974306
0.975132
0.975753
0.976192
0.976234
0.975913
0.976052
0.9767
0.97816
0.980521
0.982143
0.982961
0.983413
0.982926
0.981987
0.982043
0.98269
0.983985
0.986719
0.988917
0.990062
0.990828
0.990732
0.989517
0.98926
0.989916
0.991241
0.994115
0.99657
0.997857
0.998776
0.998668
0.997773
0.997777
0.998554
0.999889
1.0028
1.00584
1.00762
1.00885
1.0087
1.00756
1.0078
1.00906
1.01085
1.01386
1.01694
1.01932
1.0214
1.0228
1.02196
1.02161
1.02316
1.0259
1.02964
1.0316
1.09389
1.31945
0.951595
0.952261
0.953364
0.953875
0.954204
0.954101
0.954014
0.954264
0.954731
0.95593
0.957374
0.958243
0.958738
0.95893
0.959041
0.95925
0.959661
0.960274
0.961091
0.961797
0.962269
0.962633
0.963237
0.964042
0.964701
0.965309
0.965839
0.966176
0.966382
0.966608
0.967088
0.968083
0.969474
0.97038
0.970932
0.971345
0.971602
0.971581
0.971701
0.972242
0.973402
0.975374
0.976704
0.97731
0.977721
0.977714
0.977174
0.977161
0.977609
0.978462
0.980716
0.983009
0.984124
0.984722
0.984545
0.983495
0.983447
0.98408
0.985009
0.987299
0.98986
0.991199
0.991971
0.99193
0.99073
0.990363
0.990956
0.991943
0.994555
0.997621
0.999281
1.00031
1.00052
0.999222
0.998673
0.99919
1.00027
1.0025
1.00607
1.00852
1.01
1.01088
1.00977
1.00891
1.0096
1.01097
1.01331
1.01667
1.01937
1.0215
1.0234
1.02396
1.02281
1.02286
1.02427
1.02701
1.02917
1.09307
1.31457
0.95236
0.953035
0.954114
0.954631
0.95499
0.954997
0.955005
0.955265
0.95571
0.956757
0.958088
0.958964
0.959514
0.959845
0.960143
0.960433
0.960821
0.961361
0.962045
0.962644
0.963067
0.96349
0.964118
0.965129
0.966042
0.966529
0.96691
0.967214
0.967433
0.967609
0.967967
0.968709
0.970283
0.971615
0.97218
0.97257
0.972771
0.972589
0.972583
0.972947
0.973618
0.975469
0.97763
0.978755
0.979256
0.979251
0.9785
0.978253
0.97866
0.979274
0.980563
0.983055
0.984677
0.985469
0.985842
0.985216
0.984872
0.985379
0.986144
0.98764
0.990117
0.991686
0.992501
0.992741
0.991822
0.99138
0.992001
0.99298
0.99475
0.998019
1.00015
1.00124
1.00178
1.00052
0.99946
0.999913
1.0009
1.00232
1.00563
1.00879
1.01058
1.01178
1.01181
1.0102
1.01003
1.01116
1.0128
1.01582
1.01889
1.02117
1.02309
1.02466
1.02467
1.02344
1.02367
1.02515
1.02701
1.09119
1.30941
0.953097
0.953774
0.954867
0.955402
0.955795
0.955893
0.95594
0.956194
0.956643
0.957615
0.958819
0.95965
0.960199
0.960602
0.961025
0.961485
0.961973
0.962493
0.96302
0.963516
0.963966
0.964381
0.96487
0.965768
0.96696
0.967672
0.968092
0.968371
0.968526
0.968608
0.968844
0.969324
0.970556
0.972419
0.973457
0.973852
0.974039
0.973704
0.973489
0.973778
0.974284
0.975284
0.977713
0.979498
0.980293
0.980682
0.980243
0.979573
0.979689
0.980152
0.980816
0.982593
0.984801
0.986006
0.986716
0.986878
0.98641
0.986572
0.987133
0.987943
0.989813
0.991773
0.992826
0.993435
0.993203
0.99273
0.993255
0.994155
0.995223
0.997536
1.00012
1.00147
1.00217
1.00194
1.00074
1.00083
1.00185
1.00306
1.00508
1.00821
1.01044
1.01185
1.01271
1.01208
1.01106
1.01166
1.01297
1.01499
1.01813
1.02066
1.02257
1.02434
1.02545
1.02518
1.02407
1.02421
1.02523
1.08851
1.30407
0.953836
0.954524
0.955625
0.956173
0.956585
0.956742
0.956807
0.957068
0.957569
0.958546
0.959589
0.960317
0.960841
0.961273
0.961691
0.962287
0.963097
0.963664
0.964069
0.964442
0.964842
0.965218
0.965599
0.96622
0.967575
0.968755
0.969282
0.969567
0.969669
0.969636
0.969729
0.970099
0.970777
0.972596
0.974272
0.975049
0.975338
0.975138
0.97462
0.974697
0.975092
0.975637
0.977122
0.979555
0.980914
0.981635
0.981987
0.98138
0.980833
0.980938
0.981361
0.982371
0.984749
0.98655
0.987466
0.988042
0.987904
0.987573
0.987784
0.988298
0.989383
0.991674
0.993354
0.994233
0.994703
0.994344
0.99437
0.994937
0.995661
0.996691
0.999072
1.00128
1.00244
1.00328
1.00294
1.0023
1.00284
1.0038
1.00491
1.00697
1.00966
1.01152
1.01279
1.01367
1.01316
1.01264
1.0135
1.01489
1.01701
1.0197
1.02183
1.02361
1.02525
1.02609
1.02588
1.02478
1.02415
1.08519
1.29863
0.954635
0.955323
0.956363
0.956884
0.95729
0.957468
0.957609
0.957949
0.958556
0.959541
0.960384
0.960995
0.961503
0.961898
0.962208
0.962815
0.964015
0.964783
0.965202
0.965514
0.965758
0.965989
0.966312
0.966758
0.967826
0.969456
0.970353
0.970741
0.970925
0.970819
0.970725
0.970928
0.971337
0.97232
0.974507
0.975943
0.976578
0.976826
0.976294
0.975816
0.975884
0.976202
0.976893
0.979096
0.981308
0.982376
0.983024
0.983124
0.982137
0.981736
0.982076
0.982774
0.984749
0.987036
0.988217
0.988904
0.989211
0.988625
0.988336
0.988616
0.9893
0.991135
0.99375
0.995189
0.996019
0.996314
0.995768
0.995641
0.995861
0.996415
0.997723
1.00065
1.00291
1.0041
1.00494
1.00455
1.00398
1.00431
1.00504
1.00617
1.00839
1.01109
1.01299
1.01436
1.01517
1.01473
1.01441
1.01514
1.01642
1.01829
1.02075
1.02283
1.02457
1.02604
1.02672
1.02642
1.02456
1.08184
1.2931
0.95551
0.956239
0.957089
0.957536
0.95793
0.958106
0.958309
0.958777
0.959627
0.960555
0.961231
0.961755
0.962213
0.962482
0.962674
0.963194
0.964569
0.96585
0.96637
0.966712
0.966858
0.966855
0.96699
0.967316
0.967957
0.96969
0.971245
0.971914
0.972254
0.972269
0.971855
0.971755
0.971977
0.972466
0.974138
0.976481
0.97765
0.978171
0.97821
0.977217
0.976688
0.976902
0.977402
0.9788
0.981386
0.98295
0.983717
0.984186
0.983567
0.98274
0.982904
0.983475
0.984831
0.987365
0.988918
0.989706
0.990272
0.989882
0.989011
0.988972
0.989476
0.99063
0.993555
0.995966
0.997187
0.99794
0.997748
0.99657
0.996134
0.996435
0.997275
0.999421
1.0028
1.0048
1.00594
1.00666
1.00586
1.00508
1.00532
1.00609
1.00737
1.00999
1.01278
1.0146
1.01598
1.01687
1.01635
1.01579
1.01638
1.01759
1.01932
1.02172
1.02383
1.02547
1.02668
1.02713
1.02613
1.0795
1.28742
0.956406
0.957177
0.957808
0.958204
0.958595
0.958736
0.958919
0.959421
0.96058
0.961603
0.962198
0.962647
0.963014
0.963095
0.963158
0.963552
0.964758
0.966578
0.967518
0.967932
0.968156
0.967928
0.967707
0.967878
0.968313
0.969536
0.971761
0.973029
0.973513
0.973757
0.973237
0.972631
0.972701
0.973083
0.973939
0.976411
0.978353
0.979203
0.979622
0.979051
0.977903
0.977799
0.978212
0.979073
0.981285
0.983304
0.984276
0.984846
0.984814
0.98393
0.983787
0.984223
0.985031
0.987356
0.989553
0.990605
0.991227
0.991242
0.989954
0.989483
0.989898
0.990672
0.992958
0.996293
0.997979
0.998939
0.999399
0.998003
0.996728
0.996923
0.997638
0.998831
1.00193
1.005
1.00651
1.0075
1.00784
1.00656
1.00587
1.00638
1.00735
1.00896
1.012
1.01461
1.01622
1.01743
1.01807
1.01742
1.01685
1.01748
1.01865
1.02043
1.02282
1.02476
1.02611
1.027
1.02705
1.0781
1.28153
0.957184
0.958106
0.958648
0.959012
0.95936
0.959412
0.959503
0.959923
0.961145
0.962626
0.963272
0.963685
0.963972
0.963837
0.963718
0.963988
0.96474
0.966829
0.968474
0.969112
0.969462
0.969302
0.968646
0.968531
0.968859
0.969518
0.97163
0.973754
0.974691
0.975074
0.974899
0.973875
0.973548
0.973815
0.974362
0.976032
0.978582
0.979879
0.980512
0.980674
0.979598
0.978955
0.979193
0.979721
0.981267
0.983583
0.984875
0.985568
0.985896
0.985132
0.9846
0.984863
0.985483
0.987131
0.989954
0.991501
0.992272
0.99249
0.991163
0.990221
0.990582
0.991339
0.992667
0.99579
0.998303
0.999478
1.00013
0.999746
0.998067
0.997763
0.998501
0.999455
1.00116
1.00429
1.00659
1.00784
1.00868
1.00843
1.00709
1.00704
1.00794
1.00906
1.01093
1.01381
1.01599
1.01742
1.01852
1.01893
1.01828
1.018
1.01875
1.01986
1.02156
1.02373
1.02532
1.02636
1.02708
1.07745
1.27546
0.957812
0.959017
0.959614
0.95995
0.960227
0.960148
0.960098
0.96041
0.961408
0.963342
0.9644
0.964828
0.965096
0.964816
0.96439
0.964496
0.964944
0.966514
0.968986
0.970221
0.97066
0.970804
0.969989
0.969358
0.969463
0.969902
0.971147
0.973892
0.975544
0.976224
0.976458
0.975582
0.974627
0.974647
0.975052
0.975977
0.978402
0.98032
0.981178
0.981658
0.981338
0.98031
0.980227
0.980651
0.981604
0.983862
0.985568
0.986349
0.986766
0.986209
0.985371
0.985553
0.986148
0.987188
0.989821
0.992014
0.992973
0.993484
0.992882
0.991597
0.991629
0.99228
0.993043
0.994692
0.997636
0.999461
1.00037
1.001
1.00033
0.999315
0.999539
1.00025
1.00113
1.00298
1.0059
1.00777
1.00885
1.00958
1.00921
1.00838
1.00866
1.00956
1.01063
1.01252
1.01513
1.01705
1.01837
1.01939
1.01987
1.01951
1.01935
1.02004
1.02105
1.02246
1.02421
1.0255
1.02655
1.07705
1.26926
0.958333
0.959713
0.960595
0.960953
0.961189
0.960996
0.960751
0.960959
0.961596
0.963613
0.965346
0.965966
0.966287
0.966066
0.965283
0.965111
0.965421
0.96621
0.968776
0.970922
0.97178
0.972108
0.971661
0.970478
0.970188
0.970503
0.971158
0.973333
0.975915
0.977082
0.977625
0.977466
0.976172
0.975633
0.97589
0.976457
0.978124
0.980472
0.981715
0.982309
0.982527
0.981762
0.981375
0.981717
0.982297
0.983994
0.986087
0.987096
0.987535
0.987327
0.986475
0.986522
0.987101
0.987806
0.989213
0.991738
0.993326
0.994125
0.994551
0.993731
0.992982
0.993174
0.993709
0.994432
0.996238
0.999032
1.00073
1.00165
1.00221
1.00146
1.00067
1.00097
1.00174
1.00267
1.00448
1.00706
1.00885
1.00997
1.01076
1.01052
1.00986
1.01018
1.01108
1.01215
1.01382
1.01609
1.01796
1.01934
1.02037
1.02089
1.02083
1.02066
1.02111
1.02192
1.02299
1.02444
1.02571
1.07645
1.26288
0.958874
0.960169
0.961447
0.961923
0.962184
0.962021
0.961544
0.961596
0.961997
0.963417
0.965844
0.967031
0.967425
0.967473
0.966549
0.965914
0.966038
0.966474
0.968023
0.971015
0.972592
0.973206
0.973295
0.972141
0.971177
0.971224
0.971647
0.972795
0.975584
0.977523
0.978363
0.978806
0.978166
0.976999
0.976898
0.977291
0.978201
0.980329
0.98204
0.982849
0.98326
0.983141
0.982678
0.98281
0.983237
0.984022
0.986041
0.987634
0.988385
0.988667
0.988182
0.987801
0.988038
0.988472
0.989059
0.990714
0.993206
0.994657
0.995447
0.995838
0.994989
0.994285
0.994435
0.994953
0.995769
0.997758
1.00048
1.00209
1.00299
1.00341
1.00268
1.00219
1.00249
1.00303
1.00385
1.00558
1.00822
1.01009
1.01126
1.012
1.01194
1.01148
1.01174
1.01245
1.01339
1.01478
1.0169
1.01882
1.02022
1.02129
1.02196
1.02215
1.02187
1.02195
1.02247
1.02331
1.02473
1.0752
1.25627
0.959489
0.960423
0.962093
0.962831
0.963161
0.963199
0.962573
0.962336
0.962594
0.96329
0.965684
0.967737
0.968497
0.968767
0.9682
0.967035
0.966795
0.967086
0.967783
0.970248
0.97289
0.973997
0.974491
0.974145
0.972668
0.972126
0.97238
0.972963
0.974848
0.977472
0.978798
0.979448
0.979738
0.978871
0.978143
0.978292
0.978737
0.980079
0.982176
0.98338
0.983988
0.984325
0.98403
0.983792
0.983982
0.984406
0.985569
0.987798
0.989166
0.989861
0.99007
0.989372
0.988919
0.989134
0.989635
0.990317
0.992154
0.99465
0.99607
0.996864
0.997095
0.996149
0.99552
0.995731
0.996288
0.997135
0.999267
1.00187
1.00334
1.00423
1.00473
1.0039
1.00321
1.00351
1.00423
1.00515
1.00696
1.00953
1.01133
1.01249
1.0133
1.0134
1.01285
1.01288
1.01356
1.01452
1.01581
1.0178
1.01975
1.02119
1.02226
1.02288
1.02314
1.02285
1.02264
1.02283
1.02367
1.07324
1.24945
0.960159
0.960609
0.962482
0.963699
0.96412
0.96436
0.963847
0.963217
0.963278
0.963657
0.965068
0.967894
0.969361
0.969863
0.96987
0.968665
0.967783
0.967839
0.968224
0.969481
0.972441
0.974378
0.97517
0.975575
0.974782
0.973463
0.973291
0.973633
0.974563
0.976908
0.978943
0.9799
0.980453
0.98055
0.979682
0.979328
0.979599
0.980243
0.982106
0.983893
0.984753
0.985254
0.985336
0.984786
0.984717
0.985059
0.985584
0.987189
0.98952
0.990777
0.991401
0.991465
0.990591
0.990179
0.990349
0.990685
0.991378
0.993539
0.996087
0.997379
0.998178
0.998412
0.997396
0.996781
0.997
0.997544
0.998468
1.00083
1.00333
1.00469
1.00547
1.00564
1.00476
1.00439
1.00488
1.00564
1.00656
1.00833
1.01084
1.01256
1.01366
1.01427
1.01433
1.01395
1.01405
1.01475
1.01568
1.01688
1.01885
1.02072
1.02205
1.02296
1.02347
1.02381
1.02375
1.02338
1.02332
1.07008
1.24245
0.96085
0.960962
0.962516
0.96436
0.965059
0.965401
0.965236
0.964334
0.964074
0.964324
0.96495
0.967284
0.969741
0.970738
0.971119
0.970654
0.969229
0.968773
0.969005
0.969561
0.971557
0.974267
0.975579
0.976213
0.976478
0.975413
0.974489
0.974554
0.974952
0.976378
0.978747
0.980195
0.980943
0.981428
0.981185
0.980468
0.98047
0.98086
0.981931
0.984139
0.985518
0.98615
0.986559
0.986186
0.985633
0.985682
0.985979
0.98664
0.988843
0.991241
0.992382
0.993008
0.992927
0.991734
0.991106
0.991259
0.99169
0.992553
0.995125
0.997623
0.998816
0.999563
0.999617
0.998396
0.997844
0.99821
0.998857
0.999977
1.00234
1.00444
1.00557
1.00633
1.00667
1.00612
1.00589
1.00638
1.00717
1.0081
1.00969
1.01179
1.0133
1.01428
1.01499
1.01535
1.01531
1.01551
1.0162
1.01715
1.0182
1.01966
1.0212
1.02241
1.02325
1.02395
1.02456
1.0248
1.02431
1.06661
1.23536
0.961647
0.961508
0.962345
0.964658
0.965897
0.966358
0.966532
0.96576
0.965055
0.965101
0.965426
0.966617
0.969432
0.971195
0.971909
0.972187
0.971237
0.970046
0.969925
0.970223
0.971184
0.973653
0.975713
0.976648
0.977167
0.977188
0.976087
0.975614
0.975847
0.976475
0.97841
0.980363
0.98136
0.981958
0.982236
0.981648
0.981291
0.981528
0.982064
0.983918
0.986134
0.987196
0.987709
0.987791
0.986824
0.986291
0.986448
0.986864
0.987885
0.990764
0.993002
0.993965
0.994512
0.994089
0.992563
0.992025
0.992305
0.99284
0.994037
0.996912
0.999081
1.0001
1.00075
1.00061
0.999531
0.999258
0.999687
1.00029
1.00125
1.0033
1.00535
1.00664
1.0075
1.00799
1.00773
1.0076
1.00801
1.00864
1.00935
1.01044
1.01223
1.01391
1.01507
1.01596
1.01667
1.01704
1.01731
1.01775
1.01827
1.0189
1.01984
1.02121
1.02269
1.02386
1.02474
1.02553
1.02589
1.06477
1.2282
0.96259
0.962193
0.962419
0.964394
0.966458
0.967312
0.967643
0.967351
0.966305
0.965983
0.966185
0.966677
0.968639
0.971219
0.972406
0.972974
0.973038
0.971814
0.971052
0.971165
0.97155
0.973095
0.975518
0.976909
0.977592
0.978001
0.977665
0.976846
0.976815
0.977169
0.978332
0.980479
0.981793
0.982492
0.982968
0.982728
0.982034
0.982073
0.982528
0.983557
0.986175
0.988043
0.988836
0.989194
0.988555
0.987264
0.987042
0.987423
0.987972
0.989578
0.992699
0.994501
0.995324
0.995822
0.994908
0.993335
0.993108
0.993563
0.994204
0.995706
0.998444
1.00026
1.00119
1.00189
1.00188
1.00094
1.0006
1.00084
1.00137
1.00226
1.00422
1.00642
1.00782
1.00871
1.00939
1.00952
1.00932
1.00936
1.00961
1.01014
1.01104
1.01274
1.01476
1.0162
1.01726
1.01822
1.01886
1.01893
1.01872
1.01878
1.01927
1.02015
1.02151
1.02335
1.02481
1.02583
1.02648
1.06355
1.22096
0.963659
0.962954
0.962937
0.963904
0.966471
0.968053
0.968653
0.968789
0.96791
0.967043
0.967006
0.967288
0.968231
0.970719
0.972658
0.973488
0.973939
0.973664
0.97252
0.972215
0.972474
0.973157
0.975166
0.977012
0.977923
0.978456
0.978647
0.978063
0.977782
0.978057
0.978626
0.98054
0.982309
0.983132
0.983676
0.983722
0.982904
0.98271
0.98308
0.983631
0.98534
0.988166
0.989647
0.990344
0.990447
0.989094
0.988004
0.988078
0.988538
0.989245
0.991458
0.994356
0.99577
0.996465
0.996817
0.995691
0.994514
0.994529
0.994961
0.995564
0.997056
0.999735
1.00154
1.00249
1.00314
1.00312
1.00212
1.00165
1.00196
1.00258
1.00349
1.00532
1.00755
1.00904
1.00996
1.01071
1.01109
1.01071
1.01022
1.01035
1.01098
1.01192
1.01376
1.01603
1.01748
1.01849
1.01929
1.01979
1.01975
1.01928
1.01933
1.01992
1.02078
1.0223
1.0243
1.02573
1.02663
1.06281
1.21364
0.964904
0.963841
0.963693
0.96401
0.965812
0.96834
0.969475
0.96991
0.969686
0.968498
0.967982
0.968149
0.96855
0.970126
0.972529
0.973835
0.974457
0.974788
0.974194
0.973429
0.973454
0.973785
0.975037
0.977085
0.978282
0.978937
0.97933
0.979082
0.97861
0.978735
0.979174
0.980466
0.982793
0.984025
0.984543
0.984779
0.984034
0.983451
0.983574
0.98398
0.984749
0.987299
0.989903
0.991048
0.9917
0.991436
0.989707
0.988946
0.989199
0.989721
0.990678
0.993186
0.995649
0.996843
0.997503
0.997844
0.996793
0.995735
0.995734
0.996202
0.996924
0.998524
1.00102
1.00266
1.00357
1.00423
1.00427
1.00334
1.00298
1.0033
1.00384
1.00465
1.00639
1.00872
1.01022
1.01115
1.01183
1.01211
1.0114
1.01093
1.01142
1.01228
1.01336
1.01519
1.01713
1.01839
1.01931
1.0199
1.02022
1.02032
1.02019
1.0204
1.0211
1.022
1.02337
1.02494
1.02601
1.06181
1.20618
0.966311
0.964972
0.964524
0.964636
0.965373
0.967867
0.969857
0.970674
0.971017
0.970446
0.969334
0.969116
0.969364
0.970076
0.972126
0.973991
0.974876
0.975362
0.97548
0.974728
0.974439
0.974708
0.975346
0.97726
0.978772
0.979474
0.97993
0.979914
0.979351
0.979347
0.979753
0.98047
0.982656
0.984702
0.985562
0.98588
0.985469
0.984353
0.984115
0.984497
0.98505
0.986296
0.989216
0.991288
0.992185
0.992733
0.992184
0.990652
0.990199
0.990509
0.991029
0.99207
0.99454
0.996782
0.997955
0.998633
0.998905
0.99791
0.99705
0.997155
0.997599
0.998245
0.999692
1.00209
1.00374
1.00468
1.00536
1.00551
1.00454
1.00404
1.0044
1.00506
1.00602
1.00779
1.00989
1.0112
1.01205
1.01252
1.01262
1.01237
1.01242
1.01301
1.01384
1.01475
1.01609
1.01762
1.01877
1.01959
1.02026
1.021
1.02157
1.02168
1.02177
1.0222
1.02286
1.02383
1.02519
1.06039
1.19853
0.967657
0.966507
0.965506
0.965428
0.965659
0.967112
0.969712
0.97111
0.971745
0.972015
0.971177
0.970316
0.970324
0.970635
0.971909
0.973987
0.975207
0.975821
0.976177
0.975903
0.975429
0.975571
0.975987
0.977379
0.979281
0.980175
0.980646
0.980803
0.980251
0.98004
0.980325
0.980787
0.981911
0.984547
0.986258
0.987006
0.987165
0.98612
0.985146
0.985194
0.98561
0.986203
0.987801
0.990611
0.992314
0.993113
0.993703
0.993208
0.991866
0.991456
0.991723
0.992254
0.993344
0.995714
0.997852
0.998993
0.999686
1.00006
0.999183
0.99829
0.998296
0.998729
0.999464
1.00097
1.0033
1.00492
1.00585
1.00639
1.00634
1.00554
1.00538
1.0059
1.00662
1.0075
1.00883
1.0105
1.01171
1.01249
1.01312
1.01375
1.01402
1.01416
1.01455
1.01512
1.01575
1.01652
1.0177
1.01915
1.0204
1.02129
1.02209
1.0228
1.02312
1.02297
1.02303
1.02354
1.02423
1.05832
1.1907
0.9687
0.968232
0.966756
0.966307
0.966404
0.967038
0.969161
0.971238
0.972168
0.972645
0.972762
0.971883
0.971446
0.971638
0.972162
0.973927
0.975492
0.976275
0.976735
0.976853
0.97641
0.976341
0.976646
0.977379
0.979483
0.981043
0.981633
0.981879
0.981413
0.980837
0.98086
0.981177
0.981732
0.983487
0.986232
0.987632
0.988306
0.988297
0.986992
0.986133
0.986213
0.986624
0.987341
0.989118
0.991763
0.993392
0.994209
0.994742
0.994273
0.993075
0.992666
0.992921
0.993471
0.994575
0.99686
0.99896
1.00013
1.0008
1.00109
1.0002
0.999395
0.99953
1.00005
1.00085
1.00236
1.00441
1.00579
1.00659
1.00707
1.00731
1.00709
1.00702
1.00736
1.00795
1.00868
1.0096
1.01089
1.01228
1.01346
1.01431
1.01506
1.01564
1.01577
1.01573
1.01588
1.01634
1.0171
1.01823
1.01985
1.02124
1.0222
1.02304
1.02368
1.02401
1.02386
1.02387
1.02402
1.05537
1.18279
0.969415
0.969508
0.96837
0.967411
0.967315
0.967573
0.968777
0.971026
0.972401
0.973052
0.97344
0.973316
0.972675
0.97263
0.972924
0.97402
0.975844
0.976816
0.977342
0.97765
0.977315
0.977008
0.977224
0.9777
0.979119
0.981435
0.98262
0.983028
0.982858
0.98192
0.981522
0.981765
0.982211
0.982929
0.985032
0.987534
0.988761
0.989416
0.989386
0.988087
0.987279
0.98736
0.987781
0.988578
0.99031
0.992737
0.99431
0.995141
0.995762
0.995466
0.99428
0.993837
0.994108
0.994693
0.995812
0.997994
0.999948
1.00103
1.00168
1.00196
1.00131
1.00079
1.00102
1.00157
1.00233
1.00346
1.00502
1.00637
1.00733
1.008
1.00848
1.00863
1.00868
1.00888
1.00921
1.00962
1.01027
1.0114
1.01305
1.01444
1.01539
1.01612
1.0167
1.01688
1.0167
1.01676
1.01716
1.01785
1.01894
1.02062
1.022
1.02295
1.02377
1.02439
1.02478
1.02482
1.02437
1.05223
1.17489
0.969973
0.970374
0.96995
0.968776
0.968303
0.968436
0.968921
0.970696
0.972537
0.973423
0.973913
0.974177
0.973816
0.973526
0.973756
0.974352
0.976176
0.977545
0.978091
0.978435
0.978234
0.977811
0.977913
0.978269
0.978822
0.980733
0.98299
0.984043
0.984467
0.9839
0.982808
0.982575
0.982795
0.983145
0.983939
0.98628
0.988689
0.989853
0.990483
0.990532
0.989331
0.988533
0.988583
0.988948
0.989675
0.991262
0.993707
0.995367
0.996237
0.996806
0.996563
0.995428
0.99503
0.995358
0.995972
0.997047
0.998947
1.00074
1.00184
1.0025
1.00289
1.00272
1.00243
1.00254
1.00296
1.00355
1.00431
1.00545
1.00688
1.00809
1.00894
1.00968
1.01025
1.01041
1.01026
1.01021
1.01045
1.01102
1.01206
1.01382
1.01526
1.01619
1.01693
1.01762
1.018
1.01778
1.01769
1.01811
1.01881
1.01979
1.02123
1.02255
1.02355
1.02442
1.02508
1.0256
1.0253
1.04991
1.16701
0.970377
0.971095
0.971043
0.970245
0.969366
0.969325
0.969629
0.970679
0.972648
0.973823
0.974391
0.974746
0.974727
0.974365
0.974463
0.974847
0.976124
0.978135
0.979074
0.979398
0.979392
0.978841
0.978633
0.978767
0.979091
0.979895
0.982323
0.984514
0.985446
0.985779
0.984906
0.983686
0.983409
0.983705
0.984182
0.985129
0.987445
0.989736
0.990932
0.991579
0.991686
0.990539
0.989641
0.989642
0.990071
0.99086
0.992384
0.994685
0.996274
0.997138
0.997718
0.997648
0.996712
0.996355
0.99667
0.997268
0.998158
0.999646
1.00133
1.00256
1.00338
1.00398
1.00424
1.00412
1.00409
1.00424
1.00453
1.00496
1.00581
1.00746
1.00912
1.01016
1.01087
1.01154
1.01181
1.01137
1.01106
1.01136
1.01193
1.01284
1.01449
1.01605
1.01709
1.01786
1.01847
1.01888
1.0189
1.01881
1.01905
1.0196
1.02045
1.02167
1.02303
1.02416
1.0251
1.02591
1.0261
1.04821
1.1591
0.970633
0.971779
0.971858
0.971578
0.970608
0.970273
0.970496
0.971003
0.972698
0.974258
0.97495
0.975379
0.975556
0.975206
0.975116
0.975395
0.975984
0.977975
0.979811
0.980515
0.980692
0.980152
0.979409
0.979376
0.979714
0.980147
0.981108
0.983675
0.985714
0.986627
0.987026
0.986118
0.984855
0.984567
0.984775
0.98521
0.986126
0.988398
0.990712
0.991943
0.992607
0.992828
0.991749
0.990855
0.990873
0.991271
0.991979
0.993317
0.995493
0.997116
0.99803
0.998627
0.998798
0.998155
0.997786
0.997967
0.998454
0.999079
1.0001
1.00178
1.00335
1.00441
1.00513
1.00572
1.0058
1.0054
1.0051
1.00526
1.00575
1.00661
1.0084
1.01015
1.01122
1.01193
1.01254
1.01282
1.01235
1.01203
1.01234
1.01293
1.01375
1.01513
1.01669
1.0178
1.01862
1.0194
1.02003
1.02013
1.0197
1.01971
1.02021
1.02102
1.02225
1.02372
1.02494
1.02599
1.02647
1.04681
1.1511
0.970638
0.972317
0.97259
0.972635
0.972002
0.971273
0.971269
0.971579
0.972637
0.974677
0.975737
0.976164
0.976413
0.976093
0.975776
0.975917
0.97627
0.977206
0.979655
0.981332
0.98195
0.981955
0.980978
0.98035
0.980389
0.980584
0.98096
0.982079
0.984907
0.986983
0.987872
0.988263
0.987347
0.98595
0.98552
0.985741
0.986233
0.987146
0.989307
0.991676
0.992997
0.993676
0.993955
0.992984
0.992038
0.991972
0.992376
0.993089
0.994267
0.996204
0.99787
0.998923
0.99961
1.00006
0.99971
0.999179
0.999063
0.99938
0.999899
1.00072
1.00242
1.00431
1.00552
1.00627
1.00692
1.00711
1.00643
1.00601
1.00629
1.00683
1.0076
1.00927
1.01103
1.01209
1.01281
1.0134
1.01377
1.01349
1.0132
1.01341
1.01385
1.01452
1.0157
1.01741
1.01875
1.01961
1.02032
1.02079
1.02075
1.02019
1.02028
1.02093
1.02178
1.02318
1.0246
1.02586
1.02654
1.04544
1.14304
0.97049
0.972693
0.973335
0.973483
0.973288
0.972374
0.972018
0.972259
0.972803
0.974661
0.976462
0.977132
0.977376
0.977178
0.976593
0.976495
0.97674
0.977146
0.978496
0.981207
0.982763
0.983347
0.983157
0.981872
0.981092
0.981134
0.98148
0.981992
0.983267
0.986069
0.988058
0.988951
0.989405
0.988605
0.987139
0.986637
0.98682
0.987301
0.988169
0.990194
0.992585
0.993964
0.994677
0.995061
0.994264
0.993322
0.993194
0.993544
0.994132
0.995022
0.996742
0.998635
0.999928
1.00072
1.0013
1.00118
1.00043
1.00005
1.00027
1.00076
1.00152
1.00325
1.00529
1.00651
1.00726
1.00787
1.00808
1.00741
1.00701
1.00732
1.00791
1.00868
1.01014
1.01178
1.01289
1.01368
1.01433
1.01481
1.01467
1.01417
1.01423
1.01473
1.01543
1.01656
1.01824
1.01949
1.0203
1.02096
1.02131
1.02107
1.02074
1.02115
1.02189
1.02286
1.02422
1.02551
1.02627
1.04378
1.13496
0.970524
0.972596
0.97386
0.974183
0.974294
0.973744
0.972989
0.972997
0.973311
0.974193
0.976501
0.978022
0.978524
0.978578
0.977858
0.977267
0.977294
0.977588
0.978075
0.979757
0.982562
0.984047
0.984661
0.984374
0.98292
0.982157
0.982184
0.982431
0.982896
0.984183
0.987056
0.989117
0.99004
0.990539
0.989893
0.988353
0.98774
0.987898
0.988361
0.989174
0.991042
0.993454
0.994917
0.99567
0.996149
0.995631
0.994628
0.994292
0.99455
0.99509
0.995836
0.997357
0.999459
1.00093
1.0018
1.00243
1.00248
1.00152
1.00095
1.00118
1.00172
1.00253
1.00424
1.00618
1.00735
1.0081
1.00868
1.00897
1.00853
1.00823
1.00851
1.00902
1.00965
1.01076
1.01239
1.01368
1.01458
1.01525
1.01568
1.0155
1.01506
1.01525
1.01581
1.01646
1.01743
1.01888
1.02002
1.02083
1.02149
1.02173
1.02143
1.02151
1.02213
1.02297
1.02407
1.02519
1.02593
1.04193
1.12691
0.970914
0.972038
0.974174
0.974958
0.97518
0.975152
0.974269
0.973792
0.973887
0.974225
0.975611
0.978213
0.97956
0.979992
0.979717
0.97858
0.97805
0.978115
0.978377
0.978919
0.980926
0.983865
0.985313
0.985943
0.985668
0.984075
0.983065
0.98298
0.983282
0.98385
0.985209
0.988074
0.990179
0.99113
0.991644
0.991096
0.989545
0.988849
0.988967
0.989417
0.990192
0.991889
0.994293
0.995864
0.996703
0.99725
0.99697
0.9959
0.995391
0.995571
0.996036
0.996686
0.998089
1.00036
1.00194
1.00281
1.00341
1.00351
1.00253
1.00198