/*--------------------------------*- C++ -*----------------------------------*\
  =========                 |
  \\      /  F ield         | OpenFOAM: The Open Source CFD Toolbox
   \\    /   O peration     | Website:  https://openfoam.org
    \\  /    A nd           | Version:  12
     \\/     M anipulation  |
\*---------------------------------------------------------------------------*/
FoamFile
{
    format      ascii;
    class       volScalarField;
    location    "1.1";
    object      T;
}
// * * * * * * * * * * * * * * * * * * * * * * * * * * * * * * * * * * * * * //

dimensions      [0 0 0 1 0 0 0];

internalField   nonuniform List<scalar> 
46253
(
0.995778
1
1.04458
1
1.04319
1.04198
0.99872
0.863475
1
1
0.996318
0.957421
1
1
1
1
1
1
1
1
1
1.03952
1
0.993954
0.997531
1
1
1
1
0.853789
1.00031
1
1
1
1
1
1
1
1.01856
1
0.997669
0.957186
1
1
0.960725
1
1
1
1
1
1
1
1.03428
0.962335
1.04822
0.964826
0.999999
0.999998
1.0199
0.998504
1
1.00059
1
1
1
1
1
1.03735
0.96491
0.956111
0.999227
0.999998
0.999998
1.00163
1.03074
0.993477
1.0009
1.00043
1
1
1
1.00001
1.03491
0.999996
0.998788
1.024
1.01205
1.01303
1.08221
1
1
0.997669
1.01479
1
1
0.999999
1.00553
1
1.01927
1
1
1.00109
1.02986
0.999722
1.04746
0.997572
0.957638
1.02322
1.02384
0.959858
1.01288
0.999996
0.999995
1
1
1.07902
0.947629
0.998351
1.05135
0.968534
1
1.04076
0.999999
1.00019
0.999999
1.0531
1
0.962978
1.05377
1.00891
1.02312
1.02304
1.04068
0.993673
1.00836
1
1.01108
1.0118
0.967871
1
0.999999
1.02266
1.02249
0.99802
1.0002
1.05131
1.01221
1.01215
1.02104
1
0.959423
1.03332
1.01076
1.01032
0.99273
0.947608
0.96468
1
1.01652
1.0469
1.01551
0.956753
0.96513
1
0.998045
1.01163
0.991474
1.01182
1.07963
1
1.02098
1.02032
1.03824
0.997665
1.04587
1.00328
1.00048
1.00095
1.00145
0.947271
1.04595
0.992258
1.02298
1.02303
1
1.01311
1.01565
0.958385
1
1
1.03198
1
1.00034
1
1
1
1.02311
1
1.01755
1.01739
1
1
1.01726
1.02038
1
0.942595
0.991246
1.02362
1.02369
1
1
1.05145
0.997524
1.02925
1
1
0.997614
0.997936
1.02327
1.03822
1.03616
1.0232
1.0034
1.02166
1.02316
0.998846
1
0.999991
1.01578
1.01553
1.01049
1
1
1
1
1
1
1
1.01016
1.01361
1
1.00008
1
1
1
1.03018
1
0.990854
1
1.02293
1.02281
1.01312
1.01373
1
1.01351
1.02356
1.02347
0.968087
0.999362
1
0.992475
0.999474
0.959571
0.998238
1.00064
1
1
1
1.02353
1.02228
1.02347
0.99999
1
1
1.02216
1
1.04996
1
0.961544
0.97232
1.01144
1.01146
1.03017
1.02909
1
1.00042
0.998774
0.968157
0.995813
1
1.01791
1.01785
0.998497
1
1.01679
1.00533
0.999988
1.00482
0.998127
1.02192
1.04895
1.02172
0.961945
1.04775
1
1.02293
1.02296
1
0.998582
1
1
1.00212
1
1.02124
1
1.02106
0.965985
1.01621
1
0.958305
0.965456
1
1.00002
0.997587
1.00818
0.995471
1
1
1.02082
1.02071
1.00746
1.0072
1
1
1
1.00012
0.967445
1.02229
1.02231
1
1.03425
1.03197
1
1.05134
1
1.02005
1.01988
1
0.966006
1.00007
1.04813
1
0.943003
1
0.957308
1
1.02201
1
1.02199
1
0.957418
1
1
1
1
1
1
1
1.01935
1
1
1
1
1.01925
1
1.01481
0.96804
0.999996
1
1
0.997433
1.00016
0.965257
1.02155
0.864724
1.0215
1
1
1.01873
1.05841
1
0.996201
1.01845
0.999135
1
0.86874
0.989439
0.990086
1
0.996515
1
1.00315
1.00289
1.01433
0.999996
1.02702
1
1
1
1
1
1
1.04324
1
0.997779
1.02534
1.00048
1
1
0.968919
1.02552
1
1.01781
1
1.02084
1
1
1.01772
1.0209
1
1.00227
1
1
1
1
0.991197
1.06676
1
1
0.970811
0.965901
1.02707
0.998533
1
0.991716
0.993199
1
1
0.967244
1
0.972304
0.997414
1
1.0006
1
1.02601
0.970905
1.02629
1.02035
0.989961
1
0.990619
0.990963
1.02025
1
0.990908
1.00099
1
1.02571
1
1
1.00106
1
0.966483
0.964202
1.01701
0.970596
0.990432
1.01679
1.00085
0.998981
0.999016
1
1
1
1
1.05506
1
0.973258
0.998537
0.955287
0.97346
0.991322
0.998535
0.991589
1
1
1.01964
0.996844
0.959311
1.01947
1.01596
1.01592
0.9973
0.999353
1
0.997313
0.998987
1
1
1
0.99953
1.0258
0.860894
1.00042
1
1
0.994325
1
1
1.00051
1.0495
0.997511
1
1
0.997641
1
0.997635
0.999838
0.99778
1
0.999434
0.998117
1
0.989425
0.997712
1
1
1.01905
1
0.987901
0.970641
1
1
1.01899
1
1
1.01828
1.01805
0.953692
1.01909
1.01921
1.01487
0.969967
1.01488
0.99857
1.02007
1.02039
1.0204
1.02039
1
1.02681
1
0.99083
0.956502
1
1
1
1.02492
1
1
0.990831
0.997053
1
0.995114
1
1
0.961955
1
1
1
1.01811
1
1
1.01801
0.994379
1.00587
1
1.00618
1.00643
1.00685
1.09587
1
1.01395
1.01374
0.996438
0.852544
1
1
1.00166
1
1.04852
1.00199
1.02528
1.04844
1.02743
1
0.998267
0.999597
1
1
0.882152
0.991772
1
1
0.987641
1.01986
1.02001
1.01927
1.01922
1.01846
1.01884
1.01809
1.01826
0.956187
0.992382
1.0173
0.999976
1.01726
1.01617
1
0.995269
0.994244
1.01641
1
1.01554
1
1.01578
1
0.993436
1.01469
1
1.01466
1.03389
1
1.01344
1
1.0136
1
0.951034
1
0.970281
0.993942
1
1
1.01259
1.01285
1
0.996429
1.01171
1.01175
0.987933
1
1
1.01016
1.01266
1.01026
1
1.01728
1.00903
0.966442
1.0091
1.01266
1.01731
1
1
1
1.00802
1.0081
0.942293
1
1
1.00695
0.974006
1.00697
0.9654
1
1.00546
1.00542
1
1
1
1.00068
1
0.997953
0.995202
1.00062
1
1.00387
1
1.00383
1
1
0.998069
0.998391
1.00274
1.0027
0.990478
0.999279
1.00157
0.999808
1.00173
1
0.990006
1.00014
1.00022
1
0.967777
0.999055
0.999099
1.07147
1
1
1
0.998148
0.991884
0.998291
1.0145
1.00199
0.989001
0.959669
0.997149
0.99701
0.995393
0.995904
0.996255
0.967098
0.96507
1.01996
0.950253
1.05139
1.01173
1
0.958935
1.01154
0.965341
0.88495
0.993521
1.01997
1.02008
1.02033
1.01625
1
1.01957
1
1
1.01941
1.0161
1
1.02023
1.02026
0.970291
0.967698
1
0.988471
0.983542
0.996178
1
1
1
1.02699
1
0.99998
1
0.991448
1.02568
1.00582
1.00045
1.0065
0.968845
1
0.999158
0.997507
1.00724
1.02622
1
1
1
1
1.00696
1.00603
1.0001
0.994466
0.99525
1
0.970792
1
1
1.00685
0.994551
1.02686
0.914093
1.02691
1.02656
0.98992
0.990509
1
1.00746
0.960747
0.989023
1
0.991326
1.01043
1
1.02643
0.990927
0.994026
1.02601
1.0102
1.03989
1.02726
1
1.01102
1.01131
0.992222
1
1.03846
1.02635
0.99794
1.00077
1
0.996894
0.853426
0.961956
1.03247
1
1
1
1.00641
1.00659
1.01981
1.02775
1
1.01517
1.00487
1
1.02794
1.00507
1.0151
0.991378
0.990348
1
0.990926
0.996739
0.960296
0.991287
0.963087
1.00121
1
1
1.00114
1
1
0.993137
0.991783
1
1.00966
0.968096
0.996106
0.968384
0.967484
1.00943
0.970965
0.967643
0.961976
0.961612
1
1.02726
0.946345
1.02761
1
0.991238
0.971535
0.972271
1
1
0.997184
1
0.997584
0.997277
1.0263
1.02616
1.0428
1.02646
1
1.02643
1
0.992507
0.999096
0.86428
1.02624
1
1.0146
1
0.992799
0.992908
1.01425
1.02684
0.991491
0.991414
0.991197
1
1
1
1
0.990998
0.997565
1
0.987275
1.02586
0.970585
1
0.967948
0.995828
0.995175
1
1.00889
1.00875
0.998415
1.04169
1.01986
0.972262
1.01899
1.01397
0.973261
1.02012
1.02013
0.989662
1.01502
1
1
0.998516
0.954314
1.03491
0.989396
1
1.01998
1
1.02007
1
1.01917
1.05928
1.0191
0.995878
0.965273
0.968389
0.84842
1.02279
1.02663
1.01934
0.96986
0.914037
0.996238
1.04719
1.0141
1.01486
1.01605
1.01324
1.01436
1
1.00111
1.01504
1.01688
1.01323
0.990729
1.01599
1.00961
1.01197
1.01712
1
1.01745
1.01209
1.01774
1
1.01051
1.01886
1.01834
1.01829
1.01056
1.01914
1.01968
1.00945
1.01931
1
1.0193
1.00967
1
1.00846
1.01965
1
1
1.00778
1.00861
1
1
1
1.00738
1.00704
1
1
1
1.0076
1.00776
1.0197
1.00578
1
0.979293
1.0059
1.00417
1.00429
0.965092
1.00316
1.00342
1.0023
1
0.994003
1.0024
1
1.00072
0.995577
1
1
1.00085
0.971639
1.01216
0.999546
0.999674
0.99875
1.01308
0.998694
1.02684
0.997316
1
0.993839
1.01288
0.997547
0.987811
0.985047
0.99125
0.996862
0.993582
0.993571
0.988503
0.996811
0.995353
0.995356
0.99551
1.01077
1.02684
1
1.0108
1
1.01187
1.0112
1.01931
1
1.05195
1.0515
1
0.99424
0.994264
0.996089
0.997451
1
0.830952
1.008
1.00918
1.0574
1.03726
1.00744
1.00815
1.00769
1.00557
1.00107
0.96666
0.997141
0.990361
1
0.983497
0.971624
0.964902
0.98602
1
1.01344
1.00552
0.956139
1
1.00649
0.999428
0.981523
1.00641
1
1.01993
1
0.976471
0.985715
0.826583
1.00702
0.987878
0.988404
1.00399
1.01249
0.982806
1.01222
0.993786
0.998139
0.95587
0.966956
1.009
0.980794
1.00867
0.994939
1
1.00858
1.01674
0.977249
0.983956
1
1
1
0.995425
1.02762
1
1
1.02016
0.984952
0.963138
1
0.998658
1
0.994975
0.975356
1
1
1.03423
0.9636
1.01936
0.967156
0.999547
0.999776
1.04941
1.00938
0.997672
1.02556
0.988842
1
0.986765
1.0055
0.99375
0.970763
1
1
0.983312
0.994125
0.993143
0.991624
0.998689
0.999066
1
1.00549
0.993136
0.990826
0.990722
0.961945
0.987447
1.02513
0.976526
0.967302
0.992154
0.961338
0.992396
1.00569
1
1
1
0.971131
0.99096
1
0.99171
0.990802
1.07004
0.878927
0.973099
0.992101
1.01771
0.9883
1.01252
1
1
0.979462
1.01425
1
1
1.02454
0.990413
1
0.990856
0.95689
1.00109
0.992204
1
1.02494
0.992009
1
1.02278
0.992763
1.02112
1.023
1
1.00564
1.02141
0.993057
0.991334
1.01201
1
0.997813
1.01925
1.01589
0.979374
1
1.01127
1.01957
1.01728
1.02861
0.995619
1.04098
1.02912
1.0296
0.97186
1.01765
1.02961
1.01368
1.01025
1
1.01337
0.996846
1.01532
1.00466
0.984477
1.01744
1.01106
0.963695
1.01974
1.01532
1.01562
0.976381
1.00457
1
1.01154
1.01083
1.01448
1.00714
1
1.01319
1
1
1
1.01354
1
1
0.973729
1.00078
1
0.974062
1.01351
0.998979
0.991264
0.999996
1.00107
1.01832
0.998777
1
0.999997
1
1
1
1.00076
1.00278
0.999994
0.999995
1
1
0.999988
0.999907
1.0145
1
0.985484
1
1.00233
1
1.00607
0.972456
1.01146
1.01141
1.01016
1.00979
1.01115
1
1
1.00578
1.0129
1.00696
1.01295
1.01691
0.965434
1.00294
1
1.01305
1
1
1.01306
1
1.01891
1.01838
0.997104
1.0169
1
1
1.01347
1.01351
0.971869
1.01335
1
1.01342
1.00554
1
1.01334
1
0.984872
0.984908
0.968021
1.0111
0.97124
0.984026
1
1.01337
0.987167
0.987457
1.00631
1.00687
0.960961
1.00703
1.00548
0.987215
1.00707
1.00725
1.00384
1.01075
1.01312
1.04757
1.01199
1.00632
1.01283
1.01321
1.00689
1.00383
1.00727
1
0.989188
1.00722
1.01287
1.01187
0.96876
0.999795
1.00706
1.0122
1.01018
1.01255
1.00023
1.01258
0.972837
1
1.01572
0.966098
1.00999
0.998822
1.01228
1.00758
1.00551
1
0.896728
1.01525
1
1
1.02061
1
1
0.98435
0.96852
1
1.0116
1.01119
1.01162
1
0.96462
1.01309
1.00709
1.00687
1.00747
1.01122
1.04171
1.01794
1.01099
0.969613
1.01205
1.01069
1.01002
1.01082
1.00994
1
0.971651
1
1.00066
1
1.02304
1.00122
1.01
1.00673
0.951951
1.00701
0.997502
1.00825
1.00525
1.06097
0.970867
1.01307
1
1.00922
1.00934
1
1.02014
1
1
1
1
1.02159
0.973828
1
1.00317
1.02491
0.964125
1.01476
1.02073
0.964576
1.00834
0.962504
1
1.01799
1.00313
0.972619
1.02184
1.0007
1.00462
1
1
1.01843
1.01946
0.970696
0.969025
1.0115
1
1.02162
1.02216
0.984821
0.98927
1.01184
1.02548
1.03601
1
1.02188
1.01194
1
1.00792
1.0079
0.99378
1.02339
1.00648
1.00731
1
1.0264
1.00731
1.01181
1.01814
1
1.01794
1.02162
1
1.01411
1.00657
0.933207
1.01641
1.02394
1.01798
1.01975
1.01147
1.02171
1
1.00599
0.996191
1.01282
1.00913
1
1.01073
1.01285
1.00035
1.0052
1.01665
1.00007
1.00573
1.00022
1.00568
1
1.0219
1.00911
1.01182
1.01318
0.965151
0.956891
0.987166
0.983467
0.984816
1.02044
0.996308
0.981974
0.990593
1.02238
1.00536
1.02118
1.01236
0.987427
1.01014
1.00275
0.972121
1.02162
1.02136
0.990078
0.988979
0.98892
1.02192
1.00366
0.993724
1.00406
1.00079
1.00419
0.985952
1.00054
1.0133
1.00794
1.01333
1.02767
0.991369
1.00367
0.992176
0.999341
1.02618
0.971821
1.00695
1.02217
0.972239
0.938514
0.963104
1.02089
0.967834
1.00204
1.00157
1.02083
1.01217
1.00272
0.988876
1
1.0014
1.00293
1.01214
1.01498
1.01306
0.991937
1
0.826931
0.97298
0.995384
0.960226
1.01146
1
1.01149
1.00361
1.00214
1
1.02005
0.994584
1.0026
1.01199
0.995386
1.01835
0.9722
0.988478
1.01043
1.01208
1.01135
1.0007
1.00112
1
1.00112
1
0.99026
1.01825
1.00071
0.963913
1.01547
1.00251
1
1.01206
1.01036
0.995743
1.01861
1.00243
1.01046
1.01012
1.05255
0.963396
1
0.998955
1.01977
0.999584
1
1.00965
0.99953
1
1.00981
1.00968
0.908241
1.02716
1.00885
0.998753
0.975354
1
1
1.00895
1.00953
1
1.00927
0.994811
1.00997
1.01068
1.00775
1.01289
0.972708
1
1.00324
1.02601
1
1
1.0122
1.02531
1.008
1.00207
0.997956
0.956922
0.95649
1.01169
0.974665
0.997771
0.997208
1.01226
1.01549
1.00658
0.997182
0.999783
1.00189
1.00013
0.998304
0.848999
0.82748
1.00961
1.022
1.00614
1.02651
0.996829
1.01143
1.02591
0.970334
1
0.996844
0.99453
0.89835
0.973402
1
1
1.01271
1.01276
0.97101
0.999141
1
1
0.998683
0.999623
1.00812
1
1
1.00015
0.994945
0.995052
1.0185
0.997789
1.00076
1.00066
0.994756
1.0226
1.00133
1.00805
0.967713
1.00521
1.01388
1.00704
1.03974
1.00632
0.990892
1.00407
0.980978
1.00383
1.00627
0.985977
0.991731
1.05112
1
1.00141
1.0223
1
0.980037
0.978622
0.981128
0.978229
1.01848
0.996259
1.02206
1
0.980287
1.00483
0.990011
0.969336
0.989266
0.992636
0.963622
1.00152
1.00486
0.972788
1.00952
0.993574
1.02627
0.963806
1
0.985394
0.999592
0.974871
1.0261
0.991032
0.99053
1
1
0.991712
0.985771
1.01978
1
1.02089
0.98551
1
1.0033
0.967629
0.966319
0.969823
0.993514
1.00329
0.98989
1
0.966082
0.971031
1
0.962202
1.01863
0.989813
0.991991
0.997476
1
1
1.01174
0.983751
0.970092
0.965568
0.966201
1.02543
0.973526
1.01282
1
1.00153
1
1
1.00902
0.988548
1.03191
1.00163
1.02149
1.01846
1.00489
0.976757
1.01336
0.976162
1.01513
0.985245
1.01332
0.999999
1.00754
0.972169
0.9832
1.01434
0.976797
1.01275
1.00034
1.02088
0.973291
0.96376
0.966461
0.99998
1.00998
0.977117
0.999994
1.01295
1.0128
1.00028
1
1.01344
1.01283
0.990198
1.00021
0.996043
1.00692
1
1
0.999993
1
1
1.01334
1.01337
0.999999
1.01351
1.01325
1
1.02351
1.01977
1
0.990073
1.00541
1.0124
1
1
1.00077
0.964233
0.978223
1.00467
1.0133
1.01303
0.988703
0.997027
1.01713
1.00025
1
1
1
0.994951
0.998745
1.0127
0.999127
0.995211
0.976924
0.998793
1.00082
0.97281
0.987132
1.01143
1.00289
1.01246
0.992568
1.01274
0.993381
1
1.02091
1.00298
1.00643
1
1
1.0029
1.00374
0.978336
0.987928
1.00462
1.01177
1
0.970792
1
0.991307
1.00446
1.0046
1.00141
0.971412
0.976112
0.990028
1.01144
0.995384
1.01184
0.995151
1
1.00102
0.995968
0.973195
1.0102
1.01839
0.990294
1
1
1.00664
1.01101
1.00175
1.00862
1.02635
0.994627
0.963869
1.01902
1
1.00148
1.01335
1
1.01104
0.983905
0.962367
1.01021
0.967611
0.995462
0.993453
1.00957
0.993126
0.99424
1
0.994047
0.994277
1.00951
0.990577
1
0.994048
0.99434
0.998527
0.996104
1.00868
0.999281
0.993646
1
0.999976
1
0.99334
1.00332
1.00004
1
1.02541
1.003
1.01167
1.00322
1
1
1.00692
1.00653
0.995943
1.00452
1
1.0172
1
0.993097
1.02201
1.00997
0.993721
1.00245
0.984971
1.02191
1.00753
0.907895
1.00807
0.979212
0.992963
1.01286
0.993744
0.984931
0.999998
1.00807
0.987584
1.01162
1
1.0076
1.00708
0.999998
0.997321
0.968692
0.987804
1.00077
1.00801
1.01457
0.990621
0.998738
1.00567
0.999998
1.00602
0.990383
1.00071
1.04611
1.00072
1
1
1.00001
0.986285
1.00117
1.00607
1.00121
1.00559
1.01195
1.00218
1.02074
1.0266
1.0097
1.00388
0.973084
1.00216
0.996982
1.02055
0.999594
1.00122
0.99632
1.00457
1.02407
0.99654
0.996863
1.00368
1.00466
1.00379
0.994812
1.00973
1.0158
1.01256
0.993691
1.00964
1.00232
1.01597
1
1
0.995575
1
1
0.982689
0.972206
0.998995
1.00325
1.00775
1.01975
1.01967
1
0.990138
1.01952
0.976223
1.01721
0.974728
1.00315
1.00238
0.950419
1.00236
0.97143
1.0121
0.965627
0.979647
1.0041
0.969487
1.00093
1.01203
1.00139
1.01991
1.00895
1.00141
1.02218
1
0.995875
1.02167
0.99815
1
1.00101
1.00127
1.00079
0.99734
0.994942
1.01215
0.969458
1
1.01304
1.00715
1.02713
1.00724
1.01222
1.01422
1.00392
0.99909
1.021
0.998909
0.999654
0.98797
0.99297
1.00298
0.999557
1.0029
1.0124
1.00706
1.01516
1.00249
0.99964
1.01505
0.980591
0.999194
0.983259
1
1.01237
0.997202
1.00693
0.979135
0.992086
0.987276
0.989911
0.999276
0.969106
0.996585
0.993368
0.971209
1
1.00356
0.998475
0.980808
1.00083
0.982064
1.0123
1
0.998034
0.997669
1
1.0043
1
1
1.01232
1.01384
0.997225
1.01448
0.978136
1
0.998219
1.00686
1.00168
1.00909
0.997735
0.993717
0.996151
1.00012
0.979152
1.01574
1
0.985045
1.00716
1
1
0.989777
1.00369
0.997025
1.0122
0.995807
1.00531
1.02192
1.00293
1.00914
1.00313
1.00434
1.0064
0.996189
1
0.996592
0.977594
1.02184
1.01228
0.983368
1.00504
1.0042
1.00564
0.996522
0.973205
1.00628
1.01641
1.00862
1.00784
1.00675
1
1.01
1.00514
1.00731
0.993177
1
1.02065
1.01019
0.994746
0.975337
0.956075
1.01254
1
1.01202
1.02649
1.01029
0.970502
0.994944
1.00916
1.00968
1.01022
0.957756
1.01207
1.00831
0.97118
0.993712
0.993689
0.971983
1.01702
0.994048
1.00297
0.993788
1
0.98508
1.00133
0.994422
0.981222
0.992843
1.0111
1.02613
0.971889
0.99492
1.00232
0.994883
0.974049
1.06855
0.971947
1.01089
0.99279
0.9902
1.01209
0.989844
1.01137
1.01225
1.00097
0.994284
1.01049
0.99053
1.01719
0.989738
0.969492
0.973133
1.01233
0.973203
1.01133
1
0.995176
1
0.975526
1.01135
1
1
0.974217
1.01424
1
0.988966
0.999363
1.02625
0.990253
1.02031
0.956546
1
0.982225
0.97478
1.0108
0.972198
0.993979
1.01087
0.994353
0.995226
0.996864
1
0.99858
1.00007
1.01039
1.00551
1.01453
0.985347
0.9827
1.01139
1.01038
1.01156
1
0.98478
0.95707
1.00992
1.01159
1.01388
0.999626
0.984768
1.00995
0.986618
1.01974
1.01163
0.981637
1
0.974664
1.02633
0.983049
0.959368
1.02079
1.00953
1.00225
0.982943
1.0101
0.992814
1.00957
1.01161
0.998904
1.02201
0.993773
0.99358
1.01195
1.01367
1.02197
1.00948
1.00136
1.0079
1.01283
1
1.01202
1.0093
0.998111
0.976136
1.01454
1
1
1.01413
1.01055
1.01523
1.00242
1.01469
1.00915
1.02252
0.98203
0.991977
1.00126
1.01315
0.991337
0.993501
0.99391
1.01704
1.01052
1.01218
1.01
1.02204
1.02079
1.00125
0.976194
1.01609
1
0.992988
0.999325
1.01579
0.99943
0.996058
1.01657
0.976374
1.01355
1.01158
0.992349
1.00231
1.01251
0.993344
1.00037
1
1.00083
1.00096
0.986325
1.00118
1.00708
1.00656
1.01663
0.993181
1.01831
1.01781
1.02167
0.975554
1.00876
1.01814
1.02201
1
0.995031
1.02035
1.01762
1.00221
1.01656
1.00504
1.02206
1.00187
0.997616
0.994895
1.01219
0.994991
1.00112
1.01887
1.00984
0.988482
1.01715
1.01724
0.979758
0.989213
0.994571
1.01218
1.01834
1.00605
0.983126
1.0009
0.995493
1.01892
0.995574
1.00901
1.01969
0.995558
1
0.988152
0.996387
1.00307
1.0586
1.00518
1.0256
1.01894
0.998259
1.00712
1.01227
1.02164
1
1.00114
0.996207
1.01876
1.01266
0.988145
0.997244
0.999696
1.01194
0.988597
1.02179
1.05021
1.02163
0.955666
0.996958
1.01856
1.0186
0.978151
0.999999
1
1.02033
1.01188
1
1
0.998025
0.978047
1.01344
1.02116
0.997631
0.993913
1.01761
0.999162
1.00645
0.976164
1.02173
0.993885
1.01777
0.979109
0.97625
1.00192
0.998817
0.996691
1
1.0007
1
1
1.02664
0.976008
0.982591
1.01114
1.01679
1.02638
0.976336
1
1
1.01719
1.02725
1.03332
1.00243
0.999823
1.03
1.01121
0.996522
0.999481
1
1.02185
1
1.00016
1.00044
1
1.00593
1.01541
1.02193
0.987139
1.01581
1.02034
1.00001
1.01615
1
1.02236
1.00129
1.0146
1.01528
1
1.00408
1.00112
0.998811
1.01532
1.00002
1.00049
1.00571
1
0.970105
1.00199
1
1
1.02147
1
1.02193
1.01323
1
0.982295
1.00175
0.999999
1.01013
0.99584
1
1.01377
0.952254
1
0.972349
1.00575
1.02182
1
1.01
1.01146
1
0.999999
1
1.00054
1.00102
0.98068
1.00292
1.00308
1.00727
1
0.999999
0.971828
1.00984
1.00026
1.00101
1.00268
1
0.981009
1
1.00354
1.00605
0.980611
1
0.965914
0.999997
1
0.997931
0.950254
1.00958
1.02035
1.02271
1.0034
1
0.979497
0.975543
1.00416
0.956037
1.00032
1.011
1.02204
1.00263
0.973357
1.03326
0.980226
1.01196
1.01158
1.00398
0.984172
0.982985
0.997594
1.00599
0.993335
0.983668
1
1
0.967587
1.00039
0.993144
1.009
1.00481
1.01201
1.01205
1
1.00462
1.0267
0.974311
1.00588
1.01225
1.00955
0.985351
0.971841
0.973134
1.01195
1.012
1.00067
1.00548
0.984029
1.01471
1.00097
0.962737
0.989485
1.01234
0.974911
0.964332
1
1.01825
1.01957
1
1.00525
1.00582
1.01229
0.994994
1.02164
1.0224
0.989141
1.00914
1
1.01232
1.0195
1.00669
1.01839
1
1.04735
1.01948
1.00567
1.01573
0.992114
1.00189
1
1.01242
0.99737
1.00637
1
0.948837
1
1.01373
0.985942
1.05211
1.00645
0.985996
1.01064
1.00711
1.01651
0.973114
1.01514
1.01214
1.01234
0.989126
1.00614
1.00688
1.00974
1.01676
1.00501
0.971525
1
1.01031
1.02175
1.02554
0.978447
1.0074
1.0081
1.01135
0.991959
0.992823
1.0298
0.991636
1.00532
0.991018
0.983207
0.975752
1.01219
0.988871
0.980118
1
1.01407
1.00785
1.02065
1
1
1.0071
0.980605
1.00246
1.01438
0.993014
1
1.00869
1.01194
1.00161
1.00802
1.01306
1
1.026
1.01011
1.00852
1.01142
1.01307
1.00125
1.02064
1
0.975528
1.00783
0.978933
1.01185
1.01098
0.989457
0.989709
0.989575
1.03839
1.01145
0.990035
1.00271
1.01594
0.999786
1.00857
0.999808
1
1.0094
1.0008
1.01477
0.996856
0.975244
1.01688
1.01053
1.00245
0.976799
0.999297
1.00294
1.01251
1.00004
1.01091
0.987465
0.984435
0.99511
1.0092
1
1.01101
1.00837
1.01017
0.987707
0.978509
1
1.01905
1.00259
1.03276
1.01943
1.01117
0.972384
1.00197
1.01502
0.976486
1.0106
1.00977
0.992826
1.01277
1.01703
0.991894
1.00933
1.00858
1
0.998533
1.00378
1.01024
1.00947
1.00972
1.00101
1.02099
1.01045
1.01916
0.99823
0.991985
1.00999
1
1.00903
1.00981
1.00339
1.00972
1
1.01028
0.976569
1.02112
1.03415
1.00935
1.01172
1.00453
1
1.02114
0.977526
1
1.00908
1.01089
1.01473
1
1
1.00414
1.00967
1
1.01069
1
1.01732
1.00981
0.97445
1
1.01198
1
1.01866
1.00561
1.02411
0.992274
1.01149
1.01515
1.01875
1
1
1
1.00585
1.01129
0.977774
1.01747
0.996463
1.01873
1.01087
1.00165
0.992365
1.01135
1.02407
1
1.01117
1.00077
0.992809
1
1.00542
1.01175
1
1.01859
0.983486
0.985718
0.983708
1.01214
1.0271
1.01783
1.01065
1.0054
0.978727
1.01886
0.894581
0.97834
0.998003
0.994652
1.00654
1
1.03325
1.01198
0.97867
1.01737
1.01822
1.00066
0.996392
0.978045
0.97232
1
1.01808
1.01159
1.00352
1.00629
1.00807
1
1.00068
1.01595
0.999388
1.01246
1.01764
0.999999
1
1.0114
1.01535
1.00319
1
1.00204
1
1
1.00099
1.0123
1
1.01647
1.01587
1.00298
1
0.974371
0.999555
1.01211
1.01398
1
1.01554
1.00129
0.979555
1.0052
1.01429
1.01772
1.00781
1
1.01293
1.00471
1.00261
1
1.02893
1.01276
0.987996
1.01425
1.01466
1.00754
1.01193
1.01278
1
1.00527
1.00445
1.02909
1.00075
1.0131
1.01181
0.97249
1.00127
1
0.976873
1
1.01263
0.99665
1
1
1.00035
0.994746
1.00306
1.00054
0.955478
1
1
0.979412
0.997591
1.00913
0.996732
1.01963
0.995254
1.01246
1.00477
1.01359
1
1.00886
1.02076
1.0135
1.00009
1.02466
1.00097
1
1.01319
0.984059
1
1.04743
1.00988
1.00342
1.00032
1.02092
0.996769
1
1.00639
1.00702
1
1.01305
1.02078
1.02095
1.00013
1.00959
0.978438
1.00635
1
1.0013
1.00197
1.04579
1.01419
1.00483
1
0.978465
1.00472
1.01393
0.978066
1
1
0.978648
1.01025
1
1.02842
1.00672
1.01071
1.00547
1.01363
0.956075
1.01387
0.982795
0.987338
0.995784
0.991753
0.992122
1.00531
1.0105
0.996092
0.978636
0.978074
1.02394
1.00291
1.01351
0.986053
1
1.02128
0.975706
1
1.01433
1.00203
1.00238
1
1.01144
1.01429
1.00007
0.978274
1.0018
1.01919
1.01407
1.00154
1.02566
0.950269
1.01126
1.00032
0.999174
0.979782
1.00259
1.00217
0.957413
0.956566
1.00501
0.957097
1.01397
1.01093
1
0.999526
1
1.00377
0.97255
1.01966
1.01828
1
1.01023
1.00244
0.977497
1.00042
1.01225
1.00021
0.957267
1
1.00845
0.977073
1.01547
1.00687
1.00084
1.01438
1.00108
1
1.01577
1.01761
0.998144
1.01202
1.00464
1.01004
1.0023
1.01442
0.98155
1.01848
1.00226
1.02046
1.00047
1.01352
0.976691
1
1
0.957131
1
1.0019
0.981917
1.00112
0.996295
0.994567
0.982674
0.988481
1
1.01041
1
1
1.00243
1.01298
0.995396
1.01546
0.97904
1.00165
1.00235
1.03225
0.980224
1.00202
0.9999
1
0.9766
1.01277
0.988594
0.994328
0.999661
0.994695
1.00102
0.993994
1
1.00086
0.997304
0.998589
1.01442
1.00377
0.979708
0.996359
0.976509
1
1.02253
1.00152
0.99844
1.01451
0.980136
1
1
0.989346
1
1
1.0012
1.00715
0.971851
0.978563
0.999164
1.00343
0.998572
1.01364
1
1
1.00091
0.974632
0.994701
0.993829
1.0047
1
0.994947
0.956433
0.99591
0.979179
0.975255
0.953029
1
1.00617
1.00132
0.997433
1.0134
0.992341
1
1
1.02575
0.9944
1.0125
0.997268
1.00107
1.00508
0.993382
1.05478
1
0.99716
0.993221
1.01264
1
0.99532
0.975431
1.00864
1.01613
0.992478
0.999388
1.00006
0.98632
0.967152
1.00424
1.01117
1
1.00663
0.994742
1.01486
0.993535
0.993114
0.999881
0.958136
0.996941
1.00476
0.991356
0.972767
0.999391
1.01366
1.00474
1
1.00223
1
1.01489
1.00128
0.958605
1.01379
0.994074
1.01429
0.992497
1
1.01069
0.9843
1.01655
0.985545
0.973763
0.999178
0.991376
1.00534
1.03605
1.00893
1.01414
0.994031
0.995065
0.961687
0.980949
1
1.00504
0.978876
0.981801
0.988353
0.979255
0.999999
0.960147
1.0049
0.98008
1.01499
1.00198
0.970084
1
1.01238
0.997854
1.00713
0.999717
0.980874
0.975089
0.98017
1.01576
1.00017
1.01508
0.976811
1.00208
1.00977
0.983011
0.970098
1.02611
0.969102
0.997802
0.999998
0.999563
1.02583
0.97386
0.992116
1.0123
1.0067
0.997529
1
0.998248
1
0.982191
1.00603
1.00182
1.00465
1.01375
0.958374
1
1.00327
1.03643
0.996742
0.999999
0.999649
1.01304
1.00057
1.00674
1.01112
1.00086
0.977614
1.01101
1
1.02137
0.969715
1.01506
0.975396
1.00831
0.996961
0.996885
1.01756
0.956215
1.01512
0.979555
0.999995
1.00698
1.01379
1.00299
1.00079
0.981491
1.01513
1.00434
1.02675
0.969431
1.0267
1.01496
0.999812
0.972825
1.04969
0.998815
1.00796
1.0134
0.999995
1.00976
1.03549
1.01431
0.993461
0.968698
1.00405
0.971921
0.998749
1.01807
1.00033
1
0.985686
0.983823
1.00767
1.01485
1.01253
0.986314
0.976929
1.00961
0.996754
1.01448
0.980713
0.979102
1.01394
1.00192
0.971825
0.968904
0.96166
0.998527
1.0062
1.00597
1.01481
0.977451
1.00246
1.00828
1.00038
1.00378
1.00394
1.00313
0.959779
1.02116
1.00632
1.01455
1.01806
0.998406
0.982554
1.01616
0.98057
1.03204
1.006
1.00509
0.981218
0.983651
1.01847
1.0104
1.0018
1.00514
0.99796
0.995633
0.995227
0.997071
1.01592
0.977815
1.0078
1.00689
1.00463
1.00832
1.00605
1.00887
1.01582
0.982625
1.00574
1.00438
1.01421
0.983293
0.994177
0.999014
1.01579
0.994497
1.01053
0.953353
0.995863
0.998042
1.01415
0.996489
1.00972
1
1.01126
0.995184
0.980595
0.978327
0.996957
1.01334
0.978572
0.982427
0.997918
1.00089
0.986678
1.00065
1.01185
0.994757
0.994524
1
1.02143
0.983831
1.03637
1.01733
0.990301
0.99802
1.01237
1.02821
1.0134
0.98751
1.01131
1.00755
1.01305
1.00662
1.00806
0.979245
1.00577
1
1.00548
1.00863
0.997234
1
1.00992
0.990336
1.00879
1.00951
1.00077
1.00571
0.962191
1.00037
1.01293
1
1.01425
1.01616
1.01321
1.01031
0.980962
1.00589
0.987237
1.00034
0.994547
0.986074
0.990509
0.973321
0.975804
1.0004
1.00243
1.01103
0.988148
0.995043
0.978799
1.00617
0.989673
0.995848
1.00858
1.01169
1
0.982875
0.995989
1.00058
1.01658
1.01343
0.980906
1.00353
0.990121
1.01638
1.0122
0.994965
1.00976
1
0.998814
0.993464
0.980617
0.957197
0.989825
1
1.00133
1.00153
1.00776
1.0013
1.00692
0.997366
1.0164
1.00202
1.01275
0.991386
1.02992
0.994925
0.973549
1.00416
1.00039
1
1.00952
1.01385
0.995787
1.02907
0.996326
1.02154
1
0.991586
0.999186
1.01096
1
0.971973
1.00348
1.00435
1.00588
0.990303
0.978827
1.00544
1.01329
1.00319
1.00415
1
0.980637
0.996329
1.00087
1.02358
1.02169
1
0.994473
0.994768
1.01672
1.0169
1.00335
1.01679
0.995209
1.01681
1
1.02622
0.990845
0.97187
0.993022
1.02117
0.978429
0.993961
0.993646
1.01372
1
0.996105
1.00627
1
1.00344
0.978692
1.00511
0.995254
1
1.00419
1.00265
0.978628
0.990335
1.03141
0.998494
1.00903
0.988388
0.997583
0.99531
0.994438
0.972181
0.991595
1
1.00097
1.04043
1.00202
1.01416
0.995196
0.994982
0.974095
0.981037
1.01704
0.993584
1.01718
1.00565
1.01269
1.01807
0.994537
0.994329
0.995253
1
0.97897
1.02188
1.00946
1.00455
0.988751
0.996159
1.01235
0.995584
1.01487
0.997568
1.03529
1
0.990389
0.995762
0.995276
0.994419
1.01674
1.01595
1
1.00596
0.995974
1.02107
0.999998
0.976962
1
1.01467
0.979159
0.995214
1.01108
1
1.0289
0.978774
0.995226
1.00551
1
1
1.01499
0.992962
1.00032
1.00456
1.00892
1.01445
1.01276
1.01627
1.00921
0.997736
0.950333
0.995933
1.01179
1.01445
1.02027
1
0.97411
0.975833
0.991083
1.01485
0.994146
1.02904
0.989297
1
1.00967
0.990932
0.983991
0.973993
0.970587
1.02471
1.0132
1.01504
1.03322
0.987525
1.02911
0.994002
1.00966
1.00233
1
0.983428
0.993365
1.01691
1.01722
0.995128
0.996523
0.994158
1.00115
1.00034
1.0241
0.97954
1.00882
0.970239
0.983339
1.01497
1.02795
1.02913
1.00326
1.00253
0.994627
1
1.03609
1.00005
1.01306
1.00408
1
1.0076
1.01243
0.990032
1.01877
1.00531
1.02149
0.980226
1.01479
1
1.00095
0.995317
0.974702
1.01056
1.01501
1.00793
0.974097
1
0.972809
1.00501
1
1.01616
1.01555
1.03741
1.03405
1.01973
1.01584
1.00632
0.980393
1.0009
1.00011
1.0161
0.980715
1.01367
1.00196
0.980397
1.02511
0.995965
1.00085
1.00533
1.00583
1
1.00753
1.01535
0.977349
1.00301
1.00607
1.00989
0.981785
0.973228
0.993465
0.968939
1.05534
1.00534
1.0141
1
1.01972
1.02964
1.00387
1.01501
0.994932
0.991073
1.01182
0.983029
1.02133
1.01358
0.995604
1.02807
0.983831
0.973351
0.991554
1.01082
1.00875
1.00509
1.00004
1.00332
1
0.994143
1.00464
1
1.00357
0.978496
1.00607
0.988519
1
1.00707
1.00054
0.99413
0.978777
0.970094
0.991594
1.01427
0.994935
1.00686
1.00734
1.01777
1.01443
1.00152
1.01319
1.00406
1.0095
1.03769
1.01019
0.966824
1.01327
1.00731
1.0289
0.98135
1.00476
1.01613
1.00057
1
1.00706
0.94937
0.987697
1.01625
1.01038
1.01542
1.01368
1.00313
0.977173
1.00855
1
0.992678
1.00849
1.0023
0.999854
1.01434
1.01203
1.00791
0.990657
1.00472
0.994563
1.01614
1.01332
1.00373
1
0.975996
1.01699
1.01437
1.01443
1.0212
0.995502
1.01114
1.0069
1.00929
1.012
1.01396
1.00776
1.00969
0.980389
0.977051
0.992798
0.963866
1.00803
0.979557
1.01345
1.00344
0.993369
1.01263
1.00989
1.01442
1.01009
1.01185
1.01932
1.00429
0.990544
1.00452
0.991304
1.01393
0.974216
0.980745
1.04759
1.01191
1.01495
1.01773
0.976554
1
0.996657
1.01385
1.01859
1.01287
0.993372
1.01584
1.01086
1.01224
0.991618
1.00221
0.990821
0.999999
1.00411
1.01197
0.990755
1.01263
1
1
1.00896
0.998407
1.01367
1.01589
1.01437
0.998233
1.00489
0.996365
1.014
0.981535
1.00979
1.00707
1.0041
1.01158
0.996093
1.00317
1
0.970118
0.976071
1.00439
1.02112
1.0144
1.00121
0.982025
1.00004
1
0.977847
1.01329
0.99407
1.00454
0.991965
0.99922
0.978697
1.01053
1.00718
1.01394
0.998054
0.981567
1.00533
0.996798
1.0124
1.0366
1.00509
1
0.983805
1.00704
0.95306
1.01351
0.996783
0.994006
1.00106
0.9815
1.00383
0.974896
0.979592
0.995399
1.02151
1.00211
1.00142
1.01357
1.0009
1.01018
1.01955
1.0368
1
1.00273
0.999988
1.01941
1.01423
1.02085
1.01157
1.00503
1.01404
1.00488
1.01367
0.992557
1.00081
0.996575
1
1
0.993132
0.985094
1.01313
1
0.979934
0.999433
0.986807
1.00587
1
1.00079
1.01449
0.995507
1.00093
1.01357
1.00433
1.03596
1.00572
0.977091
1.01189
1.00981
1.02121
1.01251
1.01296
0.996534
0.992509
1.0057
1.0011
1.0132
0.998304
0.992139
1.01384
1.01092
0.997661
0.976863
0.998158
1.01344
1
1.00655
1.00073
0.995567
1.01492
1
1.00826
1.0085
0.994722
1.01145
0.997699
1.00015
1.01371
1.01955
0.997948
0.997902
0.990464
1.00927
1.01005
1.01256
1.01693
1.0133
1
1.01024
1.01692
1.0064
0.993194
1.00118
0.981488
1
1.01368
1
1.01077