/*--------------------------------*- C++ -*----------------------------------*\
  =========                 |
  \\      /  F ield         | OpenFOAM: The Open Source CFD Toolbox
   \\    /   O peration     | Website:  https://openfoam.org
    \\  /    A nd           | Version:  12
     \\/     M anipulation  |
\*---------------------------------------------------------------------------*/
FoamFile
{
    format      ascii;
    class       volVectorField;
    location    "6.95";
    object      U;
}
// * * * * * * * * * * * * * * * * * * * * * * * * * * * * * * * * * * * * * //

dimensions      [0 1 -1 0 0 0 0];

internalField   nonuniform List<vector> 
46253
(
(0.963716 -0.000377429 0)
(0.897543 -0.0019567 0)
(0.814268 0.00204301 0)
(0.895495 -0.00143563 0)
(0.81834 0.00281082 0)
(0.827231 0.0011254 0)
(0.992017 0.00123117 0)
(0.974204 0.00687013 0)
(0.90442 -0.00153027 0)
(0.90152 -0.00126386 0)
(0.962835 -0.000561229 0)
(1.11535 -0.0732793 0)
(0.914808 -0.000287222 0)
(0.914789 -0.000243389 0)
(1.5674 0.0486556 0)
(0.905035 -0.00132167 0)
(0.901321 -0.000881098 0)
(0.910177 -0.00153998 0)
(0.911825 -0.00229898 0)
(0.904785 -0.000511393 0)
(0.904153 -0.000329341 0)
(0.810535 0.00338004 0)
(1.59026 0.00167547 0)
(0.969003 0.000257895 0)
(0.987373 0.00113793 0)
(0.899287 -0.0004283 0)
(0.903712 -0.000491893 0)
(0.901831 -0.000176906 0)
(0.901064 -0.00131792 0)
(0.976442 0.00245593 0)
(0.952514 0.0434138 0)
(0.91919 0.000622031 0)
(0.92046 0.000641058 0)
(0.907881 -0.00154199 0)
(0.907354 -0.00125934 0)
(0.954505 0.0501471 0)
(0.912205 0.000956754 0)
(0.911809 0.0011981 0)
(0.917591 0.0160538 0)
(1.15899 -0.0265802 0)
(0.991883 0.0104739 0)
(1.11834 -0.0698152 0)
(0.920568 -0.00141818 0)
(0.918523 -0.00109806 0)
(1.19124 -0.100755 0)
(0.912644 -0.00078563 0)
(0.910329 0.00029704 0)
(1.48649 0.0189551 0)
(0.9256 -0.00111356 0)
(0.925804 -0.00140499 0)
(0.927271 -0.00134871 0)
(0.929127 -0.00022973 0)
(0.829306 0.00123297 0)
(0.974117 -0.00993037 0)
(0.774916 0.0103663 0)
(1.09628 -0.0383468 0)
(0.931292 0.00108722 0)
(0.930471 0.0011897 0)
(0.890914 0.0651156 0)
(0.964771 0.00320943 0)
(0.958816 0.0192032 0)
(0.902402 0.00179703 0)
(1.30928 0.0139974 0)
(1.2667 0.0264589 0)
(1.60294 -0.101349 0)
(0.918463 -0.00181759 0)
(0.917719 -0.00168168 0)
(0.82898 0.000974025 0)
(1.09324 -0.0372434 0)
(1.1714 -0.101472 0)
(0.994068 0.00081627 0)
(0.931422 0.000347114 0)
(0.93175 -0.000318319 0)
(1.082 0.0234814 0)
(0.822987 0.00219696 0)
(0.969219 0.000163091 0)
(0.944177 -0.000285706 0)
(0.945211 -0.000549659 0)
(1.61978 -0.122992 0)
(0.922 -5.13265e-06 0)
(0.922203 -0.000369059 0)
(0.937638 -0.00124761 0)
(0.8202 0.00409463 0)
(0.940961 -0.000803169 0)
(0.988913 0.00376406 0)
(0.829644 0.00200016 0)
(0.963818 4.51596e-05 0)
(0.96567 0.000643179 0)
(0.944446 -0.00514134 0)
(0.829442 0.0170479 0)
(1.45978 -0.0723838 0)
(0.99822 0.00944169 0)
(0.842191 0.000580667 0)
(0.931098 0.000143968 0)
(1.29363 -0.0459532 0)
(0.92975 0.00119337 0)
(0.83613 0.00143271 0)
(1.67729 -0.097671 0)
(0.888244 0.0653882 0)
(0.951206 0.0316721 0)
(1.26483 -0.0672247 0)
(0.843139 0.0014024 0)
(0.844017 0.0013011 0)
(0.952448 0.041762 0)
(0.79131 0.00603551 0)
(0.987395 0.00418312 0)
(1.12371 -0.0658473 0)
(0.962553 -0.000472912 0)
(0.966482 -0.00138508 0)
(1.11432 -0.0599525 0)
(0.860017 0.0200273 0)
(0.933203 -0.000683843 0)
(0.934063 -0.00153002 0)
(1.65417 0.0456994 0)
(1.56429 -0.0127307 0)
(0.919569 -0.00877153 0)
(1.12661 -0.0886076 0)
(0.961528 0.00186898 0)
(0.789958 0.0661986 0)
(1.06866 -0.0330828 0)
(1.4596 0.117595 0)
(0.828288 0.00101992 0)
(0.944041 -0.00045346 0)
(0.943165 0.000258772 0)
(0.865548 0.00104287 0)
(0.779157 0.062759 0)
(0.900871 0.0273193 0)
(1.10678 -0.0467457 0)
(0.779826 0.00953231 0)
(0.949402 -0.000475828 0)
(0.982194 -0.000123717 0)
(0.993881 -0.00102339 0)
(0.816713 0.00272391 0)
(0.986917 0.000809754 0)
(0.951556 -0.000204777 0)
(1.16061 0.02643 0)
(0.953289 0.00040012 0)
(0.95227 7.28269e-05 0)
(1.0704 -0.0344583 0)
(1.30928 -0.0038883 0)
(0.943237 0.000385645 0)
(0.988187 -0.00209775 0)
(0.98789 -0.00139774 0)
(0.958658 0.0403988 0)
(0.943626 0.000951463 0)
(0.784487 0.00873395 0)
(0.958323 -0.00010498 0)
(0.960561 -0.000573628 0)
(0.896098 0.0174237 0)
(0.818539 0.0194637 0)
(1.1153 -0.058257 0)
(0.846938 0.000787928 0)
(0.952474 0.0003737 0)
(0.953582 0.000817334 0)
(0.983507 0.02921 0)
(1.13502 -0.0876645 0)
(1.10894 -0.0473437 0)
(1.48836 -0.101281 0)
(0.959151 0.000122249 0)
(0.77905 0.00844394 0)
(0.958002 0.000288898 0)
(1.1287 -0.0665633 0)
(1.09744 -0.0401481 0)
(1.25004 0.0537363 0)
(0.98872 0.0010607 0)
(0.953786 -0.000163852 0)
(0.986634 0.000795335 0)
(0.954438 -0.00023431 0)
(0.722291 0.0433071 0)
(1.11809 0.00991156 0)
(0.976942 -0.000403827 0)
(0.98105 -0.00107183 0)
(0.816197 0.00528911 0)
(0.983534 0.0112749 0)
(0.797346 0.00497687 0)
(1.10931 -0.103943 0)
(1.12975 0.0456758 0)
(0.801121 0.00396009 0)
(1.07415 0.0365749 0)
(1.12229 -0.0896561 0)
(0.806516 0.00333377 0)
(0.983402 0.0281136 0)
(0.971161 -0.00145163 0)
(0.963826 -9.27644e-05 0)
(0.82623 0.00204413 0)
(0.96502 0.00105718 0)
(0.963082 0.00160981 0)
(1.20041 -0.0970669 0)
(0.82861 0.00310371 0)
(0.828506 0.00231588 0)
(0.831926 0.00146717 0)
(0.851675 0.0027019 0)
(0.940432 0.00483188 0)
(0.857353 0.00442856 0)
(0.859465 0.00857426 0)
(0.875372 0.00627031 0)
(0.855806 0.0184247 0)
(0.844336 0.00245426 0)
(1.03082 -0.00173164 0)
(1.02375 -0.00143715 0)
(1.5989 -0.0696552 0)
(0.934723 -0.00383437 0)
(0.96017 -0.000935044 0)
(0.965044 -0.000653241 0)
(0.812954 0.0327452 0)
(1.11925 -0.0903466 0)
(0.983719 0.0268117 0)
(0.995099 -0.00155878 0)
(0.995947 -0.00200061 0)
(1.2404 -0.0016208 0)
(1.66844 -0.160684 0)
(0.793271 0.0710697 0)
(0.985276 0.0106144 0)
(0.832465 0.00201426 0)
(1.12805 0.0545774 0)
(0.835026 0.00227653 0)
(0.964257 0.0395034 0)
(0.985415 0.00836762 0)
(0.977658 0.000327983 0)
(0.828824 0.00144938 0)
(0.830257 0.00207294 0)
(0.976798 0.000495848 0)
(1.11057 -0.0983958 0)
(0.982987 0.000561032 0)
(0.981368 0.000728577 0)
(0.987 0.00983015 0)
(0.811602 0.00145288 0)
(0.811591 0.000749948 0)
(1.04478 -0.00131286 0)
(1.04549 -0.00104334 0)
(0.914642 0.0560494 0)
(1.15417 0.120121 0)
(0.826199 0.00996452 0)
(0.796808 0.00996986 0)
(0.865576 0.000130311 0)
(1.34975 -0.0463852 0)
(0.845277 1.40549e-05 0)
(1.49832 -0.14164 0)
(0.912443 0.0562424 0)
(0.912371 0.0604306 0)
(0.848535 0.00025615 0)
(0.832056 0.00150436 0)
(0.842733 0.00106118 0)
(0.844628 -4.17374e-05 0)
(1.17409 -0.0266927 0)
(0.828533 0.00338649 0)
(1.49987 -0.100606 0)
(0.980723 0.0261233 0)
(0.852153 0.00290812 0)
(1.00218 -0.00277721 0)
(0.995978 -0.0028408 0)
(0.913322 0.0600028 0)
(1.063 -0.00141656 0)
(0.836745 0.00200682 0)
(1.06435 -0.000980628 0)
(0.980529 0.000708694 0)
(0.990436 -2.53896e-05 0)
(1.08298 -0.0286494 0)
(0.977359 0.0120244 0)
(0.874171 0.00211067 0)
(0.983504 -0.00047014 0)
(1.01446 0.0126041 0)
(1.11242 -0.0626274 0)
(0.955924 0.0413479 0)
(0.870567 -0.00750209 0)
(1.38002 0.0211336 0)
(1.5829 0.024215 0)
(1.53936 0.0224762 0)
(0.989714 -0.000472802 0)
(1.00885 -0.000540873 0)
(0.979846 -0.000343615 0)
(0.830939 0.0031247 0)
(0.975245 -0.0308564 0)
(-0.560315 0.0789313 0)
(1.01144 -0.000716461 0)
(0.840584 0.000484366 0)
(0.775749 0.0116057 0)
(1.31063 0.0193487 0)
(0.968299 -0.0130888 0)
(1.0715 -0.019631 0)
(1.07834 -0.00183332 0)
(1.07893 -0.00108115 0)
(0.841535 0.00120598 0)
(0.845104 0.002058 0)
(1.67495 -0.100898 0)
(0.952607 0.00102936 0)
(0.991063 0.00325987 0)
(1.07468 -0.0329218 0)
(0.969361 0.0365321 0)
(0.862457 -0.00308313 0)
(0.892402 0.0646963 0)
(0.888156 0.0639519 0)
(0.996773 0.00922253 0)
(1.47801 0.0257926 0)
(0.891552 0.062322 0)
(0.934035 0.0496124 0)
(0.804729 0.000668589 0)
(0.933344 0.0502576 0)
(0.987465 0.0110657 0)
(1.00165 -0.00133519 0)
(0.800508 0.0727554 0)
(0.998775 -0.000725844 0)
(1.103 -0.0457337 0)
(0.773168 0.055201 0)
(0.857558 -0.00214611 0)
(1.00235 0.000855391 0)
(1.00385 0.000333456 0)
(1.20859 0.0350673 0)
(0.955575 0.0423648 0)
(0.829345 0.00466908 0)
(0.827799 0.00256202 0)
(1.06178 0.012621 0)
(1.08094 -0.12774 0)
(1.0175 0.000542337 0)
(0.836314 0.00145416 0)
(1.02205 -0.000493495 0)
(1.07665 -0.0341561 0)
(0.890847 0.0612656 0)
(0.812267 -0.0062314 0)
(0.969895 -0.00931283 0)
(1.0969 -0.0474074 0)
(0.850934 0.00271501 0)
(0.989294 0.000830504 0)
(0.987241 0.000980984 0)
(0.847685 0.0284666 0)
(0.970057 0.0352445 0)
(0.83807 0.00180126 0)
(0.875628 3.81817e-05 0)
(1.01257 -0.00294302 0)
(1.00677 -0.00206914 0)
(1.1057 4.87665e-05 0)
(1.10664 0.000439408 0)
(0.857859 -0.00292251 0)
(1.16493 -0.023163 0)
(0.855638 -7.63122e-05 0)
(0.947912 0.00913258 0)
(1.08645 -0.0302596 0)
(0.992242 -0.00064499 0)
(0.999823 -0.000377207 0)
(1.42331 -0.0861428 0)
(0.840228 0.00176476 0)
(0.845525 0.000501766 0)
(1.69317 0.0760682 0)
(0.76063 0.0401286 0)
(0.822465 0.000609259 0)
(1.02404 0.00152622 0)
(1.03426 -1.38545e-05 0)
(1.15187 -0.136485 0)
(1.08377 -0.0359681 0)
(0.796572 0.00236343 0)
(0.843982 0.00825127 0)
(0.87139 0.025655 0)
(1.11822 -0.0902689 0)
(1.07569 0.0834756 0)
(1.12726 -0.0664823 0)
(0.832887 0.00232505 0)
(1.01289 4.78858e-05 0)
(0.985562 0.0462332 0)
(1.00843 -0.000522089 0)
(0.838203 0.0115647 0)
(1.12585 -0.0657475 0)
(0.868399 0.000581076 0)
(0.826239 0.00372232 0)
(0.867067 -0.000649463 0)
(0.837792 0.00505701 0)
(0.817844 0.00448771 0)
(0.817182 0.00445053 0)
(0.816317 0.00408918 0)
(1.03134 -0.00443454 0)
(0.8193 0.00182917 0)
(0.841146 0.00358955 0)
(0.841784 0.00360062 0)
(0.840578 0.00294589 0)
(1.01834 -0.00317777 0)
(0.822113 0.00428793 0)
(0.899472 0.0616541 0)
(1.07124 -0.0338968 0)
(0.841977 0.000866579 0)
(0.814525 0.00186261 0)
(1.15702 -0.00320733 0)
(0.984991 0.00788626 0)
(1.07228 0.0044632 0)
(1.10371 -0.0489029 0)
(1.00045 -0.00135464 0)
(0.99237 -0.00881794 0)
(1.00623 -0.000464141 0)
(0.819378 0.00098918 0)
(1.70215 0.179359 0)
(1.02039 0.00332757 0)
(0.76836 0.0650612 0)
(0.826608 0.00278077 0)
(0.969874 0.0374166 0)
(1.03266 0.00158658 0)
(0.978509 0.000751892 0)
(0.802091 0.000256088 0)
(0.976093 0.00376137 0)
(0.991229 0.0221808 0)
(0.984554 0.0264786 0)
(0.853453 0.000529171 0)
(1.02499 -0.0132125 0)
(1.34441 -0.0122209 0)
(0.958782 -0.000959708 0)
(0.959093 -0.0006643 0)
(0.903124 0.0607172 0)
(0.856533 0.00220677 0)
(0.839892 0.0310295 0)
(0.856481 0.000671307 0)
(0.764658 0.0188123 0)
(1.67933 0.105716 0)
(0.842043 0.000496031 0)
(0.885837 -0.000766949 0)
(0.86314 0.00503433 0)
(0.807476 0.0688206 0)
(0.826587 0.00115717 0)
(1.02034 -0.0133645 0)
(0.842712 0.0264385 0)
(0.926604 0.00457166 0)
(0.854473 0.00145196 0)
(0.889314 0.000126989 0)
(1.07672 -0.0268567 0)
(0.842775 0.0272597 0)
(1.44789 -0.0862621 0)
(1.05406 -0.0043767 0)
(0.887543 0.00164599 0)
(1.02513 0.000517641 0)
(0.88087 0.00235369 0)
(1.3848 0.0224237 0)
(1.04808 -0.00416419 0)
(1.02227 8.76112e-05 0)
(0.863812 0.00295131 0)
(1.10911 0.0340992 0)
(1.28953 0.000652187 0)
(1.40834 -0.00147356 0)
(0.874744 0.0103168 0)
(0.886037 0.00955612 0)
(1.04558 -0.0204573 0)
(0.956183 -0.0110983 0)
(0.824687 0.00500035 0)
(0.847319 0.00116628 0)
(0.974034 -0.0095908 0)
(1.09567 -0.0483655 0)
(0.839295 0.0264622 0)
(0.962983 -0.00435268 0)
(0.863591 0.00374215 0)
(1.04129 -0.0187137 0)
(0.979754 0.0296887 0)
(0.84364 0.00192514 0)
(0.844579 0.00102304 0)
(1.08707 -0.0326585 0)
(1.49363 -0.121742 0)
(1.07127 -0.0190003 0)
(1.02242 -0.0124111 0)
(1.04233 -0.268078 0)
(0.914762 0.0135125 0)
(-0.0324987 0.235947 0)
(0.845987 0.0322534 0)
(0.960306 0.0147679 0)
(0.844469 0.0302868 0)
(1.00672 -0.00325198 0)
(1.0342 -0.0194317 0)
(0.818933 0.00354955 0)
(1.04055 -0.0206454 0)
(1.03984 -0.0192726 0)
(1.00985 -0.00186065 0)
(0.822556 0.00188845 0)
(1.04552 -0.0204195 0)
(0.809648 0.00253233 0)
(0.838973 0.00505133 0)
(0.841884 0.0272872 0)
(0.841253 0.00264889 0)
(0.835083 0.00590063 0)
(0.888335 -0.00640689 0)
(1.03384 -0.106842 0)
(0.960763 0.00891097 0)
(1.10449 -0.0446214 0)
(1.04484 0.000621566 0)
(1.05508 -0.0242488 0)
(0.981164 0.0249431 0)
(1.0562 -0.000841867 0)
(0.888175 -0.00693299 0)
(0.959117 -0.000479253 0)
(0.958999 -0.00054313 0)
(0.939255 -0.0456378 0)
(0.820733 0.00309131 0)
(0.814111 0.00151404 0)
(0.904631 0.0339037 0)
(0.780065 0.00671184 0)
(1.49347 -0.0705695 0)
(1.06521 -0.0183221 0)
(0.986581 0.00879838 0)
(1.12538 -0.0814272 0)
(1.06525 -0.0173626 0)
(1.04068 -0.0214772 0)
(0.959387 0.00252597 0)
(1.03813 -0.0199776 0)
(0.0829602 -0.0646978 0)
(0.831334 0.00200666 0)
(1.04012 0.00132957 0)
(1.02544 -0.0140049 0)
(1.11133 -0.0621126 0)
(1.04031 0.000759351 0)
(1.05748 -0.00350801 0)
(1.04898 -0.00276558 0)
(0.965307 0.000193094 0)
(0.979244 0.0107704 0)
(0.823661 0.00375384 0)
(0.965531 0.000164548 0)
(0.952594 0.0419707 0)
(0.769471 0.0102558 0)
(1.63692 -0.0645986 0)
(0.813449 0.00287743 0)
(1.00351 0.013173 0)
(0.84184 0.0257155 0)
(1.00126 -0.00702443 0)
(0.918263 0.0158861 0)
(0.812644 -0.00626157 0)
(0.831676 0.00577349 0)
(1.04038 -0.0170249 0)
(0.853956 0.00311906 0)
(1.1965 -0.010909 0)
(0.933913 0.027602 0)
(0.752028 -0.0441623 0)
(1.02431 -0.0116822 0)
(0.866526 0.00275868 0)
(0.874985 0.00236798 0)
(1.02459 -0.0127903 0)
(0.820007 0.0024852 0)
(1.01993 -0.0121515 0)
(1.01624 -0.0114377 0)
(1.02016 -0.0129785 0)
(1.14392 0.028407 0)
(1.12231 0.0163068 0)
(1.12845 0.0206507 0)
(1.50588 -0.140158 0)
(1.03507 -0.0206397 0)
(1.03622 -0.0117911 0)
(0.839577 0.00307828 0)
(0.871825 -0.0412542 0)
(1.01221 -0.00262038 0)
(1.38652 -0.0295472 0)
(0.977155 4.86274e-06 0)
(1.05751 -0.0248072 0)
(0.89562 -0.00127993 0)
(0.869095 0.00106143 0)
(1.01241 -0.00181143 0)
(0.809082 -0.0384015 0)
(1.01607 0.0025911 0)
(0.845438 0.0151737 0)
(0.843413 0.0150065 0)
(1.16939 -0.0850966 0)
(0.853945 0.0147063 0)
(0.851484 0.0152955 0)
(1.06083 -0.00132553 0)
(1.05869 -0.0245335 0)
(1.06273 -0.0016504 0)
(0.964756 0.00860883 0)
(0.859869 0.0177847 0)
(0.857964 0.0179848 0)
(0.861505 0.0181922 0)
(0.859754 0.0183043 0)
(0.847237 0.00306369 0)
(0.838642 0.028744 0)
(0.76952 0.000353309 0)
(1.04139 -0.0205481 0)
(1.14251 -0.0745719 0)
(0.849195 0.00564449 0)
(0.870242 0.00909711 0)
(0.899726 -0.0143849 0)
(0.841877 0.0248528 0)
(0.835666 0.00563004 0)
(0.86952 0.00640532 0)
(0.981158 -0.000134915 0)
(0.966219 0.0383523 0)
(1.24728 -0.0332764 0)
(0.968128 0.0342391 0)
(0.855483 0.00769637 0)
(0.855114 0.00135153 0)
(1.10226 -0.0467918 0)
(1.3766 0.0262652 0)
(0.845484 0.00423891 0)
(0.837174 0.00709623 0)
(1.05017 0.000115653 0)
(0.837747 0.00534707 0)
(0.846567 0.0102532 0)
(1.05397 0.000131047 0)
(0.970229 0.0335758 0)
(0.933171 0.0212878 0)
(0.823616 0.0042916 0)
(0.931835 0.0217656 0)
(0.93163 0.0213632 0)
(0.929787 0.0215732 0)
(0.87923 0.00335222 0)
(0.845449 0.00993893 0)
(1.063 -0.00168172 0)
(1.06168 -0.00207865 0)
(0.970502 0.0383964 0)
(0.981071 -0.00178159 0)
(0.837776 0.00235229 0)
(0.841653 -0.000229129 0)
(1.07429 0.0175203 0)
(0.807842 0.00178858 0)
(0.771375 0.0494772 0)
(1.08992 -0.0205797 0)
(0.843349 0.0263458 0)
(0.776609 0.0598905 0)
(0.839473 0.0324728 0)
(0.840689 0.00122778 0)
(0.956529 0.0415395 0)
(0.954234 0.0429548 0)
(0.825195 0.0010054 0)
(0.820432 0.00453894 0)
(0.951828 -0.00172643 0)
(1.03599 -0.018403 0)
(0.815208 0.00184571 0)
(0.809563 0.00338906 0)
(1.002 0.0214852 0)
(0.870765 0.0195146 0)
(0.869357 0.0193396 0)
(0.871948 0.0185464 0)
(0.870036 0.0189908 0)
(0.880287 0.019776 0)
(0.878021 0.0194042 0)
(0.882376 0.0189067 0)
(0.881493 0.0193198 0)
(1.20051 -0.0976299 0)
(1.03992 -0.019945 0)
(0.888477 0.0195724 0)
(1.04435 -0.00918317 0)
(0.88658 0.01931 0)
(0.892062 0.018919 0)
(0.815995 0.00192856 0)
(0.980508 0.000313141 0)
(0.969053 -5.87949e-05 0)
(0.890638 0.0192628 0)
(0.819554 0.00458317 0)
(0.898745 0.0189859 0)
(0.859001 0.00418133 0)
(0.897324 0.0190346 0)
(1.05095 0.0745416 0)
(1.03747 -0.0173314 0)
(0.901783 0.0180647 0)
(0.864626 -0.000478049 0)
(0.900473 0.0182722 0)
(0.838939 0.071887 0)
(0.824734 0.0081312 0)
(0.909202 0.0177511 0)
(0.886607 0.0112063 0)
(0.90806 0.0179715 0)
(0.895711 0.0105995 0)
(1.14508 -0.0878051 0)
(0.865261 0.000922727 0)
(1.06558 -0.0212441 0)
(0.969601 0.000247464 0)
(0.848371 0.00260498 0)
(0.840879 0.00313052 0)
(0.912198 0.0165157 0)
(0.910855 0.0166621 0)
(0.830896 0.00239154 0)
(1.02388 -0.0137682 0)
(0.920053 0.0162637 0)
(0.919183 0.0164984 0)
(0.994844 0.0191014 0)
(0.867198 0.00197647 0)
(0.873766 0.000222155 0)
(0.928018 0.0144762 0)
(1.06987 -0.00152731 0)
(0.926531 0.01461 0)
(0.823921 0.00643224 0)
(1.02514 -0.00230626 0)
(0.932253 0.0127638 0)
(1.0884 -0.0456826 0)
(0.931513 0.0132475 0)
(1.07105 -0.00200733 0)
(1.02887 -0.00188329 0)
(0.823642 0.00404928 0)
(0.845216 0.00355179 0)
(0.84753 0.0039435 0)
(0.93931 0.011998 0)
(0.938459 0.0121784 0)
(0.96517 -0.00545985 0)
(0.82543 0.00463816 0)
(0.831077 0.00263448 0)
(0.943673 0.0100832 0)
(1.05343 -0.015271 0)
(0.942427 0.0103869 0)
(1.09027 -0.0479538 0)
(0.816745 0.00410122 0)
(0.951689 0.00830587 0)
(0.951514 0.00884473 0)
(0.844758 0.00383175 0)
(0.834029 0.00790322 0)
(0.841575 0.00409007 0)
(0.89668 -0.0098795 0)
(0.834499 0.00788099 0)
(1.03648 -0.0121963 0)
(1.00492 -0.00943854 0)
(0.954874 0.0445274 0)
(0.835909 0.00122599 0)
(0.960476 0.00641528 0)
(0.866447 0.00166674 0)
(0.960228 0.00640765 0)
(0.862506 0.000791297 0)
(0.831065 0.0015694 0)
(1.0335 -0.0117056 0)
(1.03434 -0.0113736 0)
(0.967748 0.00409657 0)
(0.966349 0.00482219 0)
(1.03912 -0.0207475 0)
(1.02369 -0.0115426 0)
(0.970259 0.00268345 0)
(1.01664 -0.012427 0)
(0.970433 0.00270629 0)
(0.810295 0.00114133 0)
(0.986595 0.023891 0)
(0.982101 0.000645824 0)
(0.982361 0.000989186 0)
(0.825411 0.00191497 0)
(1.0813 -0.030117 0)
(0.983414 -0.00221538 0)
(0.981964 -0.00187738 0)
(0.716992 0.0289212 0)
(0.862506 -0.000402474 0)
(0.861676 -4.67435e-05 0)
(0.842099 0.00370572 0)
(0.993562 -0.00284331 0)
(1.04435 -0.0218937 0)
(0.993911 -0.00262345 0)
(0.880053 -0.0106755 0)
(0.930707 0.00203404 0)
(1.03344 -0.0205973 0)
(1.10994 -0.0597821 0)
(0.994577 -0.00602473 0)
(0.993187 -0.00583089 0)
(1.00651 -0.00968208 0)
(1.00378 -0.00648666 0)
(1.00418 -0.0062421 0)
(1.07372 -0.0346864 0)
(1.09298 -0.0362561 0)
(0.854276 0.0174343 0)
(0.926795 0.0235602 0)
(0.765825 0.0478836 0)
(1.07589 -0.00200665 0)
(0.794338 -0.00311118 0)
(1.10175 -0.0545071 0)
(1.07661 -0.00250215 0)
(1.09161 -0.0438869 0)
(0.959396 0.00174875 0)
(0.973855 0.000335665 0)
(0.865064 0.0182002 0)
(0.851709 0.0172707 0)
(0.862065 0.0183889 0)
(1.061 -0.000758605 0)
(0.866068 0.00175662 0)
(0.854573 0.0148433 0)
(0.866314 0.00151944 0)
(1.50469 -0.13488 0)
(0.853427 0.0147928 0)
(1.06177 -0.000641329 0)
(1.62038 -0.0727333 0)
(0.854779 0.0178457 0)
(0.857148 0.0176847 0)
(1.0647 -0.0264773 0)
(1.07582 -0.037503 0)
(0.820211 0.00254917 0)
(0.997118 0.0219107 0)
(1.20033 -0.10179 0)
(0.965339 -0.000524817 0)
(1.51454 -0.133974 0)
(0.822023 0.00505342 0)
(0.814746 0.0024683 0)
(0.839888 0.0277211 0)
(1.12199 0.133987 0)
(1.06037 -0.000724068 0)
(0.849054 0.00217458 0)
(1.04143 -0.0192483 0)
(0.842926 0.0262516 0)
(0.938149 0.017375 0)
(1.00154 0.031863 0)
(0.936144 0.0166669 0)
(1.08877 -0.0424585 0)
(0.863286 0.003469 0)
(0.955768 0.0142658 0)
(0.99234 0.0126401 0)
(0.929698 0.0202722 0)
(0.841532 0.0282106 0)
(1.4104 0.0258104 0)
(0.828341 0.00303662 0)
(1.72607 0.141733 0)
(0.882861 0.00166703 0)
(0.93589 0.0159879 0)
(0.935369 0.0178108 0)
(1.07544 0.00668117 0)
(0.972755 0.000830666 0)
(0.972668 0.000835666 0)
(0.84094 0.00163196 0)
(1.07384 -0.021043 0)
(0.858742 0.00102229 0)
(0.821687 0.00126626 0)
(0.934008 0.0170618 0)
(1.01224 -0.00994166 0)
(0.840464 0.0311145 0)
(0.995043 0.0404281 0)
(0.842573 0.0319564 0)
(0.839751 0.0300624 0)
(0.987116 0.02383 0)
(0.982161 0.0261414 0)
(0.818532 0.00193344 0)
(0.934107 0.0161675 0)
(1.09875 -0.0457277 0)
(1.04246 -0.0223015 0)
(0.792932 0.0144989 0)
(1.0378 -0.019984 0)
(1.08183 -0.00110326 0)
(0.793875 0.00193103 0)
(0.839514 0.0293176 0)
(1.04449 -0.0201986 0)
(1.03987 -0.0163923 0)
(0.842115 0.027558 0)
(1.08243 -0.00172976 0)
(0.76459 -0.035214 0)
(0.838116 0.0264897 0)
(1.27381 0.0210962 0)
(0.92147 0.0151795 0)
(0.921081 0.0156452 0)
(1.04165 -0.0203418 0)
(0.86826 -0.000905207 0)
(0.76462 -0.0277161 0)
(0.811166 -0.0338299 0)
(0.989386 0.0097003 0)
(0.991799 0.00706647 0)
(0.831519 0.00360908 0)
(1.02008 -0.0130801 0)
(0.981707 -0.00480308 0)
(1.08985 -0.0436756 0)
(0.844795 0.0712002 0)
(0.882317 -0.00018704 0)
(0.878603 0.000881582 0)
(0.822047 -0.00315203 0)
(0.947634 0.0098071 0)
(0.946154 0.00992174 0)
(0.868764 0.0190792 0)
(0.837816 0.0330662 0)
(0.822332 0.015643 0)
(1.04946 -0.00119606 0)
(0.955486 0.00695325 0)
(1.04396 -0.119264 0)
(0.840046 0.0328843 0)
(0.954191 0.00739288 0)
(1.05412 -0.00120478 0)
(1.03796 -0.0202996 0)
(1.03788 -0.021393 0)
(1.04823 0.021394 0)
(1.04287 -0.0197074 0)
(1.02504 -0.0128884 0)
(1.1078 -0.0557284 0)
(1.04479 -0.0202853 0)
(1.1012 -0.0489721 0)
(0.973411 0.00165028 0)
(0.824641 0.00300298 0)
(0.82633 0.0041197 0)
(0.971882 0.00191826 0)
(1.38495 0.02951 0)
(0.824728 0.0018164 0)
(1.03744 -0.0168154 0)
(1.04236 -0.0194462 0)
(0.827664 0.00232123 0)
(1.0892 -0.00163767 0)
(1.07351 -0.0383527 0)
(1.02442 -0.0137086 0)
(1.07701 -0.0322733 0)
(1.08711 -0.0305607 0)
(1.09037 -0.00229915 0)
(1.0866 -0.0418332 0)
(1.08694 -0.0423441 0)
(1.09355 -0.0486281 0)
(1.09437 -0.0502404 0)
(0.898937 -0.00147174 0)
(0.820202 0.0201743 0)
(0.946767 0.00262553 0)
(0.819834 0.0200309 0)
(0.898842 -0.00127438 0)
(1.04176 -0.0197234 0)
(1.06512 -0.031932 0)
(1.09472 -0.038058 0)
(0.818902 0.00717025 0)
(0.853667 0.00368742 0)
(1.0229 -0.013073 0)
(0.84957 0.000978988 0)
(1.01988 -0.0126829 0)
(1.02501 -0.0126542 0)
(0.845205 0.0316937 0)
(0.845619 0.0328429 0)
(0.901133 0.000888771 0)
(0.843988 0.0305311 0)
(1.51927 -0.0564028 0)
(0.842366 0.0297466 0)
(0.814854 0.00210483 0)
(1.0384 -0.0182068 0)
(1.02316 -0.0133454 0)
(0.980841 -0.00411963 0)
(0.81294 -0.0214614 0)
(0.836937 0.00321451 0)
(1.06464 -0.00134048 0)
(0.863657 -0.000152494 0)
(1.02184 -0.0135119 0)
(1.02322 -0.0133034 0)
(1.0646 -0.00104207 0)
(0.841353 0.0269077 0)
(1.02522 -0.015775 0)
(1.03448 -0.0178033 0)
(1.0252 -0.0162384 0)
(0.810953 0.000964272 0)
(0.805521 0.00106151 0)
(0.803539 0.000798694 0)
(0.828448 0.000592931 0)
(1.0333 -0.0179909 0)
(1.01815 -0.0129257 0)
(0.836099 0.0071989 0)
(0.993028 0.0172831 0)
(0.841804 0.0280496 0)
(1.08687 -0.0425743 0)
(0.833854 0.00411658 0)
(1.08545 -0.0422726 0)
(0.965669 -0.000398262 0)
(0.989157 0.000573662 0)
(0.817549 0.00747048 0)
(1.08959 -0.00245072 0)
(1.08999 -0.00277509 0)
(0.959155 0.000644495 0)
(0.819482 0.0707585 0)
(0.86642 0.0188445 0)
(1.09333 -0.0370558 0)
(1.03708 -0.01955 0)
(1.03121 0.0198802 0)
(1.09283 -0.0378719 0)
(0.86076 0.0179496 0)
(0.859605 0.0178557 0)
(1.04188 -0.0206099 0)
(0.883878 -0.00963087 0)
(0.820392 0.0079333 0)
(0.81872 0.00790002 0)
(1.02878 -0.0125579 0)
(1.14882 -0.0840578 0)
(0.900233 0.00483977 0)
(1.03325 -0.0199808 0)
(0.79044 -0.00299512 0)
(0.853057 0.0162985 0)
(0.866356 0.000642882 0)
(0.85229 0.0156827 0)
(0.882252 0.00117082 0)
(0.850468 0.0150806 0)
(0.765731 0.0542867 0)
(0.845859 0.0157842 0)
(0.96507 -0.000468873 0)
(1.08661 -0.0362212 0)
(1.08846 -0.0431024 0)
(1.0256 -0.00849524 0)
(0.810944 -0.0161093 0)
(0.87411 -0.0177604 0)
(0.888991 -0.0232576 0)
(1.06638 -0.0260995 0)
(0.928224 -0.00378428 0)
(0.965552 -0.000536526 0)
(0.757056 -0.0339132 0)
(0.906129 0.0178912 0)
(0.899975 0.0187939 0)
(0.895767 0.0188252 0)
(0.910133 0.0172172 0)
(0.903775 0.0181374 0)
(1.41571 -0.0906051 0)
(0.969217 0.00963704 0)
(0.899337 0.0188446 0)
(0.890101 0.0196105 0)
(0.90991 0.0173925 0)
(1.03813 -0.0220817 0)
(0.893664 0.0190341 0)
(0.926884 0.0152151 0)
(0.917011 0.0165843 0)
(0.889056 0.0197093 0)
(0.862926 -0.000418821 0)
(0.88511 0.0187611 0)
(0.91455 0.0166408 0)
(0.882963 0.0187678 0)
(0.8435 0.00551678 0)
(0.924297 0.0144952 0)
(0.880103 0.0616356 0)
(0.881911 0.0199303 0)
(0.880879 0.0200166 0)
(0.922832 0.0147074 0)
(0.876472 0.0185024 0)
(0.876663 0.0231308 0)
(0.930105 0.0139484 0)
(0.873112 0.0184647 0)
(0.842556 0.00279447 0)
(0.870295 0.0195164 0)
(0.929705 0.0143133 0)
(0.819477 0.00285066 0)
(0.936225 0.0121781 0)
(0.869734 0.0196881 0)
(1.15585 -0.0147591 0)
(0.839314 0.00282523 0)
(1.09954 -0.000755621 0)
(0.93449 0.0125156 0)
(0.843498 0.00419277 0)
(0.857543 0.00600506 0)
(0.833933 0.00720655 0)
(0.940691 0.0110266 0)
(0.929457 0.0213438 0)
(0.822175 0.00242421 0)
(0.83297 0.00728061 0)
(0.875746 0.00641842 0)
(0.940594 0.0113945 0)
(1.10223 -0.00147221 0)
(0.872646 -0.0263108 0)
(0.949919 0.00953166 0)
(0.818752 0.0032368 0)
(1.03397 0.000274969 0)
(0.9494 0.00973653 0)
(0.958974 0.0067248 0)
(0.95777 0.00670098 0)
(1.08637 -0.0364119 0)
(0.962907 0.00544508 0)
(0.962049 0.0057686 0)
(0.97003 0.00367992 0)
(0.813546 0.00354677 0)
(0.969032 0.0003431 0)
(0.969868 0.00393277 0)
(0.833578 0.00305044 0)
(0.979817 0.00103977 0)
(0.982531 -8.96696e-05 0)
(0.832754 0.00270022 0)
(0.863633 -0.000961168 0)
(0.977811 0.00157689 0)
(1.05872 -0.0199853 0)
(0.864212 -0.0111432 0)
(0.980427 -0.000907392 0)
(0.981643 -0.000681422 0)
(0.991073 -0.00249892 0)
(1.06663 -0.0011782 0)
(0.988325 -0.00213288 0)
(0.801471 -0.0155724 0)
(0.991751 -0.00467705 0)
(0.813699 0.00088005 0)
(1.01445 -0.0104052 0)
(1.06785 -0.00115644 0)
(0.993185 -0.0044061 0)
(0.999386 0.019827 0)
(1.00306 0.017101 0)
(1.03928 -0.0195277 0)
(1.00136 -0.00600732 0)
(1.01452 -0.0124694 0)
(1.01454 -0.0121833 0)
(0.987429 -0.00020359 0)
(0.998788 -0.00594426 0)
(1.00322 -0.00847618 0)
(1.00413 -0.00809133 0)
(0.965126 -0.000378925 0)
(0.862365 -0.0112014 0)
(0.79791 -0.053421 0)
(0.816852 0.00264301 0)
(0.863274 -0.0129921 0)
(0.837241 0.00203151 0)
(0.86483 -0.0128344 0)
(0.859206 -0.0119278 0)
(0.84023 -0.0219609 0)
(1.30041 -0.0216347 0)
(0.774157 0.0577212 0)
(0.930543 0.00360635 0)
(1.58464 -0.046325 0)
(1.10168 -0.0166751 0)
(1.09659 -0.0166766 0)
(0.971355 0.0373954 0)
(0.965806 0.0391898 0)
(0.815127 0.00216821 0)
(1.01379 0.00406352 0)
(0.934542 0.0137165 0)
(0.930798 0.0145341 0)
(0.890752 0.00412075 0)
(0.89568 0.000654961 0)
(0.937568 0.0132582 0)
(0.934075 0.0140982 0)
(0.936092 0.0135497 0)
(0.933513 0.0218885 0)
(0.94225 -0.0178233 0)
(1.07455 -0.0364796 0)
(1.02634 -0.0123293 0)
(1.04536 -0.0207864 0)
(0.817396 0.00117227 0)
(1.02709 -0.0110508 0)
(1.07929 -0.0381132 0)
(1.0915 -0.0447851 0)
(0.994882 0.0186537 0)
(1.54911 0.0715776 0)
(0.90748 0.0203611 0)
(0.932814 0.0226309 0)
(1.11584 -0.0732091 0)
(1.39764 0.0380574 0)
(1.09886 -0.00240543 0)
(0.988655 0.0148854 0)
(1.02144 0.00446265 0)
(1.10014 -0.00289033 0)
(1.30843 -0.0147654 0)
(0.870759 0.0222638 0)
(0.843411 0.00109745 0)
(1.04223 -0.0137146 0)
(0.99579 0.017002 0)
(1.04427 -0.00330705 0)
(0.940384 0.0132291 0)
(1.00088 0.0203507 0)
(0.998481 0.0221203 0)
(1.15453 -0.0813101 0)
(1.07304 -0.00214447 0)
(1.02162 0.00649087 0)
(1.07385 -0.0019377 0)
(1.014 -0.0106919 0)
(0.98499 0.00857199 0)
(1.13155 -0.0688739 0)
(1.08075 -0.0403747 0)
(0.878598 -0.0201049 0)
(1.0238 5.80533e-06 0)
(0.932374 0.0142739 0)
(1.01024 -0.00971478 0)
(0.832801 0.00361695 0)
(0.932954 0.0144662 0)
(0.891504 0.0220273 0)
(1.04957 -0.0103619 0)
(0.999431 0.00919579 0)
(0.813884 0.000574346 0)
(0.830565 0.00405776 0)
(0.88354 0.00260505 0)
(1.02675 -0.015681 0)
(0.840188 0.0323695 0)
(0.800212 0.00106421 0)
(0.88087 -0.000612148 0)
(0.831867 -0.0162306 0)
(0.999288 0.0101868 0)
(1.1023 -0.0491726 0)
(0.779713 0.00793872 0)
(0.988782 0.00370203 0)
(0.885306 -0.000225999 0)
(1.0313 -0.0164702 0)
(1.0445 -0.00741691 0)
(0.781993 -0.000902884 0)
(0.808005 0.0256989 0)
(0.785675 -0.0711226 0)
(1.09242 -0.0459733 0)
(0.877033 0.0228015 0)
(1.08876 -0.0448939 0)
(1.0249 -0.0125245 0)
(1.02505 -0.0105892 0)
(0.794957 0.00508664 0)
(0.929427 0.0151003 0)
(1.02641 -0.0134774 0)
(0.841545 0.0256461 0)
(1.09395 -0.0285358 0)
(0.895056 0.00110508 0)
(0.997874 0.0150277 0)
(0.958199 -0.00471284 0)
(1.10025 -0.0178329 0)
(1.0594 -0.0347423 0)
(0.873763 -0.000391612 0)
(0.871696 8.21637e-05 0)
(1.02753 -0.00957062 0)
(1.0978 -0.0151657 0)
(1.0185 -0.0134884 0)
(1.0372 -0.019518 0)
(1.01872 -0.0121455 0)
(1.01877 -0.0117023 0)
(0.874248 -0.000842748 0)
(0.95962 -0.00122033 0)
(1.01647 -0.0132579 0)
(1.03784 -0.0212044 0)
(1.03963 -0.0203011 0)
(1.09974 -0.0492036 0)
(0.990871 0.0144684 0)
(0.842441 0.0255154 0)
(1.03234 -0.00802314 0)
(1.12901 -0.0639083 0)
(1.02417 -0.0142578 0)
(1.11767 -0.0573336 0)
(1.02514 -0.0139649 0)
(0.932725 0.0224536 0)
(-0.278883 -0.00197256 0)
(0.862607 -0.000748162 0)
(0.859702 -0.000416242 0)
(1.06513 -0.034455 0)
(1.0303 -0.0178999 0)
(0.818241 0.000128124 0)
(1.04433 -0.020953 0)
(1.02816 -0.0172707 0)
(0.921985 0.00139447 0)
(0.962569 -0.00341452 0)
(1.09185 -0.0397727 0)
(1.04317 -0.0219261 0)
(0.866949 -0.0115401 0)
(0.987335 -0.000573099 0)
(0.912859 0.0206405 0)
(0.866273 -0.000125538 0)
(0.872502 -0.000593255 0)
(1.02602 -0.00577735 0)
(0.904248 0.0215743 0)
(0.858932 -0.00295703 0)
(0.862777 0.00191007 0)
(0.840944 0.0250983 0)
(1.03294 -0.0183394 0)
(0.863929 -0.00313671 0)
(1.03503 -0.0185418 0)
(1.17631 -0.0886877 0)
(0.885954 -0.00863979 0)
(1.09718 -0.0230273 0)
(0.8203 0.00274284 0)
(0.840148 0.0253011 0)
(1.09645 -0.023418 0)
(1.38915 -0.0368816 0)
(0.858412 0.0270428 0)
(1.03748 -0.0184799 0)
(0.861754 0.0287711 0)
(0.856367 0.0271282 0)
(0.872391 0.00104309 0)
(0.971318 -0.00245081 0)
(0.860873 0.0288767 0)
(1.03921 -0.0170674 0)
(1.0959 -0.0246914 0)
(0.914445 0.0195504 0)
(0.834859 0.00341167 0)
(0.982355 0.0127704 0)
(0.870952 0.028612 0)
(0.894733 0.0227046 0)
(1.03192 -0.00282991 0)
(1.68179 0.0969434 0)
(0.918162 0.0185127 0)
(0.869401 0.0286805 0)
(0.880579 0.0282913 0)
(0.834957 0.0322536 0)
(1.02541 -0.0136323 0)
(0.763592 -0.0238999 0)
(0.834429 0.0318183 0)
(0.831365 0.0278929 0)
(1.07334 -0.0331817 0)
(0.880005 0.0283753 0)
(0.83202 0.0277017 0)
(0.904582 0.0205511 0)
(0.893317 0.0013084 0)
(1.49172 -0.0297937 0)
(0.818851 0.0154303 0)
(0.985539 0.00569622 0)
(0.891914 0.0269851 0)
(0.95801 -0.000847573 0)
(0.904006 0.00239244 0)