/*--------------------------------*- C++ -*----------------------------------*\
  =========                 |
  \\      /  F ield         | OpenFOAM: The Open Source CFD Toolbox
   \\    /   O peration     | Website:  https://openfoam.org
    \\  /    A nd           | Version:  12
     \\/     M anipulation  |
\*---------------------------------------------------------------------------*/
FoamFile
{
    format      ascii;
    class       volVectorField;
    location    "0.675";
    object      U;
}
// * * * * * * * * * * * * * * * * * * * * * * * * * * * * * * * * * * * * * //

dimensions      [0 1 -1 0 0 0 0];

internalField   nonuniform List<vector> 
183995
(
(0.802353 0.00358312 0)
(0.954939 -0.0755941 0)
(0.92 -1.40153e-15 0)
(0.997672 -0.0451372 0)
(0.92 5.51171e-14 0)
(0.92 6.65404e-14 0)
(0.912931 -0.00293925 0)
(0.92 2.98328e-14 0)
(0.918107 -0.0455601 0)
(0.912439 -0.0023113 0)
(0.982249 -0.0150058 0)
(0.837707 0.072367 0)
(0.982673 -0.0145376 0)
(0.92 1.0496e-13 0)
(0.92 7.62426e-14 0)
(0.92 1.14982e-13 0)
(0.92 1.50093e-13 0)
(0.952463 0.0217576 0)
(0.92 3.89925e-14 0)
(0.92 1.00052e-13 0)
(0.92 -4.56176e-08 0)
(0.834596 0.00161814 0)
(0.805605 0.00266332 0)
(0.92 -9.55118e-14 0)
(0.92 1.66883e-13 0)
(0.943991 0.0236845 0)
(0.92 7.06545e-14 0)
(0.914576 -0.00715276 0)
(0.92 -9.97033e-14 0)
(0.92 -8.52765e-14 0)
(0.92 -4.4372e-15 0)
(0.92 -8.08102e-14 0)
(0.980311 -0.0147177 0)
(0.92 -1.78146e-13 0)
(0.978981 -0.0146739 0)
(0.838689 0.0717474 0)
(0.92 -4.30552e-14 0)
(0.92 -1.13817e-13 0)
(0.92 6.47783e-15 0)
(0.92 -2.49629e-14 0)
(0.608902 -0.00344793 0)
(0.92 -1.21322e-13 0)
(0.92 -1.08301e-13 0)
(0.92 -1.04789e-13 0)
(0.92 2.10002e-14 0)
(0.92 1.84033e-14 0)
(0.960798 -0.0680635 0)
(1.09569 0.00802739 0)
(0.92 2.12831e-14 0)
(0.92 5.68627e-14 0)
(0.92 9.87657e-14 0)
(0.920032 9.99272e-06 0)
(0.92 -9.06278e-14 0)
(0.92 1.36544e-15 0)
(0.92 -3.30407e-15 0)
(0.838466 0.00121792 0)
(0.92 8.69682e-13 0)
(0.978654 -0.0138094 0)
(0.979678 -0.0208629 0)
(0.977832 -0.0138752 0)
(0.92 7.67203e-14 0)
(0.913811 -0.0102813 0)
(0.914535 -0.00707909 0)
(0.874751 -0.0863353 0)
(0.92 5.54215e-14 0)
(0.81022 0.0040431 0)
(0.92 4.65999e-14 0)
(0.808906 0.000608448 0)
(0.92 -1.46356e-14 0)
(0.92 3.90274e-15 0)
(0.92 -1.58691e-13 0)
(0.975462 -0.00983276 0)
(0.976792 -0.00990196 0)
(0.92 1.60777e-13 0)
(0.947663 0.0254489 0)
(0.813267 0.00427523 0)
(0.92 5.68495e-16 0)
(0.92 8.57839e-13 0)
(0.870378 0.0672023 0)
(0.98046 -0.0118782 0)
(0.979763 -0.0116996 0)
(0.92 7.84544e-14 0)
(0.92 -1.20537e-13 0)
(0.920019 -2.58637e-07 0)
(0.92 -2.39154e-14 0)
(0.92 5.05724e-14 0)
(0.92 -5.15038e-14 0)
(0.91421 -0.00486336 0)
(0.5804 -0.0267109 0)
(0.92 3.85713e-14 0)
(0.977542 -0.00799391 0)
(0.976511 -0.00757466 0)
(0.919184 -0.0513795 0)
(0.92 6.32802e-14 0)
(0.92 -1.37481e-13 0)
(0.92 -1.46901e-13 0)
(0.841765 0.00021761 0)
(0.92 7.59889e-14 0)
(0.978757 -0.0221272 0)
(0.958102 -0.0751986 0)
(0.841567 0.00177597 0)
(0.92 3.99865e-09 0)
(0.995109 -0.0605252 0)
(0.92 -1.16005e-13 0)
(0.605845 -0.0165552 0)
(0.92 -9.8553e-14 0)
(0.842136 0.00226783 0)
(0.995705 -0.0592231 0)
(0.897722 0.057798 0)
(0.92 -1.65695e-13 0)
(0.92 1.2828e-13 0)
(0.913794 -0.00869955 0)
(0.92 7.33738e-14 0)
(0.60788 -0.017025 0)
(0.920005 -1.64193e-07 0)
(0.92 -1.98929e-13 0)
(0.92 -2.69884e-14 0)
(0.978796 -0.020387 0)
(1.04757 -0.00557952 0)
(0.92 2.77566e-13 0)
(0.92 5.32334e-10 0)
(0.92 -1.08478e-13 0)
(0.952978 0.0241378 0)
(0.973448 -0.00504008 0)
(0.97243 -0.00479305 0)
(0.749266 0.0574182 0)
(0.92 -1.76591e-13 0)
(0.605711 -0.0144129 0)
(0.92 -1.52243e-14 0)
(0.92 7.10468e-16 0)
(0.942172 0.0268866 0)
(0.92 8.94686e-14 0)
(0.92 -1.08779e-13 0)
(0.92 5.24688e-08 0)
(0.92 8.10206e-14 0)
(0.948437 0.0232032 0)
(0.92 4.38961e-10 0)
(0.92 9.62275e-15 0)
(0.840433 -0.0746826 0)
(0.92 -7.22388e-15 0)
(0.979737 -0.0231639 0)
(0.974191 -0.00168493 0)
(0.970499 -0.00130129 0)
(0.974141 0.00394499 0)
(0.97367 0.00363946 0)
(0.845999 0.0715874 0)
(0.92 3.98455e-10 0)
(0.92 3.28621e-14 0)
(0.732155 0.0279873 0)
(0.92 -1.41008e-14 0)
(0.92 7.15972e-14 0)
(0.97519 0.00062216 0)
(0.972391 0.000758177 0)
(0.92 -1.40721e-13 0)
(0.92 2.69612e-16 0)
(0.95173 -0.0693817 0)
(0.84673 0.0710433 0)
(0.92 1.17175e-14 0)
(0.913554 -0.0105371 0)
(0.92 5.44362e-15 0)
(0.92 2.99079e-16 0)
(0.92 5.81292e-14 0)
(0.92 -8.44672e-15 0)
(0.739125 0.0242672 0)
(0.92 -1.46231e-13 0)
(0.92 9.16285e-14 0)
(0.92 -2.25594e-13 0)
(0.92 -1.25396e-13 0)
(0.981056 -0.0121807 0)
(0.979839 -0.0117393 0)
(0.944715 0.0248166 0)
(0.902979 -0.0771254 0)
(0.965952 -0.0701166 0)
(0.96929 0.00550339 0)
(1.02787 -0.0752813 0)
(0.965373 0.00628442 0)
(0.92 4.07491e-14 0)
(0.92 -5.05712e-14 0)
(0.92 -2.64129e-14 0)
(0.92 1.73946e-13 0)
(0.913608 -0.00890755 0)
(0.914234 -0.00498595 0)
(0.92 1.53908e-13 0)
(0.92 -2.89374e-14 0)
(0.92 -4.53046e-14 0)
(0.92 -1.09534e-13 0)
(0.995051 -0.0572741 0)
(0.92 7.43522e-14 0)
(0.92 -1.34544e-13 0)
(0.87179 0.0671872 0)
(0.914135 -0.00492749 0)
(0.92 6.34985e-14 0)
(0.92 2.61408e-14 0)
(0.92 1.2674e-13 0)
(0.92 -1.82612e-14 0)
(0.993801 -0.0476673 0)
(0.92 9.39898e-14 0)
(0.92 1.29161e-14 0)
(0.92 4.88353e-09 0)
(0.92 1.30996e-13 0)
(0.92193 0.0466449 0)
(0.92 -2.87065e-15 0)
(0.92 1.20738e-13 0)
(0.92 8.47718e-14 0)
(0.92 -9.06789e-14 0)
(0.961423 0.00891384 0)
(0.842716 0.071787 0)
(0.960594 0.0095285 0)
(0.92 7.5628e-14 0)
(0.952667 0.0221293 0)
(0.99624 -0.0564426 0)
(0.997372 -0.0542329 0)
(0.92 -1.13001e-13 0)
(0.92 -3.32059e-15 0)
(0.92 3.36073e-14 0)
(0.997816 -0.0542137 0)
(0.92 3.80143e-14 0)
(0.941706 0.0279119 0)
(0.92 1.11792e-13 0)
(0.92 -1.51459e-13 0)
(0.913879 -0.00710284 0)
(0.92 -8.03106e-14 0)
(0.965236 0.0109136 0)
(0.965571 0.00997352 0)
(0.92 9.57196e-14 0)
(0.92 4.0933e-14 0)
(0.92 -7.72818e-14 0)
(0.92 -1.05046e-13 0)
(0.942879 0.0263539 0)
(0.92 -1.19049e-13 0)
(0.843284 0.0713786 0)
(0.92 7.11291e-14 0)
(0.92 -1.46094e-13 0)
(0.92 1.85581e-13 0)
(0.954458 0.0215218 0)
(0.92 -1.0518e-13 0)
(0.94024 0.0293584 0)
(0.914194 -0.00748014 0)
(0.914232 -0.00710114 0)
(0.92 6.61062e-14 0)
(0.914276 -0.00495681 0)
(0.979743 -0.0180735 0)
(0.92 9.2361e-14 0)
(0.92 -9.33055e-14 0)
(0.92 1.2262e-13 0)
(0.92 2.14509e-14 0)
(0.92 -4.84342e-11 0)
(0.94519 0.0232535 0)
(0.92 -1.79193e-14 0)
(0.92 8.91927e-14 0)
(0.92 -1.51554e-14 0)
(0.959755 0.0131299 0)
(0.92 -1.28184e-13 0)
(0.959431 0.0131236 0)
(0.92 3.91562e-07 0)
(0.975659 -0.0066735 0)
(0.92 2.91508e-14 0)
(0.975674 -0.00676286 0)
(0.941655 0.0281512 0)
(0.898083 0.0574337 0)
(0.92 7.65579e-15 0)
(0.92 8.6584e-14 0)
(0.99458 -0.0444528 0)
(0.92 3.34356e-14 0)
(0.957839 0.0155931 0)
(0.92 2.08376e-14 0)
(0.755093 0.064064 0)
(0.958679 0.015066 0)
(0.92 7.3162e-14 0)
(0.92 1.46301e-13 0)
(0.92 -1.19812e-14 0)
(0.92 -4.74731e-15 0)
(0.908849 -0.0039869 0)
(0.92 7.41877e-14 0)
(0.92 2.00207e-13 0)
(0.976726 -0.0111118 0)
(0.950324 0.0220084 0)
(0.976271 -0.0108081 0)
(0.92 -1.68345e-13 0)
(0.92 -1.57409e-14 0)
(0.92 3.51139e-13 0)
(0.92 4.61923e-14 0)
(0.956794 0.0182457 0)
(0.92 1.00012e-13 0)
(0.92 -2.17101e-14 0)
(0.92 1.65401e-13 0)
(0.92 9.87216e-15 0)
(0.913921 -0.0142165 0)
(0.766265 -0.0561698 0)
(0.957787 0.01816 0)
(0.92 -1.0438e-13 0)
(0.919342 -0.00346301 0)
(0.92 1.75259e-13 0)
(0.92 1.38612e-14 0)
(0.92 -2.35068e-15 0)
(0.919956 0.0485487 0)
(0.943789 0.0242124 0)
(0.92 7.15586e-14 0)
(0.92 3.04671e-13 0)
(0.92 2.96218e-13 0)
(0.914174 -0.00493018 0)
(0.92 1.25884e-13 0)
(0.92 2.13366e-13 0)
(0.92 6.79075e-14 0)
(0.92 5.8795e-14 0)
(0.92 -4.08443e-14 0)
(0.954253 0.0206368 0)
(0.939343 0.0303978 0)
(0.92 4.67757e-14 0)
(0.92 3.92695e-14 0)
(0.948956 0.0270219 0)
(0.92 1.07919e-14 0)
(0.92 -1.77466e-13 0)
(0.913693 -0.00483799 0)
(0.92 6.44022e-15 0)
(0.92 1.05086e-13 0)
(0.92 -4.87901e-14 0)
(0.972045 -0.00430286 0)
(0.92 -8.66713e-14 0)
(0.952303 0.0203595 0)
(0.974142 -0.00445417 0)
(0.951446 0.0224454 0)
(0.92 -2.23033e-13 0)
(0.92 -2.05798e-13 0)
(0.873567 0.066456 0)
(0.92 3.63025e-14 0)
(0.92 -7.1932e-14 0)
(0.92 4.80131e-13 0)
(0.92 8.83103e-14 0)
(0.845446 0.0503842 0)
(0.92 5.73904e-14 0)
(0.788653 -0.0664669 0)
(0.920681 0.0483907 0)
(0.92 3.41311e-14 0)
(0.92 4.07102e-14 0)
(0.923773 0.0471867 0)
(0.956191 0.0214949 0)
(0.95577 0.0218075 0)
(0.92 2.25148e-13 0)
(0.92 1.0191e-14 0)
(0.92 4.7428e-15 0)
(0.947377 0.0252075 0)
(0.92 -2.43966e-14 0)
(0.92 3.51872e-14 0)
(0.92 -1.10445e-13 0)
(0.92 2.19967e-13 0)
(0.952676 0.0191832 0)
(0.92 1.18869e-13 0)
(0.940575 0.0286303 0)
(0.92 8.48904e-15 0)
(0.92 -2.02897e-14 0)
(0.953225 0.0185194 0)
(0.92 -1.00604e-14 0)
(0.92 -1.22076e-13 0)
(0.92 4.34653e-14 0)
(0.923908 0.0459395 0)
(0.92 4.64455e-14 0)
(1.0088 -0.0798617 0)
(0.92 3.92989e-14 0)
(0.977579 -0.00876294 0)
(0.913765 -0.0113062 0)
(0.978021 -0.00864529 0)
(0.802044 -0.0375513 0)
(0.872197 -0.00887738 0)
(0.936166 0.0319203 0)
(0.92 -1.37445e-13 0)
(0.92 1.89555e-13 0)
(0.92 1.86012e-13 0)
(0.938944 0.0306891 0)
(0.965591 -0.077493 0)
(0.92 -4.16218e-15 0)
(0.92 -3.20381e-13 0)
(0.92 4.4187e-14 0)
(0.92 2.33595e-15 0)
(0.92 -7.25319e-14 0)
(0.92 1.73868e-13 0)
(0.92 -1.25268e-13 0)
(0.945834 0.0258755 0)
(0.920488 -0.0878277 0)
(0.805883 0.00127519 0)
(0.812028 0.00117372 0)
(0.914627 -0.00710706 0)
(0.92 7.44593e-15 0)
(0.913671 -0.0141998 0)
(0.92 -2.86728e-14 0)
(0.967497 -0.00143421 0)
(0.92 -2.52787e-14 0)
(0.968314 -0.00197229 0)
(0.92 1.81805e-14 0)
(0.92 -9.53923e-15 0)
(0.92 -5.73472e-14 0)
(0.92 2.98653e-14 0)
(0.92 -4.84886e-14 0)
(0.92 3.26896e-14 0)
(1.0449 -0.000384994 0)
(0.92 1.07459e-14 0)
(0.92 4.19793e-07 0)
(0.92 -2.45463e-14 0)
(1.01841 -0.0735287 0)
(0.92 2.44473e-14 0)
(0.92 1.24885e-13 0)
(0.92 2.04407e-14 0)
(0.92 -7.55272e-14 0)
(0.998906 -0.0825108 0)
(0.92 -2.32066e-13 0)
(0.957502 0.0169517 0)
(0.983509 -0.0199131 0)
(0.92 1.69838e-13 0)
(0.92 -2.13584e-13 0)
(0.579103 -0.0104253 0)
(0.591736 -0.0189207 0)
(0.956689 0.0164849 0)
(0.92 -2.33896e-14 0)
(0.92 -2.16336e-14 0)
(0.907557 -0.000210328 0)
(0.92 5.68553e-13 0)
(0.947436 0.0273447 0)
(0.92 -1.34221e-13 0)
(0.92 1.26052e-14 0)
(0.92 -1.26798e-13 0)
(1.02315 -0.0768171 0)
(0.838911 0.000268787 0)
(0.842356 0.000467895 0)
(0.921874 0.0469787 0)
(0.92 2.43253e-13 0)
(0.94213 0.0267405 0)
(0.92 1.87074e-14 0)
(0.92 1.2288e-13 0)
(0.92 5.63273e-14 0)
(0.92 -5.34139e-14 0)
(1.08069 0.00616245 0)
(0.92 8.38316e-14 0)
(0.92 -4.38973e-15 0)
(0.92 -6.76749e-15 0)
(0.92 7.52168e-14 0)
(0.92 -7.02353e-14 0)
(0.966304 0.0014888 0)
(0.913842 -0.0179303 0)
(0.964566 0.00123632 0)
(0.936744 0.0328427 0)
(0.92 1.92344e-13 0)
(0.92 7.19049e-14 0)
(0.92 3.74379e-14 0)
(0.92 7.59187e-15 0)
(1.00923 -0.0732388 0)
(0.92 1.84053e-14 0)
(0.92 -1.57208e-13 0)
(0.913041 -0.00639019 0)
(0.989179 -0.0441515 0)
(0.793591 -0.0662062 0)
(0.99701 -0.0550812 0)
(0.92 2.18658e-14 0)
(0.92 -2.89318e-13 0)
(0.92 -1.5528e-13 0)
(0.917282 -0.0352425 0)
(0.92 7.76158e-14 0)
(0.94513 0.0236495 0)
(0.92 4.30298e-14 0)
(0.952595 0.0244402 0)
(0.960796 0.0139497 0)
(0.92 1.58956e-13 0)
(0.92 -7.01077e-14 0)
(0.969603 -0.00242918 0)
(0.92 5.85071e-15 0)
(1.00027 -0.0446082 0)
(0.92 -5.53267e-14 0)
(0.968707 -0.00195498 0)
(0.92 2.60103e-13 0)
(0.960188 0.0142284 0)
(0.92 -1.62918e-13 0)
(0.920014 1.79118e-06 0)
(0.920001 -2.8152e-07 0)
(0.92 1.42376e-13 0)
(0.92 1.15986e-14 0)
(0.92 1.58168e-13 0)
(0.92 4.57514e-14 0)
(0.92 7.34707e-14 0)
(0.92 4.67252e-14 0)
(0.92 8.07781e-14 0)
(0.967583 -0.000403683 0)
(0.966953 -4.06835e-06 0)
(0.92 -6.16998e-15 0)
(1.01265 -0.0733905 0)
(0.958757 0.0180905 0)
(0.92 7.40417e-14 0)
(0.907729 -0.00297084 0)
(0.92 1.28778e-14 0)
(1.04539 -0.0119216 0)
(0.92 -1.44998e-14 0)
(0.92 1.01149e-14 0)
(0.965444 0.00523487 0)
(0.970401 0.00409966 0)
(0.999935 -0.0690602 0)
(0.913782 -0.0113185 0)
(0.92 -7.17087e-14 0)
(0.997795 -0.0553479 0)
(0.92 -1.89117e-13 0)
(0.92 -1.11997e-13 0)
(0.92 -6.33627e-09 0)
(0.92 2.12641e-10 0)
(0.92 -1.88299e-13 0)
(0.936916 0.0310786 0)
(0.92 -3.55418e-14 0)
(0.92 -9.39647e-14 0)
(0.920191 -0.000340047 0)
(0.92 1.20144e-13 0)
(0.92 -8.50826e-14 0)
(0.92 -9.67375e-15 0)
(0.92 1.40201e-13 0)
(0.92 3.24363e-14 0)
(0.92 6.63235e-14 0)
(0.958112 0.0182523 0)
(0.92 1.086e-13 0)
(0.92 3.78337e-13 0)
(0.92 -2.00557e-14 0)
(0.92 9.24752e-15 0)
(0.92 4.25185e-14 0)
(0.92 1.69382e-13 0)
(0.92 1.8086e-13 0)
(0.92 -6.02265e-14 0)
(0.94385 0.0304895 0)
(0.92 -6.50916e-14 0)
(0.917439 -0.0571182 0)
(0.92 1.88152e-13 0)
(0.74723 0.0119929 0)
(0.969497 0.00762504 0)
(0.92 6.27055e-14 0)
(0.91578 -0.0266365 0)
(0.970152 0.00696078 0)
(0.768245 0.0653375 0)
(0.92 -1.73671e-13 0)
(0.92 1.8435e-13 0)
(0.92 2.12568e-13 0)
(0.92 -2.79537e-13 0)
(0.92 -2.78445e-14 0)
(0.914221 -0.00461143 0)
(0.92 -7.42596e-14 0)
(0.997439 -0.0732992 0)
(0.92 -4.60222e-15 0)
(0.92 -1.91e-13 0)
(0.92 1.61215e-13 0)
(0.997299 -0.0547589 0)
(0.92 -8.42976e-14 0)
(0.92 9.03241e-14 0)
(0.92 -2.13833e-13 0)
(0.92 -2.27703e-13 0)
(0.92 -2.39848e-13 0)
(0.914211 -0.0155018 0)
(0.92 -1.36747e-13 0)
(0.92 1.64317e-13 0)
(0.92 -1.28188e-13 0)
(0.92 1.97256e-13 0)
(0.974891 -0.00574802 0)
(0.92 -4.2561e-14 0)
(0.92 9.45762e-14 0)
(0.92 -2.4872e-14 0)
(0.92 6.03612e-14 0)
(0.975008 -0.00583365 0)
(0.936827 0.0330621 0)
(0.996033 -0.0511781 0)
(0.92 -8.11526e-14 0)
(0.92 -4.81059e-14 0)
(0.942338 0.0310228 0)
(0.92 -2.71709e-14 0)
(0.98904 -0.0773097 0)
(0.92 6.62797e-14 0)
(0.92 -1.16903e-13 0)
(0.92 -1.46164e-13 0)
(0.92 2.23159e-13 0)
(0.92 -9.63306e-15 0)
(0.92 1.21034e-13 0)
(0.940433 0.0290734 0)
(0.92 -5.00516e-14 0)
(0.92 4.60387e-14 0)
(0.92 -1.85079e-13 0)
(0.933095 0.0346223 0)
(0.92 7.22415e-14 0)
(0.995174 -0.0501624 0)
(0.946938 0.0264591 0)
(0.92 4.74516e-15 0)
(0.739526 0.0561231 0)
(0.913996 -0.0240728 0)
(0.92 -1.09966e-13 0)
(0.92 -1.51813e-13 0)
(0.997359 -0.0547052 0)
(0.92 -5.14466e-14 0)
(0.92 1.8149e-13 0)
(0.92 2.03977e-13 0)
(0.914174 -0.00466664 0)
(0.949415 0.0269831 0)
(0.967424 0.00229609 0)
(0.92 9.80001e-14 0)
(0.966315 0.00295943 0)
(0.92 -2.16247e-13 0)
(0.92 -2.42828e-13 0)
(0.92 -6.20504e-15 0)
(0.92 -1.02166e-13 0)
(0.92 -2.15289e-13 0)
(0.92 5.67821e-14 0)
(0.92 -2.55585e-14 0)
(0.92 6.60902e-14 0)
(0.92 9.49573e-14 0)
(0.92 -1.221e-13 0)
(0.92 -1.4905e-13 0)
(1.00075 -0.0783639 0)
(0.95487 -0.0703953 0)
(0.943486 0.0238795 0)
(0.946819 0.0249647 0)
(0.917366 -0.058174 0)
(0.95106 0.0227701 0)
(0.942135 0.0274666 0)
(0.92 -2.16645e-13 0)
(0.92 -3.7443e-14 0)
(0.92 -9.58933e-14 0)
(0.926951 0.0441833 0)
(0.92 -2.83009e-14 0)
(0.92 -5.02007e-14 0)
(0.92 -1.76955e-14 0)
(0.92 -6.31913e-14 0)
(0.92 4.51931e-14 0)
(0.92 1.19474e-13 0)
(0.92 9.53859e-14 0)
(0.92 2.08178e-14 0)
(0.92 -3.18065e-14 0)
(0.92 1.92015e-14 0)
(0.92 -1.5216e-13 0)
(0.92 2.90417e-14 0)
(0.92 4.49544e-14 0)
(0.91431 -0.0268711 0)
(0.979801 -0.01709 0)
(0.92 -7.43784e-14 0)
(0.92 -1.12809e-13 0)
(0.92 5.95238e-14 0)
(0.92 -6.07614e-11 0)
(0.92 -6.94664e-14 0)
(0.946841 0.0276909 0)
(0.92 5.11975e-14 0)
(1.00079 -0.0454334 0)
(0.92 5.10957e-13 0)
(0.922251 0.0469955 0)
(0.92 6.9662e-14 0)
(0.918873 -0.0579006 0)
(0.901322 0.056404 0)
(0.984484 -0.0185127 0)
(0.92 5.79273e-14 0)
(0.92 -1.9782e-14 0)
(0.92 -6.99747e-15 0)
(0.92 8.1632e-14 0)
(0.92 -2.69839e-14 0)
(0.92 4.56758e-14 0)
(0.92 4.53301e-14 0)
(0.913731 -0.00704254 0)
(0.92 1.2748e-13 0)
(0.92 -5.87318e-14 0)
(0.92 1.70293e-14 0)
(0.869404 0.0676766 0)
(0.92 -6.19462e-14 0)
(0.92 -2.79758e-14 0)
(0.92 6.17814e-14 0)
(0.838081 0.0426154 0)
(0.928161 0.0453727 0)
(0.989111 -0.0436264 0)
(0.92 8.52902e-14 0)
(0.92 -3.48588e-14 0)
(0.965493 0.00455014 0)
(0.92 1.66378e-13 0)
(0.92 -1.28302e-13 0)
(0.965359 0.00520317 0)
(0.92 5.69078e-14 0)
(0.92 2.74265e-14 0)
(0.92 3.90693e-14 0)
(0.913718 -0.0179056 0)
(0.92 -1.30223e-14 0)
(0.92 7.33537e-14 0)
(0.984766 -0.0196034 0)
(0.92 -3.22355e-14 0)
(0.92 5.84214e-14 0)
(0.92 2.95236e-15 0)
(0.960342 0.0144398 0)
(0.92 5.87897e-14 0)
(0.92 5.06164e-14 0)
(0.92 -1.5805e-13 0)
(0.92 -1.49756e-13 0)
(0.92 -1.08328e-13 0)
(0.971877 -0.0846414 0)
(0.92 2.25592e-13 0)
(1.02818 -0.0713245 0)
(0.92 5.52923e-14 0)
(0.994426 -0.0825829 0)
(0.91348 -0.0131027 0)
(0.945464 0.0260527 0)
(0.94187 0.0267995 0)
(0.960598 0.0143534 0)
(0.92 9.26169e-14 0)
(0.92 -5.70807e-14 0)
(0.884275 -0.010245 0)
(0.935336 0.0334118 0)
(0.92 4.57734e-14 0)
(1.0264 -0.0741001 0)
(0.915445 -0.0513683 0)
(0.948167 0.0254347 0)
(1.00014 -0.0447362 0)
(0.92 1.64305e-13 0)
(0.92 8.83709e-14 0)
(0.92 7.91727e-14 0)
(0.92 6.30771e-14 0)
(0.92 7.97254e-14 0)
(0.92 1.89787e-14 0)
(0.92 -9.6678e-14 0)
(0.927972 -0.0875833 0)
(0.910961 0.000142064 0)
(0.809642 0.00305744 0)
(0.92 -1.4454e-13 0)
(0.92 -5.31395e-14 0)
(0.976731 -0.00241091 0)
(0.92 6.48193e-14 0)
(0.802798 -0.006494 0)
(0.9332 0.0358935 0)
(0.92 -8.20242e-14 0)
(0.97609 -0.00248835 0)
(0.948455 0.0252735 0)
(0.875486 0.0663752 0)
(0.92 -2.22537e-13 0)
(0.92 -9.55965e-14 0)
(0.856584 0.0694474 0)
(0.92 -1.57619e-13 0)
(0.92 -1.88106e-13 0)
(0.92 3.16978e-14 0)
(0.914382 -0.00706515 0)
(0.92 8.15938e-15 0)
(0.92 1.81841e-13 0)
(0.92 -1.62647e-13 0)
(0.92 7.96212e-14 0)
(0.92 4.48063e-14 0)
(0.92 -2.05289e-13 0)
(0.936216 0.031672 0)
(0.92 1.11068e-14 0)
(0.960157 0.00702265 0)
(0.962057 0.00750825 0)
(0.92 1.38528e-13 0)
(0.92 1.94539e-13 0)
(0.92 -2.0503e-13 0)
(0.92 -2.06861e-13 0)
(0.92 -1.24342e-13 0)
(0.882611 -0.0585797 0)
(0.858174 0.0697548 0)
(0.913702 -0.0122243 0)
(0.92 9.42986e-14 0)
(1.1031 0.015534 0)
(0.92 -1.53117e-13 0)
(0.92 1.81813e-15 0)
(0.92 1.81587e-13 0)
(0.92 5.12062e-14 0)
(0.92 -2.17193e-14 0)
(0.92 3.84744e-14 0)
(0.92 -6.00473e-14 0)
(0.92 1.00498e-13 0)
(0.841242 0.00154286 0)
(0.92 2.7797e-14 0)
(0.92 -2.79856e-13 0)
(0.92 -3.31813e-13 0)
(0.92 7.42435e-14 0)
(0.92 1.77042e-13 0)
(0.92 1.62583e-13 0)
(0.92 -3.56963e-14 0)
(0.92 5.68014e-14 0)
(0.92 -9.06774e-14 0)
(0.92 -4.72982e-14 0)
(0.92 2.66726e-13 0)
(0.941739 0.0273359 0)
(0.92 -2.75479e-13 0)
(0.92 6.14061e-14 0)
(0.92 2.83597e-13 0)
(0.901602 0.0560091 0)
(0.92 8.05484e-14 0)
(0.92 -2.31352e-14 0)
(0.914255 -0.0147731 0)
(0.92 1.70879e-13 0)
(0.940035 0.0299605 0)
(0.914272 -0.00480842 0)
(0.92 -5.24788e-14 0)
(0.92 9.02091e-14 0)
(0.92 3.40946e-14 0)
(0.92 7.58554e-14 0)
(0.92 -1.27457e-14 0)
(0.92 -7.87003e-14 0)
(1.15679 -0.00504736 0)
(0.931845 0.0352457 0)
(0.981574 -0.0223132 0)
(0.92 -9.6085e-16 0)
(0.92 1.12026e-14 0)
(0.92 2.54475e-13 0)
(0.92 1.31293e-15 0)
(0.92 -6.21081e-14 0)
(0.92 -1.04764e-13 0)
(0.997472 -0.0373799 0)
(0.916571 -0.0313798 0)
(0.892346 0.0590286 0)
(0.92 1.80862e-14 0)
(0.92 7.11645e-14 0)
(0.913659 -0.013158 0)
(0.939932 0.0291764 0)
(0.92 -2.88967e-14 0)
(0.92 -6.78499e-16 0)
(0.92 2.0128e-13 0)
(0.92 2.02774e-13 0)
(0.892487 0.0590664 0)
(0.92 -1.2398e-13 0)
(0.92 -1.3582e-13 0)
(0.92 -1.5056e-13 0)
(0.900273 0.0566151 0)
(0.92 2.69543e-13 0)
(0.92 9.12339e-14 0)
(0.92 -8.51e-14 0)
(0.92 1.93961e-15 0)
(0.92 4.4317e-14 0)
(0.92 -3.64048e-14 0)
(0.913663 -0.00962071 0)
(0.92 -5.86049e-14 0)
(0.92 6.82943e-14 0)
(0.775172 0.0683364 0)
(0.92 7.81795e-14 0)
(0.925875 0.045634 0)
(0.956726 0.0105328 0)
(0.853695 0.0708579 0)
(0.957079 0.0105001 0)
(0.920001 1.29867e-07 0)
(0.92 9.02361e-14 0)
(0.914121 -0.00494151 0)
(0.92 -2.49522e-13 0)
(0.914438 -0.00697084 0)
(0.92 1.27178e-13 0)
(0.92 2.75091e-14 0)
(0.92 -4.47436e-14 0)
(0.92 -2.4281e-14 0)
(0.923129 0.0465275 0)
(0.92 3.9676e-14 0)
(0.92 5.78808e-14 0)
(0.92 -2.96255e-10 0)
(0.931103 0.0427223 0)
(0.92 9.97531e-14 0)
(0.92 -9.51193e-16 0)
(0.92 -2.6401e-14 0)
(0.975832 0.000118683 0)
(0.92 -3.2861e-14 0)
(0.97388 -0.0484927 0)
(0.92 -2.13443e-13 0)
(0.92 8.21872e-14 0)
(0.92 1.7471e-13 0)
(0.970544 -0.00294631 0)
(0.92 2.9107e-13 0)
(0.923328 0.0474222 0)
(0.923643 0.0466889 0)
(0.914025 -0.00556297 0)
(0.971866 0.000379353 0)
(0.92 -2.523e-13 0)
(0.92 1.02143e-14 0)
(0.92 1.14928e-13 0)
(0.988484 -0.0432792 0)
(0.961069 0.0127075 0)
(0.92 5.01628e-14 0)
(0.92 -1.66597e-13 0)
(0.92 -8.52467e-14 0)
(0.92 -4.08968e-14 0)
(0.92 9.72481e-14 0)
(0.989867 -0.0421399 0)
(0.644441 0.0151447 0)
(0.92 -2.74425e-13 0)
(0.970202 -0.00287065 0)
(0.92 1.19733e-15 0)
(0.962617 0.0118455 0)
(0.919739 0.0121815 0)
(1.02434 -0.0844849 0)
(0.92 3.15663e-13 0)
(0.92 -4.33114e-14 0)
(0.913818 -0.011691 0)
(0.929198 0.0376416 0)
(0.92 2.67937e-13 0)
(0.854262 0.0704514 0)
(0.92 -6.50667e-14 0)
(0.92 -1.33047e-13 0)
(0.92 -3.46849e-13 0)
(0.92 -9.14539e-14 0)
(0.92 2.62957e-14 0)
(0.92 -8.12401e-15 0)
(0.92 -3.27345e-14 0)
(0.92 -1.82656e-13 0)
(0.96515 0.00929037 0)
(0.92 7.2637e-14 0)
(0.92 7.41641e-14 0)
(0.92 -8.82318e-14 0)
(0.92977 0.0429942 0)
(0.92 2.8368e-13 0)
(0.92 4.07363e-14 0)
(0.92 1.80158e-14 0)
(0.92 -5.38995e-15 0)
(1.00742 -0.0743831 0)
(0.92 7.67439e-14 0)
(0.92 6.90792e-14 0)
(0.92 -5.56478e-14 0)
(0.963406 0.00962737 0)
(0.92 3.71571e-14 0)
(0.902723 0.0557312 0)
(0.656764 -0.0307649 0)
(0.92 1.31546e-13 0)
(0.92 3.71655e-14 0)
(0.913637 -0.0237296 0)
(0.92 -1.3739e-14 0)
(0.92 -3.56122e-14 0)
(0.92 7.4004e-14 0)
(0.969405 0.00157801 0)
(0.92 1.12003e-13 0)
(1.03007 -0.0113801 0)
(0.92 6.7923e-15 0)
(0.92 2.09795e-14 0)
(0.92 1.10002e-15 0)
(0.92 -1.72127e-13 0)
(1.02897 0.0295964 0)
(0.92 1.30336e-13 0)
(0.92 1.20382e-13 0)
(0.92 -3.53873e-13 0)
(0.92 -9.91545e-14 0)
(0.92 -2.95587e-13 0)
(0.92 4.60164e-14 0)
(0.962242 0.00922719 0)
(0.92 -1.52719e-13 0)
(0.934179 0.0338621 0)
(0.92 -9.21646e-14 0)
(0.92 -4.50261e-14 0)
(0.92 -1.10055e-13 0)
(0.939633 0.0298574 0)
(0.92 -8.04954e-14 0)
(0.92 -3.34937e-14 0)
(0.964625 0.0024314 0)
(0.917615 -0.0566179 0)
(0.92 1.4419e-14 0)
(0.92 1.42106e-14 0)
(0.990431 -0.0470185 0)
(0.92 -7.90826e-14 0)
(0.92 -1.03302e-13 0)
(0.92 1.49125e-13 0)
(0.92 -6.55726e-14 0)
(1.03114 -0.0763949 0)
(0.930041 0.0367603 0)
(0.92 6.43264e-14 0)
(0.92 1.48647e-13 0)
(0.914296 -0.00765529 0)
(0.929319 0.0437323 0)
(0.908029 0.0534755 0)
(0.850036 0.0713738 0)
(0.92 -1.01311e-13 0)
(0.92 -1.04671e-13 0)
(0.92 4.37937e-14 0)
(0.92 9.24908e-14 0)
(0.92 2.82026e-14 0)
(0.964954 0.00826505 0)
(0.92 1.0535e-13 0)
(0.92 -2.50239e-13 0)
(0.92 -2.333e-14 0)
(0.883902 -0.0775829 0)
(0.92 1.79145e-14 0)
(0.92 -1.56429e-13 0)
(0.92 -1.18381e-13 0)
(0.92 4.93869e-14 0)
(0.987979 -0.0693588 0)
(0.962584 0.00508252 0)
(0.92 -3.88678e-15 0)
(0.915762 0.0507415 0)
(0.92 -8.83129e-14 0)
(0.92 -2.05164e-13 0)
(0.985054 -0.0184154 0)
(0.92 2.9236e-14 0)
(0.92 2.06737e-14 0)
(0.977928 -0.0461565 0)
(0.92 -1.74756e-13 0)
(0.92 -4.41519e-13 0)
(0.92 -2.40048e-14 0)
(1.03624 -0.0276964 0)
(0.928251 0.0382536 0)
(0.92 1.44364e-13 0)
(0.950553 0.0240188 0)
(0.935848 0.0317189 0)
(0.944352 0.0295201 0)
(0.961745 0.00530911 0)
(0.918136 -0.0580372 0)
(1.00765 -0.0857273 0)
(0.92 1.90846e-14 0)
(0.92 9.38465e-15 0)
(0.92 3.05139e-13 0)
(1.00875 -0.0814581 0)
(0.92 -2.83658e-14 0)
(0.92 -1.19439e-13 0)
(0.92 -7.4293e-14 0)
(0.92 1.56672e-13 0)
(0.92 -2.2071e-13 0)
(0.91355 -0.00751143 0)
(0.976565 -0.0670907 0)
(0.92 9.87715e-14 0)
(0.92 -1.70434e-13 0)
(0.92 -1.27274e-13 0)
(0.92 -1.54209e-15 0)
(0.927485 0.0436593 0)
(0.920001 -1.76064e-07 0)
(0.92 3.97779e-14 0)
(0.914261 -0.0160259 0)
(0.930593 0.041532 0)
(0.92 1.5124e-13 0)
(0.92 6.5958e-14 0)
(0.92 2.90267e-14 0)
(0.92 -3.24721e-15 0)
(0.936419 0.0325354 0)
(0.92 1.89535e-13 0)
(0.944685 0.0297483 0)
(0.903641 0.0552017 0)
(0.92 -6.77249e-14 0)
(0.92 3.95884e-14 0)
(0.92 1.55589e-14 0)
(0.92 1.27449e-14 0)
(0.92 -2.5404e-11 0)
(0.92 -3.52598e-14 0)
(0.92 1.71238e-14 0)
(0.908762 0.0530745 0)
(0.981955 -0.0176569 0)
(0.916307 0.0504021 0)
(0.899604 0.0571345 0)
(0.914335 -0.00699259 0)
(0.92 -1.80386e-13 0)
(0.92 1.53957e-13 0)
(0.851641 0.0706852 0)
(0.980311 -0.0177062 0)
(0.92 5.75297e-14 0)
(0.92 1.0028e-14 0)
(0.92 -8.00886e-14 0)
(0.939918 0.0326766 0)
(0.92 5.99962e-14 0)
(0.92 -3.32517e-14 0)
(0.896899 -0.0395252 0)
(0.92 -1.52939e-13 0)
(0.99001 -0.0463127 0)
(0.999981 -0.0459383 0)
(0.92 7.10691e-14 0)
(0.92 -1.07424e-13 0)
(0.92 -3.70849e-14 0)
(0.92 -7.87286e-14 0)
(0.92 -3.68982e-14 0)
(0.92 -1.76923e-13 0)
(0.951945 0.0242439 0)
(0.92 1.62424e-13 0)
(0.92 -1.40672e-13 0)
(0.92 -5.5211e-14 0)
(0.92 6.74509e-14 0)
(0.92 7.68706e-14 0)
(0.92 -1.39889e-13 0)
(0.92 7.67364e-14 0)
(0.92 -3.4073e-14 0)
(0.92 -9.53769e-14 0)
(0.927422 0.0447715 0)
(0.92 1.03955e-14 0)
(0.92 -2.19963e-13 0)
(0.92 1.17741e-13 0)
(0.92 -6.83019e-14 0)
(0.955046 0.0168511 0)
(0.95391 0.0171541 0)
(0.92 2.40127e-14 0)
(0.92 7.25983e-14 0)
(0.92 1.76481e-14 0)
(0.92 -1.35431e-13 0)
(0.92 -2.94911e-13 0)
(0.932221 0.034919 0)
(0.92 -6.81036e-14 0)
(0.92 -2.65059e-14 0)
(0.916135 -0.00256155 0)
(0.92 9.69238e-14 0)
(0.898372 0.0567222 0)
(0.92 1.20209e-14 0)
(0.92 8.28096e-15 0)
(0.92 1.6646e-13 0)
(0.94677 0.0214331 0)
(0.92 -2.32093e-14 0)
(0.939912 0.0325908 0)
(0.997192 -0.0531375 0)
(0.92 5.60633e-14 0)
(0.969747 -0.0710458 0)
(0.92 -2.51682e-14 0)
(0.936142 0.0321543 0)
(0.92 -1.20872e-13 0)
(0.92 -8.74115e-14 0)
(0.92 9.83819e-14 0)
(0.92 2.46837e-14 0)
(0.92 -7.63251e-14 0)
(0.92 -9.42516e-14 0)
(0.92 5.86143e-14 0)
(0.941874 0.00155924 0)
(0.92 4.62182e-14 0)
(0.92 -3.28896e-14 0)
(0.92 -7.30087e-14 0)
(0.92 -1.38439e-13 0)
(0.984696 -0.0198438 0)
(0.92 -2.77356e-13 0)
(0.92 2.34004e-13 0)
(0.981929 -0.0361918 0)
(0.92 -2.26479e-14 0)
(0.92 -5.26206e-14 0)
(0.928099 0.0384933 0)
(0.92 -8.49502e-14 0)
(0.92 -3.65708e-14 0)
(0.913033 -0.00653891 0)
(0.92 1.19541e-14 0)
(0.92 -7.84507e-14 0)
(0.92 8.40116e-13 0)
(0.92 2.10439e-14 0)
(0.92 1.1666e-13 0)
(0.92 -2.99268e-14 0)
(0.92 3.17846e-14 0)
(0.933778 0.0341192 0)
(0.92 5.13957e-14 0)
(0.92 -9.58016e-14 0)
(0.92 1.05617e-13 0)
(0.996598 -0.052442 0)
(0.919457 -0.0576513 0)
(0.92 1.48883e-14 0)
(0.99894 -0.0417982 0)
(0.92 -1.20319e-14 0)
(0.92 -2.07613e-13 0)
(0.913506 -0.0123532 0)
(0.849962 -0.0788551 0)
(0.92 1.09188e-13 0)
(0.92 -4.65785e-15 0)
(0.92 2.03894e-14 0)
(0.92 -1.58191e-13 0)
(0.945826 -0.0850719 0)
(0.92 -1.00111e-13 0)
(0.92 -8.10127e-14 0)
(0.92 -2.0255e-13 0)
(0.92 1.16958e-13 0)
(0.993874 -0.0453399 0)
(1.02137 -0.0705726 0)
(0.946098 0.0280921 0)
(0.92 1.00055e-14 0)
(0.953398 0.0188879 0)
(0.92 1.02754e-13 0)
(0.92 7.64568e-14 0)
(0.95305 0.0193679 0)
(0.92 4.21936e-14 0)
(0.92 -5.68738e-14 0)
(0.92 -5.97044e-14 0)
(0.92 -9.76896e-14 0)
(0.92 2.76616e-13 0)
(0.933027 0.0356591 0)
(0.92 3.69375e-14 0)
(0.92 -5.32258e-15 0)
(0.92 1.73139e-13 0)
(0.92 -7.69604e-15 0)
(0.990837 -0.0866882 0)
(0.806214 0.0394965 0)
(0.92 6.05831e-14 0)
(0.913816 -0.012658 0)
(0.92 1.58358e-14 0)
(0.92 1.00112e-13 0)
(0.92 -4.72665e-14 0)
(0.925783 0.0398398 0)
(0.92 -1.44813e-13 0)
(0.92 -1.203e-13 0)
(0.92 9.40908e-14 0)
(0.92 -5.4181e-14 0)
(0.92 2.38102e-13 0)
(0.92 3.29657e-16 0)
(0.913054 -0.00619266 0)
(0.92 7.4455e-14 0)
(0.92 8.57588e-14 0)
(0.92 -8.503e-14 0)
(0.92 -8.43135e-14 0)
(0.926623 0.0454993 0)
(0.92818 0.0448368 0)
(0.92 3.75377e-14 0)
(0.92107 0.0460099 0)
(0.92 -4.84077e-13 0)
(0.92 -2.48994e-13 0)
(0.578086 -0.0370136 0)
(0.92 -7.52696e-14 0)
(0.92 1.89126e-13 0)
(0.92 1.01386e-13 0)
(0.92 -3.57669e-14 0)
(0.612314 -0.0437531 0)
(0.612697 0.0039744 0)
(0.92 -3.72444e-15 0)
(0.92 -2.00395e-14 0)
(0.92 -7.31381e-14 0)
(0.92 1.79837e-14 0)
(1.01476 -0.0802571 0)
(0.92 5.28751e-14 0)
(0.92 -1.32405e-14 0)
(0.905914 0.018858 0)
(0.92 -8.43959e-14 0)
(0.947776 0.0262198 0)
(0.92 2.0237e-13 0)
(0.92 -9.94044e-14 0)
(0.92 2.37478e-13 0)
(0.92 -3.03015e-14 0)
(0.92 1.89536e-13 0)
(0.9322 0.0362587 0)
(0.92 -8.0533e-14 0)
(0.92 6.58015e-15 0)
(0.968082 -0.0491962 0)
(0.92 -4.36916e-13 0)
(0.77026 -0.0477126 0)
(0.92 -7.94637e-14 0)
(0.92 -3.60111e-15 0)
(0.92 -6.1355e-14 0)
(0.98282 -0.0188545 0)
(0.702151 -0.0448574 0)
(0.935232 0.0401899 0)
(0.914736 -0.00355752 0)
(0.92 8.61148e-14 0)
(0.924429 0.0442708 0)
(0.92 3.6137e-14 0)
(0.92 7.83877e-14 0)
(0.89381 -0.0922987 0)
(0.877164 0.0671045 0)
(0.947261 0.0270967 0)
(0.894105 -0.0680004 0)
(0.914099 -0.00554343 0)
(0.963026 -0.0674334 0)
(0.92 -3.76787e-13 0)
(1.0038 -0.0611722 0)
(1.01473 -0.0878611 0)
(1.02066 -0.086141 0)
(0.92 1.6404e-13 0)
(0.92 4.16126e-14 0)
(0.92 9.97087e-14 0)
(0.92 8.49101e-14 0)
(0.924384 0.040438 0)
(0.988286 -0.0355357 0)
(1.03969 -0.0781101 0)
(0.992146 -0.0379889 0)
(0.92 3.31441e-13 0)
(0.962958 -0.0422379 0)
(0.92 -4.24736e-14 0)
(0.952835 -0.07599 0)
(0.620127 0.00649795 0)
(0.779815 0.0679866 0)
(0.92 -1.10719e-14 0)
(0.956667 -0.0643335 0)
(0.714623 -0.0241502 0)
(0.92 -6.98584e-14 0)
(1.05001 -0.0627273 0)
(0.92 -5.39648e-14 0)
(0.913757 -0.0095734 0)
(0.92702 0.0387781 0)
(0.92 1.88732e-13 0)
(0.92 4.10447e-14 0)
(1.00757 -0.0652496 0)
(0.975203 -0.0509929 0)
(0.886253 0.0608041 0)
(0.952285 -0.071565 0)
(0.92 1.20041e-13 0)
(1.04936 -0.0611175 0)
(0.966294 -0.0571076 0)
(1.05687 -0.0583875 0)
(0.92 -4.62567e-14 0)
(0.92 1.63342e-13 0)
(0.916511 -0.0540462 0)
(0.99807 -0.060103 0)
(0.939884 -0.0671366 0)
(0.92 -9.89289e-14 0)
(0.92 -1.81427e-14 0)
(0.924856 0.0437648 0)
(0.930305 -0.0817396 0)
(0.92 1.53184e-13 0)
(1.06392 -0.058546 0)
(0.648066 -0.026001 0)
(0.927406 0.04242 0)
(0.933945 0.0405647 0)
(0.967816 -0.00117674 0)
(0.92 -1.28248e-15 0)
(0.92 6.5014e-14 0)
(0.92 -7.03803e-14 0)
(1.03631 -0.0562687 0)
(0.92 -4.27826e-13 0)
(0.92 6.95006e-14 0)
(0.92 -4.85959e-14 0)
(0.92 -4.15244e-13 0)
(0.967968 -0.0014023 0)
(0.95844 -0.0599188 0)
(0.933265 0.0411913 0)
(0.983155 -0.041703 0)
(1.00208 -0.0426095 0)
(1.00058 -0.0425438 0)
(0.92 2.12446e-14 0)
(0.966206 -0.0420622 0)
(0.964802 -0.0449079 0)
(0.92 6.44898e-14 0)
(0.92 -6.09567e-14 0)
(0.92 -6.46183e-14 0)
(0.92 -7.48789e-14 0)
(0.969842 -0.0473809 0)
(0.92 -2.26632e-14 0)
(0.931873 0.0347216 0)
(0.932678 0.0355631 0)
(0.92 -3.39957e-14 0)
(0.929532 0.0373287 0)
(0.92 5.96613e-14 0)
(0.92 8.14178e-14 0)
(0.931553 0.0411563 0)
(0.92 -4.56118e-14 0)
(0.92 -6.64373e-15 0)
(0.92 -5.86398e-14 0)
(0.928314 0.0438199 0)
(1.02351 -0.0679971 0)
(0.92 3.28493e-14 0)
(0.91875 0.0498629 0)
(0.504036 0.00448128 0)
(0.967464 -0.0577563 0)
(1.01781 -0.0512797 0)
(0.979067 -0.0213156 0)
(0.92 1.71614e-14 0)
(0.965556 -0.0420168 0)
(0.92 -4.89664e-14 0)
(0.92 5.32749e-14 0)
(0.913703 -0.0203251 0)