/*--------------------------------*- C++ -*----------------------------------*\
  =========                 |
  \\      /  F ield         | OpenFOAM: The Open Source CFD Toolbox
   \\    /   O peration     | Website:  https://openfoam.org
    \\  /    A nd           | Version:  12
     \\/     M anipulation  |
\*---------------------------------------------------------------------------*/
FoamFile
{
    format      ascii;
    class       surfaceScalarField;
    location    "8.43";
    object      phi;
}
// * * * * * * * * * * * * * * * * * * * * * * * * * * * * * * * * * * * * * //

dimensions      [1 0 -1 0 0 0 0];

internalField   nonuniform List<scalar> 
33852
(
0.000251329
2.24281e-05
-0.000273757
-0.000246121
1.32441e-05
0.000232877
-0.000178017
-7.36436e-05
0.000245657
0.000304053
-0.000163969
-0.000140085
0.000293904
-4.28546e-05
-0.000249658
2.72441e-05
-0.000260681
0.000233437
0.000315527
1.48227e-05
-0.000330352
0.000304277
-9.59564e-05
-0.000208321
0.000286413
-3.50841e-05
0.000202657
1.21507e-06
-0.000203984
0.000289562
-0.000366359
7.69752e-05
0.000361338
-4.58503e-05
-4.39602e-05
0.000263285
-0.000219325
-4.39594e-05
0.000318176
-0.00027414
6.20051e-05
-0.000241216
0.000252057
1.2236e-05
-0.000264293
0.000264853
-1.2796e-05
-0.000278433
3.23121e-05
0.000340843
-5.11477e-05
0.000158593
0.000112308
-0.000270901
-2.43146e-05
0.000303356
-0.000279044
0.000271377
-0.000276165
4.78802e-06
-1.79848e-05
0.000277039
-0.000258103
-0.000222145
1.4395e-05
0.000207763
-0.000154092
-0.000183517
0.000337696
-0.000147117
-7.0153e-05
0.000205508
3.72401e-05
0.000267037
-6.18732e-05
-0.000265185
0.000325697
-0.000204648
1.13842e-06
0.00021154
-0.000204242
-1.91878e-05
0.000142045
0.000137388
-0.000279433
0.000341689
1.93966e-05
0.000142618
0.000128347
-0.000270965
-0.000101136
0.000259729
-0.000250489
-3.78001e-06
0.000254269
0.000329837
-5.90842e-05
-0.000271027
-0.000357144
0.00020368
-0.000227855
0.000210969
0.000231645
3.32081e-05
-5.65602e-06
0.000237301
-7.466e-06
0.000209523
-0.000232625
0.000259869
0.000317982
-5.77256e-05
-0.000259175
-0.000309093
5.51042e-05
0.000253989
0.000241819
-0.000304437
0.000273589
-0.000306321
3.27321e-05
-0.000180237
-5.49362e-05
0.000235173
0.000272133
-0.000272133
0.000148429
-0.000297473
0.000149045
-0.000209671
0.000217623
-7.1937e-06
-0.000268241
0.000237301
3.09401e-05
-0.000198713
0.000244137
-4.68908e-05
-9.16164e-05
-0.000217477
-0.000114425
-0.00025189
-0.000280169
0.000266113
1.40561e-05
0.000329448
1.18412e-05
-0.000250433
7.01963e-05
0.000117908
0.000145909
-0.000263817
1.34681e-05
-0.000267457
0.000253989
-0.000134569
0.000282997
-0.00015172
-5.01537e-05
0.000197861
-0.000274681
0.000245113
2.95681e-05
0.000237553
-0.000268437
3.08841e-05
-0.00017864
-2.25915e-05
0.000151665
0.000115565
-0.00026723
-0.000190429
-2.81827e-05
0.000217725
0.000263985
2.24281e-05
0.000275941
-2.35201e-06
0.000265329
-0.000250741
-1.45881e-05
0.000228112
-6.54657e-05
-0.000165289
-1.82001e-06
0.000239373
0.000365905
-0.00031333
-5.39596e-05
-2.87727e-05
0.0003073
-0.00027693
-0.000101584
0.000219493
0.000341353
2.42185e-05
-0.000370323
0.000352064
1.78295e-05
-0.000212592
2.23009e-05
0.00030932
-0.000321754
1.23027e-05
-0.000207937
0.000272131
-6.38627e-05
-4.45202e-06
1.70744e-05
-0.000319266
0.000301987
0.000235087
-0.00019908
-3.53012e-05
0.000269812
-0.000338529
7.00225e-05
0.000334676
-6.36245e-05
-0.000268941
0.000236573
3.23681e-05
-0.000129388
-0.000132609
0.000261997
-1.86761e-05
-0.000249565
-1.022e-05
-0.000258721
2.34962e-05
0.000206168
-0.000235082
3.17612e-05
-0.000226468
0.000192708
-2.47483e-05
0.000327897
-0.00029981
-0.000279329
0.000273701
5.62802e-06
0.000156129
-0.000296857
0.000140729
-6.04964e-05
-0.000151748
0.000213713
0.000143277
0.0001218
-0.000265077
-0.000250166
0.000225749
-0.000214446
0.000155812
-0.000168813
0.000327181
-0.000158369
0.000185389
7.16523e-05
-0.000257041
0.000255193
2.07481e-05
-0.000192277
0.000148317
5.10909e-05
0.00026748
0.000306838
-0.000289902
9.19691e-05
-0.000246388
0.000135241
0.000117096
-0.000281065
-9.7042e-07
0.000243244
-0.0002444
0.000166489
0.000122836
-0.000289325
0.000144983
9.04642e-05
-3.92002e-06
0.000259113
0.000303232
5.40216e-06
-0.000323952
0.000315077
8.8764e-06
-3.99002e-05
0.000236293
-0.000196393
4.08802e-06
-0.000284257
-2.53218e-05
0.000158993
-0.000143137
-0.000158411
0.000124435
0.000210941
-0.000180586
-0.000269921
0.000264965
4.95602e-06
2.64041e-05
0.000174721
-0.000201125
2.87841e-05
-0.000257265
0.000228481
0.000276137
-0.000262669
0.000115108
0.000212073
0.000214052
-0.000193609
-0.000175813
0.000202217
1.39773e-05
0.00028474
-0.000297608
0.000272001
2.21327e-05
0.000269656
-0.000283634
1.22141e-05
3.86402e-06
0.000267513
-1.79498e-05
0.000287132
0.000330899
9.94547e-06
0.000213816
-0.000257723
0.00031658
-0.000316395
-6.63603e-06
-0.000272693
2.79219e-05
0.000194609
0.000187993
3.98722e-05
-0.000227865
-5.50749e-05
0.000220041
-0.000163553
0.000153609
-0.000270285
0.000116676
0.000279441
-0.000329701
5.02602e-05
-6.38122e-05
0.000249201
-0.000166909
0.000315897
-0.000148989
-0.000314061
-9.96304e-06
-0.000214929
0.000175029
2.78601e-05
-0.000278349
0.000276221
-1.88441e-05
-0.000248613
1.71034e-05
-0.000301268
0.000285046
0.000344989
-0.000158593
-0.000186397
-1.67938e-05
-0.000240042
0.000257349
-0.000266617
-3.30401e-06
0.000224001
2.45841e-05
-0.000248585
0.000284509
-0.000128381
0.000140197
0.000138853
-0.000279049
-0.000197846
-1.06169e-05
0.000258169
-0.000115551
0.000226011
-0.000242541
-6.38122e-05
0.000251805
-0.000207695
0.000249481
-5.60002e-07
-0.000248921
0.000255109
-0.000237441
-0.000321354
0.00029974
-3.08841e-05
0.000203169
-0.000172285
0.000292898
1.38853e-06
-0.000294266
7.13574e-05
0.00012567
-0.000197551
4.49198e-05
-0.000199236
-0.000289074
-4.53486e-06
0.000292526
-1.49021e-06
-0.000289262
0.000146973
-0.000273925
0.000126952
-0.000263163
0.000221504
-0.000295703
0.000268074
0.000279441
-0.0003125
-1.24086e-05
0.000324909
0.000111054
0.000162008
-2.14418e-05
0.000351418
0.000140141
0.000139833
-0.000279973
0.000245029
-0.000250349
5.32002e-06
-0.000210953
0.000180069
0.000279133
-5.43202e-06
0.000350802
-3.26132e-05
-0.000301871
0.000304
-9.71761e-07
0.000270985
-0.000270985
-0.000364504
0.00022588
0.000138691
-0.00019841
1.83048e-05
1.68669e-05
0.000275157
-0.000278461
3.30401e-06
-5.10145e-06
0.000172677
-0.000167675
-0.000197345
0.000254801
-5.74562e-05
-0.000206327
4.49936e-06
-0.000236921
0.000154839
7.68535e-05
-0.000180264
0.0002614
-8.11352e-05
0.000256285
-0.000287113
3.08281e-05
-0.000249229
5.18842e-05
-2.33974e-05
0.00027629
-0.000252828
-0.000253547
1.35801e-06
0.000252189
0.000231281
-7.28003e-06
-0.000294407
7.58961e-06
0.000286629
-0.000266085
0.000266085
-0.000283678
-5.49074e-05
-0.000170616
-0.000193871
-0.000171839
0.000217734
-4.51569e-05
-1.232e-05
-0.000239177
0.000251497
3.10801e-06
0.000210113
-0.000213221
-0.0001852
-2.24242e-05
0.000207418
7.55791e-06
0.00029457
-0.000302226
-0.000236153
-1.34401e-05
0.000249593
1.50361e-05
-0.000251189
-0.000241025
0.000256061
-0.000301446
0.00030895
0.000256117
7.16803e-06
-0.000171784
-3.23786e-05
0.000205303
-0.000145237
-0.000134765
-0.000244329
0.000240549
0.000298588
-4.58929e-07
-0.000298228
-0.000298873
5.83661e-07
0.00029824
1.91356e-05
0.000181217
0.000163773
7.70045e-05
-0.000257269
-0.000159242
0.000310908
0.000250721
-0.000108677
-0.000235145
-1.83681e-05
0.000253513
-0.000204589
-0.0001269
0.000331391
-6.10402e-06
-0.000229125
0.000235229
-2.18705e-05
-0.000182216
-0.000286019
-8.54654e-05
6.27146e-06
-0.000300829
-0.00021269
0.000328141
-0.000115164
0.000281597
0.000288205
-5.16322e-05
0.000271993
-1.57081e-05
-0.000187859
-1.42043e-05
0.000201337
0.000297261
5.02924e-07
-0.000297684
-0.000269378
-3.31398e-05
-0.000218821
0.000247605
-2.52871e-05
0.000310606
-0.0002853
0.000177623
7.9997e-06
-0.000185279
-3.42488e-05
0.000214571
-0.000301196
0.000275925
0.000292275
6.1015e-06
-0.000297084
0.000157445
0.00011886
-0.000276305
0.000290283
4.84874e-06
-0.000294651
-0.0002617
0.000126878
0.000136697
-0.000282581
0.000296928
0.000302513
-0.000156857
-0.000145657
0.000207005
-0.000203897
-0.000232009
-0.000121156
-0.000155009
-4.01246e-06
-0.000293985
0.000297995
-1.0136e-05
0.000276249
0.000293286
-2.11462e-05
-0.000271744
-0.000262929
2.90024e-05
0.000234223
0.000271433
-0.000267569
0.000249621
2.95121e-05
0.000314912
-9.76595e-06
-0.000305172
4.9742e-05
0.000157388
-0.000205153
-0.000102205
0.00019247
-9.69551e-05
0.000252617
-2.91201e-05
-0.000223497
9.11729e-07
0.000292181
-0.000183435
-3.19627e-05
0.000214819
-2.08755e-06
0.000291651
-9.33244e-05
0.000246933
-0.000255417
-5.26402e-06
0.000121184
0.000181329
1.34121e-05
0.000241557
-0.000254969
0.000236097
1.34961e-05
-0.000249593
0.000249509
-0.000242929
0.000256425
6.39272e-05
-0.000201281
0.000139341
-0.000221224
0.000118339
-0.00020213
0.000297314
1.44768e-06
-0.00029871
0.000253849
2.22881e-05
0.000268493
-0.000216441
-5.20522e-05
0.000225518
-0.000246849
2.13305e-05
0.000257909
1.40841e-05
5.76683e-05
0.000295131
0.000267186
-3.89594e-05
-0.000228226
0.000176355
1.274e-05
0.000240297
-0.000253037
0.000195777
-0.000114749
-8.05427e-05
-0.000206466
2.12409e-05
-1.2303e-06
-0.00029773
0.000299077
0.000220182
-0.000167993
-5.25813e-05
0.000344693
-4.13438e-05
0.000275969
-0.000135829
2.31561e-05
0.000238337
-0.000261493
-0.000231141
0.000254297
-2.66555e-05
-0.000229762
0.000256441
0.000157397
-0.000162709
-7.79521e-05
-0.000174954
-0.000261723
4.14346e-05
0.000220288
-3.17521e-05
-0.00022997
7.12571e-06
0.000261717
-3.25193e-05
-0.000229198
1.6703e-05
0.000127647
-0.000202109
0.000308785
-0.000171397
0.000262319
-3.57923e-05
-0.000226526
-0.000319358
0.000175388
-9.69302e-05
-0.000228453
-6.90203e-05
-3.96567e-07
-0.00029791
0.000298255
-2.79377e-05
0.000178936
-0.000152307
0.000308059
6.82665e-06
0.000250097
-0.000248249
-1.84801e-06
-0.000176387
6.19304e-05
0.00026027
-3.07147e-05
-0.000229559
0.000197345
-0.000250769
5.34242e-05
0.000254205
-0.000231206
-2.29991e-05
-0.000252337
0.000240017
0.000143514
0.000100734
-0.000101864
-0.000170269
0.000132496
-0.000261885
-0.000290249
0.000242201
4.80483e-05
0.000216809
3.12478e-05
-0.000248056
-0.00023856
-9.52375e-06
0.000246568
0.000329344
-2.232e-05
0.000263996
-3.42721e-05
-0.000229724
0.000139851
-0.000239251
8.81585e-05
3.63259e-05
-0.000265637
0.000229311
-0.000253905
0.000121296
0.000249817
-5.24722e-05
0.000294673
-0.000154253
-0.000140421
0.000122248
-0.000289157
1.53441e-05
0.000237665
-0.000253009
-0.000262031
3.54705e-05
0.00022656
-2.75974e-06
-3.77917e-05
-0.000224239
0.000249276
-0.000272775
-0.000264649
3.44737e-05
0.000230175
0.000193257
0.000101416
-0.000149941
0.000290137
-0.00017149
-3.8093e-05
0.000210711
-1.81721e-05
0.000263201
-0.000292271
0.000310191
0.000116684
0.00010322
0.000261325
-0.000261325
0.00031027
-2.17665e-05
-0.000290623
5.32002e-07
0.000248949
0.000254857
1.65761e-05
0.000309156
-0.000276136
-3.31532e-05
-2.26336e-05
0.000266577
-0.000243943
3.00077e-05
-0.000260519
0.000230511
-0.000252139
0.000229506
0.000330619
3.11501e-05
-0.000260598
0.000229447
0.000276809
-3.16961e-05
-5.65151e-06
-0.000295559
0.000301871
0.000270551
3.85894e-05
0.000230245
-0.000266617
3.63721e-05
0.000200541
-0.00020302
-0.000258301
0.000238533
1.97681e-05
0.000169762
-0.000257245
8.74835e-05
-0.000205319
0.000163241
-0.000249145
8.59043e-05
-0.000266169
0.000224813
4.13562e-05
0.000253073
-2.78797e-05
-0.000225194
0.000177521
4.35587e-05
-0.000234837
-2.29601e-05
0.000257797
-0.000236377
-2.28761e-05
0.000259253
-1.94265e-05
0.000255969
-0.000236542
-0.000259345
0.000239919
-3.36309e-05
0.000164141
-0.000235929
-2.24001e-05
0.000258329
-0.00025484
0.000229192
2.56481e-05
2.94001e-06
0.000211289
-0.000214229
-0.000267031
3.79849e-05
0.000229046
0.000270677
4.48002e-06
4.22847e-05
0.000169368
-0.000206969
-3.31199e-05
0.000249928
-2.11923e-05
0.000218597
9.73004e-05
0.000248202
-0.000216951
0.000276965
-0.00028017
0.000276272
-0.000282246
-1.84997e-05
0.000258601
-0.000240101
-0.000261644
0.000243145
3.07705e-05
-0.000202653
-3.0009e-05
-0.000199977
0.000232968
0.000314937
-0.000287401
-2.73891e-05
0.000261297
-3.11081e-05
-0.000230189
3.28739e-05
-0.000262362
0.000229488
-0.000229853
0.000259645
-2.97921e-05
0.000325643
-1.76181e-05
0.000148314
-0.000215939
0.000256929
-0.000109956
-0.000287047
0.00028836
0.000241977
-6.41202e-06
-0.000235565
0.000228537
-0.000175891
-3.7883e-05
0.000214964
2.81974e-05
-0.000206684
-0.000239989
0.000260317
-2.03281e-05
-0.00010436
0.000191465
-8.61244e-05
3.02651e-05
-0.000200212
0.000240169
-0.000263424
2.32552e-05
-0.000115584
0.000258861
-0.000243993
0.000265721
-2.17281e-05
-0.000238953
0.000232541
0.000258626
-0.000245105
-1.35213e-05
0.000264349
-2.46681e-05
-0.000246317
-0.000274885
-1.06864e-05
0.000296415
-5.43442e-05
-9.2686e-06
0.000290809
-0.000281558
-0.00016664
0.000213958
0.000229285
1.76903e-05
-0.000245966
0.000328997
-0.000329206
0.000260955
-0.000245018
-1.59377e-05
-0.000300598
-5.56088e-07
0.000305532
9.70509e-06
3.72131e-05
0.000167209
-0.000202609
0.000206569
-3.29363e-05
-0.00017461
0.000278054
-0.000255789
-2.22648e-05
-0.000212953
3.17804e-05
3.15421e-05
-0.000261891
0.000230348
0.000285445
-0.000291322
2.44721e-05
-0.000259617
-0.000257965
1.87881e-05
0.000266057
-1.64361e-05
0.000151173
-0.000267625
0.000116452
0.00029887
-4.39029e-06
0.000238617
-7.53763e-05
2.12521e-05
0.000177045
-0.000198297
-0.000183877
0.000205129
-0.000236275
0.000257219
-2.09441e-05
0.000261462
-3.31689e-05
-0.000228293
-0.000197009
-5.21362e-05
0.000251581
-1.48401e-06
8.62547e-06
-0.000263921
0.00025446
-0.000341044
0.000236885
0.000106632
0.000266371
-0.000236811
-2.95597e-05
0.00030696
-0.000314754
7.8059e-06
-2.57041e-05
-0.000229097
0.000254801
0.000261493
-7.64403e-06
1.02516e-05
-0.0002092
0.000262411
-3.19033e-05
-0.000230508
-6.90483e-05
-0.000260653
-0.000194685
0.000248025
-5.33402e-05
-0.000266533
0.000249985
1.65481e-05
-0.00031813
1.66858e-05
-1.72889e-05
0.000296403
-0.000279817
-0.000276221
1.65481e-05
0.000249537
-0.000167554
6.50558e-05
0.000273884
1.47528e-05
-0.000288832
-0.000316081
0.000307831
8.23381e-06
3.46641e-05
-0.000263649
0.000228985
-1.74941e-05
0.000281291
-0.000315305
1.63637e-05
-0.000176541
-7.42283e-05
-0.00023046
0.00020447
-2.16721e-05
-0.000216469
0.000238141
-0.000314594
0.000295802
1.87838e-05
-0.000132263
0.000271436
-0.000141338
-8.40754e-06
3.31521e-05
-0.000263453
0.000230301
-0.00019867
2.48934e-05
0.000181145
0.000221529
0.000280185
-0.000280592
3.27078e-07
-0.000236993
-2.20921e-05
0.000224813
-0.000202721
0.000139273
0.000143753
-0.000278517
0.000202705
-5.75693e-05
0.000308108
-1.06154e-05
0.000208735
-0.000268534
2.92853e-05
0.00022306
-0.000252345
-0.000322154
0.000138101
0.000296492
2.914e-05
1.94214e-05
-0.000224355
-2.77845e-05
-0.000137633
-0.000132783
-0.000326593
0.000113886
0.000242873
2.56201e-05
0.000218765
-0.000224869
1.07267e-05
-0.000287517
0.000277161
-0.000244098
0.000271377
-2.70696e-05
0.000281523
-0.000281989
0.000281261
-7.64722e-05
-8.86454e-06
0.000290369
-1.87881e-05
0.000247101
-0.000228313
0.000281508
-0.000290383
-5.53185e-06
-0.000283923
0.000289608
0.000282086
-0.000269881
0.000284579
0.000226314
2.67597e-05
-0.00030728
0.000316613
-9.14178e-06
0.000250944
-2.15449e-05
0.000225063
2.43361e-05
-0.000268913
0.000246057
-2.05381e-05
-0.000259401
3.02849e-05
0.000229116
0.000178305
7.64963e-05
1.03439e-05
0.00028182
-0.00029204
-0.000238141
-2.88401e-05
0.000266981
2.51441e-05
-0.000263285
0.000284117
-0.000162317
-0.000232177
0.000261129
-2.89521e-05
-0.000234697
0.000260709
-2.60121e-05
1.33328e-06
0.000278864
2.45001e-05
-0.000259197
2.38001e-05
-0.000255977
0.000274273
-0.000242841
-3.13611e-05
0.000317876
-1.00274e-05
-0.000306748
-4.85781e-07
-0.000255753
1.1816e-05
0.000243937
-1.45333e-05
-0.000261185
0.000228065
-0.000245337
0.000270145
-2.48081e-05
-0.000263229
1.49801e-05
-2.35646e-05
0.00028619
-0.000262598
2.13641e-05
-0.000266701
-0.000241656
-2.13884e-05
3.25685e-05
-9.0432e-05
0.000260194
0.000280813
-0.00028637
5.05122e-05
0.000237693
0.000282098
-0.000281989
-0.000243181
-2.39401e-05
0.000267121
-0.000260894
7.34723e-06
-0.000294942
1.95337e-05
0.000275905
-0.000268717
2.55361e-05
-8.69795e-06
0.000290123
-0.000268326
0.000243549
2.47772e-05
-0.000232513
0.000210841
0.000280505
-0.000289257
-6.16002e-07
0.000260289
-0.000259673
-0.000301956
-1.61262e-05
-0.000264573
2.35481e-05
-0.00024417
-2.41556e-05
-3.43281e-05
-0.000297907
0.000293895
0.000286674
-0.000158327
0.000295122
-0.000288981
2.30152e-05
4.85982e-06
0.000262214
-0.000255202
-7.13008e-06
0.00030751
-2.01763e-05
-0.000287413
5.98519e-05
-0.000246765
-2.19521e-05
-0.00035584
0.000241369
0.000285992
-0.000279424
2.33801e-05
-0.00019015
-1.58661e-05
-0.000306599
2.57553e-05
0.000280963
-0.000198864
0.000308933
-0.000114501
0.000259841
-0.000238533
-2.13081e-05
-0.000291728
2.94001e-05
0.000222097
-0.000251497
-0.000163128
0.000133658
-0.000162037
0.000251441
-0.000238029
-1.34121e-05
-0.000263873
3.40201e-05
-2.23161e-05
-0.000269837
0.000251469
0.000230427
3.12901e-05
-4.69877e-05
0.000206034
0.000232619
-0.000260499
-1.74259e-05
-3.54058e-06
0.000247741
-0.000243982
-0.000293478
-0.000237049
0.000265189
-2.81401e-05
0.000230096
3.22225e-05
-0.000268521
2.55921e-05
-0.000239905
-2.86161e-05
0.000228954
-0.000260706
-0.000282373
4.73202e-05
-0.000242005
0.000294387
-0.000284121
-0.000288763
1.31683e-05
0.000274259
-5.89143e-06
0.000213648
0.000228551
-0.00026107
0.000296885
-0.0001309
-0.000165985
0.000240448
-0.000262175
0.000268629
-0.000226213
-1.76681e-05
-0.000164515
0.000307535
-0.000142823
2.49649e-05
0.000222662
-0.000247627
-0.00019337
0.000193425
-0.000283827
0.000282565
6.98779e-06
-0.000290933
-0.000302485
0.000146693
0.000155793
0.000259995
-0.000239359
-2.06361e-05
-0.000215741
0.000193649
0.000261741
3.45991e-07
0.000257293
0.000232526
2.16798e-05
-0.000295258
-6.14615e-05
1.05618e-05
0.000232801
-0.000250535
1.76635e-05
-0.000230917
-2.37161e-05
0.000254633
-0.000242295
0.000263191
-2.08965e-05
8.28998e-05
0.000134591
2.02934e-05
-0.000305828
0.000285675
0.000256565
-1.80041e-05
-0.000238561
0.000243881
-0.000254017
1.0136e-05
-0.000226745
0.000207957
0.000223131
-0.000258923
-0.000244693
4.76842e-05
1.59568e-05
-0.000137571
-0.000218306
1.57921e-05
0.000245701
0.000281306
0.000292944
0.000305773
1.67343e-06
0.000249817
-0.000220417
2.51749e-05
0.000225009
-0.000250184
-0.000243178
0.000268865
-2.56873e-05
2.28201e-05
-0.000262725
-0.000116914
0.000296501
9.17589e-06
2.08181e-05
0.000261675
-0.000235103
-2.65721e-05
1.31302e-05
-0.000303842
0.000290678
0.000321797
-3.10701e-05
-0.000290613
0.000249733
1.63241e-05
0.000305816
-0.000292841
-0.000228616
-0.000111381
9.63204e-06
0.000250657
-4.9129e-05
-0.00020239
0.000251519
2.20333e-05
0.000246832
-0.000241686
-2.29629e-05
0.000260737
-2.24001e-05
0.00028775
-0.000268023
2.63369e-05
2.68241e-05
-0.000257965
0.000210617
-0.000207677
2.58161e-05
-0.000262865
0.000281407
0.000121744
-0.000256173
0.000134429
1.69161e-05
3.86961e-05
0.000165068
-0.000203343
-0.000239485
-2.85377e-05
3.9331e-05
0.000159021
-0.000197683
-0.000246691
0.000271066
-2.43747e-05
0.000209866
-0.000248826
1.98857e-05
1.73706e-05
-0.000176048
-3.05962e-05
0.000226689
-0.000257415
-2.88401e-05
0.000244245
-0.000215405
-2.16161e-05
0.000242985
-0.000221369
0.000201657
-0.000250786
-0.000273699
-0.000232905
-2.55081e-05
0.000258413
0.000241234
2.98318e-05
-0.000212136
-2.4121e-05
0.000236762
-2.18821e-05
-0.000224967
-0.000239345
6.28042e-05
0.000259004
-0.000229718
4.75106e-05
-0.000249901
-3.43394e-05
0.000257694
-0.000223354
0.000205675
-0.000240014
0.000261689
-1.1956e-05
-6.06764e-05
-0.000229572
-0.000224835
-1.74693e-05
0.000241383
0.000247109
5.3175e-05
0.000212448
-0.000265623
-0.000261088
0.000177353
-0.000231757
5.44042e-05
6.48838e-05
0.000137303
0.000259457
-0.000240915
-2.47224e-05
-0.000265385
0.000227165
3.82201e-05
-2.87813e-05
-0.000222158
0.00025094
-0.000284107
0.000264161
0.000234501
3.61761e-05
2.18821e-05
0.000234087
-0.000307217
0.000151089
0.000156129
0.000169246
-5.26114e-05
0.000254045
-0.000115192
2.56901e-05
0.000217446
-0.000243136
-0.000286162
0.000287258
9.23085e-06
0.000257377
-0.000245953
0.000208937
3.70161e-05
0.000254832
0.000245133
-1.96677e-05
-0.000246815
-2.02161e-05
-0.000263019
2.0724e-05
-0.000269215
2.24001e-05
2.79601e-05
0.000220024
-0.000247984
0.000242481
-0.000274597
1.32721e-05
0.000246842
-1.39361e-05
1.296e-05
-0.000251532
-0.000328739
0.000124023
-0.000233135
-2.62109e-05
-0.000252113
0.000252113
0.000259782
-0.000144217
-1.84503e-05
-0.000279659
0.000297328
0.000272391
0.000258749
-0.000135913
0.000224113
2.39205e-05
0.00023468
7.91632e-05
-0.00034383
3.78385e-05
0.000258962
1.76363e-05
-0.000248843
-3.00917e-05
0.000207453
-3.01001e-05
0.000259701
2.95429e-05
0.000218353
-0.000247896
-3.05014e-05
-4.09782e-05
-0.000217818
0.000258797
-0.000233423
-2.14173e-05
3.72208e-05
-0.000196935
0.000162451
-3.30877e-05
0.000221671
-0.000255943
-0.000281715
-8.54013e-06
0.000290263
-0.000197681
0.000166223
0.000166349
8.16763e-05
1.28272e-05
-0.000294782
0.000235075
2.59446e-05
-0.000261019
-0.000196212
-1.37519e-06
0.000232743
-0.000264287
3.15449e-05
-8.42803e-06
-0.000217029
0.000225457
-0.000161069
0.000200706
-0.000249985
-3.46025e-05
0.000256274
0.000218076
-0.000252679
-0.000246289
0.000272245
-2.59561e-05
0.000253547
2.78321e-05
-0.000232062
-2.95821e-05
-0.000298337
0.000316542
-1.82657e-05
2.34932e-05
0.000212462
-0.000250254
-0.000267233
2.09441e-05
-2.12801e-05
-0.000245953
-3.61481e-05
0.00024861
-0.000290062
-1.37588e-05
0.00022082
-0.000256968
0.000247448
-0.00024987
1.53162e-06
2.80002e-06
0.000181413
-0.000184213
0.000255294
0.000234529
2.67681e-05
-2.62361e-05
0.000245001
-0.000218765
3.36001e-05
0.000216609
-0.000250209
0.000244861
2.73841e-05
0.000306545
-0.000143949
-0.000162597
1.61657e-05
0.000239441
-0.000255145
0.000271013
-0.000113568
0.000225569
-0.000256677
-0.00024121
0.000104606
-0.000265469
7.16803e-06
-0.000241635
-2.75801e-05
-0.000241361
-2.48081e-05
0.000312428
-2.83212e-05
-7.67483e-05
0.000243097
-1.1452e-05
-0.000215601
0.000224281
-8.68003e-06
0.000255193
-7.68883e-05
3.45011e-05
-0.000198442
0.000164496
-0.000265245
-1.40001e-07
-4.14962e-05
3.97996e-05
0.000159775
-0.000197571
0.000201494
-0.0001649
0.000257041
-7.05603e-06
0.000251151
-0.000218277
-1.81297e-05
-2.1128e-05
0.000270127
-9.48921e-05
-0.000182555
-1.42801e-05
-0.000191913
0.000206193
0.000258665
-1.53553e-05
-0.00024331
1.98101e-05
0.000238855
-0.000279237
-8.04021e-06
3.68426e-05
-0.000193953
0.000155964
1.36921e-05
0.000247997
-0.000160903
0.000196174
-1.95189e-05
0.000248711
3.39813e-05
0.000186856
-0.000218035
-4.17202e-06
-2.49389e-05
0.000265108
-0.000231955
-3.14693e-05
0.000297209
-0.000281969
-1.52286e-05
1.63717e-05
-0.000237659
0.000221288
-0.00010514
0.000226885
1.94024e-05
-0.000305005
0.000285608
2.52001e-05
-2.79441e-05
2.69165e-05
0.000308795
-0.000289427
0.000238891
1.97345e-05
2.15601e-06
0.000231617
-0.000233773
-0.000310304
2.56227e-05
0.000284823
-0.000162177
-0.000144145
0.000209178
-0.000250156
-0.00015859
0.000241924
1.90317e-05
0.000256744
-4.13534e-05
0.000250531
0.000214498
-0.000255851
0.000318702
-0.000319259
-1.06687e-05
0.000287543
-0.000276725
-0.000302921
1.95385e-05
0.000283592
4.20842e-05
-0.000286413
-3.90459e-05
0.000252483
2.62921e-05
-2.21684e-05
0.000307232
-0.000285104
2.43321e-05
3.97846e-05
0.00016044
-0.000203437
0.000249294
-0.000219751
2.83277e-05
-0.000261633
4.36802e-06
-1.99107e-05
0.000306572
-0.000286674
-0.000250987
-0.000266673
3.07441e-05
0.000252141
-0.000236741
-1.54001e-05
1.2264e-05
0.000239877
-0.000276222
-1.30122e-05
0.000255697
-6.64685e-06
0.000316081
-1.21359e-05
0.000298365
-0.000285689
-4.85955e-05
0.000247437
-0.000235621
0.000257601
-1.99361e-05
0.000131518
8.34411e-05
-0.000223878
0.000212964
3.03493e-05
0.000226759
-0.000258662
3.71393e-05
0.000271935
-0.000289043
1.6854e-05
0.000251273
-0.000239093
-1.31321e-05
0.000252225
-2.91201e-05
-0.000257265
2.56481e-05
0.000231617
-0.000228005
-2.92601e-05
0.000259765
-0.000233571
-2.61941e-05
0.000258721
-0.00026758
2.54352e-06
0.000291585
1.23332e-06
-0.000292202
0.000248991
-0.000232737
-1.85921e-05
0.000308612
-0.000300421
-8.03096e-06
0.000241309
-0.000101491
-0.000266897
2.56761e-05
0.000241221
-3.48881e-05
-0.000232009
-0.000266393
2.51161e-05
0.000241277
-1.19925e-05
-0.000266875
0.000279604
-3.45241e-05
-0.000231869
-0.00026132
1.89686e-05
-0.000266281
2.43881e-05
0.000241893
-0.000284053
-2.17195e-05
-0.000306045
2.76692e-05
0.000278454
-3.34041e-05
-0.000232877
-0.000166453
-0.000258133
2.94001e-05
0.000228733
0.000308924
-0.000309162
-0.000195805
0.000209049
-3.29281e-05
-0.000225205
0.000197304
-0.000278778
8.15998e-05
0.000283718
2.22693e-05
-0.000301953
1.76961e-05
0.000285667
-0.000280805
-4.8894e-06
-0.000257125
0.000231617
2.55081e-05
0.000169167
2.67644e-05
-0.000192618
-0.000266953
2.81681e-05
0.000238785
-0.000227361
-2.97641e-05
-3.67361e-05
-0.000230217
0.000277262
0.000297331
1.91481e-05
-0.000275897
-3.16658e-05
0.000307871
-0.000258679
-1.08101e-05
0.000297773
-0.00028683
1.49639e-05
-0.000301911
0.000286774
-0.000230609
-0.000307407
0.000287387
0.000263005
-2.55231e-05
-0.000280618
1.36081e-05
0.000168556
0.00023053
1.87081e-05
-0.000249852
-0.000200406
0.000162925
0.000236738
1.31517e-05
-0.00024989
-0.00025833
2.66093e-05
0.000231721
-1.09228e-05
0.000247661
5.74002e-06
0.000246877
-3.19817e-05
-0.000226348
0.000299624
-0.000285726
-1.38837e-05
0.000228024
-0.000226666
0.000289866
0.000237685
1.98521e-05
-0.000257537
-1.24236e-05
0.000250108
0.000246636
1.50389e-05
-0.000305434
1.53791e-05
0.00024448
2.18905e-05
3.2285e-05
-0.000199696
-0.000287205
-1.78122e-05
-0.000182869
0.000295177
-0.000151305
0.000184325
-3.32581e-05
3.09344e-05
-0.000200064
0.000167282
-0.000167684
0.000259149
-0.000239236
-1.99137e-05
0.000262367
-0.000274283
-0.000240914
0.000230953
-2.19338e-05
0.000301697
-0.00027989
0.00030787
-0.000293052
0.000242117
1.77241e-05
-0.000224975
0.00024443
-1.94545e-05
1.61001e-05
-0.000241075
-7.00003e-06
0.000260989
-0.000297262
4.90774e-06
0.00029234
-0.000174497
0.000160217
-1.74105e-05
-6.30687e-06
-0.000290948
-1.67818e-05
-0.000285184
4.28402e-06
-0.000299274
0.000134849
-0.000257457
2.37381e-05
0.000233811
0.000238197
1.32441e-05
-3.08153e-05
-0.000226655
-3.283e-05
-0.000288597
2.05926e-05
-0.00022822
0.000205986
0.000254969
-0.000233465
-2.15041e-05
-0.000198228
0.000218696
-0.000185856
-7.45443e-06
0.000203887
0.000132702
0.000132537
4.22356e-06
0.000272614
0.000279688
-0.000305294
3.05631e-06
0.000243266
-1.98646e-05
0.000298572
-0.000278374
-0.000302204
0.000287567
1.47024e-05
-0.000258301
0.000230077
2.82241e-05
-2.64041e-05
-0.000231897
0.000299827
-0.000303252
0.000267795
-2.00901e-05
0.000304253
-0.000284301
0.000286258
-5.05549e-07
-0.000256873
0.000256873
-0.000267927
0.000295565
-0.000145198
-6.69903e-05
-7.26707e-06
0.000294311
-0.00028732
-0.000297494
0.000290376
0.000292359
-0.000280058
0.000291718
-0.0003065
1.47156e-05
3.42753e-05
-0.000241375
0.000218139
2.23489e-05
-1.44701e-05
-0.000247519
0.000228946
-1.43248e-05
0.000298427
-0.000284034
0.000263481
-1.96001e-05
0.000254224
-0.000235464
-1.87601e-05
-3.10731e-05
-0.000274009
0.00030464
1.43854e-05
-0.00029719
0.000282718
-1.45881e-05
0.000233465
-0.000218877
0.000214484
-0.000295664
0.000283745
-1.91523e-05
0.000304656
-0.000285494
0.00025102
-2.68742e-05
0.000297488
-0.000270663
-0.000295864
0.000268622
1.07156e-05
0.000244749
-0.000255465
0.000305242
-0.000312184
6.86878e-06
1.78525e-05
1.46679e-05
0.000286267
-0.000301471
6.39279e-06
0.000284501
2.29241e-06
-0.000318626
-0.000290005
0.000304639
-0.000242481
0.000243657
8.45603e-06
-0.0002264
0.000242772
-0.000293357
0.00027422
0.000284731
-0.000159022
-8.452e-05
0.000294256
1.45819e-05
3.16397e-05
-0.000197346
0.000167654
-0.000274564
0.000257293
-0.000219535
0.00024982
0.000243411
1.92865e-05
-0.000262697
0.000236019
2.31309e-05
-0.000300683
0.000281971
0.000312464
-1.8065e-05
0.000237945
-0.000257069
1.91241e-05
-0.000222494
0.000247459
0.000294435
1.81092e-05
-0.000166725
-1.45799e-05
0.000298438
-0.000283863
-0.000142582
-0.000266415
0.000159993
0.000106423
-0.000309074
0.000295347
1.3669e-05
-0.000258699
0.000241826
1.68729e-05
-0.000154537
0.000156355
-0.000306268
0.000288588
1.78343e-05
-0.000213753
0.000179824
-9.69084e-06
0.000253101
2.04846e-05
1.76402e-05
-0.000304588
0.000287048
-0.00030126
-7.04924e-06
0.000308365
-0.000249229
0.000220109
-0.000201153
-8.52603e-05
-0.000272485
0.000251493
0.000304188
-0.000286539
-0.000193217
1.8178e-05
1.50563e-05
0.00028454
-0.000299582
-8.80603e-05
0.000239233
-0.000302569
1.93138e-05
0.000283713
-0.000209192
-2.63206e-06
-0.000298152
-0.000165903
2.05297e-05
0.000302345
-0.000287667
-1.45826e-05
-0.000173874
-0.000299316
-0.00017477
-2.24951e-05
0.000243528
0.00028946
1.71079e-05
0.000252869
5.73116e-05
-0.000283143
-0.000247213
-0.000269831
-2.33618e-05
-0.000274571
0.000300412
-0.000262937
0.000282629
-0.000161774
-4.21242e-05
0.000205686
0.000197569
1.56521e-05
-0.000213221
-1.24801e-05
-0.000285593
0.000298105
1.83597e-05
1.85207e-05
-0.000305206
0.000286313
0.000253345
-1.71361e-05
-0.000236209
1.88983e-05
-0.000304773
0.000285866
2.03561e-05
0.000232989
0.000216385
-2.46121e-05
-0.000191773
1.57299e-05
0.000282455
-0.000298093
-0.000250123
0.00011784
-0.000303873
1.85543e-05
0.000285168
0.000225587
-5.07532e-05
-0.00029604
1.01197e-05
0.000282624
0.000255837
-2.19801e-05
-0.000233857
-0.000306947
0.000107211
0.000234529
1.70521e-05
-0.000251581
0.000280248
1.70382e-05
0.000304144
-0.000285257
1.80258e-05
-0.000299772
0.000233512
1.84916e-05
-0.000252004
-1.90271e-05
-1.42272e-05
0.000298307
-0.00028398
-0.000280388
0.000300303
-0.000278692
0.000292015
-0.000302262
1.13507e-05
0.000249741
-1.62291e-05
1.16182e-05
0.000250041
-1.55121e-05
0.000298375
-0.000282574
3.95922e-05
-0.000237519
2.21481e-05