/*--------------------------------*- C++ -*----------------------------------*\
  =========                 |
  \\      /  F ield         | OpenFOAM: The Open Source CFD Toolbox
   \\    /   O peration     | Website:  https://openfoam.org
    \\  /    A nd           | Version:  12
     \\/     M anipulation  |
\*---------------------------------------------------------------------------*/
FoamFile
{
    format      ascii;
    class       volScalarField;
    location    "8.43";
    object      T;
}
// * * * * * * * * * * * * * * * * * * * * * * * * * * * * * * * * * * * * * //

dimensions      [0 0 0 1 0 0 0];

internalField   nonuniform List<scalar> 
22702
(
1
1
0.966288
1
1.0184
1
1.1208
1
1
0.892987
1.12058
1.12099
1
1.11843
0.973188
1
1
1
1.12073
1
1.11877
1
1.12056
0.895128
1.11903
0.885553
1
1.12201
0.892273
0.895924
1
1.12063
1
1
1
1.10996
1.11915
1.12022
1
1
0.892409
1
1.06303
1
1.12253
1
1
1
1
0.897263
1
0.893875
1
1.12023
1
1.12041
1
1
1
1
0.884816
1
1
0.887477
1
0.895965
1
1
1
0.893195
1
1.1187
1.07801
1
1.11784
1.12377
0.897709
1.12009
0.89885
1
1.12106
0.898385
1.11911
1.12048
1
1
1
1
0.979975
0.892933
1.11948
1
1
0.892196
1
1.11881
0.891518
1
1
1
1
1.0639
1.12078
0.893932
1
1
1.03209
1
0.899069
1
1.11994
1.12027
1
1
0.88174
0.877681
0.892105
1
1
1
1
1
0.97613
1
1.10408
1.01596
1.11883
1
1.11749
1.12111
1.11864
1.1208
1
0.889771
1
0.890091
1
1
1
1
1.1207
1
1
1
1
1.11799
1
1.00702
1
1
1
1
0.894425
1
1.00308
1
0.899884
1
1
1
1.11852
1
1.11972
0.871011
0.888279
1.11832
1.11986
1
1.02404
1.07267
1
1.12003
0.899579
1.10986
1
1
1
1
1.11846
1.09933
1
1.12037
0.886745
1.1199
1
0.899747
1
0.897511
0.883307
0.99994
1
1
1.12109
1
1
1.11859
1
1.11872
1.12034
0.898263
1
1
0.89577
1.1187
1
1
1
1.11864
1
0.894495
1
1
1.11861
1.11857
1.11907
1
1.00001
1
1
1
1.1186
1
0.893042
1.12291
1.11877
1.11849
1
1
1
0.892993
1.1184
1.05805
1
1.11893
0.890451
0.891222
1.11888
1.11791
1
1.11965
0.899661
1.1074
1
1
1
1
1.11846
1
1.07196
1.01261
1
1
1.11861
0.888834
0.932551
1
1.11912
0.896711
1.11924
1
1
1
1
1
1
1
0.895501
0.936254
0.889893
1.11864
1
1
1
1
1.10852
1
0.899385
1
0.890473
0.897138
1.11856
0.896046
1.11875
1
1
1
0.99937
0.898673
0.893705
1
1
0.889148
1
1.12079
0.894546
1
1
1.12113
0.871435
1
1.11724
0.884939
1.11858
1
0.893019
0.999397
1
1
1
0.893509
1
1
1
1
1.00558
1.07909
1
0.898015
1
1
1
1
1
1
1
1.12101
1
1.1217
1
1
1
0.890951
1
1.11824
0.895458
1
1.09691
1
1
1.12036
1
1
1
1.11887
1
1
1.11817
1.12035
1
1.02854
1
1
0.889657
1
1
1
0.891802
1
1
1
1
0.88365
1
1
1
1
1
0.893907
1.00002
1.11982
1
0.999994
1.11932
1.11885
1
1
0.901226
0.939963
1.12046
1
1
1
1.11848
0.893807
1
1.11953
1
1
0.903367
0.904203
1
0.898949
0.888095
1
1
1
1
1
1
1
1.12107
1.03055
1.11252
0.892658
0.974122
1.12159
1
1.11763
1.12037
0.881876
0.926883
1
0.895634
1
1.12563
1
1
1
1
1.11858
1
1
1
1
1
1
1
1.04563
1.11886
1
1.11869
1
1
0.898718
1
1
1
1
1.11867
1.09292
1
1
0.898936
1.1188
1.11856
1
1.11853
1.11854
1.11865
1
0.947505
1
1.11839
0.99756
1.11863
1
0.888685
0.999701
1.12061
1
1
1
1
0.897951
1.1186
1.10784
1
1.11837
1.11846
1.12046
1
1.06025
1.11888
1
1
1.085
1.01975
1.1187
0.976346
1.11866
1
1.1186
1.11851
1.11857
1.11865
1
1.11396
0.974473
0.967358
1
1
1
1
1.1198
1
1
1
1
1
1.12038
1
1
0.99887
1.11857
1.10626
1
1.10233
1.00001
1
1
1.1186
1
0.999004
1.00147
1
1.11846
1
1.11868
1
1
1.08967
1
1.11871
1.00001
1
1.11951
1
1.11867
1
1
1
1.11846
1
1.11756
1
1.11852
1.1209
1.11859
1.12114
1
1.12029
1.11739
1
0.898986
1.11209
1.08908
1
1.11857
1
0.889059
0.882748
1
1
1
1
1
0.891752
1
1.11864
1.03537
1.11869
1
1
1
1
1
1.11851
1
1.11989
1.07335
0.927053
1
1
1.03621
1.03133
1
1
1.04547
1
0.899771
1.11869
1.11872
1
1
1
1.12072
1
1.00001
1.11818
1.11836
0.986241
1
1
0.897844
1.10877
1
1
1
1
1
1.11859
1.1204
1
1.11944
1.11768
1.11855
1
1
1
1
0.89209
1.12071
1
1
1.10894
1.11823
1
1.11208
1.11739
1
1
1
1
1
1.11848
1
1
1
1
1.11936
1
1.11704
0.893531
1
0.883606
1
1
1
0.999068
0.898929
0.999741
1
1
1
1.01695
1
1
0.962515
1
1
1
1
1
1
1
0.999999
0.980369
1
1
0.999327
1
0.897832
1
1
1
1
1.09027
1
1
1
1
0.896238
1
1
1.11229
1.12079
1
1
1
0.967691
1
1
1
1
1
1
0.987027
1.00583
1.11853
1
1
1
1.11908
0.971905
1
1
1
1.12162
1.11956
1
1
1
1
1
1
1
1
1
0.889978
1
1
1.11966
0.895178
1
1.11957
1
0.894414
1
1
0.889225
1
1
1
1
1
1
1
1.11651
1.1184
1
1
1
1
1.10924
1
1.04067
0.898847
1
1
1
1
1
1
1
1.01111
1
1
1.06694
1
1
1
1.10188
1
1
1
1
0.892778
1
1
0.884341
0.89324
1
1
1.1184
1
1.01257
1
1
1
1.08542
0.884758
1
0.883366
1
0.9305
1
1
1
1.11924
1
1
1.1183
1
1
1
1.11835
1
1
1.11854
1
1
0.881139
1
1.04029
1
1
1.12113
1.12158
1.08256
1.10749
1
0.887716
1
1
1.1136
1
0.891848
1
1
1
1.11863
1
1
1
1
1.07486
1
1.10701
1.11903
0.893198
1
1
0.891463
0.883831
1
1
1
1.08706
1.09148
1
1
1
1
1
1
1
1.05494
1.1219
1.00358
1
1.11704
0.889085
1
1
1
1.06768
1
1.02563
1
1.10914
1.11795
1
0.889043
1
1.12061
1
1
1.1184
1.11162
1
1.12102
1
0.887932
1
1
1
1.12049
1.11646
1.10524
1
1.11967
1.11846
1
1.11885
1
1.11794
1
0.895297
0.994632
0.890839
1
1
1
1
1
1.11863
1
1.11864
1
1
1
1.11321
1
0.896577
1.11831
1
0.896884
0.893344
0.892114
1
1.0626
1.0127
1.11952
1.11853
1
1
1
1
1.11863
1
1
1.11861
1.1186
1
1.04354
0.999928
1
0.999106
1.11742
0.958597
1
0.947986
0.899849
0.899969
0.985858
1.12093
1.11693
1.02693
1.1182
1.11861
1
1
1.12151
1.12076
1.11827
1.12072
1
1.11835
0.897124
1.11859
1.11845
1.12021
1.11959
0.960108
0.972072
0.980937
1.11846
0.988228
1.11886
1
1
1.11914
1.11857
1
0.89612
1.11927
1.11857
1
1.1188
1.11857
1
1.11861
0.896331
1.11928
1.12263
1.12049
1.12039
1
1
1
1.11849
1.08008
0.908423
1.11839
0.887507
1.11845
1
1
1
1
1.11801
1.11856
1
1
1.11871
0.887911
1.11879
0.897688
1
1.11777
1
0.893099
1.11884
0.914222
1
1.11837
1.11942
1.1193
1
1
1.06008
1.11925
0.90023
1.11859
1
1.11784
0.967273
1.119
0.887546
1
1.11821
0.901316
1.11894
0.894383
1
1.11863
1
1.11821
1
1.07265
1.11459
1.09535
0.883054
1
1.11856
1
1.11815
1
1.11864
1
1
1.11857
0.996432
1.11923
0.893542
1.10615
1
1.08986
1
1.11889
1.11862
1.11888
1
1.10773
1.11852
1.11076
1.07577
1.1161
1
1.08234
1
1.11848
1
1.01872
1
1.11054
1
1.11775
1.11336
1.11338
1
1.12004
0.880691
1
0.890934
1
1
1
1.12021
1
1.11864
1
1
1
1.119
1.11896
1.10453
1.11815
1.11904
0.884942
1.11938
1.11914
1
1.10463
1.11857
1.11875
1
1.12033
1.12084
1
1.12002
1.11886
1.11868
1.11881
1
1
1
1.1197
0.89865
1
1.11865
1
1
0.883831
1
1
1.1186
1.11842
1
1.11861
1.12012
1.11781
0.994759
1.11854
1
1.11853
1.11829
1.0967
1
1
1
1.11871
1.11864
1.11857
0.98297
1
1.12124
1.11858
1.11859
1
1.11861
1.11856
1.11853
1.12116
1
1.11824
1.11848
1.10602
1.11833
1.12049
1
1.11805
1.11725
1.11838
1.11817
1.11855
0.888745
1.1184
1.1182
1
1.11848
1.11832
1.1185
1.11895
1
1.11812
1.11866
1
1.11857
1.10132
1
1
1
1.11853
1.12024
1
1
1.06728
1
1.11864
1
1
1.11858
1.11895
1.11855
1.11861
1
1
1
1.08739
1
1.11764
1
1
1.11836
1.12295
1
1.11846
0.886151
1.11856
1.1191
0.921077
1
0.881366
1.10615
1.11945
1.11966
1.12033
0.883119
1.11839
1.11917
0.881396
0.882769
1
1.11707
1.11898
1
1
1.11814
1
1.11902
1
1.10493
1
1.05953
1.11868
1.1192
1.08753
1.10483
1.11932
1.11897
1.10992
1
0.891042
1.11991
1.11872
1.12014
1
1
1
1.1208
1
1.11859
1.11842
0.919895
1
1.11851
0.999982
1
1.00001
1.00001
1.1189
1.11885
0.999568
1
1
1.11905
1.11926
1.11928
1.11957
1.11827
0.887316
1.10833
1
1.11779
1.11851
1.11864
1.11973
1
1.11858
1.11559
1.11888
1
1.11895
1.11814
0.957767
1.11849
1.11898
1
1.11868
0.953131
1.11858
0.953828
1.11866
1
1.11922
1.12206
1.11857
1.11865
1.11929
1.11957
1.1187
1.11951
1
0.978761
1.11852
1.11875
0.954794
1.11854
0.996891
1.08108
1.11858
1.11793
1.1189
1
1.11939
1.07964
1.11869
0.977411
1.119
1.1217
1
0.963978
1
1.11409
1
1.08414
1
1.11113
0.96484
1
1.12038
1.12085
1
1.11897
1.11946
1.12042
1.1197
1.11987
1
1.12103
1
1
1
0.972011
1.11892
1.11818
1.11864
1.11847
1.11961
1.11862
1.11594
1.11866
0.972221
1.00861
1
1
1.12343
1.11854
1.11859
1.11858
1.00001
1.06382
1
1.12002
1.10483
1
1
0.922607
1.11824
1
1
0.89726
1.11866
1
1.12047
1.11874
1.11929
1.11429
1.11912
1
0.883388
1.03101
1.11859
1.11903
1
1.11788
1.1186
1.06246
1.00264
1.02881
1
1.1186
1.11855
1
1
0.884418
1
1
1.11852
1.11856
1.119
1.11903
1.11851
1.11992
1.11821
1.11924
1.11865
1
0.998815
1.11837
1.11974
0.99909
1.11867
1.11835
0.884245
0.893398
1.11886
1.12027
1
1
1.00025
1.11829
1.1192
1.1186
1
1.11856
1
0.964858
1.12045
1.121
1
1.0571
1.11891
1
1.1189
1
1.11842
1.07757
1.11836
1
1.11815
1.11914
0.88291
1.11825
1
1.11851
1.12155
1
0.885084
1.11952
1.09707
0.999386
1.11394
1.11823
1
0.999832
1.11778
0.999479
1.11857
1
1
1.11826
1
1.11828
1.11862
0.999017
1.09484
1
1.11829
1
1
1
1
1.11856
1
1
1.11819
1
1.11856
1
1.0791
1.11742
1.11814
1
1
0.999021
1
1.11894
1.11866
1.11893
1.11879
1.11854
1.1184
1.11837
1
1.1188
1.11723
1
1.1186
1.1189
1
1.11879
0.9795
1.01659
1.11843
1.11862
1.11848
1
1.11881
1
1.11867
1.1188
1
1.11745
1
1
1
1
1.11823
0.881759
0.999404
1
1.11836
1.11875
1
1.11853
1
1.00158
0.896563
1.11924
0.999879
1
1.12003
0.999544
1.11807
1
0.999923
1
1.11993
1.11964
1.11975
1.11897
0.895892
1.11921
1.11823
1.11866
1.03023
1
1
1.05502
1.11855
0.880193
0.893868
1
1.11831
1.1186
1.11921
1
1
1.11821
1.118
0.999965
1
1.08671
0.888665
1
1.02239
1.12073
1.11755
0.999498
1.1187
1.1216
1
0.999693
1
1.11797
1.11771
1.05031
1
1.11258
1
1.00043
1.11863
0.891058
1.11845
1.11881
0.999132
0.999975
1.1028
1
0.999914
1
1.11908
1
1
0.881475
1.1187
1
1
1
1
1.11959
1.0699
1
1
0.891611
1.11891
1.07058
1
1
1
1.11398
1.11402
1.12069
1
1
1.12089
1
1.11848
1.11864
1
1
1.11874
1.1186
1.11505
1
1
1.11853
1.11878
1
1
1
1.11902
1
1
1
1.11882
1.12018
1.11913
1
1.11966
1.00001
0.906931
1.11842
1.11846
1
1.11967
1.11382
1.12094
1
1
1.11962
1
1.06527
1.11859
1
0.885036
1
1.11946
1
1
1.11821
1
1
1
1.04088
1.11877
0.905814
1
1.11914
1
1
1.11896
1
1.11963
1
1
1.11874
1.11863
1
1.00002
1
1
1
1
1
1
1.11791
1.1187
1
1.12023
0.892482
1.11903
1
1.11882
1.12066
1.11886
1.11917
1.12088
1
1
1.11841
1
1.07795
1.11955
1.11859
1
1.11884
1.11815
1
1.10704
1
1.11879
1.07954
1.1184
0.999262
1.11328
1.1101
1.11867
1.11879
1.01058
1.11846
1.11895
1
1.11864
1
1.11868
1
1
1
1
0.998934
1.11864
1.11862
1.0981
1
1.11944
1
1
1
0.899366
1
1.1161
1
1.10797
1.11555
1
1
1
1.11199
1.11836
1
1
1.1191
0.889374
1.02233
1
1.11971
1.11868
1.10871
1.11564
1.11875
1
1.11876
1
1
1
1
1.1188
1.11889
1
1.11592
1.01763
1.11867
1.11109
1
1
1.11103
1
1
0.891041
1.08541
1
1
1.11706
1
1.11902
1.10946
1
1.10931
0.88986
1.11869
1.11817
1.11894
1
0.893274
1
1
1
1.11866
1.09833
1
1.12095
1.11893
1
1.11873
1
1
1
1
1.11877
0.999807
1
1.11932
1
1
1.11969
1.11855
1
1.11942
1.02558
1.00001
1
1.11833
1
1.11825
1
1.00378
1.1186
1
1.11899
1
1
1.04175
1.11871
1
1
1
1
1
0.999063
0.88802
0.884517
1.0057
1
1.00786
1
1.00928
1
1.11855
1
1.07809
1
1.11854
1
1
1
1.11863
1
1.09578
1.11809
1
1.06659
1.11833
1
1
1.11995
1.11819
1
1
1.01598
0.883149
1
1.11906
1
1
1
1
1.02076
1.11855
1
1
1
0.891588
1
1.11849
1.11846
1.1207
1
1
1
1
1.06183
1.1215
1
1
1
1.11929
1.11871
1.01737
1
1
1
1.11873
1.11863
1
0.885189
1.11851
1.11863
1.11808
1.11948
1.11925
1
1
1.11846
1.11797
1.11864
0.890628
1.01156
1.11872
1
1
1
1
1
1.11865
0.891563
1
1
1.11855
1.05667
1
1.11884
1
1
1
0.890281
1
1
1.03568
1.1185
1.11774
1
1.11763
1.11861
1
1.02207
1
1.12015
1
1.11788
0.889823
1
1
1
1
1.11865
1.00002
1
1
1
1.11132
1
1
1
1
1.11854
0.888117
1.09533
1.1195
1
1.11794
1
1
1
0.999183
1
1.12032
1
0.939525
1
1
1.00001
1.11717
0.896768
1
1.1193
1
1.11803
1.11871
0.893099
1
1
1.11416
1
1
0.884877
1
1.116
1
1.11374
0.999783
1.11893
1
1
1
1
1.11987
1
1
1.11855
1
1
1
1
1
1
1
1
1.0806
1
1.04208
1.11866
1
1
1
0.885902
1
1
1
1
1.12088
1.11847
1.0183
1
1
1.11911
1
1
1.11857
1
1
1
1
1
1
1.11806
0.927895
1.11852
1.11927
0.999131
1
1
1
1.07404
1
1
1.11858
1.11882
1
1
1
1
0.892552
1
1
1
1.07791
1
1.119
1.11912
1
1.11897
1
1
1
1.06633
1
1.1203
1
1.11856
1
1
0.998852
1.11865
1
1
1
1
1
1.11802
1.00001
1
0.890128
1.11908
0.886858
1
1.1185
1
0.998851
1
1.11866
1.11807
1
1.12016
0.965894
1.11841
1.1205
1.00001
1
1
0.89285
1
1
1
1.11912
1.07156
1.12011
1
1
1
1
0.999088
1.11814
1
0.890823
1
1
1
1
1
1
1
1.12015
1.11882
1.1192
1
1
0.999123
1
0.994665
1
1
1
0.885964
0.992731
1
0.889049
0.887054
1
1.11896
1.1186
1
1.11931
1.11842
0.891507
1.07966
1
1
1
0.890539
1.11892
1
0.88842
1
1.11959
1.02141
1
1
1
1
1.11861
1.12033
1
1
1.11881
1
1
1.12011
1.1187
1
1.11293
1.11803
1.11928
0.990213
1.11843
1.00269
0.88984
1.09334
1.11775
1
1
1
0.893405
1
0.888244
1.11776
0.990286
1.11857
0.98598
1
1.11836
1.05827
1
1
1.11858
1
1.05167
1.11844
1
1
1.11762
1.11851
0.886269
1.07456
0.99997
1
1.07314
1
1.11925
0.985592
1.12044
1.11709
1
1
1
1
1.11898
1
1
1.11887
0.9999
1.11866
1.09723
1.11816
0.892981
1
1
1
1
1.11859
1.00001
1.119
1
1.11877
1.11778
1.01669
1.11612
1.04069
1.11901
1
1.08324
0.90024
1.11973
1.11862
1.09516
1.02175
1.1198
1.11837
1.11889
1.11924
1
0.978431
1.01886
1
1.11845
1.05978
1.11843
1.00001
1
1
0.90552
1.11973
1.11911
1.0986
1
1.04873
1
1.12064
1.12074
1
1.11882
1.11886
1
1
1
1.11784
1
1.04952
1.12039
1.0853
1
1.11815
1
1
1
1
1
1
1
1
1
1
0.899824
1
1.11208
0.888938
1.07404
0.999584
1.11963
1
1.06759
1
1.07918
1.10194
1
1.00081
1.11937
0.977333
1
1.11847
1.11495
0.985797
1
1.11852
1.1187
1.11871
1
1.1186
1.11912
1.11687
1
1.05594
1
1.00002
1.11855
1
1.11884
1.01813
1.11799
1
1
1.11892
1.11968
0.903593
1
1.11862
1.09103
1.11865
1
1
1.11933
1.11853
0.9995
1
1.10495
0.999114
1.11827
1.00001
1
1
1
1
1.0581
1
1.09467
1.11824
1.09055
1.11909
1
1.00056
1
1
1.11932
1
1.11731
1
1
1
1
1
1
1.01638
1.06637
1
1
0.891453
1
1.11963
0.901416
1.11939
1
1.0638
0.99993
1.1187
1.07874
0.892867
1.06741
1.00001
1.11846
1.11849
1
1.07523
1.11762
1.11892
0.999541
1.1185
1.11551
0.88289
1
1
0.999298
1
1.11625
1
0.895883
1.1191
1
1
1.10608
1
1.11835
1
1.11893
1
0.903333
1
1
1.11894
1.115
1.11893
1
1.11856
1.11847
1.11832
1
1
1.11777
1
0.923697
1
1
1
1.11907
1
1.1186
1.07944
1.11817
1
1.11843
0.999824
1
1
1
1
1
1
0.913566
1
1
1.1186
1
1.12003
1.12009
1
0.89048
0.892636
1
1.11884
1.0221
0.891228
0.884032
1
1.11896
1
1.11771
0.890444
1.00046
1
1
0.999862
1
1
1
0.999976
1.04979
1.11891
1
1
1.11858
1.07366
1
1.10476
1.11956
1.11784
1.05145
1.11565
1
1.11899
1
1.11723
1
1.11772
1.11781
0.999078
1.11935
1.11901
1
1
1
1
1
0.976039
1.12004
1.00001
1.00001
0.896604
0.999995
0.884212
0.90508
1
1.11938
1.11832
1.11851
1
1.11856
1
0.893734
1
1
1.11869
0.944992
1.1181
1
1.11895
1
0.996761
1.11864
1
1
1
1.11959
1
1.11836
0.887492
1
1
1.07217
1
1
1.06754
1
1
1.11869
1
1
1
1
1
1.12059
1.11868
1
1.11861
1.11891
0.891377
1.05716
1.11855
1
1
1.10753
0.999718
1
1
1.11874
1.11824
1.07801
1
1.11956
0.888265
1.10672
0.999895
1
1.11862
1.00001
1.11837
1.09932
1.09263
1
1
1.1184
0.913787
0.893211
1
1.11887
1
1.11832
1
1.07318
1
1
1.11846
1.07928
0.890746
1
0.999546
1
1
1.00769
1.05104
1.11834
1
1.11955
1
1
1
1
1
1
1.01945
0.890181
1
1
1.0111
1
1
1
1
1
1.11857
1
1
1.11859
1.11823
1.08627
1
1
1
0.953849
1.11896
1.08581
1
1
1
1
1.11852
1
1
1
1.11888
1
1
1.08799
1.12347
1.01255
0.930222
1.1198
1.08749
1.11867
1
1.06383
1
1
1
0.897432
1.00066
0.903688
1
0.893504
0.882126
1
0.890499
1
1
1
1.057
1
1.11884
1.1185
1.00039
1.05808
1.0972
0.889438
0.929905
0.965678
1
1.11822
1.11997
1.11846
1.11852
1.10348
0.965782
1
1.10422
1
1.11329
1
1
0.998975
1.00279
1
1
1
1.11867
1
0.889667
1
1.11896
0.893147
1
1
1.11849
1
1.11857
0.999873
1
1
1.11899
1.10835
1
1.12178
1
1
1.00416
1
1.05556
1
1
0.891146
1
1
1.11938
1
1.11934
1
1.00001
0.892041
1
1
0.896741
1.00031
1
1.11954
0.884945
1.11867
0.891981
1.11858
1
1
1
1
1
1
1
1
1
1
1
1.11416
1
1.11939
1.12028
0.8942
1
1
1
1
1
1
1.11604
1
1
0.894346
1
1
1.11969
1
1
1.04846
1.10145
0.892186
0.886827
0.911427
0.921036
1
0.99894
0.902328
1.00012
1.1109
0.999124
1
1
1.1191
1
1
1
0.928161
1
1.04598
1
1
1.05174
1.11834
1
0.893383
1
1
1
0.999037
1
1.11806
1.11831
1
0.891101
1
1.06691
0.893645
1
0.967177
1
0.998778
0.885554
1
1
1
0.998763
0.89043
1
0.893664
0.999545
1.06572
1.10909
0.893107
0.894097
1
0.997395
1
0.999613
1
1.11919
1.11829
1
1.00519
1.11896
1.11768
1
1
1.1185
1
1
1.00001
1
1.12028
1
1
1.00527
1
0.999586
0.909541
1
1
1
1
1
1.11682
1.01166
1.00002
1
1
1
1
1
1.00001
1
0.890808
1.02711
0.999595
1.1197
1.11981
1
1.00438
1.11889
1.10637
1
1
0.902503
1.11789
1
1.11984
1
1.11832
1.08384
0.890529
1
0.893996
1.11261
0.99991
1
0.890818
0.908642
1
1
1.10253
1
1
0.88445
1
1
1
1.04119
1
0.894365
1.11855
1
1
1
1
1.11881
1
1
1.11934
1.1071
1
1
1
1.12004
0.885987
1
1.11847
1.11835
1
1.09672
1
1.00001
1
1
1.1098
1.00559
1
0.896069
1.07076
1
1
0.999251
1
1
1.11677
1
1
1.00001
1
1.11915
1
1
1
1
1
1
1.00001
1.05647
1
1.11893
1
1
1.11889
1
1
1
1.11843
1.11923
1.01289
1
0.99935
1
1
1
1
1.11999
1
1
1.11867
0.891426
1
1
1
1
1
1
1.09764
1
1
1.11619
1.11919
1
1
1
1.11862
1.11925
1
0.999918
1.11572
1
1
1
1
0.895834
1.00841
0.998928
0.998843
1
1
0.890463
1.11924
1
0.902363
1
1.1183
1.1143
0.893204
0.99983
1.11879
1.11886
1.11841
1
1
0.979326
1.10243
1.09999
0.907836
1
1
1
1.11809
1.1186
0.88844
0.999208
1
1.11868
0.890651
1
1.11864
0.89023
0.992616
1.00167
1
1.12028
1
1
1
1
1
1
1.00003
1.11131
1
1
1.11744
1
1
1
1.11833
1
0.889863
1
1
1
1.04483
1
1
1
1
1
0.93755
1
0.891787
1
1.11806
1.00001
0.963182
0.963116
1
1.0014
1.06578
1
1
0.893
1.11805
1.11837
1.11842
1
0.882146
0.887392
1
1.11832
1
1
1
1
1
1.00001
1
0.895252
1.07804
1
1
0.885911
0.996301
1
1
1
1
0.885019
1
0.90622
1
1
1.12023
1
1
0.887887
1
1.11833
1
0.889129
1
0.888741
1
1.00221
1.11921
1.12092
1
1
1.11989
1
1
1.0276
0.999152
1
0.99949
1
1.11913
1
0.898409
1
1.12049
0.999637
1
1
0.93646
1
0.999719
0.887891
1.11826
1.0459
1
1
0.967652
1
1
1
0.93381
1
1
1
1.11925
1
0.89161
1
1
1
1
0.886869
1.11886
1.10776
0.888642
1
1.11721
1
1
1.1182
1.11937
1.10169
0.888063
0.999371
0.99978
1
1.11858
1
1
1
1
1.11855
1.00001
1
1
1.11749
1
1
1.11879
0.885521
1
1
1
0.891515
1
1
1
0.99961
1
1
1
1
1.09483
1
1.11996
1.11879
1.12143
1.11842
1.11846
1.11833
1
1.11874
1
1.1184
1.11872
1
0.999669
0.888618
1.10312
0.999973
1
1
1
1
1.00065
1
1.01952
1
1
1
0.954767
1.11882
1.11814
1.12065
1.10374
0.999961
1
1.00594
1.11862
0.99941
1.0171
0.999177
0.892286
1
1.00001
1
1
1
1
1
1.1191
0.889661
1.11903
1.11843
0.998682
0.876697
1
1
1
1.11858
0.88075
1.10595
0.88634
1.1188
1.1195
0.888138
1.11913
1.00675
1
1.11931
0.940523
1
0.99966
0.888274
1
0.891536
1
1.11838
1.11881
0.92855
1
1.1193
0.89233
1
0.893459
1
1.11849
1
1
1.11983
1
0.952968
1
0.999909
0.892017
1.11944
0.99985
1
0.879899
1
1
1
1
1.06955
1
1.11927
1
1
1.12217
1
1
1.11852
1
0.890994
1
0.895198
1
1
1
1
1
1.11427
1.07176
1.11858
1
1.11852
1.11107
0.883332
0.891851
1
1
1.11664
1
0.890283
1
0.996914
1
1
1.1186
1
1.11894
0.890139
1.12123
1
0.892635
1
1
1.11786
1.11788
1
1.00001
1
1.11803
1
1
0.897531
0.999842
0.891934
1
1
1
1.11913
1.1179
1.11966
1
1
0.898471
1
1.1185
1
1
1
1.11569
1.11846
1.11845
0.88249
1.11927
1.11877
0.892443
1.11934
1.00001
0.897361
1.00439
1
1
1.11888
0.87853
1.07906
0.877591
1.11876
0.99922
0.884344
1.1188
1
1
1
1
1.11833
1.1196
0.889101
1
1.00001
0.891238
1.00001
1
0.894074
0.896844
1.08322
1.11889
0.999557
1.11835
1
1.12138
0.949814
0.890004
1.11841
1.12225
1
1.11919
1
1
1.11887
1
1.09324
1.1196
1
1
1
1
1.11906
1.11718
1.11934
1
1
1.11987
1.12108
1.11924
1
1.11911
1
1
1
1
1
0.895174
0.953302
0.893398
1
1
1.11865
1
1
1.11913
0.889332
1
1.11888
1.11728
1.11446
0.883079
1
0.888613
1
1.00001
1.11979
1.05935
1.12008
1.10941
1
0.90745
1
1.11945
1.0867
0.895372
1
1
1
0.948291
1
1
1.12162
1
0.894767
1.11861
1
1
1
1
1
1.09711
1.02832
1
1.11882
1
1.11819
1
0.999293
1
1.1185
1.11964
1.1189
1.11926
0.999875
1.12007
1
1.11856
1.11816
1.10269
1
1
0.887223
1.12001
1
1
1.11982
1.11915
1.11819
1
1.11879
1
1
1.00001
1.11966
1.11934
1.03547
1.02824
1.11866
1.11808
0.904596
1
1
1
1
1
1.04431
1
1
1.10147
0.895779
0.999988
1
1.11839
0.999967
0.999937
1.01685
1.11232
1.12001
0.974466
1
0.883557
1
1.00061
1.11856
1.11946
1.1206
0.999717
1
1
0.888843
1
1
1.11846
1.01379
1
1
1
1
1
1
1
0.999983
1.11933
1
1
1
1
1
1.07948
1
1.05757
1
1
1.11873
1.11975
0.892498
0.999645
1
1
1
0.891777
1.11975
1.1184
1
1
1
1
1
1
1
1
1.11893
1.11811
0.890191
1.01432
0.893652
1
0.890407
1
1.11855
1.0347
1
1
0.898443
1
1.11455
0.950053
0.999136
0.886635
1
1
1.11926
1.00001
0.999252
0.884603
1.12012
1.12039
1
1
1
1
1.11176
1
1
1.11832
0.999701
1.11953
1.00004
1
1
0.885814
1
1
1.11839
0.888762
0.940917
0.895795
1.11875
0.999801
1
1.11849
0.892681
0.895145
1.00565
1
1
1.11977
1.00001
1.05977
1
1
1.11998
0.888888
1
1
1.00004
1.11956
1.00005
1.11546
1
1.00001
1
1
0.903348
1
0.934717
1
1
1.11795
0.88789
1
0.933802
0.937802
1
1
1.11847
1
1
1
1.11945
1.11785
1.00001
1.1186
1.11984
0.936121
1.11866
1.11169
1
1
1.1182
1
1
1
1
1
1.12107
1.11803
1
1
1
1.1184
1.00006
1
0.889681
0.910585
1
1.00001
1.04788
1
1
0.971891
0.894051
1
1
1
1.11953
1.11002
1.11832
1
1
1
1
0.889676
1
1.1138
1
1.11624
0.884412
1.11994
1
1
1
0.891964
1
1.11922
1.00001
1
0.895244
1.04517
1
0.999908
1.12296
0.884525
0.893929
1
1.1199
0.889833
0.890021
1
0.892542
1
1
1
1
0.883095
1
1
1
1
1.11956
1
1.09237
0.879704
1
1
1
0.890847
1.11857
1
1
0.99911
1.11884
1
1.11846
1.1193
1
1
0.915268
0.895322
1
1
0.896957
1.04108
1.05785
1
1
1.12069
0.999239
1
0.999393
1.12042
1
1
1
1
1
1
1.11821
1
1.0452
1.04257
0.901598
1.10635
1
1.11835
1.11844
1
1
1
0.973561
0.890412
1
1.06582
0.999898
1.10458
1
1
1
1
1
1.00203
1.05736
1.11887
1.11877
1
1.11844
1
0.89457
1
0.999268
0.999936
1
0.882813
1
0.889789
1.00001
1.11973
1.11988
0.889494
1.12009
0.908501
0.998849
1.09239
0.885735
1.08719
1
1
0.999546
1
1
1
1.00002
1
0.886526
1
1
1
1
0.999878
1.11857
0.943681
1
1
1
1.01114
1
1
1
1.07279
0.931571
1
1
1
1.01642
1.12038
1
0.874134
1
1.11912
0.971107
0.892252
1
0.891397
1
1
1.11299
0.999495
1.10953
1
1.00252
1
1
1.11875
1
1
1
1
1.02488
1
1.11843
1.11889
1.11928
0.879563
1.11846
0.999167
1.09956
1
1
0.880872
1
1
0.896493
1.11942
1
1
0.99999
1
1
1
0.886194
0.883054
1
1.11946
1
1.06019
1.11858
0.889547
1.10038
1
1
0.897882
1
1
1.11846
1.11852
1.04388
1
1
1.00046
1.11938
0.878819
0.890485
1.11993
1.11844
1.08531
1.05023
1
0.966191
1
1
1
1.11117
1.11964
1.11824
1
1
1.11856
0.893823
1.10804
0.885303
1
0.895377
1
0.887092
1.11856
0.88674
1
0.99806
0.906642
1
1
1
0.956293
1.11065
1.11816
1.11938
1.11958
1
1
1.11995
1
1
1.11806
1
0.889662
1
0.885363
1
1.1196
1
1
1.00786
1.09386
1
0.999669
0.890383
1.11833
1
0.87639
1.0249
1
1
1.09219
1.11867
1.11885
1
1.1185
1.03579
1
1.00645
1.11861
1
1
1
1
1.11859
1
0.886605
1.11848
0.887996
0.889014
0.951748
1.11924
1.04451
1.11879
1
1.11923
0.999297
1.00001
1.11832
1.1202
1
1.11961
1
1.11905
1
1.11964
1
1.00001
0.999992
1.11901
0.890106
0.896189
0.99938
1
1
1
0.883704
1
1.08201
1
0.890463
1
1.05125
1.11862
1.12022
1
1
1.00001
0.999857
1
1.11936
1.11825
1
1.05379
1.1189
0.954601
1.11806
1.00011
0.888904
1.02569
0.881741
1
1
1.02222
1.12017
1
1
1.01463
0.999595
1
0.894136
1
0.939445
1
1.11917
1
1
0.883834
1.02964
1.01801
0.999568
1.1185
1.1185
0.930441
0.999451
0.885019
0.89899
0.886527
1
1
1
0.999736
0.918325
0.89398
1
1.11874
0.999929
1.11843
1.11866
1.12019
1.11832
1
0.885508
1.11884
0.896113
1
1.1185
1.11749
0.999054
0.946576
1.11868
1.08822
1
0.891984
1
1
1.11905
1
1.00764
1.11875
1
0.892988
0.885325
1
1
0.889169
0.890351
1.11811
1.00001
1
0.88058
0.890031
1.11946
1.1152
1.11093
1.11962
1.03671
0.995604
1.05051
1.11846
1.09311
1
1.06279
1
0.884801
0.96008
1
0.885177
1.11849
1.00618
1.11885
1
1.11845
1.11966
1
1.1188
1.11847
0.894467
1.11892
1
1.12264
1
0.92569
0.887892
1.11861
1
1
1
0.888533
1.11888
1.11895
1
0.892296
1
1
0.888709
1.00001
0.888737
1.11975
1
0.946234
0.889069
1
1
1.07068
1
1
1
1.02234
0.890466
1
1
1
1.11949
0.886471
1
1.11844
0.876605
0.87798
1
1
1.11851
1
1.1194
1
1.11875
0.894099
1
1
0.895372
0.940868
0.886349
1
1
1
1
1.11881
0.884782
1
0.886142
1
1.1186
1
1
0.974718
1
1
0.950953
0.999908
1.00002
1
0.887831
0.89395
1
1
1
1
0.941036
1.11794
1.11936
1
0.885366
0.887283
0.971606
0.89303
1
0.949217
1
0.884624
0.996268
1
1
0.889808
1
1.11777
1.11506
0.889983
1
1
1
1.11724
1
1.01342
0.94939
1.04095
0.891381
1.05025
0.891572
1
1
0.910849
0.971731
1
1.01449
1
1
0.891992
1
0.981625
1.01434
0.886137
1
1.09891
0.919943
0.964995
1
1
1
0.895699
1
0.887926
0.896901
1
0.959525
0.885105
1.01926
0.923891
0.878169
1.11841
1
1.11854
1.06734
0.91582
1.11844
0.884951
0.999727
1.11969
1
1
1.11842
1
0.919686
1
1.01895
1
1
1.11847
1
0.92971
0.949258
1.1207
0.980748
1
0.926144
1.11831
1.11941
0.972633
1
1.11879
1.03333
0.957545
1
1.00368
1
0.893431
1.05345
0.926904
0.921372
1
1
0.893525
1.11876
0.990466
0.893487
0.887657
0.958429
1
1.00356
1.11964
1.11858
1
1
1
0.89208
1.06065
0.999996
1.11813
1.11112
0.89061
1
1.02841
0.966939
1.07515
1.10845
1
1.01055
1
1.00001
0.884604
0.956898
1
1
0.944911
0.8846
1.01306
1
1.00001
0.872491
1.05873
1
1.11524
1
1.01233
1.06817
1
1.11606
1
1
1.11881
1
0.88356
1.11969
0.891682
1.03294
1
0.890887
0.999976
1
1.00001
1
0.940228
1.00748
0.88752
1.09151
1.11998
0.883148
1
1
1
1
1
0.991802
0.902231
1.01591
0.889758
0.885178
1.023
1
0.999946
1.03223
1
1
0.883277
0.998898
1
1
1.03702
1
1.11942
1
1.11958
1.02717
1.00887
0.891305
1
1
0.876045
1
1
1
1
1.11865
1.01252
0.999468
1
0.882294
1.01482
1
1
1.08231
1
0.892926
1.11783
1
1
1
1.11823
0.894773
0.965234
0.890783
1.09134
1.11949
1
1
1.11852
1
0.891333
1
1
1
1
1
0.929408
1
1.11834
1
1
1.04459
1.11922
0.887816
0.961539
1
1.11883
1
1
1
1
1
1.11862
1.11978
0.887934
1.11881
0.884471
1
1
1.11882
1
1.12016
1.00361
1.00742
1.01829
1.11859
1.0198
1.08417
0.888953
1
0.88487
0.996558
1
1.11865
1
1
0.885991
1.1181
1
1.11976
1
1
1
1
1
1
0.892337
1.11956
0.957325
1.11862
1
0.890953
0.886579
0.910748
1.11875
1.11856
0.990808
1
0.932759
1
1.05122
1
1.11797
0.882259
0.890624
0.960132
1
1.11868
1
1.02252
0.893288
1
1.12042
1.10324
0.999679
1
1.11877
0.887672
1.11789
1.11851
1.11768
0.892681
1.02535
1
1
0.884652
1
0.944971
0.952216
1
1.00001
1.11816
1
1.11873
1.02394
1
1.01365
1.1205
1
0.890089
1
0.932464
1
1
1.09763
1
0.943121
1
0.893775
1.01048
0.987473
0.888944
1.11881
1.09997
1.11959
0.889598
0.908831
0.998834
1
1
0.898064
1.11282
0.895032
0.999991
1
1.11844
1.11915
0.969947
1
0.893065
0.911551
1.08194
0.990756
0.885627
1
0.888535
1.03386
0.890947
1
1.00002
0.943911
1.11964
1.11873
0.948861
0.999882
1
1
0.917087
1
0.887247
1
0.887838
0.889971
1
1
1.00001
0.89055
1.11881
1
1
1.00002
1.00001
0.892363
1.1187
1.11864
1
0.887327
1.11994
1
1.02698
1
1
1.11923
0.887451
1
1
0.880488
0.913442
0.887802
0.884995
1
0.903757
0.999161
1.02768
0.885528
1
1
1.03444
1
1.10558
1
1
1.08383
0.894473
1
0.895145
1.03714
1.11882
1
1
0.89491
0.902928
0.887736
0.910855
0.896564
1.08969
0.999825
1
1
1
1
1.11904
0.878847
1
0.981938
0.999904
0.99964
0.999983
0.924027
1.03668
1
1.11886
1.11846
1
1
1.11498
1.00001
1
1.1185
0.891712
1.12033
1
0.882555
1.11859
1.00001
1
0.950809
1
0.889308
1
1.11914
1
1
1.11974
1
1
1.11871
1
1
1
1.12026
1
0.922137
0.915395
1
0.885204
1.11849
1
1
0.992776
1
1.11932
1.07168
1.09546
1
1
0.895578
1
0.886018
1.1186
1.1197
1.11887
1
1.11956
0.889816
1
0.889816
1.09768
1.10845
1.11914
1.11851
0.928183
0.88711
1
1.08168
1.1192
1.11945
1.11853
0.922787
1.04626
1
1.09335
0.91629
1
1
1
1.00001
0.966976
1
1.11915
1
1
1
1
1
1
1.00002
1.11831
1
1.11925
1.0909
0.893622
1.1198
1.01037
1.06255
1
1.11824
1
0.890532
1
1
1
1
1.10252
1
0.882095
1.11778
0.881618
1.11871
1.09662
1.06516
1
1.02326
1.06037
0.998786
0.892145
0.930692
1.00001
1
0.976349
1
0.873421
1.11912
0.878406
0.981142
0.958597
1
1
1
1.00368
1
1
0.889306
0.999298
1.12026
1
1.11827
1
0.887969
1
1
1.11849
1.11794
0.883979
1
1.11948
1
0.945404
0.880793
1.11914
1.10764
1
1.02104
1.11864
0.999616
1
1.05229
1.10568
1.11786
0.998835
1
1
1.1019
1
1
1
1.11888
0.999572
1
1
1.11842
1
1
0.894965
1
1
1
1.11934
1
1
0.957629
1.041
1.10944
0.926018
1
1.11867
1
1.04524
1
1.11907
0.999205
1.11862
1
0.892184
1
1.08397
1
1
1.11138
1
1.11875
1
1.11921
0.90309
0.891704
1.11953
1
1.10105
1
1.11914
1
1
1.00001
1.11871
1.11624
1.03536
1.11868
0.998674
0.886761
1.11901
0.961062
1
1.11869
1
1.11884
1
1.11893
1.11928
0.998897
0.890929
1
1.11864
1
1.01118
1
1
0.999426
0.925109
1.1074
1
1.10588
1
0.961446
0.885369
1.11785
1.11888
0.891574
1
1.11869
1.11899
1.11879
0.905239
1.11857
0.881346
1.11874
1.117
1
1
1.1181
1
1
1
1
0.889398
1
1
1.11926
1.11863
1
1.11901
1
1.11947
1.11969
1
1.10103
1
0.88451
1.11829
1.09017
1.0343
0.882527
1.11849
1
1
0.888432
1
1
1.11861
1
1
0.938575
1
1.11859
1.00002
1.11866
0.884636
1.12024
1
1.11863
1.11433
0.968682
1
1.11869
0.924571
1.11818
1.08622
1.11845
1.11931
0.999142
1.1205
1.1186
1.11861
1.11871
1.00007
1
0.899346
1
1.12006
0.945441
1.10982
1
1.11652
1
1
1
1
1
1.1178
0.884615
0.878764
1.11941
1.11841
1
1
1
1
1
1.11788
1.11271
1.11854
1.00853
1
1
1
1.00001
1.11835
1.11861
1
1.11882
1.11957
0.890745
1.08578
1
1.1181
1.11958
1.11792
0.999425
1.11853
1.11865
1
1.10763
1
1
1
1
1
1
1.1187
1.12026
1.11104
1.11874
0.885987
0.905352
1.1188
1.11863
1
0.883069
0.984671
1
1.06143
0.883327
1
0.999843
0.999504
0.89338
1
1.1187
1
1
1
1.11964
0.984201
1
1.11826
1.11861
1
1.11878
1
1
1.11847
1
0.890156
1
1.11894
1
1
0.890949
1
1.11813
1
0.886768
0.888236
1
1.11218
1
0.884423
0.968114
1
1.11852
1
1
1
1.11949
1
0.890104
1.01917
1.11903
1.11884
1.11826
1.01444
1.11892
1.11861
1
1
1
1
1
1.11873
1
0.999793
1.11846
1
0.886654
1
1.11857
1.05998
1.01975
1.05917
1.02028
1.12112
0.907611
1.11874
1
0.888393
0.999189
1.11857
0.981516
1.11868
1.1184
1.11883
1
1.11919
1.1187
1.1187
1
1.00001
1
1
1.11916
1.08652
1
1
0.887321
0.999053
1
1.11863
1
1.11857
1.11865
1.11921
0.976178
1.11858
1.11819
1.00371
1.05934
1.11946
1.11893
1
1.11106
0.948207
1.11337
0.997162
1.11889
1
1.11846
1.1188
1
0.892258
0.982701
0.908402
1
1.02383
0.999049
1.11966
1
1
0.998905
1
1.06231
1.1152
1
1
1.11879
1
1
1.08755
1.11847
1.11423
1.11916
1.11866
1
1.11885
0.918471
1.11927
1
0.999788
0.887092
1
1
0.928275
1
1.04025
1
1.11933
1
1.11643
1.07883
0.894292
1
1
1
1
1
1.11849
1.00327
1
1.11859
1
1.11839
1.11874
1
1
0.991066
0.999956
0.886224
0.888901
0.922381
1.02362
1
0.999551
0.895001
1.00001
1
1.11901
0.982441
1.1113
1.10047
1
1
1
1
1
1.11866
1.11852
1
1.11913
1
1.11956
1.08207
0.99873
1
1
1
1.07065
1
0.986859
1
1.11808
1
1
1.11851
1
1
1
1
1
1.11886
0.884801
0.998896
1.10747
1.11854
1
1.11846
1
1
1
1
0.906544
1
1.11876
1.11857
1.11821
1.12067
0.987694
1
1.10159
1.03088
1.11959
1.11991