/*--------------------------------*- C++ -*----------------------------------*\
  =========                 |
  \\      /  F ield         | OpenFOAM: The Open Source CFD Toolbox
   \\    /   O peration     | Website:  https://openfoam.org
    \\  /    A nd           | Version:  12
     \\/     M anipulation  |
\*---------------------------------------------------------------------------*/
FoamFile
{
    format      ascii;
    class       volVectorField;
    location    "28";
    object      U;
}
// * * * * * * * * * * * * * * * * * * * * * * * * * * * * * * * * * * * * * //

dimensions      [0 1 -1 0 0 0 0];

internalField   nonuniform List<vector> 
9801
(
(1.16556 -0.0651224 0)
(1.15227 -0.0645488 0)
(1.12816 -0.0643857 0)
(1.11893 -0.063439 0)
(1.11587 -0.0610776 0)
(1.11855 -0.0581267 0)
(1.12589 -0.0552662 0)
(1.13259 -0.0513213 0)
(1.13384 -0.0477778 0)
(1.13153 -0.0444559 0)
(1.12767 -0.0420772 0)
(1.12354 -0.0411408 0)
(1.12289 -0.0404025 0)
(1.13456 -0.0388072 0)
(1.14136 -0.0355052 0)
(1.14057 -0.0321792 0)
(1.13713 -0.0287868 0)
(1.13289 -0.0270646 0)
(1.12875 -0.0253397 0)
(1.12489 -0.0232966 0)
(1.11668 -0.0182711 0)
(1.10989 -0.0145112 0)
(1.10654 -0.0126153 0)
(1.10353 -0.0117399 0)
(1.10177 -0.0111474 0)
(1.10937 -0.010767 0)
(1.11846 -0.0104323 0)
(1.1197 -0.00928399 0)
(1.11669 -0.00802226 0)
(1.11174 -0.00723369 0)
(1.10388 -0.00583342 0)
(1.09387 -0.0035908 0)
(1.08511 -0.000677648 0)
(1.07787 0.00309204 0)
(1.07263 0.00684146 0)
(1.06887 0.00891813 0)
(1.06571 0.0096435 0)
(1.06582 0.0100482 0)
(1.07063 0.00926937 0)
(1.07075 0.00804901 0)
(1.06778 0.00655611 0)
(1.06244 0.00444097 0)
(1.05499 0.00254523 0)
(1.04873 0.0022167 0)
(1.04311 0.0047346 0)
(1.03628 0.0101301 0)
(1.0295 0.0160867 0)
(1.02435 0.0210741 0)
(1.01991 0.0241504 0)
(1.01824 0.0263828 0)
(1.02916 0.0275774 0)
(1.04213 0.0273178 0)
(1.04484 0.0264733 0)
(1.04211 0.025664 0)
(1.03751 0.0250221 0)
(1.02866 0.0232282 0)
(1.01101 0.0206422 0)
(0.994033 0.0215137 0)
(0.981798 0.0261896 0)
(0.973767 0.0306908 0)
(0.967599 0.0340295 0)
(0.962419 0.0368426 0)
(0.96224 0.0399795 0)
(0.978473 0.0425549 0)
(0.992901 0.0430571 0)
(0.994852 0.0413684 0)
(0.991705 0.0384729 0)
(0.986519 0.0375536 0)
(0.979198 0.0386858 0)
(0.957018 0.0416207 0)
(0.926547 0.044718 0)
(0.908436 0.0457503 0)
(0.899056 0.0451907 0)
(0.891807 0.044841 0)
(0.888175 0.0446851 0)
(0.903873 0.0459191 0)
(0.921475 0.0486213 0)
(0.923876 0.0515298 0)
(0.919042 0.054183 0)
(0.911396 0.0560133 0)
(0.901595 0.0571582 0)
(0.876758 0.0573776 0)
(0.834805 0.0565561 0)
(0.807677 0.0547365 0)
(0.79358 0.0529677 0)
(0.783403 0.0513067 0)
(0.786378 0.0492921 0)
(0.807167 0.0503284 0)
(0.813042 0.0545082 0)
(0.804681 0.0604489 0)
(0.792184 0.0646081 0)
(0.776228 0.0652514 0)
(0.744987 0.0629637 0)
(0.690404 0.0567648 0)
(0.629132 0.0503738 0)
(0.571782 0.0482885 0)
(0.522154 -0.0188702 0)
(-0.0512512 -0.110922 0)
(-1.42206 -0.0839844 0)
(1.2282 -0.112824 0)
(1.22422 -0.103881 0)
(1.21884 -0.0973483 0)
(1.21092 -0.103743 0)
(1.20507 -0.110906 0)
(1.20102 -0.111319 0)
(1.19646 -0.106966 0)
(1.19211 -0.101523 0)
(1.18764 -0.096839 0)
(1.1829 -0.09375 0)
(1.17849 -0.0919903 0)
(1.17621 -0.0905269 0)
(1.17961 -0.0894785 0)
(1.18513 -0.0862467 0)
(1.18665 -0.0805732 0)
(1.18409 -0.0769608 0)
(1.17985 -0.0754538 0)
(1.17524 -0.0747621 0)
(1.17039 -0.0737185 0)
(1.15821 -0.0686334 0)
(1.14479 -0.0604691 0)
(1.13804 -0.0562183 0)
(1.13352 -0.0537621 0)
(1.12976 -0.0522365 0)
(1.12875 -0.0505381 0)
(1.14086 -0.049573 0)
(1.14922 -0.0491811 0)
(1.14751 -0.0476481 0)
(1.14308 -0.0460827 0)
(1.13856 -0.0448102 0)
(1.12943 -0.0418786 0)
(1.1143 -0.0363563 0)
(1.10326 -0.0307408 0)
(1.09574 -0.0264354 0)
(1.08943 -0.0226231 0)
(1.08405 -0.0190439 0)
(1.07983 -0.0167453 0)
(1.08182 -0.0134511 0)
(1.09165 -0.00982533 0)
(1.09557 -0.00688767 0)
(1.09508 -0.00581542 0)
(1.0928 -0.00658126 0)
(1.09002 -0.00816505 0)
(1.08019 -0.0108621 0)
(1.0624 -0.00936474 0)
(1.0504 -0.00549469 0)
(1.04277 -0.00294388 0)
(1.0365 -0.00133414 0)
(1.03088 -0.000125589 0)
(1.02692 0.00127206 0)
(1.03482 0.00496133 0)
(1.04709 0.00917306 0)
(1.04904 0.0120557 0)
(1.04595 0.0144417 0)
(1.0417 0.0159895 0)
(1.03746 0.0162733 0)
(1.02486 0.0144242 0)
(1.00211 0.0138317 0)
(0.987819 0.0167148 0)
(0.980626 0.018299 0)
(0.974921 0.0184436 0)
(0.969656 0.018277 0)
(0.968303 0.018837 0)
(0.983233 0.0214437 0)
(0.99669 0.0256199 0)
(0.996848 0.0302171 0)
(0.991787 0.0335491 0)
(0.98604 0.0346677 0)
(0.978448 0.035879 0)
(0.957121 0.0381854 0)
(0.927044 0.0387253 0)
(0.908547 0.0390003 0)
(0.898699 0.0398906 0)
(0.891465 0.0397404 0)
(0.886937 0.0395398 0)
(0.899611 0.0425936 0)
(0.918143 0.0491405 0)
(0.922448 0.0533758 0)
(0.918324 0.0550219 0)
(0.910974 0.0546973 0)
(0.90155 0.053792 0)
(0.876794 0.0537528 0)
(0.835895 0.0532454 0)
(0.808123 0.0500577 0)
(0.792624 0.0469039 0)
(0.782134 0.0445222 0)
(0.777881 0.0440872 0)
(0.791365 0.0554847 0)
(0.801894 0.069197 0)
(0.797676 0.0741855 0)
(0.785512 0.0742945 0)
(0.769518 0.0724083 0)
(0.737432 0.0670805 0)
(0.683338 0.0569515 0)
(0.620472 0.0462124 0)
(0.557112 0.0433246 0)
(0.507734 -0.0307857 0)
(-0.0771507 -0.127175 0)
(-1.44022 -0.127756 0)
(1.22025 -0.0984139 0)
(1.21862 -0.0867356 0)
(1.21621 -0.0868087 0)
(1.21144 -0.0904778 0)
(1.2025 -0.0994744 0)
(1.19416 -0.106716 0)
(1.189 -0.111937 0)
(1.18433 -0.111794 0)
(1.1811 -0.107898 0)
(1.1774 -0.101562 0)
(1.1735 -0.095506 0)
(1.17027 -0.0901658 0)
(1.17163 -0.084524 0)
(1.17973 -0.0823493 0)
(1.18473 -0.0815314 0)
(1.18314 -0.078987 0)
(1.1785 -0.076403 0)
(1.17335 -0.074766 0)
(1.16676 -0.0726624 0)
(1.15373 -0.0674561 0)
(1.1441 -0.0622041 0)
(1.13781 -0.0572604 0)
(1.13279 -0.05267 0)
(1.12854 -0.0497101 0)
(1.12841 -0.0480349 0)
(1.13932 -0.0477824 0)
(1.14508 -0.0457544 0)
(1.14306 -0.0434571 0)
(1.13914 -0.0415889 0)
(1.13403 -0.0385956 0)
(1.124 -0.0342579 0)
(1.11207 -0.0314526 0)
(1.10305 -0.0288444 0)
(1.09572 -0.0244606 0)
(1.08897 -0.0184294 0)
(1.08331 -0.0127515 0)
(1.07883 -0.00889098 0)
(1.08034 -0.00420582 0)
(1.09105 0.00046206 0)
(1.09522 0.00136729 0)
(1.09364 0.000596332 0)
(1.09013 -0.000324282 0)
(1.0862 -0.0014367 0)
(1.07533 -0.00505137 0)
(1.05887 -0.00917046 0)
(1.04891 -0.00929053 0)
(1.04173 -0.00744542 0)
(1.03537 -0.00417643 0)
(1.02982 -0.00113763 0)
(1.02547 0.00144921 0)
(1.03211 0.0062236 0)
(1.0453 0.0127008 0)
(1.04847 0.0171442 0)
(1.04578 0.0198527 0)
(1.0414 0.0213746 0)
(1.03653 0.0219174 0)
(1.02333 0.0209011 0)
(1.00044 0.0168656 0)
(0.986957 0.0143149 0)
(0.979621 0.0136866 0)
(0.973275 0.0135994 0)
(0.96731 0.0134695 0)
(0.964525 0.0139338 0)
(0.978107 0.0173977 0)
(0.992184 0.0234241 0)
(0.993571 0.0296275 0)
(0.989014 0.0351598 0)
(0.982877 0.039035 0)
(0.974696 0.0418869 0)
(0.954512 0.0431931 0)
(0.925278 0.0414053 0)
(0.90632 0.0400632 0)
(0.895959 0.0397369 0)
(0.888332 0.0395919 0)
(0.882317 0.0393262 0)
(0.890839 0.0418311 0)
(0.910654 0.0472016 0)
(0.915857 0.0501639 0)
(0.911544 0.0523895 0)
(0.904807 0.0549767 0)
(0.895504 0.0582071 0)
(0.873994 0.0597609 0)
(0.836764 0.0546985 0)
(0.80566 0.0471822 0)
(0.785841 0.0426476 0)
(0.773437 0.0406911 0)
(0.764091 0.0390688 0)
(0.769211 0.0413425 0)
(0.785 0.0476344 0)
(0.785764 0.0508368 0)
(0.774709 0.0524567 0)
(0.759626 0.052291 0)
(0.729957 0.0467142 0)
(0.682438 0.0328401 0)
(0.625418 0.0168465 0)
(0.561405 0.00408824 0)
(0.522745 -0.0971643 0)
(-0.0930018 -0.150087 0)
(-1.45473 -0.12116 0)
(1.2116 -0.0882717 0)
(1.21669 -0.0794129 0)
(1.21701 -0.0881618 0)
(1.212 -0.0943104 0)
(1.20491 -0.101378 0)
(1.1919 -0.110258 0)
(1.18148 -0.112688 0)
(1.17322 -0.110509 0)
(1.16695 -0.104156 0)
(1.16355 -0.0962861 0)
(1.16155 -0.0881507 0)
(1.16188 -0.0803407 0)
(1.16989 -0.0770241 0)
(1.17763 -0.0790193 0)
(1.17935 -0.0797424 0)
(1.17768 -0.0785255 0)
(1.17367 -0.0765396 0)
(1.169 -0.074721 0)
(1.15923 -0.0697947 0)
(1.14511 -0.062754 0)
(1.1378 -0.0592863 0)
(1.13334 -0.0576743 0)
(1.12893 -0.0559968 0)
(1.12578 -0.0540831 0)
(1.12797 -0.0525563 0)
(1.13565 -0.0501365 0)
(1.13819 -0.045316 0)
(1.13615 -0.040574 0)
(1.1325 -0.0357237 0)
(1.12781 -0.0309555 0)
(1.1205 -0.0276002 0)
(1.10852 -0.0278122 0)
(1.09704 -0.0287681 0)
(1.08971 -0.0268092 0)
(1.0841 -0.0230756 0)
(1.07929 -0.0185156 0)
(1.07522 -0.0144301 0)
(1.07623 -0.00950779 0)
(1.08837 -0.0034214 0)
(1.09474 -0.000484739 0)
(1.0928 0.000161099 0)
(1.08858 0.000384973 0)
(1.08406 0.000347505 0)
(1.07471 -0.00154399 0)
(1.05594 -0.00663361 0)
(1.04257 -0.00903713 0)
(1.03573 -0.00776114 0)
(1.03019 -0.00536973 0)
(1.02521 -0.00259639 0)
(1.02106 0.000150705 0)
(1.02463 0.00497307 0)
(1.03857 0.0125018 0)
(1.04429 0.0169809 0)
(1.04244 0.0188441 0)
(1.0384 0.0199428 0)
(1.03366 0.0207838 0)
(1.02196 0.02113 0)
(0.998456 0.0174903 0)
(0.982168 0.0139087 0)
(0.974111 0.0129383 0)
(0.968049 0.0128163 0)
(0.962342 0.0127949 0)
(0.958283 0.0132456 0)
(0.967327 0.0177458 0)
(0.981071 0.0261243 0)
(0.98378 0.0324519 0)
(0.980312 0.036839 0)
(0.974849 0.0400029 0)
(0.967277 0.0428151 0)
(0.950361 0.0434232 0)
(0.922366 0.0391397 0)
(0.901445 0.0350155 0)
(0.890204 0.0335054 0)
(0.882381 0.0329571 0)
(0.875592 0.0326 0)
(0.877634 0.0347638 0)
(0.894782 0.0448163 0)
(0.902278 0.0539733 0)
(0.899434 0.0589388 0)
(0.893266 0.0615882 0)
(0.885448 0.0620207 0)
(0.868651 0.059585 0)
(0.83558 0.0496287 0)
(0.801302 0.0379344 0)
(0.776992 0.0304058 0)
(0.761738 0.0280997 0)
(0.751145 0.0273595 0)
(0.745758 0.0281723 0)
(0.754318 0.0397175 0)
(0.758444 0.0540172 0)
(0.750675 0.0601865 0)
(0.737777 0.0596432 0)
(0.715243 0.0524109 0)
(0.675318 0.0306852 0)
(0.625739 0.00414104 0)
(0.566961 -0.0154128 0)
(0.551742 -0.119209 0)
(-0.101246 -0.161999 0)
(-1.47275 -0.124451 0)
(1.2036 -0.087076 0)
(1.2208 -0.0861962 0)
(1.21918 -0.0917649 0)
(1.21406 -0.0962917 0)
(1.20815 -0.100442 0)
(1.19357 -0.106586 0)
(1.17422 -0.108324 0)
(1.16065 -0.100765 0)
(1.1548 -0.092952 0)
(1.15211 -0.0879897 0)
(1.1499 -0.0843946 0)
(1.1541 -0.0819344 0)
(1.16897 -0.0824197 0)
(1.17602 -0.083142 0)
(1.17447 -0.0825784 0)
(1.17077 -0.0812793 0)
(1.16657 -0.0797678 0)
(1.16071 -0.0761022 0)
(1.14829 -0.0678473 0)
(1.13726 -0.0621379 0)
(1.13118 -0.0604556 0)
(1.12658 -0.0597286 0)
(1.12229 -0.0589883 0)
(1.11852 -0.0573075 0)
(1.1193 -0.0524507 0)
(1.12552 -0.044447 0)
(1.12885 -0.0374878 0)
(1.12825 -0.0326648 0)
(1.12561 -0.0290959 0)
(1.12176 -0.0264671 0)
(1.11733 -0.0248108 0)
(1.10852 -0.0248262 0)
(1.09356 -0.0271668 0)
(1.0823 -0.0270433 0)
(1.07609 -0.0245609 0)
(1.07137 -0.0213262 0)
(1.06739 -0.0177879 0)
(1.06633 -0.0128676 0)
(1.07751 -0.00378161 0)
(1.08877 0.00315318 0)
(1.08917 0.00397463 0)
(1.08532 0.00322681 0)
(1.0807 0.00274494 0)
(1.07463 0.00162539 0)
(1.05803 -0.00373542 0)
(1.03911 -0.00992736 0)
(1.02873 -0.0109343 0)
(1.0226 -0.00924882 0)
(1.01748 -0.00672637 0)
(1.01299 -0.00396171 0)
(1.01259 0.00103981 0)
(1.02525 0.0115077 0)
(1.03509 0.0200645 0)
(1.03522 0.0234365 0)
(1.03187 0.0249287 0)
(1.0274 0.0257032 0)
(1.02024 0.0260241 0)
(1.00114 0.0208503 0)
(0.980085 0.0127884 0)
(0.968356 0.0099418 0)
(0.961184 0.0101042 0)
(0.955237 0.0108438 0)
(0.949886 0.0114987 0)
(0.95204 0.0163757 0)
(0.964601 0.0278755 0)
(0.969809 0.036591 0)
(0.967956 0.0417524 0)
(0.963565 0.04566 0)
(0.957821 0.04722 0)
(0.946978 0.0465885 0)
(0.921457 0.0384631 0)
(0.896743 0.0304375 0)
(0.882321 0.028323 0)
(0.873155 0.0295894 0)
(0.865754 0.0307595 0)
(0.861965 0.0331567 0)
(0.874084 0.0431497 0)
(0.886247 0.0543697 0)
(0.885622 0.0580963 0)
(0.879866 0.0578407 0)
(0.872843 0.0569872 0)
(0.861037 0.0548357 0)
(0.834926 0.0466916 0)
(0.799959 0.0351205 0)
(0.770715 0.0245512 0)
(0.751608 0.017638 0)
(0.739502 0.0154347 0)
(0.730605 0.0150977 0)
(0.731639 0.0192552 0)
(0.739061 0.0305813 0)
(0.736663 0.0384323 0)
(0.72533 0.0395032 0)
(0.710105 0.0361273 0)
(0.682559 0.0192451 0)
(0.643234 -0.00252416 0)
(0.589942 -0.0216751 0)
(0.571172 -0.116834 0)
(-0.106727 -0.164703 0)
(-1.48871 -0.123246 0)
(1.20138 -0.0934415 0)
(1.22288 -0.0987604 0)
(1.22003 -0.0995926 0)
(1.21446 -0.100992 0)
(1.20814 -0.102705 0)
(1.18979 -0.101517 0)
(1.16358 -0.0937758 0)
(1.15207 -0.0882056 0)
(1.14837 -0.0863419 0)
(1.14506 -0.0851226 0)
(1.14386 -0.0843953 0)
(1.15196 -0.0861193 0)
(1.16653 -0.0886185 0)
(1.17104 -0.0869919 0)
(1.16815 -0.0843127 0)
(1.16401 -0.0816498 0)
(1.1584 -0.076849 0)
(1.14869 -0.0685118 0)
(1.13889 -0.06098 0)
(1.13175 -0.0577324 0)
(1.12599 -0.05651 0)
(1.12054 -0.0553626 0)
(1.11543 -0.0537695 0)
(1.1112 -0.052165 0)
(1.10846 -0.0496392 0)
(1.11213 -0.0428267 0)
(1.11766 -0.0355751 0)
(1.11958 -0.0307866 0)
(1.11861 -0.027323 0)
(1.11569 -0.0247284 0)
(1.11169 -0.02326 0)
(1.10644 -0.0227956 0)
(1.09117 -0.0245761 0)
(1.07523 -0.0258459 0)
(1.06718 -0.0245594 0)
(1.06249 -0.0224772 0)
(1.05845 -0.0201088 0)
(1.0555 -0.0168632 0)
(1.06272 -0.00984999 0)
(1.07902 -0.0013581 0)
(1.08301 0.00114352 0)
(1.07956 0.000829165 0)
(1.07503 0.000486993 0)
(1.07039 0.00025829 0)
(1.05984 -0.00154297 0)
(1.03875 -0.00755093 0)
(1.02253 -0.0115026 0)
(1.01385 -0.0105778 0)
(1.00814 -0.00761895 0)
(1.00348 -0.00461716 0)
(1.00014 -0.001477 0)
(1.00802 0.00660782 0)
(1.02262 0.0175328 0)
(1.02614 0.0223857 0)
(1.02336 0.0235907 0)
(1.01893 0.0240349 0)
(1.0141 0.0242676 0)
(1.00245 0.0218173 0)
(0.98021 0.0140085 0)
(0.963316 0.0084974 0)
(0.9537 0.00844996 0)
(0.946595 0.0108736 0)
(0.940427 0.0137043 0)
(0.936855 0.0172352 0)
(0.945511 0.0279254 0)
(0.954881 0.0391545 0)
(0.955334 0.0438569 0)
(0.952079 0.0458284 0)
(0.947194 0.0470087 0)
(0.940825 0.0472166 0)
(0.923783 0.0429547 0)
(0.895701 0.0316539 0)
(0.875671 0.0246735 0)
(0.86405 0.0243189 0)
(0.8559 0.026274 0)
(0.849439 0.0285698 0)
(0.852854 0.0356747 0)
(0.867684 0.0499249 0)
(0.873052 0.0589231 0)
(0.869098 0.0606696 0)
(0.862207 0.0600428 0)
(0.853246 0.0588632 0)
(0.834363 0.0531262 0)
(0.802359 0.0405782 0)
(0.771899 0.0277472 0)
(0.748502 0.0156006 0)
(0.732339 0.00699975 0)
(0.722253 0.00399793 0)
(0.716228 0.00397522 0)
(0.720152 0.0109637 0)
(0.72221 0.0202843 0)
(0.715254 0.0241166 0)
(0.704004 0.0220486 0)
(0.687691 0.0109361 0)
(0.663504 -0.00721341 0)
(0.626329 -0.0234888 0)
(0.603779 -0.0991906 0)
(-0.110648 -0.168539 0)
(-1.49913 -0.120768 0)
(1.20271 -0.103462 0)
(1.21859 -0.110617 0)
(1.21583 -0.107499 0)
(1.21079 -0.105302 0)
(1.20089 -0.0976684 0)
(1.1784 -0.0837809 0)
(1.15794 -0.0777816 0)
(1.15002 -0.0786659 0)
(1.14625 -0.0800346 0)
(1.14312 -0.0820782 0)
(1.14356 -0.0854692 0)
(1.15306 -0.0906888 0)
(1.16172 -0.0922719 0)
(1.16241 -0.0890895 0)
(1.15959 -0.0844753 0)
(1.15498 -0.0773953 0)
(1.14784 -0.0687935 0)
(1.13976 -0.0626129 0)
(1.13211 -0.05953 0)
(1.12572 -0.0578456 0)
(1.12001 -0.055968 0)
(1.11454 -0.0537341 0)
(1.1088 -0.0510736 0)
(1.10373 -0.0483658 0)
(1.10008 -0.0468657 0)
(1.10116 -0.0434849 0)
(1.1081 -0.0386588 0)
(1.11145 -0.0338957 0)
(1.11163 -0.0295147 0)
(1.10952 -0.0258891 0)
(1.10567 -0.0231163 0)
(1.10092 -0.0209934 0)
(1.08762 -0.0195699 0)
(1.06974 -0.0197893 0)
(1.06015 -0.0196966 0)
(1.05516 -0.0193206 0)
(1.05094 -0.018969 0)
(1.0469 -0.0183363 0)
(1.04949 -0.0160104 0)
(1.067 -0.00995068 0)
(1.07537 -0.00489946 0)
(1.07304 -0.00264794 0)
(1.06871 -0.00119856 0)
(1.06408 0.000446201 0)
(1.05801 0.00168174 0)
(1.04059 -0.0023027 0)
(1.01863 -0.00824924 0)
(1.00603 -0.00925807 0)
(0.999672 -0.00741519 0)
(0.994827 -0.00535837 0)
(0.990517 -0.00337857 0)
(0.99202 0.000853531 0)
(1.0073 0.0109308 0)
(1.01611 0.0187054 0)
(1.0151 0.02168 0)
(1.01116 0.0230706 0)
(1.00665 0.0238916 0)
(1.00062 0.0240353 0)
(0.982806 0.0184792 0)
(0.961149 0.0112117 0)
(0.946696 0.00845432 0)
(0.937576 0.0103263 0)
(0.93046 0.0141123 0)
(0.924836 0.0176304 0)
(0.926547 0.0251467 0)
(0.939373 0.0385277 0)
(0.944623 0.0461174 0)
(0.942717 0.0477747 0)
(0.938486 0.0476139 0)
(0.933337 0.0472446 0)
(0.92426 0.0456972 0)
(0.899521 0.0361611 0)
(0.873688 0.026176 0)
(0.857783 0.0210794 0)
(0.848381 0.0210009 0)
(0.841122 0.0221145 0)
(0.837105 0.0252159 0)
(0.846925 0.0367951 0)
(0.859481 0.0512548 0)
(0.860324 0.0580581 0)
(0.854386 0.0590181 0)
(0.846514 0.0586177 0)
(0.833677 0.0572443 0)
(0.810274 0.0477202 0)
(0.779933 0.0311915 0)
(0.753156 0.0173529 0)
(0.732751 0.00679267 0)
(0.718647 -0.00178663 0)
(0.710303 -0.00548142 0)
(0.707742 -0.00725279 0)
(0.711604 -0.00279014 0)
(0.710016 0.00185232 0)
(0.702505 0.00149517 0)
(0.692781 -0.0066768 0)
(0.678184 -0.0185949 0)
(0.655822 -0.0295426 0)
(0.635203 -0.0741935 0)
(-0.110164 -0.169092 0)
(-1.5072 -0.115389 0)
(1.20212 -0.113488 0)
(1.20751 -0.114245 0)
(1.2054 -0.108041 0)
(1.19827 -0.095376 0)
(1.18493 -0.0768158 0)
(1.17219 -0.0655481 0)
(1.16126 -0.0646947 0)
(1.15293 -0.069466 0)
(1.14815 -0.0747417 0)
(1.14543 -0.0819379 0)
(1.14657 -0.0901968 0)
(1.15128 -0.0936372 0)
(1.15306 -0.0909596 0)
(1.15158 -0.0851311 0)
(1.14841 -0.0753588 0)
(1.14412 -0.0652966 0)
(1.14016 -0.060651 0)
(1.13501 -0.0597242 0)
(1.12745 -0.0619171 0)
(1.11999 -0.0628163 0)
(1.1135 -0.0604914 0)
(1.10758 -0.0564391 0)
(1.10192 -0.051256 0)
(1.09676 -0.0462527 0)
(1.09294 -0.0425308 0)
(1.0958 -0.0382666 0)
(1.10246 -0.0355623 0)
(1.10446 -0.0330366 0)
(1.10406 -0.0295763 0)
(1.10209 -0.0260004 0)
(1.09846 -0.0231848 0)
(1.09393 -0.0215601 0)
(1.08232 -0.0194542 0)
(1.06443 -0.0186928 0)
(1.05451 -0.0188051 0)
(1.04933 -0.0189843 0)
(1.04497 -0.0190043 0)
(1.04062 -0.019032 0)
(1.04138 -0.0185233 0)
(1.05639 -0.0156052 0)
(1.06655 -0.0105679 0)
(1.06602 -0.00633282 0)
(1.06232 -0.00319874 0)
(1.05799 -0.000694037 0)
(1.0534 0.00125728 0)
(1.04224 0.0015508 0)
(1.01841 -0.00336902 0)
(1.00101 -0.0066104 0)
(0.993117 -0.00700205 0)
(0.988129 -0.00614307 0)
(0.98334 -0.00506278 0)
(0.980855 -0.00283448 0)
(0.991847 0.00470264 0)
(1.00558 0.014284 0)
(1.00771 0.0194048 0)
(1.00455 0.0218853 0)
(1.00028 0.0233868 0)
(0.995835 0.0244226 0)
(0.985769 0.0235128 0)
(0.962885 0.0155313 0)
(0.942578 0.0104612 0)
(0.929939 0.00981579 0)
(0.921797 0.0124706 0)
(0.915348 0.0159681 0)
(0.911858 0.0209816 0)
(0.922211 0.0333808 0)
(0.934437 0.0457413 0)
(0.935738 0.0494529 0)
(0.93218 0.0490431 0)
(0.927608 0.0479412 0)
(0.921829 0.0469068 0)
(0.905413 0.0415389 0)
(0.877829 0.029806 0)
(0.8575 0.0218182 0)
(0.844686 0.0168734 0)
(0.835888 0.0156077 0)
(0.828722 0.0163448 0)
(0.82743 0.02141 0)
(0.8389 0.0369695 0)
(0.847188 0.0516457 0)
(0.845904 0.0587614 0)
(0.839805 0.0612449 0)
(0.831738 0.061071 0)
(0.817507 0.057123 0)
(0.792724 0.0441432 0)
(0.763766 0.0261313 0)
(0.739757 0.0105272 0)
(0.721701 -0.00152021 0)
(0.709302 -0.0125514 0)
(0.701719 -0.0198908 0)
(0.700731 -0.0215764 0)
(0.702606 -0.0164043 0)
(0.699283 -0.0137996 0)
(0.693905 -0.0193093 0)
(0.686852 -0.0300632 0)
(0.675757 -0.0387469 0)
(0.660699 -0.0604225 0)
(-0.105398 -0.168147 0)
(-1.51417 -0.109809 0)
(1.19996 -0.113895 0)
(1.19666 -0.111728 0)
(1.18882 -0.0977926 0)
(1.17672 -0.0782082 0)
(1.16968 -0.0650689 0)
(1.16564 -0.0613745 0)
(1.16165 -0.0631457 0)
(1.15835 -0.0703368 0)
(1.15515 -0.0810693 0)
(1.15104 -0.0899552 0)
(1.14629 -0.0918829 0)
(1.14344 -0.0889871 0)
(1.14254 -0.0803262 0)
(1.14046 -0.0695812 0)
(1.13765 -0.0610639 0)
(1.13607 -0.0583261 0)
(1.13533 -0.0572387 0)
(1.13191 -0.05734 0)
(1.12698 -0.058709 0)
(1.11756 -0.0617015 0)
(1.10772 -0.0627464 0)
(1.09976 -0.0602241 0)
(1.09317 -0.055168 0)
(1.08808 -0.0492882 0)
(1.08489 -0.0435158 0)
(1.09045 -0.0360208 0)
(1.09902 -0.0312634 0)
(1.10021 -0.0298253 0)
(1.09821 -0.0290769 0)
(1.09532 -0.0278435 0)
(1.09173 -0.0261865 0)
(1.08762 -0.0252334 0)
(1.07766 -0.0239436 0)
(1.06088 -0.0231764 0)
(1.05089 -0.0227184 0)
(1.04551 -0.0223711 0)
(1.04048 -0.0224262 0)
(1.03575 -0.0226705 0)
(1.03629 -0.0223612 0)
(1.04885 -0.0190595 0)
(1.05881 -0.0131611 0)
(1.05953 -0.00762291 0)
(1.05653 -0.00290591 0)
(1.05241 0.000851433 0)
(1.04809 0.00335301 0)
(1.0406 0.00482237 0)
(1.01977 0.00169181 0)
(0.999715 -0.00345269 0)
(0.98949 -0.0062188 0)
(0.983569 -0.00723379 0)
(0.978259 -0.00729282 0)
(0.97378 -0.00656911 0)
(0.978999 -0.000912254 0)
(0.99477 0.0107683 0)
(1.00068 0.0188241 0)
(0.998658 0.0230207 0)
(0.994695 0.0259172 0)
(0.990501 0.0277432 0)
(0.985001 0.0284788 0)
(0.967475 0.0234165 0)
(0.942439 0.0138627 0)
(0.925699 0.0103778 0)
(0.915358 0.0101959 0)
(0.908194 0.0123068 0)
(0.90241 0.0153999 0)
(0.905222 0.0240006 0)
(0.921519 0.0396411 0)
(0.929398 0.0492774 0)
(0.927982 0.0515397 0)
(0.923991 0.0510304 0)
(0.919312 0.0499536 0)
(0.910315 0.0466093 0)
(0.887778 0.0341952 0)
(0.862975 0.0202844 0)
(0.845483 0.0132749 0)
(0.83311 0.0106285 0)
(0.824282 0.0100416 0)
(0.81725 0.0109399 0)
(0.816941 0.0181774 0)
(0.827573 0.0362734 0)
(0.834891 0.0509039 0)
(0.834501 0.0564627 0)
(0.828621 0.0581972 0)
(0.819643 0.0581523 0)
(0.803983 0.0539976 0)
(0.780017 0.0394392 0)
(0.753627 0.0177533 0)
(0.730876 -0.00186027 0)
(0.712502 -0.016608 0)
(0.700258 -0.0286109 0)
(0.693638 -0.0352504 0)
(0.693063 -0.0342386 0)
(0.693977 -0.0273433 0)
(0.692838 -0.0260912 0)
(0.692523 -0.0357239 0)
(0.689323 -0.0451721 0)
(0.679602 -0.0562433 0)
(-0.0991161 -0.16532 0)
(-1.51917 -0.105933 0)
(1.19213 -0.112107 0)
(1.18212 -0.0987392 0)
(1.16899 -0.0790624 0)
(1.16317 -0.0693835 0)
(1.16089 -0.06676 0)
(1.16192 -0.066514 0)
(1.1661 -0.0719979 0)
(1.16552 -0.0807926 0)
(1.16052 -0.0873579 0)
(1.15389 -0.0895563 0)
(1.14296 -0.0863112 0)
(1.13388 -0.0766299 0)
(1.1302 -0.0650893 0)
(1.13063 -0.0536005 0)
(1.13231 -0.0479488 0)
(1.13426 -0.0484142 0)
(1.13403 -0.0513001 0)
(1.13134 -0.0537098 0)
(1.12751 -0.0552806 0)
(1.11865 -0.0603207 0)
(1.10428 -0.0637734 0)
(1.09145 -0.0613498 0)
(1.08297 -0.0550657 0)
(1.0782 -0.0490549 0)
(1.07528 -0.0435768 0)
(1.08202 -0.0349758 0)
(1.09568 -0.0274099 0)
(1.09909 -0.0255257 0)
(1.09668 -0.0254033 0)
(1.09299 -0.0249153 0)
(1.08897 -0.0241084 0)
(1.08494 -0.0236234 0)
(1.0762 -0.0234683 0)
(1.05943 -0.0251671 0)
(1.04864 -0.0272119 0)
(1.04232 -0.0287645 0)
(1.03692 -0.0293073 0)
(1.03204 -0.0294657 0)
(1.03066 -0.0278478 0)
(1.04028 -0.020259 0)
(1.05166 -0.010558 0)
(1.05406 -0.00432405 0)
(1.05164 1.36572e-05 0)
(1.04777 0.00369831 0)
(1.04345 0.00592141 0)
(1.03816 0.00714805 0)
(1.02293 0.00442092 0)
(1.00087 -0.00335231 0)
(0.987828 -0.00806777 0)
(0.980731 -0.00992774 0)
(0.975199 -0.0102006 0)
(0.970001 -0.00980966 0)
(0.969171 -0.00603517 0)
(0.982785 0.00671021 0)
(0.992958 0.0188101 0)
(0.992735 0.0251399 0)
(0.989294 0.0290327 0)
(0.985366 0.0316402 0)
(0.981391 0.0323484 0)
(0.972139 0.0304004 0)
(0.947112 0.0192306 0)
(0.924656 0.010035 0)
(0.911796 0.00756219 0)
(0.90322 0.00799878 0)
(0.896552 0.0102849 0)
(0.892614 0.0150258 0)
(0.903846 0.0300984 0)
(0.919761 0.0468191 0)
(0.923571 0.0534108 0)
(0.921173 0.0541141 0)
(0.917153 0.0529959 0)
(0.911884 0.0507327 0)
(0.898039 0.0423759 0)
(0.872078 0.0260245 0)
(0.850164 0.0136716 0)
(0.834169 0.00789994 0)
(0.821078 0.00634263 0)
(0.811228 0.00706958 0)
(0.804446 0.00858362 0)
(0.804938 0.0164066 0)
(0.8169 0.0345911 0)
(0.824981 0.0483408 0)
(0.823929 0.0534501 0)
(0.816985 0.0549573 0)
(0.807807 0.053449 0)
(0.7931 0.0474159 0)
(0.770375 0.0326228 0)
(0.74344 0.010272 0)
(0.720366 -0.0118734 0)
(0.703309 -0.0307591 0)
(0.692617 -0.045257 0)
(0.686386 -0.0491835 0)
(0.686273 -0.0435749 0)
(0.689815 -0.0350056 0)
(0.695331 -0.0376324 0)
(0.699163 -0.0493615 0)
(0.693461 -0.0556444 0)
(-0.0925884 -0.164515 0)
(-1.52338 -0.104101 0)
(1.17825 -0.0987882 0)
(1.1659 -0.0734213 0)
(1.16098 -0.06349 0)
(1.15828 -0.0621158 0)
(1.16132 -0.064969 0)
(1.16926 -0.076261 0)
(1.17155 -0.0857041 0)
(1.16759 -0.0898192 0)
(1.16171 -0.0908897 0)
(1.14783 -0.0871234 0)
(1.13075 -0.0746453 0)
(1.12237 -0.0629044 0)
(1.11968 -0.0551194 0)
(1.1228 -0.0457849 0)
(1.13233 -0.0415985 0)
(1.13672 -0.0447702 0)
(1.13581 -0.049628 0)
(1.13245 -0.0532188 0)
(1.12847 -0.0552021 0)
(1.12037 -0.0582106 0)
(1.09937 -0.0612683 0)
(1.0816 -0.0566209 0)
(1.07375 -0.0503345 0)
(1.06984 -0.0460008 0)
(1.06675 -0.0425765 0)
(1.07172 -0.0374941 0)
(1.08999 -0.0291103 0)
(1.0976 -0.0250011 0)
(1.09555 -0.0247447 0)
(1.09142 -0.0243925 0)
(1.08714 -0.0237157 0)
(1.08293 -0.0231408 0)
(1.07605 -0.0235704 0)
(1.06064 -0.0279904 0)
(1.04728 -0.032508 0)
(1.03969 -0.0341794 0)
(1.034 -0.0346667 0)
(1.029 -0.0342312 0)
(1.02459 -0.0325457 0)
(1.02824 -0.0244437 0)
(1.04231 -0.00982163 0)
(1.04879 -0.00041185 0)
(1.04777 0.00392091 0)
(1.04428 0.0067434 0)
(1.03999 0.00875223 0)
(1.03563 0.00927476 0)
(1.02616 0.00716257 0)
(1.0047 -0.00174255 0)
(0.987781 -0.00879966 0)
(0.97842 -0.0107768 0)
(0.971817 -0.0105872 0)
(0.966314 -0.00914959 0)
(0.962044 -0.00743591 0)
(0.968451 0.00217486 0)
(0.983039 0.0196438 0)
(0.986903 0.0297034 0)
(0.984542 0.0335338 0)
(0.98103 0.0348377 0)
(0.977259 0.0348204 0)
(0.972579 0.0339024 0)
(0.955464 0.027056 0)
(0.928018 0.0129832 0)
(0.910565 0.006028 0)
(0.899965 0.00508122 0)
(0.892037 0.00705242 0)
(0.885835 0.0101016 0)
(0.886556 0.0182851 0)
(0.904285 0.0379367 0)
(0.916562 0.0519116 0)
(0.917654 0.0557566 0)
(0.914788 0.0545197 0)
(0.910176 0.0518754 0)
(0.902636 0.047903 0)
(0.88424 0.0356879 0)
(0.858585 0.0186694 0)
(0.837321 0.00893045 0)
(0.82064 0.00624841 0)
(0.807679 0.00580439 0)
(0.799268 0.00553462 0)
(0.793691 0.00558138 0)
(0.796822 0.0108285 0)
(0.810674 0.0260288 0)
(0.81939 0.0374373 0)
(0.818255 0.0417318 0)
(0.810533 0.0438881 0)
(0.799024 0.0432625 0)
(0.782121 0.037625 0)
(0.760017 0.0239626 0)
(0.734521 0.000576423 0)
(0.712887 -0.0260796 0)
(0.696952 -0.0481716 0)
(0.68684 -0.0597587 0)
(0.680974 -0.0601992 0)
(0.683367 -0.0505032 0)
(0.693465 -0.0444012 0)
(0.704232 -0.0528625 0)
(0.703133 -0.0592618 0)
(-0.085418 -0.16202 0)
(-1.52717 -0.102596 0)
(1.1627 -0.0802471 0)
(1.15459 -0.0652151 0)
(1.15338 -0.0617911 0)
(1.16119 -0.064263 0)
(1.17255 -0.0777617 0)
(1.17456 -0.0887222 0)
(1.17115 -0.0934034 0)
(1.16637 -0.0940775 0)
(1.15436 -0.0893643 0)
(1.13213 -0.0731584 0)
(1.11928 -0.0591283 0)
(1.11425 -0.0527159 0)
(1.1112 -0.0483496 0)
(1.11801 -0.0437172 0)
(1.13593 -0.043264 0)
(1.14105 -0.0469318 0)
(1.13779 -0.0497399 0)
(1.13333 -0.0517944 0)
(1.12874 -0.0531726 0)
(1.11897 -0.0518701 0)
(1.09305 -0.046938 0)
(1.07321 -0.0446019 0)
(1.06738 -0.0432922 0)
(1.06445 -0.0421842 0)
(1.06246 -0.0411523 0)
(1.06544 -0.0404311 0)
(1.08202 -0.0363789 0)
(1.09446 -0.0294105 0)
(1.09372 -0.0255637 0)
(1.08913 -0.0244098 0)
(1.08459 -0.0229504 0)
(1.08014 -0.0214963 0)
(1.07537 -0.0203999 0)
(1.0632 -0.0238924 0)
(1.0483 -0.0308812 0)
(1.03819 -0.0348458 0)
(1.03052 -0.035565 0)
(1.02413 -0.0342126 0)
(1.0193 -0.0321518 0)
(1.01662 -0.0290591 0)
(1.02784 -0.0169229 0)
(1.04152 -0.00253726 0)
(1.04354 0.00428948 0)
(1.04049 0.00737597 0)
(1.03621 0.00918403 0)
(1.03177 0.00992636 0)
(1.02623 0.0103617 0)
(1.00967 0.00661997 0)
(0.988697 -0.00231229 0)
(0.97637 -0.00714674 0)
(0.968813 -0.00776131 0)
(0.962933 -0.00675233 0)
(0.957735 -0.00503313 0)
(0.95569 -0.00107392 0)
(0.968365 0.0137931 0)
(0.979609 0.0296959 0)
(0.980091 0.0364172 0)
(0.977142 0.0380115 0)
(0.973659 0.0376621 0)
(0.969679 0.0368676 0)
(0.961286 0.0336558 0)
(0.936287 0.0216454 0)
(0.912141 0.00974505 0)
(0.89841 0.00523499 0)
(0.889296 0.00536757 0)
(0.882419 0.00751292 0)
(0.877404 0.0108497 0)
(0.884833 0.0220376 0)
(0.904226 0.0419852 0)
(0.91272 0.0517207 0)
(0.911732 0.0530281 0)
(0.907363 0.0514547 0)
(0.901417 0.0496658 0)
(0.891157 0.0463351 0)
(0.869222 0.0353445 0)
(0.842396 0.0207869 0)
(0.821429 0.0123001 0)
(0.807565 0.00864705 0)
(0.797782 0.005328 0)
(0.790798 0.001515 0)
(0.785685 -4.80445e-05 0)
(0.790607 0.0037617 0)
(0.805261 0.0173348 0)
(0.811706 0.0279968 0)
(0.807858 0.0329557 0)
(0.799066 0.0350692 0)
(0.786842 0.0333058 0)
(0.770481 0.0267225 0)
(0.751134 0.0136951 0)
(0.729308 -0.0109608 0)
(0.70977 -0.0420065 0)
(0.693198 -0.0642424 0)
(0.683335 -0.0723316 0)
(0.678835 -0.0704969 0)
(0.686312 -0.0613689 0)
(0.70223 -0.0619566 0)
(0.706331 -0.0663426 0)
(-0.0783649 -0.154022 0)
(-1.53096 -0.100665 0)
(1.15447 -0.0668352 0)
(1.14913 -0.0601109 0)
(1.15832 -0.0636913 0)
(1.17455 -0.0777342 0)
(1.17938 -0.0857052 0)
(1.17562 -0.0878898 0)
(1.17086 -0.0889949 0)
(1.15976 -0.0871069 0)
(1.13452 -0.0734391 0)
(1.11675 -0.0599658 0)
(1.10989 -0.0556724 0)
(1.10639 -0.0535253 0)
(1.10475 -0.0507557 0)
(1.11872 -0.048621 0)
(1.14009 -0.0511433 0)
(1.14245 -0.0511406 0)
(1.13759 -0.0502213 0)
(1.13255 -0.0490794 0)
(1.12596 -0.0456397 0)
(1.11133 -0.0374756 0)
(1.08821 -0.0304206 0)
(1.07175 -0.030552 0)
(1.06614 -0.0332681 0)
(1.06331 -0.0362825 0)
(1.06264 -0.0417544 0)
(1.06457 -0.048331 0)
(1.07184 -0.0492877 0)
(1.08508 -0.0383118 0)
(1.08978 -0.028235 0)
(1.0873 -0.0216044 0)
(1.0829 -0.0170401 0)
(1.07824 -0.0144913 0)
(1.07406 -0.0138466 0)
(1.06803 -0.0157156 0)
(1.05298 -0.0243423 0)
(1.03805 -0.031666 0)
(1.02772 -0.0341949 0)
(1.01974 -0.0341689 0)
(1.01419 -0.0328953 0)
(1.00972 -0.0313043 0)
(1.01194 -0.0247607 0)
(1.02912 -0.00901356 0)
(1.03779 0.00210682 0)
(1.03599 0.00681574 0)
(1.03158 0.00950756 0)
(1.02665 0.0123564 0)
(1.02189 0.0150483 0)
(1.01285 0.0155467 0)
(0.993082 0.00837146 0)
(0.976188 0.000212932 0)
(0.966476 -0.00450461 0)
(0.959539 -0.0062569 0)
(0.953694 -0.00509107 0)
(0.94852 -0.00263389 0)
(0.950577 0.00629403 0)
(0.966638 0.0261515 0)
(0.974318 0.0383433 0)
(0.97303 0.0413218 0)
(0.969503 0.0413229 0)
(0.965889 0.0406041 0)
(0.961506 0.0388673 0)
(0.946603 0.0311251 0)
(0.91855 0.0158683 0)
(0.899229 0.00725384 0)
(0.888677 0.00420646 0)
(0.881716 0.00325946 0)
(0.875498 0.00332743 0)
(0.872142 0.00594354 0)
(0.884584 0.0202066 0)
(0.901397 0.0410184 0)
(0.905818 0.0490395 0)
(0.90282 0.0490642 0)
(0.897334 0.04807 0)
(0.890148 0.0478723 0)
(0.878812 0.0464182 0)
(0.858123 0.0352564 0)
(0.832724 0.0187847 0)
(0.813205 0.00804621 0)
(0.799901 0.00278525 0)
(0.789905 -0.000560853 0)
(0.783262 -0.00432542 0)
(0.780083 -0.00801343 0)
(0.788326 -0.00656232 0)
(0.800686 0.00470515 0)
(0.80312 0.0146356 0)
(0.797408 0.0207678 0)
(0.787902 0.0244431 0)
(0.775179 0.0239279 0)
(0.760838 0.0170194 0)
(0.746363 0.00215589 0)