/*--------------------------------*- C++ -*----------------------------------*\
  =========                 |
  \\      /  F ield         | OpenFOAM: The Open Source CFD Toolbox
   \\    /   O peration     | Website:  https://openfoam.org
    \\  /    A nd           | Version:  12
     \\/     M anipulation  |
\*---------------------------------------------------------------------------*/
FoamFile
{
    format      ascii;
    class       volScalarField;
    location    "4.9";
    object      rho;
}
// * * * * * * * * * * * * * * * * * * * * * * * * * * * * * * * * * * * * * //

dimensions      [1 -3 0 0 0 0 0];

internalField   nonuniform List<scalar> 
46253
(
1.25097
1.40001
1.40001
1.40001
1.40001
1.40001
1.18977
1.45817
1.40001
1.40001
1.25637
1.20172
1.39996
1.39998
1.40001
1.40001
1.40001
1.40001
1.40001
1.40001
1.40001
1.40001
1.40001
1.22492
1.19623
1.40001
1.40001
1.40001
1.40001
1.45856
1.52905
1.89763
1.91572
1.40001
1.40001
1.40001
1.40001
1.40001
1.45214
1.40001
1.18277
1.20195
1.40104
1.41736
1.28331
1.40001
1.40001
1.40001
1.87175
1.86518
1.85568
1.85427
1.40001
1.45607
1.40007
1.27418
1.81949
1.81545
1.65663
1.17484
1.40001
1.42863
1.40001
1.40001
1.40001
1.4002
1.40013
1.40001
1.27657
1.2598
1.18963
1.80542
1.8035
1.44473
1.40001
1.2232
1.74538
1.74301
1.40001
1.91176
1.91124
1.78095
1.40001
1.77906
1.18462
1.40001
1.69103
1.68927
1.45077
1.40001
1.40001
1.18225
1.40001
1.83383
1.40001
1.82773
1.40001
1.40001
1.65408
1.40001
1.40001
1.40001
1.40001
1.52438
1.39999
1.18758
1.20756
1.642
1.64048
1.23008
1.45483
1.79282
1.78916
1.40001
1.40001
1.45097
1.21869
1.1738
1.84643
1.28773
1.40001
1.40001
1.77007
1.76674
1.40001
1.85687
1.40001
1.25492
1.38786
1.73104
1.61102
1.61007
1.40001
1.18796
1.72804
1.40001
1.71445
1.71282
1.28384
1.40001
1.75253
1.59205
1.59008
1.51336
1.75347
1.40125
1.69857
1.69665
1.4523
1.40001
1.22731
1.40001
1.72305
1.72026
1.47524
1.25036
1.25231
1.40001
1.67629
1.40002
1.67441
1.2081
1.27099
1.40001
1.19228
1.70636
1.18629
1.7047
2.03248
1.40001
1.66254
1.66064
1.40001
1.18357
1.40001
1.29974
1.44809
1.40001
1.43988
1.23688
1.4
1.47359
1.64829
1.64648
1.40001
1.68354
1.68113
1.28707
1.40001
1.40001
1.40001
1.40001
1.15468
1.40001
1.40001
1.40001
1.45479
1.40001
1.49619
1.49276
1.40001
1.40001
1.66931
1.66817
1.40001
1.22736
1.46922
1.62955
1.62815
1.40001
1.40001
1.84616
1.18184
1.40001
1.44873
1.40001
1.50832
1.19106
1.61662
1.40001
1.40001
1.61501
1.30029
1.65515
1.65349
1.18989
1.40001
1.40001
1.46754
1.46498
1.59866
1.40001
1.40001
1.40001
1.40001
1.40001
1.40001
1.40001
1.59567
1.61594
1.40001
1.40001
1.40001
1.40001
1.40001
1.40001
1.40001
1.46799
1.40001
1.59846
1.59668
1.61302
1.44051
1.40001
1.43869
1.63629
1.63401
1.29874
1.18684
1.40001
1.19667
1.18177
1.22358
1.51652
1.43555
1.40001
1.40001
1.40001
1.62302
1.58001
1.62146
1.40001
1.40001
1.40001
1.57938
1.40001
1.40043
1.40001
1.45563
1.32111
1.41578
1.41434
1.40001
1.40001
1.40001
1.15458
1.1689
1.28755
1.4994
1.40001
1.64529
1.64314
1.18847
1.40001
1.63518
1.56313
1.40001
1.56008
1.18272
1.56835
1.83021
1.56694
1.26167
1.83275
1.40001
1.60586
1.60378
1.40001
1.51485
1.40001
1.40001
1.43919
1.40001
1.55691
1.40001
1.55582
1.27428
1.63279
1.40001
1.45539
1.2547
1.40001
1.1913
1.1955
1.45341
1.49427
1.40001
1.40001
1.54495
1.54361
1.37035
1.36855
1.40001
1.40001
1.40001
1.42952
1.29321
1.58594
1.58414
1.40001
1.40001
1.40001
1.40001
1.86314
1.40001
1.53453
1.53323
1.40001
1.28379
1.40001
1.4551
1.40001
1.21892
1.40001
1.21202
1.40001
1.57523
1.40001
1.57314
1.40001
1.21151
1.40001
1.40001
1.40001
1.40001
1.40001
1.40001
1.40001
1.52238
1.40001
1.40001
1.40001
1.40001
1.52081
1.40001
1.62523
1.28016
1.40001
1.40001
1.40001
1.18792
1.41977
1.25658
1.56245
1.45765
1.56095
1.40001
1.40001
1.51196
1.87639
1.40001
1.5017
1.5111
1.16407
1.40001
1.45777
1.45261
1.45291
1.40001
1.528
1.40001
1.32129
1.31648
1.62258
1.40001
1.40305
1.40001
1.40001
1.40001
1.40001
1.40001
1.40001
1.79459
1.40001
1.52344
1.40001
1.29754
1.40001
1.40001
1.2998
1.40001
1.40001
1.5025
1.40001
1.55141
1.40001
1.40001
1.50123
1.54922
1.40001
1.44451
1.40001
1.40001
1.40001
1.40001
1.48291
1.45489
1.40001
1.40001
1.45664
1.25734
1.40001
1.16602
1.40001
1.48871
1.48006
1.40001
1.40001
1.28336
1.40001
1.32362
1.53519
1.40001
1.37996
1.40001
1.75174
1.4573
1.40013
1.53928
1.49307
1.40001
1.4928
1.49405
1.53799
1.40001
1.49277
1.40001
1.40001
1.40001
1.40001
1.40001
1.43793
1.40001
1.45721
1.26138
1.48449
1.30809
1.46291
1.48391
1.43695
1.28514
1.28535
1.40001
1.40001
1.40001
1.40001
1.38713
1.40001
1.32722
1.18894
1.18147
1.32968
1.49145
1.1717
1.4892
1.40001
1.40001
1.52921
1.51972
1.22539
1.52767
1.47491
1.47289
1.26889
1.18701
1.40001
1.26694
1.5215
1.40001
1.40001
1.40001
1.18171
1.40001
1.4571
1.38493
1.40001
1.40001
1.49763
1.40001
1.40001
1.42609
1.27868
1.52497
1.40001
1.40001
1.52647
1.40001
1.52452
1.53371
1.52559
1.40001
1.45234
1.45225
1.40001
1.4916
1.51581
1.40001
1.40001
1.51617
1.40001
1.19881
1.30396
1.40001
1.40001
1.5148
1.40001
1.40001
1.40001
1.40001
1.18335
1.40001
1.40001
1.45766
1.31073
1.45717
1.17653
1.40001
1.40001
1.40001
1.40001
1.40001
1.4
1.40001
1.48979
1.18577
1.40001
1.40001
1.40001
1.40001
1.40001
1.40001
1.19585
1.50622
1.40001
1.49154
1.40001
1.40001
1.2592
1.40001
1.40001
1.40001
1.50711
1.40001
1.40001
1.50649
1.48741
1.5567
1.40001
1.55952
1.56088
1.56386
1.46258
1.40001
1.44595
1.44432
1.49944
1.46623
1.40001
1.40001
1.44613
1.40001
1.82925
1.44149
1.40001
1.83559
1.47668
1.40001
1.51391
1.52238
1.40001
1.40001
1.45943
1.49797
1.40001
1.40001
1.43863
1.40017
1.40002
1.57485
1.51227
1.66751
1.66618
1.66281
1.66534
1.29654
1.48579
1.65318
1.4243
1.65503
1.64292
1.40001
1.19436
1.22793
1.6437
1.40001
1.63404
1.40001
1.63563
1.40001
1.49526
1.62419
1.40001
1.62583
1.73772
1.40001
1.61239
1.40001
1.61443
1.40001
1.18381
1.40001
1.31612
1.22688
1.40001
1.40001
1.60359
1.605
1.40001
1.51766
1.59444
1.59621
1.43855
1.40001
1.40001
1.57909
1.43149
1.58087
1.40001
1.48905
1.56759
1.26322
1.56981
1.43087
1.48743
1.40001
1.40001
1.40001
1.55854
1.55974
1.4546
1.40001
1.40001
1.55015
1.33711
1.55108
1.25588
1.40001
1.53587
1.53736
1.40001
1.40001
1.40001
1.42042
1.40001
1.51619
1.55196
1.5329
1.40001
1.52013
1.40001
1.52202
1.40001
1.40001
1.52019
1.52022
1.51152
1.51299
1.4842
1.52893
1.50131
1.53253
1.50244
1.40001
1.45444
1.48715
1.48809
1.40001
1.29153
1.53288
1.48595
1.99784
1.40001
1.40001
1.40001
1.58053
1.47875
1.58857
1.57717
1.46854
1.49157
1.22994
1.57109
1.56809
1.55118
1.55757
1.56023
1.28605
1.27916
1.40001
1.45849
1.84407
1.4191
1.40001
1.23811
1.4183
1.26627
1.46736
1.19813
1.40001
1.40001
1.40001
1.4804
1.40001
1.40001
1.40001
1.40001
1.40001
1.48001
1.40001
1.40001
1.40001
1.30348
1.29453
1.40001
1.44811
1.2954
1.24625
1.40001
1.40001
1.40001
1.40001
1.40001
1.42632
1.40001
1.48755
1.40001
1.55045
1.42697
1.55314
1.27302
1.40001
1.16292
1.18201
1.56508
1.40001
1.40001
1.40001
1.40001
1.40001
1.55711
1.55354
1.42483
1.20281
1.20078
1.40001
1.31743
1.40001
1.40001
1.55621
1.54319
1.39676
1.45755
1.52297
1.40014
1.45226
1.45987
1.40001
1.56041
1.25658
1.48774
1.40001
1.48804
1.40786
1.40001
1.4
1.49407
1.49712
1.40001
1.40668
1.28407
1.40001
1.40001
1.5898
1.59087
1.48468
1.40001
1.28686
1.28859
1.18312
1.42546
1.40001
1.52154
1.45834
1.25959
1.7288
1.40001
1.40001
1.40001
1.54467
1.5465
1.4
1.43261
1.40001
1.46177
1.5304
1.40001
1.47665
1.53169
1.46026
1.48867
1.48422
1.40001
1.48498
1.52915
1.2367
1.48404
1.25685
1.4958
1.40001
1.40001
1.49782
1.40001
1.40001
1.49465
1.48675
1.40001
1.39333
1.29817
1.51676
1.28432
1.28999
1.39272
1.28734
1.28279
1.25486
1.25249
1.40001
1.40001
1.46456
1.40001
1.40001
1.49711
1.31088
1.29792
1.40001
1.40001
1.53371
1.40001
1.52308
1.53286
1.63228
1.74061
1.48055
1.42154
1.40001
1.39992
1.40001
1.49069
1.52783
1.46504
1.28833
1.40001
1.45362
1.40001
1.52451
1.52275
1.45215
1.40001
1.51772
1.50471
1.51549
1.40001
1.40001
1.40001
1.40001
1.50397
1.52417
1.40001
1.43348
1.40001
1.28476
1.40001
1.28489
1.24598
1.18824
1.40001
1.38722
1.38671
1.17271
1.78455
1.40001
1.29489
1.45166
1.45184
1.29639
1.40001
1.40001
1.48947
1.58777
1.40001
1.40001
1.5239
1.24156
1.461
1.49425
1.40001
1.40001
1.40001
1.40001
1.40001
1.40001
1.88311
1.40001
1.24705
1.27718
1.27045
1.45552
1.26995
1.24615
1.28877
1.29545
1.47736
1.24515
1.28353
1.61829
1.62918
1.6389
1.60813
1.62054
1.40001
1.43761
1.63081
1.64692
1.60927
1.48579
1.64021
1.57727
1.59956
1.64935
1.40001
1.65771
1.60055
1.65911
1.40001
1.58499
1.65186
1.66853
1.66882
1.58646
1.69096
1.67433
1.57367
1.70165
1.40001
1.39247
1.57543
1.40001
1.56287
1.39827
1.40001
1.40001
1.37513
1.5641
1.40001
1.40001
1.40001
1.55403
1.56518
1.40001
1.40001
1.40001
1.55492
1.3735
1.2636
1.54063
1.40001
1.38201
1.54128
1.5259
1.52703
1.27394
1.51608
1.51663
1.50565
1.40001
1.22543
1.50733
1.40001
1.49109
1.19194
1.40001
1.40001
1.49204
1.32373
1.26115
1.48229
1.48311
1.59542
1.43566
1.56029
1.25726
1.57116
1.40001
1.53838
1.43465
1.57427
1.44107
1.41971
1.48791
1.56526
1.53631
1.53559
1.19658
1.56753
1.55463
1.55418
1.24577
1.225
1.28871
1.40001
1.22591
1.40001
1.22891
1.22446
1.24016
1.40001
1.85234
1.47328
1.40001
1.38683
1.37153
1.49891
1.50611
1.40001
1.4577
1.56374
1.57312
1.46394
1.46071
1.55886
1.56626
1.56087
1.55546
1.43814
1.28249
1.52738
1.49359
1.40001
1.3892
1.30332
1.2643
1.42492
1.40001
1.61353
1.55489
1.19988
1.40001
1.36333
1.18542
1.39988
1.3629
1.40001
1.70135
1.40001
1.34663
1.42544
1.45636
1.55565
1.43802
1.44523
1.27489
1.42693
1.40457
1.42387
1.53748
1.18765
1.20278
1.29028
1.25258
1.38749
1.57043
1.54684
1.40001
1.56965
1.64434
1.35146
1.4181
1.40001
1.40001
1.40001
1.5136
1.52821
1.40001
1.40001
1.2776
1.4225
1.25486
1.40001
1.18605
1.40001
1.51012
1.35911
1.40001
1.40001
1.28022
1.26055
1.67201
1.26553
1.53104
1.53211
1.40002
1.57428
1.52209
1.40001
1.36194
1.40001
1.43724
1.35082
1.38623
1.31026
1.40001
1.40001
1.38742
1.37073
1.53011
1.49715
1.51632
1.51705
1.40001
1.34981
1.53284
1.48552
1.48534
1.25413
1.4415
1.40001
1.36191
1.32151
1.52125
1.23082
1.52053
1.5566
1.40001
1.40001
1.40001
1.30925
1.50685
1.40001
1.48196
1.50946
1.47077
1.46699
1.29445
1.47977
1.57869
1.19486
1.60643
1.40001
1.40001
1.37122
1.62067
1.40001
1.40001
1.40001
1.50036
1.40001
1.50179
1.22167
1.43622
1.37907
1.40001
1.40001
1.37898
1.40001
1.6937
1.49152
1.6877
1.69223
1.40001
1.52651
1.68968
1.49457
1.3807
1.60302
1.40001
1.18528
1.66933
1.6378
1.37513
1.40001
1.59232
1.67132
1.65041
1.39993
1.51773
1.28789
1.40018
1.40001
1.29722
1.65358
1.40001
1.61854
1.52887
1.40001
1.40001
1.18764
1.63242
1.34411
1.47867
1.65398
1.41175
1.24726
1.68864
1.6327
1.63536
1.47455
1.34382
1.40001
1.52983
1.4112
1.52964
1.5572
1.40001
1.61511
1.40001
1.40001
1.40001
1.61584
1.40001
1.40001
1.33494
1.43194
1.40001
1.34133
1.61802
1.52865
1.498
1.40001
1.43722
1.40001
1.52413
1.40001
1.40001
1.40001
1.40001
1.40001
1.4347
1.40001
1.40001
1.40001
1.40001
1.40001
1.40001
1.42546
1.58995
1.40001
1.42053
1.40001
1.40001
1.40001
1.45022
1.31973
1.24856
1.40001
1.23673
1.52844
1.40001
1.40001
1.40001
1.52933
1.3987
1.56357
1.39986
1.6501
1.28165
1.27913
1.40001
1.62808
1.40001
1.40001
1.63162
1.40001
1.6687
1.66378
1.52041
1.64676
1.40001
1.40001
1.6224
1.62369
1.29348
1.61397
1.40001
1.6155
1.54953
1.40001
1.60573
1.40001
1.34211
1.34509
1.2969
1.59895
1.28706
1.33722
1.40001
1.60735
1.35562
1.35788
1.55227
1.55843
1.23132
1.55938
1.5517
1.43074
1.5571
1.55799
1.33113
1.58901
1.7728
1.45403
1.69702
1.5543
1.75878
1.75193
1.55574
1.33006
1.56102
1.40001
1.36332
1.55993
1.75683
1.68949
1.29009
1.52207
1.55754
1.73632
1.40134
1.74864
1.28862
1.7516
1.32207
1.40001
1.55495
1.25819
1.39749
1.50568
1.73771
1.56181
1.48409
1.40001
1.47638
1.62965
1.40001
1.40001
1.28969
1.40001
1.40001
1.47883
1.32709
1.40001
1.71765
1.70434
1.72007
1.40001
1.27639
1.52885
1.55837
1.5573
1.51093
1.70687
1.48237
1.54702
1.60008
1.34012
1.60706
1.69019
1.5825
1.69281
1.66881
1.40001
1.33682
1.40001
1.43636
1.40001
1.2932
1.44706
1.67202
1.56109
1.4848
1.5642
1.51862
1.63303
1.55044
1.4537
1.30316
1.61023
1.40001
1.65186
1.65437
1.40001
1.67826
1.40001
1.40001
1.40001
1.40001
1.40001
1.33063
1.40001
1.32461
1.29391
1.27549
1.62369
1.28382
1.27454
1.63431
1.25264
1.40001
1.26467
1.32427
1.35303
1.40001
1.45159
1.55096
1.40001
1.40001
1.66154
1.29074
1.30154
1.29643
1.5295
1.40001
1.40001
1.25637
1.41633
1.49304
1.59921
1.26063
1.40001
1.40001
1.40001
1.69694
1.40001
1.6194
1.62329
1.48641
1.29098
1.59657
1.60699
1.40001
1.45244
1.60869
1.68896
1.55102
1.40001
1.6562
1.40001
1.40001
1.54309
1.59932
1.48537
1.6415
1.29087
1.64566
1.65719
1.59492
1.40001
1.40001
1.54437
1.40768
1.47865
1.39019
1.40001
1.25069
1.43336
1.40001
1.56493
1.26438
1.40001
1.57778
1.26826
1.57849
1.40001
1.40001
1.38937
1.60696
1.26231
1.27936
1.21852
1.35811
1.33537
1.34479
1.27728
1.52323
1.39074
1.36432
1.40001
1.56905
1.26595
1.26226
1.35529
1.58492
1.57354
1.32588
1.40001
1.40001
1.36381
1.36262
1.19692
1.40001
1.53401
1.22456
1.54989
1.54175
1.55089
1.34684
1.53852
1.61463
1.56128
1.60441
1.26549
1.33781
1.53818
1.33848
1.45018
1.26781
1.32443
1.55101
1.40001
1.33409
1.48572
1.26002
1.66978
1.29557
1.50567
1.5577
1.66952
1.25673
1.52382
1.36236
1.40001
1.5538
1.52499
1.60458
1.62609
1.40001
1.38151
1.40001
1.4567
1.31982
1.54564
1.22708
1.23637
1.40001
1.24602
1.27675
1.50917
1.40001
1.25171
1.48569
1.53838
1.72941
1.49183
1.23868
1.31656
1.35401
1.53334
1.73183
1.22576
1.47963
1.49585
1.40001
1.49945
1.40001
1.49101
1.65788
1.48086
1.26822
1.63511
1.5124
1.40001
1.22781
1.68375
1.55169
1.40001
1.21814
1.68656
1.58143
1.8954
1.48687
1.40001
1.45454
1.6771
1.46418
1.40001
1.6626
1.46863
1.40001
1.57992
1.66488
1.4757
1.71661
1.64355
1.45577
1.3423
1.40001
1.40001
1.64723
1.25083
1.40001
1.25807
1.49976
1.58045
1.58852
1.26433
1.4882
1.34385
1.40001
1.27735
1.71028
1.40001
1.40001
1.60542
1.70586
1.2624
1.30809
1.43558
1.20863
1.20395
1.52945
1.33985
1.44076
1.43087
1.52943
1.63566
1.54776
1.42917
1.52842
1.30813
1.50975
1.50558
1.45566
1.45752
1.25561
1.40001
1.53359
1.71323
1.41567
1.60448
1.70988
1.27862
1.40001
1.42252
1.38481
1.46979
1.30091
1.40001
1.40001
1.54689
1.54659
1.34916
1.51476
1.40001
1.40001
1.5178
1.52833
1.38335
1.40001
1.40001
1.42773
1.40427
1.40644
1.66588
1.49851
1.28455
1.42495
1.38744
1.40001
1.28203
1.38138
1.32446
1.27232
1.53261
1.55629
1.77343
1.58737
1.49656
1.6018
1.37128
1.60102
1.59144
1.19994
1.45337
1.46372
1.40001
1.45223
1.40001
1.40001
1.36586
1.35606
1.37952
1.35876
1.66619
1.54988
1.40001
1.40001
1.37577
1.55702
1.2961
1.33118
1.35901
1.29511
1.49544
1.53764
1.56021
1.30346
1.25479
1.36191
1.71788
1.272
1.40001
1.41954
1.52451
1.30256
1.71794
1.37782
1.49274
1.40001
1.40001
1.49001
1.40503
1.67756
1.40001
1.40008
1.40323
1.40001
1.52787
1.32406
1.31044
1.30561
1.36318
1.53045
1.31919
1.40001
1.30922
1.31266
1.40001
1.25601
1.56433
1.32371
1.48802
1.49831
1.40001
1.40001
1.53004
1.33696
1.49585
1.31469
1.31656
1.70788
1.30695
1.6441
1.40001
1.50212
1.40001
1.40001
1.51311
1.48815
1.49119
1.50278
1.40001
1.56336
1.51709
1.32326
1.60969
1.3212
1.6291
1.34276
1.62391
1.40001
1.40001
1.2957
1.33521
1.53125
1.32063
1.40001
1.40001
1.56132
1.31876
1.27345
1.31914
1.47972
1.51326
1.3781
1.40001
1.76098
1.4
1.47947
1.40001
1.61714
1.64926
1.19732
1.40001
1.45165
1.40001
1.40001
1.40001
1.40001
1.40001
1.40001
1.62459
1.61159
1.40001
1.61855
1.72266
1.40001
1.49291
1.68056
1.40001
1.43971
1.51532
1.7418
1.40001
1.40001
1.30138
1.26179
1.33086
1.53045
1.64758
1.76627
1.43678
1.49441
1.55422
1.40001
1.40001
1.40001
1.40001
1.54489
1.45333
1.75631
1.53044
1.5483
1.32814
1.4534
1.29899
1.33459
1.41797
1.71086
1.19234
1.74379
1.49257
1.75611
1.49518
1.40001
1.54964
1.2486
1.54705
1.40001
1.40001
1.52641
1.23641
1.34562
1.42032
1.43626
1.72386
1.40001
1.3052
1.40001
1.45676
1.51361
1.46706
1.55172
1.29467
1.34268
1.48637
1.71306
1.51461
1.72542
1.46267
1.40001
1.5493
1.51849
1.30056
1.6765
1.66071
1.45408
1.40001
1.40001
1.50454
1.69679
1.56567
1.6369
1.71038
1.54314
1.24979
1.56068
1.40001
1.56161
1.54349
1.40001
1.70003
1.3924
1.24979
1.6796
1.49483
1.55022
1.47002
1.65808
1.46693
1.36698
1.40001
1.38477
1.38431
1.65965
1.45973
1.40001
1.38251
1.48062
1.52598
1.55085
1.63939
1.52997
1.36378
1.40001
1.52766
1.40001
1.36161
1.18544
1.40001
1.40001
1.70609
1.51535
1.59848
1.19507
1.40001
1.40001
1.6028
1.54725
1.54966
1.19381
1.40001
1.5747
1.40001
1.35709
1.68249
1.52741
1.50488
1.27957
1.40962
1.40001
1.61199
1.47543
1.51123
1.39792
1.35219
1.52853
1.47528
1.40568
1.39999
1.62741
1.42711
1.67821
1.40001
1.61483
1.60456
1.39999
1.55831
1.32883
1.42205
1.17792
1.62988
1.58877
1.44678
1.5301
1.57329
1.45893
1.58098
1.44166
1.19457
1.80642
1.23338
1.40001
1.40001
1.42142
1.41697
1.36471
1.5835
1.45957
1.57506
1.52479
1.63787
1.40521
1.71754
1.57982
1.54382
1.32768
1.62566
1.50021
1.40424
1.52036
1.46252
1.48419
1.55263
1.69366
1.49457
1.50682
1.53656
1.55388
1.54665
1.54438
1.83702
1.57847
1.5613
1.47324
1.81984
1.51468
1.57729
1.40001
1.40001
1.55028
1.40001
1.40001
1.40907
1.28931
1.51569
1.52642
1.57988
1.69697
1.67669
1.40001
1.45343
1.69584
1.33816
1.5791
1.33817
1.52603
1.21677
1.26605
1.51963
1.28918
1.80962
1.26213
1.35411
1.5511
1.33528
1.4841
1.81294
1.53197
1.7029
1.51647
1.50236
1.40001
1.40001
1.48585
1.40001
1.50591
1.40001
1.52714
1.50213
1.48879
1.50284
1.48296
1.78232
1.33849
1.40001
1.60941
1.52919
1.58
1.50845
1.78657
1.61835
1.53052
1.45822
1.4
1.51191
1.47434
1.43543
1.46406
1.53982
1.28763
1.24923
1.76209
1.56138
1.53164
1.53868
1.47699
1.53375
1.37524
1.46083
1.4084
1.40001
1.76583
1.55616
1.36638
1.3628
1.45858
1.43108
1.45005
1.28746
1.33339
1.49079
1.47052
1.35106
1.40001
1.5428
1.50756
1.37272
1.52519
1.38257
1.74522
1.40001
1.44697
1.43024
1.40001
1.40001
1.40001
1.40001
1.74821
1.61927
1.42804
1.62489
1.35927
1.40001
1.45042
1.36604
1.53512
1.51346
1.43222
1.4873
1.48709
1.52245
1.34848
1.40001
1.40001
1.40231
1.5732
1.40001
1.40001
1.35926
1.54572
1.42948
1.72656
1.47093
1.53879
1.40001
1.51528
1.51545
1.51522
1.55485
1.56468
1.47085
1.40001
1.40857
1.33295
1.40001
1.73045
1.39778
1.55853
1.53919
1.56071
1.41109
1.33202
1.51372
1.64075
1.50922
1.57908
1.56832
1.40001
1.5134
1.53737
1.57578
1.48214
1.40001
1.4
1.51337
1.3988
1.33403
1.2045
1.53401
1.40001
1.70533
1.57852
1.59435
1.33951
1.39282
1.58662
1.59047
1.45023
1.20626
1.70974
1.58173
1.3375
1.38652
1.3617
1.33863
1.65256
1.37733
1.32942
1.36367
1.40001
1.41282
1.5105
1.44995
1.42365
1.34359
1.60119
1.7175
1.32629
1.45495
1.5118
1.4556
1.30128
1.47144
1.35103
1.59888
1.3471
1.32789
1.42577
1.31249
1.51099
1.51222
1.51492
1.50945
1.59655
1.33038
1.50292
1.31514
1.28
1.35879
1.50352
1.36035
1.66096
1.40001
1.45695
1.40001
1.33888
1.66314
1.40001
1.40001
1.33409
1.61843
1.40001
1.36162
1.50275
1.71816
1.49203
1.3995
1.20497
1.40001
1.32086
1.36434
1.63882
1.35522
1.44644
1.64233
1.4468
1.54818
1.55496
1.40001
1.18658
1.40001
1.62923
1.50289
1.62525
1.4222
1.30596
1.60243
1.6313
1.6035
1.40001
1.30336
1.2401
1.61226
1.82287
1.62024
1.52429
1.41372
1.61642
1.43284
1.50096
1.82704
1.31824
1.40001
1.36561
1.71062
1.32864
1.27607
1.397
1.60356
1.25608
1.32447
1.23335
1.3804
1.60484
1.53018
1.50938
1.40001
1.43066
1.43125
1.79837
1.61701
1.40001
1.58905
1.54089
1.53337
1.6127
1.40001
1.8023
1.59312
1.55938
1.37176
1.6234
1.40001
1.40001
1.61963
1.58007
1.63156
1.19195
1.62687
1.58082
1.40001
1.43933
1.47101
1.45647
1.5661
1.36084
1.22465
1.22621
1.65312
1.57093
1.61008
1.52914
1.40001
1.40001
1.40001
1.37054
1.55706
1.40001
1.40405
1.19104
1.63529
1.50858
1.54899
1.50289
1.34883
1.55767
1.53138
1.40058
1.56923
1.5572
1.41774
1.53674
1.40001
1.23192
1.54772
1.34229
1.34234
1.55375
1.54802
1.63925
1.41612
1.65546
1.65158
1.40001
1.34343
1.22776
1.54365
1.40001
1.40001
1.43242
1.4
1.64761
1.25664
1.54761
1.53275
1.40001
1.56769
1.55892
1.42999
1.72052
1.44342
1.28033
1.53346
1.55878
1.36028
1.64304
1.40001
1.3648
1.36345
1.43837
1.7226
1.53465
1.40001
1.3364
1.28606
1.54627
1.65824
1.5042
1.52918
1.66213
1.54662
1.40001
1.44655
1.45585
1.51904
1.89919
1.61667
1.71217
1.5225
1.51441
1.55872
1.60502
1.40001
1.40001
1.54079
1.45198
1.52551
1.54317
1.35395
1.4721
1.52123
1.69434
1.35615
1.40001
1.27931
1.40001
1.28041
1.46947
1.50798
1.51031
1.39279
1.40001
1.40001
1.66547
1.68635
1.40001
1.40001
1.48746
1.39211
1.50441
1.67373
1.48119
1.46965
1.49359
1.49502
1.55067
1.36329
1.40001
1.47105
1.49783
1.35931
1.3642
1.25565
1.49356
1.55107
1.40001
1.54442
1.40001
1.40001
1.71842
1.36301
1.40436
1.65544
1.48021
1.71281
1.36482
1.40001
1.40001
1.4824
1.71848
1.57854
1.27473
1.51444
1.40001
1.65813
1.48004
1.51022
1.40001
1.40001
1.40001
1.40001
1.52143
1.40001
1.35829
1.46435
1.56279
1.49706
1.46953
1.40006
1.51957
1.40001
1.40001
1.40001
1.53687
1.45776
1.45741
1.40001
1.52792
1.53162
1.27973
1.40001
1.40001
1.26321
1.35512
1.40001
1.31229
1.54467
1.40001
1.40001
1.40001
1.40001
1.40001
1.43752
1.40001
1.38363
1.54286
1.40001
1.58156
1.54224
1.40001
1.44004
1.26535
1.40001
1.30047
1.54189
1.40001
1.40001
1.58022
1.59769
1.40001
1.39955
1.40001
1.26472
1.26393
1.37846
1.56326
1.19323
1.57743
1.40001
1.40001
1.38113
1.58105
1.63063
1.2662
1.56014
1.40001
1.39374
1.40001
1.59368
1.784
1.38929
1.40001
1.26461
1.40015
1.40001
1.27329
1.26869
1.57892
1.46139
1.40001
1.59027
1.40001
1.37109
1.31095
1.57894
1.28347
1.63286
1.25001
1.40001
1.24908
1.32965
1.57826
1.36031
1.81911
1.49824
1.57578
1.4045
1.41129
1.2715
1.68676
1.53438
1.4019
1.40001
1.40001
1.28633
1.26598
1.50708
1.23043
1.59625
1.79125
1.8186
1.40001
1.59494
1.72095
1.32506
1.61067
1.77174
1.55828
1.4165
1.32921
1.38902
1.60177
1.7932
1.53508
1.60586
1.4132
1.50186
1.49866
1.26903
1.44269
1.75238
1.32106
1.27455
1.40001
1.50435
1.40001
1.40001
1.26493
1.62897
1.77588
1.44609
1.40001
1.40001
1.44265
1.50326
1.40001
1.73617
1.40001
1.62786
1.50567
1.40001
1.24913
1.40001
1.62537
1.40001
1.53146
1.2525
1.40001
1.7561
1.18434
1.62414
1.40001
1.27872
1.40001
1.54804
1.42762
1.40118
1.64343
1.42246
1.23842
1.64057
1.48039
1.30481
1.62741
1.71383
1.74031
1.44207
1.64006
1.63738
1.24585
1.47961
1.55049
1.30965
1.40001
1.58868
1.40001
1.70798
1.37282
1.65419
1.65226
1.23483
1.38451
1.42793
1.40001
1.46223
1.53867
1.37177
1.40306
1.34353
1.71737
1.44717
1.41541
1.40001
1.45473
1.64884
1.4
1.40001
1.40001
1.64983
1.41793
1.51435
1.45635
1.53336
1.40001
1.66401
1.7006
1.59988
1.66389
1.4361
1.40001
1.71263
1.2436
1.66029
1.66657
1.4357
1.59655
1.42601
1.40001
1.3394
1.6609
1.36294
1.6914
1.64719
1.36728
1.36949
1.36555
1.76352
1.67
1.37082
1.25185
1.40001
1.585
1.67516
1.52112
1.40001
1.68278
1.40001
1.62645
1.51775
1.33617
1.64453
1.63338
1.48482
1.3536
1.57803
1.61523
1.60973
1.40001
1.48807
1.35279
1.30398
1.49429
1.67923
1.40001
1.65148
1.67206
1.62161
1.3531
1.36381
1.40001
1.66373
1.61158
1.73951
1.40001
1.59613
1.30515
1.58546
1.62871
1.35061
1.63523
1.607
1.45581
1.61167
1.64702
1.52954
1.68637
1.57498
1.40001
1.51203
1.62298
1.62562
1.59774
1.58535
1.26802
1.67985
1.70264
1.66637
1.51631
1.46664
1.69728
1.40001
1.68201
1.60901
1.61846
1.58276
1.40001
1.69887
1.37381
1.40001
1.74713
1.60057
1.57562
1.63184
1.40001
1.6843
1.372
1.40001
1.58544
1.71052
1.55967
1.40001
1.40001
1.63026
1.57775
1.40001
1.70642
1.40001
1.55217
1.69365
1.39562
1.40001
1.56222
1.40001
1.53715
1.26324
1.39987
1.47309
1.71924
1.55477
1.52875
1.40001
1.40001
1.40001
1.64536
1.71742
1.36956
1.53993
1.51989
1.51366
1.71677
1.25802
1.4181
1.5929
1.4002
1.40001
1.51075
1.51189
1.41844
1.40001
1.64423
1.59619
1.40001
1.53095
1.44649
1.29155
1.44846
1.73254
1.58357
1.50129
1.71095
1.53977
1.36645
1.51739
1.47645
1.47439
1.28208
1.54376
1.6679
1.40001
1.73919
1.7268
1.36971
1.4852
1.65968
1.17668
1.54952
1.3648
1.34195
1.40001
1.50263
1.59258
1.58848
1.6628
1.57408
1.40001
1.17143
1.47561
1.50422
1.6313
1.4884
1.40001
1.40001
1.60962
1.45871
1.58604
1.40001
1.21923
1.40001
1.40001
1.17048
1.66861
1.40001
1.47819
1.63611
1.5185
1.40001
1.34552
1.51072
1.58461
1.44476
1.40001
1.46078
1.44312
1.3629
1.53501
1.62424
1.57679
1.5447
1.40001
1.59353
1.6101
1.22855
1.40001
1.40001
1.43346
1.19893
1.44983
1.63269
1.54344
1.5821
1.5915
1.40001
1.53454
1.60711
1.40001
1.1958
1.43541
1.41483
1.31843
1.4548
1.40001
1.36016
1.40001
1.59201
1.55293
1.40001
1.40001
1.50253
1.49251
1.51949
1.5967
1.20181
1.40001
1.40001
1.33054
1.18676
1.55735
1.48486
1.69054
1.26187
1.58985
1.49977
1.60558
1.40001
1.55456
1.40001
1.60352
1.40001
1.40001
1.29982
1.40001
1.59937
1.41556
1.40001
1.25818
1.5651
1.50136
1.26009
1.71261
1.55429
1.40001
1.51919
1.57501
1.40001
1.5971
1.40001
1.59978
1.59158
1.56267
1.35376
1.54814
1.40001
1.52682
1.53212
1.80656
1.62352
1.21257
1.40001
1.34641
1.20969
1.61519
1.34969
1.40001
1.40001
1.37114
1.5365
1.40001
1.28766
1.53763
1.57458
1.53751
1.60665
1.20674
1.61326
1.39896
1.43257
1.47373
1.40185
1.40238
1.34734
1.57209
1.4684
1.33535
1.35697
1.65645
1.40001
1.60442
1.42937
1.40001
1.40001
1.31133
1.40001
1.62205
1.61223
1.51066
1.40001
1.5853
1.62065
1.49529
1.33529
1.25253
1.40001
1.61429
1.60696
1.70582
1.1695
1.58264
1.4975
1.50626
1.32531
1.61483
1.24861
1.20415
1.19446
1.34686
1.20305
1.612
1.59778
1.40001
1.52026
1.40001
1.28168
1.38099
1.66667
1.6508
1.40001
1.70029
1.21823
1.3659
1.19352
1.5941
1.52435
1.20925
1.40001
1.52104
1.37649
1.62986
1.5529
1.58526
1.632
1.40001
1.40001
1.40001
1.50371
1.49654
1.59154
1.27925
1.69789
1.25352
1.631
1.42082
1.65469
1.6119
1.66957
1.58226
1.52142
1.3608
1.40001
1.40001
1.20274
1.40001
1.60198
1.4223
1.28943
1.48805
1.45379
1.39466
1.4956
1.40001
1.51104
1.40001
1.40001
1.54036
1.60225
1.46188
1.63242
1.33386
1.60022
1.53683
1.73122
1.33248
1.28723
1.43063
1.40001
1.36682
1.59966
1.44922
1.45025
1.51045
1.4479
1.53205
1.44776
1.40001
1.50146
1.50217
1.29903
1.39763
1.59778
1.32558
1.4065
1.36499
1.40001
1.2432
1.52496
1.48075
1.47772
1.36856
1.40001
1.40001
1.45217
1.40001
1.40001
1.50422
1.56357
1.36724
1.33418
1.29775
1.6145
1.48342
1.61012
1.40001
1.40001
1.2656
1.32529
1.45162
1.42076
1.51924
1.40001
1.48842
1.19903
1.45017
1.35288
1.32013
1.28181
1.40001
1.55654
1.50576
1.49122
1.60764
1.39959
1.40001
1.40001
1.7134
1.48107
1.61118
1.48675
1.52011
1.63918
1.41862
1.39182
1.40001
1.47184
1.4603
1.60892
1.40001
1.44718
1.34183
1.25032
1.40001
1.39806
1.52097
1.19788
1.35163
1.26226
1.51714
1.59495
1.40001
1.55958
1.48401
1.64389
1.50895
1.42972
1.21536
1.26071
1.47083
1.6342
1.50773
1.31723
1.49959
1.40001
1.5331
1.40001
1.25442
1.40001
1.63454
1.52252
1.25831
1.40001
1.43391
1.6176
1.34102
1.40001
1.59116
1.33894
1.40001
1.34666
1.31596
1.49692
1.33808
1.52838
1.58006
1.24828
1.61503
1.48071
1.4913
1.25008
1.33031
1.40001
1.52497
1.37504
1.38803
1.35878
1.36922
1.40001
1.28013
1.53399
1.41419
1.44842
1.46589
1.32941
1.40001
1.51237
1.51338
1.62176
1.51314
1.33024
1.33926
1.33779
1.5548
1.50865
1.63921
1.35377
1.55052
1.51121
1.40098
1.28903
1.40001
1.32722
1.55888
1.40001
1.4898
1.40001
1.31783
1.41239
1.40001
1.63941
1.50454
1.40001
1.56135
1.40001
1.38523
1.55103
1.5471
1.54591
1.40001
1.27809
1.40001
1.5699
1.75989
1.46508
1.40001
1.49118
1.61125
1.5098
1.53898
1.41229
1.2725
1.37072
1.41175
1.40001
1.67656
1.33852
1.4
1.31843
1.54938
1.26503
1.46817
1.65071
1.2795
1.6324
1.32402
1.40001
1.54201
1.61713
1.56607
1.50044
1.39673
1.40018
1.5875
1.3999
1.3362
1.40001
1.62996
1.51413
1.31713
1.40019
1.51891
1.54631
1.61389
1.40001
1.58909
1.75434
1.62072
1.47373
1.35263
1.58192
1.34651
1.49722
1.65849
1.40001
1.40001
1.34115
1.41081
1.57544
1.53246
1.60768
1.34467
1.32443
1.59172
1.26416
1.40001
1.3225
1.39716
1.61994
1.40001
1.34443
1.35436
1.27245
1.49838
1.61677
1.40001
1.40001
1.36355
1.19653
1.57699
1.17768
1.55308
1.53165
1.58415
1.27308
1.68492
1.55121
1.62662
1.65919
1.18746
1.43244
1.40001
1.31751
1.73294
1.61353
1.40001
1.31607
1.4059
1.23493
1.58616
1.53951
1.55703
1.47487
1.54862
1.27797
1.48755
1.64508
1.37464
1.6601
1.64742
1.55083
1.66995
1.63715
1.67988
1.40001
1.3338
1.62397
1.60534
1.40001
1.3362
1.48532
1.48655
1.64158
1.47304
1.70303
1.28518
1.4966
1.47642
1.40001
1.49871
1.69151
1.40001
1.68801
1.4753
1.32991
1.36947
1.48591
1.40001
1.36992
1.31421
1.50954
1.50158
1.42017
1.53231
1.58109
1.48486
1.48547
1.40001
1.67813
1.31574
1.57833
1.50429
1.4275
1.51385
1.58844
1.72548
1.40001
1.49573
1.59608
1.65688
1.40001
1.64474
1.66556
1.36397
1.63212
1.40001
1.62123
1.6765
1.48865
1.40001
1.5818
1.42537
1.67008
1.68854
1.60109
1.5589
1.28459
1.52663
1.5956
1.40001
1.40001
1.63899
1.61241
1.69942
1.32976
1.54318
1.31392
1.27066
1.55295
1.41702
1.42649
1.38788
1.36073
1.51496
1.5411
1.70323
1.31157
1.28753
1.36525
1.56639
1.42216
1.45417
1.66657
1.58073
1.40001
1.40851
1.47874
1.59846
1.67175
1.60325
1.32975
1.59693
1.4239
1.6504
1.58644
1.50649
1.68932
1.40001
1.57183
1.46518
1.32688
1.26752
1.42594
1.40001
1.26649
1.45855
1.55148
1.4611
1.25698
1.47148
1.64473
1.53006
1.59347
1.30565
1.71911
1.46933
1.38522
1.54267
1.21658
1.40001
1.68553
1.61003
1.54583
1.73088
1.45912
1.40001
1.40001
1.3017
1.48723
1.52642
1.40001
1.31683
1.43016
1.54486
1.54386
1.42541
1.33545
1.53825
1.60132
1.54472
1.5556
1.40001
1.32666
1.46063
1.53553
1.69028
1.40001
1.40001
1.55446
1.50183
1.39749
1.64657
1.54793
1.48398
1.472
1.64609
1.40001
1.4
1.39728
1.38399
1.29882
1.56372
1.38328
1.29854
1.47651
1.60796
1.40001
1.54385
1.57025
1.40001
1.18532
1.38552
1.55909
1.45148
1.40001
1.27152
1.18646
1.38574
1.45179
1.28739
1.52959
1.53019
1.43369
1.49339
1.47485
1.27613
1.38304
1.4861
1.40001
1.51171
1.48269
1.53353
1.6164
1.27282
1.29736
1.38613
1.41199
1.40001
1.48256
1.40001
1.56135
1.60817
1.29685
1.28173
1.27697
1.29605
1.40001
1.38797
1.40001
1.5119
1.26964
1.41422
1.27203
1.54214
1.2735
1.63546
1.47234
1.75646
1.40001
1.45707
1.27272
1.30453
1.27416
1.64503
1.63902
1.40001
1.53193
1.27283
1.68245
1.40001
1.41344
1.40001
1.62233
1.38662
1.47132
1.43743
1.40001
1.29557
1.36572
1.27395
1.52971
1.40001
1.40001
1.6466
1.45269
1.51526
1.50269
1.5099
1.62318
1.60152
1.64192
1.50398
1.49436
1.26504
1.30366
1.60062
1.61972
1.42376
1.40001
1.31339
1.31484
1.43039
1.63665
1.27294
1.4
1.43842