/*--------------------------------*- C++ -*----------------------------------*\
  =========                 |
  \\      /  F ield         | OpenFOAM: The Open Source CFD Toolbox
   \\    /   O peration     | Website:  https://openfoam.org
    \\  /    A nd           | Version:  12
     \\/     M anipulation  |
\*---------------------------------------------------------------------------*/
FoamFile
{
    format      ascii;
    class       surfaceScalarField;
    location    "0.52";
    object      phi;
}
// * * * * * * * * * * * * * * * * * * * * * * * * * * * * * * * * * * * * * //

dimensions      [1 0 -1 0 0 0 0];

internalField   nonuniform List<scalar> 
33852
(
0.000251329
2.24281e-05
-0.000273757
-0.000246121
1.32441e-05
0.000232877
-0.000175252
-7.61326e-05
0.000258631
0.000304053
-0.000163969
-0.000140085
0.00029892
-3.88829e-05
-0.000255801
2.72441e-05
-0.000260681
0.000233437
0.000314941
1.47506e-05
-0.000330067
0.000304277
-9.59564e-05
-0.000208321
0.000286413
-3.50841e-05
0.000190744
2.06646e-06
-0.000196789
0.000289642
-0.000366807
7.71174e-05
0.000360364
-4.56981e-05
-4.39602e-05
0.000263285
-0.000219325
2.88403e-06
0.000238057
-0.000240941
6.45882e-05
-0.000232216
0.000252057
1.2236e-05
-0.000264293
0.000264853
-1.2796e-05
-0.000278433
3.23121e-05
0.000340789
-5.12226e-05
0.000158593
0.000112308
-0.000270901
-1.35819e-05
0.000285126
-0.000270382
0.000271377
-0.000276165
4.78802e-06
-1.70594e-05
0.000272176
-0.000255304
-0.000212681
1.34592e-05
0.000198838
-0.000163381
-0.00011662
0.000280001
-0.000142282
-6.59115e-05
0.000209425
3.72401e-05
0.000267037
-6.03032e-05
-0.000260683
0.000319829
-0.000198502
1.55912e-06
0.000199866
-0.000196733
-1.81619e-05
0.000142045
0.000137388
-0.000279433
0.00034105
1.92282e-05
0.000142618
0.000128347
-0.000270965
-0.000101136
0.000259729
-0.000250489
-3.78001e-06
0.000254269
0.000328726
-5.58509e-05
-0.000270736
-0.000302849
0.000139469
-0.000225081
0.00020786
0.000231645
3.32081e-05
-5.65602e-06
0.000237301
-8.1628e-06
0.000193563
-0.000232625
0.000259869
0.000329144
-6.35489e-05
-0.000263793
-0.000309093
5.51042e-05
0.000253989
0.000237417
-0.000298739
0.000273589
-0.000306321
3.27321e-05
-0.000180237
-5.49362e-05
0.000235173
0.000272133
-0.000272133
0.000148429
-0.000297473
0.000149045
-0.000200878
0.000207297
-6.94989e-06
-0.000268241
0.000237301
3.09401e-05
-0.000189231
0.000233989
-4.49677e-05
-9.16164e-05
-0.000217477
-0.000114617
-0.000252158
-0.000280169
0.000266113
1.40561e-05
0.00032901
1.19021e-05
-0.000250433
7.01963e-05
0.000117908
0.000145909
-0.000263817
1.34681e-05
-0.000267457
0.000253989
-0.000134569
0.000282997
-0.000144468
-4.71616e-05
0.000196585
-0.000274681
0.000245113
2.95681e-05
0.000237553
-0.000268437
3.08841e-05
-0.000174517
-2.26848e-05
0.000151665
0.000115565
-0.00026723
-0.000181693
-2.80846e-05
0.000206828
0.000263985
2.24281e-05
0.000275941
-2.35201e-06
0.000265329
-0.000250741
-1.45881e-05
0.000216755
-6.26467e-05
-0.000154608
-1.82001e-06
0.000239373
0.000362527
-0.000308454
-5.42435e-05
-3.37559e-05
0.000315128
-0.00028135
-0.000101584
0.000219493
0.000337679
2.47007e-05
-0.000366648
0.000349192
1.7438e-05
-0.000205615
2.21201e-05
0.000306845
-0.0003191
1.19387e-05
-0.000200388
0.00026192
-6.13937e-05
-4.45202e-06
1.70968e-05
-0.000319588
0.000302534
0.000226227
-0.000191898
-3.41513e-05
0.000267593
-0.000337323
6.9776e-05
0.0003303
-6.33492e-05
-0.000268941
0.000236573
3.23681e-05
-0.000129389
-0.000132609
0.000261997
-1.86761e-05
-0.000249565
-1.022e-05
-0.000258721
1.95301e-05
0.00022042
-0.000231878
3.13042e-05
-0.000214968
0.000180931
-2.49013e-05
0.000325065
-0.000299786
-0.000279329
0.000273701
5.62802e-06
0.000156129
-0.000296857
0.000140729
-5.71373e-05
-0.000143433
0.000201523
0.000143277
0.0001218
-0.000265077
-0.000239382
0.000226284
-0.000201669
0.000144839
-0.000168813
0.000327181
-0.000158369
0.000185389
7.16523e-05
-0.000257041
0.000255193
2.07481e-05
-0.000192277
0.000148317
5.5912e-05
0.000273816
0.000307331
-0.000290187
9.00235e-05
-0.000228994
0.000135241
0.000117096
-0.000281065
-5.59396e-06
0.0002495
-0.000248399
0.000166489
0.000122836
-0.000289325
0.000139226
8.67674e-05
-3.92002e-06
0.000259113
0.000301303
5.54627e-06
-0.00032398
0.00031508
8.87069e-06
-3.99002e-05
0.000236293
-0.000196393
4.08802e-06
-0.000284257
-2.49524e-05
0.000161686
-0.000129042
-0.000147205
0.000132528
0.000200802
-0.0001726
-0.000269921
0.000264965
4.95602e-06
2.64041e-05
0.000174721
-0.000201125
2.87841e-05
-0.000257265
0.000228481
0.000276137
-0.000262669
0.000115108
0.000212073
0.000216752
-0.000192149
-0.000175813
0.000202217
1.19079e-05
0.000285217
-0.000298161
0.000281826
1.83738e-05
0.000268812
-0.000280754
1.19448e-05
3.86402e-06
0.000267513
-1.76896e-05
0.000286704
0.000330684
1.0074e-05
0.000198409
-0.000195525
0.000316215
-0.000316182
-6.63603e-06
-0.000272693
2.78246e-05
0.000188322
0.000187993
3.98722e-05
-0.000227865
-5.24503e-05
0.000209256
-0.00015615
0.000153609
-0.000270285
0.000116676
0.000279441
-0.000329701
5.02602e-05
-6.38122e-05
0.000249201
-0.000166909
0.000315897
-0.000148989
-0.000314063
-9.94004e-06
-0.000214929
0.000175029
2.78601e-05
-0.000278349
0.000276221
-1.88441e-05
-0.000248613
1.62222e-05
-0.000298091
0.000281912
0.000344989
-0.000158593
-0.000186397
-1.69034e-05
-0.000240873
0.000257568
-0.000266617
-3.30401e-06
0.000224001
2.45841e-05
-0.000248585
0.000284509
-0.000128381
0.000140197
0.000138853
-0.000279049
-0.000191424
-1.04033e-05
0.000258169
-0.000115551
0.000225668
-0.000242549
-6.38122e-05
0.000251805
-0.000200284
0.000249481
-5.60002e-07
-0.000248921
0.000255109
-0.000237441
-0.000321599
0.000296971
-3.08841e-05
0.000203169
-0.000172285
0.00028891
4.01336e-07
-0.000289901
7.66492e-05
0.000133264
-0.000216719
4.28703e-05
-0.00018598
-0.000285504
-4.03794e-06
0.000289438
-2.22764e-06
-0.000283647
0.000146973
-0.000273925
0.000126952
-0.000267735
0.000231896
-0.000304319
0.000271507
0.000279441
-0.000312098
-1.23009e-05
0.000324243
0.000106631
0.000155387
-2.52082e-05
0.000354662
0.000140141
0.000139833
-0.000279973
0.000245029
-0.000250349
5.32002e-06
-0.000210953
0.000180069
0.000279133
-5.43202e-06
0.000297333
-5.92762e-05
-0.000301453
0.000301226
-3.40443e-06
0.000270985
-0.000270985
-0.000364724
0.00022596
0.000138774
-0.000194081
1.82947e-05
1.677e-05
0.000275157
-0.000278461
3.30401e-06
-5.22908e-06
0.000167283
-0.000162035
-0.000197345
0.000254801
-5.74562e-05
-0.000194395
4.44059e-06
-0.000229051
0.000153017
7.77963e-05
-0.000180265
0.000261437
-8.11723e-05
0.000256285
-0.000287113
3.08281e-05
-0.000249229
5.18842e-05
-2.35198e-05
0.000275998
-0.000252821
-0.000253547
1.35801e-06
0.000252189
0.000231281
-7.28003e-06
-0.000290682
9.23088e-06
0.000281432
-0.000266085
0.000266085
-0.000282635
-5.45662e-05
-0.000170655
-0.000194046
-0.000168219
0.00021106
-4.35124e-05
-1.232e-05
-0.000239177
0.000251497
3.10801e-06
0.000210113
-0.000213221
-0.000179188
-2.24313e-05
0.000200735
5.73568e-06
0.00029149
-0.000297218
-0.000236153
-1.34401e-05
0.000249593
1.50361e-05
-0.000251189
-0.000241025
0.000256061
-0.000298331
0.000304085
0.000256117
7.16803e-06
-0.000164456
-3.11518e-05
0.00019488
-0.000145237
-0.000134765
-0.000244329
0.000240549
0.000296536
-1.93205e-06
-0.000294556
-0.000296692
2.50097e-06
0.000293896
1.88402e-05
0.000181217
0.000163773
7.70003e-05
-0.000257265
-0.000159242
0.000310908
0.000250721
-0.000108677
-0.000235145
-1.83681e-05
0.000253513
-0.000142715
-0.000138663
0.000278977
-6.10402e-06
-0.000229125
0.000235229
-2.19619e-05
-0.000176183
-0.00028267
-8.39798e-05
4.48408e-06
-0.0002954
-0.000143585
0.000272077
-0.000128493
0.000281597
0.000288205
-5.16322e-05
0.000271993
-1.57081e-05
-0.000181332
-1.33132e-05
0.000194389
0.000295892
-7.09606e-07
-0.000295232
-0.000270656
-3.2687e-05
-0.000218821
0.000247605
-1.64124e-05
0.00030257
-0.000285725
0.000172363
7.68477e-06
-0.000180148
-3.2964e-05
0.000204852
-0.00029374
0.000277904
0.000291205
4.75525e-06
-0.000295939
0.000157445
0.00011886
-0.000276305
0.000288677
4.10169e-06
-0.000293342
-0.000220723
0.000103572
0.000116893
-0.000283032
0.00029378
0.000302513
-0.000156857
-0.000145657
0.000207005
-0.000203897
-0.000232009
-0.000121156
-0.000155009
-2.16785e-06
-0.000291006
0.000292938
-1.0136e-05
0.000276249
0.000289038
-2.04578e-05
-0.000268552
-0.000262919
2.93289e-05
0.000233528
0.000271433
-0.000267569
0.000249621
2.95121e-05
0.000308532
-7.73164e-06
-0.000300912
4.71152e-05
0.000146987
-0.000196562
-0.000105353
0.000196113
-9.68012e-05
0.000252617
-2.91201e-05
-0.000223497
2.26831e-06
0.000288762
-0.000171234
-3.08121e-05
0.000202656
-9.1486e-07
0.000288957
-9.33244e-05
0.000246933
-0.000255417
-5.26402e-06
0.000121184
0.000181329
1.34121e-05
0.000241557
-0.000254969
0.000236097
1.34961e-05
-0.000249593
0.000249509
-0.000242929
0.000256425
6.10572e-05
-0.000193605
0.00013315
-0.000223084
0.000116675
-0.000197506
0.000295673
-1.36405e-07
-0.000295586
0.000253849
2.22881e-05
0.000268493
-0.000216441
-5.20522e-05
0.000225518
-0.000246849
2.13305e-05
0.000257909
1.40841e-05
5.76587e-05
0.000291999
0.000267186
-3.89594e-05
-0.000228226
0.000167906
1.274e-05
0.000240297
-0.000253037
0.000188278
-0.000110687
-7.70356e-05
-0.000200378
2.09312e-05
7.40126e-07
-0.000295863
0.000294992
0.000210349
-0.000159088
-5.02014e-05
0.000340795
-5.22434e-05
0.000275969
-0.000135829
2.31561e-05
0.000238337
-0.000261493
-0.000231141
0.000254297
-2.66767e-05
-0.000229733
0.000256433
0.000151797
-0.000156569
-6.7824e-05
-0.00015391
-0.000261723
4.14346e-05
0.000220288
-3.17521e-05
-0.00022997
6.80903e-06
0.000261717
-3.25193e-05
-0.000229198
1.66438e-05
0.000120878
-0.00018541
0.000308785
-0.000171397
0.000262319
-3.57923e-05
-0.000226526
-0.000319298
0.000164578
-0.00010108
-0.000228453
-6.90203e-05
2.35026e-06
-0.0002973
0.000294383
-2.73124e-05
0.000173673
-0.000144548
0.00030365
4.82852e-06
0.000250097
-0.000248249
-1.84801e-06
-0.000170564
6.01403e-05
0.00026027
-3.07173e-05
-0.000229534
0.000197345
-0.000250769
5.34242e-05
0.000254206
-0.000231206
-2.29991e-05
-0.000252337
0.000240017
0.000136953
9.75335e-05
-0.000101864
-0.000170269
0.000132497
-0.000261885
-0.000290249
0.000242201
4.80483e-05
0.000216809
3.12485e-05
-0.000248056
-0.000241423
-6.54605e-06
0.000249035
0.000333709
-2.02834e-05
0.000263996
-3.42721e-05
-0.000229724
0.000132285
-0.00022016
8.80917e-05
3.63259e-05
-0.000265637
0.000229311
-0.000253905
0.000121296
0.000249817
-5.24722e-05
0.000294673
-0.000154253
-0.000140421
0.000122248
-0.000289157
1.53441e-05
0.000237665
-0.000253009
-0.000262031
3.54705e-05
0.00022656
-2.7967e-06
-3.77917e-05
-0.000224239
0.000248392
-0.000272196
-0.000264649
3.44737e-05
0.000230175
0.000193257
0.000101416
-0.000149941
0.000290137
-0.000164466
-3.78304e-05
0.00020178
-1.81721e-05
0.000263201
-0.000289528
0.000305765
0.000112007
9.9665e-05
0.000261325
-0.000261325
0.000277929
-4.38202e-05
-0.000234109
5.32002e-07
0.000248949
0.000254857
1.65761e-05
0.000309355
-0.000275984
-3.32098e-05
-2.26336e-05
0.000266577
-0.000243943
3.00077e-05
-0.000260519
0.000230511
-0.000252139
0.000229506
0.000325329
3.11501e-05
-0.000260598
0.000229447
0.000276809
-3.16961e-05
-6.49673e-06
-0.000294696
0.000301489
0.000270584
3.89628e-05
0.000230245
-0.000266617
3.63721e-05
0.0002021
-0.000210919
-0.000258301
0.000238533
1.97681e-05
0.000169762
-0.000257245
8.74835e-05
-0.000195925
0.000163241
-0.000249145
8.59043e-05
-0.000266169
0.000224813
4.13562e-05
0.000253073
-2.78797e-05
-0.000225194
0.000168301
4.20288e-05
-0.000234837
-2.29601e-05
0.000257797
-0.000236377
-2.28761e-05
0.000259253
-1.94265e-05
0.000255969
-0.000236542
-0.000259345
0.000239919
-3.06559e-05
0.000164266
-0.000235929
-2.24001e-05
0.000258329
-0.00025484
0.000229192
2.56481e-05
2.94001e-06
0.000211289
-0.000214229
-0.000267031
3.79849e-05
0.000229046
0.000270677
4.48002e-06
4.15102e-05
0.000146174
-0.000184241
-3.31197e-05
0.000249929
-1.99313e-05
0.000218597
9.73004e-05
0.000248193
-0.000216941
0.000273493
-0.000275881
0.000273769
-0.000277916
-1.84997e-05
0.000258601
-0.000240101
-0.000261644
0.000243145
2.95946e-05
-0.000196489
-2.63344e-05
-0.000206593
0.000228044
0.000314891
-0.000287791
-2.73981e-05
0.000261297
-3.11081e-05
-0.000230189
3.28739e-05
-0.000262362
0.000229488
-0.000229853
0.000259645
-2.97921e-05
0.000319056
-1.54449e-05
0.000137722
-0.000200694
0.000256929
-0.000109956
-0.00028377
0.00028362
0.000241977
-6.41202e-06
-0.000235565
0.000228537
-0.000181339
-3.53118e-05
0.000215898
2.57191e-05
-0.000205814
-0.000239989
0.000260317
-2.03281e-05
-9.9682e-05
0.00018422
-8.38453e-05
3.03341e-05
-0.000194432
0.000240169
-0.000263424
2.32552e-05
-0.000115584
0.000258861
-0.000243993
0.000265721
-2.17281e-05
-0.000238953
0.000232541
0.000258626
-0.000245105
-1.35213e-05
0.000264349
-2.46681e-05
-0.000246317
-0.000270701
-1.02551e-05
0.000300358
-5.09783e-05
-7.04436e-06
0.000290507
-0.00028322
-0.000149658
0.000193414
0.000229282
1.56421e-05
-0.000244755
0.000328814
-0.000328968
0.000260955
-0.000245018
-1.59377e-05
-0.000298123
2.68553e-08
0.000305091
9.61731e-06
3.61643e-05
0.000161811
-0.000197671
0.000208207
-3.60244e-05
-0.000177399
0.000278054
-0.000255789
-2.22648e-05
-0.000200246
3.05541e-05
3.15421e-05
-0.000261891
0.000230348
0.000285393
-0.000292205
2.44721e-05
-0.000259617
-0.000257965
1.87881e-05
0.000266057
-1.64361e-05
0.000151173
-0.000267625
0.000116452
0.00029409
-2.61566e-06
0.000238617
-7.53763e-05
2.12521e-05
0.000177045
-0.000198297
-0.000183877
0.000205129
-0.000236275
0.000257219
-2.09441e-05
0.000261462
-3.31689e-05
-0.000228293
-0.000197009
-5.21362e-05
0.000251581
-1.48401e-06
5.09473e-06
-0.000263874
0.000257418
-0.000339688
0.000234342
0.000105349
0.000266371
-0.000236811
-2.95597e-05
0.000305053
-0.000311308
6.13265e-06
-2.57041e-05
-0.000229097
0.000254801
0.000261493
-7.64403e-06
9.7758e-06
-0.00020104
0.000262411
-3.19033e-05
-0.000230508
-6.90483e-05
-0.000260653
-0.000194685
0.000248025
-5.33402e-05
-0.000266533
0.000249985
1.65481e-05
-0.000313101
1.47489e-05
-2.0622e-05
0.000303323
-0.000282385
-0.000276221
1.65481e-05
0.000249537
-0.000161835
6.25467e-05
0.000268605
1.63111e-05
-0.000285264
-0.000312345
0.000305611
6.46462e-06
3.46641e-05
-0.000263649
0.000228985
-1.58855e-05
0.000277831
-0.000311569
1.45641e-05
-0.000176541
-7.42283e-05
-0.000231084
0.000199826
-2.16721e-05
-0.000216469
0.000238141
-0.000308419
0.000292144
1.62772e-05
-0.000141797
0.000281004
-0.000142331
-6.7136e-06
3.31521e-05
-0.000263453
0.000230301
-0.000193986
2.42457e-05
0.0001709
0.000221524
0.000280302
-0.000280598
2.79533e-07
-0.000236993
-2.20921e-05
0.000224813
-0.000202721
0.000139273
0.000143753
-0.000278517
0.000193884
-5.47862e-05
0.000304948
-9.07539e-06
0.000211057
-0.000265742
2.92853e-05
0.00022306
-0.000252345
-0.000256621
0.000140001
0.000292451
2.66534e-05
1.94118e-05
-0.000224355
-2.77845e-05
-0.000135964
-0.000133006
-0.000261969
0.000118384
0.000242873
2.56201e-05
0.000218765
-0.000224869
1.32425e-05
-0.000289804
0.000276112
-0.000232938
0.000262393
-2.93362e-05
0.000277609
-0.000279557
0.000299552
-7.57124e-05
-1.05225e-05
0.000288004
-1.87881e-05
0.000247101
-0.000228313
0.000277387
-0.000288062
-7.15515e-06
-0.000280667
0.00028778
0.000279707
-0.000265377
0.000281227
0.000226314
2.67597e-05
-0.000307709
0.000313122
-5.44973e-06
0.000247517
-1.83413e-05
0.000227125
2.13997e-05
-0.000268913
0.000246057
-2.05381e-05
-0.000259401
3.02849e-05
0.000229116
0.000178305
7.64963e-05
1.23232e-05
0.000275985
-0.000289689
-0.000238141
-2.88401e-05
0.000266981
2.51441e-05
-0.000263285
0.000284117
-0.000162317
-0.000232177
0.000261129
-2.89521e-05
-0.000234697
0.000260709
-2.60121e-05
1.39646e-06
0.000278896
2.45001e-05
-0.000259197
2.38001e-05
-0.000255977
0.000274315
-0.000242938
-3.13677e-05
0.000313254
-8.33967e-06
-0.000301752
-5.13706e-06
-0.000255753
1.1816e-05
0.000243937
-1.42896e-05
-0.000261185
0.000228065
-0.000245337
0.000270145
-2.48081e-05
-0.000263229
1.49801e-05
-2.47439e-05
0.00028327
-0.000258661
2.13641e-05
-0.000266701
-0.00024178
-2.12532e-05
3.25549e-05
-9.0432e-05
0.000260194
0.000277568
-0.000284964
5.05122e-05
0.000237693
0.000280242
-0.000281327
-0.000243181
-2.39401e-05
0.000267121
-0.000260894
7.34723e-06
-0.000296609
2.17627e-05
0.000277299
-0.000268717
2.55361e-05
-9.90118e-06
0.000289095
-0.000268326
0.000243549
2.47772e-05
-0.000232513
0.000210841
0.000277869
-0.000288078
-6.16002e-07
0.000260289
-0.000259673
-0.000298873
-1.42741e-05
-0.000264573
2.35481e-05
-0.00024417
-2.41555e-05
-3.43281e-05
-0.000292909
0.000290561
0.000286674
-0.000158327
0.000293459
-0.000289011
2.30152e-05
2.9609e-06
0.000261675
-0.00025478
-7.19504e-06
0.000303527
-2.19172e-05
-0.000282072
5.86807e-05
-0.000246765
-2.19521e-05
-0.000356511
0.00024201
0.000283282
-0.000279021
2.33801e-05
-0.000182535
-1.52943e-05
-0.000304085
2.26028e-05
0.00028148
-0.000202311
0.000316218
-0.000113886
0.000259841
-0.000238533
-2.13081e-05
-0.000288608
2.94001e-05
0.000222097
-0.000251497
-0.000155412
0.000132646
-0.000157943
0.000251441
-0.000238029
-1.34121e-05
-0.000263873
3.40201e-05
-2.23161e-05
-0.000269837
0.000251469
0.000230427
3.12901e-05
-4.41109e-05
0.000190546
0.000232619
-0.000260499
-1.57516e-05
-3.86766e-09
0.000245077
-0.000246596
-0.000290482
-0.000237049
0.000265189
-2.81401e-05
0.000230096
3.22225e-05
-0.000268521
2.55921e-05
-0.000239905
-2.86161e-05
0.000228954
-0.000260706
-0.000280764
4.73202e-05
-0.000242005
0.000291019
-0.000278775
-0.000296089
1.70457e-05
0.000276172
-3.53953e-06
0.000209937
0.000228551
-0.00026107
0.000296885
-0.0001309
-0.000165985
0.0002411
-0.000261843
0.000269612
-0.000226213
-1.76681e-05
-0.000171289
0.000317456
-0.000141925
2.49649e-05
0.000222662
-0.000247627
-0.000186604
0.000186828
-0.000280225
0.00028047
8.70579e-06
-0.000289333
-0.000302485
0.000146693
0.000155793
0.000259995
-0.000239359
-2.06361e-05
-0.000215741
0.000193649
0.000261237
4.18032e-07
0.000257293
0.000232526
2.16798e-05
-0.000218933
-8.39163e-05
8.71974e-06
0.000235595
-0.000249376
1.42748e-05
-0.000230917
-2.37161e-05
0.000254633
-0.000242295
0.000263191
-2.08965e-05
7.88842e-05
0.000128452
1.83041e-05
-0.000304162
0.000287134
0.000256565
-1.80041e-05
-0.000238561
0.000243881
-0.000254017
1.0136e-05
-0.000226745
0.000207957
0.000223131
-0.000258923
-0.000244693
4.76842e-05
1.40068e-05
-0.000137747
-0.000218658
1.57921e-05
0.000245701
0.000279774
0.000292432
0.000299648
3.59739e-06
0.000249817
-0.000220417
2.51749e-05
0.000225009
-0.000250184
-0.000243178
0.000268865
-2.56873e-05
2.28201e-05
-0.000262725
-0.000107246
0.000295821
9.18373e-06
2.08181e-05
0.000261675
-0.000235103
-2.65721e-05
1.07899e-05
-0.000302197
0.000291231
0.000314366
-2.6001e-05
-0.000288428
0.000249733
1.63241e-05
0.000302034
-0.000291668
-0.000228097
-0.000111414
9.63204e-06
0.000250657
-4.9129e-05
-0.00020239
0.000251519
2.20333e-05
0.000246832
-0.000241686
-2.29629e-05
0.000260737
-2.24001e-05
0.000285774
-0.000268023
2.63369e-05
2.68241e-05
-0.000257965
0.000210617
-0.000207677
2.58161e-05
-0.000262865
0.000278011
0.000121744
-0.000256173
0.000134429
1.57768e-05
3.71264e-05
0.000154553
-0.00019171
-0.000239485
-2.85377e-05
3.86558e-05
0.000153976
-0.000192443
-0.000246691
0.000271066
-2.43747e-05
0.000209866
-0.000248826
1.98857e-05
1.72748e-05
-0.000167746
-2.90891e-05
0.000226685
-0.000257414
-2.88401e-05
0.000244245
-0.000215405
-2.16161e-05
0.000242985
-0.000221369
0.000201657
-0.000250786
-0.000273575
-0.000232905
-2.55081e-05
0.000258413
0.000241234
2.98318e-05
-0.000213498
-2.07782e-05
0.000234364
-2.18821e-05
-0.000224967
-0.000239345
6.28042e-05
0.000259004
-0.000229718
4.75106e-05
-0.000249901
-3.43393e-05
0.000257694
-0.000223355
0.000205675
-0.000240014
0.000261689
-1.1956e-05
-6.06764e-05
-0.000229572
-0.000227943
-1.47128e-05
0.000243028
0.000247109
5.3175e-05
0.000212448
-0.000265623
-0.000261076
0.000177353
-0.000231757
5.44042e-05
6.23173e-05
0.000132042
0.000259457
-0.000240915
-2.47224e-05
-0.000265385
0.000227165
3.82201e-05
-2.87813e-05
-0.000222158
0.00025094
-0.000283746
0.000264161
0.000234501
3.61761e-05
2.18821e-05
0.000234087
-0.000307217
0.000151089
0.000156129
0.000163273
-5.05027e-05
0.000254045
-0.000115192
2.56901e-05
0.000217446
-0.000243136
-0.000285012
0.000286652
9.17315e-06
0.000257377
-0.000245953
0.000208937
3.70161e-05
0.000254832
0.000245245
-1.65259e-05
-0.000246815
-2.02161e-05
-0.000263019
2.0724e-05
-0.000269215
2.24001e-05
2.79601e-05
0.000220024
-0.000247984
0.000242481
-0.000274597
1.32721e-05
0.000246897
-1.04268e-05
9.62589e-06
-0.000249576
-0.000274841
0.000128746
-0.000233135
-2.62109e-05
-0.000252113
0.000252113
0.000259782
-0.000144217
-1.86832e-05
-0.000278178
0.000296929
0.000287315
0.000258749
-0.000135913
0.000224113
2.39205e-05
0.00023468
7.72721e-05
-0.000338407
3.69478e-05
0.000258962
1.76363e-05
-0.000248843
-3.00917e-05
0.000207453
-3.01001e-05
0.000259701
2.95429e-05
0.000218353
-0.000247896
-3.05014e-05
-4.09782e-05
-0.000217818
0.000258797
-0.000233423
-2.14173e-05
3.63507e-05
-0.000190813
0.00015436
-3.30877e-05
0.000221671
-0.000255943
-0.00028178
-8.30402e-06
0.000290206
-0.000188363
0.000156966
0.000166349
8.16763e-05
1.28324e-05
-0.000294429
0.000235075
2.59446e-05
-0.000261019
-0.000190995
-1.14558e-06
0.000232743
-0.000264287
3.15449e-05
-8.42803e-06
-0.000217029
0.000225457
-0.000154735
0.00019127
-0.000249985
-3.46025e-05
0.000256274
0.000218076
-0.000252679
-0.000246289
0.000272245
-2.59561e-05
0.000253547
2.78321e-05
-0.000232062
-2.95821e-05
-0.00029584
0.00030944
-1.42032e-05
1.79997e-05
0.000212462
-0.000250254
-0.000267233
2.09441e-05
-2.12801e-05
-0.000245953
-3.61481e-05
0.00024861
-0.000289497
-1.25957e-05
0.00022082
-0.000256968
0.000250387
-0.000251716
1.70292e-06
2.80002e-06
0.000181413
-0.000184213
0.000255294
0.000234529
2.67681e-05
-2.62361e-05
0.000245001
-0.000218765
3.36001e-05
0.000216609
-0.000250209
0.000244861
2.73841e-05
0.000306545
-0.000143949
-0.000162597
1.23549e-05
0.000241358
-0.000254232
0.000271013
-0.000113568
0.000225569
-0.000256677
-0.000241045
0.000105014
-0.000265469
7.16803e-06
-0.000241635
-2.75801e-05
-0.000241361
-2.48081e-05
0.000312717
-2.82012e-05
-7.67483e-05
0.000243097
-1.1452e-05
-0.000215601
0.000224281
-8.68003e-06
0.000255193
-7.68883e-05
3.30992e-05
-0.000187434
0.00015462
-0.000265245
-1.40001e-07
-4.14962e-05
3.89469e-05
0.000153948
-0.000191395
0.000188822
-0.000155003
0.000257041
-7.05603e-06
0.000251151
-0.000218277
-1.58531e-05
-2.1128e-05
0.000265861
-9.25574e-05
-0.0001753
-1.42801e-05
-0.000191913
0.000206193
0.000258665
-1.53553e-05
-0.00024331
1.98101e-05
0.000238855
-0.000281949
-1.11153e-05
3.57904e-05
-0.000188537
0.000152519
1.36921e-05
0.000247997
-0.000152746
0.000189208
-1.95189e-05
0.000248711
2.98799e-05
0.000190592
-0.000219443
-4.17202e-06
-2.49389e-05
0.000265108
-0.000231955
-3.14693e-05
0.000296842
-0.000281569
-1.52647e-05
1.63717e-05
-0.000237659
0.000221288
-0.00010514
0.000226885
1.64019e-05
-0.000298412
0.000282094
2.52001e-05
-2.79441e-05
2.69165e-05
0.000302082
-0.000285706
0.000238891
1.97345e-05
2.15601e-06
0.000231617
-0.000233773
-0.000304245
2.28963e-05
0.000280989
-0.000162177
-0.000144145
0.000209178
-0.000250156
-0.000156431
0.000241924
1.90317e-05
0.000254738
-4.13534e-05
0.000250531
0.000214498
-0.000255851
0.000318713
-0.000319033
-1.41592e-05
0.000292861
-0.000277367
-0.000301025
1.75482e-05
0.000283881
4.20842e-05
-0.000286413
-3.75183e-05
0.000252483
2.62921e-05
-1.93801e-05
0.000301225
-0.000282836
2.43321e-05
3.83939e-05
0.000153999
-0.000193005
0.000249294
-0.000219751
2.83277e-05
-0.000261633
4.36802e-06
-1.67025e-05
0.000299357
-0.000282728
-0.000250987
-0.000266673
3.07441e-05
0.000252141
-0.000236741
-1.54001e-05
1.2264e-05
0.000239877
-0.000279256
-1.68723e-05
0.000255697
2.23721e-05
0.000255557
-1.19519e-05
0.000298955
-0.00028682
-4.66274e-05
0.000247437
-0.000235621
0.000257601
-1.99361e-05
0.000130749
8.60739e-05
-0.00021469
0.000221654
3.03493e-05
0.000226759
-0.000258662
3.71393e-05
0.00027526
-0.000295523
1.95527e-05
0.000251273
-0.000239093
-1.31321e-05
0.000252225
-2.91201e-05
-0.000257265
2.56481e-05
0.000231617
-0.000228005
-2.92601e-05
0.000259765
-0.000233571
-2.61941e-05
0.000258721
-0.000272943
6.24312e-06
0.000286951
1.07216e-06
-0.000288954
0.000248109
-0.000235299
-1.85921e-05
0.000310175
-0.000295873
-1.43877e-05
0.000234675
-9.60999e-05
-0.000266897
2.56761e-05
0.000241221
-3.48881e-05
-0.000232009
-0.000266393
2.51161e-05
0.000241277
-1.60325e-05
-0.000270099
0.00028686
-3.45241e-05
-0.000231869
-0.000259649
2.65957e-05
-0.000266281
2.43881e-05
0.000241893
-0.000281653
-2.07875e-05
-0.000297649
2.16091e-05
0.00027645
-3.34041e-05
-0.000232877
-0.000163902
-0.000258133
2.94001e-05
0.000228733
0.000308289
-0.000308452
-0.000195805
0.000209049
-3.29281e-05
-0.000225205
0.000195927
-0.000275547
7.95974e-05
0.000283178
1.861e-05
-0.000301953
1.76961e-05
0.000285768
-0.000280659
-4.74272e-06
-0.000257125
0.000231617
2.55081e-05
0.00016454
2.78949e-05
-0.000192478
-0.000266953
2.81681e-05
0.000238785
-0.000227361
-2.97641e-05
-3.67361e-05
-0.000230217
0.000275637
0.000295079
1.41957e-05
-0.000274112
-3.16011e-05
0.000305628
-0.000258679
-1.07937e-05
0.00029817
-0.00028735
1.22842e-05
-0.000295079
0.000282736
-0.000230609
-0.000300203
0.000283273
0.000263005
-1.99172e-05
-0.000277985
1.36081e-05
0.0001594
0.000232086
1.5814e-05
-0.000249017
-0.000193095
0.000155002
0.000236738
1.31517e-05
-0.00024989
-0.00025833
2.66093e-05
0.000231721
-1.09228e-05
0.000247661
5.74002e-06
0.000246877
-3.19817e-05
-0.000226348
0.000293615
-0.000282194
-1.20187e-05
0.000228024
-0.000226666
0.000285759
0.000237685
1.98521e-05
-0.000257537
-1.24236e-05
0.000250108
0.000246636
1.50389e-05
-0.000300763
1.16331e-05
0.00024448
2.18905e-05
3.06377e-05
-0.000189739
-0.000283423
-1.49938e-05
-0.000182869
0.000295177
-0.0001458
0.000178389
-3.21488e-05
2.93128e-05
-0.000197876
0.000167643
-0.00016048
0.000259149
-0.000239236
-1.99137e-05
0.000264614
-0.000280113
-0.000240137
0.000234358
-1.49621e-05
0.000291157
-0.000276403
0.000300969
-0.000288719
0.000242117
1.77241e-05
-0.000224975
0.00024443
-1.94545e-05
1.61e-05
-0.000241075
-7.00003e-06
0.000260989
-0.000291505
2.55931e-06
0.000289018
-0.000174497
0.000160217
-1.74105e-05
-4.02896e-06
-0.000287363
-1.41184e-05
-0.000281057
4.28402e-06
-0.00030396
0.000133882
-0.000257636
2.38781e-05
0.000233739
0.000238197
1.32441e-05
-3.06832e-05
-0.000226941
-3.28832e-05
-0.00028832
1.90767e-05
-0.000224237
0.000203832
0.000254969
-0.000233465
-2.15041e-05
-0.000194783
0.000211306
-0.00017954
-6.95264e-06
0.000196711
0.000131931
0.000138486
3.31295e-06
0.000268065
0.000277838
-0.000298144
-2.03564e-07
0.000245685
-1.31252e-05
0.000289654
-0.000276729
-0.000296224
0.000283621
1.20131e-05
-0.000258301
0.000230077
2.82241e-05
-2.64041e-05
-0.000231897
0.000298186
-0.000298263
0.000267446
-1.28804e-05
0.000294523
-0.000280316
0.000286481
-3.14139e-07
-0.000256873
0.000256873
-0.000265623
0.000287934
-0.000140481
-6.48046e-05
-7.05225e-06
0.000294321
-0.000286965
-0.000298066
0.000290967
0.000291542
-0.000278681
0.000290531
-0.000305404
1.462e-05
3.19096e-05
-0.000240505
0.000220329
1.97441e-05
-1.21989e-05
-0.000247644
0.000233205
-1.43031e-05
0.000298477
-0.000284284
0.000263481
-1.96001e-05
0.000254224
-0.000235464
-1.87601e-05
-2.40937e-05
-0.000271006
0.000295255
1.43913e-05
-0.000297021
0.000282624
-1.45881e-05
0.000233465
-0.000218877
0.000201656
-0.000295575
0.000283482
-1.65781e-05
0.000298146
-0.000282163
0.00025102
-2.33534e-05
0.00029045
-0.000267736
-0.000289668
0.000265666
1.07156e-05
0.000244749
-0.000255465
0.000301733
-0.000306376
4.57423e-06
1.75719e-05
1.4982e-05
0.000286159
-0.000301035
6.27652e-06
0.000280082
2.28628e-06
-0.000318506
-0.000290092
0.000304828
-0.000242481
0.000243657
8.45603e-06
-0.0002264
0.000242772
-0.000287716
0.000270872
0.000289948
-0.000143261
-7.74209e-05
0.000290415
1.16524e-05
3.14238e-05
-0.000191348
0.000160481
-0.000271433
0.000257293
-0.000219535
0.00024982
0.000243411
1.92865e-05
-0.000262697
0.000236019
2.31309e-05
-0.00030109
0.000283024
0.000305523
-1.51065e-05
0.000237945
-0.000257069
1.91241e-05
-0.000222494
0.000247459
0.000290355
1.50187e-05
-0.000161065
-1.45816e-05
0.000298105
-0.000283521
-0.000137782
-0.000266415
0.000159993
0.000106423
-0.000301499
0.000293362
8.44589e-06
-0.000258699
0.000241826
1.68729e-05
-0.000148567
0.000147588
-0.000298997
0.000284665
1.43065e-05
-0.000216965
0.000181296
-9.69084e-06
0.000253101
1.75209e-05
1.411e-05
-0.00029737
0.000283349
-0.000296499
-2.44334e-06
0.000299189
-0.000249229
0.000220109
-0.000201153
-8.52603e-05
-0.000261045
0.000217225
0.000297046
-0.000282916
-0.000185607
1.70987e-05
1.1158e-05
0.000280911
-0.00029207
-8.80603e-05
0.000239233
-0.00029123
9.7982e-06
0.000279561
-0.000210082
-7.4659e-06
-0.000289042
-0.000160289
2.05297e-05
0.000303023
-0.000288497
-1.4378e-05
-0.000170761
-0.00028985
-0.000169171
-2.1968e-05
0.000243528
0.000285495
1.37637e-05
0.000252869
5.74891e-05
-0.00028248
-0.000247213
-0.000274985
-2.79954e-05
-0.000273689
0.000295988
-0.000262004
0.000285631
-0.000159231
-4.0674e-05
0.000192777
0.000197569
1.56521e-05
-0.000213221
-1.25208e-05
-0.000285679
0.000298252
1.83597e-05
9.57588e-06
-0.000293338
0.000283599
0.000253345
-1.71361e-05
-0.000236209
1.48532e-05
-0.000297293
0.000282307
2.03561e-05
0.000232989
0.000216385
-2.46121e-05
-0.000191773
1.56791e-05
0.000282681
-0.000298354
-0.00026087
0.00011994
-0.000296867
1.48978e-05
0.000281238
0.000213209
-5.04716e-05
-0.000232117
-1.90178e-05
0.000251135
0.000255837
-2.19801e-05
-0.000233857
-0.000309938
0.000106363
0.000234529
1.70521e-05
-0.000251581
0.000280049
1.67797e-05
0.000296642
-0.000281896
1.76659e-05
-0.000299462
0.000233512
1.84916e-05
-0.000252004
-1.79046e-05
-1.43119e-05
0.000298397
-0.000284091
-0.000279495
0.000297346
-0.000282966
0.000292103
-0.000304136
1.21912e-05
0.000249741
-1.62291e-05
1.50213e-05
0.000250041
-1.55121e-05
0.000298586
-0.000282753
3.95922e-05
-0.000240713