/*--------------------------------*- C++ -*----------------------------------*\
  =========                 |
  \\      /  F ield         | OpenFOAM: The Open Source CFD Toolbox
   \\    /   O peration     | Website:  https://openfoam.org
    \\  /    A nd           | Version:  12
     \\/     M anipulation  |
\*---------------------------------------------------------------------------*/
FoamFile
{
    format      ascii;
    class       volVectorField;
    location    "4.31";
    object      U;
}
// * * * * * * * * * * * * * * * * * * * * * * * * * * * * * * * * * * * * * //

dimensions      [0 1 -1 0 0 0 0];

internalField   nonuniform List<vector> 
22702
(
(2 -2.07821e-13 0)
(2 -2.66724e-14 0)
(2.04072 -0.0879748 0)
(2 -1.11546e-09 0)
(1.97379 0.0387096 0)
(2 1.51533e-14 0)
(1.83154 0.229497 0)
(2 -1.68553e-13 0)
(2 -2.01495e-13 0)
(2.1102 -0.267909 0)
(1.83006 0.229171 0)
(1.83232 0.229395 0)
(2 7.43037e-14 0)
(1.83161 0.228653 0)
(2.03364 -0.075165 0)
(2 1.12675e-13 0)
(2 1.21577e-13 0)
(2 -3.97266e-14 0)
(1.8299 0.229097 0)
(2 -4.00377e-14 0)
(1.83159 0.229429 0)
(2 1.05189e-13 0)
(1.82915 0.227908 0)
(2.11913 -0.267158 0)
(1.83432 0.229198 0)
(2.1236 -0.260764 0)
(2 -9.27025e-14 0)
(1.82273 0.227456 0)
(2.08513 -0.254787 0)
(2.12524 -0.270276 0)
(2 -1.91515e-14 0)
(1.83085 0.228543 0)
(2 8.01481e-14 0)
(2 5.59082e-14 0)
(2 -1.22583e-13 0)
(1.84419 0.215071 0)
(1.83263 0.229462 0)
(1.82961 0.22883 0)
(2 4.78159e-14 0)
(2 -1.85071e-13 0)
(2.15505 -0.266375 0)
(2 7.43382e-14 0)
(1.91426 0.125085 0)
(2 2.0008e-14 0)
(1.82258 0.227515 0)
(2 -2.51334e-13 0)
(2 1.23013e-13 0)
(2 9.02186e-14 0)
(2 -1.11255e-13 0)
(2.12015 -0.266642 0)
(2 5.92599e-14 0)
(2.11568 -0.264843 0)
(2 -2.1301e-15 0)
(1.82999 0.228809 0)
(2 1.15925e-13 0)
(1.82925 0.228026 0)
(2 1.05581e-13 0)
(2 1.47424e-09 0)
(2 -4.44004e-14 0)
(2 1.02857e-13 0)
(2.1307 -0.262451 0)
(2 -8.94012e-14 0)
(2 -1.66349e-13 0)
(2.08455 -0.255097 0)
(2 5.0768e-14 0)
(2.10998 -0.269565 0)
(2 -2.20331e-13 0)
(2 -1.44431e-13 0)
(2 7.79156e-15 0)
(2.12132 -0.263463 0)
(2 -1.38056e-13 0)
(1.82947 0.229024 0)
(1.89656 0.14964 0)
(2 1.40919e-09 0)
(1.83208 0.230196 0)
(1.82569 0.239767 0)
(2.11947 -0.265385 0)
(1.83 0.229058 0)
(2.11291 -0.264414 0)
(2 -1.14755e-13 0)
(1.82976 0.228773 0)
(2.11204 -0.266436 0)
(1.83017 0.2285 0)
(1.82966 0.22867 0)
(2 -3.09143e-14 0)
(2 9.5968e-07 0)
(2 -4.81369e-14 0)
(2 -1.53974e-13 0)
(2.02597 -0.0515158 0)
(2.11297 -0.259864 0)
(1.83593 0.228459 0)
(2 -1.5241e-13 0)
(2 -5.76214e-11 0)
(2.08349 -0.271747 0)
(2 6.7215e-15 0)
(1.83136 0.229453 0)
(2.08299 -0.269162 0)
(2 2.61409e-08 0)
(2 6.13823e-14 0)
(2 -1.35674e-13 0)
(2 1.69893e-14 0)
(1.91572 0.1237 0)
(1.82976 0.229022 0)
(2.12197 -0.261439 0)
(2 -4.64574e-10 0)
(2 -9.075e-10 0)
(1.95638 0.0659057 0)
(2 8.17825e-09 0)
(2.11329 -0.265606 0)
(2 -1.73711e-13 0)
(1.82975 0.228916 0)
(1.82922 0.229019 0)
(2 4.8759e-09 0)
(2 1.3708e-13 0)
(2.12326 -0.271888 0)
(2.1243 -0.265361 0)
(2.10968 -0.261733 0)
(2 1.01172e-13 0)
(2 -1.53854e-07 0)
(2 -5.45433e-14 0)
(2 -8.90311e-15 0)
(2 1.07289e-07 0)
(2.0278 -0.0540524 0)
(2 -1.07254e-07 0)
(1.8559 0.200367 0)
(1.98126 0.0275301 0)
(1.82983 0.228608 0)
(2 -5.77748e-15 0)
(1.83223 0.229091 0)
(1.82998 0.22925 0)
(1.83123 0.229185 0)
(1.82996 0.228639 0)
(2 -1.76788e-13 0)
(2.14894 -0.258219 0)
(2 2.30877e-14 0)
(2.10988 -0.264307 0)
(2 3.69187e-14 0)
(2 -2.10837e-13 0)
(2 -1.83773e-15 0)
(2 -8.12149e-14 0)
(1.82925 0.229122 0)
(2 2.80491e-09 0)
(2 -9.2464e-14 0)
(2 1.03101e-13 0)
(2 -6.941e-14 0)
(1.83424 0.230039 0)
(2 -2.45913e-14 0)
(1.99402 0.0149942 0)
(2 3.88987e-14 0)
(2 -2.27924e-13 0)
(2 -6.50478e-11 0)
(2 -4.06874e-15 0)
(2.12068 -0.26604 0)
(2 -3.52795e-14 0)
(1.99603 0.00802377 0)
(2 7.44162e-15 0)
(2.10978 -0.264401 0)
(2 -1.21195e-14 0)
(2 -1.00547e-13 0)
(2 -4.61782e-14 0)
(1.83513 0.229186 0)
(2 3.11118e-14 0)
(1.82944 0.22819 0)
(2.12079 -0.272728 0)
(2.12806 -0.259969 0)
(1.82947 0.22926 0)
(1.82652 0.22775 0)
(2 5.08722e-15 0)
(1.9716 0.0454207 0)
(1.90306 0.141747 0)
(2 -2.8416e-13 0)
(1.82872 0.228251 0)
(2.11413 -0.264878 0)
(1.8444 0.214531 0)
(2 5.0424e-14 0)
(2 -2.05297e-14 0)
(2 2.37624e-14 0)
(2 -9.01027e-14 0)
(1.83169 0.229016 0)
(1.86894 0.190213 0)
(2 2.28534e-14 0)
(1.8294 0.228921 0)
(2.08798 -0.25803 0)
(1.8286 0.228158 0)
(2 -7.33205e-14 0)
(2.09619 -0.263285 0)
(2 7.75043e-15 0)
(2.11521 -0.26435 0)
(2.1246 -0.263901 0)
(2.00008 -0.000125697 0)
(2 1.60157e-14 0)
(2 -1.06999e-13 0)
(1.82831 0.229536 0)
(2 9.7805e-14 0)
(2 -2.31539e-13 0)
(1.83192 0.229368 0)
(2 -7.70708e-14 0)
(1.83023 0.228646 0)
(1.82918 0.229411 0)
(2.10861 -0.273982 0)
(2 -1.56201e-13 0)
(2 -3.12675e-13 0)
(2.1048 -0.2591 0)
(1.83183 0.229135 0)
(2 4.72266e-14 0)
(2 -1.86955e-14 0)
(2 1.29639e-13 0)
(1.83184 0.229124 0)
(2 4.88988e-14 0)
(2.11036 -0.265073 0)
(2 -6.04791e-11 0)
(2 -1.70042e-13 0)
(1.83151 0.229065 0)
(1.8313 0.229017 0)
(1.82978 0.228791 0)
(2 -3.77176e-14 0)
(1.99998 2.47239e-05 0)
(2 -1.4347e-14 0)
(2 3.89373e-14 0)
(2 -1.07368e-13 0)
(1.83162 0.229105 0)
(2 -3.12136e-14 0)
(2.10599 -0.263924 0)
(1.82519 0.235135 0)
(1.8314 0.229066 0)
(1.83197 0.229094 0)
(2 1.88389e-07 0)
(2 -6.00957e-14 0)
(2 1.24021e-13 0)
(2.11656 -0.27417 0)
(1.83218 0.228964 0)
(1.91788 0.135698 0)
(2 5.97727e-14 0)
(1.8309 0.22965 0)
(2.10299 -0.262817 0)
(2.10395 -0.261931 0)
(1.83076 0.229927 0)
(1.83176 0.228819 0)
(2 3.85521e-14 0)
(1.83149 0.228806 0)
(2.11632 -0.273677 0)
(1.85106 0.206346 0)
(2 -1.20361e-13 0)
(2 -1.78644e-13 0)
(2 -8.02907e-14 0)
(2 8.04171e-14 0)
(1.83204 0.229185 0)
(2 -4.87734e-16 0)
(1.89661 0.154227 0)
(1.9849 0.0282237 0)
(2 -8.32589e-14 0)
(2 -2.29358e-13 0)
(1.83174 0.229041 0)
(2.10222 -0.269031 0)
(2.07788 -0.167147 0)
(2 1.63817e-13 0)
(1.83176 0.227873 0)
(2.12073 -0.26538 0)
(1.83069 0.229654 0)
(2 1.85608e-14 0)
(2 3.24568e-14 0)
(2 -3.18192e-14 0)
(2 5.01197e-14 0)
(2 -1.76559e-14 0)
(2 -3.85541e-15 0)
(2 -6.39412e-14 0)
(2.11777 -0.267566 0)
(2.07481 -0.172664 0)
(2.10702 -0.263903 0)
(1.83127 0.228875 0)
(2 7.58013e-14 0)
(2 4.23778e-13 0)
(2 -1.771e-07 0)
(2 5.50779e-14 0)
(1.85369 0.2133 0)
(2 -1.87036e-07 0)
(2.1162 -0.267589 0)
(2 -2.05305e-13 0)
(2.11778 -0.284585 0)
(2.1046 -0.259341 0)
(1.83222 0.228862 0)
(2.10561 -0.265892 0)
(1.83155 0.229399 0)
(2 4.13273e-14 0)
(2 -1.79778e-13 0)
(2 -4.29973e-14 0)
(2.00076 -0.00156611 0)
(2.09599 -0.258217 0)
(2.11889 -0.274031 0)
(2 -3.13849e-07 0)
(2 -1.42381e-07 0)
(2.11612 -0.286219 0)
(2 2.39244e-09 0)
(1.8295 0.229049 0)
(2.12294 -0.260427 0)
(2 -6.31789e-14 0)
(2 -3.34217e-11 0)
(1.82947 0.228654 0)
(2.12174 -0.274569 0)
(2 -8.32937e-14 0)
(1.83186 0.233669 0)
(2.125 -0.262236 0)
(1.8317 0.229103 0)
(2 -1.65441e-13 0)
(2.11074 -0.288559 0)
(2.00084 -0.00139834 0)
(2 -8.41971e-14 0)
(2 2.71094e-06 0)
(2 -1.35509e-13 0)
(2.10634 -0.262596 0)
(2 1.64131e-13 0)
(2 -1.62037e-07 0)
(2 -6.38556e-07 0)
(1.99999 1.49411e-05 0)
(1.98919 0.00878763 0)
(1.89655 0.150231 0)
(2 -2.57776e-11 0)
(2.11226 -0.249745 0)
(2 -1.62394e-11 0)
(2 1.60773e-06 0)
(2 -1.47118e-13 0)
(2 -5.98047e-14 0)
(2 -9.06529e-14 0)
(2 -1.41319e-13 0)
(2 -1.21267e-12 0)
(1.82956 0.228605 0)
(2 3.25974e-13 0)
(1.82817 0.229425 0)
(2 8.04991e-14 0)
(2 -5.37401e-14 0)
(2 -1.10015e-14 0)
(2.11623 -0.267091 0)
(2 -1.38491e-14 0)
(1.83392 0.229938 0)
(2.10034 -0.259817 0)
(2 5.4504e-15 0)
(1.87895 0.185368 0)
(2 -1.44193e-13 0)
(2 -1.0765e-13 0)
(1.83053 0.228448 0)
(2 1.76965e-13 0)
(2 -9.95186e-09 0)
(2 1.3048e-13 0)
(1.83117 0.225797 0)
(2 4.99286e-10 0)
(2 -7.91422e-14 0)
(1.82905 0.228935 0)
(1.83002 0.228717 0)
(2 -3.14433e-14 0)
(1.96407 0.053901 0)
(2 -3.68934e-15 0)
(2 2.08573e-15 0)
(2.10816 -0.271039 0)
(2 -1.55897e-13 0)
(2 -4.42278e-14 0)
(2 -1.97884e-13 0)
(2.07549 -0.264191 0)
(2 1.90409e-13 0)
(2 4.87041e-14 0)
(2 1.62703e-13 0)
(2 1.92906e-14 0)
(2.12356 -0.256051 0)
(2 -3.38025e-14 0)
(2 -2.22038e-13 0)
(2 -6.2088e-15 0)
(2 1.87255e-14 0)
(2 -5.39006e-14 0)
(2.12043 -0.269365 0)
(1.99998 3.54943e-05 0)
(1.82814 0.2279 0)
(2 -5.0143e-14 0)
(2.00001 -3.34368e-05 0)
(1.82734 0.228655 0)
(1.82848 0.228196 0)
(2 8.67338e-14 0)
(2 7.18561e-14 0)
(2.10023 -0.278148 0)
(2.06737 -0.128803 0)
(1.83084 0.229731 0)
(2 -2.64701e-14 0)
(2 -4.86013e-14 0)
(2 -9.20006e-16 0)
(1.83179 0.228988 0)
(2.12194 -0.261503 0)
(2 -8.52255e-14 0)
(1.82968 0.228193 0)
(2 -6.69652e-14 0)
(2 1.07929e-14 0)
(2.0967 -0.209696 0)
(2.09997 -0.222692 0)
(2 -1.13263e-14 0)
(2.10047 -0.256465 0)
(2.11424 -0.267451 0)
(2 2.17583e-13 0)
(2 -5.18643e-14 0)
(2 -1.36324e-13 0)
(2 -7.82214e-14 0)
(2 -8.64338e-11 0)
(2 -1.52458e-13 0)
(2 4.4093e-14 0)
(1.82726 0.228529 0)
(1.95836 0.0669035 0)
(1.83793 0.232415 0)
(2.118 -0.268971 0)
(2.03107 -0.058307 0)
(1.83001 0.228955 0)
(2 -1.42351e-13 0)
(1.83391 0.230172 0)
(1.82991 0.229579 0)
(2.10823 -0.265368 0)
(2.082 -0.156023 0)
(2 5.86276e-13 0)
(2.10989 -0.266928 0)
(2 3.7865e-14 0)
(1.82249 0.23546 0)
(2 -4.02591e-14 0)
(2 -1.50922e-13 0)
(2 -1.91567e-13 0)
(2 1.28521e-14 0)
(1.83194 0.229238 0)
(2 -4.10736e-14 0)
(2 -9.71399e-14 0)
(2 -1.55389e-14 0)
(2 1.46321e-09 0)
(2 7.73614e-14 0)
(2 -1.11048e-13 0)
(2 -2.06692e-13 0)
(1.93804 0.093852 0)
(1.8337 0.227696 0)
(2 7.40774e-14 0)
(1.83117 0.228798 0)
(2 9.40565e-14 0)
(2 2.59018e-14 0)
(2.10867 -0.266967 0)
(2 -4.83512e-15 0)
(2 -1.96111e-13 0)
(2 -2.22301e-13 0)
(2 -6.0681e-14 0)
(1.83178 0.2291 0)
(1.87029 0.183906 0)
(2 -2.0167e-14 0)
(2 -9.00752e-14 0)
(2.09755 -0.26573 0)
(1.83079 0.228743 0)
(1.83132 0.228912 0)
(2 -1.3552e-13 0)
(1.83139 0.228929 0)
(1.83159 0.228991 0)
(1.83126 0.228949 0)
(2 -8.76169e-14 0)
(2.0569 -0.112431 0)
(2 -1.60526e-13 0)
(1.83212 0.228956 0)
(2.00262 -0.0089745 0)
(1.83116 0.228809 0)
(2 -4.57889e-14 0)
(2.10815 -0.265148 0)
(2.00033 -0.000683468 0)
(1.83249 0.229943 0)
(2 -1.36011e-13 0)
(2 -9.07607e-14 0)
(2 -5.16742e-11 0)
(2 -1.99635e-11 0)
(2.11621 -0.264258 0)
(1.83217 0.228835 0)
(1.84813 0.210839 0)
(2 6.05872e-14 0)
(1.83108 0.228626 0)
(1.83181 0.229009 0)
(1.83043 0.229495 0)
(2 1.6435e-13 0)
(1.92187 0.121968 0)
(1.83139 0.228811 0)
(2 1.30128e-13 0)
(2 6.67947e-14 0)
(1.88404 0.165287 0)
(1.97657 0.0390804 0)
(1.83123 0.228958 0)
(2.02192 -0.0479125 0)
(1.83117 0.228937 0)
(2 9.81543e-14 0)
(1.83114 0.228809 0)
(1.83134 0.228761 0)
(1.83119 0.228973 0)
(1.83071 0.228408 0)
(2 -9.54428e-14 0)
(1.84447 0.21192 0)
(2.02913 -0.056491 0)
(2.04252 -0.0782078 0)
(2 4.4664e-14 0)
(2 -3.96729e-07 0)
(2 3.58563e-14 0)
(2 -2.2275e-14 0)
(1.82832 0.232177 0)
(2 1.40321e-13 0)
(2 1.64173e-13 0)
(2 3.83381e-14 0)
(2 9.93255e-14 0)
(2 3.70936e-14 0)
(1.83258 0.229963 0)
(2 3.74354e-15 0)
(2 8.27987e-14 0)
(2.00165 -0.00288189 0)
(1.83141 0.228872 0)
(1.86568 0.192714 0)
(2 -2.14796e-13 0)
(1.85496 0.199837 0)
(1.99998 2.40722e-05 0)
(2 -4.58376e-14 0)
(2 -6.88575e-14 0)
(1.83057 0.228265 0)
(2 2.46672e-14 0)
(2.00141 -0.00148782 0)
(1.99841 0.00354288 0)
(2 2.0528e-14 0)
(1.83151 0.228798 0)
(2 -3.64957e-14 0)
(1.83183 0.229715 0)
(2 5.02363e-14 0)
(2 1.6269e-13 0)
(1.8748 0.178384 0)
(2 1.34208e-13 0)
(1.83188 0.229774 0)
(1.99999 1.28903e-05 0)
(2 -3.73718e-14 0)
(1.83177 0.229153 0)
(2 1.37915e-13 0)
(1.83174 0.229029 0)
(2 1.99656e-13 0)
(2 3.02821e-06 0)
(2 2.65485e-14 0)
(1.83206 0.229331 0)
(2 -1.1925e-16 0)
(1.82995 0.231424 0)
(2 4.84302e-06 0)
(1.83193 0.229181 0)
(1.83041 0.229142 0)
(1.83164 0.229017 0)
(1.82804 0.228231 0)
(2 4.91338e-14 0)
(1.82975 0.228916 0)
(1.83855 0.223926 0)
(2 1.01507e-13 0)
(2.12295 -0.26741 0)
(1.84203 0.21711 0)
(1.87923 0.171495 0)
(2 -8.60538e-14 0)
(1.83192 0.22931 0)
(2 5.54413e-14 0)
(2.10066 -0.268198 0)
(2.12486 -0.263449 0)
(2 -8.87283e-14 0)
(2 -7.15238e-15 0)
(2 4.76061e-14 0)
(2 -2.15442e-13 0)
(2 1.72451e-09 0)
(2.09082 -0.267354 0)
(2 -1.74537e-13 0)
(1.83119 0.228811 0)
(1.95608 0.0623469 0)
(1.83058 0.228312 0)
(2 -6.17075e-14 0)
(2 8.66374e-11 0)
(2 -1.32586e-13 0)
(2 -8.22143e-14 0)
(2 -5.25377e-08 0)
(1.83141 0.228769 0)
(2 -3.62453e-13 0)
(1.83074 0.228975 0)
(1.8979 0.149958 0)
(2.0842 -0.149867 0)
(2 1.34015e-09 0)
(1.99999 8.76168e-06 0)
(1.95299 0.0742654 0)
(1.96257 0.0628227 0)
(2 -1.65627e-13 0)
(2 -1.57846e-13 0)
(1.93984 0.0923744 0)
(2 4.18135e-14 0)
(2.10402 -0.263623 0)
(1.83198 0.229099 0)
(1.8318 0.229107 0)
(2 -6.75076e-11 0)
(2 -3.84471e-14 0)
(2 -9.28334e-14 0)
(1.83096 0.229125 0)
(2 2.32446e-13 0)
(1.99999 1.59016e-05 0)
(1.82912 0.228049 0)
(1.83219 0.228942 0)
(2.0192 -0.0358263 0)
(2 -4.66345e-14 0)
(2 1.23448e-10 0)
(2.11568 -0.263737 0)
(1.8459 0.212498 0)
(2 -1.67179e-13 0)
(2 2.57283e-14 0)
(2 1.18367e-15 0)
(2 -3.09294e-11 0)
(2 3.4878e-15 0)
(1.83154 0.228967 0)
(1.83003 0.228803 0)
(2 -2.89294e-14 0)
(1.83154 0.228581 0)
(1.83026 0.230632 0)
(1.83166 0.229058 0)
(2 1.33265e-13 0)
(2 -5.76425e-14 0)
(2 -6.33455e-11 0)
(2 -4.24132e-14 0)
(2.12472 -0.26199 0)
(1.82853 0.228681 0)
(2 -4.72836e-11 0)
(2 1.16043e-13 0)
(1.84627 0.212303 0)
(1.83223 0.228265 0)
(2 -2.06245e-13 0)
(1.84142 0.217577 0)
(1.83538 0.228966 0)
(2 8.15638e-14 0)
(2 -2.18083e-07 0)
(2 8.77678e-11 0)
(2 3.46395e-14 0)
(2 -1.08386e-13 0)
(1.83168 0.228972 0)
(2 -1.99429e-14 0)
(2 1.90595e-15 0)
(2 1.3094e-13 0)
(2 -5.96898e-14 0)
(1.82928 0.232679 0)
(2 -8.40441e-14 0)
(1.83645 0.228941 0)
(2.10475 -0.264168 0)
(2 -1.09402e-13 0)
(2.11874 -0.267396 0)
(2 9.40725e-14 0)
(2 -1.41676e-07 0)
(2 9.58511e-14 0)
(2.00131 -0.00183731 0)
(2.11601 -0.264958 0)
(2.00029 -0.000514567 0)
(2 -4.62465e-14 0)
(2 3.97163e-14 0)
(2 -1.22857e-07 0)
(1.97719 0.0352165 0)
(2 -2.4641e-14 0)
(2 1.03314e-13 0)
(2.04836 -0.0933549 0)
(2 -2.14066e-07 0)
(2 -1.28105e-13 0)
(2 7.3809e-14 0)
(2 -2.12562e-07 0)
(2 3.70015e-07 0)
(2 -1.2923e-07 0)
(2 -2.81954e-13 0)
(2 -1.60311e-06 0)
(2.01687 -0.041643 0)
(2 -4.65359e-07 0)
(2 -4.46287e-08 0)
(2.00097 -0.00143345 0)
(2 -1.40599e-13 0)
(2.11322 -0.262311 0)
(2 -3.01262e-11 0)
(2 -3.84926e-12 0)
(2 -3.89067e-11 0)
(2 1.9154e-13 0)
(1.87253 0.179994 0)
(2 -6.56921e-14 0)
(2 -4.49752e-14 0)
(2 9.60335e-14 0)
(2 -1.67573e-07 0)
(2.09501 -0.259083 0)
(2 4.15374e-14 0)
(2 1.35511e-09 0)
(1.84133 0.21741 0)
(1.82755 0.228145 0)
(2 -3.25487e-07 0)
(2 -2.96007e-14 0)
(2 -1.09823e-07 0)
(2.03976 -0.0716154 0)
(2 -8.00593e-15 0)
(2 4.229e-10 0)
(2 -1.05152e-13 0)
(2 -2.37038e-15 0)
(2 -4.26365e-14 0)
(2 -1.01611e-13 0)
(2.01738 -0.0362188 0)
(1.99447 0.000313288 0)
(1.83177 0.229044 0)
(2 2.97521e-14 0)
(2 1.16402e-13 0)
(2 -1.95434e-14 0)
(1.82997 0.230025 0)
(2.03313 -0.0658814 0)
(2 -4.81875e-09 0)
(2 3.4309e-14 0)
(2 8.3616e-14 0)
(1.82525 0.227583 0)
(1.82645 0.225882 0)
(2 -2.69781e-08 0)
(2 5.49329e-06 0)
(2 3.45961e-09 0)
(2 -1.11525e-13 0)
(2 1.31854e-09 0)
(2 2.21441e-13 0)
(2 -1.14764e-11 0)
(2 7.45216e-14 0)
(2 -2.41313e-13 0)
(2.11074 -0.269556 0)
(2 -7.71406e-15 0)
(2 -1.40036e-11 0)
(1.8288 0.228587 0)
(2.11066 -0.264887 0)
(2 -1.74079e-13 0)
(1.82925 0.228477 0)
(2 6.58823e-11 0)
(2.11101 -0.260709 0)
(2 -5.55098e-14 0)
(2 4.9814e-14 0)
(2.1081 -0.267799 0)
(2 -5.94749e-14 0)
(2 -1.25939e-11 0)
(2 -5.88917e-12 0)
(2 -4.85164e-14 0)
(2 -2.86756e-12 0)
(2 -9.36985e-14 0)
(2 -2.32559e-14 0)
(1.83462 0.225237 0)
(1.83195 0.228611 0)
(2 4.58755e-13 0)
(2 -1.89431e-14 0)
(2 -3.88099e-14 0)
(2 2.8179e-13 0)
(1.84594 0.212573 0)
(2 1.80945e-13 0)
(1.9431 0.0810589 0)
(2.11459 -0.263387 0)
(2 -3.32874e-08 0)
(2 1.67158e-13 0)
(2 -6.18423e-14 0)
(2 -2.5295e-13 0)
(2 -1.1442e-13 0)
(2 -4.47559e-14 0)
(2 -2.89347e-14 0)
(1.98343 0.0178401 0)
(2 4.22837e-14 0)
(2 -1.04744e-15 0)
(1.90634 0.120189 0)
(2 -7.1616e-15 0)
(2 -1.10633e-13 0)
(2 1.38129e-14 0)
(1.86107 0.192411 0)
(2 -1.92243e-13 0)
(2 -4.60628e-14 0)
(2 -1.20429e-13 0)
(2 -1.13353e-13 0)
(2.11212 -0.263072 0)
(2 7.62083e-14 0)
(2 1.14539e-13 0)
(2.12068 -0.2755 0)
(2.11079 -0.266189 0)
(2 -9.05827e-14 0)
(2 -7.04118e-15 0)
(1.83202 0.228979 0)
(2 9.42383e-14 0)
(1.98168 0.00190409 0)
(2 1.02241e-13 0)
(2 3.49528e-14 0)
(2 1.12135e-13 0)
(1.88327 0.168157 0)
(2.12287 -0.276441 0)
(2 -2.97441e-13 0)
(2.12227 -0.279162 0)
(2 -1.28106e-13 0)
(2.07665 -0.157277 0)
(2 -1.8833e-13 0)
(2 3.23327e-13 0)
(2 2.1187e-13 0)
(1.83107 0.229744 0)
(2 -4.28305e-08 0)
(2 -4.22827e-14 0)
(1.83145 0.228782 0)
(2 -6.1328e-14 0)
(2 -4.83548e-12 0)
(2 1.6681e-09 0)
(1.83138 0.228815 0)
(2 1.96692e-10 0)
(2 9.18665e-14 0)
(1.83203 0.229022 0)
(2 -3.55236e-13 0)
(2 6.84551e-14 0)
(2.10918 -0.264443 0)
(2 -1.68809e-11 0)
(1.94329 0.0804313 0)
(2 2.46351e-15 0)
(2 -1.12874e-13 0)
(1.83001 0.228948 0)
(1.82985 0.229212 0)
(1.88768 0.159909 0)
(1.84947 0.209139 0)
(2 -1.47587e-13 0)
(2.10629 -0.266788 0)
(2 2.86872e-14 0)
(2 1.23682e-13 0)
(1.83828 0.220283 0)
(2 -4.57859e-14 0)
(2.12151 -0.261233 0)
(2 3.24641e-13 0)
(2 6.69842e-14 0)
(2 1.43293e-14 0)
(1.83141 0.229249 0)
(2 -1.1913e-14 0)
(2 -2.15968e-14 0)
(2 2.31454e-14 0)
(2 5.34492e-14 0)
(1.89788 0.149821 0)
(2 -4.28931e-14 0)
(1.83263 0.219105 0)
(1.83127 0.227828 0)
(2.07771 -0.265531 0)
(2 -3.53267e-13 0)
(2 -2.05988e-13 0)
(2.11906 -0.260958 0)
(2.12064 -0.260724 0)
(2 -6.42548e-16 0)
(2 6.53335e-15 0)
(2 -5.88572e-12 0)
(1.88152 0.169718 0)
(1.87199 0.183129 0)
(2 -2.36942e-13 0)
(2 -6.2131e-14 0)
(2 2.88394e-14 0)
(2 -1.05497e-13 0)
(2 -2.05697e-14 0)
(2 -4.8253e-14 0)
(2 -3.76514e-15 0)
(1.92512 0.111817 0)
(1.82802 0.228256 0)
(1.99566 0.00421813 0)
(2 -7.14309e-14 0)
(1.83394 0.226755 0)
(2.14591 -0.262451 0)
(2 -5.58183e-14 0)
(2 -8.34944e-14 0)
(2 -4.35904e-14 0)
(1.9074 0.135632 0)
(2 -5.64223e-14 0)
(1.96754 0.0540142 0)
(2 8.98971e-14 0)
(1.84601 0.212399 0)
(1.83227 0.228135 0)
(2 7.8705e-14 0)
(2.10868 -0.264712 0)
(2 3.92564e-14 0)
(1.82908 0.228304 0)
(2 -5.97736e-14 0)
(2 5.96986e-15 0)
(1.83225 0.22911 0)
(1.8421 0.21745 0)
(2 1.05842e-13 0)
(1.82661 0.229848 0)
(2 3.80143e-15 0)
(2.05725 -0.26596 0)
(2 1.93476e-13 0)
(2 -2.12104e-14 0)
(2 8.18685e-14 0)
(1.83718 0.229483 0)
(1.83447 0.225443 0)
(1.85042 0.206379 0)
(2 7.63891e-14 0)
(1.8308 0.229341 0)
(1.83164 0.228647 0)
(2 -1.0975e-13 0)
(1.83127 0.229461 0)
(2 -9.45215e-09 0)
(1.83221 0.227849 0)
(2 -1.35716e-13 0)
(2.12244 -0.26163 0)
(2.00696 -0.0121859 0)
(2.11962 -0.267206 0)
(2 -3.40072e-11 0)
(2 -2.37652e-11 0)
(2 -3.64183e-11 0)
(2 9.61577e-14 0)
(2 -1.42028e-11 0)
(1.8316 0.228734 0)
(2 -1.0747e-13 0)
(1.83175 0.228865 0)
(2 -4.34419e-11 0)
(2 -9.24406e-11 0)
(2 1.10755e-13 0)
(1.83994 0.219218 0)
(2 1.32905e-14 0)
(2.11512 -0.27003 0)
(1.83153 0.228761 0)
(2 -1.97915e-14 0)
(2.11304 -0.261717 0)
(2.11303 -0.247032 0)
(2.11799 -0.270233 0)
(2 1.45273e-14 0)
(1.91516 0.122666 0)
(1.98263 0.0168484 0)
(1.83043 0.229408 0)
(1.83153 0.228703 0)
(2 -9.64203e-14 0)
(2 -3.74033e-07 0)
(2 -5.92425e-08 0)
(2 1.00573e-13 0)
(1.83143 0.229013 0)
(2 1.60613e-13 0)
(2 1.08935e-13 0)
(1.83147 0.228975 0)
(1.83165 0.228689 0)
(2 -5.20477e-14 0)
(1.94059 0.090286 0)
(1.99975 0.000788998 0)
(2 -7.99477e-14 0)
(2.00109 -0.00193555 0)
(1.83517 0.229354 0)
(2.05395 -0.107357 0)
(2 -1.16463e-07 0)
(2.06193 -0.111936 0)
(2.10304 -0.261799 0)
(2.10675 -0.267031 0)
(2.00032 -0.0357329 0)
(1.82592 0.227355 0)
(1.83372 0.226469 0)
(1.96581 0.0494131 0)
(1.83188 0.229144 0)
(1.83132 0.228957 0)
(2 2.32449e-14 0)
(2 -2.34035e-14 0)
(1.82596 0.22873 0)
(1.82832 0.229165 0)
(1.83164 0.229605 0)
(1.82857 0.228358 0)
(2 6.61552e-14 0)
(1.83135 0.228948 0)
(2.12499 -0.263297 0)
(1.83195 0.228949 0)
(1.83037 0.228739 0)
(1.82899 0.229034 0)
(1.82991 0.228007 0)
(2.04789 -0.0923471 0)
(2.03671 -0.0667163 0)
(2.02301 -0.0462513 0)
(1.83215 0.229069 0)
(2.01401 -0.0339345 0)
(1.8316 0.229633 0)
(2 -6.22044e-15 0)
(2 7.30263e-14 0)
(1.83045 0.229612 0)
(1.83023 0.22906 0)
(2 5.75787e-14 0)
(2.11039 -0.266278 0)
(1.83068 0.22882 0)
(1.83174 0.22888 0)
(2 -3.75372e-14 0)
(1.8319 0.228788 0)
(1.83179 0.228778 0)
(2 -1.7525e-13 0)
(1.83151 0.229027 0)
(2.10175 -0.257579 0)
(1.8319 0.231413 0)
(1.82608 0.228183 0)
(1.82999 0.22876 0)
(1.83237 0.229679 0)
(2 1.62006e-13 0)
(2 1.60953e-13 0)
(2 -1.14796e-07 0)
(1.83196 0.228906 0)
(1.89173 0.156838 0)
(2.10171 -0.252021 0)
(1.83139 0.228842 0)
(2.12074 -0.272913 0)
(1.83202 0.229052 0)
(2 2.22814e-14 0)
(2 -1.66503e-13 0)
(2 -1.22187e-14 0)
(2 -3.7675e-14 0)
(1.83088 0.228813 0)
(1.83129 0.22897 0)
(2 1.0102e-13 0)
(2 6.34314e-14 0)
(1.83132 0.228937 0)
(2.11759 -0.27204 0)
(1.83168 0.227719 0)
(2.107 -0.261007 0)
(2 -3.31996e-14 0)
(1.8328 0.227704 0)
(2 -4.56318e-14 0)
(2.11162 -0.269116 0)
(1.83083 0.229349 0)
(2.09174 -0.188448 0)
(2 -4.62762e-14 0)
(1.83152 0.228706 0)
(1.8304 0.229734 0)
(1.83202 0.228582 0)
(2 2.79001e-14 0)
(2 -1.11124e-13 0)
(1.92309 0.115586 0)
(1.83069 0.229498 0)
(2.11095 -0.264542 0)
(1.83199 0.228987 0)
(2 3.18276e-14 0)
(1.83165 0.228879 0)
(2.04282 -0.0842394 0)
(1.83216 0.228448 0)
(2.11446 -0.266993 0)
(2 -2.937e-14 0)
(1.83196 0.229259 0)
(2.09994 -0.235615 0)
(1.83068 0.229533 0)
(2.10063 -0.259764 0)
(2 1.04845e-13 0)
(1.83141 0.229112 0)
(2 4.62122e-16 0)
(1.83397 0.227961 0)
(2 2.33136e-14 0)
(1.90107 0.141015 0)
(1.83735 0.222206 0)
(1.86762 0.186986 0)
(2.11808 -0.27873 0)
(2 -2.98933e-13 0)
(1.83065 0.229575 0)
(2 4.57145e-14 0)
(1.83126 0.229294 0)
(2 -1.20495e-07 0)
(1.83191 0.229294 0)
(2 -2.39519e-07 0)
(2 -1.72979e-13 0)
(1.83091 0.22966 0)
(2.0063 -0.0154089 0)
(1.8305 0.23024 0)
(2.07092 -0.263936 0)
(1.84128 0.229526 0)
(2 9.23955e-14 0)
(1.88077 0.169562 0)
(2 3.46486e-14 0)
(1.83113 0.229482 0)
(1.83192 0.229132 0)
(1.83098 0.229652 0)
(2 1.99795e-14 0)
(1.84809 0.209768 0)
(1.83134 0.228857 0)
(1.84421 0.21497 0)
(1.89386 0.15287 0)
(1.8332 0.223576 0)
(2 1.97875e-13 0)
(1.88834 0.161334 0)
(2 6.21297e-14 0)
(1.83128 0.228832 0)
(2 -1.55402e-13 0)
(1.97138 0.0396446 0)
(2 -1.41959e-13 0)
(1.84327 0.215317 0)
(2 -1.24285e-15 0)
(1.83192 0.228724 0)
(1.83951 0.219391 0)
(1.83948 0.219619 0)
(2 -5.76906e-14 0)
(1.83779 0.222286 0)
(2.12409 -0.264601 0)
(2 -8.83304e-14 0)
(2.10457 -0.266152 0)
(2 2.18516e-15 0)
(2 -2.13267e-14 0)
(2 3.73771e-14 0)
(1.8305 0.228762 0)
(2 3.94189e-14 0)
(1.83149 0.22908 0)
(2 8.6029e-14 0)
(2 -1.76764e-15 0)
(2 -5.66357e-14 0)
(1.83111 0.229459 0)
(1.83613 0.236762 0)
(1.86191 0.200544 0)
(1.83103 0.228563 0)
(1.83161 0.228774 0)
(2.12057 -0.264963 0)
(1.83325 0.231035 0)
(1.83183 0.228508 0)
(2 -1.81484e-13 0)
(1.85544 0.204215 0)
(1.83182 0.22895 0)
(1.84252 0.217089 0)
(2 -3.11197e-14 0)
(1.82886 0.228284 0)
(1.83067 0.228889 0)
(2 -5.59248e-14 0)
(1.82968 0.231752 0)
(1.83086 0.229611 0)
(1.83123 0.229396 0)
(1.83091 0.229385 0)
(2 -1.41783e-13 0)
(2 1.49089e-13 0)
(2 8.52264e-14 0)
(1.83177 0.229249 0)
(2.1161 -0.266879 0)
(2 -1.43412e-13 0)
(1.83157 0.228975 0)
(2 -3.07736e-14 0)
(2 -2.0474e-14 0)
(2.12632 -0.263335 0)
(2 1.15358e-13 0)
(2 4.53229e-14 0)
(1.8314 0.228945 0)
(1.83151 0.229033 0)
(2 6.79551e-14 0)
(1.83218 0.22914 0)
(1.82878 0.232457 0)
(1.83345 0.229868 0)
(2.00692 -0.0127465 0)
(1.83139 0.228975 0)
(2 -6.82208e-14 0)
(1.83141 0.228957 0)
(1.83129 0.228905 0)
(1.87169 0.178421 0)
(2 1.43488e-14 0)
(2 1.95546e-14 0)
(2 -1.07669e-13 0)
(1.83045 0.22805 0)
(1.83226 0.229617 0)
(1.83161 0.228985 0)
(2.01883 -0.0403778 0)
(2 -4.33729e-14 0)
(1.82556 0.230691 0)
(1.83226 0.229617 0)
(1.83254 0.229223 0)
(2 5.33657e-15 0)
(1.83223 0.22944 0)
(1.83125 0.228424 0)
(1.83132 0.228912 0)
(1.82547 0.230732 0)
(2 -7.05999e-14 0)
(1.83231 0.228625 0)
(1.82949 0.231731 0)
(1.84967 0.202258 0)
(1.83258 0.229454 0)
(1.82588 0.230102 0)
(2 -7.96405e-14 0)
(1.83198 0.230624 0)
(1.83316 0.227131 0)
(1.83149 0.228916 0)
(1.83189 0.22785 0)
(1.83255 0.229104 0)
(2.13225 -0.263002 0)
(1.83231 0.229029 0)
(1.83074 0.229007 0)
(2 -1.57376e-13 0)
(1.83148 0.228893 0)
(1.83146 0.228772 0)
(1.83106 0.229262 0)
(1.83208 0.229188 0)
(2 -6.22191e-08 0)
(1.83232 0.228819 0)
(1.83161 0.228762 0)
(2 -1.56907e-07 0)
(1.83191 0.22886 0)
(1.85865 0.196321 0)
(2 -3.55465e-14 0)
(2 3.59415e-14 0)
(2 1.7203e-09 0)
(1.83194 0.229869 0)
(1.83176 0.231467 0)
(2 -1.6933e-13 0)
(2 7.11108e-14 0)
(1.90867 0.133151 0)
(2 6.53966e-14 0)
(1.83153 0.228952 0)
(2 3.02569e-14 0)
(2 6.11992e-15 0)
(1.83137 0.228966 0)
(1.83088 0.229601 0)
(1.83234 0.229232 0)
(1.83145 0.228787 0)
(2 1.54682e-14 0)
(2 3.97109e-14 0)
(2 2.46281e-13 0)
(1.8799 0.166804 0)
(2 -6.39773e-15 0)
(1.83215 0.228741 0)
(2 5.14332e-14 0)
(2 7.95854e-14 0)
(1.83188 0.228847 0)
(1.82544 0.228366 0)
(2 -3.54258e-14 0)
(1.83155 0.228897 0)
(2.13001 -0.275854 0)
(1.83156 0.229044 0)
(1.83057 0.229463 0)
(2.08548 -0.21092 0)
(2 -1.7083e-13 0)
(2.12807 -0.274382 0)
(1.84861 0.202751 0)
(1.83046 0.227389 0)
(1.83257 0.226867 0)
(1.83225 0.227433 0)
(2.10711 -0.266996 0)
(1.83175 0.228829 0)
(1.83127 0.229278 0)
(2.10941 -0.268345 0)
(2.12009 -0.275816 0)
(2 -2.55019e-07 0)
(1.83134 0.229373 0)
(1.83212 0.229281 0)
(2 -2.37049e-13 0)
(2 -1.39631e-14 0)
(1.83171 0.229439 0)
(2 -2.40581e-13 0)
(1.82868 0.229734 0)
(2 2.56176e-06 0)
(1.85251 0.205203 0)
(2 2.39893e-14 0)
(1.92206 0.113737 0)
(1.83179 0.229154 0)
(1.83041 0.229739 0)
(1.88013 0.168884 0)
(1.84312 0.221587 0)
(1.83098 0.228697 0)
(1.83172 0.229956 0)
(1.8372 0.215696 0)
(2 6.30852e-14 0)
(2.12829 -0.254311 0)
(1.83244 0.22893 0)
(1.83135 0.229059 0)
(1.83054 0.23125 0)
(2 7.18401e-06 0)
(2 4.20305e-10 0)
(2 1.42698e-09 0)
(1.8272 0.229164 0)
(2 -3.60184e-14 0)
(1.83109 0.228729 0)
(1.8314 0.228637 0)
(2.08525 -0.177194 0)
(2 -5.87464e-14 0)
(1.83134 0.229481 0)
(2.00003 -5.26337e-05 0)
(2 5.49205e-14 0)
(1.99999 1.80992e-05 0)
(1.99998 2.77751e-05 0)
(1.83204 0.229225 0)
(1.83156 0.229104 0)
(2.00052 -0.000914694 0)
(2 3.5193e-15 0)
(2 -7.46845e-14 0)
(1.8314 0.22923 0)
(1.83074 0.229632 0)
(1.83127 0.228969 0)
(1.83022 0.227794 0)
(1.83117 0.2305 0)
(2.11609 -0.258436 0)
(1.8571 0.195205 0)
(2 1.04693e-13 0)
(1.83298 0.22748 0)
(1.83183 0.229297 0)
(1.83102 0.228593 0)
(1.82954 0.232347 0)
(2 3.34835e-14 0)
(1.83218 0.229139 0)
(1.83594 0.223898 0)
(1.83124 0.22978 0)
(2 1.66189e-13 0)
(1.83115 0.228961 0)
(1.8308 0.228048 0)
(2.04801 -0.0968071 0)
(1.8322 0.22904 0)
(1.83092 0.228701 0)
(2 -1.54078e-13 0)
(1.83152 0.229196 0)
(2.0592 -0.112026 0)
(1.8306 0.229254 0)
(2.04396 -0.0965412 0)
(1.83194 0.2292 0)
(2 -1.00351e-07 0)
(1.8313 0.229246 0)
(1.82427 0.231806 0)
(1.83173 0.228985 0)
(1.83202 0.229342 0)
(1.83136 0.228963 0)
(1.82647 0.227908 0)
(1.83169 0.22951 0)
(1.83069 0.228622 0)
(2 -2.03029e-13 0)
(2.02101 -0.0467379 0)
(1.83061 0.229283 0)
(1.83159 0.228725 0)
(2.0572 -0.109537 0)
(1.83176 0.228842 0)
(2.00358 -0.00844248 0)
(1.90064 0.15634 0)
(1.83078 0.229722 0)
(1.83107 0.229541 0)
(1.83203 0.229696 0)
(2 -3.1306e-14 0)
(1.83043 0.230045 0)
(1.89564 0.149836 0)
(1.83049 0.228494 0)
(2.02687 -0.050353 0)
(1.83091 0.230057 0)
(1.82562 0.232434 0)
(2 -1.53391e-13 0)
(2.04402 -0.0827062 0)
(2 -1.89677e-09 0)
(1.8279 0.227932 0)
(2 -1.13738e-13 0)
(1.88443 0.167071 0)
(2 4.75633e-09 0)
(1.83822 0.21983 0)
(2.0358 -0.0793734 0)
(2 -4.71521e-14 0)
(1.82924 0.230211 0)
(1.83315 0.231109 0)
(2 -2.31326e-13 0)
(1.82953 0.227485 0)
(1.83028 0.229649 0)
(1.83119 0.231815 0)
(1.82862 0.228278 0)
(1.83163 0.232547 0)
(2 6.13288e-14 0)
(1.82793 0.228439 0)
(2 1.64779e-14 0)
(2 -5.94672e-14 0)
(2 1.43558e-13 0)
(2.03729 -0.0719507 0)
(1.83114 0.228684 0)
(1.83172 0.228838 0)
(1.82868 0.228392 0)
(1.8316 0.228898 0)
(1.83344 0.229649 0)
(1.8298 0.229282 0)
(1.83015 0.235597 0)
(1.83148 0.229153 0)
(2.03639 -0.0725663 0)
(1.99009 0.0210679 0)
(2 3.52711e-09 0)
(2 -4.02415e-14 0)
(1.82402 0.233421 0)
(1.83156 0.229142 0)
(1.83148 0.22884 0)
(1.83173 0.229037 0)
(1.99999 1.67369e-05 0)
(1.90995 0.13582 0)
(2 -1.71228e-07 0)
(1.83025 0.231586 0)
(1.84567 0.211294 0)
(2 -2.8342e-12 0)
(2 -4.95427e-11 0)
(2.09205 -0.188239 0)
(1.83127 0.228823 0)
(2 6.48249e-14 0)
(2 -8.77744e-14 0)
(2.1239 -0.264541 0)
(1.83159 0.228946 0)
(2 6.63277e-15 0)
(1.8307 0.228442 0)
(1.83123 0.229337 0)
(1.83152 0.228617 0)
(1.83793 0.221786 0)
(1.83147 0.228637 0)
(2 -2.27481e-10 0)
(2.12012 -0.270139 0)
(1.95958 0.0666168 0)
(1.83103 0.229403 0)
(1.83123 0.229082 0)
(2 -3.07003e-14 0)
(1.8322 0.228432 0)
(1.83136 0.228938 0)
(1.91255 0.121931 0)
(1.99677 0.00632219 0)
(1.96869 0.0532272 0)
(2 5.10275e-14 0)
(1.8338 0.229563 0)
(1.83162 0.228901 0)
(2 -1.09721e-07 0)
(2 -1.87932e-10 0)
(2.1109 -0.266313 0)
(2 -2.46104e-10 0)
(2 6.14337e-14 0)
(1.83168 0.228983 0)
(1.83158 0.22902 0)
(1.83036 0.228316 0)
(1.8313 0.229265 0)
(1.83111 0.229159 0)
(1.82691 0.229075 0)
(1.83163 0.229261 0)
(1.83032 0.230266 0)
(1.83126 0.228759 0)
(2 -6.70288e-14 0)
(2.00168 -0.00237557 0)
(1.8319 0.229132 0)
(1.83175 0.22899 0)
(2.00108 -0.00170797 0)
(1.83149 0.228951 0)
(1.8313 0.228906 0)
(2.11586 -0.266753 0)
(2.08534 -0.267504 0)
(1.83178 0.228205 0)
(1.8298 0.229187 0)
(2 -8.01463e-14 0)
(2 3.17892e-13 0)
(1.99903 0.00217693 0)
(1.83134 0.229502 0)
(1.83132 0.228929 0)
(1.83161 0.229027 0)
(2 9.65187e-10 0)
(1.83146 0.228888 0)
(2 -2.95706e-14 0)
(2.04377 -0.101988 0)
(1.8301 0.231899 0)
(1.83407 0.229201 0)
(2 -8.69953e-14 0)
(1.92388 0.110379 0)
(1.83024 0.228441 0)
(2 6.31604e-14 0)
(1.8297 0.227158 0)
(2 -1.04465e-10 0)
(1.83238 0.228687 0)
(1.89677 0.154999 0)
(1.83195 0.228685 0)
(2 1.43978e-11 0)
(1.83213 0.229364 0)
(1.82985 0.231562 0)
(2.11278 -0.266567 0)
(1.83162 0.229447 0)
(2 -1.2775e-07 0)
(1.83079 0.22908 0)
(1.82833 0.227987 0)
(2 7.10442e-09 0)
(2.11999 -0.262926 0)
(1.83143 0.229901 0)
(1.86977 0.186009 0)
(2.00055 -0.000846137 0)
(1.83245 0.233468 0)
(1.83131 0.228817 0)
(2 -5.58839e-12 0)
(2.0003 -0.00508484 0)
(1.83166 0.228905 0)
(2.00166 -0.00284631 0)
(1.83126 0.228936 0)
(2 -3.3925e-12 0)
(2 -2.50365e-14 0)
(1.8296 0.228469 0)
(2 -2.7142e-14 0)
(1.83163 0.227985 0)
(1.83138 0.228955 0)
(2.00131 -0.00246707 0)
(1.87476 0.187114 0)
(2 3.32504e-09 0)
(1.83129 0.22891 0)
(2 -2.79504e-10 0)
(2 -7.01149e-13 0)
(2 1.07358e-11 0)
(2 7.10185e-12 0)
(1.83171 0.229052 0)
(2 6.91921e-09 0)
(2 5.2027e-14 0)
(1.82811 0.232971 0)
(2 1.06632e-13 0)
(1.83176 0.228709 0)
(2 3.37214e-10 0)
(1.8926 0.153679 0)
(1.82942 0.230472 0)
(1.83212 0.228976 0)
(2 1.30871e-09 0)
(2 -7.74633e-14 0)