/*--------------------------------*- C++ -*----------------------------------*\
  =========                 |
  \\      /  F ield         | OpenFOAM: The Open Source CFD Toolbox
   \\    /   O peration     | Website:  https://openfoam.org
    \\  /    A nd           | Version:  12
     \\/     M anipulation  |
\*---------------------------------------------------------------------------*/
FoamFile
{
    format      ascii;
    class       volScalarField;
    location    "19.9";
    object      rho;
}
// * * * * * * * * * * * * * * * * * * * * * * * * * * * * * * * * * * * * * //

dimensions      [1 -3 0 0 0 0 0];

internalField   nonuniform List<scalar> 
9801
(
1.06999
1.09113
1.11038
1.11688
1.11898
1.11869
1.1133
1.1142
1.11771
1.12199
1.12797
1.13519
1.14293
1.15264
1.16291
1.16958
1.17464
1.17831
1.18172
1.18617
1.19124
1.19541
1.1987
1.20173
1.20467
1.20847
1.21795
1.2305
1.24028
1.24685
1.25179
1.25702
1.26193
1.26462
1.26604
1.26851
1.27211
1.27692
1.29006
1.30961
1.32113
1.32748
1.33166
1.33173
1.33214
1.33404
1.33698
1.34085
1.34579
1.35394
1.37543
1.39736
1.40828
1.41442
1.41669
1.41182
1.41027
1.41264
1.41722
1.42322
1.43076
1.4468
1.47873
1.50056
1.51053
1.51774
1.51863
1.50736
1.50161
1.50434
1.51151
1.5215
1.53908
1.57969
1.61508
1.63338
1.64509
1.65067
1.63937
1.62025
1.61504
1.62393
1.64008
1.67348
1.73955
1.7858
1.81145
1.83238
1.84823
1.83542
1.80284
1.79237
1.81718
1.86887
1.98281
2.11772
2.23123
3.59707
12.7134
1.07467
1.08275
1.10194
1.11998
1.12749
1.13072
1.13146
1.12783
1.12579
1.12796
1.13188
1.13582
1.14017
1.14632
1.16141
1.17928
1.18671
1.19024
1.19352
1.19526
1.19355
1.19449
1.19721
1.20063
1.20461
1.20944
1.22165
1.24149
1.25177
1.25684
1.26136
1.26494
1.26256
1.26064
1.26316
1.26747
1.27237
1.27772
1.29178
1.31532
1.32797
1.33421
1.33935
1.34025
1.33276
1.33098
1.33455
1.33987
1.34583
1.35381
1.37565
1.39936
1.41132
1.41843
1.42381
1.41981
1.41037
1.41011
1.41526
1.42219
1.43033
1.44687
1.47894
1.50085
1.51199
1.51954
1.52384
1.51061
1.49896
1.5017
1.51001
1.52035
1.53829
1.57825
1.61128
1.62871
1.64071
1.65164
1.64496
1.61905
1.61269
1.62347
1.63868
1.66712
1.72152
1.76826
1.79788
1.82245
1.84473
1.83984
1.80589
1.79184
1.81113
1.85389
1.9279
2.02961
2.10652
3.41832
12.7407
1.07764
1.08216
1.09334
1.11063
1.1216
1.12738
1.13128
1.13301
1.13181
1.13228
1.13304
1.13306
1.1348
1.1388
1.15288
1.17423
1.18567
1.19136
1.19593
1.1995
1.19778
1.19352
1.19195
1.19337
1.19698
1.20235
1.21661
1.23982
1.25298
1.25957
1.26483
1.26877
1.26398
1.25674
1.25639
1.2597
1.26463
1.27055
1.28586
1.31148
1.32613
1.33338
1.33911
1.34148
1.33324
1.3278
1.32915
1.33336
1.33894
1.34617
1.36677
1.3927
1.40653
1.41458
1.42103
1.42108
1.41049
1.40563
1.4083
1.41432
1.42198
1.43655
1.46785
1.49161
1.50378
1.51241
1.51898
1.50945
1.49379
1.49235
1.49929
1.50912
1.52394
1.5593
1.59536
1.61636
1.63062
1.6425
1.64089
1.61339
1.60046
1.60832
1.6236
1.64349
1.68827
1.74558
1.78274
1.8068
1.82805
1.82864
1.79893
1.78077
1.78877
1.82196
1.87761
1.96134
2.01162
3.32176
12.5579
1.07769
1.07885
1.08178
1.09633
1.11564
1.12647
1.1324
1.13679
1.13835
1.13431
1.12771
1.12633
1.12849
1.13213
1.14319
1.1681
1.18492
1.19212
1.19705
1.20063
1.19688
1.18527
1.18171
1.18448
1.18954
1.19674
1.21316
1.23896
1.25366
1.26013
1.26501
1.26658
1.25684
1.24619
1.24576
1.24989
1.25605
1.26404
1.2808
1.30683
1.32257
1.33016
1.33572
1.33766
1.32744
1.31708
1.31688
1.32126
1.32754
1.33583
1.35605
1.38434
1.40038
1.40878
1.41525
1.41767
1.40431
1.39273
1.39339
1.39925
1.40707
1.42049
1.45185
1.47957
1.49334
1.50212
1.50954
1.50485
1.48388
1.47609
1.48136
1.4909
1.50337
1.53408
1.57408
1.59725
1.61091
1.62207
1.6276
1.60742
1.5843
1.58413
1.59825
1.61562
1.64658
1.70045
1.74294
1.76934
1.79152
1.80424
1.78564
1.76184
1.75597
1.77539
1.81293
1.87569
1.91292
3.27735
12.3993
1.07246
1.07417
1.07852
1.09354
1.11
1.12086
1.12763
1.1324
1.13509
1.12747
1.11973
1.12036
1.12361
1.12825
1.1401
1.16289
1.17844
1.18568
1.19005
1.19239
1.18749
1.17709
1.17566
1.17919
1.184
1.19113
1.20747
1.23108
1.24475
1.25071
1.25399
1.25413
1.2466
1.23866
1.23943
1.24394
1.24939
1.257
1.27291
1.29586
1.31031
1.31747
1.32203
1.32457
1.31846
1.3082
1.30766
1.3123
1.31819
1.32554
1.34339
1.37065
1.387
1.39523
1.40106
1.40446
1.39442
1.37986
1.37916
1.38514
1.39273
1.40388
1.43191
1.46156
1.47661
1.48557
1.49304
1.49495
1.47704
1.46119
1.46244
1.47149
1.48243
1.50468
1.54528
1.57447
1.58997
1.60184
1.61234
1.6055
1.57724
1.56379
1.57108
1.58741
1.60962
1.65318
1.70372
1.73862
1.76354
1.78508
1.78418
1.76075
1.74486
1.74391
1.76283
1.80924
1.84181
3.24221
12.3108
1.06685
1.07084
1.08037
1.09529
1.10519
1.1127
1.11901
1.12385
1.12363
1.11635
1.11421
1.11668
1.12036
1.12544
1.13917
1.15745
1.16858
1.17485
1.17888
1.18078
1.17683
1.17224
1.17323
1.17677
1.18105
1.18639
1.20016
1.2194
1.23092
1.23686
1.24038
1.2429
1.24065
1.23507
1.23571
1.23962
1.24424
1.24932
1.26115
1.28125
1.29512
1.30295
1.30844
1.31309
1.31241
1.30283
1.30012
1.30381
1.30908
1.31514
1.32906
1.35476
1.37213
1.38118
1.38756
1.39278
1.38907
1.37335
1.36764
1.3724
1.37984
1.38948
1.41292
1.44418
1.4618
1.47152
1.47949
1.48583
1.47711
1.45626
1.4496
1.456
1.46615
1.48102
1.51566
1.55428
1.57578
1.58873
1.59998
1.60352
1.58122
1.55918
1.55562
1.56686
1.58362
1.61192
1.65992
1.7034
1.7344
1.76012
1.77855
1.77109
1.75036
1.73736
1.73828
1.75989
1.78656
3.22405
12.282
1.06231
1.07191
1.08543
1.09652
1.1028
1.10736
1.11137
1.1122
1.10799
1.10763
1.11059
1.11465
1.1189
1.12566
1.13993
1.15216
1.15917
1.16378
1.16722
1.17
1.16928
1.16824
1.17059
1.17442
1.17867
1.18322
1.19368
1.20842
1.21766
1.22396
1.22979
1.23496
1.23774
1.23363
1.23244
1.23518
1.23885
1.243
1.25031
1.26803
1.28295
1.29204
1.29937
1.30549
1.30961
1.30297
1.29541
1.2964
1.30064
1.30611
1.31639
1.34038
1.36002
1.37034
1.37766
1.38425
1.38744
1.37474
1.3634
1.36464
1.37083
1.37841
1.39445
1.42628
1.44994
1.46172
1.47011
1.478
1.47934
1.46018
1.44624
1.44735
1.4557
1.46614
1.48715
1.5293
1.56275
1.58057
1.59309
1.60383
1.59834
1.57131
1.55562
1.55553
1.56721
1.58507
1.61976
1.66718
1.70663
1.73676
1.76257
1.77488
1.76618
1.74689
1.72854
1.72878
1.73222
3.1975
12.2968
1.05436
1.07207
1.09031
1.09928
1.10264
1.10544
1.10604
1.10239
1.09988
1.10172
1.10612
1.1113
1.11665
1.12498
1.13896
1.14871
1.15358
1.1572
1.1611
1.16526
1.16747
1.16613
1.16794
1.17144
1.17504
1.17865
1.18555
1.19956
1.21021
1.21844
1.22576
1.23133
1.23602
1.23515
1.23033
1.23001
1.23179
1.23516
1.24061
1.2574
1.27696
1.28827
1.29584
1.3021
1.30767
1.30642
1.29498
1.29067
1.29285
1.29779
1.30536
1.32683
1.35196
1.36553
1.37374
1.38062
1.38671
1.38231
1.3666
1.36141
1.36424
1.37025
1.3792
1.40477
1.43831
1.45662
1.46665
1.47499
1.48231
1.47346
1.45197
1.44413
1.44713
1.45577
1.46773
1.49842
1.54369
1.57299
1.58966
1.60278
1.61179
1.59684
1.56662
1.55455
1.55861
1.57186
1.59198
1.63023
1.67426
1.70932
1.73748
1.76167
1.76796
1.76021
1.73972
1.71855
1.68658
3.15988
12.3271
1.05032
1.06723
1.08883
1.09795
1.10175
1.10347
1.10354
1.10295
1.10119
1.10174
1.10498
1.10932
1.11374
1.11906
1.13127
1.14447
1.15168
1.15691
1.16231
1.16674
1.16979
1.16816
1.16724
1.16821
1.16962
1.17208
1.17663
1.19147
1.20984
1.22085
1.22752
1.23281
1.23767
1.23878
1.23046
1.22369
1.2238
1.22777
1.23394
1.25044
1.27528
1.28984
1.29733
1.30301
1.30844
1.30975
1.29668
1.28623
1.28614
1.29096
1.29798
1.31514
1.34538
1.36515
1.37508
1.38197
1.38815
1.38985
1.37418
1.36079
1.35871
1.36321
1.37046
1.38564
1.42192
1.45242
1.46734
1.47684
1.48504
1.48637
1.46519
1.44531
1.4415
1.44709
1.45712
1.47398
1.51515
1.55962
1.58532
1.60039
1.61275
1.61608
1.59429
1.56776
1.55943
1.56507
1.57878
1.6015
1.64171
1.68166
1.71198
1.73585
1.75509
1.75727
1.74845
1.72337
1.66921
3.10943
12.3764
1.05208
1.0624
1.07999
1.09293
1.09872
1.10178
1.10536
1.1079
1.10591
1.10519
1.10736
1.10991
1.11159
1.1137
1.11908
1.13567
1.15205
1.16125
1.16644
1.1707
1.17467
1.17432
1.16876
1.16421
1.1635
1.16639
1.17127
1.18491
1.20975
1.22466
1.23152
1.23618
1.24089
1.24273
1.23021
1.21863
1.21836
1.22258
1.22887
1.24474
1.2733
1.29189
1.30016
1.30565
1.31
1.31094
1.29939
1.28571
1.28417
1.28844
1.29479
1.30668
1.33621
1.36434
1.37714
1.38401
1.38987
1.3933
1.38296
1.36285
1.35675
1.3597
1.36688
1.37651
1.40308
1.44396
1.46783
1.47893
1.487
1.49343
1.48412
1.45593
1.44253
1.44417
1.45252
1.46303
1.4839
1.52985
1.57008
1.59224
1.60667
1.61866
1.62009
1.59718
1.57259
1.56575
1.57231
1.58624
1.61091
1.65052
1.68596
1.71195
1.73231
1.74412
1.74486
1.72978
1.68024
3.05852
12.4306
1.0569
1.06078
1.06561
1.08081
1.09516
1.10408
1.10953
1.1138
1.11603
1.11337
1.11108
1.10942
1.10823
1.10984
1.11345
1.12517
1.14947
1.16433
1.17112
1.17571
1.17969
1.1814
1.17155
1.16112
1.16009
1.1634
1.16833
1.18054
1.20781
1.22715
1.23488
1.23998
1.2436
1.24248
1.2312
1.22022
1.2198
1.22395
1.22925
1.24036
1.26831
1.29212
1.30196
1.30691
1.30977
1.31106
1.30473
1.29062
1.28618
1.28985
1.29619
1.3035
1.3232
1.35679
1.37589
1.38386
1.38878
1.39267
1.39161
1.37403
1.36029
1.36043
1.36722
1.37503
1.38745
1.42343
1.4597
1.47625
1.48497
1.49243
1.49728
1.48223
1.45671
1.44783
1.44961
1.45732
1.46818
1.49407
1.54189
1.57895
1.59999
1.61444
1.62497
1.62265
1.60158
1.57938
1.57231
1.57812
1.5912
1.6176
1.65743
1.68988
1.71199
1.72669
1.73318
1.72992
1.6976
3.02681
12.4787
1.05762
1.05709
1.05962
1.06924
1.09058
1.10626
1.11357
1.11819
1.12235
1.12412
1.11681
1.10787
1.10616
1.10874
1.11285
1.122
1.14612
1.16598
1.17395
1.1788
1.18285
1.1844
1.17569
1.1629
1.16193
1.16546
1.16993
1.1789
1.20406
1.22685
1.23595
1.24025
1.242
1.2423
1.23679
1.22652
1.22464
1.22864
1.23417
1.23999
1.25717
1.28422
1.29824
1.30422
1.30855
1.31318
1.31403
1.30343
1.29495
1.29601
1.29962
1.30423
1.3116
1.33699
1.36677
1.3806
1.3879
1.3946
1.40048
1.39434
1.3747
1.36707
1.36796
1.37241
1.3793
1.39587
1.43692
1.46909
1.4843
1.49415
1.50288
1.50612
1.48394
1.45838
1.45117
1.45492
1.4635
1.47448
1.50191
1.54885
1.58345
1.60371
1.61871
1.62931
1.62812
1.60755
1.58407
1.57549
1.58045
1.59336
1.6226
1.6631
1.69261
1.71018
1.71905
1.72167
1.71006
3.01794
12.5154
1.05953
1.05794
1.06086
1.06889
1.08943
1.10766
1.11605
1.1209
1.12503
1.1282
1.12279
1.10968
1.10791
1.11079
1.11486
1.12327
1.14511
1.16592
1.17503
1.17962
1.18194
1.18226
1.1776
1.16845
1.16646
1.16978
1.17444
1.18104
1.19781
1.22053
1.23209
1.23704
1.24064
1.24466
1.24574
1.23842
1.23326
1.23454
1.23737
1.24087
1.24647
1.26713
1.29143
1.30362
1.31088
1.31662
1.32204
1.32012
1.3067
1.29974
1.29909
1.30093
1.30535
1.31644
1.34943
1.37742
1.39063
1.39925
1.40598
1.4104
1.39624
1.37487
1.36738
1.36808
1.37361
1.38193
1.40605
1.45159
1.48178
1.49526
1.50384
1.51164
1.51235
1.4883
1.46445
1.45778
1.45989
1.46687
1.47846
1.50926
1.55609
1.58964
1.60962
1.62442
1.63263
1.62991
1.61018
1.58577
1.57646
1.58068
1.59389
1.62654
1.66677
1.69156
1.70342
1.70752
1.71452
3.03407
12.5466
1.06095
1.06175
1.06468
1.07186
1.09219
1.10936
1.11774
1.12278
1.12635
1.12682
1.1203
1.11296
1.11231
1.11534
1.11941
1.12679
1.14518
1.16421
1.17331
1.17741
1.17994
1.18244
1.18221
1.17664
1.17447
1.1767
1.18016
1.18394
1.18988
1.20882
1.22686
1.2362
1.24272
1.24793
1.25279
1.25206
1.24281
1.2379
1.23702
1.23814
1.24181
1.25162
1.28005
1.30341
1.31465
1.3218
1.32747
1.33177
1.32206
1.30413
1.29685
1.29686
1.30133
1.30817
1.32917
1.36926
1.39371
1.40367
1.41092
1.41753
1.41586
1.39072
1.37078
1.36763
1.3716
1.37879
1.38776
1.41629
1.46295
1.49009
1.50297
1.51284
1.52159
1.51949
1.49112
1.46624
1.45986
1.46432
1.47314
1.48597
1.51789
1.5625
1.59322
1.61174
1.62581
1.63356
1.6309
1.61081
1.58588
1.57607
1.57931
1.59224
1.6267
1.66441
1.68482
1.69168
1.70871
3.07499
12.5799
1.06263
1.0662
1.0696
1.07894
1.0981
1.11218
1.1187
1.12242
1.12396
1.1237
1.12098
1.1173
1.11822
1.12169
1.12598
1.13041
1.14214
1.15943
1.16952
1.17533
1.18071
1.18535
1.18873
1.18626
1.18191
1.18101
1.18156
1.18277
1.18605
1.19635
1.22045
1.23754
1.24646
1.25248
1.25759
1.26153
1.25484
1.24119
1.23501
1.23545
1.23953
1.24596
1.26648
1.29992
1.31794
1.32579
1.3317
1.33656
1.33457
1.31374
1.29821
1.29683
1.30085
1.30694
1.31698
1.34933
1.38787
1.40481
1.4126
1.41715
1.42069
1.41452
1.38941
1.37439
1.37277
1.37577
1.38251
1.39314
1.42728
1.47464
1.50089
1.51272
1.52044
1.52617
1.52249
1.49667
1.47417
1.46826
1.47159
1.47953
1.49257
1.52575
1.56798
1.59589
1.61302
1.62639
1.63421
1.63224
1.61105
1.58401
1.57279
1.57496
1.58736
1.62314
1.65828
1.67386
1.69473
3.13165
12.6193
1.06386
1.06883
1.07412
1.08477
1.10173
1.11324
1.11809
1.12032
1.1223
1.12504
1.12431
1.12354
1.12543
1.12822
1.13003
1.13248
1.13652
1.1508
1.16772
1.17751
1.1839
1.18918
1.19383
1.1962
1.19022
1.1834
1.18012
1.18075
1.18414
1.19038
1.21174
1.23797
1.25049
1.25691
1.26157
1.26608
1.26501
1.24756
1.23595
1.23604
1.24
1.24527
1.25654
1.28873
1.31687
1.32775
1.33316
1.3368
1.33902
1.33028
1.30932
1.30157
1.30452
1.31028
1.31604
1.32746
1.36337
1.39581
1.40927
1.41679
1.42307
1.42871
1.41998
1.39378
1.37926
1.37829
1.3826
1.38859
1.39755
1.43086
1.47791
1.50293
1.5151
1.52509
1.53382
1.5314
1.50491
1.48104
1.47349
1.47652
1.48447
1.498
1.53251
1.57271
1.59869
1.61576
1.6291
1.63663
1.63323
1.60898
1.57948
1.56641
1.56763
1.58022
1.61795
1.64823
1.67528
3.19581
12.6639
1.06772
1.07432
1.07915
1.08462
1.09747
1.11003
1.11674
1.12142
1.12614
1.12984
1.13284
1.13188
1.13077
1.13041
1.13004
1.13026
1.13279
1.14115
1.16395
1.18119
1.18956
1.19467
1.19914
1.20316
1.19972
1.18608
1.17898
1.17937
1.18302
1.18832
1.20333
1.23426
1.25335
1.2607
1.26546
1.26869
1.26895
1.2572
1.24135
1.2387
1.24262
1.24809
1.25389
1.27054
1.30478
1.32471
1.33222
1.33723
1.34232
1.34584
1.33265
1.31346
1.30846
1.31008
1.31368
1.31908
1.33276
1.37171
1.40285
1.41686
1.42515
1.43256
1.43889
1.42874
1.40071
1.38551
1.38232
1.38361
1.38933
1.39993
1.43614
1.48514
1.51256
1.5251
1.53403
1.54032
1.53639
1.51251
1.48796
1.47831
1.48004
1.48742
1.50249
1.54013
1.57966
1.6041
1.61938
1.631
1.63701
1.63188
1.60568
1.57338
1.55833
1.55815
1.57251
1.60966
1.64682
3.25701
12.7072
1.07337
1.07836
1.08015
1.08164
1.08605
1.10095
1.11686
1.12668
1.13263
1.13708
1.1409
1.14165
1.13612
1.13006
1.12655
1.12715
1.13048
1.13614
1.15607
1.18269
1.19467
1.20038
1.20429
1.20732
1.20575
1.19083
1.1803
1.18079
1.18454
1.18906
1.19717
1.22316
1.25089
1.26175
1.26664
1.26997
1.27258
1.26954
1.25459
1.24554
1.24613
1.24925
1.25352
1.25914
1.28055
1.3142
1.33187
1.34017
1.3462
1.35163
1.35295
1.33532
1.3167
1.31099
1.31141
1.31439
1.31993
1.33725
1.38015
1.41229
1.42754
1.43679
1.44429
1.44879
1.43314
1.40124
1.38517
1.38434
1.3894
1.39641
1.40638
1.4407
1.48898
1.51592
1.52904
1.53887
1.54624
1.54317
1.51839
1.49147
1.48096
1.48286
1.49086
1.50805
1.54752
1.58505
1.607
1.62108
1.63183
1.63654
1.62957
1.60196
1.56714
1.54918
1.54785
1.56218
1.60755
3.29663
12.7424
1.07934
1.07857
1.07689
1.07719
1.08007
1.09008
1.11453
1.13188
1.13994
1.14413
1.14781
1.15057
1.14474
1.1306
1.12468
1.12608
1.12987
1.13466
1.14886
1.17928
1.19781
1.20473
1.20905
1.21186
1.21114
1.19945
1.18585
1.18426
1.18799
1.19303
1.19825
1.20943
1.23806
1.259
1.26706
1.27165
1.27575
1.27924
1.27286
1.25713
1.25005
1.25003
1.25219
1.25574
1.26251
1.29008
1.32494
1.34133
1.34892
1.35487
1.36051
1.36021
1.33838
1.31785
1.31134
1.31163
1.31605
1.3228
1.34592
1.39325
1.42461
1.43739
1.44385
1.44836
1.45227
1.43855
1.40892
1.3942
1.39219
1.39451
1.40026
1.41117
1.44767
1.49519
1.52155
1.53433
1.54353
1.54885
1.5454
1.52292
1.4965
1.48525
1.48592
1.49277
1.51088
1.5518
1.58841
1.60926
1.62218
1.63139
1.63507
1.62718
1.59842
1.56141
1.5394
1.53199
1.55806
3.30285
12.7772
1.08705
1.07721
1.07301
1.07418
1.07739
1.08366
1.10644
1.1335
1.14441
1.14972
1.15323
1.15523
1.15025
1.13445
1.12678
1.12833
1.13206
1.13728
1.14608
1.16895
1.19425
1.20402
1.20782
1.20972
1.21215
1.21175
1.20036
1.19269
1.19352
1.19648
1.19957
1.20346
1.21621
1.24632
1.26547
1.27391
1.27953
1.28476
1.28836
1.27838
1.26069
1.25303
1.2516
1.2531
1.25751
1.26767
1.30276
1.33699
1.35167
1.35949
1.36559
1.37057
1.36464
1.33608
1.31632
1.31376
1.31836
1.32511
1.33179
1.35321
1.39898
1.42809
1.44028
1.4488
1.45623
1.4607
1.44576
1.41419
1.39702
1.39533
1.40064
1.40838
1.41891
1.45274
1.49725
1.52222
1.53505
1.54471
1.55183
1.55096
1.52859
1.50007
1.48678
1.4864
1.49273
1.51107
1.55294
1.58959
1.61023
1.62282
1.63077
1.63275
1.62366
1.59393
1.55539
1.52458
1.51142
3.27118
12.8156
1.09616
1.07935
1.07334
1.07549
1.07897
1.08387
1.0994
1.12971
1.14624
1.15228
1.15564
1.15651
1.15454
1.14511
1.13508
1.13483
1.13862
1.14338
1.14743
1.15508
1.17877
1.19823
1.2061
1.21085
1.21559
1.22013
1.21963
1.20681
1.19922
1.19818
1.19843
1.19999
1.20442
1.2236
1.2571
1.27576
1.28501
1.29104
1.29589
1.29716
1.27964
1.25847
1.25137
1.25253
1.25666
1.26218
1.27763
1.31863
1.34978
1.36125
1.36636
1.36921
1.37363
1.3678
1.34119
1.32526
1.3232
1.32483
1.32865
1.33507
1.35788
1.40528
1.43635
1.44892
1.45539
1.46079
1.46564
1.45405
1.42506
1.4084
1.40519
1.40634
1.41095
1.42145
1.45679
1.50128
1.52641
1.53934
1.54873
1.55535
1.55526
1.53368
1.50274
1.48728
1.48567
1.49124
1.50979
1.55273
1.59047
1.6111
1.62225
1.62807
1.6283
1.61823
1.58838
1.54068
1.49416
3.19888
12.859
1.10237
1.08711
1.07811
1.07964
1.08321
1.08824
1.09706
1.11853
1.14016
1.14844
1.15197
1.15493
1.15906
1.15987
1.15088
1.14452
1.14486
1.1465
1.14745
1.14965
1.15837
1.18465
1.20489
1.21477
1.22126
1.22647
1.23072
1.22633
1.20999
1.19958
1.19578
1.19693
1.20073
1.20827
1.23803
1.27377
1.28885
1.2955
1.30091
1.30507
1.30035
1.27488
1.25705
1.25534
1.25964
1.26585
1.27141
1.28678
1.32654
1.35367
1.36446
1.37172
1.3779
1.38308
1.37525
1.34801
1.33027
1.32668
1.32947
1.33403
1.33949
1.35893
1.40513
1.43683
1.45076
1.46116
1.46952
1.47483
1.46424
1.43379
1.41199
1.40586
1.40873
1.41517
1.42654
1.46221
1.50511
1.52922
1.54296
1.55381
1.56092
1.56005
1.53582
1.50325
1.48697
1.48472
1.48937
1.50719
1.5507
1.58918
1.60949
1.61949
1.62376
1.62228
1.61201
1.57487
1.51104
3.11145
12.9128
1.10355
1.09897
1.08984
1.08895
1.09135
1.0946
1.09796
1.10469
1.12589
1.14394
1.15233
1.15817
1.16309
1.16763
1.16853
1.15865
1.15011
1.14629
1.14505
1.14694
1.15108
1.16667
1.19872
1.21847
1.22745
1.23258
1.23665
1.23828
1.2237
1.20201
1.1954
1.19745
1.20161
1.20676
1.22034
1.25909
1.28752
1.2972
1.30155
1.30268
1.30437
1.29962
1.2787
1.2659
1.26505
1.26708
1.27014
1.27505
1.29113
1.33207
1.36163
1.37364
1.37965
1.38517
1.39122
1.38582
1.35827
1.33875
1.33314
1.33175
1.33428
1.34042
1.36148
1.41101
1.44751
1.46223
1.46979
1.47614
1.48031
1.47026
1.4403
1.41754
1.4111
1.41278
1.41822
1.43001
1.46875
1.51312
1.5366
1.54775
1.55584
1.56197
1.562
1.53968
1.50548
1.4863
1.48243
1.48594
1.5026
1.54758
1.58776
1.60748
1.61545
1.61748
1.61599
1.6001
1.55595
3.05046
12.9727
1.10641
1.10962
1.10272
1.098
1.09713
1.09716
1.0977
1.10061
1.11031
1.13543
1.15384
1.16279
1.16834
1.17278
1.17665
1.17408
1.15806
1.14639
1.14401
1.14641
1.15046
1.15773
1.18557
1.21822
1.2312
1.23701
1.24136
1.24389
1.23779
1.2139
1.20021
1.20076
1.20541
1.21236
1.22037
1.23635
1.26913
1.28975
1.29754
1.30227
1.30674
1.31157
1.30767
1.28608
1.27179
1.26907
1.27054
1.27262
1.27687
1.29275
1.33472
1.36552
1.37948
1.38945
1.39649
1.40158
1.39367
1.36224
1.33862
1.3328
1.33556
1.34136
1.34829
1.36716
1.41451
1.45004
1.46483
1.47308
1.47996
1.48451
1.47591
1.44737
1.42326
1.41473
1.41638
1.42257
1.43581
1.47401
1.51489
1.53617
1.54822
1.55839
1.56577
1.56602
1.54239
1.5063
1.48504
1.47955
1.48213
1.49849
1.54375
1.58439
1.60313
1.60904
1.61069
1.60538
1.59593
3.03875
13.0319
1.10972
1.11569
1.11501
1.10682
1.10051
1.09785
1.09836
1.10104
1.10557
1.12242
1.15152
1.16662
1.17318
1.17705
1.18027
1.18114
1.16752
1.14922
1.1455
1.14816
1.15206
1.15788
1.17294
1.2077
1.22997
1.23724
1.2399
1.2401
1.24105
1.23485
1.21805
1.21132
1.2133
1.2173
1.22058
1.22398
1.23604
1.26859
1.29185
1.30268
1.31039
1.31764
1.32317
1.31883
1.29518
1.27791
1.27186
1.27038
1.27365
1.27918
1.29762
1.34402
1.37805
1.39082
1.39675
1.40026
1.40421
1.39894
1.37039
1.34802
1.34252
1.34341
1.34645
1.35218
1.37041
1.41744
1.45388
1.46925
1.47718
1.48351
1.48814
1.48445
1.45862
1.43147
1.42068
1.42032
1.4242
1.43522
1.47386
1.51869
1.54293
1.55351
1.56057
1.56662
1.56866
1.5487
1.51013
1.48468
1.47706
1.47775
1.49178
1.53769
1.57902
1.59652
1.60216
1.59854
1.61597
3.07296
13.0843
1.11338
1.11994
1.12257
1.11731
1.10479
1.09924
1.0997
1.10259
1.10635
1.11445
1.14239
1.16777
1.17699
1.18154
1.18462
1.18561
1.17803
1.15905
1.15118
1.15324
1.15798
1.16394
1.17003
1.18631
1.21531
1.23115
1.23711
1.24111
1.24505
1.24959
1.24591
1.22988
1.22136
1.21948
1.21767
1.21655
1.22019
1.23568
1.27262
1.30023
1.31496
1.32474
1.33045
1.33483
1.32554
1.29401
1.27479
1.27239
1.27602
1.28211
1.28794
1.30385
1.34728
1.37952
1.39232
1.39996
1.40661
1.41179
1.40713
1.38017
1.35556
1.34636
1.34686
1.35153
1.35806
1.37428
1.41776
1.45418
1.47147
1.48197
1.49018
1.49527
1.49187
1.46659
1.43661
1.42189
1.42005
1.42453
1.43562
1.47329
1.51763
1.5411
1.55383
1.56489
1.57202
1.57352
1.55263
1.51086
1.48087
1.47075
1.47127
1.48451
1.53112
1.57179
1.5892
1.58923
1.61862
3.13791
13.1332
1.1169
1.12364
1.12656
1.1267
1.11257
1.10199
1.10186
1.10485
1.10861
1.11387
1.12959
1.16003
1.17566
1.18071
1.18285
1.18498
1.18688
1.17831
1.16433
1.16121
1.16375
1.16702
1.16955
1.17301
1.18775
1.21722
1.23561
1.24504
1.25259
1.25838
1.26236
1.25615
1.23641
1.22152
1.21388
1.21283
1.21629
1.22156
1.24315
1.28904
1.3171
1.32693
1.33216
1.33475
1.33558
1.32573
1.2991
1.28401
1.282
1.28341
1.28625
1.29122
1.30676
1.35049
1.38589
1.40011
1.40623
1.41004
1.41559
1.41605
1.39358
1.36664
1.35515
1.35348
1.3554
1.36042
1.37531
1.41852
1.45792
1.47619
1.48498
1.49148
1.49769
1.49948
1.47648
1.44207
1.42458
1.42103
1.42367
1.43251
1.47032
1.5214
1.54976
1.56054
1.5671
1.57233
1.57372
1.55463
1.5112
1.47714
1.46478
1.46456
1.47773
1.5244
1.5639
1.57561
1.61064
3.21534
13.1796
1.12033
1.12818
1.13068
1.1324
1.12315
1.10835
1.10587
1.10881
1.11268
1.11631
1.12108
1.14049
1.16755
1.17953
1.18445
1.188
1.19186
1.19472
1.18556
1.17212
1.16769
1.16712
1.16688
1.16825
1.17264
1.19079
1.22485
1.24718
1.25841
1.26545
1.27006
1.27238
1.25918
1.23129
1.21656
1.21532
1.21882
1.22466
1.23311
1.25777
1.29939
1.32097
1.32906
1.33407
1.33864
1.34259
1.33454
1.30835
1.2899
1.28532
1.28775
1.29251
1.2971
1.30796
1.34694
1.38349
1.39984
1.40999
1.41832
1.4244
1.42548
1.40547
1.37557
1.35884
1.35508
1.35762
1.36211
1.37546
1.41771
1.45721
1.47655
1.48959
1.49921
1.50472
1.50432
1.48014
1.4437
1.42414
1.42062
1.42452
1.43462
1.47065
1.52001
1.54681
1.5583
1.56611
1.57236
1.57403
1.55553
1.51148
1.47384
1.45911
1.45809
1.47179
1.51843
1.54888
1.59143
3.2936
13.2191
1.12129
1.13206
1.1342
1.13625
1.13521
1.12221
1.11279
1.11277
1.11494
1.11701
1.11991
1.12513
1.14703
1.17408
1.18676
1.19299
1.19759
1.20178
1.2036
1.19236
1.17676
1.16869
1.16558
1.16636
1.16984
1.17564
1.19901
1.23846
1.25952
1.26755
1.27197
1.27493
1.2759
1.2595
1.23359
1.22445
1.22565
1.22986
1.2343
1.23961
1.26055
1.29981
1.32308
1.33293
1.33852
1.3434
1.34907
1.34649
1.32205
1.30116
1.29462
1.29255
1.2922
1.29601
1.30678
1.34659
1.39027
1.41025
1.41831
1.42375
1.42945
1.43325
1.41724
1.38316
1.36189
1.35633
1.35837
1.36327
1.37736
1.42511
1.46938
1.48775
1.49562
1.50013
1.50481
1.50705
1.48739
1.45097
1.43016
1.42521
1.42622
1.43193
1.46421
1.51662
1.54745
1.55988
1.56644
1.57155
1.57358
1.55807
1.51355
1.47115
1.45361
1.45109
1.46558
1.50478
1.55899
3.36214
13.2509
1.1175
1.13461
1.13819
1.14093
1.14335
1.13953
1.12497
1.11687
1.11634
1.1181
1.11995
1.12272
1.12891
1.15414
1.18298
1.19638
1.2031
1.20736
1.21119
1.21167
1.19546
1.17505
1.16728
1.16797
1.1712
1.17499
1.18121
1.20956
1.24879
1.26573
1.27249
1.27811
1.28256
1.28298
1.26432
1.2412
1.23291
1.23274
1.23429
1.23657
1.24092
1.25888
1.29834
1.32538
1.33828
1.34774
1.35475
1.35987
1.35743
1.33229
1.30498
1.29339
1.29295
1.29656
1.3017
1.3111
1.34726
1.39139
1.41255
1.42302
1.43083
1.43643
1.43753
1.42146
1.38747
1.36561
1.36137
1.36532
1.37303
1.38684
1.42858
1.46777
1.48493
1.4946
1.50344
1.5103
1.5132
1.49457
1.45687
1.43128
1.42295
1.42426
1.43091
1.46057
1.5118
1.5441
1.55823
1.56653
1.57196
1.57327
1.55869
1.51487
1.46885
1.44629
1.44271
1.45226
1.51476
3.40659
13.2792
1.10553
1.13398
1.14068
1.14444
1.14733
1.15021
1.14571
1.13027
1.12159
1.11978
1.12001
1.12225
1.12573
1.13384
1.164
1.19398
1.20636
1.21216
1.21616
1.21964
1.21703
1.19463
1.17472
1.17062
1.17262
1.17607
1.18045
1.18955
1.22147
1.25801
1.27374
1.28006
1.28327
1.2858
1.28771
1.27244
1.25083
1.24015
1.2366
1.23666
1.23929
1.24396
1.25951
1.30155
1.33548
1.34947
1.35589
1.36038
1.36488
1.36504
1.34248
1.31263
1.30042
1.29925
1.3013
1.30558
1.31476
1.35216
1.39924
1.42059
1.42821
1.43019
1.43438
1.43946
1.43137
1.40116
1.37944
1.37307
1.37172
1.37316
1.38316
1.4233
1.46885
1.4919
1.50111
1.50711
1.51324
1.51861
1.5053
1.46553
1.43516
1.42496
1.42416
1.42798
1.45368
1.50637
1.54248
1.55834
1.56582
1.56976
1.56994
1.55667
1.51563
1.46777
1.44073
1.42381
1.46084
3.40469
13.307
1.08875
1.12211
1.14
1.14749
1.15179
1.15534
1.15843
1.15211
1.13305
1.12228
1.12127
1.12342
1.12648
1.13013
1.14063
1.17563
1.204
1.2144
1.21985
1.22414
1.2273
1.2205
1.19406
1.17724
1.17599
1.17979
1.18666
1.19201
1.19866
1.22459
1.25745
1.27297
1.28008
1.28555
1.29093
1.29513
1.28596
1.26314
1.24699
1.24093
1.24068
1.24304
1.24706
1.26105
1.30389
1.33918
1.35343
1.36087
1.36683
1.3713
1.37069
1.35072
1.32069
1.30605
1.30491
1.30982
1.31645
1.32305
1.35123
1.39346
1.41447
1.42477
1.43559
1.44322
1.44832
1.44275
1.4129
1.38321
1.36989
1.36849
1.37219
1.38155
1.41938
1.46702
1.49104
1.50351
1.51454
1.52146
1.52487
1.50982
1.46806
1.43469
1.42221
1.42163
1.42603
1.44905
1.50053
1.53829
1.55497
1.56286
1.56661
1.56565
1.55248
1.51468
1.46756
1.42639
1.41759
3.35413
13.3419
1.08174
1.09768
1.12981
1.14856
1.15575
1.15993
1.16337
1.16565
1.15519
1.13346
1.12451
1.12481
1.12758
1.13125
1.13608
1.15068
1.1871
1.21161
1.2199
1.22352
1.22457
1.22733
1.22413
1.20385
1.19063
1.18971
1.19189
1.19227
1.1931
1.19716
1.21892
1.25486
1.27643
1.28813
1.29821
1.30542
1.30965
1.30021
1.27061
1.24811
1.24112
1.24204
1.24589
1.25109
1.26612
1.30969
1.34652
1.36063
1.36571
1.36711
1.37174
1.3763
1.36517
1.33687
1.32079
1.317
1.3148
1.31477
1.32022
1.34711
1.39497
1.4243
1.43634
1.44316
1.44893
1.45442
1.4519
1.42183
1.38794
1.37335
1.37061
1.37324
1.38167
1.41704
1.47061
1.50122
1.51207
1.5175
1.52128
1.52469
1.51435
1.47556
1.43936
1.42437
1.42167
1.42416
1.44305
1.49376
1.5349
1.55321
1.55992
1.56185
1.55964
1.54699
1.51365
1.45711
1.41134
3.26017
13.3886
1.08169
1.08716
1.10626
1.1405
1.157
1.16352
1.16768
1.1711
1.17257
1.15676
1.13421
1.12822
1.13062
1.13531
1.13992
1.14381
1.15667
1.19035
1.21245
1.22074
1.2262
1.23202
1.23668
1.23585
1.21819
1.20125
1.19367
1.19052
1.18822
1.18906
1.19364
1.21599
1.26092
1.29164
1.30432
1.31109
1.31605
1.31743
1.30364
1.27083
1.24947
1.24554
1.24909
1.25693
1.26303
1.27187
1.30531
1.34074
1.35636
1.36584
1.37547
1.38178
1.38601
1.37807
1.34953
1.32499
1.31495
1.31455
1.31806
1.32407
1.34771
1.39577
1.42691
1.44055
1.44918
1.45562
1.46029
1.45796
1.42854
1.39213
1.37458
1.37245
1.37571
1.38275
1.41526
1.46771
1.49693
1.50867
1.51755
1.52476
1.52858
1.5194
1.4821
1.44356
1.42454
1.41983
1.42094
1.43667
1.48625
1.52924
1.54858
1.55514
1.55638
1.55315
1.54281
1.50418
1.44396
3.15798
13.4504
1.0831
1.08762
1.09381
1.11799
1.14992
1.16326
1.16834
1.17169
1.17453
1.17615
1.16162
1.14257
1.13835
1.1401
1.14165
1.14344
1.14691
1.15766
1.19005
1.21659
1.22938
1.23692
1.24337
1.24814
1.24779
1.22893
1.20421
1.19013
1.18596
1.18801
1.19201
1.19946
1.22858
1.27862
1.30339
1.31124
1.31242
1.30953
1.31032
1.30608
1.28446
1.26633
1.26194
1.26231
1.26094
1.26244
1.26922
1.29973
1.34305
1.36681
1.37653
1.38233
1.38776
1.3931
1.38974
1.36082
1.33149
1.32017
1.31821
1.32013
1.32531
1.34805
1.40093
1.43728
1.45091
1.45667
1.46063
1.46359
1.46202
1.43643
1.40034
1.3815
1.37735
1.38011
1.38596
1.40954
1.46083
1.49849
1.5141
1.52033
1.5249
1.5296
1.52639
1.49232
1.44748
1.4229
1.41607
1.41598
1.42814
1.47813
1.52514
1.5455
1.55085
1.54997
1.54719
1.53155
1.50139
3.09657
13.5163
1.08654
1.0906
1.09406
1.10058
1.12632
1.15609
1.16852
1.17387
1.17785
1.18164
1.18312
1.16883
1.14972
1.143
1.1432
1.1446
1.14533
1.14811
1.15795
1.19167
1.2239
1.2397
1.24891
1.25448
1.2584
1.2554
1.22855
1.1992
1.19029
1.1923
1.19959
1.20942
1.21772
1.23799
1.27427
1.29472
1.30195
1.30704
1.31453
1.32052
1.32156
1.30383
1.27907
1.26504
1.26136
1.26258
1.26589
1.27135
1.29694
1.34206
1.36871
1.38116
1.38982
1.39578
1.39998
1.39567
1.36544
1.33344
1.32093
1.32104
1.32642
1.33422
1.35296
1.39965
1.43438
1.44779
1.45375
1.45824
1.46491
1.4695
1.45286
1.41613
1.39169
1.38258
1.38079
1.38302
1.39985
1.45018
1.4917
1.51057
1.52291
1.53115
1.53454
1.52939
1.49462
1.44722
1.41966
1.4108
1.41065
1.42297
1.47332
1.52166
1.5411
1.54417
1.54377
1.53504
1.54362
3.09649
13.5751
1.09167
1.09314
1.09552
1.09922
1.10664
1.13289
1.162
1.17504
1.18093
1.18493
1.18864
1.19067
1.17802
1.15758
1.14816
1.14495
1.14465
1.14769
1.1519
1.16377
1.20258
1.23747
1.25017
1.25482
1.2545
1.25443
1.25274
1.23406
1.21324
1.20761
1.21005
1.21343
1.21373
1.21552
1.22843
1.2642
1.29546
1.31159
1.32024
1.32777
1.33308
1.3346
1.3178
1.28741
1.26954
1.26446
1.26397
1.26707
1.27299
1.29838
1.34844
1.37885
1.38953
1.39345
1.39384
1.39662
1.39714
1.37742
1.34892
1.3354
1.3325
1.33163
1.33306
1.34451
1.38489
1.4245
1.44424
1.45893
1.47156
1.47871
1.48189
1.46557
1.42367
1.39021
1.37697
1.37595
1.37878
1.39326
1.44729
1.49996
1.52096
1.52723
1.53022
1.53088
1.5278
1.49936
1.45094
1.41957
1.40873
1.40692
1.41796
1.46851
1.51616
1.53359
1.53715
1.52907
1.56356
3.14277
13.6257
1.09775
1.0958
1.09893
1.10225
1.10541
1.11138
1.13678
1.16725
1.18123
1.18813
1.19348
1.19787
1.19965
1.18422
1.15823
1.1472
1.14742
1.15099
1.15666
1.16202
1.17306
1.20786
1.23734
1.24773
1.25241
1.25736
1.26175
1.26311
1.24992
1.22852
1.21602
1.21101
1.20888
1.20824
1.21164
1.22355
1.2631
1.30348
1.32256
1.33088
1.33634
1.34094
1.34149
1.32496
1.29129
1.27047
1.26641