/*--------------------------------*- C++ -*----------------------------------*\
  =========                 |
  \\      /  F ield         | OpenFOAM: The Open Source CFD Toolbox
   \\    /   O peration     | Website:  https://openfoam.org
    \\  /    A nd           | Version:  12
     \\/     M anipulation  |
\*---------------------------------------------------------------------------*/
FoamFile
{
    format      ascii;
    class       volScalarField;
    location    "7";
    object      p;
}
// * * * * * * * * * * * * * * * * * * * * * * * * * * * * * * * * * * * * * //

dimensions      [1 -1 -2 0 0 0 0];

internalField   nonuniform List<scalar> 
45568
(
2.36406
1.21474
2.61567
1.56166
0.839203
1.2035
1.66499
1
0.630807
1.69576
2.33771
2.45116
1.85392
1
0.645813
0.328424
1
1
0.991884
1.66757
1
2.6162
1.64306
1
1
1.20536
1
1
0.325845
1.70334
0.906976
1
0.977134
1.59775
1.55773
1.70678
0.844499
1
1.67851
1
1
0.325788
1
2.46556
1
3.50208
0.32546
2.94901
1.55628
1
2.45668
2.05652
1
1.65236
2.28286
2.60722
2.58081
2.17623
1.79914
0.951971
1
1.80302
1
1
2.15876
1.94882
1
1.00018
1.64832
3.05244
0.714372
0.513772
2.44896
1.70221
2.60142
1
1
1.26379
0.955412
1
1.88268
1.47575
0.501123
2.42068
1.92737
1.00003
2.28441
1.23975
1.66543
0.623101
1.60129
1
1.85397
2.98769
1
1
3.03444
1.85074
1.0085
1.70727
0.776729
1.95091
3.04137
1
1
1
1
2.61439
1
2.96112
1
0.663672
1.56669
1
2.98792
1
1
3.02877
2.25304
1.70659
1
1.77352
2.60493
2.60564
1
1.77831
2.55619
2.08659
2.72889
1
2.38656
2.70242
2.62753
1
0.328002
1
1
1
1.94201
1.963
1
1.5386
1.6895
1
0.333188
1
1
1
1
1
1.33187
1
0.390349
1.01885
0.377475
1
1
0.999739
0.316756
2.16353
0.311323
1
2.19238
0.327862
3.00094
0.646627
1.69843
1
2.1644
1
0.327344
1
1.28211
1
2.27694
0.318871
0.315325
2.07913
2.29952
2.49322
2.24765
1.66501
0.328329
0.327276
1.26175
1.67638
1
1.12992
1.63496
0.331493
0.332803
1.6721
1.63049
1.25545
1.81146
0.773847
0.329784
1.5655
2.87104
0.33027
1.94893
1.52553
2.61436
3.93146
3.54491
2.05522
1.66669
1.52962
0.923248
2.38892
0.989327
1
2.04395
1
2.61589
0.327527
0.327334
1
1.67835
2.61826
1.86648
1.53932
1.85301
1.33999
2.28616
1.90391
0.325902
0.325211
1
1.60927
0.631746
1.67376
0.416415
2.34845
1.62078
2.40371
0.653311
1.20365
1
2.22657
0.295963
1.21666
2.28032
1.00003
1.22221
1.1268
2.61497
1.2348
1.15643
1.12956
1
1.11412
1.16333
2.60701
0.325738
1.06991
0.325411
0.324364
0.324416
1.11373
1
1.08816
1.32979
1
2.42376
1.09209
1.28397
1.49601
2.15956
0.32538
1.22808
0.325538
1
2.27987
3.96626
1.78894
1
1.41676
1
1
1
4.31299
1
3.2158
2.63396
1.67655
1.12554
1.8354
1.69265
1.13156
1.84838
2.62342
2.39978
1.68959
1
1
2.36333
1.72094
1.60796
1.55984
1.27556
1.81424
1
2.61729
1.67049
0.905929
1.09142
2.58127
1
1.57146
2.60552
1
1.91885
0.648961
0.645007
1.90174
1.82142
1.19986
0.435271
2.06153
2.61948
2.29563
2.61649
1
1
1.67381
1.61935
1.65666
1.69442
1
1
2.11625
0.410928
1.46983
1
2.71147
4.30495
1.65881
2.29259
2.57134
4.27515
2.0635
2.61239
1.3982
1
1
1
0.792165
1
1.00296
1.88978
1.75352
1
1.14406
1.65926
1.85282
0.649611
1
1.88203
1.88554
4.06003
0.61243
1.55454
0.95534
0.94237
1.90505
1
1.84919
0.933553
2.49065
2.4575
2.17538
2.40276
1
1.56152
1.3031
1
2.00814
1.83778
0.683393
1.81067
1.79294
1
2.48623
0.32484
1
1.61551
1.94409
1
1.26307
1.75835
1
1.98508
1
0.330621
1
2.61591
1
1
1.22619
1
1
1.89333
1
1
2.22362
1
1
1.67096
1
1
1
2.22482
1
0.643877
1.66238
1
1.80891
1.69565
2.67511
1.72505
1
1
1
0.634349
1
2.49758
2.41933
2.27773
1
3.00957
1
1.00001
1
1
1.93922
0.951454
1
1
2.07155
0.324258
2.10629
1
1.69536
1.24422
1.63098
1
1
2.7661
1.88067
1.11178
1.50094
0.99999
0.679948
1.26892
1
0.960454
2.56
1.70427
1.69957
1
1
1.82044
1
1
2.33971
1.92607
1.2101
0.348672
0.340877
0.977537
1.33517
1
3.43916
1
2.49945
2.08405
2.30786
2.54273
1.62708
2.02696
1.83502
1.01585
1.05232
1
2.03584
1.8451
1
1.86601
2.28381
1
1
1.81634
1
0.314517
1.38363
0.310087
1
1.74181
1.72543
1
1.57613
2.04352
1
1
1.66412
2.00769
2.21469
1.6256
1
1.69264
0.960846
1.80965
1
2.87835
1
1
0.32683
1
1
1
1
2.06722
1.50552
1.19965
1
1
0.678806
1.24663
1
1
2.6048
1.50041
2.6176
1.59883
1
1.3371
0.330699
1
1.26396
1
2.03499
1
1.60938
3.00524
1
1
0.65813
1.16281
1
1
1
0.332507
0.333331
1
4.09172
1
1
0.966846
1
1.94358
0.324291
0.957064
1.53454
1.54673
1
1
1.60948
1
1
1
0.710571
0.793695
1
1.59884
0.971414
0.592144
2.57704
1
0.340572
0.820755
1.71822
1.32653
1.14829
2.07209
1.62615
2.8454
1.09845
0.657843
1.56445
0.952862
1
3.13404
1.11094
1
2.49445
0.917874
1.71606
1.66598
2.27266
0.326422
1.19856
1
1
3.80933
0.325477
0.324627
2.44655
1.60284
2.34551
1
1.46099
1
0.624805
1.62359
1.81504
2.33408
1.82312
1.80337
1
1.60852
1
3.47896
2.03523
1.64576
2.63598
0.330172
1
1.27267
1.78572
1
1.88102
1.07619
1.61774
0.624789
2.61755
2.22027
1.7054
1
1.83334
4.28068
1.13044
1.58291
0.323377
1
3.7044
1
2.61824
1
1
1.97022
2.21979
2.40116
1
1.89243
1.10489
4.13577
1.84467
1.36543
1.70814
1.16409
0.972828
1.68303
1.67043
1.59774
4.14748
1.95571
1.77718
0.79663
0.935605
1
0.915988
0.716775
2.41529
1.37107
2.51148
0.668141
1
3.72871
1
1.60606
1.65751
1.84654
1.18111
4.37102
1.25496
1
1
2.78463
1.31894
0.326531
1.78541
2.32242
1
2.33617
0.32551
1.23945
2.05231
1.03909
1.11095
2.44842
1
1
1
1.60162
1
1.70434
1
1
1
1.00002
2.31662
1.43599
1.10112
1
1
0.863138
1.4309
4.39073
0.687497
1.82171
1.50656
1.20801
2.24788
2.21974
2.792
1.82985
0.898233
2.03977
1
1
1.74548
2.26956
1.68997
1.33722
1.0749
1.86357
1.52715
2.28785
1.88247
1.72633
1.19593
2.0502
1.74233
1.81599
1
1.54391
1.23916
2.28391
1.23021
3.52336
2.61209
1.814
1.87765
1
2.61708
1.83284
1
0.947725
1.87193
1
1.64878
1.1938
2.87605
1.11818
1
1
1.15051
1.10274
1.72362
1.0407
1.18605
1.52056
1.89886
2.60644
1.92332
0.741345
3.15776
0.835948
1.8459
1.18625
0.828747
1.22368
1.61067
1.67514
1.61468
1.76175
3.17208
2.736
1.77086
1.16789
3.3203
1.23237
0.982548
1.75976
2.23889
1.84857
1.74933
1.67214
1.21151
2.58629
2.57744
0.474661
2.04919
0.496176
2.44652
2.17253
1.49106
2.06534
1.55442
0.632134
1.20025
1.37018
1.88644
1
0.666946
1
1.15875
1.45876
1.82053
1
1.29191
1
3.99824
1.60391
2.59655
2.45868
2.66077
1.23277
1.18884
2.9631
1.4297
2.61615
3.00089
1
0.959866
1
2.64936
1
1
2.20999
1.34167
1.73477
2.15545
0.889357
1.59947
1.43601
1.54421
1.99178
2.16041
2.07361
1
1.85269
2.06168
1.15505
1.51492
1.02176
1
0.318109
1.68731
0.325878
2.66892
1.24202
1
1.12688
1.22908
2.1568
2.05257
1
1.1313
1.90532
1.06549
1.34483
1.87055
1.11552
1.55893
2.01065
1.96169
1.88788
1.82581
1.72149
1.94029
1.91396
1.10882
2.07662
1.15838
2.01478
2.03477
1
1
3.10466
1
1.86294
3.82736
2.44991
1.12051
0.311415
1.22493
1.60458
0.315407
1.47503
1.78875
1.3476
2.63284
4.03201
1.12954
1.84458
1.20202
1
2.75926
1.61853
1.79576
2.03429
1.56463
1.57449
1.77273
1
1.776
1.83924
1.80927
1.72056
0.936059
1.78122
0.821054
1
1.0075
1.79114
1.74078
0.707621
1.10786
0.321956
0.322607
0.82031
1.1201
1.94692
1.96182
1.0327
1.78068
1.73374
0.822076
2.43705
1
1.18075
2.78842
0.325192
1.22516
1.12752
1.8069
1
1
1.31214
1
1.7112
1.69126
1.16007
0.330998
0.330383
4.35338
2.62974
1
3.27072
1.90017
1.73999
1.00341
1.18885
1.07602
1
1.89503
0.980155
1.58989
0.946669
1
0.963424
0.979859
0.381278
0.949082
1.79545
1
1.28021
0.999997
1
1
0.992932
2.74005
1.22228
1
1
1.33478
1.03123
1.01315
1.8814
1.8747
1.6724
1.1123
1.11236
0.328843
1
1
1.88481
1.26577
0.331865
0.331854
1.12366
1.72662
1.81158
1.61623
1.00978
1
1
1.67626
1
0.329735
1.25317
1
2.02035
1.604
1
1.57916
1.37877
1.34134
1.56045
0.806264
1
3.73962
0.324997
1.95593
1.32113
2.01484
1
0.761197
1
1
2.02614
1.92276
3.27972
2.04776
1.77453
1
1.27852
1.31818
1.29207
1.56564
0.328928
0.320027
1.66357
1.06666
0.32883
1.85632
0.890125
1.80022
0.318012
1.10427
1.1462
1
1.72581
1.78693
1.23144
1.29398
1.71978
1.26438
1.25223
0.32651
2.10504
1.164
0.709206
1.8543
0.947959
1.21854
1.30805
1.81307
0.326757
1.58983
1.8877
1
1
1.56425
1.70998
2.8967
1
1.60467
1.21278
2.05198
2.31625
1.67984
3.13995
1
1.15352
0.865514
2.78963
1.70997
1
0.936417
1.88857
0.844452
1.66724
1.48701
1
3.04492
0.79898
3.03251
2.61278
1.02845
1.59701
2.30964
0.999678
1.55865
1
0.999985
1.65721
1.28066
0.951137
1.15497
2.20645
1.38925
1.14284
1.71653
2.15492
1.23865
1
1.58222
2.04042
1.56354
1.20651
1.20294
0.942556
1.15193
0.942308
1
2.11975
0.793746
2.04691
1
1.26633
0.32585
3.15239
2.0507
1.50457
1.81128
1.03413
1.60049
1.78267
1.02364
1.8519
1.18791
1.25673
1
1
1.90534
1.96386
1
2.38263
2.52969
0.997175
0.954709
1
1.8736
0.997251
0.946917
1.72433
1.37495
1
1.14321
1
2.60813
1
0.790181
1.23981
1.54175
1.905
1.23708
0.889505
1
0.785047
0.981873
0.324983
2.60436
1.38117
1.93173
3.53971
1.92255
1
1.96981
0.325908
1.97713
1.72725
1.39266
2.60769
2.2226
2.00624
2.01563
0.324907
1.27215
1
1.4783
1.3893
2.06019
1.47284
3.16659
2.05527
0.999915
1.20628
1.28468
2.08444
2.09183
1.38773
1
1.19127
2.19363
2.17645
0.943593
2.78973
1
2.74995
1
1
2.7044
1.58101
1.8529
1.21973
1.22022
1
1
1.67961
1.63426
1.22326
0.998519
1.86514
0.950338
0.972513
1.04635
0.599994
1.8157
1.07086
1.0222
1
0.847862
1.68708
2.07886
0.618228
0.325358
1.72251
1.99019
0.325222
1
1.13502
1.98868
0.947928
1.63439
1.84373
1
1.81443
1
1.64367
1.84931
1.27531
1.56546
1
0.883066
1.27124
0.925218
2.6116
1.0791
0.725616
1.72784
1.91874
2.61465
1
1.29306
1.29745
1.33817
1.3294
1.37049
1.3661
1.9298
1.85463
1
1.40121
1
1.3953
1.77631
1.56157
1.79533
1.5905
0.35048
2.04779
1.559
1.58769
1.44135
1.43425
2.61559
1.57746
1.26516
0.326824
0.374823
1.48776
1.47943
1.54043
1
1
1.50962
1.36637
1.11674
1.15551
1.51293
2.61739
1.53225
1
1
1.17473
1.21582
1
1
2.11415
1
1.59327
1.58387
1.63023
1.62435
1.26328
1.21107
1.88346
1.8882
1.32079
1.12595
1.70123
1.69327
2.61507
1.33047
1.12492
0.324868
1.28616
1.10567
1
0.766162
1.1277
0.330228
2.58969
0.433813
0.325489
1.39248
2.61408
1
0.883557
1
1.61712
1.14589
2.61181
1.56637
0.580565
2.33176
1.75207
1.20811
2.60857
2.90444
1.93319
1.27584
1.93021
0.318084
2.60724
1.59756
1.84588
3.97795
3.43455
1.786
2.6064
1.00054
1.55768
2.61296
1.14951
1.55554
2.60658
1.35412
2.70464
2.17523
2.60586
1.17472
1.34746
2.50751
1.12964
2.62318
1.57992
0.99994
2.62436
1.05917
1.77585
1
1.20355
1.43514
1.89502
3.46561
1.93125
1.15119
2.07687
1.56002
1
3.52667
0.995408
3.02152
2.60731
2.6129
2.55009
4.26637
2.04423
2.84149
2.61177
1.30107
1.93082
1.25585
2.36369
1.68834
1.53851
1.54313
2.19147
1
1
1.18762
1.90908
1.90904
2.18701
1.56011
2.26349
1.02473
3.43323
2.25324
1.93013
1.81586
1
4.29221
2.02162
4.28081
4.30288
1.43689
3.3992
4.34501
4.38059
1.05941
1.27083
4.36998
1
1
1.00004
2.86477
1
1
1
2.89695
1
1.33685
0.95172
1.84501
2.07605
1.84444
0.5844
1.67579
0.324558
2.90397
1.9499
0.882822
0.866042
0.857426
1.4862
2.36935
0.747856
1.54602
1.68978
1
2.02453
0.664452
1.63851
1.3357
1
1
1.57046
1.33289
2.94113
1.8726
3.01896
2.47045
1.92211
1
2.90862
2.46765
1
1
3.0113
1.35876
0.818641
0.814726
1.24722
2.74835
1.1192
1.11782
1.66155
1
1
1.58371
1.6031
0.69486
1.19532
1
1.20371
1.89564
1.25003
3.064
1.25851
1.3354
2.22525
1.16063
1.77271
1.39
2.77667
1.61273
1
2.02915
2.62094
0.999999
1
1.64885
2.61454
0.325598
2.4782
1.81477
1.81694
1.67641
1.31942
1.20852
1.66081
1.64494
1.97889
1.13563
1
1.70653
1.09598
2.60661
2.60189
1.99789
4.37079
4.08358
1.77108
1
2.6117
1.49586
1
1.23266
0.328436
1.332
1.91955
2.53331
1.93055
1.94354
2.22393
2.52624
2.03434
0.851826
2.60985
1.50882
1.01463
1.00869
1.27695
1
2.79546
1.26192
2.39182
1.65052
4.19712
0.32832
4.09992
1.90287
4.16874
1.96103
1.67692
2.51995
4.23917
0.884579
0.999992
1.84855
2.21813
3.62524
1.84813
1.57531
1.85748
1.33356
1.07747
1
1.53259
1.32448
2.17361
4.31464
1
4.36498
0.882576
2.0144
1.55412
1.60825
1.68124
1.29528
1
1
1.86193
1.8446
0.757713
1.49116
1.65993
1.46703
1.68826
3.1138
1.67679
1
1
1.68393
1.98149
1.74869
1.23684
0.955053
2.74095
1
1.19727
1.98516
2.69336
2.68365
1.16092
1.39154
3.49492
1
1
0.734776
1.73697
1.20799
1
1.32447
0.956946
1
1
4.4756
0.711329
1.31783
1.71055
2.69232
1
1
4.33049
1
1
1.87965
1
1.54171
1.2179
1
2.62232
1.91335
1
1
1
1.86648
2.09378
1.54695
1.87795
1
1.70155
1.87912
1.85677
2.6549
0.999964
1
0.872716
2.0601
1.18238
1.49289
3.38655
1.03627
1.90827
1.49929
2.1279
0.99932
1.79364
1
1.74579
2.04996
0.612095
2.04776
1.99902
2.60263
2.29491
1.7498
3.00051
1.84985
1
0.987266
2.07327
2.2503
2.0964
0.87656
1.27376
2.63998
2.10633
0.324842
1
1.8966
1.31782
2.19148
1.08205
1
1.68404
2.60704
1.85886
1
1.15095
1.16684
1
2.20015
1.00004
0.323987
2.19902
1.9043
1.94846
1.90426
2.31634
1
1.29707
1.84596
1.29157
1.93714
1.8483
3.12462
1.66643
0.810151
1.77512
2.61042
1.21101
0.997623
1.30335
0.877435
2.60884
1
0.475572
1.15874
0.790765
1
2.28168
2.5479
1.47674
1.78751
1.51665
1.00082
1.31105
2.61035
2.34726
2.61924
0.946644
1.33637
1.65423
2.62318
1.57742
1.25782
2.29713
2.23435
1.97206
0.896327
2.6207
1.85521
3.01334
2.61747
1
1
2.62173
2.40884
1.87723
2.37398
2.40181
1
1.71434
1
1.34838
1
1.56633
1
1.71538
1.26749
3.19919
2.18402
1
1
4.43374
1
0.887017
1.48215
4.30294
3.76785
1.9958
1
0.970954
2.61873
0.980948
1
1.23058
1
1.86194
1
0.964334
2.60292
2.61219
1.66452
1.29433
0.999999
1.90841
1.90354
1
1
1.14666
1.92402
0.999968
0.716847
2.61091
0.978914
1.80109
1.78166
2.70495
3.75371
0.861716
1
0.736364
1.36545
1
1.02355
2.62303
2.58018
0.803247
1.14254
1.53367
2.61984
1.82402
1.34448
1.0437
1.56556
2.66056
2.33705
0.999998
1.45051
2.60647
1
1.19981
1.8103
1.25009
1.30262
1.78306
2.38101
2.98062
3.3155
2.13585
0.959405
1.8012
2.33836
1.32372
1.12082
3.01124
3.38004
1
1
2.05154
1.48866
1
1.65484
2.18712
1.09655
1.75648
1
1.76752
1
1
1
1.52881
1.48693
1
1.11111
1.64966
1.59538
0.636531
2.42611
1.60472
2.74129
0.99997
2.45918
1.57295
1
1.05946
1
1.76908
1.59492
0.846696
2.73946
1.53252
1.8692
1.75423
1.48881
1.39855
1.17206
1.49483
1.46963
1.58444
1.47864
1.42335
2.62345
1.43521
1.84597
1.13778
1
2.0343
1.92282
1.92997
0.950538
2.60428
1.29013
1.38409
2.62819
2.05253
1.87013
2.04988
1
3.25105
1.00002
1.11885
1.86641
1.35722
1.3625
0.327331
1.90233
2.27068
2.60857
1.27544
1
1.16448
1.45069
2.60996
2.53105
1
2.16245
2.60671
2.1597
1.16148
4.0259
1.83834
1
2.61367
1.23655
1.87196
1.88006
1.3613
2.62392
1
2.62172
1
1.80947
0.904143
1
1.84645
1.32589
1
2.1148
1.75975
3.33447
2.94801
4.07901
0.999936
1.259
1.73286
0.999998
2.12596
1.91903
1.89756
1.74824
2.61724
3.28014
2.61061
1.81692
1.75003
1.00154
4.44685
1.46183
1.20517
1.67968
1.59147
3.66247
1.76965
0.657192
1.50386
1.5924
1.18622
1
4.42543
3.72566
0.860495
1.8949
1.00012
1
1.59686
2.49043
1.22802
2.2363
2.18604
0.848364
1
1.55442
1.88472
0.325146
4.26373
1.92063
1.0292
1.00128
1.57903
3.47785
2.34117
1.52708
0.815243
0.788307
1.53911
1.54034
3.87861
1
2.61224
2.77423
2.87674
1.26949
2.61322
2.50736
2.54055
1
1.52154
1
1
1
1.51415
1
1.16425
1.40355
0.764331
1.36095
0.696171
1.41915
2.53082
1.29293
1
2.52665
0.898314
1
0.923329
1.60585
1
1
1
2.05309
3.82395
1.20574
3.06986
1.19933
1.67142
4.43698
1
2.15883
1
3.05054
2.58888
1.24922
2.62689
1.67998
2.60689
1.94737
1.26293
1.84398
1
2.60925
1
2.10367
1
1
1
2.48739
2.60963
1
1
1.97686
1.32909
2.47625
2.486
1.66103
1.73295
2.48929
0.811856
1
1.85036
1
0.99781
2.61005
1.0056
2.20465
1.99119
1.96605
1.71948
1.97943
1.45334
0.325972
2.62053
2.61264
1.4347
1.73655
1
1.43093
2.62432
3.59868
3.00248
2.61752
0.926309
1
1.30795
4.11063
1.98597
1.96342
2.04044
1.45655
0.934157
1
1.33731
1
2.60254
1
1.75507
2.80322
1
2.61332
1.3398
1.17864
2.61161
1.75227
2.61563
1
0.88002
0.906111
1.64648
1.68317
1.80701
1.80189
2.60889
2.60653
1.4116
1.60678
1.18783
1.42372
2.02311
2.61521
1
1
1.45209
1
2.61553
1.61467
1.76698
1.51675
1
1
1.46395
1.8054
0.901673
1.22053
1.30797
1.498
1.6617
1.77907
2.61818
2.01735
1
1.5119
1.22707
2.45196
1.57973
3.2366
2.61797
0.855319
1.58186
1.59141
1.74397
1.80442
0.741697
2.60983
1.72211
1.77137
1.26887
2.61482
2.60604
1
2.60563
1.75703
0.772865
1.87455
1.90189
1.70246
1.7011
1.63033
1.27393
1.69165
2.65611
1.88051
2.61102
0.329216
2.58402
1.41101
1.59309
1.57816
1.15665
0.824721
1.85894
3.3459
2.13835
1
2.05497
1.84668
1.84702
1.59639
0.942965
1.31522
1.32816
2.62377
1.18782
1.89671
1.9033
0.807718
1.60129
2.61307
1
1.14359
0.795294
0.772947
1
2.04467
0.783871
1.94636
1.93824
2.05249
2.04602
2.06497
1.00047
1.98953
1.98275
2.62653
0.825462
1.61181
0.714255
2.61313
2.03329
2.02382
2.61459
1.90809
1.96609
1.71485
0.844905
2.61668
1.21016
2.21236
1.44889
2.62319
1
1
2.06201
2.06672
0.323594
2.60626
0.481637
0.753569
3.42029
1.57217
1.3832
1.85913
1.31147
1.74936
2.61706
1.16398
1.159
2.02636
0.992536
1.15952
1.60136
1.61015
1.21315
1.23358
2.17335
1.19996
1
0.999993
1
1
2.17069
1.13293
1.31218
1.95341
1
1.67873
1
2.60678
1
1.16433
1.14523
1.75207
1
2.61572
4.21942
0.962951
1.52446
1.20417
1.55133
1.52739
1.69471
0.771453
1.31586
1
1
0.688153
1.46823
1.7145
1
0.872945
2.08062
3.23087
1.39926
1.3185
1.64222
0.943882
1
2.0294
1.06036
0.874462
2.69965
2.092
1.69039
2.08804
1.36013
1.00037
1.32409
1.29279
1.77332
0.821962
1
1.26983
1
1
1.92822
0.811329
4.4049
1.32692
1
1.09667
1.40269
1.20854
1.52979
1
1
1
1.52656
4.38487
1.9239
0.933212
1
1.61151
1.3417
1.56602
1.98275
2.21308
1.41017
1.46612
1.38826
2.06577
0.909134
4.31713
1.87476
1.29084
1.90708
1.10599
1.64995
1.04594
2.12711
1.14009
2.61144
1.30885
1.70303
1.98911
0.921751
1
1.30564
2.61242
1
2.32259
1
1.50517
1.49932
1.61717
2.55479
1
2.56764
1.46943
1.56204
1
1.53377
1.43776
0.863366
0.64333
1.95272
4.54305
1
0.794328
0.948512
2.53244
0.831802
1.90779
1.42056
0.981984
1
1
2.79824
1.40442
1.41605
1.39958
1.64881
1.64404
2.5119
1
4.38884
1.40569
0.967369
0.597613
1.39623
1
2.42035
1.00001
1.60435
1.96711
1
1.72157
1.40226
2.60334
1
2.61783
1.7586
1.37767
1.36785
2.61641
0.999975
1.37146
2.6148
0.888818
1.35561
0.999996
1.50773
2.10331
0.887191
1.47552
1.88433
1.00005
1.75463
1
1
1
2.61386
1
1.78775
1.7749
1.13729
2.8331
2.94131
1.27049
2.33267
1.76137
1
2.01226
2.60611
2.6114
0.611588
1.79639
1.73528
4.32352
1.51075
2.61685
1.24056
1.04922
1.34144
2.6093
1.14505
0.999996
1.17649
2.61062
2.80744
1.15861
1.1006
1.18637
1.68764
1
2.46564
4.11879
1.88964
1.87856
1
1
1.73917
1
1.00039
1.86985
1.0819
0.996742
1
1.86108
1.22063
1.94779
1.00001
2.37686
1
1.39996
1.37888
1
1.41258
1.35447
2.34253
1.24519
1.00018
3.61205
2.4265
1.00001
1
1.43638
2.9752
1.28078
1
1.4225
1.44794
1.10851
4.37676
1.8203
1.24772
1.81715
1.31169
1.33404
2.84017
2.14318
1.76978
1.54965
1.24897
2.62494
1.96603
1.48218
1.80995
1.23193
1.81617
1.48826
0.594033
1.79358
3.09394
1.00068
2.62024
1.49547
2.65095
0.975106
1.50301
1
1.62745
1.34965
1.93657
1
1.83505
1.86519
0.994732
2.67567
1
1.33168
1.86637
2.32249
1.90724
2.66758
1
2.36172
1.24675
1
1.44892
0.841221
1.2277
4.30543
1.6754
1
1.80222
1.22302
1.57532
1.69228
1.00002
0.864469
0.831411
3.67737
1.62092
0.333359
2.19151
3.39272
2.1037
3.45114
2.05551
1
1.00003
1.6368
3.22564
2.00548
1.78925
0.874951
0.872617
1.66887
1.5843
2.61005
3.98937
1.81109
1.00123
1.2522
1.00076
2.60611
2.34549
1.25085
0.919634
1.52727
1.89884
1.92607
1.86694
1.89581
0.990693
2.88691
1.49386
4.31002
1.73887
2.59723
1.33755
2.02122
2.61841
1.45416
2.2645
1.33669
1.64032
2.34504
0.834128
2.41412
1.40498
1.02231
1.81101
2.61141
1.5378
1.40558
1.17112
1.7942
2.30743
0.817637
1.20821
1.23024
1.77855
1.22809
0.999778
1.39722
1.8052
0.899365
1.39936
0.694114
1.26458
1
1.22397
1
1.45883
1
0.878021
2.35992
0.855018
1
1.78948
1.55537
1.06607
1.53105
0.67809
1.26495
2.30319
0.865551
1.62004
1.49901
1.02444
1
1
2.78108
1.55736
4.2443
1.53133
1.59426
1
1.00001
0.863727
2.08537
1.18775
1.17898
2.49544
0.948856
2.45821
1.93198
1.12221
1.94131
2.60943
1.7557
1.84327
0.910678
2.10806
0.999998
2.13607
0.820564
1
1
1.46415
1.00005
1.74719
2.33595
1.97725
1
1.98497
1
1.00001
1
0.999993
2.04375
1
2.01646
0.798101
1.23059
2.03148
1.00001
1.69053
2.62294
1.17272
2.45099
0.822106
2.30577
2.61447
4.34227
0.905926
1
1.16952
1.6913
2.11166
0.956269
1
1
1.98704
1
3.60382
4.31781
2.62573
2.61557
1.46074
1
1
1.00001
1.81578
2.23322
3.20388
4.30676
1
2.38551
1.03173
1.90811
2.64109
2.07079
0.844906
0.999999
1.06956
1.40326
2.6097
0.795878
2.31155
1.15218
1.79569
1.16071
2.60664
1
0.913639
0.767639
2.61229
0.932208
1.47329
0.865392
1.76718
1
0.923359
0.902035
3.96266
1.80526
1
1
0.976684
1
2.07316
1
1
1.41118
1.01378
1.32553
2.60595
1.34196
3.89991
1.24146
1.8516
1
1.20718
1
1.00001
1.53952
4.26576
1
1.67456
0.970093
1.10956
4.40011
0.999668
1
1
0.32959
1.72365
2.32214
1
1.85578
1.11513
1.84004
1.28035
2.33038
1
2.61299
1.29886
1
1.4766
1.93043
1.62365
1
2.6132
1.28601
1
1.79244
1
1.84216
2.61297
1.8462
0.684623
1.93864
2.61435
0.780583
2.2761
1.89427
1.57011
1.00002
1.6075
1
1.69845
0.843433
1.96315
2.84749
2.4623
1.70088
1.11498
1
2.11299
0.791221
1
1.00005
1.00025
2.98363
0.96049
1
3.03443
1
1
2.88568
1.17365
2.73535
0.98473
1
2.67227
1
1.00011
0.778192
1.1733
4.35869
4.26184
1
1
1.00004
2.09562
1.09792
1.18451
2.05292
2.07339
1
1.48644
1
1
2.09691
1.27943
2.68127
1
2.39749
1
0.796853
1.00051
2.11509
1
2.60294
1.28551
1.26216
1
1
1
1.28044
1.07006
1
2.61266
1.02849
0.860721
0.846456
1.59688
1
1
0.998552
1.18634
1.18781
1
2.61124
1
1
1
2.30012
0.999997
1.41807
2.58659
1.41737
0.959303
1
2.85278
1.09268
1.77803
1.13781
0.917722
2.36695
2.847
1.15743
2.61529
3.28579
2.28101
1
3.39586
0.671393
2.18733
1.15427
1
2.61141
2.29847
1
1.54813
2.27278
1
1.75211
1.72229
1.74391
1.07815
1
0.997982
1
1
1.00015
1.4431
2.97802
1.7242
1.5427
1.44586
2.64391
0.885824
1.27301
2.94077
1
2.44488
1
2.22356
1.43907
2.23132
1
1
1
1
0.992645
2.4431
1
1.03047
1
1
1
4.34199
1.78566
4.27643
2.96564
2.94994
0.996568
4.20598
2.07719
1.13257
2.61708
2.4111
2.28379
1.20363
1.09408
1
2.04545
2.25667
3.0175
2.3324
1.90493
0.999945
3.0237
1.90913
2.13065
1.00018
4.15651
1.13664
2.4453
2.38885
2.61804
0.334092
2.82932
1
0.636808
1
1
1.78529
1.1993
1.31526
0.825358
1
3.01354
4.15379
1
1
2.00029
1.14976
2.34073
0.999623
1.11616
1.60079
2.61692
1
2.40285
1.89883
1
2.76487
0.984181
1
1.58438
0.64232
0.919517
1.30955
1.40425
2.62254
1
0.932364
2.62432
4.61861
1.15706
1
1.49911
2.60886
0.789825
1
2.62087
1.7853
1.22106
3.98467
0.994209
1
1.31533
1
2.61414
0.980433
0.957183
0.876638
2.08354
0.974585
0.996672
1
1
2.38906
1
2.61216
1.95446
0.777133
1.7282
1
0.854165
1
1.77886
1.90594
1.57949
1.24729
0.357722
2.61575
1.47095
1
1
1.35042
1.35231
1
1.55348
4.28397
1.69305
2.06524
1
1
1
0.911338
2.13057
1.51366
1.55366
1.34279
1.75616
1.58519
2.33509
1
1
1
1.72837
0.863228
0.896668
2.60902
0.898368
0.866658
2.314
1
1.38427
1.08382
1
1
1
4.34635
2.8707
2.23103
1.42765
2.35707
1.20483
1.73398
1.40039
4.21369
1
1
1
2.61857
1.23798
1
2.68197
1
2.1714
1.84388
2.61425
2.61672
2.58148
2.47452
1.00001
2.61987
2.60614
2.3866
1
2.04104
0.999999
1
2.83908
2.52434
1
1
1.24333
1.32791
2.34372
0.802822
2.573
1.58528
1
1
1
2.00903
1
1.73555
2.83446
3.03322
2.20374
2.15631
2.6121
1.80183
1.90279
1
1
1.4628
2.60719
1
1.38521
1.50264
1.85167
2.61832
1.9564
2.04024
0.888283
1.31445
2.07043
1.84205
4.38259
2.61926
1.6226
1.87425
2.60999
2.61604
1.29955
1.63573
1
1
2.61278
2.27994
1.30404
1.56905
2.64592
1.21739
2.19547
1.00003
1.3665
2.60475
2.61105
1
1.1936
1.19363
2.01523
1.29617
2.61171
4.2929
2.61589
4.34658
2.6131
1.92184
1.60386
1.54254
2.61578
1
1.20866
2.15759
2.51355
1.02788
1
2.61443
0.796412
0.33616
3.01395
1
0.793991
1.19992
2.61456
2.02914
1.37236
1.292
2.61005
1
1.7093
2.97657
0.762788
1.53159
1
1.55477
1.88185
1
2.60878
2.37337
3.51268
1.2229
1.21984
1.45838
0.999986
1.60774
1
2.11323
2.61311
1.76792
1.01277
1.10772
1.76866
1.65425
1.73212
1.77402
1
1.89044
1
1.43649
1.54252
0.948852
1.88954
1.10156
1
1.55837
1.19243
1.19062
1
1
0.791905
2.3164
2.56668
1
1
1.44426
1
1.45218
2.44967
0.991766
1
1.31236
1
2.25006
1.08977
2.61306
1.12775
1.45605
1
1.3928
1.76641
1.64881
1.4458
1
1.20719
2.6271
1
1.55352
1.45924
0.845212
1.42646
1.41298
1.64138
2.61763
1.48603
1.00001
1
1.00006
1.43123
1
1.76715
1.54385
1
1
1
0.999999
2.60374
1.09921
0.317245
2.56589
0.838411
3.6572
1.53905
0.764904
0.798623
1.21482
1.66065
1
1.48969
2.59999
1.65859
0.638521
2.61586
1.99433
1
2.23283
2.64264
2.58979
1
1.24236
1.2328
1.61963
1.46483
1.66
1.24627
2.73227
2.61307
1.15314
2.38085
2.57785
2.62415
1.54166
2.24135
1
1.61242
1.37165
1
1
1
0.723475
1
1
1.57659
1
1
2.61122
1.00002
1.48454
2.61138
1
1
0.996837
1
2.73691
2.61252
1.59221
0.794386
2.61471
2.69762
2.4887
1
1
1.7001
2.51749
1
0.842705
1.26171
1.57304
0.758244
0.801712
1.19433
2.47832
1.00405
1.12741
2.609
2.61572
0.794826
2.05178
2.61641
1
1
1.89441
1
1.49308
1
2.6158
1.178
1.17951
1
1
1.37193
2.57207
2.48316
2.61461
1.00061
2.53007
1.52442
1
1.49232
1
2.57417
1
0.936082
1.08591
1
1
1
2.24288
1.44547
1
1
1.20943
1.26671
2.36445
1.21582
1
1.27618
0.583572
0.833776
0.999998
1
2.61044
1.77961
1.39439
1
1.39306
1.77126
2.4845
2.61565
1.55518
2.59302
1
0.944112
1
4.20191
1.75536
2.61262
2.21871
2.60891
0.806634
1
1
0.746585
0.999997
1
2.61604
0.792149
0.764925
1.47478
1
1.00238
1
2.5432
2.87524
1
1
1.42577
1
1.40313
0.651511
1.47052
0.716082
2.96786
3.98167
1.09122
2.61187
1.16033
1
4.35823
1
1.84463
2.61163
0.746877
1
1
2.61039
1.39913
0.929543
1
0.333365
2.16781
1.78423
1.00565
2.59675
2.16641
1
1.55471
1.46675
0.802062
2.23474
1.58551
1
1
1.00406
1.20287
2.49192
2.61416
2.62621
1.88251
0.976096
1.67049
2.62071
1.58431
1.87222
1.48449
1
1.00117
1
0.99999
0.997344
0.658233
2.73069
1.13973
1
1.9463
1.41845
1.15318
1.09719
1.15067
1
1.41361
2.94455
1
1
1.17619
2.61539
2.9385
1
1
1
1
4.51944
2.71986
2.56661
2.98085
1.68266
1
0.999998
2.61461
2.67441
3.42698
1.16989
2.57638
1
2.74304
1
1
1.00027
1
1.09042
2.06537
1
1.521
1
2.62375
1.5131
2.53714
1.00224
1.00025
1
0.630088
1.09941
1
2.30411
2.60772
1
2.56628
1.74489
3.15194
1
2.50403
1
1.00013
1.56203
1.59476
0.983172
1.99809
1
0.883932
0.996358
2.6223
1.77344
1
2.62401
0.983434
1
0.330007
2.40257
0.84255
0.598083
2.29186
1
1.95726
1
1
1
2.6155
2.33521
1
1.00137
1.11141
2.90785
1.85892
1
0.645356
2.61367
1
0.903364
2.95033
2.16186
1
2.06749
3.48231
1
1
1
1
2.68736
1.10999
0.632683
0.999372
2.33106
1.77879
2.58754
3.04094
1
1
1
1.6153
1
2.10523
2.98569
2.00455
1.90529
0.328567
0.473538
1.35027
0.667711
0.32785
1
3.51226
3.21301
2.23057
1
1
2.76128
2.62342
1.00739
2.41001
2.22306
2.56693
1.88268
1.76494
1.86254
0.81024
1.38642
1
1
1
1.74505
0.986811
1
1.42432
0.970031
1.2374
2.23673
1
2.5014
0.797146
3.44155
1
1
0.467054
1.55077
0.742019
1
2.60981
2.05614
0.672781
2.61518
4.12863
2.19852
2.51818
2.61319
1
1
1
1
0.401712
1
1.4561
0.939893
0.323767
2.61174
0.652885
1.28799
2.20258
1.12227
1.42033
1
1.07246
1
0.943192
2.61357
2.58616
3.81333
0.670655
1
1
1
0.625532
2.89719
1
1
1
1
2.21462
1
1
0.323212
1
1
1
1
0.535704
1
3.1882
1.94274
1.06654
1
1
1
1.35399
2.42033
1
1
2.95183
4.25246
1
0.474371
0.354745
1
1
1
1.32375
3.07351
1.1841
0.926113
1
1
1
1.12811
0.815995
1.12781
2.61179
2.6126
1
1
2.77668
1
1.6462
2.61608
0.872349
2.59119
4.03821
1.64892
2.62101
3.36655
1
0.76091
0.43084
1
0.835342
1
1.95593
1.13539
1
0.644519
0.611393
1
1
1
0.90503
0.926806
2.61348
1
1
1
0.896189
1
1.11944
1
1
0.512809
1
1
1
2.28899
2.67291
1
0.429151
1.14399
0.340247
1
2.60462
1.75857
3.57009
0.983311
2.08512
1.16378
0.962456
0.641296
0.990575
0.329142
2.50016
3.21815
4.14027
0.350401
1.98833
1
1
1
2.37511
2.60483
1
1
0.747196
2.08263
1.03256
2.31251
1.13888
1.40259
2.34505
1
0.372289
2.5895
1.15422
2.20544
0.733159
3.98625
0.905503
2.59342
3.37594
1
2.61514
1
2.61208
2.15633
1.40983
1.92819
1.68056
1
2.61369
1
1
1
0.870146
1
2.61035
1
0.956758
1
1.30752
1
0.91424
1
2.51793
1
1
1
1.00016
3.39881
1
1.90836
2.61457
2.59433
1
1.88133
1
1
1.98732
2.61954
4.11758
0.349621
0.323835
1
1.72641
1
3.11589
0.622887
2.61238
0.358587
2.48155
1.4272
1.50314
2.61454
2.25124
1.00087
0.931638
1.4046
0.923175
0.537437
0.805053
1
1
3.26303
0.837205
1
2.36944
0.492024
1
1
1
1.80663
3.66976
2.61647
1.60997
1
2.61522
1.85915
0.992753
2.59989
0.977607
0.939356
0.992586
1.03639
1
4.4316
0.914407
1.36296
0.976844
1
1
1.00015
2.61521
1
2.61357
1.03176
0.777187
0.327331
1.42913
0.945046
0.328757
1.21712
1
1.06518
1.07034
3.30572
1.09487
1
2.61439
1.47166
2.77643
1.69512
0.966821
2.98011
2.59853
1
1
1.08656
1.30077
1.16387
4.19874
1
1
0.993477
0.327547
1.63986
1
2.61804
1.16623
2.61197
1
3.65329
1
1
0.58367
1
1
2.6151
1
1
1
1.37388
1
1.68777
2.06428
1.55294
2.17057
1.45729
2.45802
2.61294
2.62117
3.27618
0.941942
1.54211
1.43436
1.36583
1
1.42465
0.994968
2.60642
2.61648
1.64689
1.08297
1.5193
0.326283
0.843969
2.61837
1
0.329536
1.56989
0.906506
1
1
1
0.330571
1.57762
0.823802
1
1.84755
1.38269
2.44588
1
1.48076
1.95925
2.6162
1.1135
1.53408
1.78165
1.40496
1.53409
2.63245
2.15852
1.78847
0.32641
1.38817
1
1
2.60991
1
0.788029
1
1
2.61127
2.61254
1.6204
1
1
2.67773
0.915666
1.18395
1
0.963795
1.50424
1
0.965278
0.960019
0.814238
2.2395
2.88953
1
1
1
0.941763
2.6112
2.22227
1.75985
4.35863
3.05456
1.92882
1.03334
0.589687
1
2.34908
1.30746
1.3417
0.328579
3.60322
3.21532
1
1.11055
1.62482
0.530571
2.61397
0.59744
2.61198
1.104
0.365436
1
2.61564
0.610737
4.37049
2.69066
0.976599
1
3.74327
1.90365
1.23975
1
1
2.61144
0.945724
1.32364
2.61106
2.81494
3.14541
1.46999
1.29188
0.956026
2.04592
0.999484
1.33562
2.61036
1
1
1.65426
1.93306
4.30338
1
0.317767
1.25436
1.56641
1
2.62273
4.52051
1
1.74141
0.476241
3.14977
0.433611
4.27009
1
1
1
1
1
4.28443
1
1.68997
1
1.44067
0.320363
0.318491
2.53467
3.15127
0.329984
1.46924
1.2232
1.22582
1
3.59792
1.24398
0.97004
4.44819
1
2.61185
1.31768
0.326115
0.399157
1
1
0.961852
1.3063
4.35318
0.372996
1.29408
1.14941
1
4.28088
0.335182
1
2.6135
1.70859
1
0.999999
3.14755
1
2.5997
1
0.330065
1
1
1.32489
0.859069
1
0.991602
2.60728
1
1
1.01124
1
1
1.95281
2.34647
2.38163
1
1.58974
0.931991
2.61685
2.6183
1
2.63557
2.51113
1.11053
1
1
1.46737
3.04141
0.328223
0.987324
2.06206
1.10658
2.60983
0.977958
0.328657
0.739509
1
1
1.10517
2.05982
4.1129
1.07477
0.601071
3.75254
0.328791
0.32241
1
3.19827
0.339353
2.61457
1.91673
1.1294
1
1
1.47229
1
1.93371
0.806387
1
1
0.331199
0.953815
1
2.63253
1
1.10718
0.404001
1
1.29032
1
1
2.97813
2.62213
3.01515
2.87814
0.325196
2.61591
2.60857
1.24735
1.46708
2.61634
1
2.2825
1
1.06944
0.993826
1
0.987098
1.31013
0.323876
0.859511
2.61173
1.60836
0.548858
1
0.32865
2.58687
0.326533
1.27469
2.60961
0.883836
1.30779