/*--------------------------------*- C++ -*----------------------------------*\
  =========                 |
  \\      /  F ield         | OpenFOAM: The Open Source CFD Toolbox
   \\    /   O peration     | Website:  https://openfoam.org
    \\  /    A nd           | Version:  12
     \\/     M anipulation  |
\*---------------------------------------------------------------------------*/
FoamFile
{
    format      ascii;
    class       surfaceScalarField;
    location    "7";
    object      phi;
}
// * * * * * * * * * * * * * * * * * * * * * * * * * * * * * * * * * * * * * //

dimensions      [1 0 -1 0 0 0 0];

internalField   nonuniform List<scalar> 
33852
(
0.000251329
2.24281e-05
-0.000273757
-0.000246121
1.32441e-05
0.000232877
-0.000175043
-7.21512e-05
0.00024746
0.000304053
-0.000163969
-0.000140085
0.000292466
-4.28224e-05
-0.000249652
2.72441e-05
-0.000260681
0.000233437
0.000315112
1.47538e-05
-0.000329865
0.000304277
-9.59564e-05
-0.000208321
0.000286413
-3.50841e-05
0.000200365
1.80679e-06
-0.000202216
0.000289503
-0.000366535
7.70379e-05
0.000360845
-4.57256e-05
-4.39602e-05
0.000263285
-0.000219325
-4.39391e-05
0.000318095
-0.000274177
6.0812e-05
-0.000236158
0.000252057
1.2236e-05
-0.000264293
0.000264853
-1.2796e-05
-0.000278433
3.23121e-05
0.000340685
-5.11777e-05
0.000158593
0.000112308
-0.000270901
-2.43348e-05
0.000303238
-0.000278902
0.000271377
-0.000276165
4.78802e-06
-1.77289e-05
0.000275089
-0.000257402
-0.000223192
1.4619e-05
0.000208481
-0.000153805
-0.000183573
0.000337473
-0.000145858
-6.91744e-05
0.000215072
3.72401e-05
0.000267037
-6.12089e-05
-0.000263024
0.000324192
-0.000209478
1.75226e-06
0.000207763
-0.000204019
-1.90397e-05
0.000142045
0.000137388
-0.000279433
0.000341513
1.93398e-05
0.000142618
0.000128347
-0.000270965
-0.000101136
0.000259729
-0.000250489
-3.78001e-06
0.000254269
0.000330712
-5.95713e-05
-0.000271146
-0.000357198
0.000203527
-0.000227405
0.000209641
0.000231645
3.32081e-05
-5.65602e-06
0.000237301
-8.09508e-06
0.000208523
-0.000232625
0.000259869
0.000316248
-5.74922e-05
-0.000258677
-0.000309093
5.51042e-05
0.000253989
0.000240089
-0.000301307
0.000273589
-0.000306321
3.27321e-05
-0.000180237
-5.49362e-05
0.000235173
0.000272133
-0.000272133
0.000148429
-0.000297473
0.000149045
-0.000209862
0.000217039
-7.30809e-06
-0.000268241
0.000237301
3.09401e-05
-0.000199405
0.000246418
-4.71295e-05
-9.16164e-05
-0.000217477
-0.000114529
-0.000252018
-0.000280169
0.000266113
1.40561e-05
0.000329664
1.18674e-05
-0.000250433
7.01963e-05
0.000117908
0.000145909
-0.000263817
1.34681e-05
-0.000267457
0.000253989
-0.000134569
0.000282997
-0.00015275
-5.0903e-05
0.000203648
-0.000274681
0.000245113
2.95681e-05
0.000237553
-0.000268437
3.08841e-05
-0.000185997
-2.35839e-05
0.000151665
0.000115565
-0.00026723
-0.000189387
-2.83242e-05
0.00021776
0.000263985
2.24281e-05
0.000275941
-2.35201e-06
0.000265329
-0.000250741
-1.45881e-05
0.000227124
-6.44543e-05
-0.000162473
-1.82001e-06
0.000239373
0.000366828
-0.000312885
-5.39453e-05
-2.83564e-05
0.000303758
-0.000275259
-0.000101584
0.000219493
0.000342627
2.42336e-05
-0.000372013
0.000353814
1.82382e-05
-0.000211614
2.23826e-05
0.000309136
-0.000321478
1.22865e-05
-0.00020765
0.000271579
-6.41041e-05
-4.45202e-06
1.71114e-05
-0.000319293
0.000302152
0.000233726
-0.0001988
-3.52558e-05
0.000269351
-0.000339336
6.99856e-05
0.000332716
-6.3346e-05
-0.000268941
0.000236573
3.23681e-05
-0.000129388
-0.000132609
0.000261997
-1.86761e-05
-0.000249565
-1.022e-05
-0.000258721
2.3439e-05
0.000210509
-0.000234103
3.16153e-05
-0.000222851
0.000191342
-2.49806e-05
0.000327854
-0.000302891
-0.000279329
0.000273701
5.62802e-06
0.000156129
-0.000296857
0.000140729
-5.95403e-05
-0.0001505
0.000210059
0.000143277
0.0001218
-0.000265077
-0.000250057
0.000225732
-0.000212715
0.000153188
-0.000168813
0.000327181
-0.000158369
0.000185389
7.16523e-05
-0.000257041
0.000255193
2.07481e-05
-0.000192277
0.000148317
5.0456e-05
0.000265859
0.000307059
-0.000289961
9.17195e-05
-0.000237209
0.000135241
0.000117096
-0.000281065
-1.13961e-06
0.000244935
-0.00024408
0.000166489
0.000122836
-0.000289325
0.000143886
8.97243e-05
-3.92002e-06
0.000259113
0.000303644
5.41555e-06
-0.000324043
0.000315095
8.94951e-06
-3.99002e-05
0.000236293
-0.000196393
4.08802e-06
-0.000284257
-2.52382e-05
0.00016492
-0.00013963
-0.000158264
0.000132768
0.000209957
-0.000178283
-0.000269921
0.000264965
4.95602e-06
2.64041e-05
0.000174721
-0.000201125
2.87841e-05
-0.000257265
0.000228481
0.000276137
-0.000262669
0.000115108
0.000212073
0.000214504
-0.000191649
-0.000175813
0.000202217
1.3765e-05
0.000282632
-0.000296659
0.000269929
2.16331e-05
0.000271594
-0.000283922
1.23919e-05
3.86402e-06
0.000267513
-1.81104e-05
0.000289723
0.000330722
9.97467e-06
0.000213698
-0.000257573
0.000316525
-0.000316504
-6.63603e-06
-0.000272693
2.81867e-05
0.000199033
0.000187993
3.98722e-05
-0.000227865
-5.4709e-05
0.000218076
-0.0001634
0.000153609
-0.000270285
0.000116676
0.000279441
-0.000329701
5.02602e-05
-6.38122e-05
0.000249201
-0.000166909
0.000315897
-0.000148989
-0.000313998
-1.0035e-05
-0.000214929
0.000175029
2.78601e-05
-0.000278349
0.000276221
-1.88441e-05
-0.000248613
1.71589e-05
-0.000302551
0.000285441
0.000344989
-0.000158593
-0.000186397
-1.68673e-05
-0.000240725
0.000257541
-0.000266617
-3.30401e-06
0.000224001
2.45841e-05
-0.000248585
0.000284509
-0.000128381
0.000140197
0.000138853
-0.000279049
-0.000199106
-1.07581e-05
0.000258169
-0.000115551
0.000225613
-0.000242534
-6.38122e-05
0.000251805
-0.000207716
0.000249481
-5.60002e-07
-0.000248921
0.000255109
-0.000237441
-0.000324676
0.000299667
-3.08841e-05
0.000203169
-0.000172285
0.000291915
1.26973e-06
-0.000293213
7.68191e-05
0.000132187
-0.000209027
4.59938e-05
-0.000198687
-0.000289237
-4.59184e-06
0.000293818
-1.58355e-06
-0.000287671
0.000146973
-0.000273925
0.000126952
-0.000262584
0.000220304
-0.000294317
0.000266224
0.000279441
-0.00031275
-1.24385e-05
0.00032521
0.000110517
0.000160986
-2.13351e-05
0.000352069
0.000140141
0.000139833
-0.000279973
0.000245029
-0.000250349
5.32002e-06
-0.000210953
0.000180069
0.000279133
-5.43202e-06
0.000350716
-3.26666e-05
-0.000303538
0.000303879
-2.10227e-06
0.000270985
-0.000270985
-0.000364722
0.000225894
0.000138816
-0.000205706
1.95586e-05
1.69344e-05
0.000275157
-0.000278461
3.30401e-06
-5.06499e-06
0.000170959
-0.000165764
-0.000197345
0.000254801
-5.74562e-05
-0.000203932
4.52959e-06
-0.000240188
0.000159018
8.09693e-05
-0.000180264
0.000261401
-8.11358e-05
0.000256285
-0.000287113
3.08281e-05
-0.000249229
5.18842e-05
-2.36389e-05
0.000276033
-0.000252273
-0.000253547
1.35801e-06
0.000252189
0.000231281
-7.28003e-06
-0.000294216
7.5432e-06
0.00028668
-0.000266085
0.000266085
-0.000284297
-5.5098e-05
-0.000170747
-0.000193991
-0.000171648
0.000216814
-4.48767e-05
-1.232e-05
-0.000239177
0.000251497
3.10801e-06
0.000210113
-0.000213221
-0.000185608
-2.27824e-05
0.000208525
7.59614e-06
0.000294498
-0.000302101
-0.000236153
-1.34401e-05
0.000249593
1.50361e-05
-0.000251189
-0.000241025
0.000256061
-0.000301355
0.000308948
0.000256117
7.16803e-06
-0.000170417
-3.20254e-05
0.00020243
-0.000145237
-0.000134765
-0.000244329
0.000240549
0.000298634
-4.33895e-07
-0.000298221
-0.000298807
5.88952e-07
0.000298211
1.9238e-05
0.000181217
0.000163773
7.70044e-05
-0.000257269
-0.000159242
0.000310908
0.000250721
-0.000108677
-0.000235145
-1.83681e-05
0.000253513
-0.000204645
-0.000126838
0.000331519
-6.10402e-06
-0.000229125
0.000235229
-2.18794e-05
-0.000183923
-0.000286397
-8.55773e-05
6.33451e-06
-0.000300549
-0.000212617
0.00032794
-0.000115258
0.000281597
0.000288205
-5.16322e-05
0.000271993
-1.57081e-05
-0.000187051
-1.40764e-05
0.000201078
0.000297371
4.3959e-07
-0.000297763
-0.000270069
-3.27363e-05
-0.000218821
0.000247605
-2.52303e-05
0.000310596
-0.000285376
0.000179692
7.89041e-06
-0.000187542
-3.40832e-05
0.000213773
-0.000301264
0.000276033
0.000292109
5.75931e-06
-0.0002978
0.000157445
0.00011886
-0.000276305
0.000289601
4.91274e-06
-0.000294367
-0.00024579
0.00011782
0.000127982
-0.000281839
0.000295542
0.000302513
-0.000156857
-0.000145657
0.000207005
-0.000203897
-0.000232009
-0.000121156
-0.000155009
-4.08975e-06
-0.000294013
0.000298117
-1.0136e-05
0.000276249
0.000289044
-2.00247e-05
-0.000270223
-0.000262915
2.90083e-05
0.00023397
0.000271433
-0.000267569
0.000249621
2.95121e-05
0.000314884
-9.7609e-06
-0.000305132
4.95102e-05
0.000156085
-0.000205749
-0.000100229
0.000196555
-9.60908e-05
0.000252617
-2.91201e-05
-0.000223497
6.18033e-07
0.00029173
-0.000178239
-3.1636e-05
0.000209953
-1.78949e-06
0.000291407
-9.33244e-05
0.000246933
-0.000255417
-5.26402e-06
0.000121184
0.000181329
1.34121e-05
0.000241557
-0.000254969
0.000236097
1.34961e-05
-0.000249593
0.000249509
-0.000242929
0.000256425
6.32596e-05
-0.000202128
0.00013857
-0.00021555
0.000115737
-0.000204567
0.000297316
1.40425e-06
-0.000298714
0.000253849
2.22881e-05
0.000268493
-0.000216441
-5.20522e-05
0.000225518
-0.000246849
2.13305e-05
0.000257909
1.40841e-05
5.88521e-05
0.000295082
0.000267186
-3.89594e-05
-0.000228226
0.000173801
1.274e-05
0.000240297
-0.000253037
0.000194118
-0.000114228
-7.99783e-05
-0.000207256
2.1678e-05
-1.27289e-06
-0.000297782
0.00029909
0.00022047
-0.000167623
-5.27315e-05
0.000344554
-4.13148e-05
0.000275969
-0.000135829
2.31561e-05
0.000238337
-0.000261493
-0.000231141
0.000254297
-2.6687e-05
-0.000229726
0.000256413
0.000156366
-0.000161421
-7.73859e-05
-0.000168715
-0.000261723
4.14346e-05
0.000220288
-3.17521e-05
-0.00022997
7.04625e-06
0.000261717
-3.25193e-05
-0.000229198
1.67316e-05
0.000126096
-0.000195287
0.000308785
-0.000171397
0.000262319
-3.57923e-05
-0.000226526
-0.000319292
0.000178229
-0.000101451
-0.000228453
-6.90203e-05
-9.13987e-07
-0.000298238
0.000299044
-2.76971e-05
0.000181699
-0.000153808
0.000308018
6.86696e-06
0.000250097
-0.000248249
-1.84801e-06
-0.000176174
6.17086e-05
0.000260258
-3.07246e-05
-0.000229532
0.000197345
-0.000250769
5.34242e-05
0.000254206
-0.000231206
-2.29991e-05
-0.000252337
0.000240017
0.000144505
0.000101675
-0.000101864
-0.000170269
0.000132496
-0.000261885
-0.000290249
0.000242201
4.80484e-05
0.000216808
3.12476e-05
-0.000248056
-0.00023834
-9.57601e-06
0.000247667
0.000326851
-2.29853e-05
0.000263996
-3.42721e-05
-0.000229724
0.000141188
-0.000229944
8.90578e-05
3.63259e-05
-0.000265637
0.000229311
-0.000253905
0.000121296
0.000249817
-5.24722e-05
0.000294673
-0.000154253
-0.000140421
0.000122248
-0.000289157
1.53441e-05
0.000237665
-0.000253009
-0.000262031
3.54705e-05
0.00022656
-2.75974e-06
-3.77917e-05
-0.000224239
0.000248975
-0.000272434
-0.000264649
3.44737e-05
0.000230175
0.000193257
0.000101416
-0.000149941
0.000290137
-0.000170894
-3.8116e-05
0.000208981
-1.81721e-05
0.000263201
-0.000293081
0.000310289
0.000116864
0.000103545
0.000261325
-0.000261325
0.000311838
-2.16847e-05
-0.000289438
5.32002e-07
0.000248949
0.000254857
1.65761e-05
0.000309549
-0.000276321
-3.32474e-05
-2.26336e-05
0.000266577
-0.000243943
3.00077e-05
-0.000260519
0.000230511
-0.000252139
0.000229506
0.00032783
3.11501e-05
-0.000260598
0.000229447
0.000276809
-3.16961e-05
-6.67237e-06
-0.000293079
0.000301059
0.000270665
3.88426e-05
0.000230245
-0.000266617
3.63721e-05
0.000200453
-0.000202
-0.000258301
0.000238533
1.97681e-05
0.000169762
-0.000257245
8.74835e-05
-0.000205202
0.000163241
-0.000249145
8.59043e-05
-0.000266169
0.000224813
4.13562e-05
0.000253073
-2.78797e-05
-0.000225194
0.000175045
4.30101e-05
-0.000234837
-2.29601e-05
0.000257797
-0.000236377
-2.28761e-05
0.000259253
-1.94265e-05
0.000255969
-0.000236542
-0.000259345
0.000239919
-3.27401e-05
0.000174891
-0.000235929
-2.24001e-05
0.000258329
-0.00025484
0.000229192
2.56481e-05
2.94001e-06
0.000211289
-0.000214229
-0.000267031
3.79849e-05
0.000229046
0.000270677
4.48002e-06
4.19244e-05
0.000162288
-0.000204071
-3.31195e-05
0.000249928
-2.09885e-05
0.000218597
9.73004e-05
0.0002482
-0.000216953
0.000277616
-0.000279209
0.000277354
-0.00028196
-1.84997e-05
0.000258601
-0.000240101
-0.000261644
0.000243145
3.02551e-05
-0.000201944
-2.96653e-05
-0.000206064
0.000235726
0.000314946
-0.000287557
-2.74486e-05
0.000261297
-3.11081e-05
-0.000230189
3.28739e-05
-0.000262362
0.000229488
-0.000229853
0.000259645
-2.97921e-05
0.00032571
-1.76894e-05
0.00014702
-0.000211389
0.000256929
-0.000109956
-0.000286349
0.000287593
0.000241977
-6.41202e-06
-0.000235565
0.000228537
-0.000180669
-3.7409e-05
0.00021796
2.84399e-05
-0.000209366
-0.000239989
0.000260317
-2.03281e-05
-0.000103247
0.000189609
-8.62276e-05
3.06751e-05
-0.000201608
0.000240169
-0.000263424
2.32552e-05
-0.000115584
0.000258861
-0.000243993
0.000265721
-2.17281e-05
-0.000238953
0.000232541
0.000258626
-0.000245105
-1.35213e-05
0.000264349
-2.46681e-05
-0.000246317
-0.000273253
-1.05829e-05
0.00029882
-5.36003e-05
-8.86026e-06
0.000292057
-0.000283647
-0.000165732
0.000207573
0.000229884
1.80836e-05
-0.00024795
0.000328767
-0.000328777
0.000260955
-0.000245018
-1.59377e-05
-0.000301872
-6.36765e-07
0.000305203
9.72633e-06
3.77094e-05
0.000170406
-0.000208137
0.000213007
-3.49921e-05
-0.000178238
0.000278054
-0.000255789
-2.22648e-05
-0.000209492
3.12862e-05
3.15421e-05
-0.000261891
0.000230348
0.000285797
-0.000292052
2.44721e-05
-0.000259617
-0.000257965
1.87881e-05
0.000266057
-1.64361e-05
0.000151173
-0.000267625
0.000116452
0.000298935
-4.45233e-06
0.000238617
-7.53763e-05
2.12521e-05
0.000177045
-0.000198297
-0.000183877
0.000205129
-0.000236275
0.000257219
-2.09441e-05
0.000261462
-3.31689e-05
-0.000228293
-0.000197009
-5.21362e-05
0.000251581
-1.48401e-06
8.6679e-06
-0.000264692
0.000256008
-0.000342764
0.000236266
0.000106448
0.000266371
-0.000236811
-2.95597e-05
0.000306863
-0.000314695
7.81736e-06
-2.57041e-05
-0.000229097
0.000254801
0.000261493
-7.64403e-06
1.00993e-05
-0.000209092
0.000262411
-3.19033e-05
-0.000230508
-6.90483e-05
-0.000260653
-0.000194685
0.000248025
-5.33402e-05
-0.000266533
0.000249985
1.65481e-05
-0.000318047
1.66875e-05
-1.72187e-05
0.000296748
-0.000279624
-0.000276221
1.65481e-05
0.000249537
-0.000167588
6.44313e-05
0.000273744
1.47706e-05
-0.00028852
-0.000316102
0.000307875
8.21624e-06
3.46641e-05
-0.000263649
0.000228985
-1.74855e-05
0.000281287
-0.000315219
1.6392e-05
-0.000176541
-7.42283e-05
-0.000233992
0.000204244
-2.16721e-05
-0.000216469
0.000238141
-0.000314703
0.000295817
1.88827e-05
-0.000132857
0.000274708
-0.000141852
-8.40122e-06
3.31521e-05
-0.000263453
0.000230301
-0.000202253
2.47754e-05
0.000177469
0.000221515
0.000280531
-0.000280785
2.75425e-07
-0.000236993
-2.20921e-05
0.000224813
-0.000202721
0.000139273
0.000143753
-0.000278517
0.000200824
-5.68446e-05
0.000308084
-1.06169e-05
0.0002092
-0.000268763
2.92853e-05
0.00022306
-0.000252345
-0.000322168
0.000138468
0.000296483
2.92395e-05
1.94464e-05
-0.000224355
-2.77845e-05
-0.000136715
-0.000132689
-0.000326288
0.000113733
0.000242873
2.56201e-05
0.000218765
-0.000224869
1.09408e-05
-0.000287923
0.000276551
-0.000243113
0.000270601
-2.72107e-05
0.000281442
-0.000281872
0.000287927
-7.67652e-05
-8.8567e-06
0.00029031
-1.87881e-05
0.000247101
-0.000228313
0.000281468
-0.000290307
-5.58439e-06
-0.000283905
0.000289528
0.000282077
-0.000269788
0.000284542
0.000226314
2.67597e-05
-0.000311238
0.000317415
-7.49569e-06
0.000251508
-2.12891e-05
0.000226418
2.40731e-05
-0.000268913
0.000246057
-2.05381e-05
-0.000259401
3.02849e-05
0.000229116
0.000178305
7.64963e-05
9.8909e-06
0.000280615
-0.000290156
-0.000238141
-2.88401e-05
0.000266981
2.51441e-05
-0.000263285
0.000284117
-0.000162317
-0.000232177
0.000261129
-2.89521e-05
-0.000234697
0.000260709
-2.60121e-05
1.40352e-06
0.000279156
2.45001e-05
-0.000259197
2.38001e-05
-0.000255977
0.000274305
-0.000242934
-3.13603e-05
0.000317869
-9.996e-06
-0.000305994
-2.92121e-06
-0.000255753
1.1816e-05
0.000243937
-1.7207e-05
-0.000261185
0.000228066
-0.000245337
0.000270145
-2.48081e-05
-0.000263229
1.49801e-05
-2.35741e-05
0.000286235
-0.000262676
2.13641e-05
-0.000266701
-0.000241596
-2.13418e-05
3.26606e-05
-9.0432e-05
0.000260194
0.000280722
-0.000286318
5.05122e-05
0.000237693
0.000282167
-0.000281818
-0.000243181
-2.39401e-05
0.000267121
-0.000260894
7.34723e-06
-0.000295541
1.94887e-05
0.000276151
-0.000268717
2.55361e-05
-8.43623e-06
0.000290488
-0.000268326
0.000243549
2.47773e-05
-0.000232513
0.000210841
0.000280198
-0.000288658
-6.16002e-07
0.000260289
-0.000259673
-0.000301923
-1.61216e-05
-0.000264573
2.35481e-05
-0.00024417
-2.41555e-05
-3.43281e-05
-0.000297972
0.000293894
0.000286674
-0.000158327
0.000295783
-0.00029029
2.30152e-05
4.92382e-06
0.000262241
-0.000255098
-7.14882e-06
0.000307565
-2.02259e-05
-0.000287347
5.95235e-05
-0.000246765
-2.19521e-05
-0.000356375
0.00024182
0.000283585
-0.000278592
2.33801e-05
-0.000187983
-1.58861e-05
-0.000306426
2.56634e-05
0.000280839
-0.000197275
0.000310879
-0.000113803
0.000259841
-0.000238533
-2.13081e-05
-0.000291636
2.94001e-05
0.000222097
-0.000251497
-0.000163289
0.000137763
-0.00016536
0.000251441
-0.000238029
-1.34121e-05
-0.000263873
3.40201e-05
-2.23161e-05
-0.000269837
0.000251469
0.000230427
3.12901e-05
-4.64006e-05
0.000202353
0.000232619
-0.000260499
-1.73959e-05
-3.14466e-06
0.000247183
-0.000244029
-0.000293386
-0.000237049
0.000265189
-2.81401e-05
0.000230096
3.22225e-05
-0.000268521
2.55921e-05
-0.000239905
-2.86161e-05
0.000228954
-0.000260706
-0.000282447
4.73202e-05
-0.000242005
0.00029406
-0.000283723
-0.00028853
1.31741e-05
0.000275506
-4.85579e-06
0.000218033
0.000228551
-0.00026107
0.000296885
-0.0001309
-0.000165985
0.000241451
-0.000261701
0.000270298
-0.000226213
-1.76681e-05
-0.000165512
0.000307754
-0.000142555
2.49649e-05
0.000222662
-0.000247627
-0.00019306
0.00019304
-0.000283667
0.00028236
6.98462e-06
-0.000290729
-0.000302485
0.000146693
0.000155793
0.000259995
-0.000239359
-2.06361e-05
-0.000215741
0.000193649
0.000261879
3.61239e-07
0.000257293
0.000232526
2.16797e-05
-0.000295263
-6.19631e-05
1.03648e-05
0.0002329
-0.000249672
1.76171e-05
-0.000230917
-2.37161e-05
0.000254633
-0.000242295
0.000263191
-2.08965e-05
8.27485e-05
0.000134134
2.01501e-05
-0.000305853
0.000285755
0.000256565
-1.80041e-05
-0.000238561
0.000243881
-0.000254017
1.0136e-05
-0.000226745
0.000207957
0.000223131
-0.000258923
-0.000244693
4.76842e-05
1.59424e-05
-0.000137714
-0.000218677
1.57921e-05
0.000245701
0.000280804
0.000293806
0.000305845
1.71177e-06
0.000249817
-0.000220417
2.51749e-05
0.000225009
-0.000250184
-0.000243178
0.000268865
-2.56873e-05
2.28201e-05
-0.000262725
-0.00011423
0.000296077
9.12755e-06
2.08181e-05
0.000261675
-0.000235103
-2.65721e-05
1.31537e-05
-0.000303821
0.00029069
0.00032165
-3.09447e-05
-0.000290699
0.000249733
1.63241e-05
0.000306074
-0.000292984
-0.000230419
-0.000112363
9.63204e-06
0.000250657
-4.9129e-05
-0.00020239
0.000251519
2.20333e-05
0.000246832
-0.000241686
-2.29629e-05
0.000260737
-2.24001e-05
0.000287691
-0.000268023
2.63369e-05
2.68241e-05
-0.000257965
0.000210617
-0.000207677
2.58161e-05
-0.000262865
0.000280155
0.000121744
-0.000256173
0.000134429
1.93249e-05
3.84471e-05
0.000162129
-0.00020057
-0.000239485
-2.85377e-05
3.97892e-05
0.00016191
-0.000201689
-0.000246691
0.000271066
-2.43747e-05
0.000209866
-0.000248826
1.98857e-05
1.73284e-05
-0.000173544
-3.02614e-05
0.000226688
-0.000257414
-2.88401e-05
0.000244245
-0.000215405
-2.16161e-05
0.000242985
-0.000221369
0.000201657
-0.000250786
-0.000273581
-0.000232905
-2.55081e-05
0.000258413
0.000241234
2.98318e-05
-0.000210317
-2.38131e-05
0.000235446
-2.18821e-05
-0.000224967
-0.000239345
6.28042e-05
0.000259004
-0.000229718
4.75106e-05
-0.000249901
-3.43393e-05
0.000257694
-0.000223354
0.000205675
-0.000240014
0.000261689
-1.1956e-05
-6.06763e-05
-0.000229573
-0.000225146
-1.73581e-05
0.000242663
0.000247109
5.3175e-05
0.000212448
-0.000265623
-0.000261093
0.000177353
-0.000231757
5.44042e-05
6.43339e-05
0.000136676
0.000259457
-0.000240915
-2.47224e-05
-0.000265385
0.000227165
3.82201e-05
-2.87813e-05
-0.000222158
0.00025094
-0.000284673
0.000264161
0.000234501
3.61761e-05
2.18821e-05
0.000234087
-0.000307217
0.000151089
0.000156129
0.000169081
-5.23898e-05
0.000254045
-0.000115192
2.56901e-05
0.000217446
-0.000243136
-0.000286257
0.000286842
9.26044e-06
0.000257377
-0.000245953
0.000208937
3.70161e-05
0.000254832
0.000244329
-1.96351e-05
-0.000246815
-2.02161e-05
-0.000263019
2.0724e-05
-0.000269215
2.24001e-05
2.79601e-05
0.000220024
-0.000247984
0.000242481
-0.000274597
1.32721e-05
0.000247794
-1.37911e-05
1.27122e-05
-0.000251499
-0.000328763
0.000124119
-0.000233135
-2.62109e-05
-0.000252113
0.000252113
0.000259782
-0.000144217
-1.83406e-05
-0.000278644
0.000297209
0.000275038
0.000258749
-0.000135913
0.000224113
2.39205e-05
0.00023468
7.82573e-05
-0.000341359
3.78029e-05
0.000258962
1.76363e-05
-0.000248843
-3.00917e-05
0.000207453
-3.01001e-05
0.000259701
2.95429e-05
0.000218353
-0.000247896
-3.05014e-05
-4.09782e-05
-0.000217818
0.000258797
-0.000233423
-2.14173e-05
3.73375e-05
-0.000198021
0.000160839
-3.30877e-05
0.000221671
-0.000255943
-0.000281926
-8.53152e-06
0.000290389
-0.000194763
0.000162766
0.000166349
8.16763e-05
1.27227e-05
-0.000294655
0.000235075
2.59446e-05
-0.000261019
-0.000197836
-1.27682e-06
0.000232743
-0.000264287
3.15449e-05
-8.42803e-06
-0.000217029
0.000225457
-0.000162249
0.000199612
-0.000249985
-3.46025e-05
0.000256274
0.000218076
-0.000252679
-0.000246289
0.000272245
-2.59561e-05
0.000253547
2.78321e-05
-0.000232062
-2.95821e-05
-0.000298271
0.000316477
-1.82077e-05
2.33838e-05
0.000212462
-0.000250254
-0.000267233
2.09441e-05
-2.12801e-05
-0.000245953
-3.61481e-05
0.00024861
-0.000289996
-1.3758e-05
0.00022082
-0.000256968
0.000247665
-0.000250719
1.76258e-06
2.80002e-06
0.000181413
-0.000184213
0.000255294
0.000234529
2.67681e-05
-2.62361e-05
0.000245001
-0.000218765
3.36001e-05
0.000216609
-0.000250209
0.000244861
2.73841e-05
0.000306545
-0.000143949
-0.000162597
1.57242e-05
0.00024012
-0.000255325
0.000271013
-0.000113568
0.000225569
-0.000256677
-0.000241082
0.000104351
-0.000265469
7.16803e-06
-0.000241635
-2.75801e-05
-0.000241361
-2.48081e-05
0.000310252
-2.75468e-05
-7.67483e-05
0.000243097
-1.1452e-05
-0.000215601
0.000224281
-8.68003e-06
0.000255193
-7.68883e-05
3.4372e-05
-0.000196572
0.000162163
-0.000265245
-1.40001e-07
-4.14962e-05
3.94575e-05
0.000158452
-0.000197733
0.000197564
-0.000163183
0.000257041
-7.05603e-06
0.000251151
-0.000218277
-1.82183e-05
-2.1128e-05
0.000270976
-9.41948e-05
-0.000178385
-1.42801e-05
-0.000191913
0.000206193
0.000258665
-1.53553e-05
-0.00024331
1.98101e-05
0.000238855
-0.000279889
-8.11195e-06
3.7273e-05
-0.000196126
0.000158241
1.36921e-05
0.000247997
-0.000160664
0.000197706
-1.95189e-05
0.000248711
3.25337e-05
0.000187299
-0.000219689
-4.17202e-06
-2.49389e-05
0.000265108
-0.000231955
-3.14693e-05
0.000297042
-0.000281657
-1.53542e-05
1.63717e-05
-0.000237659
0.000221288
-0.00010514
0.000226885
1.93042e-05
-0.000305239
0.000285933
2.52001e-05
-2.79441e-05
2.69165e-05
0.00030895
-0.000289648
0.000238891
1.97345e-05
2.15601e-06
0.000231617
-0.000233773
-0.000310307
2.56309e-05
0.000284667
-0.000162177
-0.000144145
0.000209178
-0.000250156
-0.000164591
0.000241924
1.90317e-05
0.000256174
-4.13534e-05
0.000250531
0.000214498
-0.000255851
0.000318781
-0.00031881
-1.08299e-05
0.000286937
-0.000276366
-0.000302855
1.96025e-05
0.000283291
4.20842e-05
-0.000286413
-3.90874e-05
0.000252483
2.62921e-05
-2.21097e-05
0.000307309
-0.000285255
2.43321e-05
3.95361e-05
0.000160942
-0.000200584
0.000249294
-0.000219751
2.83277e-05
-0.000261633
4.36802e-06
-1.99838e-05
0.000306643
-0.000286661
-0.000250987
-0.000266673
3.07441e-05
0.000252141
-0.000236741
-1.54001e-05
1.2264e-05
0.000239877
-0.000275422
-1.29342e-05
0.000255697
-6.59847e-06
0.000316559
-1.2066e-05
0.000298229
-0.000286568
-4.77083e-05
0.000247437
-0.000235621
0.000257601
-1.99361e-05
0.000131834
8.59761e-05
-0.000217747
0.000223776
3.03493e-05
0.000226759
-0.000258662
3.71393e-05
0.000271291
-0.000288911
1.69363e-05
0.000251273
-0.000239093
-1.31321e-05
0.000252225
-2.91201e-05
-0.000257265
2.56481e-05
0.000231617
-0.000228005
-2.92601e-05
0.000259765
-0.000233571
-2.61941e-05
0.000258721
-0.000267036
2.49746e-06
0.000289525
1.27173e-06
-0.000290773
0.000248671
-0.000233367
-1.85921e-05
0.000308802
-0.000300778
-8.01988e-06
0.000248139
-0.000101041
-0.000266897
2.56761e-05
0.000241221
-3.48881e-05
-0.000232009
-0.000266393
2.51161e-05
0.000241277
-1.23172e-05
-0.000267711
0.000280008
-3.45241e-05
-0.000231869
-0.000261788
1.89359e-05
-0.000266281
2.43881e-05
0.000241893
-0.000284079
-2.17442e-05
-0.000306276
2.76533e-05
0.000278617
-3.34041e-05
-0.000232877
-0.000170042
-0.000258133
2.94001e-05
0.000228733
0.000309048
-0.000309038
-0.000195805
0.000209049
-3.29281e-05
-0.000225205
0.000197458
-0.000279092
8.16608e-05
0.000283751
2.23392e-05
-0.000301953
1.76961e-05
0.000285636
-0.00028074
-4.81936e-06
-0.000257125
0.000231617
2.55081e-05
0.000170127
2.83104e-05
-0.00019859
-0.000266953
2.81681e-05
0.000238785
-0.000227361
-2.97641e-05
-3.67361e-05
-0.000230217
0.000275665
0.000297405
1.9096e-05
-0.000276328
-3.16713e-05
0.000308038
-0.000258679
-1.11259e-05
0.000297606
-0.000286375
1.50074e-05
-0.000301927
0.00028692
-0.000230609
-0.000307399
0.000287413
0.000263005
-2.55529e-05
-0.000280725
1.36081e-05
0.000165955
0.000229998
1.87414e-05
-0.000249252
-0.000199589
0.000161176
0.000236738
1.31517e-05
-0.00024989
-0.00025833
2.66093e-05
0.000231721
-1.09228e-05
0.000247661
5.74002e-06
0.000246877
-3.19817e-05
-0.000226348
0.000299515
-0.000285676
-1.38614e-05
0.000228024
-0.000226666
0.000289742
0.000237685
1.98521e-05
-0.000257537
-1.24236e-05
0.000250108
0.000246636
1.50389e-05
-0.000305433
1.53724e-05
0.00024448
2.18905e-05
3.24413e-05
-0.000199938
-0.000287501
-1.77369e-05
-0.000182869
0.000295177
-0.00015078
0.000184002
-3.32513e-05
3.11883e-05
-0.000199483
0.000169001
-0.000164878
0.000259149
-0.000239236
-1.99137e-05
0.000261374
-0.000273997
-0.000240662
0.000231755
-2.18975e-05
0.000301267
-0.000279369
0.000308005
-0.000292995
0.000242117
1.77241e-05
-0.000224975
0.00024443
-1.94545e-05
1.61001e-05
-0.000241075
-7.00003e-06
0.000260989
-0.000297178
4.89178e-06
0.000292291
-0.000174497
0.000160217
-1.74105e-05
-6.29006e-06
-0.000290882
-1.68062e-05
-0.000285122
4.28402e-06
-0.000300711
0.000135477
-0.000257472
2.37335e-05
0.000233734
0.000238197
1.32441e-05
-3.08114e-05
-0.00022666
-3.30824e-05
-0.000291612
2.07547e-05
-0.000224828
0.000205193
0.000254969
-0.000233465
-2.15041e-05
-0.00019643
0.000218094
-0.000185775
-7.34709e-06
0.000203163
0.0001343
0.000137244
3.97235e-06
0.000271067
0.000279922
-0.000305467
3.05979e-06
0.000243757
-1.98494e-05
0.000298712
-0.000278862
-0.000302304
0.000287512
1.47929e-05
-0.000258301
0.000230077
2.82241e-05
-2.64041e-05
-0.000231897
0.000301646
-0.000301619
0.000267563
-1.99898e-05
0.00030451
-0.000284469
0.000286207
-5.60084e-07
-0.000256873
0.000256873
-0.000268216
0.000295867
-0.000144927
-6.65514e-05
-6.94608e-06
0.000295242
-0.000288255
-0.000297478
0.000290487
0.000292289
-0.000279432
0.000290648
-0.000305654
1.475e-05
3.46107e-05
-0.000240958
0.000216535
2.26092e-05
-1.44958e-05
-0.000246129
0.00022959
-1.43782e-05
0.000298165
-0.000283782
0.000263481
-1.96001e-05
0.000254224
-0.000235464
-1.87601e-05
-3.10228e-05
-0.000273796
0.000304821
1.43948e-05
-0.000297323
0.000282934
-1.45881e-05
0.000233465
-0.000218877
0.000208823
-0.000295381
0.00028333
-1.92395e-05
0.000304703
-0.000285463
0.00025102
-2.68814e-05
0.000297297
-0.000270416
-0.000295744
0.000268852
1.07156e-05
0.000244749
-0.000255465
0.000305283
-0.000312106
6.8218e-06
1.81074e-05
1.49924e-05
0.000286377
-0.000301364
6.31769e-06
0.000283243
2.33955e-06
-0.000318822
-0.00028985
0.00030463
-0.000242481
0.000243657
8.45603e-06
-0.0002264
0.000242772
-0.000293437
0.000274193
0.000284524
-0.000148351
-8.21341e-05
0.000294438
1.4508e-05
3.14962e-05
-0.000197668
0.000166338
-0.000274557
0.000257293
-0.000219535
0.00024982
0.000243411
1.92865e-05
-0.000262697
0.000236019
2.31309e-05
-0.000301322
0.000282873
0.000312391
-1.79582e-05
0.000237945
-0.000257069
1.91241e-05
-0.000222494
0.000247459
0.000294333
1.80582e-05
-0.000168267
-1.45197e-05
0.000298481
-0.000284018
-0.000142711
-0.000266415
0.000159993
0.000106423
-0.000309035
0.000295387
1.36591e-05
-0.000258699
0.000241826
1.68729e-05
-0.000153491
0.000155252
-0.000306383
0.000288557
1.78134e-05
-0.000216792
0.000180201
-9.69084e-06
0.000253101
2.05035e-05
1.75196e-05
-0.000304251
0.000286732
-0.000300597
-7.2237e-06
0.000307722
-0.000249229
0.000220109
-0.000201153
-8.52603e-05
-0.000272481
0.000251718
0.000303825
-0.000286302
-0.000191519
1.79978e-05
1.50547e-05
0.00028444
-0.000299515
-8.80603e-05
0.000239233
-0.000303496
1.9442e-05
0.000284059
-0.000207276
-2.88045e-06
-0.000297867
-0.000167257
2.05297e-05
0.000302889
-0.0002883
-1.44598e-05
-0.000170809
-0.000299237
-0.000175109
-2.26423e-05
0.000243528
0.000289497
1.71442e-05
0.000252869
5.7613e-05
-0.000285027
-0.000247213
-0.000270893
-2.33575e-05
-0.000274651
0.000300329
-0.000262747
0.000282458
-0.000165268
-4.12929e-05
0.000206374
0.000197569
1.56521e-05
-0.000213221
-1.24862e-05
-0.000285795
0.000298287
1.83597e-05
1.85553e-05
-0.000305358
0.00028679
0.000253345
-1.71361e-05
-0.000236209
1.89538e-05
-0.000304794
0.000285847
2.03561e-05
0.000232989
0.000216385
-2.46121e-05
-0.000191773
1.57815e-05
0.000282603
-0.000298319
-0.000251039
0.000117936
-0.000303764
1.86319e-05
0.000285144
0.000221319
-5.12806e-05
-0.000296562
1.45279e-05
0.000282192
0.000255837
-2.19801e-05
-0.000233857
-0.000302793
0.000106143
0.000234529
1.70521e-05
-0.000251581
0.000280072
1.69251e-05
0.000304185
-0.000285232
1.78438e-05
-0.000299535
0.000233512
1.84916e-05
-0.000252004
-1.90994e-05
-1.42788e-05
0.000298386
-0.000284133
-0.000280239
0.000299844
-0.00027826
0.000291689
-0.000303726
1.19358e-05
0.000249741
-1.62291e-05
1.15815e-05
0.000250041
-1.55121e-05
0.000298646
-0.000282883
3.95922e-05