/*--------------------------------*- C++ -*----------------------------------*\
  =========                 |
  \\      /  F ield         | OpenFOAM: The Open Source CFD Toolbox
   \\    /   O peration     | Website:  https://openfoam.org
    \\  /    A nd           | Version:  12
     \\/     M anipulation  |
\*---------------------------------------------------------------------------*/
FoamFile
{
    format      ascii;
    class       volScalarField;
    location    "7";
    object      rho;
}
// * * * * * * * * * * * * * * * * * * * * * * * * * * * * * * * * * * * * * //

dimensions      [1 -3 0 0 0 0 0];

internalField   nonuniform List<scalar> 
22702
(
1.40001
1.40001
1.26436
1.40001
1.45808
1.40001
1.8387
1.40001
1.40001
1.03265
1.83789
1.83846
1.40001
1.84128
1.28011
1.40001
1.40001
1.40001
1.8383
1.40001
1.84205
1.40001
1.84109
1.02724
1.84237
1.03702
1.40001
1.83872
1.02569
1.0275
1.40001
1.8386
1.40001
1.40001
1.40001
1.80922
1.84188
1.84079
1.40001
1.40001
1.03294
1.40001
1.61974
1.40001
1.83782
1.40001
1.40001
1.40001
1.40001
1.02613
1.40001
1.02716
1.40001
1.8379
1.40001
1.83857
1.40001
1.40001
1.40001
1.40001
1.03619
1.40001
1.40001
1.02585
1.40001
1.0265
1.40001
1.40001
1.40001
1.03501
1.40001
1.84157
1.67012
1.40001
1.84155
1.86242
1.02575
1.84055
1.02384
1.40001
1.83796
1.03026
1.83904
1.83917
1.40001
1.40001
1.40001
1.40001
1.33043
1.0347
1.83922
1.40001
1.40001
1.0344
1.40001
1.84232
1.03437
1.40001
1.40001
1.40001
1.40001
1.61906
1.83834
1.037
1.40001
1.40001
1.50745
1.40001
1.0286
1.40001
1.84001
1.83847
1.40001
1.40001
1.02495
1.02765
1.03408
1.40001
1.40001
1.40001
1.40001
1.40001
1.31156
1.40001
1.77964
1.43864
1.83997
1.40001
1.84003
1.83819
1.84138
1.83811
1.40001
1.03551
1.40001
1.03473
1.40001
1.40001
1.40001
1.40001
1.83831
1.40001
1.40001
1.40001
1.40001
1.84194
1.40001
1.4254
1.40001
1.40001
1.40001
1.40001
1.02753
1.40001
1.41026
1.40001
1.02336
1.40001
1.40001
1.40001
1.83829
1.40001
1.84173
1.0255
1.03607
1.84114
1.84123
1.40001
1.47434
1.65483
1.40001
1.83856
1.02336
1.81024
1.40001
1.40001
1.40001
1.40001
1.84141
1.77091
1.40001
1.83837
1.02526
1.83881
1.40001
1.02284
1.40001
1.02551
1.03569
1.39979
1.40001
1.40001
1.83835
1.40001
1.40001
1.84176
1.40001
1.8392
1.83847
1.03127
1.40001
1.40001
1.02778
1.84178
1.40001
1.40001
1.40001
1.84169
1.40001
1.03276
1.40001
1.40001
1.84168
1.8415
1.8399
1.40001
1.40004
1.40001
1.40001
1.40001
1.84199
1.40001
1.0264
1.85453
1.84179
1.84124
1.40001
1.40001
1.40001
1.01257
1.84123
1.61549
1.40001
1.84333
1.0293
1.0305
1.84335
1.84117
1.40001
1.84626
1.02465
1.79187
1.40001
1.40001
1.40001
1.40001
1.84176
1.40001
1.65985
1.44315
1.40001
1.40001
1.84171
1.03514
1.16616
1.40001
1.8419
1.03477
1.84525
1.40001
1.40001
1.40001
1.40001
1.40001
1.40001
1.40001
1.02677
1.15865
1.03234
1.8419
1.40001
1.40001
1.40001
1.40001
1.79158
1.40001
1.02406
1.40001
1.00434
1.02696
1.84191
1.02842
1.84197
1.40001
1.40001
1.40001
1.3976
1.02372
1.0251
1.4
1.40001
1.00328
1.40001
1.83846
1.03702
1.40001
1.40001
1.83795
1.02746
1.40001
1.83983
1.03556
1.84172
1.40001
1.01088
1.39771
1.40001
1.40001
1.40001
1.02637
1.40001
1.40001
1.4
1.40002
1.41303
1.67127
1.40001
1.04168
1.40001
1.40001
1.40001
1.40001
1.40001
1.40001
1.40001
1.83821
1.40001
1.83916
1.40001
1.40001
1.40001
1.03697
1.40001
1.84199
1.02841
1.40001
1.75943
1.40001
1.40001
1.839
1.40001
1.40001
1.40001
1.82895
1.40001
1.40001
1.82886
1.83853
1.40001
1.49012
1.40001
1.40001
1.03458
1.40001
1.40001
1.40001
1.03442
1.40001
1.40001
1.40001
1.40001
1.03707
1.40001
1.40001
1.40001
1.40001
1.40001
1.03663
1.40007
1.84158
1.40001
1.4
1.84139
1.84093
1.40001
1.40001
1.03848
1.20857
1.83793
1.40001
1.40001
1.40001
1.84158
1.03465
1.40001
1.84173
1.40001
1.40001
1.09921
1.093
1.40001
1.02533
1.03678
1.40001
1.40001
1.40001
1.40001
1.40001
1.40001
1.40001
1.83944
1.51052
1.81594
1.03788
1.30724
1.83783
1.40001
1.84154
1.83804
1.03465
1.17315
1.40001
1.03455
1.40001
1.85095
1.40001
1.40001
1.40001
1.40001
1.84175
1.40001
1.40001
1.40001
1.40001
1.40001
1.40001
1.40001
1.56206
1.83934
1.40001
1.8418
1.40001
1.40001
1.0288
1.40001
1.40001
1.40001
1.40001
1.84167
1.73787
1.40001
1.40001
1.02429
1.84178
1.84163
1.40001
1.84161
1.84178
1.84162
1.40001
1.23022
1.40001
1.8416
1.38794
1.84161
1.40001
1.03416
1.39885
1.83832
1.40001
1.40001
1.40001
1.40001
1.03062
1.84171
1.80027
1.40001
1.84244
1.84162
1.83848
1.40001
1.61007
1.84211
1.40001
1.40001
1.70704
1.46589
1.84169
1.32874
1.84169
1.40001
1.84152
1.84149
1.84152
1.84178
1.40001
1.8316
1.31194
1.28152
1.40001
1.4
1.40001
1.40001
1.8399
1.40001
1.40001
1.40001
1.40001
1.40001
1.83861
1.40001
1.40001
1.39618
1.84163
1.79559
1.40001
1.76446
1.40005
1.40001
1.40001
1.84187
1.40001
1.39685
1.40456
1.40001
1.84133
1.40001
1.84125
1.40001
1.40001
1.72929
1.40001
1.84145
1.40003
1.40001
1.84241
1.40001
1.84168
1.40001
1.40001
1.40001
1.84174
1.40001
1.84171
1.40001
1.8417
1.83815
1.84175
1.83942
1.40001
1.83771
1.83655
1.40001
1.02654
1.81447
1.71817
1.40001
1.84172
1.40001
1.03455
1.03523
1.40001
1.40001
1.40001
1.40001
1.40001
1.03492
1.40001
1.84183
1.51418
1.84189
1.40001
1.40001
1.40001
1.40001
1.40001
1.8416
1.40001
1.84461
1.66387
1.17323
1.40001
1.40002
1.53093
1.51462
1.40001
1.40001
1.55919
1.40001
1.02243
1.84182
1.84182
1.40001
1.40001
1.40001
1.83824
1.40001
1.40003
1.84156
1.84154
1.34464
1.40001
1.40001
1.02566
1.80222
1.40001
1.40001
1.40001
1.40001
1.40001
1.84165
1.83779
1.40001
1.84241
1.8418
1.84174
1.40001
1.40001
1.40001
1.40001
1.03627
1.83773
1.40001
1.40001
1.8024
1.84045
1.40001
1.81584
1.83941
1.40001
1.40001
1.40001
1.40001
1.40001
1.84139
1.40001
1.40001
1.40001
1.40001
1.8405
1.40001
1.83848
1.03601
1.40001
1.03557
1.40001
1.40001
1.40001
1.39691
1.02671
1.39904
1.40001
1.40001
1.40001
1.46048
1.40001
1.40001
1.25986
1.40001
1.40001
1.40001
1.40001
1.40001
1.40001
1.40001
1.4
1.3299
1.4
1.40001
1.39751
1.40001
1.02987
1.40001
1.40001
1.40001
1.40001
1.73104
1.40001
1.40001
1.40001
1.40001
1.02576
1.40001
1.40001
1.81602
1.83798
1.4
1.40001
1.40001
1.28203
1.40001
1.40001
1.40001
1.40001
1.40001
1.40001
1.34709
1.41225
1.84206
1.40001
1.40001
1.40001
1.84283
1.29144
1.40001
1.40001
1.40001
1.83972
1.8374
1.40001
1.40001
1.40001
1.40001
1.40001
1.40001
1.40001
1.40001
1.40001
1.03716
1.40001
1.40001
1.83906
1.03352
1.40001
1.83889
1.40001
1.0262
1.40001
1.40001
1.03699
1.40001
1.40001
1.40001
1.40001
1.40001
1.40001
1.40001
1.83323
1.84082
1.40001
1.40001
1.40001
1.40001
1.80359
1.40001
1.53822
1.02629
1.40001
1.40001
1.40001
1.40001
1.40001
1.40001
1.40001
1.43546
1.40001
1.40001
1.62715
1.40001
1.40001
1.40001
1.76266
1.40001
1.40001
1.40001
1.40001
1.03546
1.40001
1.40001
1.0223
1.03495
1.40001
1.40001
1.84159
1.40001
1.37875
1.40001
1.40001
1.40001
1.7094
1.0313
1.40001
1.02128
1.40001
1.16995
1.40001
1.40001
1.40001
1.84091
1.40001
1.40001
1.84181
1.40001
1.40001
1.40001
1.84182
1.40001
1.40001
1.84163
1.40001
1.40001
1.03452
1.40001
1.5367
1.40001
1.40001
1.83798
1.83784
1.69487
1.79584
1.40001
1.03465
1.40001
1.40001
1.82221
1.40001
1.03604
1.40001
1.40001
1.40001
1.84205
1.40001
1.40001
1.40001
1.40001
1.66584
1.40001
1.81627
1.84142
1.03454
1.40001
1.40001
1.03623
1.03637
1.40001
1.40001
1.40001
1.71511
1.73566
1.40001
1.40001
1.40001
1.40001
1.40001
1.40001
1.40001
1.58689
1.83804
1.40849
1.40001
1.83669
1.03486
1.40001
1.40001
1.40001
1.64323
1.40001
1.48782
1.40001
1.80365
1.83978
1.40001
1.03386
1.40001
1.83824
1.40001
1.40001
1.8419
1.81412
1.40001
1.84051
1.40001
1.02936
1.40001
1.40001
1.40001
1.83722
1.83324
1.78889
1.40001
1.83947
1.84179
1.40001
1.84254
1.40001
1.83988
1.40001
1.03493
1.36885
1.03568
1.40001
1.40001
1.40001
1.40001
1.40001
1.84172
1.40001
1.84168
1.40001
1.40001
1.40001
1.81968
1.40001
1.02708
1.84187
1.40001
1.02429
1.05174
1.04125
1.40001
1.6169
1.43621
1.84327
1.84185
1.40001
1.4
1.40001
1.40001
1.84165
1.40001
1.40001
1.84161
1.84178
1.40001
1.55443
1.40003
1.40001
1.39683
1.83851
1.24429
1.40001
1.21809
1.025
1.02296
1.32096
1.84103
1.83567
1.48695
1.84177
1.84196
1.40001
1.40001
1.83797
1.83897
1.84169
1.83717
1.40001
1.84187
1.02542
1.8439
1.84069
1.8412
1.842
1.25599
1.29326
1.3285
1.84173
1.352
1.84097
1.40001
1.40001
1.84353
1.84154
1.40001
1.03433
1.84
1.84181
1.40001
1.84181
1.84185
1.40001
1.84174
1.02548
1.8411
1.8381
1.83796
1.8451
1.40001
1.40001
1.40001
1.84174
1.68536
1.04789
1.84176
1.02904
1.84175
1.40001
1.40001
1.40001
1.40001
1.84271
1.84192
1.40001
1.40001
1.84179
1.0352
1.84236
1.02742
1.40001
1.83864
1.40001
1.032
1.84301
1.12553
1.40001
1.84184
1.84407
1.84116
1.40001
1.40001
1.61663
1.84329
1.02539
1.84164
1.40001
1.842
1.2676
1.84198
1.03681
1.40001
1.84296
1.06269
1.84356
1.02722
1.40001
1.84197
1.40001
1.84074
1.40001
1.65871
1.82548
1.74737
1.02779
1.40001
1.84186
1.40001
1.84178
1.40001
1.84204
1.40001
1.40001
1.8419
1.37948
1.84422
1.02954
1.79486
1.40001
1.71213
1.40001
1.84114
1.8419
1.84092
1.40001
1.7977
1.84164
1.80883
1.67037
1.841
1.40001
1.69148
1.40001
1.84182
1.40001
1.45836
1.40001
1.80961
1.40001
1.84197
1.82093
1.82071
1.40001
1.83817
1.03499
1.40001
1.03582
1.40001
1.40001
1.40001
1.83816
1.40001
1.84233
1.40001
1.40001
1.40001
1.84258
1.83102
1.76394
1.84116
1.84399
1.03581
1.8432
1.83767
1.40001
1.78047
1.84181
1.83336
1.40001
1.83829
1.83848
1.40001
1.84694
1.84214
1.84168
1.84298
1.40001
1.40001
1.40001
1.84175
1.03254
1.40001
1.84183
1.40001
1.40001
1.03628
1.40001
1.40001
1.84165
1.8417
1.40001
1.8417
1.84656
1.84173
1.3691
1.84163
1.40001
1.84162
1.84183
1.7546
1.40001
1.40001
1.40001
1.84175
1.84143
1.84201
1.33959
1.40001
1.84818
1.84135
1.84124
1.40001
1.84141
1.84175
1.84172
1.8493
1.40001
1.84179
1.84321
1.78273
1.84275
1.84839
1.40001
1.84621
1.83676
1.84198
1.84202
1.84307
1.0366
1.84195
1.84179
1.40001
1.84158
1.84192
1.84171
1.84184
1.40001
1.84206
1.84167
1.40001
1.84173
1.77088
1.40001
1.40001
1.40001
1.84097
1.84733
1.40001
1.40001
1.64144
1.40001
1.84162
1.40001
1.40001
1.84192
1.84334
1.84183
1.8419
1.40001
1.40001
1.40001
1.70895
1.40001
1.84208
1.40001
1.40001
1.83804
1.83801
1.40001
1.84176
1.02622
1.84174
1.8409
1.11183
1.40001
1.02939
1.78303
1.84222
1.84265
1.84268
1.03472
1.84159
1.84273
1.0347
1.02371
1.40001
1.84253
1.84178
1.40001
1.40001
1.84201
1.40001
1.84175
1.40001
1.78734
1.40001
1.6071
1.84212
1.84388
1.706
1.79705
1.83799
1.84242
1.81199
1.40001
1.03545
1.84504
1.84147
1.84636
1.40002
1.40001
1.40001
1.84326
1.40001
1.84169
1.84163
1.14422
1.40001
1.84191
1.39994
1.40001
1.40003
1.40005
1.84146
1.84118
1.39848
1.40001
1.40001
1.84173
1.84348
1.84167
1.84587
1.84084
1.04712
1.77986
1.40001
1.83847
1.84184
1.84172
1.83896
1.40001
1.8417
1.82979
1.84285
1.40001
1.8418
1.84223
1.25823
1.84175
1.84188
1.40001
1.84119
1.23154
1.8416
1.2522
1.84171
1.40001
1.84162
1.84514
1.84187
1.84201
1.84165
1.8388
1.84226
1.84019
1.40001
1.32675
1.84171
1.84184
1.23472
1.84184
1.3771
1.69019
1.8418
1.84145
1.84367
1.40001
1.84413
1.68979
1.84383
1.32092
1.84383
1.84884
1.40001
1.26732
1.40001
1.836
1.40001
1.70405
1.40001
1.8267
1.27084
1.40001
1.84093
1.84412
1.40001
1.84177
1.84349
1.84855
1.84186
1.8475
1.40001
1.838
1.40001
1.40001
1.40001
1.29123
1.8418
1.84105
1.84082
1.84179
1.84373
1.84157
1.83997
1.84232
1.29348
1.43054
1.40001
1.40001
1.84654
1.84207
1.84163
1.84163
1.40003
1.62726
1.40001
1.84661
1.78634
1.40001
1.40001
1.13012
1.8419
1.40001
1.40001
1.02416
1.84156
1.40001
1.83774
1.84187
1.8379
1.82493
1.84183
1.40001
1.03221
1.50569
1.84211
1.84167
1.40001
1.84185
1.84169
1.6277
1.41088
1.49583
1.40001
1.84046
1.84152
1.40001
1.40001
1.03587
1.40001
1.40001
1.84186
1.84189
1.84135
1.84159
1.84153
1.84405
1.842
1.84126
1.84171
1.40001
1.39622
1.841
1.84181
1.39695
1.8417
1.84177
1.03487
1.03459
1.84079
1.84171
1.40001
1.40001
1.40131
1.84168
1.84095
1.84153
1.40001
1.84167
1.40001
1.25553
1.84706
1.84439
1.40001
1.59791
1.84177
1.40001
1.84027
1.40001
1.84179
1.68913
1.84061
1.40001
1.84234
1.83777
1.03468
1.84205
1.40001
1.84245
1.83843
1.40001
1.03731
1.84321
1.77871
1.39767
1.82852
1.84187
1.40001
1.39612
1.84446
1.39798
1.8419
1.40001
1.40001
1.8412
1.40001
1.84216
1.84168
1.39649
1.75537
1.40001
1.84175
1.40001
1.40001
1.40001
1.40001
1.84161
1.40001
1.40001
1.84279
1.40001
1.84146
1.40001
1.68336
1.84094
1.84114
1.40001
1.40001
1.39803
1.40001
1.84175
1.84196
1.84288
1.84154
1.84225
1.84134
1.84175
1.40001
1.84184
1.84163
1.40001
1.84173
1.8418
1.40001
1.84117
1.32502
1.45923
1.84187
1.84149
1.84193
1.40001
1.84166
1.40001
1.84164
1.84154
1.40001
1.84161
1.40001
1.40001
1.40001
1.40001
1.84187
1.02575
1.3979
1.40001
1.84188
1.84362
1.40001
1.84176
1.40001
1.40495
1.03085
1.84167
1.39959
1.40001
1.84085
1.39829
1.84156
1.40001
1.39978
1.40001
1.84113
1.84536
1.84153
1.84071
1.02897
1.84291
1.84256
1.84177
1.51214
1.40001
1.40001
1.5891
1.84152
1.02441
1.03076
1.40001
1.84125
1.84168
1.84243
1.40001
1.40001
1.84188
1.84193
1.39988
1.40001
1.71298
1.03021
1.40001
1.47967
1.83845
1.84074
1.39827
1.84146
1.84883
1.40001
1.39889
1.40001
1.84038
1.83906
1.57939
1.40001
1.81504
1.40001
1.40186
1.84091
1.0341
1.84137
1.84171
1.39698
1.39992
1.78509
1.40001
1.3997
1.40001
1.84242
1.40001
1.40002
1.02699
1.84187
1.40001
1.40001
1.40001
1.40001
1.84335
1.65083
1.40001
1.40001
1.03565
1.84181
1.65231
1.40001
1.40001
1.40001
1.82126
1.83221
1.84169
1.40001
1.40001
1.84588
1.40001
1.84187
1.84163
1.40001
1.40001
1.84342
1.84155
1.82067
1.40001
1.40001
1.84355
1.84298
1.40001
1.40001
1.40001
1.84301
1.40001
1.40001
1.40001
1.84093
1.84103
1.84419
1.40001
1.84392
1.40004
1.08277
1.84159
1.84159
1.40001
1.84306
1.83364
1.83822
1.40001
1.40001
1.84516
1.40001
1.64692
1.84117
1.40001
1.03714
1.40001
1.84356
1.40001
1.40001
1.84295
1.40001
1.40001
1.40001
1.54434
1.8409
1.06604
1.40002
1.84294
1.40001
1.40001
1.84224
1.40001
1.8452
1.40001
1.40001
1.84161
1.84189
1.40001
1.40006
1.40001
1.40001
1.40001
1.40001
1.40001
1.40001
1.84007
1.84185
1.40001
1.8379
1.03455
1.84203
1.40001
1.8421
1.84412
1.84174
1.83701
1.83785
1.40001
1.40001
1.84324
1.40001
1.67299
1.84579
1.84182
1.40001
1.844
1.83778
1.40001
1.80022
1.40001
1.84201
1.68684
1.8434
1.39746
1.8355
1.80038
1.84263
1.84226
1.43619
1.84188
1.84504
1.40001
1.84161
1.40001
1.84142
1.40001
1.40001
1.40001
1.40001
1.39656
1.84149
1.84169
1.77105
1.40001
1.8442
1.40001
1.40001
1.40001
1.02481
1.40001
1.83124
1.40001
1.80113
1.8227
1.40001
1.40001
1.40001
1.8085
1.83832
1.40001
1.40001
1.84248
1.03571
1.47409
1.40001
1.84558
1.84174
1.803
1.83059
1.84179
1.40001
1.84339
1.40001
1.40001
1.40001
1.40001
1.84281
1.84214
1.40001
1.83198
1.45038
1.8415
1.81269
1.40001
1.40001
1.81349
1.40001
1.40001
1.0321
1.70788
1.40001
1.40001
1.84098
1.40001
1.84532
1.80273
1.40001
1.80169
1.03411
1.84158
1.84149
1.84241
1.40001
1.02794
1.40001
1.40001
1.40001
1.84192
1.76172
1.40001
1.84724
1.84182
1.40001
1.84164
1.40001
1.40001
1.40001
1.40001
1.8418
1.39935
1.40001
1.84354
1.40001
1.40001
1.84239
1.84189
1.40001
1.84515
1.48364
1.40003
1.40001
1.84168
1.40001
1.84175
1.40001
1.4146
1.84165
1.40001
1.8415
1.40001
1.40001
1.54063
1.8415
1.40001
1.40001
1.40001
1.40001
1.40001
1.39656
1.03467
1.03479
1.42079
1.40001
1.42335
1.40001
1.42295
1.40001
1.84165
1.40001
1.66466
1.40001
1.84165
1.40001
1.40001
1.40001
1.84158
1.40001
1.74869
1.8422
1.40001
1.63411
1.8423
1.40001
1.40001
1.83854
1.84146
1.40001
1.40001
1.44571
1.02584
1.40001
1.84271
1.40001
1.40001
1.40001
1.40001
1.47546
1.84176
1.40001
1.40001
1.40001
1.03257
1.40001
1.84161
1.84181
1.84404
1.40001
1.40001
1.40001
1.40001
1.62173
1.84171
1.40001
1.40001
1.40001
1.84504
1.84164
1.44571
1.40001
1.40001
1.40001
1.84185
1.84179
1.40001
1.03711
1.84215
1.84195
1.84101
1.84239
1.84047
1.40001
1.40001
1.8464
1.84107
1.84173
1.02842
1.43993
1.8417
1.40001
1.40001
1.40001
1.40001
1.40001
1.84171
1.03293
1.40001
1.40001
1.84167
1.59614
1.40001
1.84621
1.40001
1.40001
1.40001
1.03193
1.40001
1.40001
1.51494
1.8422
1.84211
1.40001
1.84024
1.84455
1.40001
1.47283
1.40001
1.84524
1.40001
1.84181
1.03657
1.40001
1.40001
1.40001
1.40001
1.84172
1.40007
1.40001
1.40001
1.40001
1.82745
1.40001
1.40001
1.40001
1.40001
1.84173
1.03311
1.74782
1.84439
1.40001
1.84136
1.40001
1.40001
1.40001
1.39713
1.40001
1.8469
1.40001
1.20445
1.40001
1.40001
1.40004
1.84209
1.03128
1.40001
1.84004
1.40001
1.84271
1.84187
1.03215
1.40001
1.40001
1.82547
1.40001
1.40001
1.02756
1.40001
1.83688
1.40001
1.82232
1.39932
1.84172
1.40001
1.40001
1.40001
1.40001
1.83922
1.40001
1.40001
1.84177
1.40001
1.40001
1.40001
1.40001
1.40001
1.40001
1.40001
1.40001
1.68944
1.40001
1.54303
1.84103
1.40001
1.40001
1.40001
1.0341
1.40001
1.40001
1.40001
1.40001
1.84119
1.84166
1.45309
1.40001
1.40001
1.84284
1.40001
1.40001
1.84152
1.40001
1.40002
1.40001
1.40001
1.40001
1.40002
1.84171
1.17864
1.84163
1.8435
1.39718
1.40001
1.40001
1.40001
1.66143
1.40001
1.40001
1.84097
1.84138
1.40001
1.40001
1.40001
1.40001
1.03352
1.40001
1.40001
1.40001
1.68063
1.40001
1.84165
1.84508
1.40001
1.84312
1.40001
1.40001
1.40001
1.63877
1.40001
1.83817
1.40001
1.84178
1.40001
1.40001
1.39629
1.84164
1.40001
1.40001
1.40001
1.40001
1.40001
1.84269
1.40003
1.40001
1.02964
1.84482
1.03054
1.40001
1.84176
1.40001
1.39589
1.40001
1.84285
1.84345
1.40001
1.83496
1.27251
1.84175
1.84339
1.40004
1.40001
1.40001
1.03368
1.40001
1.40001
1.40001
1.84171
1.65734
1.84134
1.40001
1.40001
1.40001
1.40001
1.39673
1.84269
1.40001
1.03667
1.40001
1.40001
1.40001
1.40001
1.40001
1.40001
1.40001
1.84805
1.84266
1.8393
1.40001
1.40001
1.39688
1.40001
1.37464
1.40001
1.40001
1.40001
1.03511
1.37355
1.40001
1.03035
1.03381
1.40001
1.84242
1.84173
1.40001
1.84295
1.8417
1.0354
1.70541
1.40001
1.40001
1.40001
1.03656
1.84127
1.40001
1.03629
1.40001
1.84153
1.47691
1.40001
1.40001
1.40001
1.40001
1.84193
1.83979
1.40001
1.40001
1.84184
1.40001
1.40001
1.83946
1.842
1.40001
1.82009
1.84206
1.83972
1.3617
1.84295
1.40891
1.03537
1.73966
1.84144
1.40001
1.40001
1.40001
1.03496
1.40001
1.03439
1.84486
1.36041
1.84156
1.35206
1.40001
1.84184
1.60226
1.40001
1.40001
1.84113
1.40001
1.58155
1.84151
1.40001
1.40001
1.8378
1.844
1.03418
1.65274
1.3999
1.40001
1.6727
1.40001
1.84517
1.34298
1.84984
1.84004
1.40001
1.40001
1.40001
1.40001
1.83151
1.40001
1.40001
1.84251
1.39965
1.84172
1.76117
1.84245
1.03327
1.40001
1.40001
1.40001
1.40001
1.84169
1.40005
1.84155
1.40001
1.84107
1.8405
1.45692
1.84021
1.53986
1.8416
1.40001
1.7018
1.05227
1.84414
1.84164
1.75456
1.4778
1.8402
1.84174
1.8416
1.84297
1.40001
1.31277
1.46268
1.40001
1.84139
1.61038
1.84185
1.40004
1.40001
1.40001
1.07377
1.84086
1.84037
1.75904
1.40001
1.57041
1.40001
1.84486
1.84508
1.40001
1.84243
1.84067
1.40001
1.40001
1.40001
1.84261
1.40001
1.57514
1.84114
1.7057
1.40001
1.84131
1.40001
1.40001
1.40001
1.40001
1.40001
1.40001
1.40001
1.40001
1.40001
1.40001
1.06113
1.40001
1.80998
1.03618
1.66045
1.39858
1.84183
1.40001
1.63366
1.40002
1.68468
1.78047
1.40001
1.40227
1.84586
1.30667
1.40001
1.84427
1.8406
1.34009
1.40001
1.84134
1.84163
1.844
1.40001
1.84168
1.84264
1.84384
1.40001
1.59845
1.40001
1.40006
1.84172
1.40001
1.84136
1.46583
1.84187
1.40001
1.40001
1.84073
1.84428
1.06689
1.40001
1.84159
1.73244
1.84081
1.40001
1.40001
1.83989
1.84154
1.39825
1.40001
1.78976
1.39691
1.84182
1.40006
1.40001
1.40001
1.40001
1.40001
1.59827
1.40001
1.74381
1.84194
1.73116
1.84173
1.40001
1.40361
1.40001
1.40001
1.83988
1.40001
1.84431
1.40001
1.40001
1.40001
1.40001
1.4
1.40001
1.45432
1.63034
1.40001
1.40001
1.03449
1.40001
1.83991
1.06549
1.84545
1.40001
1.61666
1.39976
1.84196
1.68235
1.04257
1.6429
1.40004
1.84196
1.84145
1.40001
1.66864
1.84416
1.84257
1.3984
1.83843
1.82963
1.02836
1.40001
1.40001
1.39741
1.40001
1.83765
1.40001
1.03961
1.84167
1.40001
1.40001
1.79395
1.40001
1.84169
1.40001
1.8411
1.40001
1.05328
1.40001
1.40001
1.8428
1.83974
1.84416
1.40001
1.84343
1.84185
1.83939
1.40001
1.40001
1.82997
1.4
1.12434
1.40001
1.40001
1.40001
1.8415
1.40001
1.84164
1.68753
1.84304
1.40001
1.84159
1.39939
1.40001
1.40001
1.40001
1.40001
1.40001
1.40001
1.10088
1.40001
1.40001
1.84177
1.40001
1.84284
1.83996
1.40001
1.03904
1.03287
1.40001
1.84319
1.47767
1.03319
1.00276
1.40001
1.84248
1.40001
1.84397
1.03774
1.40129
1.40001
1.40001
1.39952
1.40001
1.40001
1.40001
1.39992
1.58231
1.84143
1.40001
1.40001
1.8428
1.66285
1.40001
1.8061
1.84261
1.84174
1.58174
1.83743
1.40001
1.84192
1.40001
1.82857
1.40001
1.84135
1.84092
1.39696
1.8428
1.84081
1.40001
1.40001
1.40001
1.40001
1.40001
1.31923
1.83967
1.40005
1.40003
1.03121
1.39999
1.03511
1.0277
1.40001
1.84132
1.84155
1.84182
1.40001
1.8421
1.40001
1.03522
1.40001
1.40001
1.84293
1.22503
1.84089
1.40001
1.84277
1.40001
1.37618
1.84161
1.40001
1.40001
1.40001
1.8435
1.40001
1.84191
1.03386
1.40001
1.40001
1.65896
1.40001
1.40001
1.6419
1.40001
1.40001
1.8415
1.40001
1.40001
1.40001
1.40001
1.40001
1.8453
1.84161
1.40001
1.84082
1.84271
1.03646
1.60366
1.84374
1.40001
1.40001
1.79806
1.39904
1.40001
1.40001
1.84177
1.8423
1.68804
1.40001
1.84139
1.04022
1.80905
1.39959
1.40001
1.84178
1.40004
1.84304
1.7798
1.73822
1.40001
1.40001
1.8415
1.1055
1.03353
1.40001
1.84164
1.40001
1.84126
1.40001
1.66429
1.40001
1.40001
1.84073
1.68231
1.0368
1.40001
1.39831
1.40001
1.40001
1.42628
1.58244
1.84155
1.40001
1.84557
1.40001
1.40001
1.40001
1.40001
1.40001
1.40001
1.46554
1.03494
1.40001
1.40001
1.42899
1.40001
1.40001
1.40001
1.40001
1.40001
1.84097
1.40001
1.40001
1.8422
1.84142
1.71629
1.40001
1.40001
1.40001
1.22886
1.84513
1.70855
1.40001
1.40001
1.40001
1.40001
1.8416
1.40001
1.40001
1.40001
1.84194
1.40001
1.40001
1.71817
1.85389
1.43576
1.1394
1.84106
1.71245
1.84025
1.40001
1.62114
1.40001
1.40001
1.40001
1.03578
1.40262
1.02765
1.40001
1.03849
1.01904
1.40001
1.03669
1.40001
1.40001
1.40001
1.59681
1.40001
1.84166
1.84107
1.40143
1.61861
1.77298
1.03523
1.15361
1.27917
1.40001
1.84147
1.83941
1.84149
1.8417
1.78009
1.26389
1.40001
1.78248
1.40001
1.82491
1.40001
1.40001
1.39646
1.40947
1.40001
1.40001
1.40001
1.84073
1.40001
1.03517
1.40001
1.84269
1.02819
1.40001
1.40001
1.84168
1.40001
1.84158
1.39958
1.40001
1.40001
1.84261
1.80007
1.40001
1.85448
1.40001
1.40001
1.41496
1.40001
1.60227
1.40001
1.40001
1.03525
1.40001
1.40001
1.84313
1.4
1.84237
1.40001
1.40004
1.0316
1.40001
1.40001
1.02677
1.40081
1.40001
1.84018
1.03508
1.84096
1.03664
1.84161
1.40001
1.40001
1.40001
1.40001
1.40001
1.40001
1.40001
1.40001
1.40001
1.40001
1.40001
1.82412
1.40001
1.84346
1.83896
1.03559
1.40001
1.40001
1.40001
1.40001
1.40001
1.40001
1.82953
1.40001
1.40001
1.03497
1.40001
1.40001
1.83964
1.40001
1.40001
1.56788
1.77002
1.03432
1.03564
1.08635
1.14249
1.40001
1.39659
1.02767
1.40027
1.81754
1.39688
1.40001
1.40001
1.84129
1.40001
1.40001
1.40001
1.15945
1.40002
1.55858
1.40001
1.40001
1.58275
1.84198
1.40001
1.03825
1.40001
1.40001
1.40001
1.39676
1.40001
1.84042
1.84169
1.40001
1.03627
1.40001
1.63993
1.03523
1.40001
1.28302
1.40001
1.3961
1.01775
1.40001
1.40001
1.40001
1.39597
1.03457
1.40001
1.03838
1.39843
1.63396
1.79503
1.03611
1.03048
1.40001
1.39116
1.40001
1.39864
1.40001
1.84067
1.84211
1.40001
1.41326
1.84153
1.84176
1.40001
1.40001
1.8417
1.40001
1.40001
1.40005
1.40001
1.84195
1.40001
1.40001
1.41784
1.40001
1.39859
1.08664
1.40001
1.40001
1.40001
1.40001
1.40001
1.84461
1.429
1.40006
1.40001
1.40001
1.40001
1.40001
1.40001
1.40004
1.40001
1.03639
1.49447
1.39862
1.82411
1.83998
1.40001
1.41681
1.84166
1.7818
1.40001
1.40001
1.03047
1.84163
1.40001
1.83951
1.40001
1.84183
1.7045
1.03372
1.40001
1.03511
1.82113
1.39968
1.40001
1.03508
1.0347
1.40001
1.40001
1.77319
1.40001
1.4
1.02722
1.40001
1.40001
1.40001
1.54374
1.40001
1.03601
1.84218
1.40001
1.40001
1.40001
1.40001
1.84218
1.40001
1.40001
1.83946
1.7969
1.40001
1.40001
1.40001
1.8452
1.02891
1.40001
1.8411
1.84194
1.40001
1.75353
1.4
1.40003
1.40001
1.40001
1.82314
1.41362
1.40001
1.02923
1.64359
1.40001
1.40001
1.3974
1.40001
1.40001
1.84384
1.40001
1.40001
1.40004
1.40001
1.84084
1.40001
1.40001
1.40001
1.40001
1.40001
1.40001
1.40002
1.59407
1.40001
1.84284
1.40001
1.40001
1.84308
1.40001
1.40001
1.40001
1.84162
1.84045
1.44523
1.40001
1.39763
1.40001
1.40001
1.40001
1.40001
1.83885
1.40001
1.40001
1.84167
1.03422
1.40001
1.40001
1.40001
1.40001
1.40001
1.40001
1.75735
1.40001
1.40001
1.84071
1.84115
1.40001
1.40001
1.40001
1.84093
1.84065
1.40001
1.39965
1.83908
1.40001
1.40001
1.40001
1.40002
1.03137
1.4295
1.39618
1.39616
1.40001
1.40001
1.02954
1.84106
1.40001
1.03656
1.40001
1.84098
1.82381
1.0335
1.39941
1.84144
1.84102
1.84155
1.40001
1.40001
1.31981
1.80281
1.76981
1.03659
1.40001
1.40001
1.40001
1.84229
1.84191
1.03178
1.39732
1.40001
1.84142
1.03436
1.40001
1.83063
1.03687
1.36629
1.4066
1.40001
1.84136
1.40001
1.40001
1.40001
1.40001
1.40001
1.40001
1.40012
1.81167
1.40001
1.40001
1.84482
1.40001
1.40001
1.40001
1.84171
1.40001
1.03649
1.40001
1.40001
1.40001
1.55506
1.40001
1.40001
1.40001
1.40001
1.40001
1.18236
1.40001
1.03276
1.40001
1.84197
1.40008
1.262
1.26991
1.40002
1.40519
1.63335
1.40001
1.40001
1.035
1.84165
1.84201
1.84178
1.40001
1.02721
1.03162
1.40001
1.84147
1.40001
1.40001
1.40001
1.40001
1.40001
1.40003
1.40001
1.03375
1.68582
1.40001
1.40001
1.03425
1.38218
1.40001
1.40001
1.40001
1.40001
1.01751
1.40001
1.07081
1.40001
1.40001
1.84592
1.40001
1.40001
1.03554
1.40001
1.84179
1.40001
1.03515
1.40001
1.03687
1.40001
1.40748
1.84238
1.85217
1.40001
1.40001
1.83947
1.40001
1.40001
1.49424
1.39679
1.40001
1.39812
1.40001
1.844
1.40001
1.02979
1.40002
1.83724
1.39888
1.40001
1.40001
1.19288
1.40001
1.39902
1.0371
1.84289
1.56109
1.40001
1.40001
1.30202
1.40001
1.40001
1.40001
1.19048
1.40001
1.40001
1.40001
1.84168
1.40001
1.0334
1.4
1.40001
1.40001
1.40001
1.02844
1.84171
1.8071
1.03809
1.40001
1.8468
1.40001
1.40001
1.84173
1.84037
1.77237
1.02957
1.39772
1.39923
1.40001
1.84171
1.40001
1.40001
1.40001
1.40001
1.84097
1.40004
1.40001
1.40001
1.83938
1.40001
1.40001
1.84188
1.0354
1.40001
1.40001
1.40001
1.03421
1.40001
1.4
1.4
1.39864
1.40001
1.40001
1.40001
1.40001
1.74353
1.40001
1.83953
1.84095
1.84993
1.8419
1.84205
1.84188
1.40001
1.84243
1.40001
1.84153
1.84173
1.40001
1.39885
1.03612
1.77789
1.39989
1.40001
1.40001
1.40001
1.40001
1.3958
1.40001
1.46952
1.40001
1.40001
1.40001
1.2443
1.84189
1.84093
1.84399
1.78352
1.39988
1.40001
1.42317
1.84256
1.39791
1.45738
1.39706
1.03447
1.40001
1.40003
1.40001
1.40001
1.40001
1.40001
1.40001
1.8411
1.03423
1.84123
1.84192
1.39497
1.03622
1.40001
1.40001
1.40001
1.84205
1.03618
1.79071
1.02754
1.84163
1.84449
1.03694
1.84098
1.4249
1.40001
1.84466
1.19022
1.40001
1.39876
1.03571
1.40001
1.03422
1.40001
1.84195
1.84182
1.13784
1.40001
1.84081
1.03431
1.40001
1.03734
1.40001
1.84189
1.40001
1.40001
1.84209
1.40001
1.22507
1.40001
1.39971
1.03403
1.84276
1.39949
1.40001
1.03541
1.40001
1.40001
1.40001
1.40001
1.64341
1.40001
1.84207
1.40001
1.40001
1.85411
1.40001
1.40001
1.84145
1.40001
1.03279
1.40001
1.02763
1.40002
1.40001
1.40001
1.40001
1.40001
1.82293
1.65641
1.84163
1.40001
1.84183
1.81124
1.01731
1.03607
1.40001
1.40001
1.84201
1.40001
1.034
1.40001
1.38164
1.40001
1.40001
1.84158
1.40001
1.84391
1.03527
1.85354
1.40001
1.03579
1.40001
1.40001
1.84119
1.84015
1.40001
1.40005
1.40001
1.84151
1.40001
1.40001
1.02923
1.39936
1.03295
1.40001
1.40001
1.40001
1.84336
1.84536
1.83979
1.40001
1.40001
1.03598
1.40001
1.8438
1.40001
1.40001
1.40001
1.82574
1.84199
1.84195
1.03601
1.84376
1.84157
1.04259
1.83988
1.40005
1.04242
1.41496
1.40001
1.40001
1.84099
1.03523
1.68169
1.03573
1.84159
1.39741
1.03552
1.84374
1.40001
1.40001
1.40001
1.40001
1.84193
1.83993
1.03744
1.40001
1.40003
1.03614
1.40004
1.40001
1.03437
1.03149
1.71051
1.842
1.39847
1.84187
1.40001
1.84687
1.20852
1.03458
1.84183
1.84813
1.40001
1.84177
1.40001
1.40001
1.8416
1.40001
1.73439
1.83953
1.40001
1.40001
1.40001
1.40001
1.84175
1.83663
1.84036
1.40001
1.40001
1.84172
1.83846
1.84151
1.40001
1.84181
1.40001
1.40001
1.40001
1.40001
1.40001
1.03618
1.2236
1.03555
1.40001
1.40001
1.8423
1.40001
1.40001
1.84203
1.02328
1.40001
1.8416
1.83684
1.82243
1.0226
1.40001
1.03528
1.40001
1.40003
1.83987
1.6071
1.83921
1.80428
1.40001
1.0368
1.40001
1.84025
1.71686
1.03094
1.40001
1.40001
1.40001
1.20105
1.40001
1.40001
1.84831
1.40001
1.03
1.84163
1.40001
1.40001
1.40001
1.40001
1.40001
1.7557
1.49773
1.40001
1.84111
1.40001
1.8426
1.40001
1.39718
1.40001
1.84118
1.84077
1.84075
1.84531
1.39958
1.83935
1.40001
1.84156
1.84084
1.77498
1.40001
1.40001
1.03504
1.83985
1.40001
1.40001
1.84549
1.84173
1.84357
1.40001
1.84162
1.40001
1.40001
1.40004
1.84035
1.84317
1.52994
1.49487
1.84138
1.84236
1.07481
1.40001
1.40001
1.40001
1.40001
1.40003
1.55741
1.40001
1.40001
1.76102
1.03002
1.39998
1.40001
1.84172
1.3999
1.39981
1.46985
1.79935
1.83908
1.30316
1.40001
1.03493
1.40001
1.3981
1.84191
1.84445
1.84115
1.39901
1.40001
1.40001
1.03445
1.40001
1.40001
1.84188
1.44793
1.40001
1.40001
1.40001
1.40001
1.40001
1.40001
1.40001
1.39994
1.84075
1.40002
1.40001
1.40001
1.40001
1.40001
1.67959
1.40001
1.60836
1.40001
1.40001
1.84164
1.8463
1.03064
1.39879
1.40001
1.4
1.40001
1.03721
1.83967
1.84178
1.40001
1.40001
1.40001
1.40001
1.40001
1.40001
1.40001
1.40001
1.8415
1.83689
1.03365
1.45021
1.03459
1.40001
1.02971
1.40001
1.84185
1.52267
1.40001
1.40001
1.10095
1.40001
1.8229
1.20453
1.39693
1.03277
1.40001
1.40001
1.8389
1.40005
1.39718
1.01651
1.83967
1.84958
1.40001
1.40001
1.40001
1.40001
1.81293
1.40001
1.40001
1.84182
1.39895
1.84095
1.40007
1.40001
1.40001
1.03742
1.40001
1.40001
1.84318
1.0357
1.1669
1.02875
1.84168
1.39932
1.40001
1.84366
1.03711
1.03588
1.41567
1.40001
1.40001
1.83911
1.40005
1.60397
1.40001
1.40001
1.83925
1.03605
1.40001
1.40001
1.40014
1.84014
1.40012
1.83633
1.40001
1.40004
1.40001
1.40001
1.11263
1.40001
1.17876
1.40002
1.40001
1.84248
1.03831
1.40001
1.16851
1.19196
1.40001
1.40001
1.84207
1.40001
1.40001
1.40001
1.84181
1.84141
1.40006
1.83994
1.83894
1.17362
1.84172
1.82119
1.40001
1.40001
1.84015
1.4
1.40001
1.40001
1.40001
1.40001
1.84139
1.84175
1.40001
1.40001
1.40001
1.84222
1.40021
1.40001
1.03634
1.10924
1.40001
1.40003