/*--------------------------------*- C++ -*----------------------------------*\
  =========                 |
  \\      /  F ield         | OpenFOAM: The Open Source CFD Toolbox
   \\    /   O peration     | Website:  https://openfoam.org
    \\  /    A nd           | Version:  12
     \\/     M anipulation  |
\*---------------------------------------------------------------------------*/
FoamFile
{
    format      ascii;
    class       volScalarField;
    location    "6.2";
    object      p;
}
// * * * * * * * * * * * * * * * * * * * * * * * * * * * * * * * * * * * * * //

dimensions      [1 -1 -2 0 0 0 0];

internalField   nonuniform List<scalar> 
22702
(
1
1
0.869519
1
1.05578
1
1.47141
1
1
0.657955
1.47124
1.47145
1
1.47097
0.884741
1
1
1
1.47109
1
1.47195
1
1.47101
0.657079
1.47225
0.657973
1
1.47077
0.658407
0.6564
1
1.47141
1
1
1
1.43541
1.4721
1.47103
1
1
0.658201
1
1.23009
1
1.47024
1
1
1
1
0.658275
1
0.657641
1
1.47122
1
1.47162
1
1
1
1
0.657922
1
1
0.657773
1
0.65687
1
1
1
0.657705
1
1.47197
1.2848
1
1.472
1.49712
0.656683
1.47162
0.658598
1
1.47123
0.661679
1.47157
1.47166
1
1
1
1
0.931452
0.657856
1.47241
1
1
0.657614
1
1.47224
0.657683
1
1
1
1
1.22944
1.47129
0.658368
1
1
1.10972
1
0.661496
1
1.47152
1.47157
1
1
0.648514
0.65346
0.658011
1
1
1
1
1
0.914381
1
1.40113
1.04469
1.47158
1
1.4714
1.47125
1.47139
1.47144
1
0.657727
1
0.657448
1
1
1
1
1.47151
1
1
1
1
1.47206
1
1.02762
1
1
1
1
0.657513
1
1.01047
1
0.659034
1
1
1
1.47124
1
1.47167
0.647088
0.658225
1.47173
1.47146
1
1.07529
1.26725
1
1.47162
0.658628
1.43646
1
1
1
1
1.47106
1.37929
1
1.47149
0.657294
1.47166
1
0.656748
1
0.657621
0.657386
0.999786
1
1
1.47279
1
1
1.47175
1
1.47136
1.47147
0.661414
1
1
0.657283
1.47152
1
1
1
1.47145
1
0.658184
1
1
1.4713
1.47125
1.47143
1
1.00004
1
1
1
1.47187
1
0.657118
1.48866
1.47165
1.47109
1
1
1
0.646123
1.47098
1.23298
1
1.47327
0.657016
0.657022
1.47333
1.47103
1
1.47744
0.64799
1.41536
1
1
1
1
1.47147
1
1.26851
1.04377
1
1
1.47161
0.657872
0.77109
1
1.47208
0.657204
1.47599
1
1
1
1
1
1
1
0.659243
0.771815
0.657652
1.47157
1
1
1
1
1.41784
1
0.659403
1
0.637784
0.657793
1.4718
0.65684
1.47183
1
1
1
0.997559
0.657942
0.648072
0.999999
1
0.635917
1
1.47127
0.657448
1
1
1.47116
0.648853
1
1.46861
0.658403
1.47171
1
0.645848
0.997714
1
1
1
0.658196
1
1
1
1.00001
1.01178
1.28536
1
0.665394
1
1
1
1
1
1
1
1.4714
1
1.47258
1
1
1
0.65858
1
1.47194
0.656936
1
1.37985
1
1
1.47137
1
1
1
1.46107
1
1
1.46262
1.47117
1
1.09687
1
1
0.657464
1
1
1
0.657597
1
1
1
1
0.660792
1
1
1
1
1
0.65829
1.00006
1.47176
1
0.999992
1.47168
1.47172
1
1
0.667967
0.820281
1.47161
1
1
1
1.4716
0.657722
1
1.47186
1
1
0.714443
0.707485
1
0.657607
0.658311
1
1
1
1
1
1
1
1.47175
1.11114
1.44216
0.659073
0.90753
1.47172
1
1.4721
1.47175
0.656936
0.78206
1
0.657069
1
1.48315
1
1
1
1
1.47154
1
1
1
1
1
1
1
1.1674
1.47102
1
1.47147
1
1
0.660784
1
1
1
1
1.47141
1.35519
1
1
0.65725
1.47155
1.47127
1
1.4712
1.47169
1.47134
1
0.835448
1
1.47143
0.984484
1.47128
1
0.657643
0.998835
1.47104
1
1
1
1
0.662205
1.47165
1.42575
1
1.47177
1.4716
1.47137
1
1.2099
1.472
1
1
1.32369
1.06763
1.47144
0.929992
1.47144
1
1.47133
1.47134
1.47132
1.47145
1
1.45636
0.91098
0.884516
1
0.999999
1
1
1.47092
1
1
1
1
1
1.47094
1
1
0.996185
1.4713
1.4249
1
1.38518
1.00004
1
1
1.47136
1
0.996812
1.00446
1
1.47112
1
1.47078
1
1
1.34669
1
1.47097
1.00002
1
1.47221
1
1.47143
1
1
1
1.47158
1
1.47089
1.00001
1.47146
1.4715
1.47159
1.47174
1
1.47124
1.46591
1
0.65647
1.44134
1.3349
1
1.47162
1
0.657658
0.658346
1
1
1
1
1
0.657918
1
1.47144
1.1199
1.47142
1
1
1
1
1
1.47143
1
1.47537
1.27576
0.783324
1
1.00001
1.13399
1.11639
1
1
1.16613
1
0.657834
1.47163
1.47158
1
1
1
1.47156
1
1.00003
1.47132
1.47145
0.950693
1
1
0.65885
1.42687
1
1
1
1
1
1.47134
1.47119
1
1.47227
1.47142
1.47166
1
1
1
1
0.657212
1.47165
1
1
1.42724
1.47001
1
1.44279
1.47101
1
1
1
1
1
1.47117
1
1
1
1
1.47166
1
1.46657
0.657844
1
0.657553
1
1
1
0.996903
0.656501
0.999033
1
1
1
1.06419
1
1
0.869195
1
1
1
1
1
1
1
0.999997
0.926522
0.999999
1
0.997522
1
0.661283
1
1
1
1
1.34845
1
1
1
1
0.65748
1
1
1.44322
1.47164
1
1
1
0.887077
1
1
1
1
1
1
0.95227
1.01027
1.47188
1
1
1
1.47335
0.896522
1
1
1
1.47101
1.46914
1
1.00001
1
1
1
1
1
1
1
0.658222
1
1
1.47111
0.658322
1
1.47025
1
0.657475
1
1
0.658753
1
1
1
1
1
1
1
1.46203
1.4704
1
1
1
1
1.42909
1
1.14175
0.656865
1
1
1
1
1
1
1
1.03672
1
1
1.24797
1
1
1
1.38688
1
1
1
1
0.657656
1
1
0.644975
0.657098
1
1
1.47147
1
0.997978
1
1
1
1.32595
0.65567
1
0.646195
1
0.781454
1
1
1
1.47215
1
1
1.47162
1
1
1
1.47166
1
1
1.47138
1
1
0.657016
1
1.14089
1
1
1.47173
1.47156
1.31134
1.41973
1
0.656909
1
1
1.44977
1
0.658304
1
1
1
1.47181
1
1
1
1
1.27808
1
1.44227
1.47093
0.657708
1
1
0.658673
0.658349
1
1
1
1.33221
1.35323
1
1
1
1
1
1
1
1.19704
1.47165
1.00745
1
1.46578
0.657714
1
1
1
1.25356
1
1.09079
1
1.4287
1.46929
1
0.658089
1
1.47165
1
1
1.47165
1.44158
1
1.47414
1
0.658571
1
1
1
1.46986
1.46183
1.41291
1
1.47453
1.47149
1
1.4724
1
1.46938
1
0.657129
0.971303
0.657775
1
1
1
1
1
1.47136
1
1.47143
1
1
1
1.44739
1
0.656869
1.47166
1
0.657345
0.672729
0.6607
1
1.22747
1.03776
1.47315
1.4716
1
0.999999
1
1
1.47148
1
1
1.47139
1.47147
1
1.15766
1.00002
1
0.996819
1.4711
0.849397
1
0.826079
0.659198
0.658419
0.955282
1.47107
1.46473
1.09116
1.47169
1.47176
1
1
1.47098
1.47242
1.47166
1.47271
1
1.47157
0.657021
1.47044
1.47067
1.47073
1.47049
0.864957
0.895854
0.927106
1.47155
0.955311
1.47226
1
1
1.47344
1.47134
1
0.657659
1.4714
1.47155
1
1.47161
1.4716
1
1.47157
0.657395
1.47104
1.47151
1.47137
1.47314
1
1
1
1.47146
1.30188
0.671303
1.47159
0.650348
1.4715
1
1
1
1
1.47073
1.47178
1
1
1.47162
0.65594
1.47145
0.658228
1
1.468
1
0.658007
1.47288
0.739505
1
1.47163
1.47415
1.47066
1
1
1.22619
1.47341
0.656844
1.47141
1
1.47177
0.876939
1.4714
0.658089
1
1.47242
0.681055
1.47348
0.656647
1
1.47172
1
1.47111
1
1.27108
1.45323
1.36726
0.647762
1
1.47148
1
1.47149
1
1.47169
1
1
1.47173
0.984967
1.47443
0.658668
1.41725
1
1.3309
1
1.47159
1.47152
1.4713
1
1.42243
1.47083
1.43529
1.28326
1.47027
1
1.30877
1
1.47118
1
1.061
1
1.43523
1
1.47168
1.44908
1.44807
1
1.46556
0.657708
1
0.657977
1
1
1
1.47139
1
1.47209
1
1
1
1.47244
1.46058
1.3824
1.47021
1.47112
0.657892
1.47634
1.47137
1
1.40382
1.47148
1.46536
1
1.4716
1.4719
1
1.47788
1.47216
1.47198
1.47279
1
1
1
1.47138
0.657602
1
1.4716
1
1
0.658359
1
1
1.47146
1.47175
1
1.4714
1.47278
1.47193
0.974715
1.47132
1
1.47131
1.47154
1.37366
1
1
1
1.47048
1.4716
1.47178
0.944166
1
1.4786
1.47115
1.4713
1
1.47106
1.47111
1.47147
1.47948
1
1.47143
1.47419
1.40692
1.47222
1.47833
1
1.47136
1.46586
1.47176
1.47164
1.47211
0.657389
1.47164
1.47201
1
1.47119
1.47161
1.47156
1.47174
1
1.47157
1.47127
1
1.47142
1.39475
1
1
1
1.47181
1.47685
1
1
1.25035
1
1.47153
1
1
1.47169
1.47332
1.47143
1.47166
1
1
1
1.32684
1
1.4717
1
1
1.47098
1.47143
1
1.47151
0.649494
1.47163
1.47014
0.719193
1
0.64962
1.4076
1.46958
1.47169
1.47137
0.657578
1.47087
1.47257
0.6577
0.645504
1
1.47226
1.47124
1
1
1.4718
1
1.4726
1
1.41082
1
1.21595
1.47136
1.47396
1.32492
1.41949
1.4715
1.47288
1.4409
1
0.657795
1.47455
1.47135
1.47764
1.00001
1
1
1.47731
1
1.47162
1.47117
0.757715
1
1.47171
0.999938
1
1.00003
1.00004
1.47132
1.47103
0.998462
1
1
1.47145
1.47366
1.47158
1.47457
1.47141
0.667268
1.41639
1
1.46783
1.47148
1.47139
1.47139
1
1.47146
1.45811
1.4729
1
1.47181
1.47127
0.857231
1.47155
1.47162
1
1.47107
0.843732
1.47138
0.855271
1.47154
1
1.47146
1.47732
1.47149
1.47173
1.47153
1.47025
1.47216
1.47047
1
0.931174
1.47136
1.47141
0.845865
1.47153
0.980868
1.3011
1.47159
1.4719
1.47127
1
1.47443
1.30326
1.47323
0.918378
1.47399
1.4766
1
0.865199
1
1.46552
1
1.31942
1
1.44501
0.866839
1
1.47029
1.47157
1
1.47227
1.47339
1.4787
1.46992
1.47769
1
1.47164
1
1
1
0.897982
1.47142
1.47094
1.47194
1.47154
1.47152
1.47218
1.46727
1.47206
0.898423
1.0311
1
1
1.4777
1.47181
1.47143
1.47142
1.00003
1.23572
1
1.47733
1.41018
1
1
0.741919
1.47161
1
1
0.656827
1.47125
1
1.47143
1.47167
1.47155
1.45283
1.47161
1
0.653309
1.10607
1.4718
1.47146
1
1.47183
1.47147
1.22988
1.01142
1.09912
1
1.47112
1.4712
1
1
0.658556
1
1
1.47153
1.47164
1.47084
1.4714
1.47131
1.46931
1.47193
1.46993
1.47153
1
0.996202
1.47107
1.47144
0.996941
1.47146
1.4715
0.658033
0.657729
1.47123
1.47057
1
1
1.0016
1.4716
1.47085
1.47122
1
1.47146
1
0.855435
1.4783
1.47356
1
1.20183
1.47146
1
1.46994
1
1.47144
1.29545
1.46999
1
1.47189
1.46522
0.657714
1.47184
1
1.47195
1.47177
1
0.659495
1.4732
1.40946
0.997696
1.45673
1.47158
1
1.00036
1.47045
0.997884
1.47165
1
1
1.47038
1
1.47105
1.47143
0.9964
1.37706
1
1.47147
1
1
1
1
1.47143
1
1
1.4721
1
1.47094
1
1.29891
1.47246
1.47116
1
1
1.00307
1
1.47228
1.47181
1.47145
1.4712
1.47157
1.47147
1.47149
1
1.47169
1.47118
1
1.47164
1.47148
1
1.47034
0.926204
1.0593
1.47169
1.47118
1.47166
1
1.47134
1
1.47149
1.47136
1
1.47156
1
1
1
1
1.47143
0.651775
0.997889
1
1.47163
1.47643
1
1.47163
1
1.00553
0.657587
1.47153
0.999595
1
1.47053
0.998381
1.47103
1
0.999772
1
1.47027
1.47456
1.47177
1.47295
0.656451
1.47241
1.47243
1.47195
1.11272
1
1
1.19831
1.47128
0.649807
0.656388
1
1.47169
1.47138
1.47303
1
1
1.47196
1.47186
0.999883
1
1.33731
0.651316
1
1.08036
1.47139
1.47176
0.998258
1.4712
1.47941
1
0.998913
1
1.47033
1.47107
1.18455
1
1.43873
1
1.00214
1.47104
0.658118
1.47118
1.47147
0.996966
0.999912
1.40235
1
0.999695
1
1.47277
1
1.00001
0.649442
1.47167
1.00001
1
1
1
1.47496
1.26135
1
1
0.657572
1.47167
1.26239
1
1
1
1.44915
1.45297
1.47376
1
1
1.4765
1
1.47169
1.4716
1
1
1.47332
1.47109
1.44834
1
1
1.47346
1.47261
1
1
1
1.47265
1
1
1
1.47236
1.4764
1.47441
1
1.47566
1.00003
0.703481
1.47123
1.47106
1
1.47132
1.4554
1.4714
1
1
1.47494
1
1.25444
1.47091
1
0.659498
1
1.47357
1
1
1.47422
1
1
1
1.14644
1.47101
0.684673
1.00001
1.47293
1
1
1.47153
1
1.47537
1
1
1.47147
1.47148
1
1.00005
1
1
1
1
1
1
1.46952
1.47167
1
1.47154
0.657261
1.46961
1
1.47182
1.47919
1.47154
1.46765
1.47513
1
1
1.47365
1
1.28812
1.47629
1.47156
1
1.47432
1.46674
1
1.41871
1
1.47181
1.30268
1.47371
0.997506
1.46263
1.427
1.47281
1.47217
1.03651
1.47162
1.47502
1
1.47142
1
1.47136
1
1
1
1
0.996582
1.47123
1.47164
1.38436
1
1.47465
1
1
1
0.647757
1
1.45991
1
1.42701
1.46033
1
1
1
1.43958
1.47106
1
1
1.47112
0.658005
1.07767
1
1.47586
1.47129
1.42877
1.45926
1.4715
1
1.47325
1
1
1
1
1.47335
1.47189
1
1.45908
1.04974
1.47123
1.43822
1
1
1.44013
1
1
0.657456
1.3288
1
1
1.4703
1
1.47548
1.42793
1
1.42673
0.656992
1.47086
1.47102
1.4722
1
0.657469
1
1
1
1.4713
1.37955
1
1.47883
1.47154
1
1.47141
1
1
1
1
1.47148
0.999347
1
1.4735
1
1
1.4705
1.47176
1
1.47533
1.08799
1.00002
1
1.47105
1
1.471
1
1.01507
1.47137
1
1.47129
1
1
1.14312
1.47145
1
1
1
1
1
0.996614
0.658153
0.656292
1.02063
1
1.02688
1
1.0262
1
1.47136
1
1.29021
1
1.47148
1
1
1
1.4714
1
1.36549
1.47191
1
1.24524
1.47201
1
1
1.4714
1.47104
1
1
1.0444
0.648686
1
1.47251
1
1
1
1
1.07605
1.47167
1
1
1
0.657726
1
1.47148
1.47163
1.48142
1
1
1
1
1.23093
1.48235
1
1
1
1.47346
1.47151
1.04496
1
1
1
1.47134
1.47153
1
0.65908
1.47163
1.47174
1.47135
1.47247
1.47018
1
1
1.47752
1.47119
1.47149
0.657728
1.04163
1.47151
1
1
1
1
1
1.47153
0.657151
1
1
1.47138
1.20949
1
1.47673
1
1
1
0.657335
1
1
1.11573
1.47168
1.47191
1
1.4703
1.4735
1
1.07619
1
1.47588
1
1.47189
0.658968
1
1
1
1
1.47151
1.00007
1
1
1
1.453
1
1
1
1
1.47158
0.657715
1.37019
1.47437
1
1.47085
1
1
1
0.997134
1
1.47161
1
0.814504
1
1
1.00003
1.47128
0.657613
1
1.47156
1
1.47075
1.47173
0.657695
1
1
1.4591
1
1
0.65832
1
1.46485
1
1.44986
0.999309
1.47212
1
1
1
1
1.47152
1
1
1.47133
1
1
1
1
1
1
1
1
1.30516
1
1.15115
1.47117
1
1
1
0.657873
1
1
1
1
1.47244
1.47132
1.05057
1
1
1.47283
1
1
1.47142
1
1.00002
1
1
1
1.00001
1.47184
0.783518
1.47128
1.47347
0.996882
1
1
1
1.27228
1
1
1.47073
1.47117
1
1
1
1
0.657926
1
1
1
1.29061
1
1.47143
1.47519
1
1.47287
1
1
1
1.24995
1
1.47146
1
1.47157
1
1
0.996024
1.4715
1
1
1
1
1
1.47158
1.00002
1
0.657486
1.47483
0.658262
1
1.47079
1
0.995919
1
1.47277
1.47451
1
1.46447
0.880779
1.47127
1.47769
1.00003
1
1
0.65747
1
1
1
1.47158
1.26709
1.47054
1
1
1
1
0.996741
1.47175
1
0.658463
1
1
1
1
1
1
1
1.4783
1.47293
1.47094
1
1
0.996889
1
0.974359
1
1
1
0.657836
0.973869
1
0.655476
0.657475
1
1.4722
1.4715
1
1.47275
1.4714
0.657432
1.30487
1
1
1
0.65863
1.47237
1
0.657378
1
1.4735
1.08161
1
1
1
1
1.47149
1.47146
1
1
1.47176
1
1
1.47181
1.4718
1
1.44435
1.47188
1.47203
0.958447
1.47062
1.00878
0.657474
1.35865
1.47086
1
1
1
0.65763
1
0.657982
1.4755
0.957939
1.47129
0.951705
1
1.47224
1.21107
1
1
1.47106
1
1.18764
1.47226
1
1
1.46892
1.46693
0.657703
1.27088
0.999895
1
1.28289
1
1.47661
0.946036
1.48186
1.47159
1
1
1
1
1.46304
1
1
1.47283
0.999642
1.47173
1.37292
1.47124
0.658384
1
1
1
1
1.47166
1.00004
1.47135
1
1.47091
1.47033
1.05747
1.47464
1.14181
1.47174
1
1.31817
0.680942
1.4751
1.47147
1.37843
1.08063
1.47107
1.4713
1.47134
1.4722
1
0.91664
1.06684
1
1.4712
1.21987
1.47165
1.00003
1
1
0.692858
1.47119
1.47123
1.37998
1
1.17509
1
1.47543
1.47488
1
1.47197
1.47117
1
1
1
1.47175
1
1.1797
1.46978
1.32429
1
1.47099
1
1
1
1
1
1
1
1
1
1
0.682697
1
1.43968
0.657054
1.27127
0.998578
1.47332
1
1.24374
1.00001
1.29929
1.3988
1
1.00234
1.47659
0.908908
1
1.47309
1.46975
0.945194
1
1.4723
1.47171
1.47404
1
1.47153
1.47152
1.47198
1
1.21049
1
1.00006
1.47165
1
1.47091
1.0664
1.47077
1
1
1.47012
1.47362
0.689359
1
1.47115
1.35078
1.47052
1
1
1.47176
1.47047
0.998247
1
1.40916
0.996876
1.4715
1.00007
1
1
1
1
1.20927
1
1.36478
1.47204
1.34856
1.47249
1
1.00348
1
1
1.47205
1
1.47202
1
1
1
1
0.999999
1
1.05632
1.2416
1
1
0.657978
1
1.4712
0.686984
1.47623
1
1.22692
0.999749
1.47159
1.29819
0.674794
1.25369
1.00003
1.4717
1.47029
1
1.28163
1.4744
1.47245
0.998392
1.47054
1.45788
0.653757
1
1
0.997783
1
1.46491
1
0.679704
1.47307
1
1
1.41798
1
1.47193
1
1.4725
1
0.687769
1
1
1.47063
1.46556
1.47513
1
1.47345
1.47148
1.47365
1
1
1.45796
0.999999
0.742471
1
1
1
1.47184
1
1.47144
1.30225
1.4722
1
1.47127
0.999383
1
1
1
1
1
1
0.715106
1
1
1.47134
1
1.4757
1.47064
1
0.661906
0.658487
1
1.47324
1.07842
0.657171
0.635007
1
1.47241
1
1.47451
0.658977
1.00134
1
1
0.999519
1
1
1
0.999912
1.18728
1.47118
1
1
1.47275
1.2721
1
1.44075
1.47298
1.47163
1.1878
1.4697
1
1.47171
1
1.46515
1
1.47271
1.47024
0.996786
1.47227
1.47034
1
1
1
1
1
0.917745
1.47172
1.00004
1.00003
0.657837
0.99998
0.658177
0.651943
1
1.47162
1.47117
1.47171
1
1.4715
1
0.659668
1
1
1.47303
0.830912
1.47096
1
1.47121
1
0.981869
1.47121
1
1
1
1.47375
1
1.47152
0.657722
1
1
1.26824
1
1
1.25277
1
1
1.47084
1
1
1
1
1
1.47641
1.47135
1
1.4717
1.47246
0.659998
1.21146
1.47355
1
1
1.42291
0.998972
1
1
1.47154
1.47097
1.30649
1
1.47174
0.662291
1.43822
0.999719
1
1.47216
1.00003
1.47225
1.40001
1.35652
1
1
1.47132
0.717588
0.658064
1
1.47153
1
1.47104
1
1.27503
1
1
1.47041
1.29839
0.658727
1
0.9981
1
1
1.02657
1.18781
1.47138
1
1.47526
1
1
1
1
1
1
1.06765
0.656992
1
1
1.03212
1
1
1
1
1
1.47031
1
1
1.47148
1.47105
1.33237
1
1
1
0.833938
1.47268
1.32593
1
1
1
1
1.47137
1
1
1
1.47328
1
1
1.3375
1.48826
1.03786
0.758103
1.47272
1.33178
1.47209
1
1.2327
1
1
1
0.657186
1.00264
0.658154
1
0.658309
0.64564
1
0.658871
1
1
1
1.20446
1
1.47172
1.47046
1.00144
1.22126
1.39121
0.657838
0.770046
0.886734
1
1.47136
1.47152
1.47133
1.47157
1.40353
0.871933
1
1.40539
1
1.45035
1
1
0.996482
1.00907
1
1
1
1.47153
1
0.657805
1
1.47275
0.65766
1
1
1.47152
1
1.47145
0.99955
1
1
1.47252
1.41778
1
1.48741
1
1
1.01489
1
1.20418
1
1
0.65899
1
1
1.47341
0.999998
1.47075
1
1.00003
0.657966
1
1
0.657069
1.00089
1
1.47141
0.658158
1.47241
0.658269
1.47132
1
1
1
1
1
1
1
1
1
1
1
1.45149
1
1.47351
1.47162
0.657085
1
1
1
1
1
1
1.45799
1
1
0.659959
1
1
1.47145
1
1
1.17729
1.39345
0.657512
0.657803
0.702185
0.746676
1
0.996553
0.657551
1.00029
1.43294
0.99687
1
1
1.47151
1
1
1
0.776311
1.00001
1.16894
1
1
1.18923
1.47169
1
0.658288
1
1
1
0.99674
1.00001
1.47011
1.4715
1
0.658178
1
1.25066
0.658284
1
0.889578
1
0.996501
0.644113
1
1
1
0.995913
0.658118
1
0.658574
0.998427
1.24292
1.41975
0.657393
0.65784
1
0.989851
1
0.998643
1
1.47092
1.47118
1
1.01907
1.47159
1.4719
1
1
1.47146
1
1
1.00004
1
1.47229
1
1
1.01848
1
0.998566
0.701816
1
1
1
1
1
1.47532
1.03172
1.00005
1
1
1
1
1
1.00003
1
0.659731
1.10077
0.998611
1.47338
1.46977
1
1.01297
1.47174
1.40916
1
1
0.654802
1.47196
1
1.47173
1
1.47107
1.32266
0.657295
1
0.658039
1.44627
0.999678
1
0.657579
0.658352
1
1
1.39646
1
0.999998
0.652003
1
1
1
1.14747
1
0.657122
1.47276
1
1
1
1
1.47189
1
1
1.46922
1.42103
1
1
1
1.47407
0.649955
1
1.47152
1.4717
1
1.37242
0.999999
1.00003
1
1
1.44584
1.01854
1
0.658044
1.25546
1
1
0.997567
1
1
1.47507
1
1
1.00003
1
1.4709
1
1
1
1
1
1
1.00001
1.20403
1
1.47226
1
1
1.47314
1
1
1
1.47152
1.47086
1.04567
1
0.997599
1
1
1
1
1.47138
1
1
1.47156
0.658313
1
1
1
1
1
1
1.37918
1
1
1.47079
1.47207
1
1
1
1.47142
1.47146
1
0.999708
1.46704
1
1
1
1.00002
0.658109
1.0289
0.996157
0.995813
1
1
0.651866
1.47164
1
0.65819
1
1.4699
1.45159
0.657513
0.999407
1.47123
1.47098
1.47104
1
1
0.927007
1.42329
1.39648
0.658848
1
1
1
1.47108
1.47171
0.65509
0.997304
1
1.4713
0.657913
1
1.46163
0.660187
0.967315
1.0067
1
1.47182
1
1
1
1
1
1
1.00011
1.43841
1
1
1.47615
1
1
1
1.47142
1
0.659525
1
1
1
1.16046
1
1
1
1
1
0.792126
1
0.658066
1
1.47187
1.00007
0.859151
0.862998
1.00002
1.00502
1.24147
1
1
0.658217
1.47141
1.4719
1.47141
1
0.646411
0.655525
1
1.47099
1
1
1
1
1
1.00003
1
0.661289
1.30021
1
1
0.657818
0.986405
1.00001
1
1
1
0.643033
1
0.691287
1
1
1.4741
1
1
0.656905
1
1.47152
1
0.657674
1
0.66
1
1.00809
1.47108
1.48523
1
1
1.47177
1
1
1.10186
0.996792
1
0.998209
1
1.47407
1
0.657816
1.00002
1.47179
0.999
1
1
0.800984
1
0.999014
0.658716
1.47307
1.16492
1
1.00001
0.904887
1
1
1
0.797206
1
1
1
1.47146
1
0.657631
0.999999
1
1
1
0.65009
1.47151
1.43165
0.659989
1
1.47525
1
1
1.47126
1.47171
1.39552
0.654364
0.997703
0.999245
1
1.47146
1
1
1
1
1.47033
1.00004
1
1
1.47034
1
1
1.47173
0.65854
1
1
1
0.658873
1
0.999999
0.999999
0.998639
1
1
1
1
1.36651
1
1.47176
1.4719
1.48127
1.47159
1.47131
1.47142
1
1.47202
1
1.47132
1.47145
1
0.998839
0.65836
1.40233
0.999906
1
1
1
1
1.00023
1
1.07434
1
1
1
0.842537
1.47174
1.47033
1.4708
1.41042
0.999873
1
1.02337
1.47192
0.997923
1.05668
0.997281
0.65777
1
1.00002
1
1
1
1
1
1.47079
0.657255
1.4709
1.47172
0.995473
0.657788
1
1
1
1.47204
0.657751
1.41458
0.647579
1.47147
1.47076
0.66042
1.47122
1.02338
1
1.47459
0.79327
1
0.998756
0.657562
1
0.657803
1
1.47141
1.47168
0.766248
1
1.4714
0.657917
1
0.658617
1
1.47155
1
1
1.47145
1
0.837855
1
0.99966
0.657714
1.47374
0.999485
1
0.657714
1
1
1
1
1.24685
1
1.47195
1
1
1.47937
1
1
1.47122
1
0.657461
1
0.657899
1.00001
1
1
1
1
1.45095
1.27078
1.4714
1
1.4715
1.43673
0.642905
0.657807
1
1
1.47256
1
0.657357
1
0.98524
1
1
1.47148
1
1.47366
0.657077
1.47851
1
0.657445
1
1
1.47056
1.46962
1
1.00004
1
1.46971
1
1
0.653208
0.99942
0.657683
1
1
1
1.47341
1.47425
1.47174
1
1
0.658873
1
1.47167
1
1
1
1.44766
1.4717
1.47158
0.658231
1.47379
1.47131
0.665238
1.47138
1.00004
0.666629
1.01284
1
1
1.47099
0.65789
1.29678
0.657751
1.47133
0.997356
0.654211
1.47372
1
1
1
1
1.47179
1.47167
0.659772
1
1.00002
0.659402
1.00004
1
0.653305
0.657939
1.3251
1.47203
0.998464
1.47152
1
1.47711
0.816641
0.656962
1.47167
1.48451
1
1.47146
1
1
1.47152
1
1.35609
1.47158
1
1
1
1
1.47156
1.4658
1.47202
1
1
1.47334
1.47127
1.47179
1
1.47165
1
1
1
1
1
0.657467
0.843197
0.656902
1
1
1.47173
1
1
1.47241
0.647842
1
1.47152
1.46605
1.45002
0.646112
1
0.657792
1
1.00003
1.47143
1.21514
1.47105
1.42899
1
0.65821
1
1.47054
1.3339
0.657901
1
1
1
0.805938
1
1
1.47798
1
0.657312
1.47145
1
1
1
1
1
1.37594
1.09885
1
1.47176
1
1.47146
1
0.997335
1
1.4718
1.47064
1.47027
1.47587
0.999577
1.47107
1
1.47131
1.47043
1.39737
1
1
0.657581
1.47135
1
1
1.47124
1.47147
1.47294
1
1.47124
1
1
1.00003
1.47083
1.47377
1.12951
1.09536
1.47103
1.47202
0.694297
1
1
1
1
1.00001
1.15978
1
1
1.39238
0.657196
0.999974
1
1.47147
0.999889
0.999809
1.07026
1.44063
1.47124
0.906925
1
0.65773
1
1.00153
1.47179
1.47462
1.47254
0.999019
1
1
0.657855
1
1
1.47176
1.04952
1
1
1
1
1
1
1
0.999937
1.47176
1.00002
1
1
1
1
1.2982
1
1.21514
1
1
1.47141
1.47692
0.658268
0.998746
1
1
1
0.659218
1.47132
1.47132
1
1
1
1
1
1
1
1
1.47169
1.46959
0.65816
1.04978
0.660637
1
0.657668
1
1.47134
1.1241
1
1
0.713579
1
1.45046
0.812817
0.99652
0.65486
1
1
1.47021
1.00004
0.997173
0.641136
1.47228
1.47664
1
1
1
1
1.43945
1
1
1.47159
0.998944
1.47177
1.00004
1
1
0.65793
1
1
1.47152
0.657002
0.778058
0.65599
1.47149
0.999316
1
1.47208
0.658492
0.657517
1.01623
1
1
1.47152
1.00004
1.21471
1
1
1.47134
0.66064
1
1
1.00014
1.47146
1.00012
1.46961
1
1.00003
1
1
0.729206
1
0.786238
1.00002
1
1.47116
0.657798
1
0.78347
0.789616
1
1
1.47178
1
1
1
1.47146
1.4715
1.00005
1.45953
1.47147
0.785514
1.47155
1.44725
1
1
1.47054
0.999999
1
1
1
1
1.48053
1.47169
1
1
1
1.47161
1.00021
1
0.657936
0.724426
1
1.00003
1.17375
1
1
0.89742
0.657596
1
1
1
1.47658
1.43055
1.47178
1
1
1
1
0.657595
1
1.46077
1
1.46511
0.657548
1.47721
1
1
1
0.658569
1
1.47161
1.00003
1
0.65847
1.16765
1
0.999657
1.47556
0.647267
0.657103
1
1.47195
0.649376
0.657102
1
0.657611
1
1
1
1
0.657998
1
1
1
1
1.4703
1
1.35739
0.657843
1
1
1
0.65756
1.47168
1
1
0.996756
1.47039
1
1.47112
1.47137
1
1
0.721064
0.657143
1
1
0.657312
1.14071
1.21873
1
1
1.47418
0.997347
1
0.997788
1.47202
1
1
1
1
1
1
1.47103
1
1.16376
1.14706
0.69651
1.41513
1
1.47183
1.47127
1
1
1
0.908867
0.657702
1
1.22466
0.999654
1.41528
1
1
1
0.999999
1
1.00801
1.2059
1.47255
1.4705
1
1.47178
1
0.658528
1
0.997623
0.999778
1
0.65602
1
0.657007
1.00002
1.47519
1.47131
0.657427
1.4775
0.658467
0.996257
1.36225
0.659424
1.34138
1
1
0.998436
1
1
1
1.00006
1
0.657997
1
1
1
1
0.999589
1.47194
0.805989
1
1
1
1.03638
1
1
1
1.27569
0.755062
1
1
1
1.05052
1.47124
1
0.658279
1
1.47334
0.89411
0.657701
1
0.657368
1
1
1.44522
0.998245
1.43428
1
1.00879
1
1
1.4713
1
1
1
1
1.09214
1
1.47152
1.47328
1.47126
0.657545
1.47176
0.997123
1.38244
1
1
0.648201
1
1
0.656979
1.47206
1
1
0.999955
1
1
1
0.645087
0.658093
1
1.47152
1
1.21723
1.47139
0.658885
1.39148
1
1
0.671722
1
1
1.47154
1.47118
1.1681
1
1
1.00166
1.47179
0.657731
0.657174
1.47191
1.47161
1.3197
1.18139
1
0.898146
1
1
1
1.44089
1.47349
1.47129
1
1
1.47096
0.657151
1.42054
0.636816
1
0.656525
1
0.659446
1.47161
0.643923
1
0.980866
0.681193
1
1
1
0.846289
1.42824
1.4716
1.47196
1.4716
1
1
1.47165
1
1
1.47144
1
0.658265
1
0.657723
1
1.47165
1
1
1.01838
1.35821
1
0.998829
0.657356
1.47162
1.00001
0.657954
1.08553
1
1
1.35844
1.47203
1.47141
1
1.47242
1.12029
1
1.02468
1.47151
1
1
1
1
1.47134
1
0.652519
1.4718
0.658152
0.657145
0.82846
1.47231
1.16139
1.4721
1
1.47148
0.997505
1.00003
1.47128
1.47225
1
1.47154
1
1.47163
1
1.47172
1
1.00004
0.999966
1.47031
0.655417
0.656877
0.997821
0.999999
1
1
0.657795
1
1.30766
1
0.65002
1
1.17952
1.47107
1.47641
1
1
1.00003
0.999432
1
1.47133
1.4714
1
1.19393
1.47238
0.842542
1.47099
1.00061
0.65461
1.09754
0.658393
1
1
1.0765
1.47138
1
1
1.04032
0.998542
1
0.659082
1
0.785331
1
1.47106
1
1
0.657761
1.10191
1.06063
0.9985
1.47218
1.47159
0.777136
0.998073
0.657108
0.657513
0.658725
1
1
1
0.999053
0.722912
0.659139
1
1.47147
0.999742
1.47145
1.47124
1.47118
1.47107
1
0.659792
1.47147
0.659916
1
1.47111
1.4716
0.996584
0.81113
1.47165
1.34822
1
0.659925
1
1
1.47766
1
1.02563
1.4717
1
0.657089
0.657685
1
1
0.6469
0.64764
1.47139
1.00005
1
0.64845
0.647593
1.47418
1.45687
1.43935
1.47119
1.12327
0.97758
1.18707
1.46907
1.36873
1
1.23932
1
0.648475
0.860032
1
0.657741
1.47146
1.0224
1.473
1
1.47126
1.47159
1
1.47079
1.4716
0.657894
1.47517
1
1.47409
1
0.75108
0.657682
1.47156
1
1
1
0.657334
1.47149
1.47252
1
0.657846
1
1
0.65766
1.00004
0.643562
1.47116
1
0.820009
0.649489
1
1
1.27033
1
1
1
1.07798
0.657367
1
1.00001
1
1.47329
0.658469
1
1.4714
0.658583
0.65824
1
1
1.47087
1
1.47055
1.00001
1.47139
0.660197
1
1
0.657227
0.808541
0.657822
1
1
1
1
1.47495
0.653844
1
0.65742
1
1.4725
1
1
0.929647
1
1
0.827626
0.999694
1.00005
1
0.658408
0.656639
1
1
1
1
0.793476
1.46965
1.47122
1
0.657605
0.6582
0.905329
0.657463
1
0.82787
1
0.657911
0.97797
1
1
0.657171
1
1.47227
1.45622
0.657763
1
1
1
1.47619
1
1.0448
0.837324
1.1423
0.656483
1.18956
0.659345
1
1
0.717279
0.911667
1
1.03938
1
1
0.657924
1
0.93545
1.04122
0.658668
1
1.38618
0.757325
0.881927
1
1
1
0.656226
1
0.658126
0.657341
1
0.855265
0.657387
1.06491
0.750138
0.64942
1.47118
1
1.47137
1.25274
0.723926
1.47145
0.658209
0.998989
1.47169
0.999999
1
1.47236
1
0.726743
1
1.06575
1
1
1.47162
1
0.768773
0.818652
1.47134
0.933067
1
0.760926
1.47137
1.47135
0.910023
1
1.47151
1.11705
0.847299
1
1.01648
1
0.657131
1.19739
0.770796
0.743979
1
1
0.658947
1.47131
0.963976
0.658928
0.653132
0.864271
1
1.00799
1.47181
1.47158
1
1
0.999999
0.658101
1.2185
0.999989
1.47266
1.42948
0.657565
1.00001
1.09695
0.878095
1.28508
1.41035
1
1.04332
1
1.00005
0.648014
0.844899
1
1
0.814073
0.64906
1.0346
1
1.00002
0.648377
1.21058
1
1.46411
1
1.03739
1.25539
1
1.46029
1
1
1.47212
1
0.649469
1.47169
0.700488
1.12308
1
0.658177
0.999916
1
1.00003
1
0.791964
1.02671
0.657287
1.34647
1.47133
0.638775
1
1
1
1
1
0.964106
0.657444
1.05351
0.659298
0.658123
1.07643
1
0.9998
1.11244
1
1
0.65668
0.991049
1
1
1.12924
1
1.47141
1
1.47169
1.09331
1.02247
0.657913
1
1
0.65848
1
1
1
1
1.47219
1.04283
0.998079
1
0.64364
1.05287
0.999999
1
1.30532
1
0.656935
1.4703
1
1.00001
1
1.47116
0.657189
0.869933
0.649078
1.35248
1.47621
1
1
1.47165
1
0.647688
1
1
1
1
1
0.770288
1
1.47148
1
1
1.16056
1.47154
0.665322
0.869317
1
1.47141
1
1
1
1
1
1.47152
1.47157
0.647478
1.47138
0.641832
1
1
1.47147
1
1.47219
1.00837
1.02905
1.06099
1.47109
1.06866
1.31855
0.646599
1
0.644961
0.983877
1
1.47163
1
1
0.650827
1.47084
1
1.47146
1
1
1
1
1
1.00001
0.658407
1.47131
0.849075
1.47159
1
0.658636
0.663785
0.719539
1.47065
1.47113
0.962976
1
0.791834
1
1.17928
1
1.4719
0.643989
0.658907
0.846158
1
1.47142
1
1.07823
0.673549
1
1.47163
1.40368
0.998876
1
1.47115
0.657141
1.47602
1.47189
1.4706
0.657487
1.09202
1
1
0.641817
1
0.810503
0.831853
1
1.00002
1.4712
1
1.47035
1.08412
1
1.03522
1.47921
1
0.657707
1
0.774368
1
1
1.38438
1
0.794211
1
0.657195
1.03684
0.951874
0.648872
1.47181
1.37927
1.4715
0.657037
0.701173
0.995916
0.999999
1
0.68579
1.44404
0.657533
0.999966
1
1.4714
1.47111
0.900965
1
0.657511
0.708003
1.31138
0.971713
0.642418
0.999999
0.655331
1.11867
0.658016
1
1.00006
0.819879
1.47136
1.4709
0.840134
0.999595
1
1
0.721063
1
0.653758
1
0.654766
0.659118
1
1
1.00003
0.657123
1.47144
1
1
1.00007
1.00004
0.658184
1.47165
1.47171
0.999999
0.658702
1.47101
1
1.09767
1
1
1.47264
0.654397
1
1
0.657701
0.748968
0.658322
0.657685
1
0.700096
0.997127
1.09495
0.643924
1
1
1.13047
1
1.41599
1
1
1.32594
0.684832
1
0.657031
1.12769
1.47122
1
1
0.659181
0.657814
0.643285
0.735296
0.658673
1.35025
0.999411
1
1
1
1
1.47073
0.65875
1
0.935077
0.999676
0.998515
0.999936
0.760443
1.1285
1
1.47143
1.47116
1
1
1.45076
1.00004
0.999999
1.47168
0.658678
1.47276
0.999999
0.643569
1.4712
1.00005
1
0.82395
1
0.64904
1
1.47179
1
1
1.47523
1
1
1.47109
1
1
1
1.4717
1
0.751785
0.71946
1
0.636325
1.47123
1
1
0.969309
1
1.47424
1.26753
1.37621
1
1
0.664392
1
0.657732
1.47134
1.47188
1.47281
1
1.4713
0.659143
1
0.659634
1.37591
1.43772
1.4716
1.47131
0.765315
0.648727
1
1.30816
1.47115
1.47195
1.47148
0.75015
1.16543
1
1.3556
0.752124
1
1.00002
1
1.00002
0.895812
1
1.47533
1
1
1
1
1
1
1.00006
1.46908
1
1.47575
1.34754
0.658462
1.47138
1.02752
1.23165
1
1.47127
1
0.655506
1
1
1
1
1.4008
1
0.642173
1.47204
0.639763
1.47147
1.37367
1.23949
1
1.08634
1.21687
0.995973
0.657986
0.771738
1.00002
0.999999
0.916491
1
0.651244
1.47095
0.648138
0.927893
0.857223
1
1
1
1.01535
1
1
0.658174
0.996478
1.47187
1
1.47135
1
0.65374
1
1
1.47143
1.47251
0.644175
1
1.4715
1
0.806111
0.652163
1.47166
1.42155
1
1.07437
1.47118
0.998678
1
1.19259
1.41288
1.47038
0.995666
1
0.999998
1.39768
1
1
1
1.47147
0.998515
1
1
1.4716
1
1
0.660884
1
1
1
1.47173
1
1
0.855709
1.13996
1.42777
0.773855
1
1.47153
1
1.16381
1
1.47137
0.997272
1.47178
1
0.65867
1
1.31501
1
1
1.4391
1.00001
1.47151
1
1.47234
0.688062
0.660465
1.47182
1
1.40457
1
1.47168
1
1
1.00005
1.47084
1.47086
1.11905
1.4719
0.995567
0.658108
1.47164
0.867909
1
1.4695
1
1.47149
1
1.47381
1.47152
0.996217
0.655161
1
1.47148
1
1.03
1
1
0.997964
0.756692
1.42026
1
1.43105
1
0.870078
0.65074
1.47266
1.47171
0.697605
1
1.47154
1.4713
1.47133
0.694584
1.47097
0.671684
1.47155
1.47723
1
1
1.47138
1
1
1
1
0.657817
1
1
1.47174
1.47155
1
1.47167
1
1.47145
1.47127
1
1.39012
1
0.640782
1.47134
1.35439
1.127
0.642473
1.47136
1
1
0.650107
1
1
1.47141
1
1
0.786773
1
1.47133
1.00009
1.47211
0.649253
1.47115
1
1.47117
1.45268
0.89825
1
1.47043
0.764052
1.47416
1.32846
1.47144
1.47217
0.997167
1.47157
1.47148
1.47174
1.47158
1.00089
1
0.657348
1
1.47206
0.834408
1.42888
1
1.46291
1
1
1
1
1
1.46877
0.645169
0.659239
1.47182
1.47157
1
1
1
1
1
1.46797
1.42609
1.47184
1.01249
1
1
1
1.00003
1.47021
1.4714
1
1.4713
1.47133
0.656821
1.3272
1
1.47156
1.47592
1.46817
0.998015
1.47189
1.4716
1
1.42466
1
1
1
1
1
1
1.47136
1.47133
1.43781
1.47171
0.647606
0.696972
1.4715
1.47183
1
0.655005
0.942113
1
1.22235
0.65043
1
0.999463
0.99826
0.65863
1
1.47115
1
1
1
1.47175
0.937694
1
1.47153
1.47135
1
1.47169
1
1
1.47145
1
0.658547
1
1.47189
1
1
0.658737
1
1.47221
1
0.641514
0.65144
1
1.45827
1
0.633643
0.873114
1
1.47173
1
1
1
1.47625
1
0.656973
1.06572
1.47159
1.4732
1.47114
1.04082
1.47331
1.47158
1
1.00002
1
1
1.00001
1.47116
1
0.999305
1.47555
1
0.641536
1
1.47148
1.21573
1.05456
1.21409
1.06205
1.47284
0.708346
1.4711
1
0.660068
0.997111
1.47161
0.945848
1.47165
1.47164
1.45143
1
1.47162
1.47115
1.47115
1
1.00004
1
1
1.47174
1.33285
1
1
0.655704
0.996576
1
1.47133
1
1.4714
1.47102
1.47044
0.901945
1.47157
1.47155
1.00993
1.22347
1.47203
1.47169
1
1.43428
0.837724
1.44551
0.984456
1.4716
1
1.47161
1.47095
1
0.658833
0.933706
0.700525
1
1.08437
0.996852
1.47162
1
1
0.996781
1
1.22986
1.4467
1
1
1.47188
1
1
1.33485
1.47136
1.45194
1.47297
1.47143
1
1.4705
0.733519
1.47206
1
0.994711
0.657045
1
1
0.748134
1
1.1421
1
1.47347
1
1.46275
1.29397
0.658297
1
1
1
1
1
1.47161
1.01169
1
1.47166
1
1.47161
1.47143
0.999999
1
0.964332