/*--------------------------------*- C++ -*----------------------------------*\
  =========                 |
  \\      /  F ield         | OpenFOAM: The Open Source CFD Toolbox
   \\    /   O peration     | Website:  https://openfoam.org
    \\  /    A nd           | Version:  12
     \\/     M anipulation  |
\*---------------------------------------------------------------------------*/
FoamFile
{
    format      ascii;
    class       volVectorField;
    location    "4.72";
    object      U;
}
// * * * * * * * * * * * * * * * * * * * * * * * * * * * * * * * * * * * * * //

dimensions      [0 1 -1 0 0 0 0];

internalField   nonuniform List<vector> 
22702
(
(2 -1.04391e-13 0)
(2 1.45561e-13 0)
(2.06218 -0.0869229 0)
(2 -1.14246e-09 0)
(1.96677 0.0296074 0)
(2 -5.85536e-14 0)
(1.82959 0.228789 0)
(2 1.19763e-13 0)
(2 -6.81432e-14 0)
(2.18771 -0.261139 0)
(1.82949 0.228203 0)
(1.82944 0.228639 0)
(2 -1.94249e-14 0)
(1.83164 0.229606 0)
(2.04681 -0.0724569 0)
(2 -2.11214e-13 0)
(2 -1.00411e-13 0)
(2 -1.92871e-14 0)
(1.82962 0.22819 0)
(2 1.11581e-14 0)
(1.83216 0.228806 0)
(2 -3.5701e-13 0)
(1.82964 0.228618 0)
(2.10461 -0.261102 0)
(1.8316 0.228648 0)
(2.1455 -0.263225 0)
(2 1.73175e-14 0)
(1.83127 0.228727 0)
(2.15091 -0.27165 0)
(2.10187 -0.260594 0)
(2 -3.73362e-14 0)
(1.82917 0.228723 0)
(2 -2.45086e-14 0)
(2 -8.88002e-14 0)
(2 -3.96534e-14 0)
(1.84632 0.214991 0)
(1.83327 0.227119 0)
(1.82952 0.228425 0)
(2 -1.24063e-13 0)
(2 -1.74672e-13 0)
(2.17456 -0.254285 0)
(2 -2.88265e-14 0)
(1.91928 0.125558 0)
(2 -1.11748e-13 0)
(1.83125 0.228564 0)
(2 -3.31809e-13 0)
(2 1.32942e-13 0)
(2 -1.51385e-13 0)
(2 -2.77876e-13 0)
(2.11134 -0.265009 0)
(2 -4.90039e-14 0)
(2.0962 -0.262818 0)
(2 -1.57473e-13 0)
(1.82978 0.228053 0)
(2 -3.06057e-13 0)
(1.82892 0.229014 0)
(2 7.76288e-14 0)
(2 1.68631e-09 0)
(2 -1.26258e-13 0)
(2 -3.66279e-13 0)
(2.1072 -0.273078 0)
(2 -1.51265e-13 0)
(2 -7.77338e-15 0)
(2.14039 -0.26498 0)
(2 7.15232e-15 0)
(2.09994 -0.264982 0)
(2 -8.43983e-14 0)
(2 -2.76288e-13 0)
(2 -1.96873e-14 0)
(2.17268 -0.257574 0)
(2 3.47486e-14 0)
(1.83135 0.22868 0)
(1.89013 0.146952 0)
(2 1.8822e-09 0)
(1.83032 0.22849 0)
(1.81953 0.235459 0)
(2.11873 -0.263094 0)
(1.83113 0.228814 0)
(2.10727 -0.267269 0)
(2 -1.20788e-14 0)
(1.83086 0.228814 0)
(2.11137 -0.263138 0)
(1.82842 0.228334 0)
(1.82934 0.228133 0)
(2 -1.57865e-13 0)
(2 9.04964e-07 0)
(2 -4.35476e-14 0)
(2 -1.48437e-13 0)
(2.02298 -0.0446998 0)
(2.18415 -0.267158 0)
(1.82839 0.228443 0)
(2 -8.70989e-14 0)
(2 -3.72406e-11 0)
(2.12032 -0.262927 0)
(2 -4.53061e-14 0)
(1.83205 0.228791 0)
(2.11685 -0.259134 0)
(2 2.63936e-08 0)
(2 5.84979e-14 0)
(2 -2.80011e-13 0)
(2 -1.11875e-13 0)
(1.90835 0.121052 0)
(1.8305 0.228751 0)
(2.13524 -0.267319 0)
(2 -4.62525e-11 0)
(2 -9.57877e-10 0)
(1.95366 0.0620909 0)
(2 9.02396e-09 0)
(2.11161 -0.262877 0)
(2 -2.85076e-13 0)
(1.83023 0.228541 0)
(1.83004 0.229181 0)
(2 4.4124e-09 0)
(2 -2.88725e-13 0)
(2.08724 -0.280175 0)
(2.0867 -0.274814 0)
(2.18755 -0.269462 0)
(2 7.29378e-14 0)
(2 -1.38838e-07 0)
(2 -7.80594e-15 0)
(2 -2.40474e-13 0)
(2 1.09486e-07 0)
(2.03226 -0.0524195 0)
(2 -1.1116e-07 0)
(1.85153 0.199596 0)
(1.96867 0.0241671 0)
(1.83122 0.2288 0)
(2 -3.16839e-13 0)
(1.82998 0.228534 0)
(1.83007 0.22856 0)
(1.83201 0.228835 0)
(1.82906 0.228544 0)
(2 -1.22465e-14 0)
(2.15438 -0.268669 0)
(2 -1.40074e-13 0)
(2.0612 -0.257516 0)
(2 2.74622e-14 0)
(2 -7.1403e-14 0)
(2 -2.96943e-15 0)
(2 -3.96499e-14 0)
(1.83069 0.229126 0)
(2 2.88347e-09 0)
(2 -1.38565e-14 0)
(2 -2.75757e-13 0)
(2 -2.05754e-14 0)
(1.82942 0.228827 0)
(2 1.68154e-14 0)
(1.99397 0.0142584 0)
(2 5.19011e-14 0)
(2 -3.98141e-13 0)
(2 -6.34385e-11 0)
(2 -1.4421e-14 0)
(2.11105 -0.264015 0)
(2 -5.441e-14 0)
(1.99553 0.00894677 0)
(2 -3.91561e-14 0)
(2.10375 -0.263932 0)
(2 -1.2392e-13 0)
(2 -7.35658e-14 0)
(2 -1.14907e-13 0)
(1.8284 0.228862 0)
(2 -4.5593e-15 0)
(1.83108 0.228799 0)
(2.13254 -0.271648 0)
(2.13416 -0.266399 0)
(1.83043 0.228497 0)
(1.83159 0.229055 0)
(2 2.08454e-14 0)
(1.95892 0.0399731 0)
(1.89868 0.138753 0)
(2 -5.97586e-14 0)
(1.82955 0.229195 0)
(2.11043 -0.26841 0)
(1.84662 0.215409 0)
(2 3.24048e-14 0)
(2 2.32259e-14 0)
(2 5.67642e-14 0)
(2 -6.50239e-14 0)
(1.83142 0.229353 0)
(1.86696 0.187036 0)
(2 -6.66104e-14 0)
(1.82901 0.228719 0)
(2.09335 -0.257068 0)
(1.82884 0.229056 0)
(2 -1.02167e-14 0)
(2.10901 -0.26244 0)
(2 -2.60452e-14 0)
(2.0978 -0.264259 0)
(2.14473 -0.268706 0)
(2.00009 -0.000140852 0)
(2 -1.87207e-14 0)
(2 1.44058e-13 0)
(1.82812 0.229414 0)
(2 9.86045e-14 0)
(2 -4.02559e-13 0)
(1.83193 0.229212 0)
(2 -2.03052e-13 0)
(1.82814 0.228553 0)
(1.82895 0.22898 0)
(2.09559 -0.277102 0)
(2 5.25085e-14 0)
(2 -3.15457e-13 0)
(2.10601 -0.260238 0)
(1.83154 0.228866 0)
(2 -1.4988e-14 0)
(2 2.77581e-14 0)
(2 1.18295e-14 0)
(1.83152 0.228803 0)
(2 -4.29976e-14 0)
(2.14888 -0.263642 0)
(2 -6.57817e-11 0)
(2 2.68019e-14 0)
(1.83149 0.229007 0)
(1.83137 0.229237 0)
(1.82866 0.228432 0)
(2 -1.72384e-14 0)
(1.99999 2.50989e-05 0)
(2 7.59652e-14 0)
(2 -1.10179e-13 0)
(2 -1.71014e-13 0)
(1.83164 0.228847 0)
(2 -1.97729e-13 0)
(2.07108 -0.259589 0)
(1.82343 0.234756 0)
(1.83146 0.228919 0)
(1.83158 0.228411 0)
(2 1.88227e-07 0)
(2 -1.6386e-13 0)
(2 -1.3368e-13 0)
(2.11588 -0.269009 0)
(1.83144 0.229884 0)
(1.91486 0.133262 0)
(2 2.06584e-14 0)
(1.83116 0.229227 0)
(2.08447 -0.264243 0)
(2.11237 -0.272245 0)
(1.83124 0.229234 0)
(1.83101 0.228418 0)
(2 -4.36698e-15 0)
(1.83258 0.229649 0)
(2.09936 -0.275928 0)
(1.84762 0.204085 0)
(2 -8.42871e-14 0)
(2 -1.65737e-13 0)
(2 -5.67751e-14 0)
(2 -2.60639e-13 0)
(1.83208 0.228999 0)
(2 -2.54567e-13 0)
(1.90392 0.137071 0)
(1.98176 0.0331356 0)
(2 -2.85422e-13 0)
(2 -8.24446e-14 0)
(1.83178 0.229053 0)
(2.07702 -0.271767 0)
(2.08027 -0.158098 0)
(2 -3.42734e-13 0)
(1.83247 0.226457 0)
(2.14395 -0.257862 0)
(1.8313 0.230804 0)
(2 6.51492e-14 0)
(2 -1.57883e-15 0)
(2 -1.05967e-13 0)
(2 -3.93751e-14 0)
(2 1.22574e-13 0)
(2 -5.19885e-15 0)
(2 1.91058e-13 0)
(2.1172 -0.269433 0)
(2.11184 -0.155082 0)
(2.10809 -0.265157 0)
(1.83178 0.228641 0)
(2 -2.22847e-13 0)
(2 -2.84895e-14 0)
(2 -1.01447e-07 0)
(2 -1.3643e-13 0)
(1.84347 0.209739 0)
(2 -1.24211e-07 0)
(2.1144 -0.26925 0)
(2 -2.13858e-14 0)
(2.12121 -0.278674 0)
(2.10818 -0.260819 0)
(1.83196 0.227987 0)
(2.11256 -0.25982 0)
(1.83226 0.22882 0)
(2 -8.4263e-14 0)
(2 -9.55675e-14 0)
(2 -1.87183e-13 0)
(2.00086 -0.00153558 0)
(2.1107 -0.265794 0)
(2.14591 -0.267869 0)
(2 -2.89991e-07 0)
(2 -1.50666e-07 0)
(2.12048 -0.278171 0)
(2 2.43333e-09 0)
(1.8304 0.228969 0)
(2.14666 -0.257578 0)
(2 -2.14e-14 0)
(2 -2.4047e-11 0)
(1.83016 0.228724 0)
(2.16148 -0.273677 0)
(2 -2.83756e-13 0)
(1.83158 0.226696 0)
(2.11912 -0.262259 0)
(1.83191 0.229097 0)
(2 -1.38254e-13 0)
(2.11462 -0.287284 0)
(2.00083 -0.00159003 0)
(2 -1.45642e-14 0)
(2 2.77707e-06 0)
(2 1.04379e-13 0)
(2.10061 -0.262223 0)
(2 -3.57035e-13 0)
(2 -1.72964e-07 0)
(2 -3.91108e-08 0)
(1.99999 5.65398e-06 0)
(2.00078 0.00160006 0)
(1.88795 0.145743 0)
(2 -2.81548e-11 0)
(2.07904 -0.254261 0)
(2 -1.46407e-11 0)
(2 1.25267e-06 0)
(2 -8.72874e-14 0)
(2 -3.69576e-13 0)
(2 -1.91196e-15 0)
(2 2.95794e-14 0)
(2 -9.50108e-13 0)
(1.82915 0.228476 0)
(2 2.41938e-13 0)
(1.82798 0.229398 0)
(2 2.52636e-13 0)
(2 -3.21569e-13 0)
(2 -9.92656e-15 0)
(2.13935 -0.257709 0)
(2 3.35674e-14 0)
(1.83013 0.229069 0)
(2.10906 -0.263661 0)
(2 1.42285e-14 0)
(1.85894 0.199592 0)
(2 -1.61429e-13 0)
(2 -2.22278e-13 0)
(1.8301 0.228833 0)
(2 1.37392e-14 0)
(2 -8.3501e-09 0)
(2 1.70283e-14 0)
(1.82926 0.227801 0)
(2 4.48838e-10 0)
(2 -6.04826e-14 0)
(1.83034 0.231496 0)
(1.83029 0.228504 0)
(2 8.03347e-14 0)
(1.95941 0.0537198 0)
(2 1.48473e-13 0)
(2 -9.43752e-15 0)
(2.06564 -0.261596 0)
(2 -2.24849e-13 0)
(2 4.84379e-14 0)
(2 4.96339e-14 0)
(2.11902 -0.259703 0)
(2 1.33744e-13 0)
(2 5.3605e-14 0)
(2 -3.03609e-14 0)
(2 -5.68645e-14 0)
(2.07685 -0.262239 0)
(2 -2.2364e-13 0)
(2 2.27555e-14 0)
(2 -2.30454e-13 0)
(2 -1.82911e-13 0)
(2 -5.02296e-14 0)
(2.12485 -0.259427 0)
(1.99997 3.76924e-05 0)
(1.83147 0.228883 0)
(2 1.09502e-13 0)
(2.00002 -1.20627e-05 0)
(1.83155 0.228802 0)
(1.83055 0.228863 0)
(2 2.93977e-14 0)
(2 1.71095e-14 0)
(2.09693 -0.276605 0)
(2.04112 -0.131991 0)
(1.83057 0.22853 0)
(2 -3.24793e-14 0)
(2 8.66782e-14 0)
(2 1.70216e-14 0)
(1.83198 0.228967 0)
(2.17073 -0.257733 0)
(2 1.21798e-13 0)
(1.83127 0.228927 0)
(2 7.79527e-14 0)
(2 9.71493e-15 0)
(2.07936 -0.21925 0)
(2.09065 -0.215109 0)
(2 1.56516e-14 0)
(2.12263 -0.267969 0)
(2.12732 -0.257654 0)
(2 -6.69432e-14 0)
(2 1.09971e-14 0)
(2 -1.97114e-15 0)
(2 6.5961e-14 0)
(2 -8.87462e-11 0)
(2 2.01971e-14 0)
(2 -5.27513e-14 0)
(1.83177 0.22887 0)
(1.96606 0.0632677 0)
(1.83919 0.218544 0)
(2.12015 -0.254352 0)
(2.03497 -0.0642041 0)
(1.8312 0.228826 0)
(2 -5.18829e-13 0)
(1.82907 0.228485 0)
(1.82986 0.228599 0)
(2.09818 -0.268795 0)
(2.05194 -0.16021 0)
(2 5.20133e-13 0)
(2.14237 -0.253731 0)
(2 9.8747e-14 0)
(1.82229 0.235096 0)
(2 -1.30201e-13 0)
(2 -1.98229e-14 0)
(2 -1.38582e-13 0)
(2 4.6912e-14 0)
(1.83153 0.228922 0)
(2 -2.73922e-13 0)
(2 4.10873e-14 0)
(2 -1.7951e-14 0)
(2 1.60417e-09 0)
(2 -5.71329e-15 0)
(2 -1.38736e-13 0)
(2 -1.30318e-13 0)
(1.93909 0.09034 0)
(1.82842 0.229101 0)
(2 -2.25474e-13 0)
(1.83169 0.228728 0)
(2 -8.82603e-15 0)
(2 -2.17895e-13 0)
(2.10932 -0.263348 0)
(2 1.07581e-13 0)
(2 -1.44594e-13 0)
(2 -1.88162e-13 0)
(2 -2.23283e-13 0)
(1.83153 0.228791 0)
(1.8725 0.18252 0)
(2 -2.21958e-13 0)
(2 -2.46994e-13 0)
(2.12201 -0.26221 0)
(1.83109 0.228956 0)
(1.83149 0.229031 0)
(2 -1.52474e-14 0)
(1.83155 0.229069 0)
(1.83156 0.228955 0)
(1.83147 0.229108 0)
(2 -9.65663e-14 0)
(2.03406 -0.116117 0)
(2 -3.66648e-14 0)
(1.83181 0.22892 0)
(1.9978 -0.0084652 0)
(1.8315 0.22902 0)
(2 -1.27065e-14 0)
(2.11276 -0.257559 0)
(2.00037 -0.000753545 0)
(1.83026 0.228856 0)
(2 6.48958e-14 0)
(2 -1.14332e-13 0)
(2 -4.62384e-11 0)
(2 -2.4661e-11 0)
(2.11553 -0.264157 0)
(1.83153 0.228492 0)
(1.84809 0.212937 0)
(2 7.25226e-14 0)
(1.82995 0.230932 0)
(1.83192 0.228975 0)
(1.83068 0.228651 0)
(2 5.85201e-14 0)
(1.91771 0.123692 0)
(1.83216 0.228156 0)
(2 -3.03348e-13 0)
(2 -1.38839e-13 0)
(1.88424 0.165455 0)
(1.97853 0.0408287 0)
(1.83155 0.228872 0)
(2.01829 -0.0498195 0)
(1.83145 0.228982 0)
(2 2.56902e-14 0)
(1.83134 0.229132 0)
(1.83159 0.229012 0)
(1.83134 0.229248 0)
(1.8311 0.228791 0)
(2 1.63239e-13 0)
(1.84189 0.218394 0)
(2.03212 -0.0639503 0)
(2.04269 -0.0789226 0)
(2 -1.36141e-14 0)
(2 -3.78972e-07 0)
(2 5.34096e-14 0)
(2 -5.75193e-14 0)
(1.83184 0.229807 0)
(2 -2.46356e-14 0)
(2 1.00805e-13 0)
(2 -7.22833e-14 0)
(2 8.10361e-14 0)
(2 5.15476e-14 0)
(1.83016 0.228807 0)
(2 4.16943e-14 0)
(2 -1.37412e-14 0)
(2.0014 -0.00221754 0)
(1.83161 0.228978 0)
(1.85102 0.215397 0)
(2 -1.29512e-13 0)
(1.85713 0.204941 0)
(1.99998 2.3094e-05 0)
(2 7.81323e-16 0)
(2 -1.47766e-13 0)
(1.83152 0.228996 0)
(2 7.35435e-14 0)
(2.00181 -0.00328186 0)
(1.99896 0.00313816 0)
(2 7.33279e-14 0)
(1.83142 0.229196 0)
(2 -1.40637e-13 0)
(1.83132 0.229919 0)
(2 5.2591e-14 0)
(2 4.45361e-14 0)
(1.87521 0.178468 0)
(2 4.31691e-14 0)
(1.8312 0.229489 0)
(1.99999 1.37023e-05 0)
(2 -1.3361e-13 0)
(1.83242 0.227347 0)
(2 -2.8934e-14 0)
(1.83165 0.22878 0)
(2 -2.8236e-14 0)
(2 2.85226e-06 0)
(2 -2.92765e-14 0)
(1.83214 0.22902 0)
(2 -3.26799e-14 0)
(1.82854 0.231019 0)
(2 3.95102e-06 0)
(1.8317 0.228907 0)
(1.8297 0.22897 0)
(1.8313 0.228891 0)
(1.8312 0.22887 0)
(2 -1.9022e-14 0)
(1.83102 0.228536 0)
(1.83732 0.225682 0)
(2 -2.24168e-14 0)
(2.10183 -0.262358 0)
(1.84202 0.217798 0)
(1.87676 0.172312 0)
(2 -4.58562e-14 0)
(1.83163 0.22904 0)
(2 1.3026e-13 0)
(2.07521 -0.272891 0)
(2.10995 -0.269996 0)
(2 -1.26014e-13 0)
(2 -5.71215e-14 0)
(2 -5.095e-14 0)
(2 -1.8015e-13 0)
(2 1.70769e-09 0)
(2.12256 -0.266681 0)
(2 2.48284e-15 0)
(1.83174 0.228673 0)
(1.95304 0.0709049 0)
(1.83124 0.228906 0)
(2 -9.00386e-14 0)
(2 4.07499e-11 0)
(2 1.3347e-13 0)
(2 1.0212e-13 0)
(2 -5.25086e-08 0)
(1.83155 0.228966 0)
(2 -1.41954e-13 0)
(1.82997 0.230968 0)
(1.90141 0.144605 0)
(2.05107 -0.163124 0)
(2 1.30273e-09 0)
(1.99999 6.90547e-06 0)
(1.94745 0.077381 0)
(1.96112 0.0628631 0)
(2 3.61502e-14 0)
(2 -7.67276e-14 0)
(1.94888 0.0940734 0)
(2 3.27781e-14 0)
(2.10606 -0.26265 0)
(1.83163 0.228546 0)
(1.83165 0.228544 0)
(2 -6.60043e-11 0)
(2 -8.64235e-15 0)
(2 -3.48043e-14 0)
(1.83038 0.229151 0)
(2 -1.26028e-13 0)
(1.99999 1.65347e-05 0)
(1.83259 0.227296 0)
(1.83168 0.228799 0)
(2.0155 -0.031715 0)
(2 -1.96683e-14 0)
(2 2.32365e-10 0)
(2.11104 -0.26495 0)
(1.84718 0.211684 0)
(2 -1.05785e-13 0)
(2 -2.47997e-13 0)
(2 3.59678e-14 0)
(2 -2.48703e-11 0)
(2 -9.35817e-14 0)
(1.83158 0.228881 0)
(1.83125 0.228789 0)
(2 -1.62066e-13 0)
(1.83251 0.227105 0)
(1.82988 0.230786 0)
(1.8315 0.229147 0)
(2 5.87823e-14 0)
(2 -8.3571e-14 0)
(2 -5.70547e-11 0)
(2 -1.53574e-13 0)
(2.15367 -0.259647 0)
(1.82941 0.228442 0)
(2 -4.07364e-11 0)
(2 1.35529e-13 0)
(1.84955 0.212704 0)
(1.83211 0.228503 0)
(2 -1.21437e-13 0)
(1.84323 0.217832 0)
(1.82846 0.228806 0)
(2 -1.39451e-13 0)
(2 -2.1637e-07 0)
(2 8.94856e-11 0)
(2 2.76621e-13 0)
(2 -3.0366e-14 0)
(1.83125 0.229113 0)
(2 2.0648e-13 0)
(2 -9.30879e-14 0)
(2 -2.47279e-13 0)
(2 -1.04243e-13 0)
(1.83054 0.229121 0)
(2 -1.6353e-13 0)
(1.83467 0.227593 0)
(2.1263 -0.253717 0)
(2 9.43024e-14 0)
(2.11451 -0.268632 0)
(2 2.88573e-14 0)
(2 -1.10922e-07 0)
(2 1.98646e-14 0)
(2.00097 -0.0018195 0)
(2.11313 -0.263417 0)
(2.00029 -0.000525472 0)
(2 2.91764e-14 0)
(2 -1.16214e-14 0)
(2 -1.19332e-07 0)
(1.97713 0.0342314 0)
(2 -1.70788e-13 0)
(2 9.86932e-14 0)
(2.03138 -0.0859706 0)
(2 -2.04261e-07 0)
(2 -4.13706e-14 0)
(2 1.3907e-13 0)
(2 -2.22937e-07 0)
(2 5.386e-07 0)
(2 -1.05664e-07 0)
(2 -1.15842e-13 0)
(2 -1.63797e-06 0)
(2.02885 -0.0517027 0)
(2 -4.96038e-07 0)
(2 -3.52418e-08 0)
(2.00096 -0.00127054 0)
(2 -1.05232e-14 0)
(2.11598 -0.263949 0)
(2 -2.63402e-11 0)
(2 -4.13207e-12 0)
(2 -2.61176e-11 0)
(2 -5.35577e-14 0)
(1.87314 0.1795 0)
(2 1.47233e-13 0)
(2 -5.35506e-14 0)
(2 -9.0155e-14 0)
(2 -1.709e-07 0)
(2.10387 -0.262598 0)
(2 -2.42896e-14 0)
(2 9.3912e-10 0)
(1.8415 0.218277 0)
(1.82918 0.228542 0)
(2 -2.78469e-07 0)
(2 3.51779e-14 0)
(2 -1.17316e-07 0)
(2.03864 -0.0725954 0)
(2 -1.21105e-13 0)
(2 4.7101e-10 0)
(2 -4.31913e-15 0)
(2 4.7233e-14 0)
(2 -6.91627e-14 0)
(2 1.66987e-13 0)
(2.00945 -0.0307168 0)
(1.99369 0.00667737 0)
(1.83175 0.229314 0)
(2 1.37021e-14 0)
(2 -9.48186e-14 0)
(2 -1.25533e-14 0)
(1.8311 0.230143 0)
(2.04213 -0.0656715 0)
(2 -4.67598e-09 0)
(2 3.74055e-14 0)
(2 -4.22419e-14 0)
(1.83036 0.228574 0)
(1.83076 0.228729 0)
(2 -2.97779e-08 0)
(2 5.10894e-06 0)
(2 3.73164e-09 0)
(2 1.0991e-14 0)
(2 1.32738e-09 0)
(2 3.33928e-14 0)
(2 -3.65134e-11 0)
(2 -1.10856e-13 0)
(2 -2.90809e-14 0)
(2.13577 -0.257476 0)
(2 7.89397e-14 0)
(2 -1.50466e-11 0)
(1.82832 0.228483 0)
(2.15055 -0.263782 0)
(2 9.82401e-15 0)
(1.82879 0.227705 0)
(2 5.10906e-11 0)
(2.10709 -0.260909 0)
(2 3.12085e-14 0)
(2 7.44322e-14 0)
(2.12931 -0.261757 0)
(2 -1.78423e-13 0)
(2 -1.27436e-11 0)
(2 -6.80055e-12 0)
(2 6.50261e-14 0)
(2 -3.38065e-12 0)
(2 -1.5603e-13 0)
(2 1.07087e-13 0)
(1.83378 0.224219 0)
(1.83183 0.228427 0)
(2 3.03498e-13 0)
(2 3.33847e-14 0)
(2 -5.43855e-14 0)
(2 3.80167e-13 0)
(1.84884 0.213379 0)
(2 3.59197e-13 0)
(1.9466 0.0806444 0)
(2.11452 -0.268221 0)
(2 -3.19588e-08 0)
(2 3.41907e-13 0)
(2 -2.98798e-14 0)
(2 -2.49039e-13 0)
(2 6.25879e-14 0)
(2 6.46428e-14 0)
(2 9.56713e-14 0)
(1.98113 0.0258891 0)
(2 -3.99425e-14 0)
(2 1.80047e-14 0)
(1.90921 0.121813 0)
(2 1.34211e-14 0)
(2 1.22271e-14 0)
(2 9.16768e-14 0)
(1.8571 0.193118 0)
(2 -9.51738e-14 0)
(2 -5.35987e-14 0)
(2 8.23374e-14 0)
(2 1.06911e-13 0)
(2.13073 -0.255889 0)
(2 2.6901e-12 0)
(2 8.49072e-14 0)
(2.13305 -0.274883 0)
(2.13571 -0.262356 0)
(2 -2.87201e-13 0)
(2 1.01658e-13 0)
(1.83197 0.228923 0)
(2 8.19744e-14 0)
(1.98384 -0.00463292 0)
(2 3.77085e-14 0)
(2 3.11861e-14 0)
(2 -6.90856e-14 0)
(1.88341 0.165728 0)
(2.09971 -0.276676 0)
(2 -1.15057e-13 0)
(2.10672 -0.28845 0)
(2 6.63174e-14 0)
(2.07019 -0.158753 0)
(2 -1.08569e-15 0)
(2 -1.56384e-14 0)
(2 -1.12829e-13 0)
(1.83043 0.229577 0)
(2 -3.69886e-08 0)
(2 -3.14329e-13 0)
(1.83128 0.229263 0)
(2 -4.90564e-14 0)
(2 -3.84707e-11 0)
(2 1.69051e-09 0)
(1.83135 0.229004 0)
(2 2.30891e-10 0)
(2 -1.71123e-13 0)
(1.83152 0.229013 0)
(2 -2.64649e-13 0)
(2 -1.53332e-13 0)
(2.0899 -0.26478 0)
(2 -1.68182e-11 0)
(1.94698 0.0831705 0)
(2 -7.8685e-14 0)
(2 -3.81073e-14 0)
(1.83112 0.228947 0)
(1.83051 0.228607 0)
(1.88622 0.164353 0)
(1.8464 0.208298 0)
(2 -5.5743e-14 0)
(2.12093 -0.262645 0)
(2 -1.8944e-13 0)
(2 1.52379e-13 0)
(1.83903 0.220256 0)
(2 1.6695e-14 0)
(2.10817 -0.263679 0)
(2 8.22198e-14 0)
(2 -1.06509e-14 0)
(2 -1.02836e-14 0)
(1.83142 0.228979 0)
(2 -8.94159e-14 0)
(2 -1.16692e-13 0)
(2 1.76676e-15 0)
(2 4.3553e-14 0)
(1.89973 0.146921 0)
(2 2.72749e-14 0)
(1.8366 0.206144 0)
(1.83108 0.227851 0)
(2.17373 -0.267374 0)
(2 -1.50895e-13 0)
(2 -3.41154e-14 0)
(2.12509 -0.270416 0)
(2.13504 -0.268445 0)
(2 3.42028e-15 0)
(2 2.0788e-13 0)
(2 -5.83544e-12 0)
(1.88106 0.171302 0)
(1.87377 0.179848 0)
(2 4.42575e-14 0)
(2 -1.48015e-13 0)
(2 -1.52054e-14 0)
(2 2.90931e-14 0)
(2 3.14278e-14 0)
(2 -1.37437e-13 0)
(2 -9.0834e-14 0)
(1.92853 0.108988 0)
(1.83099 0.22868 0)
(1.99393 0.00110416 0)
(2 4.20185e-14 0)
(1.8346 0.225954 0)
(2.14544 -0.261464 0)
(2 -1.36304e-13 0)
(2 -1.15773e-13 0)
(2 1.04021e-13 0)
(1.9075 0.13215 0)
(2 7.27372e-14 0)
(1.96557 0.0562713 0)
(2 4.35419e-14 0)
(1.84603 0.212638 0)
(1.83161 0.227521 0)
(2 1.82699e-14 0)
(2.10973 -0.265456 0)
(2 6.90901e-16 0)
(1.82903 0.228863 0)
(2 3.50905e-14 0)
(2 1.61292e-14 0)
(1.8311 0.229307 0)
(1.84107 0.216543 0)
(2 -3.52995e-13 0)
(1.82769 0.228468 0)
(2 5.33273e-14 0)
(2.13505 -0.264456 0)
(2 -1.20744e-13 0)
(2 3.60027e-15 0)
(2 -6.88143e-14 0)
(1.83359 0.227712 0)
(1.83338 0.224509 0)
(1.85128 0.20569 0)
(2 9.08574e-14 0)
(1.83238 0.229958 0)
(1.83131 0.229042 0)
(2 -1.18988e-13 0)
(1.83135 0.228956 0)
(2 -9.48034e-09 0)
(1.8324 0.227574 0)
(2 -5.58563e-14 0)
(2.1386 -0.264793 0)
(2.00577 -0.0181976 0)
(2.1413 -0.258896 0)
(2 -3.21434e-11 0)
(2 -2.20571e-11 0)
(2 -3.30059e-11 0)
(2 -3.27485e-13 0)
(2 -1.47953e-11 0)
(1.83135 0.228553 0)
(2 3.58213e-14 0)
(1.83171 0.228699 0)
(2 -3.55616e-11 0)
(2 -9.07516e-11 0)
(2 1.13995e-13 0)
(1.84104 0.220342 0)
(2 -6.0052e-14 0)
(2.11164 -0.260559 0)
(1.83134 0.229366 0)
(2 2.36069e-14 0)
(2.10636 -0.265725 0)
(2.09329 -0.252905 0)
(2.09966 -0.26879 0)
(2 -3.99085e-14 0)
(1.91368 0.128115 0)
(1.98809 0.0258462 0)
(1.83107 0.229661 0)
(1.83141 0.229091 0)
(2 -2.87138e-14 0)
(2 -4.59029e-07 0)
(2 -8.52567e-08 0)
(2 -1.78031e-13 0)
(1.83153 0.22904 0)
(2 2.31823e-14 0)
(2 6.75849e-14 0)
(1.83162 0.229027 0)
(1.83131 0.228957 0)
(2 -2.22842e-13 0)
(1.94937 0.093132 0)
(1.99951 0.000839817 0)
(2 -4.37453e-14 0)
(2.00114 -0.00203014 0)
(1.82845 0.228626 0)
(2.04942 -0.0958134 0)
(2 -1.20115e-07 0)
(2.06148 -0.121784 0)
(2.10517 -0.262072 0)
(2.10761 -0.263703 0)
(2.01637 -0.0605211 0)
(1.83113 0.229044 0)
(1.83445 0.226289 0)
(1.9675 0.0510993 0)
(1.83218 0.229422 0)
(1.83123 0.228735 0)
(2 2.6072e-14 0)
(2 -5.31811e-15 0)
(1.83201 0.228827 0)
(1.82808 0.229559 0)
(1.83062 0.229008 0)
(1.82743 0.22694 0)
(2 -9.9399e-14 0)
(1.83097 0.228724 0)
(2.12818 -0.26131 0)
(1.82981 0.227565 0)
(1.83077 0.227537 0)
(1.82886 0.228244 0)
(1.831 0.231023 0)
(2.04251 -0.0858805 0)
(2.02659 -0.0701895 0)
(2.02144 -0.0485745 0)
(1.83164 0.229118 0)
(2.01503 -0.0261 0)
(1.83127 0.229502 0)
(2 -1.51917e-13 0)
(2 -1.93823e-14 0)
(1.83084 0.229721 0)
(1.83047 0.229114 0)
(2 -2.14174e-14 0)
(2.14272 -0.261165 0)
(1.83121 0.228461 0)
(1.8313 0.228721 0)
(2 1.03433e-13 0)
(1.83173 0.228695 0)
(1.8311 0.229236 0)
(2 -8.22108e-14 0)
(1.83141 0.228925 0)
(2.10435 -0.262687 0)
(1.83039 0.23097 0)
(1.83183 0.228778 0)
(1.82933 0.228737 0)
(1.83205 0.228386 0)
(2 -3.94003e-14 0)
(2 -7.85275e-14 0)
(2 -1.05896e-07 0)
(1.83141 0.228749 0)
(1.88974 0.159536 0)
(2.08718 -0.253079 0)
(1.83118 0.228653 0)
(2.13901 -0.263375 0)
(1.8315 0.228695 0)
(2 -8.18557e-14 0)
(2 -1.75054e-14 0)
(2 -8.87863e-15 0)
(2 3.8512e-14 0)
(1.83216 0.228164 0)
(1.83106 0.228777 0)
(2 5.47552e-14 0)
(2 -1.81969e-14 0)
(1.83113 0.228601 0)
(2.13317 -0.261328 0)
(1.83281 0.229391 0)
(2.1116 -0.265359 0)
(2 -3.4559e-14 0)
(1.83299 0.227753 0)
(2 -9.2887e-14 0)
(2.18195 -0.265911 0)
(1.83113 0.229687 0)
(2.07249 -0.194678 0)
(2 1.80564e-13 0)
(1.83144 0.229238 0)
(1.83046 0.230275 0)
(1.83123 0.229426 0)
(2 -3.71109e-13 0)
(2 2.87672e-14 0)
(1.92326 0.10782 0)
(1.83067 0.230037 0)
(2.11805 -0.264059 0)
(1.83211 0.229069 0)
(2 3.80901e-14 0)
(1.83105 0.229031 0)
(2.03977 -0.0763411 0)
(1.83196 0.228694 0)
(2.12204 -0.259985 0)
(2 -9.29949e-15 0)
(1.83214 0.229189 0)
(2.10288 -0.230114 0)
(1.83094 0.229754 0)
(2.10494 -0.259218 0)
(2 -4.43272e-14 0)
(1.8315 0.22907 0)
(2 4.66128e-14 0)
(1.82874 0.228581 0)
(2 -5.22052e-14 0)
(1.90729 0.145143 0)
(1.83781 0.221706 0)
(1.8683 0.185862 0)
(2.07386 -0.287554 0)
(2 -2.37369e-13 0)
(1.83213 0.229572 0)
(2 4.01355e-14 0)
(1.83184 0.229156 0)
(2 -1.15948e-07 0)
(1.83135 0.229289 0)
(2 -2.5829e-07 0)
(2 3.83196e-15 0)
(1.8323 0.228773 0)
(1.98998 -0.0137471 0)
(1.83064 0.230149 0)
(2.17256 -0.26077 0)
(1.86351 0.212221 0)
(2 1.20463e-13 0)
(1.87286 0.169489 0)
(2 -3.21077e-14 0)
(1.83096 0.229606 0)
(1.83146 0.229099 0)
(1.83018 0.227744 0)
(2 1.47141e-13 0)
(1.84561 0.207477 0)
(1.83135 0.229486 0)
(1.84266 0.214945 0)
(1.89765 0.148055 0)
(1.83996 0.226959 0)
(2 8.53238e-14 0)
(1.88689 0.163368 0)
(2 -2.37739e-14 0)
(1.83219 0.229198 0)
(2 1.319e-13 0)
(1.97412 0.0375425 0)
(2 2.87121e-14 0)
(1.84378 0.215348 0)
(2 8.48572e-14 0)
(1.83215 0.229246 0)
(1.83881 0.220452 0)
(1.83869 0.220369 0)
(2 -2.60407e-14 0)
(1.83738 0.231118 0)
(2.11989 -0.273291 0)
(2 -5.3439e-14 0)
(2.12308 -0.257117 0)
(2 -4.3076e-13 0)
(2 5.23662e-14 0)
(2 1.72637e-15 0)
(1.82911 0.229031 0)
(2 3.39265e-14 0)
(1.83143 0.229272 0)
(2 3.46792e-14 0)
(2 -2.33462e-13 0)
(2 -2.82314e-13 0)
(1.83108 0.228912 0)
(1.82341 0.223705 0)
(1.85031 0.187172 0)
(1.83011 0.229373 0)
(1.82883 0.229692 0)
(2.1138 -0.272861 0)
(1.82928 0.231734 0)
(1.82885 0.228693 0)
(2 -1.21803e-13 0)
(1.85538 0.216854 0)
(1.83137 0.228977 0)
(1.83526 0.2148 0)
(2 -1.69786e-13 0)
(1.82972 0.228846 0)
(1.82891 0.228746 0)
(2 -5.57337e-14 0)
(1.82952 0.231713 0)
(1.8314 0.228641 0)
(1.83143 0.228925 0)
(1.83108 0.229548 0)
(2 -3.67716e-13 0)
(2 -7.27392e-14 0)
(2 -3.69915e-14 0)
(1.83083 0.228775 0)
(2.08116 -0.275501 0)
(2 -1.01804e-14 0)
(1.83172 0.228897 0)
(2 -2.16175e-14 0)
(2 -2.74786e-14 0)
(2.10142 -0.269205 0)
(2 7.49775e-14 0)
(2 -4.57615e-14 0)
(1.83154 0.228804 0)
(1.83172 0.228801 0)
(2 6.49075e-14 0)
(1.83183 0.229172 0)
(1.82355 0.226068 0)
(1.83003 0.228509 0)
(2.00645 -0.0151088 0)
(1.83156 0.229253 0)
(2 1.02184e-13 0)
(1.83136 0.229166 0)
(1.8322 0.228804 0)
(1.87107 0.189157 0)
(2 1.20052e-13 0)
(2 -4.25331e-13 0)
(2 1.00839e-13 0)
(1.82995 0.22995 0)
(1.83103 0.229162 0)
(1.82962 0.228393 0)
(2.01772 -0.0361562 0)
(2 -4.0931e-14 0)
(1.82952 0.231675 0)
(1.83114 0.22952 0)
(1.83225 0.229197 0)
(2 -2.05266e-14 0)
(1.83113 0.229379 0)
(1.8323 0.22928 0)
(1.83196 0.22905 0)
(1.82622 0.231815 0)
(2 -3.70626e-14 0)
(1.8302 0.228575 0)
(1.83255 0.228615 0)
(1.85279 0.202279 0)
(1.83138 0.228601 0)
(1.82585 0.230318 0)
(2 -3.00443e-14 0)
(1.83318 0.228899 0)
(1.83363 0.227125 0)
(1.83035 0.228516 0)
(1.83127 0.229598 0)
(1.83153 0.228005 0)
(2.10248 -0.276007 0)
(1.83117 0.229305 0)
(1.83202 0.230008 0)
(2 -4.96916e-14 0)
(1.83057 0.228407 0)
(1.83052 0.228754 0)
(1.83047 0.228308 0)
(1.83318 0.229347 0)
(2 -5.65528e-08 0)
(1.83036 0.228764 0)
(1.83293 0.229138 0)
(2 -1.69252e-07 0)
(1.83137 0.228864 0)
(1.85897 0.197235 0)
(2 -2.80785e-13 0)
(2 3.43474e-14 0)
(2 2.32067e-09 0)
(1.83092 0.230831 0)
(1.83108 0.228647 0)
(2 -3.44437e-14 0)
(2 2.81816e-14 0)
(1.90869 0.133368 0)
(2 -1.61212e-13 0)
(1.8317 0.228704 0)
(2 -8.86491e-14 0)
(2 7.40388e-14 0)
(1.83113 0.228664 0)
(1.83076 0.229152 0)
(1.83139 0.229125 0)
(1.83133 0.228785 0)
(2 3.29986e-14 0)
(2 1.25322e-13 0)
(2 6.27774e-14 0)
(1.88422 0.168502 0)
(2 -6.32698e-14 0)
(1.83224 0.229355 0)
(2 -1.32067e-13 0)
(2 1.92429e-14 0)
(1.83029 0.228839 0)
(1.83198 0.2289 0)
(2 3.83045e-14 0)
(1.83187 0.2287 0)
(2.16943 -0.26131 0)
(1.83144 0.229047 0)
(1.83081 0.23021 0)
(2.13255 -0.198325 0)
(2 4.55493e-14 0)
(2.07851 -0.287505 0)
(1.8535 0.203364 0)
(1.83076 0.23205 0)
(1.82985 0.227705 0)
(1.82821 0.227773 0)
(2.13685 -0.258145 0)
(1.83135 0.229592 0)
(1.83091 0.229393 0)
(2.12937 -0.264041 0)
(2.12625 -0.275756 0)
(2 -2.71423e-07 0)
(1.83241 0.228969 0)
(1.83176 0.2289 0)
(2 3.81467e-14 0)
(2 -2.24217e-14 0)
(1.83036 0.228783 0)
(2 -7.39262e-14 0)
(1.83027 0.229183 0)
(2 2.47053e-06 0)
(1.85235 0.205014 0)
(2 1.41578e-13 0)
(1.92838 0.120712 0)
(1.8323 0.228077 0)
(1.83051 0.230136 0)
(1.88196 0.174166 0)
(1.85642 0.208947 0)
(1.82865 0.228839 0)
(1.83179 0.22995 0)
(1.84981 0.21838 0)
(2 -1.97263e-15 0)
(2.1536 -0.263488 0)
(1.82777 0.227824 0)
(1.83173 0.229411 0)
(1.83111 0.231608 0)
(2 6.97642e-06 0)
(2 3.457e-10 0)
(2 1.57053e-09 0)
(1.82723 0.228649 0)
(2 -1.96358e-14 0)
(1.8319 0.229422 0)
(1.83158 0.228815 0)
(2.07225 -0.174452 0)
(2 3.35841e-14 0)
(1.83346 0.229635 0)
(2.00002 -4.79466e-05 0)
(2 4.93811e-14 0)
(1.99999 1.96191e-05 0)
(1.99998 2.72237e-05 0)
(1.83126 0.229399 0)
(1.8304 0.229054 0)
(2.0005 -0.000890777 0)
(2 1.11143e-13 0)
(2 -2.51573e-14 0)
(1.83183 0.228944 0)
(1.83064 0.23012 0)
(1.83144 0.228765 0)
(1.83076 0.229678 0)
(1.82983 0.228379 0)
(2.08428 -0.257865 0)
(1.86591 0.203476 0)
(2 -6.37555e-14 0)
(1.83183 0.227129 0)
(1.8315 0.228999 0)
(1.83183 0.229033 0)
(1.82963 0.231713 0)
(2 -1.37555e-13 0)
(1.83198 0.229127 0)
(1.83735 0.224953 0)
(1.83082 0.230004 0)
(2 -1.07096e-13 0)
(1.83053 0.229411 0)
(1.83158 0.227281 0)
(2.04649 -0.0967051 0)
(1.83208 0.22905 0)
(1.83012 0.229569 0)
(2 -5.67796e-14 0)
(1.83127 0.228498 0)
(2.03863 -0.111952 0)
(1.83091 0.229212 0)
(2.05796 -0.0978549 0)
(1.8319 0.229321 0)
(2 -1.30995e-07 0)
(1.83132 0.228985 0)
(1.8236 0.231877 0)
(1.83158 0.228935 0)
(1.83143 0.229413 0)
(1.83147 0.229008 0)
(1.83086 0.22837 0)
(1.83122 0.229727 0)
(1.82989 0.229199 0)
(2 -9.54938e-14 0)
(2.0309 -0.0491746 0)
(1.8316 0.229474 0)
(1.83197 0.228829 0)
(2.03467 -0.112752 0)
(1.83134 0.229174 0)
(1.9991 -0.0150872 0)
(1.89126 0.159752 0)
(1.83182 0.229548 0)
(1.83043 0.228622 0)
(1.83012 0.229224 0)
(2 1.15046e-13 0)
(1.83044 0.23011 0)
(1.89333 0.159071 0)
(1.83198 0.227729 0)
(2.02388 -0.0514524 0)
(1.83047 0.230104 0)
(1.82681 0.232863 0)
(2 -4.84619e-14 0)
(2.02697 -0.0861989 0)
(2 -5.62189e-09 0)
(1.83768 0.228379 0)
(2 5.9611e-15 0)
(1.88388 0.166421 0)
(2 4.97926e-09 0)
(1.83103 0.222656 0)
(2.04101 -0.0832611 0)
(2 3.5429e-14 0)
(1.8292 0.22794 0)
(1.83668 0.225807 0)
(2 -1.38337e-13 0)
(1.83169 0.227416 0)
(1.83117 0.229886 0)
(1.83159 0.228265 0)
(1.83883 0.230085 0)
(1.83351 0.232563 0)
(2 -2.09259e-13 0)
(1.82945 0.228816 0)
(2 -1.34122e-14 0)
(2 1.09357e-13 0)
(2 7.08438e-14 0)
(2.03702 -0.0614778 0)
(1.83157 0.22894 0)
(1.83093 0.229845 0)
(1.82948 0.232422 0)
(1.83163 0.22887 0)
(1.83434 0.228251 0)
(1.82929 0.230575 0)
(1.82424 0.22848 0)
(1.83144 0.229269 0)
(2.04853 -0.0632253 0)
(1.98821 0.0202688 0)
(2 3.36672e-09 0)
(2 -2.31242e-14 0)
(1.82379 0.232902 0)
(1.83168 0.229029 0)
(1.83164 0.229106 0)
(1.83111 0.2293 0)
(1.99999 1.67532e-05 0)
(1.92499 0.116973 0)
(2 -1.61713e-07 0)
(1.83067 0.232146 0)
(1.85289 0.212545 0)
(2 -3.11818e-12 0)
(2 -4.64071e-11 0)
(2.10504 -0.183549 0)
(1.8326 0.228836 0)
(2 1.23287e-14 0)
(2 5.79939e-14 0)
(2.1179 -0.265611 0)
(1.83136 0.229168 0)
(2 -1.21249e-14 0)
(1.83006 0.228654 0)
(1.83308 0.229491 0)
(1.82871 0.228783 0)
(1.83678 0.220161 0)
(1.8315 0.228877 0)
(2 -1.8755e-10 0)
(2.06558 -0.277902 0)
(1.95611 0.0692834 0)
(1.83226 0.228681 0)
(1.8316 0.229073 0)
(2 -9.44278e-14 0)
(1.83067 0.228851 0)
(1.83178 0.228698 0)
(1.91696 0.1304 0)
(1.99881 0.00626295 0)
(1.96932 0.0599701 0)
(2 -6.24345e-14 0)
(1.82863 0.228439 0)
(1.83158 0.228901 0)
(2 -1.19421e-07 0)
(2 -1.90923e-10 0)
(2.13686 -0.260019 0)
(2 -2.38153e-10 0)
(2 -1.6104e-14 0)
(1.83152 0.228898 0)
(1.83175 0.228862 0)
(1.83261 0.229181 0)
(1.83126 0.228857 0)
(1.83081 0.229404 0)
(1.82834 0.231646 0)
(1.832 0.22963 0)
(1.82961 0.22795 0)
(1.83158 0.228721 0)
(2 5.02795e-14 0)
(2.00166 -0.0025813 0)
(1.832 0.228776 0)
(1.83148 0.228693 0)
(2.00125 -0.00162031 0)
(1.83173 0.228875 0)
(1.83215 0.22877 0)
(2.07638 -0.26594 0)
(2.16762 -0.254903 0)
(1.83066 0.227837 0)
(1.83367 0.228131 0)
(2 -1.80014e-13 0)
(2 1.20546e-13 0)
(1.99963 0.00182623 0)
(1.83242 0.229361 0)
(1.83165 0.229039 0)
(1.83125 0.229274 0)
(2 9.55998e-10 0)
(1.83177 0.228704 0)
(2 3.17989e-14 0)
(2.06252 -0.0912574 0)
(1.83075 0.232445 0)
(1.83165 0.228032 0)
(2 -1.92753e-13 0)
(1.92178 0.118088 0)
(1.83072 0.228516 0)
(2 -9.51938e-15 0)
(1.82909 0.227561 0)
(2 -1.01083e-10 0)
(1.8296 0.228659 0)
(1.89754 0.155102 0)
(1.8316 0.22967 0)
(2 1.51339e-11 0)
(1.83188 0.228306 0)
(1.83226 0.230005 0)
(2.12661 -0.26672 0)
(1.83031 0.228726 0)
(2 -1.32829e-07 0)
(1.83103 0.228531 0)
(1.83039 0.228843 0)
(2 7.4262e-09 0)
(2.07535 -0.271971 0)
(1.83213 0.228681 0)
(1.86521 0.197583 0)
(2.0007 -0.00114069 0)
(1.84175 0.228797 0)
(1.83194 0.228872 0)
(2 -5.05416e-12 0)
(2.00102 -0.00884208 0)
(1.83152 0.229144 0)
(2.0013 -0.00208144 0)
(1.83064 0.228375 0)
(2 -3.46308e-12 0)
(2 -1.97438e-13 0)
(1.83105 0.230037 0)
(2 4.47572e-14 0)
(1.83166 0.23073 0)
(1.83191 0.228946 0)
(2.00124 -0.00228917 0)
(1.86103 0.186978 0)
(2 2.85283e-09 0)
(1.83219 0.228959 0)
(2 1.41209e-09 0)
(2 -7.84592e-13 0)
(2 1.07295e-11 0)
(2 6.80543e-12 0)
(1.83112 0.229279 0)
(2 7.29348e-09 0)
(2 -3.64168e-13 0)
(1.82655 0.222719 0)
(2 7.04648e-14 0)
(1.83122 0.228463 0)
(2 2.25774e-10 0)
(1.89563 0.156792 0)
(1.83344 0.229557 0)
(1.83092 0.229822 0)
(2 8.76865e-10 0)