/*--------------------------------*- C++ -*----------------------------------*\
  =========                 |
  \\      /  F ield         | OpenFOAM: The Open Source CFD Toolbox
   \\    /   O peration     | Website:  https://openfoam.org
    \\  /    A nd           | Version:  12
     \\/     M anipulation  |
\*---------------------------------------------------------------------------*/
FoamFile
{
    format      ascii;
    class       surfaceScalarField;
    location    "3.475";
    object      phi;
}
// * * * * * * * * * * * * * * * * * * * * * * * * * * * * * * * * * * * * * //

dimensions      [1 0 -1 0 0 0 0];

internalField   nonuniform List<scalar> 
69079
(
-0.000157653
9.04471e-05
6.69824e-05
0.000127597
1.99838e-08
-0.000127575
-0.000132755
0.000132737
0.000129112
-1.51339e-06
-0.000131248
-1.53945e-06
-0.000131279
8.26885e-05
-0.000147257
6.76209e-05
-7.59633e-07
0.000100478
-0.000124333
0.000130322
-0.00013039
3.1553e-08
0.00012968
6.07125e-07
-9.76073e-05
-6.02904e-05
-0.000124272
0.000132746
-8.55236e-06
-0.000128161
0.000125448
2.7174e-06
-0.000127575
-6.24089e-07
3.5111e-06
-0.000112319
0.000108808
0.000129663
9.88886e-10
0.000129126
6.02261e-07
-0.000129685
0.000128109
1.65916e-06
-0.000128295
-1.39366e-06
0.000129676
-0.000128977
-6.91775e-07
0.00012869
9.54438e-07
0.000126408
-0.000128814
2.41531e-06
-0.000139066
1.33437e-05
0.000125722
0.000150176
-9.82197e-05
-5.21838e-05
0.000118078
-1.34292e-05
-0.000105094
-0.000129086
-1.33041e-06
0.000129184
5.07735e-08
2.54366e-07
1.12885e-08
0.000101769
-0.000122527
0.000121783
-0.000126283
4.32599e-06
0.00012297
-0.000133285
1.02718e-05
0.000143494
-2.0531e-05
0.000127877
7.58846e-07
-4.40989e-07
-0.000128672
2.38281e-05
0.000104844
0.000127885
-0.00012792
3.00294e-08
2.59109e-07
-6.11096e-06
9.91386e-05
-9.82002e-05
-1.13988e-05
-0.000127667
9.70181e-05
2.64763e-05
-0.000117378
-0.000139708
1.71398e-05
0.000127108
-0.000127108
1.07565e-08
-6.19324e-06
-0.000115505
0.000141067
-2.52196e-05
0.000126755
1.44314e-06
-1.15121e-06
-7.45111e-05
0.000142299
-6.77877e-05
0.000124639
-0.000124617
1.45391e-08
0.000142958
-1.8329e-05
0.000121154
2.17867e-05
0.000142174
-2.10299e-05
0.000119644
-3.74412e-06
-0.000115899
-0.000101133
0.000124281
-2.04607e-05
-0.000130494
0.000131823
-1.30165e-06
-0.000130621
5.6865e-05
7.60253e-05
0.000123757
-0.000123747
9.68603e-09
0.0001418
-1.80408e-05
0.000120193
-2.01649e-08
-0.000120288
-7.30944e-05
-3.97151e-05
0.00011322
7.62885e-05
5.11724e-05
-0.000127461
0.000136393
-6.89668e-05
-6.6239e-05
-1.4387e-05
-0.000114285
5.00648e-05
-0.000124576
-0.00010722
0.000110731
0.000124846
6.62141e-07
-2.18916e-06
0.000146352
-0.000146318
-1.52515e-05
-0.000114828
-0.000124707
1.09507e-05
-5.03365e-05
0.000133462
0.000119245
2.25524e-05
0.000140795
-2.1551e-05
0.000118502
-1.56832e-05
-0.000106841
0.000127335
-0.000125034
-2.28041e-06
9.53992e-05
5.48705e-05
0.000115154
-0.000118449
3.29695e-06
-2.78633e-06
0.000117957
-0.000123172
1.13344e-05
0.000111837
0.000122946
2.05664e-05
-1.58462e-06
0.000118039
-0.000140348
2.23704e-05
0.000101651
1.79918e-05
0.000131659
-1.36058e-05
-8.12463e-05
-4.81925e-05
0.0001357
-0.000117457
0.00011869
-1.25224e-06
0.000117203
-0.000132773
1.55808e-05
0.000118197
-9.99581e-07
-7.70857e-05
-3.98604e-05
-6.33698e-06
-0.000102332
0.000108669
-7.06728e-05
0.000138937
-6.82643e-05
0.000158826
-4.27196e-05
-0.000127057
9.58576e-06
0.000121113
2.10577e-05
6.93591e-05
5.25892e-05
-0.000121948
-2.60686e-06
-0.000116345
-1.07056e-05
3.12985e-07
-0.000105998
0.000105685
0.000123598
-3.5778e-06
6.78907e-05
5.99309e-05
-0.000127822
5.42637e-05
-0.000124936
-0.000117261
9.24975e-07
0.000126062
-0.000126055
0.000129924
-8.5309e-06
2.0697e-05
-0.000134989
0.000114142
4.12011e-05
-0.000115836
-0.000124818
-1.01895e-05
0.000115004
-0.000134143
1.91548e-05
0.000117658
-2.64767e-06
7.07294e-06
0.00011032
-0.000115839
-3.77244e-06
7.34072e-05
-7.33346e-05
0.000119248
2.15598e-05
-2.10482e-05
-0.000104951
0.000105263
7.50907e-06
-0.000120995
0.000113486
-0.000123783
3.2055e-05
-8.1168e-06
0.000117154
-0.000111761
4.25704e-05
-0.000115776
-0.000108921
-3.40505e-06
0.00011242
0.000122807
-0.000125605
2.92957e-06
-0.000123584
0.000106557
1.70274e-05
-3.94444e-06
-0.000127332
0.000114751
1.69145e-05
-5.31921e-06
0.000120061
-0.000130778
0.000130786
-0.000112333
3.41088e-06
-3.61028e-05
0.000112391
0.000149877
-8.86498e-05
-6.00585e-05
-0.00013156
5.24907e-05
7.91735e-05
0.000123845
-5.75116e-07
-0.000123223
0.000112985
-0.00013193
1.89651e-05
0.000116834
-3.82811e-06
0.00012249
-2.65101e-07
0.000112027
-0.000110635
0.000116817
7.03495e-06
7.79758e-05
-0.000123726
4.57499e-05
0.000113873
-0.00013743
2.3548e-05
0.000136266
-2.24292e-05
-1.48994e-06
0.00012288
-7.74477e-05
0.000146176
-6.87279e-05
-9.72974e-05
-2.11538e-05
0.000109809
-0.000130586
2.0791e-05
0.00011437
-4.54623e-06
0.000119471
-0.000127797
8.50239e-06
-0.000122766
2.54678e-05
-3.06044e-05
-0.000101046
0.000112598
-0.000135744
2.32256e-05
-2.01192e-05
-9.99854e-05
8.78495e-05
8.53561e-05
-9.16931e-05
-0.00010459
0.000113484
0.000133623
-0.000133634
0.000116489
3.36225e-07
-2.09399e-05
0.000120772
-0.000128723
7.65172e-06
-0.000124035
3.33824e-06
7.19776e-05
7.80114e-05
-0.000128981
2.04664e-05
0.000108514
0.00011063
-0.000134454
2.38433e-05
-0.000109813
0.000133905
-2.32327e-05
-0.000120846
-1.8164e-06
0.00010708
-4.75138e-05
-4.07654e-05
0.000118741
-1.91185e-05
0.00014055
0.000112436
2.38213e-05
-0.000110124
0.000111344
-2.32625e-05
0.000114161
-0.000114035
6.9694e-05
-0.000121472
5.17778e-05
0.000109359
-0.000133397
2.40294e-05
0.000132887
-2.35522e-05
-1.90685e-05
-0.000109754
0.000105111
9.79976e-06
-0.000121895
-2.15827e-05
-0.000113452
1.39524e-05
-0.000105642
9.61088e-05
-7.55948e-05
0.000119909
-4.50139e-05
-0.000113388
3.76608e-06
0.000109608
6.03699e-06
0.000112309
-0.00011423
0.000104793
0.00011116
0.000124083
-3.65579e-06
0.000108026
-0.000132337
2.43428e-05
-2.60784e-05
2.30256e-06
-0.000113041
0.000110468
0.000111517
6.65387e-06
-2.29409e-05
5.04427e-05
8.81653e-05
0.000109316
1.12951e-06
-0.000110651
6.35949e-07
0.000108572
8.36751e-06
0.000118986
-4.69674e-05
-6.00167e-05
0.000106978
-0.000144421
8.83507e-05
5.66338e-05
7.33788e-05
-0.000120352
-6.72647e-07
0.000113003
-0.000112552
-0.000112817
0.000111923
7.14208e-05
-7.93351e-05
-0.000117254
0.000122014
-4.75667e-06
0.000102033
-0.000122668
2.06556e-05
0.000110637
-8.58217e-06
-1.01997e-05
-9.90038e-05
0.000109204
6.70149e-05
4.77592e-05
-0.000114774
0.000109298
2.46338e-05
-2.40921e-05
1.68857e-05
-0.000117955
0.00010107
-0.000115915
-5.8766e-06
0.000120382
3.54791e-06
0.000106067
-0.000131309
2.5255e-05
0.000130408
-2.43241e-05
7.52581e-05
-0.000120329
4.50712e-05
0.000113757
-0.000106248
0.00011689
-0.000120153
0.000102269
1.67267e-06
-5.339e-07
0.000119218
3.16622e-05
-0.000111577
-0.000115588
-1.66039e-06
0.000123939
-4.17705e-06
-7.03593e-05
-4.46286e-05
0.000124617
0.000104737
-0.000129843
2.51227e-05
0.000127317
-1.64651e-05
-0.000129861
-2.7174e-05
0.000100739
-8.27252e-05
0.000107878
2.50108e-05
-2.44283e-05
-7.7034e-05
-5.11672e-05
0.000143835
0.000126095
-0.000124613
-1.47767e-06
-1.48695e-05
0.0001264
-0.000111542
9.97637e-05
-0.00012026
2.04486e-05
0.000109457
-9.68862e-06
0.000105486
-0.000105934
5.34386e-07
-4.67546e-06
-0.000118909
-0.000132033
2.02474e-05
0.000111786
-2.36864e-05
-0.000108347
-1.62391e-05
-0.000114532
-4.73986e-05
0.000116758
-0.000146131
7.78193e-05
6.80639e-05
-0.000122142
0.000105719
1.64221e-05
0.000105179
4.21253e-07
0.000114666
-0.000108945
-5.82953e-06
-0.000136422
0.000120183
-0.000117374
1.28549e-07
-0.000115976
0.000117749
-1.77635e-06
-7.17109e-05
-7.45146e-05
6.97841e-05
-0.000124885
5.51009e-05
-8.08826e-07
-0.000124205
-4.22466e-06
-0.000124756
0.000121213
-6.65161e-07
-0.000121213
5.23151e-06
0.000102754
-0.000129006
2.6266e-05
-2.78204e-05
0.000111288
3.28106e-06
9.78424e-05
-0.000117971
2.01633e-05
-0.000123926
2.70662e-06
0.000108383
-1.05074e-05
0.000108539
9.1242e-06
-2.27625e-05
0.000126014
-0.000121149
-5.05267e-06
-1.61644e-06
0.000104791
-0.000107278
0.000123707
-0.000123703
-0.000159299
7.48161e-05
8.46923e-05
-7.0983e-05
0.000132799
-4.99667e-05
-0.000115295
-3.99838e-06
0.000118414
-0.000124922
-2.84824e-06
-7.15904e-05
-4.28018e-05
0.000119639
6.89211e-05
4.26587e-05
-0.00011158
8.4336e-05
-9.45357e-05
3.97994e-06
0.000119604
-0.000123584
0.000104589
2.58322e-05
0.000100736
-0.000127571
2.68437e-05
-2.52405e-05
-0.000130373
0.00011551
-0.000118857
0.000118857
8.10026e-05
4.77979e-05
0.000126317
-2.55694e-05
-2.04959e-05
-0.000115929
0.000101035
7.4086e-05
-0.000121679
4.75931e-05
-4.14973e-06
-0.000116696
0.000119788
-1.24095e-06
0.000117912
-0.00011685
9.5259e-05
-0.000115871
2.05833e-05
0.000107113
-1.18267e-05
0.000125267
-0.000126587
-0.000107703
0.000111683
-7.61988e-05
-6.7941e-05
-7.51565e-05
0.000121548
-4.62222e-05
-0.000127027
2.92677e-06
0.00012175
-0.000126022
4.08018e-06
-6.45935e-05
0.000131608
0.000122268
1.18263e-06
0.000121835
4.43254e-07
-0.000159405
8.05053e-05
8.06365e-05
3.6296e-05
0.000106003
0.000121522
4.3635e-07
7.31861e-05
-0.000106093
3.28703e-05
0.000121828
4.56028e-06
0.000109074
-3.59864e-05
3.09279e-05
9.94003e-05
-0.000125734
2.63584e-05
0.000116829
0.000125347
-2.59128e-05
0.000132153
-2.17526e-05
-0.000109013
-0.000108711
-1.39834e-06
0.000109909
-0.000138869
8.0701e-05
5.816e-05
0.000106359
1.04892e-05
-2.2637e-05
-4.30194e-05
0.000118278
0.000130051
-0.000129919
-0.000106051
0.000107041
0.000111241
-0.000110737
-7.08727e-05
0.000120872
-4.92415e-05
-2.09945e-06
-0.000121072
9.80363e-05
-0.000124692
2.66282e-05
-0.000114442
0.00011719
-2.74944e-06
0.000124198
-2.61651e-05
-0.000128794
0.000125401
0.000118496
3.28599e-06
2.85937e-06
-0.000114607
0.000111747
-0.000116193
0.000111914
-0.000103681
-8.81625e-06
0.000112104
-0.000119201
4.75831e-06
-0.000103328
-4.12368e-05
9.85334e-05
-0.000112546
0.000112848
-1.13005e-05
0.00012196
-4.52257e-07
-0.000117122
-2.08042e-06
0.000120167
-0.000120166
9.66997e-05
-0.00012362
2.69511e-05
0.000123236
-2.65133e-05
9.0887e-05
-0.000110852
2.00032e-05
0.000103985
-1.3009e-05
-6.97826e-05
-6.90534e-05
-0.000124473
4.70251e-05
-0.000115513
-1.61122e-06
6.56002e-05
7.29084e-05
0.000121318
5.19942e-06
0.000105024
9.34876e-06
-2.25489e-05
-0.000117105
0.00010742
9.6858e-06
0.000129852
-0.000125267
-0.000102899
0.000114233
0.000105172
-0.000112633
7.6953e-06
0.000111719
-4.36416e-06
-0.000107356
9.53314e-05
-0.000122554
2.72444e-05
0.000122148
-2.67781e-05
-4.21178e-06
-0.00011793
-0.00011861
0.000122892
-4.89387e-06
1.10719e-06
-0.000114506
9.83585e-05
-1.65635e-05
-5.52683e-05
0.000123159
3.58742e-07
-0.000134294
2.19747e-05
-0.000108473
-1.24907e-05
0.000113011
-4.55772e-06
-0.000108453
9.91568e-05
2.71774e-05
0.000119604
-4.99102e-05
-2.65323e-05
-0.000121034
0.000109893
1.11412e-05
5.75315e-06
-0.000115798
-0.000153197
8.94702e-05
6.37344e-05
-0.000112933
3.15287e-06
0.000109784
-6.94421e-05
-8.37569e-05
3.82942e-06
0.000107781
-0.000111655
-0.0001136
4.6122e-06
0.000108984
-7.22002e-06
-0.000106381
-0.000118166
0.00011095
9.39784e-05
-0.000121529
2.75417e-05
-0.000114104
2.2996e-06
0.000111805
0.000113819
-4.12458e-06
-0.000109697
-3.15183e-06
0.000113226
-0.000110075
0.000110665
0.000121044
-2.70875e-05
0.000114837
-4.3811e-06
-0.000110457
0.000119204
-6.29604e-07
-0.000132063
-1.2842e-05
-0.000117527
-4.4927e-06
0.000114785
-0.00011029
6.72081e-05
4.47195e-05
-0.000111928
-0.00011014
4.83636e-05
-6.05156e-05
-6.97811e-05
-0.000135461
3.16356e-05
9.78728e-05
2.74989e-05
3.18535e-06
-0.000107619
-2.68419e-05
5.38064e-06
0.000106336
-0.000108437
8.05003e-06
0.000100387
9.26232e-05
-0.000120438
2.78378e-05
-5.87087e-06
0.000120022
0.00011544
-6.37136e-06
-0.000109325
-0.000120134
-5.9968e-06
0.000120024
-2.73662e-05
-7.31012e-05
0.000121406
-4.95471e-05
0.000126804
-1.12528e-05
-0.000115553
0.000108754
-1.96694e-05
-0.000122164
0.000119042
2.74179e-06
0.000122707
-0.000122702
-0.000122902
7.22473e-06
0.000115683
-4.45765e-06
0.000113677
-0.000109236
-6.56754e-05
0.000118265
8.68511e-05
-0.000106545
1.96172e-05
-1.51599e-05
0.000102007
1.02108e-05
0.00011795
3.79972e-07
0.000110958
-0.000111471
-1.11623e-05
9.93102e-05
-8.81501e-05
0.000135601
-8.01783e-05
-5.54229e-05
2.53737e-06
-0.00011498
0.000112443
2.51847e-06
-0.000118034
0.00011699
-0.000116997
-0.000110731
0.000111538
-9.48174e-07
0.000111404
-0.000114543
3.32146e-06
-0.000101476
0.000103537
4.42908e-07
0.00011274
-0.000113437
-1.37863e-06
-0.000112105
0.00011344
5.70995e-05
7.05461e-05
-0.000127437
-1.32079e-06
0.000119072
-0.000115532
-1.44001e-06
0.00011697
-0.000122268
-8.72165e-08
0.000111503
-0.000112982
0.000105372
3.35654e-05
9.12195e-05
-0.00011935
2.81252e-05
-5.04802e-05
-5.63677e-05
0.000106852
9.64119e-05
2.78235e-05
-0.000133956
8.34843e-05
0.000115016
-4.09302e-05
-3.1429e-05
-2.71607e-05
-0.000140374
8.01169e-05
6.02588e-05
-6.51043e-05
0.000121975
-5.71915e-05
6.48987e-05
6.23807e-05
-0.000127279
-7.11494e-05
0.000121214
-0.000117204
0.000111129
5.97135e-06
-0.000118079
8.18225e-07
-0.000112088
-1.53769e-06
0.000113657
6.33442e-06
0.000122018
-0.000108134
-2.68697e-06
0.000110788
-0.000101652
9.04861e-05
7.26548e-05
-9.30905e-05
0.000110576
-0.000119757
-4.05276e-06
0.000112305
-0.000108359
4.56057e-05
-0.000120727
-7.40944e-05
-6.62774e-05
3.36128e-06
0.000110526
-0.000114042
-0.00012215
-6.62696e-06
-0.000142929
8.29009e-05
-2.78335e-06
-0.000120114
0.00012715
-0.000124476
-0.000100387
0.000120854
-0.000115784
0.000114411
-2.67156e-08
0.000113124
-0.000113268
-2.45623e-05
-9.42948e-05
7.2913e-05
-0.000141647
-3.45057e-05
0.000115508
-0.000111118
-6.33298e-07
0.000111521
5.34186e-07
5.9161e-05
-6.0389e-05
1.07609e-06
-0.000112561
0.000111522
9.50707e-05
2.81542e-05
0.000110867
2.53889e-06
-0.000113368
0.000113455
-7.10124e-07
-0.000112748
-2.7802e-06
0.000113599
0.000110215
-0.000113141
-2.74881e-05
-0.000112138
-1.96877e-06
-3.37908e-06
0.000113344
-0.000121963
0.000125737
-0.000113516
0.000112213
1.28749e-06
8.04701e-07
0.000110491
0.000109544
3.68494e-06
-0.000111559
-1.9341e-06
-6.09935e-05
-4.68207e-05
0.000117625
-0.000135295
2.9297e-05
6.33161e-05
-6.18887e-05
-3.09025e-06
8.83751e-05
-0.00011887
3.05033e-05
0.000127981
-0.000123035
-4.73523e-06
-1.90491e-06
0.000123588
0.00011687
-2.84563e-05
4.05213e-05
-0.000110747
8.80412e-05
-0.000103572
1.55067e-05
-1.66864e-05
0.000104746
-0.000117415
0.000108154
9.26076e-06
0.000105606
-9.4779e-06
-0.000115136
0.00012133
-6.13992e-05
-3.98598e-05
9.24206e-05
-0.000116899
0.000112675
-3.44736e-06
-0.000112675
-7.17546e-05
-7.78281e-05
-0.000101632
1.21636e-06
0.000100024
-0.000114747
0.000111148
4.36914e-06
0.000111507
-0.000115376
-2.68739e-06
-0.000108529
0.00011076
3.93206e-06
0.000111306
-0.000115524
0.000136825
-6.68861e-05
-6.99387e-05
5.17817e-06
0.000107832
9.37287e-05
2.84555e-05
-0.000116052
2.78419e-06
0.000113006
-0.000119979
4.93804e-06
-2.77783e-05
8.75527e-05
-0.000116425
2.88665e-05
-3.27064e-05
8.71592e-05
-0.000102366
1.51538e-05
-0.000103937
9.79183e-05
-0.000108499
-4.43234e-06
-1.72337e-05
0.000104262
4.76168e-06
5.15073e-05
8.40938e-05
0.000122592
-0.000120055
0.000114385
-9.32115e-07
-0.000112513
4.80124e-05
0.000111217
-1.25547e-07
-0.00011139
-0.000113012
0.000130765
0.000106466
-8.95807e-05
1.81441e-06
-0.00010813
3.67802e-06
-0.000114081
0.00011041
-3.11844e-06
0.000120305
6.60489e-05
6.18114e-05
-0.00012786
7.68785e-05
6.80941e-05
-0.000142517
-0.000104947
-1.16066e-06
0.000112401
-2.21098e-06
-0.000111607
0.000114158
7.44697e-06
0.00011626
-0.000116471
0.000112063
-0.000113863
0.000115508
-0.000116487
9.78189e-07
-2.38936e-06
0.000114566
1.05484e-06
0.000112679
-0.000113703
0.000113285
-0.000115445
-0.000123095
-6.78824e-05
0.000115946
-5.32825e-05
-6.63704e-05
0.000119587
-5.57116e-05
-0.000138293
3.7906e-05
0.000114032
-0.000111429
-1.16013e-06
-0.000111969
0.000113275
-1.27559e-05
0.000123304
-0.000110548
0.000127319
-7.95601e-05
9.23065e-05
2.87639e-05
-0.000110704
3.43897e-06
0.000107265
8.12871e-05
-0.00013669
5.58693e-05
0.000121557
6.10253e-06
-0.000115533
-0.000136357
7.92369e-05
5.71156e-05
-2.8096e-05
0.000110446
-0.000107587
-0.000116655
-1.30089e-06
-0.000109522
0.000111534
-1.9716e-06
1.1939e-06
-0.000110741
-0.000111595
0.000105205
1.13196e-05
-0.000116658
0.000115186
1.42792e-06
-0.000113347
-3.35139e-06
8.60351e-05
-0.000116897
3.08909e-05
-0.000121959
-2.01134e-07
0.000114954
-2.88763e-05
-0.000122628
8.26754e-05
-0.000118787
0.000113367
5.36908e-06
-0.000117522
-1.27601e-06
-0.000115467
0.000113843
1.71111e-06
-0.00011379
-1.5929e-06
-0.000116481
-0.000113069
0.00011376
-7.62509e-07
-0.000117221
8.82283e-06
0.000108399
0.000116104
-0.000111216
-0.000100366
1.19706e-07
-0.000116094
4.68152e-06
0.000111416
-0.000110702
-1.17454e-06
0.000111877
9.09074e-05
-5.20811e-07
0.000109162
-0.000108705
-0.00011212
-2.03419e-06
0.000114145
-0.000115277
4.16426e-06
0.000111063
-6.8012e-05
-9.05056e-05
3.87743e-06
0.000119823
-5.0039e-05
0.00011726
4.57131e-06
0.000108541
3.65027e-06
-0.000112256
6.44753e-07
0.000112286
-0.000112917
-0.000109401
0.000118329
-4.94079e-05
0.000115046
-4.73811e-06
-0.000110569
-0.000115293
2.50177e-06
0.00011259
9.09501e-05
2.90872e-05
-0.000113365
1.30526e-06
0.000112081
0.00010732
3.80687e-06
-0.000111138
-2.8402e-05
0.000119385
-1.92494e-06
-0.000114295
2.3263e-06
0.000111891
6.33908e-06
-1.18815e-06
-0.000113231
-0.000112863
0.000111568
-1.22751e-06
-0.000111622
-0.000133399
0.000119393
0.000113681
-1.70224e-06
-0.000111959
8.50108e-05
-0.000114463
2.94545e-05
-3.29214e-05
0.000124042
-0.000124249
-0.000106573
0.000106161
1.73875e-06
-0.000113339
2.77673e-06
0.000110568
-6.75795e-05
-7.53538e-05
-0.000110979
9.25109e-05
0.000113507
-0.000112926
-5.83721e-07
-0.00011256
4.16294e-06
-0.000116849
4.60097e-05
-0.000111387
-7.42099e-07
-0.00010955
0.000107861
-1.22526e-06
0.000108821
-0.0001076
-0.000114418
3.48807e-06
0.000110933
0.000127641
-0.000138909
0.000119676
-0.000114499
0.000110565
-0.00011495
-0.000103906
0.000102841
-8.65217e-07
0.000112648
4.46192e-07
-0.000113499
0.000112281
-0.000116771
0.000114047
0.000119377
-0.000119078
-0.000116992
0.000115718
1.36928e-06
-0.000113719
-3.18042e-06
-0.000119253
0.000115683
3.53628e-06
-0.000116369
-2.97981e-06
-0.00011953
0.000115988
3.50371e-06
-0.000116581
-2.9373e-06
-0.000119526
0.000116184
3.45823e-06
-0.000116546
-2.88359e-06
0.000139238
-9.38949e-05
8.3955e-07
-0.000111262
0.000110447
-0.000119566
0.00011619
3.34961e-06
-0.0001299
7.21007e-05
5.71847e-05
-0.000116839
-2.81353e-06
-0.000119783
0.00011646
3.26517e-06
0.000114584
0.000124643
-0.000108956
-1.47039e-05
9.21744e-05
1.20481e-05
-0.000104213
-0.000117071
-2.70842e-06
0.000115173
-0.000119744
0.000116686
3.13595e-06
0.000118237
5.0693e-06
-0.000117064
-2.57571e-06
-0.000135919
3.09688e-05
-0.000112456
3.20605e-06
0.000109032
-0.000119689
0.000116738
2.98221e-06
-6.76322e-05
-5.23218e-05
0.000119943
-0.000117295
-2.42533e-06
9.95838e-05
-0.000102006
2.5188e-06
2.82113e-06
-0.000109042
0.000106212
-0.000119784
0.000116864
2.83561e-06
-0.000112307
-5.78497e-06
-0.000117521
-2.31228e-06
1.04221e-06
-0.000113356
-0.000100954
-9.12755e-06
5.33358e-05
-0.000120971
-0.000115845
-5.23541e-06
0.00010265
-1.05697e-05
-0.000110058
0.000114852
-4.78528e-06
-0.000111992
1.94364e-06
-0.00011983
0.000117112
2.72367e-06
-0.000117587
-2.15359e-06
-4.19147e-06
0.000110835
-0.000106644
2.82403e-06
0.000110089
-0.00011284
-0.000119167
0.000116692
2.57791e-06
-0.000117702
-1.44298e-06
0.000117229
-0.000119721
2.599e-06
-2.52301e-06
0.000122694
-0.000121485
-0.000119699
0.000117517
2.29332e-06
8.55746e-05
-0.000115926
3.03494e-05
-0.000117853
-1.78866e-06
1.89612e-06
-0.000109071
0.000107172
9.68306e-05
1.38235e-05
-0.000119612
0.000117496
2.09791e-06
0.000116591
-7.94008e-06
-0.000108756
-0.0001181
-1.56e-06
0.000113842
-2.822e-05
-2.20278e-05
1.64842e-06
-0.000109232
0.000107582
0.000111202
-0.000114688
3.45407e-06
-4.6476e-07
0.000111666
-0.000119654
0.000117661
1.9494e-06
-0.00011824
-1.40636e-06
-0.000132921
0.000114771
1.87941e-05
2.90317e-06
-0.000109513
0.000106611
3.74145e-06
-0.000110434
0.000106689
-0.00011895
0.000117343
1.75111e-06
2.58213e-06
-0.000113988
0.000111493
-0.000118221
-6.35458e-07
-7.33982e-06
0.000117953
-0.000115372
-2.78951e-06
-0.0001187
0.000117398
1.44643e-06
-0.000118369
-3.28203e-07
-0.000114878
0.00011329
1.48509e-06
-0.000114545
0.000114525
-7.63679e-09
-2.71029e-06
5.47392e-05
-0.000121277
-2.52736e-06
-0.000112013
-0.000111571
0.000110563
0.000115062
-0.000118592
3.76473e-06
-6.21302e-05
-6.41667e-05
0.000112536
-0.000119052
0.000118098
1.0941e-06
4.6094e-07
0.000110833
-0.000111293
-0.000118529
-5.33378e-07
-1.05521e-07
-0.000111173
0.000111276
-4.04806e-06
0.000109782
-0.000105737
-2.81738e-07
-0.000111328
-0.000112219
0.000111907
-0.000119132
0.000118077
8.67391e-07
-0.000118868
-3.34172e-07
-0.000112287
-2.14917e-06
0.000113771
-0.000112112
2.03884e-07
0.000111762
-0.000118464
0.000117844
6.59187e-07
-0.000111024
-0.000118727
4.33656e-07
-0.000116623
0.000118312
-1.69345e-06
-1.25967e-06
-0.000121066
-0.000118759
0.000118474
3.09902e-07
-0.000118875
2.45155e-07
-0.000113592
3.85982e-07
-3.87506e-06
-0.000118305
0.000118284
1.22917e-07
-0.000118836
4.68723e-07
-4.78958e-05
-6.61285e-05
-2.82464e-07
0.000111816
-0.000111534
-0.000112724
0.000112439
0.00011109
-0.000109496
-0.000118491
0.000118408
-1.41273e-07
-0.000111563
-2.25063e-06
0.000114154
-0.000119238
7.20102e-07
2.07341e-07
0.000109743
-0.000111114
-0.000124972
0.000110899
-0.000113856
-7.88059e-07
0.000114563
-8.39399e-06
-0.00011814
0.000118802
-3.52508e-07
-0.000118799
9.46477e-07
0.000115613
-5.54633e-07
-0.000117679
0.000118252
-6.51389e-07
-0.000119189
1.19274e-06
7.15639e-07
-0.000121087
0.000108213
-0.000117226
0.000117318
-9.68096e-08
-5.11323e-05
-2.98102e-05
7.6423e-05
-7.03225e-06
8.33064e-05
-0.00011348
3.0084e-05
5.8089e-06
-0.00012303
0.000105194
-2.15078e-06
-0.000103215
-3.25853e-05
-0.000114555
6.4651e-06
0.000107505
-5.123e-06
-0.000104803
-6.77948e-05
-6.42315e-05
0.000132711
-0.000116739
0.000115502
1.18381e-06
-0.00011615
-1.1138e-06
-2.89548e-06
8.69164e-05
3.0026e-05
0.000111344
-0.000110878
-0.000116992
0.000116089
9.68587e-07
0.00011124
9.45267e-05
3.07833e-06
-9.7605e-05
-1.80261e-06
-2.94988e-05
0.000102384
-7.85683e-06
0.000118512
-1.13958e-06
1.05816e-06
-1.84497e-06
0.000113843
-4.99794e-06
-0.000109299
0.000116425
-9.15412e-07
-1.49357e-06
0.000120399
6.23783e-05
7.3332e-05
-0.000133568
7.73074e-05
5.6226e-05
-8.55107e-05
-5.27824e-05
-1.45673e-05
0.000116022
-1.18056e-07
-0.000112853
-0.000119836
-0.000133353
7.25251e-05
-0.000109315
0.000109964
0.000112144
-0.000108923
-3.60466e-07
-0.000113115
1.79664e-06
0.000111229
0.000131058
-5.22455e-05
-0.000113352
2.68559e-06
0.00011059
6.87528e-06
-0.000116938
0.000109254
-0.000111233
2.38698e-07
-0.000121928
4.87624e-05
0.000121659
-8.70633e-05
-3.59734e-07
0.000111152
-0.000110896
-3.64042e-06
-0.000110126
0.000113604
7.24632e-05
-0.0001237
5.12368e-05
0.000107621
-0.000111811
0.000115959
-0.000102615
-0.000150014
8.87059e-05
6.13198e-05
-0.000113765
2.38964e-06
0.000111341
-2.65089e-06
-0.000110437
-0.000134899
6.51793e-05
9.9211e-05
6.06287e-06
-0.000105622
0.00010832
-9.2138e-06
-4.87127e-06
2.14824e-06
-0.000119475
7.53523e-06
-1.32557e-06
-0.000111977
0.00011542
-0.000113212
-2.5013e-06
0.00011002
-0.000109804
2.57182e-05
-0.000109231
0.000111851
-8.75877e-07
-0.000115239
0.000116465
-1.55234e-06
0.00012116
-0.000124054
-0.000116023
-4.68134e-07
-2.49242e-06
-0.000111155
-6.55067e-05
0.000100587
-3.47025e-05
-2.04903e-06
-0.000112437
0.00011452
9.25432e-05
1.31763e-05
-0.000105719
0.000113696
-0.000110168
8.11433e-05
-0.000112726
3.16555e-05
0.000103646
-1.11026e-05
-1.73026e-06
-0.000111702
0.000108084
-0.000108777
0.000107495
-0.000111265
0.0001105
-2.93024e-05
-4.12701e-06
-0.000112215
0.000111981
-0.000113066
0.000108953
-6.69763e-05
0.000130733
-6.37562e-05
-0.000118561
0.000118108
4.38687e-07
-1.82712e-06
0.000110797
-0.000109889
-6.81121e-05
-6.82518e-05
0.000108673
-0.000115809
-4.27344e-06
0.000107328
0.000116367
-7.71337e-05
-6.99249e-05
0.000127805
-5.62548e-05
0.000110842
-0.000119707
3.34516e-06
0.000104636
-7.58451e-06
-9.98573e-05
3.43861e-05
-1.18615e-06
0.000100959
5.213e-07
0.000116467
-0.000120121
5.6801e-06
0.000114465
-0.000120145
-0.00011831
0.000118685
-3.91455e-07
-9.2782e-07
-0.00011464
9.12782e-07
-3.26404e-06
0.000107671
-0.000104474
-0.000116899
9.49566e-05
1.45519e-05
-0.000118125
0.000118841
-7.12338e-07
-0.000135649
2.84288e-05
0.000107338
-0.000110633
-6.12267e-07
-2.19036e-05
0.000115605
-4.06099e-06
-3.35695e-06
-0.000111342
0.000114771
0.000117427
-5.02193e-05
-0.000115331
3.10295e-06
-0.000110215
0.000105757
0.000107338
-2.4711e-06
0.000110686
6.43562e-06
-0.00011573
0.000109616
-0.000117609
0.000118968
-1.4974e-06
-0.000108442
1.43046e-07
0.00010852
1.97583e-07
0.000125413
-8.27543e-05
-0.000110461
-3.20697e-06
0.000111594
-0.000108594
0.00011393
-3.40402e-06
0.000116133
-1.00889e-06
7.85369e-05
-0.000108773
3.02523e-05
5.74077e-06
0.000108241
-0.000114124
-0.000110401
0.000113298
0.000131969
-0.000118845
0.000108816
-3.02081e-05
4.6382e-06
-0.000115756
0.000112005
-5.81703e-06
0.00011657
-0.000109409
7.83259e-06
0.00010805
-0.000115531
-0.000108938
0.000116979
0.000140795
-0.000111466
-2.92956e-05
4.47123e-06
-0.000108339
0.000103753
-0.00012174
0.000130354
-1.92912e-08
0.000107853
-0.000103535
5.03921e-05
9.04192e-05
0.00011554
-3.07858e-06
4.75372e-06
-0.000116072
0.000109778
5.67982e-06
-0.000116541
0.000111105
7.96109e-06
0.000104003
-0.000111947
6.24286e-07
0.000110854
-0.000110411
-0.000118105
0.00010695
-0.000106788
0.000116421
-3.31655e-06
6.06656e-07
0.000109838
-0.000110734
0.000122482
-0.000126581
0.000111095
-0.000118368
1.46833e-06
3.69909e-06
0.000115582
-7.9685e-07
-1.31023e-06
-0.000110045
0.000109718
-0.000109686
-3.28732e-06
0.000104467
-0.000112652
-0.000110648
0.000106088
8.4869e-05
3.00518e-05
-0.000114574
0.000113492
1.06355e-06
0.00011602
-0.000118234
2.12961e-06
0.000118576
-2.52315e-06
-2.96107e-05
0.000110158
2.13909e-06
0.000116229
-0.000118512
2.22018e-06
-0.000115969
0.000118828
-2.73084e-06
0.000118654
-2.70627e-06
9.92117e-06
0.000106832
-0.000116756
-9.76199e-05
0.00010754
1.16098e-05
-0.000109232
-0.000107573
0.000103209
-0.000118115
2.32767e-06
-6.44778e-06
8.90527e-05
-0.000102796
1.3743e-05
-2.976e-07
0.000117403
0.000108077
-0.000111205
0.00011651
9.41145e-05
-5.06186e-06
-0.000115692
-8.1978e-05
0.000103019
-2.11619e-05
0.000124136
-9.88809e-06
0.000110106
-0.000102135
7.73401e-05
-0.000107745
3.04418e-05
0.000107961
-3.0574e-05
9.32807e-05
-9.67145e-05
0.00011757
-6.23454e-06
7.88257e-07
-0.000109946
0.000115785
-4.93619e-06
-0.000117947
8.89114e-05
-0.000118808
5.42812e-06
-0.000114483
-0.000114278
4.78466e-07
-9.65135e-07
0.000111945
-0.000111001
0.000111151
3.4734e-06
0.000104438
-0.000107894
0.000107489
-2.76369e-07
-0.000112173
-0.000110039
-7.7973e-06
-2.89757e-06
-0.000113863
-0.000118674
4.61647e-06
6.40593e-07
0.000110141
-0.000110854
-0.000113985
-2.19774e-06
0.000117935
-0.000117939
2.12811e-06
-6.86309e-05
-8.136e-05
-0.000113831
4.75006e-07
-0.00011849
-2.24822e-06
-5.59478e-05
-7.77623e-05
5.52125e-06
-0.000121181
-0.000108538
-0.000120616
-2.3351e-06
0.00010848
-0.000110412
3.4579e-06
-0.000106197
-1.23435e-06
0.000111425
0.000108097
2.18727e-06
-0.000109942
-0.000122202
0.000120632
-0.000108463
0.000105557
-9.93193e-07
1.18057e-05
-9.38295e-05
-0.000118527
7.50292e-06
-0.000116246
-1.26515e-06
-0.000116176
-1.17886e-06
-0.000115931
-1.14253e-06
-0.000116133
-1.37441e-06
5.80896e-07
-0.000118484
1.37817e-06
-0.000113366
5.721e-05
4.92842e-07
-0.000115889
-1.07947e-06
7.12886e-07
0.000112813
4.40469e-07
0.000114205
-0.000115448
1.26684e-06
-0.000116217
-1.53956e-06
3.94965e-07
-0.0001389
7.77696e-05
6.11217e-05
-0.000115814
-1.06336e-06
8.39483e-07
3.78239e-07
-0.000112753
0.000113998
-1.46897e-06
-0.000116155
-1.75219e-06
0.00011365
-0.000122143
8.29344e-06
-0.000115535
-1.04842e-06
3.68461e-07
1.85894e-06
-0.000115395
-1.05745e-06
0.000115594
-0.00011509
-4.85818e-07
-0.000116229
-1.90259e-06
3.86171e-07
-4.21579e-06
-0.000115315
-1.1008e-06
1.30036e-06
-0.000115653
-9.70299e-07
-0.000116113
-2.07696e-06
4.03687e-07
-0.00012634
5.93642e-05
0.000104907
-0.000109035
7.45796e-05
-0.000106402
3.17791e-05
1.43019e-06
3.78124e-07
0.0001139
-1.10802e-06
-0.000113421
1.87217e-06
-0.000115947
-2.28677e-06
0.000110326
-0.000111521
9.3379e-07
-0.000111415
1.08137e-06
-1.88805e-06
1.64963e-06
-3.62942e-05
2.29438e-06
0.000106495
-0.000112525
-0.000115878
-2.59624e-06
1.05496e-06
-0.000110162
-7.84085e-07
0.000110674
2.68947e-06
-0.000115757
-2.89771e-06
3.0054e-06
0.000129899
-0.000115762
-3.09236e-06
2.47027e-06
-0.00011532
-3.31248e-06
1.23805e-06
-0.000114166
1.04872e-05
-0.000108966
2.7018e-06
5.04226e-06
-0.000109609
0.000104569
-0.000115147
-3.62752e-06
0.000126855
-1.12172e-06
-0.000104431
0.000109472
-0.000113363
-1.21345e-06
3.7853e-06
-1.62872e-06
-0.000112405
0.000114283
-0.000111802
-3.82098e-07
0.000108064
-0.000115124
-3.85703e-06
3.3055e-06
-0.000115037
-4.11808e-06
9.40235e-05
1.43778e-05
3.49505e-06
-0.00010943
-2.04454e-06
0.00011162
-0.000114463
-4.33201e-06
0.000112211
0.000113654
1.71403e-06
-2.19045e-05
3.78655e-06
-1.10108e-06
-0.000118184
-0.00011579
0.000116095
-4.4822e-06
-0.00011487
-4.54805e-06
-0.000115418
0.000119137
-3.64547e-06
-0.00011821
3.18258e-06
1.57633e-05
-0.000107441
9.14115e-05
4.01372e-06
-0.000114062
-4.0592e-06
4.26009e-06
-5.61013e-05
-7.4996e-05
0.000130973
-1.65576e-06
-0.000112301
0.000113545
0.000108814
-0.000106475
2.67259e-06
-0.000115724
-3.03712e-07
0.000111436
-0.000113201
-4.25922e-06
0.00011041
-0.000106153
1.21411e-06
-0.000112759
-1.2119e-06
0.000111058
1.31262e-06
0.000107217
-0.000107632
-7.0544e-05
0.000136593
-0.000106437
-0.000122686
0.000125777
-2.11161e-06
4.17314e-06
0.000109583
1.41599e-06
0.000111556
-0.000113184
-5.32678e-07
0.000112182
-0.000111621
0.000117638