/*--------------------------------*- C++ -*----------------------------------*\
  =========                 |
  \\      /  F ield         | OpenFOAM: The Open Source CFD Toolbox
   \\    /   O peration     | Website:  https://openfoam.org
    \\  /    A nd           | Version:  12
     \\/     M anipulation  |
\*---------------------------------------------------------------------------*/
FoamFile
{
    format      ascii;
    class       surfaceScalarField;
    location    "2.17";
    object      phi;
}
// * * * * * * * * * * * * * * * * * * * * * * * * * * * * * * * * * * * * * //

dimensions      [1 0 -1 0 0 0 0];

internalField   nonuniform List<scalar> 
33852
(
0.000251329
2.24281e-05
-0.000273757
-0.000246121
1.32441e-05
0.000232877
-0.000176622
-7.21876e-05
0.00024592
0.000304053
-0.000163969
-0.000140085
0.000289949
-4.23976e-05
-0.000248136
2.72441e-05
-0.000260681
0.000233437
0.000314294
1.46399e-05
-0.000328866
0.000304277
-9.59564e-05
-0.000208321
0.000286413
-3.50841e-05
0.000203468
8.58851e-07
-0.000222877
0.00028908
-0.000365889
7.67605e-05
0.000360803
-4.55171e-05
-4.39602e-05
0.000263285
-0.000219325
-4.40318e-05
0.000318255
-0.000274114
6.10348e-05
-0.000238848
0.000252057
1.2236e-05
-0.000264293
0.000264853
-1.2796e-05
-0.000278433
3.23121e-05
0.000340251
-5.1142e-05
0.000158593
0.000112308
-0.000270901
-2.4379e-05
0.000303539
-0.000278751
0.000271377
-0.000276165
4.78802e-06
-1.77505e-05
0.000274909
-0.000257484
-0.000223007
1.49839e-05
0.000214729
-0.00015399
-0.000183612
0.000337605
-0.000140368
-6.81713e-05
0.000198108
3.72401e-05
0.000267037
-6.11747e-05
-0.000262805
0.000323666
-0.000224173
2.12386e-06
0.000223196
-0.000197542
-1.86439e-05
0.000142045
0.000137388
-0.000279433
0.000342155
1.9407e-05
0.000142618
0.000128347
-0.000270965
-0.000101136
0.000259729
-0.000250489
-3.78001e-06
0.000254269
0.000332841
-6.00243e-05
-0.000271521
-0.000357388
0.000203732
-0.000227564
0.000209608
0.000231645
3.32081e-05
-5.65602e-06
0.000237301
-8.03702e-06
0.000191123
-0.000232625
0.000259869
0.000309469
-5.59522e-05
-0.000258778
-0.000309093
5.51042e-05
0.000253989
0.000239568
-0.000301247
0.000273589
-0.000306321
3.27321e-05
-0.000180237
-5.49362e-05
0.000235173
0.000272133
-0.000272133
0.000148429
-0.000297473
0.000149045
-0.000210659
0.000217862
-7.19296e-06
-0.000268241
0.000237301
3.09401e-05
-0.000200061
0.000249066
-4.70339e-05
-9.16164e-05
-0.000217477
-0.000114253
-0.000251789
-0.000280169
0.000266113
1.40561e-05
0.00033045
1.18764e-05
-0.000250433
7.01963e-05
0.000117908
0.000145909
-0.000263817
1.34681e-05
-0.000267457
0.000253989
-0.000134569
0.000282997
-0.000144301
-4.57261e-05
0.000190785
-0.000274681
0.000245113
2.95681e-05
0.000237553
-0.000268437
3.08841e-05
-0.000191218
-2.46741e-05
0.000151665
0.000115565
-0.00026723
-0.000184622
-2.76077e-05
0.000211253
0.000263985
2.24281e-05
0.000275941
-2.35201e-06
0.000265329
-0.000250741
-1.45881e-05
0.000217246
-6.38435e-05
-0.000169408
-1.82001e-06
0.000239373
0.000366548
-0.000312384
-5.39154e-05
-2.73614e-05
0.000297876
-0.000274248
-0.000101584
0.000219493
0.000342814
2.42292e-05
-0.000372496
0.000354748
1.85004e-05
-0.000209463
2.17649e-05
0.000309001
-0.00032097
1.22211e-05
-0.00020803
0.000271907
-6.38698e-05
-4.45202e-06
1.70666e-05
-0.000318995
0.000302155
0.000233641
-0.000199124
-3.50115e-05
0.00026952
-0.000339862
7.01069e-05
0.000332759
-6.34293e-05
-0.000268941
0.000236573
3.23681e-05
-0.000129388
-0.000132609
0.000261997
-1.86761e-05
-0.000249565
-1.022e-05
-0.000258721
2.35072e-05
0.00021032
-0.000234533
3.28988e-05
-0.000235992
0.000186938
-2.50603e-05
0.000328636
-0.000303397
-0.000279329
0.000273701
5.62802e-06
0.000156129
-0.000296857
0.000140729
-6.26234e-05
-0.000158303
0.000224172
0.000143277
0.0001218
-0.000265077
-0.000249754
0.00022567
-0.000224635
0.000165494
-0.000168813
0.000327181
-0.000158369
0.000185389
7.16523e-05
-0.000257041
0.000255193
2.07481e-05
-0.000192277
0.000148317
4.82973e-05
0.000260694
0.00030715
-0.000289723
8.69385e-05
-0.000249158
0.000135241
0.000117096
-0.000281065
-1.59834e-06
0.00024344
-0.000243277
0.000166489
0.000122836
-0.000289325
0.000143923
8.94536e-05
-3.92002e-06
0.000259113
0.000303902
5.46866e-06
-0.000324155
0.000314977
9.02675e-06
-3.99002e-05
0.000236293
-0.000196393
4.08802e-06
-0.000284257
-2.57547e-05
0.000159049
-0.000134255
-0.000151757
0.000126009
0.000213211
-0.000195824
-0.000269921
0.000264965
4.95602e-06
2.64041e-05
0.000174721
-0.000201125
2.87841e-05
-0.000257265
0.000228481
0.000276137
-0.000262669
0.000115108
0.000212073
0.000215224
-0.000192572
-0.000175813
0.000202217
1.30767e-05
0.000280207
-0.000295232
0.000269084
2.14738e-05
0.000271636
-0.000283833
1.23378e-05
3.86402e-06
0.000267513
-1.81031e-05
0.00028992
0.000330702
9.8728e-06
0.00021398
-0.000257717
0.000316215
-0.000316309
-6.63603e-06
-0.000272693
2.77713e-05
0.000184707
0.000187993
3.98722e-05
-0.000227865
-5.48649e-05
0.000225048
-0.000154453
0.000153609
-0.000270285
0.000116676
0.000279441
-0.000329701
5.02602e-05
-6.38122e-05
0.000249201
-0.000166909
0.000315897
-0.000148989
-0.000314125
-1.00437e-05
-0.000214929
0.000175029
2.78601e-05
-0.000278349
0.000276221
-1.88441e-05
-0.000248613
1.72281e-05
-0.000303037
0.000285831
0.000344989
-0.000158593
-0.000186397
-1.68341e-05
-0.000240081
0.00025701
-0.000266617
-3.30401e-06
0.000224001
2.45841e-05
-0.000248585
0.000284509
-0.000128381
0.000140197
0.000138853
-0.000279049
-0.000199834
-1.05685e-05
0.000258169
-0.000115551
0.00022591
-0.000242547
-6.38122e-05
0.000251805
-0.000207955
0.000249481
-5.60002e-07
-0.000248921
0.000255109
-0.000237441
-0.000325079
0.000300112
-3.08841e-05
0.000203169
-0.000172285
0.000291544
1.20104e-06
-0.000292927
7.43631e-05
0.000128459
-0.000197414
4.10872e-05
-0.00018611
-0.000288649
-4.58503e-06
0.000293882
-1.59096e-06
-0.000287058
0.000146973
-0.000273925
0.000126952
-0.000262978
0.000219412
-0.000292464
0.000260799
0.000279441
-0.000313248
-1.24753e-05
0.000325103
0.000110527
0.000161248
-2.13345e-05
0.000354341
0.000140141
0.000139833
-0.000279973
0.000245029
-0.000250349
5.32002e-06
-0.000210953
0.000180069
0.000279133
-5.43202e-06
0.00035087
-3.25552e-05
-0.000302462
0.000303421
-1.31954e-06
0.000270985
-0.000270985
-0.000365338
0.000226337
0.000139157
-0.000197738
1.94281e-05
1.69744e-05
0.000275157
-0.000278461
3.30401e-06
-4.77911e-06
0.00016845
-0.000167333
-0.000197345
0.000254801
-5.74562e-05
-0.000203842
4.45979e-06
-0.000226917
0.000147215
7.26769e-05
-0.000180264
0.000261397
-8.11344e-05
0.000256285
-0.000287113
3.08281e-05
-0.000249229
5.18842e-05
-2.36327e-05
0.000276202
-0.000252522
-0.000253547
1.35801e-06
0.000252189
0.000231281
-7.28003e-06
-0.000294441
7.55633e-06
0.000286769
-0.000266085
0.000266085
-0.00028476
-5.51472e-05
-0.000170851
-0.000194098
-0.000171126
0.000217566
-4.52808e-05
-1.232e-05
-0.000239177
0.000251497
3.10801e-06
0.000210113
-0.000213221
-0.000185857
-2.2911e-05
0.000209117
7.56191e-06
0.000294515
-0.000302122
-0.000236153
-1.34401e-05
0.000249593
1.50361e-05
-0.000251189
-0.000241025
0.000256061
-0.00030128
0.000308833
0.000256117
7.16803e-06
-0.000170868
-3.24699e-05
0.000207909
-0.000145237
-0.000134765
-0.000244329
0.000240549
0.000298563
-4.27799e-07
-0.000298208
-0.000298862
5.84605e-07
0.000298236
1.92488e-05
0.000181217
0.000163773
7.70045e-05
-0.000257269
-0.000159242
0.000310908
0.000250721
-0.000108677
-0.000235145
-1.83681e-05
0.000253513
-0.000204577
-0.000126736
0.000331272
-6.10402e-06
-0.000229125
0.000235229
-2.06779e-05
-0.00017434
-0.000286196
-8.52919e-05
6.30069e-06
-0.00030072
-0.000212781
0.000328329
-0.000115077
0.000281597
0.000288205
-5.16322e-05
0.000271993
-1.57081e-05
-0.00018608
-1.36554e-05
0.000201265
0.000297211
3.97235e-07
-0.000297691
-0.000269722
-3.29299e-05
-0.000218821
0.000247605
-2.51402e-05
0.000310869
-0.000286209
0.000178503
7.40747e-06
-0.000183356
-3.37779e-05
0.000217448
-0.000301986
0.000276621
0.000291319
5.77084e-06
-0.000297357
0.000157445
0.00011886
-0.000276305
0.000289723
5.50912e-06
-0.000294802
-0.00025795
0.000120197
0.000132412
-0.000280346
0.000292608
0.000302513
-0.000156857
-0.000145657
0.000207005
-0.000203897
-0.000232009
-0.000121156
-0.000155009
-4.0341e-06
-0.000293952
0.000297972
-1.0136e-05
0.000276249
0.000288577
-2.00807e-05
-0.00027089
-0.000262843
2.90698e-05
0.000234102
0.000271433
-0.000267569
0.000249621
2.95121e-05
0.000315118
-9.80341e-06
-0.000305379
5.05066e-05
0.000166325
-0.000202787
-9.69577e-05
0.000189978
-9.41811e-05
0.000252617
-2.91201e-05
-0.000223497
3.04617e-07
0.000291158
-0.000181184
-3.15398e-05
0.000214543
-1.59995e-06
0.000291643
-9.33244e-05
0.000246933
-0.000255417
-5.26402e-06
0.000121184
0.000181329
1.34121e-05
0.000241557
-0.000254969
0.000236097
1.34961e-05
-0.000249593
0.000249509
-0.000242929
0.000256425
6.32609e-05
-0.000200888
0.000137756
-0.000218254
0.000115041
-0.000200126
0.000297359
1.41124e-06
-0.000298661
0.000253849
2.22881e-05
0.000268493
-0.000216441
-5.20522e-05
0.000225518
-0.000246849
2.13305e-05
0.000257909
1.40841e-05
5.92384e-05
0.00029589
0.000267186
-3.89594e-05
-0.000228226
0.000174169
1.274e-05
0.000240297
-0.000253037
0.000192763
-0.000114624
-7.92016e-05
-0.00020674
2.15949e-05
-1.25901e-06
-0.000297617
0.0002991
0.000220736
-0.00016827
-5.24038e-05
0.000344845
-4.12443e-05
0.000275969
-0.000135829
2.31561e-05
0.000238337
-0.000261493
-0.000231141
0.000254297
-2.66841e-05
-0.000229766
0.000256393
0.000154156
-0.000163309
-8.18555e-05
-0.000175263
-0.000261723
4.14346e-05
0.000220288
-3.17521e-05
-0.00022997
6.52643e-06
0.000261717
-3.25193e-05
-0.000229198
1.67634e-05
0.000127839
-0.000211126
0.000308785
-0.000171397
0.000262319
-3.57923e-05
-0.000226526
-0.000318947
0.000184645
-0.000101127
-0.000228453
-6.90203e-05
-8.82051e-07
-0.000299448
0.000299509
-2.73562e-05
0.0001699
-0.000142183
0.000308137
6.84555e-06
0.000250097
-0.000248249
-1.84801e-06
-0.000177004
6.15996e-05
0.000260233
-3.07363e-05
-0.000229534
0.000197345
-0.000250769
5.34242e-05
0.000254205
-0.000231206
-2.29992e-05
-0.000252337
0.000240017
0.000146233
0.000103471
-0.000101864
-0.000170269
0.000132496
-0.000261885
-0.000290249
0.000242201
4.80483e-05
0.000216808
3.12472e-05
-0.000248056
-0.000240052
-9.46582e-06
0.000247679
0.000321076
-2.33327e-05
0.000263996
-3.42721e-05
-0.000229724
0.000135892
-0.000223492
8.52127e-05
3.63259e-05
-0.000265637
0.000229311
-0.000253905
0.000121296
0.000249817
-5.24722e-05
0.000294673
-0.000154253
-0.000140421
0.000122248
-0.000289157
1.53441e-05
0.000237665
-0.000253009
-0.000262031
3.54705e-05
0.00022656
-2.73267e-06
-3.77917e-05
-0.000224239
0.000249007
-0.00027262
-0.000264649
3.44737e-05
0.000230175
0.000193257
0.000101416
-0.000149941
0.000290137
-0.000170502
-3.83237e-05
0.000209064
-1.81721e-05
0.000263201
-0.000293223
0.000310299
0.000117134
0.000103688
0.000261325
-0.000261325
0.000312204
-2.21079e-05
-0.00028912
5.32002e-07
0.000248949
0.000254857
1.65761e-05
0.000309966
-0.000276616
-3.3376e-05
-2.26336e-05
0.000266577
-0.000243943
3.00077e-05
-0.000260519
0.000230511
-0.000252139
0.000229506
0.000328272
3.11501e-05
-0.000260598
0.000229447
0.000276809
-3.16961e-05
-6.83889e-06
-0.000293639
0.000302008
0.00027042
3.88738e-05
0.000230245
-0.000266617
3.63721e-05
0.000200317
-0.000201381
-0.000258301
0.000238533
1.97681e-05
0.000169762
-0.000257245
8.74835e-05
-0.000198843
0.000163241
-0.000249145
8.59043e-05
-0.000266169
0.000224813
4.13562e-05
0.000253073
-2.78797e-05
-0.000225194
0.000188132
4.55754e-05
-0.000234837
-2.29601e-05
0.000257797
-0.000236377
-2.28761e-05
0.000259253
-1.94265e-05
0.000255969
-0.000236542
-0.000259345
0.000239919
-3.07235e-05
0.000166233
-0.000235929
-2.24001e-05
0.000258329
-0.00025484
0.000229192
2.56481e-05
2.94001e-06
0.000211289
-0.000214229
-0.000267031
3.79849e-05
0.000229046
0.000270677
4.48002e-06
4.29516e-05
0.000174559
-0.000213014
-3.31202e-05
0.000249926
-2.09268e-05
0.000218597
9.73004e-05
0.000248203
-0.000216956
0.000277171
-0.00027862
0.00027726
-0.000281358
-1.84997e-05
0.000258601
-0.000240101
-0.000261644
0.000243145
3.02582e-05
-0.000200235
-2.97584e-05
-0.000202992
0.000235965
0.000315494
-0.000287917
-2.74991e-05
0.000261297
-3.11081e-05
-0.000230189
3.28739e-05
-0.000262362
0.000229488
-0.000229853
0.000259645
-2.97921e-05
0.000325652
-1.77053e-05
0.000139343
-0.000219696
0.000256929
-0.000109956
-0.000286089
0.000287254
0.000241977
-6.41202e-06
-0.000235565
0.000228537
-0.000183208
-3.75266e-05
0.000224002
2.8308e-05
-0.000206031
-0.000239989
0.000260317
-2.03281e-05
-0.000102695
0.000185222
-8.68506e-05
3.07756e-05
-0.000201996
0.000240169
-0.000263424
2.32552e-05
-0.000115584
0.000258861
-0.000243993
0.000265721
-2.17281e-05
-0.000238953
0.000232541
0.000258626
-0.000245105
-1.35213e-05
0.000264349
-2.46681e-05
-0.000246317
-0.000273278
-1.05424e-05
0.000296209
-5.25769e-05
-8.48281e-06
0.000291836
-0.000286255
-0.000171572
0.000221279
0.000226805
1.7402e-05
-0.000248653
0.000329188
-0.000329084
0.000260955
-0.000245018
-1.59377e-05
-0.000301915
-6.98107e-07
0.000305657
9.78506e-06
3.7022e-05
0.000166812
-0.000204675
0.000210535
-3.34286e-05
-0.000173988
0.000278054
-0.000255789
-2.22648e-05
-0.000207751
3.09521e-05
3.15421e-05
-0.000261891
0.000230348
0.000285572
-0.000291612
2.44721e-05
-0.000259617
-0.000257965
1.87881e-05
0.000266057
-1.64361e-05
0.000151173
-0.000267625
0.000116452
0.00029886
-4.41179e-06
0.000238617
-7.53763e-05
2.12521e-05
0.000177045
-0.000198297
-0.000183877
0.000205129
-0.000236275
0.000257219
-2.09441e-05
0.000261462
-3.31689e-05
-0.000228293
-0.000197009
-5.21362e-05
0.000251581
-1.48401e-06
8.73868e-06
-0.000265197
0.000254327
-0.00034315
0.000236634
0.00010655
0.000266371
-0.000236811
-2.95597e-05
0.000306926
-0.000314708
7.79797e-06
-2.57041e-05
-0.000229097
0.000254801
0.000261493
-7.64403e-06
1.00982e-05
-0.000208871
0.000262411
-3.19033e-05
-0.000230508
-6.90483e-05
-0.000260653
-0.000194685
0.000248025
-5.33402e-05
-0.000266533
0.000249985
1.65481e-05
-0.000317984
1.66657e-05
-1.70749e-05
0.000296733
-0.000279776
-0.000276221
1.65481e-05
0.000249537
-0.000171436
6.48687e-05
0.000274016
1.47579e-05
-0.000288706
-0.000316032
0.000307805
8.24004e-06
3.46641e-05
-0.000263649
0.000228985
-1.74889e-05
0.000281539
-0.000315264
1.6383e-05
-0.000176541
-7.42283e-05
-0.000232795
0.000206147
-2.16721e-05
-0.000216469
0.000238141
-0.000314434
0.000295651
1.8787e-05
-0.000133261
0.000275483
-0.000141184
-8.37796e-06
3.31521e-05
-0.000263453
0.000230301
-0.000197344
2.4152e-05
0.000176303
0.000221504
0.000280935
-0.000280585
2.66624e-07
-0.000236993
-2.20921e-05
0.000224813
-0.000202721
0.000139273
0.000143753
-0.000278517
0.000199555
-5.59689e-05
0.00030798
-1.07003e-05
0.000209918
-0.000268437
2.92853e-05
0.00022306
-0.000252345
-0.000322007
0.000138133
0.000296352
2.91435e-05
1.95236e-05
-0.000224355
-2.77845e-05
-0.000137558
-0.000132756
-0.000326495
0.000113848
0.000242873
2.56201e-05
0.000218765
-0.000224869
1.08872e-05
-0.000287144
0.00027675
-0.000243164
0.000271279
-2.70851e-05
0.000281405
-0.000281827
0.00028735
-7.72349e-05
-8.83093e-06
0.000290252
-1.87881e-05
0.000247101
-0.000228313
0.000281433
-0.000290264
-5.6178e-06
-0.000283849
0.000289494
0.000282021
-0.000269919
0.000284869
0.000226314
2.67597e-05
-0.000311231
0.000318231
-6.79539e-06
0.000245864
-2.19868e-05
0.000222591
2.53012e-05
-0.000268913
0.000246057
-2.05381e-05
-0.000259401
3.02849e-05
0.000229116
0.000178305
7.64963e-05
9.48388e-06
0.000280762
-0.000291234
-0.000238141
-2.88401e-05
0.000266981
2.51441e-05
-0.000263285
0.000284117
-0.000162317
-0.000232177
0.000261129
-2.89521e-05
-0.000234697
0.000260709
-2.60121e-05
1.43549e-06
0.000279709
2.45001e-05
-0.000259197
2.38001e-05
-0.000255977
0.000274354
-0.000242948
-3.13319e-05
0.000317843
-1.00116e-05
-0.000304342
-3.60809e-06
-0.000255753
1.1816e-05
0.000243937
-1.68592e-05
-0.000261185
0.000228065
-0.000245337
0.000270145
-2.48081e-05
-0.000263229
1.49801e-05
-2.36076e-05
0.000286181
-0.000262332
2.13641e-05
-0.000266701
-0.000241612
-2.13623e-05
3.2641e-05
-9.0432e-05
0.000260194
0.000280826
-0.00028659
5.05122e-05
0.000237693
0.000282312
-0.000282334
-0.000243181
-2.39401e-05
0.000267121
-0.000260894
7.34723e-06
-0.000295885
1.96577e-05
0.000275756
-0.000268717
2.55361e-05
-8.53907e-06
0.000290696
-0.000268326
0.000243549
2.47772e-05
-0.000232513
0.000210841
0.000280257
-0.000288627
-6.16002e-07
0.000260289
-0.000259673
-0.000301898
-1.61199e-05
-0.000264573
2.35481e-05
-0.00024417
-2.41555e-05
-3.43281e-05
-0.00029802
0.000293907
0.000286674
-0.000158327
0.000295984
-0.000291525
2.30152e-05
4.87638e-06
0.000262841
-0.000255413
-7.22188e-06
0.000307658
-2.02001e-05
-0.000287487
5.94482e-05
-0.000246765
-2.19521e-05
-0.000356001
0.000240945
0.000283209
-0.000277894
2.33801e-05
-0.000182401
-1.52414e-05
-0.000306428
2.56776e-05
0.000280827
-0.000193782
0.00030929
-0.000112598
0.000259841
-0.000238533
-2.13081e-05
-0.000291742
2.94001e-05
0.000222097
-0.000251497
-0.000158032
0.000126982
-0.000153297
0.000251441
-0.000238029
-1.34121e-05
-0.000263873
3.40201e-05
-2.23161e-05
-0.000269837
0.000251469
0.000230427
3.12901e-05
-4.85357e-05
0.000217414
0.000232619
-0.000260499
-1.73411e-05
-2.97464e-06
0.0002483
-0.000244674
-0.00029323
-0.000237049
0.000265189
-2.81401e-05
0.000230096
3.22225e-05
-0.000268521
2.55921e-05
-0.000239905
-2.86161e-05
0.000228954
-0.000260706
-0.000282376
4.73202e-05
-0.000242005
0.000293797
-0.00028368
-0.000288783
1.31544e-05
0.000275062
-4.48894e-06
0.000219996
0.000228551
-0.00026107
0.000296885
-0.0001309
-0.000165985
0.00024116
-0.000261796
0.000270773
-0.000226213
-1.76681e-05
-0.000162626
0.000302401
-0.000140636
2.49649e-05
0.000222662
-0.000247627
-0.000193113
0.00019347
-0.000283842
0.000282624
7.10672e-06
-0.000290936
-0.000302485
0.000146693
0.000155793
0.000259995
-0.000239359
-2.06361e-05
-0.000215741
0.000193649
0.000262399
4.14245e-07
0.000257293
0.000232526
2.16798e-05
-0.000295831
-6.13974e-05
1.03823e-05
0.000234667
-0.000250624
1.72903e-05
-0.000230917
-2.37161e-05
0.000254633
-0.000242295
0.000263191
-2.08965e-05
8.28324e-05
0.000134939
2.01511e-05
-0.000305663
0.000285635
0.000256565
-1.80041e-05
-0.000238561
0.000243881
-0.000254017
1.0136e-05
-0.000226745
0.000207957
0.000223131
-0.000258923
-0.000244693
4.76842e-05
1.5961e-05
-0.000137984
-0.00021907
1.57921e-05
0.000245701
0.000281079
0.000293637
0.000305858
1.68955e-06
0.000249817
-0.000220417
2.51749e-05
0.000225009
-0.000250184
-0.000243178
0.000268865
-2.56873e-05
2.28201e-05
-0.000262725
-0.00011663
0.000296082
9.12094e-06
2.08181e-05
0.000261675
-0.000235103
-2.65721e-05
1.32536e-05
-0.000303759
0.000290507
0.000321635
-3.09924e-05
-0.00029066
0.000249733
1.63241e-05
0.000305983
-0.000293078
-0.000230646
-0.000112469
9.63204e-06
0.000250657
-4.9129e-05
-0.00020239
0.000251519
2.20333e-05
0.000246832
-0.000241686
-2.29629e-05
0.000260737
-2.24001e-05
0.000287807
-0.000268023
2.63369e-05
2.68241e-05
-0.000257965
0.000210617
-0.000207677
2.58161e-05
-0.000262865
0.000279773
0.000121744
-0.000256173
0.000134429
1.87783e-05
3.85587e-05
0.000164787
-0.0001997
-0.000239485
-2.85377e-05
3.95999e-05
0.000159355
-0.00020027
-0.000246691
0.000271066
-2.43747e-05
0.000209866
-0.000248826
1.98857e-05
1.73409e-05
-0.000173741
-3.00808e-05
0.000226673
-0.000257414
-2.88401e-05
0.000244245
-0.000215405
-2.16161e-05
0.000242985
-0.000221369
0.000201657
-0.000250786
-0.000273703
-0.000232905
-2.55081e-05
0.000258413
0.000241234
2.98318e-05
-0.000213176
-2.38549e-05
0.000237254
-2.18821e-05
-0.000224967
-0.000239345
6.28042e-05
0.000259004
-0.000229718
4.75106e-05
-0.000249901
-3.43393e-05
0.000257694
-0.000223354
0.000205675
-0.000240014
0.000261689
-1.1956e-05
-6.06764e-05
-0.000229572
-0.000225857
-1.73546e-05
0.00024305
0.000247109
5.3175e-05
0.000212448
-0.000265623
-0.000261094
0.000177353
-0.000231757
5.44042e-05
6.38556e-05
0.000135982
0.000259457
-0.000240915
-2.47224e-05
-0.000265385
0.000227165
3.82201e-05
-2.87813e-05
-0.000222158
0.00025094
-0.000284705
0.000264161
0.000234501
3.61761e-05
2.18821e-05
0.000234087
-0.000307217
0.000151089
0.000156129
0.000171108
-5.31125e-05
0.000254045
-0.000115192
2.56901e-05
0.000217446
-0.000243136
-0.000286125
0.00028644
9.21079e-06
0.000257377
-0.000245953
0.000208937
3.70161e-05
0.000254832
0.000245428
-1.9377e-05
-0.000246815
-2.02161e-05
-0.000263019
2.0724e-05
-0.000269215
2.24001e-05
2.79601e-05
0.000220024
-0.000247984
0.000242481
-0.000274597
1.32721e-05
0.000248326
-1.35331e-05
1.28635e-05
-0.000252646
-0.000328712
0.000123999
-0.000233135
-2.62109e-05
-0.000252113
0.000252113
0.000259782
-0.000144217
-1.80817e-05
-0.000279164
0.000297282
0.000274209
0.000258749
-0.000135913
0.000224113
2.39205e-05
0.00023468
7.81923e-05
-0.000341561
3.77412e-05
0.000258962
1.76363e-05
-0.000248843
-3.00917e-05
0.000207453
-3.01001e-05
0.000259701
2.95429e-05
0.000218353
-0.000247896
-3.05014e-05
-4.09782e-05
-0.000217818
0.000258797
-0.000233423
-2.14173e-05
3.70962e-05
-0.000197939
0.000160759
-3.30877e-05
0.000221671
-0.000255943
-0.000281851
-8.53734e-06
0.000290191
-0.000194333
0.000167266
0.000166349
8.16763e-05
1.25639e-05
-0.000294698
0.000235075
2.59446e-05
-0.000261019
-0.00019834
-1.30615e-06
0.000232743
-0.000264287
3.15449e-05
-8.42803e-06
-0.000217029
0.000225457
-0.00016235
0.000199411
-0.000249985
-3.46025e-05
0.000256274
0.000218076
-0.000252679
-0.000246289
0.000272245
-2.59561e-05
0.000253547
2.78321e-05
-0.000232062
-2.95821e-05
-0.000298183
0.000316519
-1.8267e-05
2.34571e-05
0.000212462
-0.000250254
-0.000267233
2.09441e-05
-2.12801e-05
-0.000245953
-3.61481e-05
0.00024861
-0.000290189
-1.37584e-05
0.00022082
-0.000256968
0.000249499
-0.000252158
1.37996e-06
2.80002e-06
0.000181413
-0.000184213
0.000255294
0.000234529
2.67681e-05
-2.62361e-05
0.000245001
-0.000218765
3.36001e-05
0.000216609
-0.000250209
0.000244861
2.73841e-05
0.000306545
-0.000143949
-0.000162597
1.52822e-05
0.000240859
-0.000254827
0.000271013
-0.000113568
0.000225569
-0.000256677
-0.000240831
0.000104621
-0.000265469
7.16803e-06
-0.000241635
-2.75801e-05
-0.000241361
-2.48081e-05
0.000306987
-2.61231e-05
-7.67483e-05
0.000243097
-1.1452e-05
-0.000215601
0.000224281
-8.68003e-06
0.000255193
-7.68883e-05
3.44915e-05
-0.000198254
0.000165694
-0.000265245
-1.40001e-07
-4.14962e-05
3.9568e-05
0.000156281
-0.00019625
0.000200372
-0.000163633
0.000257041
-7.05603e-06
0.000251151
-0.000218277
-1.81289e-05
-2.1128e-05
0.000274638
-9.47485e-05
-0.000176888
-1.42801e-05
-0.000191913
0.000206193
0.000258665
-1.53553e-05
-0.00024331
1.98101e-05
0.000238855
-0.000279187
-7.76569e-06
3.74218e-05
-0.000200626
0.000163091
1.36921e-05
0.000247997
-0.000165534
0.000202913
-1.95189e-05
0.000248711
3.28202e-05
0.000189795
-0.000218713
-4.17202e-06
-2.49389e-05
0.000265108
-0.000231955
-3.14693e-05
0.000297067
-0.000281582
-1.54277e-05
1.63717e-05
-0.000237659
0.000221288
-0.00010514
0.000226885
1.92148e-05
-0.000304783
0.000285606
2.52001e-05
-2.79441e-05
2.69165e-05
0.000308527
-0.000289281
0.000238891
1.97345e-05
2.15601e-06
0.000231617
-0.000233773
-0.000310139
2.56291e-05
0.000284673
-0.000162177
-0.000144145
0.000209178
-0.000250156
-0.000160672
0.000241924
1.90317e-05
0.000257869
-4.13534e-05
0.000250531
0.000214498
-0.000255851
0.000319118
-0.00031841
-1.08277e-05
0.000287209
-0.000276325
-0.000302608
1.96031e-05
0.00028329
4.20842e-05
-0.000286413
-3.87788e-05
0.000252483
2.62921e-05
-2.19739e-05
0.000307137
-0.000285057
2.43321e-05
3.972e-05
0.000161958
-0.000201442
0.000249294
-0.000219751
2.83277e-05
-0.000261633
4.36802e-06
-2.00116e-05
0.000306824
-0.000286874
-0.000250987
-0.000266673
3.07441e-05
0.000252141
-0.000236741
-1.54001e-05
1.2264e-05
0.000239877
-0.000275843
-1.29473e-05
0.000255697
-6.53197e-06
0.00031615
-1.2205e-05
0.000297785
-0.000286181
-4.9586e-05
0.000247437
-0.000235621
0.000257601
-1.99361e-05
0.000124382
7.80009e-05
-0.000217227
0.000206049
3.03493e-05
0.000226759
-0.000258662
3.71393e-05
0.000271397
-0.000288715
1.69215e-05
0.000251273
-0.000239093
-1.31321e-05
0.000252225
-2.91201e-05
-0.000257265
2.56481e-05
0.000231617
-0.000228005
-2.92601e-05
0.000259765
-0.000233571
-2.61941e-05
0.000258721
-0.000268209
2.63531e-06
0.000289546
1.28042e-06
-0.000290853
0.000249435
-0.000232736
-1.85921e-05
0.000308818
-0.000301379
-8.4835e-06
0.000230706
-9.53207e-05
-0.000266897
2.56761e-05
0.000241221
-3.48881e-05
-0.000232009
-0.000266393
2.51161e-05
0.000241277
-1.22615e-05
-0.000267161
0.000280136
-3.45241e-05
-0.000231869
-0.000261471
1.91309e-05
-0.000266281
2.43881e-05
0.000241893
-0.000284013
-2.17084e-05
-0.00030578
2.75757e-05
0.000277609
-3.34041e-05
-0.000232877
-0.000165537
-0.000258133
2.94001e-05
0.000228733
0.000309743
-0.000309794
-0.000195805
0.000209049
-3.29281e-05
-0.000225205
0.000197369
-0.000279049
8.16206e-05
0.000283469
2.23377e-05
-0.000301953
1.76961e-05
0.000285545
-0.00028096
-4.91175e-06
-0.000257125
0.000231617
2.55081e-05
0.000189649
2.94692e-05
-0.000213269
-0.000266953
2.81681e-05
0.000238785
-0.000227361
-2.97641e-05
-3.67361e-05
-0.000230217
0.00027342
0.000297558
1.91542e-05
-0.0002762
-3.17653e-05
0.000308106
-0.000258679
-1.0735e-05
0.000297938
-0.000286233
1.50918e-05
-0.000302217
0.000287013
-0.000230609
-0.000307675
0.000287512
0.000263005
-2.56196e-05
-0.000281196
1.36081e-05
0.000169637
0.000228034
1.91368e-05
-0.000246245
-0.000198329
0.000161101
0.000236738
1.31517e-05
-0.00024989
-0.00025833
2.66093e-05
0.000231721
-1.09228e-05
0.000247661
5.74002e-06
0.000246877
-3.19817e-05
-0.000226348
0.000299841
-0.000285936
-1.3913e-05
0.000228024
-0.000226666
0.000290023
0.000237685
1.98521e-05
-0.000257537
-1.24236e-05
0.000250108
0.000246636
1.50389e-05
-0.000305769
1.54995e-05
0.00024448
2.18905e-05
3.22189e-05
-0.000199173
-0.000287176
-1.76817e-05
-0.000182869
0.000295177
-0.000153855
0.000188284
-3.37799e-05
3.07055e-05
-0.000203298
0.000174461
-0.000167065
0.000259149
-0.000239236
-1.99137e-05
0.000261962
-0.000273493
-0.00024238
0.000230871
-2.19942e-05
0.000302233
-0.000280425
0.000307971
-0.000293138
0.000242117
1.77241e-05
-0.000224975
0.00024443
-1.94545e-05
1.61001e-05
-0.000241075
-7.00003e-06
0.000260989
-0.000297135
4.90329e-06
0.000292147
-0.000174497
0.000160217
-1.74105e-05
-6.34827e-06
-0.000290843
-1.68973e-05
-0.000285306
4.28402e-06
-0.000299101
0.000133334
-0.000257469
2.37543e-05
0.000233714
0.000238197
1.32441e-05
-3.08042e-05
-0.000226663
-3.30707e-05
-0.000291759
2.10383e-05
-0.000225004
0.000201347
0.000254969
-0.000233465
-2.15041e-05
-0.000198022
0.000213188
-0.000185543
-7.35875e-06
0.00020399
0.000136573
0.00014334
3.96439e-06
0.000270603
0.00027949
-0.00030596
2.85378e-06
0.000244614
-1.98123e-05
0.000298779
-0.000278528
-0.000302522
0.000287669
1.48697e-05
-0.000258301
0.000230077
2.82241e-05
-2.64041e-05
-0.000231897
0.000301579
-0.00030158
0.000267656
-2.00271e-05
0.000304319
-0.00028424
0.000286075
-5.38877e-07
-0.000256873
0.000256873
-0.000267777
0.000294566
-0.000147228
-6.78021e-05
-7.13752e-06
0.000296006
-0.000288728
-0.000297205
0.000290444
0.000292342
-0.000279695
0.000291693
-0.00030598
1.52759e-05
3.43236e-05
-0.000241542
0.000217957
2.27261e-05
-1.44318e-05
-0.000248833
0.000229646
-1.43446e-05
0.000298261
-0.000283615
0.000263481
-1.96001e-05
0.000254224
-0.000235464
-1.87601e-05
-3.10927e-05
-0.000274697
0.000304419
1.44013e-05
-0.000297381
0.000282908
-1.45881e-05
0.000233465
-0.000218877
0.00021351
-0.000295486
0.000283266
-1.92503e-05
0.000304967
-0.000285502
0.00025102
-2.69578e-05
0.000297258
-0.000270207
-0.000295885
0.00026903
1.07156e-05
0.000244749
-0.000255465
0.000305185
-0.000312113
6.84868e-06
1.8202e-05
1.47925e-05
0.000287537
-0.000302301
6.31092e-06
0.000283227
2.38364e-06
-0.000318925
-0.000288829
0.000304378
-0.000242481
0.000243657
8.45603e-06
-0.0002264
0.000242772
-0.000293223
0.000274183
0.000284264
-0.000151528
-8.12637e-05
0.0002944
1.44018e-05
3.1767e-05
-0.000195513
0.000164083
-0.000274394
0.000257293
-0.000219535
0.00024982
0.000243411
1.92865e-05
-0.000262697
0.000236019
2.31309e-05
-0.000300963
0.000281961
0.000312579
-1.78997e-05
0.000237945
-0.000257069
1.91241e-05
-0.000222494
0.000247459
0.000294583
1.80273e-05
-0.000166353
-1.44466e-05
0.000298248
-0.000283819
-0.000142488
-0.000266415
0.000159993
0.000106423
-0.000309148
0.000295708
1.36833e-05
-0.000258699
0.000241826
1.68729e-05
-0.000170459
0.000158446
-0.00030652
0.000288583
1.78774e-05
-0.000219076
0.000183574
-9.69084e-06
0.000253101
2.04583e-05
1.75979e-05
-0.000304261
0.000286587
-0.000301029
-7.08051e-06
0.000307993
-0.000249229
0.000220109
-0.000201153
-8.52603e-05
-0.00027225
0.000251736
0.000303886
-0.000286364
-0.000191311
1.7768e-05
1.50747e-05
0.000284385
-0.000299553
-8.80603e-05
0.000239233
-0.000300906
1.91587e-05
0.000281864
-0.000209746
-2.95295e-06
-0.000298074
-0.000168032
2.05297e-05
0.000302475
-0.000287968
-1.46922e-05
-0.000170531
-0.000300113
-0.000175634
-2.27783e-05
0.000243528
0.000289618
1.71537e-05
0.000252869
5.76759e-05
-0.00028523
-0.000247213
-0.000275109
-2.37236e-05
-0.000274576
0.000300268
-0.000262884
0.00028231
-0.000164207
-4.10245e-05
0.0002006
0.000197569
1.56521e-05
-0.000213221
-1.24377e-05
-0.000285586
0.000297983
1.83597e-05
1.83703e-05
-0.000305149
0.000284682
0.000253345
-1.71361e-05
-0.000236209
1.89394e-05
-0.000304857
0.000285946
2.03561e-05
0.000232989
0.000216385
-2.46121e-05
-0.000191773
1.58109e-05
0.000282541
-0.000298275
-0.000250943
0.000118346
-0.000303659
1.86109e-05
0.000285136
0.000245017
-5.61027e-05
-0.00029834
1.40311e-05
0.000285334
0.000255837
-2.19801e-05
-0.000233857
-0.000297819
0.000104372
0.000234529
1.70521e-05
-0.000251581
0.000279772
1.70804e-05
0.000304283
-0.000285344
1.82328e-05
-0.000299838
0.000233512
1.84916e-05
-0.000252004
-1.89695e-05
-1.4252e-05
0.00029831
-0.000284029
-0.000279913
0.000299886
-0.000277752
0.000289399
-0.000301324
1.12003e-05
0.000249741
-1.62291e-05
1.16218e-05
0.000250041
-1.55121e-05
0.000298463
-0.000282746
3.95922e-05