/*--------------------------------*- C++ -*----------------------------------*\
  =========                 |
  \\      /  F ield         | OpenFOAM: The Open Source CFD Toolbox
   \\    /   O peration     | Website:  https://openfoam.org
    \\  /    A nd           | Version:  12
     \\/     M anipulation  |
\*---------------------------------------------------------------------------*/
FoamFile
{
    format      ascii;
    class       volScalarField;
    location    "13.8";
    object      rho;
}
// * * * * * * * * * * * * * * * * * * * * * * * * * * * * * * * * * * * * * //

dimensions      [1 -3 0 0 0 0 0];

internalField   nonuniform List<scalar> 
9801
(
1.08828
1.09216
1.10157
1.11469
1.12344
1.12929
1.13393
1.13803
1.14163
1.1414
1.14063
1.14302
1.14694
1.15302
1.16587
1.17873
1.18666
1.19229
1.19688
1.20114
1.20301
1.20019
1.20115
1.20481
1.20963
1.21903
1.23496
1.24696
1.25426
1.25963
1.26443
1.26809
1.26485
1.26303
1.26591
1.2706
1.27772
1.29295
1.30988
1.32034
1.3269
1.33231
1.33697
1.33429
1.32917
1.33148
1.33666
1.34331
1.35763
1.37843
1.3924
1.40085
1.40733
1.41313
1.41044
1.40186
1.40317
1.40889
1.41649
1.43227
1.45803
1.47606
1.48682
1.49491
1.50156
1.49809
1.48503
1.48419
1.49206
1.5022
1.52414
1.55848
1.58083
1.59407
1.60441
1.61326
1.60611
1.5863
1.58464
1.59586
1.61404
1.65481
1.69987
1.72726
1.74592
1.76293
1.77315
1.74953
1.72411
1.73104
1.75704
1.811
1.89979
1.97258
2.03443
2.11158
2.14347
3.07462
10.0218
1.09356
1.09757
1.10716
1.12126
1.13025
1.13587
1.1402
1.14394
1.14696
1.14695
1.14644
1.1487
1.15227
1.15781
1.17113
1.18479
1.19282
1.19822
1.2026
1.20651
1.20801
1.20562
1.20643
1.20973
1.21405
1.22303
1.23987
1.25241
1.25968
1.26495
1.26955
1.27279
1.2699
1.26791
1.27046
1.27479
1.28109
1.29649
1.31439
1.32495
1.33147
1.33682
1.34126
1.33889
1.33392
1.33561
1.3402
1.34604
1.35945
1.38127
1.39601
1.40465
1.41122
1.41693
1.41498
1.40653
1.40673
1.41168
1.4184
1.43278
1.45919
1.47795
1.48918
1.4974
1.5043
1.50245
1.48944
1.48724
1.49397
1.50293
1.52193
1.55551
1.57979
1.5945
1.60576
1.61525
1.61023
1.58989
1.58627
1.5963
1.61055
1.64349
1.68922
1.71965
1.74014
1.75874
1.77327
1.75721
1.73021
1.73075
1.75479
1.79529
1.86682
1.92854
1.98078
2.03914
2.04354
2.94502
10.0486
1.09196
1.09612
1.10536
1.11972
1.12855
1.13394
1.13815
1.14186
1.14498
1.14534
1.14504
1.14726
1.15073
1.15577
1.16869
1.18277
1.19081
1.19612
1.20048
1.20444
1.20622
1.2039
1.20449
1.20769
1.21187
1.22013
1.23702
1.24996
1.25723
1.2625
1.26715
1.27064
1.26799
1.26556
1.26795
1.27224
1.27808
1.29266
1.31088
1.32161
1.32818
1.33364
1.33845
1.33724
1.33165
1.33255
1.33683
1.34239
1.35428
1.37621
1.3918
1.40066
1.40732
1.41329
1.41319
1.40438
1.40289
1.40712
1.4135
1.42503
1.45053
1.47171
1.48384
1.49225
1.49941
1.50026
1.48771
1.48289
1.48809
1.49631
1.50948
1.54136
1.57034
1.5864
1.59739
1.60687
1.60636
1.5868
1.57854
1.58586
1.59851
1.62103
1.669
1.70801
1.73002
1.7473
1.76254
1.7547
1.72459
1.71728
1.73615
1.76694
1.82426
1.8895
1.93872
1.9891
1.99382
2.89584
9.91902
1.09038
1.09465
1.10319
1.11775
1.12695
1.1324
1.13662
1.14035
1.14342
1.14351
1.14317
1.14529
1.14867
1.15325
1.16525
1.18006
1.18854
1.19392
1.19833
1.20232
1.20407
1.20147
1.20175
1.2048
1.20888
1.21605
1.23252
1.24647
1.25407
1.25941
1.2641
1.26765
1.26497
1.26196
1.26407
1.26825
1.27351
1.28619
1.30529
1.31707
1.32397
1.32956
1.33457
1.33438
1.32755
1.32716
1.33117
1.33658
1.34612
1.36767
1.38555
1.39507
1.40176
1.4077
1.40928
1.39988
1.39585
1.39956
1.40597
1.41499
1.43805
1.46288
1.47625
1.48449
1.49142
1.49465
1.48295
1.47347
1.47701
1.48507
1.49528
1.52169
1.55505
1.57351
1.58484
1.59466
1.60003
1.58387
1.56702
1.56968
1.58185
1.59745
1.63409
1.67937
1.70633
1.72419
1.74068
1.74519
1.72101
1.70245
1.70921
1.73409
1.77017
1.82617
1.87519
1.9193
1.93656
2.90005
9.82226
1.08771
1.092
1.09992
1.1145
1.12413
1.12968
1.13394
1.13768
1.14062
1.14035
1.13973
1.14172
1.14505
1.14934
1.16024
1.17577
1.18486
1.19032
1.19472
1.19861
1.2002
1.19742
1.19733
1.20015
1.20408
1.21011
1.22559
1.24096
1.24908
1.25446
1.25904
1.26252
1.26031
1.25684
1.25836
1.26214
1.26683
1.27696
1.29692
1.31059
1.31786
1.32336
1.32818
1.32874
1.32175
1.3202
1.3237
1.32879
1.33604
1.35531
1.37577
1.3865
1.39334
1.39916
1.40234
1.39458
1.38789
1.39021
1.39608
1.40346
1.42112
1.44812
1.46419
1.47313
1.4803
1.48613
1.47907
1.46494
1.46421
1.47127
1.48043
1.49919
1.53441
1.55865
1.57144
1.58156
1.59042
1.58305
1.56079
1.55383
1.56293
1.57671
1.60036
1.64599
1.68396
1.70659
1.72438
1.73785
1.72664
1.70256
1.69382
1.70735
1.73487
1.77829
1.82694
1.86483
1.88427
2.91295
9.77505
1.08491
1.08916
1.09636
1.1111
1.12145
1.12709
1.13125
1.13483
1.13768
1.13731
1.13633
1.13818
1.14145
1.14547
1.15507
1.17134
1.18138
1.18695
1.19121
1.19489
1.19655
1.19368
1.19311
1.19578
1.19961
1.20469
1.21846
1.23534
1.24439
1.24987
1.2543
1.2578
1.25636
1.25208
1.25282
1.25642
1.26103
1.26917
1.28855
1.30417
1.31213
1.31768
1.32242
1.32429
1.31763
1.31373
1.31627
1.32115
1.32752
1.34385
1.36628
1.37889
1.38631
1.39237
1.39734
1.39325
1.38245
1.38098
1.38595
1.39293
1.4064
1.43412
1.45462
1.4649
1.47237
1.4794
1.47906
1.46314
1.45499
1.45936
1.46799
1.48105
1.51244
1.54553
1.56286
1.57356
1.58314
1.58412
1.56304
1.5483
1.55054
1.56217
1.57768
1.61098
1.65609
1.68744
1.70885
1.72754
1.73466
1.71578
1.69615
1.69474
1.71037
1.73959
1.78318
1.8217
1.84174
2.9361
9.76449
1.08271
1.0868
1.09311
1.1076
1.11879
1.12474
1.12895
1.13255
1.13557
1.13526
1.13357
1.13505
1.13826
1.14223
1.15079
1.16703
1.17797
1.18385
1.18817
1.19191
1.19421
1.19129
1.18956
1.19179
1.1956
1.20046
1.21263
1.22997
1.24003
1.24588
1.25046
1.25451
1.25492
1.24899
1.24767
1.25084
1.25561
1.26331
1.28149
1.29842
1.30723
1.31309
1.31816
1.32216
1.31791
1.30996
1.30987
1.31418
1.32026
1.33395
1.35771
1.37309
1.38124
1.38749
1.39329
1.39397
1.38199
1.37546
1.37866
1.38516
1.39508
1.42007
1.44674
1.45989
1.46766
1.4748
1.47881
1.4662
1.45284
1.45282
1.46006
1.46958
1.49014
1.52848
1.55548
1.56927
1.57959
1.58736
1.57697
1.55423
1.5464
1.55225
1.56478
1.58469
1.62481
1.66604
1.69445
1.71562
1.734
1.73318
1.71276
1.6973
1.69933
1.71504
1.74574
1.78611
1.80864
2.95442
9.77171
1.08138
1.08534
1.09127
1.1054
1.11718
1.12337
1.12768
1.13138
1.13456
1.13473
1.13216
1.13302
1.13604
1.14
1.1481
1.16414
1.17577
1.18194
1.18646
1.1904
1.19349
1.19159
1.18801
1.18921
1.1927
1.19736
1.20848
1.22625
1.23737
1.24359
1.24848
1.25291
1.25546
1.25007
1.24565
1.24756
1.25183
1.25837
1.27521
1.29441
1.30462
1.31081
1.31611
1.32102
1.32047
1.31048
1.3071
1.31034
1.31571
1.32566
1.34929
1.36959
1.37942
1.38588
1.39174
1.39521
1.38556
1.37515
1.37559
1.38122
1.38842
1.40563
1.4371
1.45709
1.46663
1.47392
1.4802
1.47475
1.45734
1.45099
1.45493
1.46317
1.4747
1.50505
1.54363
1.56565
1.57835
1.58886
1.59313
1.57222
1.55097
1.54886
1.55787
1.57151
1.5963
1.63787
1.67371
1.69945
1.72057
1.73634
1.7332
1.7137
1.69871
1.7
1.71362
1.74639
1.77513
2.97663
9.78562
1.08088
1.08465
1.08994
1.10362
1.11638
1.12313
1.12764
1.13138
1.13468
1.13572
1.1327
1.13255
1.13521
1.13892
1.14576
1.1615
1.17452
1.18137
1.18617
1.19026
1.19387
1.19354
1.1887
1.18848
1.1915
1.19569
1.20441
1.22276
1.23613
1.24313
1.24826
1.25278
1.25636
1.25285
1.24647
1.24679
1.25054
1.25559
1.2681
1.29015
1.30385
1.31094
1.3163
1.32122
1.32302
1.31408
1.3077
1.30931
1.3142
1.32079
1.33919
1.36516
1.379
1.3863
1.39219
1.39712
1.3926
1.3792
1.37565
1.37946
1.38567
1.39503
1.42196
1.45208
1.46676
1.47499
1.48225
1.48504
1.46982
1.45395
1.45215
1.45854
1.46762
1.484
1.52258
1.55778
1.57639
1.58808
1.59785
1.59571
1.571
1.55457
1.55528
1.56501
1.57959
1.60903
1.64948
1.68139
1.70506
1.72554
1.73667
1.73143
1.71236
1.69551
1.69362
1.70651
1.73653
2.99208
9.80474
1.08173
1.08522
1.08965
1.10207
1.11625
1.12383
1.1285
1.13233
1.1358
1.13782
1.13494
1.1337
1.13588
1.13934
1.14448
1.15861
1.17406
1.18212
1.18715
1.19135
1.1952
1.19658
1.1914
1.18949
1.19183
1.19576
1.20191
1.21874
1.23573
1.2442
1.24948
1.25401
1.25813
1.25726
1.24951
1.24788
1.25076
1.25538
1.26321
1.28419
1.30322
1.31215
1.31779
1.32272
1.3264
1.32047
1.31082
1.3101
1.314
1.31959
1.33026
1.35681
1.3779
1.38748
1.39382
1.39959
1.40114
1.38825
1.37835
1.37845
1.38355
1.39054
1.4064
1.44081
1.4658
1.47743
1.4852
1.49208
1.48727
1.46513
1.45447
1.45653
1.46415
1.47356
1.49526
1.53759
1.56845
1.58485
1.59654
1.60634
1.6007
1.57354
1.55911
1.56188
1.57258
1.58858
1.62094
1.65853
1.68703
1.70909
1.72788
1.73477
1.72779
1.70717
1.68719
1.68098
1.69078
2.98936
9.82957
1.0837
1.08677
1.09044
1.10076
1.11627
1.12521
1.13027
1.13425
1.13782
1.14062
1.1387
1.13612
1.13757
1.1407
1.14474
1.15574
1.17341
1.18357
1.1891
1.19342
1.19734
1.19995
1.19581
1.19184
1.19329
1.19679
1.20145
1.2142
1.23446
1.2457
1.25159
1.2562
1.26047
1.26208
1.25476
1.25031
1.25219
1.2562
1.26154
1.27647
1.30033
1.31328
1.31978
1.32486
1.32945
1.32835
1.31709
1.31241
1.31465
1.31954
1.32608
1.34508
1.37374
1.38883
1.39626
1.40219
1.40689
1.40036
1.38406
1.37913
1.38253
1.38906
1.3976
1.42243
1.4581
1.47722
1.48637
1.49367
1.49943
1.48818
1.46578
1.45843
1.46094
1.46845
1.47921
1.5084
1.55209
1.58008
1.59541
1.60679
1.61368
1.60257
1.57693
1.56504
1.56853
1.57937
1.59742
1.63233
1.66741
1.6927
1.71178
1.72725
1.73094
1.7217
1.69908
1.6742
1.65354
2.96469
9.86102
1.08636
1.08896
1.09218
1.09984
1.11593
1.12697
1.13264
1.13681
1.14047
1.14372
1.14331
1.13945
1.13984
1.14265
1.14632
1.15383
1.17171
1.18507
1.19156
1.19603
1.19998
1.20335
1.2013
1.1955
1.19555
1.19854
1.20254
1.21047
1.23076
1.24674
1.25407
1.25893
1.26329
1.26666
1.26201
1.25442
1.25427
1.25742
1.26193
1.27046
1.29364
1.31335
1.32202
1.32752
1.33239
1.3354
1.3266
1.31643
1.31598
1.31974
1.32531
1.33545
1.36337
1.38791
1.39867
1.40505
1.41059
1.41229
1.39733
1.38431
1.38352
1.38791
1.39452
1.40569
1.43883
1.47179
1.48737
1.49645
1.50449
1.50771
1.48754
1.46552
1.4614
1.46678
1.47563
1.48768
1.52096
1.5627
1.58726
1.60158
1.61303
1.61956
1.60725
1.58149
1.57033
1.5743
1.58534
1.60601
1.64228
1.67433
1.69678
1.71381
1.72507
1.72558
1.7136
1.6833
1.64031
2.91625
9.8945
1.08938
1.09141
1.09448
1.09991
1.11484
1.1286
1.13536
1.13974
1.14347
1.1469
1.14801
1.14369
1.14257
1.14498
1.14847
1.1535
1.16858
1.18573
1.19402
1.19888
1.20293
1.20664
1.20713
1.20065
1.19832
1.20056
1.20421
1.20921
1.22476
1.24595
1.25633
1.26191
1.26638
1.27046
1.26988
1.26044
1.2566
1.25868
1.26281
1.26827
1.28438
1.31015
1.32371
1.33023
1.33524
1.33973
1.33737
1.32378
1.31834
1.32065
1.32552
1.33169
1.34868
1.38041
1.39888
1.40694
1.41309
1.41869
1.41541
1.39618
1.38612
1.38673
1.39193
1.39915
1.41633
1.45576
1.48478
1.49739
1.50502
1.51148
1.51187
1.48988
1.47109
1.46864
1.47312
1.48112
1.49525
1.5321
1.57174
1.59478
1.60888
1.62016
1.62405
1.61013
1.58568
1.57513
1.5788
1.58954
1.61296
1.65058
1.68077
1.70033
1.71394
1.7201
1.7191
1.69885
1.65028
2.86286
9.92915
1.09266
1.09405
1.09702
1.10112
1.11297
1.12947
1.13806
1.1428
1.14662
1.15013
1.15249
1.149
1.14593
1.1475
1.15068
1.15459
1.16481
1.18439
1.19601
1.20175
1.20599
1.20983
1.21236
1.20738
1.20187
1.20267
1.20588
1.21004
1.21938
1.24181
1.25772
1.26475
1.26946
1.27368
1.27636
1.269
1.26044
1.26056
1.264
1.26861
1.27694
1.30134
1.32327
1.33256
1.33807
1.34293
1.34617
1.33643
1.32398
1.32232
1.3253
1.33058
1.33861
1.36437
1.39476
1.40907
1.41659
1.42285
1.42739
1.41591
1.39515
1.38894
1.39192
1.39806
1.40537
1.42666
1.46758
1.49275
1.50454
1.51349
1.52133
1.51829
1.49215
1.4741
1.47271
1.47885
1.48783
1.50345
1.54151
1.57851
1.59976
1.61362
1.6247
1.62826
1.61366
1.58891
1.57824
1.58132
1.5918
1.61744
1.65589
1.684
1.70095
1.7107
1.71456
1.70791
1.67473
2.82655
9.96275
1.09633
1.09688
1.09957
1.10305
1.11096
1.12856
1.14028
1.1459
1.14994
1.15353
1.15664
1.15509
1.15003
1.15005
1.15272
1.15632
1.16246
1.18041
1.19705
1.20449
1.20903
1.21295
1.21647
1.2149
1.20694
1.2052
1.20782
1.21165
1.21695
1.23405
1.2565
1.26697
1.27243
1.27678
1.28077
1.27908
1.2678
1.26351
1.26546
1.26933
1.27444
1.2891
1.31748
1.33377
1.34097
1.34618
1.35105
1.35023
1.33454
1.32494
1.32562
1.32996
1.33578
1.34781
1.38041
1.4067
1.41748
1.42375
1.42967
1.43341
1.41808
1.39887
1.39431
1.39608
1.40153
1.41008
1.43796
1.48042
1.50389
1.51437
1.52159
1.52765
1.52254
1.49718
1.48085
1.47966
1.48479
1.49327
1.51147
1.5512
1.58552
1.60517
1.6183
1.62874
1.63132
1.61649
1.59135
1.5797
1.5817
1.59151
1.61933
1.65869
1.68498
1.6986
1.70503
1.70543
1.69609
2.81872
9.99301
1.10056
1.09978
1.10199
1.10521
1.11016
1.12549
1.14164
1.14904
1.15333
1.15698
1.16034
1.16107
1.15518
1.15279
1.15479
1.15814
1.16234
1.17467
1.19558
1.20664
1.21202
1.21612
1.21993
1.22177
1.21458
1.2089
1.20997
1.21318
1.21725
1.22638
1.25028
1.26779
1.27514
1.27991
1.28425
1.28724
1.27918
1.26833
1.26701
1.26978
1.27429
1.2814
1.30454
1.33138
1.34352
1.34994
1.35487
1.35888
1.35114
1.3339
1.32841
1.33025
1.3348
1.34078
1.35778
1.39364
1.41624
1.42635
1.43346
1.43986
1.43995
1.41834
1.39985
1.39731
1.40178
1.40828
1.41676
1.44634
1.48766
1.5089
1.51971
1.52863
1.53602
1.52935
1.502
1.48534
1.48458
1.49094
1.50034
1.52029
1.55939
1.59091
1.60944
1.62244
1.6326
1.63536
1.61867
1.59148
1.579
1.58025
1.5895
1.61909
1.65866
1.68251
1.69355
1.69567
1.70622
2.83901
10.022
1.10524
1.10274
1.10431
1.10743
1.11117
1.12158
1.14082
1.15153
1.1566
1.16033
1.16375
1.16618
1.1619
1.15647
1.15708
1.15996
1.16356
1.17019
1.19004
1.20748
1.21492
1.2194
1.22337
1.2269
1.22406
1.21461
1.2123
1.21447
1.21813
1.2232
1.23988
1.26513
1.27732
1.28312
1.28752
1.29169
1.29076
1.27702
1.26971
1.27116
1.27505
1.27997
1.29074
1.32008
1.34245
1.35137
1.35716
1.36241
1.36555
1.35251
1.33561
1.33177
1.33384
1.33862
1.34577
1.37003
1.40735
1.42685
1.43514
1.44033
1.44625
1.44527
1.42274
1.40649
1.40397
1.40606
1.41153
1.42167
1.45595
1.49789
1.51905
1.52902
1.53646
1.54169
1.53405
1.50889
1.49283
1.49125
1.49611
1.50461
1.52771
1.56847
1.59822
1.61491
1.62648
1.63549
1.6377
1.62037
1.5915
1.57741
1.57762
1.58595
1.61711
1.656
1.67788
1.68425
1.70354
2.88436
10.0532
1.11049
1.10646
1.10695
1.10979
1.11316
1.11899
1.13658
1.15265
1.15956
1.16362
1.16715
1.17034
1.16941
1.16192
1.15971
1.16173
1.16505
1.16927
1.18232
1.20526
1.21723
1.22279
1.22682
1.23058
1.23218
1.22315
1.21556
1.21618
1.21946
1.22356
1.23145
1.25564
1.27711
1.28579
1.29066
1.29486
1.29831
1.29099
1.2771
1.27388
1.27588
1.2797
1.28509
1.30188
1.33399
1.35238
1.36061
1.3666
1.37187
1.37118
1.35193
1.3369
1.3355
1.33925
1.34465
1.35204
1.37956
1.41592
1.4334
1.44262
1.44992
1.45612
1.45097
1.42494
1.40837
1.40712
1.41222
1.41913
1.4291
1.46278
1.50308
1.52296
1.53336
1.54219
1.54906
1.54163
1.51454
1.49654
1.49448
1.50048
1.51053
1.5361
1.57562
1.60268
1.61834
1.63016
1.63939
1.64165
1.62182
1.59034
1.57437
1.57357
1.58124
1.61352
1.65093
1.66798
1.69238
2.9413
10.0846
1.11608
1.11175
1.11
1.11216
1.11526
1.11904
1.13063
1.15109
1.1618
1.16683
1.17047
1.17382
1.17581
1.16964
1.1633
1.16391
1.16697
1.17069
1.17724
1.19794
1.21757
1.22558
1.23001
1.23377
1.23719
1.2339
1.22221
1.21895
1.22125
1.22487
1.22929
1.24223
1.27022
1.28678
1.29372
1.29837
1.30268
1.30403
1.29069
1.27814
1.27688
1.27993
1.28446
1.29133
1.3154
1.34701
1.36157
1.36807
1.37288
1.37814
1.37604
1.35505
1.34216
1.34092
1.34329
1.3483
1.35781
1.39118
1.42777
1.44388
1.45113
1.45598
1.46143
1.45666
1.43195
1.41686
1.41498
1.41729
1.4227
1.4339
1.47076
1.51147
1.53131
1.54096
1.5484
1.5533
1.54658
1.52149
1.50322
1.50015
1.5042
1.51307
1.54091
1.58204
1.60922
1.62412
1.63433
1.6422
1.64357
1.62309
1.58902
1.57029
1.56817
1.57514
1.60881
1.64037
1.67202
3.00048
10.114
1.12115
1.11873
1.11352
1.11455
1.11737
1.12079
1.12696
1.14546
1.16247
1.16957
1.17361
1.17707
1.18024
1.17866
1.16963
1.16703
1.1693
1.17277
1.17669
1.18817
1.21274
1.22693
1.23292
1.23696
1.24081
1.24298
1.23387
1.22402
1.22335
1.22593
1.2297
1.23538
1.25545
1.28319
1.29612
1.30241
1.30685
1.31085
1.3075
1.28977
1.28081
1.28186
1.28558
1.29023
1.29824
1.32692
1.35649
1.36918
1.37627
1.38222
1.38709
1.37974
1.35596
1.3442
1.34511
1.35007
1.3556
1.36473
1.39813
1.43273
1.44808
1.4572
1.46471
1.47055
1.46366
1.43699
1.41987
1.41798
1.42294
1.43002
1.44139
1.47689
1.51511
1.53378
1.54411
1.5532
1.55987
1.55377
1.52645
1.50567
1.50142
1.50611
1.51615
1.54532
1.58601
1.61201
1.62652
1.63716
1.64464
1.64513
1.62397
1.58731
1.56515
1.56101
1.56829
1.59946
1.6413
3.04898
10.1372
1.12493
1.12631
1.11878
1.11759
1.11992
1.12312
1.12681
1.13786
1.15927
1.17108
1.17643
1.1803
1.1839
1.18624
1.17954
1.17185
1.17193
1.17454
1.17798
1.18316
1.20182
1.22538
1.23543
1.24042
1.24433
1.24809
1.24675
1.23325
1.2263
1.22761
1.23117
1.23535
1.24314
1.26924
1.294
1.30389
1.30941
1.31388
1.31796
1.31088
1.29245
1.28577
1.28671
1.28985
1.2947
1.30603
1.33953
1.36718
1.37817
1.38363
1.38798
1.39301
1.3851
1.36192
1.35203
1.3517
1.35393
1.35893
1.37021
1.40746
1.44304
1.45802
1.46499
1.47004
1.47564
1.47083
1.44546
1.4287
1.42602
1.42817
1.43343
1.44549
1.48402
1.52307
1.54142
1.5506
1.55818
1.5638
1.55875
1.53235
1.51046
1.50515
1.50804
1.51646
1.54599
1.58857
1.61561
1.62984
1.63923
1.64543
1.64513
1.62445
1.58596
1.55884
1.55253
1.55729
1.60204
3.07412
10.1574
1.12807
1.13266
1.12684
1.12184
1.12262
1.12517
1.12835
1.13357
1.15152
1.17106
1.17931
1.18376
1.18735
1.19072
1.18996
1.17954
1.17486
1.17647
1.17977
1.18353
1.19173
1.21623
1.23582
1.24354
1.24783
1.25169
1.25502
1.24806
1.23404
1.23083
1.23295
1.23617
1.24047
1.25164
1.28173
1.30327
1.31217
1.31791
1.32285
1.32561
1.3127
1.29369
1.28891
1.2917
1.29621
1.30106
1.31331
1.34802
1.37349
1.38407
1.39123
1.39726
1.40136
1.38967
1.3649
1.35425
1.35545
1.36048
1.36626
1.3767
1.41238
1.4462
1.4611
1.47031
1.47794
1.48379
1.47816
1.45201
1.43255
1.42858
1.4328
1.43975
1.45295
1.49053
1.52623
1.54347
1.55412
1.56359
1.57021
1.56505
1.53662
1.51227
1.5055
1.5086
1.51748
1.54657
1.58902
1.61628
1.63063
1.63972
1.64497
1.64373
1.624
1.58474
1.55456
1.53742
1.55639
3.05987
10.1797
1.13125
1.13707
1.13583
1.12772
1.12527
1.12729
1.13049
1.13414
1.14371
1.16623
1.18082
1.18677
1.19047
1.19395
1.19685
1.19108
1.18064
1.17925
1.18176
1.18512
1.18908
1.20189
1.22944
1.24503
1.25155
1.25566
1.25958
1.26111
1.2486
1.23604
1.23444
1.23705
1.24083
1.24574
1.2617
1.29368
1.31207
1.31945
1.3241
1.32858
1.33123
1.31673
1.29931
1.29564
1.29692
1.30016
1.30533
1.32117
1.35865
1.38346
1.39313
1.39803
1.40245
1.40723
1.39671
1.37269
1.36281
1.36234
1.36431
1.3691
1.38108
1.41995
1.45567
1.47053
1.4775
1.48281
1.48847
1.48551
1.46096
1.44084
1.4361
1.4379
1.44294
1.45612
1.49619
1.53406
1.55173
1.56045
1.5677
1.57409
1.5708
1.54315
1.51684
1.50847
1.50984
1.51669
1.54395
1.58758
1.61632
1.63077
1.63895
1.64294
1.64082
1.62217
1.58394
1.54382
1.52528
3.00857
10.2067
1.13427
1.14041
1.1423
1.13653
1.12973
1.13014
1.13297
1.1363
1.1406
1.15583
1.17855
1.18891
1.19384
1.19748
1.201
1.2019
1.19127
1.18347
1.18373
1.18636
1.18997
1.1952
1.21423
1.24157
1.25405
1.25989
1.26374
1.26754
1.26551
1.24856
1.23869
1.2392
1.24265
1.2465
1.25156
1.27093
1.30311
1.31943
1.32673
1.33238
1.33745
1.33776
1.31922
1.30161
1.2987
1.30205
1.30678
1.31178
1.32734
1.36412
1.38772
1.39798
1.40544
1.41151
1.41535
1.40318
1.37774
1.36531
1.36538
1.37019
1.37615
1.38718
1.42359
1.45751
1.47269
1.48206
1.48998
1.49591
1.49299
1.46866
1.44558
1.43836
1.44108
1.44759
1.46189
1.50082
1.53607
1.55299
1.56413
1.57397
1.58064
1.57674
1.5476
1.51878
1.50829
1.50913
1.51562
1.54116
1.58514
1.61512
1.62965
1.63681
1.63953
1.63638
1.61949
1.57474
1.52507
2.92998
10.2413
1.13663
1.14369
1.14672
1.14671
1.1378
1.13401
1.13544
1.13812
1.14142
1.14787
1.16944
1.18937
1.19709
1.20112
1.20456
1.20781
1.20439
1.19114
1.18646
1.18839
1.19198
1.19584
1.2025
1.22658
1.25164
1.26175
1.26721
1.27119
1.27477
1.26954
1.25183
1.24426
1.24484
1.24725
1.25124
1.25759
1.28147
1.31336
1.32807
1.33449
1.3384
1.34308
1.34384
1.32529
1.30899
1.30608
1.30706
1.31012
1.31546
1.33392
1.37325
1.3976
1.40693
1.4117
1.41622
1.42119
1.41206
1.38674
1.37403
1.37258
1.37413
1.3786
1.39054
1.42961
1.46631
1.48177
1.48889
1.49416
1.5004
1.50087
1.47817
1.45302
1.44462
1.44528
1.44968
1.46238
1.50307
1.54318
1.56217
1.57088
1.57761
1.58331
1.58122
1.55442
1.52318
1.50987
1.50878
1.51359
1.53705
1.58175
1.61318
1.62739
1.63325
1.63439
1.63173
1.60977
1.56083
2.8604
10.2831
1.13912
1.14755
1.1506
1.15353
1.14874
1.13915
1.13775
1.14018
1.14351
1.14724
1.15771
1.18274
1.19828
1.20446
1.20799
1.21141
1.21393
1.20532
1.19312
1.19162
1.19418
1.19743
1.20116
1.21001
1.23776
1.26039
1.2696
1.27516
1.27965
1.28288
1.27323
1.25372
1.24722
1.24941
1.25338
1.25745
1.26383
1.28959
1.32042
1.33397
1.34107
1.34694
1.35195
1.35049
1.32954
1.31175
1.30869
1.312
1.31688
1.32211
1.33897
1.37674
1.40039
1.4109
1.41869
1.4248
1.4291
1.41992
1.39376
1.37743
1.37534
1.37971
1.38589
1.39733
1.43324
1.46764
1.48341
1.49332
1.50149
1.50766
1.50745
1.48509
1.45757
1.44641
1.44735
1.45307
1.4663
1.50503
1.5433
1.56169
1.5725
1.5821
1.58866
1.58677
1.55948
1.52559
1.50953
1.50729
1.51122
1.53263
1.57736
1.60987
1.62374
1.62802
1.62927
1.62225
1.60679
2.83272
10.3253
1.1405
1.15136
1.15432
1.15751
1.15849
1.14893
1.14202
1.14281
1.14563
1.14879
1.1528
1.16793
1.19402
1.20667
1.21212
1.21567
1.21913
1.21941
1.20622
1.19627
1.19593
1.19858
1.20213
1.20636
1.21813
1.24808
1.26858
1.27659
1.28139
1.28537
1.28847
1.27788
1.25956
1.25437
1.25525
1.25772
1.26191
1.27003
1.29916
1.32995
1.343
1.34878
1.35234
1.35717
1.35733
1.33753
1.32022
1.31667
1.3172
1.31983
1.3251
1.344
1.38462
1.41006
1.41969
1.42446
1.42912
1.43474
1.42974
1.40428
1.38711
1.38383
1.38482
1.38871
1.39942
1.4372
1.47566
1.49246
1.49991
1.50513
1.51136
1.51415
1.49426
1.46494
1.45244
1.45148
1.45474
1.46463
1.50237
1.54683
1.56967
1.57906
1.5854
1.59014
1.5897
1.56625
1.53003
1.50988
1.50542
1.5077
1.5266
1.57215
1.60586
1.61869
1.62293
1.61881
1.63246
2.85184
10.3627
1.13933
1.15474
1.15814
1.16135
1.16444
1.16177
1.15021
1.14616
1.14743
1.14999
1.15336
1.15904
1.17961
1.2048
1.21535
1.2201
1.2234
1.2268
1.22371
1.20762
1.19985
1.20084
1.20411
1.20755
1.21173
1.22562
1.2569
1.27574
1.28348
1.2888
1.29361
1.29576
1.28177
1.26233
1.25721
1.25986
1.26414
1.26849
1.27611
1.30506
1.33479
1.34741
1.35474
1.36076
1.36575
1.36476
1.34392
1.32395
1.31882
1.32156
1.32653
1.33202
1.34858
1.38676
1.41153
1.42275
1.43116
1.43758
1.44239
1.43747
1.41188
1.3908
1.38557
1.38878
1.39468
1.40539
1.44015
1.47609
1.49313
1.50368
1.51239
1.5187
1.52052
1.50096
1.4697
1.45382
1.45221
1.45681
1.46707
1.50189
1.54521
1.5678
1.57874
1.58758
1.59399
1.59454
1.57148
1.53228
1.50816
1.50182
1.50342
1.52128
1.56675
1.59977
1.61298
1.61135
1.6396
2.90271
10.3964
1.13399
1.15675
1.16201
1.16534
1.16846
1.1707
1.16286
1.15139
1.1497
1.15218
1.15556
1.15918
1.16659
1.19096
1.21369
1.22286
1.2278
1.23156
1.23468
1.22794
1.21131
1.20535
1.20622
1.20855
1.21223
1.21719
1.23445
1.26613
1.28355
1.29053
1.29464
1.29851
1.30134
1.28824
1.26999
1.26531
1.26606
1.26817
1.27235
1.28132
1.31257
1.34354
1.3565
1.36218
1.36565
1.37053
1.37214
1.35362
1.33322
1.3275
1.32759
1.32954
1.33443
1.35192
1.39326
1.42125
1.43185
1.43691
1.44106
1.44646
1.44502
1.42138
1.39954
1.3934
1.39387
1.39719
1.40626
1.44171
1.48313
1.50266
1.51078
1.51588
1.52184
1.52619
1.51071
1.47808
1.4601
1.45675
1.45881
1.46524
1.49657
1.54524
1.57364
1.58441
1.59018
1.5944
1.5954
1.57673
1.53599
1.50711
1.49845
1.49896
1.51556
1.56014
1.5926
1.60055
1.63481
2.96957
10.4285
1.12502
1.15379
1.16437
1.16898
1.17196
1.17504
1.17529
1.16318
1.15462
1.15518
1.15797
1.16117
1.16475
1.17385
1.20099
1.22227
1.231
1.2361
1.24001
1.24264
1.23206
1.2138
1.20857
1.21092
1.21473
1.21839
1.22296
1.24145
1.27323
1.28944
1.29657
1.30219
1.3071
1.3089
1.29405
1.27402
1.268
1.27019
1.2744
1.27879
1.28654
1.31614
1.34651
1.35979
1.36764
1.37395
1.37904
1.37989
1.36199
1.33855
1.32965
1.331
1.33566
1.34133
1.35673
1.39507
1.422
1.43352
1.44184
1.44848
1.45378
1.45279
1.43039
1.40503
1.39555
1.39709
1.40241
1.41166
1.4435
1.48238
1.50197
1.51334
1.52293
1.52956
1.53301
1.5178
1.48362
1.4618
1.45677
1.46
1.46751
1.49604
1.54261
1.57044
1.58203
1.58978
1.59612
1.59827
1.58089
1.53816
1.50481
1.49368
1.49388
1.51001
1.55369
1.57831
1.61959
3.04009
10.4569
1.11887
1.13987
1.16263
1.17179
1.17606
1.17913
1.18209
1.17874
1.16463
1.15887
1.15999
1.16277
1.16612
1.17031
1.18189
1.21047
1.22998
1.23766
1.2424
1.24618
1.24845
1.23732
1.22049
1.21611
1.21703
1.21918
1.22284
1.22847
1.24998
1.28201
1.29783
1.30433
1.3081
1.31229
1.31538
1.30244
1.28247
1.27625
1.27632
1.27784
1.28179
1.29043
1.32197
1.35502
1.36918
1.37511
1.37867
1.38362
1.38704
1.3727
1.34838
1.33872
1.33787
1.33914
1.3434
1.35841
1.39919
1.43051
1.44287
1.44876
1.45327
1.45883
1.46078
1.44121
1.41424
1.40343
1.40231
1.40451
1.4112
1.44149
1.48707
1.51188
1.52148
1.52672
1.53201
1.5372
1.52741
1.49361
1.46899
1.46211
1.46239
1.46628
1.48942
1.53882
1.5726
1.58586
1.59143
1.59564
1.59731
1.58371
1.54195
1.5035
1.48915
1.48782
1.50476
1.5405
1.59229
3.10135
10.4777
1.11897
1.12663
1.15037
1.17143
1.17957
1.18335
1.18631
1.18908
1.18209
1.16746
1.16349
1.16549
1.16885
1.17217
1.17594
1.18864
1.2184
1.23687
1.2444
1.24944
1.25391
1.25594
1.24254
1.22406
1.21911
1.22157
1.22543
1.22925
1.23432
1.25576
1.28743
1.30259
1.30996
1.31596
1.32087
1.32321
1.30934
1.28715
1.27845
1.27969
1.28382
1.28854
1.29586
1.3245
1.35675
1.37142
1.37992
1.38678
1.39197
1.39488
1.38172
1.35539
1.34136
1.34026
1.34435
1.34999
1.36341
1.40098
1.43158
1.4451
1.45375
1.46095
1.46653
1.46808
1.44991
1.42023
1.40513
1.40408
1.40866
1.41611
1.44258
1.48526
1.50972
1.52184
1.53212
1.53945
1.54391
1.53449
1.5
1.4711
1.46091
1.46169
1.46708
1.4885
1.53497
1.56806
1.58168
1.58943
1.59553
1.59789
1.58622
1.54504
1.50218
1.48316
1.48137
1.49322
1.5544
3.13956
10.4944
1.12115
1.12534
1.13401
1.15947
1.17895
1.18696
1.19148
1.19498
1.19693
1.18601
1.17216
1.16947
1.17095
1.17333
1.1768
1.18137
1.19643
1.22644
1.24393
1.25096
1.25512
1.25863
1.26114
1.24935
1.23196
1.22733
1.22795
1.22972
1.2333
1.23925
1.26281
1.2957
1.31149
1.31782
1.32132
1.32519
1.32901
1.31849
1.29639
1.28736
1.28679
1.28777
1.29118
1.2986
1.32827
1.36443
1.38105
1.38772
1.39149
1.39617
1.40087
1.39233
1.36569
1.35039
1.34785
1.34876
1.3524
1.36401
1.40224
1.43822
1.45378
1.46041
1.46443
1.46982
1.4741
1.46067
1.43028
1.41365
1.41035
1.41117
1.41569
1.43769
1.48526
1.518
1.53058
1.5366
1.54113
1.54618
1.542
1.51036
1.47817
1.46559
1.46388
1.46603
1.48162
1.52827
1.56688
1.58386
1.59089
1.59466
1.5956
1.58555
1.54789
1.50269
1.4788
1.46594
1.50786
3.13521
10.5123
1.12381
1.12658
1.13
1.14077
1.16873
1.18785
1.19547
1.19984
1.20325
1.20392
1.19007
1.17546
1.17305
1.1758
1.1794
1.18274
1.18673
1.20244
1.23295
1.24978
1.25681
1.26203
1.26672
1.26882
1.25551
1.23605
1.22986
1.23184
1.23564
1.23969
1.24491
1.26704
1.29922
1.31471
1.32226
1.32841
1.33333
1.33659
1.32673
1.30326
1.29022
1.28931
1.29288
1.29768
1.30447
1.33041
1.36511
1.38229
1.39153
1.39903
1.40449
1.40851
1.40092
1.37383
1.35415
1.34965
1.35269
1.35787
1.36834
1.40243
1.43731
1.45359
1.46349
1.47193
1.47774
1.48125
1.46933
1.4377
1.416
1.41086
1.41396
1.41995
1.43868
1.48218
1.51433
1.52865
1.53892
1.54705
1.55193
1.54776
1.51635
1.48057
1.46395
1.4617
1.46532
1.48036
1.52415
1.56282
1.58047
1.58838
1.59238
1.59273
1.58365
1.54975
1.50477
1.46757
1.46973
3.08771
10.5341
1.12602
1.12816
1.13131
1.13607
1.15001
1.17846
1.19538
1.20234
1.2068
1.21023
1.21002
1.19562
1.18237
1.18017
1.18129
1.18344
1.18699
1.19208
1.20991
1.24064
1.25734
1.26409
1.26791
1.27124
1.27432
1.26361
1.24465
1.2383
1.23844
1.23977
1.24311
1.24891
1.27203
1.30626
1.32341
1.33009
1.33364
1.33753
1.34209
1.33669
1.31382
1.29976
1.29736
1.2978
1.30032
1.3063
1.33176
1.37108
1.39193
1.39988
1.40396
1.40821
1.41336
1.41046
1.3849
1.36321
1.3573
1.35767
1.36072
1.36854
1.40043
1.44211
1.46313
1.4713
1.47576
1.48081
1.48598
1.47947
1.4489
1.42493
1.4179
1.41739
1.42027
1.43346
1.4775
1.51891
1.53679
1.54373
1.54794
1.55244
1.55252
1.52653
1.48857
1.46875
1.4641
1.4647
1.47414
1.5163
1.55901
1.57921
1.5868
1.58925
1.5885
1.58005
1.5512
1.49745
1.4626
3.00141
10.5644
1.12992
1.13101
1.13458
1.13844
1.14296
1.15744
1.18565
1.20194
1.20883
1.21355
1.21754
1.21772
1.20168
1.18595
1.1832
1.18593
1.18968
1.19333
1.19768
1.21497
1.24578
1.26203
1.26912
1.27473
1.27951
1.28226
1.27121
1.25
1.2408
1.24158
1.2452
1.24955
1.25458
1.27466
1.30783
1.32538
1.33388
1.34071
1.34586
1.34991
1.3455
1.32273
1.30397
1.29921
1.30177
1.30641
1.31257
1.33378
1.37077
1.39202
1.4023
1.41054
1.41657
1.42126
1.41872
1.39402
1.36856
1.35955
1.36094
1.3656
1.37314
1.39982
1.43953
1.46141
1.47267
1.48221
1.48889
1.49353
1.48784
1.45759
1.42879
1.41813
1.41895
1.42384
1.43544
1.47372
1.51399
1.53283
1.54378
1.55293
1.55789
1.55723
1.53174
1.49104
1.4667
1.46019
1.46168
1.47101
1.51087
1.5544
1.57585
1.58332
1.58516
1.58323
1.57636
1.5432
1.4937
2.91414
10.6072
1.13805
1.1353
1.13817
1.14107
1.14414
1.14835
1.16324
1.1918
1.20793
1.21446
1.21848
1.22178
1.22247
1.20873
1.19415
1.19125
1.19226
1.19411
1.19752
1.20256
1.22109
1.25265
1.26976
1.27658
1.28024
1.28352
1.28735
1.28037
1.25975
1.2498
1.24895
1.24979
1.25251
1.25752
1.27745
1.31365
1.33442
1.34234
1.34635
1.3498
1.35457
1.35443
1.33441
1.31402
1.30806
1.30793
1.30942
1.31406
1.33308
1.37391
1.40098
1.41142
1.41631
1.42005
1.42526
1.42682
1.40618
1.37867
1.36771
1.36666
1.36848
1.37347
1.39553
1.44051
1.47019
1.48172
1.48716
1.49147
1.49677
1.49631
1.47007
1.43886
1.42591
1.42342
1.42476
1.43162
1.46679
1.51542
1.54065
1.54928
1.55331
1.55618
1.55724
1.53926
1.49908
1.47097
1.46157
1.4606
1.46609
1.50315
1.54963
1.57278
1.57954
1.57972
1.57842
1.56645
1.54843
2.86704
10.6522
1.1531
1.14154
1.14161
1.14419
1.14687
1.149
1.15266
1.16785
1.19723
1.21338
1.22008
1.22478
1.22908
1.23026
1.21601
1.19877
1.19425
1.1965
1.20013
1.20373
1.20786
1.22452
1.25588
1.27305
1.28069
1.28671
1.29156
1.29531
1.28902
1.26726
1.25314
1.25132
1.25438
1.25883
1.26391
1.28035
1.31434
1.33543
1.34497
1.35224
1.35787
1.36238
1.36277
1.34473
1.32052
1.31025
1.31076
1.3149
1.3204
1.33552
1.37255
1.39994
1.41239
1.42155
1.42865
1.43375