/*--------------------------------*- C++ -*----------------------------------*\
  =========                 |
  \\      /  F ield         | OpenFOAM: The Open Source CFD Toolbox
   \\    /   O peration     | Website:  https://openfoam.org
    \\  /    A nd           | Version:  12
     \\/     M anipulation  |
\*---------------------------------------------------------------------------*/
FoamFile
{
    format      ascii;
    class       volVectorField;
    location    "6.275";
    object      U;
}
// * * * * * * * * * * * * * * * * * * * * * * * * * * * * * * * * * * * * * //

dimensions      [0 1 -1 0 0 0 0];

internalField   nonuniform List<vector> 
46253
(
(0.976459 0.00500759 0)
(0.888067 0.000100227 0)
(0.795747 0.00144656 0)
(0.887189 0.000179481 0)
(0.799317 0.00198311 0)
(0.803847 0.000782322 0)
(0.794179 -0.0611856 0)
(0.926176 0.00773581 0)
(0.892418 -0.000144585 0)
(0.892258 -2.11289e-05 0)
(0.989807 0.00431025 0)
(1.06285 -0.078376 0)
(0.906892 0.00045242 0)
(0.907004 0.000207686 0)
(1.00062 0.0169792 0)
(0.894139 -8.24872e-05 0)
(0.893439 0.000220191 0)
(0.900935 0.000444445 0)
(0.901006 0.000341282 0)
(0.897456 3.75315e-05 0)
(0.897538 0.000107087 0)
(0.796681 0.00369337 0)
(1.05698 -0.0150579 0)
(1.00324 0.00547896 0)
(0.825729 0.0217623 0)
(0.889386 0.00034425 0)
(0.89513 0.000265309 0)
(0.89492 0.000405201 0)
(0.889456 0.000142882 0)
(0.93325 0.0119101 0)
(0.93857 0.0424921 0)
(0.913316 0.000399485 0)
(0.91393 0.000442218 0)
(0.899612 3.17693e-05 0)
(0.899247 0.000234275 0)
(0.82028 -0.00645098 0)
(0.905614 -0.000125536 0)
(0.905479 9.56046e-05 0)
(1.09689 0.0425226 0)
(1.04194 -0.0410862 0)
(1.00193 -0.00686767 0)
(1.08757 -0.0722854 0)
(0.911466 3.36583e-05 0)
(0.911614 0.000123693 0)
(1.12416 -0.107776 0)
(0.903316 6.94438e-05 0)
(0.903399 0.000170076 0)
(1.04619 0.00397115 0)
(0.917393 0.000189621 0)
(0.917985 0.000172931 0)
(0.919674 0.000375335 0)
(0.920427 0.000327628 0)
(0.813309 0.00128962 0)
(1.15717 -0.00337518 0)
(0.771299 0.0102845 0)
(1.08873 -0.0343326 0)
(0.923781 0.000380889 0)
(0.924378 0.000347999 0)
(0.871107 0.064863 0)
(0.9355 -0.0278527 0)
(0.79371 0.00645238 0)
(0.75605 -0.0207298 0)
(0.829843 -0.0119633 0)
(1.04859 0.0230457 0)
(1.00327 -0.0325371 0)
(0.908731 0.000256368 0)
(0.90912 0.000289251 0)
(0.808856 0.000691865 0)
(1.07151 -0.0386433 0)
(1.20174 -0.0973873 0)
(0.867436 -0.0125673 0)
(0.926312 0.000416963 0)
(0.92704 0.000278079 0)
(1.1191 0.030007 0)
(0.808998 0.00266613 0)
(1.0148 0.0044589 0)
(0.93834 0.000230798 0)
(0.939064 0.000110594 0)
(1.06449 -0.0303328 0)
(0.915082 0.000292946 0)
(0.915457 0.000391068 0)
(0.93034 0.00041407 0)
(0.810161 0.00223218 0)
(0.931005 0.000473507 0)
(0.947191 -0.00728355 0)
(0.820119 0.000894403 0)
(0.954054 0.000185457 0)
(0.954806 8.25464e-05 0)
(1.00689 -0.000871199 0)
(0.808808 -0.0041896 0)
(1.07547 -0.0169489 0)
(0.976957 -0.0112237 0)
(0.822861 0.000932867 0)
(0.921831 0.000196078 0)
(1.04644 -0.038267 0)
(0.922043 0.000405369 0)
(0.818019 0.0020312 0)
(1.05435 -0.0198221 0)
(0.874919 0.0630691 0)
(0.808637 0.00816668 0)
(1.1009 -0.00783079 0)
(0.820135 0.00237054 0)
(0.823644 0.000561237 0)
(0.947552 0.0429939 0)
(0.779455 0.00693377 0)
(0.91485 -0.0314419 0)
(1.15167 -0.0559145 0)
(0.970981 -4.16957e-05 0)
(0.971828 -0.000112004 0)
(1.14429 -0.0628363 0)
(1.12865 0.0113564 0)
(0.928707 7.98075e-05 0)
(0.928819 9.62534e-05 0)
(1.03968 0.0307403 0)
(1.05238 0.0210965 0)
(1.06033 -0.000517488 0)
(1.07309 -0.0952727 0)
(0.816957 -0.053614 0)
(0.773278 0.0642146 0)
(1.09561 -0.0330512 0)
(1.13913 0.0276301 0)
(0.80441 0.00134485 0)
(0.932876 0.000217308 0)
(0.933793 0.000221921 0)
(0.837341 0.000269698 0)
(0.76466 0.0593064 0)
(0.793907 0.00634201 0)
(1.10839 -0.0445673 0)
(0.766575 0.0100683 0)
(0.942689 0.000340821 0)
(0.983447 -0.000299405 0)
(0.984337 -0.000357848 0)
(0.799305 0.00309114 0)
(0.872535 -0.00609802 0)
(0.943626 0.000141177 0)
(0.966146 -0.0249562 0)
(0.946507 0.000147911 0)
(0.946842 -4.62369e-06 0)
(1.08682 -0.0361319 0)
(0.905995 -0.00309828 0)
(0.937248 0.000115827 0)
(0.990949 -0.000447394 0)
(0.991751 -0.000531248 0)
(0.955826 0.0393451 0)
(0.936755 0.000231745 0)
(0.771337 0.00810755 0)
(0.951918 -2.60284e-05 0)
(0.952542 -0.000106337 0)
(1.0998 0.028341 0)
(0.800661 -0.00563745 0)
(1.14335 -0.0479418 0)
(0.820292 0.000489161 0)
(0.94466 8.45517e-05 0)
(0.945192 0.000305032 0)
(0.973446 0.0305222 0)
(1.24707 -0.114321 0)
(1.1289 -0.0473541 0)
(0.834341 -0.00353358 0)
(0.958799 -0.000146074 0)
(0.774637 0.00814122 0)
(0.959572 -0.000198662 0)
(1.1814 -0.0653898 0)
(1.10165 -0.0402138 0)
(0.928154 0.0327702 0)
(0.7863 0.0116267 0)
(0.949245 0.00028883 0)
(0.876096 -0.0306822 0)
(0.950224 0.000219282 0)
(0.707408 0.0416296 0)
(0.806915 0.00112538 0)
(0.9637 -0.000136158 0)
(0.964397 -0.000151826 0)
(0.80112 0.00348448 0)
(1.04252 0.00225767 0)
(0.78519 0.00436091 0)
(1.23357 -0.099209 0)
(0.925566 0.00850108 0)
(0.803389 0.00237224 0)
(0.991888 0.0708055 0)
(1.07254 -0.0916473 0)
(0.788644 0.00286011 0)
(0.977426 0.028936 0)
(0.968595 -8.92544e-05 0)
(0.969344 -0.00020102 0)
(0.840017 0.00730645 0)
(0.956457 5.17584e-05 0)
(0.957321 0.000193044 0)
(1.0687 -0.0990055 0)
(0.842291 0.0068417 0)
(0.842779 0.00702125 0)
(0.812072 0.00257929 0)
(0.834711 0.000678643 0)
(0.802728 -0.0232458 0)
(0.841313 0.000744915 0)
(0.853243 0.00162174 0)
(0.852968 0.00210626 0)
(1.13485 0.0256795 0)
(0.829431 0.000537968 0)
(1.03421 -0.00080276 0)
(1.03469 -0.000666047 0)
(1.05236 -0.023731 0)
(0.770999 0.00212782 0)
(0.961223 -4.66278e-05 0)
(0.96197 2.55585e-05 0)
(0.787773 -0.00442835 0)
(1.22873 -0.108398 0)
(0.982266 0.028011 0)
(0.976181 -0.000145939 0)
(0.976939 -0.000180673 0)
(0.813681 -0.00581145 0)
(1.05045 -0.033181 0)
(0.774449 0.0696578 0)
(1.03736 -0.0122556 0)
(0.821275 0.000514422 0)
(0.944317 0.00925147 0)
(0.828537 0.000820555 0)
(0.954375 0.0379863 0)
(0.973696 -0.0119821 0)
(0.981033 -0.00029704 0)
(0.805107 0.00144222 0)
(0.81273 0.00123932 0)
(0.981783 -0.000451322 0)
(1.23106 -0.108552 0)
(0.966164 0.000117445 0)
(0.9669 0.000120865 0)
(0.971665 -0.0100023 0)
(0.809875 0.00134424 0)
(0.815033 0.00124189 0)
(1.04672 -0.00106129 0)
(1.04632 -0.00130951 0)
(0.903867 0.0544242 0)
(1.05641 0.0619209 0)
(0.831358 0.00565093 0)
(0.809423 0.00510756 0)
(0.835515 0.000144197 0)
(1.06983 -0.0178517 0)
(0.837954 -0.000837777 0)
(1.03796 -0.0386876 0)
(0.901774 0.0547092 0)
(0.897593 0.0601387 0)
(0.827118 0.00141224 0)
(0.817256 0.00211575 0)
(0.823312 0.00201189 0)
(0.837891 -0.000694614 0)
(0.949263 0.023377 0)
(0.814247 0.00195171 0)
(0.824306 -0.00773553 0)
(0.983022 0.0275731 0)
(0.828264 0.00169425 0)
(0.988725 -0.000406386 0)
(0.989414 -0.000547675 0)
(0.901585 0.058476 0)
(1.05769 -0.00242938 0)
(0.825883 0.00128597 0)
(1.05908 -0.00176853 0)
(0.973592 -0.000102482 0)
(0.97463 0.000153656 0)
(1.05885 -0.0270915 0)
(0.970484 0.000896027 0)
(0.847109 7.07124e-05 0)
(0.902447 -0.0227971 0)
(1.03267 -0.00741037 0)
(1.06047 -0.0660823 0)
(0.957139 0.0400059 0)
(0.713299 -0.00526477 0)
(0.843681 -0.00122701 0)
(1.0576 0.0231821 0)
(1.02292 0.0249555 0)
(0.978693 -7.5807e-05 0)
(0.996152 -0.000527077 0)
(0.979317 -5.03699e-05 0)
(0.823446 0.0011066 0)
(0.878894 0.0166252 0)
(-0.114883 0.0461518 0)
(0.996899 -0.000614796 0)
(0.821225 0.00239799 0)
(0.769281 0.0118585 0)
(0.818138 0.000885215 0)
(1.16547 -0.0047417 0)
(1.05227 -0.0197742 0)
(1.07172 -0.000859101 0)
(1.07432 -0.000225816 0)
(0.81848 0.00124572 0)
(0.826098 0.000686019 0)
(1.03933 -0.033645 0)
(0.805989 -0.024986 0)
(1.17634 0.00668038 0)
(1.09649 -0.0331753 0)
(0.959886 0.0357467 0)
(0.781828 -0.00176565 0)
(0.884256 0.0627787 0)
(0.884088 0.0617988 0)
(1.00356 0.00112045 0)
(0.824757 0.0110153 0)
(0.886635 0.0609433 0)
(0.91981 0.0492627 0)
(0.80962 0.00151637 0)
(0.919911 0.0493051 0)
(0.988243 -0.0073529 0)
(1.00105 -0.000634887 0)
(0.785196 0.0713712 0)
(1.00174 -0.000812958 0)
(1.08554 -0.0496798 0)
(0.773745 0.0539807 0)
(0.857713 0.000662001 0)
(0.986202 -0.000353838 0)
(0.987167 -0.000118109 0)
(0.817504 -0.00468554 0)
(0.956226 0.0414487 0)
(0.841902 0.00675138 0)
(0.842696 0.00704675 0)
(0.848622 0.0325293 0)
(1.02517 -0.0755133 0)
(1.00607 -0.000602126 0)
(0.827954 0.00131551 0)
(1.00682 -0.000704996 0)
(1.07425 -0.0351773 0)
(0.884739 0.0608546 0)
(0.795438 -0.00910208 0)
(1.17271 -0.00152558 0)
(1.12905 -0.0463056 0)
(0.83648 -0.000318754 0)
(0.757048 -0.0042776 0)
(0.839927 0.00675687 0)
(1.10008 0.0340486 0)
(0.966337 0.0351626 0)
(0.832344 0.000116322 0)
(0.843519 -0.000125083 0)
(1.01114 -0.000704577 0)
(1.01183 -0.000944858 0)
(1.00221 -0.00692945 0)
(0.960718 -0.00744564 0)
(0.858446 -0.000290991 0)
(0.969147 0.00963354 0)
(0.838511 0.000737403 0)
(0.816243 -0.00922009 0)
(1.07103 -0.0277633 0)
(0.99351 -0.000618258 0)
(0.994507 -0.000248597 0)
(0.845956 -0.00208513 0)
(0.818259 0.00071246 0)
(0.818083 0.00095752 0)
(1.08637 0.0287299 0)
(0.762929 0.0391641 0)
(0.823231 0.00195094 0)
(1.01616 -0.000921419 0)
(1.0169 -0.00115244 0)
(1.01889 -0.0719097 0)
(1.06648 -0.0342351 0)
(0.803324 0.00220708 0)
(1.20966 0.0107074 0)
(0.807064 -0.00177213 0)
(1.15713 -0.0866929 0)
(0.991968 0.0481742 0)
(1.17607 -0.0682619 0)
(0.824665 0.00293491 0)
(0.998719 -0.000451313 0)
(0.810016 -0.000265338 0)
(0.999332 -0.000363561 0)
(0.815482 -0.00603239 0)
(1.14406 -0.0636892 0)
(0.869205 0.000669326 0)
(0.818762 0.00416313 0)
(0.870372 0.00122649 0)
(0.841776 0.00667942 0)
(0.816388 0.00382647 0)
(0.816426 0.00368832 0)
(0.817188 0.00383418 0)
(1.02137 -0.000797058 0)
(0.820326 0.00222297 0)
(0.832354 0.00294682 0)
(0.831245 0.00258017 0)
(0.831971 0.002762 0)
(1.02198 -0.0010189 0)
(0.817017 0.00305676 0)
(0.886915 0.0598659 0)
(1.08875 -0.0350366 0)
(0.829051 -4.03652e-05 0)
(0.817516 0.0027399 0)
(0.788751 -0.00487584 0)
(0.963768 -0.00626864 0)
(1.17364 -0.00289965 0)
(1.12926 -0.0472688 0)
(1.00352 -0.000658858 0)
(1.10213 0.00991333 0)
(1.00426 -0.000471406 0)
(0.820496 0.00175646 0)
(1.11999 0.0463037 0)
(1.02606 -0.000871338 0)
(0.751143 0.0614037 0)
(0.841528 0.00677969 0)
(0.955671 0.0370699 0)
(1.02694 -0.00117252 0)
(1.10605 -0.00818218 0)
(0.815406 0.00217181 0)
(1.05623 -0.00641545 0)
(0.983932 0.0240111 0)
(0.983974 0.0259027 0)
(0.836234 -0.000230946 0)
(1.01603 -0.0125265 0)
(0.999832 0.0243523 0)
(0.958863 0.00392085 0)
(0.965352 0.00361293 0)
(0.888351 0.0591153 0)
(0.834332 0.0004284 0)
(0.840421 0.0311538 0)
(0.865293 -0.00177158 0)
(0.781403 -0.00104642 0)
(1.20793 0.0316724 0)
(0.829837 0.00189163 0)
(0.842296 0.00129644 0)
(0.843222 0.00583346 0)
(0.799615 0.0667017 0)
(0.840756 0.0070689 0)
(1.02109 -0.0123024 0)
(0.844398 0.0274545 0)
(0.793447 -0.0140444 0)
(0.830356 0.00205752 0)
(0.848712 0.00156333 0)
(1.05838 -0.0266833 0)
(0.843438 0.0274201 0)
(0.835131 -0.0196721 0)
(1.03171 -0.00100146 0)
(0.865238 -0.000120948 0)
(1.00879 -0.000521139 0)
(0.860422 -0.000452463 0)
(0.820053 0.00316235 0)
(1.03237 -0.00126722 0)
(1.00944 -0.000341158 0)
(0.850228 -0.000267736 0)
(0.885119 0.0220136 0)
(0.826732 -0.00191235 0)
(0.991963 -0.00875766 0)
(0.854041 0.00117336 0)
(0.854023 0.000834663 0)
(1.03707 -0.0204244 0)
(1.16435 -0.0179169 0)
(0.842338 0.00735963 0)
(0.84785 -0.00036118 0)
(1.14749 -0.00253586 0)
(1.12851 -0.0476517 0)
(0.834746 0.0266205 0)
(1.06328 0.0138163 0)
(0.850567 -0.000615948 0)
(1.03607 -0.019322 0)
(0.968773 0.0312928 0)
(0.830792 0.000885792 0)
(0.829624 0.0010732 0)
(1.09025 -0.0318559 0)
(0.8433 -0.00415995 0)
(1.05185 -0.0194142 0)
(1.0153 -0.0119724 0)
(0.954316 -0.11605 0)
(0.802378 0.0014283 0)
(0.249604 0.157577 0)
(0.842826 0.0330025 0)
(1.12706 -0.00697728 0)
(0.842816 0.0306555 0)
(1.01368 -0.000811392 0)
(1.03001 -0.0190162 0)
(0.814844 0.00156008 0)
(1.02898 -0.0194505 0)
(1.02797 -0.0195824 0)
(1.01431 -0.00066226 0)
(0.821816 0.002625 0)
(1.02932 -0.0205188 0)
(0.806542 0.00152544 0)
(0.841113 0.00913913 0)
(0.845075 0.0281967 0)
(0.829977 0.00240522 0)
(0.839141 0.00945573 0)
(0.789672 0.00626929 0)
(1.01295 -0.0520095 0)
(1.13703 -0.00937644 0)
(1.1134 -0.0458736 0)
(1.03867 -0.0010308 0)
(1.0814 -0.0246587 0)
(0.983366 0.0259296 0)
(1.03923 -0.00156184 0)
(0.72807 -0.0100119 0)
(0.934653 -0.00473012 0)
(0.952406 -0.00568543 0)
(0.819865 0.0140032 0)
(0.812643 0.00208931 0)
(0.813417 0.000523482 0)
(0.808918 0.00502413 0)
(0.764596 0.00721932 0)
(0.828079 0.000738666 0)
(1.0513 -0.0179298 0)
(0.977943 -0.0119439 0)
(1.05156 -0.0808174 0)
(1.05106 -0.0185518 0)
(1.03994 -0.0190881 0)
(0.781412 -0.0208144 0)
(1.03484 -0.0207104 0)
(0.366443 -0.0189011 0)
(0.82397 0.00284823 0)
(1.01882 -0.000940604 0)
(1.02354 -0.0129639 0)
(1.06834 -0.0639744 0)
(1.01956 -0.000656074 0)
(1.04529 -0.000959416 0)
(1.046 -0.00102533 0)
(0.943317 -0.00571496 0)
(0.985316 -0.00382643 0)
(0.817511 0.00378825 0)
(0.936977 -0.00557065 0)
(0.953072 0.040928 0)
(0.7832 -0.00191539 0)
(1.19271 -0.0315304 0)
(0.812249 0.00136027 0)
(1.02289 0.00241794 0)
(0.837511 0.0246403 0)
(1.11455 -0.00589802 0)
(0.766959 0.0176675 0)
(0.792967 0.000995066 0)
(0.841453 0.00650244 0)
(1.03289 -0.0164209 0)
(0.831737 0.0022051 0)
(0.948113 0.0335526 0)
(0.789631 0.0294954 0)
(0.873923 -0.0530695 0)
(1.01882 -0.0125263 0)
(0.841907 0.000828789 0)
(0.845998 -9.4125e-05 0)
(1.01858 -0.0119915 0)
(0.816134 0.00269285 0)
(1.02069 -0.0121659 0)
(1.01652 -0.0102441 0)
(1.02043 -0.0119508 0)
(1.03518 0.050979 0)
(1.05275 0.0227123 0)
(1.00247 0.0119257 0)
(0.848246 -0.00320521 0)
(1.03069 -0.0187745 0)
(1.02482 -0.0131118 0)
(0.830818 0.00108458 0)
(0.798428 0.00169193 0)
(1.02378 -0.000756988 0)
(0.842549 0.000826248 0)
(1.03279 -0.0104537 0)
(1.07675 -0.0276315 0)
(0.849354 0.00165072 0)
(0.85591 0.000391051 0)
(1.02432 -0.000546228 0)
(0.791659 0.00241763 0)
(0.790268 -0.0150182 0)
(0.848665 0.018737 0)
(0.84757 0.0183827 0)
(1.23205 -0.0934211 0)
(0.854118 0.0192593 0)
(0.853062 0.0193028 0)
(1.05209 -0.00111724 0)
(1.08067 -0.0234398 0)
(1.05337 -0.00110915 0)
(0.873445 0.0249677 0)
(0.858767 0.0219234 0)
(0.859592 0.0216349 0)
(0.867249 0.0228969 0)
(0.864268 0.0231472 0)
(0.833585 -0.000324739 0)
(0.839599 0.0284706 0)
(0.782267 -0.00372574 0)
(1.04037 -0.0191418 0)
(1.0949 -0.0698303 0)
(0.843498 0.00709351 0)
(0.847091 0.0058607 0)
(0.795322 -0.00587369 0)
(0.840223 0.0250493 0)
(0.847587 0.0087305 0)
(0.849468 0.00367029 0)
(0.975691 -0.0410189 0)
(0.952828 0.0375739 0)
(0.922505 -0.0370029 0)
(0.968334 0.0342648 0)
(0.842555 0.00833303 0)
(0.845123 0.00349974 0)
(1.08305 -0.0472975 0)
(0.84059 -0.00165527 0)
(0.843824 0.00843508 0)
(0.84266 0.0105891 0)
(1.02895 -0.00108496 0)
(0.842323 0.011969 0)
(0.839843 0.00792514 0)
(1.02975 -0.000844808 0)
(0.970618 0.0332337 0)
(0.944025 0.0260845 0)
(0.817769 0.00355871 0)
(0.937904 0.0257269 0)
(0.937703 0.0267517 0)
(0.926724 0.0261383 0)
(1.10498 -0.024184 0)
(0.840781 0.00802752 0)
(1.05625 -0.00122952 0)
(1.05641 -0.00177322 0)
(0.955901 0.0384273 0)
(0.78691 -0.00924917 0)
(0.841795 0.0108422 0)
(0.830723 0.0012145 0)
(1.12609 0.0167716 0)
(0.811636 0.000788615 0)
(0.771494 0.0488749 0)
(0.862088 0.0369537 0)
(0.842392 0.0259972 0)
(0.772405 0.0572155 0)
(0.838406 0.0321216 0)
(0.829954 0.00304066 0)
(0.957933 0.0407006 0)
(0.947481 0.0413808 0)
(0.822306 0.00276403 0)
(0.816357 0.00328679 0)
(0.775437 0.00325242 0)
(1.02448 -0.0188874 0)
(0.818561 0.0024318 0)
(0.81733 0.00186594 0)
(0.998596 0.0218396 0)
(0.869979 0.0232572 0)
(0.866459 0.02338 0)
(0.87542 0.0254367 0)
(0.876954 0.0251393 0)
(0.880187 0.0236021 0)
(0.876529 0.0239778 0)
(0.883905 0.0259153 0)
(0.884915 0.0258796 0)
(1.0677 -0.101418 0)
(1.03779 -0.0191834 0)
(0.890456 0.0239808 0)
(1.09493 -0.00497315 0)
(0.887984 0.0241927 0)
(0.893118 0.0251562 0)
(0.818723 0.00268497 0)
(1.07574 -0.0188445 0)
(0.941957 -0.00950167 0)
(0.89312 0.0255488 0)
(0.816367 0.00365759 0)
(0.900512 0.0232119 0)
(0.836116 0.00204646 0)
(0.89936 0.0236709 0)
(1.0131 0.0713843 0)
(1.03458 -0.0173857 0)
(0.900417 0.0212457 0)
(0.856801 0.000712665 0)
(0.900102 0.0225127 0)
(0.832604 0.0685646 0)
(0.822621 0.00688089 0)
(0.909306 0.0198332 0)
(0.85453 0.00112321 0)
(0.908807 0.02028 0)
(0.854562 0.000819442 0)
(1.23709 -0.0866462 0)
(0.857948 0.000510414 0)
(1.0699 -0.0220439 0)
(0.925254 -0.00900072 0)
(0.8428 0.00687832 0)
(0.842569 0.00683541 0)
(0.908882 0.0176014 0)
(0.907657 0.0185699 0)
(0.823443 0.00380741 0)
(1.02227 -0.01352 0)
(0.919169 0.0176352 0)
(0.918518 0.017573 0)
(0.997921 0.0202618 0)
(0.84144 3.19734e-05 0)
(0.839369 0.000320214 0)
(0.926788 0.014626 0)
(1.06604 -0.00125497 0)
(0.924779 0.0148303 0)
(0.819116 0.00537794 0)
(1.03601 -0.00124389 0)
(0.928041 0.0149596 0)
(1.07483 -0.0476436 0)
(0.928333 0.0153105 0)
(1.06664 -0.000860741 0)
(1.03662 -0.000988755 0)
(0.817623 0.00509713 0)
(0.844322 0.00852904 0)
(0.844382 0.00865459 0)
(0.938528 0.0122084 0)
(0.936962 0.0125963 0)
(1.18611 0.000567469 0)
(0.82216 0.00427284 0)
(0.82746 0.00342414 0)
(0.937136 0.0117876 0)
(1.05088 -0.0172886 0)
(0.937551 0.01207 0)
(1.10669 -0.0439305 0)
(0.817733 0.00364844 0)
(0.948996 0.0101955 0)
(0.952711 0.00976068 0)
(0.841799 0.00922726 0)
(0.839001 0.00906544 0)
(0.840688 0.00925905 0)
(0.775286 -0.0354358 0)
(0.837993 0.00867885 0)
(1.02489 -0.0128943 0)
(1.00327 -0.00600645 0)
(0.935722 0.0431511 0)
(0.82199 0.00201349 0)
(0.964881 0.00765287 0)
(0.849876 0.00333772 0)
(0.962664 0.00758739 0)
(0.848085 0.00358397 0)
(0.825153 0.00195351 0)
(1.02309 -0.0125451 0)
(1.02293 -0.0123191 0)
(0.955595 0.00440264 0)
(0.956035 0.00544327 0)
(1.03561 -0.0212375 0)
(1.01825 -0.0107834 0)
(0.974449 0.00460926 0)
(1.01673 -0.0102878 0)
(0.972396 0.00396063 0)
(0.816327 0.0016292 0)
(0.982614 0.0246382 0)
(0.979179 -0.00157121 0)
(0.97383 -0.00071139 0)
(0.839506 0.0072238 0)
(1.08677 -0.0305356 0)
(0.978197 0.00176614 0)
(0.982485 0.00164505 0)
(0.703476 0.0271369 0)
(0.857802 0.0040868 0)
(0.85748 0.0042212 0)
(0.841237 0.00633409 0)
(0.991273 -0.00564802 0)
(1.04073 -0.0199241 0)
(0.985649 -0.00471012 0)
(0.984851 -0.0243016 0)
(0.626607 0.00461191 0)
(1.03262 -0.0182553 0)
(1.09752 -0.0548736 0)
(0.98824 -0.00153627 0)
(0.992915 -0.00179386 0)
(0.999031 -0.00602372 0)
(1.00221 -0.00960837 0)
(0.996613 -0.00874754 0)
(1.07079 -0.0359684 0)
(1.07066 -0.0343231 0)
(0.858812 0.0210528 0)
(1.06278 -0.0103976 0)
(0.765651 0.0457452 0)
(1.06773 -0.00193221 0)
(0.786996 -0.00469956 0)
(1.06968 -0.0542414 0)
(1.06835 -0.00280039 0)
(1.07342 -0.0476334 0)
(0.662711 -0.00121773 0)
(1.0341 0.00441038 0)
(0.868433 0.0235722 0)
(0.856508 0.0213488 0)
(0.868419 0.02336 0)
(1.04177 -0.00110417 0)
(0.849201 0.00343665 0)
(0.853104 0.0201895 0)
(0.849356 0.00344081 0)
(0.832908 -0.00774231 0)
(0.853356 0.0196409 0)
(1.04325 -0.00070255 0)
(0.880113 -0.00302471 0)
(0.860058 0.0216684 0)
(0.860934 0.0216386 0)
(1.06261 -0.0258108 0)
(1.08241 -0.0363335 0)
(0.816956 0.00283769 0)
(0.990392 0.0234657 0)
(1.06272 -0.0908737 0)
(0.936954 -0.00596091 0)
(0.837283 -0.00500374 0)
(0.813314 -0.00865958 0)
(0.815749 0.00203545 0)
(0.83715 0.0276524 0)
(1.04549 0.0888016 0)
(1.12377 0.00295021 0)
(0.844684 0.00365466 0)
(1.03584 -0.0198616 0)
(0.838827 0.0255097 0)
(0.934 0.0229461 0)
(0.89083 0.049141 0)
(0.932809 0.02217 0)
(1.07628 -0.0482629 0)
(0.841673 0.00594097 0)
(0.981586 0.00804183 0)
(0.9767 0.00375737 0)
(0.935103 0.0266411 0)
(0.84138 0.0276794 0)
(0.825785 0.000977934 0)
(0.821318 0.00407467 0)
(1.0573 0.0450294 0)
(0.864382 -0.000248193 0)
(0.931779 0.0213894 0)
(0.93311 0.0232778 0)
(1.11412 -0.00282758 0)
(0.945882 -0.0084034 0)
(1.00453 -0.00339195 0)
(0.830409 0.00278356 0)
(1.05784 -0.0201288 0)
(0.835483 0.00405761 0)
(0.821368 0.00256177 0)
(0.93106 0.0222933 0)
(1.00161 -0.0100146 0)
(0.841673 0.0305047 0)
(0.914313 -0.0360652 0)
(0.839674 0.0321261 0)
(0.843167 0.0289673 0)
(0.982833 0.025243 0)
(0.985086 0.0262881 0)
(0.816381 0.00272609 0)
(0.928989 0.0215171 0)
(1.07242 -0.0466552 0)
(1.03403 -0.0203088 0)
(0.817814 -0.000164893 0)
(1.03597 -0.0201936 0)
(1.07551 -0.00229182 0)
(0.82594 -0.00135364 0)
(0.842675 0.0284935 0)
(1.02815 -0.0198281 0)
(1.03311 -0.0164324 0)
(0.841791 0.0281171 0)
(1.07519 -0.00291063 0)
(0.727729 -0.0215458 0)
(0.833965 0.0271063 0)
(0.957489 0.0138394 0)
(0.917165 0.0169957 0)
(0.918138 0.0173704 0)
(1.03837 -0.0190371 0)
(0.855263 -8.3779e-05 0)
(0.737158 -0.0320693 0)
(0.710903 -0.0213685 0)
(0.974248 -0.0137905 0)
(0.89156 -0.00391923 0)
(0.842101 0.00675495 0)
(1.02293 -0.012501 0)
(1.0829 0.0102259 0)
(1.07292 -0.042347 0)
(0.838212 0.068832 0)
(0.843491 0.000653588 0)
(0.840667 0.00169385 0)
(0.863773 -0.0031564 0)
(0.944037 0.0101005 0)
(0.939696 0.0115784 0)
(0.865486 0.0231958 0)
(0.837456 0.0322944 0)
(0.80972 -0.00525202 0)
(1.04786 -0.0020114 0)
(0.945214 0.00807819 0)
(0.984663 -0.067571 0)
(0.837013 0.0329904 0)
(0.94592 0.00859544 0)
(1.04885 -0.00157546 0)
(1.03958 -0.0193459 0)
(1.04207 -0.0200715 0)
(0.791665 0.00156387 0)
(1.03567 -0.0210075 0)
(1.01575 -0.0125045 0)
(1.07961 -0.05778 0)
(1.03744 -0.0199429 0)
(1.10449 -0.0428656 0)
(0.968705 0.00489165 0)
(0.841504 0.00724203 0)
(0.843018 0.00723844 0)
(0.973245 0.00462191 0)
(0.843112 0.000348436 0)
(0.839437 0.00701867 0)
(1.03498 -0.0173481 0)
(1.03761 -0.0188403 0)
(0.841996 0.00682771 0)
(1.08356 -0.00078864 0)
(1.07717 -0.0401406 0)
(1.02251 -0.0137976 0)
(1.09739 -0.0337769 0)
(1.07131 -0.0310823 0)
(1.08482 -0.000742935 0)
(1.08123 -0.0450964 0)
(1.09497 -0.039127 0)
(1.06316 -0.0492197 0)
(1.06194 -0.0506545 0)
(0.881438 2.71338e-05 0)
(0.82279 0.0189279 0)
(1.22589 0.00176431 0)
(0.822994 0.0190089 0)
(0.881085 7.92736e-05 0)
(1.0261 -0.0194543 0)
(1.0674 -0.0374911 0)
(1.07929 -0.0415423 0)
(0.819825 0.00664172 0)
(0.842514 0.00615595 0)
(1.01586 -0.0115684 0)
(0.834351 -3.59771e-05 0)
(1.02174 -0.0122267 0)
(1.0148 -0.0118512 0)
(0.840913 0.0324627 0)
(0.842626 0.0329916 0)
(0.57656 0.0032754 0)
(0.841739 0.0314412 0)
(0.803087 -0.00681814 0)
(0.844411 0.0296236 0)
(0.816805 0.00292869 0)
(1.03656 -0.0182335 0)
(1.01856 -0.0109892 0)
(1.02762 0.0169765 0)
(0.709033 -0.024793 0)
(0.825936 0.00279403 0)
(1.05591 -0.000197364 0)
(0.856271 0.00414807 0)
(1.0122 -0.0127064 0)
(1.01434 -0.0150285 0)
(1.0563 -0.000350356 0)
(0.836034 0.0268006 0)
(1.02495 -0.0154389 0)
(1.02691 -0.0193785 0)
(1.02372 -0.0138029 0)
(0.816163 0.000749604 0)
(0.812307 0.000694806 0)
(0.811799 -0.000102115 0)
(0.825545 0.0018354 0)
(1.02391 -0.0174973 0)
(1.02153 -0.0119196 0)
(0.829141 -0.000889778 0)
(0.996635 0.0182499 0)
(0.844751 0.0282704 0)
(1.08506 -0.0432114 0)
(0.83801 -0.0016042 0)
(1.09203 -0.0404979 0)
(0.974296 -0.00709584 0)
(0.747177 -0.00812512 0)
(0.818923 0.0066225 0)
(1.08407 -0.00244013 0)
(1.08351 -0.00341454 0)
(0.796224 -0.0309556 0)
(0.80482 0.0684979 0)
(0.866068 0.0233047 0)
(1.07909 -0.0416694 0)
(1.02766 0.0490414 0)
(1.00179 0.0194432 0)
(1.07842 -0.042283 0)
(0.860781 0.0221856 0)
(0.858687 0.0221258 0)
(1.03261 -0.0202864 0)
(0.987574 -0.0220395 0)
(0.821377 0.00673087 0)
(0.82027 0.00676827 0)
(1.02075 -0.0118259 0)
(1.03122 -0.0916118 0)
(0.828003 -0.00681608 0)
(1.03384 -0.0191217 0)
(0.801383 -0.00181513 0)
(0.854279 0.0205416 0)
(0.832726 0.000691818 0)
(0.852735 0.0203177 0)
(0.863873 0.000211919 0)
(0.852195 0.0188969 0)
(0.751987 0.0522743 0)
(0.850017 0.0193048 0)
(0.937714 -0.00912049 0)
(1.06866 -0.0371958 0)
(1.0759 -0.0465887 0)
(1.1417 0.00679119 0)
(0.756625 -0.0199976 0)
(0.943566 -0.0239457 0)
(0.88247 -0.0170713 0)
(1.06728 -0.0274506 0)
(0.786543 -0.0137708 0)
(0.947086 -0.00461633 0)
(0.829591 -0.0439205 0)
(0.906328 0.0199945 0)
(0.899883 0.0232348 0)
(0.896701 0.0235895 0)
(0.906663 0.0191088 0)
(0.903803 0.0211521 0)
(0.851453 -0.000577444 0)
(0.81439 0.0131044 0)
(0.900854 0.0233589 0)
(0.892962 0.0255054 0)
(0.908435 0.0195561 0)
(1.04201 -0.0200808 0)
(0.895001 0.0246837 0)
(0.927427 0.01567 0)
(0.916369 0.0171657 0)
(0.89194 0.0250089 0)
(0.847027 0.000125444 0)
(0.885274 0.0243597 0)
(0.913433 0.01759 0)
(0.884408 0.0249398 0)
(0.841639 0.00962442 0)
(0.920629 0.0153429 0)
(0.874545 0.0602116 0)
(0.884765 0.0255436 0)
(0.882944 0.025032 0)
(0.918941 0.0163666 0)
(0.874385 0.0239518 0)
(0.879187 0.0275537 0)
(0.928938 0.0154651 0)
(0.874171 0.0244397 0)
(0.842087 0.00660949 0)
(0.87617 0.024787 0)
(0.92843 0.0150212 0)
(0.81841 0.0025697 0)
(0.932382 0.0131407 0)
(0.873979 0.0244844 0)
(1.02827 -0.0118464 0)
(0.831602 0.00324085 0)
(1.09404 -0.000609915 0)
(0.930168 0.0143906 0)
(0.840706 0.00921427 0)
(0.852171 0.00192753 0)
(0.83934 0.00912774 0)
(0.939286 0.0128903 0)
(0.926371 0.0273387 0)
(0.838877 0.00700376 0)
(0.837746 0.00908487 0)
(0.85309 0.00158702 0)
(0.939924 0.0123009 0)
(1.09953 0.000890707 0)
(0.973541 -0.026457 0)
(0.951938 0.00998954 0)
(0.816946 0.00311217 0)
(1.02977 -4.10043e-05 0)
(0.950186 0.0106578 0)
(0.955991 0.00640899 0)
(0.949434 0.00766827 0)
(1.0688 -0.0334745 0)
(0.958142 0.00760628 0)
(0.96384 0.00723329 0)
(0.967537 0.00253893 0)
(0.814729 0.00139538 0)
(0.972371 -0.00807269 0)
(0.961063 0.00369954 0)
(0.827628 0.00295396 0)
(0.968046 0.000946511 0)
(0.951291 -0.053556 0)
(0.827845 0.00277744 0)
(0.855874 0.00414364 0)
(0.968365 0.00227823 0)
(1.06658 -0.0196949 0)
(0.987639 -0.0234223 0)
(0.984659 0.00116448 0)
(0.982812 0.000114462 0)
(0.978661 -0.00259968 0)
(1.0622 -0.00119255 0)
(0.978644 -0.000883671 0)
(0.84167 -0.00182073 0)
(0.996254 -0.00242192 0)
(0.816741 0.00164188 0)
(1.00848 -0.0120191 0)
(1.06425 -0.000648681 0)
(0.994674 -0.0039631 0)
(0.998466 0.02089 0)
(1.00151 0.0175067 0)
(1.03476 -0.020398 0)
(0.989088 -0.00632354 0)
(1.01522 -0.0102809 0)
(1.01503 -0.0120516 0)
(0.956422 -0.000217702 0)
(0.988915 -0.00435855 0)
(1.00645 -0.00639135 0)
(1.00522 -0.00804288 0)
(0.94015 -0.00415158 0)
(0.924766 -0.0328935 0)
(0.908071 -0.0498089 0)
(0.816076 0.00281543 0)
(0.921829 -0.0152731 0)
(0.825266 0.00267683 0)
(0.822078 -0.0184784 0)
(0.981955 -0.0255306 0)
(0.902501 -0.038525 0)
(0.905256 0.0058718 0)
(0.765461 0.0546367 0)
(0.894664 0.0422466 0)
(0.846662 0.0311384 0)
(1.09544 -0.0178347 0)
(1.07917 -0.0219422 0)
(0.956373 0.0374867 0)
(0.955978 0.0392658 0)
(0.816574 0.00284466 0)
(0.830731 0.0130226 0)
(0.930574 0.0152405 0)
(0.927737 0.0156927 0)
(1.2812 -0.000410836 0)
(0.814884 0.0127995 0)
(0.93999 0.0139046 0)
(0.92819 0.0160632 0)
(0.936368 0.0149891 0)
(0.943898 0.0262361 0)
(0.802316 0.0217138 0)
(1.0716 -0.0341947 0)
(1.01651 -0.0122306 0)
(1.03271 -0.0195211 0)
(0.81789 0.00248879 0)
(1.02242 -0.00677885 0)
(1.07256 -0.0403791 0)
(1.07159 -0.0482054 0)
(0.996689 0.0186323 0)
(0.802931 0.00102584 0)
(0.90914 0.0252963 0)
(0.938736 0.0255916 0)
(1.0592 -0.0707113 0)
(0.925317 0.0254543 0)
(0.946588 -0.000149286 0)
(0.982711 0.00971755 0)
(1.01645 0.00429286 0)
(0.948922 -0.00110644 0)
(0.997772 0.0267282 0)
(0.871402 0.0264293 0)
(0.825278 0.00308205 0)
(1.04957 -0.0112091 0)
(0.996227 0.0180205 0)
(1.00312 0.00872088 0)
(0.942319 0.013686 0)
(1.00011 0.0204614 0)
(0.991377 0.0226444 0)
(0.809907 -0.0564818 0)
(1.06646 -0.0020742 0)
(1.01441 0.00617215 0)
(1.06586 -0.00203702 0)
(1.01321 -0.0130174 0)
(0.977044 -0.0182088 0)
(1.18286 -0.0722667 0)
(1.08653 -0.0383703 0)
(0.826108 -0.028189 0)
(1.02796 0.00231788 0)
(0.927086 0.015607 0)
(1.00054 -0.0080813 0)
(0.825191 0.00302469 0)
(0.926773 0.0161013 0)
(0.89207 0.0268366 0)
(1.04582 -0.0104455 0)
(1.00755 0.0108595 0)
(0.818911 0.000865906 0)
(0.824565 0.00281512 0)
(0.875756 0.00325974 0)
(1.02543 -0.0145451 0)
(0.837909 0.0329742 0)
(0.811038 0.000662539 0)
(0.879083 0.00292095 0)
(0.779716 -0.0247655 0)
(1.00521 0.0113059 0)
(1.10075 -0.0501709 0)
(0.817624 0.000342516 0)
(0.892804 0.014884 0)
(0.881264 0.00271531 0)
(1.02678 -0.0151732 0)
(1.04083 -0.00817177 0)
(0.80364 0.00262403 0)
(0.811979 0.00236447 0)
(0.880691 -0.0610367 0)
(1.06726 -0.0489112 0)
(0.880259 0.027438 0)
(1.07468 -0.0502217 0)
(1.01762 -0.0102514 0)
(1.01758 -0.0101152 0)
(0.777902 0.0052734 0)
(0.928263 0.0153338 0)
(1.02195 -0.0125602 0)
(0.837256 0.0243616 0)
(1.02916 -0.0135915 0)
(0.883045 0.00253745 0)
(0.997002 0.0175515 0)
(0.950578 -0.0020841 0)
(1.09503 -0.0160564 0)
(1.06833 -0.0382063 0)
(0.868223 0.0024599 0)
(0.867469 0.00274649 0)
(1.02265 -0.00525149 0)
(1.07938 -0.014356 0)
(1.00983 -0.0107804 0)
(1.02537 -0.0191522 0)
(1.02663 -0.0124229 0)
(1.02634 -0.0121067 0)
(0.868224 0.00267609 0)
(0.94891 -0.000746793 0)
(1.01249 -0.0105371 0)
(1.03804 -0.021428 0)
(1.03518 -0.0215622 0)
(1.06797 -0.0509314 0)
(0.993729 0.0173381 0)
(0.840147 0.024512 0)
(1.03938 -0.00592061 0)
(1.1363 -0.0658844 0)
(1.02363 -0.0160103 0)
(1.15203 -0.0564976 0)
(1.02042 -0.0159929 0)
(0.938142 0.0269521 0)
(0.000889791 0.00640613 0)
(0.852087 0.00372792 0)
(0.851665 0.00379279 0)
(1.06812 -0.0385086 0)
(1.0206 -0.0155549 0)
(0.826028 0.000312888 0)
(1.0395 -0.0192482 0)
(1.02222 -0.0150155 0)
(0.640954 0.0100797 0)
(0.659687 0.00420828 0)
(1.07748 -0.0431812 0)
(1.04001 -0.0200311 0)
(0.957028 -0.0162156 0)
(0.96447 -0.0188742 0)
(0.912293 0.0267815 0)
(0.862923 0.00430701 0)
(0.861733 0.00380317 0)
(1.03402 -0.00352365 0)
(0.906418 0.0270609 0)
(0.854833 0.00382522 0)
(0.851864 0.00342435 0)
(0.84562 0.0272947 0)
(1.03327 -0.0193239 0)
(0.853746 0.00330021 0)
(1.03122 -0.0197353 0)
(1.04943 -0.0890436 0)
(0.849244 -0.0181064 0)
(1.09931 -0.0225084 0)
(0.819758 0.0036439 0)
(0.846787 0.027187 0)
(1.10026 -0.01999 0)
(0.840788 0.00051101 0)
(0.857929 0.0302101 0)
(1.03609 -0.0183982 0)
(0.868096 0.0322083 0)
(0.857252 0.0298959 0)
(0.867088 0.00518969 0)
(0.886793 -0.0327671 0)
(0.865808 0.0325318 0)
(1.03416 -0.0175256 0)
(1.10113 -0.0225967 0)
(0.916704 0.0249007 0)
(0.8406 0.0108343 0)
(1.03683 0.00577935 0)
(0.872937 0.0315538 0)
(0.895977 0.0264685 0)
(1.03153 -0.0035021 0)
(1.11276 -0.0023522 0)
(0.919401 0.0232743 0)
(0.870046 0.0314615 0)
(0.881392 0.0319874 0)
(0.835373 0.0304156 0)
(1.02008 -0.0139575 0)
(0.9201 -0.0468071 0)
(0.834666 0.0298908 0)
(0.826415 0.0264734 0)
(1.07606 -0.0356994 0)
(0.883536 0.0322935 0)
(0.826858 0.0274445 0)
(0.907165 0.0251687 0)
(0.917695 -0.0314299 0)