/*--------------------------------*- C++ -*----------------------------------*\
  =========                 |
  \\      /  F ield         | OpenFOAM: The Open Source CFD Toolbox
   \\    /   O peration     | Website:  https://openfoam.org
    \\  /    A nd           | Version:  12
     \\/     M anipulation  |
\*---------------------------------------------------------------------------*/
FoamFile
{
    format      ascii;
    class       surfaceScalarField;
    location    "4.45";
    object      phi;
}
// * * * * * * * * * * * * * * * * * * * * * * * * * * * * * * * * * * * * * //

dimensions      [1 0 -1 0 0 0 0];

internalField   nonuniform List<scalar> 
33852
(
0.000251329
2.24281e-05
-0.000273757
-0.000246121
1.32441e-05
0.000232877
-0.00017623
-7.19556e-05
0.0002461
0.000304053
-0.000163969
-0.000140085
0.000291518
-4.23766e-05
-0.000249028
2.72441e-05
-0.000260681
0.000233437
0.00031461
1.47135e-05
-0.000329395
0.000304277
-9.59564e-05
-0.000208321
0.000286413
-3.50841e-05
0.000198238
1.99652e-06
-0.000200187
0.000290275
-0.000367446
7.73438e-05
0.000360322
-4.5654e-05
-4.39602e-05
0.000263285
-0.000219325
-4.38936e-05
0.000318356
-0.000274634
6.1377e-05
-0.000238278
0.000252057
1.2236e-05
-0.000264293
0.000264853
-1.2796e-05
-0.000278433
3.23121e-05
0.000341478
-5.1323e-05
0.000158593
0.000112308
-0.000270901
-2.42919e-05
0.000303341
-0.000279228
0.000271377
-0.000276165
4.78802e-06
-1.79071e-05
0.000276194
-0.000258899
-0.000223636
1.45742e-05
0.000207676
-0.000152895
-0.000183636
0.000337327
-0.00014427
-6.90855e-05
0.00021476
3.72401e-05
0.000267037
-6.09193e-05
-0.000263638
0.000322231
-0.000214855
1.64662e-06
0.000209071
-0.0002058
-1.91834e-05
0.000142045
0.000137388
-0.000279433
0.000341218
1.93448e-05
0.000142618
0.000128347
-0.000270965
-0.000101136
0.000259729
-0.000250489
-3.78001e-06
0.000254269
0.000330737
-5.9609e-05
-0.000271098
-0.000356123
0.000203201
-0.000228678
0.000210419
0.000231645
3.32081e-05
-5.65602e-06
0.000237301
-8.37364e-06
0.000208173
-0.000232625
0.000259869
0.000316488
-5.74892e-05
-0.000259562
-0.000309093
5.51042e-05
0.000253989
0.000239327
-0.000303222
0.000273589
-0.000306321
3.27321e-05
-0.000180237
-5.49362e-05
0.000235173
0.000272133
-0.000272133
0.000148429
-0.000297473
0.000149045
-0.000210843
0.000218575
-7.49815e-06
-0.000268241
0.000237301
3.09401e-05
-0.000200367
0.000246013
-4.76281e-05
-9.16164e-05
-0.000217477
-0.0001147
-0.00025234
-0.000280169
0.000266113
1.40561e-05
0.000329777
1.18572e-05
-0.000250433
7.01963e-05
0.000117908
0.000145909
-0.000263817
1.34681e-05
-0.000267457
0.000253989
-0.000134569
0.000282997
-0.000153287
-5.08802e-05
0.000204201
-0.000274681
0.000245113
2.95681e-05
0.000237553
-0.000268437
3.08841e-05
-0.000193174
-2.36414e-05
0.000151665
0.000115565
-0.00026723
-0.000182043
-2.66232e-05
0.000219673
0.000263985
2.24281e-05
0.000275941
-2.35201e-06
0.000265329
-0.000250741
-1.45881e-05
0.000226395
-6.43782e-05
-0.000161535
-1.82001e-06
0.000239373
0.000365656
-0.000311865
-5.38462e-05
-2.83049e-05
0.000303794
-0.00027572
-0.000101584
0.000219493
0.000342494
2.41968e-05
-0.000369871
0.000353816
1.7963e-05
-0.000201082
2.10876e-05
0.000308964
-0.000321375
1.22717e-05
-0.00021072
0.000275703
-6.45325e-05
-4.45202e-06
1.71453e-05
-0.000319619
0.000302494
0.000235266
-0.000199039
-3.53757e-05
0.000270191
-0.000340206
7.02908e-05
0.000333397
-6.36175e-05
-0.000268941
0.000236573
3.23681e-05
-0.000129388
-0.000132609
0.000261997
-1.86761e-05
-0.000249565
-1.022e-05
-0.000258721
2.33688e-05
0.000210058
-0.000233155
3.14897e-05
-0.000220914
0.000190247
-2.5191e-05
0.000330901
-0.000304095
-0.000279329
0.000273701
5.62802e-06
0.000156129
-0.000296857
0.000140729
-5.97459e-05
-0.000151058
0.000209652
0.000143277
0.0001218
-0.000265077
-0.000249975
0.000225466
-0.000213616
0.000153096
-0.000168813
0.000327181
-0.000158369
0.000185389
7.16523e-05
-0.000257041
0.000255193
2.07481e-05
-0.000192277
0.000148317
5.01116e-05
0.000265916
0.000307388
-0.000290252
9.14144e-05
-0.000235502
0.000135241
0.000117096
-0.000281065
-1.14846e-06
0.000244987
-0.000243053
0.000166489
0.000122836
-0.000289325
0.00014496
9.07092e-05
-3.92002e-06
0.000259113
0.00030346
5.45953e-06
-0.000323344
0.000314691
8.80276e-06
-3.99002e-05
0.000236293
-0.000196393
4.08802e-06
-0.000284257
-2.59911e-05
0.000164727
-0.000139741
-0.000159073
0.000131975
0.000208272
-0.00017608
-0.000269921
0.000264965
4.95602e-06
2.64041e-05
0.000174721
-0.000201125
2.87841e-05
-0.000257265
0.000228481
0.000276137
-0.000262669
0.000115108
0.000212073
0.000215499
-0.000191702
-0.000175813
0.000202217
1.36741e-05
0.000282476
-0.000296871
0.000269844
2.22091e-05
0.000270493
-0.000282557
1.22674e-05
3.86402e-06
0.000267513
-1.78698e-05
0.000289484
0.000330671
1.01766e-05
0.000213594
-0.000257558
0.000316701
-0.000316037
-6.63603e-06
-0.000272693
2.79954e-05
0.000199385
0.000187993
3.98722e-05
-0.000227865
-5.52138e-05
0.000219361
-0.000164715
0.000153609
-0.000270285
0.000116676
0.000279441
-0.000329701
5.02602e-05
-6.38122e-05
0.000249201
-0.000166909
0.000315897
-0.000148989
-0.000313602
-9.93259e-06
-0.000214929
0.000175029
2.78601e-05
-0.000278349
0.000276221
-1.88441e-05
-0.000248613
1.73222e-05
-0.000303044
0.00028601
0.000344989
-0.000158593
-0.000186397
-1.69554e-05
-0.000241178
0.000257771
-0.000266617
-3.30401e-06
0.000224001
2.45841e-05
-0.000248585
0.000284509
-0.000128381
0.000140197
0.000138853
-0.000279049
-0.000198696
-1.06348e-05
0.000258169
-0.000115551
0.000225598
-0.000242523
-6.38122e-05
0.000251805
-0.000208503
0.000249481
-5.60002e-07
-0.000248921
0.000255109
-0.000237441
-0.000325807
0.000302258
-3.08841e-05
0.000203169
-0.000172285
0.000291562
1.26544e-06
-0.000293829
7.62711e-05
0.000131154
-0.000207243
4.60416e-05
-0.000198566
-0.000287754
-4.49723e-06
0.000292488
-1.63071e-06
-0.000286616
0.000146973
-0.000273925
0.000126952
-0.000262819
0.000220041
-0.000293623
0.000265848
0.000279441
-0.000313119
-1.24141e-05
0.000325631
0.000112176
0.000163434
-2.13636e-05
0.000352127
0.000140141
0.000139833
-0.000279973
0.000245029
-0.000250349
5.32002e-06
-0.000210953
0.000180069
0.000279133
-5.43202e-06
0.000351081
-3.27794e-05
-0.000300499
0.000302906
-1.66001e-06
0.000270985
-0.000270985
-0.000364638
0.000225797
0.000138755
-0.000212421
2.02599e-05
1.69395e-05
0.000275157
-0.000278461
3.30401e-06
-5.18621e-06
0.000171744
-0.000165667
-0.000197345
0.000254801
-5.74562e-05
-0.000206366
4.80236e-06
-0.0002409
0.000159953
8.12248e-05
-0.000180264
0.0002614
-8.11383e-05
0.000256285
-0.000287113
3.08281e-05
-0.000249229
5.18842e-05
-2.36112e-05
0.00027627
-0.000252677
-0.000253547
1.35801e-06
0.000252189
0.000231281
-7.28003e-06
-0.000294262
7.58807e-06
0.000286771
-0.000266085
0.000266085
-0.000284558
-5.51189e-05
-0.000170724
-0.000193992
-0.000170214
0.00021505
-4.55119e-05
-1.232e-05
-0.000239177
0.000251497
3.10801e-06
0.000210113
-0.000213221
-0.000183554
-2.24762e-05
0.000206504
7.58345e-06
0.000294236
-0.000301803
-0.000236153
-1.34401e-05
0.000249593
1.50361e-05
-0.000251189
-0.000241025
0.000256061
-0.000301088
0.000308681
0.000256117
7.16803e-06
-0.000177602
-3.20557e-05
0.000197748
-0.000145237
-0.000134765
-0.000244329
0.000240549
0.000298523
-3.03794e-07
-0.000298218
-0.000298307
4.87959e-07
0.000297763
1.91997e-05
0.000181217
0.000163773
7.70044e-05
-0.000257269
-0.000159242
0.000310908
0.000250721
-0.000108677
-0.000235145
-1.83681e-05
0.000253513
-0.000204628
-0.000126765
0.000331449
-6.10402e-06
-0.000229125
0.000235229
-2.19512e-05
-0.000185499
-0.000284616
-8.45733e-05
6.26757e-06
-0.000300375
-0.000212576
0.000327727
-0.000115292
0.000281597
0.000288205
-5.16322e-05
0.000271993
-1.57081e-05
-0.000187557
-1.39391e-05
0.000200308
0.000297017
2.45339e-07
-0.00029644
-0.000270307
-3.20369e-05
-0.000218821
0.000247605
-2.52361e-05
0.000310705
-0.000285463
0.000188739
7.18389e-06
-0.000193131
-3.49882e-05
0.000221052
-0.000301339
0.000276122
0.000293153
5.80927e-06
-0.000298539
0.000157445
0.00011886
-0.000276305
0.000289193
5.86749e-06
-0.000296601
-0.000247653
0.000118462
0.000129396
-0.000282022
0.000295476
0.000302513
-0.000156857
-0.000145657
0.000207005
-0.000203897
-0.000232009
-0.000121156
-0.000155009
-4.04932e-06
-0.000294208
0.000298285
-1.0136e-05
0.000276249
0.000291517
-2.09319e-05
-0.000272422
-0.000263052
2.91819e-05
0.000233421
0.000271433
-0.000267569
0.000249621
2.95121e-05
0.000314741
-9.73754e-06
-0.000305596
4.96969e-05
0.000156274
-0.000206064
-0.000100092
0.000195988
-9.69326e-05
0.000252617
-2.91201e-05
-0.000223497
3.55419e-07
0.00029166
-0.00017425
-3.08967e-05
0.000200371
-2.04728e-06
0.00028969
-9.33244e-05
0.000246933
-0.000255417
-5.26402e-06
0.000121184
0.000181329
1.34121e-05
0.000241557
-0.000254969
0.000236097
1.34961e-05
-0.000249593
0.000249509
-0.000242929
0.000256425
6.40926e-05
-0.00020335
0.000139345
-0.000215507
0.000115523
-0.00021408
0.000297485
1.4171e-06
-0.000298492
0.000253849
2.22881e-05
0.000268493
-0.000216441
-5.20522e-05
0.000225518
-0.000246849
2.13305e-05
0.000257909
1.40841e-05
5.83439e-05
0.000297223
0.000267186
-3.89594e-05
-0.000228226
0.000175872
1.274e-05
0.000240297
-0.000253037
0.00019518
-0.000115491
-7.96136e-05
-0.000205921
2.11075e-05
-1.35454e-06
-0.000299044
0.000299009
0.000216287
-0.000164492
-5.12075e-05
0.000344588
-4.14319e-05
0.000275969
-0.000135829
2.31561e-05
0.000238337
-0.000261493
-0.000231141
0.000254297
-2.6671e-05
-0.000229761
0.000256454
0.000157301
-0.00016127
-7.76583e-05
-0.000169205
-0.000261723
4.14346e-05
0.000220288
-3.17521e-05
-0.00022997
7.12097e-06
0.000261717
-3.25193e-05
-0.000229198
1.65545e-05
0.000126343
-0.000194398
0.000308785
-0.000171397
0.000262319
-3.57923e-05
-0.000226526
-0.000319556
0.000177458
-0.000100811
-0.000228453
-6.90203e-05
-2.89358e-07
-0.000301335
0.000300874
-2.76514e-05
0.000181923
-0.000153371
0.000307145
6.8528e-06
0.000250097
-0.000248249
-1.84801e-06
-0.000176868
6.16654e-05
0.000260221
-3.07234e-05
-0.000229544
0.000197345
-0.000250769
5.34242e-05
0.000254206
-0.000231206
-2.29991e-05
-0.000252337
0.000240017
0.00014412
0.000100998
-0.000101864
-0.000170269
0.000132496
-0.000261885
-0.000290249
0.0002422
4.80485e-05
0.00021681
3.12474e-05
-0.000248056
-0.000237291
-1.00056e-05
0.00024361
0.0003262
-2.31182e-05
0.000263996
-3.42721e-05
-0.000229724
0.000141076
-0.000231315
8.96529e-05
3.63259e-05
-0.000265637
0.000229311
-0.000253905
0.000121296
0.000249817
-5.24722e-05
0.000294673
-0.000154253
-0.000140421
0.000122248
-0.000289157
1.53441e-05
0.000237665
-0.000253009
-0.000262031
3.54705e-05
0.00022656
-2.7476e-06
-3.77917e-05
-0.000224239
0.000248821
-0.000272423
-0.000264649
3.44737e-05
0.000230175
0.000193257
0.000101416
-0.000149941
0.000290137
-0.000181068
-3.73094e-05
0.000209376
-1.81721e-05
0.000263201
-0.000293485
0.000310902
0.000117046
0.000103394
0.000261325
-0.000261325
0.000311209
-2.15822e-05
-0.000288999
5.32002e-07
0.000248949
0.000254857
1.65761e-05
0.000309183
-0.000276092
-3.31803e-05
-2.26336e-05
0.000266577
-0.000243943
3.00077e-05
-0.000260519
0.000230511
-0.000252139
0.000229506
0.000331392
3.11501e-05
-0.000260598
0.000229447
0.000276809
-3.16961e-05
-7.27551e-06
-0.000295319
0.000302494
0.000270491
3.8779e-05
0.000230245
-0.000266617
3.63721e-05
0.0002019
-0.000202494
-0.000258301
0.000238533
1.97681e-05
0.000169762
-0.000257245
8.74835e-05
-0.00020647
0.000163241
-0.000249145
8.59043e-05
-0.000266169
0.000224813
4.13562e-05
0.000253073
-2.78797e-05
-0.000225194
0.000173963
4.29525e-05
-0.000234837
-2.29601e-05
0.000257797
-0.000236377
-2.28761e-05
0.000259253
-1.94265e-05
0.000255969
-0.000236542
-0.000259345
0.000239919
-3.25667e-05
0.000173853
-0.000235929
-2.24001e-05
0.000258329
-0.00025484
0.000229192
2.56481e-05
2.94001e-06
0.000211289
-0.000214229
-0.000267031
3.79849e-05
0.000229046
0.000270677
4.48002e-06
4.22955e-05
0.00016209
-0.000202805
-3.31192e-05
0.000249929
-2.08622e-05
0.000218597
9.73004e-05
0.0002482
-0.000216951
0.000276362
-0.000278284
0.000275862
-0.000280381
-1.84997e-05
0.000258601
-0.000240101
-0.000261644
0.000243145
3.023e-05
-0.000201423
-3.01067e-05
-0.000204584
0.000235638
0.000314914
-0.000287786
-2.7474e-05
0.000261297
-3.11081e-05
-0.000230189
3.28739e-05
-0.000262362
0.000229488
-0.000229853
0.000259645
-2.97921e-05
0.000324599
-1.75955e-05
0.000147086
-0.000211132
0.000256929
-0.000109956
-0.000286583
0.00028694
0.000241977
-6.41202e-06
-0.000235565
0.000228537
-0.000175366
-3.71991e-05
0.000216347
2.87754e-05
-0.000205523
-0.000239989
0.000260317
-2.03281e-05
-0.000103846
0.000191042
-8.5847e-05
3.0266e-05
-0.000210815
0.000240169
-0.000263424
2.32552e-05
-0.000115584
0.000258861
-0.000243993
0.000265721
-2.17281e-05
-0.000238953
0.000232541
0.000258626
-0.000245105
-1.35213e-05
0.000264349
-2.46681e-05
-0.000246317
-0.000272766
-1.04608e-05
0.000298639
-5.33163e-05
-6.61982e-06
0.00028879
-0.000281698
-0.000166032
0.000208579
0.000230559
1.81707e-05
-0.000247781
0.000327797
-0.000328445
0.000260955
-0.000245018
-1.59377e-05
-0.000301088
-6.94588e-07
0.000305054
9.70284e-06
3.84579e-05
0.000179011
-0.000215481
0.000211686
-3.44393e-05
-0.000178673
0.000278054
-0.000255789
-2.22648e-05
-0.000215038
3.11365e-05
3.15421e-05
-0.000261891
0.000230348
0.00028531
-0.000292781
2.44721e-05
-0.000259617
-0.000257965
1.87881e-05
0.000266057
-1.64361e-05
0.000151173
-0.000267625
0.000116452
0.00029887
-4.40827e-06
0.000238617
-7.53763e-05
2.12521e-05
0.000177045
-0.000198297
-0.000183877
0.000205129
-0.000236275
0.000257219
-2.09441e-05
0.000261462
-3.31689e-05
-0.000228293
-0.000197009
-5.21362e-05
0.000251581
-1.48401e-06
9.22078e-06
-0.000263926
0.000255718
-0.000344801
0.000238049
0.000107146
0.000266371
-0.000236811
-2.95597e-05
0.000307297
-0.000315157
7.80119e-06
-2.57041e-05
-0.000229097
0.000254801
0.000261493
-7.64403e-06
1.02617e-05
-0.000208143
0.000262411
-3.19033e-05
-0.000230508
-6.90483e-05
-0.000260653
-0.000194685
0.000248025
-5.33402e-05
-0.000266533
0.000249985
1.65481e-05
-0.00031791
1.66693e-05
-1.72075e-05
0.000296794
-0.000279004
-0.000276221
1.65481e-05
0.000249537
-0.00016676
6.44583e-05
0.000273645
1.48273e-05
-0.000288414
-0.000316094
0.000307823
8.30037e-06
3.46641e-05
-0.000263649
0.000228985
-1.75843e-05
0.00028134
-0.000315295
1.64955e-05
-0.000176541
-7.42283e-05
-0.000231493
0.000203515
-2.16721e-05
-0.000216469
0.000238141
-0.000315578
0.000296989
1.89985e-05
-0.000132884
0.000273528
-0.00014142
-8.45836e-06
3.31521e-05
-0.000263453
0.000230301
-0.000211037
2.50648e-05
0.000183841
0.000221528
0.000280255
-0.000280669
2.4083e-07
-0.000236993
-2.20921e-05
0.000224813
-0.000202721
0.000139273
0.000143753
-0.000278517
0.000202172
-5.72141e-05
0.000309288
-1.07457e-05
0.000209175
-0.000268854
2.92853e-05
0.00022306
-0.000252345
-0.000322575
0.000138948
0.000295943
2.91204e-05
1.9405e-05
-0.000224355
-2.77845e-05
-0.000136045
-0.000133125
-0.00032602
0.000113501
0.000242873
2.56201e-05
0.000218765
-0.000224869
1.09815e-05
-0.000287845
0.000277065
-0.00024309
0.000270412
-2.72249e-05
0.000281375
-0.000281792
0.00028749
-7.70102e-05
-8.73896e-06
0.00029004
-1.87881e-05
0.000247101
-0.000228313
0.000281231
-0.000290176
-5.69579e-06
-0.000284002
0.000290329
0.000281786
-0.000269639
0.000284481
0.000226314
2.67597e-05
-0.000303821
0.000318899
-8.38795e-06
0.000250943
-2.09919e-05
0.000225301
2.43017e-05
-0.000268913
0.000246057
-2.05381e-05
-0.000259401
3.02849e-05
0.000229116
0.000178305
7.64963e-05
1.04093e-05
0.000283464
-0.000291494
-0.000238141
-2.88401e-05
0.000266981
2.51441e-05
-0.000263285
0.000284117
-0.000162317
-0.000232177
0.000261129
-2.89521e-05
-0.000234697
0.000260709
-2.60121e-05
1.41845e-06
0.000278651
2.45001e-05
-0.000259197
2.38001e-05
-0.000255977
0.000274263
-0.000242852
-3.13418e-05
0.000317851
-1.00475e-05
-0.000302279
-1.03903e-06
-0.000255753
1.1816e-05
0.000243937
-1.43281e-05
-0.000261185
0.000228065
-0.000245337
0.000270145
-2.48081e-05
-0.000263229
1.49801e-05
-2.36087e-05
0.000286051
-0.000262636
2.13641e-05
-0.000266701
-0.000241674
-2.13388e-05
3.26008e-05
-9.0432e-05
0.000260194
0.000281801
-0.000286347
5.05122e-05
0.000237693
0.000282644
-0.00028082
-0.000243181
-2.39401e-05
0.000267121
-0.000260894
7.34723e-06
-0.000295283
1.94376e-05
0.000276132
-0.000268717
2.55361e-05
-8.4577e-06
0.000292147
-0.000268326
0.000243549
2.47773e-05
-0.000232513
0.000210841
0.000281896
-0.000289604
-6.16002e-07
0.000260289
-0.000259673
-0.000301914
-1.60983e-05
-0.000264573
2.35481e-05
-0.00024417
-2.41555e-05
-3.43281e-05
-0.000298102
0.000294078
0.000286674
-0.000158327
0.000297574
-0.000292445
2.30152e-05
4.89022e-06
0.000261689
-0.000254949
-7.12914e-06
0.000307925
-2.02448e-05
-0.000287384
5.94388e-05
-0.000246765
-2.19521e-05
-0.000356033
0.000242456
0.000282043
-0.000280415
2.33801e-05
-0.000189777
-1.59927e-05
-0.000306382
2.56677e-05
0.000280792
-0.000197245
0.000311114
-0.000113942
0.000259841
-0.000238533
-2.13081e-05
-0.000291641
2.94001e-05
0.000222097
-0.000251497
-0.000163876
0.000137847
-0.000165339
0.000251441
-0.000238029
-1.34121e-05
-0.000263873
3.40201e-05
-2.23161e-05
-0.000269837
0.000251469
0.000230427
3.12901e-05
-4.63925e-05
0.000202195
0.000232619
-0.000260499
-1.73976e-05
-3.29956e-06
0.000245251
-0.000242901
-0.000293368
-0.000237049
0.000265189
-2.81401e-05
0.000230096
3.22225e-05
-0.000268521
2.55921e-05
-0.000239905
-2.86161e-05
0.000228954
-0.000260706
-0.000282093
4.73202e-05
-0.000242005
0.000293193
-0.000281469
-0.000288064
1.33344e-05
0.000275529
-5.30639e-06
0.00021687
0.000228551
-0.00026107
0.000296885
-0.0001309
-0.000165985
0.000240706
-0.000262198
0.0002689
-0.000226213
-1.76681e-05
-0.000165131
0.00030919
-0.000142926
2.49649e-05
0.000222662
-0.000247627
-0.000192243
0.000192534
-0.000285024
0.000282884
7.09537e-06
-0.000291735
-0.000302485
0.000146693
0.000155793
0.000259995
-0.000239359
-2.06361e-05
-0.000215741
0.000193649
0.000261325
3.34517e-07
0.000257293
0.000232526
2.16799e-05
-0.0002946
-6.21813e-05
1.04291e-05
0.000234364
-0.000251246
1.77751e-05
-0.000230917
-2.37161e-05
0.000254633
-0.000242295
0.000263191
-2.08965e-05
8.33263e-05
0.000134732
2.01561e-05
-0.000305748
0.000285253
0.000256565
-1.80041e-05
-0.000238561
0.000243881
-0.000254017
1.0136e-05
-0.000226745
0.000207957
0.000223131
-0.000258923
-0.000244693
4.76842e-05
1.59242e-05
-0.000137494
-0.000218167
1.57921e-05
0.000245701
0.000281718
0.000293431
0.000306229
1.72937e-06
0.000249817
-0.000220417
2.51749e-05
0.000225009
-0.000250184
-0.000243178
0.000268865
-2.56873e-05
2.28201e-05
-0.000262725
-0.000114119
0.000295909
9.11093e-06
2.08181e-05
0.000261675
-0.000235103
-2.65721e-05
1.32605e-05
-0.000303885
0.000290436
0.00032154
-3.09058e-05
-0.000290617
0.000249733
1.63241e-05
0.000306143
-0.000292995
-0.000231013
-0.000112583
9.63204e-06
0.000250657
-4.9129e-05
-0.00020239
0.000251519
2.20333e-05
0.000246832
-0.000241686
-2.29629e-05
0.000260737
-2.24001e-05
0.000289146
-0.000268023
2.63369e-05
2.68241e-05
-0.000257965
0.000210617
-0.000207677
2.58161e-05
-0.000262865
0.000282414
0.000121744
-0.000256173
0.000134429
1.8082e-05
3.86903e-05
0.000161109
-0.000206304
-0.000239485
-2.85377e-05
4.01607e-05
0.000169847
-0.000203614
-0.000246691
0.000271066
-2.43747e-05
0.000209866
-0.000248826
1.98857e-05
1.73836e-05
-0.000174783
-3.09257e-05
0.00022668
-0.000257414
-2.88401e-05
0.000244245
-0.000215405
-2.16161e-05
0.000242985
-0.000221369
0.000201657
-0.000250786
-0.000273605
-0.000232905
-2.55081e-05
0.000258413
0.000241234
2.98318e-05
-0.000210437
-2.41482e-05
0.000237346
-2.18821e-05
-0.000224967
-0.000239345
6.28042e-05
0.000259004
-0.000229718
4.75106e-05
-0.000249901
-3.43393e-05
0.000257694
-0.000223354
0.000205675
-0.000240014
0.000261689
-1.1956e-05
-6.06763e-05
-0.000229573
-0.000226991
-1.73606e-05
0.000242046
0.000247109
5.3175e-05
0.000212448
-0.000265623
-0.000261088
0.000177353
-0.000231757
5.44042e-05
6.47489e-05
0.000136853
0.000259457
-0.000240915
-2.47224e-05
-0.000265385
0.000227165
3.82201e-05
-2.87813e-05
-0.000222158
0.00025094
-0.000283904
0.000264161
0.000234501
3.61761e-05
2.18821e-05
0.000234087
-0.000307217
0.000151089
0.000156129
0.000174737
-5.30673e-05
0.000254045
-0.000115192
2.56901e-05
0.000217446
-0.000243136
-0.00028627
0.000286694
9.25339e-06
0.000257377
-0.000245953
0.000208937
3.70161e-05
0.000254832
0.000243767
-1.95169e-05
-0.000246815
-2.02161e-05
-0.000263019
2.0724e-05
-0.000269215
2.24001e-05
2.79601e-05
0.000220024
-0.000247984
0.000242481
-0.000274597
1.32721e-05
0.000249374
-1.40055e-05
1.24889e-05
-0.000251112
-0.00032857
0.000124103
-0.000233135
-2.62109e-05
-0.000252113
0.000252113
0.000259782
-0.000144217
-1.87066e-05
-0.000277717
0.000296577
0.000276398
0.000258749
-0.000135913
0.000224113
2.39205e-05
0.00023468
7.87025e-05
-0.000343778
3.74176e-05
0.000258962
1.76364e-05
-0.000248843
-3.00917e-05
0.000207453
-3.01001e-05
0.000259701
2.95429e-05
0.000218353
-0.000247896
-3.05014e-05
-4.09782e-05
-0.000217818
0.000258797
-0.000233423
-2.14173e-05
3.72659e-05
-0.00020617
0.000165545
-3.30877e-05
0.000221671
-0.000255943
-0.000282227
-8.37018e-06
0.000290604
-0.000202062
0.000159543
0.000166349
8.16763e-05
1.28735e-05
-0.000294922
0.000235075
2.59446e-05
-0.000261019
-0.000196637
-1.29515e-06
0.000232743
-0.000264287
3.15449e-05
-8.42803e-06
-0.000217029
0.000225457
-0.00016981
0.00020624
-0.000249985
-3.46025e-05
0.000256274
0.000218076
-0.000252679
-0.000246289
0.000272245
-2.59561e-05
0.000253547
2.78321e-05
-0.000232062
-2.95821e-05
-0.000298275
0.000316573
-1.81726e-05
2.33808e-05
0.000212462
-0.000250254
-0.000267233
2.09441e-05
-2.12801e-05
-0.000245953
-3.61481e-05
0.00024861
-0.000290226
-1.36999e-05
0.00022082
-0.000256968
0.000247782
-0.000251624
1.82333e-06
2.80002e-06
0.000181413
-0.000184213
0.000255294
0.000234529
2.67681e-05
-2.62361e-05
0.000245001
-0.000218765
3.36001e-05
0.000216609
-0.000250209
0.000244861
2.73841e-05
0.000306545
-0.000143949
-0.000162597
1.53983e-05
0.000239946
-0.000255431
0.000271013
-0.000113568
0.000225569
-0.000256677
-0.000240997
0.00010486
-0.000265469
7.16803e-06
-0.000241635
-2.75801e-05
-0.000241361
-2.48081e-05
0.000310294
-2.75225e-05
-7.67483e-05
0.000243097
-1.1452e-05
-0.000215601
0.000224281
-8.68003e-06
0.000255193
-7.68883e-05
3.42157e-05
-0.000199756
0.000156873
-0.000265245
-1.40001e-07
-4.14962e-05
4.05446e-05
0.000168511
-0.000207869
0.000191926
-0.000167854
0.000257041
-7.05603e-06
0.000251151
-0.000218277
-1.82155e-05
-2.1128e-05
0.000277751
-9.53644e-05
-0.000180744
-1.42801e-05
-0.000191913
0.000206193
0.000258665
-1.53553e-05
-0.00024331
1.98101e-05
0.000238855
-0.00028003
-8.03475e-06
3.73454e-05
-0.000190394
0.000156306
1.36921e-05
0.000247997
-0.000155324
0.000193641
-1.95189e-05
0.000248711
3.38497e-05
0.000185777
-0.000217514
-4.17202e-06
-2.49389e-05
0.000265108
-0.000231955
-3.14693e-05
0.00029668
-0.000281647
-1.53267e-05
1.63717e-05
-0.000237659
0.000221288
-0.00010514
0.000226885
1.92578e-05
-0.00030562
0.000286393
2.52001e-05
-2.79441e-05
2.69165e-05
0.000309286
-0.000289927
0.000238891
1.97345e-05
2.15601e-06
0.000231617
-0.000233773
-0.000311472
2.56544e-05
0.000284618
-0.000162177
-0.000144145
0.000209178
-0.000250156
-0.000169326
0.000241924
1.90317e-05
0.000256945
-4.13534e-05
0.000250531
0.000214498
-0.000255851
0.000317722
-0.000319653
-1.06568e-05
0.000287339
-0.000276946
-0.000302943
1.96663e-05
0.000282959
4.20842e-05
-0.000286413
-3.99232e-05
0.000252483
2.62921e-05
-2.2161e-05
0.000307291
-0.000285222
2.43321e-05
3.87885e-05
0.00015101
-0.000190761
0.000249294
-0.000219751
2.83277e-05
-0.000261633
4.36802e-06
-1.99674e-05
0.000306483
-0.000286536
-0.000250987
-0.000266673
3.07441e-05
0.000252141
-0.000236741
-1.54001e-05
1.2264e-05
0.000239877
-0.000274681
-1.27503e-05
0.000255697
-6.78805e-06
0.000316464
-1.19749e-05
0.000298248
-0.00028617
-4.7513e-05
0.000247437
-0.000235621
0.000257601
-1.99361e-05
0.000130746
8.61038e-05
-0.000217517
0.000222255
3.03493e-05
0.000226759
-0.000258662
3.71393e-05
0.000271805
-0.000288688
1.69511e-05
0.000251273
-0.000239093
-1.31321e-05
0.000252225
-2.91201e-05
-0.000257265
2.56481e-05
0.000231617
-0.000228005
-2.92601e-05
0.000259765
-0.000233571
-2.61941e-05
0.000258721
-0.000265961
2.44109e-06
0.000289784
1.22606e-06
-0.000291991
0.000249446
-0.000232869
-1.85921e-05
0.0003088
-0.000300832
-8.0234e-06
0.000248873
-0.000101258
-0.000266897
2.56761e-05
0.000241221
-3.48881e-05
-0.000232009
-0.000266393
2.51161e-05
0.000241277
-1.23364e-05
-0.000267452
0.000279691
-3.45241e-05
-0.000231869
-0.000261663
1.8487e-05
-0.000266281
2.43881e-05
0.000241893
-0.00028421
-2.16192e-05
-0.000306318
2.76537e-05
0.000278647
-3.34041e-05
-0.000232877
-0.000178589
-0.000258133
2.94001e-05
0.000228733
0.000309506
-0.000309357
-0.000195805
0.000209049
-3.29281e-05
-0.000225205
0.000197747
-0.000279543
8.17926e-05
0.000283897
2.22889e-05
-0.000301953
1.76961e-05
0.000285484
-0.000280693
-4.56088e-06
-0.000257125
0.000231617
2.55081e-05
0.000170347
2.79572e-05
-0.00019843
-0.000266953
2.81681e-05
0.000238785
-0.000227361
-2.97641e-05
-3.67361e-05
-0.000230217
0.000273643
0.00029748
1.91552e-05
-0.000275908
-3.17117e-05
0.000307881
-0.000258679
-1.11127e-05
0.000297913
-0.000287258
1.49089e-05
-0.000301018
0.000286185
-0.000230609
-0.000307218
0.000287217
0.000263005
-2.55617e-05
-0.000280784
1.36081e-05
0.000157828
0.000230592
1.88317e-05
-0.000249843
-0.000206053
0.000156881
0.000236738
1.31517e-05
-0.00024989
-0.00025833
2.66093e-05
0.000231721
-1.09228e-05
0.000247661
5.74002e-06
0.000246877
-3.19817e-05
-0.000226348
0.000299888
-0.000285998
-1.38501e-05
0.000228024
-0.000226666
0.000289573
0.000237685
1.98521e-05
-0.000257537
-1.24236e-05
0.000250108
0.000246636
1.50389e-05
-0.000305667
1.53694e-05
0.00024448
2.18905e-05
3.14686e-05
-0.000198011
-0.0002874
-1.77101e-05
-0.000182869
0.000295177
-0.000157296
0.000189056
-3.42151e-05
3.07487e-05
-0.000194664
0.000165384
-0.000159407
0.000259149
-0.000239236
-1.99137e-05
0.000260914
-0.000273945
-0.000241953
0.000229693
-2.18794e-05
0.000301274
-0.000279363
0.000307258
-0.000292232
0.000242117
1.77241e-05
-0.000224975
0.00024443
-1.94545e-05
1.61001e-05
-0.000241075
-7.00003e-06
0.000260989
-0.000297269
4.92928e-06
0.000292082
-0.000174497
0.000160217
-1.74105e-05
-6.26279e-06
-0.000291385
-1.67264e-05
-0.000284652
4.28402e-06
-0.000300751
0.000135251
-0.000257443
2.37813e-05
0.000233707
0.000238197
1.32441e-05
-3.08258e-05
-0.000226628
-3.29037e-05
-0.000290319
2.0917e-05
-0.000226933
0.000205676
0.000254969
-0.000233465
-2.15041e-05
-0.000197446
0.000218054
-0.000185111
-7.27306e-06
0.000203414
0.000134099
0.000139489
4.01411e-06
0.000270394
0.000279924
-0.000305542
3.41664e-06
0.00024198
-1.98415e-05
0.000298621
-0.000278793
-0.000303009
0.00028783
1.48306e-05
-0.000258301
0.000230077
2.82241e-05
-2.64041e-05
-0.000231897
0.000299124
-0.000299767
0.000267822
-1.99919e-05
0.000304485
-0.000284413
0.000286095
-5.94718e-07
-0.000256873
0.000256873
-0.000268248
0.000295868
-0.000141245
-6.42719e-05
-6.96191e-06
0.000294869
-0.000287752
-0.000298174
0.000291178
0.000291954
-0.000279046
0.00028947
-0.000305302
1.48216e-05
3.46531e-05
-0.000240028
0.00021829
2.27066e-05
-1.46229e-05
-0.000248696
0.000227961
-1.44256e-05
0.000297927
-0.000283983
0.000263481
-1.96001e-05
0.000254224
-0.000235464
-1.87601e-05
-3.10108e-05
-0.000273846
0.000304841
1.43115e-05
-0.000297274
0.000282952
-1.45881e-05
0.000233465
-0.000218877
0.000205045
-0.000294825
0.000282888
-1.93221e-05
0.000305212
-0.000286269
0.00025102
-2.68004e-05
0.00029729
-0.000269545
-0.000294845
0.000268569
1.07156e-05
0.000244749
-0.000255465
0.000305181
-0.000311925
6.85113e-06
1.8155e-05
1.49207e-05
0.00028583
-0.000300353
6.32039e-06
0.000281782
2.27774e-06
-0.000317806
-0.000290072
0.000306066
-0.000242481
0.000243657
8.45603e-06
-0.0002264
0.000242772
-0.000294554
0.000274949
0.000284908
-0.000150476
-8.2017e-05
0.000294825
1.4426e-05
3.09242e-05
-0.00020745
0.000170851
-0.000275227
0.000257293
-0.000219535
0.00024982
0.000243411
1.92865e-05
-0.000262697
0.000236019
2.31309e-05
-0.000300708
0.00028305
0.000312451
-1.79371e-05
0.000237945
-0.000257069
1.91241e-05
-0.000222494
0.000247459
0.000294238
1.80347e-05
-0.000177366
-1.45258e-05
0.000298237
-0.000283531
-0.000143
-0.000266415
0.000159993
0.000106423
-0.000309218
0.000295518
1.36905e-05
-0.000258699
0.000241826
1.68729e-05
-0.000152566
0.0001547
-0.000306492
0.000288766
1.78975e-05
-0.000214273
0.00018038
-9.69084e-06
0.000253101
2.04292e-05
1.75846e-05
-0.000304595
0.000286986
-0.000300638
-7.1615e-06
0.000307977
-0.000249229
0.000220109
-0.000201153
-8.52603e-05
-0.000271635
0.000252769
0.000303958
-0.000286491
-0.000192191
1.84101e-05
1.50495e-05
0.000284384
-0.000299647
-8.80603e-05
0.000239233
-0.000303915
1.93427e-05
0.000284399
-0.000208268
-2.56852e-06
-0.000297855
-0.000174889
2.05297e-05
0.000301902
-0.000287452
-1.445e-05
-0.000168017
-0.000299284
-0.000174087
-2.26091e-05
0.000243528
0.000289391
1.7158e-05
0.000252869
5.78639e-05
-0.000286064
-0.000247213
-0.000270168
-2.35272e-05
-0.000274603
0.000300321
-0.000263059
0.000282173
-0.000158041
-4.11977e-05
0.000206964
0.000197569
1.56521e-05
-0.000213221
-1.24134e-05
-0.000286039
0.000298387
1.83597e-05
1.85095e-05
-0.000305678
0.000286844
0.000253345
-1.71361e-05
-0.000236209
1.90214e-05
-0.000305121
0.000286119
2.03561e-05
0.000232989
0.000216385
-2.46121e-05
-0.000191773
1.58983e-05
0.000282238
-0.000298146
-0.000250256
0.000117983
-0.00030359
1.86007e-05
0.000285009
0.000221139
-5.09229e-05
-0.000296606
1.17962e-05
0.000286178
0.000255837
-2.19801e-05
-0.000233857
-0.000302942
0.000106229
0.000234529
1.70521e-05
-0.000251581
0.00028008
1.66391e-05
0.000304468
-0.000285437
1.77775e-05
-0.000299867
0.000233512
1.84916e-05
-0.000252004
-1.90231e-05
-1.42758e-05
0.000298394
-0.000284298
-0.000280291
0.000299918
-0.000278101
0.00029151
-0.000304441
1.20345e-05
0.000249741
-1.62291e-05
1.14881e-05
0.000250041
-1.55121e-05
0.000298535
-0.000282785
3.95922e-05
-0.000238535