/*--------------------------------*- C++ -*----------------------------------*\
  =========                 |
  \\      /  F ield         | OpenFOAM: The Open Source CFD Toolbox
   \\    /   O peration     | Website:  https://openfoam.org
    \\  /    A nd           | Version:  12
     \\/     M anipulation  |
\*---------------------------------------------------------------------------*/
FoamFile
{
    format      ascii;
    class       volScalarField;
    location    "18";
    object      T;
}
// * * * * * * * * * * * * * * * * * * * * * * * * * * * * * * * * * * * * * //

dimensions      [0 0 0 1 0 0 0];

internalField   nonuniform List<scalar> 
9801
(
0.822418
0.823755
0.825957
0.828366
0.830356
0.832038
0.833437
0.834931
0.836082
0.835418
0.835236
0.835871
0.836914
0.839326
0.843881
0.84704
0.848947
0.850429
0.851755
0.852972
0.852253
0.851096
0.851534
0.852551
0.854112
0.857788
0.862128
0.864788
0.866538
0.867919
0.869248
0.87003
0.868572
0.868223
0.868958
0.870131
0.872029
0.876366
0.880692
0.883285
0.884958
0.886341
0.887719
0.887591
0.885406
0.885342
0.886378
0.887808
0.890765
0.896518
0.900908
0.903318
0.904946
0.906393
0.907299
0.904499
0.902532
0.903129
0.904606
0.906999
0.912967
0.919319
0.922976
0.925149
0.926678
0.928103
0.926277
0.921725
0.921324
0.922933
0.925326
0.931628
0.940432
0.945934
0.948878
0.950913
0.952768
0.951526
0.944617
0.942166
0.944125
0.947438
0.956198
0.968398
0.975944
0.980185
0.983131
0.985963
0.982798
0.972881
0.968897
0.972283
0.979194
0.998773
1.02199
1.04012
1.04743
1.14478
1.56479
0.824457
0.827932
0.830764
0.833028
0.834784
0.836184
0.83742
0.838373
0.837879
0.83741
0.837885
0.838779
0.840154
0.844085
0.848535
0.85133
0.853046
0.854236
0.855223
0.855411
0.854126
0.853766
0.854425
0.855502
0.857292
0.861809
0.866461
0.869092
0.870723
0.871929
0.872955
0.872745
0.871049
0.870768
0.871529
0.872697
0.874763
0.879824
0.884729
0.887464
0.889097
0.890382
0.891428
0.89031
0.887986
0.887916
0.888901
0.890297
0.893414
0.899872
0.90474
0.907247
0.908856
0.910206
0.910593
0.907424
0.905345
0.90586
0.907275
0.909488
0.915491
0.92257
0.926656
0.928951
0.930574
0.931919
0.92999
0.925386
0.924701
0.926225
0.928309
0.933589
0.942684
0.948931
0.952422
0.954856
0.956927
0.956071
0.949384
0.946586
0.948216
0.951181
0.957833
0.969806
0.978586
0.983745
0.987488
0.990948
0.989946
0.981545
0.97683
0.979407
0.985772
0.998732
1.01718
1.03414
1.04256
1.14652
1.58907
0.828017
0.834528
0.837094
0.838467
0.839664
0.84105
0.842083
0.84119
0.840188
0.840617
0.841568
0.842872
0.845809
0.851044
0.854566
0.85625
0.857413
0.858358
0.858951
0.858235
0.857525
0.857891
0.858872
0.860099
0.862408
0.867916
0.872332
0.874408
0.875695
0.876691
0.877386
0.87644
0.874847
0.874997
0.875966
0.877291
0.879851
0.885761
0.890773
0.893197
0.894627
0.895741
0.896366
0.894583
0.892491
0.892772
0.893968
0.895544
0.899012
0.905939
0.910867
0.913229
0.914731
0.915941
0.915965
0.912798
0.910952
0.911625
0.913212
0.91534
0.921025
0.928977
0.933529
0.935874
0.937563
0.938926
0.937322
0.932925
0.931932
0.933373
0.935523
0.939775
0.949454
0.957146
0.960933
0.963399
0.965578
0.965632
0.960049
0.956446
0.957623
0.960835
0.965803
0.977865
0.989862
0.996418
1.00056
1.00439
1.00499
0.998895
0.994338
0.995671
1.0018
1.01132
1.02912
1.04837
1.05907
1.17123
1.61793
0.834042
0.841727
0.844786
0.846265
0.847372
0.848229
0.847558
0.845869
0.845829
0.846736
0.84802
0.849754
0.853395
0.858303
0.861163
0.862568
0.863617
0.864626
0.865247
0.864509
0.864237
0.865043
0.866232
0.867525
0.869882
0.875075
0.879091
0.881065
0.882429
0.883638
0.884638
0.883712
0.882225
0.882671
0.883906
0.885374
0.88816
0.893976
0.898459
0.900638
0.902073
0.903363
0.904272
0.902731
0.901064
0.90171
0.903193
0.904866
0.908107
0.914605
0.919357
0.921712
0.92331
0.924731
0.925321
0.922883
0.921214
0.922035
0.923848
0.925958
0.930546
0.938572
0.943709
0.946282
0.94818
0.949947
0.949513
0.945353
0.943789
0.945333
0.947789
0.951118
0.959515
0.968641
0.97339
0.976347
0.979066
0.980898
0.977149
0.971662
0.97147
0.974911
0.979237
0.987994
1.00152
1.01092
1.01646
1.02104
1.02413
1.02088
1.01579
1.01458
1.01902
1.02687
1.03972
1.05726
1.06695
1.19825
1.64557
0.840619
0.848541
0.85207
0.853584
0.85468
0.855439
0.855138
0.854038
0.854031
0.854944
0.856133
0.857474
0.860479
0.865484
0.868878
0.870678
0.872012
0.873273
0.874321
0.873774
0.872959
0.873468
0.874558
0.875821
0.87765
0.882548
0.887551
0.890107
0.89168
0.893063
0.894331
0.893738
0.891969
0.892104
0.893242
0.894636
0.89663
0.901874
0.907343
0.910169
0.911906
0.913491
0.914867
0.913965
0.912031
0.912206
0.913413
0.914906
0.91701
0.922666
0.928803
0.932124
0.934208
0.936026
0.937494
0.936031
0.933443
0.933469
0.934994
0.936968
0.939991
0.947443
0.954428
0.95809
0.960542
0.962797
0.964024
0.960643
0.957093
0.957448
0.959779
0.962732
0.968909
0.979506
0.986498
0.990205
0.993187
0.996007
0.995026
0.988528
0.985092
0.987099
0.991454
0.997464
1.00964
1.02242
1.03044
1.03579
1.04044
1.04065
1.03559
1.03196
1.03186
1.03688
1.04587
1.06023
1.06851
1.21411
1.66302
0.848289
0.855241
0.859861
0.861776
0.863023
0.864025
0.86433
0.863738
0.863422
0.864
0.864946
0.866015
0.8678
0.872875
0.877556
0.87983
0.881289
0.88263
0.883903
0.883905
0.882565
0.882449
0.883331
0.884569
0.88611
0.89029
0.896534
0.899905
0.901621
0.903009
0.904221
0.904105
0.902265
0.901754
0.902623
0.903931
0.905504
0.909599
0.916428
0.920429
0.922493
0.924159
0.925703
0.925675
0.923299
0.922219
0.922895
0.924299
0.926081
0.930528
0.938189
0.942961
0.945549
0.947547
0.949376
0.949327
0.945808
0.943762
0.944562
0.946469
0.948974
0.955196
0.964021
0.969089
0.971941
0.974318
0.976472
0.975247
0.969926
0.967803
0.969365
0.972155
0.976383
0.986245
0.996124
1.00144
1.00463
1.00754
1.00868
1.00349
0.997947
0.996993
1.00004
1.0045
1.01229
1.02523
1.03582
1.0426
1.04812
1.05218
1.05079
1.0457
1.04222
1.04247
1.04618
1.05712
1.06659
1.22425
1.67296
0.855958
0.860574
0.866248
0.869427
0.871146
0.872397
0.873351
0.873335
0.872382
0.87223
0.872771
0.873722
0.874997
0.878635
0.884796
0.888372
0.8902
0.891575
0.892815
0.893354
0.891877
0.890828
0.891324
0.892463
0.893885
0.896832
0.903266
0.907955
0.910291
0.911898
0.913265
0.914
0.91241
0.910626
0.91073
0.911832
0.913287
0.916056
0.922881
0.928518
0.931398
0.933324
0.934951
0.935901
0.933743
0.930846
0.930546
0.931857
0.933695
0.937114
0.944801
0.95106
0.954233
0.956359
0.958227
0.95942
0.956502
0.952408
0.951817
0.953557
0.955924
0.960669
0.970096
0.977023
0.980295
0.982568
0.984754
0.98557
0.980708
0.976228
0.976034
0.978432
0.981549
0.988248
0.999904
1.00792
1.01224
1.01529
1.01788
1.01628
1.00961
1.00553
1.00554
1.00868
1.01345
1.023
1.03549
1.04492
1.05141
1.05659
1.05892
1.05659
1.05168
1.04722
1.04645
1.05161
1.06151
1.22966
1.67909
0.863137
0.865778
0.87059
0.875119
0.87765
0.879299
0.880576
0.881548
0.880981
0.879491
0.879458
0.880305
0.881506
0.883869
0.889739
0.894685
0.897201
0.898811
0.900098
0.901077
0.900189
0.898208
0.898157
0.899132
0.900449
0.902676
0.908258
0.913642
0.91668
0.918659
0.920199
0.921477
0.921042
0.918137
0.917196
0.918053
0.919481
0.921682
0.927593
0.934112
0.937629
0.939758
0.941428
0.942865
0.942156
0.938046
0.936463
0.937438
0.93921
0.94206
0.949092
0.956552
0.960234
0.962313
0.964046
0.965561
0.964327
0.959401
0.957559
0.958644
0.960811
0.964038
0.972311
0.981267
0.985827
0.988247
0.990285
0.991848
0.989221
0.98325
0.981142
0.982425
0.985091
0.988825
0.998329
1.00984
1.0163
1.02018
1.02336
1.02518
1.02046
1.01312
1.01048
1.01165
1.01509
1.02033
1.0307
1.04209
1.05017
1.05604
1.06088
1.06221
1.06017
1.05453
1.04817
1.0477
1.05173
1.23191
1.6825
0.869178
0.871501
0.875508
0.879434
0.881913
0.883785
0.885275
0.886611
0.886896
0.885182
0.884955
0.88582
0.88704
0.88926
0.894325
0.89893
0.90162
0.903418
0.9048
0.90599
0.905938
0.903779
0.903292
0.904189
0.905503
0.907594
0.91268
0.917926
0.920932
0.922926
0.924503
0.925877
0.926459
0.923823
0.922076
0.922691
0.924105
0.926127
0.931302
0.938159
0.941858
0.943822
0.945339
0.946724
0.947134
0.943843
0.941514
0.942
0.943555
0.945606
0.950998
0.959222
0.963964
0.966232
0.967908
0.969474
0.969712
0.965587
0.962367
0.962599
0.964397
0.966603
0.971752
0.98189
0.988743
0.991989
0.99413
0.996037
0.995973
0.990462
0.985837
0.985263
0.987228
0.990004
0.994984
1.00677
1.01733
1.02283
1.02609
1.02883
1.02916
1.02316
1.01705
1.01536
1.01666
1.02004
1.0259
1.03635
1.04639
1.05358
1.05904
1.06346
1.06407
1.06181
1.05494
1.04744
1.04228
1.23045
1.68454
0.873752
0.876853
0.880599
0.883987
0.886095
0.887748
0.889117
0.890405
0.890503
0.888815
0.888833
0.88988
0.89121
0.893752
0.898896
0.903026
0.905419
0.907062
0.90838
0.90958
0.909972
0.907971
0.907111
0.907896
0.909193
0.91106
0.915941
0.921593
0.92456
0.926377
0.927845
0.929187
0.930115
0.928146
0.92604
0.926369
0.927686
0.929357
0.933283
0.940366
0.944873
0.946997
0.948503
0.949903
0.950943
0.948813
0.945834
0.945579
0.946758
0.948439
0.951534
0.959456
0.96611
0.96922
0.971051
0.972694
0.973989
0.971589
0.967029
0.96582
0.96675
0.968681
0.971362
0.979289
0.98927
0.994437
0.997223
0.999229
1.00086
0.99845
0.991773
0.988808
0.989206
0.991307
0.994052
1.00011
1.0128
1.02233
1.0271
1.03041
1.0335
1.03364
1.02698
1.0208
1.01923
1.02075
1.02432
1.03075
1.04105
1.04981
1.05613
1.06146
1.06505
1.06497
1.06143
1.05203
1.03946
1.22466
1.68583
0.876573
0.880689
0.885369
0.888133
0.889883
0.891271
0.892482
0.893601
0.893282
0.891721
0.89181
0.892888
0.894224
0.896508
0.901896
0.906516
0.908692
0.910203
0.911467
0.912643
0.913239
0.911422
0.910241
0.910777
0.911971
0.913478
0.917394
0.923878
0.927641
0.929393
0.930792
0.932099
0.933207
0.931861
0.929433
0.929246
0.930236
0.931638
0.934009
0.940622
0.946796
0.949726
0.951456
0.952997
0.95438
0.953633
0.949884
0.948308
0.948794
0.950252
0.952177
0.957848
0.966697
0.971552
0.973922
0.975589
0.977106
0.976972
0.972145
0.968639
0.968578
0.970118
0.972152
0.97594
0.986311
0.995359
0.999476
1.00192
1.004
1.00531
1.00086
0.994163
0.991794
0.992097
0.994012
0.997054
1.00486
1.0181
1.0274
1.03226
1.03548
1.03782
1.03667
1.03027
1.02447
1.02287
1.02444
1.02824
1.03546
1.04567
1.05343
1.05891
1.06356
1.06543
1.06478
1.05766
1.04332
1.21801
1.68717
0.878321
0.882559
0.8883
0.891749
0.893031
0.894179
0.895261
0.896219
0.895914
0.894552
0.894499
0.895404
0.896638
0.898213
0.902844
0.908727
0.911591
0.912938
0.914161
0.915322
0.916125
0.914674
0.912962
0.913076
0.914038
0.91533
0.917731
0.924328
0.92983
0.932218
0.933558
0.934858
0.93609
0.9357
0.932766
0.931452
0.931828
0.93306
0.934715
0.939599
0.947653
0.952194
0.954354
0.95579
0.957134
0.957688
0.95425
0.950802
0.950505
0.951616
0.953254
0.95608
0.964599
0.972601
0.976181
0.97816
0.97978
0.98121
0.978896
0.973187
0.970984
0.971267
0.972904
0.975152
0.980921
0.992788
1.00066
1.00434
1.00702
1.0093
1.00946
1.00238
0.995677
0.994124
0.995222
0.997599
1.00093
1.00939
1.02241
1.03096
1.03541
1.03859
1.04105
1.04004
1.03371
1.02778
1.02611
1.02776
1.03178
1.03979
1.04962
1.0564
1.06132
1.06482
1.06576
1.06208
1.05053
1.21293
1.68858
0.880125
0.883112
0.889093
0.894092
0.896129
0.897089
0.897933
0.898715
0.898612
0.897305
0.896907
0.897499
0.898502
0.899716
0.902438
0.909174
0.913829
0.915818
0.916929
0.918038
0.919017
0.918235
0.915777
0.915075
0.91565
0.916808
0.918354
0.923316
0.930799
0.934653
0.936476
0.937675
0.938815
0.939249
0.936373
0.933595
0.933505
0.934513
0.935962
0.938581
0.946407
0.95353
0.956643
0.958321
0.959667
0.960849
0.959476
0.954713
0.952677
0.953005
0.954345
0.956121
0.96095
0.971199
0.977753
0.980667
0.98253
0.984136
0.984728
0.9799
0.974284
0.972842
0.973612
0.975521
0.978132
0.986249
0.99884
1.0057
1.00871
1.01078
1.01268
1.01216
1.00495
0.999132
0.99792
0.998628
1.00073
1.00435
1.01362
1.02623
1.03438
1.03887
1.04212
1.04394
1.04265
1.03665
1.03069
1.02884
1.03044
1.03453
1.04304
1.05242
1.0586
1.06307
1.06518
1.06442
1.05772
1.21107
1.69018
0.881963
0.884129
0.888227
0.894872
0.89807
0.899582
0.900627
0.901634
0.902081
0.900644
0.899253
0.899317
0.900069
0.901163
0.902656
0.907988
0.91484
0.918074
0.919752
0.920941
0.921959
0.922015
0.919233
0.917207
0.917428
0.918392
0.919677
0.922319
0.929927
0.935991
0.938542
0.940053
0.941298
0.942321
0.941029
0.937049
0.9357
0.936308
0.937563
0.939077
0.943698
0.952798
0.95804
0.960359
0.961886
0.963287
0.964132
0.960462
0.95577
0.954761
0.955532
0.957121
0.959401
0.966902
0.977404
0.982599
0.985098
0.986891
0.988481
0.987626
0.980883
0.976156
0.975614
0.976631
0.978497
0.981454
0.990986
1.00319
1.00901
1.0121
1.0149
1.01723
1.0157
1.00737
1.00151
1.00052
1.00185
1.00436
1.0081
1.01742
1.02929
1.03689
1.0413
1.04453
1.04629
1.04507
1.03895
1.03276
1.03075
1.0322
1.03615
1.04484
1.05387
1.05984
1.06379
1.06485
1.0631
1.21358
1.69225
0.88363
0.885547
0.887514
0.89412
0.899325
0.901672
0.90312
0.9043
0.90531
0.904829
0.902195
0.90123
0.901733
0.902696
0.903872
0.90689
0.914383
0.91941
0.921597
0.923053
0.924277
0.925225
0.923755
0.920286
0.9195
0.920249
0.921371
0.922776
0.927723
0.93582
0.939933
0.941893
0.943327
0.944641
0.945305
0.94211
0.938627
0.938255
0.939052
0.940385
0.942443
0.949732
0.958261
0.962032
0.963967
0.965459
0.966862
0.966456
0.961019
0.957362
0.957282
0.95854
0.960215
0.963271
0.973054
0.982559
0.986503
0.988641
0.990442
0.99224
0.990374
0.982945
0.978875
0.978261
0.978973
0.980775
0.984274
0.995402
1.00797
1.01384
1.01645
1.01848
1.02021
1.01839
1.01077
1.00543
1.00432
1.00515
1.00733
1.0113
1.02112
1.03233
1.03935
1.04366
1.04677
1.04827
1.047
1.0406
1.03403
1.03187
1.03308
1.03672
1.04558
1.05468
1.06066
1.06336
1.06653
1.22008
1.69494
0.885298
0.887129
0.888247
0.892855
0.899687
0.90322
0.905032
0.906404
0.907595
0.908391
0.90635
0.9037
0.903593
0.904406
0.905512
0.907185
0.913094
0.919934
0.923079
0.924762
0.926101
0.927294
0.927718
0.924642
0.922085
0.922155
0.923024
0.924218
0.926543
0.934007
0.940711
0.943593
0.945251
0.946627
0.947903
0.947397
0.942817
0.940414
0.940734
0.941842
0.943246
0.946593
0.95588
0.9629
0.965814
0.967537
0.969054
0.970429
0.968183
0.962168
0.959849
0.960071
0.96115
0.962914
0.967326
0.978605
0.986992
0.990585
0.993009
0.994961
0.996253
0.992444
0.98433
0.980684
0.98077
0.982064
0.98395
0.987397
0.998716
1.01072
1.01603
1.019
1.02195
1.02426
1.02239
1.0141
1.00806
1.00669
1.00788
1.01037
1.01475
1.02484
1.03526
1.04175
1.04591
1.04883
1.0502
1.04849
1.04153
1.03474
1.03237
1.03312
1.03643
1.04577
1.05526
1.06064
1.06754
1.22909
1.69821
0.88726
0.888961
0.889908
0.892672
0.899493
0.904455
0.906718
0.908208
0.909417
0.910437
0.910179
0.906943
0.905687
0.906312
0.907397
0.908699
0.912183
0.919598
0.924245
0.926359
0.927785
0.929021
0.930146
0.929287
0.925486
0.924134
0.924706
0.925799
0.927172
0.931586
0.940148
0.944988
0.94714
0.948578
0.949899
0.950981
0.94861
0.944001
0.942795
0.943304
0.944433
0.946031
0.951516
0.961629
0.967203
0.96971
0.971422
0.972937
0.973736
0.969315
0.963324
0.961603
0.962149
0.963546
0.965535
0.971604
0.983998
0.991596
0.994569
0.996164
0.99778
0.999205
0.995042
0.987277
0.984113
0.983701
0.984267
0.98602
0.989946
1.00205
1.01471
1.02064
1.02337
1.02559
1.02695
1.0246
1.01701
1.01121
1.00969
1.01065
1.01304
1.01788
1.02852
1.03841
1.04438
1.04805
1.05049
1.05162
1.04972
1.04251
1.03527
1.03219
1.03235
1.03559
1.04602
1.05537
1.06608
1.23926
1.70171
0.889438
0.891031
0.891967
0.893834
0.899373
0.905405
0.908263
0.909812
0.910936
0.911893
0.912578
0.91067
0.908277
0.908451
0.909483
0.910698
0.912444
0.918273
0.924877
0.927879
0.929463
0.930752
0.931996
0.932797
0.929993
0.92677
0.926537
0.92739
0.928561
0.930491
0.937556
0.945462
0.948877
0.95066
0.952075
0.953476
0.953849
0.949307
0.945228
0.944616
0.945301
0.946715
0.949064
0.957275
0.967156
0.971583
0.973784
0.975438
0.976787
0.976397
0.97019
0.964923
0.96411
0.965046
0.966444
0.968438
0.97531
0.987619
0.994288
0.997376
0.999946
1.00203
1.00291
0.99746
0.989104
0.985703
0.985934
0.987418
0.989407
0.99305
1.00464
1.0169
1.02252
1.0253
1.02769
1.02955
1.02775
1.02022
1.01406
1.01222
1.01306
1.01545
1.02066
1.03156
1.04099
1.04651
1.04991
1.05213
1.05315
1.05098
1.04355
1.03542
1.03126
1.03065
1.03464
1.04605
1.06106
1.24901
1.70467
0.891774
0.893356
0.894345
0.895695
0.899306
0.905739
0.909455
0.911116
0.912222
0.913311
0.914454
0.914388
0.911748
0.910896
0.911557
0.912559
0.913707
0.916627
0.924142
0.929115
0.931269
0.932729
0.934044
0.9353
0.934736
0.930539
0.928569
0.928765
0.929704
0.931038
0.934663
0.943987
0.950324
0.95286
0.954399
0.955689
0.956775
0.954837
0.948869
0.9463
0.946752
0.948058
0.949656
0.953042
0.963076
0.971582
0.97493
0.976674
0.978145
0.979842
0.979164
0.972346
0.967661
0.966828
0.967137
0.968368
0.970578
0.978629
0.991722
0.998728
1.00142
1.00291
1.00462
1.00582
1.0007
0.99268
0.989549
0.989196
0.989717
0.991414
0.995327
1.0072
1.01949
1.02554
1.02848
1.03068
1.03191
1.03037
1.02348
1.01683
1.01433
1.01474
1.01681
1.02251
1.0341
1.04356
1.04881
1.05172
1.0535
1.05434
1.05215
1.04446
1.03491
1.02926
1.02847
1.03366
1.0521
1.2562
1.7064
0.894512
0.89582
0.896803
0.897966
0.899385
0.904411
0.909896
0.912427
0.913956
0.915334
0.916603
0.917707
0.91622
0.9137
0.913333
0.913766
0.914645
0.916102
0.921782
0.929667
0.93329
0.935005
0.93628
0.937476
0.938225
0.935126
0.930854
0.930179
0.931094
0.932405
0.934133
0.940314
0.949844
0.954401
0.956358
0.957521
0.958453
0.958943
0.955274
0.950248
0.949233
0.950009
0.951079
0.952456
0.956505
0.967238
0.974843
0.97809
0.980365
0.982141
0.983594
0.981681
0.974016
0.969265
0.968654
0.969486
0.970795
0.972955
0.981226
0.994077
1.00058
1.00376
1.00654
1.00863
1.00931
1.00342
0.994768
0.990996
0.991019
0.992428
0.994522
0.998281
1.00934
1.02125
1.02734
1.03045
1.0328
1.03437
1.03297
1.02558
1.01831
1.01549
1.01593
1.01812
1.02423
1.03614
1.04562
1.05051
1.05301
1.05454
1.05514
1.0529
1.04493
1.03386
1.02687
1.02537
1.03893
1.25852
1.70673
0.897838
0.897969
0.898409
0.898824
0.899559
0.901965
0.908985
0.914114
0.916507
0.917992
0.919275
0.920558
0.920728
0.91711
0.914506
0.914316
0.915227
0.916515
0.919602
0.928274
0.934691
0.937117
0.938417
0.939406
0.940337
0.939632
0.93472
0.932278
0.932899
0.934276
0.935604
0.937647
0.945437
0.953848
0.95719
0.958975
0.960362
0.961817
0.962223
0.95735
0.952588
0.951533
0.951836
0.952738
0.954345
0.959586
0.971437
0.979028
0.981967
0.98358
0.98514
0.986781
0.984586
0.976439
0.971898
0.970962
0.971192
0.972563
0.974925
0.984068
0.997888
1.00506
1.00776
1.00927
1.01065
1.01154
1.00662
0.998388
0.994717
0.994285
0.994865
0.996461
1.0004
1.01203
1.02384
1.02967
1.03245
1.03441
1.03577
1.03486
1.02806
1.0205
1.01727
1.01719
1.01902
1.02519
1.03756
1.04713
1.05154
1.05359
1.05505
1.05555
1.05354
1.04501
1.03228
1.02378
1.02424
1.25392
1.70539
0.901774
0.899846
0.8988
0.898781
0.899621
0.901077
0.906736
0.915196
0.919222
0.921018
0.922208
0.92338
0.9239
0.920408
0.916009
0.915584
0.91655
0.91785
0.919582
0.925088
0.933971
0.938277
0.940078
0.941163
0.942116
0.942922
0.940703
0.936313
0.935249
0.935794
0.936622
0.937773
0.940518
0.9496
0.957383
0.960724
0.96282
0.964321
0.965737
0.965146
0.958931
0.954141
0.953183
0.953721
0.95477
0.956493
0.962872
0.975235
0.982087
0.985042
0.987294
0.989076
0.990202
0.986435
0.97743
0.972927
0.972811
0.974173
0.976025
0.978211
0.98637
0.999473
1.0062
1.00915
1.0117
1.01383
1.01472
1.00989
1.00129
0.996636
0.995983
0.997185
0.99926
1.00325
1.01441
1.02526
1.03071
1.03372
1.03613
1.03804
1.03739
1.03033
1.02217
1.01826
1.01794
1.01957
1.02556
1.03811
1.04757
1.05167
1.05377
1.05558
1.05618
1.05403
1.04408
1.02809
1.0175
1.24326
1.70313
0.905885
0.901745
0.898879
0.899081
0.900112
0.901569
0.905373
0.914874
0.921075
0.923368
0.924868
0.925872
0.92586
0.923541
0.919021
0.917608
0.91845
0.919829
0.921282
0.923198
0.929981
0.937887
0.941235
0.942921
0.944172
0.94547
0.94623
0.942703
0.938247
0.937094
0.937415
0.938195
0.939478
0.943316
0.953809
0.961382
0.964484
0.966352
0.967784
0.96923
0.967806
0.960391
0.95578
0.95502
0.955543
0.956815
0.958916
0.96678
0.979604
0.986173
0.988536
0.989507
0.990431
0.991784
0.988712
0.980696
0.976973
0.976582
0.976837
0.977848
0.979929
0.988117
1.00191
1.00973
1.01266
1.01428
1.01585
1.01712
1.01362
1.00526
1.00021
0.99905
0.999312
1.00075
1.00481
1.01655
1.02787
1.03347
1.03608
1.038
1.03995
1.04009
1.03315
1.02383
1.01899
1.01824
1.01962
1.02535
1.03819
1.04781
1.05191
1.0542
1.05613
1.05648
1.05371
1.03941
1.02059
1.22977
1.70151
0.908788
0.904221
0.900317
0.900596
0.901609
0.903226
0.906437
0.913702
0.921342
0.924458
0.925627
0.925619
0.925893
0.926556
0.924626
0.92158
0.921218
0.921957
0.922761
0.923701
0.925872
0.933945
0.941503
0.94475
0.94658
0.947958
0.949335
0.949316
0.944085
0.939578
0.938524
0.93879
0.939728
0.94123
0.94674
0.958499
0.96532
0.968059
0.969966
0.971546
0.972462
0.969146
0.960994
0.957091
0.957283
0.958771
0.960421
0.962236
0.969467
0.981332
0.98717
0.989721
0.991984
0.9939
0.995262
0.992133
0.984039
0.979193
0.978242
0.979032
0.980354
0.982242
0.989191
1.0026
1.01047
1.01393
1.01679
1.01902
1.02026
1.01714
1.00847
1.00206
1.00008
1.00069
1.00253
1.00688
1.01858
1.02949
1.03483
1.03801
1.04077
1.04263
1.04212
1.03454
1.02456
1.01927
1.01831
1.01967
1.02529
1.03797
1.04754
1.05177
1.05459
1.05639
1.05655
1.0497
1.03353
1.21958
1.70119
0.908911
0.906605
0.903778
0.903803
0.905137
0.907311
0.909236
0.911603
0.917747
0.922795
0.924712
0.925849
0.927362
0.929034
0.930288
0.928118
0.924626
0.92355
0.923585
0.924117
0.925238
0.928727
0.938657
0.945826
0.948758
0.950486
0.951711
0.952818
0.951086
0.944118
0.940018
0.939797
0.940809
0.942112
0.94422
0.951591
0.963246
0.968945
0.971068
0.971828
0.972678
0.974024
0.971399
0.964124
0.961068
0.960994
0.961292
0.962088
0.963867
0.970914
0.983421
0.990625
0.993415
0.995022
0.996808
0.998578
0.996519
0.988272
0.98268
0.981063
0.980587
0.981266
0.983133
0.990499
1.00513
1.0143
1.01767
1.01947
1.02098
1.02223
1.02016
1.01185
1.00474
1.00229
1.00231
1.00371
1.00803
1.02052
1.03254
1.03812
1.04043
1.04219
1.04362
1.04326
1.03646
1.02602
1.01995
1.01862
1.01961
1.0248
1.03729
1.04694
1.05159
1.05466
1.0564
1.05422
1.04645
1.21653
1.70233
0.909406
0.910425
0.909147
0.908378
0.909168
0.910439
0.910812
0.910689
0.912061
0.918164
0.924375
0.927862
0.930296
0.932256
0.933803
0.934298
0.930151
0.925571
0.924174
0.924504
0.925566
0.927156
0.933214
0.944428
0.950168
0.952318
0.953803
0.954954
0.955398
0.951565
0.94448
0.942061
0.942818
0.944498
0.946069
0.947772
0.954705
0.965204
0.970068
0.972321
0.974373
0.976067
0.977318
0.974467
0.967046
0.963068
0.962462
0.96296
0.963681
0.965331
0.971935
0.984669
0.992198
0.995887
0.998878
1.00086
1.00215
0.999532
0.99037
0.983498
0.981686
0.982353
0.98401
0.986205
0.992921
1.0066
1.01519
1.0187
1.02098
1.02302
1.02447
1.02273
1.01464
1.00692
1.0038
1.00393
1.00559
1.00966
1.02143
1.0328
1.03806
1.04094
1.04339
1.04528
1.04536
1.03848
1.0272
1.02036
1.01874
1.0195
1.02402
1.03583
1.04552
1.05078
1.05443
1.05521
1.05509
1.22085
1.70496
0.911563
0.914092
0.915543
0.914648
0.912722
0.911457
0.909858
0.909354
0.91021
0.913434
0.922505
0.930148
0.933863
0.935638
0.936886
0.937825
0.935371
0.928398
0.92521
0.925588
0.926711
0.928187
0.930849
0.938887
0.9487
0.952664
0.954219
0.954782
0.955674
0.956823
0.953707
0.947863
0.946142
0.946531
0.94693
0.947609
0.949134
0.955888
0.967154
0.973323
0.975963
0.977772
0.979689
0.981194
0.978506
0.970378
0.965559
0.964031
0.963742
0.964828
0.96665
0.973899
0.988285
0.996839
0.999856
1.00126
1.00198
1.00308
1.0018
0.993919
0.987258
0.985416
0.985518
0.98616
0.987786
0.994147
1.00813
1.01754
1.02118
1.02284
1.02433
1.02615
1.02593
1.01845
1.00975
1.00591
1.00519
1.00599
1.00923
1.02079
1.03361
1.0404
1.0435
1.04536
1.04662
1.04679
1.04075
1.02883
1.02084
1.01864
1.01887
1.02211
1.0336
1.04408
1.05084
1.0534
1.06014
1.23052
1.70841
0.915348
0.918345
0.919726
0.920334
0.916866
0.911209
0.9084
0.908446
0.909486
0.911418
0.91923
0.93081
0.935809
0.937869
0.939293
0.939962
0.938913
0.93329
0.928118
0.92768
0.928913
0.930869
0.932304
0.93425
0.941713
0.950299
0.953955
0.955763
0.957446
0.959112
0.960327
0.957467
0.951288
0.948357
0.947735
0.947748
0.948299
0.949943
0.957284
0.969438
0.976167
0.979725
0.982211
0.983846
0.984754
0.980706
0.971018
0.96571
0.965176
0.966256
0.968214
0.970386
0.976595
0.989478
0.997281
1.0003
1.00231
1.0042
1.00574
1.00497
0.997961
0.990468
0.987155
0.986933
0.988111
0.99001
0.995598
1.00851
1.01763
1.02177
1.02486
1.02722
1.02878
1.02828
1.02087
1.01121
1.00627
1.00549
1.00671
1.00993
1.02087
1.03409
1.04122
1.04462
1.0469
1.04816
1.04811
1.04186
1.02954
1.02072
1.01758
1.01739
1.02017
1.03179
1.04375
1.04977
1.06201
1.24211
1.71208
0.919457
0.922129
0.923079
0.923565
0.919713
0.911649
0.908846
0.909292
0.910425
0.912426
0.917551
0.928657
0.936267
0.938807
0.939462
0.938695
0.938869
0.938781
0.934897
0.931821
0.931782
0.932532
0.932954
0.93357
0.935245
0.94276
0.95229
0.957104
0.959728
0.961864
0.963594
0.96462
0.960995
0.953473
0.949314
0.947885
0.9482
0.949482
0.951578
0.960628
0.974469
0.981046
0.983299
0.984251
0.984507
0.985109
0.982148
0.974019
0.969678
0.969192
0.969564
0.97027
0.971774
0.977287
0.99026
0.999451
1.00304
1.00462
1.00596
1.00778
1.00853
1.003
0.994431
0.990171
0.989166
0.989333
0.990652
0.995902
1.00981
1.02072
1.02508
1.02701
1.02848
1.03021
1.03073
1.02401
1.01352
1.00814
1.00697
1.00761
1.01008
1.02031
1.03432
1.04258
1.04615
1.0476
1.04806
1.04794
1.04284
1.03096
1.0212
1.01687
1.0157
1.01827
1.03106
1.04226
1.05988
1.25386
1.71537
0.921667
0.924863
0.926035
0.925998
0.921318
0.913903
0.910977
0.911511
0.913411
0.91671
0.919873
0.92441
0.931911
0.936355
0.937911
0.938989
0.94038
0.942168
0.942965
0.93938
0.935225
0.933693
0.933186
0.933104
0.933921
0.936041
0.944845
0.955794
0.961428
0.964502
0.966349
0.967696
0.967968
0.961833
0.952616
0.94931
0.949585
0.950942
0.953095
0.955957
0.964436
0.97626
0.98168
0.983745
0.985315
0.986875
0.988045
0.985703
0.97806
0.972623
0.97093
0.971319
0.972356
0.973718
0.977563
0.989398
0.999307
1.00379
1.00713
1.00967
1.01136
1.01181
1.00668
0.99714
0.991138
0.989691
0.990607
0.99238
0.997694
1.01085
1.0211
1.02562
1.02858
1.03092
1.03252
1.03254
1.02554
1.0146
1.00864
1.00737
1.00822
1.0103
1.01951
1.03381
1.04227
1.0457
1.04732
1.04824
1.04846
1.04402
1.03254
1.02163
1.01563
1.01351
1.01654
1.02927
1.05253
1.26452
1.7176
0.922338
0.925676
0.925545
0.923473
0.921819
0.918943
0.916353
0.916445
0.918095
0.919765
0.920958
0.921681
0.923721
0.930658
0.937074
0.94084
0.94379
0.945864
0.947316
0.947329
0.942175
0.936287
0.933533
0.933086
0.934085
0.935499
0.938564
0.949918
0.961431
0.965733
0.96743
0.968025
0.967935
0.967286
0.961934
0.955026
0.953019
0.953596
0.954702
0.95592
0.957843
0.965224
0.976991
0.983508
0.986116
0.987428
0.989035
0.990877
0.990504
0.983756
0.976951
0.974157
0.972871
0.972534
0.973735
0.977598
0.990527
1.00306
1.00821
1.01032
1.01173
1.01295
1.01376
1.0098
0.999912
0.993364
0.991831
0.99231
0.993652
0.998118
1.0115
1.02342
1.02863
1.03064
1.03149
1.03273
1.03364
1.02844
1.01805
1.01148
1.00921
1.00921
1.01068
1.01851
1.03293
1.04274
1.04675
1.04781
1.04824
1.04847
1.04535
1.03478
1.02193
1.01317
1.01063
1.01357
1.04038
1.27148
1.71846
0.918667
0.922739
0.922921
0.923087
0.924156
0.92513
0.924781
0.922758
0.92163
0.921038
0.919986
0.919415
0.920256
0.923551
0.933026
0.941962
0.946513
0.949054
0.950455
0.951469
0.949686
0.941199
0.935134
0.934458
0.935428
0.937216
0.939612
0.943749
0.954292
0.963179
0.966324
0.967599
0.968591
0.969619
0.969762
0.96522
0.958868
0.956291
0.95631
0.957273
0.95783
0.958843
0.964122
0.975887
0.983687
0.987651
0.991249
0.993616
0.995234
0.994754
0.987274
0.977822
0.973638
0.973408
0.97448
0.976249
0.980403
0.992772
1.00452
1.00935
1.0115
1.01315
1.01446
1.01497
1.01186
1.00279
0.995908
0.993687
0.994137
0.99581
0.999323
1.01079
1.02243
1.02778
1.03076
1.03365
1.03573
1.03686
1.03266
1.02188
1.01339
1.00981
1.00905
1.00966
1.0164
1.03162
1.04226
1.04624
1.04764
1.04855
1.04879
1.0462
1.03627
1.02134
1.01067
1.0053
1.02328
1.27143
1.71744
0.911153
0.918682
0.922331
0.925229
0.928024
0.930274
0.931456
0.930273
0.926069
0.921693
0.918761
0.918204
0.919041
0.920447
0.925991
0.939229
0.947585
0.950376
0.951908
0.953038
0.952949
0.948855
0.941462
0.938058
0.938247
0.939518
0.940912
0.942453
0.945721
0.95492
0.96333
0.967083
0.968798
0.969994
0.972129
0.973598
0.971144
0.964615
0.960733
0.958878
0.956976
0.95666
0.957915
0.963425
0.977804
0.988623
0.992632
0.994505
0.995959
0.996928
0.99621
0.989124
0.980277
0.976829
0.976843
0.977949
0.979313
0.982496
0.994077
1.00575
1.01069
1.01243
1.01291
1.01457
1.01637
1.01597
1.00821
1.00023
0.996785
0.995483
0.995601
0.997977
1.00885
1.02311
1.03108
1.03451
1.03666
1.03838
1.03947
1.03532
1.02342
1.01303
1.0086
1.00815
1.00902
1.01553
1.03134
1.04306
1.04684
1.04753
1.04819
1.04834
1.0465
1.03675
1.01986
1.00655
1.00779
1.26331
1.7145
0.905997
0.912197
0.920628
0.927879
0.932338
0.934532
0.935711
0.936106
0.932147
0.923755
0.919081
0.918709
0.919634
0.921082
0.923843
0.932658
0.945069
0.950405
0.952079
0.952478
0.952608
0.953201
0.951055
0.945065
0.941737
0.941471
0.942427
0.943553
0.943818
0.945324
0.952856
0.962543
0.968092
0.972066
0.975585
0.977706
0.978973
0.976422
0.967407
0.959625
0.957006
0.957203
0.958268
0.960013
0.966291
0.981485
0.991056
0.994309
0.995716
0.996507
0.996965
0.996962
0.992549
0.985086
0.980986
0.980241
0.981213
0.982635
0.98417
0.991517
1.00253
1.00852
1.01238
1.01652
1.0192
1.02089
1.02041
1.01225
1.00169
0.996265
0.99532
0.99624
0.998654
1.00834
1.02354
1.03283
1.03667
1.03837
1.03944
1.03967
1.03594
1.02475
1.01437
1.00978
1.00881
1.00941
1.01554
1.03091
1.04195
1.04515
1.04615
1.04753
1.04818
1.0466
1.03591
1.01503
1.00295
1.24888
1.71137
0.90425
0.907457
0.915062
0.927837
0.934261
0.936907
0.938422
0.939453
0.93796
0.929287
0.921842
0.920724
0.921731
0.924075
0.926898
0.929737
0.936327
0.94546
0.949971
0.951751
0.953002
0.954816
0.956518
0.955918
0.950556
0.946441
0.944974
0.94342
0.941871
0.942224
0.943983
0.952208
0.965749
0.974143
0.97767
0.979667
0.981172
0.982018
0.978541
0.966866
0.95989
0.958954
0.96019