/*--------------------------------*- C++ -*----------------------------------*\
  =========                 |
  \\      /  F ield         | OpenFOAM: The Open Source CFD Toolbox
   \\    /   O peration     | Website:  https://openfoam.org
    \\  /    A nd           | Version:  12
     \\/     M anipulation  |
\*---------------------------------------------------------------------------*/
FoamFile
{
    format      ascii;
    class       volVectorField;
    location    "18";
    object      U;
}
// * * * * * * * * * * * * * * * * * * * * * * * * * * * * * * * * * * * * * //

dimensions      [0 1 -1 0 0 0 0];

internalField   nonuniform List<vector> 
9801
(
(1.22187 -0.115906 0)
(1.21854 -0.108941 0)
(1.22096 -0.106003 0)
(1.22209 -0.10461 0)
(1.22147 -0.103914 0)
(1.21885 -0.102624 0)
(1.21521 -0.101018 0)
(1.21052 -0.0994979 0)
(1.20541 -0.0967915 0)
(1.19686 -0.0915407 0)
(1.18975 -0.0875651 0)
(1.18532 -0.0848385 0)
(1.18161 -0.0822944 0)
(1.18183 -0.078819 0)
(1.18816 -0.0765751 0)
(1.1903 -0.0756477 0)
(1.18828 -0.0742422 0)
(1.18483 -0.0724621 0)
(1.18056 -0.070634 0)
(1.17585 -0.0684842 0)
(1.16666 -0.0640134 0)
(1.15684 -0.0599024 0)
(1.15147 -0.0573451 0)
(1.14725 -0.0552269 0)
(1.14424 -0.0527911 0)
(1.14722 -0.0494231 0)
(1.15262 -0.0469135 0)
(1.1533 -0.0454043 0)
(1.15086 -0.0438619 0)
(1.14725 -0.042242 0)
(1.14272 -0.040752 0)
(1.13675 -0.0386608 0)
(1.1251 -0.0349253 0)
(1.11633 -0.0321037 0)
(1.11105 -0.0296537 0)
(1.1067 -0.0274574 0)
(1.10392 -0.0247674 0)
(1.10843 -0.0214107 0)
(1.11368 -0.0189173 0)
(1.11357 -0.0171722 0)
(1.11093 -0.0156313 0)
(1.10701 -0.0140921 0)
(1.1022 -0.0131161 0)
(1.09314 -0.0108666 0)
(1.07928 -0.00776112 0)
(1.07072 -0.00529245 0)
(1.06524 -0.00311779 0)
(1.06075 -0.0013349 0)
(1.05994 0.00139563 0)
(1.06754 0.0044369 0)
(1.07192 0.00672015 0)
(1.07059 0.00852204 0)
(1.06699 0.0102212 0)
(1.06216 0.011457 0)
(1.05563 0.0127438 0)
(1.03948 0.015234 0)
(1.02502 0.0173633 0)
(1.0177 0.0190468 0)
(1.01239 0.0202806 0)
(1.00891 0.0221725 0)
(1.01473 0.0254093 0)
(1.02272 0.0283066 0)
(1.02316 0.0307057 0)
(1.01978 0.0326482 0)
(1.01507 0.0340689 0)
(1.0092 0.0349392 0)
(0.993828 0.0365747 0)
(0.972173 0.0377593 0)
(0.959879 0.0385335 0)
(0.952939 0.039244 0)
(0.947767 0.0400594 0)
(0.951736 0.0423159 0)
(0.962645 0.0455106 0)
(0.965125 0.0485134 0)
(0.961528 0.0509644 0)
(0.955773 0.0528953 0)
(0.948584 0.0539113 0)
(0.932066 0.0549052 0)
(0.901883 0.0545693 0)
(0.881592 0.0539136 0)
(0.871225 0.0538597 0)
(0.864154 0.0540096 0)
(0.869676 0.0551894 0)
(0.882673 0.0575975 0)
(0.884158 0.0608313 0)
(0.877831 0.0641218 0)
(0.869077 0.0660254 0)
(0.857439 0.0669101 0)
(0.829011 0.0677692 0)
(0.783298 0.0649165 0)
(0.749685 0.0603843 0)
(0.730135 0.0576962 0)
(0.719534 0.0544287 0)
(0.730423 0.047251 0)
(0.735416 0.0370365 0)
(0.710251 0.0239501 0)
(0.6754 0.0109698 0)
(0.0957083 -0.104379 0)
(-1.10647 -0.0821736 0)
(1.22079 -0.116141 0)
(1.22134 -0.110231 0)
(1.22409 -0.111828 0)
(1.22267 -0.111617 0)
(1.22078 -0.109272 0)
(1.21772 -0.106766 0)
(1.21374 -0.104876 0)
(1.20936 -0.102516 0)
(1.20161 -0.0969469 0)
(1.19397 -0.0916063 0)
(1.18866 -0.0879525 0)
(1.18446 -0.0854006 0)
(1.18165 -0.083286 0)
(1.18559 -0.083479 0)
(1.19008 -0.0839822 0)
(1.19011 -0.0814706 0)
(1.18753 -0.0784852 0)
(1.18387 -0.0758819 0)
(1.17967 -0.0733952 0)
(1.17373 -0.0694829 0)
(1.16378 -0.0641371 0)
(1.15581 -0.0604927 0)
(1.15077 -0.0581641 0)
(1.14668 -0.05639 0)
(1.14422 -0.054203 0)
(1.14908 -0.0522931 0)
(1.15408 -0.051372 0)
(1.1537 -0.0494611 0)
(1.15073 -0.0474699 0)
(1.14686 -0.0456187 0)
(1.14244 -0.0436505 0)
(1.13497 -0.0402467 0)
(1.12339 -0.0360911 0)
(1.11542 -0.0330288 0)
(1.11028 -0.0306857 0)
(1.10598 -0.0285995 0)
(1.10371 -0.0259996 0)
(1.10948 -0.0232928 0)
(1.11484 -0.0216538 0)
(1.11406 -0.0201952 0)
(1.11084 -0.0188461 0)
(1.10664 -0.0174582 0)
(1.10187 -0.0158812 0)
(1.09142 -0.0126773 0)
(1.07791 -0.00911438 0)
(1.06972 -0.00650025 0)
(1.06441 -0.00437873 0)
(1.05998 -0.00270138 0)
(1.05963 -0.000246771 0)
(1.06817 0.00223322 0)
(1.07243 0.00406014 0)
(1.07061 0.00566324 0)
(1.0667 0.00721751 0)
(1.0619 0.0084939 0)
(1.05482 0.0103538 0)
(1.03841 0.0132478 0)
(1.02411 0.0155088 0)
(1.01674 0.0171661 0)
(1.01145 0.0183575 0)
(1.00752 0.0197385 0)
(1.01294 0.022892 0)
(1.02212 0.0263204 0)
(1.02306 0.0286922 0)
(1.01957 0.0302508 0)
(1.01471 0.0312902 0)
(1.00875 0.0321849 0)
(0.993534 0.0336839 0)
(0.971676 0.0345358 0)
(0.958797 0.0351112 0)
(0.951565 0.0355423 0)
(0.945821 0.0359814 0)
(0.947203 0.0392019 0)
(0.958699 0.0453131 0)
(0.963094 0.0491746 0)
(0.960257 0.0506122 0)
(0.954617 0.0509632 0)
(0.947578 0.0510675 0)
(0.932148 0.0514293 0)
(0.902184 0.0502314 0)
(0.880783 0.0484361 0)
(0.86913 0.0472989 0)
(0.860893 0.0468826 0)
(0.860626 0.0506023 0)
(0.873403 0.0604778 0)
(0.878989 0.0668608 0)
(0.874677 0.068757 0)
(0.865682 0.0687321 0)
(0.854504 0.068066 0)
(0.829744 0.0650519 0)
(0.785932 0.0577145 0)
(0.748815 0.0489998 0)
(0.723995 0.0430599 0)
(0.707738 0.0411895 0)
(0.704793 0.0481494 0)
(0.706514 0.0504898 0)
(0.687804 0.0406143 0)
(0.665009 0.0333069 0)
(0.093729 -0.0988312 0)
(-1.11181 -0.0868412 0)
(1.22024 -0.111117 0)
(1.22579 -0.10612 0)
(1.22707 -0.106654 0)
(1.22374 -0.106544 0)
(1.22037 -0.105788 0)
(1.21674 -0.104625 0)
(1.21273 -0.103199 0)
(1.20498 -0.0972583 0)
(1.19698 -0.0904492 0)
(1.19165 -0.0861443 0)
(1.18728 -0.0839201 0)
(1.18342 -0.082185 0)
(1.18356 -0.0809418 0)
(1.18976 -0.0807685 0)
(1.19175 -0.0798411 0)
(1.18969 -0.0781391 0)
(1.18675 -0.0753589 0)
(1.18298 -0.0724504 0)
(1.17859 -0.0692698 0)
(1.17073 -0.064235 0)
(1.16166 -0.0593151 0)
(1.15528 -0.0567879 0)
(1.15043 -0.0553823 0)
(1.14616 -0.0542673 0)
(1.14449 -0.0525594 0)
(1.15117 -0.0510134 0)
(1.15519 -0.0492819 0)
(1.15357 -0.0472634 0)
(1.15045 -0.0447854 0)
(1.14655 -0.0423959 0)
(1.14194 -0.0399287 0)
(1.13285 -0.0363188 0)
(1.12159 -0.0323365 0)
(1.11442 -0.0297527 0)
(1.10933 -0.0279844 0)
(1.10486 -0.0264494 0)
(1.10331 -0.0243405 0)
(1.11047 -0.0226577 0)
(1.11531 -0.0210588 0)
(1.11374 -0.0188652 0)
(1.11036 -0.0165847 0)
(1.10615 -0.0144638 0)
(1.10085 -0.0121364 0)
(1.08912 -0.00874517 0)
(1.07602 -0.00561406 0)
(1.0684 -0.00363069 0)
(1.06308 -0.00231947 0)
(1.05839 -0.00119329 0)
(1.05826 0.000783481 0)
(1.06724 0.00326402 0)
(1.07123 0.00575713 0)
(1.06903 0.00805285 0)
(1.06506 0.010096 0)
(1.06036 0.0119257 0)
(1.0528 0.0142102 0)
(1.03651 0.0165361 0)
(1.02235 0.0180001 0)
(1.01466 0.0190669 0)
(1.009 0.0199396 0)
(1.00424 0.0210308 0)
(1.00813 0.024471 0)
(1.01856 0.0286563 0)
(1.02007 0.0310739 0)
(1.01654 0.0325957 0)
(1.01182 0.0338088 0)
(1.00598 0.0350537 0)
(0.991835 0.036056 0)
(0.969753 0.0355454 0)
(0.955094 0.0356554 0)
(0.946775 0.0366484 0)
(0.940572 0.0373119 0)
(0.938719 0.0393726 0)
(0.95006 0.0450911 0)
(0.956773 0.0492119 0)
(0.954283 0.0509444 0)
(0.948748 0.0521984 0)
(0.942252 0.0531574 0)
(0.929543 0.0536618 0)
(0.901668 0.0497553 0)
(0.876618 0.046037 0)
(0.862191 0.0457291 0)
(0.853083 0.0459115 0)
(0.847875 0.0466828 0)
(0.85824 0.0531957 0)
(0.868332 0.0590229 0)
(0.865839 0.0601445 0)
(0.85744 0.060404 0)
(0.847059 0.0608093 0)
(0.826119 0.0605909 0)
(0.787022 0.053544 0)
(0.748935 0.0414966 0)
(0.720599 0.0301458 0)
(0.702634 0.0251607 0)
(0.691732 0.0202349 0)
(0.691353 0.00952357 0)
(0.678107 -0.00508542 0)
(0.667735 -0.00774874 0)
(0.0976143 -0.107133 0)
(-1.12292 -0.0765116 0)
(1.21807 -0.113759 0)
(1.22732 -0.107 0)
(1.22881 -0.105044 0)
(1.22562 -0.103867 0)
(1.22171 -0.1029 0)
(1.2176 -0.10178 0)
(1.21015 -0.0986447 0)
(1.19979 -0.0941355 0)
(1.19318 -0.0909779 0)
(1.18856 -0.0887705 0)
(1.18434 -0.086825 0)
(1.18124 -0.0848257 0)
(1.18318 -0.0824323 0)
(1.18882 -0.0796083 0)
(1.19041 -0.076401 0)
(1.18868 -0.0732014 0)
(1.18578 -0.0702862 0)
(1.18207 -0.0679915 0)
(1.17723 -0.0658485 0)
(1.16805 -0.0637849 0)
(1.15952 -0.0617091 0)
(1.1536 -0.0595164 0)
(1.14864 -0.0576533 0)
(1.14418 -0.0563533 0)
(1.14242 -0.0541431 0)
(1.14858 -0.0500989 0)
(1.1527 -0.0460775 0)
(1.15179 -0.0429232 0)
(1.14896 -0.0403487 0)
(1.14521 -0.0383536 0)
(1.14082 -0.0366808 0)
(1.13101 -0.0348792 0)
(1.11897 -0.0332538 0)
(1.11185 -0.0316392 0)
(1.10672 -0.030324 0)
(1.10217 -0.0292777 0)
(1.1009 -0.0272442 0)
(1.10781 -0.0234964 0)
(1.11211 -0.0194609 0)
(1.11098 -0.0161492 0)
(1.10787 -0.0133207 0)
(1.10377 -0.0111716 0)
(1.09862 -0.0094129 0)
(1.08651 -0.00805153 0)
(1.07322 -0.00719716 0)
(1.06555 -0.00632386 0)
(1.06014 -0.00569484 0)
(1.05528 -0.00522231 0)
(1.05431 -0.00339652 0)
(1.06202 0.00134718 0)
(1.06599 0.00633151 0)
(1.06425 0.0099445 0)
(1.06056 0.0126982 0)
(1.05607 0.0146212 0)
(1.04935 0.0161369 0)
(1.03393 0.0159093 0)
(1.0192 0.015284 0)
(1.01079 0.0155535 0)
(1.00466 0.0160894 0)
(0.99931 0.0164623 0)
(1.00017 0.0191859 0)
(1.01004 0.0257259 0)
(1.01272 0.0308578 0)
(1.00972 0.0336841 0)
(1.00524 0.0355172 0)
(0.999843 0.0367515 0)
(0.988262 0.0368314 0)
(0.966571 0.0336197 0)
(0.949662 0.0318366 0)
(0.94021 0.0322527 0)
(0.933509 0.0328104 0)
(0.928772 0.0337609 0)
(0.93624 0.0398917 0)
(0.945424 0.0482252 0)
(0.944553 0.0523998 0)
(0.939563 0.054679 0)
(0.933352 0.0556777 0)
(0.924237 0.0555304 0)
(0.901054 0.0498018 0)
(0.87257 0.0412112 0)
(0.85491 0.0379828 0)
(0.844593 0.0382189 0)
(0.836612 0.0383966 0)
(0.837858 0.0434759 0)
(0.848462 0.0564907 0)
(0.849822 0.0650995 0)
(0.843503 0.0676576 0)
(0.834478 0.0675163 0)
(0.819349 0.0655564 0)
(0.787697 0.0544994 0)
(0.748558 0.0368739 0)
(0.717899 0.0220929 0)
(0.694923 0.0141423 0)
(0.678194 0.0107025 0)
(0.671071 -0.000608284 0)
(0.664015 -0.0166059 0)
(0.662751 -0.021204 0)
(0.105243 -0.101395 0)
(-1.13702 -0.0724248 0)
(1.21405 -0.112293 0)
(1.22389 -0.104594 0)
(1.22656 -0.100711 0)
(1.22419 -0.0984567 0)
(1.22064 -0.0965297 0)
(1.21665 -0.0944663 0)
(1.20956 -0.0917198 0)
(1.19951 -0.0896504 0)
(1.19154 -0.0885191 0)
(1.186 -0.0873817 0)
(1.18128 -0.0859551 0)
(1.17721 -0.0841185 0)
(1.1779 -0.079868 0)
(1.18478 -0.0737377 0)
(1.1876 -0.0698604 0)
(1.18628 -0.0675746 0)
(1.18339 -0.0656459 0)
(1.17965 -0.06406 0)
(1.17537 -0.0627368 0)
(1.16671 -0.061673 0)
(1.15662 -0.0606277 0)
(1.14991 -0.0587171 0)
(1.14459 -0.0563324 0)
(1.14006 -0.0542375 0)
(1.13703 -0.0516305 0)
(1.14231 -0.0457969 0)
(1.14844 -0.0406774 0)
(1.14831 -0.0384654 0)
(1.14539 -0.0371485 0)
(1.14152 -0.0359989 0)
(1.13733 -0.0349328 0)
(1.12841 -0.0336189 0)
(1.11566 -0.032716 0)
(1.10745 -0.0314331 0)
(1.10181 -0.0297385 0)
(1.0971 -0.0280931 0)
(1.09404 -0.0256885 0)
(1.09964 -0.0194208 0)
(1.10641 -0.0133911 0)
(1.10654 -0.0107014 0)
(1.10354 -0.0092491 0)
(1.0994 -0.00821935 0)
(1.09473 -0.00747722 0)
(1.084 -0.00737992 0)
(1.06974 -0.00818808 0)
(1.06041 -0.00762765 0)
(1.05397 -0.00592026 0)
(1.04874 -0.00397048 0)
(1.04533 -0.00140986 0)
(1.05105 0.00577429 0)
(1.05828 0.0127697 0)
(1.05834 0.0155937 0)
(1.05491 0.0167449 0)
(1.05038 0.0172304 0)
(1.045 0.017337 0)
(1.03179 0.0154778 0)
(1.01519 0.0124109 0)
(1.0046 0.0124996 0)
(0.997239 0.014569 0)
(0.991342 0.0167013 0)
(0.988317 0.0197091 0)
(0.996439 0.0278477 0)
(1.00299 0.0350268 0)
(1.00177 0.0377202 0)
(0.997632 0.0388891 0)
(0.992503 0.0393158 0)
(0.984565 0.0390091 0)
(0.964988 0.0341987 0)
(0.944152 0.0288074 0)
(0.932152 0.0283597 0)
(0.924487 0.0302482 0)
(0.918266 0.0319577 0)
(0.91972 0.0372341 0)
(0.931184 0.0476383 0)
(0.934119 0.0533693 0)
(0.92999 0.0543731 0)
(0.924003 0.0541148 0)
(0.917137 0.0536679 0)
(0.900912 0.0501583 0)
(0.870951 0.0410666 0)
(0.847878 0.0334886 0)
(0.835098 0.0318307 0)
(0.82633 0.0323369 0)
(0.820723 0.0342336 0)
(0.827459 0.0438676 0)
(0.834497 0.05579 0)
(0.831312 0.0610422 0)
(0.822725 0.0618491 0)
(0.811606 0.0610749 0)
(0.788758 0.0540923 0)
(0.753615 0.0372825 0)
(0.720037 0.0181106 0)
(0.694059 0.00197885 0)
(0.676315 -0.00544244 0)
(0.668025 -0.0178663 0)
(0.668381 -0.0358579 0)
(0.673282 -0.0413595 0)
(0.111959 -0.0919511 0)
(-1.14473 -0.0697388 0)
(1.20808 -0.11187 0)
(1.21483 -0.104933 0)
(1.22017 -0.0988873 0)
(1.21843 -0.0956351 0)
(1.21499 -0.0937706 0)
(1.211 -0.0918643 0)
(1.20547 -0.0899864 0)
(1.19666 -0.0892544 0)
(1.18822 -0.0886876 0)
(1.18219 -0.087329 0)
(1.17706 -0.0853914 0)
(1.17274 -0.0832992 0)
(1.17019 -0.0803435 0)
(1.17621 -0.0732307 0)
(1.18154 -0.0671816 0)
(1.18078 -0.0648294 0)
(1.17784 -0.063702 0)
(1.17425 -0.0626866 0)
(1.17029 -0.0615258 0)
(1.16345 -0.0603427 0)
(1.15244 -0.0599905 0)
(1.14445 -0.0585903 0)
(1.1389 -0.0562991 0)
(1.13424 -0.0539189 0)
(1.1304 -0.0516722 0)
(1.13314 -0.0466595 0)
(1.14139 -0.0399442 0)
(1.14248 -0.0365424 0)
(1.13949 -0.0351879 0)
(1.13565 -0.034302 0)
(1.13142 -0.0331561 0)
(1.12399 -0.0321523 0)
(1.11141 -0.0327364 0)
(1.10182 -0.0322122 0)
(1.09558 -0.0301858 0)
(1.09052 -0.0277676 0)
(1.08642 -0.0256898 0)
(1.08845 -0.0207681 0)
(1.0975 -0.0133985 0)
(1.09966 -0.00966366 0)
(1.09692 -0.00836221 0)
(1.09289 -0.00767191 0)
(1.0885 -0.00691462 0)
(1.08036 -0.00667559 0)
(1.06561 -0.00864429 0)
(1.05392 -0.00878898 0)
(1.04644 -0.00650298 0)
(1.04079 -0.00357835 0)
(1.03637 -0.00127041 0)
(1.03832 0.00360709 0)
(1.04812 0.0109828 0)
(1.05079 0.0149202 0)
(1.04805 0.0164903 0)
(1.04373 0.0173829 0)
(1.03897 0.0178705 0)
(1.02973 0.0171971 0)
(1.01152 0.0132942 0)
(0.997029 0.0116692 0)
(0.988549 0.0138193 0)
(0.982373 0.0166736 0)
(0.97774 0.0192739 0)
(0.982036 0.0251203 0)
(0.992069 0.0329331 0)
(0.993531 0.0364534 0)
(0.990157 0.0377496 0)
(0.9853 0.038582 0)
(0.979511 0.0389498 0)
(0.96555 0.0365427 0)
(0.941509 0.0298398 0)
(0.924951 0.0263733 0)
(0.91592 0.0273885 0)
(0.909304 0.0291423 0)
(0.905769 0.0322955 0)
(0.914666 0.0421432 0)
(0.923444 0.0525808 0)
(0.922186 0.0561921 0)
(0.916734 0.0564741 0)
(0.910398 0.0560566 0)
(0.89962 0.0542736 0)
(0.874072 0.0452278 0)
(0.846679 0.0345178 0)
(0.829236 0.0271811 0)
(0.818543 0.0250823 0)
(0.810406 0.0253453 0)
(0.808777 0.03 0)
(0.816638 0.0425716 0)
(0.818825 0.0533943 0)
(0.812694 0.0586249 0)
(0.803155 0.0594532 0)
(0.789282 0.0569435 0)
(0.764286 0.0430986 0)
(0.731618 0.0212776 0)
(0.702945 0.00062381 0)
(0.680794 -0.0151389 0)
(0.66897 -0.0254016 0)
(0.670598 -0.0434473 0)
(0.679947 -0.0500768 0)
(0.117436 -0.084166 0)
(-1.15008 -0.0676585 0)
(1.20317 -0.108691 0)
(1.20342 -0.10396 0)
(1.21126 -0.0957207 0)
(1.21177 -0.0904997 0)
(1.2089 -0.0882304 0)
(1.20523 -0.0865784 0)
(1.20104 -0.0851319 0)
(1.19463 -0.0846631 0)
(1.18488 -0.0854936 0)
(1.17716 -0.0853202 0)
(1.17178 -0.0832162 0)
(1.16748 -0.0805218 0)
(1.16393 -0.078035 0)
(1.16584 -0.0727359 0)
(1.17388 -0.0648343 0)
(1.17536 -0.0607587 0)
(1.17262 -0.0592597 0)
(1.16893 -0.0583468 0)
(1.16483 -0.0572604 0)
(1.15944 -0.0562051 0)
(1.14843 -0.0565131 0)
(1.13827 -0.056514 0)
(1.1323 -0.0548597 0)
(1.12771 -0.0525828 0)
(1.12382 -0.0504295 0)
(1.12356 -0.0468687 0)
(1.13206 -0.0403261 0)
(1.13579 -0.0351513 0)
(1.13366 -0.0323259 0)
(1.12998 -0.0304301 0)
(1.12576 -0.0289515 0)
(1.12036 -0.027878 0)
(1.10874 -0.0289192 0)
(1.09623 -0.0302883 0)
(1.08871 -0.0290112 0)
(1.08352 -0.0265939 0)
(1.07931 -0.0244388 0)
(1.07814 -0.0211903 0)
(1.08689 -0.0143983 0)
(1.09225 -0.00878693 0)
(1.0906 -0.00604772 0)
(1.08682 -0.00440392 0)
(1.0825 -0.00325423 0)
(1.07693 -0.00257245 0)
(1.06353 -0.0047376 0)
(1.04787 -0.00717862 0)
(1.03879 -0.00591754 0)
(1.0333 -0.00316342 0)
(1.02876 -0.000708442 0)
(1.02789 0.00287004 0)
(1.03741 0.00937731 0)
(1.04321 0.0143874 0)
(1.04153 0.0165949 0)
(1.03752 0.0179546 0)
(1.03288 0.0190167 0)
(1.02679 0.0197155 0)
(1.01096 0.0169758 0)
(0.99172 0.0133329 0)
(0.98081 0.0133344 0)
(0.974562 0.015291 0)
(0.96946 0.0174483 0)
(0.969717 0.0219659 0)
(0.980669 0.0309544 0)
(0.986122 0.0369001 0)
(0.983833 0.0385208 0)
(0.979152 0.0388088 0)
(0.973951 0.0388519 0)
(0.96529 0.0382296 0)
(0.943084 0.0323604 0)
(0.921496 0.0268208 0)
(0.909721 0.0250317 0)
(0.902568 0.0259657 0)
(0.896656 0.0273877 0)
(0.898197 0.0334143 0)
(0.910478 0.0464771 0)
(0.915079 0.054998 0)
(0.911316 0.0569646 0)
(0.905161 0.0568193 0)
(0.897556 0.0561226 0)
(0.880751 0.0501414 0)
(0.852452 0.0356439 0)
(0.82897 0.0254821 0)
(0.814163 0.0204968 0)
(0.805178 0.0192047 0)
(0.798407 0.0195724 0)
(0.800206 0.0260648 0)
(0.806649 0.0377243 0)
(0.806524 0.0450166 0)
(0.800315 0.0478674 0)
(0.790746 0.0484273 0)
(0.773975 0.044289 0)
(0.749265 0.0291013 0)
(0.720846 0.00500834 0)
(0.694306 -0.0164066 0)
(0.675747 -0.0313231 0)
(0.67148 -0.0499463 0)
(0.683894 -0.0621606 0)
(0.119781 -0.0766531 0)
(-1.15548 -0.0669244 0)
(1.1989 -0.104476 0)
(1.19423 -0.102631 0)
(1.20054 -0.0974687 0)
(1.20403 -0.0921843 0)
(1.20253 -0.0881364 0)
(1.19927 -0.0848669 0)
(1.19522 -0.082572 0)
(1.19099 -0.081312 0)
(1.18299 -0.0813493 0)
(1.17256 -0.081132 0)
(1.16608 -0.079507 0)
(1.16184 -0.0775957 0)
(1.15824 -0.0757271 0)
(1.15723 -0.0729058 0)
(1.16494 -0.0677027 0)
(1.16931 -0.0625684 0)
(1.1674 -0.0592295 0)
(1.16365 -0.0568373 0)
(1.15933 -0.0549139 0)
(1.15467 -0.0533574 0)
(1.14539 -0.0527214 0)
(1.13327 -0.0527292 0)
(1.12611 -0.0514687 0)
(1.1216 -0.0497413 0)
(1.11781 -0.0480626 0)
(1.11606 -0.0456249 0)
(1.12271 -0.0411532 0)
(1.12841 -0.036223 0)
(1.12771 -0.032491 0)
(1.12438 -0.0297882 0)
(1.12018 -0.0277962 0)
(1.11562 -0.0263581 0)
(1.1071 -0.0259845 0)
(1.09252 -0.0272856 0)
(1.08261 -0.0266414 0)
(1.0774 -0.0246733 0)
(1.07324 -0.0227765 0)
(1.07067 -0.0204336 0)
(1.07713 -0.0158835 0)
(1.08469 -0.0109352 0)
(1.08457 -0.00781446 0)
(1.08132 -0.00541702 0)
(1.077 -0.00336291 0)
(1.07223 -0.00180691 0)
(1.06249 -0.00146676 0)
(1.04479 -0.00381385 0)
(1.03295 -0.00439674 0)
(1.02715 -0.00356233 0)
(1.02267 -0.0022094 0)
(1.02027 0.000537074 0)
(1.0277 0.00702863 0)
(1.0361 0.0136667 0)
(1.03583 0.0168934 0)
(1.03209 0.0185974 0)
(1.02757 0.0197863 0)
(1.02252 0.0206787 0)
(1.01079 0.0200558 0)
(0.990356 0.0162602 0)
(0.976309 0.0143427 0)
(0.968957 0.0143601 0)
(0.963734 0.0150563 0)
(0.960544 0.0172958 0)
(0.968615 0.0255042 0)
(0.978763 0.0352486 0)
(0.978915 0.0391834 0)
(0.974538 0.0400012 0)
(0.969442 0.0400966 0)
(0.963096 0.0401143 0)
(0.94662 0.0365817 0)
(0.922568 0.0285937 0)
(0.906929 0.0244073 0)
(0.897762 0.0231457 0)
(0.891139 0.0237812 0)
(0.886473 0.0257841 0)
(0.893639 0.0357262 0)
(0.904995 0.0494213 0)
(0.906025 0.056286 0)
(0.901187 0.0581038 0)
(0.894828 0.0580781 0)
(0.885083 0.0563994 0)
(0.862337 0.0460109 0)
(0.834248 0.0302733 0)
(0.815208 0.0206368 0)
(0.802997 0.0153234 0)
(0.794882 0.0129776 0)
(0.789444 0.0135634 0)
(0.792668 0.0217146 0)
(0.796434 0.0325415 0)
(0.793995 0.0384596 0)
(0.787362 0.0400087 0)
(0.7774 0.0395933 0)
(0.761394 0.0309792 0)
(0.740784 0.0129109 0)
(0.715665 -0.0117129 0)
(0.689876 -0.0319521 0)
(0.67335 -0.0516924 0)
(0.685456 -0.0789336 0)
(0.120344 -0.0707901 0)
(-1.16032 -0.0654555 0)
(1.19574 -0.0992781 0)
(1.19016 -0.0975332 0)
(1.19468 -0.0945747 0)
(1.1975 -0.0915996 0)
(1.19664 -0.0884904 0)
(1.19402 -0.0852932 0)
(1.19037 -0.0825381 0)
(1.18609 -0.0804781 0)
(1.18023 -0.0786858 0)
(1.16903 -0.0764338 0)
(1.16196 -0.0743197 0)
(1.15782 -0.0725816 0)
(1.15422 -0.0710953 0)
(1.15279 -0.0689599 0)
(1.15843 -0.0663078 0)
(1.16273 -0.0632903 0)
(1.16173 -0.0601751 0)
(1.15857 -0.0573231 0)
(1.15454 -0.0548369 0)
(1.15005 -0.0528506 0)
(1.14276 -0.0511073 0)
(1.12992 -0.0501717 0)
(1.12146 -0.0487853 0)
(1.1168 -0.0470396 0)
(1.113 -0.045419 0)
(1.11082 -0.0431515 0)
(1.11609 -0.0393475 0)
(1.12171 -0.0358825 0)
(1.12164 -0.0333678 0)
(1.11899 -0.0308285 0)
(1.11528 -0.0283653 0)
(1.11089 -0.0264367 0)
(1.10489 -0.0248471 0)
(1.09075 -0.0245921 0)
(1.07876 -0.0241865 0)
(1.07285 -0.0231328 0)
(1.06848 -0.0219476 0)
(1.06522 -0.0200422 0)
(1.06949 -0.0155933 0)
(1.07792 -0.0101174 0)
(1.07896 -0.00689072 0)
(1.07601 -0.00503475 0)
(1.07199 -0.00332035 0)
(1.06747 -0.00172035 0)
(1.06062 -0.00016696 0)
(1.04445 -0.00085129 0)
(1.03065 -0.00227646 0)
(1.02334 -0.00220083 0)
(1.01839 -0.00161047 0)
(1.01428 -0.000633392 0)
(1.0179 0.00412009 0)
(1.02845 0.0129004 0)
(1.03082 0.0179902 0)
(1.02768 0.0199895 0)
(1.0233 0.0212092 0)
(1.01859 0.0222079 0)
(1.0106 0.0225951 0)
(0.991893 0.0187228 0)
(0.975033 0.014656 0)
(0.965811 0.0135196 0)
(0.959637 0.0137877 0)
(0.954561 0.0146029 0)
(0.955831 0.0193002 0)
(0.968344 0.0309464 0)
(0.973662 0.0390107 0)
(0.970869 0.0415658 0)
(0.965965 0.042124 0)
(0.960612 0.0424215 0)
(0.950805 0.0409963 0)
(0.928812 0.031898 0)
(0.907808 0.0229631 0)
(0.895358 0.0200177 0)
(0.887714 0.0193515 0)
(0.881421 0.0196871 0)
(0.879225 0.0231808 0)
(0.890047 0.0369688 0)
(0.898763 0.0500532 0)
(0.897658 0.0551774 0)
(0.89195 0.0568768 0)
(0.884873 0.0574015 0)
(0.871828 0.0551628 0)
(0.847263 0.0408362 0)
(0.822449 0.0231284 0)
(0.805197 0.0129476 0)
(0.793459 0.00846624 0)
(0.785774 0.00685911 0)
(0.781734 0.00830554 0)
(0.78539 0.0167942 0)
(0.787605 0.0249497 0)
(0.784639 0.0280111 0)
(0.778159 0.0281284 0)
(0.7682 0.0264557 0)
(0.753942 0.0143659 0)
(0.73663 -0.00484075 0)
(0.713385 -0.0267802 0)
(0.686311 -0.043983 0)
(0.685591 -0.0940587 0)
(0.116199 -0.0699507 0)
(-1.16434 -0.06543 0)
(1.19178 -0.0957653 0)
(1.18763 -0.0924417 0)
(1.19314 -0.0905331 0)
(1.19461 -0.0884324 0)
(1.19332 -0.0857601 0)
(1.19059 -0.0833142 0)
(1.187 -0.0811303 0)
(1.18283 -0.0794855 0)
(1.17626 -0.0771721 0)
(1.16478 -0.0740001 0)
(1.15766 -0.0719606 0)
(1.15334 -0.0703838 0)
(1.14961 -0.0689062 0)
(1.14875 -0.0664065 0)
(1.15486 -0.0631111 0)
(1.15823 -0.0604868 0)
(1.15722 -0.0578995 0)
(1.15445 -0.0553774 0)
(1.15083 -0.053102 0)
(1.14665 -0.0512868 0)
(1.1407 -0.0494241 0)
(1.12823 -0.0479928 0)
(1.11855 -0.0467512 0)
(1.11322 -0.0453544 0)
(1.10898 -0.0441111 0)
(1.10591 -0.0423348 0)
(1.11037 -0.037867 0)
(1.11705 -0.0331787 0)
(1.11738 -0.0305267 0)
(1.11497 -0.0284704 0)
(1.11162 -0.026463 0)
(1.10754 -0.0247871 0)
(1.10255 -0.0233052 0)
(1.0899 -0.0224807 0)
(1.07695 -0.0226409 0)
(1.06986 -0.0219806 0)
(1.06498 -0.0209405 0)
(1.06081 -0.0200654 0)
(1.06195 -0.0166191 0)
(1.07116 -0.00940551 0)
(1.07437 -0.00471238 0)
(1.07214 -0.00238492 0)
(1.06861 -0.000547736 0)
(1.06454 0.000841931 0)
(1.0594 0.00187729 0)
(1.04598 0.000710824 0)
(1.03018 -0.00226593 0)
(1.02106 -0.00305325 0)
(1.01486 -0.00221742 0)
(1.01002 -0.00119022 0)
(1.00843 0.00173967 0)
(1.01829 0.0109351 0)
(1.02536 0.0190817 0)
(1.02417 0.0222358 0)
(1.02021 0.0234661 0)
(1.01576 0.0242521 0)
(1.01056 0.024518 0)
(0.996274 0.0210841 0)
(0.976415 0.0143246 0)
(0.964038 0.011576 0)
(0.956526 0.0118236 0)
(0.950911 0.0127695 0)
(0.94677 0.0145458 0)
(0.953738 0.0237252 0)
(0.965245 0.037094 0)
(0.966928 0.0432827 0)
(0.963353 0.0449613 0)
(0.958502 0.0452895 0)
(0.952495 0.0452736 0)
(0.937296 0.0397997 0)
(0.913011 0.026955 0)
(0.896005 0.0186869 0)
(0.885732 0.0159756 0)
(0.87825 0.0154345 0)
(0.872073 0.0160432 0)
(0.872227 0.0224378 0)
(0.884122 0.0399903 0)
(0.889976 0.0531276 0)
(0.887413 0.0580017 0)
(0.881537 0.0587901 0)
(0.874561 0.0576188 0)
(0.860775 0.0518623 0)
(0.835638 0.0351994 0)
(0.811719 0.0178471 0)
(0.795452 0.00776031 0)
(0.784467 0.00281773 0)
(0.777272 0.00136197 0)
(0.774645 0.00370725 0)
(0.77856 0.0119865 0)
(0.779847 0.0175481 0)
(0.776774 0.0182888 0)
(0.770948 0.0169906 0)
(0.762284 0.0108879 0)
(0.750448 -0.00310613 0)
(0.734852 -0.0206353 0)
(0.710445 -0.0407128 0)
(0.692062 -0.0885352 0)
(0.10755 -0.0720786 0)
(-1.16782 -0.0641814 0)
(1.18653 -0.094832 0)
(1.18456 -0.0890234 0)
(1.19125 -0.0858209 0)
(1.19242 -0.0848671 0)
(1.19101 -0.082951 0)
(1.18823 -0.0809744 0)
(1.18461 -0.0791155 0)
(1.18062 -0.0775294 0)
(1.1733 -0.0749316 0)
(1.16201 -0.0722854 0)
(1.15475 -0.0704499 0)
(1.15006 -0.0689105 0)
(1.146 -0.0676121 0)
(1.14407 -0.0652917 0)
(1.1504 -0.0605732 0)
(1.15534 -0.0565916 0)
(1.15433 -0.0545083 0)
(1.1516 -0.0524649 0)
(1.14819 -0.0505442 0)
(1.14423 -0.0489745 0)
(1.13913 -0.0474116 0)
(1.12735 -0.0462804 0)
(1.11669 -0.0457038 0)
(1.11034 -0.0446465 0)
(1.10557 -0.0432391 0)
(1.10159 -0.0418325 0)
(1.10348 -0.0376695 0)
(1.11224 -0.0307392 0)
(1.11467 -0.0270428 0)
(1.1124 -0.0254286 0)
(1.10914 -0.0239253 0)
(1.10527 -0.0225895 0)
(1.10091 -0.0215057 0)
(1.09006 -0.0211481 0)
(1.07601 -0.0223179 0)
(1.06741 -0.0225579 0)
(1.06151 -0.0215597 0)
(1.05682 -0.0201749 0)
(1.05437 -0.0175463 0)
(1.06232 -0.00966897 0)
(1.06958 -0.00223975 0)
(1.06912 0.000548969 0)
(1.06584 0.00170919 0)
(1.06199 0.00259414 0)
(1.05785 0.00298777 0)
(1.04851 0.00185187 0)
(1.03147 -0.00241873 0)
(1.01901 -0.00423895 0)
(1.01167 -0.00344548 0)
(1.00625 -0.00200247 0)
(1.00198 -0.000386026 0)
(1.00611 0.00618516 0)
(1.01764 0.0175799 0)
(1.02046 0.0234581 0)
(1.01764 0.0253015 0)
(1.01341 0.0259478 0)
(1.00884 0.0264782 0)
(1.00017 0.025457 0)
(0.980746 0.018313 0)
(0.963761 0.0121584 0)
(0.954288 0.0106186 0)
(0.947614 0.0109089 0)
(0.942091 0.011855 0)
(0.940244 0.0154328 0)
(0.951776 0.0290179 0)
(0.960732 0.041457 0)
(0.959952 0.0461582 0)
(0.955571 0.0472751 0)
(0.950287 0.0471055 0)
(0.943029 0.0455402 0)
(0.924401 0.0349212 0)
(0.901204 0.0204325 0)
(0.885786 0.0138107 0)
(0.875399 0.0125699 0)
(0.868436 0.0128728 0)
(0.862998 0.0137401 0)
(0.866253 0.0212613 0)
(0.878483 0.0385829 0)
(0.883247 0.049505 0)
(0.880304 0.0529106 0)
(0.873922 0.0538932 0)
(0.865167 0.0534931 0)
(0.849496 0.0476978 0)
(0.825033 0.0304882 0)
(0.802419 0.012443 0)
(0.786504 0.00213792 0)
(0.775981 -0.00278333 0)
(0.769493 -0.00402234 0)
(0.76894 -0.0011097 0)
(0.773937 0.0059789 0)
(0.775162 0.00909455 0)
(0.772164 0.00831398 0)
(0.767205 0.005198 0)
(0.759674 -0.00473412 0)
(0.750126 -0.0174644 0)
(0.733437 -0.034479 0)
(0.706671 -0.0767349 0)
(0.0992053 -0.0782433 0)
(-1.17102 -0.0626206 0)
(1.18145 -0.0944394 0)
(1.17982 -0.0893575 0)
(1.18888 -0.0824984 0)
(1.19068 -0.0803483 0)
(1.18844 -0.0789144 0)
(1.18536 -0.0775711 0)
(1.18186 -0.0761591 0)
(1.17812 -0.074653 0)
(1.17098 -0.0725063 0)
(1.16025 -0.0709699 0)
(1.15259 -0.0699727 0)
(1.14728 -0.0687773 0)
(1.14282 -0.0674846 0)
(1.13925 -0.0658345 0)
(1.14332 -0.0602314 0)
(1.15131 -0.0533348 0)
(1.15187 -0.0502742 0)
(1.14912 -0.0488212 0)
(1.14581 -0.0474699 0)
(1.14207 -0.0462675 0)
(1.13763 -0.0451151 0)
(1.12697 -0.0448615 0)
(1.11504 -0.0453791 0)
(1.10756 -0.0447502 0)
(1.10221 -0.0432938 0)
(1.09783 -0.0418041 0)
(1.09605 -0.0388914 0)
(1.10472 -0.0308432 0)
(1.11105 -0.024269 0)
(1.10986 -0.022066 0)
(1.10654 -0.0210645 0)
(1.10281 -0.0202353 0)
(1.09889 -0.0195624 0)
(1.09107 -0.0198293 0)
(1.07634 -0.022448 0)
(1.0649 -0.0232997 0)
(1.05791 -0.0220447 0)
(1.05278 -0.0204456 0)
(1.04871 -0.0187541 0)
(1.05197 -0.0128274 0)
(1.06293 -0.00280322 0)
(1.066 0.00240087 0)
(1.06346 0.00385083 0)
(1.05959 0.0044369 0)
(1.05549 0.00503703 0)
(1.04953 0.00513819 0)
(1.03407 0.00122483 0)
(1.01809 -0.00298997 0)
(1.00896 -0.00360212 0)
(1.0027 -0.00257454 0)
(0.99776 -0.00127171 0)
(0.995487 0.00160659 0)
(1.00563 0.0123264 0)
(1.01481 0.0229644 0)
(1.01457 0.0268037 0)
(1.01076 0.0278846 0)
(1.00644 0.0284272 0)
(1.00147 0.0284462 0)
(0.987886 0.0238058 0)
(0.967111 0.0139504 0)
(0.953254 0.00892159 0)
(0.944661 0.00859575 0)
(0.938116 0.00980604 0)
(0.933058 0.0111989 0)
(0.935148 0.017828 0)
(0.948932 0.0344405 0)
(0.954966 0.0449501 0)
(0.953037 0.0480947 0)
(0.948628 0.048556 0)
(0.943261 0.048493 0)
(0.933414 0.0466834 0)
(0.910292 0.0342388 0)
(0.88795 0.0203825 0)
(0.875103 0.0141877 0)
(0.866779 0.0112406 0)
(0.860337 0.00966135 0)
(0.855082 0.0104285 0)
(0.859568 0.0199338 0)
(0.8709 0.0381355 0)
(0.873778 0.0491788 0)
(0.86981 0.0528049 0)
(0.863353 0.0532543 0)
(0.85484 0.0508166 0)
(0.83973 0.0428431 0)
(0.816078 0.0253211 0)
(0.793902 0.00721073 0)
(0.77839 -0.00345947 0)
(0.768611 -0.00887478 0)
(0.763056 -0.0103097 0)
(0.764875 -0.00667916 0)
(0.77063 0.000138796 0)
(0.771784 0.00249847 0)
(0.769688 0.000289247 0)
(0.766155 -0.00716904 0)
(0.760308 -0.0173035 0)
(0.751686 -0.0297483 0)
(0.725002 -0.0627656 0)
(0.0935332 -0.0848777 0)
(-1.17412 -0.0608836 0)
(1.17772 -0.0937464 0)
(1.17353 -0.0907272 0)
(1.18246 -0.0820971 0)
(1.18852 -0.0767644 0)
(1.187 -0.074334 0)
(1.18377 -0.0734143 0)
(1.18025 -0.0723034 0)
(1.17616 -0.0710878 0)
(1.16956 -0.0700366 0)
(1.15912 -0.0701212 0)
(1.15033 -0.0698929 0)
(1.14426 -0.0687157 0)
(1.13932 -0.0669381 0)
(1.13526 -0.0653671 0)
(1.13474 -0.0617074 0)
(1.14427 -0.0528457 0)
(1.14911 -0.0469708 0)
(1.14711 -0.0451197 0)
(1.14375 -0.0441834 0)
(1.14 -0.0433362 0)
(1.13593 -0.0425309 0)
(1.12738 -0.0428402 0)
(1.11424 -0.0446496 0)
(1.10484 -0.0445828 0)
(1.09882 -0.0430776 0)
(1.0942 -0.0413444 0)
(1.09048 -0.0394927 0)
(1.09464 -0.0335046 0)
(1.10516 -0.0241129 0)
(1.10731 -0.0195821 0)
(1.10441 -0.0182461 0)
(1.10075 -0.0175916 0)
(1.09683 -0.0168714 0)
(1.09122 -0.0164809 0)
(1.07735 -0.0190231 0)
(1.06326 -0.0216075 0)
(1.0552 -0.0215633 0)
(1.04965 -0.0202879 0)
(1.04515 -0.0190135 0)
(1.04316 -0.0163483 0)
(1.05283 -0.00693534 0)
(1.06124 0.00206131 0)
(1.06087 0.00555092 0)
(1.05739 0.00683672 0)
(1.05342 0.00748085 0)
(1.04897 0.00808977 0)
(1.03847 0.00616453 0)
(1.02024 -0.000528663 0)
(1.00745 -0.00394496 0)
(0.999862 -0.00363216 0)
(0.994086 -0.00219009 0)
(0.98951 -0.000745494 0)
(0.991332 0.00480356 0)
(1.00461 0.0186494 0)
(1.01032 0.027278 0)
(1.00842 0.0298543 0)
(1.0041 0.0300566 0)
(0.999424 0.0302897 0)
(0.992562 0.029509 0)
(0.974686 0.0211684 0)
(0.954812 0.0112127 0)
(0.942823 0.00778309 0)
(0.935325 0.00754551 0)
(0.929759 0.00802106 0)
(0.925405 0.00947709 0)
(0.931833 0.0188738 0)
(0.946045 0.0365532 0)
(0.949723 0.0452891 0)
(0.946178 0.0476256 0)
(0.94066 0.0491485 0)
(0.934891 0.0500556 0)
(0.923495 0.0462587 0)
(0.900424 0.0298641 0)
(0.880207 0.0144887 0)
(0.867514 0.0080802 0)
(0.858414 0.00659977 0)
(0.852155 0.00639043 0)
(0.847755 0.00751453 0)
(0.853448 0.0174823 0)
(0.863784 0.0344651 0)
(0.865896 0.0438283 0)
(0.861863 0.0466957 0)
(0.855224 0.0473881 0)
(0.845994 0.0451994 0)
(0.831037 0.0372939 0)
(0.808498 0.019422 0)
(0.786961 0.000577403 0)
(0.771686 -0.0106983 0)
(0.76262 -0.016573 0)
(0.758184 -0.018056 0)
(0.762433 -0.0135886 0)
(0.769266 -0.00647989 0)
(0.771179 -0.00510427 0)
(0.770568 -0.00974452 0)