/*--------------------------------*- C++ -*----------------------------------*\
  =========                 |
  \\      /  F ield         | OpenFOAM: The Open Source CFD Toolbox
   \\    /   O peration     | Website:  https://openfoam.org
    \\  /    A nd           | Version:  12
     \\/     M anipulation  |
\*---------------------------------------------------------------------------*/
FoamFile
{
    format      ascii;
    class       volVectorField;
    location    "18";
    object      U;
}
// * * * * * * * * * * * * * * * * * * * * * * * * * * * * * * * * * * * * * //

dimensions      [0 1 -1 0 0 0 0];

internalField   nonuniform List<vector> 
9801
(
(1.16582 -0.0669745 0)
(1.16135 -0.0619499 0)
(1.15873 -0.059182 0)
(1.15633 -0.056381 0)
(1.15429 -0.0540079 0)
(1.15624 -0.0505366 0)
(1.15713 -0.0480858 0)
(1.15585 -0.04725 0)
(1.15483 -0.046589 0)
(1.15413 -0.0451929 0)
(1.15297 -0.0432488 0)
(1.15109 -0.0406636 0)
(1.14892 -0.0374023 0)
(1.14455 -0.0324268 0)
(1.13998 -0.0290522 0)
(1.13662 -0.0273931 0)
(1.13337 -0.0264321 0)
(1.12998 -0.025462 0)
(1.12826 -0.0250127 0)
(1.13181 -0.0245399 0)
(1.13421 -0.0227949 0)
(1.13383 -0.0205536 0)
(1.13192 -0.0179459 0)
(1.12885 -0.0158025 0)
(1.12337 -0.0124419 0)
(1.11556 -0.00856428 0)
(1.11115 -0.00626727 0)
(1.10764 -0.00490225 0)
(1.10411 -0.00409579 0)
(1.10117 -0.00322824 0)
(1.10328 -0.00285663 0)
(1.11027 -0.00230338 0)
(1.11242 -0.000510715 0)
(1.11031 0.00157747 0)
(1.10627 0.003453 0)
(1.09976 0.00596488 0)
(1.08888 0.00890205 0)
(1.08162 0.0107419 0)
(1.07719 0.0119722 0)
(1.07305 0.0128176 0)
(1.06925 0.013502 0)
(1.06933 0.014453 0)
(1.07833 0.0157415 0)
(1.08378 0.0174839 0)
(1.08258 0.0190359 0)
(1.07849 0.0201811 0)
(1.0715 0.021565 0)
(1.05861 0.0232926 0)
(1.04791 0.0250159 0)
(1.04166 0.0261234 0)
(1.03667 0.0268341 0)
(1.03202 0.0272142 0)
(1.02907 0.0278868 0)
(1.03617 0.0295476 0)
(1.04566 0.031543 0)
(1.04643 0.0329542 0)
(1.04251 0.0337227 0)
(1.03606 0.0342042 0)
(1.02213 0.0344455 0)
(1.00671 0.0348683 0)
(0.996916 0.0358166 0)
(0.990542 0.0372295 0)
(0.984986 0.0384276 0)
(0.980294 0.0395077 0)
(0.983829 0.0410662 0)
(0.995082 0.0422953 0)
(0.997854 0.0425267 0)
(0.994559 0.0421632 0)
(0.988778 0.0420997 0)
(0.976383 0.0439288 0)
(0.954594 0.0465524 0)
(0.938264 0.0492749 0)
(0.928811 0.0511457 0)
(0.92179 0.0523175 0)
(0.915772 0.0528193 0)
(0.920024 0.0520271 0)
(0.934217 0.0518873 0)
(0.937234 0.0536233 0)
(0.932267 0.0557396 0)
(0.924424 0.0580368 0)
(0.910257 0.0606154 0)
(0.882461 0.062213 0)
(0.854887 0.0634155 0)
(0.838867 0.0626477 0)
(0.828838 0.0617553 0)
(0.823686 0.059027 0)
(0.838153 0.0571972 0)
(0.848828 0.0589165 0)
(0.843591 0.0625737 0)
(0.832722 0.0663523 0)
(0.818584 0.0684958 0)
(0.791058 0.0681016 0)
(0.74583 0.0638557 0)
(0.699409 0.0578445 0)
(0.664007 0.0532058 0)
(0.643662 0.037865 0)
(0.635913 0.00104155 0)
(0.177387 -0.0817726 0)
(-1.01859 -0.0593855 0)
(1.23971 -0.119221 0)
(1.2298 -0.114622 0)
(1.22467 -0.111518 0)
(1.21983 -0.108851 0)
(1.21574 -0.106409 0)
(1.21308 -0.102399 0)
(1.21845 -0.0982902 0)
(1.22257 -0.097375 0)
(1.22129 -0.0967172 0)
(1.21802 -0.0951416 0)
(1.21353 -0.0929639 0)
(1.2082 -0.0902587 0)
(1.1988 -0.0854429 0)
(1.18985 -0.0805227 0)
(1.18376 -0.0774063 0)
(1.17901 -0.0750915 0)
(1.175 -0.0732979 0)
(1.17278 -0.0712873 0)
(1.17919 -0.0699994 0)
(1.18379 -0.0698357 0)
(1.18209 -0.0677992 0)
(1.17825 -0.0648006 0)
(1.17329 -0.0619131 0)
(1.16749 -0.058638 0)
(1.15677 -0.0531635 0)
(1.14752 -0.0489634 0)
(1.14168 -0.0468659 0)
(1.137 -0.0453872 0)
(1.13294 -0.044322 0)
(1.13099 -0.0429729 0)
(1.13789 -0.0420495 0)
(1.14206 -0.0407261 0)
(1.13965 -0.037723 0)
(1.13523 -0.0347655 0)
(1.13039 -0.0324307 0)
(1.12195 -0.0288717 0)
(1.10936 -0.0244035 0)
(1.10137 -0.0216658 0)
(1.09599 -0.0200079 0)
(1.0914 -0.0188433 0)
(1.08741 -0.0179832 0)
(1.0879 -0.0164965 0)
(1.0955 -0.014465 0)
(1.09711 -0.0115808 0)
(1.09388 -0.00871727 0)
(1.0892 -0.00658206 0)
(1.08314 -0.00449341 0)
(1.06983 -0.00169128 0)
(1.05785 0.000970961 0)
(1.05082 0.00312862 0)
(1.04547 0.00475932 0)
(1.04072 0.00566469 0)
(1.03728 0.00646124 0)
(1.04261 0.00848272 0)
(1.04967 0.0116923 0)
(1.04877 0.0149953 0)
(1.04424 0.0172428 0)
(1.03924 0.0185732 0)
(1.02792 0.0198985 0)
(1.01099 0.0213482 0)
(0.999917 0.0234427 0)
(0.993212 0.0251528 0)
(0.987342 0.0261889 0)
(0.982251 0.0267517 0)
(0.985114 0.0287844 0)
(0.996023 0.0320692 0)
(0.998164 0.0356163 0)
(0.994158 0.0385305 0)
(0.988392 0.0398655 0)
(0.978282 0.0406974 0)
(0.957645 0.0400508 0)
(0.940363 0.0399253 0)
(0.930532 0.0409593 0)
(0.923187 0.0415106 0)
(0.917093 0.0418782 0)
(0.920321 0.0445594 0)
(0.931293 0.0487857 0)
(0.933735 0.0536622 0)
(0.929756 0.0578659 0)
(0.923037 0.0595052 0)
(0.912127 0.0588328 0)
(0.885972 0.0545079 0)
(0.857239 0.0515198 0)
(0.840737 0.0510091 0)
(0.830285 0.0498541 0)
(0.822844 0.0497516 0)
(0.828742 0.054346 0)
(0.838714 0.0657728 0)
(0.83713 0.0729317 0)
(0.827799 0.0742115 0)
(0.814878 0.0731307 0)
(0.788416 0.0690054 0)
(0.74331 0.0605056 0)
(0.69584 0.0522922 0)
(0.654888 0.0475559 0)
(0.624601 0.0425524 0)
(0.61624 -0.00528076 0)
(0.165695 -0.0741757 0)
(-1.03439 -0.0801813 0)
(1.2359 -0.116825 0)
(1.22544 -0.113641 0)
(1.21998 -0.10995 0)
(1.21509 -0.106252 0)
(1.21116 -0.103097 0)
(1.20914 -0.099464 0)
(1.21508 -0.0946649 0)
(1.21853 -0.0919774 0)
(1.21657 -0.0911596 0)
(1.21311 -0.090626 0)
(1.20898 -0.0898778 0)
(1.20407 -0.0884371 0)
(1.19481 -0.0853335 0)
(1.18663 -0.0816995 0)
(1.18016 -0.0772153 0)
(1.17511 -0.0728457 0)
(1.17103 -0.0699464 0)
(1.16957 -0.0674749 0)
(1.17592 -0.0657001 0)
(1.17892 -0.0647422 0)
(1.1772 -0.0637932 0)
(1.17392 -0.0623085 0)
(1.16963 -0.060452 0)
(1.16397 -0.0574548 0)
(1.15403 -0.0530599 0)
(1.14565 -0.0496225 0)
(1.13917 -0.0465985 0)
(1.13393 -0.0438152 0)
(1.12961 -0.0419083 0)
(1.12815 -0.0401716 0)
(1.13426 -0.0388279 0)
(1.13719 -0.0373821 0)
(1.13532 -0.0352981 0)
(1.13164 -0.0328156 0)
(1.12722 -0.0304068 0)
(1.11895 -0.0269384 0)
(1.10781 -0.023764 0)
(1.10016 -0.0218117 0)
(1.09418 -0.0201183 0)
(1.08904 -0.0183824 0)
(1.08469 -0.01705 0)
(1.08463 -0.0149317 0)
(1.09147 -0.0122037 0)
(1.09344 -0.00923618 0)
(1.09093 -0.00632844 0)
(1.08667 -0.00386147 0)
(1.08089 -0.00156662 0)
(1.06834 0.000249377 0)
(1.05701 0.00117964 0)
(1.04992 0.00213151 0)
(1.04399 0.00340067 0)
(1.03876 0.00467436 0)
(1.03479 0.00604229 0)
(1.0391 0.00901074 0)
(1.04617 0.0130572 0)
(1.04614 0.0169125 0)
(1.04222 0.0200588 0)
(1.03742 0.0219809 0)
(1.02713 0.0232668 0)
(1.01026 0.0224475 0)
(0.998801 0.0224037 0)
(0.991403 0.023354 0)
(0.98501 0.0247576 0)
(0.97979 0.0259129 0)
(0.981512 0.0285256 0)
(0.991755 0.0337219 0)
(0.994796 0.0385231 0)
(0.991569 0.0420252 0)
(0.985966 0.0437319 0)
(0.977394 0.0443912 0)
(0.957426 0.0414858 0)
(0.937783 0.0385335 0)
(0.926751 0.0384615 0)
(0.918984 0.0395179 0)
(0.912512 0.0401785 0)
(0.912644 0.0437338 0)
(0.922995 0.0517326 0)
(0.927454 0.0566777 0)
(0.924124 0.0578504 0)
(0.917734 0.0575042 0)
(0.908811 0.0575175 0)
(0.885044 0.0545192 0)
(0.854908 0.0488557 0)
(0.83572 0.0461834 0)
(0.824047 0.0463469 0)
(0.814975 0.0462762 0)
(0.813246 0.048876 0)
(0.823376 0.0551796 0)
(0.826453 0.0582135 0)
(0.819155 0.0591426 0)
(0.807406 0.0594344 0)
(0.784439 0.0575842 0)
(0.743873 0.0484429 0)
(0.701113 0.0361396 0)
(0.661354 0.0246112 0)
(0.623438 0.010613 0)
(0.62043 -0.0518359 0)
(0.15714 -0.0837174 0)
(-1.04158 -0.072584 0)
(1.22736 -0.114859 0)
(1.21568 -0.111321 0)
(1.2105 -0.107677 0)
(1.20606 -0.104435 0)
(1.20228 -0.101396 0)
(1.20063 -0.0982515 0)
(1.20743 -0.0944703 0)
(1.21177 -0.0914621 0)
(1.20938 -0.08974 0)
(1.20541 -0.0887156 0)
(1.20118 -0.0878016 0)
(1.19479 -0.0862675 0)
(1.18443 -0.0830544 0)
(1.17723 -0.0795481 0)
(1.17228 -0.076218 0)
(1.16788 -0.0728884 0)
(1.16409 -0.0700257 0)
(1.16413 -0.0674836 0)
(1.17038 -0.0657 0)
(1.17216 -0.0636714 0)
(1.16977 -0.0616236 0)
(1.16641 -0.0598591 0)
(1.16257 -0.0581949 0)
(1.15547 -0.0556327 0)
(1.14548 -0.0519631 0)
(1.13873 -0.0489066 0)
(1.13338 -0.0462898 0)
(1.12852 -0.0439989 0)
(1.12426 -0.0419909 0)
(1.12364 -0.0399111 0)
(1.12859 -0.0378273 0)
(1.13021 -0.0351913 0)
(1.12833 -0.0327279 0)
(1.12507 -0.0306462 0)
(1.12111 -0.0290099 0)
(1.11296 -0.026947 0)
(1.10219 -0.0248913 0)
(1.09505 -0.0227121 0)
(1.08936 -0.0202961 0)
(1.08435 -0.0180237 0)
(1.07989 -0.0160901 0)
(1.07943 -0.0131746 0)
(1.08524 -0.00979919 0)
(1.08732 -0.00706983 0)
(1.08533 -0.00476394 0)
(1.08145 -0.00293996 0)
(1.07661 -0.00190218 0)
(1.06523 -0.00145987 0)
(1.05302 -0.000968588 0)
(1.04525 0.00077131 0)
(1.03909 0.00318445 0)
(1.03377 0.00559952 0)
(1.02955 0.00789449 0)
(1.03261 0.0119393 0)
(1.03972 0.0160557 0)
(1.04051 0.0186552 0)
(1.03728 0.020547 0)
(1.03275 0.0214797 0)
(1.02512 0.0218433 0)
(1.00836 0.0202948 0)
(0.994431 0.0200647 0)
(0.986052 0.0216879 0)
(0.97935 0.0238983 0)
(0.973836 0.0255909 0)
(0.97319 0.0286424 0)
(0.982536 0.0343322 0)
(0.987104 0.0385746 0)
(0.984827 0.0407635 0)
(0.97969 0.0419205 0)
(0.973272 0.04239 0)
(0.956501 0.0401889 0)
(0.93362 0.0361837 0)
(0.919608 0.0353984 0)
(0.910964 0.0368825 0)
(0.904166 0.0380372 0)
(0.900746 0.0403069 0)
(0.909336 0.0472507 0)
(0.916375 0.0538874 0)
(0.914137 0.0572897 0)
(0.908163 0.0594185 0)
(0.900826 0.060289 0)
(0.884429 0.057977 0)
(0.853936 0.0472776 0)
(0.829605 0.0391375 0)
(0.815147 0.0378168 0)
(0.805304 0.0384062 0)
(0.798025 0.0394539 0)
(0.801421 0.046652 0)
(0.80567 0.0574582 0)
(0.800651 0.0636598 0)
(0.790593 0.0644552 0)
(0.774736 0.0619609 0)
(0.742589 0.048028 0)
(0.701432 0.0267566 0)
(0.662524 0.0103383 0)
(0.626354 -0.00501834 0)
(0.631571 -0.067137 0)
(0.154596 -0.0812716 0)
(-1.05116 -0.0696167 0)
(1.21945 -0.109305 0)
(1.20683 -0.105993 0)
(1.20075 -0.103551 0)
(1.19649 -0.101727 0)
(1.19274 -0.0993635 0)
(1.19111 -0.0962953 0)
(1.19767 -0.0920057 0)
(1.20323 -0.0881798 0)
(1.20169 -0.0856493 0)
(1.1979 -0.0838712 0)
(1.19372 -0.0821705 0)
(1.18752 -0.0799801 0)
(1.17647 -0.0782675 0)
(1.16808 -0.076753 0)
(1.1631 -0.0749133 0)
(1.15888 -0.0728283 0)
(1.1554 -0.0701441 0)
(1.15588 -0.0659989 0)
(1.16254 -0.0611251 0)
(1.16533 -0.0579515 0)
(1.16354 -0.0558494 0)
(1.16025 -0.0540471 0)
(1.15649 -0.0528485 0)
(1.14904 -0.0517416 0)
(1.13744 -0.0509443 0)
(1.13 -0.0493907 0)
(1.12486 -0.0473823 0)
(1.1204 -0.0451068 0)
(1.11647 -0.0424133 0)
(1.11608 -0.038057 0)
(1.12173 -0.0329335 0)
(1.12443 -0.0298684 0)
(1.12279 -0.0280399 0)
(1.1195 -0.0264876 0)
(1.1155 -0.0257406 0)
(1.10784 -0.0252293 0)
(1.09556 -0.0250142 0)
(1.08729 -0.0233781 0)
(1.08162 -0.0209099 0)
(1.07681 -0.0182799 0)
(1.07252 -0.0157459 0)
(1.07183 -0.0115958 0)
(1.07842 -0.00628088 0)
(1.0816 -0.00320281 0)
(1.07967 -0.00179761 0)
(1.07577 -0.000955588 0)
(1.07142 -0.000533529 0)
(1.06147 -0.000834568 0)
(1.04712 -0.00161793 0)
(1.03771 2.25161e-05 0)
(1.03129 0.00291993 0)
(1.02599 0.00580757 0)
(1.02159 0.00826083 0)
(1.02361 0.0125678 0)
(1.03187 0.0177593 0)
(1.03374 0.0207439 0)
(1.03081 0.0222792 0)
(1.02644 0.022996 0)
(1.02068 0.0233861 0)
(1.00581 0.0212728 0)
(0.988439 0.0184401 0)
(0.978098 0.0196242 0)
(0.970935 0.0224735 0)
(0.965165 0.0248925 0)
(0.962368 0.0279674 0)
(0.97019 0.0342993 0)
(0.976972 0.0399898 0)
(0.975829 0.0426162 0)
(0.971218 0.0441514 0)
(0.965735 0.0447159 0)
(0.954959 0.0437597 0)
(0.9317 0.0369731 0)
(0.912475 0.0323234 0)
(0.9019 0.0328845 0)
(0.894606 0.0346685 0)
(0.888836 0.0365891 0)
(0.892245 0.0428901 0)
(0.902186 0.0529562 0)
(0.9032 0.0580272 0)
(0.898018 0.0588685 0)
(0.891283 0.0583101 0)
(0.880848 0.0566421 0)
(0.855589 0.0487173 0)
(0.82558 0.0379045 0)
(0.806593 0.0309644 0)
(0.795281 0.0299891 0)
(0.786489 0.030346 0)
(0.784142 0.0338334 0)
(0.789081 0.0427928 0)
(0.78788 0.0500506 0)
(0.779704 0.0518917 0)
(0.768475 0.0508332 0)
(0.747937 0.043433 0)
(0.713971 0.0252886 0)
(0.676409 0.00509846 0)
(0.639155 -0.0136734 0)
(0.64426 -0.0785943 0)
(0.151222 -0.0770936 0)
(-1.05751 -0.0675 0)
(1.21196 -0.10636 0)
(1.19959 -0.102516 0)
(1.19236 -0.100629 0)
(1.18818 -0.0993808 0)
(1.18447 -0.0978518 0)
(1.18227 -0.0955083 0)
(1.1878 -0.0907222 0)
(1.19432 -0.0857717 0)
(1.1936 -0.08307 0)
(1.19002 -0.08155 0)
(1.18593 -0.0797447 0)
(1.18085 -0.0775283 0)
(1.17131 -0.0764229 0)
(1.16119 -0.0760741 0)
(1.15525 -0.0746267 0)
(1.15091 -0.0726519 0)
(1.14715 -0.0704452 0)
(1.1463 -0.0664334 0)
(1.15331 -0.059355 0)
(1.15826 -0.0541552 0)
(1.15703 -0.0522448 0)
(1.15352 -0.0515656 0)
(1.14959 -0.0510793 0)
(1.14375 -0.050336 0)
(1.13215 -0.0504018 0)
(1.12252 -0.0497587 0)
(1.11674 -0.047527 0)
(1.11203 -0.0446705 0)
(1.10796 -0.0418729 0)
(1.10669 -0.0376133 0)
(1.11342 -0.0309628 0)
(1.11832 -0.0265591 0)
(1.11703 -0.0250665 0)
(1.11346 -0.0245733 0)
(1.10948 -0.0243104 0)
(1.10322 -0.0240808 0)
(1.09022 -0.0249053 0)
(1.07956 -0.0242446 0)
(1.07333 -0.0215838 0)
(1.06837 -0.0183818 0)
(1.06406 -0.0155475 0)
(1.06263 -0.0117867 0)
(1.07016 -0.00595764 0)
(1.0753 -0.00176979 0)
(1.07364 -2.9314e-05 0)
(1.06978 0.000724835 0)
(1.06557 0.00122614 0)
(1.05774 0.00135168 0)
(1.04222 -0.000746951 0)
(1.0299 -0.00128494 0)
(1.02287 0.00106793 0)
(1.01741 0.00417928 0)
(1.01282 0.00713283 0)
(1.01348 0.0115436 0)
(1.02278 0.0175506 0)
(1.02635 0.0211901 0)
(1.02381 0.0227383 0)
(1.01963 0.0236861 0)
(1.01473 0.0244357 0)
(1.00387 0.0238351 0)
(0.984043 0.0199833 0)
(0.969845 0.0181886 0)
(0.962073 0.0198917 0)
(0.956161 0.0221743 0)
(0.952096 0.0250729 0)
(0.957306 0.0313725 0)
(0.966715 0.0389606 0)
(0.967442 0.0423892 0)
(0.963234 0.0433513 0)
(0.958013 0.0435486 0)
(0.951053 0.0435898 0)
(0.932329 0.0396438 0)
(0.90852 0.0332213 0)
(0.894293 0.0305222 0)
(0.886077 0.0314273 0)
(0.879453 0.0327092 0)
(0.877128 0.0364127 0)
(0.886228 0.046698 0)
(0.892481 0.0562433 0)
(0.889758 0.0596935 0)
(0.883461 0.060261 0)
(0.875743 0.0600628 0)
(0.858655 0.055025 0)
(0.828792 0.0415316 0)
(0.804118 0.0306264 0)
(0.788876 0.0238545 0)
(0.779425 0.0220669 0)
(0.772526 0.0226025 0)
(0.773552 0.0287883 0)
(0.77535 0.0373778 0)
(0.770541 0.0420124 0)
(0.76139 0.0423674 0)
(0.749685 0.0398256 0)
(0.72911 0.0263915 0)
(0.700926 0.00705958 0)
(0.664391 -0.0116362 0)
(0.657685 -0.077883 0)
(0.143957 -0.07598 0)
(-1.06269 -0.0643283 0)
(1.2061 -0.102586 0)
(1.19509 -0.0987608 0)
(1.18654 -0.0976373 0)
(1.18183 -0.097035 0)
(1.17803 -0.0961275 0)
(1.17485 -0.0949659 0)
(1.1777 -0.0912141 0)
(1.18509 -0.0854441 0)
(1.18616 -0.081005 0)
(1.18376 -0.0775015 0)
(1.1803 -0.07447 0)
(1.17627 -0.0723326 0)
(1.16987 -0.0712725 0)
(1.15866 -0.0720951 0)
(1.14987 -0.0722382 0)
(1.14462 -0.0711272 0)
(1.14068 -0.0695331 0)
(1.13773 -0.0674698 0)
(1.14193 -0.061453 0)
(1.15004 -0.0529737 0)
(1.15098 -0.0487555 0)
(1.14796 -0.0473683 0)
(1.1442 -0.046453 0)
(1.13992 -0.0452179 0)
(1.13079 -0.0454806 0)
(1.11888 -0.0468527 0)
(1.11022 -0.0468031 0)
(1.10493 -0.0450691 0)
(1.10079 -0.0428896 0)
(1.09802 -0.0400035 0)
(1.10317 -0.0332581 0)
(1.11123 -0.0254823 0)
(1.11173 -0.0220064 0)
(1.10847 -0.020897 0)
(1.10455 -0.0202272 0)
(1.0996 -0.0193499 0)
(1.08854 -0.0200611 0)
(1.07513 -0.0217385 0)
(1.06612 -0.0216897 0)
(1.06077 -0.0197256 0)
(1.05635 -0.0172526 0)
(1.05381 -0.0138204 0)
(1.06019 -0.00733072 0)
(1.06798 -0.000940843 0)
(1.06779 0.00208021 0)
(1.06426 0.00343184 0)
(1.06012 0.00438845 0)
(1.0545 0.00526012 0)
(1.0411 0.00356522 0)
(1.02512 0.000710486 0)
(1.01532 0.000264469 0)
(1.00971 0.00190035 0)
(1.00502 0.00406506 0)
(1.00385 0.00800273 0)
(1.01252 0.0155657 0)
(1.01879 0.0218622 0)
(1.01743 0.0245924 0)
(1.01349 0.0259171 0)
(1.00878 0.0267855 0)
(1.00148 0.0271698 0)
(0.983543 0.0236722 0)
(0.965148 0.0197656 0)
(0.954946 0.0184018 0)
(0.949048 0.0190508 0)
(0.944155 0.0204306 0)
(0.945034 0.025109 0)
(0.955518 0.0352772 0)
(0.960174 0.0425916 0)
(0.957191 0.0450001 0)
(0.952091 0.045585 0)
(0.946328 0.0459178 0)
(0.933644 0.0439205 0)
(0.909687 0.0359777 0)
(0.890859 0.0300813 0)
(0.880276 0.0275268 0)
(0.873187 0.0277724 0)
(0.867367 0.029015 0)
(0.870211 0.0357293 0)
(0.880477 0.048173 0)
(0.882753 0.0561648 0)
(0.878021 0.0590491 0)
(0.871166 0.0595773 0)
(0.860923 0.0587062 0)
(0.838546 0.0490519 0)
(0.810073 0.0324097 0)
(0.789368 0.0218418 0)
(0.776033 0.0162312 0)
(0.767661 0.0144061 0)
(0.763255 0.0155262 0)
(0.765354 0.0222259 0)
(0.764905 0.0276419 0)
(0.759449 0.0288122 0)
(0.751523 0.0271786 0)
(0.739555 0.0208319 0)
(0.721254 0.00695058 0)
(0.694217 -0.00953766 0)
(0.67416 -0.0619598 0)
(0.136511 -0.0803851 0)
(-1.06811 -0.0626473 0)
(1.20108 -0.0992412 0)
(1.19201 -0.0953659 0)
(1.18365 -0.0935055 0)
(1.17855 -0.0924197 0)
(1.17445 -0.0912081 0)
(1.17095 -0.0904767 0)
(1.17105 -0.0889877 0)
(1.17658 -0.0859175 0)
(1.17895 -0.0812175 0)
(1.17794 -0.0765519 0)
(1.17512 -0.0726721 0)
(1.17118 -0.0698441 0)
(1.16673 -0.0680386 0)
(1.15783 -0.0679046 0)
(1.14716 -0.0681612 0)
(1.14076 -0.0668428 0)
(1.13651 -0.0654869 0)
(1.13288 -0.0644517 0)
(1.13218 -0.0623182 0)
(1.13994 -0.0567759 0)
(1.14441 -0.051041 0)
(1.1427 -0.0470834 0)
(1.13918 -0.0439877 0)
(1.13509 -0.0417962 0)
(1.12956 -0.0408552 0)
(1.1175 -0.0430413 0)
(1.10624 -0.0435902 0)
(1.09988 -0.0425308 0)
(1.09561 -0.0410347 0)
(1.09195 -0.0396203 0)
(1.09283 -0.0363122 0)
(1.10232 -0.0291878 0)
(1.10599 -0.0233129 0)
(1.10365 -0.01993 0)
(1.09973 -0.0175391 0)
(1.09535 -0.0158123 0)
(1.08805 -0.0154964 0)
(1.07357 -0.0185676 0)
(1.0614 -0.019444 0)
(1.05473 -0.0186615 0)
(1.05022 -0.017337 0)
(1.04672 -0.0155047 0)
(1.05023 -0.0104457 0)
(1.05973 -0.00280308 0)
(1.06194 0.00199272 0)
(1.0592 0.00464281 0)
(1.05511 0.00658554 0)
(1.05048 0.00784924 0)
(1.04115 0.00728186 0)
(1.02375 0.00312197 0)
(1.01075 0.001721 0)
(1.00378 0.00212652 0)
(0.999063 0.00302886 0)
(0.995715 0.00496967 0)
(1.00131 0.0115838 0)
(1.01081 0.0206472 0)
(1.01183 0.0252038 0)
(1.00835 0.0271424 0)
(1.00369 0.0284104 0)
(0.99814 0.0293022 0)
(0.984694 0.0272651 0)
(0.964493 0.0213426 0)
(0.951542 0.0186443 0)
(0.944283 0.0179444 0)
(0.938881 0.0184346 0)
(0.935114 0.0202764 0)
(0.941793 0.028575 0)
(0.951584 0.0398551 0)
(0.951902 0.0453877 0)
(0.947513 0.0469509 0)
(0.942196 0.0474961 0)
(0.934501 0.0473579 0)
(0.915598 0.0403655 0)
(0.89261 0.0296692 0)
(0.877913 0.024801 0)
(0.868809 0.023237 0)
(0.86178 0.0236863 0)
(0.857385 0.0263907 0)
(0.864104 0.0379827 0)
(0.872542 0.0513853 0)
(0.872181 0.0579396 0)
(0.866748 0.0600818 0)
(0.85967 0.0599733 0)
(0.847469 0.0563284 0)
(0.822789 0.0423603 0)
(0.796321 0.0251066 0)
(0.778053 0.014525 0)
(0.766169 0.00906934 0)
(0.758561 0.0074347 0)
(0.756178 0.00936835 0)
(0.75807 0.0154536 0)
(0.756177 0.0185159 0)
(0.751201 0.0170235 0)
(0.744626 0.0114458 0)
(0.733715 0.0013232 0)
(0.717175 -0.011156 0)
(0.694912 -0.0485163 0)
(0.131711 -0.0827967 0)
(-1.07219 -0.058748 0)
(1.19649 -0.0986789 0)
(1.18829 -0.0944902 0)
(1.18056 -0.0914562 0)
(1.17554 -0.0894537 0)
(1.17156 -0.0875945 0)
(1.1684 -0.0859805 0)
(1.16928 -0.0845086 0)
(1.17236 -0.0826217 0)
(1.17312 -0.0798841 0)
(1.17212 -0.0766521 0)
(1.16991 -0.0733345 0)
(1.16647 -0.0703698 0)
(1.16212 -0.0680025 0)
(1.15581 -0.0657124 0)
(1.14549 -0.0638361 0)
(1.13913 -0.0624836 0)
(1.13475 -0.061047 0)
(1.131 -0.0598843 0)
(1.12859 -0.0582841 0)
(1.133 -0.0557463 0)
(1.13701 -0.0526029 0)
(1.13679 -0.0485446 0)
(1.13431 -0.0446043 0)
(1.13051 -0.0413432 0)
(1.12628 -0.0394246 0)
(1.11739 -0.0389371 0)
(1.10457 -0.0399758 0)
(1.0971 -0.0389419 0)
(1.09244 -0.0373562 0)
(1.08851 -0.0361209 0)
(1.08687 -0.0340503 0)
(1.09363 -0.0300618 0)
(1.09878 -0.0252981 0)
(1.09794 -0.0214468 0)
(1.09481 -0.0183128 0)
(1.09065 -0.0156467 0)
(1.08595 -0.0139268 0)
(1.07396 -0.0145378 0)
(1.05942 -0.016832 0)
(1.0512 -0.0163194 0)
(1.04626 -0.015036 0)
(1.04222 -0.0140072 0)
(1.04181 -0.0114517 0)
(1.05086 -0.00477271 0)
(1.05588 0.000957191 0)
(1.05428 0.00388337 0)
(1.05057 0.00588801 0)
(1.04606 0.00749481 0)
(1.04019 0.00875772 0)
(1.02473 0.00675087 0)
(1.0091 0.0034071 0)
(1.00054 0.0031481 0)
(0.995023 0.00388493 0)
(0.990502 0.00459582 0)
(0.990466 0.00801542 0)
(1.00073 0.0176828 0)
(1.00606 0.0253201 0)
(1.00399 0.0281284 0)
(0.999595 0.0292144 0)
(0.994724 0.0298874 0)
(0.98656 0.0296105 0)
(0.96774 0.0236042 0)
(0.95107 0.0177088 0)
(0.941513 0.0164207 0)
(0.934788 0.0171591 0)
(0.929382 0.0182506 0)
(0.928103 0.0224386 0)
(0.938694 0.0349537 0)
(0.945532 0.0451218 0)
(0.94393 0.0488179 0)
(0.939201 0.0494406 0)
(0.933575 0.0490368 0)
(0.922713 0.0454107 0)
(0.900047 0.0330762 0)
(0.879284 0.0229692 0)
(0.866142 0.0199981 0)
(0.857841 0.0199708 0)
(0.851623 0.0205686 0)
(0.850148 0.0245398 0)
(0.859433 0.03777 0)
(0.865712 0.0495471 0)
(0.864018 0.0542535 0)
(0.858039 0.0558324 0)
(0.849874 0.0558271 0)
(0.834762 0.0513308 0)
(0.809726 0.0357073 0)
(0.785646 0.0179439 0)
(0.76856 0.00754164 0)
(0.757768 0.00213038 0)
(0.751096 0.00047808 0)
(0.750746 0.00266144 0)
(0.752991 0.00715825 0)
(0.751365 0.00770444 0)
(0.747696 0.00275877 0)
(0.741816 -0.00545676 0)
(0.732394 -0.014792 0)
(0.713557 -0.0375475 0)
(0.130657 -0.083025 0)
(-1.07584 -0.0551671 0)
(1.19383 -0.0964841 0)
(1.18491 -0.0932548 0)
(1.17726 -0.0903016 0)
(1.1723 -0.0879305 0)
(1.16833 -0.0855745 0)
(1.1659 -0.0827192 0)
(1.16822 -0.0798255 0)
(1.17051 -0.0783139 0)
(1.17031 -0.0760682 0)
(1.16876 -0.0736355 0)
(1.16628 -0.0714129 0)
(1.16287 -0.0694566 0)
(1.15871 -0.0678146 0)
(1.15242 -0.0654781 0)
(1.1424 -0.0625661 0)
(1.1359 -0.0602825 0)
(1.13136 -0.0582243 0)
(1.12752 -0.0564681 0)
(1.12652 -0.0542442 0)
(1.13057 -0.0524455 0)
(1.13269 -0.0498355 0)
(1.1321 -0.0470605 0)
(1.1299 -0.0442631 0)
(1.12654 -0.0417263 0)
(1.12231 -0.0398949 0)
(1.11597 -0.0382268 0)
(1.10306 -0.03728 0)
(1.09433 -0.03632 0)
(1.08935 -0.034892 0)
(1.08525 -0.0336295 0)
(1.0829 -0.0317006 0)
(1.08801 -0.0279059 0)
(1.09288 -0.0243079 0)
(1.09265 -0.0212139 0)
(1.09015 -0.0183448 0)
(1.08654 -0.0158196 0)
(1.08227 -0.0140671 0)
(1.07445 -0.0129617 0)
(1.05898 -0.014264 0)
(1.04902 -0.0146557 0)
(1.04347 -0.0137037 0)
(1.039 -0.0126744 0)
(1.03588 -0.0109967 0)
(1.0419 -0.00532645 0)
(1.04978 0.0016726 0)
(1.04993 0.00523097 0)
(1.04668 0.00713291 0)
(1.04249 0.00866915 0)
(1.03792 0.00984595 0)
(1.02738 0.00944048 0)
(1.00973 0.00529603 0)
(0.998681 0.00332774 0)
(0.992062 0.00367607 0)
(0.986893 0.0047064 0)
(0.982968 0.00616894 0)
(0.98831 0.0132296 0)
(0.998619 0.0238926 0)
(1.00016 0.0290504 0)
(0.996682 0.0305624 0)
(0.992046 0.0309658 0)
(0.986732 0.0310951 0)
(0.973531 0.0276957 0)
(0.953397 0.0198602 0)
(0.939717 0.0159975 0)
(0.931079 0.0160409 0)
(0.92493 0.0175047 0)
(0.920149 0.0192036 0)
(0.923781 0.0262456 0)
(0.936001 0.0397064 0)
(0.93978 0.0469556 0)
(0.936642 0.0491153 0)
(0.931456 0.0495211 0)
(0.925042 0.0494225 0)
(0.909403 0.0441657 0)
(0.884173 0.030787 0)
(0.866647 0.0222351 0)
(0.856316 0.0188064 0)
(0.849263 0.0169639 0)
(0.843194 0.0169909 0)
(0.843807 0.022554 0)
(0.85321 0.0373011 0)
(0.856998 0.0484905 0)
(0.853729 0.0530123 0)
(0.847237 0.0542654 0)
(0.838691 0.0528602 0)
(0.823248 0.0458721 0)
(0.798975 0.0291146 0)
(0.77625 0.0113445 0)
(0.760166 0.000494191 0)
(0.750441 -0.00524022 0)
(0.744986 -0.00734498 0)
(0.746712 -0.00409828 0)
(0.749523 0.000257659 0)
(0.749289 -0.00188292 0)
(0.747339 -0.0106306 0)
(0.742745 -0.0185411 0)
(0.729535 -0.0319242 0)
(0.133106 -0.0824073 0)
(-1.07919 -0.0520173 0)
(1.19213 -0.094472 0)
(1.1824 -0.0919676 0)
(1.17402 -0.0891719 0)
(1.16884 -0.086903 0)
(1.16464 -0.0847955 0)
(1.16179 -0.0819098 0)
(1.16516 -0.0770613 0)
(1.16859 -0.0735091 0)
(1.16823 -0.0720724 0)
(1.16649 -0.070787 0)
(1.16384 -0.0692342 0)
(1.16035 -0.067791 0)
(1.1563 -0.0666175 0)
(1.14955 -0.0647641 0)
(1.13897 -0.0620548 0)
(1.13219 -0.0595892 0)
(1.12744 -0.0573109 0)
(1.1234 -0.0552624 0)
(1.12249 -0.0521053 0)
(1.12774 -0.0482583 0)
(1.13013 -0.0461887 0)
(1.12911 -0.0443222 0)
(1.1267 -0.0423403 0)
(1.12334 -0.0404649 0)
(1.11929 -0.039081 0)
(1.11353 -0.0376976 0)
(1.10113 -0.0363445 0)
(1.09158 -0.0351611 0)
(1.08616 -0.033799 0)
(1.08178 -0.032481 0)
(1.07859 -0.0306613 0)
(1.08277 -0.0261583 0)
(1.08907 -0.0211613 0)
(1.08925 -0.0185988 0)
(1.08672 -0.0165556 0)
(1.08331 -0.0145238 0)
(1.07928 -0.0130971 0)
(1.0735 -0.0120823 0)
(1.05942 -0.0127158 0)
(1.04736 -0.013667 0)
(1.04077 -0.0132281 0)
(1.03581 -0.0120963 0)
(1.03161 -0.0108968 0)
(1.033 -0.00678892 0)
(1.04259 0.00135177 0)
(1.04572 0.00642296 0)
(1.04342 0.00859944 0)
(1.03982 0.0101843 0)
(1.03567 0.0110624 0)
(1.02927 0.0111455 0)
(1.01313 0.0071474 0)
(0.99797 0.00315273 0)
(0.989396 0.00286659 0)
(0.983272 0.00424368 0)
(0.978396 0.00571019 0)
(0.977085 0.00915552 0)
(0.987784 0.0197257 0)
(0.995274 0.0284232 0)
(0.99404 0.0314586 0)
(0.989777 0.0321216 0)
(0.984959 0.0324473 0)
(0.977596 0.0320809 0)
(0.959291 0.0252489 0)
(0.939939 0.0177601 0)
(0.9288 0.0157412 0)
(0.922138 0.0154582 0)
(0.916559 0.0156894 0)
(0.913108 0.0176097 0)
(0.922009 0.0282305 0)
(0.932923 0.0417458 0)
(0.933517 0.047038 0)
(0.928997 0.0488528 0)
(0.923316 0.0505614 0)
(0.915407 0.0511069 0)
(0.897084 0.0421154 0)
(0.873786 0.0256235 0)
(0.858199 0.0163203 0)
(0.847825 0.0135975 0)
(0.840918 0.0129187 0)
(0.835414 0.0134439 0)
(0.837757 0.0203698 0)
(0.846319 0.0348274 0)
(0.848657 0.0443396 0)
(0.844967 0.0477282 0)
(0.838319 0.0486437 0)
(0.828868 0.0468657 0)
(0.813286 0.0390746 0)
(0.790333 0.0215632 0)
(0.768626 0.00337816 0)
(0.753227 -0.00808026 0)
(0.744651 -0.0141411 0)
(0.740702 -0.015727 0)
(0.744929 -0.0110058 0)
(0.749659 -0.00801747 0)
(0.751472 -0.0141014 0)
(0.750342 -0.0220466 0)
(0.741942 -0.0290388 0)
(0.13841 -0.0793638 0)
(-1.08261 -0.0494208 0)
(1.18971 -0.0919595 0)
(1.17993 -0.0902008 0)
(1.17089 -0.0880171 0)
(1.16519 -0.0859188 0)
(1.16071 -0.0838308 0)
(1.15697 -0.081596 0)
(1.15864 -0.0765364 0)
(1.16536 -0.0703348 0)
(1.16607 -0.0679195 0)
(1.16386 -0.067112 0)
(1.16096 -0.0662864 0)
(1.15753 -0.0653577 0)
(1.15379 -0.064562 0)
(1.14718 -0.0631384 0)
(1.1362 -0.0613008 0)
(1.12857 -0.0593426 0)
(1.12337 -0.057374 0)
(1.11903 -0.0555464 0)
(1.11697 -0.0524067 0)
(1.12287 -0.0465199 0)
(1.12733 -0.0421883 0)
(1.12617 -0.0407714 0)
(1.12356 -0.0395621 0)
(1.12034 -0.0382858 0)
(1.11657 -0.0373018 0)
(1.11135 -0.0361926 0)
(1.09948 -0.0353289 0)
(1.08922 -0.0347963 0)
(1.08308 -0.0338793 0)
(1.07833 -0.0325454 0)
(1.07432 -0.0310865 0)
(1.07589 -0.0265802 0)
(1.08397 -0.0194832 0)
(1.08605 -0.0154641 0)
(1.08371 -0.0137792 0)
(1.08049 -0.0124061 0)
(1.0767 -0.0113698 0)
(1.07217 -0.0106939 0)
(1.06058 -0.0115399 0)
(1.04665 -0.0136014 0)
(1.03821 -0.0136459 0)
(1.03233 -0.0124151 0)
(1.02767 -0.0109281 0)
(1.02505 -0.00824355 0)
(1.0329 7.7021e-05 0)
(1.0408 0.0081127 0)
(1.0407 0.0111138 0)
(1.03722 0.0119272 0)
(1.03318 0.0125723 0)
(1.02868 0.0128546 0)
(1.01736 0.0105548 0)
(0.999186 0.00496527 0)
(0.98724 0.00294501 0)
(0.980157 0.00357338 0)
(0.974851 0.00469935 0)
(0.97057 0.0060671 0)
(0.974657 0.0123922 0)
(0.986945 0.0250228 0)
(0.990364 0.031656 0)
(0.987682 0.0339566 0)
(0.983493 0.0350261 0)
(0.978482 0.0358326 0)
(0.966549 0.0333782 0)
(0.944824 0.0229033 0)
(0.929311 0.015082 0)
(0.920462 0.0127007 0)
(0.913931 0.0123412 0)
(0.90839 0.0128148 0)
(0.906896 0.0170466 0)
(0.918408 0.0328092 0)
(0.926337 0.0471263 0)
(0.925368 0.0523972 0)
(0.921203 0.0530419 0)
(0.915883 0.0525626 0)
(0.907225 0.0506416 0)
(0.886488 0.0388267 0)
(0.86345 0.0228553 0)
(0.849009 0.0143608 0)
(0.839677 0.0108702 0)
(0.833098 0.00939732 0)
(0.827821 0.0101322 0)
(0.830939 0.0186798 0)
(0.838442 0.0329692 0)
(0.839662 0.0413186 0)
(0.835687 0.0438857 0)
(0.82908 0.0439791 0)
(0.820007 0.040375 0)
(0.805345 0.0312517 0)
(0.783234 0.0134453 0)
(0.762205 -0.00513724 0)
(0.747845 -0.0175368 0)
(0.740543 -0.0237578 0)
(0.738407 -0.02423 0)
(0.745545 -0.0181815 0)
(0.752858 -0.0181391 0)
(0.756369 -0.0257781 0)
(0.751275 -0.0293196 0)
(0.145609 -0.0733956 0)
(-1.08595 -0.0465021 0)
(1.18768 -0.0889664 0)
(1.17778 -0.0877138 0)
(1.16801 -0.0862714 0)
(1.1617 -0.0847216 0)
(1.15697 -0.0829949 0)
(1.1529 -0.0812021 0)
(1.15097 -0.0779791 0)
(1.15853 -0.0702025 0)
(1.16394 -0.0644926 0)
(1.16205 -0.0631167 0)
(1.15893 -0.0626518 0)
(1.15556 -0.0622459 0)
(1.15197 -0.0615843 0)
(1.1449 -0.0604877 0)
(1.13389 -0.0598788 0)
(1.12554 -0.0591479 0)
(1.1199 -0.0576648 0)
(1.1153 -0.0558962 0)
(1.11158 -0.0539128 0)
(1.11473 -0.0480891 0)
(1.12315 -0.0403541 0)
(1.12413 -0.0369321 0)
(1.12126 -0.036005 0)
(1.11797 -0.0352997 0)
(1.11438 -0.0346117 0)
(1.10973 -0.0338314 0)
(1.09887 -0.0342138 0)
(1.08747 -0.035118 0)
(1.08024 -0.0346579 0)
(1.07474 -0.0332527 0)
(1.07026 -0.031603 0)
(1.06813 -0.0284901 0)
(1.0758 -0.0198402 0)
(1.08227 -0.0128305 0)
(1.08134 -0.0105777 0)
(1.07806 -0.00977806 0)
(1.07444 -0.00913222 0)
(1.07055 -0.00867466 0)
(1.06242 -0.00945342 0)
(1.04734 -0.0128811 0)
(1.036 -0.0141713 0)
(1.02906 -0.0131485 0)
(1.02382 -0.0116336 0)
(1.01964 -0.0101365 0)
(1.02193 -0.0048919 0)
(1.03337 0.00591609 0)
(1.03747 0.0119425 0)
(1.03523 0.014059 0)
(1.03139 0.0146613 0)
(1.02725 0.015301 0)
(1.02021 0.0151723 0)
(1.00305 0.00974928 0)
(0.986871 0.00427188 0)
(0.978152 0.00310018 0)
(0.972148 0.00334701 0)
(0.967086 0.00408005 0)
(0.964205 0.00634674 0)
(0.973521 0.017081 0)
(0.983715 0.0300111 0)
(0.984223 0.0352137 0)
(0.980702 0.0367891 0)
(0.976159 0.0373919 0)
(0.970588 0.0373933 0)
(0.955774 0.030492 0)
(0.934727 0.0174285 0)
(0.920753 0.010871 0)
(0.911623 0.00987246 0)
(0.905173 0.0106855 0)
(0.900169 0.0115032 0)
(0.901638 0.0171513 0)
(0.91469 0.0341258 0)
(0.921375 0.0463064 0)
(0.919383 0.0499767 0)
(0.914046 0.0511181 0)
(0.907648 0.0519137 0)
(0.897229 0.0497702 0)
(0.876586 0.0356545 0)
(0.855401 0.0183616 0)
(0.841331 0.00956486 0)
(0.831503 0.00692192 0)
(0.824949 0.00644263 0)
(0.820513 0.00764619 0)
(0.824974 0.0165279 0)
(0.831997 0.028987 0)
(0.83265 0.0352568 0)
(0.828645 0.0367636 0)
(0.822014 0.0366132 0)
(0.812928 0.032534 0)
(0.798958 0.0230825 0)
(0.777607 0.00463806 0)
(0.757225 -0.0148404 0)
(0.744149 -0.0278612 0)
(0.738068 -0.0336137 0)
(0.738497 -0.0329434 0)
(0.749268 -0.0282879 0)
(0.758839 -0.0309533 0)