/*--------------------------------*- C++ -*----------------------------------*\
  =========                 |
  \\      /  F ield         | OpenFOAM: The Open Source CFD Toolbox
   \\    /   O peration     | Website:  https://openfoam.org
    \\  /    A nd           | Version:  12
     \\/     M anipulation  |
\*---------------------------------------------------------------------------*/
FoamFile
{
    format      ascii;
    class       volScalarField;
    location    "6.675";
    object      T;
}
// * * * * * * * * * * * * * * * * * * * * * * * * * * * * * * * * * * * * * //

dimensions      [0 0 0 1 0 0 0];

internalField   nonuniform List<scalar> 
46253
(
0.982681
1.01371
1.04333
1.0142
1.04142
1.03834
0.967601
0.920869
1.00493
1.00464
0.982961
0.887808
0.997617
0.999134
0.934346
1.0069
1.01105
1.00817
1.00387
1.00777
1.00398
1.03733
0.722406
0.979132
0.970122
1.00672
1.01091
1.01171
1.01046
0.916899
0.991107
1.00444
1.00205
1.00233
1.00138
1.03709
1.00626
1.00176
0.960999
0.796431
0.969471
0.90101
1.00501
1.00695
0.918175
1.00867
1.01021
0.825376
0.99624
0.9978
0.999831
1.00063
1.03425
0.982077
1.04575
0.932029
0.997
0.996355
1.01502
0.970166
1.03995
0.956464
1.0273
0.839364
0.935586
0.998961
1.0028
1.0377
0.932941
0.917293
0.966791
0.995643
0.995454
0.962149
1.03372
0.978587
0.991563
0.991395
0.763246
0.997986
0.996518
0.994864
1.03642
0.994636
0.967524
1.03277
0.985852
0.986027
0.852054
1.02999
0.820499
0.968981
1.03145
0.999779
0.855273
0.999242
1.03114
0.835372
1.01452
1.03767
0.817252
1.03069
1.03356
0.988582
1.04626
0.968294
0.925233
0.979327
0.978515
0.926838
0.963429
0.995349
0.995517
0.830193
0.773408
0.890264
0.884936
0.971152
1.04854
0.943824
0.78146
1.03641
0.994067
0.994039
1.03009
1.04964
1.03786
0.929851
1.04892
0.990528
0.973973
0.973738
1.03666
0.970742
0.990157
0.915451
0.988796
0.988838
0.943507
0.955428
0.992073
0.972698
0.972296
0.988712
0.992342
1.04642
0.986611
0.986419
0.961676
1.0297
0.926173
1.03256
0.989723
0.989463
0.982417
0.912511
0.929151
1.01644
0.98462
1.04579
0.984202
0.937941
0.93124
0.937516
0.968797
0.987937
0.970997
0.987454
1.07827
1.03699
0.982027
0.982297
1.03742
0.970749
1.04505
0.886436
0.932148
1.03283
0.943789
0.88304
1.04522
0.979402
0.981183
0.980813
1.02933
0.985609
0.985287
0.908453
1.02738
1.02844
1.03249
1.02159
0.970381
1.02152
1.01731
1.01613
0.963281
1.03012
0.956745
0.956633
0.785197
1.03799
0.98301
0.982572
1.03986
0.896595
0.975003
0.978234
0.978791
1.03954
0.742746
1.04917
0.970605
1.03368
0.944814
1.02974
0.989115
0.967537
0.975875
1.03742
1.0376
0.974764
0.886028
0.982095
0.982033
0.968343
1.0312
1.03213
0.952131
0.951413
1.00888
0.809117
1.03084
1.03315
1.0288
0.810983
1.01265
0.799821
1.00784
1.00653
1.02912
1.0312
1.02923
1.01329
0.934812
1.03408
0.978964
0.973243
1.02871
0.973502
0.973433
1.00636
0.946861
1.02866
0.945941
0.977937
0.977838
0.937961
0.969509
1.02761
0.972011
0.969099
0.905119
0.987243
0.936562
0.999752
0.788056
0.756215
0.978111
0.97066
0.977797
1.0317
1.04281
1.45991
0.970524
1.02958
1.04577
1.04316
0.98437
0.943541
0.940449
0.939914
1.03358
1.03388
0.740904
0.982352
0.963318
0.939485
0.984581
1.04186
1.01504
1.01703
0.961485
0.822942
1.01575
1.00061
1.03268
1.00008
0.969418
0.96725
1.04953
0.967018
0.931237
1.04634
1.01944
0.973892
0.974058
1.03613
0.986646
1.02687
1.02842
0.927958
0.857434
0.967218
1.0266
0.967229
0.940003
1.0152
1.04326
0.986293
0.930055
1.02707
0.969113
0.970078
0.967044
0.981211
1.02916
1.02783
0.964676
0.964456
0.929895
0.929472
1.01945
0.921309
1.02857
0.936896
0.934872
0.97156
0.97137
1.00028
1.0347
1.03213
0.728717
1.05049
1.03033
0.962671
0.962354
0.842122
0.937476
1.03337
0.971491
1.0322
0.884248
0.943624
0.937758
1.03079
0.969302
1.03263
0.96817
1.03181
0.926277
1.02154
1.0303
1.02077
1.02696
1.03041
1.03043
1.03063
0.960955
1.03071
1.02956
1.0295
1.02959
0.961022
1.03099
1.01179
0.943653
1.03092
1.03081
1.03495
0.968485
0.930735
0.930367
0.96695
0.959586
0.967662
1.0307
0.71724
0.959437
1.0557
1.03097
0.987251
0.958949
0.95063
1.02951
0.946144
0.979225
0.972842
1.02822
0.966658
0.863802
0.985125
0.985095
1.00893
1.03135
1.02629
1.01703
1.03255
0.703894
1.02857
1.02758
1.02263
1.04485
1.0291
0.962775
1.0263
0.973123
1.02824
1.0266
0.943773
1.02652
0.825357
0.957341
1.0194
0.966375
1.01983
1.03835
0.957266
0.965745
1.02163
0.926879
1.03827
0.858058
1.01345
1.01266
0.944698
0.976811
1.02985
1.01456
0.977143
0.931588
1.02849
0.962414
1.02212
0.948548
0.98395
1.02166
1.02974
0.934179
1.03223
0.943159
0.966742
0.976789
0.97271
1.31754
1.02556
0.955197
1.0261
0.963794
0.959634
1.02931
0.947066
0.947531
0.963522
1.03073
0.943346
1.03219
1.02415
1.02515
1.02957
1.02426
0.946441
0.902328
0.955028
0.931333
0.955016
0.947571
0.971899
0.955018
0.944779
0.984282
0.984192
1.03947
1.03043
1.03077
1.03771
1.05036
0.981148
0.951388
0.967105
0.892351
0.951154
0.962141
0.972227
0.961416
1.31764
1.03088
0.961566
0.962901
0.907352
0.961399
0.953593
0.953265
0.983266
0.969543
1.03027
0.983105
0.987766
1.028
0.706519
1.03084
0.968825
1.02777
0.96611
0.961602
1.04437
1.02667
0.954198
1.02635
0.934295
0.938643
1.04412
0.959753
1.02835
1.02744
0.959752
1.03133
0.95918
0.963585
0.959554
0.850603
0.940497
0.937452
1.00782
0.960244
0.959136
1.02842
1.03452
0.960439
0.978648
0.974109
0.949643
1.02562
1.02292
0.960304
1.04242
1.02637
1.02289
1.02353
0.931537
1.02344
1.02343
0.948591
0.941873
0.948391
0.970662
1.02187
1.02198
1.02095
1.02145
1.02812
1.02705
1.03258
0.962577
0.918561
1.02738
1.0213
1.0381
1.02766
1.02571
1.02234
0.973322
0.989062
0.950922
0.980186
1.02315
1.02512
0.930758
1.0021
1.02733
1.02357
0.958126
1.02497
1.02629
0.957928
0.97982
0.996755
1.03061
0.995424
0.995458
0.995779
0.995629
1.02424
0.947733
0.947662
0.987656
0.944127
1.02525
1.02156
0.968315
1.0296
1.04641
0.93602
1.02755
1.04637
1.02665
1.03021
0.986785
0.988558
1.03114
1.03052
0.919642
0.950054
1.03103
1.02889
0.974549
1.01894
1.01945
1.01719
1.01744
1.01606
1.01649
1.01403
1.01432
0.89876
0.951615
1.0127
0.931644
1.01315
1.01096
1.03087
0.974156
0.979734
1.01087
1.03028
1.00948
1.02684
1.01015
0.895185
0.95131
1.00685
1.0196
1.00678
1.03483
1.0313
1.00549
1.01255
1.00616
1.01185
0.921438
1.02054
0.938751
0.979375
1.02942
1.03007
1.00344
1.00309
1.03119
0.957022
1.00167
1.00275
0.965695
1.02875
1.02738
0.999536
0.943695
0.999439
1.02947
0.95604
0.99531
0.931475
0.995856
0.943687
0.955651
1.02862
1.02686
1.02431
0.995686
0.995816
0.986416
1.02819
1.02924
0.991106
0.956158
0.991454
0.930148
1.03066
0.988169
0.989706
1.02514
1.02544
1.02492
0.970222
1.02625
0.958741
0.968119
0.992832
1.03064
0.987531
1.02242
0.98803
1.02214
1.0322
0.961045
0.960506
0.983261
0.983077
0.952832
0.962978
0.983291
0.963596
0.984239
1.03073
0.977332
0.983312
0.981365
1.0318
0.935714
0.971776
0.975104
1.07058
1.02104
1.02124
1.02565
0.981909
0.955944
0.977931
1.0323
1.00764
0.967749
0.915536
0.966069
0.971316
0.961276
0.978219
0.972711
0.941712
0.933748
1.02248
0.954379
1.04876
0.941822
1.03046
0.923117
0.941468
0.932349
0.974165
0.974907
1.02009
1.02234
1.02056
0.954556
1.02243
1.02267
1.02206
1.02745
1.02315
0.954495
1.0551
1.02243
1.02226
0.949279
0.932977
1.0313
0.978171
0.887902
0.981523
0.8446
1.03375
1.03016
1.02796
0.799538
0.927318
1.02641
0.947876
1.02815
0.992321
0.927003
0.992918
0.936627
1.02435
0.955076
0.969191
0.995793
1.02672
0.880509
1.03078
0.742357
1.02152
0.993341
0.995434
0.924129
0.976025
0.975872
1.02989
0.938909
1.02658
1.03114
0.995357
0.960979
1.02606
0.933378
1.02662
1.02565
0.977221
0.971168
1.03122
0.994906
0.931283
0.949077
0.991642
0.961976
0.938247
0.996255
1.02591
0.943953
0.954682
1.02687
0.938074
1.06105
1.02874
0.935133
0.999365
1.00024
0.950693
1.02337
1.06256
1.04027
0.969336
0.920658
1.02758
0.962241
0.951134
0.932681
1.03376
1.02847
1.02632
1.01149
0.992508
0.991645
1.0198
1.0269
1.03234
0.950027
0.987192
0.950084
1.02731
0.987332
0.949374
0.964733
0.966234
1.04105
0.946112
0.966266
0.924852
0.945301
0.930522
0.978959
1.02789
1.03063
0.980838
1.00228
1.03289
0.951215
0.947395
1.0286
0.936197
0.934317
0.957055
0.939332
0.93466
0.935865
0.938774
0.936771
0.926187
0.925748
1.00897
1.03187
0.964048
1.03184
1.00891
0.946281
0.938903
0.940272
1.03035
1.0234
0.966907
1.02874
0.962722
0.965917
1.0263
1.02537
1.02474
1.02634
0.861952
1.02553
1.03057
0.949437
0.963001
0.941167
1.04368
1.03052
0.948059
1.01954
0.953924
0.954052
0.94817
1.02838
0.971355
0.948127
0.971253
1.0306
1.03066
1.0311
1.03052
0.94901
0.960645
1.00669
0.963904
1.02541
0.938734
1.00891
0.935919
0.981731
0.96949
1.03031
0.933998
0.933629
0.971911
1.04238
1.01978
0.940967
0.958383
0.957357
0.939577
1.02162
1.02176
0.947569
1.03029
1.03082
1.03074
0.962239
0.889774
0.964813
0.967135
1.03221
1.0223
1.02984
1.02236
1.02138
1.0231
1.05663
1.02292
0.981696
0.935388
0.935281
0.975181
1.02844
1.00715
0.997663
0.948142
0.973297
0.981391
1.06044
1.00691
1.00736
1.01084
1.00351
1.00674
1.00354
0.941406
1.00821
1.01134
1.00431
0.965763
1.01084
0.999333
1.00369
1.01195
1.02199
1.01373
1.00347
1.01369
1.02461
0.999656
1.01517
1.01489
1.01552
0.999114
1.01698
1.01583
0.997017
1.01699
1.02807
1.01784
0.998307
1.03012
0.996291
1.01844
0.907178
1.02959
0.931378
0.995507
1.02535
1.01934
1.02431
0.992452
0.995894
1.03211
1.02522
1.01402
0.994012
0.931252
1.01504
0.991585
1.03101
0.964909
0.991893
0.988715
0.987812
0.934913
0.983883
0.985505
0.984965
1.02738
0.979274
0.983994
1.03143
0.9795
0.973139
1.03167
1.0202
0.978263
0.93984
1.04106
0.979841
0.982446
0.973632
0.944877
0.971098
1.03439
0.978147
1.03071
0.967572
0.944488
0.981341
0.969007
0.973936
0.95384
0.967294
0.973664
0.975081
0.971041
0.965044
0.975742
0.978198
0.981708
0.992564
1.00267
1.03083
0.98779
1.02979
0.967928
1.03902
1.04103
0.939602
1.04849
0.990362
0.787693
0.931591
0.929328
0.98698
0.988543
1.03085
0.907706
0.995739
0.996459
0.9929
0.963661
0.996394
0.994715
0.996603
0.996664
0.945014
0.941399
0.962701
0.945909
1.03111
0.959748
0.936491
0.931245
0.964311
0.986104
1.00503
0.995352
0.888248
0.820362
0.988012
0.968951
0.955793
0.987762
0.928601
1.01917
1.02813
0.943901
0.969894
0.928477
0.995189
0.969277
0.978508
0.858247
0.94285
0.961672
0.942703
0.974048
0.968675
0.937756
0.932804
0.972308
0.96676
0.995367
0.959613
1.03163
0.995086
1.01211
0.945391
0.962237
1.03036
1.0317
1.01375
0.957445
1.0269
1.03044
1.01206
1.02021
0.960739
0.93044
0.995128
0.967985
1.01573
0.960957
0.961113
1.03181
0.991606
1.01467
0.928992
1.01539
0.93263
0.96298
0.962864
1.04576
0.997924
0.96266
1.02764
0.931301
1.01165
0.976842
0.984942
0.93125
0.939302
1.02134
1.01969
0.959596
0.929058
0.956531
0.94925
0.959674
0.959655
1.02128
0.98516
0.965307
0.962337
0.952705
0.926561
0.975326
1.0278
0.96222
0.943713
0.969079
0.931721
0.959888
0.995165
1.43204
1.02162
1.02276
0.938383
0.953468
1.0285
0.949174
0.963944
1.011
0.973658
0.940583
0.956758
1.03704
0.971064
1.00368
1.01713
1.01828
0.949057
1.00751
1.02263
1.0232
1.02289
0.962913
1.02162
0.953163
0.912735
0.941183
0.929554
1.03086
1.02307
0.930129
0.96986
1.02173
0.950073
1.01614
1.02218
1.01809
0.992136
1.01652
0.955092
0.931606
1.00406
1.02478
0.970242
1.01342
1.0104
0.950214
0.737188
1.0027
1.01501
1.01298
1.02766
0.961079
1.03411
1.02822
1.03034
0.936998
1.01411
1.03022
1.0065
1.00752
0.761991
1.03235
0.968768
1.01127
0.985478
1.01547
1.01224
0.939204
0.934193
1.01906
1.00891
1.01124
0.951503
0.985134
1.02
1.00635
0.938955
1.00212
0.996366
1.01585
1.00567
1.01612
1.03169
1.03071
1.00565
1.0162
1.02853
0.95643
0.933296
1.01641
0.956954
1.0055
0.963172
0.947226
1.01294
0.943301
1.03211
0.961901
1.01283
1.01331
1.02675
1.02959
1.02082
0.93467
1.0097
1.01396
1.01404
1.02713
1.02693
1.03125
0.940061
1.02355
1.01179
0.972009
1.02439
1.01032
1.01573
0.947426
0.953442
1.01812
1.0115
0.98225
1.00795
1.01111
1.03034
1.02451
1.01191
1.00678
0.995714
1.00813
1.01245
0.933337
0.870284
1.02473
1.00802
1.01168
1.0326
1.00808
1.02461
1.01542
1.01578
0.962925
1.01252
1.03099
1.02569
1.00281
1.00356
0.939668
1.00438
1.03148
1.00387
0.992055
1.02103
1.0003
1.03126
0.981583
0.9858
0.933452
1.00343
0.940836
0.996177
1.03115
1.00167
0.940008
0.930065
0.992738
0.993688
0.927626
0.993816
0.995152
0.963346
0.996616
0.996639
0.984966
1.00072
0.999317
0.971912
0.986599
0.995463
0.996627
0.999801
0.9932
0.98516
0.993618
1.02348
0.929013
0.993632
0.996855
0.985671
0.935671
0.960274
0.994985
0.992928
0.937315
0.995735
0.901612
0.996207
0.950587
1.03147
1.03765
0.93108
0.937012
0.957475
0.99327
0.994736
0.968033
1.00185
0.937606
1.00854
1.02908
1.02073
1.01128
1.02821
1.02937
1.01683
0.901963
1.02855
0.991092
0.988235
0.991716
1.03129
0.935214
1.00217
0.995553
0.99549
1.01515
0.988531
1.00657
0.997308
1.00467
0.956413
1.00748
0.98831
0.998147
0.988586
0.983776
1.03143
0.908611
1.0236
0.944097
1.03195
1.00632
0.938366
0.983207
0.99653
0.947703
0.998098
0.961413
0.980778
0.994758
0.971144
0.944763
1.0043
1.02338
0.979909
0.981548
1.02282
1.01924
1.02067
1.02113
1.02242
1.02147
1.02388
0.941681
1.03092
0.985303
1.02712
0.934071
1.00802
1.02283
0.935814
0.98094
0.927011
1.02998
1.01592
0.985166
0.959939
1.02273
0.960955
1.03855
1.02934
1.03051
1.01521
0.998884
0.949508
0.944199
1.00759
1.00904
1.02289
1.00211
0.964596
0.96852
1.00404
1.00718
1.03759
1.00665
1.0255
0.986437
1.03114
0.974175
0.974862
0.982025
1.03325
0.972166
0.976217
1.02027
0.963525
0.976254
0.985388
1.01073
1.0183
1.013
1.02597
1.01851
1.01617
0.972858
0.951556
1.01145
1.03009
1.01642
1.01514
1.00353
1.02345
1.03049
0.99082
0.939936
1.00605
0.934867
1.03146
1.02418
1.00621
1.02428
0.968197
0.99457
1.02427
0.969579
0.955052
0.970285
1.00932
1.02083
0.934689
1.00341
0.989168
0.93384
0.929878
0.934525
1.00485
0.984668
1.01153
0.964306
0.96285
0.928119
1.02529
0.967965
1.03213
1.0086
0.935585
0.998862
0.970511
0.940456
1.02724
1.02733
0.928441
0.929875
0.968893
1.02591
0.964024
0.979589
0.96353
0.963115
0.963997
0.990103
0.963352
0.999278
1.01411
0.999561
1.02727
0.98639
0.964256
0.987459
0.945754
1.0344
0.939629
0.991794
1.02252
0.950639
0.977261
0.929113
1.01575
0.933512
0.958072
0.967437
1.01588
1.04308
0.959921
0.934532
1.01993
0.967202
0.959869
1.00396
1.00823
1.0298
0.931546
1.02626
0.926399
0.950648
0.973964
0.931583
1.00022
1.02682
1.00472
0.879959
0.958753
1.01768
1.03632
0.979228
1.01577
0.992721
0.981258
1.01651
0.943424
0.954344
1.01425
0.992594
1.03457
0.95283
0.955538
0.843004
0.955793
1.02332
0.953373
1.01414
0.953276
0.934224
1.00939
1.01688
1.03161
0.972874
0.985864
0.958979
1.02865
1.01872
0.987377
0.99932
1.05382
1.01088
1.03309
0.948097
1.01703
0.95025
1.01691
0.984939
0.950952
1.02587
1.00008
0.98454
0.932691
1.02526
0.978844
0.9482
0.949065
0.904519
0.990189
0.979107
0.968488
1.01774
1.05842
0.959483
0.998065
1.00078
1.02783
1.02041
0.965827
1.03096
0.855249
1.02286
1.03179
0.737892
1.00395
1.02199
1.02902
0.985363
0.94407
0.928709
0.938215
1.00758
0.949068
0.944437
0.943731
1.00559
1.00938
1.01262
0.944083
0.961817
0.985343
1.01099
1.03627
0.977035
0.907113
1.06051
1.02247
1.01689
1.02418
0.938903
1.00938
1.02281
0.938207
1.02538
0.939445
0.935329
0.97553
0.936777
1.02519
1.02445
0.996778
0.993057
0.915512
0.959242
1.0251
1.02351
0.959531
1.01688
0.932526
1.03062
1.018
0.932172
0.934665
0.936818
1.01583
0.95592
0.867137
0.924714
0.933654
1.0292
0.862212
0.932089
0.89588
0.912021
1.00332
0.996332
1.039
0.971526
0.947744
0.975517
0.956785
0.975626
0.971599
0.973516
0.96721
0.991272
1.02915
0.94502
1.022
1.0227
0.956195
0.952028
0.95686
0.953248
1.01593
0.975104
1.02148
1.0332
0.955929
0.967701
0.946247
0.955703
0.925743
0.948644
0.992091
1.02021
0.968011
0.90919
1.027
0.989848
1.02371
0.933851
1.0297
0.974703
1.00253
0.913149
1.02347
0.931117
0.953754
0.71929
1.03052
0.964223
0.964152
1.01677
1.0221
1.02063
0.962023
1.02179
0.961811
0.947363
0.875315
0.937031
0.993599
0.962993
0.986406
1.0313
0.874504
0.941147
1.0319
0.927208
1.00108
0.986533
0.947951
0.955905
1.03197
1.02437
1.00695
0.992633
1.00785
0.864073
0.864681
1.02253
0.944943
1.00808
1.02213
0.956802
1.28793
1.27634
1.00714
0.960532
1.01093
0.957215
1.02036
0.99617
1.01494
0.943726
1.0034
0.947135
1.00837
0.983579
1.00508
1.014
1.01032
0.940587
1.00471
1.00288
0.945752
1.01005
1.01159
1.01457
0.945974
0.93426
0.894371
0.952185
0.984157
0.915073
1.01393
0.997545
1.01098
0.952284
1.03723
1.00294
1.00693
0.968905
1.01305
0.960644
1.00963
1.0258
1.03061
1.01324
1.01657
1.03124
1.00676
1.00392
1.01521
1.00257
1.00006
1.03312
0.988471
1.01891
1.02141
0.974347
0.977166
0.993961
1.0166
1.01612
0.98476
0.934762
0.947639
1.01287
0.999639
0.998288
0.97426
0.977194
1.02095
1.02939
1.01748
1.02927
1.02008
0.975074
0.947347
0.9966
1.01602
0.968697
0.945555
0.947741
0.984677
0.943671
0.966525
0.989234
0.962675
0.994835
0.950047
0.996557
0.95475
1.02079
1.01835
0.974482
0.990494
1.03051
1.02264
1.00532
1.00949
0.950073
0.966368
1.03759
0.992267
1.02115
0.945111
1.03049
0.977277
1.00617
1.04067
0.966659
0.936452
0.949329
0.9632
0.99007
0.956727
0.99251
0.950152
1.02975
0.965427
0.960381
0.941938
0.983676
1.01519
0.974316
1.01236
1.02643
0.992914
0.988693
0.967365
0.980931
1.02334
0.975273
0.933739
1.01961
1.03232
0.9672
1.01675
1.02762
0.988159
0.961207
0.929645
0.984294
0.979439
0.968631
0.979142
0.983515
0.980073
0.928748
1.00732
0.935047
0.930359
0.984424
0.974623
1.00816
0.935487
0.980563
0.96301
0.97337
0.979596
0.9634
0.973094
0.924276
1.01632
1.01059
0.94452
0.979387
1.02849
1.00959
1.02208
0.955586
1.00405
0.974847
1.02953
1.00437
0.974283
1.01084
0.97355
1.01073
1.0064
1.02692
0.93083
0.985912
1.01874
1.00289
0.997332
0.922118
0.968276
1.02744
0.97544
0.931038
0.981022
0.932659
0.985703
1.00383
0.97873
0.966358
1.00672
0.976623
0.968554
0.985243
1.03116
0.974211
0.975509
1.0046
0.973901
0.951553
0.966579
0.963804
0.979025
1.02489
0.972008
1.02059
0.96831
1.00303
0.970984
0.973116
0.992561
1.04746
0.984074
1.02302
1.03013
1.0056
0.968231
1.00419
0.97124
0.95262
0.968785
1.00061
1.00208
1.01894
1.02455
0.999894
0.964324
0.943527
1.00035
0.984331
1.0188
0.988016
1.00653
0.955199
0.965085
1.02193
0.983602
1.00115
1.02108
0.966551
0.963582
0.960544
1.00123
1.02474
0.99554
0.97838
1.00256
0.959445
1.0241
1.03058
1.03054
0.958959
1.02895
1.02861
0.957826
0.940523
0.987897
0.960278
0.998795
1.01894
1.01815
1.01723
0.973
1.01833
0.949038
1.02709
0.941372
0.960765
0.946596
0.94866
0.959694
0.940857
0.998463
0.93492
0.95154
0.995804
0.970181
0.954193
0.998653
0.990038
1.01925
0.995809
0.956136
1.02231
1.02206
0.98353
1.02061
0.985961
0.796982
0.988964
0.956273
0.954863
0.984624
0.982132
0.99587
0.957111
1.02054
1.00408
1.00475
1.04498
0.998857
0.995956
1.00424
1.01386
0.948751
1.02137
0.987639
0.951682
0.973354
0.98007
0.993564
0.984623
1.02769
0.993775
1.04534
1.01054
0.992335
0.951889
1.01097
0.956403
0.949208
0.957767
1.02972
0.994316
0.970039
0.936485
0.955347
0.979133
0.970799
0.971687
0.984578
0.970597
0.983942
0.977807
0.916618
0.821727
0.994621
0.98674
0.956671
0.988685
0.95748
0.992773
1.03125
0.94552
0.944159
1.01973
1.02943
1.01178
1.02091
0.992768
1.00699
0.941052
1.00556
0.953858
1.03036
0.946377
0.946908
0.990736
0.982456
0.94369
0.984615
0.983774
0.987983
0.950553
1.0194
1.01392
0.961633
0.999245
0.910139
1.01639
0.926272
0.995243
0.942521
0.989995
0.951613
0.99304
1.0226
0.995559
0.997751
0.996177
0.995691
0.996573
0.952006
1.01519
0.939373
0.948288
1.0226
0.990711
0.961179
0.995643
1.02432
0.995676
0.938371
0.949119
1.01427
1.01152
1.0046
1.00175
0.997546
1.01967
0.993037
0.993148
1.00061
0.983324
1.02319
1.02077
0.992956
0.933064
0.946685
0.938332
1.01002
1.01115
0.988175
1.04529
1.00344
0.976116
0.932892
1.00289
1.00304
0.95328
0.888304
0.988642
1.00229
0.964061
0.933339
0.927814
0.904496
1.01207
0.929396
1.0048
0.928365
1.02872
0.968766
0.9991
0.946363
0.926935
0.98722
1.00443
1.02349
0.953616
0.947004
1.00312
0.9471
0.938399
1.00959
0.958708
1.00364
0.986696
0.986615
0.941505
0.986444
0.972186
0.992507
0.998003
1.00229
1.00389
0.986667
0.993157
0.986409
0.937986
0.87955
0.993334
0.88488
0.980301
1.03309
0.94772
1.03138
0.941969
0.980902
1.02934
1.02788
0.951658
1.00414
1.03139
0.932247
1.03764
1.02394
0.945148
1.01903
0.937448
0.933588
0.978088
0.890239
0.979632
0.920977
0.947716
0.981523
0.9477
0.961068
0.969682
1.01914
0.968865
1.03187
0.976561
1.00946
1.00578
0.974647
0.996507
1.00313
0.975846
1.0029
1.01912
0.981497
0.886493
0.975918
0.998897
1.00708
0.96073
0.96556
0.976915
0.966402
0.996729
0.999507
0.991947
1.02987
0.89578
1.02345
1.00472
0.889331
1.01963
0.973762
1.02886
0.988406
0.983891
0.933547
0.973855
1.00355
0.958352
1.0248
0.942604
0.943067
0.997292
1.00865
1.02454
0.970874
1.02222
1.00893
1.00693
1.02675
0.997856
0.971726
0.970337
0.907381
1.01022
1.02769
1.03643
1.00962
0.969671
1.01015
0.939556
1.01038
0.969466
1.02844
0.960596
0.978742
0.954016
0.968615
0.928099
0.979439
0.979409
1.01227
0.969461
1.00447
1.00811
1.02869
1.02168
1.02895
0.904332
0.964407
1.01887
0.93713
0.967605
1.01003
0.984219
0.975501
0.991856
0.952054
0.964731
1.01098
0.935731
0.968552
0.990492
0.939883
0.963875
1.02172
1.00646
0.964231
0.991335
1.00792
0.993409
0.99085
1.01016
0.939892
1.01523
1.01395
1.02434
0.948945
0.985358
0.965231
1.02249
1.02033
0.943345
1.0197
1.01211
1.02146
0.965587
1.00959
1.02281
0.967736
0.974037
0.942557
0.989212
0.94504
1.00596
0.961237
1.04923
0.933752
1.01104
1.0294
0.953209
0.93443
0.944515
0.989373
0.961704
1.0297
0.984149
0.895678
0.976201
1.01617
0.99735
1.00945
1.01655
0.973682
1.02147
0.974912
0.948576
1.01537
1.05768
0.97527
1.02268
0.960672
1.02533
1.04572
1.00477
1.02571
1.01609
1.02169
0.948138
0.960884
1.01838
0.955187
0.950779
1.01634
0.986068
0.925106
1.02055
1.05879
1.02658
0.927273
0.949957
0.958066
0.958558
0.939018
1.01622
1.0296
1.01656
0.985624
1.02941
1.01617
0.953624
0.933679
1.01191
1.01606
0.953118
0.948798
0.955862
0.956259
0.992413
0.931085
1.02461
0.95034
0.956128
0.952185
0.923737
0.988114
0.955522
0.964341
1.02932
0.963372
1.02352
1.01569
1.02463
0.911736
0.962027
0.981147
0.953869
1.024
0.908725
1.01859
1.02957
0.954472
1.02534
1.04472
0.943005
0.958485
1.03467
0.980008
0.95234
0.957895
1.01114
1.02432
1.02708
1.02821
0.960748
1.01542
0.98475
0.951062
1.01953
1.01013
0.951742
1.01926
0.960197
1.01991
1.01059
1.02477
0.962926
0.947833
0.948316
1.00816
0.986106
0.962385
0.95781
1.02915
1.02924
1.0079
0.984764
1.00915
0.940647
0.964128
1.01224
1.02591
1.02731
1.02559
1.02582
0.945113
1.02053
0.958871
0.963616
1.00338
0.99825
0.96059
1.00684
0.945537
0.896341
1.03042
0.943974
0.992887
1.0266
1.01327
0.999207
1.00183
1.02967
1.00736
1.01028
1.00797
1.00341
0.960716
0.96769
1.04857
0.999
1.02249
1.00314
0.935016
1.00009
1.00027
1.00863
0.967106
1.03051
0.96194
1.03026
0.974076
1.00332
0.958804
1.03005
0.933724
1.00749
1.02928
0.983621
0.933818
0.999985
1.01893
1.02882
0.972349
1.0299
0.893865
0.934692
0.970359
0.93046
1.00076
1.04249
1.02911
1.04305
0.944194
1.04518
0.956495
0.99869
1.00625
0.969893
0.965783
0.956722
0.983531
1.00315
0.965598
0.966894
1.02905
1.02308
0.934022
1.00643
1.00074
0.982654
0.973773
0.996304
0.998431
1.01242
0.972928
1.02497
0.947611
0.974958
0.995021
1.05245
0.965399
0.954087
0.933482
1.00335
0.996571
1.01277
0.97469
0.963049
0.98372
0.967122
0.933221
0.951326
0.992979
0.944209
0.933875
1.02938
0.957307
1.02012
1.02965
0.994526
0.980021
0.995359
0.944385
1.02031
1.02808
0.944525
0.957296
1.0329
0.991738
1.02022
0.978043
0.957608
1.02975
1.06211
1.0202
0.98061
1.02039
0.963469
1.02721
1.03031
0.993174
0.970663
0.977387
1.0206
0.939862
1.03107
1.00183
0.971579
1.04643
0.979436
0.97187
1.03566
0.980615
0.952896
0.945116
1.00846
0.989134
0.992205
0.971277
0.978408
0.980309
1.03628
0.953285
0.997357
0.945557
1.03228
1.00242
1.02031
1.02242
0.907229
0.984591
0.980918
1.03383
0.932697
0.94348
1.03557
0.972064
0.99253
0.92969
0.967665
0.947367
0.989115
0.975099
0.93822
1.02809
0.947446
0.980362
1.02051
1.03026
1.02822
0.984202
0.939735
0.986518
0.947565
0.967069
1.02972
0.984874
0.987236
0.97785
0.983392
0.944254
1.0312
1.02357
1.04125
0.984007
0.98236
0.944644
0.979294
1.01867
1.0299
0.948705
0.982926
0.890755
0.985506
0.982233
0.932956
0.931764
0.933506
1.03577
0.983807
0.930829
1.02557
1.02001
0.977763
0.987627
1.00526
1.02908
0.985657
1.02915
1.00939
1.0009
0.94958
1.0103
0.976395
0.988372
0.955474
0.971915
0.980608
1.007
1.02949
1.02818
0.965019
0.994522
0.985
0.985044
1.03032
0.982207
0.986756
0.977409
0.965579
0.900158
1.03028
1.01312
0.977809
1.03483
1.02031
1.00364
0.936584
0.974677
1.01063
0.954262
0.977349
0.97433
0.950004
1.00626
1.01105
0.96295
0.988178
1.0014
1.01667
1.02356
0.97786
0.977345
0.972688
0.999959
1.00178
1.01812
0.989395
1.01272
1.02547
0.973442
0.990104
1.02932
0.98804
0.974841
0.979074
0.969812
1.03042
0.98948
0.940409
1.0211
1.03467
0.973241
0.969849
0.984672
1.02951
1.01709
0.958831
1.02845
0.970237
0.990544
0.965802
1.02961
1.02954
0.982136
0.969927
1.02937
0.989876
1.02919
0.965425
0.989587
0.93581
1.02887
0.967065
1.0297
0.962866
0.988771
1.02416
0.981255
0.9936
0.964618
0.960883
1.02024
1.02003
1.01739
0.983419
0.993073
0.95749
0.964245
1.00546
0.959324
0.994094
0.989278
0.937235
1.00268
1.0252
1.02936
0.973406
1.00475
0.937529
1.02938
0.981376
1.0036
1.01707
0.960819
0.956243
0.982389
0.954696
0.994224
1.02673
0.956564
0.993856
0.992512
0.954149
0.960089
0.93655
0.951747
0.957863
0.968366
0.988733
1.02556
1.03463
0.994073
0.928787
0.955144
1.01431
1.00633
0.96386
0.946465
0.966677
1.02307
0.956866
0.993667
0.97137
0.989889
1.00058
1.02094
1.00045
0.952257
0.98653
0.9966
0.95549
1.0164
1.02972
0.992937
0.948984
0.970624
1.03049
1.03545
1.02665
1.02234
1.00367
0.995879
0.77658
0.952419
1.01049
0.989332
1.0233
0.954462
0.986516
0.998304
0.946282
1.03167
0.950022
0.999031
0.933431
1.00571
1.00735
1.02183
0.992912
1.02803
0.998138
0.974078
0.922183
1.01727
1.03445
0.942815
0.974797
0.946921
1.0071
0.990539
0.998002
0.99788
1.02553
1.0119
0.974618
1.03446
0.985359
0.943552
0.940185
0.944882
0.998222
1.02806
0.921596
1.01746
0.996968
0.974589
1.01286
1.01481
1.0375
0.983948
0.988973
0.980898
0.893978
1.01163
1.0305
1.03055
0.967229
0.991535
0.954494
1.01866
0.977758
0.996408
1.03293
1.00038
1.02825
0.990061
1.02112
1.00006
1.02873
1.02705
0.997831
1.02352
1.00148
0.959121
1.02805
1.06414
0.995782
1.04021
0.972588
1.01808
0.974371
1.0256
0.963836
1.00116
1.02894
1.00103
1.02131
1.01828
0.975341
0.99564
0.882807
0.990728
1.01991
0.999475
1.01315
1.04695
1.00712
1.03411
1.01967
0.884384
1.03444
1.00355
0.876625
1.02785
1.03042
0.959514
1.0079
1.03129
1.05489
1.01517
0.996012
1.01634
1.0012
0.920171
1.00314
0.968458
0.967851
0.951068
0.939084
0.938151
0.985742
0.995207
0.952008
0.957927
0.953539
1.02051
1.01721
1.00076
0.969551
1.02126
1.02087
0.933887
1.02889
1.00347
0.973587
0.998049
1.03088
0.998772
1.00331
0.984906
0.991036
0.953233
1.0201
1.00392
0.971716
1.02256
0.898584
0.998492
0.985121
0.986105
0.949087
0.986778
1.0398
0.902834
0.928228
0.98585
0.887294
1.00346
1.0034
1.02806
1.01665
1.02226
1.04073
0.937024
1.01493
1.01262
1.02285
0.991172
1.01127
0.917846
1.01792
1.0004
0.988894
0.898018
1.01773
1.00289
0.916382
1.00977
0.993022
0.970822
1.00765
1.01684
1.01854
1.02035
1.00432
0.985583
0.999432
1.04629
0.990497
1.03296
1.0075
0.958182
1.01365
0.987505
1.01536
0.967502
0.999094
0.927455
1.01815
1.02907
0.887208
1.02988
0.972735
0.956441
0.859987
0.954737
0.946525
0.96239
0.957386
1.03659
0.993478
1.02817
1.03821
1.01925
1.00201
0.948037
1.00998
0.93142
0.974581
1.02008
1.03445
1.02706
0.877944
0.934408
1.02938
0.942155
1.00211
0.976826
0.946618
0.984754
0.947101
1.01316
0.947668
1.0272
0.994097
0.987374
0.859501
1.00915
0.977483
1.00743
0.940063
0.908807
0.997962
1.04417
1.01582
0.97846
1.0083
0.908224
1.02648
1.02913
0.977162
0.997452
1.02801
0.981524
0.997116
0.925417
1.02244
0.865708
0.97583
0.976959
1.0034
1.02109
1.02649
0.992574
0.941639
0.947666
0.94037
0.989455
1.02858
0.980712
0.939792
0.946283
0.95033
0.94148
0.937867
1.02939
0.999009
0.981703
0.98396
1.00233
0.935519
1.02857
1.02897
1.02294
0.981332
1.00397
0.981209
0.988929
0.984699
0.939877
1.04968
1.02965
0.952085
0.947086
1.00383
1.02956
0.945434
0.948176
1.0075
1.01981
0.936114
0.987154
0.924899
0.973873
0.933694
0.99015
1.00163
1.0224
0.998699
0.981234
1.00922
1.0026
0.944053
0.999996
0.886911
0.951376
0.985368
1.0025
0.984097
0.957065
1.01069
0.988245
1.03073
0.985283
1.02891
1.00785
0.991528
0.889483
1.01042
0.942172
1.00668
0.987537
1.02636
1.00215
0.981659
1.0203
0.988124
0.981534
0.956721
0.986648
0.984136
1.0364
1.01013
1.00619
0.982416
0.981395
0.926443
0.953438
1.02764
0.982101
0.960943
0.958106
0.925347
0.892029
1.01664
0.890524
0.99073
0.925625
1.00973
1.03468
0.910337
1.02798
0.992845
1.02388
0.984517
0.986581
0.957449
0.947311
1.02668
1.02176
0.988142
1.01047
0.955152
0.965341
0.994719
0.966613
0.936008
1.02785
0.907045
0.970452
1.0162
0.980025
1.0279
0.939672
0.940163
1.01288
0.985888
0.987899
1.03029
0.974526
1.0304
0.957324
1.00791
0.964611
0.991262
1.01259
0.903272
1.0302
0.968622
1.03629
0.973775
1.01634
0.98317
1.00648
0.985988
0.987865
0.939139
0.978743
0.959672
0.939078
0.838077
1.01714
0.838316
1.01188
0.938163
0.992563
0.982839
0.976189
1.01231
0.912889
1.00811
0.966017
1.01386
0.987266
1.00685
0.968126
0.984905
0.964568
1.01066
0.9709
1.02575
0.836371
1.02802
1.00704
0.987185
0.939434
1.04619
0.986665
0.993393
1.00693
1.01423
1.00038
1.03465
1.00451
0.977642
0.940187
0.970565
0.862123
0.983656
1.01561
1.01449
1.02796
0.989053
0.963079
0.999959
1.01096
1.00595
0.988279
0.935595
1.00261
0.982976
1.01268
1.01867
0.929549
1.00686
1.01447
0.858761
0.943376
0.875095
0.986967
0.976004
1.01294
1.01292
0.952916
0.942181
0.998501
0.966433
0.994169
1.01194
0.970585
0.884542
1.01629
1.00763
1.00633
1.01562
0.96813
0.937382
1.02005
1.00631
1.03494
0.975385
1.01328
0.977248
0.963489
1.03379
0.999117
0.99469
0.995016
0.980293
0.974655
0.994787
0.982101
1.01016
0.958559
0.983531
0.983097
1.03559
0.985434
0.978205
0.988169
1.01961
1.00401
0.980282
0.975497
1.01466
0.989851
0.97956
0.977078
1.00993
0.952611
0.993108
0.941128
0.983604
0.979555
1.014
0.98576
0.989086
1.02902
0.993194
0.954326
0.960319
0.959041
0.98196
1.01086