/*--------------------------------*- C++ -*----------------------------------*\
  =========                 |
  \\      /  F ield         | OpenFOAM: The Open Source CFD Toolbox
   \\    /   O peration     | Website:  https://openfoam.org
    \\  /    A nd           | Version:  12
     \\/     M anipulation  |
\*---------------------------------------------------------------------------*/
FoamFile
{
    format      ascii;
    class       volScalarField;
    location    "4.5";
    object      p;
}
// * * * * * * * * * * * * * * * * * * * * * * * * * * * * * * * * * * * * * //

dimensions      [1 -1 -2 0 0 0 0];

internalField   nonuniform List<scalar> 
46253
(
1.00357
1.05163
1.21418
1.05079
1.21011
1.20706
0.98676
0.788342
1.04727
1.0469
1.00692
0.777215
1.02505
1.02584
1.03594
1.04469
1.04375
1.03342
1.03408
1.03904
1.03899
1.20205
1
0.987458
1.04787
1.04887
1.04134
1.04063
1.04884
0.79016
1.01056
1.01768
1.01701
1.03695
1.03628
1.07126
1.02883
1.02817
0.851971
1
0.894431
0.756759
1.02067
1.02004
1.01579
1.0314
1.03107
1
1.01209
1.01132
1.00907
1.00829
1.19115
0.829824
1.22259
0.829334
1.00345
1.00272
1.10053
0.937385
1.07289
0.952372
1.07148
1
1.03754
1.02295
1.0226
1.19799
0.833604
1.01309
0.854949
1.00042
0.999662
0.944078
1.19288
0.99354
0.984219
0.983416
0.999984
1.01492
1.01432
0.994675
1.19216
0.994168
0.907245
1.19729
0.963431
0.963242
1.08094
1.07424
1
0.869232
1.19407
1.00604
1
1.00545
1.18074
1.00837
1.09789
1.07266
1
1.16642
1.19956
1.00712
1.22112
0.980183
0.751879
0.941866
0.940935
0.774335
0.87203
0.997362
0.996598
1.00705
0.999978
0.934307
0.756578
0.943643
1.22688
0.823881
1
1.20471
0.991878
0.990821
1.11337
1.23403
1.0727
0.814629
1.24034
0.979491
0.927238
0.92656
1.20434
1.0521
0.978262
1.06174
0.973655
0.973074
0.818477
1.06564
0.98605
0.916221
0.916469
0.998235
0.98662
1.23229
0.966748
0.9658
0.829313
1.07424
0.772502
1.19047
0.976274
0.975371
0.971195
0.839673
0.806228
1.00006
0.958557
1.21938
0.957453
0.753038
0.828938
1.06623
1.07406
0.970697
1.03954
0.969808
1.33469
1.07153
0.951221
0.951157
1.19947
1.02686
1.21742
1.05428
0.96315
1.16394
0.94135
0.756714
1.21789
0.968212
0.945616
0.944312
1.12347
0.961623
0.960733
0.992804
1.12301
1.12256
1.19122
1.11375
0.963883
1.1138
1.12998
1.12987
0.864653
1.10641
0.892566
0.893056
1.00092
1.07188
0.954361
0.953408
1.07329
0.759559
0.963793
0.936192
0.935344
1.07191
0.999982
1.22622
0.963826
1.1996
0.94796
1.10551
0.995548
0.901266
0.92888
1.19994
1.19487
0.928839
1.05207
0.949077
0.948442
0.883272
1.10862
1.12819
0.879465
0.878913
1.05758
1
1.07643
1.07661
1.11104
1
1.12738
0.999998
1.05579
1.07392
1.11131
1.15068
1.10244
1.12787
1.06221
1.19552
0.999985
0.962351
1.10161
0.918354
0.917611
1.07016
0.864804
1.10084
0.863265
0.938883
0.938139
0.848807
0.962002
1.09941
0.99846
0.902032
0.79205
1.00026
0.942766
0.999992
1.00051
0.999997
0.9323
0.910427
0.93131
1.12603
1.07383
1
0.909383
1.10958
1.22685
1.06836
0.773376
0.862782
0.847031
0.845685
1.19586
1.20062
0.999996
0.964764
0.97078
0.829346
0.988734
1.07219
1.09176
1.09009
0.902367
1
1.08502
1.03305
1.14015
1.03241
0.900653
0.903907
1.21475
0.903822
0.814234
1.21281
1.12287
0.923347
0.920972
1.07172
1.00048
1.12295
1.12261
0.95201
0.999987
0.90005
1.0953
0.901584
0.816581
1.08383
1.07352
0.747742
0.801045
1.09474
1.07686
1.05116
0.757552
0.984971
1.09409
1.10367
0.898715
0.899495
0.96283
1.02539
1.12328
1.06042
1.09341
0.958716
0.84699
0.914162
0.912887
1.00008
1.19113
1.19095
0.999985
1.22757
1.09079
0.897861
0.898268
0.999999
0.831395
1.15412
0.854402
1.07237
0.753038
1.01931
0.76774
1.08839
0.907332
1.07151
0.906178
1.07403
0.783178
1.12141
1.0977
1.12189
1.12242
1.09574
1.09509
1.0951
0.895479
1.09042
1.08736
1.08812
1.08791
0.894329
1.09556
1.07988
0.815187
1.11834
1.09037
1.07159
0.935468
0.95896
0.803044
0.902101
0.749544
0.901054
1.09135
1
0.896046
1.25307
1.1241
0.990933
0.89479
0.964871
1.09021
0.792709
0.956974
0.959459
1.09862
0.900438
1
1.04191
1.05594
1.07828
1.11733
1.1319
1.12931
1.07482
1
1.09279
1.09644
1.12345
1.19369
1.12348
0.896874
1.13029
0.956996
1.10319
1.09235
0.843557
1.13154
1
0.893339
1.09448
0.901608
1.09458
1.06868
0.893547
0.900019
1.1188
0.957095
1.07092
1
1.13104
1.13129
0.873598
0.930813
1.12204
1.12921
0.852007
0.804586
1.13746
0.966873
1.11932
0.878476
0.975231
1.11409
1.09785
0.839703
1.00001
0.862087
0.901905
1.06826
0.954419
1
1.12883
0.920123
1.12821
0.898351
0.88343
1.09643
0.882325
0.883695
0.898025
1.08989
0.882841
1.16538
1.12283
1.13198
1.08858
1.12322
0.944363
1.00336
0.917147
0.811095
0.885029
0.841282
0.959895
0.883475
0.938807
1.00141
1.03516
1.07157
1.10984
1.1075
1.07273
1.24537
0.999989
0.860333
0.908951
0.753739
0.862349
0.879581
0.94833
0.881133
1
1.08896
0.896882
0.893297
0.782899
0.896493
0.881948
0.881285
0.994785
0.972031
1.09702
0.994117
1.00392
1.07571
1
1.09711
0.917589
1.12972
0.742307
0.955571
1.07344
1.12348
0.8864
1.09585
1.06664
0.956572
1.12404
0.902908
1.10007
1.09868
0.903034
1.09276
0.900691
0.901882
0.900739
0.999985
0.997331
0.981148
0.999989
0.882289
0.893212
1.09086
1.07204
0.894374
0.999994
0.994373
0.835859
1.09206
1.11025
0.896434
1.0736
1.07188
1.1094
1.11109
0.718685
1.10676
1.10758
0.870503
0.847
0.869567
0.942695
1.09426
1.09543
1.0896
1.09117
1.10005
1.13626
1.07666
0.879232
0.73615
1.11987
1.12709
1.07293
1.12465
1.11906
1.12858
1.00421
0.994307
1.06653
0.98267
1.12337
1.10902
0.815256
0.999992
1.12162
1.11995
0.893285
1.11603
1.12638
0.893409
0.979704
1.01559
1.09637
1.01892
1.01927
1.0232
0.957239
1.12488
0.866503
0.866628
0.991526
0.788962
1.11852
1.11467
0.94046
1.09221
1.21442
0.939686
1.12886
1.21727
1.13417
1.08953
0.999765
1.00483
1.08901
1.09539
1.24839
0.887179
1.09023
1.09082
0.941969
1.08284
1.08406
1.08078
1.08147
1.08241
1.08421
1.0811
1.08158
1.01415
0.873498
1.07327
0.95746
1.07513
1.0695
1.09063
1.00236
0.997564
1.07073
1.09597
1.06114
1.09147
1.0616
1.00166
0.880833
1.05532
1.08564
1.05724
1.1574
1.13796
1.04985
1.13185
1.05007
1.1322
0.733822
1.08576
0.857875
0.994347
1.121
1.12151
1.04078
1.04284
1.09731
0.898782
1.03712
1.038
0.942384
1.10452
1.10309
1.02702
0.856183
1.02602
1.09928
0.890322
1.01619
0.820601
1.01908
0.855408
0.888795
1.08956
1.12078
1.1205
1.01393
1.01431
0.688357
1.08857
1.08735
1.00153
0.867336
1.00297
0.805928
1.09461
0.991174
0.994319
1.12182
1.12431
1.12233
0.949223
1.12484
0.893371
0.927233
1.01228
1.10736
0.982431
1.1078
0.985891
1.10722
1.09382
0.895723
0.896396
0.977694
0.977113
0.876955
0.901651
0.967566
0.901932
0.969057
1.10459
0.958962
0.957468
0.9599
1.12398
0.841193
0.953268
0.952015
1.3038
1.09067
1.09066
1.12346
0.941887
0.872097
0.945396
1.05344
1.26175
0.883737
0.776958
0.940829
0.939084
0.926661
0.926293
0.928803
0.82677
0.831862
1.10035
0.894449
1.22481
0.850864
1.07603
0.799438
0.849945
0.815569
1.11118
0.989328
1.08629
1.10099
1.0878
0.881711
1.10783
1.10377
1.10722
1
1.1055
0.882004
1
1.09894
1.09715
0.838538
0.831098
1.09334
0.951913
1.05113
1.00932
0.999991
1.07336
1.09279
1.13619
1
0.960589
1.10897
0.877965
1.13005
1.0118
0.967943
1.0138
0.825149
1.12403
0.968413
0.885387
1.02149
1.13472
1.00066
1.09733
1
1.10846
1.01532
1.0148
0.962038
0.961772
0.956581
1.08895
0.861905
1.09227
1.08952
1.01668
0.917016
1.13123
0.896814
1.13126
1.1328
0.959089
0.958769
1.09215
1.01827
0.818529
0.878698
1.10538
0.880311
0.842988
1.13859
1.13446
0.883734
0.886076
1.13392
0.843152
1.11182
1.13807
1.07096
1.03118
1.0343
0.873279
1.11092
1.10708
1.10659
0.887523
0.972838
1.12246
0.894326
0.774964
0.81194
1.1506
1.09715
1.09589
1.16113
1.00297
1.00112
1.0845
1.13715
1.07338
0.876208
0.98956
1.02371
1.13818
0.988644
0.87399
0.879432
0.876934
1.07131
0.876779
0.900917
0.80407
0.873888
0.794211
0.966149
1.12249
1.12202
0.965579
0.999985
1.12452
0.880584
0.874775
1.12353
0.831631
0.827207
0.898454
0.828273
0.848819
0.829942
0.81972
0.814232
0.805333
0.803898
1.06506
1.14121
0.675008
1.14339
1.06384
0.885476
0.842011
0.831754
1.12928
1.12289
0.901593
1.10462
0.896156
0.902305
1.12986
1.12903
1.15547
1.12905
0.999987
1.12939
1.09098
0.875851
0.900973
0.687091
1.09718
1.08829
0.867257
1.09274
0.905165
0.9042
0.867456
1.13547
0.900305
0.89162
0.898587
1.09092
1.09098
1.09067
1.09064
0.89152
0.897654
1.13658
0.94088
1.13266
0.820577
1.13613
0.815024
1.00446
1.0548
1.1277
0.833853
0.83556
0.947667
1.18778
1.08515
0.832119
1.00852
1.00655
0.828709
1.09255
1.09348
0.879533
1.05593
1.13643
1.13657
0.898508
0.749406
1.18666
0.886395
1.08215
1.10151
1.10722
1.10244
1.1091
1.10784
1.2554
1.10858
1.00767
0.82906
0.825275
0.672487
1.06104
1.08072
1.06719
0.831558
1.00623
1.0066
1.10826
1.05126
1.05965
1.06414
1.04624
1.05247
0.999987
0.941757
1.06034
1.07203
1.04796
0.877613
1.06666
1.02484
1.0391
1.07183
1.10435
1.07797
1.03878
1.08013
1.12081
1.02667
1.09594
1.08113
1.08242
1.02781
1.08307
1.0919
1.02323
1.0835
1.12201
1.0808
1.02495
1.1038
1.01454
1.08249
1.07043
1.08713
0.816445
1.01384
1.12128
1.12949
1.12351
1.00694
1.02372
1.12497
1.1239
1.13038
1.01089
0.817639
1.05905
0.999321
1.09407
0.902917
1.0011
0.989263
0.989463
0.829258
0.977761
0.978737
0.972938
1.09175
0.986519
0.9752
1.09392
0.963341
1.02402
1.09407
1.09333
0.964195
0.858067
1.0457
0.95322
0.954324
0.949921
0.859706
0.951174
1.07433
0.93844
1.09142
0.913491
0.857939
0.938577
0.943544
0.935179
0.880161
0.934843
0.91484
0.914127
0.943019
0.938262
0.927223
0.924238
1.00765
1.00856
1.10957
1.09177
1.00819
1.08944
1.00045
1.03348
1.07949
1.06707
1.229
0.916565
1.00004
0.884002
0.938598
0.989359
0.995807
1.09135
1.07896
1.01296
1.02368
0.736311
1.20295
1.0116
1.01608
1.01087
1.01525
0.941408
0.823229
0.90307
0.882271
1.09148
0.89986
0.831286
0.812948
0.940952
0.999999
1.04982
1.01682
0.781361
1
1.07964
0.903362
0.913248
1.07483
1
1.09589
1.09642
0.873828
0.940495
0.76179
1.0121
0.941162
0.950552
1.01528
0.854149
0.91877
0.854014
0.913584
0.914514
0.760744
0.819636
1.00185
0.905946
1.02085
0.92155
1.09558
1.02067
1.07126
0.876092
0.924394
1.10551
1.09546
1.06768
0.890089
1.13537
1.09068
1.06368
1.05534
0.927719
0.7943
1.00021
0.982282
1.06163
0.887587
0.884427
1.08178
1.00043
1.1296
0.809608
1.09003
0.821949
0.902934
0.903258
1.22695
1.02479
0.895828
1.12789
0.905468
1.05662
0.941216
1.06978
0.884501
0.845338
1.07917
1.08045
0.898676
0.938421
0.908873
0.885986
0.886766
0.886707
1.07925
1.07048
0.911863
0.878137
0.878099
0.798908
0.942523
1.12617
0.887844
0.966226
0.902778
0.790331
0.902658
1.01742
1.19337
1.10209
1.1029
0.84039
0.893951
1.08186
0.872285
0.895282
1.16498
1.11864
0.829231
0.872655
1.06869
0.942718
1.04692
1.0832
1.08634
0.889525
1.05781
1.09672
1.10402
1.12452
0.889457
1.09924
0.889995
0.727409
0.93977
0.920001
1.09366
1.12644
0.920132
0.999996
1.10836
0.876023
1.10169
1.1101
1.07828
0.920595
1.10443
0.884166
0.913012
1.04363
1.11913
1.01327
1.09165
1.06858
0.892548
1
1.03704
1.09424
1.08096
1.14075
0.899113
1.10024
1.14303
1.15054
0.842686
1.08292
1.14912
1.05349
0.977979
0.999993
1.13894
0.970622
1.06932
1.05703
1.17095
1.07816
0.843992
0.794462
1.09259
1.06285
1.07063
0.741141
1.05544
1.12894
0.93112
0.843561
0.931383
1.01077
1.06889
1.05689
1.06995
1.12405
1.08221
1.05116
1.06405
1.10945
0.864376
0.949186
1.06508
0.871081
1.05801
0.900797
0.886228
1.0592
0.943057
1.13892
0.899294
1.06762
1.06051
1.11162
1.12039
1.12754
0.94637
1.04922
1.05451
1.05553
1.12126
1.11955
1.13492
0.959618
1.03902
1.06363
0.928785
1.12037
1.05057
1.06162
0.997582
0.84821
1.03588
1.04411
1.00263
0.982417
1.04524
1.08973
1.12294
1.03182
1.03916
1.0207
1.04027
1.07288
0.816098
0.982806
1.12459
1.03081
1.05643
1.07142
1.03186
1.11669
1.08764
1.08292
0.894187
1.0715
1.09116
1.12599
1.02479
1.02595
0.840544
1.02012
1.13805
1.0213
1.01106
1.09731
1.01297
1.13789
0.912656
0.922053
0.834092
1.05114
0.830767
0.909808
1.13821
1.01408
0.916046
0.91045
1.01331
1.01316
0.799093
1.01387
1.01345
0.940426
1.0103
1.01033
1.05643
1.03578
1.0047
0.826236
0.968153
1.01532
0.999374
1.00649
1.0151
1.0576
1.01662
1.07156
0.90728
1.01638
0.999744
0.95905
0.818121
0.896238
1.01708
0.987134
0.840634
0.992287
1.02718
0.994506
0.856816
1.08956
1.0862
0.811206
0.838321
0.892474
0.987647
1.0186
0.820634
1.14223
0.781938
1.06093
1.098
1.07934
1.08962
1.08875
1.08754
1.17784
0.962298
1.08986
0.977448
0.972034
0.978147
1.089
0.80927
0.99208
1.01167
1.01133
0.966837
0.974052
0.967452
0.959498
1.05236
0.90658
1.06493
0.97153
1.0329
0.972007
0.969018
1.08745
0.955762
1.10837
0.938949
1.09362
1.07491
0.941814
0.971414
1.02279
0.804349
1.02442
0.894284
0.955273
1.01292
0.72087
0.828604
1.04872
1.10565
0.964531
0.965759
1.10647
1.09425
1.09381
1.08759
1.0945
1.08833
1.10935
0.856377
1.08701
1.03911
1.07875
0.810323
1.05968
1.05742
0.808311
0.954432
0.804228
1.0897
1.03394
1.03648
0.846895
1.10236
0.802385
0.951163
1.10819
1.1063
1.08216
1.07588
0.833351
0.842869
0.958384
1.13791
1.10614
1.08935
0.92452
0.884155
1.041
1.07998
1.19432
1.13757
1.11591
0.967996
1.08544
0.943836
0.947105
0.978946
1.07764
0.928712
0.944732
1.09174
0.839629
0.943948
0.958832
1.04342
1.07307
1.08013
1.11887
1.0743
0.982392
0.932378
0.872138
1.07036
1.08069
1.09186
1.0993
1.03856
1.10827
1.09775
0.999433
0.838973
1.03637
0.828301
1.08503
1.03454
1.03771
1.11232
0.919287
1.01611
1.11247
0.924021
0.960101
0.931742
1.13529
1.10051
0.829485
1.05662
1.00294
0.81385
0.718909
0.912349
0.919736
0.923505
1.06268
0.901151
0.903161
0.911419
1.11462
0.914339
1.08052
1.01263
0.912492
1.03418
0.929874
0.857427
1.12123
1.12211
0.908453
0.905032
0.96723
1.11887
0.904902
0.985574
0.904663
0.905323
0.9065
0.919879
0.90321
1.01132
0.971284
1.01195
1.08087
1.03912
0.905916
1.09531
0.965891
1.07816
0.860272
1.00944
1.10416
0.861519
1.04516
0.798793
1.10004
0.824714
0.887214
0.91638
1.10054
1.04737
0.892509
0.907958
1.08049
0.916915
0.893803
1.04536
1.0605
1.1297
0.908012
1.11726
0.767773
0.854604
0.918188
0.776932
1.01119
1.1177
1.01001
0.981328
0.887644
1.08155
1.07928
0.978612
0.949108
0.983927
0.982634
1.04998
0.849599
0.907521
0.958777
0.985421
1.03051
0.870513
0.875038
1.00015
0.876554
1.13574
0.880382
1.08178
0.870199
0.808134
1.06559
1.00458
1.08848
1.00065
0.973224
0.922755
1.1275
0.97819
0.974008
1.02821
1.23552
1.10641
1.12097
0.871739
1.09333
0.847145
1.08369
0.965661
0.856101
1.12766
1.02586
0.967157
0.720514
1.13152
0.95829
0.86217
0.865631
1.00072
0.999999
0.96167
1.00268
1.0764
1.03348
0.889298
1.03085
1.03564
0.99806
1.06115
0.96339
1.08804
1.01617
1.12365
1.07598
1
1.04562
1.12083
1.00015
1.0292
0.830067
0.783956
0.750055
0.929825
0.858472
0.825072
0.854993
0.923033
1.06561
0.913975
0.864229
0.903317
1.01869
1.0085
0.994911
0.663701
1.10201
1.03719
1.10132
0.903103
1.1276
0.813971
1.0622
1.1241
0.827244
1.12334
0.805323
0.916013
1.06852
0.827944
1.12521
1.1255
0.918608
0.918858
0.810651
0.890469
1.12722
1.1352
0.887541
1.00097
0.832001
1.13341
1.07729
0.963407
0.789047
0.790045
1.08516
0.879459
1.01427
0.961975
0.899581
1.12785
1.01419
0.823545
0.964491
0.980475
0.963999
1.01079
1.18027
0.930813
0.883202
0.939211
0.888938
0.939046
0.927673
1.00127
0.742296
0.747866
1.13281
0.91813
1.10116
1.07169
0.885434
0.871821
0.890851
0.873728
1.08487
0.921301
1.0997
1.12046
0.888184
0.921715
0.959375
0.967116
0.900616
0.955376
1.02264
0.909346
0.922203
0.960671
1.02971
1.04056
1.12633
0.816263
1.13113
0.930426
0.965104
0.957139
1.12591
0.920607
0.880326
1
1.09019
0.880191
0.9166
1.09324
1.0859
1.09787
0.912456
1.08688
0.899759
0.967422
0.973893
0.835926
0.97501
0.9024
1.0713
1.10225
0.977514
0.846443
1.10229
0.797958
0.989299
1.06998
0.875161
0.875469
1.10173
1.1237
0.950112
0.908846
1.0405
0.989555
0.983438
1.12354
0.83463
1.03331
1.10485
0.884553
1.14692
1.14669
0.902441
0.879987
0.926637
0.885691
1.09739
0.983744
0.949459
0.843334
1.01608
0.848656
1.06096
0.913006
1.02771
1.06191
1.0465
0.840516
0.918728
0.940523
0.841993
1.04152
1.05203
1.03879
0.850342
0.809805
0.97085
0.874078
0.996856
0.824026
1.05662
1.00111
1.04271
0.871789
1.0728
1.02295
1.03463
0.947922
1.05325
0.781819
1.04778
1.08087
1.09445
1.05785
1.06625
1.09314
1.02925
1.01799
1.06303
1.02362
1.00845
1.08448
0.835155
1.09483
1.08942
0.936074
0.997865
0.988777
1.07098
1.06755
1.05127
0.803716
0.859227
0.958818
1.00972
1.00247
0.932406
0.83616
1.01041
1.13187
1.07178
1.13377
1.09503
0.918175
0.861373
0.996864
0.994292
0.918567
0.861704
0.870633
1.06334
0.868857
0.92163
0.975407
0.930948
0.989966
0.879879
0.998059
0.884735
1.1004
1.09972
0.95487
1.0036
1.13384
1.10724
0.972778
0.996456
0.875019
0.927686
1.00958
0.979872
1.10123
0.828917
1.13422
0.94894
0.963685
0.998944
0.916001
0.841421
0.870767
0.878074
0.97638
0.897291
0.981559
0.861973
1.13399
0.914049
0.899846
0.843912
0.972517
1.08224
0.948315
1.13467
1.08037
0.93488
0.970044
0.91733
0.954481
1.12474
0.916962
0.793891
1.01001
1.08405
0.915691
0.99089
1.10981
0.971489
0.903934
0.794808
0.974056
0.910668
0.919282
0.962607
0.966321
0.958521
0.919415
1.0466
0.883514
0.916926
0.965716
0.960727
1.04707
0.910877
0.967043
0.899396
0.919733
0.95562
0.901128
0.91641
1.06648
1.00604
1.04041
0.878379
0.926908
1.13056
1.04219
1.12096
0.949303
1.04103
0.932014
1.13405
1.0362
0.938383
0.918321
0.919479
0.953906
1.03743
1.05498
1.06567
1.06541
1.10655
0.955146
1.0028
0.953074
0.917998
1.12511
0.942366
0.709512
0.927358
0.838976
1.04931
1.04052
0.964852
0.917729
1.03058
0.951572
0.933514
0.958411
1.08639
0.941906
0.942828
1.03187
0.922036
0.968055
0.930753
0.945688
0.953702
1.04516
0.945963
0.962338
0.914442
1.02454
0.935152
0.940349
0.918276
1.2033
0.918261
1.10778
1.13364
1.02567
0.918984
0.998822
0.934259
0.933399
0.916985
0.96869
1.02012
1.09837
1.12859
1.02472
0.905172
0.862035
1.02175
0.980997
1.09412
0.996974
0.979913
0.877261
0.912233
1.11642
0.980355
0.902672
0.912641
0.91832
0.903399
0.917366
1.0139
1.05153
0.964511
0.96552
1.01422
0.889079
1.05655
1.08598
1.09784
0.922989
1.13374
1.13346
0.925317
0.827419
0.995541
0.895381
1.04806
1.09114
1.09361
1.07821
0.949827
1.08985
0.856305
1.06285
0.876287
0.896709
0.956608
0.817997
0.890749
0.830382
1.00434
0.802681
0.874329
1.01728
0.974743
0.871613
1.00558
1.00593
1.09512
0.900775
0.879011
1.10191
1.13101
0.97376
1.09814
0.985223
1
1.00079
0.881604
0.873357
0.98177
0.969079
0.995165
0.906654
1.09273
1.04846
1.02415
1.08051
0.894125
0.997062
1.02745
0.951715
0.849828
1.09275
0.993601
0.867205
0.931968
0.95449
1.01362
1.00488
0.99062
0.991916
1.02868
0.986887
1.01265
0.872546
0.981899
0.889307
0.844896
0.920578
1.08925
0.993058
0.917981
1.12584
0.881469
0.950252
0.9326
0.947811
0.99506
0.971042
0.979771
0.964237
0.808624
1
1.01343
0.989047
0.889547
0.998371
0.89324
0.98287
1.13505
0.827972
0.863447
1.0805
1.12958
1.0661
1.0793
0.984313
1.05555
0.809225
1.03133
0.875606
1.10306
0.841748
1.12854
1.00945
0.996779
0.847624
0.977508
0.976773
0.99619
0.875589
1.08495
1.06322
0.908556
1.03185
1.00972
1.07456
0.900858
1.01392
0.829355
0.980091
0.863961
0.99849
1.10328
0.966028
0.980211
0.964419
1.02112
1.03131
0.864213
1.06024
0.858181
0.855187
1.1048
0.981414
0.904479
1.02616
0.983973
1.02886
0.839943
0.84909
0.957922
1.07036
0.913906
1.0378
1.03154
1.13212
0.938025
0.998537
1.03357
0.976979
1.13078
1.09153
0.944137
0.812832
0.871294
0.754454
0.971722
1.05525
0.971331
1.08067
1.04981
0.957908
0.853903
1.04622
1.04838
1.03853
0.780422
0.970304
1.04223
0.96374
0.873514
0.876123
0.954522
1.07525
0.935371
0.970616
0.887449
1.13416
0.916488
0.914489
0.853653
0.828134
1.02556
1.053
1.12582
0.852248
0.855488
0.914374
0.856282
0.83067
1.15622
0.853775
1.05104
1.02535
1.05511
0.848823
1.0439
0.965956
0.916817
0.972816
0.953557
1.04989
1.03245
0.879623
1.06153
0.819721
0.782352
0.896328
0.783667
0.948147
1.0767
0.857468
1.08258
0.87704
0.949468
1.10345
1.12108
0.864889
1.02747
1.09199
0.905165
0.962585
1.12679
0.882283
1.08993
0.756914
1.06153
0.984002
0.78993
0.938946
0.806408
0.851929
0.940344
0.852421
0.919248
0.917707
1.09316
0.903754
1.15084
0.933794
0.94659
1.03122
0.932529
0.990666
1.05297
0.935882
1.05373
1.09223
0.984724
0.763726
0.93099
1.01208
1.05588
0.901014
0.92249
0.930655
0.942533
0.848598
1.01332
0.992562
1.13201
0.791478
1.12484
0.938764
0.762069
1.09904
0.929102
0.957188
0.946608
1.00373
0.886137
0.932007
1.03801
0.892923
1.11275
0.842319
0.84134
1.00347
1.06509
1.11172
0.928576
0.910382
0.968995
1.06225
1.11549
1.0039
0.929932
0.919763
0.810918
1.0678
1.12754
1.07084
1.06675
0.922326
1.07401
0.954942
1.07015
0.923242
1.12676
0.847659
0.960698
0.930727
0.91825
0.902516
0.990501
0.983836
1.07507
0.921002
1.05942
0.920352
1.12732
1.09197
1.13007
0.809288
0.910167
1.13268
0.836261
0.957768
1.07784
0.985025
0.920906
0.863101
0.878402
0.908272
0.944248
0.822233
0.924558
0.964091
0.820765
0.901952
1.08775
0.932119
0.91146
0.910981
1.04614
1.01184
1.00396
1.08088
0.826497
1.08785
1.08488
1.11034
0.870807
0.986561
0.904182
1.10367
1.08836
0.845196
1.08878
1.08331
0.983635
0.910897
0.973488
1.10491
0.919668
0.922192
0.846959
0.973761
0.843776
1.00303
0.90053
1.08025
0.906658
1.08314
1.12888
0.884139
0.909645
0.839174
0.977217
0.896407
1.13005
0.909845
1.03127
0.919462
1.09221
0.959173
0.923069
1.09603
0.918423
1.07807
0.948105
0.854724
0.938939
1.25262
0.952644
1.1235
0.888451
0.996846
1.02357
1.0478
1.11743
1.08228
0.913375
0.854097
0.894888
1.00293
0.910454
0.863592
1.01097
0.964042
0.901674
1.10168
1.11442
1.11963
0.757646
0.861687
0.890155
0.887016
0.828498
1.07563
1.13152
1.09884
0.958711
1.13132
1.07456
0.8733
0.826746
0.92646
1.10066
0.869972
0.859203
0.871025
0.8789
1.00989
0.830775
1.11134
0.861744
0.872841
0.87863
0.824555
0.922362
0.880811
0.91514
1.13128
0.907949
1.11415
1.06904
1.12883
0.863321
0.922221
0.945746
0.877777
1.12733
0.857646
1
1.13147
0.875428
1.13172
1.07126
0.953455
0.895386
1.19745
0.946861
0.870151
0.894001
1.06461
1.11069
1.09187
1.12995
0.891298
1.06275
1.07164
0.856555
1.03382
0.987988
0.852736
1.09004
0.887437
1.08626
1.04811
1.113
0.905078
0.869637
0.874025
1.04428
0.986974
0.906621
0.941825
1.12839
1.13111
0.970437
1.0724
1.03837
0.837699
0.906986
1.04963
1.13121
1.12358
1.13141
1.11788
0.868472
1.13143
0.893049
0.902766
1.0333
1.03096
0.912919
1.04565
0.864288
0.72582
1.0716
0.834431
0.999153
1.12001
1.0583
1.02813
1.04494
1.13308
1.0274
1.03894
0.969359
0.958941
0.891488
0.916256
1.00254
1.04524
1.12762
1.03463
0.828215
1.02599
1.02318
0.960085
0.916025
1.13246
0.912708
1.07564
0.940889
1.01573
0.908823
1.13349
0.80787
1.02899
1.13444
1.02794
0.743621
1.02454
1.09352
1.12722
0.938882
1.1314
0.929431
0.835849
0.930653
0.759425
1.02383
1.02756
1.12779
0.962195
0.861049
1.06994
0.936296
1.00767
0.888016
0.929164
0.910256
0.924261
1.00251
1.01768
0.922563
0.907128
1.13342
1.13099
0.828903
0.968337
0.988236
0.984034
0.939742
0.999958
1.01008
1.04966
0.93664
1.12918
0.849003
0.943112
0.993781
1.08098
0.92902
0.854839
0.828916
1.04665
1.00197
1.02896
0.941654
0.925748
0.957423
0.975254
0.810035
0.850509
0.986769
0.856215
0.816554
1.13296
0.886899
1.08467
1.13217
0.993184
0.955353
0.993741
0.845843
1.10006
1.12556
0.851574
0.947562
1.10301
0.982499
1.08576
0.953164
0.889769
1.13209
1.14056
1.08461
0.953176
1.08145
0.907199
0.926141
1.13354
0.989585
0.979557
0.953285
1.13143
0.749604
1.10292
1.00923
0.928978
1.23613
0.964896
0.925267
1.00979
0.961561
0.873698
0.835606
1.0604
0.970028
0.982199
0.942769
0.963417
0.958283
1.01953
0.877521
1.01273
0.832432
1.10282
1.03452
1.1001
1.12336
0.867072
0.969078
0.965269
1.01273
0.933775
0.840709
1.16555
0.960322
0.996903
0.920424
0.919031
0.876573
0.971308
0.942768
0.843261
1.13078
0.84992
0.965151
1.08983
1.13202
1.13074
0.966463
0.841519
0.98186
0.85631
0.921985
1.10823
0.974422
0.970101
0.943805
0.976607
0.857807
1.13466
1.12608
1.02241
0.971606
0.951427
0.866726
0.942312
1.0962
1.13122
0.861206
0.976127
0.93442
0.960457
0.942288
0.913999
0.916744
0.911093
1.17705
0.954054
0.918568
0.98866
1.0829
0.939818
0.982608
0.963407
1.13369
0.981983
1.13148
1.0636
0.978794
0.864007
1.07468
0.937148
0.917748
0.881216
0.934026
0.9536
1.0524
1.13153
0.92469
0.916542
1.02239
0.982566
0.978843
1.13415
0.943973
0.979773
0.929585
0.914014
0.93481
1.13458
1.08574
0.952031
1.15611
1.08585
1.04372
0.832729
0.934678
1.06664
0.879766
0.937946
0.932177
0.861461
1.05448
1.07777
0.906621
0.988387
1.0296
1.07706
0.937394
0.960779
0.931557
0.929075
1.03782
0.952061
1.09725
0.989576
1.08833
0.990017
0.961354
0.994931
1.13397
0.98736
0.933687
0.959027
0.924683
1.08927
0.988745
0.796231
1.09492
1.15984
0.929445
0.922239
0.968331
1.13147
1.09936
0.893695
1.1312
0.927225
0.996611
0.909825
1.1312
1.13362
0.966216
0.922615
1.13147
0.995821
1.13128
0.91372
0.992977
0.824366
1.13134
0.913515
1.13315
0.895864
0.993041
1.12031
0.962646
0.995783
0.913303
0.900281
1.08707
1.0791
1.07712
0.97856
0.996906
0.895136
0.898063
0.982361
0.883999
1.00328
0.982673
0.828382
1.03692
1.12133
1.07523
0.970459
0.912336
0.828373
1.07579
0.976043
1.03882
1.08428
0.901866
0.849335
1.03849
0.849632
0.996443
1.13251
0.876177
1.00241
0.997099
0.889686
0.884756
0.769883
0.735377
0.932959
0.916454
0.983009
1.11636
1.15914
0.997684
0.914708
0.871646
1.08163
0.919033
0.914776
0.94428
0.96558
1.09768
0.881257
1.00977
0.935307
0.980976
1.02992
1.09977
0.919195
0.856988
0.98335
0.998937
0.86929
1.07573
1.13334
1.00865
0.87351
0.930618
1.13384
0.979873
1.12869
1.13086
1.05739
0.997261
0.999995
0.863922
1.06822
0.987079
1.10475
0.870513
0.984138
1.01098
0.854326
1.08351
0.865076
0.996478
0.935766
1.01217
1.05999
1.06413
0.992907
1.13092
1.00602
0.945778
0.953449
1.07165
1.17019
0.842389
0.982655
0.847126
1.0363
0.991405
1.01141
1.00508
1.11215
0.990619
0.941577
1.17321
0.977713
0.846024
0.85437
0.850247
0.996161
1.13092
0.942972
1.08157
1.01003
0.922659
1.05292
1.07262
0.964647
0.980802
0.985548
0.94868
0.78103
1.0541
1.13442
0.940646
0.936194
1.00352
0.879486
1.09263
1.02287
1.01196
1.00928
1.01568
1.13068
1.00203
1.09399
1.01385
1.13092
1.12343
0.934534
1.11485
1.01196
0.924361
1.13061
1.13339
1.00944
0.967024
0.966832
1.10063
0.923179
1.09156
0.938677
1.03716
1.07661
1.01099
1.09324
1.10081
0.946639
1.00798
0.939247
1.00744
1.13203
0.977159
1.03429
1.20421
1.05973
0.985074
1.13204
0.938968
0.984443
1.0239
0.939983
1.13085
1.13484
0.945173
0.996189
1.1349
1.08169
1.00552
1.0167
1.01788
1.01856
0.764981
1.02133
0.912526
0.940633
0.862574
0.823597
0.825048
1.0631
1.01509
0.865504
0.929407
0.877463
1.11702
1.07333
1.01695
0.933594
1.0916
1.09536
0.836927
1.1039
1.02922
0.957438
0.917335
1.08308
1.02257
1.0284
0.967249
0.928458
0.961772
1.08472
1.02327
0.955459
1.12248
0.75557
1.01974
0.970185
0.982515
0.927103
0.964895
0.92617
0.762585
0.755396
1.06038
0.782938
1.02144
1.05069
1.0761
1.00906
1.13084
1.00623
0.80801
1.09596
1.08411
1.13083
0.998625
0.976526
0.93602
1.06247
1.02843
1.00101
0.777685
1.0784
0.940146
0.824399
1.07065
1.01143
0.937637
1.03838
1.07839
1.07552
1.0813
0.930972
0.976888
1.02803
1.00801
0.996605
0.959132
1.03691
0.856168
1.08669
0.963304
1.09735
0.935012
0.935418
0.939208
1.07653
1.13421
0.765302
1.13192
0.947664
0.85652
0.981115
0.873059
0.853861
0.903735
0.971885
1.07031
0.908105
1.0885
1.0714
0.973839
1.03592
0.858228
1.07241
0.936455
0.945334
0.912178
1.15258
0.936824
0.980795
0.962568
1.13342
0.812111
1.03356
0.94379
0.854379
0.98583
0.850379
1.01827
0.853833
1.08591
0.966163
0.989041
0.975671
1.04664
0.972806
0.941035
0.858078
0.904244
1.0653
1.0823
1.00988
0.958115
1.04488
0.933967
1.07486
1.13013
0.948533
1.06478
1.13029
0.971804
1.01882
0.804827
0.932795
0.977155
0.970221
0.959345
1.03941
1.13216
1.07799
0.947541
0.84608
0.856055
0.828087
0.977582
1.13134
0.977977
0.756011
0.855151
0.938999
0.861348
0.770673
1.11473
1.01572
0.972271
0.973229
1.0389
0.834571
1.11181
1.13201
1.12417
0.970202
1.05824
0.969045
0.990648
0.970303
0.822786
1.24481
1.13185
0.866494
0.859992
1.05733
1.13154
0.850565
0.865434
1.01004
1.08556
0.894432
0.997232
0.929541
0.921504
0.812054
0.975246
1.04136
1.13212
1.01606
0.977329
1.04219
0.951851
0.841758
1.04538
0.75941
0.864854
0.969346
0.990464
0.975499
0.878067
1.05355
0.995939
1.07891
0.987398
1.07507
1.04134
0.994418
0.763803
1.05173
0.842896
1.04421
1.0612
1.07708
1.03828
0.908459
1.08481
0.9207
0.977424
0.876254
1.07633
0.985321
1.07399
1.01168
1.04413
0.973382
0.977274
0.8001
0.923056
1.10699
0.984618
0.89514
0.9034
0.903284
0.930343
1.07663
0.756432
0.998713
0.817042
1.04879
0.963654
0.967002
1.10366
0.920169
0.929515
0.98835
0.985666
0.920449
0.861233
0.929698
1.01688
0.985616
1.04724
0.877942
0.91578
0.906705
0.909595
0.836628
1.13323
0.967647
0.919264
1.06818
0.961011
1.13187
0.858437
0.83045
1.06071
0.98528
0.992247
1.07931
0.923255
1.07897
0.895666
0.932989
0.912166
1.00891
1.05945
0.754233
1.09685
0.920188
1.16878
0.947614
1.06928
0.962922
1.05154
0.985636
0.994974
0.834692
0.934609
0.895711
0.834506
0.999998
1.09976
0.95824
1.05312
0.848484
0.997165
1.03274
0.944982
1.07835
0.768795
1.04193
0.937724
1.06407
0.996438
1.05686
0.917782
0.972731
0.911859
1.05169
0.92981
1.1329
0.957924
1.13538
1.04286
0.986201
0.84507
1.22816
0.996269
0.994552
1.05405
1.06534
1.04328
1.16293
1.02911
0.963035
0.798675
0.930245
0.941441
0.974975
1.08332
1.06849
1.12293
0.909915
0.922177
1.03326
1.02952
1.04917
0.914161
0.844724
1.04437
1.03442
1.05936
0.936547
0.838419
1.05864
1.06786
0.942285
0.800657
0.730561
0.97628
0.948113
1.05707
1.05805
0.942131
0.955417
1.03536
0.96104
1.02203
1.03618
0.928256
0.750667
1.10227
0.924549
1.03296
1.0833
1.04711
0.832249
1.08311
0.938848
1.15255
0.944926
1.05808
0.940034
0.913975
1.07912
1.03474
1.01489
1.01966
0.950216
0.920137
1.03899
0.970733
1.04816
0.896748
0.975019
0.965029
0.949379
0.977725
0.961841
0.986371
1.08512
0.920645
0.952113
0.939852
1.06353
0.909513
0.97889
0.960442
1.0465
0.867918
1.00147
0.770382
0.980527
0.954178
1.06223
0.983403
0.991224
1.0763
1.0067
0.873812
0.931337
0.944986
0.967607
1.04896
0.940364
0.950335
0.995518
0.972233
0.925679
1.00954
1.0104
0.978183
0.974641
1.07643
1.10327
0.972179
1.07539
0.937274
0.916089
0.995993
1.01118
1.13819
1.04975
0.97673
1.04329
0.972428
1.06895
0.964593
0.976388
0.933483
0.958513
1.13062
0.952407
0.984679
0.968662
1.11105
1.03267
0.916595
0.976723
0.989502
0.950956
1.02163
0.726858
1.00463
1.0097
1.11716
1.06789
1.0701