/*--------------------------------*- C++ -*----------------------------------*\
  =========                 |
  \\      /  F ield         | OpenFOAM: The Open Source CFD Toolbox
   \\    /   O peration     | Website:  https://openfoam.org
    \\  /    A nd           | Version:  12
     \\/     M anipulation  |
\*---------------------------------------------------------------------------*/
FoamFile
{
    format      ascii;
    class       surfaceScalarField;
    location    "4.5";
    object      phi;
}
// * * * * * * * * * * * * * * * * * * * * * * * * * * * * * * * * * * * * * //

dimensions      [1 0 -1 0 0 0 0];

internalField   nonuniform List<scalar> 
69079
(
-0.000156376
9.04171e-05
6.59583e-05
0.000127384
6.51154e-08
-0.000127492
-0.0001322
0.000132234
0.000128917
-1.54797e-06
-0.000130612
-1.52286e-06
-0.000130567
7.35369e-05
-0.000166687
6.85967e-05
2.52777e-06
8.622e-05
-8.8996e-05
0.000130407
-0.000130405
4.19653e-08
0.000129805
5.89427e-07
-9.83303e-05
-5.90684e-05
-0.000119983
0.000131228
-8.37439e-06
-0.000128112
0.000125409
2.68481e-06
-0.000127532
-6.08077e-07
2.91801e-06
-0.000111807
0.000108652
0.000129726
3.83499e-08
0.000129084
5.59797e-07
-0.000129714
0.000128092
1.63847e-06
-0.000128355
-1.37508e-06
0.000129586
-0.000128783
-6.83075e-07
0.000128678
9.45879e-07
0.000125774
-0.000128181
2.37374e-06
-0.000139066
1.33437e-05
0.000125722
0.000150212
-9.76294e-05
-5.09359e-05
0.000143381
-1.86449e-05
-0.000117887
-0.00012893
-1.34623e-06
0.000128949
8.46323e-08
2.12956e-07
4.89508e-08
9.00438e-05
-8.86059e-05
0.000121047
-0.000126093
5.04428e-06
0.000122985
-0.000133239
1.02456e-05
0.000143517
-2.05181e-05
0.000127907
7.65897e-07
-4.60138e-07
-0.000127544
2.30166e-05
0.000104523
0.000127795
-0.000127844
4.12084e-08
2.34104e-07
-6.2541e-06
9.42631e-05
-0.000112613
-1.13988e-05
-0.000127667
9.07956e-05
2.17465e-05
-0.000117939
-0.000131921
1.64516e-05
0.000127056
-0.000127063
2.21849e-08
-6.19622e-06
-0.000106795
0.000130977
-2.35543e-05
0.000126663
1.46499e-06
-1.16927e-06
-7.45111e-05
0.000142299
-6.77877e-05
0.000124551
-0.000124579
2.2079e-08
0.00014286
-1.83312e-05
0.000121074
2.17617e-05
0.000142072
-2.1003e-05
0.000118893
-3.69742e-06
-0.000115189
-8.31593e-05
0.000124969
-2.03111e-05
-0.000129782
0.000130821
-1.20249e-06
-0.000133415
5.73786e-05
7.53453e-05
0.000123728
-0.000123724
7.79028e-09
0.000141754
-1.80365e-05
0.000120185
1.17745e-07
-0.000120421
-7.00689e-05
-4.25699e-05
0.000112336
7.62811e-05
5.04403e-05
-0.00012673
0.000137719
-7.21722e-05
-6.37969e-05
-1.37735e-05
-0.00011379
5.00648e-05
-0.000124576
-0.000107215
0.000109907
0.000124775
6.82519e-07
-2.20324e-06
0.000145695
-0.000145693
-1.54456e-05
-0.000117823
-0.000115806
1.00501e-05
-5.04832e-05
0.000108463
0.000119203
2.25322e-05
0.000140739
-2.15439e-05
0.000121838
-1.25899e-05
-0.000109724
0.000126524
-0.000124198
-2.27156e-06
9.64984e-05
5.51338e-05
0.000115172
-0.000118425
3.27168e-06
-2.77248e-06
0.00011795
-0.000123172
1.13341e-05
0.000111838
0.000122958
2.05791e-05
-1.60754e-06
0.000118007
-0.000140296
2.23248e-05
0.00010108
1.7831e-05
0.000131595
-1.35859e-05
-7.82031e-05
-5.06112e-05
0.000113062
-0.000116294
0.000117702
-1.4714e-06
0.000117003
-0.000132492
1.55389e-05
0.000118169
-9.79634e-07
-0.000111247
-5.08584e-05
-6.33233e-06
-0.000101629
0.000107955
-7.06728e-05
0.000138937
-6.82643e-05
0.00013057
-3.76298e-05
-0.000126213
9.71567e-06
0.00012106
2.10388e-05
6.93591e-05
5.25892e-05
-0.000121948
-2.60299e-06
-0.000115311
-1.12302e-05
4.27207e-07
-0.000105978
0.000105452
0.000123815
-3.73857e-06
6.71055e-05
6.00211e-05
-0.000127133
5.42637e-05
-0.000124936
-0.000116967
1.26293e-06
0.000125175
-0.000125063
0.000129745
-8.75354e-06
2.06243e-05
-0.000134372
0.000113669
4.27109e-05
-0.000131309
-0.000121115
-1.02507e-05
0.000114811
-0.00013395
1.91328e-05
0.000117532
-2.63924e-06
7.33321e-06
0.000106613
-0.000113839
-4.78305e-06
0.000100368
-9.93037e-05
0.000119177
2.15623e-05
-2.10665e-05
-0.000104864
0.000105205
7.50933e-06
-0.000120996
0.000113486
-0.000115348
3.94301e-05
-8.26261e-06
0.00012388
-0.000115153
4.44027e-05
-0.00011451
-0.000109105
-3.37824e-06
0.0001124
0.000117852
-0.000120932
2.80217e-06
-0.000123584
0.000106557
1.70274e-05
-3.95458e-06
-0.000126641
0.00011467
1.69135e-05
-5.33183e-06
0.000119965
-0.000130665
0.000130644
-0.000111898
2.9261e-06
-3.55243e-05
0.0001118
0.00014857
-8.92451e-05
-6.06888e-05
-0.000131065
5.23571e-05
7.88485e-05
0.000123732
-5.89608e-07
-0.000123162
0.000113119
-0.000131988
1.89525e-05
0.000116901
-3.7987e-06
0.00012183
-3.5796e-06
0.000129731
-0.000123941
0.000116694
7.0332e-06
7.72805e-05
-0.000122847
4.56253e-05
0.000113844
-0.000137361
2.35508e-05
0.000136336
-2.24726e-05
-1.66883e-06
0.000119936
-7.73818e-05
0.000145367
-6.79316e-05
-9.72552e-05
-2.11318e-05
0.000109783
-0.000130267
2.07344e-05
0.000114402
-4.54385e-06
0.000119102
-0.000127457
8.41562e-06
-0.000122679
2.54332e-05
-3.03918e-05
-0.000100631
0.000112395
-0.000135699
2.32155e-05
-2.00912e-05
-0.000111888
8.45134e-05
8.47452e-05
-9.10824e-05
-0.000102033
0.00010931
0.000132869
-0.00013285
0.000116379
3.24971e-07
-2.09116e-05
0.000120212
-0.000128026
7.54688e-06
-0.00012349
4.11774e-06
7.01386e-05
7.62609e-05
-0.000128981
2.04687e-05
0.00010851
0.000110633
-0.000134577
2.38822e-05
-0.000109281
0.000133786
-2.33032e-05
-0.000120166
-1.78106e-06
0.00010448
-4.85488e-05
-4.0856e-05
0.000118167
-2.04396e-05
0.000160624
0.000112541
2.38036e-05
-0.000124453
0.000123464
-2.32529e-05
0.000113687
-0.000113604
6.8692e-05
-0.000120769
5.20786e-05
0.000109297
-0.000133158
2.40019e-05
0.000132951
-2.35361e-05
-1.89329e-05
-0.000109285
0.000121938
6.91716e-06
-0.000141046
-2.14861e-05
-0.000112922
1.46373e-05
-0.000112338
9.37595e-05
-8.35535e-05
0.00013541
-5.13948e-05
-0.000113449
4.7213e-06
0.000108485
4.00268e-06
0.000118735
-0.00011754
0.000109766
0.00011073
0.000123562
-3.55935e-06
0.000107941
-0.000132427
2.43501e-05
-2.60949e-05
8.46891e-07
-0.000111513
0.000110672
0.00011165
6.60521e-06
-2.29201e-05
4.81642e-05
8.61254e-05
0.000109456
6.06537e-07
-0.000110051
9.84548e-07
0.000108489
8.31421e-06
0.000118235
-4.69728e-05
-5.99993e-05
0.000106983
-0.000144944
8.59369e-05
5.92537e-05
7.33771e-05
-0.000120335
3.21831e-07
0.000111231
-0.000111556
-0.000111259
0.000111574
9.09135e-05
-0.000101649
-0.000117178
0.000121952
-4.76181e-06
0.000103638
-0.000124167
2.05465e-05
0.000112
-8.37453e-06
-1.01758e-05
-9.9003e-05
0.000109161
6.71409e-05
4.68513e-05
-0.000113995
0.000109095
2.46359e-05
-2.40584e-05
1.67304e-05
-0.000117237
0.000100493
-0.000121499
-7.24378e-06
0.00011996
3.50859e-06
0.000106043
-0.000131307
2.529e-05
0.000130313
-2.43431e-05
7.4051e-05
-0.000119644
4.55912e-05
0.000113757
-0.000106247
0.000116237
-0.000119833
0.000104017
3.75737e-06
-4.64457e-07
0.000118223
3.61585e-05
-0.000116451
-0.0001155
-1.66135e-06
0.000123333
-4.09566e-06
-6.62064e-05
-4.02087e-05
0.000105395
0.000104627
-0.000129631
2.51096e-05
0.000126723
-1.64395e-05
-0.000129222
-2.7146e-05
9.72389e-05
-8.75062e-05
0.000108013
2.49674e-05
-2.44257e-05
-7.06351e-05
-4.80858e-05
0.000117923
0.000125978
-0.000124528
-1.50906e-06
-1.45082e-05
0.000125859
-0.000111528
0.000101303
-0.000121834
2.05717e-05
0.000110928
-9.64867e-06
0.000105679
-0.000106181
5.21362e-07
-4.67546e-06
-0.000118909
-0.000131134
2.00683e-05
0.000111065
-2.34457e-05
-0.00010769
-1.62624e-05
-0.000114423
-4.73986e-05
0.000116758
-0.000144466
7.75158e-05
6.69598e-05
-0.000122142
0.000105719
1.6422e-05
0.00010545
4.43843e-07
0.00011501
-0.000109377
-5.79922e-06
-0.000136325
0.000120045
-0.000116771
-5.57978e-07
-0.000115908
0.000117688
-1.7761e-06
-7.06828e-05
-7.37771e-05
6.94965e-05
-0.000124005
5.45651e-05
-8.21054e-07
-0.00012328
-4.22494e-06
-0.000124756
0.000120599
-5.84103e-07
-0.00012113
5.23591e-06
0.000102475
-0.000128655
2.6179e-05
-2.76933e-05
0.000111791
3.05696e-06
9.93231e-05
-0.000119736
2.0416e-05
-0.000123817
2.7045e-06
0.000109739
-1.05906e-05
0.000108521
9.10531e-06
-2.27528e-05
0.00012861
-0.000123051
-5.09969e-06
-4.10252e-06
0.000108207
-0.000114286
0.000123601
-0.000123614
-0.000164714
7.80956e-05
8.40305e-05
-6.33862e-05
0.000119598
-4.74776e-05
-0.000113733
-3.71771e-06
0.000118279
-0.000124761
-2.74493e-06
-6.98996e-05
-4.65259e-05
0.000119847
6.8921e-05
4.26587e-05
-0.00011158
8.43466e-05
-9.45327e-05
3.98e-06
0.000119604
-0.000123584
0.000104434
2.57989e-05
0.000100653
-0.000127608
2.68548e-05
-2.51838e-05
-0.000130138
0.00011546
-0.000118686
0.000118689
8.10026e-05
4.77979e-05
0.000126234
-2.56238e-05
-2.05042e-05
-0.000115844
0.000100413
7.44669e-05
-0.000121114
4.65849e-05
-2.50309e-06
-8.82983e-05
0.000112348
-1.11788e-06
0.000119308
-0.000117475
9.63987e-05
-0.000117277
2.08438e-05
0.000108441
-1.19964e-05
0.000124449
-0.000125459
-0.000107703
0.000111683
-7.85006e-05
-6.62063e-05
-7.27796e-05
0.000122559
-4.92182e-05
-0.000125319
2.86194e-06
0.000121235
-0.000125492
4.1453e-06
-6.3732e-05
0.000130866
0.000122421
1.34723e-06
0.000122148
3.39208e-07
-0.000136258
6.85354e-05
7.17099e-05
3.6296e-05
0.000106003
0.000121971
2.84432e-07
7.31204e-05
-0.000106342
3.34701e-05
0.00012185
3.74347e-06
0.000109417
-3.61655e-05
3.1189e-05
9.92054e-05
-0.00012559
2.63707e-05
0.000116114
0.000125176
-2.59704e-05
0.000131088
-2.19711e-05
-0.000109435
-0.000107851
-1.17618e-06
0.000109243
-0.000138834
8.07299e-05
5.81124e-05
0.000106183
1.05043e-05
-2.26147e-05
-4.33621e-05
0.000117412
0.000130084
-0.000129849
-0.000106205
0.00010682
0.000111361
-0.000110361
-7.6387e-05
0.00012709
-5.01492e-05
-2.09917e-06
-0.000121073
9.77731e-05
-0.000124655
2.68787e-05
-0.000114355
0.000117089
-2.74521e-06
0.000124511
-2.67295e-05
-0.000123961
0.000126775
0.00011871
3.35263e-06
2.534e-06
-0.000113796
0.000111252
-7.45182e-05
8.92034e-05
-0.000101602
-8.86049e-06
0.000110344
-0.000119109
4.75675e-06
-0.000123442
-4.66458e-05
0.000116483
-0.000129131
0.000101544
-1.08693e-05
0.000121649
-5.08134e-07
-0.000117017
-2.07761e-06
0.00012005
-0.000120061
9.61069e-05
-0.000123864
2.75671e-05
0.00012335
-2.74302e-05
9.1373e-05
-0.000111849
2.06354e-05
0.000104056
-1.20087e-05
-6.97474e-05
-6.90778e-05
-0.000123678
4.63771e-05
-0.000115395
-1.60466e-06
6.88886e-05
7.03709e-05
0.000122688
5.50668e-06
0.000105096
9.33469e-06
-2.25363e-05
-0.000117106
0.000107415
9.68817e-06
0.000129196
-0.000124521
-0.000102899
0.000114233
0.000104927
-0.000112668
7.34881e-06
0.000111579
-4.37187e-06
-0.000107221
9.47368e-05
-0.000123028
2.82693e-05
0.00012278
-2.80777e-05
-4.21176e-06
-0.00011793
-0.000119483
0.000124865
-4.55726e-06
-4.9375e-08
-0.000113598
0.000125232
-2.31976e-05
-5.52307e-05
0.000122332
2.45328e-07
-0.000134246
2.22537e-05
-0.000110276
-1.24491e-05
0.000112908
-4.56646e-06
-0.00010834
9.91292e-05
2.70744e-05
0.000118776
-5.0077e-05
-2.64767e-05
-0.000120296
0.000109146
1.11452e-05
5.82618e-06
-0.000118874
-0.000153142
8.94293e-05
6.37206e-05
-0.000112883
3.17175e-06
0.000109689
-6.94112e-05
-8.37265e-05
4.10401e-06
0.000107666
-0.000111747
-0.000113485
4.62392e-06
0.00010888
-7.22869e-06
-0.000106271
-0.000118107
0.000110847
9.34672e-05
-0.000122064
2.84612e-05
-0.000113982
2.32075e-06
0.000111652
0.000113698
-4.15332e-06
-0.000109545
-3.18387e-06
0.00011312
-0.000109946
0.000110516
0.000121686
-2.8284e-05
0.000114746
-4.39851e-06
-0.00011033
0.000119704
-8.52984e-07
-0.000125445
-1.27233e-05
-0.000117488
-4.49829e-06
0.000114681
-0.00011018
6.62116e-05
4.50828e-05
-0.000111289
-0.00011722
4.55606e-05
-6.3513e-05
-6.71325e-05
-0.000133499
3.1271e-05
9.79009e-05
2.72427e-05
6.10985e-06
-8.4745e-05
-2.67165e-05
5.38708e-06
0.000106202
-0.000108437
8.05003e-06
0.000100387
9.27429e-05
-0.0001214
2.84808e-05
-5.9738e-06
0.000119898
0.000114176
-4.63812e-06
-0.000109546
-0.000119492
-6.03179e-06
0.000120926
-2.84054e-05
-7.53476e-05
0.000120249
-4.64842e-05
0.000126671
-1.12278e-05
-0.000115429
0.000122945
-1.93729e-05
-0.000121923
0.000118961
2.73257e-06
0.000122405
-0.000122094
-0.0001228
7.22949e-06
0.000115577
-2.50012e-06
0.000113372
-0.000110455
-6.56754e-05
0.000118265
8.81881e-05
-0.000106181
1.97346e-05
-1.53169e-05
0.000104573
1.03862e-05
0.000117858
1.4059e-07
0.000111127
-0.000111257
-1.10105e-05
9.81916e-05
-8.71717e-05
0.000134659
-7.96779e-05
-5.49895e-05
2.53737e-06
-0.00011498
0.000112443
2.50996e-06
-0.000117897
0.000116874
-0.000116881
-0.00011033
0.000111642
-1.32125e-06
0.000110512
-0.000113884
3.21839e-06
-0.000101836
0.000102683
-1.53062e-06
0.000114209
-0.00011267
-1.85464e-06
-0.000111759
0.000113793
6.00586e-05
6.84745e-05
-0.000128195
-1.31688e-06
0.000118993
-0.000115423
-1.44026e-06
0.000116835
-0.000121151
-1.43347e-07
0.000111268
-0.000112947
0.000105372
3.35654e-05
9.1858e-05
-0.000120273
2.86364e-05
-5.04198e-05
-5.63609e-05
0.000106776
9.73534e-05
2.71012e-05
-0.000133877
8.34529e-05
0.000114528
-4.01042e-05
-3.20632e-05
-2.67782e-05
-0.000140385
8.01324e-05
6.0251e-05
-6.9477e-05
0.000133472
-6.35122e-05
6.37502e-05
6.28145e-05
-0.000126589
-7.11494e-05
0.000121214
-0.000115793
0.000110058
5.7386e-06
-0.000116678
8.98917e-07
-0.000114058
5.51112e-07
0.000113366
1.10099e-06
0.000143273
-0.000107948
-2.91591e-06
0.000110864
-0.000100458
8.94569e-05
8.48782e-05
-8.49088e-05
0.000109687
-0.000118356
-3.23027e-06
0.000111868
-0.00010874
4.8194e-05
-0.000120295
-7.41128e-05
-6.62606e-05
1.28966e-06
0.00011209
-0.000113834
-0.000121631
-6.48562e-06
-0.000142906
8.28994e-05
-2.78174e-06
-0.000120004
0.000125183
-0.000127586
-0.000100387
0.000120855
-0.000115666
0.000115023
-2.05935e-06
0.000114563
-0.000112418
-2.50299e-05
-9.36384e-05
7.08569e-05
-0.00014283
-3.45057e-05
0.000115508
-0.000110881
-1.01961e-06
0.000111875
-2.12786e-07
9.74605e-05
-8.5225e-05
6.33523e-07
-0.000112308
0.000111716
9.6186e-05
2.71518e-05
0.000111879
6.84827e-07
-0.00011258
0.000113346
-7.06553e-07
-0.000112638
-8.17558e-07
0.000112778
0.000111664
-0.00011238
-2.67072e-05
-0.000112002
-1.99143e-06
-1.21711e-06
0.000113002
-0.000120966
0.000125369
-0.000111775
0.000112335
-5.54595e-07
2.80499e-07
0.000110978
0.000109401
3.70967e-06
-0.000111812
5.55851e-08
-6.02902e-05
-5.10909e-05
0.000111705
-0.000135281
2.92445e-05
9.77194e-05
-8.40413e-05
-3.32101e-06
8.89308e-05
-0.000119956
3.08343e-05
0.000123925
-0.000119775
-4.62349e-06
-2.04097e-06
0.00012305
0.000117754
-2.88414e-05
4.39519e-05
-0.000113242
8.64572e-05
-9.93941e-05
1.5373e-05
-1.71522e-05
0.000109019
-0.000117075
0.000107248
9.82523e-06
0.000105433
-9.47376e-06
-0.00011507
0.000120738
-6.07226e-05
-3.96889e-05
9.2116e-05
-0.000116899
0.000112674
-3.06789e-06
-0.000111711
-6.66426e-05
-7.01031e-05
-9.61789e-05
1.18124e-06
9.86766e-05
-0.000113633
0.000110815
2.32364e-06
0.000112267
-0.000114458
-5.59997e-06
-0.000105663
0.000111517
1.76263e-06
0.000113066
-0.000114718
0.000136825
-6.68861e-05
-6.99387e-05
5.18634e-06
0.000107711
9.51992e-05
2.74702e-05
-0.000117337
4.81934e-06
0.000112687
-0.000116289
4.73648e-06
-2.70451e-05
8.86231e-05
-0.000117781
2.92807e-05
-3.31592e-05
8.35313e-05
-9.90203e-05
1.53046e-05
-0.000116359
0.000100962
-0.000108411
-4.45877e-06
-1.70742e-05
0.000103293
4.90208e-06
5.11552e-05
8.34971e-05
0.000122592
-0.000120055
0.000114277
-9.22555e-07
-0.00011107
4.85987e-05
0.000111389
-6.89311e-07
-0.00011094
-8.14949e-05
0.000131614
0.000105783
-8.90645e-05
1.17439e-06
-0.000107384
1.64466e-06
-0.000113785
0.000111637
-3.11135e-06
0.000120183
6.5153e-05
6.18899e-05
-0.000126989
8.10565e-05
6.6124e-05
-0.000144725
-0.000100522
-2.48225e-06
0.000101468
-1.48637e-07
-0.000113804
0.000113944
7.43147e-06
0.00011616
-0.000116379
0.000113831
-0.000114024
0.000115387
-0.000116381
1.01368e-06
-3.7477e-07
0.00011383
-8.06823e-07
0.00011426
-0.000112976
0.000114536
-0.000115228
-0.000123095
-7.88851e-05
0.000130865
-6.48988e-05
-7.82512e-05
0.0001372
-6.18221e-05
-0.000138293
3.79059e-05
0.000113038
-0.000112385
9.20185e-07
-0.000113956
0.000112968
-1.27338e-05
0.000123206
-0.000110459
0.000126364
-7.95166e-05
9.37743e-05
2.79369e-05
-0.000110704
3.43884e-06
0.000107265
8.33749e-05
-0.000138776
5.65002e-05
0.00011838
5.73518e-06
-0.000115455
-0.00013635
7.92392e-05
5.71089e-05
-2.7669e-05
0.000109643
-0.000107119
-0.000116031
-1.20949e-06
-0.000109383
0.000111474
-2.12439e-06
1.38887e-06
-0.000110842
-0.000108977
9.74872e-05
1.08814e-05
-0.00011664
0.000115323
1.30178e-06
-0.000113358
-3.20557e-06
8.68039e-05
-0.00011803
3.11492e-05
-0.000121157
3.38322e-08
0.000115922
-2.91425e-05
-0.000123553
8.07274e-05
-0.000118566
0.000113317
5.32776e-06
-0.000117356
-1.22654e-06
-0.00011544
0.000113696
1.68302e-06
-0.000113901
-1.55587e-06
-0.00011638
-0.000113329
0.000113557
-1.14615e-07
-0.000116326
8.68377e-06
0.000107638
0.000114922
-0.000112484
-9.29509e-05
-4.32104e-07
-0.000115976
4.51965e-06
0.000111459
-0.000108868
-2.90941e-06
0.000111782
9.0127e-05
-7.2207e-07
0.000109315
-0.000108766
-0.000111983
-2.22537e-06
0.00011421
-0.000113261
2.4243e-06
0.000110858
-7.00399e-05
-9.36603e-05
3.90071e-06
0.000119343
-4.98166e-05
0.000116985
4.62878e-06
0.000108894
1.86916e-06
-0.000110763
6.61749e-07
0.000112215
-0.000112882
-0.000110952
0.000118329
-4.94079e-05
0.000115137
-5.25545e-06
-0.000109875
-0.00011471
2.04878e-06
0.000112675
9.19471e-05
2.87721e-05
-0.00011321
1.12141e-06
0.000112096
0.000107591
1.99397e-06
-0.000109588
-2.83538e-05
0.000119193
-1.97323e-06
-0.000113212
2.89504e-07
0.000112921
6.36165e-06
7.8774e-07
-0.000114166
-0.000111876
0.000112468
7.37937e-07
-0.000112801
-0.000106395
0.000157191
0.00011409
-3.57555e-06
-0.000110504
8.61503e-05
-0.000115959
2.9968e-05
-3.35017e-05
0.000123275
-0.000123484
-0.000107757
7.26742e-05
5.24582e-07
-0.000113182
2.57738e-06
0.0001106
-6.75567e-05
-7.53502e-05
-0.000108982
9.61563e-05
0.000113384
-0.000112795
-5.82362e-07
-0.000111836
4.05445e-06
-0.000119866
4.58921e-05
-0.000111349
-3.34156e-07
-0.000108893
0.000108088
-5.82035e-07
0.00010861
-0.000107981
-0.000114295
3.50511e-06
0.000110804
0.000127586
-0.000138631
0.000119548
-0.000114369
0.000110454
-0.000114839
-0.000173364
0.000164717
1.06242e-06
0.00011469
-1.74492e-06
-0.000112933
0.000112151
-0.000116651
0.000113944
0.000118291
-0.000118529
-0.000117081
0.000115603
1.40265e-06
-0.00011381
-3.29e-06
-0.000119479
0.000115625
3.89666e-06
-0.0001161
-3.44368e-06
-0.000120173
0.000115565
4.40519e-06
-0.000116384
-3.94842e-06
-0.000120627
0.000115949
4.71605e-06
-0.000116296
-4.17407e-06
0.000145741
-9.22851e-05
-1.20328e-06
-0.000110395
0.0001117
-0.000120419
0.000115698
4.7241e-06
-0.000129797
6.94154e-05
6.00235e-05
-0.000116399
-4.16054e-06
-0.000120956
0.000116213
4.69156e-06
0.000114466
0.000132799
-0.000112347
-1.58396e-05
9.08481e-05
1.3376e-05
-0.000104506
-0.000116821
-4.09152e-06
0.000115105
-0.000120624
0.000116284
4.59144e-06
0.000118142
5.061e-06
-0.000116612
-3.98543e-06
-0.000135921
3.10266e-05
-0.000111793
1.17991e-06
0.000110022
-0.000120951
0.000116303
4.49231e-06
-6.75557e-05
-5.23227e-05
0.000119884
-0.000117105
-3.92573e-06
9.94581e-05
-0.000102029
2.29065e-06
4.4148e-06
-0.00010928
0.000104864
-0.000121089
0.00011673
4.42023e-06
-0.000110986
-5.68233e-06
-0.000117044
-3.84937e-06
9.76893e-07
-0.000111964
-0.000102547
-9.35971e-06
5.3305e-05
-0.000120857
-0.000116908
-5.39999e-06
0.000101504
-1.12431e-05
-0.000109953
0.000114918
-4.97064e-06
-0.000112106
2.15208e-06
-0.000120741
0.000116425
4.27159e-06
-0.000117223
-3.73149e-06
-4.20356e-06
0.000110721
-0.000106533
7.36938e-07
0.000111332
-0.000112441
-0.000120745
0.000116464
4.25422e-06
-0.000117581
-3.07902e-06
0.000115982
-0.000118565
2.77672e-06
-2.522e-06
0.000122577
-0.000121393
-0.000121271
0.000117403
4.03888e-06
8.65148e-05
-0.000117218
3.0772e-05
-0.000117399
-3.49606e-06
2.17144e-06
-0.000109047
0.00010676
9.81751e-05
1.36472e-05
-0.00012071
0.000116751
3.85002e-06
0.000116766
-8.14563e-06
-0.000109582
-0.000117717
-3.30796e-06
0.000115285
-2.85842e-05
-2.21299e-05
1.69163e-06
-0.000109135
0.00010745
0.00011129
-0.000114514
3.24426e-06
-2.44968e-07
0.000111547
-0.000121447
0.000117676
3.75926e-06
-0.000118057
-3.19001e-06
-7.3859e-05
7.24777e-05
1.1505e-05
2.92967e-06
-0.000109387
0.000106473
3.76996e-06
-0.000110272
0.000106518
-0.000119893
0.000116508
3.5448e-06
2.27204e-06
-0.000113262
0.000110895
-0.000117573
-2.41726e-06
-7.22919e-06
0.00011722
-0.000115283
-2.82707e-06
-0.000119889
0.000116507
3.26715e-06
-0.000118161
-2.16592e-06
-0.000113079
0.000113419
-3.43305e-07
-0.000112736
0.000114626
-1.88798e-06
-7.50061e-07
5.7339e-05
-0.000120838
-5.5449e-07
-0.000112184
-0.000111293
0.000112059
0.000116994
-0.000118596
1.79393e-06
-6.25398e-05
-6.34388e-05
0.000112469
-0.000120717
0.000117384
2.98126e-06
4.92555e-07
0.000110814
-0.000111275
-0.000118601
-2.45707e-06
-1.28454e-07
-0.00011114
0.000111269
-4.05939e-06
0.000109707
-0.00010565
1.85554e-06
-0.000113163
-0.000112004
0.000113777
-0.000120842
0.000118049
2.85273e-06
-0.000118213
-2.28249e-06
-0.000113811
-1.79187e-09
0.000113811
-0.000111715
-1.78732e-06
0.000113697
-0.000119683
0.000117104
2.61593e-06
-0.000112166
-0.000118335
-1.46721e-06
-0.000116501
0.00011821
-1.69047e-06
-1.21413e-06
-0.00012068
-0.000120182
0.000117737
2.26177e-06
-0.000118661
-1.73618e-06
-0.000113604
2.09215e-06
-4.14283e-06
-0.00012038
0.000118487
2.12091e-06
-0.000118452
-1.52924e-06
-4.76212e-05
-6.59305e-05
-3.12708e-07
0.00011183
-0.000111555
-0.000112784
0.000112433
0.000110823
-0.000109653
-0.000119635
0.000117599
1.81879e-06
-0.0001128
-2.68865e-07
0.00011348
-0.000118808
-1.28023e-06
1.18705e-06
0.000114292
-0.000111346
-0.000177218
0.000170639
-0.000115054
9.39979e-07
0.000113857
-8.27832e-06
-0.000120401
0.000118796
1.71216e-06
-0.000118705
-1.1441e-06
0.000115153
1.62161e-06
-0.000118917
0.000117532
1.35547e-06
-0.000118536
-7.99744e-07
3.30267e-07
-0.000118582
0.000109428
-0.000117276
0.000117449
-1.63561e-07
-7.75943e-05
-4.08289e-05
0.000119709
-7.09558e-06
8.4336e-05
-0.000114959
3.04842e-05
5.82745e-06
-0.000122157
0.000106445
-2.23052e-06
-0.000102742
-3.30914e-05
-0.00011516
6.60443e-06
0.000106525
-5.59526e-06
-0.000155661
-6.76312e-05
-6.37509e-05
0.00013518
-0.00011652
0.000115353
1.16672e-06
-0.000116134
-1.03329e-06
-2.86756e-06
8.7657e-05
3.026e-05
0.000111343
-0.000110818
-0.000116917
0.000115982
8.83778e-07
0.000111221
9.45267e-05
3.07833e-06
-9.7605e-05
-1.67105e-06
-2.97184e-05
0.000102384
-7.85683e-06
0.000118454
-1.06345e-06
1.01437e-06
-1.54869e-06
0.000112617
-4.96411e-06
-0.000109621
0.000116355
-9.48369e-07
-1.38424e-06
0.000119902
6.73864e-05
8.06555e-05
-0.000134485
7.89499e-05
5.57093e-05
-8.55108e-05
-5.27823e-05
-1.452e-05
0.000115912
-7.57377e-07
-0.000112373
-0.000119836
-0.000133516
6.98743e-05
-0.000109265
0.000109925
0.000111771
-0.000110889
-8.43795e-08
-0.000112337
-1.52352e-07
0.000112324
0.000132053
-5.01678e-05
-0.000112602
7.02899e-07
0.00011172
7.02371e-06
-0.000116747
0.000109448
-0.000111458
1.12306e-06
-0.000122095
4.66224e-05
0.000105469
-8.45796e-05
-2.31863e-06
0.000112135
-0.000110065
-3.72942e-06
-0.00010983
0.000113705
7.24803e-05
-0.000123699
5.12039e-05
0.000107521
-0.000111741
0.000115959
-0.000102615
-0.000149996
8.86719e-05
6.13235e-05
-0.000113065
4.20152e-07
0.000112408
-6.88364e-07
-0.000111668
-0.000135545
6.83182e-05
9.51989e-05
6.24911e-06
-0.000101865
0.00010533
-9.09372e-06
-4.89462e-06
2.29588e-06
-0.000119354
7.53648e-06
6.4174e-07
-0.000113246
0.000114618
-0.000114486
-4.27348e-07
0.000110029
-0.000109939
3.41877e-05
-0.000111973
0.000111849
-6.19975e-07
-0.000115413
0.000116584
-1.32942e-06
0.000121174
-0.000123275
-0.000115879
-4.97928e-07
-5.37465e-07
-0.000112545
-6.65816e-05
0.00010273
-3.57115e-05
-6.4585e-07
-0.000112683
0.000113342
9.14552e-05
1.27372e-05
-0.000104959
0.000113192
-0.000111328
8.23184e-05
-0.000114346
3.21858e-05
0.000101739
-1.07458e-05
-1.90795e-06
-0.000111287
0.000110075
-0.000110535
0.000107689
-0.000111274
0.000112208
-2.9815e-05
-3.56213e-06
-0.000104743
0.000110072
-0.000112564
0.000109279
-6.59835e-05
0.000129819
-6.38455e-05
-0.000119748
0.000117401
2.06824e-06
-3.54814e-06
0.000110045
-0.0001111
-6.8103e-05
-6.82558e-05
0.000107846
-0.000110173
-3.61804e-06
0.000111944
0.000102351
-7.24744e-05
-6.86651e-05
0.000128981
-5.98602e-05
0.000110948
-0.00011885
1.45625e-06
0.000105368
-3.16899e-06
-0.000100095
3.49269e-05
-1.38156e-06
0.000100779
5.13575e-07
0.000116371
-0.000120011
5.55081e-06
0.000112592
-0.000117978
-0.000119879
0.000118682
1.47972e-06
-2.83725e-06
-0.000114632
9.11893e-07
-2.51429e-06
0.000107409
-0.000104861
-0.000116155
9.62327e-05
1.45718e-05
-0.000119223
0.000118575
1.20044e-06
-0.000135458
2.80498e-05
0.000107876
-0.000110298
-2.55982e-06
-2.2106e-05
0.00011451
-1.97351e-06
-1.36387e-06
-0.000112222
0.000113598
0.000116575
-5.03604e-05
-0.000115382
9.9965e-07
-0.000109518
0.00010758
0.000108906
-2.34166e-06
0.00011215
6.19863e-06
-0.000112895
0.000106702
-0.000119164
0.000118882
5.35051e-07
-0.000108523
5.86662e-07
0.000108449
-1.82358e-06
0.000125413
-8.27546e-05
-0.000108633
-4.97476e-06
0.000110654
-0.00011004
0.000113313
-1.38926e-06
0.000116179
-2.00511e-06
7.91107e-05
-0.000109874
3.05048e-05
5.66809e-06
0.000106971
-0.000113565
-0.000112185
0.000112673
0.000125763
-0.000122248
0.000109547
-3.05058e-05
4.32427e-06
-0.000113152
0.000110466
-5.4358e-06
0.000114196
-0.000107633
7.40325e-06
0.000106899
-0.000115026
-0.000108664
0.000116042
0.000140604
-0.000111356
-2.92682e-05
6.09071e-06
-0.000108732
0.0001026
-7.01894e-05
7.97785e-05
-1.86515e-06
0.00010839
-0.000102319
5.03322e-05
9.02742e-05
0.000115422
-9.28917e-07
4.73568e-06
-0.000115609
0.00010975
5.46045e-06
-0.00011508
0.000109904
9.29424e-06
0.000102722
-0.00011215
9.20354e-07
0.000110723
-0.000111457
-0.000118016
0.000106225
-0.000107762
0.000116562
-1.39214e-06
1.05662e-06
0.000109578
-0.00011071
0.000153546
-0.000141761
0.000110758
-0.000118368
1.46859e-06
4.19685e-06
0.000115463
-7.86029e-07
7.2429e-07
-0.000111241
0.000109428
-0.00011108
-1.58077e-06
0.00010659
-0.000110181
-0.000110549
0.000105982
8.57034e-05
3.02698e-05
-0.000114599
0.000113514
1.09193e-06
0.000117684
-0.000117762
3.14581e-08
0.000118212
-4.23664e-07
-2.989e-05
0.00011042
1.4716e-06
0.000117813
-0.000118069
2.07428e-07
-0.00011745
0.000118457
-7.32817e-07
0.000118315
-6.6731e-07
9.91212e-06
0.000106688
-0.000116637
-9.7506e-05
0.00010739
1.15922e-05
-0.000109125
-0.00010744
0.000103068
-0.000117782
4.41596e-07
-4.57391e-06
8.79601e-05
-0.000101445
1.34977e-05
-3.58008e-07
0.000116931
0.000107964
-0.000108921
0.000115198
9.28809e-05
-4.91711e-06
-0.00011372
-8.10006e-05
0.000103033
-2.21431e-05
0.000129521
-8.69193e-06
0.000110319
-0.00010118
7.90352e-05
-0.000109703
3.1168e-05
0.000110532
-3.13993e-05
9.07825e-05
-9.66673e-05
0.00011699
-6.3474e-06
7.79683e-07
-0.000108961
0.000114586
-6.01294e-06
-0.000137334
0.000101624
-0.000136191
5.12536e-06
-0.000113011
-0.00011433
4.50821e-07
-9.19781e-07
0.000112478
-0.000110842
0.000114913
5.02672e-06
0.000103052
-0.000108107
0.000107708
1.68363e-06
-0.00011365
-0.000107342
-7.14528e-06
-4.69499e-06
-0.000146355
-0.000118479
3.20569e-06
6.25571e-07
0.000109975
-0.0001106
-0.000113747
-2.27855e-06
0.000117866
-0.000117861
2.23109e-06
-6.86163e-05
-8.13728e-05
-0.000113569
3.29137e-07
-0.000117675
-2.07231e-06
-5.67135e-05
-7.70127e-05
5.67441e-06
-0.000121969
-0.000108623
-7.56847e-05
-8.57689e-07
0.00010681
-0.000113236
2.69561e-06
-0.000107509
-2.28402e-06
0.000109599
0.000107476
2.73175e-06
-0.000108702
-0.000117674
0.000119562
-0.000136718
9.3691e-05
-3.43953e-06
1.32919e-05
-9.45135e-05
-0.000110761
7.16179e-06
-0.000117231
2.97433e-07
-0.000117459
3.45038e-07
-0.000117022
3.44591e-07
-0.000117659
2.58291e-07
-9.85143e-07
-0.000118484
1.37783e-06
-0.000119759
6.02308e-05
-1.01009e-06
-0.000116945
3.56879e-07
-9.43465e-07
0.000113688
-1.0029e-06
0.000113812
-0.000116462
3.01268e-06
-0.000117432
1.42845e-07
-1.02916e-06
-0.00013882
7.77505e-05
6.1089e-05
-0.000116896
2.67118e-07
-8.23326e-07
-1.01517e-06
-0.000111371
0.000114126
-2.74171e-06
-0.000117188
5.70314e-09
0.00011394
-0.000122246
8.33447e-06
-0.00011632
7.56531e-08
-8.53943e-07
1.7098e-07
-0.00011606
-4.20608e-07
0.000116345
-0.00011459
-1.76127e-06
-0.000117906
-9.3485e-08
-4.33067e-07
-4.42241e-06
-0.00011531
-9.27996e-07
-5.04759e-07
-0.000115536
-9.68794e-07
-0.000117313
-2.67263e-07
1.42346e-07
-0.000125525
5.95707e-05
0.000104734
-0.000108881
7.48163e-05
-0.000106889
3.16928e-05
-3.93763e-07
2.05418e-06
0.000113368
-2.138e-06
-0.000111701
-8.76288e-08
-0.000117551
-4.46126e-07
0.000111359
-0.000110764
2.79377e-06
-0.00011142
2.93813e-06
-1.20351e-06
-2.17012e-07
-3.67961e-05
3.24213e-06
0.000111465
-0.000109482
-0.000117909
-6.53562e-07
1.08075e-06
-0.00010961
-8.98155e-07
0.000110459
7.75467e-07
-0.00011776
-8.85477e-07
1.06042e-06
0.000134822
-0.000116837
-1.0936e-06
4.68336e-07
-0.000117289
-1.33057e-06
1.23298e-06
-0.000114045
9.89252e-06
-0.000107287
6.85673e-07
5.04944e-06
-0.000109491
0.000104438
-0.000117195
-1.57569e-06
0.000133795
-1.88777e-07
-0.000104314
0.000109362
-0.000113311
-1.226e-06
1.74538e-06
-1.97621e-06
-0.000111836
0.000113629
-0.000110104
-5.25627e-07
0.000116528
-0.000116456
-1.84078e-06
1.23674e-06
-0.000117077
-2.02729e-06
9.50808e-05
1.45055e-05
1.44585e-06
-0.000109955
-2.12784e-06
0.000110851
-0.000115913
-2.26396e-06
0.000112073
0.000115055
-4.00929e-07
-2.21593e-05
1.68367e-06
-1.26196e-06
-0.000117372
-0.000116545
0.000115871
-2.39813e-06
-0.000116724
-2.50535e-06
-0.000117285
0.00011889
-1.57466e-06
-0.000117947
1.09949e-06
1.59111e-05
-0.0001029
8.68234e-05
1.91523e-06
-0.000115891
-1.95483e-06
2.16516e-06
-5.55265e-05
-7.56519e-05
0.00013181
-1.65796e-06
-0.000105332
0.000111362
0.000106265
-0.000112262
3.57912e-06
-0.000115618
-2.76544e-07
0.000109275
-0.000106925
-4.28151e-06
0.000110303
-0.000106019
1.47091e-06
-0.000106309
-1.50826e-06
0.000114597
1.42065e-06
0.000113774
-0.000117018
-7.05168e-05
0.00013572
-0.000105722
-9.55207e-05
0.00014296
-1.8302e-06
4.16793e-06
0.000109587
-1.77576e-06
0.000114243
-0.000107034
-2.41888e-06
0.000118347
-0.000117902
0.000116992
-0.000127643