/*--------------------------------*- C++ -*----------------------------------*\
  =========                 |
  \\      /  F ield         | OpenFOAM: The Open Source CFD Toolbox
   \\    /   O peration     | Website:  https://openfoam.org
    \\  /    A nd           | Version:  12
     \\/     M anipulation  |
\*---------------------------------------------------------------------------*/
FoamFile
{
    format      ascii;
    class       volScalarField;
    location    "4.5";
    object      T;
}
// * * * * * * * * * * * * * * * * * * * * * * * * * * * * * * * * * * * * * //

dimensions      [0 0 0 1 0 0 0];

internalField   nonuniform List<scalar> 
46253
(
1.00215
1.01454
1.05703
1.01431
1.05601
1.05525
0.988325
0.933552
1.01335
1.01324
1.00306
0.9306
1.00715
1.00739
1.01015
1.01264
1.01237
1.00949
1.00968
1.01107
1.01105
1.054
1
0.997535
1.00365
1.01378
1.01171
1.01151
1.01378
0.934595
1.00322
1.00507
1.00488
1.01049
1.01029
1.01976
1.00822
1.00802
0.954835
1
0.966768
0.923525
1.00593
1.00575
1.00552
1.00893
1.00883
1
1.0035
1.00328
1.00264
1.00242
1.05126
0.948345
1.05912
0.948113
1.00105
1.00083
1.028
0.980668
1.02
0.98618
1.01982
1
1.01059
1.00657
1.00646
1.05298
0.949505
1.00442
0.949141
1.00017
0.999955
0.983633
1.05169
0.999307
0.995542
0.995308
0.999996
1.00429
1.00411
0.998518
1.05151
0.998377
0.963621
1.0528
0.989449
0.989405
1.02469
1.02029
1
0.95865
1.052
1.00179
1
1.00161
1.04863
1.00239
1.02725
1.01989
1
1.04497
1.05337
1.00228
1.05875
0.985829
0.921821
0.983064
0.982789
0.929663
0.961814
0.999295
0.999071
1.00201
0.999994
0.979803
0.92341
0.98274
1.06048
0.946334
1
1.05466
0.997728
0.997422
1.03117
1.06213
1.01996
0.943273
1.06348
0.994138
0.978687
0.978485
1.05457
1.00946
0.993784
1.01683
0.992451
0.992278
0.944565
1.01797
0.996081
0.975356
0.975437
0.999705
0.99624
1.06151
0.990424
0.990142
0.947714
1.02029
0.929032
1.05109
0.993205
0.992947
0.991947
0.952103
0.940484
1.00002
0.988054
1.05832
0.98772
0.922232
0.947994
1.01808
1.00979
0.991579
1.00635
0.99132
1.08651
1.0198
0.985831
0.985807
1.05335
1.00537
1.05783
1.01629
0.98832
1.04434
0.982826
0.923488
1.05795
0.991042
0.984173
0.983788
1.03384
0.988937
0.988686
0.998992
1.03372
1.0336
1.05127
1.03135
0.989491
1.03137
1.03554
1.03551
0.959556
1.02932
0.968093
0.968253
1.00026
1.01977
0.986789
0.986498
1.02003
0.92451
0.989766
0.981367
0.981109
1.02004
0.999995
1.06043
0.987234
1.05338
0.983827
1.02908
0.998975
0.965672
0.979177
1.05347
1.05219
0.979166
1.01575
0.985188
0.985003
0.962481
1.02991
1.03507
0.963971
0.9638
1.01642
1
1.0209
1.02094
1.03055
1
1.03495
1
1.01587
1.02087
1.03062
1.04092
1.02826
1.03508
1.01694
1.05236
0.999996
0.989315
1.02804
0.976008
0.97578
1.01981
0.959383
1.02784
0.958898
0.982173
0.981951
0.954431
0.986239
1.02745
0.999241
0.96746
0.935677
1.00035
0.98338
0.999998
1.00015
0.999999
0.980197
0.97357
0.979902
1.0345
1.01995
1
0.973243
1.03017
1.06017
1.01909
0.927464
0.958908
0.953675
0.953238
1.05244
1.05364
0.999999
0.989764
0.991561
0.948139
0.997012
1.01992
1.02567
1.02517
0.967277
1
1.02386
1.0096
1.03819
1.00947
0.968287
0.971573
1.05765
0.971554
0.943112
1.05668
1.03377
0.977512
0.976796
1.01999
1.00045
1.0337
1.03361
0.985585
0.999996
0.970421
1.02636
0.970881
0.943965
1.02351
1.02013
0.919031
0.938708
1.02621
1.01327
1.00478
0.922302
0.995963
1.02603
1.02859
0.969975
0.97021
0.989278
1.0076
1.03387
1.01653
1.02585
0.988051
0.953855
0.974721
0.974332
1.00002
1.05125
1.0512
0.999996
1.06035
1.02515
0.969709
0.969836
1
0.948752
1.04181
0.956114
1.01981
0.922095
1.00548
0.927367
1.0245
0.972612
1.01979
0.972259
1.02026
0.932643
1.03341
1.027
1.03353
1.03356
1.02647
1.0263
1.0263
0.968999
1.02505
1.02423
1.02443
1.02437
0.968637
1.02643
1.02248
0.943492
1.03248
1.02504
1.01993
0.975952
0.988116
0.939386
0.971038
0.919451
0.970726
1.0253
1
0.969156
1.06699
1.034
0.997667
0.96876
0.989823
1.02499
0.934605
0.987757
0.988559
1.02724
0.970491
1
1.0128
1.01673
1.022
1.03221
1.03605
1.03548
1.0204
1
1.02568
1.02666
1.03383
1.05211
1.03384
0.969394
1.03562
0.987506
1.02846
1.02557
0.952759
1.03595
1
0.968319
1.02624
0.97088
1.02626
1.01917
0.968388
0.970385
1.03269
0.9868
1.01978
1
1.03582
1.03588
0.962138
0.980084
1.03346
1.03545
0.955777
0.939871
1.0375
0.990467
1.03284
0.963669
0.993102
1.03143
1.02704
0.95153
1
0.95866
0.970942
1.01842
0.986774
1
1.03524
0.975824
1.03508
0.969854
0.965217
1.02666
0.964871
0.9653
0.969755
1.02491
0.965033
1.04471
1.03367
1.03607
1.02455
1.03377
0.983787
1.00096
0.974819
0.942061
0.965762
0.952013
0.988624
0.965267
0.982201
1.00141
1.01105
1.01991
1.03023
1.02961
1.01995
1.06472
0.999997
0.958082
0.96938
0.922455
0.958696
0.964015
0.984673
0.964502
1
1.02465
0.969421
0.968288
0.932588
0.969307
0.964761
0.964543
0.999482
0.989303
1.02682
0.99934
1.00134
1.02067
1
1.02684
0.972598
1.03547
0.916803
0.9871
1.02009
1.03384
0.966143
1.0265
1.01828
0.987438
1.03513
0.971251
1.02763
1.02726
0.97129
1.02568
0.97057
0.970935
0.970585
0.999996
0.997405
0.993146
0.999997
0.96486
0.968259
1.02516
1.01984
0.968647
0.999998
0.999008
0.950265
1.02549
1.0304
0.969279
1.02013
1.01958
1.03012
1.03057
0.909974
1.02942
1.02963
0.961165
0.953876
0.960873
0.98204
1.02608
1.0264
1.02483
1.02525
1.02762
1.03718
1.021
0.963906
0.916232
1.03289
1.03479
1.01993
1.03415
1.03267
1.03517
1.0009
0.998598
1.01814
0.995268
1.03381
1.03002
0.943469
0.999998
1.03335
1.03291
0.96829
1.03187
1.0346
0.96833
0.994441
1.00444
1.02664
1.00538
1.00548
1.00659
0.983396
1.03421
0.959913
0.959955
0.997912
0.928479
1.03253
1.03158
0.982526
1.02553
1.05708
0.982011
1.03525
1.05779
1.03664
1.02481
1.00022
1.00169
1.02467
1.02638
1.06078
0.966387
1.025
1.02515
0.983392
1.02301
1.02334
1.02245
1.02264
1.02289
1.02338
1.02254
1.02267
1.00512
0.962104
1.02042
0.987613
1.02093
1.01939
1.02511
0.999887
1.00026
1.01973
1.02654
1.01711
1.02533
1.01724
1.00047
0.964406
1.01551
1.02382
1.01604
1.0429
1.03763
1.01401
1.03603
1.01407
1.03612
0.915441
1.02386
0.957346
0.999422
1.03319
1.03332
1.0115
1.01207
1.0269
0.96998
1.01048
1.01072
0.983427
1.02882
1.02844
1.00766
0.956649
1.00738
1.02742
0.967412
1.00461
0.945084
1.00543
0.956396
0.966942
1.02482
1.03313
1.03305
1.00397
1.00408
0.893627
1.02455
1.02422
1.00045
0.960233
1.00086
0.940309
1.02617
0.997482
0.998385
1.0334
1.03406
1.03354
0.985259
1.03419
0.968308
0.978657
1.00374
1.02958
0.99496
1.0297
0.99596
1.02954
1.02597
0.969036
0.969244
0.993587
0.993418
0.963192
0.970865
0.990635
0.970951
0.991071
1.02884
0.988361
0.98767
0.988385
1.03397
0.951975
0.98643
0.986059
1.07892
1.02512
1.02512
1.03384
0.98305
0.961664
0.984095
1.01542
1.0595
0.96531
0.930556
0.982735
0.982214
0.978485
0.978373
0.97913
0.947254
0.948913
1.02771
0.968369
1.05966
0.95492
1.02081
0.938203
0.954619
0.943419
1.02363
0.997951
1.02394
1.02788
1.02435
0.964701
1.02971
1.02862
1.02954
1
1.02908
0.96479
1
1.02733
1.02686
0.951119
0.948516
1.02583
0.986285
1.01543
1.00356
0.999997
1.02006
1.02568
1.03716
1
0.98858
1.03001
0.963509
1.03556
1.00337
0.990778
1.00394
0.946567
1.03398
0.990888
0.96389
1.0061
1.03678
1.00019
1.0269
1
1.02993
1.00437
1.00422
0.98904
0.989984
0.988464
1.02466
0.95864
1.02555
1.02481
1.00475
0.975564
1.03587
0.968932
1.03588
1.03628
0.988446
0.988342
1.02551
1.0052
0.944569
0.963732
1.02908
0.964244
0.95237
1.03787
1.03671
0.965312
0.966042
1.03657
0.952425
1.03179
1.03766
1.01968
1.00882
1.00969
0.962036
1.03058
1.03047
1.03032
0.964358
0.992197
1.03357
0.968606
0.928738
0.942388
1.04123
1.02685
1.02651
1.04373
1.00086
1.00033
1.02346
1.03742
1.02004
0.962955
0.997018
1.00672
1.03768
0.996754
0.962259
0.963969
0.963185
1.01985
0.963137
0.970638
0.939742
0.962229
0.936308
0.99022
1.03358
1.03346
0.990053
0.999996
1.03412
0.964328
0.962507
1.03385
0.948708
0.947248
0.969879
0.947805
0.954459
0.94816
0.944787
0.942971
0.940092
0.939629
1.01826
1.03847
0.884006
1.03904
1.01793
0.965857
0.952065
0.948729
1.03536
1.03369
0.970846
1.02885
0.969172
0.971066
1.03551
1.03529
1.03241
1.0353
0.999996
1.03539
1.0252
0.962844
0.970656
0.888275
1.02773
1.02448
0.960146
1.02568
0.971944
0.971648
0.960211
1.03698
0.970449
0.967764
0.96992
1.02518
1.0252
1.02511
1.02511
0.967733
0.969635
1.03737
0.982999
1.03624
0.94507
1.03725
0.943236
1.00229
1.00913
1.03494
0.949439
0.949989
0.984265
1.05073
1.02363
0.948847
1.0021
1.00159
0.947737
1.02562
1.02587
0.963996
1.0162
1.03722
1.03726
0.969897
0.920953
1.04654
0.966138
1.0227
1.02802
1.02954
1.02827
1.03009
1.0297
1.06739
1.0299
1.00308
0.94804
0.946607
0.886352
1.0174
1.02329
1.01935
0.948887
0.992633
1.00286
1.03086
1.0144
1.0167
1.01793
1.01301
1.01473
0.999996
0.982995
1.01689
1.02008
1.01349
0.963398
1.01862
1.00705
1.01103
1.02003
1.02886
1.0217
1.01094
1.02228
1.03314
1.00756
1.0266
1.02255
1.0229
1.00788
1.02307
1.02545
1.00659
1.02319
1.03345
1.02246
1.00708
1.02863
1.00414
1.02292
1.01954
1.02417
0.943704
1.00395
1.03326
1.03541
1.03384
1.00199
1.00673
1.03423
1.03395
1.03565
1.00311
0.944183
1.01672
0.999818
1.02603
0.971322
1.00033
0.996932
0.99699
0.948122
0.993607
0.99389
0.992204
1.0254
0.997332
0.992862
1.02599
0.989397
1.00561
1.02603
1.02584
0.989647
0.957313
1.01295
0.986415
0.986742
0.985439
0.957769
0.98581
1.02124
0.982021
1.02532
0.974491
0.957209
0.982062
0.983793
0.981341
0.964197
0.980945
0.974902
0.974685
0.984247
0.981967
0.978654
0.977752
1.00334
1.00248
1.03123
1.02541
1.00236
1.02479
1.00015
1.00953
1.02216
1.0184
1.06073
0.967462
1.00001
0.965266
0.981894
0.997266
0.999118
1.0253
1.01865
1.0037
1.00672
0.906689
1.05086
1.00331
1.00458
1.0031
1.00435
0.982936
0.946117
0.971301
0.964856
1.02533
0.970313
0.948581
0.942553
0.98308
1
1.014
1.00479
0.932002
1
1.02312
0.968325
0.974475
1.02174
1
1.02652
1.02666
0.962277
0.982926
0.921974
1.00345
0.983138
0.985929
1.0047
0.955982
0.976135
0.955939
0.97452
0.97069
0.924935
0.944758
1.00059
0.972234
1.00592
0.97694
1.02643
1.00587
1.01987
0.962971
0.977852
1.02908
1.0264
1.0189
0.967291
1.03695
1.02512
1.01781
1.01559
0.978836
0.936353
1.00006
0.985426
1.01725
0.966513
0.9656
1.02258
1.00012
1.03661
0.941459
1.02495
0.945519
0.971258
0.971358
1.06019
1.00703
0.96907
1.03499
0.972076
1.01588
0.982886
1.02052
0.965441
0.953136
1.02202
1.02237
0.969949
0.981852
0.973081
0.966015
0.966254
0.966236
1.02204
1.02065
0.973994
0.963563
0.963551
0.937933
0.983268
1.03454
0.966649
0.990428
0.971211
0.935122
0.971174
1.00496
1.05114
1.02818
1.02839
0.951541
0.968487
1.0226
0.961723
0.968899
1.03731
1.02442
0.947907
0.96184
1.01952
0.98411
1.0132
1.02311
1.02396
0.967182
1.0162
1.02675
1.02869
1.03411
0.967091
1.02742
0.967258
0.913129
0.982459
0.976471
1.02592
1.03461
0.976518
0.999999
1.02984
0.962898
1.02807
1.0303
1.02178
0.976377
1.0288
0.965447
0.974376
1.01229
1.03269
1.00193
1.02538
1.01914
0.968105
1
1.01046
1.02608
1.0225
1.03835
0.970082
1.02871
1.03894
1.04089
0.952272
1.02303
1.04052
1.01501
0.994204
0.999998
1.03788
0.984512
1.01935
1.01697
1.0353
1.02175
0.952691
0.936438
1.02564
1.01758
1.0197
0.906436
1.01649
1.03527
0.98032
0.952551
0.980399
1.00308
1.01923
1.01595
1.01952
1.03399
1.02272
1.01437
1.01791
1.03016
0.959322
0.985293
1.01819
0.961399
1.01625
0.970603
0.966091
1.01658
0.983459
1.03788
0.970139
1.01889
1.01694
1.03072
1.03303
1.0349
0.984458
1.01384
1.01529
1.01557
1.03325
1.03281
1.03683
0.988263
1.01155
1.0178
0.979342
1.03302
1.01421
1.01725
0.997475
0.954289
1.01017
1.01242
1.00075
0.995485
1.01274
1.02486
1.0337
1.00918
1.01105
1.00588
1.01136
1.02031
0.943594
0.995345
1.03413
1.00872
1.01583
1.01989
1.00902
1.03205
1.02431
1.02303
0.968563
1.01994
1.02525
1.0345
1.00703
1.00736
0.951582
1.00572
1.03765
1.00605
1.00316
1.02699
1.0037
1.03761
0.974266
0.977123
0.949492
1.01437
0.948404
0.973387
1.03769
1.00402
0.975307
0.973602
1.0038
1.00376
0.938072
1.00396
1.00384
0.982914
1.00294
1.00295
1.01681
1.01011
1.00135
0.947
0.990808
1.00436
0.999835
1.00186
1.0043
1.0171
1.00473
1.01989
0.97262
1.00466
0.999941
0.988141
0.944256
0.969193
1.00486
0.996321
0.95162
0.997804
1.00798
0.998441
0.957024
1.02481
1.0241
0.942043
0.950874
0.96803
0.996469
1.00529
0.935783
1.03881
0.921884
1.01705
1.02708
1.02207
1.02568
1.0246
1.02428
1.03712
0.989228
1.0249
0.993517
0.991941
0.99372
1.02466
0.941332
0.997901
1.00333
1.00323
0.99026
0.992529
0.981704
0.98856
1.0147
0.972442
1.01844
0.991793
1.0093
0.991933
0.99106
1.02424
0.987293
1.02985
0.982234
1.02591
1.02139
0.982249
0.99176
1.00647
0.930373
1.00693
0.968592
0.987022
1.00369
0.9031
0.947694
1.0137
1.02913
0.989745
0.990106
1.02934
1.02608
1.02597
1.0243
1.02615
1.0245
1.03011
0.956678
1.02412
1.01209
1.02226
0.941692
1.01671
1.01621
0.941017
0.986774
0.939749
1.02485
1.00985
1.01131
0.953678
1.02825
0.939125
0.985909
1.0298
1.02929
1.02283
1.02185
0.949468
0.952553
0.98853
1.03774
1.02925
1.02565
0.978066
0.965442
1.01156
1.02304
1.05206
1.03764
1.03184
0.990762
1.02368
0.98363
0.984602
0.994166
1.02182
0.979098
0.983896
1.02541
0.950999
0.983663
0.988077
1.01246
1.02037
1.02228
1.03262
1.0207
0.995627
0.980202
0.954058
1.01963
1.02271
1.02556
1.02752
1.01088
1.02982
1.02701
0.999849
0.95092
1.01027
0.947625
1.02356
1.00982
1.01065
1.03089
0.976252
1.00464
1.03093
0.977687
0.9884
0.980012
1.03702
1.02775
0.948016
1.01587
1.00087
0.942849
0.910067
0.974184
0.976413
0.97756
1.01777
0.97071
0.971331
0.973884
1.0315
0.974746
1.02251
1.00363
0.974222
1.00966
0.979451
0.957078
1.03324
1.03348
0.97298
0.971936
0.986768
1.03262
0.971863
0.997122
0.971791
0.971991
0.972355
0.976472
0.971343
1.00324
0.99172
1.00341
1.0231
1.01101
0.972175
1.02639
0.988869
1.02218
0.95803
1.0027
1.02873
0.958513
1.00454
0.937844
1.02763
0.946429
0.96639
0.975371
1.02776
1.01344
0.96804
0.972836
1.02238
0.975533
0.968442
1.01277
1.01694
1.03547
0.972835
1.0322
0.923463
0.956336
0.97592
0.930559
1.00325
1.03231
1.00292
0.994918
0.966525
1.02266
1.0221
0.994187
0.985501
0.995395
0.995333
1.01411
0.954507
0.9727
0.988434
0.995826
1.00868
0.961127
0.962569
1.00004
0.963049
1.03707
0.964266
1.02273
0.961034
0.941007
1.01833
1.00106
1.02452
1.00022
0.992287
0.977305
1.03489
0.993761
0.992515
1.00799
1.06231
1.02189
1.03318
0.961459
1.02583
0.953652
1.02324
0.990078
0.956532
1.03494
1.00733
0.990516
0.899817
1.03595
0.987912
0.958446
0.959617
1.0002
1
0.988906
1.00082
1.02128
1.00962
0.967045
1.00873
1.01007
0.999668
1.01014
0.98949
1.0244
1.00496
1.03388
1.02078
1
1.01284
1.03314
1.00026
1.00934
0.948055
0.932902
0.921177
0.979451
0.957343
0.946428
0.956081
0.977393
1.01833
0.974577
0.959026
0.971375
1.00632
1.00206
0.998169
0.882909
1.02569
1.01065
1.02797
0.971288
1.03492
0.942726
1.01765
1.034
0.947256
1.0338
0.939845
0.975115
1.01496
0.947489
1.03429
1.03437
0.976105
0.976155
0.941801
0.967407
1.03482
1.03693
0.966495
1.0001
0.948827
1.03644
1.02151
0.989441
0.934365
0.934722
1.02364
0.963977
1.00437
0.989025
0.970069
1.03498
1.00436
0.946065
0.989941
0.994663
0.990198
1.00308
1.04877
0.979733
0.965148
0.982252
0.966931
0.982203
0.978785
1.00067
0.915685
0.910894
1.03628
0.975924
1.02793
1.01988
0.965841
0.961574
0.967527
0.962174
1.02356
0.976864
1.02754
1.03304
0.966699
0.976988
0.988493
0.99068
0.97057
0.987322
1.0019
0.973358
0.977135
0.988872
1.00848
1.01134
1.03459
0.943709
1.03584
0.979893
0.990313
0.987838
1.03448
0.976681
0.964248
1
1.02498
0.964207
0.975439
1.02581
1.02384
1.02705
0.974177
1.0241
0.970282
0.990855
0.992727
0.950093
0.992692
0.971095
1.01976
1.02821
0.9938
0.953492
1.02822
0.937598
0.997184
1.01942
0.962628
0.962725
1.02808
1.0339
0.98607
0.973092
1.00706
0.997227
0.995451
1.03385
0.949664
1.00942
1.029
0.965558
1.03945
1.03937
0.970855
0.964136
0.972561
0.965915
1.02692
0.995489
0.985178
0.95249
1.00458
0.954207
1.01706
0.974376
1.00786
1.01732
1.01309
0.951574
0.976106
0.983206
0.952058
1.01171
1.01461
1.01125
0.954747
0.941534
0.991785
0.962239
0.998964
0.94619
1.01587
1.00033
1.01204
0.961525
1.01998
1.00652
1.00979
0.981691
1.01495
0.932515
1.01344
1.0223
1.02613
1.01621
1.01851
1.02578
1.00829
1.00512
1.01763
1.00671
1.00242
1.02341
0.943597
1.02624
1.02479
0.981317
0.9991
0.996795
1.0198
1.01887
1.01547
0.939647
0.957584
0.988592
1.00278
1.00072
0.980217
0.944808
1.00381
1.03604
1.02002
1.03653
1.02639
0.975917
0.958167
0.999117
0.998847
0.976036
0.958371
0.961101
1.01871
0.960853
0.976967
0.992924
0.979681
0.997137
0.964107
0.999459
0.965624
1.02773
1.02754
0.98684
1.00104
1.03655
1.02955
0.992625
0.998939
0.962578
0.978796
1.00264
0.994221
1.02795
0.947797
1.03665
0.985152
0.989416
0.999618
0.975254
0.951863
0.96124
0.963542
0.993207
0.96952
0.99471
0.958461
1.03659
0.974659
0.970308
0.95267
0.992082
1.02285
0.984967
1.03685
1.02214
0.97877
0.991361
0.97566
0.986788
1.03417
0.975548
0.93622
1.00352
1.02328
0.975161
0.99803
1.03023
0.991783
0.971566
0.936563
0.99253
0.968767
0.976252
0.989185
0.990271
0.987984
0.976133
1.01311
0.965097
0.975426
0.990094
0.988836
1.01324
0.973591
0.990486
0.970171
0.976389
0.987125
0.970704
0.975251
1.01826
1.00156
1.0114
0.963466
0.978478
1.03569
1.01189
1.03318
0.985145
1.01157
0.98003
1.03661
1.01023
0.982001
0.975973
0.976312
0.986575
1.01057
1.0162
1.01808
1.01826
1.02936
0.986872
0.998571
0.98631
0.975864
1.03427
0.983192
0.894896
0.978676
0.951053
1.01388
1.01152
0.989844
0.975782
1.00866
0.985927
0.980549
0.987958
1.02395
0.983055
0.983328
1.00902
0.977087
0.990898
0.979719
0.984199
0.986557
1.01336
0.984267
0.989435
0.974777
1.00697
0.981036
0.982596
0.975876
1.05476
0.975871
1.02969
1.0365
1.00728
0.976164
0.999794
0.980768
0.980605
0.975552
0.991147
1.00572
1.02718
1.03518
1.00701
0.971947
0.958571
1.00618
0.994549
1.02604
0.99915
0.994312
0.963286
0.974108
1.03198
0.994363
0.969766
0.97443
0.975959
0.971403
0.975671
1.00397
1.01528
0.989765
0.99004
1.00406
0.966973
1.01672
1.02383
1.02703
0.977376
1.03653
1.03645
0.978296
0.947314
0.998739
0.96893
1.01381
1.02524
1.02591
1.02176
0.985415
1.0249
0.95665
1.01849
0.963178
0.969341
0.987435
0.943909
0.967493
0.948279
1.00125
0.93931
0.962363
1.00492
0.992915
0.961483
1.00161
1.00171
1.02631
0.970313
0.963821
1.02813
1.03581
0.992447
1.02712
0.995771
1
1.00024
0.964636
0.962038
0.994773
0.991082
0.998631
0.972525
1.02568
1.01362
1.00679
1.02341
0.967263
0.999175
1.00778
0.98645
0.954501
1.02568
0.998182
0.96006
0.980085
0.986795
1.00389
1.00245
0.997385
0.9977
1.00828
0.99684
1.00361
0.961752
0.995438
0.967047
0.952921
0.976926
1.02473
0.998028
0.975858
1.03499
0.964603
0.985541
0.980275
0.984817
0.999591
0.99184
0.994193
0.989664
0.941108
1
1.00383
0.996874
0.967122
0.99955
0.968269
0.995091
1.03687
0.94739
0.958795
1.02238
1.03544
1.01847
1.02206
0.995509
1.01558
0.941166
1.00887
0.962766
1.02843
0.951885
1.03595
1.00271
0.998901
0.953754
0.993651
0.993323
0.998925
0.962759
1.02358
1.01768
0.972986
1.00901
1.00277
1.02077
0.970645
1.00397
0.947815
0.994286
0.959094
0.99958
1.02849
0.990337
0.99358
0.989901
1.006
1.00886
0.959174
1.01687
0.957086
0.956295
1.0289
0.994669
0.971736
1.00742
0.996006
1.00818
0.951259
0.954333
0.987655
1.01963
0.974418
1.01067
1.00893
1.0361
0.981986
0.999593
1.00949
0.993633
1.03575
1.02535
0.983735
0.942373
0.961399
0.922735
0.992526
1.0155
0.991738
1.02351
1.014
0.987934
0.955745
1.01301
1.01361
1.00841
0.931705
0.991439
1.0119
0.989641
0.961981
0.962748
0.986979
1.02096
0.980957
0.991478
0.966325
1.03664
0.975406
0.974423
0.955808
0.947512
1.00727
1.01488
1.03445
0.955581
0.956394
0.974656
0.956648
0.948378
1.0352
0.955927
1.01434
1.00717
1.01537
0.954226
1.01222
0.990095
0.975395
0.991563
0.986048
1.01402
1.0091
0.963348
1.01709
0.944789
0.932255
0.968835
0.932707
0.984915
1.02101
0.957026
1.02283
0.963428
0.985309
1.02853
1.0332
0.959447
1.00778
1.02547
0.971981
0.988762
1.03471
0.964859
1.02492
0.923583
1.01684
0.995437
0.934838
0.982177
0.940373
0.955257
0.982594
0.955414
0.976243
0.975774
1.02586
0.96853
1.04097
0.980637
0.983976
1.00884
0.980488
0.997334
1.01487
0.981262
1.01508
1.02561
0.995619
0.925921
0.979793
1.00345
1.01567
0.970666
0.977496
0.979694
0.983462
0.951227
1.0038
0.997903
1.03607
0.935365
1.0342
0.982138
0.925267
1.02736
0.979224
0.987667
0.984486
1.00106
0.966046
0.980097
1.01078
0.968169
1.03101
0.95216
0.951842
1.001
1.01819
1.03073
0.979067
0.97377
0.991738
1.01742
1.03173
1.00113
0.979476
0.976398
0.941874
1.01893
1.03491
1.01975
1.01865
0.977174
1.02062
0.986895
1.01957
0.977452
1.0347
0.953847
0.988628
0.9798
0.975941
0.97113
0.998507
0.996613
1.02091
0.976773
1.01664
0.976955
1.03484
1.02547
1.03556
0.941332
0.973479
1.03625
0.95017
0.980862
1.02166
0.995712
0.976745
0.95612
0.963646
0.972899
0.983982
0.945603
0.97785
0.98964
0.945108
0.970956
1.02434
0.980165
0.973869
0.973759
1.01292
1.00338
1.00114
1.02248
0.946995
1.02436
1.02356
1.03037
0.96126
0.99626
0.971642
1.0286
1.0245
0.953077
1.02461
1.02314
0.995361
0.973697
0.993088
1.02892
0.97637
0.977134
0.953644
0.992448
0.952623
1.00096
0.970521
1.02254
0.972437
1.02309
1.03525
0.965444
0.973355
0.951135
0.993452
0.969247
1.03556
0.973401
1.00913
0.976307
1.02553
0.988527
0.977798
1.02656
0.975992
1.02173
0.98513
0.956144
0.982079
1.06654
0.986245
1.03384
0.966785
0.998896
1.00683
1.01344
1.03224
1.02286
0.974702
0.955944
0.96878
1.0016
0.973603
0.958971
1.00287
0.989605
0.9709
1.02806
1.03252
1.03282
0.923663
0.958366
0.967308
0.966333
0.947651
1.02106
1.03595
1.02731
0.988044
1.03589
1.02077
0.962043
0.947075
0.978704
1.02779
0.960995
0.95758
0.961323
0.963801
1.00283
0.948463
1.03063
0.958388
0.961893
0.963722
0.946407
0.977212
0.964399
0.974994
1.03588
0.972796
1.03138
1.01927
1.03524
0.95899
0.977393
0.984201
0.963438
1.03485
0.957138
1
1.03593
0.962702
1.036
1.02101
0.986425
0.968932
1.05284
0.984533
0.961052
0.968503
1.01807
1.03046
1.02544
1.03553
0.967664
1.01756
1.02093
0.956716
1.01013
0.993228
0.955492
1.02495
0.966463
1.02393
1.01353
1.03107
0.971916
0.960872
0.962249
1.01247
0.996272
0.972388
0.982983
1.03512
1.03584
0.991466
1.02122
1.01083
0.95066
0.972499
1.01395
1.03587
1.03386
1.03592
1.03236
0.960501
1.03592
0.968214
0.971205
1.00942
1.00876
0.974317
1.01285
0.959181
0.912268
1.01956
0.949601
0.999769
1.03292
1.01634
1.00797
1.01265
1.03635
1.00777
1.01099
0.991142
0.988089
0.967732
0.97533
1.00069
1.013
1.03493
1.00979
0.947567
1.00737
1.00659
0.988416
0.97526
1.03619
0.974256
1.02106
0.982754
1.00448
0.97307
1.03646
0.940932
1.00821
1.03671
1.00906
0.918421
1.00696
1.02588
1.03482
0.982154
1.03591
0.979396
0.950066
0.979685
0.924221
1.00677
1.00796
1.03497
0.989162
0.958244
1.02092
0.981441
1.0022
0.96332
0.979237
0.973508
0.977995
1.00176
1.00503
0.977243
0.972552
1.03644
1.03581
0.9478
0.990867
0.995894
0.995542
0.982412
1
1.00289
1.01398
0.981484
1.03533
0.954303
0.983415
0.998235
1.02263
0.9792
0.956391
0.9478
1.01312
1.00058
1.00801
0.982982
0.978213
0.987988
0.993185
0.941654
0.954803
0.996218
0.956617
0.943785
1.03632
0.966294
1.0235
1.03612
0.998126
0.987046
0.998223
0.953299
1.02763
1.03438
0.955144
0.984212
1.02842
0.994983
1.0238
0.986401
0.967185
1.03609
1.03953
1.02349
0.986403
1.02264
0.972566
0.978354
1.03647
0.997029
0.992235
0.986436
1.03592
0.920314
1.02839
1.00282
0.979188
1.06245
0.989854
0.978069
1.00288
0.988874
0.96215
0.949979
1.01691
0.991359
0.994896
0.98332
0.98942
0.98791
1.00556
0.963351
1.00363
0.948944
1.02837
1.00976
1.02764
1.03381
0.960085
0.991078
0.989964
1.00371
0.980619
0.951636
1.04475
0.988518
0.999125
0.976618
0.976406
0.963269
0.991733
0.983319
0.952441
1.03575
0.954596
0.989929
1.02489
1.03608
1.03574
0.990313
0.951877
0.994795
0.956644
0.977068
1.02981
0.992637
0.991378
0.983623
0.99327
0.957114
1.03676
1.03452
1.00638
0.991817
0.985892
0.959943
0.983178
1.0266
1.03587
0.958215
0.993131
0.9809
0.988553
0.983173
0.97468
0.975504
0.9738
1.04801
0.986671
0.976061
0.996819
1.02303
0.982434
0.995011
0.989759
1.03651
0.994831
1.03594
1.01778
0.994163
0.959107
1.0208
0.98164
0.975548
0.964529
0.9807
0.986529
1.01471
1.03595
0.977548
0.975456
1.00628
0.995024
0.993921
1.03663
0.983674
0.994189
0.979373
0.974687
0.980979
1.03674
1.02379
0.986065
1.04234
1.02382
1.01231
0.949052
0.980897
1.01862
0.964075
0.981878
0.980148
0.958298
1.01528
1.02164
0.972389
0.99668
1.00838
1.02145
0.981609
0.988645
0.979966
0.979218
1.01068
0.986104
1.02688
0.997023
1.02449
0.996969
0.988822
0.998561
1.03658
0.996384
0.980602
0.98813
0.977889
1.02474
0.996784
0.936972
1.02626
1.0433
0.979328
0.977147
0.990859
1.03593
1.02745
0.968554
1.03586
0.978658
0.999043
0.973376
1.03586
1.03649
0.99024
0.977261
1.03593
0.998816
1.03588
0.97456
0.998
0.946311
1.0359
0.974501
1.03637
0.969079
0.998063
1.033
0.989201
0.998806
0.974434
0.970445
1.02416
1.022
1.02147
0.993839
0.999127
0.968859
0.969758
0.995264
0.965395
1.00095
0.995063
0.947626
1.01042
1.03327
1.02095
0.991458
0.974066
0.947622
1.0211
0.993108
1.01095
1.0234
0.970931
0.954383
1.01082
0.954479
0.998995
1.0362
0.962944
1.0007
0.999182
0.967171
0.965631
0.917942
0.904124
0.980338
0.975394
0.995128
1.03196
1.04311
0.99935
0.974891
0.961516
1.02268
0.976081
0.974883
0.98384
0.990245
1.027
0.964533
1.00279
0.981084
0.994539
1.00847
1.02756
0.976141
0.956858
0.995228
0.999708
0.96077
1.02109
1.03642
1.00248
0.962093
0.979676
1.03655
0.994287
1.03521
1.03577
1.01604
0.999229
0.999999
0.959063
1.01905
0.996303
1.02889
0.961379
0.995456
1.00314
0.956008
1.02312
0.959431
0.999107
0.981297
1.00335
1.0168
1.01884
0.99798
1.03579
1.00173
0.984209
0.986435
1.01998
1.04594
0.952159
0.995599
0.953693
1.01025
0.997549
1.00326
1.00146
1.03085
0.998042
0.982958
1.04671
0.993631
0.953336
0.955978
0.954715
0.999014
1.03579
0.983443
1.02267
1.00287
0.977275
1.01486
1.02025
0.989362
0.99454
0.995861
0.985072
0.93191
1.01518
1.0367
0.982727
0.973319
1.00102
0.963984
1.02564
1.00648
1.00342
1.00249
1.00447
1.03572
1.00059
1.02601
1.00395
1.03579
1.03382
0.98088
1.03156
1.00341
0.978009
1.03571
1.03749
1.0027
0.990153
0.990379
1.02778
0.977432
1.02535
0.981867
1.0105
1.02132
1.00314
1.02581
1.02783
0.984466
1.00229
0.982319
1.00213
1.03608
0.993249
1.00966
1.05482
1.01673
0.995675
1.03608
0.982235
0.995466
1.00678
0.98254
1.03577
1.03681
0.984114
0.999551
1.03683
1.02321
1.00233
1.00476
1.00569
1.00528
0.926407
1.00606
0.974437
0.982682
0.958653
0.946049
0.946525
1.01864
1.0043
0.959583
0.979364
0.963353
1.03214
1.02044
1.00483
0.980577
1.02541
1.02638
0.950416
1.02865
1.00827
0.987662
0.9754
1.02298
1.00641
1.00805
0.990542
0.979074
0.989012
1.02352
1.00661
0.987078
1.03358
0.923091
1.00561
0.9914
0.994987
0.978662
0.989854
0.978358
0.925538
0.923051
1.01789
0.932568
1.00609
1.01424
1.02118
1.00232
1.03577
1.00196
0.9409
1.02654
1.02336
1.03577
0.999619
0.99327
0.981394
1.01743
1.00805
1.00031
0.930766
1.02181
0.982856
0.946308
1.01971
1.00326
0.981782
1.01083
1.02181
1.02103
1.0226
0.980072
0.993355
1.00794
1.00246
0.999041
0.988247
1.01042
0.956564
1.02405
0.989387
1.02691
0.980996
0.981456
0.982342
1.02131
1.03665
0.926493
1.03605
0.984771
0.956678
0.99473
0.961966
0.955875
0.971507
0.992215
1.01961
0.972725
1.02453
1.01979
0.992575
1.01015
0.957268
1.02019
0.981482
0.984078
0.974092
1.04144
0.981587
0.994648
0.989165
1.03644
0.942274
1.00949
0.983625
0.95604
0.995945
0.954759
1.00496
0.955866
1.02384
0.989988
0.996876
0.993097
1.01312
0.992166
0.982841
0.957031
0.971704
1.01824
1.02318
1.00254
0.987859
1.01263
0.98074
1.02085
1.03558
0.985035
1.0181
1.03562
0.991873
1.00535
0.939845
0.980378
0.99355
0.991412
0.988221
1.01112
1.03612
1.0217
0.984698
0.953377
0.956575
0.94752
0.993555
1.0359
0.993677
0.92326
0.956276
0.982247
0.958248
0.928063
1.03153
1.00448
0.992009
0.99229
1.01097
0.949652
1.03076
1.03608
1.03402
0.99141
1.01632
0.991069
0.997332
0.991435
0.94578
1.06458
1.03603
0.959893
0.957832
1.01607
1.03595
0.954809
0.95956
1.00287
1.02374
0.968645
0.999228
0.979222
0.976964
0.942312
0.992876
1.01166
1.0361
1.00458
0.993489
1.01189
0.985377
0.951977
1.01273
0.924405
0.959373
0.991156
0.996371
0.993008
0.96354
1.01503
0.998849
1.02194
0.996433
1.02091
1.01165
0.998415
0.925904
1.01453
0.952347
1.01245
1.0172
1.02145
1.0108
0.972977
1.02354
0.976717
0.993579
0.962971
1.02125
0.995796
1.02215
1.00334
1.01243
0.99234
0.993473
0.938386
0.977436
1.02948
0.995593
0.968862
0.971408
0.971402
0.979663
1.02133
0.923268
0.999643
0.943872
1.01372
0.989546
0.990547
1.02859
0.976317
0.979289
0.996669
0.995897
0.976644
0.958226
0.979448
1.00558
0.995882
1.01329
0.963505
0.975182
0.972025
0.973306
0.950313
1.03639
0.990737
0.976247
1.01904
0.988712
1.03604
0.957319
0.948294
1.017
0.995784
0.997798
1.02205
0.977456
1.02196
0.969026
0.980504
0.974082
1.00255
1.01665
0.922512
1.02677
0.976525
1.04559
0.984753
1.01934
0.989274
1.01448
0.995888
0.998573
0.949622
0.980874
0.969039
0.949563
0.999999
1.02755
0.988019
1.01491
0.954152
0.999201
1.01027
0.98397
1.0218
0.927344
1.01182
0.981851
1.01792
0.998993
1.01594
0.975795
0.992143
0.973999
1.01452
0.979431
1.03631
0.987934
1.03695
1.01207
0.996052
0.953051
1.06049
0.998952
0.998453
1.01517
1.01826
1.01219
1.04409
1.00824
0.989312
0.937769
0.979562
0.983067
0.992798
1.02314
1.01912
1.0337
0.97343
0.977134
1.00941
1.00878
1.01382
0.974733
0.952941
1.01249
1.01067
1.01662
0.981489
0.95087
1.01643
1.01895
0.983289
0.938441
0.913862
0.993178
0.984902
1.016
1.01627
0.983206
0.987052
1.00999
0.988669
1.00626
1.01018
0.978965
0.921056
1.02822
0.977895
1.00932
1.02314
1.00151
0.948851
1.02308
0.98218
1.04141
0.983955
1.01627
0.98254
0.974645
1.02226
1.00982
1.00425
1.00559
0.985525
0.976512
1.011
0.991562
1.01354
0.969468
0.992809
0.989893
0.985464
0.993595
0.988957
0.996098
1.02363
0.976697
0.986088
0.982443
1.01777
0.973296
0.994251
0.988545
1.01308
0.960345
1.00043
0.927958
0.994416
0.986697
1.01741
0.995249
0.997497
1.02124
1.00192
0.962202
0.979935
0.984062
0.990648
1.01376
0.982688
0.985599
0.998736
0.991998
0.978193
1.00274
1.00297
0.993737
0.992704
1.02127
1.02849
0.992014
1.02271
0.981984
0.975281
0.998873
1.00319
1.03769
1.01398
0.993613
1.01219
0.992055
1.01925
0.989765
0.993207
0.980626
0.987978
1.03571
0.986175
0.99561
0.990957
1.03057
1.00924
0.975436
0.993305
0.997001
0.985747
1.00615
0.912313
1.00134
1.00277
1.03217
1.01896
1.01956
1.0138
1.00008
0.97715
0.99976
0.996406
0.985491
0.979548
0.97868
0.975618
0.948728