/*--------------------------------*- C++ -*----------------------------------*\
  =========                 |
  \\      /  F ield         | OpenFOAM: The Open Source CFD Toolbox
   \\    /   O peration     | Website:  https://openfoam.org
    \\  /    A nd           | Version:  12
     \\/     M anipulation  |
\*---------------------------------------------------------------------------*/
FoamFile
{
    format      ascii;
    class       volScalarField;
    location    "5";
    object      p;
}
// * * * * * * * * * * * * * * * * * * * * * * * * * * * * * * * * * * * * * //

dimensions      [1 -1 -2 0 0 0 0];

internalField   nonuniform List<scalar> 
46253
(
0.965276
1.04428
1.2088
1.0436
1.20473
1.20157
0.886814
0.875175
1.03917
1.03877
0.984557
0.778322
1.0174
1.01821
1.01868
1.03666
1.03603
1.02562
1.02604
1.0315
1.03095
1.19581
1.01818
0.94696
0.930499
1.04101
1.03389
1.03335
1.04157
0.887622
1.00174
1.0101
1.00943
1.02883
1.02816
1.07953
1.02115
1.02049
1.01511
1.00781
0.721084
0.77567
1.0122
1.01219
0.646725
1.02377
1.02337
1.05254
1.00362
1.00315
1.00234
1.00175
1.18541
1.03553
1.21808
0.815978
1.0007
1.00173
1.094
0.84921
1.08565
1.00787
1.07354
1.04027
1.01965
1.01505
1.01414
1.19101
0.827181
0.665207
0.885524
1.0009
1.00014
0.67619
1.18124
0.943217
1.00163
1.00234
1.05336
1.00707
1.00604
1.00106
1.18656
1.00115
0.770988
1.1771
0.984532
0.983925
0.826521
1.07426
1.00286
0.787572
1.17623
1.00087
1.02619
1.00229
1.17523
1.02563
1.09132
1.08071
1.00259
1.17438
1.17894
1.00021
1.2166
0.766357
0.768055
0.963985
0.9638
0.774395
1.05545
1.00059
1.00237
1.02607
1.05009
0.819031
0.751529
0.866344
1.22009
0.804307
1.00107
1.19878
1.00046
0.999402
1.17241
1.22704
1.08403
0.788957
1.23599
0.998769
0.950289
0.949539
1.19839
0.92825
0.998302
1.00924
0.993582
0.994202
0.802772
1.02208
1.00217
0.939788
0.940079
0.988163
1.0012
1.22843
0.989399
0.987469
1.0062
1.07455
0.774508
1.18431
0.995999
0.995056
0.964042
0.665968
0.782545
1.08695
0.980014
1.21446
0.979265
0.742329
0.804364
1.0303
0.853472
0.992548
0.929035
0.992341
1.33039
1.07897
0.974069
0.973477
1.19265
0.806512
1.21209
1.0579
1.18183
1.17428
0.711466
0.744451
1.21276
0.96118
0.967272
0.966285
1.11627
0.982563
0.982019
0.748348
1.1156
1.11513
1.18263
1.10589
0.950078
1.10603
1.12189
1.1218
1.03516
1.17186
0.882969
0.884952
1.0342
1.08096
0.976768
0.976058
1.08213
0.685934
0.954732
0.958891
0.957705
1.0807
1.04901
1.22139
0.694144
1.17795
0.95224
1.17176
0.984479
0.769561
0.951884
1.19301
1.18891
0.952005
1.0342
0.971135
0.970249
0.77478
1.17169
1.17312
0.868965
0.867547
1.05298
0.999876
1.07729
1.07947
1.17209
1.0313
1.11941
1.06443
1.04919
1.06376
1.17195
1.17373
1.17369
1.11971
1.01639
1.17998
1.0721
0.951452
1.17411
0.94167
0.94118
1.06134
0.850825
1.17596
0.849739
0.962153
0.961523
0.846387
0.806818
1.18353
0.946057
0.891782
0.783648
0.991894
1.06658
1.11982
1.03292
1.06248
0.95462
0.932253
0.953388
1.17332
1.08795
0.999958
0.931132
1.17186
1.22351
1.07815
0.995033
0.859687
0.832856
0.831224
1.18011
1.17813
1.06214
0.95918
0.979048
0.807491
0.982085
1.08336
1.08443
1.08397
0.910568
1.07441
1.07983
1.02503
1.17335
1.0228
0.716261
0.927751
1.21183
0.927319
0.800549
1.20955
1.11501
0.946262
0.943935
1.07908
0.993922
1.11545
1.11512
1.16712
1.06075
0.919371
1.15246
0.91864
0.817083
1.07842
1.08213
0.969591
0.788119
1.12923
0.903228
0.926947
0.984687
0.978251
1.11406
1.17283
0.913944
0.913286
1.05069
1.05131
1.11548
0.989651
1.10108
0.926688
0.841042
0.937678
0.935736
1.12247
1.18568
1.18278
1.05112
1.22067
1.09301
0.908029
0.907455
1.0653
0.827529
1.17365
1.02763
1.07743
0.709518
1.03388
0.737456
1.1262
0.92879
1.07664
0.929386
1.07325
0.738967
1.11373
1.16719
1.11416
1.11477
1.14179
1.1372
1.13656
0.899804
1.13409
1.13235
1.13289
1.13271
0.898846
1.14062
1.07263
0.80083
1.17284
1.13333
1.07895
0.736879
0.890096
0.786153
0.924641
1.01224
0.922652
1.0971
1.02894
0.895843
1.24786
1.11668
0.983367
0.895709
0.940455
1.0885
1.07555
0.948796
0.947849
1.18767
0.88626
1.03578
1.01163
1.02033
1.06963
1.17299
1.12845
1.12101
1.07912
1.00096
1.09584
1.18913
1.11543
1.19166
1.11621
0.886679
1.12799
0.990319
1.17322
1.09207
0.842681
1.12895
1.03039
0.885761
1.0866
0.916327
1.0866
1.0762
0.884326
0.915913
1.11083
1.18947
1.07759
1.04401
1.12278
1.12315
0.85774
0.97297
1.11452
1.12104
1.05716
0.789943
1.13417
0.916221
1.11141
0.860188
0.966657
1.10626
1.19053
0.82049
1.09
0.860185
0.892026
1.06035
0.996971
0.999913
1.12463
1.1257
1.12499
0.910969
0.871867
1.18448
0.861541
0.861988
0.91049
1.13394
0.858443
1.17434
1.11586
1.1282
1.13309
1.11638
1.14412
1.03882
1.14466
0.792608
0.878405
0.820896
0.948335
0.875682
0.977567
0.98655
0.987567
1.07877
1.17166
1.17173
1.07982
1.24064
1.07102
0.862058
0.802798
0.771857
0.862539
0.884325
0.867452
0.868356
1.01296
1.13025
0.90428
0.886737
0.788873
0.90249
0.871038
0.871151
0.984021
0.792586
1.15604
0.975666
0.997049
1.07928
1.00101
1.18728
0.834918
1.13056
0.999071
0.989404
1.08408
1.11584
0.868373
1.1736
1.02135
0.958208
1.03607
0.887622
1.17844
1.18853
0.888284
1.1342
0.887911
0.881598
0.887032
1.05888
1.12308
1.16778
1.07806
0.870047
0.886096
1.08902
1.07799
0.896754
1.12436
0.935017
0.818719
1.0906
1.10227
0.897612
1.08225
1.07584
1.1203
1.12069
0.707466
1.11623
1.11736
0.861576
0.824214
0.860969
0.866956
1.1064
1.10765
1.10113
1.10205
1.17826
1.13294
1.07883
0.884354
0.771147
1.11191
1.11903
1.08336
1.12776
1.11173
1.12082
0.944675
0.983888
1.03633
0.973703
1.11628
1.1008
0.802082
1.12451
1.11447
1.11264
0.892409
1.10894
1.11966
0.889078
0.968771
1.00628
1.14833
1.00844
1.00923
1.01282
0.854734
1.11795
0.854886
0.853905
0.981546
0.986111
1.11137
1.10686
0.659218
1.09408
1.21445
0.904751
1.12795
1.21096
1.13029
1.1329
0.99066
0.999188
1.12938
1.13935
0.866029
0.861386
1.13325
1.08915
0.93229
1.09223
1.09383
1.08825
1.08976
1.08167
1.0819
1.07508
1.07756
0.896915
0.872171
1.07042
0.893041
1.07036
1.06113
1.13433
0.937642
0.965756
1.06369
1.14372
1.05771
1.08987
1.05853
1.03884
0.873185
1.04727
1.07795
1.04868
1.15364
1.13256
1.04319
1.12373
1.04503
1.12398
0.69653
1.0782
0.838555
0.995656
1.11293
1.11358
1.03558
1.03531
1.16621
0.888856
1.02708
1.02985
0.932157
1.17224
1.17341
1.01782
0.846216
1.01997
1.13301
0.883877
1.01107
0.79354
1.01143
0.846097
0.882524
1.13223
1.11354
1.11321
1.00243
1.00373
0.926589
1.13179
1.13225
0.996253
0.858891
0.998048
0.794303
1.13506
0.985808
0.987281
1.11478
1.11746
1.11532
1.01115
1.11799
0.887486
0.919792
1.00258
1.17202
0.974728
1.10017
0.97598
1.09939
1.13408
0.893637
0.895236
0.967467
0.967062
0.855473
0.891547
0.958036
0.881314
0.960716
1.17194
0.949907
0.949486
0.951903
1.11684
0.826146
0.941895
0.941715
1.30024
1.0826
1.08248
1.11567
0.931786
0.868066
0.933937
1.03167
0.849294
0.879093
0.788713
0.930894
0.931293
0.915543
0.915131
0.915292
0.818029
0.825669
1.11044
1.13111
1.22235
0.836579
1.07799
0.794376
0.835286
0.790295
0.904894
0.929466
1.09954
1.11166
1.10065
0.872993
1.10012
1.11495
1.09941
1.15104
1.1156
0.873034
1.14619
1.10936
1.10863
0.830898
0.818983
1.13415
0.943095
1.14035
0.968382
1.07037
1.07447
1.09725
1.13315
1.01013
0.878749
1.10097
0.858444
1.12948
1.00013
0.875804
1.00154
0.791378
1.11594
0.925498
0.736668
1.01159
1.13127
1.0695
1.16322
1.0152
1.10027
1.00314
1.00324
0.875641
0.960325
0.940031
1.13295
0.852572
1.09209
1.1317
1.00426
0.902108
1.12766
1.00548
1.12752
1.12875
0.949506
0.947188
1.1341
1.00545
0.807924
0.859341
1.13429
0.870327
0.834905
1.1338
1.13054
0.858082
0.867541
1.13056
0.83596
1.06232
1.13472
1.02925
1.02389
1.02441
0.870848
1.10298
1.05838
1.11111
0.733404
0.88631
1.11488
0.88643
1.06896
0.807239
1.14653
1.19371
1.17491
1.13201
0.991491
0.992937
1.09581
1.1334
1.07451
0.864655
0.980363
1.03766
1.13419
0.982168
0.863202
0.88268
0.880965
1.08074
0.854322
0.887084
0.78269
0.860626
0.79451
0.954904
1.11506
1.1145
0.955106
1.12494
1.11735
0.870743
0.865275
1.11616
0.814324
0.836561
0.887804
0.805226
0.842122
0.811744
0.826921
0.826819
0.794505
0.795794
1.05806
1.15261
1.01538
1.1533
1.05703
0.857552
0.83435
0.800163
1.13304
1.11507
0.891233
1.17197
0.887395
0.889704
1.12613
1.12502
0.854678
1.12575
1.0672
1.12573
1.13406
0.872372
0.890018
1.02324
1.09787
1.12722
0.859175
1.08454
0.888401
0.886655
0.858493
1.13231
0.895415
0.873839
0.894879
1.09157
1.09095
1.0895
1.09407
0.874033
0.886713
1.12646
0.932643
1.12864
0.822883
1.12618
0.829799
1.00897
0.916268
1.13323
0.823581
0.821531
0.866463
1.18388
1.098
0.798035
1.00044
0.997198
0.821855
1.10315
1.1049
0.859992
1.03268
1.13283
1.13308
0.895769
0.761133
0.850221
0.882308
1.08198
1.11302
1.17217
1.11411
1.10067
1.11831
1.25248
1.11983
0.954845
0.825939
0.791873
0.977995
1.04515
1.07901
1.08133
0.825997
0.949933
1.00399
1.02947
1.04701
1.05202
1.05911
1.03746
1.04672
1.10672
0.930587
1.05513
1.06702
1.03964
0.8817
1.05908
1.0186
1.0331
1.06863
1.09649
1.07116
1.03436
1.07252
1.11362
1.02261
1.08922
1.07982
1.08083
1.02305
1.08366
1.08472
1.01306
1.08578
1.11411
1.09136
1.01443
1.17221
1.00691
1.09161
1.00443
1.13209
1.05374
1.00871
1.11418
1.1217
1.11673
1.00046
1.01328
1.11782
1.11711
1.12216
1.00081
1.05982
1.05866
0.98964
1.13447
0.897099
0.989453
0.978174
0.97818
0.828239
0.969537
0.971405
0.964545
1.0913
0.973052
0.965634
1.13622
0.954817
0.946406
1.13664
1.08517
0.954547
0.843644
1.01998
0.943816
0.945099
0.937904
0.847756
0.939479
1.04648
0.931723
1.09553
0.900521
0.847426
0.929507
0.932579
0.923003
0.85914
0.919505
0.909311
0.908109
0.934538
0.925611
0.922104
0.91798
0.962914
1.01039
1.12593
1.1344
1.00821
1.13356
1.0132
1.00817
1.05837
1.02529
1.22558
0.910705
1.0666
0.911717
0.934837
0.982726
0.983315
1.13444
0.93176
1.00956
1.01204
0.920467
0.845602
1.00402
1.00961
1.00734
1.00544
0.986056
0.818879
0.887308
0.861757
1.13386
0.891101
0.84707
0.792488
0.930782
1.14173
1.04517
1.00581
0.7658
1.01928
1.03278
0.75161
0.904812
1.02998
1.02625
1.09292
1.18613
0.858499
0.929682
0.984931
0.999541
0.930891
0.941621
0.983607
0.843609
0.913022
0.842422
0.904925
0.752507
0.728669
0.832291
0.997403
0.89753
1.00997
0.906694
1.14373
1.00937
1.06525
0.871248
0.910699
1.17171
1.14172
1.05991
0.888268
1.13113
1.08934
1.05662
1.04095
0.914581
0.791531
1.13742
0.800322
1.05298
0.883358
0.877722
1.08158
1.13702
1.12643
0.792776
1.08385
0.79248
0.892436
0.893652
1.22265
1.01474
0.890854
1.13046
0.928115
1.0496
0.932613
1.02983
0.907137
0.817903
1.07161
1.07306
0.890448
0.928439
0.895172
0.861562
0.866584
0.867502
1.07163
1.02985
0.903979
0.869375
0.856314
0.791992
0.933192
1.12804
0.875282
0.846224
0.894783
0.756972
0.888088
1.00667
1.75836
1.09426
1.09503
0.837023
0.878512
1.08167
0.868676
0.886985
0.848882
0.909431
0.817187
0.868425
1.02441
0.932318
1.03947
1.07526
1.07829
0.874411
1.04965
1.08884
1.09628
1.12195
0.883363
1.09085
0.877576
0.75901
1.15427
0.878623
1.13428
1.12398
0.872112
1.11068
1.10421
0.87467
1.09748
1.10655
1.07053
0.919527
1.09952
0.864792
0.866545
1.03423
1.11202
0.754039
1.08664
1.06058
0.880523
1.02973
1.03212
1.08836
1.07482
1.13765
0.88206
1.03608
1.13962
1.14784
0.801875
1.07589
1.14637
1.04613
0.923391
1.06609
1.15479
0.764219
1.06192
1.02194
0.878637
1.07248
0.832315
0.782164
1.09225
1.05879
1.0632
1.01131
1.02109
1.12117
0.95225
0.837335
0.944571
1.00304
1.06006
1.04948
1.06146
1.11672
1.08202
1.04581
1.05597
1.10169
0.858779
1.08605
1.05691
0.851193
1.0507
0.881456
0.85808
1.05423
1.15282
1.1541
0.897502
1.0598
1.05478
1.10396
1.11245
1.11948
1.06534
1.05535
1.0552
1.05618
1.11407
1.11232
1.1734
0.89612
1.0415
1.05673
0.919439
1.11311
1.05664
1.05283
0.990135
0.852334
1.02611
1.05056
1.00225
0.918171
1.05135
1.13372
1.11589
0.897569
1.04644
1.01092
1.0484
1.06994
0.8142
0.951938
1.11754
1.03876
1.04972
1.07549
1.04009
1.10938
1.08366
1.07991
0.887949
1.06785
1.13422
1.11921
1.03216
1.03333
0.806506
1.02751
1.1564
1.02883
0.999919
1.08941
1.02105
1.15492
0.95492
0.910076
0.817372
1.0427
0.793647
1.05472
1.1329
1.02264
0.941732
0.940329
1.0013
1.00651
0.762483
1.00684
1.00222
0.932471
1.00662
1.00684
1.02254
1.0295
1.01346
0.990177
0.974465
1.00321
1.00752
1.01538
1.00281
1.0206
1.00476
1.07023
0.926539
1.00439
1.00745
0.973111
0.836622
0.892866
1.00437
0.996751
0.825766
1.0007
1.02719
1.00393
0.858703
1.08802
0.994586
0.79469
0.815863
0.889275
0.99587
1.00568
0.995581
1.12921
1.03354
1.05737
1.13316
1.07183
1.11388
1.13191
1.1325
0.870898
0.909189
1.13233
0.984362
0.981414
0.984844
1.08748
0.815394
0.926741
1.0083
1.00793
1.0949
0.984633
0.882707
0.988127
1.04763
0.729728
1.0587
0.973692
1.02198
0.971716
0.960409
1.08636
0.858094
1.10038
1.01528
1.13398
1.06999
0.951438
0.961985
1.01569
1.05722
1.01853
0.889676
0.947132
1.00228
0.835308
0.840896
1.04299
1.09767
0.952821
0.957514
1.09858
1.09314
1.08586
1.08028
1.08666
1.08086
1.12033
0.851868
1.08608
1.00783
1.05765
0.809758
1.05273
1.04008
0.812093
0.948676
0.796202
1.13311
1.03954
1.00756
0.740479
1.11338
0.853069
0.995881
1.17217
1.17223
1.0772
1.09358
0.816921
0.842523
0.945069
1.12744
1.11933
1.11536
0.916346
0.88091
1.03321
1.07793
1.18843
1.12718
1.12855
0.974261
1.08459
0.935864
0.937514
0.966915
1.05135
0.922704
0.935752
1.08348
1.01372
0.935825
0.971177
0.989673
1.06463
1.07289
1.13098
1.06535
0.983368
0.924775
1.0514
1.06238
1.06135
1.08385
1.09384
1.03315
1.12035
1.16956
0.996769
0.821277
1.04253
0.817921
1.08432
1.02301
1.04407
1.12108
0.921912
1.02665
1.12197
0.923753
0.966393
0.927008
1.12566
1.11044
0.827579
1.05062
1.02186
0.813717
0.741313
0.937736
1.06448
0.905323
1.05964
0.883516
0.893877
0.925474
1.12746
0.916554
1.06288
1.02249
0.95012
1.02484
0.912292
0.845101
1.13362
1.13441
0.92298
0.926744
0.920356
1.13115
0.909499
0.994377
0.907329
0.897452
0.907625
0.922458
0.884885
1.01859
1.00961
1.01942
1.05626
1.0178
0.912601
1.03713
0.969302
1.04983
0.855168
0.997945
1.11716
0.842776
0.992444
0.795537
1.09367
0.83707
0.889734
0.897439
1.09349
1.01744
0.899191
0.893269
1.07312
0.895529
0.898718
1.03633
1.055
1.14301
0.870947
1.10975
0.977461
0.858809
0.91368
0.754684
1.01477
1.11032
1.01713
0.954723
0.893191
1.07426
1.05612
0.970065
0.954585
0.994499
0.977321
1.03707
0.817395
0.974002
0.992636
0.996103
1.00806
0.86595
0.886625
1.06643
0.884383
1.12695
0.875264
1.07453
0.870285
0.801727
1.05946
0.916545
1.08704
1.01486
0.974833
0.908851
1.1404
1.13365
0.975305
1.0212
1.22735
0.90769
1.11381
0.86065
1.0864
0.8632
1.07587
0.96341
0.872369
1.11983
1.02154
0.960558
1.05118
1.12717
0.948759
0.853214
0.852316
1.06862
1.14177
0.949935
1.0012
1.06818
1.02711
0.867386
1.02023
1.02928
1.00025
0.882081
0.83161
1.08681
0.979389
1.11865
1.07899
1.01303
1.03641
1.11704
0.999205
1.00423
0.841318
0.735469
0.74119
1.00373
0.848738
0.83999
0.844167
1.01014
1.05916
0.997483
0.852791
0.900854
0.996602
0.897526
0.950516
0.982395
0.946282
1.02808
1.1129
1.02083
1.1208
0.835558
1.05761
1.11831
0.801063
1.11633
0.825471
0.828011
0.879949
0.843979
1.11821
1.11852
0.992003
0.992836
0.735103
0.873788
1.11931
1.12648
0.867804
0.932212
0.842847
1.14611
1.06986
0.884662
0.818722
0.814622
1.08209
0.876736
0.969537
0.986961
0.826271
1.14079
0.97229
0.87057
0.924374
0.961356
0.946011
1.00272
1.17511
0.924308
0.863295
0.927246
0.888936
0.927924
0.920913
0.951242
0.994241
0.936099
1.14601
1.0324
1.11308
1.07405
0.877594
0.864583
0.868722
0.857771
1.08198
0.914817
1.11178
1.11325
0.867533
0.923571
0.958667
0.837186
0.95311
0.957018
1.0176
0.9878
0.923075
0.878419
1.01637
1.02238
1.12222
0.808192
1.14331
0.9192
0.921124
0.883751
1.12068
0.866902
0.876812
1.06043
1.08874
0.881616
0.906086
1.08647
1.07841
1.10175
0.902024
1.07949
0.898323
0.842829
0.864539
0.836627
1.035
0.902535
1.03495
1.17358
0.869781
0.817229
1.17266
0.792424
1.01905
1.02303
0.86849
0.863092
1.17323
1.11665
0.947315
1.05457
0.936397
0.93789
0.921154
1.11688
0.828053
1.04118
1.09694
0.882678
1.4573
1.44285
1.13523
0.867723
0.897017
0.885351
1.10574
1.01912
1.0747
0.849342
1.02457
0.819842
1.05718
0.954383
1.03513
1.05429
1.05238
0.806434
1.06356
0.947529
0.833608
1.04972
1.05599
1.01954
0.81335
0.808212
0.950348
0.868763
0.926394
0.818896
1.05489
1.00897
1.0507
0.863644
1.08145
1.03016
1.04134
0.926388
1.05632
0.859573
1.05418
1.0811
1.13489
1.05557
1.05775
1.13404
1.03697
1.02609
1.0553
1.03098
1.01694
1.08391
0.970089
1.09143
1.08163
0.937349
0.89796
0.996327
1.06292
1.05874
1.00198
0.805512
0.842149
0.964225
1.01787
1.01082
0.926286
1.05073
1.00545
1.14472
1.06382
1.12956
1.08654
0.907793
0.861833
1.00616
0.967808
0.904448
0.839983
0.863432
1.01119
0.84357
0.91506
0.986274
0.930224
0.99782
0.866444
1.0073
0.864807
1.09217
1.09567
0.836464
0.997706
1.14596
1.09947
0.913958
0.8314
0.863648
0.919558
0.916585
0.98718
1.09321
0.841805
1.14496
0.941299
1.10559
1.056
0.900102
0.801599
0.855749
0.882011
0.985465
0.884776
0.990837
0.870034
1.14057
0.908494
0.882753
0.807436
0.966236
1.0769
0.928305
1.12521
1.08062
1.05549
0.973299
0.914269
0.949861
1.12087
0.9071
0.786786
1.02381
1.08356
0.903856
0.984651
1.10177
0.976187
0.89991
0.785001
0.971685
1.0569
0.90495
0.947139
0.961653
0.956326
0.984175
1.03877
0.877845
0.914402
0.963133
0.950377
1.04006
0.85832
0.964865
0.887636
0.91426
0.948546
0.880659
1.0421
1.01013
0.927212
1.03327
1.04311
1.09875
1.14235
1.03392
1.11766
1.07629
1.03311
1.09863
1.13858
1.02811
0.930251
0.996128
0.91458
1.14334
1.02964
1.03607
1.00442
1.0175
1.10093
0.894715
1.04066
0.954142
0.906106
1.13762
0.935119
1.06518
1.00084
0.828451
1.01456
0.896212
0.951456
0.906001
1.02715
0.940583
0.916852
0.974572
1.08548
0.93421
0.933752
1.02801
0.914022
0.838091
0.919463
1.01101
0.944033
1.04488
0.93738
0.941022
0.916822
1.02868
0.929557
0.940187
1.00153
1.20111
1.00377
1.09999
1.14815
1.02976
0.910317
0.886625
0.926727
0.892472
0.91781
1.00141
1.02519
1.09728
1.12271
1.02072
0.913871
0.862421
1.02616
0.96782
1.09486
0.983249
0.826797
0.859762
0.912121
1.10925
0.962738
0.883654
1.00118
0.918324
0.909829
0.902745
1.02074
1.05138
1.01589
0.944469
1.02269
0.895856
1.05422
1.08504
1.18923
0.907884
1.1283
1.12787
0.910426
0.811939
0.982615
0.897582
1.03867
1.09207
1.08878
1.07068
0.925995
1.09049
0.847358
1.06783
0.848826
0.896453
1.13413
0.778844
0.897292
0.794762
1.01352
0.793307
0.869332
1.01242
0.775793
0.879483
1.01479
0.9997
1.09271
1.09928
0.881148
1.11354
1.1271
0.972593
1.10473
0.983101
1.00418
0.995649
0.879855
0.885127
0.975175
0.971171
1.00526
0.726489
1.08437
1.04276
0.851376
1.06439
0.896822
1.00509
1.03807
0.967145
0.852401
1.10229
0.985566
0.875865
0.918442
0.958472
1.00097
0.995824
0.983768
0.995926
1.00598
0.965418
1.00121
0.874808
1.00711
0.880564
0.854442
0.911064
1.13341
0.998829
0.909621
1.04075
0.864043
0.953781
0.914516
0.927565
0.988894
0.774235
0.96304
0.940701
0.735111
1.04263
1.00406
0.985116
0.889229
0.990733
0.874291
0.993074
1.12991
0.845034
0.853922
1.07326
1.14227
1.05905
1.07179
0.993457
1.04759
0.826202
1.03913
0.856284
1.1728
0.853718
1.03603
1.00087
0.917549
0.848458
0.967814
0.967775
0.985109
0.867709
1.09221
1.05536
0.896613
1.02613
1.02523
1.06639
0.955514
1.00713
0.831342
0.985501
0.843958
0.989932
1.11501
0.948817
1.0213
0.942425
1.01511
1.01985
0.846449
1.05184
0.843022
0.843279
1.11838
0.987932
0.890533
1.01762
0.986109
1.01812
0.843103
0.85014
1.09063
1.06262
1.1628
1.03237
1.02196
1.12741
0.981816
0.989762
1.02925
0.965412
1.12642
1.1008
0.986212
0.823684
0.856958
0.73456
1.01248
1.04854
0.978983
1.06936
1.04126
0.778853
0.826754
1.0356
1.03765
0.980935
0.762979
0.979529
1.03374
0.833158
0.90178
1.03723
0.852913
1.07159
0.910565
1.11172
1.01943
1.12842
0.906573
0.930321
0.836158
0.803
1.02699
1.04805
1.12142
0.845144
0.855824
1.03361
0.858689
0.827221
0.858457
0.740099
1.0454
1.019
1.01066
0.859
1.02313
0.957208
0.998127
0.982488
0.907108
1.04436
1.00827
1.06604
1.03477
0.816371
0.792412
1.0617
0.790571
0.969039
1.07887
0.863318
1.08228
0.855733
0.967591
1.12801
1.1278
0.86482
1.03816
1.13382
0.927725
1.01556
1.12147
0.862217
1.09433
0.741352
1.00668
1.04943
0.824535
0.957928
0.736973
0.837644
0.959493
0.838997
0.904785
0.91006
1.08579
0.742585
1.17366
0.958849
1.04383
1.0395
0.921272
1.00967
1.04662
0.960121
1.04656
1.08488
1.01824
0.743302
0.946487
1.0168
1.04736
0.899859
0.914158
0.947207
0.933701
0.934338
1.01846
1.04249
1.12621
0.825191
1.11995
1.01904
0.749122
1.10005
0.943823
0.882133
1.01567
1.00348
0.916056
0.946374
0.884166
0.884402
1.12521
0.830891
0.833455
1.00886
1.05646
1.12349
0.936644
0.982894
0.991698
1.05426
1.13128
1.01143
0.936859
0.910518
0.8302
1.06216
1.13088
1.07619
1.05875
0.929789
1.06754
1.10958
1.06516
0.931708
1.13947
0.812671
0.959171
0.897911
0.923458
0.957705
1.00066
0.96833
1.07145
0.925191
1.05306
0.955362
1.14011
1.10271
1.14231
0.830256
0.918504
1.12763
0.829763
0.899507
1.06929
0.978339
0.914653
1.02175
0.876826
0.91829
0.997464
0.844637
0.92094
1.01563
0.828392
0.880457
1.08049
0.946766
0.91166
1.01745
0.893651
0.998295
0.998192
1.0715
0.814664
1.08369
1.08118
1.12135
0.875305
0.99942
0.907817
1.11531
1.08103
0.825728
1.0986
1.07803
0.975841
0.912373
0.949996
1.11854
0.919677
0.913512
0.829771
0.98139
0.865837
0.894909
0.909592
1.00141
0.927616
1.07438
1.14229
0.887649
0.888138
0.858324
0.983278
0.906253
1.1429
1.0306
1.02618
0.913237
1.08538
0.902077
0.953226
1.08708
0.913942
1.07014
0.937691
0.858616
1.06607
1.25035
0.942169
1.11856
0.8912
0.938946
1.00329
1.04186
1.12975
1.07496
0.983904
0.845762
0.897371
1.00978
0.968547
0.864544
0.86321
0.971912
0.974701
1.10474
1.02541
1.13184
0.752064
0.872821
0.899548
0.896631
0.830295
1.0704
1.12568
1.08994
0.977079
1.12531
1.06662
0.883317
0.83005
1.07568
1.09675
0.880021
0.844626
0.883063
0.873284
0.995802
0.801471
1.12317
0.851181
0.874447
0.871291
0.802243
0.900988
0.873019
0.903889
1.12586
0.908689
1.10619
1.06058
1.12501
0.839486
0.908401
0.969991
0.869255
1.12056
0.838102
1.14134
1.12611
0.882842
1.1277
1.03713
1.09832
0.888862
1.17879
0.969583
0.881321
0.891235
1.05803
1.12181
1.09123
1.14162
0.885168
1.05407
1.02778
0.876685
1.02186
0.885776
0.878423
1.09666
0.878855
1.09437
1.04122
1.12541
0.896684
0.848361
0.849716
1.03537
0.982402
0.900104
0.924618
1.14169
1.14338
1.08103
1.03043
1.03102
0.845567
0.895558
1.04184
1.12619
1.13604
1.12611
1.13038
0.851139
1.12729
0.880712
0.886551
1.02699
1.02068
0.897271
1.03689
0.859516
0.742869
1.06992
0.823211
0.990883
1.13235
1.0508
1.02072
1.03664
1.14602
1.02803
1.03218
1.0776
1.10433
0.876189
0.897312
1.04285
1.03852
1.12806
1.02774
0.845358
1.02174
1.02699
1.10171
0.897213
1.14483
0.902897
1.12824
0.928065
1.02397
0.896879
1.14655
0.795973
1.02889
1.12879
0.99872
0.770726
1.02049
1.0933
1.14013
0.92906
1.12547
0.935371
0.850683
0.914824
0.758399
1.0286
0.989929
1.14077
0.892321
0.862919
1.03641
0.868346
1.0156
0.890043
0.92297
0.897694
0.912052
0.997968
1.02492
0.908886
0.901588
1.1277
1.12645
0.80469
0.968923
0.943483
1.00223
0.936018
1.00531
1.01572
1.04238
0.935748
1.12486
0.835638
0.929584
1.00212
0.999224
0.923083
0.845885
0.843105
1.03957
1.00657
0.840186
0.92541
0.910058
0.977873
0.862697
0.804788
0.830697
0.993519
0.829806
0.806505
1.14672
0.889471
1.09751
1.12627
0.965803
0.948133
1.00399
0.864074
1.10817
1.13827
0.838249
1.00336
1.17162
0.990109
1.09851
0.938974
0.897695
1.12623
1.10075
1.09725
0.945183
1.08876
0.894952
0.872052
1.14768
0.994201
0.694081
0.940598
1.12726
0.780456
1.17267
0.989464
0.913203
1.23192
0.955685
0.919473
0.994128
0.957543
0.859316
0.825698
1.05578
0.979856
0.991578
0.941987
0.954488
0.953574
1.01158
0.860882
1.00505
0.844866
1.17121
1.02994
1.10509
1.11702
0.83321
0.960463
0.954118
0.996568
0.86862
0.836844
1.16699
0.947057
0.993616
0.886942
0.908536
0.867147
0.980011
0.942881
0.809846
1.12586
0.858672
0.953449
1.10053
1.14447
1.12604
0.95819
0.809233
0.972147
0.850666
0.908158
1.17202
0.967979
0.977089
0.934116
0.969504
0.833349
1.12945
1.11915
1.00956
0.965204
0.968997
0.840083
0.933127
1.09503
1.12552
0.84456
0.968134
0.943068
0.969644
0.96398
0.882401
0.881463
0.883421
1.16956
0.970736
0.885595
0.973876
1.09012
0.925742
0.973124
0.958202
1.13208
0.973512
1.14412
1.05724
0.933898
0.840798
1.06989
0.960159
0.990938
0.853795
0.927399
0.944854
1.04455
1.14416
0.992283
0.943249
1.04429
0.972186
0.971088
1.12899
0.967653
0.970369
0.949778
0.951466
0.956388
1.12895
1.08112
0.943557
1.15046
1.09827
1.03739
0.846736
0.928662
1.05987
0.86604
0.957662
0.948126
0.855203
1.04717
1.07242
0.894483
0.982486
1.02214
1.07061
1.02711
0.952068
0.954594
0.938239
1.02902
0.876029
1.09265
0.982372
1.0841
0.94746
0.955083
0.987492
1.13413
0.98246
0.947507
0.949028
0.934097
1.13344
0.982549
0.760592
1.10805
1.15338
0.940386
0.926926
0.957563
1.12593
1.09518
0.890493
1.12614
0.93549
0.992821
0.919711
1.12526
1.12833
0.956652
0.92811
1.12615
0.988934
1.12576
0.916256
0.983039
0.783253
1.12597
0.921134
1.12814
0.903753
0.968711
1.11577
0.955982
0.994223
0.917879
0.90552
1.0793
1.07161
1.0699
0.968781
0.994933
0.890596
0.904482
0.942731
0.890474
0.993504
1.07684
0.843727
1.03241
1.11665
1.12829
0.958645
1.02236
0.84556
1.12825
0.968028
1.03359
1.07606
0.909137
0.811893
0.986437
0.81291
1.0057
1.12845
0.874595
0.991738
0.993729
0.890604
0.888316
1.04737
1.01048
0.918707
0.902753
0.976319
1.1089
1.15285
1.00249
0.806005
0.890222
1.07445
1.00014
0.903414
0.75682
0.830299
1.08968
0.878943
1.00649
0.929013
0.972949
1.02008
1.09129
1.00027
0.875474
0.973301
1.00621
0.890238
1.07194
1.14725
1.00486
0.855911
0.925949
1.14845
1.13984
1.12257
1.1268
0.90992
1.00582
1.06627
0.864755
1.06143
0.974355
1.09677
0.87184
0.976623
1.00759
0.862063
1.08303
0.867224
0.872941
0.892624
0.82837
1.05297
1.06051
0.984646
1.12583
1.0172
0.940648
0.962829
1.06431
1.17125
0.832125
0.926715
0.862317
1.04555
0.981862
1.00531
1.01519
1.10465
0.9327
0.936261
1.17215
1.03914
0.829052
0.824168
0.816842
0.865376
1.12562
0.748941
1.07424
1.0174
0.915499
1.04439
1.06582
1.02389
0.971324
0.975821
0.938008
0.737051
1.04588
1.13001
0.942194
0.764883
0.994648
0.877181
1.09078
0.986824
1.01646
0.927653
1.02453
1.12614
0.992772
1.10596
1.02145
1.14312
1.1258
0.935333
1.1067
1.02017
0.914977
1.12605
1.0904
1.00359
1.04123
0.845284
1.095
0.915247
1.09013
1.06581
1.03029
1.12808
1.0176
1.10453
1.09573
0.939246
1.00182
0.965583
0.995736
1.12676
0.839378
0.87107
1.20009
1.05272
0.916448
1.12635
0.890545
1.07322
1.03088
0.937588
1.12572
1.12941
0.745094
0.967645
1.13031
1.05175
0.938908
1.00878
0.977037
1.02812
0.733897
1.02908
0.906823
0.918948
0.848419
0.829449
0.827201
1.02457
1.00611
0.847515
0.899752
0.856643
1.11333
1.07958
1.02785
0.913188
1.08393
1.10847
0.851223
1.17259
1.03885
0.951116
0.944866
1.08266
1.01567
1.03769
0.957794
0.919725
1.09789
1.09644
1.03339
0.949365
1.11853
0.697582
1.01478
0.958591
0.974726
0.927844
0.954582
0.874719
0.760664
0.758735
1.02209
0.764946
1.03004
1.0426
1.12871
0.852134
1.12609
1.03197
0.769039
1.08875
1.07803
1.12677
0.994328
1.12873
0.806886
0.943679
1.02232
0.992075
0.74635
1.07056
0.954188
0.816261
1.06329
0.99755
0.92705
1.04639
1.08425
1.0665
1.08885
1.08246
0.965995
1.01964
1.02903
0.992018
0.88563
1.04443
0.850721
1.08071
0.95109
1.09046
0.924336
0.95094
0.877882
1.06799
1.12846
0.754462
1.12615
0.937066
0.852169
0.973778
0.851278
0.851265
0.889982
0.843158
1.07548
0.993723
1.12811
1.08173
0.947732
1.02844
0.873083
1.06627
0.897281
0.934901
1.00369
1.14798
0.935783
0.980232
0.879101
1.12819
0.75649
1.02732
0.937406
0.838584
0.978336
0.847934
0.814907
0.836536
1.1281
0.878262
0.975122
0.885037
1.05316
0.9616
0.930903
0.835692
0.841184
1.13213
1.05148
0.928958
0.944966
1.05117
0.813533
1.12834
1.12759
0.934986
1.13198
1.12764
0.963782
1.01103
0.798316
0.939432
0.88887
0.961647
0.947537
1.03478
1.12636
1.12822
1.04424
0.852055
0.846658
0.854264
0.971176
1.12613
0.973753
0.74913
0.854471
0.920771
0.828757
0.747204
1.12788
1.00919
0.966611
0.964155
1.03225
0.815003
1.12791
1.12735
1.11933
0.962505
1.05233
0.96117
0.981148
0.961293
0.846101
1.24065
1.12727
0.857984
0.845336
1.04897
1.12698
0.864067
0.868626
1.00727
1.09272
0.793868
0.991951
0.97402
0.917722
0.795526
0.966762
1.03235
1.12595
1.01017
0.961527
1.05023
0.906437
0.828285
0.946545
0.743764
0.857572
0.958766
0.924051
1.08285
0.881234
1.06063
0.984447
1.12841
1.07271
1.12817
1.04959
0.98345
0.751738
1.05951
0.843416
1.04044
1.03279
1.12822
1.03078
1.01707
1.0919
0.916671
1.08456
0.874533
1.02843
0.975208
1.03343
1.00618
1.03989
0.956306
0.975198
0.797434
0.939144
1.13132
0.974253
0.876984
0.890801
0.953445
0.947992
1.07396
0.74933
0.984423
0.810189
1.05759
0.783154
0.927826
1.13127
0.99525
1.01921
0.980181
0.977269
0.949971
0.85264
0.935377
1.00641
0.975285
1.05623
0.850916
0.913894
0.971895
0.906139
0.801895
1.13069
0.926326
0.910577
1.06362
0.954128
1.12985
0.828548
0.817831
1.06795
0.978489
0.977862
1.12845
0.913893
1.1284
0.883851
0.992778
0.907767
0.99842
1.06777
0.747565
1.15297
0.913313
1.16286
0.940294
1.06406
0.955502
1.04498
0.977104
0.985392
0.793661
0.866584
0.88162
0.793616
1.06242
1.09519
0.832482
1.0599
0.832187
0.990495
1.00102
0.940745
1.07313
0.728328
1.0499
0.924465
1.06369
0.986467
1.04888
0.901352
0.96017
0.904795
1.05893
0.913419
1.12922
0.836729
1.13238
1.04919
0.97765
0.834439
1.22389
0.992149
0.987836
1.04664
1.06493
1.03552
1.1572
1.03894
0.961687
0.761914
0.910844
0.81259
0.966078
1.07655
1.07383
1.11557
1.02579
0.901617
1.02759
0.958366
1.04322
0.971588
0.853333
1.03876
1.0051
1.06739
1.02138
0.828631
1.05097
1.07424
0.822702
0.762541
0.712666
0.966059
0.946097
1.06197
1.06633
0.737838
1.11748
1.02725
0.972384
1.01372
0.883618
0.920762
0.717567
1.09779
0.993327
1.04058
1.07667
0.809879
0.802556
1.09032
1.02771
1.14746
0.938379
1.06401
1.0457
0.896615
1.05425
1.02572
1.00658
1.01276
0.939807
0.909424
1.02479
0.962414
1.05926
0.89211
0.966046
0.956914
0.994034
0.969215
0.953027
0.980843
1.09212
1.04477
0.943018
0.930745
1.07046
1.03537
0.96734
0.950473
1.05787
0.863108
0.992891
0.758065
0.975611
0.941439
1.06918
0.97303
0.981152
1.12805
1.00193
0.868052
0.929658
0.741997
0.956588
1.05673
0.761408
1.05824
0.984587
0.961176
0.927634
0.997606
1.00471
0.967732
0.958472
1.12819
1.09942
1.05647
1.02917
1.06982
0.909184
0.988888
1.01473
1.13176
1.05815
0.831453
1.03423
0.962855
1.07635
0.956219
0.969481
0.933911
0.95056
1.1262
0.941622