/*--------------------------------*- C++ -*----------------------------------*\
  =========                 |
  \\      /  F ield         | OpenFOAM: The Open Source CFD Toolbox
   \\    /   O peration     | Website:  https://openfoam.org
    \\  /    A nd           | Version:  12
     \\/     M anipulation  |
\*---------------------------------------------------------------------------*/
FoamFile
{
    format      ascii;
    class       volScalarField;
    location    "5";
    object      p;
}
// * * * * * * * * * * * * * * * * * * * * * * * * * * * * * * * * * * * * * //

dimensions      [1 -1 -2 0 0 0 0];

internalField   nonuniform List<scalar> 
9801
(
0.662647
0.662278
0.66329
0.665506
0.668596
0.676112
0.686356
0.692103
0.694707
0.696131
0.696781
0.696958
0.69798
0.699745
0.70249
0.707445
0.717516
0.725785
0.729607
0.731851
0.733276
0.733844
0.73479
0.736647
0.739105
0.743103
0.752314
0.761458
0.766118
0.768647
0.770536
0.77201
0.773269
0.775279
0.777829
0.78157
0.790704
0.801003
0.806028
0.808949
0.81042
0.81153
0.812855
0.815123
0.817741
0.821632
0.830857
0.843648
0.850223
0.853063
0.853991
0.854267
0.855249
0.857609
0.860658
0.864335
0.873894
0.889641
0.898633
0.902433
0.903367
0.900816
0.901209
0.903878
0.906947
0.911313
0.921819
0.940587
0.953221
0.958713
0.960072
0.954468
0.951892
0.954541
0.959264
0.965719
0.979901
1.00364
1.01923
1.02697
1.03045
1.02198
1.01518
1.01777
1.02548
1.03795
1.06897
1.10321
1.12289
1.13687
1.14553
1.1382
1.12713
1.13826
1.16943
1.23909
1.3273
2.04325
5.81153
0.667863
0.667854
0.669428
0.671887
0.675582
0.683445
0.690845
0.69591
0.699362
0.701737
0.701915
0.701505
0.70314
0.705631
0.708763
0.715107
0.723816
0.729974
0.734056
0.737071
0.738057
0.737141
0.738482
0.741183
0.744271
0.749278
0.758626
0.766319
0.771002
0.774269
0.775844
0.774671
0.775602
0.778481
0.781857
0.786168
0.795264
0.805233
0.810957
0.814757
0.816558
0.814553
0.814843
0.817723
0.821238
0.825581
0.834122
0.846279
0.853893
0.858076
0.860408
0.857694
0.856952
0.859915
0.863871
0.867909
0.87625
0.891159
0.901194
0.906461
0.909462
0.904564
0.902031
0.905195
0.909297
0.913881
0.923329
0.941982
0.95503
0.961512
0.965086
0.959496
0.95292
0.955195
0.960783
0.967353
0.981495
1.00584
1.02139
1.02985
1.03571
1.02905
1.01673
1.01862
1.02773
1.04059
1.06724
1.0969
1.11667
1.13283
1.1473
1.14468
1.13135
1.13295
1.15706
1.20287
1.26495
1.94814
5.85472
0.669991
0.670355
0.671983
0.674531
0.678461
0.686381
0.693256
0.697619
0.700976
0.703633
0.704297
0.703901
0.705472
0.708086
0.711402
0.718055
0.726776
0.732308
0.736079
0.73917
0.740394
0.739428
0.740552
0.74318
0.746421
0.751625
0.761263
0.768958
0.773553
0.776987
0.778818
0.777405
0.777694
0.780183
0.783546
0.787902
0.797041
0.807425
0.813488
0.817594
0.819946
0.818314
0.817804
0.820058
0.823346
0.827453
0.835182
0.847538
0.855626
0.860336
0.863521
0.861819
0.860341
0.862668
0.86642
0.870666
0.878112
0.892088
0.902466
0.908261
0.911973
0.908674
0.905089
0.907164
0.911322
0.916372
0.925373
0.942653
0.955806
0.962738
0.967332
0.964765
0.956954
0.956995
0.962143
0.968696
0.981141
1.00385
1.02034
1.03006
1.03768
1.03639
1.02251
1.02005
1.02859
1.04013
1.06051
1.09172
1.11687
1.13459
1.15078
1.15257
1.13986
1.14226
1.16119
1.1996
1.23977
1.91399
5.84482
0.672946
0.673559
0.675074
0.677611
0.682135
0.690379
0.696859
0.700808
0.703865
0.70654
0.707617
0.707035
0.708239
0.710704
0.714222
0.721521
0.730192
0.735534
0.739099
0.742082
0.74376
0.742721
0.743277
0.74556
0.748792
0.754593
0.764541
0.772107
0.776579
0.779958
0.7822
0.780843
0.780288
0.78232
0.785599
0.790369
0.800113
0.810676
0.816802
0.820863
0.82361
0.822239
0.82023
0.821628
0.824753
0.829095
0.837343
0.850332
0.858869
0.863794
0.867609
0.86704
0.863336
0.863927
0.867001
0.871392
0.879215
0.893415
0.904541
0.910854
0.915311
0.914729
0.909277
0.908865
0.912126
0.917021
0.925541
0.942587
0.957166
0.965023
0.970445
0.971939
0.962757
0.958787
0.962791
0.969376
0.97972
1.00148
1.02125
1.03249
1.04054
1.04436
1.0324
1.02351
1.02866
1.03951
1.05473
1.08272
1.11036
1.12997
1.14713
1.15893
1.15017
1.14118
1.14869
1.17748
1.20594
1.90195
5.83964
0.675408
0.676113
0.677634
0.680103
0.684888
0.69377
0.700369
0.704299
0.707257
0.70977
0.71072
0.709761
0.710583
0.71287
0.716282
0.72394
0.732984
0.738447
0.742109
0.745151
0.747216
0.746285
0.746141
0.74812
0.751081
0.756626
0.766701
0.774364
0.778935
0.7824
0.785082
0.784397
0.783492
0.785362
0.78846
0.793024
0.802716
0.812951
0.818931
0.822849
0.825813
0.825339
0.822845
0.824154
0.827449
0.831908
0.840458
0.853165
0.861482
0.866359
0.870152
0.870727
0.866049
0.865503
0.868526
0.873116
0.881154
0.895467
0.906963
0.913598
0.918274
0.920311
0.914758
0.910767
0.912868
0.917622
0.925361
0.941887
0.958512
0.967379
0.97308
0.977196
0.970842
0.962502
0.963584
0.969592
0.97783
0.9956
1.01897
1.03345
1.04231
1.04973
1.04592
1.03168
1.0291
1.03762
1.0501
1.07287
1.10242
1.12551
1.1438
1.16091
1.16309
1.15109
1.1473
1.15987
1.17714
1.8874
5.83744
0.678494
0.679137
0.680525
0.682907
0.687283
0.696488
0.703668
0.707674
0.710594
0.712995
0.713903
0.71281
0.713349
0.715501
0.718597
0.725993
0.735864
0.741789
0.745505
0.748485
0.750637
0.749845
0.748999
0.750638
0.753427
0.758422
0.76861
0.776942
0.781856
0.785541
0.788645
0.788933
0.787122
0.78821
0.791006
0.794962
0.803934
0.814531
0.820958
0.825283
0.828855
0.830244
0.827193
0.82706
0.829904
0.833886
0.841679
0.854363
0.863008
0.868157
0.872347
0.874972
0.871179
0.868084
0.870243
0.874487
0.881572
0.895959
0.908904
0.915964
0.920725
0.92423
0.921399
0.9145
0.914108
0.918365
0.924634
0.938702
0.958342
0.96999
0.976313
0.981499
0.979948
0.969055
0.965458
0.96962
0.97653
0.988608
1.01275
1.03317
1.04479
1.05327
1.05723
1.04448
1.03383
1.03688
1.04732
1.06307
1.08994
1.11542
1.13528
1.1529
1.16732
1.16463
1.15282
1.14936
1.15138
1.86458
5.83608
0.682114
0.682717
0.683721
0.685953
0.689565
0.698213
0.70602
0.710374
0.713404
0.715852
0.717165
0.716306
0.716585
0.718604
0.721476
0.728045
0.73811
0.744529
0.748441
0.751421
0.753695
0.75324
0.751856
0.75315
0.755839
0.760315
0.770473
0.779677
0.78499
0.788801
0.792034
0.793248
0.790619
0.790367
0.792773
0.796455
0.804747
0.81634
0.823596
0.828186
0.832002
0.834862
0.832467
0.830006
0.831737
0.835182
0.841409
0.854296
0.864461
0.870289
0.874855
0.878786
0.877534
0.872375
0.872673
0.87631
0.881432
0.893738
0.909524
0.918443
0.923593
0.92757
0.927573
0.919923
0.91714
0.920187
0.925363
0.934329
0.954394
0.971142
0.979527
0.985218
0.987712
0.978461
0.969731
0.970334
0.976345
0.984215
1.0024
1.02791
1.04435
1.05429
1.06233
1.06086
1.04529
1.03996
1.0456
1.05671
1.07689
1.10421
1.12622
1.14386
1.16007
1.16877
1.16313
1.14989
1.13235
1.83661
5.83277
0.685649
0.686514
0.687131
0.689221
0.692256
0.6998
0.707852
0.712634
0.715937
0.718646
0.720564
0.720102
0.72008
0.721906
0.724594
0.730261
0.740029
0.746736
0.750804
0.753947
0.756556
0.756875
0.75518
0.756038
0.758624
0.762705
0.772378
0.782292
0.787902
0.791716
0.794896
0.796684
0.794061
0.792575
0.79458
0.79804
0.80525
0.81799
0.826725
0.831563
0.835293
0.838413
0.837127
0.833088
0.833242
0.836251
0.840944
0.852926
0.866497
0.873962
0.878604
0.882599
0.88343
0.877823
0.875625
0.87777
0.881799
0.889655
0.90714
0.920218
0.926624
0.931022
0.93399
0.92784
0.921793
0.922236
0.926453
0.932103
0.946629
0.968563
0.981456
0.988319
0.993473
0.990734
0.977829
0.973542
0.976948
0.983514
0.993474
1.01678
1.0398
1.05342
1.06281
1.06989
1.06391
1.04849
1.04653
1.05405
1.06667
1.08992
1.11456
1.13357
1.14979
1.16389
1.16704
1.15624
1.13037
1.80417
5.82932
0.68874
0.690065
0.690383
0.692356
0.695085
0.701761
0.709963
0.715021
0.718504
0.721365
0.723627
0.723679
0.723353
0.724936
0.727459
0.732142
0.741653
0.748969
0.753303
0.756602
0.75942
0.760453
0.758676
0.759161
0.761587
0.765034
0.773503
0.784344
0.790498
0.794346
0.797544
0.799789
0.79784
0.795729
0.797251
0.800412
0.805952
0.818543
0.829167
0.834652
0.838454
0.841627
0.841445
0.836501
0.835435
0.837886
0.84188
0.851108
0.867183
0.877207
0.882503
0.886497
0.888658
0.883523
0.878476
0.878977
0.882371
0.887447
0.901882
0.920463
0.929976
0.935155
0.939299
0.93701
0.927693
0.924754
0.927055
0.931803
0.939861
0.960727
0.980565
0.990399
0.996473
1.00041
0.992273
0.980395
0.979026
0.983351
0.990169
1.00424
1.03017
1.05004
1.062
1.07105
1.07575
1.06582
1.05307
1.0538
1.06205
1.07657
1.10135
1.12344
1.13978
1.15321
1.16242
1.16005
1.13785
1.7807
5.82561
0.691676
0.693474
0.693522
0.695393
0.697964
0.703885
0.712458
0.717832
0.721301
0.724102
0.726444
0.72701
0.726476
0.72776
0.7302
0.733998
0.743025
0.751558
0.756224
0.759559
0.762384
0.763865
0.762248
0.762261
0.764378
0.767285
0.77343
0.785102
0.792875
0.797114
0.800407
0.803072
0.802023
0.799442
0.800575
0.803391
0.807123
0.817126
0.830095
0.836998
0.841058
0.844403
0.845644
0.841095
0.838706
0.840662
0.844169
0.849918
0.864932
0.878734
0.885247
0.889385
0.892332
0.88952
0.882365
0.881335
0.884127
0.888368
0.897286
0.917175
0.932032
0.93872
0.943371
0.94521
0.936236
0.928205
0.928407
0.932267
0.937712
0.950286
0.974415
0.990639
0.99864
1.00471
1.00655
0.993326
0.983278
0.984459
0.990174
0.997933
1.01615
1.0414
1.05815
1.06887
1.07766
1.08115
1.06929
1.05797
1.06016
1.06905
1.08552
1.10999
1.12931
1.14317
1.15349
1.15747
1.14775
1.76869
5.82085
0.694832
0.696943
0.696655
0.69836
0.700752
0.705611
0.714642
0.720735
0.724181
0.726937
0.729365
0.730373
0.729596
0.730557
0.732904
0.736105
0.743878
0.753856
0.75933
0.762612
0.765358
0.767278
0.766025
0.765224
0.766841
0.769534
0.773689
0.784512
0.794815
0.800108
0.803623
0.80663
0.806977
0.803906
0.803734
0.805729
0.808629
0.814789
0.82882
0.838824
0.843898
0.847641
0.850358
0.847514
0.843476
0.844195
0.846832
0.850469
0.859989
0.877159
0.887074
0.891983
0.895799
0.896669
0.889371
0.885446
0.887387
0.891027
0.895753
0.909285
0.929681
0.940186
0.945677
0.949781
0.948023
0.936343
0.931446
0.933508
0.938306
0.944833
0.962789
0.986661
0.999654
1.00663
1.01171
1.00957
0.995338
0.988535
0.99099
0.996908
1.0061
1.0278
1.05127
1.06606
1.07617
1.08429
1.08498
1.0721
1.06278
1.06551
1.07426
1.09229
1.11612
1.13302
1.14378
1.14969
1.15309
1.77145
5.81541
0.698375
0.7006
0.699806
0.701108
0.703213
0.706675
0.715492
0.723413
0.727367
0.730178
0.732685
0.734086
0.733132
0.733584
0.735679
0.738388
0.743934
0.754797
0.761969
0.765636
0.768439
0.770762
0.770293
0.768438
0.769373
0.771847
0.775122
0.783374
0.795925
0.802969
0.806882
0.809977
0.811803
0.808761
0.806325
0.80746
0.810298
0.814452
0.826208
0.840154
0.84717
0.851261
0.85467
0.854595
0.84888
0.846756
0.848075
0.851136
0.856332
0.871831
0.887794
0.895308
0.899828
0.903164
0.899783
0.891757
0.89011
0.89195
0.89565
0.902175
0.921237
0.939706
0.948299
0.953695
0.957284
0.950437
0.938539
0.936545
0.939596
0.944533
0.952344
0.974128
0.995766
1.00621
1.01261
1.01816
1.01371
0.998569
0.993694
0.99731
1.00389
1.01516
1.03837
1.0592
1.07232
1.082
1.0897
1.08937
1.0753
1.06649
1.06921
1.07762
1.09654
1.1189
1.13354
1.14046
1.15115
1.78631
5.80949
0.702179
0.704442
0.702818
0.703341
0.705119
0.707801
0.715217
0.725353
0.730772
0.733909
0.736537
0.738424
0.737439
0.73679
0.738152
0.740378
0.743921
0.753889
0.763663
0.768596
0.77182
0.774568
0.775379
0.772622
0.772293
0.774362
0.777243
0.782473
0.795116
0.804908
0.809687
0.812952
0.815583
0.814041
0.809706
0.81003
0.812803
0.816256
0.823746
0.839454
0.849813
0.854805
0.858169
0.859979
0.854844
0.849329
0.849778
0.852689
0.856667
0.866474
0.885921
0.89817
0.903696
0.907681
0.908617
0.899853
0.892633
0.892733
0.895882
0.900474
0.91134
0.934153
0.949517
0.956371
0.961273
0.963098
0.952589
0.942349
0.941623
0.944686
0.94966
0.960558
0.985536
1.0049
1.01423
1.02038
1.02393
1.01645
1.00301
0.999844
1.00366
1.01026
1.02377
1.04782
1.06676
1.07877
1.08797
1.09458
1.09264
1.07812
1.06928
1.07136
1.07891
1.09799
1.11882
1.13003
1.14451
1.80879
5.80359
0.70565
0.708232
0.705834
0.705452
0.706995
0.70947
0.715231
0.726501
0.733849
0.737528
0.740254
0.742537
0.742193
0.739836
0.740038
0.74196
0.744845
0.752594
0.76474
0.771655
0.775356
0.778323
0.78034
0.777916
0.775675
0.776782
0.779194
0.782611
0.792507
0.805398
0.811999
0.815822
0.819008
0.819944
0.815247
0.813641
0.815697
0.818699
0.822662
0.834886
0.849631
0.85646
0.860339
0.863715
0.862582
0.854956
0.853032
0.855642
0.859294
0.863957
0.878591
0.896935
0.905556
0.910122
0.913479
0.910782
0.899652
0.895662
0.897975
0.902106
0.907295
0.922704
0.945386
0.957209
0.963176
0.968101
0.967723
0.954068
0.945516
0.946543
0.950909
0.956551
0.970197
0.995355
1.01168
1.01983
1.02619
1.03011
1.02088
1.00718
1.00489
1.00939
1.01665
1.03243
1.05603
1.07308
1.08416
1.09292
1.09898
1.0962
1.08046
1.07062
1.07171
1.07811
1.09732
1.11454
1.13296
1.83502
5.79699
0.708699
0.711916
0.709625
0.708146
0.709425
0.71178
0.716176
0.726876
0.735904
0.740419
0.743327
0.745764
0.746562
0.743329
0.742352
0.744165
0.746898
0.752398
0.764803
0.774022
0.778601
0.78162
0.784123
0.783454
0.779419
0.77901
0.781001
0.783936
0.79029
0.804411
0.814264
0.819118
0.822525
0.825221
0.822574
0.81811
0.818146
0.820036
0.823029
0.829687
0.8462
0.858144
0.863886
0.867611
0.870109
0.86484
0.858759
0.85888
0.861048
0.864159
0.870644
0.889362
0.90495
0.911848
0.916584
0.9198
0.91366
0.90348
0.901903
0.904166
0.907733
0.914
0.933413
0.954228
0.964063
0.969552
0.97374
0.971172
0.957814
0.951556
0.953071
0.95694
0.962969
0.979883
1.00466
1.01919
1.02688
1.03253
1.03434
1.0243
1.01233
1.01069
1.01497
1.02235
1.03983
1.06325
1.07923
1.08941
1.09742
1.10249
1.09902
1.08243
1.07073
1.07009
1.07606
1.09327
1.11633
1.85569
5.78754
0.711469
0.715321
0.714192
0.711882
0.712555
0.71458
0.71764
0.726437
0.736913
0.742401
0.745767
0.748504
0.750357
0.748005
0.745823
0.747123
0.749572
0.753167
0.763261
0.774947
0.780802
0.784216
0.787029
0.788367
0.784442
0.781999
0.783444
0.786206
0.790112
0.801533
0.81544
0.822243
0.826001
0.829038
0.829438
0.823269
0.820128
0.821521
0.82444
0.828488
0.840566
0.858149
0.867092
0.871629
0.87501
0.874521
0.865878
0.861028
0.861533
0.864111
0.868234
0.879199
0.900764
0.914142
0.920057
0.924677
0.925933
0.915683
0.906409
0.905772
0.908436
0.91235
0.92045
0.942594
0.961608
0.970246
0.975927
0.980642
0.975636
0.961037
0.955759
0.958289
0.963081
0.969813
0.988364
1.01164
1.02428
1.0314
1.03767
1.04054
1.02954
1.01697
1.01532
1.01969
1.02744
1.04604
1.06889
1.08387
1.09343
1.10084
1.10529
1.10165
1.08415
1.06931
1.067
1.07097
1.09598
1.86412
5.77503
0.71424
0.718443
0.718409
0.71584
0.715651
0.717278
0.719618
0.725722
0.737463
0.744835
0.748682
0.751651
0.754099
0.753361
0.750186
0.750352
0.752182
0.754605
0.760845
0.774197
0.782725
0.78701
0.79022
0.792829
0.790923
0.786342
0.786415
0.788688
0.791601
0.797973
0.813247
0.823919
0.828771
0.832052
0.834558
0.830745
0.82425
0.82401
0.826729
0.830126
0.835715
0.852357
0.867687
0.874408
0.878118
0.880637
0.875958
0.866192
0.86376
0.866149
0.869869
0.874981
0.890414
0.911704
0.922393
0.927688
0.93146
0.930149
0.917261
0.909427
0.90987
0.913194
0.917816
0.928804
0.953117
0.970302
0.977832
0.982468
0.985545
0.979042
0.965703
0.961569
0.963709
0.968039
0.975532
0.996864
1.01965
1.03162
1.03851
1.04387
1.04495
1.03381
1.02184
1.01998
1.02393
1.03136
1.05054
1.07341
1.088
1.09691
1.10349
1.10702
1.10325
1.08558
1.06766
1.05897
1.07348
1.85185
5.76058
0.716852
0.721119
0.721553
0.719097
0.718265
0.719868
0.722308
0.726517
0.73746
0.747288
0.752054
0.754996
0.757492
0.758105
0.754325
0.752632
0.75389
0.756445
0.760506
0.772072
0.784474
0.790426
0.793786
0.796664
0.797109
0.791757
0.789461
0.790687
0.793134
0.796662
0.807778
0.823672
0.83152
0.835679
0.838805
0.839174
0.831871
0.828171
0.829459
0.831881
0.835002
0.843246
0.862582
0.874971
0.880613
0.884444
0.886254
0.878044
0.87003
0.870169
0.872886
0.876097
0.881514
0.899598
0.919114
0.927706
0.932596
0.936542
0.933698
0.920029
0.914225
0.916365
0.92035
0.924724
0.936856
0.961134
0.975693
0.982301
0.987674
0.991452
0.98319
0.969449
0.966089
0.969312
0.974449
0.983172
1.00508
1.02572
1.03634
1.04299
1.0489
1.05091
1.03918
1.02609
1.02366
1.02742
1.03473
1.05395
1.07667
1.09082
1.09905
1.10476
1.10737
1.10354
1.08651
1.06314
1.0565
1.81859
5.74587
0.719259
0.723366
0.724198
0.722742
0.721882
0.723403
0.725739
0.728533
0.736338
0.748445
0.754904
0.75807
0.760338
0.761602
0.75865
0.755699
0.756765
0.759282
0.762312
0.769783
0.784253
0.793024
0.797159
0.799836
0.801569
0.797774
0.792492
0.792563
0.794969
0.798058
0.803863
0.819757
0.833358
0.839164
0.842662
0.845159
0.841114
0.832975
0.830983
0.832578
0.835553
0.839693
0.852918
0.873004
0.883267
0.888263
0.892173
0.891287
0.880406
0.87409
0.874205
0.876155
0.879716
0.887225
0.908756
0.92669
0.934349
0.939152
0.943116
0.938127
0.925236
0.920966
0.922124
0.924907
0.929747
0.945282
0.969583
0.982853
0.989185
0.99374
0.99597
0.988022
0.975824
0.972864
0.975143
0.979428
0.988745
1.01195
1.03199
1.04244
1.049
1.0541
1.05511
1.04387
1.03079
1.02766
1.03075
1.03732
1.05596
1.07839
1.09217
1.09976
1.10469
1.10627
1.10284
1.08242
1.05761
1.77374
5.73361
0.721826
0.72659
0.728383
0.727833
0.725983
0.726702
0.728633
0.730952
0.734893
0.746527
0.756084
0.760397
0.763171
0.765528
0.764769
0.760571
0.760375
0.762505
0.765132
0.768775
0.780183
0.79324
0.799085
0.802234
0.804892
0.804493
0.797991
0.795666
0.797571
0.800587
0.804003
0.812977
0.830492
0.840872
0.845756
0.848692
0.849435
0.841208
0.834529
0.834924
0.837866
0.841447
0.847136
0.864451
0.882658
0.890854
0.895234
0.898463
0.894646
0.881558
0.87645
0.878018
0.881302
0.885526
0.896247
0.919397
0.934973
0.941687
0.945888
0.948952
0.941487
0.927523
0.923643
0.926405
0.930556
0.936464
0.953607
0.97609
0.98773
0.993888
0.999499
1.00228
0.992894
0.979589
0.976365
0.979554
0.984742
0.995159
1.01799
1.03685
1.04662
1.05295
1.05863
1.06096
1.04986
1.03532
1.03094
1.0334
1.03909
1.05644
1.07876
1.09234
1.09941
1.10322
1.10449
1.09795
1.07852
1.7424
5.72401
0.724784
0.730558
0.732575
0.733384
0.730304
0.729173
0.730249
0.732218
0.734962
0.742751
0.75602
0.763226
0.766787
0.769425
0.770985
0.767278
0.764313
0.765155
0.767053
0.769487
0.775026
0.7898
0.800611
0.805505
0.808505
0.810736
0.806872
0.8011
0.801172
0.803407
0.805995
0.809369
0.821511
0.83873
0.846832
0.8513
0.854543
0.853353
0.84366
0.839925
0.841732
0.844658
0.847738
0.854123
0.873159
0.888681
0.895021
0.899067
0.90223
0.897122
0.885292
0.882355
0.884962
0.888785
0.892916
0.904629
0.927059
0.940188
0.946129
0.950202
0.952334
0.944705
0.9328
0.930153
0.932444
0.936189
0.942591
0.961804
0.983713
0.994595
0.99999
1.00379
1.00615
0.99821
0.985864
0.982496
0.984668
0.989099
0.999394
1.02293
1.0424
1.05249
1.05863
1.06348
1.06503
1.05495
1.0397
1.03379
1.0353
1.04014
1.05608
1.07798
1.09146
1.09776
1.10115
1.09965
1.09877
1.73644
5.71565
0.726538
0.734248
0.736154
0.737924
0.736202
0.732569
0.732569
0.734478
0.736943
0.741082
0.75315
0.764837
0.770042
0.772899
0.775185
0.774586
0.769017
0.767132
0.768603
0.771063
0.774252
0.78389
0.799959
0.808348
0.8123
0.815112
0.815489
0.808654
0.804497
0.804876
0.806787
0.809732
0.815001
0.831103
0.847222
0.854344
0.858563
0.861473
0.856815
0.847138
0.844806
0.84592
0.847916
0.851263
0.860002
0.880875
0.895202
0.901598
0.906348
0.909264
0.90205
0.890887
0.888845
0.890534
0.893001
0.897105
0.910307
0.932301
0.944646
0.950682
0.955849
0.958909
0.950441
0.937909
0.935246
0.938321
0.942588
0.94854
0.96686
0.987547
0.997617
1.00373
1.00936
1.01267
1.00407
0.990341
0.98642
0.989254
0.994225
1.00454
1.02683
1.04575
1.0557
1.06184
1.06695
1.06937
1.06048
1.0443
1.03655
1.03681
1.04048
1.05448
1.07591
1.08919
1.09571
1.09592
1.10724
1.74952
5.7077
0.725881
0.736066
0.738895
0.74148
0.742837
0.738979
0.736288
0.737301
0.739401
0.741914
0.748665
0.762733
0.771296
0.775227
0.77801
0.780175
0.776702
0.771278
0.771191
0.773362
0.776066
0.780394
0.793749
0.808481
0.815005
0.818261
0.820745
0.818276
0.810025
0.807432
0.809125
0.811973
0.815246
0.822595
0.841223
0.855364
0.861626
0.865246
0.866943
0.859293
0.849309
0.847531
0.849689
0.852735
0.856774
0.86865
0.89056
0.903578
0.909209
0.913121
0.915181
0.905629
0.893886
0.891337
0.893587
0.897017
0.901899
0.918285
0.941204
0.952997
0.958197
0.962279
0.964354
0.955117
0.943615
0.941026
0.942605
0.946028
0.952617
0.973146
0.994763
1.00499
1.01031
1.01458
1.01727
1.01017
0.997216
0.992589
0.994002
0.997625
1.00596
1.02816
1.04877
1.05959
1.06586
1.07065
1.07331
1.06634
1.04906
1.03856
1.03734
1.03994
1.05189
1.07248
1.08625
1.09032
1.10697
1.77759
5.70006
0.723392
0.737687
0.742269
0.74521
0.747746
0.747259
0.742052
0.740583
0.741631
0.743387
0.746295
0.756873
0.771192
0.777992
0.781574
0.784327
0.785027
0.778742
0.775248
0.776222
0.778276
0.780568
0.786194
0.802747
0.815681
0.821284
0.824613
0.826667
0.820809
0.813188
0.812747
0.814961
0.817636
0.820633
0.829369
0.849096
0.861122
0.866389
0.870121
0.871524
0.862513
0.853446
0.853067
0.85594
0.859301
0.86314
0.87618
0.8975
0.908398
0.91349
0.917167
0.918685
0.909098
0.898018
0.896484
0.899588
0.903863
0.909407
0.92633
0.947538
0.9578
0.963305
0.967689
0.969554
0.959916
0.947509
0.944624
0.947701
0.952352
0.959723
0.979261
0.999121
1.00877
1.01461
1.02016
1.02371
1.01667
1.00164
0.995124
0.996652
1.00096
1.00968
1.031
1.05197
1.06325
1.06944
1.0738
1.07621
1.07095
1.05348
1.04012
1.03709
1.03866
1.04852
1.06857
1.07964
1.10087
1.81063
5.69047
0.721184
0.738019
0.745103
0.748679
0.751246
0.75295
0.748877
0.743518
0.743103
0.744888
0.747442
0.753103
0.76797
0.780115
0.785212
0.788178
0.790499
0.78753
0.780193
0.778162
0.779141
0.781426
0.784742
0.793936
0.8126
0.823758
0.828628
0.831972
0.832188
0.823367
0.817072
0.816786
0.818026
0.82061
0.824382
0.836578
0.857005
0.867973
0.873108
0.877162
0.877475
0.866912
0.859042
0.858939
0.860556
0.86299
0.867262
0.88232
0.903142
0.913528
0.918758
0.923308
0.924916
0.914912
0.904901
0.904015
0.906241
0.909207
0.914409
0.931735
0.952082
0.962271
0.967595
0.971927
0.974106
0.966613
0.955469
0.952607
0.954074
0.957185
0.963549
0.983691
1.00491
1.01522
1.02052
1.02435
1.02732
1.02261
1.00894
1.00194
1.00244
1.00573
1.01266
1.03213
1.05341
1.06526
1.07141
1.0756
1.0782
1.07486
1.05847
1.0421
1.03636
1.03638
1.04516
1.0613
1.08719
1.83777
5.67687
0.72086
0.735748
0.746729
0.751318
0.75381
0.755709
0.7548
0.748386
0.746138
0.747728
0.750212
0.75334
0.762404
0.778523
0.787449
0.791423
0.793733
0.794494
0.787524
0.781332
0.78147
0.783799
0.786597
0.790797
0.803774
0.822182
0.831292
0.835625
0.838447
0.836178
0.824729
0.819114
0.820023
0.8226
0.825682
0.830595
0.846399
0.866104
0.875421
0.879805
0.883157
0.88226
0.869727
0.861484
0.861441
0.864167
0.867487
0.872848
0.890557
0.911201
0.921092
0.9257
0.929413
0.930297
0.919025
0.908374
0.906667
0.909253
0.912968
0.918752
0.936797
0.957037
0.967341
0.973103
0.978173
0.980852
0.972922
0.959637
0.955084
0.957466
0.96179
0.968707
0.98724
1.00715
1.01747
1.02372
1.02952
1.03384
1.03086
1.01661
1.00693
1.00593
1.00896
1.01404
1.03095
1.05325
1.06633
1.07275
1.0768
1.07982
1.07884
1.06418
1.04446
1.03463
1.03356
1.03854
1.06821
1.85096
5.65893
0.72248
0.731202
0.745243
0.752498
0.755916
0.758442
0.760117
0.755853
0.751151
0.751633
0.753624
0.755849
0.759158
0.771014
0.786328
0.793213
0.796759
0.799162
0.797469
0.788537
0.785527
0.78721
0.789803
0.79248
0.796835
0.811997
0.828917
0.836165
0.840057
0.842771
0.839203
0.82793
0.824226
0.825932
0.8289
0.832087
0.837364
0.854218
0.871917
0.879503
0.883478
0.886434
0.885068
0.87327
0.866223
0.86704
0.870334
0.874328
0.880182
0.897842
0.916775
0.925399
0.930139
0.933208
0.933611
0.923405
0.913095
0.91171
0.914644
0.918779
0.925483
0.943876
0.963838
0.973776
0.978757
0.982037
0.984461
0.978262
0.965696
0.961042
0.962379
0.965735
0.971335
0.988955
1.01192
1.02447
1.03038
1.03485
1.03845
1.03658
1.02277
1.01105
1.00852
1.01114
1.01582
1.03023
1.0528
1.0677
1.07479
1.07858
1.08086
1.08059
1.06924
1.0477
1.03342
1.02611
1.04629
1.83998
5.63754
0.724478
0.728686
0.740092
0.753394
0.759124
0.762047
0.764377
0.763634
0.757337
0.754985
0.755662
0.757258
0.759733
0.764789
0.779916
0.794156
0.80008
0.803352
0.805322
0.799874
0.791653
0.790415
0.791628
0.79343
0.796234
0.801995
0.819559
0.83551
0.842342
0.84651
0.849301
0.843727
0.832774
0.830014
0.831365
0.833143
0.836003
0.841905
0.860069
0.876923
0.884347
0.888913
0.892765
0.8911
0.879405
0.873372
0.874287
0.876515
0.879276
0.884638
0.902124
0.920226
0.928762
0.933596
0.938008
0.939638
0.930273
0.920438
0.919402
0.922107
0.925323
0.930624
0.947303
0.966113
0.975798
0.981353
0.986127
0.989978
0.985311
0.971901
0.965462
0.966768
0.971055
0.976897
0.991963
1.01347
1.02626
1.0329
1.03772
1.04161
1.04126
1.03007
1.01736
1.01309
1.01436
1.01795
1.02978
1.05161
1.06747
1.07498
1.07871
1.08093
1.08115
1.07291
1.05206
1.03015
1.03054
1.80313
5.6149
0.726864
0.73012
0.735629
0.750281
0.761135
0.76558
0.767694
0.769187
0.765027
0.758618
0.757938
0.759854
0.762327
0.765126
0.772214
0.789255
0.801486
0.806739
0.809414
0.809913
0.80167
0.79393
0.79337
0.79554
0.79818
0.801415
0.809223
0.828332
0.842868
0.849088
0.852632
0.854767
0.847648
0.836215
0.833031
0.834827
0.837596
0.840919
0.848169
0.867704
0.884185
0.891345
0.895172
0.898455
0.896159
0.884037
0.877052
0.877076
0.879663
0.883002
0.889123
0.907859
0.926772
0.935865
0.940378
0.944507
0.946089
0.936771
0.926374
0.9236
0.9248
0.927722
0.933177
0.950105
0.970929
0.982326
0.988053
0.992505
0.99628
0.992941
0.980552
0.973752
0.973398
0.974908
0.978645
0.990632
1.01306
1.02863
1.03627
1.04135
1.04618
1.04839
1.03927
1.02435
1.01727
1.01728
1.01965
1.02714
1.04781
1.06586
1.07443
1.07822
1.08037
1.08072
1.07571
1.05273
1.03243
1.75112
5.59636
0.729985
0.732688
0.735056
0.742565
0.757997
0.766763
0.770761
0.773137
0.773833
0.766966
0.762405
0.763349
0.765573
0.767905
0.770374
0.777992
0.79571
0.806628
0.811386
0.814411
0.814398
0.804993
0.798437
0.798896
0.801362
0.804182
0.807079
0.814864
0.834203
0.847211
0.852633
0.856088
0.858362
0.85192
0.841196
0.838618
0.840607
0.843676
0.847087
0.854217
0.873357
0.888724
0.895285
0.899271
0.902293
0.900508
0.889073
0.881944
0.882231
0.885289
0.889325
0.895708
0.913655
0.931874
0.940666
0.945637
0.949094
0.950869
0.942763
0.930883
0.927259
0.929461
0.933422
0.939284
0.954859
0.975373
0.987359
0.993832
0.998354
1.00213
1.0004
0.987363
0.976796
0.974957
0.977773
0.982179
0.99289
1.015
1.03317
1.04203
1.04676
1.0506
1.05274
1.04622
1.0301
1.01955
1.01764
1.01989
1.02584
1.0444
1.06387
1.07394
1.078
1.07946
1.07994
1.07332
1.05741
1.71632
5.58208
0.733499
0.734522
0.736014
0.738711
0.748831
0.765329
0.773733
0.77768
0.780157
0.778715
0.770572
0.767341
0.767813
0.768751
0.770376
0.773261
0.783454
0.802534
0.813249
0.818043
0.821469
0.820267
0.809843
0.804032
0.804155
0.805267
0.807073
0.81019
0.819623
0.839814
0.852669
0.858407
0.862627
0.864961
0.857925
0.847267
0.844776
0.846068
0.847815
0.850846
0.858201
0.877568
0.892773
0.899467
0.904051
0.908061
0.907078
0.896029
0.889152
0.889522
0.891788
0.894545
0.899863
0.916796
0.93477
0.943659
0.948547
0.952874
0.955853
0.949584
0.938749
0.935332
0.936719
0.939266
0.943414
0.956838
0.977739
0.990988
0.997489
1.00197
1.00512
1.00567
0.996073
0.985185
0.982238
0.98389
0.98724
0.995269
1.01528
1.03429
1.04399
1.04927
1.05316
1.05492
1.05123
1.03686
1.02421
1.02038
1.02122
1.02495
1.04078
1.06092
1.0722
1.07638
1.07826
1.07592
1.081
1.7142
5.56942
0.736804
0.735896
0.737579
0.739868
0.743952
0.757708
0.774048
0.781259
0.784602
0.786611
0.782392
0.772572
0.768879
0.769705
0.771823
0.774466
0.778539
0.791943
0.811074
0.820525
0.824759
0.827638
0.825206
0.813345
0.806491
0.806621
0.808863
0.811573
0.815377
0.827116
0.847834
0.85986
0.865039
0.868454
0.870502
0.8625
0.850626
0.847183
0.848904
0.851768
0.855295
0.863691
0.883934
0.899552
0.906341
0.910189
0.913785
0.912886
0.901095
0.892924
0.892189
0.894572
0.897866
0.903328
0.920473
0.939562
0.94955
0.954764
0.9593
0.962608
0.95736
0.945062
0.938952
0.939346
0.942274
0.946123
0.957237
0.978211
0.992666
0.999961
1.00581
1.01083
1.01314
1.00537
0.992494
0.986826
0.987428
0.990135
0.995167
1.01201
1.03307
1.04488
1.05041
1.05466
1.05835
1.0581
1.0453
1.02955
1.02274
1.02227
1.0242
1.0356
1.05608
1.06871
1.07438
1.07364
1.08929
1.73328
5.5586
0.742486
0.738535
0.739843
0.742205
0.744788
0.750277
0.766608
0.781205
0.787448
0.79063
0.791762
0.784622
0.774439
0.772433
0.774396
0.777129
0.779965
0.784268
0.799244
0.817139
0.824967
0.828834
0.831613
0.829226
0.817394
0.81127
0.811965
0.814616
0.817618
0.82154
0.833708
0.853545
0.864009
0.868665
0.871816
0.873626
0.866562
0.855304
0.852344
0.854362
0.857662
0.861648
0.869939
0.889462
0.904204
0.910616
0.91466
0.917378
0.916895
0.906483
0.897754
0.896912
0.899696
0.903576
0.909494
0.925438
0.944634
0.954917
0.960122
0.963617
0.966446
0.963373
0.951227
0.943604
0.943426
0.946631
0.950807
0.960533
0.981553
0.998453
1.00647
1.01124
1.01499
1.01765
1.0126
0.998813
0.990222
0.98957
0.992508
0.997062
1.01121
1.03325
1.04821
1.05486
1.05853
1.0613
1.06196
1.0526
1.03486
1.02401
1.02166
1.02287
1.03098
1.05023
1.06503
1.06935
1.08954
1.76774
5.54865
0.751037
0.743412
0.743071
0.744859
0.746999
0.749501
0.756089
0.774023
0.787134
0.792397
0.795738
0.796713
0.788162
0.77932
0.778292
0.779611
0.781247
0.783592
0.788509
0.80543
0.822714
0.830161
0.834314
0.837628
0.834875
0.822885
0.817192
0.817847
0.819588
0.82173
0.825575
0.838496
0.858013
0.868299
0.87312
0.877241
0.879672
0.872738
0.861718
0.859133
0.860958
0.863272
0.866315
0.873817
0.892611
0.907214
0.913744
0.918152
0.922349
0.923193
0.913788
0.905133
0.904384
0.906885
0.909762
0.913996
0.927554
0.946216
0.956717
0.962224
0.966519
0.97061
0.970045
0.959598
0.951406
0.950729
0.953268
0.956695
0.964064
0.982036
0.998894
1.00771
1.01299
1.01735
1.02091
1.019
1.00757
0.997731
0.995492
0.997202
1.00056
1.01109
1.03193
1.04807
1.05587
1.06002
1.06291
1.06385
1.05809
1.0412
1.02683
1.02178
1.02161
1.02697
1.04535
1.05762
1.08254
1.80372
5.53487
0.760031
0.75185
0.746568
0.74694
0.748653
0.750775
0.753816
0.762651
0.781406
0.793351
0.798332
0.80138
0.801537
0.791304
0.782039
0.780751
0.782706
0.785196
0.788188
0.794925
0.813499