/*--------------------------------*- C++ -*----------------------------------*\
  =========                 |
  \\      /  F ield         | OpenFOAM: The Open Source CFD Toolbox
   \\    /   O peration     | Website:  https://openfoam.org
    \\  /    A nd           | Version:  12
     \\/     M anipulation  |
\*---------------------------------------------------------------------------*/
FoamFile
{
    format      ascii;
    class       volVectorField;
    location    "5";
    object      U;
}
// * * * * * * * * * * * * * * * * * * * * * * * * * * * * * * * * * * * * * //

dimensions      [0 1 -1 0 0 0 0];

internalField   nonuniform List<vector> 
9801
(
(1.11693 -0.0664158 0)
(1.11233 -0.0623833 0)
(1.10972 -0.0603471 0)
(1.10736 -0.0580658 0)
(1.10571 -0.0560566 0)
(1.1076 -0.0536434 0)
(1.11251 -0.0512426 0)
(1.11393 -0.0487413 0)
(1.11235 -0.0466611 0)
(1.10931 -0.0445274 0)
(1.10511 -0.0419773 0)
(1.10108 -0.039011 0)
(1.09813 -0.0362618 0)
(1.09564 -0.0341157 0)
(1.09334 -0.0322547 0)
(1.09256 -0.0303918 0)
(1.09612 -0.0285254 0)
(1.09864 -0.0266072 0)
(1.09768 -0.0247039 0)
(1.09497 -0.0227622 0)
(1.09105 -0.0204491 0)
(1.0871 -0.0175395 0)
(1.08403 -0.0144454 0)
(1.0814 -0.0121014 0)
(1.07886 -0.0105752 0)
(1.07696 -0.00909955 0)
(1.07917 -0.00751578 0)
(1.08204 -0.00579677 0)
(1.0813 -0.00398225 0)
(1.07859 -0.00224375 0)
(1.07457 -0.000384841 0)
(1.07043 0.00199824 0)
(1.06698 0.00483267 0)
(1.06397 0.00704933 0)
(1.06115 0.00834011 0)
(1.05868 0.00952911 0)
(1.06043 0.0112847 0)
(1.06387 0.0131686 0)
(1.06324 0.014787 0)
(1.05995 0.0159994 0)
(1.05501 0.0171895 0)
(1.05002 0.0190365 0)
(1.04598 0.0214983 0)
(1.04257 0.0234819 0)
(1.03965 0.0245551 0)
(1.0366 0.0253914 0)
(1.0377 0.026865 0)
(1.04261 0.0287693 0)
(1.04261 0.0304232 0)
(1.03929 0.0312638 0)
(1.03322 0.0321935 0)
(1.02613 0.0334314 0)
(1.02091 0.0354281 0)
(1.01677 0.0370893 0)
(1.01307 0.0381595 0)
(1.00994 0.0386492 0)
(1.01023 0.0398731 0)
(1.01648 0.0416185 0)
(1.01777 0.0430558 0)
(1.01449 0.043639 0)
(1.00775 0.0442772 0)
(0.998346 0.0446241 0)
(0.990941 0.0460749 0)
(0.985556 0.0475248 0)
(0.981514 0.0486605 0)
(0.97801 0.049153 0)
(0.97797 0.0501362 0)
(0.984907 0.0512946 0)
(0.986806 0.0520525 0)
(0.983506 0.052226 0)
(0.976825 0.0523729 0)
(0.96342 0.052327 0)
(0.952868 0.0534471 0)
(0.946369 0.0552428 0)
(0.941374 0.0567761 0)
(0.937079 0.0574714 0)
(0.937581 0.0583876 0)
(0.944985 0.0583686 0)
(0.947072 0.0586997 0)
(0.943355 0.059716 0)
(0.935435 0.0611911 0)
(0.917979 0.0626989 0)
(0.900634 0.064711 0)
(0.890037 0.0661736 0)
(0.882887 0.0665945 0)
(0.877798 0.0658393 0)
(0.884512 0.0650614 0)
(0.890775 0.0659406 0)
(0.886427 0.0682146 0)
(0.877766 0.0708903 0)
(0.864787 0.0727438 0)
(0.839771 0.0722077 0)
(0.808203 0.0689992 0)
(0.783999 0.06626 0)
(0.767568 0.0632752 0)
(0.760203 0.0463781 0)
(0.743598 0.0303622 0)
(0.416587 -0.037558 0)
(-0.469388 -0.0252786 0)
(1.18764 -0.113625 0)
(1.1808 -0.109225 0)
(1.17716 -0.107062 0)
(1.17414 -0.105225 0)
(1.17251 -0.103356 0)
(1.17525 -0.101336 0)
(1.17709 -0.0990674 0)
(1.17553 -0.095755 0)
(1.17264 -0.0927222 0)
(1.16923 -0.090266 0)
(1.1639 -0.087274 0)
(1.15735 -0.0840619 0)
(1.15287 -0.0814293 0)
(1.14952 -0.0794448 0)
(1.14674 -0.0777421 0)
(1.14736 -0.0757995 0)
(1.15041 -0.0739123 0)
(1.14991 -0.071199 0)
(1.14728 -0.0682948 0)
(1.14385 -0.0659987 0)
(1.13912 -0.0634582 0)
(1.13187 -0.0602534 0)
(1.12643 -0.0573754 0)
(1.12243 -0.0551192 0)
(1.11922 -0.0533907 0)
(1.11783 -0.0512934 0)
(1.12073 -0.0488914 0)
(1.12174 -0.0463953 0)
(1.1195 -0.0439413 0)
(1.11628 -0.0422862 0)
(1.11196 -0.0406101 0)
(1.10431 -0.0380204 0)
(1.09783 -0.0350942 0)
(1.09318 -0.0325009 0)
(1.08959 -0.030543 0)
(1.087 -0.0285899 0)
(1.08855 -0.0257608 0)
(1.0908 -0.0228018 0)
(1.08933 -0.0204292 0)
(1.0861 -0.0190048 0)
(1.08223 -0.0179366 0)
(1.0744 -0.0161173 0)
(1.06706 -0.0135119 0)
(1.06197 -0.0109098 0)
(1.05819 -0.00896728 0)
(1.05497 -0.00724599 0)
(1.05531 -0.00469769 0)
(1.05841 -0.00135546 0)
(1.05756 0.00139555 0)
(1.05452 0.00281331 0)
(1.05051 0.00378835 0)
(1.042 0.00522183 0)
(1.03371 0.00743739 0)
(1.02809 0.00987419 0)
(1.02396 0.0118704 0)
(1.02055 0.0131511 0)
(1.01964 0.0151479 0)
(1.02384 0.0182939 0)
(1.02406 0.0212183 0)
(1.02088 0.0228236 0)
(1.01664 0.0237549 0)
(1.00762 0.0247033 0)
(0.997307 0.0267285 0)
(0.990702 0.0290563 0)
(0.986251 0.0308797 0)
(0.982356 0.0319319 0)
(0.981159 0.0335909 0)
(0.986806 0.036633 0)
(0.987638 0.0396912 0)
(0.984268 0.041495 0)
(0.97974 0.0425665 0)
(0.968666 0.0432328 0)
(0.955997 0.0439314 0)
(0.948051 0.0454334 0)
(0.94248 0.0465623 0)
(0.937935 0.0470517 0)
(0.938196 0.0490859 0)
(0.944909 0.0530615 0)
(0.945595 0.056476 0)
(0.941527 0.0581289 0)
(0.935647 0.0592133 0)
(0.922318 0.0587394 0)
(0.903479 0.0569923 0)
(0.891415 0.0574865 0)
(0.883824 0.0579341 0)
(0.878021 0.0584117 0)
(0.880325 0.0612007 0)
(0.884474 0.0678427 0)
(0.881534 0.0733507 0)
(0.873764 0.0748294 0)
(0.862676 0.0740567 0)
(0.83901 0.0701254 0)
(0.80526 0.0649344 0)
(0.777477 0.063327 0)
(0.759147 0.0626797 0)
(0.745879 0.0513333 0)
(0.736976 0.0386541 0)
(0.420317 -0.0200661 0)
(-0.470327 -0.0210257 0)
(1.18385 -0.111132 0)
(1.17684 -0.106685 0)
(1.17298 -0.104571 0)
(1.16983 -0.102501 0)
(1.16793 -0.100243 0)
(1.1701 -0.097834 0)
(1.17172 -0.0958204 0)
(1.17073 -0.0934211 0)
(1.16826 -0.0907293 0)
(1.1649 -0.0881264 0)
(1.15993 -0.0851287 0)
(1.15364 -0.0823544 0)
(1.14909 -0.0800175 0)
(1.14549 -0.0777803 0)
(1.14256 -0.0756009 0)
(1.14288 -0.0729753 0)
(1.14543 -0.0706629 0)
(1.14519 -0.068605 0)
(1.14296 -0.0663535 0)
(1.13967 -0.0641359 0)
(1.13506 -0.0615796 0)
(1.12815 -0.0589786 0)
(1.12284 -0.0567411 0)
(1.11873 -0.0544063 0)
(1.11539 -0.0521518 0)
(1.11391 -0.0495013 0)
(1.11666 -0.0467102 0)
(1.11771 -0.0444876 0)
(1.11569 -0.0424574 0)
(1.11243 -0.0406635 0)
(1.108 -0.0386553 0)
(1.10053 -0.0366375 0)
(1.09436 -0.0346821 0)
(1.0898 -0.0323295 0)
(1.08612 -0.0298798 0)
(1.08335 -0.02742 0)
(1.08481 -0.0243046 0)
(1.08743 -0.0215697 0)
(1.0861 -0.0194316 0)
(1.08283 -0.017867 0)
(1.07878 -0.0164211 0)
(1.07111 -0.0149499 0)
(1.06401 -0.0134369 0)
(1.05897 -0.01144 0)
(1.05494 -0.0090871 0)
(1.0515 -0.00680791 0)
(1.05136 -0.00375151 0)
(1.05505 -0.000370235 0)
(1.05478 0.00213209 0)
(1.05176 0.00376562 0)
(1.04767 0.00509441 0)
(1.03946 0.00618504 0)
(1.03113 0.00700637 0)
(1.02541 0.00858396 0)
(1.02094 0.0105827 0)
(1.01729 0.0124557 0)
(1.01598 0.0150188 0)
(1.02041 0.0185161 0)
(1.02134 0.0215364 0)
(1.01837 0.0235798 0)
(1.01421 0.0250537 0)
(1.00566 0.0260031 0)
(0.994947 0.0262415 0)
(0.987839 0.0274071 0)
(0.982937 0.0291427 0)
(0.979011 0.0307784 0)
(0.977754 0.0329705 0)
(0.983086 0.0365876 0)
(0.984738 0.0402595 0)
(0.981903 0.042636 0)
(0.977723 0.0439333 0)
(0.967838 0.0443881 0)
(0.953776 0.0429954 0)
(0.944489 0.0433691 0)
(0.938413 0.0448319 0)
(0.9337 0.0460967 0)
(0.933009 0.0487321 0)
(0.939313 0.0538638 0)
(0.941024 0.0583819 0)
(0.93732 0.0608023 0)
(0.932125 0.0613091 0)
(0.920791 0.0600846 0)
(0.900575 0.0559375 0)
(0.886807 0.0541835 0)
(0.878688 0.0550744 0)
(0.872063 0.0558553 0)
(0.870371 0.0589226 0)
(0.874435 0.0638513 0)
(0.873783 0.0658932 0)
(0.867238 0.0663184 0)
(0.857733 0.0663932 0)
(0.837035 0.0644888 0)
(0.806447 0.0581925 0)
(0.779942 0.0515824 0)
(0.759138 0.0458542 0)
(0.743067 0.030486 0)
(0.741351 0.0159442 0)
(0.422818 -0.0187631 0)
(-0.470196 -0.0124953 0)
(1.1757 -0.109608 0)
(1.16873 -0.105058 0)
(1.1649 -0.10308 0)
(1.16177 -0.101154 0)
(1.16037 -0.098419 0)
(1.1627 -0.0954755 0)
(1.16357 -0.093132 0)
(1.16216 -0.0909844 0)
(1.15971 -0.0888384 0)
(1.15655 -0.0867408 0)
(1.15207 -0.0842173 0)
(1.14576 -0.0815988 0)
(1.14118 -0.0793143 0)
(1.13761 -0.0771293 0)
(1.13482 -0.074771 0)
(1.13561 -0.0716503 0)
(1.13786 -0.0687956 0)
(1.13725 -0.0665 0)
(1.13499 -0.0644229 0)
(1.13187 -0.0624861 0)
(1.12773 -0.0603452 0)
(1.12085 -0.0580589 0)
(1.11536 -0.0559545 0)
(1.11143 -0.0538427 0)
(1.10818 -0.0517313 0)
(1.10701 -0.0489244 0)
(1.10971 -0.0460142 0)
(1.11044 -0.0436433 0)
(1.10846 -0.0415729 0)
(1.10539 -0.0396625 0)
(1.10134 -0.0376075 0)
(1.09402 -0.0352696 0)
(1.08742 -0.0332545 0)
(1.08312 -0.0312662 0)
(1.07955 -0.0292547 0)
(1.07694 -0.0269157 0)
(1.07864 -0.0240525 0)
(1.08116 -0.0215119 0)
(1.07984 -0.0194123 0)
(1.07677 -0.0177034 0)
(1.07302 -0.0160752 0)
(1.06571 -0.0140362 0)
(1.0578 -0.0120957 0)
(1.05275 -0.00990598 0)
(1.0488 -0.00764623 0)
(1.04545 -0.0054156 0)
(1.04548 -0.00270478 0)
(1.04929 6.5935e-05 0)
(1.04933 0.00226248 0)
(1.04651 0.00388979 0)
(1.04273 0.00507244 0)
(1.03551 0.00627861 0)
(1.0259 0.00735499 0)
(1.01949 0.00939434 0)
(1.015 0.0117125 0)
(1.0113 0.0139634 0)
(1.01007 0.0167663 0)
(1.01446 0.0198539 0)
(1.01594 0.0224673 0)
(1.01335 0.0243634 0)
(1.00964 0.0253066 0)
(1.00277 0.0259529 0)
(0.990878 0.0255646 0)
(0.982515 0.0264914 0)
(0.977285 0.02854 0)
(0.973123 0.0307039 0)
(0.971167 0.0335006 0)
(0.975992 0.0375314 0)
(0.978642 0.0408089 0)
(0.976473 0.0427275 0)
(0.97273 0.0436327 0)
(0.965637 0.0440779 0)
(0.950882 0.0423923 0)
(0.939055 0.0417597 0)
(0.932311 0.0432002 0)
(0.927246 0.0446276 0)
(0.924564 0.0469033 0)
(0.929466 0.0520066 0)
(0.932908 0.0564162 0)
(0.930332 0.0584165 0)
(0.925514 0.0592389 0)
(0.917347 0.0600523 0)
(0.898874 0.0566353 0)
(0.881569 0.0521325 0)
(0.87154 0.0511538 0)
(0.864614 0.0518363 0)
(0.85984 0.0534189 0)
(0.861592 0.0587312 0)
(0.861801 0.0648495 0)
(0.856331 0.068413 0)
(0.848205 0.0688736 0)
(0.834514 0.0668722 0)
(0.808567 0.0559866 0)
(0.779584 0.0443809 0)
(0.757208 0.0366103 0)
(0.742171 0.0228645 0)
(0.744347 0.00818954 0)
(0.430034 -0.0105688 0)
(-0.469285 -0.00871816 0)
(1.16681 -0.106749 0)
(1.15973 -0.102242 0)
(1.15591 -0.100369 0)
(1.15283 -0.0986297 0)
(1.15175 -0.0959883 0)
(1.15481 -0.0926494 0)
(1.15569 -0.0900812 0)
(1.15391 -0.0879932 0)
(1.15126 -0.0860531 0)
(1.14806 -0.0841423 0)
(1.14364 -0.0817497 0)
(1.1371 -0.079145 0)
(1.13226 -0.0769772 0)
(1.1287 -0.075009 0)
(1.12602 -0.0727554 0)
(1.12729 -0.0692839 0)
(1.12996 -0.0661834 0)
(1.12933 -0.0640098 0)
(1.12696 -0.0621028 0)
(1.12387 -0.0603298 0)
(1.12006 -0.0584549 0)
(1.11341 -0.0563048 0)
(1.10733 -0.054301 0)
(1.1033 -0.0522949 0)
(1.10006 -0.0504297 0)
(1.0989 -0.0476815 0)
(1.10184 -0.0441842 0)
(1.10272 -0.0413974 0)
(1.10083 -0.03922 0)
(1.09785 -0.0373841 0)
(1.09416 -0.0356193 0)
(1.08756 -0.0336889 0)
(1.08043 -0.032033 0)
(1.07578 -0.0304229 0)
(1.07214 -0.0288251 0)
(1.06954 -0.0267104 0)
(1.07132 -0.0234678 0)
(1.07374 -0.0204323 0)
(1.07262 -0.0179865 0)
(1.06989 -0.0159398 0)
(1.0664 -0.0140926 0)
(1.05989 -0.0123197 0)
(1.0513 -0.0110361 0)
(1.04578 -0.00953554 0)
(1.0418 -0.00776314 0)
(1.03852 -0.00583637 0)
(1.03869 -0.00319157 0)
(1.04239 -0.000392453 0)
(1.04264 0.00205846 0)
(1.04018 0.00417043 0)
(1.03667 0.00595756 0)
(1.03071 0.00766455 0)
(1.02037 0.00836625 0)
(1.01278 0.00948939 0)
(1.00826 0.0114031 0)
(1.00452 0.0132635 0)
(1.00323 0.0159128 0)
(1.00743 0.0191913 0)
(1.00922 0.0219232 0)
(1.00713 0.0240025 0)
(1.00383 0.0256095 0)
(0.999025 0.0269493 0)
(0.987356 0.0265799 0)
(0.976525 0.0260487 0)
(0.9707 0.0274726 0)
(0.966455 0.0293449 0)
(0.963713 0.0319021 0)
(0.967466 0.036533 0)
(0.971157 0.0408719 0)
(0.969711 0.0430472 0)
(0.966238 0.0441075 0)
(0.961231 0.0448918 0)
(0.948942 0.0433797 0)
(0.934459 0.0409317 0)
(0.925926 0.0407356 0)
(0.920546 0.0420353 0)
(0.916265 0.0438227 0)
(0.918031 0.048871 0)
(0.923143 0.0558676 0)
(0.922575 0.0595513 0)
(0.91839 0.0605984 0)
(0.912694 0.0607609 0)
(0.899332 0.0580063 0)
(0.87936 0.0513045 0)
(0.865896 0.0479508 0)
(0.857952 0.0477636 0)
(0.851946 0.0485089 0)
(0.850992 0.0520642 0)
(0.852645 0.0580196 0)
(0.849334 0.0616044 0)
(0.842299 0.0623798 0)
(0.833214 0.0617538 0)
(0.814502 0.0562226 0)
(0.787648 0.0434492 0)
(0.763681 0.0310383 0)
(0.747662 0.0153324 0)
(0.751506 -0.00146967 0)
(0.432939 -0.00228356 0)
(-0.469279 -0.00569982 0)
(1.15922 -0.104366 0)
(1.15193 -0.100474 0)
(1.14802 -0.0987883 0)
(1.14494 -0.0971593 0)
(1.14361 -0.0946627 0)
(1.14696 -0.090918 0)
(1.14838 -0.0878924 0)
(1.14672 -0.0856039 0)
(1.144 -0.0836449 0)
(1.14074 -0.0817543 0)
(1.13631 -0.0795345 0)
(1.12972 -0.0771434 0)
(1.12468 -0.0750706 0)
(1.12116 -0.0732517 0)
(1.1184 -0.0714687 0)
(1.1194 -0.0683398 0)
(1.12274 -0.0648124 0)
(1.12243 -0.0622713 0)
(1.12009 -0.0603529 0)
(1.11705 -0.0587039 0)
(1.1134 -0.0569084 0)
(1.10704 -0.0547459 0)
(1.1004 -0.0527204 0)
(1.09612 -0.0507555 0)
(1.09288 -0.0488796 0)
(1.09147 -0.0462209 0)
(1.0946 -0.0425483 0)
(1.09603 -0.0397638 0)
(1.09436 -0.0377206 0)
(1.09151 -0.0358999 0)
(1.08807 -0.0343178 0)
(1.08241 -0.0327211 0)
(1.07464 -0.0313982 0)
(1.06931 -0.0295645 0)
(1.0655 -0.0276044 0)
(1.06264 -0.0255879 0)
(1.06401 -0.0221101 0)
(1.0669 -0.0185934 0)
(1.06637 -0.0160226 0)
(1.06395 -0.0139167 0)
(1.06068 -0.0122881 0)
(1.05553 -0.0108671 0)
(1.04661 -0.0104513 0)
(1.03986 -0.00946686 0)
(1.03558 -0.00788845 0)
(1.03215 -0.006218 0)
(1.03184 -0.00316038 0)
(1.03555 0.000936363 0)
(1.03633 0.00401847 0)
(1.03423 0.00639131 0)
(1.0309 0.00812317 0)
(1.02632 0.00940415 0)
(1.01665 0.00941172 0)
(1.00738 0.00943752 0)
(1.00212 0.0104303 0)
(0.998272 0.0118426 0)
(0.996348 0.0144437 0)
(1.00027 0.0192061 0)
(1.00297 0.0232336 0)
(1.00129 0.0253584 0)
(0.998115 0.0264666 0)
(0.994345 0.0272173 0)
(0.984841 0.0273585 0)
(0.972237 0.026467 0)
(0.964783 0.026696 0)
(0.960288 0.0277856 0)
(0.956721 0.0295115 0)
(0.958442 0.0340584 0)
(0.96366 0.0404199 0)
(0.963774 0.0437622 0)
(0.960567 0.0448475 0)
(0.956373 0.0452023 0)
(0.947403 0.0445769 0)
(0.93215 0.0412075 0)
(0.921135 0.0395998 0)
(0.91461 0.0399975 0)
(0.909842 0.0411257 0)
(0.907992 0.0442626 0)
(0.913221 0.0517726 0)
(0.915789 0.0579156 0)
(0.912891 0.0602839 0)
(0.907993 0.0608768 0)
(0.899782 0.0606154 0)
(0.881455 0.0544319 0)
(0.864083 0.0476465 0)
(0.853896 0.0450105 0)
(0.847165 0.0444336 0)
(0.842999 0.0459444 0)
(0.844005 0.0512378 0)
(0.84284 0.0562802 0)
(0.837404 0.0584561 0)
(0.829909 0.058175 0)
(0.819783 0.0558829 0)
(0.801302 0.0460215 0)
(0.7774 0.0318904 0)
(0.756342 0.0167415 0)
(0.757841 -0.00774794 0)
(0.431734 0.00184703 0)
(-0.469318 -0.00351381 0)
(1.15386 -0.101715 0)
(1.1466 -0.0981858 0)
(1.14249 -0.0965662 0)
(1.13942 -0.0950466 0)
(1.13761 -0.092988 0)
(1.14039 -0.0893296 0)
(1.14236 -0.0858797 0)
(1.14098 -0.0833508 0)
(1.13838 -0.0811679 0)
(1.13521 -0.0791149 0)
(1.13114 -0.0769803 0)
(1.12482 -0.0748431 0)
(1.11955 -0.0729974 0)
(1.11598 -0.0713399 0)
(1.1131 -0.069788 0)
(1.1134 -0.06695 0)
(1.1169 -0.0635064 0)
(1.11696 -0.0608456 0)
(1.11476 -0.0586804 0)
(1.11182 -0.056679 0)
(1.10834 -0.0547838 0)
(1.10237 -0.0527383 0)
(1.09533 -0.0508348 0)
(1.09079 -0.0489192 0)
(1.08747 -0.0472703 0)
(1.08558 -0.0451665 0)
(1.08861 -0.0416977 0)
(1.09073 -0.0385062 0)
(1.08936 -0.0362473 0)
(1.08664 -0.0345363 0)
(1.08337 -0.0331048 0)
(1.07859 -0.0315673 0)
(1.07037 -0.0302293 0)
(1.06406 -0.0285149 0)
(1.06 -0.0264597 0)
(1.057 -0.0243514 0)
(1.05779 -0.0207617 0)
(1.06128 -0.0169374 0)
(1.06125 -0.0147904 0)
(1.05907 -0.0132758 0)
(1.05603 -0.0118656 0)
(1.05214 -0.0106629 0)
(1.04397 -0.00992273 0)
(1.03563 -0.00917643 0)
(1.03052 -0.00749357 0)
(1.02688 -0.00567147 0)
(1.02541 -0.00286509 0)
(1.02907 0.00191675 0)
(1.03075 0.00526552 0)
(1.02901 0.00697857 0)
(1.026 0.00849338 0)
(1.02238 0.0095373 0)
(1.01476 0.0100825 0)
(1.0043 0.00958259 0)
(0.997646 0.0103142 0)
(0.993313 0.0115716 0)
(0.99016 0.0131803 0)
(0.992509 0.0177008 0)
(0.996958 0.0234519 0)
(0.996458 0.0263487 0)
(0.993552 0.0278006 0)
(0.990159 0.0288184 0)
(0.982983 0.0291827 0)
(0.970285 0.0273522 0)
(0.961081 0.0265605 0)
(0.955531 0.0271857 0)
(0.951404 0.0280694 0)
(0.949825 0.0306922 0)
(0.955247 0.0376713 0)
(0.958448 0.0434918 0)
(0.956403 0.0457486 0)
(0.952566 0.04638 0)
(0.946573 0.0464515 0)
(0.932817 0.0430515 0)
(0.919054 0.0392232 0)
(0.910876 0.0385727 0)
(0.905502 0.0389623 0)
(0.901399 0.0401172 0)
(0.903233 0.0453002 0)
(0.908703 0.0534868 0)
(0.908503 0.0583335 0)
(0.904383 0.0603838 0)
(0.898909 0.0608293 0)
(0.887117 0.0586133 0)
(0.867686 0.0494068 0)
(0.853363 0.043116 0)
(0.844864 0.0414161 0)
(0.838926 0.0411641 0)
(0.837312 0.0438925 0)
(0.838233 0.0489863 0)
(0.835522 0.051483 0)
(0.829905 0.0515179 0)
(0.822595 0.05077 0)
(0.811166 0.0460952 0)
(0.794015 0.035575 0)
(0.772035 0.0222441 0)
(0.762611 -0.00882041 0)
(0.42808 0.000821116 0)
(-0.469061 -0.00174985 0)
(1.15004 -0.0993646 0)
(1.14312 -0.0958497 0)
(1.13868 -0.094148 0)
(1.13553 -0.0926296 0)
(1.13333 -0.09086 0)
(1.13521 -0.0875449 0)
(1.13748 -0.0841473 0)
(1.13656 -0.0814243 0)
(1.13423 -0.0790733 0)
(1.13123 -0.0770347 0)
(1.12756 -0.0750882 0)
(1.12157 -0.0730395 0)
(1.11595 -0.0712257 0)
(1.11225 -0.0695739 0)
(1.10932 -0.0681563 0)
(1.10893 -0.0656022 0)
(1.1122 -0.0620158 0)
(1.11266 -0.0590872 0)
(1.11073 -0.0567231 0)
(1.10792 -0.0547051 0)
(1.10456 -0.0529017 0)
(1.09929 -0.0509653 0)
(1.09199 -0.0492073 0)
(1.08713 -0.0475084 0)
(1.08373 -0.0459283 0)
(1.08146 -0.0439052 0)
(1.08389 -0.0403134 0)
(1.08654 -0.03711 0)
(1.08545 -0.0350444 0)
(1.08288 -0.0332291 0)
(1.07974 -0.0316327 0)
(1.07557 -0.0299941 0)
(1.06752 -0.028488 0)
(1.06031 -0.0269891 0)
(1.056 -0.0252434 0)
(1.0527 -0.0237176 0)
(1.05226 -0.0209396 0)
(1.05648 -0.0167009 0)
(1.05751 -0.0137527 0)
(1.05559 -0.0120128 0)
(1.05267 -0.0107652 0)
(1.04915 -0.00967328 0)
(1.04204 -0.0086935 0)
(1.03261 -0.00815927 0)
(1.02639 -0.00675285 0)
(1.02231 -0.00515764 0)
(1.01958 -0.00315739 0)
(1.02243 0.00178191 0)
(1.02635 0.00671835 0)
(1.02565 0.00891345 0)
(1.02282 0.00981425 0)
(1.01938 0.0103372 0)
(1.01339 0.0108318 0)
(1.00262 0.0099724 0)
(0.994525 0.00993019 0)
(0.989219 0.0112665 0)
(0.985369 0.0127762 0)
(0.984528 0.0160435 0)
(0.990008 0.0229449 0)
(0.99227 0.0276706 0)
(0.990164 0.0292208 0)
(0.98695 0.0297026 0)
(0.981944 0.0300328 0)
(0.970438 0.0280589 0)
(0.959205 0.0257252 0)
(0.952417 0.0258757 0)
(0.947479 0.0270327 0)
(0.943826 0.0285007 0)
(0.945773 0.0336674 0)
(0.952147 0.0416619 0)
(0.952808 0.0460446 0)
(0.949751 0.0476206 0)
(0.945532 0.0481323 0)
(0.935973 0.0465657 0)
(0.920093 0.0407238 0)
(0.909305 0.0375394 0)
(0.902857 0.0374167 0)
(0.897927 0.0377969 0)
(0.895172 0.0399396 0)
(0.899657 0.0476408 0)
(0.903177 0.0552949 0)
(0.901127 0.0590062 0)
(0.896352 0.0605134 0)
(0.889993 0.0605117 0)
(0.875737 0.0556254 0)
(0.856882 0.0454491 0)
(0.844788 0.0400712 0)
(0.837586 0.0384248 0)
(0.832608 0.0383429 0)
(0.832534 0.042257 0)
(0.832103 0.0466338 0)
(0.828378 0.0476633 0)
(0.823251 0.0459575 0)
(0.816413 0.0433582 0)
(0.805659 0.0360661 0)
(0.789558 0.024968 0)
(0.772811 -0.00366125 0)
(0.423033 -0.00101266 0)
(-0.468729 0.000311445 0)
(1.14708 -0.0972013 0)
(1.14065 -0.0936996 0)
(1.1359 -0.0918193 0)
(1.13261 -0.0901934 0)
(1.13012 -0.0885406 0)
(1.13122 -0.0854404 0)
(1.1337 -0.0820579 0)
(1.13314 -0.0795475 0)
(1.13099 -0.0774038 0)
(1.12813 -0.0754371 0)
(1.12468 -0.073497 0)
(1.11929 -0.0712952 0)
(1.1134 -0.0693574 0)
(1.10944 -0.0676251 0)
(1.10638 -0.0661621 0)
(1.1051 -0.0638579 0)
(1.1081 -0.0600961 0)
(1.10911 -0.0571478 0)
(1.10745 -0.0550206 0)
(1.10481 -0.0530838 0)
(1.1016 -0.0513445 0)
(1.09698 -0.0494384 0)
(1.08965 -0.0476507 0)
(1.08435 -0.0461524 0)
(1.08083 -0.0448262 0)
(1.07807 -0.0434242 0)
(1.07939 -0.0400323 0)
(1.08272 -0.0358589 0)
(1.08218 -0.033259 0)
(1.07975 -0.0314455 0)
(1.0767 -0.0298855 0)
(1.07293 -0.0283304 0)
(1.06547 -0.0268381 0)
(1.05773 -0.025774 0)
(1.05311 -0.0245842 0)
(1.0497 -0.0235 0)
(1.04791 -0.0212348 0)
(1.05167 -0.0165406 0)
(1.05407 -0.012702 0)
(1.05244 -0.0107632 0)
(1.04958 -0.00938504 0)
(1.04632 -0.00815859 0)
(1.04048 -0.00699824 0)
(1.03055 -0.00670517 0)
(1.02341 -0.00587765 0)
(1.01908 -0.0044123 0)
(1.01572 -0.0030014 0)
(1.01608 0.000179398 0)
(1.02158 0.00571436 0)
(1.02255 0.00906606 0)
(1.01994 0.0104636 0)
(1.01667 0.0113529 0)
(1.01219 0.0121162 0)
(1.00216 0.01149 0)
(0.992125 0.0107648 0)
(0.985944 0.0117088 0)
(0.98175 0.0130648 0)
(0.97875 0.0145971 0)
(0.982008 0.0197851 0)
(0.987742 0.0266914 0)
(0.987559 0.029964 0)
(0.98456 0.0306754 0)
(0.980615 0.0311018 0)
(0.972226 0.0300398 0)
(0.959058 0.0265256 0)
(0.95013 0.0252965 0)
(0.944549 0.026175 0)
(0.940331 0.0272535 0)
(0.938217 0.0296904 0)
(0.943906 0.0374362 0)
(0.948455 0.0447642 0)
(0.947029 0.0479009 0)
(0.943348 0.0489253 0)
(0.937967 0.0492149 0)
(0.925268 0.0449578 0)
(0.910292 0.0380596 0)
(0.901371 0.0358737 0)
(0.895677 0.036373 0)
(0.891202 0.0368781 0)
(0.890814 0.0404299 0)
(0.896228 0.0492295 0)
(0.897597 0.0553967 0)
(0.894449 0.0579388 0)
(0.889387 0.058925 0)
(0.881495 0.0585264 0)
(0.865503 0.051722 0)
(0.848443 0.0412327 0)
(0.837759 0.0364534 0)
(0.831297 0.0350414 0)
(0.827597 0.0355654 0)
(0.828461 0.0395938 0)
(0.82751 0.0420239 0)
(0.823849 0.0413652 0)
(0.819273 0.0388408 0)
(0.812748 0.0346889 0)
(0.803232 0.0271257 0)
(0.785884 0.00520931 0)
(0.420163 -0.00276435 0)
(-0.468103 0.00273895 0)
(1.14452 -0.0950932 0)
(1.13859 -0.0918722 0)
(1.13356 -0.0898545 0)
(1.13012 -0.088137 0)
(1.12739 -0.0865535 0)
(1.12759 -0.0835376 0)
(1.13024 -0.0799994 0)
(1.12996 -0.0775231 0)
(1.12799 -0.0754913 0)
(1.12532 -0.0735785 0)
(1.1221 -0.0717187 0)
(1.1173 -0.0696179 0)
(1.11127 -0.0676902 0)
(1.10698 -0.065925 0)
(1.1037 -0.06435 0)
(1.10151 -0.0623946 0)
(1.10387 -0.0585699 0)
(1.10583 -0.0551958 0)
(1.10453 -0.0531321 0)
(1.10205 -0.0513588 0)
(1.09901 -0.0497147 0)
(1.0949 -0.0479443 0)
(1.08782 -0.0463025 0)
(1.08203 -0.044954 0)
(1.07816 -0.0435674 0)
(1.07507 -0.04235 0)
(1.07449 -0.0396799 0)
(1.07845 -0.0348117 0)
(1.07918 -0.0314393 0)
(1.07707 -0.0295487 0)
(1.07413 -0.0280653 0)
(1.07064 -0.0267027 0)
(1.06393 -0.0254399 0)
(1.05574 -0.0247586 0)
(1.05067 -0.0239479 0)
(1.04708 -0.022992 0)
(1.04423 -0.0217923 0)
(1.04615 -0.0176474 0)
(1.0502 -0.0121103 0)
(1.04968 -0.0090758 0)
(1.04702 -0.00750236 0)
(1.04382 -0.0063403 0)
(1.03891 -0.00525934 0)
(1.02926 -0.00515869 0)
(1.02132 -0.00521042 0)
(1.01676 -0.00461684 0)
(1.01324 -0.00384271 0)
(1.01106 -0.00181567 0)
(1.01548 0.00408798 0)
(1.01899 0.00949984 0)
(1.01748 0.0119885 0)
(1.01438 0.0130739 0)
(1.01064 0.0140756 0)
(1.00251 0.0140525 0)
(0.991138 0.0125201 0)
(0.983952 0.0123037 0)
(0.979414 0.013047 0)
(0.97579 0.0139077 0)
(0.974813 0.016908 0)
(0.981281 0.0240258 0)
(0.98449 0.0291529 0)
(0.982636 0.031587 0)
(0.979152 0.0325058 0)
(0.973719 0.0328288 0)
(0.961379 0.0297567 0)
(0.949436 0.026402 0)
(0.942623 0.025985 0)
(0.937962 0.0268243 0)
(0.934072 0.0276923 0)
(0.93474 0.0315898 0)
(0.941819 0.040935 0)
(0.943743 0.0469697 0)
(0.941088 0.049377 0)
(0.937055 0.0498946 0)
(0.930103 0.0492461 0)
(0.914923 0.0430502 0)
(0.901556 0.0371485 0)
(0.894276 0.0357197 0)
(0.889362 0.0357928 0)
(0.885301 0.0364728 0)
(0.887038 0.041752 0)
(0.891562 0.0506592 0)
(0.890948 0.0558123 0)
(0.886903 0.0579865 0)
(0.881613 0.0583414 0)
(0.873041 0.0564014 0)
(0.856647 0.0475163 0)
(0.840948 0.03737 0)
(0.831408 0.032999 0)
(0.825747 0.0314587 0)
(0.823431 0.03253 0)
(0.824734 0.0365798 0)
(0.823694 0.0378654 0)
(0.821005 0.0355405 0)
(0.817333 0.0316891 0)
(0.812443 0.0270512 0)
(0.798985 0.0132087 0)
(0.420034 -0.00164009 0)
(-0.46731 0.0055166 0)
(1.1421 -0.0930413 0)
(1.13648 -0.0903441 0)
(1.13109 -0.088251 0)
(1.12737 -0.0865077 0)
(1.1244 -0.0849707 0)
(1.1235 -0.0821815 0)
(1.1266 -0.0778545 0)
(1.12702 -0.0749816 0)
(1.12515 -0.0730711 0)
(1.12261 -0.0713198 0)
(1.11959 -0.0697019 0)
(1.11535 -0.0679224 0)
(1.10911 -0.0661932 0)
(1.10437 -0.0646111 0)
(1.10085 -0.0631078 0)
(1.09804 -0.0615374 0)
(1.09919 -0.0579601 0)
(1.1024 -0.0535707 0)
(1.10173 -0.0511134 0)
(1.09942 -0.0493732 0)
(1.09655 -0.0477933 0)
(1.093 -0.0462681 0)
(1.08646 -0.045009 0)
(1.07998 -0.0439894 0)
(1.0756 -0.0425772 0)
(1.07219 -0.0411527 0)
(1.06999 -0.0392191 0)
(1.07315 -0.0345652 0)
(1.07592 -0.0301576 0)
(1.07452 -0.0279699 0)
(1.07179 -0.0264943 0)
(1.06858 -0.0253156 0)
(1.06323 -0.0243955 0)
(1.05471 -0.0243253 0)
(1.04843 -0.0236309 0)
(1.04417 -0.022056 0)
(1.04092 -0.0206153 0)
(1.03996 -0.0179273 0)
(1.04491 -0.0120723 0)
(1.04667 -0.00793211 0)
(1.04457 -0.00607771 0)
(1.04155 -0.00492062 0)
(1.03788 -0.00412115 0)
(1.02961 -0.00446396 0)
(1.0202 -0.00543697 0)
(1.01454 -0.00499101 0)
(1.01055 -0.00370226 0)
(1.00732 -0.0024929 0)
(1.00812 0.00149296 0)
(1.01389 0.00904764 0)
(1.01472 0.0131168 0)
(1.01218 0.0148801 0)
(1.00897 0.0158276 0)
(1.0037 0.0160995 0)
(0.992352 0.0137315 0)
(0.982964 0.0118929 0)
(0.977747 0.0120615 0)
(0.973792 0.0128476 0)
(0.97047 0.0139586 0)
(0.972706 0.0194658 0)
(0.979088 0.0283429 0)
(0.979907 0.0324786 0)
(0.977045 0.0340161 0)
(0.973322 0.0349841 0)
(0.965733 0.0339334 0)
(0.951867 0.0285452 0)
(0.941899 0.0256799 0)
(0.936289 0.0258103 0)
(0.932008 0.0265209 0)
(0.928699 0.02784 0)
(0.932349 0.0339606 0)
(0.938687 0.0433414 0)
(0.938767 0.047599 0)
(0.935407 0.0493636 0)
(0.930736 0.0507677 0)
(0.92164 0.0495861 0)
(0.906095 0.04137 0)
(0.894653 0.0354426 0)
(0.887957 0.0344084 0)
(0.883193 0.0346595 0)
(0.880056 0.0360055 0)
(0.883343 0.0426796 0)
(0.886552 0.0504335 0)
(0.884919 0.0540546 0)
(0.880613 0.0554395 0)
(0.875008 0.0555467 0)
(0.865239 0.0530558 0)
(0.848891 0.0430023 0)
(0.834734 0.0329898 0)
(0.826018 0.0286752 0)
(0.821185 0.027165 0)
(0.820391 0.0287678 0)
(0.822498 0.0324373 0)
(0.822304 0.0323632 0)
(0.820611 0.0287609 0)
(0.818497 0.0252722 0)
(0.809652 0.0181616 0)
(0.423813 0.00149746 0)
(-0.466483 0.00842259 0)
(1.13988 -0.0911084 0)
(1.1344 -0.0890345 0)
(1.12861 -0.0869642 0)
(1.12448 -0.085084 0)
(1.1213 -0.0832772 0)
(1.11922 -0.0809333 0)
(1.12207 -0.0763726 0)
(1.12414 -0.0724512 0)
(1.12273 -0.070433 0)
(1.12028 -0.0689358 0)
(1.11737 -0.0676338 0)
(1.11349 -0.0662627 0)
(1.10711 -0.0649573 0)
(1.10185 -0.0636401 0)
(1.09802 -0.0621567 0)
(1.09489 -0.0606912 0)
(1.09418 -0.0577502 0)
(1.09819 -0.0526098 0)
(1.09906 -0.0489634 0)
(1.0971 -0.0470587 0)
(1.09437 -0.0456374 0)
(1.09113 -0.0443541 0)
(1.08538 -0.0433666 0)
(1.07811 -0.04281 0)
(1.07314 -0.0417005 0)
(1.06946 -0.0402994 0)
(1.06649 -0.0388793 0)
(1.06749 -0.0351638 0)
(1.07195 -0.029784 0)
(1.07201 -0.0266016 0)
(1.06957 -0.0250141 0)
(1.06652 -0.023754 0)
(1.06253 -0.0227019 0)
(1.05446 -0.022763 0)
(1.04666 -0.022615 0)
(1.04169 -0.0212458 0)
(1.03807 -0.0197595 0)
(1.03545 -0.0180772 0)
(1.03844 -0.0132847 0)
(1.04304 -0.00760797 0)
(1.04241 -0.00493071 0)
(1.03959 -0.00379715 0)
(1.03638 -0.00302201 0)
(1.03061 -0.00290728 0)
(1.0205 -0.00444972 0)
(1.01291 -0.00465293 0)
(1.00788 -0.00312372 0)
(1.00416 -0.00151606 0)
(1.00178 0.000595452 0)
(1.00652 0.00693873 0)
(1.01125 0.0135996 0)
(1.01033 0.0162007 0)
(1.0073 0.0170071 0)
(1.00378 0.0174799 0)
(0.995378 0.0158488 0)
(0.983681 0.0121059 0)
(0.976179 0.011164 0)
(0.971103 0.0124327 0)
(0.967098 0.0137674 0)
(0.964937 0.0159816 0)
(0.970878 0.0242063 0)
(0.975829 0.0322586 0)
(0.975031 0.0354324 0)
(0.971895 0.036262 0)
(0.967751 0.0366236 0)
(0.957091 0.0334844 0)
(0.943399 0.0272948 0)
(0.935325 0.0249573 0)
(0.930282 0.0251981 0)
(0.926082 0.0258398 0)
(0.923697 0.0280969 0)
(0.929341 0.0372411 0)
(0.933935 0.0466768 0)
(0.932675 0.0505296 0)
(0.929262 0.0514606 0)
(0.924547 0.0514251 0)
(0.913839 0.0479152 0)
(0.898034 0.0393834 0)
(0.887796 0.0346146 0)
(0.881851 0.0337442 0)
(0.877331 0.0337064 0)
(0.875296 0.0358116 0)
(0.879069 0.0435635 0)
(0.880762 0.0504714 0)
(0.878274 0.0534946 0)
(0.873759 0.0543824 0)
(0.868297 0.0536567 0)
(0.858507 0.0496435 0)
(0.842568 0.0385001 0)
(0.829463 0.0287117 0)
(0.821692 0.0239488 0)
(0.817772 0.0223833 0)
(0.818498 0.0243547 0)
(0.821666 0.0278315 0)
(0.822738 0.0265737 0)
(0.822857 0.0226468 0)
(0.816925 0.0200729 0)
(0.430716 0.00753785 0)
(-0.465386 0.0112672 0)
(1.13789 -0.0890883 0)
(1.1326 -0.0874012 0)
(1.12626 -0.085432 0)
(1.1215 -0.0835231 0)
(1.11806 -0.0814589 0)
(1.11543 -0.0794181 0)
(1.11687 -0.0753161 0)
(1.12089 -0.0706861 0)
(1.12051 -0.068238 0)
(1.11819 -0.0668047 0)
(1.11533 -0.0656726 0)
(1.1119 -0.0646176 0)
(1.10573 -0.0638604 0)
(1.09957 -0.0629204 0)
(1.0953 -0.0612112 0)
(1.09198 -0.0592947 0)
(1.08977 -0.0569803 0)
(1.09288 -0.0519272 0)
(1.096 -0.0473251 0)
(1.09479 -0.0450688 0)
(1.09221 -0.0436369 0)
(1.08921 -0.0425586 0)
(1.08468 -0.0417595 0)
(1.07689 -0.0416841 0)
(1.07097 -0.0409522 0)
(1.06699 -0.0395837 0)
(1.06374 -0.0381913 0)
(1.06239 -0.0356866 0)
(1.06691 -0.0300549 0)
(1.0692 -0.0256283 0)
(1.06745 -0.0233155 0)
(1.0646 -0.0218841 0)
(1.06125 -0.0207086 0)
(1.05445 -0.0202587 0)
(1.04532 -0.0206937 0)
(1.03977 -0.0202136 0)
(1.03601 -0.0192816 0)
(1.03277 -0.0182963 0)
(1.0325 -0.0152918 0)
(1.03813 -0.00875677 0)
(1.03999 -0.00441231 0)
(1.03785 -0.00232616 0)
(1.03487 -0.00119442 0)
(1.0308 -0.000251478 0)
(1.02142 -0.00122875 0)
(1.01165 -0.00253478 0)
(1.00605 -0.00219045 0)
(1.00206 -0.00108817 0)
(0.998748 -4.14202e-05 0)
(0.999171 0.0035522 0)
(1.00608 0.0112047 0)
(1.00818 0.0158828 0)
(1.00588 0.0179842 0)
(1.00259 0.0186056 0)
(0.997588 0.018826 0)
(0.986179 0.0156951 0)
(0.975473 0.0128599 0)
(0.969323 0.0128997 0)
(0.964923 0.0140662 0)
(0.961358 0.0150789 0)
(0.961855 0.018605 0)
(0.969643 0.0280063 0)
(0.972352 0.0341351 0)
(0.970209 0.0367064 0)
(0.966683 0.0378076 0)
(0.961173 0.037931 0)
(0.94842 0.0325394 0)
(0.935983 0.0262271 0)
(0.928748 0.0246841 0)
(0.923825 0.0254939 0)
(0.920019 0.0263182 0)
(0.919699 0.0293199 0)
(0.926818 0.0392048 0)
(0.929898 0.0467012 0)
(0.927668 0.0493329 0)
(0.92357 0.0505831 0)
(0.917662 0.0513187 0)
(0.905671 0.0466523 0)
(0.891092 0.0373541 0)
(0.881831 0.0328229 0)
(0.87602 0.0322937 0)
(0.871717 0.0325365 0)
(0.870958 0.0357117 0)
(0.874852 0.0436353 0)
(0.875615 0.0490404 0)
(0.872851 0.0509638 0)
(0.868388 0.0515184 0)
(0.862845 0.0506296 0)
(0.852937 0.0460431 0)
(0.837665 0.0340337 0)
(0.82547 0.0239259 0)
(0.81855 0.0185824 0)
(0.8156 0.0171328 0)
(0.818018 0.0195629 0)
(0.822434 0.022273 0)
(0.825578 0.0203976 0)
(0.82166 0.0187551 0)
(0.439036 0.0161376 0)