/*--------------------------------*- C++ -*----------------------------------*\
  =========                 |
  \\      /  F ield         | OpenFOAM: The Open Source CFD Toolbox
   \\    /   O peration     | Website:  https://openfoam.org
    \\  /    A nd           | Version:  12
     \\/     M anipulation  |
\*---------------------------------------------------------------------------*/
FoamFile
{
    format      ascii;
    class       volVectorField;
    location    "5";
    object      U;
}
// * * * * * * * * * * * * * * * * * * * * * * * * * * * * * * * * * * * * * //

dimensions      [0 1 -1 0 0 0 0];

internalField   nonuniform List<vector> 
9801
(
(1.19651 -0.112794 0)
(1.19313 -0.110297 0)
(1.19287 -0.107203 0)
(1.19654 -0.104599 0)
(1.19742 -0.102919 0)
(1.19551 -0.101047 0)
(1.1927 -0.0989906 0)
(1.18921 -0.0968161 0)
(1.18527 -0.0941741 0)
(1.17892 -0.0899393 0)
(1.17382 -0.0866349 0)
(1.17062 -0.0845513 0)
(1.16864 -0.0819658 0)
(1.17052 -0.0788185 0)
(1.1723 -0.076739 0)
(1.17109 -0.0752268 0)
(1.16832 -0.073534 0)
(1.16484 -0.0717889 0)
(1.16088 -0.0695545 0)
(1.15485 -0.0658548 0)
(1.14947 -0.0627163 0)
(1.14594 -0.0606626 0)
(1.14349 -0.0581412 0)
(1.14456 -0.0547889 0)
(1.14567 -0.0520281 0)
(1.14466 -0.0499357 0)
(1.14227 -0.048227 0)
(1.13896 -0.0467485 0)
(1.13465 -0.0449939 0)
(1.1281 -0.0422124 0)
(1.1228 -0.0398667 0)
(1.11883 -0.0378369 0)
(1.11602 -0.0353956 0)
(1.11686 -0.031947 0)
(1.1183 -0.0289882 0)
(1.11721 -0.0265879 0)
(1.11455 -0.0245532 0)
(1.11111 -0.0228322 0)
(1.10585 -0.0204191 0)
(1.09826 -0.0179879 0)
(1.09319 -0.0164936 0)
(1.08919 -0.0151201 0)
(1.08602 -0.0132798 0)
(1.08673 -0.0103824 0)
(1.08913 -0.00746804 0)
(1.08829 -0.0048965 0)
(1.08562 -0.00276079 0)
(1.08215 -0.000854318 0)
(1.07632 0.00168012 0)
(1.06712 0.00436016 0)
(1.06129 0.00599914 0)
(1.05704 0.00716755 0)
(1.05358 0.00851112 0)
(1.05378 0.0109149 0)
(1.05714 0.0135773 0)
(1.05733 0.0159264 0)
(1.05452 0.0180051 0)
(1.051 0.0196366 0)
(1.04489 0.0219844 0)
(1.03377 0.0244443 0)
(1.02613 0.0260383 0)
(1.0219 0.0271092 0)
(1.01811 0.0282621 0)
(1.01833 0.0303987 0)
(1.02278 0.0331673 0)
(1.02342 0.0356565 0)
(1.0206 0.0377761 0)
(1.0167 0.0393764 0)
(1.00954 0.041522 0)
(0.996158 0.0435281 0)
(0.986987 0.0445984 0)
(0.981509 0.0453507 0)
(0.977408 0.0460151 0)
(0.978472 0.0482031 0)
(0.984198 0.0511518 0)
(0.984804 0.0535322 0)
(0.981329 0.0555561 0)
(0.97655 0.0569574 0)
(0.967946 0.0588164 0)
(0.949766 0.0601383 0)
(0.936242 0.0602168 0)
(0.929096 0.0603568 0)
(0.924143 0.0608289 0)
(0.928019 0.0628292 0)
(0.933433 0.0653436 0)
(0.931179 0.0677846 0)
(0.925341 0.069954 0)
(0.917752 0.0713618 0)
(0.902774 0.0730703 0)
(0.87383 0.0725123 0)
(0.851228 0.0705064 0)
(0.838176 0.0695944 0)
(0.831347 0.0679913 0)
(0.834486 0.0647088 0)
(0.826992 0.0590683 0)
(0.803171 0.0521573 0)
(0.770169 0.0379517 0)
(0.405933 -0.0369586 0)
(-0.445603 -0.0227535 0)
(1.19673 -0.114081 0)
(1.19261 -0.112215 0)
(1.19262 -0.110525 0)
(1.1961 -0.108694 0)
(1.19644 -0.106198 0)
(1.1944 -0.103605 0)
(1.19153 -0.101275 0)
(1.18807 -0.0987852 0)
(1.18369 -0.0949405 0)
(1.17798 -0.09045 0)
(1.17353 -0.0875219 0)
(1.17023 -0.085889 0)
(1.16868 -0.0841528 0)
(1.17113 -0.0830629 0)
(1.17169 -0.0814072 0)
(1.16992 -0.079078 0)
(1.16716 -0.0765757 0)
(1.16381 -0.0741113 0)
(1.15956 -0.0707157 0)
(1.15361 -0.0664494 0)
(1.14882 -0.0634745 0)
(1.14531 -0.0616264 0)
(1.14316 -0.0593441 0)
(1.14502 -0.0568006 0)
(1.14595 -0.0552767 0)
(1.14418 -0.0537053 0)
(1.14129 -0.0519318 0)
(1.13786 -0.0502108 0)
(1.13363 -0.0477306 0)
(1.12705 -0.0442831 0)
(1.12173 -0.041351 0)
(1.118 -0.039016 0)
(1.11539 -0.0365081 0)
(1.11671 -0.0330063 0)
(1.11847 -0.0301282 0)
(1.11719 -0.0279997 0)
(1.11434 -0.0263091 0)
(1.11079 -0.0248994 0)
(1.10581 -0.0231537 0)
(1.09813 -0.0214608 0)
(1.09252 -0.0194909 0)
(1.08847 -0.0174489 0)
(1.08526 -0.0153853 0)
(1.08592 -0.0119923 0)
(1.08869 -0.00866437 0)
(1.08801 -0.00594519 0)
(1.08543 -0.00379536 0)
(1.082 -0.00201254 0)
(1.0766 0.000116524 0)
(1.06765 0.00176636 0)
(1.06099 0.00314409 0)
(1.05657 0.00467615 0)
(1.05307 0.00610542 0)
(1.05306 0.00883954 0)
(1.05676 0.0119007 0)
(1.05701 0.0144728 0)
(1.05428 0.016684 0)
(1.05081 0.0183714 0)
(1.04496 0.0205464 0)
(1.03409 0.0224878 0)
(1.02602 0.0238185 0)
(1.02144 0.0249733 0)
(1.01753 0.0260411 0)
(1.01728 0.0284053 0)
(1.02206 0.0316202 0)
(1.02302 0.0343775 0)
(1.02031 0.0365837 0)
(1.01644 0.0381274 0)
(1.00992 0.039897 0)
(0.996822 0.040985 0)
(0.986644 0.0417635 0)
(0.98077 0.0428573 0)
(0.976581 0.0435035 0)
(0.976665 0.0455298 0)
(0.982212 0.0488636 0)
(0.983416 0.051989 0)
(0.980378 0.0544474 0)
(0.975756 0.0557349 0)
(0.967978 0.0570829 0)
(0.950379 0.0574213 0)
(0.935804 0.0568239 0)
(0.928057 0.0567126 0)
(0.922298 0.0566455 0)
(0.922759 0.059526 0)
(0.92833 0.0656952 0)
(0.9278 0.0697955 0)
(0.922513 0.0718832 0)
(0.914937 0.0723768 0)
(0.902126 0.07197 0)
(0.874844 0.0685248 0)
(0.84935 0.0644362 0)
(0.833699 0.062982 0)
(0.822713 0.0635603 0)
(0.820344 0.0680925 0)
(0.813067 0.0669672 0)
(0.794064 0.0626541 0)
(0.770892 0.0539991 0)
(0.414902 -0.0268393 0)
(-0.440282 -0.0169098 0)
(1.19656 -0.111941 0)
(1.1918 -0.109979 0)
(1.19253 -0.107801 0)
(1.19497 -0.106019 0)
(1.19453 -0.103976 0)
(1.19238 -0.101739 0)
(1.1895 -0.0993326 0)
(1.18587 -0.0958799 0)
(1.18078 -0.0914594 0)
(1.17631 -0.0881159 0)
(1.17262 -0.0857996 0)
(1.16934 -0.0841686 0)
(1.16882 -0.0820913 0)
(1.17147 -0.0800528 0)
(1.17081 -0.0781625 0)
(1.16858 -0.0762173 0)
(1.16568 -0.0739941 0)
(1.16203 -0.0713238 0)
(1.15684 -0.0677938 0)
(1.15143 -0.0644366 0)
(1.14728 -0.0620888 0)
(1.14383 -0.0604318 0)
(1.14215 -0.058242 0)
(1.14498 -0.0555831 0)
(1.14596 -0.0532636 0)
(1.1436 -0.0513825 0)
(1.14039 -0.0496555 0)
(1.13685 -0.0476221 0)
(1.13186 -0.0447382 0)
(1.12489 -0.0413557 0)
(1.11979 -0.0389729 0)
(1.11617 -0.0372351 0)
(1.11367 -0.0351066 0)
(1.11545 -0.0317315 0)
(1.11793 -0.0288188 0)
(1.11663 -0.0269654 0)
(1.11365 -0.0253712 0)
(1.11012 -0.0238557 0)
(1.10556 -0.0220616 0)
(1.09761 -0.0197786 0)
(1.09106 -0.01771 0)
(1.08693 -0.0155966 0)
(1.08364 -0.013618 0)
(1.08365 -0.0101796 0)
(1.08697 -0.00622889 0)
(1.08686 -0.0037503 0)
(1.08439 -0.00214497 0)
(1.08097 -0.000822971 0)
(1.07632 0.000606839 0)
(1.06758 0.00186149 0)
(1.06013 0.00326326 0)
(1.05531 0.0049075 0)
(1.05156 0.00631307 0)
(1.05051 0.00914356 0)
(1.05417 0.0135033 0)
(1.05506 0.0166009 0)
(1.05273 0.0187514 0)
(1.04944 0.0202628 0)
(1.04447 0.0217745 0)
(1.0341 0.0225737 0)
(1.02519 0.0232846 0)
(1.01987 0.0246063 0)
(1.01561 0.0258578 0)
(1.014 0.028249 0)
(1.01848 0.0327411 0)
(1.02044 0.0362402 0)
(1.01819 0.0383844 0)
(1.01446 0.0396822 0)
(1.00893 0.0407558 0)
(0.996811 0.0408887 0)
(0.985276 0.0408697 0)
(0.978363 0.0419947 0)
(0.973657 0.0429565 0)
(0.970993 0.0452177 0)
(0.975742 0.0508234 0)
(0.978957 0.0549555 0)
(0.976621 0.0567399 0)
(0.972125 0.0574515 0)
(0.965662 0.0578843 0)
(0.949764 0.05663 0)
(0.933224 0.0546992 0)
(0.923739 0.0550705 0)
(0.917214 0.0556913 0)
(0.913631 0.057359 0)
(0.918701 0.063047 0)
(0.920673 0.0669396 0)
(0.916237 0.0677686 0)
(0.909112 0.0678666 0)
(0.898467 0.0682356 0)
(0.874422 0.0654906 0)
(0.848338 0.0591864 0)
(0.831305 0.0554767 0)
(0.819534 0.0536531 0)
(0.812885 0.0511205 0)
(0.807599 0.0456035 0)
(0.793135 0.040437 0)
(0.780059 0.0379981 0)
(0.424363 -0.0274392 0)
(-0.440718 -0.00767331 0)
(1.1953 -0.110617 0)
(1.19082 -0.108168 0)
(1.1929 -0.105452 0)
(1.19455 -0.103073 0)
(1.19348 -0.100888 0)
(1.19113 -0.0984752 0)
(1.18793 -0.0958043 0)
(1.18342 -0.0927244 0)
(1.17809 -0.0898104 0)
(1.17361 -0.0874051 0)
(1.16995 -0.0854484 0)
(1.16678 -0.0836872 0)
(1.1665 -0.0810143 0)
(1.16928 -0.0778971 0)
(1.16912 -0.0752427 0)
(1.16689 -0.0727695 0)
(1.16383 -0.0704319 0)
(1.15992 -0.0680029 0)
(1.15432 -0.0654562 0)
(1.14889 -0.0632849 0)
(1.14463 -0.0615671 0)
(1.14101 -0.0602914 0)
(1.13912 -0.0583538 0)
(1.14211 -0.0550994 0)
(1.14333 -0.0520218 0)
(1.14145 -0.0493787 0)
(1.13847 -0.0467705 0)
(1.1347 -0.0441891 0)
(1.12918 -0.0414781 0)
(1.1223 -0.038937 0)
(1.11721 -0.0370074 0)
(1.11336 -0.0357625 0)
(1.11029 -0.0345735 0)
(1.1118 -0.0320824 0)
(1.11499 -0.0293345 0)
(1.114 -0.0269646 0)
(1.11111 -0.0249222 0)
(1.10758 -0.023043 0)
(1.10299 -0.0207224 0)
(1.09506 -0.0177111 0)
(1.08818 -0.0153927 0)
(1.08376 -0.0136378 0)
(1.08017 -0.0122062 0)
(1.07929 -0.00973402 0)
(1.08304 -0.00631763 0)
(1.08363 -0.00388428 0)
(1.0812 -0.00228257 0)
(1.07778 -0.00101734 0)
(1.07376 0.000213662 0)
(1.06569 0.00192868 0)
(1.05725 0.00375577 0)
(1.05184 0.00582287 0)
(1.0478 0.00768938 0)
(1.04554 0.0100598 0)
(1.04891 0.0142871 0)
(1.05084 0.0176131 0)
(1.04887 0.0194872 0)
(1.04563 0.0205976 0)
(1.04148 0.0213619 0)
(1.03246 0.021823 0)
(1.02225 0.0223093 0)
(1.01595 0.0239328 0)
(1.01122 0.0257242 0)
(1.00821 0.0276621 0)
(1.01154 0.0320288 0)
(1.01473 0.0360664 0)
(1.01301 0.038132 0)
(1.00949 0.0393682 0)
(1.00489 0.0403682 0)
(0.994688 0.0406139 0)
(0.981562 0.0399818 0)
(0.973331 0.0409137 0)
(0.968031 0.0423448 0)
(0.963944 0.0437839 0)
(0.966598 0.0479701 0)
(0.971257 0.0530071 0)
(0.96969 0.0553674 0)
(0.965477 0.0564357 0)
(0.960166 0.0572095 0)
(0.947733 0.0564086 0)
(0.929673 0.0532008 0)
(0.917997 0.0520715 0)
(0.910896 0.0528383 0)
(0.905237 0.0534643 0)
(0.906279 0.0577432 0)
(0.909948 0.0648111 0)
(0.907147 0.0689226 0)
(0.900688 0.0706243 0)
(0.892516 0.0707043 0)
(0.874837 0.0669909 0)
(0.847633 0.0572256 0)
(0.827338 0.0504366 0)
(0.81401 0.048782 0)
(0.803241 0.0481281 0)
(0.798065 0.0426769 0)
(0.788996 0.0350532 0)
(0.782478 0.0315015 0)
(0.435953 -0.0198329 0)
(-0.439179 -0.00418802 0)
(1.19229 -0.108709 0)
(1.18778 -0.106449 0)
(1.18967 -0.102796 0)
(1.19161 -0.099492 0)
(1.19048 -0.0972126 0)
(1.188 -0.0949706 0)
(1.18491 -0.0926818 0)
(1.18126 -0.0905803 0)
(1.17627 -0.0887153 0)
(1.17082 -0.0866469 0)
(1.16659 -0.0842357 0)
(1.16327 -0.0821013 0)
(1.16213 -0.0791106 0)
(1.16482 -0.0749817 0)
(1.16509 -0.0718844 0)
(1.16307 -0.0696366 0)
(1.16019 -0.0676094 0)
(1.15674 -0.0658611 0)
(1.15205 -0.0642857 0)
(1.14613 -0.0629828 0)
(1.14127 -0.0610602 0)
(1.13746 -0.0589247 0)
(1.13474 -0.0567516 0)
(1.13657 -0.0526216 0)
(1.13827 -0.0486205 0)
(1.13679 -0.0457888 0)
(1.13402 -0.0435522 0)
(1.13055 -0.0417644 0)
(1.12571 -0.0398949 0)
(1.11906 -0.0384277 0)
(1.11368 -0.0370639 0)
(1.10958 -0.0356326 0)
(1.10623 -0.0343702 0)
(1.10658 -0.031573 0)
(1.1096 -0.0277392 0)
(1.10898 -0.024747 0)
(1.10636 -0.0222459 0)
(1.10286 -0.0200886 0)
(1.09819 -0.0180437 0)
(1.09046 -0.0162559 0)
(1.08363 -0.0147869 0)
(1.07898 -0.013386 0)
(1.07527 -0.0119975 0)
(1.07386 -0.00959712 0)
(1.07761 -0.00613605 0)
(1.07874 -0.0033625 0)
(1.07643 -0.00150951 0)
(1.07308 3.38704e-05 0)
(1.06902 0.00176336 0)
(1.06121 0.00360666 0)
(1.05188 0.00504354 0)
(1.04624 0.0068639 0)
(1.0422 0.0087677 0)
(1.03938 0.0109424 0)
(1.04208 0.0146111 0)
(1.04514 0.0179327 0)
(1.04364 0.0197354 0)
(1.04049 0.020851 0)
(1.03659 0.0218205 0)
(1.02902 0.0226624 0)
(1.01749 0.0227219 0)
(1.00991 0.0237685 0)
(1.00498 0.0257858 0)
(1.00132 0.0277949 0)
(1.00276 0.0318265 0)
(1.00732 0.0367151 0)
(1.00666 0.0392277 0)
(1.00333 0.0404721 0)
(0.999147 0.041189 0)
(0.991452 0.0413414 0)
(0.977729 0.0395637 0)
(0.96757 0.0391517 0)
(0.96169 0.0404473 0)
(0.956927 0.0418148 0)
(0.956164 0.0452825 0)
(0.961749 0.0522284 0)
(0.962546 0.0565685 0)
(0.958957 0.0578265 0)
(0.954238 0.057911 0)
(0.945491 0.0572599 0)
(0.927975 0.0532825 0)
(0.913284 0.0502635 0)
(0.904781 0.0499442 0)
(0.898661 0.0505341 0)
(0.895648 0.0528316 0)
(0.899331 0.0594504 0)
(0.899542 0.0650072 0)
(0.894328 0.0671824 0)
(0.886991 0.0674114 0)
(0.875436 0.066185 0)
(0.852143 0.0575565 0)
(0.828037 0.046594 0)
(0.812366 0.040804 0)
(0.802083 0.0388073 0)
(0.797545 0.032253 0)
(0.794252 0.0253126 0)
(0.791446 0.0226789 0)
(0.445137 -0.00776657 0)
(-0.438311 -0.000996038 0)
(1.18836 -0.106272 0)
(1.18364 -0.1039 0)
(1.18436 -0.100438 0)
(1.18641 -0.0969553 0)
(1.18562 -0.0947027 0)
(1.18338 -0.0926285 0)
(1.1805 -0.0907477 0)
(1.17708 -0.0890875 0)
(1.17261 -0.0871069 0)
(1.1667 -0.0844625 0)
(1.16228 -0.0818514 0)
(1.15888 -0.0794615 0)
(1.15698 -0.0765967 0)
(1.15923 -0.0729424 0)
(1.16023 -0.0701565 0)
(1.1586 -0.0680732 0)
(1.15593 -0.0662576 0)
(1.15262 -0.0647965 0)
(1.14865 -0.0635643 0)
(1.14243 -0.0619125 0)
(1.13667 -0.0594739 0)
(1.13265 -0.0566311 0)
(1.12963 -0.0539474 0)
(1.13018 -0.0499104 0)
(1.13247 -0.0462417 0)
(1.13159 -0.0441111 0)
(1.12917 -0.0423787 0)
(1.12593 -0.0409222 0)
(1.1221 -0.0399059 0)
(1.11584 -0.0389821 0)
(1.10954 -0.0375025 0)
(1.10485 -0.0351745 0)
(1.10126 -0.033055 0)
(1.10016 -0.029703 0)
(1.10307 -0.0249897 0)
(1.10302 -0.0219783 0)
(1.10069 -0.0199896 0)
(1.09751 -0.0182645 0)
(1.09363 -0.0167659 0)
(1.08684 -0.015709 0)
(1.0792 -0.0149213 0)
(1.07401 -0.0134262 0)
(1.07016 -0.0122117 0)
(1.06795 -0.0103582 0)
(1.07097 -0.00632516 0)
(1.0727 -0.00258272 0)
(1.07092 0.000195604 0)
(1.06773 0.00251507 0)
(1.06385 0.00423402 0)
(1.05684 0.00537118 0)
(1.04712 0.00567743 0)
(1.0406 0.00639176 0)
(1.03636 0.00732978 0)
(1.03314 0.00865419 0)
(1.03496 0.0122581 0)
(1.03892 0.0168872 0)
(1.0381 0.0197786 0)
(1.03506 0.0216011 0)
(1.03124 0.0229427 0)
(1.0249 0.0240171 0)
(1.01332 0.0237816 0)
(1.00419 0.0239298 0)
(0.998777 0.0248861 0)
(0.994904 0.0261017 0)
(0.994472 0.0293722 0)
(0.999626 0.0353315 0)
(1.00076 0.0391324 0)
(0.997848 0.0404907 0)
(0.993881 0.0409168 0)
(0.988282 0.0413055 0)
(0.975664 0.0399912 0)
(0.963246 0.0387528 0)
(0.95601 0.0391486 0)
(0.951016 0.0403562 0)
(0.947677 0.042399 0)
(0.951669 0.0485706 0)
(0.955871 0.055299 0)
(0.953932 0.0580207 0)
(0.949525 0.0587067 0)
(0.943435 0.0589065 0)
(0.929051 0.0555685 0)
(0.911707 0.0500671 0)
(0.90095 0.0479996 0)
(0.894094 0.0477732 0)
(0.888772 0.0485572 0)
(0.889307 0.053173 0)
(0.891848 0.0598613 0)
(0.888787 0.0641689 0)
(0.882141 0.0661169 0)
(0.874046 0.0661857 0)
(0.859331 0.0617633 0)
(0.835852 0.0488345 0)
(0.815908 0.0379952 0)
(0.803587 0.0327189 0)
(0.797184 0.0278075 0)
(0.797461 0.020457 0)
(0.797621 0.0172652 0)
(0.453394 0.00182623 0)
(-0.437712 0.00219543 0)
(1.18421 -0.10338 0)
(1.17946 -0.10105 0)
(1.17993 -0.0981502 0)
(1.1821 -0.0949608 0)
(1.18147 -0.0927471 0)
(1.17913 -0.0907339 0)
(1.17612 -0.0889863 0)
(1.1727 -0.0872586 0)
(1.16806 -0.0845922 0)
(1.16184 -0.0814017 0)
(1.15748 -0.0789758 0)
(1.15411 -0.0769788 0)
(1.15214 -0.0743987 0)
(1.15475 -0.0709848 0)
(1.15639 -0.0684558 0)
(1.15486 -0.066708 0)
(1.15202 -0.0652395 0)
(1.1486 -0.0639915 0)
(1.1447 -0.0624063 0)
(1.13782 -0.0594162 0)
(1.13128 -0.0562951 0)
(1.12727 -0.0538145 0)
(1.12417 -0.0513891 0)
(1.12463 -0.047644 0)
(1.12813 -0.0439559 0)
(1.12804 -0.042162 0)
(1.12555 -0.0412445 0)
(1.12229 -0.0404601 0)
(1.11858 -0.0396172 0)
(1.11261 -0.0382823 0)
(1.10472 -0.0362065 0)
(1.09944 -0.0334227 0)
(1.0957 -0.0306451 0)
(1.09374 -0.027396 0)
(1.09685 -0.0225705 0)
(1.09837 -0.0194354 0)
(1.09658 -0.018021 0)
(1.09363 -0.0169541 0)
(1.09012 -0.0163186 0)
(1.08456 -0.0158143 0)
(1.07595 -0.0154052 0)
(1.06974 -0.0139315 0)
(1.06534 -0.0118484 0)
(1.0621 -0.00974966 0)
(1.06361 -0.00494826 0)
(1.06671 7.99525e-05 0)
(1.06576 0.00236799 0)
(1.06292 0.00382252 0)
(1.05942 0.00503517 0)
(1.05435 0.00602574 0)
(1.04478 0.00584646 0)
(1.03688 0.00618153 0)
(1.03191 0.00744265 0)
(1.02811 0.00864557 0)
(1.0276 0.011588 0)
(1.03201 0.0172144 0)
(1.03268 0.0210061 0)
(1.03007 0.0228807 0)
(1.02639 0.0243485 0)
(1.02157 0.0257252 0)
(1.01147 0.0254632 0)
(1.00101 0.0245754 0)
(0.994658 0.0250754 0)
(0.99038 0.0258221 0)
(0.987539 0.0271597 0)
(0.991293 0.0323178 0)
(0.995297 0.0384868 0)
(0.993797 0.0413398 0)
(0.990146 0.0423049 0)
(0.985614 0.0428653 0)
(0.975137 0.0419412 0)
(0.96137 0.0392742 0)
(0.952505 0.0384563 0)
(0.946837 0.038851 0)
(0.942404 0.0396199 0)
(0.942308 0.0432132 0)
(0.948378 0.0511221 0)
(0.949553 0.0565594 0)
(0.946019 0.0587478 0)
(0.941114 0.0593541 0)
(0.932052 0.0586269 0)
(0.914582 0.0520103 0)
(0.900019 0.0465539 0)
(0.891376 0.0454561 0)
(0.885265 0.0454218 0)
(0.882025 0.0473169 0)
(0.884519 0.0534152 0)
(0.884573 0.0583861 0)
(0.880285 0.0605025 0)
(0.873604 0.0611222 0)
(0.8645 0.0606313 0)
(0.847426 0.0540119 0)
(0.825525 0.0397584 0)
(0.808536 0.029594 0)
(0.79952 0.0236758 0)
(0.798915 0.0149738 0)
(0.801446 0.0116934 0)
(0.459361 0.0106376 0)
(-0.436539 0.00472643 0)
(1.18014 -0.100967 0)
(1.17544 -0.098778 0)
(1.17636 -0.0960445 0)
(1.17877 -0.0930374 0)
(1.17793 -0.0909444 0)
(1.17545 -0.0889013 0)
(1.1724 -0.0869238 0)
(1.16884 -0.0846005 0)
(1.16344 -0.0814623 0)
(1.15753 -0.0786524 0)
(1.15343 -0.0767554 0)
(1.15014 -0.075214 0)
(1.14827 -0.0729236 0)
(1.15136 -0.0695577 0)
(1.15326 -0.0669444 0)
(1.15135 -0.0652984 0)
(1.14831 -0.0638277 0)
(1.14493 -0.0621673 0)
(1.1404 -0.0596304 0)
(1.13281 -0.0562946 0)
(1.1268 -0.0538864 0)
(1.12295 -0.0521756 0)
(1.11979 -0.0505072 0)
(1.11986 -0.0475184 0)
(1.12419 -0.0438751 0)
(1.1247 -0.0416045 0)
(1.12215 -0.0402996 0)
(1.11885 -0.0392848 0)
(1.11525 -0.0380618 0)
(1.10889 -0.0358909 0)
(1.1001 -0.0334598 0)
(1.09459 -0.031455 0)
(1.09088 -0.0296509 0)
(1.08829 -0.0273331 0)
(1.0911 -0.0232755 0)
(1.09459 -0.0194995 0)
(1.09353 -0.017657 0)
(1.09057 -0.0167425 0)
(1.08706 -0.0160726 0)
(1.08226 -0.0150448 0)
(1.07321 -0.0143046 0)
(1.0654 -0.0128139 0)
(1.06048 -0.0105539 0)
(1.05685 -0.00848124 0)
(1.05633 -0.00494489 0)
(1.06098 0.000617476 0)
(1.06196 0.00386976 0)
(1.05971 0.00504181 0)
(1.05641 0.00568867 0)
(1.05226 0.00642006 0)
(1.04342 0.00631172 0)
(1.03427 0.0058982 0)
(1.02849 0.00677558 0)
(1.02412 0.0083583 0)
(1.02113 0.010562 0)
(1.02416 0.0164856 0)
(1.02767 0.0223068 0)
(1.02641 0.0247837 0)
(1.02312 0.0259723 0)
(1.01933 0.0265062 0)
(1.01113 0.0262359 0)
(0.999568 0.0243259 0)
(0.992242 0.0237312 0)
(0.987291 0.0243461 0)
(0.983249 0.025435 0)
(0.982828 0.029251 0)
(0.98853 0.0369417 0)
(0.989827 0.0418368 0)
(0.987009 0.0437481 0)
(0.983276 0.0447442 0)
(0.97635 0.0445937 0)
(0.962245 0.0406101 0)
(0.951004 0.0375869 0)
(0.944363 0.0374739 0)
(0.939292 0.0379786 0)
(0.935647 0.039415 0)
(0.938982 0.0457915 0)
(0.943841 0.0539741 0)
(0.942674 0.0581077 0)
(0.938433 0.0597826 0)
(0.932989 0.060234 0)
(0.920726 0.0573035 0)
(0.902622 0.0489969 0)
(0.890726 0.0444593 0)
(0.88366 0.0434589 0)
(0.878101 0.0432977 0)
(0.877223 0.0466126 0)
(0.878989 0.0531109 0)
(0.876767 0.0571931 0)
(0.871548 0.0584977 0)
(0.864742 0.0583509 0)
(0.855183 0.0551426 0)
(0.838659 0.0451594 0)
(0.818692 0.0302841 0)
(0.804456 0.0200952 0)
(0.800072 0.0109884 0)
(0.802636 0.00534041 0)
(0.463303 0.0172006 0)
(-0.435263 0.00629925 0)
(1.17674 -0.0991234 0)
(1.17187 -0.0971998 0)
(1.17254 -0.0946427 0)
(1.17553 -0.0909985 0)
(1.17486 -0.0885425 0)
(1.17231 -0.0863216 0)
(1.16913 -0.0840226 0)
(1.16517 -0.0815206 0)
(1.15983 -0.0788592 0)
(1.15439 -0.0767131 0)
(1.15038 -0.0751531 0)
(1.14707 -0.0740164 0)
(1.14484 -0.0723994 0)
(1.14762 -0.0692689 0)
(1.15008 -0.0659271 0)
(1.1485 -0.0632957 0)
(1.14564 -0.0610944 0)
(1.14211 -0.05883 0)
(1.13686 -0.0562174 0)
(1.12954 -0.0537843 0)
(1.12392 -0.0521727 0)
(1.12022 -0.0510517 0)
(1.11703 -0.0500882 0)
(1.11615 -0.0479438 0)
(1.1205 -0.0440942 0)
(1.12181 -0.040898 0)
(1.11941 -0.038804 0)
(1.11614 -0.0370485 0)
(1.11233 -0.0350592 0)
(1.10552 -0.0326856 0)
(1.09697 -0.0308795 0)
(1.0916 -0.0295791 0)
(1.088 -0.0285155 0)
(1.08496 -0.0271331 0)
(1.08637 -0.0237777 0)
(1.09096 -0.0195814 0)
(1.09064 -0.0172251 0)
(1.08768 -0.0159356 0)
(1.08434 -0.014622 0)
(1.07998 -0.0129496 0)
(1.07103 -0.0112808 0)
(1.062 -0.0102365 0)
(1.05697 -0.00879237 0)
(1.05333 -0.007362 0)
(1.05124 -0.00512449 0)
(1.05534 -0.000568704 0)
(1.05874 0.00355309 0)
(1.05706 0.00537264 0)
(1.05387 0.00633065 0)
(1.05016 0.00693483 0)
(1.04303 0.00716853 0)
(1.0325 0.0066682 0)
(1.02483 0.00766298 0)
(1.01987 0.00956128 0)
(1.01623 0.0111813 0)
(1.01632 0.0149495 0)
(1.02235 0.0215769 0)
(1.02361 0.0253644 0)
(1.02094 0.0265506 0)
(1.01739 0.026991 0)
(1.0116 0.0268116 0)
(1.00012 0.0242541 0)
(0.990344 0.0226917 0)
(0.984248 0.023537 0)
(0.979744 0.0251815 0)
(0.976486 0.0273194 0)
(0.979819 0.0340223 0)
(0.984904 0.0418763 0)
(0.984197 0.0453667 0)
(0.980837 0.0461597 0)
(0.976472 0.0461669 0)
(0.966208 0.043214 0)
(0.95199 0.0375272 0)
(0.942832 0.0356088 0)
(0.937021 0.0364349 0)
(0.932411 0.0372933 0)
(0.930626 0.0401455 0)
(0.936004 0.048631 0)
(0.938623 0.0556695 0)
(0.936002 0.0585976 0)
(0.931383 0.0596416 0)
(0.924589 0.0599379 0)
(0.910098 0.0547026 0)
(0.893535 0.0454096 0)
(0.883268 0.0414966 0)
(0.876791 0.0408393 0)
(0.872101 0.0413104 0)
(0.872747 0.0459475 0)
(0.873467 0.0511409 0)
(0.870367 0.0531998 0)
(0.865081 0.0533605 0)
(0.858167 0.0529472 0)
(0.848128 0.0479278 0)
(0.832829 0.0361746 0)
(0.814444 0.0219641 0)
(0.803285 0.0095089 0)
(0.803433 -0.00254135 0)
(0.464601 0.0205843 0)
(-0.434017 0.00702202 0)
(1.17399 -0.0976061 0)
(1.16883 -0.0958375 0)
(1.16826 -0.0935966 0)
(1.17121 -0.0891096 0)
(1.17129 -0.0856478 0)
(1.16912 -0.0828798 0)
(1.16618 -0.0805042 0)
(1.16257 -0.0784667 0)
(1.15749 -0.0765909 0)
(1.15194 -0.0749936 0)
(1.14775 -0.0737445 0)
(1.1443 -0.0728166 0)
(1.1415 -0.0716779 0)
(1.14308 -0.0686283 0)
(1.14592 -0.0642968 0)
(1.14499 -0.06092 0)
(1.14234 -0.0581479 0)
(1.13894 -0.0557455 0)
(1.13445 -0.0537125 0)
(1.12759 -0.0521094 0)
(1.12179 -0.0508813 0)
(1.11783 -0.0500052 0)
(1.11445 -0.0494863 0)
(1.11259 -0.0482045 0)
(1.11606 -0.0445106 0)
(1.11816 -0.0401426 0)
(1.11636 -0.0368645 0)
(1.11321 -0.0342848 0)
(1.10941 -0.0321594 0)
(1.10334 -0.0303797 0)
(1.09509 -0.0291852 0)
(1.0895 -0.0284127 0)
(1.08579 -0.0279128 0)
(1.08252 -0.027423 0)
(1.08227 -0.0254333 0)
(1.08676 -0.0206694 0)
(1.08762 -0.0165979 0)
(1.08515 -0.0139317 0)
(1.08177 -0.0119955 0)
(1.07729 -0.0102313 0)
(1.06891 -0.00875924 0)
(1.05991 -0.0081123 0)
(1.05487 -0.00771048 0)
(1.05132 -0.00723326 0)
(1.04823 -0.00635923 0)
(1.04996 -0.00272463 0)
(1.05498 0.00263543 0)
(1.05468 0.00589637 0)
(1.05159 0.00732919 0)
(1.04796 0.00846914 0)
(1.04228 0.00970683 0)
(1.03143 0.00946563 0)
(1.02252 0.00947506 0)
(1.01739 0.0106112 0)
(1.01357 0.0117899 0)
(1.01127 0.0136319 0)
(1.01601 0.0189089 0)
(1.02041 0.024301 0)
(1.01887 0.0267846 0)
(1.01533 0.0274186 0)
(1.01128 0.0278464 0)
(1.00203 0.0266169 0)
(0.989732 0.0243339 0)
(0.9818 0.0243502 0)
(0.976594 0.0257368 0)
(0.972561 0.0268687 0)
(0.971445 0.0297865 0)
(0.978233 0.0381537 0)
(0.981213 0.0440413 0)
(0.97889 0.0461216 0)
(0.974959 0.0463964 0)
(0.969272 0.0462083 0)
(0.956123 0.0417365 0)
(0.942873 0.0369061 0)
(0.935379 0.0360025 0)
(0.930256 0.0366186 0)
(0.925934 0.0374067 0)
(0.926517 0.0420004 0)
(0.93204 0.0515167 0)
(0.932454 0.0573479 0)
(0.9288 0.0596345 0)
(0.924027 0.0599976 0)
(0.916538 0.0588844 0)
(0.900753 0.0514179 0)
(0.885276 0.0426602 0)
(0.87617 0.0394912 0)
(0.870275 0.0386813 0)
(0.866814 0.039797 0)
(0.868102 0.0450677 0)
(0.867566 0.0491397 0)
(0.864145 0.0499582 0)
(0.85928 0.0490058 0)
(0.852915 0.0470834 0)
(0.843805 0.0398663 0)
(0.829809 0.0280953 0)
(0.813846 0.014067 0)
(0.804213 -0.00831989 0)
(0.461303 0.0198801 0)
(-0.432929 0.00770937 0)
(1.1716 -0.0967615 0)
(1.16592 -0.0946833 0)
(1.16363 -0.0925625 0)
(1.16546 -0.0873371 0)
(1.1669 -0.0826716 0)
(1.16544 -0.0798553 0)
(1.16288 -0.0778251 0)
(1.15974 -0.0762931 0)
(1.15565 -0.0749894 0)
(1.15015 -0.0740993 0)
(1.14564 -0.0732024 0)
(1.14183 -0.0720144 0)
(1.13846 -0.0707956 0)
(1.13729 -0.0677916 0)
(1.14022 -0.0621955 0)
(1.14068 -0.0581648 0)
(1.13878 -0.0556301 0)
(1.1359 -0.0536803 0)
(1.13238 -0.0522 0)
(1.12646 -0.0511872 0)
(1.12043 -0.0507428 0)
(1.11594 -0.0499874 0)
(1.11209 -0.0489255 0)
(1.10893 -0.0475585 0)
(1.10965 -0.0435957 0)
(1.11293 -0.0379574 0)
(1.11256 -0.03465 0)
(1.11016 -0.0322078 0)
(1.10691 -0.030498 0)
(1.10237 -0.0292142 0)
(1.09453 -0.0287864 0)
(1.08831 -0.0285632 0)
(1.08378 -0.0279768 0)
(1.07993 -0.0271619 0)
(1.07734 -0.0255153 0)
(1.0803 -0.0205137 0)
(1.08318 -0.0152418 0)
(1.08187 -0.0122251 0)
(1.07898 -0.00978642 0)
(1.07547 -0.00827031 0)
(1.06864 -0.00745754 0)
(1.05925 -0.00769945 0)
(1.05334 -0.00767836 0)
(1.04926 -0.00745357 0)
(1.04565 -0.00701797 0)
(1.04453 -0.00499842 0)
(1.04958 0.00120001 0)
(1.05161 0.00608257 0)
(1.04941 0.00905663 0)
(1.04612 0.011036 0)
(1.04159 0.0124198 0)
(1.03172 0.0122067 0)
(1.02142 0.0108702 0)
(1.016 0.0106782 0)
(1.01212 0.0107798 0)
(1.0085 0.0112742 0)
(1.00932 0.0147528 0)
(1.0156 0.0222681 0)
(1.01664 0.0266569 0)
(1.01385 0.0290302 0)
(1.01035 0.0304296 0)
(1.00394 0.0309309 0)
(0.991032 0.02798 0)
(0.980711 0.0257254 0)
(0.974828 0.0257987 0)
(0.970562 0.026279 0)
(0.967034 0.0270721 0)
(0.969875 0.0317046 0)
(0.976489 0.0401936 0)
(0.976925 0.0442933 0)
(0.973706 0.0467556 0)
(0.969542 0.048228 0)
(0.961504 0.0477023 0)
(0.946587 0.0412513 0)
(0.935177 0.0365743 0)
(0.928574 0.0359759 0)
(0.923818 0.036393 0)
(0.920157 0.0373659 0)
(0.923321 0.0432307 0)
(0.928134 0.0519361 0)
(0.927192 0.0560064 0)
(0.923029 0.0575354 0)
(0.917613 0.0582337 0)
(0.908279 0.0570451 0)
(0.89187 0.0484182 0)
(0.878016 0.0399273 0)
(0.869706 0.0370281 0)
(0.864346 0.0361683 0)
(0.862349 0.0379317 0)
(0.864013 0.0429866 0)
(0.863108 0.0455832 0)
(0.859812 0.0454381 0)
(0.85547 0.0441066 0)
(0.849884 0.0403652 0)
(0.841786 0.0328284 0)
(0.829213 0.0206258 0)
(0.811186 -0.00407698 0)
(0.455218 0.015397 0)
(-0.431836 0.00874868 0)
(1.16943 -0.0957368 0)
(1.16289 -0.0924272 0)
(1.16019 -0.0898692 0)
(1.15949 -0.085559 0)
(1.16238 -0.0804661 0)
(1.16234 -0.0775734 0)
(1.16022 -0.0759102 0)
(1.15728 -0.0745274 0)
(1.15389 -0.0734448 0)
(1.14916 -0.0728902 0)
(1.14393 -0.0723698 0)
(1.13935 -0.0704694 0)
(1.13559 -0.0678249 0)
(1.13285 -0.0654878 0)
(1.13406 -0.0607112 0)
(1.13665 -0.0560382 0)
(1.13575 -0.0537419 0)
(1.13323 -0.052229 0)
(1.12998 -0.0510241 0)
(1.12573 -0.0501986 0)
(1.11958 -0.0501928 0)
(1.11421 -0.0493263 0)
(1.10956 -0.0468931 0)
(1.10605 -0.0448092 0)
(1.10399 -0.042113 0)
(1.10715 -0.0367016 0)
(1.10917 -0.0324762 0)
(1.10762 -0.0307074 0)
(1.10467 -0.029444 0)
(1.10109 -0.0286211 0)
(1.09488 -0.0287212 0)
(1.08759 -0.0291278 0)
(1.08192 -0.0277359 0)
(1.0773 -0.0251486 0)
(1.07397 -0.0232926 0)
(1.07326 -0.0197819 0)
(1.07789 -0.0132182 0)
(1.07913 -0.0094616 0)
(1.07696 -0.00822594 0)
(1.07362 -0.0074614 0)
(1.0691 -0.00714425 0)
(1.06034 -0.00855234 0)
(1.05256 -0.00926728 0)
(1.04718 -0.00802197 0)
(1.04301 -0.00592068 0)
(1.03992 -0.00421619 0)
(1.04175 0.000780788 0)
(1.04667 0.00801925 0)
(1.04673 0.0112802 0)
(1.04401 0.0127751 0)
(1.04049 0.0134126 0)
(1.0339 0.0132005 0)
(1.02275 0.0105366 0)
(1.01512 0.00915325 0)
(1.01025 0.00969471 0)
(1.00623 0.0108818 0)
(1.00351 0.0125195 0)
(1.00763 0.0193978 0)
(1.01226 0.0274691 0)
(1.01152 0.0307153 0)
(1.00841 0.032364 0)
(1.00446 0.033504 0)
(0.995319 0.0318049 0)
(0.982195 0.0264462 0)
(0.974334 0.0242468 0)
(0.969606 0.0242462 0)
(0.965455 0.0247495 0)
(0.962666 0.0263966 0)
(0.967544 0.0346163 0)
(0.972309 0.0439092 0)
(0.971403 0.0476484 0)
(0.968089 0.049223 0)
(0.96352 0.0501811 0)
(0.953139 0.0479483 0)
(0.937755 0.0401968 0)
(0.928026 0.0359582 0)
(0.922478 0.035311 0)
(0.91797 0.0353391 0)
(0.915327 0.0370932 0)
(0.919692 0.044867 0)
(0.922532 0.0530581 0)
(0.92021 0.056904 0)
(0.91576 0.058227 0)
(0.910456 0.0580577 0)
(0.900556 0.0550564 0)
(0.88425 0.0450583 0)
(0.871593 0.0369184 0)
(0.864011 0.0339342 0)
(0.859263 0.0330209 0)
(0.858589 0.0355202 0)
(0.860517 0.0404028 0)
(0.859614 0.0421672 0)
(0.856918 0.0411848 0)
(0.853596 0.0388108 0)
(0.84871 0.0341863 0)
(0.842638 0.0264783 0)
(0.823283 0.00476852 0)
(0.45069 0.0107291 0)
(-0.430527 0.0104037 0)
(1.16656 -0.093136 0)
(1.15953 -0.0898503 0)
(1.15668 -0.0874396 0)
(1.15534 -0.0840995 0)
(1.15879 -0.0792969 0)
(1.15997 -0.0762033 0)
(1.15805 -0.0745445 0)
(1.15525 -0.0732468 0)
(1.15203 -0.0721247 0)
(1.14826 -0.0711401 0)
(1.14197 -0.0700296 0)
(1.13625 -0.0680078 0)
(1.1325 -0.0656757 0)
(1.12949 -0.0634836 0)
(1.12947 -0.0597855 0)
(1.13317 -0.0551302 0)
(1.13315 -0.0524833 0)
(1.13079 -0.0509465 0)
(1.12774 -0.0497046 0)
(1.12434 -0.048611 0)
(1.11873 -0.0478899 0)
(1.11164 -0.0468243 0)
(1.10701 -0.045047 0)
(1.1034 -0.0431269 0)
(1.10058 -0.0411638 0)
(1.10219 -0.0368562 0)
(1.10599 -0.0321094 0)
(1.10509 -0.0298138 0)
(1.10241 -0.0285048 0)
(1.09912 -0.0275879 0)
(1.09474 -0.0268464 0)
(1.08673 -0.0268507 0)
(1.07968 -0.0258013 0)
(1.07515 -0.0238126 0)
(1.07149 -0.021973 0)
(1.06903 -0.0196174 0)
(1.07244 -0.0146224 0)
(1.07613 -0.00987656 0)
(1.07467 -0.00795343 0)
(1.07164 -0.00699723 0)
(1.06815 -0.00645979 0)
(1.06164 -0.0067286 0)
(1.05238 -0.00780469 0)
(1.04541 -0.00687938 0)
(1.04063 -0.00485826 0)
(1.03693 -0.00309407 0)
(1.03516 -0.000369824 0)
(1.04042 0.00626967 0)
(1.04368 0.0115656 0)
(1.04201 0.0131627 0)
(1.0388 0.0138077 0)
(1.03488 0.0141183 0)
(1.02567 0.0121755 0)
(1.01534 0.00939129 0)
(1.00858 0.0094949 0)
(1.00355 0.0114046 0)
(0.99973 0.0130685 0)
(0.998608 0.0163118 0)
(1.00506 0.0251586 0)
(1.00801 0.0315505 0)
(1.00646 0.0336321 0)
(1.00316 0.0342119 0)
(0.998567 0.0342128 0)
(0.987033 0.0294992 0)
(0.975135 0.0237859 0)
(0.968005 0.0227145 0)
(0.962828 0.0240805 0)
(0.958828 0.0251849 0)
(0.957959 0.028448 0)
(0.964638 0.0388392 0)
(0.967414 0.0467365 0)
(0.965267 0.0495809 0)
(0.961636 0.050393 0)
(0.956436 0.0504111 0)
(0.944893 0.0457862 0)
(0.930822 0.0372565 0)
(0.922133 0.0336287 0)
(0.9166 0.0336601 0)
(0.91227 0.0342127 0)
(0.910922 0.0372716 0)
(0.915384 0.0461762 0)
(0.916887 0.0529895 0)
(0.914197 0.055538 0)
(0.909719 0.0564409 0)
(0.90411 0.0562339 0)
(0.89355 0.0523738 0)
(0.877948 0.0414432 0)
(0.866235 0.0333076 0)
(0.85916 0.0301791 0)
(0.855074 0.0294367 0)
(0.855586 0.0323345 0)
(0.857963 0.0370881 0)
(0.857538 0.0382904 0)
(0.855901 0.0364815 0)
(0.853312 0.0332127 0)
(0.85103 0.0287937 0)
(0.835995 0.0151694 0)
(0.449639 0.00994135 0)
(-0.429079 0.0127755 0)
(1.16411 -0.0902494 0)
(1.15654 -0.0869622 0)
(1.15367 -0.0852858 0)