/*--------------------------------*- C++ -*----------------------------------*\
  =========                 |
  \\      /  F ield         | OpenFOAM: The Open Source CFD Toolbox
   \\    /   O peration     | Website:  https://openfoam.org
    \\  /    A nd           | Version:  12
     \\/     M anipulation  |
\*---------------------------------------------------------------------------*/
FoamFile
{
    format      ascii;
    class       surfaceScalarField;
    location    "8.4";
    object      phi;
}
// * * * * * * * * * * * * * * * * * * * * * * * * * * * * * * * * * * * * * //

dimensions      [1 0 -1 0 0 0 0];

internalField   nonuniform List<scalar> 
33852
(
0.000251329
2.24281e-05
-0.000273757
-0.000246121
1.32441e-05
0.000232877
-0.000175148
-7.17645e-05
0.000246927
0.000304053
-0.000163969
-0.000140085
0.000292741
-4.27837e-05
-0.0002495
2.72441e-05
-0.000260681
0.000233437
0.00031516
1.47537e-05
-0.000329876
0.000304277
-9.59564e-05
-0.000208321
0.000286413
-3.50841e-05
0.000200338
1.82213e-06
-0.000202293
0.00028963
-0.000366635
7.70437e-05
0.000360912
-4.57271e-05
-4.39602e-05
0.000263285
-0.000219325
-4.3942e-05
0.000318084
-0.000274141
6.10553e-05
-0.000236831
0.000252057
1.2236e-05
-0.000264293
0.000264853
-1.2796e-05
-0.000278433
3.23121e-05
0.000340809
-5.11621e-05
0.000158593
0.000112308
-0.000270901
-2.43326e-05
0.000303244
-0.000278904
0.000271377
-0.000276165
4.78802e-06
-1.77397e-05
0.000275002
-0.000257279
-0.000223004
1.4634e-05
0.000208446
-0.000153999
-0.000183524
0.00033752
-0.000145553
-6.92137e-05
0.000214738
3.72401e-05
0.000267037
-6.11975e-05
-0.000263088
0.000324322
-0.000209432
1.78062e-06
0.00020765
-0.00020383
-1.90513e-05
0.000142045
0.000137388
-0.000279433
0.000341592
1.93267e-05
0.000142618
0.000128347
-0.000270965
-0.000101136
0.000259729
-0.000250489
-3.78001e-06
0.000254269
0.000330728
-5.96259e-05
-0.000271159
-0.000357242
0.000203545
-0.000227326
0.000209588
0.000231645
3.32081e-05
-5.65602e-06
0.000237301
-8.15475e-06
0.00020849
-0.000232625
0.000259869
0.000316375
-5.73931e-05
-0.000258755
-0.000309093
5.51042e-05
0.000253989
0.000240193
-0.000301366
0.000273589
-0.000306321
3.27321e-05
-0.000180237
-5.49362e-05
0.000235173
0.000272133
-0.000272133
0.000148429
-0.000297473
0.000149045
-0.000210066
0.000216897
-7.35919e-06
-0.000268241
0.000237301
3.09401e-05
-0.000199803
0.000246906
-4.72374e-05
-9.16164e-05
-0.000217477
-0.000114548
-0.000252032
-0.000280169
0.000266113
1.40561e-05
0.000329675
1.18841e-05
-0.000250433
7.01963e-05
0.000117908
0.000145909
-0.000263817
1.34681e-05
-0.000267457
0.000253989
-0.000134569
0.000282997
-0.000152626
-5.09668e-05
0.000203583
-0.000274681
0.000245113
2.95681e-05
0.000237553
-0.000268437
3.08841e-05
-0.000185967
-2.3639e-05
0.000151665
0.000115565
-0.00026723
-0.000189548
-2.82778e-05
0.000217787
0.000263985
2.24281e-05
0.000275941
-2.35201e-06
0.000265329
-0.000250741
-1.45881e-05
0.000227092
-6.45401e-05
-0.000162473
-1.82001e-06
0.000239373
0.000366941
-0.000312969
-5.39323e-05
-2.83712e-05
0.000303818
-0.000275483
-0.000101584
0.000219493
0.000342744
2.42072e-05
-0.000372153
0.000353849
1.82749e-05
-0.000211877
2.2339e-05
0.000308933
-0.000321271
1.22917e-05
-0.00020769
0.000271678
-6.39755e-05
-4.45202e-06
1.70807e-05
-0.000319179
0.000302101
0.000233697
-0.000198802
-3.52845e-05
0.000269463
-0.00033946
7.00636e-05
0.000332965
-6.342e-05
-0.000268941
0.000236573
3.23681e-05
-0.000129388
-0.000132609
0.000261997
-1.86761e-05
-0.000249565
-1.022e-05
-0.000258721
2.30667e-05
0.000210865
-0.00023377
3.16939e-05
-0.000222901
0.000191228
-2.49918e-05
0.000327861
-0.000302859
-0.000279329
0.000273701
5.62802e-06
0.000156129
-0.000296857
0.000140729
-5.96041e-05
-0.000150513
0.000210156
0.000143277
0.0001218
-0.000265077
-0.000250064
0.000225737
-0.00021285
0.000153271
-0.000168813
0.000327181
-0.000158369
0.000185389
7.16523e-05
-0.000257041
0.000255193
2.07481e-05
-0.000192277
0.000148317
5.04339e-05
0.000266134
0.000306954
-0.000289863
9.16722e-05
-0.000237224
0.000135241
0.000117096
-0.000281065
-1.06029e-06
0.000244875
-0.000244136
0.000166489
0.000122836
-0.000289325
0.000143823
8.97191e-05
-3.92002e-06
0.000259113
0.000303507
5.41641e-06
-0.000324061
0.000315058
8.95722e-06
-3.99002e-05
0.000236293
-0.000196393
4.08802e-06
-0.000284257
-2.54668e-05
0.000164825
-0.000140164
-0.000159351
0.000133101
0.000209953
-0.000178341
-0.000269921
0.000264965
4.95602e-06
2.64041e-05
0.000174721
-0.000201125
2.87841e-05
-0.000257265
0.000228481
0.000276137
-0.000262669
0.000115108
0.000212073
0.00021476
-0.000191384
-0.000175813
0.000202217
1.35541e-05
0.000283199
-0.000296637
0.00027037
2.16431e-05
0.000271594
-0.000284013
1.23773e-05
3.86402e-06
0.000267513
-1.81284e-05
0.000289663
0.000330851
9.95882e-06
0.000213749
-0.000257612
0.000316395
-0.000316394
-6.63603e-06
-0.000272693
2.82112e-05
0.000198941
0.000187993
3.98722e-05
-0.000227865
-5.4709e-05
0.00021813
-0.000163386
0.000153609
-0.000270285
0.000116676
0.000279441
-0.000329701
5.02602e-05
-6.38122e-05
0.000249201
-0.000166909
0.000315897
-0.000148989
-0.000314082
-1.00388e-05
-0.000214929
0.000175029
2.78601e-05
-0.000278349
0.000276221
-1.88441e-05
-0.000248613
1.71813e-05
-0.000302622
0.000285413
0.000344989
-0.000158593
-0.000186397
-1.68703e-05
-0.000240904
0.000257884
-0.000266617
-3.30401e-06
0.000224001
2.45841e-05
-0.000248585
0.000284509
-0.000128381
0.000140197
0.000138853
-0.000279049
-0.000199542
-1.08635e-05
0.000258169
-0.000115551
0.000225759
-0.00024254
-6.38122e-05
0.000251805
-0.000207718
0.000249481
-5.60002e-07
-0.000248921
0.000255109
-0.000237441
-0.00032464
0.000299661
-3.08841e-05
0.000203169
-0.000172285
0.000291894
1.28321e-06
-0.000293125
7.67397e-05
0.000131829
-0.000208561
4.6049e-05
-0.00019866
-0.000289277
-4.61236e-06
0.000293955
-1.55597e-06
-0.000287661
0.000146973
-0.000273925
0.000126952
-0.00026223
0.000220266
-0.000294285
0.000265889
0.000279441
-0.000312693
-1.24322e-05
0.000325068
0.000110596
0.000161145
-2.13551e-05
0.000352057
0.000140141
0.000139833
-0.000279973
0.000245029
-0.000250349
5.32002e-06
-0.000210953
0.000180069
0.000279133
-5.43202e-06
0.000350695
-3.26243e-05
-0.000300303
0.000302843
-2.16473e-06
0.000270985
-0.000270985
-0.000364781
0.000225935
0.000138801
-0.000205714
1.96226e-05
1.69161e-05
0.000275157
-0.000278461
3.30401e-06
-5.11357e-06
0.000171198
-0.00016599
-0.000197345
0.000254801
-5.74562e-05
-0.000204377
4.58329e-06
-0.000240035
0.000159031
8.09951e-05
-0.000180264
0.000261402
-8.11379e-05
0.000256285
-0.000287113
3.08281e-05
-0.000249229
5.18842e-05
-2.35031e-05
0.000275975
-0.0002526
-0.000253547
1.35801e-06
0.000252189
0.000231281
-7.28003e-06
-0.000294239
7.55283e-06
0.000286693
-0.000266085
0.000266085
-0.000284329
-5.50778e-05
-0.000170704
-0.000194094
-0.000171594
0.000216411
-4.5164e-05
-1.232e-05
-0.000239177
0.000251497
3.10801e-06
0.000210113
-0.000213221
-0.000185559
-2.26848e-05
0.000208262
7.58693e-06
0.0002945
-0.000302081
-0.000236153
-1.34401e-05
0.000249593
1.50361e-05
-0.000251189
-0.000241025
0.000256061
-0.000301363
0.000308965
0.000256117
7.16803e-06
-0.000170509
-3.19896e-05
0.000202576
-0.000145237
-0.000134765
-0.000244329
0.000240549
0.000298636
-4.46049e-07
-0.000298213
-0.000298812
5.95911e-07
0.000298205
1.92182e-05
0.000181217
0.000163773
7.70043e-05
-0.000257269
-0.000159242
0.000310908
0.000250721
-0.000108677
-0.000235145
-1.83681e-05
0.000253513
-0.000204655
-0.000126866
0.000331529
-6.10402e-06
-0.000229125
0.000235229
-2.19612e-05
-0.000183835
-0.000286522
-8.56284e-05
6.31975e-06
-0.000300544
-0.000212635
0.000328039
-0.000115275
0.000281597
0.000288205
-5.16322e-05
0.000271993
-1.57081e-05
-0.000187028
-1.40864e-05
0.000200957
0.000297393
4.47276e-07
-0.000297777
-0.000269127
-3.27093e-05
-0.000218821
0.000247605
-2.52368e-05
0.000310591
-0.000285364
0.000179725
7.84153e-06
-0.000187577
-3.40511e-05
0.000213796
-0.00030127
0.000276034
0.000292138
5.77539e-06
-0.000297833
0.000157445
0.00011886
-0.000276305
0.000289614
4.92867e-06
-0.000294392
-0.000246236
0.000118119
0.000128296
-0.000281773
0.000295471
0.000302513
-0.000156857
-0.000145657
0.000207005
-0.000203897
-0.000232009
-0.000121156
-0.000155009
-4.07761e-06
-0.000294031
0.000298112
-1.0136e-05
0.000276249
0.000289098
-2.00568e-05
-0.00027016
-0.000262926
2.89987e-05
0.000233974
0.000271433
-0.000267569
0.000249621
2.95121e-05
0.000314882
-9.76354e-06
-0.000305124
4.95533e-05
0.000156131
-0.000205683
-9.98605e-05
0.000196329
-9.6617e-05
0.000252617
-2.91201e-05
-0.000223497
6.08713e-07
0.000291742
-0.000178289
-3.16075e-05
0.000209897
-1.79116e-06
0.000291416
-9.33244e-05
0.000246933
-0.000255417
-5.26402e-06
0.000121184
0.000181329
1.34121e-05
0.000241557
-0.000254969
0.000236097
1.34961e-05
-0.000249593
0.000249509
-0.000242929
0.000256425
6.33005e-05
-0.00020168
0.000138353
-0.000215663
0.000115472
-0.000204566
0.000297297
1.39682e-06
-0.000298689
0.000253849
2.22881e-05
0.000268493
-0.000216441
-5.20522e-05
0.000225518
-0.000246849
2.13305e-05
0.000257909
1.40841e-05
5.88553e-05
0.000295034
0.000267186
-3.89594e-05
-0.000228226
0.000174009
1.274e-05
0.000240297
-0.000253037
0.000194327
-0.000114367
-7.99907e-05
-0.000207071
2.1531e-05
-1.27506e-06
-0.000297812
0.000299121
0.000219935
-0.000167422
-5.25563e-05
0.000344564
-4.13129e-05
0.000275969
-0.000135829
2.31561e-05
0.000238337
-0.000261493
-0.000231141
0.000254297
-2.66895e-05
-0.000229723
0.000256414
0.000156666
-0.000161755
-7.74345e-05
-0.000168761
-0.000261723
4.14346e-05
0.000220288
-3.17521e-05
-0.00022997
7.12986e-06
0.000261717
-3.25193e-05
-0.000229198
1.67544e-05
0.000125837
-0.000195091
0.000308785
-0.000171397
0.000262319
-3.57923e-05
-0.000226526
-0.000319172
0.000177788
-0.000101238
-0.000228453
-6.90203e-05
-9.76737e-07
-0.000298121
0.000298861
-2.76879e-05
0.00018165
-0.000153929
0.000308015
6.86545e-06
0.000250097
-0.000248249
-1.84801e-06
-0.000176387
6.19594e-05
0.000260259
-3.0725e-05
-0.000229533
0.000197345
-0.000250769
5.34242e-05
0.000254206
-0.000231206
-2.29991e-05
-0.000252337
0.000240017
0.000144846
0.000101669
-0.000101864
-0.000170269
0.000132496
-0.000261885
-0.000290249
0.0002422
4.80482e-05
0.000216808
3.12475e-05
-0.000248056
-0.000238414
-9.60019e-06
0.000247768
0.000326957
-2.30723e-05
0.000263996
-3.42721e-05
-0.000229724
0.000141843
-0.000230952
8.95434e-05
3.63259e-05
-0.000265637
0.000229311
-0.000253905
0.000121296
0.000249817
-5.24722e-05
0.000294673
-0.000154253
-0.000140421
0.000122248
-0.000289157
1.53441e-05
0.000237665
-0.000253009
-0.000262031
3.54705e-05
0.00022656
-2.76812e-06
-3.77917e-05
-0.000224239
0.000248704
-0.000272257
-0.000264649
3.44737e-05
0.000230175
0.000193257
0.000101416
-0.000149941
0.000290137
-0.00017088
-3.81222e-05
0.000209128
-1.81721e-05
0.000263201
-0.000293099
0.000310253
0.000116605
0.0001033
0.000261325
-0.000261325
0.000308818
-2.04914e-05
-0.00028985
5.32002e-07
0.000248949
0.000254857
1.65761e-05
0.000309436
-0.000276134
-3.32176e-05
-2.26336e-05
0.000266577
-0.000243943
3.00077e-05
-0.000260519
0.000230511
-0.000252139
0.000229506
0.000327872
3.11501e-05
-0.000260598
0.000229447
0.000276809
-3.16961e-05
-7.28393e-06
-0.000293313
0.000300299
0.000270644
3.88979e-05
0.000230245
-0.000266617
3.63721e-05
0.000200409
-0.000202159
-0.000258301
0.000238533
1.97681e-05
0.000169762
-0.000257245
8.74835e-05
-0.000205206
0.000163241
-0.000249145
8.59043e-05
-0.000266169
0.000224813
4.13562e-05
0.000253073
-2.78797e-05
-0.000225194
0.000175101
4.30369e-05
-0.000234837
-2.29601e-05
0.000257797
-0.000236377
-2.28761e-05
0.000259253
-1.94265e-05
0.000255969
-0.000236542
-0.000259345
0.000239919
-3.28838e-05
0.000174999
-0.000235929
-2.24001e-05
0.000258329
-0.00025484
0.000229192
2.56481e-05
2.94001e-06
0.000211289
-0.000214229
-0.000267031
3.79849e-05
0.000229046
0.000270677
4.48002e-06
4.16618e-05
0.000162232
-0.000204014
-3.31195e-05
0.000249928
-2.10035e-05
0.000218597
9.73004e-05
0.0002482
-0.000216953
0.000277694
-0.000279192
0.000277483
-0.000282042
-1.84997e-05
0.000258601
-0.000240101
-0.000261644
0.000243145
3.02776e-05
-0.000202001
-2.97025e-05
-0.000206155
0.000235518
0.000314977
-0.000287541
-2.74273e-05
0.000261297
-3.11081e-05
-0.000230189
3.28739e-05
-0.000262362
0.000229488
-0.000229853
0.000259645
-2.97921e-05
0.000325702
-1.76909e-05
0.000147101
-0.000211584
0.000256929
-0.000109956
-0.000286326
0.000287665
0.000241977
-6.41202e-06
-0.000235565
0.000228537
-0.000180899
-3.74412e-05
0.000218099
2.83542e-05
-0.000209586
-0.000239989
0.000260317
-2.03281e-05
-0.0001034
0.000189597
-8.60948e-05
3.07464e-05
-0.000201459
0.000240169
-0.000263424
2.32552e-05
-0.000115584
0.000258861
-0.000243993
0.000265721
-2.17281e-05
-0.000238953
0.000232541
0.000258626
-0.000245105
-1.35213e-05
0.000264349
-2.46681e-05
-0.000246317
-0.000273481
-1.05421e-05
0.000298636
-5.35366e-05
-8.85396e-06
0.000292011
-0.000283511
-0.000165726
0.000207362
0.000229796
1.78993e-05
-0.000246784
0.000328877
-0.000328911
0.000260955
-0.000245018
-1.59377e-05
-0.000301939
-6.73242e-07
0.000305281
9.70487e-06
3.77047e-05
0.00017041
-0.00020812
0.000213142
-3.49998e-05
-0.000178301
0.000278054
-0.000255789
-2.22648e-05
-0.000209513
3.12495e-05
3.15421e-05
-0.000261891
0.000230348
0.000284961
-0.000292154
2.44721e-05
-0.000259617
-0.000257965
1.87881e-05
0.000266057
-1.64361e-05
0.000151173
-0.000267625
0.000116452
0.000298939
-4.43919e-06
0.000238617
-7.53763e-05
2.12521e-05
0.000177045
-0.000198297
-0.000183877
0.000205129
-0.000236275
0.000257219
-2.09441e-05
0.000261462
-3.31689e-05
-0.000228293
-0.000197009
-5.21362e-05
0.000251581
-1.48401e-06
8.80528e-06
-0.000264138
0.000255799
-0.000342656
0.000236232
0.000106432
0.000266371
-0.000236811
-2.95597e-05
0.00030685
-0.00031467
7.81009e-06
-2.57041e-05
-0.000229097
0.000254801
0.000261493
-7.64403e-06
1.01279e-05
-0.000209242
0.000262411
-3.19033e-05
-0.000230508
-6.90483e-05
-0.000260653
-0.000194685
0.000248025
-5.33402e-05
-0.000266533
0.000249985
1.65481e-05
-0.000318032
1.66852e-05
-1.72885e-05
0.000296798
-0.000279243
-0.000276221
1.65481e-05
0.000249537
-0.000167681
6.43699e-05
0.000273764
1.47823e-05
-0.000288537
-0.00031609
0.000307868
8.20939e-06
3.46641e-05
-0.000263649
0.000228985
-1.74708e-05
0.000281313
-0.000315214
1.6387e-05
-0.000176541
-7.42283e-05
-0.000233789
0.00020403
-2.16721e-05
-0.000216469
0.000238141
-0.00031468
0.000295807
1.88797e-05
-0.000133165
0.000274481
-0.000142038
-8.39559e-06
3.31521e-05
-0.000263453
0.000230301
-0.000202255
2.4737e-05
0.000177585
0.000221515
0.000280455
-0.000280751
2.89752e-07
-0.000236993
-2.20921e-05
0.000224813
-0.000202721
0.000139273
0.000143753
-0.000278517
0.000200751
-5.69448e-05
0.000308112
-1.06177e-05
0.000209148
-0.000268881
2.92853e-05
0.00022306
-0.000252345
-0.000322067
0.000138296
0.000296467
2.92336e-05
1.94265e-05
-0.000224355
-2.77845e-05
-0.000136048
-0.000133116
-0.000326384
0.000113761
0.000242873
2.56201e-05
0.000218765
-0.000224869
1.09956e-05
-0.000287875
0.000277049
-0.000243218
0.000270578
-2.72434e-05
0.000281436
-0.000281881
0.000288045
-7.71892e-05
-8.86927e-06
0.000290309
-1.87881e-05
0.000247101
-0.000228313
0.000281469
-0.000290317
-5.58636e-06
-0.000283895
0.000289528
0.000282078
-0.000269782
0.000284567
0.000226314
2.67597e-05
-0.000310996
0.000317329
-7.73158e-06
0.000251415
-2.11999e-05
0.000226412
2.45244e-05
-0.000268913
0.000246057
-2.05381e-05
-0.000259401
3.02849e-05
0.000229116
0.000178305
7.64963e-05
9.98033e-06
0.000280748
-0.000290179
-0.000238141
-2.88401e-05
0.000266981
2.51441e-05
-0.000263285
0.000284117
-0.000162317
-0.000232177
0.000261129
-2.89521e-05
-0.000234697
0.000260709
-2.60121e-05
1.37535e-06
0.000279084
2.45001e-05
-0.000259197
2.38001e-05
-0.000255977
0.000274303
-0.000242937
-3.13578e-05
0.000317852
-9.9846e-06
-0.00030612
-2.85033e-06
-0.000255753
1.1816e-05
0.000243937
-1.72361e-05
-0.000261185
0.000228066
-0.000245337
0.000270145
-2.48081e-05
-0.000263229
1.49801e-05
-2.3593e-05
0.000286222
-0.000262624
2.13641e-05
-0.000266701
-0.000241592
-2.13449e-05
3.26675e-05
-9.0432e-05
0.000260194
0.000280732
-0.000286323
5.05122e-05
0.000237693
0.000282177
-0.000281802
-0.000243181
-2.39401e-05
0.000267121
-0.000260894
7.34723e-06
-0.000295504
1.94691e-05
0.000276161
-0.000268717
2.55361e-05
-8.42826e-06
0.000290502
-0.000268326
0.000243549
2.47773e-05
-0.000232513
0.000210841
0.000280216
-0.000288679
-6.16002e-07
0.000260289
-0.000259673
-0.000301912
-1.61099e-05
-0.000264573
2.35481e-05
-0.00024417
-2.41555e-05
-3.43281e-05
-0.000297974
0.000293903
0.000286674
-0.000158327
0.000295789
-0.000290281
2.30152e-05
4.91039e-06
0.000262268
-0.00025512
-7.15728e-06
0.000307548
-2.02275e-05
-0.000287328
5.95259e-05
-0.000246765
-2.19521e-05
-0.000356341
0.000241816
0.000283498
-0.000278504
2.33801e-05
-0.000187861
-1.5886e-05
-0.000306497
2.56247e-05
0.000280903
-0.000197275
0.000311019
-0.000113774
0.000259841
-0.000238533
-2.13081e-05
-0.000291646
2.94001e-05
0.000222097
-0.000251497
-0.000163322
0.000137908
-0.000165565
0.000251441
-0.000238029
-1.34121e-05
-0.000263873
3.40201e-05
-2.23161e-05
-0.000269837
0.000251469
0.000230427
3.12901e-05
-4.6379e-05
0.000202505
0.000232619
-0.000260499
-1.73916e-05
-3.06208e-06
0.00024638
-0.000244
-0.000293359
-0.000237049
0.000265189
-2.81401e-05
0.000230096
3.22225e-05
-0.000268521
2.55921e-05
-0.000239905
-2.86161e-05
0.000228954
-0.000260706
-0.00028244
4.73202e-05
-0.000242005
0.000294037
-0.000283736
-0.000288424
1.32166e-05
0.000275375
-4.62422e-06
0.000217684
0.000228551
-0.00026107
0.000296885
-0.0001309
-0.000165985
0.000241432
-0.000261677
0.000270267
-0.000226213
-1.76681e-05
-0.00016524
0.000308145
-0.000142434
2.49649e-05
0.000222662
-0.000247627
-0.000193186
0.000193067
-0.000283692
0.000282381
6.98293e-06
-0.000290738
-0.000302485
0.000146693
0.000155793
0.000259995
-0.000239359
-2.06361e-05
-0.000215741
0.000193649
0.000261902
3.65227e-07
0.000257293
0.000232526
2.16797e-05
-0.000295505
-6.1551e-05
1.037e-05
0.000233141
-0.000250398
1.74784e-05
-0.000230917
-2.37161e-05
0.000254633
-0.000242295
0.000263191
-2.08965e-05
8.26361e-05
0.000134004
2.0263e-05
-0.000305905
0.000285539
0.000256565
-1.80041e-05
-0.000238561
0.000243881
-0.000254017
1.0136e-05
-0.000226745
0.000207957
0.000223131
-0.000258923
-0.000244693
4.76842e-05
1.59381e-05
-0.000137702
-0.000218633
1.57921e-05
0.000245701
0.00028081
0.000293806
0.000305832
1.71094e-06
0.000249817
-0.000220417
2.51749e-05
0.000225009
-0.000250184
-0.000243178
0.000268865
-2.56873e-05
2.28201e-05
-0.000262725
-0.000114248
0.000296139
9.14792e-06
2.08181e-05
0.000261675
-0.000235103
-2.65721e-05
1.31903e-05
-0.000303807
0.000290509
0.00032165
-3.0942e-05
-0.0002907
0.000249733
1.63241e-05
0.000306142
-0.000292969
-0.000230356
-0.000112306
9.63204e-06
0.000250657
-4.9129e-05
-0.00020239
0.000251519
2.20333e-05
0.000246832
-0.000241686
-2.29629e-05
0.000260737
-2.24001e-05
0.000287703
-0.000268023
2.63369e-05
2.68241e-05
-0.000257965
0.000210617
-0.000207677
2.58161e-05
-0.000262865
0.000280278
0.000121744
-0.000256173
0.000134429
1.93452e-05
3.84069e-05
0.000162099
-0.000200407
-0.000239485
-2.85377e-05
3.98152e-05
0.000161864
-0.000201727
-0.000246691
0.000271066
-2.43747e-05
0.000209866
-0.000248826
1.98857e-05
1.7326e-05
-0.00017375
-3.03731e-05
0.000226688
-0.000257414
-2.88401e-05
0.000244245
-0.000215405
-2.16161e-05
0.000242985
-0.000221369
0.000201657
-0.000250786
-0.000273603
-0.000232905
-2.55081e-05
0.000258413
0.000241234
2.98318e-05
-0.000211631
-2.36645e-05
0.000234485
-2.18821e-05
-0.000224967
-0.000239345
6.28042e-05
0.000259004
-0.000229718
4.75106e-05
-0.000249901
-3.43393e-05
0.000257694
-0.000223354
0.000205675
-0.000240014
0.000261689
-1.1956e-05
-6.06763e-05
-0.000229572
-0.000224957
-1.70941e-05
0.000242974
0.000247109
5.3175e-05
0.000212448
-0.000265623
-0.000261095
0.000177353
-0.000231757
5.44042e-05
6.42556e-05
0.000136624
0.000259457
-0.000240915
-2.47224e-05
-0.000265385
0.000227165
3.82201e-05
-2.87813e-05
-0.000222158
0.00025094
-0.000284221
0.000264161
0.000234501
3.61761e-05
2.18821e-05
0.000234087
-0.000307217
0.000151089
0.000156129
0.000169004
-5.24202e-05
0.000254045
-0.000115192
2.56901e-05
0.000217446
-0.000243136
-0.000286246
0.000286898
9.23596e-06
0.000257377
-0.000245953
0.000208937
3.70161e-05
0.000254832
0.000245628
-1.95286e-05
-0.000246815
-2.02161e-05
-0.000263019
2.0724e-05
-0.000269215
2.24001e-05
2.79601e-05
0.000220024
-0.000247984
0.000242481
-0.000274597
1.32721e-05
0.000247113
-1.37382e-05
1.2622e-05
-0.000251285
-0.000328771
0.000124111
-0.000233135
-2.62109e-05
-0.000252113
0.000252113
0.000259782
-0.000144217
-1.85548e-05
-0.000278526
0.000296973
0.000275552
0.000258749
-0.000135913
0.000224113
2.39205e-05
0.00023468
7.82435e-05
-0.000341297
3.78215e-05
0.000258962
1.76363e-05
-0.000248843
-3.00917e-05
0.000207453
-3.01001e-05
0.000259701
2.95429e-05
0.000218353
-0.000247896
-3.05014e-05
-4.09782e-05
-0.000217818
0.000258797
-0.000233423
-2.14173e-05
3.7362e-05
-0.00019826
0.00016094
-3.30877e-05
0.000221671
-0.000255943
-0.000281935
-8.36019e-06
0.000290306
-0.000194885
0.000163007
0.000166349
8.16763e-05
1.28407e-05
-0.00029467
0.000235075
2.59446e-05
-0.000261019
-0.000198285
-1.23392e-06
0.000232743
-0.000264287
3.15449e-05
-8.42803e-06
-0.000217029
0.000225457
-0.000162249
0.000199585
-0.000249985
-3.46025e-05
0.000256274
0.000218076
-0.000252679
-0.000246289
0.000272245
-2.59561e-05
0.000253547
2.78321e-05
-0.000232062
-2.95821e-05
-0.000298286
0.00031648
-1.82007e-05
2.33808e-05
0.000212462
-0.000250254
-0.000267233
2.09441e-05
-2.12801e-05
-0.000245953
-3.61481e-05
0.00024861
-0.000290107
-1.36788e-05
0.00022082
-0.000256968
0.000247984
-0.000251033
1.84102e-06
2.80002e-06
0.000181413
-0.000184213
0.000255294
0.000234529
2.67681e-05
-2.62361e-05
0.000245001
-0.000218765
3.36001e-05
0.000216609
-0.000250209
0.000244861
2.73841e-05
0.000306545
-0.000143949
-0.000162597
1.54946e-05
0.000240093
-0.000255314
0.000271013
-0.000113568
0.000225569
-0.000256677
-0.000241262
0.00010508
-0.000265469
7.16803e-06
-0.000241635
-2.75801e-05
-0.000241361
-2.48081e-05
0.000310535
-2.76652e-05
-7.67483e-05
0.000243097
-1.1452e-05
-0.000215601
0.000224281
-8.68003e-06
0.000255193
-7.68883e-05
3.43791e-05
-0.000196596
0.000162266
-0.000265245
-1.40001e-07
-4.14962e-05
3.95278e-05
0.000158691
-0.00019812
0.000197636
-0.000163247
0.000257041
-7.05603e-06
0.000251151
-0.000218277
-1.82159e-05
-2.1128e-05
0.000270904
-9.41728e-05
-0.000178344
-1.42801e-05
-0.000191913
0.000206193
0.000258665
-1.53553e-05
-0.00024331
1.98101e-05
0.000238855
-0.000279946
-7.96691e-06
3.71662e-05
-0.000195582
0.000157978
1.36921e-05
0.000247997
-0.000160784
0.000198064
-1.95189e-05
0.000248711
3.29083e-05
0.000187426
-0.000220819
-4.17202e-06
-2.49389e-05
0.000265108
-0.000231955
-3.14693e-05
0.000296934
-0.000281716
-1.52776e-05
1.63717e-05
-0.000237659
0.000221288
-0.00010514
0.000226885
1.92996e-05
-0.000305224
0.000285927
2.52001e-05
-2.79441e-05
2.69165e-05
0.000308946
-0.000289645
0.000238891
1.97345e-05
2.15601e-06
0.000231617
-0.000233773
-0.000310318
2.56337e-05
0.000284692
-0.000162177
-0.000144145
0.000209178
-0.000250156
-0.00016455
0.000241924
1.90317e-05
0.000256996
-4.13534e-05
0.000250531
0.000214498
-0.000255851
0.000318777
-0.000318955
-1.07877e-05
0.0002869
-0.000276384
-0.000302828
1.96327e-05
0.000283043
4.20842e-05
-0.000286413
-3.90845e-05
0.000252483
2.62921e-05
-2.21756e-05
0.000307414
-0.000285243
2.43321e-05
3.95223e-05
0.000160958
-0.00020052
0.000249294
-0.000219751
2.83277e-05
-0.000261633
4.36802e-06
-1.9977e-05
0.000306606
-0.000286639
-0.000250987
-0.000266673
3.07441e-05
0.000252141
-0.000236741
-1.54001e-05
1.2264e-05
0.000239877
-0.000275249
-1.29681e-05
0.000255697
-6.89622e-06
0.000315449
-1.19807e-05
0.000298602
-0.000286468
-4.77695e-05
0.000247437
-0.000235621
0.000257601
-1.99361e-05
0.000131863
8.59817e-05
-0.000217872
0.000223559
3.03493e-05
0.000226759
-0.000258662
3.71393e-05
0.000271622
-0.000288757
1.69395e-05
0.000251273
-0.000239093
-1.31321e-05
0.000252225
-2.91201e-05
-0.000257265
2.56481e-05
0.000231617
-0.000228005
-2.92601e-05
0.000259765
-0.000233571
-2.61941e-05
0.000258721
-0.000267012
2.50171e-06
0.000289641
1.24402e-06
-0.000290895
0.000248558
-0.000233391
-1.85921e-05
0.000308804
-0.000300779
-8.01912e-06
0.000248272
-0.000101151
-0.000266897
2.56761e-05
0.000241221
-3.48881e-05
-0.000232009
-0.000266393
2.51161e-05
0.000241277
-1.22518e-05
-0.000267606
0.000280051
-3.45241e-05
-0.000231869
-0.000261784
1.87892e-05
-0.000266281
2.43881e-05
0.000241893
-0.000284217
-2.16724e-05
-0.000306272
2.76488e-05
0.000278635
-3.34041e-05
-0.000232877
-0.000170065
-0.000258133
2.94001e-05
0.000228733
0.000308933
-0.000309016
-0.000195805
0.000209049
-3.29281e-05
-0.000225205
0.000197458
-0.000279094
8.16248e-05
0.000283845
2.23395e-05
-0.000301953
1.76961e-05
0.000286072
-0.000281052
-4.85515e-06
-0.000257125
0.000231617
2.55081e-05
0.000170012
2.8262e-05
-0.000198304
-0.000266953
2.81681e-05
0.000238785
-0.000227361
-2.97641e-05
-3.67361e-05
-0.000230217
0.000275713
0.000297362
1.90942e-05
-0.00027616
-3.17457e-05
0.000307967
-0.000258679
-1.09643e-05
0.000297725
-0.000287292
1.50098e-05
-0.00030194
0.000286927
-0.000230609
-0.000307395
0.000287406
0.000263005
-2.55513e-05
-0.000280725
1.36081e-05
0.000165983
0.000230335
1.86241e-05
-0.000249459
-0.000199368
0.000161119
0.000236738
1.31517e-05
-0.00024989
-0.00025833
2.66093e-05
0.000231721
-1.09228e-05
0.000247661
5.74002e-06
0.000246877
-3.19817e-05
-0.000226348
0.000299506
-0.000285648
-1.3868e-05
0.000228024
-0.000226666
0.000289735
0.000237685
1.98521e-05
-0.000257537
-1.24236e-05
0.000250108
0.000246636
1.50389e-05
-0.000305444
1.53782e-05
0.00024448
2.18905e-05
3.22705e-05
-0.000199732
-0.000287498
-1.77284e-05
-0.000182869
0.000295177
-0.000150908
0.000184248
-3.32669e-05
3.10472e-05
-0.000200574
0.000169362
-0.000164918
0.000259149
-0.000239236
-1.99137e-05
0.000261611
-0.000273911
-0.000241063
0.000231494
-2.18925e-05
0.000301226
-0.000279347
0.000307996
-0.00029299
0.000242117
1.77241e-05
-0.000224975
0.00024443
-1.94545e-05
1.61001e-05
-0.000241075
-7.00003e-06
0.000260989
-0.000297149
4.8797e-06
0.000292261
-0.000174497
0.000160217
-1.74105e-05
-6.2822e-06
-0.000290876
-1.68153e-05
-0.000285126
4.28402e-06
-0.000300682
0.000135383
-0.000257469
2.37276e-05
0.000233738
0.000238197
1.32441e-05
-3.0814e-05
-0.00022666
-3.30592e-05
-0.000291573
2.05626e-05
-0.000225076
0.000204145
0.000254969
-0.000233465
-2.15041e-05
-0.000197324
0.000218309
-0.000185886
-7.46158e-06
0.000203153
0.000134282
0.000137219
3.98532e-06
0.000271053
0.000279902
-0.00030547
3.03404e-06
0.00024321
-1.98457e-05
0.000298708
-0.000278859
-0.000302304
0.000287506
1.47969e-05
-0.000258301
0.000230077
2.82241e-05
-2.64041e-05
-0.000231897
0.000301622
-0.000301629
0.000267584
-1.99825e-05
0.000304532
-0.000284511
0.000286484
-5.36534e-07
-0.000256873
0.000256873
-0.000268211
0.000295858
-0.000145122
-6.66483e-05
-7.19605e-06
0.000294897
-0.000287565
-0.0002979
0.000290681
0.000291748
-0.000278861
0.000290721
-0.000305704
1.47346e-05
3.43188e-05
-0.000240895
0.000217285
2.28463e-05
-1.44993e-05
-0.000246426
0.00022987
-1.43458e-05
0.000298398
-0.000284028
0.000263481
-1.96001e-05
0.000254224
-0.000235464
-1.87601e-05
-3.10187e-05
-0.00027378
0.000304803
1.43827e-05
-0.000297263
0.00028286
-1.45881e-05
0.000233465
-0.000218877
0.000208891
-0.00029521
0.00028324
-1.92528e-05
0.000304719
-0.000285463
0.00025102
-2.6881e-05
0.00029731
-0.000270418
-0.000295727
0.000268847
1.07156e-05
0.000244749
-0.000255465
0.000305262
-0.00031208
6.81576e-06
1.8114e-05
1.49376e-05
0.000286323
-0.000301352
6.32328e-06
0.000283282
2.3324e-06
-0.000318732
-0.000289894
0.000304566
-0.000242481
0.000243657
8.45603e-06
-0.0002264
0.000242772
-0.000293443
0.000274203
0.000284491
-0.000148532
-8.19993e-05
0.00029444
1.45101e-05
3.15706e-05
-0.000197935
0.000166409
-0.000274547
0.000257293
-0.000219535
0.00024982
0.000243411
1.92865e-05
-0.000262697
0.000236019
2.31309e-05
-0.000301045
0.000282573
0.0003124
-1.79587e-05
0.000237945
-0.000257069
1.91241e-05
-0.000222494
0.000247459
0.000294334
1.80591e-05
-0.000167874
-1.4523e-05
0.000298438
-0.000283966
-0.000142647
-0.000266415
0.000159993
0.000106423
-0.000309051
0.00029539
1.36615e-05
-0.000258699
0.000241826
1.68729e-05
-0.00015352
0.000155264
-0.000306334
0.000288537
1.78071e-05
-0.000216831
0.000179298
-9.69084e-06
0.000253101
2.04974e-05
1.75256e-05
-0.00030424
0.000286726
-0.000300566
-7.22475e-06
0.000307709
-0.000249229
0.000220109
-0.000201153
-8.52603e-05
-0.000272232
0.000251673
0.000303856
-0.000286311
-0.000191617
1.8021e-05
1.50691e-05
0.00028445
-0.000299524
-8.80603e-05
0.000239233
-0.000303494
1.94266e-05
0.000284045
-0.000208235
-2.89232e-06
-0.000297837
-0.000167333
2.05297e-05
0.000302877
-0.000288282
-1.44667e-05
-0.000171672
-0.000299231
-0.000175252
-2.27844e-05
0.000243528
0.000289467
1.71358e-05
0.000252869
5.75536e-05
-0.000284932
-0.000247213
-0.00027104
-2.34102e-05
-0.000274636
0.000300252
-0.000263138
0.000282563
-0.000164214
-4.09116e-05
0.000205181
0.000197569
1.56521e-05
-0.000213221
-1.24777e-05
-0.000285703
0.000298182
1.83597e-05
1.85667e-05
-0.000305359
0.000286788
0.000253345
-1.71361e-05
-0.000236209
1.8946e-05
-0.000304782
0.000285829
2.03561e-05
0.000232989
0.000216385
-2.46121e-05
-0.000191773
1.57699e-05
0.000282423
-0.000298226
-0.000251683
0.000117901
-0.00030382
1.86488e-05
0.000285174
0.000221256
-5.12498e-05
-0.000295954
1.22814e-05
0.000284002
0.000255837
-2.19801e-05
-0.000233857
-0.000303532
0.000105936
0.000234529
1.70521e-05
-0.000251581
0.00028011
1.68663e-05
0.000304162
-0.000285222
1.78371e-05
-0.000299564
0.000233512
1.84916e-05
-0.000252004
-1.90317e-05
-1.42341e-05
0.000298351
-0.000284135
-0.00028031
0.000299925
-0.000278232
0.000291818
-0.000303759
1.19025e-05
0.000249741
-1.62291e-05
1.15008e-05
0.000250041
-1.55121e-05
0.000298561
-0.000282834
3.95922e-05
-0.000237534