/*--------------------------------*- C++ -*----------------------------------*\
  =========                 |
  \\      /  F ield         | OpenFOAM: The Open Source CFD Toolbox
   \\    /   O peration     | Website:  https://openfoam.org
    \\  /    A nd           | Version:  12
     \\/     M anipulation  |
\*---------------------------------------------------------------------------*/
FoamFile
{
    format      ascii;
    class       volScalarField;
    location    "24.6";
    object      T;
}
// * * * * * * * * * * * * * * * * * * * * * * * * * * * * * * * * * * * * * //

dimensions      [0 0 0 1 0 0 0];

internalField   nonuniform List<scalar> 
9801
(
0.811549
0.812717
0.811062
0.806915
0.798124
0.790084
0.789215
0.791237
0.799913
0.818298
0.828745
0.830907
0.830917
0.829817
0.824811
0.81304
0.805754
0.805694
0.807478
0.812532
0.826136
0.839921
0.84402
0.844767
0.844145
0.84082
0.831576
0.825061
0.825445
0.82785
0.832515
0.839004
0.847046
0.853439
0.856453
0.856968
0.856008
0.850838
0.845586
0.846039
0.848412
0.852099
0.855704
0.858715
0.861705
0.866152
0.870188
0.871823
0.872307
0.87195
0.868603
0.867856
0.869418
0.870984
0.872144
0.873395
0.875524
0.88077
0.887103
0.890544
0.892024
0.892795
0.892214
0.88892
0.887932
0.888513
0.889482
0.891109
0.893985
0.902601
0.910996
0.914802
0.916325
0.917054
0.915915
0.911644
0.908027
0.907973
0.90962
0.912491
0.921138
0.934219
0.941594
0.945077
0.946989
0.94846
0.945045
0.936641
0.93211
0.933784
0.938375
0.951545
0.972503
0.989262
1.00275
1.01143
1.00195
1.0905
1.52722
0.806908
0.812495
0.813283
0.811936
0.809008
0.806501
0.80392
0.802421
0.803143
0.808197
0.821469
0.829093
0.831405
0.832028
0.828705
0.82411
0.819984
0.816719
0.816089
0.817687
0.822511
0.832593
0.841688
0.845217
0.846774
0.846139
0.842192
0.836782
0.833261
0.83282
0.833855
0.836263
0.842564
0.851758
0.856885
0.859285
0.860241
0.860171
0.857216
0.852947
0.851873
0.852889
0.854804
0.857068
0.860325
0.866443
0.872024
0.874798
0.876105
0.877049
0.876862
0.873542
0.87174
0.87232
0.873632
0.875015
0.877447
0.88302
0.889666
0.893409
0.895368
0.896614
0.89757
0.894557
0.891043
0.891002
0.892641
0.894297
0.897328
0.905016
0.912785
0.916853
0.919081
0.920883
0.922048
0.917176
0.912025
0.911996
0.914298
0.917216
0.924097
0.935739
0.94389
0.948577
0.951856
0.954639
0.952655
0.943319
0.938983
0.941479
0.946661
0.955442
0.971473
0.98694
1.00058
1.0095
1.00014
1.09109
1.5495
0.805864
0.810373
0.811909
0.811456
0.81172
0.813211
0.8159
0.819099
0.819395
0.817853
0.819874
0.826116
0.83079
0.83115
0.828933
0.828339
0.829155
0.829849
0.830671
0.832348
0.832932
0.834607
0.839801
0.845465
0.847574
0.847947
0.847959
0.847544
0.846452
0.845136
0.844714
0.845354
0.846368
0.85096
0.857401
0.861289
0.863594
0.865693
0.867433
0.866647
0.863385
0.862336
0.862147
0.862212
0.863112
0.867311
0.87439
0.879174
0.881927
0.883949
0.88577
0.885218
0.881636
0.879896
0.879911
0.880621
0.881964
0.886414
0.894282
0.899746
0.902824
0.90487
0.906838
0.905817
0.901138
0.899176
0.899832
0.901457
0.903924
0.910594
0.919999
0.926073
0.929558
0.932038
0.933947
0.93031
0.92401
0.922729
0.924761
0.927827
0.93274
0.944599
0.956361
0.962813
0.966801
0.970123
0.969686
0.961819
0.95652
0.957755
0.963626
0.971286
0.985441
1.0031
1.01859
1.03072
1.02637
1.11897
1.5811
0.811711
0.805706
0.806845
0.812425
0.818838
0.824144
0.8312
0.835984
0.837291
0.834984
0.828716
0.825469
0.825486
0.829069
0.834417
0.837729
0.840185
0.84343
0.846155
0.847929
0.84756
0.842689
0.841165
0.843201
0.849477
0.855154
0.857867
0.859512
0.860525
0.860176
0.858364
0.855169
0.853281
0.853522
0.857605
0.867238
0.874187
0.877018
0.879158
0.880011
0.878052
0.873935
0.870112
0.869095
0.869655
0.872182
0.880898
0.890133
0.894791
0.897033
0.898964
0.898946
0.89413
0.889442
0.888452
0.889487
0.891356
0.895645
0.905545
0.913716
0.917625
0.919884
0.921894
0.921054
0.914756
0.911145
0.911763
0.913947
0.916865
0.923288
0.934154
0.941655
0.94548
0.948164
0.950426
0.948913
0.942039
0.938833
0.940609
0.944217
0.948692
0.958597
0.972314
0.981046
0.986112
0.990196
0.992411
0.987904
0.98195
0.980096
0.984268
0.991901
1.00188
1.01754
1.03279
1.0456
1.0479
1.1595
1.61711
0.821727
0.8099
0.809449
0.8115
0.819501
0.833005
0.842626
0.847604
0.849368
0.849245
0.841834
0.83284
0.831899
0.832807
0.836304
0.844602
0.850881
0.854271
0.856735
0.856879
0.853859
0.851344
0.851169
0.852486
0.856144
0.862913
0.868357
0.871283
0.872874
0.870819
0.865727
0.862811
0.8628
0.863808
0.868432
0.877436
0.885556
0.889808
0.892281
0.893729
0.889345
0.881859
0.879404
0.880058
0.881492
0.884607
0.893969
0.904049
0.909079
0.911636
0.913174
0.911991
0.905455
0.901085
0.901253
0.903089
0.905459
0.909939
0.919901
0.928611
0.932685
0.934926
0.936469
0.935922
0.930584
0.926673
0.927269
0.929755
0.932736
0.937936
0.948482
0.957376
0.961874
0.964901
0.967618
0.968204
0.962233
0.956473
0.956291
0.960191
0.964772
0.972052
0.985547
0.997602
1.00453
1.00916
1.01298
1.0121
1.00617
1.00182
1.00148
1.00664
1.0146
1.02653
1.04058
1.05187
1.05556
1.1857
1.6434
0.829928
0.820516
0.819884
0.821477
0.825751
0.837231
0.84914
0.853631
0.85424
0.852281
0.849012
0.846117
0.844616
0.845615
0.848346
0.852293
0.857391
0.860824
0.861926
0.86189
0.862273
0.86332
0.865994
0.869034
0.871725
0.874077
0.877153
0.879946
0.879467
0.87579
0.873936
0.874168
0.875511
0.879087
0.886643
0.893038
0.897447
0.900845
0.902886
0.901375
0.895885
0.892759
0.89276
0.894088
0.896087
0.900728
0.910198
0.917835
0.921514
0.923533
0.924214
0.922388
0.918015
0.915452
0.915902
0.917797
0.920215
0.924598
0.933553
0.941101
0.944919
0.947209
0.948889
0.949678
0.946704
0.941872
0.940969
0.943307
0.94628
0.95003
0.958549
0.96882
0.974575
0.977808
0.980567
0.982681
0.980022
0.973084
0.970179
0.97192
0.976006
0.981046
0.991006
1.00436
1.01378
1.02014
1.02523
1.02795
1.02464
1.01882
1.01556
1.01594
1.02006
1.02754
1.03966
1.05083
1.05571
1.20186
1.65889
0.843184
0.837991
0.836948
0.838226
0.839759
0.841129
0.846093
0.854495
0.859718
0.861754
0.863353
0.864636
0.864
0.863108
0.863341
0.862429
0.861108
0.861346
0.864105
0.868457
0.873228
0.878992
0.883591
0.886334
0.887884
0.888948
0.888277
0.883815
0.881159
0.881877
0.883806
0.885818
0.889065
0.896621
0.904047
0.908016
0.909902
0.911008
0.909053
0.904599
0.902562
0.903128
0.904887
0.906947
0.910147
0.916885
0.924351
0.928429
0.93026
0.931032
0.931109
0.930679
0.928388
0.926491
0.927389
0.929721
0.932415
0.936141
0.943001
0.949309
0.95294
0.955254
0.957437
0.959648
0.959803
0.954972
0.952156
0.95297
0.955209
0.957972
0.963052
0.973698
0.982292
0.986867
0.989856
0.992616
0.993344
0.988011
0.982323
0.98038
0.982154
0.986083
0.991917
1.00349
1.01631
1.02515
1.03091
1.03552
1.03654
1.03247
1.02751
1.02429
1.02439
1.0274
1.0353
1.04723
1.05441
1.21154
1.66729
0.856851
0.858962
0.856312
0.852359
0.848561
0.844785
0.844497
0.848619
0.860546
0.871343
0.877445
0.880901
0.882372
0.880628
0.875459
0.868675
0.863157
0.862243
0.863561
0.86844
0.87991
0.891091
0.897344
0.900123
0.901749
0.901236
0.894245
0.885857
0.883931
0.885028
0.887586
0.892471
0.900443
0.909315
0.915263
0.917376
0.917969
0.916228
0.912987
0.910389
0.908978
0.910015
0.912306
0.915781
0.920366
0.925819
0.930424
0.932982
0.934546
0.93563
0.937235
0.938923
0.938389
0.936389
0.936336
0.938259
0.940129
0.941938
0.9457
0.952964
0.958335
0.961603
0.964527
0.966985
0.968883
0.966523
0.961534
0.95932
0.960026
0.962239
0.965485
0.973871
0.985599
0.992937
0.997203
1.00016
1.00248
1.00019
0.992573
0.98772
0.986984
0.989155
0.993011
0.999767
1.01235
1.02411
1.03197
1.03737
1.04151
1.04191
1.03852
1.03334
1.02911
1.02837
1.03082
1.04065
1.05096
1.21912
1.67276
0.866705
0.87199
0.872559
0.867357
0.855536
0.848908
0.848444
0.849531
0.855503
0.87242
0.885327
0.889704
0.891982
0.892867
0.887229
0.874081
0.86777
0.867474
0.868374
0.870755
0.880036
0.896231
0.903987
0.906595
0.907682
0.904962
0.897597
0.892047
0.890375
0.891399
0.893617
0.898202
0.906461
0.91495
0.919304
0.920418
0.919689
0.918661
0.918873
0.918166
0.917905
0.919363
0.921934
0.923819
0.924914
0.926243
0.92957
0.934499
0.938097
0.941123
0.944117
0.946576
0.948427
0.946971
0.944469
0.942886
0.942294
0.942909
0.945155
0.95251
0.961839
0.967672
0.971195
0.973653
0.975676
0.975389
0.969222
0.96408
0.962867
0.964531
0.967348
0.972453
0.984261
0.995784
1.00184
1.0053
1.00783
1.009
1.00378
0.996187
0.992468
0.992236
0.994504
0.99853
1.00637
1.01908
1.03015
1.03743
1.04231
1.0457
1.0453
1.04273
1.0373
1.03147
1.02926
1.03298
1.04413
1.22485
1.67669
0.870902
0.876792
0.877057
0.869988
0.859394
0.855166
0.854821
0.855738
0.859595
0.872622
0.887626
0.893792
0.895838
0.894573
0.886962
0.878916
0.874864
0.874692
0.876701
0.881133
0.887169
0.896365
0.904639
0.907231
0.906799
0.904617
0.903245
0.901015
0.90032
0.901836
0.904775
0.907253
0.908632
0.910966
0.916104
0.919873
0.921771
0.923777
0.92618
0.928341
0.928567
0.92777
0.927437
0.926524
0.924673
0.924627
0.927053
0.93407
0.94192
0.947665
0.951828
0.954524
0.956338
0.95574
0.950259
0.944603
0.942269
0.942979
0.945096
0.950643
0.962753
0.972447
0.97695
0.979456
0.981381
0.982274
0.976891
0.969049
0.966212
0.966779
0.969246
0.972342
0.979578
0.993304
1.00329
1.00795
1.01082
1.01339
1.01392
1.00731
0.999927
0.997012
0.997428
0.999773
1.00394
1.01194
1.0239
1.03375
1.04036
1.04505
1.04815
1.04803
1.046
1.03954
1.03139
1.02906
1.03285
1.22742
1.67927
0.871182
0.875179
0.873438
0.86959
0.866713
0.864803
0.865049
0.867608
0.871772
0.877193
0.884508
0.889975
0.89171
0.891297
0.890588
0.887846
0.88637
0.886962
0.88927
0.891145
0.892527
0.893377
0.8979
0.903585
0.906489
0.908316
0.910457
0.912782
0.912706
0.911903
0.911906
0.910645
0.907358
0.907087
0.910233
0.917931
0.925412
0.931286
0.935104
0.937038
0.93776
0.935471
0.930525
0.925222
0.923317
0.924133
0.92618
0.932367
0.94477
0.954048
0.958262
0.960488
0.96204
0.961956
0.955373
0.946642
0.943951
0.9445
0.946155
0.949613
0.960944
0.974039
0.980308
0.982934
0.984549
0.985181
0.983597
0.976311
0.970897
0.970027
0.971119
0.973742
0.977108
0.985695
0.999343
1.00827
1.01276
1.01558
1.01798
1.01765
1.01151
1.00513
1.0022
1.00213
1.0041
1.00819
1.01646
1.02785
1.0367
1.04266
1.04733
1.05019
1.05025
1.0477
1.03944
1.02995
1.02349
1.22608
1.68099
0.870531
0.869185
0.869139
0.870811
0.872675
0.874059
0.877691
0.880553
0.881691
0.882009
0.882653
0.883493
0.885628
0.889085
0.893119
0.895765
0.89816
0.899721
0.899458
0.896996
0.892807
0.89112
0.892197
0.897375
0.906058
0.913777
0.918903
0.921221
0.922458
0.920749
0.915535
0.908551
0.906097
0.906574
0.908183
0.914157
0.927885
0.937399
0.940881
0.942772
0.943737
0.941999
0.933346
0.925884
0.924783
0.925813
0.927356
0.931999
0.945213
0.956467
0.960896
0.963161
0.963928
0.962247
0.957731
0.951026
0.94741
0.947907
0.950218
0.953547
0.958697
0.970289
0.979513
0.983242
0.984948
0.986056
0.987372
0.985732
0.978912
0.974838
0.974496
0.975458
0.977273
0.980216
0.988709
1.00276
1.01196
1.0165
1.01979
1.02281
1.02296
1.01663
1.00937
1.00572
1.00557
1.0078
1.01203
1.02089
1.03188
1.03969
1.04494
1.04934
1.05149
1.05121
1.047
1.03549
1.02131
1.22086
1.68246
0.869558
0.865712
0.86626
0.868532
0.873477
0.881348
0.88573
0.887705
0.88872
0.887332
0.882541
0.881881
0.884318
0.888876
0.895162
0.901385
0.904393
0.905638
0.903686
0.897103
0.891899
0.891359
0.89257
0.897141
0.908214
0.918879
0.922935
0.925045
0.926373
0.92432
0.914749
0.908472
0.907972
0.908814
0.910432
0.916058
0.929481
0.939368
0.943233
0.945103
0.944977
0.940953
0.934558
0.929412
0.928041
0.929134
0.931969
0.9369
0.944663
0.954716
0.960071
0.961896
0.96162
0.961729
0.961663
0.958501
0.954935
0.954681
0.956282
0.957747
0.958949
0.962476
0.973071
0.981614
0.985485
0.988266
0.990946
0.99323
0.990842
0.983349
0.978883
0.97732
0.977069
0.978867
0.982348
0.992273
1.00726
1.01714
1.02192
1.02484
1.02675
1.02568
1.02008
1.01329
1.0094
1.009
1.01121
1.01583
1.02529
1.03568
1.04235
1.04693
1.05087
1.05194
1.05088
1.04218
1.02651
1.21416
1.68381
0.872185
0.868287
0.868857
0.872802
0.879548
0.884248
0.887267
0.888835
0.887412
0.884548
0.883712
0.884757
0.888386
0.895559
0.902018
0.905255
0.907049
0.906471
0.900246
0.894711
0.893625
0.894329
0.89572
0.902272
0.914668
0.921662
0.925172
0.927106
0.927196
0.921392
0.914423
0.911112
0.911072
0.91226
0.91562
0.92367
0.93277
0.939487
0.942702
0.943127
0.941407
0.940538
0.938473
0.935562
0.935027
0.936616
0.939263
0.940759
0.942512
0.948454
0.955699
0.959287
0.961403
0.963588
0.966033
0.967792
0.964996
0.960998
0.959449
0.958423
0.957712
0.959037
0.964383
0.977085
0.9868
0.991997
0.995762
0.998091
0.999526
0.994866
0.985473
0.980146
0.97908
0.980017
0.982416
0.986185
0.996538
1.01127
1.02023
1.02436
1.02712
1.02916
1.02867
1.02387
1.01726
1.01304
1.01231
1.01422
1.01894
1.02879
1.03837
1.04419
1.04858
1.05149
1.052
1.04719
1.03483
1.20924
1.68508
0.87882
0.876814
0.878115
0.88073
0.882722
0.884163
0.883394
0.881325
0.8814
0.883221
0.88735
0.89452
0.900839
0.904585
0.906693
0.908164
0.907212
0.900163
0.895075
0.894394
0.895464
0.896898
0.90132
0.912511
0.921216
0.92523
0.926995
0.926481
0.922175
0.918495
0.91576
0.914539
0.915563
0.918915
0.923821
0.927938
0.933137
0.936753
0.938308
0.938278
0.939436
0.941724
0.943793
0.944656
0.943506
0.943103
0.942654
0.941075
0.940275
0.94205
0.94972
0.958795
0.964411
0.968992
0.97243
0.974518
0.974167
0.968159
0.961355
0.957335
0.956277
0.957616
0.960339
0.969307
0.985111
0.995093
0.998927
1.00116
1.00301
1.00342
0.996544
0.987184
0.983178
0.982894
0.984058
0.986388
0.990388
1.00074
1.01431
1.0228
1.02722
1.03025
1.03198
1.03177
1.02772
1.02061
1.01556
1.01446
1.01622
1.0211
1.03098
1.03984
1.0454
1.0496
1.05152
1.0499
1.04282
1.20759
1.68643
0.887273
0.890372
0.889247
0.88736
0.884782
0.879437
0.875605
0.87539
0.877188
0.881547
0.892285
0.904887
0.911356
0.913265
0.913103
0.909919
0.902465
0.89503
0.893221
0.894051
0.895677
0.900257
0.909393
0.917686
0.923559
0.925875
0.925171
0.921819
0.920452
0.920469
0.91991
0.921173
0.92414
0.92727
0.928241
0.927885
0.927874
0.930722
0.935403
0.939264
0.942564
0.946664
0.95086
0.953217
0.952556
0.947836
0.942285
0.938664
0.938604
0.94031
0.945009
0.957236
0.968992
0.975182
0.978141
0.979743
0.980019
0.975162
0.964929
0.958708
0.957569
0.958589
0.960878
0.965194
0.976726
0.992173
0.999812
1.00276
1.00409
1.00515
1.00522
0.998453
0.990474
0.987385
0.987671
0.989416
0.991387
0.994547
1.00354
1.0164
1.02481
1.02948
1.03275
1.03448
1.03417
1.02995
1.02231
1.01695
1.01581
1.01753
1.0223
1.03185
1.04041
1.04598
1.04999
1.05079
1.04878
1.21054
1.6883
0.894541
0.900656
0.90105
0.895966
0.884883
0.875647
0.872584
0.873038
0.874736
0.878803
0.892659
0.908659
0.914532
0.916684
0.917224
0.911419
0.90089
0.896109
0.895254
0.896637
0.902016
0.909006
0.913264
0.916941
0.920031
0.92091
0.920431
0.92075
0.922961
0.925714
0.929049
0.930991
0.931513
0.930565
0.927139
0.923417
0.922792
0.925179
0.933125
0.942773
0.950321
0.955084
0.957488
0.959028
0.958499
0.950626
0.940513
0.937587
0.938232
0.939917
0.943037
0.954293
0.970414
0.977875
0.980658
0.981923
0.981544
0.97917
0.971722
0.963793
0.961556
0.962987
0.966432
0.969394
0.971906
0.9804
0.993819
1.00095
1.00373
1.0054
1.00728
1.0087
1.00367
0.996608
0.993016
0.991893
0.991988
0.993732
0.997083
1.00634
1.0188
1.02677
1.03117
1.03428
1.03572
1.03539
1.03124
1.02361
1.01816
1.01689
1.01814
1.02231
1.03181
1.04055
1.04662
1.0493
1.05326
1.21806
1.69096
0.896952
0.903522
0.904517
0.90178
0.888539
0.876816
0.874343
0.874893
0.877689
0.885871
0.897481
0.907881
0.91358
0.914541
0.91096
0.906269
0.903828
0.902126
0.903489
0.907435
0.911394
0.913373
0.913087
0.910788
0.910372
0.913634
0.919085
0.924648
0.930319
0.935505
0.938411
0.939705
0.937739
0.930103
0.921941
0.919387
0.920113
0.922151
0.929594
0.945466
0.956632
0.961016
0.963005
0.963195
0.959109
0.950162
0.942626
0.939735
0.940211
0.942684
0.947928
0.954406
0.965249
0.975321
0.979116
0.979687
0.978741
0.979265
0.979629
0.975262
0.970558
0.969432
0.970031
0.970389
0.970232
0.972109
0.980098
0.993887
1.00244
1.00656
1.01007
1.01275
1.0139
1.00917
1.00056
0.994885
0.993486
0.99455
0.996587
0.999983
1.00958
1.02103
1.02806
1.03228
1.03545
1.03709
1.03698
1.03272
1.02479
1.0188
1.01691
1.01752
1.02128
1.03138
1.04101
1.04636
1.0548
1.2282
1.69448
0.896704
0.903608
0.90256
0.895701
0.888216
0.882903
0.881329
0.8834
0.889409
0.894716
0.897388
0.900536
0.903284
0.904955
0.905743
0.907081
0.909654
0.914385
0.91746
0.918132
0.917299
0.91357
0.906793
0.904055
0.904922
0.908409
0.918503
0.931561
0.940441
0.944105
0.945687
0.945837
0.941804
0.928684
0.920495
0.919484
0.920554
0.922474
0.929132
0.945897
0.958444
0.962929
0.964327
0.961457
0.956999
0.953365
0.94852
0.946016
0.946832
0.950312
0.953558
0.955008
0.956865
0.96367
0.972814
0.977423
0.979885
0.98261
0.985514
0.987056
0.982884
0.976341
0.972269
0.969497
0.968114
0.96901
0.971634
0.980388
0.996141
1.00726
1.01178
1.01388
1.0157
1.0161
1.01157
1.00363
0.998338
0.99679
0.99745
0.999323
1.00299
1.01237
1.02304
1.0298
1.03411
1.03732
1.0389
1.03878
1.03406
1.02547
1.01872
1.01575
1.01565
1.01968
1.0314
1.04118
1.05417
1.23947
1.69854
0.891371
0.895881
0.89388
0.892754
0.893105
0.893198
0.89465
0.896988
0.899059
0.89985
0.895993
0.891096
0.891298
0.896326
0.903947
0.911947
0.920555
0.925433
0.927378
0.927711
0.922675
0.909591
0.90191
0.901018
0.902125
0.904779
0.915282
0.935581
0.945377
0.948464
0.949816
0.94778
0.938001
0.928593
0.923033
0.921781
0.92302
0.928172
0.935996
0.943921
0.953279
0.958186
0.958583
0.956655
0.956752
0.95817
0.958799
0.957034
0.955254
0.95527
0.955304
0.953286
0.951436
0.953076
0.962014
0.974776
0.982982
0.98817
0.99192
0.993891
0.993969
0.986988
0.976716
0.970458
0.96901
0.969961
0.972003
0.974703
0.983039
0.999128
1.00917
1.01289
1.01495
1.01684
1.01759
1.01436
1.00763
1.00221
1.0001
1.00025
1.00165
1.00522
1.01473
1.02532
1.0321
1.03633
1.03907
1.04036
1.04003
1.03497
1.02591
1.01793
1.01355
1.01284
1.01842
1.03148
1.04952
1.25047
1.70219
0.885366
0.885698
0.887692
0.891226
0.898561
0.904909
0.907397
0.907446
0.905329
0.898848
0.889456
0.88642
0.886952
0.889636
0.901003
0.918904
0.92809
0.930971
0.932223
0.931335
0.921847
0.908384
0.902908
0.902557
0.903484
0.9071
0.920285
0.936771
0.945937
0.949254
0.948503
0.942113
0.936963
0.932486
0.929175
0.929201
0.932305
0.937581
0.940328
0.941415
0.942259
0.946922
0.953088
0.956875
0.960218
0.964445
0.968247
0.969445
0.965623
0.959395
0.953709
0.949285
0.947978
0.949237
0.952625
0.96526
0.982247
0.991725
0.995344
0.997095
0.998204
0.996592
0.986371
0.975898
0.972405
0.972822
0.974946
0.97737
0.980066
0.986911
1.00066
1.01017
1.01453
1.01702
1.01928
1.02059
1.01883
1.01253
1.00606
1.00272
1.00215
1.00316
1.00681
1.01656
1.02739
1.03432
1.03823
1.04047
1.04161
1.04098
1.03549
1.02591
1.01622
1.01052
1.00996
1.01775
1.0399
1.25872
1.70436
0.880615
0.88127
0.88651
0.896412
0.906993
0.911809
0.913513
0.913707
0.906941
0.892988
0.886805
0.886634
0.887753
0.891021
0.90532
0.923788
0.930702
0.933029
0.933699
0.927677
0.9165
0.909436
0.906191
0.906248
0.908986
0.917187
0.925785
0.933745
0.939888
0.941508
0.939355
0.936954
0.937957
0.939213
0.940206
0.940657
0.941142
0.941922
0.940697
0.935958
0.933951
0.936103
0.945705
0.958075
0.966845
0.973192
0.976329
0.977701
0.975345
0.964694
0.953423
0.948485
0.948212
0.94984
0.952253
0.957958
0.974502
0.990867
0.996587
0.998032
0.997201
0.995429
0.993491
0.987916
0.98179
0.979486
0.979583
0.98044
0.981214
0.982677
0.987395
0.999797
1.01063
1.01655
1.01992
1.02251
1.02422
1.02331
1.01667
1.00868
1.00421
1.00323
1.00403
1.00756
1.0179
1.02954
1.03649
1.0398
1.04144
1.04232
1.04117
1.03577
1.02572
1.01409
1.00786
1.00657
1.02515
1.26215
1.7048
0.877976
0.881353
0.893735
0.906289
0.911713
0.9139
0.915504
0.914019
0.901534
0.891077
0.888612
0.888876
0.89028
0.897478
0.9144
0.926197
0.931523
0.933327
0.929867
0.921546
0.916071
0.912625
0.912295
0.914793
0.921709
0.926804
0.928455
0.928164
0.927786
0.931314
0.935837
0.938739
0.941953
0.947837
0.952145
0.95334
0.950343
0.943843
0.935353
0.930592
0.930427
0.93228
0.938036
0.955305
0.971817
0.978776
0.981379
0.982089
0.980455
0.971614
0.957549
0.950852
0.950319
0.952908
0.958358
0.963488
0.968853
0.979496
0.989545
0.993191
0.994414
0.995755
0.997961
0.999347
0.996274
0.990057
0.985531
0.983014
0.981552
0.981381
0.982811
0.987376
1.00033
1.01278
1.01935
1.02289
1.02569
1.02714
1.02602
1.01917
1.01
1.00471
1.00352
1.00441
1.00805
1.01906
1.031
1.03759
1.04039
1.04184
1.0429
1.04131
1.03664
1.02464
1.01116
1.00437
1.00643
1.25816
1.70331
0.877818
0.88657
0.905566
0.914289
0.916637
0.917202
0.914841
0.905211
0.894949
0.890796
0.890533
0.891559
0.897285
0.908401
0.917834
0.924949
0.92759
0.925877
0.920855
0.918714
0.918923
0.919607
0.922447
0.926729
0.929489
0.9301
0.925764
0.919512
0.918256
0.921375
0.931518
0.942795
0.952343
0.958164
0.960305
0.961005
0.957216
0.943445
0.93139
0.928605
0.929388
0.93148
0.936458
0.951334
0.971561
0.980191
0.98246
0.980556
0.975319
0.970926
0.965662
0.959944
0.958723
0.96116
0.964262
0.966407
0.966935
0.967451
0.973524
0.984646
0.992698
0.997672
1.0015
1.00476
1.00656
1.00378
0.995276
0.986699
0.982234
0.981507
0.982321
0.983683
0.989163
1.00376
1.01634
1.02234
1.02542
1.02747
1.0282
1.02709
1.02027
1.01098
1.00542
1.00403
1.00466
1.00807
1.01971
1.03208
1.03835
1.04101
1.04286
1.04294
1.04123
1.03591
1.02179
1.00583
0.996799
1.24837
1.70056
0.877095
0.895103
0.912318
0.918017
0.920189
0.920096
0.910715
0.899242
0.894228
0.892662
0.893879
0.90089
0.910331
0.91444
0.915784
0.917199
0.917766
0.918515
0.919852
0.921478
0.924947
0.931102
0.934991
0.936493
0.935222
0.927215
0.917234
0.914056
0.914904
0.917269
0.926143
0.946747
0.960931
0.965168
0.9665
0.965914
0.958359
0.942634
0.932586
0.930076
0.93112
0.936706
0.945717
0.953403
0.962716
0.971881
0.974661
0.973723
0.972978
0.973471
0.973994
0.974129
0.972106
0.969864
0.968532
0.966793
0.96325
0.961801
0.963482
0.970394
0.984592
0.996992
1.0038
1.00714
1.00925
1.01019
1.00612
0.995213
0.986577
0.983302
0.98326
0.984449
0.986769
0.993206
1.00639
1.01747
1.02297
1.02576
1.02719
1.02881
1.02901
1.02272
1.01264
1.00579
1.00367
1.00421
1.00817
1.02074
1.0333
1.03904
1.04114
1.04212
1.04153
1.04061
1.03343
1.01521
0.99723
1.23478
1.69813
0.881362
0.900894
0.912948
0.917869
0.918197
0.911981
0.904484
0.900433
0.898334
0.899821
0.905752
0.912209
0.914974
0.914902
0.91003
0.906186
0.90717
0.912961
0.921383
0.930495
0.937959
0.941383
0.942522
0.942368
0.935475
0.920128
0.912492
0.911895
0.913179
0.91601
0.927142
0.949262
0.962484
0.9667
0.96766
0.962573
0.953423
0.945825
0.939272
0.937456
0.940525
0.947181
0.951266
0.952828
0.952643
0.954008
0.960901
0.967986
0.972603
0.977183
0.982834
0.986157
0.985591
0.980359
0.972942
0.964953
0.960229
0.959737
0.961195
0.963413
0.971484
0.990922
1.00354
1.00742
1.00928
1.0093
1.00753
1.00421
0.997088
0.990507
0.987646
0.987546
0.988205
0.989299
0.993609
1.00584
1.01714
1.02313
1.02655
1.02938
1.03152
1.03185
1.02468
1.01341
1.00614
1.00398
1.00439
1.00865
1.02155
1.03312
1.03782
1.04017
1.04104
1.04086
1.0392
1.02664
1.00801
1.22172
1.69689
0.89085
0.900175
0.905336
0.907232
0.906367
0.905634
0.906327
0.906662
0.909463
0.914437
0.917834
0.919153
0.917293
0.907771
0.899984
0.898684
0.90041
0.906674
0.923411
0.940504
0.948087
0.950256
0.950189
0.944707
0.929328
0.917493
0.913412
0.913204
0.915009
0.923266
0.934707
0.945655
0.956554
0.961089
0.959862
0.954877
0.952174
0.951985
0.951837
0.952043
0.952722
0.953664
0.953597
0.948913
0.943583
0.943291
0.947698
0.958549
0.971426
0.983039
0.990476
0.993423
0.994453
0.991907
0.98038
0.966902
0.961489
0.961216
0.962791
0.965706
0.971078
0.980717
0.994225
1.00194
1.0048
1.0062
1.00742
1.00873
1.00857
1.00392
0.99677
0.99182
0.989095
0.988079
0.988624
0.992828
1.00601
1.01935
1.02647
1.0298
1.03194
1.03373
1.03397
1.0271
1.01509
1.00655
1.00404
1.00456
1.00869
1.02113
1.03198
1.03669
1.0394
1.04023
1.04045
1.034
1.02196
1.21453
1.69727
0.896888
0.898199
0.893268
0.891968
0.896196
0.903434
0.911178
0.9194
0.924305
0.925689
0.925681
0.923357
0.912909
0.900514
0.896051
0.896206
0.897582
0.902268
0.922192
0.943762
0.950442
0.952502
0.951416
0.940589
0.928682
0.920603
0.917305
0.918388
0.925668
0.934764
0.938442
0.940044
0.941741
0.945894
0.950535
0.95306
0.955502
0.960515
0.965527
0.966588
0.963412
0.95819
0.95053
0.94209
0.93843
0.93877
0.94077
0.946887
0.965739
0.98503
0.992424
0.994695
0.995177
0.991513
0.984219
0.975025
0.968704
0.9677
0.969742
0.972892
0.975274
0.976385
0.979595
0.988781
0.997941
1.0039
1.00809
1.01169
1.01443
1.01558
1.01119
1.00109
0.992626
0.988352
0.987457
0.98817
0.992957
1.00777
1.0222
1.02915
1.03254
1.03504
1.03641
1.03565
1.02792
1.01532
1.00649
1.00407
1.00471
1.00885
1.02027
1.03054
1.03579
1.03847
1.03965
1.03781
1.03179
1.21455
1.69922
0.899732
0.889701
0.883662
0.88356
0.885906
0.896505
0.916316
0.929906
0.934634
0.935761
0.932999
0.922129
0.907029
0.898482
0.896946
0.897504
0.900011
0.910185
0.925717
0.939924
0.947306
0.948026
0.94155
0.935018
0.932116
0.929269
0.928796
0.931854
0.936432
0.938778
0.938729
0.933189
0.928967
0.930343
0.939267
0.951872
0.962659
0.971951
0.976234
0.977507
0.974308
0.962985
0.949613
0.941463
0.939215
0.939873
0.942058
0.948186
0.959657
0.976969
0.987826
0.990639
0.989742
0.98765
0.986719
0.986188
0.983905
0.980728
0.978958
0.978166
0.976473
0.973595
0.97291
0.975187
0.98468
0.99861
1.00857
1.01385
1.01738
1.02008
1.0203
1.0142
1.00146
0.991537
0.987561
0.987414
0.98899
0.994895
1.01105
1.02565
1.03216
1.0345
1.03574
1.03573
1.03463
1.02893
1.01678
1.00752
1.00495
1.00522
1.00806
1.01837
1.02866
1.03451
1.03761
1.03807
1.03922
1.22026
1.7021
0.898282
0.883747
0.881886
0.882909
0.884718
0.892085
0.915985
0.932647
0.936753
0.938326
0.936501
0.922399
0.906743
0.900354
0.899556
0.902258
0.912311
0.921029
0.924652
0.928282
0.932209
0.934888
0.936021
0.936998
0.937627
0.940787
0.945141
0.946609
0.945117
0.940702
0.931809
0.924657
0.923014
0.924408
0.928932
0.945003
0.966438
0.977128
0.980229
0.9815
0.980662
0.971281
0.954396
0.944691
0.942774
0.944932
0.951389
0.957717
0.9604
0.963329
0.970546
0.978371
0.982948
0.98574
0.989907
0.9949
0.997572
0.996329
0.990749
0.983148
0.97566
0.970907
0.969657
0.970338
0.973398
0.987521
1.00555
1.01474
1.01868
1.02091
1.02096
1.01944
1.01242
0.999282
0.990974
0.9892
0.990782
0.993065
0.997809
1.01172
1.02518
1.03118
1.03379
1.03585
1.03638
1.03564
1.03126
1.0185
1.00813
1.00483
1.00459
1.00617
1.01599
1.02708
1.03392
1.03593
1.04335
1.22922
1.70522
0.895079
0.883901
0.8834
0.884544
0.888393
0.900377
0.916934
0.930013
0.934777
0.934555
0.927599
0.91872
0.911588
0.90812
0.909498
0.916161
0.922945
0.924942
0.923505
0.9169
0.915388
0.920463
0.931418
0.940668
0.949016
0.955468
0.957711
0.957279
0.951544
0.93825
0.925459
0.921026
0.921244
0.923004
0.926897
0.938832
0.96246
0.9772
0.98104
0.980195
0.973571
0.967436
0.962601
0.957128
0.955388
0.957166
0.959884
0.961545
0.960292
0.955737
0.954863
0.96051
0.97252
0.984941
0.994915
1.00146
1.00487
1.00648
1.00351
0.991702
0.978429
0.971592
0.970193
0.97083
0.973277
0.980751
0.996255
1.01046
1.01666
1.01862
1.01727
1.01639
1.01655
1.01213
1.00247
0.996139
0.993819
0.993415
0.994065
0.997378
1.00916
1.02332
1.03125
1.03539
1.03725
1.03732
1.0365
1.03195
1.01941
1.00858
1.00416
1.00318
1.00424
1.0141
1.02584
1.03133
1.04454
1.23915
1.70805
0.893042
0.885969
0.885902
0.88994
0.899457
0.906791
0.913341
0.920127
0.923861
0.923808
0.922462
0.921877
0.921388
0.922338
0.924437
0.926574
0.927504
0.924869
0.915102
0.909789
0.909868
0.91233
0.922006
0.942751
0.959071
0.964872
0.966344
0.965663
0.957602
0.938807
0.925832
0.922315
0.922823
0.92768
0.938094
0.946643
0.953679
0.963531
0.969029
0.969227
0.968793
0.969545
0.970972
0.973582
0.973279
0.97035
0.966809
0.962
0.954405
0.949226
0.948489
0.949935
0.956681
0.977001
0.995821
1.00314
1.00603
1.00757
1.00591
0.999351
0.987305
0.977499
0.974248
0.974947
0.979452
0.984074
0.987359
0.996153
1.00644
1.01158
1.0138
1.01554
1.01731
1.01934
1.01818
1.0092
1.0002
0.995111
0.992906
0.992398
0.994863
1.00649
1.02244
1.03202
1.03597
1.03665
1.03615
1.03632
1.03255
1.02084
1.00949
1.00376
1.0011
1.00151
1.01231
1.02294
1.0419
1.24898
1.71037
0.895022
0.890647
0.893247
0.901554
0.906909
0.908689
0.908566
0.907576
0.910276
0.916413
0.922163
0.928459
0.934259
0.936666
0.935856
0.933082
0.927443
0.916831
0.909321
0.907552
0.908525
0.910324
0.917877
0.941746
0.960446
0.966194
0.967508
0.962638
0.951708
0.941863
0.933425
0.930462
0.933168
0.940948
0.946631
0.948295
0.947076
0.94423
0.947493
0.956707
0.965959
0.973636
0.981562
0.986538
0.987726
0.984288
0.974868
0.961825
0.951934
0.948386
0.94875
0.950002
0.953357
0.965882
0.987988
1.00011
1.00378
1.0034
0.999475
0.997522
0.99617
0.991296
0.986268
0.984565
0.984764
0.984632
0.983005
0.983495
0.990242
1.00304
1.0117
1.01635
1.02069
1.02466
1.02609
1.02314
1.01232
1.00035
0.992891
0.990972
0.991737
0.994298
1.00558
1.02247
1.03252
1.03603
1.03643
1.03617
1.03625
1.03232
1.02237
1.01049
1.00189
0.997686
0.998992
1.01053
1.03562
1.25738
1.71178
0.901405
0.900364
0.903374
0.906714
0.907945
0.905939
0.90091
0.899436
0.901274
0.908639
0.923006
0.937023
0.944753
0.946953
0.946231
0.938457
0.92503
0.914084
0.909504
0.909073
0.910277
0.916663
0.92646
0.936737
0.950711
0.958095
0.958343
0.954743
0.951362
0.948636
0.947315
0.947441
0.94877
0.950163
0.950636
0.946347
0.937185
0.933893
0.935304
0.941541
0.95719
0.976379
0.988132
0.992763
0.994721
0.993934
0.985831
0.968173
0.954868
0.950867
0.951448
0.954911
0.962149
0.968413
0.974337
0.984563
0.992247
0.995438
0.997122
0.999285
1.00196
1.00472
1.00367
0.996957
0.989122
0.982606
0.978183
0.97678
0.978535
0.98809
1.0047
1.01714
1.02419
1.02724
1.02807
1.02817
1.02421
1.01099
0.998223
0.992696
0.99196
0.993127
0.995325
1.00637
1.02375
1.03387
1.03634
1.0358
1.03548
1.03488
1.03296
1.02524
1.01158
0.999342
0.99413
0.995982
1.02494
1.26262
1.71198
0.911238
0.911222
0.910746
0.909424
0.904423
0.898249
0.896025
0.896662
0.898384
0.903105
0.920001
0.939748
0.947521
0.949996
0.951134
0.945892
0.928629
0.915798
0.912058
0.912729
0.918523
0.926634