/*--------------------------------*- C++ -*----------------------------------*\
  =========                 |
  \\      /  F ield         | OpenFOAM: The Open Source CFD Toolbox
   \\    /   O peration     | Website:  https://openfoam.org
    \\  /    A nd           | Version:  12
     \\/     M anipulation  |
\*---------------------------------------------------------------------------*/
FoamFile
{
    format      ascii;
    class       volScalarField;
    location    "5.8";
    object      rho;
}
// * * * * * * * * * * * * * * * * * * * * * * * * * * * * * * * * * * * * * //

dimensions      [1 -3 0 0 0 0 0];

internalField   nonuniform List<scalar> 
9801
(
1.04839
1.0609
1.06881
1.07252
1.0745
1.07582
1.07673
1.07799
1.08005
1.08265
1.08676
1.09573
1.10765
1.11402
1.11712
1.11894
1.1201
1.12121
1.12283
1.12529
1.12863
1.13446
1.14644
1.15638
1.16096
1.16361
1.16529
1.1663
1.16778
1.17004
1.17311
1.17781
1.18821
1.20054
1.20696
1.21044
1.21271
1.21355
1.21438
1.21667
1.21962
1.22346
1.23199
1.24684
1.25578
1.26017
1.2627
1.2635
1.2642
1.26577
1.2686
1.27265
1.27957
1.29579
1.30894
1.31437
1.31767
1.31715
1.31653
1.31787
1.32118
1.32524
1.33244
1.34961
1.36677
1.37481
1.37936
1.3774
1.37429
1.3754
1.37888
1.38454
1.39265
1.41191
1.43456
1.44596
1.45256
1.45332
1.44419
1.44166
1.44666
1.45522
1.46889
1.49956
1.52944
1.54556
1.55623
1.55884
1.54692
1.53989
1.54805
1.56764
1.61228
1.67348
1.7241
1.78099
1.82356
2.40909
5.84694
1.05389
1.06607
1.07303
1.07748
1.08062
1.08238
1.08164
1.08242
1.08497
1.08808
1.09262
1.10201
1.11164
1.11774
1.12193
1.12493
1.12526
1.12479
1.12676
1.12994
1.13366
1.14025
1.15119
1.15954
1.16475
1.16861
1.17047
1.16931
1.17052
1.17366
1.17748
1.18246
1.19278
1.20378
1.21034
1.21482
1.21778
1.2162
1.21597
1.21904
1.22293
1.22732
1.23585
1.24947
1.2585
1.264
1.26781
1.26653
1.26448
1.26676
1.27096
1.27566
1.28239
1.29743
1.31054
1.31725
1.32206
1.32124
1.31638
1.31759
1.32224
1.32706
1.33389
1.35003
1.36737
1.37644
1.38234
1.38286
1.37541
1.37406
1.37842
1.38482
1.39264
1.4123
1.43474
1.44711
1.4545
1.45727
1.44639
1.44031
1.44589
1.4548
1.46838
1.49753
1.52406
1.54039
1.55306
1.56309
1.55286
1.53912
1.54774
1.5677
1.60112
1.64933
1.6894
1.73319
1.75396
2.32292
5.85907
1.05359
1.06574
1.07244
1.07685
1.0802
1.08233
1.08196
1.08251
1.08489
1.0881
1.09276
1.10222
1.11142
1.11717
1.12139
1.12459
1.12542
1.12488
1.12657
1.12969
1.13345
1.14008
1.15107
1.15912
1.16428
1.16834
1.17065
1.1697
1.17046
1.17338
1.17719
1.18201
1.19212
1.20313
1.20971
1.21437
1.21761
1.2165
1.21617
1.21899
1.22278
1.22712
1.23488
1.24824
1.25745
1.26314
1.26723
1.26662
1.26449
1.26656
1.27071
1.27553
1.2818
1.29569
1.30869
1.31573
1.32073
1.32103
1.3162
1.31648
1.32071
1.32594
1.33292
1.34763
1.36459
1.37407
1.3802
1.38267
1.37618
1.37226
1.37543
1.38173
1.38934
1.4069
1.4292
1.44215
1.4504
1.45564
1.4479
1.43829
1.44097
1.44967
1.46104
1.4843
1.51356
1.53444
1.54874
1.5607
1.55513
1.53737
1.53913
1.55791
1.58464
1.62698
1.66635
1.70373
1.72127
2.29255
5.80045
1.05433
1.06638
1.07267
1.0769
1.08032
1.083
1.08337
1.08354
1.08555
1.08859
1.09354
1.10315
1.11172
1.11706
1.12104
1.12437
1.12603
1.12544
1.12668
1.12957
1.1334
1.14064
1.15158
1.15923
1.16411
1.16802
1.17077
1.16996
1.16987
1.1723
1.176
1.18118
1.19175
1.20283
1.20935
1.21392
1.21743
1.21687
1.2153
1.21705
1.22041
1.22491
1.23303
1.24669
1.2563
1.26204
1.26633
1.26703
1.26376
1.26416
1.26741
1.27197
1.27843
1.29219
1.30576
1.31335
1.31852
1.32084
1.31609
1.31371
1.31647
1.32121
1.32824
1.34232
1.35975
1.37007
1.37657
1.38107
1.37674
1.36885
1.36974
1.37547
1.38283
1.39789
1.42111
1.43629
1.44521
1.45225
1.45033
1.43675
1.43356
1.44069
1.45082
1.46821
1.49773
1.52117
1.53628
1.54895
1.55373
1.53817
1.52926
1.54088
1.56214
1.59349
1.63201
1.66526
1.68216
2.29023
5.75685
1.05466
1.06676
1.07267
1.07674
1.08015
1.08297
1.084
1.08405
1.08572
1.08852
1.09324
1.10294
1.11129
1.11645
1.12035
1.12368
1.12585
1.12553
1.12648
1.12916
1.13272
1.14008
1.15111
1.15851
1.1632
1.16695
1.16986
1.16944
1.16894
1.17114
1.17459
1.17957
1.19025
1.20137
1.20789
1.21233
1.21588
1.21616
1.21375
1.2148
1.21805
1.22242
1.23045
1.24406
1.25399
1.25985
1.26413
1.26629
1.26257
1.26105
1.2637
1.26809
1.27438
1.28787
1.30201
1.31028
1.31573
1.31955
1.31696
1.31111
1.31179
1.31602
1.32253
1.33545
1.35364
1.36508
1.37187
1.3771
1.37731
1.3679
1.36462
1.369
1.37571
1.38707
1.40976
1.42866
1.43889
1.44636
1.45035
1.43906
1.42914
1.43185
1.441
1.45381
1.47918
1.50715
1.52612
1.54023
1.55191
1.54639
1.53078
1.5298
1.54503
1.56923
1.60307
1.63378
1.64941
2.29386
5.7342
1.05479
1.06713
1.07313
1.07712
1.08041
1.08321
1.08448
1.08421
1.08551
1.08816
1.09244
1.10218
1.11122
1.11656
1.12046
1.12383
1.12627
1.12588
1.12615
1.12846
1.13176
1.13851
1.14989
1.15774
1.16262
1.1665
1.16969
1.16977
1.16846
1.17006
1.17321
1.17772
1.18798
1.19954
1.2064
1.211
1.21478
1.21638
1.21328
1.21288
1.21565
1.2198
1.22744
1.24116
1.25165
1.25776
1.26222
1.26565
1.26318
1.25881
1.26027
1.26431
1.27035
1.28357
1.2988
1.30767
1.31315
1.31752
1.31824
1.31084
1.30807
1.31133
1.31706
1.32754
1.3468
1.36119
1.36883
1.37449
1.37826
1.37076
1.36284
1.36414
1.36994
1.37816
1.39704
1.42128
1.43557
1.44398
1.45059
1.44656
1.43165
1.42805
1.4347
1.4446
1.46236
1.49123
1.51485
1.53142
1.54564
1.55396
1.5427
1.53076
1.53485
1.55025
1.57609
1.60696
1.62385
2.30374
5.72514
1.05486
1.06723
1.07365
1.07775
1.08098
1.08374
1.08498
1.08423
1.08525
1.08783
1.09174
1.10115
1.1112
1.11704
1.12104
1.12436
1.12693
1.12642
1.12572
1.12768
1.13088
1.13692
1.14848
1.15722
1.1624
1.16636
1.16974
1.17068
1.16839
1.16901
1.17192
1.17605
1.18562
1.19797
1.2054
1.21018
1.21412
1.21692
1.21448
1.21207
1.21407
1.21792
1.22455
1.23836
1.24993
1.25635
1.26101
1.26501
1.26512
1.25963
1.25892
1.26252
1.26754
1.2788
1.29567
1.30609
1.31187
1.31635
1.31888
1.31298
1.3076
1.30902
1.31428
1.32143
1.33884
1.35827
1.36853
1.37463
1.37947
1.37584
1.36484
1.3623
1.36661
1.37327
1.38528
1.4104
1.4313
1.44237
1.45013
1.45454
1.44311
1.43099
1.43155
1.43952
1.45098
1.47459
1.50238
1.52284
1.53851
1.55258
1.55539
1.54232
1.53404
1.54041
1.55549
1.58264
1.60201
2.31187
5.72096
1.05554
1.06775
1.07446
1.07867
1.08189
1.08464
1.08585
1.08496
1.08589
1.08845
1.09216
1.10107
1.11158
1.11771
1.12174
1.125
1.12759
1.12733
1.12609
1.12774
1.13087
1.13615
1.14765
1.15756
1.16304
1.16694
1.17028
1.17196
1.16953
1.16893
1.17143
1.1752
1.18338
1.19676
1.20551
1.21062
1.2146
1.2179
1.21692
1.21322
1.21397
1.21739
1.22242
1.23478
1.24864
1.25632
1.26129
1.26552
1.26757
1.26263
1.26004
1.2624
1.26665
1.27385
1.29063
1.30478
1.31187
1.31669
1.32073
1.31774
1.3101
1.30938
1.31375
1.31928
1.33047
1.35264
1.36817
1.3757
1.38115
1.38269
1.37195
1.3641
1.36531
1.37119
1.37862
1.39642
1.42312
1.44013
1.44984
1.45743
1.45801
1.44184
1.43318
1.43714
1.44627
1.46083
1.48712
1.51142
1.52937
1.54428
1.55692
1.55698
1.54344
1.53625
1.5417
1.557
1.57883
2.31788
5.71773
1.05658
1.06882
1.07581
1.08007
1.08327
1.08604
1.0874
1.08664
1.08747
1.08994
1.09331
1.1014
1.11239
1.1188
1.12279
1.12603
1.12876
1.12899
1.1276
1.1289
1.13185
1.13628
1.14704
1.15823
1.16431
1.16829
1.17161
1.17384
1.17187
1.17037
1.17223
1.17567
1.18198
1.19552
1.20621
1.21195
1.2161
1.21968
1.22023
1.21589
1.21526
1.21789
1.222
1.23111
1.24713
1.25738
1.26294
1.26732
1.27069
1.26759
1.26269
1.26299
1.26632
1.27123
1.28387
1.3029
1.31338
1.31888
1.32359
1.32443
1.31628
1.31223
1.31417
1.31879
1.32505
1.34249
1.3646
1.37607
1.38245
1.38736
1.38424
1.37138
1.36707
1.37015
1.37664
1.38627
1.41004
1.43481
1.44871
1.45743
1.464
1.45932
1.44348
1.43883
1.44426
1.45388
1.47168
1.4983
1.51986
1.53603
1.55008
1.55936
1.55647
1.54257
1.53368
1.53737
1.55285
2.31459
5.71361
1.05785
1.07002
1.07787
1.08212
1.08528
1.08811
1.08978
1.08915
1.08977
1.09203
1.09498
1.10136
1.11292
1.12048
1.1247
1.12802
1.13094
1.13167
1.13013
1.13112
1.13383
1.13735
1.14597
1.15855
1.16583
1.17014
1.17368
1.17656
1.17541
1.17298
1.1743
1.17735
1.18176
1.19345
1.20683
1.21383
1.21819
1.22191
1.22391
1.21996
1.21747
1.21927
1.22283
1.22876
1.244
1.25832
1.26525
1.26973
1.27358
1.27315
1.26631
1.26421
1.26648
1.27088
1.27884
1.29836
1.31466
1.32192
1.3269
1.33035
1.32494
1.31611
1.31496
1.31782
1.32294
1.33266
1.35611
1.37536
1.38449
1.39079
1.39472
1.38501
1.37242
1.37145
1.37614
1.38299
1.3956
1.4224
1.44377
1.45554
1.4639
1.46997
1.46269
1.44714
1.44464
1.45123
1.46163
1.48205
1.507
1.526
1.54086
1.5537
1.55969
1.55472
1.53976
1.52698
1.52694
2.29744
5.71055
1.05946
1.07045
1.07993
1.08484
1.0881
1.09097
1.09294
1.09237
1.09241
1.09426
1.09694
1.10145
1.11278
1.12244
1.12743
1.13095
1.13399
1.13537
1.13361
1.13375
1.13596
1.13899
1.14482
1.15791
1.16757
1.17268
1.17648
1.17975
1.17998
1.17671
1.17689
1.17945
1.18292
1.19098
1.20624
1.21581
1.2208
1.22462
1.22758
1.22513
1.22069
1.22139
1.2245
1.22875
1.2396
1.25735
1.2673
1.27243
1.27639
1.27826
1.27189
1.26676
1.26823
1.27223
1.27757
1.29136
1.31264
1.32413
1.33
1.33434
1.33385
1.32277
1.31656
1.31817
1.3227
1.32888
1.34469
1.37026
1.38551
1.39297
1.39848
1.39907
1.38557
1.37589
1.37667
1.38157
1.38873
1.40577
1.43372
1.45261
1.46339
1.47153
1.47506
1.46464
1.4513
1.45068
1.4576
1.46899
1.49129
1.51458
1.53153
1.5445
1.5551
1.55838
1.55123
1.5322
1.51241
2.26866
5.70902
1.06152
1.07015
1.08134
1.08767
1.09126
1.0942
1.09651
1.09622
1.09524
1.09651
1.09907
1.10269
1.11236
1.12412
1.13041
1.13413
1.13719
1.13931
1.13774
1.1364
1.13793
1.14087
1.1452
1.15681
1.16916
1.17556
1.17955
1.18294
1.18464
1.18123
1.17958
1.18143
1.18466
1.18988
1.20391
1.21711
1.22351
1.22758
1.23106
1.23098
1.2253
1.22397
1.22644
1.2301
1.23622
1.25289
1.26791
1.27479
1.2792
1.28292
1.2802
1.27253
1.27179
1.2747
1.27869
1.28519
1.30409
1.32252
1.33063
1.33565
1.33977
1.33523
1.3238
1.32159
1.32498
1.32966
1.33631
1.3566
1.38064
1.39237
1.39893
1.40479
1.4028
1.38716
1.37967
1.3821
1.38814
1.39628
1.41661
1.443
1.45916
1.46904
1.47697
1.48013
1.4683
1.4556
1.45585
1.46292
1.47546
1.49878
1.5204
1.53546
1.54675
1.55429
1.55552
1.5433
1.51604
2.23516
5.70711
1.06385
1.07018
1.08191
1.09003
1.09425
1.09736
1.09998
1.10058
1.09871
1.09933
1.10177
1.10495
1.11225
1.12485
1.13264
1.13684
1.14002
1.14268
1.14225
1.13959
1.14053
1.1434
1.1471
1.15583
1.1698
1.17793
1.18233
1.1857
1.18832
1.18624
1.18269
1.18372
1.18678
1.19065
1.20065
1.21677
1.22576
1.23052
1.23424
1.23644
1.23167
1.22735
1.22841
1.23148
1.23558
1.24643
1.26579
1.27694
1.28262
1.28684
1.28864
1.28122
1.2755
1.27587
1.2784
1.2827
1.29291
1.31564
1.33122
1.33861
1.34407
1.34716
1.33862
1.32824
1.32692
1.32933
1.3339
1.34324
1.36802
1.38942
1.3996
1.40593
1.41075
1.40613
1.39133
1.38596
1.38866
1.39434
1.40348
1.42629
1.45091
1.46567
1.47521
1.48264
1.48367
1.47122
1.45965
1.45999
1.46668
1.48031
1.50441
1.52482
1.53802
1.54694
1.5518
1.54929
1.53139
2.21324
5.70521
1.0663
1.07122
1.08201
1.09178
1.09685
1.10034
1.10326
1.10513
1.10347
1.10294
1.10484
1.10755
1.11222
1.12391
1.13389
1.13908
1.14273
1.14589
1.14718
1.1443
1.144
1.14638
1.14954
1.15478
1.16799
1.17905
1.18448
1.18825
1.19153
1.19182
1.18735
1.18668
1.18915
1.1925
1.19803
1.21329
1.22692
1.23325
1.23725
1.24063
1.23923
1.23226
1.23063
1.233
1.23661
1.24243
1.25946
1.27732
1.28549
1.29028
1.29391
1.29127
1.28092
1.27689
1.27869
1.2825
1.28808
1.30477
1.32884
1.34139
1.34726
1.35233
1.35232
1.3384
1.32907
1.32967
1.33384
1.33945
1.35182
1.37814
1.39707
1.40618
1.41286
1.4178
1.41022
1.39457
1.39013
1.39381
1.40006
1.41062
1.43483
1.45742
1.47076
1.47997
1.48732
1.48824
1.47476
1.46294
1.46288
1.46894
1.483
1.50754
1.52687
1.53814
1.54495
1.54638
1.54426
2.20798
5.7025
1.06894
1.07307
1.08202
1.09331
1.09952
1.10341
1.10655
1.10923
1.10882
1.10684
1.10761
1.10975
1.1129
1.12207
1.13483
1.1418
1.14592
1.14933
1.15197
1.15021
1.14798
1.14905
1.15138
1.15472
1.16441
1.17905
1.18695
1.19132
1.19492
1.19739
1.19381
1.1903
1.19129
1.19401
1.19773
1.20786
1.22555
1.23532
1.24021
1.24393
1.24601
1.23979
1.23408
1.23493
1.23817
1.24216
1.25125
1.27205
1.28627
1.29261
1.29675
1.29925
1.2916
1.28152
1.2807
1.28445
1.28934
1.29639
1.31754
1.33865
1.34812
1.35336
1.3568
1.35398
1.33978
1.33318
1.33497
1.33949
1.34581
1.36195
1.38919
1.40593
1.41382
1.41923
1.42201
1.41242
1.39833
1.39519
1.39906
1.40556
1.41808
1.44351
1.46447
1.47669
1.48537
1.49175
1.49148
1.4776
1.46533
1.46451
1.46976
1.48381
1.50849
1.52665
1.53636
1.53917
1.54842
2.21856
5.69927
1.07183
1.07546
1.0822
1.09463
1.10238
1.10658
1.10981
1.11263
1.11329
1.11005
1.10956
1.11171
1.11479
1.12133
1.13515
1.14465
1.1494
1.15281
1.15581
1.15571
1.15132
1.15045
1.15257
1.15584
1.16211
1.1774
1.18923
1.19482
1.19846
1.20163
1.20053
1.19441
1.19322
1.19548
1.1988
1.20418
1.2201
1.23599
1.24311
1.24721
1.25066
1.24903
1.24042
1.23779
1.23969
1.24286
1.24734
1.26111
1.28279
1.29407
1.29981
1.30404
1.30441
1.29352
1.28672
1.28778
1.29061
1.29437
1.30268
1.32593
1.34469
1.35302
1.35879
1.36355
1.35868
1.34397
1.33922
1.34213
1.34674
1.35252
1.36951
1.39572
1.41005
1.41749
1.42361
1.4272
1.41679
1.40312
1.40073
1.40497
1.41182
1.42598
1.45097
1.46984
1.48102
1.48931
1.49558
1.49522
1.48053
1.46712
1.46534
1.46963
1.48326
1.50736
1.52435
1.53065
1.5445
2.24191
5.69686
1.07478
1.07817
1.08288
1.09516
1.10493
1.10961
1.11274
1.11542
1.11664
1.11369
1.11255
1.11449
1.11738
1.12178
1.13389
1.14644
1.15241
1.15585
1.1587
1.15994
1.15556
1.15308
1.15493
1.15807
1.1622
1.17377
1.18957
1.19745
1.20157
1.20471
1.20618
1.20056
1.19625
1.19748
1.20053
1.20414
1.2131
1.23255
1.24484
1.25047
1.25416
1.25657
1.25019
1.24208
1.24135
1.24398
1.24764
1.25376
1.27272
1.29294
1.30219
1.30738
1.31152
1.30875
1.29631
1.29013
1.29014
1.29278
1.2975
1.30974
1.33601
1.35358
1.36128
1.36674
1.37067
1.36286
1.34883
1.34481
1.34622
1.34984
1.35631
1.3767
1.40285
1.41702
1.42464
1.43046
1.43253
1.42201
1.40917
1.40654
1.40994
1.41594
1.43136
1.457
1.47506
1.48564
1.49353
1.49936
1.49894
1.48352
1.46834
1.46526
1.4685
1.48142
1.50469
1.51789
1.53542
2.26995
5.69343
1.07775
1.08087
1.08421
1.0942
1.10628
1.11232
1.11567
1.11851
1.12047
1.11839
1.1163
1.11761
1.12014
1.12318
1.13116
1.14574
1.15415
1.15837
1.16165
1.16416
1.16174
1.15748
1.15812
1.16072
1.16382
1.16985
1.18581
1.19822
1.20381
1.20747
1.21071
1.20891
1.20168
1.20024
1.20242
1.20563
1.21003
1.22422
1.24359
1.25279
1.25761
1.2611
1.26077
1.25056
1.24477
1.24598
1.24934
1.25328
1.26172
1.28416
1.30178
1.30957
1.31453
1.31799
1.31111
1.29678
1.29232
1.29475
1.29904
1.30468
1.32073
1.34682
1.36161
1.36865
1.37353
1.37597
1.36534
1.35061
1.34716
1.35051
1.3556
1.36342
1.38619
1.41057
1.42325
1.43057
1.43667
1.43857
1.42674
1.41234
1.40922
1.41324
1.42012
1.43708
1.46262
1.47991
1.48993
1.49734
1.50268
1.50214
1.48623
1.46883
1.46393
1.46603
1.479
1.4983
1.52033
2.29485
5.68687
1.08095
1.08362
1.0862
1.09237
1.10586
1.11476
1.11901
1.12198
1.12452
1.12395
1.12045
1.12033
1.12216
1.12484
1.12931
1.14245
1.15546
1.16155
1.16511
1.1682
1.16877
1.16356
1.16142
1.16268
1.16516
1.16869
1.17921
1.19691
1.20626
1.21098
1.21444
1.21636
1.20999
1.20402
1.20451
1.2073
1.21075
1.21714
1.23586
1.25282
1.26013
1.26453
1.26764
1.26344
1.2525
1.24936
1.25126
1.25439
1.25858
1.27036
1.29396
1.30829
1.31434
1.3186
1.3217
1.31374
1.30167
1.29976
1.30294
1.30704
1.31233
1.32933
1.35369
1.36616
1.37222
1.37691
1.37919
1.36932
1.35666
1.35455
1.35821
1.36358
1.37189
1.39489
1.41717
1.42853
1.43535
1.44011
1.4415
1.43059
1.41716
1.41426
1.4176
1.42421
1.4415
1.46684
1.48373
1.49325
1.50008
1.50479
1.5044
1.48893
1.46905
1.46138
1.4629
1.4733
1.50071
2.31007
5.67855
1.08448
1.08618
1.08854
1.09228
1.10338
1.11612
1.12218
1.12544
1.12792
1.12907
1.12541
1.12297
1.12443
1.1272
1.13049
1.1389
1.15464
1.16398
1.16852
1.17157
1.17385
1.1705
1.16456
1.16441
1.16701
1.17029
1.17576
1.19162
1.20732
1.21412
1.21789
1.221
1.21951
1.21055
1.20742
1.20919
1.21231
1.21605
1.22551
1.24681
1.26112
1.2674
1.27147
1.27346
1.26523
1.25464
1.2531
1.25584
1.25942
1.26392
1.27804
1.30164
1.31476
1.32128
1.32651
1.32869
1.31877
1.3072
1.30535
1.3071
1.31031
1.31616
1.33495
1.35856
1.37073
1.37767
1.38353
1.38634
1.37614
1.36334
1.36089
1.36349
1.36781
1.37655
1.39963
1.42062
1.43126
1.43818
1.44448
1.44772
1.43696
1.42259
1.41866
1.42148
1.42738
1.44378
1.46875
1.48565
1.49521
1.50176
1.5062
1.50599
1.49172
1.46961
1.45806
1.45543
1.47737
2.30568
5.67009
1.08867
1.08915
1.09127
1.09399
1.10043
1.11438
1.12341
1.12763
1.1307
1.13334
1.13254
1.12794
1.12771
1.13003
1.13294
1.13721
1.14986
1.16396
1.17031
1.17385
1.17692
1.17766
1.17115
1.16791
1.16972
1.17288
1.17639
1.18447
1.20299
1.21535
1.22083
1.22423
1.22665
1.22091
1.21257
1.2117
1.21423
1.21769
1.22192
1.2346
1.25643
1.26841
1.27398
1.2778
1.2782
1.26777
1.25889
1.25819
1.26051
1.26414
1.26985
1.28819
1.31197
1.32362
1.329
1.3331
1.33426
1.32182
1.30955
1.30765
1.31062
1.31498
1.3218
1.34381
1.36826
1.37972
1.38535
1.38994
1.39201
1.38068
1.36697
1.36365
1.36651
1.37123
1.38069
1.40555
1.42789
1.43908
1.44561
1.45103
1.45334
1.44295
1.42744
1.42201
1.42415
1.42931
1.44408
1.4694
1.48738
1.49703
1.50297
1.50654
1.50627
1.49383
1.47093
1.4523
1.45561
2.28148
5.66271
1.09391
1.09264
1.09392
1.09618
1.09932
1.10978
1.12369
1.13048
1.13411
1.13713
1.1392
1.13547
1.13209
1.13305
1.13527
1.13786
1.14401
1.1601
1.17182
1.17716
1.18052
1.18343
1.18101
1.17423
1.17347
1.17557
1.17822
1.18161
1.19297
1.21252
1.22271
1.22765
1.231
1.23173
1.22261
1.21627
1.21694
1.21977
1.22299
1.22746
1.243
1.26463
1.27509
1.28026
1.28426
1.28375
1.27127
1.26269
1.2634
1.26734
1.27151
1.27699
1.29613
1.31781
1.32731
1.33236
1.33631
1.33727
1.32548
1.31452
1.31396
1.31794
1.32303
1.33032
1.35213
1.37393
1.38388
1.3897
1.3942
1.39561
1.38472
1.37155
1.36863
1.37194
1.37736
1.38798
1.41246
1.4333
1.44387
1.45044
1.4558
1.45797
1.44804
1.43171
1.42501
1.42646
1.43133
1.44501
1.46961
1.48789
1.49754
1.5029
1.50575
1.50505
1.49486
1.46818
1.4493
2.23826
5.6574
1.09976
1.09648
1.09608
1.09804
1.1007
1.10652
1.12143
1.13267
1.13769
1.14075
1.1435
1.14325
1.13738
1.13529
1.13669
1.13931
1.14288
1.15359
1.17119
1.18026
1.18455
1.18769
1.1892
1.18269
1.1769
1.17684
1.17901
1.18214
1.18704
1.20291
1.22194
1.23058
1.23508
1.23831
1.23602
1.2252
1.22066
1.22156
1.22403
1.22757
1.23348
1.25228
1.27249
1.28165
1.28646
1.29039
1.2889
1.2766
1.27002
1.27043
1.27188
1.27492
1.2813
1.30208
1.32288
1.3325
1.33829
1.3434
1.34463
1.33292
1.32256
1.32182
1.324
1.32748
1.33464
1.35636
1.37751
1.38762
1.39324
1.39848
1.40181
1.39255
1.37963
1.37638
1.37847
1.38242
1.39159
1.41521
1.43618
1.44711
1.45365
1.45906
1.46217
1.4542
1.43795
1.42964
1.4298
1.43323
1.44416
1.46804
1.48708
1.49687
1.50168
1.50363
1.50329
1.49111
1.46596
2.19853
5.65333
1.10515
1.10197
1.09915
1.10059
1.10309
1.10642
1.11678
1.13232
1.13999
1.14369
1.14663
1.14885
1.14477
1.13912
1.13925
1.14168
1.14464
1.1497
1.16504
1.18083
1.18766
1.19106
1.19387
1.19229
1.18318
1.17962
1.18121
1.18424
1.18762
1.19412
1.21354
1.23081
1.23815
1.24224
1.24476
1.23894
1.22708
1.22391
1.22618
1.22956
1.23305
1.23969
1.26054
1.27975
1.28815
1.29296
1.29715
1.2942
1.27951
1.2718
1.2724
1.27552
1.2796
1.28729
1.31031
1.3316
1.34104
1.34598
1.35059
1.35105
1.33764
1.3259
1.32381
1.32662
1.33086
1.33851
1.36123
1.38361
1.39489
1.4012
1.40676
1.40931
1.39978
1.38489
1.37905
1.38066
1.38484
1.39302
1.41644
1.43927
1.45122
1.45801
1.46373
1.46776
1.46184
1.44404
1.4324
1.43089
1.43381
1.4424
1.46529
1.48547
1.4955
1.49945
1.50134
1.49827
1.49313
2.18421
5.65029
1.10967
1.10893
1.10353
1.1036
1.10555
1.10801
1.11306
1.12812
1.14125
1.14698
1.15025
1.15315
1.153
1.14574
1.14295
1.14445
1.14693
1.1497
1.15694
1.17561
1.18873
1.19451
1.19781
1.20015
1.19437
1.18564
1.18457
1.18674
1.1897
1.19309
1.20163
1.22306
1.238
1.24433
1.24853
1.25041
1.24209
1.23166
1.22984
1.23137
1.23397
1.23784
1.2469
1.26962
1.28684
1.29408
1.29814
1.30079
1.29749
1.28372
1.27682
1.27822
1.28215
1.28677
1.29503
1.31816
1.33764
1.3462
1.35131
1.35443
1.35462
1.34219
1.33031
1.32863
1.33199
1.33687
1.34576
1.36887
1.39057
1.40095
1.40652
1.41073
1.41327
1.40507
1.38926
1.38264
1.38415
1.38853
1.39722
1.42007
1.44387
1.45653
1.46295
1.46785
1.47078
1.46606
1.44891
1.43512
1.4318
1.43383
1.4408
1.46237
1.48302
1.4931
1.49728
1.49565
1.50646
2.19228
5.64572
1.1134
1.11546
1.10896
1.1065
1.10773
1.1101
1.11325
1.1225
1.13994
1.14982
1.15417
1.1571
1.15915
1.15418
1.14729
1.14661
1.14828
1.15095
1.15475
1.16604
1.18619
1.19715
1.20207
1.20532
1.20556
1.19568
1.18867
1.18891
1.19115
1.19398
1.19776
1.2092
1.23182
1.24515
1.25095
1.25513
1.25638
1.24548
1.2343
1.23315
1.23623
1.23989
1.24369
1.2532
1.27599
1.29166
1.29842
1.30375
1.30775
1.30414
1.29022
1.28419
1.28553
1.28824
1.29172
1.29984
1.32242
1.34103
1.34927
1.3543
1.35891
1.36046
1.34923
1.33786
1.33645
1.33969
1.34378
1.351
1.37235
1.39302
1.40288
1.40865
1.41363
1.41736
1.41152
1.39686
1.38981
1.39075
1.39438
1.40117
1.42132
1.44487
1.45792
1.46448
1.46931
1.47291
1.47046
1.45507
1.43914
1.43337
1.434
1.4387
1.45826
1.47897
1.4898
1.49104
1.50801
2.21812
5.64115
1.11659
1.1201
1.11554
1.11044
1.11078
1.11317
1.11596
1.12023
1.13364
1.14981
1.15712
1.16056
1.16292
1.16239
1.15409
1.14966
1.15089
1.15368
1.15675
1.16149
1.17645
1.19565
1.20475
1.20926
1.21184
1.20877
1.19694
1.19166
1.19278
1.19573
1.19903
1.2038
1.21822
1.24011
1.25167
1.25707
1.26072
1.26059
1.24944
1.24049
1.23993
1.24167
1.24439
1.24846
1.26061
1.28488
1.29995
1.3062
1.31021
1.31367
1.30918
1.29479
1.28777
1.2882
1.29125
1.29529
1.30457
1.3282
1.34749
1.35634
1.36135
1.36628
1.36739
1.35638
1.34401
1.34071
1.34237
1.34584
1.35293
1.3745
1.39679
1.40816
1.41468
1.42033
1.42446
1.42035
1.40501
1.39513
1.39417
1.39705
1.40184
1.41878
1.44405
1.45935
1.46664
1.47157
1.47593
1.47636
1.46239
1.44297
1.43372
1.43287
1.43596
1.45292
1.4738
1.48224
1.50353
2.25227
5.6355
1.11891
1.12362
1.12332
1.11723
1.11505
1.11673
1.11924
1.12185
1.12695
1.14285
1.15703
1.16298
1.1663
1.16872
1.16527
1.15657
1.15506
1.15725
1.16002
1.16282
1.16764
1.18456
1.20246
1.21013
1.21433
1.21694
1.21229
1.20051
1.19694
1.19897
1.20221
1.20545
1.20964
1.22471
1.24622
1.25669
1.26164
1.2658
1.26639
1.25462
1.24452
1.24392
1.24717
1.25116
1.25546
1.26778
1.29081
1.30412
1.31014
1.31429
1.31735
1.31366
1.29994
1.29269
1.2935
1.29726
1.30206
1.31176
1.3347
1.35332
1.36204
1.36704
1.37091
1.37253
1.36223
1.34822
1.34389
1.34641
1.35091
1.35837
1.37913
1.40235
1.41472
1.42081
1.42543
1.4292
1.42655
1.411
1.39847
1.39601
1.39906
1.4041
1.41922
1.44459
1.46223
1.47047
1.47492
1.47813
1.47888
1.46791
1.44679
1.43368
1.43096
1.43272
1.44795
1.46503
1.49123
2.28369
5.62643
1.12141
1.12719
1.12921
1.12622
1.12033
1.1198
1.12133
1.12339
1.1263
1.13342
1.15165
1.16484
1.17027
1.17335
1.17499
1.16801
1.16061
1.16017
1.16165
1.16365
1.16676
1.17307
1.1922
1.20949
1.21694
1.22134
1.22409
1.21761
1.20641
1.20359
1.20467
1.20642
1.20955
1.21497
1.23237
1.25287
1.26268
1.26751
1.27097
1.27114
1.26045
1.25203
1.2518
1.25341
1.25554
1.25945
1.27205
1.29466
1.30808
1.31426
1.31925
1.32342
1.32095
1.30771
1.30086
1.30178
1.30459
1.30803
1.31599
1.33769
1.35617
1.3646
1.3697
1.37415
1.37691
1.36932
1.35633
1.35193
1.35367
1.35736
1.36326
1.38115
1.40418
1.41686
1.4233
1.42818
1.43202
1.43144
1.41889
1.40586
1.40227
1.40408
1.40786
1.41966
1.44368
1.46212
1.47082
1.47551
1.47901
1.48051
1.47273
1.45167
1.4344
1.42852
1.42972
1.44021
1.4719
2.30299
5.61493
1.12265
1.13087
1.13315
1.13464
1.12884
1.12365
1.12383
1.12599
1.12859
1.13184
1.14108
1.16057
1.17219
1.17723
1.17986
1.18007
1.17091
1.16384
1.1637
1.16604
1.16884
1.17213
1.18009
1.20102
1.21721
1.22411
1.22799
1.22991
1.22219
1.20992
1.20673
1.20891
1.21207
1.21535
1.22071
1.23852
1.25833
1.26756
1.27267
1.2772
1.27772
1.2658
1.25543
1.25388
1.2563
1.25961
1.26396
1.27748
1.30098
1.31536
1.32165
1.32599
1.33028
1.32745
1.31387
1.30553
1.30469
1.30698
1.31048
1.31834
1.34008
1.35989
1.36976
1.37584
1.38133
1.38471
1.37837
1.36421
1.35715
1.35728
1.35984
1.36443
1.37969
1.40396
1.41923
1.42679
1.4325
1.4376
1.43959
1.42917
1.4136
1.40674
1.40703
1.40967
1.41702
1.4392
1.46039
1.47077
1.47592
1.47954
1.48178
1.47759
1.45799
1.4364
1.42663
1.42222
1.44836
2.29803
5.60242
1.12106
1.13448
1.13776
1.14051
1.14
1.13174
1.12788
1.12885
1.13091
1.13306
1.1362
1.14786
1.16816
1.17865
1.18371
1.18683
1.18572
1.17489
1.16876
1.16931
1.17157
1.17424
1.17736
1.1861
1.20791
1.22258
1.22857
1.23261
1.23475
1.22705
1.21599
1.2137
1.21498
1.21689
1.21998
1.22627
1.24573
1.2653
1.27411
1.27851
1.28146
1.28199
1.27155
1.26097
1.25927
1.26195
1.2658
1.27039
1.28343
1.30659
1.3205
1.32699
1.33112
1.33434
1.33297
1.31982
1.30984
1.30867
1.31175
1.31597
1.32364
1.34491
1.3662
1.37689
1.38238
1.38643
1.38983
1.38569
1.37024
1.36028
1.3595
1.36282
1.36759
1.38101
1.40615
1.42475
1.43338
1.43825
1.44237
1.44476
1.43651
1.41905
1.40861
1.40743
1.41025
1.41664
1.43631
1.45916
1.47203
1.47788
1.48087
1.48216
1.4799
1.46373
1.43977
1.42132
1.42846
2.26961
5.59011
1.11583
1.13655
1.14222
1.1455
1.14781
1.14337
1.13398
1.13117
1.13172
1.13351
1.13632
1.14085
1.1563
1.17709
1.18661
1.19111
1.19432
1.19111
1.1789
1.17319
1.17332
1.17464
1.17721
1.18102
1.19211
1.21502
1.22911
1.23494
1.23927
1.24152
1.2327
1.22001
1.21664
1.21883
1.2221
1.22571
1.23208
1.25106
1.26967
1.27799
1.28331
1.28785
1.28899
1.27858
1.26757
1.26602
1.26831
1.2711
1.27507
1.28727
1.30969
1.32362
1.32989
1.33446
1.33875
1.33876
1.32712
1.31725
1.31619
1.31887
1.32252
1.32898
1.3477
1.36864
1.37922
1.38487
1.38948
1.393
1.3912
1.37826
1.36767
1.36618
1.36921
1.37365
1.38397
1.40705
1.42632
1.43573
1.44099
1.44486
1.44688
1.44205
1.42618
1.41412
1.4113
1.41284
1.41711
1.43375
1.45715
1.47143
1.47769
1.48036
1.48129
1.47938
1.46783
1.43985
1.42489
2.22026
5.58077
1.10979
1.13213
1.14441
1.1495
1.15219
1.15303
1.14462
1.13528
1.13392
1.13588
1.1386
1.14169
1.14785
1.16663
1.18552
1.19365
1.19792
1.20074
1.19563
1.18156
1.17573
1.17676
1.17941
1.18246
1.18694
1.20085
1.22362
1.23605
1.24143
1.24489
1.24648
1.23654
1.22459
1.22252
1.22427
1.22651
1.23018
1.23748
1.2583
1.27732
1.28558
1.28985
1.29326
1.29454
1.2842
1.27215
1.26916
1.27142
1.27502
1.27934
1.29151
1.31453
1.32966
1.33642
1.34063
1.3451
1.34601
1.33518
1.32385
1.32112
1.32276
1.32556
1.33087
1.34789
1.37021
1.38264
1.38905
1.39459
1.39939
1.39992
1.38836
1.37592
1.37231
1.37353
1.37645
1.383
1.4034
1.42515
1.43633
1.44201
1.44702
1.45115
1.45012
1.43579
1.42064
1.41474
1.41489
1.41717
1.42854
1.45214
1.46868
1.47566
1.47839
1.47937
1.47927
1.46773
1.44619
2.17733
5.57513
1.10846
1.12009
1.13997
1.15069
1.1555
1.15829
1.15732
1.14626
1.13914
1.13958
1.14201
1.14478
1.14781
1.1547
1.1744
1.19133
1.19814
1.20185
1.20434
1.19894
1.186
1.18159
1.18309
1.18591
1.18905
1.19362
1.20747
1.22862
1.23957
1.24448
1.24795
1.2498
1.24156
1.22968
1.22686
1.22938
1.23302
1.23716
1.24419
1.26318
1.28082
1.28866
1.29305
1.29632
1.29813
1.29039
1.27848
1.27501
1.27723
1.28116
1.28602
1.29685
1.31846
1.33402
1.34152
1.34601
1.34941
1.35133
1.34269
1.32977
1.32497
1.32666
1.33051
1.33595
1.35055
1.37351
1.38847
1.39556
1.40026
1.40425
1.40639
1.39738
1.38208
1.37486
1.37512
1.37853
1.38436
1.40146
1.42563
1.44085
1.44765
1.45184
1.45531
1.45598
1.44425
1.4258
1.41584
1.41432
1.41622
1.4243
1.44662
1.46605
1.475
1.47762
1.4787
1.47545
1.47689
2.16661
5.56913
1.10954
1.11449
1.12773
1.14768
1.15744
1.16179
1.16452
1.16165
1.14957
1.1443
1.14511
1.14687
1.14903
1.15241
1.16059
1.18128
1.19716
1.20369
1.20751
1.21049
1.20445
1.19174
1.18784
1.18906
1.19091
1.19348
1.19808
1.21251
1.23339
1.24447
1.24945
1.25333
1.25573
1.24826
1.23736
1.23514
1.23667
1.23834
1.24126
1.24743
1.26568
1.28392
1.29275
1.29787
1.30262
1.30541
1.29913
1.28713
1.28307
1.28474
1.28726
1.29051
1.29876
1.31923
1.33596
1.34387
1.34878
1.35319
1.35655
1.351
1.33875
1.33321
1.33388
1.33641
1.34029
1.35142
1.37347
1.38982
1.39798
1.40321
1.40772
1.41045
1.4055
1.39097
1.38174
1.38057
1.3831
1.38766
1.40154
1.42539
1.4421
1.45007
1.45456
1.4575
1.45819
1.4502
1.43173
1.41867
1.41503
1.41576
1.42136
1.44199
1.46315
1.47315
1.47675
1.47411
1.48979
2.17901
5.5624
1.11243
1.11604
1.12058
1.13527
1.15414
1.16302
1.16736
1.16965
1.16568
1.15383
1.14863
1.14953
1.15219
1.15503
1.15843
1.16707
1.18775
1.20267
1.20925
1.21301
1.21518
1.20959
1.19719
1.1923
1.19343
1.19625
1.19941
1.20396
1.21797
1.23855
1.25006
1.25557
1.25921
1.26169
1.25481
1.24262
1.2381
1.23957
1.24253
1.24601
1.25192
1.26979
1.28969
1.2999
1.3049
1.30854
1.3117
1.30653
1.29318
1.28664
1.28695
1.28981
1.29339
1.30078
1.32117
1.34036
1.34998
1.35525
1.36015
1.36395
1.36028
1.34668
1.33778
1.33669
1.33903
1.34241
1.3505
1.37193
1.39154
1.40141
1.40723
1.41275
1.41671
1.41459
1.40051
1.38838
1.38543
1.38691
1.38978
1.39846
1.4213
1.44117
1.45035
1.45473
1.45842
1.46118
1.45716
1.43936
1.42286
1.41653
1.41607
1.41889
1.43673
1.45834
1.46976
1.47072
1.49112
2.21076
5.55652
1.11564
1.11856
1.12076
1.1248
1.14041
1.15931
1.168
1.17269
1.17579
1.1719
1.16017
1.1555
1.15639
1.15834
1.1605
1.16306
1.17093
1.1914
1.2063
1.21282
1.2174
1.22059
1.21644
1.20451
1.19959
1.20033
1.20233
1.2048
1.20849
1.22161
1.24246
1.25429
1.25986
1.26355
1.26613
1.26181
1.25011
1.24483
1.24562
1.24823
1.25156
1.25656
1.27263
1.29302
1.3037
1.30919
1.31295
1.31559
1.31313
1.30078
1.29224
1.2916
1.29468
1.29898
1.30598
1.3241
1.34455
1.35553
1.36099
1.36462
1.36768
1.36661
1.35435
1.34292
1.3403
1.34297
1.34712
1.35437
1.37345
1.39544
1.40746
1.41307
1.41719
1.42059
1.42065
1.40874
1.39374
1.38753
1.38813
1.39137
1.39847
1.41855
1.44096
1.45316
1.45823
1.46139
1.46366
1.46254
1.44798
1.42755
1.41701
1.41513
1.41672
1.43047
1.45233
1.46178
1.48639
2.24786
5.54833
1.11867
1.11984
1.12167
1.12448
1.12976
1.14724
1.16669
1.17545
1.17956
1.18227
1.17801
1.16566
1.15989
1.15951
1.16034
1.16241
1.16593
1.17516
1.19671
1.21296
1.22002
1.22442
1.22784
1.22359
1.21052
1.20393
1.2035
1.20486
1.20738
1.21178
1.22515
1.24632
1.25878
1.26478
1.26981
1.27336
1.26988
1.25739
1.25056
1.25054
1.25216
1.25482
1.25962
1.27467
1.29566
1.30746
1.3131
1.31812
1.32218
1.32116
1.30919
1.29979
1.29894