/*--------------------------------*- C++ -*----------------------------------*\
  =========                 |
  \\      /  F ield         | OpenFOAM: The Open Source CFD Toolbox
   \\    /   O peration     | Website:  https://openfoam.org
    \\  /    A nd           | Version:  12
     \\/     M anipulation  |
\*---------------------------------------------------------------------------*/
FoamFile
{
    format      ascii;
    class       volVectorField;
    location    "9.61";
    object      U;
}
// * * * * * * * * * * * * * * * * * * * * * * * * * * * * * * * * * * * * * //

dimensions      [0 1 -1 0 0 0 0];

internalField   nonuniform List<vector> 
22702
(
(2 -1.90759e-13 0)
(2 -3.40214e-14 0)
(2.04883 -0.0910802 0)
(2 -1.12996e-09 0)
(1.97529 0.037401 0)
(2 2.20422e-14 0)
(1.83022 0.228939 0)
(2 -1.50128e-14 0)
(2 -9.15861e-14 0)
(2.11546 -0.266716 0)
(1.83016 0.22915 0)
(1.83035 0.228659 0)
(2 -8.75449e-14 0)
(1.83148 0.228664 0)
(2.04058 -0.0795807 0)
(2 -3.06308e-13 0)
(2 -1.13249e-13 0)
(2 -6.45918e-14 0)
(1.82982 0.22876 0)
(2 -7.54803e-14 0)
(1.83146 0.229174 0)
(2 -2.34082e-13 0)
(1.82929 0.228251 0)
(2.11651 -0.274962 0)
(1.83263 0.230124 0)
(2.14244 -0.261896 0)
(2 -6.84823e-14 0)
(1.82861 0.22865 0)
(2.10377 -0.261938 0)
(2.11847 -0.273499 0)
(2 1.78867e-14 0)
(1.82974 0.228088 0)
(2 1.90667e-14 0)
(2 -7.76416e-14 0)
(2 -1.83212e-14 0)
(1.84442 0.214828 0)
(1.83163 0.229332 0)
(1.82942 0.228543 0)
(2 8.42803e-14 0)
(2 3.55398e-14 0)
(2.12519 -0.265413 0)
(2 -1.00599e-13 0)
(1.91635 0.123695 0)
(2 2.26351e-14 0)
(1.82836 0.228306 0)
(2 -1.20565e-13 0)
(2 -6.83731e-14 0)
(2 -2.08525e-13 0)
(2 -1.61497e-13 0)
(2.10746 -0.262242 0)
(2 -2.75293e-14 0)
(2.10571 -0.259881 0)
(2 4.11456e-14 0)
(1.83011 0.228839 0)
(2 -2.03122e-13 0)
(1.82927 0.228 0)
(2 -6.01992e-14 0)
(2 1.55242e-09 0)
(2 -1.58933e-13 0)
(2 -1.50506e-13 0)
(2.12079 -0.264697 0)
(2 -2.13424e-13 0)
(2 7.32139e-14 0)
(2.10464 -0.263271 0)
(2 2.36221e-14 0)
(2.11516 -0.260696 0)
(2 -7.16455e-14 0)
(2 -1.12929e-13 0)
(2 6.89581e-14 0)
(2.11747 -0.259038 0)
(2 3.44978e-14 0)
(1.83104 0.228737 0)
(1.89744 0.150345 0)
(2 1.51347e-09 0)
(1.8316 0.228788 0)
(1.82304 0.238673 0)
(2.11792 -0.264878 0)
(1.83101 0.229308 0)
(2.10609 -0.267783 0)
(2 1.21673e-13 0)
(1.83111 0.228992 0)
(2.11035 -0.261548 0)
(1.82828 0.228154 0)
(1.82797 0.227864 0)
(2 -1.45212e-13 0)
(2 1.06427e-06 0)
(2 8.21925e-14 0)
(2 -1.02711e-13 0)
(2.02325 -0.0450572 0)
(2.12192 -0.262965 0)
(1.83085 0.2287 0)
(2 -1.04153e-13 0)
(2 -6.02005e-11 0)
(2.10913 -0.265436 0)
(2 -1.00403e-13 0)
(1.8312 0.229222 0)
(2.11301 -0.265383 0)
(2 2.59043e-08 0)
(2 -7.52832e-14 0)
(2 -5.53863e-14 0)
(2 -1.38368e-13 0)
(1.91647 0.122639 0)
(1.83075 0.228835 0)
(2.14252 -0.261041 0)
(2 -1.57038e-10 0)
(2 -1.05574e-09 0)
(1.95684 0.0655858 0)
(2 9.57417e-09 0)
(2.10911 -0.260539 0)
(2 -5.52853e-14 0)
(1.83137 0.229096 0)
(1.82913 0.228408 0)
(2 4.29175e-09 0)
(2 -2.12642e-13 0)
(2.13309 -0.275579 0)
(2.13018 -0.271967 0)
(2.12024 -0.265007 0)
(2 2.18652e-13 0)
(2 -1.58167e-07 0)
(2 -3.87367e-14 0)
(2 -1.69432e-13 0)
(2 1.21252e-07 0)
(2.02673 -0.0594086 0)
(2 -1.07687e-07 0)
(1.85582 0.20204 0)
(1.9825 0.0248119 0)
(1.83172 0.228862 0)
(2 -8.90553e-14 0)
(1.83202 0.228869 0)
(1.82977 0.228551 0)
(1.83116 0.229032 0)
(1.82962 0.228668 0)
(2 -1.67377e-13 0)
(2.12518 -0.263014 0)
(2 1.00482e-14 0)
(2.10764 -0.266876 0)
(2 -3.21355e-14 0)
(2 -1.23546e-13 0)
(2 -3.02484e-14 0)
(2 -6.32182e-14 0)
(1.82911 0.228329 0)
(2 3.04151e-09 0)
(2 -4.64351e-15 0)
(2 -2.24965e-13 0)
(2 -1.80873e-13 0)
(1.83107 0.22881 0)
(2 4.44837e-14 0)
(1.99378 0.0136547 0)
(2 8.43479e-14 0)
(2 -4.44776e-14 0)
(2 -6.89374e-11 0)
(2 2.25145e-14 0)
(2.11172 -0.261714 0)
(2 -4.94353e-14 0)
(1.99541 0.00943086 0)
(2 -3.03379e-14 0)
(2.10661 -0.265482 0)
(2 -7.2754e-14 0)
(2 2.57482e-14 0)
(2 -1.32235e-13 0)
(1.83079 0.229063 0)
(2 -2.29647e-14 0)
(1.83026 0.228466 0)
(2.13544 -0.278009 0)
(2.11466 -0.26471 0)
(1.83133 0.229087 0)
(1.83015 0.228509 0)
(2 6.66735e-14 0)
(1.97112 0.0444345 0)
(1.90328 0.142331 0)
(2 -4.86703e-14 0)
(1.82873 0.228621 0)
(2.10468 -0.264474 0)
(1.84372 0.215506 0)
(2 1.73445e-14 0)
(2 -1.08112e-13 0)
(2 4.56467e-15 0)
(2 -8.43073e-14 0)
(1.83151 0.228685 0)
(1.8586 0.196271 0)
(2 -4.90588e-14 0)
(1.82968 0.228644 0)
(2.10908 -0.26232 0)
(1.82903 0.228355 0)
(2 -1.68128e-13 0)
(2.08648 -0.260808 0)
(2 -8.07518e-14 0)
(2.11481 -0.26365 0)
(2.13016 -0.259036 0)
(2.0001 -0.000149881 0)
(2 -5.13967e-14 0)
(2 -7.43081e-15 0)
(1.82926 0.227921 0)
(2 6.49805e-14 0)
(2 -3.1853e-14 0)
(1.83152 0.228677 0)
(2 -3.44346e-13 0)
(1.8298 0.228198 0)
(1.82963 0.228781 0)
(2.11457 -0.257878 0)
(2 -1.09041e-13 0)
(2 -2.48291e-13 0)
(2.10665 -0.263962 0)
(1.8314 0.228756 0)
(2 -9.22658e-14 0)
(2 -8.5544e-14 0)
(2 5.02377e-14 0)
(1.83131 0.22888 0)
(2 -1.09007e-13 0)
(2.10663 -0.268225 0)
(2 -6.12601e-11 0)
(2 -1.08072e-13 0)
(1.83155 0.228887 0)
(1.8309 0.228843 0)
(1.83084 0.228772 0)
(2 4.11249e-14 0)
(1.99998 2.64455e-05 0)
(2 -3.26407e-14 0)
(2 -2.14215e-15 0)
(2 -8.07074e-14 0)
(1.83198 0.229067 0)
(2 -1.64788e-13 0)
(2.11445 -0.261956 0)
(1.8248 0.235877 0)
(1.83149 0.228691 0)
(1.8315 0.228665 0)
(2 1.96136e-07 0)
(2 -5.66938e-14 0)
(2 -4.05699e-15 0)
(2.12149 -0.272949 0)
(1.83224 0.228537 0)
(1.9252 0.11886 0)
(2 -5.18962e-14 0)
(1.83072 0.229598 0)
(2.10643 -0.262876 0)
(2.10337 -0.264254 0)
(1.83083 0.229615 0)
(1.83173 0.228308 0)
(2 -3.80083e-14 0)
(1.82851 0.233789 0)
(2.10746 -0.279877 0)
(1.85089 0.206499 0)
(2 -5.68308e-15 0)
(2 -2.03064e-13 0)
(2 3.71609e-14 0)
(2 -2.41076e-13 0)
(1.83177 0.229062 0)
(2 -3.21284e-13 0)
(1.90592 0.138042 0)
(1.98337 0.0301259 0)
(2 -1.75999e-13 0)
(2 -1.49078e-13 0)
(1.83145 0.228643 0)
(2.117 -0.267296 0)
(2.08432 -0.159095 0)
(2 -3.59002e-13 0)
(1.8308 0.229763 0)
(2.11913 -0.261019 0)
(1.82952 0.230097 0)
(2 3.21456e-14 0)
(2 7.49456e-14 0)
(2 8.64074e-14 0)
(2 -1.42912e-13 0)
(2 -5.77894e-14 0)
(2 -9.11628e-14 0)
(2 -3.89018e-14 0)
(2.11176 -0.268806 0)
(2.07843 -0.165015 0)
(2.10131 -0.265492 0)
(1.83115 0.229087 0)
(2 -2.01931e-13 0)
(2 5.60123e-14 0)
(2 -1.95534e-07 0)
(2 -6.98067e-14 0)
(1.84701 0.20968 0)
(2 -2.09277e-07 0)
(2.10572 -0.266117 0)
(2 -1.35293e-14 0)
(2.11773 -0.287129 0)
(2.10664 -0.263136 0)
(1.83228 0.229274 0)
(2.11593 -0.265567 0)
(1.83153 0.229181 0)
(2 4.49822e-14 0)
(2 -1.51822e-13 0)
(2 -1.28832e-13 0)
(2.00083 -0.00154244 0)
(2.09181 -0.253812 0)
(2.0974 -0.286689 0)
(2 -3.05991e-07 0)
(2 -1.54949e-07 0)
(2.12173 -0.28748 0)
(2 2.49639e-09 0)
(1.82928 0.228284 0)
(2.13559 -0.260611 0)
(2 -1.66581e-14 0)
(2 -2.75522e-11 0)
(1.83107 0.228835 0)
(2.10389 -0.280128 0)
(2 -3.56565e-13 0)
(1.83564 0.226073 0)
(2.11551 -0.262975 0)
(1.83139 0.228699 0)
(2 -1.45379e-14 0)
(2.11271 -0.28752 0)
(2.00083 -0.00137541 0)
(2 -5.49e-14 0)
(2 3.16917e-06 0)
(2 4.51451e-14 0)
(2.09885 -0.257527 0)
(2 -1.4775e-13 0)
(2 -1.81493e-07 0)
(2 -9.37946e-08 0)
(1.99999 1.02001e-05 0)
(1.99261 0.00784064 0)
(1.89478 0.151822 0)
(2 -2.52874e-11 0)
(2.11513 -0.245538 0)
(2 -1.49283e-11 0)
(2 1.83814e-06 0)
(2 -1.86728e-14 0)
(2 -1.1026e-13 0)
(2 -3.79704e-14 0)
(2 9.23564e-14 0)
(2 -6.06111e-13 0)
(1.83038 0.228664 0)
(2 1.42033e-13 0)
(1.82868 0.229532 0)
(2 7.0168e-14 0)
(2 -8.6315e-14 0)
(2 4.23258e-14 0)
(2.10789 -0.271492 0)
(2 -7.05768e-14 0)
(1.83073 0.228468 0)
(2.10215 -0.261329 0)
(2 -1.6355e-13 0)
(1.86316 0.198968 0)
(2 4.06488e-14 0)
(2 -1.44568e-13 0)
(1.82979 0.228704 0)
(2 4.86786e-14 0)
(2 -1.05372e-08 0)
(2 2.17751e-13 0)
(1.82996 0.227465 0)
(2 4.61378e-10 0)
(2 -2.25232e-13 0)
(1.83433 0.224947 0)
(1.83028 0.228417 0)
(2 4.60714e-14 0)
(1.96429 0.0528495 0)
(2 -3.68188e-14 0)
(2 -6.11968e-14 0)
(2.1102 -0.267367 0)
(2 -1.10228e-13 0)
(2 -9.61422e-14 0)
(2 -3.21138e-14 0)
(2.10412 -0.266415 0)
(2 7.38625e-16 0)
(2 2.61763e-14 0)
(2 -6.99193e-14 0)
(2 -6.68012e-14 0)
(2.12038 -0.26098 0)
(2 1.6677e-13 0)
(2 -1.09753e-13 0)
(2 -1.30813e-13 0)
(2 -2.08992e-14 0)
(2 -4.98911e-14 0)
(2.08488 -0.271822 0)
(1.99998 4.32523e-05 0)
(1.83019 0.228545 0)
(2 -1.0932e-13 0)
(1.99999 -2.32106e-05 0)
(1.83048 0.228837 0)
(1.83096 0.228873 0)
(2 -9.7231e-14 0)
(2 -5.92443e-14 0)
(2.11214 -0.279642 0)
(2.06347 -0.125326 0)
(1.83 0.228596 0)
(2 -1.56449e-13 0)
(2 1.08991e-13 0)
(2 -2.96348e-13 0)
(1.83142 0.228615 0)
(2.11703 -0.260587 0)
(2 -5.70763e-14 0)
(1.83037 0.228614 0)
(2 -4.23185e-14 0)
(2 -1.4164e-13 0)
(2.1044 -0.221303 0)
(2.10575 -0.220435 0)
(2 2.75005e-14 0)
(2.10804 -0.257695 0)
(2.1066 -0.270809 0)
(2 1.91201e-14 0)
(2 8.68904e-14 0)
(2 9.18262e-14 0)
(2 -2.4009e-14 0)
(2 -1.01497e-10 0)
(2 -8.55766e-14 0)
(2 -1.23983e-13 0)
(1.82987 0.228989 0)
(1.95715 0.0638109 0)
(1.84693 0.210977 0)
(2.084 -0.266312 0)
(2.0316 -0.0697542 0)
(1.83014 0.228496 0)
(2 -7.87413e-14 0)
(1.83176 0.228878 0)
(1.82899 0.228363 0)
(2.1079 -0.266552 0)
(2.0823 -0.152927 0)
(2 3.81899e-13 0)
(2.10611 -0.262024 0)
(2 -3.18339e-14 0)
(1.82394 0.234742 0)
(2 -2.49792e-13 0)
(2 -8.06999e-14 0)
(2 -5.7262e-14 0)
(2 1.6487e-14 0)
(1.83134 0.2288 0)
(2 -1.20019e-13 0)
(2 6.77247e-14 0)
(2 -5.08105e-14 0)
(2 1.53172e-09 0)
(2 -9.46591e-14 0)
(2 -1.76604e-13 0)
(2 -3.08487e-14 0)
(1.9387 0.0976554 0)
(1.83016 0.228526 0)
(2 -8.94401e-15 0)
(1.83098 0.22893 0)
(2 2.94905e-14 0)
(2 -2.30359e-13 0)
(2.10878 -0.261971 0)
(2 -1.53314e-13 0)
(2 -1.22136e-13 0)
(2 -1.10661e-13 0)
(2 -3.88538e-13 0)
(1.83138 0.228782 0)
(1.87181 0.18371 0)
(2 -3.22521e-13 0)
(2 -3.69885e-13 0)
(2.1023 -0.262885 0)
(1.83165 0.228839 0)
(1.8315 0.228817 0)
(2 -1.37871e-13 0)
(1.83159 0.228851 0)
(1.83162 0.228722 0)
(1.8309 0.228849 0)
(2 -9.97608e-14 0)
(2.05748 -0.1149 0)
(2 -4.44864e-14 0)
(1.83223 0.229225 0)
(2.00348 -0.00812402 0)
(1.83092 0.228841 0)
(2 -9.59664e-14 0)
(2.09771 -0.26459 0)
(2.00041 -0.000637682 0)
(1.83053 0.229301 0)
(2 1.31476e-15 0)
(2 -2.41489e-13 0)
(2 -5.96536e-11 0)
(2 -2.20406e-11 0)
(2.11249 -0.26093 0)
(1.83218 0.228928 0)
(1.84768 0.211809 0)
(2 1.44346e-13 0)
(1.83147 0.229193 0)
(1.83176 0.228932 0)
(1.8307 0.228747 0)
(2 2.9487e-13 0)
(1.92528 0.113235 0)
(1.83126 0.229478 0)
(2 -2.03324e-13 0)
(2 -1.69263e-13 0)
(1.88408 0.167361 0)
(1.98005 0.0383692 0)
(1.83125 0.228891 0)
(2.02584 -0.0466077 0)
(1.83115 0.228848 0)
(2 3.48796e-14 0)
(1.83101 0.228854 0)
(1.83118 0.228818 0)
(1.83099 0.2288 0)
(1.83169 0.22891 0)
(2 -7.1993e-14 0)
(1.83452 0.217547 0)
(2.03084 -0.0605354 0)
(2.04298 -0.0701987 0)
(2 -3.08346e-14 0)
(2 -3.22052e-07 0)
(2 -1.75031e-13 0)
(2 -1.47787e-13 0)
(1.83059 0.229036 0)
(2 2.53654e-14 0)
(2 1.52314e-13 0)
(2 -5.1191e-14 0)
(2 3.89705e-14 0)
(2 3.12979e-14 0)
(1.83032 0.229271 0)
(2 -4.67387e-14 0)
(2 -1.56321e-14 0)
(2.00138 -0.0025684 0)
(1.83153 0.228798 0)
(1.84453 0.22274 0)
(2 -9.80634e-14 0)
(1.85789 0.2056 0)
(1.99998 2.55948e-05 0)
(2 4.67451e-14 0)
(2 -1.58296e-14 0)
(1.83148 0.229051 0)
(2 -5.65874e-14 0)
(2.00193 -0.00242852 0)
(1.9986 0.00364564 0)
(2 9.88906e-14 0)
(1.83143 0.22859 0)
(2 9.57699e-14 0)
(1.83205 0.228744 0)
(2 2.30384e-14 0)
(2 1.00857e-13 0)
(1.87246 0.180586 0)
(2 -2.92651e-14 0)
(1.83202 0.229362 0)
(1.99999 1.24295e-05 0)
(2 -5.84525e-14 0)
(1.83094 0.230903 0)
(2 -4.85659e-14 0)
(1.83146 0.228744 0)
(2 2.75639e-14 0)
(2 3.01105e-06 0)
(2 3.13553e-14 0)
(1.83162 0.228803 0)
(2 2.90236e-14 0)
(1.8319 0.227488 0)
(2 4.80393e-06 0)
(1.83144 0.228908 0)
(1.83037 0.228775 0)
(1.83156 0.228747 0)
(1.82807 0.228146 0)
(2 -1.20573e-14 0)
(1.83024 0.229322 0)
(1.83194 0.232488 0)
(2 -2.18421e-14 0)
(2.1195 -0.269139 0)
(1.84178 0.217898 0)
(1.87842 0.173965 0)
(2 -6.80731e-14 0)
(1.8314 0.228742 0)
(2 -3.91634e-14 0)
(2.1156 -0.268596 0)
(2.1168 -0.263344 0)
(2 6.27446e-14 0)
(2 -2.60859e-13 0)
(2 -2.32504e-13 0)
(2 -6.16872e-14 0)
(2 2.16548e-09 0)
(2.11641 -0.267485 0)
(2 -4.90897e-14 0)
(1.83106 0.229031 0)
(1.95403 0.0608626 0)
(1.83165 0.228931 0)
(2 6.82763e-15 0)
(2 6.17309e-11 0)
(2 1.58877e-15 0)
(2 -4.994e-15 0)
(2 -5.4589e-08 0)
(1.83122 0.228948 0)
(2 1.02749e-14 0)
(1.83002 0.230456 0)
(1.89917 0.150424 0)
(2.08191 -0.157075 0)
(2 1.35511e-09 0)
(2 6.5811e-06 0)
(1.94842 0.0803067 0)
(1.96253 0.0640981 0)
(2 -2.9765e-14 0)
(2 -9.90261e-14 0)
(1.93866 0.0889707 0)
(2 -1.27318e-13 0)
(2.10524 -0.261537 0)
(1.83192 0.229149 0)
(1.83165 0.229091 0)
(2 -7.54744e-11 0)
(2 -1.81574e-14 0)
(2 -9.30575e-14 0)
(1.82915 0.228692 0)
(2 -8.90079e-14 0)
(1.99999 1.50904e-05 0)
(1.83168 0.228213 0)
(1.8321 0.228752 0)
(2.01487 -0.031253 0)
(2 -1.02268e-13 0)
(2 1.73779e-10 0)
(2.10607 -0.263798 0)
(1.84734 0.210731 0)
(2 -1.26906e-13 0)
(2 -1.45161e-13 0)
(2 4.52073e-15 0)
(2 -2.73707e-11 0)
(2 1.11839e-13 0)
(1.83144 0.228754 0)
(1.82992 0.22882 0)
(2 -1.59214e-13 0)
(1.83045 0.230256 0)
(1.832 0.227712 0)
(1.83147 0.228741 0)
(2 -4.3485e-15 0)
(2 3.69441e-14 0)
(2 -6.68828e-11 0)
(2 1.50502e-14 0)
(2.1332 -0.261029 0)
(1.82848 0.228243 0)
(2 -5.054e-11 0)
(2 1.55963e-13 0)
(1.84736 0.211489 0)
(1.83195 0.228344 0)
(2 -4.05593e-14 0)
(1.84142 0.218095 0)
(1.83174 0.228721 0)
(2 -9.82686e-14 0)
(2 -2.06667e-07 0)
(2 1.18154e-10 0)
(2 -5.5532e-14 0)
(2 -1.26362e-13 0)
(1.83159 0.228705 0)
(2 -9.74794e-15 0)
(2 -7.52849e-14 0)
(2 -1.14971e-13 0)
(2 1.30042e-13 0)
(1.83156 0.229653 0)
(2 -2.14563e-13 0)
(1.8406 0.225088 0)
(2.1083 -0.265347 0)
(2 -1.19075e-13 0)
(2.12215 -0.265069 0)
(2 9.92402e-14 0)
(2 -1.24734e-07 0)
(2 6.50509e-14 0)
(2.00117 -0.00172814 0)
(2.12107 -0.265107 0)
(2.00033 -0.000526173 0)
(2 -1.85159e-13 0)
(2 -1.30423e-14 0)
(2 -1.13796e-07 0)
(1.97314 0.0394205 0)
(2 -8.09435e-14 0)
(2 1.19209e-13 0)
(2.04718 -0.0910874 0)
(2 -2.21712e-07 0)
(2 -1.62922e-13 0)
(2 -1.06374e-13 0)
(2 -2.01087e-07 0)
(2 4.10111e-07 0)
(2 -1.18862e-07 0)
(2 -1.43608e-13 0)
(2 -1.711e-06 0)
(2.02151 -0.0486151 0)
(2 -4.90137e-07 0)
(2 -3.74659e-08 0)
(2.00087 -0.00139706 0)
(2 -5.34151e-14 0)
(2.11043 -0.25875 0)
(2 -2.69994e-11 0)
(2 -3.83077e-12 0)
(2 -4.71558e-11 0)
(2 -1.74042e-14 0)
(1.87396 0.179868 0)
(2 -1.1319e-13 0)
(2 -4.77146e-14 0)
(2 -7.83445e-14 0)
(2 -1.69582e-07 0)
(2.09365 -0.258781 0)
(2 4.8317e-14 0)
(2 1.37175e-09 0)
(1.84069 0.218406 0)
(1.82834 0.228315 0)
(2 -3.09214e-07 0)
(2 -1.42735e-13 0)
(2 -1.10909e-07 0)
(2.03166 -0.066304 0)
(2 -8.68351e-15 0)
(2 4.79656e-10 0)
(2 6.18688e-14 0)
(2 1.26975e-13 0)
(2 -1.25512e-13 0)
(2 -2.41963e-13 0)
(2.0174 -0.0342072 0)
(1.99263 0.0019703 0)
(1.83205 0.228915 0)
(2 -7.03056e-14 0)
(2 -8.4133e-15 0)
(2 8.04281e-14 0)
(1.83006 0.230972 0)
(2.03529 -0.0693744 0)
(2 -4.90969e-09 0)
(2 -2.70516e-14 0)
(2 -1.36051e-13 0)
(1.82863 0.228534 0)
(1.83041 0.227782 0)
(2 -2.92731e-08 0)
(2 4.9413e-06 0)
(2 3.39423e-09 0)
(2 1.75809e-14 0)
(2 1.23806e-09 0)
(2 9.09445e-14 0)
(2 -1.78225e-11 0)
(2 -2.25791e-15 0)
(2 -2.77307e-13 0)
(2.10591 -0.266406 0)
(2 -9.97948e-14 0)
(2 -1.41853e-11 0)
(1.82877 0.22763 0)
(2.10482 -0.264073 0)
(2 -1.79228e-13 0)
(1.82888 0.227781 0)
(2 7.04147e-11 0)
(2.11403 -0.261863 0)
(2 -5.08914e-14 0)
(2 -1.42732e-13 0)
(2.10386 -0.264733 0)
(2 -3.9215e-13 0)
(2 -1.10119e-11 0)
(2 -5.38316e-12 0)
(2 -3.9753e-14 0)
(2 -3.13837e-12 0)
(2 -1.47052e-13 0)
(2 -5.42942e-14 0)
(1.83449 0.224917 0)
(1.83181 0.228452 0)
(2 2.20771e-13 0)
(2 -1.57808e-13 0)
(2 -2.20513e-13 0)
(2 2.77712e-13 0)
(1.84619 0.212748 0)
(2 1.16624e-13 0)
(1.94419 0.0828645 0)
(2.11666 -0.264569 0)
(2 -2.84088e-08 0)
(2 1.17857e-13 0)
(2 -1.0664e-13 0)
(2 -1.22704e-13 0)
(2 9.28263e-15 0)
(2 -7.40174e-14 0)
(2 4.28969e-14 0)
(1.98379 0.0128964 0)
(2 3.83071e-14 0)
(2 -1.07751e-13 0)
(1.90082 0.130715 0)
(2 2.54407e-15 0)
(2 6.15168e-14 0)
(2 2.53038e-15 0)
(1.85996 0.195427 0)
(2 -1.70983e-14 0)
(2 -1.06338e-13 0)
(2 -8.42521e-14 0)
(2 -1.40767e-13 0)
(2.11747 -0.263747 0)
(2 4.72233e-12 0)
(2 -9.79478e-14 0)
(2.10776 -0.281751 0)
(2.1135 -0.266918 0)
(2 -3.38616e-13 0)
(2 1.5361e-13 0)
(1.83213 0.229071 0)
(2 1.84128e-13 0)
(1.99438 -0.000697881 0)
(2 5.98631e-14 0)
(2 1.31405e-13 0)
(2 1.3675e-13 0)
(1.88219 0.16968 0)
(2.12701 -0.26349 0)
(2 -2.18396e-13 0)
(2.13147 -0.27434 0)
(2 -1.37695e-13 0)
(2.07422 -0.151803 0)
(2 -1.68624e-14 0)
(2 3.16406e-14 0)
(2 8.88156e-14 0)
(1.83056 0.228035 0)
(2 -3.42653e-08 0)
(2 -4.79805e-13 0)
(1.83198 0.22873 0)
(2 2.88208e-14 0)
(2 -2.53117e-11 0)
(2 1.59683e-09 0)
(1.8319 0.228943 0)
(2 2.7e-10 0)
(2 6.41087e-14 0)
(1.83221 0.229385 0)
(2 -1.51611e-13 0)
(2 3.71277e-14 0)
(2.10458 -0.264072 0)
(2 -1.70155e-11 0)
(1.94632 0.0810204 0)
(2 4.3546e-14 0)
(2 1.1288e-14 0)
(1.82947 0.228724 0)
(1.83039 0.228392 0)
(1.88777 0.159993 0)
(1.84965 0.207779 0)
(2 -1.56797e-13 0)
(2.10261 -0.265837 0)
(2 -2.66068e-14 0)
(2 2.62206e-14 0)
(1.83854 0.220753 0)
(2 2.95213e-14 0)
(2.12591 -0.262139 0)
(2 6.44238e-14 0)
(2 -5.70384e-14 0)
(2 -3.99175e-14 0)
(1.83138 0.228787 0)
(2 -7.31873e-14 0)
(2 1.93565e-13 0)
(2 1.40166e-14 0)
(2 -2.86719e-14 0)
(1.89958 0.147871 0)
(2 8.76998e-14 0)
(1.84075 0.205235 0)
(1.83113 0.228743 0)
(2.10725 -0.264854 0)
(2 -1.51047e-13 0)
(2 1.73915e-13 0)
(2.14953 -0.256386 0)
(2.1499 -0.259607 0)
(2 -1.16744e-13 0)
(2 -5.73773e-14 0)
(2 -5.72187e-12 0)
(1.88142 0.171843 0)
(1.87022 0.183959 0)
(2 -6.17409e-14 0)
(2 9.37448e-14 0)
(2 -1.15866e-13 0)
(2 -2.57098e-14 0)
(2 1.02988e-14 0)
(2 -3.76291e-14 0)
(2 -1.02746e-13 0)
(1.92815 0.107432 0)
(1.82818 0.228124 0)
(1.99548 0.00657695 0)
(2 -7.28239e-14 0)
(1.83397 0.226736 0)
(2.12085 -0.26084 0)
(2 -2.93258e-14 0)
(2 4.97593e-14 0)
(2 1.49466e-13 0)
(1.90592 0.138192 0)
(2 1.47009e-13 0)
(1.96428 0.0567559 0)
(2 -1.08944e-13 0)
(1.84647 0.21231 0)
(1.8323 0.228276 0)
(2 -6.37814e-14 0)
(2.09818 -0.265798 0)
(2 -1.8339e-13 0)
(1.82873 0.228561 0)
(2 3.00345e-14 0)
(2 -1.86369e-13 0)
(1.83138 0.228886 0)
(1.8419 0.217573 0)
(2 -2.82635e-13 0)
(1.8269 0.229557 0)
(2 -2.32407e-13 0)
(2.11121 -0.263984 0)
(2 4.45575e-15 0)
(2 -2.07718e-13 0)
(2 1.44497e-14 0)
(1.83027 0.230398 0)
(1.8349 0.224785 0)
(1.85209 0.205084 0)
(2 -3.85073e-14 0)
(1.83058 0.227673 0)
(1.83161 0.228713 0)
(2 -1.8007e-13 0)
(1.8312 0.229058 0)
(2 -8.87454e-09 0)
(1.8323 0.228259 0)
(2 1.84784e-13 0)
(2.12132 -0.258981 0)
(2.00478 -0.0123327 0)
(2.1094 -0.271108 0)
(2 -3.3908e-11 0)
(2 -2.21036e-11 0)
(2 -3.35827e-11 0)
(2 -3.84055e-13 0)
(2 -1.37876e-11 0)
(1.83179 0.228665 0)
(2 -6.95327e-14 0)
(1.83154 0.228536 0)
(2 -2.11494e-11 0)
(2 -9.21424e-11 0)
(2 2.35921e-13 0)
(1.83999 0.220008 0)
(2 -8.67708e-14 0)
(2.12754 -0.268942 0)
(1.83165 0.228776 0)
(2 -8.88689e-15 0)
(2.10704 -0.259891 0)
(2.11298 -0.246753 0)
(2.1215 -0.256675 0)
(2 -6.97114e-14 0)
(1.91634 0.11939 0)
(1.98462 0.0182127 0)
(1.83088 0.22955 0)
(1.83145 0.228793 0)
(2 5.48227e-14 0)
(2 -3.59629e-07 0)
(2 -7.63486e-08 0)
(2 -6.7204e-14 0)
(1.83148 0.228918 0)
(2 -7.85149e-14 0)
(2 8.35965e-14 0)
(1.83148 0.228907 0)
(1.83164 0.228763 0)
(2 -9.81653e-14 0)
(1.94103 0.0855722 0)
(1.99991 0.000586914 0)
(2 1.33717e-14 0)
(2.00115 -0.00194827 0)
(1.83183 0.22887 0)
(2.05451 -0.0968545 0)
(2 -1.20713e-07 0)
(2.06075 -0.12771 0)
(2.10548 -0.261641 0)
(2.105 -0.261586 0)
(2.02494 -0.0745138 0)
(1.82918 0.228212 0)
(1.83399 0.226454 0)
(1.96665 0.0517632 0)
(1.83107 0.22898 0)
(1.83143 0.228954 0)
(2 -1.48184e-13 0)
(2 -1.87685e-13 0)
(1.83092 0.228839 0)
(1.82879 0.227977 0)
(1.83117 0.229156 0)
(1.82861 0.227513 0)
(2 -9.76329e-14 0)
(1.8315 0.228997 0)
(2.1207 -0.266586 0)
(1.82985 0.229386 0)
(1.83101 0.227523 0)
(1.82827 0.228632 0)
(1.83089 0.228501 0)
(2.04306 -0.0876047 0)
(2.03632 -0.063645 0)
(2.02377 -0.051616 0)
(1.83222 0.229445 0)
(2.01257 -0.0295464 0)
(1.83129 0.228455 0)
(2 -9.16084e-14 0)
(2 1.67113e-13 0)
(1.83086 0.229746 0)
(1.83061 0.228644 0)
(2 -2.22765e-13 0)
(2.10401 -0.263962 0)
(1.83032 0.229045 0)
(1.83195 0.229076 0)
(2 8.62373e-14 0)
(1.83159 0.229457 0)
(1.83164 0.229044 0)
(2 -7.30493e-14 0)
(1.8315 0.228798 0)
(2.09612 -0.255865 0)
(1.83094 0.230084 0)
(1.82915 0.22851 0)
(1.82922 0.228663 0)
(1.83198 0.228772 0)
(2 -3.16241e-14 0)
(2 5.2312e-14 0)
(2 -1.09761e-07 0)
(1.83218 0.229209 0)
(1.89157 0.15551 0)
(2.11441 -0.244595 0)
(1.83211 0.228795 0)
(2.10537 -0.277377 0)
(1.83221 0.229246 0)
(2 8.95636e-14 0)
(2 -1.66108e-13 0)
(2 6.75637e-15 0)
(2 -1.49892e-13 0)
(1.83087 0.229382 0)
(1.83212 0.228891 0)
(2 2.26955e-13 0)
(2 1.15319e-14 0)
(1.83202 0.22884 0)
(2.10516 -0.274499 0)
(1.83133 0.229446 0)
(2.10708 -0.261417 0)
(2 5.13124e-14 0)
(1.83268 0.227785 0)
(2 -1.04955e-13 0)
(2.11485 -0.268362 0)
(1.83083 0.229456 0)
(2.09224 -0.191937 0)
(2 8.22784e-15 0)
(1.83148 0.228726 0)
(1.8305 0.22999 0)
(1.83224 0.227908 0)
(2 -2.59067e-13 0)
(2 -6.7334e-15 0)
(1.92539 0.110966 0)
(1.83067 0.229744 0)
(2.11464 -0.26683 0)
(1.83168 0.22892 0)
(2 4.74838e-14 0)
(1.83201 0.229058 0)
(2.03966 -0.0746307 0)
(1.83239 0.228439 0)
(2.10899 -0.265597 0)
(2 -6.83236e-14 0)
(1.83184 0.22928 0)
(2.11096 -0.239655 0)
(1.83088 0.229772 0)
(2.1142 -0.260513 0)
(2 1.10534e-13 0)
(1.83137 0.228857 0)
(2 -7.62395e-15 0)
(1.83099 0.228379 0)
(2 -1.37749e-13 0)
(1.90027 0.146419 0)
(1.83798 0.221535 0)
(1.86798 0.184569 0)
(2.13258 -0.274284 0)
(2 -1.41218e-13 0)
(1.83137 0.229187 0)
(2 1.51527e-14 0)
(1.83187 0.228824 0)
(2 -1.16162e-07 0)
(1.83145 0.229125 0)
(2 -2.3768e-07 0)
(2 -8.37293e-14 0)
(1.83133 0.228666 0)
(2.00361 -0.0123233 0)
(1.83051 0.230176 0)
(2.10965 -0.268072 0)
(1.86121 0.195085 0)
(2 3.94996e-14 0)
(1.87848 0.172711 0)
(2 3.08572e-14 0)
(1.83111 0.228015 0)
(1.83158 0.228995 0)
(1.83046 0.227569 0)
(2 1.96125e-13 0)
(1.84875 0.20943 0)
(1.8315 0.229569 0)
(1.84334 0.215018 0)
(1.89625 0.152521 0)
(1.83902 0.22716 0)
(2 1.02514e-13 0)
(1.88877 0.158702 0)
(2 2.04184e-14 0)
(1.83134 0.228751 0)
(2 -2.0275e-14 0)
(1.97347 0.0396774 0)
(2 -6.67798e-14 0)
(1.84403 0.214261 0)
(2 -1.0027e-13 0)
(1.83194 0.228951 0)
(1.83893 0.220736 0)
(1.83988 0.219886 0)
(2 9.24194e-14 0)
(1.83174 0.234227 0)
(2.12279 -0.263563 0)
(2 5.94909e-14 0)
(2.10843 -0.269082 0)
(2 -1.72596e-13 0)
(2 4.18719e-15 0)
(2 1.32311e-15 0)
(1.83163 0.229019 0)
(2 1.3798e-13 0)
(1.83125 0.229198 0)
(2 1.63657e-14 0)
(2 9.72237e-15 0)
(2 -2.70032e-14 0)
(1.83153 0.229212 0)
(1.83439 0.22403 0)
(1.87063 0.183467 0)
(1.83106 0.229818 0)
(1.83006 0.230581 0)
(2.12415 -0.259806 0)
(1.82927 0.230601 0)
(1.82951 0.228532 0)
(2 -1.37619e-13 0)
(1.85143 0.204603 0)
(1.83169 0.228791 0)
(1.8382 0.228718 0)
(2 -1.5391e-13 0)
(1.82855 0.228691 0)
(1.82948 0.2284 0)
(2 9.8991e-14 0)
(1.82611 0.229727 0)
(1.83068 0.229035 0)
(1.83109 0.229229 0)
(1.83086 0.229223 0)
(2 -3.45724e-13 0)
(2 -7.58961e-15 0)
(2 -1.23903e-13 0)
(1.83193 0.228773 0)
(2.12172 -0.264167 0)
(2 -9.07777e-14 0)
(1.83126 0.228941 0)
(2 6.85564e-15 0)
(2 1.12018e-13 0)
(2.11685 -0.262866 0)
(2 -1.16035e-14 0)
(2 1.08901e-13 0)
(1.83124 0.228945 0)
(1.83181 0.229072 0)
(2 -1.9846e-15 0)
(1.8316 0.228989 0)
(1.83277 0.233181 0)
(1.83154 0.228782 0)
(2.00089 -0.0112909 0)
(1.83134 0.228775 0)
(2 7.3718e-15 0)
(1.83133 0.228937 0)
(1.83174 0.228782 0)
(1.86783 0.183716 0)
(2 1.39265e-13 0)
(2 -8.78949e-14 0)
(2 2.93424e-14 0)
(1.83107 0.230119 0)
(1.83125 0.228858 0)
(1.83203 0.228817 0)
(2.0191 -0.0419971 0)
(2 -1.115e-13 0)
(1.82884 0.231941 0)
(1.83143 0.229049 0)
(1.83115 0.228892 0)
(2 2.07642e-13 0)
(1.83137 0.228872 0)
(1.83141 0.228931 0)
(1.83122 0.228855 0)
(1.83034 0.232781 0)
(2 -1.12281e-13 0)
(1.83152 0.2294 0)
(1.82926 0.231736 0)
(1.85461 0.203584 0)
(1.83194 0.229754 0)
(1.83105 0.231948 0)
(2 -2.33046e-14 0)
(1.83007 0.233318 0)
(1.83354 0.226664 0)
(1.83198 0.228788 0)
(1.83014 0.230055 0)
(1.83191 0.228729 0)
(2.11766 -0.264742 0)
(1.83127 0.228766 0)
(1.83147 0.230081 0)
(2 -2.74935e-14 0)
(1.83163 0.228898 0)
(1.83171 0.229 0)
(1.83151 0.229037 0)
(1.83154 0.229191 0)
(2 -5.39881e-08 0)
(1.83178 0.228707 0)
(1.83148 0.228801 0)
(2 -1.73124e-07 0)
(1.83218 0.229163 0)
(1.85874 0.198316 0)
(2 -1.76478e-13 0)
(2 3.94761e-14 0)
(2 5.46012e-10 0)
(1.83145 0.230189 0)
(1.83166 0.229016 0)
(2 8.62126e-15 0)
(2 1.68543e-14 0)
(1.90694 0.137522 0)
(2 2.94455e-14 0)
(1.83184 0.229113 0)
(2 -3.57724e-14 0)
(2 1.0433e-13 0)
(1.83172 0.229022 0)
(1.83072 0.229569 0)
(1.83167 0.228851 0)
(1.83145 0.228844 0)
(2 -5.79286e-15 0)
(2 7.19152e-14 0)
(2 1.03723e-13 0)
(1.88158 0.166935 0)
(2 -2.10471e-13 0)
(1.83172 0.229018 0)
(2 -6.87029e-14 0)
(2 -9.28887e-14 0)
(1.8319 0.22879 0)
(1.82926 0.228364 0)
(2 -3.69892e-14 0)
(1.83151 0.228806 0)
(2.12296 -0.269987 0)
(1.83145 0.228846 0)
(1.83126 0.229921 0)
(2.08339 -0.202052 0)
(2 1.18985e-13 0)
(2.15313 -0.269241 0)
(1.84992 0.205568 0)
(1.83177 0.229666 0)
(1.83231 0.228991 0)
(1.83227 0.228471 0)
(2.09616 -0.269236 0)
(1.83147 0.229532 0)
(1.83154 0.229624 0)
(2.1001 -0.269601 0)
(2.10669 -0.279153 0)
(2 -2.53958e-07 0)
(1.83116 0.229399 0)
(1.83204 0.228629 0)
(2 1.49973e-14 0)
(2 2.50358e-14 0)
(1.83155 0.228744 0)
(2 -1.37652e-13 0)
(1.8323 0.228555 0)
(2 2.40392e-06 0)
(1.85159 0.206193 0)
(2 -1.00414e-14 0)
(1.92305 0.119336 0)
(1.83205 0.228704 0)
(1.83053 0.230041 0)
(1.87576 0.17315 0)
(1.84979 0.208586 0)
(1.83107 0.22867 0)
(1.82977 0.229235 0)
(1.83645 0.236729 0)
(2 -1.08474e-13 0)
(2.11855 -0.267402 0)
(1.82978 0.230881 0)
(1.83176 0.22931 0)
(1.82694 0.230706 0)
(2 6.74969e-06 0)
(2 3.61483e-10 0)
(2 1.28942e-09 0)
(1.82767 0.229107 0)
(2 -3.01081e-14 0)
(1.83163 0.229132 0)
(1.83236 0.229302 0)
(2.08569 -0.177552 0)
(2 -2.61386e-14 0)
(1.8314 0.228871 0)
(2.00002 -4.28647e-05 0)
(2 6.30135e-15 0)
(1.99999 1.89548e-05 0)
(1.99998 2.78764e-05 0)
(1.83168 0.229236 0)
(1.83099 0.228227 0)
(2.00056 -0.000914113 0)
(2 8.07979e-14 0)
(2 -3.51862e-14 0)
(1.83189 0.228761 0)
(1.83072 0.229736 0)
(1.83154 0.229081 0)
(1.82947 0.230316 0)
(1.83153 0.228592 0)
(2.13824 -0.242505 0)
(1.85382 0.207035 0)
(2 -2.58798e-13 0)
(1.83243 0.227713 0)
(1.83186 0.228955 0)
(1.83173 0.228676 0)
(1.83331 0.235779 0)
(2 -4.72462e-14 0)
(1.83158 0.228986 0)
(1.8363 0.22384 0)
(1.83085 0.229696 0)
(2 -6.41432e-14 0)
(1.83096 0.229076 0)
(1.83086 0.229011 0)
(2.05431 -0.0896512 0)
(1.83168 0.228879 0)
(1.83088 0.229257 0)
(2 -4.08297e-14 0)
(1.83129 0.229223 0)
(2.06454 -0.0983818 0)
(1.8307 0.228788 0)
(2.04851 -0.0962496 0)
(1.83146 0.229142 0)
(2 -1.3703e-07 0)
(1.83151 0.22891 0)
(1.82436 0.233334 0)
(1.83157 0.228999 0)
(1.83143 0.229196 0)
(1.83147 0.228998 0)
(1.83048 0.22845 0)
(1.83113 0.22947 0)
(1.82887 0.228093 0)
(2 -4.63768e-14 0)
(2.02608 -0.0484833 0)
(1.83089 0.228889 0)
(1.8318 0.228867 0)
(2.05695 -0.102608 0)
(1.83161 0.228718 0)
(2.00253 -0.0070152 0)
(1.89308 0.150573 0)
(1.83133 0.229164 0)
(1.8316 0.228868 0)
(1.83015 0.229804 0)
(2 5.58591e-14 0)
(1.83049 0.230009 0)
(1.8869 0.161298 0)
(1.83071 0.229214 0)
(2.02378 -0.0568016 0)
(1.83062 0.229956 0)
(1.82637 0.230871 0)
(2 5.97924e-15 0)
(2.04458 -0.0861417 0)
(2 -5.00951e-09 0)
(1.83914 0.223068 0)
(2 -9.76767e-14 0)
(1.8836 0.167519 0)
(2 4.13618e-09 0)
(1.83222 0.227358 0)
(2.02928 -0.0923066 0)
(2 9.82394e-14 0)
(1.83249 0.228722 0)
(1.83259 0.226752 0)
(2 -8.28533e-14 0)
(1.83129 0.228605 0)
(1.83082 0.229705 0)
(1.83479 0.231317 0)
(1.83718 0.223425 0)
(1.83417 0.228794 0)
(2 -1.186e-14 0)
(1.82902 0.228922 0)
(2 -3.23547e-14 0)
(2 -7.74612e-14 0)
(2 -8.40458e-14 0)
(2.02524 -0.0719466 0)
(1.83164 0.228905 0)
(1.83099 0.229741 0)
(1.83006 0.231591 0)
(1.83161 0.228777 0)
(1.83522 0.227152 0)
(1.82866 0.23062 0)
(1.8291 0.228337 0)
(1.83129 0.229213 0)
(2.02667 -0.0704619 0)
(1.9871 0.020547 0)
(2 3.70023e-09 0)
(2 2.94734e-14 0)
(1.82572 0.233007 0)
(1.83136 0.229093 0)
(1.83149 0.228964 0)
(1.8314 0.229001 0)
(1.99999 1.60941e-05 0)
(1.91352 0.127862 0)
(2 -1.6797e-07 0)
(1.82556 0.229999 0)
(1.86065 0.195752 0)
(2 -2.51897e-12 0)
(2 -5.68772e-11 0)
(2.07447 -0.189591 0)
(1.83165 0.228819 0)
(2 -2.59875e-14 0)
(2 1.19423e-13 0)
(2.1165 -0.266591 0)
(1.83117 0.228891 0)
(2 3.94795e-14 0)
(1.82837 0.228346 0)
(1.83155 0.228902 0)
(1.83145 0.228888 0)
(1.83814 0.22147 0)
(1.8315 0.22886 0)
(2 -1.55123e-10 0)
(2.13614 -0.270036 0)
(1.95453 0.0671027 0)
(1.83121 0.22899 0)
(1.83151 0.228908 0)
(2 1.09849e-13 0)
(1.83216 0.229183 0)
(1.8312 0.228948 0)
(1.91523 0.125473 0)
(1.99945 0.00443196 0)
(1.96506 0.0593133 0)
(2 2.95282e-14 0)
(1.83046 0.229034 0)
(1.8316 0.22879 0)
(2 -1.11519e-07 0)
(2 -2.11192e-10 0)
(2.092 -0.268754 0)
(2 -2.33853e-10 0)
(2 4.60538e-14 0)
(1.83164 0.228945 0)
(1.83134 0.228974 0)
(1.8317 0.228125 0)
(1.83166 0.228982 0)
(1.83089 0.229003 0)
(1.82796 0.230705 0)
(1.83099 0.229114 0)
(1.83176 0.228105 0)
(1.83109 0.228936 0)
(2 -3.30061e-14 0)
(2.00153 -0.00300637 0)
(1.8311 0.228676 0)
(1.83197 0.228814 0)
(2.00127 -0.00189795 0)
(1.83129 0.228848 0)
(1.83131 0.22901 0)
(2.11334 -0.270353 0)
(2.10978 -0.263207 0)
(1.83139 0.229156 0)
(1.83057 0.229192 0)
(2 -1.26921e-13 0)
(2 -8.57603e-15 0)
(1.99953 0.00185885 0)
(1.8312 0.229099 0)
(1.832 0.227542 0)
(1.8313 0.228998 0)
(2 9.71329e-10 0)
(1.83134 0.228818 0)
(2 -4.59217e-14 0)
(2.05107 -0.102361 0)
(1.82637 0.230665 0)
(1.83162 0.228658 0)
(2 -1.44657e-13 0)
(1.92546 0.110097 0)
(1.8317 0.229258 0)
(2 -8.2653e-14 0)
(1.8296 0.22975 0)
(2 -9.90247e-11 0)
(1.8314 0.229334 0)
(1.888 0.160661 0)
(1.83262 0.228268 0)
(2 1.41016e-11 0)
(1.83134 0.229698 0)
(1.8298 0.228846 0)
(2.09712 -0.268661 0)
(1.83156 0.228679 0)
(2 -1.44078e-07 0)
(1.83106 0.230039 0)
(1.82784 0.228345 0)
(2 7.45139e-09 0)
(2.12072 -0.260042 0)
(1.83262 0.227778 0)
(1.85209 0.219845 0)
(2.00083 -0.00117867 0)
(1.84853 0.216095 0)
(1.83154 0.229062 0)
(2 -5.01366e-12 0)
(1.99846 -0.00110426 0)
(1.83018 0.229089 0)
(2.00144 -0.00102326 0)
(1.83165 0.228873 0)
(2 -2.85418e-12 0)
(2 -1.62673e-13 0)
(1.83115 0.229831 0)
(2 1.14329e-14 0)
(1.83082 0.230223 0)
(1.83117 0.22889 0)
(2.00143 -0.00214779 0)
(1.85911 0.197187 0)
(2 2.76813e-09 0)
(1.83132 0.229047 0)
(2 1.44624e-09 0)
(2 -7.88454e-13 0)
(2 1.09123e-11 0)
(2 6.38102e-12 0)
(1.8314 0.229108 0)
(2 7.23715e-09 0)
(2 -3.24428e-13 0)
(1.83314 0.224692 0)
(2 -4.09353e-14 0)
(1.83172 0.228724 0)
(2 2.35062e-10 0)
(1.8928 0.15458 0)
(1.83008 0.231054 0)
(1.83103 0.230096 0)
(2 6.87266e-10 0)