/*--------------------------------*- C++ -*----------------------------------*\
  =========                 |
  \\      /  F ield         | OpenFOAM: The Open Source CFD Toolbox
   \\    /   O peration     | Website:  https://openfoam.org
    \\  /    A nd           | Version:  12
     \\/     M anipulation  |
\*---------------------------------------------------------------------------*/
FoamFile
{
    format      ascii;
    class       surfaceScalarField;
    location    "1.1";
    object      phi;
}
// * * * * * * * * * * * * * * * * * * * * * * * * * * * * * * * * * * * * * //

dimensions      [1 0 -1 0 0 0 0];

internalField   nonuniform List<scalar> 
69079
(
-0.000212629
0.000123605
8.92641e-05
0.000166001
-3.13334e-17
-0.000166001
-0.000179374
0.000179374
0.000167917
-1.91521e-06
-0.000176703
-2.67121e-06
-0.000176703
9.90805e-05
-0.000194404
9.55775e-05
2.9878e-06
0.00015543
-0.000150989
0.000169597
-0.000169597
-3.6253e-17
0.00016874
8.56803e-07
-0.000132939
-7.93323e-05
-0.000147709
0.000158245
-1.03872e-05
-0.000166388
0.000162809
3.57841e-06
-0.000165548
-8.40003e-07
4.5797e-06
-0.000146503
0.000141924
0.000168773
-3.36001e-08
0.000167933
8.40003e-07
-0.000168572
0.000166354
2.21761e-06
-0.000166724
-1.84801e-06
0.000168454
-0.000167513
-9.40804e-07
0.000167144
1.31041e-06
0.000170117
-0.00017257
2.45281e-06
-0.00018139
1.74049e-05
0.000163985
0.000199815
-0.000131915
-6.78005e-05
0.000172141
-3.12866e-05
-0.000141151
-0.000167933
-1.66321e-06
0.0001679
3.36001e-08
3.86402e-07
-1.68001e-08
0.000168123
-0.000155765
0.000157331
-0.000164443
6.98054e-06
0.000159416
-0.000172755
1.33393e-05
0.000186061
-2.66449e-05
0.000166203
9.40804e-07
-5.20802e-07
-0.000167833
3.10801e-05
0.000136753
0.000165934
-0.000165934
2.23346e-17
3.86402e-07
-9.05701e-06
0.000155744
-0.000148691
-1.48681e-05
-0.000166522
0.000136486
2.79027e-05
-0.00016412
-0.0001682
2.05675e-05
0.000164775
-0.000164775
1.23328e-18
-7.98003e-06
-0.000138478
0.000167493
-2.96129e-05
0.000164506
1.84801e-06
-1.42801e-06
-9.71884e-05
0.000185607
-8.84187e-05
0.000161432
-0.000161432
4.14843e-17
0.00018512
-2.36881e-05
0.000156879
2.82409e-05
0.000184129
-2.72497e-05
0.000159634
-4.73762e-06
-0.000154897
-0.000151859
0.000147504
-3.2012e-05
-0.000175846
0.00018013
-4.28395e-06
-0.00016478
7.10026e-05
9.43328e-05
0.000160222
-0.000160222
-1.999e-17
0.000183541
-2.33185e-05
0.000161052
-1.48902e-07
-0.000160923
-8.69034e-05
-6.13477e-05
0.000148303
9.95068e-05
6.67467e-05
-0.000166253
0.000174828
-9.09669e-05
-8.51247e-05
-1.87657e-05
-0.000149067
6.53019e-05
-0.00016249
-0.000139852
0.000144432
0.000161969
8.40003e-07
-2.80561e-06
0.00019604
-0.00019604
-1.90452e-05
-0.000145325
-0.000151051
1.26882e-05
-7.41591e-05
0.000173582
0.000154342
2.91985e-05
0.000182247
-2.79049e-05
0.000161535
-1.94974e-05
-0.000142001
0.000169966
-0.000166472
-3.49441e-06
0.000127946
7.20677e-05
0.000148949
-0.0001532
4.25042e-06
-3.59521e-06
0.000152545
-0.000160659
1.47841e-05
0.000145875
0.000159416
2.66449e-05
-2.01601e-06
0.000152645
-0.000181592
2.89465e-05
0.00013603
2.36041e-05
0.000170252
-1.76065e-05
-9.76422e-05
-6.6761e-05
0.00016445
-0.000156056
0.000158055
-1.99921e-06
0.000151385
-0.000171461
2.00761e-05
0.000152629
-1.2432e-06
-7.0807e-05
-3.36018e-05
-8.26563e-06
-0.000133477
0.000141742
-9.2182e-05
0.000181222
-8.90403e-05
0.000185728
-4.90705e-05
-0.000168958
1.29025e-05
0.000156879
2.72497e-05
9.04684e-05
6.85947e-05
-0.000159063
-3.34321e-06
-0.000154426
-1.45321e-05
4.08242e-07
-0.000138258
0.00013785
0.000165461
-4.45703e-06
8.85531e-05
7.81707e-05
-0.000166724
7.07787e-05
-0.000162961
-0.000155787
1.36081e-06
0.000167866
-0.000167866
0.000168906
-1.1582e-05
2.64265e-05
-0.00018218
0.000155753
5.83356e-05
-0.00015614
-0.000155936
-1.26009e-05
0.000148563
-0.000173225
2.46625e-05
0.000151906
-3.34318e-06
8.88227e-06
0.000134968
-0.000144871
-7.79516e-06
0.000149998
-0.00014151
0.000154342
2.79049e-05
-2.72497e-05
-0.000136892
0.0001373
9.79444e-06
-0.00015782
0.000148025
-9.82702e-05
3.01203e-05
-9.7663e-06
0.000146224
-0.000136575
6.17895e-05
-0.000147957
-0.000150399
-5.4526e-06
0.000155847
0.000150676
-0.000154482
3.84628e-06
-0.000161197
0.000138987
2.22097e-05
-5.77922e-06
-0.000170924
0.000148378
2.18737e-05
-6.88803e-06
0.000155266
-0.00017336
0.00017336
-0.000156632
6.23559e-06
-4.70906e-05
0.000146597
0.000185579
-0.000110411
-7.47787e-05
-0.000180636
7.362e-05
0.000107016
0.000160037
-7.72803e-07
-0.000159265
0.000146048
-0.000170421
2.43717e-05
0.000150883
-4.83697e-06
0.000164338
-8.37351e-06
0.000155009
-0.000146347
0.000150932
9.10564e-06
0.000101708
-0.000161381
5.96738e-05
0.000147135
-0.000177577
3.04417e-05
0.000176165
-2.90305e-05
-2.06237e-06
0.000152175
-0.000101019
0.000190664
-8.96451e-05
-0.000125849
-2.73505e-05
0.000141989
-0.000168728
2.67528e-05
0.000147735
-5.7382e-06
0.000154656
-0.000166038
1.12798e-05
-0.000158777
3.29281e-05
-4.39337e-05
-0.000136702
0.000145421
-0.000175477
3.00553e-05
-2.60401e-05
-0.000155579
0.000144967
0.000111334
-0.0001196
-0.000130588
0.000138447
0.000178383
-0.000178383
0.000150529
4.03202e-07
-2.70481e-05
0.00015521
-0.00016487
9.48692e-06
-0.000154931
4.83648e-06
8.91599e-05
9.64522e-05
-0.000168236
2.66953e-05
0.000141541
0.000142868
-0.000173713
3.08449e-05
-0.00014942
0.000172957
-3.00889e-05
-0.000154077
-2.51804e-06
0.000131188
-5.98385e-05
-5.31722e-05
0.00015488
-1.68804e-05
0.000188152
0.000145421
3.07441e-05
-0.000151768
0.000143617
-3.00553e-05
0.000158496
-0.000158549
9.09052e-05
-0.000158441
6.75363e-05
0.000141171
-0.000172251
3.10801e-05
0.000171663
-3.04921e-05
-2.51161e-05
-0.000147454
0.000152866
6.85728e-06
-0.000159492
-2.84929e-05
-0.000153687
1.80637e-05
-0.0001354
0.000117642
-0.000101623
0.000162888
-6.13345e-05
-0.000150797
5.44322e-06
0.000145354
7.78543e-06
0.000153757
-0.000139918
0.000129952
0.000150881
0.000159408
-4.22029e-06
0.000139457
-0.000170957
3.15001e-05
-3.37682e-05
9.24004e-07
-0.0001469
0.000145976
0.000144111
8.51763e-06
-2.96017e-05
6.03727e-05
0.00010629
0.000144346
6.38402e-07
-0.000144985
1.49521e-06
0.000142851
1.13904e-05
0.000158576
-6.18746e-05
-7.89099e-05
0.000140785
-0.000184264
0.000110405
7.37474e-05
9.65164e-05
-0.000158391
4.87202e-07
0.000146732
-0.000147219
-0.000146782
0.000147269
0.000140335
-0.00014726
-0.000155216
0.000161415
-6.19922e-06
0.000140508
-0.000167585
2.64978e-05
0.000151421
-1.12409e-05
-1.3304e-05
-0.000129135
0.000142439
8.74107e-05
6.22946e-05
-0.000149705
0.000141171
3.17857e-05
-3.10801e-05
2.20249e-05
-0.000153855
0.00013183
-0.000146236
-7.5132e-06
0.000154976
4.47733e-06
0.000136904
-0.000169597
3.26929e-05
0.000168437
-3.15332e-05
9.81628e-05
-0.000156951
5.87885e-05
0.000148378
-0.000138584
0.00016048
-0.000165937
0.000143674
9.39894e-06
-5.20802e-07
0.000158576
4.29402e-05
-0.000145096
-0.00015283
-2.38561e-06
0.000160138
-5.62546e-06
-9.49133e-05
-5.14164e-05
0.000146212
0.00013519
-0.000167715
3.25245e-05
0.000170924
-2.23945e-05
-0.000173645
-3.52313e-05
0.000123681
-0.000105491
0.000139457
3.22057e-05
-3.15001e-05
-9.65859e-05
-7.18701e-05
0.00016827
0.000167127
-0.000164859
-2.26801e-06
-1.94713e-05
0.00016753
-0.000148059
0.000137551
-0.000165397
2.78219e-05
0.000150598
-1.30964e-05
0.00014006
-0.000140645
5.45292e-07
-6.09842e-06
-0.000155098
-0.000172217
2.64097e-05
0.000145808
-3.08953e-05
-0.000141322
-2.16385e-05
-0.000151721
-6.18242e-05
0.000152293
-0.00019058
0.000102245
8.83347e-05
-0.000159315
0.000137895
2.14201e-05
0.000139161
8.22489e-07
0.000152576
-0.000144825
-7.81803e-06
-0.000180836
0.000159197
-0.000155686
-1.008e-07
-0.0001532
0.000155703
-2.50321e-06
-9.32572e-05
-9.73228e-05
9.10228e-05
-0.000162893
7.18707e-05
-8.73603e-07
-0.000165598
-5.51042e-06
-0.000162725
0.00015568
-5.72543e-07
-0.000160189
6.98883e-06
0.000132633
-0.000166662
3.40276e-05
-3.60938e-05
0.000147948
4.56557e-06
0.000135061
-0.000162742
2.77612e-05
-0.000163616
3.42721e-06
0.000149569
-1.44461e-05
0.000140247
1.16594e-05
-2.93497e-05
0.000158793
-0.000152714
-6.24079e-06
-1.06695e-05
0.000149644
-0.00013944
0.00016333
-0.00016333
-0.000208507
9.98997e-05
0.000108863
-8.31901e-05
0.000155084
-7.18596e-05
-0.000139407
-4.7133e-06
0.000144869
-0.000162329
-3.65354e-06
-9.55425e-05
-5.88331e-05
0.000154635
8.98972e-05
5.56418e-05
-0.000145539
0.000110003
-0.000123307
5.19122e-06
0.000156005
-0.000161197
0.000135189
3.32477e-05
0.000130136
-0.000164844
3.47405e-05
-3.25252e-05
-0.000172822
0.000153351
-0.000155031
0.000155031
0.000105656
6.2345e-05
0.000163176
-3.30221e-05
-2.73673e-05
-0.000153469
0.000136197
9.6634e-05
-0.000158712
6.20779e-05
-1.24257e-06
-0.000176256
0.00012824
-1.31395e-06
0.000148832
-0.000147574
0.000131766
-0.000160159
2.84999e-05
0.000148161
-1.62654e-05
0.000166993
-0.000168387
-0.000140482
0.000145673
-9.90893e-05
-8.5902e-05
-9.52746e-05
0.000156768
-6.21882e-05
-0.000157527
3.54271e-06
0.000157131
-0.000162791
5.71532e-06
-8.42523e-05
0.000171663
0.000163801
1.61965e-06
0.000162945
8.18487e-07
-0.000189986
9.01996e-05
9.98484e-05
4.73426e-05
0.000138265
0.000162516
3.68487e-07
9.55981e-05
-0.000139944
4.42932e-05
0.000161869
5.66162e-06
0.000143328
-4.77409e-05
4.71081e-05
0.000128412
-0.000162413
3.40047e-05
0.00016047
0.000162216
-3.40714e-05
0.000163972
-2.72702e-05
-0.000135958
-0.000148453
-4.01395e-06
0.000152463
-0.000183054
0.000106428
7.66251e-05
0.000137484
1.33979e-05
-2.91785e-05
-5.61122e-05
0.000154275
0.000169205
-0.000169216
-0.000140062
0.000140701
0.000146833
-0.000145337
-9.47256e-05
0.000161005
-6.55707e-05
-2.73841e-06
-0.000157921
0.00012594
-0.000161791
3.51043e-05
-0.000150848
0.000154594
-3.74641e-06
0.000163496
-3.84338e-05
-0.000158677
0.000158236
0.000157767
4.70436e-06
3.72961e-06
-0.000149487
0.000145757
-0.000166108
0.000111955
-0.000128868
-1.06252e-05
0.000138902
-0.000157181
6.33362e-06
-0.000145724
-4.84831e-05
0.000129836
-0.000161062
0.00017072
-1.75876e-05
0.000157722
-6.57406e-07
-0.000154325
-2.85601e-06
0.000158895
-0.000158895
0.000122691
-0.00016299
3.97714e-05
0.000163434
-4.09906e-05
0.000125613
-0.000153347
2.7847e-05
0.000143931
-1.81355e-05
-9.19636e-05
-9.109e-05
-0.000162356
6.1337e-05
-0.000152259
-2.06641e-06
8.44719e-05
9.04992e-05
0.000152342
6.54645e-06
0.000135734
1.20365e-05
-2.90836e-05
-0.000152746
0.000140113
1.26336e-05
0.000173645
-0.000166993
-0.000134216
0.000149
0.000144374
-0.00015627
1.17664e-05
0.000147286
-6.08162e-06
-0.000141205
0.000120858
-0.00016255
4.16888e-05
0.000162435
-4.14895e-05
-5.49362e-06
-0.000153821
-0.000149003
0.000154829
-5.84258e-06
9.40804e-07
-0.000151738
0.000181837
-3.42907e-05
-7.20891e-05
0.000160642
3.7252e-07
-0.000175166
2.86626e-05
-0.000138861
-1.5481e-05
0.000149117
-6.82083e-06
-0.000142297
0.000128095
3.50797e-05
0.000156005
-6.51003e-05
-3.43065e-05
-0.00015787
0.000143338
1.45321e-05
7.05751e-06
-0.000145771
-0.000201937
0.00011792
8.40171e-05
-0.000149437
4.95602e-06
0.000144481
-9.15268e-05
-0.00011041
5.56082e-06
0.000141793
-0.000147353
-0.00015026
6.95523e-06
0.000143305
-1.04328e-05
-0.000139827
-0.000156308
0.000145875
0.00011914
-0.000161628
4.20985e-05
-0.000150663
3.86402e-06
0.000146799
0.00015026
-6.43443e-06
-0.000143825
-5.12402e-06
0.000149504
-0.00014438
0.000145136
0.000161227
-4.22954e-05
0.000151889
-6.58563e-06
-0.000145304
0.000158847
-1.09532e-06
-0.000161321
-1.69009e-05
-0.000155921
-6.70323e-06
0.000151553
-0.00014485
8.76627e-05
5.83298e-05
-0.000145993
-0.000153108
5.80071e-05
-7.9931e-05
-8.88351e-05
-0.000168025
3.90411e-05
0.000127806
3.38069e-05
9.68965e-06
-0.000173354
-3.4473e-05
7.39203e-06
0.000139894
-0.00014144
1.05e-05
0.00013094
0.0001208
-0.000161832
4.03158e-05
-7.45347e-06
0.000165944
0.000150411
-5.94722e-06
-0.000144464
-0.000154667
-8.07513e-06
0.000161645
-4.17405e-05
-9.55684e-05
0.000157723
-6.1941e-05
0.000167009
-1.49521e-05
-0.000152057
0.000190708
-3.50477e-05
-0.000156116
0.000152307
3.86983e-06
0.000156515
-0.000156611
-0.000162272
9.60964e-06
0.000152662
1.57148e-06
0.000146074
-0.000147661
-8.56635e-05
0.000154258
0.000118371
-0.000146005
2.77621e-05
-2.15789e-05
0.000140057
1.39867e-05
0.000156459
-5.64482e-06
0.000149537
-0.000143893
-1.45489e-05
0.000129529
-0.00011498
0.000176871
-0.00010458
-7.22907e-05
3.30961e-06
-0.000149974
0.000146665
3.20881e-06
-0.000155468
0.000154342
-0.000154342
-0.000145371
0.000147219
-1.84801e-06
0.000151798
-0.000157525
5.70564e-06
-0.000134333
0.000135257
-6.87622e-06
0.000152578
-0.000145926
2.40241e-06
-0.000149873
0.000147471
7.5062e-05
8.86221e-05
-0.000165245
-1.66321e-06
0.000157366
-0.000152175
-1.94881e-06
0.000154124
-0.000152889
-2.29324e-07
0.000149017
-0.000146614
0.000137441
4.3781e-05
0.000122559
-0.000162711
3.94499e-05
-6.60579e-05
-7.39035e-05
0.000139961
0.000131123
3.15388e-05
-0.00017551
0.000109452
0.000150021
-5.33872e-05
-4.56416e-05
-3.28165e-05
-0.000184885
0.000105504
7.93803e-05
-8.68068e-05
0.000164966
-7.71622e-05
8.46505e-05
8.13661e-05
-0.000166017
-9.28036e-05
0.000158105
-0.00015278
0.00014527
7.50963e-06
-0.00015404
1.26e-06
-0.000150799
4.79159e-06
0.000146499
4.73279e-06
0.00012836
-0.000142145
-4.03202e-06
0.000146177
-0.000132586
0.000118037
9.7902e-05
-0.000153727
0.000137997
-0.000149203
5.20802e-07
0.000145405
-0.000145925
6.0884e-05
-0.000156099
-9.75748e-05
-8.73099e-05
-2.33931e-06
0.000149122
-0.000146366
-0.000156958
-7.97889e-06
-0.00018806
0.00010915
-3.81361e-06
-0.000158458
0.000157453
-0.00015717
-0.00013094
0.000157635
-0.000145856
0.000144457
-7.54616e-06
0.000153379
-0.000145839
-3.20377e-05
-0.000122993
9.25643e-05
-0.000186677
-4.50074e-05
0.000150663
-0.000148849
4.68704e-06
0.000144161
2.22251e-06
0.000120097
-0.000123663
6.66963e-06
-0.000151133
0.000144464
0.000131718
3.14251e-05
0.000147388
-2.80403e-06
-0.000144623
0.000149605
-8.06403e-07
-0.000148798
2.7023e-06
0.000144816
0.000147194
-0.000144387
-3.10339e-05
-0.000147219
-3.44401e-06
2.28368e-06
0.000144943
-0.000161768
0.000167211
-0.000147118
0.00014821
-1.092e-06
5.56082e-06
0.000143456
0.000143691
5.81282e-06
-0.000147572
4.53602e-07
-8.06893e-05
-6.29584e-05
0.000143616
-0.000176471
3.82134e-05
0.000121612
-0.000121238
-3.67329e-06
0.000120991
-0.000163324
4.23372e-05
0.000158176
-0.000152236
-5.58914e-06
-2.63858e-06
0.000158362
0.000160664
-3.97079e-05
5.5183e-05
-0.000150424
0.000118932
-0.000141012
2.22107e-05
-2.37083e-05
0.000142876
-0.000153149
0.00014107
1.20792e-05
0.00013976
-1.2348e-05
-0.000152511
0.000158257
-8.00859e-05
-5.3425e-05
0.000127045
-0.000152477
0.000146967
-3.93426e-06
-0.000141551
-9.58663e-05
-9.42373e-05
-0.000119988
1.29897e-06
0.000118612
-0.000143863
0.000140267
-8.73544e-07
0.000148748
-0.000147794
-1.27967e-05
-0.000133402
0.000147282
-1.63804e-06
0.000148638
-0.000147074
0.000178467
-8.72427e-05
-9.12244e-05
7.62723e-06
0.00014149
0.000130537
3.18138e-05
-0.000157203
1.1146e-05
0.000145753
-0.000145199
6.07172e-06
-3.12534e-05
0.00012012
-0.000160111
4.0007e-05
-4.52436e-05
0.000117116
-0.00013884
2.19211e-05
-0.000143263
0.000132174
-0.000142767
-6.66963e-06
-2.44598e-05
0.000141911
6.66785e-06
6.71835e-05
0.000109688
0.000159903
-0.000156593
0.000151033
-1.42801e-06
-0.000150747
6.72221e-05
0.000149319
-5.02322e-06
-0.000144296
-0.000182881
0.000167102
0.000138869
-0.000116844
1.41121e-06
-0.000141473
-2.10977e-06
-0.00014564
0.000147754
-4.04882e-06
0.000158643
8.61507e-05
8.06235e-05
-0.000166774
9.9039e-05
8.53208e-05
-0.000184887
-0.000128783
-8.11932e-06
0.000136739
4.51543e-06
-0.000150809
0.000146333
9.76084e-06
0.000153569
-0.000153721
0.000150972
-0.000146391
0.000151873
-0.000153956
2.08321e-06
4.30898e-06
0.000146921
-6.16003e-06
0.000152288
-0.000146193
0.000153058
-0.00014842
-0.000160558
-9.34257e-05
0.000162917
-7.30867e-05
-9.05453e-05
0.000163788
-7.53965e-05
-0.000180382
4.94426e-05
0.000145198
-0.000148287
6.02336e-06
-0.000151657
0.000145797
-1.68841e-05
0.000162406
-0.000145522
0.000166069
-0.000103774
0.000128755
3.22223e-05
-0.000144397
4.48562e-06
0.000139911
0.000108119
-0.000180356
7.22071e-05
0.000151066
7.4067e-06
-0.000152175
-0.00017929
0.000104211
7.50795e-05
-3.3781e-05
0.000144061
-0.000140331
-0.000152158
-1.69681e-06
-0.000143034
0.000147594
-4.55954e-06
3.56497e-06
-0.000146599
-0.000141089
0.000127599
1.41931e-05
-0.000152019
0.000152173
-1.54561e-07
-0.000149843
-2.17561e-06
0.000118178
-0.000160924
4.27452e-05
-0.000151856
-3.23033e-07
0.000158349
-4.01469e-05
-0.000163496
0.000102384
-0.000154191
0.000149603
4.5881e-06
-0.000154796
6.04802e-07
-0.000149798
0.00014988
-8.23203e-08
-0.000150193
3.94802e-07
-0.000153855
-0.000152225
0.000147303
4.92242e-06
-0.000152897
1.1508e-05
0.000141389
0.000148072
-0.000148736
-0.000120199
-1.13274e-08
-0.000152696
5.79602e-06
0.0001469
-0.000143573
-3.91442e-06
0.000147488
0.000118575
3.29281e-06
0.000141994
-0.000145287
-0.000147353
-3.19201e-06
0.000150545
-0.000149403
3.14161e-06
0.000146261
-9.13258e-05
-0.000117097
5.49036e-06
0.000156291
-6.52683e-05
0.000151454
6.14921e-06
0.000143657
2.23441e-06
-0.000145892
1.176e-06
0.000147404
-0.00014858
-0.000137071
0.000154342
-6.44451e-05
0.000151906
-7.19043e-06
-0.000144716
-0.000150865
2.21761e-06
0.000148647
0.000125969
3.46704e-05
-0.000148699
7.39203e-07
0.00014796
0.000141994
2.45281e-06
-0.000144447
-3.75536e-05
0.000154044
-2.5988e-06
-0.000147771
-3.56427e-06
0.000151433
9.12244e-06
5.01605e-06
-0.000152766
-0.000145868
0.000150945
5.12323e-06
-0.000151082
-0.000110461
0.000106856
0.000150562
-4.92242e-06
-0.00014564
0.000117254
-0.000157859
4.06498e-05
-4.54609e-05
0.000159843
-0.000159826
-0.000173147
0.000187982
2.43117e-06
-0.000148781
2.83921e-06
0.000145942
-8.88555e-05
-9.92044e-05
-0.000144027
0.000124583
0.000149621
-0.000148697
-9.24004e-07
-0.000156992
8.5492e-06
-0.000154665
6.07984e-05
-0.000144783
-5.09042e-06
-0.000152614
0.000148593
5.32561e-06
0.000140062
-0.000145388
-0.000151133
5.59442e-06
0.000145539
0.000165524
-0.000180804
0.000157954
-0.000150327
0.000145421
-0.000152007
-0.000115169
0.000154573
-1.19538e-07
0.000150883
-6.22618e-06
-0.000145001
0.000147437
-0.000154141
0.000150125
0.000152777
-0.000152695
-0.000151422
0.000152039
-6.16562e-07
-0.000149877
-1.54561e-06
-0.000154243
0.000152059
2.18401e-06
-0.000152847
-1.39609e-06
-0.000154215
0.000152069
2.14537e-06
-0.00015286
-1.35409e-06
-0.000154186
0.000152084
2.10137e-06
-0.000152869
-1.31671e-06
0.000173922
-0.00011371
-5.70048e-06
-0.000142788
0.000148177
-0.000154022
0.00015217
1.8776e-06
-0.000167328
9.33642e-05
7.60672e-05
-0.000152879
-1.11051e-06
-0.000165339
0.000153322
1.16153e-05
0.000151301
0.000166345
-0.000143708
-2.25386e-05
0.000120867
1.91339e-05
-0.000139695
-0.000154137
-1.15367e-05
0.000152377
-0.000164784
0.000153465
1.1318e-05
0.000155686
6.72003e-06
-0.00015415
-1.06825e-05
-0.000177286
4.03941e-05
-0.000143774
-2.65247e-06
0.000146452
-0.000165052
0.000153455
1.13367e-05
-8.85363e-05
-6.84267e-05
0.000156963
-0.000154452
-1.06618e-05
0.000135148
-0.000139116
3.93978e-06
5.61122e-06
-0.000144598
0.000138987
-0.000164587
0.000153176
1.14725e-05
-0.00014648
-7.56003e-06
-0.000154046
-1.05407e-05
1.37761e-06
-0.000147857
-0.000128941
-1.13537e-05
6.97539e-05
-0.00015829
-0.000145578
-6.48366e-06
0.000136827
-1.56212e-05
-0.000144766
0.000151453
-6.68643e-06
-0.000147757
2.99041e-06
-0.000164431
0.000153094
1.12912e-05
-0.000154051
-1.04364e-05
-6.23282e-06
0.000146614
-0.000140381
-3.59437e-06
0.000147386
-0.000143799
-0.000163605
0.00015249
1.11029e-05
-0.000154031
-9.54395e-06
0.000148929
-0.000152732
3.6998e-06
-3.42721e-06
0.000162322
-0.000160558
-0.000164276
0.000153733
1.04796e-05
0.000118037
-0.000160052
4.20375e-05
-0.000154511
-9.8095e-06
4.09922e-06
-0.000144447
0.000140348
0.000133513
1.78977e-05
-0.000163755
0.000153435
1.02297e-05
0.000145246
-9.511e-06
-0.000135791
-0.000154404
-9.47137e-06
0.000157197
-3.91391e-05
-2.97999e-05
3.49441e-06
-0.000144413
0.000140919
0.000146799
-0.000150797
3.99842e-06
-1.68001e-08
0.000146816
-0.000163385
0.000153342
1.00521e-05
-0.000154208
-9.16251e-06
-0.000179767
9.67389e-05
1.84319e-05
4.97282e-06
-0.000144665
0.000139693
5.99762e-06
-0.000145808
0.00013981
-0.000162339
0.00015247
9.8283e-06
2.6465e-06
-0.000142555
0.000140375
-0.000154145
-8.18389e-06
-8.74882e-06
0.000146097
-0.000151721
-4.58642e-06
-0.0001619
0.000152469
9.37467e-06
-0.000154138
-7.74811e-06
-0.000148781
0.000149655
-8.73603e-07
-0.000148496
0.000151301
-2.80561e-06
-5.71202e-07
7.3379e-05
-0.000161696
-4.20002e-07
-0.000148076
-0.00014326
0.000149616
0.00015417
-0.000152907
-1.57287e-06
-8.18096e-05
-8.26719e-05
0.000149067
-0.000162235
0.000153372
8.81356e-06
9.24004e-07
0.000145489
-0.000146413
-0.000154264
-7.98646e-06
-4.87202e-07
-0.000145892
0.000146379
-5.77922e-06
0.000144917
-0.000139138
7.51364e-06
-0.000150657
-0.000144096
0.000151836
-0.000161771
0.000153329
8.46056e-06
-0.000154151
-7.6023e-06
-0.000149877
3.75401e-06
0.000145957
-0.000143774
-7.58765e-06
0.000151368
-0.000160648
0.000152451
8.2031e-06
-0.000150091
-0.000154118
-6.52385e-06
-0.000154107
0.00015661
-2.50321e-06
-1.80424e-06
-0.000154425
-0.000161049
0.000153335
7.67178e-06
-0.000154152
-6.84042e-06
-0.00014984
2.94001e-06
-4.78392e-06
-0.000160199
0.000153042
7.22019e-06
-0.000153859
-6.33046e-06
-6.67326e-05
-9.18915e-05
8.40003e-08
0.000146278
-0.000146362
-0.000147471
0.000147555
0.000146009
-0.000144598
-0.000160131
0.000153302
6.91147e-06
-0.000150126
3.66335e-06
0.000145989
-0.000153972
-6.0304e-06
1.215e-05
0.000130706
-0.000139155
-0.000133055
0.000149125
-0.000152194
4.99477e-06
0.000146964
-1.03303e-05
-0.000159247
0.000152823
6.317e-06
-0.00015393
-5.54251e-06
0.000147663
6.25465e-06
-0.000159174
0.000153201
6.19274e-06
-0.000153669
-5.26012e-06
5.83521e-07
-0.000150091
0.000136049
-0.00015238
0.000154739
-2.35873e-06
-0.000108962
-5.84995e-05
0.000169059
-1.26147e-05
0.000115101
-0.000156567
4.15186e-05
7.57683e-06
-0.000160474
0.000130414
-2.82933e-06
-0.000127112
-4.4912e-05
-0.00014319
7.64986e-06
0.000135121
-7.91535e-06
-0.000136742
-9.03845e-05
-8.41109e-05
0.000174557
-0.000151127
0.000151995
-8.68563e-07
-0.000153223
8.43363e-07
-1.24656e-06
0.000119949
4.06745e-05
0.00014648
-0.000145556
-0.000152308
0.000153195
-8.87043e-07
0.000145993
0.000123296
4.01522e-06
-0.000127311
-1.34401e-07
-4.01171e-05
0.000133544
-1.0248e-05
0.000153879
8.60163e-07
-9.17284e-07
-1.88007e-06
0.000143196
-5.41955e-06
-0.000137849
0.000153939
-2.06641e-06
-2.01857e-06
0.000154443
7.94384e-05
9.44962e-05
-0.000179829
0.000106133
7.37037e-05
-0.000111536
-6.88467e-05
-1.90009e-05
0.00015283
-6.19922e-06
-0.000146026
-0.000156308
-0.000169995
9.3606e-05
-0.00014354
0.000144716
0.00014419
-0.000146069
4.53602e-06
-0.000146169
-4.55117e-06
0.000150711
0.000163925
-6.47818e-05
-0.000146423
-3.65707e-06
0.000149941
7.89785e-06
-0.000145303
0.000137084
-0.000146967
1.59601e-06
-0.000156615
6.17176e-05
0.000152118
-0.000124128
-7.18936e-06
0.000150829
-0.00014357
-1.03656e-05
-0.000142011
0.000152377
9.45172e-05
-0.000161348
6.68307e-05
0.000141641
-0.000147874
0.000151251
-0.000133846
-0.000197149
0.000116542
8.06067e-05
-0.000146839
-4.21806e-06
0.000150905
3.58602e-06
-0.000149714
-0.000170637
8.478e-05
0.000131195
9.02313e-06
-0.000139942
0.000143823
-1.24584e-05
-7.44243e-06
2.71627e-06
-0.000157417
1.07352e-05
5.46911e-06
-0.000151894
0.000148165
-0.000151638
3.59098e-06
0.000142246
-0.000147891
4.88164e-05
-0.00015129
0.000144296
5.24161e-06
-0.000155098
0.000151369
3.72961e-06
0.000154596
-0.000159204
-0.000152528
-1.42801e-06
4.24605e-06
-0.00015115
-8.19565e-05
0.000126319
-4.36979e-05
2.8396e-06
-0.000148691
0.000145644
0.000120708
1.71865e-05
-0.000137895
0.00014496
-0.000146829
0.000112163
-0.000155779
4.36241e-05
0.00013519
-1.44817e-05
-7.79523e-06
-0.000142889
0.000144963
-0.000145913
0.00013892
-0.000149285
0.000152457
-4.02788e-05
-1.28078e-05
-0.000129022
0.000140762
-0.000146396
0.000146917
-8.73603e-05
0.000170521
-8.31603e-05
-0.000162875
0.000154558
8.28486e-06
-1.03919e-05
0.000142034
-0.000148025
-8.95275e-05
-8.97627e-05
0.000128922
-0.000143091
-1.34773e-05
0.000141648
0.000150674
-0.000103584
-8.76233e-05
0.000159332
-7.20235e-05
0.000146261
-0.000154474
-2.72225e-06
0.000172971
-9.8895e-06
-0.00012508
4.32143e-05
-2.03404e-06
0.00013716
6.21602e-07
0.000153721
-0.000158391
7.40883e-06
0.000149302
-0.000156711
-0.000161268
0.000154279
6.98379e-06
-8.85331e-06
-0.000148504
-1.37257e-06
2.7552e-06
0.000138433
-0.000141188
-0.000152477
0.000131005
1.9638e-05
-0.000160848
0.000154314
6.55656e-06
-0.000176933
3.70811e-05
0.000145186
-0.000142431
-8.44324e-06
-2.99045e-05
0.000147278
1.36972e-06
2.24705e-06
-0.000148202
0.000146155
0.000153166
-6.55035e-05
-0.000148055
-2.39793e-06
-0.000141752
0.000143213
0.000134007
-2.95267e-06
0.000149262
7.37598e-06
-0.000144082
0.000136874
-0.000159565
0.000154235
5.37291e-06
-0.00014312
9.74404e-07
0.000142801
-7.09705e-06
0.000163582
-0.00010794
-0.00014312
-6.72003e-06
0.000143034
-0.00014573
0.00014684
2.40618e-06
0.0001532
-2.78881e-06
0.000108616
-0.000150357
4.18374e-05
6.31656e-06
0.000137678
-0.000143513
-0.000148366
0.000144637
0.000161205
-0.000150484
0.000150582
-4.18385e-05
4.76923e-06
-0.000144834
0.000140299
-6.48022e-06
0.000144935
-0.000137952
9.30021e-06
0.000134049
-0.000143144
-0.000135078
0.000144567
0.000183625
-0.000145371
-3.82537e-05
1.06008e-05
-0.000145337
0.000134737
-0.00018738
0.000148965
-4.34112e-06
0.000145069
-0.000134468
6.57723e-05
0.000117852
0.000148178
2.52406e-06
4.7216e-06
-0.000145366
0.000140606
5.7805e-06
-0.00014501
0.000139436
1.22808e-05
0.000136131
-0.000148412
1.34401e-06
0.000145875
-0.000149273
-0.000156257
0.000137199
-0.000144218
0.00015047
2.73721e-06
-4.55279e-06
0.000147336
-0.000142649
0.000141914
-0.000137286
0.000148916
-0.000154393
1.91521e-06
2.35201e-07
0.000151906
-3.52801e-07
5.12137e-06
-0.000148026
0.000140644
-0.000148286
-3.8329e-06
0.000126677
-0.000141269
-0.000145976
0.000139155
0.000117099
4.12264e-05
-0.00014989
0.000148899
9.91204e-07
0.000155565
-0.000152245
-3.81785e-06
0.000152259
3.15933e-06
-4.07415e-05
0.00014821
-2.80561e-06
0.000155689
-0.00015196
-3.37901e-06
-0.000154548
0.000152126
2.52888e-06
0.000152944
2.92248e-06
1.33225e-05
0.000140566
-0.000153889
-0.00012842
0.000141742
1.54897e-05
-0.000143909
-0.000141809
0.000135728
-0.000151782
-2.91646e-06
-1.25429e-06
0.000116156
-0.000134081
1.79257e-05
-5.82345e-07
0.000149545
0.000144481
-0.000139507
0.00014469
0.000122758
-6.60243e-06
-0.000145343
-0.000107934
0.000138349
-3.01351e-05
0.000161467
-6.23216e-06
0.000145976
-0.000133695
0.000107172
-0.000149024
4.19314e-05
0.000149258
-4.1999e-05
0.000114716
-0.000126376
0.000160902
-9.13001e-06
3.49105e-06
-0.000137923
0.000143769
-8.06926e-06
-0.000146853
0.000142031
-0.000148952
5.489e-06
-0.000143559
-0.000148471
-1.72201e-06
1.13232e-06
0.000148051
-0.000129677
0.000146626
6.40082e-06
0.000136635
-0.000143036
0.000142532
7.10843e-06
-0.000151158
-0.000132337
-8.7545e-06
-2.88592e-06
-0.000104508
-0.000152751
6.18744e-07
9.24004e-07
0.000144632
-0.000145556
-0.000148094
-5.12906e-06
0.000156123
-0.000156123
5.1005e-06
-9.01828e-05
-0.000106966
-0.00014843
-1.41289e-06
-0.000164087
-8.36643e-07
-7.71595e-05
-0.000102754
6.95481e-06
-0.000152308
-0.00013556
-0.000210714
-4.64626e-06
0.000128965
-0.000147256
1.53256e-05
-0.00012648
-1.45516e-05
0.000143391
0.000127645
1.25479e-05
-0.000138976
-0.000151075
0.000151136
-0.000152437
0.000164789
-1.06175e-06
1.87163e-05
-0.000126407
-0.000145677
1.60189e-05
-0.000160129
6.01557e-06
-0.000160548
6.10641e-06
-0.000160368
6.09275e-06
-0.000160102
6.04941e-06
-6.89205e-06
-0.000154544
1.79761e-06
-0.000156601
7.58525e-05
-7.06081e-06
-0.000151273
-3.59715e-06
-6.90188e-06
0.000150387
-7.30437e-06
0.000147857
-0.000157243
9.37215e-06
-0.000159914
5.89254e-06
3.15618e-07
-0.000182331
0.000102128
8.02035e-05
-0.000149077
-3.80447e-06
-6.84042e-06
3.00585e-06
-0.000146497
0.000150579
-4.08242e-06
-0.000159939
5.43007e-06
0.000152388
-0.000164208
1.18179e-05
-0.000149013
-3.85561e-06
3.05592e-06
-5.34179e-06
-0.000148963
-3.89762e-06
0.000149195
-0.000151611
2.41268e-06
-0.000159631
5.08869e-06
3.09625e-06
-5.96402e-06
-0.000148911
-3.93626e-06
-5.95955e-06
-0.000152998
-1.1088e-06
-0.000159105
4.88549e-06
3.12817e-06
-0.000164792
7.74315e-05
0.000137441
-0.000143876
0.000103336
-0.000147157
4.38675e-05
-5.74163e-06
3.15841e-06
0.000149605
-2.87281e-06
-0.000147101
-4.70402e-07
-0.000158847
4.72324e-06
0.0001494
-0.000144325
3.84721e-06
-0.000146967
4.20002e-06
-1.51201e-06
-5.50277e-06
-4.99471e-05
1.29743e-05
0.000132125
-0.000141042
-0.000158339
4.22627e-06
2.21761e-06
-0.000139076
-1.52157e-06
0.000140129
-4.0331e-06
-0.000158005
3.76709e-06
-3.62264e-06
0.000165218
-0.000157602
3.46705e-06
-4.25096e-06
-0.000157242
3.14334e-06
1.73041e-06
-0.000150428
1.2982e-05
-0.000144815
-3.89749e-06
7.15683e-06
-0.000144716
0.000137559
-0.000156724
2.66339e-06
0.000164733
1.63535e-06
-0.000137391
0.000144548
-0.000148748
-1.1424e-06
-2.37191e-06
-1.90235e-06
-0.00014104
0.000142686
-0.000129366
-1.20984e-05
0.000144395
-0.000156186
2.21556e-06
-3.04333e-06
-0.000155766
1.92491e-06
0.000129974
1.96189e-05
-2.62423e-06
-0.000131887
-1.38657e-05
0.000146111
-0.000155562
1.42847e-06
0.000147958
0.000153042
-4.56713e-06
-3.00656e-05
-2.2792e-06
-1.60016e-06
-0.00015124
-0.000148077
0.000148075
6.86797e-07
-0.000154589
1.08523e-06
-0.000155329
0.00015346
1.93697e-06
-0.000152581
-2.49654e-06
2.16319e-05
-0.00014203
0.000120587
-1.74366e-06
-0.000154818
1.7484e-06
-1.54179e-06
-7.41011e-05
-0.000102422
0.000176532
-1.22288e-05
-0.000130005
0.000143719
0.000132891
-0.000140779
8.48031e-06
-0.000152864
3.36001e-07
0.000131378
-0.000142304
-6.55203e-06
0.000145808
-0.000139256
1.19914e-05
-0.000141495
-1.20527e-05
0.000143855
1.15888e-05
0.000133547
-0.000145807
-9.2014e-05
0.000178165
-0.000146379
-0.000139665
0.000131418
-2.59051e-06
5.44322e-06
0.000142935
-1.52502e-06
0.000149065
-0.000147364
-2.0195e-06
0.000149576
-0.000147534
0.000151792