/*--------------------------------*- C++ -*----------------------------------*\
  =========                 |
  \\      /  F ield         | OpenFOAM: The Open Source CFD Toolbox
   \\    /   O peration     | Website:  https://openfoam.org
    \\  /    A nd           | Version:  12
     \\/     M anipulation  |
\*---------------------------------------------------------------------------*/
FoamFile
{
    format      ascii;
    class       volScalarField;
    location    "1.1";
    object      rho;
}
// * * * * * * * * * * * * * * * * * * * * * * * * * * * * * * * * * * * * * //

dimensions      [1 -3 0 0 0 0 0];

internalField   nonuniform List<scalar> 
46253
(
1.44126
1.40001
1.40001
1.40001
1.40001
1.40001
1.41019
1.47786
1.40001
1.40001
1.44004
1.21075
1.40001
1.40001
1.40001
1.40001
1.40001
1.40001
1.40001
1.40001
1.40001
1.40001
1.40001
1.42331
1.42619
1.40001
1.40001
1.40001
1.40001
1.49559
1.45608
1.40001
1.40001
1.40001
1.40001
1.40001
1.40001
1.40001
1.4378
1.40001
1.33092
1.20997
1.40001
1.40001
1.1831
1.40001
1.40001
1.40001
1.40001
1.40001
1.40001
1.40001
1.40001
1.45087
1.40001
1.25866
1.40001
1.40001
1.58286
1.31037
1.40001
1.39345
1.40001
1.40001
1.40001
1.40001
1.40001
1.40001
1.2586
1.18626
1.40963
1.40001
1.40001
1.4149
1.40001
1.42332
1.40001
1.40001
1.40001
1.40001
1.40001
1.40001
1.40001
1.40001
1.35081
1.40001
1.40001
1.40001
1.21257
1.40001
1.40001
1.3293
1.40001
1.40001
1.40001
1.40001
1.40001
1.40001
1.58152
1.40001
1.40001
1.40001
1.40001
1.45106
1.40001
1.35049
1.21363
1.40001
1.40001
1.22839
1.45992
1.40001
1.40001
1.40001
1.40001
1.13615
1.18101
1.30854
1.78178
1.27079
1.40001
1.40001
1.40001
1.40001
1.40001
1.80823
1.40001
1.24655
1.40043
1.40001
1.40005
1.40003
1.40001
1.41507
1.40001
1.40001
1.40001
1.40001
1.26597
1.40001
1.40001
1.39987
1.40002
1.44246
1.40001
1.39997
1.40001
1.40001
1.43902
1.40001
1.22515
1.40001
1.40001
1.40001
1.40656
1.18379
1.24675
1.40001
1.40001
1.40001
1.40001
1.21567
1.25747
1.40001
1.4202
1.40001
1.41555
1.40001
1.99586
1.40001
1.40001
1.40001
1.40001
1.33768
1.40001
1.17523
1.40866
1.40001
1.41451
1.18396
1.40001
1.40471
1.40001
1.40001
1.40001
1.40001
1.40001
1.17812
1.40001
1.40001
1.40001
1.40001
1.39456
1.40001
1.40001
1.40001
1.4582
1.40001
1.5147
1.52302
1.40001
1.40001
1.40001
1.40001
1.40001
1.18121
1.40032
1.4
1.4
1.40001
1.40001
1.77963
1.33779
1.40001
1.41051
1.40001
1.43725
1.34286
1.4
1.40001
1.40001
1.40001
1.17208
1.40001
1.40001
1.33773
1.40001
1.40001
1.52178
1.52168
1.52317
1.40001
1.40001
1.40001
1.40001
1.40001
1.40001
1.40001
1.52058
1.54186
1.40001
1.40001
1.40001
1.40001
1.40001
1.40001
1.40001
1.39987
1.40001
1.40008
1.40009
1.53896
1.51595
1.40001
1.51669
1.4
1.4
1.27317
1.32525
1.40001
1.4109
1.31682
1.22519
1.44447
1.41423
1.40001
1.40001
1.40001
1.4
1.39902
1.4
1.40001
1.40001
1.40001
1.39814
1.40001
1.39998
1.40001
1.42632
1.29214
1.5081
1.50747
1.40001
1.40001
1.40001
1.39689
1.40562
1.26921
1.42934
1.40001
1.57176
1.57024
1.33979
1.40001
1.56137
1.48872
1.40001
1.48544
1.3378
1.3983
1.76733
1.40105
1.25079
1.77093
1.40001
1.40009
1.40008
1.40001
1.44103
1.40001
1.40001
1.41991
1.40001
1.41171
1.40001
1.43621
1.25394
1.55933
1.40001
1.43522
1.25054
1.40001
1.41038
1.428
1.4251
1.42464
1.40001
1.40001
1.44868
1.45912
1.49002
1.48923
1.40001
1.40001
1.40001
1.39222
1.2698
1.39914
1.39943
1.40001
1.40001
1.40001
1.40001
1.70098
1.40001
1.45836
1.4607
1.40001
1.26448
1.40001
1.46474
1.40001
1.17742
1.40001
1.2222
1.40001
1.39805
1.40001
1.39802
1.40001
1.22075
1.40001
1.40001
1.40001
1.40001
1.40001
1.40001
1.40001
1.46487
1.40001
1.40001
1.40001
1.40001
1.46263
1.40001
1.55142
1.26222
1.40001
1.40001
1.40001
1.34583
1.41877
1.25162
1.41044
1.57931
1.4054
1.40001
1.40001
1.48788
1.86365
1.40001
1.43036
1.48242
1.41304
1.40001
1.4989
1.38775
1.3863
1.40001
1.42889
1.40001
1.46847
1.46769
1.54936
1.40001
1.40001
1.40001
1.40001
1.40001
1.40001
1.40001
1.40001
1.73918
1.40001
1.43289
1.40001
1.39818
1.40001
1.40001
1.2755
1.40001
1.40001
1.5122
1.40001
1.44689
1.40001
1.40001
1.51152
1.44149
1.40001
1.41293
1.40001
1.40001
1.40001
1.40001
1.39883
1.29107
1.40001
1.40001
1.45218
1.25391
1.40001
1.40676
1.40001
1.4038
1.41136
1.40001
1.40001
1.26283
1.40001
1.29511
1.43188
1.40001
1.40302
1.40001
1.40001
1.46455
1.40001
1.4615
1.39261
1.40001
1.39246
1.39506
1.46093
1.40001
1.39513
1.40001
1.40001
1.40001
1.40001
1.40001
1.41117
1.40001
1.46486
1.25408
1.52449
1.28087
1.39587
1.52436
1.4114
1.4524
1.45204
1.40001
1.40001
1.40001
1.40001
1.40076
1.40001
1.2978
1.34054
1.19611
1.30047
1.39976
1.31612
1.39861
1.40001
1.40001
1.46226
1.42943
1.22315
1.46239
1.52136
1.52043
1.44546
1.32555
1.40001
1.44543
1.44899
1.40001
1.40001
1.40001
1.31679
1.40001
1.60904
1.39302
1.40001
1.40001
1.41279
1.40001
1.40001
1.39463
1.16599
1.42734
1.40001
1.40001
1.42856
1.40001
1.42887
1.44089
1.43061
1.40001
1.43125
1.41491
1.40001
1.39172
1.42857
1.40001
1.40001
1.46497
1.40001
1.41249
1.27907
1.40001
1.40001
1.47906
1.40001
1.40001
1.40001
1.40001
1.19816
1.40001
1.40001
1.51901
1.2801
1.51911
1.31237
1.40001
1.40001
1.40001
1.40001
1.40001
1.40001
1.40001
1.39765
1.19988
1.40001
1.40001
1.40001
1.40001
1.40001
1.40001
1.4114
1.43499
1.40001
1.422
1.40001
1.40001
1.24774
1.40001
1.40001
1.40001
1.48917
1.40001
1.40001
1.51099
1.41731
1.49089
1.40001
1.49353
1.49465
1.4977
1.19103
1.40001
1.51616
1.51563
1.42774
1.57251
1.40001
1.40001
1.41389
1.40001
1.79627
1.41572
1.40001
1.77432
1.40001
1.40001
1.44085
1.44839
1.40001
1.40001
1.28987
1.39949
1.40001
1.40001
1.37568
1.40001
1.40001
1.40001
1.40001
1.40001
1.40001
1.40001
1.40001
1.17085
1.40491
1.40009
1.41167
1.39851
1.56458
1.40001
1.41364
1.42702
1.57263
1.40001
1.5546
1.40001
1.55821
1.40001
1.41013
1.54916
1.40001
1.55127
1.67904
1.40001
1.53943
1.40001
1.54046
1.40001
1.19649
1.40001
1.28413
1.42723
1.40001
1.40001
1.53168
1.53296
1.40001
1.42184
1.5245
1.52526
1.37762
1.40001
1.40001
1.51373
1.51261
1.51496
1.40001
1.5208
1.50525
1.26054
1.50698
1.51226
1.52151
1.40001
1.40001
1.40001
1.49817
1.49902
1.41471
1.40001
1.40001
1.49191
1.30354
1.49282
1.25073
1.40001
1.4818
1.48278
1.40001
1.40001
1.40001
1.41024
1.40001
1.43031
1.42204
1.45929
1.40001
1.47209
1.40001
1.47297
1.40001
1.40001
1.43167
1.4332
1.46542
1.46598
1.39442
1.43845
1.45933
1.44057
1.45984
1.40001
1.38898
1.45122
1.45173
1.40001
1.27063
1.44334
1.4438
1.84247
1.40001
1.40001
1.40001
1.43917
1.40156
1.43896
1.18167
1.33127
1.39387
1.22587
1.43104
1.43254
1.41965
1.4276
1.42663
1.26599
1.26162
1.40001
1.46461
1.82779
1.50886
1.40001
1.22991
1.50864
1.26494
1.43651
1.4146
1.40001
1.40001
1.40001
1.52294
1.40001
1.40001
1.40001
1.40001
1.40001
1.52231
1.40001
1.40001
1.40001
1.27995
1.28359
1.40001
1.38375
1.17029
1.43565
1.40001
1.40001
1.40001
1.40001
1.40001
1.40933
1.40001
1.4012
1.40001
1.48875
1.39099
1.49173
1.27253
1.40001
1.40922
1.33291
1.49814
1.40001
1.40001
1.40001
1.40001
1.40001
1.49447
1.49139
1.4037
1.41666
1.41642
1.40001
1.28714
1.40001
1.40001
1.49467
1.41551
1.40001
1.43449
1.40001
1.40001
1.38595
1.39244
1.40001
1.49774
1.24272
1.38726
1.40001
1.39809
1.50388
1.40001
1.40001
1.39599
1.412
1.40001
1.50271
1.16992
1.40001
1.40001
1.52078
1.52206
1.40508
1.40001
1.17351
1.16903
1.33589
1.39666
1.40001
1.43039
1.53275
1.2447
1.66937
1.40001
1.40001
1.40001
1.48832
1.48925
1.40001
1.40001
1.40001
1.51907
1.4778
1.40001
1.40001
1.47892
1.5181
1.39956
1.39405
1.40001
1.39675
1.42932
1.23308
1.40143
1.25667
1.45617
1.40001
1.40001
1.45658
1.40001
1.40001
1.40987
1.40502
1.40001
1.49973
1.2889
1.42107
1.26559
1.26662
1.49939
1.2824
1.27442
1.24815
1.24532
1.40001
1.40001
1.55032
1.40001
1.40001
1.39729
1.30399
1.29183
1.40001
1.40001
1.43123
1.40001
1.4324
1.43099
1.40001
1.40001
1.36149
1.40001
1.40001
1.40001
1.40001
1.40768
1.43779
1.63501
1.16997
1.40001
1.51831
1.40001
1.40724
1.40449
1.51833
1.40001
1.40174
1.39427
1.40311
1.40001
1.40001
1.40001
1.40001
1.39505
1.43176
1.40001
1.37298
1.40001
1.27965
1.40001
1.27699
1.4336
1.41418
1.40001
1.49703
1.49669
1.30951
1.72428
1.40001
1.28923
1.44106
1.44072
1.2898
1.40001
1.40001
1.38828
1.21114
1.40001
1.40001
1.43481
1.19151
1.19377
1.39397
1.40001
1.40001
1.40001
1.40001
1.40001
1.40001
1.87223
1.40001
1.43735
1.25795
1.2701
1.71481
1.20034
1.16183
1.16821
1.27143
1.48046
1.43317
1.17331
1.54252
1.55463
1.56281
1.53545
1.54528
1.40001
1.4127
1.55534
1.40972
1.53682
1.39614
1.56502
1.51171
1.52784
1.41814
1.40001
1.40005
1.52904
1.40003
1.40001
1.51731
1.58101
1.40001
1.40001
1.51847
1.40001
1.40029
1.50967
1.40001
1.40001
1.40001
1.51114
1.40001
1.50148
1.40001
1.40001
1.40001
1.49243
1.5027
1.40001
1.40001
1.40001
1.49511
1.49857
1.40001
1.40001
1.40001
1.4959
1.49164
1.19052
1.48516
1.40001
1.33751
1.48579
1.47543
1.47568
1.25415
1.46849
1.46932
1.46247
1.40001
1.42515
1.46306
1.40001
1.4541
1.41244
1.40001
1.40001
1.45409
1.2931
1.19465
1.4466
1.44825
1.44097
1.51508
1.44096
1.19481
1.43608
1.40001
1.41366
1.5132
1.4368
1.37953
1.35972
1.39826
1.42819
1.41554
1.41459
1.40986
1.42843
1.42561
1.42575
1.43591
1.20276
1.17403
1.40001
1.2076
1.40001
1.19742
1.21361
1.21102
1.40001
1.80438
1.35447
1.40001
1.40945
1.40829
1.42761
1.4342
1.40001
1.53348
1.5018
1.50849
1.30608
1.184
1.49813
1.50275
1.49984
1.48939
1.41163
1.26252
1.42827
1.39485
1.40001
1.35441
1.29791
1.26254
1.36454
1.40001
1.54201
1.48973
1.21041
1.40001
1.48715
1.32235
1.34954
1.48657
1.40001
1.40001
1.40001
1.31524
1.36529
1.7342
1.49528
1.37651
1.38087
1.23202
1.51146
1.35495
1.51109
1.41531
1.34317
1.21177
1.28045
1.22226
1.34244
1.50627
1.416
1.40001
1.50502
1.56947
1.31808
1.36232
1.40001
1.40001
1.40001
1.41894
1.40001
1.40001
1.40001
1.20324
1.36685
1.25512
1.40001
1.35399
1.40001
1.41873
1.31824
1.40001
1.40001
1.16405
1.25775
1.40036
1.26406
1.44034
1.44137
1.40001
1.50947
1.43112
1.40001
1.38572
1.40001
1.3781
1.48252
1.40718
1.29861
1.40001
1.40001
1.35219
1.40727
1.41184
1.39905
1.43383
1.43515
1.40001
1.48181
1.41303
1.39656
1.39521
1.24948
1.38151
1.40001
1.32358
1.27905
1.40234
1.2358
1.40219
1.49101
1.40001
1.40001
1.40001
1.302
1.3994
1.40001
1.40306
1.40098
1.31518
1.44001
1.28844
1.40118
1.18976
1.4096
1.53501
1.40001
1.40001
1.32974
1.54859
1.40001
1.40001
1.40001
1.39519
1.40001
1.39285
1.19687
1.41537
1.39744
1.40001
1.40001
1.3967
1.40001
1.40031
1.40786
1.58215
1.40015
1.40001
1.47475
1.53894
1.40972
1.39734
1.5323
1.40001
1.33317
1.59805
1.56272
1.3308
1.40001
1.52491
1.60103
1.57927
1.40001
1.42254
1.17634
1.40001
1.40001
1.28728
1.58204
1.40001
1.54458
1.41926
1.40001
1.40001
1.34881
1.56115
1.47871
1.40638
1.57516
1.5066
1.25048
1.40001
1.55866
1.56359
1.4528
1.47902
1.40001
1.43944
1.50576
1.4607
1.49649
1.40001
1.54358
1.40001
1.40001
1.40001
1.54242
1.40001
1.40001
1.30087
1.41725
1.40001
1.30551
1.5462
1.43857
1.39795
1.40001
1.41229
1.40001
1.43588
1.40001
1.40001
1.40001
1.40001
1.40001
1.41415
1.40001
1.40001
1.40001
1.40001
1.40001
1.40001
1.39802
1.19173
1.40001
1.36283
1.40001
1.40001
1.40001
1.43825
1.28471
1.21705
1.40001
1.21656
1.4168
1.40001
1.40001
1.40001
1.4515
1.40001
1.4972
1.40001
1.57219
1.2732
1.23267
1.40001
1.40001
1.40001
1.40001
1.40001
1.40001
1.3939
1.39509
1.42942
1.57162
1.40001
1.40001
1.40001
1.40001
1.28197
1.40001
1.40001
1.40001
1.48748
1.40001
1.40001
1.40001
1.36791
1.36881
1.28577
1.52759
1.28262
1.36139
1.40001
1.40001
1.37765
1.37775
1.49092
1.49555
1.23252
1.49676
1.48862
1.37006
1.49562
1.49677
1.47375
1.52258
1.40001
1.45869
1.40001
1.4926
1.40001
1.40001
1.49356
1.47317
1.49731
1.40001
1.3882
1.49633
1.40001
1.4
1.28243
1.43992
1.49562
1.40002
1.50186
1.4
1.2465
1.4
1.291
1.40001
1.53195
1.25371
1.50124
1.43504
1.40005
1.49866
1.40606
1.40001
1.5257
1.55642
1.40001
1.40001
1.16773
1.40001
1.40001
1.40677
1.27713
1.40001
1.39731
1.41226
1.39709
1.40001
1.26888
1.51937
1.49638
1.49538
1.49565
1.41636
1.36313
1.50516
1.52957
1.29809
1.5322
1.48332
1.51817
1.48015
1.48258
1.40001
1.28174
1.40001
1.41448
1.40001
1.18206
1.41129
1.48357
1.49686
1.47964
1.49872
1.42859
1.47793
1.4872
1.13216
1.2889
1.53879
1.40001
1.48077
1.48111
1.40001
1.40001
1.40001
1.40001
1.40001
1.40001
1.40001
1.31418
1.40001
1.4697
1.20245
1.26747
1.55118
1.20569
1.26749
1.47819
1.24521
1.40001
1.18066
1.46931
1.30192
1.40001
1.42108
1.48078
1.40001
1.40001
1.49869
1.16899
1.2755
1.27212
1.43057
1.40001
1.40001
1.15401
1.35859
1.39398
1.52984
1.16573
1.40001
1.40001
1.40001
1.40001
1.40001
1.47601
1.47627
1.41622
1.21075
1.47046
1.47329
1.40001
1.44435
1.47357
1.4
1.53111
1.40001
1.59414
1.40001
1.40001
1.51842
1.47071
1.51076
1.56687
1.20396
1.57446
1.5863
1.5268
1.40001
1.40001
1.48735
1.41788
1.40001
1.4981
1.40001
1.2205
1.40001
1.40001
1.46344
1.18816
1.40001
1.46661
1.39285
1.46683
1.40001
1.40001
1.49756
1.53665
1.18299
1.27129
1.20114
1.37584
1.35782
1.36711
1.18613
1.42665
1.35298
1.39123
1.40001
1.46368
1.20762
1.18103
1.37853
1.51912
1.45835
1.29573
1.40001
1.40001
1.39015
1.38791
1.41027
1.40001
1.45608
1.42535
1.45913
1.44597
1.45933
1.37137
1.44444
1.40001
1.26434
1.40001
1.18763
1.39517
1.45611
1.40033
1.42164
1.2001
1.29592
1.49246
1.40001
1.29459
1.49965
1.25827
1.60163
1.286
1.44848
1.4522
1.6008
1.19834
1.45121
1.381
1.40001
1.45027
1.45135
1.5333
1.55367
1.40001
1.39823
1.40001
1.70423
1.28816
1.41899
1.23115
1.1941
1.40001
1.18919
1.23151
1.4487
1.40001
1.21153
1.41489
1.4448
1.40022
1.42124
1.20348
1.30654
1.38276
1.53183
1.40026
1.21457
1.44083
1.44366
1.40001
1.44382
1.40001
1.39463
1.60101
1.44085
1.26121
1.5605
1.44417
1.40001
1.19435
1.48171
1.42208
1.40001
1.24527
1.48142
1.51666
1.54993
1.44657
1.40001
1.43339
1.4
1.43671
1.40001
1.48158
1.4371
1.40001
1.51442
1.48247
1.52471
1.41179
1.48028
1.43264
1.32113
1.40001
1.40001
1.48053
1.22025
1.40001
1.23368
1.41525
1.51628
1.52172
1.23502
1.38054
1.28881
1.40001
1.2326
1.64774
1.40001
1.40001
1.53377
1.64275
1.23181
1.4631
1.42839
1.21663
1.21092
1.5316
1.31805
1.4276
1.4245
1.53148
1.56054
1.46188
1.42558
1.44161
1.46245
1.44589
1.44756
1.71761
1.5474
1.2303
1.40001
1.51968
1.64768
1.42296
1.52991
1.64827
1.27592
1.40001
1.42282
1.41102
1.40693
1.29496
1.40001
1.40001
1.47201
1.46867
1.30604
1.43587
1.40001
1.40001
1.43452
1.46728
1.4943
1.40001
1.40001
1.39258
1.41456
1.41495
1.39447
1.42977
1.23725
1.40435
1.41149
1.40001
1.2363
1.49338
1.27736
1.22679
1.50883
1.49549
1.7141
1.46925
1.39779
1.4652
1.33997
1.46426
1.46941
1.41049
1.41312
1.32775
1.40001
1.42227
1.40001
1.40001
1.33944
1.32779
1.34805
1.33073
1.39404
1.42267
1.40001
1.40001
1.34231
1.46188
1.26557
1.28508
1.387
1.26282
1.5036
1.46861
1.4621
1.26159
1.22647
1.40602
1.48555
1.26028
1.40001
1.36042
1.48197
1.25845
1.66558
1.39487
1.3965
1.40001
1.40001
1.40034
1.36411
1.39999
1.40001
1.40001
1.36292
1.40001
1.45471
1.28062
1.25973
1.29747
1.40512
1.45486
1.38992
1.40001
1.25838
1.30166
1.40001
1.25277
1.38012
1.39074
1.40596
1.4289
1.40001
1.40001
1.4336
1.36027
1.4816
1.26259
1.26355
1.64319
1.29727
1.40001
1.40001
1.4465
1.40001
1.40001
1.49516
1.38978
1.36489
1.4468
1.40001
1.28587
1.49453
1.3178
1.40001
1.30978
1.55641
1.36821
1.40001
1.40001
1.40001
1.28479
1.35604
1.4618
1.31333
1.40001
1.40001
1.3435
1.3064
1.26536
1.27478
1.43907
1.45547
1.31958
1.40001
1.40001
1.40001
1.43907
1.40001
1.40001
1.40001
1.40902
1.40001
1.41905
1.40001
1.40001
1.40001
1.40001
1.40001
1.40001
1.40001
1.40001
1.40001
1.40001
1.40001
1.40001
1.37803
1.40001
1.40001
1.38842
1.44748
1.39999
1.40001
1.40001
1.45946
1.24632
1.31881
1.44243
1.40001
1.40001
1.38614
1.43474
1.48671
1.40001
1.40001
1.40001
1.40001
1.42169
1.43217
1.40001
1.46989
1.42459
1.31459
1.43244
1.45891
1.29734
1.37445
1.39584
1.39874
1.39999
1.40815
1.40001
1.41071
1.40001
1.40001
1.49226
1.48952
1.40001
1.40001
1.441
1.48849
1.32834
1.37628
1.47283
1.4002
1.40001
1.29131
1.40001
1.402
1.46199
1.46359
1.44882
1.2848
1.32346
1.39322
1.39611
1.41859
1.39994
1.4169
1.40001
1.44695
1.42313
1.28996
1.48289
1.54608
1.39922
1.40001
1.40001
1.45069
1.46588
1.45338
1.47914
1.64851
1.42091
1.25304
1.47743
1.40001
1.45259
1.51043
1.40001
1.46469
1.35536
1.24928
1.48514
1.49785
1.42604
1.41215
1.48143
1.40946
1.40829
1.40001
1.40806
1.40988
1.48229
1.39442
1.40001
1.40884
1.42279
1.43554
1.42352
1.47966
1.43926
1.40576
1.40001
1.47399
1.40001
1.40483
1.40528
1.40001
1.40001
1.64218
1.46718
1.5294
1.33525
1.40001
1.40001
1.47188
1.46147
1.42242
1.34946
1.40001
1.42933
1.40001
1.40441
1.61665
1.50127
1.47365
1.47288
1.36864
1.40001
1.47471
1.53007
1.47346
1.32674
1.4033
1.48428
1.41884
1.36459
1.40001
1.47707
1.38148
1.40001
1.40001
1.47503
1.4721
1.40001
1.4308
1.28475
1.37713
1.41669
1.47715
1.24184
1.3945
1.44654
1.4648
1.40001
1.46794
1.38979
1.42157
1.75093
1.42247
1.40001
1.40001
1.40001
1.37424
1.42392
1.46805
1.42367
1.46502
1.46744
1.40001
1.40001
1.66548
1.51345
1.45736
1.30094
1.40001
1.4387
1.40001
1.45387
1.42051
1.41971
1.46056
1.6287
1.43452
1.44539
1.51316
1.4607
1.45761
1.41767
1.40001
1.39799
1.31815
1.4162
1.40001
1.44998
1.41557
1.40001
1.40001
1.41998
1.40001
1.40001
1.35236
1.28447
1.44928
1.45286
1.50529
1.40001
1.40001
1.40001
1.39914
1.40001
1.31908
1.40492
1.30352
1.45323
1.24525
1.20379
1.44991
1.28419
1.40001
1.24883
1.32861
1.48254
1.29223
1.44223
1.40001
1.46301
1.40001
1.48206
1.44526
1.40001
1.40001
1.42508
1.40001
1.44084
1.40001
1.45898
1.44518
1.44219
1.43931
1.42319
1.40001
1.296
1.40001
1.53827
1.47434
1.43969
1.43269
1.40001
1.40001
1.44403
1.43399
1.40001
1.44597
1.43845
1.3864
1.4077
1.47218
1.45423
1.25967
1.40001
1.49139
1.42144
1.4704
1.438
1.47277
1.34079
1.43446
1.34986
1.40001
1.40001
1.43125
1.48874
1.33884
1.40346
1.38367
1.39649
1.45385
1.29074
1.43083
1.41281
1.30581
1.40001
1.47538
1.44175
1.33827
1.45796
1.35003
1.40001
1.40001
1.42909
1.42776
1.40001
1.40001
1.40001
1.40001
1.40001
1.54717
1.42344
1.40001
1.33321
1.40001
1.42979
1.48891
1.46614
1.45208
1.42772
1.4181
1.42608
1.45544
1.32834
1.40001
1.40001
1.36337
1.50263
1.40001
1.40001
1.38821
1.4774
1.42286
1.40001
1.41948
1.48398
1.40001
1.45845
1.44956
1.45769
1.4853
1.49415
1.42133
1.40001
1.41957
1.31897
1.40001
1.40001
1.36056
1.48846
1.42693
1.48989
1.421
1.30921
1.49655
1.56624
1.49134
1.50822
1.49793
1.40001
1.4547
1.48278
1.50492
1.41194
1.40001
1.40001
1.45411
1.41283
1.3112
1.21553
1.53465
1.40001
1.40001
1.43889
1.52236
1.29485
1.41265
1.51556
1.51874
1.44061
1.21698
1.40001
1.51075
1.28585
1.40649
1.40639
1.28273
1.57362
1.40821
1.46624
1.40652
1.40001
1.37098
1.44146
1.4109
1.34593
1.40017
1.53079
1.44155
1.28733
1.41327
1.46892
1.41477
1.29406
1.32004
1.30211
1.52762
1.40039
1.39214
1.45996
1.38628
1.46944
1.44787
1.46297
1.446
1.52489
1.39156
1.42674
1.38715
1.27498
1.31078
1.4443
1.31008
1.40017
1.40001
1.41745
1.40001
1.3032
1.40019
1.40001
1.40001
1.3056
1.40001
1.40001
1.38424
1.45866
1.66065
1.39432
1.40001
1.21684
1.40001
1.35223
1.31253
1.39739
1.30677
1.41241
1.3971
1.41283
1.42278
1.42997
1.40001
1.33972
1.40001
1.40639
1.465
1.40001
1.3633
1.34964
1.53162
1.41094
1.53279
1.40001
1.34654
1.21685
1.45913
1.40001
1.54749
1.44048
1.35547
1.45876
1.37244
1.39608
1.40001
1.35086
1.40001
1.31105
1.64833
1.35596
1.2297
1.40001
1.46974
1.26257
1.35543
1.21454
1.40344
1.46991
1.48059
1.43504
1.40001
1.40672
1.40733
1.40001
1.54463
1.40001
1.46998
1.45895
1.54362
1.54126
1.40001
1.40001
1.47011
1.43499
1.314
1.55268
1.40001
1.40001
1.54765
1.46939
1.56088
1.47245
1.55645
1.46944
1.40001
1.35177
1.40813
1.42407
1.46842
1.39756
1.4268
1.4251
1.57377
1.46867
1.53938
1.43979
1.40001
1.40001
1.40001
1.31503
1.46714
1.40001
1.40547
1.41062
1.56416
1.44786
1.42163
1.41397
1.3171
1.46726
1.53078
1.40364
1.45503
1.23726
1.40726
1.44319
1.40001
1.42385
1.44665
1.36852
1.42202
1.49412
1.4904
1.56796
1.40537
1.58332
1.57895
1.40001
1.31463
1.1945
1.46589
1.40001
1.40001
1.41274
1.40001
1.57519
1.26201
1.46609
1.50742
1.40001
1.45343
1.43229
1.41047
1.40001
1.41538
1.42433
1.46438
1.51894
1.38069
1.57128
1.40001
1.32845
1.38354
1.41478
1.40001
1.46432
1.40001
1.35595
1.24663
1.41967
1.58741
1.45154
1.43912
1.59214
1.41982
1.40001
1.38366
1.42087
1.48986
1.8328
1.47106
1.45361
1.46199
1.46126
1.47892
1.53607
1.40001
1.40001
1.46401
1.41981
1.46207
1.48634
1.38123
1.42502
1.46291
1.40001
1.38405
1.40001
1.16974
1.40001
1.21112
1.42383
1.45968
1.45974
1.32231
1.40001
1.40001
1.59618
1.4
1.40001
1.40001
1.43058
1.32122
1.4369
1.60651
1.42936
1.41207
1.4564
1.43387
1.49125
1.32636
1.40001
1.41281
1.45624
1.32696
1.32526
1.25898
1.4319
1.43031
1.40001
1.44582
1.40001
1.40001
1.4663
1.31911
1.34862
1.4001
1.45411
1.64682
1.31915
1.40001
1.40001
1.45403
1.4416
1.44371
1.47473
1.43957
1.40001
1.39994
1.4237
1.43772
1.40001
1.40001
1.40001
1.40001
1.44331
1.40001
1.48496
1.45057
1.48149
1.42865
1.45065
1.40001
1.44236
1.40001
1.40001
1.40001
1.44735
1.44788
1.44757
1.40001
1.47442
1.44566
1.30529
1.40001
1.40001
1.28895
1.4843
1.40001
1.29462
1.45015
1.40001
1.40001
1.40001
1.40001
1.40001
1.44559
1.40001
1.34188
1.44862
1.40001
1.51735
1.42603
1.40001
1.44407
1.20201
1.40001
1.2884
1.48602
1.40001
1.40001
1.51574
1.5295
1.40001
1.40001
1.40001
1.29211
1.29356
1.33981
1.45563
1.46371
1.50351
1.40001
1.40001
1.30607
1.51484
1.40001
1.29384
1.45427
1.40001
1.34896
1.40001
1.46331
1.40001
1.34425
1.40001
1.25988
1.40001
1.40001
1.4485
1.20148
1.51268
1.40001
1.40001
1.46191
1.40001
1.34116
1.30567
1.46113
1.21309
1.40001
1.21524
1.40001
1.25807
1.30337
1.44293
1.33528
1.40001
1.39455
1.45967
1.35686
1.35299
1.44721
1.40001
1.40968
1.35514
1.40001
1.40001
1.27782
1.27859
1.45584
1.19157
1.46639
1.40001
1.40001
1.40001
1.46522
1.65685
1.3034
1.47031
1.40001
1.52059
1.3671
1.29072
1.31206
1.5332
1.40001
1.46376
1.4694
1.36261
1.42958
1.43216
1.2587
1.38593
1.40001
1.30209
1.26372
1.40001
1.45879
1.40001
1.40001
1.23702
1.47526
1.40001
1.41145
1.40001
1.40001
1.38881
1.45884
1.40001
1.40001
1.40001
1.47537
1.45863
1.40001
1.13517
1.40001
1.47396
1.40001
1.40545
1.25996
1.40001
1.40001
1.33364
1.4743
1.40001
1.20652
1.40001
1.41887
1.37372
1.39998
1.47886
1.37116
1.21191
1.47864
1.45246
1.29389
1.55437
1.40001
1.40001
1.38616
1.47687
1.47768
1.22572
1.45289
1.48535
1.29705
1.40001
1.52098
1.40001
1.64483
1.33192
1.48229
1.48121
1.20949
1.401
1.40609
1.40001
1.40132
1.48247
1.39338
1.34886
1.30527
1.40001
1.3876
1.34048
1.40001
1.44647
1.48063
1.40001
1.40001
1.40001
1.4816
1.34028
1.4655
1.44686
1.40769
1.40001
1.48421
1.4
1.45452
1.48705
1.44744
1.40001
1.65616
1.22279
1.48366
1.40009
1.44333
1.45272
1.40001
1.40001
1.311
1.48558
1.33675
1.4
1.39891
1.38884
1.3912
1.38732
1.70422
1.40011
1.3916
1.26029
1.40001
1.44392
1.49011
1.45428
1.40001
1.48747
1.40001
1.55534
1.45893
1.30789
1.57277
1.39722
1.43753
1.32141
1.44231
1.46202
1.53751
1.40001
1.44202
1.37709
1.35492
1.42604
1.48699
1.40001
1.39856
1.4886
1.4354
1.37809
1.33473
1.40001
1.59147
1.45998
1.67989
1.40001
1.52619
1.29937
1.45275
1.55789
1.31762
1.39811
1.46735
1.40556
1.53971
1.57573
1.4049
1.4936
1.50806
1.40001
1.4629
1.46557
1.43809
1.47016
1.51688
1.26887
1.62228
1.49092
1.59477
1.45709
1.40369
1.49719
1.40001
1.49311
1.46634
1.46428
1.46932
1.40001
1.48984
1.32645
1.40001
1.68838
1.4705
1.46911
1.47176
1.40001
1.62943
1.32637
1.40001
1.46955
1.49168
1.46767
1.40001
1.40001
1.47004
1.46939
1.40001
1.49252
1.40001
1.46666
1.49604
1.30587
1.40001
1.46784
1.40001
1.46508
1.23396
1.40001
1.4111
1.49893
1.46683
1.46322
1.40001
1.40001
1.40001
1.47902
1.49575
1.33127
1.46516
1.45855
1.46092
1.50058
1.26713
1.40087
1.5255
1.40001
1.40001
1.47107
1.46624
1.40218
1.40001
1.47693
1.52767
1.40001
1.46329
1.35826
1.35708
1.36062
1.39486
1.40001
1.45745
1.50032
1.48387
1.32844
1.46085
1.53138
1.4479
1.30031
1.42103
1.48353
1.40001
1.68071
1.44455
1.33177
1.4551
1.53598
1.41324
1.42897
1.33038
1.28829
1.40001
1.45771
1.49922
1.46077
1.48195
1.50643
1.40001
1.41713
1.45168
1.44721
1.40042
1.4554
1.40001
1.40001
1.50236
1.44867
1.45845
1.40001
1.23305
1.40001
1.40001
1.42412
1.39658
1.40001
1.45137
1.56245
1.46861
1.40001
1.30388
1.45308
1.50053
1.44522
1.40001
1.44937
1.4244
1.33357
1.476
1.55156
1.42575
1.49204
1.40001
1.39997
1.46939
1.47258
1.40001
1.40001
1.45348
1.41482
1.44511
1.40001
1.49058
1.50574
1.40022
1.40001
1.4308
1.46731
1.40001
1.41552
1.44334
1.44609
1.30854
1.4245
1.40001
1.31851
1.40001
1.39426
1.42539
1.40001
1.40001
1.46307
1.42383
1.46904
1.44867
1.21181
1.40001
1.40001
1.33185
1.34814
1.50006
1.42698
1.40001
1.3486
1.41956
1.47661
1.4
1.40001
1.49855
1.40001
1.40001
1.40001
1.40001
1.42381
1.40001
1.40034
1.35717
1.40001
1.14689
1.50611
1.46778
1.27015
1.40001
1.42638
1.40001
1.45699
1.50212
1.40001
1.39968
1.40001
1.40001
1.44736
1.50444
1.33737
1.48979
1.40001
1.47017
1.45469
1.75339
1.55107
1.20146
1.40001
1.33629
1.18987
1.40001
1.33599
1.40001
1.40001
1.32868
1.53703
1.40001
1.18869
1.3963
1.5108
1.52737
1.4
1.21469
1.40001
1.34517
1.37919
1.41864
1.39559
1.39681
1.47988
1.50962
1.42162
1.33866
1.32699
1.40001
1.40001
1.39995
1.37472
1.40001
1.40001
1.30864
1.40001
1.40001
1.45909
1.44138
1.40001
1.51655
1.40001
1.45114
1.33544
1.26987
1.40001
1.4
1.45753
1.64134
1.19502
1.51526
1.45187
1.44886
1.34205
1.46332
1.24917
1.22151
1.21866
1.47912
1.21316
1.40001
1.52642
1.40001
1.46533
1.40001
1.25127
1.29688
1.5977
1.58049
1.40001
1.4981
1.27202
1.32208
1.35887
1.51861
1.45332
1.21646
1.40001
1.45025
1.32113
1.55861
1.49329
1.4488
1.40001
1.40001
1.40001
1.40001
1.43113
1.44002
1.51922
1.25014
1.49795
1.26189
1.40001
1.3462
1.58481
1.46111
1.60134
1.44758
1.4518
1.32689
1.40001
1.40001
1.21892
1.40001
1.4566
1.34963
1.26668
1.42014
1.41033
1.35803
1.44213
1.40001
1.44319
1.40001
1.40001
1.45283
1.52088
1.41702
1.56179
1.33909
1.45517
1.48314
1.67189
1.3399
1.26479
1.39284
1.40001
1.32852
1.52388
1.38823
1.41257
1.44997
1.41238
1.47531
1.41359
1.40001
1.41929
1.43567
1.25695
1.40001
1.46955
1.33993
1.41779
1.31819
1.40001
1.19499
1.48543
1.4409
1.40001
1.34573
1.40001
1.40001
1.39242
1.40001
1.40001
1.4565
1.49667
1.29243
1.33191
1.25556
1.46785
1.44152
1.53082
1.40001
1.40001
1.28592
1.31668
1.41604
1.40997
1.47523
1.40001
1.42499
1.21783
1.41782
1.33257
1.30418
1.21054
1.40001
1.49227
1.4577
1.44052
1.52924
1.40059
1.40001
1.40001
1.50375
1.41942
1.5406
1.4348
1.46157
1.47301
1.40822
1.40023
1.40001
1.42579
1.40532
1.53839
1.40001
1.4155
1.31455
1.23044
1.40001
1.39987
1.44957
1.28556
1.37426
1.25902
1.4732
1.52704
1.40001
1.494
1.41906
1.40001
1.44922
1.40712
1.29199
1.22112
1.42445
1.47208
1.45797
1.27447
1.43627
1.40001
1.47807
1.40001
1.26306
1.40001
1.40001
1.46351
1.22656
1.40001
1.40759
1.39657
1.39936
1.40001
1.52382
1.36432
1.40001
1.37105
1.27596
1.4348
1.39593
1.48098
1.44062
1.22727
1.41012
1.41636
1.42789
1.24196
1.34282
1.40001
1.47907
1.33876
1.34318
1.38432
1.34202
1.40001
1.22949
1.47973
1.3462
1.40001
1.41113
1.29685
1.40001
1.44583
1.45747
1.48647
1.45414
1.33998
1.31159
1.33803
1.48237
1.45347
1.40001
1.3234
1.45287
1.44281
1.35485
1.27902
1.40001
1.29802
1.43409
1.40001
1.44721
1.40001
1.30223
1.40166
1.40001
1.48479
1.43768
1.40001
1.4353
1.40001
1.3411
1.46467
1.4511
1.48338
1.40001
1.21852
1.40001
1.45803
1.70468
1.43052
1.40001
1.44852
1.54122
1.45363
1.48764
1.45447
1.27266
1.33368
1.47174
1.40001
1.61043
1.30244
1.40001
1.31757
1.49469
1.44292
1.43145
1.57741
1.22232
1.40002
1.34132
1.40001
1.4897
1.5457
1.45633
1.45399
1.35119
1.40001
1.46354
1.40001
1.30255
1.40001
1.39987
1.45525
1.30794
1.4
1.44878
1.49295
1.54293
1.40001
1.51816
1.69619
1.40001
1.41133
1.27783
1.46213
1.30636
1.44336
1.58633
1.40001
1.40001
1.36722
1.3604
1.50622
1.52811
1.5384
1.37028
1.31837
1.52024
1.44132
1.40001
1.34764
1.32529
1.54793
1.40001
1.30531
1.27955
1.23
1.44533
1.47172
1.40001
1.40001
1.33053
1.45275
1.50894
1.39305
1.48156
1.45421
1.45809
1.22809
1.39999
1.46637
1.40001
1.58642
1.39014
1.35171
1.40001
1.34607
1.67236
1.47081
1.40001
1.34522
1.35713
1.20167
1.52099
1.46688
1.48902
1.43727
1.42338
1.35225
1.4371
1.40001
1.32917
1.48432
1.48137
1.48547
1.48833
1.47635
1.49248
1.40001
1.35276
1.47285
1.46652
1.40001
1.35672
1.41468
1.44307
1.40001
1.41508
1.49842
1.21059
1.43163
1.43854
1.40001
1.43247
1.49467
1.40001
1.50116
1.41603
1.34414
1.32884
1.43699
1.40001
1.32911
1.34215
1.44318
1.45462
1.37084
1.46207
1.50338
1.42024
1.42411
1.40001
1.61116
1.34044
1.43968
1.43059
1.39326
1.44541
1.41829
1.66687
1.40001
1.44233
1.52724
1.48274
1.40001
1.48005
1.48758
1.34107
1.47545
1.40001
1.47098
1.4913
1.43769
1.40001
1.51726
1.39162
1.48495
1.49361
1.45148
1.4906
1.23866
1.45655
1.40025
1.40001
1.40001
1.56473
1.53977
1.49851
1.34022
1.48628
1.33794
1.27434
1.41593
1.36824
1.39328
1.31106
1.32417
1.45365
1.46811
1.50245
1.33863
1.33117
1.34106
1.49378
1.38812
1.42487
1.48485
1.50045
1.40001
1.35027
1.42566
1.44935
1.40001
1.39994
1.34326
1.46343
1.39345
1.40001
1.49832
1.41917
1.48863
1.40001
1.44015
1.40881
1.34542
1.21414
1.39271
1.40001
1.26817
1.41738
1.4946
1.41748
1.23393
1.434
1.5687
1.46697
1.39247
1.33801
1.65594
1.42362
1.30406
1.47823
1.28191
1.40001
1.48822
1.40001
1.42589
1.67341
1.42749
1.40001
1.40001
1.34133
1.44413
1.50815
1.40001
1.30071
1.46358
1.48001
1.48725
1.39568
1.33215
1.48339
1.40042
1.4724
1.48372
1.40001
1.34749
1.42804
1.46396
1.62445
1.40001
1.40001
1.41744
1.41719
1.40001
1.57543
1.47626
1.40001
1.42452
1.57503
1.40001
1.40001
1.3964
1.30448
1.34111
1.42541
1.32966
1.34139
1.41379
1.4
1.40001
1.42731
1.49749
1.40001
1.46655
1.3339
1.48671
1.42292
1.40001
1.24061
1.47241
1.33651
1.39679
1.19385
1.48507
1.47769
1.38199
1.43973
1.42726
1.33999
1.30765
1.42292
1.40001
1.44362
1.36654
1.46869
1.4
1.33996
1.33832
1.29971
1.34149
1.40001
1.41582
1.40001
1.48889
1.53624
1.17976
1.33903
1.34195
1.33507
1.40001
1.33882
1.40001
1.49435
1.23827
1.38253
1.33834
1.44544
1.34036
1.40001
1.43488
1.70531
1.40001
1.39852
1.3403
1.25702
1.3457
1.57095
1.5646
1.40001
1.48346
1.3395
1.39262
1.40001
1.3204
1.40001
1.40089
1.33779
1.42373
1.43468
1.40001
1.18023
1.33387
1.34231
1.48178
1.40001
1.40001
1.40001
1.41161
1.45519
1.46166
1.47284
1.40001
1.52924
1.56935
1.45953
1.44164
1.19974
1.25567
1.5324
1.3945
1.40001
1.40001
1.30529
1.31326
1.39907
1.40001
1.34823
1.40001
1.38594
1.40001
1.43326