/*--------------------------------*- C++ -*----------------------------------*\
  =========                 |
  \\      /  F ield         | OpenFOAM: The Open Source CFD Toolbox
   \\    /   O peration     | Website:  https://openfoam.org
    \\  /    A nd           | Version:  12
     \\/     M anipulation  |
\*---------------------------------------------------------------------------*/
FoamFile
{
    format      ascii;
    class       volScalarField;
    location    "1.1";
    object      T;
}
// * * * * * * * * * * * * * * * * * * * * * * * * * * * * * * * * * * * * * //

dimensions      [0 0 0 1 0 0 0];

internalField   nonuniform List<scalar> 
46253
(
1.01171
1
1
1
1
1
1.00293
1.02262
1
1
1.01136
0.946396
1
1
1
1
1
1
1
1
1
1
1
1.00664
1.00746
1
1
1
1
1.0272
1.01904
1
1
1
1
1
1
1
1.0098
1
0.979987
0.946377
1
1
0.937911
1
1
1
1
1
1
1
1
1.01322
1
0.961354
1
1
1.05492
0.973917
1
0.998208
1
1
1
1
1
1
0.961457
0.938551
1.00277
1
1
1.00448
1
1.00665
1
1
1
1
1
1
1
1
0.985818
1
1
1
0.952925
1
1
0.979511
1
1
1
1
1
1
1.05381
1
1
1
1
1.01841
1
0.985725
0.947306
1
1
0.951704
1.01619
1
1
1
1
0.913375
0.937065
0.973374
1.10455
0.965036
1
1
1
1
1
1.10937
1
0.958028
1.00012
1
1.00001
1.00001
1
1.00432
1
1
1
1
0.963989
1
1
0.99996
1
1.01546
1
0.99999
1
1
1.01011
1
0.951239
1
1
1
1.00604
0.938194
0.958019
1
1
1
1
0.948283
0.961577
1
1.00576
1
1.00445
1
1.16151
1
1
1
1
0.981973
1
0.934936
1.00277
1
1.00436
0.937282
1
1.00498
1
1
1
1
1
0.936321
1
1
1
1
0.998534
1
1
1
1.0157
1
1.03203
1.03428
1
1
1
1
1
0.937028
1.00419
1
0.999999
1
1
1.10851
0.982008
1
1.00331
1
1.01467
0.983495
0.999999
1
1
1
0.934746
1
1
0.981991
1
1
1.03395
1.03392
1.03915
1
1
1
1
1
1
1
1.03779
1.04412
1
1
1
1
1
1
1
1.00348
1
1.00002
1.00002
1.04267
1.03236
1
1.03256
1
1
0.965846
0.978321
1
1.00312
0.975826
0.949958
1.0166
1.0042
1
1
1
0.999999
0.999718
0.999999
1
1
1
0.999467
1
0.999992
1
1.00569
0.971741
1.03021
1.03004
1
1
1
0.999207
1.00167
0.964964
1.01196
1
1.05199
1.05083
0.982593
1
1.04922
1.02883
1
1.0287
0.982011
0.999513
1.10618
1.0003
0.958142
1.10083
1
1.00002
1.00002
1
1.0177
1
1
1.00591
1
1.00334
1
1.01025
0.961823
1.04798
1
1.00678
0.957238
1
1.00299
1.00797
1.00619
1.01117
1
1
1.0138
1.0167
1.02526
1.02504
1
1
1
0.997859
0.965229
0.999752
0.999837
1
1
1
1
1.0817
1
1.01647
1.01713
1
0.962179
1
1.01732
1
0.936442
1
0.949863
1
0.999441
1
0.999432
1
0.949862
1
1
1
1
1
1
1
1.0183
1
1
1
1
1.01767
1
1.04654
0.963996
1
1
1
0.984366
1.00546
0.958195
1.00299
1.04653
1.00155
1
1
1.02467
1.12901
1
1.01281
1.02316
1.00379
1
1.02846
1.00011
1.00166
1
1.00823
1
1.0193
1.01908
1.04538
1
1
1
1
1
1
1
1
1.09359
1
1.00935
1
0.99956
1
1
0.966971
1
1
1.03136
1
1.01329
1
1
1.03116
1.01177
1
1.00393
1
1
1
1
0.999688
0.96608
1
1
1.01545
0.957904
1
1.002
1
1.0011
1.00694
1
1
0.964658
1
0.971873
1.00907
1
1.00095
1
1
1.01849
1
1.01734
0.997937
1
0.997894
0.998632
1.01719
1
0.998655
1
1
1
1
1
1.00339
1
1.01874
0.958894
1.03468
0.968439
1.0028
1.03464
1.0034
1.01482
1.01473
1
1
1
1
1.00021
1
0.972277
0.982816
0.942661
0.972492
0.999956
0.975634
0.99962
1
1
1.01758
1.00837
0.949797
1.01761
1.03384
1.03358
1.01288
0.978406
1
1.01287
1.01724
1
1
1
0.975819
1
1.0527
0.998081
1
1
1.00366
1
1
0.998551
0.931965
1.00779
1
1
1.00813
1
1.00822
1.0116
1.00871
1
1.00888
1.00439
1
0.997694
1.00813
1
1
1.01832
1
1.00358
0.968233
1
1
1.02222
1
1
1
1
0.941775
1
1
1.03319
0.968679
1.03322
0.974512
1
1
1
1
1
1
1
0.999355
0.943428
1
1
1
1
1
1
1.00327
1.0135
1
1.00994
1
1
0.957809
1
1
1
1.02502
1
1
1.03098
1.0092
1.02559
1
1.02631
1.02662
1.02747
0.922919
1
1.03242
1.03227
1.01384
1.03699
1
1
1.00421
1
1.10636
1.00475
1
1.10255
1
1
1.01691
1.01898
1
1
0.955334
0.999884
1
1
0.998831
1
1
1
1
1
1
1
1
0.935034
1.00142
1.00002
1.00342
0.999572
1.04575
1
1.00391
1.00769
1.04789
1
1.04304
1
1.04405
1
1.0029
1.04155
1
1.04214
1.07931
1
1.03889
1
1.03916
1
0.941042
1
0.969389
1.00775
1
1
1.03673
1.0371
1
1.00623
1.03479
1.03496
0.997259
1
1
1.03199
1.03145
1.03233
1
1.03367
1.02967
0.95933
1.03017
1.03136
1.03387
1
1
1
1.02764
1.0279
0.997763
1
1
1.02587
0.972853
1.02613
0.956653
1
1.02305
1.02329
1
1
1
1.00301
1
1.00862
1.00634
1.02045
1
1.02052
1
1.02075
1
1
1.009
1.00943
1.0187
1.01887
0.998422
1.01091
1.01683
1.01151
1.01703
1
1.00091
1.01451
1.01462
1
0.965013
1.01241
1.01251
1.12273
1
1
1
1.01128
1.00046
1.01121
0.934876
0.968577
0.998308
0.950494
1.00894
1.00938
1.0057
1.0079
1.00765
0.962933
0.961494
1
1.01718
1.11415
1.03042
1
0.95292
1.03036
0.960858
0.999885
1.00418
1
1
1
1.03426
1
1
1
1
1
1.03409
1
1
1
0.967909
0.96667
1
0.999461
0.934994
1.01012
1
1
1
1
1
1.00276
1
1.00036
1
1.02501
0.997491
1.02582
0.963243
1
1.00271
0.980573
1.0276
1
1
1
1
1
1.02657
1.02572
1.00116
1.00477
1.0047
1
0.970714
1
1
1.02662
1.00457
1
1.00893
1
1
1.00101
1.00297
1
1.02746
0.957498
0.996417
1
0.999473
1.02906
1
1
0.998895
1.00344
1
1.02874
0.931867
1
1
1.03385
1.03416
1.00147
1
0.932776
0.931297
0.98145
0.999125
1
1.00865
1.03647
0.957665
1.07771
1
1
1
1.02484
1.02511
1
1
1
1.03321
1.02203
1
1
1.02228
1.03294
0.999897
0.998323
1
0.999089
1.00835
0.953431
1.00043
0.958375
1.01587
1
1
1.01602
1
1
1.00283
1.00145
1
1.02793
0.967912
1.00601
0.965089
0.965327
1.02783
0.966298
0.963974
0.955658
0.954937
1
1
1.02907
1
1
0.999256
0.97205
0.968568
1
1
1.00889
1
1.00921
1.00882
1
1
0.984407
1
1
1
1
1.00221
1.01073
1.05095
0.931503
1
1.03301
1
1.00212
1.00136
1.03301
1
1.00059
0.998439
1.00098
1
1
1
1
0.998658
1.00903
1
0.996361
1
0.965518
1
0.964764
1.00955
1.00406
1
1.02719
1.02709
0.973666
1.09114
1
0.967875
1.0108
1.01071
0.968054
1
1
0.996719
0.944287
1
1
1.00989
0.939431
0.923894
0.998336
1
1
1
1
1
1
1.12615
1
1.0106
0.961677
0.962413
1.07354
0.940654
0.928666
0.93064
0.967437
1.01757
1.00943
0.933065
1.03974
1.04302
1.04526
1.0378
1.0405
1
1.00383
1.04323
1.00292
1.03818
0.99892
1.04593
1.03136
1.03566
1.0052
1
1.00001
1.03598
1.00001
1
1.03295
1.05205
1
1
1.03325
1
1.00008
1.0309
1
1
1
1.0313
1
1.02859
1
1
1
1.02592
1.02896
1
1
1
1.02677
1.02772
1
1
1
1.027
1.0257
0.937565
1.02395
1
0.983146
1.02412
1.02143
1.02147
0.961607
1.01955
1.01977
1.01781
1
1.00717
1.01803
1
1.01528
1.00357
1
1
1.01527
0.970184
0.938747
1.01328
1.0137
1.01177
1.03212
1.01175
0.938935
1.01039
1
1.00403
1.03161
1.0106
0.998225
0.993906
0.999519
1.0081
1.00448
1.00424
1.00284
1.00819
1.00733
1.00736
1.0102
0.941201
0.933205
1
0.942691
1
0.939552
0.94452
0.943871
1
1.10982
0.978825
1
1.0027
1.00238
1.01317
1.01504
1
1.02884
1.02871
1.03053
0.960779
0.919642
1.0277
1.02897
1.02818
1.02518
1.00353
0.962594
1.00805
0.998561
1
0.987661
0.970303
0.960056
0.995414
1
1.03967
1.02529
0.946259
1
1.02447
0.977462
0.986589
1.02431
1
1
1
0.976542
0.995108
1.0787
1.02692
0.998399
0.999725
0.950292
1.03114
0.98811
1.03104
1.00448
0.983585
0.948421
0.965759
0.947187
0.98443
1.02993
1.00468
1
1.02958
1.047
0.977276
0.990398
1
1
1
1.00541
1
1
1
0.941504
0.991616
0.957938
1
0.986744
1
1.00535
0.977212
1
1
0.931629
0.958518
1.0001
0.960452
1.01144
1.01173
1
1.03076
1.00885
1
0.995916
1
0.994967
1.02319
1.00206
0.970488
1
1
0.986948
1.00208
1.00342
0.999761
1.00961
1.00998
1
1.02299
1.00375
0.999035
0.998649
0.956144
0.995872
1
0.97862
0.964558
1.00076
0.954578
1.00071
1.02563
1
1
1
0.971466
0.999907
1
1.00089
1.00036
0.964884
1.00009
0.967763
1.00035
0.937454
1.00277
1.03777
1
1
0.980733
1.04148
1
1
1
0.998698
1
0.998027
0.941392
1.00458
0.999281
1
1
0.999069
1
1.00009
1.00226
1.05018
1.00004
1
1.02139
1.03849
1.00279
0.99925
1.03694
1
0.980648
1.0546
1.04523
0.981067
1
1.03489
1.05539
1.04973
1
1.00643
0.933887
1
1
0.967933
1.05046
1
1.04039
1.00804
1
1
0.985235
1.04495
1.02214
0.996992
1.04848
1.02981
0.956822
1
1.04416
1.04561
1.00684
1.02222
1
1.01208
1.02958
1.01814
1.02726
1
1.04028
1
1
1
1.03981
1
1
0.972433
1.00507
1
0.973386
1.04099
1.01095
0.999441
1
1.00371
1
1.01019
1
1
1
1
1
1.00419
1
1
1
1
1
1
0.99951
0.938108
1
0.992912
1
1
1
1.01087
0.971436
0.945634
1
0.94543
1.00779
1
1
1
1.01648
1
1.02734
1
1.0477
0.963628
0.950416
1
1
1
1
1
1
0.998256
0.998662
1.00837
1.04756
1
1
1
1
0.966193
1
1
1
1.02465
1
1
1
0.990779
0.991041
0.967181
1.03644
0.966209
0.988888
1
1
0.993592
0.993622
1.0256
1.02691
0.953752
1.02725
1.02496
0.996498
1.02699
1.02732
1.02077
1.03425
1
1.01569
1
1.02606
1
1
1.02632
1.0206
1.02737
1
0.99663
1.0271
1
1
0.96628
1.01132
1.02687
1
1.0285
0.999999
0.954625
0.999999
0.971871
1
1.03801
0.957396
1.02834
1.00995
1.00001
1.02771
0.999113
1
1.02848
1.04356
1
1
0.930667
1
1
0.996832
0.963949
1
0.999229
1.0035
0.999166
1
0.962217
1.03544
1.02717
1.02689
1.02716
1.00468
0.985543
1.0307
1.03646
0.970229
1.0415
1.02343
1.03303
1.02256
1.02322
1
0.965329
1
1.00427
1
0.934978
1.00349
1.0235
1.02723
1.01987
1.02774
1.00813
1.02193
1.02456
0.906866
0.968376
1.03879
1
1.02272
1.02281
1
1
1
1
1
1
1
0.975323
1
1.01964
0.941367
0.961837
1.04217
0.942283
0.961829
1.02201
0.955013
1
0.934449
1.01953
0.971399
1
1.00461
1.02289
1
1
1.02761
0.930889
0.968358
0.966981
1.00988
1
1
0.926251
0.992105
0.998345
1.03626
0.929843
1
1
1
1
1
1.0214
1.02147
1.00834
0.943906
1.01986
1.02065
1
1.01157
1.02073
0.999999
1.03779
1
1.05349
1
1
1.03669
1.01993
1.02895
1.04632
0.941822
1.05073
1.05382
1.03543
1
1
1.02469
1.0051
1
1.02748
1
0.946693
1
1
1.0179
0.936742
1
1.01879
0.998034
1.01885
1
1
1.02734
1.03884
0.935091
0.963008
0.942439
0.99307
0.987847
0.990547
0.936218
1.00759
0.987172
0.997499
1
1.01797
0.942897
0.934467
0.993846
1.03331
1.01649
0.970603
1
1
0.997188
0.996547
1.00295
1
1.01585
1.00723
1.0167
1.01302
1.01676
0.991782
1.01259
1
0.960418
1
0.936706
0.998631
1.01586
1.00011
1.00634
0.940606
0.971186
1.02608
1
0.972645
1.02621
0.958749
1.05588
0.967187
1.01373
1.01477
1.05587
0.939889
1.01449
0.994561
1
1.01423
1.01453
1.03727
1.04285
1
0.999506
1
1.0717
0.97212
1.00542
0.953533
0.93854
1
0.937016
0.950087
1.01379
1
0.944055
1.01016
1.01439
1.00006
1.0114
0.941524
0.972801
0.995066
1.03815
1.00007
0.944799
1.01158
1.01237
1
1.01242
1
0.998499
1.05529
1.01158
0.960157
1.04465
1.01405
1
0.938612
1.02298
1.00644
1
0.954192
1.0229
1.03262
1.042
1.01209
1
1.00949
0.999998
1.01042
1
1.02294
1.01053
1
1.03203
1.02319
1.02762
1.00351
1.02258
1.00927
0.977352
1
1
1.02265
0.946599
1
0.95076
1.00436
1.03251
1.03403
0.951178
0.993246
0.967469
1
0.950445
1.06779
1
1
1.03738
1.06664
0.950196
1.0178
1.00808
0.949613
0.94776
1.03878
0.976349
1.00785
1.00698
1.03869
1.04466
1.01807
1.00728
1.0118
1.01762
1.01391
1.01461
1.07458
1.03235
0.949729
1
1.03554
1.06758
1.00654
1.04031
1.06781
0.964317
1
1.0065
1.00315
0.995518
0.969453
1
1
1.02135
1.02019
0.972617
1.01018
1
1
1.0098
1.02031
1.02643
1
1
0.997955
1.00416
1.00427
0.998504
1.00846
0.951799
1.00133
1.00329
1
0.951532
1.02618
0.964021
0.948666
1.03132
1.02698
1.08767
1.01952
0.999397
1.01839
0.983171
1.01813
1.01957
1.00301
1.00319
0.967291
1
1.00663
1
1
0.98294
0.979396
0.985652
0.980348
0.998295
1.00647
1
1
0.983865
1.01747
0.96046
0.966339
0.996283
0.959647
1.02904
1.02111
1.01753
0.959239
0.948507
1.00173
1.02472
0.959817
1
0.993693
1.02558
0.958302
1.07291
0.998545
0.999029
1
1
1.00012
0.990501
0.999997
1
1
0.990083
1
1.01547
0.965013
0.958673
0.970187
1.00147
1.01551
0.997128
1
0.958278
0.971361
1
0.957123
0.995614
0.997362
1.00172
1.00822
1
1
1.01068
0.988562
1.0233
0.959554
0.959835
1.06656
0.970544
1
1
1.01317
1
1
1.02726
0.997128
0.989069
1.01325
1
0.967481
1.02716
0.976218
1
0.973759
1.04357
0.990864
1
1
1
0.967124
0.98733
1.0185
0.974812
1
1
0.985136
0.972754
0.961287
0.963271
1.01108
1.01741
0.976615
1
1
1
1.01109
1
1
1
1.00259
1
1.00401
1
1
1
1
1
1
1
1
1
1
1
1
0.993157
1
1
0.997614
1.01443
0.999995
1
1
1.0168
0.958203
0.976556
1.01292
1
1
0.996952
1.0097
1.02732
1
1
1
1
1.00626
1.00914
1
1.02088
1.00709
0.97528
1.00922
1.01664
0.973911
0.993537
0.998809
1.00063
0.999994
1.00234
1
1.00307
1
1
1.02693
1.02529
1
1
1.01389
1.02582
0.979548
0.994061
1.02167
1.00006
1
0.96899
1
1.00145
1.0186
1.019
1.01382
0.967168
0.978028
0.998092
0.998888
1.00531
0.999981
1.00483
1
1.0133
1.0066
0.968691
1.02331
1.04057
1.00072
1
1
1.0152
1.01861
1.0151
1.02227
1.06866
1.00605
0.9575
1.02235
1
1.01487
1.0338
1
1.01832
0.98797
0.956318
1.02393
1.02725
1.00746
1.00433
1.0229
1.00364
1.00237
1
1.00231
1.00283
1.02313
1.00192
1
1.00253
1.00727
1.01009
1.00671
1.02242
1.01114
1.00165
1
1.02188
1
1.00139
1.00257
1
1
1.06675
1.01997
1.03616
0.981891
1
1
1.02025
1.01767
1.0064
0.986016
1
1.00947
1
1.00127
1.05964
1.02966
1.02176
1.02074
0.991885
1
1.02104
1.02795
1.02245
0.97877
1.00095
1.02586
1.00624
0.990649
1
1.02169
0.995562
1
1
1.02113
1.02032
1
1.00877
0.966242
0.994297
1.00492
1.02172
0.953916
0.999376
1.01511
1.01828
1
1.01916
0.99804
1.00633
1.10099
1.0066
1
1
1
0.993508
1.00695
1.01919
1.00699
1.01835
1.02127
1
1
1.07244
1.03181
1.01621
0.972462
1
1.01161
1
1.01575
1.00609
1.00562
1.0171
1.06297
1.01056
1.01418
1.03309
1.01714
1.01628
1.0052
1
1.0007
0.976956
1.00544
1
1.01414
1.006
1
1
1.00585
1
1
0.989861
0.966795
1.01459
1.01495
1.0341
1
1
1
1.00068
1
0.976659
1.00294
0.975368
1.01505
0.954349
0.941699
1.01412
0.966575
1
0.959276
0.979664
1.02357
0.968478
1.01197
1
1.01828
1
1.02337
1.01282
1
1
1.00788
1
1.01217
1
1.01727
1.0128
1.01196
1.01186
1.00746
1
0.969602
1
1.03866
1.0227
1.01316
1.01086
1
1
1.01353
1.00965
1
1.01358
1.01091
0.997011
1.00308
1.02081
1.01534
0.958596
1
1.02651
1.00944
1.02026
1.01078
1.02394
0.983444
1.00979
0.990995
1
1
1.00889
1.0249
0.982798
1.00192
0.996203
0.99997
1.01523
0.968031
1.00946
1.00456
0.972551
1
1.0216
1.01253
0.982615
1.01689
0.986219
1
1
1.00827
1.0079
1
1
1
1
1
1.0411
1.00668
1
0.981059
1
1.00847
1.02495
1.0192
1.01635
1.00788
1.00755
1.00824
1.01629
0.979523
1
1
0.990221
1.02907
1
1
0.996631
1.02223
1.00651
1
1.00556
1.02371
1
1.01739
1.01603
1.01714
1.0244
1.02677
1.00608
1
1.00558
0.976584
1
1
0.989355
1.02521
1.00839
1.02566
1.00599
0.974134
1.02735
1.04615
1.02598
1.03063
1.02783
1
1.01628
1.02342
1.02974
1.00766
1
1
1.01619
1.00367
0.975099
0.946262
1.04109
1
1
1.0135
1.0345
0.969269
1.00362
1.03265
1.03351
1.01146
0.946848
1
1.03134
0.966571
1.00186
1.00183
0.96563
1.04808
1.00235
1.01929
1.00187
1
0.992563
1.01242
1.00312
0.98441
1.00006
1.03692
1.01192
0.971957
1.00379
1.02121
1.00422
0.969182
0.966948
0.971452
1.03612
1.00012
0.997763
1.01693
0.996082
1.02135
1.01437
1.02008
1.01363
1.03517
0.997597
1.00804
0.996333
0.964058
0.97403
1.01299
0.973821
1.00005
1
1.00498
1
0.975787
1.00005
1
1
0.973332
1
1
0.995492
1.01763
1.07159
0.998418
1
0.94644
1
0.986219
0.974546
0.999253
0.97284
1.00355
0.999169
1.00367
1.00664
1.00853
1
0.982573
1
1.00183
1.01908
1
0.99352
0.985463
1.03755
1.00312
1.03784
1
0.98456
0.94625
1.0167
1
1.04118
1.01148
0.992243
1.0166
0.995691
0.999497
1
0.985819
1
0.974102
1.06842
0.987307
0.950042
1
1.01965
0.959478
0.987153
0.944811
1.00099
1.0197
1.02488
1.00995
1
1.00193
1.0021
1
1.04108
1
1.01972
1.0174
1.04328
1.04017
1
1
1.01975
1.00995
0.974965
1.04324
1
1
1.0419
1.01955
1.04546
1.02045
1.04429
1.01956
1
0.986154
1.00348
1.00713
1.01928
0.999312
1.00764
1.00716
1.04811
1.01935
1.03962
1.013
1
1
1
0.975278
1.01893
1
1.00157
1.00305
1.04637
1.01425
1.00618
1.00482
0.976958
1.01896
1.03811
1.00105
1.01556
0.952141
1.00208
1.01224
1
1.00699
1.01321
0.990955
1.00641
1.02656
1.0255
1.04732
1.00154
1.0513
1.05022
1
0.976197
0.938287
1.01858
1
1
1.00364
1
1.04918
0.959304
1.01863
1.03401
1
1.01511
1.00919
1.00299
1
1.00439
1.00709
1.01816
1.03445
0.994469
1.04822
1
0.980499
0.995292
1.00422
1
1.01814
1
0.987303
0.954687
1.00562
1.05245
1.0163
1.0127
1.05361
1.00566
1
0.998935
1.00595
1.02619
1.11579
1.02002
1.01526
1.01749
1.01837
1.02262
1.03823
1
1
1.0191
1.00565
1.01751
1.02832
0.994625
1.00712
1.01864
1
0.995435
1
0.932311
1
0.944204
1.00679
1.01685
1.01686
0.977459
1
1
1.05475
1
1
1
1.00869
0.977139
1.0121
1.05704
1.00835
1.00345
1.01593
1.00962
1.02582
0.978633
1
1.00366
1.01589
0.980086
0.978307
0.958403
1.00906
1.00863
1
1.01298
1
1
1.01942
0.97649
0.989165
1.00003
1.01529
1.06728
0.976503
1
1
1.01527
1.01242
1.01539
1.02141
1.01122
1
0.999982
1.00675
1.0107
1
1
1
1
1.01227
1
1.02386
1.01431
1.0236
1.00857
1.01433
1
1.01201
1
1
1
1.01341
1.01355
1.01347
1
1.02096
1.01293
0.972391
1
1
0.967465
1.02368
1
0.969994
1.01419
1
1
1
1
1
1.01291
1
0.98419
1.01376
1
1.03279
1.00742
1
1.01248
0.941473
1
0.968231
1.02422
1
1
1.03236
1.03646
1
1
1
0.968414
0.968848
0.983549
1.01573
1.01808
1.03307
1
1
0.97281
1.03215
1
0.968934
1.01535
1
0.986535
1
1.01787
1
0.98512
1
0.959673
1
1
1.01374
0.941051
1.03159
1
1
1.01748
1
0.982993
0.97255
1.01726
0.944719
1
0.944697
1
0.958115
0.972793
1.01595
0.981258
1
0.998948
1.01685
0.988683
0.99053
1.01337
1
1.00291
0.988255
1
1
0.965036
0.964344
1.0163
0.937363
1.01873
1
1
1
1.0184
1.07033
0.972454
1.01981
1
1.03463
0.991737
0.971869
0.974603
1.03746
1
1.01941
1.01956
0.990435
1.01017
1.0109
0.959465
0.995984
1
0.972179
0.960776
1
1.0166
1
1
0.951732
1.02119
1
1.00327
1
1
0.996812
1.01771
1
1
1
1.02122
1.01656
1
0.922029
1
1.02083
1
1.00166
0.958694
1
1
0.980786
1.02092
1
0.942268
1
1.00661
0.993631
0.999992
1.02219
0.992933
0.943851
1.02212
1.01483
0.969704
1.04302
1
1
0.997339
1.02164
1.02186
0.948205
1.01495
1.02411
0.970381
1
1.03391
1
1.06687
0.980278
1.02314
1.02283
0.943077
1.00029
1.00175
1
1.00163
1.02338
0.998116
0.988783
0.97599
1
0.99768
0.982801
1
1.01316
1.02267
1
1
1
1.02295
0.982746
1.01851
1.01327
1.00234
1
1.02366
1
1.01542
1.02445
1.01343
1
1.07009
0.947288
1.02351
1.00002
1.01227
1.01492
1
1
0.975163
1.02404
0.98171
0.999999
0.999686
0.996814
0.997492
0.996378
1.08634
1.00003
0.997606
0.958787
1
1.01247
1.0253
1.01631
1
1.02456
1
1.0434
1.01759
0.974236
1.04803
0.999204
1.0116
0.978294
1.012
1.01753
1.03863
1
1.01273
0.993431
0.987006
1.00865
1.02443
1
0.999588
1.02488
1.01004
0.993718
0.981116
1
1.0529
1.01696
1.07717
1
1.0356
0.970699
1.01493
1.04409
0.977125
0.999457
1.01899
1.0016
1.03925
1.04882
1.00152
1.02625
1.03039
1
1.01929
1.01852
1.01083
1.01977
1.033
0.961393
1.06088
1.02551
1.05376
1.01747
1.00222
1.02727
1
1.02611
1.0187
1.01816
1.01953
1
1.02521
0.978663
1
1.07924
1.01986
1.01947
1.02026
1
1.06273
0.981085
1
1.0196
1.02574
1.01907
1
1
1.01978
1.01955
1
1.02598
1
1.01879
1.02695
0.972744
1
1.01912
1
1.01835
0.950784
1
1.0044
1.0277
1.01884
1.01783
1
1
1
1.02224
1.02684
0.981204
1.01838
1.01763
1.01719
1.02815
0.960856
1.00026
1.03504
1
1
1.0218
1.02054
1.00064
1
1.02166
1.03564
1
1.01785
0.988012
0.987635
0.988697
0.998526
1
1.01623
1.02808
1.02375
0.980451
1.01717
1.02953
1.00488
0.970905
1.00613
1.02352
1
1.07775
1.01271
0.980233
1.01557
1.03786
1.00386
1.00825
0.979819
0.96731
1
1.0163
1.0278
1.01716
1.02307
1.02987
1
1.00499
1.01462
1.01387
1.00012
1.01566
1
1
1.02862
1.01377
1.01652
1
0.95039
1
1
1.00707
0.99902
1
1.01453
1.0452
1.01935
1
0.975962
1.01549
1.02816
1.01281
1
1.01397
1.00712
0.980759
1.02254
1.04235
1.00887
1.02585
1
0.99999
1.01956
1.0205
1
1
1.01512
1.00424
1.01278
1
1.02544
1.02965
1.00006
1
1.01207
1.01898
1
1.00457
1.01228
1.01305
0.973409
1.00719
1
0.976309
1
0.998358
1.00724
1
1
1.01862
1.0083
1.01947
1.01381
0.946078
1
1
0.980246
0.985037
1.02803
1.00768
1
0.985164
1.00558
1.02269
1
1
1.02761
1
1
1
1
1.00695
1
1.0001
0.991278
1
0.925298
1.02973
1.01948
0.961805
1
1.00752
1
1.01673
1.02938
1
0.999908
1
1
1.01345
1.02927
0.981871
1.02541
1
1.02015
1.01752
1.09805
1.04223
0.940656
1
0.981554
0.937144
1
0.981467
1
1
0.979332
1.03912
1
0.9373
1.00249
1.03103
1.03663
0.999999
0.94621
1
0.988089
0.995233
1.00532
0.998749
0.999097
1.02246
1.03071
1.00616
0.982246
0.980069
1
1
0.999983
0.99397
1
1
0.973434
1
1
1.01676
1.01235
1
1.03257
1
1.01461
0.981301
0.961685
1
1
1.01632
1.06688
0.941025
1.03222
1.01478
1.01434
0.983242
1.01791
0.955402
0.947785
0.94695
1.02225
0.946165
1
1.03602
1
1.01906
1
0.956143
0.97005
1.05459
1.04995
1
1.02752
0.962429
0.977369
0.988296
1.0331
1.01602
0.946536
1
1.01523
0.977076
1.04407
1.02636
1.01382
1
1
1
1
1.01054
1.01194
1.03327
0.95579
1.02749
0.959273
1
0.984488
1.0511
1.01729
1.05552
1.01349
1.0157
0.978785
1
1
0.946988
1
1.01601
0.985488
0.960823
1.00574
1.00296
0.988672
1.01372
1
1.01292
1
1
1.01715
1.03376
1.00486
1.04494
0.982371
1.01561
1.02562
1.07574
0.98261
0.960251
0.998025
1
0.979269
1.03456
0.997906
1.00359
1.01483
1.00354
1.0217
1.00388
1
1.00588
1.01118
0.957846
1
1.01963
0.98262
1.00508
0.976216
1
0.939103
1.02443
1.01179
1
0.98434
1
1
0.99903
1
1
1.01603
1.02719
0.968703
0.980262
0.957431
1.01916
1.01198
1.03653
1
1
0.966567
0.975949
1.00458
1.00285
1.0212
1
1.00823
0.946662
1.00508
0.980462
0.972749
0.943955
1
1.02596
1.01635
1.012
1.03608
1.00018
1
1
1.02958
1.00645
1.03934
1.01041
1.01769
1.02059
1.00236
1.00006
1
1.00734
1.00153
1.03871
1
1.00442
0.976203
0.949684
1
0.999975
1.01508
0.966489
0.992615
0.959134
1.02064
1.03569
1
1.02645
1.00651
1
1.01459
1.00204
0.968422
0.947527
1.00696
1.02034
1.01701
0.963143
1.01029
1
1.022
1
0.959619
1
1
1.01823
0.949191
1
1.00218
0.999022
0.99983
1
1.03477
0.989738
1
0.991689
0.963589
1.00988
0.998847
1.02284
1.01569
0.948698
1.0029
1.00584
1.00914
0.954484
0.983468
1
1.02231
0.983258
0.984706
0.995514
0.98325
1
0.949896
1.02249
0.984474
1
1.00345
0.969863
1
1.01385
1.01796
1.02433
1.01584
0.982636
0.975297
0.98206
1.02551
1.0155
1
0.978936
1.01495
1.01294
0.988209
0.965311
1
0.97021
1.0097
1
1.01356
1
0.972297
1.00048
1
1.02387
1.01183
1
1.01004
1
0.98403
1.01856
1.01446
1.02351
1
0.946555
1
1.01639
1.084
1.00879
1
1.01389
1.03959
1.01554
1.02465
1.0154
0.96255
0.981836
1.02021
1
1.05819
0.971544
1
0.976133
1.02657
1.01217
1.00907
1.04912
0.947567
1
0.98303
1
1.02521
1.0408
1.01592
1.01536
0.987214
1
1.01793
1
0.971576
1
0.999961
1.0161
0.973231
0.999997
1.01477
1.02609
1.04006
1
1.03338
1.08137
1
1.00389
0.964286
1.01754
0.972717
1.0127
1.05146
1
1
0.990579
0.989718
1.03023
1.03615
1.03885
0.991465
0.976349
1.03399
1.01172
1
0.984879
0.978342
1.0414
1
0.972402
0.96477
0.949872
1.01325
1.0202
1
1
0.979863
1.01492
1.031
0.998102
1.02378
1.01747
1.01642
0.949423
0.999996
1.0188
1
1.05147
0.997219
0.986099
1
0.98442
1.07511
1.01995
1
0.98417
0.988771
0.940971
1.0338
1.01978
1.02562
1.01073
1.00668
0.986232
1.01106
1
0.981289
1.02369
1.02288
1.02404
1.02481
1.02149
1.02594
1
0.986374
1.02052
1.01876
1
0.987528
1.00946
1.01242
1
1.00431
1.02759
0.943894
1.01009
1.01111
1
1.01039
1.02655
1
1.02829
1.00458
0.983856
0.979375
1.0109
1
0.979455
0.983271
1.01325
1.01551
0.992813
1.01844
1.02902
1.00695
1.00746
1
1.05832
0.98277
1.01576
1.01043
0.998235
1.01396
1.00525
1.07332
1
1.0138
1.03581
1.02326
1
1.02252
1.0246
0.98298
1.02124
1
1.02
1.02562
1.01111
1
1.03279
0.997769
1.02387
1.02625
1.0146
1.02608
0.952388
1.01702
1.00007
1
1
1.04581
1.03897
1.02762
0.982707
1.02441
0.982037
0.96306
1.0046
0.992102
0.998247
0.974299
0.977985
1.0158
1.02023
1.02866
0.98224
0.98005
0.982976
1.02711
0.99677
1.00712
1.02384
1.02821
1
0.990654
1.00786
1.014
1
0.99998
0.983598
1.0179
0.998296
1
1.02761
1.00547
1.02488
1
1.01141
1.00252
0.98423
0.945203
0.998074
1
0.961179
1.00522
1.02654
1.00525
0.950772
1.00978
1.04684
1.01961
0.997843
0.982059
1.07086
1.00727
0.972217
1.02272
0.965379
1
1.02477
1
1.00738
1.07513
1.00791
1
1
0.983033
1.01271
1.03174
1
0.971763
1.01877
1.02323
1.02459
0.998938
0.980332
1.02348
1.00012
1.02131
1.02446
1
0.984836
1.0081
1.01907
1.06205
1
1
1.00501
1.00491
1
1.04901
1.02245
1
1.00752
1.04893
1
1
0.998981
0.972328
0.98297
1.00888
0.979618
0.983051
1.00464
0.999998
1
1.00778
1.02821
1
1.01921
0.980866
1.02517
1.00655
1
0.952849
1.02063
0.981634
0.999095
0.938931
1.02477
1.02387
0.996124
1.01184
1.00824
0.982644
0.973282
1.00707
1
1.01374
0.986786
1.02011
1
0.982638
0.982152
0.970909
0.983102
1
1.00619
1
1.02587
1.03806
0.935407
0.982363
0.983222
0.981196
1
0.982311
1
1.02685
0.952121
0.99517
0.982164
1.0166
0.982754
1
1.01005
1.08283
1
0.999591
0.982738
0.957849
0.984318
1.04745
1.04573
1
1.02352
0.982501
0.997888
1
0.977054
1
1.00025
0.982008
1.00723
1.00984
1
0.935303
0.980855
0.983327
1.02305
1
1
1
1.00346
1.01615
1.01858
1.02224
1
1.03602
1.04706
1.01772
1.01233
0.940689
0.957444
1.03726
0.998427
1
1
0.972441
0.974824
0.999922
1
0.985058
1
0.997234
1
1.00944
0.999421
0.988631
0.97635
0.971143
0.933148
0.999999
1
1
1.00301
1
0.984867
1.01108
1.0166
1
0.988433
1.00422
1
1
0.984635
1.01739
0.985292
1.01459
1.01719
0.941774
0.983463
1.02822
0.970461
0.988136
1
1.07251
1
1.01816
1.01593
1.00579
1
1.08517
0.963484
0.999989
1.01945
1
1.01072
1.03801
0.997911
1.00009
1.02129
1
0.983318
1
1
1.01776
1.0044
0.975323
1.03127
1
1.01199
0.973929
1
0.974036
1.02448
1
1
1
1.01396
0.933775
1.04894
1
1.02286
0.982368
1.01406
1
1.04627
0.984369
1
1.01613
0.981785
1
1.00728
0.968502
1.0245
1.01168
1
1.02509
1
0.978049
1.01772
1.01242
1.03315
0.986027
0.974091
1.00336
0.965975
1.00895
1.01315
1
1
1.03864
1.08074
1.01875
1
1.00654
1.00113
1.03716
0.987941
1
1
0.98048
1
0.988592
0.973532
1.01529
1
1.02748
1.02074
1
1.01764
1
1.01273
1.02084
1
1.01278
0.97977
1.02248
0.997205
1
1.02544
1.00315
1.00524
0.981336
0.968562
1.00126
1
1.00753
1.02668
1.02583
1.05061
1
1.01482
1
1.01378
1.0288
1.0866
1
0.961179
1
1.02463
1
0.983678
1.01441
1.0242
1.00523
1
1.02951
0.9419
0.994937
1
1.0304
1.04464
1
1.01345
0.978165
1
1
1.00283
1.02697
1.01715
1.01348
1
1
1.0268
0.998116
1.0198
1.00595
1
1
1.01498
1
0.97722
1.04767
1.04202
1
1.0001
0.980094
1.03171
1
1.02827
1
1
1.03088
1.02964
0.982769
0.979758
1.00078
0.960682
1.0314
0.981456
1
1.01461
1.00292
1
1.02309
1
1.03012
1.03298
1.05638
1.01565
0.998321
1.02067
1.0006
1
0.977134
0.98352
0.932512
1
1.04302
1.0486
0.975263
1
0.984348
1
0.944124
1.01791
1.0041
1.02573
1.03139
1.03787
1.00042
0.956333
1.01377
1
1.01536
1
0.997851
1.03407
1
1
1.02847
0.977567
1
1.0452
1
0.97839
1.01634
1.00709
1
0.986096
1.02994
1.02885
1.02025
1.03292
0.986631
1.0189
1
0.968512
0.978164
1.01964
0.997852
1
1.01596
0.987525
1.01683
1
0.982096
1.03524
1.00495
1.01614
1.00114
1.01201
0.979744
0.946382
0.949703
1
1.00728
0.983932
1.017
1.00942
1.03371
1.0835
1.02209
1
0.98812
1.02936
0.945716
1
1.01745
1.00374
1.00652
0.986142
1.0198
0.975297
0.982055
1.00757
1.0166
1.0168
1.00653
1
1.00711
1.03432
1
1.08499
1
1.01826
1
1
1
1
0.999999
1.01682
1.00331
1.02155
1
1.00274
1.01514
1.00992
1
1
1.01639
1.0149
1.03433
1
0.981785
1.01304
1.01401
1.01771
1
1.0047
1
1.01147
1.00498
1
1.02179
1
1.02433
0.979343
1.03392
0.940558
1
1.0391
1
0.979918
1.00235
1.0175
1.00783
1
0.977489
0.999236
1.03629
0.945725
0.981635
0.978506
0.977626
1
1
1.01829
0.962668
1.00813
0.999969
1
1.02732
1.0277
1.0065
1.03308
0.97888
0.962218
1
1.05911
0.977756
0.978666
0.998057
1.03193
1.03035
0.999992
1
1
1
1.03071
1
1.01811
1.00437
1.00879
0.959598
1
1
1
1.03175
1.08034
1.02923
1
1
1.02888
1.00653
1
1.05457
0.961745
1
1.00056
0.9797
1.02142
1.03211
1.00004
1.01886
1.03255
1
1.08226
0.967211
1.02373
1
0.980873
1
0.985827
1.03276
0.974229
0.986104
1.03428
1.01328
0.999998
1
0.999011
0.971007
1.00024
1.0032
1
0.976122
1.0001
1
1.04811
0.995382
0.960288
1.03334
0.998606
0.980462
0.959408
1.05126
0.972002
1
1.01876
1
1.02473
1.02423
1
1
1
1.01216
0.975756
0.959055
1.04994
1
1.01936
0.97857
0.999367
0.970881
1.03729
1
0.977679
0.985994
1.03583
0.954159
1.01186
0.996327
1.00004
1.03022
0.977031
1.0005
0.973692
1.00169
1.0021
1
1.00552
1.01195
0.96964
0.967813
1.03497
0.959386
1
1
1.03486
1.01001
0.971104
0.985426
1.01574
1.03333
1
1.01558
1.02166
0.979335
0.99644
1.00225
1.03638
1
0.971862
1.03176
1.00042
0.984943
0.973924
1.03518
1.01923
1.0631
1
1
1.03231
1
1
1.01763
1
1.03129
1.00122
0.982238
1
0.978902
1
0.978855
0.959756
1
0.9827
0.975433
0.995472
0.999167
0.987064
0.998573
1.00345
1.03806
0.994964
1.0199
0.999508
1
1.04305
0.976969
1
1.01687
1
1.04439
1
0.995627
1.0025
1.01568
0.983652
1.00411
0.972864
0.995596
0.982103
1.00833
1
0.999973
1
0.995086
0.958523
1
1
1
0.964274
1
0.994557
0.973834
0.996546
1.02112
1.05183
0.983381
0.992466
1
0.998316
1.01978
0.972207
1
1.0408
1.02525
1
1
1
1
1
1.00725
1
1
0.984542
1
0.953609
1
1
0.983097
1.00376
1.01655
1
1.02018
1
1
1
1.03469
1
0.939739
1
1.06334
1.05749
1
0.97858
1.04335
1.00356
1.01222
1
1.01998
0.983643
1.01892
1.0107
0.97735
1
1.01893
1
1
1
1.00359
1.01586
1
1.01497
1.00384
1.02463
1
1.03888
1.01438
1
1
1.00452
1.0202
0.982634
1.04777
1
1.05531
1
1
0.985327
1
0.95128
1.01624
1
1
0.960993
1
0.972103
0.98592
0.982954
0.97586
0.987212
0.983653
0.998958
1.0131
1.02507
1.00735
0.948421
0.988534
0.95158
1.01626
1
1.02447
1
0.999999
1
1
0.986378
1
1
0.975366
1.01455
0.982695
1
1
1.01932
0.990962
0.960553
1.02515
1.04621
1
0.995934
1.07185
0.984883
0.999992
0.984996
0.982239
0.986104
1.01737
0.99787
1.00004
1.02464
1.03977
0.993049
0.977979
1.02126
0.969683
0.963075
0.977164
1
1.03357
0.98016
1.01176
1
0.951958
1.04268
1.0884
1
1.01663
0.999998
1.00009
0.941634
0.987358
0.975151
0.977329
1.00033
1.00135
1
1
0.999621
1.04165
1.0353
0.99753
1.02001
1
1
1.03931
1
1.07091
1.02334
1
1.02284
0.981832
1
1.06736
1.00413
1.0243
0.972424
1.02359
1
1
1.00861
1.02291
0.999999
1.03906
1.01494
1.05083
1.00924
1.02106
0.998497
1.01958
1.00001
1.03562
1.02709
1
1.038
1
0.980657
1.03102
1.00268
1
1.02127
0.980631
1
0.986464
1.04328
1
1.03695
0.933729
1.05459
1.01953
0.935103
1
1.06029
1
1.03873
1
1.02905
1.0219
1.03828
1.02375
1.00873
1.02602
1
1.005
1
0.934998
1.032
1
1
0.99313
1.01901
1.02069
1
1
0.98746
1.01074
1
1.00815
1
0.999999
1
1.03003
1.02518
1.07291
1.00106
1.0132
1.0443
1.00174
1
0.992328
1
1.02503
0.996267
1.03635
0.99998
1.01201
1
1
1.02229
1
0.997062
0.970139
1
1
1.0052
1.03454
1.03712
1.04391
1.06003
1.04683
1.02315
1.01576
1.02255
0.999974
1.01377
0.962734
1.04256
0.991862
0.984243
1.00118
1.04062
1.00461
0.979199
1
1.02507
1
1.02005
1.02486
1.00004
1
1.02509
1
1.01417
1.04286
0.98674
1.01976
1.03643
1.00003
1
1.04824
1.04824
1
1.03823
1.04268
1.00989
1.02456
1.02623
1.04004
1
1.01713
0.986259
1
1
0.935472
1.00694
1.00561
1.03581
0.98151
1.01063
1.0227
0.967293
1.00529
1.02426
1
1.03503
0.946546
1
0.982078
1.00017
1.02139
1.04724
1.02358
1.00934
1.00003
1
1.03398
1.08372
1.02447
1
1.03694
1.00106
0.94923
0.984801
1.00845
1
0.975794
1.00931
0.999985
1.00156
1.01957
1.01756
1
1
1.04547
1.02351
1.02409
0.995628
1.03921
1
1
0.99933
1
1
1.0006
1
0.999999
1.03848
1
1
1.03667