/*--------------------------------*- C++ -*----------------------------------*\
  =========                 |
  \\      /  F ield         | OpenFOAM: The Open Source CFD Toolbox
   \\    /   O peration     | Website:  https://openfoam.org
    \\  /    A nd           | Version:  12
     \\/     M anipulation  |
\*---------------------------------------------------------------------------*/
FoamFile
{
    format      ascii;
    class       volScalarField;
    location    "3.7";
    object      rho;
}
// * * * * * * * * * * * * * * * * * * * * * * * * * * * * * * * * * * * * * //

dimensions      [1 -3 0 0 0 0 0];

internalField   nonuniform List<scalar> 
46253
(
1.26333
1.40001
1.40001
1.40001
1.40001
1.40001
1.19253
1.52115
1.40001
1.40001
1.26575
1.19052
1.40001
1.40001
1.40001
1.40001
1.40001
1.40001
1.40001
1.40001
1.40001
1.40001
1.40001
1.22705
1.19484
1.40001
1.40001
1.40001
1.40001
1.52086
1.52034
1.4
1.4
1.40001
1.40001
1.40001
1.40001
1.40001
1.51922
1.40001
1.2031
1.19036
1.40001
1.40001
1.13822
1.40001
1.40001
1.40001
1.39724
1.39444
1.44734
1.43877
1.40001
1.52237
1.40002
1.26153
1.88536
1.86036
1.64993
1.20411
1.40001
1.12513
1.40001
1.40001
1.40001
1.40001
1.40001
1.40001
1.2643
1.14075
1.19155
1.83264
1.82685
1.40088
1.40001
1.224
1.74957
1.74727
1.40001
1.40014
1.40027
1.79738
1.40001
1.79561
1.1724
1.40001
1.69104
1.68855
1.52026
1.40001
1.40001
1.17676
1.40001
1.79163
1.40001
1.85741
1.40001
1.40001
1.64751
1.40001
1.40001
1.40001
1.40001
1.51605
1.4
1.17762
1.19432
1.63984
1.63736
1.2164
1.51817
1.81518
1.80951
1.40001
1.40001
1.51251
1.14993
1.17986
1.84075
1.27553
1.40001
1.40001
1.78208
1.78086
1.40001
1.84698
1.40001
1.23983
1.39025
1.73374
1.60869
1.6063
1.40001
1.20098
1.73064
1.40001
1.71583
1.71369
1.27131
1.40001
1.75686
1.59052
1.58845
1.50595
1.75995
1.40096
1.69859
1.69673
1.51869
1.40001
1.21353
1.40001
1.7248
1.72207
1.46273
1.14084
1.23678
1.40001
1.67378
1.40001
1.67234
1.19462
1.25762
1.40001
1.19083
1.70732
1.20001
1.70534
2.04262
1.40001
1.66
1.65873
1.40001
1.21667
1.40001
1.12738
1.51687
1.40001
1.39298
1.15304
1.4
1.46078
1.64563
1.64432
1.40001
1.6826
1.67916
1.13787
1.40001
1.40001
1.40001
1.40001
1.1122
1.40001
1.40001
1.40001
1.51831
1.40001
1.49293
1.49117
1.40001
1.40001
1.66758
1.66575
1.40001
1.14384
1.45624
1.62614
1.62517
1.40001
1.40001
1.83981
1.21833
1.40001
1.52505
1.40001
1.50073
1.1657
1.61408
1.40001
1.40001
1.61277
1.12424
1.65342
1.65106
1.16871
1.40001
1.40001
1.46724
1.46518
1.58998
1.40001
1.40001
1.40001
1.40001
1.40001
1.40001
1.40001
1.58742
1.60649
1.40001
1.40001
1.40001
1.40001
1.40001
1.40001
1.40001
1.45524
1.40001
1.59521
1.5942
1.60376
1.44162
1.40001
1.43988
1.63326
1.63068
1.28736
1.21764
1.40001
1.19761
1.16861
1.21007
1.50907
1.37885
1.40001
1.40001
1.40001
1.62089
1.57706
1.61924
1.40001
1.40001
1.40001
1.57581
1.40001
1.40034
1.40001
1.52019
1.30821
1.41713
1.41485
1.40001
1.40001
1.40001
1.11575
1.22087
1.27603
1.49035
1.40001
1.63856
1.63621
1.16277
1.40001
1.62739
1.55429
1.40001
1.55065
1.19798
1.5661
1.82362
1.56496
1.24808
1.82418
1.40001
1.6021
1.59982
1.40001
1.50744
1.40001
1.40001
1.48024
1.40001
1.55454
1.40001
1.55256
1.26166
1.62457
1.40001
1.5195
1.2405
1.40001
1.19501
1.19544
1.51971
1.48493
1.40001
1.40001
1.54223
1.5412
1.3721
1.37139
1.40001
1.40001
1.40001
1.12987
1.28267
1.58421
1.58168
1.40001
1.40001
1.40001
1.40001
1.85985
1.40001
1.53089
1.52937
1.40001
1.27118
1.40001
1.523
1.40001
1.14497
1.40001
1.19978
1.40001
1.57175
1.40001
1.57038
1.40001
1.19914
1.40001
1.40001
1.40001
1.40001
1.40001
1.40001
1.40001
1.51931
1.40001
1.40001
1.40001
1.40001
1.51821
1.40001
1.61613
1.26824
1.40001
1.40001
1.40001
1.18177
1.20277
1.24194
1.56056
1.52058
1.55911
1.40001
1.40001
1.509
1.87053
1.40001
1.49312
1.50792
1.21111
1.40001
1.52172
1.44182
1.43981
1.40001
1.52387
1.40001
1.31728
1.31572
1.61352
1.40001
1.39932
1.40001
1.40001
1.40001
1.40001
1.40001
1.40001
1.78726
1.40001
1.516
1.40001
1.12362
1.40001
1.40001
1.28791
1.40001
1.40001
1.49833
1.40001
1.54769
1.40001
1.40001
1.49695
1.54614
1.40001
1.50037
1.40001
1.40001
1.40001
1.40001
1.47788
1.52262
1.40001
1.40001
1.523
1.24397
1.40001
1.19542
1.40001
1.48125
1.46811
1.40001
1.40001
1.27276
1.40001
1.3109
1.52993
1.40001
1.12944
1.40001
1.73271
1.52002
1.3988
1.53684
1.48459
1.40001
1.48469
1.48533
1.53513
1.40001
1.48521
1.40001
1.40001
1.40001
1.40001
1.40001
1.39083
1.40001
1.52023
1.24753
1.48262
1.29713
1.45009
1.48174
1.38243
1.29024
1.29201
1.40001
1.40001
1.40001
1.40001
1.39207
1.40001
1.31545
1.1717
1.16908
1.31858
1.48648
1.15631
1.48038
1.40001
1.40001
1.52469
1.5127
1.21133
1.52305
1.47201
1.47116
1.27115
1.21883
1.40001
1.26992
1.51356
1.40001
1.40001
1.40001
1.19605
1.40001
1.52098
1.12221
1.40001
1.40001
1.49392
1.40001
1.40001
1.13618
1.10726
1.51815
1.40001
1.40001
1.51877
1.40001
1.51547
1.52909
1.51639
1.40001
1.52883
1.5297
1.40001
1.48374
1.50948
1.40001
1.40001
1.51423
1.40001
1.20312
1.29231
1.40001
1.40001
1.51277
1.40001
1.40001
1.40001
1.40001
1.16223
1.40001
1.40001
1.45671
1.29956
1.45577
1.19682
1.40001
1.40001
1.40001
1.40001
1.40001
1.40001
1.40001
1.48476
1.17348
1.40001
1.40001
1.40001
1.40001
1.40001
1.40001
1.19866
1.498
1.40001
1.48154
1.40001
1.40001
1.24516
1.40001
1.40001
1.40001
1.50368
1.40001
1.40001
1.50203
1.47664
1.54657
1.40001
1.55106
1.55174
1.55547
1.52233
1.40001
1.44673
1.44555
1.49172
1.54051
1.40001
1.40001
1.42832
1.40001
1.82135
1.47588
1.40001
1.82794
1.40293
1.40001
1.50654
1.51399
1.40001
1.40001
1.52271
1.48922
1.40001
1.40001
1.42908
1.39997
1.4
1.38746
1.39468
1.67399
1.6797
1.65585
1.65823
1.13162
1.48072
1.64657
1.18963
1.64887
1.6345
1.40001
1.1992
1.23582
1.63725
1.40001
1.62441
1.40001
1.62583
1.40001
1.49044
1.61635
1.40001
1.6177
1.73078
1.40001
1.60644
1.40001
1.6076
1.40001
1.16496
1.40001
1.30412
1.23308
1.40001
1.40001
1.59591
1.59774
1.40001
1.51127
1.58516
1.5872
1.42926
1.40001
1.40001
1.56849
1.43145
1.57029
1.40001
1.48784
1.55854
1.25233
1.56004
1.4304
1.48652
1.40001
1.40001
1.40001
1.54945
1.55101
1.51712
1.40001
1.40001
1.54013
1.3264
1.54132
1.24317
1.40001
1.52458
1.52624
1.40001
1.40001
1.40001
1.13215
1.40001
1.5104
1.431
1.52368
1.40001
1.51004
1.40001
1.51086
1.40001
1.40001
1.51457
1.51506
1.5003
1.50244
1.47469
1.52329
1.492
1.52795
1.49304
1.40001
1.4427
1.47771
1.47911
1.40001
1.28024
1.46817
1.46901
1.99542
1.40001
1.40001
1.40001
1.45845
1.47504
1.45906
1.18342
1.51573
1.48383
1.21619
1.44751
1.44868
1.43129
1.43987
1.44178
1.27291
1.26723
1.40001
1.51791
1.83953
1.42114
1.40001
1.22308
1.41998
1.25661
1.53243
1.20559
1.40001
1.40001
1.40001
1.47817
1.40001
1.40001
1.40001
1.40001
1.40001
1.47635
1.40001
1.40001
1.40001
1.29119
1.28444
1.40001
1.43782
1.13164
1.24834
1.40001
1.40001
1.40001
1.40001
1.40001
1.18727
1.40001
1.4796
1.40001
1.53919
1.16668
1.54348
1.26189
1.40001
1.16275
1.19247
1.55378
1.40001
1.40001
1.40001
1.40001
1.40001
1.54708
1.54335
1.19581
1.21307
1.21014
1.40001
1.30449
1.40001
1.40001
1.54764
1.42674
1.39972
1.51915
1.43615
1.40002
1.43991
1.44672
1.40001
1.55118
1.24198
1.47929
1.40001
1.4796
1.40529
1.40001
1.40001
1.48606
1.4937
1.40001
1.40381
1.11805
1.40001
1.40001
1.57978
1.58166
1.48056
1.40001
1.11905
1.122
1.18953
1.37015
1.40001
1.51211
1.52181
1.24497
1.72161
1.40001
1.40001
1.40001
1.53482
1.53609
1.40001
1.39573
1.40001
1.46164
1.52014
1.40001
1.4043
1.52109
1.46023
1.4819
1.47676
1.40001
1.47651
1.5253
1.22159
1.47866
1.24653
1.48606
1.40001
1.40001
1.48784
1.40001
1.40001
1.48953
1.4817
1.40001
1.39622
1.28834
1.51139
1.27331
1.27977
1.39545
1.27569
1.27381
1.24271
1.23972
1.40001
1.40001
1.53644
1.40001
1.40001
1.48929
1.29994
1.28426
1.40001
1.40001
1.52872
1.40001
1.51478
1.5285
1.53579
1.7228
1.50008
1.39852
1.40001
1.39988
1.40001
1.4854
1.52184
1.54192
1.12316
1.40001
1.4526
1.40001
1.49147
1.52018
1.45152
1.40001
1.50204
1.49545
1.50088
1.40001
1.40001
1.40001
1.40001
1.49709
1.51466
1.40001
1.42481
1.40001
1.27371
1.40001
1.27597
1.24547
1.19685
1.40001
1.38474
1.38373
1.164
1.7773
1.40001
1.28147
1.5173
1.51706
1.28209
1.40001
1.40001
1.48111
1.17979
1.40001
1.40001
1.51825
1.1583
1.52165
1.4843
1.40001
1.40001
1.40001
1.40001
1.40001
1.40001
1.87708
1.40001
1.24993
1.26458
1.25948
1.52051
1.19781
1.10634
1.1283
1.28417
1.52657
1.2455
1.11497
1.61116
1.62071
1.62914
1.60157
1.61301
1.40001
1.39209
1.62169
1.64126
1.6032
1.47866
1.63131
1.56772
1.59095
1.64346
1.40001
1.65169
1.59243
1.65166
1.40001
1.57403
1.64515
1.65675
1.65621
1.5762
1.6321
1.67058
1.56372
1.59618
1.40001
1.40068
1.56518
1.40001
1.5544
1.4003
1.40001
1.40001
1.37542
1.55512
1.40001
1.40001
1.40001
1.54459
1.55609
1.40001
1.40001
1.40001
1.54561
1.37476
1.21408
1.53028
1.40001
1.36952
1.53132
1.51476
1.5165
1.26156
1.50617
1.50714
1.49608
1.40001
1.22971
1.49674
1.40001
1.4824
1.19755
1.40001
1.40001
1.48283
1.31151
1.21275
1.47236
1.47346
1.46253
1.4366
1.46406
1.17534
1.45302
1.40001
1.42208
1.43524
1.45489
1.43143
1.4103
1.4786
1.44497
1.4111
1.41707
1.20171
1.44472
1.43359
1.435
1.25061
1.22378
1.12116
1.40001
1.22691
1.40001
1.21738
1.22848
1.21716
1.40001
1.84248
1.4958
1.40001
1.37523
1.37343
1.49075
1.49863
1.40001
1.52353
1.55286
1.56265
1.52718
1.52095
1.54744
1.55553
1.54983
1.54583
1.38093
1.26951
1.52336
1.48676
1.40001
1.37706
1.29152
1.25435
1.4163
1.40001
1.60234
1.54781
1.18873
1.40001
1.35951
1.21622
1.3886
1.35873
1.40001
1.68948
1.40001
1.33462
1.41663
1.52381
1.54399
1.42865
1.43488
1.27159
1.42606
1.39393
1.42498
1.42048
1.18173
1.18977
1.28166
1.23863
1.37563
1.55952
1.42846
1.40001
1.55904
1.63688
1.34044
1.40639
1.40001
1.40001
1.40001
1.50665
1.42812
1.40001
1.40001
1.20559
1.41133
1.24389
1.40001
1.17791
1.40001
1.50288
1.34668
1.40001
1.40001
1.10974
1.24998
1.66706
1.25461
1.52566
1.52693
1.40003
1.56469
1.51553
1.40001
1.35891
1.40001
1.42639
1.35299
1.37484
1.29879
1.40001
1.40001
1.37523
1.37368
1.48035
1.48805
1.51043
1.51107
1.40001
1.35232
1.41327
1.47659
1.47569
1.24228
1.43071
1.40001
1.34952
1.31559
1.5089
1.21634
1.51677
1.54888
1.40001
1.40001
1.40001
1.29857
1.49951
1.40001
1.47821
1.49659
1.50046
1.53362
1.28013
1.47488
1.17922
1.20067
1.59563
1.40001
1.40001
1.35945
1.61394
1.40001
1.40001
1.40001
1.48848
1.40001
1.49045
1.15945
1.37526
1.36983
1.40001
1.40001
1.36988
1.40001
1.68787
1.48604
1.67898
1.68752
1.40001
1.18819
1.68359
1.48769
1.37332
1.593
1.40001
1.21857
1.66069
1.63082
1.36329
1.40001
1.58456
1.66276
1.64387
1.39997
1.51251
1.11753
1.40002
1.40001
1.28336
1.64666
1.40001
1.60811
1.52487
1.40001
1.40001
1.17944
1.62343
1.34161
1.52151
1.64521
1.41133
1.23524
1.55828
1.62733
1.62672
1.49668
1.34065
1.40001
1.54188
1.40934
1.54177
1.54629
1.40001
1.60444
1.40001
1.40001
1.40001
1.60498
1.40001
1.40001
1.324
1.36968
1.40001
1.32992
1.60675
1.52324
1.49077
1.40001
1.37854
1.40001
1.51844
1.40001
1.40001
1.40001
1.40001
1.40001
1.37802
1.40001
1.40001
1.40001
1.40001
1.40001
1.40001
1.14297
1.18666
1.40001
1.41055
1.40001
1.40001
1.40001
1.52873
1.30723
1.23124
1.40001
1.23643
1.5229
1.40001
1.40001
1.40001
1.44376
1.4
1.55333
1.4
1.64287
1.27195
1.27569
1.40001
1.55839
1.40001
1.40001
1.50289
1.40001
1.66214
1.65449
1.51298
1.64023
1.40001
1.40001
1.6089
1.6095
1.28145
1.60432
1.40001
1.60614
1.53803
1.40001
1.59678
1.40001
1.34066
1.3426
1.2868
1.59002
1.27391
1.33438
1.40001
1.59838
1.35
1.35362
1.54215
1.54847
1.21651
1.5496
1.54051
1.42206
1.54707
1.54813
1.33539
1.58134
1.58503
1.52328
1.69419
1.54478
1.57726
1.58669
1.54609
1.3348
1.55038
1.40001
1.36013
1.54926
1.57865
1.68436
1.28061
1.51693
1.5488
1.62513
1.39972
1.57016
1.28309
1.57141
1.30948
1.40001
1.43307
1.24592
1.39896
1.50134
1.57389
1.55211
1.47741
1.40001
1.52341
1.62414
1.40001
1.40001
1.12134
1.40001
1.40001
1.52255
1.31548
1.40001
1.70945
1.69951
1.71437
1.40001
1.26729
1.40619
1.54895
1.54789
1.18526
1.70253
1.47679
1.44641
1.59116
1.33603
1.59774
1.68563
1.57614
1.68694
1.66471
1.40001
1.32628
1.40001
1.37592
1.40001
1.15753
1.50648
1.66761
1.55226
1.49049
1.55366
1.51207
1.62426
1.53955
1.51232
1.29336
1.59919
1.40001
1.64467
1.64726
1.40001
1.47127
1.40001
1.40001
1.40001
1.40001
1.40001
1.31969
1.40001
1.32101
1.19517
1.26515
1.61752
1.2039
1.26492
1.62576
1.23963
1.40001
1.1993
1.31961
1.34174
1.40001
1.51973
1.43797
1.40001
1.40001
1.65276
1.12434
1.28995
1.28526
1.53526
1.40001
1.40001
1.1089
1.40609
1.48502
1.58993
1.1136
1.40001
1.40001
1.40001
1.69372
1.40001
1.61226
1.61542
1.47522
1.20291
1.59065
1.60049
1.40001
1.51854
1.60243
1.68389
1.43965
1.40001
1.6482
1.40001
1.40001
1.52575
1.59267
1.52767
1.63395
1.20575
1.63895
1.65058
1.58629
1.40001
1.40001
1.53376
1.40614
1.40026
1.39252
1.40001
1.23281
1.40008
1.40001
1.56175
1.20637
1.40001
1.57132
1.10806
1.57301
1.40001
1.40001
1.39063
1.59916
1.20723
1.26967
1.16233
1.35387
1.33228
1.34231
1.20652
1.51923
1.37876
1.36296
1.40001
1.56482
1.21563
1.20988
1.35033
1.57682
1.56947
1.31337
1.40001
1.40001
1.36223
1.36015
1.19478
1.40001
1.53019
1.2329
1.54472
1.53488
1.54604
1.34473
1.53349
1.59271
1.17924
1.59437
1.15382
1.33211
1.5323
1.33885
1.53096
1.18969
1.31223
1.54048
1.40001
1.32106
1.54838
1.25003
1.66304
1.28605
1.5021
1.55344
1.66244
1.21486
1.5148
1.3651
1.40001
1.55079
1.51613
1.59394
1.62078
1.40001
1.37262
1.40001
1.52294
1.30688
1.54307
1.21297
1.21697
1.40001
1.2136
1.27458
1.50573
1.40001
1.214
1.47547
1.44094
1.73179
1.48256
1.21136
1.3049
1.35232
1.41613
1.67211
1.23098
1.47523
1.49082
1.40001
1.49168
1.40001
1.48538
1.65046
1.47713
1.25668
1.62918
1.42856
1.40001
1.21458
1.6791
1.43196
1.40001
1.21084
1.68125
1.57432
1.87524
1.54483
1.40001
1.45099
1.66948
1.46109
1.40001
1.65734
1.46439
1.40001
1.57181
1.66025
1.50808
1.71799
1.63642
1.45366
1.33085
1.40001
1.40001
1.64028
1.23493
1.40001
1.24904
1.49592
1.5746
1.58018
1.25976
1.51362
1.33181
1.40001
1.2743
1.70173
1.40001
1.40001
1.59491
1.69799
1.26027
1.31333
1.43545
1.19576
1.19071
1.4105
1.32929
1.43821
1.42578
1.39248
1.62976
1.44334
1.42676
1.52299
1.31331
1.42878
1.42473
1.52099
1.52403
1.2492
1.40001
1.41037
1.70483
1.41531
1.59558
1.70177
1.26619
1.40001
1.42006
1.3885
1.53022
1.28724
1.40001
1.40001
1.4453
1.44451
1.34405
1.50879
1.40001
1.40001
1.51232
1.3358
1.37939
1.40001
1.40001
1.14034
1.39737
1.40003
1.65784
1.49396
1.28023
1.36342
1.39031
1.40001
1.27863
1.37762
1.31372
1.27012
1.52992
1.54559
1.76668
1.58389
1.4907
1.59366
1.35958
1.59298
1.58697
1.20061
1.51746
1.52758
1.40001
1.20467
1.40001
1.40001
1.35415
1.34505
1.36701
1.34727
1.65736
1.54413
1.40001
1.40001
1.36332
1.55303
1.29119
1.32161
1.35795
1.2885
1.55517
1.43782
1.55649
1.29932
1.23902
1.35638
1.70668
1.26052
1.40001
1.40983
1.52525
1.29634
1.70774
1.3695
1.48732
1.40001
1.40001
1.4831
1.39401
1.66873
1.40001
1.39999
1.39198
1.40001
1.52485
1.31664
1.30503
1.29491
1.35538
1.52718
1.32303
1.40001
1.30237
1.30101
1.40001
1.24487
1.19091
1.32577
1.48265
1.49314
1.40001
1.40001
1.53764
1.33289
1.55646
1.30561
1.30806
1.70018
1.29596
1.39309
1.40001
1.49628
1.40001
1.40001
1.21973
1.48047
1.47259
1.4982
1.40001
1.19067
1.21993
1.31112
1.60008
1.30692
1.62409
1.34158
1.62857
1.40001
1.40001
1.28354
1.33077
1.54073
1.30729
1.40001
1.40001
1.20513
1.30578
1.26294
1.30942
1.47267
1.41927
1.37206
1.40001
1.58093
1.40001
1.47258
1.40001
1.6084
1.39624
1.19497
1.40001
1.51911
1.40001
1.40001
1.40001
1.40001
1.40001
1.40001
1.63478
1.60146
1.40001
1.60936
1.58899
1.40001
1.46198
1.68285
1.40001
1.42741
1.4276
1.56842
1.40001
1.40001
1.29895
1.24726
1.31953
1.53687
1.59061
1.58265
1.42482
1.47587
1.42929
1.40001
1.40001
1.40001
1.40001
1.43863
1.4459
1.57354
1.52595
1.43789
1.31564
1.44771
1.29711
1.3212
1.40738
1.70709
1.20663
1.56785
1.48649
1.57491
1.48992
1.40001
1.4106
1.20396
1.53675
1.40001
1.40001
1.5248
1.20382
1.33467
1.4098
1.20427
1.72125
1.40001
1.29511
1.40001
1.44562
1.20335
1.20748
1.5483
1.28103
1.33085
1.48029
1.70606
1.50957
1.72592
1.45876
1.40001
1.5438
1.51325
1.28815
1.67188
1.6529
1.44256
1.40001
1.40001
1.50193
1.6917
1.55671
1.62898
1.70326
1.42488
1.23849
1.44412
1.40001
1.55461
1.52589
1.40001
1.69492
1.3805
1.23743
1.67483
1.51876
1.46324
1.4604
1.65091
1.45672
1.37179
1.40001
1.38071
1.37397
1.65328
1.44767
1.40001
1.38457
1.47256
1.52008
1.53726
1.63177
1.52514
1.3568
1.40001
1.26095
1.40001
1.35807
1.21069
1.40001
1.40001
1.69761
1.20211
1.58893
1.21022
1.40001
1.40001
1.59576
1.44255
1.538
1.21485
1.40001
1.38496
1.40001
1.3544
1.67543
1.2009
1.53251
1.20048
1.39803
1.40001
1.6058
1.50851
1.40372
1.39103
1.35252
1.42926
1.46694
1.39457
1.40001
1.61935
1.41516
1.67277
1.40001
1.60815
1.59741
1.40001
1.55013
1.32037
1.41121
1.17114
1.62155
1.18518
1.43406
1.44601
1.5683
1.39999
1.5767
1.42924
1.17421
1.79945
1.17429
1.40001
1.40001
1.39997
1.40592
1.18036
1.57953
1.24918
1.56912
1.52333
1.45213
1.39964
1.70902
1.57054
1.53683
1.31588
1.42162
1.4904
1.39967
1.50858
1.23277
1.48107
1.54781
1.68817
1.48524
1.52364
1.42706
1.54926
1.54069
1.4275
1.60219
1.35677
1.18047
1.46446
1.60589
1.50986
1.39723
1.40001
1.40001
1.43165
1.40001
1.40001
1.39688
1.27517
1.50418
1.51907
1.57264
1.49873
1.67585
1.40001
1.4415
1.58753
1.32822
1.35635
1.32491
1.5214
1.21083
1.17232
1.51184
1.27638
1.59025
1.24736
1.34381
1.54426
1.329
1.48201
1.5914
1.52177
1.69802
1.19164
1.49296
1.40001
1.40001
1.47773
1.40001
1.49468
1.40001
1.51642
1.49335
1.48676
1.49211
1.47485
1.7947
1.33448
1.40001
1.59851
1.35274
1.33966
1.50469
1.77262
1.60966
1.53882
1.45678
1.40001
1.5003
1.46903
1.42315
1.45361
1.53276
1.29064
1.24857
1.76239
1.29122
1.52429
1.53039
1.47099
1.5309
1.3631
1.45829
1.39739
1.40001
1.76453
1.5424
1.36787
1.35106
1.44769
1.41884
1.43758
1.29046
1.32766
1.48233
1.46116
1.3445
1.40001
1.5362
1.49623
1.36085
1.51389
1.37005
1.74511
1.40001
1.44139
1.42947
1.40001
1.40001
1.40001
1.40001
1.74999
1.611
1.4236
1.61635
1.34731
1.40001
1.44328
1.36499
1.52605
1.42414
1.43174
1.47632
1.47878
1.51099
1.33801
1.40001
1.40001
1.39078
1.56459
1.40001
1.40001
1.35883
1.53879
1.42456
1.72663
1.46875
1.52779
1.40001
1.52491
1.51603
1.52409
1.54696
1.55601
1.46857
1.40001
1.40902
1.32311
1.40001
1.73056
1.38571
1.55042
1.53454
1.55216
1.41114
1.31858
1.18069
1.63382
1.18643
1.57032
1.55979
1.40001
1.52444
1.52656
1.56721
1.47035
1.40001
1.40001
1.52369
1.39434
1.32084
1.19058
1.53255
1.40001
1.70332
1.34746
1.58444
1.33202
1.39299
1.5766
1.58015
1.52579
1.1958
1.70695
1.57221
1.32731
1.37679
1.36206
1.32821
1.64265
1.37358
1.20868
1.36651
1.40001
1.4011
1.51173
1.44718
1.41485
1.34439
1.59228
1.70425
1.3133
1.44976
1.41651
1.45067
1.28655
1.50108
1.34058
1.58956
1.34843
1.32831
1.42213
1.31364
1.40757
1.51667
1.52735
1.52018
1.58719
1.3296
1.49903
1.31732
1.26928
1.35419
1.51442
1.35644
1.65479
1.40001
1.45259
1.40001
1.32611
1.65779
1.40001
1.40001
1.32376
1.60933
1.40001
1.35931
1.41541
1.70735
1.48503
1.40007
1.19294
1.40001
1.31076
1.35907
1.63456
1.34745
1.4456
1.63843
1.44629
1.42763
1.54132
1.40001
1.18498
1.40001
1.62143
1.41159
1.61539
1.41217
1.31861
1.59398
1.62402
1.59563
1.40001
1.31844
1.18346
1.60896
1.59596
1.61113
1.51908
1.40333
1.61205
1.42399
1.47502
1.59684
1.30689
1.40001
1.36194
1.70285
1.33247
1.19307
1.40019
1.59594
1.25508
1.32965
1.23323
1.37981
1.59836
1.4307
1.50453
1.40001
1.42905
1.43027
1.60056
1.60919
1.40001
1.58475
1.4434
1.53195
1.60412
1.40001
1.58955
1.58712
1.54956
1.36706
1.61652
1.40001
1.40001
1.61266
1.57195
1.6246
1.20388
1.61994
1.57461
1.40001
1.42966
1.4598
1.20291
1.56112
1.36543
1.23441
1.23073
1.64277
1.56384
1.60154
1.54332
1.40001
1.40001
1.40001
1.364
1.54952
1.40001
1.40155
1.1928
1.62863
1.49826
1.54675
1.47828
1.33659
1.55188
1.41488
1.39932
1.56255
1.18358
1.41489
1.53234
1.40001
1.18064
1.53987
1.34364
1.18054
1.54245
1.53759
1.63263
1.41114
1.64735
1.64313
1.40001
1.33137
1.21763
1.53966
1.40001
1.40001
1.42786
1.40001
1.63951
1.25379
1.54146
1.52244
1.40001
1.55881
1.55143
1.4236
1.7179
1.43846
1.1821
1.52704
1.42711
1.35945
1.63547
1.40001
1.35365
1.36526
1.4362
1.72134
1.52972
1.40001
1.32931
1.28134
1.54831
1.65046
1.52042
1.54005
1.65457
1.54224
1.40001
1.43635
1.45328
1.27258
1.89836
1.61046
1.7032
1.51776
1.4327
1.23212
1.59851
1.40001
1.40001
1.44294
1.45051
1.51928
1.54337
1.35127
1.46387
1.43067
1.69052
1.35398
1.40001
1.11215
1.40001
1.18768
1.46151
1.50566
1.50912
1.38678
1.40001
1.40001
1.65809
1.68084
1.40001
1.40001
1.48123
1.38441
1.52782
1.66702
1.47749
1.46228
1.4905
1.4901
1.53946
1.36122
1.40001
1.46555
1.49231
1.34827
1.36161
1.2509
1.48751
1.53676
1.40001
1.53628
1.40001
1.40001
1.71268
1.35865
1.39204
1.6492
1.47731
1.70428
1.35967
1.40001
1.40001
1.48148
1.71894
1.34863
1.20242
1.50796
1.40001
1.6515
1.47459
1.50471
1.40001
1.40001
1.40001
1.40001
1.51685
1.40001
1.35599
1.46307
1.40058
1.53422
1.46413
1.40001
1.5148
1.40001
1.40001
1.40001
1.53047
1.45048
1.45506
1.40001
1.51646
1.5255
1.27975
1.40001
1.40001
1.26331
1.35555
1.40001
1.30015
1.53755
1.40001
1.40001
1.40001
1.40001
1.40001
1.43756
1.40001
1.37227
1.53524
1.40001
1.57557
1.53393
1.40001
1.43995
1.1712
1.40001
1.29006
1.53047
1.40001
1.40001
1.57359
1.59196
1.40001
1.40001
1.40001
1.26481
1.26337
1.36708
1.55674
1.21181
1.57019
1.40001
1.40001
1.28302
1.57247
1.39976
1.26393
1.5547
1.40001
1.38209
1.40001
1.58805
1.61255
1.37763
1.40001
1.25239
1.40001
1.40001
1.27756
1.17323
1.56987
1.39798
1.40001
1.58508
1.40001
1.36577
1.29699
1.57436
1.18966
1.40013
1.20825
1.40001
1.24799
1.31808
1.34957
1.35143
1.5949
1.49331
1.57058
1.39407
1.39981
1.27439
1.61633
1.41826
1.3914
1.40001
1.40001
1.27456
1.26357
1.53032
1.21469
1.59239
1.74022
1.59609
1.40001
1.58892
1.71237
1.31343
1.60436
1.77122
1.40609
1.40661
1.31674
1.29041
1.5955
1.63721
1.311
1.59958
1.40275
1.49607
1.49016
1.25727
1.43562
1.7566
1.30882
1.26313
1.40001
1.49914
1.40001
1.40001
1.26331
1.62508
1.78425
1.43648
1.40001
1.40001
1.43869
1.40843
1.40001
1.73612
1.40001
1.62056
1.50196
1.40001
1.08737
1.40001
1.6218
1.40001
1.41526
1.25025
1.40001
1.75831
1.22058
1.61657
1.40001
1.18172
1.40001
1.18619
1.41739
1.40093
1.63484
1.41231
1.22684
1.63451
1.47128
1.29397
1.62098
1.71155
1.73924
1.42998
1.63028
1.63159
1.23851
1.47361
1.54042
1.29929
1.40001
1.5779
1.40001
1.70029
1.36689
1.64315
1.64695
1.22415
1.38518
1.42186
1.40001
1.44897
1.52755
1.36639
1.39052
1.3312
1.71371
1.43481
1.40916
1.40001
1.44506
1.64313
1.40001
1.40001
1.40001
1.6416
1.40962
1.50325
1.44694
1.41664
1.40001
1.6584
1.69799
1.58594
1.66778
1.4308
1.40001
1.70377
1.23758
1.65363
1.66189
1.43406
1.58452
1.39935
1.40001
1.32515
1.66252
1.36236
1.68703
1.64268
1.36513
1.36563
1.36578
1.75663
1.66544
1.36513
1.25059
1.40001
1.56594
1.54673
1.52212
1.40001
1.67068
1.40001
1.61704
1.52108
1.32259
1.6374
1.62752
1.47916
1.34051
1.57248
1.54011
1.59963
1.40001
1.48176
1.34895
1.29815
1.48449
1.66562
1.40001
1.64565
1.56249
1.61577
1.34933
1.35449
1.40001
1.65599
1.55945
1.73338
1.40001
1.58938
1.29262
1.57841
1.61962
1.33794
1.63044
1.60172
1.45179
1.60142
1.64035
1.41433
1.53695
1.56828
1.40001
1.42521
1.49055
1.61822
1.59027
1.57785
1.26184
1.67202
1.56114
1.65783
1.43408
1.45382
1.5442
1.40001
1.53483
1.60472
1.48683
1.57818
1.40001
1.58013
1.3654
1.40001
1.74087
1.59275
1.56697
1.50035
1.40001
1.67433
1.35935
1.40001
1.58122
1.55376
1.55534
1.40001
1.40001
1.49824
1.56907
1.40001
1.55071
1.40001
1.544
1.54155
1.28969
1.40001
1.55791
1.40001
1.53353
1.26222
1.40015
1.46276
1.56066
1.54645
1.52171
1.40001
1.40001
1.40001
1.51409
1.55884
1.3581
1.53657
1.51865
1.51244
1.55764
1.25216
1.41201
1.58542
1.40002
1.40001
1.40524
1.41805
1.41286
1.40001
1.51149
1.58806
1.40001
1.52408
1.43731
1.28974
1.43793
1.56923
1.48057
1.49455
1.55565
1.52877
1.35527
1.51504
1.52376
1.49632
1.28388
1.42503
1.52172
1.40001
1.73243
1.5666
1.36595
1.48537
1.65104
1.1772
1.53641
1.3621
1.33055
1.40001
1.49623
1.56593
1.58211
1.51901
1.56613
1.40001
1.17623
1.46637
1.49302
1.57646
1.4879
1.40001
1.40001
1.5632
1.45902
1.57733
1.40001
1.21786
1.40001
1.40001
1.18762
1.57465
1.40001
1.46833
1.62857
1.50911
1.40001
1.33298
1.49782
1.57415
1.44177
1.40001
1.46108
1.17669
1.35446
1.19485
1.61487
1.3665
1.53491
1.40001
1.58374
1.60612
1.20104
1.40001
1.40001
1.42575
1.2046
1.44278
1.61865
1.53243
1.57219
1.58135
1.40001
1.51804
1.602
1.40001
1.1853
1.42777
1.41301
1.30667
1.17389
1.40001
1.35632
1.40001
1.58132
1.54251
1.40001
1.40001
1.41309
1.48243
1.51055
1.46863
1.18919
1.40001
1.40001
1.32545
1.17271
1.54698
1.48174
1.70125
1.27209
1.57916
1.18767
1.59514
1.40001
1.54466
1.40001
1.59306
1.40001
1.40001
1.18008
1.40001
1.58945
1.40476
1.40001
1.09579
1.55556
1.40769
1.26007
1.65033
1.54544
1.40001
1.26592
1.56858
1.40001
1.58719
1.40001
1.44108
1.46617
1.55295
1.35216
1.53742
1.40001
1.26807
1.43859
1.7992
1.61436
1.21832
1.40001
1.34366
1.21844
1.60748
1.34865
1.40001
1.40001
1.36395
1.52402
1.40001
1.12455
1.51924
1.56459
1.52063
1.59687
1.19108
1.60524
1.38605
1.42299
1.46881
1.39842
1.39846
1.34862
1.56158
1.46732
1.33214
1.345
1.49266
1.40001
1.5946
1.41969
1.40001
1.40001
1.29889
1.40001
1.61555
1.48139
1.51135
1.40001
1.57385
1.61216
1.48467
1.32898
1.2472
1.40001
1.605
1.47806
1.69834
1.16528
1.57135
1.48557
1.49393
1.31882
1.48937
1.24478
1.19031
1.19088
1.34554
1.19287
1.60279
1.58854
1.40001
1.41393
1.40001
1.27504
1.27797
1.65884
1.64334
1.40001
1.54978
1.20943
1.36076
1.20534
1.58441
1.51333
1.19456
1.40001
1.52502
1.36919
1.62093
1.54143
1.58232
1.63073
1.40001
1.40001
1.40001
1.51265
1.48535
1.58154
1.27137
1.54657
1.25315
1.62891
1.41418
1.64747
1.4875
1.66205
1.57769
1.52877
1.35505
1.40001
1.40001
1.18572
1.40001
1.5956
1.41533
1.28338
1.48321
1.44832
1.38261
1.49972
1.40001
1.51187
1.40001
1.40001
1.34902
1.59297
1.45442
1.62376
1.33444
1.59069
1.37491
1.72455
1.32917
1.28109
1.14035
1.40001
1.36267
1.59075
1.43648
1.44782
1.4996
1.44296
1.19284
1.44735
1.40001
1.49425
1.49527
1.29721
1.39999
1.49878
1.32322
1.4068
1.3588
1.40001
1.15281
1.18122
1.46969
1.40014
1.3682
1.40001
1.40001
1.43922
1.40001
1.40001
1.49542
1.55024
1.27213
1.32729
1.29531
1.49556
1.4705
1.60234
1.40001
1.40001
1.26312
1.31478
1.45047
1.41856
1.50703
1.40001
1.48098
1.19281
1.44233
1.34872
1.30785
1.18656
1.40001
1.5444
1.49641
1.48131
1.59982
1.39501
1.40001
1.40001
1.70424
1.47061
1.60472
1.47769
1.50812
1.50337
1.41661
1.39362
1.40001
1.46773
1.45294
1.60187
1.40001
1.43951
1.32857
1.24734
1.40001
1.39133
1.51023
1.20051
1.34711
1.25007
1.5046
1.58583
1.40001
1.54637
1.47563
1.5951
1.52516
1.42883
1.23407
1.18597
1.46529
1.50114
1.5336
1.30956
1.49539
1.40001
1.52222
1.40001
1.25039
1.40001
1.64712
1.51093
1.19066
1.40001
1.4301
1.61006
1.34041
1.40001
1.5826
1.33672
1.40001
1.34425
1.3068
1.49226
1.33291
1.51827
1.34879
1.24727
1.60799
1.47164
1.48459
1.23662
1.32106
1.40001
1.51508
1.36363
1.37653
1.3551
1.36342
1.40001
1.19107
1.5238
1.40369
1.40006
1.38531
1.31786
1.40001
1.51375
1.43029
1.52648
1.50039
1.32104
1.32531
1.33311
1.42629
1.49861
1.396
1.34121
1.5441
1.51092
1.39001
1.27598
1.40001
1.31633
1.54692
1.40001
1.4806
1.40001
1.30495
1.40928
1.40001
1.52383
1.4967
1.40001
1.55597
1.40001
1.37378
1.40771
1.53966
1.53471
1.40001
1.1879
1.40001
1.56044
1.75342
1.45531
1.40001
1.48208
1.60436
1.50041
1.52955
1.40765
1.26643
1.35926
1.40779
1.40001
1.67038
1.32797
1.40001
1.31154
1.53839
1.26695
1.45573
1.64291
1.18572
1.62256
1.32037
1.40001
1.53298
1.60963
1.55746
1.48923
1.38529
1.40001
1.57991
1.40002
1.32733
1.40001
1.61999
1.50132
1.30393
1.4002
1.50862
1.53627
1.60697
1.40001
1.58073
1.7482
1.61132
1.46189
1.29286
1.57671
1.34176
1.48668
1.65303
1.40001
1.40001
1.3413
1.39985
1.56694
1.41084
1.60095
1.34465
1.30878
1.58351
1.26885
1.40001
1.32674
1.38861
1.61115
1.40001
1.34016
1.32042
1.18099
1.48746
1.61135
1.40001
1.40001
1.35963
1.20547
1.56947
1.10504
1.54418
1.44139
1.57466
1.18204
1.68075
1.43578
1.61939
1.65284
1.18558
1.42162
1.40001
1.32061
1.72636
1.60784
1.40001
1.31448
1.39545
1.21054
1.57898
1.52863
1.547
1.46472
1.55326
1.26966
1.47814
1.63469
1.36206
1.65006
1.643
1.43849
1.65005
1.62795
1.5331
1.40001
1.329
1.61882
1.59803
1.40001
1.33013
1.47454
1.47377
1.63263
1.46934
1.55431
1.18932
1.48989
1.46685
1.40001
1.49199
1.54003
1.40001
1.56134
1.47258
1.32247
1.36313
1.47493
1.40001
1.36384
1.30803
1.50149
1.49183
1.41053
1.52163
1.57063
1.47702
1.47524
1.40001
1.67097
1.30631
1.34751
1.5125
1.41577
1.50468
1.57747
1.71954
1.40001
1.49828
1.58858
1.64428
1.40001
1.63936
1.65703
1.36361
1.62538
1.40001
1.61422
1.53168
1.47712
1.40001
1.575
1.41355
1.66788
1.53792
1.47357
1.54886
1.19235
1.51603
1.58542
1.40001
1.40001
1.63015
1.60172
1.55175
1.32677
1.53269
1.30445
1.26532
1.43033
1.40757
1.4147
1.28915
1.35835
1.50437
1.53024
1.55902
1.30634
1.2845
1.35934
1.55984
1.40961
1.44462
1.66346
1.56804
1.40001
1.3973
1.46956
1.47049
1.56372
1.59289
1.32636
1.58971
1.41187
1.67128
1.57539
1.50056
1.69316
1.40001
1.55841
1.45682
1.3279
1.17468
1.4137
1.40001
1.26045
1.16992
1.5412
1.16314
1.25637
1.45843
1.63484
1.52132
1.58296
1.30844
1.71247
1.45928
1.28324
1.53435
1.21255
1.40001
1.68402
1.60098
1.53592
1.72346
1.45018
1.40001
1.40001
1.30913
1.47602
1.2172
1.40001
1.30423
1.20849
1.5358
1.5327
1.41324
1.32925
1.52748
1.59096
1.53459
1.54739
1.40001
1.32771
1.45251
1.52466
1.6841
1.40001
1.40001
1.4316
1.49694
1.40004
1.63835
1.53843
1.39871
1.46139
1.63724
1.40001
1.40001
1.39261
1.28431
1.30557
1.23747
1.37795
1.29995
1.46502
1.59865
1.40001
1.53401
1.56401
1.40001
1.21109
1.37884
1.55147
1.44215
1.40001
1.26839
1.20723
1.37782
1.44683
1.12869
1.51866
1.40418
1.42381
1.48262
1.4656
1.26671
1.28467
1.5252
1.40001
1.42931
1.47785
1.52419
1.60687
1.27777
1.28973
1.2837
1.40395
1.40001
1.47127
1.40001
1.55449
1.59746
1.12976
1.26576
1.26785
1.28506
1.40001
1.38004
1.40001
1.19723
1.26664
1.40145
1.28563
1.51803
1.28141
1.63783
1.4601
1.75134
1.40001
1.44953
1.28396
1.30219
1.27297
1.63695
1.63238
1.40001
1.52192
1.28709
1.67658
1.40001
1.31486
1.40001
1.61384
1.3803
1.4622
1.4282
1.40001
1.12954
1.35648
1.28339
1.51964
1.40001
1.40001
1.39706
1.44289
1.50385
1.40718
1.41054
1.61293
1.59293
1.63386
1.41145
1.4838
1.17047
1.30042
1.59538
1.6115
1.39854
1.40001
1.29818
1.3042