/*--------------------------------*- C++ -*----------------------------------*\
  =========                 |
  \\      /  F ield         | OpenFOAM: The Open Source CFD Toolbox
   \\    /   O peration     | Website:  https://openfoam.org
    \\  /    A nd           | Version:  12
     \\/     M anipulation  |
\*---------------------------------------------------------------------------*/
FoamFile
{
    format      ascii;
    class       volScalarField;
    location    "3.7";
    object      T;
}
// * * * * * * * * * * * * * * * * * * * * * * * * * * * * * * * * * * * * * //

dimensions      [0 0 0 1 0 0 0];

internalField   nonuniform List<scalar> 
46253
(
0.959903
1
1
1
1
1
0.938441
1.03621
1
1
0.96062
0.941183
1
1
1
1
1
1
1
1
1
1
1
0.949253
0.939103
1
1
1
1
1.03621
1.03737
1
0.999998
1
1
1
1
1
1.0348
1
0.941233
0.941478
1
1
0.924901
1
1
1
0.999212
0.998384
1.01369
1.01174
1
1.03702
1.00001
0.963128
1.12833
1.1219
1.07253
0.941724
1
0.915824
1
1
1
1
1
1
0.963957
0.925227
0.938107
1.11461
1.11376
1.00172
1
0.948399
1.09599
1.09585
1
1.00004
1.00008
1.10665
1
1.10653
0.931939
1
1.08019
1.07974
1.03843
1
1
0.932917
1
1.1047
1
1.11998
1
1
1.0715
1
1
1
1
1.03675
0.999997
0.933559
0.942387
1.06674
1.06628
0.948891
1.03469
1.11155
1.10977
1
1
1.03654
0.928355
0.934123
1.1207
0.967357
1
1
1.10355
1.10266
1
1.12143
1
0.9567
0.997374
1.09116
1.05839
1.05801
1
0.941068
1.09059
1
1.08687
1.08615
0.96645
1
1.0982
1.05358
1.05325
1.03367
1.09828
1.00024
1.08262
1.08192
1.03468
1
0.948576
1
1.08883
1.08829
1.02222
0.925813
0.955762
1
1.07597
0.999999
1.07539
0.942715
0.962595
1
0.937897
1.0844
0.94077
1.08416
1.16907
1
1.07225
1.0717
1
0.945489
1
0.920927
1.03432
1
0.999362
0.928575
0.999999
1.02128
1.06858
1.06809
1
1.07786
1.07718
0.92464
1
1
1
1
0.911481
1
1
1
1.0347
1
1.02724
1.02692
1
1
1.07396
1.07368
1
0.92641
1.02032
1.06336
1.06287
1
1
1.12122
0.945977
1
1.03651
1
1.03268
0.929571
1.06016
1
1
1.0596
0.920787
1.07024
1.06986
0.930421
1
1
1.02022
1.01974
1.05694
1
1
1
1
1
1
1
1.05587
1.06123
1
1
1
1
1
1
1
1.01967
1
1.05518
1.0547
1.06013
1.01273
1
1.01228
1.0649
1.06442
0.971026
0.945696
1
0.940106
0.930287
0.946458
1.03486
0.99472
1
1
1
1.0616
1.05033
1.0614
1
1
1
1.04981
1
1.00009
1
1.0371
0.97731
1.00562
1.00504
1
1
1
0.912586
0.946979
0.967991
1.02949
1
1.06957
1.06855
0.928613
1
1.06662
1.04695
1
1.04652
0.939663
1.04728
1.11743
1.04679
0.958083
1.11513
1
1.05669
1.05628
1
1.03582
1
1
1.02366
1
1.0443
1
1.04363
0.965075
1.06552
1
1.0372
0.955393
1
0.939238
0.939303
1.03489
1.0284
1
1
1.04092
1.04041
0.992867
0.992822
1
1
1
0.917425
0.970026
1.05192
1.05145
1
1
1
1
1.12409
1
1.03775
1.03726
1
0.965085
1
1.03598
1
0.927305
1
0.943926
1
1.04858
1
1.04837
1
0.944146
1
1
1
1
1
1
1
1.03484
1
1
1
1
1.03438
1
1.0637
0.966592
1
1
1
0.93471
0.941145
0.95608
1.04554
1.03675
1.04534
1
1
1.0318
1.12853
1
1.03061
1.03134
0.943704
1
1.0363
1.01591
1.01716
1
1.03484
1
0.977126
0.976652
1.0627
1
0.99976
1
1
1
1
1
1
1.10706
1
1.03298
1
0.915056
1
1
0.971689
1
1
1.02886
1
1.04223
1
1
1.02837
1.04199
1
1.02936
1
1
1
1
1.02247
1.03723
1
1
1.03703
0.95608
1
0.939052
1
1.02368
1.02339
1
1
0.968454
1
0.977432
1.03683
1
0.917146
1
1.09087
1.03552
0.99964
1.03909
1.02461
1
1.02463
1.02474
1.03876
1
1.02468
1
1
1
1
1
0.998419
1
1.0356
0.957646
1.02475
0.974004
1.0186
1.0244
0.995768
0.968481
0.968926
1
1
1
1
0.997851
1
0.978524
0.931455
0.93496
0.978988
1.02454
0.926668
1.02309
1
1
1.03602
1.03221
0.947159
1.03577
1.02177
1.02141
0.96303
0.946067
1
0.962726
1.03565
1
1
1
0.938984
1
1.03712
0.914652
1
1
1.02655
1
1
0.919689
0.914587
1.03366
1
1
1.03391
1
1.03301
1.03614
1.03325
1
1.03738
1.03744
1
1.02441
1.03117
1
1
1.03316
1
0.941749
0.973045
1
1
1.03284
1
1
1
1
0.931783
1
1
1.01744
0.975119
1.01703
0.939434
1
1
1
1
1
1
1
1.02407
0.935969
1
1
1
1
1
1
0.940386
1.03155
1
1.02714
1
1
0.957818
1
1
1
1.03011
1
1
1.02978
1.02614
1.04149
1
1.04262
1.04268
1.04368
1.04017
1
1.0145
1.01398
1.03145
1.04461
1
1
1.00953
1
1.1146
1.02244
1
1.11509
1.0009
1
1.03512
1.03715
1
1
1.03958
1.0255
1
1
1.01416
0.999991
0.999998
0.996644
0.99841
1.07445
1.07591
1.06976
1.07036
0.923684
1.02341
1.06734
0.936629
1.06794
1.06421
1
0.940488
0.951888
1.06493
1
1.06159
1
1.06198
1
1.0257
1.05952
1
1.0599
1.09312
1
1.05696
1
1.0573
1
0.932409
1
0.976012
0.951025
1
1
1.05423
1.05474
1
1.03134
1.05144
1.05203
1.01245
1
1
1.04703
1.01019
1.04757
1
1.02599
1.04443
0.958085
1.0449
1.00986
1.02574
1
1
1
1.04204
1.04251
1.03765
1
1
1.03958
0.980851
1.03995
0.955734
1
1.03544
1.03595
1
1
1
0.918301
1
1.03134
1.00963
1.03861
1
1.03153
1
1.0318
1
1
1.03243
1.03247
1.02891
1.02954
1.02127
1.03453
1.02665
1.03581
1.02698
1
1.01654
1.02275
1.02316
1
0.968884
1.02009
1.02035
1.15679
1
1
1
1.01739
1.02194
1.01756
0.936532
1.03831
1.02441
0.948422
1.01436
1.01471
1.00973
1.01216
1.01272
0.965891
0.96412
1
1.03478
1.11908
1.00731
1
0.952031
1.0067
0.959368
1.04253
0.942543
1
1
1
1.02335
1
1
1
1
1
1.02295
1
1
1
0.972243
0.96754
1
1.01515
0.923665
0.955978
1
1
1
1
1
0.935994
1
1.02314
1
1.03969
0.929459
1.04034
0.960924
1
0.928315
0.937856
1.04358
1
1
1
1
1
1.04137
1.04075
0.938756
0.945031
0.94405
1
0.976588
1
1
1.0414
1.00847
0.9999
1.03515
1.01058
1
1.01665
1.01861
1
1.04258
0.958006
1.02314
1
1.02275
1.00268
1
1
1.0248
1.02654
1
1.00228
0.916172
1
1
1.05002
1.05058
1.02342
1
0.916223
0.916997
0.936977
0.992304
1
1.03206
1.03651
0.958577
1.09126
1
1
1
1.03817
1.03857
1
0.998763
1
1.01862
1.03424
1
1.00137
1.03455
1.01836
1.02328
1.02195
1
1.02202
1.03538
0.951272
1.02284
0.956312
1.02503
1
1
1.02557
1
1
1.02556
1.02381
1
1.0003
0.968617
1.03131
0.968176
0.970109
0.999825
0.964946
0.964518
0.955363
0.954629
1
1
1.04352
1
1
1.02548
0.971976
0.967286
1
1
1.03638
1
1.03271
1.03651
1.03907
1.08797
1.03443
0.999573
1
0.999968
1
1.02463
1.03416
1.04524
0.917309
1
1.01603
1
1.0265
1.0344
1.01587
1
1.0294
1.02764
1.02908
1
1
1
1
1.02804
1.03275
1
1.01153
1
0.964406
1
0.965117
0.955445
0.939818
1
0.996586
0.996147
0.929109
1.10519
1
0.966477
1.03435
1.0343
0.966709
1
1
1.02369
0.935442
1
1
1.03329
0.930046
1.03949
1.02452
1
1
1
1
1
1
1.12922
1
0.956304
0.964403
0.960231
1.03879
0.941169
0.911819
0.918909
0.972109
1.0409
0.955368
0.915465
1.05819
1.06064
1.06283
1.05569
1.0587
1
0.998958
1.06092
1.06595
1.05616
1.02239
1.06341
1.04724
1.05295
1.06654
1
1.06868
1.05338
1.06867
1
1.04849
1.0699
1.06995
1.06986
1.04913
1.06355
1.07366
1.04579
1.05408
1
1.0002
1.04623
1
1.04334
1.00008
1
1
0.993921
1.0436
1
1
1
1.04075
1.04395
1
1
1
1.04108
0.993644
0.946098
1.03696
1
0.993537
1.0373
1.03279
1.03332
0.964489
1.0305
1.03081
1.02775
1
0.950039
1.02798
1
1.02402
0.940033
1
1
1.02418
0.976678
0.945578
1.02126
1.02161
1.01851
1.01129
1.01896
0.934112
1.01591
1
1.00715
1.01102
1.01643
1.0134
1.00889
1.02267
1.01363
1.00403
1.00571
0.941579
1.01358
1.01037
1.01077
0.956583
0.948854
0.917551
1
0.949773
1
0.946941
0.950183
0.947008
1
1.11895
1.03221
1
0.99343
0.992861
1.03081
1.03293
1
1.03983
1.04305
1.04587
1.04151
1.0396
1.04158
1.04371
1.04216
1.0415
0.995398
0.965563
1.03505
1.02482
1
0.994617
0.969475
0.958693
1.0106
1
1.05603
1.04217
0.940539
1
0.98938
0.945186
0.999041
0.988964
1
1.07918
1
0.983305
1.01015
1.04009
1.04057
1.01349
1.0153
0.963214
1.00864
1.00046
1.00849
1.00671
0.934662
0.942735
0.966733
0.953441
0.995181
1.04499
1.00893
1
1.04473
1.06523
0.984893
1.00414
1
1
1
1.02997
1.00849
1
1
0.943448
1.00544
0.955519
1
0.933727
1
1.02892
0.986876
1
1
0.915866
0.957375
1.07286
0.958777
1.0352
1.03562
1.00001
1.04639
1.0328
1
0.988597
1
1.0098
0.987111
0.993265
0.971632
1
1
0.994147
0.992921
1.02346
1.02528
1.03102
1.03124
1
0.986924
1.00468
1.02178
1.02162
0.955144
1.01092
1
0.987604
0.976228
1.03133
0.949627
1.03345
1.04238
1
1
1
0.971551
1.02871
1
1.02283
1.02785
1.03398
1.04303
0.966142
1.02188
0.935138
0.94124
1.05423
1
1
0.990628
1.05896
1
1
1
1.02569
1
1.02621
0.930745
0.993635
0.991469
1
1
0.991455
1
1.0787
1.02468
1.07648
1.07865
1
0.936909
1.07774
1.02525
0.992459
1.05352
1
0.946023
1.07186
1.06335
0.991629
1
1.05125
1.07247
1.06753
0.999994
1.03165
0.916147
1
1
0.967357
1.06828
1
1.05758
1.04015
1
1
0.934063
1.06218
0.984133
1.03984
1.06709
1.00396
0.952955
1.04433
1.06269
1.06307
1.03266
0.983824
1
1.04191
1.00356
1.04185
1.04103
1
1.05719
1
1
1
1.05668
1
1
0.980443
0.991802
1
0.981785
1.05779
1.03466
1.02582
1
0.994461
1
1.03327
1
1
1
1
1
0.994215
1
1
1
1
1
1
0.921387
0.937684
1
1.0072
1
1
1
1.03743
0.978861
0.951138
1
0.952669
1.04055
1
1
1
1.01434
0.999999
1.04327
1
1.06683
0.964016
0.964431
1
1.04395
1
1
1.02878
1
1.07149
1.06992
1.03225
1.06601
1
1
1.0575
1.05761
0.966899
1.05637
1
1.05686
1.03944
1
1.05437
1
0.983243
0.983772
0.9682
1.05358
0.964296
0.98127
1
1.05483
0.986095
0.987162
1.04015
1.04213
0.950041
1.04234
1.04011
1.01167
1.04137
1.04154
0.982128
1.05045
1.0513
1.036
1.07961
1.04094
1.04926
1.05174
1.04097
0.981905
1.04265
1
0.98879
1.0423
1.04964
1.07706
0.966394
1.03287
1.04168
1.06198
1.00113
1.0474
0.966836
1.04775
0.978132
1
1.01195
0.956362
1.00109
1.02855
1.04846
1.04302
1.02751
1
1.04023
1.06175
1
1
0.916698
1
1
1.04039
0.976546
1
1.08384
1.08129
1.08509
1
0.962617
1.0036
1.04194
1.04182
0.936165
1.08208
1.02791
1.01551
1.05379
0.981867
1.05892
1.07773
1.0491
1.07809
1.07225
1
0.978993
1
0.994008
1
0.928399
1.03111
1.07302
1.04336
1.03149
1.04373
1.0319
1.06173
1.03974
1.03645
0.970363
1.05514
1
1.06706
1.06772
1
1.02024
1
1
1
1
1
0.977841
1
0.97816
0.940338
0.961981
1.05988
0.942967
0.961902
1.06207
0.95477
1
0.941599
0.977788
0.984237
1
1.03496
1.01293
1
1
1.06933
0.917622
0.973195
0.972003
1.04038
1
1
0.912715
1.00627
1.02476
1.05266
0.914137
1
1
1
1.07953
1
1.05856
1.05938
1.02536
0.942715
1.05267
1.05532
1
1.03468
1.05585
1.07695
1.01365
1
1.06793
1
1
1.04121
1.0532
1.0414
1.06435
0.94359
1.06855
1.07156
1.05177
1
1
1.03774
1.0022
1.00007
0.998744
1
0.951639
1.00002
1
1.04486
0.943647
1
1.04735
0.909824
1.04779
1
1
0.998292
1.05572
0.943908
0.963335
0.931435
0.987226
0.980597
0.983622
0.943804
1.03354
0.9952
0.98947
1
1.04564
0.946588
0.944718
0.986182
1.04951
1.04718
0.97695
1
1
0.989297
0.98885
0.9392
1
1.03652
0.951026
1.04039
1.03783
1.04072
0.984555
1.03739
1.05327
0.935007
1.05375
0.927185
0.980474
1.03708
0.982483
1.0378
0.938636
0.977069
1.03985
1
0.981111
1.04727
0.957381
1.07237
0.967958
1.02887
1.04283
1.07238
0.946227
1.03237
0.990497
1
1.04206
1.03277
1.05374
1.06073
1
0.992252
1
1.03933
0.978239
1.04002
0.948853
0.946867
1
0.945865
0.964079
1.02991
1
0.946056
1.02695
1.01341
1.08948
1.02855
0.945203
0.973459
0.986629
1.00645
1.07425
0.950921
1.02153
1.02579
1
1.02606
1
1.02436
1.06848
1.02205
0.959567
1.06294
1.00976
1
0.946125
1.07604
1.0098
1
0.944531
1.07662
1.04863
1.1282
1.04601
1
1.01497
1.07347
1.01772
1
1.07035
1.01862
1
1.04801
1.07109
1.0357
1.08684
1.0649
1.0157
0.981182
1
1
1.06587
0.952319
1
0.956507
1.02705
1.04864
1.05031
0.959662
1.03784
0.980896
1
0.964001
1.08219
1
1
1.054
1.08143
0.959868
0.975585
1.01055
0.944197
0.942742
1.00501
0.980747
1.01135
1.00786
0.999642
1.06325
1.01437
1.00816
1.03456
0.975474
1.00955
1.00848
1.03917
1.04017
0.956598
1
1.0048
1.08286
1.00476
1.05803
1.08207
0.962214
1
1.00616
0.99716
1.04052
0.968202
1
1
1.01514
1.01475
0.984574
1.03063
1
1
1.03153
0.98318
0.994876
1
1
0.920878
0.999714
1.0005
1.07045
1.02644
0.965892
0.990388
0.99762
1
0.965353
0.994463
0.975935
0.962787
1.03865
1.04083
1.10206
1.05082
1.02575
1.05373
0.989604
1.05344
1.05167
0.941026
1.03422
1.04136
1
0.942193
1
1
0.988055
0.985381
0.991762
0.986007
1.07054
1.04028
1
1
0.990724
1.04257
0.96926
0.978229
0.988144
0.968519
1.04879
1.01249
1.04346
0.971425
0.953522
0.987802
1.08307
0.96077
1
1.00819
1.04021
0.970698
1.08346
0.99137
1.02481
1
1
1.02368
0.999574
1.07358
1
0.999995
0.99902
1
1.03511
0.976711
0.972962
0.970491
0.987547
1.03574
0.977791
1
0.972257
0.972274
1
0.955854
0.938783
0.97858
1.02405
1.02623
1
1
1.04094
0.980785
1.04956
0.973121
0.973937
1.08234
0.970995
0.998103
1
1.02728
1
1
0.94717
1.02343
1.02599
1.02784
1
0.938655
0.947426
0.975303
1.05524
0.974056
1.0616
0.983575
1.06263
1
1
0.967505
0.980137
1.04167
0.974159
1
1
0.943273
0.973707
0.961348
0.974345
1.02086
1.00725
0.992382
1
1.05023
1
1.02082
1
1.05741
0.998932
0.939259
1
1.03478
1
1
1
1
1
1
1.06426
1.05566
1
1.05765
1.05231
1
1.02336
1.07735
1
1.00909
1.00932
1.04697
1
1
0.97122
0.959285
0.97784
1.04053
1.05275
1.05069
1.00839
1.027
1.01485
1
1
1
1
1.01162
1.01355
1.04829
1.0375
1.01131
0.97671
1.01407
0.9707
0.981571
1.00343
1.08324
0.94257
1.04681
1.025
1.04866
1.02573
1
1.00315
0.941867
1.03863
1
1
1.03962
0.941862
0.982296
1.00408
0.942069
1.08682
1
0.970827
1
1.01424
0.941925
0.943121
1.04142
0.966711
0.981198
1.02297
1.08298
1.03086
1.08799
1.01699
1
1.04015
1.03181
0.96878
1.07414
1.06917
1.01341
1
1
1.03404
1.07928
1.04373
1.06296
1.08319
1.0078
0.953869
1.01509
1
1.04312
1.04015
1
1.08013
0.995595
0.953703
1.07494
1.03927
1.01831
1.01835
1.0687
1.01737
0.992383
1
0.994972
0.993058
1.06928
1.01757
1
0.996027
1.02172
1.03383
1.03854
1.06364
1.0351
0.988021
1
0.960435
1
0.988393
0.944028
1
1
1.08169
0.941439
1.05242
0.943696
1
1
1.05404
1.01412
1.03867
0.945499
1
0.997968
1
0.987147
1.07547
0.941626
1.04285
0.941193
1.00073
1
1.0568
1.03639
1.00282
0.998028
0.986556
1.01031
1.02019
0.999773
1
1.06044
1.00562
1.07411
1
1.05743
1.05447
1
1.04252
0.97796
1.00452
0.931764
1.06098
0.937254
1.01098
1.01491
1.04656
0.999997
1.04882
1.00964
0.93285
1.11141
0.932903
1
1
0.999991
1.00298
0.93473
1.04961
0.956138
1.04674
1.03914
1.01507
0.999877
1.0846
1.04798
1.03829
0.978
1.00625
1.02664
0.99989
1.03161
0.951218
1.02325
1.0412
1.07887
1.02525
1.04021
1.00956
1.04155
1.03931
1.00868
1.05586
0.989603
0.935422
1.01947
1.05683
1.03101
1.00164
1
1
1.00981
1
1
1.00333
0.964712
1.03045
1.03354
1.05223
1.02768
1.07572
1
1.01308
1.0519
0.980399
0.989849
0.982297
1.0342
0.944423
0.933102
1.03159
0.965011
1.0527
0.959409
0.984981
1.04129
0.980122
1.02338
1.053
1.03521
1.08155
0.938026
1.02638
1
1
1.02315
1
1.02781
1
1.03379
1.02651
1.0247
1.02714
1.02238
1.10489
0.981687
1
1.05495
0.988017
0.986026
1.0354
1.09945
1.05771
1.04104
1.01655
1
1.02936
1.01989
1.00788
1.01648
1.03822
0.968677
0.956092
1.09684
0.969926
1.04147
1.03755
1.02041
1.04286
0.990623
1.01695
1.00524
1
1.09737
1.04037
0.991741
0.987119
1.01486
1.00669
1.012
0.968601
0.979966
1.02442
1.01859
0.984923
1
1.03912
1.02827
0.989999
1.03306
0.992677
1.09249
1
1.01224
1.00889
1
1
1
1
1.09366
1.05819
1.00719
1.05932
0.986041
1
1.01281
0.990997
1.0364
1.00858
1.00954
1.02476
1.02347
1.0323
0.983305
1
1
0.998641
1.04673
1
1
0.988345
1.03985
1.00753
1.0879
1.01962
1.0361
1
1.03729
1.03804
1.03702
1.04204
1.04444
1.01953
1
1.00297
0.97892
1
1.08884
0.997215
1.04294
1.04001
1.04344
1.00357
0.977814
0.934763
1.06416
0.936441
1.04827
1.04548
1
1.03719
1.03568
1.04746
1.02437
1
1
1.03705
0.998792
0.978582
0.939414
1.04382
1
1.08197
0.988893
1.05201
0.98064
0.998414
1.04994
1.0509
1.0367
0.941337
1.08289
1.0488
0.979284
0.993812
0.98957
0.979611
1.06647
0.992894
0.9436
0.99085
1
1.00164
1.03403
1.0138
1.00479
0.984108
1.05411
1.08251
0.980242
1.01443
1.00666
1.01463
0.96798
1.03391
0.983796
1.05342
0.985293
0.97933
1.00666
0.975045
1.00398
1.03524
1.04162
1.03651
1.05276
0.979699
1.03044
0.976113
0.963176
0.988053
1.03454
0.988614
1.06949
1
1.01506
1
0.983061
1.07025
1
1
0.97995
1.05771
1
0.988756
1.00581
1.08377
1.02445
1.00002
0.939911
1
0.974182
0.989322
1.06432
0.985947
1.01316
1.06531
1.0133
1.00853
1.04004
1
0.935611
1
1.06096
1.00468
1.05911
1.00803
0.976497
1.05457
1.06162
1.05485
1
0.976452
0.936799
1.05773
1.05421
1.05832
1.03343
1.00639
1.05853
1.01092
1.02671
1.05445
0.973047
1
0.98992
1.08309
0.980611
0.939705
1.00005
1.05434
0.957583
0.97977
0.951668
0.99437
1.05498
1.01067
1.02942
1
1.00848
1.00879
1.0554
1.05857
1
1.0514
1.01414
1.04324
1.05729
1
1.05247
1.05202
1.04212
0.991107
1.06048
1
1
1.05953
1.04802
1.06261
0.942525
1.06145
1.04873
1
1.00878
1.0186
0.941749
1.04511
0.990185
0.951527
0.95037
1.06674
1.04585
1.0564
1.04206
1
1
1
0.990429
1.042
1
1.00059
0.938519
1.06372
1.02863
1.041
1.02792
0.983321
1.04263
1.00604
0.999972
1.04532
0.936386
1.00449
1.03707
1
0.93499
1.03913
0.984252
0.9347
1.04035
1.039
1.0647
1.00337
1.06851
1.0675
1
0.981782
0.946782
1.03935
1
1
1.00811
1
1.0665
0.957117
1.03982
1.04136
1
1.04427
1.04284
1.00688
1.08568
1.01113
0.935371
1.03596
1.01028
0.988854
1.06551
1
0.988313
0.990505
1.01049
1.08652
1.03666
1
0.979739
0.966269
1.04159
1.06939
1.03555
1.04116
1.07037
1.03977
1
1.01439
1.01536
0.963822
1.13317
1.05829
1.08259
1.03345
1.01105
0.951826
1.05521
1
1
1.01412
1.01452
1.03384
1.04701
0.986368
1.01845
1.01038
1.07865
0.987077
1
0.915129
1
0.937972
1.01773
1.03014
1.03106
0.996636
1
1
1.07135
1.07619
1
1
1.02338
0.995986
1.03762
1.07335
1.02229
1.0183
1.02586
1.02585
1.03918
0.989586
1
1.01923
1.02637
0.986746
0.98975
0.957067
1.02509
1.03873
1
1.03814
1
1
1.08502
0.988937
1.00231
1.06808
1.02215
1.08299
0.989201
1
1
1.02331
1.08722
0.989276
0.941825
1.03072
1
1.06866
1.02117
1.02981
1
1
1
1
1.03319
1
0.98801
1.01805
1.0024
1.04322
1.01837
1
1.0326
1
1
1
1.03695
1.01454
1.01579
1
1.03307
1.03556
0.965005
1
1
0.960701
0.98789
1
0.972346
1.03892
1
1
1
1
1
1.01092
1
0.993726
1.03829
1
1.04884
1.03759
1
1.01159
0.932762
1
0.969395
1.03711
1
1
1.04832
1.0532
1
1
1
0.961125
0.960615
0.992224
1.0441
0.944861
1.05127
1
1
0.966699
1.04835
0.999917
0.960615
1.04357
1
0.99656
1
1.05206
1.05857
0.995283
1
0.958331
1
1
0.964815
0.933405
1.0477
0.999417
1
1.0512
1
0.990952
0.971123
1.0487
0.938576
1.00003
0.943835
1
0.955994
0.978365
0.991931
0.986697
1.05394
1.03238
1.04771
1.00001
1.00451
0.963954
1.05955
1.00584
0.999253
1
1
0.964801
0.960768
1.03916
0.945824
1.05342
1.09136
1.05424
1
1.05254
1.08544
0.976285
1.05658
1.09909
1.00396
1.00358
0.980203
0.968886
1.05431
1.06511
0.97614
1.05534
1.00249
1.02879
1.02714
0.959832
1.01084
1.09538
0.97494
0.961448
1
1.02834
1
1
0.960867
1.06202
1.1023
1.01051
1
1
1.0117
1.0039
1
1.09027
1
1.06083
1.0291
1
0.907958
1
1.06109
1
1.00482
0.956687
1
1.09576
0.946628
1.05984
1
0.935952
1
0.936934
1.00667
1.00025
1.06457
1.00522
0.949673
1.06446
1.02045
0.970448
1.061
1.08406
1.09098
1.01023
1.06334
1.06374
0.95303
1.02111
1.04016
0.971987
1
1.04995
1
1.08216
0.990912
1.06675
1.06763
0.948852
0.995868
1.00641
1
1.01557
1.03598
0.990453
1.00149
0.984126
1.08459
1.01158
1.00326
1
1.01305
1.06669
1
1
1
1.0663
1.00324
1.0293
1.01356
1.00554
1
1.0705
1.08062
1.05148
1.0732
1.00903
1
1.0833
0.952812
1.06932
1.0713
1.00993
1.05107
0.999778
1
0.97995
1.07179
0.989754
1.07777
1.06641
0.990318
0.990357
0.990555
1.10009
1.07222
0.990161
0.956516
1
1.04684
1.04133
1.03645
1
1.07354
1
1.0605
1.03618
0.979197
1.06586
1.06252
1.02398
0.984474
1.04823
1.03914
1.05592
1
1.02468
0.985783
0.970498
1.02604
1.07231
1
1.06717
1.04558
1.0595
0.985873
0.987627
1
1.07065
1.04432
1.09137
1
1.05319
0.969782
1.04985
1.06119
0.983721
1.06326
1.05585
1.0154
1.05636
1.06665
1.00469
1.03868
1.04708
1
1.00913
1.02568
1.06013
1.05285
1.04987
0.960102
1.07474
1.04477
1.07119
1.01152
1.01693
1.04068
1
1.03808
1.05663
1.02463
1.04967
1
1.04996
0.99072
1
1.09319
1.05351
1.04668
1.02844
1
1.07541
0.99154
1
1.05048
1.04273
1.04356
1
1
1.02778
1.04725
1
1.04195
1
1.04052
1.03996
0.968808
1
1.04425
1
1.03771
0.960515
1.00004
1.01943
1.04454
1.04116
1.03452
1
1
1
1.03227
1.04408
0.989605
1.03851
1.03542
1.032
1.04425
0.956567
1.00378
1.05145
1.00001
1
1.00325
1.00699
1.00394
1
1.0315
1.05219
1
1.03514
1.01155
0.968163
1.01174
1.04683
1.02381
1.02703
1.04373
1.03626
0.988787
1.03269
1.04059
1.03284
0.96613
1.00787
1.03445
1
1.09206
1.04613
0.990663
1.02441
1.069
0.933624
1.03848
0.989591
0.980333
1
1.02749
1.04645
1.05044
1.03362
1.04696
1
0.933397
1.01904
1.02685
1.04877
1.02511
1
1
1.04573
1.01689
1.04912
1
0.946268
1
1
0.937128
1.04828
1
1.01961
1.06343
1.0309
1
0.985027
1.02817
1.04863
1.01212
1
1.01747
0.933411
0.98762
0.939748
1.05981
0.993772
1.03807
1
1.05074
1.05717
0.941529
1
1
1.00767
0.942161
1.01241
1.05991
1.03731
1.04813
1.05008
1
1.03941
1.05602
1
0.935911
1.0082
1.00406
0.974013
0.932411
1
0.988331
1
1.0505
1.04003
1
1
1.00507
1.02577
1.03133
1.01998
0.939953
1
1
0.978547
0.931944
1.04144
1.02315
1.08204
0.962891
1.04996
0.937339
1.05383
1
1.04076
1
1.05323
1
1
0.934786
1
1.0526
1.00552
1
0.910076
1.04376
1.00377
0.959276
1.06837
1.04096
1
0.962281
1.04832
1
1.05205
1
1.01225
1.01922
1.04298
0.98708
1.03865
1
0.962027
1.0125
1.11071
1.05945
0.946746
1
0.984687
0.946641
1.05722
0.986183
1
1
0.990351
1.03716
1
0.917712
1.04039
1.04629
1.03628
1.05452
0.939703
1.05657
1.00053
1.00827
1.01967
1.00002
0.999941
0.985981
1.04543
1.01916
0.980458
0.98579
1.02617
1
1.05398
1.00734
1
1
0.971658
1
1.05938
1.02368
1.0338
1
1.04873
1.05843
1.02437
0.979549
0.955217
1
1.05661
1.0227
1.08182
0.932769
1.04804
1.02468
1.0271
0.97708
1.02585
0.954986
0.938973
0.939276
0.9852
0.940946
1.0561
1.05323
1
1.00545
1
0.96401
0.96513
1.0715
1.0675
1
1.04218
0.944259
0.98941
0.942129
1.05157
1.0334
0.940686
1
1.03735
0.991641
1.0617
1.03993
1.05048
1.06357
1
1
1
1.03346
1.02493
1.05078
0.963043
1.04132
0.95721
1.06301
1.00494
1.06861
1.02529
1.07238
1.04924
1.03839
0.987512
1
1
0.937574
1
1.05401
1.00526
0.96659
1.02385
1.01417
0.996288
1.02969
1
1.03388
1
1
0.987046
1.05383
1.01559
1.06246
0.981168
1.0527
0.994505
1.09021
0.979964
0.965793
0.920713
1
0.989907
1.05326
1.01205
1.0139
1.02908
1.01234
0.939028
1.01368
1
1.02893
1.02846
0.97114
0.999997
1.02853
0.978177
1.00236
0.988961
1
0.926802
0.935205
1.02024
1.00004
0.991761
1
1
1.01281
1
1
1.02727
1.04268
0.963544
0.979049
0.970464
1.02758
1.02054
1.05627
1
1
0.960258
0.976382
1.01448
1.00552
1.0308
1
1.0245
0.939802
1.01222
0.986015
0.97462
0.937604
1
1.04109
1.02761
1.02363
1.05562
0.998792
1
1
1.08259
1.02134
1.05744
1.02262
1.03134
1.02931
1.00495
0.998246
1
1.01954
1.01566
1.0567
1
1.01139
0.980955
0.955752
1
0.997752
1.03256
0.940505
0.985254
0.957553
1.03013
1.05179
1
1.04156
1.02301
1.05361
1.0381
1.00837
0.950961
0.937504
1.01882
1.02863
1.04058
0.973867
1.0273
1
1.03465
1
0.956196
1
1.06733
1.03215
0.938965
1
1.00881
1.05829
0.982914
1
1.05084
0.981982
1
0.984371
0.973313
1.02641
0.980687
1.03384
0.992234
0.955729
1.05779
1.0219
1.02551
0.954187
0.977778
1
1.03295
0.991215
0.994956
0.987465
0.990342
1
0.939051
1.03502
1.00205
1.00001
0.997186
0.976812
1
1.03458
1.01061
1.03576
1.02897
0.977794
0.979996
0.981049
1.01204
1.02876
0.998864
0.984682
1.04071
1.03396
0.998847
0.96525
1
0.976115
1.04154
1
1.02326
1
0.973782
1.00293
1
1.03497
1.02886
1
1.04382
1
0.99417
1.00408
1.0395
1.03817
1
0.938056
1
1.04505
1.09685
1.01629
1
1.02373
1.05678
1.02927
1.03692
1.00258
0.961678
0.989948
1.00262
1
1.07408
0.980399
1
0.975203
1.03906
0.961464
1.01647
1.0671
0.93733
1.06148
0.977411
1
1.03785
1.05819
1.04428
1.0256
0.997492
1
1.05016
1.00001
0.980153
1
1.06086
1.02912
0.973197
1.00006
1.03212
1.03839
1.05738
1
1.05106
1.09503
1.05807
1.01902
0.969762
1.04934
0.983966
1.02546
1.06942
1
1
0.983517
1.00166
1.04736
1.00495
1.05578
0.98455
0.974382
1.05179
0.961825
1
0.979175
0.997214
1.05849
1
0.983736
0.977963
0.935833
1.02568
1.05846
1
1
0.988897
0.942975
1.04801
0.908842
1.04178
1.01345
1.04844
0.936175
1.07724
1.01247
1.06011
1.06962
0.936228
1.00703
1
0.977394
1.08961
1.05756
1
0.975554
1.00041
0.944929
1.04978
1.03756
1.04205
1.01888
1.04285
0.962168
1.02277
1.06454
0.991862
1.06861
1.06671
1.01318
1.06869
1.06278
1.03763
1
0.979656
1.06033
1.05498
1
0.979961
1.02629
1.02137
1.06409
1.02023
1.04338
0.93846
1.02697
1.01953
1
1.02756
1.03954
1
1.04523
1.02112
0.978214
0.99003
1.0222
1
0.990215
0.973674
1.03016
1.02637
1.0047
1.03566
1.0477
1.0234
1.0227
1
1.07438
0.973148
0.992776
1.03337
1.00513
1.03104
1.0495
1.08741
1
1.02931
1.05232
1.06703
1
1.06571
1.07046
0.990213
1.06206
1
1.05906
1.03722
1.02283
1
1.04895
1.00447
1.0729
1.03895
1.02143
1.0425
0.939191
1.03414
1.05156
1
1
1.06388
1.05624
1.0427
0.979439
1.03734
0.972653
0.961323
1.00939
1.00386
1.00477
0.968433
0.98846
1.03033
1.03801
1.04462
0.973206
0.966614
0.989076
1.04598
1.00369
1.01333
1.07182
1.04703
1
1.00467
1.02059
1.02047
1.04553
1.0535
0.97925
1.05249
1.00399
1.07398
1.04898
1.02828
1.07932
1
1.04464
1.0168
0.979645
0.933855
1.00474
1
0.959461
0.931074
1.04004
0.928914
0.958709
1.01714
1.06509
1.03499
1.05095
0.97388
1.08617
1.01785
0.966705
1.03861
0.944819
1
1.07703
1.05558
1.03811
1.08836
1.01488
1
1
0.974048
1.02207
0.946703
1
0.973537
0.943454
1.03897
1.03766
1.00449
0.979608
1.03624
1.05303
1.03918
1.04264
1
0.979518
1.01559
1.03649
1.07799
1
1
1.00981
1.0273
1.00001
1.06611
1.04022
0.999626
1.01844
1.06595
1
1
0.998289
0.967074
0.973017
0.953464
0.994701
0.971291
1.01986
1.05502
1
1.03773
1.04709
1
0.944447
0.994789
1.04374
1.01272
1
0.962333
0.943504
0.994323
1.01367
0.919079
1.03553
1.00283
1.0085
1.02412
1.01929
0.960996
0.96724
1.03657
1
1.00993
1.02788
1.03575
1.05714
0.964314
0.968239
0.966798
1.00201
1
1.02281
1
1.04455
1.05473
0.920653
0.960737
0.961314
0.966785
1
0.994772
1
0.939983
0.961845
1.00154
0.966673
1.03972
0.965404
1.0649
1.01767
1.095
1
1.0144
0.96619
0.972535
0.962923
1.06552
1.06404
1
1.03483
0.967117
1.07548
1
0.976045
1
1.05925
0.994712
1.01832
1.00845
1
0.920311
0.988262
0.966037
1.0342
1
1
0.999334
1.01328
1.02996
1.00356
1.00488
1.05851
1.05358
1.0646
1.00467
1.02432
0.932543
0.972116
1.05413
1.0587
0.999572
1
0.971486
0.973133
1.00613
1.06043
0.960826
1
1.00949
1
1.00728
1.00575
1.01132
0.985901
0.960364
0.920251
1.05185
1
1
0.941004
1
0.96261
1.01191
1.05897
1
1.01256
1.0139
1
1
0.960496
1.03617
0.96094
1.05192
1.03201
0.921102
0.977679
1.04281
0.963469
1.00969
1.03806
1.08642
1
1.0241
1.04621
1.01102
1
1.09673
0.947689
1.05126
1.02744
1
1.01106
1.05487
1.0281
1.07191
1.03088
1
0.996385
1
1
1.03268
1.01591
0.97478
1.0476
1.00002
1.01567
0.981971
1
0.968348
1.04106
1
1
1.06215
0.992431
0.919854
1.07353
1
1.03328
0.992788
1.05125
1
1.06356
1.00466
1.05486
1.05691
0.995951
1
1.01378
0.94603
1.04033
1.01509
1
1.03688
1.06178
0.977132
1.02418
1.03771
1.04889
0.992575
0.985593
1.00871
0.982385
1.08611
1.01914
1
1
1.07379
1.08897
1.02648
1
1.01257
1.00873
1.05448
1.00884
0.999999
1.05424
0.961055
1
1.01058
0.985129
1.03855
1
1.04036
1.0298
1
0.942863
1
1.03875
0.980008
1
1.01825
0.990092
1.0326
1.0031
1
1.03839
0.939441
1.02041
0.990309
0.968233
1.0093
1
1.01847
1.04023
1.03904
1.06855
1
0.942011
1
1.02284
1.04249
1.0987
1
0.960981
1
1.03614
1
0.997403
1.03767
1.00489
0.939618
1
1.04797
0.935184
0.990807
1.0653
1.04487
1.0625
0.999423
1.02219
0.980038
1
1
1.00796
1.03951
1.02506
1.0191
1
1.08376
1.04067
1.00623
0.980709
1.01178
1.06513
1
1.02705
1
0.990014
1.06557
1.06016
1.05964
1.07558
0.966005
1.04754
1.09534
1.04173
1.08496
1.06451
1.04919
1.04514
0.995598
0.990679
1.00358
0.960283
1.04941
0.989349
1
1.02573
1.00569
1
1.03855
1.05975
1.04411
1.05012
1.07191
1.02973
1.00697
0.979867
1.00244
1.0586
0.986421
0.996033
0.915243
1.07969
1.06084
1.06641
0.988471
1
0.953188
1.01594
0.94009
1.03816
1.01855
1.00549
1.04683
1.05547
1.00241
0.955504
1.0392
1
1.02934
1.08044
1.00058
1.05285
1
1
1.04326
0.958194
1.05675
1.06349
1.01528
0.957673
1.03287
1.0219
1.0599
1.00856
1.04582
1.04521
1.02981
1.04933
0.956845
1.027
1
0.983646
0.977172
0.980882
0.952788
1.06304
1.02239
0.996951
1.03657
1
0.992185
1.05505
1.01608
1.03168
1.00401
1.04577
0.979196
0.951152
0.958524
1.05839
1.03347
1.00518
1.03609
1.02123
1.0522
1.09746
1.03222
1
1.01071
1.04623
0.937609
1.05387
1.03562
1.00881
0.935862
1.00451
1.02905
0.974768
0.979765
1.0197
0.971366
1.02426
0.934749
1.05485
0.936542
1.0512
1
1.09843
1
1.02618
1
1
1
0.999999
1.07323
1.03544
1.05732
1.03128
1.05636
1.00722
1.02173
1.02138
1
1
1.03289
1.03586
1.05436
1
0.986056
1.01834
1.0358
1.03897
1
0.935871
0.999998
0.958747
0.935162
1.05536
0.982913
1
1.03718
0.978567
1.05125
0.948282
1
1.05681
1.05072
0.961136
1.00598
1.03795
0.93654
1.05177
0.951685
0.999293
1.05677
0.95057
0.956251
0.977948
0.946763
1.05333
1
1.04199
0.95959
1.01989
1.06028
1
1.04151
1.04212
1.01693
1.05006
0.944899
0.959999
1
1.0729
0.943713
0.950874
0.998614
1.04858
1.04653
1.04876
1
1.05224
1
1.047
1
1.0412
1.01478
0.940993
0.973266
1
1
1
1.04813
1.09391
1.04439
1
1
1.04385
1.01703
1
1.08837
0.956969
1.02425
1.00286
0.980002
0.982814
1.03972
1.01323
1.04515
1.04941
1
1.08843
0.975109
1.03525
1
0.978101
1
0.957228
1.04973
0.954044
0.994781
1.05178
1.0071
1.05016
1
1.00118
0.978614
1.05973
1.01114
1
0.987037
1.04657
1
1.06616
0.991933
0.968788
1.05033
1.07492
0.97779
0.957237
1.07055
0.982207
1
1.04431
1
1.00157
1.0361
1
1
1
1.03066
0.982662
0.964933
1.06689
1.06328
1.04788
0.989836
0.999147
0.964238
1.05511
1
0.988722
0.961847
1.05303
0.963361
1.02959
0.996087
1.04808
1.04716
0.974996
1.00311
0.967671
1.00748
1.00518
1
1.02107
1.03701
0.963805
0.974444
1.05192
0.97279
1
1
1.05241
1.02715
0.978115
0.950381
1.02977
1.05057
1
1.03749
1.04558
0.987856
0.995971
1.01226
1.05409
1
0.982044
1.04976
1.00433
0.957061
0.972677
1.05296
1.04716
1.07823
1
1
1.04883
1
1
1.04158
1
1.04801
1.04632
1.00123
1
0.988285
1
0.979042
0.968051
1
1.00063
0.986464
0.994492
1.09329
0.993347
1.04485
1.01382
1.05591
1.01003
1.05154
1.04603
1
1.06071
0.975858
1.08839
1.03142
1
1.06188
1.06249
0.987526
1.01237
1.03318
1.00219
0.9392
0.965323
0.995386
0.980409
1.04218
1
1.00117
1
0.992895
0.963979
1
1
1
0.95755
1
0.987188
0.953847
1.00338
0.93801
1.06851
0.991561
1.02033
1.00001
1.04519
1.05067
0.968919
1
1.05866
1.08416
1
1
1
1.03277
1.08945
1.03895
1
1
0.991259
1
0.962649
0.99974
1.05936
0.999392
1.01903
0.964993
1.0712
1.05444
1.06642
1
1
1.00847
1.05794
0.947286
1
1.0781
1.07384
1.05895
0.957353
1.06091
1.01398
1.03025
1
1.04981
0.998589
1.03329
1.00502
0.975608
1.05599
1.03688
1
1
1.0571
0.93688
1.0415
1
1.04134
1.03514
1.07831
1
1.08738
1.0289
1
1
1.03549
1.05369
0.993018
1.06496
1
1.072
1.05285
1.05428
1.00326
1.07606
0.956258
1.03001
1
1.0661
0.958524
1.0779
0.969868
0.996285
0.997672
0.957527
0.995029
1.00166
1.02629
1.02613
1.08267
1.02196
0.942917
0.994012
0.956714
1.03414
1
1.07545
1.05117
1.04977
1
1
0.95634
1.07873
1.07203
0.957495
1.02662
0.954631
1
1
1.03375