/*--------------------------------*- C++ -*----------------------------------*\
  =========                 |
  \\      /  F ield         | OpenFOAM: The Open Source CFD Toolbox
   \\    /   O peration     | Website:  https://openfoam.org
    \\  /    A nd           | Version:  12
     \\/     M anipulation  |
\*---------------------------------------------------------------------------*/
FoamFile
{
    format      ascii;
    class       volScalarField;
    location    "5.7";
    object      rho;
}
// * * * * * * * * * * * * * * * * * * * * * * * * * * * * * * * * * * * * * //

dimensions      [1 -3 0 0 0 0 0];

internalField   nonuniform List<scalar> 
9801
(
1.07174
1.07299
1.07457
1.07787
1.08306
1.09234
1.10025
1.10549
1.10967
1.11323
1.11651
1.11708
1.11794
1.12074
1.12492
1.1326
1.14302
1.15048
1.15539
1.1594
1.16305
1.16419
1.16324
1.16518
1.16874
1.17466
1.18573
1.19602
1.20265
1.20739
1.21152
1.21436
1.21268
1.21307
1.21621
1.22086
1.23006
1.24242
1.25101
1.25711
1.26183
1.26563
1.26464
1.26362
1.26612
1.27066
1.27824
1.29137
1.30242
1.30911
1.31427
1.31865
1.31687
1.315
1.31791
1.32257
1.33051
1.34496
1.35846
1.3667
1.37284
1.37706
1.37403
1.3692
1.37174
1.37754
1.38648
1.40395
1.42212
1.4325
1.43931
1.44542
1.44209
1.43261
1.43381
1.44063
1.45177
1.47549
1.49896
1.51297
1.52271
1.53086
1.52831
1.51393
1.51391
1.52537
1.54543
1.58442
1.61865
1.64122
1.66011
1.67874
1.67977
1.67096
1.68412
1.72992
1.82766
2.63597
5.86744
1.07735
1.07884
1.07972
1.08244
1.08724
1.09743
1.10627
1.11183
1.11601
1.11955
1.12248
1.12326
1.124
1.12636
1.12978
1.13689
1.14797
1.15568
1.16066
1.16462
1.168
1.16938
1.16899
1.17101
1.17445
1.17966
1.19062
1.20108
1.20746
1.21195
1.21577
1.21808
1.21699
1.21777
1.22091
1.22522
1.23431
1.2473
1.256
1.26171
1.26609
1.26932
1.26798
1.26702
1.26956
1.27383
1.2811
1.29518
1.30682
1.31363
1.31876
1.3228
1.32112
1.3187
1.32091
1.32516
1.33203
1.34669
1.36141
1.37019
1.37638
1.38089
1.37899
1.37386
1.37529
1.38031
1.38776
1.40459
1.42335
1.43409
1.44112
1.44747
1.44614
1.43731
1.43702
1.443
1.45225
1.47348
1.4978
1.51313
1.52366
1.53273
1.53303
1.51865
1.5162
1.52616
1.54139
1.57434
1.60883
1.63274
1.65273
1.67237
1.67544
1.66484
1.66706
1.69648
1.74432
2.52125
5.85215
1.07693
1.07769
1.07844
1.08128
1.08609
1.09681
1.10651
1.11238
1.11662
1.12014
1.12305
1.12404
1.12394
1.12563
1.12871
1.13526
1.14675
1.15494
1.16009
1.16419
1.16778
1.16997
1.17037
1.17201
1.17493
1.17918
1.18922
1.19969
1.20601
1.21054
1.2145
1.21722
1.21685
1.21781
1.22089
1.22503
1.23359
1.24647
1.25486
1.26016
1.26432
1.26742
1.26624
1.26564
1.26846
1.27284
1.27993
1.29426
1.30611
1.3128
1.3178
1.32177
1.32027
1.31693
1.31878
1.32313
1.32951
1.34376
1.3597
1.36901
1.37522
1.3801
1.38012
1.37391
1.37357
1.37803
1.3843
1.39799
1.41827
1.43072
1.43833
1.44504
1.44645
1.4377
1.43533
1.44033
1.44806
1.46328
1.48979
1.50836
1.51943
1.52852
1.53214
1.51875
1.51221
1.52019
1.53297
1.55679
1.59431
1.62334
1.64464
1.66445
1.67117
1.65938
1.66161
1.68484
1.71202
2.45102
5.8009
1.07735
1.07835
1.07988
1.08271
1.08672
1.09702
1.10784
1.11375
1.11767
1.12084
1.12318
1.12336
1.12349
1.12566
1.12887
1.1349
1.14679
1.15572
1.16094
1.16495
1.16844
1.17053
1.17018
1.17112
1.17389
1.1779
1.18732
1.19884
1.20577
1.21049
1.21454
1.21755
1.21734
1.21775
1.2204
1.22422
1.2314
1.24425
1.25329
1.25871
1.26299
1.2665
1.26593
1.26515
1.26783
1.27206
1.27814
1.29164
1.30405
1.31089
1.3158
1.3198
1.31923
1.31547
1.31695
1.32136
1.32709
1.33961
1.35683
1.367
1.37312
1.37789
1.37912
1.37213
1.36996
1.37387
1.37993
1.39083
1.41225
1.42728
1.43526
1.44179
1.44541
1.43743
1.43074
1.43409
1.44161
1.45265
1.47758
1.50049
1.5129
1.52198
1.52871
1.52031
1.50823
1.51177
1.52368
1.54
1.57112
1.60278
1.62586
1.64634
1.66133
1.65526
1.64654
1.65402
1.66349
2.4089
5.77285
1.07711
1.07924
1.08137
1.08443
1.08846
1.09821
1.1083
1.11385
1.1175
1.12043
1.12233
1.12252
1.12332
1.12579
1.12912
1.1351
1.14704
1.15612
1.16128
1.16515
1.16838
1.16986
1.1689
1.16975
1.17259
1.17658
1.18562
1.19818
1.20579
1.21062
1.21458
1.21758
1.21683
1.21593
1.21811
1.22178
1.22788
1.24108
1.25196
1.25807
1.26258
1.26651
1.26678
1.26449
1.26587
1.26947
1.27424
1.28575
1.29992
1.30807
1.31343
1.31803
1.31975
1.31575
1.3154
1.31892
1.32377
1.33301
1.35032
1.36214
1.36866
1.37377
1.37735
1.37216
1.36726
1.37009
1.37584
1.38419
1.40343
1.4213
1.43033
1.43685
1.44205
1.43796
1.42811
1.42813
1.43485
1.44357
1.46227
1.4894
1.50625
1.51651
1.52535
1.52508
1.5099
1.50504
1.51379
1.52729
1.5511
1.58425
1.61078
1.63187
1.65124
1.65718
1.64701
1.64245
1.63423
2.37619
5.76127
1.078
1.08074
1.08272
1.08585
1.08973
1.0987
1.10793
1.11329
1.11705
1.12009
1.12224
1.12279
1.12377
1.12627
1.12954
1.13516
1.1468
1.15592
1.16105
1.16481
1.16791
1.16916
1.16807
1.16908
1.17202
1.17598
1.18482
1.19781
1.20584
1.21066
1.21447
1.21728
1.21627
1.2146
1.2166
1.22028
1.22614
1.23928
1.25145
1.25799
1.2625
1.26641
1.26759
1.26378
1.26341
1.26647
1.27101
1.281
1.2967
1.30652
1.31242
1.31729
1.32089
1.31752
1.31367
1.3155
1.31974
1.32658
1.3431
1.35794
1.36577
1.37146
1.37662
1.37486
1.36733
1.36742
1.37232
1.37871
1.39344
1.41503
1.42761
1.43482
1.44075
1.441
1.4301
1.42556
1.43007
1.43763
1.44954
1.47564
1.4994
1.51281
1.52257
1.52912
1.51922
1.5058
1.50772
1.51915
1.53573
1.56462
1.59329
1.61585
1.63549
1.65298
1.65367
1.64312
1.62017
2.34201
5.7568
1.07982
1.08272
1.08382
1.08659
1.09003
1.09797
1.10734
1.11309
1.11715
1.12056
1.12336
1.12422
1.1247
1.12694
1.13014
1.13523
1.1461
1.15534
1.16062
1.1645
1.16778
1.16964
1.16873
1.16939
1.17229
1.17616
1.18414
1.19697
1.2053
1.21028
1.2141
1.21714
1.21691
1.21467
1.2162
1.21984
1.22518
1.23753
1.2505
1.25754
1.26219
1.26607
1.268
1.264
1.26186
1.26452
1.269
1.27755
1.29406
1.30614
1.3127
1.31755
1.3215
1.31951
1.31322
1.31277
1.31665
1.32242
1.33668
1.35544
1.36588
1.37204
1.37735
1.37838
1.37045
1.36704
1.37004
1.37544
1.38462
1.40609
1.42505
1.4346
1.44114
1.44533
1.43781
1.42777
1.42764
1.43398
1.44239
1.46083
1.48925
1.50851
1.52021
1.52986
1.53209
1.51693
1.50878
1.5144
1.52661
1.54764
1.57751
1.60219
1.62183
1.63938
1.65042
1.64535
1.61792
2.31197
5.75355
1.08198
1.0848
1.08485
1.08707
1.09013
1.09698
1.10737
1.11407
1.11835
1.12189
1.12495
1.12633
1.12626
1.12799
1.131
1.13536
1.1453
1.15533
1.16112
1.16521
1.16871
1.17131
1.17067
1.17066
1.17317
1.17673
1.18326
1.19582
1.20502
1.21032
1.21444
1.21808
1.21919
1.21665
1.21718
1.22042
1.22483
1.23516
1.24918
1.25724
1.26227
1.26646
1.26942
1.26676
1.26344
1.26517
1.26931
1.2758
1.29113
1.30585
1.31334
1.31828
1.32235
1.32233
1.31532
1.31316
1.31631
1.32148
1.3318
1.35242
1.36696
1.37387
1.37928
1.38239
1.3758
1.3684
1.36855
1.37324
1.37987
1.39546
1.42028
1.43531
1.44314
1.44958
1.44881
1.43494
1.42882
1.4323
1.43982
1.45033
1.47467
1.5008
1.51686
1.52796
1.53728
1.5355
1.51878
1.51417
1.52218
1.53555
1.56001
1.58765
1.6088
1.62563
1.63967
1.64294
1.62366
2.29205
5.75011
1.08412
1.08686
1.08635
1.08822
1.09111
1.09698
1.10804
1.11591
1.12042
1.12388
1.12688
1.12867
1.12855
1.12972
1.13239
1.13601
1.1445
1.15589
1.16266
1.16702
1.17066
1.17366
1.1736
1.17285
1.17468
1.17778
1.18254
1.19433
1.2056
1.21174
1.21612
1.22001
1.22216
1.21977
1.21945
1.22187
1.22544
1.23242
1.24716
1.25789
1.26361
1.26797
1.27168
1.27075
1.26671
1.2676
1.27111
1.27564
1.28644
1.30377
1.31377
1.31917
1.32352
1.3258
1.32007
1.31584
1.31801
1.32287
1.32931
1.34606
1.3658
1.37542
1.38084
1.38466
1.38211
1.37195
1.36925
1.37293
1.37901
1.38823
1.41101
1.43352
1.44465
1.45147
1.45646
1.4492
1.43542
1.43336
1.4384
1.44634
1.46084
1.48891
1.51172
1.52573
1.5364
1.54379
1.53721
1.5222
1.52086
1.52963
1.54471
1.57119
1.59598
1.61328
1.62582
1.63362
1.62894
2.28376
5.74512
1.08638
1.08922
1.08869
1.09046
1.09324
1.09809
1.10891
1.11798
1.1228
1.12628
1.12933
1.13156
1.13153
1.13212
1.13445
1.13768
1.14423
1.15649
1.16481
1.16948
1.17311
1.17626
1.17714
1.17566
1.17671
1.17955
1.18339
1.19301
1.20651
1.21423
1.21883
1.2227
1.22563
1.22398
1.22195
1.22335
1.22654
1.2313
1.24416
1.25855
1.2661
1.27087
1.27496
1.27624
1.27191
1.27063
1.27267
1.27621
1.28242
1.29901
1.3141
1.32148
1.32637
1.33038
1.32789
1.32184
1.32201
1.32518
1.32971
1.33836
1.35921
1.37487
1.38217
1.38709
1.39
1.38209
1.37436
1.37557
1.38028
1.38612
1.39853
1.42461
1.44278
1.45176
1.45838
1.46215
1.45035
1.43847
1.43912
1.44558
1.45429
1.47308
1.50071
1.51984
1.53236
1.54289
1.54929
1.54055
1.52638
1.52669
1.53555
1.55209
1.57877
1.60032
1.61382
1.62148
1.62918
2.28895
5.73938
1.0891
1.09247
1.09187
1.09351
1.09612
1.0998
1.1092
1.11966
1.12534
1.12912
1.13236
1.13507
1.13532
1.13509
1.13705
1.14007
1.14483
1.15647
1.16673
1.17209
1.17583
1.17911
1.18094
1.17917
1.17934
1.18204
1.18568
1.19257
1.20674
1.21667
1.22184
1.2256
1.22881
1.22839
1.22475
1.22534
1.22846
1.23253
1.24173
1.25837
1.26867
1.27415
1.27829
1.28125
1.27766
1.27307
1.27364
1.2769
1.28165
1.29372
1.31315
1.32414
1.3301
1.33463
1.33612
1.32908
1.32474
1.32559
1.32898
1.33409
1.34865
1.37152
1.38415
1.391
1.39615
1.39627
1.38481
1.37907
1.38047
1.38474
1.39124
1.40982
1.4364
1.45138
1.45943
1.46594
1.46695
1.4533
1.44417
1.44605
1.4524
1.46191
1.48424
1.51044
1.52768
1.53965
1.54986
1.55373
1.54266
1.52975
1.53045
1.53891
1.557
1.58285
1.60113
1.60985
1.62239
2.3042
5.73373
1.09267
1.09672
1.09591
1.09678
1.09893
1.10175
1.10873
1.1208
1.12816
1.13249
1.13595
1.139
1.13992
1.13874
1.1399
1.14259
1.14619
1.1556
1.1679
1.17463
1.17876
1.18226
1.18495
1.1838
1.1829
1.18515
1.18853
1.19308
1.20498
1.21783
1.22429
1.22834
1.2318
1.23296
1.22911
1.22837
1.23121
1.23507
1.24078
1.25589
1.27024
1.27709
1.28141
1.28475
1.2834
1.2768
1.2758
1.27893
1.28328
1.29067
1.30952
1.326
1.33343
1.33832
1.34162
1.33697
1.32772
1.32602
1.32887
1.33348
1.34189
1.36439
1.38527
1.39439
1.40014
1.40491
1.39838
1.38463
1.38116
1.38444
1.38996
1.3987
1.42225
1.44689
1.45944
1.4671
1.47386
1.47218
1.45595
1.44825
1.45155
1.45869
1.47006
1.49464
1.51853
1.534
1.54547
1.55503
1.55758
1.54452
1.53176
1.5323
1.53986
1.55859
1.58291
1.59648
1.61226
2.32525
5.72718
1.09673
1.10134
1.10023
1.09948
1.1009
1.10365
1.10905
1.12166
1.13121
1.13614
1.13975
1.14292
1.14464
1.14284
1.14271
1.14484
1.14796
1.15464
1.16813
1.1772
1.18206
1.18581
1.18913
1.18948
1.18738
1.18837
1.191
1.19433
1.20207
1.217
1.22622
1.23118
1.23509
1.23802
1.23553
1.23279
1.2345
1.23778
1.24165
1.2513
1.26854
1.27829
1.28334
1.28743
1.28948
1.2837
1.27997
1.28223
1.28621
1.29073
1.30225
1.32279
1.33421
1.33975
1.34379
1.34496
1.33563
1.32907
1.33088
1.33597
1.34154
1.35405
1.37908
1.39476
1.40214
1.40678
1.40919
1.39856
1.38656
1.3859
1.3903
1.39667
1.40875
1.43576
1.45732
1.46793
1.47473
1.47944
1.47435
1.45895
1.4536
1.45761
1.46507
1.47884
1.50468
1.52632
1.54021
1.55074
1.55927
1.56011
1.54549
1.53235
1.53205
1.5386
1.55814
1.57755
1.59722
2.3479
5.71969
1.10056
1.10535
1.1037
1.10166
1.1031
1.106
1.11074
1.12254
1.13392
1.13962
1.1433
1.14644
1.14868
1.14701
1.14541
1.14703
1.15001
1.15481
1.16748
1.17955
1.18561
1.18959
1.19307
1.19497
1.19208
1.19072
1.19242
1.19557
1.20064
1.21443
1.22795
1.23457
1.23873
1.24244
1.24285
1.23815
1.23727
1.23927
1.24253
1.24782
1.26318
1.27872
1.28613
1.29069
1.29462
1.29333
1.28645
1.28543
1.28774
1.29121
1.29649
1.31314
1.33218
1.34113
1.34668
1.35127
1.34947
1.33895
1.33623
1.33878
1.34254
1.34769
1.36352
1.38766
1.40043
1.4071
1.41267
1.41429
1.40179
1.39238
1.39377
1.39863
1.40451
1.41759
1.44481
1.46329
1.47247
1.47943
1.48507
1.47905
1.46358
1.45941
1.46393
1.47175
1.4874
1.5128
1.53216
1.5449
1.55494
1.5625
1.56241
1.54654
1.53199
1.53017
1.53597
1.55301
1.57768
2.36491
5.711
1.10393
1.1084
1.10658
1.10493
1.10629
1.10906
1.11307
1.12332
1.13575
1.14245
1.14634
1.14949
1.1521
1.15133
1.14869
1.14971
1.15253
1.15635
1.16637
1.18094
1.18887
1.1931
1.19649
1.19916
1.19699
1.19337
1.19437
1.19734
1.20122
1.21121
1.22797
1.23741
1.24233
1.24611
1.24878
1.24465
1.2399
1.24054
1.24343
1.24742
1.25729
1.2767
1.28868
1.29444
1.29854
1.3011
1.29502
1.28842
1.28822
1.29073
1.29492
1.30373
1.32564
1.3426
1.35043
1.35592
1.35948
1.35331
1.34267
1.34
1.34129
1.34519
1.35197
1.37292
1.39689
1.40861
1.41524
1.42099
1.42075
1.40686
1.39857
1.39895
1.40238
1.40839
1.42514
1.45309
1.47051
1.47988
1.4869
1.49115
1.48369
1.46914
1.46512
1.4691
1.47636
1.49361
1.51931
1.53767
1.54965
1.5589
1.56532
1.56432
1.54754
1.53006
1.5262
1.52926
1.55504
2.36955
5.70115
1.10592
1.11081
1.11047
1.10912
1.11027
1.11283
1.11592
1.12331
1.13646
1.14478
1.14924
1.15264
1.15559
1.15593
1.15271
1.15285
1.15539
1.15872
1.16544
1.18026
1.19078
1.19586
1.19943
1.20251
1.20229
1.19748
1.19697
1.19958
1.20309
1.20906
1.22491
1.2388
1.24518
1.24916
1.25255
1.25178
1.24461
1.24279
1.24532
1.24902
1.25442
1.27055
1.28888
1.29717
1.30175
1.30545
1.30441
1.2946
1.29023
1.29209
1.29603
1.30133
1.31582
1.33993
1.35323
1.35936
1.36402
1.36564
1.35349
1.34264
1.34211
1.3457
1.35073
1.36011
1.38583
1.40793
1.41782
1.4236
1.42865
1.4249
1.40811
1.40029
1.40241
1.40757
1.41476
1.43433
1.46163
1.4774
1.48622
1.49348
1.49791
1.48889
1.47269
1.46838
1.47273
1.48057
1.49951
1.52502
1.54249
1.55367
1.56198
1.56696
1.56489
1.54784
1.52804
1.51663
1.53058
2.35575
5.6923
1.10844
1.11367
1.11469
1.11346
1.11396
1.1161
1.11882
1.12327
1.13575
1.14694
1.15238
1.15598
1.1591
1.1606
1.15748
1.15638
1.1584
1.16135
1.16536
1.17714
1.1914
1.19846
1.2025
1.20595
1.20776
1.20327
1.20038
1.20212
1.20531
1.20923
1.21979
1.23741
1.24695
1.25183
1.25563
1.25805
1.25232
1.24673
1.24787
1.25121
1.2551
1.26344
1.28365
1.29811
1.30458
1.30873
1.3117
1.3055
1.29586
1.29552
1.29937
1.30379
1.30961
1.32794
1.34952
1.35904
1.36411
1.36818
1.36791
1.35487
1.34702
1.34893
1.35387
1.35941
1.37075
1.39681
1.41513
1.42346
1.42889
1.43247
1.42711
1.41167
1.4059
1.4087
1.41408
1.4226
1.4452
1.47071
1.48454
1.49253
1.4988
1.50151
1.49155
1.4765
1.47284
1.47676
1.48448
1.50408
1.52927
1.54599
1.5561
1.56309
1.56654
1.56359
1.54751
1.52225
1.51379
2.32314
5.68583
1.11145
1.11714
1.11898
1.1178
1.11694
1.11852
1.12129
1.12478
1.13415
1.1481
1.15557
1.15945
1.16258
1.16486
1.16288
1.16011
1.16096
1.16337
1.16658
1.17385
1.19006
1.20083
1.20597
1.20945
1.21227
1.21011
1.20484
1.20487
1.20748
1.21083
1.21628
1.23218
1.2478
1.25482
1.25897
1.26247
1.26132
1.25321
1.25107
1.25328
1.25659
1.26087
1.27362
1.29511
1.30658
1.31231
1.31634
1.31732
1.30753
1.30101
1.30194
1.30454
1.30806
1.31482
1.33623
1.35618
1.36525
1.37136
1.37631
1.37446
1.3606
1.35484
1.3565
1.3597
1.36435
1.37703
1.4031
1.4197
1.42752
1.43341
1.43847
1.4328
1.41783
1.41305
1.4162
1.42155
1.43002
1.45256
1.476
1.48843
1.49606
1.50264
1.50654
1.49686
1.48145
1.47719
1.48059
1.48751
1.50653
1.53112
1.54716
1.55637
1.56219
1.56428
1.56157
1.54182
1.5169
2.28106
5.68067
1.11473
1.12073
1.12272
1.12235
1.12038
1.12154
1.12423
1.12737
1.13304
1.14683
1.15745
1.16246
1.16569
1.16835
1.16845
1.16418
1.16348
1.16588
1.16915
1.17377
1.18663
1.20171
1.20886
1.21283
1.21584
1.21677
1.21132
1.20823
1.20985
1.21305
1.21686
1.22606
1.24507
1.2569
1.26231
1.2659
1.26824
1.2625
1.25525
1.25527
1.25836
1.26216
1.26773
1.28525
1.30544
1.31475
1.32003
1.32393
1.32211
1.31036
1.30386
1.3043
1.30733
1.31168
1.32196
1.34732
1.36647
1.37454
1.37969
1.38419
1.37884
1.36408
1.35776
1.3589
1.36272
1.36825
1.38472
1.41201
1.42828
1.43576
1.44135
1.44561
1.43881
1.42391
1.41858
1.42058
1.42515
1.43393
1.45825
1.48194
1.49466
1.50252
1.50886
1.51206
1.5026
1.48644
1.48072
1.48321
1.4891
1.50669
1.53113
1.54698
1.5555
1.55987
1.56148
1.5553
1.53874
2.25333
5.67571
1.11714
1.12391
1.12606
1.12752
1.12552
1.12529
1.12742
1.13027
1.13379
1.1435
1.15771
1.16506
1.16884
1.17146
1.17307
1.17
1.16746
1.16927
1.17249
1.17597
1.18292
1.19879
1.21015
1.21534
1.21881
1.22171
1.21984
1.21354
1.21296
1.21566
1.21918
1.22386
1.23754
1.25573
1.26439
1.26893
1.27236
1.27259
1.2636
1.25896
1.26072
1.26424
1.26814
1.27554
1.29636
1.31433
1.32231
1.32735
1.33114
1.32566
1.31151
1.30698
1.30953
1.31394
1.31929
1.33266
1.35837
1.37403
1.38123
1.38571
1.38877
1.38156
1.36634
1.36161
1.3646
1.36967
1.37633
1.39477
1.42082
1.43508
1.44239
1.44793
1.4513
1.4431
1.42715
1.42157
1.42451
1.42988
1.4402
1.46482
1.48783
1.50026
1.50799
1.5141
1.51709
1.50773
1.49051
1.48321
1.48474
1.48993
1.5062
1.53022
1.54599
1.55334
1.55692
1.55488
1.55747
2.2493
5.66991
1.11836
1.12688
1.12956
1.13239
1.13253
1.13023
1.13104
1.13353
1.13641
1.14101
1.15375
1.16518
1.17038
1.17395
1.17725
1.1782
1.17435
1.17381
1.17596
1.17882
1.18212
1.19183
1.20848
1.21738
1.22178
1.22518
1.22729
1.22205
1.21762
1.21891
1.22192
1.22524
1.23076
1.24787
1.26443
1.27173
1.27602
1.27927
1.27591
1.26631
1.26418
1.2665
1.26986
1.27383
1.2835
1.30617
1.32152
1.32805
1.33232
1.33541
1.32887
1.31711
1.31514
1.31809
1.32193
1.32662
1.34082
1.3648
1.37827
1.38452
1.3893
1.39308
1.38612
1.37319
1.37033
1.37351
1.37801
1.38425
1.40286
1.42718
1.43996
1.44651
1.45159
1.45494
1.44779
1.43356
1.42859
1.43099
1.43585
1.44593
1.47031
1.49289
1.50492
1.51211
1.51769
1.52049
1.51242
1.49518
1.48615
1.48621
1.49015
1.50478
1.52813
1.54309
1.55005
1.54951
1.56403
2.26271
5.66294
1.11812
1.13027
1.13367
1.13693
1.13963
1.13801
1.1359
1.13679
1.13866
1.14093
1.14731
1.16259
1.17281
1.17786
1.18143
1.18468
1.18374
1.1791
1.17846
1.18003
1.18269
1.18715
1.20147
1.21735
1.22465
1.22867
1.23218
1.23246
1.22551
1.22274
1.22402
1.22644
1.22989
1.23797
1.2584
1.27302
1.27938
1.2833
1.28583
1.27919
1.27021
1.2692
1.27174
1.27502
1.27902
1.29068
1.3141
1.32814
1.33462
1.33971
1.34255
1.33432
1.32323
1.32108
1.32273
1.32553
1.33051
1.34637
1.37084
1.38457
1.3915
1.39723
1.40083
1.39336
1.38036
1.37658
1.37855
1.38222
1.3882
1.40723
1.43113
1.44392
1.45087
1.457
1.46193
1.45648
1.44146
1.43471
1.43611
1.4405
1.44929
1.47242
1.49503
1.50739
1.51457
1.52037
1.52451
1.51896
1.5008
1.48862
1.48698
1.48954
1.50155
1.52372
1.53857
1.54216
1.56149
2.29031
5.65545
1.11654
1.13328
1.13828
1.14174
1.1449
1.14634
1.14186
1.13859
1.13893
1.14114
1.14492
1.15739
1.17409
1.18202
1.18604
1.1894
1.19153
1.18637
1.18133
1.18161
1.18387
1.18701
1.19404
1.21255
1.22656
1.23277
1.23655
1.23969
1.23631
1.22788
1.2261
1.22822
1.23142
1.23536
1.24655
1.26826
1.28093
1.28695
1.29111
1.29261
1.28367
1.27523
1.27419
1.27584
1.27918
1.28414
1.29953
1.3233
1.3362
1.3422
1.34655
1.34862
1.3398
1.32784
1.32446
1.32658
1.33058
1.33643
1.35473
1.37977
1.39297
1.39923
1.4039
1.40729
1.39972
1.38533
1.37999
1.38165
1.38576
1.39208
1.41226
1.43802
1.45205
1.45894
1.46442
1.46891
1.46382
1.44773
1.43889
1.43927
1.44339
1.45066
1.47261
1.49759
1.51166
1.51921
1.52463
1.52816
1.52424
1.50581
1.49001
1.4858
1.48737
1.49693
1.51841
1.52971
1.55332
2.32171
5.64614
1.11515
1.1349
1.14228
1.14605
1.14913
1.15164
1.14851
1.14139
1.14062
1.14283
1.14615
1.15382
1.17193
1.18463
1.19
1.19332
1.19609
1.19438
1.18624
1.18381
1.18567
1.18869
1.19271
1.20427
1.22472
1.23577
1.24075
1.24413
1.24568
1.23746
1.23026
1.23057
1.23327
1.23646
1.24069
1.25532
1.27794
1.28941
1.29492
1.29909
1.29873
1.28605
1.2772
1.27779
1.28138
1.28537
1.29041
1.30756
1.33081
1.34213
1.34807
1.35308
1.35525
1.34399
1.33141
1.32987
1.33339
1.33779
1.34345
1.36198
1.386
1.39785
1.40412
1.4092
1.4124
1.40436
1.38943
1.38437
1.38683
1.39164
1.39901
1.41976
1.44468
1.45768
1.46461
1.46987
1.4736
1.46893
1.45242
1.44246
1.44259
1.44695
1.45458
1.47528
1.50031
1.51476
1.52214
1.52725
1.53025
1.5275
1.51009
1.49115
1.48399
1.48397
1.49292
1.5095
1.53818
2.34702
5.63462
1.11496
1.13456
1.14506
1.14956
1.15248
1.15489
1.15368
1.14595
1.14374
1.14591
1.14894
1.1535
1.1669
1.18441
1.19265
1.19654
1.19939
1.20085
1.19432
1.18793
1.18842
1.19118
1.19444
1.19973
1.21621
1.23527
1.24371
1.2481
1.25128
1.24975
1.23902
1.23409
1.23494
1.23755
1.2412
1.24711
1.26617
1.28747
1.29681
1.30176
1.3053
1.30293
1.29005
1.28355
1.28431
1.28662
1.2902
1.29647
1.31653
1.33888
1.34929
1.35465
1.35861
1.35995
1.34945
1.33824
1.33662
1.33858
1.34203
1.34814
1.36782
1.39139
1.40312
1.40907
1.41381
1.41755
1.41086
1.39678
1.39204
1.39418
1.39809
1.4042
1.42344
1.44775
1.46088
1.46761
1.47288
1.47741
1.47479
1.46028
1.44993
1.44902
1.45207
1.4575
1.47557
1.50068
1.51583
1.52319
1.52792
1.53094
1.52975
1.51476
1.49331
1.48201
1.4807
1.48476
1.51772
2.35723
5.62099
1.11607
1.13125
1.1459
1.15203
1.15527
1.15783
1.15821
1.15238
1.14878
1.15023
1.15288
1.15579
1.16182
1.17873
1.19296
1.19908
1.20275
1.20576
1.20433
1.19532
1.19233
1.1941
1.19698
1.20037
1.20766
1.22763
1.2443
1.25141
1.25562
1.25822
1.25235
1.24015
1.23723
1.23983
1.2435
1.2474
1.2548
1.27587
1.29467
1.3026
1.30739
1.3116
1.30825
1.2935
1.2867
1.28846
1.29232
1.29655
1.3035
1.32404
1.34492
1.35444
1.35988
1.36491
1.3664
1.35394
1.34151
1.33993
1.3433
1.34768
1.35434
1.37394
1.39708
1.40922
1.41548
1.42071
1.42443
1.41815
1.40312
1.39641
1.39762
1.40178
1.40736
1.42533
1.45066
1.46519
1.47258
1.47841
1.48352
1.48306
1.4687
1.45523
1.45209
1.45477
1.45954
1.47422
1.49906
1.51545
1.5235
1.52819
1.53126
1.53141
1.51999
1.49692
1.48115
1.47171
1.49427
2.34487
5.60713
1.11836
1.12645
1.14316
1.15345
1.15802
1.16097
1.16327
1.16077
1.15495
1.15399
1.15541
1.15776
1.16107
1.17065
1.18983
1.20144
1.20649
1.20975
1.21161
1.20505
1.19705
1.19674
1.19934
1.20255
1.20649
1.21663
1.23821
1.25233
1.25849
1.26245
1.26367
1.25431
1.24427
1.24367
1.2462
1.24923
1.25313
1.26236
1.2849
1.30187
1.30921
1.31345
1.31619
1.31177
1.2988
1.2939
1.29544
1.29829
1.30207
1.30974
1.33194
1.35208
1.36108
1.36583
1.36885
1.3698
1.35967
1.34874
1.34725
1.34991
1.35381
1.36055
1.38045
1.40356
1.41548
1.42148
1.42583
1.42906
1.42405
1.40903
1.40138
1.40242
1.40685
1.41295
1.42963
1.45497
1.47082
1.4784
1.48353
1.48751
1.48775
1.47588
1.46125
1.45586
1.45718
1.46115
1.47297
1.49677
1.51514
1.52439
1.52889
1.53108
1.5311
1.52296
1.50149
1.47673
1.47843
2.30839
5.59426
1.12117
1.12569
1.13719
1.15306
1.16073
1.16463
1.16721
1.16783
1.16174
1.15699
1.15798
1.16083
1.16385
1.16829
1.18162
1.19989
1.20866
1.21285
1.21532
1.21493
1.20606
1.20126
1.20281
1.20603
1.20945
1.21357
1.2252
1.24641
1.25866
1.26413
1.26805
1.26907
1.25834
1.24884
1.24878
1.25216
1.25591
1.25997
1.26947
1.29142
1.30675
1.31328
1.31772
1.3218
1.31804
1.30451
1.2988
1.3007
1.3047
1.30891
1.31619
1.33698
1.3559
1.3645
1.37009
1.37532
1.37728
1.36684
1.35493
1.35292
1.3562
1.36053
1.36665
1.385
1.40715
1.41862
1.42457
1.42938
1.43393
1.43127
1.41779
1.4096
1.40984
1.41301
1.41764
1.43148
1.45611
1.47247
1.48056
1.48601
1.49105
1.49364
1.48387
1.46757
1.45999
1.46013
1.463
1.47203
1.49418
1.51359
1.52346
1.52775
1.52961
1.52921
1.52398
1.50092
1.48201
2.25934
5.58437
1.12498
1.12873
1.13329
1.14704
1.16054
1.16634
1.16925
1.1713
1.17015
1.16363
1.16231
1.16484
1.16803
1.17107
1.17563
1.18993
1.20672
1.21453
1.21866
1.22159
1.21917
1.20998
1.20758
1.2096
1.21244
1.21536
1.21949
1.23192
1.25269
1.26425
1.26961
1.27334
1.27404
1.26409
1.25647
1.2567
1.25882
1.26126
1.26519
1.27561
1.29747
1.31245
1.31939
1.3236
1.32703
1.32462
1.31288
1.30747
1.30802
1.30977
1.31331
1.32096
1.34272
1.36252
1.3718
1.37682
1.38063
1.38297
1.37446
1.36271
1.35972
1.36156
1.36489
1.36994
1.38639
1.4098
1.42346
1.43066
1.43604
1.44093
1.43997
1.42649
1.41544
1.41355
1.41646
1.42084
1.43124
1.45537
1.4755
1.48559
1.49114
1.49551
1.49803
1.49211
1.4761
1.46505
1.4629
1.46475
1.46985
1.48879
1.50999
1.52121
1.52562
1.52687
1.52724
1.52064
1.50946
2.22783
5.57586
1.12957
1.13194
1.13435
1.13876
1.15294
1.16536
1.17093
1.17424
1.17726
1.17554
1.16999
1.16963
1.17154
1.17367
1.17589
1.18036
1.19612
1.21359
1.2217
1.22574
1.22844
1.22427
1.2153
1.21338
1.2154
1.21818
1.22043
1.22399
1.23659
1.25819
1.27025
1.27601
1.28035
1.28106
1.27051
1.26156
1.26102
1.26393
1.26715
1.27068
1.27988
1.30169
1.31744
1.32492
1.33057
1.33484
1.33188
1.31796
1.31045
1.31159
1.31531
1.3196
1.32641
1.34632
1.36582
1.37532
1.38126
1.38666
1.39013
1.38318
1.37004
1.36431
1.3652
1.36888
1.37407
1.38959
1.41409
1.42946
1.43684
1.44158
1.44547
1.44637
1.43566
1.42243
1.41808
1.42032
1.42476
1.43363
1.45529
1.47665
1.48821
1.49465
1.49932
1.50276
1.49995
1.48413
1.4689
1.46357
1.46433
1.46783
1.48332
1.50567
1.51895
1.52363
1.52532
1.52164
1.53258
2.22786
5.56651
1.13475
1.13393
1.13447
1.13606
1.14148
1.15832
1.17253
1.17954
1.1834
1.18616
1.18259
1.17608
1.17432
1.17488
1.17649
1.17907
1.18437
1.20267
1.22073
1.22906
1.23395
1.23678
1.23174
1.2226
1.21981
1.21972
1.22063
1.22341
1.22799
1.24343
1.26586
1.27738
1.28277
1.28664
1.28742
1.2776
1.26886
1.26745
1.26826
1.27069
1.27487
1.28611
1.30969
1.32544
1.33215
1.33606
1.33934
1.33773
1.32555
1.31883
1.31879
1.31997
1.32299
1.32962
1.3502
1.37211
1.38307
1.38865
1.39323
1.39689
1.39055
1.37549
1.36905
1.37061
1.3746
1.37963
1.39303
1.41652
1.43235
1.44009
1.4458
1.45112
1.4537
1.44447
1.42972
1.42423
1.42533
1.42846
1.43396
1.45269
1.47747
1.49178
1.49843
1.50269
1.5054
1.50399
1.49067
1.47336
1.46524
1.46422
1.46624
1.47847
1.50099
1.51536
1.52126
1.519
1.53912
2.24728
5.55701
1.14135
1.1349
1.13384
1.13532
1.13819
1.14725
1.1691
1.18339
1.18974
1.19322
1.19482
1.18749
1.17872
1.17639
1.17721
1.17939
1.1825
1.18968
1.21147
1.23009
1.23807
1.24294
1.24555
1.23796
1.22499
1.22083
1.22232
1.2251
1.22838
1.23371
1.25116
1.27305
1.28355
1.28914
1.2937
1.29454
1.28231
1.27105
1.27018
1.27316
1.27683
1.28103
1.29188
1.31458
1.32927
1.33643
1.34228
1.34678
1.34521
1.33114
1.32113
1.32087
1.3242
1.32849
1.33602
1.35636
1.37788
1.38849
1.3942
1.39824
1.40109
1.39681
1.38341
1.37607
1.37639
1.37939
1.38367
1.39463
1.41902
1.43796
1.44677
1.45183
1.45594
1.45864
1.45251
1.43715
1.42827
1.42822
1.43202
1.43792
1.45415
1.47782
1.49273
1.4996
1.50355
1.5067
1.50773
1.4981
1.47934
1.46753
1.46462
1.46522
1.47372
1.49476
1.51023
1.51318
1.53724
2.28074
5.54783
1.14821
1.13632
1.13423
1.1363
1.13941
1.14434
1.15991
1.18281
1.19364
1.19846
1.20179
1.20032
1.18724
1.17878
1.17852
1.18083
1.18397
1.18824
1.19929
1.2236
1.2393
1.24573
1.24978
1.25149
1.24099
1.22812
1.2256
1.22721
1.22983
1.23338
1.24033
1.26093
1.2817
1.29076
1.29519
1.29803
1.29773
1.28707
1.27811
1.27732
1.27876
1.28132
1.28564
1.29819
1.32252
1.33762
1.34408
1.3482
1.35128
1.34949
1.33639
1.32779
1.32826
1.3318
1.33581
1.34186
1.35957
1.38065
1.3919
1.39761
1.40244
1.40686
1.40478
1.39098
1.38134
1.38092
1.3847
1.38982
1.39936
1.42018
1.43909
1.4487
1.45428
1.45894
1.46226
1.45986
1.44734
1.43736
1.43559
1.43729
1.44029
1.45023
1.47321
1.49181
1.50083
1.50542
1.50859
1.51065
1.50578
1.48755
1.47065
1.46414
1.46364
1.46836
1.48738
1.4992
1.52798
2.31583
5.53577
1.15584
1.14115
1.137
1.13919
1.14226
1.14633
1.15434
1.17493
1.19344
1.20094
1.20493
1.20681
1.20108
1.18711
1.18236
1.18425
1.18755
1.19143
1.19635
1.20954
1.23251
1.24502
1.2503
1.25387
1.25563
1.24463
1.23203
1.23036
1.23312
1.23676
1.24086
1.24816
1.26803
1.2863
1.29409
1.29857
1.30289
1.30403
1.29243
1.28171
1.28091
1.28403
1.28828
1.29373
1.30603
1.32747
1.3406
1.34678
1.35112
1.35548
1.35587
1.34517
1.33589
1.33461
1.33688
1.34039
1.34551
1.36165
1.38445
1.3973
1.40331
1.40712
1.41019
1.41061
1.40095
1.3913
1.38945
1.39085
1.3935
1.39955
1.41786
1.43981
1.45197
1.45827
1.46364
1.46835
1.4691
1.45776
1.44325
1.43728
1.43823
1.44164
1.44953
1.47026
1.49097
1.50195
1.50738
1.51074
1.51302
1.51113
1.49522
1.47401
1.4629
1.46041
1.46379
1.47639
1.51081
2.33916
5.51992
1.15974
1.15142
1.14329
1.14434
1.14718
1.15058
1.15495
1.16431
1.18441
1.19903
1.20503
1.20878
1.21137
1.2041
1.19208
1.1899
1.19213
1.19486
1.19781
1.20277
1.2176
1.23888
1.24985
1.25475
1.25779
1.25872
1.24868
1.23908
1.23842
1.24061
1.24296
1.24647
1.25423
1.27424
1.29193
1.2999
1.30405
1.30638
1.30689
1.29849
1.29032
1.29009
1.29265
1.29523
1.29879
1.30861
1.32919
1.34453
1.35255
1.35744
1.3617
1.36342
1.35391
1.34258
1.33967
1.3421
1.34618
1.35145
1.36409
1.38513
1.39874
1.40577
1.41178
1.41704
1.41931
1.41085
1.39756
1.39222
1.39392
1.39812
1.40414
1.41907
1.4417
1.4569
1.46406
1.46845
1.47169
1.47335
1.46583
1.45111
1.44313
1.44237
1.44453
1.44919
1.46563
1.48865
1.50275
1.50895
1.51203
1.51387
1.51322
1.50146
1.47899
1.46262
1.45745
1.45496
1.48938
2.33943
5.50139
1.16174
1.16328
1.15426
1.15064
1.1521
1.15483
1.15774
1.16153
1.17117
1.19084
1.20461
1.21071
1.21407
1.21614
1.20811
1.1969
1.19525
1.19786
1.20144
1.20502
1.21002
1.22337
1.24251
1.25306
1.25803
1.2614
1.26357
1.25477
1.24462
1.24338
1.24621
1.24993
1.25384
1.26027
1.27748
1.29438
1.30252
1.30765
1.31252
1.31466
1.30681
1.29679
1.29393
1.29587
1.29929
1.30339
1.31204
1.3321
1.34906
1.35759
1.3626
1.36631
1.36909
1.36348
1.35238
1.34812
1.34866
1.3502
1.35396
1.36445
1.38702
1.40444
1.41269
1.41739
1.42088
1.42395
1.42015
1.40807
1.40133
1.40107
1.40297
1.40658
1.41717
1.43968
1.4566
1.46487
1.47006
1.47492
1.47883
1.47576
1.4611
1.44885
1.44526
1.44654
1.4499
1.46248
1.48536
1.50134
1.50836
1.51153
1.5135
1.51402
1.50715
1.48563
1.46505
1.45134
1.46835
2.31526
5.48324
1.16476
1.17092
1.16894
1.16072
1.15796
1.15923
1.16156
1.16425
1.16788
1.17648
1.19475
1.20792
1.21376
1.21702
1.2195
1.21391
1.20537
1.20439
1.20654
1.20872
1.21078
1.21422
1.22518
1.24439
1.25641
1.26219
1.26581
1.2685
1.26249
1.25387
1.25264
1.25425
1.25578
1.25834
1.26367
1.28006
1.29895
1.30907
1.31433
1.31806
1.32081
1.31546
1.30453
1.30062
1.30236
1.30543
1.3087
1.31446
1.33201
1.35083
1.36117
1.36792
1.37353
1.37733
1.37297
1.35897
1.35095
1.35142
1.35502
1.35954
1.3679
1.38741
1.4051
1.41454
1.42125
1.42734
1.43158
1.42988
1.41677
1.40531
1.40268
1.40511
1.40912
1.41633
1.4365
1.45833
1.47045
1.47625
1.48045
1.48416
1.48373
1.47095
1.45555
1.44896
1.44891
1.45093
1.45774
1.47877
1.49874
1.50842
1.51222
1.5136
1.51384
1.51009
1.49326
1.46441
1.46133
2.26679
5.46764
1.16613
1.17633
1.17856
1.17615
1.16812
1.16529
1.16625
1.16802
1.16951
1.1714
1.17775
1.196
1.21171
1.22006
1.2258
1.22879
1.22416
1.21471
1.21086
1.21098
1.21235
1.21367
1.21639
1.22618
1.24679
1.26125
1.26921
1.27514
1.27819
1.27291
1.26177
1.25672
1.25731
1.25981
1.26268
1.26689
1.28153
1.30158
1.31289
1.32007
1.32577
1.32937
1.32538
1.31362
1.3073
1.3065
1.30734
1.31039
1.31625
1.33477
1.35735
1.3691
1.37464
1.37841
1.38131