/*--------------------------------*- C++ -*----------------------------------*\
  =========                 |
  \\      /  F ield         | OpenFOAM: The Open Source CFD Toolbox
   \\    /   O peration     | Website:  https://openfoam.org
    \\  /    A nd           | Version:  12
     \\/     M anipulation  |
\*---------------------------------------------------------------------------*/
FoamFile
{
    format      ascii;
    class       volVectorField;
    location    "5.7";
    object      U;
}
// * * * * * * * * * * * * * * * * * * * * * * * * * * * * * * * * * * * * * //

dimensions      [0 1 -1 0 0 0 0];

internalField   nonuniform List<vector> 
46253
(
(0.949822 -0.000300159 0)
(0.885172 0.000627292 0)
(0.786106 0.00117634 0)
(0.885293 0.00074827 0)
(0.78723 0.00213812 0)
(0.789495 0.00126778 0)
(1.01454 0.00421328 0)
(0.947952 0.00733125 0)
(0.88883 0.000738489 0)
(0.889589 0.000830802 0)
(0.936701 -0.00498443 0)
(1.12857 -0.0694746 0)
(0.904096 0.000688369 0)
(0.903826 0.000446914 0)
(0.913555 0.00997469 0)
(0.890897 0.000572913 0)
(0.891323 0.000627538 0)
(0.898397 0.000602345 0)
(0.898023 0.000522568 0)
(0.893812 0.00064386 0)
(0.894553 0.000832385 0)
(0.7926 0.00355017 0)
(0.920744 -0.0119124 0)
(0.950891 -0.0027533 0)
(0.899637 -0.0130962 0)
(0.886751 0.00113846 0)
(0.892143 0.000594872 0)
(0.892387 0.000815602 0)
(0.886297 0.000892414 0)
(0.954558 0.00928219 0)
(0.934777 0.0421064 0)
(0.910371 0.000739743 0)
(0.910646 0.000731093 0)
(0.896305 0.000486256 0)
(0.896822 0.000607653 0)
(0.837053 -0.00754133 0)
(0.901953 0.000340985 0)
(0.902424 0.000403694 0)
(1.10828 -0.0389701 0)
(0.933212 -0.0303824 0)
(0.806149 0.0224557 0)
(1.13004 -0.0687566 0)
(0.908205 0.000443726 0)
(0.908866 0.000555351 0)
(1.14002 -0.0951954 0)
(0.899738 0.00048274 0)
(0.900447 0.000517072 0)
(0.906561 0.00377484 0)
(0.913547 0.000645269 0)
(0.914695 0.000669462 0)
(0.917064 0.000784019 0)
(0.917659 0.00051132 0)
(0.801838 0.00213917 0)
(1.02362 0.00724046 0)
(0.769633 0.0113628 0)
(1.09827 -0.0384361 0)
(0.920021 0.000509407 0)
(0.920198 0.000584251 0)
(0.866572 0.0627345 0)
(0.702379 -0.0385421 0)
(0.854563 0.0057199 0)
(0.85061 0.0212304 0)
(0.842241 -0.01219 0)
(0.930779 0.015419 0)
(0.914583 -0.0201385 0)
(0.905717 0.00066683 0)
(0.906362 0.000831693 0)
(0.801803 0.000778092 0)
(1.08668 -0.038072 0)
(1.13822 -0.0935123 0)
(1.02891 -0.00140145 0)
(0.922012 0.000743695 0)
(0.923131 0.000623574 0)
(1.14717 -0.0163222 0)
(0.806629 0.00174901 0)
(0.974334 0.000460329 0)
(0.935764 0.000223643 0)
(0.936363 0.000161402 0)
(0.929464 -0.0206273 0)
(0.911538 0.000536103 0)
(0.911853 0.00072958 0)
(0.92773 0.000519769 0)
(0.799147 0.00239833 0)
(0.92783 0.000615573 0)
(1.05831 -0.00758895 0)
(0.808862 0.00181192 0)
(0.949925 0.000455124 0)
(0.950587 0.000207185 0)
(0.949562 0.00332702 0)
(0.862982 -0.00221068 0)
(0.911827 -0.010642 0)
(1.0134 -0.00562211 0)
(0.812862 0.00121872 0)
(0.919106 0.000209731 0)
(0.930767 -0.0253877 0)
(0.919285 0.000291191 0)
(0.81281 0.0013384 0)
(0.924071 -0.0118723 0)
(0.866762 0.062845 0)
(0.866003 0.00489297 0)
(0.943705 -0.00615873 0)
(0.815328 0.00100636 0)
(0.812209 0.000618817 0)
(0.93806 0.0418308 0)
(0.776068 0.00670261 0)
(0.91327 -0.0311724 0)
(1.12463 -0.0683495 0)
(0.966808 0.000206399 0)
(0.967545 0.000110855 0)
(1.10692 -0.057925 0)
(1.13115 -0.0321447 0)
(0.925611 0.000107447 0)
(0.926485 0.000160664 0)
(0.917963 0.0177325 0)
(0.926147 0.0139582 0)
(0.933819 0.00159437 0)
(1.15413 -0.0913452 0)
(0.699168 -0.0489376 0)
(0.771122 0.0631527 0)
(1.07376 -0.0326766 0)
(0.935024 0.0151335 0)
(0.792398 0.0018536 0)
(0.928417 0.000350534 0)
(0.928694 0.000527392 0)
(0.822332 0.000524148 0)
(0.761354 0.0569792 0)
(0.851352 0.00354077 0)
(1.10234 -0.0470433 0)
(0.75701 0.0104841 0)
(0.937925 0.000455273 0)
(0.980252 0.00060584 0)
(0.978696 0.000586152 0)
(0.790303 0.00286941 0)
(0.986177 -0.00415467 0)
(0.938783 0.000461156 0)
(0.969196 -0.0101236 0)
(0.943029 -2.00371e-05 0)
(0.943581 -0.000184499 0)
(1.06439 -0.0345932 0)
(0.945467 -0.00529545 0)
(0.934346 9.68679e-05 0)
(0.988587 6.07252e-05 0)
(0.991436 0.000280734 0)
(0.950554 0.0393799 0)
(0.933285 0.000358418 0)
(0.763304 0.00885169 0)
(0.947211 0.000121856 0)
(0.947975 0.000171861 0)
(1.1169 -0.0637969 0)
(0.859246 -0.00250429 0)
(1.10871 -0.0607818 0)
(0.807374 0.000648758 0)
(0.940772 0.000631177 0)
(0.941643 0.000579026 0)
(0.967615 0.0294085 0)
(1.13943 -0.0943072 0)
(1.10274 -0.0471712 0)
(0.831465 -0.00154345 0)
(0.954516 -0.000103972 0)
(0.774406 0.007959 0)
(0.955186 -9.96412e-05 0)
(1.11838 -0.0676429 0)
(1.10214 -0.040195 0)
(0.952583 0.0218436 0)
(0.90389 -0.00565485 0)
(0.94468 -0.000105152 0)
(0.992121 -0.00633366 0)
(0.945303 7.53565e-05 0)
(0.700385 0.0405546 0)
(0.833013 -0.00147981 0)
(0.959185 -0.000105827 0)
(0.959855 -0.000217818 0)
(0.79719 0.00248416 0)
(0.703342 -0.0134881 0)
(0.781095 0.0041127 0)
(1.1439 -0.111264 0)
(0.843226 -0.0149544 0)
(0.804743 0.00275627 0)
(1.12753 0.00658601 0)
(1.15369 -0.089895 0)
(0.783088 0.00220055 0)
(0.96867 0.0288333 0)
(0.964292 -0.000250363 0)
(0.965091 -0.000242178 0)
(0.847075 0.000531732 0)
(0.952212 3.36177e-05 0)
(0.953039 0.000158638 0)
(1.14987 -0.0991566 0)
(0.847476 0.000415447 0)
(0.847967 0.00050239 0)
(0.80672 0.00164857 0)
(0.853193 -0.000206864 0)
(0.797788 0.0198625 0)
(0.854209 -0.000134981 0)
(0.845826 -2.01637e-05 0)
(0.845679 -4.32003e-05 0)
(1.1329 -0.016685 0)
(0.818567 0.00126393 0)
(1.02872 -0.00123663 0)
(1.02989 -0.0010146 0)
(0.925227 -0.014294 0)
(0.829456 -0.00171357 0)
(0.956981 9.57405e-05 0)
(0.957615 5.58288e-05 0)
(0.855078 -0.00418969 0)
(1.14467 -0.0928788 0)
(0.97143 0.0281775 0)
(0.969717 -0.000178019 0)
(0.970455 -0.000495323 0)
(0.822678 -0.00282976 0)
(0.924435 -0.0227993 0)
(0.770192 0.0683338 0)
(0.696118 0.0299753 0)
(0.808793 0.00188353 0)
(0.868323 -0.0207152 0)
(0.817767 0.000984429 0)
(0.952116 0.0385493 0)
(1.06017 -0.0200267 0)
(0.978502 -0.000451065 0)
(0.799638 0.00125842 0)
(0.802122 0.00120554 0)
(0.978933 -0.000369536 0)
(1.1376 -0.0880178 0)
(0.961543 -0.000174375 0)
(0.962205 4.77567e-05 0)
(1.04323 -0.0446381 0)
(0.809405 0.00151244 0)
(0.808364 0.00152747 0)
(1.04219 -0.00141101 0)
(1.03902 -0.00116739 0)
(0.90364 0.055881 0)
(0.937995 0.0433693 0)
(0.875097 0.00255703 0)
(0.862993 0.00234884 0)
(0.822865 0.000336423 0)
(0.922724 -0.0171558 0)
(0.84162 -0.000697615 0)
(0.920639 -0.0266146 0)
(0.903692 0.0548776 0)
(0.886835 0.057722 0)
(0.819086 0.000612027 0)
(0.812988 0.00122803 0)
(0.818295 0.00106177 0)
(0.841181 -0.000640099 0)
(0.956851 0.0135116 0)
(0.80849 0.00169481 0)
(0.82873 -0.0025682 0)
(0.973605 0.0271847 0)
(0.82099 0.00150981 0)
(0.980108 -0.000442391 0)
(0.982449 -0.000758919 0)
(0.88917 0.057804 0)
(1.04776 -0.00315625 0)
(0.81875 0.00121439 0)
(1.04983 -0.00252596 0)
(0.968516 -7.55667e-05 0)
(0.96858 5.48163e-05 0)
(1.06654 -0.0275216 0)
(0.65406 -0.0285657 0)
(0.830042 0.000240354 0)
(1.00236 -0.00377206 0)
(1.03711 -0.0290136 0)
(1.11772 -0.0600515 0)
(0.949104 0.039864 0)
(0.927879 -0.0069248 0)
(0.835315 -0.000756537 0)
(0.928247 0.0126455 0)
(0.913852 0.0171781 0)
(0.973577 -0.000569595 0)
(0.987335 -0.000685314 0)
(0.975749 -0.000293261 0)
(0.812783 0.00177631 0)
(0.900048 0.0116998 0)
(0.176555 0.0267556 0)
(0.986154 -0.000996162 0)
(0.817326 0.000862158 0)
(0.76359 0.0117836 0)
(0.823232 -0.000883772 0)
(1.0072 0.00670858 0)
(1.05032 -0.0194021 0)
(1.06599 -0.001126 0)
(1.0694 -0.000267673 0)
(0.811695 0.00055762 0)
(0.811381 0.00107567 0)
(0.918223 -0.0205396 0)
(0.863831 0.0294445 0)
(0.919066 0.000193046 0)
(1.08437 -0.0340625 0)
(0.951967 0.0357313 0)
(0.830318 -0.00524351 0)
(0.872217 0.0628711 0)
(0.874664 0.0613791 0)
(1.17004 -0.0248642 0)
(0.815218 0.00603932 0)
(0.882177 0.061126 0)
(0.920182 0.0485494 0)
(0.806332 0.0018023 0)
(0.920417 0.0489639 0)
(0.822049 -0.0766424 0)
(0.998618 -0.00065243 0)
(0.77834 0.0709282 0)
(1.00051 -0.000449243 0)
(1.09809 -0.0448186 0)
(0.77427 0.052584 0)
(0.851368 -0.000600875 0)
(0.978282 -0.00067969 0)
(0.978053 -0.000806833 0)
(0.824932 -0.00304785 0)
(0.94517 0.0415439 0)
(0.847043 0.000453613 0)
(0.848095 0.000511243 0)
(0.779862 0.00670202 0)
(0.930365 -0.0498361 0)
(0.999708 -0.000273309 0)
(0.820795 0.000428293 0)
(0.999251 -0.000734389 0)
(1.06277 -0.0324765 0)
(0.882769 0.0602338 0)
(0.857671 -0.00216448 0)
(1.00494 0.00475008 0)
(1.09319 -0.0472588 0)
(0.825189 -0.000249221 0)
(0.972853 -0.00177058 0)
(0.908872 -0.0306039 0)
(1.12624 -0.0484841 0)
(0.9568 0.0352923 0)
(0.821518 0.0001775 0)
(0.827867 0.000122243 0)
(1.00515 -0.00118904 0)
(1.00674 -0.00141811 0)
(0.918401 -0.00266295 0)
(0.926276 -0.00249198 0)
(0.851078 -0.000698788 0)
(0.982161 0.00614042 0)
(0.824541 0.00114903 0)
(0.888051 0.0142127 0)
(1.07919 -0.0300993 0)
(0.993153 0.000511517 0)
(0.991509 0.0010284 0)
(0.838075 -0.00022167 0)
(0.803932 0.00122853 0)
(0.809203 0.000875305 0)
(0.935231 0.0182493 0)
(0.760839 0.0402297 0)
(0.814685 0.000850528 0)
(1.01154 -0.000371924 0)
(1.0118 -0.000237382 0)
(0.922803 -0.0490984 0)
(1.06485 -0.0340635 0)
(0.804046 0.00266852 0)
(1.15687 -0.0260644 0)
(0.861593 0.000317756 0)
(1.15334 -0.0938627 0)
(0.919107 0.0304221 0)
(1.11043 -0.0664167 0)
(0.816739 0.00263651 0)
(0.987833 -0.00156354 0)
(0.8352 -0.00446806 0)
(0.991102 -0.00138599 0)
(0.869314 -0.00285549 0)
(1.11129 -0.0662892 0)
(0.855301 -0.000177667 0)
(0.813748 0.00318451 0)
(0.854844 -0.000424095 0)
(0.847029 0.000401136 0)
(0.813285 0.00348112 0)
(0.813598 0.00352767 0)
(0.814016 0.00353436 0)
(1.01498 -0.0010817 0)
(0.816089 0.00306502 0)
(0.822253 0.00351743 0)
(0.821865 0.00359424 0)
(0.822173 0.00355059 0)
(1.01619 -0.00167583 0)
(0.814006 0.00306382 0)
(0.885655 0.0593077 0)
(1.06353 -0.0328303 0)
(0.815933 0.000974915 0)
(0.813062 0.00244623 0)
(0.812251 -0.00441795 0)
(0.890087 0.0329311 0)
(1.09897 0.0081898 0)
(1.09804 -0.0482523 0)
(1.00242 0.000444199 0)
(0.99379 0.0118113 0)
(1.00204 0.000835685 0)
(0.814747 0.000928971 0)
(0.947847 0.0283264 0)
(1.02162 -0.000784313 0)
(0.744187 0.0596745 0)
(0.847123 0.00042015 0)
(0.950478 0.0364237 0)
(1.02142 -0.000677595 0)
(0.904005 0.0133588 0)
(0.809921 0.000811025 0)
(1.00214 0.0096295 0)
(0.980961 0.0238412 0)
(0.983468 0.0255132 0)
(0.823943 0.000295069 0)
(1.00471 -0.0132686 0)
(0.900592 0.0112419 0)
(0.937055 -0.00111981 0)
(0.937981 -0.000715765 0)
(0.884605 0.0585126 0)
(0.819201 0.000942262 0)
(0.837772 0.0307482 0)
(0.850245 -0.00102787 0)
(0.85435 -0.00149885 0)
(0.957321 0.028245 0)
(0.819422 0.00163732 0)
(0.828863 0.000594329 0)
(0.846703 0.000213645 0)
(0.789122 0.0665055 0)
(0.847277 0.000470096 0)
(1.01818 -0.0122973 0)
(0.840285 0.0262991 0)
(0.837395 0.0155506 0)
(0.82189 0.000764849 0)
(0.829756 0.0012503 0)
(1.05968 -0.0256566 0)
(0.839884 0.0266401 0)
(0.822473 -0.0105889 0)
(1.0247 -0.000691247 0)
(0.86466 0.00234359 0)
(1.00116 -0.00102746 0)
(0.864182 0.00288715 0)
(0.824904 0.000479447 0)
(1.02613 -0.00139626 0)
(1.00167 -0.000934716 0)
(0.852911 -0.000537882 0)
(0.79813 -0.00360039 0)
(0.826721 -0.00155136 0)
(0.897554 -0.0052597 0)
(0.845229 -9.87761e-05 0)
(0.844843 -0.000189534 0)
(1.0472 -0.0215593 0)
(1.02094 0.0026393 0)
(0.84845 0.000608554 0)
(0.844537 -0.000395321 0)
(1.02192 0.0149169 0)
(1.09265 -0.0471796 0)
(0.833934 0.0261431 0)
(0.781916 -0.0676453 0)
(0.852632 -0.000598414 0)
(1.03325 -0.0179346 0)
(0.966144 0.0302338 0)
(0.852501 1.05668e-05 0)
(0.820143 0.000679709 0)
(1.08823 -0.0331939 0)
(0.834517 -0.00131222 0)
(1.04952 -0.0180213 0)
(1.00382 -0.0124221 0)
(0.955489 -0.0415695 0)
(0.868243 0.0329591 0)
(0.428103 0.110203 0)
(0.841611 0.0323702 0)
(1.08775 0.00670799 0)
(0.840758 0.0302079 0)
(1.00883 -0.000730747 0)
(1.01788 -0.0190503 0)
(0.812626 0.000882883 0)
(1.02843 -0.0219511 0)
(1.0269 -0.0193191 0)
(1.00995 -0.000173995 0)
(0.816046 0.00293807 0)
(1.04014 -0.0214072 0)
(0.807217 0.00205274 0)
(0.838738 0.00755796 0)
(0.840058 0.0273864 0)
(0.821665 0.00356886 0)
(0.838156 0.00739882 0)
(0.844588 -0.0239356 0)
(0.925031 -0.0320546 0)
(1.09164 -0.00492403 0)
(1.09952 -0.0448249 0)
(1.03153 -0.000871963 0)
(1.0647 -0.0246609 0)
(0.978043 0.0261367 0)
(1.03172 -0.00134611 0)
(0.958058 -0.0127269 0)
(0.945363 0.000858819 0)
(0.94601 0.000233565 0)
(0.832477 0.00395946 0)
(0.811865 0.00175573 0)
(0.810773 0.0013649 0)
(0.863821 0.00353358 0)
(0.754868 0.00775787 0)
(0.830767 0.000814649 0)
(1.04486 -0.016961 0)
(1.01432 -0.0164099 0)
(1.1387 -0.0804863 0)
(1.04517 -0.0166587 0)
(1.02829 -0.0211715 0)
(0.706175 -0.0103757 0)
(1.01535 -0.0189282 0)
(0.500125 -0.00842725 0)
(0.816208 0.00250246 0)
(1.01295 -0.000797045 0)
(1.01295 -0.0132621 0)
(1.11857 -0.0600515 0)
(1.01293 -0.000787685 0)
(1.04068 -0.0013437 0)
(1.04195 -0.00135204 0)
(0.941223 -0.00327637 0)
(0.646193 -0.0468417 0)
(0.813654 0.00322178 0)
(0.951429 0.000516137 0)
(0.943567 0.0402796 0)
(0.853004 -0.00302694 0)
(0.951111 -0.0219706 0)
(0.81064 0.000702209 0)
(0.83063 -0.0955404 0)
(0.836854 0.0250994 0)
(0.99306 0.00799093 0)
(0.82876 0.0315308 0)
(0.856018 -0.000502964 0)
(0.846501 0.000366751 0)
(1.02534 -0.0160502 0)
(0.823161 0.000947499 0)
(0.953758 0.0218676 0)
(0.900038 0.0106061 0)
(0.799771 -0.0530915 0)
(1.01649 -0.0131739 0)
(0.82732 0.000614127 0)
(0.829597 0.000170053 0)
(1.01673 -0.0114306 0)
(0.81328 0.00303689 0)
(1.02265 -0.0123723 0)
(1.0215 -0.0103902 0)
(1.02259 -0.0118131 0)
(0.934789 0.0357018 0)
(0.988547 -0.0293951 0)
(0.936121 -0.0196932 0)
(0.838059 -0.00125905 0)
(1.01938 -0.0203879 0)
(1.01325 -0.0142578 0)
(0.821789 0.000154571 0)
(0.842066 -0.00281826 0)
(1.01867 -0.0011996 0)
(0.834773 -0.0012303 0)
(0.996332 0.000816008 0)
(1.05935 -0.0259089 0)
(0.831719 0.000790738 0)
(0.858215 -0.00012022 0)
(1.0199 -0.000725538 0)
(0.855181 0.00331527 0)
(0.861625 -0.00835326 0)
(0.845662 0.0182303 0)
(0.845196 0.0179019 0)
(1.13895 -0.0846244 0)
(0.848543 0.0191374 0)
(0.846979 0.0191899 0)
(1.04516 -2.43654e-05 0)
(1.06942 -0.024435 0)
(1.04837 -0.000547709 0)
(0.701244 -0.00162831 0)
(0.857662 0.0218081 0)
(0.856331 0.0216807 0)
(0.85879 0.0229631 0)
(0.858284 0.0228163 0)
(0.822693 0.000484963 0)
(0.836722 0.0285184 0)
(0.849314 -0.00147569 0)
(1.02766 -0.0180843 0)
(1.13698 -0.0782329 0)
(0.848946 0.000536616 0)
(0.846917 3.70721e-05 0)
(0.853476 -0.00426327 0)
(0.838395 0.025101 0)
(0.849354 0.00220542 0)
(0.846429 0.000123478 0)
(1.0035 0.00202848 0)
(0.949402 0.0376655 0)
(0.948489 -0.0156103 0)
(0.96045 0.0342081 0)
(0.84737 0.000925241 0)
(0.852546 0.00500298 0)
(1.09806 -0.0458733 0)
(0.834458 -0.000782155 0)
(0.847877 0.00140728 0)
(0.840944 0.00869183 0)
(1.02246 -0.000670133 0)
(0.841673 0.0113033 0)
(0.846001 0.000439949 0)
(1.02266 -0.000503449 0)
(0.963784 0.033431 0)
(0.930655 0.0259507 0)
(0.814314 0.00299696 0)
(0.929334 0.0266069 0)
(0.928641 0.0261962 0)
(0.927252 0.0267175 0)
(0.928573 -0.000331319 0)
(0.846956 0.000752419 0)
(1.04979 -0.00215633 0)
(1.04789 -0.00276019 0)
(0.953476 0.0379958 0)
(0.889492 0.00685144 0)
(0.841131 0.00948795 0)
(0.852071 -1.50356e-05 0)
(1.15683 -0.0345858 0)
(0.81027 0.000712375 0)
(0.768653 0.0480306 0)
(0.867951 -0.00117745 0)
(0.839659 0.025806 0)
(0.77339 0.0554216 0)
(0.837168 0.0319179 0)
(0.821597 0.00341393 0)
(0.949504 0.0399534 0)
(0.93869 0.0415907 0)
(0.815118 0.00252019 0)
(0.813413 0.00316756 0)
(0.89449 0.00862516 0)
(1.02367 -0.0184551 0)
(0.813685 0.00258416 0)
(0.813093 0.00102932 0)
(0.985284 0.0227883 0)
(0.866387 0.0239032 0)
(0.866212 0.0235803 0)
(0.871261 0.0240273 0)
(0.869136 0.0242477 0)
(0.874387 0.0246207 0)
(0.874521 0.0246907 0)
(0.881047 0.0247273 0)
(0.879067 0.0248165 0)
(1.16269 -0.101393 0)
(1.04061 -0.0200351 0)
(0.883516 0.0248919 0)
(1.05551 0.00169699 0)
(0.883446 0.0251525 0)
(0.890866 0.0248464 0)
(0.814942 0.00287751 0)
(0.999874 0.000191024 0)
(0.982967 0.00646352 0)
(0.889412 0.0248297 0)
(0.813198 0.00340367 0)
(0.893979 0.0243967 0)
(0.825071 2.10444e-05 0)
(0.893375 0.0247361 0)
(0.922231 0.0421776 0)
(1.02977 -0.0160521 0)
(0.900592 0.0243452 0)
(0.863613 0.00223127 0)
(0.899666 0.0244504 0)
(0.82042 0.0688238 0)
(0.819945 0.00680095 0)
(0.905188 0.0233778 0)
(0.844963 -7.59594e-05 0)
(0.903933 0.0237067 0)
(0.844624 -0.000129635 0)
(1.13554 -0.082962 0)
(0.863161 0.00205301 0)
(1.06586 -0.0225963 0)
(0.964527 0.00486857 0)
(0.848176 0.000480932 0)
(0.847853 0.00046502 0)
(0.910439 0.0233346 0)
(0.909852 0.0235498 0)
(0.817003 0.00296489 0)
(1.02316 -0.0130543 0)
(0.916559 0.0220402 0)
(0.915214 0.022365 0)
(0.989683 0.0196075 0)
(0.825632 0.000463364 0)
(0.82697 0.000175716 0)
(0.924075 0.0206236 0)
(1.06252 -0.00154439 0)
(0.922557 0.0211496 0)
(0.816419 0.00563365 0)
(1.03099 -0.00124393 0)
(0.929497 0.0204477 0)
(1.08775 -0.0451594 0)
(0.929686 0.0205859 0)
(1.06298 -0.000932648 0)
(1.03069 -0.000750899 0)
(0.815333 0.00466534 0)
(0.847366 0.00222244 0)
(0.846428 0.00309793 0)
(0.935303 0.0183975 0)
(0.933128 0.0190397 0)
(0.989259 0.00200536 0)
(0.81564 0.00427342 0)
(0.818588 0.00376722 0)
(0.939742 0.0180716 0)
(1.04563 -0.0163595 0)
(0.940379 0.0183453 0)
(1.09132 -0.0470584 0)
(0.814188 0.00340705 0)
(0.950572 0.0159984 0)
(0.949749 0.0161268 0)
(0.839615 0.00786942 0)
(0.837182 0.00704131 0)
(0.838975 0.00770455 0)
(0.870906 0.00637414 0)
(0.836491 0.0067513 0)
(1.01264 -0.0126268 0)
(0.999878 -0.00121896 0)
(0.934242 0.0432654 0)
(0.815799 0.00144992 0)
(0.959595 0.0131284 0)
(0.854821 0.00464229 0)
(0.957428 0.0132815 0)
(0.852359 0.00684622 0)
(0.816539 0.00137407 0)
(1.009 -0.0127999 0)
(1.00809 -0.0124207 0)
(0.95942 0.0114314 0)
(0.960037 0.0121355 0)
(1.025 -0.0218332 0)
(1.01421 -0.0115536 0)
(0.972528 0.0104915 0)
(1.02162 -0.00970064 0)
(0.970441 0.0104854 0)
(0.811882 0.00115646 0)
(0.981756 0.0244211 0)
(0.977921 0.00673276 0)
(0.972818 0.00751142 0)
(0.846669 0.000504768 0)
(1.0824 -0.0316113 0)
(0.979372 0.00631709 0)
(0.983432 0.00674767 0)
(0.696551 0.0267817 0)
(0.863455 0.00958938 0)
(0.863425 0.00978915 0)
(0.846254 0.000349779 0)
(0.990815 0.0040377 0)
(1.04333 -0.0213672 0)
(0.986097 0.00423687 0)
(0.891538 -0.0114448 0)
(0.91764 -0.000592868 0)
(1.01949 -0.0198604 0)
(1.11333 -0.0587396 0)
(0.989112 0.00235647 0)
(0.991264 0.00290792 0)
(0.999537 -0.00218385 0)
(1.00178 0.00076734 0)
(0.999498 0.000859141 0)
(1.06147 -0.0337095 0)
(1.08287 -0.0347592 0)
(0.852008 0.0209679 0)
(1.09279 -0.00325636 0)
(0.760758 0.0458664 0)
(1.05864 -0.00163616 0)
(0.851587 -0.00247435 0)
(1.10489 -0.0541988 0)
(1.05978 -0.00264529 0)
(1.08816 -0.0444041 0)
(0.899728 0.00365735 0)
(0.990115 0.00224246 0)
(0.861994 0.0228107 0)
(0.851372 0.0209484 0)
(0.860037 0.0231569 0)
(1.03455 -0.00124204 0)
(0.853771 0.00529278 0)
(0.850809 0.0198512 0)
(0.853107 0.00635872 0)
(0.837945 -0.00421035 0)
(0.849681 0.0196882 0)
(1.03779 -0.000917877 0)
(0.858093 -0.00202696 0)
(0.853042 0.0212183 0)
(0.854632 0.0210366 0)
(1.05674 -0.0246311 0)
(1.07803 -0.0341479 0)
(0.813552 0.00315705 0)
(0.981565 0.0227766 0)
(1.17412 -0.102371 0)
(0.97497 -0.000525761 0)
(0.833274 -0.0024643 0)
(0.868303 -0.0040728 0)
(0.811759 0.00101163 0)
(0.835954 0.0277227 0)
(0.942038 0.0586924 0)
(1.07758 0.00801446 0)
(0.851524 0.00571939 0)
(1.03427 -0.0204528 0)
(0.838026 0.0256957 0)
(0.935773 0.0229125 0)
(0.977661 0.0346333 0)
(0.934804 0.0227723 0)
(1.08355 -0.0426863 0)
(0.84607 0.00021144 0)
(0.795521 0.0681421 0)
(0.826299 -0.0784807 0)
(0.927452 0.0258506 0)
(0.838217 0.0278375 0)
(0.823887 8.34557e-06 0)
(0.815856 0.00299033 0)
(0.916468 0.0257653 0)
(0.860072 -9.05539e-05 0)
(0.934115 0.0225617 0)
(0.933274 0.0233077 0)
(1.07967 0.0052042 0)
(0.953015 -0.00365517 0)
(0.960486 -0.00428868 0)
(0.821973 0.00352885 0)
(1.06143 -0.0204388 0)
(0.823395 0.00178337 0)
(0.814767 0.00258244 0)
(0.93148 0.0228539 0)
(1.00753 -0.00440995 0)
(0.838152 0.0302192 0)
(0.982416 -0.00555229 0)
(0.838692 0.0313238 0)
(0.838319 0.0292069 0)
(0.983585 0.0242752 0)
(0.979851 0.0257072 0)
(0.813755 0.0030718 0)
(0.930713 0.022664 0)
(1.09591 -0.0444112 0)
(1.03132 -0.0226084 0)
(0.825832 -0.000775392 0)
(1.01485 -0.019586 0)
(1.06905 -0.00152901 0)
(0.830701 -0.00125536 0)
(0.838095 0.0287564 0)
(1.04006 -0.0195982 0)
(1.02415 -0.0170454 0)
(0.83877 0.0273482 0)
(1.06907 -0.00171214 0)
(0.825021 -0.0352773 0)
(0.833247 0.0265092 0)
(0.905625 0.00494783 0)
(0.919017 0.0220303 0)
(0.91816 0.0221124 0)
(1.04209 -0.0203576 0)
(0.857831 -0.000129074 0)
(0.831875 -0.0338402 0)
(0.840019 -0.0298264 0)
(0.855965 0.0380577 0)
(1.00694 0.00317426 0)
(0.84725 0.000457909 0)
(1.01944 -0.0129209 0)
(1.00686 0.0140904 0)
(1.08225 -0.0437569 0)
(0.825464 0.0692543 0)
(0.82878 0.000544169 0)
(0.828377 0.000833478 0)
(0.848099 -0.00261662 0)
(0.941447 0.0168576 0)
(0.940728 0.017288 0)
(0.865544 0.0232856 0)
(0.835016 0.0319798 0)
(0.865005 -0.00225619 0)
(1.03904 -0.00272256 0)
(0.949927 0.0148499 0)
(0.914606 -0.0428814 0)
(0.834621 0.0320443 0)
(0.950633 0.0153214 0)
(1.04014 -0.00135729 0)
(1.01601 -0.0193241 0)
(1.01743 -0.0205461 0)
(0.815741 -0.000264571 0)
(1.03813 -0.0196115 0)
(1.00403 -0.0129113 0)
(1.10572 -0.0546161 0)
(1.04528 -0.0212935 0)
(1.09493 -0.0487534 0)
(0.970694 0.010155 0)
(0.847977 0.000567003 0)
(0.848549 0.000557683 0)
(0.973535 0.0100843 0)
(0.83499 -0.000229153 0)
(0.84638 0.000422175 0)
(1.02911 -0.0170899 0)
(1.04181 -0.0203081 0)
(0.847458 0.000445239 0)
(1.07387 -0.00229058 0)
(1.07491 -0.0345796 0)
(1.02231 -0.0134211 0)
(1.08639 -0.0334733 0)
(1.08089 -0.0311394 0)
(1.07501 -0.00293614 0)
(1.07656 -0.0394562 0)
(1.08292 -0.0383681 0)
(1.09514 -0.0488986 0)
(1.09662 -0.0498775 0)
(0.875168 0.000569812 0)
(0.819413 0.0192503 0)
(0.913646 0.00489864 0)
(0.818903 0.0193792 0)
(0.876253 0.000641661 0)
(1.0394 -0.0201731 0)
(1.06296 -0.0316637 0)
(1.08033 -0.0359866 0)
(0.817949 0.00631932 0)
(0.846783 0.000251027 0)
(1.00473 -0.0121738 0)
(0.821783 0.000275061 0)
(1.0182 -0.011506 0)
(1.00276 -0.0126305 0)
(0.840436 0.0314588 0)
(0.841157 0.0326464 0)
(0.909113 0.00124176 0)
(0.839995 0.0303198 0)
(0.817072 -0.00523848 0)
(0.839808 0.0294816 0)
(0.813314 0.00266038 0)
(1.03685 -0.0185936 0)
(1.01513 -0.0100831 0)
(0.89095 0.00682931 0)
(0.844367 -0.0305992 0)
(0.817514 0.00264652 0)
(1.05212 0.000847526 0)
(0.862137 0.00957902 0)
(1.01387 -0.0105355 0)
(1.0184 -0.0116958 0)
(1.05213 -0.000284527 0)
(0.835758 0.0265006 0)
(1.01607 -0.0134665 0)
(1.02974 -0.0173894 0)
(1.01145 -0.0148151 0)
(0.810785 0.000556987 0)
(0.809544 0.000153923 0)
(0.808274 0.000491171 0)
(0.816496 0.00137848 0)
(1.02518 -0.0173426 0)
(1.02364 -0.0116134 0)
(0.834527 -0.000773441 0)
(0.993726 0.0187123 0)
(0.839666 0.0277242 0)
(1.07802 -0.0395179 0)
(0.838275 -0.00108672 0)
(1.08116 -0.0388286 0)
(0.928096 -0.00859341 0)
(0.998639 0.000464663 0)
(0.817106 0.00637426 0)
(1.08359 -0.00184897 0)
(1.08475 -0.00067028 0)
(0.698877 -0.0241984 0)
(0.796671 0.0682444 0)
(0.864148 0.0233334 0)
(1.07982 -0.0380147 0)
(1.02328 -0.0262073 0)
(1.01606 -0.0509304 0)
(1.07297 -0.0371754 0)
(0.858698 0.0224464 0)
(0.85832 0.022113 0)
(1.03026 -0.0203066 0)
(0.888572 -0.0124968 0)
(0.81918 0.00659794 0)
(0.818261 0.00664812 0)
(1.00917 -0.0114365 0)
(1.15087 -0.0887143 0)
(0.908998 0.00374561 0)
(1.02266 -0.0186824 0)
(0.789336 0.00177054 0)
(0.851492 0.0206044 0)
(0.822854 0.000547406 0)
(0.851168 0.0203689 0)
(0.85972 -0.00013491 0)
(0.846175 0.0188324 0)
(0.744473 0.0506187 0)
(0.845479 0.0186296 0)
(0.973161 0.00765666 0)
(1.07025 -0.0347745 0)
(1.08453 -0.0434605 0)
(0.976303 0.00343224 0)
(0.877691 -0.0182259 0)
(0.853834 -0.0201805 0)
(0.859771 -0.0265245 0)
(1.05903 -0.0258551 0)
(0.909345 0.00562608 0)
(0.93608 -0.00739262 0)
(0.817103 -0.0397274 0)
(0.902235 0.0238818 0)
(0.897796 0.0241716 0)
(0.89241 0.025051 0)
(0.908415 0.0234393 0)
(0.901774 0.0242713 0)
(0.840092 3.81373e-05 0)
(0.955284 -0.0081844 0)
(0.895977 0.0244671 0)
(0.886737 0.0245235 0)
(0.907127 0.023542 0)
(1.01716 -0.0208442 0)
(0.892167 0.0251127 0)
(0.924511 0.0216811 0)
(0.912856 0.0226493 0)
(0.884893 0.024849 0)
(0.861414 -0.000139859 0)
(0.883301 0.0252173 0)
(0.912007 0.0230439 0)
(0.882547 0.0251609 0)
(0.840437 0.00833708 0)
(0.920462 0.0214815 0)
(0.866737 0.0616427 0)
(0.876369 0.0244381 0)
(0.875097 0.0246196 0)
(0.920109 0.0217793 0)
(0.874156 0.0244537 0)
(0.872977 0.0271783 0)
(0.928121 0.0204922 0)
(0.873031 0.0245233 0)
(0.847424 0.000402533 0)
(0.86713 0.0239091 0)
(0.926737 0.0206613 0)
(0.814021 0.00128484 0)
(0.930468 0.0194164 0)
(0.866332 0.0239974 0)
(0.943225 -0.0113986 0)
(0.821535 0.00357305 0)
(0.91283 -0.00294957 0)
(0.930087 0.019836 0)
(0.839889 0.00818413 0)
(0.846036 9.52717e-05 0)
(0.837878 0.00736248 0)
(0.93933 0.018554 0)
(0.926499 0.02634 0)
(0.845984 0.000407483 0)
(0.837308 0.00728376 0)
(0.845299 -0.000158845 0)
(0.938049 0.0186348 0)
(0.909554 -0.00177043 0)
(0.880215 -0.0250754 0)
(0.947379 0.0159396 0)
(0.81344 0.00323642 0)
(1.02294 -0.000438421 0)
(0.944956 0.0164439 0)
(0.953271 0.0133834 0)
(0.951598 0.0142942 0)
(1.06942 -0.0346292 0)
(0.960971 0.0132724 0)
(0.961546 0.0132076 0)
(0.965451 0.00994134 0)
(0.812474 0.000779218 0)
(0.938905 -0.00323037 0)
(0.961843 0.0109882 0)
(0.818511 0.00233298 0)
(0.968784 0.00777961 0)
(1.00376 -0.000667206 0)
(0.818401 0.00201615 0)
(0.861167 0.00952188 0)
(0.969051 0.00854855 0)
(1.05976 -0.0215342 0)
(0.905653 -0.015127 0)
(0.984363 0.0078227 0)
(0.982967 0.00770371 0)
(0.980069 0.0041048 0)
(1.05629 -0.00025903 0)
(0.979016 0.00492428 0)
(0.872 -0.0171267 0)
(0.993628 0.00455612 0)
(0.812777 0.000663583 0)
(1.01149 -0.00427303 0)
(1.06052 -0.00011044 0)
(0.993845 0.00431416 0)
(0.986423 0.0212812 0)
(0.995663 0.0167442 0)
(1.02129 -0.0201855 0)
(0.993942 0.000564499 0)
(1.0061 -0.00691056 0)
(1.01038 -0.00601957 0)
(0.982083 -0.00225338 0)
(0.990993 0.0017522 0)
(1.00084 0.000494314 0)
(1.00318 0.000463218 0)
(0.971641 0.00341782 0)
(0.904233 -0.0184291 0)
(0.834294 -0.0550572 0)
(0.813805 0.00284848 0)
(0.906655 -0.015922 0)
(0.819427 0.00349982 0)
(0.891674 -0.0191191 0)
(0.919372 -0.0170808 0)
(0.888195 -0.0223605 0)
(0.946485 0.00130803 0)
(0.762161 0.0536102 0)
(0.912247 0.00467098 0)
(0.827676 0.013178 0)
(1.09705 -0.018235 0)
(0.899754 -0.0121896 0)
(0.952024 0.0370666 0)
(0.953051 0.039062 0)
(0.814089 0.00284863 0)
(0.898423 0.00862035 0)
(0.931669 0.0209936 0)
(0.927704 0.0212085 0)
(0.929542 0.00237857 0)
(0.902662 0.00634304 0)
(0.934635 0.0199515 0)
(0.930637 0.0212091 0)
(0.933419 0.0204488 0)
(0.931332 0.026355 0)
(0.951158 -0.0345782 0)
(1.06067 -0.0340989 0)
(1.00693 -0.0125942 0)
(1.04523 -0.0198534 0)
(0.815114 0.00310961 0)
(1.01993 -0.00528733 0)
(1.06557 -0.0341081 0)
(1.08908 -0.045394 0)
(0.997894 0.0180259 0)
(0.818348 1.04208e-05 0)
(0.905756 0.0256155 0)
(0.931598 0.0274902 0)
(1.12685 -0.0721149 0)
(0.854708 -0.00095755 0)
(0.931207 -0.00298741 0)
(0.663112 -0.0067294 0)
(1.01464 0.00529119 0)
(0.927549 -0.00205768 0)
(0.912406 0.0147434 0)
(0.867557 0.026001 0)
(0.818929 0.00161458 0)
(1.04322 -0.011319 0)
(0.995278 0.0171111 0)
(0.936126 0.00370399 0)
(0.936431 0.0195082 0)
(0.987598 0.0208911 0)
(0.982496 0.0229637 0)
(0.922122 -0.0333082 0)
(1.05923 -0.00224996 0)
(1.01207 0.00582191 0)
(1.0567 -0.00226758 0)
(1.01203 -0.00504702 0)
(0.923015 -0.0727141 0)
(1.11485 -0.0666159 0)
(1.08049 -0.0359041 0)
(0.909463 -0.0220714 0)
(1.02064 0.00049355 0)
(0.929086 0.0211912 0)
(1.0033 -0.00237505 0)
(0.818588 0.00218423 0)
(0.929211 0.0212689 0)
(0.887729 0.0267833 0)
(1.03606 -0.0095746 0)
(1.00341 0.0108467 0)
(0.812701 0.00085559 0)
(0.818007 0.00223513 0)
(0.874578 0.00462643 0)
(1.02649 -0.0136442 0)
(0.837058 0.0322748 0)
(0.80828 0.000622501 0)
(0.876946 0.0039482 0)
(0.88149 -0.0203178 0)
(1.00257 0.011806 0)
(1.09605 -0.0492069 0)
(0.827099 -0.00156393 0)
(0.956411 0.0231742 0)
(0.879809 0.00379659 0)
(1.02373 -0.0162147 0)
(1.03465 -0.00877526 0)
(0.786426 0.00163862 0)
(0.823078 -5.11104e-07 0)
(0.809878 -0.0662595 0)
(1.09125 -0.046474 0)
(0.874292 0.0270901 0)
(1.08657 -0.0444038 0)
(1.01268 -0.00955671 0)
(1.01229 -0.0107469 0)
(0.770786 0.00566808 0)
(0.926391 0.0214191 0)
(1.01107 -0.012024 0)
(0.83713 0.0250185 0)
(0.947473 -0.0131413 0)
(0.881609 0.00326197 0)
(0.990741 0.016584 0)
(0.928258 0.00070404 0)
(1.09466 -0.0105216 0)
(1.07051 -0.0305897 0)
(0.86941 0.00600974 0)
(0.870197 0.00765093 0)
(1.02086 -0.00534381 0)
(0.905194 -0.0156775 0)
(1.00698 -0.0104677 0)
(1.0249 -0.0212199 0)
(1.03485 -0.0115796 0)
(1.03522 -0.0113234 0)
(0.870228 0.00671045 0)
(0.932286 -0.000105355 0)
(1.00643 -0.00869654 0)
(1.01623 -0.0200089 0)
(1.02419 -0.0191426 0)
(1.09693 -0.0496399 0)
(0.990719 0.0174936 0)
(0.838301 0.0250932 0)
(1.03548 -0.00708375 0)
(1.11619 -0.0604021 0)
(1.02051 -0.01172 0)
(1.10365 -0.0572188 0)
(1.0217 -0.0114507 0)
(0.931006 0.0272124 0)
(0.259086 0.00571424 0)
(0.855728 0.00742045 0)
(0.855152 0.007481 0)
(1.06461 -0.0314432 0)
(1.01675 -0.0180659 0)
(0.799429 0.00234553 0)
(1.04531 -0.0216035 0)
(1.01332 -0.015736 0)
(0.922252 0.0020957 0)
(0.895503 0.00489263 0)
(1.07411 -0.0385771 0)
(1.0423 -0.0223567 0)
(0.900304 -0.00950782 0)
(0.983437 -0.0034759 0)
(0.907342 0.0257504 0)
(0.868905 0.0100221 0)
(0.866835 0.00968377 0)
(1.02906 -0.00325986 0)
(0.898219 0.0266508 0)
(0.859429 0.00863908 0)
(0.854519 0.00696422 0)
(0.844546 0.0267869 0)
(1.02809 -0.0161807 0)
(0.857979 0.00787232 0)
(1.03173 -0.0170684 0)
(1.14852 -0.0879587 0)
(0.870467 -0.011261 0)
(1.02683 -0.00367144 0)
(0.815019 0.00340948 0)
(0.843457 0.0266039 0)
(1.01866 -0.0226658 0)
(0.833036 -0.00090696 0)
(0.857069 0.0305377 0)
(1.03587 -0.0177001 0)
(0.863511 0.0314542 0)
(0.855195 0.0304922 0)
(0.871849 0.0112207 0)
(0.889583 -0.0203572 0)
(0.862711 0.0315653 0)
(1.0215 -0.01758 0)
(1.0501 -0.0247866 0)
(0.909135 0.0251978 0)
(0.840377 0.00930166 0)
(0.673938 -0.0344283 0)
(0.872977 0.0322494 0)
(0.89056 0.0274318 0)
(1.02545 -0.00191942 0)
(0.947161 -0.00862602 0)
(0.915953 0.0244962 0)
(0.871559 0.0323352 0)
(0.882233 0.0323957 0)
(0.831843 0.0307544 0)
(1.01256 -0.0148636 0)
(0.827015 -0.0470806 0)
(0.831023 0.0304643 0)
(0.824988 0.0260427 0)