/*--------------------------------*- C++ -*----------------------------------*\
  =========                 |
  \\      /  F ield         | OpenFOAM: The Open Source CFD Toolbox
   \\    /   O peration     | Website:  https://openfoam.org
    \\  /    A nd           | Version:  12
     \\/     M anipulation  |
\*---------------------------------------------------------------------------*/
FoamFile
{
    format      ascii;
    class       surfaceScalarField;
    location    "7.85";
    object      phi;
}
// * * * * * * * * * * * * * * * * * * * * * * * * * * * * * * * * * * * * * //

dimensions      [1 0 -1 0 0 0 0];

internalField   nonuniform List<scalar> 
33852
(
0.000251329
2.24281e-05
-0.000273757
-0.000246121
1.32441e-05
0.000232877
-0.000172251
-7.00585e-05
0.000241963
0.000304053
-0.000163969
-0.000140085
0.00029141
-4.29515e-05
-0.000249213
2.72441e-05
-0.000260681
0.000233437
0.0003158
1.47641e-05
-0.000330459
0.000304277
-9.59564e-05
-0.000208321
0.000286413
-3.50841e-05
0.000208603
1.04133e-06
-0.000214888
0.00028965
-0.000366183
7.69933e-05
0.000361364
-4.57637e-05
-4.39602e-05
0.000263285
-0.000219325
-4.39166e-05
0.000318214
-0.000274423
5.91761e-05
-0.000233219
0.000252057
1.2236e-05
-0.000264293
0.000264853
-1.2796e-05
-0.000278433
3.23121e-05
0.000341095
-5.11963e-05
0.000158593
0.000112308
-0.000270901
-2.43447e-05
0.000303241
-0.000278874
0.000271377
-0.000276165
4.78802e-06
-1.78339e-05
0.000276051
-0.000258143
-0.00022615
1.42713e-05
0.000207604
-0.000153618
-0.000183706
0.000337244
-0.000135789
-6.25042e-05
0.000199596
3.72401e-05
0.000267037
-6.14629e-05
-0.000263976
0.000323884
-0.000212154
1.82394e-06
0.000209805
-0.000208379
-1.93963e-05
0.000142045
0.000137388
-0.000279433
0.000341354
1.93412e-05
0.000142618
0.000128347
-0.000270965
-0.000101136
0.000259729
-0.000250489
-3.78001e-06
0.000254269
0.000330613
-5.95051e-05
-0.000271088
-0.000357389
0.000203721
-0.00022806
0.000210367
0.000231645
3.32081e-05
-5.65602e-06
0.000237301
-8.5111e-06
0.000198504
-0.000232625
0.000259869
0.000315515
-5.69015e-05
-0.000258125
-0.000309093
5.51042e-05
0.000253989
0.00024013
-0.000302547
0.000273589
-0.000306321
3.27321e-05
-0.000180237
-5.49362e-05
0.000235173
0.000272133
-0.000272133
0.000148429
-0.000297473
0.000149045
-0.000209207
0.000217516
-7.59523e-06
-0.000268241
0.000237301
3.09401e-05
-0.000202213
0.000244701
-4.72557e-05
-9.16164e-05
-0.000217477
-0.000114316
-0.000251769
-0.000280169
0.000266113
1.40561e-05
0.000329169
1.18406e-05
-0.000250433
7.01963e-05
0.000117908
0.000145909
-0.000263817
1.34681e-05
-0.000267457
0.000253989
-0.000134569
0.000282997
-0.000150905
-4.86771e-05
0.000205395
-0.000274681
0.000245113
2.95681e-05
0.000237553
-0.000268437
3.08841e-05
-0.000187224
-2.3857e-05
0.000151665
0.000115565
-0.00026723
-0.000187548
-2.82929e-05
0.000211448
0.000263985
2.24281e-05
0.000275941
-2.35201e-06
0.000265329
-0.000250741
-1.45881e-05
0.000225167
-6.45662e-05
-0.000166245
-1.82001e-06
0.000239373
0.000365879
-0.000312708
-5.39063e-05
-2.83463e-05
0.000303927
-0.000275272
-0.000101584
0.000219493
0.000341523
2.4169e-05
-0.000370395
0.000353103
1.80224e-05
-0.000216491
2.25578e-05
0.000309379
-0.000321565
1.23035e-05
-0.000206571
0.000269853
-6.36067e-05
-4.45202e-06
1.71397e-05
-0.000319541
0.000302409
0.000235469
-0.000200439
-3.54075e-05
0.000269328
-0.000339707
7.00166e-05
0.00033254
-6.34119e-05
-0.000268941
0.000236573
3.23681e-05
-0.000129388
-0.000132609
0.000261997
-1.86761e-05
-0.000249565
-1.022e-05
-0.000258721
2.32348e-05
0.000207934
-0.000229411
3.30601e-05
-0.0002332
0.000192524
-2.51598e-05
0.000329586
-0.000303927
-0.000279329
0.000273701
5.62802e-06
0.000156129
-0.000296857
0.000140729
-6.06125e-05
-0.000154536
0.000216653
0.000143277
0.0001218
-0.000265077
-0.000250065
0.000225767
-0.000219101
0.000159074
-0.000168813
0.000327181
-0.000158369
0.000185389
7.16523e-05
-0.000257041
0.000255193
2.07481e-05
-0.000192277
0.000148317
5.04317e-05
0.000265974
0.00030728
-0.000290132
8.42831e-05
-0.000220961
0.000135241
0.000117096
-0.000281065
-1.41959e-06
0.000245335
-0.0002445
0.000166489
0.000122836
-0.000289325
0.000144242
8.98858e-05
-3.92002e-06
0.000259113
0.000303981
5.41189e-06
-0.000323985
0.00031497
8.88554e-06
-3.99002e-05
0.000236293
-0.000196393
4.08802e-06
-0.000284257
-2.61983e-05
0.000162737
-0.000130674
-0.000151424
0.000132768
0.000216162
-0.000190464
-0.000269921
0.000264965
4.95602e-06
2.64041e-05
0.000174721
-0.000201125
2.87841e-05
-0.000257265
0.000228481
0.000276137
-0.000262669
0.000115108
0.000212073
0.000212479
-0.000189484
-0.000175813
0.000202217
1.37055e-05
0.000283027
-0.000296492
0.000269632
2.11944e-05
0.000270983
-0.000283441
1.24382e-05
3.86402e-06
0.000267513
-1.81119e-05
0.000289341
0.000331067
1.00243e-05
0.000213616
-0.000257554
0.000316138
-0.000316037
-6.63603e-06
-0.000272693
2.85734e-05
0.000191371
0.000187993
3.98722e-05
-0.000227865
-5.44824e-05
0.000220008
-0.000158574
0.000153609
-0.000270285
0.000116676
0.000279441
-0.000329701
5.02602e-05
-6.38122e-05
0.000249201
-0.000166909
0.000315897
-0.000148989
-0.000314221
-9.9847e-06
-0.000214929
0.000175029
2.78601e-05
-0.000278349
0.000276221
-1.88441e-05
-0.000248613
1.72413e-05
-0.000301732
0.00028557
0.000344989
-0.000158593
-0.000186397
-1.68261e-05
-0.000241417
0.000258074
-0.000266617
-3.30401e-06
0.000224001
2.45841e-05
-0.000248585
0.000284509
-0.000128381
0.000140197
0.000138853
-0.000279049
-0.000197968
-1.06812e-05
0.000258169
-0.000115551
0.000225612
-0.000242536
-6.38122e-05
0.000251805
-0.000207473
0.000249481
-5.60002e-07
-0.000248921
0.000255109
-0.000237441
-0.000325557
0.000300941
-3.08841e-05
0.000203169
-0.000172285
0.000292382
1.28696e-06
-0.000293702
8.22701e-05
0.000136439
-0.000209383
4.46524e-05
-0.000193263
-0.000288413
-4.56509e-06
0.000292568
-1.62921e-06
-0.000287954
0.000146973
-0.000273925
0.000126952
-0.000263057
0.000220349
-0.000294533
0.000266012
0.000279441
-0.000312183
-1.24378e-05
0.000324634
0.000109964
0.000159981
-2.13789e-05
0.000352071
0.000140141
0.000139833
-0.000279973
0.000245029
-0.000250349
5.32002e-06
-0.000210953
0.000180069
0.000279133
-5.43202e-06
0.000350912
-3.27322e-05
-0.00030277
0.000303883
-3.12646e-06
0.000270985
-0.000270985
-0.000365165
0.000226026
0.000139
-0.000204616
1.98763e-05
1.69277e-05
0.000275157
-0.000278461
3.30401e-06
-5.05936e-06
0.000173024
-0.000166294
-0.000197345
0.000254801
-5.74562e-05
-0.000206347
4.301e-06
-0.000224616
0.00015176
7.67363e-05
-0.000180265
0.000261396
-8.11338e-05
0.000256285
-0.000287113
3.08281e-05
-0.000249229
5.18842e-05
-2.34407e-05
0.000275816
-0.000252498
-0.000253547
1.35801e-06
0.000252189
0.000231281
-7.28003e-06
-0.000294047
7.5858e-06
0.000286642
-0.000266085
0.000266085
-0.000284711
-5.5148e-05
-0.000170733
-0.000194364
-0.000172339
0.000213825
-4.47005e-05
-1.232e-05
-0.000239177
0.000251497
3.10801e-06
0.000210113
-0.000213221
-0.000186883
-2.26815e-05
0.000210121
7.59244e-06
0.000294468
-0.000302132
-0.000236153
-1.34401e-05
0.000249593
1.50361e-05
-0.000251189
-0.000241025
0.000256061
-0.000301414
0.000308991
0.000256117
7.16803e-06
-0.000171379
-3.23135e-05
0.000206294
-0.000145237
-0.000134765
-0.000244329
0.000240549
0.000298649
-4.10799e-07
-0.000298238
-0.000298843
5.97404e-07
0.00029825
1.92202e-05
0.000181217
0.000163773
7.70046e-05
-0.000257269
-0.000159242
0.000310908
0.000250721
-0.000108677
-0.000235145
-1.83681e-05
0.000253513
-0.000204625
-0.000126821
0.000331497
-6.10402e-06
-0.000229125
0.000235229
-2.17373e-05
-0.000181183
-0.000285368
-8.50916e-05
6.30138e-06
-0.000300357
-0.000212536
0.000327843
-0.000115457
0.000281597
0.000288205
-5.16322e-05
0.000271993
-1.57081e-05
-0.000185384
-1.39847e-05
0.000198872
0.000297422
4.66771e-07
-0.000297799
-0.000268375
-3.29277e-05
-0.000218821
0.000247605
-2.52529e-05
0.000310582
-0.000285386
0.000177123
7.83228e-06
-0.000183479
-3.3879e-05
0.000216127
-0.000301318
0.000276049
0.000292464
6.09328e-06
-0.000297974
0.000157445
0.00011886
-0.000276305
0.00029025
4.73011e-06
-0.000294978
-0.000241837
0.000108579
0.000122706
-0.000281876
0.000295555
0.000302513
-0.000156857
-0.000145657
0.000207005
-0.000203897
-0.000232009
-0.000121156
-0.000155009
-4.10695e-06
-0.00029402
0.000298177
-1.0136e-05
0.000276249
0.000293639
-2.10071e-05
-0.00026839
-0.00026315
2.84706e-05
0.0002339
0.000271433
-0.000267569
0.000249621
2.95121e-05
0.000315016
-9.76527e-06
-0.000305264
4.99621e-05
0.000161338
-0.000207738
-9.48433e-05
0.000190425
-9.40473e-05
0.000252617
-2.91201e-05
-0.000223497
6.71948e-07
0.000291959
-0.000180612
-3.19706e-05
0.000212302
-1.84502e-06
0.000291588
-9.33244e-05
0.000246933
-0.000255417
-5.26402e-06
0.000121184
0.000181329
1.34121e-05
0.000241557
-0.000254969
0.000236097
1.34961e-05
-0.000249593
0.000249509
-0.000242929
0.000256425
6.32683e-05
-0.000201171
0.000138548
-0.000208446
0.000111713
-0.000200716
0.0002972
1.40051e-06
-0.000298614
0.000253849
2.22881e-05
0.000268493
-0.000216441
-5.20522e-05
0.000225518
-0.000246849
2.13305e-05
0.000257909
1.40841e-05
5.90026e-05
0.00029595
0.000267186
-3.89594e-05
-0.000228226
0.000174776
1.274e-05
0.000240297
-0.000253037
0.000192999
-0.000115281
-8.03043e-05
-0.0002069
2.1594e-05
-1.23676e-06
-0.000297927
0.000299219
0.000218047
-0.000167263
-5.24912e-05
0.000344582
-4.13173e-05
0.000275969
-0.000135829
2.31561e-05
0.000238337
-0.000261493
-0.000231141
0.000254297
-2.66948e-05
-0.00022972
0.000256432
0.000156935
-0.000160836
-8.23139e-05
-0.000174428
-0.000261723
4.14346e-05
0.000220288
-3.17521e-05
-0.00022997
6.55583e-06
0.000261717
-3.25193e-05
-0.000229198
1.6724e-05
0.000119279
-0.000183924
0.000308785
-0.000171397
0.000262319
-3.57923e-05
-0.000226526
-0.000319282
0.000189596
-0.000106131
-0.000228453
-6.90203e-05
-9.63684e-08
-0.00029954
0.000299464
-2.8132e-05
0.000182474
-0.000148483
0.000308084
6.85551e-06
0.000250097
-0.000248249
-1.84801e-06
-0.000177687
6.18359e-05
0.000260283
-3.07302e-05
-0.000229525
0.000197345
-0.000250769
5.34242e-05
0.000254206
-0.000231206
-2.29991e-05
-0.000252337
0.000240017
0.000141669
9.99794e-05
-0.000101864
-0.000170269
0.000132496
-0.000261885
-0.000290249
0.0002422
4.80483e-05
0.000216809
3.12475e-05
-0.000248056
-0.000238895
-9.36976e-06
0.000247532
0.000327121
-2.29219e-05
0.000263996
-3.42721e-05
-0.000229724
0.000136395
-0.000220215
8.61795e-05
3.63259e-05
-0.000265637
0.000229311
-0.000253905
0.000121296
0.000249817
-5.24722e-05
0.000294673
-0.000154253
-0.000140421
0.000122248
-0.000289157
1.53441e-05
0.000237665
-0.000253009
-0.000262031
3.54705e-05
0.00022656
-2.75577e-06
-3.77917e-05
-0.000224239
0.000248641
-0.000272212
-0.000264649
3.44737e-05
0.000230175
0.000193257
0.000101416
-0.000149941
0.000290137
-0.000170781
-3.76544e-05
0.000211019
-1.81721e-05
0.000263201
-0.000292611
0.000310712
0.000115401
0.000102135
0.000261325
-0.000261325
0.000314544
-2.3206e-05
-0.000289844
5.32002e-07
0.000248949
0.000254857
1.65761e-05
0.000309272
-0.000275964
-3.32373e-05
-2.26336e-05
0.000266577
-0.000243943
3.00077e-05
-0.000260519
0.000230511
-0.000252139
0.000229506
0.000329685
3.11501e-05
-0.000260598
0.000229447
0.000276809
-3.16961e-05
-6.60283e-06
-0.000293861
0.000300878
0.000270542
3.88532e-05
0.000230245
-0.000266617
3.63721e-05
0.000201206
-0.00020199
-0.000258301
0.000238533
1.97681e-05
0.000169762
-0.000257245
8.74835e-05
-0.000203632
0.000163241
-0.000249145
8.59043e-05
-0.000266169
0.000224813
4.13562e-05
0.000253073
-2.78797e-05
-0.000225194
0.000183627
4.43423e-05
-0.000234837
-2.29601e-05
0.000257797
-0.000236377
-2.28761e-05
0.000259253
-1.94265e-05
0.000255969
-0.000236542
-0.000259345
0.000239919
-2.90287e-05
0.000173052
-0.000235929
-2.24001e-05
0.000258329
-0.00025484
0.000229192
2.56481e-05
2.94001e-06
0.000211289
-0.000214229
-0.000267031
3.79849e-05
0.000229046
0.000270677
4.48002e-06
4.19597e-05
0.000161559
-0.000213822
-3.31196e-05
0.00024993
-2.10058e-05
0.000218597
9.73004e-05
0.000248195
-0.000216954
0.000276792
-0.000279302
0.000276147
-0.000281264
-1.84997e-05
0.000258601
-0.000240101
-0.000261644
0.000243145
3.0125e-05
-0.000205266
-2.91008e-05
-0.000211007
0.000241739
0.000314918
-0.000287721
-2.74875e-05
0.000261297
-3.11081e-05
-0.000230189
3.28739e-05
-0.000262362
0.000229488
-0.000229853
0.000259645
-2.97921e-05
0.000325607
-1.76712e-05
0.000142652
-0.000213466
0.000256929
-0.000109956
-0.000286728
0.000287908
0.000241977
-6.41202e-06
-0.000235565
0.000228537
-0.000177243
-3.75136e-05
0.000214884
2.75637e-05
-0.000206733
-0.000239989
0.000260317
-2.03281e-05
-0.000101592
0.000190234
-8.4766e-05
3.03233e-05
-0.000198998
0.000240169
-0.000263424
2.32552e-05
-0.000115584
0.000258861
-0.000243993
0.000265721
-2.17281e-05
-0.000238953
0.000232541
0.000258626
-0.000245105
-1.35213e-05
0.000264349
-2.46681e-05
-0.000246317
-0.000272941
-1.0637e-05
0.000297197
-5.38231e-05
-9.57571e-06
0.000290758
-0.000281196
-0.000176216
0.00021162
0.000230588
1.84105e-05
-0.000247985
0.000329237
-0.000329416
0.000260955
-0.000245018
-1.59377e-05
-0.000300747
-5.85992e-07
0.00030511
9.68032e-06
3.77161e-05
0.000169621
-0.000204714
0.000218771
-3.51604e-05
-0.000178358
0.000278054
-0.000255789
-2.22648e-05
-0.000211687
3.15647e-05
3.15421e-05
-0.000261891
0.000230348
0.000285566
-0.000292152
2.44721e-05
-0.000259617
-0.000257965
1.87881e-05
0.000266057
-1.64361e-05
0.000151173
-0.000267625
0.000116452
0.000298894
-4.43769e-06
0.000238617
-7.53763e-05
2.12521e-05
0.000177045
-0.000198297
-0.000183877
0.000205129
-0.000236275
0.000257219
-2.09441e-05
0.000261462
-3.31689e-05
-0.000228293
-0.000197009
-5.21362e-05
0.000251581
-1.48401e-06
8.64439e-06
-0.000264576
0.000254762
-0.000343685
0.000237202
0.000106782
0.000266371
-0.000236811
-2.95597e-05
0.000306795
-0.000314617
7.82277e-06
-2.57041e-05
-0.000229097
0.000254801
0.000261493
-7.64403e-06
1.01811e-05
-0.00021031
0.000262411
-3.19033e-05
-0.000230508
-6.90483e-05
-0.000260653
-0.000194685
0.000248025
-5.33402e-05
-0.000266533
0.000249985
1.65481e-05
-0.000318113
1.66963e-05
-1.7291e-05
0.00029688
-0.000279935
-0.000276221
1.65481e-05
0.000249537
-0.000164664
6.38501e-05
0.000273474
1.48154e-05
-0.000288349
-0.000316145
0.000307897
8.25533e-06
3.46641e-05
-0.000263649
0.000228985
-1.7485e-05
0.000281154
-0.000315224
1.63972e-05
-0.000176541
-7.42283e-05
-0.000238388
0.000209652
-2.16721e-05
-0.000216469
0.000238141
-0.000314614
0.00029594
1.89011e-05
-0.000133526
0.000275631
-0.000142376
-8.40217e-06
3.31521e-05
-0.000263453
0.000230301
-0.000201016
2.48323e-05
0.000179017
0.000221515
0.000280655
-0.000280817
2.31414e-07
-0.000236993
-2.20921e-05
0.000224813
-0.000202721
0.000139273
0.000143753
-0.000278517
0.000200068
-5.68371e-05
0.000308159
-1.0594e-05
0.000209363
-0.000268854
2.92853e-05
0.00022306
-0.000252345
-0.00032212
0.000138669
0.000296339
2.92161e-05
1.9458e-05
-0.000224355
-2.77845e-05
-0.000135759
-0.00013288
-0.000326001
0.000113497
0.000242873
2.56201e-05
0.000218765
-0.000224869
1.10401e-05
-0.000288088
0.00027748
-0.000243247
0.000270034
-2.72005e-05
0.00028147
-0.000281885
0.000287565
-7.62964e-05
-8.86013e-06
0.000290287
-1.87881e-05
0.000247101
-0.000228313
0.000281509
-0.000290379
-5.63736e-06
-0.000283931
0.000289575
0.000282101
-0.000269618
0.0002843
0.000226314
2.67597e-05
-0.000307455
0.000315831
-7.95525e-06
0.000252408
-2.12064e-05
0.000227282
2.44494e-05
-0.000268913
0.000246057
-2.05381e-05
-0.000259401
3.02849e-05
0.000229116
0.000178305
7.64963e-05
1.03663e-05
0.000281054
-0.000290087
-0.000238141
-2.88401e-05
0.000266981
2.51441e-05
-0.000263285
0.000284117
-0.000162317
-0.000232177
0.000261129
-2.89521e-05
-0.000234697
0.000260709
-2.60121e-05
1.44165e-06
0.000279184
2.45001e-05
-0.000259197
2.38001e-05
-0.000255977
0.000274217
-0.000242954
-3.13586e-05
0.00031794
-1.00181e-05
-0.000308874
-1.68707e-06
-0.000255753
1.1816e-05
0.000243937
-1.6743e-05
-0.000261185
0.000228065
-0.000245337
0.000270145
-2.48081e-05
-0.000263229
1.49801e-05
-2.35962e-05
0.000286283
-0.000263019
2.13641e-05
-0.000266701
-0.000241608
-2.14057e-05
3.27896e-05
-9.0432e-05
0.000260194
0.000280784
-0.000286366
5.05122e-05
0.000237693
0.000282057
-0.000281619
-0.000243181
-2.39401e-05
0.000267121
-0.000260894
7.34723e-06
-0.000295089
1.92643e-05
0.000275734
-0.000268717
2.55361e-05
-8.43088e-06
0.000290403
-0.000268326
0.000243549
2.47773e-05
-0.000232513
0.000210841
0.000280221
-0.00028879
-6.16002e-07
0.000260289
-0.000259673
-0.000301985
-1.61376e-05
-0.000264573
2.35481e-05
-0.00024417
-2.41555e-05
-3.43281e-05
-0.000297913
0.000293936
0.000286674
-0.000158327
0.000295869
-0.000289726
2.30152e-05
4.93435e-06
0.00026239
-0.00025528
-7.12971e-06
0.000307621
-2.0253e-05
-0.000287295
5.94672e-05
-0.000246765
-2.19521e-05
-0.000355656
0.000241276
0.00028474
-0.000278051
2.33801e-05
-0.000192119
-1.58083e-05
-0.000306466
2.57332e-05
0.000280816
-0.000196662
0.00031081
-0.000113524
0.000259841
-0.000238533
-2.13081e-05
-0.000291566
2.94001e-05
0.000222097
-0.000251497
-0.000164636
0.000141149
-0.000161341
0.000251441
-0.000238029
-1.34121e-05
-0.000263873
3.40201e-05
-2.23161e-05
-0.000269837
0.000251469
0.000230427
3.12901e-05
-4.68809e-05
0.000208323
0.000232619
-0.000260499
-1.74179e-05
-3.15437e-06
0.000247613
-0.000243638
-0.000293575
-0.000237049
0.000265189
-2.81401e-05
0.000230096
3.22225e-05
-0.000268521
2.55921e-05
-0.000239905
-2.86161e-05
0.000228954
-0.000260706
-0.000282525
4.73202e-05
-0.000242005
0.00029474
-0.000283986
-0.00028877
1.32275e-05
0.000274611
-3.61769e-06
0.000224741
0.000228551
-0.00026107
0.000296885
-0.0001309
-0.000165985
0.000241887
-0.000261805
0.000270296
-0.000226213
-1.76681e-05
-0.000164847
0.000307278
-0.000142475
2.49649e-05
0.000222662
-0.000247627
-0.000193453
0.000195781
-0.000283743
0.000282479
7.01004e-06
-0.000290763
-0.000302485
0.000146693
0.000155793
0.000259995
-0.000239359
-2.06361e-05
-0.000215741
0.000193649
0.000261996
3.47419e-07
0.000257293
0.000232526
2.16798e-05
-0.000295162
-6.23544e-05
1.03992e-05
0.00023146
-0.000249654
1.76562e-05
-0.000230917
-2.37161e-05
0.000254633
-0.000242295
0.000263191
-2.08965e-05
8.30793e-05
0.000134751
2.01555e-05
-0.000305669
0.00028535
0.000256565
-1.80041e-05
-0.000238561
0.000243881
-0.000254017
1.0136e-05
-0.000226745
0.000207957
0.000223131
-0.000258923
-0.000244693
4.76842e-05
1.5978e-05
-0.000137609
-0.000218311
1.57921e-05
0.000245701
0.000280801
0.000293334
0.000305906
1.72811e-06
0.000249817
-0.000220417
2.51749e-05
0.000225009
-0.000250184
-0.000243178
0.000268865
-2.56873e-05
2.28201e-05
-0.000262725
-0.000106297
0.000295937
9.12976e-06
2.08181e-05
0.000261675
-0.000235103
-2.65721e-05
1.31623e-05
-0.000303645
0.000290624
0.000321849
-3.09722e-05
-0.000290816
0.000249733
1.63241e-05
0.000306313
-0.000293087
-0.000230708
-0.000112358
9.63204e-06
0.000250657
-4.9129e-05
-0.00020239
0.000251519
2.20333e-05
0.000246832
-0.000241686
-2.29629e-05
0.000260737
-2.24001e-05
0.000287816
-0.000268023
2.63369e-05
2.68241e-05
-0.000257965
0.000210617
-0.000207677
2.58161e-05
-0.000262865
0.000281417
0.000121744
-0.000256173
0.000134429
1.73209e-05
3.85996e-05
0.000163362
-0.000201522
-0.000239485
-2.85377e-05
3.96589e-05
0.00015956
-0.000198927
-0.000246691
0.000271066
-2.43747e-05
0.000209866
-0.000248826
1.98857e-05
1.73274e-05
-0.000174088
-3.06051e-05
0.000226696
-0.000257411
-2.88401e-05
0.000244245
-0.000215405
-2.16161e-05
0.000242985
-0.000221369
0.000201657
-0.000250786
-0.000273549
-0.000232905
-2.55081e-05
0.000258413
0.000241234
2.98318e-05
-0.0002094
-2.44671e-05
0.000234657
-2.18821e-05
-0.000224967
-0.000239345
6.28042e-05
0.000259004
-0.000229718
4.75106e-05
-0.000249901
-3.43393e-05
0.000257694
-0.000223354
0.000205675
-0.000240014
0.000261689
-1.1956e-05
-6.06763e-05
-0.000229572
-0.000226366
-1.70427e-05
0.000244049
0.000247109
5.3175e-05
0.000212448
-0.000265623
-0.000261103
0.000177353
-0.000231757
5.44042e-05
6.407e-05
0.000136184
0.000259457
-0.000240915
-2.47224e-05
-0.000265385
0.000227165
3.82201e-05
-2.87813e-05
-0.000222158
0.00025094
-0.000284722
0.000264161
0.000234501
3.61761e-05
2.18821e-05
0.000234087
-0.000307217
0.000151089
0.000156129
0.000167389
-5.19009e-05
0.000254045
-0.000115192
2.56901e-05
0.000217446
-0.000243136
-0.000286234
0.000286763
9.20574e-06
0.000257377
-0.000245953
0.000208937
3.70161e-05
0.000254832
0.000244943
-1.94549e-05
-0.000246815
-2.02161e-05
-0.000263019
2.0724e-05
-0.000269215
2.24001e-05
2.79601e-05
0.000220024
-0.000247984
0.000242481
-0.000274597
1.32721e-05
0.000246645
-1.40697e-05
1.21758e-05
-0.000250625
-0.000328744
0.000124118
-0.000233135
-2.62109e-05
-0.000252113
0.000252113
0.000259782
-0.000144217
-1.85845e-05
-0.00027908
0.000296896
0.000271855
0.000258749
-0.000135913
0.000224113
2.39205e-05
0.00023468
7.86145e-05
-0.0003427
3.77185e-05
0.000258962
1.76364e-05
-0.000248843
-3.00917e-05
0.000207453
-3.01001e-05
0.000259701
2.95429e-05
0.000218353
-0.000247896
-3.05014e-05
-4.09782e-05
-0.000217818
0.000258797
-0.000233423
-2.14173e-05
3.72141e-05
-0.000196922
0.000162722
-3.30877e-05
0.000221671
-0.000255943
-0.000281826
-8.35364e-06
0.000290226
-0.000195565
0.000165475
0.000166349
8.16763e-05
1.28183e-05
-0.00029462
0.000235075
2.59446e-05
-0.000261019
-0.000197167
-1.37105e-06
0.000232743
-0.000264287
3.15449e-05
-8.42803e-06
-0.000217029
0.000225457
-0.000160554
0.000199977
-0.000249985
-3.46025e-05
0.000256274
0.000218076
-0.000252679
-0.000246289
0.000272245
-2.59561e-05
0.000253547
2.78321e-05
-0.000232062
-2.95821e-05
-0.000298426
0.000316604
-1.82134e-05
2.34176e-05
0.000212462
-0.000250254
-0.000267233
2.09441e-05
-2.12801e-05
-0.000245953
-3.61481e-05
0.00024861
-0.000290064
-1.36582e-05
0.00022082
-0.000256968
0.000247529
-0.000249571
1.57761e-06
2.80002e-06
0.000181413
-0.000184213
0.000255294
0.000234529
2.67681e-05
-2.62361e-05
0.000245001
-0.000218765
3.36001e-05
0.000216609
-0.000250209
0.000244861
2.73841e-05
0.000306545
-0.000143949
-0.000162597
1.6384e-05
0.00023875
-0.00025515
0.000271013
-0.000113568
0.000225569
-0.000256677
-0.000241581
0.00010474
-0.000265469
7.16803e-06
-0.000241635
-2.75801e-05
-0.000241361
-2.48081e-05
0.000310595
-2.75809e-05
-7.67483e-05
0.000243097
-1.1452e-05
-0.000215601
0.000224281
-8.68003e-06
0.000255193
-7.68883e-05
3.47277e-05
-0.000198151
0.000163668
-0.000265245
-1.40001e-07
-4.14962e-05
3.99331e-05
0.000159808
-0.000196794
0.000199748
-0.000164811
0.000257041
-7.05603e-06
0.000251151
-0.000218277
-1.82002e-05
-2.1128e-05
0.00027626
-9.58825e-05
-0.000180699
-1.42801e-05
-0.000191913
0.000206193
0.000258665
-1.53553e-05
-0.00024331
1.98101e-05
0.000238855
-0.000279266
-8.09659e-06
3.66026e-05
-0.000194202
0.000155979
1.36921e-05
0.000247997
-0.000160802
0.000196198
-1.95189e-05
0.000248711
3.37606e-05
0.000186198
-0.000220581
-4.17202e-06
-2.49389e-05
0.000265108
-0.000231955
-3.14693e-05
0.000297011
-0.000281812
-1.52755e-05
1.63717e-05
-0.000237659
0.000221288
-0.00010514
0.000226885
1.9327e-05
-0.000305138
0.000285956
2.52001e-05
-2.79441e-05
2.69165e-05
0.00030901
-0.000289579
0.000238891
1.97345e-05
2.15601e-06
0.000231617
-0.000233773
-0.000310732
2.57205e-05
0.000285008
-0.000162177
-0.000144145
0.000209178
-0.000250156
-0.000161704
0.000241924
1.90317e-05
0.000256705
-4.13534e-05
0.000250531
0.000214498
-0.000255851
0.000318752
-0.000319352
-1.06269e-05
0.00028672
-0.000275935
-0.000302405
1.94901e-05
0.000282995
4.20842e-05
-0.000286413
-3.93988e-05
0.000252483
2.62921e-05
-2.2131e-05
0.0003072
-0.000285124
2.43321e-05
3.94683e-05
0.000161095
-0.000203013
0.000249294
-0.000219751
2.83277e-05
-0.000261633
4.36802e-06
-1.99954e-05
0.000306643
-0.000286663
-0.000250987
-0.000266673
3.07441e-05
0.000252141
-0.000236741
-1.54001e-05
1.2264e-05
0.000239877
-0.000275799
-1.28505e-05
0.000255697
-5.26005e-06
0.000320278
-1.21299e-05
0.00029859
-0.00028639
-4.89528e-05
0.000247437
-0.000235621
0.000257601
-1.99361e-05
0.000123069
7.91232e-05
-0.000201942
0.000209901
3.03493e-05
0.000226759
-0.000258662
3.71393e-05
0.000271878
-0.000288547
1.69409e-05
0.000251273
-0.000239093
-1.31321e-05
0.000252225
-2.91201e-05
-0.000257265
2.56481e-05
0.000231617
-0.000228005
-2.92601e-05
0.000259765
-0.000233571
-2.61941e-05
0.000258721
-0.000267113
2.23103e-06
0.000289104
1.30918e-06
-0.000290593
0.000248153
-0.000232056
-1.85921e-05
0.000308807
-0.00030084
-8.00193e-06
0.000241353
-0.000100079
-0.000266897
2.56761e-05
0.000241221
-3.48881e-05
-0.000232009
-0.000266393
2.51161e-05
0.000241277
-1.1768e-05
-0.000266452
0.000278662
-3.45241e-05
-0.000231869
-0.000261736
1.84187e-05
-0.000266281
2.43881e-05
0.000241893
-0.000284027
-2.16011e-05
-0.000306372
2.76783e-05
0.000278553
-3.34041e-05
-0.000232877
-0.000167665
-0.000258133
2.94001e-05
0.000228733
0.00030848
-0.000308503
-0.000195805
0.000209049
-3.29281e-05
-0.000225205
0.000197574
-0.000279054
8.17165e-05
0.000283702
2.24399e-05
-0.000301953
1.76961e-05
0.000285425
-0.000280688
-4.76804e-06
-0.000257125
0.000231617
2.55081e-05
0.000175423
2.90904e-05
-0.000201652
-0.000266953
2.81681e-05
0.000238785
-0.000227361
-2.97641e-05
-3.67361e-05
-0.000230217
0.000277029
0.000297428
1.91253e-05
-0.000276043
-3.15534e-05
0.000307408
-0.000258679
-1.08058e-05
0.000297983
-0.000287143
1.49539e-05
-0.000301662
0.000286694
-0.000230609
-0.000307328
0.000287281
0.000263005
-2.55919e-05
-0.000280812
1.36081e-05
0.000167171
0.000230758
1.90196e-05
-0.000250724
-0.000199858
0.000162936
0.000236738
1.31517e-05
-0.00024989
-0.00025833
2.66093e-05
0.000231721
-1.09228e-05
0.000247661
5.74002e-06
0.000246877
-3.19817e-05
-0.000226348
0.000299673
-0.000285745
-1.38573e-05
0.000228024
-0.000226666
0.000289913
0.000237685
1.98521e-05
-0.000257537
-1.24236e-05
0.000250108
0.000246636
1.50389e-05
-0.000305466
1.54058e-05
0.00024448
2.18905e-05
3.25264e-05
-0.000201088
-0.000287315
-1.77105e-05
-0.000182869
0.000295177
-0.000151532
0.000188399
-3.31832e-05
3.13789e-05
-0.000202083
0.00016876
-0.000167884
0.000259149
-0.000239236
-1.99137e-05
0.000261428
-0.000272961
-0.000241385
0.000231022
-2.1904e-05
0.000301334
-0.000279454
0.000307747
-0.000292803
0.000242117
1.77241e-05
-0.000224975
0.00024443
-1.94545e-05
1.61001e-05
-0.000241075
-7.00003e-06
0.000260989
-0.000297044
4.86063e-06
0.000292193
-0.000174497
0.000160217
-1.74105e-05
-6.24311e-06
-0.000290802
-1.67721e-05
-0.00028503
4.28402e-06
-0.000299184
0.000135413
-0.000257452
2.37076e-05
0.000233737
0.000238197
1.32441e-05
-3.08215e-05
-0.000226623
-3.30582e-05
-0.000291415
2.07486e-05
-0.000228907
0.000207138
0.000254969
-0.000233465
-2.15041e-05
-0.000198406
0.000219448
-0.000183286
-7.37582e-06
0.000206245
0.000133923
0.000140074
4.07092e-06
0.000271454
0.000279954
-0.000305535
3.01029e-06
0.000243734
-1.98375e-05
0.00029869
-0.000278834
-0.000302201
0.000287355
1.47643e-05
-0.000258301
0.000230077
2.82241e-05
-2.64041e-05
-0.000231897
0.000300855
-0.000300863
0.000267488
-2.00056e-05
0.000304577
-0.000284547
0.000286252
-7.15243e-07
-0.000256873
0.000256873
-0.000268236
0.000295713
-0.000148955
-6.81971e-05
-7.17599e-06
0.000294342
-0.00028705
-0.000297608
0.000290752
0.000291726
-0.000279093
0.000291831
-0.000306431
1.47815e-05
3.36796e-05
-0.000238907
0.000215059
2.2444e-05
-1.45805e-05
-0.000248312
0.000230759
-1.42362e-05
0.000298506
-0.00028432
0.000263481
-1.96001e-05
0.000254224
-0.000235464
-1.87601e-05
-3.10254e-05
-0.000273884
0.000304833
1.43359e-05
-0.000297108
0.000282894
-1.45881e-05
0.000233465
-0.000218877
0.000211472
-0.000295573
0.000283044
-1.92828e-05
0.00030472
-0.000285496
0.00025102
-2.6916e-05
0.000297298
-0.000270403
-0.000295873
0.000268916
1.07156e-05
0.000244749
-0.000255465
0.000305208
-0.000311944
6.78603e-06
1.80388e-05
1.47977e-05
0.000286254
-0.000302326
6.26922e-06
0.000282693
2.31464e-06
-0.000318381
-0.000289397
0.0003043
-0.000242481
0.000243657
8.45603e-06
-0.0002264
0.000242772
-0.000293589
0.000274345
0.000285034
-0.000141401
-7.97041e-05
0.000294526
1.45443e-05
3.17327e-05
-0.000198226
0.000168862
-0.000274514
0.000257293
-0.000219535
0.00024982
0.000243411
1.92865e-05
-0.000262697
0.000236019
2.31309e-05
-0.000300958
0.000282228
0.00031252
-1.80089e-05
0.000237945
-0.000257069
1.91241e-05
-0.000222494
0.000247459
0.000294347
1.80576e-05
-0.000165912
-1.45942e-05
0.000298117
-0.000283417
-0.000141694
-0.000266415
0.000159993
0.000106423
-0.000309132
0.00029542
1.3679e-05
-0.000258699
0.000241826
1.68729e-05
-0.000161073
0.000158452
-0.000306406
0.000288555
1.78875e-05
-0.000215948
0.000177546
-9.69084e-06
0.000253101
2.04679e-05
1.75979e-05
-0.000304372
0.000286775
-0.000300621
-7.13066e-06
0.000307856
-0.000249229
0.000220109
-0.000201153
-8.52603e-05
-0.000272409
0.000250003
0.000303909
-0.000286394
-0.000191074
1.80742e-05
1.50855e-05
0.000284432
-0.000299463
-8.80603e-05
0.000239233
-0.000303572
1.95072e-05
0.000284094
-0.000209239
-2.50913e-06
-0.000297792
-0.000165309
2.05297e-05
0.000302073
-0.000287763
-1.47109e-05
-0.00017429
-0.000299333
-0.000175804
-2.2799e-05
0.000243528
0.000289467
1.71642e-05
0.000252869
5.77536e-05
-0.000285025
-0.000247213
-0.000271448
-2.3406e-05
-0.000274688
0.000300473
-0.000263013
0.000282365
-0.00016214
-4.09618e-05
0.000204784
0.000197569
1.56521e-05
-0.000213221
-1.24533e-05
-0.000285883
0.00029858
1.83597e-05
1.85628e-05
-0.000305529
0.000286933
0.000253345
-1.71361e-05
-0.000236209
1.89237e-05
-0.000304772
0.000285828
2.03561e-05
0.000232989
0.000216385
-2.46121e-05
-0.000191773
1.57483e-05
0.000282475
-0.000298269
-0.000251603
0.000118224
-0.000303739
1.86398e-05
0.000285098
0.000230225
-5.36212e-05
-0.00029709
1.24709e-05
0.000285987
0.000255837
-2.19801e-05
-0.000233857
-0.000303795
0.000106246
0.000234529
1.70521e-05
-0.000251581
0.000280235
1.6875e-05
0.000304114
-0.000285201
1.79491e-05
-0.000299703
0.000233512
1.84916e-05
-0.000252004
-1.89934e-05
-1.41886e-05
0.000298547
-0.00028434
-0.000280075
0.000299417
-0.000278354
0.000292305
-0.000301561
1.07118e-05
0.000249741
-1.62291e-05
1.1593e-05
0.000250041
-1.55121e-05
0.00029837
-0.000282536
3.95922e-05
-0.000238005