/*--------------------------------*- C++ -*----------------------------------*\
  =========                 |
  \\      /  F ield         | OpenFOAM: The Open Source CFD Toolbox
   \\    /   O peration     | Website:  https://openfoam.org
    \\  /    A nd           | Version:  12
     \\/     M anipulation  |
\*---------------------------------------------------------------------------*/
FoamFile
{
    format      ascii;
    class       volScalarField;
    location    "7.85";
    object      T;
}
// * * * * * * * * * * * * * * * * * * * * * * * * * * * * * * * * * * * * * //

dimensions      [0 0 0 1 0 0 0];

internalField   nonuniform List<scalar> 
22702
(
1
1
0.955768
1
1.01811
1
1.12071
1
1
0.9063
1.12027
1.12107
1
1.11857
0.963366
1
1
1
1.12037
1
1.1186
1
1.12032
0.89987
1.1181
0.866517
1
1.12021
0.897743
0.902091
1
1.12101
1
1
1
1.11047
1.11828
1.12033
1
1
0.894274
1
1.06161
1
1.12022
1
1
1
1
0.896976
1
0.897854
1
1.12022
1
1.1207
1
1
1
1
0.885112
1
1
0.897135
1
0.892563
1
1
1
0.890633
1
1.11835
1.07624
1
1.11785
1.12403
0.898291
1.1196
0.896319
1
1.12095
0.898288
1.11993
1.11949
1
1
1
1
0.97691
0.899968
1.12207
1
1
0.896057
1
1.11871
0.897053
1
1
1
1
1.06185
1.12073
0.869764
1
1
1.03247
1
0.897188
1
1.12003
1.12061
1
1
0.875525
0.87714
0.903907
1
1
1
1
1
0.973206
1
1.1029
1.01271
1.11891
1
1.119
1.12073
1.11834
1.12057
1
0.884631
1
0.884813
1
1
1
1
1.12089
1
1
1
1
1.11851
1
1.00836
1
1
1
1
0.895489
1
1.0031
1
0.898444
1
1
1
1.12147
1
1.11931
0.888743
0.883174
1.11781
1.11874
1
1.02354
1.07228
1
1.12003
0.896013
1.11069
1
1
1
1
1.11864
1.09676
1
1.12116
0.895492
1.12022
1
0.89841
1
0.90032
0.872863
0.999935
1
1
1.11991
1
1
1.11832
1
1.12027
1.12096
0.896988
1
1
0.899184
1.11857
1
1
1
1.11857
1
0.894949
1
1
1.11858
1.11857
1.12006
1
1.00001
1
1
1
1.11858
1
0.891977
1.12226
1.11831
1.11847
1
1
1
0.889177
1.11844
1.06114
1
1.11894
0.888896
0.89211
1.11897
1.11817
1
1.12038
0.877788
1.10613
1
1
1
1
1.1186
1
1.07131
1.01261
1
1
1.11869
0.894181
0.921378
1
1.11884
0.893265
1.12041
1
1
1
1
1
1
1
0.893981
0.920512
0.889788
1.11848
1
1
1
1
1.10869
1
0.895905
1
0.890027
0.899027
1.1187
0.89533
1.1186
1
1
1
0.999296
0.896183
0.893473
1
1
0.884716
1
1.12068
0.871548
1
1
1.12079
0.900136
1
1.11959
0.884339
1.11867
1
0.895787
0.999321
1
1
1
0.893285
1
1
1
1
1.00555
1.07612
1
0.881296
1
1
1
1
1
1
1
1.12055
1
1.12034
1
1
1
0.890012
1
1.11878
0.893775
1
1.09673
1
1
1.12089
1
1
1
1.12011
1
1
1.1172
1.12084
1
1.02726
1
1
0.889166
1
1
1
0.896742
1
1
1
1
0.877427
1
1
1
1
1
0.898136
1.00002
1.11912
1
0.999998
1.11849
1.11801
1
1
0.902526
0.951388
1.12099
1
1
1
1.11853
0.887213
1
1.11918
1
1
0.904084
0.904748
1
0.892749
0.886592
1
1
1
1
1
1
1
1.11903
1.03227
1.11204
0.899854
0.975197
1.12133
1
1.1177
1.12071
0.886142
0.934892
1
0.893025
1
1.12412
1
1
1
1
1.1185
1
1
1
1
1
1
1
1.04629
1.12088
1
1.1185
1
1
0.900449
1
1
1
1
1.11859
1.09312
1
1
0.892468
1.11825
1.11858
1
1.1186
1.11827
1.11855
1
0.958382
1
1.11849
1.00045
1.11852
1
0.889524
0.999658
1.12059
1
1
1
1
0.894774
1.11864
1.10856
1
1.11883
1.11845
1.12082
1
1.05756
1.11837
1
1
1.08529
1.01854
1.11856
0.97957
1.11856
1
1.11857
1.11856
1.11857
1.11831
1
1.11224
0.976681
0.969455
1
1
1
1
1.11844
1
1
1
1
1
1.12076
1
1
0.998879
1.11862
1.10686
1
1.10684
1.00001
1
1
1.11887
1
0.999155
1.00122
1
1.11851
1
1.1184
1
1
1.08978
1
1.11844
1.00001
1
1.11888
1
1.11862
1
1
1
1.11851
1
1.11762
1
1.11853
1.12078
1.11853
1.11915
1
1.12029
1.11776
1
0.902313
1.11211
1.08726
1
1.11839
1
0.893378
0.884917
1
1
1
1
1
0.896219
1
1.11847
1.0351
1.11865
1
1
1
1
1
1.11855
1
1.12005
1.07414
0.941916
1
1
1.03572
1.03171
1
1
1.04467
1
0.901893
1.11862
1.11857
1
1
1
1.12084
1
1.00001
1.11885
1.11857
0.984849
1
1
0.897799
1.10864
1
1
1
1
1
1.11861
1.1208
1
1.11884
1.11833
1.11863
1
1
1
1
0.871681
1.12061
1
1
1.10871
1.11836
1
1.11231
1.12041
1
1
1
1
1
1.11853
1
1
1
1
1.11925
1
1.11641
0.89113
1
0.885263
1
1
1
0.999136
0.8982
0.999721
1
1
1
1.01863
1
1
0.958379
1
1
1
1
1
1
1
0.999999
0.981754
1
1
0.99931
1
0.895018
1
1
1
1
1.09118
1
1
1
1
0.893899
1
1
1.11229
1.12033
1
1
1
0.969953
1
1
1
1
1
1
0.984892
1.00572
1.11862
1
1
1
1.11857
0.967964
1
1
1
1.12089
1.11822
1
1
1
1
1
1
1
1
1
0.889593
1
1
1.11944
0.893574
1
1.11912
1
0.896383
1
1
0.88824
1
1
1
1
1
1
1
1.11659
1.1185
1
1
1
1
1.10906
1
1.04058
0.897989
1
1
1
1
1
1
1
1.01088
1
1
1.06862
1
1
1
1.1
1
1
1
1
0.892008
1
1
0.882938
0.892484
1
1
1.11836
1
1.00801
1
1
1
1.08544
0.884367
1
0.882578
1
0.932908
1
1
1
1.11914
1
1
1.11851
1
1
1
1.11855
1
1
1.11891
1
1
0.886484
1
1.04013
1
1
1.12125
1.1211
1.08182
1.10671
1
0.890378
1
1
1.11377
1
0.892364
1
1
1
1.11861
1
1
1
1
1.07448
1
1.11667
1.11942
0.900589
1
1
0.868779
0.867257
1
1
1
1.08667
1.09201
1
1
1
1
1
1
1
1.0549
1.12015
1.00244
1
1.11734
0.882015
1
1
1
1.06663
1
1.02552
1
1.10908
1.11818
1
0.888506
1
1.12052
1
1
1.11863
1.11208
1
1.12106
1
0.898878
1
1
1
1.12055
1.1165
1.10526
1
1.11956
1.11826
1
1.11866
1
1.11822
1
0.892802
0.995097
0.890513
1
1
1
1
1
1.11863
1
1.11869
1
1
1
1.11327
1
0.897593
1.11836
1
0.898606
0.896948
0.893111
1
1.06087
1.01243
1.11908
1.11829
1
1
1
1
1.11841
1
1
1.1184
1.11833
1
1.04471
1.00004
1
0.99905
1.12043
0.95925
1
0.949133
0.898009
0.902239
0.994974
1.12005
1.11713
1.02726
1.11862
1.11842
1
1
1.11965
1.11978
1.11865
1.12054
1
1.11862
0.90241
1.1183
1.11861
1.11902
1.11942
0.959548
0.968272
0.981075
1.11883
0.990338
1.11915
1
1
1.11912
1.11865
1
0.892866
1.11914
1.11861
1
1.11859
1.11865
1
1.11842
0.894879
1.11921
1.11983
1.12061
1.11967
1
1
1
1.11866
1.08058
0.881782
1.11859
0.888036
1.1186
1
1
1
1
1.11831
1.1187
1
1
1.11863
0.887256
1.11848
0.89578
1
1.11782
1
0.903288
1.11888
0.914779
1
1.11832
1.1192
1.11879
1
1
1.05641
1.11903
0.896674
1.11842
1
1.11863
0.96695
1.11847
0.886826
1
1.11815
0.90288
1.11911
0.897346
1
1.11859
1
1.11997
1
1.07313
1.11471
1.09517
0.881504
1
1.11892
1
1.11867
1
1.11864
1
1
1.11878
0.997461
1.11913
0.903505
1.1126
1
1.08738
1
1.11908
1.11859
1.11887
1
1.10746
1.11902
1.11017
1.07574
1.1184
1
1.08137
1
1.11867
1
1.01958
1
1.11079
1
1.11868
1.11351
1.11341
1
1.11789
0.876641
1
0.890462
1
1
1
1.12079
1
1.11872
1
1
1
1.11873
1.11441
1.09823
1.11821
1.11785
0.886081
1.11971
1.12126
1
1.10387
1.1186
1.11221
1
1.12023
1.12086
1
1.12038
1.11846
1.11901
1.1188
1
1
1
1.11866
0.874859
1
1.11866
1
1
0.889481
1
1
1.11859
1.1178
1
1.11856
1.11803
1.11802
0.995292
1.11844
1
1.11849
1.1185
1.09711
1
1
1
1.11868
1.11818
1.11847
0.985258
1
1.1211
1.11807
1.11857
1
1.11847
1.11866
1.11839
1.12051
1
1.11872
1.11921
1.10486
1.11782
1.11974
1
1.11781
1.11741
1.11843
1.11775
1.1178
0.885535
1.1189
1.11831
1
1.1185
1.11841
1.11847
1.11865
1
1.11857
1.11854
1
1.11877
1.10127
1
1
1
1.11811
1.11896
1
1
1.06642
1
1.11851
1
1
1.11854
1.1189
1.11819
1.11834
1
1
1
1.08789
1
1.11861
1
1
1.11972
1.11994
1
1.11862
0.886938
1.11848
1.11915
0.911757
1
0.881213
1.10575
1.11966
1.11882
1.11888
0.890316
1.11889
1.11886
0.889927
0.88299
1
1.11827
1.11887
1
1
1.11863
1
1.119
1
1.10454
1
1.06029
1.11889
1.11913
1.08873
1.10664
1.12111
1.11906
1.1123
1
0.882528
1.11808
1.11893
1.12013
1
1
1
1.1206
1
1.1187
1.11833
0.925962
1
1.11864
0.999983
1
1.00001
1.00001
1.11891
1.11807
0.999561
1
1
1.11869
1.119
1.11852
1.11837
1.11898
0.888356
1.10217
1
1.11786
1.11786
1.11836
1.1187
1
1.11851
1.11564
1.11887
1
1.11912
1.11827
0.955751
1.11842
1.11897
1
1.11846
0.947282
1.11854
0.95996
1.11856
1
1.1186
1.12392
1.11858
1.11865
1.11859
1.11824
1.11874
1.119
1
0.98141
1.11883
1.1187
0.952542
1.11863
0.995308
1.07717
1.11845
1.1178
1.11869
1
1.11911
1.07818
1.11845
0.976756
1.11904
1.11974
1
0.963031
1
1.12026
1
1.08457
1
1.11205
0.964926
1
1.11876
1.11633
1
1.11886
1.11913
1.11739
1.11612
1.11782
1
1.12027
1
1
1
0.973959
1.11864
1.11843
1.12002
1.11862
1.11986
1.12006
1.11761
1.11869
0.97461
1.00837
1
1
1.12373
1.11868
1.11856
1.11872
1.00001
1.06453
1
1.12034
1.1053
1
1
0.921988
1.11847
1
1
0.902599
1.11853
1
1.12101
1.11862
1.1212
1.11454
1.11858
1
0.883704
1.03202
1.11866
1.11859
1
1.11855
1.11857
1.06067
1.00249
1.02781
1
1.1205
1.11846
1
1
0.890075
1
1
1.1186
1.11866
1.11921
1.11857
1.11864
1.11997
1.11865
1.11878
1.11856
1
0.998916
1.11889
1.11871
0.999141
1.11864
1.11853
0.888305
0.897566
1.11809
1.11942
1
1
1.00028
1.11864
1.11897
1.11864
1
1.1186
1
0.955223
1.12041
1.11765
1
1.05674
1.11828
1
1.12023
1
1.11872
1.08184
1.11862
1
1.1187
1.11764
0.888974
1.11862
1
1.11823
1.11976
1
0.888802
1.11753
1.10096
0.999336
1.11886
1.11842
1
1.00216
1.11838
0.99934
1.11848
1
1
1.1188
1
1.11809
1.11851
0.999044
1.09613
1
1.11841
1
1
1
1
1.11876
1
1
1.11797
1
1.11845
1
1.07891
1.12014
1.11835
1
1
1.00171
1
1.11843
1.11857
1.11842
1.11849
1.11848
1.11851
1.11858
1
1.11867
1.11876
1
1.1186
1.11866
1
1.11871
0.98132
1.01654
1.11865
1.11856
1.11815
1
1.11855
1
1.1186
1.11853
1
1.11864
1
1
1
1
1.11865
0.883237
0.999412
1
1.11834
1.11849
1
1.11846
1
1.00152
0.896252
1.11859
0.999879
1
1.11834
0.999543
1.1185
1
0.999931
1
1.11845
1.11851
1.11841
1.11961
0.897893
1.11852
1.11809
1.11881
1.03247
1
1
1.05437
1.11874
0.882149
0.898372
1
1.11851
1.11851
1.11831
1
1
1.11866
1.11852
0.999964
1
1.08732
0.886844
1
1.02293
1.12027
1.11786
0.999494
1.11879
1.12149
1
0.99973
1
1.11894
1.12009
1.05076
1
1.11423
1
1.00052
1.11884
0.891074
1.11837
1.11879
0.999119
0.999975
1.10399
1
0.99991
1
1.11916
1
1
0.882561
1.11855
1
1
1
1
1.12004
1.0712
1
1
0.89185
1.11853
1.07128
1
1
1
1.11366
1.11415
1.1198
1
1
1.11914
1
1.11876
1.11817
1
1
1.11869
1.11851
1.114
1
1
1.11882
1.11893
1
1
1
1.11939
1
1
1
1.1191
1.12022
1.1192
1
1.12023
1.00001
0.912224
1.11843
1.11833
1
1.12054
1.11352
1.12049
1
1
1.12011
1
1.06523
1.1181
1
0.890249
1
1.11894
1
1
1.11867
1
1
1
1.0392
1.11841
0.907137
1
1.11893
1
1
1.11852
1
1.11983
1
1
1.11858
1.11862
1
1.00001
1
1
1
1
1
1
1.11989
1.1185
1
1.12073
0.887984
1.1196
1
1.11851
1.11998
1.1185
1.11687
1.12223
1
1
1.11861
1
1.07711
1.11877
1.11847
1
1.11921
1.11643
1
1.11034
1
1.11859
1.07973
1.11816
0.999272
1.11521
1.11135
1.11802
1.11879
1.01022
1.1185
1.1191
1
1.11848
1
1.11875
1
1
1
1
0.999088
1.11877
1.11884
1.09888
1
1.11963
1
1
1
0.86799
1
1.11676
1
1.10829
1.11658
1
1
1
1.11358
1.11966
1
1
1.11822
0.891581
1.02204
1
1.11912
1.11865
1.10884
1.11654
1.11868
1
1.11899
1
1
1
1
1.11864
1.11849
1
1.11478
1.01694
1.11854
1.11134
1
1
1.11153
1
1
0.891285
1.08619
1
1
1.1206
1
1.11918
1.10983
1
1.10895
0.893869
1.11902
1.11866
1.11879
1
0.889444
1
1
1
1.11835
1.0984
1
1.11946
1.11835
1
1.11854
1
1
1
1
1.11859
0.999823
1
1.11871
1
1
1.11994
1.11859
1
1.11927
1.02474
1.00001
1
1.11849
1
1.11846
1
1.0039
1.11841
1
1.11849
1
1
1.04284
1.11883
1
1
1
1
1
0.99881
0.886988
0.88648
1.00617
1
1.00834
1
1.0083
1
1.11841
1
1.07716
1
1.1186
1
1
1
1.11858
1
1.09602
1.11839
1
1.06705
1.11857
1
1
1.12055
1.11867
1
1
1.01507
0.882034
1
1.11919
1
1
1
1
1.02156
1.1184
1
1
1
0.89615
1
1.11861
1.11803
1.12139
1
1
1
1
1.06278
1.12104
1
1
1
1.11835
1.11852
1.01551
1
1
1
1.11855
1.11847
1
0.88901
1.11889
1.11855
1.11893
1.11907
1.11923
1
1
1.11944
1.11849
1.11854
0.896766
1.01206
1.11826
1
1
1
1
1
1.11847
0.896825
1
1
1.11851
1.05551
1
1.12066
1
1
1
0.890948
1
1
1.03451
1.1186
1.11859
1
1.12106
1.11811
1
1.02186
1
1.11937
1
1.11827
0.892287
1
1
1
1
1.11852
1.00002
1
1
1
1.1113
1
1
1
1
1.11864
0.890325
1.09508
1.11902
1
1.11867
1
1
1
0.999181
1
1.11958
1
0.939549
1
1
1.00001
1.11876
0.895751
1
1.11923
1
1.11896
1.11865
0.897445
1
1
1.11611
1
1
0.899471
1
1.11671
1
1.11381
0.999803
1.1184
1
1
1
1
1.11947
1
1
1.11853
1
1
1
1
1
1
1
1
1.07989
1
1.04072
1.11853
1
1
1
0.888067
1
1
1
1
1.1182
1.1184
1.01688
1
1
1.11888
1
1
1.11883
1
1
1
1
1
1
1.11869
0.935045
1.11849
1.11881
0.999115
1
1
1
1.07246
1
1
1.11847
1.11873
1
1
1
1
0.895611
1
1
1
1.07448
1
1.11847
1.11934
1
1.11896
1
1
1
1.06756
1
1.12058
1
1.11849
1
1
0.99894
1.11852
1
1
1
1
1
1.11846
1.00001
1
0.893086
1.11983
0.894059
1
1.11859
1
0.998872
1
1.11882
1.11941
1
1.11984
0.966222
1.11856
1.1205
1.00001
1
1
0.887984
1
1
1
1.11854
1.07127
1.119
1
1
1
1
0.999084
1.11827
1
0.89236
1
1
1
1
1
1
1
1.11966
1.11889
1.11945
1
1
0.999132
1
0.993943
1
1
1
0.888228
0.994795
1
0.88699
0.889248
1
1.11872
1.11859
1
1.11786
1.11849
0.88878
1.07955
1
1
1
0.89318
1.1188
1
0.892496
1
1.1208
1.02192
1
1
1
1
1.11855
1.12018
1
1
1.11859
1
1
1.11971
1.11858
1
1.10925
1.11859
1.11945
0.989238
1.11857
1.00238
0.889924
1.09335
1.1187
1
1
1
0.891879
1
0.887977
1.11856
0.986844
1.11854
0.988331
1
1.11832
1.05665
1
1
1.11838
1
1.05294
1.11881
1
1
1.11746
1.1209
0.882582
1.07698
0.999969
1
1.07502
1
1.11931
0.986992
1.12156
1.11997
1
1
1
1
1.11999
1
1
1.11912
0.999896
1.11866
1.09586
1.1185
0.895293
1
1
1
1
1.11864
1.00001
1.11849
1
1.11885
1.11907
1.01611
1.11969
1.04032
1.11894
1
1.0836
0.895422
1.11961
1.11856
1.09619
1.02247
1.11985
1.11849
1.11849
1.1188
1
0.973943
1.01909
1
1.11856
1.06065
1.11824
1.00001
1
1
0.903259
1.1189
1.1196
1.09761
1
1.05003
1
1.11992
1.11907
1
1.11819
1.11933
1
1
1
1.11813
1
1.04872
1.11937
1.08562
1
1.11824
1
1
1
1
1
1
1
1
1
1
0.903325
1
1.11357
0.886908
1.07243
0.999597
1.11908
1
1.06779
1
1.07907
1.1027
1
1.00055
1.11899
0.973672
1
1.11848
1.11481
0.986264
1
1.1196
1.11884
1.11901
1
1.11882
1.11868
1.11842
1
1.05617
1
1.00002
1.11839
1
1.11881
1.01857
1.11817
1
1
1.11837
1.11872
0.89843
1
1.11898
1.09108
1.11841
1
1
1.11964
1.11854
0.999496
1
1.10525
0.999083
1.11864
1.00001
1
1
1
1
1.05711
1
1.09423
1.118
1.09074
1.11896
1
1.00094
1
1
1.1193
1
1.11852
1
1
1
1
1
1
1.01626
1.06555
1
1
0.883095
1
1.11941
0.905059
1.11873
1
1.0653
0.999924
1.11903
1.07858
0.900625
1.0686
1.00001
1.11831
1.11825
1
1.07582
1.11818
1.11879
0.999546
1.12036
1.11573
0.885584
1
1
0.999352
1
1.11782
1
0.901669
1.11922
1
1
1.10621
1
1.11843
1
1.11894
1
0.896837
1
1
1.11902
1.1201
1.11944
1
1.11889
1.11846
1.12029
1
1
1.11523
1
0.922997
1
1
1
1.11894
1
1.11843
1.07879
1.11893
1
1.11851
0.999821
1
1
1
1
1
1
0.910305
1
1
1.11843
1
1.1198
1.11781
1
0.895453
0.889682
1
1.11898
1.02085
0.895375
0.890682
1
1.11834
1
1.11865
0.893514
1.00027
1
1
0.999859
1
1
1
0.999975
1.05247
1.11876
1
1
1.11864
1.07322
1
1.10705
1.11852
1.11863
1.05272
1.11926
1
1.11859
1
1.11695
1
1.1204
1.11851
0.999082
1.11842
1.1177
1
1
1
1
1
0.978057
1.12005
1.00001
1.00001
0.88169
0.999996
0.886163
0.871313
1
1.11878
1.11883
1.11835
1
1.11859
1
0.892871
1
1
1.11829
0.950638
1.11904
1
1.11889
1
0.996999
1.11889
1
1
1
1.11916
1
1.11891
0.882939
1
1
1.07181
1
1
1.06823
1
1
1.11879
1
1
1
1
1
1.11966
1.11851
1
1.1187
1.1188
0.888091
1.05672
1.11891
1
1
1.10786
0.999693
1
1
1.11878
1.11833
1.07834
1
1.11875
0.899565
1.10912
0.999825
1
1.11886
1.00001
1.11891
1.1004
1.09275
1
1
1.1186
0.915369
0.889844
1
1.11849
1
1.11868
1
1.07322
1
1
1.11844
1.07905
0.892931
1
0.999559
1
1
1.00758
1.05233
1.1186
1
1.11922
1
1
1
1
1
1
1.01942
0.895378
1
1
1.01019
1
1
1
1
1
1.11853
1
1
1.11894
1.1187
1.08783
1
1
1
0.945604
1.11773
1.0859
1
1
1
1
1.11885
1
1
1
1.11931
1
1
1.08783
1.12329
1.01232
0.921971
1.11843
1.0874
1.11872
1
1.06344
1
1
1
0.880656
1.00057
0.896052
1
0.891703
0.886862
1
0.88415
1
1
1
1.05718
1
1.11868
1.1184
1.00034
1.05894
1.10258
0.888228
0.932712
0.963656
1
1.11858
1.11947
1.11856
1.11857
1.10338
0.965343
1
1.10371
1
1.11523
1
1
0.99897
1.00261
1
1
1
1.11905
1
0.881693
1
1.11885
0.890016
1
1
1.11856
1
1.11856
0.99985
1
1
1.1188
1.10638
1
1.12282
1
1
1.00412
1
1.05644
1
1
0.885946
1
1
1.11879
1
1.11833
1
1.00001
0.888281
1
1
0.883232
1.00031
1
1.11909
0.886297
1.11959
0.892677
1.11889
1
1
1
1
1
1
1
1
1
1
1
1.11407
1
1.11898
1.11995
0.897379
1
1
1
1
1
1
1.11567
1
1
0.89274
1
1
1.1193
1
1
1.04947
1.10113
0.892487
0.887358
0.907687
0.91459
1
0.999064
0.882614
1.00015
1.11152
0.999122
1
1
1.11879
1
1
1
0.932785
1
1.04667
1
1
1.05035
1.11833
1
0.883612
1
1
1
0.999005
1
1.11806
1.11853
1
0.892474
1
1.06826
0.895756
1
0.964104
1
0.998895
0.882126
1
1
1
0.998778
0.896627
1
0.890867
0.999544
1.06549
1.10865
0.890157
0.89425
1
0.997092
1
0.99959
1
1.1188
1.11848
1
1.00574
1.11885
1.11854
1
1
1.11848
1
1
1.00001
1
1.11884
1
1
1.00548
1
0.999593
0.910905
1
1
1
1
1
1.11932
1.01059
1.00002
1
1
1
1
1
1.00001
1
0.891318
1.03118
0.999603
1.11848
1.11535
1
1.00376
1.11886
1.10254
1
1
0.892167
1.11806
1
1.11979
1
1.11864
1.0878
0.894046
1
0.895777
1.11029
0.999907
1
0.894254
0.879762
1
1
1.10178
1
1
0.890161
1
1
1
1.04157
1
0.896729
1.11862
1
1
1
1
1.11872
1
1
1.1176
1.10735
1
1
1
1.11865
0.892729
1
1.11846
1.11849
1
1.09718
1
1.00001
1
1
1.11029
1.00778
1
0.889142
1.06833
1
1
0.999085
1
1
1.1188
1
1
1.00001
1
1.11932
1
1
1
1
1
1
1
1.05676
1
1.11822
1
1
1.11898
1
1
1
1.11861
1.11768
1.01304
1
0.999305
1
1
1
1
1.12005
1
1
1.11849
0.889691
1
1
1
1
1
1
1.0981
1
1
1.11854
1.11912
1
1
1
1.11875
1.11909
1
0.999915
1.11719
1
1
1
1.00001
0.887924
1.00874
0.998922
0.998741
1
1
0.884264
1.11925
1
0.907463
1
1.11798
1.1142
0.892217
0.999831
1.11865
1.1191
1.11824
1
1
0.979972
1.10832
1.09844
0.895061
1
1
1
1.11833
1.11858
0.881823
0.999215
1
1.1185
0.882719
1
1.11607
0.891111
0.995652
1.00185
1
1.1181
1
1
1
1
1
1
1.00003
1.11126
1
1
1.11932
1
1
1
1.11849
1
0.891374
1
1
1
1.04577
1
1
1
1
1
0.929626
1
0.885287
1
1.11857
1.00001
0.960032
0.960164
1
1.00105
1.06513
1
1
0.888796
1.11862
1.1185
1.1185
1
0.879435
0.88407
1
1.11863
1
1
1
1
1
1.00001
1
0.892601
1.07957
1
1
0.889973
0.99613
1
1
1
1
0.88051
1
0.897503
1
1
1.11683
1
1
0.892243
1
1.11869
1
0.888144
1
0.891613
1
1.00248
1.1183
1.12143
1
1
1.12006
1
1
1.03021
0.999098
1
0.999493
1
1.11867
1
0.895116
1
1.12069
0.999737
1
1
0.937059
1
0.999736
0.888822
1.11839
1.04726
1
1
0.975936
1
1
1
0.939756
1
1
1
1.11853
1
0.895138
1
1
1
1
0.890987
1.1185
1.10762
0.889209
1
1.12063
1
1
1.11857
1.11954
1.10193
0.888726
0.999355
0.999778
1
1.11858
1
1
1
1
1.11829
1.00001
1
1
1.11745
1
1
1.11849
0.887644
1
1
1
0.895224
1
1
1
0.999608
1
1
1
1
1.09584
1
1.12014
1.11855
1.12204
1.11838
1.11845
1.11844
1
1.11812
1
1.11861
1.11855
1
0.999678
0.891146
1.10324
0.999973
1
1
1
1
1.003
1
1.02063
1
1
1
0.953545
1.11852
1.11855
1.11956
1.10978
0.999967
1
1.00633
1.11832
0.999386
1.01609
0.999241
0.893382
1
1.00001
1
1
1
1
1
1.11863
0.894345
1.11848
1.1186
0.998631
0.886784
1
1
1
1.11861
0.893484
1.10559
0.889289
1.11851
1.11981
0.89205
1.11859
1.00638
1
1.11897
0.945317
1
0.99965
0.877572
1
0.88875
1
1.11856
1.11863
0.926974
1
1.11897
0.894505
1
0.889145
1
1.11854
1
1
1.11729
1
0.953037
1
0.999899
0.889628
1.11902
0.999854
1
0.881957
1
1
1
1
1.0705
1
1.11856
1
1
1.12362
1
1
1.11866
1
0.887174
1
0.896787
1
1
1
1
1
1.11395
1.072
1.11872
1
1.11844
1.11115
0.88202
0.880025
1
1
1.11848
1
0.886336
1
0.997404
1
1
1.11883
1
1.11937
0.881278
1.12235
1
0.882471
1
1
1.11886
1.11825
1
1.00001
1
1.11471
1
1
0.868206
0.99983
0.874686
1
1
1
1.1189
1.11835
1.11958
1
1
0.901913
1
1.11925
1
1
1
1.1121
1.11848
1.11852
0.902082
1.11916
1.1186
0.890888
1.11959
1.00001
0.895699
1.00354
1
1
1.11881
0.906034
1.07783
0.90294
1.1186
0.99924
0.880731
1.11873
1
1
1
1
1.11841
1.11971
0.891863
1
1.00001
0.890975
1.00001
1
0.893564
0.889709
1.0861
1.11869
0.999561
1.11862
1
1.12014
0.944676
0.88969
1.11861
1.12249
1
1.11846
1
1
1.11856
1
1.09358
1.11969
1
1
1
1
1.11864
1.11746
1.11944
1
1
1.11879
1.11949
1.11921
1
1.11861
1
1
1
1
1
0.8944
0.958123
0.882094
1
1
1.11842
1
1
1.11831
0.88849
1
1.11852
1.11751
1.11362
0.886896
1
0.905097
1
1.00001
1.1195
1.05976
1.11991
1.10949
1
0.885542
1
1.118
1.08709
0.898896
1
1
1
0.934675
1
1
1.12041
1
0.898153
1.11861
1
1
1
1
1
1.09783
1.02946
1
1.11831
1
1.11844
1
0.999163
1
1.11884
1.11887
1.1188
1.11879
0.999886
1.12008
1
1.11856
1.11857
1.10211
1
1
0.888336
1.12036
1
1
1.11968
1.11844
1.11886
1
1.11881
1
1
1.00001
1.11832
1.11876
1.03437
1.02878
1.11826
1.11828
0.897492
1
1
1
1
1
1.04384
1
1
1.10146
0.880222
0.999987
1
1.11865
0.999968
0.999952
1.01944
1.11257
1.12073
0.97341
1
0.871886
1
1.00155
1.1185
1.11924
1.11637
0.999717
1
1
0.884684
1
1
1.11854
1.0144
1
1
1
1
1
1
1
0.999982
1.11956
1
1
1
1
1
1.08219
1
1.05809
1
1
1.11869
1.11906
0.889414
0.999662
1
1
1
0.890798
1.11995
1.1186
1
1
1
1
1
1
1
1
1.11919
1.11714
0.891068
1.01443
0.892892
1
0.88478
1
1.11858
1.03715
1
1
0.913112
1
1.11399
0.943959
0.998876
0.885416
1
1
1.11964
1.00001
0.999069
0.885932
1.1199
1.12075
1
1
1
1
1.1114
1
1
1.11849
0.999696
1.11913
1.00001
1
1
0.882075
1
1
1.11821
0.88876
0.934861
0.901416
1.11872
0.99981
1
1.11992
0.889903
0.891296
1.00422
1
1
1.11996
1.00001
1.05711
1
1
1.11983
0.892248
1
1
1.00004
1.11922
1.00004
1.11309
1
1.00001
1
1
0.92534
1
0.941931
1
1
1.11841
0.881587
1
0.929233
0.94101
1
1
1.11842
1
1
1
1.11929
1.11863
1.00001
1.11594
1.12014
0.933696
1.11874
1.11514
1
1
1.11774
1
1
1
1
1
1.12069
1.11875
1
1
1
1.1184
1.00006
1
0.894363
0.924839
1
1.00001
1.04804
1
1
0.97067
0.897318
1
1
1
1.1191
1.10984
1.11848
1
1
1
1
0.879457
1
1.1187
1
1.11562
0.88599
1.11903
1
1
1
0.908562
1
1.11886
1.00001
1
0.897444
1.046
1
0.999906
1.1174
0.885322
0.883145
1
1.11952
0.888841
0.894454
1
0.880179
1
1
1
1
0.910361
1
1
1
1
1.1195
1
1.0931
0.885266
1
1
1
0.894921
1.11857
1
1
0.999077
1.11668
1
1.11871
1.11939
1
1
0.918578
0.890915
1
1
0.894109
1.0404
1.05831
1
1
1.11968
0.999251
1
0.999333
1.12019
1
1
1
1
1
1
1.11811
1
1.04591
1.04075
0.900481
1.10612
1
1.11837
1.1186
1
1
1
0.977654
0.884754
1
1.06514
0.9999
1.10644
1
1
1
1
1
1.00197
1.05702
1.11882
1.11893
1
1.11857
1
0.901874
1
0.999229
0.999935
1
0.88318
1
0.88897
1.00001
1.11932
1.12008
0.890519
1.11974
0.870629
0.998902
1.09432
0.886955
1.08742
1
1
0.999547
1
1
1
1.00002
1
0.88535
1
1
1
1
0.99989
1.11865
0.93829
1
1
1
1.01046
1
1
1
1.07316
0.922014
1
1
1
1.01508
1.1207
1
0.895456
1
1.11894
0.975246
0.894671
1
0.888616
1
1
1.11289
0.9995
1.10987
1
1.00261
1
1
1.11913
1
1
1
1
1.02637
1
1.11857
1.11889
1.12003
0.883404
1.11858
0.999166
1.09826
1
1
0.882491
1
1
0.892741
1.119
1
1
0.99999
1
1
1
0.885681
0.896331
1
1.1195
1
1.05835
1.11856
0.886318
1.10011
1
1
0.896622
1
1
1.1186
1.11843
1.04455
1
1
1.00033
1.1194
0.888044
0.891824
1.12002
1.11869
1.08595
1.05036
1
0.969304
1
1
1
1.11236
1.11825
1.11797
1
1
1.11931
0.885887
1.11131
0.882828
1
0.895122
1
0.888049
1.11849
0.884355
1
0.995003
0.905369
1
1
1
0.949392
1.1086
1.11836
1.11908
1.11911
1
1
1.12013
1
1
1.1184
1
0.909127
1
0.885921
1
1.11984
1
1
1.00795
1.0931
1
0.99967
0.891127
1.11863
1
0.878449
1.02525
1
1
1.09085
1.1183
1.11851
1
1.11805
1.03564
1
1.00651
1.11864
1
1
1
1
1.11855
1
0.881776
1.11824
0.893105
0.880523
0.947137
1.11819
1.04441
1.1188
1
1.11924
0.999241
1.00001
1.11865
1.12023
1
1.11904
1
1.11881
1
1.11976
1
1.00001
0.999986
1.11919
0.884055
0.896818
0.999427
1
1
1
0.893236
1
1.08118
1
0.884095
1
1.04976
1.11856
1.11928
1
1
1.00001
0.999843
1
1.11975
1.11853
1
1.05431
1.11873
0.958725
1.11853
1.00011
0.889935
1.02659
0.907009
1
1
1.02246
1.12028
1
1
1.0129
0.99958
1
0.867162
1
0.929071
1
1.1188
1
1
0.895257
1.03078
1.01746
0.999567
1.11848
1.1187
0.934742
0.999457
0.886538
0.904313
0.888205
1
1
1
0.999728
0.909587
0.891407
1
1.11862
0.999924
1.11871
1.11822
1.12028
1.1184
1
0.886408
1.11804
0.896027
1
1.1184
1.11829
0.999068
0.94585
1.11811
1.08705
1
0.894704
1
1
1.12103
1
1.00721
1.1191
1
0.881077
0.887052
1
1
0.890433
0.890697
1.11844
1.00001
1
0.875233
0.885051
1.12019
1.11244
1.11134
1.1197
1.03621
0.991468
1.05042
1.11722
1.09213
1
1.06115
1
0.885732
0.957702
1
0.888266
1.11867
1.00643
1.11871
1
1.11859
1.11958
1
1.11892
1.11859
0.897006
1.11965
1
1.11865
1
0.927488
0.884492
1.1188
1
1
1
0.88435
1.11815
1.1188
1
0.889647
1
1
0.886549
1.00001
0.88459
1.11957
1
0.9426
0.892342
1
1
1.07233
1
1
1
1.02247
0.889229
1
1
1
1.11926
0.892459
1
1.11871
0.875021
0.907788
1
1
1.11978
1
1.1188
1
1.11868
0.895212
1
1
0.891191
0.946725
0.885645
1
1
1
1
1.1197
0.884869
1
0.885341
1
1.11962
1
1
0.981735
1
1
0.942934
0.999908
1.00001
1
0.89596
0.895618
1
1
1
1
0.934958
1.11826
1.11951
1
0.883733
0.891891
0.975269
0.890494
1
0.949487
1
0.891939
0.993331
1
1
0.89403
1
1.11864
1.11795
0.88721
1
1
1
1.11712
1
1.01444
0.953704
1.0389
0.891684
1.04912
0.894391
1
1
0.909451
0.97443
1
1.01455
1
1
0.897189
1
0.97811
1.01525
0.887879
1
1.09612
0.921569
0.969517
1
1
1
0.90055
1
0.884418
0.893131
1
0.95832
0.8834
1.02065
0.915883
0.880357
1.11862
1
1.11869
1.06779
0.908495
1.11872
0.889031
0.999729
1.11921
1
1
1.1181
1
0.91334
1
1.02085
1
1
1.11864
1
0.932573
0.942774
1.12047
0.978612
1
0.928758
1.11868
1.11947
0.97608
1
1.11852
1.03467
0.957454
1
1.00652
1
0.897099
1.0528
0.928166
0.917993
1
1
0.888532
1.11851
0.988308
0.89111
0.880718
0.958948
1
1.00708
1.11941
1.11861
1
1
1
0.889865
1.06082
0.999995
1.11845
1.10799
0.890575
1
1.02881
0.967238
1.07629
1.10805
1
1.01296
1
1.00002
0.877685
0.953394
1
1
0.941276
0.878149
1.01305
1
1
0.868206
1.05624
1
1.11616
1
1.01199
1.07029
1
1.11595
1
1
1.11856
1
0.889917
1.1198
0.910853
1.0343
1
0.887032
0.999977
1
1.00001
1
0.940568
1.00765
0.893245
1.09169
1.12
0.884715
1
1
1
1
1
0.991104
0.884291
1.01517
0.892516
0.887238
1.02075
1
0.999942
1.03196
1
1
0.893972
0.999815
1
1
1.03811
1
1.11932
1
1.11986
1.02687
1.00857
0.884868
1
1
0.877532
1
1
1
1
1.11882
1.01227
0.999442
1
0.889124
1.01489
1
1
1.08077
1
0.88645
1.11901
1
1
1
1.11813
0.890118
0.967803
0.884096
1.09196
1.11877
1
1
1.11851
1
0.890848
1
1
1
1
1
0.929291
1
1.11827
1
1
1.04431
1.11925
0.893294
0.962077
1
1.11874
1
1
1
1
1
1.11856
1.12001
0.89048
1.11858
0.881942
1
1
1.11878
1
1.12007
1.00101
1.00819
1.01791
1.1182
1.02042
1.0838
0.881161
1
0.883383
0.997731
1
1.11853
1
1
0.886448
1.11916
1
1.11998
1
1
1
1
1
1
0.895523
1.11946
0.951838
1.11844
1
0.892472
0.897067
0.906607
1.11847
1.1182
0.992297
1
0.943238
1
1.04893
1
1.11819
0.888807
0.89699
0.954914
1
1.11912
1
1.02101
0.894449
1
1.12009
1.1035
0.99967
1
1.11876
0.885265
1.11833
1.11882
1.11708
0.896484
1.02607
1
1
0.882276
1
0.943048
0.951693
1
1.00001
1.11844
1
1.1199
1.02585
1
1.0133
1.12043
1
0.889748
1
0.934808
1
1
1.09919
1
0.94036
1
0.896891
1.01031
0.984008
0.887661
1.11839
1.09795
1.11989
0.892976
0.905103
0.998695
1
1
0.895704
1.11266
0.89688
0.99999
1
1.11864
1.11936
0.974722
1
0.890068
0.904566
1.08216
0.997429
0.886279
1
0.895923
1.03411
0.894095
1
1.00002
0.938716
1.11985
1.11899
0.95197
0.999881
1
1
0.912581
1
0.888748
1
0.892746
0.889182
1
1
1.00001
0.895031
1.11848
1
1
1.00002
1.00001
0.895707
1.11879
1.11849
1
0.892969
1.12026
1
1.02794
1
1
1.11929
0.889337
1
1
0.893588
0.930341
0.892511
0.889374
1
0.902422
0.999225
1.02748
0.889365
1
1
1.03771
1
1.10618
1
1
1.08288
0.895958
1
0.889416
1.0344
1.11851
1
1
0.893153
0.869393
0.880285
0.916555
0.869521
1.09145
0.999828
1
1
1
1
1.11913
0.872219
1
0.984528
0.999907
0.999707
0.999984
0.921338
1.03443
1
1.11872
1.1189
1
1
1.11376
1.00001
1
1.1185
0.884677
1.11991
1
0.886338
1.11882
1.00002
1
0.943893
1
0.883047
1
1.11933
1
1
1.11939
1
1
1.11916
1
1
1
1.12043
1
0.919193
0.911269
1
0.885067
1.11817
1
1
0.99348
1
1.11934
1.07188
1.09767
1
1
0.898735
1
0.886596
1.11849
1.11978
1.1184
1
1.11956
0.886372
1
0.888735
1.09761
1.1076
1.11805
1.11847
0.924503
0.884863
1
1.08024
1.11946
1.1194
1.11873
0.923279
1.04695
1
1.09191
0.921774
1
1
1
1.00001
0.974116
1
1.11907
1
1
1
1
1
1
1.00002
1.11866
1
1.12003
1.09099
0.893037
1.11976
1.01046
1.06271
1
1.11862
1
0.887848
1
1
1
1
1.10274
1
0.884669
1.1187
0.882947
1.11821
1.09699
1.0642
1
1.0239
1.06032
0.998832
0.892339
0.935596
1.00001
1
0.97722
1
0.877005
1.11944
0.877584
0.977542
0.959354
1
1
1
1.00338
1
1
0.88883
0.998782
1.1199
1
1.11863
1
0.890191
1
1
1.11828
1.11881
0.886311
1
1.11936
1
0.946456
0.887654
1.11906
1.10763
1
1.0202
1.11844
0.999614
1
1.05322
1.1057
1.11903
0.998706
1
1
1.10222
1
1
1
1.1185
0.999566
1
1
1.11846
1
1
0.891841
1
1
1
1.11922
1
1
0.961472
1.04022
1.10902
0.934044
1
1.11839
1
1.04607
1
1.11895
0.9992
1.11835
1
0.886594
1
1.08446
1
1
1.11132
1
1.11877
1
1.11945
0.894745
0.892217
1.11931
1
1.10091
1
1.11913
1
1
1.00001
1.11815
1.11863
1.03538
1.11826
0.998737
0.897759
1.1192
0.956173
1
1.11916
1
1.11876
1
1.11901
1.11915
0.998926
0.888314
1
1.11843
1
1.00984
1
1
0.999408
0.914298
1.10729
1
1.10587
1
0.966088
0.888617
1.11886
1.1191
0.917255
1
1.11838
1.1194
1.11873
0.907183
1.11854
0.902351
1.11914
1.11767
1
1
1.11852
1
1
1
1
0.892663
1
1
1.11945
1.11849
1
1.11863
1
1.11995
1.11987
1
1.10074
1
0.886245
1.11863
1.08843
1.03948
0.880552
1.11869
1
1
0.884926
1
1
1.11853
1
1
0.938721
1
1.11911
1.00003
1.11877
0.888328
1.11995
1
1.1184
1.11451
0.973127
1
1.11862
0.93204
1.11838
1.08658
1.11853
1.11992
0.99925
1.12017
1.11887
1.11832
1.11866
1.00023
1
0.889497
1
1.11979
0.948332
1.10947
1
1.11685
1
1
1
1
1
1.11813
0.887915
0.902336
1.11892
1.11849
1
1
1
1
1
1.11778
1.10989
1.11858
1.00602
1
1
1
1.00001
1.11824
1.11855
1
1.11922
1.11925
0.891095
1.08608
1
1.11858
1.11927
1.1178
0.999379
1.11876
1.11822
1
1.11087
1
1
1
1
1
1
1.11886
1.12009
1.11102
1.11851
0.886376
0.90718
1.11855
1.11841
1
0.883229
0.979106
1
1.06109
0.884053
1
0.999844
0.99951
0.894684
1
1.11901
1
1
1
1.11941
0.981622
1
1.11872
1.11856
1
1.11863
1
1
1.11867
1
0.892087
1
1.11856
1
1
0.88886
1
1.11836
1
0.890289
0.880423
1
1.11918
1
0.880774
0.969405
1
1.11855
1
1
1
1.119
1
0.890366
1.0183
1.11905
1.11894
1.11842
1.01095
1.11903
1.11853
1
1
1
1
1
1.11875
1
0.999796
1.11954
1
0.884991
1
1.11882
1.05975
1.01916
1.05958
1.018
1.11786
0.910871
1.11853
1
0.892952
0.999156
1.11855
0.985466
1.11847
1.11875
1.11696
1
1.11913
1.11877
1.11859
1
1.00001
1
1
1.11917
1.08676
1
1
0.893448
0.999057
1
1.11905
1
1.11844
1.11903
1.11907
0.973033
1.11849
1.11859
1.00218
1.06179
1.1194
1.11894
1
1.11061
0.954982
1.1152
0.999981
1.11884
1
1.11852
1.1188
1
0.886427
0.981736
0.9165
1
1.0245
0.999055
1.11917
1
1
0.998985
1
1.06138
1.11532
1
1
1.11871
1
1
1.08663
1.11847
1.11448
1.11892
1.11925
1
1.11875
0.921554
1.11884
1
1.00084
0.888309
1
1
0.919183
1
1.04044
1
1.11903
1
1.11676
1.0789
0.892043
1
1
1
1
1
1.1182
1.00327
1
1.11955
1
1.11818
1.11854
1
1
0.989507
0.999959
0.890681
0.880869
0.91953
1.02475
1
0.999543
0.89775
1.00001
1
1.11876
0.984705
1.11145
1.10607
1
1
1
1
1
1.11901
1.11875
1
1.11945
1
1.11967
1.08283
0.999001
1
1
1
1.07055
1
0.988875
1
1.11822
1
1
1.1184
1
1
1
1
1
1.11874
0.890835
0.998822
1.10739
1.11847
1
1.11868
1
1
1
1
0.907393
1
1.11918
1.11861
1.11833
1.12029
0.987247
1
1.10215
1.03207
1.11969
1.11872
1.02288
1.12004
1
1
1
1.11889
1
1.11838