/*--------------------------------*- C++ -*----------------------------------*\
  =========                 |
  \\      /  F ield         | OpenFOAM: The Open Source CFD Toolbox
   \\    /   O peration     | Website:  https://openfoam.org
    \\  /    A nd           | Version:  12
     \\/     M anipulation  |
\*---------------------------------------------------------------------------*/
FoamFile
{
    format      ascii;
    class       volScalarField;
    location    "2.3";
    object      rho;
}
// * * * * * * * * * * * * * * * * * * * * * * * * * * * * * * * * * * * * * //

dimensions      [1 -3 0 0 0 0 0];

internalField   nonuniform List<scalar> 
9801
(
1.15496
1.15717
1.16906
1.18032
1.1832
1.18339
1.18034
1.17592
1.17486
1.17544
1.17748
1.18319
1.19582
1.20284
1.20423
1.20302
1.20055
1.20004
1.20052
1.202
1.20528
1.21379
1.22362
1.22757
1.22834
1.22728
1.22696
1.22741
1.22899
1.2312
1.23632
1.24629
1.2523
1.25457
1.25471
1.25449
1.25519
1.25679
1.25885
1.26323
1.27209
1.27988
1.28321
1.28463
1.28402
1.28464
1.28618
1.28829
1.29189
1.29991
1.30968
1.3145
1.31611
1.31675
1.31748
1.31751
1.32009
1.3234
1.32968
1.34197
1.35014
1.35271
1.3529
1.35277
1.35343
1.35512
1.35829
1.36318
1.37646
1.38976
1.39498
1.3968
1.39399
1.39332
1.39541
1.39891
1.40449
1.41655
1.43489
1.44527
1.45079
1.45052
1.44405
1.44372
1.44811
1.45634
1.47146
1.49943
1.51866
1.53048
1.53847
1.53662
1.53062
1.54061
1.56561
1.61791
1.6868
2.18152
4.21049
1.16147
1.16303
1.16999
1.17809
1.18391
1.18698
1.1874
1.18326
1.18142
1.18224
1.18428
1.1893
1.19651
1.20271
1.20679
1.20874
1.20745
1.20526
1.2059
1.20774
1.2113
1.21787
1.22443
1.22932
1.23219
1.23284
1.23103
1.23135
1.23347
1.23635
1.24247
1.24948
1.25442
1.25778
1.2591
1.25747
1.25779
1.26006
1.26292
1.26828
1.2761
1.2822
1.28623
1.28861
1.2866
1.28611
1.2884
1.2914
1.29571
1.30382
1.31222
1.3173
1.32007
1.31988
1.31809
1.31864
1.32232
1.32614
1.33228
1.34337
1.35204
1.35597
1.35732
1.3539
1.35348
1.35635
1.3603
1.36497
1.37703
1.39022
1.39674
1.40064
1.39749
1.39291
1.39499
1.39948
1.405
1.41673
1.43507
1.44658
1.45266
1.45461
1.44597
1.44256
1.44847
1.45667
1.47185
1.49514
1.51271
1.52527
1.5373
1.53971
1.53157
1.53324
1.55232
1.58565
1.63017
2.10342
4.18255
1.16489
1.16808
1.1738
1.17905
1.1837
1.18644
1.18606
1.18401
1.18428
1.18609
1.18856
1.19353
1.19879
1.20288
1.20657
1.20877
1.20835
1.20667
1.2075
1.20965
1.21341
1.21955
1.22487
1.22904
1.23219
1.23359
1.23184
1.23195
1.23409
1.23729
1.24386
1.25063
1.25492
1.25815
1.26002
1.25876
1.25862
1.26058
1.26351
1.26878
1.27666
1.28252
1.28647
1.28908
1.28778
1.28714
1.28908
1.29199
1.29609
1.30385
1.31231
1.31741
1.32047
1.32093
1.31894
1.31919
1.32266
1.32658
1.33241
1.34311
1.35175
1.35598
1.35797
1.35495
1.35342
1.35585
1.36009
1.36539
1.37667
1.38926
1.39602
1.40022
1.39909
1.39349
1.3937
1.39799
1.40364
1.41414
1.43173
1.44363
1.4505
1.45465
1.44855
1.44168
1.4456
1.45372
1.46515
1.48572
1.50629
1.52137
1.53406
1.54016
1.53069
1.53142
1.54765
1.5758
1.60119
2.06707
4.14278
1.17001
1.17433
1.1771
1.17857
1.18022
1.18225
1.18445
1.18648
1.18833
1.19039
1.19376
1.19798
1.20075
1.20292
1.2054
1.20789
1.20895
1.20862
1.20978
1.21207
1.21665
1.22239
1.22629
1.22929
1.23199
1.2335
1.23228
1.23275
1.23495
1.23864
1.24604
1.25251
1.25621
1.25896
1.26076
1.25951
1.25894
1.26061
1.26361
1.26946
1.27776
1.28361
1.28734
1.28989
1.28905
1.28755
1.28862
1.29124
1.29547
1.30363
1.31252
1.31776
1.32093
1.32237
1.31981
1.31874
1.32138
1.32514
1.33135
1.34217
1.35079
1.35529
1.35834
1.35677
1.35313
1.35408
1.35772
1.36301
1.37411
1.38692
1.39416
1.39879
1.40076
1.39475
1.39157
1.3947
1.40018
1.40911
1.42615
1.44014
1.44799
1.4538
1.45241
1.44252
1.44178
1.44883
1.458
1.47464
1.49558
1.51172
1.52473
1.53594
1.5331
1.52566
1.53102
1.55185
1.57143
2.05052
4.11354
1.17352
1.17713
1.17853
1.17962
1.18062
1.18208
1.18404
1.18691
1.19003
1.19266
1.19593
1.19995
1.20285
1.20497
1.2068
1.20828
1.20851
1.20905
1.21063
1.21311
1.21869
1.22509
1.22869
1.23108
1.23302
1.2331
1.23198
1.2329
1.23516
1.23908
1.24718
1.25377
1.25736
1.25988
1.26133
1.25977
1.25894
1.26054
1.26345
1.26923
1.27811
1.2843
1.28808
1.29057
1.29012
1.28778
1.28823
1.29064
1.29462
1.30285
1.31213
1.31765
1.32098
1.32325
1.32091
1.31826
1.32027
1.32371
1.32985
1.34091
1.34972
1.35446
1.35805
1.35858
1.35347
1.35237
1.35544
1.36015
1.37045
1.38459
1.3929
1.39771
1.40116
1.39739
1.39114
1.39199
1.39674
1.40356
1.41811
1.43502
1.44498
1.45145
1.45511
1.44736
1.44068
1.44413
1.45216
1.46506
1.48551
1.50344
1.51733
1.53001
1.53646
1.52876
1.52577
1.53585
1.54832
2.03521
4.08998
1.17463
1.1792
1.18047
1.18195
1.18375
1.18528
1.18572
1.18648
1.18856
1.1917
1.1965
1.2023
1.20593
1.2081
1.20984
1.21049
1.20902
1.20876
1.21044
1.21336
1.21976
1.22737
1.23143
1.23371
1.23525
1.2345
1.23255
1.23299
1.23511
1.23881
1.24709
1.25466
1.2586
1.26119
1.26286
1.26137
1.25951
1.26062
1.26337
1.26852
1.27779
1.28473
1.28875
1.2914
1.2919
1.2891
1.28815
1.29021
1.29378
1.30145
1.31145
1.31754
1.32119
1.32413
1.32319
1.31882
1.31931
1.32238
1.32748
1.3387
1.34903
1.35438
1.35814
1.36029
1.35581
1.35212
1.35394
1.35794
1.36534
1.38045
1.39208
1.3979
1.40201
1.40139
1.39367
1.39116
1.3945
1.39985
1.40991
1.42846
1.44257
1.45055
1.45653
1.45528
1.4444
1.4426
1.44896
1.45823
1.47531
1.49431
1.50912
1.52193
1.53405
1.53605
1.52837
1.5269
1.52975
2.01545
4.06676
1.17254
1.17975
1.18369
1.18605
1.18785
1.18941
1.18902
1.18795
1.1883
1.19012
1.19452
1.20272
1.2086
1.21145
1.21317
1.21374
1.21191
1.21048
1.21131
1.21354
1.21927
1.22821
1.23349
1.23614
1.23785
1.23768
1.23515
1.23437
1.23577
1.23855
1.24589
1.25481
1.2597
1.2626
1.26474
1.26417
1.26135
1.26142
1.26374
1.26789
1.27695
1.28503
1.2895
1.29236
1.29392
1.29173
1.28931
1.2905
1.29361
1.30015
1.31094
1.31797
1.32186
1.32506
1.3258
1.3211
1.31972
1.32214
1.32607
1.33578
1.3487
1.35547
1.35939
1.36234
1.35967
1.35416
1.35397
1.35726
1.36214
1.3743
1.39035
1.3989
1.40362
1.40608
1.39974
1.39324
1.39396
1.39859
1.405
1.41986
1.43801
1.44898
1.45602
1.4607
1.45465
1.44612
1.44783
1.45501
1.46671
1.48589
1.50247
1.51527
1.5268
1.53605
1.5346
1.52684
1.51667
1.99352
4.04455
1.16995
1.1767
1.18574
1.19064
1.19272
1.19398
1.19325
1.19079
1.19022
1.19126
1.19373
1.20115
1.20974
1.21399
1.21623
1.21737
1.21576
1.21378
1.21414
1.21561
1.21885
1.22737
1.23436
1.23784
1.24005
1.24122
1.23896
1.23701
1.23774
1.2398
1.24504
1.25456
1.26069
1.26405
1.26653
1.26716
1.26411
1.26329
1.2651
1.26811
1.276
1.28535
1.29058
1.29372
1.29594
1.29499
1.2917
1.29192
1.29444
1.29903
1.30995
1.31894
1.32342
1.32667
1.32839
1.32445
1.32181
1.32304
1.32621
1.33253
1.34662
1.35675
1.36147
1.36472
1.36425
1.35804
1.35568
1.3576
1.36157
1.36872
1.38528
1.39883
1.40521
1.40957
1.40854
1.399
1.39585
1.39872
1.40401
1.41271
1.43055
1.4459
1.45502
1.46176
1.46477
1.45599
1.44989
1.45391
1.46193
1.47627
1.4945
1.50861
1.5203
1.53077
1.53562
1.53048
1.51455
1.97132
4.02285
1.17048
1.17393
1.1843
1.19259
1.19619
1.19819
1.19844
1.19518
1.19329
1.19401
1.19561
1.20017
1.20926
1.21528
1.21838
1.22048
1.22075
1.21818
1.21751
1.21857
1.2204
1.22631
1.23472
1.23939
1.24213
1.24402
1.2432
1.24034
1.24044
1.24225
1.24585
1.2546
1.26178
1.26559
1.26828
1.26983
1.26748
1.26578
1.26716
1.26962
1.27548
1.28582
1.29222
1.29567
1.2982
1.29852
1.29488
1.29413
1.29605
1.29911
1.30799
1.31964
1.32559
1.32908
1.33152
1.32898
1.32488
1.32487
1.32728
1.3311
1.34212
1.35658
1.3637
1.36753
1.36944
1.36443
1.35891
1.35912
1.36219
1.36673
1.37808
1.39581
1.40602
1.41126
1.41472
1.40954
1.40094
1.40051
1.40427
1.40994
1.42207
1.44059
1.45326
1.46125
1.46747
1.46751
1.45814
1.45508
1.46027
1.46883
1.48489
1.5016
1.51378
1.52342
1.53121
1.53172
1.51903
1.95529
4.00106
1.17274
1.17484
1.18248
1.19256
1.1977
1.20028
1.20207
1.2011
1.19782
1.19735
1.19843
1.20086
1.20856
1.2164
1.22054
1.22317
1.22487
1.2233
1.22118
1.22143
1.22287
1.22689
1.23545
1.2413
1.24449
1.24667
1.24697
1.24418
1.24351
1.24503
1.24767
1.25496
1.26324
1.26759
1.27045
1.27257
1.27126
1.26878
1.26954
1.27169
1.27557
1.28577
1.29406
1.29811
1.3008
1.30222
1.29889
1.29669
1.29796
1.30049
1.30605
1.31882
1.32758
1.33183
1.33473
1.33436
1.32913
1.32718
1.32874
1.33175
1.33794
1.35309
1.36496
1.37029
1.37369
1.37258
1.36471
1.3618
1.36364
1.36718
1.37293
1.38841
1.4044
1.4122
1.41697
1.4193
1.4109
1.40405
1.40559
1.41023
1.41693
1.43191
1.44869
1.45917
1.46648
1.4723
1.47098
1.46159
1.46016
1.46561
1.47491
1.4913
1.50607
1.51631
1.52386
1.52796
1.52434
1.94642
3.97839
1.17616
1.17746
1.18285
1.19231
1.19874
1.20204
1.20425
1.20524
1.20242
1.20029
1.20097
1.20304
1.20946
1.21815
1.22309
1.22598
1.22805
1.22764
1.22445
1.22389
1.2254
1.22897
1.23725
1.24388
1.24739
1.24966
1.2506
1.24823
1.24669
1.24761
1.24966
1.25529
1.26474
1.27022
1.27331
1.27566
1.27547
1.27234
1.27198
1.27363
1.27634
1.28465
1.29534
1.30071
1.30367
1.3059
1.30376
1.29993
1.30012
1.30224
1.30562
1.31588
1.32852
1.33456
1.33784
1.33954
1.33518
1.33038
1.33062
1.33312
1.33685
1.34709
1.36342
1.37215
1.37652
1.37913
1.37431
1.3666
1.36573
1.36833
1.37226
1.3807
1.39876
1.41194
1.41837
1.42272
1.42217
1.41287
1.40872
1.41125
1.41599
1.42404
1.44086
1.45595
1.46533
1.47233
1.47692
1.47335
1.46488
1.46469
1.46997
1.47957
1.49553
1.50846
1.51655
1.52107
1.52522
1.94641
3.95468
1.18039
1.18139
1.18502
1.19381
1.20047
1.2041
1.20641
1.20749
1.20511
1.20283
1.20372
1.20593
1.21193
1.22068
1.22584
1.22879
1.23088
1.23064
1.22716
1.22644
1.22798
1.23116
1.2394
1.24692
1.25067
1.253
1.25433
1.25229
1.24969
1.24993
1.25172
1.25588
1.26581
1.2731
1.27657
1.27901
1.27975
1.27628
1.27435
1.27536
1.27766
1.28331
1.29532
1.30305
1.30671
1.30933
1.30913
1.30426
1.30258
1.30404
1.30668
1.31254
1.3266
1.33651
1.34099
1.34364
1.34259
1.33575
1.33329
1.33485
1.33782
1.34271
1.35721
1.37183
1.37834
1.38237
1.38365
1.37547
1.36937
1.37033
1.37365
1.37807
1.38946
1.40734
1.4178
1.42323
1.42759
1.42548
1.4156
1.41308
1.41653
1.42187
1.43181
1.44878
1.46172
1.47006
1.47676
1.48078
1.47637
1.46826
1.46842
1.47326
1.48273
1.49755
1.50857
1.51401
1.52102
1.95083
3.9299
1.1846
1.18584
1.1888
1.19645
1.20293
1.20628
1.20825
1.2089
1.20667
1.20554
1.20673
1.20894
1.21471
1.2235
1.22858
1.23131
1.2331
1.23259
1.2298
1.22925
1.23075
1.23339
1.24088
1.24967
1.25409
1.25644
1.25793
1.25619
1.25272
1.25256
1.25427
1.25724
1.26606
1.27535
1.27982
1.28224
1.2835
1.28057
1.27709
1.2775
1.27958
1.28304
1.29336
1.30452
1.30963
1.31252
1.31401
1.30995
1.30573
1.30599
1.3082
1.31148
1.3215
1.33624
1.34342
1.3471
1.349
1.34414
1.33762
1.33701
1.3391
1.34227
1.34983
1.367
1.37885
1.38409
1.38773
1.38664
1.37772
1.3739
1.37554
1.37872
1.38391
1.3984
1.41505
1.42384
1.42903
1.432
1.42761
1.41933
1.41845
1.42212
1.42764
1.43893
1.45541
1.46708
1.47484
1.4812
1.48422
1.47917
1.47138
1.47124
1.47541
1.48427
1.49769
1.50576
1.51438
1.95774
3.90424
1.18842
1.19003
1.19288
1.20014
1.20553
1.2082
1.20994
1.21082
1.20929
1.20852
1.20989
1.212
1.21668
1.22531
1.23074
1.23341
1.23519
1.23532
1.23282
1.23219
1.23362
1.23585
1.24161
1.25133
1.25697
1.25965
1.26127
1.26037
1.25661
1.25575
1.25717
1.25939
1.26538
1.27607
1.28215
1.28508
1.28696
1.28576
1.2812
1.2802
1.28179
1.28433
1.29044
1.30356
1.31167
1.31547
1.31788
1.31665
1.31051
1.30849
1.30998
1.31257
1.31735
1.33156
1.34436
1.3498
1.35308
1.35302
1.34501
1.34006
1.34095
1.34372
1.34742
1.35822
1.3756
1.38498
1.38943
1.39297
1.38935
1.37978
1.37752
1.3802
1.38405
1.39074
1.40669
1.42106
1.42838
1.43323
1.43665
1.4314
1.42336
1.42313
1.42715
1.43292
1.44528
1.46095
1.47152
1.4788
1.48472
1.48739
1.48211
1.47404
1.47302
1.47625
1.48436
1.49501
1.50544
1.96375
3.8779
1.19198
1.19325
1.1952
1.2008
1.20716
1.21053
1.21264
1.21407
1.21312
1.21218
1.21314
1.21488
1.21773
1.22541
1.23232
1.23568
1.23782
1.23903
1.23707
1.23559
1.23652
1.23842
1.2419
1.25107
1.25875
1.26232
1.26447
1.26525
1.26205
1.25973
1.26024
1.26181
1.26484
1.27474
1.28387
1.28806
1.29041
1.29134
1.28709
1.28366
1.28404
1.28598
1.28913
1.29956
1.31233
1.31817
1.32118
1.32261
1.3176
1.31218
1.31211
1.31424
1.31713
1.32476
1.34096
1.35104
1.35546
1.35837
1.35575
1.34693
1.34408
1.34574
1.3486
1.35319
1.36715
1.3831
1.39074
1.39488
1.39692
1.39122
1.38339
1.38268
1.38544
1.38938
1.3975
1.41441
1.42732
1.43409
1.43866
1.44042
1.43425
1.42752
1.42794
1.43201
1.43808
1.45086
1.46577
1.4756
1.48233
1.48766
1.48994
1.48505
1.47616
1.47346
1.47576
1.482
1.49479
1.9661
3.85044
1.19507
1.19494
1.19592
1.20014
1.20833
1.2135
1.21607
1.21793
1.21807
1.21613
1.21578
1.21676
1.2186
1.22434
1.23335
1.23834
1.24095
1.24287
1.24234
1.23952
1.23918
1.24041
1.24256
1.24934
1.25964
1.26512
1.26783
1.26972
1.26826
1.26395
1.26274
1.26375
1.2659
1.2726
1.28451
1.29089
1.2939
1.29575
1.29367
1.28788
1.28634
1.2878
1.2902
1.29554
1.30957
1.31993
1.3243
1.32674
1.32578
1.31842
1.31515
1.31629
1.31867
1.32192
1.33265
1.34889
1.35696
1.36087
1.36344
1.35811
1.34956
1.34827
1.35063
1.35373
1.35913
1.37449
1.38866
1.39497
1.39909
1.40152
1.39447
1.38716
1.38729
1.39057
1.39489
1.40423
1.42067
1.43189
1.43786
1.44247
1.44493
1.4388
1.43233
1.43283
1.43672
1.44263
1.45531
1.46953
1.47877
1.48501
1.48981
1.49188
1.48783
1.47796
1.47272
1.47264
1.4827
1.95916
3.82204
1.19741
1.19585
1.19682
1.20017
1.20888
1.21616
1.2195
1.22155
1.22272
1.22042
1.218
1.21836
1.22001
1.22388
1.23364
1.24098
1.24433
1.2465
1.24748
1.24422
1.24169
1.2422
1.24406
1.24826
1.25912
1.26736
1.27113
1.27327
1.27368
1.26897
1.26582
1.2664
1.26833
1.27178
1.28253
1.29273
1.29704
1.29916
1.29965
1.29423
1.28988
1.29024
1.29229
1.29499
1.30348
1.31846
1.32633
1.33004
1.33201
1.32797
1.32051
1.31884
1.3203
1.32278
1.32722
1.34133
1.35613
1.36265
1.36621
1.36757
1.36041
1.35348
1.35299
1.35492
1.35807
1.36532
1.38244
1.39527
1.40105
1.40467
1.4052
1.39751
1.39187
1.39254
1.39545
1.39963
1.41
1.42651
1.43723
1.4433
1.44772
1.44927
1.44319
1.43689
1.4372
1.44094
1.44653
1.4587
1.47245
1.48132
1.48709
1.49128
1.4931
1.48992
1.47989
1.47055
1.4719
1.94276
3.79388
1.19986
1.1976
1.1985
1.20119
1.20916
1.21821
1.2225
1.22478
1.22639
1.22508
1.22117
1.22051
1.22187
1.22448
1.23288
1.24277
1.24748
1.24984
1.25146
1.24928
1.24497
1.24461
1.24625
1.24881
1.25691
1.26805
1.27346
1.27613
1.27789
1.27542
1.27047
1.26972
1.27104
1.27299
1.27876
1.29174
1.29935
1.30272
1.30454
1.30246
1.29574
1.29355
1.29453
1.29645
1.29983
1.31199
1.32622
1.33243
1.33578
1.33672
1.3296
1.32281
1.32251
1.32481
1.32767
1.33356
1.34943
1.36212
1.36745
1.3709
1.37147
1.36266
1.35643
1.35705
1.36006
1.36382
1.37294
1.38976
1.40026
1.40523
1.40907
1.40964
1.40124
1.39567
1.39673
1.40031
1.4051
1.41633
1.43198
1.44177
1.44743
1.4518
1.45351
1.44781
1.44147
1.44136
1.44486
1.44996
1.46135
1.47464
1.48323
1.48842
1.49194
1.49329
1.49105
1.47969
1.46903
1.91796
3.76568
1.20289
1.20023
1.20103
1.20313
1.20948
1.21957
1.2251
1.22771
1.22953
1.22928
1.22497
1.22311
1.22415
1.22621
1.23199
1.24322
1.24981
1.25282
1.25467
1.25422
1.24954
1.24761
1.24861
1.25052
1.2548
1.26648
1.27528
1.27921
1.28146
1.28181
1.27656
1.27305
1.2731
1.27464
1.27745
1.28758
1.30053
1.30607
1.30873
1.30959
1.30391
1.2976
1.29671
1.29831
1.30064
1.30591
1.32089
1.33299
1.33797
1.34102
1.34031
1.33177
1.32687
1.3274
1.32944
1.33235
1.3404
1.3571
1.36776
1.37246
1.37545
1.3744
1.3661
1.36203
1.36333
1.36589
1.36931
1.37927
1.39557
1.40528
1.41028
1.41351
1.41296
1.40561
1.40125
1.4026
1.40575
1.41038
1.42152
1.43641
1.44581
1.45139
1.45562
1.45752
1.45267
1.44634
1.44554
1.44842
1.45283
1.46299
1.47585
1.48412
1.48888
1.49168
1.4929
1.48974
1.47898
1.89741
3.7379
1.20639
1.20355
1.20417
1.20594
1.21013
1.22022
1.22733
1.23054
1.23228
1.2327
1.22907
1.22621
1.22685
1.22868
1.23211
1.24203
1.25126
1.25532
1.25748
1.25857
1.25518
1.2511
1.251
1.25264
1.25523
1.26349
1.27589
1.28194
1.2848
1.28635
1.28322
1.27697
1.27559
1.27705
1.27925
1.284
1.29754
1.30816
1.31227
1.31429
1.31301
1.30486
1.30036
1.30079
1.3028
1.30535
1.31257
1.32865
1.33878
1.34299
1.346
1.34372
1.3342
1.3303
1.33158
1.33421
1.33763
1.34729
1.36342
1.3725
1.3767
1.38032
1.37881
1.36992
1.36604
1.36705
1.36967
1.37367
1.38491
1.40059
1.4093
1.41383
1.41809
1.41846
1.41072
1.40596
1.40697
1.41022
1.41456
1.42512
1.43997
1.44949
1.45506
1.45929
1.46176
1.45822
1.45128
1.4493
1.4514
1.45501
1.46354
1.47594
1.48436
1.48864
1.49108
1.49078
1.49078
1.88995
3.70991
1.21067
1.20763
1.20761
1.20914
1.21151
1.21931
1.22854
1.23277
1.23473
1.23575
1.23385
1.23033
1.23005
1.23151
1.2336
1.23973
1.25106
1.25738
1.26021
1.26193
1.26098
1.25579
1.25404
1.25532
1.25744
1.26145
1.27299
1.28306
1.28724
1.28938
1.28969
1.28369
1.2797
1.28026
1.2821
1.28424
1.2911
1.30592
1.3144
1.31787
1.31963
1.31575
1.30724
1.30446
1.30524
1.30709
1.30992
1.3199
1.33596
1.34431
1.34805
1.35041
1.34637
1.33775
1.33532
1.33659
1.33877
1.34259
1.35444
1.37019
1.37823
1.3821
1.3845
1.38172
1.37304
1.36977
1.37152
1.37474
1.37923
1.39123
1.40654
1.41496
1.41937
1.42243
1.42215
1.415
1.41017
1.41113
1.41464
1.41927
1.42935
1.44368
1.45335
1.45897
1.46303
1.46539
1.4631
1.45615
1.45265
1.45374
1.45662
1.4635
1.47536
1.48368
1.48806
1.4888
1.4945
1.89197
3.68153
1.21545
1.21284
1.21132
1.21219
1.21366
1.21735
1.22702
1.23383
1.23686
1.2389
1.23964
1.23619
1.2338
1.2343
1.23585
1.23854
1.24793
1.25805
1.26252
1.26478
1.2662
1.26278
1.25862
1.25857
1.25999
1.26185
1.26761
1.28103
1.28921
1.29275
1.29469
1.29248
1.28577
1.28351
1.28412
1.28572
1.28858
1.29889
1.31376
1.32054
1.32349
1.3245
1.31824
1.30984
1.30803
1.30956
1.3118
1.31519
1.32702
1.34196
1.34885
1.35225
1.35478
1.34955
1.34074
1.33901
1.34122
1.34411
1.34832
1.36037
1.37461
1.38153
1.38538
1.38869
1.38591
1.37788
1.37562
1.37762
1.38049
1.38469
1.39612
1.4102
1.41794
1.42236
1.42625
1.42708
1.42055
1.41596
1.41673
1.41964
1.42366
1.43257
1.44647
1.45625
1.46185
1.46588
1.46864
1.46773
1.46113
1.45608
1.45584
1.45789
1.46284
1.47369
1.48238
1.4857
1.49334
1.90038
3.65303
1.22003
1.21952
1.2157
1.21473
1.21506
1.21668
1.22338
1.23431
1.23987
1.24241
1.24422
1.24299
1.2384
1.23698
1.23763
1.23917
1.24388
1.25628
1.26467
1.26826
1.27029
1.27013
1.26465
1.26147
1.26152
1.26305
1.26584
1.27545
1.28928
1.29567
1.2984
1.29949
1.29422
1.28747
1.28641
1.28806
1.29026
1.29397
1.30689
1.3203
1.32574
1.32853
1.3289
1.32137
1.31428
1.31328
1.31428
1.31603
1.32032
1.3343
1.34798
1.35401
1.35719
1.35846
1.35249
1.34562
1.34481
1.34615
1.34828
1.35282
1.36612
1.38033
1.38735
1.39098
1.39392
1.39088
1.38276
1.38041
1.38194
1.38447
1.38855
1.39976
1.41428
1.42276
1.42751
1.43105
1.43245
1.42689
1.42126
1.42099
1.42374
1.42748
1.43479
1.44821
1.45874
1.46463
1.46861
1.47145
1.47209
1.46653
1.45952
1.45736
1.45852
1.46187
1.47165
1.47902
1.48869
1.90982
3.62332
1.22405
1.22546
1.22058
1.21672
1.21647
1.21781
1.2214
1.23279
1.24217
1.2459
1.24784
1.2486
1.24408
1.23969
1.23944
1.24089
1.24335
1.25214
1.26518
1.27121
1.27384
1.27535
1.27194
1.26554
1.26407
1.26541
1.26743
1.27123
1.2837
1.29612
1.30121
1.30374
1.30362
1.29626
1.29109
1.29111
1.29256
1.29436
1.29902
1.31401
1.32622
1.3309
1.33378
1.33356
1.32439
1.31734
1.31678
1.31857
1.32089
1.3263
1.34079
1.3528
1.35787
1.36119
1.36296
1.35605
1.34866
1.34803
1.35051
1.3536
1.35888
1.37239
1.38562
1.39206
1.39572
1.39793
1.39465
1.38662
1.38399
1.38606
1.38934
1.39382
1.40449
1.41845
1.42692
1.43179
1.43525
1.43664
1.43228
1.42637
1.42518
1.42754
1.43109
1.43746
1.4499
1.46098
1.4673
1.47125
1.47399
1.47522
1.47142
1.46334
1.45885
1.45865
1.46098
1.46816
1.48024
1.91535
3.59225
1.22748
1.22949
1.22614
1.22005
1.21866
1.21988
1.2221
1.22987
1.24234
1.24837
1.25092
1.25242
1.25042
1.24418
1.24217
1.24323
1.24507
1.24919
1.26165
1.27254
1.27689
1.27896
1.2791
1.27274
1.26812
1.26814
1.26946
1.27129
1.27665
1.29183
1.30271
1.30698
1.30962
1.30777
1.29878
1.29398
1.29389
1.29556
1.2981
1.30556
1.32204
1.33244
1.33639
1.33859
1.33674
1.32748
1.32222
1.32207
1.32331
1.32546
1.33206
1.34739
1.35824
1.36298
1.36565
1.36604
1.35966
1.35406
1.35425
1.35637
1.35894
1.36366
1.37654
1.38898
1.39504
1.39868
1.40176
1.39939
1.39259
1.39042
1.39215
1.39486
1.39851
1.40776
1.42113
1.42986
1.43466
1.43831
1.44088
1.43828
1.43239
1.43031
1.43193
1.43489
1.43978
1.45083
1.46238
1.46912
1.47301
1.47581
1.47765
1.47594
1.46795
1.46056
1.45849
1.45878
1.46988
1.91009
3.55961
1.23004
1.23258
1.23134
1.22514
1.22196
1.22261
1.22425
1.22802
1.23944
1.24938
1.25337
1.25537
1.25609
1.25101
1.24623
1.24609
1.24751
1.2496
1.25628
1.27056
1.27893
1.28233
1.28406
1.28148
1.27363
1.27045
1.27101
1.27288
1.27561
1.28441
1.30051
1.30914
1.31268
1.31472
1.3102
1.30019
1.29686
1.29815
1.30049
1.30362
1.31281
1.32852
1.33696
1.34033
1.34279
1.34049
1.33071
1.32578
1.32629
1.32832
1.33095
1.33779
1.3521
1.36182
1.36611
1.36968
1.37111
1.3645
1.35846
1.35789
1.35974
1.36247
1.36754
1.38072
1.39345
1.40006
1.40369
1.40679
1.40573
1.39871
1.39505
1.39589
1.39854
1.40197
1.40985
1.42346
1.43332
1.43873
1.44246
1.44532
1.44476
1.43892
1.43504
1.43551
1.43817
1.44188
1.45068
1.46275
1.4706
1.4748
1.47754
1.47931
1.47918
1.47291
1.46372
1.45753
1.46062
1.89368
3.5265
1.23165
1.23523
1.23565
1.23165
1.22648
1.22571
1.2268
1.22862
1.235
1.24811
1.25546
1.25846
1.25998
1.25814
1.25161
1.24918
1.25004
1.25181
1.25461
1.26433
1.27812
1.28455
1.28734
1.28806
1.28243
1.27501
1.27393
1.27578
1.27811
1.28113
1.29162
1.30639
1.31321
1.31622
1.31786
1.31249
1.30422
1.3025
1.30376
1.30557
1.30864
1.31911
1.3342
1.34182
1.34506
1.34681
1.34374
1.33535
1.33177
1.33186
1.33278
1.33519
1.3429
1.35773
1.36724
1.3715
1.37411
1.37481
1.36901
1.36294
1.3622
1.36447
1.36776
1.37291
1.38503
1.3977
1.40442
1.40817
1.41051
1.40998
1.4038
1.39924
1.39975
1.40279
1.40661
1.4136
1.42624
1.43664
1.44248
1.4463
1.44901
1.44945
1.44476
1.43971
1.43885
1.44098
1.44411
1.45121
1.46289
1.47151
1.47609
1.47873
1.48045
1.48108
1.47746
1.46626
1.45899
1.86748
3.49387
1.23268
1.23779
1.23885
1.23811
1.23238
1.22912
1.22949
1.23109
1.23374
1.24308
1.25515
1.2603
1.26249
1.26366
1.25953
1.25411
1.25355
1.25487
1.25649
1.25944
1.27081
1.2837
1.2891
1.29193
1.29221
1.28515
1.27965
1.27941
1.28035
1.2817
1.28496
1.29723
1.31155
1.31781
1.32088
1.32251
1.31629
1.30817
1.30664
1.30834
1.31054
1.31392
1.32453
1.33874
1.34564
1.3488
1.3514
1.34814
1.33871
1.33476
1.33571
1.33779
1.34074
1.34817
1.36179
1.37045
1.37461
1.37824
1.38011
1.37444
1.36854
1.3683
1.37031
1.37268
1.37677
1.38794
1.40026
1.40681
1.41058
1.41403
1.41514
1.4099
1.40552
1.40585
1.40812
1.41098
1.4161
1.42778
1.43872
1.44489
1.44872
1.452
1.45389
1.45077
1.44517
1.44314
1.4444
1.44682
1.45134
1.46172
1.47151
1.47687
1.47958
1.48107
1.48206
1.47925
1.46965
1.84582
3.46229
1.23198
1.24026
1.24195
1.24303
1.24014
1.23434
1.23287
1.23369
1.23492
1.23797
1.24975
1.26107
1.26569
1.26794
1.2682
1.26227
1.25805
1.25751
1.25794
1.25939
1.26345
1.2773
1.28994
1.29492
1.29755
1.29689
1.28839
1.28237
1.28191
1.28349
1.28552
1.28984
1.30395
1.31723
1.3228
1.32568
1.32661
1.32042
1.31357
1.31235
1.31298
1.31439
1.3182
1.33035
1.34438
1.35087
1.35364
1.35501
1.35131
1.34363
1.34098
1.34142
1.34251
1.34493
1.35255
1.36666
1.37588
1.38019
1.38303
1.38452
1.37951
1.37309
1.37178
1.37372
1.37654
1.38052
1.39067
1.40352
1.41136
1.41562
1.41861
1.42055
1.41687
1.41101
1.40946
1.41146
1.41468
1.41886
1.42863
1.44045
1.44788
1.45222
1.45537
1.45783
1.45714
1.45145
1.44712
1.44684
1.44884
1.45199
1.46031
1.47068
1.47702
1.47997
1.4817
1.48178
1.48329
1.83902
3.43101
1.22918
1.24208
1.24553
1.24696
1.24715
1.24169
1.23646
1.23521
1.23577
1.23753
1.24305
1.25803
1.26817
1.27194
1.27384
1.27204
1.26392
1.2597
1.2598
1.26122
1.2632
1.26903
1.28499
1.29612
1.30038
1.30267
1.30069
1.2913
1.28606
1.286
1.28742
1.28954
1.2951
1.31018
1.32217
1.32708
1.3304
1.33167
1.32411
1.31607
1.31497
1.31692
1.31934
1.32388
1.33592
1.34832
1.35397
1.35697
1.35955
1.35623
1.34768
1.34415
1.34516
1.3473
1.35042
1.35737
1.37014
1.37892
1.38341
1.38667
1.38841
1.38468
1.37866
1.37683
1.37838
1.38124
1.38531
1.39405
1.4065
1.41479
1.41946
1.42249
1.42422
1.42225
1.41701
1.41455
1.4157
1.4186
1.4225
1.43056
1.44206
1.45041
1.45528
1.45862
1.46102
1.46142
1.45711
1.45168
1.44989
1.4509
1.45304
1.45875
1.46918
1.47674
1.48064
1.48157
1.48721
1.84173
3.39985
1.22619
1.24089
1.24823
1.2506
1.25167
1.24949
1.24142
1.23749
1.2379
1.23948
1.24207
1.25114
1.26686
1.27461
1.27766
1.27884
1.27379
1.26495
1.2623
1.26296
1.26464
1.26731
1.27597
1.29244
1.30144
1.30506
1.3076
1.30446
1.29402
1.28927
1.28931
1.29076
1.29351
1.30115
1.31754
1.32812
1.33235
1.33463
1.33434
1.32664
1.32073
1.3206
1.32201
1.32398
1.32834
1.34084
1.35322
1.35908
1.36179
1.36323
1.36016
1.35321
1.35063
1.35114
1.35216
1.3542
1.36034
1.37304
1.38252
1.38719
1.39029
1.39331
1.39126
1.38476
1.38251
1.38411
1.38641
1.38927
1.3958
1.40783
1.41681
1.42159
1.42499
1.42849
1.42894
1.42405
1.42055
1.42101
1.42306
1.42582
1.43114
1.44204
1.45173
1.45719
1.46053
1.46346
1.46561
1.46354
1.45705
1.45284
1.45263
1.45419
1.45799
1.46744
1.47596
1.47966
1.48679
1.85033
3.36856
1.22578
1.23554
1.24848
1.25329
1.25511
1.25529
1.24915
1.24188
1.24089
1.24228
1.24414
1.24771
1.25991
1.27398
1.27989
1.2826
1.28325
1.27468
1.26623
1.26514
1.2667
1.26869
1.27222
1.28369
1.29929
1.30655
1.30962
1.31108
1.30617
1.29594
1.29273
1.29414
1.29641
1.29978
1.30794
1.32245
1.33117
1.33488
1.33767
1.33823
1.33084
1.32473
1.32445
1.32654
1.32915
1.33364
1.34479
1.35632
1.36203
1.36527
1.36815
1.36615
1.35844
1.35419
1.35444
1.35626
1.35888
1.3646
1.37663
1.38675
1.39195
1.39494
1.39731
1.39638
1.39054
1.38698
1.38742
1.38974
1.39279
1.39808
1.40951
1.42016
1.42619
1.42979
1.4326
1.43423
1.43112
1.42595
1.42426
1.42589
1.42881
1.43299
1.4421
1.45288
1.45989
1.4638
1.46647
1.46845
1.46796
1.46232
1.45641
1.45463
1.45554
1.45791
1.46609
1.47371
1.48275
1.85786
3.33614
1.22769
1.2308
1.24359
1.25381
1.25738
1.25882
1.25746
1.24952
1.24506
1.24543
1.247
1.2489
1.25339
1.26693
1.27882
1.28328
1.2851
1.28458
1.27636
1.27033
1.27038
1.27231
1.27447
1.27792
1.28905
1.30263
1.30867
1.31137
1.31332
1.3092
1.30156
1.29965
1.30056
1.30185
1.30432
1.31221
1.32653
1.33551
1.33959
1.34204
1.34187
1.33524
1.33045
1.33039
1.33147
1.33326
1.33724
1.34874
1.36114
1.36747
1.37041
1.37224
1.3707
1.36425
1.36038
1.36041
1.36164
1.36351
1.36799
1.37887
1.3889
1.39442
1.39794
1.40107
1.4015
1.39643
1.39218
1.39189
1.39405
1.39724
1.40207
1.4116
1.42211
1.42875
1.4329
1.43616
1.43799
1.43659
1.43204
1.42935
1.43
1.43224
1.43546
1.44275
1.45354
1.4613
1.46549
1.46817
1.4705
1.47172
1.4683
1.46116
1.45703
1.45677
1.45859
1.46427
1.47506
1.8594
3.30213
1.23047
1.23117
1.23598
1.24939
1.25828
1.2614
1.26269
1.25984
1.25201
1.24929
1.25019
1.25181
1.2534
1.25728
1.27058
1.28222
1.28703
1.28985
1.28964
1.28171
1.27662
1.27635
1.2768
1.27768
1.28082
1.29233
1.30622
1.31291
1.31604
1.31834
1.31442
1.306
1.30297
1.3041
1.30618
1.30924
1.31657
1.33008
1.33891
1.34299
1.34601
1.34679
1.34012
1.33397
1.33348
1.33558
1.3383
1.34228
1.35227
1.36408
1.37038
1.37373
1.3767
1.37687
1.37065
1.36522
1.36416
1.36525
1.36714
1.3708
1.38059
1.39177
1.39845
1.40208
1.40478
1.40666
1.40338
1.39845
1.39776
1.39969
1.40188
1.40491
1.41197
1.42301
1.43103
1.43545
1.43855
1.44188
1.4431
1.43917
1.43475
1.43412
1.43586
1.43832
1.44251
1.45203
1.46171
1.4674
1.47054
1.47278
1.47433
1.47319
1.46676
1.46023
1.45821
1.45827
1.46658
1.85137
3.26682
1.23373
1.23281
1.23401
1.24003
1.25435
1.26272
1.26603
1.26757
1.26392
1.25675
1.25442
1.2541
1.25396
1.25544
1.26022
1.27539
1.28798
1.29291
1.29544
1.29477
1.28629
1.27949
1.27839
1.27963
1.28141
1.28496
1.29723
1.31136
1.3179
1.32088
1.3225
1.31849
1.31083
1.30837
1.30897
1.31009
1.31275
1.32042
1.33455
1.34366
1.34774
1.35017
1.35062
1.34509
1.33997
1.33957
1.34065
1.34213
1.34534
1.35506
1.36799
1.37534
1.37879
1.38094
1.38125
1.37591
1.36994
1.3683
1.36953
1.37181
1.37553
1.38374
1.39451
1.40179
1.40602
1.40882
1.41077
1.40943
1.40447
1.4018
1.40286
1.40552
1.40887
1.41455
1.4245
1.43372
1.43933
1.44272
1.4454
1.44729
1.44529
1.44031
1.4376
1.43817
1.44051
1.44393
1.45178
1.46212
1.46886
1.47235
1.47457
1.47627
1.47665
1.47238
1.46486
1.45937
1.46089
1.83263
3.2313
1.23741
1.23498
1.23531
1.23645
1.2442
1.26014
1.26852
1.27187
1.2734
1.26845
1.25938
1.25566
1.25583
1.25696
1.25885
1.26493
1.28177
1.29343
1.29787
1.30043
1.29916
1.28964
1.28295
1.28209
1.28303
1.28491
1.28926
1.30273
1.31588
1.32157
1.32485
1.32729
1.32334
1.31439
1.31107
1.3122
1.31431
1.31748
1.32514
1.33841
1.34695
1.35101
1.35431
1.35601
1.35072
1.34358
1.34199
1.34381
1.34628
1.34999
1.35935
1.37145
1.37833
1.38186
1.38428
1.38562
1.38184
1.37632
1.37485
1.37584
1.37729
1.37967
1.38547
1.39559
1.40355
1.40818
1.41152
1.41423
1.41428
1.41099
1.40827
1.40861
1.41048
1.41281
1.4164
1.42478
1.43468
1.44105
1.44502
1.44814
1.45097
1.45091
1.44639
1.44269
1.4422
1.44341
1.44576
1.45081
1.46122
1.46971
1.47395
1.47621
1.47784
1.47884
1.4772
1.46928
1.46206
1.80853
3.19663
1.24298
1.23703
1.23665
1.23753
1.24007
1.25138
1.26746
1.27449
1.27733
1.27802
1.2708
1.26128
1.25842
1.25866
1.25999
1.2626
1.27169
1.28927
1.29885
1.30249
1.30469
1.30309
1.29203
1.28514
1.28476
1.28632
1.28868
1.29422
1.3087
1.32124
1.32664
1.32934
1.33081
1.32657
1.31859
1.31617
1.31713
1.31866
1.32137
1.3291
1.34312
1.35202
1.35595
1.35823
1.35906
1.35469
1.34872
1.34764
1.34928
1.35147
1.35439
1.36158
1.37309
1.38125
1.38575
1.38844
1.39041
1.38857
1.38322
1.37991
1.37959
1.38093
1.3832
1.38712
1.39573
1.40502
1.41098
1.41443
1.41774
1.42034
1.41893
1.41455
1.4125
1.4135
1.41587
1.41863
1.4244
1.43486
1.44356
1.44854
1.45167
1.45428
1.45583
1.45305
1.44746
1.44468
1.4453
1.44752
1.45136
1.46064
1.47018
1.47523
1.47774
1.47927
1.48074
1.48
1.47352
1.79182
3.16324
1.25052
1.24014
1.23931
1.24029
1.24167
1.24512
1.25844
1.27284
1.27862
1.28136
1.28219
1.27291
1.26288
1.26115
1.26264
1.26463
1.26818
1.27935
1.29507
1.30258
1.30566
1.30711
1.30452
1.29463
1.28928
1.28954
1.29141
1.29419
1.30008
1.31325
1.32433
1.32936
1.3323
1.33481
1.33126
1.32267
1.31954
1.3207
1.32295
1.3266
1.33423
1.34615
1.35399
1.35802
1.36102
1.36376
1.36131
1.3551
1.35255
1.35303
1.35493
1.35793