/*--------------------------------*- C++ -*----------------------------------*\
  =========                 |
  \\      /  F ield         | OpenFOAM: The Open Source CFD Toolbox
   \\    /   O peration     | Website:  https://openfoam.org
    \\  /    A nd           | Version:  12
     \\/     M anipulation  |
\*---------------------------------------------------------------------------*/
FoamFile
{
    format      ascii;
    class       volVectorField;
    location    "13.4";
    object      U;
}
// * * * * * * * * * * * * * * * * * * * * * * * * * * * * * * * * * * * * * //

dimensions      [0 1 -1 0 0 0 0];

internalField   nonuniform List<vector> 
9801
(
(1.22964 -0.11641 0)
(1.22331 -0.112601 0)
(1.21952 -0.11073 0)
(1.21766 -0.107668 0)
(1.22102 -0.10425 0)
(1.22324 -0.10148 0)
(1.22212 -0.0992812 0)
(1.21942 -0.0970687 0)
(1.2159 -0.0949224 0)
(1.21165 -0.0927056 0)
(1.20668 -0.0899885 0)
(1.19853 -0.0862914 0)
(1.19256 -0.0836048 0)
(1.1883 -0.0815212 0)
(1.18459 -0.0793011 0)
(1.18446 -0.0761594 0)
(1.1885 -0.0729436 0)
(1.18954 -0.0705883 0)
(1.18765 -0.0685205 0)
(1.18445 -0.0664303 0)
(1.18043 -0.0644305 0)
(1.17594 -0.0622363 0)
(1.16801 -0.0588078 0)
(1.15944 -0.0556796 0)
(1.15443 -0.0535037 0)
(1.15032 -0.0516873 0)
(1.14757 -0.0493238 0)
(1.15069 -0.0462222 0)
(1.1545 -0.0435486 0)
(1.1539 -0.0414057 0)
(1.15099 -0.0393139 0)
(1.14703 -0.0373046 0)
(1.14251 -0.0352494 0)
(1.13444 -0.0321984 0)
(1.12409 -0.0293425 0)
(1.11802 -0.0273221 0)
(1.1134 -0.0256666 0)
(1.10962 -0.0238806 0)
(1.11073 -0.0211048 0)
(1.11595 -0.0180828 0)
(1.11699 -0.015756 0)
(1.11456 -0.0135755 0)
(1.1107 -0.0115657 0)
(1.10611 -0.00978868 0)
(1.09762 -0.00707713 0)
(1.08522 -0.00460642 0)
(1.07771 -0.00290465 0)
(1.07264 -0.00148856 0)
(1.06817 -6.67224e-05 0)
(1.06776 0.00234228 0)
(1.07384 0.00551989 0)
(1.07633 0.00824931 0)
(1.07429 0.0105223 0)
(1.07035 0.012549 0)
(1.06567 0.0141528 0)
(1.05664 0.0164882 0)
(1.0411 0.0185057 0)
(1.0315 0.0197784 0)
(1.02578 0.0208511 0)
(1.0207 0.0218008 0)
(1.01956 0.0239552 0)
(1.02708 0.0271551 0)
(1.03068 0.0299407 0)
(1.02852 0.0322288 0)
(1.02439 0.0342973 0)
(1.01916 0.0359181 0)
(1.00844 0.0380272 0)
(0.988712 0.0394711 0)
(0.975402 0.0400849 0)
(0.968396 0.0405412 0)
(0.962817 0.0409979 0)
(0.963275 0.0428938 0)
(0.972968 0.045862 0)
(0.976291 0.0488785 0)
(0.973114 0.0513998 0)
(0.967791 0.0534387 0)
(0.96091 0.0547461 0)
(0.945141 0.055961 0)
(0.918611 0.0558222 0)
(0.901407 0.0552945 0)
(0.892237 0.0552816 0)
(0.886332 0.0557245 0)
(0.892826 0.0572575 0)
(0.902549 0.0598282 0)
(0.901592 0.0627604 0)
(0.894811 0.065683 0)
(0.88629 0.0671545 0)
(0.872844 0.0685565 0)
(0.839801 0.0686529 0)
(0.801112 0.0653192 0)
(0.777845 0.062437 0)
(0.764053 0.0607733 0)
(0.762736 0.05725 0)
(0.773316 0.0522495 0)
(0.766478 0.0455698 0)
(0.738592 0.0368715 0)
(0.700253 0.0203676 0)
(0.192584 -0.0818441 0)
(-0.895713 -0.0610746 0)
(1.22973 -0.118367 0)
(1.22282 -0.114447 0)
(1.21909 -0.112745 0)
(1.21727 -0.109757 0)
(1.22126 -0.10634 0)
(1.22348 -0.103677 0)
(1.22202 -0.101544 0)
(1.2191 -0.0993593 0)
(1.21552 -0.0971563 0)
(1.2113 -0.0948752 0)
(1.20607 -0.0918791 0)
(1.19812 -0.0881807 0)
(1.19212 -0.085431 0)
(1.18778 -0.0832968 0)
(1.18412 -0.0812192 0)
(1.18434 -0.0781008 0)
(1.1889 -0.0750598 0)
(1.18968 -0.0728495 0)
(1.18745 -0.0708257 0)
(1.18409 -0.0687085 0)
(1.18007 -0.0666018 0)
(1.17551 -0.0641854 0)
(1.16742 -0.0605884 0)
(1.15913 -0.0574834 0)
(1.15401 -0.0553406 0)
(1.14989 -0.053618 0)
(1.14716 -0.0513971 0)
(1.15077 -0.0483344 0)
(1.15461 -0.0457167 0)
(1.1537 -0.0435251 0)
(1.15065 -0.0413443 0)
(1.1467 -0.0392233 0)
(1.14219 -0.0370631 0)
(1.13426 -0.0341149 0)
(1.124 -0.0314817 0)
(1.1176 -0.0294829 0)
(1.11296 -0.0277631 0)
(1.10912 -0.0261073 0)
(1.11023 -0.0232014 0)
(1.11589 -0.0199819 0)
(1.11689 -0.0175655 0)
(1.11433 -0.0153355 0)
(1.11043 -0.0133325 0)
(1.10589 -0.0115078 0)
(1.09773 -0.00913086 0)
(1.08533 -0.00703215 0)
(1.07731 -0.00541282 0)
(1.07203 -0.00378436 0)
(1.0676 -0.00236823 0)
(1.06683 0.000242303 0)
(1.07337 0.00388154 0)
(1.07621 0.00678337 0)
(1.07416 0.00905161 0)
(1.0702 0.0109934 0)
(1.06553 0.0124787 0)
(1.05695 0.0143883 0)
(1.04149 0.0158637 0)
(1.03113 0.0168523 0)
(1.02497 0.0181951 0)
(1.01994 0.0192164 0)
(1.01824 0.0214455 0)
(1.02557 0.0247973 0)
(1.02963 0.028417 0)
(1.02792 0.0311423 0)
(1.02393 0.0331901 0)
(1.01876 0.0344603 0)
(1.0089 0.0360063 0)
(0.9893 0.0365555 0)
(0.975022 0.0367204 0)
(0.967482 0.0372758 0)
(0.961865 0.0377093 0)
(0.960471 0.0393117 0)
(0.969171 0.0441418 0)
(0.973931 0.0485708 0)
(0.971706 0.0508464 0)
(0.966492 0.0520104 0)
(0.959852 0.0524311 0)
(0.94553 0.0529927 0)
(0.919069 0.0519033 0)
(0.900752 0.050456 0)
(0.890688 0.0495744 0)
(0.883343 0.0492366 0)
(0.884743 0.053452 0)
(0.895095 0.0621831 0)
(0.897331 0.0674408 0)
(0.89185 0.0693051 0)
(0.883073 0.069428 0)
(0.870974 0.0689318 0)
(0.841947 0.0650208 0)
(0.802382 0.0579686 0)
(0.775296 0.051729 0)
(0.758318 0.0487649 0)
(0.748135 0.0498035 0)
(0.751018 0.0585843 0)
(0.745044 0.0576378 0)
(0.722716 0.0511872 0)
(0.695795 0.0405873 0)
(0.195009 -0.0774286 0)
(-0.899479 -0.0642323 0)
(1.22979 -0.115491 0)
(1.2227 -0.111468 0)
(1.2189 -0.109897 0)
(1.21697 -0.107151 0)
(1.22152 -0.103509 0)
(1.22403 -0.10071 0)
(1.22236 -0.098528 0)
(1.21925 -0.0963297 0)
(1.21554 -0.0941512 0)
(1.21122 -0.0919448 0)
(1.20565 -0.08891 0)
(1.1977 -0.0852338 0)
(1.19185 -0.082541 0)
(1.18746 -0.0805097 0)
(1.18371 -0.0786684 0)
(1.18416 -0.075731 0)
(1.18924 -0.0726193 0)
(1.18996 -0.0702345 0)
(1.18756 -0.0680186 0)
(1.18412 -0.065803 0)
(1.18003 -0.0637284 0)
(1.17521 -0.0613372 0)
(1.16677 -0.0578043 0)
(1.15887 -0.0548745 0)
(1.1537 -0.0528728 0)
(1.14947 -0.0513374 0)
(1.14652 -0.0493904 0)
(1.15008 -0.0461955 0)
(1.1541 -0.0431373 0)
(1.15327 -0.0406635 0)
(1.15028 -0.038382 0)
(1.14641 -0.0363248 0)
(1.14196 -0.0344353 0)
(1.13422 -0.032008 0)
(1.12371 -0.0296036 0)
(1.11699 -0.0275265 0)
(1.1122 -0.025749 0)
(1.10819 -0.0242691 0)
(1.10853 -0.0213581 0)
(1.11439 -0.0174096 0)
(1.11594 -0.0145676 0)
(1.11359 -0.0123491 0)
(1.1098 -0.0104775 0)
(1.10534 -0.00898787 0)
(1.09802 -0.0073825 0)
(1.08523 -0.00606613 0)
(1.07624 -0.00433266 0)
(1.0706 -0.00234618 0)
(1.06608 -0.000814125 0)
(1.06435 0.00165415 0)
(1.0706 0.00616364 0)
(1.07448 0.0097621 0)
(1.07291 0.011957 0)
(1.06908 0.0136961 0)
(1.06446 0.0148663 0)
(1.05703 0.0159897 0)
(1.04174 0.0160382 0)
(1.02978 0.0167212 0)
(1.02276 0.0184915 0)
(1.01744 0.0200392 0)
(1.01417 0.0222513 0)
(1.02014 0.02761 0)
(1.0262 0.0325402 0)
(1.02548 0.0348025 0)
(1.02161 0.0362326 0)
(1.01645 0.0369721 0)
(1.00811 0.037644 0)
(0.989571 0.0363576 0)
(0.973236 0.035405 0)
(0.964166 0.0363184 0)
(0.957976 0.0373941 0)
(0.953553 0.039119 0)
(0.96004 0.0451301 0)
(0.967354 0.0507516 0)
(0.966153 0.0528903 0)
(0.961142 0.0539822 0)
(0.954992 0.0543845 0)
(0.943568 0.0543984 0)
(0.918677 0.0507757 0)
(0.897018 0.0478773 0)
(0.884562 0.0480999 0)
(0.876308 0.0484623 0)
(0.872522 0.0499963 0)
(0.882094 0.0568417 0)
(0.888117 0.0616528 0)
(0.884001 0.0624806 0)
(0.875795 0.0626168 0)
(0.865134 0.0630913 0)
(0.840971 0.0614035 0)
(0.803217 0.0536442 0)
(0.773318 0.0437573 0)
(0.753947 0.0376146 0)
(0.741123 0.034675 0)
(0.737926 0.0313809 0)
(0.734769 0.0236405 0)
(0.717165 0.0149596 0)
(0.702606 0.011376 0)
(0.20137 -0.0837762 0)
(-0.906313 -0.0536735 0)
(1.22793 -0.113636 0)
(1.22053 -0.109764 0)
(1.2167 -0.108138 0)
(1.21441 -0.105623 0)
(1.219 -0.101815 0)
(1.22215 -0.0985347 0)
(1.22069 -0.0960559 0)
(1.21759 -0.0938455 0)
(1.21381 -0.0918183 0)
(1.20945 -0.089801 0)
(1.20336 -0.0871081 0)
(1.19527 -0.0841336 0)
(1.18949 -0.0817262 0)
(1.18502 -0.0797124 0)
(1.1812 -0.0779586 0)
(1.18139 -0.0749666 0)
(1.1868 -0.0712172 0)
(1.18788 -0.0683325 0)
(1.1856 -0.0659572 0)
(1.18219 -0.0638376 0)
(1.1781 -0.0620261 0)
(1.1731 -0.0599897 0)
(1.16422 -0.0572545 0)
(1.15651 -0.0548647 0)
(1.15125 -0.052852 0)
(1.1469 -0.051155 0)
(1.14361 -0.0492206 0)
(1.14661 -0.0455495 0)
(1.15105 -0.0418782 0)
(1.15053 -0.039333 0)
(1.14765 -0.0372227 0)
(1.14386 -0.0354357 0)
(1.13955 -0.0339002 0)
(1.13206 -0.031839 0)
(1.12134 -0.0296605 0)
(1.11433 -0.0277079 0)
(1.10932 -0.0258808 0)
(1.10511 -0.024366 0)
(1.10412 -0.0215273 0)
(1.11002 -0.0169302 0)
(1.11242 -0.0137503 0)
(1.11026 -0.0117882 0)
(1.10656 -0.0102312 0)
(1.10224 -0.00899189 0)
(1.09584 -0.00751432 0)
(1.083 -0.00602513 0)
(1.07303 -0.00440176 0)
(1.06707 -0.00259808 0)
(1.06231 -0.0011142 0)
(1.05926 0.000858863 0)
(1.0644 0.00548858 0)
(1.06966 0.00975897 0)
(1.06855 0.0118989 0)
(1.06483 0.013258 0)
(1.06036 0.0142133 0)
(1.05412 0.0153588 0)
(1.03966 0.0159918 0)
(1.02609 0.0167697 0)
(1.0182 0.0184088 0)
(1.01244 0.0199306 0)
(1.00793 0.0212721 0)
(1.01141 0.0251925 0)
(1.01901 0.0303966 0)
(1.01921 0.0329936 0)
(1.01555 0.0344855 0)
(1.01063 0.035508 0)
(1.00384 0.036466 0)
(0.987321 0.0355734 0)
(0.968694 0.0341023 0)
(0.957905 0.0348376 0)
(0.950957 0.0362183 0)
(0.945232 0.0371441 0)
(0.947632 0.0410621 0)
(0.956748 0.0483178 0)
(0.95738 0.0522461 0)
(0.952895 0.0541264 0)
(0.946977 0.0549864 0)
(0.938566 0.0551499 0)
(0.91763 0.0507691 0)
(0.892614 0.0441498 0)
(0.877588 0.0423189 0)
(0.868539 0.042862 0)
(0.861446 0.0433209 0)
(0.864083 0.0490066 0)
(0.872042 0.0599586 0)
(0.870743 0.0661691 0)
(0.863835 0.0680456 0)
(0.854871 0.0678986 0)
(0.837787 0.0651146 0)
(0.804715 0.0528681 0)
(0.771455 0.0383408 0)
(0.748307 0.0288121 0)
(0.732589 0.0259612 0)
(0.721213 0.0244312 0)
(0.717663 0.0170962 0)
(0.706956 0.00664892 0)
(0.701086 0.00258611 0)
(0.212229 -0.0769117 0)
(-0.914937 -0.0490086 0)
(1.225 -0.110766 0)
(1.21736 -0.106877 0)
(1.21348 -0.105215 0)
(1.21071 -0.102805 0)
(1.21476 -0.098912 0)
(1.21856 -0.0955178 0)
(1.21732 -0.0931451 0)
(1.21428 -0.0910002 0)
(1.21058 -0.088894 0)
(1.20636 -0.0867355 0)
(1.20039 -0.0840516 0)
(1.19215 -0.0813787 0)
(1.1861 -0.0791727 0)
(1.18145 -0.077145 0)
(1.17748 -0.0754439 0)
(1.17664 -0.0724853 0)
(1.18225 -0.0681226 0)
(1.18409 -0.0651066 0)
(1.18197 -0.0630365 0)
(1.17862 -0.0611369 0)
(1.17463 -0.0593775 0)
(1.16981 -0.0573454 0)
(1.16088 -0.0547855 0)
(1.15269 -0.052583 0)
(1.14714 -0.0505297 0)
(1.14264 -0.0486473 0)
(1.13893 -0.0468572 0)
(1.14085 -0.043083 0)
(1.1463 -0.0388137 0)
(1.14634 -0.0363011 0)
(1.14349 -0.0345144 0)
(1.13974 -0.0329119 0)
(1.13552 -0.0313758 0)
(1.12832 -0.0292747 0)
(1.1174 -0.0272008 0)
(1.10976 -0.0254094 0)
(1.10446 -0.0236072 0)
(1.10006 -0.0221069 0)
(1.09766 -0.0198652 0)
(1.10319 -0.0152701 0)
(1.10701 -0.0114327 0)
(1.10517 -0.00926705 0)
(1.10151 -0.0077442 0)
(1.09727 -0.00646319 0)
(1.09138 -0.0049485 0)
(1.07895 -0.00384567 0)
(1.0679 -0.00289585 0)
(1.06136 -0.00141217 0)
(1.05634 0.000105637 0)
(1.05232 0.00166564 0)
(1.05538 0.00570203 0)
(1.06213 0.0107956 0)
(1.06202 0.0138224 0)
(1.05854 0.0157113 0)
(1.05421 0.0170771 0)
(1.04883 0.0182894 0)
(1.03606 0.0179608 0)
(1.02065 0.0163854 0)
(1.01151 0.0171522 0)
(1.0053 0.0189127 0)
(1.0002 0.0205431 0)
(1.00038 0.0242648 0)
(1.00867 0.0310663 0)
(1.01096 0.035386 0)
(1.00789 0.0373813 0)
(1.00316 0.0385832 0)
(0.997581 0.0392212 0)
(0.984764 0.0378474 0)
(0.964078 0.0331097 0)
(0.950584 0.0316979 0)
(0.942775 0.0332553 0)
(0.936503 0.0348582 0)
(0.934472 0.0382132 0)
(0.943352 0.0466534 0)
(0.947793 0.0529291 0)
(0.944489 0.0545976 0)
(0.938784 0.0545724 0)
(0.93219 0.0542774 0)
(0.91698 0.051469 0)
(0.890296 0.0442635 0)
(0.870836 0.0387363 0)
(0.860052 0.0380696 0)
(0.85218 0.0385623 0)
(0.848293 0.0410604 0)
(0.855175 0.0503299 0)
(0.858699 0.0593213 0)
(0.853684 0.0627896 0)
(0.845161 0.063201 0)
(0.833225 0.0621795 0)
(0.808325 0.0536386 0)
(0.775077 0.0371225 0)
(0.747724 0.0223921 0)
(0.729639 0.0139251 0)
(0.717465 0.0100858 0)
(0.714772 0.000661838 0)
(0.713158 -0.0110806 0)
(0.712802 -0.0144586 0)
(0.221628 -0.0645838 0)
(-0.919889 -0.0455428 0)
(1.22042 -0.108724 0)
(1.21253 -0.104946 0)
(1.2086 -0.103252 0)
(1.20549 -0.10094 0)
(1.20897 -0.0967723 0)
(1.21352 -0.0927784 0)
(1.2125 -0.0902707 0)
(1.20938 -0.0884283 0)
(1.20569 -0.0866396 0)
(1.20148 -0.0847414 0)
(1.19584 -0.0826163 0)
(1.18756 -0.0804111 0)
(1.18112 -0.0782151 0)
(1.17625 -0.0760178 0)
(1.17215 -0.0741493 0)
(1.17021 -0.0714058 0)
(1.17569 -0.0665238 0)
(1.17872 -0.0626916 0)
(1.17678 -0.0605444 0)
(1.17337 -0.0590177 0)
(1.16944 -0.0576046 0)
(1.16478 -0.0559644 0)
(1.15615 -0.0543451 0)
(1.14732 -0.0525993 0)
(1.14144 -0.0503299 0)
(1.13673 -0.0480215 0)
(1.13277 -0.0460853 0)
(1.13331 -0.0426767 0)
(1.13964 -0.0380291 0)
(1.14059 -0.0349515 0)
(1.13784 -0.0330095 0)
(1.13415 -0.0314856 0)
(1.12999 -0.030093 0)
(1.12327 -0.0287147 0)
(1.11205 -0.0279699 0)
(1.10364 -0.0262866 0)
(1.09804 -0.023953 0)
(1.09344 -0.0217851 0)
(1.09023 -0.0195357 0)
(1.09469 -0.0154667 0)
(1.09993 -0.0113397 0)
(1.09881 -0.00869754 0)
(1.09536 -0.00678493 0)
(1.09121 -0.0052481 0)
(1.08597 -0.00388897 0)
(1.07438 -0.00397449 0)
(1.0619 -0.0044841 0)
(1.05458 -0.00305378 0)
(1.04926 -0.000951841 0)
(1.04485 0.00109115 0)
(1.04571 0.00510125 0)
(1.05315 0.0108596 0)
(1.05457 0.0144378 0)
(1.0516 0.0164243 0)
(1.04746 0.0179176 0)
(1.04272 0.0189901 0)
(1.0329 0.0189324 0)
(1.01602 0.0164835 0)
(1.00426 0.0157959 0)
(0.997628 0.0174137 0)
(0.992362 0.019166 0)
(0.990071 0.022146 0)
(0.997489 0.0290265 0)
(1.00268 0.0347471 0)
(1.00063 0.0369105 0)
(0.996175 0.0379736 0)
(0.991107 0.0384973 0)
(0.982327 0.0384044 0)
(0.962223 0.034693 0)
(0.944618 0.0310419 0)
(0.935291 0.0309918 0)
(0.928937 0.0322088 0)
(0.924149 0.0341521 0)
(0.928925 0.0411967 0)
(0.937574 0.0510512 0)
(0.937334 0.0554681 0)
(0.932308 0.0564024 0)
(0.926257 0.0563268 0)
(0.916024 0.0551615 0)
(0.892573 0.0473724 0)
(0.868749 0.0388163 0)
(0.854473 0.0338041 0)
(0.845474 0.0328987 0)
(0.838411 0.0335014 0)
(0.838972 0.039148 0)
(0.845158 0.0500527 0)
(0.844165 0.0577491 0)
(0.837069 0.0611012 0)
(0.827763 0.0613938 0)
(0.812573 0.0573706 0)
(0.785946 0.0426894 0)
(0.756249 0.0235482 0)
(0.733616 0.00867784 0)
(0.718804 0.000905306 0)
(0.712716 -0.00670335 0)
(0.716111 -0.0176138 0)
(0.719963 -0.0218855 0)
(0.229283 -0.055277 0)
(-0.923898 -0.0420703 0)
(1.21522 -0.105776 0)
(1.20705 -0.102263 0)
(1.20313 -0.10045 0)
(1.1998 -0.0983616 0)
(1.20224 -0.0947592 0)
(1.20745 -0.0907411 0)
(1.2072 -0.087561 0)
(1.20442 -0.0850057 0)
(1.20088 -0.0827739 0)
(1.19678 -0.0809216 0)
(1.19153 -0.0792182 0)
(1.18281 -0.077788 0)
(1.17546 -0.0761259 0)
(1.17047 -0.0740295 0)
(1.16636 -0.0720345 0)
(1.16361 -0.0695995 0)
(1.16807 -0.0651223 0)
(1.17259 -0.060786 0)
(1.17136 -0.0581093 0)
(1.16814 -0.0561286 0)
(1.1643 -0.0543786 0)
(1.15998 -0.0528035 0)
(1.15203 -0.0516663 0)
(1.14178 -0.0509315 0)
(1.13512 -0.0492284 0)
(1.1304 -0.0468678 0)
(1.12642 -0.0446007 0)
(1.12583 -0.0411685 0)
(1.13223 -0.0363408 0)
(1.13454 -0.0328337 0)
(1.13231 -0.0306218 0)
(1.12881 -0.0287809 0)
(1.12474 -0.0272156 0)
(1.1193 -0.0258641 0)
(1.10795 -0.0257832 0)
(1.09745 -0.0255638 0)
(1.09138 -0.0237883 0)
(1.08679 -0.0215637 0)
(1.08333 -0.018988 0)
(1.08645 -0.0144312 0)
(1.09257 -0.00950266 0)
(1.09258 -0.00652021 0)
(1.08961 -0.00444234 0)
(1.08563 -0.00276822 0)
(1.08112 -0.00157563 0)
(1.07218 -0.00140079 0)
(1.05782 -0.00295784 0)
(1.04813 -0.0028796 0)
(1.04253 -0.00118819 0)
(1.03791 0.000561799 0)
(1.03664 0.00394664 0)
(1.04383 0.010621 0)
(1.04759 0.0156606 0)
(1.04553 0.0179029 0)
(1.04165 0.0193238 0)
(1.0371 0.0202021 0)
(1.03035 0.020589 0)
(1.01457 0.0181753 0)
(0.999521 0.0162803 0)
(0.991197 0.016554 0)
(0.98578 0.0178516 0)
(0.981616 0.0197067 0)
(0.985682 0.0258236 0)
(0.994316 0.0345279 0)
(0.994834 0.0386474 0)
(0.990792 0.0397297 0)
(0.985815 0.0398821 0)
(0.979275 0.0398727 0)
(0.963007 0.0369793 0)
(0.942854 0.0319201 0)
(0.930744 0.0293729 0)
(0.923351 0.0294016 0)
(0.917391 0.030249 0)
(0.915812 0.0340908 0)
(0.925118 0.0448419 0)
(0.930272 0.0536761 0)
(0.927232 0.0567145 0)
(0.921479 0.0571739 0)
(0.914341 0.0570083 0)
(0.898609 0.0519943 0)
(0.873004 0.0394402 0)
(0.853238 0.0315365 0)
(0.841364 0.0285678 0)
(0.833463 0.0281376 0)
(0.828322 0.0295923 0)
(0.831884 0.0374816 0)
(0.8357 0.0467246 0)
(0.832937 0.0514171 0)
(0.825913 0.053025 0)
(0.815997 0.0531148 0)
(0.797819 0.0469654 0)
(0.77209 0.0300727 0)
(0.745912 0.00953071 0)
(0.725623 -0.00474451 0)
(0.714895 -0.0129602 0)
(0.716496 -0.0262806 0)
(0.724644 -0.030959 0)
(0.233807 -0.0462501 0)
(-0.928164 -0.0404809 0)
(1.20986 -0.103556 0)
(1.20154 -0.100005 0)
(1.1977 -0.0981117 0)
(1.19443 -0.0959616 0)
(1.1963 -0.0923881 0)
(1.20131 -0.0886618 0)
(1.2016 -0.0855235 0)
(1.19911 -0.0829151 0)
(1.19564 -0.0807184 0)
(1.19157 -0.0789163 0)
(1.18687 -0.0772346 0)
(1.17847 -0.0756934 0)
(1.17015 -0.074069 0)
(1.16498 -0.0721862 0)
(1.16093 -0.0702315 0)
(1.15789 -0.067919 0)
(1.16103 -0.06372 0)
(1.16636 -0.059179 0)
(1.16612 -0.0559918 0)
(1.16316 -0.0537114 0)
(1.15934 -0.0519538 0)
(1.15504 -0.0504913 0)
(1.1487 -0.0492769 0)
(1.13778 -0.0488785 0)
(1.12951 -0.0477622 0)
(1.12455 -0.0461496 0)
(1.12054 -0.0444107 0)
(1.11906 -0.0413239 0)
(1.12502 -0.0358381 0)
(1.12878 -0.0313625 0)
(1.12723 -0.0287521 0)
(1.12379 -0.0269535 0)
(1.11967 -0.0256258 0)
(1.11505 -0.0244504 0)
(1.10572 -0.023967 0)
(1.09343 -0.0240288 0)
(1.08584 -0.0230269 0)
(1.08106 -0.0215354 0)
(1.07721 -0.019755 0)
(1.07854 -0.0154168 0)
(1.08552 -0.00901631 0)
(1.08704 -0.00526965 0)
(1.08441 -0.00354715 0)
(1.08061 -0.00222255 0)
(1.07633 -0.00117802 0)
(1.07014 -0.000339679 0)
(1.05643 -0.00151273 0)
(1.04408 -0.00196689 0)
(1.03706 -0.000893799 0)
(1.0322 0.000704351 0)
(1.0289 0.00298877 0)
(1.03401 0.00924317 0)
(1.04107 0.0162978 0)
(1.04075 0.0192798 0)
(1.03709 0.0203318 0)
(1.03265 0.0210195 0)
(1.02751 0.0215968 0)
(1.01474 0.0201962 0)
(0.997661 0.0170175 0)
(0.987161 0.0163918 0)
(0.98089 0.0171381 0)
(0.975917 0.0181664 0)
(0.974826 0.0216714 0)
(0.984143 0.0311169 0)
(0.989209 0.0385558 0)
(0.986665 0.0408742 0)
(0.981884 0.0413903 0)
(0.976577 0.0417325 0)
(0.965606 0.0398466 0)
(0.94523 0.0325414 0)
(0.929161 0.0275946 0)
(0.91943 0.0266247 0)
(0.912617 0.0274289 0)
(0.907212 0.0290213 0)
(0.910301 0.0365311 0)
(0.920267 0.0491726 0)
(0.922055 0.0561838 0)
(0.917829 0.0583577 0)
(0.911878 0.0584988 0)
(0.903066 0.0571733 0)
(0.882158 0.0477711 0)
(0.857046 0.034196 0)
(0.840994 0.027161 0)
(0.831148 0.0241593 0)
(0.823841 0.023335 0)
(0.82098 0.0259855 0)
(0.825122 0.0352285 0)
(0.826094 0.0432814 0)
(0.821766 0.0467861 0)
(0.814259 0.0472907 0)
(0.803848 0.0453767 0)
(0.786657 0.0355535 0)
(0.76354 0.0164283 0)
(0.739471 -0.00447027 0)
(0.721467 -0.018312 0)
(0.715559 -0.0319559 0)
(0.724454 -0.0420434 0)
(0.237623 -0.0386655 0)
(-0.931506 -0.0384075 0)
(1.20624 -0.100771 0)
(1.19757 -0.0972801 0)
(1.19369 -0.0954093 0)
(1.19026 -0.093467 0)
(1.19167 -0.0899288 0)
(1.19641 -0.0862453 0)
(1.19687 -0.0833882 0)
(1.19466 -0.0808829 0)
(1.19144 -0.0785831 0)
(1.18761 -0.0766325 0)
(1.18337 -0.0749269 0)
(1.17592 -0.0732269 0)
(1.16677 -0.071585 0)
(1.16114 -0.0696828 0)
(1.15694 -0.0678776 0)
(1.15349 -0.0660213 0)
(1.15522 -0.0624194 0)
(1.16071 -0.058013 0)
(1.16115 -0.0549222 0)
(1.15858 -0.0525431 0)
(1.15504 -0.0504132 0)
(1.15095 -0.0486341 0)
(1.14608 -0.0470698 0)
(1.13599 -0.0464126 0)
(1.12629 -0.0456443 0)
(1.12062 -0.04404 0)
(1.11641 -0.0425022 0)
(1.11346 -0.0405351 0)
(1.11789 -0.0354978 0)
(1.12342 -0.0301124 0)
(1.12285 -0.0273213 0)
(1.11975 -0.0254762 0)
(1.11589 -0.0237891 0)
(1.11165 -0.0224066 0)
(1.10441 -0.0215709 0)
(1.09169 -0.0222086 0)
(1.0824 -0.0217246 0)
(1.07675 -0.020219 0)
(1.07246 -0.0189878 0)
(1.07077 -0.0163001 0)
(1.0778 -0.00937929 0)
(1.08237 -0.00378475 0)
(1.08075 -0.00147406 0)
(1.07711 -0.000342197 0)
(1.07296 0.000557574 0)
(1.06806 0.0014135 0)
(1.05616 0.000805333 0)
(1.04199 -0.000801616 0)
(1.03337 -0.000351546 0)
(1.0279 0.000766534 0)
(1.02347 0.0018136 0)
(1.02436 0.00591788 0)
(1.03356 0.0145711 0)
(1.03656 0.0199894 0)
(1.03374 0.0217781 0)
(1.0295 0.0224458 0)
(1.0249 0.0230682 0)
(1.01579 0.0227847 0)
(0.998225 0.0188418 0)
(0.985197 0.0163406 0)
(0.977536 0.0164734 0)
(0.971921 0.0174737 0)
(0.967426 0.0189426 0)
(0.971566 0.0256819 0)
(0.981508 0.0365235 0)
(0.982936 0.0419042 0)
(0.979211 0.0431659 0)
(0.974166 0.0430927 0)
(0.967451 0.0425781 0)
(0.951318 0.0363581 0)
(0.93065 0.0276016 0)
(0.917261 0.0245631 0)
(0.909084 0.0246456 0)
(0.903045 0.0254761 0)
(0.89952 0.0279266 0)
(0.907112 0.0385041 0)
(0.915324 0.0505074 0)
(0.914738 0.0554789 0)
(0.90959 0.0570609 0)
(0.90305 0.0573506 0)
(0.891132 0.055464 0)
(0.867903 0.0426996 0)
(0.845633 0.0281911 0)
(0.83127 0.0215842 0)
(0.822219 0.0192703 0)
(0.815537 0.018843 0)
(0.814874 0.0228565 0)
(0.818689 0.0314096 0)
(0.818206 0.0367186 0)
(0.813431 0.0381508 0)
(0.805919 0.0382116 0)
(0.794839 0.0345443 0)
(0.77933 0.0220013 0)
(0.758672 0.00211246 0)
(0.73531 -0.0165938 0)
(0.718468 -0.0318834 0)
(0.724098 -0.0578777 0)
(0.237755 -0.0334083 0)
(-0.934695 -0.0379479 0)
(1.20372 -0.0985024 0)
(1.19464 -0.0951115 0)
(1.19065 -0.0932111 0)
(1.18698 -0.0914397 0)
(1.18753 -0.0877071 0)
(1.19278 -0.0832483 0)
(1.19368 -0.0804119 0)
(1.19157 -0.0782575 0)
(1.18845 -0.0762376 0)
(1.18474 -0.0744936 0)
(1.18062 -0.0729755 0)
(1.17391 -0.0712151 0)
(1.16428 -0.0695356 0)
(1.15816 -0.0678117 0)
(1.15377 -0.0660132 0)
(1.15002 -0.0642734 0)
(1.15025 -0.0607856 0)
(1.15606 -0.0558834 0)
(1.15738 -0.0526004 0)
(1.15515 -0.0504118 0)
(1.15185 -0.0484891 0)
(1.14796 -0.046831 0)
(1.14369 -0.0453872 0)
(1.13495 -0.044335 0)
(1.12419 -0.0439013 0)
(1.11774 -0.042604 0)
(1.11318 -0.0409904 0)
(1.10937 -0.0394064 0)
(1.11082 -0.0354689 0)
(1.11795 -0.0293212 0)
(1.11919 -0.025639 0)
(1.1166 -0.0237242 0)
(1.11299 -0.0222264 0)
(1.10888 -0.0209642 0)
(1.10341 -0.0198537 0)
(1.09111 -0.0204102 0)
(1.08002 -0.0207237 0)
(1.07359 -0.0195335 0)
(1.06889 -0.0180416 0)
(1.06524 -0.0163427 0)
(1.06912 -0.0111652 0)
(1.07697 -0.00396714 0)
(1.07745 -0.000472571 0)
(1.07427 0.00109585 0)
(1.07036 0.00220109 0)
(1.06603 0.00316269 0)
(1.0568 0.00313575 0)
(1.04135 0.000761323 0)
(1.0311 -5.60082e-05 0)
(1.02481 0.000805838 0)
(1.0199 0.00199167 0)
(1.01678 0.00385683 0)
(1.02355 0.0111693 0)
(1.03124 0.0194938 0)
(1.03071 0.0230092 0)
(1.02702 0.0243733 0)
(1.02281 0.0250847 0)
(1.01687 0.0252471 0)
(1.00177 0.0215143 0)
(0.985062 0.0164409 0)
(0.975206 0.0153352 0)
(0.968514 0.0162213 0)
(0.963249 0.0173188 0)
(0.960975 0.0202452 0)
(0.970164 0.0306045 0)
(0.97764 0.0401445 0)
(0.97656 0.0436746 0)
(0.972311 0.0449286 0)
(0.967044 0.0452027 0)
(0.957015 0.0437858 0)
(0.935712 0.0346146 0)
(0.917621 0.026339 0)
(0.907447 0.0236964 0)
(0.900542 0.0228955 0)
(0.894607 0.0231942 0)
(0.89329 0.0273214 0)
(0.902855 0.0410229 0)
(0.908233 0.0524853 0)
(0.905742 0.0569324 0)
(0.90008 0.0580955 0)
(0.893402 0.0574657 0)
(0.880103 0.0527058 0)
(0.856086 0.0375847 0)
(0.83528 0.023729 0)
(0.822245 0.017351 0)
(0.81405 0.0148715 0)
(0.808152 0.0146528 0)
(0.809119 0.0199814 0)
(0.811949 0.0276491 0)
(0.810356 0.0309655 0)
(0.805759 0.0306424 0)
(0.798774 0.0295605 0)
(0.788671 0.0220219 0)
(0.775323 0.00780181 0)
(0.75615 -0.010578 0)
(0.733081 -0.0278302 0)
(0.724106 -0.0659075 0)
(0.231898 -0.0320092 0)
(-0.937719 -0.037032 0)
(1.20124 -0.0962364 0)
(1.19178 -0.0930456 0)
(1.18768 -0.0912125 0)
(1.18383 -0.0896963 0)
(1.18287 -0.0864379 0)
(1.18854 -0.0810892 0)
(1.19063 -0.0775052 0)
(1.18866 -0.0754918 0)
(1.18557 -0.0737416 0)
(1.18192 -0.0722128 0)
(1.17785 -0.0708146 0)
(1.17171 -0.0691454 0)
(1.16191 -0.0675552 0)
(1.15516 -0.066043 0)
(1.1506 -0.0644165 0)
(1.14669 -0.0629353 0)
(1.14524 -0.0601103 0)
(1.15105 -0.0547072 0)
(1.154 -0.0506376 0)
(1.15218 -0.0483903 0)
(1.14901 -0.0465701 0)
(1.14526 -0.0449768 0)
(1.14113 -0.0435861 0)
(1.13388 -0.0423504 0)
(1.12243 -0.042056 0)
(1.11487 -0.041192 0)
(1.11003 -0.0397769 0)
(1.10599 -0.0384791 0)
(1.1045 -0.0357322 0)
(1.11148 -0.0293473 0)
(1.11536 -0.0243179 0)
(1.11349 -0.0220342 0)
(1.11005 -0.0205161 0)
(1.10611 -0.0192475 0)
(1.10158 -0.0180827 0)
(1.09118 -0.018049 0)
(1.07839 -0.0191806 0)
(1.07096 -0.0187944 0)
(1.06593 -0.0176054 0)
(1.06169 -0.0164611 0)
(1.06105 -0.0131738 0)
(1.06963 -0.00512546 0)
(1.07359 0.000682389 0)
(1.07147 0.00291961 0)
(1.06774 0.00407252 0)
(1.06363 0.00499661 0)
(1.05735 0.00545881 0)
(1.04288 0.00278713 0)
(1.02971 0.000156367 0)
(1.02235 0.0002142 0)
(1.01688 0.00138076 0)
(1.01228 0.00262543 0)
(1.01286 0.00700378 0)
(1.02299 0.0174701 0)
(1.02684 0.0241008 0)
(1.02438 0.0261471 0)
(1.02011 0.0266985 0)
(1.0155 0.0271864 0)
(1.00624 0.0256097 0)
(0.987892 0.0189073 0)
(0.973961 0.0149192 0)
(0.966141 0.0147896 0)
(0.960302 0.0155051 0)
(0.955418 0.0164513 0)
(0.95705 0.0218473 0)
(0.968411 0.0350829 0)
(0.972348 0.0431365 0)
(0.969445 0.0454868 0)
(0.964597 0.0464535 0)
(0.958957 0.047091 0)
(0.946097 0.0426161 0)
(0.924256 0.0297046 0)
(0.908454 0.0216841 0)
(0.898691 0.0201489 0)
(0.892029 0.0203971 0)
(0.886615 0.0210214 0)
(0.888081 0.0267748 0)
(0.898041 0.0411515 0)
(0.90158 0.0506751 0)
(0.898402 0.0537176 0)
(0.892453 0.0546558 0)
(0.884477 0.0545054 0)
(0.869222 0.0489875 0)
(0.845691 0.0327292 0)
(0.826506 0.0186253 0)
(0.814034 0.0124012 0)
(0.806389 0.0101876 0)
(0.801645 0.0105569 0)
(0.804323 0.0165068 0)
(0.807008 0.022352 0)
(0.805218 0.0236727 0)
(0.800796 0.0225764 0)
(0.794618 0.0195048 0)
(0.785879 0.00956964 0)
(0.774057 -0.00413234 0)
(0.75395 -0.0222069 0)
(0.731754 -0.0600348 0)
(0.222749 -0.0369394 0)
(-0.940652 -0.0365081 0)
(1.19911 -0.0940272 0)
(1.18894 -0.0910898 0)
(1.18456 -0.0892538 0)
(1.18056 -0.0878131 0)
(1.17796 -0.0854364 0)
(1.18278 -0.0799086 0)
(1.18737 -0.0747952 0)
(1.18591 -0.0725953 0)
(1.18282 -0.0710716 0)
(1.17925 -0.0697225 0)
(1.17532 -0.0684131 0)
(1.16978 -0.0668902 0)
(1.15998 -0.0656416 0)
(1.15237 -0.0644191 0)
(1.14741 -0.0629811 0)
(1.14333 -0.0616054 0)
(1.14039 -0.059648 0)
(1.14477 -0.0543195 0)
(1.15019 -0.048682 0)
(1.14932 -0.0460271 0)
(1.14625 -0.0443614 0)
(1.14264 -0.0428547 0)
(1.13863 -0.0415494 0)
(1.13281 -0.0403647 0)
(1.12139 -0.0402667 0)
(1.11241 -0.0399018 0)
(1.10701 -0.0387721 0)
(1.10274 -0.0375185 0)
(1.09945 -0.0358333 0)
(1.10374 -0.0303502 0)
(1.11068 -0.0234682 0)
(1.11058 -0.0201122 0)
(1.10742 -0.018546 0)
(1.10365 -0.0173094 0)
(1.09954 -0.0162487 0)
(1.09184 -0.0159064 0)
(1.07819 -0.0176808 0)
(1.06875 -0.0182227 0)
(1.06307 -0.0172828 0)
(1.05854 -0.0160539 0)
(1.05511 -0.014387 0)
(1.06023 -0.00798611 0)
(1.06831 0.000525896 0)
(1.06854 0.00441977 0)
(1.06526 0.00590301 0)
(1.06131 0.00684533 0)
(1.05686 0.0075016 0)
(1.04604 0.00573588 0)
(1.03029 0.00135555 0)
(1.02024 2.62785e-05 0)
(1.01404 0.000903947 0)
(1.0091 0.00218134 0)
(1.00549 0.00397412 0)
(1.01154 0.0117864 0)
(1.0209 0.0225371 0)
(1.02168 0.0270905 0)
(1.0184 0.0286424 0)
(1.01418 0.0292553 0)
(1.00858 0.0295875 0)
(0.993735 0.0249383 0)
(0.975558 0.0168223 0)
(0.964763 0.0135223 0)
(0.95775 0.01351 0)
(0.95196 0.0143783 0)
(0.947825 0.0161754 0)
(0.953703 0.0256806 0)
(0.964321 0.0403196 0)
(0.96573 0.0469212 0)
(0.962563 0.0483613 0)
(0.957834 0.0482062 0)
(0.95146 0.0479937 0)
(0.934956 0.0411205 0)
(0.912721 0.0279053 0)
(0.898847 0.0209789 0)
(0.890529 0.0188806 0)
(0.884407 0.0180176 0)
(0.879214 0.0187458 0)
(0.882305 0.0268215 0)
(0.891427 0.0420823 0)
(0.893082 0.0510785 0)
(0.889019 0.05408 0)
(0.882978 0.0544864 0)
(0.875108 0.0525571 0)
(0.85982 0.0446589 0)
(0.836723 0.0277312 0)
(0.818318 0.0139262 0)
(0.806505 0.00749175 0)
(0.799512 0.00507166 0)
(0.7963 0.00595852 0)
(0.800422 0.0127449 0)
(0.802976 0.0178146 0)
(0.801388 0.0180764 0)
(0.797984 0.0154602 0)
(0.793148 0.00865275 0)
(0.785924 -0.00112547 0)
(0.773622 -0.0149176 0)
(0.746539 -0.0497476 0)
(0.214104 -0.0440936 0)
(-0.943354 -0.0353376 0)
(1.19743 -0.0917692 0)
(1.18636 -0.0893673 0)
(1.1815 -0.0874825 0)
(1.17725 -0.0859936 0)
(1.17374 -0.0842624 0)
(1.17553 -0.0798936 0)
(1.18287 -0.0732461 0)
(1.18348 -0.0697371 0)
(1.18047 -0.0682822 0)
(1.17697 -0.0669946 0)
(1.1731 -0.0657043 0)
(1.16815 -0.0643446 0)
(1.15871 -0.0636483 0)
(1.15003 -0.0630484 0)
(1.14448 -0.0618453 0)
(1.1401 -0.0604386 0)
(1.13634 -0.0590857 0)
(1.1374 -0.055074 0)
(1.14496 -0.0479087 0)
(1.14648 -0.0436799 0)
(1.14375 -0.041882 0)
(1.14026 -0.0405016 0)
(1.13637 -0.0393037 0)
(1.13165 -0.0382128 0)
(1.12124 -0.0383198 0)
(1.11063 -0.0387771 0)
(1.10435 -0.0379841 0)
(1.09965 -0.0366064 0)
(1.09571 -0.0353677 0)
(1.09571 -0.0318292 0)
(1.10416 -0.0238619 0)
(1.10724 -0.0186545 0)
(1.10488 -0.0165366 0)
(1.10129 -0.0152816 0)
(1.09734 -0.0142838 0)
(1.09207 -0.0136161 0)
(1.07966 -0.0154862 0)
(1.06754 -0.0175091 0)
(1.06054 -0.0171083 0)
(1.05544 -0.0157341 0)
(1.05124 -0.0144897 0)
(1.05089 -0.0108962 0)
(1.06035 -0.00143176 0)
(1.06484 0.00519764 0)
(1.06286 0.00765289 0)
(1.05905 0.00860643 0)
(1.05492 0.00940571 0)
(1.0485 0.00944308 0)
(1.03328 0.00505714 0)
(1.01947 0.00111014 0)
(1.01187 0.000704423 0)
(1.00632 0.0015982 0)
(1.0016 0.00272799 0)
(1.0004 0.00620498 0)
(1.0107 0.0176013 0)
(1.01714 0.0268726 0)
(1.01574 0.0300093 0)
(1.01159 0.0310295 0)
(1.00706 0.0316795 0)
(0.999887 0.0305713 0)
(0.982374 0.021929 0)
(0.965715 0.0138382 0)
(0.955832 0.0119156 0)
(0.949288 0.0125781 0)
(0.944153 0.0133309 0)
(0.941637 0.0158517 0)
(0.951594 0.0279122 0)
(0.961011 0.0412037 0)
(0.9605 0.0459111 0)
(0.955811 0.0478602 0)
(0.950372 0.0493965 0)
(0.942574 0.0492024 0)
(0.924556 0.0390558 0)
(0.904078 0.0241014 0)
(0.891223 0.0170335 0)
(0.882538 0.0156546 0)
(0.876425 0.0157247 0)
(0.872151 0.016925 0)
(0.877131 0.0259975 0)
(0.885384 0.0400853 0)
(0.886126 0.0472357 0)
(0.88188 0.0493853 0)
(0.875628 0.0498759 0)
(0.866982 0.0480423 0)
(0.851383 0.0396329 0)
(0.829182 0.0220123 0)
(0.811432 0.00798715 0)
(0.800049 0.00133259 0)
(0.793735 -0.00117275 0)
(0.792186 0.00050327 0)
(0.797987 0.00769118 0)
(0.801127 0.0120324 0)
(0.800276 0.0113097 0)
(0.798044 0.00672874 0)
(0.793663 -0.000905359 0)
(0.788309 -0.0102605 0)
(0.763743 -0.0357063 0)
(0.209011 -0.0493661 0)