/*--------------------------------*- C++ -*----------------------------------*\
  =========                 |
  \\      /  F ield         | OpenFOAM: The Open Source CFD Toolbox
   \\    /   O peration     | Website:  https://openfoam.org
    \\  /    A nd           | Version:  12
     \\/     M anipulation  |
\*---------------------------------------------------------------------------*/
FoamFile
{
    format      ascii;
    class       volScalarField;
    location    "2.775";
    object      T;
}
// * * * * * * * * * * * * * * * * * * * * * * * * * * * * * * * * * * * * * //

dimensions      [0 0 0 1 0 0 0];

internalField   nonuniform List<scalar> 
46253
(
0.997287
1.02462
1.04619
1.02446
1.04497
1.044
0.99776
0.968385
1.02339
1.02333
0.996947
0.945089
1.01818
1.01835
1
1.02286
1.0227
1.02014
1.02031
1.0216
1.0215
1.04206
1
0.998456
0.997209
1.02381
1.02219
1.02203
1.02395
0.97129
0.992302
1.01626
1.01611
1.02099
1.02083
1
1.01904
1.01888
0.969428
1
0.996262
0.957786
1.017
1.01683
1.01547
1.01967
1.01956
1
1.0149
1.01471
1.01416
1.01398
1.03845
0.980305
1.049
0.960177
1.01274
1.01256
1.01729
0.995834
1
0.999253
1
1
1
1.01768
1.01754
1.04049
0.966217
1.02361
0.999332
1.01201
1.01182
0.991925
1.03676
0.998678
1.00788
1.00765
1
1.01561
1.01545
1.01051
1.03893
1.01032
0.997673
1.03487
1.00276
1.00248
0.973178
1
1
0.995917
1.03445
1.01346
1
1.01329
1.03402
1
1.01664
1
1
1.03362
1.03579
0.992218
1.04853
0.997702
0.964189
0.997049
0.99677
0.964758
0.957634
1.01126
1.01105
1
1
0.973595
1.01385
0.994853
1.0507
0.961494
1
1.04306
1.00977
1.00955
1.03183
1.05255
1
0.954372
1.05427
1.00668
0.992877
0.992576
1.04293
0.997034
1.0064
1
1.0051
1.0049
0.966503
1
1.00838
0.990345
0.990036
0.98999
1.00856
1.05202
1.00353
1.00332
0.96778
1
0.964736
1.03791
1.00591
1.00564
0.983065
1.03173
0.954241
1
1.00109
1.04791
1.00089
0.961091
0.957255
1
0.99663
1.00432
0.997264
1.00413
1.0791
1
0.999483
0.999274
1.04107
0.996838
1.04719
1.04563
0.972928
1.03352
0.98965
1.01448
1.04732
0.982463
0.997828
0.997616
1.00066
1.0019
1.00162
1.01609
1.00025
1.00103
1.03734
1.01465
0.999244
1.01342
1
1
0.958698
1.03017
0.975684
0.975267
1
1
1.00028
1.00009
1
1.03692
0.981203
0.995328
0.995122
1
1
1.05133
0.996694
1.03531
0.954285
1.02986
0.988759
0.997765
0.993659
1.04114
1.03969
0.993459
1.04514
0.998666
0.998447
0.99735
1.03078
1.03247
0.971183
0.970979
1.00597
1
1
1
1.03147
1
1
1
1.0051
1.00949
1.03146
1.0332
1.02865
1
1
1.03627
1
0.980382
1.02835
0.9911
0.990922
1.00905
0.966883
1.02807
0.966502
0.996153
0.995859
0.972879
0.996969
1.02752
0.998262
0.995514
0.949722
0.990842
0.993329
1
1
1
0.994481
0.988547
0.9943
1.03249
1
1
0.988336
1.03112
1.0507
1
0.982328
0.966987
0.962551
0.962229
1.03629
1.03533
1
1.00051
0.99834
0.959882
0.987624
1
1.015
1.01465
0.997397
1
1.0135
0.999048
1.03279
0.998542
0.996881
0.986811
1.04892
0.986599
0.959421
1.04727
1
0.991926
0.991638
1
0.990918
1.00014
1.00155
0.985402
1
0.985145
1.02572
0.984952
0.971062
1.0129
1
0.984325
0.96112
1.02545
0.996549
0.997005
0.975751
0.986922
1.0252
1.02923
0.98333
0.983148
0.95451
0.954364
1
1
1.02486
0.998093
0.968973
0.989412
0.989103
1
1.03843
1.03734
1
1.05117
1.02356
0.981715
0.981472
1
0.97102
1.03312
0.972247
1
1.03842
1
0.952633
1.01919
0.987681
1
0.987437
1
0.942079
1
1.02704
1
1.00024
1.02632
1.02599
1.02594
0.979888
1.02323
1.01588
1.02134
1.02139
0.979728
1.02614
1.01131
0.966712
1.03214
1.0233
1
0.997752
0.99836
0.957493
0.985975
0.977686
0.985818
1.02346
1
0.978174
1.05827
1.00004
0.987652
0.977892
1.00046
1.02349
0.961589
0.978835
0.979022
1.02724
0.980487
1
0.990428
0.990627
1.01054
1.03215
1.02604
1
1
1
1.02437
1.02634
1
1.04266
1.00039
0.979572
1.02589
1.00021
1.02895
1.02389
0.973427
1.02611
1
0.976414
1.03366
0.984247
1.03367
1
0.97627
0.983976
1
0.979989
1
1
1
1
0.972601
0.985941
1.00641
1
0.977704
0.960413
1.02721
0.997258
1
0.974183
0.983532
1.01311
1.02696
0.96025
1
0.96693
0.981223
1
1.00076
1
1.02531
0.96416
1.02538
0.982545
0.976311
1.02634
0.975833
0.976097
0.98237
1.02328
0.974854
1.03355
1.02066
1.02588
1.02325
1.02066
0.989331
1
0.964267
0.957269
0.973734
0.960843
0.979511
0.973614
0.993906
0.995153
0.995198
1
1.0311
1.03047
1
1.05537
1
0.965343
0.997501
0.939539
0.965128
0.975067
0.994513
0.975983
1
1.02296
0.980733
0.978622
0.959357
0.980538
0.972071
0.97175
0.996333
0.996982
1.02674
0.996401
0.991806
1
1
1.02665
0.996119
1.02619
0.980935
0.999278
1
1.00003
0.976591
1.02602
1
0.997454
1.03938
0.98095
1.02779
1.02724
0.981
1.02495
0.980716
0.981052
0.980849
1
0.976939
0.975094
1
0.975962
0.978725
1.02368
1
0.979108
1
0.998666
0.964603
1.02357
1.0364
0.978867
1
1
1.02332
1.02341
0.953006
1.02259
1.0228
0.969421
0.962542
0.96913
0.995575
1.02052
1.02088
1.01965
1.01999
1.02779
1.02712
1
0.975178
0.950971
1.01184
1
1
1.02558
1.01862
1
0.99875
0.988111
1
0.986161
1.01867
1.02011
0.958911
1
1.01862
1.021
0.977243
1.02196
1.00816
0.977095
0.984921
1.00619
1.02645
1.0064
1.00672
1.0074
0.972046
1.01803
0.967661
0.967514
0.987736
0.986212
1.02133
1.00947
0.991231
1.02385
1.04831
0.980149
1.02587
1.04828
1.02654
1.02318
0.990375
0.992207
1.0228
1.0261
0.967389
0.976926
1.02331
1.0237
0.975857
1.01788
1.01826
1.01706
1.01698
1.0204
1.01821
1.02417
1.02376
1.01715
0.973619
1.02294
0.999496
1.02339
1.02152
1.02326
0.998804
0.998491
1.02173
1.02638
1.02028
1.02356
1.02026
1
0.975434
1.01866
1.03205
1.01885
1.03267
1.02598
1.01705
1
1.01731
1
0.95392
1.03205
0.964244
0.997916
1.00367
1.00204
1.01545
1.0158
1.02689
0.980142
1.01401
1.0143
0.975435
1.02955
1.02894
1.01134
0.965059
1.01162
1.02522
0.97459
1.00961
0.961529
1.00995
0.96494
0.974313
1.02322
1.01872
1.01895
1.00816
1.00838
0.987307
1.02308
1.01974
1.00627
0.963692
1.0063
0.963397
1.02565
1.00346
1.00359
1.02075
1.02024
1.02076
1.00095
1.0201
0.978744
0.985759
0.992838
1.03048
1.00078
1.03133
1.00099
1.03119
1.02508
0.978996
0.979031
0.999249
0.999699
0.974221
0.980181
0.997651
0.981061
0.997738
1.02955
0.979033
0.994953
0.995103
1.00024
0.962937
0.992917
0.993049
1.07121
1.03277
1.03274
1.00001
0.991153
0.973312
0.99133
1.04132
0.958122
0.975557
0.965059
0.989255
0.989764
0.985292
0.987868
0.987725
0.970561
0.967497
1.02149
0.94866
1.05154
0.963234
1
0.958175
0.962998
0.964828
0.963955
0.998946
1.01891
1.02165
1.01929
0.973029
1.02985
1.02244
1.03221
1
1.02257
0.972789
1
1.02141
1.02118
0.968889
0.963416
1.0252
0.97792
1.02367
0.998104
1
1
1.02436
1.02725
1
0.998638
1.01958
0.973974
1.02608
1.00549
0.996351
1.00646
0.959744
1
0.998839
0.996364
1.0073
1.02669
1
1.02684
1
1.03509
1.00735
1.00609
0.997283
0.997863
0.998754
1.02329
0.968608
1.02386
1.02342
1.00688
0.98485
1.02586
0.951981
1.02609
1.02598
0.978919
0.979454
1.02458
1.00766
0.96148
0.975061
1
0.975924
0.960569
1
1.02642
0.97502
0.976511
1.02651
0.960382
1.03833
1.0274
1
1.01304
1.01329
0.973448
1.03676
1.03677
1.04872
0.996766
0.994231
1.00041
0.979051
0.966987
0.966193
1.03117
1.02668
1.02602
1
1.00566
1.00587
1.01854
1.02713
1
0.970351
1.00303
1
1.02733
1.00311
0.969992
0.976011
0.975311
1
0.973243
0.980595
0.950327
0.97279
0.962259
0.996473
1.00349
1.00495
0.996932
1
1.00004
0.97534
0.973526
1.00012
0.959191
0.964873
0.980121
0.95909
0.968693
0.958836
0.95917
0.963759
0.961984
0.962053
1.02785
1.03087
1.00999
1.03107
1.02759
0.975339
0.967918
0.952206
1.02584
1.00002
0.981114
1.02955
0.979478
0.980958
1.02569
1.02535
0.990369
1.0256
1
1.02538
1.02326
0.974262
0.980139
1.00705
1.04461
1.01903
0.968495
1.03296
0.981258
0.981611
0.96838
1.02692
0.979488
0.978015
0.978883
1.02361
1.0236
1.02376
1.02356
0.978113
0.980231
1
0.974624
1.02594
0.958762
1
0.964149
0.997366
0.997256
1.02593
0.957069
0.956977
0.994624
1.04111
1.01866
0.952014
0.96715
0.966266
0.954433
1.02014
1.0203
0.975306
1.03942
1.02593
1.02602
0.97946
0.965717
0.965829
0.975678
1
1.02186
1.03046
1.02223
1.03513
1.02297
1.05939
1.02327
0.998066
0.970419
0.960351
0.992223
1.02562
1.04254
1.0465
0.970059
0.97415
0.997586
1.03364
1.01796
1.01949
1.02068
1.01643
1.01824
1
0.989042
1.01981
1.02209
1.01663
0.975536
1.02089
1.011
1.0148
1.02232
1.03503
1.02398
1.01491
1.02397
1.02093
1.01231
1.0161
1.02372
1.02158
1.01253
1.01767
1.01611
1.0106
1.01703
1.00055
1.01716
1.0108
1.02924
1.00888
1.01743
1
1.01528
0.955471
1.00901
1.02093
1
1.02051
1.00697
1.00767
1.00001
1.02048
1
1.00743
0.955173
1.04811
1.00435
1.02543
0.964402
1.00487
1.00184
1.00232
0.971127
1.00039
1.0004
0.998142
1.02352
0.997855
0.998364
1.02531
0.995597
0.998486
1.02535
1.03306
0.995714
0.963925
1.04747
0.99372
0.994138
0.992001
0.965886
0.992346
1.0307
0.990501
1.0235
0.984544
0.96567
0.990602
0.976093
0.973267
0.975096
0.988169
0.982667
0.983462
0.998233
0.98841
0.986754
0.9872
0.997926
1.01173
1.0532
1.02408
1.0086
1.02328
1.0008
1.03413
1.04959
1
1.05177
1.00273
1
0.956774
0.964391
0.987823
0.988589
1.02357
0.980001
1.00857
1.01016
0.999151
0.963999
1.00787
1.00892
1.00812
1.00587
0.989462
0.970968
0.980758
0.974272
1.024
0.974078
0.966956
0.964829
0.974422
1
1.01639
1.00396
0.939526
1
0.952891
0.996443
0.967158
0.952589
1
1.0173
1.02636
0.968615
0.9743
0.993151
1.00735
0.975537
0.977485
1.02578
0.964224
0.968822
0.963942
0.984378
0.997587
0.95176
0.96501
1.01629
0.966076
1.00969
0.984752
1.02604
1.0095
1.01994
0.969256
0.9705
1.02986
1.026
1.02816
0.97791
1.02678
1.02373
1.02739
1.02116
0.971334
0.960557
1
0.997447
1.0266
0.977078
0.964263
1
1
1.05416
0.963232
1.01553
0.960609
0.980408
0.980478
1.05028
1.01044
0.979094
1.02609
0.979085
1.02582
0.975061
0.95171
0.957303
0.962915
1.03062
1.03089
0.973836
0.967412
0.981622
0.976631
0.978192
0.978204
1.03063
0.952498
0.98184
0.975435
0.97447
0.960662
0.975016
1.0257
0.965539
1.0108
0.980618
0.949058
0.981054
1.00508
1
1.03416
1.03428
0.967477
0.978397
1
0.972883
0.978271
0.971884
0.96128
0.954245
0.973349
1.0406
0.998163
1.0154
1.03135
1.03197
0.963722
1.01789
1.0337
1.03467
1.02417
0.976341
1.03405
0.977088
0.937387
0.986662
0.977859
1.02536
1.02476
0.9777
1
1.0206
0.974379
1.01814
1.02077
1.03033
1.01716
1.01881
0.976122
0.975764
1.0148
1.02134
0.996793
1.01543
1.01913
0.963365
1
1.0135
1.01619
1.01262
1.02827
0.980418
1.0366
1.0291
1.03073
0.957112
1.01334
1.03008
1.0171
1.00577
1
1.03009
0.997811
1.00971
0.96549
0.97587
1.01324
0.961536
0.957114
1.01718
1.01991
1.01031
1.01506
0.96874
1
1.01585
0.961097
1.01752
1.00755
1.02812
1.00656
1.02838
1.00007
1
1.0165
1.02716
1.03513
0.963312
0.988223
1.02743
0.964423
1.00705
0.981007
0.975556
1.02615
0.987602
1.02993
0.979527
1.02815
1.02637
1.02059
1.00897
1
0.990018
1.02372
1.02496
1.02521
1.01863
1.0185
1.03283
0.998986
1.03721
1.02735
0.972168
1.02103
1.02401
1.02661
0.962153
0.958405
1.0419
1.02256
1.00275
1.00501
1.0229
1.02327
1.0187
1.01461
1.02142
1.00718
1.02163
1.01764
0.968651
1.01684
1.01912
1.01936
1.02578
1
1.0195
1.02199
1.01512
1.01456
0.978706
1.01804
1.02354
1.01416
1.01788
1.01831
0.957777
1.01674
1.02753
1.0169
1.00519
1.03413
1.01499
1.02745
0.987336
0.990891
0.962373
1.00391
0.953841
0.980506
1.02608
1.01534
0.98536
0.980505
1.00618
1.00764
0.947154
1.00772
1.00537
0.974705
1.00728
1.00754
0.988197
1.01282
1.01286
0.971344
1.00311
1.00634
1.01152
1.01327
1.00705
0.988265
1.00808
1
0.980081
1.00787
1.01184
1.00211
0.963191
0.979944
1.00708
1.00826
0.959827
1.01
1.02419
1.01019
0.964879
1.0206
1.02913
0.961823
0.959921
0.976946
1.00869
1.00797
1.00911
1
0.987532
1.01914
1.02531
1.03065
1.05173
1.02311
1.01998
0.974104
1.00442
1.0233
1.00592
1.00457
1.0064
1.01534
0.967454
1.01288
1.00749
1.00729
1.00548
1.00483
1.0093
1.01852
1.00468
0.978552
1.00798
1.00269
1.01187
1.00302
1.00023
1.00042
0.999136
1.02309
0.995019
1.02505
1.04516
0.964715
1.0006
1.00243
1.00036
1.0004
0.978635
0.995271
1.00514
0.980745
0.962398
1.01607
1.03513
0.997664
0.998188
1.03481
1.01766
1.03325
1.03223
1.03338
1.03238
1.02377
0.971689
1.00003
0.989679
1.04194
0.967163
1.0182
1.02205
0.966147
0.995914
0.963332
1.02319
1.02066
0.98975
0.958927
1.02247
0.977433
1.03051
1.03078
1.03017
1.01422
1.04897
0.964217
0.973345
1.01175
1
1.0233
1.05228
0.97107
0.975924
1.01437
1.0441
1.03963
1
1.02526
1.00309
0.999997
0.993939
0.99391
0.984153
1.03545
0.99034
0.991802
1.03283
0.964741
0.992258
1.0021
1.02038
1.02911
1.01343
1.02565
1.02927
1.00696
0.990717
0.988382
1.01985
1.04604
1.01478
1.01711
1.01381
1.02369
1.02709
1.00534
0.960609
1.02074
0.957879
0.999999
1.04338
1.02107
1.02338
0.985977
1.00734
1.02342
0.987683
0.999178
0.98811
1
1.02132
0.957611
1.0063
1.00532
0.968774
0.944833
0.97954
0.981485
0.99103
1.04649
0.980512
0.978293
0.979931
1.02507
0.986065
1.05112
1.02475
0.985764
1.01202
0.987851
0.964476
1.02639
1.02637
0.979932
0.979378
0.998408
1.02569
0.981615
0.997263
0.983141
0.982964
0.98347
0.989091
0.982533
1.01454
1.02718
1.01465
1.03762
0.975937
0.98215
0.97668
0.952715
1.03344
0.965977
1.00659
1.0229
0.958342
0.987198
0.964104
1.01706
0.964658
0.977555
0.985194
1.01708
1.04624
0.9788
0.977757
1.0309
0.98467
0.979355
1.01506
1.01851
1.02769
0.975521
1.02163
0.99056
0.964625
0.983685
0.956426
1.01731
1.0216
1.02122
1.01525
0.977592
1.0311
1.04481
0.985155
1.02207
1.00757
0.986708
1.02079
0.963645
0.983437
1.01315
1.00777
1.02917
0.972751
0.974502
1
0.974633
1
0.974134
1.01365
0.973533
0.961484
1.02012
1.02056
1.00741
1.00038
1.00214
0.985732
1.02731
1.02227
1.00233
1.01174
1.05231
0.996026
1.01836
0.968518
1.01654
0.970363
1.03156
0.99967
0.970939
1
1.01132
0.999789
1.00865
1.02605
0.996975
0.968538
0.971808
1
1
0.997141
1.01352
1.03008
1.03557
0.977215
1.01172
1.01275
1.01525
1.01183
0.995717
1.00253
1.025
1.0242
1
1
1.01517
1.02325
1.01465
0.992412
0.965688
0.941109
0.962928
1.01522
0.973057
0.965933
0.963925
1.01584
1.02037
1.02548
0.964618
0.98016
0.992693
1.0212
1.01977
0.993667
0.981132
1.03792
1.02235
1.01973
1.02483
0.962658
1.00733
1.0242
0.957875
1.01886
0.962687
0.957219
0.973629
0.962148
1.01962
1.01947
1.01981
1.01806
0.958937
0.977712
1
1
0.978825
1.01236
0.956435
1.02759
1.0298
0.997393
0.959347
0.95979
1.0148
0.975924
1.02312
0.994694
0.957362
1.02782
1.02414
0.956177
1.00666
1.01276
1.01827
1.00733
1.03913
0.98931
0.97455
0.991876
0.970532
0.991928
0.98973
0.998493
0.982117
0.999026
1.02708
0.993134
1.02218
1
0.969675
0.972753
0.976359
0.974736
1.01482
0.984431
1.02159
1.01825
0.976112
0.985471
1.02172
1.0021
0.981325
1.02142
0.987486
1.02389
0.985747
1.02262
1.04268
0.975172
1.02432
0.966065
1.02735
0.972568
1.02131
1.02216
1.0242
0.979003
0.974091
1
1.02352
0.976018
0.977876
1.01652
1.03204
1.01929
0.976793
1.03222
0.98074
1.0075
1.02493
0.966534
0.975629
0.981052
0.978059
1.02862
1.02462
0.962547
1.0288
0.961873
1.01453
0.97852
0.973704
0.975759
1.02868
1.01899
1.01297
0.980892
1.00986
1.02445
1.02392
1.02388
0.960508
1.01986
1.0351
0.976509
1
1
1.00873
0.975194
1.0159
0.977044
1.02084
1.01174
1.00881
0.966956
1.01591
0.957553
1.0191
0.986209
1.01877
1.02658
1.02324
0.957121
0.981871
1.01685
0.95988
1.02187
1.02437
1.02055
0.957519
0.966234
1.01368
0.971714
1.0117
0.951946
1.02553
1.01221
1.02216
0.972037
1
1.01714
1.02022
0.99849
1.02468
0.97655
1.02347
1
1.02562
1.02584
1.02769
1.02515
1.01909
1.01631
1.02683
1.01739
1.01383
1
1.01047
1.01703
1.03259
0.984386
1.01687
1.00927
1.0287
1.02786
0.993395
0.968564
0.961482
1.01538
1.01416
1.01242
0.984899
0.993254
1.00169
1.02762
1.02892
1.02606
1.03378
0.984786
0.967972
1.01064
1.01516
0.985805
0.959683
0.968292
0.993361
0.957898
0.980523
1.00513
1.01175
1.0096
0.974903
1.01101
0.976184
1.03413
1.01873
1.00785
1.00578
1.02676
1.03455
1.00802
1.00524
0.964617
0.980633
1.00591
1.00696
1.03409
0.96344
1.02676
0.985917
1.01118
1.00932
0.984212
0.958126
0.966751
0.974745
1.0054
0.979845
1.00725
0.970502
1.0266
0.983652
0.980388
0.955933
1.0012
1.01413
0.986432
1
1
0.97373
1.00358
0.986085
0.996513
1.02433
0.984826
0.958342
1.02949
1
0.985618
1.00892
1.01877
1.00406
0.975137
0.957474
1.00163
0.982843
0.985851
0.982669
0.998872
0.980981
0.968723
1.02324
0.956935
0.957496
0.999243
0.979473
1.02355
0.957084
0.982346
0.97999
0.98444
0.996745
0.981003
0.97579
1
1.01161
1.02205
0.976227
1.01333
1.02716
1.02224
1.02321
1.01067
1.01418
1.01412
1.02652
1.02068
0.991124
1.02602
0.984297
1.0117
1.02098
1.03373
1
0.975296
1.01951
1.01693
0.981866
1.00278
0.981905
1.02676
0.993019
1.01205
1.00318
0.958825
0.975076
1.01079
0.982632
0.979485
1.01944
0.994237
0.983032
1.00065
0.999994
0.993486
0.991282
1.01978
0.985526
1.00433
0.980962
1.00443
0.994587
1.03844
0.985275
1.01851
0.986601
1.01815
0.988596
0.984169
1.00465
1.04577
1.00437
1.02635
1.02724
1.01839
0.982166
0.997476
0.988831
0.993388
0.987029
1.01139
1.01667
1.01893
1.02479
1.01139
0.982641
0.966691
1.01701
0.987337
1.01856
0.990735
0.995069
0.974182
0.984139
1.02147
0.986795
1.03963
1.02155
0.98482
0.982771
0.98527
1.01535
1.03923
1.01322
0.983116
1.0157
0.977896
1.0408
0.999994
1.02695
0.985417
1.02481
1.02491
0.970547
0.955021
0.989868
0.979998
1.00297
1.01719
1.01681
1.02996
0.987739
1.01689
0.972241
1.0455
0.960916
0.980302
1.01109
1.03198
0.978181
0.95308
1.01319
0.965251
0.968579
0.9956
1.00142
0.974184
1.01356
0.992291
1.01727
1.01128
0.975223
1.02246
1
0.98351
1.0207
0.987352
1
0.991144
0.975709
0.97437
0.987047
0.982489
1.01101
0.982116
1.03286
1.01582
1.01413
1.04059
1.01357
1.01137
1.01818
1.01645
0.969043
1.01961
0.988959
0.971392
0.985246
0.982669
0.99476
0.994643
1.01016
1.00944
1.03797
1.01138
0.994488
0.971344
1.02509
0.975199
0.969523
0.970334
1.02327
1.00969
0.98568
0.953984
0.971818
0.982267
0.984359
0.98637
0.994862
1.00066
0.986212
0.982616
0.95836
1
0.994679
0.987753
0.971942
0.990888
0.974503
1.00787
1.02607
0.966539
0.965255
1.03088
1.02759
1.02786
1.03064
1.00829
1.01741
0.962991
1.01927
0.974116
1.02893
0.9672
0.953838
0.993439
1.01354
0.965458
0.98385
0.984712
0.990809
0.964803
1.0301
1.0272
0.977693
0.999112
1
1.02922
0.980817
0.994647
0.963267
1.00639
0.971798
1.0047
1.0226
1.01199
0.99079
1.01239
0.996714
0.999111
0.971791
1.02627
0.961534
0.966399
1.02302
1.00674
0.978855
0.998184
1.01831
0.998712
0.962131
0.968556
1.00637
1.01886
1.00574
1.00134
0.998733
1
1.00646
1.00454
0.999765
0.983408
1
1.01912
1.00312
0.95851
0.963736
0.954137
1.0304
1.02559
1.00402
1.04329
1.00352
0.990659
0.957953
1.00333
1.00358
0.966367
0.944028
1.00439
1.00245
1.00092
0.956992
0.975755
0.998472
1.01402
0.96268
1.01532
0.975609
1.02524
0.982159
1.0197
0.967325
0.96554
0.976201
1.00496
1.02426
0.955759
0.96763
1.00612
0.967827
0.955334
0.974986
0.961438
1.00411
0.975741
0.977946
0.963487
0.976275
1.00335
1.00222
1.02606
1.02275
1.00369
0.977222
1.0063
0.977339
0.959448
0.951805
1.00033
0.953535
0.998825
1
0.968373
1
0.959519
0.999226
1
1
0.965608
1.01812
1.02455
0.978463
1.00721
1.02434
0.974171
1.01844
0.952334
1
0.985575
0.947686
0.996383
0.959696
0.968662
0.996729
0.968625
0.985918
0.985669
1.03344
0.997332
1.03316
0.994475
0.996142
1.01923
0.97301
0.986248
1.00474
0.994828
1.00494
1.03325
0.985774
0.944452
0.992874
1.01459
1.01751
0.979882
0.970883
0.993327
0.974738
1.0153
1.01493
0.985899
1.02401
0.948247
1.02443
0.98834
0.952712
1.01907
0.991283
1.00226
0.989145
1.00379
0.95826
0.99158
1.01222
0.977205
1.02455
0.965411
0.9656
1.01237
1.00832
1.02428
0.989353
1.02695
1.0262
1.0078
1
1.01274
0.989748
0.985888
0.94851
1.00868
1
1
1.00831
0.987899
1.01071
1.01337
1.0094
0.988333
1.02735
0.968249
0.98115
0.993299
0.986014
0.978493
0.997187
0.997959
1.0153
0.986253
1.00726
1.02076
1.02755
1.02025
1.02754
0.948243
0.984253
1
0.960442
0.998507
1.01163
0.997536
0.984328
0.983272
0.967083
0.984773
1.01391
0.960121
0.987121
1.0107
0.962264
0.981996
1.03234
1.00163
0.983299
0.979946
0.995936
1.00707
1.00592
1.0124
0.961394
1.01445
1.01343
1.02391
0.967241
1.00598
0.982764
1.02271
1.03244
0.96455
1.01881
1.01285
1.01006
0.98305
1.01429
1.02308
0.98658
0.985629
0.963789
1.00553
0.966233
0.997752
0.980766
1.03567
0.978275
1.01269
1.02749
0.971016
0.977757
0.96632
1.00593
0.981144
1.02776
0.982818
1.02588
0.984004
1.01558
1.01992
1.022
1.01641
0.983778
1.03042
0.977285
0.969555
1.01018
1.05887
0.993816
1.02369
0.979206
1.01437
1.03936
1.01504
1.02549
1.03121
1.02628
0.96931
0.979725
1.03838
0.984273
0.97069
1.01652
1.00274
0.982938
1.02047
1.034
1.02592
0.946005
0.969815
0.977363
0.977596
0.956727
1.02942
1.02328
1.01696
1.0017
1.0234
1.02922
0.973152
0.956325
1.01894
1.01749
0.972636
0.969721
0.974585
0.975577
1.00642
0.94873
1.02417
0.97003
0.974947
0.971513
0.950052
1.00824
0.975182
0.985525
1.02285
0.982966
1.0224
1.02841
1.02508
0.949642
0.969832
0.997796
0.973036
1.02471
0.950802
1
1.02275
0.973576
1.02605
1.02825
1.01388
0.978008
1.03576
0.998236
0.972455
0.977448
1.02755
1.02404
1.02353
1.02719
0.979843
1.02692
0.951863
0.970522
1.02586
1.03124
0.970946
1.01875
0.979149
1.03031
1.02387
1.02466
0.981064
0.968603
0.968835
1.02253
1.00258
0.980756
0.997942
1.02734
1.02735
1.01456
0.951536
1.0214
0.964933
0.983494
1.02406
1
1.02642
1
1.02562
0.966191
1
0.974772
0.982909
1.02014
1.01194
0.984872
1.02284
0.966403
1.02913
1
0.957814
1.00509
1.02608
1.02597
1.01165
1.01419
1.02722
1.01871
1.02172
1.01444
1.01055
0.974241
0.985835
1.01459
1.00247
1
1.02039
0.955489
1.01149
1.01744
1.00979
0.985301
1.02758
0.975025
1
0.990652
1.01608
0.973369
1.02737
0.959994
1.01902
1.02552
0.995858
1.03217
1.01118
1.01812
1.02754
0.990137
1.02371
0.99294
0.965288
0.988577
0.945042
1.01779
1.03682
1.0277
1.00288
0.966456
1.02833
0.991924
1.01395
1.03225
0.988018
0.9703
0.97046
0.995963
1.01633
0.983762
0.971032
1.02515
1
0.965912
1.01209
1.00118
1.00604
0.991242
1.01174
1.01423
1.02421
0.990512
1.02484
0.966506
0.992321
1.01013
1.0383
0.972301
0.957455
0.962446
1.01476
1.01198
1.01362
0.992053
0.970565
0.984463
0.984944
0.963684
0.967074
1.00877
0.962061
0.966146
1.02713
0.976753
1.01861
1.02434
1.00919
0.995243
1.01053
0.965739
1.02104
1.02705
0.96823
0.993065
1.02911
1.00711
1.01875
0.995593
0.977095
1.02451
1.04758
1.01858
0.995088
1.02946
0.982579
1.00231
1.02693
1.00911
0.996458
0.995199
1
1.03001
1.02892
1.011
0.972239
1.05274
0.998096
0.971815
1.03406
0.99666
0.971963
0.959087
1.01866
1.00478
1.00741
0.976875
0.997497
0.996036
1.03849
0.972382
1.00535
0.965905
1.02897
1.0123
1.02077
1.02395
0.954419
0.998839
0.998845
1.03298
0.95754
0.963771
1.03399
0.979997
1.00472
0.979501
0.969212
0.959786
1.00507
0.976848
0.965438
1.02106
0.967823
0.998473
1.01911
1.02743
1.02118
0.998303
0.965613
0.999474
0.968254
0.983691
1.03078
1.0002
1.00353
0.992022
1.00115
0.965161
1.026
1.02438
1.04037
0.999637
0.999651
0.96576
0.991257
1.0186
1.02388
0.968574
1.00066
0.992274
1.00239
0.997056
0.9779
0.978575
0.977593
1.03781
0.999847
0.979054
1.01085
1.02959
0.990248
1.00244
1.01238
1.02622
1.00283
1.02767
1.00885
1.01369
0.966235
1.01179
0.995357
0.9838
0.969179
0.989124
0.994613
1.00584
1.02749
0.984827
0.986615
0.983895
0.985584
1.00233
1.02601
0.997299
1.00198
0.993813
0.986125
0.994981
1.02576
1.01479
0.994107
1.03166
1.01872
1.00657
0.967226
0.989994
1.00912
0.967247
0.995851
0.99198
0.970787
1.00613
1.012
0.982243
1.00422
1.00763
1.02969
1.01033
0.996199
0.994125
0.990316
1.00746
1.00388
1.01776
1.00548
1.01492
1.01425
0.98084
1.00566
1.02634
1.00361
0.992353
0.995462
0.988725
1.02336
1.00482
0.959779
1.02084
1.03333
0.990801
0.986749
0.997921
1.02311
1.01785
0.962487
1.02141
0.98891
1.00651
0.985349
1.02362
1.02463
0.997788
0.987249
1.02244
1.00613
1.023
0.983381
1.00556
0.964665
1.02235
0.985702
1.02431
0.981704
1.00749
1.02307
0.981343
1.00869
0.983713
0.98017
1.03208
1.03052
1.02975
1.00083
1.00821
0.971227
0.982253
1.01086
0.978083
1.0084
1.01594
0.961841
1.01359
1.02327
1
1.00325
1.00765
0.962134
1
1.00036
1.01415
1.03155
0.980374
0.969481
0.98358
0.969778
1.00984
1.0263
0.975542
1.0081
1.00488
0.970374
0.978555
0.987447
1.01689
0.995445
0.98541
1.00223
1.02117
1.03261
1.00934
0.958985
0.974042
1.01409
1.0049
0.985544
0.972808
0.99564
1.03376
0.976161
1.00992
0.989799
1.00154
1.00045
1.03408
1.00484
0.971319
0.997201
1.01149
0.974226
1.02941
1.02724
1.00928
0.969347
0.989314
1.02706
1.02416
1.02037
1
0.998037
1.01119
1
0.971494
1.01224
1.00053
1.03492
0.957936
0.997949
1.01122
0.966834
1
0.969844
0.995991
0.993752
1.01535
1.01384
1.03984
1.00467
1.02113
1.01314
0.992631
1.00041
1.02907
1.03463
0.964032
0.998781
0.967245
1.02032
1.00417
1.01092
1.01264
1.02087
1.00864
0.992407
1.03481
0.999129
0.964468
0.962014
0.963454
0.995704
1.0214
0.990826
1.03112
1.01309
0.984822
1.02466
1.0293
1.00503
0.985093
1.00121
0.99227
0.939352
1.02497
1.02609
0.988873
0.997804
1.00723
0.973767
1.01693
0.993812
1.01263
1.00735
1.01533
1.02101
1.00687
1.02057
1.01477
1.0273
1.02528
1.00107
1.02231
1.01438
0.970812
1.02109
1.04499
1.00901
1.00369
0.996963
1.01843
0.984955
1.02357
1.00576
1.00099
1
1.01388
1.02052
1.01878
0.991516
1.00849
0.992525
1.00598
1
1.01883
1.01402
1.04526
1.01201
1.00792
1
0.998186
1.0086
1.01736
0.997506
1.02107
1.02586
0.969837
1.0217
1.02612
1.03061
1.01139
1.01046
1.02062
1.01588
0.94638
1.01691
0.967888
0.974299
0.971285
0.958998
0.95916
0.956135
1.01
0.971971
0.99387
0.971629
1.02255
1.02878
1.01563
0.97265
1.03305
1.02086
0.965872
1.02925
1.01885
0.994829
1.016
1
1.01226
1.01851
0.995959
0.990783
1.01698
1.01851
1.01745
0.994245
1.02346
0.94749
1.01192
0.99601
0.997186
0.992272
0.997011
1.00493
0.952471
0.955248
0.95621
0.941644
1.01696
1.00384
1
1.01774
1
1.0252
0.962461
1.01654
1.01317
1
1.00636
1.0211
0.967221
0.999996
1.01389
0.991438
0.943436
1.02997
1.01047
0.951665
1.00954
1.00689
0.989768
1.02086
1.02953
1.02955
1.02942
0.998988
0.996373
1.0133
1.02649
1.00581
1.00225
1.02052
0.963868
1.01397
0.996579
1.01682
0.98979
1.00898
0.993429
1.02984
1.02546
0.945807
1.02423
0.992947
0.96434
1.0186
0.974474
0.967027
0.979512
0.999189
1
1.00734
1
1
1.0183
1.01524
0.968632
1.01049
0.995648
0.992434
1.02045
1.03118
0.987773
1.01862
0.998268
1.02451
0.953412
1.01477
0.976511
0.967613
0.99804
0.967899
1.01417
0.968601
1
1.00821
0.987839
1.02012
1.02269
0.998744
0.991289
0.96088
0.956911
1
1.02812
1.00967
0.992937
1.02246
0.984488
1
1
0.977342
1
1
0.998764
1.00735
0.949977
0.989141
1.01992
0.998009
0.993245
1.01681
1
1
0.998904
0.971174
0.968468
0.963306
1.00029
1.02192
0.985106
0.955887
0.96689
0.987488
0.960115
0.951045
1
1.00686
0.998992
0.995485
1.01653
0.958348
1
1
1.02381
0.982968
1.00714
0.994415
1.00013
0.998533
0.962904
1.05516
1
0.972256
0.970696
1.00607
1
0.966275
0.968796
1.01631
1.03
0.957699
0.989954
1.00892
0.988506
0.960166
0.999868
1.01291
1
1.00709
0.984076
1.02197
1.02745
0.96557
0.996994
0.946081
0.971636
0.997969
1.01686
1.01197
0.975948
1.0245
1.00309
1
1.01701
1
1.02168
1.00019
0.950178
1.02431
0.964657
1.01842
0.976819
1
1.01221
0.982703
1.02977
0.989654
1.01444
0.975641
0.976535
1.00209
1.02581
1.01697
1.01797
0.983059
0.985163
0.964509
0.991333
1
1.00157
0.973865
0.973653
0.981977
0.99285
1.02953
0.948525
1.00348
0.960881
1.02328
0.997011
0.999227
1
0.997748
1.01173
1.00335
0.998221
0.989016
0.968729
0.987063
1.00538
0.998589
1.02279
0.970419
0.984008
1.00903
0.974704
0.961805
1.02657
1.001
0.985926
1.02802
0.996196
1.02635
0.959665
0.961491
1.0263
1.00279
0.988431
1
0.98597
1
0.97385
1.02744
0.983733
1.00422
1.0261
0.946202
1.0267
0.986561
1.03555
0.990376
1.02828
0.996076
1.0158
0.998949
1.0041
0.961047
1.00106
0.972046
0.961098
1
1.0176
1.0055
1.0243
0.969805
1.00571
0.996795
0.990813
1.01233
0.95331
1.02055
0.992694
1.02699
1.00467
1.01467
0.986174
0.996851
0.973972
1.024
0.989102
1.02608
1.00497
1.02701
1.02017
0.998467
0.968924
1.05053
0.989406
1.00509
1.0149
1.02724
1.00308
1.03465
1.0185
0.981246
0.957774
0.988856
1.00384
0.996671
1.01424
1.02794
1.00108
0.980525
0.969585
1.0006
1.0067
1.01511
0.984596
0.970876
1.00389
0.996589
1.02569
0.988675
0.958572
1.01221
1.02771
1.00288
0.958081
0.94977
0.996698
0.993277
1.02529
1.02544
0.984705
1.01279
1.00028
0.999373
0.997089
1.0139
0.988846
0.949927
1.01862
1.027
1.01968
1.01425
0.996808
0.966461
1.02958
0.989921
1.03063
0.992689
1.02559
0.989523
0.968462
1.02549
1.01239
0.993528
0.996774
0.99333
0.984955
0.985787
0.994604
1.02254
0.962672
1.00014
0.998231
1.03142
1.00171
0.996656
1.00324
1.03015
0.982897
0.995391
0.992362
1.02679
0.982205
0.984453
0.994479
1.02217
0.971102
1.00773
0.947149
0.985953
0.992855
1.02639
0.986577
1.00534
1
1.00884
0.972352
0.992593
0.973118
0.994249
1.02357
0.962365
0.98836
0.98912
0.997746
0.972748
0.993272
1.01079
0.984501
0.984504
1
1.01843
0.987295
1.0242
0.998683
0.983186
0.988856
1.01215
1.02691
1.02387
1.00034
1.01365
0.999372
1.02767
0.998252
1.0014
0.99237
0.995711
1.01905
0.99513
1.0028
0.994751
1.02353
1.01167
0.982528
1.00115
1.00481
0.993798
0.996748
0.950912
0.99233
1.01359
1.02122
1.02743
1.01114
1.01662
1.007
0.987521
1.00522
0.987477
1.00441
0.986177
0.972622
0.982741
0.956544
0.948095
0.999129
0.993763
1.00847
0.988347
0.99078
0.993234
0.998979
0.982011
0.989159
1.00065
1.01038
1
0.970722
0.993448
0.993025
1.02442
1.01532
0.986945
0.991241
0.982811
1.02408
1.01157
0.976922
1.00352
1.03536
0.988213
0.969591
0.987021
0.985884
0.983036
1
1.00321
0.994206
1.00627
0.995024
1.00494
0.992131
1.01161
0.992878
1.01334
0.989846
1.02831
0.991527
0.952907
0.994271
1.00564
1
1.0032
1.01655
0.985155
1.02759
0.990137
1.02097
1
0.989726
0.995454
1.01582
1
0.962621
1.0136
0.995295
1.00531
0.983128
0.988742
1.00446
1.01484
0.994863
0.997704
1.02106
0.986636
0.989926
0.993424
1.02115
1.02656
1.02114
0.986813
0.977036
1.02559
1.01227
0.995849
1.02537
0.992496
1.0123
1.02574
1.0263
0.95938
0.962811
0.988655
1.0223
0.955636
0.986186
0.981712
1.01611
1.02758
0.98488
0.999657
1.02668
1.01296
0.956114
0.998317
0.988306
1.02058
1.02121
1.01786
0.956216
0.968317
1.03368
1.01628
1.01324
0.975582
0.996025
0.992667
0.985819
0.955713
1.00895
1
1.02114
1.00806
0.992978
1.01781
0.983658
0.985317
0.953536
0.963342
1.02683
0.983554
1.02654
0.998314
1.01582
1.03251
0.987224
0.985148
0.986039
1.02029
0.956554
1.02192
1.00726
1.02114
0.981286
0.983081
1.00273
0.983466
1.02133
0.992809
1.03418
1.03137
0.967758
0.984074
1.02152
0.985061
1.01184
1.02064
1.03025
1.00315
0.983251
1.01768
1.02891
0.962684
1.00005
1.01898
0.957387
0.991525
0.964441
1.02844
1.02273
0.994931
0.984494
1.00256
1.0239
1.02456
1.02244
0.989569
0.998894
0.99518
1.00266
1.01881
1.01543