/*--------------------------------*- C++ -*----------------------------------*\
  =========                 |
  \\      /  F ield         | OpenFOAM: The Open Source CFD Toolbox
   \\    /   O peration     | Website:  https://openfoam.org
    \\  /    A nd           | Version:  12
     \\/     M anipulation  |
\*---------------------------------------------------------------------------*/
FoamFile
{
    format      ascii;
    class       volVectorField;
    location    "11.3";
    object      U;
}
// * * * * * * * * * * * * * * * * * * * * * * * * * * * * * * * * * * * * * //

dimensions      [0 1 -1 0 0 0 0];

internalField   nonuniform List<vector> 
9801
(
(1.17042 -0.0672823 0)
(1.16635 -0.0646054 0)
(1.16132 -0.06171 0)
(1.1575 -0.0585075 0)
(1.15424 -0.0558929 0)
(1.15119 -0.0537207 0)
(1.14835 -0.0518133 0)
(1.14795 -0.0494136 0)
(1.15278 -0.0469417 0)
(1.15656 -0.0442801 0)
(1.1561 -0.0417621 0)
(1.15338 -0.0396373 0)
(1.14929 -0.0375532 0)
(1.14401 -0.0351765 0)
(1.13952 -0.0322953 0)
(1.13593 -0.0296873 0)
(1.13267 -0.0276774 0)
(1.12947 -0.0260789 0)
(1.12767 -0.0242086 0)
(1.13168 -0.0218455 0)
(1.13657 -0.0194057 0)
(1.13666 -0.0171188 0)
(1.13388 -0.0152859 0)
(1.12932 -0.0136324 0)
(1.12329 -0.0118748 0)
(1.11821 -0.0093794 0)
(1.1143 -0.00670864 0)
(1.11088 -0.00476672 0)
(1.10747 -0.00342774 0)
(1.10494 -0.00196539 0)
(1.10821 0.000204707 0)
(1.11358 0.0024242 0)
(1.11392 0.00427414 0)
(1.11099 0.00564189 0)
(1.106 0.00680154 0)
(1.0988 0.00811958 0)
(1.09249 0.0103215 0)
(1.08805 0.0128538 0)
(1.08438 0.0146257 0)
(1.08059 0.0156724 0)
(1.0774 0.0167097 0)
(1.08003 0.018544 0)
(1.08624 0.0206453 0)
(1.08666 0.022202 0)
(1.08331 0.0230671 0)
(1.07763 0.0238908 0)
(1.06877 0.0246525 0)
(1.06084 0.0263773 0)
(1.05531 0.0285395 0)
(1.05096 0.0301136 0)
(1.04682 0.0309787 0)
(1.04298 0.0316646 0)
(1.04582 0.0330622 0)
(1.05359 0.0348495 0)
(1.05443 0.0362221 0)
(1.05062 0.0368557 0)
(1.04359 0.0374037 0)
(1.03112 0.0375225 0)
(1.0208 0.03855 0)
(1.01403 0.0401427 0)
(1.00855 0.0415536 0)
(1.00389 0.0423492 0)
(1.00025 0.0430205 0)
(1.00527 0.0443034 0)
(1.0129 0.0451943 0)
(1.01268 0.0456893 0)
(1.00793 0.0458358 0)
(0.999416 0.0460559 0)
(0.982394 0.046311 0)
(0.96857 0.0475249 0)
(0.960533 0.0497341 0)
(0.95423 0.0516539 0)
(0.948685 0.0526059 0)
(0.946914 0.0534427 0)
(0.955908 0.0532753 0)
(0.961608 0.0537085 0)
(0.959096 0.0552908 0)
(0.952725 0.0566548 0)
(0.939373 0.0583268 0)
(0.915569 0.0598724 0)
(0.896441 0.0619602 0)
(0.88521 0.0632398 0)
(0.87706 0.0635044 0)
(0.872386 0.0622712 0)
(0.883286 0.0612151 0)
(0.891308 0.0623902 0)
(0.886892 0.0651202 0)
(0.877909 0.0680008 0)
(0.864938 0.0704131 0)
(0.838829 0.071135 0)
(0.801364 0.0691251 0)
(0.774238 0.0645964 0)
(0.757094 0.0609309 0)
(0.748694 0.0575347 0)
(0.755418 0.0495198 0)
(0.743907 0.034887 0)
(0.716166 0.0250084 0)
(0.270374 -0.0595281 0)
(-0.761701 -0.0428854 0)
(1.24848 -0.118432 0)
(1.24311 -0.116146 0)
(1.23594 -0.1121 0)
(1.22911 -0.108961 0)
(1.22407 -0.106196 0)
(1.21989 -0.103985 0)
(1.21635 -0.102043 0)
(1.21661 -0.0993508 0)
(1.22114 -0.0966646 0)
(1.22135 -0.0936219 0)
(1.21831 -0.0904823 0)
(1.21432 -0.0880802 0)
(1.21002 -0.0860376 0)
(1.20305 -0.0832346 0)
(1.19506 -0.0799638 0)
(1.18936 -0.0771713 0)
(1.18484 -0.0748657 0)
(1.18096 -0.0730764 0)
(1.17887 -0.0708465 0)
(1.18266 -0.0678932 0)
(1.18489 -0.0648616 0)
(1.18272 -0.0619499 0)
(1.17891 -0.0596884 0)
(1.1748 -0.0580478 0)
(1.16794 -0.0558092 0)
(1.15866 -0.052686 0)
(1.15213 -0.0497536 0)
(1.14718 -0.0473708 0)
(1.14303 -0.0456101 0)
(1.13982 -0.0437998 0)
(1.14202 -0.0407952 0)
(1.14587 -0.0375582 0)
(1.14465 -0.0348885 0)
(1.14103 -0.0329067 0)
(1.13699 -0.0315971 0)
(1.12974 -0.0297671 0)
(1.11919 -0.0269167 0)
(1.11186 -0.0240174 0)
(1.10647 -0.0216523 0)
(1.10188 -0.0199126 0)
(1.09811 -0.0184201 0)
(1.09923 -0.0155978 0)
(1.10428 -0.012007 0)
(1.10394 -0.00926649 0)
(1.1005 -0.00750634 0)
(1.09624 -0.00652259 0)
(1.08822 -0.00526964 0)
(1.07623 -0.00287313 0)
(1.06789 1.74572e-05 0)
(1.06207 0.00226395 0)
(1.05729 0.00382253 0)
(1.05321 0.0051343 0)
(1.05468 0.0075309 0)
(1.06059 0.0111253 0)
(1.06047 0.0141038 0)
(1.0567 0.015922 0)
(1.05192 0.0167976 0)
(1.04199 0.0175445 0)
(1.02848 0.0191273 0)
(1.01953 0.0215735 0)
(1.01313 0.0237404 0)
(1.0079 0.0250356 0)
(1.00345 0.0260247 0)
(1.00724 0.0287314 0)
(1.01408 0.0321301 0)
(1.01302 0.0350485 0)
(1.00831 0.036749 0)
(1.00233 0.037852 0)
(0.98816 0.0383705 0)
(0.972099 0.0387198 0)
(0.962511 0.0399558 0)
(0.955499 0.0411225 0)
(0.949661 0.0416348 0)
(0.947626 0.0433088 0)
(0.956057 0.0471602 0)
(0.960095 0.0510633 0)
(0.956745 0.0537987 0)
(0.950935 0.0553635 0)
(0.941854 0.0562912 0)
(0.920724 0.0541767 0)
(0.89942 0.0522382 0)
(0.887082 0.0528052 0)
(0.87857 0.0526766 0)
(0.872836 0.053524 0)
(0.87837 0.057275 0)
(0.88494 0.0650274 0)
(0.882534 0.0708743 0)
(0.874566 0.0724373 0)
(0.863836 0.0718775 0)
(0.841091 0.0680297 0)
(0.804097 0.0604324 0)
(0.771441 0.0552464 0)
(0.750308 0.0535733 0)
(0.736666 0.0539222 0)
(0.734348 0.0552403 0)
(0.724838 0.0462182 0)
(0.70766 0.0403914 0)
(0.269056 -0.05265 0)
(-0.772546 -0.050541 0)
(1.24386 -0.115064 0)
(1.23826 -0.112263 0)
(1.23139 -0.108627 0)
(1.22473 -0.10632 0)
(1.21962 -0.10379 0)
(1.21532 -0.101277 0)
(1.21173 -0.0989951 0)
(1.2119 -0.0960242 0)
(1.21606 -0.0931056 0)
(1.21642 -0.0904928 0)
(1.21372 -0.0878276 0)
(1.20983 -0.0853088 0)
(1.20536 -0.0829086 0)
(1.19873 -0.0802532 0)
(1.19093 -0.077841 0)
(1.18523 -0.0754347 0)
(1.18054 -0.0728387 0)
(1.17658 -0.0706115 0)
(1.17436 -0.068114 0)
(1.17799 -0.0650363 0)
(1.18042 -0.0622829 0)
(1.17854 -0.0597405 0)
(1.17481 -0.0573723 0)
(1.17047 -0.0553175 0)
(1.16386 -0.0530853 0)
(1.15491 -0.051124 0)
(1.14852 -0.0489819 0)
(1.14341 -0.0464523 0)
(1.13911 -0.0440813 0)
(1.13572 -0.0418902 0)
(1.13776 -0.0387103 0)
(1.14196 -0.0354725 0)
(1.14103 -0.0328899 0)
(1.13748 -0.0307966 0)
(1.1332 -0.0291738 0)
(1.12617 -0.027383 0)
(1.11613 -0.0260006 0)
(1.10901 -0.0243125 0)
(1.1034 -0.0220289 0)
(1.09862 -0.0195298 0)
(1.09464 -0.0174764 0)
(1.09537 -0.0142397 0)
(1.10101 -0.0103555 0)
(1.10109 -0.00748773 0)
(1.09762 -0.00553738 0)
(1.09314 -0.00423491 0)
(1.08521 -0.00291555 0)
(1.07371 -0.00219827 0)
(1.06588 -0.00098714 0)
(1.05991 0.000927836 0)
(1.05476 0.00315051 0)
(1.05037 0.00507334 0)
(1.05101 0.00820263 0)
(1.05741 0.0123447 0)
(1.05805 0.0155203 0)
(1.05446 0.0177263 0)
(1.04966 0.0190737 0)
(1.04038 0.0199168 0)
(1.02662 0.0193971 0)
(1.01714 0.0201267 0)
(1.01031 0.0219008 0)
(1.00489 0.0237578 0)
(1.00044 0.0256017 0)
(1.00351 0.0290252 0)
(1.01075 0.0335857 0)
(1.01059 0.037031 0)
(1.00628 0.0391691 0)
(1.00075 0.0402917 0)
(0.987977 0.0400111 0)
(0.970302 0.0378339 0)
(0.959025 0.0378993 0)
(0.951499 0.0393205 0)
(0.94549 0.0406051 0)
(0.942575 0.042987 0)
(0.94986 0.0483733 0)
(0.955033 0.0539466 0)
(0.95231 0.0572508 0)
(0.946565 0.0583676 0)
(0.939093 0.0582044 0)
(0.919598 0.0546112 0)
(0.89599 0.0498032 0)
(0.88222 0.0488656 0)
(0.87325 0.049724 0)
(0.866021 0.0504342 0)
(0.866549 0.0551824 0)
(0.874028 0.0617239 0)
(0.874568 0.0637172 0)
(0.867892 0.0637799 0)
(0.85836 0.0640645 0)
(0.838665 0.0637202 0)
(0.804035 0.0567236 0)
(0.772371 0.0468136 0)
(0.748976 0.0400148 0)
(0.733292 0.0365343 0)
(0.724893 0.0266218 0)
(0.716573 0.0122928 0)
(0.71021 0.00915527 0)
(0.274116 -0.0569451 0)
(-0.775411 -0.0399219 0)
(1.23441 -0.113332 0)
(1.22876 -0.11048 0)
(1.22254 -0.106983 0)
(1.21554 -0.104614 0)
(1.21052 -0.102348 0)
(1.20641 -0.100073 0)
(1.20298 -0.0976518 0)
(1.20334 -0.0944497 0)
(1.20702 -0.0914556 0)
(1.20709 -0.0889375 0)
(1.20456 -0.0865575 0)
(1.20101 -0.0842109 0)
(1.19673 -0.0818779 0)
(1.19068 -0.0792215 0)
(1.18254 -0.0767187 0)
(1.17691 -0.0744197 0)
(1.17246 -0.072007 0)
(1.1686 -0.0696688 0)
(1.16663 -0.0668562 0)
(1.17008 -0.0637725 0)
(1.17224 -0.0611852 0)
(1.17047 -0.0588895 0)
(1.16704 -0.056697 0)
(1.16282 -0.0546645 0)
(1.15684 -0.0524022 0)
(1.14746 -0.0502809 0)
(1.14091 -0.0481719 0)
(1.13614 -0.0458531 0)
(1.132 -0.0434748 0)
(1.12876 -0.0409205 0)
(1.13068 -0.037546 0)
(1.13496 -0.0344714 0)
(1.13426 -0.0322022 0)
(1.13091 -0.0303391 0)
(1.12669 -0.028746 0)
(1.12036 -0.0269082 0)
(1.10985 -0.0253093 0)
(1.10226 -0.0233837 0)
(1.09699 -0.0210283 0)
(1.09249 -0.0185789 0)
(1.08863 -0.0163116 0)
(1.08914 -0.0131636 0)
(1.09483 -0.00973003 0)
(1.09539 -0.00718419 0)
(1.09212 -0.00533143 0)
(1.08773 -0.00393938 0)
(1.08074 -0.00242635 0)
(1.06875 -0.00159481 0)
(1.05998 -0.000126408 0)
(1.05416 0.0019805 0)
(1.04916 0.00431641 0)
(1.04481 0.00646337 0)
(1.04493 0.00952326 0)
(1.05133 0.0132077 0)
(1.05271 0.0159373 0)
(1.04951 0.0178645 0)
(1.04494 0.0189015 0)
(1.03756 0.01973 0)
(1.02301 0.0192129 0)
(1.01169 0.0199707 0)
(1.00469 0.0219193 0)
(0.999179 0.0240049 0)
(0.994403 0.0260332 0)
(0.996145 0.0294326 0)
(1.00369 0.0337723 0)
(1.00462 0.0367605 0)
(1.00085 0.0385985 0)
(0.995841 0.0394044 0)
(0.98619 0.0397031 0)
(0.967305 0.0372219 0)
(0.953162 0.0362174 0)
(0.944816 0.0376557 0)
(0.938481 0.0391488 0)
(0.933913 0.0410965 0)
(0.938584 0.046139 0)
(0.945474 0.051759 0)
(0.944375 0.0544329 0)
(0.939284 0.0558519 0)
(0.932773 0.0568773 0)
(0.918186 0.0561899 0)
(0.893124 0.0494893 0)
(0.875286 0.0447972 0)
(0.864866 0.0450688 0)
(0.857029 0.0458211 0)
(0.85284 0.0482373 0)
(0.857912 0.0557647 0)
(0.860206 0.063427 0)
(0.855052 0.0675707 0)
(0.846703 0.06838 0)
(0.833195 0.0671696 0)
(0.804822 0.0570293 0)
(0.770833 0.0426339 0)
(0.74487 0.0321695 0)
(0.726132 0.0276826 0)
(0.713481 0.0193567 0)
(0.70733 0.00419802 0)
(0.708789 -0.00142558 0)
(0.283188 -0.0504841 0)
(-0.779075 -0.0359211 0)
(1.22483 -0.109175 0)
(1.21927 -0.106435 0)
(1.21368 -0.103219 0)
(1.20652 -0.100681 0)
(1.20122 -0.0985376 0)
(1.19713 -0.096658 0)
(1.19365 -0.094648 0)
(1.19417 -0.0911608 0)
(1.19813 -0.0875531 0)
(1.19816 -0.0849535 0)
(1.1956 -0.0827398 0)
(1.19215 -0.0805935 0)
(1.18804 -0.0784539 0)
(1.18257 -0.0759198 0)
(1.17437 -0.0733364 0)
(1.16836 -0.0712457 0)
(1.16391 -0.0692958 0)
(1.16004 -0.0674476 0)
(1.15815 -0.0646835 0)
(1.16192 -0.061075 0)
(1.16408 -0.0581929 0)
(1.16228 -0.0558579 0)
(1.15899 -0.0537365 0)
(1.15496 -0.0517486 0)
(1.14968 -0.0494422 0)
(1.14054 -0.0470567 0)
(1.13329 -0.0451774 0)
(1.12837 -0.0433927 0)
(1.12417 -0.0416875 0)
(1.12074 -0.0397013 0)
(1.12254 -0.0362811 0)
(1.12717 -0.0327477 0)
(1.1268 -0.0301482 0)
(1.12372 -0.0280873 0)
(1.11972 -0.0262707 0)
(1.11436 -0.0242905 0)
(1.10411 -0.0226999 0)
(1.09534 -0.021256 0)
(1.08972 -0.0195324 0)
(1.08516 -0.0178218 0)
(1.0812 -0.0161523 0)
(1.0813 -0.0131989 0)
(1.08698 -0.00932653 0)
(1.08818 -0.00613145 0)
(1.08539 -0.00376222 0)
(1.08133 -0.00200533 0)
(1.07583 -0.0004088 0)
(1.06416 -0.000188081 0)
(1.05337 6.63735e-05 0)
(1.04694 0.00183328 0)
(1.04188 0.00386365 0)
(1.03753 0.0057618 0)
(1.03716 0.00871527 0)
(1.04335 0.0127569 0)
(1.04543 0.0161339 0)
(1.04281 0.0186481 0)
(1.03865 0.0204071 0)
(1.03315 0.0217906 0)
(1.01985 0.0210016 0)
(1.00572 0.0193013 0)
(0.99772 0.0204035 0)
(0.992031 0.0223678 0)
(0.987005 0.0244096 0)
(0.986912 0.0280564 0)
(0.994158 0.0336749 0)
(0.996371 0.0376717 0)
(0.993296 0.0399392 0)
(0.988636 0.041297 0)
(0.981991 0.0421001 0)
(0.965934 0.0392297 0)
(0.947948 0.0350616 0)
(0.937455 0.0346226 0)
(0.930664 0.0360853 0)
(0.924944 0.037816 0)
(0.925331 0.0425191 0)
(0.933142 0.0508157 0)
(0.93477 0.0558201 0)
(0.930692 0.0572885 0)
(0.924905 0.0573451 0)
(0.91568 0.0566031 0)
(0.893823 0.0502528 0)
(0.870419 0.0429726 0)
(0.856943 0.0399336 0)
(0.848483 0.0403417 0)
(0.84186 0.0414434 0)
(0.842652 0.0467541 0)
(0.847225 0.0553651 0)
(0.844898 0.0606493 0)
(0.837335 0.0621173 0)
(0.827493 0.0617295 0)
(0.807714 0.056397 0)
(0.77678 0.0416181 0)
(0.748009 0.0263439 0)
(0.726545 0.0157715 0)
(0.714276 0.00694478 0)
(0.712015 -0.00963695 0)
(0.717742 -0.0151467 0)
(0.28975 -0.0392232 0)
(-0.78241 -0.0327481 0)
(1.21642 -0.106631 0)
(1.21094 -0.103905 0)
(1.20572 -0.100821 0)
(1.19861 -0.0979673 0)
(1.19304 -0.0957339 0)
(1.18882 -0.0938708 0)
(1.18523 -0.0923046 0)
(1.18534 -0.0896198 0)
(1.18976 -0.0863027 0)
(1.19014 -0.0834049 0)
(1.18777 -0.0808232 0)
(1.18441 -0.0784602 0)
(1.18043 -0.0763884 0)
(1.17544 -0.0741301 0)
(1.16731 -0.0715721 0)
(1.16081 -0.0693678 0)
(1.15615 -0.0673463 0)
(1.15227 -0.0656065 0)
(1.15009 -0.0632703 0)
(1.15405 -0.059794 0)
(1.15663 -0.0567565 0)
(1.15499 -0.0543347 0)
(1.15183 -0.0521954 0)
(1.14795 -0.0503255 0)
(1.14323 -0.0484021 0)
(1.13438 -0.0463971 0)
(1.12639 -0.0444759 0)
(1.12109 -0.0423708 0)
(1.11679 -0.0402574 0)
(1.11326 -0.0382388 0)
(1.11464 -0.0350832 0)
(1.11969 -0.0316034 0)
(1.11985 -0.0288353 0)
(1.11707 -0.026612 0)
(1.11328 -0.0248046 0)
(1.10874 -0.0232278 0)
(1.09929 -0.0223779 0)
(1.08901 -0.0217508 0)
(1.08275 -0.0197404 0)
(1.07798 -0.0172908 0)
(1.07399 -0.0150121 0)
(1.07354 -0.011781 0)
(1.07917 -0.00783308 0)
(1.08109 -0.00469782 0)
(1.07885 -0.00225224 0)
(1.07513 -0.000277969 0)
(1.07075 0.00111218 0)
(1.06112 0.00141682 0)
(1.04801 0.000304798 0)
(1.03993 0.00116837 0)
(1.03466 0.00330348 0)
(1.03022 0.00550606 0)
(1.029 0.00893265 0)
(1.03491 0.0139804 0)
(1.03798 0.0177213 0)
(1.03593 0.0199573 0)
(1.03215 0.0216977 0)
(1.02768 0.022789 0)
(1.01781 0.0227152 0)
(1.00158 0.0201922 0)
(0.990842 0.0193875 0)
(0.984768 0.0207329 0)
(0.979538 0.0224273 0)
(0.977389 0.0256376 0)
(0.983816 0.0324398 0)
(0.988242 0.0381073 0)
(0.986118 0.0404095 0)
(0.981684 0.0413738 0)
(0.976456 0.0418419 0)
(0.965143 0.0406296 0)
(0.945452 0.0358119 0)
(0.931292 0.0332689 0)
(0.923371 0.0337928 0)
(0.917349 0.0350392 0)
(0.913904 0.0378829 0)
(0.919978 0.0460747 0)
(0.925624 0.0544548 0)
(0.9236 0.0576374 0)
(0.918215 0.058241 0)
(0.911493 0.0582913 0)
(0.896105 0.0547255 0)
(0.87117 0.0449482 0)
(0.853023 0.0384012 0)
(0.842497 0.0356343 0)
(0.834828 0.0355392 0)
(0.83076 0.0379439 0)
(0.834254 0.0457059 0)
(0.835247 0.0534001 0)
(0.829791 0.0578126 0)
(0.821058 0.0590042 0)
(0.80952 0.0576571 0)
(0.788102 0.0466103 0)
(0.759996 0.0281731 0)
(0.735192 0.0125748 0)
(0.718802 0.00100118 0)
(0.714643 -0.0139019 0)
(0.722564 -0.0220528 0)
(0.293965 -0.0313344 0)
(-0.785852 -0.0301038 0)
(1.20982 -0.103986 0)
(1.20421 -0.101714 0)
(1.19904 -0.0987973 0)
(1.19194 -0.0959229 0)
(1.1865 -0.0934012 0)
(1.18235 -0.0911173 0)
(1.17884 -0.0890337 0)
(1.17901 -0.0860144 0)
(1.1834 -0.0828129 0)
(1.1839 -0.0802746 0)
(1.18158 -0.0780436 0)
(1.17827 -0.0759665 0)
(1.17438 -0.0741326 0)
(1.16967 -0.0722236 0)
(1.1615 -0.0701359 0)
(1.15452 -0.0680206 0)
(1.14985 -0.0657191 0)
(1.14599 -0.0635707 0)
(1.14371 -0.0608687 0)
(1.14755 -0.0570408 0)
(1.15064 -0.0538703 0)
(1.14929 -0.0515779 0)
(1.14623 -0.0496094 0)
(1.14246 -0.0479247 0)
(1.13813 -0.0463817 0)
(1.12971 -0.0450514 0)
(1.12057 -0.0437396 0)
(1.11489 -0.0415902 0)
(1.11059 -0.0391913 0)
(1.10707 -0.0367533 0)
(1.10816 -0.0331714 0)
(1.11326 -0.0294507 0)
(1.11391 -0.0267694 0)
(1.11149 -0.0245879 0)
(1.10793 -0.0227173 0)
(1.10383 -0.0212861 0)
(1.09626 -0.0203137 0)
(1.08448 -0.0203368 0)
(1.07666 -0.019256 0)
(1.07176 -0.0171841 0)
(1.06768 -0.014985 0)
(1.0667 -0.0115283 0)
(1.07212 -0.00676434 0)
(1.07475 -0.00330258 0)
(1.07293 -0.00114396 0)
(1.0695 0.000586236 0)
(1.06542 0.00182285 0)
(1.05877 0.00270847 0)
(1.04536 0.00182044 0)
(1.03458 0.00164675 0)
(1.02852 0.00282037 0)
(1.02388 0.00437892 0)
(1.02125 0.00709784 0)
(1.02631 0.0130692 0)
(1.03113 0.0185413 0)
(1.02995 0.0211212 0)
(1.02638 0.0224382 0)
(1.02206 0.023121 0)
(1.01539 0.0236174 0)
(1.00032 0.0215589 0)
(0.98653 0.0197921 0)
(0.978637 0.0199659 0)
(0.973174 0.0211854 0)
(0.969071 0.0230101 0)
(0.972563 0.0290254 0)
(0.980119 0.0375556 0)
(0.980443 0.0416525 0)
(0.976479 0.0426974 0)
(0.97153 0.042749 0)
(0.963855 0.0424072 0)
(0.946126 0.0381023 0)
(0.92865 0.0335261 0)
(0.918572 0.0318766 0)
(0.911948 0.0321861 0)
(0.906447 0.0332345 0)
(0.907184 0.038388 0)
(0.915423 0.0486889 0)
(0.917487 0.055668 0)
(0.913426 0.0582426 0)
(0.907484 0.0587788 0)
(0.898485 0.0581757 0)
(0.878142 0.04967 0)
(0.855093 0.0379558 0)
(0.840143 0.0327194 0)
(0.831218 0.0311534 0)
(0.824405 0.0312469 0)
(0.823476 0.0353225 0)
(0.826585 0.0433096 0)
(0.825159 0.0483212 0)
(0.819356 0.0499969 0)
(0.810991 0.0501503 0)
(0.797359 0.0469074 0)
(0.776547 0.0340832 0)
(0.751119 0.0146705 0)
(0.728727 -0.00024108 0)
(0.717241 -0.0169733 0)
(0.725116 -0.0322451 0)
(0.295677 -0.0255401 0)
(-0.789265 -0.0287647 0)
(1.20526 -0.100807 0)
(1.19973 -0.0987117 0)
(1.19467 -0.0961434 0)
(1.18723 -0.0938162 0)
(1.18151 -0.0917599 0)
(1.17718 -0.0898304 0)
(1.17356 -0.0879017 0)
(1.17357 -0.0844259 0)
(1.17825 -0.0801923 0)
(1.17911 -0.0773468 0)
(1.17692 -0.0752275 0)
(1.17375 -0.0733 0)
(1.17 -0.071589 0)
(1.16569 -0.0698507 0)
(1.15781 -0.0680011 0)
(1.1499 -0.0662928 0)
(1.14487 -0.0645489 0)
(1.14081 -0.0628578 0)
(1.13813 -0.0604324 0)
(1.14171 -0.0558226 0)
(1.14565 -0.0516455 0)
(1.14469 -0.0492321 0)
(1.14175 -0.0474142 0)
(1.13813 -0.0457849 0)
(1.13412 -0.0443076 0)
(1.12703 -0.0429524 0)
(1.1167 -0.0420385 0)
(1.10994 -0.0406471 0)
(1.10535 -0.039021 0)
(1.10159 -0.0371472 0)
(1.10208 -0.0332294 0)
(1.10768 -0.0280395 0)
(1.10908 -0.0247468 0)
(1.10683 -0.0228197 0)
(1.10342 -0.0211746 0)
(1.09947 -0.0198022 0)
(1.09393 -0.0185824 0)
(1.08242 -0.0186021 0)
(1.07242 -0.0180893 0)
(1.06671 -0.0168219 0)
(1.06237 -0.0154384 0)
(1.06011 -0.0127344 0)
(1.06515 -0.00683275 0)
(1.06948 -0.00168813 0)
(1.06836 0.000771022 0)
(1.0651 0.00225797 0)
(1.06115 0.00341935 0)
(1.0562 0.00436309 0)
(1.04442 0.00363111 0)
(1.03165 0.00248752 0)
(1.02384 0.00315539 0)
(1.01866 0.00450145 0)
(1.01466 0.00622435 0)
(1.0168 0.0113382 0)
(1.02417 0.0190086 0)
(1.02538 0.0228987 0)
(1.02229 0.0241725 0)
(1.01807 0.0248373 0)
(1.01299 0.0252476 0)
(1.00069 0.0235303 0)
(0.984828 0.0201638 0)
(0.974799 0.0195495 0)
(0.968381 0.0203029 0)
(0.963518 0.0213206 0)
(0.962184 0.0246553 0)
(0.970247 0.0336085 0)
(0.974957 0.0409557 0)
(0.972647 0.0436425 0)
(0.967986 0.0444616 0)
(0.962539 0.0447436 0)
(0.949831 0.0417473 0)
(0.930134 0.0341242 0)
(0.916524 0.030183 0)
(0.90817 0.0296137 0)
(0.901955 0.0302399 0)
(0.897603 0.032279 0)
(0.902404 0.0411312 0)
(0.909481 0.0520511 0)
(0.908936 0.0574022 0)
(0.904028 0.0592205 0)
(0.897846 0.0592521 0)
(0.886118 0.0565996 0)
(0.862952 0.0447039 0)
(0.842418 0.0335179 0)
(0.82997 0.0288612 0)
(0.822147 0.0270976 0)
(0.816453 0.0273775 0)
(0.817365 0.0329933 0)
(0.818764 0.0402452 0)
(0.815539 0.0437775 0)
(0.809332 0.0440953 0)
(0.800734 0.0432253 0)
(0.787699 0.0354672 0)
(0.769519 0.0202625 0)
(0.746301 0.00217899 0)
(0.724982 -0.012867 0)
(0.727081 -0.0452046 0)
(0.293807 -0.0213289 0)
(-0.791928 -0.0270727 0)
(1.2023 -0.097775 0)
(1.19691 -0.0957486 0)
(1.19229 -0.0935037 0)
(1.1847 -0.0914918 0)
(1.17831 -0.0895864 0)
(1.17378 -0.0876618 0)
(1.17003 -0.0859603 0)
(1.16874 -0.0830284 0)
(1.17378 -0.0778974 0)
(1.17593 -0.0742157 0)
(1.174 -0.072194 0)
(1.17086 -0.0705081 0)
(1.16719 -0.0689404 0)
(1.16312 -0.0673909 0)
(1.15594 -0.0657572 0)
(1.14723 -0.0643363 0)
(1.14151 -0.0626736 0)
(1.13727 -0.0609541 0)
(1.13386 -0.059142 0)
(1.13587 -0.0549651 0)
(1.14128 -0.0496968 0)
(1.1414 -0.0466367 0)
(1.1387 -0.0448009 0)
(1.1352 -0.0432823 0)
(1.13126 -0.0419212 0)
(1.12523 -0.0406207 0)
(1.11477 -0.0401292 0)
(1.10666 -0.039166 0)
(1.10155 -0.0375546 0)
(1.09751 -0.0361235 0)
(1.09596 -0.03338 0)
(1.10176 -0.0274787 0)
(1.10507 -0.0229129 0)
(1.10339 -0.0206369 0)
(1.10014 -0.0190907 0)
(1.0963 -0.0178114 0)
(1.09168 -0.0166466 0)
(1.08123 -0.0164784 0)
(1.07001 -0.0169028 0)
(1.06315 -0.0159418 0)
(1.05841 -0.0145432 0)
(1.05468 -0.0130367 0)
(1.0572 -0.00825083 0)
(1.06399 -0.00129885 0)
(1.06465 0.00225931 0)
(1.06172 0.00373624 0)
(1.05791 0.00475283 0)
(1.05367 0.00560868 0)
(1.04449 0.00551768 0)
(1.03022 0.00348717 0)
(1.0207 0.00335265 0)
(1.0147 0.00456545 0)
(1.01012 0.00556515 0)
(1.0083 0.00822761 0)
(1.01582 0.0160588 0)
(1.0209 0.0227217 0)
(1.01919 0.0252022 0)
(1.01521 0.025946 0)
(1.01062 0.0265201 0)
(1.00201 0.0261562 0)
(0.985483 0.0220755 0)
(0.972897 0.0194253 0)
(0.96533 0.0195181 0)
(0.95979 0.0203992 0)
(0.955402 0.0217472 0)
(0.958457 0.0280139 0)
(0.967391 0.0385491 0)
(0.968842 0.0441595 0)
(0.965236 0.0458528 0)
(0.960311 0.046053 0)
(0.953112 0.0453136 0)
(0.936094 0.038127 0)
(0.917504 0.0298742 0)
(0.906061 0.0275187 0)
(0.898771 0.0277845 0)
(0.893109 0.0284295 0)
(0.891214 0.0317732 0)
(0.898882 0.0427388 0)
(0.903749 0.0523105 0)
(0.901539 0.0561276 0)
(0.89602 0.057455 0)
(0.888818 0.0576755 0)
(0.874041 0.0534569 0)
(0.850813 0.0394057 0)
(0.832796 0.0282649 0)
(0.821374 0.0241552 0)
(0.814123 0.0228529 0)
(0.809937 0.0239194 0)
(0.811886 0.0297652 0)
(0.812222 0.0346896 0)
(0.808511 0.0359475 0)
(0.802344 0.0353201 0)
(0.793888 0.0329872 0)
(0.782024 0.0223632 0)
(0.76548 0.00765628 0)
(0.743019 -0.00899845 0)
(0.73009 -0.0455825 0)
(0.287715 -0.0234666 0)
(-0.794452 -0.0261615 0)
(1.19978 -0.0948746 0)
(1.19448 -0.0928389 0)
(1.19019 -0.0908282 0)
(1.18281 -0.0891309 0)
(1.17594 -0.0875092 0)
(1.17126 -0.0857512 0)
(1.16741 -0.0840717 0)
(1.16469 -0.0817611 0)
(1.16864 -0.0768744 0)
(1.1726 -0.0722008 0)
(1.17139 -0.0696297 0)
(1.16838 -0.06792 0)
(1.1648 -0.0664123 0)
(1.16076 -0.0649485 0)
(1.15431 -0.0635063 0)
(1.14519 -0.0624695 0)
(1.13891 -0.0611208 0)
(1.13444 -0.0594966 0)
(1.13066 -0.0579812 0)
(1.13014 -0.0547056 0)
(1.1362 -0.0489243 0)
(1.13805 -0.0449434 0)
(1.13579 -0.0427674 0)
(1.13244 -0.0411308 0)
(1.1286 -0.0397599 0)
(1.12368 -0.0384948 0)
(1.11356 -0.0382016 0)
(1.10428 -0.0378342 0)
(1.09868 -0.0366019 0)
(1.09439 -0.0352176 0)
(1.09112 -0.0333818 0)
(1.0948 -0.0281971 0)
(1.10065 -0.021964 0)
(1.10035 -0.0188679 0)
(1.09734 -0.017247 0)
(1.09363 -0.0159828 0)
(1.08949 -0.0148653 0)
(1.08092 -0.0145197 0)
(1.0685 -0.0155883 0)
(1.06052 -0.0153296 0)
(1.05528 -0.0140996 0)
(1.05104 -0.0128786 0)
(1.04968 -0.00997146 0)
(1.05691 -0.00266878 0)
(1.06083 0.00300723 0)
(1.05894 0.0053085 0)
(1.05534 0.00643661 0)
(1.05128 0.0072872 0)
(1.0446 0.00769388 0)
(1.03036 0.00553785 0)
(1.01868 0.00395651 0)
(1.01201 0.00445008 0)
(1.00692 0.00568062 0)
(1.00283 0.00707419 0)
(1.00578 0.0123577 0)
(1.01449 0.0213372 0)
(1.01591 0.0259786 0)
(1.01273 0.0276927 0)
(1.00854 0.0284649 0)
(1.00302 0.0287438 0)
(0.9892 0.0252237 0)
(0.973112 0.0198387 0)
(0.96331 0.0183165 0)
(0.956702 0.0191142 0)
(0.951526 0.0202597 0)
(0.94883 0.0229956 0)
(0.956488 0.0326799 0)
(0.963542 0.0423097 0)
(0.962564 0.046127 0)
(0.958392 0.0473106 0)
(0.953186 0.0474107 0)
(0.942744 0.045389 0)
(0.922294 0.035941 0)
(0.906284 0.0286747 0)
(0.897158 0.0266928 0)
(0.890829 0.0262447 0)
(0.885348 0.0267144 0)
(0.885888 0.0320626 0)
(0.893976 0.0447754 0)
(0.896338 0.0534554 0)
(0.892752 0.0567769 0)
(0.886909 0.0575981 0)
(0.879245 0.0565141 0)
(0.863296 0.0493581 0)
(0.840383 0.0344302 0)
(0.823795 0.0240997 0)
(0.813457 0.0199525 0)
(0.806827 0.018605 0)
(0.804229 0.0205186 0)
(0.806466 0.0265389 0)
(0.805921 0.0298304 0)
(0.80225 0.0295749 0)
(0.797175 0.0274346 0)
(0.789861 0.0210681 0)
(0.779548 0.0103014 0)
(0.762996 -0.00437466 0)
(0.740825 -0.038884 0)
(0.279634 -0.02749 0)
(-0.796627 -0.024542 0)
(1.19714 -0.092286 0)
(1.19197 -0.0901247 0)
(1.18807 -0.0882917 0)
(1.18121 -0.0867544 0)
(1.1735 -0.0853069 0)
(1.16842 -0.0836496 0)
(1.16446 -0.081979 0)
(1.16119 -0.0802509 0)
(1.16296 -0.0761404 0)
(1.16846 -0.0707625 0)
(1.16848 -0.0675637 0)
(1.16567 -0.0656327 0)
(1.16215 -0.0640488 0)
(1.1582 -0.0626132 0)
(1.15282 -0.0612638 0)
(1.14353 -0.0605125 0)
(1.13624 -0.0594223 0)
(1.13148 -0.0578976 0)
(1.1276 -0.0564551 0)
(1.12522 -0.0541607 0)
(1.13015 -0.0486992 0)
(1.13425 -0.0435759 0)
(1.13286 -0.0409256 0)
(1.12965 -0.039202 0)
(1.12587 -0.0377592 0)
(1.12162 -0.0364618 0)
(1.11302 -0.0359461 0)
(1.10241 -0.0362191 0)
(1.09598 -0.0353725 0)
(1.09144 -0.0340094 0)
(1.08766 -0.0327542 0)
(1.08768 -0.0292326 0)
(1.09486 -0.0221986 0)
(1.09698 -0.0175901 0)
(1.0945 -0.0155525 0)
(1.09092 -0.0142229 0)
(1.08693 -0.0131143 0)
(1.08075 -0.012397 0)
(1.06829 -0.0137003 0)
(1.05837 -0.0144072 0)
(1.05255 -0.0135831 0)
(1.04806 -0.0123817 0)
(1.0445 -0.0108174 0)
(1.04827 -0.00518875 0)
(1.05571 0.00270639 0)
(1.05603 0.00652357 0)
(1.05279 0.00803356 0)
(1.04884 0.00897851 0)
(1.04407 0.00970392 0)
(1.03243 0.00806078 0)
(1.01819 0.00478375 0)
(1.00988 0.00414352 0)
(1.00434 0.00500161 0)
(0.999661 0.00613972 0)
(0.997297 0.00875125 0)
(1.005 0.0177025 0)
(1.01127 0.0261118 0)
(1.01008 0.0292789 0)
(1.00601 0.0300392 0)
(1.00157 0.0305382 0)
(0.993605 0.0293011 0)
(0.976617 0.0227058 0)
(0.962491 0.0182664 0)
(0.954494 0.0179773 0)
(0.948894 0.0188328 0)
(0.944099 0.0197032 0)
(0.944715 0.0242207 0)
(0.954819 0.0363058 0)
(0.958816 0.0443083 0)
(0.956092 0.0468799 0)
(0.951246 0.048184 0)
(0.945341 0.0490926 0)
(0.932084 0.044625 0)
(0.911784 0.0324337 0)
(0.897813 0.0252826 0)
(0.889044 0.024001 0)
(0.882922 0.0241767 0)
(0.878191 0.0251371 0)
(0.881292 0.0321371 0)
(0.888796 0.0444668 0)
(0.889636 0.0511913 0)
(0.885542 0.0533596 0)
(0.879389 0.0540354 0)
(0.870362 0.052974 0)
(0.853115 0.0447132 0)
(0.831348 0.029235 0)
(0.815835 0.0191184 0)
(0.806151 0.0150456 0)
(0.800271 0.0139576 0)
(0.799639 0.0166276 0)
(0.802636 0.0220403 0)
(0.802189 0.0238899 0)
(0.79908 0.0224067 0)
(0.794968 0.018195 0)
(0.788585 0.0106566 0)
(0.779536 0.00012005 0)
(0.755994 -0.0274706 0)
(0.273655 -0.0325806 0)
(-0.798802 -0.0227534 0)
(1.19444 -0.0898723 0)
(1.18948 -0.0875713 0)
(1.18573 -0.0857861 0)
(1.17974 -0.0841954 0)
(1.17138 -0.0829498 0)
(1.16572 -0.0814921 0)
(1.16155 -0.0798168 0)
(1.158 -0.0783418 0)
(1.15752 -0.0752579 0)
(1.16338 -0.0697722 0)
(1.16519 -0.0658361 0)
(1.16295 -0.0635911 0)
(1.1596 -0.0618883 0)
(1.15574 -0.06041 0)
(1.15124 -0.0590306 0)
(1.14251 -0.0583252 0)
(1.13394 -0.0576791 0)
(1.12866 -0.0562997 0)
(1.12457 -0.054788 0)
(1.12124 -0.0532112 0)
(1.12343 -0.0488899 0)
(1.12955 -0.0428039 0)
(1.12977 -0.0393542 0)
(1.12697 -0.0374101 0)
(1.12339 -0.0358909 0)
(1.11938 -0.0345979 0)
(1.11292 -0.0337691 0)
(1.10169 -0.0344333 0)
(1.0937 -0.034186 0)
(1.08868 -0.032908 0)
(1.08463 -0.0316018 0)
(1.08199 -0.0295687 0)
(1.08732 -0.0233761 0)
(1.09277 -0.0169033 0)
(1.09179 -0.0139347 0)
(1.08853 -0.0124353 0)
(1.08473 -0.0113418 0)
(1.08014 -0.0104563 0)
(1.06944 -0.0114648 0)
(1.05731 -0.0133637 0)
(1.05019 -0.0131431 0)
(1.0452 -0.0119108 0)
(1.04109 -0.010756 0)
(1.04002 -0.00768493 0)
(1.04813 0.000825818 0)
(1.05243 0.00726313 0)
(1.05052 0.00973891 0)
(1.0468 0.0107841 0)
(1.04273 0.0115021 0)
(1.03515 0.0109808 0)
(1.02018 0.00675057 0)
(1.00865 0.00418412 0)
(1.00189 0.0045642 0)
(0.996742 0.00585637 0)
(0.992444 0.00707158 0)
(0.994109 0.0120192 0)
(1.00392 0.0229543 0)
(1.00688 0.0292268 0)
(1.00429 0.0315644 0)
(1.00018 0.0323266 0)
(0.995135 0.0329212 0)
(0.982366 0.0296557 0)
(0.964443 0.0216828 0)
(0.95354 0.0178111 0)
(0.947012 0.0173079 0)
(0.941419 0.0178441 0)
(0.937058 0.019249 0)
(0.941101 0.0272901 0)
(0.950781 0.0411959 0)
(0.952273 0.0481742 0)
(0.949133 0.0499341 0)
(0.944428 0.049848 0)
(0.937992 0.0493845 0)
(0.921867 0.0424705 0)
(0.901448 0.0305152 0)
(0.888963 0.0246705 0)
(0.881411 0.0230861 0)
(0.875682 0.0224495 0)
(0.871637 0.0237166 0)
(0.876253 0.0325578 0)
(0.882322 0.0445153 0)
(0.88157 0.0505491 0)
(0.876851 0.052538 0)
(0.870686 0.0525494 0)
(0.861639 0.0497305 0)
(0.844385 0.0396306 0)
(0.823359 0.0238925 0)
(0.808664 0.0140124 0)
(0.799843 0.00952757 0)
(0.79485 0.0085194 0)
(0.796286 0.0121672 0)
(0.800004 0.0177326 0)
(0.800001 0.0187628 0)
(0.798239 0.0154206 0)
(0.794954 0.00908853 0)
(0.790606 0.00216632 0)
(0.771944 -0.0163376 0)
(0.271186 -0.0346935 0)
(-0.800965 -0.0204689 0)
(1.1916 -0.0875009 0)
(1.18694 -0.0850174 0)
(1.18335 -0.0833178 0)
(1.17833 -0.0817536 0)
(1.16985 -0.0806237 0)
(1.16326 -0.0793841 0)
(1.15882 -0.0778024 0)
(1.15509 -0.076356 0)
(1.15284 -0.0741604 0)
(1.15753 -0.0690235 0)
(1.16145 -0.0642135 0)
(1.15999 -0.0616535 0)
(1.15688 -0.0598265 0)
(1.15322 -0.0582631 0)
(1.14919 -0.0568588 0)
(1.14198 -0.0559342 0)
(1.13227 -0.0557401 0)
(1.12612 -0.0547266 0)
(1.12173 -0.0532623 0)
(1.118 -0.0519274 0)
(1.11716 -0.0489699 0)
(1.12363 -0.042583 0)
(1.12634 -0.0378784 0)
(1.12419 -0.0356489 0)
(1.12083 -0.0340566 0)
(1.11699 -0.0327493 0)
(1.11229 -0.0316726 0)
(1.10205 -0.0321621 0)
(1.09207 -0.0327769 0)
(1.08625 -0.0319 0)
(1.08184 -0.0304891 0)
(1.07814 -0.0291365 0)
(1.07917 -0.0250281 0)
(1.08689 -0.0171517 0)
(1.08868 -0.0125785 0)
(1.08598 -0.0107793 0)
(1.08235 -0.00959369 0)
(1.0784 -0.00864434 0)
(1.07108 -0.00873058 0)
(1.05782 -0.0114442 0)
(1.04842 -0.0125049 0)
(1.04273 -0.0116501 0)
(1.03818 -0.010299 0)
(1.03457 -0.00874023 0)
(1.03834 -0.00285119 0)
(1.04684 0.00648795 0)
(1.0478 0.0109105 0)
(1.0446 0.0123912 0)
(1.04062 0.0132267 0)
(1.03595 0.0137349 0)
(1.02428 0.0108467 0)
(1.00918 0.00584349 0)
(1.00016 0.00459554 0)
(0.99447 0.00531092 0)
(0.98969 0.0064155 0)
(0.986358 0.0082234 0)
(0.99264 0.0163873 0)
(1.00119 0.0274982 0)
(1.00145 0.0320554 0)
(0.997895 0.0335796 0)
(0.993568 0.0344455 0)
(0.987474 0.0343481 0)
(0.972141 0.0271851 0)
(0.955571 0.0182869 0)
(0.945602 0.0157154 0)
(0.938952 0.016477 0)
(0.933919 0.0172789 0)
(0.930896 0.0191029 0)
(0.93852 0.0291707 0)
(0.947298 0.0419842 0)
(0.947184 0.0469003 0)
(0.942768 0.0487204 0)
(0.937294 0.05012 0)
(0.92916 0.0499893 0)
(0.911879 0.0405775 0)
(0.893304 0.0273345 0)
(0.881748 0.0214129 0)
(0.874125 0.0203967 0)
(0.868556 0.0204256 0)
(0.865712 0.0224951 0)
(0.871442 0.0322722 0)
(0.876236 0.0426172 0)
(0.874787 0.0470457 0)
(0.870013 0.0484128 0)
(0.863702 0.0483663 0)
(0.85404 0.0452519 0)
(0.83679 0.034117 0)
(0.816754 0.0178242 0)
(0.802675 0.00777981 0)
(0.794673 0.00300512 0)
(0.790812 0.00206383 0)
(0.7944 0.00673142 0)
(0.799251 0.012428 0)
(0.800394 0.0121949 0)
(0.799539 0.00695731 0)
(0.798135 0.00156915 0)
(0.785675 -0.00859485 0)
(0.273221 -0.0342258 0)
(-0.803225 -0.0176212 0)