/*--------------------------------*- C++ -*----------------------------------*\
  =========                 |
  \\      /  F ield         | OpenFOAM: The Open Source CFD Toolbox
   \\    /   O peration     | Website:  https://openfoam.org
    \\  /    A nd           | Version:  12
     \\/     M anipulation  |
\*---------------------------------------------------------------------------*/
FoamFile
{
    format      ascii;
    class       volScalarField;
    location    "12.1";
    object      p;
}
// * * * * * * * * * * * * * * * * * * * * * * * * * * * * * * * * * * * * * //

dimensions      [1 -1 -2 0 0 0 0];

internalField   nonuniform List<scalar> 
9801
(
0.65164
0.656391
0.658635
0.65909
0.659349
0.661677
0.664997
0.671294
0.681843
0.690053
0.695419
0.699546
0.703154
0.706301
0.707263
0.706333
0.708124
0.711393
0.716252
0.726435
0.737546
0.744445
0.749268
0.753382
0.757037
0.758316
0.756221
0.757394
0.760772
0.76524
0.774498
0.788439
0.798009
0.803943
0.808462
0.812551
0.81372
0.809663
0.810067
0.813795
0.818437
0.827062
0.843146
0.856239
0.863568
0.869103
0.873968
0.874943
0.86859
0.86758
0.871377
0.876873
0.886206
0.905188
0.921867
0.931155
0.937939
0.943392
0.94391
0.934319
0.93213
0.936522
0.943553
0.956092
0.979927
1.00019
1.01194
1.02001
1.02717
1.02549
1.01032
1.007
1.01348
1.02364
1.04584
1.07946
1.10241
1.11594
1.1262
1.13467
1.12534
1.10481
1.10456
1.1172
1.13959
1.1878
1.23287
1.26024
1.28109
1.30116
1.30391
1.27551
1.26025
1.282
1.33188
1.44606
1.56798
2.71394
9.95736
0.658304
0.663119
0.664978
0.665483
0.665948
0.668126
0.671105
0.677113
0.688499
0.697249
0.702563
0.706495
0.709823
0.712637
0.713316
0.712651
0.71431
0.717278
0.721659
0.732304
0.744234
0.751366
0.756137
0.76002
0.763393
0.764388
0.762382
0.763356
0.766396
0.770388
0.779452
0.794242
0.804243
0.81019
0.814658
0.818593
0.819699
0.815962
0.816054
0.81923
0.823365
0.831226
0.847944
0.86171
0.869354
0.874907
0.879603
0.880864
0.874932
0.873501
0.876773
0.881665
0.889751
0.908711
0.92626
0.936058
0.942915
0.948418
0.949691
0.940804
0.937849
0.941571
0.947869
0.958624
0.98245
1.0034
1.01547
1.02378
1.03116
1.03118
1.01712
1.01273
1.01827
1.02727
1.04555
1.07847
1.10333
1.11831
1.12962
1.13997
1.13364
1.11201
1.10941
1.12065
1.13774
1.17754
1.22348
1.25367
1.27666
1.29881
1.30796
1.28606
1.26754
1.2781
1.31635
1.39054
1.47985
2.56865
10.0842
0.660406
0.665358
0.667229
0.667881
0.668519
0.67072
0.67362
0.679254
0.690941
0.699939
0.705129
0.708949
0.712231
0.715052
0.715698
0.715094
0.71676
0.719709
0.723844
0.734369
0.746815
0.754058
0.758776
0.762614
0.766021
0.767063
0.764913
0.765784
0.768786
0.772676
0.781146
0.796107
0.806445
0.812465
0.817015
0.821123
0.822926
0.819169
0.818598
0.821552
0.825649
0.832799
0.849223
0.863633
0.871539
0.877162
0.881957
0.884284
0.878871
0.876384
0.879267
0.884019
0.891113
0.908896
0.927397
0.9378
0.94481
0.950551
0.953517
0.946036
0.941362
0.944139
0.950062
0.958411
0.979342
1.0028
1.01648
1.02536
1.03315
1.03601
1.02398
1.01712
1.0211
1.02948
1.04213
1.07316
1.10361
1.12035
1.13182
1.1422
1.1409
1.11972
1.11213
1.12138
1.13617
1.16484
1.21558
1.25473
1.27991
1.30187
1.31553
1.29941
1.28406
1.28948
1.31794
1.37804
1.43822
2.5166
10.097
0.663995
0.669105
0.670938
0.671437
0.672103
0.67428
0.677162
0.682322
0.69397
0.703468
0.708771
0.712617
0.715943
0.718768
0.719143
0.718474
0.720159
0.723132
0.727077
0.737052
0.750104
0.757717
0.762487
0.766356
0.769823
0.770808
0.768443
0.76916
0.772138
0.775966
0.78338
0.798387
0.809738
0.816085
0.82078
0.824997
0.827206
0.82326
0.821941
0.824788
0.828971
0.835155
0.850483
0.866402
0.875096
0.880867
0.885735
0.888891
0.883901
0.879809
0.882215
0.887009
0.893164
0.908553
0.929224
0.941273
0.948548
0.954385
0.958657
0.952461
0.944688
0.946379
0.952451
0.95982
0.977236
1.00413
1.02033
1.02954
1.03731
1.04229
1.0326
1.02077
1.02262
1.03107
1.04163
1.06636
1.10124
1.1216
1.13382
1.14466
1.15024
1.13357
1.11754
1.12177
1.13631
1.15575
1.19649
1.24188
1.27213
1.29547
1.3168
1.31329
1.29382
1.28726
1.30243
1.34705
1.3866
2.49907
10.1249
0.667565
0.672799
0.674643
0.674862
0.67529
0.677392
0.680294
0.685111
0.696588
0.706769
0.712285
0.716182
0.719525
0.722323
0.722548
0.721693
0.723264
0.726196
0.729902
0.738848
0.752699
0.76111
0.766018
0.769917
0.773367
0.774489
0.772066
0.772376
0.775115
0.778777
0.784751
0.799331
0.812451
0.8194
0.824188
0.828362
0.830863
0.82753
0.825568
0.827936
0.831862
0.836925
0.849842
0.867551
0.877694
0.883768
0.888695
0.892472
0.888998
0.883552
0.884976
0.889436
0.895012
0.907061
0.928986
0.943479
0.951392
0.957373
0.962444
0.959013
0.949032
0.9486
0.954241
0.961317
0.974449
1.00138
1.02111
1.03142
1.03944
1.04635
1.04253
1.02749
1.02379
1.03084
1.04069
1.05773
1.09324
1.12159
1.13674
1.14839
1.15834
1.15117
1.129
1.12246
1.13298
1.14961
1.17812
1.2246
1.26347
1.29145
1.31618
1.32973
1.31438
1.29968
1.29643
1.31787
1.34365
2.48263
10.1584
0.671277
0.676589
0.678467
0.67846
0.678659
0.6807
0.683578
0.6879
0.698987
0.710049
0.715927
0.719841
0.72313
0.725955
0.726343
0.725298
0.726713
0.729582
0.733091
0.740624
0.754935
0.764489
0.769699
0.773613
0.777051
0.778636
0.776172
0.775817
0.778327
0.781922
0.786875
0.800072
0.814896
0.822812
0.827845
0.832043
0.835154
0.832702
0.829267
0.830712
0.834403
0.839097
0.849605
0.868328
0.880469
0.887246
0.89243
0.896943
0.895817
0.888153
0.887152
0.891106
0.896697
0.906602
0.928127
0.945377
0.954298
0.960655
0.966542
0.967601
0.956953
0.951331
0.95512
0.961754
0.971655
0.996201
1.02144
1.03438
1.04282
1.05034
1.05278
1.03837
1.02777
1.03056
1.03959
1.05155
1.07988
1.11677
1.13896
1.15252
1.16402
1.16701
1.14625
1.12985
1.13162
1.14549
1.1645
1.20083
1.24377
1.27654
1.30287
1.32679
1.3318
1.31665
1.29971
1.2988
1.30186
2.45662
10.1985
0.674836
0.680192
0.68207
0.68188
0.681892
0.683874
0.686778
0.690891
0.701297
0.712858
0.719182
0.72329
0.726697
0.729707
0.730431
0.728721
0.72965
0.732421
0.736
0.742746
0.756724
0.767224
0.772903
0.777047
0.780696
0.783124
0.780576
0.778597
0.780598
0.784227
0.789153
0.80119
0.816787
0.825672
0.831081
0.835515
0.839414
0.838818
0.833087
0.832421
0.835766
0.840623
0.849989
0.868742
0.88277
0.890154
0.895546
0.900469
0.902461
0.894903
0.88998
0.892515
0.897715
0.905574
0.924993
0.945936
0.956775
0.963493
0.969668
0.973995
0.966264
0.956499
0.956812
0.962352
0.969844
0.987629
1.01774
1.03689
1.04686
1.05456
1.06023
1.05132
1.03486
1.03159
1.03837
1.04831
1.06567
1.10287
1.13586
1.15392
1.16654
1.17679
1.17016
1.14597
1.13646
1.1422
1.15672
1.18032
1.22056
1.25833
1.2874
1.31183
1.33181
1.33068
1.31449
1.2946
1.26761
2.42319
10.2373
0.678317
0.683725
0.685722
0.685554
0.684952
0.68669
0.689535
0.693509
0.7035
0.715512
0.722296
0.726657
0.730254
0.733489
0.735062
0.732766
0.732456
0.73488
0.738333
0.74453
0.758339
0.769853
0.775994
0.780373
0.784181
0.787413
0.786114
0.782206
0.78289
0.786204
0.790745
0.801736
0.818416
0.828569
0.834327
0.838918
0.843123
0.844856
0.838632
0.835245
0.837648
0.842117
0.849566
0.86769
0.884733
0.893317
0.898887
0.903862
0.907639
0.902559
0.894871
0.895011
0.899357
0.905224
0.919377
0.94397
0.959442
0.96739
0.973672
0.979248
0.976103
0.963253
0.95941
0.963107
0.969819
0.98063
1.00845
1.03665
1.05084
1.05926
1.06626
1.06535
1.04723
1.03648
1.03838
1.04699
1.05757
1.08208
1.12225
1.15004
1.16622
1.17912
1.18747
1.17334
1.14905
1.14393
1.15255
1.16837
1.19652
1.23574
1.26819
1.2943
1.31694
1.32959
1.32456
1.30319
1.2588
2.37275
10.2758
0.681708
0.687194
0.689444
0.689647
0.688374
0.689637
0.692301
0.695821
0.70476
0.71781
0.725541
0.730132
0.733797
0.737095
0.739348
0.737252
0.735791
0.737655
0.740856
0.745787
0.758671
0.77212
0.779221
0.783778
0.787613
0.791099
0.791324
0.786654
0.786062
0.788803
0.792758
0.800983
0.818367
0.831121
0.837653
0.842347
0.846575
0.849475
0.844821
0.839508
0.840603
0.844517
0.849784
0.863932
0.884631
0.896248
0.90253
0.907594
0.912156
0.910542
0.901013
0.898263
0.901215
0.90645
0.91487
0.937874
0.960353
0.971098
0.977719
0.983493
0.984893
0.972492
0.963272
0.964525
0.970584
0.978124
0.995542
1.02888
1.05147
1.06243
1.07033
1.07633
1.0676
1.0478
1.04154
1.04528
1.05413
1.06715
1.09981
1.13924
1.16356
1.17868
1.19106
1.19471
1.17547
1.15497
1.15302
1.16278
1.17982
1.2118
1.24894
1.2771
1.29906
1.31713
1.32266
1.31094
1.26808
2.32924
10.3159
0.685147
0.690714
0.693118
0.693835
0.692074
0.69277
0.695206
0.698398
0.705597
0.71948
0.728778
0.73373
0.737451
0.740748
0.743394
0.742019
0.739556
0.74077
0.743702
0.747617
0.758012
0.773521
0.78234
0.787291
0.791238
0.794837
0.796397
0.791835
0.789726
0.791783
0.795382
0.800829
0.816168
0.832697
0.840942
0.845932
0.850194
0.853825
0.851454
0.844579
0.844021
0.84704
0.851544
0.860186
0.881325
0.898106
0.906079
0.911417
0.916256
0.918112
0.908967
0.902182
0.903419
0.908035
0.914027
0.929244
0.956705
0.973412
0.981471
0.987274
0.991866
0.985605
0.971436
0.967834
0.971197
0.977717
0.98676
1.01271
1.04631
1.06429
1.07416
1.08254
1.08617
1.06773
1.04874
1.04668
1.05314
1.06287
1.079
1.11616
1.15207
1.17322
1.18762
1.19968
1.20175
1.18099
1.16176
1.16119
1.17179
1.19042
1.22478
1.2589
1.28334
1.30182
1.313
1.3126
1.28491
2.30394
10.3533
0.688578
0.694288
0.696795
0.698039
0.695956
0.696004
0.69819
0.701187
0.706556
0.720031
0.731399
0.73709
0.740987
0.74436
0.747341
0.747088
0.743703
0.744049
0.746595
0.749977
0.757181
0.773293
0.784867
0.790625
0.794766
0.798481
0.801204
0.79789
0.793791
0.794892
0.798024
0.802123
0.812778
0.832052
0.843558
0.849352
0.853756
0.857769
0.858352
0.850939
0.847524
0.849582
0.853582
0.859079
0.875186
0.897449
0.908889
0.915007
0.919989
0.923944
0.918752
0.907968
0.906374
0.909849
0.915092
0.923106
0.946883
0.972345
0.984276
0.99113
0.996994
0.999136
0.985456
0.972785
0.971932
0.976762
0.983966
0.997119
1.03112
1.06155
1.076
1.08468
1.09194
1.09153
1.07022
1.05488
1.0547
1.06108
1.07088
1.09097
1.13044
1.16335
1.18332
1.19766
1.2085
1.2068
1.18554
1.16792
1.16772
1.17827
1.1989
1.23516
1.26684
1.28742
1.30049
1.30585
1.29814
2.30104
10.3881
0.691927
0.697811
0.700366
0.702156
0.700182
0.699402
0.701286
0.704145
0.70811
0.719524
0.733265
0.740309
0.74448
0.747944
0.751104
0.752183
0.748451
0.747387
0.749461
0.752617
0.757384
0.771412
0.78652
0.793908
0.798345
0.802121
0.805465
0.804437
0.798681
0.798
0.800611
0.804343
0.81077
0.828703
0.845002
0.852587
0.857341
0.861501
0.864394
0.858916
0.851974
0.852355
0.855729
0.860233
0.869342
0.892421
0.910238
0.918287
0.923596
0.928371
0.929023
0.917674
0.910591
0.911602
0.915821
0.921547
0.935052
0.965016
0.985865
0.99546
1.00208
1.00778
1.00332
0.9842
0.975697
0.977719
0.983748
0.991161
1.00884
1.04651
1.07281
1.08531
1.09456
1.10292
1.09857
1.0735
1.05985
1.06133
1.06902
1.07965
1.10312
1.14243
1.17222
1.19068
1.20479
1.21478
1.21171
1.18944
1.17221
1.17203
1.18195
1.20424
1.24141
1.27006
1.28686
1.29454
1.30367
2.32167
10.4214
0.695069
0.701314
0.703939
0.70629
0.704923
0.703096
0.704448
0.707099
0.710349
0.718595
0.733896
0.743174
0.747954
0.751575
0.754814
0.757008
0.753911
0.750981
0.752336
0.75529
0.759016
0.768969
0.786515
0.796654
0.801825
0.805749
0.809338
0.810717
0.804845
0.801536
0.803351
0.806773
0.811126
0.823675
0.844124
0.855209
0.860832
0.865194
0.869135
0.867999
0.858768
0.855717
0.857972
0.861936
0.867255
0.883613
0.908195
0.9208
0.927254
0.932334
0.936574
0.93076
0.917215
0.91379
0.916679
0.921944
0.928977
0.950618
0.981487
0.99708
1.00448
1.01037
1.01541
1.00623
0.987201
0.981305
0.983192
0.98892
0.997351
1.02188
1.0618
1.08569
1.09701
1.10527
1.11123
1.10271
1.07861
1.06724
1.06912
1.07657
1.08791
1.11535
1.15383
1.18077
1.19797
1.21161
1.21993
1.21498
1.19201
1.17449
1.1736
1.18251
1.20616
1.24339
1.26971
1.28159
1.29889
2.36289
10.4595
0.698045
0.704819
0.707535
0.710262
0.710033
0.707194
0.707617
0.709947
0.71298
0.718429
0.733074
0.745535
0.751393
0.75514
0.75839
0.761176
0.759815
0.755261
0.75541
0.758029
0.761426
0.767456
0.784128
0.798526
0.805156
0.809351
0.81304
0.815958
0.812377
0.806207
0.806283
0.809117
0.812895
0.819821
0.839513
0.856619
0.864243
0.868964
0.873161
0.87582
0.868498
0.860351
0.860248
0.863318
0.867852
0.876306
0.900245
0.921482
0.930972
0.936831
0.941633
0.942978
0.930094
0.919316
0.919132
0.922783
0.928241
0.937595
0.966083
0.994193
1.00704
1.01481
1.02151
1.02442
1.0076
0.988769
0.985459
0.989787
0.996633
1.00575
1.03405
1.07287
1.09349
1.10417
1.11332
1.12044
1.10973
1.08406
1.07335
1.07621
1.08457
1.09723
1.12728
1.16357
1.18785
1.20408
1.21712
1.2245
1.218
1.19309
1.17462
1.1727
1.18021
1.20499
1.24204
1.26418
1.28815
2.41739
10.503
0.700693
0.708362
0.711195
0.714084
0.71516
0.711869
0.710899
0.712862
0.715804
0.719666
0.731021
0.746465
0.754223
0.758449
0.761854
0.764986
0.765862
0.760874
0.75892
0.760841
0.763936
0.767906
0.779953
0.798418
0.807925
0.812849
0.816701
0.820238
0.820294
0.812742
0.809623
0.81145
0.814829
0.819254
0.832496
0.854921
0.866885
0.872673
0.877006
0.881006
0.879329
0.86776
0.863263
0.865345
0.869372
0.874423
0.888621
0.916237
0.932466
0.939675
0.944978
0.949987
0.94771
0.931434
0.923138
0.923707
0.927625
0.933623
0.947762
0.981768
1.00672
1.01721
1.02336
1.02903
1.03028
1.01174
0.995403
0.993055
0.99596
1.00201
1.01284
1.04599
1.08431
1.10424
1.11466
1.12289
1.12715
1.11459
1.09086
1.08089
1.08324
1.09099
1.10522
1.13866
1.17342
1.19545
1.21009
1.22187
1.22806
1.22037
1.19344
1.1729
1.16939
1.17559
1.20297
1.23645
1.26864
2.47512
10.545
0.702982
0.711872
0.714764
0.717694
0.71977
0.717357
0.714742
0.716036
0.718713
0.721847
0.728823
0.745144
0.756449
0.761744
0.765422
0.768729
0.771196
0.767729
0.763048
0.763642
0.766344
0.769809
0.776688
0.795187
0.809829
0.816304
0.820383
0.824031
0.826694
0.821361
0.814115
0.814053
0.816946
0.82076
0.827406
0.8479
0.867563
0.876092
0.880969
0.885107
0.887883
0.879809
0.869379
0.868223
0.870783
0.875062
0.881517
0.902935
0.929864
0.942666
0.949574
0.955103
0.959246
0.949958
0.932
0.926721
0.929221
0.934104
0.940234
0.958047
0.993676
1.01529
1.02542
1.0332
1.0399
1.03772
1.0148
0.998814
0.997738
1.00286
1.00994
1.02156
1.05591
1.09223
1.11039
1.12072
1.12982
1.13542
1.1219
1.0964
1.08598
1.08871
1.09718
1.11347
1.14847
1.18118
1.20148
1.21546
1.22643
1.23185
1.22216
1.19308
1.16968
1.16386
1.16988
1.19776
1.23956
2.52204
10.5779
0.704364
0.715031
0.718194
0.721286
0.723997
0.723654
0.719616
0.719366
0.721408
0.724237
0.728371
0.741687
0.757495
0.764872
0.768977
0.77237
0.775465
0.775019
0.768559
0.766827
0.768993
0.772242
0.776344
0.789274
0.809094
0.818965
0.823889
0.827704
0.831273
0.830758
0.821456
0.81759
0.819393
0.822704
0.826831
0.838301
0.862898
0.877841
0.88444
0.888985
0.893258
0.893225
0.880305
0.871997
0.872526
0.875925
0.880686
0.890363
0.918224
0.941982
0.951727
0.957241
0.962194
0.965684
0.953139
0.936502
0.932706
0.934346
0.938813
0.945956
0.969886
1.00705
1.02691
1.03547
1.04115
1.04681
1.04382
1.02122
1.00684
1.00561
1.00893
1.01517
1.02886
1.06654
1.10184
1.11937
1.12926
1.1373
1.14056
1.12694
1.10288
1.09216
1.09377
1.1012
1.11889
1.15641
1.18879
1.2079
1.22036
1.2298
1.23401
1.22331
1.19269
1.16474
1.15629
1.16044
1.2023
2.54654
10.603
0.704588
0.717952
0.721692
0.724999
0.727916
0.729552
0.725506
0.722666
0.723944
0.726655
0.72996
0.738183
0.756002
0.767293
0.77243
0.775952
0.77918
0.781269
0.776257
0.771137
0.77191
0.774705
0.778091
0.784491
0.803762
0.820304
0.827317
0.831478
0.835211
0.838088
0.832191
0.823106
0.822063
0.824476
0.82809
0.833501
0.851869
0.876104
0.887527
0.893472
0.897794
0.901502
0.895739
0.880732
0.875936
0.877941
0.881806
0.886782
0.900082
0.93108
0.951472
0.96047
0.966768
0.972366
0.972967
0.954728
0.93866
0.936833
0.940867
0.94616
0.953259
0.979182
1.01517
1.03288
1.04235
1.05043
1.05673
1.05079
1.02572
1.01076
1.0103
1.01582
1.0233
1.03798
1.07526
1.10792
1.12409
1.13433
1.14333
1.14806
1.13354
1.10697
1.09517
1.09675
1.10463
1.12395
1.16237
1.19396
1.21204
1.22379
1.23214
1.23468
1.22329
1.19109
1.1599
1.14251
1.15888
2.53046
10.6224
0.703569
0.720291
0.725172
0.728595
0.731522
0.734106
0.732234
0.727047
0.726979
0.729376
0.732408
0.736839
0.751257
0.767795
0.775244
0.77939
0.782884
0.786084
0.785164
0.777502
0.775174
0.777036
0.780127
0.78397
0.795742
0.817869
0.829839
0.835281
0.839109
0.84275
0.842966
0.832238
0.825685
0.826776
0.830083
0.834039
0.841934
0.866167
0.887249
0.89588
0.901108
0.905498
0.908508
0.898289
0.883959
0.880981
0.882852
0.886738
0.892452
0.911376
0.944056
0.961875
0.96932
0.974042
0.979193
0.97905
0.959848
0.945743
0.943937
0.945866
0.950605
0.959315
0.990282
1.02698
1.04395
1.05173
1.05729
1.06258
1.05702
1.03336
1.0194
1.01834
1.02178
1.02818
1.04524
1.08538
1.11718
1.13246
1.14171
1.14951
1.15274
1.1385
1.11243
1.09981
1.10005
1.10666
1.12621
1.16594
1.19787
1.21522
1.22567
1.23244
1.23353
1.22152
1.18825
1.1488
1.12922
2.4759
10.6406
0.701686
0.720875
0.728088
0.731962
0.735033
0.737928
0.73883
0.733389
0.730688
0.732154
0.734814
0.738009
0.746123
0.765132
0.777541
0.783066
0.786669
0.789951
0.792188
0.786385
0.77946
0.779611
0.782378
0.78582
0.791098
0.809277
0.829695
0.838443
0.842988
0.846688
0.849998
0.845314
0.83327
0.83023
0.832239
0.835441
0.839677
0.851778
0.879369
0.89702
0.904757
0.910172
0.914688
0.914983
0.899247
0.886211
0.885346
0.888868
0.89322
0.899091
0.921182
0.95345
0.969177
0.977142
0.983575
0.989062
0.985187
0.962505
0.948387
0.948123
0.952865
0.958657
0.967384
0.99828
1.03263
1.04831
1.05729
1.06515
1.07116
1.0645
1.03939
1.02369
1.02252
1.02792
1.03584
1.05462
1.09362
1.12226
1.13655
1.14655
1.15556
1.16033
1.1449
1.11606
1.10178
1.10158
1.10785
1.12725
1.1675
1.19937
1.21603
1.22566
1.23122
1.23091
1.21828
1.17666
1.12874
2.39535
10.6653
0.700042
0.718388
0.7301
0.735308
0.738657
0.741674
0.744142
0.741228
0.73524
0.734963
0.737271
0.740329
0.744636
0.758909
0.777512
0.785919
0.790136
0.793514
0.79673
0.796097
0.786866
0.783171
0.784898
0.787964
0.791406
0.799731
0.822889
0.839756
0.846661
0.850792
0.854502
0.856428
0.846398
0.835466
0.834324
0.837001
0.840704
0.845769
0.863357
0.891693
0.906095
0.9124
0.916937
0.921456
0.920469
0.903179
0.892213
0.891579
0.893763
0.898062
0.905561
0.932622
0.964845
0.979204
0.985625
0.989869
0.994882
0.991268
0.969598
0.957247
0.956217
0.958277
0.962957
0.973125
1.00741
1.04266
1.05822
1.06565
1.07135
1.07679
1.07177
1.04779
1.0321
1.03016
1.03339
1.03992
1.06049
1.10159
1.13078
1.14489
1.15359
1.1611
1.16481
1.15
1.12066
1.10456
1.10295
1.10821
1.12664
1.16719
1.19956
1.21582
1.22441
1.22829
1.22779
1.20764
1.15967
2.32638
10.7003
0.700393
0.713604
0.730555
0.73844
0.74232
0.74528
0.74805
0.748583
0.741978
0.738592
0.740089
0.742924
0.746083
0.75301
0.772397
0.78732
0.793586
0.797261
0.800622
0.803323
0.797863
0.788792
0.787625
0.789792
0.793065
0.7972
0.810723
0.835738
0.849085
0.855005
0.858781
0.862431
0.861164
0.846808
0.838686
0.839524
0.842848
0.846621
0.852347
0.874147
0.901609
0.914038
0.920513
0.925925
0.930419
0.925181
0.904857
0.895022
0.896277
0.900545
0.905138
0.912676
0.940901
0.971211
0.984381
0.992238
0.998876
1.00407
0.998011
0.974579
0.96064
0.960026
0.964569
0.970528
0.980782
1.01394
1.04686
1.06182
1.07087
1.07883
1.08483
1.07942
1.05446
1.03634
1.03321
1.03773
1.04568
1.06741
1.1074
1.13484
1.14839
1.15819
1.16699
1.17171
1.15623
1.12452
1.10612
1.10329
1.10769
1.12523
1.16574
1.19829
1.21416
1.22148
1.22496
1.21936
1.20021
2.2986
10.7419
0.702692
0.710007
0.727101
0.739868
0.745195
0.748554
0.751624
0.754236
0.751116
0.74402
0.743281
0.745356
0.748217
0.751848
0.763663
0.785137
0.796188
0.80111
0.804497
0.807773
0.808258
0.798119
0.791326
0.792201
0.795358
0.798908
0.8039
0.822516
0.846593
0.857175
0.862659
0.866568
0.869982
0.86503
0.849768
0.844013
0.845067
0.847813
0.851836
0.859644
0.885829
0.911764
0.922623
0.928055
0.931944
0.936353
0.930437
0.910967
0.902856
0.903027
0.905164
0.909628
0.919183
0.951024
0.981578
0.994302
1.00032
1.00465
1.00964
1.0053
0.98302
0.969566
0.968042
0.969945
0.974511
0.985621
1.02174
1.05629
1.07117
1.07843
1.08425
1.09028
1.08724
1.06292
1.04351
1.03942
1.04181
1.04804
1.0698
1.11224
1.14246
1.15698
1.16538
1.17243
1.17578
1.16159
1.12897
1.10776
1.10345
1.10671
1.12264
1.16282
1.19558
1.21069
1.218
1.21697
1.2246
2.31508
10.7858
0.705288
0.70976
0.720419
0.738862
0.747939
0.752252
0.755376
0.758276
0.759307
0.752055
0.746938
0.747867
0.750624
0.753783
0.758898
0.776309
0.795889
0.80412
0.80826
0.811544
0.814661
0.811133
0.799337
0.795943
0.79783
0.800767
0.804165
0.810975
0.834253
0.856264
0.865483
0.870865
0.875031
0.877879
0.868151
0.851803
0.847715
0.850383
0.854256
0.858222
0.866788
0.895028
0.919216
0.929164
0.935477
0.940963
0.944801
0.935325
0.914164
0.905788
0.907502
0.911996
0.916978
0.926284
0.957424
0.986122
0.998529
1.0065
1.01318
1.01831
1.01298
0.989778
0.973653
0.971377
0.975551
0.981698
0.993287
1.02775
1.05954
1.07423
1.08377
1.09199
1.09801
1.09425
1.06898
1.0472
1.04156
1.04491
1.05234
1.07396
1.11535
1.14524
1.15977
1.16913
1.1767
1.18052
1.16719
1.13311
1.10866
1.10234
1.10456
1.11888
1.15865
1.19106
1.20696
1.20922
1.23312
2.36666
10.834
0.707732
0.711595
0.716459
0.733109
0.748991
0.75546
0.758808
0.761728
0.764475
0.762283
0.753519
0.751359
0.753313
0.756207
0.759291
0.766589
0.788317
0.805194
0.811954
0.815807
0.819087
0.821234
0.812771
0.801666
0.800047
0.802404
0.805782
0.809623
0.819313
0.8456
0.864963
0.872705
0.877453
0.881407
0.883776
0.872547
0.857765
0.854762
0.856155
0.858984
0.863307
0.874654
0.905551
0.928748
0.937953
0.942627
0.946342
0.950656
0.942236
0.922185
0.914522
0.914598
0.916527
0.920879
0.931678
0.965769
0.995831
1.0081
1.01391
1.01822
1.02368
1.0214
0.99912
0.982451
0.979392
0.981122
0.985512
0.99709
1.03408
1.06864
1.08363
1.09081
1.09647
1.10291
1.10192
1.07743
1.05405
1.04737
1.04876
1.05397
1.0731
1.11619
1.14931
1.16517
1.17379
1.18015
1.18364
1.17224
1.13726
1.10898
1.10028
1.10139
1.11442
1.15336
1.18577
1.19751
1.2303
2.43612
10.8817
0.710814
0.71424
0.716962
0.7253
0.744834
0.757052
0.762254
0.765494
0.768549
0.770698
0.764236
0.756526
0.756136
0.758168
0.761053
0.7648
0.776064
0.800028
0.814093
0.819917
0.823309
0.826584
0.826647
0.813945
0.804874
0.805152
0.808147
0.811548
0.815385
0.827308
0.855205
0.872659
0.879988
0.885151
0.889737
0.890866
0.875916
0.860678
0.85839
0.861555
0.865592
0.869836
0.881444
0.912567
0.934187
0.943214
0.949801
0.955327
0.958965
0.948841
0.927193
0.917472
0.918375
0.922703
0.92791
0.938246
0.970734
0.999148
1.01151
1.01963
1.02641
1.03173
1.02905
1.00693
0.98733
0.982508
0.985934
0.991913
1.00399
1.03891
1.07087
1.0859
1.0961
1.10451
1.11077
1.10901
1.08376
1.05783
1.04891
1.05072
1.05704
1.07558
1.11709
1.15085
1.16742
1.17646
1.18273
1.18603
1.17591
1.14078
1.10889
1.09735
1.09725
1.10903
1.14801
1.17478
1.21658
2.50967
10.9241
0.714547
0.716673
0.718926
0.722353
0.735147
0.755606
0.765234
0.769528
0.7726
0.775582
0.775252
0.76505
0.759601
0.76073
0.763657
0.76681
0.770987
0.785753
0.809875
0.821731
0.827277
0.831035
0.83434
0.831306
0.816917
0.810194
0.810826
0.813111
0.816498
0.82106
0.83656
0.864965
0.880686
0.887202
0.891234
0.89503
0.896346
0.881898
0.868067
0.865899
0.867075
0.869897
0.874465
0.888697
0.921697
0.943586
0.952109
0.956601
0.960425
0.964804
0.957089
0.935578
0.925847
0.925435
0.927355
0.93157
0.942702
0.977651
1.00832
1.02077
1.02666
1.03109
1.03691
1.03731
1.01656
0.995724
0.990092
0.991108
0.99513
1.00598
1.04277
1.07942
1.09594
1.10353
1.10885
1.115
1.11605
1.09324
1.0656
1.05506
1.055
1.05909
1.07388
1.11534
1.15198
1.16956
1.17808
1.18363
1.18671
1.17887
1.14523
1.10908
1.09352
1.09135
1.10416
1.13796
1.19053
2.57376
10.9546
0.718515
0.718507
0.720788
0.7237
0.729091
0.74707
0.765389
0.772751
0.77638
0.779347
0.78213
0.77805
0.767128
0.764533
0.766332
0.768908
0.771768
0.776656
0.795413
0.819138
0.829767
0.835126
0.838916
0.84198
0.835672
0.819492
0.813688
0.81563
0.819273
0.822776
0.827144
0.844295
0.872686
0.887058
0.893655
0.898956
0.903623
0.903396
0.886288
0.87126
0.869123
0.872341
0.876593
0.881115
0.894762
0.926967
0.947732
0.956692
0.963341
0.968922
0.972944
0.964681
0.942087
0.929497
0.929111
0.933224
0.938559
0.949108
0.98147
1.0104
1.0235
1.03209
1.03918
1.04474
1.04456
1.02415
1.00087
0.992949
0.995146
1.00075
1.01181
1.04574
1.08024
1.09691
1.10737
1.11641
1.12289
1.12354
1.10079
1.07057
1.05682
1.056
1.06063
1.0744
1.11341
1.15059
1.16909
1.17821
1.18426
1.18758
1.18168
1.14986
1.10964
1.0885
1.08511
1.09435
1.15399
2.61245
10.9744
0.724307
0.721223
0.723118
0.72602
0.72909
0.736891
0.758203
0.77386
0.780179
0.783743
0.786773
0.788595
0.780003
0.769682
0.768267
0.770462
0.773579
0.777023
0.783593
0.805317
0.82734
0.836671
0.84174
0.845611
0.848337
0.840588
0.825463
0.820927
0.821907
0.82403
0.827501
0.832957
0.853083
0.881495
0.895329
0.901266
0.904803
0.908749
0.909655
0.8938
0.879486
0.877046
0.878041
0.880644
0.885245
0.900532
0.93449
0.956463
0.965087
0.969583
0.973724
0.978782
0.973955
0.951736
0.938407
0.936613
0.937966
0.941799
0.952312
0.986586
1.01901
1.03282
1.03912
1.04358
1.04938
1.05196
1.03407
1.00963
1.00064
1.00036
1.00337
1.01188
1.04532
1.08624
1.10681
1.11539
1.12084
1.12644
1.12931
1.11078
1.07907
1.06219
1.05931
1.06194
1.07175
1.10931
1.14985
1.17063
1.17963
1.18461
1.18704
1.18233
1.15383
1.11079
1.08445
1.07076
1.1095
2.60214
10.9853
0.732698
0.72561
0.726015
0.728309
0.730931
0.734491
0.745618
0.768927
0.782511
0.787997
0.791091
0.793967
0.793616
0.781266
0.772874
0.773286
0.776137
0.779371
0.782623
0.789785
0.813678
0.834923
0.843762
0.84887
0.853161
0.855764
0.845772
0.829026
0.824222
0.826505
0.830216
0.833806
0.838866
0.859447
0.887452
0.900461
0.907152
0.912754
0.917398
0.917162
0.899869
0.883404
0.879972
0.882781
0.887056
0.891687
0.905246
0.937591
0.95929
0.969089
0.976456
0.982173
0.986407
0.981499
0.958892
0.942404
0.939658
0.943285
0.948747
0.958783
0.989698
1.02016
1.03466
1.04411
1.0518
1.05762
1.05947
1.04198
1.01517
1.00293
1.00305
1.00799
1.01678
1.04649
1.08547
1.10619
1.11719
1.12682
1.1336
1.13636
1.11812
1.08384
1.06355
1.0591
1.06205
1.07157
1.10671
1.14746
1.16905
1.17844
1.18354
1.18558
1.1815
1.15609
1.11235
1.07441
1.07414
2.54488
10.9924
0.742118
0.733021
0.729345
0.731008
0.73378
0.73669
0.740848
0.755034
0.778259
0.789832
0.79507
0.798401
0.801257
0.797974
0.78426
0.77814
0.778758
0.78082
0.783938
0.787791
0.797143
0.822601
0.842391
0.850427
0.854905
0.858399
0.86087
0.851752
0.836263
0.831887
0.832658
0.83457
0.838129
0.844241
0.867031
0.8957
0.909086
0.914812
0.918206
0.922319
0.924052
0.908961
0.892292
0.888088
0.888547
0.890654
0.895088
0.909711
0.944831
0.968787
0.977958
0.982276
0.986117
0.991273
0.990403
0.970083
0.952602
0.948355
0.948806
0.951931
0.960537
0.992194
1.02787
1.04458
1.05171
1.05615
1.06171
1.06611
1.05274
1.02504
1.01119
1.00903
1.01073
1.0164
1.04239
1.08721
1.11462
1.12536
1.13113
1.13586
1.13937
1.1266
1.09304
1.06913
1.0622
1.06319
1.06897
1.10087
1.14413
1.16764
1.17699
1.18151
1.18321
1.17919
1.15681
1.10466
1.06798
2.44926
11.0076
0.749234
0.745714
0.735909
0.734821
0.736821
0.739475
0.742176
0.746672
0.763451
0.786411
0.797193
0.80239
0.80573
0.808381
0.802554
0.78726
0.781623
0.783365
0.786754
0.79017
0.793631
0.803341
0.829838
0.848722
0.856416
0.861475
0.866044
0.868588
0.857517
0.840063
0.834801
0.836944
0.840707
0.844497
0.849926
0.871846
0.900008
0.913134
0.920208
0.926124
0.930868
0.93193
0.916619
0.897153
0.890936
0.892986
0.897409
0.902131
0.914246
0.946366
0.969737
0.980376
0.988844
0.995199
1.00003
0.99893
0.978026
0.956752
0.950503
0.95303
0.958079
0.966386
0.994092
1.02791
1.04516
1.05556
1.0643
1.07055
1.07416
1.06145
1.03168
1.01345
1.01033
1.01415
1.02087
1.04331
1.08529
1.11241
1.1247
1.13427
1.14162
1.14543
1.13368
1.09866
1.07071
1.06102
1.06157
1.06735
1.0971
1.14021
1.16482
1.17448
1.1789
1.17966
1.17647
1.14785
1.09976
2.36005
11.0398
0.753919
0.757288
0.74773
0.73976
0.739458
0.741578
0.744255
0.747227
0.752604
0.771273
0.793531
0.803583
0.808681
0.812441
0.814952
0.807774
0.793319
0.788868
0.78984
0.791645
0.794639
0.798732
0.810591
0.837866
0.856111
0.863517
0.867554
0.870609
0.873614
0.864721
0.84816
0.842931
0.843413
0.84496
0.848348
0.854452
0.877885
0.907802
0.921941
0.927847
0.931247
0.935463
0.938682
0.926873
0.907246
0.900203
0.899397
0.900193
0.9042
0.916526
0.95125
0.979506
0.990924
0.996559
1.00023
1.00422
1.0052
0.987574
0.966062
0.958965
0.958653
0.960846
0.967026
0.993597
1.03369
1.05563
1.06436
1.06919
1.07415
1.07929
1.07176
1.04264
1.02235
1.01729
1.0178
1.02156
1.03856
1.083
1.11821
1.13263
1.13883
1.14324
1.14638
1.13938
1.10757
1.07584
1.06316
1.06171
1.06521
1.09072
1.13471
1.16113
1.17135
1.17503
1.17662
1.16734
1.1506
2.32013
11.082
0.758224
0.7635
0.762183
0.750298
0.744094
0.744763
0.74711
0.749665
0.752224
0.757504
0.777988
0.800663
0.810535
0.815551
0.819495
0.821957
0.813639
0.797636
0.792249
0.794096
0.797482
0.800872
0.804468
0.816006
0.843563
0.861221
0.868555
0.873967
0.878676
0.881527
0.871589
0.852966
0.84571
0.8471
0.850749
0.854784
0.860112
0.881493
0.910635
0.924835
0.932546
0.939061
0.943969
0.946708
0.934937
0.912182
0.901537
0.901828
0.905722
0.911107
0.922887
0.954878
0.981561
0.99322
1.00026
1.00649
1.01199
1.01377
0.996697
0.971697
0.961124
0.961822
0.966337
0.973272
0.99614
1.03347
1.05526
1.06622
1.07551
1.08231
1.08707
1.08018
1.05099
1.0262
1.01833
1.0202
1.02548
1.04012
1.07997
1.11467
1.1299
1.13883
1.14649
1.15102
1.14591
1.11429
1.07834
1.06191
1.05921
1.06231
1.0851
1.12882
1.15676
1.16725
1.17188
1.16781
1.18277
2.33736
11.1263
0.761427
0.768753
0.771367
0.767172
0.754327
0.749198
0.74937
0.75076
0.753516
0.757019
0.764056
0.786303
0.807755
0.816776
0.821393
0.824967
0.827419
0.820063
0.805153
0.800097
0.800576
0.80202
0.804935
0.809133
0.822411
0.850785
0.868846
0.876126
0.879989
0.883174
0.886836
0.880073
0.862038
0.854426
0.854107
0.855136
0.858107
0.863644
0.885684
0.917697
0.934022
0.94059
0.944062
0.947677
0.951741
0.943898
0.922102
0.911563
0.910544
0.911588
0.914747
0.923607
0.954686
0.986433
1.00132
1.00792
1.0124
1.01671
1.02031
1.0072
0.981989
0.97041
0.968854
0.970131
0.974485
0.993318
1.03458
1.06364
1.07533
1.08096
1.08518