/*--------------------------------*- C++ -*----------------------------------*\
  =========                 |
  \\      /  F ield         | OpenFOAM: The Open Source CFD Toolbox
   \\    /   O peration     | Website:  https://openfoam.org
    \\  /    A nd           | Version:  12
     \\/     M anipulation  |
\*---------------------------------------------------------------------------*/
FoamFile
{
    format      ascii;
    class       volVectorField;
    location    "12.1";
    object      U;
}
// * * * * * * * * * * * * * * * * * * * * * * * * * * * * * * * * * * * * * //

dimensions      [0 1 -1 0 0 0 0];

internalField   nonuniform List<vector> 
9801
(
(1.24006 -0.116678 0)
(1.23546 -0.114048 0)
(1.23105 -0.111155 0)
(1.22474 -0.107591 0)
(1.21839 -0.104556 0)
(1.21394 -0.102318 0)
(1.2101 -0.100325 0)
(1.20884 -0.0973039 0)
(1.2122 -0.0939478 0)
(1.21376 -0.0912962 0)
(1.21215 -0.0890098 0)
(1.20924 -0.0868036 0)
(1.20559 -0.0846417 0)
(1.20125 -0.0823805 0)
(1.19519 -0.0792217 0)
(1.18729 -0.0759848 0)
(1.18216 -0.0736721 0)
(1.17797 -0.0717564 0)
(1.17496 -0.0693848 0)
(1.17698 -0.0660138 0)
(1.18024 -0.0630665 0)
(1.17982 -0.0607451 0)
(1.17725 -0.0585698 0)
(1.17368 -0.056526 0)
(1.16945 -0.0545365 0)
(1.16344 -0.0517809 0)
(1.15411 -0.0486617 0)
(1.14801 -0.0464539 0)
(1.14346 -0.0446142 0)
(1.13966 -0.0427193 0)
(1.13979 -0.0397475 0)
(1.14431 -0.036579 0)
(1.14538 -0.0340892 0)
(1.14315 -0.0318998 0)
(1.13969 -0.0298515 0)
(1.13539 -0.0279259 0)
(1.12882 -0.0253413 0)
(1.11785 -0.0225141 0)
(1.11067 -0.0205494 0)
(1.1056 -0.0188621 0)
(1.10139 -0.0173407 0)
(1.10005 -0.0148577 0)
(1.10497 -0.0116392 0)
(1.10758 -0.00893743 0)
(1.10603 -0.00671463 0)
(1.10244 -0.00462349 0)
(1.09804 -0.00292281 0)
(1.09101 -0.000523548 0)
(1.07798 0.00199171 0)
(1.06911 0.00369434 0)
(1.06369 0.00509461 0)
(1.05894 0.00632219 0)
(1.05692 0.00836043 0)
(1.06219 0.0114324 0)
(1.06613 0.0142292 0)
(1.06484 0.0165873 0)
(1.06093 0.0186634 0)
(1.05638 0.0202686 0)
(1.04826 0.0225425 0)
(1.03231 0.0246194 0)
(1.02108 0.0259112 0)
(1.01514 0.0268843 0)
(1.00986 0.0276872 0)
(1.00825 0.0295036 0)
(1.01559 0.0326178 0)
(1.0198 0.0353888 0)
(1.01756 0.0376569 0)
(1.01308 0.0397019 0)
(1.0074 0.0413154 0)
(0.996321 0.0434275 0)
(0.976148 0.0448105 0)
(0.962613 0.0452649 0)
(0.955412 0.0455776 0)
(0.949509 0.0459714 0)
(0.951502 0.0478424 0)
(0.961014 0.0507922 0)
(0.963023 0.0536452 0)
(0.959149 0.0560776 0)
(0.95331 0.0579022 0)
(0.945302 0.0594686 0)
(0.925427 0.0602626 0)
(0.897956 0.0593756 0)
(0.8818 0.0586723 0)
(0.872576 0.0586154 0)
(0.868449 0.0589827 0)
(0.87837 0.0604064 0)
(0.884911 0.0627806 0)
(0.880348 0.0656175 0)
(0.871414 0.0681075 0)
(0.860192 0.0693193 0)
(0.837841 0.0703292 0)
(0.796745 0.0685008 0)
(0.757933 0.0640997 0)
(0.732504 0.0600633 0)
(0.718537 0.0539441 0)
(0.71798 0.0318164 0)
(0.702026 0.0145641 0)
(0.262077 -0.0732519 0)
(-0.833387 -0.0554141 0)
(1.23996 -0.118665 0)
(1.23507 -0.116124 0)
(1.23066 -0.112995 0)
(1.22447 -0.109574 0)
(1.21811 -0.106591 0)
(1.21353 -0.104314 0)
(1.20972 -0.102455 0)
(1.20845 -0.0994548 0)
(1.21237 -0.0959982 0)
(1.21381 -0.0933862 0)
(1.21195 -0.0910981 0)
(1.20891 -0.0888783 0)
(1.20523 -0.086667 0)
(1.20091 -0.0843372 0)
(1.19481 -0.0811818 0)
(1.18706 -0.0780492 0)
(1.18171 -0.0756583 0)
(1.17755 -0.0737224 0)
(1.17446 -0.0714494 0)
(1.17687 -0.067955 0)
(1.18043 -0.0649936 0)
(1.17977 -0.062708 0)
(1.177 -0.0605658 0)
(1.17339 -0.0585282 0)
(1.16917 -0.0565224 0)
(1.16313 -0.0538075 0)
(1.15392 -0.0508093 0)
(1.14755 -0.0485613 0)
(1.14297 -0.0466159 0)
(1.13915 -0.0448103 0)
(1.13932 -0.0417352 0)
(1.14433 -0.0384092 0)
(1.14534 -0.0358812 0)
(1.14297 -0.0336592 0)
(1.13944 -0.0316198 0)
(1.13514 -0.0297046 0)
(1.12875 -0.0272565 0)
(1.11795 -0.0247743 0)
(1.11024 -0.0228655 0)
(1.10507 -0.0210022 0)
(1.10088 -0.0194786 0)
(1.09929 -0.0169151 0)
(1.10465 -0.0133788 0)
(1.10755 -0.0105588 0)
(1.10587 -0.00833742 0)
(1.10223 -0.00628265 0)
(1.09787 -0.00459798 0)
(1.09112 -0.00243929 0)
(1.07831 -0.000350435 0)
(1.06885 0.0011305 0)
(1.06309 0.0026841 0)
(1.0584 0.00399341 0)
(1.05593 0.00610839 0)
(1.06142 0.0096985 0)
(1.06589 0.0127789 0)
(1.06464 0.0151767 0)
(1.06076 0.0172342 0)
(1.05621 0.0187271 0)
(1.04852 0.0206368 0)
(1.03278 0.0221462 0)
(1.02086 0.0230644 0)
(1.01439 0.0241809 0)
(1.00916 0.0250777 0)
(1.00693 0.0269227 0)
(1.01386 0.0300944 0)
(1.01844 0.0336399 0)
(1.01671 0.03658 0)
(1.01245 0.0387263 0)
(1.00692 0.0400107 0)
(0.996814 0.0414975 0)
(0.976818 0.0419332 0)
(0.962276 0.0418673 0)
(0.954559 0.0421539 0)
(0.948451 0.0424267 0)
(0.947939 0.0441527 0)
(0.956823 0.0495844 0)
(0.960454 0.0539264 0)
(0.957374 0.0561113 0)
(0.951615 0.0570212 0)
(0.944268 0.0571792 0)
(0.926281 0.056899 0)
(0.898173 0.0548823 0)
(0.880662 0.0531225 0)
(0.870705 0.0520057 0)
(0.863831 0.0520532 0)
(0.868626 0.0581522 0)
(0.876812 0.0668889 0)
(0.875072 0.0715789 0)
(0.867022 0.0730544 0)
(0.856157 0.0728034 0)
(0.835794 0.0710203 0)
(0.796519 0.0640976 0)
(0.754606 0.0560137 0)
(0.723565 0.0523034 0)
(0.704764 0.0515989 0)
(0.695922 0.037349 0)
(0.688867 0.0239825 0)
(0.260228 -0.0550221 0)
(-0.836705 -0.0567126 0)
(1.24002 -0.115565 0)
(1.2348 -0.113047 0)
(1.23036 -0.110093 0)
(1.2243 -0.106839 0)
(1.21807 -0.103881 0)
(1.21342 -0.10161 0)
(1.20957 -0.0998426 0)
(1.208 -0.097037 0)
(1.21231 -0.0932212 0)
(1.21404 -0.0903359 0)
(1.21208 -0.0880451 0)
(1.20893 -0.0858515 0)
(1.20515 -0.0837293 0)
(1.20076 -0.0815646 0)
(1.1946 -0.0786213 0)
(1.18687 -0.0755084 0)
(1.18144 -0.0730828 0)
(1.17722 -0.0711793 0)
(1.17393 -0.0691207 0)
(1.17623 -0.0655299 0)
(1.18037 -0.062154 0)
(1.17984 -0.0597666 0)
(1.177 -0.0576738 0)
(1.17333 -0.0557255 0)
(1.16906 -0.0538839 0)
(1.16301 -0.0514644 0)
(1.15364 -0.0486383 0)
(1.14707 -0.0463452 0)
(1.14239 -0.0443913 0)
(1.13845 -0.0427237 0)
(1.13809 -0.0397408 0)
(1.14334 -0.0358255 0)
(1.14482 -0.0329185 0)
(1.1426 -0.0307012 0)
(1.13907 -0.0287671 0)
(1.13478 -0.0270897 0)
(1.12888 -0.025195 0)
(1.11793 -0.0232375 0)
(1.10949 -0.0212276 0)
(1.10415 -0.0192154 0)
(1.09986 -0.0176781 0)
(1.09763 -0.0153401 0)
(1.1027 -0.0112731 0)
(1.10635 -0.0078305 0)
(1.10497 -0.00553345 0)
(1.10142 -0.00360409 0)
(1.09712 -0.0021002 0)
(1.09111 -0.000500576 0)
(1.07852 0.000661223 0)
(1.06798 0.00194439 0)
(1.06169 0.00371424 0)
(1.05684 0.00520932 0)
(1.05362 0.00709403 0)
(1.05819 0.0113197 0)
(1.06359 0.0154537 0)
(1.06296 0.0180218 0)
(1.05933 0.0199353 0)
(1.05483 0.0211885 0)
(1.04814 0.0224127 0)
(1.03311 0.0224855 0)
(1.01974 0.0227894 0)
(1.01223 0.0242061 0)
(1.00661 0.0255972 0)
(1.00281 0.0273803 0)
(1.00772 0.0325687 0)
(1.01435 0.0378688 0)
(1.0138 0.0403333 0)
(1.00972 0.0417368 0)
(1.00428 0.0424169 0)
(0.995888 0.0428722 0)
(0.977012 0.0412164 0)
(0.960257 0.040024 0)
(0.950826 0.0408724 0)
(0.944148 0.0418599 0)
(0.940031 0.0436434 0)
(0.947292 0.0498838 0)
(0.953631 0.0549975 0)
(0.95144 0.0567096 0)
(0.945814 0.0574426 0)
(0.939041 0.0578366 0)
(0.924721 0.057454 0)
(0.897352 0.0532375 0)
(0.876288 0.0503433 0)
(0.86415 0.0501991 0)
(0.855779 0.0500191 0)
(0.854436 0.0522433 0)
(0.863564 0.0591181 0)
(0.865394 0.0625611 0)
(0.858676 0.0630968 0)
(0.848675 0.0631638 0)
(0.831433 0.0625367 0)
(0.796954 0.0567974 0)
(0.759692 0.0463241 0)
(0.72817 0.0365522 0)
(0.704015 0.028579 0)
(0.688179 0.00478483 0)
(0.690918 -0.0126183 0)
(0.259599 -0.0584865 0)
(-0.842491 -0.0482494 0)
(1.2384 -0.11301 0)
(1.23295 -0.110528 0)
(1.22844 -0.107769 0)
(1.22215 -0.104877 0)
(1.21595 -0.102098 0)
(1.21126 -0.0997652 0)
(1.2074 -0.0978995 0)
(1.20546 -0.0953117 0)
(1.20974 -0.0915503 0)
(1.21192 -0.0884415 0)
(1.21007 -0.086044 0)
(1.20689 -0.0838659 0)
(1.20304 -0.0818751 0)
(1.19863 -0.0798772 0)
(1.19225 -0.0771779 0)
(1.18452 -0.0743266 0)
(1.17907 -0.0719909 0)
(1.17481 -0.0700515 0)
(1.17134 -0.068113 0)
(1.17312 -0.0646319 0)
(1.17775 -0.0609183 0)
(1.17747 -0.0583261 0)
(1.17465 -0.0562362 0)
(1.17098 -0.054371 0)
(1.16673 -0.0526509 0)
(1.1607 -0.05041 0)
(1.1513 -0.0478853 0)
(1.14458 -0.0458084 0)
(1.13979 -0.0439371 0)
(1.13572 -0.042346 0)
(1.13444 -0.0395893 0)
(1.13964 -0.0352403 0)
(1.14179 -0.0319643 0)
(1.13972 -0.0298143 0)
(1.13619 -0.0280558 0)
(1.13198 -0.0265517 0)
(1.12652 -0.0247738 0)
(1.11579 -0.0227441 0)
(1.10685 -0.0209601 0)
(1.10132 -0.0192774 0)
(1.09682 -0.0178765 0)
(1.09368 -0.0159444 0)
(1.09773 -0.0116987 0)
(1.10232 -0.0075303 0)
(1.10129 -0.00507099 0)
(1.09785 -0.00327635 0)
(1.09367 -0.0018822 0)
(1.08836 -0.000411347 0)
(1.07659 0.000890803 0)
(1.06508 0.00203561 0)
(1.05821 0.00361584 0)
(1.05304 0.00511582 0)
(1.04889 0.00657011 0)
(1.05144 0.010496 0)
(1.05793 0.0153489 0)
(1.05807 0.0179915 0)
(1.05464 0.0195283 0)
(1.05031 0.0205711 0)
(1.04465 0.0216834 0)
(1.03113 0.022191 0)
(1.01625 0.0225769 0)
(1.00755 0.0239655 0)
(1.00139 0.0255071 0)
(0.996544 0.0266279 0)
(0.998624 0.0300889 0)
(1.00656 0.0353423 0)
(1.00711 0.0381971 0)
(1.00327 0.0397527 0)
(0.998132 0.0407938 0)
(0.991373 0.0416701 0)
(0.974607 0.0404749 0)
(0.955335 0.0384803 0)
(0.944188 0.038994 0)
(0.936924 0.0402148 0)
(0.931179 0.0409909 0)
(0.93421 0.0453654 0)
(0.942678 0.0530385 0)
(0.942378 0.0571224 0)
(0.937313 0.0588916 0)
(0.93098 0.0594544 0)
(0.920686 0.0591737 0)
(0.896788 0.053148 0)
(0.872028 0.0459119 0)
(0.857316 0.0436812 0)
(0.848077 0.0437255 0)
(0.84134 0.044318 0)
(0.844881 0.0512866 0)
(0.848926 0.0612404 0)
(0.844377 0.0667977 0)
(0.835425 0.0680315 0)
(0.823099 0.0669064 0)
(0.796464 0.0576037 0)
(0.759539 0.0406043 0)
(0.726243 0.0270376 0)
(0.700697 0.0174472 0)
(0.683935 -0.0048627 0)
(0.691365 -0.023801 0)
(0.262863 -0.0522298 0)
(-0.849975 -0.0446824 0)
(1.23542 -0.109963 0)
(1.22986 -0.107598 0)
(1.2254 -0.104977 0)
(1.21885 -0.102237 0)
(1.21249 -0.099556 0)
(1.20775 -0.0972069 0)
(1.20385 -0.0952484 0)
(1.20156 -0.0926633 0)
(1.20564 -0.0886343 0)
(1.20845 -0.0853088 0)
(1.20678 -0.0830129 0)
(1.20356 -0.0809917 0)
(1.19973 -0.0790544 0)
(1.19536 -0.0770375 0)
(1.18892 -0.0744293 0)
(1.18098 -0.0718129 0)
(1.17538 -0.0696346 0)
(1.17099 -0.0677168 0)
(1.16728 -0.0659276 0)
(1.16807 -0.0624678 0)
(1.17331 -0.0581382 0)
(1.17366 -0.0553001 0)
(1.1709 -0.053316 0)
(1.16723 -0.051563 0)
(1.16303 -0.0498575 0)
(1.15719 -0.0477403 0)
(1.1478 -0.0455504 0)
(1.14057 -0.0436824 0)
(1.13551 -0.0418379 0)
(1.13129 -0.040232 0)
(1.12884 -0.0378807 0)
(1.13356 -0.0332443 0)
(1.13698 -0.0293172 0)
(1.13525 -0.0270553 0)
(1.13175 -0.0253763 0)
(1.12761 -0.0238945 0)
(1.12246 -0.0222076 0)
(1.11227 -0.0206023 0)
(1.10259 -0.0192984 0)
(1.09647 -0.0177855 0)
(1.0917 -0.016182 0)
(1.0878 -0.0145246 0)
(1.08997 -0.010475 0)
(1.09583 -0.00545471 0)
(1.0957 -0.00252303 0)
(1.09245 -0.000751377 0)
(1.08837 0.000552962 0)
(1.08355 0.00182575 0)
(1.07299 0.00248795 0)
(1.06024 0.00257576 0)
(1.05239 0.00389432 0)
(1.04682 0.00567438 0)
(1.04222 0.00720723 0)
(1.04229 0.0105613 0)
(1.04951 0.0160754 0)
(1.05112 0.0197908 0)
(1.04812 0.0218769 0)
(1.04394 0.0232807 0)
(1.03893 0.0243803 0)
(1.02764 0.0242129 0)
(1.01118 0.0218949 0)
(1.00094 0.0220188 0)
(0.994315 0.0237279 0)
(0.988989 0.0253229 0)
(0.98789 0.0286404 0)
(0.995713 0.0354538 0)
(0.998511 0.0402532 0)
(0.995375 0.042265 0)
(0.990462 0.0433765 0)
(0.984912 0.0439286 0)
(0.972121 0.0424981 0)
(0.95103 0.0376221 0)
(0.937085 0.0355775 0)
(0.928982 0.0368054 0)
(0.922554 0.0381057 0)
(0.920532 0.0415676 0)
(0.929038 0.050588 0)
(0.932752 0.057179 0)
(0.928849 0.0589007 0)
(0.922748 0.0587408 0)
(0.915142 0.0581651 0)
(0.897188 0.0540381 0)
(0.869848 0.0454634 0)
(0.850942 0.0393788 0)
(0.839961 0.0383179 0)
(0.831796 0.0385347 0)
(0.829306 0.041529 0)
(0.834345 0.0502795 0)
(0.833697 0.0572944 0)
(0.826361 0.0595074 0)
(0.816349 0.0590491 0)
(0.798972 0.054714 0)
(0.768242 0.0399763 0)
(0.734598 0.0218228 0)
(0.707115 0.00580635 0)
(0.689808 -0.0154613 0)
(0.699638 -0.0383595 0)
(0.264952 -0.0432852 0)
(-0.854423 -0.0414521 0)
(1.23097 -0.107258 0)
(1.22543 -0.104922 0)
(1.22108 -0.102398 0)
(1.21437 -0.099631 0)
(1.2077 -0.097014 0)
(1.20285 -0.0947845 0)
(1.19887 -0.0929353 0)
(1.19608 -0.0907429 0)
(1.19969 -0.0869913 0)
(1.20322 -0.0834353 0)
(1.20182 -0.0809313 0)
(1.19867 -0.0788503 0)
(1.1949 -0.0769206 0)
(1.19061 -0.0750166 0)
(1.18431 -0.0727377 0)
(1.17608 -0.0703536 0)
(1.17019 -0.0681525 0)
(1.16561 -0.0660864 0)
(1.16174 -0.0643715 0)
(1.16127 -0.0614571 0)
(1.16685 -0.0571855 0)
(1.16806 -0.0539814 0)
(1.16551 -0.0517746 0)
(1.16194 -0.0499127 0)
(1.15782 -0.0482252 0)
(1.15237 -0.0464615 0)
(1.14295 -0.0448663 0)
(1.13505 -0.0430007 0)
(1.12965 -0.0408714 0)
(1.12529 -0.0389164 0)
(1.12205 -0.0369003 0)
(1.12564 -0.0329942 0)
(1.1304 -0.0288785 0)
(1.12934 -0.0262143 0)
(1.12602 -0.0242764 0)
(1.12199 -0.0226948 0)
(1.11727 -0.0212443 0)
(1.10775 -0.0204725 0)
(1.0969 -0.0199263 0)
(1.09012 -0.018035 0)
(1.08504 -0.0157441 0)
(1.08087 -0.0137966 0)
(1.08118 -0.0103993 0)
(1.08776 -0.00547781 0)
(1.089 -0.00208039 0)
(1.08621 7.74386e-05 0)
(1.08229 0.00173311 0)
(1.07784 0.00296782 0)
(1.06907 0.00343652 0)
(1.05495 0.00225657 0)
(1.04547 0.00287021 0)
(1.03968 0.00496332 0)
(1.03492 0.00694779 0)
(1.03322 0.0100128 0)
(1.03995 0.015574 0)
(1.04342 0.0198634 0)
(1.04115 0.0220112 0)
(1.03722 0.0236254 0)
(1.03256 0.0247892 0)
(1.02439 0.025264 0)
(1.00754 0.0229002 0)
(0.994245 0.0211849 0)
(0.986936 0.022158 0)
(0.981485 0.0236079 0)
(0.97813 0.026056 0)
(0.984083 0.0328707 0)
(0.990004 0.0397632 0)
(0.988288 0.0423724 0)
(0.983675 0.0431928 0)
(0.978643 0.0434313 0)
(0.969917 0.0430182 0)
(0.950027 0.0387228 0)
(0.932056 0.0347735 0)
(0.921935 0.0341699 0)
(0.915235 0.0352051 0)
(0.910076 0.0369812 0)
(0.914126 0.0440882 0)
(0.92222 0.0545462 0)
(0.92176 0.059464 0)
(0.916475 0.0605252 0)
(0.909958 0.0604266 0)
(0.898186 0.0583151 0)
(0.873146 0.0484652 0)
(0.849276 0.038987 0)
(0.834926 0.03386 0)
(0.825924 0.0325774 0)
(0.819189 0.0331266 0)
(0.820264 0.0390052 0)
(0.822677 0.0474382 0)
(0.818293 0.052474 0)
(0.809612 0.0537965 0)
(0.798803 0.0527328 0)
(0.779797 0.0430317 0)
(0.752752 0.0243798 0)
(0.722452 0.00601517 0)
(0.698679 -0.0147337 0)
(0.707355 -0.0478796 0)
(0.263348 -0.0384174 0)
(-0.85859 -0.0392293 0)
(1.22593 -0.104301 0)
(1.22033 -0.102078 0)
(1.21603 -0.0997195 0)
(1.20902 -0.0972889 0)
(1.2021 -0.0948169 0)
(1.19728 -0.0924358 0)
(1.19332 -0.0903116 0)
(1.19036 -0.0879621 0)
(1.19331 -0.0842988 0)
(1.19739 -0.0807616 0)
(1.19653 -0.0780827 0)
(1.19357 -0.0758375 0)
(1.18986 -0.0738978 0)
(1.18563 -0.0721847 0)
(1.17955 -0.0704478 0)
(1.17068 -0.0687639 0)
(1.16433 -0.0667164 0)
(1.15974 -0.0643698 0)
(1.15584 -0.0622398 0)
(1.15461 -0.0592076 0)
(1.1599 -0.0549808 0)
(1.16207 -0.0516174 0)
(1.16005 -0.0491526 0)
(1.15668 -0.0470728 0)
(1.15266 -0.0453965 0)
(1.14784 -0.0439033 0)
(1.13842 -0.0430002 0)
(1.12912 -0.0419507 0)
(1.12343 -0.0398672 0)
(1.11905 -0.0375696 0)
(1.1156 -0.0351562 0)
(1.11805 -0.031187 0)
(1.12354 -0.0269652 0)
(1.12341 -0.0241766 0)
(1.12049 -0.0220792 0)
(1.11665 -0.0203626 0)
(1.11232 -0.0190256 0)
(1.10441 -0.0182332 0)
(1.09201 -0.0184946 0)
(1.08363 -0.0174133 0)
(1.07848 -0.0151944 0)
(1.07424 -0.0129971 0)
(1.07331 -0.00958109 0)
(1.07973 -0.00436194 0)
(1.0825 -0.000652206 0)
(1.0803 0.00134141 0)
(1.07661 0.00287016 0)
(1.07232 0.00404657 0)
(1.06592 0.00495362 0)
(1.05206 0.00409559 0)
(1.03989 0.00353038 0)
(1.03327 0.00448331 0)
(1.02842 0.00597195 0)
(1.02522 0.00837156 0)
(1.03016 0.0144326 0)
(1.03604 0.0208329 0)
(1.03517 0.0237204 0)
(1.03148 0.0249734 0)
(1.02689 0.0256373 0)
(1.021 0.0260673 0)
(1.00679 0.0242827 0)
(0.990674 0.021811 0)
(0.981061 0.021479 0)
(0.975158 0.0226911 0)
(0.970351 0.0241686 0)
(0.971906 0.0292519 0)
(0.98079 0.0386082 0)
(0.982664 0.0437789 0)
(0.978894 0.0448695 0)
(0.973944 0.0446802 0)
(0.967587 0.0443466 0)
(0.951978 0.0410135 0)
(0.931135 0.0348865 0)
(0.91775 0.0321606 0)
(0.909831 0.0320313 0)
(0.903732 0.0327839 0)
(0.901464 0.0361517 0)
(0.909763 0.0464098 0)
(0.914908 0.0555063 0)
(0.911835 0.0592207 0)
(0.90572 0.0600013 0)
(0.897957 0.0598786 0)
(0.880847 0.0545659 0)
(0.854656 0.0407983 0)
(0.83488 0.0316324 0)
(0.822753 0.0279269 0)
(0.814817 0.0270238 0)
(0.810669 0.028631 0)
(0.813149 0.0355025 0)
(0.81306 0.0410998 0)
(0.807826 0.0428211 0)
(0.799658 0.0424019 0)
(0.787932 0.0399591 0)
(0.769637 0.027242 0)
(0.745465 0.00990487 0)
(0.716439 -0.00661775 0)
(0.711407 -0.0541111 0)
(0.258457 -0.0393401 0)
(-0.862451 -0.0382158 0)
(1.22099 -0.101653 0)
(1.21553 -0.0993215 0)
(1.2114 -0.0970573 0)
(1.20456 -0.0947875 0)
(1.19705 -0.0926003 0)
(1.19195 -0.0905646 0)
(1.18787 -0.0886479 0)
(1.18473 -0.0864155 0)
(1.18724 -0.0824383 0)
(1.19173 -0.0784702 0)
(1.19126 -0.075834 0)
(1.18845 -0.0737462 0)
(1.18487 -0.0718518 0)
(1.18078 -0.0701585 0)
(1.17553 -0.0683921 0)
(1.16642 -0.0668245 0)
(1.15904 -0.0651152 0)
(1.15421 -0.0632481 0)
(1.15024 -0.0613929 0)
(1.1485 -0.058428 0)
(1.15347 -0.0536002 0)
(1.15647 -0.0497615 0)
(1.15477 -0.0474402 0)
(1.1515 -0.045612 0)
(1.14761 -0.0439701 0)
(1.14334 -0.0424493 0)
(1.13531 -0.0411397 0)
(1.12459 -0.0402721 0)
(1.11794 -0.0388746 0)
(1.11338 -0.0372729 0)
(1.1097 -0.0353791 0)
(1.11115 -0.031255 0)
(1.11724 -0.025938 0)
(1.11806 -0.022676 0)
(1.11534 -0.0207869 0)
(1.11164 -0.0192458 0)
(1.10748 -0.0179337 0)
(1.10167 -0.0166933 0)
(1.08954 -0.0166087 0)
(1.07893 -0.0161373 0)
(1.07308 -0.014949 0)
(1.06865 -0.0137055 0)
(1.06634 -0.0111402 0)
(1.07198 -0.00509403 0)
(1.07676 0.000356083 0)
(1.07543 0.00291266 0)
(1.07191 0.00432723 0)
(1.06774 0.00542721 0)
(1.06277 0.00642833 0)
(1.05106 0.00598488 0)
(1.0372 0.00462219 0)
(1.02867 0.00491942 0)
(1.02324 0.00601587 0)
(1.01892 0.00736385 0)
(1.02018 0.0119002 0)
(1.02838 0.0201488 0)
(1.03035 0.0247586 0)
(1.02725 0.0262117 0)
(1.0228 0.0269169 0)
(1.01794 0.0274082 0)
(1.00722 0.0262709 0)
(0.989753 0.0224851 0)
(0.977593 0.0211785 0)
(0.970436 0.0217077 0)
(0.965209 0.0227687 0)
(0.962222 0.0253126 0)
(0.969547 0.0336925 0)
(0.976568 0.0422973 0)
(0.975188 0.045686 0)
(0.970673 0.0466113 0)
(0.965528 0.0468823 0)
(0.955131 0.0451329 0)
(0.934222 0.0374584 0)
(0.916851 0.0313796 0)
(0.906728 0.0295489 0)
(0.899659 0.0295471 0)
(0.89389 0.030604 0)
(0.895534 0.0371106 0)
(0.904504 0.0496665 0)
(0.906343 0.057206 0)
(0.901947 0.0600936 0)
(0.895555 0.0605926 0)
(0.886414 0.0591516 0)
(0.86577 0.0496376 0)
(0.840351 0.0347941 0)
(0.823498 0.0264822 0)
(0.813252 0.0228477 0)
(0.806091 0.0217941 0)
(0.804339 0.0246399 0)
(0.806282 0.0313928 0)
(0.804071 0.0350737 0)
(0.798506 0.035013 0)
(0.79106 0.0330975 0)
(0.779961 0.0253272 0)
(0.763941 0.0118478 0)
(0.740328 -0.00462449 0)
(0.721904 -0.0479907 0)
(0.250549 -0.041623 0)
(-0.865392 -0.036005 0)
(1.21729 -0.098718 0)
(1.21201 -0.0963611 0)
(1.20808 -0.094268 0)
(1.20187 -0.0922654 0)
(1.19366 -0.0902525 0)
(1.18807 -0.088222 0)
(1.18386 -0.0862846 0)
(1.18036 -0.0843735 0)
(1.18173 -0.0805706 0)
(1.18703 -0.075925 0)
(1.18731 -0.0730202 0)
(1.18471 -0.0710097 0)
(1.18128 -0.0692212 0)
(1.17734 -0.0676011 0)
(1.17279 -0.0659833 0)
(1.16416 -0.0645026 0)
(1.15564 -0.0630505 0)
(1.15031 -0.0612466 0)
(1.14618 -0.0595707 0)
(1.14331 -0.0573547 0)
(1.14733 -0.0524526 0)
(1.15184 -0.0476436 0)
(1.15088 -0.0449544 0)
(1.14782 -0.0430631 0)
(1.14412 -0.0414635 0)
(1.14002 -0.0400745 0)
(1.13341 -0.0388265 0)
(1.12239 -0.0383191 0)
(1.11438 -0.0372575 0)
(1.10938 -0.0356901 0)
(1.10533 -0.0343541 0)
(1.10446 -0.0313501 0)
(1.11095 -0.0252113 0)
(1.1137 -0.0208184 0)
(1.11156 -0.0186273 0)
(1.10807 -0.0170577 0)
(1.10406 -0.0157795 0)
(1.09923 -0.01462 0)
(1.08821 -0.014438 0)
(1.0765 -0.0148326 0)
(1.06947 -0.0139539 0)
(1.06465 -0.0126691 0)
(1.06081 -0.0112984 0)
(1.06352 -0.0065311 0)
(1.07083 0.000732948 0)
(1.07155 0.00448387 0)
(1.06845 0.00604319 0)
(1.06446 0.00709237 0)
(1.06009 0.00794742 0)
(1.05114 0.00788343 0)
(1.0362 0.00556123 0)
(1.02583 0.00496412 0)
(1.01936 0.00601824 0)
(1.01452 0.00711998 0)
(1.01191 0.00948135 0)
(1.01904 0.0171303 0)
(1.02539 0.0245377 0)
(1.02404 0.0273447 0)
(1.01991 0.0281319 0)
(1.01536 0.0286197 0)
(1.00801 0.0286928 0)
(0.991312 0.0249276 0)
(0.97617 0.0213495 0)
(0.967659 0.0208517 0)
(0.961686 0.0214303 0)
(0.956624 0.0223687 0)
(0.957542 0.0272145 0)
(0.967504 0.0384679 0)
(0.970816 0.0456039 0)
(0.967658 0.0479589 0)
(0.962698 0.0483745 0)
(0.956401 0.0482883 0)
(0.941587 0.0426505 0)
(0.920188 0.0320827 0)
(0.905645 0.0272574 0)
(0.896729 0.0267389 0)
(0.89033 0.0271703 0)
(0.886007 0.0288864 0)
(0.891521 0.0379295 0)
(0.899109 0.0500064 0)
(0.898795 0.0555706 0)
(0.893714 0.0575747 0)
(0.886807 0.0581236 0)
(0.874953 0.0562047 0)
(0.852434 0.0442158 0)
(0.829544 0.0286335 0)
(0.814297 0.0205454 0)
(0.805074 0.0174725 0)
(0.79882 0.0167066 0)
(0.799103 0.0204504 0)
(0.800717 0.0254343 0)
(0.798009 0.0266223 0)
(0.79288 0.0249736 0)
(0.786248 0.0205958 0)
(0.775972 0.0111615 0)
(0.760923 -0.0019124 0)
(0.737392 -0.0363032 0)
(0.24417 -0.0460593 0)
(-0.868224 -0.0338593 0)
(1.21438 -0.0959434 0)
(1.20924 -0.0935563 0)
(1.2054 -0.0915966 0)
(1.19965 -0.0897158 0)
(1.19117 -0.0879242 0)
(1.18515 -0.0861664 0)
(1.18074 -0.0843177 0)
(1.17697 -0.0826377 0)
(1.17653 -0.0793201 0)
(1.18237 -0.0741872 0)
(1.184 -0.0707062 0)
(1.18179 -0.0685811 0)
(1.17849 -0.0668 0)
(1.17465 -0.0652012 0)
(1.17037 -0.0636514 0)
(1.16243 -0.062245 0)
(1.1532 -0.0611827 0)
(1.14737 -0.0597334 0)
(1.14298 -0.0581076 0)
(1.13931 -0.0563635 0)
(1.14102 -0.0521046 0)
(1.14712 -0.0462967 0)
(1.14756 -0.0429659 0)
(1.14486 -0.0410154 0)
(1.14133 -0.0394147 0)
(1.13733 -0.0380623 0)
(1.1319 -0.0368036 0)
(1.12104 -0.0365294 0)
(1.11193 -0.0360684 0)
(1.10638 -0.0348549 0)
(1.10204 -0.0335314 0)
(1.09897 -0.0315509 0)
(1.10374 -0.0258358 0)
(1.10928 -0.0196604 0)
(1.10847 -0.0167838 0)
(1.10523 -0.0152493 0)
(1.10135 -0.0140173 0)
(1.09704 -0.0129018 0)
(1.08791 -0.0126065 0)
(1.07506 -0.0137238 0)
(1.06689 -0.0135508 0)
(1.06148 -0.0123596 0)
(1.05709 -0.0111526 0)
(1.05564 -0.00828492 0)
(1.06329 -0.000736955 0)
(1.06756 0.0052183 0)
(1.06565 0.00760002 0)
(1.0619 0.00874644 0)
(1.05769 0.00953892 0)
(1.05136 0.00986586 0)
(1.03693 0.00741524 0)
(1.02401 0.00535932 0)
(1.01666 0.00578279 0)
(1.01131 0.00705528 0)
(1.00689 0.00824898 0)
(1.00873 0.0129217 0)
(1.01825 0.0224917 0)
(1.02056 0.0280057 0)
(1.01748 0.029943 0)
(1.01328 0.030706 0)
(1.00823 0.0311556 0)
(0.995598 0.0283005 0)
(0.977612 0.0218671 0)
(0.966132 0.0191226 0)
(0.958832 0.0195157 0)
(0.953017 0.0206159 0)
(0.94891 0.0225501 0)
(0.954704 0.031278 0)
(0.963883 0.0431425 0)
(0.964387 0.0483515 0)
(0.960512 0.0499002 0)
(0.955358 0.0499604 0)
(0.947165 0.0489827 0)
(0.927581 0.0404127 0)
(0.907378 0.0300677 0)
(0.895752 0.0260972 0)
(0.888359 0.0249313 0)
(0.882165 0.024684 0)
(0.879442 0.0274553 0)
(0.886738 0.0390936 0)
(0.891889 0.0506575 0)
(0.889612 0.055777 0)
(0.883828 0.0574788 0)
(0.876691 0.0570156 0)
(0.864083 0.0525936 0)
(0.841521 0.0382943 0)
(0.819983 0.0229585 0)
(0.80597 0.0150723 0)
(0.797658 0.0118591 0)
(0.792622 0.0115485 0)
(0.794509 0.0160605 0)
(0.795824 0.0202391 0)
(0.793497 0.0199051 0)
(0.789884 0.0153516 0)
(0.784177 0.00815206 0)
(0.775826 -0.000841016 0)
(0.754577 -0.0252583 0)
(0.240744 -0.0479754 0)
(-0.870766 -0.030926 0)
(1.21142 -0.0932732 0)
(1.20646 -0.090818 0)
(1.20275 -0.0889856 0)
(1.19758 -0.0872336 0)
(1.18897 -0.0856009 0)
(1.1822 -0.0840166 0)
(1.17762 -0.0823123 0)
(1.17378 -0.0808164 0)
(1.17179 -0.0782627 0)
(1.17709 -0.0729924 0)
(1.18048 -0.0685763 0)
(1.17877 -0.0662127 0)
(1.17558 -0.064421 0)
(1.17186 -0.0628307 0)
(1.16775 -0.0613761 0)
(1.16102 -0.060067 0)
(1.15112 -0.0593193 0)
(1.14444 -0.0581021 0)
(1.13982 -0.0565258 0)
(1.13596 -0.0550822 0)
(1.13496 -0.0519632 0)
(1.14148 -0.0456412 0)
(1.14413 -0.0410959 0)
(1.14194 -0.0389276 0)
(1.13851 -0.0373683 0)
(1.13458 -0.0360454 0)
(1.13006 -0.0348358 0)
(1.12043 -0.0345823 0)
(1.10984 -0.0348014 0)
(1.1035 -0.0338394 0)
(1.09887 -0.0323958 0)
(1.09501 -0.0310279 0)
(1.09599 -0.0269858 0)
(1.10361 -0.0197138 0)
(1.10516 -0.015373 0)
(1.1024 -0.0134647 0)
(1.09868 -0.0121958 0)
(1.09456 -0.0111424 0)
(1.08797 -0.0105758 0)
(1.07497 -0.0121479 0)
(1.0647 -0.0128969 0)
(1.05863 -0.0119915 0)
(1.05397 -0.0107195 0)
(1.05029 -0.00910632 0)
(1.05425 -0.00340272 0)
(1.06223 0.00476361 0)
(1.06265 0.0087159 0)
(1.05929 0.0102215 0)
(1.05518 0.0111321 0)
(1.05042 0.0119064 0)
(1.03921 0.0104896 0)
(1.02384 0.00677522 0)
(1.01459 0.00571318 0)
(1.00866 0.00638616 0)
(1.00368 0.00756335 0)
(1.00058 0.00980772 0)
(1.00777 0.0183716 0)
(1.01532 0.0277417 0)
(1.01463 0.0314061 0)
(1.01064 0.0323523 0)
(1.00619 0.0327926 0)
(0.999376 0.0320424 0)
(0.982709 0.0254089 0)
(0.966312 0.0191348 0)
(0.956704 0.0179684 0)
(0.950277 0.0187874 0)
(0.945005 0.0195987 0)
(0.943178 0.022804 0)
(0.952847 0.0346812 0)
(0.959652 0.0453434 0)
(0.95802 0.0489189 0)
(0.953178 0.0502172 0)
(0.947464 0.0513138 0)
(0.936886 0.0492561 0)
(0.916025 0.0369856 0)
(0.898184 0.0258437 0)
(0.887366 0.022336 0)
(0.880082 0.022039 0)
(0.874315 0.0223268 0)
(0.873627 0.0265234 0)
(0.881379 0.0389329 0)
(0.884762 0.0485601 0)
(0.881889 0.0521012 0)
(0.875994 0.0531426 0)
(0.868174 0.0525847 0)
(0.854213 0.0474601 0)
(0.831887 0.0321146 0)
(0.811739 0.0166394 0)
(0.798538 0.00872017 0)
(0.791153 0.0054349 0)
(0.787925 0.00538701 0)
(0.791693 0.0106452 0)
(0.793692 0.0138463 0)
(0.792569 0.011417 0)
(0.789978 0.00489078 0)
(0.786007 -0.00160643 0)
(0.770578 -0.016417 0)
(0.241195 -0.0480306 0)
(-0.873482 -0.028134 0)
(1.20857 -0.0906349 0)
(1.20382 -0.0881163 0)
(1.2002 -0.0863657 0)
(1.19548 -0.0847144 0)
(1.18708 -0.083261 0)
(1.1795 -0.0819437 0)
(1.1746 -0.0803677 0)
(1.17062 -0.0788868 0)
(1.16753 -0.0770527 0)
(1.17092 -0.0723532 0)
(1.17639 -0.0669112 0)
(1.17587 -0.0639294 0)
(1.17293 -0.0620938 0)
(1.16935 -0.0605502 0)
(1.16532 -0.0591717 0)
(1.1598 -0.057897 0)
(1.14975 -0.057408 0)
(1.14181 -0.0565165 0)
(1.13678 -0.0549843 0)
(1.13273 -0.0534743 0)
(1.12989 -0.051421 0)
(1.13458 -0.0458691 0)
(1.14005 -0.0399492 0)
(1.13914 -0.0370436 0)
(1.13596 -0.0354121 0)
(1.13219 -0.0340911 0)
(1.12806 -0.0329221 0)
(1.12042 -0.0324251 0)
(1.10871 -0.0332422 0)
(1.10091 -0.0327893 0)
(1.09582 -0.031408 0)
(1.0917 -0.0300803 0)
(1.08949 -0.0276508 0)
(1.09605 -0.0207555 0)
(1.10114 -0.0144562 0)
(1.09971 -0.0117531 0)
(1.09625 -0.0103769 0)
(1.0923 -0.00932847 0)
(1.0875 -0.00850185 0)
(1.07618 -0.00975006 0)
(1.06356 -0.0117767 0)
(1.05623 -0.0115803 0)
(1.05109 -0.0103845 0)
(1.04684 -0.00925432 0)
(1.04574 -0.00614915 0)
(1.0543 0.00264948 0)
(1.05889 0.00934556 0)
(1.05698 0.0119119 0)
(1.05317 0.0130114 0)
(1.049 0.0137383 0)
(1.04189 0.0134166 0)
(1.02646 0.00894298 0)
(1.0136 0.00557814 0)
(1.00617 0.00565811 0)
(1.00061 0.00695092 0)
(0.996058 0.00817406 0)
(0.996562 0.0126415 0)
(1.00678 0.0240162 0)
(1.01097 0.0313205 0)
(1.00883 0.0338459 0)
(1.00468 0.034573 0)
(0.999846 0.0351668 0)
(0.988832 0.0330437 0)
(0.969547 0.0243132 0)
(0.956158 0.0187207 0)
(0.948499 0.017548 0)
(0.942414 0.0177411 0)
(0.937308 0.018616 0)
(0.938144 0.0244884 0)
(0.949021 0.0394884 0)
(0.953027 0.0493594 0)
(0.950438 0.0522605 0)
(0.945837 0.0521785 0)
(0.940137 0.05179 0)
(0.927605 0.0473849 0)
(0.905316 0.0340753 0)
(0.888682 0.0244231 0)
(0.879007 0.0211247 0)
(0.872457 0.0200432 0)
(0.866914 0.0202586 0)
(0.867831 0.0259263 0)
(0.875099 0.038654 0)
(0.876888 0.047088 0)
(0.87324 0.0500813 0)
(0.867144 0.0506203 0)
(0.85944 0.0486459 0)
(0.845669 0.0415558 0)
(0.823824 0.0252697 0)
(0.804641 0.00996978 0)
(0.792419 0.00152937 0)
(0.786053 -0.00214039 0)
(0.78472 -0.00121814 0)
(0.790282 0.00523252 0)
(0.793529 0.00749315 0)
(0.794023 0.00237572 0)
(0.793055 -0.00374761 0)
(0.783173 -0.0112479 0)
(0.245807 -0.0455076 0)
(-0.876171 -0.0249877 0)
(1.20546 -0.0881156 0)
(1.20108 -0.0853754 0)
(1.19761 -0.083717 0)
(1.19336 -0.0822113 0)
(1.18571 -0.0809514 0)
(1.17721 -0.0799877 0)
(1.17182 -0.0785528 0)
(1.16761 -0.0769738 0)
(1.164 -0.0754587 0)
(1.16454 -0.0718242 0)
(1.17132 -0.0656706 0)
(1.17273 -0.0618694 0)
(1.17015 -0.0598983 0)
(1.16671 -0.0583257 0)
(1.16284 -0.0569452 0)
(1.15836 -0.0556537 0)
(1.14912 -0.0551628 0)
(1.13968 -0.0548087 0)
(1.13403 -0.0535267 0)
(1.12971 -0.0519792 0)
(1.12608 -0.0504977 0)
(1.12731 -0.0464155 0)
(1.1347 -0.0394813 0)
(1.13609 -0.0354038 0)
(1.13333 -0.0335221 0)
(1.12973 -0.0321372 0)
(1.12575 -0.0309769 0)
(1.12025 -0.030126 0)
(1.10869 -0.0310585 0)
(1.0989 -0.03152 0)
(1.09317 -0.0305277 0)
(1.08872 -0.0291361 0)
(1.08505 -0.0276892 0)
(1.08746 -0.022817 0)
(1.09552 -0.0146659 0)
(1.09671 -0.010355 0)
(1.09375 -0.00863076 0)
(1.08997 -0.00749333 0)
(1.08586 -0.00656038 0)
(1.07807 -0.00681487 0)
(1.06417 -0.00991538 0)
(1.05442 -0.0111563 0)
(1.04852 -0.0102966 0)
(1.0438 -0.0088803 0)
(1.04006 -0.00730165 0)
(1.04403 -0.00119996 0)
(1.053 0.00855062 0)
(1.05404 0.0131225 0)
(1.05073 0.0145898 0)
(1.0466 0.0154287 0)
(1.04205 0.015974 0)
(1.03101 0.0133652 0)
(1.01466 0.00762893 0)
(1.0044 0.00576482 0)
(0.998257 0.0063229 0)
(0.993245 0.00734197 0)
(0.989359 0.00884218 0)
(0.994602 0.0163753 0)
(1.00453 0.0285559 0)
(1.00574 0.0339707 0)
(1.0023 0.035795 0)
(0.997793 0.0367899 0)
(0.992407 0.0371512 0)
(0.978843 0.0312534 0)
(0.960079 0.0203037 0)
(0.947981 0.0156493 0)
(0.940102 0.0158062 0)
(0.934448 0.0167061 0)
(0.930031 0.0178238 0)
(0.934421 0.0253505 0)
(0.945633 0.0403334 0)
(0.948109 0.0478014 0)
(0.94431 0.0500596 0)
(0.938849 0.0514194 0)
(0.931888 0.0522185 0)
(0.917483 0.0463267 0)
(0.896219 0.0310917 0)
(0.881015 0.0210186 0)
(0.871347 0.0180732 0)
(0.864894 0.0175074 0)
(0.86001 0.0181187 0)
(0.862762 0.0249032 0)
(0.869421 0.036632 0)
(0.870129 0.0431362 0)
(0.866282 0.0451282 0)
(0.860244 0.0454998 0)
(0.852271 0.0431967 0)
(0.838523 0.0352813 0)
(0.817344 0.017939 0)
(0.798993 0.00230951 0)
(0.787748 -0.00672171 0)
(0.782453 -0.0103416 0)
(0.783302 -0.00847108 0)
(0.790978 -0.00134273 0)
(0.796019 -0.00116868 0)
(0.798514 -0.00681451 0)
(0.791913 -0.0098637 0)
(0.253367 -0.0381089 0)