/*--------------------------------*- C++ -*----------------------------------*\
  =========                 |
  \\      /  F ield         | OpenFOAM: The Open Source CFD Toolbox
   \\    /   O peration     | Website:  https://openfoam.org
    \\  /    A nd           | Version:  12
     \\/     M anipulation  |
\*---------------------------------------------------------------------------*/
FoamFile
{
    format      ascii;
    class       volScalarField;
    location    "25.6";
    object      T;
}
// * * * * * * * * * * * * * * * * * * * * * * * * * * * * * * * * * * * * * //

dimensions      [0 0 0 1 0 0 0];

internalField   nonuniform List<scalar> 
9801
(
0.803029
0.803875
0.800705
0.794975
0.792929
0.793308
0.793969
0.796306
0.807409
0.817982
0.820365
0.820847
0.819908
0.815098
0.809993
0.809386
0.810145
0.811687
0.814367
0.820569
0.829274
0.83321
0.833988
0.833782
0.830436
0.827168
0.827451
0.828809
0.830956
0.833253
0.835284
0.837675
0.840902
0.844111
0.846439
0.847858
0.848682
0.849211
0.849838
0.850544
0.850011
0.849525
0.849871
0.850645
0.851748
0.856161
0.864256
0.868866
0.870781
0.871824
0.872251
0.86895
0.865035
0.864471
0.865176
0.866233
0.867969
0.873449
0.882674
0.888078
0.890339
0.891786
0.89269
0.889672
0.883992
0.882484
0.883352
0.884951
0.887362
0.894653
0.905311
0.911346
0.913886
0.915251
0.915736
0.912244
0.905715
0.903102
0.904235
0.906505
0.912384
0.925932
0.935998
0.940815
0.943313
0.945124
0.945356
0.938008
0.929768
0.928422
0.931837
0.939596
0.960107
0.981303
0.997756
1.00987
1.00473
1.09046
1.52259
0.800136
0.803361
0.803184
0.801917
0.800648
0.800665
0.801745
0.80516
0.808513
0.814057
0.818609
0.821005
0.821363
0.818715
0.816591
0.816083
0.816265
0.817026
0.818286
0.821703
0.828588
0.833903
0.836233
0.83724
0.83679
0.833749
0.831772
0.832196
0.833412
0.834931
0.83634
0.837825
0.841109
0.847121
0.850739
0.852141
0.853079
0.853926
0.854222
0.852115
0.850883
0.851217
0.852082
0.853245
0.854627
0.859336
0.866975
0.871251
0.873306
0.874599
0.875333
0.872267
0.867806
0.867093
0.867961
0.869233
0.871023
0.876209
0.88537
0.890857
0.893558
0.894961
0.895919
0.893169
0.8875
0.88571
0.886824
0.888444
0.890885
0.898223
0.90844
0.913995
0.916595
0.91824
0.919878
0.917374
0.910071
0.907486
0.908827
0.911546
0.915979
0.927312
0.938203
0.944387
0.948234
0.951216
0.952982
0.945557
0.937026
0.936354
0.940781
0.947072
0.960919
0.978729
0.994507
1.0069
1.00246
1.09211
1.54534
0.803617
0.802653
0.803301
0.804523
0.805512
0.807126
0.811536
0.816603
0.818807
0.81929
0.820861
0.822243
0.821832
0.821278
0.821679
0.822686
0.824001
0.825442
0.826723
0.828381
0.832171
0.83606
0.838359
0.839811
0.841251
0.8419
0.840961
0.84059
0.840977
0.841102
0.841148
0.841681
0.843715
0.850235
0.855643
0.858224
0.859836
0.861223
0.861791
0.858683
0.855952
0.856048
0.857084
0.8585
0.860313
0.865791
0.873392
0.877416
0.879416
0.880797
0.881587
0.878797
0.874781
0.874308
0.875514
0.877177
0.879108
0.883892
0.892385
0.897744
0.90032
0.901901
0.903288
0.901829
0.896852
0.894877
0.895805
0.897704
0.900031
0.90571
0.915501
0.922107
0.925712
0.928268
0.930477
0.929786
0.923049
0.919477
0.920483
0.923293
0.926893
0.936243
0.950477
0.959041
0.963607
0.96717
0.969537
0.964669
0.956873
0.954675
0.958681
0.965712
0.976256
0.994606
1.01232
1.02762
1.02865
1.12259
1.57819
0.808134
0.805584
0.806488
0.809685
0.813941
0.8181
0.82334
0.827258
0.828629
0.827082
0.824502
0.824667
0.826586
0.829033
0.831256
0.832973
0.834546
0.835801
0.83588
0.83543
0.835924
0.839384
0.844901
0.848816
0.851262
0.853151
0.853602
0.852697
0.85074
0.84844
0.847908
0.848574
0.85032
0.857363
0.865401
0.869059
0.870882
0.872427
0.872361
0.867499
0.864188
0.864491
0.865984
0.868157
0.871379
0.877806
0.884758
0.888446
0.8904
0.891827
0.892757
0.890503
0.887072
0.886726
0.888001
0.889763
0.891758
0.895669
0.903826
0.90989
0.913017
0.915029
0.916906
0.917149
0.912588
0.909667
0.910164
0.912049
0.914469
0.918517
0.928399
0.937091
0.94163
0.9447
0.947385
0.948714
0.943625
0.937858
0.937654
0.940737
0.944733
0.951347
0.965398
0.977161
0.983604
0.988171
0.992042
0.99113
0.984688
0.98077
0.981566
0.98792
0.996264
1.00985
1.02716
1.04214
1.04732
1.16475
1.61596
0.817016
0.816219
0.816823
0.81876
0.823396
0.830113
0.83462
0.836252
0.835767
0.834079
0.83431
0.83545
0.837472
0.840327
0.843044
0.845337
0.84679
0.844976
0.842578
0.842373
0.843487
0.848183
0.856688
0.861891
0.864384
0.866208
0.867673
0.864991
0.859251
0.857541
0.85828
0.859765
0.862464
0.869928
0.878323
0.88214
0.884014
0.88522
0.883898
0.879031
0.876804
0.877653
0.879329
0.88142
0.884878
0.891346
0.897759
0.901296
0.903303
0.90483
0.9061
0.904995
0.901779
0.901317
0.902683
0.904588
0.906685
0.909725
0.917234
0.924193
0.927873
0.930263
0.932413
0.933762
0.930479
0.926228
0.925918
0.927756
0.930387
0.933714
0.942251
0.952962
0.95889
0.962422
0.965457
0.967982
0.965277
0.95768
0.954725
0.957416
0.96176
0.967107
0.978375
0.993421
1.00298
1.00844
1.01294
1.01504
1.01063
1.00496
1.0022
1.00419
1.01106
1.02046
1.03495
1.04833
1.05371
1.19112
1.64366
0.829238
0.82971
0.831225
0.83374
0.836017
0.838683
0.841241
0.842472
0.842878
0.844105
0.847393
0.85026
0.852061
0.853738
0.855846
0.857283
0.854917
0.851953
0.851766
0.852891
0.855092
0.862114
0.87064
0.87517
0.877463
0.879145
0.879169
0.873825
0.869331
0.869261
0.870575
0.872384
0.876036
0.883967
0.891464
0.894988
0.896805
0.897433
0.896053
0.892569
0.890759
0.891715
0.893549
0.895396
0.897709
0.902992
0.90984
0.913925
0.91617
0.918035
0.919847
0.920478
0.917434
0.915344
0.916094
0.917801
0.919731
0.922083
0.928458
0.936956
0.941804
0.94467
0.947115
0.949233
0.948353
0.942622
0.939608
0.94079
0.943469
0.946707
0.95331
0.965128
0.9732
0.977104
0.980003
0.982727
0.982728
0.975859
0.97032
0.969993
0.973637
0.97835
0.985811
0.999666
1.01194
1.01957
1.02519
1.02962
1.02912
1.02337
1.01839
1.01669
1.01836
1.02395
1.03429
1.0476
1.05414
1.20667
1.6599
0.842823
0.844554
0.846111
0.84779
0.846633
0.844983
0.845518
0.848201
0.852302
0.857129
0.861523
0.864262
0.865992
0.867715
0.868252
0.864338
0.86067
0.860432
0.861618
0.863214
0.867294
0.876915
0.883823
0.887078
0.889086
0.889435
0.886229
0.882168
0.880986
0.88168
0.882991
0.884842
0.888667
0.896056
0.902186
0.90515
0.906532
0.90702
0.907385
0.906282
0.904279
0.904092
0.905478
0.907106
0.908714
0.91133
0.918014
0.923938
0.927157
0.929523
0.931617
0.933374
0.93217
0.92809
0.926327
0.926874
0.928626
0.930877
0.936054
0.946065
0.953035
0.956496
0.95889
0.960978
0.961776
0.956506
0.950931
0.950005
0.952366
0.955388
0.96013
0.970863
0.981629
0.987329
0.990454
0.99307
0.994685
0.990791
0.983585
0.98013
0.980847
0.984653
0.989577
0.999025
1.01292
1.02391
1.03079
1.0357
1.03905
1.03694
1.03204
1.02752
1.02532
1.02625
1.03119
1.04339
1.05262
1.21609
1.6687
0.854845
0.857475
0.858096
0.855186
0.851103
0.850343
0.851307
0.854094
0.861833
0.869703
0.873714
0.875896
0.877756
0.878617
0.874248
0.869097
0.868537
0.869654
0.871174
0.873658
0.880354
0.888806
0.89361
0.895648
0.896026
0.894111
0.891628
0.889905
0.889893
0.890987
0.892759
0.895574
0.898933
0.903898
0.908366
0.911061
0.912989
0.915102
0.91696
0.918078
0.916402
0.914827
0.914786
0.915251
0.915963
0.917378
0.921996
0.930627
0.936272
0.939278
0.94134
0.943214
0.943928
0.939164
0.934098
0.932962
0.934466
0.936831
0.941263
0.951366
0.960634
0.964958
0.967271
0.969099
0.970093
0.966931
0.960151
0.957535
0.958608
0.961338
0.964794
0.971978
0.984186
0.992775
0.99715
1.00003
1.00242
1.00223
0.995454
0.98941
0.987788
0.98902
0.992547
0.997339
1.00777
1.02091
1.03041
1.03679
1.0416
1.04426
1.04313
1.03889
1.03334
1.02921
1.02912
1.03585
1.04759
1.22319
1.67427
0.863943
0.866669
0.863081
0.857129
0.855803
0.856616
0.857974
0.861547
0.871831
0.879814
0.882927
0.88481
0.885621
0.882417
0.87643
0.874422
0.875081
0.876379
0.878699
0.884443
0.891528
0.896717
0.898857
0.899329
0.898267
0.897863
0.897966
0.897512
0.898003
0.899699
0.902251
0.903616
0.90464
0.906385
0.910629
0.914505
0.918084
0.921596
0.924118
0.926192
0.926908
0.923994
0.921115
0.919823
0.920287
0.921762
0.924964
0.934306
0.942693
0.946504
0.948635
0.950367
0.951332
0.947667
0.940578
0.938581
0.939538
0.941544
0.944889
0.953214
0.96383
0.96925
0.9719
0.973568
0.974731
0.974567
0.969421
0.964516
0.963783
0.965682
0.968301
0.971657
0.980902
0.99335
1.00058
1.00439
1.00715
1.00961
1.00775
1.00024
0.995068
0.993599
0.994498
0.997584
1.00296
1.01398
1.02653
1.03569
1.04186
1.0466
1.0482
1.04725
1.04333
1.03579
1.02957
1.0306
1.03773
1.22745
1.67804
0.871004
0.869839
0.862182
0.859436
0.859833
0.860901
0.862639
0.8688
0.879902
0.886441
0.888752
0.889527
0.887383
0.883001
0.880263
0.879824
0.881013
0.88351
0.887625
0.891657
0.896144
0.898924
0.899869
0.899844
0.9009
0.903005
0.904588
0.906043
0.90687
0.908149
0.908161
0.906681
0.905828
0.90677
0.910815
0.918093
0.923997
0.928203
0.930998
0.932917
0.934259
0.931325
0.92445
0.92213
0.922958
0.924791
0.927957
0.936615
0.946537
0.951208
0.953397
0.954684
0.955087
0.952897
0.947107
0.943936
0.944398
0.946215
0.948396
0.952775
0.962489
0.970282
0.973881
0.97609
0.978348
0.980387
0.978993
0.972654
0.969128
0.968456
0.969508
0.972025
0.976339
0.988172
1.00071
1.00718
1.01104
1.01423
1.01652
1.01277
1.00387
0.998543
0.997506
0.999105
1.00254
1.00831
1.01933
1.03088
1.03913
1.04485
1.04935
1.05053
1.0497
1.04529
1.03591
1.02864
1.02654
1.22787
1.68051
0.873734
0.868731
0.864218
0.863395
0.864026
0.865612
0.86917
0.875337
0.883581
0.88857
0.88974
0.888597
0.887078
0.886422
0.885608
0.886694
0.889078
0.892091
0.893736
0.893837
0.893877
0.896174
0.899622
0.902519
0.906071
0.909727
0.912639
0.914503
0.91482
0.912966
0.909251
0.906511
0.906618
0.908014
0.911367
0.921231
0.930406
0.934575
0.936536
0.938142
0.938982
0.934841
0.927376
0.92515
0.925955
0.927463
0.930502
0.938087
0.94788
0.952986
0.955176
0.956308
0.957145
0.957546
0.95452
0.950313
0.949259
0.949618
0.950676
0.952536
0.957518
0.96814
0.975636
0.979818
0.982626
0.984745
0.986116
0.981776
0.974319
0.970806
0.97046
0.972095
0.975016
0.981109
0.995301
1.00774
1.01382
1.01693
1.01943
1.0203
1.01559
1.00812
1.00358
1.00251
1.00367
1.007
1.01321
1.02437
1.03473
1.04166
1.04675
1.05104
1.05184
1.05085
1.04494
1.03348
1.02144
1.22407
1.68239
0.87315
0.870422
0.868231
0.868621
0.87053
0.874104
0.876416
0.877813
0.881109
0.88543
0.887757
0.889132
0.890906
0.892765
0.894459
0.89497
0.895842
0.89637
0.894229
0.89094
0.890693
0.892867
0.899515
0.90746
0.913953
0.917678
0.919535
0.920876
0.920826
0.914684
0.907758
0.906489
0.907471
0.909178
0.912763
0.923968
0.934755
0.938597
0.940451
0.941313
0.939856
0.935706
0.931037
0.928815
0.929422
0.931063
0.93323
0.937524
0.946023
0.952696
0.955691
0.95764
0.959408
0.961193
0.961439
0.956975
0.952734
0.951102
0.951196
0.952818
0.955433
0.963561
0.976155
0.983294
0.986581
0.988838
0.99067
0.990346
0.982865
0.975578
0.973472
0.974229
0.976405
0.979345
0.985797
1.00034
1.01181
1.01697
1.01998
1.02298
1.02461
1.02055
1.01322
1.00817
1.00659
1.00768
1.01103
1.01774
1.02892
1.03806
1.04387
1.04866
1.05222
1.05272
1.05067
1.04067
1.02509
1.21795
1.68438
0.873959
0.874706
0.875291
0.876717
0.87896
0.880301
0.879235
0.876761
0.876763
0.880083
0.886731
0.89306
0.898235
0.901312
0.902863
0.902958
0.900883
0.896114
0.890468
0.889083
0.889933
0.891787
0.898842
0.912673
0.920916
0.923866
0.925521
0.926131
0.923207
0.91441
0.909194
0.908795
0.909776
0.911445
0.916639
0.927643
0.936391
0.94017
0.941438
0.940314
0.939442
0.938692
0.936042
0.933984
0.934113
0.935027
0.935873
0.937187
0.941185
0.950482
0.957043
0.960389
0.962622
0.964445
0.966086
0.964351
0.957632
0.953357
0.952603
0.953906
0.956046
0.959991
0.971724
0.983621
0.988708
0.991096
0.992763
0.994792
0.993683
0.98542
0.979406
0.977794
0.977875
0.979433
0.98247
0.989665
1.00432
1.0161
1.02201
1.02527
1.0279
1.02848
1.02517
1.01828
1.01245
1.01021
1.01104
1.01427
1.02172
1.03297
1.04108
1.04619
1.05069
1.05286
1.05294
1.04656
1.03288
1.21269
1.68626
0.876888
0.880917
0.883457
0.884965
0.885374
0.881965
0.876173
0.874618
0.875296
0.877638
0.886231
0.898545
0.904841
0.907088
0.90867
0.909227
0.904527
0.893552
0.889143
0.889441
0.890605
0.892642
0.900135
0.915666
0.923721
0.92648
0.928037
0.92711
0.921818
0.9162
0.912486
0.912282
0.913809
0.917385
0.922123
0.928013
0.93415
0.937226
0.938207
0.938956
0.940865
0.942577
0.94298
0.94023
0.937868
0.936924
0.936536
0.936856
0.93859
0.945501
0.956902
0.963127
0.966094
0.968139
0.969889
0.970564
0.965367
0.95819
0.955588
0.95587
0.957559
0.959748
0.965149
0.978591
0.988769
0.993045
0.996098
0.998386
1.00006
0.996839
0.987117
0.981205
0.980043
0.981004
0.983139
0.986351
0.993353
1.00774
1.01941
1.02519
1.02856
1.03127
1.03194
1.02915
1.02202
1.01537
1.01276
1.01373
1.01708
1.02517
1.03602
1.04323
1.04799
1.05172
1.05282
1.04989
1.04074
1.21021
1.68783
0.882711
0.887773
0.889576
0.890316
0.886134
0.877961
0.874863
0.87529
0.876523
0.879559
0.890729
0.903446
0.908327
0.910524
0.911575
0.909753
0.901771
0.894466
0.891704
0.891892
0.893165
0.897452
0.907024
0.917258
0.923878
0.926386
0.925898
0.923501
0.922169
0.920174
0.918767
0.919262
0.92123
0.923428
0.924354
0.924901
0.927748
0.933917
0.938652
0.941872
0.944517
0.947146
0.94898
0.948312
0.942859
0.938323
0.936394
0.936771
0.938436
0.942191
0.953775
0.964767
0.969522
0.972135
0.973692
0.974809
0.973322
0.965684
0.959681
0.958241
0.958717
0.960517
0.963207
0.970306
0.985067
0.995085
0.998865
1.00059
1.0018
1.00294
0.999135
0.990251
0.985406
0.984503
0.985012
0.986815
0.989983
0.996797
1.01081
1.0222
1.02804
1.03138
1.03384
1.03402
1.03146
1.02445
1.01778
1.01521
1.0161
1.01943
1.02737
1.03736
1.04396
1.04853
1.05155
1.0513
1.04673
1.21157
1.68948
0.888548
0.892075
0.893055
0.890066
0.880921
0.876767
0.876746
0.877494
0.878971
0.884752
0.897419
0.906107
0.910113
0.911946
0.910393
0.904851
0.900556
0.897568
0.896502
0.897611
0.901362
0.906743
0.911152
0.915909
0.919497
0.920948
0.920942
0.921922
0.924037
0.926335
0.927579
0.926871
0.926327
0.925307
0.922605
0.921401
0.92274
0.929157
0.939564
0.946316
0.95022
0.952392
0.953917
0.954454
0.949021
0.94043
0.93732
0.937741
0.939209
0.941627
0.949376
0.963682
0.971808
0.974772
0.976507
0.977407
0.977914
0.974897
0.96635
0.961444
0.960827
0.961947
0.964115
0.966896
0.97481
0.989506
0.997853
1.00103
1.00348
1.00584
1.00755
1.00352
0.994747
0.989663
0.988505
0.989346
0.990913
0.993554
0.999767
1.01322
1.02413
1.02975
1.03327
1.03562
1.0355
1.03309
1.02653
1.0201
1.01735
1.01804
1.02047
1.02758
1.03701
1.04366
1.04849
1.05042
1.05205
1.2177
1.69174
0.893123
0.89602
0.892636
0.883554
0.878445
0.878107
0.878844
0.88033
0.885572
0.894734
0.902225
0.907031
0.908891
0.907694
0.904383
0.903226
0.902756
0.902842
0.904468
0.907789
0.911141
0.912547
0.911872
0.910978
0.912975
0.917716
0.921867
0.925611
0.929913
0.933361
0.935164
0.935042
0.930508
0.92407
0.920389
0.920448
0.922014
0.926272
0.938754
0.950007
0.95462
0.956754
0.957658
0.957024
0.95255
0.944441
0.940268
0.940458
0.942149
0.945224
0.948844
0.95738
0.969198
0.974706
0.976869
0.977633
0.979048
0.980633
0.977824
0.969744
0.965743
0.96516
0.965583
0.966721
0.969031
0.976607
0.991714
1.00159
1.00577
1.00808
1.01015
1.01188
1.00826
0.999859
0.994305
0.99238
0.992276
0.993548
0.996104
1.00332
1.01643
1.02595
1.03112
1.03471
1.03697
1.03717
1.03532
1.02896
1.02197
1.01823
1.01811
1.01971
1.02637
1.03631
1.04417
1.04833
1.05513
1.22701
1.69487
0.896221
0.896632
0.886769
0.88087
0.879847
0.880148
0.881961
0.888323
0.895298
0.899476
0.902704
0.904141
0.903334
0.901449
0.901745
0.904234
0.907371
0.911476
0.914385
0.915743
0.915995
0.912293
0.907453
0.906584
0.908226
0.914986
0.924928
0.932547
0.936651
0.938404
0.939706
0.94022
0.933973
0.923554
0.920581
0.921181
0.92261
0.926307
0.938437
0.951261
0.95639
0.958444
0.958172
0.956344
0.954997
0.951385
0.946574
0.945463
0.946633
0.948354
0.949791
0.951629
0.959374
0.971025
0.976758
0.97969
0.98225
0.984411
0.985955
0.982004
0.973181
0.968432
0.967011
0.966437
0.967397
0.970071
0.978586
0.994621
1.00497
1.00925
1.01194
1.01431
1.01571
1.01188
1.00314
0.996749
0.994687
0.995424
0.997357
1.00005
1.00676
1.0183
1.02709
1.03246
1.03636
1.03897
1.03976
1.03795
1.0308
1.02244
1.01755
1.0166
1.01767
1.02523
1.0372
1.04529
1.05637
1.23769
1.69879
0.89547
0.890203
0.884942
0.883169
0.883298
0.886135
0.892753
0.898076
0.90044
0.900238
0.897857
0.896654
0.89822
0.901353
0.904919
0.909746
0.916253
0.920189
0.922036
0.922008
0.916039
0.907448
0.904845
0.905698
0.907678
0.91373
0.927784
0.937899
0.941309
0.94286
0.943016
0.940107
0.932873
0.925891
0.922996
0.923465
0.925763
0.931149
0.938246
0.947894
0.954155
0.956221
0.955984
0.956496
0.958061
0.95905
0.955982
0.951342
0.94981
0.949485
0.948791
0.94927
0.951946
0.96208
0.975636
0.982791
0.986262
0.988882
0.990637
0.991366
0.984353
0.973543
0.968315
0.967449
0.968322
0.970477
0.973569
0.981621
0.99749
1.00861
1.01294
1.01472
1.01599
1.0171
1.01537
1.009
1.00286
1.00004
0.999546
1.00009
1.00194
1.00859
1.02039
1.02949
1.0351
1.039
1.04123
1.04169
1.03917
1.03113
1.02212
1.01612
1.01413
1.01539
1.02571
1.03861
1.05432
1.24873
1.70294
0.888486
0.885818
0.886795
0.888607
0.893133
0.898027
0.900867
0.902263
0.900773
0.894476
0.890663
0.890859
0.894083
0.902713
0.91288
0.920531
0.92407
0.925569
0.926639
0.924165
0.912366
0.905158
0.904575
0.905611
0.907763
0.915417
0.930554
0.939535
0.942961
0.944452
0.94249
0.938699
0.935223
0.930673
0.928767
0.929734
0.932965
0.935676
0.937205
0.939867
0.947286
0.953736
0.956959
0.959449
0.962115
0.964252
0.96506
0.960471
0.953415
0.949349
0.947799
0.948205
0.950035
0.953867
0.967471
0.982335
0.988871
0.991154
0.992125
0.992451
0.992423
0.984961
0.975344
0.971806
0.97229
0.974604
0.976259
0.977702
0.982708
0.996683
1.00781
1.01261
1.01587
1.01902
1.02139
1.02088
1.01425
1.00596
1.0013
1.00038
1.00135
1.00363
1.01141
1.0235
1.03245
1.03764
1.04051
1.04193
1.04226
1.03926
1.03153
1.0217
1.01435
1.01156
1.01384
1.02639
1.04696
1.25876
1.70607
0.884485
0.887467
0.892368
0.899632
0.904723
0.90676
0.907315
0.904038
0.893804
0.887274
0.886715
0.888177
0.891632
0.903504
0.92065
0.927906
0.930208
0.930953
0.928771
0.919907
0.910787
0.906793
0.906396
0.907378
0.911433
0.91999
0.930098
0.938103
0.941298
0.940999
0.939057
0.939302
0.939635
0.938701
0.937045
0.936707
0.937293
0.936826
0.934705
0.934464
0.938033
0.94889
0.958461
0.963684
0.967259
0.969287
0.9705
0.96924
0.96011
0.951525
0.949066
0.949536
0.951399
0.954339
0.959393
0.973058
0.986034
0.990503
0.991524
0.992073
0.993495
0.995186
0.990272
0.982062
0.978611
0.977707
0.97677
0.976642
0.978316
0.982884
0.996427
1.01034
1.01717
1.01989
1.02227
1.02367
1.02254
1.01644
1.00812
1.00335
1.00233
1.0035
1.00622
1.01309
1.02517
1.03401
1.03864
1.04093
1.04231
1.04282
1.04022
1.03219
1.02067
1.01132
1.00874
1.01176
1.03444
1.26548
1.70764
0.879897
0.892251
0.904363
0.910797
0.912764
0.913408
0.912131
0.901282
0.887895
0.88457
0.885191
0.886753
0.891384
0.908131
0.924419
0.929934
0.932145
0.932367
0.925746
0.917972
0.913021
0.91037
0.910939
0.914188
0.919511
0.922281
0.924887
0.930191
0.935806
0.93878
0.940505
0.941894
0.944569
0.94721
0.947922
0.944715
0.939682
0.934601
0.93184
0.932146
0.934053
0.94095
0.956162
0.966731
0.971256
0.973345
0.973977
0.973817
0.969155
0.958979
0.953683
0.953576
0.955934
0.958463
0.959896
0.96259
0.973488
0.985898
0.991348
0.994094
0.997362
0.999687
1.00087
0.996233
0.986726
0.979674
0.977354
0.977545
0.9787
0.980491
0.984343
0.998001
1.01199
1.01812
1.02115
1.0236
1.02473
1.02466
1.02022
1.01199
1.00653
1.0047
1.0047
1.00605
1.01362
1.02662
1.03546
1.03976
1.04205
1.04376
1.04358
1.04008
1.03153
1.01765
1.00807
1.00461
1.01694
1.26596
1.70738
0.877588
0.89696
0.913129
0.917378
0.919002
0.919031
0.912049
0.896646
0.88811
0.886234
0.886647
0.88871
0.897559
0.913063
0.924602
0.929607
0.930509
0.926017
0.921346
0.919642
0.91818
0.918255
0.919658
0.922001
0.923556
0.92241
0.91996
0.920532
0.926985
0.936871
0.943445
0.948363
0.952059
0.953982
0.954937
0.952125
0.941809
0.932876
0.930658
0.931507
0.933306
0.936945
0.949905
0.966775
0.97324
0.974896
0.974321
0.973432
0.97408
0.971182
0.963191
0.959522
0.959486
0.959916
0.959655
0.960492
0.963273
0.973962
0.98852
0.996529
0.999534
1.00131
1.00297
1.00412
0.999825
0.989389
0.982489
0.980494
0.980646
0.981811
0.983361
0.98697
0.999222
1.01244
1.01926
1.02283
1.0258
1.02782
1.02801
1.02364
1.01394
1.00642
1.00369
1.00414
1.00625
1.01523
1.02915
1.03803
1.04169
1.04323
1.04409
1.04244
1.03922
1.0294
1.01421
1.00375
1.00163
1.25905
1.70527
0.879577
0.903664
0.915804
0.919042
0.92057
0.917469
0.90547
0.89603
0.89137
0.890472
0.892126
0.898864
0.907006
0.912901
0.91861
0.921876
0.921837
0.921139
0.921889
0.923256
0.926307
0.929157
0.930177
0.928834
0.924465
0.918454
0.915978
0.91652
0.919637
0.930847
0.945889
0.955047
0.958602
0.959934
0.960051
0.956511
0.944378
0.934257
0.931976
0.932726
0.93552
0.941051
0.947616
0.959031
0.969872
0.973601
0.974256
0.975226
0.976776
0.978035
0.975415
0.967783
0.962756
0.96109
0.961105
0.961963
0.963227
0.965623
0.975037
0.990212
0.997969
1.00074
1.00243
1.0041
1.00495
1.00211
0.993797
0.986658
0.983665
0.98335
0.983755
0.984809
0.988551
1.00101
1.01465
1.02199
1.0256
1.02764
1.02896
1.02936
1.0251
1.01508
1.0074
1.00481
1.00494
1.00726
1.01687
1.031
1.03887
1.04143
1.04254
1.04232
1.04157
1.03884
1.02637
1.00853
0.996516
1.24707
1.70254
0.886171
0.907073
0.915704
0.918255
0.916521
0.908308
0.902424
0.899017
0.897871
0.899378
0.904842
0.91046
0.912811
0.911857
0.909088
0.909529
0.914456
0.920543
0.926277
0.932113
0.936206
0.938071
0.938651
0.934292
0.922721
0.915051
0.913917
0.914958
0.916972
0.925016
0.945916
0.958041
0.961363
0.962643
0.962131
0.956509
0.948238
0.939889
0.936619
0.937589
0.941878
0.946153
0.948411
0.950494
0.957699
0.968281
0.974293
0.976931
0.978243
0.980129
0.982019
0.980742
0.972828
0.966151
0.964002
0.963638
0.964162
0.965284
0.967253
0.975499
0.990264
0.998931
1.00226
1.00447
1.00681
1.00855
1.00647
0.998377
0.990323
0.986215
0.985327
0.985974
0.98753
0.990729
1.00185
1.01513
1.02246
1.02611
1.02816
1.0304
1.03215
1.02883
1.01819
1.00916
1.00518
1.00461
1.00686
1.01738
1.03141
1.03817
1.04086
1.04279
1.04216
1.04136
1.03654
1.01956
0.999908
1.2333
1.7005
0.894132
0.905776
0.910133
0.910029
0.905565
0.902433
0.903129
0.904476
0.908057
0.912558
0.914906
0.915778
0.913376
0.905571
0.901745
0.902261
0.906684
0.919358
0.933125
0.941236
0.94407
0.945025
0.944108
0.935858
0.921201
0.914974
0.91463
0.915729
0.918915
0.927816
0.942741
0.956428
0.961408
0.962095
0.95755
0.953856
0.952627
0.949644
0.946323
0.945837
0.94729
0.948871
0.948409
0.946566
0.94736
0.955
0.968292
0.975881
0.979696
0.983514
0.985911
0.987404
0.985308
0.97534
0.967037
0.964608
0.964962
0.966057
0.967293
0.969031
0.975833
0.990172
1.0006
1.00531
1.00751
1.00926
1.01042
1.00965
1.00397
0.995645
0.990473
0.988343
0.987356
0.987646
0.990312
1.00192
1.01622
1.0244
1.02932
1.03294
1.03481
1.03564
1.03086
1.01838
1.00773
1.0037
1.004
1.00724
1.01846
1.03218
1.0385
1.04092
1.04144
1.04126
1.04019
1.02957
1.01263
1.22217
1.69978
0.897594
0.900427
0.899835
0.900071
0.902114
0.903938
0.906909
0.91457
0.921037
0.923589
0.924181
0.918979
0.906791
0.899268
0.898377
0.899736
0.902871
0.916243
0.93774
0.946501
0.949037
0.949923
0.946768
0.934127
0.922282
0.917253
0.917023
0.919638
0.9274
0.934149
0.938627
0.945912
0.952877
0.955004
0.954973
0.955491
0.956424
0.959089
0.960633
0.957513
0.953252
0.950131
0.946033
0.943426
0.943811
0.945951
0.954759
0.971532
0.982127
0.985746
0.98723
0.988456
0.989529
0.986933
0.977196
0.96992
0.967794
0.968078
0.969414
0.970675
0.971924
0.975983
0.98896
1.00066
1.00578
1.00856
1.01137
1.01408
1.0146
1.00887
0.99829
0.990352
0.986956
0.986469
0.987181
0.990889
1.00526
1.02153
1.02961
1.03277
1.03458
1.036
1.03593
1.03041
1.01828
1.00839
1.00519
1.0055
1.00893
1.0197
1.03142
1.03652
1.03894
1.03952
1.04025
1.03518
1.02548
1.21731
1.70065
0.89788
0.891407
0.889618
0.892432
0.899554
0.908946
0.919028
0.92565
0.928051
0.929007
0.928534
0.917384
0.902255
0.897552
0.897867
0.899293
0.903188
0.918516
0.938644
0.947467
0.950097
0.94917
0.941016
0.933457
0.927585
0.924266
0.924714
0.928812
0.933763
0.936018
0.936001
0.934239
0.936867
0.945972
0.953813
0.958747
0.964308
0.968812
0.970621
0.969146
0.960756
0.950621
0.944369
0.942847
0.944042
0.94603
0.948856
0.958417
0.976177
0.984993
0.987196
0.987786
0.98846
0.989422
0.988712
0.982464
0.976066
0.973482
0.972834
0.97197
0.971528
0.972335
0.975475
0.98777
1.00202
1.00957
1.01294
1.0156
1.01699
1.01623
1.01065
0.999486
0.991006
0.98779
0.988129
0.99088
0.994902
1.00849
1.02375
1.03058
1.03291
1.03385
1.03464
1.0352
1.03204
1.02097
1.01018
1.00658
1.00657
1.00883
1.01764
1.0282
1.0341
1.0373
1.03889
1.03837
1.03422
1.21896
1.70287
0.893121
0.884435
0.884658
0.886842
0.895965
0.915664
0.92961
0.933824
0.934891
0.933323
0.925218
0.910752
0.901544
0.89901
0.899243
0.901557
0.910781
0.922921
0.934109
0.942067
0.944098
0.94087
0.936045
0.935864
0.936033
0.93593
0.93599
0.936492
0.937055
0.935202
0.929366
0.927037
0.928508
0.934488
0.948566
0.962854
0.972035
0.975702
0.97693
0.977053
0.9714
0.955825
0.946203
0.944558
0.945934
0.949513
0.953334
0.956719
0.962796
0.975102
0.983089
0.986146
0.987986
0.990257
0.993045
0.994473
0.990536
0.982752
0.976409
0.973036
0.972252
0.972454
0.973205
0.976011
0.989682
1.00505
1.01211
1.01527
1.01692
1.01727
1.01764
1.01363
1.00276
0.99454
0.991741
0.991503
0.99196
0.994969
1.00751
1.02251
1.02968
1.03285
1.0361
1.03766
1.03753
1.0342
1.0223
1.01021
1.00578
1.0056
1.00687
1.0145
1.02611
1.03344
1.03697
1.03758
1.04062
1.22524
1.70571
0.889423
0.883623
0.884616
0.886192
0.893562
0.918224
0.932746
0.936167
0.937615
0.934669
0.920665
0.909442
0.903926
0.90245
0.903838
0.911619
0.920822
0.924598
0.926662
0.929349
0.933168
0.936118
0.937638
0.939817
0.944494
0.947677
0.94781
0.944394
0.938539
0.929879
0.92433
0.923769
0.925216
0.927874
0.938487
0.962145
0.97441
0.977505
0.97839
0.97596
0.97032
0.963177
0.954746
0.951575
0.952554
0.95532
0.957306
0.957321
0.95687
0.9592
0.969383
0.980622
0.987343
0.991928
0.99607
0.999093
1.00056
0.996987
0.986789
0.978207
0.974357
0.973594
0.973978
0.975128
0.979489
0.992052
1.00582
1.01277
1.01609
1.01819
1.01938
1.01987
1.01638
1.00591
0.996363
0.99149
0.990307
0.991053
0.993945
1.00632
1.02318
1.0326
1.0367
1.03865
1.03871
1.03787
1.03412
1.02221
1.00999
1.00518
1.00444
1.00524
1.01277
1.02462
1.03224
1.03473
1.04382
1.23416
1.70861
0.887961
0.884894
0.885748
0.888712
0.900503
0.918897
0.93149
0.935384
0.934565
0.925718
0.917126
0.912459
0.909913
0.910465
0.914811
0.92108
0.924108
0.924382
0.919695
0.916903
0.919456
0.928977
0.939271
0.947328
0.953826
0.956422
0.957151
0.952773
0.940186
0.929084
0.924851
0.924702
0.92627
0.931313
0.940624
0.954282
0.968799
0.974125
0.973985
0.971156
0.970014
0.970003
0.968808
0.965335
0.962225
0.960652
0.959365
0.95669
0.953703
0.953526
0.955694
0.965699
0.981705
0.992617
0.997256
0.999878
1.00218
1.00282
0.99905
0.989338
0.98044
0.976407
0.97594
0.976594
0.978013
0.981506
0.992818
1.0063
1.01384
1.01736
1.01861
1.02011
1.02125
1.01914
1.00865
0.997542
0.991862
0.990097
0.990748
0.994289
1.0065
1.02401
1.03371
1.03707
1.03793
1.03673
1.03662
1.03454
1.02308
1.01125
1.00586
1.00373
1.00333
1.01081
1.02298
1.02936
1.04421
1.24365
1.71114
0.889196
0.886687
0.889127
0.89826
0.906944
0.914532
0.921985
0.925275
0.924002
0.921177
0.919175
0.918719
0.920051
0.923676
0.92701
0.92838
0.926559
0.918646
0.911765
0.910771
0.912597
0.918873
0.936245
0.952577
0.959885
0.962106
0.962913
0.960121
0.946791
0.932294
0.927674
0.927844
0.932372
0.940057
0.944277
0.946574
0.952132
0.960655
0.966018
0.968605
0.971278
0.976061
0.979635
0.979769
0.975192
0.968241
0.961276
0.955241
0.952318
0.952473
0.953486
0.955433
0.966313
0.985606
0.995691
0.999287
1.00162
1.00211
1.00175
1.00047
0.99398
0.985457
0.980422
0.978774
0.978918
0.979876
0.981649
0.991226
1.00565
1.01403
1.01792
1.02091
1.02292
1.02402
1.0222
1.01081
0.998429
0.99229
0.991255
0.991941
0.994847
1.00694
1.02451
1.03399
1.03727
1.03792
1.03719
1.03712
1.03475
1.02473
1.01316
1.00566
1.00152
1.0005
1.00928
1.02053
1.04097
1.25252
1.71308
0.892435
0.892077
0.898257
0.906003
0.909229
0.910686
0.910123
0.910682
0.915283
0.920256
0.924199
0.929156
0.933606
0.935674
0.936052
0.934253
0.925633
0.912727
0.908029
0.908271
0.909788
0.91331
0.929219
0.953042
0.961556
0.963507
0.96225
0.955334
0.948444
0.941701
0.937183
0.937299
0.941116
0.944353
0.945764
0.943995
0.941275
0.943936
0.953965
0.965487
0.974477
0.981016
0.985365
0.987666
0.987174
0.980219
0.967102
0.957277
0.953866
0.954149
0.95535
0.957334
0.960666
0.970202
0.985118
0.994074
0.998176
1.00058
1.00253
1.00487
1.00607
1.00109
0.990792
0.983455
0.979666
0.977473
0.977883
0.980789
0.992761
1.01008
1.0198
1.0234
1.02505
1.02556
1.02589
1.02263
1.01048
0.999212
0.994348
0.993544
0.994731
0.997168
1.00654
1.02316
1.03381
1.03743
1.03749
1.0369
1.03693
1.0349
1.02741
1.01525
1.00434
0.997895
0.997561
1.00718
1.03356
1.26037
1.71427
0.899347
0.900108
0.90507
0.908545
0.909484
0.905281
0.899888
0.899799
0.904325
0.916096
0.929738
0.940384
0.944707
0.945736
0.94435
0.936578
0.922549
0.911809
0.90873
0.908895
0.911246
0.918825
0.929785
0.943926
0.95529
0.95822
0.956073
0.953412
0.952785
0.952194
0.951333
0.950314
0.949219
0.947567
0.944189
0.939005
0.936305
0.936768
0.940152
0.953176
0.971726
0.982427
0.986216
0.988332
0.988682
0.986175
0.978273
0.967937
0.961808
0.960177
0.960435
0.960946
0.961498
0.962319
0.967294
0.980544
0.992868
1.0004
1.0055
1.0087
1.01007
1.00983
1.00368
0.990423
0.981025
0.978306
0.978728
0.981059
0.984895
0.997103
1.01382
1.0219
1.02412
1.0241
1.02403
1.02305
1.02127
1.01354
1.00379
0.998367
0.996341
0.995734
0.996552
1.00375
1.02025
1.03177
1.03564
1.036
1.03628
1.03684
1.03605
1.03042
1.01655
1.00136
0.993694
0.993496
1.02216
1.26535
1.71436
0.907518
0.908519
0.910709
0.911244
0.90751
0.899232
0.895765
0.896438
0.898688
0.90784
0.931162
0.94641
0.950869
0.952272
0.951557
0.941954
0.923895
0.913554
0.911113
0.91203
0.918545
0.926573
0.930079