/*--------------------------------*- C++ -*----------------------------------*\
  =========                 |
  \\      /  F ield         | OpenFOAM: The Open Source CFD Toolbox
   \\    /   O peration     | Website:  https://openfoam.org
    \\  /    A nd           | Version:  12
     \\/     M anipulation  |
\*---------------------------------------------------------------------------*/
FoamFile
{
    format      ascii;
    class       volScalarField;
    location    "5.51";
    object      rho;
}
// * * * * * * * * * * * * * * * * * * * * * * * * * * * * * * * * * * * * * //

dimensions      [1 -3 0 0 0 0 0];

internalField   nonuniform List<scalar> 
22702
(
1.40001
1.40001
1.26371
1.40001
1.45291
1.40001
1.83825
1.40001
1.40001
0.993104
1.83772
1.83768
1.40001
1.84219
1.28048
1.40001
1.40001
1.40001
1.83885
1.40001
1.84274
1.40001
1.83941
1.02928
1.83818
1.05642
1.40001
1.83808
1.02131
1.03077
1.40001
1.83772
1.40001
1.40001
1.40001
1.80919
1.844
1.83891
1.40001
1.40001
1.03121
1.40001
1.62251
1.40001
1.83721
1.40001
1.40001
1.40001
1.40001
1.03836
1.40001
1.02955
1.40001
1.83759
1.40001
1.83758
1.40001
1.40001
1.40001
1.40001
1.02991
1.40001
1.40001
1.03442
1.40001
1.02852
1.40001
1.40001
1.40001
1.02851
1.40001
1.84014
1.67158
1.40001
1.84078
1.8619
1.02957
1.84197
1.02893
1.40001
1.84272
1.03338
1.83586
1.83904
1.40001
1.40001
1.40001
1.40001
1.3283
1.0169
1.83757
1.40001
1.40001
1.02411
1.40001
1.84338
1.02861
1.40001
1.40001
1.40001
1.40001
1.62266
1.842
1.05795
1.40001
1.40001
1.5013
1.40001
1.03247
1.40001
1.83983
1.83701
1.40001
1.40001
1.02193
1.02031
1.00738
1.40001
1.40001
1.40001
1.40001
1.40001
1.31529
1.40001
1.77776
1.43078
1.84334
1.40001
1.84085
1.83912
1.84233
1.83852
1.40001
1.04076
1.40001
1.05149
1.40001
1.40001
1.40001
1.40001
1.8378
1.40001
1.40001
1.40001
1.40001
1.8435
1.40001
1.42485
1.40001
1.40001
1.40001
1.40001
1.04101
1.40001
1.40948
1.40001
1.02846
1.40001
1.40001
1.40001
1.8365
1.40001
1.84035
0.998686
1.04257
1.84055
1.8404
1.40001
1.47528
1.65162
1.40001
1.83887
1.02438
1.81032
1.40001
1.40001
1.40001
1.40001
1.84185
1.74749
1.40001
1.83844
1.03753
1.83855
1.40001
1.02203
1.40001
1.03061
1.05158
1.39979
1.40001
1.40001
1.83719
1.40001
1.40001
1.84142
1.40001
1.83551
1.83884
1.03119
1.40001
1.40001
1.02533
1.84185
1.40001
1.40001
1.40001
1.84197
1.40001
1.0301
1.40001
1.40001
1.84165
1.8417
1.83731
1.40001
1.40004
1.40001
1.40001
1.40001
1.84106
1.40001
1.03304
1.85442
1.84108
1.84372
1.40001
1.40001
1.40001
1.01184
1.84256
1.62028
1.40001
1.84321
1.03903
1.0397
1.84315
1.84362
1.40001
1.83698
1.04689
1.79072
1.40001
1.40001
1.40001
1.40001
1.84166
1.40001
1.65719
1.44401
1.40001
1.40001
1.84189
1.02989
1.17281
1.40001
1.84094
1.01464
1.83855
1.40001
1.40001
1.40001
1.40001
1.40001
1.40001
1.40001
1.02909
1.17807
1.04785
1.84188
1.40001
1.40001
1.40001
1.40001
1.7943
1.40001
1.02158
1.40001
1.0065
1.02099
1.84156
1.02443
1.84276
1.40001
1.40001
1.40001
1.3977
1.02179
1.04022
1.4
1.40001
1.00261
1.40001
1.8391
1.05576
1.40001
1.40001
1.84335
0.997278
1.40001
1.83664
1.03667
1.84213
1.40001
1.01234
1.39772
1.40001
1.40001
1.40001
1.02384
1.40001
1.40001
1.4
1.40002
1.40402
1.67172
1.40001
1.05436
1.40001
1.40001
1.40001
1.40001
1.40001
1.40001
1.40001
1.8423
1.40001
1.83718
1.40001
1.40001
1.40001
1.03747
1.40001
1.84355
1.02099
1.40001
1.74902
1.40001
1.40001
1.83923
1.40001
1.40001
1.40001
1.82677
1.40001
1.40001
1.83139
1.83896
1.40001
1.49197
1.40001
1.40001
1.0451
1.40001
1.40001
1.40001
1.0214
1.40001
1.40001
1.40001
1.40001
1.0296
1.40001
1.40001
1.40001
1.40001
1.40001
1.02905
1.40007
1.84023
1.40001
1.4
1.84031
1.84069
1.40001
1.40001
1.03447
1.20344
1.83491
1.40001
1.40001
1.40001
1.84203
1.03543
1.40001
1.84041
1.40001
1.40001
1.09384
1.09513
1.40001
1.02233
1.03877
1.40001
1.40001
1.40001
1.40001
1.40001
1.40001
1.40001
1.84438
1.50204
1.82619
1.028
1.31221
1.83865
1.40001
1.84206
1.83476
1.05253
1.1594
1.40001
1.02425
1.40001
1.84675
1.40001
1.40001
1.40001
1.40001
1.84182
1.40001
1.40001
1.40001
1.40001
1.40001
1.40001
1.40001
1.56617
1.83715
1.40001
1.84168
1.40001
1.40001
1.02892
1.40001
1.40001
1.40001
1.40001
1.84195
1.73841
1.40001
1.40001
1.02407
1.84061
1.84144
1.40001
1.84143
1.84122
1.84164
1.40001
1.22596
1.40001
1.84146
1.38573
1.84164
1.40001
1.05117
1.3989
1.84127
1.40001
1.40001
1.40001
1.40001
1.02994
1.84185
1.80182
1.40001
1.83827
1.84195
1.83822
1.40001
1.61517
1.84213
1.40001
1.40001
1.7074
1.46628
1.84153
1.32822
1.84151
1.40001
1.84149
1.84189
1.84158
1.84056
1.40001
1.81724
1.31317
1.2863
1.40001
1.4
1.40001
1.40001
1.84853
1.40001
1.40001
1.40001
1.40001
1.40001
1.84055
1.40001
1.40001
1.39637
1.84136
1.79458
1.40001
1.7742
1.40005
1.40001
1.40001
1.8408
1.40001
1.39628
1.40394
1.40001
1.84219
1.40001
1.84303
1.40001
1.40001
1.72954
1.40001
1.84265
1.40003
1.40001
1.8405
1.40001
1.84189
1.40001
1.40001
1.40001
1.84163
1.40001
1.84526
1.40001
1.84182
1.83908
1.84166
1.84338
1.40001
1.83701
1.83735
1.40001
1.02924
1.81478
1.7186
1.40001
1.84151
1.40001
1.03705
1.03101
1.40001
1.40001
1.40001
1.40001
1.40001
1.03183
1.40001
1.84177
1.50765
1.84053
1.40001
1.40001
1.40001
1.40001
1.40001
1.84185
1.40001
1.84556
1.66425
1.16122
1.40001
1.40002
1.52701
1.50981
1.40001
1.40001
1.55537
1.40001
1.02324
1.84171
1.84195
1.40001
1.40001
1.40001
1.83884
1.40001
1.40003
1.84783
1.84208
1.34191
1.40001
1.40001
1.02818
1.80149
1.40001
1.40001
1.40001
1.40001
1.40001
1.84165
1.83736
1.40001
1.84032
1.84426
1.84171
1.40001
1.40001
1.40001
1.40001
1.05771
1.83482
1.40001
1.40001
1.80309
1.84025
1.40001
1.81655
1.83735
1.40001
1.40001
1.40001
1.40001
1.40001
1.84213
1.40001
1.40001
1.40001
1.40001
1.84707
1.40001
1.8318
1.03187
1.40001
1.04318
1.40001
1.40001
1.40001
1.39678
1.03465
1.39901
1.40001
1.40001
1.40001
1.46449
1.40001
1.40001
1.25492
1.40001
1.40001
1.40001
1.40001
1.40001
1.40001
1.40001
1.4
1.32705
1.4
1.40001
1.39758
1.40001
1.0238
1.40001
1.40001
1.40001
1.40001
1.73151
1.40001
1.40001
1.40001
1.40001
1.01927
1.40001
1.40001
1.81619
1.83836
1.4
1.40001
1.40001
1.28616
1.40001
1.40001
1.40001
1.40001
1.40001
1.40001
1.3434
1.40341
1.84049
1.40001
1.40001
1.40001
1.84211
1.29554
1.40001
1.40001
1.40001
1.8377
1.83749
1.40001
1.40001
1.40001
1.40001
1.40001
1.40001
1.40001
1.40001
1.40001
1.0377
1.40001
1.40001
1.83857
1.03191
1.40001
1.83925
1.40001
1.03456
1.40001
1.40001
1.03662
1.40001
1.40001
1.40001
1.40001
1.40001
1.40001
1.40001
1.83293
1.84048
1.40001
1.40001
1.40001
1.40001
1.80442
1.40001
1.54162
1.02678
1.40001
1.40001
1.40001
1.40001
1.40001
1.40001
1.40001
1.43028
1.40001
1.40001
1.62582
1.40001
1.40001
1.40001
1.76586
1.40001
1.40001
1.40001
1.40001
1.02112
1.40001
1.40001
1.02779
1.0225
1.40001
1.40001
1.84166
1.40001
1.36431
1.40001
1.40001
1.40001
1.70951
1.02363
1.40001
1.01888
1.40001
1.16739
1.40001
1.40001
1.40001
1.83991
1.40001
1.40001
1.8413
1.40001
1.40001
1.40001
1.84113
1.40001
1.40001
1.84185
1.40001
1.40001
1.05215
1.40001
1.54009
1.40001
1.40001
1.83725
1.83906
1.69362
1.7949
1.40001
1.04464
1.40001
1.40001
1.82242
1.40001
1.03179
1.40001
1.40001
1.40001
1.84219
1.40001
1.40001
1.40001
1.40001
1.66704
1.40001
1.83078
1.84591
1.01169
1.40001
1.40001
1.05869
1.0489
1.40001
1.40001
1.40001
1.7166
1.73577
1.40001
1.40001
1.40001
1.40001
1.40001
1.40001
1.40001
1.58679
1.8404
1.39785
1.40001
1.83638
1.0398
1.40001
1.40001
1.40001
1.64517
1.40001
1.48914
1.40001
1.80397
1.8405
1.40001
1.0524
1.40001
1.83713
1.40001
1.40001
1.84245
1.81492
1.40001
1.84144
1.40001
0.999762
1.40001
1.40001
1.40001
1.85
1.83294
1.78945
1.40001
1.83949
1.84162
1.40001
1.84261
1.40001
1.84057
1.40001
1.01477
1.37404
1.03449
1.40001
1.40001
1.40001
1.40001
1.40001
1.84154
1.40001
1.84206
1.40001
1.40001
1.40001
1.82056
1.40001
1.0304
1.84141
1.40001
1.0283
1.04002
1.02966
1.40001
1.61578
1.43588
1.84389
1.84156
1.40001
1.4
1.40001
1.40001
1.84229
1.40001
1.40001
1.84231
1.84166
1.40001
1.55904
1.39982
1.40001
1.39682
1.83749
1.25217
1.40001
1.22245
1.02332
1.02606
1.33735
1.84012
1.83632
1.48753
1.84128
1.84157
1.40001
1.40001
1.84299
1.83763
1.84111
1.83806
1.40001
1.84244
1.03141
1.84434
1.83997
1.83978
1.84025
1.25418
1.28977
1.3228
1.84179
1.35507
1.83979
1.40001
1.40001
1.84411
1.84094
1.40001
1.0317
1.84105
1.84151
1.40001
1.84212
1.84196
1.40001
1.84193
1.02398
1.84317
1.84321
1.83525
1.84073
1.40001
1.40001
1.40001
1.84155
1.68339
1.07891
1.84117
1.02995
1.84151
1.40001
1.40001
1.40001
1.40001
1.84388
1.84172
1.40001
1.40001
1.84178
1.03408
1.84183
1.02105
1.40001
1.83902
1.40001
0.992809
1.84355
1.11983
1.40001
1.8414
1.84448
1.84103
1.40001
1.40001
1.60575
1.84365
1.02882
1.84144
1.40001
1.84314
1.27797
1.8414
1.03835
1.40001
1.84269
1.07082
1.84404
1.02367
1.40001
1.84215
1.40001
1.8387
1.40001
1.65847
1.82534
1.7469
1.03113
1.40001
1.84208
1.40001
1.84231
1.40001
1.84165
1.40001
1.40001
1.84097
1.37952
1.84434
0.976627
1.79607
1.40001
1.71223
1.40001
1.84017
1.84151
1.84057
1.40001
1.79753
1.84249
1.80901
1.6715
1.83947
1.40001
1.69097
1.40001
1.84228
1.40001
1.46648
1.40001
1.80939
1.40001
1.84268
1.82207
1.82139
1.40001
1.83036
1.03456
1.40001
1.03732
1.40001
1.40001
1.40001
1.83793
1.40001
1.84233
1.40001
1.40001
1.40001
1.84262
1.83514
1.76257
1.84407
1.8424
1.04112
1.84379
1.8334
1.40001
1.78666
1.84137
1.82071
1.40001
1.83809
1.83704
1.40001
1.84899
1.84142
1.84001
1.84329
1.40001
1.40001
1.40001
1.84253
1.04452
1.40001
1.84196
1.40001
1.40001
1.02945
1.40001
1.40001
1.8414
1.84238
1.40001
1.8415
1.8484
1.84255
1.37236
1.84213
1.40001
1.84152
1.84164
1.75477
1.40001
1.40001
1.40001
1.84404
1.84132
1.84184
1.34381
1.40001
1.84709
1.84156
1.84245
1.40001
1.84104
1.84214
1.84173
1.84589
1.40001
1.84074
1.84467
1.78035
1.84343
1.84385
1.40001
1.8499
1.83675
1.84179
1.8464
1.8428
1.03912
1.84247
1.84293
1.40001
1.84218
1.84154
1.84187
1.84156
1.40001
1.84152
1.84188
1.40001
1.84178
1.77224
1.40001
1.40001
1.40001
1.84446
1.84352
1.40001
1.40001
1.64369
1.40001
1.84201
1.40001
1.40001
1.84159
1.84311
1.84133
1.84151
1.40001
1.40001
1.40001
1.71083
1.40001
1.84204
1.40001
1.40001
1.84059
1.84285
1.40001
1.84163
1.00713
1.84177
1.84068
1.12765
1.40001
1.02709
1.78162
1.83984
1.84274
1.84335
1.03811
1.84253
1.84344
1.0399
1.02807
1.40001
1.84284
1.84181
1.40001
1.40001
1.84175
1.40001
1.84017
1.40001
1.78683
1.40001
1.60773
1.84276
1.84462
1.71227
1.79429
1.83481
1.84363
1.81532
1.40001
1.04293
1.84334
1.84193
1.84831
1.40002
1.40001
1.40001
1.8463
1.40001
1.84209
1.8411
1.13226
1.40001
1.84145
1.39995
1.40001
1.40003
1.40005
1.84162
1.84148
1.39848
1.40001
1.40001
1.84213
1.84372
1.8415
1.84174
1.8427
1.0678
1.77351
1.40001
1.83851
1.84186
1.84155
1.83489
1.40001
1.84153
1.83013
1.84347
1.40001
1.8412
1.84312
1.26125
1.84139
1.8418
1.40001
1.84139
1.23897
1.84117
1.25382
1.84184
1.40001
1.84206
1.84719
1.84154
1.84186
1.84202
1.83891
1.8427
1.83882
1.40001
1.31214
1.84166
1.84128
1.24189
1.8414
1.3765
1.6784
1.84192
1.8407
1.84497
1.40001
1.84397
1.68992
1.84446
1.31069
1.84435
1.8438
1.40001
1.26789
1.40001
1.83633
1.40001
1.70328
1.40001
1.83099
1.26514
1.40001
1.84567
1.84743
1.40001
1.84436
1.84397
1.84953
1.8439
1.84842
1.40001
1.84057
1.40001
1.40001
1.40001
1.29115
1.84076
1.84132
1.84047
1.84153
1.83889
1.84187
1.84514
1.84207
1.2862
1.4316
1.40001
1.40001
1.8429
1.84203
1.84188
1.8417
1.40003
1.62577
1.40001
1.84896
1.80642
1.40001
1.40001
1.10975
1.84171
1.40001
1.40001
1.03183
1.84169
1.40001
1.83515
1.84174
1.83442
1.82529
1.84208
1.40001
1.0378
1.50721
1.8407
1.84241
1.40001
1.84158
1.84162
1.62631
1.41076
1.49589
1.40001
1.83798
1.84216
1.40001
1.40001
1.04205
1.40001
1.40001
1.84153
1.84193
1.84067
1.84216
1.84219
1.84256
1.84154
1.8431
1.84172
1.40001
1.39613
1.84232
1.84244
1.39661
1.84182
1.84162
1.04213
1.0181
1.83944
1.83852
1.40001
1.40001
1.40201
1.84111
1.84034
1.84174
1.40001
1.84154
1.40001
1.25416
1.84936
1.84381
1.40001
1.59047
1.84116
1.40001
1.84161
1.40001
1.84075
1.70265
1.84067
1.40001
1.84331
1.84523
1.04234
1.84191
1.40001
1.84226
1.84065
1.40001
1.04173
1.84537
1.76439
1.39765
1.83027
1.84155
1.40001
1.3959
1.84912
1.39749
1.84224
1.40001
1.40001
1.844
1.40001
1.84583
1.84176
1.39629
1.74798
1.40001
1.84164
1.40001
1.40001
1.40001
1.40001
1.84174
1.40001
1.40001
1.84763
1.40001
1.84248
1.40001
1.68582
1.84001
1.84164
1.40001
1.40001
1.3972
1.40001
1.84148
1.84164
1.8434
1.84205
1.84214
1.84128
1.84217
1.40001
1.8411
1.84172
1.40001
1.84191
1.84129
1.40001
1.84072
1.31107
1.46021
1.84126
1.8414
1.84127
1.40001
1.84208
1.40001
1.84193
1.84167
1.40001
1.8408
1.40001
1.40001
1.40001
1.40001
1.84099
1.04838
1.39786
1.40001
1.84186
1.83757
1.40001
1.84148
1.40001
1.40494
1.02428
1.84162
1.39961
1.40001
1.84171
1.39831
1.84248
1.40001
1.39977
1.40001
1.84341
1.84417
1.84084
1.84127
1.03847
1.84327
1.84334
1.84084
1.51389
1.40001
1.40001
1.58711
1.84221
1.03472
1.04216
1.40001
1.84239
1.84171
1.83942
1.40001
1.40001
1.843
1.84108
1.39988
1.40001
1.71916
1.00898
1.40001
1.47897
1.84136
1.83766
1.39826
1.84182
1.84825
1.40001
1.39862
1.40001
1.83966
1.83849
1.57612
1.40001
1.81999
1.40001
1.4014
1.84009
1.0386
1.84158
1.84188
1.39699
1.39992
1.78139
1.40001
1.3997
1.40001
1.84461
1.40001
1.40002
1.01352
1.84188
1.40001
1.40001
1.40001
1.40001
1.84622
1.64565
1.40001
1.40001
1.03159
1.84198
1.64772
1.40001
1.40001
1.40001
1.82077
1.83919
1.84089
1.40001
1.40001
1.84006
1.40001
1.84144
1.84145
1.40001
1.40001
1.84292
1.84189
1.81807
1.40001
1.40001
1.84364
1.8425
1.40001
1.40001
1.40001
1.84329
1.40001
1.40001
1.40001
1.84011
1.84462
1.84467
1.40001
1.84928
1.40004
1.06923
1.84143
1.84101
1.40001
1.84083
1.82861
1.84074
1.40001
1.40001
1.84561
1.40001
1.64797
1.8407
1.40001
1.0425
1.40001
1.84255
1.40001
1.40001
1.84509
1.40001
1.40001
1.40001
1.54266
1.84249
1.05021
1.40002
1.84206
1.40001
1.40001
1.84146
1.40001
1.84579
1.40001
1.40001
1.84143
1.84133
1.40001
1.40006
1.40001
1.40001
1.40001
1.40001
1.40001
1.40001
1.83652
1.84221
1.40001
1.83545
1.02311
1.8408
1.40001
1.8418
1.84263
1.8416
1.84781
1.84124
1.40001
1.40001
1.8458
1.40001
1.67128
1.8456
1.84154
1.40001
1.84265
1.84582
1.40001
1.81339
1.40001
1.84184
1.68951
1.84628
1.39746
1.83715
1.80341
1.84179
1.84265
1.43709
1.84134
1.84547
1.40001
1.84172
1.40001
1.84184
1.40001
1.40001
1.40001
1.40001
1.3958
1.84178
1.84198
1.78293
1.40001
1.84629
1.40001
1.40001
1.40001
1.03625
1.40001
1.83072
1.40001
1.80077
1.82521
1.40001
1.40001
1.40001
1.80797
1.84102
1.40001
1.40001
1.84237
1.0387
1.47545
1.40001
1.84602
1.84132
1.80256
1.82914
1.84148
1.40001
1.84355
1.40001
1.40001
1.40001
1.40001
1.84249
1.84259
1.40001
1.83769
1.45034
1.84102
1.81089
1.40001
1.40001
1.81184
1.40001
1.40001
1.05707
1.70869
1.40001
1.40001
1.84496
1.40001
1.84558
1.80397
1.40001
1.80333
1.03837
1.84221
1.84111
1.84205
1.40001
1.03133
1.40001
1.40001
1.40001
1.84135
1.76009
1.40001
1.84843
1.84073
1.40001
1.84182
1.40001
1.40001
1.40001
1.40001
1.84102
1.39932
1.40001
1.84281
1.40001
1.40001
1.84286
1.84164
1.40001
1.8437
1.48327
1.40003
1.40001
1.84145
1.40001
1.84146
1.40001
1.41349
1.84234
1.40001
1.84181
1.40001
1.40001
1.53447
1.83997
1.40001
1.40001
1.40001
1.40001
1.40001
1.39612
1.03112
1.04033
1.42113
1.40001
1.41576
1.40001
1.41769
1.40001
1.84217
1.40001
1.65974
1.40001
1.84146
1.40001
1.40001
1.40001
1.84156
1.40001
1.74355
1.84312
1.40001
1.63533
1.84253
1.40001
1.40001
1.83751
1.84112
1.40001
1.40001
1.45249
1.03366
1.40001
1.84327
1.40001
1.40001
1.40001
1.40001
1.47566
1.84222
1.40001
1.40001
1.40001
1.03872
1.40001
1.84146
1.84243
1.84845
1.40001
1.40001
1.40001
1.40001
1.61837
1.84288
1.40001
1.40001
1.40001
1.84597
1.84179
1.45394
1.40001
1.40001
1.40001
1.84077
1.84167
1.40001
1.04332
1.8423
1.84152
1.83994
1.84013
1.84055
1.40001
1.40001
1.84343
1.84268
1.84178
1.03731
1.43937
1.84141
1.40001
1.40001
1.40001
1.40001
1.40001
1.8414
1.04304
1.40001
1.40001
1.84178
1.59594
1.40001
1.84496
1.40001
1.40001
1.40001
1.03506
1.40001
1.40001
1.51413
1.84235
1.84228
1.40001
1.84233
1.84384
1.40001
1.47613
1.40001
1.83896
1.40001
1.84299
1.04481
1.40001
1.40001
1.40001
1.40001
1.84187
1.40007
1.40001
1.40001
1.40001
1.82637
1.40001
1.40001
1.40001
1.40001
1.84222
1.03798
1.74171
1.84482
1.40001
1.84126
1.40001
1.40001
1.40001
1.39714
1.40001
1.84696
1.40001
1.20392
1.40001
1.40001
1.40004
1.84308
1.02797
1.40001
1.83886
1.40001
1.84525
1.84182
1.00681
1.40001
1.40001
1.82439
1.40001
1.40001
0.996419
1.40001
1.83988
1.40001
1.82125
1.39931
1.84021
1.40001
1.40001
1.40001
1.40001
1.84038
1.40001
1.40001
1.84211
1.40001
1.40001
1.40001
1.40001
1.40001
1.40001
1.40001
1.40001
1.68675
1.40001
1.54896
1.84257
1.40001
1.40001
1.40001
1.03665
1.40001
1.40001
1.40001
1.40001
1.8399
1.84187
1.45447
1.40001
1.40001
1.84205
1.40001
1.40001
1.83968
1.40001
1.40002
1.40001
1.40001
1.40001
1.40002
1.84262
1.17453
1.84207
1.84275
1.39718
1.40001
1.40001
1.40001
1.65732
1.40001
1.40001
1.8406
1.84179
1.40001
1.40001
1.40001
1.40001
0.996686
1.40001
1.40001
1.40001
1.68012
1.40001
1.84168
1.84545
1.40001
1.8433
1.40001
1.40001
1.40001
1.63927
1.40001
1.83631
1.40001
1.84133
1.40001
1.40001
1.39622
1.84185
1.40001
1.40001
1.40001
1.40001
1.40001
1.83927
1.40003
1.40001
1.05025
1.83959
1.05214
1.40001
1.84307
1.40001
1.39593
1.40001
1.84328
1.84665
1.40001
1.83321
1.28106
1.8418
1.83448
1.40004
1.40001
1.40001
1.01776
1.40001
1.40001
1.40001
1.8414
1.65601
1.84689
1.40001
1.40001
1.40001
1.40001
1.39676
1.84369
1.40001
1.03957
1.40001
1.40001
1.40001
1.40001
1.40001
1.40001
1.40001
1.8443
1.84258
1.84816
1.40001
1.40001
1.39685
1.40001
1.38921
1.40001
1.40001
1.40001
1.03466
1.38034
1.40001
1.02087
1.03546
1.40001
1.84193
1.84203
1.40001
1.84433
1.84211
1.02384
1.70059
1.40001
1.40001
1.40001
1.04328
1.84063
1.40001
1.03023
1.40001
1.84446
1.478
1.40001
1.40001
1.40001
1.40001
1.84224
1.84082
1.40001
1.40001
1.84119
1.40001
1.40001
1.83856
1.8413
1.40001
1.80738
1.84251
1.83835
1.35623
1.84455
1.4085
1.02792
1.73995
1.84174
1.40001
1.40001
1.40001
1.0156
1.40001
1.02997
1.84818
1.36354
1.84191
1.34389
1.40001
1.84032
1.60014
1.40001
1.40001
1.84343
1.40001
1.57529
1.84006
1.40001
1.40001
1.83823
1.8486
1.02552
1.6524
1.3999
1.40001
1.66976
1.40001
1.84334
1.33541
1.8509
1.84402
1.40001
1.40001
1.40001
1.40001
1.82711
1.40001
1.40001
1.84153
1.39965
1.84097
1.7649
1.84544
1.0339
1.40001
1.40001
1.40001
1.40001
1.84079
1.40005
1.84169
1.40001
1.84189
1.84025
1.45717
1.84876
1.53189
1.84169
1.40001
1.70297
1.04183
1.83787
1.84167
1.76403
1.47754
1.84061
1.84213
1.84204
1.84353
1.40001
1.3042
1.46333
1.40001
1.8419
1.61155
1.84273
1.40004
1.40001
1.40001
1.073
1.83842
1.83995
1.75924
1.40001
1.57141
1.40001
1.84222
1.84131
1.40001
1.84348
1.83999
1.40001
1.40001
1.40001
1.84401
1.40001
1.57513
1.84621
1.70782
1.40001
1.84124
1.40001
1.40001
1.40001
1.40001
1.40001
1.40001
1.40001
1.40001
1.40001
1.40001
1.04825
1.40001
1.80306
1.03948
1.6544
1.39861
1.83965
1.40001
1.63633
1.40002
1.68693
1.77818
1.40001
1.4022
1.84387
1.29959
1.40001
1.8462
1.83538
1.32743
1.40001
1.84047
1.84041
1.84456
1.40001
1.8417
1.84306
1.84599
1.40001
1.59795
1.40001
1.40007
1.84151
1.40001
1.84197
1.46462
1.8425
1.40001
1.40001
1.84121
1.84648
1.08862
1.40001
1.84104
1.73352
1.84088
1.40001
1.40001
1.83848
1.84417
1.39822
1.40001
1.80137
1.39677
1.84189
1.40007
1.40001
1.40001
1.40001
1.40001
1.59672
1.40001
1.73987
1.84355
1.73235
1.83982
1.40001
1.40439
1.40001
1.40001
1.83868
1.40001
1.84625
1.40001
1.40001
1.40001
1.40001
1.4
1.40001
1.45546
1.63101
1.40001
1.40001
1.05177
1.40001
1.83886
1.05368
1.84328
1.40001
1.61983
1.39974
1.84105
1.68346
1.0548
1.64237
1.40004
1.84196
1.84447
1.40001
1.6688
1.84617
1.84282
1.39841
1.84842
1.82971
1.04647
1.40001
1.40001
1.39776
1.40001
1.83839
1.40001
1.06909
1.84017
1.40001
1.40001
1.78972
1.40001
1.84294
1.40001
1.84016
1.40001
1.06178
1.40001
1.40001
1.84015
1.8456
1.83842
1.40001
1.83998
1.84138
1.83402
1.40001
1.40001
1.84357
1.4
1.13461
1.40001
1.40001
1.40001
1.84151
1.40001
1.84153
1.68399
1.83878
1.40001
1.84196
1.39938
1.40001
1.40001
1.40001
1.40001
1.40001
1.40001
1.10676
1.40001
1.40001
1.84217
1.40001
1.8428
1.84123
1.40001
1.06489
1.02022
1.40001
1.84399
1.47675
1.03966
1.0128
1.40001
1.84396
1.40001
1.84594
1.03612
1.40116
1.40001
1.40001
1.39951
1.40001
1.40001
1.40001
1.39992
1.57755
1.84158
1.40001
1.40001
1.84311
1.66266
1.40001
1.79404
1.84362
1.8429
1.57726
1.84003
1.40001
1.84083
1.40001
1.82079
1.40001
1.84312
1.84041
1.3971
1.84068
1.84516
1.40001
1.40001
1.40001
1.40001
1.40001
1.31051
1.83882
1.40005
1.40003
1.06311
1.39999
1.05056
1.05083
1.40001
1.8413
1.84254
1.84259
1.40001
1.84175
1.40001
1.03246
1.40001
1.40001
1.84453
1.22051
1.84013
1.40001
1.8399
1.40001
1.37769
1.84155
1.40001
1.40001
1.40001
1.84083
1.40001
1.8409
1.02398
1.40001
1.40001
1.65787
1.40001
1.40001
1.64129
1.40001
1.40001
1.84216
1.40001
1.40001
1.40001
1.40001
1.40001
1.83595
1.84184
1.40001
1.83997
1.84315
1.04039
1.60364
1.84225
1.40001
1.40001
1.79773
1.39901
1.40001
1.40001
1.84192
1.84588
1.70237
1.40001
1.84297
1.06195
1.81698
1.39939
1.40001
1.84261
1.40004
1.8393
1.76072
1.7391
1.40001
1.40001
1.84187
1.08971
1.00769
1.40001
1.84068
1.40001
1.84162
1.40001
1.65763
1.40001
1.40001
1.8402
1.68047
1.03137
1.40001
1.39814
1.40001
1.40001
1.42568
1.57533
1.8417
1.40001
1.84057
1.40001
1.40001
1.40001
1.40001
1.40001
1.40001
1.46761
1.04249
1.40001
1.40001
1.42692
1.40001
1.40001
1.40001
1.40001
1.40001
1.84272
1.40001
1.40001
1.84172
1.84098
1.72645
1.40001
1.40001
1.40001
1.21258
1.84445
1.71138
1.40001
1.40001
1.40001
1.40001
1.84029
1.40001
1.40001
1.40001
1.84244
1.40001
1.40001
1.72253
1.8479
1.43317
1.13751
1.84228
1.71265
1.83977
1.40001
1.62513
1.40001
1.40001
1.40001
1.06151
1.40239
1.03764
1.40001
1.03626
1.03936
1.40001
1.02595
1.40001
1.40001
1.40001
1.5979
1.40001
1.84318
1.84251
1.40133
1.61894
1.77416
1.01266
1.14341
1.28767
1.40001
1.84164
1.84068
1.84178
1.84173
1.77935
1.27718
1.40001
1.78148
1.40001
1.81703
1.40001
1.40001
1.39644
1.41002
1.40001
1.40001
1.40001
1.83995
1.40001
1.04807
1.40001
1.84321
1.04353
1.40001
1.40001
1.84139
1.40001
1.84127
1.39942
1.40001
1.40001
1.84181
1.79287
1.40001
1.8552
1.40001
1.40001
1.41476
1.40001
1.60245
1.40001
1.40001
1.03803
1.40001
1.40001
1.84114
1.4
1.84309
1.40001
1.40004
1.03756
1.40001
1.40001
1.06853
1.40081
1.40001
1.84136
1.05184
1.84847
1.03343
1.84058
1.40001
1.40001
1.40001
1.40001
1.4
1.40001
1.40001
1.40001
1.40001
1.40001
1.40001
1.82389
1.40001
1.84235
1.8407
1.04347
1.40001
1.40001
1.40001
1.40001
1.40001
1.40001
1.8295
1.40001
1.40001
1.0218
1.40001
1.40001
1.84067
1.40001
1.40001
1.5622
1.76846
1.03766
1.0437
1.09649
1.11429
1.40001
1.39649
1.07507
1.4003
1.81208
1.39695
1.40001
1.40001
1.83972
1.40001
1.40001
1.40001
1.16134
1.40002
1.56213
1.40001
1.40001
1.58159
1.8412
1.40001
1.04641
1.40001
1.40001
1.40001
1.3969
1.40001
1.84042
1.84167
1.40001
1.03008
1.40001
1.64
1.03766
1.40001
1.2885
1.40001
1.39622
1.02589
1.40001
1.40001
1.40001
1.39617
0.998809
1.40001
1.03614
1.39841
1.63474
1.79151
1.03109
1.03404
1.40001
1.39081
1.40001
1.39865
1.40001
1.84009
1.84288
1.40001
1.40611
1.84052
1.8407
1.40001
1.40001
1.84152
1.40001
1.40001
1.40005
1.40001
1.84772
1.40001
1.40001
1.41869
1.40001
1.39856
1.07693
1.40001
1.40001
1.40001
1.40001
1.40001
1.84134
1.42618
1.40006
1.40001
1.40001
1.40001
1.40001
1.40001
1.40004
1.40001
1.04943
1.49563
1.39862
1.82516
1.8398
1.40001
1.4146
1.84093
1.78213
1.40001
1.40001
1.0499
1.84197
1.40001
1.8411
1.40001
1.83964
1.69791
1.04365
1.40001
1.03827
1.81911
1.39969
1.40001
1.0403
1.05531
1.40001
1.40001
1.77448
1.40001
1.4
1.0426
1.40001
1.40001
1.40001
1.53922
1.40001
1.04435
1.84161
1.40001
1.40001
1.40001
1.40001
1.84202
1.40001
1.40001
1.84196
1.79698
1.40001
1.40001
1.40001
1.84653
1.03104
1.40001
1.84024
1.84186
1.40001
1.75285
1.4
1.40004
1.40001
1.40001
1.81599
1.4063
1.40001
1.03295
1.63926
1.40001
1.40001
1.39755
1.40001
1.40001
1.83853
1.40001
1.40001
1.40003
1.40001
1.84027
1.40001
1.40001
1.40001
1.40001
1.40001
1.40001
1.40002
1.58925
1.40001
1.84244
1.40001
1.40001
1.8433
1.40001
1.40001
1.40001
1.8413
1.84504
1.44533
1.40001
1.39765
1.40001
1.40001
1.40001
1.40001
1.84026
1.40001
1.40001
1.84067
1.02656
1.40001
1.40001
1.40001
1.40001
1.40001
1.40001
1.75787
1.40001
1.40001
1.84084
1.84037
1.40001
1.40001
1.40001
1.83989
1.83884
1.40001
1.39967
1.84054
1.40001
1.40001
1.40001
1.40002
1.04869
1.42979
1.3963
1.39605
1.40001
1.40001
1.04458
1.84056
1.40001
1.04461
1.40001
1.84267
1.82388
1.03695
1.39941
1.84178
1.8399
1.8407
1.40001
1.40001
1.32371
1.81402
1.76909
1.05299
1.40001
1.40001
1.40001
1.84271
1.84158
1.01772
1.3973
1.40001
1.84166
1.07335
1.40001
1.82899
1.04563
1.37023
1.40653
1.40001
1.83919
1.40001
1.40001
1.40001
1.40001
1.40001
1.40001
1.40012
1.81239
1.40001
1.40001
1.83871
1.40001
1.40001
1.40001
1.84142
1.40001
1.04649
1.40001
1.40001
1.40001
1.55086
1.40001
1.40001
1.40001
1.40001
1.40001
1.16315
1.40001
1.0712
1.40001
1.84224
1.40008
1.2455
1.25577
1.40002
1.40413
1.63578
1.40001
1.40001
1.02924
1.84171
1.84236
1.84141
1.40001
1.03241
1.04159
1.40001
1.84098
1.40001
1.40001
1.40001
1.40001
1.40001
1.40004
1.40001
1.03676
1.69052
1.40001
1.40001
1.03967
1.38381
1.40001
1.40001
1.40001
1.40001
1.01899
1.40001
1.09686
1.40001
1.40001
1.84666
1.40001
1.40001
1.04284
1.40001
1.84156
1.40001
1.02045
1.40001
1.04774
1.40001
1.40728
1.84282
1.85281
1.40001
1.40001
1.8384
1.40001
1.40001
1.49484
1.3968
1.40001
1.39816
1.40001
1.84417
1.40001
1.00314
1.40002
1.8396
1.39906
1.40001
1.40001
1.20048
1.40001
1.39898
1.04056
1.84412
1.56218
1.40001
1.40001
1.29114
1.40001
1.40001
1.40001
1.18945
1.40001
1.40001
1.40001
1.84179
1.40001
1.04397
1.4
1.40001
1.40001
1.40001
1.02522
1.84116
1.81139
1.04451
1.40001
1.84833
1.40001
1.40001
1.84164
1.83983
1.7718
1.03962
1.39774
1.39924
1.40001
1.84151
1.40001
1.40001
1.40001
1.40001
1.84166
1.40005
1.40001
1.40001
1.83956
1.40001
1.40001
1.84165
1.04848
1.40001
1.40001
1.40001
1.03279
1.40001
1.4
1.4
1.39865
1.40001
1.40001
1.40001
1.40001
1.74229
1.40001
1.84102
1.84086
1.8504
1.84269
1.84311
1.84153
1.40001
1.84352
1.40001
1.8426
1.84165
1.40001
1.39889
1.03439
1.77778
1.39991
1.40001
1.40001
1.40001
1.40001
1.39222
1.40001
1.46657
1.40001
1.40001
1.40001
1.23163
1.84196
1.84197
1.84809
1.79126
1.39988
1.40001
1.42206
1.84292
1.39789
1.45834
1.39712
1.03027
1.40001
1.40003
1.40001
1.40001
1.40001
1.40001
1.40001
1.84128
1.04306
1.84127
1.84167
1.39508
1.02754
1.40001
1.40001
1.40001
1.8424
1.02396
1.79051
1.03354
1.84186
1.84684
1.04848
1.83839
1.42274
1.40001
1.84503
1.18844
1.40001
1.39869
1.04695
1.40001
1.05826
1.40001
1.84174
1.8414
1.14775
1.40001
1.84123
1.03856
1.40001
1.0249
1.40001
1.84216
1.40001
1.40001
1.82731
1.40001
1.23118
1.40001
1.39969
1.061
1.83348
1.39949
1.40001
1.03862
1.40001
1.40001
1.40001
1.40001
1.64233
1.40001
1.84131
1.40001
1.40001
1.84482
1.40001
1.40001
1.84018
1.40001
1.05596
1.40001
1.03042
1.40002
1.40001
1.40001
1.40001
1.40001
1.82272
1.66235
1.84193
1.40001
1.84226
1.81075
1.03079
1.04728
1.40001
1.40001
1.83943
1.40001
1.05903
1.40001
1.38192
1.40001
1.40001
1.84024
1.40001
1.84269
1.04345
1.84632
1.40001
1.0404
1.40001
1.40001
1.84485
1.84039
1.40001
1.40004
1.40001
1.84392
1.40001
1.40001
1.03222
1.39938
1.0665
1.40001
1.40001
1.40001
1.84386
1.84474
1.84086
1.40001
1.40001
1.04697
1.40001
1.83957
1.40001
1.40001
1.40001
1.83101
1.84212
1.84274
1.02123
1.84434
1.84166
1.04958
1.83879
1.40005
1.05417
1.40603
1.40001
1.40001
1.8427
1.01778
1.68372
1.01996
1.8416
1.39746
1.02921
1.84427
1.40001
1.40001
1.40001
1.40001
1.84138
1.83913
1.04327
1.40001
1.40003
1.04172
1.40004
1.40001
1.03607
1.01312
1.70562
1.83899
1.39848
1.84229
1.40001
1.84327
1.19284
1.0245
1.84161
1.8455
1.40001
1.84169
1.40001
1.40001
1.84091
1.40001
1.74726
1.83954
1.40001
1.40001
1.40001
1.40001
1.84252
1.83671
1.84071
1.40001
1.40001
1.84
1.84371
1.84088
1.40001
1.84199
1.40001
1.40001
1.40001
1.40001
1.40001
1.03339
1.23842
1.04175
1.40001
1.40001
1.84249
1.40001
1.40001
1.8416
1.01618
1.40001
1.84206
1.83699
1.82287
1.01989
1.40001
1.02537
1.40001
1.40003
1.84257
1.61024
1.83987
1.80367
1.40001
1.0483
1.40001
1.84707
1.71685
1.01635
1.40001
1.40001
1.40001
1.19651
1.40001
1.40001
1.84284
1.40001
1.0296
1.84184
1.40001
1.40001
1.40001
1.40001
1.40001
1.75553
1.50437
1.40001
1.84188
1.40001
1.84064
1.40001
1.39748
1.40001
1.8421
1.84418
1.84151
1.84471
1.39959
1.84015
1.40001
1.84189
1.84131
1.77507
1.40001
1.40001
1.03875
1.83917
1.40001
1.40001
1.84078
1.84161
1.84442
1.40001
1.84203
1.40001
1.40001
1.40003
1.84457
1.84414
1.52719
1.49549
1.84168
1.84269
1.09794
1.40001
1.40001
1.40001
1.40001
1.40003
1.55805
1.40001
1.40001
1.76309
1.06665
1.39998
1.40001
1.84132
1.3999
1.39981
1.4681
1.79834
1.83872
1.30292
1.40001
1.05706
1.40001
1.40023
1.84132
1.84467
1.82901
1.39897
1.40001
1.40001
1.02441
1.40001
1.40001
1.84127
1.44722
1.40001
1.40001
1.40001
1.40001
1.40001
1.40001
1.40001
1.39994
1.83994
1.40002
1.40001
1.40001
1.40001
1.40001
1.68
1.40001
1.60957
1.40001
1.40001
1.84175
1.84333
1.02592
1.39881
1.40001
1.4
1.40001
1.03335
1.84031
1.84169
1.40001
1.40001
1.40001
1.40001
1.40001
1.40001
1.40001
1.40001
1.84108
1.84705
1.01775
1.44887
1.04073
1.40001
1.03024
1.40001
1.84186
1.52378
1.40001
1.40001
1.08761
1.40001
1.82354
1.21261
1.39739
1.02082
1.40001
1.40001
1.84071
1.40005
1.39744
1.02464
1.83896
1.85127
1.40001
1.40001
1.40001
1.40001
1.81361
1.40001
1.40001
1.8419
1.39894
1.84116
1.40002
1.40001
1.40001
1.03628
1.40001
1.40001
1.84289
1.01765
1.17447
1.03552
1.8413
1.39927
1.40001
1.8406
1.02559
1.02354
1.40509
1.40001
1.40001
1.83846
1.40004
1.5989
1.40001
1.40001
1.8425
1.04771
1.40001
1.40001
1.40013
1.84144
1.40015
1.84548
1.40001
1.40004
1.40001
1.40001
1.10748
1.40001
1.17964
1.40003
1.40001
1.83932
1.04226
1.40001
1.18377
1.18852
1.40001
1.40001
1.84291
1.40001
1.40001
1.40001
1.84054
1.84055
1.40006
1.83684
1.83761
1.17227
1.84192
1.82418
1.40001
1.40001
1.84321
1.4
1.40001
1.40001
1.40001
1.40001
1.83883
1.84187
1.40001
1.40001
1.40001
1.8429
1.4002
1.40001
1.04723