/*--------------------------------*- C++ -*----------------------------------*\
  =========                 |
  \\      /  F ield         | OpenFOAM: The Open Source CFD Toolbox
   \\    /   O peration     | Website:  https://openfoam.org
    \\  /    A nd           | Version:  12
     \\/     M anipulation  |
\*---------------------------------------------------------------------------*/
FoamFile
{
    format      ascii;
    class       volScalarField;
    location    "4.97";
    object      p;
}
// * * * * * * * * * * * * * * * * * * * * * * * * * * * * * * * * * * * * * //

dimensions      [1 -1 -2 0 0 0 0];

internalField   nonuniform List<scalar> 
22702
(
1
1
0.872595
1
1.06123
1
1.46974
1
1
0.679327
1.47232
1.46955
1
1.46979
0.889402
1
1
1
1.47249
1
1.46887
1
1.4708
0.629542
1.48132
0.666501
1
1.47097
0.664443
0.630589
1
1.46971
1
1
1
1.43343
1.48284
1.47048
1
1
0.699364
1
1.22434
1
1.47016
1
1
1
1
0.656212
1
0.65165
1
1.47218
1
1.47067
1
1
1
1
0.650536
1
1
0.656039
1
0.660692
1
1
1
0.674097
1
1.47087
1.2852
1
1.47107
1.4972
0.647726
1.4729
0.656242
1
1.4727
0.655858
1.46962
1.47323
1
1
1
1
0.92999
0.670404
1.4706
1
1
0.657887
1
1.46973
0.66105
1
1
1
1
1.22517
1.47209
0.67722
1
1
1.11125
1
0.656144
1
1.47036
1.46966
1
1
0.653
0.649742
0.673654
1
1
1
1
1
0.915401
1
1.40156
1.04165
1.47199
1
1.47001
1.47236
1.4714
1.47542
1
0.678781
1
0.647684
1
1
1
1
1.46971
1
1
1
1
1.47268
1
1.02623
1
1
1
1
0.65037
1
1.01086
1
0.655572
1
1
1
1.46923
1
1.47166
0.635035
0.658048
1.47108
1.47092
1
1.07886
1.26867
1
1.47307
0.655996
1.43289
1
1
1
1
1.46715
1.39658
1
1.47231
0.653045
1.47219
1
0.68912
1
0.651087
0.65633
0.999782
1
1
1.46955
1
1
1.47111
1
1.46819
1.47181
0.656184
1
1
0.658386
1.4712
1
1
1
1.47123
1
0.664709
1
1
1.47163
1.47177
1.46893
1
1.00004
1
1
1
1.47758
1
0.656543
1.48995
1.47116
1.47419
1
1
1
0.647685
1.47308
1.21859
1
1.47373
0.672488
0.671395
1.47401
1.47381
1
1.46656
0.670968
1.41544
1
1
1
1
1.47136
1
1.26826
1.04381
1
1
1.47221
0.647854
0.778795
1
1.47102
0.656833
1.46706
1
1
1
1
1
1
1
0.659296
0.771961
0.672998
1.47107
1
1
1
1
1.42839
1
0.658373
1
0.637649
0.658579
1.47025
0.654694
1.4753
1
1
1
0.997654
0.688267
0.666574
0.999999
1
0.638694
1
1.47087
0.673587
1
1
1.47568
0.643651
1
1.46927
0.652685
1.47225
1
0.642971
0.997711
1
1
1
0.660315
1
1
0.999999
1.00001
1.02321
1.28598
1
0.672942
1
1
1
1
1
1
1
1.47608
1
1.47103
1
1
1
0.663769
1
1.47231
0.670536
1
1.35002
1
1
1.47299
1
1
1
1.4587
1
1
1.45228
1.47238
1
1.09007
1
1
0.651884
1
1
1
0.643635
1
1
1
1
0.662835
1
1
1
1
1
0.667461
1.00006
1.47112
1
0.99999
1.47084
1.47133
1
1
0.665452
0.819436
1.4693
1
1
1
1.47191
0.676657
1
1.47187
1
1
0.695087
0.690771
1
0.673221
0.676388
1
1
1
1
1
1
1
1.47489
1.11199
1.44725
0.664438
0.917785
1.47075
1
1.47212
1.46992
0.664237
0.785569
1
0.664263
1
1.4828
1
1
1
1
1.47138
1
1
1
1
1
1
1
1.17115
1.46917
1
1.47143
1
1
0.658546
1
1
1
1
1.47125
1.35271
1
1
0.673778
1.47126
1.47139
1
1.47159
1.47128
1.47175
1
0.830851
1
1.47072
0.982551
1.47178
1
0.669195
0.998868
1.47202
1
1
1
1
0.658769
1.47158
1.42347
1
1.47624
1.47123
1.47003
1
1.21905
1.46434
1
1
1.3249
1.06123
1.47147
0.930827
1.47148
1
1.4719
1.47203
1.47186
1.47122
1
1.44502
0.917025
0.8753
1
0.999999
1
1
1.47809
1
1
1
1
1
1.47136
1
1
0.99629
1.47134
1.4106
1
1.39402
1.00004
1
1
1.47043
1
0.9967
1.00495
1
1.47234
1
1.47229
1
1
1.34414
1
1.47123
1.00002
1
1.46819
1
1.47119
1
1
1
1.47125
1
1.47365
1.00001
1.47145
1.47155
1.47193
1.47475
1
1.47181
1.47101
1
0.63653
1.44069
1.33761
1
1.47125
1
0.649977
0.646134
1
1
1
1
1
0.663669
1
1.47127
1.12303
1.47095
1
1
1
1
1
1.47152
1
1.47298
1.27055
0.784113
1
1.00001
1.12576
1.11262
1
1
1.15963
1
0.659766
1.47026
1.47055
1
1
1
1.47072
1
1.00003
1.48005
1.47178
0.94618
1
1
0.662273
1.42577
1
1
1
1
1
1.47126
1.47162
1
1.46866
1.47379
1.47222
1
1
1
1
0.672622
1.4715
1
1
1.42878
1.4703
1
1.44342
1.46904
1
1
1
1
1
1.47221
1
1
1
1
1.47716
1
1.46129
0.654923
1
0.664297
1
1
1
0.996848
0.651027
0.999013
1
1
1
1.06292
1
1
0.866816
1
1
1
1
1
1
1
0.999997
0.940975
0.999999
1
0.997627
1
0.660611
1
1
1
1
1.34642
1
1
1
1
0.6788
1
1
1.44242
1.4726
0.999999
1
1
0.865458
1
1
1
1
1
1
0.952985
1.01794
1.47501
1
1
1
1.4717
0.905303
1
1
1
1.47038
1.46981
1
1.00001
1
1
1
1
1
1
1
0.664436
1
1
1.47077
0.665186
1
1.47129
1
0.651289
1
1
0.662277
1
1
1
1
1
1
1
1.46151
1.4704
1
1
1
1
1.42932
1
1.14771
0.659968
1
1
1
1
1
1
1
1.03099
1
1
1.23703
1
1
1
1.38496
1
1
1
1
0.659003
1
1
0.670952
0.661325
1
1
1.47084
1
1.03111
1
1
1
1.32724
0.636559
1
0.624483
1
0.759141
1
1
1
1.47052
1
1
1.47064
1
1
1
1.47067
1
1
1.47127
1
1
0.665081
1
1.15067
1
1
1.46904
1.47305
1.31075
1.41942
1
0.666404
1
1
1.44941
1
0.65452
1
1
1
1.47164
1
1
1
1
1.27458
1
1.42323
1.47506
0.654315
1
1
0.669518
0.66942
1
1
1
1.32971
1.35105
1
1
1
1
1
1
1
1.19879
1.47449
0.998358
1
1.46277
0.678962
1
1
1
1.25025
1
1.08347
1
1.42895
1.46909
1
0.671105
1
1.47133
1
1
1.47171
1.44109
1
1.47527
1
0.646792
1
1
1
1.48012
1.46136
1.41243
1
1.46885
1.47185
1
1.4723
1
1.46973
1
0.657182
0.968365
0.65926
1
1
1
1
1
1.4719
1
1.47205
1
1
1
1.44719
1
0.63794
1.4708
1
0.659296
0.653111
0.64107
1
1.23049
1.04824
1.47386
1.47167
1
0.999999
1
1
1.47132
1
1
1.47153
1.4719
1
1.15709
1.0002
1
0.996899
1.46959
0.865319
1
0.837435
0.663643
0.657104
0.964217
1.47109
1.46503
1.09977
1.47138
1.47184
1
1
1.47609
1.4702
1.47232
1.46992
1
1.47124
0.637912
1.47478
1.47061
1.47099
1.47036
0.846847
0.898242
0.934941
1.47123
0.971288
1.46955
1
1
1.47398
1.47183
1
0.664738
1.47005
1.47115
1
1.47183
1.47085
1
1.47156
0.676277
1.47488
1.47611
1.47131
1.4672
1
1
1
1.47088
1.30093
0.680878
1.47079
0.668689
1.47074
1
1
1
1
1.47355
1.47102
1
1
1.47103
0.672819
1.47281
0.659286
1
1.46826
1
0.682697
1.47292
0.722288
1
1.47103
1.47463
1.47184
1
1
1.20599
1.47368
0.65309
1.47108
1
1.47286
0.8908
1.46902
0.672497
1
1.47199
0.668461
1.47383
0.652976
1
1.47157
1
1.46973
1
1.2719
1.45235
1.36932
0.671471
1
1.47193
1
1.47262
1
1.47226
1
1
1.4714
0.981233
1.47506
0.670484
1.42204
1
1.33184
1
1.47033
1.47163
1.47114
1
1.42182
1.4711
1.43382
1.28002
1.47154
1
1.30904
1
1.47289
1
1.07044
1
1.43533
1
1.47134
1.4487
1.44794
1
1.46714
0.638969
1
0.658494
1
1
1
1.46935
1
1.47231
1
1
1
1.47214
1.45882
1.38334
1.47368
1.4741
0.659738
1.46803
1.46608
1
1.40191
1.47131
1.46226
1
1.47249
1.47018
1
1.47972
1.47185
1.4704
1.47275
1
1
1
1.47296
0.664371
1
1.47196
1
1
0.645445
1
1
1.47069
1.47217
1
1.47132
1.47697
1.47153
0.97019
1.47147
1
1.47154
1.47237
1.37217
1
1
1
1.47419
1.47176
1.47221
0.937
1
1.47589
1.47192
1.47046
1
1.47142
1.47293
1.47103
1.47811
1
1.4712
1.46837
1.40451
1.47286
1.47681
1
1.48102
1.46566
1.4725
1.47706
1.471
0.659054
1.47086
1.47317
1
1.47176
1.47142
1.47136
1.47251
1
1.46985
1.47176
1
1.4713
1.39581
1
1
1
1.47521
1.46529
1
1
1.24957
1
1.47571
1
1
1.47153
1.47179
1.47115
1.47196
1
1
1
1.32315
1
1.47151
1
1
1.47317
1.4765
1
1.47152
0.608778
1.4717
1.47296
0.726621
1
0.638409
1.40468
1.47229
1.46951
1.46961
0.657991
1.47137
1.47318
0.658607
0.668932
1
1.47291
1.47149
1
1
1.4704
1
1.46982
1
1.41097
1
1.21991
1.4694
1.47419
1.32413
1.43905
1.46701
1.47194
1.43972
1
0.671381
1.47517
1.47336
1.47651
1.00001
1
1
1.47819
1
1.47316
1.47048
0.736905
1
1.47087
0.999941
1
1.00003
1.00004
1.47379
1.47233
0.998456
1
1
1.47262
1.47399
1.47269
1.47256
1.47153
0.628845
1.40344
1
1.46794
1.47122
1.47161
1.46521
1
1.47108
1.45809
1.4737
1
1.47204
1.4732
0.840461
1.47085
1.47291
1
1.47168
0.818921
1.47202
0.854478
1.47149
1
1.47151
1.48199
1.47162
1.4723
1.47165
1.47055
1.47304
1.46876
1
0.92851
1.47212
1.47094
0.836536
1.47115
0.978848
1.28941
1.47186
1.471
1.47614
1
1.47504
1.30928
1.4699
0.910421
1.47471
1.47847
1
0.86671
1
1.47027
1
1.31688
1
1.45506
0.890972
1
1.47811
1.46536
1
1.4733
1.47405
1.46507
1.46811
1.47935
1
1.47268
1
1
1
0.921391
1.47114
1.47384
1.47785
1.47147
1.46856
1.47928
1.47085
1.47214
0.927492
1.03103
1
1
1.47938
1.47209
1.47138
1.47179
1.00003
1.23543
1
1.47857
1.42259
1
1
0.77572
1.47244
1
1
0.641734
1.47184
1
1.46976
1.47092
1.46628
1.45284
1.4711
1
0.672845
1.10943
1.47143
1.47162
1
1.47064
1.47071
1.22212
1.01043
1.10841
1
1.46942
1.47117
1
1
0.658253
1
1
1.47145
1.47199
1.47166
1.47337
1.47247
1.47505
1.47161
1.47438
1.47182
1
0.996017
1.47161
1.47261
0.99708
1.47165
1.47101
0.676504
0.663947
1.47056
1.48011
1
1
1.00185
1.47179
1.47168
1.472
1
1.47094
1
0.851402
1.47823
1.4788
1
1.21672
1.47182
1
1.47309
1
1.47169
1.30317
1.47388
1
1.47019
1.47616
0.659531
1.47088
1
1.4726
1.47456
1
0.673957
1.46937
1.39738
0.9978
1.46407
1.47163
1
1.00422
1.47891
0.998371
1.47113
1
1
1.47381
1
1.4768
1.47096
0.996393
1.37006
1
1.47091
1
1
1
1
1.47192
1
1
1.47133
1
1.47158
1
1.29741
1.46828
1.47362
1
1
0.982242
1
1.4717
1.47249
1.4734
1.47159
1.47232
1.47123
1.47141
1
1.47232
1.47167
1
1.47104
1.47203
1
1.47381
0.950759
1.05952
1.47274
1.47205
1.47112
1
1.47147
1
1.47193
1.47156
1
1.46973
1
1
1
1
1.4702
0.651036
0.997877
1
1.47167
1.47552
1
1.47162
1
1.00511
0.639833
1.47112
0.999601
1
1.47326
0.998298
1.47158
1
0.999775
1
1.47288
1.47492
1.47171
1.47073
0.651378
1.47051
1.46981
1.47127
1.1163
1
1
1.19905
1.47242
0.641584
0.649285
1
1.47171
1.47176
1.4715
1
1
1.47274
1.47138
0.999876
1
1.33379
0.612706
1
1.08207
1.47259
1.46521
0.998274
1.47232
1.47735
1
0.999067
1
1.4745
1.46954
1.18642
1
1.43846
1
1.00185
1.47416
0.697836
1.47031
1.47193
0.997007
0.999909
1.4055
1
0.999683
1
1.47224
1
1.00001
0.606271
1.4701
1.00001
1
1
1
1.47739
1.26236
1
1
0.65675
1.47138
1.26318
1
1
1
1.44455
1.46871
1.47303
1
1
1.46817
1
1.47103
1.47176
1
1
1.47092
1.4721
1.44669
1
1
1.47183
1.47268
1
1
1
1.47301
1
1
1
1.46987
1.47444
1.47325
1
1.47907
1.00003
0.722905
1.47043
1.4707
1
1.47342
1.46642
1.4725
1
1
1.47491
1
1.23533
1.47214
1
0.66726
1
1.47514
1
1
1.46744
1
1
1
1.14507
1.47125
0.714627
1.00001
1.47498
1
1
1.47222
1
1.47481
1
1
1.47293
1.47202
1
1.00005
1
1
1
1
1
1
1.47572
1.46984
1
1.47014
0.666503
1.47741
1
1.46995
1.47499
1.47184
1.48036
1.47398
1
1
1.46709
1
1.29428
1.47713
1.4717
1
1.47633
1.47732
1
1.43776
1
1.47016
1.29957
1.46842
0.997372
1.46739
1.43212
1.47505
1.47216
1.03709
1.47105
1.47518
1
1.47166
1
1.47166
1
1
1
1
0.996713
1.47224
1.47213
1.40647
1
1.47488
1
1
1
0.672458
1
1.45843
1
1.43186
1.45241
1
1
1
1.44529
1.4722
1
1
1.4703
0.648298
1.09872
1
1.47509
1.47101
1.43242
1.46054
1.47101
1
1.46998
1
1
1
1
1.47217
1.47271
1
1.46241
1.06765
1.4711
1.43968
1
1
1.44458
1
1
0.655544
1.32766
1
1
1.47053
1
1.47648
1.42445
1
1.42351
0.654707
1.47087
1.47043
1.47377
1
0.675205
1
1
1
1.47138
1.37346
1
1.47554
1.47114
1
1.47048
1
1
1
1
1.47129
0.999331
1
1.47191
1
1
1.4773
1.47273
1
1.47785
1.09199
1.00002
1
1.47288
1
1.47285
1
1.01069
1.47126
1
1.47266
1
1
1.14905
1.47011
1
1
1
1
1
0.995682
0.649169
0.67317
1.02105
1
0.997955
1
1.00222
1
1.47135
1
1.27027
1
1.47245
1
1
1
1.47234
1
1.36277
1.47057
1
1.24501
1.47323
1
1
1.46928
1.47038
1
1
1.03483
0.675753
1
1.47271
1
1
1
1
1.07762
1.47249
1
1
1
0.659266
1
1.47302
1.4723
1.48105
1
1
1
1
1.23783
1.47299
1
1
1
1.46995
1.47218
1.05898
1
1
1
1.47111
1.47226
1
0.66444
1.47184
1.47192
1.47305
1.46875
1.47573
1
1
1.4747
1.47404
1.47141
0.658798
1.0401
1.47164
1
1
1
1
1
1.47133
0.651677
1
1
1.47126
1.20067
1
1.47298
1
1
1
0.678193
1
1
1.12692
1.47163
1.47212
1
1.47725
1.47102
1
1.09349
1
1.46891
1
1.4713
0.647839
1
1
1
1
1.47033
1.00007
1
1
1
1.4607
1
1
1
1
1.47169
0.67765
1.3643
1.47537
1
1.47025
1
1
1
0.997158
1
1.47925
1
0.791191
1
1
1.00004
1.47337
0.647916
1
1.47448
1
1.47641
1.474
0.666232
1
1
1.45998
1
1
0.645976
1
1.47233
1
1.44972
0.999398
1.47289
1
1
1
1
1.47387
1
1
1.47143
1
1
1
1
1
1
1
1
1.30118
1
1.1532
1.47044
1
1
1
0.668793
1
1
1
1
1.47517
1.47148
1.04261
1
1
1.47429
1
1
1.46983
1
1.00002
1
1
1
1.00001
1.47303
0.764754
1.47131
1.47274
0.997134
1
1
1
1.27203
1
1
1.47373
1.47272
1
1
1
1
0.669449
1
1
1
1.29307
1
1.47189
1.47445
1
1.47298
1
1
1
1.24636
1
1.47136
1
1.47141
1
1
0.996246
1.47175
1
1
1
1
1
1.46762
1.00002
1
0.65512
1.46827
0.633184
1
1.47027
1
0.995716
1
1.47185
1.47785
1
1.46419
0.877547
1.47112
1.46411
1.00003
1
1
0.665603
1
1
1
1.47202
1.26958
1.47192
1
1
1
1
0.996864
1.46907
1
0.651254
1
1
1
1
1
1
1
1.47967
1.47267
1.47842
1
1
0.996901
1
0.963399
1
1
1
0.654061
0.950666
1
0.65775
0.673334
1
1.47176
1.4716
1
1.46877
1.4715
0.661844
1.31144
1
1
1
0.651023
1.47083
1
0.657937
1
1.47931
1.05397
1
1
1
1
1.47309
1.47069
1
1
1.47264
1
1
1.47052
1.47206
1
1.42817
1.47255
1.47272
0.990213
1.47494
1.00868
0.654421
1.35943
1.47003
1
1
1
0.653096
1
0.647831
1.46786
0.968679
1.47153
0.940028
1
1.47308
1.21525
1
1
1.47508
1
1.19018
1.47101
1
1
1.46953
1.47466
0.669211
1.26523
0.999895
1
1.29039
1
1.47336
0.946083
1.48211
1.46993
1
1
1
1
1.45502
1
1
1.47254
0.999636
1.47231
1.3764
1.47054
0.658346
1
1
1
1
1.47111
1.00004
1.47283
1
1.47178
1.47343
1.05745
1.47944
1.14543
1.47243
1
1.31299
0.687843
1.47082
1.47199
1.37311
1.05274
1.47073
1.47114
1.47111
1.47003
1
0.924511
1.06433
1
1.47237
1.22089
1.47239
1.00003
1
1
0.726674
1.47394
1.47124
1.38371
1
1.1764
1
1.47546
1.47693
1
1.47438
1.47148
1
1
1
1.46882
1
1.18137
1.47404
1.32482
1
1.47298
1
1
1
1
1
1
1
1
1
1
0.716731
1
1.43078
0.661352
1.26843
0.998578
1.47766
1
1.24586
1.00001
1.29742
1.395
1
1.00293
1.47689
0.920642
1
1.47241
1.45741
0.972931
1
1.47477
1.47113
1.47428
1
1.47174
1.47328
1.4688
1
1.20281
1
1.00006
1.47234
1
1.47217
1.06677
1.46949
1
1
1.47498
1.47357
0.691882
1
1.46981
1.351
1.46846
1
1
1.47206
1.47063
0.998243
1
1.42314
0.996892
1.47152
1.00007
1
1
1
1
1.20338
1
1.35765
1.47353
1.34813
1.47291
1
1.00414
1
1
1.47204
1
1.46906
1
1
1
1
0.999999
1
1.05747
1.24323
1
1
0.658713
1
1.47402
0.687754
1.47771
1
1.2406
0.999745
1.47191
1.29914
0.665448
1.25099
1.00003
1.47234
1.47516
1
1.28246
1.47215
1.46954
0.998405
1.47973
1.45543
0.618459
1
1
0.99802
1
1.47135
1
0.657618
1.47543
1
1
1.4127
1
1.47416
1
1.47027
1
0.683312
1
1
1.47052
1.47272
1.46769
1
1.46893
1.47148
1.46262
1
1
1.45949
0.999999
0.728342
1
1
1
1.47171
1
1.47168
1.30012
1.47477
1
1.47125
0.999381
1
1
1
1
1
1
0.723162
1
1
1.47179
1
1.47384
1.46689
1
0.653679
0.665108
1
1.47377
1.06942
0.656714
0.630792
1
1.47358
1
1.47224
0.653891
1.00115
1
1
0.999506
1
1
1
0.999914
1.1797
1.47177
1
1
1.47215
1.27412
1
1.41831
1.46737
1.47134
1.17441
1.45935
1
1.46562
1
1.44803
1
1.46957
1.46759
0.997081
1.4694
1.46562
1
1
1
1
1
0.901987
1.47132
1.00004
1.00003
0.690383
0.999978
0.655873
0.675759
1
1.47172
1.47167
1.47311
1
1.47142
1
0.661721
1
1
1.47382
0.829349
1.4675
1
1.47055
1
0.98938
1.47048
1
1
1
1.47045
1
1.47229
0.664253
1
1
1.27395
1
1
1.24887
1
1
1.47081
1
1
1
1
1
1.47581
1.46988
1
1.47238
1.47057
0.66214
1.21035
1.464
1
1
1.42351
0.99899
1
1
1.47167
1.46989
1.32282
1
1.47213
0.657779
1.42498
0.99946
1
1.47057
1.00003
1.47498
1.38208
1.35324
1
1
1.47272
0.757142
0.66851
1
1.47208
1
1.4733
1
1.27167
1
1
1.4685
1.2949
0.662231
1
0.998196
1
1
1.0251
1.18538
1.47294
1
1.47356
1
1
1
1
1
1
1.06929
0.64192
1
1
1.01288
1
1
1
1
1
1.47346
1
1
1.47119
1.47207
1.34754
1
1
1
0.841572
1.4762
1.32436
1
1
1
1
1.46992
1
1
1
1.47637
1
1
1.33343
1.48557
1.03501
0.753236
1.47645
1.33411
1.47037
1
1.23656
1
1
1
0.667148
1.00262
0.696914
1
0.654237
0.637244
1
0.672233
1
1
1
1.20957
1
1.47184
1.47244
1.00135
1.22987
1.39694
0.66723
0.770717
0.855229
1
1.47032
1.47345
1.47062
1.47247
1.40324
0.879085
1
1.40545
1
1.44776
1
1
0.9964
1.00965
1
1
1
1.47205
1
0.661043
1
1.47321
0.65624
1
1
1.47234
1
1.47033
0.999504
1
1
1.4739
1.41395
1
1.48861
1
1
1.01554
1
1.20831
1
1
0.669035
1
1
1.47496
0.999998
1.47283
1
1.00003
0.654412
1
1
0.662558
1.00089
1
1.47382
0.65742
1.47823
0.64802
1.46979
1
1
1
1
1
1
1
1
1
1
1
1.45099
1
1.47573
1.472
0.634134
1
1
1
1
1
1
1.45501
1
1
0.666894
1
1
1.47395
1
1
1.17142
1.39618
0.674988
0.655165
0.684442
0.755865
1
0.996645
0.688229
1.00031
1.4318
0.99696
1
1
1.47077
1
1
1
0.745088
1.00001
1.16973
1
1
1.19062
1.47053
1
0.657473
1
1
1
0.996664
1
1.47363
1.47101
1
0.643216
1
1.24636
0.653624
1
0.864956
1
0.996523
0.647243
1
1
1
0.995976
0.667186
1
0.65425
0.998406
1.24304
1.41817
0.646304
0.667623
1
0.990377
1
0.998634
1
1.47146
1.47231
1
1.01286
1.47113
1.47138
1
1
1.47105
1
1
1.00004
1
1.47366
1
1
1.01881
1
0.998562
0.701723
1
1
1
1
1
1.4694
1.00449
1.00005
1
1
1
1
1
1.00003
1
0.650545
1.10009
0.998598
1.45235
1.46556
1
1.01517
1.47204
1.4095
1
1
0.668506
1.47127
1
1.47156
1
1.46988
1.31205
0.653255
1
0.656336
1.42648
0.999672
1
0.646505
0.681228
1
1
1.39632
1
0.999998
0.637417
1
1
1
1.14308
1
0.632173
1.47129
1
1
1
1
1.47374
1
1
1.47541
1.42169
1
1
1
1.47905
0.656039
1
1.47271
1.47289
1
1.37361
0.999999
1.00003
1
1
1.43337
1.02828
1
0.656633
1.25149
1
1
0.997878
1
1
1.47258
1
1
1.00003
1
1.47094
1
1
1
1
1
1
1.00001
1.20626
1
1.47374
1
1
1.47351
1
1
1
1.4721
1.46274
1.04718
1
0.997584
1
1
1
1
1.47392
1
1
1.47159
0.663011
1
1
1
1
1
1
1.37866
1
1
1.477
1.47098
1
1
1
1.47198
1.47503
1
0.999653
1.47424
1
1
1
1.00002
0.650606
1.031
0.996092
0.99599
1
1
0.643659
1.47087
1
0.668365
1
1.47326
1.45149
0.674972
0.999406
1.47272
1.47117
1.47069
1
1
0.898522
1.41537
1.39169
0.685176
1
1
1
1.46934
1.47124
0.672472
0.997307
1
1.47181
0.642214
1
1.4538
0.652824
0.992941
1.00651
1
1.46931
1
1
1
1
1
1
1.00011
1.43751
1
1
1.47452
1
1
1
1.47096
1
0.649076
1
1
1
1.15562
1
1
1
1
1
0.787
1
0.636913
1
1.46956
1.00008
0.867392
0.872384
1.00002
1.00428
1.24468
1
1
0.643961
1.46975
1.46967
1.4704
1
0.668297
0.664451
1
1.47177
1
1
1
1
1
1.00003
1
0.658324
1.30031
1
1
0.675987
0.973063
1.00001
1
1
1
0.653888
1
0.674509
1
1
1.47675
1
1
0.64522
1
1.47048
1
0.66431
1
0.653572
1
1.0075
1.47226
1.48732
1
1
1.47118
1
1
1.08534
0.996796
1
0.998176
1
1.47483
1
0.671648
1.00002
1.47049
0.998851
1
1
0.761401
1
0.999069
0.669711
1.47268
1.16716
1
1.00001
0.900909
1
1
1
0.76136
1
1
1
1.4713
1
0.651892
0.999999
1
1
1
0.649222
1.47164
1.44918
0.677212
1
1.4708
1
1
1.47033
1.47104
1.39686
0.647089
0.997731
0.999249
1
1.4709
1
1
1
1
1.47352
1.00004
1
1
1.47064
1
1
1.47254
0.673771
1
1
1
0.656643
1
0.999999
0.999999
0.998661
1
1
1
1
1.35524
1
1.47161
1.4726
1.48123
1.47254
1.4737
1.47173
1
1.47509
1
1.47154
1.46841
1
0.99889
0.65355
1.40411
0.999894
1
1
1
1
1.01639
1
1.07004
1
1
1
0.85509
1.47226
1.47385
1.47527
1.41995
0.999867
1
1.0237
1.47363
0.997857
1.04575
0.997072
0.65837
1
1.00002
1
1
1
1
1
1.47369
0.65147
1.47316
1.47125
0.995009
0.62931
1
1
1
1.47138
0.640913
1.41553
0.640371
1.47126
1.47588
0.654143
1.46798
1.02425
1
1.47596
0.795468
1
0.998794
0.661369
1
0.657662
1
1.47104
1.47072
0.742471
1
1.47358
0.657856
1
0.662985
1
1.47228
1
1
1.45836
1
0.834068
1
0.999673
0.656957
1.46985
0.999483
1
0.658556
1
1
1
1
1.25587
1
1.47102
1
1
1.48606
1
1
1.47219
1
0.655374
1
0.660804
1.00001
1
1
1
1
1.4503
1.27338
1.47187
1
1.47148
1.4374
0.647522
0.656764
1
1
1.47112
1
0.656372
1
0.990136
1
1
1.4699
1
1.47095
0.656417
1.47141
1
0.658429
1
1
1.47863
1.46944
1
1.00004
1
1.46296
1
1
0.670784
0.99937
0.661321
1
1
1
1.47169
1.47541
1.47204
1
1
0.666551
1
1.46754
1
1
1
1.45965
1.47177
1.47281
0.640649
1.47426
1.47182
0.682822
1.47172
1.00004
0.697665
0.994082
1
1
1.47321
0.629612
1.29959
0.628913
1.47178
0.997439
0.677741
1.47433
1
1
1
1
1.47178
1.47144
0.659104
1
1.00002
0.656504
1.00004
1
0.648456
0.66859
1.32512
1.46792
0.998487
1.47045
1
1.48123
0.820894
0.659021
1.47224
1.48029
1
1.47383
1
1
1.47203
1
1.36334
1.47214
1
1
1
1
1.47274
1.46557
1.47102
1
1
1.47119
1.47533
1.47029
1
1.47253
1
1
1
1
1
0.637546
0.841363
0.657192
1
1
1.47262
1
1
1.47149
0.658192
1
1.47175
1.46597
1.45115
0.619793
1
0.655798
1
1.00003
1.47401
1.21717
1.47166
1.42724
1
0.682985
1
1.46308
1.33146
0.651436
1
1
1
0.812528
1
1
1.48029
1
0.660542
1.47176
1
1
1
1
1
1.3772
1.10578
1
1.47312
1
1.46629
1
0.997443
1
1.47145
1.47768
1.47143
1.47697
0.999583
1.47111
1
1.47141
1.47402
1.39997
1
1
0.654803
1.4693
1
1
1.4703
1.47325
1.47367
1
1.47166
1
1
1.00003
1.47574
1.46398
1.13126
1.09766
1.47185
1.47279
0.687522
1
1
1
1
1.00002
1.16205
1
1
1.37771
0.664597
0.99997
1
1.47069
0.999882
0.999791
1.07508
1.42196
1.46974
0.892436
1
0.660485
1
1.00641
1.47224
1.47348
1.46525
0.999007
1
1
0.666308
1
1
1.47178
1.04755
1
1
1
1
1
1
1
0.999936
1.47158
1.00002
1
1
1
1
1.29232
1
1.22239
1
1
1.47179
1.47689
0.66996
0.998807
1
1
1
0.662983
1.47069
1.47011
1
1
1
1
1
1
1
1
1.47015
1.47457
0.650051
1.04955
0.654415
1
0.675897
1
1.47143
1.12146
1
1
0.724082
1
1.44948
0.804978
0.997306
0.661662
1
1
1.47232
1.00004
0.997405
0.630179
1.46963
1.48341
1
1
1
1
1.4399
1
1
1.4706
0.998936
1.47229
1.00005
1
1
0.659598
1
1
1.47334
0.663895
0.771768
0.636638
1.4719
0.999369
1
1.46318
0.644575
0.655236
0.995472
1
1
1.47147
1.00004
1.20419
1
1
1.47474
0.653344
1
1
1.00013
1.47292
1.00013
1.46678
1
1.00003
1
1
0.722097
1
0.790933
1.00001
1
1.46804
0.654953
1
0.75898
0.79398
1
1
1.47246
1
1
1
1.47214
1.47013
1.00005
1.46739
1.47013
0.804525
1.47203
1.45044
1
1
1.47659
0.999999
1
1
1
1
1.47134
1.47188
1
1
1
1.47248
1.00021
1
0.637109
0.707281
1
1.00003
1.1677
1
1
0.895438
0.668371
1
1
1
1.47654
1.42852
1.47298
1
1
1
1
0.649024
1
1.47094
1
1.4642
0.675615
1.46953
1
1
1
0.65823
1
1.47305
1.00003
1
0.653184
1.17379
1
0.99967
1.46539
0.657811
0.658252
1
1.4712
0.678035
0.636449
1
0.655828
1.00001
1
1
1
0.631903
1
1
1
1
1.47232
1
1.35263
0.653401
1
1
1
0.667201
1.47117
1
1
0.996403
1.45618
1
1.47353
1.47084
1
1
0.719511
0.646973
1
1
0.65538
1.15295
1.21721
1
1
1.47126
0.997426
1
0.99779
1.47147
1
1
1
1
1
1
1.47403
1
1.16424
1.1527
0.691783
1.41814
1
1.47167
1.47251
1
1
1
0.919158
0.635456
1
1.22321
0.999634
1.40839
1
1
1
0.999999
1
1.00753
1.21205
1.47258
1.47263
1
1.47267
1
0.66971
1
0.997637
0.999783
1
0.651299
1
0.664783
1.00002
1.47452
1.47002
0.638281
1.47623
0.687504
0.996138
1.35594
0.680027
1.33348
1
1
0.998417
1
1
1
1.00006
1
0.656931
1
1
1
1
0.999578
1.47101
0.790489
1
1
1
1.0368
1
1
1
1.25904
0.751803
1
1
1
1.04382
1.46936
1
0.627837
1
1.47074
0.885188
0.659464
1
0.663888
1
1
1.44447
0.998268
1.45054
1
1.00891
1
1
1.47076
1
1
1
1
1.09451
1
1.47052
1.47169
1.47061
0.6334
1.4727
0.997099
1.38292
1
1
0.624223
1
1
0.641441
1.46925
1
1
0.999965
1
1
1
0.639305
0.643715
1
1.47373
1
1.21308
1.47133
0.671295
1.39368
1
1
0.655571
1
1
1.47154
1.47136
1.15782
1
1
1.00114
1.471
0.636607
0.639703
1.47077
1.47116
1.31991
1.17952
1
0.903108
1
1
1
1.45583
1.47412
1.47433
1
1
1.47122
0.654192
1.42565
0.636574
1
0.644059
1
0.66989
1.47112
0.644948
1
0.977169
0.713392
1
1
1
0.815207
1.44247
1.47138
1.47115
1.47436
1
1
1.47159
1
1
1.4723
1
0.642752
1
0.657458
1
1.471
1
1
1.02437
1.35677
1
0.998726
0.65452
1.47267
1.00001
0.631451
1.08507
1
1
1.35416
1.47111
1.472
1
1.47076
1.1033
1
1.02302
1.47135
1
1
1
1
1.47124
1
0.650311
1.47388
0.660335
0.653467
0.817439
1.47075
1.15861
1.46704
1
1.47407
0.997392
1.00003
1.47173
1.4699
1
1.47406
1
1.47119
1
1.47094
1
1.00004
1
1.47276
0.66239
0.634074
0.998002
0.999999
1
1
0.657952
1
1.30879
1
0.670414
1
1.18612
1.47345
1.46881
1
1
1.00003
0.999384
1
1.47157
1.47186
1
1.19294
1.47049
0.848345
1.47254
1.00048
0.63048
1.10144
0.638827
1
1
1.0772
1.47225
1
1
1.02544
0.998573
1
0.658429
1
0.792302
1
1.4752
1
1
0.644623
1.09982
1.05609
0.998517
1.47047
1.47211
0.759503
0.998118
0.652876
0.669205
0.667004
1
1
1
0.99906
0.706831
0.685655
1
1.47148
0.999746
1.47139
1.47307
1.47045
1.47096
1
0.677407
1.47288
0.689201
1
1.47157
1.47608
0.996693
0.816219
1.46848
1.34263
1
0.640844
1
1
1.47472
1
1.02625
1.46993
1
0.653569
0.654763
1
1
0.656637
0.65738
1.47103
1.00004
1
0.640133
0.632996
1.47149
1.45806
1.43901
1.47288
1.11837
0.970315
1.18052
1.47607
1.36382
1
1.24061
1
0.676379
0.835577
1
0.654258
1.47051
1.02296
1.47341
1
1.47169
1.4724
1
1.47101
1.47281
0.641404
1.47655
1
1.47375
1
0.736639
0.67143
1.4703
1
1
1
0.672098
1.47278
1.4708
1
0.655075
1
1
0.654462
1.00004
0.629809
1.47161
1
0.784136
0.639322
1
1
1.26199
1
1
1
1.07508
0.661382
1
1.00001
1
1.47096
0.654611
1
1.4716
0.643382
0.630216
1
1
1.47903
1
1.46999
1.00001
1.47117
0.655192
1
1
0.650068
0.807798
0.658835
1
1
1
1
1.46899
0.629748
1
0.671518
1
1.47111
1
1
0.924584
1
1
0.795017
0.999677
1.00005
1
0.647593
0.636303
1
1
1
1
0.784397
1.46907
1.47186
1
0.669097
0.654197
0.878883
0.652367
1
0.840146
1
0.653487
0.96902
1
1
0.647514
1
1.47153
1.45527
0.664953
1
1
1
1.46617
1
1.04123
0.824466
1.14781
0.663131
1.18711
0.63443
1
1
0.687444
0.903757
1
1.04412
1
1
0.665517
1
0.914102
1.06195
0.670501
1
1.37938
0.714871
0.894095
1
1
1
0.646896
1
0.673314
0.661508
1
0.882545
0.676517
1.07831
0.727768
0.646824
1.47191
1
1.4717
1.25218
0.735856
1.47186
0.658595
0.999031
1.4725
0.999999
1
1.46777
1
0.745772
1
1.08677
1
1
1.47122
1
0.80665
0.825917
1.4749
0.921419
1
0.747501
1.47131
1.47102
0.916762
1
1.47092
1.12274
0.863939
1
1.00908
1
0.650172
1.20423
0.76982
0.757684
1
1
0.667605
1.47153
0.941666
0.660784
0.668866
0.828656
1
1.02059
1.47153
1.47046
1
1
0.999999
0.655427
1.21666
0.99998
1.47106
1.42788
0.639521
0.999998
1.11028
0.89175
1.27013
1.40102
1
1.04138
1
1.00005
0.633106
0.854656
1
1
0.804791
0.637172
1.05458
1
1.00002
0.635127
1.21106
1
1.47368
1
1.03699
1.25198
1
1.46923
1
1
1.47265
1
0.636393
1.47111
0.708051
1.11727
1
0.670346
0.99991
1
1.00003
1
0.771992
1.02718
0.648215
1.35118
1.47253
0.631848
1
1
1
1
1
0.956398
0.682095
1.0452
0.655482
0.662737
1.08188
1
0.999809
1.12108
1
1
0.677994
0.989066
1
1
1.13435
1
1.47094
1
1.47007
1.07389
1.03797
0.661846
1
1
0.64536
1
1
1
1
1.47279
1.04331
0.998007
1
0.638694
1.05181
0.999999
1
1.30837
1
0.654942
1.47253
1
1.00001
1
1.47374
0.65428
0.869575
0.637125
1.34961
1.47062
1
1
1.47095
1
0.635416
1
1
1
1
1
0.765719
1
1.47349
1
1
1.15776
1.47131
0.664265
0.870029
1
1.47413
1
1
1
1
1
1.47126
1.47005
0.65731
1.4717
0.641108
1
1
1.47212
1
1.46933
0.997018
1.02798
1.0453
1.47282
1.07066
1.31489
0.65606
1
0.656325
1.01616
1
1.47148
1
1
0.653648
1.47898
1
1.47056
1
1
1
1
1
1.00001
0.649044
1.47357
0.847733
1.47096
1
0.654062
0.651515
0.718428
1.47991
1.47057
0.951992
1
0.807183
1
1.18529
1
1.47164
0.630619
0.637583
0.85953
1
1.47084
1
1.0796
0.6681
1
1.4721
1.42053
0.998834
1
1.47173
0.677471
1.47541
1.47354
1.47709
0.66136
1.10089
1
1
0.651539
1
0.834762
0.856354
1
1.00002
1.4723
1
1.47394
1.09182
1
1.05433
1.47296
1
0.660464
1
0.743763
1
1
1.38663
1
0.810807
1
0.657484
1.03799
0.923112
0.633886
1.47008
1.37848
1.47068
0.65088
0.715285
0.995794
0.999999
1
0.691896
1.44383
0.637657
0.999971
1
1.4704
1.47026
0.888004
1
0.659079
0.707823
1.31136
0.971562
0.640584
0.999999
0.632334
1.12174
0.649377
1
1.00006
0.792584
1.47184
1.47122
0.807669
0.999587
1
1
0.701426
1
0.64795
1
0.646086
0.657685
1
1
1.00003
0.647665
1.47174
1
1
1.00007
1.00004
0.659218
1.47025
1.47235
1
0.651944
1.47092
1
1.10414
1
1
1.46967
0.648905
1
1
0.641843
0.743206
0.654903
0.653166
1
0.663428
0.997245
1.08623
0.63733
1
1
1.13135
1
1.4155
1
1
1.33603
0.688494
1
0.66197
1.11921
1.47236
1
1
0.666287
0.681583
0.651986
0.695114
0.675751
1.35191
0.999402
1
1
1
1
1.47143
0.641255
1
0.95176
0.999676
0.998902
0.999944
0.732242
1.12695
1
1.47217
1.47121
1
1
1.45168
1.00004
0.999999
1.47099
0.66947
1.4605
1
0.628216
1.47138
1.00005
1
0.812655
1
0.658517
1
1.47099
1
1
1.47381
1
1
1.47414
1
1
1
1.47038
1
0.747329
0.731965
1
0.631123
1.47294
1
1
0.968854
1
1.47537
1.26657
1.37618
1
1
0.647513
1
0.680153
1.46816
1.47056
1.47206
1
1.47279
0.669609
1
0.670776
1.37716
1.44177
1.47324
1.47357
0.735759
0.647064
1
1.30794
1.47117
1.47022
1.47218
0.783304
1.16498
1
1.35184
0.75238
1
1.00002
1
1.00002
0.914007
1
1.47044
1
1
1
1
1
1
1.00006
1.46704
1
1.47574
1.34791
0.649395
1.4719
1.03036
1.2345
1
1.47025
1
0.654971
1
1
1
1
1.39938
1
0.640911
1.47096
0.650759
1.47211
1.3739
1.23958
1
1.0899
1.22382
0.996022
0.660274
0.801684
1.00002
0.999999
0.92117
1
0.64106
1.47186
0.64586
0.898404
0.87836
1
1
1
1.01476
1
1
0.657486
0.997097
1.47062
1
1.4704
1
0.645434
1
1
1.47153
1.47021
0.634746
1
1.4708
1
0.83555
0.660828
1.47056
1.42221
1
1.08147
1.47158
0.998689
1
1.17875
1.41351
1.47195
0.995995
1
0.999998
1.39672
1
1
1
1.4715
0.998496
1
1
1.47134
1
1
0.664298
1
1
1
1.47033
1
1
0.870873
1.15427
1.42589
0.778923
1
1.47231
1
1.15728
1
1.47373
0.997288
1.47175
1
0.664599
1
1.32357
1
1
1.43969
1.00001
1.47097
1
1.46973
0.704267
0.655229
1.47135
1
1.39336
1
1.47255
1
1
1.00005
1.47311
1.47616
1.12195
1.47078
0.995652
0.652025
1.47046
0.836748
1
1.45953
1
1.47105
1
1.47443
1.47339
0.996406
0.661843
1
1.47107
1
1.03005
1
1
0.998017
0.750296
1.42115
1
1.43522
1
0.892421
0.659375
1.46954
1.4721
0.692653
1
1.47209
1.47352
1.47291
0.668738
1.47095
0.671873
1.47177
1.4785
1
1
1.47118
1
1
1
1
0.648456
1
1
1.47127
1.47087
1
1.47151
1
1.47267
1.4709
1
1.38982
1
0.632587
1.47014
1.33997
1.12654
0.647095
1.47139
1
1
0.658834
1
1
1.47106
1
1
0.812912
1
1.47124
1.00009
1.46509
0.661871
1.47063
1
1.47003
1.45363
0.908406
1
1.47086
0.76066
1.4793
1.3302
1.47126
1.46991
0.997306
1.46981
1.47089
1.47183
1.47074
1.00128
1
0.682451
1
1.47018
0.809321
1.42775
1
1.46273
1
1
1
1
1
1.46881
0.652648
0.647978
1.4726
1.47152
1
1
1
1
1
1.46775
1.42113
1.47093
1.02629
1
1
1
1.00003
1.4703
1.47113
1
1.47266
1.47291
0.674865
1.32545
1
1.4719
1.47485
1.46625
0.997846
1.4725
1.4716
1
1.4301
1
1
1
1
1
1
1.47092
1.47446
1.43849
1.47253
0.658378
0.71732
1.47141
1.47123
1
0.676662
0.93368
1
1.22498
0.64942
1
0.999461
0.998295
0.635057
1
1.47029
1
1
1
1.47156
0.931214
1
1.47068
1.47101
1
1.47198
1
1
1.47183
1
0.638287
1
1.46841
1
1
0.677836
1
1.4683
1
0.633612
0.640076
1
1.45538
1
0.643232
0.875663
1
1.47156
1
1
1
1.47537
1
0.640386
1.06035
1.4718
1.4716
1.47215
1.03523
1.4736
1.47172
1
1.00002
1
1
1.00001
1.47247
1
0.999326
1.47077
1
0.627468
1
1.47157
1.22099
1.05356
1.20754
1.07174
1.46978
0.703471
1.47242
1
0.652151
0.997142
1.47181
0.938182
1.4725
1.47107
1.45059
1
1.47191
1.47234
1.47229
1
1.00004
1
1
1.47088
1.33094
1
1
0.649744
0.996538
1
1.46978
1
1.47133
1.47123
1.46794
0.893523
1.47075
1.47196
1.02371
1.23311
1.47069
1.47083
1
1.43004
0.846771
1.46453
1.00809
1.47111
1
1.4717
1.47108
1
0.666245
0.932388
0.690193
1
1.09637
0.996796
1.47335
1
1
0.996747
1
1.23118
1.43556
1
1
1.47443
1
1
1.33114
1.47593
1.45304
1.47009
1.47012
1
1.47339
0.763474
1.47223
1
1.00905
0.657127
1
1
0.755561
1
1.12659
1
1.47246
1
1.4618
1.29445
0.639793
1
1
1
1
1
1.47321
1.01156
1
1.46913
1
1.47104
1.47073
0.999999
1