/*--------------------------------*- C++ -*----------------------------------*\
  =========                 |
  \\      /  F ield         | OpenFOAM: The Open Source CFD Toolbox
   \\    /   O peration     | Website:  https://openfoam.org
    \\  /    A nd           | Version:  12
     \\/     M anipulation  |
\*---------------------------------------------------------------------------*/
FoamFile
{
    format      ascii;
    class       volScalarField;
    location    "8.56";
    object      p;
}
// * * * * * * * * * * * * * * * * * * * * * * * * * * * * * * * * * * * * * //

dimensions      [1 -1 -2 0 0 0 0];

internalField   nonuniform List<scalar> 
22702
(
1
1
0.869692
1
1.06269
1
1.47193
1
1
0.655198
1.4718
1.47073
1
1.4769
0.882401
1
1
1
1.4718
1
1.47181
1
1.47326
0.665052
1.47529
0.656403
1
1.46879
0.647611
0.659255
1
1.47039
1
1
1
1.43548
1.47659
1.47326
1
1
0.659054
1
1.22655
1
1.46991
1
1
1
1
0.657297
1
0.656169
1
1.47189
1
1.4706
1
1
1
1
0.676642
1
1
0.651299
1
0.678587
1
1
1
0.660662
1
1.47053
1.27963
1
1.47056
1.49371
0.668496
1.47183
0.661217
1
1.47243
0.661831
1.47167
1.46932
1
1
1
1
0.927513
0.658193
1.47546
1
1
0.653586
1
1.47367
0.650793
1
1
1
1
1.22699
1.47205
0.654908
1
1
1.11302
1
0.663404
1
1.47316
1.4717
1
1
0.653697
0.660976
0.657179
1
1
1
1
1
0.908582
1
1.40084
1.04634
1.47078
1
1.47271
1.47217
1.4763
1.47068
1
0.661861
1
0.66043
1
1
1
1
1.47227
1
1
1
1
1.47441
1
1.02545
1
1
1
1
0.660688
1
1.00999
1
0.662238
1
1
1
1.47455
1
1.47137
0.64526
0.67635
1.46764
1.46849
1
1.07912
1.26622
1
1.47085
0.663247
1.44259
1
1
1
1
1.47351
1.36861
1
1.46915
0.664199
1.47095
1
0.643682
1
0.65818
0.659574
0.999798
1
1
1.47321
1
1
1.47105
1
1.47342
1.46881
0.655912
1
1
0.656348
1.47106
1
1
1
1.47123
1
0.653479
1
1
1.4717
1.47214
1.47337
1
1.00004
1
1
1
1.47042
1
0.672884
1.48361
1.47074
1.46618
1
1
1
0.649705
1.4731
1.23304
1
1.46863
0.677179
0.665035
1.46723
1.46956
1
1.47484
0.645673
1.41261
1
1
1
1
1.47212
1
1.27287
1.04277
1
1
1.47058
0.649059
0.78286
1
1.46761
0.655339
1.47422
1
1
1
1
1
1
1
0.657836
0.771082
0.66857
1.4712
1
1
1
1
1.4232
1
0.662707
1
0.643142
0.6562
1.47056
0.67789
1.46767
1
1
1
0.997538
0.645097
0.64666
0.999999
1
0.641124
1
1.47246
0.649613
1
1
1.4724
0.644531
1
1.47155
0.677711
1.47071
1
0.645893
0.997599
1
1
1
0.655729
1
1
1
1.00001
1.02286
1.28065
1
0.673982
1
1
1
1
1
1
1
1.47201
1
1.47123
1
1
1
0.631241
1
1.47406
0.664804
1
1.35162
1
1
1.47181
1
1
1
1.46598
1
1
1.47386
1.47455
1
1.08734
1
1
0.65702
1
1
1
0.658396
1
1
1
1
0.672351
1
1
1
1
1
0.655393
1.00005
1.47076
1
0.999999
1.46901
1.46738
1
1
0.667362
0.813322
1.47164
1
1
1
1.47078
0.661235
1
1.47134
1
1
0.740212
0.728343
1
0.656018
0.633006
1
1
1
1
1
1
1
1.46863
1.1149
1.44738
0.656831
0.885613
1.47201
1
1.47165
1.47161
0.657609
0.789806
1
0.654712
1
1.4831
1
1
1
1
1.47095
1
1
1
1
1
1
1
1.17202
1.47468
1
1.47137
1
1
0.659831
1
1
1
1
1.47144
1.35558
1
1
0.656356
1.47105
1.47186
1
1.47182
1.4711
1.47178
1
0.82781
1
1.47137
0.994804
1.47165
1
0.659941
0.9988
1.47221
1
1
1
1
0.663179
1.47135
1.42653
1
1.46854
1.47126
1.47185
1
1.21342
1.46956
1
1
1.32323
1.0701
1.47147
0.933537
1.47159
1
1.47176
1.47175
1.47193
1.47131
1
1.46524
0.893455
0.891769
1
0.999999
1
1
1.4698
1
1
1
1
1
1.47189
1
1
0.996505
1.47182
1.40631
1
1.38199
1.00004
1
1
1.47128
1
0.997124
1.00464
1
1.47243
1
1.47327
1
1
1.34505
1
1.4739
1.00002
1
1.46866
1
1.47145
1
1
1
1.47191
1
1.47719
1.00001
1.47157
1.46995
1.47073
1.46891
1
1.47256
1.46106
1
0.655509
1.44148
1.33034
1
1.4709
1
0.651725
0.678473
1
1
1
1
1
0.644493
1
1.47141
1.11399
1.47147
1
1
1
1
1
1.47145
1
1.47121
1.27595
0.789067
1
1.00001
1.13443
1.11632
1
1
1.16122
1
0.659255
1.47094
1.47096
1
1
1
1.47031
1
1.00003
1.47026
1.47155
0.951811
1
1
0.65429
1.42749
1
1
1
1
1
1.47174
1.47184
1
1.46929
1.47575
1.47062
1
1
1
1
0.649494
1.47155
1
1
1.42727
1.47085
1
1.4417
1.47477
1
1
1
1
1
1.47216
1
1
1
1
1.46905
1
1.46823
0.638974
1
0.687432
1
1
1
0.99697
0.663451
0.998951
1
1
1
1.06514
1
1
0.873338
1
1
1
1
1
1
1
0.999997
0.928172
0.999999
1
0.997706
1
0.662599
1
1
1
1
1.3476
1
1
1
1
0.645667
1
1
1.44323
1.47186
1
1
1
0.912474
1
1
1
1
1
1
0.930844
1.00933
1.464
1
1
1
1.47062
0.899622
1
1
1
1.47316
1.46443
1
1.00001
1
1
1
1
1
1
1
0.638346
1
1
1.47281
0.656761
1
1.47095
1
0.657305
1
1
0.643032
1
1
1
1
1
1
1
1.46215
1.47112
1
1
1
1
1.42898
1
1.13841
0.654927
1
1
1
1
1
1
1
1.01778
1
1
1.23934
1
1
1
1.3834
1
1
1
1
0.643365
1
1
0.624688
0.648801
1
1
1.47122
1
0.985043
1
1
1
1.32538
0.680939
1
0.673261
1
0.808275
1
1
1
1.4719
1
1
1.47231
1
1
1
1.47203
1
1
1.47172
1
1
0.660696
1
1.13802
1
1
1.4715
1.47226
1.31046
1.42073
1
0.65379
1
1
1.4501
1
0.650443
1
1
1
1.47221
1
1
1
1
1.27881
1
1.42654
1.47636
0.657517
1
1
0.660086
0.659972
1
1
1
1.33005
1.35195
1
1
1
1
1
1
1
1.19653
1.46876
1.004
1
1.4735
0.666427
1
1
1
1.25311
1
1.09085
1
1.42936
1.46937
1
0.664778
1
1.47064
1
1
1.47231
1.43991
1
1.47333
1
0.650053
1
1
1
1.46133
1.46195
1.41151
1
1.47316
1.47103
1
1.47214
1
1.4695
1
0.655208
0.991396
0.627421
1
1
1
1
1
1.47096
1
1.47072
1
1
1
1.44647
1
0.677294
1.47231
1
0.638369
0.702317
0.683159
1
1.22129
1.04435
1.47324
1.47158
1
0.999999
1
1
1.47113
1
1
1.47118
1.47097
1
1.16317
0.999246
1
0.996756
1.47307
0.829137
1
0.800169
0.661654
0.659449
0.917458
1.47057
1.46449
1.09622
1.47183
1.47079
1
1
1.46648
1.47289
1.47133
1.4728
1
1.47178
0.644667
1.46924
1.47333
1.47023
1.47077
0.892901
0.882864
0.905254
1.47203
0.963499
1.47328
1
1
1.47349
1.47045
1
0.657055
1.47213
1.47125
1
1.4717
1.47261
1
1.47115
0.640143
1.47075
1.46773
1.47006
1.47736
1
1
1
1.47144
1.30137
0.673901
1.4715
0.622571
1.47149
1
1
1
1
1.4723
1.47153
1
1
1.47127
0.624534
1.47124
0.658689
1
1.46824
1
0.655238
1.47328
0.76545
1
1.47214
1.47398
1.47017
1
1
1.22189
1.4735
0.664384
1.47107
1
1.47028
0.859324
1.47249
0.640444
1
1.47279
0.694112
1.47366
0.656251
1
1.47218
1
1.4743
1
1.27094
1.45342
1.36807
0.650087
1
1.47155
1
1.47115
1
1.47223
1
1
1.47168
0.987797
1.47434
0.650985
1.42261
1
1.32804
1
1.47378
1.47189
1.47137
1
1.42292
1.47141
1.43426
1.28586
1.46999
1
1.30842
1
1.47235
1
1.06262
1
1.4364
1
1.47007
1.4488
1.44734
1
1.4746
0.67416
1
0.641348
1
1
1
1.47301
1
1.47274
1
1
1
1.47212
1.45928
1.40888
1.47183
1.4689
0.688272
1.48078
1.47377
1
1.41265
1.47117
1.4705
1
1.47068
1.47069
1
1.47911
1.47036
1.4717
1.47328
1
1
1
1.46929
0.660841
1
1.47139
1
1
0.680806
1
1
1.47148
1.47171
1
1.47148
1.47922
1.47232
0.995756
1.47227
1
1.47217
1.47175
1.37288
1
1
1
1.47
1.47129
1.47192
0.952815
1
1.47753
1.47117
1.47064
1
1.4714
1.47253
1.47124
1.47687
1
1.47197
1.47697
1.40509
1.47177
1.47487
1
1.46947
1.46624
1.4715
1.47202
1.47301
0.666641
1.47265
1.47044
1
1.47239
1.47221
1.47087
1.47114
1
1.47268
1.47225
1
1.47123
1.39435
1
1
1
1.47095
1.48092
1
1
1.24836
1
1.46629
1
1
1.47104
1.47856
1.47181
1.47092
1
1
1
1.32914
1
1.47328
1
1
1.46811
1.46715
1
1.47102
0.641748
1.471
1.46909
0.730317
1
0.651167
1.4072
1.47047
1.4733
1.47285
0.663358
1.47178
1.47189
0.664867
0.628088
1
1.47035
1.47244
1
1
1.4715
1
1.47941
1
1.40948
1
1.22132
1.47243
1.47399
1.33067
1.42738
1.47374
1.47277
1.45326
1
0.671593
1.47094
1.47175
1.4776
1.00001
1
1
1.47913
1
1.47216
1.47156
0.77973
1
1.47033
0.999933
1
1.00003
1.00004
1.47191
1.47108
0.998436
1
1
1.4705
1.47352
1.47201
1.47002
1.47417
0.672929
1.42232
1
1.46843
1.47189
1.47193
1.46386
1
1.47133
1.45769
1.47321
1
1.47219
1.47078
0.867529
1.47131
1.47152
1
1.46975
0.839272
1.47052
0.867072
1.47138
1
1.47045
1.47992
1.47197
1.47214
1.47111
1.46532
1.47239
1.46962
1
0.920666
1.4708
1.47184
0.836429
1.47114
0.960826
1.28912
1.47137
1.46934
1.46878
1
1.47406
1.30585
1.47091
0.938856
1.47418
1.47345
1
0.866085
1
1.46952
1
1.31794
1
1.4347
0.872611
1
1.471
1.47432
1
1.47532
1.47343
1.47233
1.46505
1.46421
1
1.47219
1
1
1
0.897195
1.47073
1.47009
1.46832
1.471
1.47569
1.46988
1.46819
1.47267
0.900736
1.03169
1
1
1.47744
1.47225
1.47184
1.47183
1.00003
1.2381
1
1.47858
1.41779
1
1
0.741756
1.472
1
1
0.636992
1.47172
1
1.47178
1.47039
1.47412
1.45249
1.4707
1
0.657293
1.10981
1.47146
1.47016
1
1.47104
1.47189
1.23458
1.01081
1.10243
1
1.4748
1.47217
1
1
0.664871
1
1
1.47159
1.47148
1.471
1.47069
1.47153
1.47119
1.47232
1.47194
1.47137
1
0.996384
1.47107
1.46939
0.996906
1.47104
1.47249
0.662187
0.65611
1.47373
1.46802
1
1
1.00153
1.47048
1.4718
1.47165
1
1.47097
1
0.852938
1.47863
1.4635
1
1.20602
1.47081
1
1.46941
1
1.47209
1.30267
1.47407
1
1.47099
1.47574
0.664741
1.47153
1
1.47141
1.46849
1
0.663492
1.46896
1.38487
0.997923
1.45321
1.47231
1
0.993534
1.47519
0.998558
1.47147
1
1
1.47197
1
1.46907
1.47147
0.996352
1.37448
1
1.47225
1
1
1
1
1.47176
1
1
1.46576
1
1.47071
1
1.29778
1.4775
1.46974
1
1
0.997699
1
1.4702
1.47112
1.47104
1.47263
1.47058
1.47077
1.4731
1
1.47148
1.472
1
1.47308
1.47205
1
1.47254
0.919725
1.0591
1.47101
1.47145
1.47411
1
1.47299
1
1.47188
1.47089
1
1.47216
1
1
1
1
1.47276
0.651185
0.997823
1
1.47177
1.4803
1
1.47143
1
1.00443
0.66312
1.47126
0.999627
1
1.47113
0.998328
1.47041
1
0.999762
1
1.46986
1.46828
1.4749
1.47181
0.660314
1.472
1.47511
1.47158
1.11269
1
1
1.19932
1.47108
0.648458
0.661331
1
1.47053
1.47065
1.47719
1
1
1.47364
1.47483
0.999892
1
1.33595
0.642006
1
1.08003
1.47212
1.47083
0.998228
1.47145
1.47948
1
0.998951
1
1.47086
1.47354
1.18827
1
1.45952
1
1.00147
1.47001
0.658141
1.47101
1.47156
0.997008
0.999913
1.39686
1
0.999706
1
1.47322
1
1.00001
0.646398
1.47152
1.00001
1
1
1
1.46927
1.26282
1
1
0.642145
1.47174
1.26164
1
1
1
1.44914
1.45691
1.4719
1
1
1.4752
1
1.47161
1.47111
1
1
1.47274
1.4702
1.44556
1
1
1.47295
1.474
1
1
1
1.47414
1
1
1
1.47334
1.47747
1.47552
1
1.47019
1.00003
0.709725
1.47153
1.47155
1
1.47166
1.44215
1.47139
1
1
1.47581
1
1.25006
1.47148
1
0.664568
1
1.47332
1
1
1.47523
1
1
1
1.15102
1.47113
0.682805
1.00001
1.47282
1
1
1.47144
1
1.47507
1
1
1.47001
1.47132
1
1.00005
1
1
1
1
1
1
1.47638
1.47166
1
1.47122
0.660848
1.47139
1
1.47097
1.47044
1.4695
1.46846
1.47588
1
1
1.47262
1
1.28924
1.47398
1.47115
1
1.47512
1.46691
1
1.43053
1
1.47063
1.29922
1.47347
0.997625
1.45274
1.43432
1.47107
1.47263
1.03745
1.47186
1.47601
1
1.47126
1
1.47197
1
1
1
1
0.996179
1.47151
1.47231
1.38405
1
1.4757
1
1
1
0.646644
1
1.46249
1
1.42523
1.45363
1
1
1
1.44095
1.46935
1
1
1.47324
0.655604
1.07586
1
1.47426
1.47185
1.42637
1.46214
1.47152
1
1.4706
1
1
1
1
1.46939
1.47118
1
1.46045
1.05446
1.4707
1.43875
1
1
1.43928
1
1
0.667374
1.31741
1
1
1.46768
1
1.47596
1.43073
1
1.42857
0.654695
1.47146
1.47312
1.47253
1
0.678274
1
1
1
1.47185
1.40232
1
1.4679
1.47067
1
1.47147
1
1
1
1
1.47074
0.999334
1
1.47287
1
1
1.46961
1.47216
1
1.4756
1.08656
1.00002
1
1.47235
1
1.47213
1
1.01355
1.47123
1
1.4695
1
1
1.1475
1.4709
1
1
1
1
1
0.996426
0.659713
0.658552
1.01833
1
1.02554
1
1.02823
1
1.47162
1
1.29187
1
1.47154
1
1
1
1.47193
1
1.38891
1.47105
1
1.24493
1.47249
1
1
1.47336
1.4731
1
1
1.05642
0.647194
1
1.47244
1
1
1
1
1.0776
1.47189
1
1
1
0.652824
1
1.47123
1.47145
1.48245
1
1
1
1
1.22843
1.47801
1
1
1
1.47202
1.46906
1.05832
1
1
1
1.47077
1.46908
1
0.664483
1.47172
1.47154
1.47047
1.46661
1.47554
1
1
1.46878
1.46905
1.47117
0.65309
1.03971
1.47125
1
1
1
1
1
1.47079
0.659495
1
1
1.47148
1.20289
1
1.46929
1
1
1
0.636177
1
1
1.12037
1.47186
1.47111
1
1.47331
1.47937
1
1.07808
1
1.47479
1
1.473
0.655674
1
1
1
1
1.47227
1.00007
1
1
1
1.4529
1
1
1
1
1.47081
0.636963
1.36621
1.47311
1
1.47188
1
1
1
0.997065
1
1.47148
1
0.824927
1
1
1.00003
1.47149
0.648252
1
1.47251
1
1.46905
1.46764
0.647246
1
1
1.45501
1
1
0.649183
1
1.47089
1
1.45011
0.99929
1.47184
1
1
1
1
1.4708
1
1
1.4698
1
1
1
1
1
1
1
1
1.3054
1
1.15077
1.47073
1
1
1
0.643434
1
1
1
1
1.47733
1.47238
1.0593
1
1
1.47245
1
1
1.47137
1
1.00002
1
1
1
1.00001
1.46956
0.805634
1.46941
1.47296
0.996988
1
1
1
1.27462
1
1
1.47077
1.4705
1
1
1
1
0.647244
1
1
1
1.29128
1
1.46927
1.4763
1
1.47289
1
1
1
1.24482
1
1.47058
1
1.47214
1
1
0.996391
1.47061
1
1
1
1
1
1.4735
1.00002
1
0.665476
1.47373
0.650726
1
1.47415
1
0.996072
1
1.47404
1.46897
1
1.47129
0.879568
1.47159
1.47578
1.00003
1
1
0.659322
1
1
1
1.47233
1.27159
1.47949
1
1
1
1
0.996836
1.47173
1
0.656729
1
1
1
1
1
1
1
1.47702
1.46899
1.46996
1
1
0.996882
1
0.978497
1
1
1
0.658005
0.981439
1
0.667604
0.642882
1
1.47258
1.47183
1
1.46884
1.47236
0.659341
1.3114
1
1
1
0.656098
1.47091
1
0.656166
1
1.46765
1.07725
1
1
1
1
1.46828
1.46959
1
1
1.47211
1
1
1.47461
1.47156
1
1.42745
1.47107
1.47275
0.962507
1.4715
1.00816
0.656794
1.35956
1.47202
1
1
1
0.655528
1
0.662143
1.48038
0.959576
1.4693
0.953434
1
1.47284
1.2149
1
1
1.4697
1
1.19071
1.46997
1
1
1.46494
1.4627
0.652513
1.28222
0.999895
1
1.28563
1
1.47778
0.952694
1.48541
1.47276
1
1
1
1
1.47552
1
1
1.46893
0.999645
1.47062
1.3857
1.46412
0.659639
1
1
1
1
1.4707
1.00004
1.46939
1
1.47158
1.47182
1.05692
1.47843
1.14654
1.47154
1
1.31545
0.680787
1.46588
1.47146
1.36849
1.07865
1.46988
1.47177
1.47003
1.47288
1
0.915576
1.06699
1
1.47212
1.22037
1.47066
1.00003
1
1
0.683684
1.46773
1.46982
1.37729
1
1.17988
1
1.48682
1.4725
1
1.46978
1.46988
1
1
1
1.47203
1
1.17639
1.47942
1.31931
1
1.46988
1
1
1
1
1
1
1
1
1
1
0.680744
1
1.44848
0.666437
1.27533
0.998578
1.47658
1
1.24127
1.00001
1.2986
1.39484
1
1.00154
1.46754
0.916342
1
1.47749
1.47214
0.944502
1
1.46973
1.47077
1.47511
1
1.47211
1.46951
1.47399
1
1.20531
1
1.00006
1.47048
1
1.47205
1.0677
1.47334
1
1
1.475
1.48604
0.678679
1
1.47279
1.34867
1.47171
1
1
1.47037
1.47434
0.998236
1
1.4305
0.996873
1.47115
1.00007
1
1
1
1
1.20346
1
1.36045
1.47013
1.34371
1.4699
1
1.00308
1
1
1.47457
1
1.47324
1
1
1
1
0.999999
1
1.05342
1.23847
1
1
0.665263
1
1.47104
0.689405
1.46999
1
1.22467
0.999747
1.4719
1.29925
0.663115
1.25125
1.00003
1.47129
1.47011
1
1.2834
1.47294
1.47051
0.998396
1.47868
1.47127
0.661059
1
1
0.997532
1
1.47078
1
0.681289
1.47081
1
1
1.41206
1
1.47039
1
1.47125
1
0.675495
1
1
1.47022
1.47311
1.47421
1
1.46799
1.47114
1.47129
1
1
1.46764
0.999999
0.748789
1
1
1
1.47053
1
1.47103
1.30341
1.47034
1
1.47095
0.999376
1
1
1
1
1
1
0.705637
1
1
1.46952
1
1.47284
1.46176
1
0.669008
0.655084
1
1.47339
1.0777
0.654378
0.638277
1
1.46946
1
1.4701
0.659726
1.00135
1
1
0.999515
1
1
1
0.999914
1.18631
1.47011
1
1
1.47357
1.27708
1
1.44076
1.47727
1.47211
1.18917
1.47237
1
1.47549
1
1.47259
1
1.4774
1.47424
0.997215
1.46987
1.47362
1
1
1
1
1
0.94289
1.4691
1.00004
1.00003
0.66495
0.999981
0.658707
0.647313
1
1.47018
1.47136
1.47044
1
1.47192
1
0.660704
1
1
1.47021
0.835012
1.47395
1
1.47102
1
0.970488
1.47275
1
1
1
1.46956
1
1.47146
0.658663
1
1
1.27133
1
1
1.24698
1
1
1.4715
1
1
1
1
1
1.46589
1.47114
1
1.47102
1.46995
0.661659
1.21468
1.46687
1
1
1.42011
0.998948
1
1
1.47196
1.46924
1.30116
1
1.47083
0.674926
1.41735
0.999791
1
1.47071
1.00003
1.47774
1.40899
1.35734
1
1
1.47216
0.712388
0.657771
1
1.47176
1
1.4722
1
1.27943
1
1
1.47163
1.29986
0.658345
1
0.998269
1
1
1.02502
1.18968
1.47248
1
1.46872
1
1
1
1
1
1
1.06621
0.646908
1
1
1.03047
1
1
1
1
1
1.4739
1
1
1.47192
1.47203
1.34742
1
1
1
0.833978
1.47083
1.32142
1
1
1
1
1.47214
1
1
1
1.47587
1
1
1.33737
1.48117
1.01759
0.753443
1.47929
1.32771
1.47523
1
1.23216
1
1
1
0.660337
1.00264
0.66526
1
0.656481
0.643854
1
0.663318
1
1
1
1.21034
1
1.47189
1.47342
1.00099
1.21976
1.3877
0.653459
0.777796
0.884132
1
1.47253
1.47161
1.47229
1.47119
1.40125
0.867906
1
1.40327
1
1.46144
1
1
0.996336
1.00989
1
1
1
1.47074
1
0.664314
1
1.47267
0.67257
1
1
1.47091
1
1.47318
0.999299
1
1
1.47222
1.42078
1
1.49035
1
1
1.01459
1
1.20901
1
1
0.663086
1
1
1.48148
0.999998
1.47364
1
1.00003
0.66866
1
1
0.659331
1.00089
1
1.47158
0.658616
1.48046
0.643459
1.47232
1
1
1
1
1
1
1
1
1
1
1
1.45158
1
1.47337
1.47287
0.65908
1
1
1
1
1
1
1.45895
1
1
0.660754
1
1
1.47139
1
1
1.16925
1.39334
0.642316
0.673002
0.713976
0.750222
1
0.996649
0.665816
1.00029
1.45735
0.996864
1
1
1.47028
1
1
1
0.772085
1.00001
1.16061
1
1
1.1876
1.47167
1
0.657847
1
1
1
0.996739
1.00001
1.47277
1.47213
1
0.671266
1
1.24871
0.672921
1
0.885555
1
0.996482
0.644465
1
1
1
0.996365
0.646239
1
0.656588
0.998401
1.24352
1.41532
0.658191
0.636358
1
0.990583
1
0.998629
1
1.47123
1.47189
1
1.0131
1.47036
1.47134
1
1
1.47163
1
1
1.00004
1
1.47964
1
1
1.01855
1
0.998586
0.707087
1
1
1
1
1
1.47089
1.03455
1.00004
1
1
1
1
1
1.00003
1
0.657426
1.09422
0.998637
1.46334
1.46848
1
1.01409
1.47049
1.41844
1
1
0.647656
1.4719
1
1.4732
1
1.47506
1.31513
0.66066
1
0.667821
1.41463
0.999683
1
0.647065
0.650704
1
1
1.39355
1
0.999998
0.651387
1
1
1
1.14784
1
0.661268
1.46945
1
1
1
1
1.47255
1
1
1.47979
1.41852
1
1
1
1.48155
0.667957
1
1.47007
1.47068
1
1.37258
0.999999
1.00003
1
1
1.44932
1.01706
1
0.670199
1.25201
1
1
0.996489
1
1
1.46653
1
1
1.00003
1
1.47005
1
1
1
1
1
1
1.00002
1.20764
1
1.47481
1
1
1.47398
1
1
1
1.47205
1.46485
1.04492
1
0.997681
1
1
1
1
1.47024
1
1
1.47184
0.652787
1
1
1
1
1
1
1.37938
1
1
1.47403
1.47277
1
1
1
1.47025
1.47016
1
0.999705
1.46655
1
1
1
1.00002
0.663863
1.02877
0.996448
0.996153
1
1
0.670433
1.47274
1
0.659193
1
1.47477
1.45217
0.641295
0.999411
1.47093
1.47052
1.47185
1
1
0.928642
1.41844
1.39019
0.656119
1
1
1
1.47537
1.4714
0.660741
0.997317
1
1.47175
0.665377
1
1.44739
0.659101
0.973873
1.00622
1
1.45852
1
1
1
1
1
1
1.00011
1.4394
1
1
1.46985
1
1
1
1.47282
1
0.65731
1
1
1
1.15984
1
1
1
1
1
0.785674
1
0.663998
1
1.47437
1.00007
0.848603
0.85319
1.00002
1.00434
1.24352
1
1
0.679268
1.47292
1.47409
1.47279
1
0.616537
0.662045
1
1.47265
1
1
1
1
1
1.00003
1
0.661235
1.30057
1
1
0.635453
0.992569
1.00001
1
1
1
0.644524
1
0.706274
1
1
1.47886
1
1
0.651148
1
1.47143
1
0.651739
1
0.664212
1
1.00726
1.46918
1.48425
1
1
1.47032
1
1
1.0974
0.996708
1
0.998236
1
1.47273
1
0.651151
1.00002
1.47387
0.999078
1
1
0.786678
1
0.999013
0.626556
1.47001
1.15997
1
1.00001
0.911755
1
1
1
0.788205
1
1
1
1.47063
1
0.662341
0.999999
1
1
1
0.646754
1.47176
1.42859
0.633797
1
1.46872
1
1
1.47106
1.47308
1.39507
0.647281
0.997756
0.999221
1
1.47211
1
1
1
1
1.47339
1.00004
1
1
1.46625
1
1
1.47211
0.67968
1
1
1
0.656288
1
0.999999
0.999999
0.998674
1
1
1
1
1.36579
1
1.47418
1.47211
1.4849
1.4713
1.47056
1.47267
1
1.46979
1
1.4711
1.47466
1
0.998804
0.678418
1.39919
0.999891
1
1
1
1
0.995483
1
1.07046
1
1
1
0.826802
1.47193
1.47327
1.46875
1.40876
0.999876
1
1.02232
1.46996
0.997829
1.05683
0.997109
0.659047
1
1.00002
1
1
1
1
1
1.46982
0.657622
1.46938
1.47198
0.995288
0.671585
1
1
1
1.47234
0.663237
1.41352
0.646874
1.47129
1.46758
0.664734
1.46781
1.02319
1
1.47325
0.796078
1
0.998813
0.658371
1
0.667619
1
1.47251
1.47088
0.76858
1
1.47104
0.658853
1
0.664773
1
1.47175
1
1
1.45527
1
0.834773
1
0.999654
0.669504
1.4586
0.999491
1
0.663268
1
1
1
1
1.24377
1
1.47514
1
1
1.47737
1
1
1.46993
1
0.672471
1
0.637953
1.00001
1
1
1
1
1.45157
1.27093
1.47136
1
1.47091
1.43754
0.643561
0.658759
1
1
1.47739
1
0.671609
1
0.993226
1
1
1.47165
1
1.46592
0.656821
1.48092
1
0.653247
1
1
1.46884
1.47482
1
1.00004
1
1.45806
1
1
0.64894
0.999361
0.662816
1
1
1
1.47536
1.47602
1.47327
1
1
0.653069
1
1.4775
1
1
1
1.43501
1.4713
1.47159
0.667942
1.473
1.47167
0.667917
1.47259
1.00004
0.649162
1.01705
1
1
1.47126
0.674114
1.29654
0.671653
1.47152
0.997425
0.62348
1.47401
1
1
1
1
1.47111
1.47193
0.664551
1
1.00002
0.658278
1.00004
1
0.671948
0.660146
1.33054
1.47318
0.998474
1.47157
1
1.48403
0.815756
0.654127
1.47176
1.48645
1
1.46915
1
1
1.47163
1
1.35858
1.47325
1
1
1
1
1.47097
1.46817
1.47567
1
1
1.47715
1.46793
1.47106
1
1.47088
1
1
1
1
1
0.672999
0.837228
0.651327
1
1
1.4703
1
1
1.47129
0.660938
1
1.47142
1.46511
1.44857
0.657417
1
0.654934
1
1.00003
1.46951
1.21506
1.47196
1.42855
1
0.651401
1
1.47034
1.33039
0.638254
1
1
1
0.80999
1
1
1.47696
1
0.645152
1.4714
1
1
1
1
1
1.37808
1.10273
1
1.47252
1
1.4685
1
0.997066
1
1.4732
1.46817
1.47305
1.47373
0.999586
1.47247
1
1.47161
1.47245
1.39634
1
1
0.662225
1.46944
1
1
1.47738
1.46901
1.47708
1
1.47262
1
1
1.00003
1.46845
1.47117
1.12754
1.09998
1.47058
1.47229
0.705007
1
1
1
1
1.00002
1.1608
1
1
1.4031
0.663766
0.999968
1
1.47132
0.999906
0.99983
1.07085
1.41714
1.46991
0.896318
1
0.655522
1
0.99727
1.47233
1.47509
1.47611
0.998996
1
1
0.668446
1
1
1.47211
1.04865
1
1
1
1
1
1
1
0.999935
1.47199
1.00002
1
1
1
1
1.30451
1
1.2112
1
1
1.47156
1.47557
0.649508
0.998795
1
1
1
0.664559
1.47341
1.47117
1
1
1
1
1
1
1
1
1.47161
1.4747
0.650443
1.0507
0.658822
1
0.667008
1
1.47095
1.12846
1
1
0.729806
1
1.45056
0.803058
0.996683
0.65381
1
1
1.46898
1.00004
0.997257
0.646036
1.47129
1.48041
1
1
1
1
1.43927
1
1
1.47194
0.998942
1.47183
1.00004
1
1
0.658231
1
1
1.47068
0.658425
0.774217
0.66071
1.47116
0.999285
1
1.46543
0.651052
0.638331
1.01839
1
1
1.47074
1.00004
1.20813
1
1
1.47021
0.662238
1
1
1.00013
1.47203
1.00015
1.46706
1
1.00003
1
1
0.722511
1
0.790437
1.00002
1
1.47382
0.66029
1
0.780877
0.801835
1
1
1.4727
1
1
1
1.47148
1.47176
1.00005
1.45786
1.47183
0.792953
1.47174
1.45303
1
1
1.47112
0.999999
1
1
1
1
1.47532
1.47412
1
1
1
1.47319
1.00021
1
0.651976
0.706262
1
1.00003
1.17268
1
1
0.904938
0.647828
1
1
1
1.47606
1.43192
1.47072
1
1
1
1
0.665376
1
1.46565
1
1.47209
0.679874
1.47941
1
1
1
0.657602
1
1.47169
1.00003
1
0.641442
1.16748
1
0.999675
1.46875
0.640858
0.64808
1
1.47111
0.628562
0.649168
1
0.659668
1.00001
1
1
1
0.668812
1
1
1
1
1.47059
1
1.3576
0.666865
1
1
1
0.64304
1.47153
1
1
0.996885
1.47262
1
1.46982
1.47268
1
1
0.709978
0.646867
1
1
0.653905
1.1427
1.21748
1
1
1.47054
0.997413
1
0.997775
1.47182
1
1
1
1
1
1
1.47141
1
1.16142
1.14818
0.713843
1.41288
1
1.47108
1.47124
1
1
1
0.895169
0.662802
1
1.22502
0.999638
1.41203
1
1
1
0.999999
1
1.00694
1.20803
1.476
1.47178
1
1.47097
1
0.65714
1
0.997193
0.99976
1
0.675104
1
0.678274
1.00002
1.47472
1.47245
0.672012
1.47655
0.653634
0.996322
1.3468
0.675824
1.34173
1
1
0.998434
1
1
1
1.00005
1
0.663987
1
1
1
1
0.999599
1.47174
0.802117
1
1
1
1.03553
1
1
1
1.26339
0.745627
1
1
1
1.04818
1.46985
1
0.667177
1
1.47462
0.902654
0.65475
1
0.650387
1
1
1.44506
0.998236
1.43324
1
1.00878
1
1
1.47155
1
1
1
1
1.08901
1
1.47192
1.48027
1.46932
0.65604
1.471
0.997093
1.381
1
1
0.669524
1
1
0.664213
1.4766
1
1
0.999957
1
1
1
0.653714
0.668693
1
1.47084
1
1.21435
1.47136
0.661907
1.38103
1
1
0.686421
1
1
1.47164
1.47175
1.16408
1
1
1.00191
1.47182
0.657555
0.670716
1.47439
1.47203
1.31586
1.181
1
0.902322
1
1
1
1.44126
1.46805
1.46835
1
1
1.47397
0.654533
1.41544
0.642483
1
0.680106
1
0.672479
1.47111
0.646694
1
0.978704
0.664288
1
1
1
0.850463
1.43384
1.4714
1.47153
1.47071
1
1
1.47251
1
1
1.47277
1
0.662955
1
0.662811
1
1.47236
1
1
1.02326
1.36067
1
0.998961
0.654653
1.47141
1.00001
0.667624
1.0891
1
1
1.36538
1.4718
1.47189
1
1.47172
1.12913
1
1.02496
1.47189
1
1
1
1
1.47165
1
0.670466
1.47053
0.655812
0.659858
0.825025
1.47185
1.15213
1.47562
1
1.47067
0.99744
1.00003
1.47123
1.47001
1
1.47077
1
1.46868
1
1.47255
1
1.00004
1
1.46995
0.659169
0.680176
0.997921
0.999999
1
1
0.670186
1
1.30925
1
0.661003
1
1.17494
1.47017
1.47061
1
1
1.00003
0.999393
1
1.4715
1.47106
1
1.18767
1.46957
0.837671
1.46982
1.00073
0.648645
1.098
0.661694
1
1
1.07525
1.4713
1
1
1.04076
0.998571
1
0.661183
1
0.790102
1
1.47083
1
1
0.649882
1.10752
1.06992
0.998496
1.47089
1.47166
0.781064
0.998046
0.677366
0.650462
0.663968
1
1
1
0.999018
0.734735
0.640928
1
1.47181
0.999734
1.47151
1.47174
1.47276
1.47194
1
0.673457
1.47138
0.635915
1
1.46974
1.48063
0.996542
0.815616
1.47146
1.33132
1
0.67599
1
1
1.47863
1
1.02739
1.47386
1
0.656958
0.661473
1
1
0.62373
0.647917
1.4718
1.00002
1
0.655546
0.652689
1.47635
1.46079
1.43849
1.47316
1.12966
0.980389
1.18904
1.47302
1.37766
1
1.23168
1
0.65013
0.866766
1
0.668049
1.47256
1.02248
1.47346
1
1.47115
1.46932
1
1.47085
1.47156
0.668265
1.47624
1
1.47478
1
0.754757
0.666736
1.47099
1
1
1
0.661125
1.47082
1.47403
1
0.662476
1
1
0.666387
1.00004
0.654633
1.47233
1
0.811747
0.650682
1
1
1.26571
1
1
1
1.08079
0.662133
1
1.00001
1
1.47114
0.651589
1
1.47193
0.661577
0.666326
1
1
1.47277
1
1.47883
1.00001
1.47253
0.660406
1
1
0.639825
0.812759
0.663755
1
1
1
1
1.475
0.666446
1
0.654553
1
1.47603
1
1
0.932163
1
1
0.829648
0.999692
1.00005
1
0.652895
0.670859
1
1
1
1
0.794416
1.47228
1.47091
1
0.637133
0.661753
0.902941
0.671806
1
0.818993
1
0.660516
0.981485
1
1
0.663109
1
1.47306
1.4616
0.662011
1
1
1
1.47436
1
1.04784
0.833684
1.1448
0.66191
1.18602
0.679421
1
1
0.709904
0.917961
1
1.04023
1
1
0.644026
1
0.943475
1.04321
0.654963
1
1.37479
0.743905
0.88357
1
1
1
0.651882
1
0.662122
0.660917
1
0.855189
0.645704
1.06583
0.752319
0.642515
1.47141
1
1.47143
1.25939
0.724133
1.47159
0.666054
0.999046
1.47216
0.999999
1
1.47429
1
0.700343
1
1.06681
1
1
1.47146
1
0.775917
0.796023
1.47184
0.943699
1
0.762143
1.47136
1.47344
0.915186
1
1.47142
1.12325
0.828261
1
1.0151
1
0.661932
1.19429
0.757383
0.742845
1
1
0.656682
1.46915
0.970253
0.653405
0.657775
0.851502
1
1.00556
1.47017
1.47151
1
1
0.999999
0.662905
1.21588
1.00001
1.46431
1.42708
0.646666
1.00003
1.09001
0.859803
1.29182
1.39904
1
1.03824
1
1.00006
0.655474
0.823182
1
1
0.821936
0.659651
1.03989
1
1.00001
0.649725
1.2141
1
1.46395
1
1.04262
1.26303
1
1.45795
1
1
1.46818
1
0.642147
1.46949
0.7134
1.12172
1
0.661886
0.999916
1
1.00003
1
0.769573
1.02672
0.661659
1.35432
1.47124
0.645142
1
1
1
1
1
0.96766
0.641711
1.055
0.653429
0.63686
1.07276
1
0.999798
1.1148
1
1
0.648174
0.989095
1
1
1.13401
1
1.47347
1
1.47089
1.09282
1.01622
0.661466
1
1
0.661763
1
1
1
1
1.47667
1.04317
0.997975
1
0.649272
1.05155
1
1
1.30639
1
0.652133
1.47436
1
1.00001
1
1.47075
0.646063
0.868055
0.661119
1.35403
1.47681
1
1
1.47152
1
0.650073
1
1
1
1
1
0.781408
1
1.46895
1
1
1.15871
1.47318
0.676089
0.860101
1
1.47198
1
1
1
1
1
1.47174
1.47266
0.649748
1.47063
0.640117
1
1
1.47164
1
1.4731
1.00097
1.02634
1.06449
1.47074
1.07657
1.32089
0.64128
1
0.642679
0.980992
1
1.47188
1
1
0.652174
1.47896
1
1.47323
1
1
1
1
1
1.00001
0.640963
1.46979
0.852357
1.47115
1
0.669396
0.674759
0.718059
1.47394
1.47363
0.969949
1
0.775676
1
1.17674
1
1.47247
0.634881
0.660162
0.835987
1
1.47179
1
1.07662
0.702957
1
1.47264
1.40576
0.99889
1
1.47173
0.661509
1.47897
1.46995
1.47895
0.646968
1.10074
1
1
0.645312
1
0.81464
0.830493
1
1.00002
1.46974
1
1.47525
1.0787
1
1.04079
1.4764
1
0.645013
1
0.757317
1
1
1.38665
1
0.789218
1
0.654423
1.03661
0.952396
0.651263
1.47048
1.37524
1.4709
0.657842
0.690465
0.995657
0.999999
1
0.696244
1.44436
0.6721
0.999967
1
1.47246
1.47261
0.898758
1
0.674834
0.71644
1.30777
0.968454
0.644758
0.999999
0.652702
1.11884
0.665395
1
1.00006
0.825925
1.47266
1.47041
0.826076
0.999608
1
1
0.731231
1
0.64618
1
0.653741
0.661682
1
1
1.00003
0.66484
1.47027
1
1
1.00007
1.00004
0.655665
1.47092
1.4716
1
0.656043
1.47128
1
1.08766
1
1
1.47141
0.647527
1
1
0.652745
0.747824
0.659076
0.661678
1
0.6961
0.997149
1.09493
0.641965
1
1
1.1265
1
1.41445
1
1
1.3266
0.67897
1
0.647568
1.13113
1.47227
1
1
0.651988
0.648831
0.638489
0.729869
0.654644
1.35083
0.999426
1
1
1
1
1.47166
0.659794
1
0.930168
0.999674
0.99832
0.999937
0.751436
1.12905
1
1.47138
1.4714
1
1
1.44699
1.00004
0.999999
1.47156
0.65459
1.46363
0.999999
0.63414
1.47157
1.00005
1
0.827375
1
0.642517
1
1.47097
1
1
1.4753
1
1
1.47873
1
1
1
1.47162
1
0.744598
0.713401
1
0.635554
1.4726
1
1
0.973329
1
1.47561
1.26418
1.37764
1
1
0.657623
1
0.669008
1.46708
1.47221
1.4703
1
1.47038
0.663691
1
0.662033
1.37685
1.4359
1.46983
1.47072
0.767661
0.64293
1
1.30579
1.47206
1.47246
1.47144
0.749703
1.16155
1
1.35672
0.764257
1
1.00002
1
1.00002
0.886079
1
1.47788
1
1
1
1
1
1
1.00006
1.47124
1
1.47744
1.34485
0.682972
1.47191
1.02009
1.22868
1
1.47241
1
0.659296
1
1
1
1
1.39976
1
0.637734
1.47384
0.642395
1.47296
1.37547
1.24457
1
1.08807
1.22018
0.99565
0.655633
0.776887
1.00002
1
0.918372
1
0.653393
1.47203
0.646764
0.92515
0.858047
1
1
1
1.01442
1
1
0.658203
0.996587
1.47159
1
1.47248
1
0.648771
1
1
1.47169
1.47064
0.640069
1
1.47255
1
0.817099
0.644059
1.47153
1.42051
1
1.07869
1.47156
0.998659
1
1.18854
1.41294
1.47411
0.995926
1
0.999998
1.39737
1
1
1
1.47019
0.998514
1
1
1.47181
1
1
0.660345
1
1
1
1.47174
1
1
0.855212
1.14607
1.42889
0.755058
1
1.47222
1
1.16436
1
1.47073
0.997366
1.4711
1
0.668635
1
1.31488
1
1
1.43961
1.00002
1.47124
1
1.47765
0.700346
0.661911
1.47222
1
1.40101
1
1.47046
1
1
1.00004
1.4696
1.47328
1.11455
1.47198
0.995933
0.647444
1.47279
0.860935
1
1.47231
1
1.47197
1
1.47406
1.47056
0.99641
0.658201
1
1.47084
1
1.02609
1
1
0.99794
0.75115
1.41846
1
1.41808
1
0.860457
0.651521
1.47057
1.47256
0.703621
1
1.4706
1.47026
1.47071
0.672627
1.47161
0.688157
1.47065
1.47796
1
1
1.47165
1
1
1
1
0.657194
1
1
1.47074
1.47065
1
1.47194
1
1.47081
1.47089
1
1.39052
1
0.63869
1.47213
1.35594
1.12787
0.645046
1.47093
1
1
0.643666
1
1
1.47172
1
1
0.792304
1
1.47162
1.00009
1.47053
0.650378
1.47105
1
1.47184
1.45421
0.900127
1
1.46818
0.768165
1.47117
1.32773
1.47193
1.47231
0.996971
1.47241
1.47181
1.47128
1.47151
0.999788
1
0.639119
1
1.47214
0.850709
1.43072
1
1.46371
1
1
1
1
1
1.46959
0.644353
0.670777
1.47174
1.47139
1
1
1
1
1
1.46837
1.42481
1.47121
1.00906
1
1
1
1.00003
1.47038
1.47165
1
1.46991
1.47428
0.640936
1.32861
1
1.47223
1.4751
1.47517
0.997953
1.47154
1.47065
1
1.42111
1
1
1
1
1
1
1.47148
1.47102
1.43936
1.47125
0.647663
0.694188
1.47145
1.4712
1
0.667445
0.946029
1
1.21651
0.642949
1
0.999465
0.998274
0.662719
1
1.4727
1
1
1
1.47271
0.945304
1
1.47152
1.47147
1
1.47111
1
1
1.4716
1
0.684181
1
1.47649
1
1
0.644408
1
1.47366
1
0.63813
0.655413
1
1.45222
1
0.641539
0.862386
1
1.4712
1
1
1
1.47528
1
0.66779
1.06688
1.47211
1.47746
1.47186
1.04662
1.47257
1.47175
1
1.00002
1
1
1.00001
1.47163
1
0.999319
1.47486
1
0.64849
1
1.47233
1.22164
1.04851
1.21859
1.06211
1.48029
0.686629
1.47139
1
0.656019
0.99717
1.47193
0.955265
1.47145
1.4712
1.44822
1
1.47203
1.47115
1.47151
1
1.00003
1
1
1.4721
1.32949
1
1
0.651853
0.996635
1
1.47189
1
1.47209
1.47132
1.4723
0.91498
1.47057
1.47131
1.00181
1.21946
1.47227
1.4711
1
1.43464
0.825955
1.44279
0.983846
1.47124
1
1.47158
1.47199
1
0.659903
0.937872
0.698807
1
1.07935
0.996646
1.4714
1
1
0.996868
1
1.22791
1.44214
1
1
1.47004
1
1
1.33441
1.46576
1.45375
1.47023
1.47152
1
1.47259
0.733925
1.4732
1
0.985438
0.675201
1
1
0.767501
1
1.14556
1
1.47298
1
1.46371
1.29188
0.671587
1
1
1
1
1
1.47117
1.0115
1
1.47218
1
1.47053
1.4706
0.999999
1