/*--------------------------------*- C++ -*----------------------------------*\
  =========                 |
  \\      /  F ield         | OpenFOAM: The Open Source CFD Toolbox
   \\    /   O peration     | Website:  https://openfoam.org
    \\  /    A nd           | Version:  12
     \\/     M anipulation  |
\*---------------------------------------------------------------------------*/
FoamFile
{
    format      ascii;
    class       surfaceScalarField;
    location    "4.05";
    object      phi;
}
// * * * * * * * * * * * * * * * * * * * * * * * * * * * * * * * * * * * * * //

dimensions      [1 0 -1 0 0 0 0];

internalField   nonuniform List<scalar> 
69079
(
-0.000158877
9.16707e-05
6.68022e-05
0.000127433
3.18473e-08
-0.000127461
-0.00013273
0.000132804
0.000129013
-1.52814e-06
-0.000131205
-1.51181e-06
-0.000131185
7.97182e-05
-0.000149857
7.01604e-05
1.15706e-06
0.000108403
-0.000105316
0.000130323
-0.000130381
5.18095e-08
0.000129721
5.90681e-07
-9.91773e-05
-6.00369e-05
-0.000123239
0.000130827
-8.60196e-06
-0.000128188
0.000125519
2.71845e-06
-0.000127545
-6.20949e-07
3.5111e-06
-0.000112319
0.000108808
0.000129674
2.95484e-08
0.00012909
5.65826e-07
-0.000129712
0.000128085
1.64655e-06
-0.000128343
-1.37927e-06
0.000129641
-0.000128907
-6.90623e-07
0.000128689
9.42744e-07
0.000126476
-0.000128851
2.41649e-06
-0.000139066
1.33437e-05
0.000125722
0.000149896
-9.84611e-05
-5.13776e-05
0.000126768
-1.71898e-05
-0.000107457
-0.000129032
-1.3373e-06
0.000129048
7.5814e-08
2.34788e-07
3.02602e-08
0.000113114
-0.000107357
0.000121271
-0.000126249
5.02428e-06
0.000122893
-0.000133159
1.02305e-05
0.000143431
-2.04917e-05
0.000127906
7.63702e-07
-4.62362e-07
-0.000128672
2.38282e-05
0.000104844
0.000127786
-0.000127831
3.79887e-08
2.31391e-07
-5.62299e-06
0.000112158
-0.000102772
-1.13988e-05
-0.000127667
0.000105681
2.48041e-05
-0.000130223
-0.000139309
1.71644e-05
0.000127022
-0.000127062
1.90413e-08
-6.18415e-06
-0.000112386
0.000136094
-2.42727e-05
0.000126662
1.46133e-06
-1.15268e-06
-7.45111e-05
0.000142299
-6.77877e-05
0.000124671
-0.000124674
1.26045e-08
0.000142987
-1.83353e-05
0.000121054
2.17831e-05
0.00014197
-2.10177e-05
0.000119556
-3.74893e-06
-0.000115813
-0.000108437
0.000130391
-2.18649e-05
-0.000130246
0.000131475
-1.50155e-06
-0.000132799
5.64802e-05
7.4388e-05
0.000123796
-0.000123658
1.36629e-08
0.000141883
-1.80514e-05
0.000120342
-6.28242e-08
-0.000120503
-7.2437e-05
-4.44975e-05
0.000116622
7.62868e-05
5.11678e-05
-0.00012746
0.000140537
-6.90084e-05
-6.55985e-05
-1.43872e-05
-0.000114285
5.00648e-05
-0.000124576
-0.00010722
0.000110731
0.000124872
6.62485e-07
-2.21101e-06
0.000146352
-0.000146353
-1.56718e-05
-0.000118611
-0.000122915
1.05235e-05
-5.35505e-05
0.000133178
0.000119343
2.25395e-05
0.000140822
-2.1556e-05
0.000126629
-1.51541e-05
-0.000114025
0.000127332
-0.00012503
-2.29336e-06
9.58177e-05
5.45036e-05
0.000115071
-0.000118416
3.30321e-06
-2.78985e-06
0.000117861
-0.000123172
1.13344e-05
0.000111837
0.000123013
2.05633e-05
-1.59601e-06
0.000117873
-0.000140187
2.23288e-05
0.000101551
1.79993e-05
0.00013159
-1.35653e-05
-8.013e-05
-5.22041e-05
0.000128984
-0.000117421
0.000118668
-1.24715e-06
0.000117179
-0.000132644
1.55603e-05
0.0001182
-9.89334e-07
-8.52372e-05
-4.11716e-05
-6.35467e-06
-0.000102148
0.000108309
-7.06728e-05
0.000138937
-6.82643e-05
0.00014719
-4.16052e-05
-0.000127005
9.58231e-06
0.000120926
2.10308e-05
6.93591e-05
5.25892e-05
-0.000121948
-2.60186e-06
-0.000116309
-1.06972e-05
3.12986e-07
-0.000105998
0.000105685
0.000123797
-3.69082e-06
6.78811e-05
5.99327e-05
-0.00012782
5.42637e-05
-0.000124936
-0.000117231
9.20706e-07
0.00012605
-0.000126045
0.000129907
-8.70428e-06
2.06297e-05
-0.000134787
0.000114152
4.53941e-05
-0.000125511
-0.000125027
-1.03132e-05
0.000114996
-0.00013432
1.9184e-05
0.000117448
-2.67923e-06
7.04969e-06
0.000109594
-0.00011362
-6.58542e-06
0.000107251
-9.67445e-05
0.000119144
2.15709e-05
-2.10605e-05
-0.000104951
0.000105263
7.50907e-06
-0.000120995
0.000113486
-0.000118933
3.37764e-05
-7.87528e-06
0.000117639
-0.000109573
4.58729e-05
-0.000119099
-0.00010915
-2.99172e-06
0.000112254
0.000118579
-0.000120538
2.86017e-06
-0.000123584
0.000106557
1.70274e-05
-3.95878e-06
-0.000127264
0.000114744
1.69306e-05
-5.35189e-06
0.000120126
-0.000130726
0.000130726
-0.000111614
2.62523e-06
-3.61054e-05
0.000112389
0.000145776
-8.8882e-05
-5.95451e-05
-0.000131687
5.27679e-05
7.89331e-05
0.000123873
-6.10856e-07
-0.000123124
0.000112786
-0.000131731
1.89439e-05
0.000116668
-3.83427e-06
0.000122516
-2.96933e-06
0.000115063
-0.000110321
0.000116856
7.05214e-06
7.79758e-05
-0.000123726
4.57499e-05
0.000113883
-0.000137464
2.35441e-05
0.000136249
-2.24441e-05
-1.72804e-06
0.00012269
-7.74473e-05
0.000146176
-6.87287e-05
-9.73124e-05
-2.11522e-05
0.000109803
-0.000130606
2.07722e-05
0.0001143
-4.53573e-06
0.000119089
-0.00012748
8.43867e-06
-0.000122805
2.54801e-05
-3.07399e-05
-0.000100943
0.000112454
-0.000135674
2.32326e-05
-2.01155e-05
-0.000106089
0.000105178
8.49848e-05
-9.15125e-05
-0.000102418
0.000112716
0.000133568
-0.000133568
0.000116543
3.14606e-07
-2.09291e-05
0.000120675
-0.000128334
7.59046e-06
-0.000126014
3.75731e-06
6.97373e-05
7.5636e-05
-0.000128981
2.04664e-05
0.000108514
0.000110673
-0.000134535
2.38574e-05
-0.000109771
0.00013396
-2.32742e-05
-0.000119775
-1.81825e-06
0.000102584
-4.75256e-05
-4.07657e-05
0.000118741
-1.77334e-05
0.0001453
0.000112414
2.38103e-05
-0.000111171
0.000109913
-2.32529e-05
0.000113842
-0.00011383
6.96943e-05
-0.000121472
5.17775e-05
0.000109155
-0.000133189
2.39874e-05
0.000132659
-2.34887e-05
-1.90538e-05
-0.000109758
0.000119774
7.44573e-06
-0.000126039
-2.15799e-05
-0.000113261
1.43079e-05
-0.000108642
9.54051e-05
-7.46384e-05
0.000118931
-4.53397e-05
-0.000113378
3.7841e-06
0.000109596
5.03101e-06
0.000114676
-0.000111374
0.000103836
0.000111273
0.000124051
-3.5822e-06
0.000108179
-0.000132496
2.43788e-05
-2.6137e-05
8.97066e-07
-0.000111533
0.000110649
0.000111588
6.62413e-06
-2.29364e-05
4.88926e-05
8.62182e-05
0.00010943
6.57086e-07
-0.000110069
9.38013e-07
0.0001085
8.36012e-06
0.00011895
-4.69873e-05
-5.99966e-05
0.000106985
-0.000136292
8.2726e-05
5.49273e-05
7.33606e-05
-0.000120342
1.90239e-07
0.000111262
-0.000111464
-0.000111327
0.00011151
9.79337e-05
-0.000100664
-0.000117211
0.000121968
-4.75465e-06
0.000102074
-0.000122695
2.06252e-05
0.000110513
-8.55807e-06
-1.01997e-05
-9.90038e-05
0.000109204
6.70136e-05
4.77582e-05
-0.000114774
0.000109232
2.46985e-05
-2.41199e-05
1.68855e-05
-0.000117948
0.000101025
-0.000118164
-6.34774e-06
0.000120263
3.56823e-06
0.000106051
-0.000131076
2.52216e-05
0.000130494
-2.43163e-05
7.52583e-05
-0.000120329
4.50711e-05
0.000113757
-0.000106248
0.000116614
-0.00011987
0.00011485
5.74961e-06
-5.33766e-07
0.00011921
3.21886e-05
-0.000110868
-0.000115542
-1.66233e-06
0.000123511
-4.15654e-06
-7.51055e-05
-4.34451e-05
0.000115361
0.000104648
-0.00012992
2.51139e-05
0.000127294
-1.64962e-05
-0.000129836
-2.71859e-05
9.97018e-05
-8.47934e-05
0.000107877
2.49516e-05
-2.44086e-05
-7.96675e-05
-5.55377e-05
0.00013338
0.000126032
-0.000124547
-1.48137e-06
-1.48518e-05
0.000126335
-0.000111472
9.95231e-05
-0.000120043
2.04283e-05
0.000109232
-9.68515e-06
0.000105893
-0.000106451
6.53654e-07
-4.67546e-06
-0.000118909
-0.000131135
2.00975e-05
0.00011103
-2.34779e-05
-0.000107722
-1.62367e-05
-0.000114492
-4.73986e-05
0.000116758
-0.000144462
7.75072e-05
6.69765e-05
-0.000122142
0.000105719
1.64221e-05
0.000105696
3.17575e-07
0.000115013
-0.000109198
-5.86872e-06
-0.000136381
0.00012014
-0.000117351
1.18807e-07
-0.000115931
0.000117709
-1.77699e-06
-7.07048e-05
-7.37327e-05
6.97839e-05
-0.000124885
5.51008e-05
-8.10509e-07
-0.000124204
-4.22466e-06
-0.000124756
0.000120749
-5.9908e-07
-0.000121155
5.2284e-06
0.000102737
-0.000128994
2.628e-05
-2.78616e-05
0.000111705
3.24696e-06
9.75044e-05
-0.000117659
2.01466e-05
-0.000123852
2.70243e-06
0.000108043
-1.0509e-05
0.000108308
9.10495e-06
-2.27358e-05
0.000128333
-0.00012431
-5.23489e-06
-5.47808e-06
0.000115885
-0.000110964
0.000123624
-0.000123626
-0.000157841
7.46939e-05
8.35649e-05
-6.84315e-05
0.000123624
-5.38199e-05
-0.000115546
-3.88177e-06
0.000118138
-0.000124827
-2.81595e-06
-7.26579e-05
-4.57066e-05
0.000119915
6.89211e-05
4.26587e-05
-0.00011158
8.4336e-05
-9.45357e-05
3.97994e-06
0.000119604
-0.000123584
0.000104712
2.58105e-05
0.000100684
-0.00012752
2.6847e-05
-2.52366e-05
-0.000130333
0.000115488
-0.000118858
0.000118856
8.10026e-05
4.77979e-05
0.000126298
-2.55973e-05
-2.04924e-05
-0.000115896
0.000100593
7.4086e-05
-0.000121679
4.75932e-05
-4.11196e-06
-0.000118802
0.000122616
-1.19085e-06
0.000119322
-0.000118727
9.46034e-05
-0.000115347
2.05174e-05
0.000106397
-1.18261e-05
0.000125235
-0.000126565
-0.000107703
0.000111683
-7.28252e-05
-6.38924e-05
-7.2898e-05
0.000122721
-4.87765e-05
-0.000123532
2.6424e-06
0.000121602
-0.000125839
4.11999e-06
-6.45952e-05
0.000131607
0.000122539
1.26178e-06
0.000122339
3.33402e-07
-0.000150753
7.1766e-05
7.62548e-05
3.6296e-05
0.000106003
0.000122012
5.00335e-07
7.33313e-05
-0.000106623
3.343e-05
0.000121791
4.55445e-06
0.000109547
-3.62663e-05
3.53282e-05
9.93451e-05
-0.000125676
2.63484e-05
0.000116279
0.000125251
-2.58899e-05
0.0001303
-2.17336e-05
-0.000110068
-0.000108796
-6.54726e-07
0.000109059
-0.000138858
8.07224e-05
5.81344e-05
0.000106325
1.04758e-05
-2.26166e-05
-4.30193e-05
0.000118278
0.000130011
-0.000129981
-0.000106181
0.000106856
0.000111323
-0.00011038
-6.82639e-05
0.000114337
-4.67591e-05
-2.09945e-06
-0.000121072
9.79857e-05
-0.000124653
2.66484e-05
-0.000114368
0.00011712
-2.74938e-06
0.000124169
-2.62006e-05
-0.000127869
0.000129595
0.000118926
3.21022e-06
2.84867e-06
-0.000114603
0.000111736
-0.000112073
0.000107261
-0.000101369
-8.70813e-06
0.000110733
-0.000119124
4.75507e-06
-0.000108398
-4.02012e-05
0.000101672
-0.000117121
0.000138266
-1.28768e-05
0.000121874
-4.48803e-07
-0.000117047
-2.07768e-06
0.000120112
-0.000120116
9.66751e-05
-0.000123557
2.69287e-05
0.000123213
-2.64943e-05
8.86162e-05
-0.000109156
1.95262e-05
0.000101265
-1.27292e-05
-6.97755e-05
-6.90812e-05
-0.000124473
4.70254e-05
-0.000115432
-1.61257e-06
6.85177e-05
7.30355e-05
0.000120635
5.42882e-06
0.000104982
9.33334e-06
-2.252e-05
-0.000117105
0.00010742
9.6858e-06
0.000129837
-0.000125223
-0.000102899
0.000114233
0.00010587
-0.000112224
6.58285e-06
0.000111639
-4.3629e-06
-0.000107279
9.52656e-05
-0.000122655
2.72685e-05
0.000121988
-2.68096e-05
-4.21178e-06
-0.00011793
-0.000121063
0.00012601
-4.85442e-06
1.11781e-06
-0.000114471
0.000142006
-2.34341e-05
-5.52745e-05
0.000123145
7.03714e-07
-0.000134294
2.19747e-05
-0.000107411
-1.24046e-05
0.00011292
-4.55532e-06
-0.000108369
9.915e-05
2.71511e-05
0.000119604
-4.99101e-05
-2.65187e-05
-0.000120894
0.000109498
1.11764e-05
5.6621e-06
-0.000114617
-0.000153193
8.94722e-05
6.37437e-05
-0.000112884
3.15675e-06
0.000109716
-6.94358e-05
-8.37453e-05
4.05709e-06
0.00010769
-0.000111739
-0.000113522
4.61602e-06
0.000108916
-7.21499e-06
-0.000106313
-0.000118107
0.000110876
9.38848e-05
-0.000121372
2.75279e-05
-0.000114036
2.30897e-06
0.00011173
0.000113733
-4.12868e-06
-0.000109608
-3.15873e-06
0.000113157
-0.000109992
0.000110578
0.000121012
-2.70912e-05
0.000114791
-4.38882e-06
-0.000110394
0.00011955
-6.63019e-07
-0.000126493
-1.28319e-05
-0.000117495
-4.49211e-06
0.0001147
-0.000110211
6.72085e-05
4.47193e-05
-0.000111928
-0.000122584
4.7547e-05
-6.21883e-05
-6.8565e-05
-0.000132518
3.10181e-05
9.78194e-05
2.74661e-05
4.90937e-06
-0.000111129
-2.68179e-05
5.37527e-06
0.000106261
-0.000108437
8.05003e-06
0.000100387
9.25675e-05
-0.000120397
2.78304e-05
-6.154e-06
0.000120021
0.000114183
-4.69484e-06
-0.000109491
-0.00011985
-6.02819e-06
0.0001199
-2.73588e-05
-7.65341e-05
0.000126507
-4.82402e-05
0.000126701
-1.12405e-05
-0.000115463
0.000138055
-2.36893e-05
-0.000121965
0.000119256
2.70821e-06
0.000122312
-0.000121825
-0.000122847
7.2256e-06
0.000115612
-2.48989e-06
0.000113162
-0.000110715
-6.56754e-05
0.000118265
8.70613e-05
-0.000107768
1.997e-05
-1.53765e-05
0.000102266
1.02368e-05
0.0001179
-1.05418e-06
0.000111827
-0.000110789
-1.10335e-05
9.81202e-05
-8.70862e-05
0.000135267
-8.00471e-05
-5.54034e-05
2.53737e-06
-0.00011498
0.000112443
2.51902e-06
-0.000117949
0.000116928
-0.000116926
-0.000110345
0.000111625
-1.27422e-06
0.000111099
-0.000114219
2.90278e-06
-0.000101791
0.000102699
-1.50157e-06
0.000114159
-0.000112971
-8.28011e-07
-0.000112299
0.000113063
5.69753e-05
6.73668e-05
-0.000122871
-1.32035e-06
0.00011903
-0.000115441
-1.43744e-06
0.000116878
-0.000123988
-2.79981e-08
0.000111578
-0.000112445
0.000105372
3.35654e-05
9.11941e-05
-0.000119296
2.81439e-05
-5.03819e-05
-5.63251e-05
0.000106732
9.63831e-05
2.7795e-05
-0.000133798
8.34359e-05
0.000115016
-4.09302e-05
-3.14554e-05
-2.71339e-05
-0.000140323
8.00954e-05
6.02452e-05
-6.2995e-05
0.000118305
-5.60836e-05
6.48988e-05
6.23806e-05
-0.000127279
-7.11494e-05
0.000121214
-0.000115885
0.000109972
5.92103e-06
-0.000116594
7.25309e-07
-0.000114121
5.291e-07
0.000113751
3.86442e-06
0.000123638
-0.000107953
-2.87849e-06
0.00011083
-0.000100449
8.94103e-05
8.39131e-05
-0.000105333
0.000109819
-0.000118112
-2.1715e-06
0.000111516
-0.000109233
4.73072e-05
-0.000118635
-7.40674e-05
-6.62502e-05
1.30938e-06
0.000112332
-0.000113575
-0.000121726
-6.52708e-06
-0.000142916
8.29175e-05
-2.78983e-06
-0.000120059
0.000122957
-0.000124795
-0.000100387
0.000120854
-0.000117041
0.000115188
-1.99274e-06
0.000114707
-0.00011297
-2.45626e-05
-9.4295e-05
7.08209e-05
-0.000137978
-3.45057e-05
0.000115508
-0.000111297
1.66524e-07
0.000111197
1.9019e-06
9.19704e-05
-8.99432e-05
1.82016e-06
-0.000113089
0.000111203
9.51497e-05
2.81264e-05
0.000112435
6.21902e-07
-0.000112919
0.000113389
-7.0306e-07
-0.000112683
-8.35732e-07
0.000113264
0.000111872
-0.000112743
-2.74749e-05
-0.000112054
-1.97488e-06
-1.32056e-06
0.000112967
-0.000121903
0.000125671
-0.000111803
0.000112312
-5.08065e-07
1.40564e-06
0.000110203
0.000109467
3.69534e-06
-0.000111787
4.85427e-10
-5.84057e-05
-4.79734e-05
0.000106456
-0.000135295
2.9297e-05
9.40268e-05
-8.88208e-05
-3.36646e-06
8.82875e-05
-0.000118668
3.04714e-05
0.000124867
-0.000119378
-4.54476e-06
-2.04308e-06
0.00012292
0.00011686
-2.84062e-05
4.26324e-05
-0.000115305
8.89576e-05
-0.000105154
1.58782e-05
-1.70049e-05
0.000105777
-0.000117415
0.000108154
9.26056e-06
0.000105533
-9.46716e-06
-0.000115074
0.000121326
-6.13993e-05
-3.96963e-05
9.23408e-05
-0.000116899
0.000112675
-3.37292e-06
-0.000113533
-7.47954e-05
-7.66957e-05
-9.99771e-05
1.1131e-06
9.67145e-05
-0.000115305
0.000112108
2.28278e-06
0.000112883
-0.000114837
-6.10698e-06
-0.00010827
0.000113823
1.77246e-06
0.000112904
-0.000114882
0.000136825
-6.68861e-05
-6.99387e-05
5.17245e-06
0.000107744
9.35819e-05
2.84064e-05
-0.000117773
4.7349e-06
0.000112745
-0.000120097
4.88587e-06
-2.77336e-05
8.75076e-05
-0.000116527
2.88572e-05
-3.27628e-05
8.76888e-05
-0.000103552
1.57656e-05
-0.000111619
0.000105849
-0.000108444
-4.44598e-06
-1.76923e-05
0.000105137
4.86749e-06
5.13087e-05
8.3751e-05
0.000122592
-0.000120055
0.000114324
-9.36174e-07
-0.000118917
5.0754e-05
0.000111962
-1.37089e-06
-0.000110471
-0.000112417
0.000131466
0.000106412
-8.9564e-05
1.22681e-06
-0.00010739
1.70354e-06
-0.00011299
0.000111607
-3.11316e-06
0.000120238
6.60492e-05
6.18112e-05
-0.00012786
8.05766e-05
6.88127e-05
-0.000148267
-0.000101307
-2.14986e-06
0.000105156
-1.8614e-07
-0.000113111
0.000113758
7.44142e-06
0.000116188
-0.000116409
0.000113667
-0.000113417
0.000115445
-0.000116425
9.86461e-07
-3.82631e-07
0.000114334
-7.43379e-07
0.000113835
-0.000113601
0.000114961
-0.000115137
-0.000123095
-6.64137e-05
0.00011846
-5.29192e-05
-6.64816e-05
0.000120493
-5.50206e-05
-0.000138293
3.7906e-05
0.0001137
-0.000112834
7.73852e-07
-0.000113594
0.000113106
-1.27404e-05
0.000123218
-0.000110479
0.000127317
-7.95609e-05
9.23298e-05
2.8711e-05
-0.000110704
3.43897e-06
0.000107265
8.09766e-05
-0.000135662
5.50172e-05
0.000121192
5.84845e-06
-0.000115446
-0.000136341
7.92471e-05
5.71143e-05
-2.80629e-05
0.000110416
-0.000107587
-0.000116655
-1.29838e-06
-0.000109478
0.000111603
-2.12513e-06
1.36861e-06
-0.000110778
-0.000114874
0.000105135
1.1509e-05
-0.000116507
0.000115279
1.30084e-06
-0.00011328
-3.20109e-06
8.60148e-05
-0.000116862
3.09319e-05
-0.00011943
-1.9812e-07
0.000115022
-2.89751e-05
-0.000128788
8.31896e-05
-0.00011864
0.000113366
5.33111e-06
-0.000117409
-1.22303e-06
-0.000115395
0.000113678
1.68782e-06
-0.000113873
-1.55403e-06
-0.000116409
-0.000113772
0.000112799
9.03742e-07
-0.000116431
8.69429e-06
0.000107723
0.000115474
-0.000112748
-9.99487e-05
9.28972e-08
-0.000115998
4.55675e-06
0.000111465
-0.000108893
-2.84586e-06
0.000111745
9.08981e-05
2.08357e-08
0.000109073
-0.000109068
-0.000111983
-2.19656e-06
0.000114191
-0.00011328
2.50238e-06
0.000110789
-6.80859e-05
-8.92059e-05
3.87152e-06
0.000119823
-5.00396e-05
0.000117099
4.61546e-06
0.000108863
1.9157e-06
-0.000110773
6.75285e-07
0.00011225
-0.000112909
-0.000111914
0.000118329
-4.94079e-05
0.000115132
-5.21954e-06
-0.000109912
-0.000114726
2.07289e-06
0.000112643
9.08676e-05
2.90419e-05
-0.000113227
1.13697e-06
0.00011211
0.000107543
2.08978e-06
-0.000109632
-2.83715e-05
0.000119078
-2.02375e-06
-0.000113659
4.79256e-07
0.000113346
6.34364e-06
6.14216e-07
-0.000114021
-0.000111914
0.000112769
5.57619e-07
-0.000112427
-0.000117069
0.000116627
0.000114032
-3.48983e-06
-0.000110537
8.49329e-05
-0.000114515
2.94184e-05
-3.28748e-05
0.000123665
-0.000123771
-0.000116063
0.000116041
1.97995e-06
-0.000113183
2.5943e-06
0.000110609
-6.75542e-05
-7.53639e-05
-0.000116889
9.96352e-05
0.000113429
-0.000112847
-5.79463e-07
-0.000112119
2.99826e-06
-0.0001158
4.39226e-05
-0.000111068
-1.31663e-06
-0.000108829
0.000107966
6.35988e-07
0.000108021
-0.000108667
-0.000114349
3.49132e-06
0.000110854
0.000127268
-0.000138909
0.000119578
-0.000114404
0.000110505
-0.000114882
-0.000114309
0.000115145
-1.45045e-09
0.000114559
-1.70402e-06
-0.00011301
0.000112204
-0.000116695
0.00011396
0.000118662
-0.000118991
-0.000116912
0.000115513
1.3748e-06
-0.000113768
-3.18346e-06
-0.000119369
0.00011579
3.56021e-06
-0.000116331
-3.00632e-06
-0.000119289
0.00011588
3.54102e-06
-0.000116326
-2.96482e-06
-0.000119515
0.000115944
3.50504e-06
-0.000116633
-2.92555e-06
0.00014028
-9.22007e-05
-1.27501e-06
-0.00011136
0.000112718
-0.000119718
0.000116269
3.44285e-06
-0.000134002
7.30187e-05
5.99668e-05
-0.000116737
-2.88007e-06
-0.000119555
0.000116305
3.33273e-06
0.000114511
0.000124084
-0.000108314
-1.54862e-05
9.1566e-05
1.34915e-05
-0.000104917
-0.000116812
-2.77792e-06
0.000115135
-0.000119762
0.000116436
3.22025e-06
0.000118153
5.06116e-06
-0.000117132
-2.68038e-06
-0.000135919
3.09688e-05
-0.000111687
1.23741e-06
0.000110954
-0.000119811
0.000116734
3.09622e-06
-6.75033e-05
-5.23e-05
0.000119829
-0.00011714
-2.54035e-06
9.98606e-05
-0.000101975
2.42551e-06
2.85429e-06
-0.000108984
0.000106136
-0.000119648
0.000116729
2.97754e-06
-0.000111094
-5.4783e-06
-0.000117275
-2.40756e-06
7.48769e-07
-0.000111817
-0.000101986
-9.41375e-06
5.33142e-05
-0.000120818
-0.000115138
-5.29998e-06
0.000102788
-1.12869e-05
-0.000109951
0.000114888
-4.92949e-06
-0.000112064
2.11497e-06
-0.000119819
0.000116892
2.85601e-06
-0.000117555
-2.29143e-06
-4.19358e-06
0.000110777
-0.000106577
8.17277e-07
0.00011168
-0.00011213
-0.000119286
0.000116585
2.71797e-06
-0.000117597
-1.58369e-06
0.000116151
-0.000118889
2.79349e-06
-2.52339e-06
0.000122633
-0.000121437
-0.000119801
0.000117384
2.43791e-06
8.55886e-05
-0.000115683
3.04287e-05
-0.000117755
-1.92003e-06
1.92774e-06
-0.000109019
0.000107108
9.66744e-05
1.37899e-05
-0.000119583
0.000117359
2.29143e-06
0.000115463
-7.87957e-06
-0.000107862
-0.000117846
-1.76227e-06
0.00011427
-2.8255e-05
-2.19886e-05
1.66919e-06
-0.000109168
0.000107507
0.000111246
-0.000114521
3.27177e-06
-2.76642e-07
0.000111527
-0.000119948
0.00011739
2.33732e-06
-0.000118106
-2.02007e-06
-0.000118354
0.000100089
1.70509e-05
2.89975e-06
-0.00010943
0.000106527
3.74355e-06
-0.000110354
0.000106605
-0.000120138
0.000117117
2.92814e-06
2.42026e-06
-0.000113401
0.000111809
-0.000118142
-1.95734e-06
-7.02705e-06
0.000117833
-0.000115315
-2.80049e-06
-0.000120455
0.000117324
3.11483e-06
-0.000118305
-2.02919e-06
-0.000113103
0.000113403
-3.02757e-07
-0.000112795
0.000114619
-1.83121e-06
-7.97733e-07
5.60049e-05
-0.000119229
-6.26097e-07
-0.000112168
-0.000111187
0.000112371
0.000117021
-0.000118612
1.89769e-06
-6.25999e-05
-6.35504e-05
0.0001125
-0.000120864
0.000118093
2.86862e-06
5.00123e-07
0.00011081
-0.000111295
-0.000118281
-2.27484e-06
-1.4647e-07
-0.000111127
0.000111269
-4.05604e-06
0.000109712
-0.000105658
1.71848e-06
-0.000112773
-0.000111596
0.000113526
-0.00012036
0.000117715
2.65281e-06
-0.000118461
-2.08649e-06
-0.000114034
-6.03372e-08
0.000113807
-0.000111425
-1.69979e-06
0.000112841
-0.000120305
0.000117573
2.51966e-06
-0.000112628
-0.000118881
-1.37277e-06
-0.000116547
0.000118234
-1.69114e-06
-1.19065e-06
-0.00012053
-0.000120703
0.000118416
2.24202e-06
-0.000118925
-1.63858e-06
-0.000113563
2.03927e-06
-4.0368e-06
-0.00011986
0.000118211
1.99978e-06
-0.000118458
-1.41275e-06
-4.78302e-05
-6.60625e-05
-2.89198e-07
0.000111823
-0.00011151
-0.000112728
0.000112441
0.000110854
-0.000109607
-0.000120357
0.000118066
1.80149e-06
-0.000113707
-1.46091e-07
0.000113808
-0.000119274
-1.25229e-06
9.29904e-07
0.000111403
-0.000112464
-0.000117889
0.000118058
-0.000115139
9.65757e-07
0.000114237
-8.3583e-06
-0.00012004
0.000118863
1.56466e-06
-0.000118556
-1.00999e-06
0.000115418
1.51978e-06
-0.00011933
0.00011785
1.35978e-06
-0.000119059
-7.90367e-07
4.85932e-07
-0.000120644
0.000109404
-0.000117183
0.000117379
-1.77946e-07
-7.50575e-05
-4.08585e-05
0.000120291
-6.20835e-06
8.34456e-05
-0.000113962
3.01112e-05
5.85734e-06
-0.00012241
0.00010713
-2.2851e-06
-0.000104957
-3.27075e-05
-0.000113003
6.39683e-06
0.000106607
-5.60125e-06
-0.0001092
-6.75657e-05
-6.3618e-05
0.000131309
-0.000116567
0.00011546
1.18582e-06
-0.000116108
-1.02992e-06
-2.87471e-06
8.7022e-05
2.9959e-05
0.00011135
-0.000110839
-0.000116963
0.000116068
8.56916e-07
0.000111206
9.45267e-05
3.07833e-06
-9.7605e-05
-1.6718e-06
-2.9476e-05
0.000102384
-7.85683e-06
0.000118428
-1.06182e-06
9.97842e-07
-1.65675e-06
0.000112882
-4.85909e-06
-0.000107824
0.000116375
-9.21368e-07
-1.38886e-06
0.000120386
6.40273e-05
7.6006e-05
-0.000134098
7.89079e-05
5.56089e-05
-8.55107e-05
-5.27824e-05
-1.46075e-05
0.000115951
-1.89066e-06
-0.000111994
-0.000119836
-0.000136295
7.22818e-05
-0.000109295
0.00010998
0.000111962
-0.000110586
9.06449e-07
-0.000112147
5.93307e-09
0.000112272
0.000131224
-5.28763e-05
-0.000112436
8.80507e-07
0.00011156
6.71062e-06
-0.000115191
0.000107577
-0.00011141
1.0653e-06
-0.000119411
4.75133e-05
0.000122172
-9.73798e-05
-2.1057e-06
0.000112362
-0.000110038
-4.90484e-06
-0.000109132
0.000114009
7.24632e-05
-0.0001237
5.12368e-05
0.00010755
-0.000111744
0.000115959
-0.000102615
-0.000149981
8.86656e-05
6.13129e-05
-0.000112927
6.23357e-07
0.000112266
-8.59177e-07
-0.000111337
-0.000137154
6.53325e-05
9.88632e-05
6.28488e-06
-0.000105464
0.000107995
-9.21591e-06
-4.87924e-06
2.2522e-06
-0.000119386
7.5316e-06
4.5848e-07
-0.000112993
0.000114832
-0.000114856
-4.16872e-07
0.000109585
-0.000110642
3.54226e-05
-0.000110363
0.00011118
5.8365e-07
-0.000115872
0.000116185
-1.96588e-07
0.000121148
-0.000123432
-0.000115948
-4.72192e-07
-7.08149e-07
-0.000112362
-6.72966e-05
0.00010323
-3.61123e-05
-6.36428e-07
-0.000113467
0.000114179
9.25432e-05
1.31763e-05
-0.000105719
0.00011322
-0.000111652
8.12395e-05
-0.000111843
3.16317e-05
0.000103646
-1.11026e-05
-2.98931e-06
-0.000111403
0.000109867
-0.000109789
0.000106804
-0.000111769
0.000111492
-2.89895e-05
-3.63543e-06
-0.00010706
0.000110514
-0.000112073
0.000110013
-6.69763e-05
0.000130733
-6.37562e-05
-0.000118485
0.000117847
5.36874e-07
-1.94704e-06
0.000110858
-0.000112003
-6.80919e-05
-6.82367e-05
0.000107328
-0.000111565
-4.11648e-06
0.000111049
0.000119174
-8.36201e-05
-7.11594e-05
0.000126286
-5.89987e-05
0.00011092
-0.000119526
1.48433e-06
0.000124467
-7.71877e-06
-0.000102339
3.51963e-05
-1.12179e-06
0.000101158
5.14683e-07
0.000116414
-0.000120037
5.6801e-06
0.000114465
-0.000120145
-0.00011944
0.000118232
1.029e-06
-2.50491e-06
-0.000114695
9.00635e-07
-1.32454e-06
0.000106825
-0.000105404
-0.000116874
9.47742e-05
1.4538e-05
-0.000119604
0.00011835
1.01313e-06
-0.000135649
2.84288e-05
0.000108422
-0.000109633
-2.423e-06
-2.18724e-05
0.000114917
-1.9691e-06
-1.3182e-06
-0.000112778
0.00011427
0.000117428
-5.02192e-05
-0.000115187
1.06718e-06
-0.000109737
0.000107202
0.000107592
-2.40897e-06
0.000112766
6.50549e-06
-0.000115315
0.000109194
-0.000118973
0.000118549
3.48027e-07
-0.000108495
5.46571e-07
0.000108441
-1.69867e-06
0.000125413
-8.27543e-05
-0.000108645
-4.91369e-06
0.000111357
-0.000109772
0.00011402
-1.36501e-06
0.000116152
-1.96103e-06
7.85566e-05
-0.000110416
3.03267e-05
5.60992e-06
0.000108162
-0.000112569
-0.000111729
0.000112865
0.000125493
-0.00012191
0.000107114
-3.07092e-05
4.58798e-06
-0.000116424
0.000111988
-5.97989e-06
0.000116547
-0.000110071
7.76572e-06
0.000107561
-0.000115392
-0.000109409
0.000117198
0.000140783
-0.000111447
-2.92978e-05
6.2194e-06
-0.000108728
0.000102485
-0.000119248
0.000119715
-6.86639e-07
0.000108447
-0.000102221
5.04144e-05
9.04023e-05
0.000115354
-9.88319e-07
4.63595e-06
-0.000114149
0.00010961
5.61405e-06
-0.000116755
0.000109647
7.98027e-06
0.000103934
-0.000111927
8.69426e-07
0.00011077
-0.000111977
-0.000118063
0.000106451
-0.000108203
0.000116146
-1.46622e-06
-1.27154e-07
0.000110203
-0.000109958
0.000106301
-0.000109656
0.000111334
-0.000118368
1.46833e-06
3.07074e-06
0.000115496
-7.96174e-07
7.5947e-07
-0.000111748
0.000108899
-0.000110871
-2.73546e-06
0.00010568
-0.000110019
-0.000110564
0.000106008
8.50712e-05
2.99855e-05
-0.000114531
0.000113461
1.08145e-06
0.000117687
-0.000117896
3.70829e-08
0.000118241
-4.48243e-07
-2.95551e-05
0.000111103
4.16732e-07
0.000118155
-0.000118435
2.58087e-07
-0.000117762
0.000118675
-8.20298e-07
0.000118532
-6.61883e-07
9.91186e-06
0.000106759
-0.000116669
-9.75528e-05
0.000107469
1.16008e-05
-0.000109147
-0.000107498
0.000103135
-0.000117962
4.36351e-07
-4.57425e-06
8.80076e-05
-0.000101969
1.33935e-05
-3.86841e-07
0.00011701
0.000108268
-0.000111442
0.000116125
9.22696e-05
-4.73277e-06
-0.000116462
-8.13917e-05
0.000103547
-2.22309e-05
0.000124512
-7.65937e-06
0.000110042
-0.00010208
7.63892e-05
-0.000105328
3.02581e-05
0.00010948
-2.97865e-05
9.34229e-05
-0.000100025
0.000117289
-6.29407e-06
7.91066e-07
-0.000110149
0.000113841
-4.48922e-06
-0.000103416
9.75668e-05
-0.000103929
5.22882e-06
-0.000115662
-0.000114315
4.30165e-07
-9.17785e-07
0.000113153
-0.000112111
0.000112631
3.5033e-06
0.000104356
-0.000107849
0.000107438
1.5708e-06
-0.000113187
-0.000106296
-6.93949e-06
-3.47785e-06
-0.00011076
-0.000118415
3.22373e-06
6.30307e-07
0.000110059
-0.000110691
-0.000113805
-2.28548e-06
0.000117889
-0.000117883
2.23548e-06
-6.86156e-05
-8.13653e-05
-0.000113637
3.32762e-07
-0.00011806
-2.07774e-06
-5.70211e-05
-7.68797e-05
5.96209e-06
-0.000124426
-0.0001069
-0.00011647
-2.147e-06
0.000106751
-0.000110134
2.78901e-06
-0.000108457
-1.65718e-06
0.000110254
0.000109168
2.48224e-06
-0.000110247
-0.000120903
0.000122599
-0.000105178
0.000111788
-1.32183e-07
1.34052e-05
-9.4763e-05
-0.000113402
6.90733e-06
-0.000116227
-1.14139e-06
-0.000115992
-1.08038e-06
-0.000116092
-1.03617e-06
-0.000116294
-1.229e-06
4.71342e-07
-0.000118484
1.37817e-06
-0.000116462
5.63126e-05
3.93508e-07
-0.000115906
-1.00129e-06
5.67326e-07
0.000114301
3.42947e-07
0.000114198
-0.00011558
1.46772e-06
-0.00011617
-1.36466e-06
3.20867e-07
-0.000138785
7.77379e-05
6.10961e-05
-0.000115633
-9.84939e-07
6.94998e-07
3.09686e-07
-0.000111397
0.000114123
-2.70964e-06
-0.000116077
-1.58375e-06
0.000113936
-0.000122258
8.23794e-06
-0.000115638
-1.00604e-06
3.31166e-07
1.74572e-06
-0.000115354
-1.03824e-06
0.0001153
-0.000114832
-5.14493e-07
-0.000116206
-1.74553e-06
3.5907e-07
-4.37542e-06
-0.000115171
-1.06469e-06
1.1291e-06
-0.000115584
-9.6824e-07
-0.000116345
-1.81219e-06
3.83364e-07
-0.00012634
5.93641e-05
0.000104821
-0.000108954
7.5383e-05
-0.000109293
3.22017e-05
1.07167e-06
2.01515e-06
0.000113299
-2.03121e-06
-0.000111741
-3.33098e-08
-0.000116634
-1.49174e-06
0.000111189
-0.000110593
2.73125e-06
-0.000111372
2.87529e-06
-1.36051e-06
6.12918e-07
-3.76595e-05
2.77559e-06
0.000110105
-0.000112462
-0.000117179
-9.9831e-07
1.05699e-06
-0.00010913
-9.75406e-07
0.000109828
1.02735e-06
-0.000117067
-1.05864e-06
1.2254e-06
0.000135738
-0.000117405
-1.27107e-06
6.72693e-07
-0.000117156
-1.50184e-06
1.23408e-06
-0.000114079
1.00627e-05
-0.000108541
8.35599e-07
5.04569e-06
-0.000109538
0.000104501
-0.000116807
-1.74405e-06
0.000125141
-2.38311e-07
-0.000104353
0.000109407
-0.000113301
-1.21739e-06
1.87705e-06
-1.80216e-06
-0.000111299
0.000112681
-0.000111862
-5.6868e-07
0.000112347
-0.000116777
-1.95492e-06
1.32969e-06
-0.000117051
-2.15343e-06
9.37178e-05
1.4347e-05
1.57043e-06
-0.000108805
-1.74926e-06
0.000109236
-0.000116079
-2.32159e-06
0.000112132
0.000115219
-4.06762e-07
-2.18501e-05
1.75887e-06
-1.26928e-06
-0.000117796
-0.000116727
0.000116174
-2.44324e-06
-0.000116935
-2.5725e-06
-0.000117437
0.000119213
-1.67999e-06
-0.000118078
1.21407e-06
1.58323e-05
-0.000107507
9.11308e-05
1.97868e-06
-0.00011585
-2.10188e-06
2.1965e-06
-5.56017e-05
-7.61068e-05
0.000131878
-1.52647e-06
-0.000109701
0.000112
0.000106972
-0.000109615
3.57964e-06
-0.000115646
-2.96085e-07
0.00010992
-0.000110655
-4.26623e-06
0.000110331
-0.00010607
1.10343e-06
-0.000110107
-1.20583e-06
0.000111359
1.26576e-06
0.000109444
-0.000112363
-7.05446e-05
0.000136594
-0.000106363
-0.000118522
0.000117074
-3.27901e-06
4.17314e-06
0.000109583
-3.23855e-06
0.000116928
-0.000109162
-3.80585e-06
0.000116583
-0.000116317
0.000117488