/*--------------------------------*- C++ -*----------------------------------*\
  =========                 |
  \\      /  F ield         | OpenFOAM: The Open Source CFD Toolbox
   \\    /   O peration     | Website:  https://openfoam.org
    \\  /    A nd           | Version:  12
     \\/     M anipulation  |
\*---------------------------------------------------------------------------*/
FoamFile
{
    format      ascii;
    class       volScalarField;
    location    "4.05";
    object      rho;
}
// * * * * * * * * * * * * * * * * * * * * * * * * * * * * * * * * * * * * * //

dimensions      [1 -3 0 0 0 0 0];

internalField   nonuniform List<scalar> 
46253
(
1.4412
1.45905
1.56151
1.45856
1.55669
1.55321
1.41314
1.29516
1.45464
1.454
1.44524
1.19339
1.43355
1.43388
1.40001
1.45192
1.45122
1.44115
1.44181
1.44729
1.44687
1.54721
1.40001
1.41887
1.40495
1.45662
1.44917
1.44891
1.457
1.29958
1.41749
1.42525
1.42465
1.4447
1.44398
1.39998
1.43667
1.43603
1.26766
1.40001
1.39397
1.19006
1.42859
1.42779
1.42648
1.43924
1.43883
1.40001
1.42075
1.42016
1.41767
1.4162
1.5338
1.32369
1.57838
1.23106
1.41168
1.41157
1.50119
1.38123
1.4002
1.34231
1.39999
1.40001
1.40001
1.43152
1.43092
1.54155
1.24369
1.42099
1.41556
1.40939
1.4086
1.36852
1.52839
1.41811
1.39233
1.39128
1.40001
1.4228
1.42285
1.40229
1.53529
1.40196
1.41423
1.5216
1.37294
1.37235
1.27172
1.42524
1.40001
1.39168
1.52021
1.41362
1.40001
1.41312
1.51874
1.40001
1.49854
1.40029
1.40001
1.5175
1.52496
1.414
1.57167
1.41658
1.18126
1.35204
1.34983
1.18521
1.26671
1.40575
1.40462
1.40001
1.40001
1.2711
1.22227
1.38537
1.61345
1.2297
1.40001
1.55027
1.40032
1.39986
1.51151
1.61592
1.40018
1.2112
1.60309
1.38808
1.33438
1.33327
1.55038
1.39901
1.38751
1.39999
1.38241
1.3814
1.23346
1.39999
1.39462
1.32587
1.3245
1.40447
1.39556
1.59012
1.37542
1.37467
1.26426
1.42422
1.18421
1.53218
1.38571
1.38462
1.38033
1.42339
1.20183
1.40001
1.36697
1.57127
1.36628
1.1593
1.2216
1.39999
1.41492
1.37859
1.3973
1.37773
1.70629
1.39999
1.35949
1.3586
1.5436
1.39739
1.56587
1.45114
1.28593
1.51724
1.3404
1.22594
1.56648
1.37828
1.35488
1.35444
1.52775
1.37011
1.36901
1.43054
1.52756
1.52707
1.53026
1.51897
1.32073
1.51907
1.53461
1.5343
1.26392
1.5066
1.27063
1.26911
1.40001
1.40006
1.36388
1.36255
1.40195
1.42963
1.37367
1.34394
1.34416
1.4
1.40001
1.61517
1.40344
1.52317
1.31002
1.50568
1.4022
1.412
1.33829
1.54387
1.5387
1.33692
1.45177
1.35636
1.35688
1.40582
1.50839
1.51362
1.25292
1.25152
1.4624
1.40001
1.47555
1.47173
1.51044
1.40001
1.53276
1.40001
1.46074
1.47461
1.51042
1.51613
1.50225
1.5332
1.4
1.5266
1.40001
1.37111
1.50142
1.3286
1.32799
1.47178
1.23594
1.50064
1.23489
1.3467
1.34538
1.26069
1.38748
1.49911
1.40783
1.37976
1.20464
1.40667
1.3352
1.40001
1.40001
1.40001
1.34202
1.31857
1.34141
1.51373
1.40005
1.40001
1.31787
1.50942
1.58528
1.4
1.31743
1.27602
1.21833
1.21568
1.52667
1.52325
1.40001
1.32033
1.38527
1.22968
1.39736
1.40005
1.49265
1.49178
1.38996
1.40001
1.48732
1.43932
1.51478
1.4386
1.40392
1.31218
1.60636
1.31135
1.22137
1.60008
1.52788
1.33122
1.33065
1.39999
1.40623
1.52754
1.52704
1.28031
1.40001
1.30574
1.49506
1.30487
1.24318
1.4868
1.40089
1.31391
1.20663
1.49443
1.41102
1.40457
1.29455
1.39329
1.49378
1.50392
1.29925
1.29868
1.18376
1.17749
1.52834
1.39999
1.49312
1.36074
1.24892
1.3219
1.32068
1.40001
1.53404
1.53014
1.40001
1.60722
1.49046
1.2931
1.29176
1.40001
1.247
1.51574
1.30269
1.40046
1.35817
1.40001
1.16028
1.48771
1.31555
1.39999
1.31471
1.42813
1.16463
1.52638
1.4977
1.52683
1.52706
1.49586
1.49512
1.49503
1.28598
1.49019
1.4869
1.48761
1.48747
1.2853
1.49568
1.48171
1.23063
1.51255
1.48987
1.39999
1.41455
1.33687
1.20575
1.30897
1.32433
1.30831
1.4911
1.40001
1.27966
1.63151
1.52829
1.39929
1.27885
1.39664
1.48951
1.31664
1.36528
1.36595
1.49849
1.30971
1.40001
1.47695
1.47129
1.47997
1.5125
1.51865
1.53523
1.41926
1.40001
1.49247
1.49644
1.52792
1.59145
1.52773
1.30679
1.51765
1.323
1.50311
1.4918
1.26264
1.51793
1.40001
1.27322
1.50039
1.30226
1.50041
1.4
1.2726
1.30152
1.52357
1.28115
1.4
1.40001
1.53511
1.53551
1.28418
1.31115
1.52641
1.53514
1.32617
1.20997
1.52452
1.37424
1.52409
1.28686
1.3834
1.51932
1.49783
1.23144
1.40001
1.27554
1.31314
1.39999
1.32418
1.40001
1.51268
1.31161
1.51517
1.29628
1.2955
1.49643
1.29485
1.29519
1.29579
1.48952
1.293
1.5173
1.52623
1.51683
1.48823
1.5265
1.29773
1.40001
1.31758
1.21371
1.26266
1.24779
1.36732
1.2623
1.33229
1.46207
1.45876
1.39998
1.50936
1.50745
1.40027
1.60806
1.40001
1.2789
1.40496
1.17141
1.27865
1.29154
1.38028
1.29075
1.40001
1.48828
1.28887
1.30367
1.20486
1.28812
1.25767
1.25643
1.45299
1.38836
1.49707
1.44978
1.41103
1.44444
1.40001
1.49708
1.3778
1.52122
1.32356
1.32918
1.40219
1.52793
1.29171
1.49577
1.39999
1.35578
1.5414
1.30855
1.4998
1.49845
1.30902
1.49271
1.30998
1.31139
1.31004
1.40001
1.29172
1.29227
1.40001
1.2947
1.30088
1.49012
1.40005
1.28292
1.40001
1.40668
1.25209
1.49125
1.5159
1.28219
1.40096
1.40023
1.51513
1.51584
1.15887
1.51127
1.51195
1.2475
1.24784
1.24733
1.38586
1.50034
1.50136
1.49533
1.49691
1.49985
1.52102
1.47546
1.29089
1.17748
1.52468
1.53159
1.40006
1.51946
1.52361
1.53357
1.40644
1.40198
1.39999
1.39029
1.52713
1.51481
1.22375
1.40001
1.52587
1.52395
1.2761
1.52063
1.52902
1.27542
1.38635
1.42502
1.49643
1.42578
1.42622
1.42769
1.33388
1.52793
1.24055
1.23903
1.39988
1.34244
1.52282
1.51991
1.37251
1.49185
1.60337
1.30276
1.51904
1.60241
1.51988
1.4893
1.40525
1.41171
1.48836
1.49551
1.32561
1.29689
1.48979
1.49009
1.35202
1.48722
1.48891
1.48243
1.48363
1.47572
1.47659
1.46987
1.47152
1.4286
1.28877
1.46445
1.36858
1.46529
1.45673
1.49032
1.40326
1.4276
1.45793
1.49611
1.45086
1.49069
1.45249
1.40001
1.29114
1.44465
1.49191
1.44524
1.55338
1.49337
1.43667
1.53731
1.43791
1.53837
1.14379
1.4921
1.25554
1.4272
1.52549
1.52599
1.4307
1.43215
1.49736
1.30698
1.42404
1.4248
1.35174
1.5048
1.50312
1.41336
1.23092
1.41398
1.49235
1.26618
1.406
1.21611
1.40688
1.2318
1.26469
1.48937
1.52495
1.52461
1.40357
1.40515
1.30676
1.4882
1.48701
1.40713
1.27865
1.40753
1.21275
1.49448
1.40224
1.40284
1.52545
1.52742
1.52586
1.33172
1.52779
1.30157
1.33668
1.41903
1.50753
1.39257
1.51349
1.3921
1.51287
1.4933
1.3023
1.30229
1.38291
1.38475
1.28686
1.3068
1.37918
1.31128
1.38029
1.50469
1.36602
1.36969
1.37009
1.52812
1.2382
1.35916
1.35974
1.67571
1.49691
1.497
1.52789
1.35439
1.28551
1.35729
1.46248
1.32753
1.29423
1.20045
1.34891
1.34671
1.33678
1.33726
1.34074
1.24517
1.24269
1.50528
1.27116
1.61064
1.22709
1.46819
1.21574
1.22392
1.21492
1.33273
1.40593
1.49288
1.50603
1.49394
1.2608
1.51353
1.50951
1.51285
1.40001
1.51058
1.26067
1.40001
1.50398
1.50271
1.26118
1.23159
1.49327
1.36152
1.43158
1.43456
1.40001
1.41194
1.49247
1.52252
1.40001
1.3585
1.51489
1.28649
1.52085
1.41697
1.36159
1.41853
1.22185
1.52834
1.37159
1.39687
1.42758
1.51951
1.40001
1.49721
1.40001
1.51404
1.42037
1.41934
1.34971
1.41074
1.4083
1.48872
1.26624
1.49183
1.48898
1.42139
1.32804
1.51804
1.27679
1.51692
1.51833
1.36622
1.3661
1.49208
1.42378
1.23084
1.29286
1.40001
1.2907
1.2138
1.40001
1.51877
1.29319
1.2916
1.51923
1.21777
1.52816
1.52523
1.4
1.41985
1.42163
1.28806
1.51635
1.51793
1.5086
1.40156
1.3616
1.52706
1.3069
1.32681
1.22913
1.54905
1.49716
1.49577
1.40001
1.40513
1.40715
1.49069
1.52214
1.41087
1.24934
1.39798
1.40001
1.52262
1.40033
1.24884
1.29191
1.28993
1.39998
1.28512
1.30989
1.21165
1.28486
1.21407
1.37294
1.52686
1.52642
1.37539
1.40001
1.52856
1.29036
1.28665
1.52788
1.21315
1.23394
1.30613
1.22677
1.25086
1.20499
1.24227
1.23755
1.21464
1.21592
1.47259
1.53955
1.35204
1.53998
1.47181
1.29424
1.24453
1.24521
1.49334
1.52749
1.3129
1.50482
1.30699
1.31084
1.51414
1.51321
1.27275
1.51554
1.40001
1.51663
1.49044
1.28943
1.30677
1.35195
1.49928
1.4876
1.24511
1.49873
1.31509
1.31356
1.24433
1.52337
1.31168
1.30284
1.30988
1.49053
1.49059
1.48999
1.49037
1.30243
1.3094
1.51603
1.34937
1.51722
1.2405
1.53988
1.23797
1.43414
1.41032
1.49361
1.19352
1.20056
1.38338
1.58521
1.49185
1.2439
1.27604
1.27468
1.24914
1.49829
1.49945
1.29324
1.46348
1.49337
1.49365
1.30404
1.13408
1.32947
1.29531
1.48037
1.50701
1.50746
1.50818
1.51465
1.51282
1.6346
1.51425
1.43495
1.24551
1.21976
1.3196
1.45652
1.49333
1.4858
1.25729
1.28552
1.43541
1.53268
1.44074
1.44681
1.45476
1.43452
1.44244
1.40001
1.30605
1.44812
1.46061
1.43511
1.2903
1.45545
1.41363
1.42663
1.46232
1.50994
1.4666
1.42794
1.46764
1.52475
1.41566
1.49679
1.47364
1.47458
1.4168
1.47872
1.47843
1.40949
1.48058
1.52652
1.48478
1.4111
1.50389
1.40494
1.4857
1.4
1.48676
1.20885
1.4055
1.52506
1.53449
1.52671
1.40458
1.42806
1.52894
1.52707
1.53442
1.40545
1.20119
1.47771
1.403
1.49393
1.30837
1.40381
1.39353
1.39464
1.2471
1.38849
1.3902
1.38186
1.49124
1.42038
1.38114
1.49365
1.37104
1.40388
1.49377
1.49954
1.37046
1.26199
1.45353
1.36309
1.36635
1.35987
1.23281
1.35886
1.47141
1.34782
1.49116
1.32408
1.23149
1.34962
1.35353
1.34447
1.28793
1.34608
1.32578
1.32419
1.40519
1.34758
1.33618
1.33462
1.43605
1.44054
1.50678
1.49154
1.43778
1.48908
1.43813
1.43856
1.45773
1.39998
1.61333
1.35142
1.40001
1.33275
1.34607
1.39819
1.40283
1.49097
1.32656
1.41634
1.41258
1.34473
1.32895
1.41713
1.41719
1.41822
1.42465
1.31195
1.24537
1.30854
1.29115
1.49137
1.31099
1.24346
1.21408
1.34967
1.40001
1.43737
1.42445
1.18292
1.40001
1.20086
1.3833
1.32017
1.20952
1.40001
1.48548
1.49647
1.28622
1.34927
1.32693
1.41617
1.35084
1.35996
1.42174
1.23081
1.32465
1.23076
1.32358
1.40937
1.15119
1.23237
1.42346
1.31428
1.41309
1.33277
1.49553
1.41592
1.45894
1.29194
1.33444
1.50558
1.49538
1.47457
1.30484
1.5204
1.49004
1.47091
1.44941
1.3369
1.21191
1.40001
1.41379
1.46845
1.30241
1.29025
1.47981
1.40001
1.52434
1.2129
1.47662
1.21664
1.30695
1.30712
1.58024
1.4138
1.30377
1.52072
1.3285
1.46482
1.3513
1.53634
1.33629
1.24283
1.48572
1.48684
1.3106
1.34203
1.31994
1.2965
1.30056
1.30119
1.48578
1.53775
1.32328
1.28961
1.28695
1.21268
1.35161
1.51989
1.29351
1.38454
1.31388
1.18061
1.31238
1.42472
1.4
1.50788
1.50861
1.24306
1.30437
1.47982
1.28616
1.30568
1.32791
1.33284
1.24877
1.28608
1.45348
1.40478
1.43277
1.48972
1.49263
1.3047
1.44355
1.50296
1.51012
1.5126
1.29876
1.50503
1.30052
1.1502
1.32844
1.34271
1.4936
1.51357
1.34302
1.40001
1.49585
1.29054
1.48838
1.49738
1.48514
1.36533
1.48963
1.2905
1.34288
1.43082
1.52318
1.39438
1.47725
1.45453
1.30653
1.40001
1.42407
1.47847
1.46549
1.52498
1.30583
1.51613
1.52793
1.53584
1.24015
1.46644
1.53321
1.44194
1.38678
1.40001
1.54137
1.41557
1.45337
1.52042
1.26927
1.46479
1.21415
1.20464
1.48501
1.45255
1.4544
1.36176
1.51733
1.53399
1.38885
1.21122
1.39104
1.41852
1.47584
1.44999
1.477
1.52821
1.48041
1.43961
1.47124
1.51474
1.27811
1.3421
1.47198
1.276
1.45051
1.31067
1.29461
1.46631
1.31563
1.5412
1.304
1.47436
1.46764
1.51692
1.52503
1.53209
1.33085
1.45617
1.46207
1.46327
1.5255
1.52406
1.51489
1.3696
1.46622
1.47104
1.33809
1.52442
1.4575
1.46853
1.31203
1.26908
1.43234
1.45221
1.43159
1.38674
1.45342
1.48935
1.52682
1.38615
1.44597
1.42719
1.44713
1.46312
1.22768
1.41708
1.52768
1.43859
1.46476
1.39999
1.44006
1.52098
1.4758
1.47317
1.30334
1.46113
1.49091
1.5288
1.43321
1.43413
1.24158
1.42748
1.4965
1.42893
1.4167
1.50366
1.42247
1.49648
1.33298
1.34177
1.23232
1.45573
1.23668
1.33268
1.49367
1.42342
1.34062
1.3334
1.41812
1.42033
1.192
1.42044
1.41808
1.34882
1.41987
1.42002
1.4896
1.42367
1.4136
1.29296
1.37439
1.41985
1.40693
1.41408
1.41992
1.48917
1.42197
1.39999
1.32706
1.42181
1.40845
1.37051
1.24045
1.30451
1.42218
1.39542
1.21971
1.40149
1.40959
1.40283
1.27605
1.48885
1.42002
1.21549
1.22193
1.29264
1.39618
1.42431
1.40821
1.40016
1.33072
1.45046
1.49256
1.48609
1.49353
1.48839
1.48716
1.26568
1.38654
1.48957
1.38534
1.38093
1.38655
1.48834
1.23054
1.3858
1.42014
1.41988
1.37659
1.38235
1.33882
1.417
1.45806
1.37287
1.46778
1.37304
1.42428
1.37359
1.36257
1.48663
1.38356
1.51424
1.33459
1.49319
1.48729
1.30519
1.36416
1.42822
1.40807
1.43083
1.30151
1.34585
1.41768
1.29022
1.2522
1.43471
1.51152
1.35419
1.35654
1.51216
1.48599
1.50035
1.49471
1.50124
1.4954
1.51349
1.26199
1.48615
1.48548
1.48055
1.22549
1.44544
1.45027
1.22938
1.34712
1.21515
1.48941
1.44995
1.48482
1.37518
1.50736
1.32746
1.41401
1.5084
1.50656
1.47117
1.48973
1.24845
1.26318
1.38755
1.42126
1.51181
1.49655
1.33341
1.29496
1.42848
1.49378
1.53807
1.43907
1.52012
1.37427
1.48436
1.33753
1.33874
1.38495
1.46601
1.32486
1.3328
1.49787
1.26347
1.3347
1.37043
1.41599
1.48007
1.4663
1.52324
1.48122
1.42884
1.32509
1.359
1.45637
1.48052
1.49212
1.50004
1.42565
1.51316
1.49779
1.41115
1.23235
1.44451
1.19451
1.48386
1.42961
1.44507
1.51675
1.31208
1.4432
1.51755
1.31349
1.32851
1.31593
1.56482
1.50294
1.18979
1.46107
1.44514
1.22767
1.16475
1.33437
1.34015
1.34095
1.47942
1.30772
1.3112
1.32537
1.51992
1.31165
1.47373
1.45451
1.33907
1.42703
1.32092
1.26375
1.52605
1.52599
1.32512
1.3272
1.41447
1.52232
1.29555
1.42176
1.29646
1.31568
1.29693
1.3424
1.31579
1.41901
1.438
1.42072
1.48604
1.39803
1.29836
1.42785
1.31411
1.47175
1.26832
1.41195
1.51
1.26665
1.26226
1.21357
1.49458
1.23358
1.27284
1.32246
1.49693
1.45193
1.28871
1.3305
1.48685
1.32173
1.28666
1.43194
1.44752
1.53244
1.34153
1.52165
1.32592
1.27627
1.32927
1.17511
1.44664
1.52217
1.44901
1.41917
1.27771
1.48784
1.45943
1.38569
1.39596
1.39272
1.39049
1.44536
1.24981
1.33871
1.39152
1.39397
1.43717
1.27461
1.27805
1.40001
1.28429
1.49741
1.28992
1.46849
1.2713
1.22203
1.45365
1.36645
1.48771
1.43973
1.37178
1.33555
1.53087
1.36145
1.37242
1.41782
1.60993
1.21861
1.52534
1.2654
1.48066
1.26307
1.49037
1.36176
1.26518
1.53161
1.41632
1.36148
1.35717
1.51555
1.35043
1.26653
1.27607
1.40001
1.40001
1.35176
1.42497
1.4831
1.42805
1.29326
1.42329
1.42487
1.42563
1.23163
1.37752
1.48723
1.4197
1.50606
1.45444
1.40001
1.43217
1.50455
1.42714
1.47566
1.2535
1.16184
1.15791
1.3864
1.27155
1.25131
1.24658
1.38394
1.45375
1.42053
1.25349
1.30445
1.47838
1.36498
1.36415
1.31968
1.32922
1.42994
1.50608
1.38868
1.50829
1.23925
1.46602
1.50583
1.23251
1.52687
1.23073
1.26974
1.32769
1.24941
1.52799
1.52816
1.42137
1.42266
1.37097
1.29759
1.53119
1.52101
1.30335
1.38741
1.21271
1.53484
1.48429
1.36216
1.21229
1.20826
1.47479
1.29307
1.41301
1.35588
1.26144
1.5312
1.41523
1.2174
1.3865
1.42332
1.39089
1.4186
1.57711
1.32432
1.29269
1.33064
1.29633
1.33004
1.32466
1.40873
1.30196
1.34628
1.53433
1.35826
1.50506
1.39999
1.29604
1.28228
1.3059
1.2859
1.47472
1.32927
1.50367
1.52489
1.29983
1.30792
1.40397
1.38237
1.32482
1.40392
1.28039
1.39266
1.31021
1.39915
1.42455
1.34291
1.51133
1.22653
1.53307
1.34007
1.38615
1.40031
1.50894
1.34428
1.29037
1.40001
1.48948
1.29212
1.32279
1.48077
1.49266
1.49446
1.32206
1.49375
1.28473
1.3854
1.39435
1.23909
1.3458
1.28922
1.41177
1.50213
1.39591
1.24506
1.50247
1.21226
1.43228
1.41267
1.28761
1.29231
1.50217
1.52722
1.38787
1.33454
1.22898
1.39112
1.38965
1.50511
1.25665
1.44178
1.51044
1.2751
1.4
1.39999
1.36409
1.29259
1.31693
1.27344
1.49979
1.43219
1.37549
1.26111
1.4247
1.26155
1.45034
1.33361
1.43556
1.46907
1.45437
1.24409
1.34088
1.39029
1.2617
1.44895
1.4592
1.43312
1.25588
1.22551
1.38858
1.27783
1.3641
1.22083
1.46429
1.41067
1.45066
1.27819
1.40019
1.4307
1.44308
1.41597
1.46064
1.32744
1.45504
1.47877
1.49434
1.46521
1.47317
1.49309
1.43689
1.42573
1.47025
1.43191
1.41535
1.48323
1.43307
1.48439
1.49622
1.34728
1.36344
1.39793
1.47806
1.47452
1.46337
1.22728
1.2696
1.38393
1.41668
1.41206
1.34715
1.44306
1.4348
1.53359
1.47893
1.50522
1.50082
1.32568
1.25788
1.40444
1.37801
1.32784
1.26704
1.26234
1.46061
1.26925
1.3347
1.38407
1.35978
1.39944
1.28878
1.40531
1.29062
1.50657
1.48965
1.36314
1.41156
1.53435
1.51284
1.38759
1.36608
1.2834
1.33554
1.36557
1.38867
1.5072
1.25277
1.52977
1.36066
1.35697
1.36153
1.31914
1.23734
1.27996
1.28889
1.38437
1.30449
1.39056
1.26833
1.52575
1.3169
1.30603
1.24949
1.3671
1.47118
1.36027
1.56544
1.47829
1.39282
1.37573
1.32245
1.3486
1.50796
1.32527
1.20834
1.43788
1.48273
1.32385
1.42832
1.51551
1.37803
1.31096
1.20739
1.36965
1.38494
1.32829
1.37206
1.35913
1.36752
1.31953
1.45371
1.30857
1.35268
1.3604
1.36727
1.45476
1.30429
1.37554
1.30679
1.33092
1.3489
1.31089
1.33841
1.39999
1.38911
1.44874
1.31363
1.36145
1.53245
1.45001
1.50518
1.35517
1.42823
1.36172
1.51528
1.44414
1.32713
1.41974
1.33074
1.36838
1.44524
1.46463
1.39998
1.32268
1.49399
1.37726
1.32386
1.36121
1.32735
1.52807
1.33646
1.36102
1.35754
1.23325
1.30942
1.38813
1.37359
1.32364
1.43766
1.34117
1.3401
1.36574
1.48553
1.33652
1.32939
1.43889
1.33322
1.38148
1.33638
1.35598
1.3434
1.46701
1.35163
1.38229
1.31133
1.43358
1.31957
1.34784
1.3567
1.59805
1.35833
1.51355
1.53558
1.43495
1.33401
1.38003
1.32218
1.39351
1.31159
1.37569
1.42771
1.49157
1.51036
1.41416
1.30005
1.27714
1.4287
1.38937
1.48941
1.40565
1.40169
1.28125
1.29919
1.4995
1.38916
1.34037
1.39191
1.30301
1.29815
1.32865
1.42177
1.46555
1.43798
1.37487
1.42336
1.28366
1.46243
1.485
1.49777
1.33483
1.48875
1.48918
1.33535
1.2443
1.4042
1.28322
1.45125
1.48494
1.48265
1.48565
1.3593
1.48395
1.27041
1.46662
1.27965
1.28284
1.36553
1.42708
1.2875
1.23945
1.41357
1.21502
1.28241
1.42496
1.37415
1.26985
1.41529
1.41294
1.4854
1.36098
1.28296
1.50628
1.47087
1.38324
1.4982
1.39394
1.40001
1.40835
1.28255
1.27346
1.39019
1.37786
1.40558
1.37407
1.49885
1.43453
1.38883
1.49361
1.37854
1.40707
1.43526
1.38355
1.26612
1.49469
1.40223
1.26908
1.34686
1.36404
1.42123
1.46444
1.39034
1.39791
1.43675
1.38311
1.41964
1.27514
1.38481
1.29732
1.26395
1.32896
1.48896
1.39909
1.33123
1.18171
1.29518
1.36073
1.34353
1.35536
1.46484
1.37472
1.38921
1.37376
1.3727
1.40001
1.42192
1.39788
1.29467
1.40628
1.30821
1.39442
1.49257
1.2524
1.25564
1.48692
1.53241
1.47317
1.486
1.39584
1.44283
1.2321
1.43937
1.29014
1.50307
1.254
1.19252
1.41638
1.36482
1.25529
1.38401
1.38633
1.40476
1.28316
1.49087
1.47018
1.32226
1.43904
1.40001
1.48115
1.32394
1.42208
1.23739
1.38507
1.27618
1.40761
1.50862
1.36747
1.36516
1.37048
1.42776
1.43726
1.27701
1.46732
1.2561
1.26939
1.51068
1.38635
1.31918
1.43199
1.40282
1.43465
1.25094
1.26659
1.37527
1.45631
1.36359
1.44409
1.43817
1.47062
1.3785
1.40713
1.44058
1.38348
1.47168
1.49378
1.37732
1.23176
1.27436
1.15538
1.39023
1.46346
1.37635
1.49578
1.45481
1.37322
1.24901
1.45113
1.45337
1.30603
1.18142
1.37865
1.44762
1.37961
1.32111
1.29825
1.38401
1.46426
1.35018
1.35711
1.30375
1.4899
1.33056
1.34386
1.2631
1.25258
1.36419
1.45857
1.51087
1.26314
1.26613
1.3579
1.26617
1.25142
1.33168
1.37422
1.45644
1.32434
1.41235
1.22823
1.40984
1.3585
1.38006
1.35991
1.318
1.45556
1.40768
1.38963
1.40944
1.23567
1.23275
1.3926
1.22507
1.35611
1.47518
1.26679
1.48098
1.28712
1.35774
1.47261
1.47368
1.28054
1.43525
1.49195
1.32859
1.35821
1.50925
1.29067
1.48914
1.15909
1.39998
1.33867
1.21509
1.34755
1.35387
1.26045
1.34969
1.26166
1.33042
1.33111
1.49962
1.40749
1.51603
1.34189
1.35157
1.4393
1.34218
1.38619
1.45755
1.34329
1.4581
1.49894
1.39346
1.15338
1.33575
1.41909
1.44315
1.30329
1.33141
1.337
1.35076
1.41515
1.42009
1.34622
1.48859
1.21492
1.50729
1.34075
1.17395
1.49333
1.32709
1.37173
1.33748
1.43289
1.3231
1.32874
1.38861
1.2941
1.5184
1.25027
1.25116
1.41023
1.46896
1.51664
1.32471
1.3933
1.40124
1.46654
1.41708
1.41159
1.32633
1.33233
1.21954
1.47183
1.43567
1.4
1.47011
1.31389
1.47801
1.35936
1.4743
1.31495
1.52952
1.26608
1.37136
1.39221
1.31083
1.31826
1.42526
1.42003
1.46439
1.31305
1.46411
1.38666
1.53108
1.49716
1.53278
1.21865
1.30107
1.47032
1.23654
1.41296
1.48109
1.39536
1.32904
1.43051
1.28906
1.30225
1.38989
1.22284
1.32099
1.43733
1.23812
1.31457
1.49475
1.36773
1.31499
1.32639
1.37382
1.41351
1.41177
1.48401
1.24375
1.49091
1.4889
1.51458
1.28629
1.42213
1.29823
1.50891
1.49549
1.25295
1.4925
1.48687
1.38464
1.29998
1.40764
1.511
1.3227
1.3334
1.24914
1.38542
1.25351
1.37747
1.28814
1.42959
1.32942
1.48598
1.53166
1.30088
1.33092
1.25469
1.38496
1.2897
1.53288
1.33995
1.41151
1.32762
1.49386
1.36165
1.38563
1.49556
1.32952
1.48486
1.35849
1.26906
1.37474
1.63127
1.33959
1.50776
1.2847
1.37184
1.43529
1.43615
1.52074
1.48876
1.39319
1.26788
1.28583
1.39619
1.33998
1.26949
1.37701
1.37373
1.33224
1.49682
1.54214
1.5247
1.15409
1.26592
1.27539
1.27764
1.23286
1.48235
1.48666
1.49755
1.36885
1.48971
1.48121
1.27685
1.23265
1.35673
1.49319
1.27658
1.27448
1.27083
1.29279
1.41383
1.36903
1.5165
1.27501
1.2723
1.29684
1.37129
1.3531
1.29004
1.32778
1.48461
1.31487
1.51896
1.47581
1.51401
1.37472
1.33256
1.35523
1.25535
1.50809
1.37417
1.40001
1.48407
1.25623
1.51586
1.5031
1.35691
1.29769
1.52476
1.35523
1.2793
1.29324
1.47194
1.51477
1.49125
1.53232
1.30301
1.46957
1.3428
1.24746
1.43766
1.2441
1.25216
1.49108
1.30405
1.49251
1.45608
1.5187
1.30663
1.24313
1.24246
1.45147
1.39929
1.3041
1.36095
1.5312
1.53298
1.3713
1.37894
1.44652
1.24954
1.30802
1.45741
1.4703
1.52659
1.46976
1.52107
1.23405
1.47066
1.31184
1.31146
1.44075
1.42125
1.3234
1.45275
1.23861
1.31875
1.40005
1.25114
1.40851
1.52516
1.46605
1.41944
1.44161
1.5343
1.43629
1.44743
1.36961
1.36576
1.30628
1.31154
1.36028
1.4492
1.47021
1.44252
1.23032
1.41552
1.43029
1.36442
1.31035
1.53411
1.31506
1.47347
1.32804
1.42513
1.31195
1.53481
1.2177
1.4369
1.49093
1.45527
1.42031
1.41463
1.4874
1.52981
1.32801
1.49213
1.35196
1.24958
1.31834
1.15741
1.4318
1.41937
1.53155
1.37786
1.27695
1.50307
1.3624
1.41698
1.32197
1.31538
1.32649
1.33327
1.45551
1.42644
1.33017
1.32486
1.49029
1.47099
1.22979
1.37158
1.32965
1.42409
1.3265
1.40858
1.41808
1.45762
1.32444
1.51273
1.26627
1.33671
1.40099
1.4267
1.33508
1.26496
1.22744
1.43661
1.40909
1.3916
1.33466
1.3304
1.32696
1.3262
1.22326
1.25582
1.39707
1.26403
1.22497
1.53513
1.2715
1.49169
1.49041
1.40897
1.34732
1.40326
1.25548
1.50164
1.5283
1.25922
1.34388
1.50337
1.38881
1.4923
1.34544
1.27305
1.49378
1.56563
1.49149
1.3452
1.48799
1.31957
1.35576
1.53505
1.3973
1.39521
1.34251
1.47082
1.39698
1.50301
1.4161
1.34086
1.59195
1.35364
1.33862
1.41511
1.35038
1.26219
1.25542
1.44822
1.38199
1.39178
1.35306
1.35154
1.34947
1.42749
1.2586
1.42195
1.25641
1.50297
1.43508
1.49818
1.50529
1.36846
1.36082
1.35905
1.41723
1.34171
1.24764
1.54313
1.36859
1.40813
1.33543
1.32953
1.29066
1.38403
1.35373
1.24291
1.48101
1.24504
1.35675
1.49366
1.53377
1.48082
1.35911
1.2436
1.38878
1.24444
1.32953
1.50841
1.36291
1.37464
1.35243
1.36644
1.22896
1.4934
1.5071
1.42788
1.36109
1.36018
1.2314
1.34808
1.48938
1.49757
1.27173
1.36468
1.35732
1.37213
1.35235
1.33221
1.33308
1.33137
1.57187
1.36255
1.33508
1.38859
1.48933
1.34598
1.37388
1.35695
1.51213
1.37407
1.53363
1.45195
1.35731
1.27024
1.46209
1.34463
1.35029
1.2837
1.34564
1.35899
1.45237
1.5333
1.35374
1.34256
1.41659
1.38936
1.37279
1.49753
1.35392
1.37209
1.33863
1.34165
1.36053
1.49172
1.47363
1.35771
1.55372
1.49214
1.44832
1.24356
1.34012
1.45309
1.2854
1.34576
1.33139
1.26619
1.45289
1.46397
1.31904
1.37979
1.4373
1.48441
1.36211
1.36559
1.34003
1.32708
1.44386
1.36518
1.4851
1.38375
1.47564
1.37149
1.37035
1.38552
1.50852
1.37742
1.33378
1.36629
1.3175
1.48873
1.38172
1.22068
1.50149
1.55816
1.32615
1.31454
1.36168
1.48541
1.48699
1.30202
1.4823
1.32102
1.38933
1.30461
1.49416
1.4884
1.36345
1.31419
1.48334
1.38752
1.48581
1.3011
1.38444
1.23763
1.48315
1.3072
1.48787
1.29244
1.41147
1.50629
1.37343
1.39551
1.30085
1.28622
1.4937
1.48615
1.48438
1.3665
1.39417
1.29834
1.29522
1.35423
1.28071
1.39546
1.38222
1.2394
1.42412
1.5079
1.47355
1.35877
1.35904
1.23866
1.47405
1.36538
1.42632
1.49071
1.28654
1.26966
1.38658
1.26968
1.40249
1.51725
1.27251
1.39429
1.40879
1.29979
1.28275
1.3358
1.36463
1.36233
1.32619
1.37318
1.52101
1.55277
1.40067
1.3623
1.25965
1.4687
1.3525
1.32763
1.35635
1.37703
1.50359
1.27117
1.40209
1.32639
1.37118
1.43652
1.50581
1.35498
1.25843
1.39004
1.40764
1.26546
1.4823
1.53548
1.40026
1.24344
1.32599
1.53531
1.36756
1.52988
1.47123
1.37361
1.40577
1.40001
1.26129
1.45348
1.39103
1.51082
1.28751
1.39686
1.40801
1.24242
1.48215
1.24506
1.3857
1.3636
1.38816
1.44575
1.45987
1.38326
1.4816
1.41399
1.33659
1.36293
1.47919
1.52081
1.22623
1.40631
1.24415
1.44363
1.38127
1.40621
1.41281
1.51719
1.4073
1.33432
1.52051
1.34802
1.22815
1.24358
1.25227
1.38909
1.48194
1.35796
1.4879
1.41392
1.33059
1.46004
1.47975
1.35874
1.38763
1.39342
1.35403
1.1578
1.4609
1.49616
1.35383
1.41485
1.39297
1.2814
1.48403
1.38246
1.41218
1.36817
1.4232
1.48039
1.39175
1.50033
1.4217
1.53284
1.51784
1.37139
1.51919
1.41998
1.33307
1.48012
1.55571
1.40068
1.36172
1.35835
1.48779
1.33088
1.49071
1.3537
1.4437
1.47506
1.4188
1.49903
1.48953
1.35274
1.3983
1.35763
1.41211
1.46811
1.37434
1.38883
1.5985
1.44538
1.38463
1.46834
1.36226
1.38042
1.43154
1.36235
1.48148
1.49193
1.3568
1.3925
1.49306
1.48207
1.3988
1.40563
1.3965
1.4264
1.15298
1.42972
1.32195
1.34826
1.2783
1.23485
1.23346
1.5138
1.40364
1.27448
1.3542
1.29094
1.5043
1.48056
1.42467
1.34308
1.49813
1.50171
1.24843
1.50394
1.43696
1.36507
1.34287
1.48162
1.413
1.43577
1.37692
1.3552
1.37407
1.49089
1.43185
1.36526
1.5079
1.13186
1.41173
1.37619
1.39365
1.34889
1.37468
1.36012
1.18353
1.18193
1.52477
1.18159
1.4301
1.45546
1.47418
1.3767
1.47176
1.41988
1.22757
1.48274
1.48255
1.47144
1.38902
1.3599
1.36108
1.39526
1.41938
1.40963
1.16456
1.48565
1.36812
1.21997
1.47436
1.41387
1.34841
1.44537
1.48487
1.48219
1.48802
1.33806
1.38327
1.41686
1.41706
1.38685
1.37444
1.44411
1.24741
1.48453
1.37163
1.4837
1.34729
1.37845
1.36162
1.48298
1.49079
1.17025
1.49144
1.35859
1.24849
1.40755
1.28451
1.26549
1.31584
1.3449
1.4
1.36969
1.47239
1.39998
1.39868
1.42483
1.2659
1.47672
1.35469
1.35641
1.39185
1.54778
1.35161
1.40902
1.36509
1.48807
1.34114
1.42343
1.35458
1.26365
1.39568
1.25894
1.39333
1.26251
1.47255
1.2998
1.39781
1.3765
1.45344
1.37788
1.35259
1.25134
1.36787
1.4
1.46809
1.38976
1.3656
1.45191
1.35337
1.47233
1.47371
1.35853
1.4
1.47388
1.38387
1.42733
1.22576
1.35498
1.37974
1.37674
1.36495
1.43185
1.46851
1.47235
1.36111
1.25924
1.26599
1.23842
1.38407
1.48267
1.38618
1.17215
1.25661
1.35557
1.26281
1.17074
1.47306
1.42388
1.38596
1.38545
1.43031
1.2436
1.47323
1.47387
1.5079
1.38036
1.46249
1.38058
1.40068
1.36287
1.23638
1.60509
1.47371
1.2806
1.2698
1.46065
1.47386
1.25445
1.2817
1.42743
1.49125
1.30217
1.40523
1.35394
1.34458
1.2176
1.38386
1.43763
1.47046
1.42567
1.3849
1.45029
1.31585
1.25019
1.40875
1.15542
1.27578
1.3635
1.30626
1.41196
1.29123
1.46149
1.40072
1.47772
1.38561
1.47335
1.44898
1.40022
1.17404
1.45997
1.25215
1.43816
1.40611
1.47252
1.4388
1.33113
1.4904
1.34173
1.41071
1.29293
1.40652
1.38401
1.49991
1.42805
1.4362
1.38149
1.38645
1.21593
1.34771
1.42512
1.385
1.30188
1.31328
1.32854
1.35279
1.4831
1.16382
1.40186
1.24529
1.45583
1.39873
1.38243
1.42937
1.38029
1.36261
1.37627
1.39727
1.3461
1.27395
1.35109
1.43466
1.39113
1.45467
1.28443
1.30532
1.37232
1.32279
1.23248
1.52072
1.3848
1.33215
1.47562
1.37391
1.52035
1.25722
1.23893
1.46878
1.37455
1.39996
1.47826
1.33441
1.47776
1.31282
1.4156
1.30784
1.41523
1.4674
1.15325
1.49693
1.31304
1.55807
1.35387
1.47679
1.37548
1.43954
1.39471
1.38366
1.22472
1.35868
1.29755
1.22158
1.40001
1.48569
1.35969
1.46114
1.25384
1.38645
1.44694
1.35419
1.46457
1.17302
1.44733
1.35132
1.47118
1.38518
1.44179
1.31281
1.37786
1.31766
1.45972
1.32354
1.51899
1.36048
1.52208
1.44551
1.39769
1.24785
1.58176
1.40378
1.38458
1.44099
1.47196
1.44728
1.56053
1.43663
1.37118
1.20246
1.32127
1.37624
1.38713
1.47
1.47582
1.5273
1.32732
1.32824
1.44086
1.39234
1.43815
1.3319
1.25004
1.44906
1.44906
1.46599
1.34165
1.23205
1.44302
1.4746
1.37692
1.20318
1.15065
1.3872
1.33781
1.46411
1.46454
1.35665
1.36072
1.44336
1.31781
1.43012
1.38764
1.3247
1.16461
1.48853
1.41679
1.44087
1.47015
1.41833
1.25679
1.48943
1.34195
1.54872
1.33737
1.46486
1.34211
1.32558
1.45764
1.42353
1.42082
1.42801
1.36391
1.32717
1.42593
1.38322
1.45598
1.3033
1.36337
1.35769
1.41163
1.37019
1.35021
1.37596
1.49099
1.34263
1.3436
1.33264
1.47069
1.33807
1.38516
1.36721
1.45422
1.2769
1.39304
1.16355
1.38997
1.36497
1.46955
1.39309
1.38362
1.47456
1.39853
1.27802
1.34882
1.35665
1.37469
1.45638
1.35835
1.34337
1.40276
1.37983
1.33935
1.41709
1.40486
1.38586
1.38467
1.47434
1.49459
1.34256
1.50193
1.33366
1.33292
1.40262
1.41098
1.51896
1.45748
1.34024
1.44115
1.3619
1.47582
1.35562
1.36802
1.356
1.34867
1.47984
1.34142
1.37479
1.37626
1.51624
1.42665
1.33156
1.36762
1.38181
1.36072
1.43015
1.1633
1.4131
1.41748
1.52185
1.4749
1.4549
1.43595
1.39109
1.34413
1.41074
1.34258
1.36397
1.3379
1.33702
1.33229
1.22984
1.37663
1.39647
1.42058
1.39667
1.34423
1.39567
1.35553
1.4389
1.32934
1.34727
1.36483
1.40349
1.47021
1.33339
1.37076
1.35629
1.4644
1.42297
1.34413
1.32872
1.32995
1.46278
1.4095
1.29893
1.37631
1.51432
1.33816
1.27232
1.34284
1.1605
1.33229
1.47437
1.36542
1.34533
1.38958
1.38581
1.41991
1.35703
1.46022
1.40997
1.41563
1.35058
1.54053
1.36312
1.23603
1.41964
1.36882
1.47427
1.3749
1.42881
1.32645
1.5206
1.35354
1.50144
1.47538
1.36532
1.36976
1.37991
1.47452
1.25341
1.35687
1.42082
1.41034
1.33101
1.35406
1.40535
1.42121
1.4229
1.43298
1.518
1.34265
1.35373
1.41889
1.49891
1.52695
1.51812
1.34066
1.29518
1.46908
1.46627
1.42528
1.46755
1.36587
1.46799
1.50336
1.51822
1.25672
1.22466
1.3796
1.43396
1.2268
1.39549
1.37418
1.42769
1.50252
1.32378
1.43987
1.49718
1.36041
1.22694
1.43642
1.34348
1.53004
1.40499
1.35718
1.22448
1.26723
1.49422
1.37596
1.38872
1.35075
1.38457
1.3723
1.39305
1.22889
1.36111
1.40001
1.36644
1.34575
1.41127
1.43355
1.39298
1.39965
1.24008
1.24017
1.47459
1.38432
1.47392
1.43766
1.43338
1.4674
1.39759
1.39507
1.40028
1.50633
1.22484
1.50444
1.36382
1.407
1.32276
1.39418
1.4221
1.39384
1.44792
1.36028
1.55233
1.48967
1.26831
1.39988
1.38039
1.41103
1.46195
1.45476
1.48406
1.38256
1.39212
1.48666
1.4802
1.24429
1.52749
1.44092
1.22268
1.37004
1.2423
1.50043
1.47698
1.36044
1.39557
1.38514
1.45684
1.45877
1.45327
1.35289
1.39694
1.34882
1.35561
1.43796
1.428
1.45952
1.34614
1.38442
1.42093
1.38265
1.43889
1.43964
1.48743
1.5274
1.2452
1.248
1.33486
1.44652
1.42113
1.52954
1.35373
1.49306
1.23959
1.33423
1.26409
1.2836
1.21846
1.48669
1.41673
1.45828
1.53193
1.40882
1.52018
1.40962