/*--------------------------------*- C++ -*----------------------------------*\
  =========                 |
  \\      /  F ield         | OpenFOAM: The Open Source CFD Toolbox
   \\    /   O peration     | Website:  https://openfoam.org
    \\  /    A nd           | Version:  12
     \\/     M anipulation  |
\*---------------------------------------------------------------------------*/
FoamFile
{
    format      ascii;
    class       volScalarField;
    location    "4.07";
    object      T;
}
// * * * * * * * * * * * * * * * * * * * * * * * * * * * * * * * * * * * * * //

dimensions      [0 0 0 1 0 0 0];

internalField   nonuniform List<scalar> 
22702
(
1
1
0.964847
1
1.01891
1
1.12045
1
1
0.903863
1.12021
1.12047
1
1.11849
0.968135
1
1
1
1.12017
1
1.11895
1
1.11869
0.897107
1.11853
0.902636
1
1.11985
0.906576
0.898047
1
1.12022
1
1
1
1.11205
1.1184
1.11886
1
1
0.911336
1
1.06268
1
1.11969
1
1
1
1
0.896279
1
0.896972
1
1.12026
1
1.12014
1
1
1
1
0.888192
1
1
0.899602
1
0.892373
1
1
1
0.908381
1
1.11889
1.07657
1
1.11882
1.12517
0.899882
1.12004
0.89826
1
1.12068
0.894884
1.1192
1.11949
1
1
1
1
0.985821
0.904687
1.12048
1
1
0.880279
1
1.11881
0.879201
1
1
1
1
1.06457
1.12047
0.906078
1
1
1.03215
1
0.896119
1
1.1197
1.12083
1
1
0.891376
0.890637
0.901891
1
1
1
1
1
0.978258
1
1.10345
1.01384
1.12033
1
1.12024
1.12059
1.11837
1.12087
1
0.911278
1
0.877923
1
1
1
1
1.12102
1
1
1
1
1.11836
1
1.00717
1
1
1
1
0.896629
1
1.00306
1
0.898645
1
1
1
1.12007
1
1.11852
0.875511
0.898342
1.11944
1.11923
1
1.02245
1.07214
1
1.12052
0.899325
1.10937
1
1
1
1
1.11893
1.10281
1
1.12051
0.888788
1.12007
1
0.898216
1
0.895799
0.901836
0.999944
1
1
1.11973
1
1
1.11844
1
1.1191
1.12056
0.896131
1
1
0.895618
1.11846
1
1
1
1.11851
1
0.891297
1
1
1.1185
1.11859
1.11919
1
1.00001
1
1
1
1.11793
1
0.883097
1.12396
1.11839
1.11851
1
1
1
0.892715
1.1186
1.05867
1
1.11953
0.886073
0.888339
1.11976
1.11909
1
1.11856
0.894656
1.10695
1
1
1
1
1.11866
1
1.072
1.01221
1
1
1.11862
0.872357
0.935676
1
1.11886
0.889212
1.11757
1
1
1
1
1
1
1
0.898088
0.930849
0.885942
1.11849
1
1
1
1
1.1079
1
0.898975
1
0.891481
0.900144
1.11852
0.89276
1.11902
1
1
1
0.999336
0.896349
0.885958
1
1
0.889141
1
1.12084
0.902053
1
1
1.12059
0.873181
1
1.11792
0.893371
1.11871
1
0.893616
0.999361
1
1
1
0.898003
1
1
1
1
1.00442
1.07893
1
0.903771
1
1
1
1
1
1
1
1.1206
1
1.12008
1
1
1
0.895752
1
1.11838
0.891997
1
1.09372
1
1
1.12134
1
1
1
1.1178
1
1
1.11465
1.12122
1
1.02743
1
1
0.874925
1
1
1
0.878795
1
1
1
1
0.897664
1
1
1
1
1
0.895235
1.00002
1.11884
1
0.999998
1.11914
1.11959
1
1
0.900236
0.948821
1.12082
1
1
1
1.11867
0.908972
1
1.11855
1
1
0.909212
0.906405
1
0.897051
0.891084
1
1
1
1
1
1
1
1.12046
1.03269
1.11129
0.893698
0.976287
1.12087
1
1.11865
1.12061
0.88807
0.938534
1
0.891082
1
1.12474
1
1
1
1
1.11853
1
1
1
1
1
1
1
1.04859
1.11949
1
1.11855
1
1
0.896627
1
1
1
1
1.11844
1.09267
1
1
0.898195
1.11836
1.11845
1
1.11846
1.11835
1.1186
1
0.951394
1
1.1187
0.997095
1.11857
1
0.887902
0.999684
1.12093
1
1
1
1
0.896971
1.11845
1.11036
1
1.11824
1.11868
1.12059
1
1.05973
1.11926
1
1
1.08543
1.01852
1.11846
0.987098
1.11845
1
1.11847
1.11851
1.11849
1.11836
1
1.11191
0.975519
0.965927
1
1
1
1
1.12063
1
1
1
1
1
1.12096
1
1
0.998902
1.11844
1.1044
1
1.10118
1.00001
1
1
1.11861
1
0.999081
1.00136
1
1.11856
1
1.11871
1
1
1.09049
1
1.1186
1.00001
1
1.11834
1
1.11842
1
1
1
1.11863
1
1.11906
1
1.11862
1.12064
1.11857
1.12011
1
1.121
1.12002
1
0.898812
1.112
1.09089
1
1.1185
1
0.872438
0.88854
1
1
1
1
1
0.87842
1
1.11853
1.03311
1.11853
1
1
1
1
1
1.11847
1
1.11971
1.07398
0.935528
1
1
1.03595
1.03083
1
1
1.04711
1
0.900478
1.11848
1.11849
1
1
1
1.12104
1
1.00001
1.11773
1.11861
0.986441
1
1
0.89576
1.10912
1
1
1
1
1
1.11844
1.12113
1
1.11836
1.11877
1.11863
1
1
1
1
0.90449
1.12053
1
1
1.10902
1.11828
1
1.11215
1.1197
1
1
1
1
1
1.11856
1
1
1
1
1.12011
1
1.11765
0.89587
1
0.883183
1
1
1
0.999065
0.892765
0.999725
1
1
1
1.01789
1
1
0.960603
1
1
1
1
1
1
1
0.999999
0.980033
1
1
0.999309
1
0.899171
1
1
1
1
1.09086
1
1
1
1
0.893343
1
1
1.11249
1.1202
1
1
1
0.968557
1
1
1
1
1
1
0.988314
1.0042
1.11893
1
1
1
1.11884
0.974818
1
1
1
1.11922
1.11958
1
1
1
1
1
1
1
1
1
0.894539
1
1
1.11991
0.889906
1
1.11958
1
0.898148
1
1
0.892344
1
1
1
1
1
1
1
1.11641
1.11831
1
1
1
1
1.10917
1
1.04043
0.896978
1
1
1
1
1
1
1
1.01183
1
1
1.06558
1
1
1
1.10134
1
1
1
1
0.894366
1
1
0.881979
0.892677
1
1
1.11868
1
1.00944
1
1
1
1.08596
0.886317
1
0.880957
1
0.934951
1
1
1
1.11879
1
1
1.11854
1
1
1
1.11857
1
1
1.11882
1
1
0.887265
1
1.04067
1
1
1.12104
1.1206
1.08136
1.10721
1
0.890827
1
1
1.11394
1
0.890487
1
1
1
1.11855
1
1
1
1
1.075
1
1.11102
1.11984
0.894372
1
1
0.904309
0.896065
1
1
1
1.08709
1.092
1
1
1
1
1
1
1
1.05423
1.12042
1.00338
1
1.11546
0.91019
1
1
1
1.06892
1
1.0255
1
1.1094
1.11813
1
0.886003
1
1.12027
1
1
1.11869
1.11183
1
1.12129
1
0.883515
1
1
1
1.11993
1.11637
1.1055
1
1.11913
1.11835
1
1.11861
1
1.11818
1
0.889399
0.991701
0.894793
1
1
1
1
1
1.11828
1
1.11841
1
1
1
1.11313
1
0.896731
1.11846
1
0.898364
0.896066
0.891006
1
1.06027
1.01184
1.11899
1.11836
1
1
1
1
1.11852
1
1
1.11851
1.11837
1
1.04513
0.999915
1
0.999092
1.12039
0.958961
1
0.950102
0.900692
0.898717
0.992802
1.11892
1.11715
1.0276
1.11851
1.11854
1
1
1.12094
1.11979
1.11872
1.12052
1
1.11862
0.903896
1.11898
1.11888
1.11922
1.11874
0.960735
0.971172
0.979713
1.11883
0.989912
1.11863
1
1
1.11902
1.11856
1
0.889985
1.11936
1.11856
1
1.1187
1.11852
1
1.11857
0.894951
1.11819
1.12078
1.12094
1.11812
1
1
1
1.11864
1.07947
0.904782
1.1185
0.889169
1.11868
1
1
1
1
1.11956
1.11848
1
1
1.11842
0.889112
1.11848
0.900369
1
1.11785
1
0.904531
1.11886
0.920044
1
1.1184
1.11916
1.11853
1
1
1.06144
1.11895
0.895063
1.11862
1
1.11848
0.968926
1.1179
0.891053
1
1.11907
0.898192
1.11902
0.897029
1
1.11858
1
1.11899
1
1.07049
1.11451
1.09575
0.875467
1
1.11884
1
1.11852
1
1.11878
1
1
1.11864
0.997379
1.11928
0.896612
1.11084
1
1.08921
1
1.11887
1.11871
1.11901
1
1.10777
1.11876
1.11052
1.07602
1.11961
1
1.08117
1
1.11879
1
1.02004
1
1.11099
1
1.11854
1.11365
1.11329
1
1.11321
0.896298
1
0.894795
1
1
1
1.12026
1
1.11865
1
1
1
1.1186
1.1125
1.0969
1.1192
1.11846
0.883411
1.12016
1.12005
1
1.10103
1.11867
1.11098
1
1.12051
1.12023
1
1.11938
1.11849
1.11878
1.1188
1
1
1
1.11852
0.899261
1
1.11843
1
1
0.88236
1
1
1.11845
1.11865
1
1.11867
1.11735
1.11851
0.993882
1.11851
1
1.11851
1.1183
1.09916
1
1
1
1.11865
1.11861
1.11875
0.981983
1
1.1216
1.1186
1.11883
1
1.11852
1.1187
1.11866
1.12102
1
1.11886
1.11971
1.10631
1.1189
1.12029
1
1.12008
1.11737
1.1187
1.11894
1.11889
0.878564
1.11865
1.11905
1
1.11883
1.11881
1.11847
1.11845
1
1.11871
1.11841
1
1.11866
1.10148
1
1
1
1.11826
1.11985
1
1
1.06874
1
1.11833
1
1
1.11853
1.11798
1.11862
1.11844
1
1
1
1.08822
1
1.11899
1
1
1.12094
1.12086
1
1.11858
0.891724
1.11862
1.11849
0.915467
1
0.881033
1.10634
1.11829
1.11955
1.11964
0.884376
1.11897
1.11884
0.884452
0.8819
1
1.1186
1.11858
1
1
1.11868
1
1.11951
1
1.10503
1
1.05981
1.11882
1.1191
1.08826
1.10765
1.12001
1.11972
1.11066
1
0.902995
1.11781
1.11862
1.12073
1
1
1
1.11996
1
1.11871
1.11838
0.927432
1
1.1182
0.999983
1
1.00001
1.00001
1.11856
1.1178
0.999561
1
1
1.11854
1.11898
1.11865
1.11826
1.11926
0.889943
1.09966
1
1.11774
1.11862
1.11864
1.1165
1
1.11866
1.11564
1.1189
1
1.11866
1.11881
0.957264
1.11855
1.11858
1
1.1187
0.947361
1.11876
0.960958
1.11869
1
1.11846
1.12353
1.11865
1.11878
1.11854
1.11973
1.11886
1.11899
1
0.978863
1.11885
1.11846
0.951635
1.11862
0.997453
1.07883
1.1188
1.119
1.11906
1
1.11914
1.07916
1.1192
0.977325
1.11919
1.12129
1
0.962035
1
1.12061
1
1.08449
1
1.11325
0.964955
1
1.11757
1.1191
1
1.11997
1.11901
1.12051
1.11668
1.11903
1
1.1205
1
1
1
0.971948
1.11838
1.11812
1.11821
1.11864
1.11957
1.11843
1.11986
1.1187
0.971259
1.00846
1
1
1.1239
1.11858
1.11864
1.11864
1.00001
1.06437
1
1.11973
1.10438
1
1
0.927363
1.11842
1
1
0.902641
1.11856
1
1.12023
1.11821
1.12011
1.11436
1.11867
1
0.877807
1.03174
1.11861
1.11851
1
1.11857
1.11841
1.06059
1.00274
1.02995
1
1.11907
1.11854
1
1
0.881277
1
1
1.11867
1.11849
1.1183
1.11854
1.11903
1.12052
1.11856
1.11791
1.11852
1
0.998927
1.11879
1.11854
0.999212
1.11851
1.11833
0.878801
0.898652
1.11818
1.11873
1
1
1.00045
1.11847
1.11796
1.11862
1
1.11853
1
0.956383
1.12086
1.11951
1
1.05683
1.11837
1
1.11999
1
1.11888
1.08483
1.11859
1
1.11873
1.11886
0.877438
1.11873
1
1.11884
1.12011
1
0.880717
1.11898
1.10641
0.999239
1.11561
1.11872
1
1.00048
1.11972
0.99928
1.11834
1
1
1.119
1
1.11842
1.11852
0.998911
1.09657
1
1.11858
1
1
1
1
1.11868
1
1
1.11707
1
1.11911
1
1.07841
1.11981
1.11809
1
1
1.00025
1
1.11843
1.11882
1.1191
1.11885
1.1188
1.11861
1.11877
1
1.11872
1.1187
1
1.1187
1.11851
1
1.11832
0.979039
1.01656
1.11884
1.11854
1.1185
1
1.11874
1
1.11862
1.11861
1
1.11877
1
1
1
1
1.11882
0.879624
0.999371
1
1.11845
1.12077
1
1.11859
1
1.0014
0.900957
1.11853
0.999894
1
1.11799
0.999506
1.1191
1
0.999932
1
1.11854
1.11963
1.11773
1.11923
0.89132
1.11892
1.11802
1.11859
1.03256
1
1
1.05502
1.1189
0.879166
0.89025
1
1.11905
1.11844
1.1192
1
1
1.11869
1.11869
0.999968
1
1.08984
0.892502
1
1.02165
1.12055
1.12017
0.999494
1.11874
1.12186
1
0.999737
1
1.1184
1.1202
1.05067
1
1.11493
1
1.00085
1.1179
0.909401
1.1188
1.11874
0.999117
0.999975
1.10596
1
0.999913
1
1.11943
1
1
0.88822
1.11819
1
1
1
1
1.12043
1.06972
1
1
0.891077
1.11875
1.07028
1
1
1
1.11373
1.11788
1.11923
1
1
1.11865
1
1.11847
1.11877
1
1
1.11905
1.11883
1.11489
1
1
1.11907
1.11854
1
1
1
1.11857
1
1
1
1.11849
1.12015
1.11927
1
1.11998
1.00001
0.91437
1.11864
1.11823
1
1.12036
1.11628
1.12096
1
1
1.11918
1
1.06421
1.11782
1
0.880725
1
1.1191
1
1
1.11984
1
1
1
1.0382
1.11816
0.90586
1
1.11858
1
1
1.11826
1
1.11936
1
1
1.11858
1.11837
1
1.00001
1
1
1
1
1
1
1.11836
1.11834
1
1.12012
0.891007
1.11798
1
1.11843
1.11843
1.11894
1.12106
1.12141
1
1
1.11948
1
1.07702
1.11975
1.11843
1
1.1192
1.12083
1
1.10837
1
1.11842
1.07968
1.11931
0.999243
1.11962
1.10964
1.11894
1.11874
1.01018
1.11856
1.11916
1
1.1187
1
1.11862
1
1
1
1
0.999155
1.11871
1.11871
1.10016
1
1.11957
1
1
1
0.898382
1
1.11605
1
1.10902
1.11395
1
1
1
1.11539
1.1209
1
1
1.11883
0.889908
1.02224
1
1.11962
1.11846
1.10924
1.11591
1.11843
1
1.1189
1
1
1
1
1.11842
1.11854
1
1.11498
1.01703
1.11836
1.11182
1
1
1.11204
1
1
0.88731
1.08632
1
1
1.12065
1
1.11921
1.10911
1
1.1089
0.890697
1.11844
1.119
1.11853
1
0.886731
1
1
1
1.11854
1.09631
1
1.11925
1.11838
1
1.11889
1
1
1
1
1.11837
0.999808
1
1.11911
1
1
1.11649
1.11804
1
1.11817
1.02428
1.00001
1
1.11866
1
1.1186
1
1.00282
1.11852
1
1.11853
1
1
1.04189
1.11859
1
1
1
1
1
0.999021
0.885216
0.880603
1.00573
1
1.00726
1
1.00749
1
1.11852
1
1.0721
1
1.11897
1
1
1
1.11899
1
1.09415
1.11863
1
1.06676
1.11839
1
1
1.11986
1.11902
1
1
1.01557
0.875354
1
1.11904
1
1
1
1
1.02196
1.11876
1
1
1
0.888592
1
1.11875
1.11862
1.12166
1
1
1
1
1.06474
1.11947
1
1
1
1.11962
1.1186
1.01729
1
1
1
1.11864
1.11913
1
0.88194
1.1187
1.11786
1.11821
1.1184
1.11854
1
1
1.11834
1.11905
1.11846
0.896375
1.01148
1.11825
1
1
1
1
1
1.11843
0.889591
1
1
1.11848
1.05623
1
1.11802
1
1
1
0.891664
1
1
1.03582
1.11867
1.11807
1
1.11753
1.11863
1
1.02272
1
1.11907
1
1.11845
0.889352
1
1
1
1
1.11895
1.00002
1
1
1
1.11901
1
1
1
1
1.11863
0.890086
1.09546
1.11908
1
1.11836
1
1
1
0.999164
1
1.11821
1
0.942222
1
1
1.00001
1.11876
0.900565
1
1.11938
1
1.1184
1.11923
0.894965
1
1
1.11525
1
1
0.885735
1
1.12058
1
1.1144
0.99982
1.11841
1
1
1
1
1.1206
1
1
1.11884
1
1
1
1
1
1
1
1
1.0804
1
1.03994
1.11888
1
1
1
0.884053
1
1
1
1
1.11811
1.11855
1.01783
1
1
1.1186
1
1
1.11857
1
1
1
1
1
1
1.11844
0.936713
1.11771
1.11905
0.999212
1
1
1
1.0731
1
1
1.11804
1.11909
1
1
1
1
0.897743
1
1
1
1.07614
1
1.11901
1.11938
1
1.11895
1
1
1
1.06627
1
1.12076
1
1.11906
1
1
0.998954
1.11797
1
1
1
1
1
1.11773
1.00001
1
0.887433
1.11817
0.87937
1
1.11895
1
0.998791
1
1.11889
1.11882
1
1.11692
0.965903
1.11892
1.11788
1.00001
1
1
0.892416
1
1
1
1.11863
1.07142
1.1171
1
1
1
1
0.999088
1.11819
1
0.890455
1
1
1
1
1
1
1
1.11921
1.11868
1.12003
1
1
0.999107
1
0.995647
1
1
1
0.888105
0.994665
1
0.890417
0.88473
1
1.11957
1.11869
1
1.11877
1.11867
0.890685
1.08733
1
1
1
0.891297
1.11838
1
0.891495
1
1.11809
1.0213
1
1
1
1
1.11909
1.11995
1
1
1.11946
1
1
1.11985
1.11807
1
1.10668
1.11825
1.11993
0.990339
1.11968
1.00252
0.891048
1.09322
1.11853
1
1
1
0.888402
1
0.883953
1.1181
0.989921
1.11889
0.988247
1
1.11838
1.0586
1
1
1.11854
1
1.05262
1.11909
1
1
1.119
1.11879
0.88985
1.07222
0.999971
1
1.07574
1
1.11989
0.987843
1.12049
1.12036
1
1
1
1
1.1139
1
1
1.11856
0.999898
1.11858
1.101
1.11982
0.889689
1
1
1
1
1.11851
1.00001
1.11873
1
1.11837
1.11837
1.01637
1.12031
1.04197
1.11854
1
1.0831
0.900194
1.12136
1.11854
1.09727
1.02191
1.1196
1.11774
1.11892
1.11899
1
0.979446
1.01789
1
1.11857
1.05972
1.11862
1.00001
1
1
0.898407
1.11955
1.11944
1.09904
1
1.04788
1
1.11736
1.11919
1
1.11867
1.11905
1
1
1
1.11828
1
1.04982
1.11691
1.08485
1
1.11821
1
1
1
1
1
1
1
1
1
1
0.898785
1
1.11147
0.881856
1.07259
0.999594
1.11751
1
1.06665
1
1.07832
1.10254
1
1.00059
1.11806
0.979348
1
1.11905
1.11831
0.986119
1
1.11816
1.11859
1.11896
1
1.11869
1.11864
1.1185
1
1.05614
1
1.00002
1.11851
1
1.11839
1.01897
1.11827
1
1
1.11887
1.11693
0.893026
1
1.11857
1.09122
1.11807
1
1
1.11992
1.11927
0.999495
1
1.11066
0.999071
1.11853
1.00001
1
1
1
1
1.05706
1
1.0916
1.11886
1.09019
1.11955
1
1.00095
1
1
1.11973
1
1.11954
1
1
1
1
1
1
1.01512
1.0653
1
1
0.893705
1
1.11949
0.905894
1.11798
1
1.06118
0.999929
1.1189
1.07956
0.900756
1.06791
1.00001
1.11843
1.11869
1
1.0741
1.1193
1.11867
0.99954
1.11987
1.11278
0.88863
1
1
0.999251
1
1.11775
1
0.902721
1.11922
1
1
1.10665
1
1.1186
1
1.11834
1
0.893318
1
1
1.11848
1.12055
1.12159
1
1.11922
1.11862
1.11759
1
1
1.11657
1
0.923286
1
1
1
1.11859
1
1.11865
1.07936
1.11786
1
1.11721
0.999824
1
1
1
1
1
1
0.91025
1
1
1.11815
1
1.11841
1.12122
1
0.887864
0.894735
1
1.11899
1.02197
0.890811
0.886333
1
1.11905
1
1.11924
0.896148
1.00034
1
1
0.999864
1
1
1
0.999975
1.05332
1.11869
1
1
1.11879
1.07233
1
1.11096
1.11865
1.11909
1.05285
1.11944
1
1.11793
1
1.11537
1
1.11967
1.11863
0.999107
1.11868
1.12
1
1
1
1
1
0.977113
1.12018
1.00001
1.00001
0.909959
0.999994
0.890376
0.89929
1
1.11891
1.11912
1.11859
1
1.11867
1
0.88969
1
1
1.1187
0.951692
1.11921
1
1.11818
1
0.996802
1.11859
1
1
1
1.1185
1
1.1184
0.888454
1
1
1.07145
1
1
1.06676
1
1
1.11839
1
1
1
1
1
1.12159
1.1191
1
1.11893
1.11858
0.886613
1.05887
1.11998
1
1
1.10771
0.999723
1
1
1.11858
1.11917
1.08083
1
1.11911
0.894405
1.11443
0.999882
1
1.11921
1.00001
1.11758
1.09931
1.09295
1
1
1.11902
0.916975
0.898243
1
1.11859
1
1.11834
1
1.07449
1
1
1.11898
1.07915
0.892313
1
0.999463
1
1
1.00748
1.05215
1.11892
1
1.11746
1
1
1
1
1
1
1.01891
0.894557
1
1
1.00976
1
1
1
1
1
1.11871
1
1
1.11865
1.11828
1.08845
1
1
1
0.952417
1.11892
1.08611
1
1
1
1
1.11853
1
1
1
1.11917
1
1
1.08824
1.12256
1.01222
0.927626
1.11731
1.08673
1.11915
1
1.06275
1
1
1
0.903645
1.00068
0.915022
1
0.902604
0.884309
1
0.888339
1
1
1
1.05639
1
1.11906
1.11878
1.00036
1.06175
1.10673
0.896099
0.933033
0.967727
1
1.11819
1.11935
1.11801
1.11874
1.10309
0.96475
1
1.10358
1
1.11639
1
1
0.999007
1.00276
1
1
1
1.11901
1
0.894167
1
1.11885
0.88576
1
1
1.11876
1
1.11874
0.999715
1
1
1.1183
1.10404
1
1.12215
1
1
1.00419
1
1.05827
1
1
0.88678
1
1
1.1174
1
1.11767
1
1.00001
0.889558
1
1
0.902002
1.00031
1
1.11919
0.891465
1.11954
0.896729
1.11853
1
1
1
1
1
1
1
1
1
1
1
1.114
1
1.11896
1.11977
0.889271
1
1
1
1
1
1
1.11548
1
1
0.895631
1
1
1.11932
1
1
1.04719
1.10128
0.893813
0.887248
0.915276
0.920913
1
0.998999
0.911835
1.00013
1.11215
0.999119
1
1
1.11881
1
1
1
0.929407
1
1.04368
1
1
1.05148
1.11831
1
0.900609
1
1
1
0.999085
1
1.11936
1.11881
1
0.894115
1
1.06656
0.891268
1
0.963295
1
0.998949
0.884214
1
1
1
0.998884
0.894892
1
0.902793
0.99954
1.0662
1.10799
0.893074
0.898223
1
0.997202
1
0.999616
1
1.11838
1.11836
1
1.00214
1.11866
1.11815
1
1
1.11894
1
1
1.00001
1
1.1183
1
1
1.00527
1
0.9996
0.913621
1
1
1
1
1
1.11775
1.01197
1.00002
1
1
1
1
1
1.00001
1
0.887541
1.02967
0.999606
1.11486
1.11948
1
1.00443
1.11866
1.10392
1
1
0.893091
1.11862
1
1.11953
1
1.11825
1.08035
0.887972
1
0.893308
1.1144
0.999906
1
0.893476
0.900743
1
1
1.10324
1
1
0.884675
1
1
1
1.03933
1
0.889075
1.11843
1
1
1
1
1.11838
1
1
1.11718
1.1071
1
1
1
1.11776
0.892744
1
1.11877
1.11842
1
1.09693
1
1.00001
1
1
1.11438
1.00429
1
0.887235
1.06936
1
1
0.999253
1
1
1.12184
1
1
1.00001
1
1.11899
1
1
1
1
1
1
1
1.05609
1
1.11759
1
1
1.11893
1
1
1
1.11777
1.12059
1.013
1
0.999329
1
1
1
1
1.11979
1
1
1.11854
0.888564
1
1
1
1
1
1
1.09816
1
1
1.11778
1.11876
1
1
1
1.1188
1.11947
1
0.999907
1.11875
1
1
1
1.00001
0.892052
1.00851
0.998937
0.998843
1
1
0.899767
1.11882
1
0.887011
1
1.11988
1.11441
0.895783
0.999833
1.11912
1.1188
1.11829
1
1
0.982517
1.11038
1.0992
0.897009
1
1
1
1.1181
1.11859
0.888773
0.999249
1
1.11858
0.883754
1
1.11742
0.884589
0.994397
1.00171
1
1.12113
1
1
1
1
1
1
1.00003
1.11222
1
1
1.11859
1
1
1
1.11888
1
0.887479
1
1
1
1.04264
1
1
1
1
1
0.934124
1
0.882013
1
1.11847
1.00002
0.964404
0.963684
1
1.00117
1.06515
1
1
0.887582
1.1188
1.11841
1.11889
1
0.890543
0.892286
1
1.11854
1
1
1
1
1
1.00001
1
0.894396
1.07976
1
1
0.88761
0.995884
1
1
1
1
0.886423
1
0.908624
1
1
1.12016
1
1
0.889501
1
1.11857
1
0.894245
1
0.888673
1
1.00234
1.11857
1.12221
1
1
1.11972
1
1
1.02902
0.999062
1
0.999456
1
1.11925
1
0.900829
1
1.12061
0.999674
1
1
0.933739
1
0.999711
0.892482
1.11866
1.04614
1
1
0.975714
1
1
1
0.935066
1
1
1
1.11854
1
0.888645
1
1
1
1
0.885895
1.11866
1.11553
0.892783
1
1.12009
1
1
1.11772
1.11962
1.10164
0.884596
0.999355
0.999791
1
1.1183
1
1
1
1
1.11869
1.00001
1
1
1.11913
1
1
1.11861
0.883208
1
1
1
0.890055
1
1
1
0.999607
1
1
1
1
1.09965
1
1.12014
1.11906
1.12108
1.11864
1.11883
1.11865
1
1.11825
1
1.11856
1.11822
1
0.999678
0.887444
1.1029
0.99997
1
1
1
1
1.00341
1
1.02003
1
1
1
0.95321
1.11853
1.11877
1.11835
1.10744
0.999965
1
1.0065
1.11863
0.999409
1.0146
0.999153
0.888512
1
1.00001
1
1
1
1
1
1.11929
0.888598
1.11927
1.1184
0.99854
0.886647
1
1
1
1.11865
0.875638
1.10597
0.883547
1.11862
1.11832
0.891139
1.1199
1.00701
1
1.11908
0.943513
1
0.999642
0.882272
1
0.887527
1
1.11865
1.11828
0.926266
1
1.11926
0.887208
1
0.893411
1
1.11868
1
1
1.11668
1
0.950753
1
0.999915
0.886606
1.11956
0.999853
1
0.895014
1
1
1
1
1.06936
1
1.11853
1
1
1.12308
1
1
1.11859
1
0.88669
1
0.898487
1
1
1
1
1
1.11424
1.07238
1.11869
1
1.11769
1.1114
0.888134
0.89795
1
1
1.1189
1
0.888075
1
0.997632
1
1
1.11854
1
1.12037
0.878767
1.12065
1
0.886422
1
1
1.11789
1.1168
1
1.00001
1
1.12143
1
1
0.89818
0.999812
0.895461
1
1
1
1.11916
1.11974
1.11948
1
1
0.888574
1
1.12057
1
1
1
1.11262
1.1177
1.11867
0.87107
1.11904
1.11861
0.892513
1.11989
1.00001
0.893528
1.00288
1
1
1.11895
0.873594
1.07936
0.878651
1.1186
0.99927
0.89109
1.11891
1
1
1
1
1.11776
1.11952
0.893113
1
1.00001
0.884904
1.00001
1
0.900908
0.899045
1.08478
1.11921
0.99957
1.11864
1
1.11681
0.952052
0.891585
1.11842
1.1225
1
1.11884
1
1
1.11856
1
1.09379
1.1198
1
1
1
1
1.11882
1.11785
1.1175
1
1
1.11712
1.12084
1.11883
1
1.11876
1
1
1
1
1
0.88407
0.952404
0.895449
1
1
1.11876
1
1
1.11959
0.891037
1
1.11862
1.1186
1.11413
0.888498
1
0.873573
1
1.00001
1.11919
1.06181
1.12012
1.10949
1
0.898241
1
1.11935
1.08647
0.899447
1
1
1
0.943805
1
1
1.12213
1
0.897453
1.11871
1
1
1
1
1
1.09762
1.02942
1
1.11912
1
1.11932
1
0.999189
1
1.11885
1.11982
1.11806
1.11968
0.999885
1.12025
1
1.11858
1.11867
1.10302
1
1
0.885979
1.11933
1
1
1.11819
1.11845
1.11748
1
1.11869
1
1
1.00001
1.11978
1.11975
1.03684
1.02842
1.1185
1.11849
0.900688
1
1
1
1
1.00001
1.04496
1
1
1.09836
0.900109
0.999987
1
1.11858
0.999981
0.999951
1.01765
1.10723
1.11986
0.968188
1
0.885252
1
1.00524
1.11863
1.1193
1.12075
0.999727
1
1
0.886571
1
1
1.11872
1.01425
1
1
1
1
1
1
1
0.999981
1.11956
1
1
1
1
1
1.08062
1
1.05987
1
1
1.11867
1.11956
0.894795
0.999655
1
1
1
0.894772
1.11993
1.11869
1
1
1
1
1
1
1
1
1.11871
1.12016
0.894928
1.01426
0.890161
1
0.892962
1
1.11863
1.03686
1
1
0.915927
1
1.11417
0.939661
0.998996
0.891899
1
1
1.11957
1.00001
0.999174
0.880536
1.11975
1.12132
1
1
1
1
1.11261
1
1
1.11854
0.999702
1.11886
1.00002
1
1
0.870595
1
1
1.11888
0.890927
0.927591
0.896658
1.11857
0.999793
1
1.12139
0.895348
0.895985
1.00292
1
1
1.11995
1.00001
1.06056
1
1
1.11951
0.886395
1
1
1.00004
1.11903
1.00004
1.11742
1
1.00001
1
1
0.911428
1
0.935498
1.00001
1
1.11776
0.872689
1
0.927925
0.940476
1
1
1.11893
1
1
1
1.11837
1.11844
1.00001
1.11525
1.12047
0.931838
1.11873
1.11425
1
1
1.11726
1
1
1
1
1
1.11946
1.11822
1
1
1
1.11901
1.00006
1
0.894856
0.905841
1
1.00001
1.04822
1
1
0.971552
0.900293
1
1
1
1.11937
1.10988
1.11857
1
1
1
1
0.884453
1
1.11948
1
1.11905
0.882386
1.12021
1
1
1
0.880373
1
1.11901
1.00001
1
0.896368
1.0465
1
0.999901
1.11712
0.891556
0.899008
1
1.11979
0.886594
0.895155
1
0.888264
1
1
1
1
0.874017
1
1
1
1
1.11968
1
1.09336
0.889127
1
1
1
0.894978
1.11862
1
1
0.999013
1.1192
1
1.11918
1.11948
1
1
0.91619
0.895613
1
1
0.898928
1.04106
1.05897
1
1
1.11909
0.999252
1
0.999295
1.12057
1
1
1
1
1
1
1.1189
1
1.04345
1.04167
0.902406
1.1067
1
1.11859
1.11847
1
1
1
0.969714
0.876835
1
1.06541
0.999908
1.10774
1
1
1
1
1
1.002
1.05886
1.11887
1.11875
1
1.11853
1
0.897487
1
0.999282
0.999931
1
0.88268
1
0.886754
1.00001
1.11935
1.12044
0.893388
1.12066
0.900681
0.998911
1.09344
0.882955
1.08692
1
1
0.999552
1
1
1
1.00002
1
0.890932
1
1
1
1
0.999883
1.11935
0.934321
1
1
1
1.01048
1
1
1
1.06916
0.922721
1
1
1
1.01332
1.11967
1
0.875163
1
1.11993
0.974921
0.889487
1
0.895223
1
1
1.11291
0.999512
1.11178
1
1.00254
1
1
1.11836
1
1
1
1
1.02664
1
1.11842
1.1175
1.11916
0.875807
1.11838
0.999172
1.09939
1
1
0.8844
1
1
0.897886
1.11811
1
1
0.999993
1
1
1
0.88465
0.873993
1
1.12011
1
1.0587
1.1186
0.891695
1.10363
1
1
0.905737
1
1
1.11863
1.11801
1.04536
1
1
1.00037
1.1193
0.877465
0.894661
1.11987
1.11858
1.08325
1.04933
1
0.973688
1
1
1
1.11404
1.11885
1.11862
1
1
1.1192
0.902673
1.10738
0.882726
1
0.889993
1
0.884581
1.11845
0.889201
1
0.998399
0.900123
1
1
1
0.953146
1.10983
1.1187
1.11875
1.12012
1
1
1.11996
1
1
1.11903
1
0.876531
1
0.871786
1
1.11999
1
1
1.01013
1.09407
1
0.99964
0.897212
1.11829
1
0.886533
1.02452
1
1
1.09265
1.11869
1.11856
1
1.11829
1.036
1
1.0065
1.11862
1
1
1
1
1.11853
1
0.892781
1.1186
0.894468
0.874499
0.950744
1.11832
1.04605
1.11806
1
1.11998
0.999271
1.00001
1.11855
1.11984
1
1.11988
1
1.11877
1
1.11951
1
1.00001
1.00001
1.11802
0.889019
0.89303
0.999393
1
1
1
0.874011
1
1.08178
1
0.891282
1
1.05198
1.1192
1.11772
1
1
1.00001
0.999813
1
1.12016
1.11838
1
1.05174
1.11842
0.954627
1.11869
1.00021
0.893914
1.02827
0.874301
1
1
1.02141
1.12002
1
1
1.01195
0.99959
1
0.906316
1
0.936511
1
1.11987
1
1
0.87644
1.02955
1.02043
0.999566
1.11853
1.11872
0.925435
0.999449
0.885635
0.879547
0.886349
1
1
1
0.999715
0.915445
0.894136
1
1.11862
0.999924
1.1187
1.11886
1.12061
1.11807
1
0.883411
1.11876
0.892944
1
1.11917
1.11987
0.999024
0.946692
1.11854
1.08805
1
0.890858
1
1
1.12045
1
1.00755
1.11895
1
0.890999
0.888066
1
1
0.887993
0.882939
1.11867
1.00001
1
0.884279
0.898636
1.11843
1.11697
1.11126
1.12021
1.03692
0.99977
1.05101
1.12119
1.09471
1
1.06416
1
0.875284
0.964342
1
0.88256
1.11866
1.00635
1.11894
1
1.11856
1.11911
1
1.11847
1.11849
0.886704
1.11948
1
1.12075
1
0.926867
0.885901
1.11868
1
1
1
0.889588
1.1188
1.11996
1
0.892824
1
1
0.891514
1.00001
0.882554
1.11973
1
0.943749
0.892695
1
1
1.07117
1
1
1
1.02187
0.887581
1
1
1
1.11816
0.895801
1
1.11855
0.881664
0.874163
1
1
1.12048
1
1.11728
1
1.11843
0.891558
1
1
0.895891
0.940302
0.874939
1
1
1
1
1.11807
0.88835
1
0.894635
1
1.11834
1
1
0.978985
1
1
0.948405
0.999908
1.00001
1
0.895002
0.891164
1
1
1
1
0.933545
1.11849
1.11993
1
0.89325
0.89008
0.971714
0.888696
1
0.948087
1
0.866786
0.995242
1
1
0.891057
1
1.11809
1.11548
0.886372
1
1
1
1.11869
1
1.014
0.952768
1.04046
0.887327
1.05241
0.888944
1
1
0.902898
0.973436
1
1.01257
1
1
0.87845
1
0.979735
1.01592
0.895008
1
1.09847
0.91829
0.968691
1
1
1
0.896649
1
0.889767
0.89528
1
0.959609
0.891342
1.02052
0.919789
0.871163
1.1186
1
1.11853
1.0687
0.915539
1.11869
0.882012
0.999714
1.11953
1
1
1.11804
1
0.910981
1
1.02223
1
1
1.11848
1
0.931229
0.94456
1.12018
0.980242
1
0.933188
1.11854
1.11977
0.974732
1
1.11864
1.0341
0.95533
1
1.00329
1
0.892441
1.0547
0.919886
0.917203
1
1
0.896952
1.11929
0.989456
0.889039
0.884526
0.960301
1
1.00675
1.11971
1.11843
1
1
1
0.889979
1.05987
1
1.11977
1.10809
0.895388
1
1.02726
0.965206
1.07733
1.10212
1
1.01303
1
1.00002
0.896479
0.95298
1
1
0.942603
0.894928
1.01244
1
1.00001
0.878055
1.05802
1
1.12001
1
1.01153
1.0686
1
1.11779
1
1
1.11794
1
0.885037
1.11935
0.90784
1.03303
1
0.887259
0.999974
1
1.00001
1
0.940323
1.00755
0.888153
1.0922
1.11992
0.880293
1
1
1
1
1
0.991515
0.893442
1.01339
0.888673
0.886374
1.0246
1
0.999943
1.03186
1
1
0.878545
0.997865
1
1
1.03631
1
1.11981
1
1.11947
1.02655
1.00706
0.890834
1
1
0.877913
1
1
1
1
1.11713
1.01214
0.999451
1
0.885075
1.01463
1
1
1.08129
1
0.900633
1.11876
1
1
1
1.11893
0.893991
0.967349
0.898805
1.09212
1.11863
1
1
1.11865
1
0.893972
1
1
1
1
1
0.930523
1
1.11854
1
1
1.04363
1.11966
0.892629
0.955141
1
1.11823
1
1
1
1
1
1.11866
1.11997
0.881224
1.11848
0.88103
1
1
1.11878
1
1.11977
1.00228
1.00857
1.02085
1.11886
1.01975
1.08354
0.883783
1
0.889556
0.997067
1
1.11866
1
1
0.886621
1.1196
1
1.11986
1
1
1
1
1
1
0.895788
1.11925
0.952349
1.11849
1
0.888569
0.888936
0.909653
1.11955
1.11822
0.99382
1
0.930651
1
1.04946
1
1.11864
0.880888
0.892498
0.960185
1
1.11845
1
1.02466
0.897237
1
1.11987
1.10832
0.999684
1
1.11863
0.885618
1.1197
1.11851
1.12056
0.894999
1.02748
1
1
0.889253
1
0.940214
0.951171
1
1.00001
1.11887
1
1.11831
1.02581
1
1.01379
1.12026
1
0.887964
1
0.930325
1
1
1.10104
1
0.938592
1
0.891256
1.01036
0.983411
0.898654
1.11901
1.09627
1.11989
0.888656
0.902888
0.998712
1
1
0.900437
1.11272
0.885225
0.999989
1
1.11864
1.11943
0.97537
1
0.883437
0.90238
1.08205
0.991318
0.882034
1
0.892993
1.0325
0.892598
1
1.00002
0.939812
1.1203
1.11854
0.952643
0.999884
1
1
0.921007
1
0.887667
1
0.890543
0.886172
1
1
1.00001
0.89283
1.11885
1
1
1.00002
1.00001
0.887258
1.11868
1.11877
1
0.888404
1.12034
1
1.02731
1
1
1.11854
0.888169
1
1
0.877099
0.921695
0.889503
0.866968
1
0.897547
0.999159
1.02807
0.886106
1
1
1.03666
1
1.10589
1
1
1.0855
0.888982
1
0.895502
1.03481
1.11873
1
1
0.897938
0.898904
0.881735
0.910926
0.898301
1.0927
0.999835
1
1
1
1
1.11883
0.888199
1
0.979343
0.999911
0.999626
0.999983
0.919295
1.03616
1
1.11879
1.11881
1
1
1.1142
1.00001
1
1.11867
0.893766
1.11428
1
0.87963
1.11833
1.00002
1
0.943963
1
0.889211
1
1.11934
1
1
1.11946
1
1
1.12003
1
1
1
1.12086
1
0.913247
0.907924
1
0.881991
1.11822
1
1
0.990491
1
1.11867
1.07062
1.09499
1
1
0.8989
1
0.882708
1.11951
1.12022
1.11849
1
1.11972
0.886268
1
0.886863
1.09787
1.11143
1.11838
1.11878
0.93281
0.883949
1
1.08076
1.11962
1.11977
1.11875
0.923456
1.04538
1
1.09347
0.927368
1
1
1
1.00001
0.968378
1
1.11953
1
1
1
1
1
1
1.00002
1.11834
1
1.11965
1.09153
0.888621
1.11961
1.00847
1.06326
1
1.11894
1
0.887563
1
1
1
1
1.1025
1
0.884935
1.11795
0.887437
1.11868
1.09668
1.06538
1
1.02503
1.06023
0.998813
0.890801
0.93574
1.00001
1
0.982911
1
0.88511
1.11943
0.871284
0.97859
0.959818
1
1
1
1.00388
1
1
0.891038
0.999068
1.11977
1
1.11849
1
0.885738
1
1
1.11866
1.11762
0.88306
1
1.1192
1
0.944348
0.876314
1.11917
1.10757
1
1.02289
1.11865
0.999611
1
1.05334
1.10571
1.11876
0.998755
1
0.999999
1.10177
1
1
1
1.11875
0.999582
1
1
1.11878
1
1
0.897766
1
1
1
1.11907
1
1
0.960277
1.04204
1.10926
0.921595
1
1.11863
1
1.04458
1
1.11957
0.999205
1.11852
1
0.88415
1
1.08302
1
1
1.11161
1.00001
1.11836
1
1.1189
0.902485
0.885619
1.11913
1
1.10353
1
1.1195
1
1
1.00001
1.11825
1.11806
1.03467
1.11838
0.998742
0.875814
1.11884
0.959276
1
1.11909
1
1.11862
1
1.11919
1.11949
0.998893
0.891218
1
1.11852
1
1.0077
1
1
0.999406
0.924498
1.10737
1
1.10898
1
0.959093
0.888684
1.11805
1.11839
0.897731
1
1.11887
1.11933
1.11916
0.905011
1.11819
0.89232
1.11926
1.12101
1
1
1.11866
1
1
1
1
0.888108
1
1
1.11959
1.11854
1
1.11861
1
1.11985
1.11995
1
1.10123
1
0.885504
1.11882
1.09217
1.03488
0.887644
1.11866
1
1
0.888153
1
1
1.11845
1
1
0.937932
1
1.11839
1.00003
1.11938
0.889314
1.11945
1
1.11868
1.11457
0.974168
1
1.11956
0.928512
1.11838
1.08501
1.11863
1.11809
0.99913
1.11976
1.1186
1.11843
1.11845
1.00033
1
0.886485
1
1.12002
0.94667
1.10956
1
1.11671
1
1
1
1
1
1.1179
0.886577
0.882983
1.11878
1.11856
1
1
1
1
1
1.11782
1.10696
1.11863
1.00811
1
1
1
1.00001
1.11836
1.11853
1
1.11895
1.11977
0.888548
1.08771
1
1.11853
1.12025
1.11571
0.999406
1.11859
1.11874
1
1.10767
1
1
1
1
1
1
1.11829
1.11983
1.11137
1.11856
0.890098
0.91356
1.11869
1.11857
1
0.879908
0.986034
1
1.06011
0.890704
1
0.999846
0.999516
0.889374
1
1.11862
1
1
1
1.11921
0.984198
1
1.11855
1.11858
1
1.1192
1
1
1.11868
1
0.884626
1
1.11837
1
1
0.891372
1
1.11902
1
0.885205
0.899671
1
1.11758
1
0.882364
0.967648
1
1.1185
1
1
1
1.11978
1
0.893896
1.01846
1.11936
1.1191
1.11852
1.00947
1.11898
1.11863
1
1
1
1
1
1.11879
1
0.999816
1.11689
1
0.881814
1
1.1186
1.06063
1.02142
1.06005
1.02034
1.11853
0.911444
1.11873
1
0.891562
0.999183
1.11852
0.979156
1.11865
1.11863
1.11246
1
1.11927
1.11881
1.11871
1
1.00001
1
1
1.11946
1.08615
1
1
0.894046
0.998988
1
1.1185
1
1.11852
1.11842
1.1183
0.97733
1.11848
1.11844
1.00274
1.06418
1.11984
1.11846
1
1.11008
0.949931
1.11294
0.998577
1.11836
1
1.11859
1.11863
1
0.894135
0.981989
0.900083
1
1.02317
0.999039
1.11971
1
1
0.999069
1
1.06241
1.11011
1
1
1.11837
1
1
1.08684
1.11942
1.1144
1.1185
1.11865
1
1.11846
0.922717
1.11921
1
0.99963
0.886966
1
1
0.933392
1
1.04096
1
1.11898
1
1.11659
1.07874
0.884263
1
1
1
1
1
1.11899
1.00333
1
1.11879
1
1.1186
1.11867
1
1
0.993167
0.999954
0.890813
0.885124
0.911566
1.02582
1
0.999536
0.896521
1.00001
1
1.1186
0.985354
1.11152
1.10111
1
1
1
1
1
1.11838
1.11873
1
1.11833
1
1.11944
1.08234
0.998908
1
1
1
1.07014
1
0.986543
1
1.11927
1
1
1.11857
1
1
1
1
1
1.11886
0.881791
0.998835
1.10754
1.11857
1
1.11869
1
1
1
1
0.903507
1
1.11885
1.1182
1.11861
1.11988