/*--------------------------------*- C++ -*----------------------------------*\
  =========                 |
  \\      /  F ield         | OpenFOAM: The Open Source CFD Toolbox
   \\    /   O peration     | Website:  https://openfoam.org
    \\  /    A nd           | Version:  12
     \\/     M anipulation  |
\*---------------------------------------------------------------------------*/
FoamFile
{
    format      ascii;
    class       surfaceScalarField;
    location    "6";
    object      phi;
}
// * * * * * * * * * * * * * * * * * * * * * * * * * * * * * * * * * * * * * //

dimensions      [1 0 -1 0 0 0 0];

internalField   nonuniform List<scalar> 
19404
(
-0.000119071
2.06434e-07
-0.000119116
4.89469e-08
-0.000120358
3.5409e-08
-0.000121923
1.11484e-07
-0.000122443
2.45555e-07
-0.00012247
2.95798e-07
-0.000122267
2.51889e-07
-0.000121848
2.08993e-07
-0.000121469
3.04165e-07
-0.000121247
2.99746e-07
-0.000121136
2.39411e-07
-0.000121103
1.41539e-07
-0.00012162
7.97064e-08
-0.000123343
8.7509e-08
-0.000124521
2.57326e-07
-0.000124805
3.55533e-07
-0.000124731
3.28885e-07
-0.000124324
2.28336e-07
-0.00012382
2.53081e-07
-0.000123519
2.94198e-07
-0.000123391
2.6473e-07
-0.000123317
1.74985e-07
-0.000123418
7.89816e-08
-0.000124672
6.14386e-08
-0.000126489
1.8573e-07
-0.000127175
3.50407e-07
-0.000127243
3.98356e-07
-0.000126903
2.88921e-07
-0.000126216
2.31483e-07
-0.000125819
3.27737e-07
-0.000125661
3.09606e-07
-0.000125596
2.16263e-07
-0.000125601
1.03612e-07
-0.000126212
7.55166e-09
-0.000128197
3.63147e-08
-0.000129442
2.30304e-07
-0.000129678
3.49756e-07
-0.000129518
3.11134e-07
-0.000128748
1.67813e-07
-0.000128028
3.07954e-07
-0.000127705
3.94249e-07
-0.000127635
3.63934e-07
-0.000127602
2.16144e-07
-0.000127806
9.04925e-08
-0.000129603
-3.07668e-09
-0.000131543
1.62501e-07
-0.000132043
2.97556e-07
-0.000131945
2.53513e-07
-0.000131217
5.84637e-08
-0.000130263
8.17846e-08
-0.000129688
3.08107e-07
-0.000129479
3.56315e-07
-0.000129435
2.95321e-07
-0.000129494
1.66201e-07
-0.000130872
7.66832e-08
-0.000133507
1.49413e-07
-0.000134453
3.31231e-07
-0.000134415
2.75617e-07
-0.000133537
6.48259e-08
-0.000132068
-1.11037e-07
-0.000131204
1.28284e-07
-0.000130841
2.21672e-07
-0.000130765
2.75218e-07
-0.000130838
1.64023e-07
-0.000131936
4.1045e-08
-0.00013511
1.40871e-07
-0.000136643
2.87434e-07
-0.000136864
3.4385e-07
-0.000136207
1.73446e-07
-0.000133666
-8.7378e-08
-0.000131974
-3.47591e-08
-0.000131438
8.22019e-08
-0.00013136
1.41536e-07
-0.000131458
2.32437e-08
-0.0001326
-1.41517e-08
-0.000136328
-1.03153e-07
-0.000138526
4.10582e-07
-0.000138959
4.58881e-07
-0.000138685
2.66835e-07
-0.000135614
-5.49421e-08
-0.00013201
-2.53848e-07
-0.000130535
-3.14151e-07
-0.000130387
3.9495e-07
-0.000130535
-2.70533e-07
-0.000133408
1.23672e-08
-0.000138608
-3.70184e-08
-0.00014038
5.91449e-08
-0.000140734
4.25622e-07
-0.000140392
5.39467e-07
-0.000136922
4.97122e-07
-0.000130157
-2.64181e-07
-0.000126334
-1.68955e-07
-0.00012623
-4.54882e-07
-0.000127961
-5.88476e-07
-0.000134647
-9.97989e-07
-0.000137006
-2.69799e-06
-0.000135752
-3.42148e-06
-0.000111214
-1.40646e-05
1.47483e-05
-0.000127395
2.69786e-07
-0.000127761
1.70845e-07
-0.000129279
2.45283e-07
-0.00013017
2.60823e-07
-0.000130446
3.0999e-07
-0.00013042
3.75768e-07
-0.000130221
3.56195e-07
-0.000129493
3.30882e-07
-0.000128742
3.48462e-07
-0.000128393
3.19339e-07
-0.000128259
3.15592e-07
-0.000128222
2.30475e-07
-0.000129038
2.01711e-07
-0.000130564
2.77923e-07
-0.000131245
3.53047e-07
-0.000131389
4.20345e-07
-0.000131322
4.25395e-07
-0.000130933
3.62638e-07
-0.000129935
3.40108e-07
-0.000129383
3.35867e-07
-0.000129146
2.99528e-07
-0.000129054
2.58199e-07
-0.000129218
1.99564e-07
-0.000130561
2.35031e-07
-0.0001318
3.05729e-07
-0.000132231
4.09087e-07
-0.000132265
4.55384e-07
-0.000132106
3.9693e-07
-0.000131147
3.612e-07
-0.000130301
3.39349e-07
-0.00012998
3.16209e-07
-0.000129866
2.71886e-07
-0.000129845
1.99805e-07
-0.000130581
1.36927e-07
-0.000132279
2.22396e-07
-0.000133105
3.38694e-07
-0.000133297
4.48702e-07
-0.000133253
4.3922e-07
-0.000132506
3.60838e-07
-0.000131204
3.59982e-07
-0.000130665
3.45689e-07
-0.0001305
3.52609e-07
-0.000130475
2.7392e-07
-0.000130746
1.83055e-07
-0.00013253
1.48722e-07
-0.00013404
2.71224e-07
-0.00013443
3.85011e-07
-0.000134448
3.98203e-07
-0.000134006
2.91924e-07
-0.000132301
2.53191e-07
-0.000131363
2.51267e-07
-0.000131103
3.13502e-07
-0.000131045
2.97884e-07
-0.000131101
2.39342e-07
-0.000132429
1.63852e-07
-0.000134802
2.30695e-07
-0.000135628
3.99594e-07
-0.000135708
4.22473e-07
-0.000135487
3.06176e-07
-0.00013357
1.72944e-07
-0.000132064
1.37985e-07
-0.000131636
1.59047e-07
-0.000131507
2.13191e-07
-0.000131536
2.10973e-07
-0.000132471
8.9146e-08
-0.000135524
1.69527e-07
-0.000136955
3.6056e-07
-0.00013716
4.84933e-07
-0.000137064
4.07529e-07
-0.000134995
2.65603e-07
-0.000132506
1.00381e-07
-0.000131721
-2.70145e-08
-0.000131539
-2.03395e-08
-0.000131596
-3.57918e-08
-0.000132783
-1.08975e-07
-0.000136567
4.74975e-08
-0.000138531
3.85706e-07
-0.000138889
6.20548e-07
-0.000138906
5.6755e-07
-0.000136885
3.77159e-07
-0.000132555
5.34539e-08
-0.000130796
-3.82918e-07
-0.00013052
-4.62495e-07
-0.000130673
-5.54622e-07
-0.000132851
-5.47945e-07
-0.000136967
-3.11104e-07
-0.000139034
1.49924e-07
-0.000139578
4.94815e-07
-0.000139693
4.73372e-07
-0.000137517
5.34304e-07
-0.00013074
-3.71796e-07
-0.000125517
-1.28581e-06
-0.000124415
-1.83573e-06
-0.000124883
-2.07537e-06
-0.000128486
-3.0713e-06
-0.000130346
-5.4448e-06
-0.000129857
-6.37658e-06
-0.000120392
-1.54773e-05
1.92768e-05
-0.000126951
2.8917e-07
-0.000127317
2.42473e-07
-0.000128761
3.77244e-07
-0.000129587
4.72452e-07
-0.000129848
4.87129e-07
-0.00012985
4.86287e-07
-0.000129689
4.57583e-07
-0.000129061
4.26264e-07
-0.00012831
3.97221e-07
-0.000127961
3.62107e-07
-0.000127777
3.44705e-07
-0.000127746
3.16282e-07
-0.00012852
3.06305e-07
-0.000129992
4.34743e-07
-0.000130643
4.9271e-07
-0.000130809
5.149e-07
-0.000130763
4.98533e-07
-0.000130471
4.68594e-07
-0.000129563
4.22255e-07
-0.000128946
3.99457e-07
-0.000128679
3.71295e-07
-0.000128579
3.5828e-07
-0.000128677
3.19499e-07
-0.000129921
3.70411e-07
-0.000131195
4.67577e-07
-0.000131635
4.84523e-07
-0.000131712
4.82071e-07
-0.00013163
4.52458e-07
-0.000130868
4.00404e-07
-0.000130013
3.83569e-07
-0.000129622
3.58162e-07
-0.000129452
3.62117e-07
-0.000129395
3.54496e-07
-0.000129919
3.23542e-07
-0.000131572
4.5181e-07
-0.000132467
5.54552e-07
-0.000132696
5.53235e-07
-0.000132675
5.03164e-07
-0.000132094
4.25411e-07
-0.000130952
3.54567e-07
-0.00013046
2.76287e-07
-0.000130245
2.62855e-07
-0.000130176
2.8167e-07
-0.00013031
2.72847e-07
-0.000131878
3.3847e-07
-0.000133419
5.25732e-07
-0.000133856
5.83347e-07
-0.000133903
5.84291e-07
-0.000133501
4.89085e-07
-0.000131913
4.14042e-07
-0.000131055
2.74278e-07
-0.000130752
1.90984e-07
-0.000130677
1.99899e-07
-0.000130718
2.08797e-07
-0.000131843
2.26856e-07
-0.00013419
3.67983e-07
-0.000135099
5.26954e-07
-0.000135226
5.74167e-07
-0.000135064
5.25583e-07
-0.000133293
4.31066e-07
-0.000131635
2.5374e-07
-0.000131087
9.58496e-08
-0.000130949
8.42812e-08
-0.000130966
1.16712e-07
-0.000131809
1.20203e-07
-0.000134704
2.55648e-07
-0.00013628
4.82124e-07
-0.000136593
6.10113e-07
-0.000136574
6.0021e-07
-0.000135038
5.03055e-07
-0.000132157
2.10905e-07
-0.000130926
-5.0366e-08
-0.000130662
-1.82039e-07
-0.0001307
-1.66837e-07
-0.000131564
-2.10629e-07
-0.000135037
9.34235e-10
-0.000137254
4.32097e-07
-0.000137806
7.03479e-07
-0.00013789
7.4358e-07
-0.000136772
6.42073e-07
-0.000132227
2.50344e-07
-0.00012966
-4.17089e-07
-0.000129268
-8.23201e-07
-0.000129326
-9.30719e-07
-0.000130318
-1.03872e-06
-0.000134051
-8.01422e-07
-0.000137092
-1.41055e-07
-0.000138
2.45669e-07
-0.000138211
3.46939e-07
-0.000136824
2.61322e-07
-0.000130786
-2.19739e-07
-0.000125742
-1.59674e-06
-0.0001236
-2.61506e-06
-0.000123592
-3.37239e-06
-0.000125465
-4.64885e-06
-0.000127535
-7.36675e-06
-0.000127901
-8.78473e-06
-0.000122429
-1.51133e-05
2.17565e-05
-0.00012608
3.21888e-07
-0.000126508
3.11818e-07
-0.000127969
4.88001e-07
-0.000128715
6.21864e-07
-0.000128916
6.39162e-07
-0.000128914
6.08012e-07
-0.000128805
5.60731e-07
-0.000128346
4.99765e-07
-0.000127519
4.69876e-07
-0.000127055
4.25599e-07
-0.000126873
4.24133e-07
-0.000126821
3.62621e-07
-0.000127674
3.90832e-07
-0.000129099
5.38977e-07
-0.000129718
6.38466e-07
-0.000129856
6.26194e-07
-0.000129837
6.10482e-07
-0.00012964
5.5139e-07
-0.000128802
5.01321e-07
-0.000128072
5.03056e-07
-0.000127775
4.64054e-07
-0.000127656
4.19714e-07
-0.000127798
3.80913e-07
-0.000129134
4.60665e-07
-0.000130343
5.7058e-07
-0.000130753
6.08278e-07
-0.000130822
5.70324e-07
-0.000130758
5.19688e-07
-0.000130201
4.82139e-07
-0.000129169
5.10305e-07
-0.000128647
4.42471e-07
-0.000128453
4.39716e-07
-0.000128421
4.23261e-07
-0.000129007
4.25122e-07
-0.000130734
5.39207e-07
-0.000131639
6.54166e-07
-0.000131848
6.35611e-07
-0.00013185
5.65088e-07
-0.000131522
4.62591e-07
-0.000130298
3.78348e-07
-0.000129576
3.40488e-07
-0.000129256
3.15614e-07
-0.000129164
3.50814e-07
-0.000129301
3.62446e-07
-0.000130805
4.644e-07
-0.000132436
6.76467e-07
-0.000132949
7.43898e-07
-0.000132995
7.05145e-07
-0.000132796
6.0043e-07
-0.000131362
5.01769e-07
-0.000130221
3.16068e-07
-0.000129802
1.72866e-07
-0.000129649
1.62234e-07
-0.000129689
1.8425e-07
-0.000130712
2.61006e-07
-0.000133004
4.72909e-07
-0.00013404
6.72529e-07
-0.000134258
7.41189e-07
-0.000134213
7.08795e-07
-0.000132946
6.21796e-07
-0.000130784
3.89765e-07
-0.000129944
1.01322e-07
-0.000129713
-1.0588e-08
-0.000129717
-7.08861e-09
-0.000130412
3.21549e-08
-0.000133168
2.4441e-07
-0.000134988
5.72894e-07
-0.000135439
7.48259e-07
-0.000135507
7.90968e-07
-0.000134801
6.71623e-07
-0.00013158
3.83391e-07
-0.000129613
-2.8766e-08
-0.000129194
-3.06319e-07
-0.000129161
-4.00705e-07
-0.000129623
-4.26294e-07
-0.000132596
-2.47377e-07
-0.00013538
3.36565e-07
-0.000136215
7.38181e-07
-0.000136334
8.47078e-07
-0.000135997
7.59728e-07
-0.00013237
5.04208e-07
-0.000128482
-3.76747e-07
-0.000127347
-1.07823e-06
-0.000127369
-1.33096e-06
-0.000127629
-1.48657e-06
-0.000130202
-1.46705e-06
-0.000133422
-9.21934e-07
-0.00013478
-2.70697e-07
-0.000135128
2.3564e-08
-0.000134967
-1.33866e-08
-0.000131141
-1.99562e-07
-0.000125026
-1.74568e-06
-0.000121491
-3.27175e-06
-0.000120888
-4.92689e-06
-0.000121723
-6.14295e-06
-0.000124191
-8.66496e-06
-0.000125685
-1.02391e-05
-0.00012443
-1.24315e-05
2.30008e-05
-0.000125018
4.18e-07
-0.000125383
3.951e-07
-0.000126942
5.49014e-07
-0.000127771
7.07545e-07
-0.000127985
7.2491e-07
-0.000127983
6.8822e-07
-0.000127874
6.31466e-07
-0.000127511
5.66845e-07
-0.000126585
5.68199e-07
-0.000126025
5.4701e-07
-0.000125794
5.12256e-07
-0.00012575
4.53344e-07
-0.000126619
4.43696e-07
-0.000128125
6.35789e-07
-0.000128713
7.47307e-07
-0.000128859
7.5814e-07
-0.00012881
7.03848e-07
-0.000128659
6.56854e-07
-0.000127894
5.98645e-07
-0.00012706
5.66803e-07
-0.000126713
5.05549e-07
-0.00012659
4.63343e-07
-0.000126774
4.15864e-07
-0.000128234
5.13736e-07
-0.00012946
6.94386e-07
-0.000129803
7.6719e-07
-0.000129839
7.47173e-07
-0.000129756
7.00626e-07
-0.000129182
6.5205e-07
-0.00012798
6.04876e-07
-0.000127467
5.21966e-07
-0.000127292
4.45736e-07
-0.000127263
3.79917e-07
-0.000127944
3.82623e-07
-0.000129802
5.32561e-07
-0.000130754
6.99584e-07
-0.000130973
7.44326e-07
-0.000130971
7.02543e-07
-0.000130742
6.40668e-07
-0.000129404
5.88953e-07
-0.000128333
4.93653e-07
-0.000127981
4.27696e-07
-0.000127873
3.78835e-07
-0.000127985
3.69528e-07
-0.000129473
4.73313e-07
-0.000131262
6.68532e-07
-0.000131911
8.02738e-07
-0.000132044
7.88557e-07
-0.000132007
7.06768e-07
-0.000130993
6.17722e-07
-0.00012926
4.04181e-07
-0.000128549
2.58982e-07
-0.000128331
1.91627e-07
-0.000128349
2.39893e-07
-0.000129187
2.66341e-07
-0.000131477
5.17275e-07
-0.000132716
7.80913e-07
-0.000133054
8.71605e-07
-0.000133105
8.48262e-07
-0.000132613
7.24741e-07
-0.000130225
4.78405e-07
-0.000128686
1.36807e-07
-0.000128323
-2.89943e-08
-0.000128295
-1.09552e-07
-0.000128719
-1.12321e-07
-0.000131215
9.67302e-08
-0.00013337
5.84069e-07
-0.000133988
8.90737e-07
-0.000134082
9.73457e-07
-0.000133947
8.62744e-07
-0.000131538
6.23796e-07
-0.000128574
-1.28332e-09
-0.000127659
-4.06335e-07
-0.000127567
-5.96919e-07
-0.000127686
-6.72883e-07
-0.000129548
-6.27804e-07
-0.000132896
-4.67482e-08
-0.000134336
6.61792e-07
-0.000134637
9.42619e-07
-0.00013469
8.96646e-07
-0.000132973
7.28817e-07
-0.000128329
7.10349e-08
-0.000125764
-1.06179e-06
-0.000125405
-1.6094e-06
-0.000125489
-1.91562e-06
-0.000126795
-2.08336e-06
-0.000130139
-1.75642e-06
-0.000132312
-1.04766e-06
-0.000133053
-5.59281e-07
-0.000133277
-4.5941e-07
-0.000131935
-5.31423e-07
-0.000126626
-1.38693e-06
-0.000121876
-3.52868e-06
-0.000119668
-5.2192e-06
-0.000120084
-6.84702e-06
-0.000122704
-9.38723e-06
-0.000124833
-1.12253e-05
-0.000125097
-1.00081e-05
2.427e-05
-0.000124099
5.26688e-07
-0.000124364
4.84304e-07
-0.000126009
5.65415e-07
-0.000126983
7.51373e-07
-0.000127214
7.87885e-07
-0.000127206
7.5876e-07
-0.000127092
7.13243e-07
-0.000126747
6.6163e-07
-0.000125763
6.76005e-07
-0.000125122
6.72015e-07
-0.00012488
6.24148e-07
-0.000124799
5.52751e-07
-0.000125597
5.2207e-07
-0.000127222
6.84797e-07
-0.000127902
8.3233e-07
-0.000128042
8.42878e-07
-0.000128018
8.10642e-07
-0.000127873
7.56377e-07
-0.000127177
6.836e-07
-0.000126209
6.39e-07
-0.000125798
5.71571e-07
-0.000125663
5.44704e-07
-0.000125759
4.76236e-07
-0.00012718
5.46405e-07
-0.000128534
7.97689e-07
-0.000128939
9.37686e-07
-0.000129004
9.30132e-07
-0.000128932
8.65654e-07
-0.000128496
8.03296e-07
-0.000127227
6.80408e-07
-0.000126534
5.44238e-07
-0.000126317
4.57039e-07
-0.000126272
3.90744e-07
-0.000126893
3.51506e-07
-0.000128818
5.54499e-07
-0.000129839
7.90633e-07
-0.000130068
9.00658e-07
-0.00013007
9.02857e-07
-0.000129917
8.71016e-07
-0.000128705
7.64873e-07
-0.000127272
6.22303e-07
-0.000126814
4.5258e-07
-0.000126715
3.86273e-07
-0.000126857
3.09501e-07
-0.000128321
3.76936e-07
-0.000130277
6.45214e-07
-0.000130981
8.32845e-07
-0.000131115
8.74815e-07
-0.000131135
8.66724e-07
-0.000130605
7.75199e-07
-0.000128512
6.13397e-07
-0.000127308
4.22628e-07
-0.000127027
2.68182e-07
-0.000126998
2.19362e-07
-0.000127687
1.87202e-07
-0.000130082
4.04998e-07
-0.000131593
7.80823e-07
-0.000132
9.50584e-07
-0.000132072
9.37587e-07
-0.000131992
8.03701e-07
-0.000130212
6.21619e-07
-0.000127802
2.26509e-07
-0.000127049
1.35078e-08
-0.000126952
-1.13806e-07
-0.000127073
-2.13694e-07
-0.000128978
-1.13888e-07
-0.000131807
4.00286e-07
-0.000132842
9.39033e-07
-0.000133009
1.1149e-06
-0.000133033
1.02917e-06
-0.000131799
8.07618e-07
-0.000128433
3.4564e-07
-0.000126541
-4.07067e-07
-0.000126149
-7.27279e-07
-0.000126168
-8.37863e-07
-0.000126866
-9.30384e-07
-0.00013018
-6.47085e-07
-0.000132772
2.32621e-07
-0.00013351
8.44415e-07
-0.00013363
9.67263e-07
-0.000133244
9.11454e-07
-0.000129467
6.08822e-07
-0.00012554
-6.3907e-07
-0.000124181
-1.64329e-06
-0.00012416
-2.27839e-06
-0.000124496
-2.50901e-06
-0.000126915
-2.54006e-06
-0.000129693
-1.99479e-06
-0.000130986
-1.40334e-06
-0.000131461
-1.17364e-06
-0.000131551
-1.24054e-06
-0.000129379
-1.22503e-06
-0.00012427
-2.96366e-06
-0.000120388
-5.27042e-06
-0.000119526
-7.05787e-06
-0.000121232
-9.07985e-06
-0.000123788
-1.19727e-05
-0.000125792
-8.71246e-06
2.52485e-05
-0.000123546
6.05963e-07
-0.000123735
5.4424e-07
-0.000125356
5.82546e-07
-0.000126397
7.74122e-07
-0.000126637
8.60062e-07
-0.000126613
8.4879e-07
-0.00012649
8.40634e-07
-0.000126167
8.19755e-07
-0.000125215
7.93273e-07
-0.000124545
7.74973e-07
-0.000124286
7.13752e-07
-0.000124184
6.35988e-07
-0.00012476
5.76679e-07
-0.000126439
7.21105e-07
-0.000127244
8.81845e-07
-0.000127442
9.14299e-07
-0.000127431
8.94866e-07
-0.000127319
8.48045e-07
-0.000126794
7.8834e-07
-0.00012566
7.37147e-07
-0.000125126
6.86203e-07
-0.000124923
6.31435e-07
-0.000124936
5.88775e-07
-0.000126142
6.16243e-07
-0.000127682
8.40223e-07
-0.000128213
9.99411e-07
-0.000128329
1.01005e-06
-0.000128308
9.60362e-07
-0.000128112
8.75302e-07
-0.000126996
7.70143e-07
-0.000125976
6.04404e-07
-0.000125631
5.12785e-07
-0.000125536
4.81567e-07
-0.000125918
4.47228e-07
-0.000127719
5.84979e-07
-0.000128886
8.95596e-07
-0.00012921
1.05165e-06
-0.000129282
1.05683e-06
-0.000129212
9.98903e-07
-0.000128514
8.70472e-07
-0.000126838
6.48679e-07
-0.000126077
4.76161e-07
-0.000125934
3.60736e-07
-0.00012599
2.98452e-07
-0.00012724
2.79961e-07
-0.000129311
5.93502e-07
-0.00013012
9.25475e-07
-0.000130316
1.07515e-06
-0.000130318
1.05535e-06
-0.000130091
9.80865e-07
-0.000128386
8.52755e-07
-0.000126556
4.57846e-07
-0.000126071
2.99682e-07
-0.000126063
1.65716e-07
-0.000126394
6.88446e-08
-0.000128669
1.5773e-07
-0.000130746
6.76769e-07
-0.000131332
1.03571e-06
-0.000131435
1.08561e-06
-0.000131422
1.01073e-06
-0.00013029
8.88206e-07
-0.00012763
5.11222e-07
-0.000126209
4.76976e-08
-0.000125904
-1.12363e-07
-0.000125949
-2.19956e-07
-0.000126789
-3.16354e-07
-0.000129987
-1.33365e-08
-0.00013198
7.67793e-07
-0.000132409
1.17048e-06
-0.000132465
1.14622e-06
-0.000132074
1.03821e-06
-0.000129126
7.67386e-07
-0.000126274
-1.09241e-07
-0.000125245
-7.20185e-07
-0.000125144
-9.9288e-07
-0.000125285
-1.10968e-06
-0.000127213
-1.16306e-06
-0.000130845
-5.06115e-07
-0.0001325
4.52903e-07
-0.00013288
9.05262e-07
-0.000132955
9.61068e-07
-0.000131602
8.37969e-07
-0.000127059
2.08507e-07
-0.000124121
-1.36095e-06
-0.00012337
-2.29293e-06
-0.000123413
-2.7722e-06
-0.000124406
-3.04563e-06
-0.000127293
-2.91594e-06
-0.000129378
-2.31055e-06
-0.000130336
-1.95676e-06
-0.000130753
-1.97689e-06
-0.000130447
-2.10779e-06
-0.00012776
-2.94294e-06
-0.000123103
-4.66604e-06
-0.000119503
-6.98931e-06
-0.000119905
-9.05504e-06
-0.000122637
-1.29417e-05
-0.000126521
-8.01616e-06
2.5836e-05
-0.000123248
6.51308e-07
-0.000123368
5.86735e-07
-0.000124855
6.08716e-07
-0.000125954
8.36179e-07
-0.000126211
9.56516e-07
-0.000126222
9.93916e-07
-0.0001261
9.80018e-07
-0.0001258
9.46596e-07
-0.000124929
8.97125e-07
-0.000124201
8.44468e-07
-0.000123918
7.83897e-07
-0.000123814
7.10211e-07
-0.000124234
6.1393e-07
-0.000125905
7.47903e-07
-0.000126808
9.3045e-07
-0.000127041
1.00753e-06
-0.000127047
9.89978e-07
-0.000126962
9.59805e-07
-0.000126552
9.03615e-07
-0.00012536
8.63323e-07
-0.000124656
7.94173e-07
-0.000124437
7.35407e-07
-0.000124378
6.63139e-07
-0.000125272
6.47759e-07
-0.000127019
8.25993e-07
-0.00012777
1.02863e-06
-0.000127961
1.05599e-06
-0.00012797
1.02875e-06
-0.000127878
9.54181e-07
-0.000127025
8.655e-07
-0.000125679
7.33496e-07
-0.000125117
6.38399e-07
-0.000124966
6.09364e-07
-0.000125052
5.56462e-07
-0.000126624
6.202e-07
-0.000128188
9.14744e-07
-0.000128706
1.12433e-06
-0.000128844
1.11096e-06
-0.00012884
1.04601e-06
-0.000128528
9.38941e-07
-0.000126911
7.78349e-07
-0.000125824
5.01518e-07
-0.000125475
3.71036e-07
-0.000125411
3.49294e-07
-0.000125976
3.18109e-07
-0.000128209
5.67493e-07
-0.00012944
1.0288e-06
-0.00012975
1.25624e-06
-0.000129823
1.23018e-06
-0.000129779
1.12326e-06
-0.0001286
9.70877e-07
-0.000126542
6.44604e-07
-0.000125734
3.03118e-07
-0.00012555
7.43797e-08
-0.000125602
2.80687e-08
-0.000126988
1.0824e-09
-0.000129756
4.88296e-07
-0.000130832
1.08612e-06
-0.000131018
1.29827e-06
-0.000131046
1.27954e-06
-0.000130517
1.14653e-06
-0.000127967
8.51338e-07
-0.000125984
2.44555e-07
-0.000125353
-1.1576e-07
-0.000125311
-3.26808e-07
-0.000125476
-4.23621e-07
-0.000127673
-4.32761e-07
-0.000130863
2.75282e-07
-0.000131999
1.08272e-06
-0.000132183
1.29971e-06
-0.000132181
1.2642e-06
-0.000130551
1.17189e-06
-0.000126863
5.44042e-07
-0.000124999
-5.45504e-07
-0.000124548
-9.91657e-07
-0.000124579
-1.29203e-06
-0.000125024
-1.38858e-06
-0.000128058
-1.26915e-06
-0.000131088
-3.09615e-07
-0.000132165
5.50776e-07
-0.00013242
8.39843e-07
-0.000132388
8.64886e-07
-0.000129996
5.45563e-07
-0.000125389
-3.05498e-07
-0.000123251
-1.9519e-06
-0.000122918
-2.78842e-06
-0.000123066
-3.33203e-06
-0.000124766
-3.59607e-06
-0.000127341
-3.28297e-06
-0.000128838
-2.78833e-06
-0.000129694
-2.6901e-06
-0.000129902
-2.96443e-06
-0.000129368
-3.0299e-06
-0.000126661
-4.50313e-06
-0.000122571
-6.30093e-06
-0.000119765
-8.44835e-06
-0.000121228
-1.29254e-05
-0.000126856
-7.94299e-06
2.62986e-05
-0.000123116
6.88661e-07
-0.000123136
6.5065e-07
-0.000124406
6.79196e-07
-0.000125583
9.2346e-07
-0.000125933
1.0922e-06
-0.000125974
1.12637e-06
-0.000125881
1.09448e-06
-0.000125662
1.04124e-06
-0.000124872
9.82609e-07
-0.000124075
9.03199e-07
-0.000123749
8.40337e-07
-0.000123607
7.52861e-07
-0.00012387
6.62532e-07
-0.000125504
7.50873e-07
-0.000126554
9.86841e-07
-0.000126811
1.12212e-06
-0.000126835
1.13253e-06
-0.00012674
1.09228e-06
-0.000126393
1.02951e-06
-0.00012522
9.77755e-07
-0.000124423
8.99436e-07
-0.000124159
8.08439e-07
-0.000124078
6.9852e-07
-0.00012469
6.13479e-07
-0.000126608
7.91818e-07
-0.000127542
1.04974e-06
-0.000127771
1.13742e-06
-0.000127784
1.12837e-06
-0.000127712
1.08744e-06
-0.000127075
1.00277e-06
-0.000125527
9.33439e-07
-0.000124738
7.86655e-07
-0.00012453
7.03962e-07
-0.000124505
5.87317e-07
-0.000125622
5.51522e-07
-0.000127721
8.35955e-07
-0.000128527
1.14547e-06
-0.000128711
1.2063e-06
-0.000128716
1.10904e-06
-0.000128595
1.03178e-06
-0.000127256
9.38241e-07
-0.000125733
6.89673e-07
-0.000125081
5.32062e-07
-0.000124909
4.85149e-07
-0.000125004
4.31388e-07
-0.000126798
4.75711e-07
-0.000128905
9.38948e-07
-0.000129553
1.31599e-06
-0.000129688
1.36873e-06
-0.00012969
1.22748e-06
-0.000129104
1.0763e-06
-0.00012698
8.18594e-07
-0.000125705
3.5981e-07
-0.000125258
1.40666e-07
-0.000125178
6.5661e-08
-0.000125463
2.6829e-08
-0.000128037
1.96977e-07
-0.000130236
9.42094e-07
-0.000130745
1.43764e-06
-0.000130795
1.49626e-06
-0.000130732
1.32659e-06
-0.000128998
1.17184e-06
-0.000126331
5.37814e-07
-0.000125219
-1.2628e-07
-0.000124945
-5.00107e-07
-0.000124955
-5.28107e-07
-0.000125563
-6.20305e-07
-0.000128869
-3.12216e-07
-0.000131267
7.13535e-07
-0.000131848
1.36266e-06
-0.000131925
1.45185e-06
-0.000131676
1.40613e-06
-0.000128877
1.13517e-06
-0.000125613
7.81999e-08
-0.000124323
-9.41899e-07
-0.000124109
-1.287e-06
-0.00012418
-1.51353e-06
-0.000125319
-1.67285e-06
-0.000128914
-1.29386e-06
-0.00013124
-1.45811e-07
-0.000131994
5.41475e-07
-0.000132138
7.20313e-07
-0.000131769
6.93818e-07
-0.000128461
3.4346e-07
-0.000124453
-9.77946e-07
-0.000122799
-2.62557e-06
-0.000122643
-3.34438e-06
-0.00012299
-3.88937e-06
-0.000125189
-4.09273e-06
-0.000127427
-3.68207e-06
-0.000128583
-3.41794e-06
-0.000129252
-3.55437e-06
-0.000129371
-3.96499e-06
-0.000128516
-4.49541e-06
-0.000125881
-6.0119e-06
-0.000122251
-7.90189e-06
-0.000120691
-1.20433e-05
-0.000126824
-8.43062e-06
2.69088e-05
-0.000123059
7.45726e-07
-0.000122993
7.54247e-07
-0.000123924
7.47607e-07
-0.000125319
9.98193e-07
-0.000125791
1.20411e-06
-0.000125864
1.21502e-06
-0.000125811
1.19257e-06
-0.000125645
1.12101e-06
-0.000124943
1.05682e-06
-0.000124067
9.71755e-07
-0.00012368
8.8523e-07
-0.000123537
8.1482e-07
-0.000123595
7.11579e-07
-0.000125057
7.64705e-07
-0.000126357
1.04396e-06
-0.000126682
1.24783e-06
-0.000126696
1.26775e-06
-0.000126622
1.24561e-06
-0.000126369
1.16465e-06
-0.000125267
1.07e-06
-0.000124366
9.61188e-07
-0.000124059
8.36661e-07
-0.000123973
7.35213e-07
-0.000124266
6.11652e-07
-0.000126136
7.15651e-07
-0.000127357
1.08591e-06
-0.000127625
1.28776e-06
-0.000127638
1.30831e-06
-0.000127572
1.27312e-06
-0.000127127
1.1741e-06
-0.000125536
1.08676e-06
-0.000124621
8.78664e-07
-0.000124357
7.21827e-07
-0.000124321
6.01683e-07
-0.000124871
4.46254e-07
-0.000127158
6.66797e-07
-0.000128417
1.1382e-06
-0.000128661
1.28243e-06
-0.000128682
1.30319e-06
-0.000128598
1.24095e-06
-0.000127702
1.18621e-06
-0.000125701
9.88666e-07
-0.000124766
6.77034e-07
-0.000124523
5.65307e-07
-0.000124505
4.18582e-07
-0.000125441
3.18607e-07
-0.000128209
6.29175e-07
-0.000129503
1.25318e-06
-0.000129724
1.38481e-06
-0.000129741
1.36688e-06
-0.00012956
1.21901e-06
-0.000127796
1.11884e-06
-0.000125795
6.63335e-07
-0.000124863
2.33566e-07
-0.000124586
1.66654e-07
-0.00012462
9.0349e-08
-0.000125918
6.41611e-09
-0.000129215
4.622e-07
-0.000130619
1.30305e-06
-0.00013086
1.55142e-06
-0.000130874
1.5378e-06
-0.000130288
1.37491e-06
-0.000127511
1.01513e-06
-0.000125486
1.5248e-07
-0.000124702
-4.15405e-07
-0.000124435
-5.78786e-07
-0.000124527
-6.28445e-07
-0.000126118
-6.8506e-07
-0.00012977
-8.09056e-08
-0.000131428
1.05879e-06
-0.000131794
1.51732e-06
-0.00013187
1.45073e-06
-0.000131144
1.34444e-06
-0.000127388
1.00841e-06
-0.000124698
-3.14276e-07
-0.000123901
-1.25584e-06
-0.000123818
-1.63564e-06
-0.000123953
-1.78257e-06
-0.000125875
-1.88461e-06
-0.000129346
-1.18717e-06
-0.000131005
-9.58033e-08
-0.000131489
4.14249e-07
-0.000131634
5.15776e-07
-0.000131064
4.36749e-07
-0.000127386
-1.66641e-07
-0.000123737
-1.613e-06
-0.000122387
-3.25021e-06
-0.000122423
-3.91431e-06
-0.000122986
-4.56853e-06
-0.000125404
-4.60513e-06
-0.000127306
-4.20151e-06
-0.000128283
-4.11615e-06
-0.000128809
-4.48089e-06
-0.000128895
-5.06035e-06
-0.000127977
-6.06052e-06
-0.000125247
-7.36605e-06
-0.000122127
-1.06301e-05
-0.000126502
-8.63232e-06
2.79105e-05
-0.000123024
8.35817e-07
-0.000122912
8.51069e-07
-0.000123503
7.93967e-07
-0.00012512
9.97456e-07
-0.000125759
1.23603e-06
-0.000125884
1.31483e-06
-0.00012583
1.2851e-06
-0.000125686
1.21541e-06
-0.000125139
1.16007e-06
-0.000124179
1.06357e-06
-0.000123703
9.41521e-07
-0.000123499
8.63352e-07
-0.000123432
7.74506e-07
-0.000124429
7.71642e-07
-0.000126074
1.05888e-06
-0.000126595
1.33429e-06
-0.000126679
1.42083e-06
-0.000126601
1.36114e-06
-0.000126428
1.28887e-06
-0.000125503
1.18663e-06
-0.000124478
1.0065e-06
-0.0001241
8.5481e-07
-0.000123943
7.47203e-07
-0.000123954
6.88828e-07
-0.000125342
7.05263e-07
-0.000127072
1.103e-06
-0.000127548
1.40611e-06
-0.00012761
1.50844e-06
-0.000127535
1.42787e-06
-0.000127238
1.32262e-06
-0.000125766
1.1668e-06
-0.000124682
9.47773e-07
-0.000124387
7.21687e-07
-0.000124298
5.80028e-07
-0.000124419
4.70391e-07
-0.000126242
5.50399e-07
-0.000128141
1.07717e-06
-0.000128608
1.40733e-06
-0.000128652
1.53148e-06
-0.000128592
1.51122e-06
-0.000127952
1.38233e-06
-0.000125938
1.19012e-06
-0.000124762
8.2997e-07
-0.000124475
5.71433e-07
-0.000124438
3.78942e-07
-0.000124665
2.06182e-07
-0.000127046
3.12732e-07
-0.000129265
1.04102e-06
-0.000129774
1.46864e-06
-0.000129818
1.55485e-06
-0.000129764
1.55872e-06
-0.000128589
1.47514e-06
-0.000126013
1.08336e-06
-0.000124757
4.62322e-07
-0.000124374
1.96151e-07
-0.000124342
5.18039e-08
-0.00012464
-1.38138e-07
-0.000127449
-7.29246e-08
-0.00013023
8.12912e-07
-0.000130935
1.52042e-06
-0.000131001
1.62488e-06
-0.000130955
1.57204e-06
-0.000129262
1.57977e-06
-0.000126083
8.8911e-07
-0.000124551
-1.1e-07
-0.00012409
-5.30318e-07
-0.000124071
-7.09057e-07
-0.000124338
-8.65654e-07
-0.000127308
-8.11767e-07
-0.00013064
2.15184e-07
-0.000131681
1.27663e-06
-0.000131824
1.47525e-06
-0.000131812
1.46967e-06
-0.000130204
1.42823e-06
-0.000126308
7.23415e-07
-0.000124192
-7.11676e-07
-0.000123547
-1.5527e-06
-0.000123489
-1.78726e-06
-0.00012381
-1.99398e-06
-0.00012647
-2.05993e-06
-0.000129578
-1.18984e-06
-0.000130917
-1.8827e-07
-0.000131285
1.65632e-07
-0.000131356
2.1538e-07
-0.000130291
3.59329e-08
-0.00012641
-6.6055e-07
-0.000123174
-2.32506e-06
-0.000122008
-3.96144e-06
-0.000122075
-4.55926e-06
-0.000123051
-5.29713e-06
-0.000125675
-5.21417e-06
-0.000127413
-4.81995e-06
-0.000128251
-4.90488e-06
-0.000128647
-5.45507e-06
-0.000128658
-6.242e-06
-0.000127552
-7.19707e-06
-0.000124458
-9.34138e-06
-0.000125897
-8.75092e-06
2.9189e-05
-0.000122996
9.01084e-07
-0.000122862
9.00983e-07
-0.000123205
8.23515e-07
-0.000124858
9.60783e-07
-0.00012577
1.24381e-06
-0.000125934
1.4194e-06
-0.000125879
1.39603e-06
-0.000125761
1.34869e-06
-0.000125374
1.27984e-06
-0.000124359
1.15681e-06
-0.000123739
1.01001e-06
-0.000123469
9.13661e-07
-0.000123359
8.48841e-07
-0.000123808
8.04644e-07
-0.000125633
9.94056e-07
-0.000126542
1.36977e-06
-0.000126703
1.52371e-06
-0.000126681
1.4845e-06
-0.000126575
1.41179e-06
-0.000125919
1.29993e-06
-0.000124772
1.12746e-06
-0.00012418
9.02938e-07
-0.000123896
8.22564e-07
-0.000123787
8.08313e-07
-0.000124356
7.43945e-07
-0.000126473
1.00033e-06
-0.000127449
1.45257e-06
-0.000127613
1.60125e-06
-0.000127601
1.53858e-06
-0.000127478
1.44746e-06
-0.000126394
1.30115e-06
-0.000125035
1.01914e-06
-0.000124491
7.51923e-07
-0.000124218
6.21965e-07
-0.000124153
6.43366e-07
-0.00012494
6.04051e-07
-0.000127364
9.07021e-07
-0.000128382
1.47534e-06
-0.000128568
1.6811e-06
-0.000128568
1.6181e-06
-0.000128367
1.52151e-06
-0.000126702
1.32894e-06
-0.000125108
8.92002e-07
-0.000124633
5.27689e-07
-0.000124446
3.37806e-07
-0.000124432
2.81574e-07
-0.000125413
3.01385e-07
-0.000128316
7.13388e-07
-0.000129543
1.50996e-06
-0.000129719
1.7702e-06
-0.000129724
1.85385e-06
-0.000129388
1.71134e-06
-0.000126995
1.43921e-06
-0.000124962
6.85454e-07
-0.000124456
1.57874e-07
-0.000124373
-1.56864e-07
-0.000124379
-2.33319e-07
-0.000125359
-2.78734e-07
-0.000128833
1.70872e-07
-0.000130598
1.30626e-06
-0.000130939
1.74737e-06
-0.000130984
1.87922e-06
-0.000130653
1.85652e-06
-0.000127733
1.62379e-06
-0.00012491
5.0934e-07
-0.000124068
-3.85976e-07
-0.000123927
-7.47882e-07
-0.000123973
-9.89923e-07
-0.000124682
-1.04182e-06
-0.000128307
-7.67656e-07
-0.000130818
5.33087e-07
-0.000131476
1.38902e-06
-0.000131566
1.55194e-06
-0.000131491
1.47327e-06
-0.000129193
1.29167e-06
-0.000125278
4.59621e-07
-0.000123574
-1.05908e-06
-0.000123261
-1.75462e-06
-0.000123291
-2.13769e-06
-0.000123897
-2.32301e-06
-0.000126906
-2.23238e-06
-0.000129479
-1.22197e-06
-0.000130468
-3.97005e-07
-0.000130758
-1.47294e-07
-0.000130819
-1.17847e-07
-0.000129576
-4.20577e-07
-0.000125646
-1.25941e-06
-0.000122655
-3.05858e-06
-0.000121648
-4.65599e-06
-0.000121751