/*--------------------------------*- C++ -*----------------------------------*\
  =========                 |
  \\      /  F ield         | OpenFOAM: The Open Source CFD Toolbox
   \\    /   O peration     | Website:  https://openfoam.org
    \\  /    A nd           | Version:  12
     \\/     M anipulation  |
\*---------------------------------------------------------------------------*/
FoamFile
{
    format      ascii;
    class       volScalarField;
    location    "6";
    object      rho;
}
// * * * * * * * * * * * * * * * * * * * * * * * * * * * * * * * * * * * * * //

dimensions      [1 -3 0 0 0 0 0];

internalField   nonuniform List<scalar> 
9801
(
1.07073
1.07592
1.07885
1.08004
1.08107
1.08399
1.08908
1.09782
1.10561
1.11107
1.11573
1.11989
1.12363
1.12467
1.12526
1.12791
1.13212
1.14038
1.15027
1.15698
1.16187
1.16601
1.16991
1.17141
1.17165
1.17424
1.17821
1.18473
1.19568
1.20453
1.21024
1.21482
1.2188
1.22009
1.21876
1.22112
1.22539
1.23117
1.24197
1.2544
1.26205
1.26723
1.27173
1.27415
1.27047
1.27079
1.27472
1.27996
1.2898
1.30466
1.3156
1.32241
1.32759
1.33123
1.32722
1.3246
1.32829
1.33348
1.34212
1.35867
1.37353
1.38179
1.38806
1.39297
1.38877
1.38279
1.38559
1.39172
1.40125
1.41989
1.43874
1.45047
1.45812
1.4648
1.46181
1.45053
1.45139
1.45915
1.47153
1.4983
1.52368
1.53861
1.54955
1.55895
1.55595
1.54019
1.54015
1.55357
1.57773
1.62294
1.66229
1.69012
1.71655
1.74361
1.75219
1.76219
1.79049
2.58637
6.00876
1.07675
1.08203
1.08387
1.08461
1.08605
1.08892
1.09417
1.10417
1.11256
1.1183
1.12265
1.12615
1.12861
1.12887
1.12972
1.13242
1.13643
1.14527
1.15618
1.16327
1.16828
1.1723
1.17565
1.17664
1.17639
1.17838
1.18179
1.18777
1.19959
1.20937
1.21546
1.2201
1.22406
1.22574
1.22477
1.22655
1.23007
1.23478
1.24506
1.25787
1.26575
1.27106
1.27553
1.27802
1.27562
1.27605
1.27956
1.2841
1.29285
1.30793
1.31909
1.32581
1.33089
1.33436
1.3311
1.32888
1.33207
1.3368
1.34429
1.36081
1.37629
1.38487
1.39121
1.39605
1.39283
1.38675
1.38873
1.3943
1.40237
1.42059
1.44012
1.45212
1.45987
1.46663
1.46529
1.45462
1.45412
1.46112
1.47112
1.49453
1.52116
1.5376
1.54933
1.56002
1.56131
1.54557
1.54255
1.55418
1.57276
1.61088
1.64933
1.67717
1.70313
1.72797
1.73165
1.72831
1.71973
2.47971
6.00657
1.07659
1.08185
1.08237
1.08319
1.08533
1.08844
1.09459
1.10652
1.11475
1.11908
1.12242
1.12519
1.12688
1.12733
1.12897
1.13198
1.13611
1.14546
1.15721
1.16455
1.16902
1.17244
1.17514
1.17536
1.17473
1.17679
1.18033
1.18638
1.19875
1.2094
1.21584
1.2205
1.22445
1.22709
1.226
1.22589
1.22866
1.23282
1.24211
1.25546
1.26405
1.26974
1.27446
1.278
1.27702
1.2767
1.27946
1.28355
1.29063
1.3049
1.31648
1.32345
1.3287
1.33301
1.33153
1.32899
1.33149
1.33587
1.34228
1.3575
1.37355
1.38249
1.38887
1.39403
1.39279
1.38638
1.38716
1.39228
1.39915
1.41392
1.43495
1.44838
1.4565
1.46353
1.46493
1.45462
1.45175
1.4575
1.46594
1.48294
1.51262
1.53298
1.54532
1.55587
1.56038
1.54562
1.5378
1.54708
1.56267
1.59098
1.63239
1.665
1.69079
1.71567
1.72077
1.71262
1.69199
2.41655
5.95213
1.07786
1.08229
1.08212
1.08334
1.08574
1.08883
1.09444
1.10593
1.11429
1.11911
1.12271
1.12562
1.12755
1.12831
1.13005
1.13291
1.13652
1.14487
1.15661
1.16357
1.16795
1.17144
1.17432
1.17502
1.175
1.17731
1.18084
1.18612
1.19828
1.20973
1.21611
1.22053
1.22419
1.22619
1.22427
1.22427
1.22718
1.23129
1.23977
1.25399
1.26367
1.2696
1.27432
1.27819
1.27739
1.27524
1.27713
1.28094
1.28671
1.30046
1.31421
1.32209
1.3276
1.33239
1.33263
1.32827
1.329
1.33288
1.33831
1.35095
1.36868
1.37913
1.38586
1.39119
1.39227
1.3853
1.38389
1.38821
1.39458
1.40563
1.42778
1.44398
1.45252
1.45939
1.46336
1.45435
1.44676
1.45062
1.45887
1.47092
1.49794
1.52307
1.53705
1.54747
1.55561
1.54741
1.53344
1.53691
1.55098
1.57048
1.60486
1.63893
1.66591
1.69095
1.70506
1.70194
1.6743
2.36594
5.92336
1.07749
1.08255
1.08337
1.08399
1.08598
1.0889
1.09347
1.10409
1.11343
1.11889
1.12289
1.12629
1.12908
1.13004
1.13097
1.1333
1.13643
1.14287
1.15424
1.16193
1.1668
1.17076
1.17422
1.17592
1.17612
1.17814
1.18143
1.18585
1.19644
1.20771
1.21404
1.21843
1.22212
1.22421
1.22303
1.22365
1.2267
1.23074
1.2384
1.25253
1.26256
1.26833
1.27274
1.2761
1.27494
1.27229
1.274
1.27802
1.28357
1.29658
1.31189
1.32044
1.32595
1.33054
1.33154
1.32591
1.32473
1.32803
1.33329
1.34352
1.36215
1.3749
1.3823
1.38786
1.39151
1.38618
1.38074
1.383
1.38885
1.39691
1.41652
1.43667
1.44699
1.45413
1.46009
1.45592
1.44473
1.44419
1.45133
1.46077
1.48039
1.50988
1.52919
1.5412
1.55156
1.553
1.53662
1.52992
1.53926
1.5552
1.58249
1.61772
1.64597
1.66932
1.69106
1.69642
1.66632
2.33645
5.90856
1.07837
1.08363
1.08447
1.08442
1.08603
1.08892
1.09326
1.10322
1.11311
1.11905
1.12332
1.12698
1.13025
1.13112
1.13069
1.13247
1.13558
1.14125
1.15252
1.16116
1.16657
1.17086
1.17471
1.17718
1.17681
1.17787
1.18071
1.18461
1.1937
1.20535
1.21226
1.21701
1.22108
1.22409
1.22324
1.22323
1.22597
1.22983
1.23635
1.24984
1.26044
1.26633
1.27078
1.27459
1.27453
1.27099
1.27197
1.27586
1.2811
1.29299
1.30911
1.31846
1.32403
1.32858
1.33093
1.32579
1.32187
1.32441
1.32945
1.33793
1.35634
1.37208
1.38029
1.38585
1.39071
1.38875
1.37984
1.37865
1.3837
1.39045
1.40553
1.42969
1.44444
1.45254
1.45912
1.45977
1.44774
1.44181
1.44604
1.45426
1.46663
1.4936
1.51996
1.53576
1.54736
1.55634
1.54882
1.53252
1.53273
1.54504
1.564
1.59511
1.62497
1.64872
1.6693
1.68426
1.6702
2.32038
5.90019
1.0792
1.0844
1.08451
1.08444
1.08623
1.08923
1.0938
1.10419
1.11428
1.12002
1.12413
1.12774
1.13076
1.13047
1.12948
1.13139
1.13473
1.14086
1.15305
1.16251
1.1678
1.17189
1.17562
1.17796
1.17635
1.17631
1.17889
1.18279
1.1913
1.20448
1.21275
1.21771
1.2218
1.22536
1.22497
1.22283
1.22444
1.22794
1.23322
1.24595
1.25847
1.26528
1.27012
1.27445
1.27653
1.27271
1.27149
1.2746
1.27915
1.28826
1.30495
1.31627
1.32246
1.32732
1.33115
1.32854
1.32271
1.32351
1.32816
1.3343
1.34929
1.36878
1.37947
1.38543
1.39031
1.39047
1.38165
1.37781
1.38142
1.38744
1.39693
1.41993
1.44142
1.45237
1.45954
1.46445
1.45681
1.44457
1.44354
1.45008
1.45915
1.47772
1.50764
1.52966
1.54365
1.55525
1.56052
1.54671
1.53529
1.54
1.55312
1.57591
1.6073
1.6323
1.65035
1.66577
1.66746
2.3188
5.89429
1.08025
1.08512
1.08491
1.08521
1.0871
1.09009
1.0947
1.10558
1.11631
1.12198
1.12583
1.12907
1.13115
1.12999
1.12929
1.13138
1.13472
1.14062
1.15355
1.16433
1.16993
1.17384
1.17719
1.17894
1.17648
1.17548
1.17782
1.18162
1.1894
1.20385
1.21396
1.21941
1.22354
1.22715
1.22755
1.22397
1.22389
1.22685
1.23125
1.24194
1.25733
1.26632
1.27158
1.27593
1.27919
1.27627
1.2731
1.27465
1.27853
1.28437
1.29936
1.3147
1.32272
1.32802
1.33263
1.33294
1.32633
1.32487
1.32833
1.33337
1.34231
1.3627
1.37839
1.38588
1.39118
1.39452
1.38778
1.38045
1.38117
1.38645
1.39304
1.40823
1.43442
1.45144
1.46036
1.46716
1.46847
1.45401
1.44541
1.44859
1.45675
1.46771
1.49195
1.51955
1.53778
1.55093
1.56238
1.5647
1.54912
1.54072
1.54777
1.56171
1.58691
1.61544
1.63527
1.64838
1.65888
2.32773
5.88948
1.08187
1.08654
1.08679
1.08726
1.0891
1.09202
1.09609
1.10624
1.1179
1.12411
1.12778
1.13057
1.13218
1.13142
1.13099
1.13295
1.13614
1.14097
1.15311
1.16537
1.17168
1.17565
1.17882
1.18056
1.17843
1.17703
1.17908
1.18259
1.18864
1.20271
1.21487
1.22117
1.22545
1.22907
1.23051
1.22654
1.22498
1.22734
1.23135
1.23942
1.25579
1.26763
1.27382
1.27834
1.28221
1.28129
1.27598
1.27551
1.27838
1.28296
1.29374
1.31256
1.32409
1.33023
1.33514
1.33808
1.33261
1.32795
1.32893
1.33279
1.33838
1.35373
1.37562
1.38723
1.39367
1.39895
1.39801
1.38749
1.38365
1.38613
1.39177
1.4001
1.42199
1.4467
1.45986
1.46765
1.47395
1.47057
1.45551
1.45098
1.45555
1.46394
1.47793
1.50551
1.53002
1.54627
1.55888
1.5692
1.56743
1.55189
1.54621
1.55381
1.56867
1.59512
1.61954
1.63384
1.64706
2.34269
5.88474
1.08418
1.08918
1.09001
1.09028
1.09203
1.0949
1.09836
1.10646
1.1182
1.12513
1.12925
1.13242
1.13481
1.13452
1.13387
1.13577
1.13887
1.14271
1.15232
1.16542
1.17279
1.17722
1.18075
1.18331
1.18183
1.18004
1.18189
1.18518
1.1896
1.20112
1.21513
1.22271
1.22733
1.23114
1.23364
1.23046
1.22766
1.22963
1.2333
1.23878
1.25319
1.2684
1.276
1.28076
1.28483
1.28609
1.28008
1.27728
1.27945
1.2836
1.2907
1.30863
1.32512
1.33294
1.33805
1.34228
1.34
1.33166
1.32985
1.33259
1.33755
1.34681
1.36946
1.38816
1.39671
1.40272
1.4066
1.39865
1.38788
1.38685
1.39076
1.39703
1.40876
1.43543
1.45701
1.46801
1.47576
1.48195
1.47364
1.45821
1.45627
1.46229
1.47132
1.48899
1.51671
1.53809
1.55293
1.56548
1.57446
1.57019
1.55419
1.5498
1.5569
1.57223
1.5983
1.61729
1.63329
2.36191
5.87984
1.08686
1.09247
1.09425
1.09453
1.0957
1.09822
1.10117
1.10661
1.11778
1.12609
1.13091
1.13462
1.13783
1.13909
1.13815
1.13938
1.14208
1.14529
1.15163
1.16464
1.17394
1.17912
1.18311
1.18647
1.18665
1.18436
1.18536
1.1882
1.19161
1.19911
1.21407
1.22397
1.22936
1.23354
1.23689
1.23547
1.23165
1.23269
1.23602
1.24003
1.24974
1.26733
1.27777
1.2832
1.28737
1.29013
1.28567
1.28043
1.28178
1.28569
1.29064
1.30342
1.32395
1.33526
1.34101
1.3454
1.34668
1.33808
1.33217
1.33383
1.33839
1.34456
1.36014
1.38453
1.39841
1.40554
1.41087
1.41113
1.39831
1.38965
1.39082
1.39609
1.40314
1.4205
1.44965
1.46796
1.47735
1.48439
1.48737
1.47511
1.46233
1.46248
1.4691
1.47871
1.49978
1.52675
1.54594
1.5597
1.57165
1.57822
1.5711
1.55479
1.55048
1.55622
1.57254
1.59537
1.61574
2.38253
5.87427
1.08985
1.09595
1.09831
1.09943
1.09965
1.10135
1.10391
1.10755
1.11706
1.12758
1.13344
1.13747
1.14088
1.14351
1.1431
1.14307
1.14504
1.14803
1.1523
1.16371
1.17554
1.18181
1.18598
1.18952
1.19149
1.1891
1.18843
1.19047
1.19384
1.19888
1.21239
1.22546
1.23205
1.23637
1.24009
1.24095
1.23659
1.23574
1.23815
1.24182
1.24773
1.26382
1.27865
1.28561
1.29008
1.29384
1.29266
1.28578
1.28488
1.28805
1.29234
1.29919
1.31799
1.33534
1.3431
1.34797
1.35198
1.34827
1.33855
1.33719
1.34048
1.3452
1.35237
1.37315
1.39572
1.40629
1.41271
1.41818
1.4145
1.39924
1.39395
1.39723
1.40338
1.41136
1.43321
1.46052
1.47521
1.48357
1.49083
1.49278
1.47816
1.46666
1.46835
1.47562
1.48687
1.51037
1.53509
1.55214
1.56503
1.57609
1.58089
1.57135
1.55402
1.54849
1.5531
1.56816
1.59376
2.39739
5.86718
1.09291
1.09932
1.10185
1.1039
1.10335
1.10405
1.10643
1.10967
1.11723
1.12908
1.13631
1.1406
1.14408
1.14715
1.14762
1.14614
1.14761
1.15066
1.15452
1.16339
1.17674
1.18445
1.18882
1.1923
1.19505
1.19343
1.1911
1.19294
1.19639
1.20068
1.21075
1.22614
1.23473
1.23938
1.24309
1.24562
1.24198
1.23849
1.24012
1.24376
1.24818
1.25926
1.27757
1.28777
1.2931
1.29724
1.2995
1.29346
1.28862
1.28997
1.29342
1.298
1.30921
1.33123
1.34475
1.35137
1.35613
1.35851
1.34991
1.34168
1.34164
1.34486
1.35
1.36056
1.38612
1.40532
1.41412
1.42004
1.42459
1.41767
1.40366
1.40065
1.40377
1.40926
1.41891
1.44445
1.46948
1.48266
1.4909
1.49741
1.49658
1.48158
1.47224
1.47465
1.48187
1.4947
1.51976
1.54259
1.55796
1.56957
1.57911
1.58229
1.57119
1.55203
1.54398
1.5461
1.56867
2.39834
5.85973
1.09581
1.10249
1.10518
1.10776
1.10743
1.1074
1.10938
1.11227
1.11775
1.13001
1.13915
1.14381
1.14728
1.15039
1.15176
1.15013
1.15096
1.1537
1.15705
1.16289
1.17616
1.18637
1.19145
1.19505
1.1982
1.19832
1.19536
1.19632
1.19945
1.20315
1.20903
1.22385
1.23631
1.24227
1.24618
1.24953
1.2485
1.24314
1.24301
1.24607
1.25
1.25595
1.27266
1.2887
1.29606
1.30056
1.30434
1.30256
1.2942
1.29202
1.29451
1.29857
1.30456
1.32216
1.34369
1.354
1.35973
1.36435
1.36265
1.34991
1.34393
1.34584
1.35025
1.35593
1.37084
1.39766
1.41388
1.42172
1.42805
1.43158
1.42015
1.40628
1.40455
1.40898
1.41526
1.4269
1.454
1.4767
1.48858
1.49666
1.50367
1.50245
1.48599
1.47694
1.47969
1.4871
1.50158
1.5273
1.54847
1.56258
1.57323
1.5812
1.58263
1.57035
1.55003
1.53486
1.5433
2.38081
5.85422
1.09879
1.10607
1.10894
1.11186
1.11182
1.11075
1.11214
1.1148
1.11866
1.12939
1.14117
1.14699
1.15068
1.15393
1.15634
1.15519
1.15467
1.15657
1.15938
1.16307
1.17344
1.18706
1.19417
1.19833
1.20193
1.2042
1.20158
1.20043
1.2023
1.20509
1.20882
1.21918
1.23577
1.24464
1.24944
1.25326
1.25545
1.25055
1.247
1.24842
1.25153
1.25567
1.26587
1.28587
1.29779
1.30348
1.30764
1.3102
1.3034
1.29594
1.29633
1.29987
1.30452
1.31328
1.33561
1.35352
1.36134
1.36643
1.37023
1.36506
1.35224
1.34874
1.3512
1.35566
1.36256
1.3828
1.40899
1.42254
1.42946
1.4343
1.43565
1.42278
1.41059
1.41004
1.41459
1.42123
1.43577
1.46439
1.48538
1.49634
1.50392
1.5093
1.50563
1.4896
1.4814
1.48402
1.49124
1.50709
1.53323
1.55345
1.56642
1.57573
1.58159
1.58121
1.56886
1.54321
1.52806
2.34592
5.85032
1.10189
1.1102
1.11313
1.11606
1.11637
1.11418
1.11469
1.11696
1.11996
1.12747
1.14165
1.1503
1.15459
1.15801
1.16111
1.1612
1.15852
1.15887
1.1611
1.16422
1.17068
1.18591
1.19687
1.20226
1.20601
1.20935
1.2087
1.20431
1.20402
1.20639
1.20987
1.21591
1.23201
1.24619
1.25276
1.25685
1.26042
1.25924
1.25222
1.25074
1.25325
1.25689
1.26207
1.27788
1.29702
1.30595
1.31091
1.31489
1.31427
1.30419
1.30003
1.30207
1.30559
1.31023
1.32207
1.34637
1.36154
1.36872
1.37418
1.37745
1.36756
1.35489
1.35353
1.35741
1.36247
1.36994
1.39238
1.41662
1.42789
1.43438
1.44029
1.44106
1.42626
1.41551
1.41639
1.4218
1.4289
1.44511
1.4726
1.49087
1.50084
1.50844
1.51434
1.51042
1.4937
1.48544
1.48772
1.49456
1.51104
1.53707
1.5565
1.56834
1.57611
1.57978
1.57867
1.56148
1.53351
2.30523
5.84686
1.10445
1.11431
1.11733
1.12015
1.12113
1.11811
1.11705
1.1187
1.12148
1.12637
1.1402
1.15271
1.15863
1.16229
1.16551
1.16713
1.16339
1.16127
1.16287
1.16586
1.17008
1.18253
1.19815
1.20578
1.2099
1.21335
1.21506
1.20998
1.20684
1.20855
1.21176
1.21556
1.22566
1.24423
1.25474
1.25996
1.2639
1.26658
1.26093
1.25487
1.25548
1.25847
1.26216
1.26956
1.29
1.30657
1.31387
1.31857
1.3221
1.3173
1.30688
1.30446
1.3066
1.31022
1.31561
1.33229
1.35689
1.36978
1.37602
1.38058
1.38239
1.37127
1.36051
1.35977
1.36277
1.36747
1.37673
1.40216
1.4246
1.43505
1.44123
1.44645
1.44622
1.43224
1.42273
1.42316
1.42727
1.43385
1.45204
1.4795
1.49685
1.50669
1.51425
1.51938
1.51478
1.49829
1.48949
1.49095
1.49687
1.51279
1.53862
1.55756
1.56827
1.57415
1.57681
1.57183
1.55504
2.2805
5.84454
1.10629
1.11795
1.12116
1.12384
1.12542
1.12238
1.11949
1.12074
1.12356
1.1275
1.13838
1.15379
1.16182
1.166
1.16913
1.17158
1.16918
1.16459
1.16519
1.16801
1.17155
1.1793
1.19637
1.2078
1.21314
1.21677
1.21982
1.21786
1.21183
1.2113
1.21353
1.21667
1.22165
1.23761
1.25508
1.26296
1.26756
1.27138
1.27105
1.26224
1.25848
1.25989
1.26293
1.26718
1.27908
1.30214
1.31576
1.32205
1.32647
1.32855
1.3191
1.3091
1.30851
1.31179
1.31592
1.32206
1.34217
1.36565
1.37653
1.38259
1.38807
1.38847
1.37439
1.36414
1.36443
1.36865
1.37388
1.38383
1.40968
1.43063
1.44076
1.44804
1.45416
1.45281
1.4368
1.42616
1.42673
1.43192
1.43955
1.45944
1.48619
1.50242
1.51186
1.51937
1.52491
1.52065
1.5029
1.49239
1.49284
1.49793
1.51269
1.53846
1.55699
1.56626
1.57105
1.57004
1.57202
2.27757
5.84089
1.10712
1.11996
1.12373
1.12654
1.12862
1.12687
1.12308
1.12386
1.12663
1.12996
1.1373
1.15277
1.16358
1.16869
1.17205
1.17487
1.17495
1.1698
1.1685
1.17076
1.17394
1.17838
1.19143
1.20786
1.21575
1.22008
1.22366
1.22538
1.21909
1.2142
1.21515
1.21821
1.22212
1.23112
1.25136
1.26499
1.27102
1.27493
1.27792
1.27246
1.26294
1.26169
1.26458
1.26841
1.2737
1.2905
1.31293
1.32375
1.32947
1.33366
1.33366
1.32202
1.31394
1.31413
1.31677
1.32099
1.32934
1.35326
1.37486
1.38437
1.38968
1.39375
1.39282
1.37932
1.37043
1.37047
1.37349
1.37861
1.39166
1.42064
1.44039
1.44908
1.45468
1.45893
1.45658
1.44126
1.43143
1.43209
1.43682
1.44489
1.46639
1.49312
1.50894
1.51787
1.52475
1.52921
1.52464
1.50662
1.49458
1.49387
1.49813
1.51193
1.53712
1.55467
1.56325
1.56379
1.57763
2.29206
5.8363
1.10679
1.12139
1.12582
1.12898
1.13148
1.13162
1.12838
1.1284
1.13083
1.13375
1.13764
1.14915
1.16348
1.17051
1.17458
1.17798
1.18034
1.17682
1.1728
1.17371
1.17633
1.17956
1.1867
1.20452
1.21757
1.22343
1.2271
1.23002
1.2273
1.21903
1.21782
1.22068
1.22442
1.22912
1.24255
1.26273
1.27285
1.27802
1.28169
1.28255
1.27264
1.26603
1.26723
1.27059
1.27436
1.28069
1.30114
1.32194
1.33112
1.33654
1.34115
1.33879
1.32412
1.31696
1.31885
1.32309
1.32767
1.33703
1.36192
1.38118
1.38953
1.39525
1.40049
1.39846
1.38265
1.37365
1.37531
1.38047
1.38682
1.40115
1.42794
1.44466
1.45266
1.45866
1.4642
1.46254
1.44667
1.43666
1.43745
1.44241
1.45082
1.4724
1.49804
1.513
1.52146
1.528
1.53262
1.52875
1.51075
1.49695
1.49477
1.49779
1.51011
1.53404
1.55079
1.55566
1.57434
2.32002
5.83145
1.10555
1.12145
1.12765
1.13148
1.13456
1.13686
1.13516
1.13334
1.1345
1.13673
1.13945
1.14544
1.16098
1.17253
1.17785
1.1813
1.1843
1.18385
1.17784
1.17644
1.1787
1.18197
1.18626
1.19857
1.21641
1.22526
1.22967
1.23298
1.23465
1.22807
1.22292
1.22421
1.22721
1.23045
1.2357
1.25339
1.27233
1.28062
1.28542
1.28893
1.28618
1.27485
1.27078
1.27238
1.27558
1.27975
1.28866
1.31195
1.33033
1.33832
1.34317
1.34672
1.34254
1.329
1.32392
1.3253
1.32829
1.33296
1.34493
1.37107
1.38876
1.39652
1.40123
1.40533
1.40353
1.38957
1.38241
1.38321
1.38607
1.39113
1.40608
1.43341
1.45069
1.45947
1.46549
1.47031
1.46864
1.45386
1.44348
1.44298
1.4469
1.45352
1.47442
1.50085
1.51625
1.52469
1.53107
1.53584
1.5338
1.51585
1.49896
1.49443
1.49629
1.50663
1.52953
1.54194
1.56488
2.35146
5.82476
1.10491
1.11969
1.12979
1.13456
1.13778
1.14073
1.14173
1.13813
1.13724
1.13928
1.14232
1.14603
1.15692
1.17273
1.18067
1.18466
1.18741
1.18902
1.18466
1.18066
1.18207
1.18517
1.18849
1.19386
1.20968
1.22532
1.23233
1.23647
1.23979
1.23894
1.23056
1.22729
1.22862
1.23167
1.23564
1.24417
1.26544
1.2816
1.28862
1.29303
1.29572
1.28875
1.27682
1.27471
1.27789
1.282
1.28617
1.29642
1.32072
1.33708
1.34411
1.34924
1.35349
1.3473
1.33217
1.3274
1.33022
1.33471
1.33967
1.35197
1.37737
1.39377
1.40169
1.40814
1.41312
1.41
1.39426
1.38502
1.38579
1.39022
1.39606
1.41191
1.43921
1.45649
1.46524
1.47169
1.47729
1.47582
1.45964
1.44683
1.44542
1.44976
1.45679
1.47675
1.50342
1.51982
1.52863
1.53476
1.53882
1.53748
1.52019
1.50005
1.4926
1.49303
1.50272
1.52058
1.54878
2.37737
5.81528
1.10643
1.11602
1.13016
1.13743
1.14104
1.14398
1.14655
1.14465
1.14152
1.14283
1.14574
1.14885
1.15381
1.16792
1.18083
1.18642
1.1899
1.19316
1.1936
1.1881
1.1865
1.18824
1.19076
1.19389
1.20138
1.22033
1.23399
1.23992
1.24346
1.24608
1.24101
1.23222
1.23139
1.23448
1.23841
1.24257
1.25298
1.27503
1.28874
1.29493
1.29933
1.30124
1.29228
1.28241
1.28164
1.2839
1.28714
1.29173
1.30498
1.32968
1.34438
1.35096
1.35508
1.3578
1.35171
1.33885
1.3351
1.33666
1.33979
1.34475
1.35979
1.38698
1.40276
1.4096
1.41404
1.41771
1.41454
1.39892
1.39054
1.39148
1.39562
1.40164
1.41915
1.44657
1.46316
1.47136
1.47682
1.48088
1.47998
1.46547
1.45252
1.45049
1.45384
1.46007
1.4786
1.50526
1.52222
1.53086
1.53653
1.54008
1.53928
1.52403
1.50146
1.48991
1.48919
1.4948
1.52786
2.3905
5.80353
1.10872
1.11326
1.12585
1.13851
1.14431
1.14773
1.15089
1.15252
1.14873
1.14742
1.14903
1.15134
1.15382
1.16039
1.17708
1.18858
1.19392
1.19737
1.20046
1.19821
1.19173
1.1907
1.19284
1.19595
1.19965
1.21017
1.22998
1.241
1.24627
1.24996
1.25183
1.2439
1.2376
1.23847
1.24102
1.24375
1.24757
1.26023
1.2832
1.29602
1.30204
1.30654
1.30768
1.29649
1.28616
1.28583
1.28943
1.29345
1.29791
1.31184
1.33622
1.34954
1.35572
1.36105
1.36486
1.35776
1.34347
1.33922
1.34214
1.34684
1.35193
1.36667
1.39185
1.40574
1.41253
1.41787
1.42298
1.42116
1.40656
1.39775
1.39837
1.40258
1.40813
1.42343
1.44934
1.46562
1.47377
1.47988
1.48569
1.48717
1.47332
1.45868
1.45521
1.45798
1.46311
1.4788
1.50475
1.52229
1.53126
1.53667
1.54032
1.54049
1.52805
1.50415
1.48807
1.47982
1.50359
2.3796
5.79206
1.11004
1.11288
1.1201
1.13714
1.14772
1.15254
1.15577
1.15884
1.15805
1.15255
1.15084
1.1519
1.15437
1.15798
1.16923
1.18793
1.19741
1.20181
1.20507
1.20695
1.20061
1.19493
1.19548
1.19794
1.20071
1.20465
1.2186
1.23904
1.24931
1.25466
1.25842
1.25796
1.24767
1.24161
1.24177
1.24419
1.24779
1.25303
1.26942
1.29202
1.30327
1.30878
1.31283
1.31318
1.30188
1.29306
1.29271
1.29461
1.29794
1.30317
1.32002
1.34432
1.35684
1.36262
1.36663
1.37
1.36446
1.35158
1.34733
1.34785
1.35013
1.35511
1.37077
1.39681
1.41243
1.4203
1.42631
1.43122
1.42909
1.41442
1.40422
1.40308
1.40564
1.41038
1.42476
1.45228
1.47134
1.48063
1.48651
1.49158
1.49328
1.4814
1.46526
1.45923
1.46073
1.46488
1.47721
1.50266
1.5221
1.53195
1.53727
1.54023
1.54048
1.53093
1.50761
1.48298
1.48521
2.34533
5.78161
1.1118
1.11427
1.11857
1.13251
1.14929
1.15675
1.16044
1.16344
1.16534
1.15995
1.15381
1.15383
1.15615
1.15916
1.16436
1.18087
1.19804
1.20539
1.20923
1.21242
1.21167
1.20279
1.19864
1.19932
1.20169
1.20511
1.21106
1.22983
1.24957
1.2582
1.26275
1.2658
1.26223
1.24959
1.24473
1.24663
1.25021
1.25395
1.25927
1.27766
1.29949
1.30953
1.31499
1.31971
1.31967
1.30604
1.29613
1.2965
1.30021
1.30437
1.30956
1.32654
1.34984
1.36162
1.36809
1.3737
1.37747
1.37029
1.35458
1.34881
1.35093
1.35529
1.3612
1.37772
1.40416
1.41988
1.42723
1.43224
1.43664
1.43565
1.42018
1.40759
1.40606
1.41008
1.41561
1.42948
1.45609
1.47578
1.48546
1.49164
1.4968
1.49894
1.48845
1.47067
1.46222
1.46257
1.46624
1.47668
1.50083
1.52148
1.53206
1.53687
1.53898
1.53837
1.5315
1.50587
1.48573
2.29574
5.77456
1.11465
1.11685
1.11994
1.12828
1.1467
1.15909
1.16429
1.16728
1.16999
1.16873
1.16006
1.15693
1.15844
1.16115
1.16452
1.17279
1.19298
1.20713
1.21312
1.21674
1.21932
1.21414
1.20384
1.20162
1.20393
1.20731
1.2112
1.21941
1.24075
1.2575
1.26459
1.2692
1.27205
1.2662
1.25443
1.25148
1.25294
1.25521
1.25875
1.26581
1.28722
1.3077
1.31663
1.32137
1.32479
1.32386
1.3116
1.3036
1.3036
1.30564
1.30906
1.31487
1.33431
1.35802
1.36931
1.37461
1.37794
1.38087
1.37533
1.36139
1.35645
1.35868
1.36305
1.36825
1.38271
1.40807
1.42339
1.43048
1.43577
1.44044
1.44073
1.42808
1.41596
1.41385
1.41647
1.42085
1.43246
1.45843
1.47938
1.48974
1.49562
1.50012
1.50208
1.49426
1.47719
1.46686
1.46568
1.46818
1.47554
1.4978
1.51934
1.53031
1.53467
1.53597
1.53595
1.52735
1.51126
2.26024
5.76901
1.11932
1.12083
1.1235
1.12741
1.13964
1.15787
1.1666
1.17084
1.17372
1.17546
1.16919
1.16133
1.16099
1.16333
1.16637
1.17064
1.18325
1.20435
1.21555
1.2206
1.22364
1.22443
1.21496
1.20707
1.20752
1.21038
1.21364
1.2172
1.22672
1.24955
1.26511
1.27176
1.27629
1.27909
1.27043
1.25734
1.25456
1.2573
1.26094
1.26511
1.2733
1.29493
1.31332
1.3212
1.32624
1.33092
1.33024
1.31641
1.30703
1.30749
1.3113
1.31566
1.32172
1.34035
1.36209
1.37255
1.3789
1.38457
1.38856
1.38324
1.36895
1.36283
1.36375
1.36659
1.37135
1.38535
1.41129
1.42768
1.43554
1.44154
1.44708
1.44871
1.43687
1.42251
1.41836
1.42092
1.42533
1.43417
1.45756
1.47963
1.491
1.49724
1.50229
1.50636
1.50255
1.48581
1.47184
1.46777
1.46915
1.47381
1.49292
1.51536
1.52733
1.53149
1.53321
1.5297
1.53707
2.25732
5.76279
1.12484
1.12437
1.12638
1.1291
1.13458
1.15105
1.16719
1.17403
1.17776
1.18021
1.17858
1.16866
1.16481
1.16682
1.17008
1.17333
1.17818
1.19326
1.21297
1.22224
1.22704
1.23018
1.22881
1.21772
1.21188
1.21251
1.21488
1.21828
1.22284
1.23563
1.259
1.27245
1.27837
1.28192
1.2833
1.27398
1.26282
1.26155
1.26403
1.26702
1.27075
1.2797
1.30251
1.32022
1.32791
1.33221
1.33521
1.33462
1.32334
1.31533
1.31512
1.31691
1.32027
1.32639
1.34633
1.36942
1.38077
1.38647
1.39081
1.39469
1.39027
1.37486
1.36688
1.36775
1.37194
1.37747
1.39065
1.41601
1.43403
1.44236
1.44738
1.45153
1.45391
1.44532
1.43028
1.4237
1.42448
1.42828
1.4347
1.45521
1.48052
1.49523
1.50235
1.50705
1.51039
1.50906
1.49392
1.47625
1.46882
1.46868
1.4716
1.48687
1.51014
1.52352
1.52903
1.52674
1.546
2.27403
5.75529
1.13064
1.12775
1.1299
1.1329
1.13587
1.14353
1.1614
1.17383
1.17873
1.18181
1.18457
1.18119
1.17286
1.17179
1.17393
1.17653
1.17915
1.18414
1.20141
1.22058
1.22911
1.23372
1.23668
1.23307
1.22082
1.21627
1.21818
1.22172
1.22535
1.22948
1.24261
1.26494
1.27693
1.28253
1.28715
1.28936
1.28027
1.26871
1.26661
1.26931
1.27298
1.27711
1.2858
1.30772
1.32456
1.33195
1.33716
1.34185
1.34202
1.32946
1.31918
1.31877
1.32235
1.32687
1.33296
1.35081
1.3729
1.38416
1.39023
1.39513
1.39914
1.39673
1.38336
1.37522
1.3755
1.37843
1.38256
1.39326
1.4173
1.43582
1.44494
1.45106
1.45664
1.46058
1.45389
1.43696
1.42789
1.42807
1.43206
1.43834
1.45641
1.48187
1.49778
1.50527
1.50982
1.51288
1.51274
1.50038
1.48061
1.46967
1.46768
1.46942
1.48199
1.50453
1.5193
1.52168
1.54528
2.30719
5.74808
1.13875
1.13406
1.13478
1.13724
1.13951
1.14202
1.14962
1.16797
1.18012
1.18557
1.18907
1.19132
1.18507
1.17717
1.17613
1.17812
1.18108
1.18437
1.19083
1.20938
1.22698
1.23477
1.23917
1.24237
1.2384
1.22733
1.22423
1.22554
1.22712
1.22957
1.23408
1.24894
1.2717
1.28394
1.28945
1.29345
1.29528
1.28572
1.27486
1.27332
1.27528
1.27777
1.28184
1.29153
1.31436
1.33138
1.33879
1.34292
1.34609
1.34736
1.33754
1.32805
1.3268
1.32813
1.33081
1.33615
1.3537
1.37671
1.38931
1.39602
1.40185
1.40643
1.40488
1.39072
1.3799
1.37843
1.38166
1.3862
1.39478
1.41818
1.4405
1.45154
1.45732
1.46169
1.46497
1.46134
1.44684
1.43655
1.43508
1.43717
1.44105
1.45405
1.47958
1.49766
1.50589
1.51033
1.51384
1.51571
1.50729
1.48688
1.47196
1.46743
1.46763
1.47624
1.49797
1.50896
1.53736
2.3442
5.73839
1.14715
1.1441
1.13997
1.13999
1.14073
1.14275
1.14627
1.15649
1.17657
1.18828
1.19331
1.19612
1.19683
1.18805
1.18133
1.18168
1.18422
1.18694
1.18965
1.19539
1.21484
1.23351
1.24203
1.24703
1.2503
1.245
1.23223
1.22724
1.22855
1.23158
1.23498
1.24016
1.25607
1.27807
1.28916
1.29462
1.29875
1.30077
1.29204
1.28006
1.27749
1.28025
1.28399
1.28813
1.29683
1.31842
1.33503
1.34275
1.3486
1.35352
1.35515
1.34447
1.33215
1.32953
1.33239
1.33665
1.34247
1.35834
1.38195
1.39606
1.40256
1.40656
1.40987
1.41074
1.39961
1.38692
1.38399
1.38708
1.39171
1.39933
1.41919
1.44147
1.45367
1.46025
1.46586
1.47088
1.47087
1.45739
1.44269
1.43755
1.43899
1.44274
1.45211
1.4758
1.49692
1.50713
1.51212
1.51585
1.51857
1.51434
1.49444
1.47414
1.46579
1.46448
1.47088
1.48628
1.52052
2.37221
5.72567
1.15292
1.15517
1.14663
1.14257
1.14325
1.14541
1.14793
1.15164
1.16347
1.18392
1.19478
1.20025
1.20365
1.20318
1.19346
1.18774
1.18727
1.18797
1.19022
1.1938
1.2018
1.22382
1.24203
1.24975
1.25403
1.25644
1.25014
1.23709
1.23297
1.23461
1.23745
1.24064
1.24519
1.26117
1.28327
1.29451
1.30003
1.30478
1.30735
1.29903
1.28771
1.28516
1.28627
1.28844
1.29241
1.30176
1.32477
1.34248
1.35021
1.3545
1.35775
1.36012
1.35245
1.34066
1.33786
1.33986
1.34281
1.3471
1.36052
1.38363
1.39801
1.40537
1.41151
1.41672
1.41898
1.40968
1.39643
1.39207
1.39283
1.39515
1.40026
1.41726
1.4431
1.45906
1.46637
1.47118
1.47504
1.47612
1.46589
1.4498
1.4419
1.44163
1.4446
1.45168
1.47293
1.49627
1.50892
1.51452
1.51768
1.51948
1.51741
1.50127
1.47762
1.46369
1.4607
1.46137
1.49833
2.38004
5.71048
1.15724
1.16254
1.15804
1.14886
1.14682
1.14822
1.15015
1.15214
1.1559
1.17041
1.19251
1.20348
1.20865
1.21202
1.20956
1.19666
1.18947
1.19003
1.19281
1.19599
1.19982
1.20895
1.23158
1.24793
1.25491
1.25968
1.26282
1.25665
1.24345
1.23844
1.23892
1.24087
1.24431
1.24991
1.26817
1.29071
1.30175
1.30692
1.31075
1.31333
1.3054
1.29191
1.2881
1.29064
1.2945
1.29891
1.30758
1.32868
1.34555
1.35375
1.3598
1.36488
1.36787
1.35999
1.34623
1.34113
1.34245
1.34603
1.3505
1.36245
1.38745
1.40542
1.41349
1.41841
1.42259
1.42577
1.41869
1.40286
1.39487
1.39559
1.39968
1.40559
1.41965
1.44391
1.46068
1.46869
1.4737
1.47826
1.48153
1.47454
1.45716
1.44671
1.44532
1.44757
1.45215
1.46932
1.49382
1.50824
1.51441
1.51763
1.51951
1.51871
1.50674
1.48218
1.46418
1.45282
1.47472
2.36191
5.69442
1.16003
1.16772
1.16891
1.1608
1.15164
1.14964
1.15068
1.15342
1.15677
1.1623
1.1808
1.20218
1.21147
1.21605
1.21862
1.21336
1.19977
1.19506
1.19643
1.19865
1.20102
1.20468
1.21534
1.23928
1.25531
1.26198
1.26606
1.26917
1.26269
1.24772
1.24194
1.24349
1.24685
1.25096
1.25684
1.27432
1.29565
1.30591
1.31108
1.31474
1.31703
1.31153
1.30003
1.29646
1.29758
1.29964
1.3033
1.31148
1.33346
1.35255
1.36125
1.36585
1.36871
1.37143
1.36718
1.35364
1.34676
1.34796
1.35201
1.35708
1.36713
1.38927
1.40764
1.41678
1.42233
1.4262
1.42919
1.42649
1.41326
1.40447
1.40359
1.40534
1.40863
1.41773
1.44125
1.46235
1.47288
1.47837
1.48255
1.48545
1.48222
1.46682
1.45311
1.44874
1.44982
1.45295
1.46507
1.48915
1.50622
1.51379
1.51691
1.51834
1.51839
1.51131
1.48942
1.46172
1.46405
2.31547
5.68001
1.1609
1.17248
1.17555
1.17439
1.16134
1.15306
1.15355
1.15637
1.1597
1.16326
1.16985
1.19015
1.20909
1.21685
1.22121
1.22413
1.2185
1.20479
1.19915
1.20006
1.20303
1.20626
1.21084
1.22355
1.24701
1.26095
1.26686
1.27066
1.27328
1.2674
1.25415
1.24967
1.25107
1.25326
1.25607
1.2616
1.27909
1.29996
1.31031
1.31562
1.32047
1.32401
1.3191
1.30557
1.29989
1.30163
1.30536
1.30984
1.31704
1.336
1.35437
1.36339
1.36899
1.37429
1.37847
1.37626
1.36397
1.35642
1.35625
1.35776
1.36067
1.36752
1.38749
1.40803
1.4189
1.42544
1.4317
1.43637
1.43599
1.42287
1.40943
1.40572
1.40822
1.41257
1.42047
1.4404
1.46221
1.47463
1.48121
1.48584
1.48951
1.48924
1.47665
1.46011
1.45197
1.45124
1.45334
1.46069
1.48258
1.50286
1.51277
1.51664
1.51788
1.51743
1.51374
1.49146
1.47176
2.26266
5.67089
1.15755
1.1744
1.17803
1.18024
1.17697
1.16448
1.15971
1.1609
1.16302
1.1653
1.16828
1.17598
1.19774
1.21568
1.22318
1.22731
1.2301
1.22384
1.20967
1.20481
1.20658
1.20978
1.21306
1.21727
1.22932
1.25175
1.2654
1.27135
1.27554
1.2792
1.27434
1.26013
1.25387
1.25507
1.25833
1.26204
1.26796
1.2849
1.30595
1.31671
1.32178
1.32499
1.32757
1.32529
1.31447
1.30889
1.30919
1.31064
1.31363
1.31958
1.33824
1.3596
1.37098
1.37666
1.38082
1.38513
1.3848
1.37202
1.36048
1.35823
1.36091
1.36498
1.37104
1.38828
1.41176
1.42581
1.43238
1.43676
1.43998
1.44112
1.43232
1.41899
1.41369
1.41411
1.41632
1.4207
1.43578
1.46061
1.4772
1.48496
1.48942
1.49278
1.49399
1.48504
1.46701
1.45502
1.45205
1.45333
1.4582
1.47715
1.49961
1.51178
1.51593
1.51631
1.51608
1.50998
1.50389
2.23557
5.66292
1.14807
1.17213
1.17967
1.18393
1.18692
1.18215
1.169
1.1636
1.16441
1.16714
1.17012
1.17404
1.18342
1.20501
1.22123
1.228
1.23183
1.23469
1.22973
1.21719
1.21232
1.2131
1.21498
1.21752
1.22186
1.23453
1.25716
1.27105
1.27721
1.28083
1.28324
1.27988
1.26758
1.26145
1.26232
1.26503
1.26822
1.2733
1.28857
1.30855
1.31944
1.3254
1.3307
1.33484
1.3337
1.3214
1.31249
1.31226
1.31549
1.31994
1.32582