/*--------------------------------*- C++ -*----------------------------------*\
  =========                 |
  \\      /  F ield         | OpenFOAM: The Open Source CFD Toolbox
   \\    /   O peration     | Website:  https://openfoam.org
    \\  /    A nd           | Version:  12
     \\/     M anipulation  |
\*---------------------------------------------------------------------------*/
FoamFile
{
    format      ascii;
    class       volScalarField;
    location    "15.9";
    object      rho;
}
// * * * * * * * * * * * * * * * * * * * * * * * * * * * * * * * * * * * * * //

dimensions      [1 -3 0 0 0 0 0];

internalField   nonuniform List<scalar> 
9801
(
1.10612
1.10887
1.1147
1.12745
1.13995
1.14777
1.15323
1.15784
1.16208
1.16508
1.1637
1.16332
1.16623
1.17027
1.17729
1.19134
1.20472
1.21287
1.21852
1.22334
1.2279
1.22941
1.22588
1.2265
1.23006
1.23495
1.24437
1.26126
1.2747
1.28246
1.28818
1.29332
1.29723
1.294
1.29073
1.29336
1.29826
1.3048
1.31904
1.33896
1.35139
1.35889
1.36491
1.37051
1.36996
1.36258
1.36241
1.36706
1.37349
1.38462
1.4071
1.42656
1.43736
1.44497
1.45153
1.45438
1.4449
1.43891
1.44282
1.45019
1.46131
1.48513
1.51274
1.52907
1.53889
1.54717
1.55375
1.54352
1.52983
1.53145
1.53999
1.55333
1.58427
1.62172
1.64426
1.65792
1.66946
1.67838
1.66594
1.64365
1.64353
1.65696
1.68009
1.73096
1.78199
1.81306
1.83545
1.85641
1.86709
1.83779
1.80995
1.81907
1.85495
1.92832
2.04782
2.16254
2.26366
3.4482
11.4922
1.11132
1.1143
1.11971
1.13331
1.14685
1.15476
1.16004
1.16435
1.16813
1.17073
1.16936
1.16894
1.17151
1.17522
1.18166
1.19667
1.21093
1.2191
1.22461
1.22916
1.23321
1.2344
1.23118
1.23157
1.23485
1.23927
1.24812
1.26601
1.28007
1.28794
1.29358
1.29844
1.30207
1.29911
1.29581
1.29801
1.30242
1.30816
1.32227
1.34298
1.35573
1.36329
1.36921
1.37442
1.37435
1.36739
1.36674
1.37087
1.37661
1.38647
1.4092
1.42951
1.44069
1.44837
1.45487
1.45828
1.44955
1.44295
1.44596
1.45258
1.46198
1.4854
1.51399
1.53066
1.54078
1.54923
1.55614
1.5476
1.53334
1.53354
1.5414
1.55256
1.57907
1.61708
1.64181
1.65709
1.66959
1.68039
1.67023
1.64624
1.6438
1.65584
1.67354
1.71469
1.76689
1.80148
1.82627
1.8491
1.86492
1.84483
1.81586
1.81624
1.84862
1.90057
1.98715
2.07329
2.13831
3.2866
11.5133
1.1089
1.1121
1.11734
1.13129
1.14536
1.15313
1.15817
1.16232
1.16602
1.1686
1.16703
1.16648
1.16901
1.17273
1.17887
1.19406
1.20876
1.21683
1.22219
1.22664
1.23065
1.23196
1.22869
1.22891
1.23212
1.23645
1.24459
1.26246
1.27699
1.28496
1.29061
1.2955
1.29945
1.29703
1.29316
1.29501
1.29926
1.30466
1.31764
1.33825
1.35132
1.35904
1.36507
1.3705
1.37192
1.36521
1.36353
1.36716
1.3726
1.38105
1.40231
1.42348
1.43522
1.44311
1.44977
1.45452
1.44756
1.43933
1.44107
1.44714
1.45508
1.47405
1.5041
1.52297
1.53365
1.54224
1.54979
1.54463
1.52934
1.52677
1.53324
1.5431
1.56222
1.60198
1.63153
1.64739
1.65931
1.66963
1.66474
1.64032
1.63236
1.64169
1.65687
1.6858
1.74234
1.7865
1.81245
1.83354
1.85048
1.83869
1.80923
1.80159
1.82302
1.86439
1.93322
2.00959
2.05146
3.21654
11.3557
1.10664
1.11011
1.11503
1.12867
1.14325
1.15112
1.15612
1.16021
1.16387
1.16603
1.16396
1.16358
1.16618
1.16991
1.17559
1.19029
1.2055
1.21373
1.21908
1.22352
1.22753
1.22867
1.22509
1.22515
1.22829
1.23254
1.23962
1.25685
1.27247
1.28088
1.28663
1.29153
1.29563
1.29352
1.28874
1.28999
1.29401
1.29905
1.3098
1.33048
1.34522
1.35353
1.35974
1.3653
1.36808
1.36107
1.35705
1.35984
1.36503
1.37194
1.39034
1.41422
1.42782
1.43603
1.44267
1.44823
1.4433
1.43185
1.43154
1.43723
1.44467
1.45878
1.48978
1.51251
1.52376
1.53207
1.53956
1.53836
1.52134
1.51416
1.51961
1.52931
1.54293
1.57782
1.61246
1.63018
1.6421
1.6531
1.65671
1.63513
1.61694
1.62107
1.6356
1.65465
1.69791
1.74866
1.78021
1.80228
1.82256
1.82481
1.79935
1.78224
1.78856
1.81835
1.86308
1.92855
1.96177
3.19018
11.2327
1.10316
1.10686
1.1116
1.1245
1.13914
1.14712
1.15211
1.15618
1.15972
1.16137
1.15915
1.15904
1.16166
1.16533
1.17046
1.18409
1.19985
1.20845
1.21386
1.21832
1.22225
1.22316
1.21935
1.21911
1.22207
1.22617
1.23221
1.2482
1.26531
1.27438
1.28015
1.28497
1.28901
1.28743
1.28204
1.28242
1.28602
1.29075
1.2991
1.31945
1.33683
1.34578
1.35183
1.35711
1.3601
1.35347
1.3478
1.34988
1.35478
1.3609
1.37543
1.40105
1.41713
1.42572
1.43222
1.43788
1.43554
1.4228
1.41987
1.42475
1.43178
1.44205
1.46921
1.49595
1.50925
1.51804
1.52593
1.52983
1.51585
1.50169
1.50321
1.51191
1.52283
1.54859
1.58846
1.61243
1.62579
1.63717
1.64616
1.6343
1.60864
1.60134
1.61191
1.62814
1.65622
1.70732
1.75074
1.77865
1.8012
1.81673
1.80287
1.78035
1.77086
1.78177
1.81252
1.86448
1.89583
3.17646
11.1712
1.09956
1.10332
1.1077
1.11971
1.13476
1.14301
1.14795
1.15188
1.15527
1.15701
1.15492
1.15463
1.15707
1.16059
1.16506
1.17715
1.19406
1.2035
1.20895
1.21328
1.21705
1.21815
1.21429
1.21362
1.21634
1.22025
1.22525
1.23917
1.25796
1.2682
1.27411
1.27881
1.28279
1.28208
1.2761
1.27554
1.2789
1.28352
1.29015
1.30851
1.32815
1.33814
1.3443
1.34943
1.35312
1.34805
1.34005
1.3406
1.34521
1.35122
1.36285
1.38807
1.40694
1.41644
1.42319
1.42918
1.43067
1.41871
1.41015
1.41268
1.4193
1.42802
1.45017
1.48095
1.49809
1.50768
1.51578
1.52283
1.51649
1.49707
1.49086
1.49721
1.50727
1.52419
1.56269
1.59758
1.61562
1.62754
1.63811
1.63655
1.61119
1.59471
1.5967
1.61001
1.62818
1.66567
1.7151
1.75155
1.77808
1.80143
1.80952
1.7916
1.77233
1.76808
1.7786
1.81189
1.84405
3.17741
11.1591
1.09676
1.10031
1.1041
1.1144
1.12991
1.1389
1.144
1.14794
1.15141
1.15371
1.15187
1.15098
1.15315
1.15654
1.16055
1.17048
1.18797
1.19869
1.20447
1.2088
1.21258
1.21434
1.21047
1.20878
1.21115
1.21504
1.21981
1.23174
1.25083
1.26226
1.2686
1.27343
1.27771
1.27876
1.27212
1.26935
1.2721
1.27678
1.28311
1.29941
1.32009
1.33136
1.33798
1.3434
1.34832
1.34728
1.33702
1.33327
1.33675
1.34255
1.35212
1.37553
1.398
1.40932
1.41654
1.42286
1.42778
1.4203
1.40686
1.40467
1.41
1.41756
1.43313
1.4655
1.48983
1.50153
1.50975
1.5174
1.51828
1.4993
1.48621
1.48802
1.49683
1.5082
1.53502
1.57863
1.60705
1.62204
1.63365
1.64158
1.62779
1.60176
1.59242
1.59812
1.61239
1.63495
1.67811
1.72286
1.75599
1.78195
1.80445
1.80478
1.78774
1.76893
1.76128
1.77495
1.79709
3.16714
11.173
1.09483
1.09818
1.102
1.11119
1.12633
1.13591
1.14138
1.1456
1.1493
1.15221
1.15068
1.14846
1.15013
1.15348
1.15772
1.16675
1.18376
1.19533
1.20154
1.20617
1.21021
1.2131
1.21
1.20591
1.20723
1.21089
1.2158
1.22692
1.24597
1.25845
1.26521
1.27038
1.27502
1.27813
1.27299
1.26673
1.2676
1.27172
1.27751
1.29184
1.31401
1.32736
1.33459
1.34037
1.34574
1.34825
1.3386
1.33096
1.33218
1.33732
1.34456
1.36365
1.39065
1.40562
1.41357
1.42011
1.4262
1.42499
1.40929
1.4023
1.40518
1.41186
1.42138
1.44749
1.48105
1.49863
1.50792
1.51573
1.52124
1.50972
1.48978
1.48458
1.49012
1.4996
1.51366
1.5504
1.59263
1.61639
1.63065
1.64266
1.64687
1.62329
1.5987
1.59485
1.60359
1.61921
1.64618
1.68968
1.72854
1.75826
1.78311
1.80161
1.79967
1.78393
1.76233
1.75033
1.74524
3.14439
11.1986
1.09364
1.09658
1.10023
1.10881
1.12421
1.13459
1.14041
1.14487
1.14875
1.15219
1.15179
1.14795
1.14838
1.15143
1.15545
1.16371
1.18083
1.19363
1.20039
1.20528
1.20952
1.21322
1.21203
1.20604
1.20554
1.20872
1.21311
1.22218
1.24172
1.2565
1.26407
1.26948
1.27425
1.27837
1.27585
1.26735
1.266
1.26937
1.2743
1.28448
1.30762
1.32545
1.3341
1.34004
1.34533
1.34931
1.3431
1.33205
1.33096
1.33522
1.34118
1.35306
1.38117
1.40313
1.41333
1.42012
1.4262
1.42911
1.41711
1.40418
1.40347
1.40876
1.41617
1.43044
1.46551
1.49438
1.50782
1.51642
1.52412
1.52379
1.50303
1.48708
1.48598
1.49322
1.50348
1.52352
1.56759
1.60602
1.62696
1.64043
1.65146
1.64879
1.62242
1.60263
1.60171
1.61134
1.62752
1.65809
1.70008
1.7344
1.76057
1.7828
1.79513
1.7918
1.77513
1.74937
1.71069
3.1074
11.2369
1.09396
1.09629
1.09958
1.10652
1.12244
1.1349
1.14125
1.14574
1.14963
1.15318
1.15392
1.14933
1.14852
1.15107
1.15477
1.16109
1.17767
1.19317
1.20101
1.20606
1.21034
1.21423
1.21501
1.2085
1.20614
1.20851
1.21258
1.21889
1.23658
1.25539
1.26476
1.27039
1.27513
1.27952
1.27996
1.2709
1.26686
1.26911
1.27368
1.28017
1.29939
1.32305
1.33483
1.34122
1.34646
1.35121
1.34975
1.33739
1.33223
1.33479
1.34007
1.34711
1.36801
1.39798
1.41363
1.42149
1.42765
1.43327
1.42875
1.41144
1.40439
1.4066
1.41308
1.42157
1.44528
1.48409
1.50725
1.5185
1.52676
1.53372
1.52386
1.49807
1.48756
1.49037
1.49909
1.50975
1.53471
1.58122
1.6154
1.6343
1.64794
1.65882
1.6542
1.62676
1.60835
1.60853
1.61897
1.63589
1.66878
1.70814
1.73852
1.76177
1.78069
1.78692
1.7812
1.75744
1.70647
3.05378
11.2805
1.09539
1.09704
1.10015
1.10547
1.12047
1.13577
1.14326
1.1478
1.15162
1.15511
1.15672
1.15236
1.15
1.15189
1.15538
1.16022
1.17415
1.19269
1.20243
1.20785
1.21216
1.2161
1.21841
1.21299
1.20824
1.20962
1.21328
1.21808
1.2309
1.253
1.2658
1.27221
1.27704
1.28149
1.28415
1.2771
1.2697
1.27031
1.27403
1.27913
1.29088
1.31701
1.33475
1.34282
1.34845
1.35365
1.3566
1.34672
1.33599
1.33528
1.33918
1.34498
1.35646
1.38706
1.41237
1.42325
1.43004
1.43615
1.4387
1.42406
1.40794
1.40587
1.41105
1.41846
1.42981
1.46328
1.50008
1.51796
1.52731
1.53517
1.54033
1.52429
1.49978
1.49245
1.49521
1.50324
1.51509
1.54654
1.59375
1.62565
1.64402
1.65764
1.6656
1.65706
1.63138
1.61434
1.61448
1.62473
1.64268
1.67831
1.7162
1.74305
1.76207
1.77435
1.77747
1.76525
1.7204
3.00839
11.3245
1.09768
1.09869
1.10166
1.10596
1.1186
1.13617
1.14542
1.15037
1.15419
1.15762
1.16
1.15663
1.1526
1.15378
1.15696
1.16099
1.17094
1.19092
1.20371
1.20996
1.21445
1.21847
1.22184
1.21888
1.21199
1.21178
1.21476
1.21885
1.22646
1.24758
1.26591
1.27418
1.27943
1.28401
1.28801
1.28514
1.27498
1.27233
1.27481
1.27931
1.2861
1.30726
1.3328
1.34476
1.35118
1.35643
1.36119
1.35764
1.34248
1.33665
1.33897
1.34426
1.35121
1.37167
1.40557
1.42433
1.43282
1.43906
1.44482
1.44067
1.41991
1.40943
1.41045
1.41611
1.42342
1.43914
1.47945
1.51251
1.52795
1.53766
1.54639
1.54842
1.5241
1.50014
1.49526
1.50063
1.51014
1.52305
1.55732
1.60289
1.63193
1.64933
1.66301
1.67046
1.66174
1.63603
1.61868
1.61838
1.62817
1.64786
1.68588
1.72175
1.74515
1.75987
1.7668
1.7656
1.73989
2.98246
11.3632
1.10071
1.10114
1.10404
1.10785
1.11724
1.13554
1.14705
1.15275
1.15679
1.16031
1.16334
1.16186
1.15652
1.15644
1.15924
1.16289
1.16901
1.18706
1.20416
1.21206
1.21697
1.22118
1.22507
1.22529
1.21761
1.21448
1.21644
1.22009
1.225
1.24019
1.2637
1.27588
1.28204
1.2868
1.29122
1.29267
1.28264
1.27506
1.27591
1.27978
1.28503
1.29752
1.32608
1.34546
1.35368
1.35915
1.36403
1.36613
1.35376
1.34103
1.34024
1.34445
1.35032
1.35967
1.3892
1.42013
1.43353
1.44071
1.44708
1.45212
1.44115
1.41941
1.41192
1.41348
1.41951
1.42776
1.45079
1.49589
1.5255
1.53846
1.54659
1.55353
1.55258
1.52729
1.50626
1.50263
1.50693
1.51539
1.5299
1.56735
1.61103
1.63829
1.65518
1.66849
1.67366
1.66408
1.63895
1.62118
1.62009
1.62908
1.6507
1.69113
1.72505
1.74402
1.75368
1.75664
1.75298
2.98426
11.3969
1.10459
1.1043
1.10701
1.11053
1.11668
1.13332
1.14789
1.15478
1.15926
1.16308
1.1666
1.16759
1.16204
1.1597
1.16165
1.16492
1.16908
1.18189
1.2028
1.21396
1.21968
1.22409
1.22812
1.23078
1.22489
1.21792
1.21817
1.22129
1.22559
1.23457
1.25813
1.27657
1.28448
1.28957
1.29401
1.29766
1.29235
1.28028
1.2779
1.28099
1.28565
1.29217
1.31357
1.34183
1.35489
1.36136
1.36654
1.37152
1.36838
1.35153
1.34374
1.34468
1.34904
1.35517
1.37004
1.40595
1.43212
1.44345
1.45078
1.45735
1.45928
1.43974
1.41902
1.41488
1.41877
1.42554
1.43381
1.46088
1.5064
1.53244
1.54491
1.55476
1.56327
1.5595
1.53067
1.50949
1.50647
1.51248
1.5221
1.53807
1.57664
1.6173
1.64218
1.65831
1.67113
1.67603
1.66602
1.63983
1.62143
1.61952
1.62755
1.65076
1.6925
1.72342
1.73858
1.7432
1.75624
3.01181
11.4289
1.10926
1.10801
1.11014
1.11327
1.11718
1.1295
1.14749
1.15679
1.16191
1.16603
1.16978
1.17263
1.16887
1.16346
1.16388
1.16672
1.17049
1.1782
1.19888
1.21524
1.22244
1.22705
1.2311
1.23474
1.23269
1.22306
1.22049
1.22305
1.227
1.2323
1.24936
1.27423
1.2864
1.2923
1.29684
1.30113
1.30185
1.29009
1.282
1.28265
1.28606
1.29097
1.30141
1.33082
1.35437
1.36392
1.36984
1.37502
1.37852
1.36751
1.34991
1.34538
1.34807
1.3537
1.36075
1.38293
1.42144
1.44285
1.45175
1.45783
1.46432
1.46453
1.44197
1.42375
1.4203
1.42242
1.42847
1.43846
1.47175
1.51845
1.54377
1.55526
1.56336
1.56945
1.56336
1.53618
1.51676
1.5138
1.51882
1.52784
1.54579
1.58591
1.62352
1.64606
1.661
1.67313
1.67767
1.66743
1.63951
1.61947
1.61648
1.62362
1.64863
1.6907
1.71855
1.72867
1.74783
3.05989
11.4637
1.11466
1.11175
1.11259
1.11521
1.11859
1.12625
1.14515
1.15858
1.16481
1.16913
1.17295
1.17647
1.17576
1.16824
1.16629
1.16864
1.17224
1.17707
1.19248
1.21422
1.22461
1.22988
1.23403
1.23791
1.23957
1.23109
1.22431
1.22517
1.2284
1.23261
1.24134
1.26625
1.28644
1.29468
1.29984
1.30444
1.30849
1.30308
1.28875
1.28433
1.28634
1.29065
1.29647
1.31457
1.34714
1.36525
1.37318
1.3787
1.38368
1.38378
1.36587
1.35123
1.3497
1.35289
1.35839
1.36641
1.39513
1.43294
1.45151
1.46088
1.46815
1.47464
1.46967
1.44255
1.42493
1.42341
1.42841
1.43541
1.44499
1.47889
1.52457
1.54803
1.55973
1.56929
1.57737
1.57123
1.54254
1.52206
1.51862
1.52414
1.5337
1.55376
1.59419
1.62884
1.64983
1.66452
1.6762
1.68067
1.66779
1.63708
1.61568
1.61189
1.6181
1.64491
1.686
1.7084
1.73268
3.11926
11.502
1.12004
1.11553
1.11456
1.1169
1.12019
1.12505
1.1408
1.15929
1.16773
1.1723
1.17612
1.17969
1.18144
1.17472
1.16958
1.17085
1.17402
1.17785
1.18626
1.20883
1.22563
1.23263
1.23707
1.24105
1.24456
1.2411
1.23043
1.22744
1.2294
1.23315
1.23821
1.25432
1.28216
1.29664
1.30303
1.30767
1.31203
1.31357
1.30039
1.28827
1.28772
1.29126
1.29616
1.30356
1.3295
1.36031
1.37376
1.38046
1.38606
1.39151
1.3881
1.36655
1.35395
1.35293
1.35615
1.36189
1.37295
1.40909
1.44596
1.46191
1.46932
1.47469
1.48115
1.47526
1.4481
1.43245
1.4302
1.43237
1.43834
1.44967
1.48745
1.53353
1.5576
1.569
1.57745
1.58274
1.57548
1.54916
1.52863
1.52412
1.52861
1.53765
1.56042
1.60284
1.63593
1.65499
1.66775
1.6779
1.68171
1.66753
1.63457
1.61077
1.60564
1.61079
1.64005
1.67609
1.70863
3.18109
11.5399
1.125
1.12051
1.11701
1.11881
1.12188
1.12562
1.13578
1.15716
1.16985
1.17543
1.17937
1.18295
1.18594
1.18261
1.17447
1.17328
1.17566
1.17917
1.18392
1.19991
1.22366
1.2348
1.24013
1.24421
1.24805
1.24967
1.23981
1.23087
1.23107
1.23434
1.23855
1.24574
1.2702
1.29518
1.30527
1.31047
1.31489
1.31925
1.31576
1.29909
1.29156
1.2923
1.29544
1.30048
1.31144
1.34415
1.37168
1.3832
1.38995
1.39578
1.40017
1.39002
1.36615
1.35611
1.35735
1.36213
1.36793
1.37968
1.41797
1.45264
1.46778
1.47726
1.48493
1.4908
1.48059
1.45062
1.4341
1.43324
1.43879
1.44624
1.45701
1.49317
1.5377
1.56071
1.57241
1.58188
1.58897
1.58304
1.55516
1.53269
1.5274
1.53199
1.54182
1.567
1.60905
1.63973
1.65752
1.67048
1.68012
1.68276
1.66682
1.63151
1.60465
1.59722
1.60224
1.63078
1.67411
3.23012
11.5707
1.12931
1.12688
1.12049
1.12111
1.12387
1.12734
1.13289
1.15117
1.17047
1.17853
1.1828
1.18629
1.18957
1.19009
1.18162
1.17634
1.17757
1.18077
1.18464
1.19245
1.21581
1.23518
1.24293
1.24742
1.25132
1.25494
1.25188
1.23889
1.23427
1.23605
1.23937
1.2438
1.25555
1.28551
1.30567
1.31371
1.31883
1.32329
1.32664
1.31645
1.29869
1.29349
1.2955
1.29989
1.3055
1.32193
1.35871
1.38214
1.39128
1.39654
1.40181
1.40641
1.39372
1.37033
1.36216
1.3622
1.36541
1.37112
1.38644
1.42959
1.46434
1.47831
1.48519
1.49035
1.49588
1.48677
1.45864
1.4435
1.44164
1.44387
1.44957
1.46145
1.50033
1.54462
1.56748
1.57892
1.5877
1.5929
1.58715
1.56124
1.53789
1.53133
1.53428
1.54278
1.56954
1.61352
1.64439
1.66157
1.67311
1.68098
1.68196
1.66529
1.6286
1.59761
1.58689
1.58934
1.63023
3.25396
11.5987
1.13284
1.13402
1.12585
1.12402
1.12627
1.12961
1.13344
1.14402
1.1668
1.18018
1.18576
1.18949
1.19293
1.19583
1.19147
1.18186
1.18026
1.18275
1.18619
1.19035
1.20399
1.23043
1.24453
1.25057
1.25479
1.25879
1.26154
1.25245
1.24002
1.23786
1.24003
1.24382
1.2493
1.26837
1.29978
1.31581
1.32291
1.32783
1.3322
1.33268
1.31571
1.30005
1.29796
1.30084
1.30529
1.311
1.33146
1.36904
1.38976
1.39898
1.40564
1.41162
1.41401
1.39599
1.37172
1.36437
1.367
1.3726
1.37844
1.39269
1.43456
1.46756
1.4818
1.49142
1.4994
1.50491
1.49412
1.46438
1.44653
1.44426
1.44932
1.45677
1.46882
1.50611
1.54786
1.56965
1.58164
1.59143
1.5983
1.59345
1.5655
1.53968
1.53172
1.53464
1.54393
1.57171
1.61586
1.64637
1.66311
1.67393
1.68031
1.67981
1.66297
1.62533
1.59174
1.57139
1.57998
3.23726
11.63
1.13588
1.14024
1.13406
1.12845
1.12923
1.13212
1.13545
1.14026
1.15767
1.17902
1.1881
1.19274
1.19648
1.20005
1.20108
1.19156
1.18439
1.18473
1.18733
1.19098
1.19698
1.21865
1.24328
1.25336
1.25841
1.26243
1.26633
1.26574
1.25072
1.24108
1.24164
1.24513
1.24948
1.25645
1.28214
1.31154
1.32373
1.32979
1.33466
1.33959
1.33811
1.31789
1.30412
1.30258
1.30475
1.30913
1.31604
1.34227
1.38084
1.39982
1.40756
1.41204
1.41757
1.42055
1.40188
1.37899
1.37261
1.37268
1.37546
1.38118
1.3981
1.44316
1.478
1.49201
1.49902
1.50459
1.5102
1.50202
1.47367
1.45567
1.45237
1.45436
1.45972
1.47261
1.51295
1.55494
1.57581
1.58648
1.59512
1.60149
1.59847
1.57138
1.5438
1.53444
1.53559
1.54306
1.5706
1.61586
1.64709
1.66359
1.6732
1.678
1.67638
1.6594
1.62179
1.57851
1.54952
3.18144
11.6662
1.1388
1.14467
1.14388
1.13577
1.13285
1.13441
1.13713
1.14053
1.14908
1.17258
1.18926
1.19594
1.20001
1.20356
1.20685
1.20369
1.19138
1.18715
1.18914
1.19264
1.1966
1.2063
1.23384
1.2538
1.26141
1.26564
1.26949
1.27307
1.26696
1.25064
1.24542
1.247
1.24997
1.25429
1.2638
1.29469
1.32127
1.3322
1.33854
1.34399
1.34842
1.34189
1.31853
1.30627
1.30652
1.31065
1.31549
1.32216
1.34969
1.38722
1.40498
1.4141
1.42127
1.42729
1.42809
1.40664
1.38206
1.37451
1.3769
1.38239
1.38837
1.4031
1.44574
1.47976
1.49455
1.50442
1.51255
1.51826
1.51005
1.4806
1.45915
1.45416
1.45816
1.46547
1.47975
1.51932
1.55769
1.57732
1.58999
1.601
1.60785
1.6039
1.57463
1.5447
1.53353
1.53439
1.54135
1.56797
1.61404
1.64638
1.66278
1.67126
1.67443
1.67129
1.65459
1.60958
1.55205
3.09745
11.7098
1.14175
1.14833
1.15093
1.14597
1.13737
1.13647
1.13891
1.14228
1.14674
1.16197
1.1864
1.19798
1.20316
1.20682
1.21036
1.21271
1.20383
1.1927
1.19181
1.19453
1.19799
1.20224
1.2175
1.2473
1.2628
1.26929
1.27348
1.27742
1.27968
1.2677
1.25194
1.24846
1.25058
1.25429
1.2591
1.27275
1.30726
1.33104
1.34018
1.34519
1.34954
1.35426
1.34664
1.3233
1.31299
1.31254
1.31446
1.31894
1.32714
1.35882
1.3978
1.4154
1.42269
1.42704
1.43266
1.4351
1.41486
1.39069
1.3832
1.38289
1.3851
1.3906
1.40697
1.45274
1.4894
1.50417
1.51135
1.51695
1.52246
1.51744
1.48967
1.46731
1.46149
1.46308
1.46834
1.48236
1.52455
1.5659
1.5861
1.59589
1.60367
1.61005
1.60757
1.57931
1.54722
1.53371
1.53292
1.5388
1.56444
1.61169
1.64531
1.66089
1.66739
1.6686
1.66543
1.64292
1.58957
3.02497
11.7618
1.14463
1.15177
1.15479
1.15519
1.14525
1.13984
1.1413
1.14442
1.14785
1.1542
1.17608
1.19724
1.20548
1.21002
1.21378
1.21747
1.21708
1.20389
1.19589
1.19636
1.19912
1.20282
1.20858
1.23057
1.2593
1.27188
1.27784
1.28181
1.28567
1.2851
1.26762
1.25394
1.25287
1.25606
1.26001
1.26481
1.28076
1.31653
1.3381
1.34701
1.3532
1.35871
1.3624
1.35053
1.32566
1.31513
1.31627
1.32073
1.32573
1.33315
1.36379
1.40152
1.41893
1.42848
1.43597
1.442
1.44294
1.42185
1.39518
1.38494
1.38625
1.39168
1.39818
1.41259
1.45515
1.49022
1.5053
1.51502
1.52334
1.52945
1.52504
1.4977
1.47216
1.46346
1.4655
1.47198
1.48712
1.52855
1.56722
1.58603
1.59781
1.60814
1.61525
1.61263
1.58336
1.54916
1.53346
1.53131
1.5358
1.55997
1.60773
1.64178
1.65637
1.661
1.66236
1.65522
1.63516
2.9956
11.815
1.14678
1.155
1.15806
1.16099
1.15626
1.14601
1.14429
1.14637
1.1494
1.15313
1.16384
1.1903
1.20693
1.21343
1.21738
1.22099
1.22426
1.21892
1.20384
1.19903
1.20105
1.20468
1.20856
1.21602
1.24317
1.26922
1.27941
1.28498
1.28912
1.29331
1.29052
1.27086
1.25933
1.25861
1.26053
1.26431
1.26973
1.28977
1.32694
1.34741
1.35538
1.35967
1.36412
1.36856
1.35714
1.33273
1.32327
1.32272
1.3243
1.32865
1.33724
1.37078
1.41121
1.42944
1.43676
1.44095
1.44635
1.44977
1.43172
1.40471
1.39437
1.39362
1.39528
1.40023
1.41527
1.46015
1.49829
1.51393
1.52131
1.52727
1.53362
1.53285
1.50722
1.47917
1.46892
1.4689
1.47323
1.48628
1.52922
1.57318
1.59518
1.60499
1.61225
1.61774
1.61604
1.58936
1.55218
1.53234
1.52831
1.53141
1.55379
1.60251
1.63724
1.65047
1.65486
1.65102
1.66203
3.01557
11.861
1.14839
1.15854
1.16159
1.16475
1.16566
1.15569
1.14795
1.1484
1.15131
1.15478
1.15945
1.17622
1.20298
1.21539
1.22073
1.2243
1.22785
1.23007
1.21916
1.20584
1.20419
1.20654
1.20957
1.21347
1.22373
1.25444
1.27798
1.28746
1.29323
1.29813
1.30212
1.29509
1.27277
1.26186
1.26255
1.26627
1.27033
1.27547
1.2964
1.3333
1.3526
1.36123
1.36787
1.37339
1.37669
1.36284
1.33675
1.3254
1.32607
1.3306
1.33588
1.34326
1.37389
1.41293
1.43133
1.4411
1.44889
1.45495
1.45729
1.44044
1.41173
1.39701
1.39582
1.40052
1.40706
1.42106
1.46253
1.49845
1.51471
1.52537
1.53427
1.54037
1.53886
1.5139
1.48367
1.47026
1.47002
1.4756
1.48908
1.52975
1.57279
1.59453
1.60589
1.61513
1.62165
1.62062
1.59358
1.5531
1.52972
1.52389
1.52633
1.54774
1.59673
1.63084
1.64414
1.6424
1.66992
3.06915
11.9037
1.14835
1.16198
1.16494
1.16805
1.17107
1.16786
1.15547
1.15158
1.15354
1.1568
1.16024
1.16606
1.18846
1.21361
1.22362
1.22834
1.23186
1.23542
1.23479
1.21929
1.20841
1.20769
1.21037
1.21403
1.21851
1.23223
1.2651
1.28651
1.29475
1.29954
1.30362
1.3079
1.30039
1.27831
1.26891
1.26863
1.27029
1.27413
1.28016
1.30435
1.34279
1.36227
1.36975
1.3738
1.37834
1.38288
1.37124
1.34542
1.33443
1.33344
1.33443
1.33828
1.34616
1.37859
1.42128
1.44135
1.44907
1.45334
1.4586
1.46343
1.45124
1.42197
1.40613
1.40355
1.40484
1.40919
1.42265
1.46623
1.50647
1.52349
1.53108
1.53678
1.54326
1.54576
1.5237
1.49086
1.47565
1.47348
1.4762
1.48598
1.52539
1.57406
1.60012
1.61095
1.61745
1.62208
1.6217
1.59786
1.55535
1.52756
1.51951
1.52061
1.54149
1.59002
1.62324
1.63105
1.66485
3.14178
11.9456
1.14388
1.16416
1.16854
1.17184
1.17502
1.17717
1.16853
1.1575
1.1563
1.15851
1.16161
1.16537
1.17384
1.2009
1.22349
1.2321
1.23626
1.23951
1.24289
1.23799
1.21974
1.21145
1.21251
1.21592
1.21951
1.22391
1.23966
1.27371
1.29347
1.30156
1.3072
1.31239
1.31583
1.30487
1.28105
1.27113
1.27229
1.27632
1.28073
1.28616
1.30947
1.34701
1.36587
1.37474
1.38174
1.38732
1.39085
1.3787
1.35164
1.33708
1.33596
1.33993
1.34545
1.35248
1.38088
1.42158
1.4418
1.45202
1.46022
1.46652
1.47048
1.46
1.43055
1.41001
1.40527
1.40881
1.41505
1.42838
1.46868
1.50591
1.52314
1.53471
1.5441
1.55047
1.55178
1.52996
1.49495
1.47592
1.47271
1.47678
1.48725
1.52407
1.57199
1.59791
1.60922
1.61713
1.62353
1.62471
1.60215
1.55661
1.52397
1.51396
1.51463
1.53514
1.58262
1.60803
1.64881
3.21903
11.9826
1.13435
1.16351
1.17179
1.17578
1.17887
1.18207
1.1819
1.16908
1.16037
1.1607
1.16374
1.16728
1.17113
1.18179
1.2115
1.23165
1.23952
1.24408
1.24763
1.25049
1.24186
1.22359
1.21735
1.21811
1.22035
1.2241
1.22925
1.24846
1.28325
1.302
1.30938
1.31339
1.31721
1.32125
1.31137
1.28841
1.27941
1.27913
1.28047
1.2841
1.29024
1.31571
1.35537
1.37559
1.38324
1.38721
1.39168
1.39671
1.38864
1.36199
1.34687
1.34434
1.34467
1.34745
1.35418
1.38315
1.42804
1.45138
1.46016
1.46483
1.47011
1.47579
1.47024
1.4413
1.41883
1.41288
1.41344
1.41714
1.42838
1.46993
1.5134
1.53309
1.54132
1.54666
1.55289
1.55731
1.53981
1.50297
1.48166
1.47677
1.47817
1.4845
1.51778
1.56936
1.59986
1.61247
1.61899
1.62377
1.62463
1.60487
1.55832
1.52074
1.50804
1.50755
1.5288
1.56815
1.6198
3.28956
12.0126
1.12524
1.15274
1.17193
1.17909
1.18279
1.18604
1.1894
1.18599
1.171
1.16508
1.16641
1.16903
1.17189
1.17578
1.1898
1.22127
1.23991
1.24761
1.25253
1.25646
1.25878
1.24623
1.22636
1.22042
1.22267
1.22656
1.23034
1.23511
1.25505
1.28958
1.30719
1.31486
1.32078
1.32591
1.3292
1.3176
1.29313
1.28192
1.28232
1.28629
1.29094
1.29628
1.31881
1.35717
1.37744
1.38715
1.39475
1.40048
1.40477
1.39756
1.37083
1.3509
1.34579
1.34857
1.35376
1.36057
1.38565
1.42774
1.45121
1.46229
1.47121
1.47783
1.48269
1.47805
1.45049
1.42395
1.41453
1.41611
1.42169
1.43304
1.4708
1.51164
1.53137
1.54341
1.55368
1.56053
1.56382
1.54618
1.5078
1.48237
1.4751
1.47724
1.48452
1.51527
1.566
1.59727
1.61054
1.6183
1.62347
1.62417
1.60618
1.55995
1.51796
1.50076
1.49999
1.51625
1.57936
3.33672
12.0374
1.12331
1.1351
1.16353
1.18061
1.1873
1.19114
1.19448
1.19719
1.18872
1.17298
1.16835
1.16973
1.17276
1.17647
1.18133
1.1985
1.23023
1.24729
1.2541
1.25865
1.2625
1.26501
1.25237
1.23339
1.22822
1.22893
1.23089
1.23457
1.24022
1.2624
1.29781
1.31584
1.32287
1.32666
1.33074
1.33515
1.32643
1.30244
1.29117
1.28994
1.29045
1.29338
1.29902
1.32238
1.36402
1.38738
1.39604
1.40036
1.40458
1.40995
1.40755
1.38255
1.36056
1.35452
1.35447
1.35643
1.36208
1.38606
1.43247
1.46051
1.47096
1.47608
1.48107
1.48706
1.48696
1.46179
1.43295
1.42201
1.4207
1.42306
1.43109
1.46739
1.51626
1.5417
1.55135
1.55683
1.56242
1.56754
1.5554
1.51678
1.48786
1.47868
1.47847
1.4827
1.50881
1.56134
1.5961
1.61074
1.61771
1.62161
1.62154
1.60588
1.56194
1.51668
1.49393
1.48298
1.52961
3.33966
12.0601
1.12435
1.12943
1.14554
1.17515
1.19012
1.19595
1.19932
1.20235
1.20339
1.18988
1.17475
1.17235
1.17501
1.17859
1.18206
1.18662
1.20568
1.2379
1.2541
1.26104
1.26613
1.27077
1.27261
1.25783
1.2372
1.23095
1.23304
1.23686
1.24066
1.24554
1.2666
1.30163
1.31954
1.32789
1.3345
1.33967
1.34344
1.33462
1.30937
1.29391
1.29191
1.29516
1.29996
1.30521
1.32478
1.3645
1.38818
1.39884
1.40688
1.41289
1.41758
1.41587
1.39293
1.36698
1.35655
1.35735
1.36216
1.36864
1.38908
1.43174
1.45938
1.47194
1.48176
1.48895
1.49444
1.49435
1.47099
1.4388
1.42315
1.42174
1.42621
1.43462
1.46644
1.5131
1.53836
1.55109
1.56201
1.56962
1.57391
1.56154
1.52221
1.48953
1.47722
1.47683
1.48163
1.50546
1.55586
1.59178
1.60767
1.61524
1.61887
1.61815
1.60407
1.56311
1.51686
1.48085
1.48319
3.29616
12.0886
1.12694
1.13089
1.13643
1.15698
1.18524
1.19783
1.2034
1.20692
1.20999
1.20876
1.19231
1.1797
1.17838
1.18009
1.18288
1.18674
1.19253
1.21418
1.24596
1.26146
1.26787
1.27172
1.27555
1.2784
1.26551
1.24543
1.23919
1.2392
1.24048
1.24394
1.24948
1.27203
1.30932
1.32901
1.33648
1.34035
1.3442
1.34897
1.34414
1.31949
1.30306
1.29987
1.30021
1.3024
1.30736
1.32661
1.36962
1.39756
1.40782
1.41246
1.41616
1.42158
1.42404
1.40539
1.37747
1.36582
1.3644
1.36552
1.36995
1.38775
1.43369
1.46808
1.48144
1.48756
1.49232
1.49842
1.50175
1.48234
1.44803
1.43053
1.42681
1.42745
1.43254
1.45964
1.51279
1.54725
1.56002
1.56622
1.57089
1.5755
1.56842
1.53203
1.49538
1.47998
1.47752
1.47963
1.49828
1.54858
1.5882
1.60591
1.61289
1.61511
1.61325
1.60007
1.5639
1.50736
1.47062
3.20874
12.1267
1.13099
1.13433
1.13773
1.14391
1.16606
1.19296
1.20482
1.21069
1.21464
1.2179
1.21525
1.19605
1.18296
1.18223
1.18546
1.18941
1.19304
1.1981
1.22012
1.25191
1.26689
1.27375
1.27932
1.28407
1.28631
1.27223
1.24976
1.24122
1.24246
1.24624
1.25045
1.25523
1.27523
1.31175
1.33159
1.34054
1.3474
1.35259
1.35678
1.35254
1.32831
1.30754
1.30178
1.30411
1.30885
1.31433
1.32986
1.36905
1.39685
1.40879
1.41742
1.42409
1.4292
1.43146
1.41585
1.38598
1.36876
1.36611
1.36995
1.37585
1.39121
1.43271
1.46629
1.48152
1.49225
1.50055
1.5063
1.50849
1.49047
1.45422
1.43165
1.42644
1.42957
1.43619
1.45944
1.50895
1.54273
1.55739
1.56792
1.57608
1.58052
1.57356
1.53744
1.49764
1.47827
1.47426
1.47645
1.49278
1.54189
1.58393
1.60263
1.60889
1.61007
1.6069
1.59599
1.55507
1.49671
3.10968
12.1788
1.13578
1.13735
1.14021
1.14347
1.14934
1.17248
1.19934
1.21098
1.21631
1.22028
1.2237
1.22123
1.20323
1.19127
1.19011
1.19139
1.19374
1.19746
1.20357
1.22717
1.2597
1.27515
1.2814
1.2849
1.28857
1.29204
1.28088
1.25862
1.24995
1.24957
1.25056
1.25357
1.25861
1.27907
1.3181
1.34065
1.34892
1.35278
1.35627
1.36133
1.36152
1.34045
1.3182
1.31149
1.3111
1.31198
1.31593
1.32976
1.37071
1.40473
1.4182
1.42396
1.42773
1.43313
1.43782
1.42733
1.39673
1.37776
1.3736
1.37396
1.37727
1.38934
1.43173
1.47361
1.49174
1.49896
1.50293
1.50836
1.51316
1.50129
1.46526
1.44046
1.43348
1.4329
1.4358
1.45219
1.50266
1.54685
1.56517
1.57203
1.57617
1.57983
1.57721
1.54681
1.50357
1.47967
1.47312
1.47343
1.48648
1.53475
1.57938
1.59873
1.60396
1.60358
1.60144
1.58541
1.5534
3.04772
12.2368
1.14284
1.14065
1.14279
1.14502
1.14785
1.15384
1.17824
1.20545
1.21724
1.22302
1.22728
1.23093
1.22853
1.20966
1.19519
1.19322
1.19617
1.19993
1.20341
1.20864
1.23162
1.2642
1.2793
1.28639
1.29213
1.29692
1.29995
1.28908
1.26505
1.25282
1.25241
1.25584
1.26036
1.26485
1.28138
1.31835
1.34124
1.35121
1.35881
1.36463
1.36932
1.36994
1.3516
1.3257
1.31358
1.31315
1.31697
1.32213
1.33368
1.36998
1.40354
1.41847
1.42783
1.43544
1.44085
1.44463
1.43631
1.40625
1.38226
1.37505
1.37749
1.38282
1.39355
1.42982
1.46986
1.48896
1.50008
1.50984
1.51626
1.52043
1.51015
1.47443
1.44414
1.43283
1.43308
1.43778
1.45194
1.49734
1.54087
1.5603
1.57094
1.57951
1.58374
1.5813
1.55197
1.50628
1.47832
1.46956
1.46936
1.48001
1.52757
1.57432
1.59398
1.59777
1.59804
1.58965
1.59816
3.04605
12.2891
1.15519
1.14479
1.14426
1.14561
1.14864
1.15228
1.15896
1.18389
1.21132
1.22343
1.22924
1.23362
1.23749
1.23644
1.21825
1.20354
1.201
1.20165
1.20365
1.20735
1.21335
1.23737
1.27127
1.28762
1.29405
1.29742
1.30122
1.30553
1.29918
1.27592
1.26282
1.26084
1.26089
1.26257
1.2669
1.28282
1.32219
1.34995
1.36049
1.36535
1.36884
1.37384
1.37747
1.36398
1.3364
1.32273
1.32068
1.32141
1.32448
1.33367
1.36936
1.40971
1.42815
1.43527
1.43895
1.444
1.44951
1.44674
1.41901
1.39281
1.38399
1.38237
1.38368
1.39039
1.42323
1.47188
1.4986
1.50876
1.51388
1.51902
1.52443
1.52041
1.4872
1.45299
1.43924
1.43643
1.43765
1.44625
1.48872
1.54191
1.56756
1.5755
1.57931
1.58162
1.58134
1.55844
1.51109
1.4778
1.46598
1.46463
1.4737
1.52081
1.56853
1.58736
1.59192
1.58439
1.61866
3.08881
12.3332
1.17201
1.15231
1.1462
1.14793
1.1508
1.15324
1.15617
1.16273
1.18945
1.21823
1.23056
1.23665
1.24168
1.24574
1.2442
1.22455
1.207
1.20348
1.206
1.20988
1.21366
1.21845
1.23982
1.27338
1.29017
1.29821
1.30481
1.3098
1.31376
1.30847
1.285
1.26682
1.26222
1.26436
1.26839
1.27296
1.28551
1.32165
1.34999
1.36225
1.37056
1.37692
1.38175
1.38463
1.374
1.34608
1.32708
1.32274
1.32568
1.33074
1.33903
1.36839
1.40682
1.42641
1.43705
1.44648
1.45272
1.45751