/*--------------------------------*- C++ -*----------------------------------*\
  =========                 |
  \\      /  F ield         | OpenFOAM: The Open Source CFD Toolbox
   \\    /   O peration     | Website:  https://openfoam.org
    \\  /    A nd           | Version:  12
     \\/     M anipulation  |
\*---------------------------------------------------------------------------*/
FoamFile
{
    format      ascii;
    class       volScalarField;
    location    "6.625";
    object      p;
}
// * * * * * * * * * * * * * * * * * * * * * * * * * * * * * * * * * * * * * //

dimensions      [1 -1 -2 0 0 0 0];

internalField   nonuniform List<scalar> 
46253
(
0.939409
1.05276
1.1945
1.03996
1.19501
1.1905
0.894379
0.983354
1.05156
1.06535
0.93982
0.788182
1.02968
1.02878
0.836882
1.06389
1.06568
1.04774
1.04516
1.03354
1.03149
1.17339
0.491424
0.927303
0.903242
1.03898
1.05105
1.03901
1.03735
0.987689
0.970922
1.0226
1.02185
1.03657
1.04453
1.16671
1.03094
1.02987
0.785111
0.673776
0.893416
0.766402
1.02485
1.02541
0.688252
1.04009
1.0362
0.606434
1.01541
1.0159
1.01368
1.01279
1.17279
0.736876
1.19553
0.770074
1.00711
1.00776
1.08063
0.898052
1.18202
0.883151
1.13565
0.681729
0.842931
1.0284
1.02749
1.16461
0.784203
0.665314
0.890367
1.00505
1.00414
1.00479
1.15612
0.925914
0.986223
0.984509
0.447329
1.01946
1.01802
0.996837
1.17402
0.996294
0.880746
1.16025
0.970056
0.969378
0.992844
1.13059
0.558258
0.879828
1.16124
1.01038
0.716859
1.00958
1.15945
0.63728
1.08173
1.17105
0.624456
1.15273
1.15008
0.980674
1.19024
0.889536
0.732508
0.944305
0.94344
0.751258
0.761937
1.00104
0.999398
0.633444
0.479201
0.915919
0.757178
0.899242
1.21338
0.815699
0.525735
1.18531
0.995662
0.99659
1.15251
1.22145
1.17479
0.723754
1.2266
0.9833
0.929515
0.92701
1.18242
0.905306
0.983169
0.832762
0.976543
0.973663
0.819059
0.89884
0.989872
0.916256
0.915015
0.977887
0.99186
1.21258
0.969536
0.971788
0.767866
1.13311
0.750624
1.17064
0.981507
0.980294
0.918643
0.652367
0.724593
1.11826
0.956436
1.18861
0.955114
0.702883
0.762351
0.884911
0.898325
0.970433
0.905669
0.969347
1.31753
1.17102
0.955017
0.955052
1.16458
0.90769
1.18951
0.683935
1.02623
1.15266
1.006
0.759242
1.19144
0.917973
0.947554
0.946592
1.11566
0.964432
0.960143
0.723105
1.12314
1.12667
1.16341
1.11855
0.883916
1.12111
1.12165
1.12299
0.760165
1.14139
0.859596
0.857028
0.53961
1.17565
0.954268
0.956056
1.16111
0.666724
0.924987
0.933471
0.932208
1.17385
0.491901
1.21307
0.906444
1.15564
1.04886
1.14491
0.961703
0.870624
0.932295
1.16455
1.16916
0.932247
0.67944
0.95211
0.950743
0.871636
1.14435
1.1453
0.841064
0.839639
1.02457
0.676561
1.15884
1.16496
1.1542
0.60712
1.12835
0.532714
1.02358
1.04878
1.15271
1.14476
1.14412
1.12998
0.863056
1.15062
1.18539
0.941291
1.14243
0.918983
0.918315
1.0464
0.824348
1.14258
0.823415
0.939888
0.936756
0.812419
0.896399
1.13821
0.90688
0.886356
0.815829
0.984288
0.892942
1.05859
0.515654
0.498456
0.931048
0.909003
0.933044
1.14625
1.30493
5.54091
0.909138
1.14866
1.20697
1.1778
0.717622
0.834726
0.808477
0.807529
1.14994
1.15577
0.482862
0.899869
0.896111
0.809902
0.944494
1.18355
1.07298
1.06623
0.851549
0.676465
1.05422
0.995856
1.1439
0.992606
0.894388
0.903542
1.19868
0.901719
0.747123
1.20539
1.12686
0.922774
0.9213
1.16519
0.982513
1.12395
1.12407
0.963645
0.722546
0.895477
1.13774
0.895513
0.817494
1.04933
1.20051
0.704901
0.77047
1.13956
0.900011
0.902935
0.744574
0.954495
1.14592
1.1467
0.889666
0.887783
0.774984
0.772541
1.12678
0.804859
1.14469
0.8819
0.809296
0.912322
0.910873
1.07014
1.17372
1.16696
0.429271
1.20075
1.13823
0.881738
0.881523
0.718123
0.81355
1.14838
0.761362
1.15519
0.705256
0.882763
0.702268
1.13787
0.907114
1.1518
0.906502
1.12838
0.720806
1.13291
1.14252
1.13355
1.12985
1.14145
1.13983
1.13992
0.876358
1.13914
1.13701
1.13839
1.13752
0.875397
1.13886
1.04644
0.819366
1.15071
1.13873
1.1781
0.885239
0.8607
0.731941
0.898322
0.77716
0.897533
1.14174
0.441951
0.867461
1.23422
1.11914
0.942128
0.866807
0.884379
1.14382
0.832515
0.914326
0.943813
1.14316
0.870091
0.677223
0.948962
0.948704
1.05101
1.15133
1.11362
1.14167
1.15061
0.416942
1.14103
1.14338
1.12167
1.16596
1.11743
0.871494
1.10572
0.88657
1.14571
1.14055
0.813461
1.10677
0.568712
0.863001
1.10878
0.893134
1.11011
1.16751
0.862391
0.892551
1.1246
1.00529
1.16795
0.661502
1.12746
1.12672
0.886157
0.756323
1.12434
1.14113
0.754009
0.763296
1.11659
0.889822
1.12296
0.881084
0.929401
1.11942
1.14436
0.806606
1.12287
0.83472
0.872427
1.02506
0.88936
3.37754
1.10112
0.81712
1.10721
0.884715
0.847824
1.13963
0.875945
0.880388
0.883896
1.13795
0.893974
1.15221
1.11735
1.11129
1.13976
1.11677
0.846749
0.805232
0.812631
0.725809
0.850464
0.818008
0.946097
0.850499
0.883142
0.946753
0.947184
1.15938
1.14776
1.14155
1.16522
1.23637
1.18968
0.834238
0.872481
0.770955
0.834742
0.82802
0.905081
0.83208
2.96846
1.13708
0.878995
0.866465
0.818874
0.878567
0.845478
0.844248
0.942252
0.897512
1.14232
0.942571
0.986117
1.14013
0.422716
1.14119
0.887159
1.11333
0.76411
0.882488
1.16347
1.12033
0.871612
1.13656
0.860443
0.883449
1.13959
0.887289
1.13815
1.14321
0.887464
1.138
0.885322
0.878649
0.884418
0.704162
0.925422
0.980083
1.12585
0.849218
0.873075
1.14459
1.18513
0.871686
1.03012
0.911531
0.81616
1.13776
1.11969
0.869844
1.19859
1.1282
1.10288
1.10428
0.665723
1.10098
1.10137
0.834158
0.818869
0.833515
0.897539
1.09333
1.09478
1.09257
1.09143
1.13985
1.1133
1.15151
0.826381
0.746321
1.12314
1.13087
1.18195
1.10343
1.11096
1.11851
0.909875
0.949425
0.915952
0.966288
1.11464
1.11629
0.7553
1.06661
1.1223
1.11316
0.864711
1.11039
1.11483
0.864908
0.967942
0.997986
1.14068
1.00825
1.00845
1.01128
0.773649
1.1093
0.82792
0.826892
0.946113
1.14362
1.10779
1.12218
1.00897
1.13745
1.20541
1.01889
1.1036
1.20807
1.11426
1.1393
0.982899
0.977923
1.13765
1.13936
1.16318
0.89012
1.13837
1.1429
0.893679
1.08345
1.0848
1.08084
1.08211
1.07053
1.07168
1.06913
1.07001
0.734502
0.853771
1.05845
0.867394
1.05969
1.05769
1.13914
0.910706
0.933496
1.05856
1.1412
1.04376
1.13884
1.04488
0.770012
0.872597
1.04312
1.07735
1.04447
1.13445
1.13388
1.03164
1.12317
1.03148
1.12179
0.657938
1.07924
0.825784
0.933237
1.13134
1.1333
1.02775
1.0308
1.1436
0.886237
1.01886
1.01716
0.917638
1.14662
1.14872
1.00335
0.816752
1.00625
1.13558
0.85375
1.00611
0.830509
1.00571
0.815942
0.852548
1.1368
1.11385
1.10962
0.988303
0.990392
0.690282
1.13392
1.1359
0.991727
0.832446
0.991799
0.817549
1.13829
0.981796
0.975599
1.11049
1.11077
1.11488
0.889308
1.11344
0.873851
0.887177
0.969979
1.14152
0.951863
1.11173
0.951814
1.10737
1.14022
0.872932
0.874695
0.972918
0.974681
0.855281
0.876881
0.931132
0.87836
0.931219
1.14597
0.932937
0.922526
0.942728
1.11947
0.808855
0.944697
0.925376
1.28521
1.10251
1.10325
1.12073
0.909861
0.8331
0.932486
1.00444
1.10637
0.841482
0.803264
0.92665
0.905932
0.909052
0.898308
0.922365
0.821569
0.787815
1.09619
0.778467
1.20726
0.811015
1.14465
0.82471
0.810514
0.80669
1.20998
0.913684
1.09096
1.09468
1.09163
0.848335
1.11081
1.09738
1.10888
1.15362
1.09979
0.847976
1.20593
1.09606
1.09621
0.815869
0.772749
1.13749
0.901663
0.743714
0.939065
1.09876
1.12968
1.14096
1.11118
0.669803
0.868324
1.11684
0.883277
1.10664
0.993662
0.897084
0.995536
0.830378
1.1209
0.876574
0.890018
1.01056
1.11087
0.833382
1.14279
0.482845
1.11494
0.999532
0.987265
0.866311
0.918228
0.91667
1.13895
0.831253
1.13702
1.13731
0.990354
0.924505
1.11373
0.844282
1.10811
1.11525
0.934752
0.94714
1.13943
0.996568
0.787033
0.863669
1.13033
0.828777
0.798963
1.12713
1.1147
0.89732
0.871504
1.10933
0.798173
1.10345
1.11604
0.847197
1.02027
1.01913
0.858886
1.11873
1.10214
1.09375
0.88777
0.914961
1.12993
0.868826
0.806495
0.824912
1.11932
1.14675
1.13703
1.11681
0.978898
0.985665
1.08651
1.11722
1.13437
0.837394
0.979665
0.912072
1.11626
0.981077
0.836599
0.819256
0.816076
1.18857
0.883389
0.872086
0.760749
0.885171
0.739688
0.959733
1.11902
1.1272
0.942998
1.05631
1.12476
0.87392
0.880571
1.11925
0.795171
0.775742
0.8859
0.80955
0.809167
0.7948
0.825569
0.78408
0.830856
0.834285
1.07954
1.13193
0.685668
1.13293
1.08574
0.902706
0.787931
0.841101
1.13552
1.12501
0.871953
1.14554
0.87064
0.875389
1.10273
1.10256
0.962304
1.1066
1.08718
1.11207
1.13947
0.872845
0.876142
0.847197
1.09478
1.13714
0.831072
1.09311
0.909119
0.913099
0.830289
1.11154
0.851824
0.893649
0.847089
1.13892
1.13907
1.13886
1.13872
0.889973
0.877056
1.11802
0.923761
1.11235
0.82105
1.11619
0.789468
0.937331
0.902181
1.13517
0.785792
0.784937
0.903597
1.15929
1.0889
0.842486
0.89644
0.888134
0.849095
1.09176
1.09212
0.868173
1.01803
1.13527
1.13535
0.874155
0.786197
0.990751
0.844686
1.13957
1.09474
1.14035
1.09614
1.11716
1.10131
1.23605
1.10183
0.938847
0.808873
0.828907
0.718785
1.15317
1.07058
1.04075
0.81146
1.13325
0.938274
1.1079
1.03399
1.04641
1.04805
1.03392
1.03823
1.06819
0.90719
1.04433
1.06027
1.03228
0.816307
1.05293
1.00191
1.01846
1.05869
1.11262
1.06242
1.02229
1.0659
1.10771
1.01147
1.07743
1.07179
1.07041
1.01601
1.07413
1.07561
1.00621
1.07789
1.13305
1.0837
1.00338
1.14511
0.995359
1.08302
0.774416
1.13725
0.781537
1.00109
1.1086
1.11809
1.11411
0.992732
1.01165
1.12671
1.11185
1.12779
0.988998
0.781234
0.956654
0.973054
1.13767
0.849102
0.974228
0.956883
0.968486
0.808079
0.973954
0.960792
0.938065
1.13422
0.928606
0.955878
1.14154
0.960919
0.90986
1.1413
1.091
0.962314
0.828421
0.968315
0.913332
0.914214
0.950133
0.820989
0.949961
1.09874
0.895783
1.14175
0.908682
0.819728
0.898334
0.902697
0.894928
0.860593
0.937832
0.861486
0.866088
0.901035
0.93537
0.878982
0.883302
0.939723
1.02439
1.11221
1.14051
1.03252
1.14005
1.10701
1.01667
1.08278
0.861679
1.22045
0.698601
0.717276
0.780692
0.777957
0.941718
0.963512
1.14032
1.1781
0.998685
1.00727
0.674353
0.999043
0.987786
1.00491
0.99085
0.998048
0.876468
0.820834
0.882899
0.895322
1.14035
0.876461
0.804916
0.811346
0.921317
1.13856
1.02962
1.00446
0.784213
0.564018
0.962474
0.892908
0.888541
0.969215
0.737913
1.07819
1.13986
0.854431
0.915246
0.951011
0.986485
0.899622
0.900102
0.784217
0.813539
0.874006
0.812842
0.882648
0.883953
0.695806
0.772474
1.05871
0.853065
1.00765
0.921962
1.13707
1.00795
1.0571
0.860506
0.910772
1.14485
1.13743
1.06346
0.871003
1.11346
1.13867
1.07901
1.17698
0.913964
0.741124
1.13421
0.888728
1.06636
0.859377
0.838104
1.14771
1.13797
1.13111
0.820416
1.0747
0.829982
0.878655
0.879552
1.19822
1.00359
0.870123
1.11239
0.761787
1.05489
0.894397
0.950843
0.781434
0.778628
1.08982
1.09531
0.872019
0.777034
0.896883
0.887322
0.866499
0.866915
1.09004
0.950375
0.871172
0.823337
0.859439
0.787892
0.913808
1.10423
0.840893
0.661486
0.867437
0.70019
0.896767
1.00622
4.4344
1.10759
1.11028
0.785435
0.880733
1.14715
0.862322
0.85705
0.858685
1.21075
0.848487
0.830755
1.02568
0.901197
1.03458
1.09456
1.08321
0.873312
1.04434
1.11204
1.11184
1.11023
0.856627
1.09944
0.879211
0.766848
0.854904
0.778013
1.13727
1.11199
0.776604
1.06113
1.08142
0.868914
1.08117
1.0841
1.0805
1.19455
1.08328
0.870718
0.77586
1.03005
1.11235
0.905244
1.06798
1.047
0.877127
0.432887
1.01296
1.06664
1.05111
1.12051
0.882063
1.09965
1.12141
1.13155
0.80267
1.057
1.12977
1.03266
1.05921
0.638269
1.13366
0.889434
1.0512
0.949738
1.1157
1.06346
0.804444
0.727061
1.08101
1.04474
1.05098
0.675075
0.949693
1.11614
1.06712
0.802109
1.06681
0.985605
1.07833
1.04159
1.07567
1.12033
1.14118
1.02947
1.06632
1.11678
0.829854
0.920193
1.07198
0.831534
1.03609
0.876956
0.902542
1.06513
0.85832
1.13292
0.875688
1.06348
1.06244
1.11308
1.12743
1.12659
0.89669
1.05061
1.06267
1.06551
1.11901
1.11155
1.14137
0.883651
1.03231
1.08035
0.879947
1.11051
1.05154
1.06521
1.02425
0.819764
1.08253
1.05333
1.04863
1.05747
1.05414
1.13848
1.11842
0.905212
1.04046
1.01017
1.04258
1.06096
0.771038
0.797554
1.11208
1.03581
1.05316
1.18138
1.03832
1.11196
1.0726
1.06828
0.867126
1.05922
1.14024
1.11285
1.03046
1.03029
0.819479
1.02277
1.13434
1.02593
0.993934
1.10275
1.01863
1.13511
0.9887
1.0096
0.772307
1.02715
0.838003
0.94969
1.13444
1.01797
0.863012
0.76388
0.994463
1.00059
0.713251
1.00145
0.986342
0.923077
0.986345
0.986911
0.950046
1.01482
1.00724
0.751492
0.961486
0.987762
1.00382
1.00943
0.997628
0.949906
1.00295
1.11723
0.771073
1.00175
1.00318
0.966512
0.796697
0.876341
0.992678
0.987331
0.796109
0.996804
0.695428
1.00018
0.831415
1.14178
1.08296
0.812924
0.796673
0.866394
0.9873
0.999459
0.801604
1.11934
0.949705
1.04659
1.13649
1.08592
1.07742
1.13416
1.13605
1.11842
0.605808
1.13798
0.978299
0.974324
0.983405
1.14105
0.760473
1.10474
0.993255
0.993135
0.914289
0.972139
0.807442
1.12017
1.02244
0.82413
1.03888
0.967773
1.02097
0.972505
0.962446
1.14122
0.55924
1.11241
0.892445
1.14178
1.02635
1.04735
0.960529
1.00526
0.897543
0.999522
0.870074
0.936355
0.986423
0.729552
0.821871
1.03311
1.11119
0.944703
0.945808
1.11134
1.08214
1.09131
1.09345
1.09608
1.10066
1.10016
0.837964
1.14412
0.949037
1.02949
0.76785
1.04722
1.16915
0.755428
0.938172
0.840296
1.14029
1.15812
0.949074
0.735211
1.09602
0.841656
1.03202
1.14585
1.13981
1.06599
1.05149
0.814316
0.812252
1.07005
1.11724
1.10106
1.07581
0.882268
0.835406
1.02109
1.05576
1.16893
1.11707
1.10852
0.960671
1.13716
0.93242
0.933074
0.963619
1.0977
0.919726
0.92001
1.09932
0.769603
0.922367
0.96709
1.11916
1.07394
1.06349
1.115
1.07697
1.07883
0.919916
1.07718
1.05271
1.01193
1.0658
1.08128
1.01466
1.09979
1.14314
0.98887
0.800208
1.03979
0.792026
1.1384
1.06907
1.03934
1.10453
0.899784
1.19733
1.10431
0.905577
0.875112
0.906076
1.12245
1.09315
0.789362
1.03213
1.11659
0.772383
0.717334
0.767141
0.933513
1.00759
0.972004
0.877339
0.87751
0.775001
1.11122
0.90176
0.982905
0.998723
0.856756
1.01845
0.905574
0.829294
1.12055
1.11771
0.774345
0.76769
0.899597
1.11141
0.880917
0.930099
0.890272
0.887111
0.891042
1.00738
0.883048
1.01693
1.03595
1.01804
1.05473
0.954306
0.882874
0.955831
1.04669
1.09589
0.832157
0.991989
1.1028
0.821364
1.12641
0.777016
1.07421
0.775529
0.864633
0.895305
1.07344
0.971117
0.872313
0.756775
1.09588
0.893058
0.874422
1.03389
1.04806
1.12725
0.776938
1.10771
0.955833
0.830831
0.867836
0.702351
1.01069
1.10435
1.00436
0.852079
0.865477
1.09712
1.08385
0.963476
1.0034
0.990661
0.951337
1.18351
0.78938
0.914756
1.12273
0.988944
1.02825
0.849914
0.853465
0.797976
0.854748
1.12532
0.861949
1.0645
0.851423
0.737712
1.04487
1.02277
1.1396
1.11507
0.958018
0.928129
1.12655
0.725243
0.961854
1.01291
1.20537
1.05657
1.1311
0.83026
1.07616
0.838464
1.08122
0.958659
0.836735
1.11018
1.00484
0.960801
0.718837
1.11149
0.943904
0.834928
0.846434
0.941346
1.12705
0.943973
1.0708
1.07463
1.02758
0.864893
1.01918
1.01386
1.05979
0.919297
0.545938
1.13947
0.739196
1.09762
1.14764
0.478922
1.03425
1.09832
1.05002
0.948916
0.824726
0.712359
0.701428
1.1597
0.841638
0.825101
0.810976
1.16872
1.04543
1.04374
0.81332
0.880031
0.949102
1.08171
1.00153
0.718568
1.178
1.01725
1.09235
1.12695
1.09759
0.808074
1.03185
1.09655
0.831323
1.1186
0.807516
0.788794
1.19368
0.836836
1.11566
1.11779
1.08967
1.08737
1.00997
0.866052
1.11131
1.12715
0.868235
0.869906
0.78272
1.12809
1.08065
0.891711
0.793475
0.793987
1.07055
0.862241
0.69362
0.904514
0.791003
1.11865
0.709513
0.78311
0.62004
0.994902
1.06275
0.984833
1.15862
0.914176
0.896321
0.919875
0.861305
0.919646
0.917334
0.911083
0.723541
0.676791
1.12646
0.957694
1.09102
1.12872
0.859063
0.843772
0.865356
0.848034
1.07058
0.878141
1.09097
1.1299
0.862267
0.895058
0.781949
0.596666
0.774454
0.765693
1.13324
1.03882
0.896861
0.800208
1.05657
0.959557
1.10478
0.812532
1.12783
0.88327
1.03635
0.786378
1.10191
0.773723
0.860759
0.450863
1.14121
0.820761
0.885721
1.07693
1.08372
1.08195
0.883826
1.09347
0.878074
0.644013
0.774503
0.779251
0.971065
0.878935
0.955985
1.14195
0.771788
0.780728
1.1427
0.780788
1.16464
0.955228
0.877542
0.858688
1.14285
1.11819
1.07123
0.959756
1.01054
0.709239
0.700048
1.09573
0.831274
1.04038
1.11149
0.862377
2.72228
2.64933
1.08719
0.84912
0.871582
0.86355
1.09247
1.16736
0.941779
0.844398
1.01897
0.817173
1.04672
0.984961
1.03147
1.06163
1.0537
0.818189
0.931507
1.0725
0.835229
1.04701
1.05342
1.15578
0.794679
0.766412
0.647652
0.843188
1.10445
0.642815
1.06739
1.0041
1.05063
0.846522
1.16558
1.02847
1.04109
0.899593
1.057
0.822585
1.05199
1.13413
1.13827
1.06709
1.07654
1.13771
1.03289
1.02016
1.06327
1.02983
1.01266
1.14239
0.911129
1.07648
1.10388
0.912078
1.13344
0.989181
1.07302
1.07751
0.948865
0.843706
0.819196
1.05982
1.01503
1.00518
0.905834
1.05357
1.10048
1.12488
1.07293
1.13004
1.11748
0.885117
0.823058
1.00241
1.05062
0.914587
0.815402
0.824858
0.948168
0.829945
0.901748
0.97247
1.22221
0.992037
0.877198
1.00328
0.871136
1.09913
1.08486
1.23371
0.992194
1.12799
1.11131
1.04533
1.10385
0.845816
0.904409
0.9176
0.988076
1.10259
0.827067
1.12837
0.918877
0.859761
0.851532
0.892306
0.806368
0.847159
0.826961
0.974372
0.886213
0.98932
0.832813
1.12838
0.89213
0.8833
0.817974
0.95743
1.06597
0.91817
1.1235
1.13723
1.15868
0.975405
0.901257
0.940613
1.10211
0.882543
0.727234
1.13037
1.1469
0.897726
1.07733
1.12045
0.974994
0.879694
0.739855
0.956272
1.15633
0.913848
0.939395
0.948623
0.93287
0.776934
1.04243
0.783743
0.779876
0.953044
0.945901
1.04157
0.785296
0.933534
0.87435
0.878071
0.942158
0.877188
0.946238
0.824255
0.872661
1.05466
0.861792
1.10549
1.12385
1.05647
1.09977
0.939392
1.02122
1.09213
1.12997
1.03628
0.919543
1.04002
0.875729
0.945515
1.03752
1.05841
0.814697
0.953814
1.0776
1.11235
1.14793
1.05493
0.889753
1.11539
0.926547
0.71089
1.17486
0.823594
0.955051
0.963556
0.934405
0.886151
1.03705
0.934048
0.903176
0.960061
1.14213
0.929947
0.918519
1.03851
0.887935
0.612529
0.904561
1.02112
0.934466
1.04252
0.922511
0.910386
0.903865
1.02977
0.908027
0.917655
1.00316
1.18135
0.998611
1.10897
1.12841
1.03081
0.898311
0.961814
0.9102
0.98939
0.904671
1.07618
1.02403
1.08513
1.10095
1.00345
0.886046
0.836233
1.02599
0.956651
1.08596
0.966984
1.01464
0.847377
0.892154
1.09481
0.956025
0.894656
1.09708
0.893021
0.888175
0.926867
1.0196
1.06097
1.11656
0.939328
1.01975
0.867272
1.06973
1.13908
1.14208
0.927922
1.1318
1.13124
0.907027
0.842869
0.958004
0.876506
1.02664
1.08148
1.07686
1.08373
0.922325
1.08102
0.835093
1.07925
0.846658
0.877114
0.793813
0.675568
0.869106
0.839505
1.00692
0.820429
0.842548
0.992788
0.641656
0.852293
1.00837
0.974592
1.07945
1.15667
0.85769
1.0931
1.12487
0.939254
1.0897
0.950911
0.53737
0.977337
0.85984
0.852179
0.953935
0.933547
0.999865
0.840657
1.0988
1.03278
0.933055
1.08652
0.924565
1.00297
1.03476
1.0594
0.838126
1.08409
0.95412
0.838022
0.904065
0.926206
0.975751
0.946251
0.819
0.993512
1.01474
1.06206
0.973537
0.839385
1.06164
0.861096
0.839062
0.892246
1.14085
0.993429
0.891492
0.824344
0.857555
0.919583
0.901555
0.923794
0.946125
0.665581
0.953187
0.940878
1.0073
0.567219
0.981951
0.949884
0.861222
0.976488
0.867434
0.990743
1.12864
0.823227
0.818791
1.09432
1.12331
1.06791
1.08811
0.992496
1.03875
0.807786
1.03528
0.851478
1.14369
0.821357
0.871075
0.971365
1.11584
0.822313
0.946943
0.945328
0.973419
0.843348
1.09083
1.07877
0.882348
1.00497
0.776359
1.07898
0.772927
0.988217
0.808808
0.975947
0.839213
0.974486
1.10024
1.04545
1.11824
1.03856
0.995325
0.999151
0.838479
1.05825
0.806435
0.823189
1.10271
0.977498
0.880696
0.995916
1.0472
0.99674
0.807444
0.83563
0.920968
1.05186
1.0377
1.01059
1.00105
1.12393
1.05507
0.973139
1.00741
0.946892
1.12183
1.08472
1.06434
0.793508
0.844495
0.67412
1.05871
1.05813
0.969771
1.08322
1.01914
0.612144
0.793171
1.01583
1.01784
1.01795
0.794375
0.978092
1.01359
0.563745
0.782304
0.776505
0.551902
1.06242
0.778408
0.81773
0.773994
1.1326
0.89253
0.950153
0.836888
0.817355
0.957272
1.02355
1.10403
0.815319
0.841372
1.05857
0.840659
0.847483
0.852547
0.754468
1.02386
0.957571
0.953708
0.809224
0.955199
1.16367
1.04665
1.05937
0.951466
1.01955
0.953331
0.962365
0.956357
0.811803
0.925984
1.06156
0.941819
0.950376
1.14993
0.839321
1.13798
0.850211
0.951947
1.12896
1.12594
0.838255
1.03559
1.13954
0.758465
0.972701
1.10133
0.89324
1.08637
0.669559
0.813545
0.975016
0.755407
0.941319
0.996228
0.817324
0.940765
0.818439
0.928839
0.890284
1.08699
0.883302
1.14471
0.936287
0.965705
1.03493
0.882974
0.956116
1.03021
0.938744
1.03132
1.08565
1.04056
0.773412
0.922916
1.01712
1.03857
0.878309
0.880593
0.924515
0.924654
0.8996
1.01848
0.906011
1.12508
0.781469
1.10057
0.937283
0.849227
1.08342
0.923947
0.754376
0.986121
1.04202
0.781215
0.924885
0.952262
0.865909
1.11062
0.823193
0.82027
1.00759
1.03322
1.10876
0.910881
1.04151
1.05938
1.02942
1.12962
1.0067
0.913134
0.894435
0.66631
1.0456
1.12836
1.15953
1.03977
0.907917
1.05097
0.835637
1.04904
0.908709
1.11621
0.860262
0.926089
0.978782
0.898741
0.772051
0.932492
0.928212
1.06209
0.900616
1.02909
1.05218
1.12283
1.08866
1.12141
0.650938
0.893362
1.12557
0.800468
0.895194
1.04894
0.966241
0.875776
1.0585
0.851719
0.894799
1.13448
0.801089
0.904927
1.11293
0.804655
0.880814
1.10271
0.966043
0.891804
0.951306
0.964601
0.988982
0.991846
1.04738
0.800293
1.06706
1.05923
1.10225
0.84838
1.03651
0.885894
1.1008
1.10462
0.813091
1.08759
1.0523
0.782969
0.887621
1.06295
1.10242
0.903493
0.88864
0.812501
0.981311
0.825486
0.954382
0.87833
1.03199
0.753601
1.04842
1.12839
0.861619
0.758143
0.821847
0.976791
0.879718
1.12376
0.983673
0.700146
0.87027
1.07218
1.05581
1.04396
1.07496
0.870198
1.08255
0.899494
0.832076
0.952538
1.22815
0.932755
1.1035
0.874157
0.898552
1.01432
1.02361
1.10833
1.09517
1.03865
0.828882
0.87573
1.06535
0.921486
0.841032
0.934941
0.961847
0.803461
1.0859
1.11376
1.11828
0.625721
0.840109
0.863743
0.865075
0.889663
1.08002
1.12606
1.07557
0.965294
1.12457
1.08002
0.850788
0.889499
0.994732
1.0721
0.848276
0.849707
0.85453
0.857266
0.989902
0.661683
1.10768
0.849132
0.856545
0.855131
0.677604
0.960991
0.855545
0.903
1.12521
0.889979
1.10814
1.06381
1.10852
0.678565
0.897003
0.94492
0.848307
1.09756
0.699632
1.11717
1.12483
0.849936
1.11295
1.09231
0.870293
0.867676
1.1517
0.947705
0.852176
0.866164
1.07671
1.10402
1.13671
1.12149
0.874736
1.07481
0.948991
0.838813
1.14236
0.885324
0.840139
1.08725
0.872373
1.09128
1.0449
1.11134
0.881569
0.830388
0.831962
1.05495
0.979587
0.880184
1.01745
1.1278
1.12697
0.947123
0.948172
1.04117
0.820343
0.888138
1.05367
1.12264
1.11573
1.11706
1.10811
0.820967
1.12386
0.869965
0.885822
1.03893
1.01947
0.913909
1.04861
0.822586
0.66753
1.15453
0.821669
0.97764
1.11949
1.05378
1.01245
1.02667
1.1267
1.0326
1.04864
0.958053
1.11713
0.863328
0.8986
0.798092
1.02506
1.1311
1.03725
0.851508
1.00604
1.02765
1.08839
0.897219
1.12875
0.876764
1.1289
0.917628
1.02058
0.879349
1.12701
0.734449
1.03468
1.13093
0.943473
0.653413
1.00223
1.08469
1.11639
0.918225
1.12408
0.88351
0.828094
0.909399
0.625883
1.02896
1.0672
1.12305
0.782242
0.836441
1.08982
0.699395
1.01101
0.855686
0.907062
0.885893
0.905403
0.942798
1.02197
0.886403
0.877447
1.12983
1.12444
0.791956
0.817766
1.09646
1.04752
0.918573
1.00555
1.01437
1.03926
0.917658
1.10588
0.816843
0.92652
0.994758
1.02994
0.889918
0.816709
0.860747
1.02329
1.00678
0.869867
0.9242
0.893223
0.98334
1.00242
0.759517
0.792333
0.993911
0.813217
0.80934
1.12737
0.862962
1.08875
1.1255
1.01921
0.940827
0.996592
0.829444
1.09372
1.11627
0.820746
1.01376
1.14613
0.981179
1.09094
0.937531
0.86296
1.12447
1.1287
1.08817
0.937155
1.0819
0.902096
0.806276
1.12833
0.994053
0.90625
0.935418
1.12276
0.667914
1.14339
1.09111
0.901826
1.21573
0.944357
0.893465
1.06656
0.94339
0.844587
0.827619
1.04828
0.982165
0.986316
0.904189
0.944201
0.942126
1.08435
0.846127
0.986349
0.834752
1.14607
1.0093
1.08999
1.09539
0.802745
0.956719
0.951217
1.0698
0.788267
0.80278
1.14491
0.930358
0.979182
0.774421
0.878231
0.849547
0.9831
0.907001
0.816052
1.1266
0.827957
0.948149
1.08648
1.12799
1.12562
0.951846
0.829808
0.952617
0.828741
0.883017
1.14426
0.956689
0.962772
0.928855
0.956333
0.818355
1.12738
1.09719
1.08024
0.956201
0.953638
0.819389
0.915325
1.08579
1.12434
0.829865
0.959102
0.809555
0.964956
0.94121
0.764125
0.768723
0.762351
1.16115
0.954377
0.770969
0.805611
1.08502
0.919512
0.968448
1.04041
1.13111
0.967483
1.12261
1.04024
1.03066
0.827981
1.04527
0.940403
0.998279
0.84793
0.905058
0.923038
1.03942
1.12744
0.964286
0.959699
0.905322
0.959711
0.965781
1.12792
0.942733
0.961501
0.92812
0.956016
0.859192
1.12859
1.06657
0.920377
1.13243
1.09038
1.01499
0.807202
0.910624
1.04613
0.84953
0.941326
0.923665
0.821036
1.04145
1.04639
0.899154
0.974892
1.00225
1.08264
0.924645
0.955807
0.932023
0.917808
1.02722
0.773642
1.07223
0.979306
1.06782
0.886457
0.927868
0.976305
1.13071
0.97721
0.922037
0.95336
0.908826
1.13739
0.97776
0.904963
1.09267
1.14282
0.921692
0.903376
0.935791
1.12664
1.07717
0.851533
1.12777
0.909099
0.981234
0.896222
1.12395
1.12906
0.934667
0.905904
1.12438
0.979521
1.12628
0.889519
0.972213
0.773616
1.12415
0.897112
1.12778
0.881888
1.02379
1.09098
0.927359
0.993362
0.891332
0.876759
1.08663
1.08032
1.08115
0.962862
0.990793
0.864267
0.883769
1.04051
0.867337
0.987848
0.948765
0.818471
1.01338
1.09194
1.13041
1.17585
1.08556
0.817872
1.13034
0.968146
1.0159
1.09124
0.876847
0.858416
0.970395
0.8564
0.994375
1.10833
0.859553
0.990588
0.980088
0.863945
0.870759
0.936554
0.670572
1.02994
0.912876
0.964662
1.10931
1.13555
0.994101
0.802717
0.851662
1.06427
1.01035
0.903383
0.800856
0.550276
1.11141
0.861406
0.99753
0.917985
0.957379
1.00571
1.09853
1.00674
0.841552
0.962326
1.00519
0.852748
1.08027
1.12736
0.992071
0.834339
0.916051
1.12895
0.697355
1.12252
1.12346
0.950508
1.00165
0.623439
0.842695
1.04795
0.961714
1.11181
0.836672
0.960716
1.0044
0.824653
1.14438
0.83662
0.970605
0.776885
0.939783
1.04206
1.09103
0.971293
1.12652
1.00905
0.929849
1.03622
1.08735
1.15442
0.814881
0.912819
0.826473
1.03892
0.970241
1.0044
1.00936
1.112
1.0665
0.926238
1.15505
1.0007
0.816585
0.805952
0.79332
0.978483
1.12557
0.84348
1.09688
1.00799
0.883376
1.06808
1.08825
0.973065
0.962311
0.970471
0.914622
0.747666
1.06854
1.1284
0.867387
0.878802
0.986073
0.851019
1.07983
0.971676
1.00583
0.924982
1.02095
1.12406
0.991689
1.09199
1.01841
1.12397
1.10067
0.968755
1.10907
1.01707
0.897358
1.12408
1.11929
0.997046
0.966251
0.893599
1.0826
0.885464
1.13724
0.994098
1.01346
1.13004
1.01407
1.09068
1.08433
0.91553
0.986175
0.833986
0.992901
1.12086
1.13682
0.876765
1.18042
1.04056
0.844907
1.12472
0.855691
0.848692
1.02637
0.86629
1.12631
1.12949
0.723974
1.05333
1.12815
1.09349
1.06863
0.998343
1.04603
1.02292
0.687963
1.02469
0.862737
0.90964
0.845667
0.789516
0.792563
0.949799
1.00601
0.835654
1.09072
0.850357
1.09965
1.07609
1.02342
0.906056
1.0877
1.09269
0.825315
1.14643
1.03441
0.942058
0.962988
1.14105
1.01038
1.03296
0.94631
0.939295
1.21603
1.08787
1.02677
0.948927
1.10186
0.675551
0.999504
0.951672
0.960541
1.08482
0.940006
0.816931
0.824105
0.75957
0.949827
0.790161
1.02295
1.02574
1.13205
0.964054
1.12218
1.16507
0.703774
1.07439
1.05254
1.12221
0.98859
0.737806
0.801386
0.930258
1.01392
0.964693
0.737708
1.08333
1.0449
0.626129
1.04787
0.989474
0.91343
1.04288
1.08481
1.08317
1.08254
0.98124
0.954432
1.01865
1.13829
0.982615
0.762041
1.04092
0.819423
1.05717
0.929645
1.07611
0.922523
1.0515
0.760466
1.08604
1.13088
0.826519
1.12446
0.939975
0.805606
0.796935
0.849446
0.841921
0.879673
1.04038
1.15866
0.997658
1.1298
1.17606
0.982411
1.02125
0.842005
1.05218
1.10842
0.938096
1.04003
1.12075
0.880767
0.817617
0.887301
1.13018
0.702214
1.01508
0.909321
0.835
0.966393
0.818147
0.87614
0.822179
1.13017
0.923109
0.953356
0.649384
1.05021
0.958879
0.942996
0.803446
0.736729
1.10671
1.11606
0.866722
0.94015
1.04838
0.760491
1.13
1.12683
0.917409
1.10712
1.1259
0.954997
1.00394
0.85859
0.860162
0.651105
0.965337
0.938021
1.02844
1.12242
1.13046
1.13014
0.843887
0.831389
0.813251
0.953322
1.12563
0.949677
0.693983
0.827806
0.688828
0.811466
0.700563
1.12839
0.984687
0.951924
0.946964
1.02901
0.791301
1.12804
1.12622
1.10311
0.941513
1.03215
0.939226
0.961974
0.951251
0.809354
1.23402
1.12654
0.842925
0.83785
1.03191
1.12517
0.82788
0.84253
1.07356
1.08929
0.787076
0.96796
1.07051
0.986809
0.764709
0.942573
1.02963
1.12556
0.991254
0.947243
1.04803
0.940364
0.810211
0.911697
0.768463
0.84168
0.939017
1.01844
0.584974
0.860763
1.05678
0.973014
1.13061
0.956402
1.13097
1.04835
0.963138
0.842909
1.0578
0.831428
1.03403
0.956811
1.12984
1.024
0.976289
1.08594
1.00714
0.599668
0.858512
0.95557
0.974152
1.10546
1.07194
1.03045
0.939832
0.946578
0.84194
1.06681
1.13188
0.982436
0.862229
0.879483
0.771359
0.878411
1.08254
0.765368
0.969213
0.768928
1.05258
1.05351
0.920351
1.13216
1.05056
0.926972
0.97634
0.962558
1.04172
0.833761
0.884276
1.09749
0.971575
1.05067
0.846697
0.89276
0.983088
0.875575
0.813562
1.10777
0.936639
0.893303
1.07331
0.937421
1.10639
0.812045
0.797634
1.06938
0.972373
0.959671
1.13117
0.890292
1.13124
0.874934
1.0327
0.890146
0.993467
1.06759
0.65515
1.14217
0.901659
1.14556
0.918401
1.0756
0.940636
1.03275
0.970594
0.986096
0.807967
0.863142
0.860909
0.807593
0.735361
1.0748
0.990268
1.05775
0.814694
0.981691
0.942337
0.916306
1.05646
0.792066
1.04267
1.04175
1.0682
0.998232
1.04213
0.899763
0.954282
0.872935
1.05639
0.914296
1.11602
0.98605
1.11048
1.04062
0.961266
0.795488
1.19887
0.971817
0.973781
1.03906
1.0681
1.01329
1.14743
1.03623
0.925491
0.678935
0.911723
0.666937
0.94088
1.06346
1.07324
1.11828
0.958741
0.894288
1.00777
1.0653
1.02626
0.983648
0.817391
1.01239
0.942138
1.06669
0.888066
0.804043
1.04288
1.07132
0.651081
0.680274
0.819215
0.946591
0.930053
1.06196
1.06521
0.778409
0.820432
1.01289
0.876813
0.992879
0.881696
0.912968
0.82945
1.0824
1.03619
1.03505
1.06383
0.893647
0.863035
1.08531
0.93857
1.12215
0.928054
1.0638
1.03061
0.890538
1.16438
1.02029
0.985598
0.997815
0.933537
0.888777
0.922637
0.940977
1.05056
0.853587
0.960355
0.948156
1.03081
0.958207
0.944399
0.976298
1.09023
0.9284
0.934566
0.922683
1.06428
0.969851
0.96729
0.936545
1.05107
0.845815
0.992131
0.637554
0.945703
0.938669
1.06432
0.946964
0.970985
1.13008
0.988958
0.842622
1.03927
0.735792
0.959617
1.05505
0.760801
1.07883
0.967727
0.954754
0.890954
0.970198
1.00364
0.950382
0.945303