/*--------------------------------*- C++ -*----------------------------------*\
  =========                 |
  \\      /  F ield         | OpenFOAM: The Open Source CFD Toolbox
   \\    /   O peration     | Website:  https://openfoam.org
    \\  /    A nd           | Version:  12
     \\/     M anipulation  |
\*---------------------------------------------------------------------------*/
FoamFile
{
    format      ascii;
    class       surfaceScalarField;
    location    "11.6";
    object      phi;
}
// * * * * * * * * * * * * * * * * * * * * * * * * * * * * * * * * * * * * * //

dimensions      [1 0 -1 0 0 0 0];

internalField   nonuniform List<scalar> 
19404
(
-0.00012047
2.15547e-07
-0.00012043
7.94316e-08
-0.000121345
8.10667e-08
-0.000123426
1.29777e-07
-0.000124599
2.92429e-07
-0.000124887
3.80626e-07
-0.000124852
3.5769e-07
-0.000124607
2.4298e-07
-0.000124126
2.3784e-07
-0.000123687
3.44067e-07
-0.000123455
3.5674e-07
-0.00012334
2.91437e-07
-0.000123287
1.87884e-07
-0.000123693
1.0168e-07
-0.000125634
1.08537e-07
-0.000127351
2.40171e-07
-0.00012792
3.68466e-07
-0.000127993
3.6381e-07
-0.000127813
2.60109e-07
-0.000127263
1.89582e-07
-0.000126708
3.39399e-07
-0.000126413
3.80905e-07
-0.000126291
3.35976e-07
-0.00012623
2.39759e-07
-0.00012642
1.27787e-07
-0.000128185
1.11251e-07
-0.000130293
2.49237e-07
-0.000131056
3.54183e-07
-0.000131159
3.50129e-07
-0.000130922
2.30499e-07
-0.000130182
1.12961e-07
-0.00012949
2.48377e-07
-0.000129147
3.81729e-07
-0.000129029
3.51502e-07
-0.000128988
2.62612e-07
-0.000129077
1.25363e-07
-0.000130779
1.18296e-07
-0.000133274
2.65808e-07
-0.000134209
3.36828e-07
-0.000134353
3.47811e-07
-0.000134073
1.93902e-07
-0.000133042
4.74211e-08
-0.000132019
1.72277e-07
-0.000131532
3.70093e-07
-0.000131367
3.55068e-07
-0.000131348
2.69642e-07
-0.000131426
1.3511e-07
-0.000133224
8.64274e-08
-0.000136403
2.47275e-07
-0.000137562
3.8787e-07
-0.000137689
3.84096e-07
-0.000137182
2.08273e-07
-0.000135464
-6.64583e-08
-0.000134094
2.59046e-08
-0.000133448
2.35488e-07
-0.000133228
3.1312e-07
-0.000133226
2.81128e-07
-0.000133356
1.07403e-07
-0.000135651
6.70683e-08
-0.000139318
2.09949e-07
-0.000140687
3.94302e-07
-0.000140843
3.74016e-07
-0.000140193
2.35697e-07
-0.000137396
-6.01807e-08
-0.000135274
-5.6689e-08
-0.00013448
9.15222e-08
-0.000134321
2.16149e-07
-0.000134383
1.52982e-07
-0.000134843
-4.73507e-08
-0.000138481
2.88981e-09
-0.000142128
2.10956e-07
-0.00014333
2.45538e-07
-0.000143521
4.78502e-07
-0.000142644
2.24972e-07
-0.000138395
-5.06064e-08
-0.000135053
-1.55902e-07
-0.000134001
-1.06521e-07
-0.000133919
-5.76609e-08
-0.00013404
-2.1921e-07
-0.000136749
-5.13407e-07
-0.000142734
1.60897e-07
-0.000145278
1.31986e-07
-0.000145786
3.06597e-07
-0.000145642
4.48763e-07
-0.000142784
4.10387e-07
-0.000136112
-5.07741e-07
-0.000131122
-8.07854e-07
-0.000130143
-7.42764e-07
-0.000130238
-3.39938e-07
-0.000134484
-8.13749e-07
-0.000142488
-1.0934e-06
-0.000145855
-5.58584e-07
-0.000146692
1.12582e-08
-0.000146746
-1.49019e-07
-0.000142548
-3.10052e-07
-0.000133671
-2.76868e-07
-0.000122165
-3.87187e-06
-0.000114447
-2.1428e-05
1.46626e-05
-0.000128913
2.87137e-07
-0.000128955
2.03506e-07
-0.000130397
2.4772e-07
-0.000132164
3.46794e-07
-0.000132832
4.07359e-07
-0.000132958
4.61109e-07
-0.000132864
4.56114e-07
-0.000132608
4.06374e-07
-0.000131625
3.7074e-07
-0.000130797
3.71826e-07
-0.000130449
4.05388e-07
-0.000130289
3.67473e-07
-0.000130214
2.97384e-07
-0.000130864
2.52408e-07
-0.000132952
3.27592e-07
-0.000134107
3.95741e-07
-0.000134399
4.5497e-07
-0.000134382
4.64656e-07
-0.000134224
4.00634e-07
-0.000133283
3.53233e-07
-0.000132165
3.52859e-07
-0.000131695
3.76943e-07
-0.000131524
3.92452e-07
-0.000131456
3.44658e-07
-0.000131665
2.47968e-07
-0.000133591
2.93534e-07
-0.000135349
4.09766e-07
-0.000135857
4.6714e-07
-0.000135914
4.89312e-07
-0.000135827
4.11838e-07
-0.00013481
3.16978e-07
-0.000133364
2.77283e-07
-0.000132773
3.25659e-07
-0.000132572
3.50779e-07
-0.00013251
3.23297e-07
-0.000132596
2.30008e-07
-0.000134251
2.45049e-07
-0.000136649
3.97254e-07
-0.000137457
4.96771e-07
-0.000137565
5.28858e-07
-0.000137506
4.16356e-07
-0.00013633
3.14301e-07
-0.000134454
2.45981e-07
-0.000133698
2.89166e-07
-0.00013346
3.14262e-07
-0.000133406
3.00678e-07
-0.000133466
2.12963e-07
-0.000135044
1.75339e-07
-0.000138033
3.43613e-07
-0.000139189
5.11526e-07
-0.000139354
5.70379e-07
-0.000139311
4.72256e-07
-0.000137837
3.13517e-07
-0.000135443
1.76036e-07
-0.00013451
1.55042e-07
-0.000134228
2.23512e-07
-0.000134144
2.77554e-07
-0.000134247
1.74105e-07
-0.00013632
1.15531e-07
-0.000139863
2.71229e-07
-0.00014112
4.9323e-07
-0.00014131
5.676e-07
-0.000141212
5.01272e-07
-0.000139015
3.72976e-07
-0.000135951
1.58447e-07
-0.000134878
4.55673e-08
-0.000134601
6.53755e-08
-0.000134614
1.01323e-07
-0.000135027
-3.58138e-08
-0.000138674
4.87533e-09
-0.000142402
2.15367e-07
-0.000143422
5.84351e-07
-0.000143527
7.3378e-07
-0.000143154
6.24597e-07
-0.000139448
4.28523e-07
-0.000135446
7.34741e-09
-0.000134239
-3.28429e-07
-0.00013403
-3.35923e-07
-0.000134209
-4.5591e-07
-0.000136742
-4.08334e-07
-0.000141818
-5.7917e-08
-0.00014433
3.08555e-07
-0.000145034
5.8257e-07
-0.000145181
5.96803e-07
-0.000143936
5.64939e-07
-0.000136943
-1.0232e-07
-0.000131689
-8.91918e-07
-0.000130295
-1.21173e-06
-0.00013028
-1.47442e-06
-0.000132246
-1.84035e-06
-0.000138181
-2.07628e-06
-0.000141522
-1.34865e-06
-0.00014242
-9.68762e-07
-0.000142499
-1.31394e-06
-0.000138162
-1.9199e-06
-0.00012834
-2.72573e-06
-0.000116905
-7.44194e-06
-0.000123163
-2.65981e-05
2.14873e-05
-0.00012833
3.55268e-07
-0.000128369
3.0878e-07
-0.000129788
3.81358e-07
-0.000131526
5.26457e-07
-0.000132178
5.80233e-07
-0.000132322
5.74486e-07
-0.000132256
5.55417e-07
-0.000132016
5.29864e-07
-0.000131094
5.03884e-07
-0.00013028
4.83512e-07
-0.00012988
4.33827e-07
-0.000129711
4.21624e-07
-0.000129638
3.8155e-07
-0.00013027
3.88093e-07
-0.000132309
4.77304e-07
-0.000133446
5.78053e-07
-0.000133747
5.8821e-07
-0.000133762
5.81085e-07
-0.000133629
5.30919e-07
-0.000132738
4.85204e-07
-0.000131649
4.53772e-07
-0.000131185
4.18412e-07
-0.000130966
4.0114e-07
-0.000130878
3.99717e-07
-0.000131084
3.81672e-07
-0.000132918
4.25071e-07
-0.000134682
5.77052e-07
-0.000135242
6.42081e-07
-0.000135306
6.10306e-07
-0.000135229
5.60789e-07
-0.000134304
4.83979e-07
-0.000132916
4.12921e-07
-0.00013234
3.3806e-07
-0.000132081
3.15582e-07
-0.000131989
3.46648e-07
-0.000132051
3.37454e-07
-0.000133543
3.60812e-07
-0.000135976
5.38921e-07
-0.000136837
6.69367e-07
-0.000136971
6.95401e-07
-0.000136918
6.06746e-07
-0.000135821
5.21921e-07
-0.000134045
4.0712e-07
-0.00013334
2.89923e-07
-0.000133057
2.49885e-07
-0.000132954
2.95253e-07
-0.000132966
2.85713e-07
-0.000134269
2.94121e-07
-0.000137286
4.71485e-07
-0.000138555
6.49645e-07
-0.000138781
7.14006e-07
-0.000138748
6.69979e-07
-0.000137486
5.83585e-07
-0.000135008
3.96441e-07
-0.000133985
2.08853e-07
-0.000133666
1.37087e-07
-0.000133587
1.62778e-07
-0.000133676
1.68541e-07
-0.000135453
1.9225e-07
-0.000138939
3.79471e-07
-0.000140339
6.41176e-07
-0.000140625
7.50283e-07
-0.000140606
7.40434e-07
-0.000138907
6.47557e-07
-0.000135581
3.60068e-07
-0.000134147
4.25752e-08
-0.000133775
-8.45665e-08
-0.000133727
-7.58578e-08
-0.000134038
-1.01138e-07
-0.000137197
-3.55152e-08
-0.000140909
3.5405e-07
-0.000142184
6.9238e-07
-0.000142407
8.77114e-07
-0.00014234
8.51342e-07
-0.000139541
7.13082e-07
-0.000134851
1.07332e-07
-0.00013299
-4.6978e-07
-0.000132656
-6.96575e-07
-0.000132735
-7.28688e-07
-0.000134124
-8.22131e-07
-0.000138898
-4.50008e-07
-0.000142311
2.82237e-07
-0.000143475
6.85167e-07
-0.000143641
7.36792e-07
-0.000143072
6.50224e-07
-0.000137
3.31011e-07
-0.000130442
-8.13812e-07
-0.000128249
-1.92515e-06
-0.000128124
-2.49589e-06
-0.000128621
-2.82751e-06
-0.000133105
-3.10763e-06
-0.000137488
-2.54111e-06
-0.000138926
-2.24307e-06
-0.000139231
-2.86032e-06
-0.000136463
-3.59471e-06
-0.000127808
-4.83489e-06
-0.000116989
-1.06226e-05
-0.000125103
-2.66405e-05
2.62249e-05
-0.00012729
4.35049e-07
-0.000127369
4.08733e-07
-0.000128846
4.84064e-07
-0.00013049
6.46487e-07
-0.000131077
7.24066e-07
-0.000131216
7.20912e-07
-0.00013118
6.93067e-07
-0.000130996
6.41149e-07
-0.000130181
6.26174e-07
-0.000129228
5.94957e-07
-0.000128827
5.47556e-07
-0.000128633
4.75368e-07
-0.000128592
4.40402e-07
-0.000129308
4.55566e-07
-0.00013132
6.10056e-07
-0.000132379
7.19754e-07
-0.00013268
7.59942e-07
-0.000132691
7.18096e-07
-0.000132576
6.55578e-07
-0.000131821
6.17292e-07
-0.000130613
5.93399e-07
-0.000130085
5.13823e-07
-0.000129864
4.51698e-07
-0.000129797
4.33078e-07
-0.000130042
4.18514e-07
-0.000131892
5.33779e-07
-0.000133635
7.13605e-07
-0.000134176
7.95823e-07
-0.000134271
7.63345e-07
-0.00013422
7.03763e-07
-0.000133477
6.13229e-07
-0.000131906
5.719e-07
-0.000131211
4.59975e-07
-0.000130942
3.80325e-07
-0.000130841
3.58019e-07
-0.00013092
3.6329e-07
-0.000132357
4.25647e-07
-0.000134843
6.5587e-07
-0.000135796
8.17478e-07
-0.00013595
8.32435e-07
-0.000135942
7.83595e-07
-0.000135149
6.92644e-07
-0.000133149
5.94733e-07
-0.000132204
4.08646e-07
-0.000131851
2.98459e-07
-0.000131731
3.00953e-07
-0.000131767
2.98948e-07
-0.000132949
3.25032e-07
-0.000135965
5.17477e-07
-0.00013739
7.5607e-07
-0.000137692
8.60887e-07
-0.000137715
8.48358e-07
-0.00013692
7.71016e-07
-0.000134203
6.23068e-07
-0.000132768
3.45154e-07
-0.000132335
1.06747e-07
-0.00013221
7.68094e-08
-0.000132275
9.32385e-08
-0.00013376
1.55478e-07
-0.000137239
4.51141e-07
-0.000138899
7.78234e-07
-0.00013928
9.16655e-07
-0.000139324
9.38455e-07
-0.000138467
8.32792e-07
-0.000134893
5.63772e-07
-0.000132708
1.21398e-07
-0.000132117
-2.22454e-07
-0.000132005
-2.68376e-07
-0.000132173
-2.49452e-07
-0.000134555
-1.98351e-07
-0.000138551
2.72702e-07
-0.00014026
7.78043e-07
-0.000140668
9.95362e-07
-0.000140709
9.85129e-07
-0.000139382
8.63542e-07
-0.000134205
3.29104e-07
-0.000131006
-4.04288e-07
-0.000130405
-9.65092e-07
-0.000130386
-1.13931e-06
-0.000130881
-1.23438e-06
-0.000134763
-1.09674e-06
-0.000138932
-2.80357e-07
-0.000140326
4.81127e-07
-0.00014063
8.23473e-07
-0.00014059
7.67729e-07
-0.000137327
6.0792e-07
-0.000130089
-5.39567e-07
-0.000125916
-2.08961e-06
-0.000125172
-3.44848e-06
-0.000125178
-4.05295e-06
-0.000126958
-4.41191e-06
-0.000130726
-4.26062e-06
-0.000132677
-4.02609e-06
-0.000132997
-4.78472e-06
-0.00013216
-5.53621e-06
-0.000127516
-6.30411e-06
-0.000120417
-1.09251e-05
-0.000124692
-2.43673e-05
2.9907e-05
-0.000126103
5.29998e-07
-0.000126174
4.9896e-07
-0.00012774
5.54312e-07
-0.0001294
7.76099e-07
-0.000129942
8.72249e-07
-0.000130042
8.6627e-07
-0.000129979
8.28663e-07
-0.000129807
7.66674e-07
-0.000129114
7.36941e-07
-0.000128073
6.94792e-07
-0.000127575
6.327e-07
-0.000127381
5.73196e-07
-0.000127304
5.01035e-07
-0.000128077
5.03794e-07
-0.000130149
6.86948e-07
-0.000131232
8.73073e-07
-0.000131475
8.99609e-07
-0.000131488
8.83099e-07
-0.000131392
8.16225e-07
-0.000130798
7.58391e-07
-0.000129469
6.94654e-07
-0.000128815
5.98603e-07
-0.000128563
5.3682e-07
-0.000128466
5.01605e-07
-0.000128674
4.56176e-07
-0.000130534
5.75174e-07
-0.000132391
8.09326e-07
-0.000132955
9.25943e-07
-0.000133048
9.18908e-07
-0.000132993
8.52518e-07
-0.000132513
7.82023e-07
-0.000130866
7.12963e-07
-0.000129942
5.43572e-07
-0.000129605
4.4548e-07
-0.000129478
4.21229e-07
-0.000129494
4.13443e-07
-0.000130769
4.67472e-07
-0.000133341
7.06186e-07
-0.000134448
9.23288e-07
-0.00013467
9.68139e-07
-0.00013467
9.46376e-07
-0.000134251
8.78737e-07
-0.000132173
7.5022e-07
-0.0001308
5.00352e-07
-0.000130388
3.27649e-07
-0.000130235
2.77803e-07
-0.000130252
2.99861e-07
-0.000131263
3.26483e-07
-0.000134176
5.50929e-07
-0.000135761
8.59575e-07
-0.000136165
1.01138e-06
-0.000136213
1.02763e-06
-0.000135906
9.63261e-07
-0.000133517
8.23307e-07
-0.00013136
4.37904e-07
-0.000130731
1.08621e-07
-0.000130553
5.17081e-09
-0.000130559
1.52499e-08
-0.000131632
7.1183e-08
-0.000134982
3.98947e-07
-0.000136939
8.47182e-07
-0.000137497
1.08069e-06
-0.000137583
1.10161e-06
-0.000137391
1.00936e-06
-0.000134626
8.1386e-07
-0.000131242
1.47801e-07
-0.00013019
-2.44176e-07
-0.000130005
-4.60789e-07
-0.000130038
-4.96637e-07
-0.000131447
-4.77328e-07
-0.000135542
-4.82176e-08
-0.00013783
7.12161e-07
-0.000138382
1.1091e-06
-0.000138488
1.14818e-06
-0.000138199
9.9583e-07
-0.000134366
7.06931e-07
-0.000129642
-3.64326e-07
-0.000128044
-1.09293e-06
-0.000128022
-1.53646e-06
-0.00012812
-1.759e-06
-0.000130118
-1.8006e-06
-0.000134808
-1.1732e-06
-0.000137392
-4.34854e-08
-0.000137983
5.65971e-07
-0.000138175
7.25507e-07
-0.000137206
6.33192e-07
-0.000131372
1.8161e-07
-0.000125254
-1.96925e-06
-0.000122769
-3.64153e-06
-0.000122697
-4.86521e-06
-0.000123223
-5.59311e-06
-0.000126365
-5.84238e-06
-0.000129098
-5.71506e-06
-0.000130303
-6.32618e-06
-0.000130573
-7.59058e-06
-0.000128846
-8.50721e-06
-0.000123861
-1.10322e-05
-0.000124092
-2.21205e-05
3.28564e-05
-0.000125026
6.33204e-07
-0.000125036
6.13108e-07
-0.000126544
6.18723e-07
-0.000128338
8.58049e-07
-0.000128912
9.90443e-07
-0.000129011
1.00513e-06
-0.000128947
9.7424e-07
-0.000128788
9.06218e-07
-0.000128213
8.49796e-07
-0.000127097
7.98044e-07
-0.000126505
7.17231e-07
-0.000126255
6.62314e-07
-0.000126158
6.14778e-07
-0.000126724
5.71465e-07
-0.00012891
7.32082e-07
-0.000130113
9.63061e-07
-0.00013041
1.0414e-06
-0.000130416
1.0328e-06
-0.000130313
9.71369e-07
-0.000129895
9.03848e-07
-0.000128549
8.06969e-07
-0.000127727
7.05587e-07
-0.000127387
5.97996e-07
-0.000127246
5.77052e-07
-0.00012732
5.41807e-07
-0.000129019
6.05846e-07
-0.000131121
8.60162e-07
-0.000131806
1.01795e-06
-0.000131934
1.06313e-06
-0.0001319
1.022e-06
-0.000131614
9.50011e-07
-0.000130044
8.47683e-07
-0.000128778
6.59506e-07
-0.000128314
5.03959e-07
-0.000128157
4.73239e-07
-0.000128141
4.67207e-07
-0.000129146
4.95519e-07
-0.000131772
7.0961e-07
-0.000133096
9.91381e-07
-0.000133428
1.08586e-06
-0.000133463
1.1007e-06
-0.000133317
1.05298e-06
-0.000131689
9.29851e-07
-0.000129612
6.18205e-07
-0.000128925
3.76399e-07
-0.000128735
2.67237e-07
-0.000128717
2.64959e-07
-0.000129488
2.83108e-07
-0.000132322
5.50553e-07
-0.000134151
9.34575e-07
-0.000134698
1.13223e-06
-0.000134843
1.1822e-06
-0.000134821
1.11007e-06
-0.000133482
9.78681e-07
-0.000130466
5.64933e-07
-0.00012912
2.16973e-07
-0.00012882
1.01975e-08
-0.000128798
-6.48109e-08
-0.000129426
-6.30782e-08
-0.000132629
2.05132e-07
-0.000135158
7.93294e-07
-0.000135907
1.19026e-06
-0.000136089
1.2677e-06
-0.000136102
1.17874e-06
-0.000134734
9.94238e-07
-0.00013073
5.08766e-07
-0.000128524
-1.65178e-07
-0.000128175
-5.3045e-07
-0.000128168
-7.19163e-07
-0.000128704
-7.92287e-07
-0.000132243
-5.53841e-07
-0.000135711
3.84395e-07
-0.000136723
1.09722e-06
-0.00013688
1.30057e-06
-0.000136903
1.23274e-06
-0.000134991
9.84699e-07
-0.00012988
1.78273e-07
-0.000126813
-1.13595e-06
-0.000126066
-1.91873e-06
-0.000126094
-2.17522e-06
-0.000126618
-2.343e-06
-0.000130272
-2.17971e-06
-0.0001342
-1.13864e-06
-0.000135735
-1.07236e-07
-0.000136124
3.25434e-07
-0.000136178
3.75155e-07
-0.000133626
4.11465e-07
-0.000127095
-1.00885e-06
-0.000122513
-3.31825e-06
-0.00012108
-5.01923e-06
-0.000121133
-6.3569e-06
-0.000122637
-7.04679e-06
-0.000125784
-7.21976e-06
-0.000127627
-7.52746e-06
-0.000128243
-8.92312e-06
-0.000128019
-1.0363e-05
-0.000126402
-1.13711e-05
-0.000123863
-1.96728e-05
3.51836e-05
-0.000124261
7.56707e-07
-0.000124223
7.39689e-07
-0.00012549
7.1963e-07
-0.000127346
9.21608e-07
-0.000128028
1.09922e-06
-0.000128163
1.10137e-06
-0.000128122
1.08512e-06
-0.000128012
1.04023e-06
-0.000127553
9.48193e-07
-0.000126355
8.92503e-07
-0.000125668
8.19948e-07
-0.000125395
7.64706e-07
-0.000125277
7.07031e-07
-0.000125691
6.66738e-07
-0.000127774
7.93161e-07
-0.000129133
1.05088e-06
-0.000129513
1.16776e-06
-0.000129561
1.1529e-06
-0.000129495
1.10262e-06
-0.000129223
1.0175e-06
-0.00012791
9.23936e-07
-0.000126769
7.83651e-07
-0.000126388
6.95322e-07
-0.000126251
6.40094e-07
-0.000126307
5.93757e-07
-0.000127798
6.4042e-07
-0.000129975
9.03508e-07
-0.000130816
1.13301e-06
-0.000131012
1.19989e-06
-0.000131009
1.16792e-06
-0.000130887
1.09999e-06
-0.000129697
9.86541e-07
-0.000127827
7.50339e-07
-0.000127179
6.1933e-07
-0.000126982
5.18657e-07
-0.000126967
4.56155e-07
-0.000127859
4.65567e-07
-0.000130452
7.23916e-07
-0.000131914
1.05388e-06
-0.000132351
1.22833e-06
-0.000132444
1.23632e-06
-0.00013241
1.18666e-06
-0.000131615
1.07637e-06
-0.000129141
8.35482e-07
-0.000127781
5.22212e-07
-0.000127475
3.31167e-07
-0.000127419
2.55284e-07
-0.000127913
2.12753e-07
-0.000130605
4.24574e-07
-0.000132832
9.33618e-07
-0.000133539
1.26147e-06
-0.000133716
1.32885e-06
-0.000133748
1.24178e-06
-0.000133308
1.09522e-06
-0.000130419
8.63545e-07
-0.000128046
2.36143e-07
-0.000127473
6.24205e-08
-0.000127423
-8.79989e-08
-0.000127642
-2.00837e-07
-0.000130167
-1.03043e-07
-0.00013362
5.65496e-07
-0.00013481
1.21498e-06
-0.000135019
1.43706e-06
-0.000135056
1.38195e-06
-0.000134566
1.20623e-06
-0.000131087
8.58968e-07
-0.000127971
-3.62435e-08
-0.000126926
-5.90174e-07
-0.000126819
-8.31182e-07
-0.000126904
-9.67629e-07
-0.00012873
-9.867e-07
-0.000133166
-3.08491e-07
-0.000135448
8.28293e-07
-0.000135925
1.34349e-06
-0.000136018
1.40868e-06
-0.000135582
1.23743e-06
-0.000131634
8.94311e-07
-0.000127069
-5.86829e-07
-0.000124958
-1.93063e-06
-0.000124658
-2.41179e-06
-0.000124729
-2.70193e-06
-0.000126296
-2.94275e-06
-0.000130653
-2.45389e-06
-0.000133693
-1.2095e-06
-0.000134807
-3.59542e-07
-0.000135122
-7.17776e-08
-0.000134803
3.91129e-08
-0.00013081
-5.03276e-07
-0.000124804
-2.23951e-06
-0.000121272
-4.74269e-06
-0.000120427
-6.4378e-06
-0.000120622
-7.73482e-06
-0.000122998
-8.38779e-06
-0.000125979
-8.54302e-06
-0.000127392
-9.57591e-06
-0.000127552
-1.11998e-05
-0.000127458
-1.1989e-05
-0.000123554
-1.77921e-05
3.7529e-05
-0.000123724
8.47634e-07
-0.000123661
8.44643e-07
-0.00012474
8.15075e-07
-0.000126606
1.02058e-06
-0.000127339
1.20144e-06
-0.000127544
1.22541e-06
-0.000127533
1.18791e-06
-0.000127422
1.1426e-06
-0.000127115
1.05997e-06
-0.000125905
9.80755e-07
-0.000125041
9.17344e-07
-0.000124736
8.59577e-07
-0.000124605
7.82131e-07
-0.000124906
7.40081e-07
-0.000126895
8.35891e-07
-0.000128381
1.13959e-06
-0.000128822
1.28912e-06
-0.000128926
1.28255e-06
-0.000128885
1.22316e-06
-0.000128743
1.13961e-06
-0.000127678
1.04123e-06
-0.000126169
8.79116e-07
-0.00012562
7.87644e-07
-0.000125459
7.08904e-07
-0.000125448
6.18242e-07
-0.000126764
6.46885e-07
-0.000129076
9.22412e-07
-0.000130046
1.24485e-06
-0.000130305
1.33959e-06
-0.000130338
1.30435e-06
-0.000130278
1.23622e-06
-0.000129656
1.13181e-06
-0.000127567
9.61016e-07
-0.000126405
6.9675e-07
-0.000126131
5.83891e-07
-0.000126075
4.91916e-07
-0.000126676
4.34465e-07
-0.000129255
6.30776e-07
-0.000131044
1.08855e-06
-0.000131572
1.35419e-06
-0.000131715
1.37704e-06
-0.000131727
1.32354e-06
-0.000131459
1.19796e-06
-0.000129271
1.05737e-06
-0.000127227
5.74636e-07
-0.0001266
4.30316e-07
-0.000126499
2.8406e-07
-0.000126629
2.07765e-07
-0.000128755
2.44075e-07
-0.000131775
7.85106e-07
-0.000132869
1.3335e-06
-0.000133088
1.46822e-06
-0.000133129
1.4259e-06
-0.000132972
1.27832e-06
-0.000130765
1.10198e-06
-0.000127876
5.51207e-07
-0.000126743
6.22817e-08
-0.000126508
-1.63404e-07
-0.000126556
-2.45038e-07
-0.000127682
-3.18011e-07
-0.000131627
1.04741e-07
-0.000133939
1.06537e-06
-0.000134412
1.5352e-06
-0.000134479
1.5911e-06
-0.000134409
1.43945e-06
-0.000132306
1.23964e-06
-0.000128402
4.72187e-07
-0.000126412
-5.39862e-07
-0.00012585
-9.79097e-07
-0.000125835
-1.10341e-06
-0.000126204
-1.24922e-06
-0.000129699
-1.11083e-06
-0.000133779
2.5668e-08
-0.000135233
1.12306e-06
-0.000135546
1.47321e-06
-0.000135608
1.40644e-06
-0.000134133
1.20265e-06
-0.000128725
5.81307e-07
-0.000125128
-1.28756e-06
-0.000123933
-2.44969e-06
-0.000123846
-3.09142e-06
-0.000124063
-3.33492e-06
-0.000126649
-3.42214e-06
-0.000130679
-2.61429e-06
-0.000132896
-1.42805e-06
-0.000133812
-8.29168e-07
-0.000134018
-6.75269e-07
-0.000133335
-4.54484e-07
-0.000128979
-1.62019e-06
-0.00012352
-3.50439e-06
-0.000120483
-6.16246e-06
-0.00011998
-7.86669e-06
-0.000120462
-9.30799e-06
-0.00012348
-9.74143e-06
-0.000126215
-1.02571e-05
-0.00012738
-1.16982e-05
-0.000128012
-1.25687e-05
-0.000123829
-1.59152e-05
3.95644e-05
-0.000123401
9.14069e-07
-0.00012332
9.15336e-07
-0.000124216
8.79602e-07
-0.000126191
1.07738e-06
-0.000127025
1.31655e-06
-0.000127233
1.36385e-06
-0.000127235
1.31644e-06
-0.000127136
1.26223e-06
-0.000126917
1.189e-06
-0.000125819
1.09988e-06
-0.000124764
9.95166e-07
-0.000124357
9.07393e-07
-0.000124213
8.50393e-07
-0.000124301
7.82742e-07
-0.000126118
8.55574e-07
-0.000127949
1.1908e-06
-0.000128505
1.41728e-06
-0.000128611
1.42316e-06
-0.000128569
1.35458e-06
-0.000128465
1.27881e-06
-0.00012772
1.19326e-06
-0.000126019
1.02857e-06
-0.000125225
8.48493e-07
-0.000124973
7.55933e-07
-0.000124919
6.82942e-07
-0.000125734
6.1956e-07
-0.000128284
8.61392e-07
-0.000129591
1.30297e-06
-0.000129925
1.47517e-06
-0.000129972
1.44699e-06
-0.000129942
1.40178e-06
-0.000129616
1.28889e-06
-0.000127717
1.16954e-06
-0.000126159
8.06112e-07
-0.000125659
6.54981e-07
-0.000125568
5.42193e-07
-0.000125701
4.4402e-07
-0.000127869
5.10105e-07
-0.000130359
1.00503e-06
-0.00013118
1.46309e-06
-0.000131349
1.53069e-06
-0.00013136
1.48082e-06
-0.000131272
1.37031e-06
-0.000129718
1.25208e-06
-0.000127219
8.7901e-07
-0.000126164
4.28932e-07
-0.000125917
2.95408e-07
-0.000125909
2.05121e-07
-0.000126879
1.42241e-07
-0.000130396
4.70973e-07
-0.00013234
1.26138e-06
-0.000132753
1.62331e-06
-0.000132811
1.6376e-06
-0.000132806
1.52674e-06
-0.000131575
1.35669e-06
-0.000128312
8.91688e-07
-0.000126551
1.59511e-07
-0.000125998
-2.31891e-07
-0.000125921
-3.09554e-07
-0.000126077
-4.00199e-07
-0.000128819
-3.20366e-07
-0.000132697
5.49094e-07
-0.000134046
1.49803e-06
-0.000134222
1.73026e-06
-0.00013425
1.66599e-06
-0.000133603
1.56583e-06
-0.000129836
1.14376e-06
-0.000126512
-6.21038e-08
-0.000125259
-9.91002e-07
-0.00012507
-1.31302e-06
-0.000125126
-1.46356e-06
-0.000126394
-1.61008e-06
-0.000131067
-1.07983e-06
-0.000134247
4.26552e-07
-0.000135086
1.30609e-06
-0.000135222
1.51991e-06
-0.000135129
1.46599e-06
-0.000132331
1.2631e-06
-0.000127002
-6.07045e-09
-0.000124178
-1.99278e-06
-0.000123244
-3.08756e-06
-0.000123279
-3.5187e-06
-0.000123781
-3.84676e-06
-0.000127113
-3.85097e-06
-0.00013066
-2.85523e-06
-0.000132465
-1.86292e-06
-0.000133192
-1.46418e-06
-0.000133356
-1.45675e-06
-0.000132109
-1.47562e-06
-0.000127582
-2.79068e-06
-0.000122495
-4.97567e-06
-0.000119744
-7.77657e-06
-0.000119573
-9.42641e-06
-0.000120551
-1.09346e-05
-0.000124244
-1.12816e-05
-0.000126663
-1.24159e-05
-0.000128077
-1.31976e-05
-0.000124232
-1.36498e-05
4.13257e-05
-0.000123229
9.70598e-07
-0.000123114
9.61266e-07
-0.000123675
8.89584e-07
-0.00012585
1.08242e-06
-0.000126929
1.41219e-06
-0.000127143
1.51794e-06
-0.000127157
1.48411e-06
-0.000127059
1.39861e-06
-0.000126859
1.31007e-06
-0.000125884
1.21968e-06
-0.000124667
1.09071e-06
-0.000124176
9.88656e-07
-0.000123976
8.97801e-07
-0.000123934
8.30423e-07
-0.000125266
8.15285e-07
-0.000127572
1.15773e-06
-0.000128354
1.48876e-06
-0.000128507
1.59186e-06
-0.000128488
1.52602e-06
-0.000128382
1.43077e-06
-0.000127852
1.3472e-06
-0.000126111
1.18834e-06
-0.000125084
9.33327e-07
-0.000124732
8.19949e-07
-0.000124612
7.16895e-07
-0.000124867
6.15354e-07
-0.000127284
7.75102e-07
-0.000129238
1.26912e-06
-0.000129752
1.58534e-06
-0.000129843
1.61768e-06
-0.000129811
1.57142e-06
-0.000129661
1.46511e-06
-0.000128138
1.33743e-06
-0.000126202
1.02405e-06
-0.000125441
6.67627e-07
-0.000125215
5.78845e-07
-0.000125189
4.72297e-07
-0.000126332
4.21563e-07
-0.00012947
7.84702e-07
-0.000130885
1.45837e-06
-0.000131183
1.66625e-06
-0.000131215
1.66999e-06
-0.000131182
1.57101e-06
-0.000130289
1.43388e-06
-0.000127557
1.14e-06
-0.000126095
5.93218e-07
-0.000125618
3.06976e-07
-0.000125534
1.85855e-07
-0.000125695
1.13921e-07
-0.00012832
1.83258e-07
-0.000131561
9.4039e-07
-0.000132529
1.68504e-06
-0.00013267
1.78958e-06
-0.000132678
1.72962e-06
-0.000132319
1.58104e-06
-0.000129502
1.3358e-06
-0.00012676
4.93872e-07
-0.000125694
-1.56289e-07
-0.000125378
-3.85602e-07
-0.000125397
-4.59586e-07
-0.00012626
-5.46183e-07
-0.000130446
-2.07511e-07
-0.000133355
1.04635e-06
-0.000134097
1.789e-06
-0.000134211
1.89158e-06
-0.000134168
1.80082e-06
-0.000132189
1.73188e-06
-0.000127656
8.24366e-07
-0.000125351
-6.64067e-07
-0.000124678
-1.34307e-06
-0.000124547
-1.746e-06
-0.000124681
-1.76982e-06
-0.000127035
-1.85529e-06
-0.000131834
-9.17948e-07
-0.000134143
6.6795e-07
-0.000134752
1.3854e-06
-0.000134849
1.50209e-06
-0.0001346
1.34175e-06
-0.000130817
9.44728e-07
-0.000125618
-4.86042e-07
-0.000123282
-2.57323e-06
-0.000122754
-3.54062e-06
-0.000122801
-4.11263e-06
-0.000123806
-4.42585e-06
-0.000127384
-4.2393e-06
-0.000130315
-3.22899e-06
-0.000131744
-2.45972e-06
-0.000132363
-2.29504e-06
-0.000132383
-2.34858e-06
-0.000130851
-2.62491e-06
-0.000126394
-4.09842e-06
-0.000121581
-6.55866e-06
-0.000118968
-9.47957e-06
-0.000119047
-1.10087e-05
-0.000121048
-1.25104e-05
-0.000124875
-1.34207e-05
-0.000127231
-1.42277e-05
-0.000124887
-1.11605e-05
4.23904e-05
-0.000123133
1.01858e-06
-0.00012298
1.00908e-06
-0.000123176
9.17976e-07
-0.000125286
1.03879e-06
-0.000126824
1.43622e-06
-0.000127158
1.65241e-06
-0.00012717
1.64129e-06
-0.000127076
1.54809e-06
-0.000126922
1.46661e-06
-0.000126112
1.37036e-06
-0.000124708
1.21352e-06
-0.000124068
1.04842e-06
-0.000123813
9.49879e-07
-0.000123702
8.8094e-07
-0.000124378
7.97962e-07
-0.000126958
1.0528e-06
-0.000128243
1.52936e-06
-0.000128452
1.69202e-06
-0.00012845
1.69595e-06
-0.000128378
1.61654e-06
-0.000128056
1.50431e-06
-0.000126466
1.38635e-06
-0.000125084
1.06903e-06
-0.000124592
8.70054e-07
-0.00012442
7.71082e-07
-0.000124409
6.73365e-07
-0.000125992
6.64032e-07
-0.000128708
1.11855e-06
-0.000129604
1.62483e-06
-0.000129768
1.77788e-06
-0.000129737
1.73071e-06
-0.000129665
1.64584e-06
-0.000128766
1.52681e-06
-0.000126481
1.2404e-06
-0.000125404
8.05333e-07
-0.000125019
6.08238e-07
-0.000124943
5.26165e-07
-0.000125197
4.04606e-07
-0.000127983
5.68584e-07
-0.000130457
1.27854e-06
-0.000131064
1.76545e-06
-0.000131154
1.85326e-06
-0.000131133
1.76243e-06
-0.000130829
1.64081e-06
-0.00012849
1.44497e-06
-0.000126251
8.28176e-07
-0.000125456
3.36624e-07
-0.000125203
1.95237e-07
-0.000125177
1.04401e-07
-0.000126146
4.382e-08
-0.000130035
4.31193e-07
-0.000132208
1.45999e-06
-0.000132631
1.92145e-06
-0.000132667
1.93615e-06
-0.000132625
1.82479e-06
-0.000131155
1.73869e-06
-0.000127511
1.09761e-06
-0.000125625
7.60742e-08
-0.000125071
-3.77054e-07
-0.000124959
-6.02252e-07
-0.000125055
-6.65084e-07
-0.000127308
-7.10073e-07
-0.000131785
1.64963e-07
-0.000133665
1.52752e-06
-0.00013397
1.98526e-06
-0.000134037
2.02375e-06
-0.00013378
1.93051e-06
-0.00013064
1.61462e-06
-0.000126458
3.54312e-07
-0.000124593
-1.13261e-06
-0.000123999
-1.736e-06
-0.000123989
-1.92991e-06
-0.000124335
-2.13629e-06
-0.000127962
-2.12668e-06
-0.000132495
-7.65336e-07
-0.000134288
7.45501e-07
-0.00013464
1.29641e-06
-0.000134697
1.33287e-06
-0.000133822
1.19937e-06
-0.000129367
6.79611e-07
-0.000124759
-1.22025e-06
-0.000122765
-3.20275e-06
-0.000122313
-4.13445e-06
-0.000122391
-4.6512e-06
-0.000123919
-4.98655e-06
-0.000127556
-4.62521e-06
-0.000130047
-3.65438e-06
-0.000131232
-3.1749e-06
-0.000131681
-3.22439e-06
-0.000131554
-3.33666e-06
-0.000129802
-4.05982e-06
-0.000125498
-5.55688e-06
-0.000120739
-8.35928e-06
-0.000118223
-1.1132e-05
-0.000118671
-1.25334e-05
-0.000122122
-1.43151e-05
-0.000125385
-1.56529e-05
-0.000125878
-8.27925e-06
4.26714e-05
-0.000123082
1.0689e-06
-0.000122888
1.05936e-06
-0.000122863
9.90959e-07
-0.000124452
9.92666e-07
-0.000126625
1.38612e-06
-0.000127227
1.69421e-06
-0.000127257
1.77005e-06
-0.00012718
1.71709e-06
-0.00012704
1.64093e-06
-0.000126416
1.5255e-06
-0.000124871
1.36924e-06
-0.000124038
1.12724e-06
-0.000123724
1.00705e-06
-0.000123594
9.41637e-07
-0.000123744
8.34684e-07
-0.000126001
9.45274e-07
-0.000127984
1.45707e-06
-0.000128469
1.75782e-06
-0.00012851
1.85144e-06
-0.000128426
1.77479e-06
-0.000128267
1.68815e-06
-0.000127038
1.56105e-06
-0.000125254
1.259e-06
-0.000124541
9.37102e-07
-0.000124284
8.17321e-07
-0.000124197
7.418e-07
-0.000124788
6.5725e-07
-0.000127704
9.12833e-07
-0.0001294
1.57755e-06
-0.000129747
1.85561e-06
-0.00012977
1.89105e-06
-0.000129714
1.81324e-06
-0.000129329
1.697e-06
-0.000127177
1.48711e-06
-0.000125482
9.9253e-07
-0.00012492
6.49716e-07
-0.000124698
5.46885e-07
-0.000124692
4.80697e-07
-0.00012611
4.38801e-07
-0.00012954
9.18067e-07
-0.000130924
1.74723e-06
-0.000131146
1.95022e-06
-0.000131163
1.96905e-06
-0.000131103
1.85037e-06
-0.000129755
1.7279e-06
-0.000126814
1.21441e-06
-0.000125436
5.04798e-07
-0.000124964
1.95761e-07
-0.000124865
8.17663e-08
-0.000124981
-1.35332e-08
-0.000127544
2.69824e-08
-0.000131299
8.76704e-07
-0.000132546
1.89658e-06
-0.000132753
2.0863e-06
-0.000132779
2.11506e-06
-0.000132422
1.99895e-06
-0.000129333
1.76268e-06
-0.000126172
6.45616e-07
-0.00012501
-2.86213e-07
-0.000124607
-6.75885e-07
-0.000124566
-7.98414e-07
-0.000124907
-8.59395e-07
-0.000128625
-7.06046e-07
-0.00013251
5.75299e-07
-0.000133749
1.82654e-06
-0.000134033
2.14688e-06
-0.000134076
2.00146e-06
-0.000133357
1.90092e-06
-0.000128909
1.6543e-06
-0.000125137
-1.40543e-07
-0.000123875
-1.49668e-06
-0.000123603
-1.97588e-06
-0.000123634
-2.35463e-06
-0.000124286
-2.48531e-06
-0.000128549
-2.2558e-06
-0.000132434
-6.92544e-07
-0.000133714
6.87174e-07
-0.000134018
1.1469e-06
-0.000134098
1.12528e-06
-0.00013312
8.65098e-07
-0.000128373
1.6287e-07
-0.000123976
-1.78562e-06
-0.00012218
-3.81904e-06
-0.000121875
-4.67132e-06
-0.000122044
-5.24544e-06
-0.000124127
-5.55552e-06
-0.000127568
-4.9981e-06
-0.000129645
-4.17975e-06
-0.000130737