/*--------------------------------*- C++ -*----------------------------------*\
  =========                 |
  \\      /  F ield         | OpenFOAM: The Open Source CFD Toolbox
   \\    /   O peration     | Website:  https://openfoam.org
    \\  /    A nd           | Version:  12
     \\/     M anipulation  |
\*---------------------------------------------------------------------------*/
FoamFile
{
    format      ascii;
    class       volScalarField;
    location    "11.6";
    object      rho;
}
// * * * * * * * * * * * * * * * * * * * * * * * * * * * * * * * * * * * * * //

dimensions      [1 -3 0 0 0 0 0];

internalField   nonuniform List<scalar> 
9801
(
1.08379
1.0901
1.09325
1.09524
1.09433
1.09588
1.09915
1.10396
1.1141
1.12653
1.13489
1.14048
1.14504
1.14904
1.15221
1.15096
1.1512
1.1543
1.1586
1.16661
1.18048
1.19138
1.19818
1.20339
1.20785
1.21162
1.21047
1.20906
1.2118
1.21606
1.22275
1.23669
1.25082
1.25945
1.26528
1.27027
1.27459
1.27262
1.26984
1.27264
1.27723
1.28377
1.29799
1.31511
1.32544
1.33241
1.3382
1.3425
1.33872
1.33475
1.3376
1.34317
1.35086
1.36779
1.38783
1.39991
1.40802
1.41435
1.41815
1.41048
1.40538
1.40897
1.41628
1.42714
1.44978
1.4737
1.48818
1.49754
1.50578
1.50826
1.49421
1.4872
1.49267
1.50276
1.52154
1.55626
1.58387
1.5998
1.6112
1.6215
1.61839
1.59715
1.5925
1.60435
1.62378
1.668
1.71794
1.74959
1.77211
1.79342
1.80357
1.78269
1.76554
1.78227
1.82838
1.93179
2.05757
3.17326
8.65937
1.08978
1.09626
1.09899
1.10075
1.10041
1.10191
1.10497
1.10921
1.11943
1.13285
1.14133
1.14673
1.151
1.15472
1.15727
1.15635
1.15671
1.15958
1.16348
1.17114
1.18586
1.19725
1.20399
1.20893
1.21313
1.21641
1.21524
1.21409
1.21662
1.2206
1.22673
1.24108
1.25588
1.26452
1.27025
1.27505
1.27893
1.27723
1.27468
1.27701
1.28122
1.28705
1.30119
1.3191
1.32982
1.33677
1.34237
1.34652
1.34316
1.33906
1.34139
1.3464
1.35315
1.36951
1.39055
1.40329
1.41145
1.41778
1.42193
1.41518
1.40943
1.41222
1.41876
1.42785
1.44995
1.47486
1.48965
1.49922
1.50751
1.51123
1.49884
1.49079
1.49503
1.50411
1.51925
1.55167
1.58104
1.59848
1.61101
1.62253
1.62293
1.6013
1.5939
1.60383
1.61965
1.65413
1.70284
1.73708
1.76172
1.7846
1.79939
1.78425
1.76549
1.77071
1.80655
1.8712
1.95507
3.01354
8.6594
1.08808
1.09466
1.09743
1.09941
1.09951
1.1011
1.10408
1.10802
1.11777
1.13159
1.14002
1.14522
1.14938
1.15305
1.15559
1.15494
1.15545
1.1583
1.1621
1.16922
1.18399
1.19556
1.20217
1.20701
1.21121
1.21458
1.2136
1.21257
1.21505
1.21898
1.22467
1.23848
1.25347
1.26212
1.26786
1.27274
1.2769
1.27585
1.27292
1.27484
1.27894
1.28443
1.29765
1.31589
1.32696
1.33394
1.33952
1.3441
1.34174
1.33687
1.33861
1.34343
1.34969
1.36444
1.38595
1.39941
1.40768
1.41408
1.41922
1.41471
1.40752
1.40883
1.41469
1.4222
1.43993
1.4666
1.48358
1.49379
1.50223
1.50781
1.49858
1.48814
1.4901
1.49828
1.50926
1.53626
1.57098
1.59113
1.60373
1.61478
1.61856
1.59928
1.58651
1.59325
1.60753
1.63075
1.67871
1.72193
1.74952
1.77172
1.78887
1.77851
1.76135
1.76334
1.78887
1.8402
1.88813
2.92199
8.56377
1.08723
1.09401
1.09682
1.09863
1.09876
1.10036
1.1033
1.10704
1.11598
1.13002
1.13875
1.14399
1.14814
1.1518
1.15424
1.15353
1.154
1.15673
1.16043
1.16674
1.18111
1.19335
1.20018
1.20509
1.20936
1.2128
1.21184
1.21054
1.21277
1.21657
1.22163
1.23414
1.24996
1.25926
1.26521
1.27019
1.27452
1.27389
1.27009
1.27144
1.27543
1.28058
1.29187
1.31075
1.32308
1.3303
1.33588
1.3407
1.33944
1.3334
1.33413
1.33865
1.34445
1.35603
1.37808
1.39379
1.40253
1.40897
1.41469
1.41264
1.40272
1.40179
1.40725
1.41437
1.42767
1.45559
1.47616
1.48692
1.49513
1.50162
1.4964
1.48159
1.47994
1.48753
1.49747
1.517
1.55322
1.57773
1.59109
1.60195
1.6101
1.59834
1.57882
1.57844
1.59164
1.60855
1.64272
1.68846
1.72072
1.7443
1.76571
1.76799
1.74869
1.73962
1.74969
1.78735
1.81842
2.87194
8.50134
1.08578
1.09264
1.09543
1.09705
1.09692
1.09842
1.10135
1.10503
1.11324
1.12735
1.13655
1.14189
1.14604
1.14966
1.15208
1.15116
1.15126
1.15379
1.15738
1.16277
1.17641
1.18997
1.19729
1.20222
1.20644
1.20983
1.20892
1.20695
1.20872
1.21231
1.21686
1.22766
1.2448
1.25532
1.2614
1.26625
1.27037
1.27001
1.26575
1.26652
1.27023
1.27505
1.28399
1.3029
1.31712
1.32479
1.33032
1.33511
1.33532
1.32872
1.32771
1.33158
1.33699
1.34563
1.36665
1.38548
1.39531
1.40194
1.40786
1.40869
1.39817
1.39394
1.39833
1.40513
1.41506
1.43978
1.46409
1.47651
1.48495
1.49227
1.49292
1.47814
1.47016
1.47528
1.48462
1.49792
1.52972
1.56199
1.57931
1.59104
1.60157
1.60013
1.57806
1.56727
1.57454
1.58964
1.61284
1.65524
1.69525
1.72366
1.74721
1.76368
1.75263
1.73726
1.73222
1.74796
1.76634
2.83813
8.48092
1.08429
1.09122
1.09401
1.09563
1.09528
1.09666
1.0995
1.10301
1.11032
1.12444
1.13423
1.13973
1.14387
1.14749
1.15011
1.14919
1.14883
1.15116
1.15464
1.15926
1.17157
1.18646
1.19452
1.19953
1.20362
1.20702
1.20653
1.20379
1.20504
1.20852
1.21287
1.2219
1.23947
1.25139
1.25779
1.26254
1.26659
1.26717
1.26241
1.26191
1.26524
1.26997
1.27743
1.29534
1.31142
1.31991
1.32567
1.33067
1.33311
1.32641
1.32187
1.32453
1.32989
1.33754
1.35645
1.37792
1.38925
1.39622
1.40235
1.40632
1.39819
1.38876
1.39016
1.39627
1.40444
1.42437
1.45284
1.46915
1.47835
1.48587
1.49094
1.48045
1.46646
1.46622
1.47412
1.48447
1.50657
1.54416
1.5699
1.58428
1.59564
1.60215
1.58653
1.56663
1.56498
1.57694
1.59352
1.62435
1.66606
1.69932
1.72515
1.74827
1.75753
1.74559
1.73026
1.72636
1.72327
2.8052
8.48801
1.08316
1.09009
1.09286
1.09443
1.0939
1.0951
1.09786
1.10141
1.10829
1.12212
1.1323
1.13793
1.14217
1.14587
1.14873
1.14778
1.14668
1.14869
1.15215
1.15675
1.16804
1.18329
1.19203
1.19725
1.20146
1.20516
1.20558
1.20162
1.20176
1.20497
1.20939
1.21768
1.23473
1.24778
1.25471
1.25968
1.26409
1.26656
1.26184
1.2583
1.26066
1.2652
1.27209
1.28874
1.30659
1.31607
1.32207
1.32733
1.33161
1.32762
1.31978
1.31984
1.32464
1.33115
1.34657
1.37046
1.3847
1.39228
1.39857
1.4041
1.40069
1.38873
1.38612
1.39071
1.39767
1.41068
1.43984
1.46368
1.47543
1.48334
1.49011
1.4864
1.46906
1.46233
1.46708
1.47627
1.48967
1.52176
1.55785
1.5785
1.59139
1.60245
1.60203
1.57951
1.56611
1.56938
1.58239
1.60214
1.63815
1.67559
1.7044
1.72796
1.7491
1.75182
1.73961
1.72231
1.69139
2.77013
8.506
1.08298
1.09001
1.09275
1.09456
1.09355
1.09405
1.09666
1.10015
1.10658
1.12043
1.13139
1.13738
1.14175
1.14552
1.14871
1.14826
1.1458
1.14705
1.15035
1.15477
1.16539
1.18118
1.19067
1.1962
1.2006
1.20453
1.20644
1.2023
1.20035
1.2029
1.20705
1.21416
1.23073
1.24537
1.25304
1.25838
1.26303
1.26692
1.26425
1.25816
1.25855
1.26266
1.2682
1.28208
1.30254
1.31435
1.3209
1.32627
1.33115
1.33053
1.32126
1.31889
1.32238
1.32791
1.3377
1.36146
1.38159
1.39131
1.398
1.40403
1.40503
1.39297
1.38585
1.38802
1.3943
1.40275
1.42467
1.45624
1.47422
1.48364
1.49105
1.49418
1.47953
1.4648
1.46424
1.4717
1.48144
1.49977
1.53744
1.56878
1.58674
1.59965
1.6099
1.60328
1.57871
1.56945
1.57616
1.59027
1.6141
1.65084
1.68312
1.70846
1.73012
1.74526
1.74351
1.72687
1.68544
2.72587
8.52912
1.08342
1.09067
1.09356
1.09588
1.09474
1.09434
1.09657
1.09988
1.10518
1.11854
1.13126
1.13795
1.14243
1.14623
1.14957
1.15003
1.14677
1.14705
1.15
1.15395
1.16268
1.17917
1.19036
1.19641
1.20092
1.20493
1.20783
1.20474
1.20127
1.20286
1.20663
1.21193
1.22616
1.24356
1.25294
1.25864
1.26337
1.26768
1.26754
1.26051
1.25912
1.26223
1.26701
1.27605
1.29713
1.31359
1.32162
1.32718
1.33225
1.3345
1.32634
1.32028
1.32183
1.32676
1.33321
1.35063
1.37706
1.3916
1.39914
1.40523
1.40952
1.40139
1.38899
1.38761
1.39272
1.39988
1.41181
1.44196
1.4699
1.48347
1.4918
1.49892
1.49648
1.47695
1.46669
1.46875
1.4769
1.48774
1.51344
1.55272
1.57998
1.59636
1.60906
1.61619
1.60344
1.5815
1.57602
1.5842
1.599
1.62646
1.66266
1.69094
1.71197
1.72897
1.73657
1.72956
1.69326
2.69098
8.55338
1.0847
1.09228
1.09525
1.09796
1.09718
1.09591
1.09761
1.10071
1.10504
1.11679
1.13149
1.13942
1.14413
1.14795
1.15134
1.15271
1.14935
1.14857
1.15101
1.15465
1.16098
1.17681
1.19064
1.19763
1.20238
1.20651
1.21007
1.20865
1.2038
1.20423
1.20742
1.21178
1.22179
1.24121
1.25384
1.26028
1.26512
1.26958
1.27159
1.2652
1.26113
1.26298
1.26724
1.27317
1.28981
1.31179
1.32302
1.32923
1.33437
1.33855
1.33375
1.32393
1.32276
1.32653
1.33221
1.34202
1.36779
1.39062
1.40109
1.40744
1.41293
1.41207
1.39779
1.39022
1.39196
1.398
1.40565
1.42407
1.45883
1.48189
1.49325
1.5017
1.50838
1.49744
1.47569
1.46969
1.47472
1.4841
1.49668
1.52758
1.56474
1.58811
1.60331
1.61592
1.62159
1.60704
1.58614
1.58228
1.59098
1.60684
1.63719
1.67112
1.69548
1.71263
1.72379
1.72603
1.70605
2.67241
8.57454
1.08664
1.09465
1.09767
1.10063
1.10047
1.09838
1.09959
1.10253
1.10626
1.11552
1.13137
1.14102
1.14626
1.15025
1.15379
1.15614
1.15333
1.15116
1.15302
1.15634
1.16085
1.17376
1.19059
1.19944
1.2046
1.20887
1.21277
1.21351
1.20797
1.20645
1.20893
1.21282
1.21913
1.23686
1.25426
1.26248
1.26761
1.27213
1.2757
1.27166
1.26457
1.26465
1.26806
1.27293
1.28311
1.30664
1.32373
1.33156
1.337
1.3419
1.34201
1.33092
1.3253
1.32735
1.33226
1.33855
1.3552
1.38461
1.40173
1.40972
1.41585
1.42058
1.41266
1.39671
1.39255
1.39612
1.40312
1.41262
1.43962
1.47439
1.49305
1.50278
1.51026
1.51412
1.4985
1.47947
1.47627
1.48148
1.49051
1.50573
1.54055
1.57512
1.59655
1.61125
1.62336
1.6259
1.60962
1.59029
1.5872
1.59546
1.61227
1.64509
1.6772
1.69748
1.70962
1.71558
1.71428
2.67296
8.59243
1.08898
1.09742
1.10044
1.10354
1.10418
1.10171
1.10228
1.10503
1.1085
1.11511
1.13066
1.14264
1.14869
1.15292
1.1566
1.15968
1.15831
1.15462
1.15548
1.15847
1.16227
1.17104
1.18934
1.20139
1.20737
1.21175
1.21573
1.21822
1.21352
1.20934
1.21082
1.21437
1.21898
1.2315
1.25272
1.26457
1.27053
1.2751
1.27929
1.27883
1.27004
1.26696
1.26947
1.27379
1.27979
1.29784
1.32181
1.33356
1.33984
1.34498
1.34889
1.34191
1.33066
1.329
1.33216
1.33763
1.34612
1.37165
1.39925
1.41218
1.41954
1.42578
1.42732
1.41094
1.39735
1.39696
1.40221
1.40933
1.42094
1.45386
1.48577
1.50121
1.51054
1.51913
1.52126
1.50079
1.48266
1.48122
1.48782
1.49767
1.51565
1.5517
1.58307
1.60259
1.61685
1.62821
1.62962
1.61203
1.59262
1.58944
1.59713
1.61491
1.64931
1.67889
1.69544
1.70239
1.71415
2.69288
8.60806
1.09127
1.10032
1.10343
1.10668
1.10828
1.10586
1.10548
1.10785
1.11111
1.11574
1.12908
1.14386
1.15128
1.15585
1.15966
1.1631
1.16358
1.15894
1.1582
1.16075
1.16436
1.16999
1.18627
1.20253
1.21017
1.21485
1.21888
1.22234
1.22008
1.21345
1.21311
1.21614
1.22026
1.22759
1.24782
1.26538
1.27321
1.27818
1.28261
1.28537
1.27841
1.27088
1.27131
1.27479
1.27956
1.28947
1.31479
1.33417
1.34258
1.34821
1.3532
1.35333
1.33992
1.33145
1.33256
1.33724
1.34334
1.35713
1.38877
1.41134
1.42088
1.42714
1.43302
1.43111
1.4123
1.40157
1.40182
1.40651
1.41384
1.43031
1.46813
1.49754
1.51141
1.5201
1.52706
1.52538
1.50417
1.48851
1.488
1.49429
1.50416
1.52551
1.56203
1.59053
1.60844
1.62203
1.63217
1.63193
1.61323
1.59326
1.58924
1.59599
1.61467
1.64995
1.67698
1.68858
1.70487
2.72776
8.6257
1.09329
1.10332
1.10662
1.11002
1.11249
1.11075
1.10902
1.11065
1.11363
1.11733
1.1271
1.1441
1.15385
1.1589
1.16279
1.16632
1.16836
1.16415
1.16137
1.1632
1.16659
1.17075
1.18209
1.20172
1.21261
1.21803
1.22213
1.2259
1.2266
1.21936
1.21605
1.21808
1.22177
1.22651
1.24038
1.26328
1.27541
1.2814
1.28594
1.29011
1.28828
1.27745
1.27367
1.27582
1.28006
1.28586
1.30332
1.33047
1.34472
1.35175
1.35692
1.361
1.35411
1.33906
1.33507
1.3377
1.34291
1.34955
1.36947
1.40255
1.42101
1.42991
1.43682
1.44254
1.4342
1.41243
1.40408
1.4067
1.41303
1.42065
1.43997
1.47891
1.5051
1.51755
1.52656
1.5348
1.5321
1.50856
1.49314
1.49337
1.50062
1.51116
1.53527
1.57084
1.59654
1.61321
1.62638
1.63565
1.6344
1.61334
1.59194
1.58694
1.5926
1.61211
1.64735
1.66943
1.69072
2.77221
8.64573
1.09477
1.10646
1.11004
1.11354
1.11652
1.1161
1.1128
1.11337
1.11608
1.11952
1.12586
1.14233
1.15565
1.16182
1.1659
1.16952
1.17258
1.17039
1.16545
1.16589
1.16878
1.17244
1.17894
1.19753
1.2137
1.22085
1.22532
1.22927
1.2322
1.2274
1.22024
1.22022
1.22324
1.22733
1.23478
1.25644
1.2758
1.28404
1.28911
1.29357
1.29632
1.28762
1.27774
1.27755
1.28103
1.2858
1.29403
1.31906
1.34303
1.35313
1.35914
1.36442
1.36739
1.35518
1.34119
1.339
1.34179
1.34728
1.35591
1.38335
1.41564
1.4308
1.4382
1.4438
1.44861
1.43784
1.41712
1.41056
1.4122
1.4174
1.42557
1.44982
1.48989
1.51469
1.52674
1.53521
1.54135
1.53595
1.51344
1.49906
1.49901
1.5057
1.5168
1.5445
1.57979
1.60341
1.61848
1.63046
1.63843
1.63602
1.61295
1.58942
1.58298
1.58725
1.60861
1.64017
1.66866
2.81718
8.66424
1.09563
1.10963
1.11347
1.11699
1.12013
1.12127
1.1174
1.11645
1.1187
1.12191
1.12601
1.13843
1.15582
1.16448
1.16911
1.1729
1.17638
1.17685
1.17084
1.16877
1.17081
1.17418
1.17846
1.19127
1.21229
1.22322
1.2286
1.23262
1.23632
1.23589
1.22673
1.22298
1.225
1.22868
1.23334
1.24668
1.27177
1.28595
1.29243
1.29693
1.30115
1.29944
1.28654
1.2808
1.28223
1.28588
1.2911
1.3042
1.33391
1.35365
1.36236
1.36845
1.37376
1.3725
1.35446
1.3428
1.34297
1.34727
1.353
1.36311
1.39484
1.42476
1.43809
1.44633
1.45345
1.45706
1.44066
1.41916
1.41362
1.41744
1.42425
1.43286
1.45875
1.4977
1.52022
1.53171
1.54078
1.54814
1.54254
1.51826
1.50318
1.50324
1.51036
1.5229
1.55292
1.58682
1.60846
1.62286
1.63443
1.64141
1.63706
1.61196
1.58574
1.57697
1.58072
1.60167
1.63876
2.85002
8.67935
1.09531
1.112
1.11667
1.12033
1.12357
1.12603
1.12336
1.12021
1.12136
1.12409
1.12747
1.13476
1.15311
1.16638
1.17235
1.17631
1.17989
1.18242
1.17787
1.17239
1.17307
1.17611
1.17986
1.18671
1.20657
1.22388
1.23121
1.23568
1.23962
1.24251
1.23633
1.22762
1.22729
1.23034
1.23427
1.24048
1.26122
1.28455
1.29454
1.30006
1.30454
1.30804
1.30041
1.28673
1.2837
1.28633
1.29079
1.297
1.31717
1.3478
1.36324
1.37006
1.37512
1.38027
1.37639
1.35703
1.34764
1.34776
1.35123
1.35699
1.37148
1.4083
1.43615
1.44771
1.45418
1.45956
1.46232
1.44552
1.4256
1.42087
1.42317
1.42864
1.4381
1.468
1.50674
1.52814
1.53918
1.54769
1.55315
1.54666
1.52359
1.50836
1.50744
1.51339
1.52625
1.55903
1.59317
1.61405
1.62728
1.63733
1.64267
1.63677
1.6108
1.58137
1.56915
1.57013
1.60226
2.86081
8.69389
1.09372
1.11318
1.11968
1.12371
1.12709
1.13016
1.12991
1.12482
1.12395
1.12619
1.12946
1.13391
1.14781
1.16639
1.17514
1.17967
1.18328
1.18657
1.18574
1.17815
1.17603
1.1783
1.18178
1.1859
1.19817
1.2208
1.23312
1.23883
1.24294
1.24683
1.24659
1.23595
1.23062
1.23202
1.23535
1.23972
1.25004
1.27632
1.29529
1.30334
1.30843
1.31275
1.31341
1.29939
1.28837
1.28828
1.29176
1.29653
1.30391
1.32946
1.3585
1.3715
1.3786
1.38455
1.38897
1.37872
1.35719
1.35003
1.35275
1.35816
1.36406
1.37961
1.41683
1.44197
1.4531
1.46136
1.46844
1.46964
1.44948
1.42881
1.42424
1.42856
1.43562
1.44605
1.47672
1.51298
1.53255
1.54359
1.55289
1.55962
1.55279
1.52701
1.51029
1.5092
1.51558
1.5296
1.56362
1.59732
1.61731
1.62985
1.63878
1.64231
1.63521
1.60864
1.57729
1.55689
1.56274
2.84081
8.71077
1.09185
1.11232
1.12228
1.12706
1.13051
1.13368
1.13556
1.13102
1.12733
1.12873
1.13177
1.13527
1.14289
1.16235
1.17644
1.18255
1.18653
1.19015
1.19258
1.1869
1.18038
1.18076
1.18357
1.18718
1.19303
1.21243
1.23291
1.24151
1.24628
1.25026
1.25352
1.2477
1.23625
1.23425
1.2371
1.24107
1.24598
1.26194
1.28972
1.30421
1.31067
1.31546
1.31992
1.31756
1.30114
1.2927
1.29323
1.29639
1.30133
1.31177
1.34276
1.36947
1.38038
1.38596
1.39048
1.39445
1.38267
1.36297
1.35733
1.35839
1.36214
1.36838
1.38852
1.42818
1.45233
1.46227
1.46836
1.4737
1.47452
1.45559
1.43632
1.43191
1.43457
1.44027
1.45155
1.48573
1.52176
1.54011
1.54998
1.5581
1.56327
1.5563
1.53134
1.51425
1.51209
1.51714
1.53064
1.5658
1.60012
1.61976
1.63111
1.63818
1.64009
1.63211
1.60558
1.56689
1.54152
2.79033
8.7316
1.09135
1.1085
1.12359
1.13004
1.13377
1.13704
1.13996
1.13852
1.13243
1.13174
1.13407
1.13726
1.14147
1.15515
1.17542
1.18512
1.18998
1.19366
1.19706
1.19634
1.18721
1.18366
1.18557
1.18902
1.19302
1.20294
1.22689
1.24289
1.24959
1.2537
1.2576
1.25866
1.24742
1.23892
1.23942
1.24248
1.24635
1.25256
1.27451
1.30086
1.31275
1.31912
1.32422
1.32823
1.32012
1.30159
1.29575
1.29832
1.30276
1.30767
1.31961
1.35262
1.37671
1.38682
1.39371
1.39972
1.40231
1.38576
1.36511
1.36016
1.36367
1.36948
1.37593
1.39618
1.43427
1.45633
1.46655
1.47452
1.48139
1.48178
1.46166
1.44088
1.43556
1.4395
1.44658
1.45947
1.49373
1.52646
1.54309
1.55351
1.56284
1.56947
1.56218
1.5347
1.51585
1.51316
1.51794
1.53121
1.56656
1.60097
1.62011
1.63038
1.63582
1.63625
1.62818
1.59538
1.5482
2.72457
8.75765
1.09259
1.10331
1.12223
1.13221
1.13698
1.14051
1.14373
1.14537
1.13964
1.13525
1.13643
1.13937
1.14287
1.14984
1.16968
1.18615
1.19294
1.19688
1.20038
1.20311
1.1974
1.18872
1.18827
1.19114
1.19474
1.1992
1.21464
1.23956
1.25161
1.25727
1.26125
1.26498
1.26191
1.24797
1.24224
1.24371
1.24721
1.25155
1.26049
1.28752
1.31106
1.32065
1.32594
1.33042
1.33396
1.32341
1.3064
1.30224
1.30365
1.30714
1.31249
1.32869
1.36415
1.38664
1.39553
1.40051
1.40501
1.40758
1.39167
1.3728
1.36831
1.36963
1.37349
1.38018
1.40396
1.44367
1.46564
1.47481
1.48081
1.48646
1.48759
1.46903
1.44824
1.44249
1.44466
1.45009
1.46336
1.50017
1.53419
1.55127
1.56051
1.56821
1.5733
1.5658
1.53887
1.51885
1.51481
1.51851
1.53038
1.56543
1.60026
1.61909
1.62811
1.63164
1.632
1.61872
1.58187
2.67595
8.78716
1.09467
1.10061
1.11741
1.13342
1.14023
1.144
1.14715
1.15
1.14809
1.14071
1.13946
1.14184
1.14517
1.14906
1.16082
1.18291
1.19477
1.20012
1.20382
1.20738
1.20781
1.19793
1.19221
1.19327
1.19621
1.19996
1.20635
1.22793
1.2507
1.26025
1.26528
1.26907
1.27196
1.26318
1.24912
1.24637
1.24913
1.25302
1.25743
1.26871
1.29847
1.31946
1.32819
1.33402
1.33929
1.34107
1.32519
1.30806
1.30545
1.30909
1.31396
1.3193
1.33622
1.37112
1.39161
1.40073
1.40785
1.41384
1.41501
1.3966
1.37627
1.37121
1.37468
1.38052
1.38774
1.41096
1.4483
1.46871
1.47873
1.48674
1.4935
1.49443
1.47514
1.45248
1.44515
1.44812
1.45498
1.46967
1.50595
1.53801
1.55407
1.56388
1.57252
1.57879
1.57161
1.54317
1.52079
1.51497
1.51789
1.52839
1.563
1.59839
1.61684
1.62409
1.62707
1.6233
1.61562
2.66397
8.8154
1.09723
1.10151
1.11141
1.13102
1.1419
1.14679
1.15032
1.15362
1.15556
1.14942
1.1438
1.14457
1.14724
1.15052
1.15573
1.17368
1.19434
1.203
1.20738
1.21097
1.21419
1.21012
1.19873
1.1959
1.1983
1.20198
1.20595
1.21494
1.24054
1.25988
1.26765
1.27254
1.27648
1.27796
1.26572
1.25358
1.2522
1.25436
1.25797
1.26292
1.27834
1.30974
1.3284
1.33601
1.34042
1.34461
1.34599
1.33005
1.31519
1.31299
1.31453
1.3181
1.32389
1.34457
1.38106
1.40111
1.40917
1.41392
1.4186
1.42062
1.40407
1.38466
1.37965
1.38098
1.38473
1.3916
1.41721
1.45631
1.47706
1.48585
1.49163
1.49778
1.50064
1.48328
1.45976
1.45166
1.45272
1.45748
1.47096
1.50866
1.54345
1.56108
1.5703
1.57745
1.58214
1.57587
1.54796
1.52265
1.51446
1.51617
1.52548
1.55965
1.59522
1.61258
1.61935
1.61759
1.63212
2.68507
8.83924
1.10023
1.10373
1.1081
1.12394
1.14204
1.14981
1.1539
1.15722
1.16031
1.15919
1.15038
1.14749
1.14945
1.1527
1.1563
1.16454
1.18703
1.20381
1.21063
1.21447
1.21807
1.2202
1.21117
1.20151
1.20124
1.204
1.20735
1.2114
1.22414
1.25177
1.26837
1.27562
1.28066
1.28483
1.28388
1.26747
1.25625
1.25648
1.26026
1.26438
1.26921
1.28653
1.31795
1.33476
1.3423
1.34822
1.35339
1.35277
1.33395
1.31817
1.31618
1.31991
1.32503
1.33072
1.35089
1.38578
1.40464
1.41367
1.42088
1.42672
1.42802
1.41099
1.3898
1.38271
1.38527
1.39096
1.39855
1.42316
1.45946
1.47906
1.48965
1.49861
1.50526
1.50727
1.48931
1.46379
1.45341
1.45476
1.46077
1.47484
1.51122
1.54559
1.56311
1.57283
1.58064
1.58593
1.58082
1.55237
1.52385
1.5131
1.51358
1.5215
1.55514
1.58998
1.6073
1.60953
1.63372
2.73206
8.86204
1.10327
1.10577
1.10888
1.11704
1.1375
1.15154
1.15725
1.16059
1.16378
1.16628
1.16077
1.15273
1.15245
1.15505
1.15827
1.162
1.17414
1.19884
1.21248
1.2184
1.22216
1.2257
1.225
1.2123
1.20496
1.2056
1.20858
1.21226
1.21717
1.23421
1.26203
1.27618
1.2824
1.28692
1.29103
1.28894
1.27237
1.26313
1.26311
1.26515
1.26889
1.27469
1.29586
1.32768
1.34347
1.35015
1.35409
1.35868
1.35922
1.34131
1.32634
1.32393
1.32522
1.32862
1.33469
1.35774
1.39456
1.41386
1.42162
1.4262
1.43122
1.43455
1.42015
1.39827
1.39062
1.39113
1.3945
1.40147
1.42801
1.46755
1.4885
1.49741
1.50324
1.50927
1.51285
1.49705
1.47082
1.45933
1.45898
1.46296
1.47412
1.51041
1.54799
1.56755
1.57714
1.58376
1.5883
1.58451
1.55658
1.52444
1.51063
1.50986
1.51685
1.54969
1.58392
1.59663
1.62653
2.78896
8.88279
1.10686
1.10848
1.11144
1.11532
1.12804
1.14911
1.15941
1.1642
1.16757
1.17091
1.17154
1.16219
1.15653
1.15732
1.1598
1.16312
1.16814
1.18556
1.21001
1.22116
1.22629
1.22972
1.23302
1.22834
1.21394
1.209
1.21081
1.2142
1.21774
1.22304
1.24342
1.27082
1.28354
1.28982
1.29495
1.29918
1.29419
1.27511
1.26589
1.26709
1.27098
1.27516
1.28072
1.30262
1.33366
1.34846
1.356
1.36221
1.3673
1.36628
1.34682
1.32983
1.32674
1.33023
1.33541
1.34154
1.36312
1.3979
1.41644
1.42575
1.43313
1.43909
1.44178
1.42754
1.40388
1.39359
1.39487
1.40031
1.40807
1.43318
1.46988
1.48978
1.5005
1.50948
1.51647
1.51972
1.50375
1.47542
1.46105
1.46012
1.46499
1.47635
1.51076
1.54857
1.56871
1.57868
1.58562
1.59001
1.58718
1.56051
1.52498
1.50751
1.50541
1.51164
1.54489
1.57213
1.60917
2.84613
8.90017
1.11182
1.11147
1.11384
1.11664
1.12162
1.13975
1.15962
1.16768
1.17167
1.17496
1.178
1.1744
1.16309
1.16004
1.16217
1.16552
1.16907
1.1753
1.19664
1.21923
1.22873
1.23383
1.23765
1.24029
1.23165
1.21782
1.21446
1.21595
1.21877
1.22272
1.22968
1.25375
1.27993
1.29129
1.29677
1.30063
1.30454
1.29975
1.2816
1.27345
1.27344
1.27526
1.27911
1.28589
1.31116
1.34301
1.35749
1.36366
1.36743
1.37212
1.37319
1.35545
1.33844
1.3348
1.3358
1.33884
1.34489
1.36837
1.40577
1.42557
1.43348
1.43815
1.44335
1.44791
1.43666
1.41246
1.40138
1.40059
1.40312
1.40951
1.43519
1.47622
1.49926
1.50871
1.51462
1.52034
1.52477
1.51222
1.48339
1.46697
1.46445
1.46745
1.47554
1.50796
1.54811
1.56986
1.57993
1.58644
1.59076
1.5892
1.56425
1.52558
1.50403
1.49999
1.50676
1.53444
1.5814
2.8912
8.91341
1.11832
1.11403
1.11558
1.11852
1.12192
1.13018
1.15263
1.16896
1.1754
1.17878
1.18201
1.18411
1.17576
1.16598
1.16547
1.16793
1.1709
1.1743
1.18225
1.2072
1.22818
1.23687
1.2419
1.2457
1.24717
1.23456
1.2202
1.21806
1.22119
1.22515
1.22894
1.23618
1.26201
1.28708
1.2975
1.30355
1.30879
1.31276
1.30531
1.28504
1.27589
1.27719
1.28127
1.28581
1.2922
1.31696
1.34738
1.36128
1.36887
1.37514
1.38027
1.38036
1.36245
1.34291
1.33744
1.34017
1.34525
1.35182
1.37352
1.4083
1.42748
1.43722
1.44503
1.45118
1.45491
1.44374
1.41799
1.40396
1.40334
1.40839
1.41579
1.43972
1.47795
1.49982
1.51087
1.52036
1.52755
1.53173
1.51933
1.48865
1.46903
1.46493
1.46835
1.47657
1.50645
1.54635
1.56949
1.58038
1.58695
1.59076
1.58937
1.56718
1.52735
1.50039
1.49408
1.49589
1.54535
2.9106
8.9243
1.12658
1.11818
1.11816
1.12089
1.12404
1.1278
1.13962
1.16381
1.17732
1.18307
1.18654
1.1898
1.18944
1.17714
1.16929
1.16954
1.17229
1.17576
1.17993
1.19073
1.21739
1.23598
1.24349
1.24829
1.25209
1.25273
1.23935
1.22686
1.2253
1.2269
1.22976
1.23388
1.24326
1.27153
1.29569
1.30552
1.31041
1.31371
1.31774
1.31201
1.29282
1.28428
1.28418
1.28585
1.28964
1.29685
1.32399
1.35595
1.3702
1.37625
1.37992
1.38463
1.38721
1.37187
1.35186
1.34579
1.34638
1.34908
1.35475
1.37691
1.41506
1.4366
1.44518
1.44999
1.4552
1.46057
1.45309
1.42779
1.41299
1.41053
1.41199
1.41686
1.43788
1.47985
1.50783
1.51926
1.5255
1.53051
1.53511
1.52708
1.49768
1.47517
1.46891
1.47024
1.47563
1.50194
1.54354
1.56884
1.58021
1.58634
1.58966
1.58833
1.56948
1.52984
1.49932
1.48116
1.50411
2.89178
8.93671
1.1357
1.12654
1.12207
1.12357
1.12605
1.12897
1.1337
1.14989
1.17454
1.1861
1.19111
1.19418
1.19713
1.19297
1.17858
1.17323
1.17498
1.17836
1.18184
1.1857
1.19802
1.22597
1.24325
1.25049
1.25544
1.25972
1.25967
1.24375
1.23016
1.22887
1.23219
1.23622
1.24021
1.24938
1.27802
1.30107
1.31042
1.31651
1.32173
1.32563
1.31868
1.29807
1.28725
1.28758
1.29157
1.29633
1.30323
1.32852
1.35886
1.37295
1.3808
1.3873
1.39247
1.39447
1.37977
1.35766
1.34869
1.35014
1.35497
1.36145
1.38133
1.4165
1.43745
1.44822
1.45719
1.46381
1.46848
1.46071
1.43321
1.41401
1.41054
1.41448
1.42088
1.44001
1.4791
1.50649
1.51921
1.52868
1.53663
1.54156
1.53423
1.50376
1.47768
1.46894
1.46999
1.47546
1.49909
1.53987
1.56672
1.57911
1.58509
1.58769
1.5861
1.5699
1.53289
1.49119
1.48018
2.83447
8.95357
1.14237
1.13899
1.12796
1.12631
1.12856
1.13174
1.13499
1.14069
1.16047
1.18363
1.19353
1.1985
1.20188
1.20431
1.19631
1.18252
1.17918
1.18061
1.18307
1.18662
1.19137
1.20666
1.23473
1.25044
1.25698
1.26111
1.26465
1.2649
1.25033
1.23796
1.23646
1.23779
1.24049
1.24471
1.2558
1.28621
1.30926
1.3184
1.32296
1.3263
1.33077
1.32678
1.30718
1.2961
1.29514
1.29644
1.29983
1.30676
1.33339
1.3664
1.38175
1.38814
1.39191
1.3966
1.40074
1.38973
1.36716
1.35733
1.35672
1.35867
1.36361
1.38236
1.42125
1.44692
1.4574
1.46285
1.46699
1.47185
1.46743
1.44135
1.42167
1.41729
1.41866
1.42261
1.4365
1.47657
1.51191
1.52741
1.53439
1.5393
1.54344
1.53969
1.51275
1.48388
1.47219
1.47123
1.47431
1.49329
1.5346
1.56438
1.57766
1.58297
1.58467
1.58228
1.56932
1.52784
1.48644
2.75425
8.97822
1.14622
1.15008
1.14004
1.1318
1.13195
1.13452
1.1375
1.14068
1.14728
1.16967
1.1918
1.20111
1.20609
1.20948
1.21116
1.20012
1.18569
1.18289
1.18565
1.18937
1.19291
1.19717
1.21356
1.24178
1.25648
1.26298
1.26804
1.27252
1.2721
1.25556
1.24141
1.23961
1.24278
1.24687
1.25098
1.26115
1.29074
1.3131
1.32247
1.32894
1.33431
1.33854
1.33433
1.31397
1.29966
1.29793
1.30142
1.30622
1.31307
1.33689
1.36808
1.3836
1.39209
1.39915
1.40456
1.40804
1.39806
1.37395
1.36045
1.35961
1.36396
1.36997
1.38609
1.4219
1.4472
1.45883
1.46728
1.47435
1.47976
1.47698
1.45207
1.42778
1.41956
1.42144
1.42676
1.43906
1.47505
1.5096
1.52575
1.53509
1.54334
1.54857
1.54595
1.51945
1.48728
1.47201
1.46968
1.47258
1.48912
1.52957
1.56125
1.57505
1.57978
1.58034
1.57878
1.56186
1.5275
2.69365
9.00912
1.15002
1.15599
1.15443
1.14216
1.13601
1.13683
1.13941
1.14245
1.14602
1.15408
1.17808
1.19891
1.20757
1.21258
1.21634
1.2174
1.20536
1.19246
1.19034
1.1917
1.19391
1.19744
1.20283
1.22176
1.2498
1.26392
1.26998
1.27355
1.27719
1.27811
1.26344
1.24973
1.24741
1.24838
1.25069
1.25481
1.26636
1.29778
1.32141
1.33074
1.33533
1.33862
1.34324
1.34239
1.32381
1.3088
1.30596
1.30691
1.30972
1.31572
1.33953
1.37449
1.39255
1.39983
1.40395
1.40859
1.41361
1.4077
1.38415
1.3695
1.36686
1.36759
1.37132
1.38486
1.42266
1.45473
1.46906
1.4761
1.48164
1.48716
1.48607
1.46324
1.43714
1.42733
1.42638
1.42856
1.43629
1.46965
1.51145
1.5329
1.54103
1.54591
1.54937
1.54881
1.52794
1.49413
1.4746
1.46979
1.47069
1.48316
1.52337
1.5575
1.57188
1.57538
1.57646
1.57
1.57004
2.68071
9.03854
1.15265
1.16021
1.1629
1.1586
1.14538
1.14098
1.14243
1.14521
1.14807
1.15127
1.15963
1.18532
1.20606
1.21459
1.21953
1.22353
1.22439
1.21099
1.19634
1.19365
1.19643
1.20013
1.20375
1.20854
1.22753
1.25543
1.26889
1.27536
1.28077
1.28532
1.2856
1.26974
1.25354
1.25006
1.25276
1.25691
1.26126
1.27156
1.30108
1.32404
1.33397
1.34086
1.3465
1.35106
1.35028
1.33196
1.3136
1.30858
1.31118
1.31584
1.32212
1.34267
1.37526
1.39351
1.40301
1.41099
1.4169
1.42132
1.41599
1.39169
1.37281
1.36842
1.37155
1.37696
1.38847
1.42254
1.45603
1.47254
1.48136
1.4871
1.49196
1.49239
1.47235
1.44327
1.4287
1.42729
1.43129
1.43936
1.46809
1.50835
1.53006
1.53987
1.54762
1.55297
1.55383
1.53467
1.49804
1.47397
1.46685
1.4676
1.47842
1.51747
1.5528
1.56707
1.57144
1.56643
1.59087
2.70678
9.06258
1.1527
1.16518
1.16843
1.17103
1.16303
1.14982
1.14636
1.14721
1.14918
1.15239
1.15657
1.16711
1.19359
1.21293
1.22076
1.22528
1.22886
1.22992
1.2179
1.20429
1.2015
1.20247
1.20443
1.20798
1.21376
1.23468
1.26304
1.27675
1.28259
1.28599
1.2897
1.29183
1.2787
1.26252
1.25842
1.25897
1.26073
1.26466
1.27522
1.30619
1.33187
1.34247
1.34746
1.35089
1.35558
1.35781
1.34266
1.32325
1.31722
1.31741
1.31936
1.32427
1.3433
1.37979
1.40253
1.41166
1.4164
1.42058
1.42586
1.4247
1.40269
1.38227
1.37633
1.37611
1.37846
1.3865
1.41795
1.45581
1.47519
1.48345
1.48929
1.49466
1.49791
1.48437
1.45449
1.43703
1.43283
1.43328
1.43743
1.46102
1.50601
1.53484
1.54533
1.54991
1.55287
1.55388
1.54063
1.50445
1.47562
1.46557
1.46487
1.47313
1.51107
1.54636
1.5619
1.56073
1.59451
2.76116
9.08609
1.14767
1.16857
1.17334
1.17683
1.178
1.16639
1.15231
1.14966
1.15209
1.15538
1.15859
1.1623
1.17317
1.20034
1.21905
1.22667
1.23162
1.23602
1.23762
1.22458
1.20831
1.20437
1.20681
1.21055
1.21435
1.21933
1.2392
1.26718
1.28066
1.28748
1.29318
1.29782
1.29955
1.28649
1.26765
1.2609
1.26252
1.26644
1.27098
1.28005
1.30818
1.33351
1.34501
1.35267
1.35886
1.36364
1.36552
1.35136
1.32921
1.31973
1.32061
1.32496
1.3306
1.34643
1.3797
1.40242
1.41352
1.42236
1.42915
1.43418
1.43318
1.41168
1.38714
1.37743
1.37783
1.38202
1.38947
1.41586
1.45519
1.47805
1.48847
1.49611
1.50178
1.50464
1.49258
1.461
1.43837
1.43231
1.43461
1.44011
1.46009
1.50207
1.53077
1.54202
1.54862
1.55427
1.55715
1.54692
1.50999
1.47587
1.46244
1.46101
1.46824
1.50427
1.53923
1.54938
1.58922
2.8262
9.10774
1.13632
1.16695
1.17566
1.18026
1.18363
1.18343
1.17029
1.1583
1.15676
1.15812
1.16001
1.16314
1.16767
1.18065
1.20827
1.2261
1.23335
1.23738
1.24017
1.24202
1.23199
1.21686
1.21263
1.21333
1.21493
1.21825
1.22383
1.24488
1.27438
1.28891
1.29494
1.29837
1.30206
1.3055
1.29629
1.27728
1.26967
1.26939
1.27054
1.27398
1.28241
1.31133
1.34094
1.35408
1.35982
1.3632
1.36749
1.3715
1.36176
1.3394
1.32883
1.32765
1.32872
1.33253
1.3456
1.38102
1.41051
1.42314
1.42901
1.43285
1.43785
1.44058
1.42454
1.39821
1.38607
1.38455
1.38711
1.39263
1.41408
1.45455
1.48267
1.49408
1.49893
1.50245
1.50684
1.50121
1.4723
1.44723
1.43855
1.4371
1.4389
1.45294
1.49564
1.53188
1.54666
1.55166
1.55515
1.55717
1.54997
1.5154
1.47681
1.45942
1.4569
1.46326
1.49853
1.52484
1.5722
2.88958
9.12282
1.12589
1.15321
1.1731
1.18135
1.18626
1.18995
1.19026
1.17627
1.16247
1.16022
1.16292
1.16655
1.16998
1.17393
1.18627
1.21356
1.23068
1.23768
1.24276
1.24731
1.24987
1.23959
1.2218
1.21537
1.21701
1.22067
1.22469
1.22964
1.24851
1.27727
1.2919
1.29923
1.30532
1.31008
1.31327
1.30487
1.284
1.27254
1.27215
1.27566
1.28026
1.28788
1.31319
1.34183
1.35561
1.36363
1.37048
1.37554
1.37899
1.37067
1.34703
1.33198
1.32994
1.33356