/*--------------------------------*- C++ -*----------------------------------*\
  =========                 |
  \\      /  F ield         | OpenFOAM: The Open Source CFD Toolbox
   \\    /   O peration     | Website:  https://openfoam.org
    \\  /    A nd           | Version:  12
     \\/     M anipulation  |
\*---------------------------------------------------------------------------*/
FoamFile
{
    format      ascii;
    class       volScalarField;
    location    "11.6";
    object      T;
}
// * * * * * * * * * * * * * * * * * * * * * * * * * * * * * * * * * * * * * //

dimensions      [0 0 0 1 0 0 0];

internalField   nonuniform List<scalar> 
9801
(
0.841074
0.842694
0.843708
0.844306
0.843998
0.84442
0.845366
0.846795
0.849874
0.853582
0.856007
0.857605
0.85891
0.860051
0.860962
0.860552
0.860586
0.861449
0.862679
0.865047
0.869113
0.872231
0.874138
0.875589
0.876805
0.877814
0.877432
0.876936
0.877661
0.878806
0.880681
0.884658
0.888606
0.890959
0.892513
0.893803
0.894925
0.894271
0.893384
0.894081
0.895276
0.897054
0.90099
0.905658
0.908383
0.910158
0.911565
0.91258
0.911401
0.910118
0.910778
0.912167
0.914159
0.918698
0.923992
0.927063
0.929026
0.930447
0.931256
0.928979
0.927314
0.92809
0.929811
0.932519
0.938362
0.944433
0.947934
0.950026
0.951716
0.952074
0.948037
0.945786
0.946875
0.949167
0.95368
0.962027
0.968436
0.971925
0.974259
0.976197
0.975088
0.969045
0.967374
0.969788
0.97404
0.984118
0.995132
1.00151
1.00588
1.00999
1.01167
1.00548
0.999153
1.00109
1.00988
1.03158
1.05358
1.18558
1.55739
0.84494
0.846619
0.847455
0.847944
0.8478
0.848215
0.849101
0.850353
0.853421
0.857423
0.859904
0.861457
0.862672
0.863706
0.864401
0.86407
0.86414
0.864938
0.866047
0.868276
0.872564
0.875842
0.87775
0.879125
0.880252
0.881119
0.880693
0.880289
0.880954
0.882013
0.883701
0.887753
0.891888
0.894257
0.895789
0.89703
0.898021
0.897453
0.896653
0.89722
0.898307
0.899854
0.903706
0.908564
0.911412
0.913199
0.914568
0.915561
0.914532
0.913254
0.913789
0.915016
0.916712
0.921008
0.92651
0.929769
0.931781
0.933251
0.934191
0.932255
0.930532
0.93112
0.932651
0.934837
0.940416
0.946657
0.950258
0.952461
0.954247
0.954987
0.951573
0.949207
0.950069
0.952104
0.955679
0.96353
0.970435
0.974358
0.977026
0.97938
0.979244
0.973501
0.971257
0.97329
0.976733
0.984723
0.995705
1.00284
1.00773
1.01236
1.01541
1.0114
1.00517
1.00513
1.01149
1.02616
1.04683
1.18087
1.57648
0.848863
0.850587
0.851412
0.851944
0.851923
0.852377
0.853276
0.854444
0.857365
0.861521
0.864028
0.865545
0.866733
0.867742
0.868417
0.86816
0.868287
0.869097
0.870189
0.872248
0.876564
0.879931
0.881829
0.883189
0.884333
0.88521
0.884851
0.884497
0.885166
0.886236
0.887799
0.89169
0.895909
0.898306
0.899864
0.901153
0.902233
0.901893
0.901008
0.901498
0.902585
0.904041
0.907624
0.912591
0.915572
0.9174
0.918809
0.919967
0.919263
0.917868
0.91828
0.919503
0.921092
0.924926
0.930556
0.934053
0.936148
0.937725
0.939004
0.9378
0.93585
0.936157
0.937599
0.939429
0.943844
0.950556
0.954803
0.957297
0.959305
0.96066
0.958337
0.955626
0.956068
0.95802
0.96067
0.967376
0.975875
0.980678
0.983589
0.986139
0.98706
0.982408
0.979121
0.98062
0.984016
0.989746
1.00127
1.01112
1.01702
1.02188
1.02611
1.02425
1.0202
1.02017
1.02441
1.03741
1.05459
1.19115
1.59577
0.853958
0.855764
0.856633
0.857154
0.857153
0.857611
0.85851
0.859657
0.862404
0.866679
0.869299
0.870851
0.872065
0.873121
0.873816
0.873571
0.873694
0.874501
0.875604
0.877488
0.881755
0.885341
0.887322
0.888727
0.889937
0.890902
0.890589
0.89018
0.890818
0.891905
0.893363
0.896977
0.901488
0.9041
0.90575
0.907119
0.908316
0.908124
0.907045
0.907435
0.908569
0.910024
0.913206
0.918453
0.921817
0.92375
0.925229
0.92652
0.926162
0.92453
0.924747
0.926009
0.927612
0.930786
0.936728
0.940886
0.943171
0.94485
0.946376
0.945842
0.943309
0.943136
0.944662
0.946617
0.950174
0.957482
0.962789
0.965566
0.967725
0.969454
0.96817
0.964476
0.964176
0.966238
0.968921
0.974051
0.983361
0.989658
0.993102
0.995892
0.998015
0.99529
0.990533
0.990568
0.994142
0.998726
1.00773
1.01927
1.02705
1.03251
1.03812
1.03956
1.03589
1.03355
1.03554
1.04551
1.05654
1.20156
1.61186
0.859578
0.861457
0.862362
0.862873
0.862826
0.863274
0.864176
0.865334
0.867925
0.872314
0.875129
0.87675
0.878005
0.879113
0.879867
0.879598
0.879629
0.880403
0.881508
0.883174
0.887328
0.891388
0.893556
0.895011
0.896264
0.897296
0.897043
0.89647
0.897006
0.898089
0.899462
0.902682
0.907699
0.910735
0.912478
0.913879
0.915104
0.91503
0.913884
0.914123
0.915233
0.916672
0.91931
0.924736
0.928742
0.930882
0.932439
0.933821
0.933909
0.932139
0.931931
0.933069
0.934662
0.937177
0.943075
0.948277
0.950992
0.95284
0.954535
0.954825
0.95206
0.951009
0.952348
0.954334
0.957187
0.963984
0.970574
0.973984
0.976313
0.978374
0.978631
0.974854
0.972794
0.974365
0.977069
0.980845
0.989399
0.99801
1.00262
1.0057
1.00858
1.00841
1.00304
1.00032
1.00239
1.00672
1.01325
1.02438
1.03413
1.04088
1.04684
1.05147
1.04973
1.04607
1.0445
1.04849
1.05458
1.2061
1.62107
0.865354
0.86729
0.868222
0.868762
0.868661
0.869091
0.870006
0.871152
0.873515
0.877983
0.881053
0.882779
0.88408
0.885229
0.886073
0.885818
0.885729
0.886463
0.887572
0.889048
0.89288
0.897428
0.899886
0.901421
0.902694
0.903779
0.903663
0.90287
0.903289
0.904376
0.905732
0.908494
0.913739
0.917266
0.919172
0.920619
0.921889
0.922104
0.920731
0.920647
0.921704
0.923158
0.925428
0.930695
0.935354
0.937827
0.939538
0.941047
0.941787
0.939902
0.938646
0.939498
0.941127
0.94341
0.948859
0.954996
0.958258
0.960276
0.962079
0.963242
0.960999
0.958428
0.958902
0.960758
0.963191
0.968849
0.976765
0.981319
0.98385
0.985982
0.987421
0.98473
0.981008
0.98099
0.983362
0.986381
0.992541
1.0024
1.00906
1.01304
1.01614
1.01796
1.01425
1.00923
1.00875
1.012
1.01665
1.02482
1.0351
1.04294
1.04909
1.05488
1.05745
1.05519
1.05053
1.04871
1.04901
1.20573
1.62593
0.870719
0.872623
0.873548
0.874068
0.873908
0.874335
0.875296
0.876492
0.878749
0.883188
0.886437
0.888239
0.889577
0.890746
0.891667
0.891388
0.891068
0.891753
0.892903
0.894395
0.897957
0.902693
0.905411
0.907056
0.908381
0.909555
0.909705
0.908537
0.908596
0.909649
0.911062
0.913623
0.918781
0.92271
0.92483
0.926372
0.927738
0.928498
0.927116
0.926108
0.926852
0.928295
0.930417
0.935367
0.940643
0.943464
0.945244
0.946787
0.948037
0.946924
0.944672
0.944702
0.946181
0.948165
0.952686
0.95956
0.963699
0.965863
0.967632
0.969181
0.968309
0.965032
0.964283
0.965655
0.967727
0.971493
0.979519
0.985979
0.989344
0.991539
0.99343
0.992531
0.988058
0.986163
0.987454
0.990105
0.993898
1.00243
1.0117
1.01697
1.02043
1.02334
1.02335
1.0179
1.01442
1.01512
1.01849
1.02378
1.03311
1.0422
1.04897
1.05463
1.05947
1.06005
1.05668
1.05083
1.04345
1.20239
1.62846
0.875462
0.877367
0.878294
0.878907
0.878612
0.878797
0.879678
0.880851
0.882992
0.887492
0.891017
0.892929
0.894311
0.895504
0.896526
0.896409
0.895663
0.896072
0.897138
0.898578
0.901982
0.90693
0.909904
0.911626
0.91299
0.914224
0.914847
0.913642
0.913046
0.91384
0.915133
0.917355
0.922423
0.926887
0.929225
0.930816
0.932216
0.933405
0.932718
0.930927
0.931029
0.932264
0.933965
0.938139
0.944193
0.947707
0.949596
0.951117
0.952535
0.952407
0.94982
0.94909
0.950103
0.951766
0.95467
0.961443
0.967105
0.969929
0.971773
0.973444
0.973783
0.970572
0.968576
0.969124
0.970923
0.973362
0.979468
0.987929
0.992767
0.995428
0.997464
0.998345
0.994586
0.990715
0.990477
0.992477
0.995174
1.00023
1.01021
1.01804
1.02246
1.02578
1.02848
1.0269
1.02065
1.01814
1.01964
1.02326
1.02943
1.03869
1.04642
1.05244
1.05775
1.06103
1.06034
1.05493
1.04395
1.19633
1.6299
0.879413
0.881365
0.882351
0.883139
0.88281
0.882688
0.883403
0.884486
0.886231
0.890569
0.89465
0.896793
0.898224
0.899433
0.900506
0.900671
0.899672
0.899744
0.900653
0.901909
0.904678
0.909856
0.913374
0.915253
0.916644
0.917887
0.918801
0.917891
0.916854
0.917309
0.91844
0.920062
0.924415
0.929722
0.932565
0.934244
0.935642
0.936944
0.936933
0.934924
0.934512
0.935394
0.936801
0.939505
0.945677
0.950469
0.952836
0.954439
0.955902
0.956566
0.954289
0.952587
0.952999
0.954392
0.956269
0.961291
0.968598
0.972687
0.974877
0.976581
0.977762
0.975547
0.972155
0.971732
0.973107
0.975107
0.978488
0.986851
0.994173
0.997751
1.00005
1.00196
1.00133
0.996237
0.993478
0.993925
0.996032
0.998953
1.00591
1.01631
1.02315
1.02718
1.03025
1.03203
1.02875
1.02306
1.02149
1.02336
1.02726
1.03422
1.04301
1.04963
1.0549
1.05939
1.06101
1.05826
1.04818
1.1914
1.63131
0.882615
0.884605
0.885601
0.886505
0.886276
0.885893
0.88647
0.887492
0.888886
0.892644
0.897335
0.899858
0.901354
0.902553
0.903618
0.904046
0.903005
0.902776
0.903554
0.904693
0.906647
0.91158
0.915906
0.918081
0.919538
0.920788
0.921853
0.921412
0.91994
0.920078
0.921048
0.922349
0.925357
0.931186
0.935009
0.936952
0.938392
0.939701
0.940283
0.938401
0.93722
0.937778
0.939011
0.940722
0.945609
0.951894
0.955207
0.957009
0.95848
0.959665
0.958297
0.955512
0.955191
0.956254
0.957862
0.960676
0.967999
0.974225
0.97721
0.979002
0.98049
0.980228
0.976277
0.974202
0.97464
0.976279
0.978411
0.983637
0.993133
0.99907
1.00209
1.00442
1.00614
1.00316
0.997323
0.995698
0.996933
0.999373
1.00278
1.01103
1.02083
1.02672
1.03036
1.03337
1.03486
1.03111
1.0256
1.02442
1.02658
1.03081
1.03839
1.04644
1.0523
1.05703
1.06003
1.06001
1.05362
1.18883
1.63282
0.885148
0.887201
0.888203
0.889171
0.889123
0.88846
0.888864
0.889834
0.891055
0.894014
0.899051
0.902098
0.903731
0.904965
0.90605
0.906774
0.905889
0.905208
0.9058
0.906856
0.908276
0.912281
0.917459
0.920187
0.921756
0.923041
0.924199
0.924403
0.922696
0.922221
0.922976
0.924165
0.926064
0.931369
0.93652
0.93902
0.940554
0.941882
0.942917
0.941711
0.939602
0.939623
0.940638
0.942059
0.945048
0.951897
0.956735
0.959037
0.960582
0.961963
0.961983
0.958803
0.957198
0.957805
0.959187
0.960918
0.965767
0.974013
0.978662
0.980946
0.982599
0.983869
0.981639
0.977209
0.976056
0.977
0.978899
0.981537
0.989085
0.998537
1.00334
1.00586
1.00783
1.00886
1.00466
0.999541
0.998633
0.999889
1.00231
1.00643
1.01562
1.02464
1.03015
1.03376
1.0367
1.03733
1.0331
1.02802
1.02707
1.0293
1.03375
1.04177
1.04935
1.05459
1.05839
1.05989
1.05791
1.1894
1.63457
0.887198
0.889317
0.890309
0.891309
0.891512
0.890713
0.890895
0.891779
0.8929
0.895033
0.89998
0.903766
0.905633
0.906928
0.908047
0.908987
0.90855
0.907385
0.90765
0.908592
0.909796
0.912532
0.918153
0.921862
0.923671
0.92498
0.926155
0.926886
0.925432
0.924137
0.924575
0.925658
0.927067
0.930874
0.93716
0.940706
0.942479
0.943815
0.945026
0.944878
0.942249
0.941319
0.942054
0.943329
0.945066
0.950445
0.957278
0.960653
0.962462
0.963916
0.965018
0.963003
0.959757
0.959267
0.960154
0.961693
0.964158
0.97151
0.979106
0.982653
0.984759
0.986446
0.986846
0.982277
0.978478
0.978347
0.979714
0.981663
0.985013
0.994121
1.0026
1.00647
1.00905
1.01147
1.01201
1.00641
1.00147
1.00105
1.00272
1.00544
1.01028
1.01971
1.0279
1.03297
1.03645
1.03921
1.03958
1.03502
1.02999
1.02911
1.03127
1.03577
1.04397
1.05115
1.05595
1.05844
1.06061
1.19338
1.63657
0.888864
0.891127
0.892138
0.893186
0.893693
0.892902
0.892771
0.893521
0.894555
0.896034
0.900292
0.90496
0.907271
0.908676
0.909843
0.910899
0.911041
0.909583
0.909346
0.910141
0.911275
0.913037
0.918085
0.92304
0.925386
0.926786
0.927976
0.928999
0.928295
0.926249
0.926134
0.927051
0.928303
0.930525
0.936653
0.941826
0.944185
0.945635
0.946917
0.94771
0.945633
0.943373
0.943487
0.944506
0.945895
0.948826
0.95626
0.961746
0.964224
0.965805
0.967209
0.967233
0.963365
0.960899
0.961207
0.962536
0.964253
0.968272
0.977266
0.983434
0.986092
0.987851
0.989503
0.988955
0.983696
0.98069
0.980715
0.98193
0.983964
0.988573
0.998987
1.00686
1.01044
1.01269
1.01456
1.01409
1.00838
1.0042
1.00402
1.0056
1.00837
1.01408
1.02362
1.03104
1.03571
1.03905
1.04147
1.04139
1.03659
1.03147
1.03045
1.03229
1.03671
1.0451
1.05224
1.05623
1.06111
1.19987
1.63896
0.89026
0.892804
0.893877
0.894976
0.895763
0.895193
0.89462
0.895131
0.896067
0.897235
0.90034
0.905707
0.908799
0.910357
0.911558
0.912656
0.913292
0.911978
0.911101
0.911677
0.912735
0.914033
0.917557
0.92356
0.926915
0.928546
0.929765
0.93088
0.931081
0.928865
0.92784
0.928457
0.929576
0.931
0.935253
0.942049
0.945649
0.947444
0.948769
0.949969
0.949419
0.946194
0.94505
0.945674
0.946916
0.948596
0.953808
0.961622
0.965674
0.967756
0.969224
0.970374
0.968398
0.964051
0.962899
0.963646
0.965082
0.967011
0.972838
0.982094
0.98706
0.989621
0.991609
0.993167
0.990842
0.984742
0.982404
0.983072
0.984712
0.986912
0.992409
1.00305
1.00987
1.01296
1.01546
1.01781
1.01709
1.01071
1.00658
1.00658
1.00846
1.01142
1.01775
1.02703
1.03378
1.03813
1.04129
1.04346
1.04311
1.03781
1.03237
1.03106
1.03238
1.03679
1.04561
1.05236
1.05989
1.20802
1.64167
0.891425
0.894492
0.895647
0.896791
0.89774
0.8976
0.896516
0.896687
0.897536
0.898623
0.900627
0.905835
0.910037
0.911985
0.913261
0.914396
0.915357
0.91468
0.913135
0.913274
0.914177
0.915313
0.917319
0.923079
0.927983
0.930185
0.93152
0.932698
0.933578
0.932116
0.929925
0.929916
0.930835
0.932076
0.934321
0.940887
0.94658
0.949081
0.950558
0.951854
0.952652
0.950081
0.947137
0.947069
0.9481
0.949478
0.951908
0.959277
0.966086
0.969022
0.970781
0.972282
0.973123
0.969611
0.965587
0.96495
0.965725
0.967274
0.969794
0.977665
0.986707
0.990838
0.992873
0.994438
0.995792
0.9928
0.987046
0.985232
0.985628
0.986987
0.989289
0.996032
1.00697
1.01356
1.01665
1.01887
1.02051
1.01904
1.01302
1.00923
1.00914
1.01088
1.01393
1.02117
1.03041
1.03666
1.04054
1.04329
1.04511
1.04454
1.03889
1.03287
1.03094
1.03168
1.03666
1.0456
1.05592
1.21629
1.64415
0.892333
0.896212
0.897433
0.89859
0.899593
0.899954
0.898694
0.898372
0.899076
0.900091
0.901393
0.905348
0.910789
0.913553
0.915003
0.916194
0.917296
0.917454
0.915585
0.914936
0.915572
0.916621
0.91794
0.92194
0.928326
0.931661
0.933303
0.934508
0.93562
0.93549
0.932707
0.931559
0.932175
0.9333
0.934685
0.938794
0.946271
0.950426
0.95239
0.953704
0.954934
0.954431
0.950614
0.948907
0.949314
0.950373
0.951858
0.955835
0.964493
0.970027
0.972563
0.974332
0.975828
0.975468
0.970299
0.96696
0.96702
0.968199
0.969789
0.972844
0.981966
0.990133
0.993663
0.99606
0.998103
0.999072
0.994505
0.988507
0.986987
0.987985
0.989778
0.992287
0.999499
1.01008
1.01595
1.0188
1.02115
1.02318
1.02176
1.0153
1.01129
1.01119
1.01306
1.01639
1.02428
1.03325
1.03898
1.04255
1.04512
1.04676
1.04581
1.03981
1.03289
1.02999
1.03052
1.03623
1.04922
1.22251
1.64574
0.892757
0.897694
0.899159
0.900364
0.9014
0.902183
0.901319
0.90029
0.900643
0.901503
0.902573
0.904888
0.910699
0.914851
0.916755
0.918003
0.919138
0.91994
0.918538
0.916821
0.917034
0.917979
0.919142
0.921256
0.927404
0.932614
0.934881
0.936217
0.937399
0.938274
0.936409
0.933762
0.933662
0.934598
0.935797
0.937667
0.944004
0.950835
0.953806
0.955459
0.956762
0.957787
0.955539
0.951483
0.950569
0.951334
0.952633
0.954469
0.960472
0.969276
0.973616
0.975589
0.977038
0.978536
0.977425
0.971896
0.969227
0.96925
0.970204
0.971869
0.976059
0.986481
0.994181
0.997293
0.999029
1.00053
1.00128
0.99665
0.991162
0.989877
0.990454
0.991899
0.994538
1.00279
1.0133
1.01897
1.02178
1.02395
1.02539
1.0237
1.0176
1.01352
1.01312
1.01468
1.01811
1.02679
1.03587
1.04131
1.04441
1.04659
1.04798
1.0468
1.04057
1.03238
1.02835
1.02852
1.03996
1.22509
1.64641
0.892686
0.89876
0.900815
0.902141
0.903221
0.904203
0.904119
0.902469
0.902179
0.902883
0.903923
0.905315
0.909763
0.915555
0.918342
0.919772
0.920914
0.92196
0.921713
0.919358
0.918694
0.919402
0.920479
0.921725
0.925565
0.93246
0.93616
0.937918
0.939154
0.940327
0.940259
0.937042
0.93543
0.93586
0.936884
0.938185
0.941369
0.949273
0.954787
0.957195
0.958702
0.959956
0.960139
0.956008
0.952741
0.952712
0.953742
0.955063
0.957249
0.964854
0.973084
0.9767
0.978824
0.98055
0.9818
0.978896
0.972744
0.97071
0.971491
0.972939
0.974602
0.979192
0.989725
0.996464
0.999365
1.00175
1.0038
1.00412
0.99853
0.992803
0.991561
0.992664
0.994554
0.997531
1.00592
1.01575
1.02095
1.02372
1.02602
1.02781
1.02612
1.01935
1.0148
1.01437
1.01599
1.01974
1.02886
1.03785
1.04288
1.04566
1.04773
1.04884
1.04751
1.04084
1.03144
1.02571
1.02887
1.22205
1.64592
0.892469
0.899189
0.902307
0.903882
0.904981
0.905995
0.906597
0.90514
0.903944
0.904386
0.905348
0.906456
0.90886
0.915022
0.919402
0.921355
0.92261
0.923759
0.924527
0.922778
0.920748
0.920861
0.92173
0.922839
0.924623
0.930646
0.936793
0.939423
0.940867
0.942064
0.943049
0.941304
0.93785
0.937254
0.938135
0.93935
0.940803
0.945721
0.953946
0.958149
0.960092
0.961474
0.962762
0.962056
0.957214
0.95472
0.954866
0.955772
0.95719
0.960309
0.969362
0.976946
0.980017
0.981608
0.982925
0.984081
0.980744
0.975139
0.973534
0.973793
0.974794
0.976589
0.982351
0.993468
1.00009
1.00273
1.00438
1.00588
1.0061
1.0009
0.995597
0.9944
0.995061
0.996576
0.999728
1.00909
1.01881
1.02367
1.02617
1.02818
1.02958
1.02783
1.02125
1.01653
1.01577
1.01709
1.02079
1.03031
1.03936
1.04406
1.04653
1.04844
1.04931
1.04781
1.0404
1.02862
1.02243
1.21331
1.64465
0.892748
0.898672
0.903316
0.905456
0.906651
0.907699
0.908634
0.908177
0.906224
0.905996
0.906729
0.907738
0.909043
0.913423
0.919731
0.92278
0.924324
0.925485
0.926557
0.92635
0.923522
0.922408
0.922994
0.924056
0.925256
0.928337
0.93569
0.940465
0.942525
0.943759
0.944937
0.945267
0.941894
0.939343
0.939501
0.940441
0.941598
0.943469
0.950169
0.957882
0.96131
0.963218
0.964686
0.965834
0.963464
0.958003
0.956275
0.957043
0.958326
0.959682
0.963293
0.97295
0.979652
0.982455
0.984529
0.986277
0.986992
0.982294
0.976379
0.974966
0.975946
0.977494
0.979353
0.985239
0.995899
1.00178
1.00443
1.00673
1.00869
1.00878
1.00324
0.997541
0.996078
0.997069
0.999001
1.00257
1.0119
1.02076
1.02519
1.0278
1.03012
1.03191
1.03013
1.02285
1.01761
1.01671
1.01796
1.0217
1.03133
1.0402
1.04456
1.04696
1.04885
1.04945
1.04761
1.03718
1.02373
1.20191
1.64371
0.893631
0.897598
0.903449
0.906722
0.908256
0.909392
0.910426
0.910955
0.909133
0.907717
0.908083
0.909012
0.910118
0.912308
0.918589
0.923679
0.92584
0.927074
0.928179
0.929035
0.927284
0.924579
0.924431
0.92531
0.926409
0.927743
0.93257
0.940099
0.943705
0.945465
0.94665
0.947787
0.946876
0.94269
0.940963
0.94141
0.942473
0.94375
0.946501
0.954635
0.961457
0.964226
0.965789
0.96709
0.96813
0.965038
0.960043
0.958819
0.959211
0.960206
0.961781
0.966572
0.976816
0.983175
0.985648
0.987033
0.98833
0.989061
0.984555
0.979189
0.977915
0.978245
0.979281
0.981202
0.987972
0.999063
1.00507
1.00748
1.0091
1.01067
1.01102
1.00599
1.00024
0.998626
0.9991
1.00058
1.00432
1.01434
1.02346
1.02794
1.03027
1.03223
1.03365
1.03177
1.02456
1.01895
1.01772
1.01878
1.02226
1.03177
1.04042
1.04466
1.04718
1.04891
1.04946
1.04507
1.03306
1.19311
1.64357
0.89476
0.897243
0.902461
0.907631
0.909841
0.911048
0.912063
0.912982
0.912379
0.910019
0.909612
0.910362
0.911408
0.912607
0.916361
0.923259
0.926921
0.92863
0.929791
0.930903
0.931044
0.927989
0.926195
0.926515
0.927413
0.928555
0.930519
0.937207
0.944019
0.946887
0.948451
0.949598
0.950472
0.947853
0.943615
0.942792
0.943637
0.944812
0.946079
0.949533
0.958429
0.964445
0.966963
0.96874
0.970266
0.970777
0.966154
0.96112
0.960353
0.961432
0.962792
0.964324
0.969399
0.97947
0.985093
0.987595
0.989707
0.991445
0.991758
0.986542
0.980749
0.979315
0.980265
0.981836
0.983933
0.990631
1.00103
1.00647
1.00908
1.0113
1.01317
1.01344
1.00819
1.00197
0.999913
1.00064
1.00255
1.00659
1.01647
1.02507
1.02927
1.03177
1.03397
1.03569
1.03388
1.02619
1.01998
1.01838
1.01932
1.02251
1.03165
1.04014
1.04453
1.04719
1.04895
1.04814
1.04325
1.19048
1.64456
0.896041
0.898016
0.901015
0.907376
0.910842
0.91244
0.91358
0.914643
0.915264
0.913319
0.911513
0.911749
0.912584
0.91361
0.915238
0.920943
0.927308
0.930014
0.931403
0.932517
0.933512
0.932264
0.92873
0.927842
0.928585
0.929723
0.930906
0.93372
0.941586
0.947327
0.949688
0.951186
0.952361
0.952806
0.949138
0.945487
0.945071
0.945716
0.946784
0.948254
0.95295
0.962232
0.967611
0.969806
0.971097
0.972348
0.972759
0.968123
0.963777
0.963129
0.963544
0.964544
0.966254
0.972305
0.982764
0.988403
0.990614
0.991937
0.993277
0.993851
0.98921
0.983717
0.982302
0.982637
0.983645
0.9856
0.992881
1.00377
1.00941
1.01171
1.01319
1.01487
1.01573
1.01105
1.00454
1.00218
1.00238
1.00374
1.00756
1.0178
1.02702
1.03162
1.03404
1.03591
1.03717
1.0355
1.02787
1.02096
1.01891
1.01959
1.02237
1.03103
1.03948
1.04411
1.04718
1.048
1.04972
1.19378
1.64659
0.897383
0.899176
0.900406
0.905609
0.911347
0.913869
0.915192
0.916257
0.917246
0.916896
0.914093
0.91316
0.913767
0.914791
0.915902
0.918509
0.925593
0.930736
0.932873
0.934068
0.935178
0.935836
0.933062
0.930075
0.929991
0.930845
0.931879
0.933096
0.937088
0.94551
0.950408
0.952586
0.954115
0.955353
0.955072
0.950159
0.946778
0.946847
0.947995
0.949196
0.950615
0.955905
0.965172
0.969929
0.97213
0.973929
0.975431
0.975247
0.969775
0.965147
0.964559
0.965636
0.967045
0.968717
0.974705
0.984672
0.989831
0.992283
0.994415
0.996121
0.996478
0.991678
0.985682
0.983686
0.984374
0.985901
0.988119
0.995134
1.00518
1.01045
1.01326
1.01568
1.01749
1.01802
1.01312
1.00611
1.00318
1.00351
1.00519
1.00911
1.01895
1.02806
1.03271
1.03534
1.03733
1.03864
1.03718
1.02943
1.02184
1.01925
1.01957
1.02174
1.0299
1.0385
1.04399
1.04613
1.05263
1.20192
1.64926
0.898626
0.900275
0.901116
0.903784
0.910392
0.914836
0.916694
0.917767
0.918785
0.919581
0.917843
0.915279
0.91518
0.915993
0.917
0.918141
0.922019
0.929703
0.933872
0.93573
0.936884
0.937971
0.937767
0.933868
0.931609
0.931807
0.932738
0.933866
0.935372
0.940682
0.94906
0.953221
0.955078
0.956429
0.95766
0.957041
0.952081
0.949314
0.949302
0.9499
0.950992
0.952762
0.959134
0.96847
0.973024
0.974926
0.976064
0.977416
0.977571
0.972377
0.968014
0.967296
0.967632
0.96858
0.97037
0.977077
0.987582
0.992982
0.995117
0.996391
0.997799
0.998747
0.994771
0.988595
0.986425
0.986536
0.987429
0.989378
0.996878
1.00783
1.01352
1.01587
1.01735
1.01898
1.02001
1.01577
1.00852
1.00525
1.0051
1.00627
1.00945
1.01921
1.02913
1.03438
1.03703
1.03866
1.03965
1.03847
1.031
1.02268
1.01928
1.01911
1.02067
1.02851
1.0378
1.04278
1.05302
1.2119
1.65205
0.900073
0.901545
0.902382
0.90362
0.907783
0.914491
0.917763
0.919322
0.9204
0.921457
0.921659
0.918706
0.916893
0.917134
0.917911
0.918948
0.92051
0.926042
0.93357
0.936972
0.938578
0.939631
0.940657
0.93924
0.934828
0.933315
0.933884
0.934939
0.935993
0.937608
0.943928
0.952117
0.955823
0.957714
0.959255
0.960507
0.959037
0.953338
0.950578
0.950944
0.952126
0.95332
0.954996
0.961644
0.970688
0.974851
0.977031
0.978887
0.980359
0.98005
0.974412
0.969447
0.968543
0.969521
0.970962
0.972778
0.97914
0.989032
0.994103
0.99663
0.998784
1.0005
1.00125
0.997256
0.990575
0.987672
0.987989
0.989452
0.991706
0.998792
1.0089
1.01425
1.0171
1.01953
1.02142
1.02228
1.01794
1.01018
1.00623
1.00596
1.00733
1.01045
1.01966
1.02971
1.03524
1.038
1.03957
1.0404
1.0395
1.03258
1.02361
1.01906
1.01817
1.01922
1.02758
1.03618
1.05003
1.22191
1.65449
0.902121
0.902812
0.903557
0.904459
0.906068
0.911955
0.918221
0.920799
0.922082
0.923121
0.924076
0.922953
0.919375
0.918401
0.919066
0.920127
0.921215
0.923171
0.929908
0.936793
0.939696
0.941305
0.942477
0.943296
0.940681
0.936445
0.935417
0.935869
0.936728
0.937901
0.940048
0.947431
0.955214
0.958546
0.960165
0.961325
0.962509
0.961101
0.955698
0.953276
0.953267
0.953792
0.95493
0.956991
0.96452
0.973797
0.977943
0.979676
0.980748
0.98211
0.982412
0.977306
0.972369
0.971306
0.971559
0.972409
0.974179
0.981005
0.991624
0.997146
0.999325
1.0006
1.00201
1.0033
1.00022
0.993409
0.99028
0.990028
0.990691
0.992487
0.999776
1.01102
1.01725
1.01979
1.02135
1.02286
1.02409
1.02071
1.01283
1.0083
1.00756
1.00839
1.01062
1.01929
1.03006
1.0361
1.0388
1.0401
1.04086
1.04037
1.03421
1.02457
1.01854
1.0167
1.01783
1.02582
1.0432
1.22992
1.65601
0.904705
0.90398
0.904491
0.90544
0.906525
0.909216
0.916429
0.921554
0.923604
0.924683
0.925703
0.926367
0.923752
0.920662
0.920497
0.921266
0.922195
0.923225
0.925735
0.933553
0.93993
0.942582
0.944164
0.945337
0.9458
0.941971
0.937564
0.9369
0.937856
0.939058
0.940153
0.942375
0.950295
0.957696
0.960732
0.962574
0.964171
0.965343
0.963155
0.957126
0.954396
0.954787
0.955993
0.95729
0.959229
0.966654
0.975438
0.979321
0.981491
0.983353
0.984842
0.98486
0.979699
0.974029
0.972449
0.973211
0.974629
0.976564
0.982909
0.992764
0.998009
1.00066
1.00288
1.00461
1.00565
1.00253
0.995304
0.991367
0.991154
0.992545
0.99466
1.00132
1.01184
1.01781
1.02083
1.02337
1.02524
1.0263
1.02294
1.01465
1.00933
1.00816
1.00904
1.0112
1.01922
1.03011
1.03656
1.03926
1.04043
1.04116
1.04088
1.03574
1.02573
1.01762
1.01481
1.0152
1.03317
1.23375
1.65644
0.907973
0.905681
0.905682
0.906563
0.907581
0.908769
0.912622
0.920304
0.924529
0.926368
0.927464
0.92849
0.928387
0.924538
0.922056
0.92213
0.922992
0.924076
0.925343
0.928781
0.93706
0.942682
0.944978
0.946483
0.947643
0.947846
0.943776
0.939943
0.939452
0.939917
0.940768
0.941992
0.944888
0.95347
0.960634
0.963524
0.964959
0.965962
0.967173
0.965502
0.959808
0.95727
0.957233
0.957694
0.958804
0.960963
0.968991
0.978244
0.982297
0.984
0.985044
0.986396
0.987137
0.982782
0.977009
0.975249
0.975396
0.976126
0.977767
0.984176
0.994966
1.00096
1.00333
1.00463
1.00601
1.00751
1.0055
0.998451
0.994285
0.99353
0.993864
0.995263
1.00121
1.01279
1.02043
1.02353
1.02512
1.02634
1.02756
1.02544
1.01758
1.01144
1.00955
1.00983
1.01124
1.01844
1.02995
1.03685
1.03939
1.04043
1.04128
1.04124
1.03721
1.02671
1.0169
1.01123
1.02045
1.23084
1.65534
0.911567
0.908704
0.907285
0.907759
0.90856
0.909499
0.911007
0.916251
0.924007
0.927617
0.929214
0.930184
0.931119
0.929838
0.925325
0.923638
0.924186
0.925249
0.926328
0.927496
0.931395
0.940042
0.945247
0.947438
0.948985
0.950278
0.950265
0.945428
0.94125
0.940846
0.94186
0.943075
0.944242
0.94709
0.955794
0.962563
0.965263
0.967122
0.968707
0.969848
0.967813
0.961704
0.95848
0.958573
0.959722
0.961086
0.963168
0.970698
0.979422
0.98336
0.985583
0.987507
0.989025
0.989593
0.985391
0.979006
0.976418
0.976806
0.978137
0.980024
0.985808
0.995745
1.0015
1.00445
1.00696
1.00881
1.0101
1.00796
1.00029
0.994864
0.993849
0.994956
0.996767
1.00213
1.01292
1.02044
1.02391
1.02634
1.02832
1.0296
1.02771
1.0196
1.01248
1.00988
1.01005
1.01148
1.01812
1.02954
1.0366
1.03914
1.04028
1.04135
1.0415
1.03815
1.0272
1.01404
1.01196
1.22081
1.65308
0.914231
0.913012
0.909502
0.908959
0.909681
0.910705
0.91173
0.913562
0.919927
0.927156
0.93025
0.93184
0.932909
0.933673
0.931198
0.926876
0.925823
0.926262
0.927025
0.928112
0.929593
0.934411
0.943033
0.947749
0.949723
0.950985
0.952061
0.952138
0.947716
0.94394
0.943478
0.94387
0.944678
0.945954
0.949382
0.958529
0.965357
0.968022
0.969346
0.970338
0.971662
0.970498
0.964711
0.961423
0.961128
0.961473
0.962458
0.964522
0.972384
0.981909
0.986276
0.98808
0.989153
0.990472
0.991651
0.988568
0.982079
0.979234
0.979028
0.979547
0.980955
0.986374
0.997369
1.00451
1.0074
1.00889
1.00999
1.01131
1.01008
1.00282
0.997332
0.996078
0.996424
0.997525
1.00149
1.01261
1.02227
1.02644
1.02815
1.02931
1.03045
1.02954
1.02244
1.01449
1.01099
1.01061
1.01151
1.01708
1.02863
1.03607
1.03871
1.04009
1.04136
1.04153
1.03841
1.02456
1.01219
1.20667
1.65133
0.915931
0.916862
0.913703
0.911029
0.911071
0.91189
0.912841
0.913836
0.915965
0.92313
0.930022
0.932922
0.934506
0.935577
0.93611
0.932693
0.928169
0.927287
0.928146
0.929306
0.930378
0.931689
0.936842
0.945488
0.949858
0.951819
0.953383
0.954732
0.954604
0.949607
0.945295
0.944748
0.945723
0.946944
0.948166
0.951316
0.960251
0.966771
0.969457
0.9714
0.973009
0.974243
0.973008
0.967009
0.962763
0.962248
0.963247
0.964626
0.96669
0.973766
0.982732
0.987081
0.989456
0.991519
0.993085
0.994072
0.991227
0.984299
0.980421
0.980164
0.981358
0.983099
0.987787
0.997908
1.00489
1.00808
1.01041
1.01232
1.01375
1.01297
1.00617
0.999436
0.997079
0.997559
0.999022
1.00248
1.01248
1.02198
1.0263
1.02862
1.03069
1.03216
1.03157
1.02455
1.0156
1.01116
1.01047
1.01143
1.01649
1.0276
1.03514
1.03803
1.03987
1.04126
1.04156
1.03559
1.02317
1.19546
1.65069
0.91778
0.919023
0.918573
0.914648
0.912651
0.91291
0.913731
0.914701
0.915819
0.918432
0.926075
0.932538
0.935226
0.936817
0.937993
0.938326
0.934601
0.930568
0.929897
0.930303
0.930978
0.932049
0.933734
0.939649
0.948186
0.952416
0.954224
0.9553
0.956413
0.956699
0.952288
0.948133
0.947429
0.947711
0.948383
0.949647
0.953184
0.962578
0.96953
0.972231
0.973554
0.974514
0.975866
0.975619
0.97018
0.965755
0.96492
0.965175
0.965981
0.967765
0.974794
0.984859
0.989991
0.992038
0.993186
0.994447
0.995857
0.994233
0.987534
0.983336
0.982562
0.982736
0.983783
0.987716
0.998432
1.00735
1.01123
1.01308
1.01456
1.01616
1.01589
1.00966
1.00236
0.999521
0.999158
0.999751
1.00202
1.0114
1.0228
1.02843
1.03045
1.0317
1.03274
1.0327
1.02713
1.0176
1.01204
1.01088
1.01144
1.01538
1.02602
1.03391
1.03743
1.03961
1.04122
1.04008
1.03565
1.1922
1.65145
0.919245
0.920621
0.921521
0.920171
0.91593
0.91451
0.91497
0.915861
0.916772
0.917769
0.920474
0.928629
0.935046
0.937674
0.939229
0.940477
0.940748
0.936611
0.932032
0.931189
0.93205
0.933201
0.934284
0.935759
0.941706
0.950174
0.954155
0.956102
0.957778
0.959152
0.959234
0.954478
0.949566
0.94851
0.949332
0.950548
0.951845
0.955017
0.963871
0.970543
0.973377
0.975408
0.977092
0.978421
0.978188
0.972841
0.967435
0.965966
0.966711
0.968047
0.969924
0.976016
0.985398
0.990508
0.993141
0.995415
0.997105
0.998357
0.99686
0.989954
0.98457
0.983306
0.984156
0.9857
0.989029
0.99869
1.00796
1.01243
1.01482
1.01642
1.01773
1.01785
1.01239
1.0043
1.00018
0.999734
1.00087
1.0032
1.01124
1.02218
1.02787
1.03039
1.03253
1.03407
1.03431
1.02906
1.01875
1.01216
1.0106
1.01114
1.01443
1.02421
1.03243
1.03666
1.03954
1.03998
1.04394
1.19625
1.65354
0.919909
0.922466
0.923523
0.924356
0.921823
0.917595
0.916482
0.916743
0.917376
0.918398
0.91972
0.923122
0.931471
0.937432
0.939843
0.941255
0.942362
0.942696
0.938995
0.934762
0.933889
0.934179
0.934773
0.935848
0.93766
0.944151
0.952735
0.956834
0.95857
0.959584
0.960709
0.961351
0.957431
0.952543
0.951303
0.951456