/*--------------------------------*- C++ -*----------------------------------*\
  =========                 |
  \\      /  F ield         | OpenFOAM: The Open Source CFD Toolbox
   \\    /   O peration     | Website:  https://openfoam.org
    \\  /    A nd           | Version:  12
     \\/     M anipulation  |
\*---------------------------------------------------------------------------*/
FoamFile
{
    format      ascii;
    class       volVectorField;
    location    "11.6";
    object      U;
}
// * * * * * * * * * * * * * * * * * * * * * * * * * * * * * * * * * * * * * //

dimensions      [0 1 -1 0 0 0 0];

internalField   nonuniform List<vector> 
9801
(
(1.16112 -0.0666634 0)
(1.15702 -0.06477 0)
(1.15613 -0.0619354 0)
(1.16018 -0.0595029 0)
(1.16413 -0.0570011 0)
(1.16418 -0.0540202 0)
(1.16191 -0.0515276 0)
(1.15836 -0.0492012 0)
(1.15388 -0.0466647 0)
(1.14937 -0.0436281 0)
(1.14578 -0.0408008 0)
(1.14253 -0.0387317 0)
(1.13939 -0.0371001 0)
(1.13693 -0.0353796 0)
(1.13914 -0.0331749 0)
(1.14407 -0.0309451 0)
(1.14533 -0.0283747 0)
(1.1435 -0.0260876 0)
(1.14005 -0.0240628 0)
(1.13525 -0.0218924 0)
(1.12998 -0.0191461 0)
(1.12589 -0.0164242 0)
(1.12247 -0.0143066 0)
(1.11911 -0.0128917 0)
(1.116 -0.0115368 0)
(1.11682 -0.00957483 0)
(1.1223 -0.00740683 0)
(1.1242 -0.00533841 0)
(1.12227 -0.00348733 0)
(1.11846 -0.00205435 0)
(1.11257 -0.000443663 0)
(1.10619 0.00170598 0)
(1.10151 0.0043883 0)
(1.09779 0.00650861 0)
(1.09428 0.00777506 0)
(1.09076 0.00880567 0)
(1.09066 0.010454 0)
(1.09674 0.0124036 0)
(1.09927 0.0142038 0)
(1.09705 0.0156393 0)
(1.09273 0.0164708 0)
(1.08571 0.0175646 0)
(1.07758 0.0191627 0)
(1.07166 0.0215844 0)
(1.0674 0.0235403 0)
(1.06334 0.0247236 0)
(1.05935 0.0253665 0)
(1.05859 0.0265267 0)
(1.06592 0.0283698 0)
(1.06963 0.0300052 0)
(1.06723 0.0310981 0)
(1.06215 0.031737 0)
(1.05264 0.0321656 0)
(1.04184 0.0329568 0)
(1.03442 0.0347426 0)
(1.02914 0.036403 0)
(1.02432 0.0375567 0)
(1.02002 0.0380741 0)
(1.01986 0.0391063 0)
(1.02843 0.0406439 0)
(1.03205 0.041834 0)
(1.02928 0.0424254 0)
(1.02357 0.0427113 0)
(1.01102 0.0427247 0)
(0.996257 0.0429078 0)
(0.986871 0.0443952 0)
(0.980336 0.0462009 0)
(0.974944 0.0474378 0)
(0.970007 0.0481934 0)
(0.972499 0.0489821 0)
(0.981968 0.0495114 0)
(0.983588 0.0496552 0)
(0.979803 0.0494919 0)
(0.972991 0.0505526 0)
(0.956646 0.0526561 0)
(0.936134 0.0547022 0)
(0.923105 0.0572944 0)
(0.914861 0.0589082 0)
(0.90812 0.0595415 0)
(0.905449 0.0593691 0)
(0.916425 0.0585443 0)
(0.922967 0.0597957 0)
(0.919032 0.0618198 0)
(0.91132 0.063998 0)
(0.898331 0.0664878 0)
(0.871863 0.0674932 0)
(0.843078 0.0679034 0)
(0.824901 0.067156 0)
(0.813737 0.0645663 0)
(0.809691 0.0607956 0)
(0.822079 0.0588275 0)
(0.825721 0.0609622 0)
(0.816349 0.0634341 0)
(0.800351 0.0625299 0)
(0.771659 0.0588548 0)
(0.717289 0.0529503 0)
(0.649543 0.0205777 0)
(0.250122 -0.0705132 0)
(-0.772541 -0.0463309 0)
(1.2371 -0.118073 0)
(1.23152 -0.116058 0)
(1.23173 -0.112854 0)
(1.23629 -0.110144 0)
(1.23704 -0.107255 0)
(1.23422 -0.10403 0)
(1.23037 -0.101404 0)
(1.22608 -0.0992173 0)
(1.22003 -0.0963943 0)
(1.2121 -0.0929922 0)
(1.20612 -0.0900103 0)
(1.20147 -0.0876271 0)
(1.19755 -0.0857589 0)
(1.19497 -0.083614 0)
(1.19822 -0.0808301 0)
(1.20123 -0.0781195 0)
(1.19943 -0.0750866 0)
(1.19575 -0.0724767 0)
(1.19153 -0.0704968 0)
(1.18598 -0.0681357 0)
(1.177 -0.0648502 0)
(1.17012 -0.0618277 0)
(1.16501 -0.0593158 0)
(1.1608 -0.0574229 0)
(1.15728 -0.0556954 0)
(1.15813 -0.0530822 0)
(1.16245 -0.0501328 0)
(1.16204 -0.0473188 0)
(1.15871 -0.044923 0)
(1.15464 -0.0432533 0)
(1.14923 -0.0413961 0)
(1.13922 -0.0385298 0)
(1.13121 -0.035472 0)
(1.12556 -0.0328958 0)
(1.12103 -0.0309789 0)
(1.11707 -0.0294426 0)
(1.11621 -0.0270999 0)
(1.12129 -0.0239171 0)
(1.12249 -0.0210591 0)
(1.11942 -0.0188395 0)
(1.11543 -0.0175386 0)
(1.10978 -0.0160741 0)
(1.09842 -0.0136236 0)
(1.08894 -0.0105999 0)
(1.08277 -0.00810754 0)
(1.07774 -0.00625182 0)
(1.07342 -0.00497993 0)
(1.07194 -0.00310336 0)
(1.07757 0.000154984 0)
(1.08006 0.0033501 0)
(1.07728 0.00570041 0)
(1.07297 0.00676218 0)
(1.06668 0.0076556 0)
(1.05368 0.00912411 0)
(1.04293 0.0118051 0)
(1.03611 0.0143916 0)
(1.03056 0.0163907 0)
(1.02585 0.0173069 0)
(1.02461 0.0189062 0)
(1.03172 0.0221247 0)
(1.03418 0.0254201 0)
(1.03111 0.0277612 0)
(1.02623 0.0288461 0)
(1.01799 0.0297098 0)
(1.00246 0.0303275 0)
(0.990354 0.0320781 0)
(0.982736 0.0340903 0)
(0.976741 0.0352748 0)
(0.971327 0.0359008 0)
(0.973303 0.0381138 0)
(0.982487 0.0415457 0)
(0.983307 0.0452978 0)
(0.978822 0.0478338 0)
(0.972825 0.0486986 0)
(0.96002 0.0489387 0)
(0.939439 0.0479406 0)
(0.92518 0.0478521 0)
(0.916309 0.0486746 0)
(0.909362 0.0488232 0)
(0.906225 0.0500813 0)
(0.914054 0.0541178 0)
(0.918981 0.0592807 0)
(0.916091 0.0640048 0)
(0.909299 0.0659008 0)
(0.899677 0.0653789 0)
(0.877267 0.0609538 0)
(0.846663 0.0564603 0)
(0.827084 0.0551285 0)
(0.815079 0.0541397 0)
(0.80674 0.0527704 0)
(0.810306 0.0579064 0)
(0.812615 0.0688294 0)
(0.804205 0.0727349 0)
(0.789667 0.0712821 0)
(0.76311 0.0674415 0)
(0.712172 0.0600432 0)
(0.650951 0.0283184 0)
(0.246116 -0.0707713 0)
(-0.785361 -0.05779 0)
(1.23273 -0.115274 0)
(1.22681 -0.112885 0)
(1.22695 -0.10929 0)
(1.2311 -0.106171 0)
(1.23193 -0.103601 0)
(1.22946 -0.100951 0)
(1.22575 -0.0983582 0)
(1.22135 -0.0959303 0)
(1.21554 -0.0932565 0)
(1.20785 -0.0906379 0)
(1.20192 -0.0881229 0)
(1.19713 -0.0855337 0)
(1.19309 -0.0832016 0)
(1.19041 -0.0806887 0)
(1.19344 -0.0775506 0)
(1.19637 -0.074839 0)
(1.19487 -0.0723216 0)
(1.19141 -0.0699205 0)
(1.18713 -0.067771 0)
(1.18164 -0.0653937 0)
(1.17309 -0.0629349 0)
(1.16639 -0.0606726 0)
(1.16115 -0.0581664 0)
(1.15675 -0.0557247 0)
(1.15309 -0.0535328 0)
(1.15372 -0.0505433 0)
(1.1581 -0.0474561 0)
(1.15798 -0.0448928 0)
(1.15485 -0.0426433 0)
(1.1507 -0.0408085 0)
(1.14526 -0.0388568 0)
(1.13575 -0.0369791 0)
(1.12813 -0.0351836 0)
(1.12244 -0.0329776 0)
(1.11763 -0.0305174 0)
(1.11347 -0.028343 0)
(1.11224 -0.0255206 0)
(1.11743 -0.0219488 0)
(1.11901 -0.0189644 0)
(1.11615 -0.0166843 0)
(1.11209 -0.0151472 0)
(1.10633 -0.0135096 0)
(1.09551 -0.0122347 0)
(1.08677 -0.0110351 0)
(1.08059 -0.00934294 0)
(1.0752 -0.00703579 0)
(1.07064 -0.00497739 0)
(1.06844 -0.00244008 0)
(1.07404 0.00147885 0)
(1.07726 0.00486895 0)
(1.07475 0.00736821 0)
(1.07039 0.00888794 0)
(1.06413 0.0102858 0)
(1.05143 0.0106906 0)
(1.04081 0.0111907 0)
(1.03385 0.0127511 0)
(1.02798 0.0148318 0)
(1.02323 0.0165885 0)
(1.02149 0.0189234 0)
(1.02826 0.0229195 0)
(1.03155 0.0267799 0)
(1.02899 0.0295065 0)
(1.02419 0.0311243 0)
(1.01672 0.0323681 0)
(1.00128 0.0313945 0)
(0.988046 0.0308831 0)
(0.979739 0.0320582 0)
(0.973382 0.0337897 0)
(0.967923 0.0352422 0)
(0.968946 0.0381573 0)
(0.97767 0.043304 0)
(0.979639 0.0478166 0)
(0.975803 0.0507675 0)
(0.970065 0.0518425 0)
(0.95939 0.0517001 0)
(0.938286 0.0476207 0)
(0.9213 0.0452431 0)
(0.911586 0.0458581 0)
(0.904432 0.0468036 0)
(0.899454 0.0485766 0)
(0.904511 0.0549174 0)
(0.911304 0.0612295 0)
(0.90999 0.0628734 0)
(0.903763 0.062257 0)
(0.895535 0.0620744 0)
(0.875614 0.060303 0)
(0.843974 0.0542846 0)
(0.821888 0.0496709 0)
(0.808499 0.0487199 0)
(0.798048 0.0479853 0)
(0.795404 0.0481847 0)
(0.798981 0.0511675 0)
(0.79387 0.0517987 0)
(0.781662 0.0497799 0)
(0.76121 0.0459321 0)
(0.717814 0.0393065 0)
(0.664848 0.00306207 0)
(0.247183 -0.0803438 0)
(-0.787633 -0.0473861 0)
(1.22357 -0.113513 0)
(1.21765 -0.111143 0)
(1.21797 -0.107552 0)
(1.22182 -0.104386 0)
(1.22232 -0.101817 0)
(1.21999 -0.0993458 0)
(1.21656 -0.0969088 0)
(1.21235 -0.0945674 0)
(1.20694 -0.0919359 0)
(1.19908 -0.0892334 0)
(1.19323 -0.0868675 0)
(1.18868 -0.0844954 0)
(1.18474 -0.0821412 0)
(1.1823 -0.0793367 0)
(1.18526 -0.076137 0)
(1.18778 -0.0734591 0)
(1.18629 -0.0711022 0)
(1.18308 -0.0689004 0)
(1.17901 -0.0668379 0)
(1.17392 -0.0645332 0)
(1.16538 -0.0620364 0)
(1.15855 -0.0598205 0)
(1.1536 -0.0574996 0)
(1.14934 -0.0550948 0)
(1.1458 -0.0525907 0)
(1.14646 -0.0493532 0)
(1.15064 -0.0462788 0)
(1.15061 -0.0438969 0)
(1.14768 -0.0418888 0)
(1.14367 -0.0401462 0)
(1.13866 -0.0382946 0)
(1.12924 -0.0363783 0)
(1.12116 -0.0345214 0)
(1.11576 -0.0323445 0)
(1.11115 -0.029903 0)
(1.10709 -0.0275056 0)
(1.10579 -0.0244538 0)
(1.11076 -0.020832 0)
(1.11269 -0.0180427 0)
(1.11015 -0.0160507 0)
(1.10618 -0.0145514 0)
(1.10096 -0.0130129 0)
(1.09037 -0.0117653 0)
(1.0808 -0.0103789 0)
(1.07466 -0.00832917 0)
(1.06956 -0.00589225 0)
(1.06512 -0.00370515 0)
(1.06272 -0.00113456 0)
(1.06788 0.00242079 0)
(1.07156 0.00553185 0)
(1.06946 0.00775244 0)
(1.06531 0.00925818 0)
(1.0599 0.0105832 0)
(1.04777 0.0110919 0)
(1.03559 0.0114905 0)
(1.02827 0.0130589 0)
(1.02257 0.0151064 0)
(1.01774 0.0170248 0)
(1.01541 0.019645 0)
(1.0214 0.0236642 0)
(1.02556 0.0272258 0)
(1.02365 0.0295482 0)
(1.01914 0.0309753 0)
(1.01331 0.0319216 0)
(0.999154 0.0311402 0)
(0.98333 0.029854 0)
(0.973908 0.0309326 0)
(0.96732 0.032785 0)
(0.961573 0.0343263 0)
(0.960409 0.0371141 0)
(0.96834 0.042474 0)
(0.971846 0.0465326 0)
(0.96897 0.0486028 0)
(0.963662 0.0496248 0)
(0.956069 0.050131 0)
(0.936908 0.0472829 0)
(0.9159 0.0433327 0)
(0.903933 0.0431601 0)
(0.896317 0.044392 0)
(0.890024 0.0454752 0)
(0.890967 0.0494898 0)
(0.898839 0.0569837 0)
(0.899279 0.0622464 0)
(0.893796 0.065041 0)
(0.886503 0.0658193 0)
(0.873013 0.0649409 0)
(0.844521 0.055546 0)
(0.817264 0.0454409 0)
(0.800568 0.0407164 0)
(0.789279 0.0399935 0)
(0.781093 0.0408585 0)
(0.779891 0.0470696 0)
(0.776001 0.050897 0)
(0.765884 0.0482417 0)
(0.750869 0.044748 0)
(0.720131 0.0358322 0)
(0.689837 -0.00344026 0)
(0.249121 -0.0760485 0)
(-0.79225 -0.0413289 0)
(1.21381 -0.109889 0)
(1.20799 -0.107552 0)
(1.2086 -0.10379 0)
(1.21286 -0.100071 0)
(1.21328 -0.0974228 0)
(1.21083 -0.0951833 0)
(1.2074 -0.0930679 0)
(1.20331 -0.0909728 0)
(1.19826 -0.0885157 0)
(1.19048 -0.0858799 0)
(1.1842 -0.0837448 0)
(1.17962 -0.0817144 0)
(1.17571 -0.0797459 0)
(1.17338 -0.0768937 0)
(1.17675 -0.0728639 0)
(1.17947 -0.0696768 0)
(1.17797 -0.0673842 0)
(1.1748 -0.0654177 0)
(1.17088 -0.0635491 0)
(1.16619 -0.0614477 0)
(1.15801 -0.0591824 0)
(1.15047 -0.0572784 0)
(1.14536 -0.0553508 0)
(1.1411 -0.0533991 0)
(1.13752 -0.0511892 0)
(1.1382 -0.0474832 0)
(1.1428 -0.0435641 0)
(1.14308 -0.040969 0)
(1.14026 -0.0391021 0)
(1.13643 -0.0374656 0)
(1.13191 -0.0356885 0)
(1.12323 -0.0338368 0)
(1.11418 -0.0322952 0)
(1.10828 -0.0305241 0)
(1.10358 -0.0285991 0)
(1.09947 -0.0267285 0)
(1.09781 -0.0238728 0)
(1.1028 -0.019638 0)
(1.10545 -0.0162369 0)
(1.10337 -0.0140234 0)
(1.09963 -0.012386 0)
(1.09509 -0.0108823 0)
(1.08564 -0.00987403 0)
(1.07441 -0.00952016 0)
(1.06747 -0.00791538 0)
(1.06228 -0.00589233 0)
(1.05786 -0.00403535 0)
(1.05525 -0.00162843 0)
(1.05985 0.00222745 0)
(1.06405 0.0060474 0)
(1.06262 0.00886167 0)
(1.05888 0.0108829 0)
(1.05434 0.0123695 0)
(1.04451 0.0128894 0)
(1.03058 0.0112968 0)
(1.02155 0.011834 0)
(1.01553 0.0137813 0)
(1.0106 0.0157281 0)
(1.00745 0.0183805 0)
(1.01224 0.0232803 0)
(1.01737 0.0279308 0)
(1.01633 0.0307772 0)
(1.01229 0.0327456 0)
(1.00752 0.0338035 0)
(0.997279 0.033564 0)
(0.979491 0.0300457 0)
(0.967033 0.0288785 0)
(0.959825 0.0304637 0)
(0.95387 0.0322019 0)
(0.950506 0.0348342 0)
(0.956436 0.041115 0)
(0.96194 0.0472676 0)
(0.960203 0.0500402 0)
(0.955332 0.0511796 0)
(0.94946 0.0516256 0)
(0.936136 0.0498569 0)
(0.913092 0.0436634 0)
(0.897087 0.039835 0)
(0.888235 0.0401243 0)
(0.881367 0.0410251 0)
(0.877665 0.0436881 0)
(0.883626 0.0518886 0)
(0.887745 0.059966 0)
(0.884066 0.0632067 0)
(0.87706 0.0637006 0)
(0.867817 0.0631894 0)
(0.84721 0.0571857 0)
(0.817334 0.0446658 0)
(0.795575 0.0352585 0)
(0.782945 0.0314296 0)
(0.773563 0.0306245 0)
(0.769781 0.0324692 0)
(0.768428 0.0350544 0)
(0.762849 0.0315674 0)
(0.753056 0.027565 0)
(0.734508 0.0226104 0)
(0.71306 0.00228939 0)
(0.253914 -0.0659376 0)
(-0.795893 -0.036047 0)
(1.20517 -0.107572 0)
(1.19935 -0.105363 0)
(1.19966 -0.102107 0)
(1.20443 -0.0979756 0)
(1.20516 -0.0950149 0)
(1.20277 -0.0927187 0)
(1.1994 -0.0905692 0)
(1.19544 -0.088508 0)
(1.19076 -0.0863409 0)
(1.18329 -0.0839228 0)
(1.1764 -0.0817171 0)
(1.17158 -0.0796389 0)
(1.16766 -0.0778111 0)
(1.16498 -0.075539 0)
(1.16836 -0.0716264 0)
(1.1718 -0.0680081 0)
(1.17055 -0.0654809 0)
(1.16747 -0.0634193 0)
(1.16369 -0.0615495 0)
(1.15934 -0.0597054 0)
(1.15177 -0.0577954 0)
(1.14345 -0.0559688 0)
(1.13791 -0.0538799 0)
(1.13354 -0.051759 0)
(1.12984 -0.0498474 0)
(1.12989 -0.0467325 0)
(1.13515 -0.0427405 0)
(1.13613 -0.0397372 0)
(1.13356 -0.0375662 0)
(1.12991 -0.0357809 0)
(1.12571 -0.0341742 0)
(1.11812 -0.0328398 0)
(1.10787 -0.0320985 0)
(1.10121 -0.0302202 0)
(1.09629 -0.027783 0)
(1.09218 -0.0255209 0)
(1.09004 -0.0228079 0)
(1.09477 -0.0188953 0)
(1.09831 -0.0154188 0)
(1.0968 -0.0129158 0)
(1.09336 -0.0109274 0)
(1.0892 -0.00938111 0)
(1.08192 -0.00830757 0)
(1.06948 -0.00891365 0)
(1.06062 -0.00829115 0)
(1.05511 -0.00610848 0)
(1.0506 -0.00379896 0)
(1.04761 -0.00103501 0)
(1.05145 0.0033921 0)
(1.05638 0.00757243 0)
(1.05574 0.0103051 0)
(1.05245 0.0124175 0)
(1.04821 0.0138538 0)
(1.04167 0.0146265 0)
(1.02748 0.0127431 0)
(1.01507 0.0115938 0)
(1.0082 0.0131101 0)
(1.0031 0.0151868 0)
(0.999176 0.0176876 0)
(1.00233 0.0227548 0)
(1.00893 0.0284349 0)
(1.00908 0.031339 0)
(1.00544 0.0328846 0)
(1.00098 0.0337811 0)
(0.994311 0.0342311 0)
(0.97778 0.0314216 0)
(0.96148 0.0285372 0)
(0.952563 0.0284368 0)
(0.94655 0.0297541 0)
(0.941756 0.0316002 0)
(0.944099 0.0371649 0)
(0.951819 0.0457864 0)
(0.952542 0.0503646 0)
(0.94825 0.0516666 0)
(0.942842 0.0518136 0)
(0.934141 0.0513401 0)
(0.91399 0.0454897 0)
(0.893885 0.0393571 0)
(0.882078 0.0365923 0)
(0.874368 0.0368184 0)
(0.868148 0.0379586 0)
(0.868946 0.0436941 0)
(0.875522 0.0538346 0)
(0.875484 0.0605976 0)
(0.869797 0.06328 0)
(0.862146 0.0636952 0)
(0.849559 0.0614855 0)
(0.824316 0.0496866 0)
(0.797884 0.0354773 0)
(0.780415 0.0266932 0)
(0.770165 0.0229713 0)
(0.762999 0.0222107 0)
(0.761603 0.0250309 0)
(0.759521 0.0243531 0)
(0.754186 0.0178261 0)
(0.74312 0.0119544 0)
(0.732404 0.00126286 0)
(0.261754 -0.0577417 0)
(-0.79917 -0.0318104 0)
(1.19886 -0.1043 0)
(1.19304 -0.101974 0)
(1.19265 -0.0991018 0)
(1.19732 -0.0952618 0)
(1.19869 -0.0921275 0)
(1.19658 -0.0895969 0)
(1.19331 -0.0873983 0)
(1.18944 -0.0854835 0)
(1.18501 -0.0836126 0)
(1.17771 -0.081588 0)
(1.17022 -0.0795553 0)
(1.16532 -0.0773289 0)
(1.16142 -0.0752264 0)
(1.15851 -0.0729149 0)
(1.16123 -0.0692645 0)
(1.16528 -0.0656641 0)
(1.16463 -0.0629237 0)
(1.16178 -0.0606579 0)
(1.15812 -0.058766 0)
(1.15396 -0.0571518 0)
(1.14713 -0.0556566 0)
(1.13783 -0.0543893 0)
(1.13172 -0.0524981 0)
(1.12734 -0.050191 0)
(1.12365 -0.0479586 0)
(1.12317 -0.0447559 0)
(1.12838 -0.0408408 0)
(1.1301 -0.0378021 0)
(1.12801 -0.0354385 0)
(1.12458 -0.0334334 0)
(1.12055 -0.0318383 0)
(1.11452 -0.0304999 0)
(1.10354 -0.0301818 0)
(1.09516 -0.0292399 0)
(1.09008 -0.0271854 0)
(1.08596 -0.0249479 0)
(1.08359 -0.0220164 0)
(1.08771 -0.0177495 0)
(1.09177 -0.0140456 0)
(1.09085 -0.0114887 0)
(1.08774 -0.00936952 0)
(1.08375 -0.00775396 0)
(1.0786 -0.00653221 0)
(1.06713 -0.00694317 0)
(1.05548 -0.00729006 0)
(1.04892 -0.00609538 0)
(1.0443 -0.00423384 0)
(1.04075 -0.00190616 0)
(1.04335 0.00280432 0)
(1.04923 0.00810805 0)
(1.0495 0.0109985 0)
(1.04653 0.0126528 0)
(1.04246 0.0138863 0)
(1.03766 0.0147807 0)
(1.02624 0.0143726 0)
(1.01116 0.0127411 0)
(1.00215 0.0127717 0)
(0.99675 0.0140571 0)
(0.992178 0.015757 0)
(0.992563 0.0200627 0)
(1.00027 0.0276496 0)
(1.00285 0.0325094 0)
(0.999819 0.0343047 0)
(0.995421 0.0348376 0)
(0.990175 0.0351671 0)
(0.977369 0.0336736 0)
(0.959379 0.0296058 0)
(0.947805 0.0278421 0)
(0.940718 0.0281672 0)
(0.935269 0.0290757 0)
(0.932897 0.0321914 0)
(0.940144 0.0412308 0)
(0.945394 0.0494583 0)
(0.943113 0.0524676 0)
(0.938058 0.0529352 0)
(0.93189 0.0527514 0)
(0.91809 0.0490329 0)
(0.895858 0.0394854 0)
(0.879354 0.0342911 0)
(0.869632 0.033016 0)
(0.862769 0.0333968 0)
(0.858536 0.0355237 0)
(0.863014 0.0438298 0)
(0.867591 0.052954 0)
(0.865315 0.0576582 0)
(0.858999 0.0595529 0)
(0.850685 0.0597859 0)
(0.834251 0.0554076 0)
(0.808135 0.0406434 0)
(0.785508 0.0261348 0)
(0.770644 0.0178842 0)
(0.76199 0.0146608 0)
(0.757556 0.014305 0)
(0.758356 0.0152179 0)
(0.757656 0.00964283 0)
(0.752088 0.00271694 0)
(0.745301 -0.00175085 0)
(0.268383 -0.0483281 0)
(-0.802473 -0.0285422 0)
(1.19419 -0.101751 0)
(1.18818 -0.099435 0)
(1.1872 -0.0968325 0)
(1.19164 -0.0929279 0)
(1.19335 -0.0899465 0)
(1.19147 -0.0876162 0)
(1.18838 -0.0854595 0)
(1.18468 -0.083494 0)
(1.18054 -0.0816235 0)
(1.17393 -0.0794674 0)
(1.1658 -0.0773707 0)
(1.16052 -0.0754277 0)
(1.15644 -0.0736131 0)
(1.15329 -0.0714966 0)
(1.15547 -0.0675796 0)
(1.1599 -0.0636065 0)
(1.15961 -0.0610713 0)
(1.15694 -0.0590425 0)
(1.15345 -0.0571781 0)
(1.14946 -0.0555397 0)
(1.14385 -0.0538398 0)
(1.13412 -0.0524954 0)
(1.12687 -0.0509457 0)
(1.12224 -0.0492431 0)
(1.11841 -0.0474992 0)
(1.11742 -0.0443471 0)
(1.12254 -0.0396096 0)
(1.12493 -0.0360909 0)
(1.12311 -0.0339043 0)
(1.11984 -0.0320722 0)
(1.11593 -0.0304686 0)
(1.11129 -0.0289749 0)
(1.10143 -0.0282421 0)
(1.09103 -0.0276195 0)
(1.08512 -0.0263252 0)
(1.08078 -0.0249273 0)
(1.07776 -0.0227394 0)
(1.0811 -0.0178547 0)
(1.08613 -0.0128266 0)
(1.08584 -0.0100687 0)
(1.08292 -0.00828592 0)
(1.07912 -0.00669845 0)
(1.07487 -0.00543934 0)
(1.0659 -0.0049615 0)
(1.05284 -0.00585898 0)
(1.04432 -0.00524977 0)
(1.03915 -0.00399753 0)
(1.03501 -0.00254628 0)
(1.03517 0.0013699 0)
(1.04214 0.00835414 0)
(1.0446 0.0128036 0)
(1.04215 0.0145936 0)
(1.03822 0.0156415 0)
(1.03385 0.0164128 0)
(1.02519 0.0165138 0)
(1.00973 0.0142529 0)
(0.998611 0.0133372 0)
(0.992046 0.0138429 0)
(0.987114 0.0147326 0)
(0.984125 0.0169223 0)
(0.990256 0.0242676 0)
(0.996636 0.0321273 0)
(0.995473 0.0353123 0)
(0.991416 0.0363039 0)
(0.986791 0.0368119 0)
(0.978253 0.0361244 0)
(0.960593 0.0309902 0)
(0.945804 0.0270338 0)
(0.936748 0.0265625 0)
(0.93051 0.0274612 0)
(0.925579 0.028858 0)
(0.927431 0.0347656 0)
(0.936356 0.0454607 0)
(0.938423 0.0518406 0)
(0.934753 0.0539288 0)
(0.929458 0.0543072 0)
(0.921353 0.0535581 0)
(0.902024 0.0458919 0)
(0.880724 0.0358657 0)
(0.867838 0.0316668 0)
(0.859866 0.0301716 0)
(0.853383 0.0301931 0)
(0.851629 0.0339352 0)
(0.857078 0.0442254 0)
(0.85877 0.0525296 0)
(0.854861 0.0562962 0)
(0.847966 0.0575001 0)
(0.83885 0.0564685 0)
(0.82152 0.048739 0)
(0.79662 0.0321712 0)
(0.776346 0.0178171 0)
(0.763382 0.0095191 0)
(0.756085 0.00672314 0)
(0.754605 0.00710258 0)
(0.757899 0.00534023 0)
(0.757715 -0.00206017 0)
(0.754164 -0.00566105 0)
(0.276008 -0.0411693 0)
(-0.804952 -0.0251807 0)
(1.1911 -0.0993099 0)
(1.18493 -0.0968204 0)
(1.18337 -0.0942017 0)
(1.18755 -0.0901038 0)
(1.1898 -0.0869039 0)
(1.18812 -0.0847081 0)
(1.18517 -0.0827066 0)
(1.18164 -0.0808341 0)
(1.17767 -0.0791096 0)
(1.1718 -0.077161 0)
(1.16323 -0.0752151 0)
(1.15733 -0.0732808 0)
(1.15306 -0.0713801 0)
(1.14951 -0.0695839 0)
(1.15033 -0.0660007 0)
(1.15556 -0.0613005 0)
(1.1561 -0.0583773 0)
(1.15363 -0.0564705 0)
(1.15027 -0.0547642 0)
(1.14641 -0.0532291 0)
(1.14162 -0.0516642 0)
(1.13225 -0.050394 0)
(1.12381 -0.0491338 0)
(1.11864 -0.0474681 0)
(1.11459 -0.0459704 0)
(1.11216 -0.0437106 0)
(1.11673 -0.0386189 0)
(1.12068 -0.0340528 0)
(1.11946 -0.0316126 0)
(1.11638 -0.0298576 0)
(1.11265 -0.0283221 0)
(1.10852 -0.0269785 0)
(1.10004 -0.0260518 0)
(1.08886 -0.026025 0)
(1.08168 -0.025067 0)
(1.07693 -0.0236335 0)
(1.07306 -0.0222903 0)
(1.07394 -0.0184681 0)
(1.08051 -0.0120753 0)
(1.08196 -0.0082036 0)
(1.07938 -0.00634821 0)
(1.07572 -0.00503029 0)
(1.07164 -0.00395681 0)
(1.06485 -0.00313509 0)
(1.05156 -0.00418791 0)
(1.04149 -0.00448861 0)
(1.03542 -0.00339212 0)
(1.03088 -0.00229286 0)
(1.02808 -0.000351044 0)
(1.03383 0.00613768 0)
(1.03963 0.0129028 0)
(1.03859 0.0157712 0)
(1.03499 0.0170263 0)
(1.03085 0.0178363 0)
(1.02473 0.0182841 0)
(1.01047 0.0158407 0)
(0.997044 0.0131904 0)
(0.98908 0.0132581 0)
(0.983257 0.0143713 0)
(0.978636 0.0156055 0)
(0.979381 0.0201253 0)
(0.988408 0.0297713 0)
(0.991359 0.0358856 0)
(0.988561 0.0377936 0)
(0.984085 0.038064 0)
(0.978405 0.0382627 0)
(0.96495 0.0346273 0)
(0.946438 0.0278895 0)
(0.934559 0.0254685 0)
(0.927344 0.0255816 0)
(0.921791 0.0262175 0)
(0.918239 0.028323 0)
(0.924666 0.0373776 0)
(0.932209 0.0479269 0)
(0.931607 0.0525332 0)
(0.926899 0.0540611 0)
(0.921069 0.0546121 0)
(0.909948 0.0528949 0)
(0.888618 0.0415248 0)
(0.870056 0.0310047 0)
(0.858524 0.0276285 0)
(0.851143 0.0269999 0)
(0.845333 0.0274858 0)
(0.846033 0.0328707 0)
(0.851054 0.0428421 0)
(0.851048 0.0489959 0)
(0.846509 0.0512224 0)
(0.839428 0.0518663 0)
(0.82901 0.0497613 0)
(0.81104 0.0405234 0)
(0.787524 0.023252 0)
(0.768971 0.00865044 0)
(0.757827 0.000353498 0)
(0.752271 -0.00179648 0)
(0.755416 -0.0027167 0)
(0.760764 -0.00724541 0)
(0.760381 -0.0101095 0)
(0.283556 -0.0325088 0)
(-0.807259 -0.022265 0)
(1.18849 -0.097302 0)
(1.18216 -0.0948656 0)
(1.17975 -0.0926183 0)
(1.18331 -0.0881776 0)
(1.18688 -0.0841761 0)
(1.18565 -0.0819176 0)
(1.18279 -0.0800635 0)
(1.17932 -0.0783366 0)
(1.17538 -0.0767236 0)
(1.1699 -0.0749265 0)
(1.16117 -0.0732419 0)
(1.15471 -0.0716172 0)
(1.15019 -0.0698649 0)
(1.14635 -0.0682666 0)
(1.14524 -0.0652123 0)
(1.15087 -0.0598958 0)
(1.15301 -0.0561709 0)
(1.15094 -0.05414 0)
(1.14772 -0.0525008 0)
(1.14397 -0.051023 0)
(1.13959 -0.0495406 0)
(1.13086 -0.0483964 0)
(1.12155 -0.0476313 0)
(1.11579 -0.0463626 0)
(1.11145 -0.0449006 0)
(1.1079 -0.0432271 0)
(1.11021 -0.0387954 0)
(1.11616 -0.0329056 0)
(1.11638 -0.0296915 0)
(1.1136 -0.0279006 0)
(1.11003 -0.0264143 0)
(1.10603 -0.0251326 0)
(1.09926 -0.0241484 0)
(1.08749 -0.0245149 0)
(1.0791 -0.0242112 0)
(1.07382 -0.0230294 0)
(1.0696 -0.0218112 0)
(1.06744 -0.0194002 0)
(1.07356 -0.0129079 0)
(1.07793 -0.00722147 0)
(1.0764 -0.00473504 0)
(1.07299 -0.00333692 0)
(1.06906 -0.00227048 0)
(1.06382 -0.00136352 0)
(1.05167 -0.00227263 0)
(1.03966 -0.00373303 0)
(1.03275 -0.00338825 0)
(1.02766 -0.00218436 0)
(1.02342 -0.000889017 0)
(1.02457 0.00349571 0)
(1.03292 0.0120473 0)
(1.03507 0.0170913 0)
(1.03226 0.0187831 0)
(1.02827 0.0195443 0)
(1.02372 0.0200426 0)
(1.01301 0.0183518 0)
(0.997282 0.0140846 0)
(0.986945 0.0126102 0)
(0.980306 0.0134691 0)
(0.975134 0.0146168 0)
(0.971705 0.0165896 0)
(0.977618 0.0244507 0)
(0.985613 0.0341165 0)
(0.985683 0.0383301 0)
(0.982067 0.0399389 0)
(0.977477 0.0403763 0)
(0.969163 0.0396791 0)
(0.950913 0.032716 0)
(0.934727 0.025881 0)
(0.925547 0.0239965 0)
(0.919111 0.0240993 0)
(0.913687 0.0247577 0)
(0.912398 0.0288618 0)
(0.921219 0.0413507 0)
(0.926076 0.0512941 0)
(0.92374 0.0550564 0)
(0.918796 0.0557745 0)
(0.912782 0.0554406 0)
(0.899379 0.0508631 0)
(0.876742 0.0378268 0)
(0.859961 0.0285748 0)
(0.849913 0.0254298 0)
(0.843206 0.0243145 0)
(0.838242 0.0249423 0)
(0.840527 0.031695 0)
(0.844157 0.0409953 0)
(0.842635 0.0459541 0)
(0.837607 0.0473063 0)
(0.830398 0.0470778 0)
(0.81981 0.0427146 0)
(0.802446 0.0316917 0)
(0.780555 0.0132038 0)
(0.763564 -0.00180218 0)
(0.754105 -0.0091395 0)
(0.751647 -0.0115311 0)
(0.759523 -0.0148639 0)
(0.762941 -0.016049 0)
(0.291292 -0.022036 0)
(-0.809265 -0.0194869 0)
(1.18569 -0.0953752 0)
(1.17905 -0.0929504 0)
(1.17603 -0.0911717 0)
(1.17812 -0.0869855 0)
(1.18328 -0.0818934 0)
(1.1829 -0.079168 0)
(1.18013 -0.0773787 0)
(1.17673 -0.0757793 0)
(1.17288 -0.074291 0)
(1.16797 -0.0727096 0)
(1.15925 -0.0713176 0)
(1.15194 -0.0699137 0)
(1.14713 -0.0683138 0)
(1.1432 -0.0668166 0)
(1.1406 -0.064581 0)
(1.14515 -0.0593307 0)
(1.14945 -0.0543423 0)
(1.14814 -0.0518158 0)
(1.145 -0.0501732 0)
(1.14133 -0.0487186 0)
(1.13728 -0.0473607 0)
(1.12983 -0.0463612 0)
(1.11963 -0.046109 0)
(1.11297 -0.0451467 0)
(1.10835 -0.0437434 0)
(1.10451 -0.0424661 0)
(1.10372 -0.0393174 0)
(1.11039 -0.0327153 0)
(1.11298 -0.0280574 0)
(1.11077 -0.0259107 0)
(1.10732 -0.0244595 0)
(1.10341 -0.0232493 0)
(1.09826 -0.0222223 0)
(1.08715 -0.0227244 0)
(1.07697 -0.0232212 0)
(1.07098 -0.0223466 0)
(1.0665 -0.0210669 0)
(1.06282 -0.0196163 0)
(1.06539 -0.0147198 0)
(1.07268 -0.00715611 0)
(1.07337 -0.00318928 0)
(1.07033 -0.00160144 0)
(1.0665 -0.000536155 0)
(1.06227 0.00034599 0)
(1.05302 -0.000190651 0)
(1.03927 -0.00273794 0)
(1.03042 -0.00328384 0)
(1.02475 -0.00230714 0)
(1.02017 -0.00108165 0)
(1.01727 0.0010783 0)
(1.02379 0.00876328 0)
(1.0305 0.0168427 0)
(1.02971 0.0201428 0)
(1.02595 0.0210544 0)
(1.02174 0.0216622 0)
(1.01523 0.0215633 0)
(1.00008 0.017172 0)
(0.985998 0.0133251 0)
(0.978071 0.0129596 0)
(0.972438 0.0138968 0)
(0.967712 0.014783 0)
(0.966969 0.0183361 0)
(0.97636 0.0292894 0)
(0.981358 0.0377145 0)
(0.979362 0.0407054 0)
(0.974971 0.0416126 0)
(0.969897 0.0421117 0)
(0.958891 0.0387797 0)
(0.939575 0.0286272 0)
(0.925478 0.0226735 0)
(0.916938 0.0220418 0)
(0.910925 0.0227396 0)
(0.906072 0.0236736 0)
(0.908108 0.029527 0)
(0.917742 0.0427279 0)
(0.920605 0.0506347 0)
(0.917224 0.0532125 0)
(0.911668 0.0540504 0)
(0.904027 0.0544629 0)
(0.888303 0.0484053 0)
(0.866765 0.0339392 0)
(0.851698 0.0246636 0)
(0.842127 0.0218201 0)
(0.835676 0.0210759 0)
(0.831888 0.0224986 0)
(0.835238 0.0300341 0)
(0.837866 0.0375213 0)
(0.835638 0.0405898 0)
(0.830538 0.0409988 0)
(0.823303 0.0404205 0)
(0.812644 0.0350445 0)
(0.796307 0.0221055 0)
(0.776079 0.00219675 0)
(0.76008 -0.0118123 0)
(0.752397 -0.0187726 0)
(0.755336 -0.0246395 0)
(0.76148 -0.0255598 0)
(0.297469 -0.0112432 0)
(-0.811394 -0.0179099 0)
(1.1829 -0.0934939 0)
(1.1758 -0.0909974 0)
(1.17248 -0.0894206 0)
(1.17238 -0.0861138 0)
(1.17863 -0.0803898 0)
(1.18009 -0.0767352 0)
(1.17767 -0.074785 0)
(1.17433 -0.0732225 0)
(1.17052 -0.0717586 0)
(1.16605 -0.0702976 0)
(1.15767 -0.0691937 0)
(1.14942 -0.0682073 0)
(1.14416 -0.0667729 0)
(1.14004 -0.065249 0)
(1.13663 -0.0636602 0)
(1.1386 -0.0593933 0)
(1.14489 -0.0532728 0)
(1.14528 -0.0497734 0)
(1.14252 -0.0479024 0)
(1.139 -0.0464443 0)
(1.13506 -0.0451606 0)
(1.12911 -0.0441638 0)
(1.11854 -0.0443504 0)
(1.1105 -0.0439224 0)
(1.10542 -0.0426355 0)
(1.10135 -0.0412847 0)
(1.09846 -0.0393498 0)
(1.1031 -0.0335693 0)
(1.10876 -0.0271657 0)
(1.10804 -0.0240975 0)
(1.10489 -0.0225331 0)
(1.10113 -0.0213692 0)
(1.09691 -0.0203698 0)
(1.08779 -0.0206087 0)
(1.07589 -0.0220191 0)
(1.06852 -0.0216884 0)
(1.06353 -0.020373 0)
(1.05948 -0.019135 0)
(1.0579 -0.0163523 0)
(1.0653 -0.00863609 0)
(1.06973 -0.00245276 0)
(1.06795 6.93436e-05 0)
(1.06439 0.00124833 0)
(1.06045 0.00207648 0)
(1.05432 0.00225624 0)
(1.04076 -0.000623903 0)
(1.02901 -0.00275605 0)
(1.02227 -0.00231004 0)
(1.01726 -0.00103201 0)
(1.01304 0.000225238 0)
(1.01383 0.00447191 0)
(1.02318 0.0143922 0)
(1.02653 0.020449 0)
(1.02416 0.0227781 0)
(1.02027 0.023683 0)
(1.01578 0.0243005 0)
(1.00477 0.0220599 0)
(0.987913 0.015626 0)
(0.976885 0.0124732 0)
(0.970256 0.0125254 0)
(0.964779 0.0135678 0)
(0.96049 0.0149819 0)
(0.963751 0.021811 0)
(0.973751 0.0344257 0)
(0.975901 0.0409143 0)
(0.972988 0.0429787 0)
(0.968514 0.0432711 0)
(0.962629 0.0434176 0)
(0.947664 0.0380838 0)
(0.928131 0.0276859 0)
(0.916383 0.0228235 0)
(0.909332 0.0217578 0)
(0.903737 0.0214484 0)
(0.899249 0.0226216 0)
(0.903459 0.0311283 0)
(0.91208 0.0452689 0)
(0.912758 0.0527158 0)
(0.908575 0.0550972 0)
(0.903185 0.0551235 0)
(0.895609 0.0535399 0)
(0.878995 0.0449073 0)
(0.857685 0.0303479 0)
(0.843505 0.0218037 0)
(0.834632 0.018785 0)
(0.828584 0.0179504 0)
(0.82622 0.0203124 0)
(0.830148 0.0284207 0)
(0.831701 0.0345465 0)
(0.829191 0.0361384 0)
(0.824303 0.0355547 0)
(0.817596 0.0337926 0)
(0.807787 0.0266405 0)
(0.792819 0.0118114 0)
(0.773864 -0.00781267 0)
(0.757999 -0.0209671 0)
(0.752898 -0.0312456 0)
(0.757074 -0.0382197 0)
(0.299842 -0.00435785 0)
(-0.813564 -0.0173738 0)
(1.18024 -0.0915376 0)
(1.17267 -0.0890532 0)
(1.16924 -0.0874286 0)
(1.16729 -0.0850546 0)
(1.17285 -0.079545 0)
(1.17663 -0.0748823 0)
(1.17495 -0.0723802 0)
(1.17177 -0.0706487 0)
(1.16807 -0.0691193 0)
(1.16401 -0.0677399 0)
(1.15671 -0.0668224 0)
(1.14742 -0.0664088 0)
(1.14149 -0.0652634 0)
(1.13709 -0.0637085 0)
(1.13338 -0.0622741 0)
(1.13244 -0.0592855 0)
(1.13898 -0.0529247 0)
(1.14189 -0.0481752 0)
(1.13982 -0.0458549 0)
(1.13648 -0.0442881 0)
(1.13265 -0.0429972 0)
(1.12812 -0.0419108 0)
(1.11851 -0.0421408 0)
(1.10869 -0.0425376 0)
(1.10286 -0.0415336 0)
(1.09846 -0.0399988 0)
(1.09481 -0.0385786 0)
(1.09548 -0.0346688 0)
(1.10304 -0.0272325 0)
(1.10496 -0.0227227 0)
(1.10236 -0.020813 0)
(1.09877 -0.0195599 0)
(1.09485 -0.0185439 0)
(1.08859 -0.0181444 0)
(1.07622 -0.020031 0)
(1.06665 -0.020823 0)
(1.06096 -0.01984 0)
(1.05651 -0.0184313 0)
(1.05293 -0.0168832 0)
(1.05622 -0.0114261 0)
(1.06433 -0.00281887 0)
(1.06524 0.00140314 0)
(1.06211 0.00291283 0)
(1.05827 0.00384751 0)
(1.05401 0.00455398 0)
(1.04379 0.00289532 0)
(1.02931 -0.00104443 0)
(1.02046 -0.00205177 0)
(1.0149 -0.00130668 0)
(1.01025 -0.000192492 0)
(1.00682 0.00155706 0)
(1.01244 0.0091031 0)
(1.0209 0.019499 0)
(1.02137 0.0238974 0)
(1.01795 0.0253254 0)
(1.01373 0.0260965 0)
(1.00817 0.0261029 0)
(0.993935 0.0204413 0)
(0.977973 0.0134662 0)
(0.968521 0.0117133 0)
(0.962428 0.0125233 0)
(0.95758 0.0134108 0)
(0.954503 0.0153647 0)
(0.962013 0.0248765 0)
(0.970661 0.0369103 0)
(0.970523 0.0415411 0)
(0.966351 0.0434173 0)
(0.961457 0.0448266 0)
(0.954461 0.0446209 0)
(0.937904 0.0358448 0)
(0.919971 0.024228 0)
(0.909097 0.0196981 0)
(0.90174 0.0195023 0)
(0.896285 0.0198805 0)
(0.892936 0.0215831 0)
(0.899261 0.0314371 0)
(0.906759 0.0443629 0)
(0.906602 0.0499604 0)
(0.902213 0.0517023 0)
(0.896319 0.0521849 0)
(0.887367 0.051064 0)
(0.869902 0.0414832 0)
(0.849729 0.0264852 0)
(0.836176 0.0180491 0)
(0.82761 0.0151567 0)
(0.822063 0.0145467 0)
(0.821463 0.0179712 0)
(0.826037 0.0258966 0)
(0.827231 0.0303631 0)
(0.824742 0.0307489 0)
(0.820064 0.0299374 0)
(0.813853 0.0269096 0)
(0.805264 0.0180709 0)
(0.791639 0.00269778 0)
(0.773041 -0.0158964 0)
(0.757724 -0.0283382 0)
(0.753127 -0.0519496 0)