/*--------------------------------*- C++ -*----------------------------------*\
  =========                 |
  \\      /  F ield         | OpenFOAM: The Open Source CFD Toolbox
   \\    /   O peration     | Website:  https://openfoam.org
    \\  /    A nd           | Version:  12
     \\/     M anipulation  |
\*---------------------------------------------------------------------------*/
FoamFile
{
    format      ascii;
    class       volVectorField;
    location    "10";
    object      U;
}
// * * * * * * * * * * * * * * * * * * * * * * * * * * * * * * * * * * * * * //

dimensions      [0 1 -1 0 0 0 0];

internalField   nonuniform List<vector> 
1800
(
(2.9 2.07099e-14 0)
(2.9 -1.66557e-14 0)
(2.9 -6.22558e-14 0)
(2.9 -4.18643e-14 0)
(2.9 -3.04625e-14 0)
(2.9 -4.37752e-14 0)
(2.9 -3.95476e-14 0)
(2.9 -7.57073e-15 0)
(2.9 -2.42971e-14 0)
(2.9 -1.69136e-14 0)
(2.9 3.49118e-14 0)
(2.9 2.99683e-14 0)
(2.9 1.09439e-13 0)
(2.9 9.42854e-14 0)
(2.9 5.67854e-14 0)
(2.9 3.31112e-14 0)
(2.9 2.30151e-14 0)
(2.9 -9.57083e-14 0)
(2.9 -6.88668e-12 0)
(2.9 -1.04616e-09 0)
(2.9 -1.15389e-07 0)
(2.89999 -1.02359e-05 0)
(2.8997 -0.000324091 0)
(2.89285 -0.00764073 0)
(2.85584 -0.0539104 0)
(2.7382 -0.169005 0)
(2.60841 -0.172476 0)
(2.48174 -0.224386 0)
(2.42107 -0.138876 0)
(2.3791 -0.046308 0)
(2.38287 -0.00233895 0)
(2.39255 0.0087796 0)
(2.38147 0.00622862 0)
(2.37871 0.000228877 0)
(2.38029 -0.00210133 0)
(2.38576 -0.00455367 0)
(2.39364 -0.00288534 0)
(2.39599 0.000687266 0)
(2.39456 0.000945192 0)
(2.39364 0.000433132 0)
(2.39434 -0.00080799 0)
(2.39555 -0.00124338 0)
(2.39741 -0.00101712 0)
(2.39721 -0.000476866 0)
(2.39644 -0.000406013 0)
(2.39582 -0.00069712 0)
(2.39697 -0.000606512 0)
(2.39778 -8.82908e-05 0)
(2.39876 0.000100339 0)
(2.39931 0.000333374 0)
(2.39905 0.000345334 0)
(2.39989 0.000104778 0)
(2.40014 -3.60796e-05 0)
(2.40035 -0.000173221 0)
(2.40022 -0.000225991 0)
(2.39992 -0.000257043 0)
(2.39967 -0.000279336 0)
(2.39958 -0.000308664 0)
(2.39984 -0.000440573 0)
(2.40002 -0.000220466 0)
(2.9 7.07664e-14 0)
(2.9 -3.04258e-15 0)
(2.9 -7.64719e-14 0)
(2.9 -4.50303e-14 0)
(2.9 -5.83182e-14 0)
(2.9 -1.35481e-13 0)
(2.9 -1.01875e-13 0)
(2.9 5.03767e-14 0)
(2.9 4.7084e-14 0)
(2.9 1.69208e-14 0)
(2.9 8.48556e-14 0)
(2.9 9.49038e-14 0)
(2.9 1.12883e-13 0)
(2.9 1.13118e-13 0)
(2.9 4.03962e-14 0)
(2.9 4.92001e-14 0)
(2.9 -4.60926e-14 0)
(2.9 -3.80703e-12 0)
(2.9 -5.94167e-10 0)
(2.9 -7.22368e-08 0)
(2.9 -6.02451e-06 0)
(2.89986 -0.000296208 0)
(2.89759 -0.00534422 0)
(2.86496 -0.0750946 0)
(2.80869 -0.214383 0)
(2.71696 -0.434508 0)
(2.64495 -0.43493 0)
(2.5641 -0.273131 0)
(2.4569 -0.0430891 0)
(2.39742 0.0116066 0)
(2.39466 0.0290517 0)
(2.40159 0.015229 0)
(2.39959 0.0112944 0)
(2.39622 0.00226482 0)
(2.39432 -0.00797141 0)
(2.3978 -0.011621 0)
(2.40165 -0.00664671 0)
(2.40269 0.00176136 0)
(2.40103 0.00316853 0)
(2.39947 0.0025875 0)
(2.3985 0.000376394 0)
(2.39831 -0.0010153 0)
(2.39937 -0.00087071 0)
(2.39945 -0.000387729 0)
(2.39896 -0.000429782 0)
(2.39849 -0.000719927 0)
(2.39888 -0.000286837 0)
(2.39941 0.000305799 0)
(2.40003 0.000779944 0)
(2.40035 0.00117495 0)
(2.40038 0.000745378 0)
(2.40086 -4.32898e-05 0)
(2.40115 -0.000480148 0)
(2.40135 -0.000668271 0)
(2.40108 -0.000414666 0)
(2.40067 -0.00025217 0)
(2.40035 -0.000210781 0)
(2.40014 -0.000428483 0)
(2.40039 -0.000806043 0)
(2.40057 -0.000507414 0)
(2.9 1.07856e-15 0)
(2.9 1.34691e-14 0)
(2.9 -1.75765e-14 0)
(2.9 -3.39946e-14 0)
(2.9 -7.03849e-14 0)
(2.9 -1.42624e-13 0)
(2.9 -1.59287e-13 0)
(2.9 -1.2381e-13 0)
(2.9 2.62444e-14 0)
(2.9 8.87066e-14 0)
(2.9 7.72769e-14 0)
(2.9 5.04198e-14 0)
(2.9 -1.09847e-14 0)
(2.9 -4.72015e-14 0)
(2.9 1.60475e-14 0)
(2.9 2.50998e-14 0)
(2.9 -8.40166e-13 0)
(2.9 -1.20005e-10 0)
(2.9 -2.43892e-08 0)
(2.9 -2.68922e-06 0)
(2.89994 -0.000135095 0)
(2.89837 -0.00347155 0)
(2.88285 -0.0365043 0)
(2.79182 -0.194076 0)
(2.68002 -0.419088 0)
(2.66423 -0.496888 0)
(2.65475 -0.488678 0)
(2.62986 -0.441822 0)
(2.58203 -0.324436 0)
(2.54421 -0.204812 0)
(2.48123 -0.0659702 0)
(2.42357 -0.00625086 0)
(2.42233 0.00506178 0)
(2.41825 0.00415539 0)
(2.41189 -0.00841026 0)
(2.41091 -0.0112769 0)
(2.41087 -0.00762659 0)
(2.41239 -1.32481e-05 0)
(2.41034 0.00268858 0)
(2.40842 0.00229178 0)
(2.40568 2.1094e-06 0)
(2.40362 -0.00228394 0)
(2.40367 -0.00223191 0)
(2.4041 -0.00116704 0)
(2.4042 -0.000554226 0)
(2.40345 -0.000399456 0)
(2.40297 -0.000168381 0)
(2.40303 0.000309226 0)
(2.40317 0.0011802 0)
(2.40311 0.00144617 0)
(2.40323 0.000839095 0)
(2.40348 8.2958e-05 0)
(2.40364 -0.000461768 0)
(2.40353 -0.000557639 0)
(2.40318 -0.000510392 0)
(2.40277 -0.000492166 0)
(2.40239 -0.00058023 0)
(2.40211 -0.000916885 0)
(2.40208 -0.00129239 0)
(2.40195 -0.000727611 0)
(2.9 -1.43854e-14 0)
(2.9 2.63876e-15 0)
(2.9 -1.76468e-14 0)
(2.9 -4.2192e-14 0)
(2.9 -4.03921e-14 0)
(2.9 -7.76192e-14 0)
(2.9 -7.89337e-14 0)
(2.9 -7.30896e-14 0)
(2.9 1.12687e-14 0)
(2.9 9.0138e-14 0)
(2.9 3.6287e-14 0)
(2.9 -1.54537e-14 0)
(2.9 -3.98873e-14 0)
(2.9 -2.5907e-14 0)
(2.9 3.12459e-14 0)
(2.9 -4.73126e-13 0)
(2.9 -5.80111e-11 0)
(2.9 -1.1544e-08 0)
(2.9 -1.44234e-06 0)
(2.89996 -8.94377e-05 0)
(2.89896 -0.00257077 0)
(2.88699 -0.0302705 0)
(2.83796 -0.128706 0)
(2.68314 -0.368434 0)
(2.62406 -0.52709 0)
(2.62702 -0.505657 0)
(2.63704 -0.489626 0)
(2.63613 -0.477279 0)
(2.6237 -0.451581 0)
(2.59409 -0.357571 0)
(2.49955 -0.141829 0)
(2.44374 -0.0581957 0)
(2.43736 0.0201698 0)
(2.4218 0.00956823 0)
(2.414 -0.00445137 0)
(2.41416 -0.00430586 0)
(2.41449 -0.00340287 0)
(2.41647 -0.00131365 0)
(2.41642 0.00174592 0)
(2.41468 0.00237266 0)
(2.4108 0.000249049 0)
(2.40825 -0.00312069 0)
(2.40719 -0.00373354 0)
(2.40741 -0.0027038 0)
(2.40829 -0.000665398 0)
(2.40779 0.000542325 0)
(2.40727 0.000552014 0)
(2.40687 0.000711657 0)
(2.40639 0.00169202 0)
(2.40605 0.00175919 0)
(2.40603 0.00120255 0)
(2.40609 0.000270813 0)
(2.40613 -0.000411781 0)
(2.40602 -0.000538416 0)
(2.40572 -0.00039621 0)
(2.40508 -0.000526888 0)
(2.4047 -0.000753606 0)
(2.40434 -0.000979092 0)
(2.40403 -0.00114789 0)
(2.40398 -0.0006478 0)
(2.9 -1.09879e-14 0)
(2.9 -2.28287e-15 0)
(2.9 2.09713e-14 0)
(2.9 1.56145e-14 0)
(2.9 -2.36142e-14 0)
(2.9 -6.57249e-14 0)
(2.9 -1.62378e-14 0)
(2.9 3.69244e-15 0)
(2.9 5.59721e-14 0)
(2.9 8.93752e-14 0)
(2.9 8.23877e-14 0)
(2.9 4.08563e-14 0)
(2.9 2.4805e-14 0)
(2.9 6.70564e-14 0)
(2.9 -7.17205e-13 0)
(2.9 -1.23085e-10 0)
(2.9 -1.57081e-08 0)
(2.9 -1.25755e-06 0)
(2.89997 -7.59835e-05 0)
(2.89923 -0.00201939 0)
(2.8891 -0.0262507 0)
(2.8407 -0.141814 0)
(2.7512 -0.29965 0)
(2.63824 -0.46151 0)
(2.61431 -0.535333 0)
(2.61268 -0.515413 0)
(2.62463 -0.493456 0)
(2.62773 -0.482652 0)
(2.63054 -0.491065 0)
(2.62166 -0.485743 0)
(2.5737 -0.40114 0)
(2.49903 -0.216711 0)
(2.4412 -0.0265696 0)
(2.42255 -0.0193487 0)
(2.42296 -0.00739826 0)
(2.41691 0.00384198 0)
(2.41202 0.000392123 0)
(2.41362 -0.00222531 0)
(2.41654 -0.000225382 0)
(2.41634 0.00159018 0)
(2.41109 -0.000479453 0)
(2.40791 -0.0032204 0)
(2.40658 -0.00475064 0)
(2.40763 -0.00380505 0)
(2.40948 -0.00035044 0)
(2.4095 0.00147011 0)
(2.40884 0.00164448 0)
(2.40786 0.00126289 0)
(2.40734 0.00133599 0)
(2.40732 0.00160172 0)
(2.40706 0.00133537 0)
(2.40685 0.000308961 0)
(2.4068 -0.000380553 0)
(2.4068 -0.000413768 0)
(2.40671 -0.000229446 0)
(2.40619 -0.0004144 0)
(2.40552 -0.000888277 0)
(2.40523 -0.000937436 0)
(2.40486 -0.000826375 0)
(2.405 -0.00035281 0)
(2.9 -5.11362e-14 0)
(2.9 -3.04023e-14 0)
(2.9 3.79529e-14 0)
(2.9 2.03721e-14 0)
(2.9 -4.5042e-14 0)
(2.9 -2.71074e-14 0)
(2.9 4.50005e-14 0)
(2.9 5.15023e-14 0)
(2.9 1.3353e-13 0)
(2.9 1.84869e-13 0)
(2.9 1.54065e-13 0)
(2.9 3.63237e-14 0)
(2.9 -3.7222e-14 0)
(2.9 -1.17769e-12 0)
(2.9 -1.37383e-10 0)
(2.9 -1.66856e-08 0)
(2.9 -1.23528e-06 0)
(2.89998 -6.2804e-05 0)
(2.89934 -0.00170803 0)
(2.89159 -0.023787 0)
(2.84189 -0.131666 0)
(2.75788 -0.321597 0)
(2.68753 -0.414263 0)
(2.61807 -0.499738 0)
(2.60642 -0.542149 0)
(2.60261 -0.529347 0)
(2.61672 -0.502126 0)
(2.62233 -0.489263 0)
(2.62761 -0.490898 0)
(2.62312 -0.503041 0)
(2.61189 -0.494759 0)
(2.57329 -0.412276 0)
(2.48716 -0.208952 0)
(2.44407 -0.0974605 0)
(2.43563 0.0112911 0)
(2.41326 0.00594415 0)
(2.40331 -0.00123796 0)
(2.40529 -0.0035987 0)
(2.40969 -0.00195702 0)
(2.41077 5.67593e-05 0)
(2.40545 -0.00144412 0)
(2.40233 -0.00332779 0)
(2.40158 -0.00564542 0)
(2.40461 -0.00431603 0)
(2.40775 0.000186084 0)
(2.40758 0.0022978 0)
(2.40643 0.00274092 0)
(2.40496 0.00185382 0)
(2.40452 0.00126989 0)
(2.40455 0.00129824 0)
(2.40449 0.00114036 0)
(2.40452 8.95046e-05 0)
(2.40467 -0.000530286 0)
(2.40475 -0.000495479 0)
(2.40486 -0.000253554 0)
(2.40454 -0.00043028 0)
(2.40375 -0.000937828 0)
(2.40337 -0.000969924 0)
(2.40322 -0.000791906 0)
(2.40357 -0.000223191 0)
(2.9 2.72032e-15 0)
(2.9 -3.67233e-14 0)
(2.9 -1.99781e-14 0)
(2.9 -3.15861e-14 0)
(2.9 -2.61495e-14 0)
(2.9 2.03411e-14 0)
(2.9 1.04551e-13 0)
(2.9 1.0007e-13 0)
(2.9 1.78647e-13 0)
(2.9 2.21067e-13 0)
(2.9 1.32972e-13 0)
(2.9 1.02656e-13 0)
(2.9 -5.18614e-13 0)
(2.9 -5.83558e-11 0)
(2.9 -7.70266e-09 0)
(2.9 -6.15425e-07 0)
(2.89998 -3.88216e-05 0)
(2.89956 -0.00101696 0)
(2.89204 -0.0198977 0)
(2.85805 -0.10352 0)
(2.74116 -0.347114 0)
(2.69006 -0.430561 0)
(2.63896 -0.469136 0)
(2.62511 -0.496718 0)
(2.61523 -0.530489 0)
(2.60653 -0.530772 0)
(2.61462 -0.509505 0)
(2.61984 -0.495003 0)
(2.62563 -0.491865 0)
(2.62009 -0.501215 0)
(2.61688 -0.509033 0)
(2.60769 -0.499782 0)
(2.5709 -0.419106 0)
(2.51176 -0.240469 0)
(2.43802 -0.0320587 0)
(2.41736 -0.027779 0)
(2.40817 -0.00964294 0)
(2.39786 -0.00582483 0)
(2.39817 -0.00438136 0)
(2.40072 -0.000676097 0)
(2.39884 -0.000763454 0)
(2.39604 -0.00330895 0)
(2.39567 -0.00645081 0)
(2.39937 -0.00453433 0)
(2.40336 0.000728429 0)
(2.40318 0.00342968 0)
(2.40171 0.00386768 0)
(2.39965 0.00225809 0)
(2.39883 0.00110224 0)
(2.39887 0.00106177 0)
(2.39906 0.000931934 0)
(2.39963 0.000169335 0)
(2.40038 -0.000440587 0)
(2.40054 -0.000477439 0)
(2.40069 -0.000313048 0)
(2.4005 -0.000195516 0)
(2.39983 -0.000784792 0)
(2.39958 -0.00099464 0)
(2.39966 -0.000924292 0)
(2.40029 -0.000458165 0)
(2.9 3.6843e-15 0)
(2.9 -4.18632e-14 0)
(2.9 -7.95048e-14 0)
(2.9 -2.33882e-14 0)
(2.9 -3.38557e-15 0)
(2.9 3.97795e-14 0)
(2.9 4.02803e-14 0)
(2.9 7.36471e-14 0)
(2.9 1.02435e-13 0)
(2.9 2.88092e-14 0)
(2.9 1.05458e-13 0)
(2.9 -1.8197e-14 0)
(2.9 -9.98045e-12 0)
(2.9 -1.6752e-09 0)
(2.9 -1.81195e-07 0)
(2.89999 -1.44044e-05 0)
(2.89975 -0.000520874 0)
(2.89502 -0.0105909 0)
(2.86213 -0.0809227 0)
(2.75429 -0.296353 0)
(2.67576 -0.484099 0)
(2.6503 -0.468428 0)
(2.63651 -0.471409 0)
(2.62946 -0.485448 0)
(2.61851 -0.519994 0)
(2.61178 -0.528291 0)
(2.61187 -0.516382 0)
(2.61706 -0.50113 0)
(2.62213 -0.49559 0)
(2.62129 -0.500784 0)
(2.61504 -0.507209 0)
(2.61231 -0.509952 0)
(2.6058 -0.49869 0)
(2.58348 -0.430759 0)
(2.51029 -0.246425 0)
(2.46849 -0.117263 0)
(2.43378 0.00495488 0)
(2.39893 0.000529666 0)
(2.38649 -0.00941758 0)
(2.39347 -0.00515735 0)
(2.39439 -0.00132541 0)
(2.39229 -0.00302247 0)
(2.39199 -0.00558828 0)
(2.39511 -0.00404187 0)
(2.39849 0.000994077 0)
(2.39853 0.00378487 0)
(2.39711 0.00460216 0)
(2.39458 0.00266722 0)
(2.39351 0.000597767 0)
(2.39374 0.000323046 0)
(2.39425 0.000221701 0)
(2.39528 -0.000274232 0)
(2.39646 -0.000700633 0)
(2.39669 -0.000632043 0)
(2.39672 -0.000507406 0)
(2.39652 -0.000510248 0)
(2.39578 -0.000657782 0)
(2.39595 -0.000622982 0)
(2.39618 -0.000526942 0)
(2.39711 -0.00014875 0)
(2.9 -1.1036e-14 0)
(2.9 -1.2028e-14 0)
(2.9 -7.55972e-14 0)
(2.9 -2.46304e-14 0)
(2.9 -2.5521e-14 0)
(2.9 8.51872e-15 0)
(2.9 -4.83741e-14 0)
(2.9 -5.65865e-15 0)
(2.9 -8.24753e-14 0)
(2.9 9.66491e-16 0)
(2.9 1.88578e-14 0)
(2.9 -1.57237e-12 0)
(2.9 -2.20298e-10 0)
(2.9 -4.66431e-08 0)
(2.9 -4.57998e-06 0)
(2.89988 -0.000252797 0)
(2.89739 -0.00542134 0)
(2.87159 -0.0592308 0)
(2.77809 -0.219972 0)
(2.67619 -0.446591 0)
(2.64336 -0.508951 0)
(2.63074 -0.484147 0)
(2.63139 -0.478605 0)
(2.62958 -0.487112 0)
(2.61856 -0.515948 0)
(2.6135 -0.526918 0)
(2.61021 -0.519149 0)
(2.61782 -0.504071 0)
(2.62133 -0.49686 0)
(2.62403 -0.500143 0)
(2.61695 -0.505053 0)
(2.61302 -0.507871 0)
(2.61124 -0.508921 0)
(2.60897 -0.501346 0)
(2.58688 -0.438683 0)
(2.53722 -0.270652 0)
(2.45673 -0.0739126 0)
(2.43492 -0.0406914 0)
(2.40197 -0.0278249 0)
(2.39295 -0.00643008 0)
(2.39084 -0.00383183 0)
(2.39133 -0.00246141 0)
(2.39206 -0.00318304 0)
(2.39425 -0.00309193 0)
(2.39587 0.000669693 0)
(2.39607 0.00351503 0)
(2.39465 0.00501202 0)
(2.39182 0.00243998 0)
(2.39067 -0.00035921 0)
(2.39111 -0.00104196 0)
(2.39201 -0.000874852 0)
(2.39358 -0.00053815 0)
(2.39488 -0.000542381 0)
(2.39504 -0.000556851 0)
(2.395 -0.000525715 0)
(2.39466 -0.000349027 0)
(2.39375 -0.000528512 0)
(2.39407 -0.000606512 0)
(2.39452 -0.000703969 0)
(2.39555 -0.000601395 0)
(2.9 5.76997e-15 0)
(2.9 6.15647e-14 0)
(2.9 2.79918e-14 0)
(2.9 -2.54272e-14 0)
(2.9 -3.2345e-14 0)
(2.9 -1.65993e-14 0)
(2.9 4.1348e-15 0)
(2.9 -7.09217e-14 0)
(2.9 -7.30494e-14 0)
(2.9 2.6434e-14 0)
(2.9 -8.0488e-13 0)
(2.9 -2.03368e-10 0)
(2.9 -2.70838e-08 0)
(2.9 -2.75496e-06 0)
(2.89994 -0.000144475 0)
(2.89842 -0.00379486 0)
(2.88022 -0.0435864 0)
(2.80761 -0.181303 0)
(2.68534 -0.366559 0)
(2.61824 -0.547071 0)
(2.60618 -0.532161 0)
(2.6206 -0.492999 0)
(2.6257 -0.478248 0)
(2.63096 -0.483352 0)
(2.62137 -0.506079 0)
(2.61681 -0.519953 0)
(2.60938 -0.517545 0)
(2.61547 -0.507519 0)
(2.62038 -0.500426 0)
(2.62437 -0.500311 0)
(2.62094 -0.502658 0)
(2.61531 -0.505277 0)
(2.61337 -0.508039 0)
(2.61302 -0.508827 0)
(2.61128 -0.502066 0)
(2.5979 -0.456928 0)
(2.53151 -0.298158 0)
(2.49774 -0.148421 0)
(2.41933 -0.010853 0)
(2.39416 -0.00816516 0)
(2.38809 -0.00751569 0)
(2.39429 0.000653195 0)
(2.39592 -0.000178904 0)
(2.39586 -0.00211742 0)
(2.39622 0.00015575 0)
(2.39643 0.00354931 0)
(2.39478 0.00482633 0)
(2.39149 0.00150713 0)
(2.39038 -0.00174837 0)
(2.3907 -0.00261865 0)
(2.39163 -0.00182117 0)
(2.39378 -0.000185858 0)
(2.39498 0.000179022 0)
(2.39477 -0.000190203 0)
(2.39469 -0.000189407 0)
(2.39444 0.000154027 0)
(2.39361 0.000197318 0)
(2.39385 -0.000298193 0)
(2.39439 -0.000465757 0)
(2.39529 -0.000713092 0)
(2.9 1.76806e-15 0)
(2.9 1.02505e-13 0)
(2.9 8.84053e-14 0)
(2.9 8.90722e-15 0)
(2.9 2.99476e-16 0)
(2.9 -1.5949e-14 0)
(2.9 1.25934e-14 0)
(2.9 -2.2053e-14 0)
(2.9 3.66753e-15 0)
(2.9 -9.95262e-13 0)
(2.9 -2.67142e-10 0)
(2.9 -4.30165e-08 0)
(2.9 -3.05803e-06 0)
(2.89995 -0.000151326 0)
(2.89874 -0.00354682 0)
(2.88607 -0.0333169 0)
(2.81884 -0.181345 0)
(2.71367 -0.349149 0)
(2.61879 -0.480102 0)
(2.61023 -0.540484 0)
(2.60386 -0.525712 0)
(2.62057 -0.493724 0)
(2.6241 -0.477526 0)
(2.63074 -0.48047 0)
(2.62325 -0.498723 0)
(2.61712 -0.514575 0)
(2.6084 -0.515612 0)
(2.61047 -0.509666 0)
(2.61621 -0.504614 0)
(2.62301 -0.502132 0)
(2.62252 -0.502737 0)
(2.61961 -0.503492 0)
(2.61602 -0.505653 0)
(2.61464 -0.508289 0)
(2.61384 -0.508375 0)
(2.61242 -0.504018 0)
(2.59755 -0.46364 0)
(2.55231 -0.31919 0)
(2.47235 -0.148426 0)
(2.44234 -0.0839478 0)
(2.40856 -0.018454 0)
(2.40446 0.0108951 0)
(2.39814 0.00407234 0)
(2.39777 -0.00260295 0)
(2.39857 -0.000701288 0)
(2.39826 0.00262336 0)
(2.39618 0.00153506 0)
(2.3925 -0.00177259 0)
(2.39127 -0.00355147 0)
(2.39105 -0.00380081 0)
(2.39286 -0.00232534 0)
(2.3959 2.7934e-05 0)
(2.39641 0.000571804 0)
(2.39566 0.000336145 0)
(2.39545 0.000246627 0)
(2.395 0.000604665 0)
(2.39422 0.000406929 0)
(2.39418 -0.000202425 0)
(2.39467 -0.000362878 0)
(2.39565 -0.000630143 0)
(2.9 3.34618e-15 0)
(2.9 1.81996e-14 0)
(2.9 2.54133e-14 0)
(2.9 1.21056e-14 0)
(2.9 -6.0012e-15 0)
(2.9 -1.38523e-14 0)
(2.9 -5.34016e-14 0)
(2.9 -3.47838e-14 0)
(2.9 -4.44234e-13 0)
(2.9 -1.23729e-10 0)
(2.9 -2.41316e-08 0)
(2.9 -2.3877e-06 0)
(2.89995 -0.000120909 0)
(2.89875 -0.00333547 0)
(2.8877 -0.0351397 0)
(2.82815 -0.169207 0)
(2.73448 -0.358023 0)
(2.65643 -0.439039 0)
(2.62009 -0.487337 0)
(2.60463 -0.540977 0)
(2.59745 -0.53817 0)
(2.61062 -0.508332 0)
(2.61839 -0.483784 0)
(2.63003 -0.484057 0)
(2.62814 -0.494527 0)
(2.62104 -0.507569 0)
(2.60989 -0.51404 0)
(2.60821 -0.512442 0)
(2.61182 -0.508493 0)
(2.62 -0.504612 0)
(2.62213 -0.502966 0)
(2.62102 -0.503133 0)
(2.61913 -0.503689 0)
(2.61618 -0.505754 0)
(2.61426 -0.507726 0)
(2.61376 -0.507737 0)
(2.61252 -0.503509 0)
(2.60273 -0.474035 0)
(2.55194 -0.353962 0)
(2.48782 -0.173875 0)
(2.42029 -0.0132722 0)
(2.41021 0.0149689 0)
(2.40257 -0.00256665 0)
(2.40253 -0.00343063 0)
(2.40327 -0.000522177 0)
(2.40099 -0.000373562 0)
(2.3976 -0.00177602 0)
(2.3944 -0.00351116 0)
(2.39335 -0.00410168 0)
(2.39329 -0.00367588 0)
(2.39578 -0.00193977 0)
(2.39918 0.000223418 0)
(2.39873 0.000671233 0)
(2.39811 0.000584212 0)
(2.39727 0.00101955 0)
(2.39614 0.00114453 0)
(2.39517 0.000360809 0)
(2.39521 -7.82591e-05 0)
(2.39548 -0.000444587 0)
(2.39674 -0.000947177 0)
(2.9 -1.432e-14 0)
(2.9 -3.62832e-14 0)
(2.9 -3.21137e-14 0)
(2.9 9.51314e-16 0)
(2.9 3.50252e-14 0)
(2.9 2.21939e-14 0)
(2.9 5.54241e-16 0)
(2.9 -1.32887e-14 0)
(2.9 -1.87863e-11 0)
(2.9 -6.59512e-09 0)
(2.9 -7.50545e-07 0)
(2.89997 -5.95394e-05 0)
(2.89923 -0.00163964 0)
(2.88733 -0.030935 0)
(2.83741 -0.149803 0)
(2.73975 -0.37438 0)
(2.68297 -0.443889 0)
(2.62912 -0.481855 0)
(2.61714 -0.50504 0)
(2.60051 -0.540716 0)
(2.59556 -0.540476 0)
(2.60467 -0.519481 0)
(2.6168 -0.493672 0)
(2.62982 -0.488207 0)
(2.63251 -0.49288 0)
(2.6271 -0.502421 0)
(2.61366 -0.511388 0)
(2.60913 -0.512272 0)
(2.61022 -0.510553 0)
(2.61471 -0.507712 0)
(2.61888 -0.503252 0)
(2.62029 -0.502408 0)
(2.61922 -0.502977 0)
(2.61816 -0.503798 0)
(2.61518 -0.506092 0)
(2.61419 -0.507689 0)
(2.61368 -0.507585 0)
(2.61288 -0.504397 0)
(2.60342 -0.477153 0)
(2.5642 -0.373329 0)
(2.48955 -0.191073 0)
(2.45408 -0.0791584 0)
(2.42304 -0.0244184 0)
(2.41734 -0.00114427 0)
(2.40484 1.40144e-05 0)
(2.40037 -0.00433825 0)
(2.39844 -0.00341547 0)
(2.39739 -0.0034442 0)
(2.39632 -0.00421929 0)
(2.39598 -0.00412263 0)
(2.39862 -0.00137846 0)
(2.40146 0.000998806 0)
(2.40097 0.00148563 0)
(2.40035 0.00170733 0)
(2.39885 0.00161156 0)
(2.39707 0.000755485 0)
(2.39652 4.19619e-05 0)
(2.3968 -0.000208679 0)
(2.39706 -0.000530858 0)
(2.3982 -0.000580172 0)
(2.9 1.61145e-14 0)
(2.9 -2.76929e-15 0)
(2.9 2.14589e-14 0)
(2.9 3.11796e-14 0)
(2.9 7.49231e-14 0)
(2.9 6.27515e-14 0)
(2.9 7.4868e-14 0)
(2.9 -1.88474e-12 0)
(2.9 -1.02237e-09 0)
(2.9 -1.8217e-07 0)
(2.89999 -1.83238e-05 0)
(2.89964 -0.000718944 0)
(2.89279 -0.0150475 0)
(2.84454 -0.107141 0)
(2.72281 -0.35717 0)
(2.67139 -0.501831 0)
(2.64727 -0.480287 0)
(2.63547 -0.47723 0)
(2.63414 -0.48983 0)
(2.61206 -0.523231 0)
(2.60083 -0.530105 0)
(2.5966 -0.520698 0)
(2.60672 -0.50227 0)
(2.62789 -0.491808 0)
(2.63196 -0.492752 0)
(2.62851 -0.498369 0)
(2.62087 -0.507077 0)
(2.61305 -0.510839 0)
(2.61002 -0.510423 0)
(2.6116 -0.510078 0)
(2.61404 -0.506202 0)
(2.6174 -0.502506 0)
(2.61823 -0.502634 0)
(2.61785 -0.503283 0)
(2.61622 -0.504522 0)
(2.61446 -0.507061 0)
(2.61379 -0.507709 0)
(2.61344 -0.50697 0)
(2.61334 -0.504699 0)
(2.60653 -0.484021 0)
(2.57471 -0.398156 0)
(2.49265 -0.182498 0)
(2.44437 -0.0637123 0)
(2.43404 0.0108198 0)
(2.39914 0.000472376 0)
(2.39534 -0.0073945 0)
(2.39977 -0.00416693 0)
(2.39983 -0.00298557 0)
(2.39782 -0.00406373 0)
(2.3974 -0.00332 0)
(2.40033 -0.000561703 0)
(2.40213 0.00180997 0)
(2.40209 0.00248079 0)
(2.40133 0.00267112 0)
(2.39926 0.00144961 0)
(2.39738 -0.000360066 0)
(2.39752 -0.000621153 0)
(2.39773 -0.000616722 0)
(2.39793 -0.000927901 0)
(2.399 -0.000912976 0)
(2.9 6.76614e-15 0)
(2.9 2.43668e-14 0)
(2.9 4.69401e-14 0)
(2.9 6.46831e-14 0)
(2.9 6.73212e-14 0)
(2.9 3.4876e-14 0)
(2.9 -9.50559e-13 0)
(2.9 -3.37627e-10 0)
(2.9 -6.57209e-08 0)
(2.9 -7.17629e-06 0)
(2.89985 -0.000345708 0)
(2.89629 -0.0076949 0)
(2.86761 -0.0680411 0)
(2.73255 -0.278273 0)
(2.64259 -0.495439 0)
(2.62648 -0.513188 0)
(2.63375 -0.484603 0)
(2.63678 -0.478477 0)
(2.64331 -0.485782 0)
(2.6289 -0.510546 0)
(2.60468 -0.522587 0)
(2.59889 -0.518911 0)
(2.60199 -0.509992 0)
(2.61649 -0.496361 0)
(2.62725 -0.494659 0)
(2.62739 -0.498353 0)
(2.62445 -0.502713 0)
(2.61756 -0.507548 0)
(2.61092 -0.509999 0)
(2.61092 -0.51022 0)
(2.61175 -0.508597 0)
(2.61416 -0.5043 0)
(2.617 -0.50284 0)
(2.61773 -0.503628 0)
(2.61753 -0.50408 0)
(2.61588 -0.505522 0)
(2.61462 -0.506457 0)
(2.61355 -0.50698 0)
(2.61335 -0.506667 0)
(2.61369 -0.504794 0)
(2.60939 -0.488508 0)
(2.58272 -0.41624 0)
(2.51435 -0.240449 0)
(2.46085 -0.0987679 0)
(2.42253 -0.0341319 0)
(2.40956 -0.0160642 0)
(2.40385 -0.00480735 0)
(2.39913 -0.00515136 0)
(2.39835 -0.00400262 0)
(2.39911 -0.00200162 0)
(2.40092 0.000422104 0)
(2.40166 0.0015218 0)
(2.40199 0.0029362 0)
(2.40081 0.00307412 0)
(2.39826 0.000557841 0)
(2.39667 -0.00151312 0)
(2.39713 -0.00150608 0)
(2.39742 -0.00103626 0)
(2.39776 -0.00073787 0)
(2.3989 -0.000383344 0)
(2.9 -1.18165e-15 0)
(2.9 2.48876e-14 0)
(2.9 -1.30653e-14 0)
(2.9 1.76669e-14 0)
(2.9 5.15266e-14 0)
(2.9 -4.40084e-13 0)
(2.9 -2.60584e-10 0)
(2.9 -5.49633e-08 0)
(2.9 -5.67306e-06 0)
(2.8999 -0.000271864 0)
(2.89787 -0.00542025 0)
(2.87497 -0.0558052 0)
(2.80143 -0.200636 0)
(2.65445 -0.40363 0)
(2.59573 -0.560003 0)
(2.58392 -0.542274 0)
(2.61717 -0.499702 0)
(2.62773 -0.480933 0)
(2.64406 -0.485712 0)
(2.64187 -0.501095 0)
(2.62012 -0.516038 0)
(2.60481 -0.517224 0)
(2.60381 -0.514537 0)
(2.60914 -0.506608 0)
(2.61947 -0.498456 0)
(2.62366 -0.499378 0)
(2.62257 -0.501451 0)
(2.61869 -0.50435 0)
(2.61326 -0.508292 0)
(2.61182 -0.509783 0)
(2.61139 -0.508952 0)
(2.61261 -0.505897 0)
(2.61505 -0.503858 0)
(2.6167 -0.504092 0)
(2.61743 -0.505441 0)
(2.61703 -0.505902 0)
(2.61586 -0.506108 0)
(2.61467 -0.50582 0)
(2.61424 -0.505784 0)
(2.6148 -0.506006 0)
(2.61544 -0.505363 0)
(2.61233 -0.494168 0)
(2.59216 -0.438766 0)
(2.50972 -0.25162 0)
(2.4669 -0.120967 0)
(2.42594 0.000819098 0)
(2.39617 -0.0131534 0)
(2.39516 -0.00708707 0)
(2.39905 0.00120805 0)
(2.39936 0.00121485 0)
(2.39974 -0.000281197 0)
(2.40079 0.000698109 0)
(2.40134 0.0034761 0)
(2.39904 0.0031496 0)
(2.39587 -0.000537935 0)
(2.39531 -0.00259406 0)
(2.39561 -0.00277001 0)
(2.39622 -0.00247686 0)
(2.39756 -0.0011677 0)
(2.39875 3.75088e-05 0)
(2.9 3.3332e-14 0)
(2.9 5.4291e-15 0)
(2.9 -6.0569e-15 0)
(2.9 2.10447e-14 0)
(2.9 -6.2662e-14 0)
(2.9 -9.13859e-11 0)
(2.9 -2.94337e-08 0)
(2.9 -3.79177e-06 0)
(2.89991 -0.00022041 0)
(2.89796 -0.00579488 0)
(2.88088 -0.0489653 0)
(2.81067 -0.202214 0)
(2.71782 -0.35359 0)
(2.59988 -0.504665 0)
(2.58912 -0.558694 0)
(2.58328 -0.548623 0)
(2.60842 -0.513288 0)
(2.61943 -0.48842 0)
(2.64092 -0.48633 0)
(2.64214 -0.494466 0)
(2.63032 -0.507482 0)
(2.61179 -0.51375 0)
(2.60629 -0.51306 0)
(2.60698 -0.510205 0)
(2.61247 -0.503388 0)
(2.61909 -0.501134 0)
(2.6195 -0.502384 0)
(2.61887 -0.502986 0)
(2.61625 -0.505097 0)
(2.61409 -0.507772 0)
(2.61254 -0.508325 0)
(2.61188 -0.507062 0)
(2.61336 -0.504921 0)
(2.61544 -0.504149 0)
(2.6168 -0.504751 0)
(2.61691 -0.505197 0)
(2.61652 -0.505533 0)
(2.61601 -0.505785 0)
(2.61572 -0.506319 0)
(2.61595 -0.506783 0)
(2.61635 -0.506616 0)
(2.61676 -0.505614 0)
(2.61482 -0.498219 0)
(2.59472 -0.450874 0)
(2.5328 -0.286001 0)
(2.46194 -0.116929 0)
(2.44333 -0.0678177 0)
(2.41363 -0.0127638 0)
(2.40454 0.00826128 0)
(2.39464 0.00241888 0)
(2.39747 -0.00138823 0)
(2.40015 0.000568578 0)
(2.4002 0.0027471 0)
(2.39738 0.00103088 0)
(2.3946 -0.00207888 0)
(2.39438 -0.0031394 0)
(2.39479 -0.00353164 0)
(2.39622 -0.00277599 0)
(2.39852 -0.000363999 0)
(2.39929 0.000979297 0)
(2.9 -2.88479e-14 0)
(2.9 -3.39204e-14 0)
(2.9 4.65471e-14 0)
(2.9 5.01748e-14 0)
(2.9 -2.01881e-11 0)
(2.9 -8.05009e-09 0)
(2.9 -1.48871e-06 0)
(2.89995 -0.000107294 0)
(2.8984 -0.00375718 0)
(2.8821 -0.0460348 0)
(2.81071 -0.21513 0)
(2.72464 -0.374732 0)
(2.65771 -0.446541 0)
(2.63015 -0.49671 0)
(2.59835 -0.537795 0)
(2.58884 -0.54004 0)
(2.5939 -0.522297 0)
(2.60615 -0.495315 0)
(2.63202 -0.488339 0)
(2.63579 -0.491967 0)
(2.63024 -0.501172 0)
(2.61841 -0.508537 0)
(2.60846 -0.51124 0)
(2.60778 -0.510387 0)
(2.61021 -0.505939 0)
(2.61507 -0.50213 0)
(2.61771 -0.50143 0)
(2.61817 -0.503104 0)
(2.618 -0.504032 0)
(2.61596 -0.50543 0)
(2.61424 -0.505765 0)
(2.61267 -0.50564 0)
(2.61326 -0.504877 0)
(2.61506 -0.504858 0)
(2.61593 -0.506062 0)
(2.61632 -0.506583 0)
(2.61661 -0.506648 0)
(2.61683 -0.506412 0)
(2.61701 -0.506226 0)
(2.61722 -0.506274 0)
(2.6175 -0.506177 0)
(2.61781 -0.506013 0)
(2.61811 -0.505648 0)
(2.6163 -0.499856 0)
(2.60172 -0.46193 0)
(2.53093 -0.302305 0)
(2.49155 -0.156163 0)
(2.42791 0.0040249 0)
(2.40511 0.00797526 0)
(2.39677 -0.00360526 0)
(2.40032 -0.00258102 0)
(2.40189 0.000284456 0)
(2.39947 -0.000812205 0)
(2.39669 -0.00150547 0)
(2.39549 -0.00270169 0)
(2.39525 -0.00333302 0)
(2.39575 -0.00358445 0)
(2.39806 -0.00147692 0)
(2.4008 0.00164993 0)
(2.40095 0.00199142 0)
(2.9 -3.42083e-14 0)
(2.9 -5.26577e-14 0)
(2.9 -2.4062e-14 0)
(2.9 -4.00264e-12 0)
(2.9 -2.26517e-09 0)
(2.9 -4.41357e-07 0)
(2.89998 -4.69971e-05 0)
(2.89926 -0.00156686 0)
(2.88675 -0.0298061 0)
(2.81594 -0.17606 0)
(2.70447 -0.430583 0)
(2.66612 -0.439802 0)
(2.64149 -0.481872 0)
(2.6348 -0.505177 0)
(2.61289 -0.53108 0)
(2.59527 -0.532433 0)
(2.5944 -0.521484 0)
(2.60269 -0.500389 0)
(2.61988 -0.492733 0)
(2.62827 -0.494717 0)
(2.62602 -0.500613 0)
(2.62199 -0.504377 0)
(2.61338 -0.508571 0)
(2.61084 -0.509933 0)
(2.60975 -0.508366 0)
(2.61189 -0.504007 0)
(2.61495 -0.501712 0)
(2.61678 -0.502456 0)
(2.61737 -0.5044 0)
(2.61679 -0.505152 0)
(2.61566 -0.505855 0)
(2.61448 -0.506046 0)
(2.6142 -0.506504 0)
(2.61507 -0.506697 0)
(2.61625 -0.50624 0)
(2.61685 -0.505745 0)
(2.61731 -0.505477 0)
(2.61774 -0.505513 0)
(2.61792 -0.505697 0)
(2.61811 -0.50612 0)
(2.61824 -0.506223 0)
(2.61845 -0.50625 0)
(2.61883 -0.506366 0)
(2.6189 -0.50623 0)
(2.61766 -0.502518 0)
(2.60288 -0.467418 0)
(2.55492 -0.336694 0)
(2.47976 -0.154875 0)
(2.45965 -0.0727441 0)
(2.42197 -0.0136379 0)
(2.41231 0.00145764 0)
(2.40265 -0.00162261 0)
(2.3983 -0.00438811 0)
(2.39858 -0.00243604 0)
(2.39887 -0.00248019 0)
(2.39829 -0.00355123 0)
(2.39873 -0.00319257 0)
(2.40141 0.000477375 0)
(2.40288 0.0026442 0)
(2.4026 0.00249745 0)
(2.9 1.64992e-14 0)
(2.9 8.0263e-15 0)
(2.9 -2.69883e-12 0)
(2.9 -8.93568e-10 0)
(2.9 -1.88672e-07 0)
(2.89999 -1.95986e-05 0)
(2.89963 -0.000836268 0)
(2.89248 -0.0166452 0)
(2.84642 -0.111352 0)
(2.70024 -0.375758 0)
(2.62277 -0.539607 0)
(2.61779 -0.494822 0)
(2.63827 -0.489632 0)
(2.63937 -0.496099 0)
(2.63466 -0.516135 0)
(2.61224 -0.524426 0)
(2.60181 -0.515678 0)
(2.6041 -0.504202 0)
(2.61301 -0.495659 0)
(2.62076 -0.494854 0)
(2.62217 -0.49984 0)
(2.62019 -0.502528 0)
(2.61664 -0.505215 0)
(2.61382 -0.507402 0)
(2.61111 -0.507153 0)
(2.61071 -0.505639 0)
(2.61276 -0.503823 0)
(2.61498 -0.504253 0)
(2.61593 -0.505874 0)
(2.61638 -0.506537 0)
(2.61639 -0.506334 0)
(2.61618 -0.506041 0)
(2.61629 -0.506071 0)
(2.61671 -0.505999 0)
(2.6172 -0.505706 0)
(2.61748 -0.505543 0)
(2.61786 -0.505487 0)
(2.61828 -0.505595 0)
(2.61862 -0.50586 0)
(2.61878 -0.506186 0)
(2.61891 -0.506394 0)
(2.619 -0.506498 0)
(2.61907 -0.506626 0)
(2.61921 -0.506632 0)
(2.61919 -0.506454 0)
(2.61816 -0.503424 0)
(2.60794 -0.477187 0)
(2.55901 -0.360881 0)
(2.49635 -0.164017 0)
(2.4488 -0.0359988 0)
(2.42382 0.00813446 0)
(2.39848 -0.00696411 0)
(2.39896 -0.00694124 0)
(2.40366 -0.000911116 0)
(2.40298 -0.000467975 0)
(2.40133 -0.00287091 0)
(2.40175 -0.00158781 0)
(2.40396 0.00150768 0)
(2.4044 0.00291203 0)
(2.40423 0.00255032 0)
(2.9 4.68954e-14 0)
(2.9 -1.95229e-13 0)
(2.9 -4.4664e-10 0)
(2.9 -1.00849e-07 0)
(2.9 -1.06123e-05 0)
(2.89979 -0.000526484 0)
(2.89538 -0.0105149 0)
(2.86124 -0.0868659 0)
(2.76215 -0.27631 0)
(2.61864 -0.527387 0)
(2.58594 -0.545882 0)
(2.60982 -0.511804 0)
(2.62429 -0.491328 0)
(2.6379 -0.48664 0)
(2.64155 -0.501688 0)
(2.62529 -0.513537 0)
(2.60832 -0.51124 0)
(2.60632 -0.50765 0)
(2.60975 -0.502369 0)
(2.61619 -0.498396 0)
(2.61893 -0.499673 0)
(2.61801 -0.504175 0)
(2.61732 -0.505559 0)
(2.6155 -0.506628 0)
(2.61341 -0.506781 0)
(2.61234 -0.506499 0)
(2.6133 -0.505873 0)
(2.61532 -0.505482 0)
(2.61638 -0.505579 0)
(2.61673 -0.505516 0)
(2.61689 -0.505383 0)
(2.61726 -0.505629 0)
(2.61754 -0.505976 0)
(2.61773 -0.506008 0)
(2.618 -0.505849 0)
(2.61826 -0.505791 0)
(2.61859 -0.505761 0)
(2.61891 -0.505902 0)
(2.6191 -0.506157 0)
(2.61912 -0.506441 0)
(2.61918 -0.506575 0)
(2.61926 -0.506585 0)
(2.61937 -0.50657 0)
(2.61943 -0.506532 0)
(2.61942 -0.506449 0)
(2.61937 -0.506275 0)
(2.61865 -0.504483 0)
(2.60976 -0.481796 0)
(2.5757 -0.390505 0)
(2.50549 -0.208286 0)
(2.46574 -0.101181 0)
(2.42314 -0.031001 0)
(2.41222 -0.00630644 0)
(2.40719 -0.00125465 0)
(2.40418 -0.00208629 0)
(2.40307 -0.0012049 0)
(2.40355 -3.8307e-05 0)
(2.40463 0.000682312 0)
(2.40571 0.0021339 0)
(2.40533 0.00168729 0)
(2.9 5.05401e-14 0)
(2.9 -5.57538e-11 0)
(2.9 -3.31293e-08 0)
(2.9 -5.2573e-06 0)
(2.89987 -0.00032078 0)
(2.89701 -0.00770684 0)
(2.86718 -0.0733617 0)
(2.78756 -0.246451 0)
(2.68947 -0.41702 0)
(2.6083 -0.550678 0)
(2.57967 -0.552518 0)
(2.59022 -0.530944 0)
(2.60629 -0.49982 0)
(2.62535 -0.49032 0)
(2.63722 -0.497913 0)
(2.62381 -0.504517 0)
(2.61461 -0.508747 0)
(2.60861 -0.509042 0)
(2.60774 -0.507339 0)
(2.6107 -0.504181 0)
(2.61419 -0.502292 0)
(2.6164 -0.50406 0)
(2.61683 -0.506167 0)
(2.61629 -0.506194 0)
(2.6156 -0.505877 0)
(2.61515 -0.505341 0)
(2.61588 -0.505305 0)
(2.61638 -0.505699 0)
(2.61698 -0.505955 0)
(2.61731 -0.505927 0)
(2.61768 -0.505777 0)
(2.6182 -0.505765 0)
(2.61855 -0.505978 0)
(2.61864 -0.506062 0)
(2.61881 -0.506136 0)
(2.61899 -0.506139 0)
(2.6191 -0.506134 0)
(2.61917 -0.506204 0)
(2.61921 -0.506344 0)
(2.61926 -0.506432 0)
(2.61931 -0.506506 0)
(2.6194 -0.506496 0)
(2.61948 -0.506427 0)
(2.61947 -0.506367 0)
(2.61946 -0.506322 0)
(2.61943 -0.50631 0)
(2.61928 -0.506376 0)
(2.61881 -0.50524 0)
(2.61299 -0.489847 0)
(2.5858 -0.418964 0)
(2.50454 -0.216715 0)
(2.45634 -0.086168 0)
(2.4244 0.0118542 0)
(2.40036 -0.00990978 0)
(2.40514 -0.00380572 0)
(2.40469 0.0013727 0)
(2.40352 0.00195913 0)