/*--------------------------------*- C++ -*----------------------------------*\
  =========                 |
  \\      /  F ield         | OpenFOAM: The Open Source CFD Toolbox
   \\    /   O peration     | Website:  https://openfoam.org
    \\  /    A nd           | Version:  12
     \\/     M anipulation  |
\*---------------------------------------------------------------------------*/
FoamFile
{
    format      ascii;
    class       volScalarField;
    location    "0.66";
    object      p;
}
// * * * * * * * * * * * * * * * * * * * * * * * * * * * * * * * * * * * * * //

dimensions      [1 -1 -2 0 0 0 0];

internalField   nonuniform List<scalar> 
22702
(
1
1
0.836428
1
1.03087
1
1.4705
1
1
0.596016
1.47106
1.47138
1
1.30752
0.8557
1
1
1
1.47128
1
1.32247
1
1.47276
0.61112
1.00516
0.599851
1
1.47554
0.600832
0.615657
1
1.47293
1
1
1
1.33732
0.999712
1.47224
1
1
0.6025
1
1.22715
1
1.47444
1
1
1
1
0.618345
1
0.613744
1
1.47085
1
1.47327
1
1
1
1
0.589982
1
1
0.584009
1
0.600429
1
1
1
0.596109
1
1.47261
1.27747
1
1.47178
1.4931
0.609894
1.47008
0.621773
1
1.47091
0.632467
1.47349
1.47381
1
1
1
1
0.904225
0.595149
1.47181
1
1
0.596977
1
1.32483
0.596819
1
1
1
1
1.22025
1.47107
0.600768
1
1
1.09343
1
0.629769
1
1.47032
1.4722
1
1
0.589754
0.592715
0.593547
1
1
1
1
1
0.887039
1
1.34465
1.0164
1.46818
1
1.46715
1.47197
1.31357
1.46972
1
0.596086
1
0.599167
1
1
1
1
1.47265
1
1
1
1
1.46834
1
1.02888
1
1
1
1
0.618257
1
1.0108
1
0.622599
1
1
1
1.47023
1
1.47225
0.588661
0.590437
1.47323
1.4741
1
1.05165
1.2606
1
1.47138
0.620326
1.3393
1
1
1
1
1.29346
1.38735
1
1.4711
0.576326
1.47295
1
0.613295
1
0.616535
0.594919
1
1
1
1.47418
1
1
1.46086
1
1.47291
1.47082
0.647601
1
1
0.625888
1.47138
1
1
1
1.47102
1
0.594935
1
1
1.47149
1.47114
1.47162
1
1
1
1
1
1.32582
1
0.583465
1.48828
1.46669
1.17687
1
1
1
0.627807
1.47271
1.224
1
1.33632
0.596843
0.595104
1.33644
1.47701
1
1.47688
0.59939
1.34468
1
1
1
1
1.46222
1
1.28269
1.04257
1
1
1.43666
0.596965
0.737641
1
1.47244
0.603561
1.47471
1
1
1
1
1
1
1
0.620189
0.742082
0.597968
1.4722
1
1
1
1
1.41226
1
0.619387
1
0.619749
0.627176
1.47256
0.598579
1.32277
1
1
1
0.997612
0.61019
0.599564
0.999999
1
0.617727
1
1.47263
0.599261
1
1
1.46973
0.593252
1
1.46622
0.593018
1.43461
1
0.626321
0.997751
1
1
1
0.610612
1
1
1
1.00001
0.986113
1.26782
1
0.626414
1
1
1
1
1
1
1
1.46967
1
1.47471
1
1
1
0.61527
1
1.46872
0.596993
1
1
1
1
1.47142
1
1
1
1.46364
1
1
1.46633
1.47038
1
1.07303
1
1
0.599171
1
1
1
0.594873
1
1
1
1
0.606276
1
1
1
1
1
0.592304
1.00007
1.47271
1
0.999978
1.47355
1.47352
1
1
0.654359
0.782059
1.47329
1
1
1
1.43179
0.595923
1
1.47216
1
1
0.664585
0.665625
1
0.61013
0.608094
1
1
1
1
1
1
1
1.47015
1.09571
1.43823
0.591209
0.875938
1.47326
1
1.46959
1.4731
0.600627
0.744426
1
0.597153
1
1.48595
1
1
1
1
1.46917
1
1
1
1
1
1
1
1.14055
1.47033
1
1.47114
1
1
0.633376
1
1
1
1
1.47166
1.31738
1
1
0.609914
1.46583
1.47159
1
1.47162
1.46027
1.47097
1
0.803537
1
1.42644
0.954259
1.47101
1
0.597901
0.99885
1.4707
1
1
1
1
0.629647
1.47257
1.33689
1
1.01239
1.42996
1.47248
1
1.21006
1.21482
1
1
1.2907
1.06578
1.47169
0.902507
1.47153
1
1.47159
1.47252
1.47149
1.46506
1
1.45299
0.881969
0.858741
1
0.999999
1
1
1.47655
1
1
1
1
1
1.46964
1
1
0.995782
1.47201
1.41004
1
1.39669
1.00004
1
1
1.46784
1
0.997388
1.00474
1
1.4719
1
1.46998
1
1
1.31215
1
1.46895
1.00002
1
1.46915
1
1.47213
1
1
1
1.46164
1
1.4767
1.00001
1.46653
1.4713
1.44059
1.47299
1
1.47058
1.46474
1
0.615424
1.36621
1.2955
1
1.46664
1
0.597038
0.591624
1
1
1
1
1
0.597362
1
1.47165
1.09197
1.46854
1
1
1
1
1
1.47278
1
1.47728
1.24843
0.749325
1
1.00001
1.13432
1.11504
1
1
1.15606
1
0.629596
1.47114
1.47102
1
1
1
1.47036
1
1.00003
0.999651
1.47285
0.922652
1
1
0.61786
1.3624
1
1
1
1
1
1.47193
1.47076
1
1.46807
1.47485
1.43853
1
1
1
1
0.596704
1.47267
1
1
1.35827
1.36947
1
1.36104
1.46776
1
1
1
1
1
1.47158
1
1
1
1
1.47472
1
1.46202
0.596834
1
0.602183
1
1
1
0.996924
0.616461
0.999087
1
1
1
1.0619
1
1
0.842543
1
1
1
1
1
1
1
0.999997
0.907078
0.999999
1
0.997573
1
0.628856
1
1
1
1
1.31375
1
1
1
1
0.596256
1
1
1.36605
1.47273
1
1
1
0.857562
1
1
1
1
1
1
0.925697
0.985219
1.3225
1
1
1
1.47438
0.868638
1
1
1
1.47476
1.47184
1
1.00001
1
1
1
1
1
1
1
0.612928
1
1
1.47142
0.595546
1
1.47068
1
0.619359
1
1
0.608086
1
1
1
1
1
1
1
1.36763
1.36861
1
1
1
1
1.35851
1
1.11153
0.613476
1
1
1
1
1
1
1
1.00996
1
1
1.24929
1
1
1
1.33665
1
1
1
1
0.602259
1
1
0.606102
0.60063
1
1
1.42754
1
0.96833
1
1
1
1.29323
0.601866
1
0.59565
1
0.746882
1
1
1
1.47279
1
1
1.41337
1
1
1
1.41408
1
1
1.42325
1
1
0.6022
1
1.11017
1
1
1.47309
1.4726
1.2786
1.35485
1
0.598426
1
1
1.37031
1
0.609087
1
1
1
1.40758
1
1
1
1
1.24846
1
0.999999
1.46878
0.594808
1
1
0.597736
0.599392
1
1
1
1.29529
1.31816
1
1
1
1
1
1
1
1.17085
1.47405
0.983716
1
1.34114
0.594282
1
1
1
1.22432
1
1.09124
1
1.36279
1.36256
1
0.598296
1
1.4726
1
1
1.46958
1.36017
1
1.47331
1
0.584241
1
1
1
1.47169
1.36698
1.35712
1
1.47438
1.41982
1
1.40831
1
1.36443
1
0.608689
0.944362
0.612277
1
1
1
1
1
1.43885
1
1.43701
1
1
1
1.36369
1
0.603928
1.41558
1
0.612987
0.628339
0.614543
1
1.19552
1.00584
1.36207
1.42048
1
0.999999
1
1
1.45053
1
1
1.45478
1.42156
1
1.15146
0.999702
1
0.996728
1.46707
0.825945
1
0.795736
0.632228
0.629289
0.939695
1.47438
1.36395
1.06306
1.35922
1.42675
1
1
1.46761
1.4736
1.38083
1.47115
1
1.36281
0.616765
1.47002
1.46989
1.47484
1.47623
0.835749
0.868142
0.903804
1.42501
0.933294
1.47282
1
1
1.36374
1.4723
1
0.595962
1.47135
1.42534
1
1.45076
1.45
1
1.44469
0.605447
1.47569
1.47111
1.47072
1.47741
1
1
1
1.42548
1.27082
0.646876
1.41183
0.603718
1.42688
1
1
1
1
1.46891
1.41051
1
1
1.40935
0.601702
1.47138
0.627272
1
1.3668
1
0.598661
1.40474
0.698984
1
1.41834
1.40371
1.44637
1
1
1
1.40295
0.616753
1.40353
1
1.35933
0.850779
1.45371
0.609087
1
1.47003
0.654399
1.36427
0.619642
1
1.40631
1
1.46904
1
1.26316
1.3676
1.32817
0.589204
1
1.47127
1
1.36132
1
1.39519
1
1
1.4707
0.949391
1.3988
0.591432
1.04128
1
1.30594
1
1.47181
1.39516
1.47141
1
1.35527
1.47054
1.35659
1.25574
1.46317
1
1.27536
1
1.46998
1
1.03144
1
1.36789
1
1.361
1.36982
1.3644
1
1.13854
0.590899
1
0.596097
1
1
1
1.47063
1
1.39315
1
1
1
1.40964
1.2139
1.10245
1.46918
1.47379
0.601462
1.47547
1.47393
1
1.0598
1.3956
1.15759
1
1.47156
1.47309
1
1.44738
1.47193
1.47267
1.40567
1
1
1
1.35819
0.609371
1
1.38601
1
1
0.590742
1
1
1.38864
1.47109
1
1.39697
1.27244
1.46974
0.943432
1.46627
1
1.46843
1.38712
1.12783
1
1
1
1.47133
1.47169
1.38165
0.914495
1
1.46283
1.4715
1.44107
1
1.47166
1.4702
1.38446
1.45973
1
1.38248
1.45326
1.39106
1.47017
1.45848
1
1.47209
1.36963
1.38378
1.46862
1.47015
0.60375
1.4694
1.4716
1
1.37505
1.38424
1.37507
1.37861
1
1.38288
1.37718
1
1.42308
1.34771
1
1
1
1.47111
1.47386
1
1
1.21928
1
1.32384
1
1
1.42778
1.33686
1.47131
1.42435
1
1
1
1.31283
1
1.37679
1
1
1.46652
1.47091
1
1.39291
0.605942
1.44102
1.47546
0.700113
1
0.59844
1.39275
1.47604
1.37562
1.3775
0.585769
1.47026
1.41888
0.589854
0.598572
1
1.36058
1.47079
1
1
1.38138
1
1.47488
1
1.35576
1
1.20985
1.47053
1.40447
1.31474
1.29281
1.47276
1.4415
1.306
1
0.592167
1.36952
1.47162
1.44595
1
1
1
1.47663
1
1.47136
1.43886
0.718449
1
1.37803
0.999941
1
1.00001
1
1.47135
1.44541
0.99998
1
1
1.35985
1.40057
1.35894
1.47713
1.46936
0.629226
1.08124
1
1.36649
1.47108
1.47177
1.47725
1
1.39837
1.3652
1.39789
1
1.47144
1.47063
0.831609
1.40385
1.47127
1
1.37674
0.804502
1.47222
0.832945
1.40039
1
1.36223
1.47567
1.39473
1.39613
1.36294
1.47327
1.39715
1.47395
1
0.900773
1.47171
1.47221
0.80502
1.39604
0.952851
1.2791
1.47145
1.47227
1.47064
1
1.40038
1.30677
1.46963
0.891085
1.39794
1.48194
1
0.839214
1
1.31396
1
1.27841
1
1.22155
0.842451
1
1.3756
1.46497
1
1.47066
1.36303
1.47241
1.43699
1.43551
1
1.47268
1
1
1
0.872054
1.47211
1.47287
1.47829
1.3953
1.47373
1.47895
1.27054
1.39447
0.879072
1.02894
1
1
1.47872
1.39283
1.40561
1.42076
1.00003
1.23789
1
1.44731
1.41194
1
1
0.719606
1.38666
1
1
0.61707
1.41806
1
1.47439
1.37695
1.47327
1.36071
1.36081
1
0.596362
1.10981
1.47122
1.36143
1
1.35782
1.38651
1.21643
1.00912
1.07998
1
1.46952
1.47151
1
1
0.585253
1
1
1.39508
1.38866
1.47391
1.35987
1.41881
1.47406
1.3601
1.36133
1.47175
1
0.996931
1.47105
1.35716
0.997418
1.38547
1.38668
0.6022
0.596318
1.36459
1.4616
1
1
1.00081
1.37915
1.47282
1.42119
1
1.38809
1
0.830439
1.44651
1.4572
1
1.20643
1.45919
1
1.46844
1
1.38027
1.01419
1.47047
1
1.47061
1.46814
0.585878
1.38297
1
1.47068
1.47399
1
0.611534
1.42945
1.11092
0.999591
1.22769
1.38572
1
0.968954
1.46674
0.999176
1.37476
1
1
1.47036
1
1.46989
1.38488
0.996626
1.36565
1
1.38544
1
1
1
1
1.42202
1
1
1.43375
1
1.37639
1
1.28152
1.44478
1.47305
1
1
0.967743
1
1.47225
1.3804
1.47
1.3762
1.47113
1.37646
1.37508
1
1.37941
1.35957
1
1.37651
1.37888
1
1.47209
0.900429
0.999062
1.38211
1.3774
1.43494
1
1.3769
1
1.4318
1.37611
1
1.35957
1
1
1
1
1.38132
0.599643
0.997927
1
1.41497
1.35932
1
1.40691
1
1.00542
0.606864
1.36338
0.999579
1
1.37517
0.99835
1.3768
1
0.999798
1
1.37855
1.47694
1.37628
1.47129
0.615041
1.46958
1.45478
1.47135
1.11127
1
1
1.17241
1.42159
0.596532
0.615822
1
1.47124
1.42101
1.3754
1
1
1.4572
1.37646
0.999878
1
1.18016
0.601509
1
1.02325
1.47228
1.36513
0.999339
1.425
1.4642
1
0.99808
1
1.47396
1.46756
1.06529
1
1.43773
1
0.997834
1.47347
0.597193
1.43918
1.40936
0.998604
0.99999
1.40401
1
0.999938
1
1.44285
1
1.00001
0.604351
1.42515
1.00001
1
1
1
1.47951
1.22417
1
1
0.610971
1.36047
1.22534
1
1
1
1.3415
1.45252
1.47503
1
1
1.48002
1
1.43371
1.47178
1
1
1.35463
1.43546
1.43056
1
1
1.35782
1.43778
1
1
1
1.43606
1
1
1
1.47262
1.47663
1.41388
1
1.48008
1.00002
0.679256
1.44007
1.43748
1
1.47373
1.18677
1.46925
1
1
1.43558
1
1.22792
1.44548
1
0.595667
1
1.35505
1
1
1.43186
1
1
1
0.999167
1.4422
0.663437
1
1.35433
1
1
1.47205
1
1.43278
1
1
1.40825
1.44054
1
1.00005
1
1
1
1
1
1
1.44871
1.4232
1
1.47427
0.616102
1.45314
1
1.47156
1.48144
1.40818
1.47177
1.47215
1
1
1.43816
1
1.28267
1.42885
1.42391
1
1.42561
1.46421
1
1.4136
1
1.47148
1.26117
1.44068
0.998002
1.17745
1.41921
1.42525
1.40491
1.03031
1.4191
1.41541
1
1.40582
1
1.47196
1
1
1
1
0.99729
1.42398
1.47122
1.37775
1
1.44491
1
1
1
0.592102
1
1.41447
1
1.35966
1.4627
1
1
1
1.40606
1.46673
1
1
1.47039
0.61528
1.03943
1
1.43037
1.4721
1.35957
1.41411
1.47224
1
1.47003
1
1
1
1
1.47172
1.41913
1
1.45445
1.02054
1.47239
1.35082
1
1
1.35909
1
1
0.584133
1.33174
1
1
1.33227
1
1.41579
1.38898
1
1.3873
0.617016
1.47157
1.40429
1.34774
1
0.590368
1
1
1
1.47173
1.36486
1
1.43094
1.47007
1
1.41818
1
1
1
1
1.47209
0.999384
1
1.35323
1
1
1.46996
1.34766
1
1.44746
1.08114
1.00002
1
1.40454
1
1.40351
1
1.01475
1.46103
1
1.40137
1
1
1.11194
1.47227
1
1
1
1
1
1
0.598885
0.606568
1.01974
1
0.99927
1
1.00271
1
1.46563
1
1.2851
1
1.41121
1
1
1
1.41224
1
1.3665
1.47077
1
1.2161
1.41316
1
1
1.47067
1.40563
1
1
1.01955
0.59014
1
1.42169
1
1
1
1
1.07867
1.47151
1
1
1
0.581928
1
1.40989
1.47134
1.47804
1
1
1
1
1.21037
1.4818
1
1
1
1.46994
1.33331
1.01868
1
1
1
1.46379
1.33518
1
0.594013
1.47113
1.35277
1.47284
1.47225
1.47239
1
1
1.47541
1.47768
1.40895
0.585728
1.04151
1.45988
1
1
1
1
1
1.47002
0.61581
1
1
1.40791
1.18367
1
1.47847
1
1
1
0.60304
1
1
1.10186
1.47101
1.35413
1
1.47802
1.47681
1
1.04494
1
1.47494
1
1.46961
0.613852
1
1
1
1
1.41491
1.00001
1
1
1
1.4506
1
1
1
1
1.43911
0.603072
1.37567
1.41862
1
1.35099
1
1
1
0.999917
1
1.47291
1
0.776384
1
1
1.00004
1.36042
0.606346
1
1.41471
1
1.37234
1.33136
0.595824
1
1
1.422
1
1
0.584658
1
1.46963
1
1.34874
0.99939
1.3417
1
1
1
1
1.46997
1
1
1.33673
1
1
1
1
1
1
1
1
1.27585
1
1.15048
1.44002
1
1
1
0.59994
1
1
1
1
1.37828
1.41846
1.02297
1
1
1.3522
1
1
1.47213
1
1.00002
1
1
1
1.00001
1.47212
0.757455
1.33937
1.35343
0.997108
1
1
1
1.24349
1
1
1.47326
1.41897
1
1
1
1
0.611707
1
1
1
1.29202
1
1.40471
1.41468
1
1.36717
1
1
1
1.22181
1
1.4713
1
1.33916
1
1
0.996148
1.33593
1
1
1
1
1
1.4688
1
1
0.58198
1.47492
0.583282
1
1.46974
1
0.995808
1
1.41349
1.47587
1
1.47308
0.87449
1.34582
1.47867
1.00003
1
1
0.616536
1
1
1
1.36029
1.23748
1.32704
1
1
1
1
0.997001
1.40735
1
0.614442
1
1
1
1
1
1
1
1.45429
1.40583
1.47426
1
1
0.996963
1
0.944025
1
1
1
0.614058
0.94508
1
0.631446
0.601737
1
1.34563
1.4062
1
1.43374
1.42207
0.61445
1.30749
1
1
1
0.618762
1.47264
1
0.61978
1
1.48114
1.05041
1
1
1
1
1.33016
1.47133
1
1
1.34519
1
1
1.47057
1.35112
1
1.43261
1.35434
1.47239
0.925999
1.46876
1.00881
0.614883
1.32236
1.35327
1
1
1
0.609857
1
0.600008
1.46851
0.926031
1.3356
0.92217
1
1.34999
1.18007
1
1
1.47183
1
1.16043
1.39858
1
1
1.46737
1.28255
0.604546
1.0297
0.999899
1
1.01512
1
1.47671
0.920957
1.47384
1.34783
1
1
1
1
1.09888
1
1
1.40506
0.999652
1.4718
1.37285
1.30471
0.625646
1
1
1
1
1.47203
1.00004
1.4026
1
1.47156
1.47332
1.05849
1.46579
1.11644
1.4718
1
1.27642
0.67033
1.19421
1.4716
1.36959
1.05134
1.47124
1.34544
1.4013
1.46916
1
0.893338
1.06767
1
1.47193
1.22038
1.47081
1.00003
1
1
0.651781
1.10305
1.47179
1.34628
1
1.14301
1
1.23969
1.24491
1
1.40288
1.47223
1
1
1
1.40916
1
1.18052
1.33293
1.28692
1
1.41334
1
1
1
1
1
1
1
1
1
1
0.645849
1
1.44573
0.602522
1.24224
0.998534
1.18754
1
1.21388
1.00001
1.26756
1.4012
1
1.00168
1.48045
0.888502
1
1.29005
1.45436
0.910884
1
1.47377
1.47211
1.41383
1
1.42384
1.4716
1.40329
1
1.18315
1
1.00006
1.47192
1
1.47132
1.06859
1.41416
1
1
1.47147
1.29634
0.645033
1
1.47222
1.31168
1.34285
1
1
1.47227
1.47004
0.998243
1
1.4102
0.996948
1.4698
1.00005
1
1
1
1
1.18349
1
1.36021
1.47113
1.3093
1.40041
1
1.00228
1
1
1.47166
1
1.40378
1
1
1
1
0.999999
1
1.05714
1.21082
1
1
0.614846
1
1.42082
0.655263
1.47665
1
1.24145
0.999753
1.47173
1.27057
0.656821
1.22566
1.00003
1.41748
1.47008
1
1.24242
1.4693
1.40094
0.9984
1.47849
1.34207
0.614044
1
1
0.997551
1
1.46293
1
0.655378
1.40928
1
1
1.41562
1
1.47184
1
1.47282
1
0.674018
1
1
1.47397
1.33247
1.20171
1
1.26886
1.41861
1.47726
1
1
1.45811
0.999999
0.729222
1
1
1
1.47254
1
1.40698
1.27497
1.31186
1
1.34478
0.999383
1
1
1
1
1
1
0.71258
1
1
1.33627
1
1.47754
1.12072
1
0.62351
0.626262
1
1.38001
1.07351
0.616039
0.620906
1
1.40351
1
1.47062
0.584871
1.00171
1
1
0.999514
1
1
1
0.999914
1.15479
1.42322
1
1
1.41435
1.24285
1
1.41543
1.24938
1.47038
1.15649
1.07615
1
1.33162
1
1.47045
1
1.44762
1.41048
0.996951
1.47029
1.06114
1
1
1
1
1
0.888106
1.47199
1.00004
1.00003
0.607715
0.999983
0.60918
0.599319
1
1.47187
1.47028
1.47109
1
1.4713
1
0.626308
1
1
1.41308
0.79393
1.40834
1
1.47314
1
0.952785
1.47168
1
1
1
1.47155
1
1.47097
0.604774
1
1
1.24126
1
1
1.22118
1
1
1.47217
1
1
1
1
1
1.16123
1.40333
1
1.47198
1.40355
0.61711
1.18001
1.27204
1
1
1.36585
0.999005
1
1
1.40887
1.30654
1.2987
1
1.47156
0.624813
1.01501
0.999657
1
1.4033
1.00003
1.31333
1.38756
1.31869
1
1
1.41348
0.692202
0.615487
1
1.47157
1
1.47306
1
1.25034
1
1
1.34493
1.2684
0.6224
1
0.998358
1
1
1.0263
1.16051
1.41196
1
1.47719
1
1
1
1
1
1
1.06725
0.611138
1
1
1.01051
1
1
1
1
1
1.47071
1
1
1.47119
1.411
1.33923
1
1
1
0.82067
1.47389
1.28971
1
1
1
1
1.4723
1
1
1
1.47606
1
1
1.30137
1.49323
1.00929
0.72217
1.1745
1.29887
1.47107
1
1.20543
1
1
1
0.591265
1.00263
0.610316
1
0.599313
0.603162
1
0.614797
1
1
1
1.17621
1
1.47121
1.4703
1.00108
1.21385
1.08502
0.614061
0.747911
0.859625
1
1.34398
1.47283
1.34043
1.39665
1.3513
0.861381
1
1.35167
1
1.4453
1
1
0.999998
1.00972
1
1
1
1.47206
1
0.613995
1
1.39941
0.588827
1
1
1.396
1
1.33965
0.999678
1
1
1.35442
1.42931
1
1.47987
1
1
1.01462
1
1.20045
1
1
0.617285
1
1
1.2542
0.999999
1.34108
1
1.00003
0.608492
1
1
0.601086
1.00089
1
1.47205
0.594365
1.47407
0.616559
1.47227
1
1
1
1
1
1
1
1
1
1
1
1.35904
1
1.35548
1.47257
0.614537
1
1
1
1
1
1
1.34214
1
1
0.627906
1
1
1.47238
1
1
1.17464
1.34737
0.605864
0.602108
0.67849
0.730077
1
0.99998
0.609778
1.00028
1.4313
0.996916
1
1
1.47198
1
1
1
0.748537
1.00001
1.16474
1
1
1.18435
1.44676
1
0.616486
1
1
1
0.996335
1.00001
1.39798
1.39684
1
0.614103
1
1.22087
0.615426
1
0.867361
1
0.995905
0.602858
1
1
1
0.995447
0.606494
1
0.600396
0.998404
1.21496
1.42537
0.609726
0.605891
1
0.990635
1
0.998623
1
1.33772
1.34827
1
0.991085
1.47213
1.35394
1
1
1.39601
1
1
1.00002
1
1.46572
1
1
1.01829
1
0.998562
0.676151
1
1
1
1
1
1.40694
1.0108
1.00004
1
1
1
1
1
1.00003
1
0.616284
1.07584
0.998592
1.48239
1.45964
1
1.01447
1.47197
1.31519
1
1
0.600959
1.47059
1
1.47179
1
1.46653
1.31784
0.616931
1
0.614989
1.00917
0.999678
1
0.609491
0.606442
1
1
1.33266
1
0.999998
0.602308
1
1
1
1.15151
1
0.617016
1.47218
1
1
1
1
1.3485
1
1
1.08641
1.36504
1
1
1
1.27416
0.618522
1
1.47225
1.38616
1
1.33241
0.999999
1.00003
1
1
1.4314
0.996365
1
0.606499
1.25737
1
1
0.99807
1
1
1.1707
1
1
1.00003
1
1.47191
1
1
1
1
1
1
1
1.17846
1
1.35129
1
1
1.38791
1
1
1
1.34762
1.13647
1.04831
1
0.997572
1
1
1
1
1.47059
1
1
1.47151
0.623632
1
1
1
1
1
1
1.33576
1
1
1.38406
1.47257
1
1
1
1.47232
1.40374
1
0.999731
1.39865
1
1
1
1.00002
0.609973
1.02946
0.996072
0.995996
1
1
0.624381
1.47273
1
0.613667
1
1.40069
1.37607
0.604632
0.999397
1.41611
1.47248
1.43722
1
1
0.897838
1.02915
1.38396
0.612298
1
1
1
1.30988
1.42782
0.611505
0.997261
1
1.47217
0.601673
1
1.07424
0.617881
0.944997
1.00371
1
1.0996
1
1
1
1
1
1
1.0001
1.33887
1
1
1.40673
1
1
1
1.39642
1
0.614968
1
1
1
1.16079
1
1
1
1
1
0.767818
1
0.59652
1
1.41588
1.00006
0.846427
0.848826
1.00001
1.00481
1.21275
1
1
0.602481
1.41049
1.41739
1.39385
1
0.599615
0.625472
1
1.4087
1
1
1
1
1
1.00003
1
0.62977
1.26488
1
1
0.603708
0.953349
1.00001
1
1
1
0.609755
1
0.667863
1
1
1.4649
1
1
0.617814
1
1.47216
1
0.610935
1
0.617719
1
1.00801
1.33709
1.48014
1
1
1.47252
1
1
1.07405
0.996949
1
0.998188
1
1.42868
1
0.614072
1.00002
1.4686
0.998972
1
1
0.756245
1
0.999087
0.610221
1.4102
1.14391
1
1.00001
0.877409
1
1
1
0.769469
1
1
1
1.36405
1
0.61626
0.999999
1
1
1
0.624686
1.47163
1.44417
0.613406
1
1.39653
1
1
1.35061
1.47158
1.34825
0.612726
0.997744
1
1
1.38752
1
1
1
1
1.47041
1
1
1
1.46818
1
1
1.43226
0.59864
1
1
1
0.631741
1
0.999999
0.999999
0.999076
1
1
1
1
0.999256
1
1.47086
1.47117
1.47261
1.47062
1.47002
1.39414
1
1.40179
1
1.4721
1.33152
1
0.999284
0.608917
1.35314
0.999909
1
1
1
1
0.967235
1
1.07221
1
1
1
0.835065
1.43394
1.47244
1.38276
1.4055
1
1
0.99973
1.47124
1
1.02669
0.997176
0.585279
1
1.00002
1
1
1
1
1
1.43514
0.617231
1.43339
1.3976
0.995308
0.594631
1
1
1
1.46379
0.597551
1.35996
0.620453
1.4719
1.39427
0.61845
1.32058
1.02416
1
1.41705
0.778313
1
1
0.612819
1
0.584704
1
1.3924
1.33537
0.747634
1
1.47143
0.58179
1
0.627144
1
1.47084
1
1
1.45588
1
0.820107
1
0.99968
0.58225
1.46115
0.999479
1
0.598175
1
1
1
1
1.24585
1
1.37503
1
1
1.47828
1
1
1.47242
1
0.592151
1
0.608456
1.00001
1
1
1
1
1.37559
1.27011
1.40874
1
1.34004
1.37192
0.615285
0.612108
1
1
1.37931
1
0.597808
1
0.955443
1
1
1.47234
1
1.27003
0.615966
1.47753
1
0.612243
1
1
1.37886
1.34336
1
1.00004
1
1.02946
1
1
0.582511
0.99941
0.604656
1
1
1
1.34266
1.46893
1.47144
1
1
0.604842
1
1.02582
1
1
1
1.00258
1.35277
1.47043
0.600002
1.43066
1.41289
0.630402
1.47144
1.00004
0.646791
0.983549
1
1
1.46531
0.593162
1.26781
0.594284
1.41096
0.997342
0.603925
1.41517
1
1
1
1
1.34786
1.47228
0.622294
1
1.00002
0.621337
1.00003
1
0.626554
0.616896
1.28477
1.32265
0.998457
1.47151
1
1.19648
0.798545
0.617081
1.39739
1.48356
1
1.41805
1
1
1.47152
1
1.35829
1.47152
1
1
1
1
1.47109
1.34046
1.35318
1
1
1.34793
1.46815
1.47165
1
1.47012
1
1
1
1
1
0.617019
0.821731
0.618337
1
1
1.47114
1
1
1.43951
0.629041
1
1.47138
1.34159
1.40316
0.589329
1
0.603578
1
1
1.47126
0.999236
1.47135
1.36623
1
0.613239
1
1.1478
1.29961
0.603099
1
1
1
0.779813
1
1
1.47955
1
0.596921
1.39814
1
1
1
1
1
1.33505
1.10151
1
1.47087
1
1.30143
1
0.997656
1
1.47072
1.47585
1.34494
1.42855
0.999759
1.47177
1
1.46994
1.47331
1.34457
1
1
0.616735
1.47257
1
1
1.47581
1.41559
1.31078
1
1.47103
1
1
1.00001
1.47526
1.23714
1.13208
1.09929
1.44527
1.35107
0.671105
1
1
1
1
1.00001
1.16416
1
1
1.39285
0.605227
0.999974
1
1.47231
1
0.999912
0.999434
1.44109
1.47319
0.885492
1
0.59863
1
0.958792
1.42948
1.41306
1.36426
1
1
1
0.607119
1
1
1.4268
1.0497
1
1
1
1
1
1
1
0.999942
1.47158
1.00002
1
1
1
1
1.29645
1
1.2137
1
1
1.40927
1.44091
0.609966
0.998764
1
1
1
0.627782
1.47186
1.3499
1
1
1
1
1
1
1
1
1.47168
1.46688
0.616437
1.05015
0.630247
1
0.628586
1
1.47139
1.09864
1
1
0.677084
1
1.40393
0.792938
0.996638
0.610319
1
1
1.46895
1.00002
0.997257
0.61268
1.47258
1.46858
1
1
1
1
1.34508
1
1
1.34422
1
1.47258
1.00006
1
1
0.612107
1
1
1.47103
0.617758
0.76025
0.617646
1.4716
0.999378
1
1.01308
0.614434
0.605519
0.987455
1
1
1.4714
1
1.0754
1
1
1.47058
0.619563
1
1
1.00013
1.47216
1.00013
1.4553
1
1
1
1
0.696085
1
0.769912
1
1
1.46959
0.616166
1
0.73726
0.794002
1
1
1.47071
1
1
1
1.47192
1.35347
1
1.4633
1.47156
0.749045
1.40751
1.45602
1
1
1.47109
0.999999
1
1
1
1
1.4778
1.41659
1
1
1
1.47057
1.00019
1
0.617551
0.707637
1
1.00003
1.17001
1
1
0.878453
0.603057
1
1
1
1.4406
1.36707
1.38481
1
1
1
1
0.607094
1
1.4484
1
1.37941
0.594622
1.47635
1
1
1
0.611495
1
1.47157
1
1
0.599797
1.1372
1
0.999669
1.48632
0.621975
0.614825
1
1.47229
0.623895
0.6165
1
0.621274
1
1
1
1
0.601126
1
1
1
1
1.46945
1
1.3201
0.596181
1
1
1
0.61398
1.42901
1
1
0.996824
1.36766
1
1.42943
1.47205
1
1
0.714841
0.611044
1
1
0.605389
1.10928
1.21166
1
1
1.47437
0.99737
1
0.99776
1.47267
1
1
1
1
1
1
1.4701
1
1.16288
1.0819
0.659197
1.37511
1
1.34932
1.47176
1
1
1
0.883733
0.589726
1
1.22425
1
1.06529
1
1
1
0.999999
1
1.00702
1.05694
1.34353
1.46836
1
1.39166
1
0.59492
1
0.998026
0.999789
1
0.589865
1
0.60483
1.00001
1.4113
1.47204
0.609811
1.44454
0.60956
0.996077
1.17589
0.595092
1.33086
1
1
0.998418
1
1
1
1.00007
1
0.601901
1
1
1
1
1
1.44001
0.78251
1
1
1
1.0387
1
1
1
1.27201
0.73152
1
1
1
1.02661
1.47242
1
0.59773
1
1.34171
0.877649
0.591501
1
0.62642
1
1
1.371
0.998222
1.43905
1
1.00861
1
1
1.47197
1
1
1
1
1.01831
1
1.37847
1.34228
1.47299
0.601862
1.3906
0.997105
1.34805
1
1
0.587438
1
1
0.605324
1.47375
1
1
1
1
1
1
0.6158
0.59638
1
1.47113
1
1.18992
1.46973
0.611836
1.38523
1
1
0.64319
1
1
1.39468
1.34102
1.13894
1
1
1.00198
1.47123
0.602437
0.606506
1.47078
1.42124
1.32077
1.18453
1
0.870388
1
1
1
1.437
1.47752
1.47106
1
1
1.47053
0.616395
1.43219
0.615868
1
0.605151
1
0.601102
1.4722
0.616197
1
0.951321
0.670298
1
1
1
0.820386
1.28311
1.47053
1.47259
1.4703
1
1
1.47231
1
1
1.47009
1
0.608333
1
0.603975
1
1.47169
1
1
0.995947
1.32394
1
0.998912
0.595899
1.35361
1.00001
0.597655
1.0874
1
1
1.35564
1.47141
1.47091
1
1.35292
1.09134
1
1.01631
1.41634
1
1
1
1
1.47103
1
0.625767
1.47068
0.611174
0.617649
0.820915
1.34776
1.1008
1.32165
1
1.47094
0.997605
1.00003
1.47222
1.47288
1
1.47035
1
1.46992
1
1.47167
1
1.00004
0.99998
1.47508
0.607901
0.610624
0.997841
0.999999
1
1
0.597115
1
1.27556
1
0.622514
1
1.15606
1.43071
1.4788
1
1
1.00001
0.999466
1
1.47167
1.37521
1
1.16691
1.47401
0.813408
1.37521
1.00027
0.600982
1.09684
0.607781
1
1
1.07744
1.47145
1
1
1.01338
1
1
0.59254
1
0.755047
1
1.40204
1
1
0.605716
1.07817
1.03036
0.9992
1.47103
1.40731
0.736415
0.998077
0.60016
0.608208
0.603041
1
1
1
0.999092
0.702886
0.603356
1
1.41222
0.999748
1.40776
1.46843
1.47203
1.34726
1
0.596491
1.47079
0.642538
1
1.43008
1.47377
0.996697
0.774439
1.43846
1.3369
1
0.611077
1
1
1.46886
1
1.02612
1.47176
1
0.622036
0.606171
1
1
0.617907
0.590646
1.4707
1.00005
1
0.598662
0.597317
1.47523
1.45534
1.38776
1.47044
1.10194
0.944399
1.15605
1.47372
1.37489
1
1.23276
1
0.585177
0.835293
1
0.617575
1.38031
1.02164
1.38717
1
1.47185
1.47191
1
1.47248
1.3965
0.61375
1.42589
1
1.4838
1
0.733548
0.605692
1.47207
1
1
1
0.613351
1.47105
1.34033
1
0.611642
1
1
0.614993
1
0.613558
1.47136
1
0.789321
0.58543
1
1
1.26603
1
1
1
1.0792
0.615646
1
1.00001
1
1.47535
0.612804
1
1.47195
0.595707
0.60071
1
1
1.46773
1
1.32925
1.00001
1.46162
0.631565
1
1
0.603957
0.783816
0.603381
1
1
1
1
1.46381
0.591164
1
0.610944
1
1.47542
1
1
0.901326
1
1
0.802344
0.999687
1.00005
1
0.612072
0.612718
1
1
1
1
0.76688
1.34074
1.47154
1
0.604771
0.584688
0.880953
0.604096
1
0.79301
1
0.600235
0.949351
1
1
0.613884
1
1.44545
1.45608
0.615713
1
1
1
1.47141
1
1.01364
0.818799
1.14815
0.601392
1.17961
0.607095
1
1
0.678576
0.874073
1
1.0132
1
1
0.610821
1
0.906506
1.01944
0.611234
1
1.38404
0.729194
0.856692
1
1
1
0.618364
1
0.612491
0.60704
1
0.82745
0.603677
1.03593
0.722622
0.592723
1.47172
1
1.40941
1.2504
0.69717
1.40832
0.61324
0.999019
1.47142
0.999999
1
1.44412
1
0.702914
1
1.03456
1
1
1.43803
1
0.740895
0.792557
1.47033
0.905323
1
0.733193
1.47228
1.47127
0.874658
1
1.47204
1.11716
0.833483
1
0.983729
1
0.614197
1.19832
0.743301
0.70495
1
1
0.608676
1.42851
0.936502
0.623153
0.610656
0.831024
1
0.980921
1.47274
1.47163
1
1
0.999999
0.611939
1.1896
0.999984
1.34175
1.43566
0.609872
1.00001
1.06889
0.857407
1.27792
1.4239
1
1.01344
1
1.00005
0.601122
0.821763
1
1
0.786373
0.610889
1.01475
1
1.00002
0.586594
1.18256
1
1.45772
1
1.00708
1.25485
1
1.46136
1
1
1.47299
1
0.602247
1.47209
0.658181
1.12161
1
0.601102
0.999917
1
1
1
0.774752
1.02599
0.613417
1.33891
1.47105
0.612067
1
1
1
1
1
0.938701
0.609294
1.02544
0.620766
0.599472
1.0533
1
0.999811
1.11625
1
1
0.619859
0.961141
1
1
1.10236
1
1.47127
1
1.47247
1.06459
0.995814
0.60807
1
1
0.599581
1
1
1
1
1.33132
1.04356
1
1
0.612482
0.999994
0.999999
1
1.2751
1
0.615097
1.42318
1
1.00001
1
1.47031
0.613618
0.854702
0.615693
1.31552
1.47463
1
1
1.42883
1
0.597147
1
1
1
1
1
0.733756
1
1.47187
1
1
1.12276
1.47099
0.625162
0.844864
1
1.41922
1
1
1
1
1
1.47159
1.47258
0.585721
1.37661
0.608121
1
1
1.40837
1
1.47155
0.976625
1.0274
1.02986
1.46827
1.00639
1.28683
0.616176
1
0.620483
0.947604
1
1.47094
1
1
0.605405
1.46873
1
1.47235
1
1
1
1
1
1.00001
0.61221
1.47124
0.811815
1.47186
1
0.609203
0.616619
0.696208
1.47414
1.39868
0.943433
1
0.760578
1
1.15714
1
1.46986
0.601305
0.614026
0.831239
1
1.47146
1
1.0546
0.632399
1
1.4727
1.40027
0.998886
1
1.47185
0.60666
1.46977
1.38983
1.475
0.61564
1.06214
1
1
0.614312
1
0.773844
0.802978
1
1.00001
1.47129
1
1.48055
1.05964
1
1.01102
1.47901
1
0.607005
1
0.74268
1
1
1.32646
1
0.769826
1
0.624435
1.03743
0.925657
0.588707
1.41504
1.37618
1.47112
0.613769
0.675513
0.995967
0.999999
1
0.651442
1.37096
0.614368
0.999967
1
1.39071
1.47238
0.876393
1
0.611802
0.687989
1.27807
0.94235
0.611435
0.999999
0.611052
1.08836
0.616007
1
1.00006
0.784163
1.47124
1.47258
0.818208
0.999592
1
1
0.69971
1
0.62478
1
0.583539
0.615984
1
1
1.00003
0.614775
1.39354
1
1
1.00007
1.00004
0.580729
1.4719
1.42732
0.999999
0.616333
1.46981
1
1.07142
1
1
1.47485
0.612308
1
1
0.606074
0.713751
0.617357
0.601602
1
0.665102
0.997118
1.06781
0.61958
1
1
1.13189
1
1.37304
1
1
1.31641
0.654862
1
0.594478
1.09322
1.47084
1
1
0.614794
0.602799
0.61481
0.7082
0.58886
1.30942
0.999391
1
1
1
1
1.47102
0.592308
1
0.90816
1
0.998889
0.999936
0.721852
1.09568
1
1.40895
1.47042
1
1
1.4287
1.00004
0.999999
1.4304
0.607078
1.46829
0.999999
0.599382
1.4717
1.00005
1
0.786107
1
0.619337
1
1.4712
1
1
1.41277
1
1
1.47203
1
1
1
1.4706
1
0.725569
0.680446
1
0.614634
1.40087
1
1
0.940872
1
1.44621
1.23915
1.32587
1
1
0.650534
1
0.590594
1.31777
1.4714
1.47278
1
1.47133
0.61473
1
0.595868
1.33486
1.42321
1.47325
1.47014
0.736506
0.611765
1
1.20426
1.47221
1.47137
1.40769
0.716595
1.13736
1
1.32315
0.713574
1
1
1
1.00002
0.863146
1
1.4722
1
1
1
1
1
1
1.00006
1.41952
1
1.42498
1.30952
0.610674
1.47176
1.01186
1.2066
1
1.40107
1
0.617844
1
1
1
1
1.35403
1
0.615301
1.44311
0.613754
1.47067
1.33259
1.2107
1
1.0906
1.18582
0.995459
0.587739
0.749588
1
0.999999
0.87769
1
0.573162
1.47165
0.592494
0.89874
0.829496
1
1
1
1.01301
1
1
0.587524
0.996722
1.47127
1
1.3893
1
0.623665
1
1
1.37332
1.39425
0.615411
1
1.47164
1
0.788165
0.611389
1.47115
1.369
1
1.07324
1.47211
0.999351
1
1.16339
1.3633
1.42178
0.995801
1
0.999998
1.35425
1
1
1
1.39055
1
1
1
1.47064
1
1
0.629518
1
1
1
1.47167
1
1
0.81358
1.10878
1.38291
0.74424
1
1.47093
1
1.16496
1
1.4708
0.998074
1.4229
1
0.615106
1
1.33145
1
1
1.3774
1.00001
1.47199
1
1.47297
0.665504
0.623515
1.47125
1
1.39806
1
1.47087
1
1
1.00005
1.47304
1.38555
1.09366
1.47178
0.99992
0.611011
1.47092
0.832584
1
1.39098
1
1.47022
1
1.37828
1.471
1
0.619741
1
1.45185
1
1.01582
1
1
0.99797
0.729287
1.3682
1
1.42003
1
0.836849
0.624471
1.39651
1.43512
0.669154
1
1.47162
1.47219
1.47142
0.666428
1.43636
0.629458
1.47091
1.46565
1
1
1.47102
1
1
1
1
0.617157
1
1
1.47102
1.44656
1
1.35717
1
1.47278
1.47061
1
1.35252
1
0.61321
1.39989
1.34706
1.09726
0.611988
1.408
1
1
0.619682
1
1
1.47131
1
1
0.760826
1
1.47169
1.00008
1.31621
0.627618
1.47096
1
1.47203
1.38299
0.863077
1
1.32416
0.742163
1.47492
1.29863
1.47064
1.47361
0.996984
1.47068
1.47082
1.42274
1.47183
1.00051
1
0.608547
1
1.47088
0.797616
1.38352
1
1.3853
1
1
1
1
1
1.38497
0.620918
0.6204
1.47247
1.47128
1
1
1
1
1
1.37642
1.43539
1.42091
0.993859
1
1
1
1.00003
1.3803
1.47097
1
1.47243
1.47024
0.600793
1.28369
1
1.36134
1.44285
1.33938
0.997947
1.38264
1.4719
1
1.44528
1
1
1
1
1
1
1.47201
1.47049
1.37754
1.43218
0.622336
0.682667
1.41249
1.42104
1
0.590087
0.905935
1
1.19242
0.606568
1
0.999447
0.998266
0.618059
1
1.47155
1
1
1
1.4713
0.936732
1
1.47211
1.47103
1
1.4702
1
1
1.40772
1
0.600209
1
1.47151
1
1
0.601896
1
1.43323
1
0.616683
0.592801
1
1.38921
1
0.615032
0.858307
1
1.42997
1
1
1
1.44163
1
0.605584
1.06416
1.47091
1.34162
1.47104
1.011
1.38054
1.47116
1
1.00002
1
1
1
1.4294
1
0.999276
1.40641
1
0.613783
1
1.43096
1.1837
1.04789
1.18379
1.02758
1.47483
0.681495
1.43015
1
0.621724
1
1.43018
0.927494
1.43036
1.472
1.46892
1
1.47108
1.43179
1.42755
1
1.00004
1
1
1.47114
1.29803
1
1
0.611683
0.999995
1
1.4723
1
1.42748
1.47191
1.47414
0.881544
1.47204
1.47081
0.974036
1.04929
1.47157
1.47211
1
1.33851
0.802259
1.45179
0.951857
1.47186
1
1.40689
1.47116
1
0.6084
0.920826
0.686921
1
1.05767
1
1.47033
1
1
0.996494
1
1.20362
1.44889
1
1
1.38883
1
1
1.29926
1.32167
1.38315
1.47411
1.47204
1
1.47124
0.711101
1.47056
1
0.962427
0.606183
1
1
0.718887
1
1.11197
1
1.41198
1
1.38481
1.26329
0.617144
1
1
1
1
1
1.47153
1.0112
1
1.47272
1
1.47128
1.40713
0.999999
1
0.943948
1
0.604041
0.604854
0.709074
1.08419
1
0.999506
0.639565
1.00003
1
1.47186
0.900081
1.37224
1.41417
0.999999
1
1
1
1
1.47188
1.4125
1
1.47489
1
1.47158
1.27844
0.995604
0.999999
1
1
1.23806
1
0.926192
1
1.34678
1
1
1.40677
1
1
1
1
1
1.3796