/*--------------------------------*- C++ -*----------------------------------*\
  =========                 |
  \\      /  F ield         | OpenFOAM: The Open Source CFD Toolbox
   \\    /   O peration     | Website:  https://openfoam.org
    \\  /    A nd           | Version:  12
     \\/     M anipulation  |
\*---------------------------------------------------------------------------*/
FoamFile
{
    format      ascii;
    class       volVectorField;
    location    "0.66";
    object      U;
}
// * * * * * * * * * * * * * * * * * * * * * * * * * * * * * * * * * * * * * //

dimensions      [0 1 -1 0 0 0 0];

internalField   nonuniform List<vector> 
22702
(
(2 -5.16154e-14 0)
(2 -1.43236e-13 0)
(2.08919 -0.0719407 0)
(2 -1.19715e-09 0)
(2.02439 0.052415 0)
(2 -2.9406e-14 0)
(1.82933 0.228675 0)
(2 -1.60099e-13 0)
(2 -1.54761e-13 0)
(2.17576 -0.271132 0)
(1.82969 0.228687 0)
(1.83003 0.228876 0)
(2 4.65994e-14 0)
(1.92366 0.183461 0)
(2.08034 -0.0550128 0)
(2 2.99797e-13 0)
(2 2.84701e-13 0)
(2 -1.23605e-13 0)
(1.82965 0.228816 0)
(2 2.23133e-14 0)
(1.91769 0.193705 0)
(2 2.32576e-13 0)
(1.83115 0.228968 0)
(2.15515 -0.266615 0)
(1.99891 0.00357058 0)
(2.17439 -0.28203 0)
(2 -7.12263e-14 0)
(1.83186 0.228748 0)
(2.1695 -0.270088 0)
(2.15873 -0.270562 0)
(2 -2.68491e-14 0)
(1.83067 0.228832 0)
(2 1.09515e-13 0)
(2 -1.12126e-13 0)
(2 9.54371e-14 0)
(1.91444 0.204974 0)
(2 -0.000269667 0)
(1.83084 0.228572 0)
(2 3.93503e-13 0)
(2 4.66042e-13 0)
(2.18189 -0.273771 0)
(2 -1.40723e-14 0)
(1.97304 0.149025 0)
(2 1.7183e-13 0)
(1.83165 0.228696 0)
(2 2.82324e-13 0)
(2 1.38802e-13 0)
(2 -1.28542e-13 0)
(2 -1.48669e-13 0)
(2.14512 -0.272413 0)
(2 -9.80052e-14 0)
(2.15232 -0.26879 0)
(2 2.12354e-13 0)
(1.82956 0.228655 0)
(2 -4.42005e-14 0)
(1.83087 0.228911 0)
(2 1.32449e-13 0)
(2 1.4753e-09 0)
(2 -6.80545e-14 0)
(2 -2.19969e-13 0)
(2.16876 -0.278184 0)
(2 -9.73785e-14 0)
(2 -2.10188e-13 0)
(2.15116 -0.265303 0)
(2 -2.62831e-14 0)
(2.15827 -0.276035 0)
(2 -2.13142e-13 0)
(2 6.93664e-14 0)
(2 -1.67333e-13 0)
(2.17482 -0.277962 0)
(2 -1.76558e-13 0)
(1.83189 0.228951 0)
(1.95221 0.174664 0)
(2 1.43126e-09 0)
(1.83146 0.228575 0)
(1.82198 0.236829 0)
(2.16471 -0.275161 0)
(1.82891 0.228685 0)
(2.13702 -0.267764 0)
(2 -2.46927e-13 0)
(1.82955 0.228505 0)
(2.13544 -0.262469 0)
(1.83099 0.229004 0)
(1.83096 0.229098 0)
(2 -2.33352e-13 0)
(2 -1.28246e-13 0)
(2 -4.12872e-14 0)
(2 -1.74778e-13 0)
(2.0679 -0.0297626 0)
(2.17483 -0.275121 0)
(1.83003 0.228569 0)
(2 5.73179e-14 0)
(2 -3.29367e-13 0)
(2.17618 -0.277628 0)
(2 -2.0267e-14 0)
(1.91798 0.194825 0)
(2.176 -0.277225 0)
(2 2.37786e-08 0)
(2 -2.11443e-14 0)
(2 7.47099e-14 0)
(2 1.62728e-13 0)
(1.96801 0.151423 0)
(1.82926 0.228725 0)
(2.17355 -0.281001 0)
(2 2.11401e-10 0)
(2 -1.26708e-09 0)
(2.00873 0.0849742 0)
(2 9.3041e-09 0)
(2.13473 -0.262086 0)
(2 -1.18412e-13 0)
(1.82899 0.228863 0)
(1.82981 0.228702 0)
(2 -9.35516e-14 0)
(2 1.02591e-13 0)
(2.1683 -0.287384 0)
(2.1581 -0.280656 0)
(2.17399 -0.272517 0)
(2 5.78718e-14 0)
(2 1.04332e-13 0)
(2 -2.5656e-14 0)
(2 -5.10545e-14 0)
(2 1.14054e-07 0)
(2.07423 -0.0366792 0)
(2 1.12649e-13 0)
(1.91958 0.206466 0)
(2.02705 0.0399294 0)
(1.82836 0.228484 0)
(2 3.02931e-14 0)
(1.82804 0.228629 0)
(1.83017 0.228985 0)
(1.92323 0.185689 0)
(1.82924 0.228738 0)
(2 1.14728e-13 0)
(2.1753 -0.277636 0)
(2 4.04955e-14 0)
(2.17815 -0.277728 0)
(2 7.03823e-14 0)
(2 3.08366e-13 0)
(2 -1.77569e-13 0)
(2 -1.62254e-14 0)
(1.83022 0.228827 0)
(2 -1.22786e-14 0)
(2 3.00549e-14 0)
(2 -5.69421e-14 0)
(2 -7.6975e-16 0)
(1.83052 0.228515 0)
(2 3.47974e-14 0)
(1.99428 0.0151516 0)
(2 1.49925e-14 0)
(2 1.94989e-13 0)
(2 -3.0772e-13 0)
(2 -9.04076e-15 0)
(2.14531 -0.270044 0)
(2 1.34947e-14 0)
(1.99532 0.0101677 0)
(2 2.28579e-14 0)
(2.13528 -0.267345 0)
(2 2.32926e-13 0)
(2 -2.00167e-13 0)
(2 -1.12093e-13 0)
(1.82943 0.229094 0)
(2 -1.02049e-14 0)
(1.83173 0.229191 0)
(2.1669 -0.289079 0)
(2.16943 -0.27961 0)
(1.83175 0.22878 0)
(1.83226 0.22908 0)
(2 2.6897e-14 0)
(2.01586 0.0652541 0)
(1.95841 0.16555 0)
(2 1.97704e-13 0)
(1.83001 0.228795 0)
(2.13767 -0.267448 0)
(1.91625 0.205382 0)
(2 -1.40931e-15 0)
(2 -2.41903e-14 0)
(2 3.56484e-14 0)
(2 6.53602e-14 0)
(1.91838 0.180139 0)
(1.85805 0.197373 0)
(2 1.87048e-13 0)
(1.82955 0.228653 0)
(2.13991 -0.262424 0)
(1.83054 0.228929 0)
(2 1.95159e-13 0)
(2.15901 -0.271528 0)
(2 -8.04587e-14 0)
(2.15375 -0.267896 0)
(2.17153 -0.282204 0)
(2 -1.80041e-11 0)
(2 9.78832e-14 0)
(2 -5.45273e-14 0)
(1.83006 0.228836 0)
(2 -3.37541e-14 0)
(2 1.92531e-13 0)
(1.83687 0.229461 0)
(2 9.27101e-14 0)
(1.83052 0.229124 0)
(1.82972 0.228546 0)
(2.11537 -0.273374 0)
(2 -6.66408e-14 0)
(2 3.13437e-13 0)
(2.13875 -0.270698 0)
(1.8322 0.229029 0)
(2 -1.39001e-13 0)
(2 -6.90006e-14 0)
(2 -5.94787e-14 0)
(1.83193 0.228909 0)
(2 4.46107e-14 0)
(2.1617 -0.271792 0)
(2 -1.7193e-13 0)
(2 6.7151e-14 0)
(1.83151 0.229055 0)
(1.83122 0.229052 0)
(1.82983 0.229061 0)
(2 7.51606e-14 0)
(2 -8.67331e-13 0)
(2 6.36283e-14 0)
(2 -3.50693e-14 0)
(2 1.68558e-13 0)
(1.92502 0.191801 0)
(2 -1.4404e-13 0)
(2.14593 -0.267849 0)
(1.82529 0.235572 0)
(1.83481 0.228885 0)
(1.95699 0.1102 0)
(2 2.05797e-07 0)
(2 -2.68469e-13 0)
(2 5.72657e-14 0)
(2.13153 -0.272701 0)
(1.83215 0.228549 0)
(1.92323 0.110022 0)
(2 1.52372e-14 0)
(1.91774 0.200511 0)
(2.15738 -0.268055 0)
(2.15769 -0.267376 0)
(1.91661 0.201301 0)
(1.83292 0.228864 0)
(2 -5.47758e-14 0)
(1.83178 0.230205 0)
(2.19082 -0.291493 0)
(1.91852 0.20667 0)
(2 1.55851e-13 0)
(2 1.62843e-13 0)
(2 1.08458e-13 0)
(2 2.50959e-13 0)
(1.83555 0.228884 0)
(2 3.84394e-14 0)
(1.91136 0.137096 0)
(1.98456 0.0278832 0)
(2 3.00403e-14 0)
(2 -5.09654e-14 0)
(1.85034 0.226641 0)
(2.17556 -0.275451 0)
(2.1179 -0.152963 0)
(2 -5.87784e-14 0)
(1.83147 0.229313 0)
(2.17587 -0.274949 0)
(1.8329 0.229639 0)
(2 4.558e-14 0)
(2 1.00658e-14 0)
(2 9.22211e-14 0)
(2 -9.29802e-14 0)
(2 -5.37842e-14 0)
(2 -5.21345e-14 0)
(2 -1.26871e-13 0)
(2.14325 -0.269189 0)
(2.12399 -0.153113 0)
(2.16202 -0.27099 0)
(1.83103 0.228917 0)
(2 -4.73616e-15 0)
(2 1.19441e-13 0)
(2 -1.99686e-07 0)
(2 5.72178e-14 0)
(1.84555 0.21051 0)
(2 -8.30423e-08 0)
(2.14136 -0.267853 0)
(2 -2.37375e-13 0)
(2.12958 -0.285582 0)
(2.13801 -0.270565 0)
(1.83282 0.228278 0)
(2.15386 -0.268533 0)
(1.91918 0.193491 0)
(2 1.86046e-14 0)
(2 -1.70923e-13 0)
(2 -1.53493e-14 0)
(2.0009 -0.00167712 0)
(2.1561 -0.268274 0)
(2.18746 -0.291177 0)
(2 -3.14024e-07 0)
(2 -1.57134e-07 0)
(2.13297 -0.284904 0)
(2 2.57519e-09 0)
(1.83009 0.22892 0)
(2.17493 -0.280791 0)
(2 -9.63573e-14 0)
(2 -2.8374e-11 0)
(1.82914 0.228605 0)
(2.1699 -0.283593 0)
(2 -1.51646e-13 0)
(1.83117 0.23497 0)
(2.17073 -0.280518 0)
(1.85109 0.226679 0)
(2 4.39671e-14 0)
(2.12704 -0.289081 0)
(2.00089 -0.00152287 0)
(2 -1.66798e-13 0)
(2 2.8099e-06 0)
(2 5.7201e-14 0)
(2.14934 -0.27058 0)
(2 -1.51855e-13 0)
(2 5.75529e-14 0)
(2 2.39695e-07 0)
(1.99999 4.22415e-06 0)
(2.02822 0.0234343 0)
(1.94515 0.173581 0)
(2 -2.76034e-11 0)
(2.14714 -0.245885 0)
(2 -1.53628e-11 0)
(2 -3.09642e-13 0)
(2 -2.08514e-13 0)
(2 2.44813e-13 0)
(2 -2.87337e-14 0)
(2 -6.76735e-14 0)
(2 -1.1124e-12 0)
(1.82903 0.228655 0)
(2 3.41203e-13 0)
(1.83032 0.228716 0)
(2 2.70861e-13 0)
(2 2.92457e-13 0)
(2 -4.84797e-14 0)
(2.16979 -0.272997 0)
(2 -5.85189e-14 0)
(1.83098 0.2286 0)
(2.15333 -0.264713 0)
(2 -2.6512e-13 0)
(2 2.9616e-07 0)
(2 2.57897e-13 0)
(2 1.01737e-13 0)
(1.82918 0.229423 0)
(2 5.69313e-14 0)
(2 -8.64958e-09 0)
(2 1.26863e-14 0)
(1.83109 0.227757 0)
(2 4.28983e-10 0)
(2 -1.29966e-13 0)
(1.8397 0.219169 0)
(1.82942 0.229352 0)
(2 -6.25863e-14 0)
(2.0148 0.0759914 0)
(2 5.22125e-14 0)
(2 9.46855e-14 0)
(2.17796 -0.277881 0)
(2 2.11988e-13 0)
(2 -3.08702e-14 0)
(2 -4.7438e-14 0)
(2.17374 -0.277076 0)
(2 -1.14042e-13 0)
(2 2.9241e-14 0)
(2 -9.89254e-15 0)
(2 4.11984e-14 0)
(2.14866 -0.261695 0)
(2 1.85264e-13 0)
(2 -7.6377e-15 0)
(2 2.35772e-13 0)
(2 -1.63801e-14 0)
(2 1.52267e-13 0)
(2.1735 -0.290339 0)
(1.99998 3.8141e-05 0)
(1.83192 0.229275 0)
(2 -7.54345e-15 0)
(1.99999 -6.03743e-06 0)
(1.83219 0.229024 0)
(1.83179 0.229152 0)
(2 2.01577e-13 0)
(2 9.78709e-14 0)
(2.10993 -0.276311 0)
(2.09855 -0.113831 0)
(1.83027 0.228836 0)
(2 1.21074e-13 0)
(2 -2.89567e-14 0)
(2 -6.4889e-14 0)
(1.85214 0.226897 0)
(2.17504 -0.277896 0)
(2 1.69763e-13 0)
(1.83179 0.229211 0)
(2 -2.38017e-13 0)
(2 -2.99855e-13 0)
(2.12286 -0.213399 0)
(2.12204 -0.213265 0)
(2 -1.33157e-13 0)
(2.15035 -0.271233 0)
(2.16013 -0.273948 0)
(2 1.22175e-13 0)
(2 -8.00248e-14 0)
(2 -1.84651e-13 0)
(2 -9.60617e-14 0)
(2 -8.5677e-11 0)
(2 1.04469e-13 0)
(2 6.44495e-14 0)
(1.82929 0.228336 0)
(2.0076 0.0882262 0)
(1.83648 0.226715 0)
(2.16869 -0.284794 0)
(2.0614 -0.0425306 0)
(1.83088 0.22866 0)
(2 3.15868e-13 0)
(1.83061 0.228459 0)
(1.83005 0.22879 0)
(2.16715 -0.275805 0)
(2.10976 -0.135992 0)
(2 6.69313e-13 0)
(2.16895 -0.275587 0)
(2 1.66002e-13 0)
(1.82072 0.234109 0)
(2 1.42105e-13 0)
(2 -2.90831e-13 0)
(2 -5.35871e-14 0)
(2 9.10387e-16 0)
(1.83275 0.228756 0)
(2 1.463e-13 0)
(2 5.47264e-14 0)
(2 1.4463e-13 0)
(2 1.58598e-09 0)
(2 -1.28517e-13 0)
(2 2.2344e-13 0)
(2 -2.11781e-14 0)
(1.97352 0.111697 0)
(1.82944 0.228755 0)
(2 1.62319e-13 0)
(1.83109 0.229089 0)
(2 -1.16607e-14 0)
(2 -2.53196e-14 0)
(2.13514 -0.262696 0)
(2 -2.58044e-14 0)
(2 2.9315e-13 0)
(2 2.18171e-13 0)
(2 6.12262e-14 0)
(1.83193 0.228725 0)
(1.90816 0.195376 0)
(2 1.08665e-13 0)
(2 9.27254e-14 0)
(2.14816 -0.273045 0)
(1.83546 0.229092 0)
(1.83168 0.229096 0)
(2 -9.08327e-14 0)
(1.83165 0.229046 0)
(1.83744 0.229694 0)
(1.83121 0.229095 0)
(2 -1.76322e-13 0)
(2.09694 -0.102932 0)
(2 1.06305e-13 0)
(1.856 0.227071 0)
(2.04362 0.00917198 0)
(1.83111 0.229111 0)
(2 -7.18026e-14 0)
(2.16703 -0.272942 0)
(2.00042 -0.000634098 0)
(1.82986 0.228703 0)
(2 -1.2264e-13 0)
(2 4.80113e-14 0)
(2 -2.17647e-13 0)
(2 -1.46018e-13 0)
(2.13706 -0.26308 0)
(1.83218 0.228438 0)
(1.91483 0.205098 0)
(2 -9.46519e-15 0)
(1.99697 0.0078526 0)
(1.85301 0.227263 0)
(1.82962 0.228748 0)
(2 -1.23484e-13 0)
(1.91701 0.119605 0)
(1.93792 0.137149 0)
(2 8.87948e-14 0)
(2 -2.80497e-14 0)
(1.91875 0.186942 0)
(1.9762 0.0444371 0)
(1.83142 0.228994 0)
(2.06534 -0.0261072 0)
(1.83138 0.228964 0)
(2 -3.89965e-15 0)
(1.83133 0.228864 0)
(1.83149 0.228644 0)
(1.83134 0.228907 0)
(1.83577 0.228994 0)
(2 -1.06124e-13 0)
(1.84169 0.217246 0)
(2.05728 -0.0406976 0)
(2.06879 -0.0650801 0)
(2 -7.14939e-14 0)
(2 -3.64537e-07 0)
(2 -3.21101e-14 0)
(2 1.97219e-13 0)
(1.83091 0.22817 0)
(2 -7.08455e-14 0)
(2 -3.48326e-14 0)
(2 2.84337e-14 0)
(2 -5.92799e-14 0)
(2 -6.51098e-14 0)
(1.82909 0.228702 0)
(2 -5.55898e-14 0)
(2 -7.83364e-14 0)
(2.00137 -0.00248446 0)
(1.8319 0.229029 0)
(1.85029 0.204042 0)
(2 1.08697e-14 0)
(1.86285 0.196118 0)
(1.99998 2.7017e-05 0)
(2 -3.09682e-13 0)
(2 -9.45212e-14 0)
(1.83346 0.22864 0)
(2 -2.35351e-13 0)
(2.00216 -0.00279713 0)
(1.99866 0.00347529 0)
(2 9.19091e-14 0)
(1.83161 0.228816 0)
(2 -1.83243e-13 0)
(1.83116 0.229727 0)
(2 -8.62612e-14 0)
(2 -1.11705e-13 0)
(1.91367 0.19386 0)
(2 -3.5804e-14 0)
(1.83101 0.230125 0)
(1.99999 1.26591e-05 0)
(2 2.17719e-13 0)
(1.83069 0.230445 0)
(2 1.04615e-13 0)
(1.8321 0.228959 0)
(2 2.08002e-15 0)
(2 2.57078e-06 0)
(2 8.43431e-14 0)
(1.83603 0.229114 0)
(2 5.87881e-14 0)
(1.83231 0.229353 0)
(2 4.61372e-06 0)
(1.83369 0.228435 0)
(1.82983 0.228409 0)
(1.84762 0.227394 0)
(1.83068 0.228764 0)
(2 -1.34156e-13 0)
(1.82952 0.228561 0)
(1.8329 0.224803 0)
(2 -1.74359e-13 0)
(2.1568 -0.271632 0)
(1.89452 0.216367 0)
(1.92262 0.188852 0)
(2 1.3127e-13 0)
(1.83444 0.228701 0)
(2 -6.46004e-14 0)
(2.17614 -0.275657 0)
(2.16982 -0.282155 0)
(2 6.58442e-14 0)
(2 -1.24757e-14 0)
(2 -4.22076e-14 0)
(2 -7.00205e-14 0)
(2 1.38841e-09 0)
(2.17596 -0.275985 0)
(2 -2.9098e-14 0)
(1.83099 0.229126 0)
(1.99174 0.080206 0)
(1.83336 0.228878 0)
(2 -2.55809e-14 0)
(2 7.07875e-11 0)
(2 -1.37122e-13 0)
(2 -1.35588e-13 0)
(2 -5.06786e-08 0)
(1.83132 0.228622 0)
(2 4.6837e-13 0)
(1.8323 0.226507 0)
(1.93447 0.163335 0)
(2.11418 -0.140305 0)
(2 1.3584e-09 0)
(1.99999 6.79053e-06 0)
(1.94903 0.0861959 0)
(1.96405 0.0678606 0)
(2 -1.32193e-13 0)
(2 -2.43479e-13 0)
(1.99517 0.112944 0)
(2 5.8774e-14 0)
(2.1319 -0.263976 0)
(1.83227 0.229001 0)
(1.83198 0.229155 0)
(2 -2.40856e-13 0)
(2 2.19885e-14 0)
(2 6.44501e-14 0)
(1.82931 0.22846 0)
(2 6.00184e-14 0)
(1.99999 1.52902e-05 0)
(2.0001 -0.000212881 0)
(1.83255 0.228248 0)
(2.04923 -0.0178719 0)
(2 -8.04426e-14 0)
(2 1.18263e-10 0)
(2.14657 -0.271502 0)
(1.89508 0.215396 0)
(2 1.23031e-13 0)
(2 2.82731e-13 0)
(2 4.24068e-14 0)
(2 -2.83109e-11 0)
(2 3.45048e-13 0)
(1.83192 0.228959 0)
(1.82956 0.22848 0)
(2 2.50706e-14 0)
(1.82986 0.229851 0)
(1.8331 0.229604 0)
(1.84891 0.226756 0)
(2 -8.64506e-14 0)
(2 2.28348e-13 0)
(2 -5.53473e-11 0)
(2 -3.59457e-14 0)
(2.1748 -0.282755 0)
(1.83044 0.228774 0)
(2 -3.93311e-11 0)
(2 -6.77318e-14 0)
(1.89945 0.214096 0)
(1.89284 0.216771 0)
(2 1.72755e-14 0)
(1.89912 0.214785 0)
(1.82805 0.228779 0)
(2 -7.61126e-15 0)
(2 -2.17968e-07 0)
(2 8.83631e-11 0)
(2 1.09895e-13 0)
(2 -1.6851e-13 0)
(1.83189 0.228915 0)
(2 1.28675e-13 0)
(2 -1.01075e-13 0)
(2 1.9949e-13 0)
(2 -9.65926e-14 0)
(1.8308 0.231334 0)
(2 1.65626e-13 0)
(1.83568 0.233753 0)
(2.16291 -0.272065 0)
(2 -3.39817e-14 0)
(2.16378 -0.279264 0)
(2 6.55902e-14 0)
(2 -1.54755e-07 0)
(2 1.09921e-15 0)
(2.00137 -0.00183667 0)
(2.15431 -0.267055 0)
(2.0003 -0.000498961 0)
(2 -1.99867e-13 0)
(2 7.8534e-14 0)
(2 -1.16883e-07 0)
(1.97273 0.0395934 0)
(2 -1.42077e-13 0)
(2 2.29031e-14 0)
(2.07969 -0.0794291 0)
(2 -2.34646e-07 0)
(2 5.41249e-14 0)
(2 8.90494e-14 0)
(2 -2.11214e-07 0)
(2 3.71529e-07 0)
(2 -9.91873e-08 0)
(2 1.3573e-13 0)
(2 -1.7577e-06 0)
(2.05698 -0.0243454 0)
(2 -5.10584e-07 0)
(2 -4.14043e-08 0)
(2.00089 -0.00141269 0)
(2 -2.17257e-13 0)
(2.1382 -0.263941 0)
(2 -2.88975e-11 0)
(2 -4.16996e-12 0)
(2 -7.04751e-11 0)
(2 -2.06332e-13 0)
(1.91244 0.193947 0)
(2 6.23743e-14 0)
(2 4.57219e-14 0)
(2 4.30554e-14 0)
(2 -7.7772e-14 0)
(2.15282 -0.265235 0)
(2 -6.85652e-15 0)
(2 1.78275e-09 0)
(1.894 0.216187 0)
(1.83039 0.228775 0)
(2 -3.01525e-07 0)
(2 8.79627e-14 0)
(2 -1.0588e-07 0)
(2.07123 -0.0639125 0)
(2 -4.51964e-15 0)
(2 3.7951e-10 0)
(2 -4.26049e-14 0)
(2 2.0998e-13 0)
(2 -1.29023e-13 0)
(2 -1.2174e-13 0)
(2.05174 -0.0199121 0)
(2.03017 0.018442 0)
(1.92207 0.192321 0)
(2 -1.06504e-13 0)
(2 1.8471e-14 0)
(2 9.46191e-14 0)
(1.83146 0.228712 0)
(2.08084 -0.049065 0)
(2 -4.96614e-09 0)
(2 -9.74879e-14 0)
(2 1.32371e-13 0)
(1.83179 0.228748 0)
(1.83166 0.228915 0)
(2 -3.17538e-08 0)
(2 4.55656e-06 0)
(2 3.31092e-09 0)
(2 -1.57016e-13 0)
(2 1.40225e-09 0)
(2 -3.08007e-14 0)
(2 -2.77675e-11 0)
(2 2.36894e-14 0)
(2 2.27353e-14 0)
(2.16681 -0.271204 0)
(2 4.56439e-14 0)
(2 -1.66712e-11 0)
(1.8294 0.229291 0)
(2.16354 -0.271677 0)
(2 2.80645e-13 0)
(1.8294 0.228596 0)
(2 6.62601e-11 0)
(2.14409 -0.26721 0)
(2 1.98019e-14 0)
(2 5.54779e-14 0)
(2.16472 -0.273549 0)
(2 3.65961e-15 0)
(2 -1.29892e-11 0)
(2 -5.10293e-12 0)
(2 6.15409e-14 0)
(2 -2.42337e-12 0)
(2 -2.20674e-13 0)
(2 7.00599e-14 0)
(1.89447 0.215896 0)
(1.8938 0.216322 0)
(2 4.16814e-13 0)
(2 9.90641e-14 0)
(2 2.49394e-13 0)
(2 4.65354e-13 0)
(1.89903 0.213849 0)
(2 2.90554e-13 0)
(1.97871 0.102172 0)
(2.15613 -0.272467 0)
(2 -3.29731e-08 0)
(2 3.20841e-13 0)
(2 1.89194e-13 0)
(2 3.05932e-13 0)
(2 7.21861e-16 0)
(2 2.12356e-14 0)
(2 8.40268e-14 0)
(2.01825 0.0397817 0)
(2 3.31778e-14 0)
(2 7.76426e-14 0)
(1.90529 0.132174 0)
(2 1.85508e-13 0)
(2 6.26811e-14 0)
(2 5.02832e-14 0)
(1.92124 0.202941 0)
(2 1.28069e-13 0)
(2 1.34543e-13 0)
(2 1.32807e-13 0)
(2 1.41927e-13 0)
(2.16961 -0.271907 0)
(2 6.05963e-12 0)
(2 1.62762e-13 0)
(2.17596 -0.281726 0)
(2.17006 -0.276252 0)
(2 7.96894e-14 0)
(2 1.33277e-13 0)
(1.85473 0.227426 0)
(2 -3.29675e-14 0)
(1.96134 -0.0216508 0)
(2 -9.44954e-14 0)
(2 -1.41355e-14 0)
(2 6.96073e-15 0)
(1.91895 0.186025 0)
(2.14564 -0.272124 0)
(2 1.39225e-13 0)
(2.15587 -0.286378 0)
(2 -7.63942e-14 0)
(2.10105 -0.146938 0)
(2 1.27449e-14 0)
(2 9.17909e-14 0)
(2 -1.31199e-14 0)
(1.83027 0.228596 0)
(2 -3.96213e-08 0)
(2 6.94943e-14 0)
(1.86289 0.225517 0)
(2 -1.12491e-13 0)
(2 -2.51351e-11 0)
(2 1.80546e-09 0)
(1.86274 0.225494 0)
(2 2.04412e-10 0)
(2 3.71347e-15 0)
(1.85857 0.225823 0)
(2 4.28546e-13 0)
(2 2.30525e-14 0)
(2.16928 -0.273844 0)
(2 -1.71689e-11 0)
(1.9792 0.101195 0)
(2 -5.3292e-14 0)
(2 -1.07941e-13 0)
(1.8307 0.228615 0)
(1.83068 0.228908 0)
(1.92127 0.179605 0)
(1.90196 0.212563 0)
(2 2.30139e-13 0)
(2.1671 -0.276368 0)
(2 -7.83184e-14 0)
(2 -5.45754e-14 0)
(1.89198 0.217443 0)
(2 6.15533e-14 0)
(2.17139 -0.268048 0)
(2 -1.61529e-13 0)
(2 -1.121e-13 0)
(2 9.84931e-15 0)
(1.86642 0.224401 0)
(2 1.55063e-14 0)
(2 1.23628e-13 0)
(2 -8.08946e-15 0)
(2 2.6189e-14 0)
(1.9334 0.162009 0)
(2 -4.35835e-14 0)
(2 -8.49107e-07 0)
(1.82911 0.229836 0)
(2.17405 -0.276492 0)
(2 8.99897e-14 0)
(2 -1.49104e-13 0)
(2.17028 -0.279674 0)
(2.17221 -0.279259 0)
(2 3.48287e-14 0)
(2 6.41332e-14 0)
(2 -6.11939e-12 0)
(1.91448 0.188321 0)
(1.91006 0.195164 0)
(2 -1.62725e-13 0)
(2 6.01642e-14 0)
(2 1.0253e-13 0)
(2 -2.04126e-13 0)
(2 -2.17214e-13 0)
(2 -5.83388e-14 0)
(2 5.05509e-14 0)
(1.96287 0.122799 0)
(1.83147 0.228776 0)
(2.02767 0.0185917 0)
(2 -1.17919e-13 0)
(1.91719 0.20454 0)
(2.17335 -0.279617 0)
(2 -8.60757e-14 0)
(2 -7.80383e-14 0)
(2 5.03343e-14 0)
(1.9415 0.154451 0)
(2 5.96724e-14 0)
(1.96506 0.0568001 0)
(2 -9.84779e-14 0)
(1.89473 0.215253 0)
(1.89912 0.214484 0)
(2 -6.00173e-14 0)
(2.16561 -0.27174 0)
(2 1.03766e-13 0)
(1.83097 0.22891 0)
(2 -8.32942e-15 0)
(2 8.00484e-14 0)
(1.83094 0.228405 0)
(1.89926 0.21477 0)
(2 2.11533e-13 0)
(1.82547 0.229196 0)
(2 5.22635e-14 0)
(2.15865 -0.273878 0)
(2 -2.20155e-13 0)
(2 -3.78875e-14 0)
(2 -2.01593e-13 0)
(1.83224 0.229705 0)
(1.89531 0.215632 0)
(1.89696 0.212693 0)
(2 6.10587e-14 0)
(1.83015 0.229066 0)
(1.85977 0.225067 0)
(2 1.60267e-13 0)
(1.86654 0.22482 0)
(2 -8.76823e-09 0)
(1.89906 0.214285 0)
(2 -1.62995e-13 0)
(2.1783 -0.271199 0)
(2.03586 0.0040411 0)
(2.16883 -0.276884 0)
(2 -3.08355e-11 0)
(2 -2.34132e-11 0)
(2 -2.93704e-11 0)
(2 8.8929e-14 0)
(2 -1.47529e-11 0)
(1.84964 0.227884 0)
(2 1.63619e-13 0)
(1.85051 0.227102 0)
(2 -3.26524e-11 0)
(2 -9.59052e-11 0)
(2 -5.25162e-14 0)
(1.89736 0.215343 0)
(2 1.83334e-13 0)
(2.15622 -0.273179 0)
(1.86186 0.226005 0)
(2 7.53179e-14 0)
(2.17007 -0.271139 0)
(2.1369 -0.243861 0)
(2.1454 -0.262681 0)
(2 -3.65667e-14 0)
(1.94999 0.141628 0)
(2.01758 0.0356899 0)
(1.89924 0.210837 0)
(1.85936 0.225101 0)
(2 1.11328e-13 0)
(2 -3.53016e-07 0)
(2 -4.3671e-08 0)
(2 9.30177e-15 0)
(1.84236 0.22758 0)
(2 -7.3881e-14 0)
(2 1.2535e-13 0)
(1.84042 0.227006 0)
(1.85866 0.224894 0)
(2 3.75468e-14 0)
(1.99693 0.112642 0)
(1.9996 0.000881215 0)
(2 -1.64473e-13 0)
(2.00118 -0.00197737 0)
(1.8279 0.228617 0)
(2.08753 -0.0944739 0)
(2 -1.16922e-07 0)
(2.09814 -0.109132 0)
(2.12893 -0.264544 0)
(2.1321 -0.263014 0)
(2.00087 -0.0171008 0)
(1.83204 0.229136 0)
(1.89901 0.214963 0)
(2.00141 0.0640917 0)
(1.89603 0.209304 0)
(1.85514 0.225659 0)
(2 -1.38285e-13 0)
(2 -4.13881e-14 0)
(1.82862 0.228661 0)
(1.83006 0.229086 0)
(1.88061 0.212375 0)
(1.82825 0.227571 0)
(2 5.2663e-14 0)
(1.8996 0.213453 0)
(2.17316 -0.273002 0)
(1.82995 0.230391 0)
(1.83044 0.23037 0)
(1.83069 0.228127 0)
(1.8316 0.228856 0)
(2.08179 -0.0851965 0)
(2.06509 -0.0467062 0)
(2.0624 -0.0322143 0)
(1.8576 0.226579 0)
(2.0482 -0.0142037 0)
(1.83155 0.228789 0)
(2 1.7083e-13 0)
(2 2.47771e-14 0)
(1.89976 0.212134 0)
(1.83143 0.229237 0)
(2 5.55322e-14 0)
(2.1671 -0.27274 0)
(1.83048 0.227517 0)
(1.85618 0.225933 0)
(2 1.15351e-13 0)
(1.84289 0.226363 0)
(1.84408 0.226487 0)
(2 -1.98976e-13 0)
(1.8454 0.227946 0)
(2.16308 -0.267113 0)
(1.83151 0.228085 0)
(1.83019 0.228696 0)
(1.82979 0.228743 0)
(1.83138 0.228356 0)
(2 -2.25575e-14 0)
(2 8.37132e-14 0)
(2 -1.05773e-07 0)
(1.85673 0.22585 0)
(1.92591 0.175464 0)
(2.16109 -0.241838 0)
(1.86369 0.224516 0)
(2.17023 -0.278111 0)
(1.85554 0.227006 0)
(2 1.86732e-14 0)
(2 -4.68312e-14 0)
(2 -1.31134e-13 0)
(2 -1.9185e-13 0)
(1.83004 0.230073 0)
(1.86438 0.224317 0)
(2 5.39473e-14 0)
(2 1.2156e-13 0)
(1.86519 0.223993 0)
(2.16359 -0.278193 0)
(1.83112 0.229258 0)
(2.13717 -0.26869 0)
(2 -9.29629e-14 0)
(1.89636 0.215155 0)
(2 -1.78343e-13 0)
(2.17712 -0.272511 0)
(1.86921 0.224174 0)
(2.12095 -0.18294 0)
(2 -1.269e-13 0)
(1.86062 0.225547 0)
(1.87068 0.224616 0)
(1.84533 0.223569 0)
(2 2.31518e-14 0)
(2 2.55083e-13 0)
(2 1.85563e-07 0)
(1.87073 0.223804 0)
(2.15177 -0.266943 0)
(1.87048 0.221759 0)
(2 1.0173e-13 0)
(1.89671 0.202835 0)
(2.07928 -0.0796641 0)
(1.84262 0.22391 0)
(2.16061 -0.274212 0)
(2 -1.45544e-13 0)
(1.83148 0.229835 0)
(2.13589 -0.228714 0)
(1.89951 0.2131 0)
(2.14539 -0.26514 0)
(2 2.98457e-15 0)
(1.86731 0.224231 0)
(2 8.94885e-14 0)
(1.829 0.229133 0)
(2 1.49621e-13 0)
(1.95527 0.167148 0)
(1.89412 0.216279 0)
(1.90733 0.201014 0)
(2.16756 -0.286563 0)
(2 1.33109e-13 0)
(1.83123 0.228857 0)
(2 5.62334e-14 0)
(1.89586 0.203829 0)
(2 -1.15927e-07 0)
(1.87381 0.22125 0)
(2 -2.34872e-07 0)
(2 3.84015e-14 0)
(1.83087 0.228665 0)
(2.04679 0.00494014 0)
(1.87243 0.224043 0)
(2.16702 -0.270793 0)
(1.98813 0.0266213 0)
(2 8.75457e-14 0)
(1.93281 0.189104 0)
(2 1.13593e-13 0)
(1.8305 0.228763 0)
(1.87368 0.220778 0)
(1.83107 0.229504 0)
(2 -7.29448e-14 0)
(1.90131 0.212946 0)
(1.83058 0.228803 0)
(1.90064 0.213347 0)
(1.93176 0.165455 0)
(1.82711 0.230405 0)
(2 -8.17099e-14 0)
(1.92346 0.17576 0)
(2 1.58697e-13 0)
(1.83063 0.229369 0)
(2 7.26983e-14 0)
(2.00644 0.0600246 0)
(2 -7.5972e-14 0)
(1.89281 0.216988 0)
(2 -8.9965e-14 0)
(1.89598 0.203174 0)
(1.89224 0.217679 0)
(1.89689 0.215219 0)
(2 -2.44036e-13 0)
(1.95698 0.0815066 0)
(2.16939 -0.279268 0)
(2 -2.73963e-13 0)
(2.1617 -0.275186 0)
(2 -3.22485e-13 0)
(2 -1.45131e-13 0)
(2 -6.37022e-14 0)
(1.82973 0.228668 0)
(2 9.7493e-14 0)
(1.87745 0.221164 0)
(2 1.10543e-13 0)
(2 6.55829e-14 0)
(2 1.97308e-13 0)
(1.86572 0.224844 0)
(1.93978 0.114803 0)
(1.96393 0.0667037 0)
(1.83039 0.229983 0)
(1.8317 0.228943 0)
(2.16354 -0.277359 0)
(1.83531 0.229473 0)
(1.83167 0.228977 0)
(2 7.70598e-14 0)
(1.97844 0.0406442 0)
(1.87341 0.220221 0)
(1.948 0.0981793 0)
(2 1.06428e-13 0)
(1.83032 0.228976 0)
(1.83086 0.229035 0)
(2 1.08433e-13 0)
(1.84401 0.231648 0)
(1.83109 0.228478 0)
(1.83129 0.228829 0)
(1.86821 0.224368 0)
(2 1.17446e-13 0)
(2 1.03308e-13 0)
(2 2.09302e-13 0)
(1.89012 0.203705 0)
(2.16256 -0.269339 0)
(2 3.68197e-14 0)
(1.87711 0.218626 0)
(2 3.76475e-14 0)
(2 2.78627e-13 0)
(2.16898 -0.281981 0)
(2 1.10267e-13 0)
(2 3.46987e-13 0)
(1.87594 0.217755 0)
(1.83179 0.229206 0)
(2 1.5022e-13 0)
(1.87155 0.221174 0)
(1.92355 0.146414 0)
(1.83077 0.228466 0)
(2.03271 0.00789836 0)
(1.83404 0.228656 0)
(2 3.05935e-14 0)
(1.83261 0.2289 0)
(1.87784 0.216633 0)
(1.95796 0.0745207 0)
(2 6.11881e-14 0)
(2 8.07642e-14 0)
(2 5.39065e-14 0)
(1.83102 0.228664 0)
(1.8314 0.229043 0)
(1.88191 0.215821 0)
(2.05356 -0.0297226 0)
(2 -1.25812e-13 0)
(1.83669 0.232436 0)
(1.83139 0.22888 0)
(1.8467 0.22769 0)
(2 -1.34416e-13 0)
(1.83156 0.228888 0)
(1.83074 0.229464 0)
(1.87922 0.217633 0)
(1.83923 0.23327 0)
(2 -2.60463e-13 0)
(1.8808 0.213977 0)
(1.8426 0.223749 0)
(1.86337 0.204965 0)
(1.83149 0.229723 0)
(1.8402 0.232326 0)
(2 1.13549e-13 0)
(1.83008 0.231154 0)
(1.89291 0.216996 0)
(1.88142 0.215738 0)
(1.82965 0.230729 0)
(1.83158 0.229758 0)
(2.1783 -0.27629 0)
(1.83113 0.228362 0)
(1.83166 0.229519 0)
(2 1.24045e-13 0)
(1.88611 0.209813 0)
(1.88173 0.21654 0)
(1.88569 0.210942 0)
(1.88315 0.214636 0)
(2 -5.71714e-08 0)
(1.88052 0.213003 0)
(1.88196 0.210257 0)
(2 -3.21089e-14 0)
(1.85819 0.225253 0)
(1.90049 0.209324 0)
(2 3.71773e-13 0)
(2 2.07088e-14 0)
(2 7.42352e-10 0)
(1.83145 0.229499 0)
(1.83309 0.230948 0)
(2 -5.5669e-14 0)
(2 -1.14649e-13 0)
(1.94033 0.15546 0)
(2 3.92146e-14 0)
(1.9259 0.189817 0)
(2 1.72548e-13 0)
(2 -3.47473e-14 0)
(1.85407 0.226463 0)
(1.91894 0.200366 0)
(1.83164 0.228967 0)
(1.85657 0.225053 0)
(2 1.28051e-14 0)
(2 -4.74201e-14 0)
(2 -1.47288e-13 0)
(1.8884 0.171521 0)
(2 -7.77879e-14 0)
(1.88507 0.206306 0)
(2 -6.96723e-15 0)
(2 1.08775e-13 0)
(1.82796 0.228658 0)
(1.8301 0.228965 0)
(2 -3.06234e-14 0)
(1.87685 0.220254 0)
(2.18225 -0.28343 0)
(1.84701 0.227323 0)
(1.83211 0.228233 0)
(2.14448 -0.185831 0)
(2 2.35963e-13 0)
(2.17905 -0.28282 0)
(1.86052 0.205092 0)
(1.83202 0.228577 0)
(1.87748 0.204029 0)
(1.87659 0.204787 0)
(2.15057 -0.278314 0)
(1.83049 0.228572 0)
(1.85987 0.226622 0)
(2.15661 -0.279646 0)
(2.16843 -0.285621 0)
(2 -2.64406e-07 0)
(1.89631 0.199596 0)
(1.83167 0.22902 0)
(2 -1.36101e-13 0)
(2 -1.26182e-14 0)
(1.88128 0.212684 0)
(2 9.39995e-14 0)
(1.83198 0.22917 0)
(2 8.71468e-07 0)
(1.89722 0.212709 0)
(2 -1.46817e-13 0)
(1.97845 0.139441 0)
(1.83174 0.229262 0)
(1.86976 0.22451 0)
(1.88445 0.173758 0)
(1.89494 0.166319 0)
(1.8308 0.228876 0)
(1.84699 0.229488 0)
(1.90379 0.162573 0)
(2 1.57494e-13 0)
(2.17138 -0.278808 0)
(1.88714 0.199774 0)
(1.83195 0.228766 0)
(1.84592 0.231192 0)
(2 2.58624e-06 0)
(2 5.76107e-14 0)
(2 1.29853e-09 0)
(1.82994 0.230488 0)
(2 -1.00579e-13 0)
(1.83186 0.229053 0)
(1.84824 0.228331 0)
(2.11231 -0.175973 0)
(2 -1.04116e-13 0)
(1.88275 0.211788 0)
(2.00002 -3.86886e-05 0)
(2 -9.11358e-14 0)
(2 7.50023e-06 0)
(2 2.13793e-06 0)
(1.83182 0.228821 0)
(1.84396 0.228386 0)
(2 -1.29495e-05 0)
(2 4.39774e-14 0)
(2 4.75225e-15 0)
(1.89355 0.204143 0)
(1.87116 0.223524 0)
(1.8912 0.204906 0)
(1.83233 0.228037 0)
(1.83038 0.22983 0)
(2.1551 -0.24574 0)
(1.97556 0.0475109 0)
(2 -1.45921e-13 0)
(1.89524 0.215298 0)
(1.83166 0.22905 0)
(1.83183 0.229186 0)
(1.83898 0.222511 0)
(2 1.18496e-13 0)
(1.87075 0.221537 0)
(1.89731 0.215153 0)
(1.87165 0.222735 0)
(2 -1.62847e-13 0)
(1.83061 0.228387 0)
(1.83062 0.229493 0)
(2.07614 -0.0733596 0)
(1.87016 0.221443 0)
(1.83031 0.22825 0)
(2 -1.57165e-13 0)
(1.88338 0.208035 0)
(2.08519 -0.0878886 0)
(1.83149 0.229023 0)
(2.08241 -0.0872474 0)
(1.8705 0.22202 0)
(2 -2.95918e-08 0)
(1.89458 0.20748 0)
(1.82485 0.234947 0)
(1.87506 0.22077 0)
(1.87264 0.221441 0)
(1.89449 0.208368 0)
(1.83196 0.228605 0)
(1.87153 0.222157 0)
(1.83052 0.227701 0)
(2 3.34611e-13 0)
(2.06364 -0.0341314 0)
(1.83134 0.228936 0)
(1.83211 0.229343 0)
(2.08674 -0.0890098 0)
(1.87348 0.219846 0)
(2.03738 0.00904352 0)
(1.89449 0.149551 0)
(1.8314 0.228948 0)
(1.83166 0.228687 0)
(1.82983 0.229337 0)
(2 -1.43521e-13 0)
(1.87164 0.224114 0)
(1.89598 0.145481 0)
(1.83079 0.229836 0)
(2.05348 -0.0311424 0)
(1.87248 0.22325 0)
(1.8257 0.230217 0)
(2 7.14208e-14 0)
(2.08199 -0.0714386 0)
(2 -2.61891e-09 0)
(1.89882 0.174656 0)
(2 -1.8039e-13 0)
(1.92103 0.184243 0)
(2 3.887e-09 0)
(1.93242 0.129171 0)
(2.07864 -0.0627376 0)
(2 -1.30166e-13 0)
(1.87059 0.204717 0)
(1.82889 0.234373 0)
(2 -2.38104e-13 0)
(1.8303 0.229916 0)
(1.89914 0.211477 0)
(1.82997 0.231285 0)
(1.84057 0.222903 0)
(1.84158 0.224611 0)
(2 -3.13654e-14 0)
(1.83076 0.22895 0)
(2 -1.94641e-13 0)
(2 -6.96817e-14 0)
(2 2.284e-14 0)
(2.07546 -0.0607618 0)
(1.8325 0.229426 0)
(1.8317 0.228261 0)
(1.83115 0.228282 0)
(1.87647 0.220418 0)
(1.83243 0.228284 0)
(1.83149 0.227656 0)
(1.91629 0.155869 0)
(1.87654 0.221279 0)
(2.07378 -0.0530841 0)
(1.99041 0.0186634 0)
(2 3.73041e-09 0)
(2 -8.84703e-14 0)
(1.82543 0.232771 0)
(1.87719 0.220865 0)
(1.86855 0.22331 0)
(1.85946 0.222759 0)
(1.99999 1.7489e-05 0)
(1.92131 0.118681 0)
(2 -1.73071e-07 0)
(1.84465 0.23137 0)
(1.85372 0.210934 0)
(2 -3.29928e-12 0)
(2 -5.34999e-11 0)
(2.1257 -0.17315 0)
(1.87944 0.216172 0)
(2 2.81656e-14 0)
(2 4.47706e-14 0)
(2.17396 -0.273257 0)
(1.86041 0.221387 0)
(2 -6.3825e-17 0)
(1.83182 0.228975 0)
(1.88373 0.211518 0)
(1.83111 0.228797 0)
(1.89949 0.214726 0)
(1.8931 0.20618 0)
(2 -1.17035e-10 0)
(2.17251 -0.283516 0)
(1.95675 0.0676564 0)
(1.8309 0.228211 0)
(1.89291 0.20695 0)
(2 -5.28747e-14 0)
(1.89667 0.201759 0)
(1.87674 0.217615 0)
(1.91784 0.119281 0)
(2.00003 0.00448203 0)
(1.97089 0.0523966 0)
(2 -2.12266e-13 0)
(1.82915 0.228431 0)
(1.83142 0.229149 0)
(2 -8.53312e-08 0)
(2 -2.15594e-10 0)
(2.14657 -0.275615 0)
(2 -2.32673e-10 0)
(2 -2.18184e-13 0)
(1.87503 0.220572 0)
(1.87668 0.219593 0)
(1.83174 0.22812 0)
(1.89052 0.20473 0)
(1.85885 0.220871 0)
(1.8286 0.229451 0)
(1.8958 0.210274 0)
(1.88638 0.198363 0)
(1.83149 0.228811 0)
(2 2.29642e-13 0)
(2.00118 -0.00191033 0)
(1.83119 0.229092 0)
(1.89084 0.203408 0)
(2.00079 -0.00139836 0)
(1.87687 0.218322 0)
(1.87803 0.216637 0)
(2.16792 -0.284544 0)
(2.17527 -0.278143 0)
(1.88882 0.199874 0)
(1.83913 0.224126 0)
(2 -2.45562e-13 0)
(2 1.25178e-13 0)
(1.99905 0.00224645 0)
(1.88159 0.211751 0)
(1.83174 0.228412 0)
(1.85924 0.222261 0)
(2 1.87819e-10 0)
(1.87607 0.218518 0)
(2 -7.14506e-14 0)
(2.0957 -0.0806259 0)
(1.84527 0.231754 0)
(1.83872 0.226695 0)
(2 -3.27354e-13 0)
(1.92196 0.111552 0)
(1.83885 0.229473 0)
(2 1.9362e-15 0)
(1.82804 0.228616 0)
(2 -9.99444e-11 0)
(1.8814 0.214073 0)
(1.99561 0.0109534 0)
(1.83172 0.229348 0)
(2 1.23269e-11 0)
(1.83171 0.229373 0)
(1.82904 0.226333 0)
(2.1498 -0.27729 0)
(1.8802 0.212797 0)
(2 -1.31131e-07 0)
(1.83075 0.229597 0)
(1.8314 0.228587 0)
(2 7.11794e-09 0)
(2.17504 -0.280356 0)
(1.84873 0.221385 0)
(1.96599 0.0699582 0)
(2.0001 -0.000262963 0)
(1.92127 0.134847 0)
(1.88074 0.216631 0)
(2 -5.86944e-12 0)
(2.0374 0.0184507 0)
(1.82919 0.232186 0)
(2.0002 -0.00057739 0)
(1.88527 0.211701 0)
(2 -2.70272e-12 0)
(2 1.45299e-13 0)
(1.83117 0.229607 0)
(2 3.57238e-13 0)
(1.82992 0.229579 0)
(1.8779 0.217782 0)
(2.00127 -0.00217532 0)
(1.86991 0.180213 0)
(2 3.18849e-09 0)
(1.87953 0.217106 0)
(2 1.87832e-09 0)
(2 -6.38191e-13 0)
(2 1.074e-11 0)
(2 6.46286e-12 0)
(1.85771 0.22313 0)
(2 6.91852e-09 0)
(2 2.93286e-13 0)
(1.84786 0.219251 0)
(2 -4.20745e-14 0)
(1.88318 0.207479 0)
(2 2.33458e-10 0)
(1.94142 0.176091 0)
(1.84811 0.221566 0)
(1.8319 0.228145 0)
(2 -7.60899e-12 0)
(2 -1.83383e-13 0)
(2.03396 0.0212709 0)
(2 2.17635e-12 0)
(1.83127 0.228403 0)
(1.8814 0.215333 0)
(1.8309 0.229923 0)