/*--------------------------------*- C++ -*----------------------------------*\
  =========                 |
  \\      /  F ield         | OpenFOAM: The Open Source CFD Toolbox
   \\    /   O peration     | Website:  https://openfoam.org
    \\  /    A nd           | Version:  12
     \\/     M anipulation  |
\*---------------------------------------------------------------------------*/
FoamFile
{
    format      ascii;
    class       volScalarField;
    location    "19";
    object      rho;
}
// * * * * * * * * * * * * * * * * * * * * * * * * * * * * * * * * * * * * * //

dimensions      [1 -3 0 0 0 0 0];

internalField   nonuniform List<scalar> 
9801
(
1.14647
1.16268
1.16531
1.15953
1.15187
1.15275
1.15681
1.16589
1.1787
1.19089
1.19995
1.2065
1.21121
1.21228
1.2084
1.20891
1.21417
1.22532
1.24012
1.25346
1.2628
1.26909
1.2712
1.26755
1.26387
1.26325
1.26699
1.27993
1.29796
1.31234
1.32283
1.33117
1.33811
1.33788
1.3308
1.32869
1.3304
1.33405
1.34539
1.3681
1.38506
1.39656
1.40537
1.41318
1.41504
1.40578
1.40222
1.40459
1.40944
1.41747
1.43968
1.46299
1.47792
1.48841
1.4969
1.50323
1.49458
1.48491
1.48683
1.49325
1.50331
1.52536
1.5532
1.5726
1.58533
1.59552
1.60522
1.60247
1.5841
1.58064
1.58824
1.60028
1.62703
1.66843
1.69728
1.71477
1.72927
1.74283
1.74427
1.71548
1.70217
1.71238
1.73112
1.77298
1.83724
1.88283
1.91199
1.93672
1.95977
1.95382
1.9125
1.89559
1.92171
1.97441
2.09183
2.245
2.37562
3.92023
14.2835
1.14539
1.15899
1.16012
1.16243
1.16563
1.16966
1.17466
1.18027
1.18676
1.19327
1.19873
1.20119
1.20247
1.2057
1.21294
1.22436
1.23544
1.24443
1.25232
1.25979
1.26515
1.26451
1.25816
1.25653
1.25935
1.266
1.28291
1.30125
1.31414
1.32345
1.3307
1.33642
1.33576
1.32637
1.3222
1.32428
1.32912
1.33869
1.36164
1.38396
1.39646
1.40483
1.41163
1.41633
1.4089
1.39755
1.39641
1.40071
1.40739
1.4222
1.45226
1.47509
1.48692
1.49524
1.5024
1.50484
1.49143
1.48111
1.4828
1.48921
1.49909
1.52451
1.55835
1.57916
1.5913
1.60093
1.60966
1.60403
1.58394
1.57937
1.58609
1.59684
1.61918
1.66268
1.69644
1.71652
1.73142
1.74461
1.74513
1.7161
1.701
1.70897
1.72571
1.75658
1.81648
1.86684
1.89984
1.92717
1.95245
1.95456
1.91942
1.89782
1.91189
1.95742
2.03299
2.14431
2.23012
3.70509
14.2951
1.12911
1.14057
1.15435
1.16805
1.17821
1.18426
1.18689
1.18745
1.18743
1.1847
1.17966
1.18038
1.18619
1.19931
1.22209
1.24175
1.25112
1.25603
1.25908
1.25922
1.2506
1.23963
1.23922
1.24438
1.25286
1.27093
1.29957
1.31609
1.32291
1.32741
1.33106
1.32846
1.31393
1.30843
1.31185
1.31796
1.32602
1.34326
1.37195
1.39052
1.399
1.40469
1.40814
1.4018
1.38826
1.38449
1.38856
1.39512
1.40397
1.42518
1.4568
1.47652
1.48582
1.49232
1.49595
1.48971
1.47404
1.46807
1.47251
1.48072
1.49179
1.52077
1.5594
1.57906
1.58853
1.59611
1.6009
1.59076
1.56996
1.56492
1.57202
1.58314
1.60312
1.64992
1.68889
1.70791
1.72037
1.73087
1.73096
1.70504
1.68554
1.69006
1.70591
1.72839
1.78297
1.84572
1.88296
1.9079
1.931
1.93668
1.9084
1.88595
1.88885
1.92132
1.97825
2.0673
2.12191
3.59621
14.0804
1.11281
1.12076
1.15055
1.17587
1.18818
1.19437
1.19858
1.19893
1.18738
1.16692
1.16157
1.16455
1.17205
1.19395
1.22821
1.2489
1.25729
1.26255
1.26619
1.25492
1.22971
1.22342
1.22715
1.23401
1.24702
1.27322
1.30152
1.3168
1.32334
1.32796
1.32573
1.31027
1.29857
1.29934
1.305
1.31223
1.32288
1.3438
1.37045
1.38568
1.39182
1.39445
1.39294
1.38593
1.37774
1.37791
1.384
1.39121
1.40047
1.42125
1.45017
1.46567
1.4721
1.47553
1.47744
1.47406
1.46297
1.45945
1.46541
1.47412
1.48395
1.50727
1.54281
1.56178
1.57018
1.57629
1.58124
1.57605
1.55777
1.55121
1.55843
1.56963
1.5847
1.62249
1.66283
1.68267
1.69488
1.70601
1.71321
1.69684
1.67041
1.66613
1.68032
1.69891
1.73329
1.79309
1.83854
1.86654
1.89044
1.9069
1.89152
1.86509
1.8555
1.87199
1.90983
1.97435
2.01433
3.53534
13.8936
1.10418
1.10925
1.14331
1.1772
1.18889
1.19456
1.19904
1.19541
1.17075
1.15555
1.15587
1.15943
1.16481
1.18432
1.22628
1.24854
1.25639
1.26075
1.25453
1.23377
1.2206
1.22045
1.22439
1.22945
1.23856
1.26572
1.29615
1.30866
1.31297
1.31255
1.30743
1.3004
1.29487
1.29543
1.30049
1.30676
1.31453
1.33195
1.35545
1.36842
1.37394
1.37726
1.38023
1.37986
1.37435
1.3725
1.37669
1.38289
1.38938
1.40025
1.42452
1.44307
1.45229
1.45876
1.46489
1.46811
1.45996
1.45212
1.45464
1.4611
1.46844
1.47982
1.50975
1.53559
1.54846
1.5575
1.56587
1.56947
1.55494
1.54026
1.54174
1.55081
1.56168
1.58486
1.62772
1.6561
1.67116
1.68336
1.69515
1.69281
1.66578
1.64855
1.65301
1.66915
1.69058
1.73598
1.79252
1.83197
1.85991
1.88453
1.88882
1.8653
1.84691
1.84248
1.85727
1.90357
1.93849
3.49181
13.7892
1.10123
1.10992
1.14242
1.17368
1.18613
1.19166
1.19155
1.17481
1.15731
1.15355
1.15601
1.16004
1.16617
1.18506
1.21807
1.238
1.24404
1.24206
1.23104
1.22227
1.21985
1.22124
1.22516
1.23162
1.23959
1.25195
1.27486
1.28851
1.29323
1.29466
1.2969
1.29817
1.29632
1.29541
1.29813
1.30278
1.30728
1.31262
1.32864
1.34771
1.35844
1.36614
1.373
1.37897
1.37746
1.37057
1.36929
1.3712
1.37364
1.3783
1.39334
1.41992
1.43774
1.44861
1.4569
1.46415
1.46347
1.45061
1.4438
1.44468
1.44893
1.45591
1.47662
1.51056
1.53147
1.54408
1.55431
1.56333
1.55958
1.53872
1.52851
1.53188
1.54051
1.55369
1.58939
1.63185
1.65583
1.6707
1.68358
1.69123
1.6727
1.64707
1.63841
1.64621
1.66239
1.68814
1.73947
1.79089
1.82735
1.85651
1.88004
1.87681
1.8549
1.83784
1.83387
1.85328
1.87718
3.46654
13.7564
1.10226
1.11823
1.14451
1.16338
1.17373
1.17663
1.16801
1.15798
1.15509
1.15563
1.15838
1.16355
1.17295
1.18743
1.20423
1.21575
1.22026
1.21888
1.21927
1.22202
1.22345
1.22644
1.23138
1.23633
1.23928
1.24064
1.24608
1.26176
1.27461
1.28479
1.29292
1.29883
1.30134
1.29935
1.29846
1.29756
1.2958
1.2969
1.30309
1.32385
1.34679
1.3614
1.37047
1.37715
1.38113
1.37388
1.36396
1.35818
1.3581
1.36207
1.37053
1.39707
1.42583
1.44217
1.45236
1.46027
1.46576
1.45443
1.4358
1.42891
1.43214
1.43943
1.45388
1.48884
1.52008
1.53715
1.5485
1.55786
1.56344
1.54482
1.52252
1.51619
1.52251
1.5332
1.55552
1.60371
1.64379
1.66519
1.67962
1.69225
1.68985
1.6604
1.63802
1.63396
1.64301
1.66029
1.69467
1.74874
1.7959
1.83107
1.86012
1.87678
1.86885
1.84925
1.82678
1.82011
1.81594
3.43459
13.7713
1.1124
1.13575
1.14578
1.15244
1.15504
1.15016
1.14705
1.1497
1.15424
1.15916
1.16656
1.17473
1.18089
1.18647
1.19008
1.19296
1.19661
1.20412
1.21407
1.2219
1.22947
1.23538
1.23988
1.23865
1.23097
1.22744
1.22946
1.24022
1.26283
1.28103
1.29188
1.29941
1.30539
1.30598
1.29766
1.28759
1.28405
1.28636
1.29101
1.30723
1.33889
1.35885
1.36836
1.37496
1.38093
1.3784
1.35809
1.34665
1.34814
1.35394
1.36281
1.38651
1.42026
1.43983
1.45
1.45739
1.46333
1.45644
1.43105
1.4192
1.42171
1.42936
1.44215
1.47374
1.51378
1.53574
1.54707
1.55569
1.56234
1.55155
1.52177
1.50957
1.51174
1.52149
1.53565
1.57199
1.62565
1.65942
1.67733
1.69112
1.70044
1.68342
1.64805
1.63199
1.63498
1.64843
1.66981
1.7101
1.75969
1.79904
1.82931
1.85569
1.86492
1.85817
1.83913
1.81518
1.77212
3.38805
13.8056
1.12489
1.14484
1.14876
1.14571
1.13621
1.13475
1.13853
1.14483
1.15318
1.16597
1.17558
1.18045
1.18222
1.17956
1.17814
1.17989
1.18658
1.20218
1.21662
1.22725
1.2346
1.24031
1.24129
1.23128
1.22069
1.21969
1.22305
1.23414
1.26145
1.28248
1.29346
1.30007
1.306
1.30717
1.29064
1.2777
1.27813
1.28293
1.28998
1.30834
1.33894
1.35783
1.36669
1.37287
1.3779
1.37349
1.35252
1.34172
1.34356
1.34976
1.35991
1.38399
1.41941
1.43995
1.44906
1.45512
1.45751
1.45166
1.43294
1.4195
1.41991
1.42648
1.43675
1.46188
1.50439
1.53288
1.54537
1.5532
1.55827
1.55575
1.53236
1.51146
1.50919
1.51654
1.52875
1.54836
1.59459
1.64271
1.66892
1.68396
1.69558
1.69874
1.67701
1.64906
1.6403
1.64641
1.6605
1.68284
1.72303
1.76551
1.79769
1.82295
1.8445
1.85038
1.84465
1.82134
1.76314
3.32886
13.8601
1.12679
1.14249
1.14221
1.13335
1.13127
1.1353
1.14202
1.15135
1.16356
1.17297
1.17866
1.17935
1.172
1.16742
1.16912
1.1761
1.19225
1.2105
1.22469
1.23328
1.23903
1.24182
1.23113
1.2168
1.21448
1.21811
1.22381
1.23999
1.26943
1.28767
1.29597
1.30195
1.30646
1.30076
1.2808
1.27278
1.27553
1.28098
1.29092
1.31386
1.3425
1.3589
1.36664
1.37141
1.37166
1.36573
1.35306
1.34343
1.34494
1.35099
1.35988
1.3798
1.4139
1.43597
1.44487
1.44884
1.45156
1.45288
1.44162
1.42699
1.4255
1.43205
1.44035
1.45077
1.48242
1.51977
1.53797
1.54688
1.55393
1.56051
1.55426
1.53034
1.51888
1.52156
1.529
1.53863
1.55712
1.6036
1.64642
1.67002
1.68561
1.69914
1.70416
1.68478
1.66001
1.65046
1.6547
1.66737
1.68955
1.72863
1.76708
1.79612
1.81913
1.83458
1.83865
1.82669
1.7773
3.2763
13.9189
1.12006
1.12727
1.12746
1.13017
1.13402
1.14185
1.15472
1.16613
1.17305
1.17759
1.17623
1.16383
1.15672
1.15809
1.16336
1.17884
1.2063
1.22541
1.23367
1.2388
1.24299
1.23538
1.21409
1.20704
1.20983
1.21502
1.22487
1.24926
1.27948
1.2937
1.30029
1.30424
1.30181
1.28978
1.27783
1.27365
1.27662
1.28216
1.29175
1.31511
1.34386
1.35855
1.36464
1.36641
1.36711
1.36718
1.35874
1.35157
1.35353
1.35966
1.36544
1.37261
1.39645
1.42405
1.43752
1.44465
1.45169
1.45874
1.45912
1.44437
1.4348
1.43485
1.43855
1.44424
1.45544
1.4913
1.52653
1.54456
1.55618
1.56599
1.57366
1.5616
1.53605
1.52498
1.52418
1.52902
1.53883
1.56085
1.61022
1.65404
1.68048
1.69781
1.71097
1.71298
1.69433
1.66778
1.65468
1.65764
1.66913
1.69291
1.73484
1.77313
1.7997
1.81715
1.82568
1.82452
1.79402
3.24691
13.9689
1.10673
1.10405
1.11221
1.1291
1.14813
1.16375
1.17324
1.17838
1.18156
1.1783
1.15974
1.14755
1.14777
1.15188
1.15954
1.18447
1.22162
1.2382
1.24383
1.24621
1.24167
1.22135
1.2066
1.20582
1.20965
1.2147
1.22576
1.25517
1.2834
1.29692
1.30197
1.30115
1.29562
1.28953
1.28124
1.27938
1.28424
1.29233
1.29961
1.30791
1.33067
1.34925
1.35744
1.36234
1.36896
1.37459
1.37498
1.36665
1.36217
1.36249
1.36435
1.36729
1.37481
1.40229
1.43085
1.44638
1.4566
1.46501
1.47193
1.46709
1.44807
1.43693
1.43342
1.43479
1.44121
1.45958
1.50468
1.5414
1.56006
1.57193
1.58224
1.58686
1.56525
1.53499
1.5229
1.52387
1.53037
1.54099
1.56663
1.61939
1.66365
1.68948
1.70689
1.71839
1.71777
1.69743
1.66891
1.65499
1.6579
1.67034
1.69833
1.74401
1.77984
1.8003
1.81014
1.81337
1.80458
3.24255
14.008
1.09336
1.09168
1.0985
1.12399
1.16295
1.18302
1.1897
1.19263
1.18891
1.1687
1.1461
1.14223
1.14544
1.15008
1.15906
1.19123
1.22742
1.24259
1.24912
1.25102
1.23695
1.2176
1.20915
1.2094
1.21492
1.22582
1.23892
1.25398
1.27543
1.28755
1.29124
1.29144
1.29498
1.29855
1.29573
1.2933
1.29544
1.2987
1.29953
1.30127
1.30764
1.33058
1.3525
1.36559
1.37496
1.38321
1.38922
1.38663
1.37316
1.36331
1.35762
1.35755
1.36252
1.37859
1.41785
1.44777
1.46287
1.47276
1.47995
1.48369
1.4673
1.44163
1.42948
1.42826
1.43403
1.44334
1.47113
1.5241
1.55953
1.57489
1.58455
1.59329
1.59284
1.56363
1.53364
1.5245
1.52742
1.5358
1.54845
1.57922
1.6319
1.67177
1.69401
1.7096
1.71861
1.71586
1.69592
1.66892
1.65671
1.659
1.67163
1.70408
1.74962
1.77862
1.79192
1.79606
1.80632
3.26702
14.0446
1.09041
1.09036
1.09701
1.12288
1.16954
1.18884
1.19509
1.19927
1.19223
1.16259
1.1469
1.14537
1.14837
1.15568
1.17387
1.20093
1.22577
1.23865
1.24143
1.23488
1.22978
1.22602
1.22197
1.22488
1.23231
1.24023
1.2446
1.24614
1.25153
1.26829
1.28247
1.29228
1.30113
1.30964
1.31575
1.31399
1.30651
1.30005
1.29341
1.29098
1.2944
1.30894
1.34325
1.36924
1.38367
1.39247
1.39878
1.40199
1.38843
1.3639
1.35136
1.35101
1.35634
1.36527
1.39642
1.44351
1.46792
1.47798
1.48551
1.4916
1.48659
1.45502
1.43179
1.42821
1.43238
1.43975
1.4513
1.48805
1.54135
1.56991
1.58216
1.59056
1.59759
1.59434
1.56404
1.53826
1.53273
1.53838
1.54833
1.56045
1.59024
1.63814
1.67201
1.69171
1.70632
1.7156
1.71449
1.69707
1.67137
1.65852
1.65974
1.67054
1.70282
1.74436
1.76806
1.77642
1.79585
3.32033
14.0855
1.09406
1.09413
1.10467
1.13752
1.17147
1.18902
1.19517
1.19211
1.17491
1.16129
1.15475
1.156
1.16337
1.17755
1.18898
1.19791
1.20939
1.21732
1.22034
1.22256
1.22935
1.23857
1.24582
1.24789
1.24743
1.2459
1.23883
1.23224
1.23354
1.24633
1.27415
1.29662
1.31246
1.32281
1.32931
1.33234
1.32076
1.29743
1.28381
1.28307
1.28749
1.29637
1.32792
1.37019
1.39029
1.39916
1.40512
1.40876
1.39955
1.36897
1.35177
1.35178
1.35709
1.36435
1.38016
1.42466
1.46452
1.47941
1.48586
1.4877
1.48881
1.47886
1.45088
1.43674
1.43782
1.44476
1.4532
1.46316
1.49787
1.54641
1.57265
1.58534
1.59455
1.60279
1.60057
1.57458
1.55144
1.54414
1.54609
1.55312
1.56474
1.59528
1.64036
1.67173
1.69118
1.70618
1.71733
1.71941
1.70097
1.67122
1.65447
1.6536
1.66237
1.69451
1.73425
1.75429
1.7782
3.38879
14.1303
1.10344
1.11027
1.12756
1.14787
1.16579
1.17559
1.17664
1.16975
1.16792
1.16873
1.17116
1.1782
1.18767
1.19427
1.19593
1.18829
1.18493
1.19197
1.20782
1.22505
1.24134
1.25558
1.26389
1.26818
1.26326
1.24384
1.22541
1.22168
1.22512
1.2335
1.26305
1.30246
1.32368
1.33238
1.33756
1.3404
1.33104
1.29846
1.28226
1.28332
1.28825
1.29545
1.3172
1.36488
1.39271
1.40192
1.40623
1.40589
1.40074
1.38324
1.36228
1.35866
1.36452
1.37394
1.38278
1.39853
1.43754
1.46654
1.47805
1.48485
1.49117
1.49688
1.48634
1.46121
1.44917
1.44825
1.45063
1.45512
1.46383
1.49724
1.5469
1.57621
1.59189
1.60372
1.61354
1.61353
1.58747
1.55964
1.54777
1.54843
1.55504
1.56714
1.60093
1.64506
1.67561
1.6966
1.71314
1.72288
1.72233
1.69918
1.66456
1.64467
1.64301
1.65128
1.6872
1.72456
1.75637
3.4594
14.1789
1.1198
1.1354
1.14155
1.14714
1.15199
1.1542
1.15489
1.15732
1.16621
1.18185
1.19496
1.20164
1.20402
1.20163
1.18565
1.17252
1.17183
1.17682
1.19672
1.2324
1.25792
1.26855
1.27392
1.27722
1.27038
1.23775
1.22001
1.22028
1.22451
1.23164
1.25802
1.3064
1.32861
1.33616
1.34044
1.33806
1.32251
1.30215
1.28848
1.28818
1.29394
1.30553
1.32177
1.34922
1.38071
1.39363
1.3973
1.39773
1.40088
1.40251
1.38982
1.37721
1.37586
1.37862
1.38109
1.38453
1.39693
1.43633
1.46884
1.48489
1.49606
1.506
1.51302
1.50142
1.47234
1.45516
1.44903
1.44808
1.4529
1.46298
1.49922
1.55408
1.58767
1.60358
1.61394
1.62159
1.61967
1.59414
1.56323
1.54939
1.55037
1.55829
1.57258
1.61068
1.65626
1.68555
1.70259
1.71524
1.72235
1.71857
1.69346
1.65647
1.63496
1.63195
1.64241
1.68069
1.72404
3.52088
14.2246
1.13774
1.14976
1.15006
1.13969
1.13365
1.13656
1.14584
1.1599
1.17944
1.19978
1.21053
1.2157
1.21438
1.19262
1.16995
1.16582
1.16914
1.17582
1.19827
1.24315
1.26658
1.2746
1.27927
1.27884
1.25706
1.23199
1.22316
1.22388
1.22815
1.24019
1.26915
1.30507
1.32713
1.33488
1.33288
1.32538
1.32157
1.31335
1.30516
1.30529
1.31185
1.31969
1.32386
1.32858
1.34877
1.37605
1.38953
1.39738
1.40606
1.41571
1.42073
1.40737
1.38917
1.38026
1.3741
1.37224
1.37736
1.39638
1.44324
1.48167
1.5023
1.51493
1.5233
1.52733
1.50783
1.47126
1.45103
1.44812
1.45245
1.45941
1.47051
1.50762
1.56279
1.59495
1.60969
1.61976
1.62601
1.62162
1.59483
1.56489
1.55306
1.55478
1.56294
1.58059
1.62216
1.66415
1.68804
1.70235
1.71314
1.71899
1.71329
1.68821
1.65042
1.62687
1.62235
1.63195
1.67975
3.55515
14.2647
1.14667
1.15195
1.13934
1.12537
1.12372
1.12757
1.14371
1.17583
1.20051
1.21072
1.21566
1.21921
1.20846
1.17856
1.16588
1.16703
1.17072
1.17859
1.21291
1.25274
1.26968
1.27693
1.2791
1.2654
1.24719
1.23514
1.23078
1.23465
1.2459
1.26014
1.27104
1.28948
1.30759
1.31526
1.31663
1.31958
1.32647
1.33296
1.33289
1.32607
1.32388
1.32229
1.3166
1.31311
1.3184
1.34601
1.38056
1.40185
1.41901
1.43015
1.43683
1.43449
1.40842
1.38017
1.36654
1.36572
1.3709
1.37823
1.40637
1.46526
1.50322
1.51718
1.52455
1.52957
1.5302
1.50679
1.47195
1.45623
1.45575
1.4611
1.46874
1.48032
1.51793
1.56882
1.59666
1.60979
1.61871
1.62404
1.62161
1.59999
1.57307
1.56064
1.56117
1.56778
1.58401
1.62458
1.66421
1.68666
1.70051
1.71102
1.71665
1.71147
1.68566
1.64604
1.61906
1.60492
1.62534
3.55049
14.3059
1.15172
1.13748
1.11987
1.11798
1.12151
1.12741
1.15274
1.19584
1.21353
1.21905
1.2203
1.21193
1.18856
1.17106
1.16785
1.16987
1.17549
1.1934
1.22478
1.254
1.26787
1.27073
1.26099
1.25273
1.25098
1.24773
1.24954
1.25649
1.26476
1.26954
1.26833
1.26624
1.27431
1.29594
1.3133
1.32735
1.34091
1.35191
1.35724
1.35024
1.33282
1.31482
1.30213
1.30081
1.30546
1.31864
1.36233
1.40827
1.42975
1.43967
1.4455
1.44775
1.43086
1.39022
1.36955
1.36812
1.3734
1.38272
1.39519
1.42551
1.47722
1.50599
1.51684
1.52292
1.52795
1.53032
1.51212
1.48229
1.46768
1.4669
1.47236
1.47919
1.48769
1.51841
1.56523
1.59311
1.60766
1.61821
1.62742
1.63103
1.61139
1.58011
1.5626
1.55972
1.56432
1.57965
1.62179
1.6631
1.68751
1.70262
1.71253
1.71604
1.70961
1.68244
1.64098
1.60276
1.57852
3.50717
14.3494
1.1474
1.11932
1.11161
1.11404
1.11884
1.13063
1.16976
1.2059
1.22015
1.22578
1.22432
1.20238
1.18268
1.17413
1.17414
1.1812
1.19711
1.21111
1.2215
1.2365
1.24694
1.24939
1.25028
1.25483
1.26191
1.27212
1.27767
1.27684
1.27293
1.26393
1.25183
1.24864
1.25377
1.2751
1.31323
1.34275
1.35954
1.36694
1.37102
1.36725
1.33946
1.30759
1.29682
1.29844
1.30333
1.31142
1.34072
1.4
1.43157
1.44133
1.44347
1.43894
1.43291
1.41677
1.39166
1.38261
1.38547
1.39218
1.39857
1.40432
1.42454
1.47
1.50151
1.51651
1.52567
1.53363
1.54024
1.52781
1.49884
1.48118
1.47543
1.47341
1.47611
1.48547
1.51923
1.56752
1.59809
1.61678
1.63001
1.63814
1.63858
1.61511
1.57898
1.55859
1.55541
1.56078
1.57663
1.62032
1.66456
1.69031
1.70421
1.71118
1.71176
1.70321
1.6752
1.6231
1.56375
3.42637
14.3979
1.13974
1.11569
1.11335
1.11636
1.12245
1.14278
1.17685
1.20575
1.21688
1.21712
1.20517
1.19652
1.19093
1.18881
1.19389
1.20377
1.2114
1.21472
1.21051
1.20697
1.21456
1.23357
1.2519
1.26957
1.28499
1.2935
1.29727
1.2931
1.2732
1.24712
1.23646
1.23786
1.24283
1.25733
1.30547
1.35007
1.36668
1.3739
1.37848
1.37438
1.34855
1.31379
1.30071
1.30229
1.31125
1.32703
1.34292
1.36916
1.40611
1.4238
1.42932
1.43214
1.43735
1.44269
1.43447
1.41276
1.40107
1.39839
1.3966
1.39364
1.39733
1.41637
1.4645
1.50451
1.5258
1.53942
1.54873
1.55415
1.54208
1.50771
1.48015
1.47098
1.47275
1.47865
1.48953
1.5277
1.57965
1.60968
1.62395
1.63341
1.63977
1.63884
1.61476
1.57781
1.55789
1.55423
1.55859
1.57504
1.62068
1.66646
1.69072
1.70121
1.70511
1.70307
1.69368
1.6585
1.59098
3.33537
14.4613
1.14087
1.12071
1.12057
1.12832
1.14169
1.15455
1.16785
1.18396
1.19381
1.19682
1.19915
1.20358
1.20944
1.21704
1.22091
1.22113
1.21723
1.20318
1.19058
1.1899
1.19575
1.21657
1.25659
1.28912
1.30369
1.30899
1.31026
1.30123
1.26946
1.24194
1.23601
1.23881
1.24408
1.25708
1.29248
1.34356
1.36648
1.37285
1.36812
1.35925
1.35384
1.33965
1.32541
1.32426
1.33051
1.33705
1.34013
1.34111
1.35382
1.38966
1.41737
1.43326
1.44821
1.46045
1.46679
1.45589
1.42693
1.40403
1.39023
1.3853
1.38827
1.39493
1.41742
1.47414
1.52131
1.5407
1.54951
1.55609
1.55839
1.54399
1.50717
1.48125
1.47534
1.47889
1.48633
1.50056
1.54134
1.58736
1.61139
1.62349
1.63216
1.63898
1.63861
1.61591
1.58079
1.56028
1.55571
1.55842
1.5728
1.61719
1.66172
1.68399
1.69267
1.69533
1.69478
1.68082
1.64121
3.27931
14.53
1.14964
1.14034
1.1416
1.14792
1.15368
1.15707
1.15409
1.15303
1.16414
1.18518
1.20428
1.22135
1.2329
1.23822
1.23969
1.23438
1.2132
1.18796
1.18027
1.18247
1.18751
1.20276
1.25389
1.29563
1.30934
1.31553
1.31785
1.30521
1.27443
1.24895
1.2428
1.2472
1.26117
1.27601
1.28721
1.31094
1.3389
1.35062
1.35408
1.35827
1.36383
1.37079
1.36791
1.35351
1.34393
1.33739
1.32662
1.32191
1.3261
1.34538
1.39282
1.43606
1.45989
1.47218
1.47927
1.48181
1.46278
1.41996
1.39273
1.38679
1.38993
1.39669
1.40789
1.43408
1.48819
1.52679
1.54188
1.54871
1.55112
1.5521
1.54399
1.51639
1.49432
1.48786
1.4897
1.49509
1.50568
1.5423
1.5867
1.61126
1.62343
1.63183
1.63974
1.64435
1.62661
1.58901
1.56244
1.55344
1.55354
1.5637
1.60727
1.65401
1.67743
1.68538
1.68794
1.68353
1.68213
3.27693
14.5949
1.16277
1.1682
1.16521
1.16238
1.15863
1.14782
1.13953
1.14035
1.14588
1.16727
1.2075
1.23584
1.24804
1.25261
1.25234
1.24007
1.21057
1.1879
1.1829
1.18513
1.19088
1.20723
1.24577
1.28959
1.30671
1.3102
1.30257
1.29602
1.28928
1.27525
1.26801
1.27042
1.27643
1.28066
1.27987
1.27873
1.29267
1.32491
1.3496
1.36727
1.38445
1.39407
1.39764
1.38577
1.35708
1.32987
1.31604
1.31475
1.31911
1.32587
1.35339
1.41974
1.46088
1.47394
1.47939
1.47915
1.47283
1.45225
1.41889
1.40281
1.40316
1.41115
1.42072
1.42704
1.43989
1.48076
1.51723
1.53403
1.54296
1.55136
1.55956
1.55924
1.53502
1.50759
1.49369
1.49002
1.49216
1.50106
1.53675
1.58315
1.61033
1.62689
1.64155
1.65064
1.65389
1.63473
1.59129
1.55729
1.54464
1.54504
1.55447
1.59883
1.64838
1.67224
1.6804
1.67642
1.69979
3.3204
14.6513
1.17384
1.18293
1.18334
1.1759
1.15755
1.14057
1.13647
1.13902
1.14306
1.15435
1.19891
1.2388
1.25161
1.25728
1.25895
1.24662
1.21749
1.19654
1.19282
1.19738
1.20784
1.21804
1.22953
1.25577
1.28132
1.2912
1.29532
1.30031
1.30548
1.30932
1.30281
1.2917
1.28294
1.27178
1.26236
1.26213
1.2677
1.29001
1.33763
1.37769
1.39684
1.40591
1.41096
1.41045
1.38233
1.33772
1.31898
1.31771
1.32278
1.33399
1.3512
1.38147
1.4294
1.45542
1.46365
1.46596
1.46847
1.47236
1.46698
1.44564
1.42967
1.42481
1.42269
1.41801
1.4189
1.43092
1.47249
1.51665
1.54128
1.55597
1.56714
1.57509
1.57432
1.54679
1.5105
1.48964
1.48469
1.48736
1.49607
1.53348
1.58846
1.62304
1.63822
1.64654
1.65268
1.6543
1.63444
1.5889
1.55277
1.53857
1.53769
1.54721
1.59329
1.6431
1.66599
1.6669
1.69987
3.3932
14.7064
1.17844
1.18892
1.19016
1.18431
1.16102
1.1427
1.13994
1.14268
1.14845
1.16062
1.18976
1.22887
1.24544
1.24937
1.24764
1.24556
1.23595
1.22016
1.21329
1.21464
1.21878
1.2216
1.21994
1.22301
1.24502
1.27776
1.29968
1.31478
1.32522
1.33035
1.32955
1.31343
1.28575
1.26407
1.25695
1.25869
1.26315
1.27182
1.30858
1.36985
1.39825
1.40694
1.40882
1.40283
1.39203
1.36789
1.34265
1.33603
1.34029
1.34839
1.3545
1.35848
1.3713
1.40947
1.44203
1.45858
1.47058
1.48475
1.49363
1.49225
1.46897
1.43972
1.41896
1.41012
1.40938
1.41407
1.42798
1.47637
1.5296
1.55705
1.56876
1.57627
1.58118
1.57765
1.54536
1.50473
1.486
1.48397
1.48878
1.4999
1.53917
1.59466
1.62578
1.6379
1.64444
1.64878
1.64959
1.63332
1.58987
1.55115
1.53469
1.53254
1.54235
1.5884
1.63356
1.64816
1.68725
3.48082
14.7596
1.18093
1.19332
1.19563
1.19018
1.16978
1.15265
1.14998
1.15334
1.15887
1.16419
1.17457
1.20257
1.22975
1.2408
1.24651
1.25133
1.25446
1.2484
1.23504
1.22657
1.22073
1.21317
1.21068
1.21322
1.22064
1.25113
1.29645
1.32266
1.33408
1.34016
1.3439
1.33698
1.30277
1.27051
1.26114
1.26326
1.27114
1.28372
1.2985
1.33163
1.37227
1.38971
1.39482
1.39739
1.40136
1.40259
1.38849
1.36794
1.35834
1.35575
1.35072
1.3434
1.34502
1.35709
1.39858
1.44685
1.47673
1.4918
1.50064
1.50675
1.50451
1.47347
1.43169
1.41122
1.40877
1.41351
1.42149
1.44046
1.49361
1.54203
1.56172
1.56975
1.57159
1.57149
1.56999
1.54843
1.51574
1.49861
1.49516
1.49758
1.50411
1.53544
1.58783
1.61931
1.6319
1.63939
1.64657
1.65121
1.63983
1.59612
1.55132
1.53045
1.52697
1.53304
1.57706
1.61265
1.66091
3.57129
14.8039
1.17917
1.19221
1.19524
1.19675
1.18517
1.16781
1.1614
1.16222
1.16457
1.16593
1.16841
1.17818
1.21001
1.23967
1.25355
1.26063
1.26549
1.26711
1.25682
1.23774
1.22135
1.21255
1.21139
1.21444
1.21928
1.23041
1.27198
1.31772
1.33444
1.33978
1.33839
1.33582
1.32743
1.30158
1.2831
1.2807
1.28487
1.28984
1.29353
1.29717
1.31985
1.36016
1.38571
1.40008
1.41355
1.42278
1.42588
1.41193
1.3843
1.36084
1.34598
1.34012
1.34154
1.34633
1.35765
1.40655
1.46556
1.49116
1.50017
1.50499
1.50442
1.49673
1.46786
1.43524
1.42311
1.42548
1.43341
1.44151
1.45273
1.49133
1.53182
1.55062
1.55907
1.5667
1.57644
1.58324
1.56791
1.53109
1.50476
1.49434
1.49288
1.49677
1.52392
1.57806
1.61484
1.63262
1.64408
1.65233
1.65603
1.64473
1.5998
1.54766
1.52036
1.515
1.52241
1.56006
1.62281
3.64661
14.8377
1.17615
1.19448
1.19827
1.20129
1.19967
1.18419
1.1707
1.1657
1.16446
1.16545
1.16829
1.17231
1.18534
1.22322
1.25371
1.26599
1.27128
1.27439
1.27518
1.26002
1.23303
1.21795
1.21657
1.22061
1.22557
1.22984
1.24125
1.28298
1.31875
1.33061
1.33574
1.34106
1.34498
1.34041
1.31779
1.29943
1.29262
1.28859
1.28344
1.283
1.28791
1.31072
1.36045
1.40057
1.42012
1.4299
1.43673
1.44023
1.42561
1.38592
1.35465
1.34368
1.34444
1.35009
1.36046
1.37784
1.42222
1.46773
1.48607
1.49171
1.49352
1.49689
1.49961
1.48599
1.45994
1.44456
1.43901
1.43476
1.43417
1.44318
1.47978
1.52615
1.55409
1.5723
1.58622
1.59444
1.5977
1.57983
1.53658
1.50108
1.48723
1.48714
1.49175
1.5168
1.57432
1.61826
1.63807
1.64723
1.65248
1.65352
1.64075
1.59717
1.5434
1.5117
1.50358
1.50718
1.57444
3.68751
14.8678
1.16807
1.1972
1.20191
1.20379
1.20676
1.20274
1.18547
1.17268
1.16796
1.16778
1.16959
1.17205
1.17589
1.19157
1.23474
1.263
1.27312
1.27902
1.28299
1.28321
1.26388
1.23618
1.22609
1.2258
1.22686
1.22914
1.23298
1.2443
1.28439
1.32263
1.34028
1.34842
1.35556
1.3603
1.35417
1.32844
1.30385
1.28938
1.28354
1.28339
1.28697
1.29259
1.31441
1.37127
1.41451
1.43033
1.43653
1.43782
1.43559
1.42332
1.39075
1.36596
1.35962
1.36265
1.36817
1.37297
1.38029
1.4134
1.45705
1.47935
1.49021
1.50212
1.51245
1.51757
1.5072
1.47587
1.44592
1.43026
1.42683
1.42902
1.43697
1.47493
1.53355
1.56954
1.58359
1.5911
1.59697
1.59949
1.5824
1.53545
1.49863
1.48646
1.48615
1.49144
1.51704
1.57457
1.61832
1.63619
1.64334
1.64663
1.64553
1.63347
1.59498
1.54265
1.50906
1.48632
1.51647
3.67058
14.9013
1.14852
1.19043
1.20258
1.20887
1.21281
1.21604
1.20949
1.18964
1.1765
1.17176
1.16999
1.17123
1.17461
1.17921
1.20073
1.24779
1.2739
1.28261
1.28731
1.29165
1.29067
1.26622
1.2384
1.22748
1.22693
1.22931
1.23274
1.23694
1.24695
1.28661
1.32989
1.35018
1.35915
1.36476
1.36876
1.36475
1.33722
1.30576
1.29072
1.28874
1.29249
1.29812
1.30407
1.322
1.3735
1.41263
1.42616
1.4317
1.43682
1.4417
1.43629
1.40973
1.38464
1.37382
1.37001
1.3669
1.36718
1.37358
1.40443
1.45577
1.48906
1.50513
1.51488
1.52192
1.5272
1.51801
1.47887
1.44237
1.42802
1.42708
1.43167
1.44191
1.4834
1.54173
1.57186
1.58298
1.58913
1.59351
1.5944
1.5806
1.54033
1.50602
1.4929
1.49177
1.49416
1.51297
1.56646
1.60934
1.62748
1.63531
1.63977
1.6402
1.63005
1.59517
1.54563
1.49611
1.47836
3.59993
14.9429
1.13165
1.16764
1.20157
1.21444
1.21963
1.22327
1.2253
1.21295
1.18786
1.17314
1.17011
1.17198
1.17564
1.18011
1.18565
1.21059
1.25712
1.28028
1.28818
1.29185
1.29484
1.29553
1.2735
1.24565
1.23481
1.2337
1.23489
1.2363
1.23919
1.24754
1.28638
1.33394
1.35537
1.36413
1.37031
1.37507
1.37225
1.34527
1.3136
1.29945
1.29787
1.29957
1.30228
1.30705
1.32139
1.36722
1.41068
1.43156
1.44073
1.44653
1.45225
1.45131
1.42765
1.3969
1.3771
1.36802
1.3671
1.37066
1.37722
1.40517
1.46133
1.49859
1.51363
1.52101
1.52568
1.5279
1.51953
1.48288
1.4482
1.43643
1.43755
1.4427
1.44969
1.48201
1.53559
1.56706
1.57969
1.58633
1.59242
1.59844
1.59205
1.55418
1.51376
1.49345
1.48844
1.48936
1.50296
1.55375
1.60113
1.62402
1.63351
1.63683
1.63584
1.62678
1.59679
1.53621
1.47672
3.49042
14.9963
1.12939
1.13994
1.17879
1.21087
1.22243
1.22746
1.2301
1.23172
1.21633
1.18904
1.17685
1.17678
1.18021
1.18321
1.18534
1.18966
1.2143
1.26036
1.28402
1.29368
1.30088
1.30607
1.30583
1.28361
1.25384
1.23977
1.23525
1.23444
1.23759
1.24201
1.25111
1.29097
1.34166
1.36454
1.37244
1.37656
1.37991
1.37967
1.35621
1.3221
1.30468
1.30102
1.30332
1.30734
1.31193
1.32137
1.36063
1.41048
1.43674
1.44722
1.45299
1.45786
1.45978
1.44273
1.40745
1.38141
1.37196
1.37208
1.37595
1.38204
1.40929
1.46587
1.50226
1.51525
1.52146
1.52737
1.53224
1.52661
1.49431
1.4608
1.44567
1.44136
1.44181
1.44623
1.47242
1.52696
1.5645
1.58253
1.59449
1.60323
1.6078
1.60051
1.56254
1.51652
1.49027
1.48256
1.48332
1.49461
1.54415
1.59612
1.6222
1.63171
1.63341
1.62977
1.62101
1.58428
1.51948
3.3849
15.0656
1.13001
1.13329
1.14462
1.18567
1.21737
1.22933
1.23656
1.24119
1.24274
1.22538
1.19704
1.18548
1.18317
1.18185
1.18334
1.18679
1.19207
1.21925
1.2691
1.29585
1.30532
1.31067
1.31499
1.31524
1.2917
1.25614
1.23941
1.23755
1.24078
1.24682
1.25278
1.25977
1.29218
1.34106
1.36472
1.37315
1.37779
1.38152
1.38473
1.37077
1.33887
1.31844
1.31221
1.31081
1.31103
1.3135
1.32019
1.35427
1.40866
1.43926
1.45069
1.45796
1.46394
1.46648
1.45211
1.41374
1.3846
1.37501
1.37613
1.38113
1.38727
1.41208
1.46697
1.50432
1.51964
1.52661
1.53107
1.53545
1.53487
1.51002
1.47274
1.44853
1.43992
1.44062
1.44597
1.46677
1.52024
1.5666
1.5893
1.59885
1.60452
1.6086
1.60554
1.57039
1.51815
1.48742
1.47798
1.47773
1.48748
1.53831
1.59571
1.62148
1.62712
1.62539
1.62167
1.6055
1.58121
3.33203
15.1402
1.12904
1.13178
1.13557
1.15074
1.19656
1.22959
1.24115
1.24659
1.25109
1.2527
1.23098
1.19814
1.18401
1.18259
1.18482
1.18853
1.19319
1.19877
1.22479
1.27438
1.29979
1.30824
1.3127
1.31616
1.31794
1.29993
1.26812
1.25304
1.25107
1.25293
1.25465
1.25577
1.25984
1.28549
1.33475
1.36358
1.37591
1.38671
1.39415
1.39822
1.38816
1.35567
1.32612
1.31232
1.30924
1.31078
1.31495
1.32215
1.35481
1.41446
1.44851
1.4593
1.46404
1.46687
1.46751
1.45716
1.4241
1.39588
1.38565
1.38634
1.39152
1.39705
1.4113
1.45668
1.497
1.51536
1.5252
1.53375
1.54158
1.54588
1.52718
1.48467
1.45401
1.44297
1.44067
1.44269
1.45914
1.5142
1.56604
1.58922
1.6005
1.60785
1.61035
1.60461
1.56834
1.51612
1.48522
1.47505
1.47416
1.48472
1.5357
1.59024
1.61256
1.61542
1.6144
1.60539
1.62213
3.34634
15.2081
1.1312
1.13337
1.13729
1.14285
1.16087
1.20679
1.23706
1.24741
1.25229
1.25436
1.2547
1.23542
1.204
1.19112
1.19065
1.19351
1.19632
1.19821
1.20216
1.22455
1.27338
1.30159
1.31248
1.32067
1.32664
1.32915
1.31421
1.28212
1.26104
1.25327
1.25084
1.25087
1.25411
1.25949
1.28324
1.33777
1.37689
1.39129
1.39793
1.40289
1.40723
1.40104
1.36435
1.32812
1.31346
1.31277
1.31729
1.32487
1.33435
1.36096
1.41337
1.4444
1.45459
1.459
1.46323
1.46939
1.46984
1.44504
1.41418
1.39933
1.3935
1.38796
1.3885
1.39989
1.44388
1.49357
1.52111
1.53636
1.54707
1.55311
1.55529
1.53626
1.48791
1.45057
1.43742
1.43743
1.4416
1.45736
1.51584
1.57233
1.59478
1.60091
1.60144
1.60081
1.59887
1.57384
1.52496
1.48963
1.4754
1.47223
1.47741
1.52492
1.57895
1.60099
1.60608
1.59713
1.64021
3.40884
15.2649
1.13807
1.13849
1.14253
1.14577
1.14943
1.16471
1.2096
1.24031
1.25123
1.25758
1.26273
1.26435
1.24566
1.21353
1.19867
1.19575
1.19464
1.19609
1.19971
1.20461
1.2258
1.2771
1.31205
1.3245
1.33034
1.33461
1.33805
1.32848
1.29454
1.26636
1.25527
1.25447
1.25765
1.26301
1.26887
1.28759
1.34085
1.3809
1.39537
1.40145
1.40354
1.40342
1.40073
1.37563
1.34376
1.32962
1.32863
1.33209
1.33533
1.33799
1.35323
1.3998