/*--------------------------------*- C++ -*----------------------------------*\
  =========                 |
  \\      /  F ield         | OpenFOAM: The Open Source CFD Toolbox
   \\    /   O peration     | Website:  https://openfoam.org
    \\  /    A nd           | Version:  12
     \\/     M anipulation  |
\*---------------------------------------------------------------------------*/
FoamFile
{
    format      ascii;
    class       volScalarField;
    location    "2.8";
    object      p;
}
// * * * * * * * * * * * * * * * * * * * * * * * * * * * * * * * * * * * * * //

dimensions      [1 -1 -2 0 0 0 0];

internalField   nonuniform List<scalar> 
46253
(
0.877611
1
1
1
1
1
0.822259
1.15983
1
1
0.878412
0.793608
1
1
1
1
1
1
1
1
1
1
1
0.847063
0.817694
1
1
1
1
1.16086
1.11184
1
1
1
1
1
1
1
1.07811
1
0.814494
0.793337
1
1
0.744607
1
1
1
1
0.999999
1.00001
1.00001
1
1.16267
1.00001
0.856424
0.999762
0.999812
1.25304
0.803635
1
0.913966
1
1
1
1
1
1
0.860094
0.747063
0.822448
1.00659
1.00198
0.939362
1
0.846699
1.36516
1.36236
1
1
1
1.18261
1
1.20528
0.820708
1
1.29326
1.29102
1.11978
1
1
0.8137
1
0.99997
1
0.999921
1
1
1.25034
1
1
1
1
1.10757
0.999998
0.814654
0.79621
1.24019
1.2377
0.814455
1.14224
1.12172
1.19296
1
1
1.11331
0.759333
0.805666
1.466
0.868921
1
1
1.36599
1.36062
1
1.46505
1
0.837529
0.997846
1.3425
1.2082
1.20617
1
0.82523
1.34048
1
1.32044
1.31768
0.865682
1
1.37378
1.1907
1.1884
1.09571
1.38267
1.00023
1.30166
1.29965
1.0747
1
0.812091
1
1.33223
1.32823
1.0572
0.749289
0.836862
1
1.27525
0.999999
1.27335
0.795713
0.853593
1
0.817674
1.30983
0.825553
1.30815
1.71509
1
1.26069
1.25887
1
0.813702
1
0.741638
1.1165
1
0.967322
0.76123
1
1.05559
1.2464
1.24478
1
1.28455
1.28111
0.743992
1
1
1
1
0.783808
1
1
1
1.13734
1
1.09558
1.09327
1
1
1.26802
1.26634
1
0.753769
1.05134
1.22566
1.22426
1
1
1.46539
0.810676
1
1.02872
1
1.09153
0.808121
1.21395
1
1
1.21242
0.738559
1.2535
1.2516
0.807609
1
1
1.07045
1.06752
1.18705
1
1
1
1
1
1
1
1.18352
1.20748
1
1
1
1
1
1
1
1.0485
1
1.1957
1.19444
1.20337
1.04514
1
1.04382
1.2329
1.23049
0.880455
0.811641
1
0.822717
0.814251
0.811833
1.09869
1.17078
1
1
1
1.21997
1.17826
1.21848
1
1
1
1.17676
1
1.00006
1
1.16457
0.899566
1.02199
1.01957
1
1
1
0.784507
0.800134
0.87043
1.08149
1
1.24185
1.23902
0.806873
1
1.23059
1.15227
1
1.14929
0.808816
1.16669
1.44742
1.16509
0.842475
1.44161
1
1.20194
1.20005
1
1.0979
1
1
1.14579
1
1.15515
1
1.15358
0.859145
1.22722
1
1.16994
0.839518
1
0.821742
0.818082
1.07299
1.07705
1
1
1.14373
1.14211
0.979582
0.979245
1
1
1
1.00984
0.877124
1.18417
1.18227
1
1
1
1
1.47761
1
1.13208
1.13061
1
0.867509
1
1.16238
1
0.755962
1
0.799034
1
1.17255
1
1.17121
1
0.8004
1
1
1
1
1
1
1
1.12125
1
1
1
1
1.11996
1
1.21881
0.863828
1
1
1
0.810157
1.05646
0.83989
1.16052
1.16981
1.15917
1
1
1.11037
1.50801
1
1.08493
1.10885
0.815299
1
1.15883
1.03409
1.03515
1
1.12022
1
0.932127
0.93184
1.21533
1
1.00004
1
1
1
1
1
1
1.40303
1
1.11141
1
0.768044
1
1
0.880755
1
1
1.09979
1
1.14907
1
1
1.09867
1.14777
1
1.12838
1
1
1
1
1.07318
1.15304
1
1
1.16018
0.842039
1
0.808282
1
1.07917
1.06129
1
1
0.869072
1
0.901616
1.12689
1
0.815787
1
1.18355
1.15998
1.00019
1.1376
0.976544
1
0.975345
0.977245
1.13602
1
0.974471
1
1
1
1
1
1.20653
1
1.15989
0.842609
1.0832
0.890099
1.04322
1.08199
1.16108
0.901874
0.901921
1
1
1
1
0.9978
1
0.906606
0.807352
0.773689
0.909204
1.07108
0.80832
1.07786
1
1
1.12603
1.10872
0.811354
1.12476
1.07491
1.07399
0.889986
0.813709
1
0.88901
1.10421
1
1
1
0.81147
1
1.17585
0.793301
1
1
1.0916
1
1
1.03931
0.721849
1.1132
1
1
1.11385
1
1.11125
1.12211
1.11182
1
1.12062
1.12789
1
0.976151
1.10523
1
1
1.1159
1
0.826917
0.885578
1
1
1.11426
1
1
1
1
0.766335
1
1
1.0592
0.892083
1.05849
0.803918
1
1
1
1
1
1
1
1.07109
0.776532
1
1
1
1
1
1
0.823943
1.08946
1
1.07497
1
1
0.840784
1
1
1
1.10412
1
1
1.10294
1.07127
1.13686
1
1.14052
1.14115
1.14499
1.14923
1
1.04951
1.04814
1.08396
1.1864
1
1
0.939172
1
1.44072
1.02103
1
1.44492
0.998292
1
1.09667
1.10553
1
1
1.14699
0.978382
1
1
1.0208
1
1
1.00087
1.00034
1.23723
1.21504
1.24971
1.24881
0.740853
1.07171
1.24203
1.01331
1.24398
1.23328
1
0.826376
0.858838
1.23508
1
1.2221
1
1.22408
1
1.08466
1.21096
1
1.21282
1.34176
1
1.19949
1
1.20135
1
0.770633
1
0.895563
0.854864
1
1
1.18876
1.1908
1
1.1079
1.1775
1.17923
1.01889
1
1
1.16034
1.03465
1.16244
1
1.08927
1.15035
0.848479
1.15146
1.03318
1.0871
1
1
1
1.13871
1.14013
1.17848
1
1
1.1291
0.915708
1.13013
0.841027
1
1.1147
1.1162
1
1
1
0.928301
1
1.10593
1.02028
1.11553
1
1.10063
1
1.10197
1
1
1.10911
1.10979
1.09048
1.09104
1.07509
1.11694
1.08014
1.12119
1.08184
1
1.03599
1.06566
1.06748
1
0.874977
1.0569
1.0578
1.63532
1
1
1
1.04703
1.06235
1.04739
0.723429
1.17127
0.978232
0.813586
1.03708
1.03942
1.01881
1.03134
1.03091
0.868168
0.863082
1
1.15038
1.46415
1.02549
1
0.822099
1.02444
0.851668
1.17516
0.832742
1
1
1
1.07839
1
1
1
1
1
1.07832
1
1
1
0.883696
0.87693
1
1.02942
0.741851
0.871547
1
1
1
1
1
1.05454
1
1.07918
1
1.13258
1.03168
1.13635
0.85852
1
0.812141
0.811117
1.14527
1
1
1
1
1
1.13954
1.13544
1.05475
0.835536
0.835471
1
0.896199
1
1
1.13915
1.01747
1.0001
1.15207
0.996778
0.999998
1.03443
1.04157
1
1.14236
0.839438
0.970684
1
1.07826
1.0108
1
1
0.975378
1.09096
1
1.00989
0.728698
1
1
1.17216
1.17397
1.07011
1
0.72994
0.731771
0.808632
0.999103
1
1.10831
1.16101
0.84249
1.33302
1
1
1
1.12427
1.12583
1
0.999323
1
1.06362
1.10908
1
0.998751
1.11075
1.06232
1.07236
1.06732
1
1.07639
1.12104
0.822144
1.07364
0.839743
1.07636
1
1
1.07696
1
1
1.08429
1.07553
1
1.00205
0.877831
1.10767
0.868406
0.874917
1.00048
0.866707
0.862731
0.836812
0.834162
1
1
1.19097
1
1
0.98242
0.893579
0.877121
1
1
1.12605
1
1.11039
1.12339
1.01085
1.2305
1.19687
0.99989
1
0.999986
1
1.07725
1.11633
1.19307
0.731999
1
1.05493
1
1.00096
1.00059
1.05337
1
0.994503
0.98333
0.9931
1
1
1
1
0.98345
1.11021
1
1.01426
1
0.864497
1
0.8647
0.862427
0.824169
1
0.993594
0.992853
0.808075
1.39261
1
0.87544
1.07847
1.07499
0.875832
1
1
0.971232
0.720086
1
1
1.11246
0.762907
1.14266
0.978999
1
1
1
1
1
1
1.51346
1
0.873657
0.861712
0.856154
1.20048
0.739484
0.724986
0.736953
0.878479
1.19422
0.864548
0.727424
1.20493
1.21662
1.22763
1.19425
1.20723
1
1.11519
1.21851
1.23812
1.19614
1.06852
1.22959
1.15875
1.18269
1.23921
1
1.2485
1.18496
1.25038
1
1.16652
1.2471
1.26489
1.2686
1.16845
0.98879
1.26576
1.15522
0.995065
1
0.99997
1.15662
1
1.1444
0.999996
1
1
0.983195
1.14645
1
1
1
1.13369
1.14603
1
1
1
1.1352
0.982119
0.747237
1.1195
1
0.957687
1.12063
1.10514
1.10574
0.859396
1.09424
1.09614
1.08599
1
0.847828
1.08729
1
1.07195
0.824242
1
1
1.07299
0.901652
0.744577
1.06122
1.06199
1.05096
1.04048
1.05256
0.734768
1.04338
1
1.01515
1.03897
1.04417
1.02097
0.999996
1.07925
1.03307
1.00759
1.00917
0.822661
1.03348
1.02549
1.02803
0.873555
0.750544
0.733457
1
0.753217
1
0.749644
0.75859
0.756377
1
1.46066
1.18319
1
0.986799
0.977366
1.08297
1.08981
1
1.17113
1.14405
1.15305
1.17495
1.14089
1.13729
1.14641
1.14013
1.13607
1.15215
0.865669
1.11731
0.975055
1
0.964811
0.884012
0.849212
1.0066
1
1.19932
1.13792
0.791078
1
0.970564
0.815874
0.976051
0.9684
1
1.13113
1
0.924764
1.00608
1.19932
1.13432
1.01934
1.02753
0.79264
1.02907
0.981917
1.02832
1.01346
0.808552
0.792475
0.870989
0.772236
0.963587
1.15005
1.01694
1
1.14953
1.23114
0.930319
0.994574
1
1
1
1.10062
0.997722
1
1
0.746559
1.00009
0.837935
1
0.818086
1
1.09736
0.934506
1
1
0.724515
0.844287
1.26462
0.850883
1.11946
1.12103
1.00002
1.15525
1.11041
1
0.964598
1
1.01368
0.962098
0.986122
0.890482
1
1
0.963171
0.977341
1.00403
0.977701
1.1066
1.10846
1
0.961605
1.00452
1.07177
1.07671
0.836273
1.01904
1
0.937811
0.83888
0.997687
0.817863
0.997851
1.13868
1
1
1
0.891694
0.986169
1
1.06591
0.988488
1.17473
1.17434
0.874518
1.06503
0.72212
0.822333
1.19176
1
1
0.948202
1.20859
1
1
1
0.981889
1
0.981372
0.762692
1.13978
0.979611
1
1
0.978947
1
1.30569
1.07743
1.28488
1.31183
1
0.795479
1.28575
1.08628
0.980748
1.18816
1
0.817051
1.25939
1.22426
0.951263
1
1.17756
1.26312
1.24164
0.999993
1.10951
0.730969
0.999996
1
0.87657
1.24464
1
1.20471
0.971912
1
1
0.812757
1.2221
0.95308
1.19542
1.24411
1.01526
0.833505
0.996584
1.22067
1.22535
1.18964
0.951557
1
0.961594
1.01338
0.953851
1.13596
1
1.20265
1
1
1
1.20149
1
1
0.913717
1.04336
1
0.918377
1.20497
1.11898
0.99748
1
1.18277
1
1.11315
1
1
1
1
1
1.13338
1
1
1
1
1
1
0.920672
0.723786
1
0.998729
1
1
1
1.09216
0.900589
0.770073
1
0.762649
0.9737
1
1
1
1.05012
1
1.14385
1
1.23665
0.86554
0.795046
1
0.999977
1
1
1
1
1.26476
1.25828
1.10851
1.23315
1
1
1.06967
1.03908
0.871783
1.19612
1
1.19827
1.13115
1
1.18945
1
0.948537
0.952338
0.878822
1.18591
0.869377
0.937244
1
1.19061
0.958771
0.960526
1.13519
1.14029
0.818533
1.1412
1.13262
1.01215
1.13678
1.13766
0.944789
1.17424
1.17647
1.15085
1.2974
1.13671
1.16933
1.17821
1.13874
0.944243
1.14245
1
0.966459
1.14166
1.17058
1.28444
0.869261
1.11779
1.14014
1.15489
1.00717
1.16203
0.807423
1.16358
0.901719
1
0.959617
0.843259
1.00662
1.09841
1.15603
1.14324
1.20099
1
1.19418
1.21762
1
1
0.734157
1
1
1.19532
0.83498
1
1.14396
1.13661
1.14516
1
0.858357
1.01542
1.13923
1.13827
0.799598
1.13824
1.19892
0.94958
1.18952
0.849824
1.19658
1.12933
1.16841
1.12915
1.26764
1
0.901467
1
1.14692
1
0.740166
1.0252
1.2801
1.14387
1.20201
1.14742
1.10711
1.22007
1.13119
1.13203
0.882832
1.19623
1
1.23988
1.24451
1
0.998727
1
1
1
1
1
0.911487
1
0.93551
0.743649
0.858307
1.21149
0.744191
0.856055
1.22339
0.835866
1
0.735646
0.934301
0.940288
1
1.10094
0.964645
1
1
1.25333
0.736871
0.883783
0.879127
0.968242
1
1
0.724523
0.994371
0.979945
1.18504
0.730271
1
1
1
1.29735
1
1.20872
1.21048
1.06901
0.745829
1.18553
1.19493
1
1.07384
1.19723
1.28407
0.955665
1
1.24735
1
1
0.956187
1.18696
1.20562
1.22795
0.74572
1.24125
1.25218
1.1804
1
1
1.12497
1.01175
1
0.996678
1
0.772172
1
1
1.1567
0.742343
1
1.16697
0.770377
1.16913
1
1
0.995952
1.19495
0.739962
0.863308
0.765119
0.960406
0.933517
0.952293
0.74482
1.11604
0.966437
0.968773
1
1.15875
0.750676
0.738971
0.958352
1.1699
1.16666
0.903314
1
1
0.968262
0.965925
0.822409
1
1.12897
0.848413
1.14039
1.13338
1.14249
0.952761
1.12998
1.18413
0.720621
1.18533
0.735932
0.938743
1.13057
0.956129
1.06131
0.73955
0.902349
1.13125
1
0.911465
1.21374
0.84245
1.26395
0.875841
1.1026
1.1482
1.26382
0.746339
1.11138
0.968025
1
1.14594
1.11284
1.18936
1.21376
1
0.980408
1
1.19398
0.899811
1.01589
0.813134
0.744824
1
0.742491
0.793055
1.10633
1
0.753945
1.07017
1.04162
1.15145
1.07578
0.752665
0.897895
0.958835
1.03773
1.15278
0.76175
1.07721
1.08587
1
1.08808
1
1.06192
1.25047
1.07858
0.848688
1.22174
1.06167
1
0.747614
1.20914
1.02223
1
0.827799
1.13548
1.16485
1.45985
1.22467
1
1.05059
1.27337
1.06274
1
1.25422
1.06305
1
1.16268
1.26106
1.19286
1.33178
1.23307
1.05479
0.920548
1
1
1.2364
0.769754
1
0.784822
1.0961
1.16545
1.17313
0.787869
1.22895
0.922861
1
0.794626
1.30644
1
1
1.19026
1.30329
0.7849
0.921422
1.04029
0.79832
0.793562
1.02302
0.919222
1.04292
1.02899
0.997987
1.22254
0.959615
1.02929
1.11944
0.920362
1.0563
1.05501
1.20257
1.17189
0.78208
1
1.01595
1.31058
1.01794
1.19341
1.30649
0.861119
1
1.0211
0.991761
1.17964
0.880123
1
1
0.950074
0.948181
0.913762
1.10381
1
1
1.11089
0.914511
0.9893
1
1
1.05544
1.00356
1.00595
1.26199
1.09364
0.800773
1.0272
0.995022
1
0.799655
0.986849
0.835196
0.787508
0.950498
1.13556
1.38094
1.17974
1.07961
1.18652
0.947751
1.1858
1.18196
0.823879
1.07536
1.17481
1
1.09867
1
1
0.942694
0.933882
0.954329
0.935455
1.2622
1.02281
1
1
0.950606
1.15102
0.815416
0.83929
0.962884
0.812786
1.16352
1.04178
1.15298
0.817907
0.777989
0.962413
1.31559
0.85496
1
0.999131
0.963918
0.816223
1.31249
0.977894
1.07396
1
1
1.07427
0.982852
1.27284
1
1
0.980688
1
1.12327
0.840283
0.821122
0.886512
0.96648
1.12554
0.934461
1
0.820514
0.893147
1
0.838487
0.724522
0.935594
1.07513
1.09172
1
1
0.966552
0.937143
1.16074
0.824946
0.824544
1.30735
0.884874
1
1
1.09514
1
1
0.813683
0.97424
1.21784
1.09772
1
0.725311
0.819116
0.903619
1.19105
0.899066
1.21678
0.948139
0.999449
1
1
0.87379
0.933099
0.953919
0.899346
1
1
0.737682
0.898057
0.855547
0.836225
1.07035
1.05148
0.967374
1
1.17261
1
1.07389
1
1.21159
1
0.822178
1
1.09044
1
1
1
1
1
1
0.999103
1.19284
1
1.21774
1.1809
1
1.19679
1.30025
1
1.0174
1.05251
1.15812
1
1
0.916384
0.846498
0.910439
0.987785
1.18239
1.174
1.01495
1.17329
0.953511
1
1
1
1
1.01919
1.04505
1.16573
1.03372
1.02303
0.906321
1.04595
0.916038
0.912052
0.997226
1.14086
0.820597
1.15957
1.08173
1.16698
1.08757
1
0.999879
0.81746
1.12773
1
1
0.970433
0.817649
0.924465
0.999749
0.820186
1.14761
1
0.884654
1
1.03424
0.819771
0.823001
1.1441
0.874495
0.92062
1.06105
1.14195
1.10423
1.14915
1.05716
1
1.14107
1.11084
0.877847
1.28903
1.25345
1.0319
1
1
1.07309
1.13207
1.15147
1.22787
1.30673
1.01779
0.835364
0.946294
1
1.14887
0.958378
1
1.13393
0.968381
0.833849
1.24297
1.16691
1.02427
1.04786
1.24909
1.04285
0.975141
1
0.987587
0.985011
1.25052
1.04046
1
0.988908
1.05823
1.11477
1.02202
1.23032
1.11993
0.970228
1
0.852015
1
0.971245
0.823846
1
1
1.30301
0.816537
1.18421
0.824881
1
1
1.18989
0.95991
1.02022
0.827612
1
0.893981
1
0.957475
1.27742
0.801352
1.07127
0.816659
0.986494
1
1.20174
1.19312
1.02986
0.947397
0.955573
1.04571
1.05353
0.983254
1
1.21377
1.00394
1.27362
1
1.20491
1.19147
1
1.03119
0.839506
1.00041
0.768349
1.21604
0.723921
1.02165
1.04902
1.16203
1
1.17266
1.01818
0.768095
1.41954
0.772187
1
1
1
0.995275
0.846634
1.17541
1.11504
1.16383
0.96838
1
1
1.31565
1.16183
1.13377
0.906277
1
1.07953
1
1.10033
1.0842
1.0759
1.14599
1.29121
1.07356
1.01741
1.03776
1.14761
1.13658
1.01937
0.99968
0.863914
0.718872
1.05208
0.999048
1.10928
0.922194
1
1
1.02047
1
1
0.98506
0.86968
1.09475
1.11655
1.16964
0.997446
1.2918
1
1.03014
0.995005
0.918547
0.903276
0.915494
1.11928
0.827633
0.779621
1.10978
0.871496
1.18056
0.846961
0.932946
1.13226
0.844411
1.08087
1.18231
1.11142
1.07573
0.797849
1.091
1
1
1.06679
1
1.08698
1
1.10742
1.09266
1.08247
1.08307
1.06204
1.17141
0.846432
1
1.19545
0.928605
0.947218
0.986608
1.17267
1.2012
1.00474
1.05923
1
1.09195
1.06517
1.01309
1.03922
1.12256
0.904737
0.858128
1.16454
0.797081
0.972707
1.12005
1.06713
0.96671
0.950443
1.06088
0.986764
1
1.16633
1.02616
0.976886
0.939346
1.03533
1.00741
1.02504
0.903893
0.843032
1.07166
1.04968
0.931283
1
1.12548
1.08841
0.948795
1.10614
0.957661
1.15771
1
1.04554
1.03185
1
1
1
1
1.1573
1.20626
1.02549
1.20434
0.935595
1
1.04384
0.976
1.11505
1.05428
1.03443
1.06832
1.06858
1.10303
0.927849
1
1
0.979029
1.15473
1
1
0.96346
1.12767
1.02706
1.34439
1.0651
1.11954
1
1.04179
0.977225
1.04291
1.13602
1.14558
1.0658
1
1.01366
0.913869
1
1.28653
0.973206
1.14027
0.96914
1.14224
1.015
0.908169
0.795701
1.22777
0.799082
1.16394
1.14878
1
1.04677
1.1188
1.15934
1.06413
1
1
1.04936
1.00097
0.911233
0.792607
0.958949
1
1.30613
0.953229
1.18227
0.878512
0.998741
1.17195
1.17664
1.09526
0.797142
1.30581
1.16734
0.878124
0.986412
0.972461
0.912804
1.24082
0.980924
0.822217
0.97284
1
0.989678
1.06241
1.04913
0.918853
0.954887
1.19091
1.31395
0.905631
1.0574
1.03061
1.05844
0.879366
1.17568
0.937443
1.18824
0.95289
0.935569
1.02152
0.925766
1.03467
1.05989
0.965431
1.05701
1.18558
0.934117
1.06855
0.929795
0.860443
0.939786
1.06738
0.949028
1.2549
1
1.06074
1
0.917728
1.25753
1
1
0.914286
1.2008
1
0.964018
1.04055
1.31261
0.971275
1
0.794528
1
0.926475
0.949252
1.23386
0.943692
1.04233
1.23676
1.04313
1.02273
1.02462
1
0.807736
1
1.22051
1.03046
1.2053
1.0005
0.916321
1.19058
1.22412
1.19091
1
0.919724
0.785615
1.20804
1.07044
1.20689
1.11674
0.992473
1.21073
1.01277
1.10258
1.03939
0.917702
1
0.955767
1.30666
0.934114
0.79402
0.999998
1.19448
0.870975
0.938366
0.759075
0.984026
1.19775
1.04412
1.09983
1
1.03102
1.03179
1.17723
1.20645
1
1.18253
1.04163
0.956654
1.20144
1
1.17856
1.18499
1.03012
0.961717
1.21346
1
1
1.20983
1.17014
1.22098
0.820614
1.21643
1.17252
1
0.928438
1.04918
1.08949
1.15948
0.96914
0.851218
0.847413
1.24067
1.16316
1.19842
1.03807
1
1
1
0.956431
1.1484
1
1.01332
0.822154
1.22491
1.08819
1.02122
1.10402
0.927431
1.14988
1.03555
1.00757
1.16062
0.720988
1.01292
1.1268
1
0.79584
1.13873
0.945122
0.848091
1.13306
1.1284
1.22934
1.01095
1.24559
1.24086
1
0.922928
0.748317
1.13788
1
1
1.03316
1
1.2371
0.861316
1.14119
0.957217
1
1.15425
1.03247
1.03027
1.32838
1.04118
0.844591
1.12685
0.950568
0.963573
1.23243
1
0.94381
0.969358
1.03895
1.33754
1.128
1
0.935991
0.806937
1.01822
1.24978
1.05299
1.04354
1.25453
1.01733
1
1.02621
1.05726
0.858095
1.53169
1.21922
1.31064
1.11645
1.04896
0.756561
1.19046
1
1
1.04327
1.0509
1.11969
0.962441
0.958342
1.06524
1.04671
1.29204
0.959709
1
0.725216
1
0.790061
1.0649
1.1069
1.10791
0.922738
1
1
1.25904
1.28119
1
1
1.0819
0.903822
1.05459
1.26852
1.07844
1.0605
1.08967
1.09
1.1309
0.962792
1
1.06059
1.09175
0.939098
0.96397
0.863907
1.0873
1.01994
1
1.13576
1
1
1.32006
0.961964
0.980439
1.24891
1.08098
1.311
0.961942
1
1
1.08445
1.33121
0.943551
0.817499
1.10438
1
1.25152
1.07804
1.10167
1
1
1
1
1.1179
1
0.965043
1.06496
0.913426
1.14691
1.06753
1
1.11498
1
1
1
1.12714
1.05438
1.0569
1
1.10753
1.1239
0.880055
1
1
0.861869
0.964655
1
0.891952
1.13731
1
1
1
1
1
1.03833
1
0.960508
1.13519
1
1.1665
1.01448
1
1.03983
0.775771
1
0.878347
1.12144
1
1
1.16388
1.18131
1
1
1
0.86293
0.861704
0.955576
1.15675
0.82534
1.16653
1
1
0.879757
1.16348
1
0.862185
1.15349
1
0.96932
1
1.18255
0.99996
0.964807
1
0.84682
1
1
0.893929
0.779071
1.16107
1.00006
1
1.17998
1
0.95854
0.890351
1.17294
0.791813
1
0.749141
1
0.863945
0.908771
0.953135
0.962322
1.19613
1.13587
1.16927
0.981323
0.987708
0.892257
0.99998
1.00737
0.978909
1
1
0.869606
0.869297
1.05795
0.74735
1.19083
1.17611
1.20178
1
1.18634
1.31336
0.904036
1.19929
1.16875
0.909329
0.994858
0.908034
0.887018
1.18653
1.17717
0.894857
1.19555
0.99045
1.07111
1.07184
0.849779
1.03845
1.15935
0.898539
0.857674
1
1.10173
1
1
0.807774
1.08902
1.17004
1.04123
1
1
1.036
1.03103
1
1.24103
1
1.21211
1.1044
1
0.703158
1
1.08587
1
1.00524
0.866982
1
1.16216
0.816542
1.20994
1
0.786331
1
0.72124
1.00511
1.00039
1.09617
1.0002
0.758442
1.22356
1.07371
0.882666
1.21526
1.31094
1.16531
1.01897
1.09371
1.22916
0.772139
1.07646
1.13032
0.889324
1
1.17084
1
1.30722
0.962486
1.10418
1.1032
0.758198
0.992809
1.02632
1
1.03748
1.12013
0.974986
0.979211
0.922537
1.31938
1.02458
0.913081
1
1.04872
1.10212
1
1
1
1.1015
0.914963
1.09284
1.05165
1.00614
1
1.11237
1.30154
1.06174
1.11172
1.0378
1
1.31249
0.770161
1.10927
1.26155
1.0376
1.05853
1.00001
1
0.914711
1.1095
0.955073
1.28751
1.2409
0.971256
0.972695
0.970761
1.3708
1.26526
0.972785
0.859159
1
1.05154
1.1198
1.06109
1
1.1223
1
1.2152
1.04677
0.912817
1.23534
1.22825
1.09725
0.930025
1.04552
1.07406
1.19475
1
1.10554
0.957043
0.90839
1.07572
1.11984
1
1.24479
1.11706
1.21397
0.957298
0.953341
1
1.25322
1.07052
1.34171
1
1.18067
0.885812
1.10824
1.2184
0.928108
1.2307
1.20154
1.05241
1.19832
1.23806
1.00352
1.12673
1.15831
1
1.03762
1.08061
1.21669
1.18812
1.17025
0.882589
1.27481
1.13441
1.25557
1.05001
1.04325
1.13552
1
1.12484
1.20461
1.07843
1.17555
1
1.13181
0.956189
1
1.34976
1.19091
1.16629
1.09
1
1.27983
0.948768
1
1.17907
1.14318
1.1525
1
1
1.08769
1.16788
1
1.14127
1
1.14447
1.13333
0.884858
1
1.15535
1
1.13095
0.792989
0.999994
1.05026
1.15082
1.14639
1.12295
1
1
1
1.10308
1.14773
0.946722
1.13368
1.05932
1.11043
1.14822
0.855636
1.01786
1.17852
0.999998
1
1.03315
1.03288
1.01814
1
1.10047
1.18237
1
1.12498
0.939125
0.903446
0.94016
1.15954
0.999446
1.09492
1.14565
1.12113
0.944672
1.11284
1.19381
1.18999
0.899815
1.02018
1.11152
1
1.34161
1.15749
0.962158
1.087
1.24986
0.765973
1.01866
0.961864
0.915051
1
1.09784
1.1559
1.17735
1.10794
1.15918
1
0.766729
1.06986
1.08301
1.16646
1.08764
1
1
1.15317
1.05945
1.1732
1
0.83578
1
1
0.8492
1.16422
1
1.07111
1.22358
1.0968
1
0.92397
1.08756
1.16483
1.04264
1
1.06147
0.829
0.962064
0.797698
1.20978
0.95658
1.12536
1
1.17512
1.20311
0.818872
1
1
1.03141
0.831119
1.04512
1.21233
1.12229
1.1627
1.17281
1
0.963036
1.19822
1
0.79993
1.03555
1.01782
0.900109
0.82064
1
0.949546
1
1.1734
1.02603
1
1
1.03571
1.07429
1.09864
1.05852
0.790841
1
1
0.934107
0.813919
1.13919
1.08059
1.10218
0.884946
1.17064
0.806749
1.18678
1
1.13649
1
1.18418
1
1
0.810373
1
1.18092
0.992594
1
0.710808
1.14904
1.03395
0.884003
1.02084
1.02765
1
0.879896
1.16005
1
1.17885
1
0.99972
1.05468
1.14611
0.945736
1.1288
1
0.864689
1.04583
1.41792
1.2097
0.829327
1
0.947013
0.830604
1.20018
0.9433
1
1
0.972024
0.956536
1
0.741651
0.966558
1.15648
0.964496
1.18872
0.792262
1.19614
0.975222
1.01259
1.06962
1.00511
1.00685
0.959144
1.15436
1.06264
0.950732
0.935523
0.996984
1
1.187
1.00828
1
1
0.892337
1
1.21009
1.07165
1.06457
1
1.16689
1.20167
1.0716
0.952936
0.852709
1
1.19703
1.06899
1.30239
0.771739
1.16428
1.07436
1.08397
0.930024
1.08138
0.858678
0.790694
0.79211
0.957253
0.794648
1.19502
1.18521
1
1.02499
1
0.859825
0.875897
1.25888
1.24417
1
1.13885
0.825726
0.955162
0.802225
1.1754
1.1072
0.795005
1
1.05517
0.962408
1.21843
1.13251
1.05223
1.00029
1
1
1
1.06487
1.07486
1.17267
0.845547
1.1368
0.868575
1.01151
0.911853
1.24734
1.07945
1.26152
1.05045
1.03938
0.957062
1
1
0.786323
1
1.06525
0.914251
0.883208
1.0786
1.05379
0.970051
1.06071
1
1.06452
1
1
0.917662
1.18536
1.06248
1.2225
0.937785
1.06309
0.949365
1.33347
0.932632
0.87573
1.03417
1
0.960527
1.18265
1.02754
1.05057
1.08942
1.0414
0.80402
1.0452
1
1.06951
1.08307
0.894514
1
1.09008
0.922295
1.01258
0.95597
1
0.750214
0.797734
1.05668
1
0.962184
1
1
1.03113
1
1
1.08167
1.14377
0.861051
0.95011
0.889227
1.08631
1.05824
1.19518
1
1
0.87063
0.907047
1.0543
1.01878
1.09873
1
1.06727
0.794855
1.0437
0.952585
0.896665
0.790445
1
1.13725
1.08357
1.07056
1.19257
0.994782
1
1
1.3116
1.06005
1.19724
1.06677
1.09767
1.09291
1.01473
0.997116
1
1.06888
1.0545
1.19462
1
1.04186
0.919594
0.779592
1
0.993501
1.10287
0.845896
0.956482
0.846468
1.09625
1.17858
1
1.14003
1.06255
1.00037
1.05452
1.02973
0.821817
0.788019
1.06557
1.09089
1.05464
0.906679
1.09692
1
1.11151
1
0.853383
1
0.996081
1.10063
0.791538
1
1.03484
1.20491
0.956244
1
1.17495
0.942909
1
0.953257
0.904017
1.09302
0.946015
1.10797
0.947757
0.775009
1.20256
1.05744
1.06898
0.832961
0.93756
1
1.10576
0.952129
0.963911
0.96119
0.956557
1
0.792504
1.11301
0.943971
1
1.07345
0.91729
1
1.06066
1.0403
1.11734
1.08957
0.938232
0.915388
0.945211
0.956148
1.08782
0.999995
0.93083
1.14191
1.06272
0.977687
0.86999
1
0.916385
1.02919
1
1.06567
1
0.893911
1.0072
1
1.11432
1.08514
1
1.03509
1
0.961675
0.898793
1.13894
1.12645
1
0.789859
1
1.15944
1.36386
1.04294
1
1.06717
1.19631
1.08959
1.11973
1.01546
0.893309
0.947462
1.01563
1
1.26952
0.929203
1
0.905077
1.13064
0.88352
1.0437
1.24227
0.78989
1.21781
0.921255
1
1.12266
1.20255
1.15739
1.07785
0.972738
1
1.17685
0.999998
0.929067
1
1.21589
1.0904
0.89807
1.00005
1.09914
1.12776
1.19886
1
1.175
1.35792
1.20467
1.05103
0.85668
1.17464
0.94042
1.0763
1.25084
1
1
0.944682
0.987057
1.16017
1.0373
1.19276
0.949371
0.902325
1.17827
0.881556
1
0.928414
0.923272
1.20599
1
0.939142
0.858931
0.782442
1.07729
1.20924
1
1
0.963802
0.822687
1.16215
0.775974
1.13742
1.04874
1.16801
0.784798
1.30074
0.938663
1.21755
1.25152
0.818719
0.920223
1
0.926038
1.33431
1.20322
1
0.926941
0.98243
0.758942
1.17213
1.12376
1.13942
1.05254
1.02207
0.884265
1.06729
1.23402
0.950799
1.10798
1.09969
0.961726
1.11525
1.09241
1.1239
1
0.932495
1.08279
1.18996
1
0.93627
1.06938
1.06199
1.22638
1.06506
1.14337
0.792689
1.07426
1.05412
1
1.07807
1.1312
1
1.15152
1.06712
0.933264
0.970116
1.06388
1
0.968676
0.927078
1.08905
1.07894
0.99869
1.11377
1.16118
1.06448
1.06128
1
1.27289
0.926288
0.951679
1.06625
1.00393
1.09237
1.16857
1.33048
1
1.06371
1.17931
1.10568
1
1.09734
1.11293
0.955083
1.09005
1
1.08096
1.12164
1.06637
1
1.16729
1.00211
1.11592
1.1284
1.06499
1.14215
0.793636
1.10937
1.17736
1
1
1.22684
1.19818
1.14046
0.936637
1.12411
0.922087
0.88562
1.01887
0.996043
1.00328
0.885782
0.958767
1.09373
1.12649
1.14962
0.915275
0.896213
0.95256
1.15116
0.998802
1.0334
1.11394
1.15836
1
0.985719
1.05786
1.06146
0.999897
1.18512
0.935146
1.18265
1.0001
1.0152
1.16623
1.09825
1.12706
1
1.03799
1.05628
0.930884
0.777131
1.00211
1
0.881094
0.835087
1.13157
0.895746
0.791618
1.04673
1.23332
1.1114
1.17538
0.910264
1.31942
1.04745
0.879926
1.12525
0.848964
1
1.12455
1.19296
1.0152
1.335
1.0394
1
1
0.908906
1.0633
0.802816
1
0.894417
0.822566
1.12663
1.12368
1.00139
0.949104
1.11766
1.18288
1.12986
1.14131
1
0.930045
1.0407
1.11796
1.28689
1
1
1.02075
1.09724
1
1.23567
1.13196
1
1.04997
1.2351
1
1
0.994588
0.88019
0.907902
0.75748
0.976677
0.910727
1.05511
1.19042
1
1.01559
1.15426
1
0.82508
0.976772
1.14577
1.03042
1
0.826391
0.822088
0.969616
1.04023
0.745517
1.01671
0.995367
1.01364
1.0717
1.05358
0.870602
0.881807
1.08418
1
1.06027
1.19954
1.11376
1.19868
0.884357
0.910246
0.877564
0.997837
1
1.06207
1
1.14773
1.19367
0.741909
0.87258
0.873514
0.908041
1
0.970641
1
0.801617
0.808125
0.99182
0.90331
0.957899
0.888942
1.0115
1.04881
1.36006
1
1.04437
0.903868
0.898071
0.891454
1.23566
1.22578
1
1.11193
0.903131
1.27558
1
0.907875
1
1.20946
0.969248
1.05011
1.03258
1
0.739308
0.955419
0.901789
1.10926
1
1
0.999989
1.03085
1.09268
1.03125
1.02832
1.20634
1.18532
1.2323
1.0315
1.07285
0.776873
0.893859
1.18543
1.20692
1.00002
1
0.89195
0.897914
1.00755
1.18597
0.878806
1
1.01694
1
1.03048
1.00643
0.939184
0.927429
0.868095
0.736521
1.17866
1
1
0.822584
1
0.887851
1.04506
1.06851
1
0.937562
1.03335
1
1
0.877778
1.0567
0.879167
1.05601
1.09971
0.754314
0.923956
1.1429
0.870418
0.931201
1.00025
1.32342
1
1.07801
1.16347
1.02544
1
1.3692
0.853523
1.17684
1.08593
1
1.04137
1.19054
0.980726
1.26313
1.09813
1
0.978171
1
1
1.10318
1.05947
0.903618
1.1622
1
1.05373
0.918492
1
0.884884
1.13394
1
1
1.22377
0.951184
0.736226
1.26917
1
1.10639
0.976383
1.05315
1
1.226
0.916417
1.19083
1.06607
0.977597
1
1.03555
0.836579
1.13134
1.05122
1
1.12075
1.21963
0.910152
1.07586
1.08007
1.16757
0.974584
0.947296
1.01614
0.857612
1.25602
1.06834
1
1
1.26986
1.33305
1.08234
1
1.02969
1.01452
1.18783
0.931498
1
1.18872
0.863119
1
0.934043
0.945066
1.05604
1
1.13478
1.09469
1
0.817816
1
1.05893
0.942362
1
1.06648
0.96671
1.10413
0.996193
1
1.12427
0.78543
1.05697
0.962985
0.876664
1.01677
1
1.0504
1.13408
1.12675
1.24748
1
0.788844
1
1.08087
1.14369
1.37436
1
0.850644
1
1.11864
1
0.984663
1.05116
1.03482
0.788672
1
1.1592
0.783765
0.973743
1.24555
1.15303
1.2204
1
1.07738
0.935007
1
1
1.01451
1.13237
1.07784
1.05373
1
1.31378
1.13431
1.00637
0.937477
1.02722
1.23964
1
1.09551
1
0.955635
1.23581
1.20995
1.21689
1.27637
0.902262
1.1616
1.36796
1.14112
1.31972
0.999411
1.16558
1.1519
0.987
0.957276
1.01234
0.851183
1.16719
0.960992
1
1.09116
1.00588
1
0.95701
1.21404
1.15098
1.17094
1.26031
1.10447
1.00847
0.941192
0.994083
1.21652
0.928125
0.988699
0.725108
1.29516
1.2139
1.23951
0.949649
1
0.848033
0.999988
0.762755
0.972194
1.04784
1.03136
1.15848
1.19071
0.994925
0.861651
1.0591
1
1.10202
1.29887
0.987805
1.18056
1
1
1.14409
0.851143
1.19668
1.2236
0.999987
0.851904
1.11657
1.07897
1.03042
0.926049
1.15425
1.15263
1.09474
1.16871
0.862241
1.08452
1
0.849709
0.911118
0.937464
0.758763
1.00015
1.06808
0.974112
1.06121
1
0.950695
1.1903
1.04059
1.11381
1.00456
1.04028
0.917666
0.765138
0.781797
1.20609
1.07865
0.914889
1.12578
1.06006
1.17766
1.3603
1.10418
1
0.934796
1.15579
0.789375
1.18589
1.05003
1.01621
0.84748
0.968571
1.09217
0.903831
0.918714
1.05443
0.805247
1.07414
1.0465
1.18835
0.828003
1.17801
1
1.37796
1
1.08228
1
1
1
1
1.27005
1.12268
1.2002
1.10103
1.19637
1.01355
1.06624
1.06066
1
1
1.0602
1.05576
1.1876
1
0.958411
1.05257
1.05363
1.13738
1
0.791664
1
0.876283
0.832937
1.18962
0.948288
1
1.12303
0.915868
1.17561
0.753066
1
1.19739
1.17374
0.867701
1.00914
1.13478
0.841955
1.17743
0.853712
1.00481
1.19742
0.764678
0.850717
0.913835
0.856717
1.18358
1
1.14884
0.880324
1.05571
1.21405
1
1.1381
1.14015
1.0439
1.17119
0.856831
0.887169
1
1.26507
0.858065
0.854509
0.989045
1.16788
1.15721
1.16611
1
1.17906
1
1.15929
1
1.14558
1.03634
0.794219
0.902065
1
1
1
1.1641
1.35442
1.14855
1
1
1.14676
1.04422
1
1.33795
0.856711
0.999168
0.998703
0.938119
0.947618
0.950988
1.03168
1.15911
1.16858
1
1.33264
0.911807
1.1143
1
0.947081
1
0.85364
1.17143
0.856564
0.969477
1.17803
1.02524
1.1716
1
1.00581
0.923249
1.21166
1.04006
1
0.953683
1.15898
1
1.23875
0.973866
0.889517
1.1742
1.27162
0.943108
0.8622
1.2552
0.93464
1
1.15604
1
1.00377
1.11748
1
1
1
1.09899
0.921732
0.873694
1.2398
1.22575
1.17167
0.95733
0.991642
0.883474
1.18976
1
0.952714
0.88288
1.1845
0.843822
1.08682
0.986383
1.16385
1.1605
0.90412
1.00133
0.893839
1.02674
1.00351
1
1.05408
1.08321
0.885483
0.909736
1.18094
0.898425
1
1
1.18097
1.07912
0.922944
0.848245
1.09188
1.17296
1
1.06322
1.04638
0.960797
0.99024
1.02716
1.18627
1
0.934092
1.16052
1.02151
0.852573
0.896262
1.1828
1.16903
1.28962
1
1
1.16682
1
1
0.955728
1
1.16499
1.14644
0.9954
1
0.959231
1
0.917475
0.883844
1
0.994651
0.951382
0.977623
1.35759
0.971248
1.1513
1.03285
1.19315
1.00806
1.18389
1.15715
1
1.2134
0.906981
1.33429
1.09724
1
1.21884
1.22577
0.961755
1.02738
1.10188
0.991124
0.826546
0.876881
0.980668
0.92157
1.03032
1
0.99192
1
0.974769
0.862812
1
1
1
0.855754
1
0.960708
0.854158
0.997282
0.798859
1.24714
0.962604
0.958923
1
1.15333
1.18005
0.885241
1
1.20393
1.14026
1
1
1
0.999993
1.33739
1.01916
1
1
0.956527
1
0.826958
1
1.07025
0.990063
1.05087
0.786214
1.06552
1.19404
0.999717
1
1
1.03399
1.2021
0.752208
1
1.28983
1.26986
1.22157
0.851683
1.21511
1.03308
1.09067
1
1.14415
0.984663
1.10431
1.01698
0.905826
1.19421
1.11875
1
1
1.19757
0.841406
1.04574
1
1.04056
1.11261
1.13108
1
1.33619
1.08977
1
1
1.09491
1.19132
0.978898
1.23096
1
1.26314
1.18146
1.18685
0.94299
1.27933
0.845588
1.09216
1
1.24628
0.865551
1.28705
0.91984
0.983569
0.979854
0.882412
0.990676
0.980447
1.1578
1.0801
1.13813
1.06111
0.805819
0.989859
0.851344
1.10521
1
1.12353
1.17551
1.17009
1
1
0.87389
1.2907
1.26325
0.877479
1.08064
0.85192
1
1
1.10545
0.958599
0.864488
1.14093
1.23006
1
0.993685
1.3125
0.885035
1.16794
0.871349
0.979455