/*--------------------------------*- C++ -*----------------------------------*\
  =========                 |
  \\      /  F ield         | OpenFOAM: The Open Source CFD Toolbox
   \\    /   O peration     | Website:  https://openfoam.org
    \\  /    A nd           | Version:  12
     \\/     M anipulation  |
\*---------------------------------------------------------------------------*/
FoamFile
{
    format      ascii;
    class       volVectorField;
    location    "2.8";
    object      U;
}
// * * * * * * * * * * * * * * * * * * * * * * * * * * * * * * * * * * * * * //

dimensions      [0 1 -1 0 0 0 0];

internalField   nonuniform List<vector> 
46253
(
(1.28721 -0.00304312 0)
(1.2 -4.94287e-13 0)
(1.2 1.62216e-09 0)
(1.2 -2.95865e-13 0)
(1.2 -8.5961e-10 0)
(1.2 4.4726e-10 0)
(1.31981 -0.0255364 0)
(1.11912 0.00479775 0)
(1.2 2.91522e-13 0)
(1.2 1.69039e-13 0)
(1.28591 -0.00371046 0)
(1.32935 -0.082177 0)
(1.2 -6.10835e-14 0)
(1.2 -2.71434e-14 0)
(1.2 -2.94723e-15 0)
(1.2 7.53512e-15 0)
(1.2 7.26386e-14 0)
(1.2 -2.17481e-13 0)
(1.2 -1.20201e-13 0)
(1.2 -3.92713e-13 0)
(1.2 -2.49035e-13 0)
(1.2 2.03235e-11 0)
(1.2 5.61939e-14 0)
(1.30259 -0.00282279 0)
(1.31315 -0.0336677 0)
(1.2 2.53639e-13 0)
(1.2 -1.53867e-13 0)
(1.2 -4.43425e-13 0)
(1.2 5.47138e-14 0)
(1.11979 0.00511663 0)
(1.12983 0.053288 0)
(1.2 1.53812e-10 0)
(1.2 -1.0652e-09 0)
(1.2 -2.04753e-13 0)
(1.2 -1.71742e-13 0)
(1.2 7.28213e-14 0)
(1.2 -1.91644e-13 0)
(1.2 -1.55922e-13 0)
(1.16003 -0.0203906 0)
(1.2 -1.76882e-14 0)
(1.32552 -0.059722 0)
(1.329 -0.0818566 0)
(1.2 1.38458e-11 0)
(1.2 -1.01694e-11 0)
(1.35634 -0.113751 0)
(1.2 -3.17975e-13 0)
(1.2 -5.52871e-13 0)
(1.2 5.11508e-14 0)
(1.2 -1.0936e-07 0)
(1.2 -3.29843e-07 0)
(1.2 9.76486e-07 0)
(1.19999 2.9403e-06 0)
(1.2 -2.95181e-14 0)
(1.12326 0.0018395 0)
(1.20001 -1.14202e-06 0)
(1.28813 -0.0442932 0)
(1.20014 1.66931e-05 0)
(1.19982 -0.000963724 0)
(1.04555 0.0777168 0)
(1.32556 -0.0822148 0)
(1.2 -3.14128e-14 0)
(1.22995 -0.0445858 0)
(1.2 7.19298e-14 0)
(1.2 1.38724e-13 0)
(1.2 1.37303e-14 0)
(1.2 -9.61354e-14 0)
(1.2 -2.42092e-13 0)
(1.2 4.9352e-13 0)
(1.28728 -0.0424592 0)
(1.35309 -0.111562 0)
(1.32113 -0.0242773 0)
(1.19615 0.00846807 0)
(1.20394 0.00290785 0)
(1.07106 -0.0219487 0)
(1.2 7.69457e-14 0)
(1.30466 -0.00288137 0)
(0.997923 0.00156861 0)
(1.00065 0.000631159 0)
(1.2 5.16176e-14 0)
(1.2 8.59108e-09 0)
(1.2 2.8431e-08 0)
(1.09589 0.0574275 0)
(1.2 1.18979e-13 0)
(1.0863 0.0539991 0)
(1.32441 -0.041957 0)
(1.2 1.38389e-13 0)
(1.0427 0.000765891 0)
(1.04427 0.00033871 0)
(1.10173 -0.000187064 0)
(1.2 1.25687e-13 0)
(1.2 1.8152e-14 0)
(1.3268 -0.0619693 0)
(1.2 -9.60608e-14 0)
(1.20002 -9.15971e-06 0)
(1.2 5.15423e-14 0)
(1.20005 -3.36496e-05 0)
(1.2 -5.35971e-14 0)
(1.2 -1.08753e-13 0)
(1.04707 0.0772188 0)
(1.2 -2.88206e-14 0)
(1.2 1.02474e-14 0)
(1.2 -6.87053e-14 0)
(1.2 2.34998e-14 0)
(1.13358 0.0517947 0)
(1.2 1.54082e-06 0)
(1.31867 -0.0451239 0)
(1.32588 -0.0799489 0)
(1.07491 -0.000494991 0)
(1.07639 -0.000554397 0)
(1.31345 -0.0675779 0)
(1.12398 0.0098382 0)
(1.12521 0.0377869 0)
(1.08998 0.0622567 0)
(1.2 -1.68371e-14 0)
(1.2 -2.5978e-13 0)
(1.09515 -0.00128736 0)
(1.35173 -0.106427 0)
(1.32658 -0.0819358 0)
(0.920965 0.0804132 0)
(1.28043 -0.0376802 0)
(1.2 -9.26127e-14 0)
(1.2 -7.24949e-11 0)
(0.99305 0.0205676 0)
(0.99604 0.00753774 0)
(1.2 -1.74272e-13 0)
(0.919763 0.0749997 0)
(1.2 -4.22158e-14 0)
(1.30156 -0.0552898 0)
(1.20144 -0.00025409 0)
(1.01149 0.0012916 0)
(1.09335 -0.00106245 0)
(1.09461 -0.0011061 0)
(1.2 -1.4852e-10 0)
(1.317 -0.0206738 0)
(1.01311 0.00081602 0)
(1.2 -7.30804e-14 0)
(1.02493 0.000941973 0)
(1.02687 0.00106176 0)
(1.2841 -0.0397577 0)
(1.2 3.27302e-14 0)
(0.993997 0.0019461 0)
(1.10395 -0.00123933 0)
(1.10476 -0.001127 0)
(1.13981 0.0482854 0)
(0.989042 0.00110361 0)
(1.19982 -3.7797e-05 0)
(1.03716 0.000367293 0)
(1.03898 0.000530091 0)
(1.15848 -0.0209358 0)
(1.2 8.62518e-14 0)
(1.3157 -0.0692697 0)
(1.2 -1.7457e-13 0)
(1.01823 0.00155047 0)
(1.02064 0.00166542 0)
(1.16464 0.0368035 0)
(1.35391 -0.110742 0)
(1.30305 -0.0555351 0)
(1.2 2.65377e-14 0)
(1.05295 -0.000116884 0)
(1.2 -2.10138e-07 0)
(1.05444 -0.000357403 0)
(1.32612 -0.0798315 0)
(1.29176 -0.0459367 0)
(1.2 -1.48945e-13 0)
(1.31605 -0.0347553 0)
(1.03129 0.00126633 0)
(1.31723 -0.019676 0)
(1.03262 0.00113837 0)
(0.804296 0.031248 0)
(1.2 -4.34629e-14 0)
(1.06275 -0.000487347 0)
(1.06408 -0.000571225 0)
(1.2 -2.84038e-12 0)
(1.31841 -0.0537847 0)
(1.2 -1.34392e-07 0)
(1.36255 -0.11985 0)
(1.18146 -0.0111715 0)
(1.2 8.35823e-14 0)
(1.10181 -0.0285087 0)
(1.34897 -0.105167 0)
(1.2 5.19301e-08 0)
(1.16611 0.0362943 0)
(1.07127 -0.000488914 0)
(1.07231 -0.000774232 0)
(1.2 -1.29892e-13 0)
(1.04789 0.000201701 0)
(1.04979 0.000460121 0)
(1.35764 -0.115611 0)
(1.2 1.65326e-13 0)
(1.2 2.43065e-13 0)
(1.2 -1.18095e-13 0)
(1.2 1.68973e-13 0)
(1.32416 -0.102088 0)
(1.2 1.64449e-13 0)
(1.2 -1.41424e-13 0)
(1.2 -1.26175e-13 0)
(1.12475 0.00852526 0)
(1.2 -2.16971e-13 0)
(1.16079 -0.00172846 0)
(1.16158 -0.00146191 0)
(1.2 -1.03104e-13 0)
(1.2 -8.55656e-14 0)
(1.05794 -0.000138192 0)
(1.05939 -0.000165149 0)
(1.2 3.82777e-14 0)
(1.35301 -0.108447 0)
(1.16948 0.035115 0)
(1.0832 -0.000587631 0)
(1.08413 -0.000739247 0)
(1.2 -2.15203e-14 0)
(1.2 -3.32999e-14 0)
(0.920426 0.0843151 0)
(1.31725 -0.0555348 0)
(1.2 3.14857e-13 0)
(1.12806 -0.0287184 0)
(1.2 -2.49171e-13 0)
(1.14316 0.0471028 0)
(1.31887 -0.0509912 0)
(1.09008 -0.000947275 0)
(1.2 -2.17728e-12 0)
(1.2 1.74491e-13 0)
(1.09092 -0.00127598 0)
(1.36438 -0.119637 0)
(1.06717 -0.000365101 0)
(1.06838 -0.000187199 0)
(1.31938 -0.0558243 0)
(1.2 9.79703e-14 0)
(1.2 9.35108e-14 0)
(1.17488 -0.00150057 0)
(1.17523 -0.00159045 0)
(1.08535 0.0683052 0)
(1.2 -7.15493e-14 0)
(1.2 -3.06023e-14 0)
(1.2 1.22694e-13 0)
(1.2 -1.84648e-13 0)
(1.2 4.91683e-14 0)
(1.2 5.4316e-14 0)
(1.2 1.06478e-13 0)
(1.08706 0.0676458 0)
(1.07295 0.0719976 0)
(1.2 -2.77841e-14 0)
(1.2 -1.1952e-13 0)
(1.2 1.59187e-13 0)
(1.2 -6.02306e-15 0)
(1.2 5.9717e-14 0)
(1.2 3.05496e-13 0)
(1.2 2.41211e-14 0)
(1.17043 0.0345503 0)
(1.2 1.99543e-13 0)
(1.10063 -0.00134406 0)
(1.10168 -0.00157729 0)
(1.07513 0.0715226 0)
(1.18925 -0.00169528 0)
(1.2 2.52312e-14 0)
(1.19066 -0.00146946 0)
(1.07908 -0.000670892 0)
(1.08046 -0.00034795 0)
(1.27549 -0.0325346 0)
(1.32243 -0.0661489 0)
(1.2 5.77952e-14 0)
(1.3139 -0.00958566 0)
(1.33142 -0.068884 0)
(1.31788 -0.0708399 0)
(1.13865 0.0493325 0)
(1.23396 0.0137534 0)
(1.2 8.76544e-14 0)
(1.2 -2.4095e-14 0)
(1.2 6.18507e-14 0)
(1.08661 -0.000669329 0)
(1.11059 -0.000936224 0)
(1.08757 -0.000583718 0)
(1.2 1.2701e-13 0)
(1.2 -3.38828e-14 0)
(1.2 6.62848e-14 0)
(1.11172 -0.00101595 0)
(1.2 7.05333e-14 0)
(1.1999 6.34756e-05 0)
(1.2 2.74315e-14 0)
(1.12284 1.86807e-05 0)
(1.26157 -0.0225666 0)
(1.20369 -0.0028468 0)
(1.2042 -0.00250121 0)
(1.2 7.33949e-14 0)
(1.2 1.40925e-13 0)
(1.2 2.82332e-14 0)
(1.31714 -0.102482 0)
(1.33291 -0.0904931 0)
(1.28038 -0.0371516 0)
(1.14914 0.0442655 0)
(1.2 2.86067e-14 0)
(1.05225 0.0763906 0)
(1.0541 0.0760136 0)
(1.32129 -0.0526109 0)
(1.2 8.75056e-15 0)
(1.05907 0.0751931 0)
(1.10606 0.0607002 0)
(1.2 -1.10763e-13 0)
(1.1091 0.0603946 0)
(1.31887 -0.0561402 0)
(1.11753 -0.00093617 0)
(0.932273 0.0848586 0)
(1.11859 -0.00121271 0)
(1.29611 -0.0518884 0)
(0.933827 0.0748489 0)
(1.2 6.82588e-14 0)
(1.09714 -0.00135646 0)
(1.09819 -0.00107983 0)
(1.2 3.17422e-14 0)
(1.14108 0.0503248 0)
(1.2 7.67486e-14 0)
(1.2 2.39903e-13 0)
(1.20316 -0.00805209 0)
(1.2 -3.50201e-14 0)
(1.12471 -0.00102785 0)
(1.2 -4.08428e-14 0)
(1.12564 -0.0012907 0)
(1.29225 -0.0423603 0)
(1.06093 0.074799 0)
(1.2 -5.26324e-14 0)
(1.12469 0.000557982 0)
(1.30081 -0.0544866 0)
(1.2 -5.14308e-14 0)
(1.31666 -0.0254928 0)
(1.31312 -0.0323732 0)
(1.1584 -0.0193666 0)
(1.15198 0.042887 0)
(1.2 -2.46752e-14 0)
(1.2 4.97259e-14 0)
(1.13155 -0.00118749 0)
(1.1325 -0.00161396 0)
(1.22639 -0.00316997 0)
(1.22816 -0.00239384 0)
(1.2 -3.08487e-15 0)
(1.2 3.05582e-14 0)
(1.2 3.89182e-16 0)
(1.18499 -0.00907174 0)
(1.27875 -0.0343703 0)
(1.10705 -0.00128794 0)
(1.10812 -0.000718954 0)
(1.2 -2.75031e-14 0)
(1.2 -7.17668e-14 0)
(1.2 -2.6034e-13 0)
(1.2 -6.85913e-14 0)
(0.915447 0.0630425 0)
(1.2 8.25165e-14 0)
(1.13839 -0.00165671 0)
(1.13919 -0.0020707 0)
(1.2 -1.08786e-14 0)
(1.28407 -0.0398631 0)
(1.2 -6.90554e-14 0)
(1.13379 0.0119044 0)
(1.2 1.09714e-13 0)
(1.3549 -0.108455 0)
(1.2 -3.51874e-14 0)
(1.3225 -0.0769186 0)
(1.2 -8.92545e-14 0)
(1.11441 -0.000785936 0)
(1.2 -3.07828e-14 0)
(1.11509 -0.000503459 0)
(1.2 4.3407e-14 0)
(1.32427 -0.0769807 0)
(1.2 1.28024e-13 0)
(1.2 -1.38037e-13 0)
(1.2 1.68427e-13 0)
(1.2 1.71618e-13 0)
(1.2 -6.24275e-14 0)
(1.2 -9.93536e-14 0)
(1.2 1.1288e-13 0)
(1.14509 -0.00168266 0)
(1.2 6.06911e-15 0)
(1.2 7.08078e-15 0)
(1.2 -8.29527e-14 0)
(1.2 6.86971e-14 0)
(1.14598 -0.00217611 0)
(1.2 2.40288e-15 0)
(1.06594 0.0738548 0)
(1.28792 -0.0409405 0)
(1.2 9.051e-14 0)
(1.2 -7.75346e-14 0)
(1.2 -6.7315e-14 0)
(1.31776 -0.0498719 0)
(1.16749 0.0127954 0)
(1.3001 -0.0543879 0)
(1.12126 -0.00101978 0)
(1.12524 0.00320144 0)
(1.12219 -0.000757594 0)
(1.2 7.90758e-15 0)
(1.2 -3.52479e-14 0)
(1.15117 -0.00224033 0)
(0.891542 0.0747988 0)
(1.2 4.11719e-15 0)
(1.14806 0.0450806 0)
(1.15188 -0.00278589 0)
(1.34961 -0.0974614 0)
(1.2 -2.99097e-13 0)
(1.12012 0.00498094 0)
(1.17968 0.0304626 0)
(1.18009 0.0308627 0)
(1.2 -1.27748e-13 0)
(1.14847 -0.0235475 0)
(1.2 -7.45457e-14 0)
(1.2548 -0.0043999 0)
(1.25646 -0.0031799 0)
(1.06829 0.0731637 0)
(1.2 -1.46595e-13 0)
(1.19991 2.91719e-05 0)
(1.2 -6.69458e-15 0)
(1.2 7.81832e-14 0)
(1.2 1.61309e-15 0)
(1.2 -5.51402e-14 0)
(1.2 1.19706e-13 0)
(1.2 5.11393e-14 0)
(0.955856 0.084385 0)
(1.2 7.21425e-15 0)
(1.14882 -0.0214135 0)
(1.2 3.70808e-11 0)
(1.32643 -0.115148 0)
(1.2 5.10254e-14 0)
(1.2 3.3301e-14 0)
(1.27467 -0.0319262 0)
(1.2 -4.73528e-10 0)
(1.2 -6.24092e-14 0)
(1.15752 -0.00181892 0)
(1.2 -1.46337e-13 0)
(1.12839 -0.00108234 0)
(1.2 -1.7979e-13 0)
(1.2 5.57012e-14 0)
(1.15841 -0.00216497 0)
(1.12929 -0.00071142 0)
(1.2 1.07374e-13 0)
(1.1906 -0.00928263 0)
(1.2 -6.19795e-15 0)
(1.2 7.39013e-14 0)
(1.2 -2.15473e-13 0)
(1.2 -1.64608e-13 0)
(1.17655 -0.0357845 0)
(1.11802 0.00129709 0)
(1.2 1.66275e-13 0)
(1.2 -1.58503e-13 0)
(1.12268 0.00210599 0)
(1.29944 -0.0533769 0)
(1.2 2.8681e-11 0)
(1.33853 -0.0880148 0)
(1.2 2.07838e-13 0)
(1.17396 -0.0349781 0)
(1.16157 0.0381287 0)
(1.2 2.19992e-13 0)
(1.2 1.01309e-13 0)
(1.28581 -0.0372007 0)
(1.2 -3.35604e-14 0)
(1.25972 -0.0215067 0)
(1.14521 -0.0230608 0)
(1.2 -1.21544e-13 0)
(1.29954 -0.0918699 0)
(1.2 1.24947e-13 0)
(1.09081 0.0576905 0)
(1.12536 0.00788043 0)
(1.19982 -1.98788e-06 0)
(1.13518 -0.00143676 0)
(1.21919 0.00948956 0)
(1.2 2.1385e-13 0)
(1.21848 0.00894717 0)
(1.21809 0.00919589 0)
(1.13604 -0.00113631 0)
(1.2 -1.2707e-13 0)
(1.22035 0.0104846 0)
(1.2 -1.7862e-13 0)
(1.2 -5.81284e-14 0)
(1.2 -2.46274e-10 0)
(1.2 -5.48697e-14 0)
(1.2 2.69405e-14 0)
(1.25153 0.0102934 0)
(1.2 -8.93141e-14 0)
(1.12518 0.00808865 0)
(1.29713 -0.0523618 0)
(1.16548 -0.0022526 0)
(1.2693 -0.0273904 0)
(1.17319 0.0327478 0)
(1.16621 -0.00263205 0)
(1.23404 0.0190422 0)
(1.27064 -0.00453955 0)
(1.27262 -0.00363228 0)
(1.2 -1.40624e-13 0)
(1.2 3.27446e-14 0)
(1.2 2.32457e-13 0)
(1.2 -3.51204e-14 0)
(1.20104 -0.00248048 0)
(1.2 1.82727e-13 0)
(1.258 -0.0192986 0)
(1.31877 -0.0532828 0)
(1.34149 -0.0949447 0)
(1.2571 -0.0190426 0)
(1.16812 -0.0362672 0)
(1.33028 -0.0842911 0)
(1.17035 -0.0362035 0)
(1.2 -5.00738e-14 0)
(1.2 -2.64511e-13 0)
(1.14186 -0.00189909 0)
(1.15407 -0.0226904 0)
(1.31661 -0.0702986 0)
(1.14283 -0.00144971 0)
(1.17223 -0.00126752 0)
(1.17308 -0.00170806 0)
(1.27809 -0.00426404 0)
(1.32338 -0.064648 0)
(1.2 1.03389e-13 0)
(1.27945 -0.00383448 0)
(1.13545 0.0507698 0)
(1.2 6.64384e-14 0)
(1.2 5.00617e-14 0)
(1.2 2.78289e-13 0)
(1.32931 -0.0709314 0)
(1.2 1.14518e-12 0)
(1.1283 0.00311568 0)
(1.31208 -0.0998654 0)
(1.2 5.66914e-14 0)
(1.2 3.04613e-13 0)
(1.16523 -0.0325312 0)
(1.2 1.35006e-13 0)
(1.2 2.98347e-14 0)
(1.15554 0.00399594 0)
(1.36848 -0.131115 0)
(1.14635 -0.0241233 0)
(1.2 2.38998e-14 0)
(1.2 -6.19235e-14 0)
(1.14529 -0.0236723 0)
(1.2 -6.54693e-15 0)
(1.14682 -0.0228502 0)
(1.14243 -0.0202777 0)
(1.14618 -0.0223812 0)
(1.2 -6.16629e-14 0)
(1.18396 -0.0219833 0)
(1.18734 -0.0207615 0)
(1.2 -1.06348e-13 0)
(1.22045 0.0098441 0)
(1.15412 -0.023486 0)
(1.2 -3.65619e-13 0)
(1.2 -5.48389e-14 0)
(1.14873 -0.00201222 0)
(1.2 6.21168e-14 0)
(1.31222 -0.00541246 0)
(1.27138 -0.0296337 0)
(1.2 -5.75533e-14 0)
(1.2 -1.23767e-13 0)
(1.14928 -0.0014821 0)
(1.2 3.10668e-14 0)
(1.2 -7.93621e-15 0)
(1.2 4.28579e-13 0)
(1.2 4.83899e-13 0)
(1.34261 -0.0991353 0)
(1.2 -1.98928e-13 0)
(1.2 -1.99324e-13 0)
(1.18029 -0.00178191 0)
(1.26945 -0.0268695 0)
(1.18102 -0.00184485 0)
(1.32432 -0.0810509 0)
(1.2 -3.65264e-13 0)
(1.2 -6.63497e-15 0)
(1.2 8.5892e-12 0)
(1.2 -3.53512e-13 0)
(1.2 -1.13385e-13 0)
(1.2 1.03112e-08 0)
(1.2 2.01116e-13 0)
(1.16978 -0.0378252 0)
(1.33861 -0.0928778 0)
(1.2 1.71139e-13 0)
(1.2 -1.07924e-13 0)
(1.2 7.03551e-15 0)
(1.2 1.17319e-12 0)
(1.2 5.6646e-14 0)
(1.2 1.37853e-13 0)
(1.31259 -0.00968892 0)
(1.14488 0.0461565 0)
(1.2 -4.84184e-14 0)
(1.15356 0.0420501 0)
(1.2 -1.94745e-13 0)
(1.2 1.48735e-13 0)
(1.29768 -0.0526063 0)
(1.2 5.95239e-14 0)
(1.2 -1.16455e-14 0)
(1.2 -3.14351e-13 0)
(1.15419 -0.00238794 0)
(1.2 3.76976e-13 0)
(1.2 -2.4718e-14 0)
(1.15524 -0.00181726 0)
(1.15688 0.0408805 0)
(1.1208 0.0577152 0)
(1.2 4.56226e-15 0)
(1.11833 0.0585382 0)
(1.11767 0.0588238 0)
(1.1152 0.0595764 0)
(1.09781 0.000167499 0)
(1.2 -3.53479e-13 0)
(1.18624 -0.0016854 0)
(1.18704 -0.00192567 0)
(1.14978 0.0459409 0)
(1.11306 0.000905531 0)
(1.2 2.26987e-13 0)
(1.2 3.53174e-13 0)
(1.07406 -0.00930146 0)
(1.2 -3.46055e-14 0)
(0.93552 0.0697104 0)
(1.12766 0.00795867 0)
(1.2 1.58754e-11 0)
(0.92865 0.0753128 0)
(1.2011 -0.000827012 0)
(1.2 -2.52346e-13 0)
(1.14146 0.0490965 0)
(1.13619 0.0514904 0)
(1.2 -2.07194e-13 0)
(1.2 2.6876e-14 0)
(1.10078 0.00109368 0)
(1.21878 0.0143605 0)
(1.2 -8.12274e-14 0)
(1.2 -4.39113e-13 0)
(1.1893 0.0266624 0)
(1.2 -1.3856e-07 0)
(1.2 7.83236e-08 0)
(1.1994 -0.000446276 0)
(1.19983 3.66306e-05 0)
(1.05949 0.0673957 0)
(1.07709 0.0575655 0)
(1.0532 0.069581 0)
(1.05311 0.0700761 0)
(1.36353 -0.118632 0)
(1.16804 -0.0374807 0)
(1.05777 0.0696001 0)
(1.21452 -0.00885226 0)
(1.05641 0.0696466 0)
(1.0632 0.0685171 0)
(1.2 1.56005e-13 0)
(1.31325 -0.0108771 0)
(1.30032 -0.00318604 0)
(1.06175 0.0687257 0)
(1.2 -3.3993e-14 0)
(1.06961 0.0674842 0)
(1.2 -1.20528e-13 0)
(1.06831 0.067629 0)
(1.2 5.70173e-14 0)
(1.16667 -0.0337912 0)
(1.07654 0.0665104 0)
(1.2 1.94017e-13 0)
(1.07514 0.0665807 0)
(0.992478 0.084903 0)
(1.2 -5.32923e-14 0)
(1.08299 0.0653443 0)
(1.2 -1.30183e-13 0)
(1.08163 0.0655217 0)
(1.2 -1.99251e-14 0)
(1.34164 -0.0971349 0)
(1.2 1.20544e-13 0)
(1.26576 -0.024909 0)
(1.29871 -0.00249762 0)
(1.2 6.12122e-14 0)
(1.2 1.5709e-13 0)
(1.08964 0.0646998 0)
(1.08834 0.0647123 0)
(1.2 -3.17545e-13 0)
(1.1501 -0.0283859 0)
(1.09604 0.0636509 0)
(1.09476 0.0637109 0)
(1.18761 0.0259751 0)
(1.2 5.52241e-14 0)
(1.2 5.09921e-14 0)
(1.10597 0.0614084 0)
(1.19503 -0.00242862 0)
(1.10489 0.0616837 0)
(1.2 4.66413e-14 0)
(1.16319 -0.00228928 0)
(1.11313 0.0594638 0)
(1.29703 -0.0494821 0)
(1.11201 0.0596861 0)
(1.19533 -0.00320483 0)
(1.16339 -0.00216047 0)
(1.2 -3.99934e-13 0)
(1.2 -2.7541e-14 0)
(1.2 -4.44138e-14 0)
(1.11933 0.0572643 0)
(1.11822 0.0576722 0)
(1.12858 0.000549459 0)
(1.2 -1.21186e-13 0)
(1.2 3.3683e-13 0)
(1.12598 0.0549253 0)
(1.25423 -0.0164104 0)
(1.12498 0.0551899 0)
(1.3001 -0.0533283 0)
(1.2 1.77429e-14 0)
(1.135 0.0521756 0)
(1.13422 0.0527311 0)
(1.2 -1.37217e-13 0)
(1.2 1.6374e-14 0)
(1.2 -2.01571e-13 0)
(1.2301 -0.054707 0)
(1.2 9.90409e-14 0)
(1.15288 -0.023638 0)
(1.19189 0.0258548 0)
(1.12778 0.0545687 0)
(1.2 1.24739e-13 0)
(1.14476 0.0490358 0)
(1.2 2.38565e-13 0)
(1.14406 0.0492573 0)
(1.2 5.08281e-14 0)
(1.2 -2.90275e-13 0)
(1.15053 -0.0230684 0)
(1.14953 -0.0231104 0)
(1.15042 0.0463442 0)
(1.14927 0.0467085 0)
(1.17619 -0.0370835 0)
(1.14411 -0.0210526 0)
(1.15595 0.0441105 0)
(1.14287 -0.0199414 0)
(1.15546 0.0444632 0)
(1.2 -1.80757e-13 0)
(1.17798 0.030832 0)
(1.16486 0.0397503 0)
(1.16457 0.0402114 0)
(1.2 -2.60237e-13 0)
(1.27817 -0.0347081 0)
(1.17199 0.0373446 0)
(1.1712 0.0376033 0)
(0.803985 0.0085421 0)
(1.2 1.02355e-13 0)
(1.2 1.56512e-13 0)
(1.2 2.00229e-13 0)
(1.17725 0.0343881 0)
(1.17078 -0.0372425 0)
(1.17629 0.0344632 0)
(1.37254 -0.134342 0)
(1.101 0.000639531 0)
(1.22169 0.0100654 0)
(1.3135 -0.067876 0)
(1.18236 0.0309292 0)
(1.18246 0.0317438 0)
(1.19242 0.0253959 0)
(1.18919 0.0290562 0)
(1.188 0.0288686 0)
(1.28299 -0.0393554 0)
(1.28606 -0.0415813 0)
(1.2 2.12099e-13 0)
(1.12146 0.00982904 0)
(0.921917 0.0641182 0)
(1.20051 -0.00265632 0)
(1.2 2.16301e-13 0)
(1.31169 -0.0639344 0)
(1.20151 -0.00309656 0)
(1.29505 -0.0477649 0)
(1.10555 0.00142311 0)
(1.31396 -0.004186 0)
(1.2 7.9437e-11 0)
(1.2 -2.36956e-13 0)
(1.2 6.50778e-12 0)
(1.1686 -0.00225733 0)
(1.2 3.35377e-13 0)
(1.2 -6.94172e-14 0)
(1.2 2.2801e-13 0)
(1.2 1.35104e-13 0)
(1.2 -4.20314e-14 0)
(1.16981 -0.00144187 0)
(1.2 -9.74601e-14 0)
(1.2 6.90105e-14 0)
(1.2 7.87798e-14 0)
(1.27128 -0.0301766 0)
(1.28036 -0.0342147 0)
(1.2 4.5053e-14 0)
(1.18302 0.0290636 0)
(1.36506 -0.119632 0)
(1.29063 -0.00542714 0)
(1.2 -2.95805e-14 0)
(1.2 6.65825e-14 0)
(1.2 -1.14786e-13 0)
(1.2 4.33777e-10 0)
(1.2 -3.38126e-14 0)
(1.17523 0.00833452 0)
(1.2 1.83271e-13 0)
(1.17493 -0.0353233 0)
(1.2 -3.45489e-12 0)
(1.12385 0.0556452 0)
(1.15336 -0.000147336 0)
(1.12223 0.0561834 0)
(1.29212 -0.04456 0)
(1.2 -4.20231e-14 0)
(1.34524 -0.0966549 0)
(1.32306 -0.0591939 0)
(1.11482 0.0591693 0)
(1.2 -3.91918e-09 0)
(1.2 2.12857e-14 0)
(1.2 -3.40017e-13 0)
(1.2 6.8353e-14 0)
(1.2 -9.05683e-16 0)
(1.12029 0.0566879 0)
(1.12131 0.0563915 0)
(1.16747 0.0171832 0)
(1.3096 -0.00345456 0)
(1.31117 -0.00265388 0)
(1.2 1.11709e-13 0)
(1.26489 -0.0243766 0)
(1.2 -5.47629e-14 0)
(1.2 -1.45102e-13 0)
(1.11969 0.0569908 0)
(1.19739 0.0242775 0)
(1.19995 3.61809e-05 0)
(1.12097 0.00901499 0)
(1.20216 -0.00127429 0)
(1.2 -1.25826e-06 0)
(1.18063 0.0300293 0)
(1.17589 0.0321689 0)
(1.2 1.29133e-13 0)
(1.11766 0.057307 0)
(1.30094 -0.0537474 0)
(1.22246 0.00799586 0)
(1.2 -1.22073e-14 0)
(1.17184 -0.036378 0)
(1.20765 -0.00329925 0)
(1.2 -1.42931e-13 0)
(1.2 9.87044e-09 0)
(1.22103 0.0127029 0)
(1.16598 -0.0320682 0)
(1.2 -2.37296e-09 0)
(1.20855 -0.00357899 0)
(1.36337 -0.127315 0)
(1.2 -6.61064e-11 0)
(1.2 -3.94942e-14 0)
(1.09963 0.0631075 0)
(1.09832 0.0631747 0)
(1.16937 -0.037131 0)
(1.2 -2.07633e-13 0)
(1.36278 -0.12527 0)
(1.36257 -0.125329 0)
(1.32003 -0.0577545 0)
(1.13614 -0.00305624 0)
(1.2 6.41242e-14 0)
(1.15161 -0.0224552 0)
(1.12142 0.00406844 0)
(1.29758 -0.0519166 0)
(0.99802 0.0847694 0)
(1.2 1.67316e-13 0)
(1.2 1.20448e-13 0)
(1.2 -1.15134e-13 0)
(1.12901 0.0544228 0)
(1.12824 0.054591 0)
(1.2 2.76697e-09 0)
(1.20051 -7.26339e-05 0)
(1.2 1.11158e-13 0)
(1.17683 -0.0022366 0)
(1.13783 0.0507007 0)
(1.2 7.98871e-14 0)
(1.20081 0.00137875 0)
(1.13707 0.0511016 0)
(1.17777 -0.00198088 0)
(1.16936 -0.0368994 0)
(1.17268 -0.0404051 0)
(1.2 6.59097e-14 0)
(1.17698 -0.0362961 0)
(1.14829 -0.0238815 0)
(1.31197 -0.0643076 0)
(1.17602 -0.0365577 0)
(1.30012 -0.0535349 0)
(1.15934 0.0427857 0)
(1.2 9.84102e-14 0)
(1.2 1.70823e-13 0)
(1.15835 0.0431077 0)
(1.2 1.70046e-13 0)
(1.2 -1.79714e-13 0)
(1.16759 -0.0332791 0)
(1.17271 -0.035577 0)
(1.2 1.23514e-13 0)
(1.2131 -0.00257074 0)
(1.27688 -0.0337275 0)
(1.15116 -0.0282887 0)
(1.28428 -0.0382134 0)
(1.28208 -0.0356197 0)
(1.21363 -0.0032639 0)
(1.28366 -0.038573 0)
(1.28466 -0.0403888 0)
(1.3005 -0.0550372 0)
(1.30113 -0.0564021 0)
(1.2 6.94537e-14 0)
(1.2 -1.44562e-13 0)
(1.11971 0.000994204 0)
(1.2 -1.0516e-13 0)
(1.2 -4.26385e-14 0)
(1.22024 0.0101253 0)
(1.2712 -0.0269209 0)
(1.27931 -0.0348085 0)
(1.2 2.70638e-14 0)
(1.2 1.36051e-13 0)
(1.14589 -0.0227112 0)
(1.2 -4.38986e-14 0)
(1.14954 -0.0215821 0)
(1.14506 -0.0232165 0)
(1.19701 0.00275316 0)
(1.05834 0.0540715 0)
(1.09764 0.000349931 0)
(1.19982 -1.75768e-05 0)
(1.2 2.11603e-13 0)
(1.20002 1.01137e-05 0)
(1.2 1.81125e-14 0)
(1.16836 -0.0354542 0)
(1.14459 -0.0211064 0)
(1.11912 0.000991834 0)
(1.36203 -0.124206 0)
(1.2 -1.98449e-13 0)
(1.18344 -0.00164345 0)
(1.2 -2.70152e-13 0)
(1.20571 0.018251 0)
(1.20661 0.0179436 0)
(1.18407 -0.00126689 0)
(1.2 -1.054e-10 0)
(1.21164 0.0163364 0)
(1.21558 0.0114728 0)
(1.21178 0.0164793 0)
(1.2 1.47903e-13 0)
(1.2 2.18388e-14 0)
(1.2 -4.92478e-14 0)
(1.2 2.12687e-14 0)
(1.21464 0.0120414 0)
(1.14797 -0.0218458 0)
(1.2 2.18035e-14 0)
(1.19156 0.024292 0)
(1.2 1.08932e-08 0)
(1.2849 -0.0399192 0)
(1.2 -4.86669e-14 0)
(1.28356 -0.0394079 0)
(1.28997 -0.00477914 0)
(1.31828 -0.0210521 0)
(1.2 7.05712e-15 0)
(1.21899 -0.00260141 0)
(1.22003 -0.00313022 0)
(1.32911 -0.0829041 0)
(0.962867 0.0854966 0)
(1.2 4.72479e-10 0)
(1.28087 -0.0358701 0)
(1.15859 -0.0227006 0)
(1.15639 -0.022179 0)
(1.27959 -0.0348111 0)
(1.2 -1.52245e-13 0)
(1.2 -3.5065e-13 0)
(1.22102 0.00778755 0)
(1.37583 -0.137746 0)
(1.2 -1.17088e-14 0)
(1.2 4.10792e-14 0)
(1.14717 -0.0223159 0)
(1.34604 -0.102645 0)
(1.09595 0.000569653 0)
(1.22128 0.00976675 0)
(1.2 -2.06756e-14 0)
(1.2 -2.59211e-13 0)
(1.2 -1.05073e-13 0)
(1.2 -2.09872e-14 0)
(1.2 -5.93401e-15 0)
(1.2 -1.47058e-13 0)
(0.897813 0.0655768 0)
(1.2 1.20929e-13 0)
(1.29071 -0.00443861 0)
(1.28804 -0.0424649 0)
(1.29337 -0.0455087 0)
(1.13936 0.000660146 0)
(1.36162 -0.122499 0)
(1.37249 -0.134848 0)
(1.36141 -0.122387 0)
(1.27851 -0.032114 0)
(1.10163 0.000499531 0)
(1.28951 -0.00501599 0)
(1.36377 -0.126994 0)
(1.07965 0.0659633 0)
(1.07299 0.0668886 0)
(1.06656 0.0679557 0)
(1.08627 0.0650202 0)
(1.07847 0.0661461 0)
(1.2 -1.15881e-13 0)
(1.20159 0.00303338 0)
(1.0716 0.0670382 0)
(1.06013 0.0690436 0)
(1.085 0.0650163 0)
(1.17068 -0.0391552 0)
(1.06517 0.0681414 0)
(1.10768 0.0606521 0)
(1.09266 0.0641632 0)
(1.0592 0.0693745 0)
(1.2 2.61435e-13 0)
(1.05402 0.0701437 0)
(1.09154 0.0641807 0)
(1.05285 0.0699094 0)
(1.2 -2.83208e-13 0)
(1.10292 0.0624429 0)
(1.04822 0.0763306 0)
(1.04453 0.0723484 0)
(1.04201 0.0728566 0)
(1.1019 0.0626344 0)
(1.21319 -0.00228318 0)
(1.04401 0.0701359 0)
(1.10946 0.0604397 0)
(1.20401 0.00323286 0)
(1.2 2.09851e-13 0)
(1.20001 1.03108e-05 0)
(1.10827 0.0606518 0)
(1.2 -1.13086e-13 0)
(1.11621 0.0585834 0)
(1.20001 -5.64877e-07 0)
(1.2 -2.67963e-14 0)
(1.2 -4.26276e-14 0)
(1.22343 -0.00250684 0)
(1.11554 0.0589013 0)
(1.2 -2.95976e-13 0)
(1.2 -5.74278e-14 0)
(1.2 2.91324e-13 0)
(1.12265 0.0559108 0)
(1.11427 0.0596638 0)
(1.2 -2.4361e-14 0)
(1.2 2.18792e-13 0)
(1.2 -2.70513e-13 0)
(1.12171 0.056418 0)
(1.2244 -0.0032814 0)
(1.35824 -0.117329 0)
(1.13186 0.0534222 0)
(1.2 -6.61697e-14 0)
(1.22562 0.00258883 0)
(1.1309 0.0537772 0)
(1.14148 0.0497716 0)
(1.14031 0.0500321 0)
(1.29178 -0.0436313 0)
(1.14678 0.0475143 0)
(1.14641 0.0478355 0)
(1.15369 0.045536 0)
(1.2 -2.10599e-13 0)
(1.30068 -0.00224578 0)
(1.153 0.0457168 0)
(1.2 -1.17008e-13 0)
(1.16262 0.0415857 0)
(1.3136 -0.0119156 0)
(1.2 -1.54388e-13 0)
(1.2 -4.62168e-13 0)
(1.16198 0.0418937 0)
(1.26072 -0.0219372 0)
(1.35824 -0.119291 0)
(1.16838 0.0384848 0)
(1.16731 0.0386854 0)
(1.17406 0.0353809 0)
(1.19283 -0.00193573 0)
(1.17401 0.0358692 0)
(1.36761 -0.125687 0)
(1.18058 0.0332738 0)
(1.2 1.11391e-13 0)
(1.19945 0.0236122 0)
(1.19334 -0.00166887 0)
(1.17999 0.0337079 0)
(1.18651 0.0265243 0)
(1.20212 0.0196946 0)
(1.17394 -0.0361299 0)
(1.1852 0.0293169 0)
(1.20079 0.0217319 0)
(1.20048 0.0220529 0)
(1.31745 -0.00234686 0)
(1.18418 0.0294754 0)
(1.19088 0.0278234 0)
(1.19153 0.0283516 0)
(1.2907 -0.00279948 0)
(1.34772 -0.111719 0)
(1.36591 -0.1262 0)
(1.2 3.57762e-14 0)
(1.34692 -0.109287 0)
(1.2 -1.07167e-13 0)
(1.34638 -0.111552 0)
(1.35232 -0.110346 0)
(1.36124 -0.114624 0)
(1.2 6.40594e-14 0)
(0.920813 0.0729481 0)
(1.1036 0.00125371 0)
(1.2 8.9889e-14 0)
(1.22463 -0.0288724 0)
(1.22638 -0.0290574 0)
(1.1504 0.0447917 0)
(1.14582 0.046738 0)
(1.2 6.38283e-14 0)
(1.11839 0.00419731 0)
(1.11811 0.0578213 0)
(1.11124 0.0596764 0)
(1.11181 0.000859478 0)
(1.09402 0.000983907 0)
(1.12077 0.0572102 0)
(1.11668 0.0579572 0)
(1.11981 0.0573488 0)
(1.12143 0.0573066 0)
(1.22338 0.00739457 0)
(1.28496 -0.0402547 0)
(1.14613 -0.0247308 0)
(1.22293 0.011331 0)
(1.2 2.25866e-13 0)
(1.2276 0.00586287 0)
(1.27408 -0.0301424 0)
(1.29583 -0.0484342 0)
(1.1985 0.0220799 0)
(1.2 -4.07923e-14 0)
(1.08418 0.0660623 0)
(1.12013 0.0570193 0)
(1.32967 -0.082973 0)
(1.2 -4.78725e-14 0)
(1.23249 -0.00261375 0)
(1.32773 -0.0662638 0)
(1.21438 0.0101001 0)
(1.23204 -0.00367853 0)
(1.2 -3.67886e-14 0)
(1.11862 0.030847 0)
(1.2 2.74173e-13 0)
(1.2468 -0.0116633 0)
(1.19858 0.0210596 0)
(1.13693 0.000253563 0)
(1.12279 0.0566119 0)
(1.18953 0.0257343 0)
(1.18546 0.0279407 0)
(1.32979 -0.0859819 0)
(1.19725 -0.00319014 0)
(1.21318 0.012112 0)
(1.19818 -0.00281305 0)
(1.1997 0.0235256 0)
(1.3181 -0.0528248 0)
(1.33173 -0.080416 0)
(1.28083 -0.0368177 0)
(1.33827 -0.100435 0)
(1.22466 0.00471639 0)
(1.11369 0.0589155 0)
(1.19516 0.0246352 0)
(1.2 2.91465e-13 0)
(1.11438 0.0586291 0)
(1.06429 0.0702382 0)
(1.24583 -0.00965147 0)
(1.20353 0.0173699 0)
(1.2 -8.50728e-14 0)
(1.2 2.18938e-13 0)
(1.2 -1.18525e-13 0)
(1.15263 -0.0302874 0)
(1.20231 0.00135004 0)
(1.2 -4.96394e-14 0)
(1.2 -2.86094e-13 0)
(1.36016 -0.118855 0)
(1.20185 0.0191166 0)
(1.30151 -0.0547907 0)
(1.2 -2.24404e-13 0)
(1.32103 -0.0406991 0)
(1.2 -3.29956e-13 0)
(1.15485 -0.0311787 0)
(1.23914 -0.00668762 0)
(1.2 1.29381e-13 0)
(1.2 -2.44289e-13 0)
(1.37282 -0.131083 0)
(1.2979 -0.0513378 0)
(1.04472 0.0702455 0)
(1.29584 -0.0484172 0)
(1.14333 -0.0201747 0)
(1.14331 -0.0200592 0)
(1.19999 -6.92235e-06 0)
(1.10974 0.0599286 0)
(1.15003 -0.0221201 0)
(1.2 -1.40036e-13 0)
(1.23211 -0.0450586 0)
(1.2 -8.20013e-14 0)
(1.19226 0.0242896 0)
(1.23773 -0.0029481 0)
(1.2248 -0.0301945 0)
(1.27302 -0.0282629 0)
(1.2 2.49228e-13 0)
(1.2 2.48316e-13 0)
(1.22849 0.00532796 0)
(1.22684 -0.0295808 0)
(1.20347 0.0197668 0)
(1.2189 0.0127681 0)
(1.15307 -0.0231703 0)
(1.15311 -0.0234397 0)
(1.2 2.68309e-13 0)
(1.23857 -0.00339028 0)
(1.20276 0.0201962 0)
(1.17396 -0.0372119 0)
(1.17543 -0.0371653 0)
(1.30169 -0.0554287 0)
(1.18995 0.0258803 0)
(1.2 -3.02239e-14 0)
(1.23654 -0.005027 0)
(1.30691 -0.0604522 0)
(1.20985 0.0172417 0)
(1.31475 -0.0661897 0)
(1.20878 0.0171849 0)
(1.11941 0.0576534 0)
(1.2 1.64441e-14 0)
(1.2 -1.38392e-13 0)
(1.2 -2.41465e-13 0)
(1.27241 -0.0272334 0)
(1.21232 0.0138958 0)
(1.2 1.97622e-13 0)
(1.17163 -0.0370335 0)
(1.21269 0.0147194 0)
(1.10085 0.00077362 0)
(1.10471 0.000281515 0)
(1.28143 -0.0359506 0)
(1.17003 -0.037701 0)
(1.37688 -0.13563 0)
(1.31782 -0.00261598 0)
(1.08834 0.0652706 0)
(1.2 -3.48284e-13 0)
(1.2 -1.61818e-13 0)
(1.2341 -0.00242897 0)
(1.07834 0.067468 0)
(1.2 -4.70503e-13 0)
(1.2 2.18676e-13 0)
(1.2 2.69225e-10 0)
(1.21951 0.0105389 0)
(1.2 -4.70975e-14 0)
(1.21822 0.0102707 0)
(1.34472 -0.101453 0)
(1.22332 0.0111154 0)
(1.22914 -0.0351307 0)
(1.2 -5.89988e-14 0)
(1.2 -7.36056e-10 0)
(1.22942 -0.0364314 0)
(1.2 3.2874e-14 0)
(1.02132 0.0737221 0)
(1.16714 -0.0356493 0)
(1.03255 0.0721128 0)
(1.01725 0.0746954 0)
(1.2 -2.14152e-13 0)
(1.33022 -0.168533 0)
(1.03187 0.0724634 0)
(1.16854 -0.0321924 0)
(1.22851 -0.0370191 0)
(1.09108 0.064622 0)
(1.2 1.37471e-13 0)
(1.32253 -0.0555378 0)
(1.04699 0.0723673 0)
(1.06863 0.0698303 0)
(1.23112 -0.000741419 0)
(1.2 -9.36001e-14 0)
(1.09696 0.0630231 0)
(1.04469 0.0723765 0)
(1.0575 0.0706806 0)
(1.20001 2.14101e-06 0)
(1.15331 -0.0272036 0)
(1.3641 -0.125193 0)
(1.20001 -1.30884e-06 0)
(1.2 1.20943e-12 0)
(1.27971 -0.0344077 0)
(1.05562 0.0708419 0)
(1.2 -1.7851e-10 0)
(1.08087 0.0666991 0)
(1.22591 -0.0018164 0)
(1.2 1.05434e-13 0)
(1.2 -1.80504e-14 0)
(1.3183 -0.0474711 0)
(1.06896 0.0690115 0)
(1.24218 -0.00379695 0)
(1.09948 0.000395541 0)
(1.05713 0.0702798 0)
(1.20511 -0.0036306 0)
(1.30599 -0.0583524 0)
(1.20366 -0.000392256 0)
(1.07091 0.0687486 0)
(1.06669 0.0691646 0)
(1.10521 0.000466975 0)
(1.24255 -0.00456481 0)
(1.2 1.11054e-13 0)
(1.22727 0.00394044 0)
(1.20547 -0.00328812 0)
(1.22229 0.00111505 0)
(1.12183 0.0566815 0)
(1.2 1.49428e-13 0)
(1.0808 0.0664105 0)
(1.2 -1.90088e-16 0)
(1.2 -6.76092e-14 0)
(1.2 -1.88762e-14 0)
(1.0827 0.0664296 0)
(1.2 4.56625e-13 0)
(1.2 -4.15257e-15 0)
(1.25528 -0.017151 0)
(1.16442 -0.0166021 0)
(1.2 3.86994e-13 0)
(1.25148 -0.0148455 0)
(1.07899 0.0668653 0)
(1.14463 -0.0202437 0)
(1.21376 0.000256435 0)
(1.2 -5.36781e-14 0)
(1.2477 0.00185823 0)
(1.2 -1.07519e-13 0)
(1.1465 -0.022166 0)
(1.2 -5.62811e-14 0)
(1.2 1.51007e-13 0)
(1.2 -2.23429e-13 0)
(1.2 1.04252e-13 0)
(1.2 -1.81811e-13 0)
(1.22001 -0.014029 0)
(1.2 -1.96037e-13 0)
(1.2 -1.06671e-13 0)
(1.2 -8.56447e-14 0)
(1.2 -8.93009e-14 0)
(1.2 3.76958e-15 0)
(1.2 -7.02021e-14 0)
(1.28687 -0.0419846 0)
(1.36996 -0.131904 0)
(1.2 -2.03613e-13 0)
(1.20032 0.0191664 0)
(1.2 -1.72496e-13 0)
(1.2 -3.26082e-13 0)
(1.2 -3.97212e-13 0)
(1.16788 -0.0251796 0)
(1.26624 -0.0216292 0)
(1.34365 -0.101426 0)
(1.2 -7.94479e-13 0)
(1.34454 -0.105101 0)
(1.22749 -0.00103268 0)
(1.2 -1.35733e-12 0)
(1.2 -4.15912e-13 0)
(1.2 -7.84576e-14 0)
(1.19286 -0.0420505 0)
(1.2 -2.34099e-10 0)
(1.11585 0.0590459 0)
(1.2 4.20075e-10 0)
(1.06094 0.0706422 0)
(1.28676 -0.0403585 0)
(1.3253 -0.0852984 0)
(1.2 -2.2177e-13 0)
(1.20003 5.73714e-06 0)
(1.2 -2.04931e-13 0)
(1.2 -1.36311e-13 0)
(1.2 6.29046e-06 0)
(1.2 3.76687e-13 0)
(1.04499 0.0706538 0)
(1.04836 0.0704286 0)
(1.1532 -0.0223314 0)
(1.06308 0.0704858 0)
(1.2 1.69044e-13 0)
(1.2 -2.2108e-13 0)
(1.16144 0.0251964 0)
(1.17519 0.0166357 0)
(1.28014 -0.035974 0)
(1.08747 0.0634663 0)
(1.2 8.78803e-14 0)
(1.08561 0.0644711 0)
(1.12451 0.0554703 0)
(1.2 1.99041e-14 0)
(1.09111 0.0636024 0)
(1.2 -9.78553e-14 0)
(1.24336 -0.0536756 0)
(1.24439 -0.0534808 0)
(1.27914 -0.0336617 0)
(1.09011 0.0660254 0)