/*--------------------------------*- C++ -*----------------------------------*\
  =========                 |
  \\      /  F ield         | OpenFOAM: The Open Source CFD Toolbox
   \\    /   O peration     | Website:  https://openfoam.org
    \\  /    A nd           | Version:  12
     \\/     M anipulation  |
\*---------------------------------------------------------------------------*/
FoamFile
{
    format      ascii;
    class       volScalarField;
    location    "6.375";
    object      p;
}
// * * * * * * * * * * * * * * * * * * * * * * * * * * * * * * * * * * * * * //

dimensions      [1 -1 -2 0 0 0 0];

internalField   nonuniform List<scalar> 
46253
(
0.923588
1.05897
1.19323
1.05809
1.19725
1.19474
1.02059
0.80678
1.05588
1.05518
0.924038
0.765505
1.0318
1.03271
0.868311
1.05173
1.04983
1.03974
1.03982
1.04773
1.04847
1.17851
0.744114
0.886946
0.790936
1.05801
1.04818
1.04933
1.05667
0.800907
0.97229
1.02454
1.02405
1.04502
1.04284
1.17665
1.03706
1.03628
1.2146
0.797453
0.897977
0.774463
1.02794
1.02769
0.781645
1.03866
1.03974
0.789149
1.01873
1.01766
1.015
1.01443
1.17589
1.28967
1.20163
0.780308
1.01068
1.0099
1.07995
0.832972
1.18911
1.06923
1.15682
0.798793
0.86372
1.02971
1.0299
1.16329
0.790102
0.716705
1.09623
1.00651
1.00525
0.985304
1.1609
0.876675
0.990138
0.989258
0.75505
1.02193
1.02152
1.00126
1.17495
1.00076
1.00174
1.16223
0.969354
0.968667
0.550351
1.14894
0.677257
0.890832
1.16447
1.01314
0.807806
1.01341
1.16344
0.779711
1.07457
1.17253
0.675477
1.1572
1.15001
0.968849
1.1922
0.974061
0.771016
0.946698
0.945523
0.762966
1.2377
1.00296
1.00328
0.788849
0.770599
0.648016
0.71348
0.870364
1.21363
0.79489
0.603875
1.19073
0.998299
0.997121
1.15697
1.22496
1.18127
0.76521
1.23088
0.984793
0.929432
0.928303
1.18781
0.804711
0.983688
0.912008
0.979359
0.978744
0.797259
0.984547
0.99208
0.920142
0.918627
0.981112
0.992634
1.21828
0.971924
0.971309
1.19974
1.14856
0.76063
1.17556
0.982202
0.981474
0.931747
0.646217
0.763312
1.11065
0.9629
1.19212
0.961975
0.742343
0.775454
0.975761
0.890253
0.975857
0.819624
0.974452
1.31862
1.16841
0.956167
0.955391
1.16843
0.893245
1.18854
0.582171
1.14006
1.15693
1.08372
0.702603
1.18837
0.930523
0.949896
0.949212
1.11525
0.966418
0.965168
0.800202
1.11391
1.11294
1.16912
1.11807
1.044
1.1189
1.11468
1.11584
1.21512
1.14034
0.86135
0.860369
0.762868
1.18708
0.959504
0.958512
1.16696
0.636328
0.934004
0.939537
0.938912
1.17048
0.782211
1.21343
0.926957
1.15609
1.09516
1.1447
0.976209
0.963794
0.933364
1.16684
1.16679
0.932199
0.588176
0.952953
0.952406
0.930858
1.14824
1.14773
0.844277
0.843387
1.03513
0.756094
1.13872
1.15419
1.1588
0.769349
1.11143
0.799062
1.03088
1.04775
1.15806
1.14962
1.14836
1.11336
0.942357
1.15358
1.13295
0.943118
1.14354
0.922991
0.922345
1.04474
0.828011
1.14058
0.826542
0.94286
0.941496
0.810877
0.882066
1.1427
0.901108
0.879805
0.752702
0.980538
1.02802
1.10774
0.755247
0.812949
0.93667
0.912404
0.936021
1.14799
1.27558
4.35775
0.911717
1.15498
1.21349
1.15143
1.31177
0.82904
0.810372
0.809573
1.15184
1.15635
0.794142
1.0727
0.77736
0.792438
0.951234
1.18311
1.06519
1.0638
0.873992
1.11377
1.06117
1.00721
1.14815
1.00004
0.926858
0.906057
1.1977
0.905198
0.772837
1.20153
1.12454
0.925911
0.925165
1.16699
0.969865
1.11468
1.11308
1.08166
0.828494
0.899113
1.14196
0.898278
0.799133
1.06209
1.18527
1.30725
0.771409
1.14108
0.886067
0.782919
1.11778
0.950662
1.14656
1.15203
0.892124
0.89127
0.840701
0.88019
1.12656
0.887433
1.14792
0.822036
0.801617
0.915783
0.914497
1.11653
1.17774
1.17192
0.734197
1.20671
1.14484
0.885503
0.884826
0.836935
0.79826
1.15272
1.31878
1.15899
0.651194
0.915522
0.72263
1.14309
0.909446
1.15945
0.908677
1.14928
0.718364
1.1219
1.14241
1.11958
1.11373
1.14466
1.14605
1.14545
0.878305
1.14019
1.13948
1.13985
1.13937
0.877459
1.14596
1.05689
0.796883
1.15206
1.14408
1.17695
0.954824
0.776201
0.768678
0.902652
1.17066
0.901807
1.14166
0.664793
0.871893
1.24016
1.11575
0.954194
0.871235
0.737326
1.14618
1.0981
0.913036
0.937347
1.14816
0.886443
0.86131
0.959548
0.962161
1.05439
1.1531
1.11316
1.10668
1.17347
0.49686
1.14797
1.14926
1.11648
1.16811
1.11474
0.888045
1.11476
1.09724
1.15324
1.15177
0.814971
1.11561
1.02168
0.864477
1.10389
0.895527
1.10319
1.14482
0.863639
0.894553
1.12325
1.09887
1.15152
0.8491
1.11534
1.11811
0.804388
1.17106
1.11396
1.10266
1.25554
0.775305
1.1198
0.792695
1.12544
0.812214
0.940636
1.11883
1.15067
0.790478
1.10915
0.827045
0.896065
1.09771
1.09371
2.79777
1.1103
1.20736
1.11003
0.888691
0.862166
1.14093
0.836189
0.832204
0.888067
1.14157
0.821708
1.15657
1.11488
1.10897
1.13895
1.11578
1.04769
0.870232
1.19348
0.771019
0.854802
0.809855
0.944186
0.854208
1.09786
0.947982
0.95974
1.18607
1.15286
1.14407
1.17004
1.23876
1.13494
0.834276
0.923886
0.774533
0.832491
0.909625
0.890319
0.886891
2.51529
1.14283
0.882048
0.886832
0.766643
0.880857
0.847411
0.846562
0.935278
0.88641
1.14411
0.940509
0.975611
1.16046
0.511244
1.1451
0.853522
1.11799
1.1837
1.07314
1.17929
1.11656
0.839343
1.14185
0.952265
0.887917
0.972064
0.866275
1.13871
1.14766
0.867387
1.14062
0.873258
0.887051
0.876299
0.817917
1.27526
1.23811
1.11064
0.859019
0.866511
1.14362
1.18223
0.874859
1.10406
0.846387
0.813688
1.14747
1.11598
0.874303
1.17955
1.14967
1.10195
1.10336
0.707095
1.10519
1.10682
0.837374
0.807037
0.836582
0.855319
1.08693
1.09
1.09047
1.0908
1.14063
1.1175
1.15648
0.909035
0.776117
1.11277
1.11859
1.17796
1.11827
1.11206
1.12097
0.848369
0.965936
1.00463
0.957608
1.11638
1.11392
0.773759
1.11039
1.11551
1.11326
0.868449
1.10748
1.12021
0.867109
0.959511
0.981362
1.14587
0.991989
0.990835
1.00202
0.718808
1.11902
0.830958
0.830386
0.963872
0.829408
1.11223
1.12038
0.977923
1.14279
1.20636
1.06696
1.11895
1.20639
1.11571
1.1394
0.978299
0.967355
1.14379
1.14657
0.552776
0.824204
1.14336
1.144
0.903822
1.08063
1.07782
1.06799
1.07387
1.06979
1.06709
1.05596
1.06124
0.798327
0.862271
1.06283
0.735585
1.05827
1.04676
1.14064
0.793625
0.936387
1.05259
1.14535
1.05538
1.14048
1.05056
0.856187
0.833459
1.03384
1.09474
1.0401
1.13196
1.13906
1.04199
1.11731
1.03879
1.11702
0.67514
1.09397
0.812024
0.976825
1.11119
1.11136
1.0205
1.02455
1.14575
0.858236
1.02637
1.02515
0.930081
1.14891
1.15491
1.0113
0.820515
1.0089
1.13815
0.858361
1.00034
0.782991
1.00387
0.819828
0.857469
1.13785
1.11406
1.11362
0.998815
0.998151
1.32385
1.13889
1.13994
0.982852
0.837252
0.985451
0.777647
1.14518
0.97402
0.982275
1.11701
1.12127
1.11561
1.11152
1.12101
0.866543
0.902139
0.977801
1.14291
0.975631
1.1128
0.974984
1.11238
1.14553
0.873016
0.871751
0.949959
0.951929
0.832983
0.882811
0.95932
0.887964
0.958775
1.1493
0.925391
0.944004
0.939405
1.116
0.797265
0.927305
0.934498
1.2863
1.09892
1.09883
1.11681
0.935114
0.88472
0.927779
0.856219
0.56514
0.872943
0.77106
0.905571
0.917556
0.884994
0.927407
0.913928
0.800756
0.789856
1.09967
1.22804
1.21281
0.814121
1.15077
0.761179
0.812925
0.784166
0.635843
0.841333
1.0813
1.09783
1.08707
0.851291
1.11253
1.09696
1.11242
1.13066
1.10164
0.850014
1.12364
1.09819
1.09439
0.817025
0.810361
1.1423
0.9052
0.800463
0.961874
1.12356
1.15095
1.1463
1.12011
0.776692
0.727045
1.11386
0.809451
1.12069
1.00191
0.738218
1.00476
0.785145
1.11642
0.769593
0.908865
0.990681
1.11667
1.12984
1.1453
0.749045
1.11478
1.00286
1.002
0.735533
0.956454
0.899838
1.13891
0.817409
1.14592
1.14369
1.00508
0.884089
1.11179
0.907039
1.11426
1.1109
0.924228
0.94427
1.13999
1.00494
0.779859
0.846713
1.11241
0.891235
0.80341
1.10777
1.11281
0.818663
0.838389
1.11701
0.8027
1.30542
1.12099
0.959627
1.01608
1.02182
0.852654
1.11755
1.28267
1.34448
0.919139
0.712374
1.11297
0.88912
1.14824
0.784403
1.12267
1.15211
1.14288
1.1123
0.986818
0.982487
1.07577
1.116
1.15095
0.841183
0.964805
0.915339
1.1173
0.967153
0.840183
0.917776
0.912767
1.18693
0.805283
0.882179
0.755935
0.806213
0.77385
0.944888
1.11391
1.11326
0.952662
1.10721
1.11627
0.829991
0.815481
1.11464
0.797724
0.81856
0.85602
0.790264
0.801897
0.797356
0.793714
0.801434
0.77262
0.771921
1.07469
1.13483
1.33828
1.13532
1.07448
0.81277
0.826395
0.786645
1.13748
1.11621
0.898196
1.14885
0.888939
0.881946
1.11245
1.11048
0.635778
1.11163
1.17967
1.10888
1.14269
0.832064
0.884215
1.15925
1.34351
1.14277
0.834158
1.10058
0.868331
0.870667
0.833353
1.12093
0.893528
0.860309
0.890373
1.14396
1.14192
1.14328
1.14494
0.858765
0.88667
1.11364
0.928728
1.11013
0.794451
1.10951
0.802778
0.959303
0.933858
1.13915
0.790082
0.788383
0.880666
1.16658
1.07754
0.786091
1.1183
1.06941
0.781901
1.08908
1.08706
0.842015
0.847177
1.13726
1.13834
0.879624
0.776004
0.567443
0.87758
1.15091
1.09585
1.14329
1.09581
1.11322
1.10637
1.24237
1.10393
0.944394
0.796952
0.785386
1.20625
1.21935
0.843518
0.941981
0.814621
0.856719
0.969279
1.091
1.0351
1.04924
1.04659
1.03252
1.03186
1.11054
1.07376
1.05321
1.06055
1.03886
0.914731
1.04419
1.01095
1.02404
1.06137
1.11067
1.0549
1.01999
1.05379
1.11692
1.00898
1.07302
1.06736
1.06899
1.01093
1.06462
1.06956
1.00879
1.0653
1.112
1.07917
1.00971
1.15245
0.99833
1.08063
0.869965
1.13915
0.782518
0.997776
1.11732
1.11516
1.11709
0.991124
1.00192
1.11699
1.11989
1.11598
0.995245
0.781759
0.884801
0.98823
1.14483
0.872627
0.987609
0.973881
0.966471
0.798513
0.958061
0.968104
0.958684
1.13895
0.935848
0.952124
1.14398
0.937887
0.824893
1.1447
1.10057
0.939758
0.820708
0.927566
0.942159
0.942678
0.92263
0.82386
0.923018
1.0617
0.931185
1.14136
0.899345
0.823041
0.933968
0.919863
0.881589
0.833321
0.902666
0.909029
0.913952
0.97011
0.900466
0.922155
0.927495
0.95687
0.983054
0.875989
1.14012
0.982356
1.13922
1.04937
0.970506
1.02941
0.982382
1.22228
0.65256
1.09719
0.786571
0.783982
0.954836
0.975623
1.14049
0.620519
0.995484
1.00445
1.1872
0.560901
0.999767
0.995252
0.997841
0.98026
1.05667
0.801233
0.868551
0.823772
1.13926
0.863655
0.808581
0.782568
0.918383
1.12313
1.03213
0.98921
0.736408
0.867813
0.955354
0.869523
0.889648
0.955252
0.785135
1.07638
1.14382
0.838541
0.899094
0.846477
0.997997
0.919827
0.903006
0.91128
0.817393
0.894149
0.816508
0.913995
0.943442
0.716436
0.809554
1.03807
0.873093
0.999743
0.880344
1.14395
0.998409
1.04914
0.840748
0.889768
1.14534
1.14385
1.07537
0.885846
1.11678
1.14146
1.07111
1.1642
0.905258
0.770436
1.12173
0.974103
1.06894
0.894579
0.854434
1.15199
1.12456
0.922994
0.778051
1.06507
0.78306
0.882109
0.881232
1.20437
1.00807
0.883233
1.11712
0.811471
1.06548
0.896642
0.96128
0.7869
0.82999
1.08691
1.0872
0.864284
0.783303
0.871948
0.82622
0.875598
0.875204
1.08696
0.961177
0.888839
0.891352
0.833362
0.768811
0.903025
1.11903
0.857763
0.7616
0.895018
0.747444
0.881829
0.990826
3.81182
1.10761
1.10835
0.826535
0.862445
1.14995
0.845059
0.876813
0.567558
0.629796
0.782966
0.888052
0.914995
0.967219
1.02286
1.09266
1.09202
0.856216
1.03497
1.10296
1.11015
1.09926
0.879337
1.10589
0.867866
0.788833
0.823798
0.789225
1.14411
1.10096
0.789026
1.10927
1.09814
0.838438
1.071
1.09787
1.08393
1.11373
1.07431
0.833075
0.788662
1.02573
1.11291
0.898131
1.06654
1.0476
0.859654
0.649251
1.02524
1.07692
1.06532
1.11974
0.855176
0.891912
1.12328
1.13052
0.796408
1.06606
1.12978
1.03627
0.971739
1.08785
1.13884
0.951959
1.04455
0.956157
0.662722
1.05489
0.807462
0.764911
1.07789
1.04156
1.04052
1.02961
0.955742
1.11948
0.888684
0.806348
0.876489
0.997886
1.07581
1.0265
1.07671
1.11531
1.14945
1.03404
1.071
1.11517
0.837206
0.791514
1.07271
0.841598
1.0314
0.888639
0.812531
1.06782
0.899183
1.13664
0.877101
1.07548
1.06763
1.11686
1.11175
1.12008
0.898083
1.05698
1.06125
1.06361
1.11495
1.11286
1.14518
0.76934
0.889526
1.07052
0.893705
1.11545
1.0571
1.06902
1.14715
0.833228
1.04605
1.0516
0.970514
0.977863
1.05317
1.14066
1.11665
0.920883
1.04644
0.991379
1.04743
1.05033
0.792912
0.989193
1.11891
1.03817
1.06544
1.17111
1.03921
1.10777
1.06232
1.06331
0.885348
1.0495
1.13979
1.11985
1.03143
1.03318
0.797659
1.02738
1.14101
1.0279
1.00091
1.10375
1.01948
1.14002
0.9548
0.968332
0.814151
1.02425
0.784631
0.957331
1.13893
1.0217
1.00611
0.973467
1.00449
0.994207
0.748758
0.993216
0.998354
0.930579
0.992786
0.994357
0.959356
1.02044
1.01197
1.28395
0.972712
1.0033
1.00525
1.01349
1.00431
0.958482
0.999257
1.14866
0.789239
1.00085
1.0058
0.964696
0.805546
0.875917
1.00537
0.992403
0.800208
0.999319
0.749074
1.00105
0.833977
1.14742
1.14515
0.780057
0.799434
0.865702
0.992838
1.00438
1.12499
1.10539
1.14442
1.03875
1.13852
1.08545
1.21133
1.13978
1.13917
0.658263
0.768227
1.13859
0.982122
0.977324
0.984098
1.14794
0.794004
1.2632
0.991587
0.991392
0.958636
0.978353
0.77348
1.19985
1.02534
0.739543
1.0402
0.969388
1.00911
0.970882
0.959812
1.14231
0.788159
1.11306
1.08075
1.14527
0.838993
1.07712
0.961945
1.00418
1.2171
1.00416
0.873185
0.940212
0.996926
1.13882
0.824735
1.02848
1.11201
0.950888
0.95219
1.11274
1.07944
1.10063
1.09315
1.10099
1.09492
1.10435
0.828445
1.14228
0.95338
0.874556
0.784401
1.03436
1.18517
0.790897
0.941014
0.774445
1.13863
1.24149
0.954429
0.746187
1.09874
0.825184
0.916153
1.15254
1.13859
1.0628
0.928816
0.81199
0.815532
0.925722
1.11529
1.10331
0.9358
0.905143
0.880608
1.02695
0.842301
1.16742
1.11775
1.11287
0.972508
1.14708
0.933241
0.93499
0.958483
1.03933
0.920137
0.926233
1.09984
1.22054
0.927557
0.96439
1.22673
1.08122
1.05942
1.11704
1.08229
1.16261
0.921486
1.06987
1.04823
0.886001
1.06474
1.07861
1.0266
1.10424
1.14348
0.97964
0.801356
1.04358
0.795109
1.14683
1.04558
1.04484
1.11201
0.902251
1.16457
1.11207
0.909658
1.00865
0.910253
1.10181
1.09569
0.794387
1.02591
1.09309
0.789863
0.767259
0.974019
0.977369
0.975107
0.868904
0.866871
0.86872
0.777557
1.11102
0.904356
0.898877
0.967525
1.00258
1.01288
0.909854
0.823573
1.11918
1.11799
0.782886
0.797519
1.01499
1.11687
0.88383
0.975524
0.893075
0.889285
0.894432
0.957021
0.890559
1.01675
0.936238
1.01754
0.873289
0.963836
0.885235
0.96344
1.14086
1.0514
0.821863
0.990388
1.10116
0.826566
0.826782
0.777125
1.07602
0.815757
0.869752
0.902807
1.0756
0.940655
0.873534
0.779604
1.08715
0.900457
0.877081
1.02293
1.03437
1.12752
0.789673
1.11136
0.831686
0.834749
0.919242
0.747349
0.98679
1.11399
0.981908
0.979759
0.868563
1.08816
1.02352
0.95398
0.842523
0.990661
0.949421
1.1337
0.834596
0.981541
1.23808
0.99156
0.969034
0.852913
0.855622
1.09798
0.857093
1.11404
0.864721
1.06255
0.853929
0.779791
1.04492
0.981748
1.14468
1.06333
0.967091
0.881058
1.12731
0.975011
0.967769
1.01103
1.20997
0.764474
1.11295
0.835434
1.07401
0.839568
1.0926
0.955965
0.840577
1.11718
1.01261
0.957395
1.24389
1.11238
0.946389
0.837265
0.843613
1.12373
1.12066
0.948584
1.03846
1.08468
1.00748
0.852607
1.00772
1.02091
0.974319
0.855139
0.789833
1.14285
0.891846
1.10168
1.15764
0.763151
1.02534
1.09923
0.98477
0.948398
0.825022
0.715354
0.743198
1.22827
0.836264
0.825437
0.816199
1.22169
1.04394
0.91415
0.817739
0.87861
0.945679
1.00673
1.00196
1.20179
0.621056
1.00848
1.09798
1.03813
1.10597
0.81134
1.03977
1.10226
0.788651
1.11597
0.812772
0.788025
0.631495
0.78913
1.12077
1.11931
1.01772
1.01533
0.739602
0.872341
1.11681
1.11233
0.876353
0.897883
0.785512
1.12722
1.08411
0.75397
0.802039
0.801311
1.06203
0.859938
0.781124
0.77595
0.792692
1.12503
0.806562
0.783685
0.76631
1.03946
0.991071
0.99679
1.16633
0.915973
0.823559
0.926731
0.854173
0.92691
0.917932
0.865773
0.953619
1.20623
1.12506
1.3667
1.09873
1.16203
0.853075
0.848359
0.869913
0.852419
1.06344
0.924985
1.09723
1.11253
0.866213
0.89852
0.723199
0.765429
0.864637
0.723121
0.761989
0.874431
0.899944
0.722792
1.0479
0.966838
1.10353
0.781169
1.13306
0.881443
1.22952
0.72216
1.10232
0.787741
0.866242
1.1389
1.14357
0.918214
0.873447
1.0725
1.09367
1.08695
0.879979
1.09423
0.883044
0.760897
0.729399
0.825156
0.965098
0.882504
0.960551
1.14586
0.728294
0.831657
1.14527
0.770958
1.21097
0.96408
0.820246
0.861051
1.14624
1.11651
0.915492
0.955082
0.771054
0.744256
0.745286
1.10282
0.810723
1.04047
1.11043
0.867185
2.44715
2.38084
1.05451
0.858824
1.14461
0.868561
1.0896
1.19392
0.938746
0.817722
1.02443
0.824298
1.03747
0.953741
1.03532
1.0681
1.05483
0.798274
0.972008
0.88544
0.815543
1.04857
1.05788
1.20882
0.832109
0.78269
0.763388
0.84808
1.03559
0.818987
1.06564
1.00757
1.04988
0.850635
1.17291
1.02867
1.04173
1.02536
1.05918
0.802678
1.05592
1.14919
1.14481
1.06673
1.07409
1.14335
1.03689
1.02591
1.06911
1.02958
1.0154
1.14371
1.27783
1.07648
1.09721
0.919512
1.03515
0.99469
1.07813
1.07509
0.961531
0.788467
0.829491
1.02522
1.01596
1.00935
0.910029
1.1699
0.893313
1.13003
1.07955
1.1336
1.10333
0.919232
0.829277
1.00305
1.19782
0.901487
0.832808
0.831979
0.963765
0.824788
0.903475
0.979494
1.01395
0.99646
0.821725
1.00407
0.833406
1.10695
1.07893
1.0263
0.982752
1.13379
1.11305
1.13622
1.03107
0.847882
0.901924
1.03389
0.987004
1.10716
0.823741
1.12964
0.918741
1.00637
1.02807
0.896084
0.794914
0.84645
0.902141
0.980181
0.848779
0.988738
0.838573
1.12662
0.891431
0.856985
0.802304
0.964178
1.06332
0.911151
1.10141
1.15094
0.871341
0.973409
0.903159
0.94266
1.10245
0.919583
0.768227
1.25644
1.1442
0.903911
1.14738
1.11483
0.975376
0.863958
0.763758
0.965459
0.913612
0.90017
0.930021
0.953792
0.929819
0.780514
1.05432
0.782931
0.790974
0.954342
0.940415
1.05552
0.785078
0.94253
0.886424
0.917736
0.944068
0.888492
0.970711
0.926483
0.899468
1.04805
0.977724
1.01251
1.12859
1.04974
1.099
0.978031
1.02633
0.997084
1.12735
1.04401
0.923249
0.913518
0.919423
0.990804
1.04482
0.828279
0.926692
0.968382
1.08592
1.24829
0.777407
0.995732
0.878197
1.12014
0.929604
1.25646
1.144
0.843671
0.964535
1.13396
0.938211
0.872915
1.03706
0.937133
0.887309
0.963048
1.14549
0.931056
0.924351
1.03901
0.91287
0.762999
0.89265
1.06812
0.938511
0.874536
0.916754
0.871342
0.906662
1.03331
0.912138
0.919639
1.34195
1.18012
1.34487
1.1127
1.13516
1.03432
0.901534
1.02748
0.91352
1.30572
0.908022
0.915623
1.02548
1.08207
1.10656
1.01231
0.88778
0.826909
1.02694
0.957834
1.07846
0.958675
1.03926
0.860624
0.896243
1.09385
0.947671
1.24231
1.0531
0.896823
0.890358
0.882517
1.02187
0.864689
1.06395
0.934466
1.02316
0.869251
0.857815
1.14685
1.14835
0.880525
1.1334
1.13185
0.89434
0.784633
0.953984
0.880423
1.01928
1.07882
1.07469
1.0843
0.908492
1.0742
0.8322
1.08127
0.830065
0.881749
1.0363
0.708185
0.870688
0.78319
1.0125
0.78225
0.847869
0.998197
0.750572
0.85495
1.01357
0.984861
1.07717
1.1166
0.85969
1.09807
1.12713
0.941956
1.08857
0.965751
0.691269
0.984103
0.863548
0.854526
0.963419
0.94373
1.00262
0.741278
1.10027
1.02646
1.14754
1.27891
1.24631
1.00405
1.03417
1.00832
0.838928
1.0874
0.955302
0.842485
0.897113
0.930146
0.975756
0.94291
0.913199
0.996843
0.911188
0.906338
0.974525
0.844808
0.936839
0.862707
0.838585
0.909426
1.13853
0.998266
0.894954
0.972451
0.855634
0.92632
0.888852
0.90927
0.940509
0.749994
0.943287
0.930359
0.738649
0.998493
0.981437
0.961593
0.854891
0.980987
0.868425
0.99035
1.13286
0.826246
0.820448
1.0863
1.12446
1.07359
1.08612
0.991781
1.036
0.814386
1.03804
0.854325
1.15107
0.82713
0.982954
0.978282
1.03885
0.823023
0.952863
0.940176
0.968651
0.846296
1.09073
1.07062
0.885297
1.00431
0.837252
1.08174
0.858656
0.99079
0.814686
0.984376
0.847876
0.980004
1.09983
0.905567
0.860757
0.913423
0.999973
0.99829
0.848334
1.06782
0.805272
0.827721
1.10262
0.985815
0.88347
1.0008
0.992762
0.997806
0.807817
0.842087
0.949109
1.04848
1.05534
1.0153
1.00005
1.12703
0.885477
0.979231
1.01042
0.950281
1.13132
1.0832
0.88287
0.800221
0.816915
0.707704
1.09208
1.06401
0.975371
1.27636
1.02128
0.754827
0.79793
1.02077
1.02035
1.14681
0.736565
0.975827
1.018
0.776802
0.783516
0.949945
0.791371
1.05106
0.789697
0.999516
0.861766
1.13077
0.888831
1.21783
0.833963
0.79303
0.960611
1.02428
1.10254
0.82824
0.834953
1.08067
0.836539
0.783457
0.573664
0.744784
1.02189
0.96149
0.96447
0.814251
0.952576
1.12173
0.980012
0.93634
1.11455
1.02222
0.963985
1.19273
0.956048
0.794853
0.774622
1.01506
0.770743
0.950831
1.15512
0.838908
1.14995
0.836721
0.952767
1.1335
1.13
0.830576
1.03364
1.1402
0.820159
1.02092
1.10387
0.826936
1.07869
0.712796
0.932875
0.94277
0.806169
0.942106
0.739173
0.831285
0.946272
0.831086
0.883728
0.896721
1.10105
0.935612
1.15008
0.938514
1.03733
1.03797
0.884649
0.998014
1.02201
0.937541
1.02314
1.10022
0.971165
0.724889
0.928305
1.01762
1.03656
0.875987
0.904041
0.931269
0.918942
1.27501
1.01978
0.959414
1.12934
0.805704
1.1029
1.00538
0.753231
1.08544
0.924139
0.956613
0.995564
0.975698
0.782904
0.925038
1.14966
0.868125
1.10959
0.822466
0.822317
1.00936
1.04511
1.10807
0.91612
0.898336
1.21287
1.03764
1.11088
1.01089
0.917837
0.89566
0.821315
1.04898
1.111
1.1464
1.04801
0.90958
1.04382
1.00857
1.0457
0.911177
1.12257
0.864108
0.927892
1.30174
0.902833
0.816916
0.985161
0.929921
1.05179
0.904342
1.03011
0.869257
1.1256
1.092
1.12372
0.820047
0.896308
1.13043
0.803385
1.04083
1.04598
0.962437
0.925526
1.11503
0.828287
0.897791
1.23783
0.801375
0.904146
1.04992
0.807826
0.889715
1.09484
1.31167
0.889632
0.958378
0.771952
0.996127
0.983178
1.05138
0.806059
1.0684
1.06746
1.10594
0.825103
0.980951
0.888593
1.09906
1.09553
0.818975
1.07866
1.06489
0.928808
0.890742
1.20086
1.10337
0.902221
0.911282
0.818158
0.980307
0.827078
1.0435
0.883167
0.977022
0.839889
1.05959
1.12857
0.844502
0.780812
0.824973
0.982278
0.883476
1.12505
0.950906
0.749737
0.924817
1.06728
0.898339
0.869813
1.06844
0.919153
1.08686
0.909433
0.839816
0.92929
1.23192
0.93273
1.09967
0.874175
0.960629
0.915947
1.02911
1.11421
1.0901
0.887382
0.835594
0.877
1.03388
0.981981
0.839736
0.980554
0.970354
0.971296
1.08807
1.11815
1.11829
0.702835
0.839271
0.870362
0.870225
0.834882
1.08275
1.129
1.07161
0.963115
1.12876
1.08176
0.855303
0.833095
1.00242
1.08034
0.855037
0.833973
0.857258
0.858794
0.993974
0.79816
1.1081
0.835269
0.858215
0.85268
0.797502
1.10215
0.855975
0.87989
1.1287
0.887607
1.11249
1.07703
1.10841
0.806584
0.878531
0.950537
0.852472
1.10552
0.804825
1.12312
1.13022
0.854786
1.11235
1.1663
0.997447
0.869437
1.15266
0.949652
0.849284
0.868309
1.07179
1.10646
1.14158
1.12411
0.879232
1.07001
0.95944
0.842466
1.24671
0.944104
0.842013
1.07764
0.876586
1.09269
1.05667
1.10917
0.883369
0.833787
0.837245
1.05151
0.971407
0.881768
0.874713
1.12822
1.13293
1.01326
0.962421
1.04546
0.826166
0.893282
1.05738
1.12577
1.11834
1.1253
1.11505
0.826497
1.1258
0.872905
0.890705
1.04116
1.00893
0.868423
1.05285
0.827518
0.660937
1.15191
0.812027
0.982126
1.11889
1.06671
1.01001
1.01597
1.12476
1.03487
1.04655
1.02943
1.10399
0.873548
0.900576
0.997137
1.023
1.13435
1.04259
0.809643
1.01271
1.02954
1.12348
0.89828
1.13117
0.871942
1.13512
0.919731
1.02436
0.864142
1.12517
0.77992
1.03556
1.1294
0.940886
0.671785
1.01288
1.07981
1.12351
0.917028
1.12873
0.776757
0.796709
0.911766
0.708989
1.03162
1.00957
1.12651
0.949946
0.825371
1.18756
0.777763
1.01441
1.2488
0.910729
0.882875
0.90719
0.935319
1.02452
0.892334
0.885109
1.13016
1.12979
0.790049
0.946689
0.822035
0.997405
0.923542
1.00587
1.01566
1.05735
0.921408
1.10803
0.832687
0.928828
0.999879
0.982624
0.899246
0.830395
0.820819
1.02229
1.00741
0.959112
0.927303
0.890192
1.1832
1.07075
0.778154
0.852255
0.993545
0.816095
0.781483
1.12934
0.86653
1.07748
1.12877
0.948995
0.943234
1.00113
0.82448
1.09215
1.12169
0.848295
1.03896
1.1468
0.987544
1.08382
0.94032
0.868744
1.12907
1.32338
1.07832
0.941682
1.08499
0.892632
1.04833
1.13582
0.995074
0.907036
0.938287
1.12549
0.696492
1.1493
1.13907
0.890865
1.22155
0.948539
0.892553
1.18521
0.946199
0.846847
0.812846
1.03807
0.976901
0.988807
0.924563
0.945948
0.944438
1.00259
0.849011
0.974721
0.823237
1.14782
1.01876
1.08747
1.1024
0.788279
0.956252
0.953556
1.18074
0.787624
0.815362
1.15231
0.940493
0.979163
0.782078
0.873813
0.846638
0.978338
0.913236
0.837208
1.13178
0.829562
0.951558
1.08198
1.13092
1.13045
0.955335
0.842065
0.960662
0.830993
0.893723
1.14926
0.960007
0.973967
0.929777
0.962905
0.821167
1.13597
1.10478
1.00868
0.958251
0.956618
0.824299
0.932406
1.07887
1.1286
0.845186
0.959787
0.780949
0.966803
0.949297
0.780449
0.783318
0.782934
1.16331
0.960238
0.780359
0.918925
1.08588
0.925516
0.969142
1.20703
1.12936
0.970001
1.12612
1.04552
1.07461
0.841458
1.05062
0.937471
1.05966
0.853134
0.918522
0.946372
1.02255
1.13296
1.12794
0.979328
0.983142
0.960765
0.968194
1.13592
0.950553
0.968691
0.935168
0.979085
0.775986
1.12978
1.05566
0.941621
1.13242
1.08483
1.02362
0.805739
0.922073
1.04602
0.837031
0.93896
0.925467
0.845068
1.02329
1.05972
0.892045
0.976789
0.999091
1.08396
0.986308
0.936631
0.937084
0.920192
1.00726
0.947585
1.07977
0.979486
1.05854
0.95551
0.943214
0.982479
1.12951
0.973164
0.926323
0.936136
0.913001
1.14146
0.977813
0.752702
1.08907
1.13998
0.922188
0.906067
0.959781
1.12902
1.07267
0.86984
1.1293
0.914389
0.987508
0.899592
1.12862
1.13251
0.95615
0.907616
1.13123
0.985649
1.12844
0.892993
0.982412
0.809628
1.13079
0.901076
1.13128
0.884663
0.956544
1.10677
0.925886
0.992162
0.894523
0.880127
1.09214
1.08481
1.08405
0.962572
0.990468
0.847836
0.886278
1.21846
0.870492
0.99481
0.952692
0.809198
1.02448
1.10912
1.13795
1.12629
1.08869
0.810348
1.13844
0.954516
1.02643
1.09312
0.881805
0.868037
0.944785
0.866017
1.00047
1.11533
0.860471
0.992941
0.978292
0.842669
0.871804
1.15586
1.02277
0.871302
0.900551
0.969074
1.11283
1.13412
0.998665
0.776678
0.856504
1.06085
1.33051
0.877786
0.767398
0.785346
1.10443
0.862827
0.997417
0.915908
0.972886
0.996138
1.10635
1.33332
0.843212
0.954582
1.00497
0.856925
1.08244
1.1302
0.995908
0.84003
0.915672
1.13603
0.950211
1.12445
1.1293
0.782573
1.00354
1.07498
0.844592
1.05023
0.963928
1.11126
0.849663
0.968116
1.00731
0.827558
1.14277
0.841428
1.01828
0.776175
1.14824
1.02803
0.863716
0.985189
1.13066
1.01291
0.93136
1.01097
1.07949
1.15571
0.815701
0.842743
0.827719
1.04351
0.982584
1.00524
1.01083
1.10753
1.07944
0.930757
1.15682
0.695153
0.81756
0.810886
0.834441
1.02271
1.13008
0.756075
1.08814
1.01112
0.922689
1.05887
1.08029
1.03197
0.961567
0.965477
0.944187
0.703377
1.06013
1.13653
1.00831
0.96876
0.991066
0.854578
1.07528
0.995225
1.00978
1.02433
1.02064
1.12883
0.985266
1.08931
1.01897
1.12879
1.11666
1.31146
1.11252
1.01905
0.911193
1.12745
1.30998
0.995148
1.05248
0.825601
1.07564
0.921885
1.1403
1.01929
1.01035
1.13357
1.01725
1.09134
1.0787
0.937921
0.996333
0.77056
0.988795
1.12745
1.05131
0.947599
1.17938
1.02782
0.973214
1.12646
0.767436
0.969383
1.0305
0.7686
1.1312
1.12984
0.781968
1.17229
1.13608
1.23457
0.950915
1.0058
1.23074
1.02401
0.697905
1.02916
0.871701
0.90569
0.846392
0.800894
0.800702
0.957222
1.00142
0.846519
0.983667
0.86161
1.09076
1.08016
1.02246
0.892447
1.09993
1.09012
0.798708
1.15399
1.03635
0.941148
1.21645
1.14428
1.00793
1.03456
0.94327
0.97863
0.996483
1.07995
1.03131
0.925772
1.10054
0.673608
1.00771
0.950035
0.963391
0.966206
0.946653
1.04295
0.776605
0.769953
0.955148
0.73465
1.02966
1.02327
1.13906
0.986026
1.13078
1.03236
0.784277
1.06641
1.06605
1.12931
0.984186
0.985931
0.774734
0.836482
1.0195
0.971266
0.709171
1.08413
1.08804
0.817742
1.04523
0.995711
0.916519
1.04458
1.08392
1.08319
1.08468
1.14985
0.937562
1.01673
1.03429
0.982382
0.954076
1.04307
0.868571
1.06792
0.958257
1.07033
0.910576
0.926692
0.78527
1.08337
1.1295
0.764232
1.12858
0.922823
0.863214
0.886334
0.860991
0.832245
0.88006
0.889312
1.1426
1.15261
1.13549
1.18032
0.826277
1.02075
0.836602
1.04547
1.0017
0.9234
0.85817
1.12434
1.00656
0.886389
0.741068
1.13245
0.768678
1.01944
0.902203
0.835306
0.961965
0.8275
0.960506
0.835015
1.13439
1.06848
0.959433
0.729401
1.05294
0.956127
1.01074
0.802552
0.798109
1.11484
1.17797
0.911166
0.948015
1.0516
0.782273
1.13417
1.1292
0.905275
1.11594
1.13078
0.961738
0.983079
0.779964
0.9939
0.724679
0.941687
0.948073
1.0326
1.12663
1.13468
1.11388
0.819502
0.838018
0.813072
0.961126
1.1303
0.953585
0.744695
0.828183
0.771689
0.81078
0.747029
1.13038
0.981276
0.959431
0.942327
1.0308
0.796517
1.13045
1.13139
1.10018
0.933647
1.03346
0.950299
0.969403
0.955361
0.809808
1.23668
1.13051
0.84525
0.842972
1.03148
1.13315
0.827677
0.830957
0.907694
1.09165
0.795369
0.966584
0.859435
0.98501
0.782288
0.970339
1.0104
1.1258
0.979183
0.950258
1.04946
1.09314
0.820002
0.728681
0.723579
0.841085
0.959927
0.872587
0.769297
0.865946
1.06067
0.981187
1.1363
0.93892
1.13443
1.04771
0.959455
0.759092
1.05995
0.82362
1.03333
0.962108
1.13395
1.01042
0.954245
1.08921
0.964031
0.764529
0.86269
0.964292
0.971265
0.994063
0.917525
1.03124
0.939998
0.950122
0.772131
0.96172
1.11087
0.959095
0.871753
0.862589
0.902388
0.77689
1.08373
0.726666
0.982364
0.765417
1.05589
1.09944
0.728123
1.11121
0.993272
0.983299
0.966586
0.966721
0.957589
0.839937
0.98828
0.894157
0.956587
1.05476
0.8597
0.895785
1.16693
0.886104
0.789094
1.12039
0.727258
0.896505
1.07602
0.935146
1.12036
0.807296
0.806777
1.06905
0.965054
0.964299
1.13675
0.910246
1.13671
0.864633
0.900115
0.894767
0.995693
1.06796
0.704982
1.14319
0.906738
1.14816
0.917961
1.07681
0.936426
1.03369
0.968112
0.96774
0.804101
0.970795
0.859512
0.804145
0.856854
1.08248
0.724992
1.06036
0.835152
0.98258
0.957695
0.917294
1.05733
0.76414
1.04276
0.993581
1.07054
0.969668
1.02664
0.903738
0.958124
0.880814
1.05881
0.914297
1.11156
0.725529
1.12057
1.0438
0.966399
0.828325
1.20424
0.966802
0.985295
1.0308
1.07224
1.01851
1.14615
1.03523
0.947012
0.77314
0.912591
0.779945
0.948618
1.06517
1.07567
1.11392
0.956214
0.884458
1.00549
1.25085
1.03233
0.953289
0.823953
1.01934
0.957253
1.06601
1.00824
0.842505
1.02515
1.07403
0.782683
0.773543
0.736026
0.939491
0.932285
1.06438
1.06492
0.767808
1.01903
1.009
1.06658
0.993021
0.936879
0.91689
0.763797
1.07445
0.905492
1.03982
1.06566
0.968418
0.805372
1.08644
1.00425
1.12635
0.93026
1.06583
0.975778
0.880712
1.14017
1.01405
0.989176
0.995521
0.936521
0.919613
0.955024
0.946943
1.05539
0.869726
0.958149
0.954025
0.914377
0.967674
0.944578
0.971246
1.09136
0.969527
0.940043
0.929465
1.07093
0.951235
0.958619
0.942835
1.05558
0.842057
0.98981
0.723056
0.950746
0.9439
1.06948
0.953014
0.981548
1.13433
0.996206
0.85261
0.983009
0.778444
0.955896
1.05658
0.777159
0.947309
0.968146
0.962071
0.900991
0.98562
1.00227
0.95261
0.934384
1.13573
1.08338
0.942216
1.00571
1.14943