/*--------------------------------*- C++ -*----------------------------------*\
  =========                 |
  \\      /  F ield         | OpenFOAM: The Open Source CFD Toolbox
   \\    /   O peration     | Website:  https://openfoam.org
    \\  /    A nd           | Version:  12
     \\/     M anipulation  |
\*---------------------------------------------------------------------------*/
FoamFile
{
    format      ascii;
    class       volScalarField;
    location    "28.5";
    object      p;
}
// * * * * * * * * * * * * * * * * * * * * * * * * * * * * * * * * * * * * * //

dimensions      [1 -1 -2 0 0 0 0];

internalField   nonuniform List<scalar> 
9801
(
0.58665
0.639105
0.750721
0.818259
0.843418
0.853024
0.844477
0.805167
0.754925
0.720971
0.700638
0.688161
0.683485
0.684025
0.687016
0.691695
0.704114
0.75347
0.844224
0.897723
0.914804
0.918895
0.898794
0.840622
0.788315
0.76326
0.753068
0.750101
0.751256
0.754249
0.757932
0.763468
0.775719
0.819782
0.918627
0.989717
1.01419
1.0243
1.02667
1.00275
0.932193
0.86593
0.836788
0.830672
0.832395
0.836467
0.843866
0.871118
0.959026
1.04527
1.08087
1.09657
1.10719
1.11008
1.09262
1.03867
0.974174
0.944427
0.9438
0.950465
0.961983
0.984517
1.05273
1.13761
1.17913
1.1972
1.21024
1.21837
1.19005
1.14031
1.11827
1.11836
1.1257
1.1431
1.18503
1.22066
1.24053
1.25452
1.26609
1.27554
1.25849
1.23834
1.24264
1.26002
1.28677
1.34623
1.41301
1.4557
1.48584
1.51824
1.5525
1.55784
1.51624
1.49642
1.51886
1.60705
1.85587
5.16292
36.4503
0.629883
0.678458
0.728377
0.78497
0.812287
0.812999
0.797354
0.781254
0.771241
0.750546
0.724048
0.707093
0.700327
0.700527
0.704262
0.716258
0.741663
0.776793
0.831723
0.880406
0.89359
0.886482
0.871358
0.854198
0.81745
0.785623
0.771589
0.766556
0.767494
0.770794
0.776992
0.791806
0.817269
0.858647
0.923449
0.981718
1.00493
1.00943
0.997464
0.968216
0.917806
0.869186
0.845724
0.842382
0.84547
0.851613
0.866446
0.913662
0.987031
1.04184
1.06935
1.08093
1.07824
1.064
1.0412
1.00671
0.976536
0.962463
0.962213
0.967816
0.977003
1.00679
1.0763
1.13507
1.16668
1.18361
1.19629
1.19799
1.16582
1.12845
1.11669
1.12094
1.12881
1.14715
1.18905
1.22391
1.24577
1.26118
1.2741
1.28486
1.27058
1.24833
1.24811
1.26283
1.28477
1.32737
1.397
1.45597
1.50106
1.5382
1.57242
1.57244
1.53451
1.51119
1.51736
1.5747
1.66724
4.66428
36.8639
0.672627
0.706101
0.715103
0.727708
0.7448
0.761719
0.771773
0.775624
0.776653
0.775184
0.757475
0.725758
0.712896
0.715469
0.72928
0.755735
0.775195
0.783607
0.797033
0.823985
0.849589
0.86023
0.862266
0.861921
0.855162
0.820144
0.786895
0.777886
0.780332
0.786931
0.805149
0.829829
0.850474
0.874455
0.915218
0.951111
0.965631
0.963672
0.956466
0.948639
0.922313
0.879704
0.857563
0.855789
0.859961
0.873609
0.907516
0.951547
0.99606
1.02407
1.03427
1.03153
1.02223
1.01514
1.00787
0.994602
0.980769
0.976988
0.979064
0.984258
0.993881
1.03128
1.08985
1.12664
1.14361
1.15595
1.16552
1.15595
1.12775
1.1088
1.10561
1.11137
1.12071
1.14387
1.18678
1.22142
1.24706
1.26798
1.28594
1.30107
1.28989
1.26122
1.25274
1.26391
1.28565
1.31976
1.39704
1.47472
1.52044
1.55454
1.58904
1.59143
1.56362
1.54458
1.54348
1.58194
1.58909
4.40169
37.0351
0.709189
0.720939
0.718393
0.692802
0.678558
0.688897
0.729952
0.763606
0.773367
0.775139
0.777974
0.778438
0.77029
0.769729
0.77663
0.784225
0.788608
0.783057
0.762779
0.757594
0.783662
0.831925
0.858006
0.866789
0.870823
0.863812
0.828738
0.809707
0.81215
0.825462
0.845311
0.858294
0.868095
0.879348
0.891208
0.906103
0.922304
0.932414
0.937278
0.939732
0.930472
0.898615
0.87867
0.879121
0.890792
0.915501
0.937123
0.960298
0.981536
0.990662
0.991881
0.990903
0.993202
0.997762
0.999903
0.999377
0.99773
0.995099
0.995641
1.00016
1.00973
1.04606
1.08915
1.10845
1.12039
1.13163
1.13963
1.12788
1.10344
1.08916
1.08784
1.09491
1.10606
1.13192
1.18372
1.22708
1.25691
1.28151
1.30328
1.32123
1.31337
1.27967
1.25885
1.26136
1.27998
1.3073
1.36301
1.44764
1.51052
1.55404
1.59484
1.61285
1.5918
1.56643
1.5429
1.55367
1.53048
4.20611
37.1722
0.742278
0.727675
0.694817
0.654526
0.638612
0.639876
0.66562
0.723089
0.762163
0.784036
0.80846
0.832078
0.841689
0.834153
0.817722
0.802147
0.776255
0.740537
0.723458
0.722114
0.73448
0.786879
0.84705
0.873157
0.882652
0.887693
0.882252
0.861574
0.852492
0.855359
0.861392
0.871003
0.876801
0.869404
0.855874
0.854984
0.878148
0.91222
0.929987
0.936201
0.940638
0.930907
0.918875
0.920954
0.930528
0.939634
0.945799
0.948238
0.947612
0.954602
0.96745
0.978874
0.989033
0.99808
1.0051
1.00409
1.00148
1.00145
1.00328
1.00861
1.01779
1.04786
1.08117
1.0995
1.11207
1.124
1.13167
1.11504
1.08155
1.06381
1.06556
1.07709
1.09225
1.12257
1.18405
1.24073
1.27424
1.29744
1.31812
1.33627
1.33283
1.30106
1.26766
1.25404
1.26407
1.28793
1.32606
1.40327
1.49289
1.55769
1.60585
1.64359
1.6396
1.61395
1.57481
1.54767
1.47124
4.08422
37.1863
0.79292
0.740984
0.667051
0.626514
0.616121
0.616282
0.622371
0.654166
0.730361
0.808803
0.858666
0.879236
0.887056
0.887197
0.867462
0.81247
0.742174
0.709321
0.7034
0.706187
0.712787
0.736659
0.80215
0.862229
0.890286
0.906638
0.917634
0.920359
0.904597
0.885203
0.876543
0.87271
0.86146
0.841678
0.829776
0.82926
0.841752
0.88178
0.920069
0.941233
0.956126
0.971054
0.975078
0.965936
0.957121
0.950059
0.935113
0.925366
0.926153
0.936672
0.959409
0.983888
0.999095
1.00789
1.0147
1.01397
1.00398
1.00083
1.00443
1.01094
1.02057
1.05012
1.08492
1.10307
1.11423
1.12384
1.12506
1.10479
1.07003
1.05272
1.05569
1.06825
1.08681
1.12093
1.18234
1.24861
1.28938
1.31292
1.33183
1.34837
1.34748
1.31889
1.283
1.26094
1.25664
1.26922
1.29498
1.34698
1.43566
1.51766
1.57464
1.61947
1.64221
1.63432
1.60889
1.5711
1.45115
3.9302
37.3343
0.818029
0.732484
0.649054
0.620695
0.61434
0.614893
0.617955
0.629236
0.688724
0.817408
0.88088
0.895562
0.902323
0.900682
0.865855
0.79057
0.732977
0.710777
0.707619
0.710811
0.717864
0.728202
0.753876
0.818396
0.88453
0.918873
0.933502
0.941286
0.942682
0.928005
0.901287
0.872306
0.840012
0.818887
0.812892
0.814538
0.819804
0.839638
0.895948
0.957171
0.991988
1.00583
1.01186
1.00507
0.979066
0.943134
0.92192
0.918046
0.92138
0.928273
0.949021
0.985985
1.01082
1.0212
1.02734
1.02396
1.00884
1.00316
1.00767
1.01547
1.028
1.05931
1.09439
1.11131
1.12013
1.12065
1.1124
1.09999
1.08162
1.06771
1.06827
1.07744
1.0922
1.12197
1.17407
1.23699
1.28758
1.31676
1.33537
1.34963
1.35567
1.33648
1.29845
1.26807
1.25673
1.26183
1.27835
1.31116
1.38236
1.46292
1.52092
1.56263
1.597
1.61215
1.60574
1.58192
1.47982
3.82826
37.5003
0.797463
0.705097
0.652756
0.631841
0.625209
0.625179
0.628762
0.643729
0.715883
0.822113
0.876486
0.893576
0.898374
0.878543
0.824738
0.774072
0.743856
0.727856
0.723131
0.725899
0.735929
0.750081
0.759622
0.776638
0.839132
0.909854
0.939827
0.95069
0.957093
0.956239
0.93438
0.879817
0.828679
0.806189
0.802327
0.804431
0.807995
0.820102
0.873408
0.958892
1.00252
1.01622
1.02413
1.01774
0.981962
0.943197
0.929093
0.928935
0.933102
0.94034
0.956294
0.986402
1.01223
1.02516
1.03075
1.02812
1.01765
1.01244
1.01721
1.02628
1.04277
1.07059
1.09964
1.1157
1.12161
1.11684
1.11136
1.11105
1.10547
1.09254
1.08977
1.09806
1.11796
1.14234
1.16059
1.19393
1.25165
1.30051
1.32769
1.34443
1.35665
1.35453
1.31912
1.27998
1.26275
1.2655
1.28454
1.3169
1.35528
1.40966
1.46348
1.5011
1.53013
1.55222
1.57015
1.56565
1.51051
3.82591
37.7531
0.749848
0.685746
0.664515
0.653142
0.646933
0.647058
0.661287
0.706825
0.764441
0.81202
0.844294
0.858035
0.853297
0.824009
0.79625
0.779237
0.765235
0.756216
0.754855
0.761309
0.769845
0.77332
0.775643
0.778246
0.798828
0.875045
0.933129
0.95225
0.961497
0.966044
0.951498
0.892074
0.829998
0.806675
0.803839
0.805793
0.811678
0.838477
0.903911
0.959676
0.991122
1.00878
1.01657
1.00329
0.973287
0.95286
0.942853
0.942752
0.947706
0.955612
0.972571
0.994081
1.00939
1.01863
1.0241
1.03001
1.03082
1.02948
1.0371
1.05028
1.06018
1.07183
1.08766
1.10312
1.1134
1.11891
1.12612
1.13368
1.13832
1.13699
1.13481
1.13928
1.14764
1.15093
1.15152
1.1621
1.19317
1.25698
1.30671
1.3308
1.34322
1.34771
1.33604
1.30535
1.28595
1.28631
1.3008
1.32175
1.34503
1.37382
1.41409
1.45195
1.48182
1.50695
1.52741
1.54056
1.52465
3.89979
38.0163
0.709211
0.685923
0.678866
0.676283
0.678776
0.697217
0.736921
0.770012
0.789805
0.804205
0.811681
0.808998
0.796362
0.786644
0.783
0.784721
0.787915
0.791914
0.798653
0.802155
0.794717
0.784624
0.782607
0.78473
0.799647
0.858655
0.918923
0.947556
0.960044
0.96775
0.948958
0.879481
0.83145
0.815531
0.813146
0.814946
0.82992
0.886276
0.936843
0.960079
0.9761
0.987361
0.983827
0.968028
0.962123
0.961986
0.962004
0.961969
0.964394
0.970025
0.980632
0.992009
1.0008
1.0107
1.02688
1.04017
1.05046
1.05568
1.05986
1.06386
1.06254
1.05839
1.06127
1.07779
1.10587
1.12852
1.14763
1.16325
1.17655
1.18584
1.18586
1.17989
1.17176
1.15776
1.14268
1.1415
1.15277
1.18438
1.24725
1.29451
1.31768
1.33154
1.34036
1.33692
1.32435
1.31844
1.32145
1.3281
1.33765
1.35208
1.37457
1.40779
1.44388
1.47639
1.50172
1.5176
1.51807
4.00728
38.1903
0.678684
0.679655
0.689644
0.700726
0.733964
0.769937
0.793704
0.80953
0.813245
0.805648
0.784907
0.769521
0.768061
0.773788
0.779091
0.786971
0.807495
0.825014
0.832185
0.823403
0.809635
0.800393
0.796666
0.797278
0.815441
0.876751
0.919864
0.939388
0.951597
0.952541
0.906802
0.851186
0.830063
0.825845
0.826113
0.832825
0.87787
0.935376
0.95697
0.965496
0.971586
0.963074
0.945781
0.942068
0.94763
0.957832
0.967041
0.973163
0.977624
0.980255
0.982675
0.988351
0.99867
1.01854
1.04034
1.05935
1.07376
1.08234
1.07683
1.06031
1.04374
1.03977
1.04567
1.05982
1.10005
1.1466
1.17261
1.1926
1.20751
1.2175
1.22234
1.2143
1.19474
1.17228
1.1533
1.14108
1.13697
1.1439
1.1689
1.22895
1.28303
1.31479
1.33525
1.35086
1.36107
1.36189
1.356
1.34835
1.33916
1.33657
1.34531
1.36518
1.39786
1.44263
1.48
1.49707
1.51312
4.10348
38.2499
0.676099
0.673873
0.697412
0.747089
0.776672
0.789051
0.798839
0.805313
0.801799
0.784646
0.769933
0.770079
0.775117
0.781843
0.796753
0.816676
0.832017
0.840931
0.836596
0.819311
0.804758
0.801676
0.803803
0.812426
0.857014
0.909447
0.93112
0.94166
0.945831
0.91224
0.851804
0.826838
0.824945
0.828989
0.83636
0.875612
0.936812
0.964579
0.973445
0.97494
0.958563
0.936374
0.930285
0.93401
0.942369
0.952697
0.96227
0.970119
0.972053
0.972465
0.97692
0.986262
1.00965
1.03813
1.06257
1.07895
1.08974
1.09687
1.08058
1.04641
1.03033
1.02956
1.03584
1.04848
1.08379
1.13955
1.18077
1.20423
1.22145
1.23649
1.24635
1.24638
1.22914
1.20068
1.17187
1.14745
1.13038
1.12518
1.13365
1.1578
1.21517
1.27612
1.32057
1.35441
1.37936
1.39459
1.39814
1.38774
1.36426
1.3377
1.32469
1.32579
1.34343
1.38031
1.43647
1.47317
1.50114
4.21178
38.302
0.700035
0.712704
0.746802
0.770217
0.77742
0.783495
0.782113
0.77153
0.766178
0.770341
0.778785
0.786039
0.796629
0.813973
0.83164
0.843091
0.849431
0.845297
0.820169
0.801961
0.800009
0.803662
0.808891
0.836798
0.899845
0.934341
0.944322
0.946064
0.918664
0.85701
0.822549
0.81759
0.822263
0.830495
0.869201
0.936729
0.969187
0.978161
0.979058
0.960897
0.934996
0.924674
0.926555
0.93526
0.944884
0.953165
0.960559
0.96263
0.963596
0.968526
0.975976
0.988329
1.02292
1.0648
1.08567
1.09439
1.1
1.09614
1.07131
1.04561
1.03362
1.03234
1.03727
1.05167
1.06991
1.09525
1.14079
1.18737
1.22276
1.24599
1.26144
1.27273
1.27285
1.24196
1.1946
1.15455
1.1322
1.12472
1.12659
1.13794
1.16153
1.21735
1.2895
1.34882
1.3847
1.40552
1.41611
1.41783
1.39877
1.35994
1.32192
1.30386
1.30299
1.3162
1.37045
1.42782
1.4699
4.31101
38.4144
0.745773
0.756601
0.768208
0.771488
0.765677
0.748388
0.732015
0.726941
0.730889
0.748383
0.780329
0.811906
0.839803
0.855947
0.862322
0.864811
0.860932
0.831886
0.797742
0.790176
0.794051
0.800858
0.823565
0.875149
0.916127
0.935591
0.938412
0.918778
0.868406
0.828765
0.817592
0.819436
0.82573
0.865505
0.935584
0.971492
0.982028
0.980304
0.957516
0.931052
0.919927
0.919824
0.927385
0.943298
0.954803
0.962459
0.966699
0.960697
0.962927
0.972405
0.981767
0.994551
1.03019
1.0753
1.09821
1.10665
1.11138
1.10213
1.07675
1.0548
1.0448
1.04439
1.05101
1.05749
1.05682
1.05913
1.07547
1.1304
1.20201
1.24737
1.27207
1.28687
1.29358
1.28161
1.22926
1.17071
1.13742
1.12776
1.13229
1.1434
1.15947
1.18223
1.24248
1.32395
1.37787
1.40375
1.41781
1.42198
1.41247
1.38465
1.3404
1.29839
1.27957
1.28081
1.30933
1.36367
1.416
4.3924
38.5882
0.799461
0.789717
0.774873
0.753412
0.727444
0.708771
0.703074
0.705535
0.71149
0.724822
0.767197
0.83177
0.874001
0.889533
0.893405
0.890542
0.868286
0.820773
0.796963
0.793696
0.798396
0.820907
0.861079
0.888612
0.906738
0.911512
0.896101
0.869337
0.844164
0.826939
0.824368
0.832052
0.877166
0.941238
0.973824
0.985607
0.981162
0.947925
0.916537
0.907088
0.909291
0.920199
0.939286
0.959086
0.976274
0.989544
0.998536
0.992538
0.973905
0.966894
0.971372
0.979902
1.00719
1.05957
1.09028
1.10089
1.10711
1.10583
1.09774
1.08495
1.07271
1.06561
1.06195
1.05294
1.04063
1.03877
1.04665
1.07136
1.15241
1.23662
1.2709
1.28505
1.28898
1.27814
1.25089
1.19971
1.15842
1.14384
1.14754
1.16118
1.17724
1.19368
1.21737
1.27825
1.35055
1.39134
1.40946
1.41888
1.41338
1.3885
1.35678
1.31625
1.27934
1.26058
1.26768
1.30808
1.36522
4.40671
38.7391
0.857648
0.835342
0.771024
0.726071
0.695012
0.685121
0.686262
0.692095
0.70088
0.71502
0.752643
0.831604
0.88283
0.897321
0.90092
0.892547
0.861484
0.830381
0.812492
0.814991
0.834248
0.865393
0.87993
0.883926
0.874367
0.851306
0.838901
0.836804
0.838025
0.840944
0.850261
0.899341
0.955681
0.981023
0.991034
0.987516
0.944986
0.898976
0.883991
0.885027
0.894607
0.920973
0.957811
0.991178
1.01632
1.03159
1.04048
1.02213
0.976464
0.95408
0.950386
0.953795
0.964767
1.01601
1.07422
1.09905
1.11207
1.12217
1.12022
1.11304
1.10139
1.08126
1.05737
1.03997
1.03324
1.03603
1.04683
1.06671
1.10076
1.17675
1.23564
1.25637
1.25634
1.24832
1.23878
1.22139
1.19866
1.18559
1.18508
1.19037
1.19705
1.20524
1.21671
1.24032
1.30425
1.36245
1.39029
1.40396
1.40793
1.38821
1.36249
1.33785
1.3048
1.27338
1.2557
1.26763
1.33417
4.39401
38.8546
0.877693
0.878439
0.79467
0.717188
0.688629
0.684497
0.686583
0.694594
0.716788
0.746344
0.770854
0.803445
0.852499
0.874605
0.876224
0.869873
0.868274
0.86318
0.862835
0.869075
0.878482
0.885041
0.882707
0.852844
0.815481
0.800484
0.801415
0.811934
0.82818
0.857163
0.924075
0.976048
0.993143
0.999171
0.998079
0.956467
0.893537
0.866592
0.864419
0.869287
0.881084
0.922303
0.990426
1.03799
1.0562
1.06335
1.06262
1.03068
0.97163
0.939628
0.93388
0.935585
0.942818
0.972337
1.04162
1.0965
1.11788
1.12515
1.12285
1.12133
1.11999
1.10466
1.07022
1.04751
1.04135
1.04639
1.06365
1.07729
1.08753
1.10829
1.15849
1.20031
1.21847
1.22629
1.2315
1.23295
1.233
1.2363
1.23722
1.22923
1.2168
1.20893
1.21147
1.22347
1.25593
1.31939
1.36169
1.381
1.38929
1.3783
1.36186
1.34774
1.33362
1.30994
1.2834
1.2617
1.30553
4.35223
38.9139
0.86561
0.847186
0.778433
0.729016
0.703878
0.700742
0.709877
0.732708
0.758437
0.770816
0.773977
0.774617
0.784264
0.821108
0.848681
0.865439
0.888829
0.912485
0.923034
0.920887
0.910936
0.890113
0.845115
0.797903
0.776595
0.77307
0.776133
0.786963
0.823467
0.915876
0.987005
1.00712
1.01363
1.01376
0.980511
0.904557
0.857627
0.847399
0.850172
0.85561
0.868845
0.930548
1.0282
1.06735
1.07761
1.082
1.06769
1.01466
0.957913
0.934042
0.931083
0.934169
0.951442
0.98576
1.01423
1.05257
1.09175
1.11031
1.11678
1.11586
1.11389
1.1191
1.11121
1.08722
1.07364
1.07137
1.07561
1.07964
1.07976
1.08104
1.09359
1.13363
1.17757
1.20355
1.21937
1.23314
1.25213
1.26946
1.27676
1.27495
1.25106
1.21961
1.20794
1.21477
1.22602
1.2649
1.31585
1.34332
1.35664
1.35927
1.35126
1.35128
1.35222
1.34998
1.33879
1.30136
1.26985
4.29542
38.9636
0.813649
0.806606
0.788628
0.76533
0.755265
0.756706
0.76406
0.771469
0.776287
0.776925
0.765019
0.7508
0.748452
0.761728
0.812665
0.882212
0.928931
0.94922
0.957242
0.958938
0.939852
0.876089
0.801781
0.769421
0.763586
0.765526
0.770072
0.78722
0.865344
0.962884
0.997365
1.00825
1.01499
1.00209
0.936175
0.871672
0.844609
0.838959
0.84151
0.845828
0.863391
0.949759
1.03802
1.06946
1.0796
1.08086
1.04662
0.989236
0.952913
0.937197
0.935699
0.944183
0.98056
1.01018
1.01792
1.01833
1.02307
1.04813
1.08424
1.10647
1.12259
1.13755
1.14887
1.14741
1.12095
1.09168
1.07436
1.0701
1.07233
1.07509
1.07946
1.09189
1.12407
1.16452
1.1957
1.2247
1.25249
1.27174
1.28309
1.29095
1.28489
1.2477
1.21483
1.20577
1.21093
1.22173
1.25344
1.28524
1.30737
1.32422
1.33822
1.35475
1.37669
1.38504
1.38104
1.35081
1.28017
4.21274
38.9838
0.761685
0.784268
0.796649
0.811447
0.823089
0.822771
0.813954
0.802025
0.784287
0.760462
0.741589
0.735376
0.736282
0.740828
0.779342
0.878586
0.939274
0.954181
0.962245
0.96202
0.924796
0.83824
0.779085
0.762885
0.762613
0.765742
0.775221
0.826009
0.922496
0.972603
0.992644
1.0008
0.992556
0.946698
0.898221
0.865968
0.845201
0.839469
0.842982
0.855934
0.903973
0.969556
1.02384
1.05172
1.05885
1.04426
1.00155
0.973376
0.961963
0.955572
0.958616
0.981167
1.00947
1.02098
1.01835
0.991344
0.976369
0.985868
1.03164
1.09848
1.14035
1.16614
1.18255
1.18994
1.17751
1.13461
1.09747
1.08353
1.08359
1.08639
1.08839
1.09126
1.10017
1.11723
1.1467
1.18818
1.22924
1.25572
1.27359
1.28514
1.29066
1.27271
1.23356
1.20543
1.1967
1.19833
1.20488
1.22399
1.24643
1.28155
1.32266
1.36006
1.38604
1.40062
1.40351
1.3855
1.32831
4.13471
39.0425
0.71404
0.763682
0.813094
0.848724
0.859209
0.862822
0.85954
0.841758
0.802653
0.75296
0.73375
0.732622
0.735111
0.745815
0.799379
0.888031
0.929855
0.945448
0.953189
0.93669
0.866947
0.806198
0.778502
0.767144
0.766486
0.77026
0.802166
0.891284
0.949551
0.969436
0.974702
0.967076
0.933725
0.904119
0.886734
0.869672
0.858672
0.859126
0.870013
0.905628
0.943317
0.9656
0.986347
1.00277
1.00743
0.997244
0.980123
0.975949
0.979788
0.988487
1.01005
1.0288
1.03481
1.03009
1.00522
0.970001
0.957452
0.961873
0.977276
1.0461
1.13427
1.17594
1.19185
1.19953
1.20008
1.18105
1.14916
1.13058
1.12502
1.1223
1.11753
1.11206
1.10372
1.09841
1.10281
1.12668
1.18002
1.23042
1.26104
1.27849
1.2882
1.28112
1.25488
1.22079
1.1956
1.18333
1.18163
1.18378
1.19388
1.22617
1.29196
1.34393
1.37719
1.398
1.40567
1.39283
1.37553
4.1041
39.2265
0.699057
0.756911
0.824942
0.852827
0.862663
0.868169
0.866785
0.846427
0.792467
0.753416
0.740523
0.739243
0.743045
0.772339
0.844766
0.892067
0.912245
0.921015
0.915479
0.867255
0.813964
0.787271
0.777236
0.775167
0.778337
0.801825
0.871073
0.923699
0.94712
0.95351
0.945323
0.920488
0.898338
0.88776
0.883677
0.882124
0.884866
0.894082
0.918596
0.94372
0.954244
0.958781
0.955091
0.950297
0.955492
0.970575
0.982358
0.989859
1.0078
1.04504
1.07356
1.08299
1.07422
1.04206
0.993812
0.962698
0.956641
0.961606
0.971245
0.999253
1.08443
1.15878
1.18663
1.19349
1.19487
1.19901
1.19901
1.19393
1.18223
1.16377
1.14301
1.12049
1.09652
1.0824
1.08116
1.08891
1.12378
1.19584
1.24893
1.27266
1.28537
1.28737
1.27201
1.25166
1.22305
1.19341
1.17027
1.15484
1.14974
1.16347
1.23266
1.31275
1.35574
1.3824
1.3945
1.38761
1.39683
4.11681
39.4701
0.718025
0.783125
0.820218
0.841499
0.851065
0.853719
0.842801
0.814023
0.784939
0.765316
0.757314
0.759233
0.778616
0.83251
0.874329
0.892323
0.896141
0.890378
0.856402
0.816801
0.793656
0.781225
0.779641
0.785238
0.810326
0.875186
0.916854
0.929258
0.93207
0.922477
0.906721
0.898634
0.894864
0.894557
0.896941
0.905905
0.921747
0.942026
0.959315
0.966995
0.962449
0.944036
0.923415
0.913612
0.916915
0.938694
0.976299
1.01007
1.05827
1.10695
1.12787
1.13561
1.11745
1.05796
0.999146
0.967914
0.960286
0.9639
0.976214
0.996718
1.03177
1.09781
1.15226
1.17833
1.19483
1.21374
1.22911
1.23382
1.22914
1.21046
1.17392
1.12489
1.08476
1.06886
1.06838
1.07382
1.09154
1.16048
1.23297
1.26776
1.28416
1.29215
1.28314
1.27337
1.26289
1.22702
1.17664
1.13355
1.11125
1.11775
1.16512
1.25635
1.32267
1.35258
1.36995
1.37424
1.39385
4.15007
39.7069
0.760437
0.795986
0.816304
0.826038
0.826311
0.816773
0.803781
0.789365
0.776909
0.776206
0.782352
0.804937
0.844203
0.871693
0.885227
0.885368
0.8785
0.850923
0.81739
0.795058
0.786137
0.786213
0.791759
0.814311
0.874966
0.918313
0.9329
0.932248
0.908185
0.885595
0.881153
0.889431
0.903879
0.915295
0.928405
0.945979
0.963001
0.974256
0.980305
0.979722
0.967181
0.935679
0.907886
0.90003
0.90264
0.912416
0.95409
1.03595
1.11727
1.15512
1.17057
1.17375
1.15526
1.09235
1.01466
0.977666
0.966015
0.966899
0.9793
0.997651
1.01907
1.04815
1.09882
1.15227
1.18935
1.2168
1.23317
1.23862
1.23779
1.23401
1.20962
1.14175
1.0845
1.06578
1.06769
1.07432
1.09424
1.15046
1.21478
1.2616
1.28478
1.29455
1.28684
1.27851
1.27829
1.26449
1.19825
1.13375
1.10617
1.1113
1.13069
1.18724
1.27387
1.31837
1.33668
1.34407
1.37695
4.17761
39.9256
0.780041
0.790247
0.79402
0.793961
0.788499
0.784029
0.784485
0.783858
0.786688
0.798529
0.830108
0.862762
0.87691
0.88128
0.881628
0.870916
0.847047
0.825305
0.8082
0.796368
0.792185
0.795964
0.818727
0.875662
0.91776
0.933685
0.938368
0.914781
0.87523
0.86032
0.861157
0.874867
0.907408
0.941155
0.971131
0.990625
0.999684
1.00241
0.991521
0.970232
0.946093
0.925193
0.908509
0.902829
0.905669
0.916227
0.959978
1.06082
1.13786
1.17059
1.18263
1.1725
1.13113
1.08079
1.03275
0.992713
0.97462
0.97563
0.99638
1.0252
1.05108
1.07243
1.08553
1.09301
1.12021
1.16597
1.19998
1.21245
1.21491
1.21162
1.19929
1.15556
1.10247
1.08002
1.08071
1.0943
1.14199
1.19374
1.22123
1.2407
1.2677
1.28069
1.27785
1.26903
1.26054
1.24623
1.22019
1.17282
1.13799
1.13504
1.14134
1.15503
1.21604
1.27158
1.29773
1.29848
1.34085
4.24385
40.1642
0.775087
0.753852
0.746102
0.75757
0.775288
0.78229
0.78893
0.800651
0.823299
0.849865
0.870977
0.880932
0.880483
0.875144
0.857369
0.834144
0.818386
0.811342
0.809521
0.808386
0.808422
0.823971
0.879653
0.926762
0.945217
0.952546
0.932011
0.882161
0.852814
0.847592
0.850745
0.85969
0.898932
0.965234
1.01503
1.03444
1.04178
1.0363
1.00492
0.96004
0.932681
0.920094
0.913584
0.911022
0.918642
0.960615
1.01155
1.0537
1.10895
1.14581
1.14988
1.12356
1.0875
1.05616
1.0337
1.01605
1.00511
1.01986
1.05805
1.0849
1.09647
1.09361
1.06443
1.04394
1.04245
1.06639
1.12645
1.1717
1.18663
1.19023
1.18427
1.15515
1.12843
1.11632
1.1208
1.15556
1.20399
1.22623
1.22618
1.22146
1.21761
1.22496
1.23664
1.24045
1.23526
1.23291
1.22896
1.21932
1.21035
1.20021
1.1813
1.17077
1.1823
1.21074
1.23127
1.22209
1.27098
4.38686
40.4327
0.738811
0.707617
0.705631
0.720181
0.757075
0.79169
0.825343
0.858922
0.877849
0.884694
0.88612
0.879657
0.863883
0.83769
0.814621
0.802519
0.799212
0.800973
0.805074
0.811775
0.834776
0.891698
0.938667
0.955797
0.963117
0.956498
0.907438
0.85627
0.837968
0.837122
0.840462
0.84691
0.883364
0.975318
1.02987
1.04828
1.05802
1.05421
1.00837
0.960086
0.93619
0.924893
0.921942
0.929955
0.970559
1.01643
1.03512
1.04127
1.04597
1.05171
1.06097
1.06338
1.05813
1.05441
1.05018
1.04415
1.06095
1.11157
1.13739
1.13958
1.12822
1.08818
1.03287
1.0031
0.996942
1.00429
1.04164
1.11586
1.15599
1.16777
1.16895
1.15211
1.14786
1.15981
1.19822
1.24115
1.25753
1.25531
1.23034
1.1894
1.15957
1.15807
1.18739
1.21385
1.22379
1.23637
1.26152
1.28798
1.29299
1.26998
1.23104
1.20064
1.17922
1.16571
1.15397
1.1316
1.16409
4.6536
40.4042
0.696139
0.678907
0.682242
0.688501
0.727379
0.81235
0.884821
0.912479
0.919998
0.916086
0.894352
0.861998
0.825811
0.797223
0.781351
0.776599
0.779291
0.786104
0.795199
0.819525
0.893684
0.965594
0.985722
0.989849
0.980535
0.937687
0.874001
0.836485
0.827151
0.828891
0.833272
0.850138
0.896591
0.961368
1.01966
1.04711
1.05485
1.03394
0.993979
0.965981
0.948465
0.940528
0.946642
0.983537
1.02243
1.03776
1.03809
1.02223
0.984209
0.959579
0.960996
0.985466
1.01387
1.03215
1.04235
1.07529
1.1498
1.19109
1.19408
1.18103
1.14365
1.06434
1.00027
0.976958
0.975302
0.982431
0.999346
1.05541
1.11437
1.13776
1.14842
1.15012
1.16307
1.21677
1.27695
1.29871
1.30034
1.27412
1.21358
1.14336
1.11044
1.1093
1.1383
1.19243
1.24023
1.28247
1.32062
1.33738
1.32896
1.30454
1.27475
1.23954
1.19585
1.14993
1.10921
1.07023
1.09668
4.89427
40.3291
0.670072
0.659088
0.663124
0.669385
0.712053
0.836628
0.915003
0.931322
0.938113
0.932932
0.898458
0.840923
0.801067
0.779066
0.765014
0.758667
0.759796
0.76448
0.776986
0.836062
0.951683
1.00281
1.01599
1.0212
1.00068
0.92093
0.854839
0.829684
0.824467
0.826289
0.836292
0.876483
0.922098
0.943633
0.966571
0.997624
1.00736
0.993616
0.980982
0.978408
0.977348
0.983411
1.01913
1.05085
1.05701
1.04744
1.01898
0.972445
0.933651
0.913591
0.909071
0.918459
0.945999
0.982789
1.03378
1.13401
1.21764
1.23901
1.23587
1.21861
1.15651
1.05501
0.995644
0.975684
0.975255
0.981911
0.995191
1.02585
1.0655
1.09739
1.11987
1.1428
1.19894
1.27304
1.30564
1.31754
1.31887
1.28752
1.19585
1.11539
1.08604
1.08469
1.10284
1.16402
1.25058
1.31208
1.34124
1.34702
1.33633
1.3091
1.28754
1.26656
1.22772
1.16491
1.10829
1.05461
1.06392
5.01645
40.1608
0.664294
0.653871
0.65981
0.674371
0.749947
0.863536
0.913883
0.930503
0.93712
0.917485
0.859083
0.817485
0.796003
0.778643
0.763467
0.756963
0.75827
0.762733
0.791352
0.881511
0.964239
1.0055
1.01821
1.0127
0.959358
0.894525
0.856166
0.837131
0.832847
0.836693
0.865368
0.914683
0.938675
0.943257
0.936831
0.915693
0.908886
0.92802
0.954876
0.975807
1.01259
1.06996
1.10477
1.10801
1.0849
1.03163
0.971387
0.927263
0.903188
0.890542
0.884725
0.885552
0.895161
0.919938
1.00474
1.15949
1.22617
1.24076
1.23709
1.19916
1.131
1.06966
1.02033
0.996105
0.992383
0.997812
1.00687
1.02159
1.03386
1.05037
1.08122
1.14674
1.24377
1.30222
1.32159
1.32516
1.30402
1.24554
1.17276
1.11638
1.0884
1.08754
1.11401
1.15372
1.2135
1.28451
1.3174
1.32243
1.31675
1.29968
1.27762
1.27229
1.2602
1.20673
1.14331
1.08574
1.06699
4.96583
40.0589
0.670723
0.661758
0.668485
0.724886
0.820781
0.871999
0.896807
0.907568
0.897323
0.853261
0.815364
0.800091
0.797451
0.794525
0.778562
0.767855
0.771662
0.797588
0.859529
0.906491
0.939345
0.964462
0.968874
0.948466
0.920021
0.89486
0.872216
0.861942
0.863042
0.88011
0.918168
0.944174
0.949952
0.94319
0.897132
0.844999
0.83202
0.845816
0.89734
0.977994
1.0769
1.14956
1.17054
1.16721
1.12198
1.02424
0.947872
0.913531
0.897696
0.888793
0.884048
0.887125
0.899366
0.936102
1.02761
1.13041
1.18967
1.20276
1.19245
1.15789
1.12094
1.09447
1.07082
1.04845
1.03259
1.02473
1.02221
1.02248
1.02143
1.02461
1.04197
1.12593
1.24293
1.29629
1.31328
1.30467
1.27056
1.23219
1.18362
1.13532
1.1096
1.11382
1.13341
1.14321
1.15836
1.2084
1.25708
1.27065
1.26755
1.26863
1.28053
1.28227
1.27638
1.24152
1.18007
1.11046
1.0536
4.83382
40.081
0.691825
0.689483
0.731369
0.817067
0.855658
0.8672
0.872311
0.85922
0.826595
0.805858
0.798261
0.797889
0.801068
0.805528
0.805862
0.805837
0.82498
0.868805
0.89914
0.907326
0.908596
0.894936
0.881603
0.884263
0.895413
0.901966
0.906239
0.91083
0.926394
0.948833
0.96087
0.96234
0.955689
0.91571
0.851614
0.815395
0.809345
0.8143
0.834169
0.940638
1.11073
1.171
1.18525
1.17154
1.09535
1.00872
0.95753
0.926981
0.910075
0.902447
0.904239
0.914523
0.940516
0.987763
1.03549
1.07615
1.10854
1.12764
1.1353
1.13766
1.12993
1.12175
1.11875
1.10717
1.07972
1.05124
1.03264
1.02417
1.02307
1.02731
1.05614
1.11736
1.19578
1.25443
1.27306
1.26759
1.2499
1.22666
1.19647
1.16572
1.14546
1.14403
1.1454
1.13874
1.13454
1.1389
1.18701
1.22556
1.23923
1.25506
1.28273
1.28559
1.27626
1.25384
1.20394
1.13628
1.07323
4.63319
40.1735
0.714059
0.752257
0.836555
0.872644
0.877534
0.870806
0.83486
0.789662
0.772373
0.772828
0.78167
0.793328
0.803901
0.817312
0.845211
0.879052
0.898758
0.904487
0.907528
0.903023
0.865812
0.82977
0.822061
0.83142
0.862974
0.904238
0.940213
0.980352
1.00129
1.00445
0.993611
0.967476
0.927492
0.868862
0.820856
0.803488
0.802276
0.808012
0.852598
0.969626
1.08371
1.14854
1.16422
1.12719
1.06196
1.01305
0.981052
0.959751
0.945828
0.939359
0.942028
0.956448
0.98601
1.01275
1.02798
1.03471
1.03678
1.05191
1.08396
1.11873
1.1392
1.15057
1.15648
1.14613
1.11593
1.08052
1.05121
1.03578
1.03224
1.04846
1.08775
1.10942
1.13229
1.18805
1.23056
1.24606
1.24525
1.23299
1.20977
1.18867
1.17404
1.16693
1.1506
1.13189
1.12024
1.11633
1.12833
1.18221
1.2218
1.24871
1.27263
1.27356
1.25871
1.24347
1.21033
1.16067
1.13321
4.47581
40.3855
0.75203
0.85163
0.891323
0.899551
0.897835
0.856648
0.785355
0.75185
0.746511
0.751855
0.768737
0.790055
0.822681
0.869867
0.910998
0.93108
0.937104
0.92946
0.903925
0.864637
0.826972
0.805953
0.801856
0.804982
0.818202
0.876391
0.967051
1.0181
1.03824
1.04325
1.03579
0.993018
0.910093
0.846019
0.815638
0.806071
0.809008
0.855379
0.932385
0.982029
1.02238
1.05965
1.069
1.05274
1.04143
1.03416
1.02083
1.00531
0.994616
0.991129
0.99608
1.00928
1.02197
1.02872
1.01812
0.999899
0.998246
1.00479
1.03043
1.09304
1.14129
1.16087
1.16994
1.15461
1.12212
1.0944
1.07095
1.05542
1.05219
1.08123
1.10914
1.11358
1.11502
1.12963
1.18373
1.22694
1.23923
1.22902
1.21657
1.20506
1.19085
1.18493
1.17305
1.15558
1.12933
1.1034
1.0991
1.12109
1.17696
1.22344
1.24443
1.24401
1.22176
1.20429
1.18606
1.1634
1.2025
4.43697
40.671
0.817169
0.887749
0.899011
0.901828
0.873954
0.801081
0.752786
0.73951
0.73912
0.743182
0.764611
0.819134
0.881865
0.914896
0.927092
0.933918
0.935169
0.917198
0.878259
0.846432
0.825815
0.811458
0.807147
0.81656
0.845487
0.881538
0.943731
1.01206
1.03835
1.03979
1.01647
0.967316
0.907169
0.85707
0.830848
0.82931
0.870365
0.935419
0.96594
0.976106
0.982051
0.966316
0.957103
0.974055
1.00612
1.02647
1.03138
1.03957
1.04776
1.05529
1.05713
1.05518
1.05281
1.03812
1.00807
0.991901
0.991973
0.996945
1.01168
1.06274
1.12665
1.15517
1.16626
1.14807
1.10812
1.08352
1.07718
1.07528
1.0834
1.12
1.13846
1.13605
1.12548
1.11677
1.1214
1.15284
1.18979
1.20373
1.20821
1.20857
1.21336
1.21224
1.20919
1.20062
1.16854
1.11357
1.08765
1.08636
1.10723
1.15762
1.1936
1.1989
1.18436
1.1673
1.17055
1.16341
1.22189
4.55107
40.9765
0.860225
0.886398
0.891904
0.870067
0.805451
0.75742
0.738691
0.735928
0.737768
0.743099
0.775604
0.860017
0.9179
0.939483
0.945432
0.933672
0.909232
0.877281
0.851377
0.83869
0.832591
0.829107
0.83856
0.864643
0.878177
0.881601
0.89033
0.934085
0.979251
0.988692
0.98001