/*--------------------------------*- C++ -*----------------------------------*\
  =========                 |
  \\      /  F ield         | OpenFOAM: The Open Source CFD Toolbox
   \\    /   O peration     | Website:  https://openfoam.org
    \\  /    A nd           | Version:  12
     \\/     M anipulation  |
\*---------------------------------------------------------------------------*/
FoamFile
{
    format      ascii;
    class       volScalarField;
    location    "0.3";
    object      p;
}
// * * * * * * * * * * * * * * * * * * * * * * * * * * * * * * * * * * * * * //

dimensions      [1 -1 -2 0 0 0 0];

internalField   nonuniform List<scalar> 
9801
(
0.886424
0.887516
0.8879
0.889787
0.891265
0.893793
0.895968
0.898602
0.90078
0.902903
0.904585
0.907351
0.910043
0.912546
0.914032
0.916009
0.917741
0.921532
0.924251
0.925903
0.927068
0.92925
0.932477
0.936266
0.938337
0.93925
0.940586
0.943415
0.947923
0.949897
0.950583
0.952571
0.956812
0.959482
0.960406
0.961909
0.966079
0.969226
0.969828
0.971607
0.976053
0.978954
0.979199
0.980211
0.981014
0.980832
0.979984
0.979785
0.980611
0.982116
0.984656
0.988202
0.990417
0.991164
0.991741
0.992183
0.993544
0.995689
0.99877
1.00147
1.00326
1.00359
1.00429
1.0059
1.00829
1.01119
1.01382
1.01477
1.01567
1.01731
1.02066
1.02328
1.02422
1.02667
1.02993
1.03114
1.03332
1.03636
1.03973
1.04303
1.04535
1.04701
1.04936
1.05243
1.05631
1.06116
1.06507
1.06898
1.07159
1.07422
1.07769
1.08287
1.09018
1.10108
1.11663
1.13497
1.15003
1.25375
1.79785
0.89081
0.892071
0.892599
0.894434
0.896045
0.898469
0.900683
0.903265
0.905429
0.907529
0.909363
0.912
0.914588
0.916992
0.91861
0.920532
0.922556
0.926127
0.928621
0.930509
0.931809
0.933724
0.936807
0.940353
0.942455
0.94385
0.945441
0.94827
0.951534
0.95383
0.955269
0.957493
0.960692
0.963257
0.965018
0.966926
0.970017
0.97283
0.974443
0.976755
0.980142
0.982568
0.983599
0.984304
0.984725
0.984399
0.983121
0.982923
0.984116
0.985757
0.987807
0.990558
0.993028
0.994727
0.995189
0.994929
0.996158
0.998302
1.0014
1.00421
1.00634
1.00667
1.00689
1.00852
1.01099
1.01392
1.01645
1.01769
1.01844
1.02009
1.02279
1.02594
1.02725
1.02837
1.03131
1.03412
1.03614
1.03879
1.04145
1.0437
1.04604
1.04908
1.05227
1.05505
1.05762
1.06151
1.06633
1.07048
1.07339
1.07667
1.08119
1.08619
1.09186
1.09945
1.10914
1.11813
1.12154
1.2074
1.74871
0.891733
0.89307
0.893873
0.895754
0.897511
0.899951
0.902184
0.904762
0.906891
0.908976
0.910874
0.913511
0.916055
0.918405
0.92007
0.921978
0.924114
0.927574
0.930018
0.931975
0.933308
0.93522
0.938213
0.941614
0.94371
0.945366
0.947067
0.949766
0.952735
0.955043
0.956868
0.959156
0.961994
0.964452
0.966478
0.968611
0.971422
0.973963
0.975906
0.97849
0.981648
0.983845
0.985105
0.986056
0.986495
0.986084
0.984919
0.984736
0.985889
0.987598
0.98964
0.992179
0.99467
0.996571
0.997303
0.99697
0.997969
1.00007
1.0033
1.00619
1.00827
1.0087
1.00894
1.0105
1.01296
1.0159
1.01833
1.01965
1.02048
1.02226
1.02495
1.028
1.02988
1.03082
1.03272
1.03562
1.03843
1.04062
1.04299
1.04544
1.04745
1.05011
1.05362
1.05699
1.05949
1.06225
1.06629
1.07099
1.0754
1.08012
1.08422
1.08782
1.09213
1.09845
1.10679
1.11691
1.12249
1.19471
1.68509
0.893799
0.895268
0.896305
0.898234
0.900135
0.902544
0.904781
0.9073
0.909419
0.911529
0.913544
0.916167
0.918632
0.920891
0.922598
0.924532
0.926803
0.930106
0.932532
0.934494
0.935939
0.937955
0.940806
0.943967
0.946067
0.947891
0.949805
0.95251
0.955299
0.957584
0.9595
0.961786
0.964393
0.966939
0.969135
0.971363
0.973863
0.976285
0.978486
0.981265
0.984225
0.986374
0.987764
0.988892
0.989429
0.988842
0.987541
0.987339
0.988379
0.990133
0.992342
0.994656
0.99685
0.998724
0.99982
0.999878
1.00071
1.00247
1.00549
1.00835
1.01033
1.01107
1.0115
1.0129
1.01519
1.01809
1.02041
1.02174
1.02266
1.02446
1.0271
1.02999
1.03198
1.03305
1.03485
1.0374
1.04028
1.0424
1.04383
1.04627
1.05007
1.05388
1.05598
1.05732
1.05986
1.06308
1.06725
1.07222
1.07702
1.08052
1.0841
1.08804
1.09289
1.09909
1.10625
1.11497
1.12006
1.18408
1.61853
0.895623
0.897196
0.89844
0.900451
0.90249
0.904849
0.907034
0.90943
0.911526
0.913701
0.915879
0.91852
0.9209
0.923046
0.924757
0.926706
0.929101
0.932283
0.934675
0.936626
0.938184
0.940344
0.94316
0.946074
0.94809
0.949932
0.952029
0.954901
0.957616
0.959801
0.961636
0.963949
0.966561
0.969138
0.971321
0.973588
0.976036
0.978438
0.980674
0.983455
0.9864
0.988659
0.990159
0.991356
0.992068
0.991531
0.98993
0.989579
0.990537
0.992271
0.994761
0.997113
0.998989
1.00058
1.00184
1.00255
1.00349
1.0049
1.00728
1.01016
1.01236
1.01362
1.01406
1.01506
1.01705
1.02003
1.02257
1.02415
1.02493
1.02628
1.02866
1.03169
1.03427
1.03604
1.03749
1.03922
1.04147
1.044
1.04617
1.04867
1.05206
1.05562
1.05716
1.05736
1.06033
1.06533
1.07065
1.07501
1.07809
1.08001
1.08301
1.08821
1.09448
1.10068
1.1069
1.1137
1.11706
1.17201
1.55332
0.897785
0.89941
0.900776
0.902865
0.905049
0.907432
0.909611
0.91187
0.913879
0.916029
0.918312
0.921022
0.923422
0.925508
0.927207
0.929119
0.931524
0.93462
0.93705
0.939023
0.940677
0.942849
0.94562
0.948428
0.950457
0.952325
0.954446
0.957237
0.959913
0.962125
0.964105
0.966491
0.969009
0.971437
0.973602
0.975998
0.978506
0.980878
0.983062
0.985814
0.988792
0.991172
0.992801
0.994088
0.994926
0.994549
0.992727
0.99214
0.992945
0.994478
0.996969
0.99961
1.0015
1.00293
1.00409
1.00484
1.00579
1.00719
1.00936
1.01227
1.01472
1.01623
1.01652
1.01718
1.01894
1.02193
1.02484
1.02672
1.02742
1.02828
1.03013
1.03288
1.03595
1.03835
1.03976
1.04105
1.04303
1.04567
1.04845
1.05076
1.05312
1.05628
1.05887
1.06028
1.06292
1.06665
1.07107
1.07514
1.07839
1.08076
1.08379
1.08856
1.09445
1.1004
1.10576
1.11144
1.1145
1.16137
1.49014
0.899875
0.901565
0.903015
0.905138
0.907414
0.90985
0.912094
0.914288
0.916227
0.918296
0.920578
0.92332
0.925808
0.927929
0.929663
0.931525
0.933863
0.936869
0.939384
0.941436
0.943164
0.945241
0.947914
0.950732
0.952913
0.954845
0.956868
0.959387
0.962018
0.964436
0.966701
0.969076
0.971396
0.973686
0.97594
0.978429
0.980901
0.983234
0.985474
0.988229
0.99114
0.993603
0.995416
0.996861
0.997827
0.9977
0.995796
0.994905
0.995473
0.996751
0.998918
1.00178
1.00401
1.00554
1.00653
1.00692
1.00769
1.00921
1.01158
1.01453
1.01694
1.01834
1.01864
1.01938
1.02106
1.02378
1.02676
1.02881
1.02984
1.0307
1.03225
1.03436
1.03698
1.03971
1.04179
1.04327
1.04508
1.0475
1.05012
1.05237
1.05428
1.05688
1.06033
1.06332
1.06531
1.06716
1.06962
1.07348
1.07818
1.08272
1.08614
1.08958
1.09352
1.09806
1.10317
1.10916
1.11369
1.15128
1.42886
0.901961
0.903727
0.905252
0.907389
0.909706
0.912188
0.91452
0.916712
0.918626
0.920601
0.922815
0.92556
0.928178
0.930382
0.932167
0.933955
0.936127
0.939076
0.941805
0.943958
0.945682
0.94755
0.950012
0.952996
0.955517
0.957521
0.959364
0.96153
0.964138
0.966845
0.969317
0.97158
0.973748
0.976049
0.978406
0.980819
0.983171
0.985542
0.98794
0.990668
0.993461
0.996021
0.998042
0.999631
1.00072
1.00094
0.999145
0.997838
0.998094
0.999152
1.00095
1.0038
1.00647
1.00823
1.00919
1.00923
1.00987
1.01139
1.01384
1.01668
1.01885
1.02021
1.02089
1.02176
1.02329
1.02555
1.02835
1.03059
1.03215
1.0332
1.03449
1.03619
1.03832
1.04083
1.04338
1.04542
1.04715
1.04914
1.0515
1.05374
1.05558
1.05792
1.06138
1.06491
1.06734
1.06864
1.07023
1.07362
1.07825
1.0832
1.0871
1.08958
1.09238
1.09623
1.10133
1.10768
1.11305
1.1403
1.36909
0.904092
0.905948
0.907548
0.909676
0.911969
0.914457
0.91688
0.919126
0.921071
0.922977
0.925061
0.927692
0.930384
0.932721
0.934623
0.936419
0.938463
0.941224
0.944
0.946301
0.948171
0.950024
0.95231
0.955152
0.957788
0.959951
0.961898
0.964019
0.966505
0.969086
0.971486
0.973786
0.976142
0.978537
0.98081
0.983043
0.985354
0.987791
0.990247
0.992908
0.995674
0.998343
1.00053
1.00227
1.00353
1.00421
1.0028
1.00089
1.00073
1.00162
1.00318
1.00578
1.00869
1.0107
1.01185
1.01202
1.01246
1.01373
1.01586
1.01863
1.02086
1.02246
1.02341
1.02415
1.02537
1.02719
1.02987
1.03247
1.03439
1.03556
1.03659
1.03815
1.04018
1.04255
1.04496
1.04709
1.04875
1.05053
1.05271
1.05509
1.05741
1.05941
1.06185
1.06513
1.06826
1.07016
1.07208
1.07483
1.07821
1.08194
1.08556
1.08855
1.09169
1.09584
1.10067
1.10617
1.11059
1.12929
1.31113
0.906258
0.908225
0.9099
0.911997
0.914204
0.916653
0.91918
0.921533
0.923538
0.925405
0.927363
0.929813
0.93254
0.935082
0.937164
0.938984
0.940862
0.943259
0.945985
0.948615
0.950789
0.952676
0.954667
0.957107
0.959802
0.962321
0.964537
0.96662
0.968776
0.971056
0.973485
0.976039
0.978573
0.980928
0.983103
0.9853
0.987604
0.989945
0.992321
0.994978
0.997866
1.00064
1.00294
1.00482
1.00622
1.00718
1.00638
1.00401
1.00337
1.0041
1.00549
1.00767
1.01051
1.01283
1.0144
1.01512
1.01523
1.01595
1.0175
1.02032
1.02319
1.02507
1.02621
1.02646
1.02719
1.02886
1.03149
1.03434
1.03646
1.03772
1.03862
1.04014
1.04208
1.04425
1.04644
1.04846
1.0502
1.05208
1.05432
1.0567
1.05883
1.06048
1.06234
1.06501
1.06822
1.0713
1.07364
1.07586
1.07821
1.08079
1.08395
1.08792
1.09207
1.09593
1.09939
1.1031
1.10649
1.11933
1.25592
0.908438
0.910576
0.912362
0.914423
0.916491
0.918789
0.921346
0.9239
0.926066
0.927926
0.929755
0.931951
0.934553
0.937236
0.939546
0.941481
0.943334
0.945527
0.948113
0.950777
0.9531
0.955112
0.957083
0.959334
0.961933
0.964547
0.966905
0.969
0.971041
0.973262
0.975749
0.978343
0.980837
0.983181
0.985475
0.987775
0.990022
0.992203
0.994472
0.997066
1
1.00291
1.00537
1.00739
1.00893
1.01007
1.01006
1.00768
1.00636
1.00671
1.00778
1.00952
1.01218
1.01486
1.01679
1.01795
1.01783
1.01793
1.01927
1.02194
1.02535
1.02762
1.02872
1.02869
1.02932
1.03084
1.03307
1.03575
1.03803
1.03977
1.04098
1.04214
1.04367
1.0455
1.04764
1.04983
1.05193
1.0538
1.05554
1.05758
1.05978
1.06159
1.06339
1.06568
1.06853
1.07161
1.07413
1.07603
1.07815
1.08072
1.08379
1.08721
1.09068
1.09391
1.09673
1.09979
1.10311
1.1096
1.20443
0.910542
0.912838
0.914849
0.91698
0.91893
0.920983
0.923358
0.926005
0.928469
0.93054
0.932352
0.934274
0.936575
0.939221
0.941757
0.943988
0.945993
0.948025
0.950294
0.952803
0.955247
0.957476
0.95955
0.961665
0.964052
0.966662
0.969182
0.97143
0.973532
0.975711
0.978076
0.980527
0.982997
0.98549
0.987954
0.990299
0.992493
0.994611
0.996769
0.999119
1.00195
1.00519
1.00805
1.01021
1.01185
1.01312
1.01373
1.01195
1.00972
1.00942
1.01021
1.01168
1.0141
1.01693
1.01903
1.02027
1.02041
1.02051
1.0216
1.02354
1.02656
1.02909
1.03078
1.03173
1.03204
1.03294
1.03446
1.03671
1.03936
1.04164
1.04342
1.04427
1.04524
1.04691
1.04894
1.05117
1.05328
1.055
1.05653
1.05829
1.06055
1.06302
1.06509
1.06697
1.06899
1.07125
1.07361
1.07579
1.07807
1.08071
1.08352
1.08629
1.08888
1.09138
1.09377
1.096
1.09817
1.09915
1.15706
0.912607
0.914875
0.917077
0.919461
0.92151
0.9234
0.925469
0.927924
0.930468
0.932847
0.934954
0.936871
0.938871
0.941226
0.943725
0.946132
0.948347
0.950451
0.952625
0.955005
0.957429
0.95973
0.961887
0.964013
0.966277
0.968749
0.97131
0.973784
0.976081
0.978229
0.980362
0.982633
0.985117
0.987702
0.990209
0.992589
0.994876
0.997084
0.99919
1.0013
1.0038
1.00702
1.01038
1.01295
1.01481
1.01626
1.01726
1.01651
1.01356
1.0125
1.01305
1.01431
1.01631
1.01901
1.02126
1.02278
1.02358
1.02372
1.02421
1.0253
1.0275
1.03061
1.03314
1.03478
1.03504
1.03497
1.03603
1.03803
1.04059
1.04307
1.04496
1.04639
1.04746
1.04879
1.05048
1.05226
1.05413
1.05601
1.05769
1.05956
1.06171
1.06387
1.06575
1.06737
1.06903
1.07093
1.07319
1.07575
1.07826
1.08049
1.08253
1.08458
1.08665
1.08869
1.0906
1.09228
1.09319
1.08976
1.11058
0.914741
0.916863
0.919054
0.921573
0.923867
0.925953
0.927936
0.930044
0.932362
0.934747
0.937077
0.939321
0.941466
0.943589
0.945818
0.94816
0.950472
0.952742
0.955003
0.957331
0.959716
0.962056
0.964259
0.966347
0.968449
0.970745
0.973317
0.975988
0.978445
0.980579
0.982593
0.984763
0.987178
0.989695
0.992217
0.994735
0.997185
0.999479
1.00157
1.00353
1.00562
1.00836
1.01206
1.01552
1.01772
1.0192
1.02032
1.02051
1.01784
1.0159
1.01603
1.01696
1.01841
1.02077
1.02351
1.02547
1.02676
1.02684
1.02651
1.02735
1.02916
1.03205
1.03485
1.03677
1.03772
1.03762
1.0383
1.03976
1.04178
1.04392
1.04598
1.04794
1.04978
1.05106
1.052
1.05337
1.05512
1.05715
1.05928
1.06094
1.0624
1.06403
1.06581
1.06756
1.06958
1.07165
1.0736
1.0754
1.07724
1.07907
1.08079
1.08263
1.0845
1.08612
1.08714
1.08744
1.08594
1.07943
1.06839
0.916982
0.919034
0.921111
0.923532
0.925831
0.928128
0.930472
0.932659
0.934657
0.93672
0.938927
0.941251
0.943682
0.946096
0.948299
0.950398
0.952553
0.954806
0.957123
0.959499
0.961902
0.964285
0.966566
0.968714
0.97081
0.973001
0.975386
0.97789
0.98035
0.982704
0.984968
0.987174
0.989402
0.991734
0.99423
0.996806
0.999326
1.00171
1.00391
1.00592
1.00782
1.00999
1.01316
1.01713
1.02017
1.02195
1.02323
1.02403
1.02265
1.01957
1.01871
1.0192
1.02039
1.02238
1.02536
1.02787
1.02923
1.02947
1.02921
1.02985
1.03117
1.03323
1.03576
1.03799
1.03973
1.04091
1.04128
1.04179
1.04298
1.04493
1.04713
1.04928
1.05115
1.05262
1.05379
1.05508
1.05669
1.05842
1.06011
1.06164
1.06293
1.0643
1.06625
1.06846
1.07035
1.07172
1.07292
1.07437
1.07598
1.07778
1.07966
1.08129
1.08222
1.08261
1.08239
1.08134
1.07767
1.06512
1.03422
0.919207
0.92144
0.92352
0.925735
0.927831
0.929985
0.932389
0.935086
0.937539
0.939359
0.941109
0.943138
0.945467
0.94809
0.950679
0.952949
0.954962
0.957001
0.959196
0.961544
0.963973
0.966427
0.96884
0.971147
0.973316
0.975393
0.977504
0.979801
0.982345
0.984985
0.987456
0.989655
0.991726
0.993921
0.996343
0.998868
1.00143
1.00397
1.00635
1.00845
1.01028
1.01207
1.01444
1.01825
1.02256
1.02528
1.02663
1.02753
1.0273
1.024
1.02179
1.02192
1.0229
1.02437
1.02674
1.02937
1.03132
1.03263
1.03309
1.03285
1.03324
1.03434
1.0365
1.0392
1.04164
1.04342
1.04407
1.0439
1.04485
1.04651
1.04853
1.0503
1.05182
1.05348
1.0553
1.05699
1.05815
1.0592
1.06057
1.06207
1.0637
1.06559
1.06731
1.06872
1.06985
1.07099
1.0723
1.07388
1.07546
1.07677
1.07785
1.07873
1.07918
1.07906
1.07799
1.07484
1.06555
1.04488
1.01319
0.921297
0.92367
0.926113
0.928445
0.930274
0.932076
0.934144
0.93671
0.939673
0.942349
0.944184
0.945649
0.947448
0.949818
0.9525
0.955157
0.957436
0.959427
0.961427
0.963622
0.965994
0.968443
0.970889
0.97328
0.975566
0.97774
0.97989
0.982165
0.984627
0.987157
0.989575
0.991856
0.994066
0.996281
0.998555
1.00093
1.00346
1.00607
1.00861
1.0109
1.0129
1.01468
1.01657
1.01949
1.02392
1.02792
1.03015
1.03125
1.03189
1.03023
1.02658
1.02547
1.02593
1.02693
1.02848
1.03095
1.03366
1.03573
1.0369
1.03656
1.03602
1.0368
1.03833
1.04083
1.04321
1.04491
1.04616
1.04702
1.04771
1.04864
1.04974
1.05114
1.05275
1.05449
1.05636
1.0579
1.05891
1.05976
1.06115
1.06305
1.06488
1.06621
1.06719
1.06805
1.069
1.07034
1.07206
1.07344
1.07438
1.07517
1.0756
1.07563
1.07538
1.07461
1.07217
1.0649
1.04854
1.02479
1.00328
0.923419
0.925556
0.928072
0.931041
0.933256
0.934762
0.936322
0.938364
0.941004
0.944118
0.946952
0.948863
0.950273
0.951949
0.954232
0.956933
0.959539
0.961807
0.963835
0.965879
0.968093
0.970466
0.972913
0.975358
0.977745
0.980053
0.982301
0.984526
0.986752
0.989017
0.9914
0.993879
0.996285
0.998536
1.00071
1.00297
1.00542
1.00801
1.01067
1.01322
1.0155
1.01742
1.01909
1.02108
1.02455
1.02922
1.03298
1.03506
1.03614
1.03628
1.0329
1.02965
1.02907
1.02967
1.03092
1.03304
1.03577
1.03796
1.03945
1.04043
1.04066
1.04085
1.04146
1.04251
1.0443
1.04636
1.04831
1.04991
1.05057
1.05061
1.05128
1.05264
1.05433
1.05584
1.05698
1.05817
1.05946
1.06101
1.06253
1.0638
1.06491
1.06585
1.06664
1.06752
1.06895
1.07048
1.07143
1.07206
1.07249
1.07272
1.07266
1.07244
1.07196
1.06968
1.0631
1.04987
1.02976
1.01038
0.99994
0.925585
0.927493
0.929679
0.932644
0.935594
0.937787
0.939199
0.940593
0.942543
0.945326
0.948406
0.951217
0.95327
0.954793
0.956478
0.958762
0.96138
0.963892
0.966108
0.968159
0.970266
0.972538
0.974941
0.977388
0.979814
0.982172
0.98443
0.986593
0.988753
0.99103
0.993469
0.99595
0.998364
1.0007
1.00299
1.00528
1.00763
1.01011
1.01272
1.01535
1.01781
1.01994
1.02176
1.02349
1.02595
1.02993
1.03413
1.03723
1.03914
1.04023
1.03975
1.03548
1.03275
1.03285
1.03381
1.0351
1.03684
1.03876
1.04083
1.04279
1.04423
1.04466
1.04445
1.04474
1.04599
1.04809
1.05017
1.05172
1.05237
1.05299
1.05391
1.05494
1.05599
1.05675
1.05758
1.05889
1.06061
1.06216
1.06297
1.06367
1.06448
1.06532
1.06662
1.06817
1.06905
1.06931
1.06954
1.06985
1.07025
1.07049
1.07049
1.06964
1.0668
1.06062
1.04977
1.03237
1.01382
1.00316
0.999167
0.92774
0.929616
0.931534
0.93404
0.936902
0.939877
0.942173
0.943547
0.944829
0.946863
0.949594
0.952634
0.955316
0.957389
0.959092
0.960959
0.963294
0.965868
0.968303
0.970483
0.972551
0.974691
0.976975
0.979375
0.981827
0.984243
0.986559
0.988799
0.991061
0.993405
0.995804
0.998179
1.00058
1.003
1.00538
1.00767
1.00995
1.01233
1.01487
1.01749
1.02004
1.02236
1.02439
1.02619
1.02818
1.0313
1.0354
1.03899
1.04166
1.04352
1.0446
1.04325
1.03871
1.03669
1.03654
1.03688
1.03809
1.04017
1.04241
1.04438
1.04573
1.04652
1.0472
1.0479
1.04878
1.04995
1.05129
1.05245
1.05381
1.05516
1.05625
1.05681
1.05717
1.05786
1.059
1.06035
1.06148
1.06229
1.06292
1.06344
1.06449
1.06596
1.06703
1.06734
1.06745
1.06746
1.06767
1.06823
1.06883
1.06868
1.06707
1.06371
1.05819
1.04838
1.03295
1.01586
1.00452
1.00068
0.999088
0.929967
0.931987
0.933805
0.935874
0.938251
0.941148
0.944117
0.946469
0.947969
0.949273
0.951212
0.953998
0.956884
0.959415
0.96144
0.96326
0.965307
0.967735
0.97031
0.972731
0.974897
0.976959
0.979104
0.981392
0.983775
0.98619
0.988609
0.991024
0.993399
0.995715
0.997992
1.00029
1.00268
1.00507
1.00742
1.00972
1.01202
1.01437
1.01682
1.01937
1.02195
1.02439
1.02659
1.02857
1.03055
1.03315
1.03679
1.04048
1.04345
1.04579
1.04753
1.04857
1.04688
1.04231
1.04035
1.04063
1.04154
1.04266
1.04409
1.0455
1.04682
1.04824
1.04967
1.05078
1.05116
1.05131
1.05224
1.05375
1.05532
1.05677
1.05742
1.05773
1.05848
1.05949
1.06062
1.06139
1.06175
1.06229
1.06322
1.06445
1.06544
1.06575
1.06576
1.06581
1.06577
1.06631
1.06723
1.06736
1.06618
1.06408
1.06086
1.05563
1.04623
1.03172
1.01639
1.00537
1.00089
1.00008
0.999128
0.932358
0.934674
0.936586
0.938381
0.940235
0.942651
0.945472
0.948401
0.95086
0.952528
0.95391
0.955874
0.958534
0.961331
0.963716
0.965624
0.967447
0.969589
0.97207
0.974641
0.977087
0.979317
0.981425
0.983565
0.985802
0.988137
0.990557
0.992987
0.995303
0.997511
0.999707
1.00199
1.00433
1.00666
1.00899
1.01133
1.01366
1.01597
1.01834
1.02083
1.02341
1.02594
1.02827
1.03035
1.03231
1.03449
1.03751
1.04129
1.04472
1.04744
1.04978
1.05164
1.05263
1.05009
1.04592
1.04477
1.04495
1.04515
1.04582
1.04732
1.04882
1.05015
1.05162
1.0526
1.05261
1.05308
1.05416
1.05545
1.05672
1.05745
1.05803
1.05904
1.06014
1.06105
1.06159
1.06176
1.06233
1.0633
1.06441
1.06509
1.06496
1.06468
1.06436
1.0647
1.06574
1.06621
1.06525
1.06364
1.06137
1.05831
1.05286
1.04278
1.0293
1.01558
1.00543
1.00104
1.00007
0.999982
0.999187
0.93479
0.937347
0.939586
0.941496
0.943083
0.944897
0.947164
0.949918
0.952705
0.95521
0.957175
0.958811
0.960769
0.963312
0.966049
0.968431
0.970238
0.971891
0.973935
0.976385
0.978911
0.98132
0.983576
0.985743
0.987928
0.990171
0.992431
0.994651
0.996859
0.999143
1.00148
1.00384
1.00618
1.00857
1.011
1.01342
1.01578
1.01809
1.02039
1.02274
1.02519
1.02769
1.03007
1.03217
1.03404
1.03596
1.0385
1.04202
1.04578
1.04883
1.05119
1.05327
1.05493
1.05581
1.05332
1.04894
1.04714
1.0473
1.04818
1.04936
1.05063
1.05156
1.05229
1.05355
1.05486
1.05571
1.05662
1.05722
1.05742
1.05825
1.05951
1.06077
1.06175
1.062
1.06224
1.06302
1.06386
1.06463
1.06471
1.06437
1.06394
1.06386
1.06461
1.06515
1.06442
1.06318
1.06132
1.05906
1.05577
1.04888
1.03831
1.02609
1.01358
1.00482
1.00098
1.00008
0.99999
0.999978
0.999223
0.936835
0.939428
0.941838
0.944116
0.946013
0.94772
0.949508
0.951742
0.954271
0.956908
0.959383
0.961567
0.963532
0.965634
0.968102
0.970805
0.973395
0.975422
0.976933
0.978587
0.980762
0.983181
0.985551
0.987819
0.990041
0.992253
0.99447
0.996703
0.999055
1.00151
1.00398
1.00641
1.00887
1.01139
1.01393
1.01649
1.01901
1.02146
1.0238
1.02607
1.0284
1.0309
1.03348
1.03587
1.03789
1.03965
1.04152
1.04434
1.04825
1.05192
1.0546
1.0568
1.05893
1.06084
1.06209
1.06065
1.05684
1.05439
1.05352
1.0534
1.05371
1.05431
1.05517
1.05625
1.05758
1.0584
1.05811
1.05853
1.05962
1.06068
1.06175
1.06244
1.06269
1.06333
1.06396
1.06462
1.06506
1.06459
1.06386
1.06346
1.06378
1.0645
1.06403
1.06264
1.06086
1.059
1.05687
1.05197
1.04348
1.03351
1.02172
1.0108
1.00372
1.00075
1.00007
0.999994
0.999988
0.999985
0.99924
0.938313
0.940963
0.943375
0.945757
0.947926
0.949949
0.951837
0.953803
0.955981
0.958396
0.960866
0.96327
0.965535
0.967712
0.969972
0.972449
0.975108
0.977811
0.980341
0.982347
0.983897
0.985573
0.98766
0.989932
0.992198
0.994491
0.9969
0.999425
1.002
1.00452
1.00703
1.00961
1.01224
1.01488
1.01752
1.0202
1.02288
1.02549
1.02801
1.03041
1.03276
1.03519
1.03782
1.04052
1.04298
1.04497
1.04663
1.04855
1.05162
1.05543
1.05894
1.06166
1.06388
1.06594
1.06793
1.06943
1.06928
1.06694
1.06441
1.06268
1.06167
1.06126
1.06123
1.06119
1.06113
1.06161
1.06223
1.06279
1.06383
1.06434
1.06421
1.06445
1.06452
1.065
1.06546
1.06516
1.06442
1.06363
1.06325
1.06385
1.06377
1.06235
1.06054
1.05864
1.05676
1.05311
1.04604
1.03772
1.02745
1.01651
1.00766
1.00245
1.00046
1.00004
0.999997
0.999993
0.999991
0.999994
0.999247
0.93962
0.942346
0.944737
0.947115
0.949358
0.951544
0.953623
0.955654
0.957728
0.959947
0.962276
0.964639
0.966971
0.969251
0.971512
0.973843
0.976315
0.97894
0.981666
0.984403
0.98703
0.98929
0.991134
0.992949
0.995014
0.997291
0.999688
1.00221
1.00475
1.00725
1.00978
1.01237
1.01494
1.01749
1.02001
1.02249
1.02493
1.02735
1.02976
1.03211
1.03442
1.03676
1.03927
1.04199
1.04467
1.04707
1.0491
1.05091
1.05306
1.05644
1.06025
1.06344
1.06603
1.06832
1.07034
1.07183
1.0729
1.07343
1.07294
1.07166
1.07058
1.06977
1.06904
1.06832
1.06785
1.06776
1.06784
1.06797
1.06769
1.06687
1.06622
1.06586
1.06581
1.06598
1.06516
1.0642
1.06325
1.06332
1.06345
1.06206
1.0601
1.05806
1.05597
1.05291
1.0467
1.0393
1.03032
1.02025
1.01112
1.00461
1.0013
1.00022
1.00002
0.999998
0.999996
0.999995
0.999996
0.999999
0.999248
0.941179
0.943967
0.946316
0.94867
0.950918
0.953144
0.955298
0.957407
0.959499
0.961643
0.963865
0.966141
0.968428
0.970704
0.972964
0.975236
0.977566
0.979995
0.982547
0.985248
0.988085
0.990932
0.993662
0.996208
0.998515
1.00069
1.00276
1.00477
1.00683
1.00909
1.01141
1.01368
1.01593
1.01819
1.02044
1.0227
1.02499
1.02729
1.02958
1.03183
1.03402
1.03623
1.03858
1.04114
1.04376
1.04616
1.04824
1.05008
1.05199
1.05463
1.05824
1.06179
1.06457
1.06674
1.06861
1.07028
1.07163
1.07262
1.07313
1.07319
1.07298
1.07261
1.0721
1.07183
1.0719
1.07135
1.07031
1.06905
1.06787
1.06707
1.06713
1.06687
1.06592
1.06466
1.06349
1.06293
1.06284
1.06175
1.0595
1.05709
1.05443
1.05134
1.04561
1.03866
1.03058
1.02147
1.01289
1.00618
1.0022
1.00052
1.00007
1
0.999998
0.999997
0.999997
0.999998
1
1
0.999249
0.943367
0.94618
0.948445
0.95075
0.952974
0.955189
0.957346
0.959466
0.961559
0.963666
0.965815
0.968008
0.970223
0.97244
0.974652
0.976864
0.979096
0.981374
0.983716
0.986147
0.988717
0.991482
0.994419
0.997273
0.999864
1.00224
1.00451
1.00671
1.00885
1.01097
1.01306
1.01511
1.01714
1.01919
1.02124
1.0233
1.02539
1.02751
1.02965
1.03177
1.03386
1.03594
1.0381
1.04047
1.04302
1.04549
1.04766
1.04955
1.05126
1.05314
1.05601
1.05965
1.06256
1.06484
1.06706
1.06908
1.07079
1.07211
1.07307
1.07355
1.07333
1.07293
1.07255
1.07229
1.07203
1.07088
1.06964
1.06863
1.06764
1.06734
1.06668
1.06524
1.0638
1.06243
1.06167
1.0606
1.05794
1.05518
1.05188
1.04814
1.04248
1.0357
1.02823
1.0201
1.01253
1.00645
1.0026
1.00075
1.00014
1.00002
1
0.999999
0.999998
0.999998
0.999999
1
1
1
0.999248
0.946796
0.949549
0.951655
0.953833
0.955977
0.958132
0.960241
0.96231
0.964345
0.966376
0.968427
0.970512
0.97262
0.974734
0.976846
0.978956
0.981069
0.9832
0.985358
0.987548
0.989777
0.992087
0.994553
0.997262
1.00003
1.00263
1.00504
1.0074
1.0097
1.01187
1.01396
1.016
1.01803
1.02003
1.02204
1.02405
1.02608
1.02812
1.03017
1.03221
1.03422
1.03621
1.03823
1.04044
1.04294
1.04554
1.04789
1.04983
1.05142
1.05294
1.05504
1.05828
1.06211
1.06541
1.06788
1.06989
1.0715
1.07272
1.07357
1.07397
1.07376
1.07324
1.07255
1.07131
1.06959
1.06815
1.06775
1.06782
1.06663
1.06455
1.06279
1.0609
1.05943
1.05755
1.05425
1.05087
1.0469
1.04238
1.0367
1.03015
1.0233
1.01632
1.01013
1.00531
1.00225
1.00072
1.00016
1.00002
1
1
0.999999
0.999999
0.999999
0.999999
1
1
1
0.999999
0.999248
0.952666
0.955204
0.957033
0.95894
0.960866
0.962838
0.964799
0.966724
0.96861
0.970472
0.972333
0.974216
0.976121
0.978038
0.979953
0.981862
0.983765
0.985667
0.987576
0.98949
0.9914
0.993295
0.995176
0.997083
0.999268
1.00173
1.00411
1.00626
1.00828
1.01023
1.01215
1.01405
1.01591
1.01775
1.01959
1.02145
1.02331
1.02518
1.02705
1.0289
1.03074
1.03254
1.03432
1.03615
1.03815
1.04039
1.04266
1.04462
1.04615
1.04739
1.04858
1.05012
1.05286
1.05622
1.05892
1.0611
1.0629
1.06436
1.06544
1.06611
1.06651
1.06636
1.06592
1.06541
1.06482
1.06345
1.06138
1.05959
1.05763
1.05516
1.05292
1.05001
1.04624
1.04237
1.03787
1.03286
1.0274
1.02161
1.01598
1.01075
1.00643
1.0033
1.00139
1.00046
1.00011
1.00002
1
1
1
1
1
1
1
1
1
1
1
0.999999
0.999248
0.962917
0.964988
0.966389
0.967837
0.969322
0.970874
0.972462
0.97405
0.975611
0.977139
0.978646
0.980151
0.981668
0.983196
0.984723
0.98624
0.98774
0.989223
0.990692
0.99215
0.993592
0.995004
0.996363
0.997635
0.998827
1.00009
1.00176
1.00356
1.00528
1.00695
1.00859
1.0102
1.01179
1.01336
1.0149
1.01642
1.01793
1.01941
1.02086
1.02228
1.02366
1.02501
1.02633
1.02755
1.02872
1.02999
1.03145
1.03292
1.03416
1.03503
1.03551
1.03549
1.03582
1.03695
1.03864
1.04027
1.0418
1.04324
1.04448
1.04545
1.04608
1.04639
1.04616
1.04558
1.04476
1.04349
1.04153
1.03941
1.0371
1.03412
1.03077
1.02727
1.0234
1.01936
1.01533
1.01141
1.0079
1.00498
1.00279
1.00135
1.00054
1.00018
1.00004
1.00001
1
1
1
1
1
1
1
1
1
1
1
1
1
0.999999
0.999248
0.978649
0.979919
0.980741
0.981573
0.98241
0.983282
0.984197
0.985146
0.986105
0.987055
0.987983
0.988893
0.989792
0.990686
0.991575
0.992449
0.993303
0.994129
0.994924
0.995692
0.996435
0.99716
0.997867
0.998547
0.999163
0.999672
1.00008
1.00066
1.00138
1.00214
1.00292
1.00371
1.0045
1.00528
1.00604
1.00678
1.00749
1.00816
1.00878
1.00934
1.00985
1.01037
1.01087
1.0113
1.01164
1.01191
1.01219
1.01255
1.01295
1.01324
1.01337
1.01318
1.01254
1.012
1.01184
1.01196
1.0123
1.0128
1.01341
1.01406
1.01466
1.01511
1.01535
1.01539
1.01518
1.01472
1.01385
1.01261
1.01122
1.00971
1.008
1.00631
1.00474
1.00331
1.00214
1.00126
1.00065
1.00029
1.00011
1.00003
1.00001
1
1
1
1
1
1
1
1
1
1
1
1
1
1
1
1
0.999999
0.999248
0.993904
0.994305
0.994563
0.994822
0.995071
0.995315
0.995566
0.995835
0.996122
0.996419
0.996715
0.997002
0.997276
0.997539
0.997793
0.998037
0.99827
0.998488
0.998687
0.998867
0.999027
0.999171
0.999308
0.999453
0.999619
0.999796
0.99993
0.999993
1.00006
1.00015
1.00025
1.00037
1.00049
1.00062
1.00074
1.00086
1.00097
1.00107
1.00114
1.00117
1.00118
1.00122
1.00126
1.0013
1.00137
1.0014
1.0014
1.00138
1.00138
1.00139
1.00139
1.00138
1.00126
1.00108
1.00093
1.00085
1.00083
1.00085
1.0009
1.00098
1.00107
1.00116
1.00123
1.00126
1.00128
1.00125
1.00117
1.00103
1.00085
1.00067
1.00049
1.00033
1.0002
1.00011
1.00005
1.00002
1.00001
1
1
1
1
1
1
1
1
1
1
1
1
1
1
1
1
1
1
1
1
0.999999
0.999248
0.999536
0.999571
0.999594
0.999618
0.999639
0.999659
0.999677
0.999696
0.999718
0.999742
0.999767
0.999792
0.999815
0.999836
0.999855
0.999873
0.999889
0.999904
0.999916
0.999926
0.999933
0.999937
0.999936
0.999929
0.999924
0.999929
0.999959
0.999985
0.999995
0.999999
1
1
1.00001
1.00001
1.00001
1.00002
1.00002
1.00002
1.00001
0.999951
0.9999
0.999887
0.999886
0.99989
0.999938
0.999998
1.00002
1.00002
1.00002
1.00002
1.00002
1.00002
1.00002
1.00001
1.00001
1.00001
1.00001
1.00001
1.00001
1.00001
1.00001
1.00001
1.00001
1.00001
1.00001
1.00001
1.00001
1.00001
1.00001
1.00001
1
1
1
1
1
1
1
1
1
1
1
1
1
1
1
1
1
1
1
1
1
1
1
1
1
1
1
0.999999
0.999248
0.999995
0.999996
0.999996
0.999996
0.999997
0.999997
0.999997
0.999997
0.999997
0.999998
0.999998
0.999998
0.999998
0.999999
0.999999
0.999999
0.999999
0.999999
0.999999
0.999999
0.999999
0.999999
0.999999
0.999999
0.999996
0.999991
0.999988
0.999992
0.999996
0.999998
0.999999
1
1
1
1
1
1
1
0.999987
0.999926
0.999874
0.999861
0.99986
0.999864
0.999911
0.999973
0.999995
1
1
1
1
1
1
1
1
1
1
1
1
1
1
1
1
1
1
1
1
1
1
1
1
1
1
1
1
1
1
1
1
1
1
1
1
1
1
1
1
1
1
1
1
1
1
1
1
1
1
0.999999
0.999248
1
1
1
1
1
1
1
1
1
1
1
1
1
1
1
1
1
1
1
1
1
1
1
1
1
1
0.999999
0.999998
0.999998
0.999999
0.999999
1
1
1
1
1
1
1
0.999987
0.999926
0.999874
0.999861
0.99986
0.999864
0.999911
0.999973
0.999995
1
1
1
1
1
1
1
1
1
1
1
1
1
1
1
1
1
1
1
1
1
1
1
1
1
1
1
1
1
1
1
1
1
1
1
1
1
1
1
1
1
1
1
1
1
1
1
1
1
1
0.999999
0.999248
1
1
1
1
1
1
1
1
1
1
1
1
1
1
1
1
1
1
1
1
1
1
1
1
1
1
1
1
1
1
1
1
1
1
1
1
1
1
0.999987
0.999926
0.999874
0.999861
0.99986
0.999864
0.999911
0.999973
0.999995
1
1
1
1
1
1
1
1
1
1
1
1
1
1
1
1
1
1
1
1
1
1
1
1
1
1
1
1
1
1
1
1
1
1
1
1
1
1
1
1
1
1
1
1
1
1
1
1
1
1
0.999999
0.999248
1
1
1
1
1
1
1
1
1
1
1
1
1
1
1
1
1
1
1
1
1
1
1
1
1
1
1
1
1
1
1
1
1
1
1
1
1
1
0.999987
0.999926
0.999874
0.999861
0.99986
0.999864
0.999911
0.999973
0.999995
1
1
1
1
1
1
1
1
1
1
1
1
1
1
1
1
1
1
1
1
1
1
1
1
1
1
1
1
1
1
1
1
1
1
1
1
1
1
1
1
1
1
1
1
1
1
1
1
1
1
0.999999
0.999248
1
1
1
1
1
1
1
1
1
1
1
1
1
1
1
1
1
1
1
1
1
1
1
1
1
1
1
1
1
1
1
1
1
1
1
1
1
1
0.999987
0.999926
0.999874
0.999861
0.99986
0.999864
0.999911
0.999973
0.999995
1
1
1
1
1
1
1
1
1
1
1
1
1
1
1
1
1
1
1
1
1
1
1
1
1
1
1
1
1
1
1
1
1
1
1
1
1
1
1
1
1
1
1
1
1
1
1
1
1
1
0.999999
0.999248
1
1
1
1
1
1
1
1
1
1
1
1
1
1
1
1
1
1
1
1
1
1
1
1
1
1
1
1
1
1
1
1
1
1
1
1
1
1
0.999987
0.999926
0.999874
0.999861
0.99986
0.999864
0.999911
0.999973
0.999995
1
1
1
1
1
1
1
1
1
1
1
1
1
1
1
1
1
1
1
1
1
1
1
1
1
1
1
1
1
1
1
1
1
1
1
1
1
1
1
1
1
1
1
1
1
1
1
1
1
1
0.999999
0.999248
1
1
1
1
1
1
1
1
1
1
1
1
1
1
1
1
1
1
1
1
1
1
1
1
1
1
1
1
1
1
1
1
1
1
1
1
1
1
0.999987
0.999926
0.999874
0.999861
0.99986
0.999864
0.999911
0.999973