/*--------------------------------*- C++ -*----------------------------------*\
  =========                 |
  \\      /  F ield         | OpenFOAM: The Open Source CFD Toolbox
   \\    /   O peration     | Website:  https://openfoam.org
    \\  /    A nd           | Version:  12
     \\/     M anipulation  |
\*---------------------------------------------------------------------------*/
FoamFile
{
    format      ascii;
    class       volVectorField;
    location    "2.6";
    object      U;
}
// * * * * * * * * * * * * * * * * * * * * * * * * * * * * * * * * * * * * * //

dimensions      [0 1 -1 0 0 0 0];

internalField   nonuniform List<vector> 
22702
(
(2 2.42213e-13 0)
(2 8.5754e-14 0)
(2.04226 -0.0872123 0)
(2 -1.09735e-09 0)
(1.9775 0.033303 0)
(2 -1.52882e-14 0)
(1.82982 0.228749 0)
(2 1.98827e-13 0)
(2 4.66235e-13 0)
(2.11786 -0.264725 0)
(1.83 0.228726 0)
(1.83005 0.228743 0)
(2 7.09198e-13 0)
(1.83127 0.229205 0)
(2.03748 -0.0751162 0)
(2 4.42019e-13 0)
(2 7.35182e-13 0)
(2 -1.2424e-13 0)
(1.82983 0.228689 0)
(2 5.41851e-15 0)
(1.8313 0.229137 0)
(2 -2.1092e-14 0)
(1.83044 0.228725 0)
(2.10963 -0.26513 0)
(1.83171 0.228387 0)
(2.11808 -0.264702 0)
(2 9.42022e-14 0)
(1.82979 0.228531 0)
(2.10955 -0.263034 0)
(2.10958 -0.264933 0)
(2 2.97522e-14 0)
(1.82996 0.228756 0)
(2 1.30638e-13 0)
(2 -3.6443e-14 0)
(2 7.86893e-14 0)
(1.84438 0.214691 0)
(1.83192 0.228227 0)
(1.83009 0.228761 0)
(2 6.75601e-13 0)
(2 5.10515e-13 0)
(2.11764 -0.264789 0)
(2 7.65996e-14 0)
(1.91536 0.125698 0)
(2 7.66816e-16 0)
(1.82964 0.228518 0)
(2 -3.07216e-13 0)
(2 3.71216e-13 0)
(2 2.94316e-13 0)
(2 3.1174e-13 0)
(2.10701 -0.263472 0)
(2 1.8003e-13 0)
(2.11131 -0.264416 0)
(2 6.22779e-15 0)
(1.82982 0.228642 0)
(2 3.55914e-13 0)
(1.83006 0.228795 0)
(2 5.08342e-13 0)
(2 1.37962e-09 0)
(2 1.13594e-14 0)
(2 5.51856e-13 0)
(2.11744 -0.264434 0)
(2 -8.20354e-14 0)
(2 6.99364e-13 0)
(2.10944 -0.264308 0)
(2 -1.14514e-14 0)
(2.10885 -0.263308 0)
(2 5.40105e-13 0)
(2 -6.66114e-15 0)
(2 6.74315e-13 0)
(2.11771 -0.264851 0)
(2 2.40584e-13 0)
(1.8315 0.228942 0)
(1.89733 0.150105 0)
(2 9.36424e-10 0)
(1.83144 0.228891 0)
(1.82164 0.237349 0)
(2.10777 -0.264393 0)
(1.82937 0.22881 0)
(2.10443 -0.262885 0)
(2 7.58146e-13 0)
(1.83049 0.228778 0)
(2.11042 -0.261258 0)
(1.82954 0.228845 0)
(1.82958 0.228819 0)
(2 6.41948e-13 0)
(2 9.20767e-07 0)
(2 2.64634e-14 0)
(2 8.42347e-13 0)
(2.02254 -0.0423255 0)
(2.11753 -0.26501 0)
(1.83028 0.228566 0)
(2 -1.50501e-13 0)
(2 -5.09327e-11 0)
(2.11755 -0.264869 0)
(2 6.22804e-14 0)
(1.83124 0.229136 0)
(2.11764 -0.264837 0)
(2 2.16104e-08 0)
(2 4.61191e-14 0)
(2 -1.14466e-13 0)
(2 5.98979e-13 0)
(1.91668 0.124509 0)
(1.83016 0.228757 0)
(2.11845 -0.264638 0)
(2 -1.27307e-09 0)
(2 -1.7938e-09 0)
(1.95942 0.0613599 0)
(2 -3.09185e-09 0)
(2.10957 -0.2614 0)
(2 -2.06409e-13 0)
(1.82942 0.228836 0)
(1.82972 0.228667 0)
(2 4.21423e-09 0)
(2 2.81654e-13 0)
(2.12191 -0.275369 0)
(2.12167 -0.271921 0)
(2.11772 -0.264922 0)
(2 1.48049e-14 0)
(2 -1.48488e-07 0)
(2 5.20658e-14 0)
(2 -1.57138e-13 0)
(2 1.17072e-07 0)
(2.03011 -0.0583389 0)
(2 -1.11675e-07 0)
(1.85621 0.200096 0)
(1.98409 0.0262169 0)
(1.82944 0.228776 0)
(2 -1.7381e-13 0)
(1.82948 0.228813 0)
(1.83 0.228706 0)
(1.8315 0.228881 0)
(1.83022 0.228776 0)
(2 -1.84304e-13 0)
(2.1177 -0.264839 0)
(2 -9.01504e-14 0)
(2.11759 -0.264806 0)
(2 6.72452e-14 0)
(2 7.41759e-14 0)
(2 -9.49095e-14 0)
(2 6.06776e-14 0)
(1.82994 0.228661 0)
(2 2.96595e-09 0)
(2 6.31883e-14 0)
(2 5.78603e-14 0)
(2 2.51504e-13 0)
(1.83114 0.228903 0)
(2 7.78518e-15 0)
(1.99344 0.0142799 0)
(2 7.04736e-14 0)
(2 -5.35544e-13 0)
(2 -6.85718e-11 0)
(2 -6.94191e-14 0)
(2.1088 -0.264746 0)
(2 7.94164e-14 0)
(1.99602 0.00829285 0)
(2 1.75704e-13 0)
(2.10336 -0.26294 0)
(2 4.64771e-13 0)
(2 7.09428e-13 0)
(2 -4.81199e-14 0)
(1.83003 0.228881 0)
(2 -4.04709e-14 0)
(1.83151 0.228977 0)
(2.12203 -0.273815 0)
(2.11748 -0.26458 0)
(1.83095 0.228836 0)
(1.83112 0.228857 0)
(2 7.0991e-14 0)
(1.97004 0.0457431 0)
(1.90381 0.141944 0)
(2 1.78853e-14 0)
(1.83006 0.22882 0)
(2.10359 -0.26275 0)
(1.84377 0.214905 0)
(2 4.31839e-16 0)
(2 4.39453e-13 0)
(2 -2.03996e-14 0)
(2 -4.27504e-13 0)
(1.8313 0.229185 0)
(1.86207 0.186642 0)
(2 -6.84776e-14 0)
(1.82967 0.228836 0)
(2.10869 -0.26467 0)
(1.82989 0.228847 0)
(2 4.81541e-13 0)
(2.10548 -0.262993 0)
(2 4.1009e-13 0)
(2.10883 -0.264456 0)
(2.11765 -0.265061 0)
(2.00008 -0.00013078 0)
(2 -3.06981e-13 0)
(2 2.2526e-13 0)
(1.83005 0.228728 0)
(2 1.56846e-13 0)
(2 -6.38173e-13 0)
(1.83141 0.228973 0)
(2 1.75069e-13 0)
(1.82959 0.228795 0)
(1.82966 0.228915 0)
(2.09936 -0.277426 0)
(2 -3.88623e-14 0)
(2 2.62073e-13 0)
(2.10863 -0.265214 0)
(1.8318 0.229029 0)
(2 -2.7848e-13 0)
(2 -3.08057e-13 0)
(2 -6.42521e-13 0)
(1.83184 0.229042 0)
(2 6.61362e-13 0)
(2.11764 -0.265112 0)
(2 -6.14812e-11 0)
(2 2.41912e-14 0)
(1.8319 0.228963 0)
(1.83151 0.228934 0)
(1.82955 0.228849 0)
(2 2.81519e-14 0)
(1.99998 2.37994e-05 0)
(2 -2.22662e-13 0)
(2 4.66997e-14 0)
(2 1.66797e-13 0)
(1.83183 0.228979 0)
(2 6.76958e-14 0)
(2.10941 -0.265002 0)
(1.82419 0.235061 0)
(1.83147 0.229046 0)
(1.83186 0.228744 0)
(2 1.84214e-07 0)
(2 4.67302e-13 0)
(2 -1.99794e-13 0)
(2.11594 -0.274485 0)
(1.83171 0.229188 0)
(1.91636 0.132081 0)
(2 -1.28727e-13 0)
(1.83104 0.229569 0)
(2.11337 -0.263954 0)
(2.11473 -0.264516 0)
(1.8311 0.229617 0)
(1.83142 0.229445 0)
(2 -1.62339e-13 0)
(1.83042 0.230406 0)
(2.12134 -0.273048 0)
(1.85065 0.207022 0)
(2 3.15951e-13 0)
(2 3.06426e-13 0)
(2 -1.6736e-13 0)
(2 -3.49585e-14 0)
(1.83167 0.228992 0)
(2 2.88112e-13 0)
(1.90034 0.146328 0)
(1.98387 0.0298058 0)
(2 -1.13592e-13 0)
(2 -3.14542e-13 0)
(1.8316 0.229071 0)
(2.11793 -0.265035 0)
(2.07689 -0.165506 0)
(2 3.13657e-13 0)
(1.83153 0.229546 0)
(2.11766 -0.265169 0)
(1.83155 0.228802 0)
(2 -2.28957e-14 0)
(2 -1.15007e-13 0)
(2 2.29369e-13 0)
(2 -4.13579e-13 0)
(2 -4.18688e-13 0)
(2 -3.20102e-13 0)
(2 -3.04631e-13 0)
(2.10944 -0.263134 0)
(2.07779 -0.16548 0)
(2.11721 -0.265176 0)
(1.83141 0.228999 0)
(2 -3.25125e-13 0)
(2 8.20483e-13 0)
(2 -1.69827e-07 0)
(2 -3.78429e-13 0)
(1.84629 0.211772 0)
(2 -2.10245e-07 0)
(2.10606 -0.262053 0)
(2 1.43739e-14 0)
(2.11269 -0.285742 0)
(2.10598 -0.264677 0)
(1.83171 0.229112 0)
(2.11034 -0.263288 0)
(1.83135 0.229151 0)
(2 -9.49606e-14 0)
(2 -4.1147e-13 0)
(2 -3.66537e-13 0)
(2.00074 -0.00164847 0)
(2.10732 -0.26241 0)
(2.12107 -0.27326 0)
(2 -3.09662e-07 0)
(2 -1.47809e-07 0)
(2.11662 -0.286355 0)
(2 2.42036e-09 0)
(1.82981 0.228606 0)
(2.11757 -0.264756 0)
(2 -6.28065e-14 0)
(2 -3.33508e-11 0)
(1.83041 0.228748 0)
(2.12218 -0.27448 0)
(2 3.39532e-13 0)
(1.83328 0.229691 0)
(2.11762 -0.264885 0)
(1.83163 0.22906 0)
(2 -1.65612e-13 0)
(2.10708 -0.28786 0)
(2.00083 -0.00144892 0)
(2 -1.71234e-13 0)
(2 2.84975e-06 0)
(2 1.57116e-13 0)
(2.11047 -0.263203 0)
(2 2.65259e-13 0)
(2 -1.67244e-07 0)
(2 -4.23381e-07 0)
(1.99999 1.46588e-05 0)
(1.99351 0.005582 0)
(1.89654 0.15069 0)
(2 -2.70351e-11 0)
(2.11434 -0.256478 0)
(2 -1.55002e-11 0)
(2 1.60715e-06 0)
(2 -5.65543e-13 0)
(2 6.8132e-13 0)
(2 1.31747e-14 0)
(2 3.1426e-13 0)
(2 -1.05069e-12 0)
(1.83016 0.228778 0)
(2 3.1217e-13 0)
(1.82959 0.229419 0)
(2 2.07677e-13 0)
(2 6.78993e-13 0)
(2 -1.12684e-13 0)
(2.1192 -0.264147 0)
(2 7.45689e-13 0)
(1.83122 0.228867 0)
(2.10942 -0.264023 0)
(2 -2.41709e-14 0)
(1.86072 0.202026 0)
(2 6.40164e-13 0)
(2 -4.07743e-14 0)
(1.82956 0.229278 0)
(2 4.3498e-13 0)
(2 -9.55505e-09 0)
(2 2.84745e-13 0)
(1.83062 0.227542 0)
(2 4.93165e-10 0)
(2 -4.36407e-14 0)
(1.83247 0.232691 0)
(1.8298 0.228925 0)
(2 -4.49711e-13 0)
(1.96383 0.057251 0)
(2 1.32578e-13 0)
(2 -1.18109e-13 0)
(2.11747 -0.264838 0)
(2 3.6876e-13 0)
(2 -8.26692e-14 0)
(2 3.74789e-13 0)
(2.11764 -0.264891 0)
(2 1.00361e-13 0)
(2 2.30767e-13 0)
(2 -4.7734e-13 0)
(2 -5.35179e-13 0)
(2.11935 -0.263639 0)
(2 -3.02913e-13 0)
(2 5.20059e-14 0)
(2 -1.69666e-13 0)
(2 -4.60197e-14 0)
(2 3.77199e-13 0)
(2.11762 -0.266624 0)
(1.99998 4.06428e-05 0)
(1.83148 0.228952 0)
(2 -1.45841e-14 0)
(2.00001 -2.576e-05 0)
(1.83131 0.228892 0)
(1.83052 0.228905 0)
(2 -4.48258e-13 0)
(2 -3.98661e-13 0)
(2.09829 -0.274021 0)
(2.06261 -0.12939 0)
(1.83037 0.228807 0)
(2 -1.95856e-13 0)
(2 2.98752e-13 0)
(2 -5.34785e-13 0)
(1.83164 0.229007 0)
(2.11781 -0.264642 0)
(2 -2.74044e-14 0)
(1.83153 0.228964 0)
(2 -1.28264e-13 0)
(2 -3.01741e-13 0)
(2.09937 -0.216272 0)
(2.10174 -0.217525 0)
(2 -5.79888e-13 0)
(2.10803 -0.262075 0)
(2.11938 -0.264402 0)
(2 3.77154e-13 0)
(2 -8.01323e-15 0)
(2 5.61156e-13 0)
(2 -4.52844e-14 0)
(2 -9.09538e-11 0)
(2 -3.57061e-13 0)
(2 -5.93769e-14 0)
(1.82949 0.228778 0)
(1.95732 0.062972 0)
(1.84389 0.210925 0)
(2.11667 -0.264123 0)
(2.02913 -0.0614303 0)
(1.83026 0.228746 0)
(2 -9.15336e-14 0)
(1.83114 0.228841 0)
(1.8302 0.228817 0)
(2.11661 -0.265291 0)
(2.07305 -0.153696 0)
(2 1.02861e-12 0)
(2.11694 -0.265283 0)
(2 -2.75282e-13 0)
(1.82224 0.236445 0)
(2 1.52328e-13 0)
(2 -7.34245e-14 0)
(2 -5.80174e-13 0)
(2 -1.04562e-15 0)
(1.83175 0.229003 0)
(2 6.76652e-13 0)
(2 -1.93713e-14 0)
(2 3.07463e-14 0)
(2 1.57363e-09 0)
(2 -4.35961e-13 0)
(2 4.72239e-13 0)
(2 -1.05765e-13 0)
(1.93781 0.0918376 0)
(1.82965 0.228704 0)
(2 -4.46488e-13 0)
(1.83148 0.22893 0)
(2 -6.72447e-14 0)
(2 -4.94771e-13 0)
(2.10798 -0.262825 0)
(2 -6.12161e-13 0)
(2 1.63667e-13 0)
(2 -2.5396e-13 0)
(2 -1.22437e-14 0)
(1.83185 0.229036 0)
(1.87203 0.181311 0)
(2 2.38653e-13 0)
(2 1.14977e-13 0)
(2.1075 -0.262056 0)
(1.83142 0.228994 0)
(1.83186 0.228991 0)
(2 -4.79496e-13 0)
(1.83188 0.228973 0)
(1.8314 0.228958 0)
(1.83148 0.228921 0)
(2 -8.44323e-14 0)
(2.05646 -0.114517 0)
(2 -2.75411e-14 0)
(1.83164 0.228914 0)
(2.00397 -0.014603 0)
(1.8315 0.228904 0)
(2 -4.41475e-13 0)
(2.1172 -0.265156 0)
(2.00034 -0.000664084 0)
(1.83014 0.228742 0)
(2 2.51459e-13 0)
(2 1.46944e-13 0)
(2 -5.16259e-11 0)
(2 -2.19197e-11 0)
(2.11156 -0.261397 0)
(1.83169 0.229234 0)
(1.84729 0.21191 0)
(2 -1.03982e-13 0)
(1.83135 0.229473 0)
(1.83166 0.228984 0)
(1.83012 0.228712 0)
(2 2.93389e-13 0)
(1.9221 0.119884 0)
(1.83204 0.228556 0)
(2 7.02175e-13 0)
(2 6.28982e-14 0)
(1.88307 0.168479 0)
(1.97894 0.0372443 0)
(1.83184 0.229014 0)
(2.02249 -0.045704 0)
(1.83179 0.229033 0)
(2 -4.72952e-14 0)
(1.83166 0.229037 0)
(1.83122 0.229101 0)
(1.83159 0.229009 0)
(1.83143 0.228983 0)
(2 4.01741e-13 0)
(1.8436 0.21547 0)
(2.02995 -0.0618854 0)
(2.04081 -0.0817968 0)
(2 7.86763e-13 0)
(2 -3.73756e-07 0)
(2 6.0185e-13 0)
(2 4.63542e-13 0)
(1.82998 0.230369 0)
(2 -2.71952e-13 0)
(2 -2.02047e-13 0)
(2 1.18593e-13 0)
(2 2.96505e-13 0)
(2 3.16538e-13 0)
(1.83003 0.228718 0)
(2 5.3509e-13 0)
(2 3.12339e-13 0)
(2.00154 -0.00253842 0)
(1.83184 0.229025 0)
(1.85101 0.20648 0)
(2 -1.33723e-13 0)
(1.85507 0.208675 0)
(1.99998 2.56179e-05 0)
(2 2.64236e-13 0)
(2 -1.11081e-13 0)
(1.83144 0.228953 0)
(2 2.87031e-13 0)
(2.0015 -0.00214345 0)
(1.99862 0.00366894 0)
(2 -6.49127e-14 0)
(1.83132 0.228971 0)
(2 7.94543e-14 0)
(1.8321 0.228698 0)
(2 -2.95807e-13 0)
(2 1.13398e-13 0)
(1.8753 0.177955 0)
(2 -2.50684e-13 0)
(1.83205 0.228663 0)
(1.99999 1.27857e-05 0)
(2 8.49654e-14 0)
(1.83208 0.228755 0)
(2 -3.10561e-13 0)
(1.83184 0.22905 0)
(2 -5.85477e-13 0)
(2 3.07196e-06 0)
(2 -5.26285e-13 0)
(1.83156 0.228984 0)
(2 5.0737e-14 0)
(1.8318 0.228893 0)
(2 4.67322e-06 0)
(1.83175 0.229012 0)
(1.83003 0.228834 0)
(1.83178 0.229066 0)
(1.82953 0.228805 0)
(2 -1.95904e-13 0)
(1.8301 0.228819 0)
(1.82984 0.230847 0)
(2 3.29298e-13 0)
(2.10863 -0.26331 0)
(1.84166 0.217471 0)
(1.87906 0.172293 0)
(2 -2.3895e-13 0)
(1.83156 0.229014 0)
(2 -6.63887e-14 0)
(2.11777 -0.265006 0)
(2.11771 -0.265032 0)
(2 -4.32027e-13 0)
(2 -5.87583e-13 0)
(2 -6.58571e-13 0)
(2 1.57233e-14 0)
(2 1.85999e-09 0)
(2.11787 -0.264963 0)
(2 8.97308e-14 0)
(1.83149 0.228891 0)
(1.95661 0.0662757 0)
(1.8314 0.229002 0)
(2 -3.51895e-13 0)
(2 7.98542e-11 0)
(2 -2.32112e-13 0)
(2 -2.12687e-13 0)
(2 -5.29375e-08 0)
(1.8312 0.229123 0)
(2 -2.38224e-13 0)
(1.83018 0.230414 0)
(1.89996 0.145995 0)
(2.07296 -0.153286 0)
(2 1.31017e-09 0)
(1.99999 7.52737e-06 0)
(1.95025 0.0757723 0)
(1.96182 0.0634705 0)
(2 3.09111e-14 0)
(2 -4.98652e-14 0)
(1.93835 0.0930843 0)
(2 -4.48283e-14 0)
(2.10423 -0.262191 0)
(1.83165 0.228867 0)
(1.8316 0.228824 0)
(2 -7.30308e-11 0)
(2 -3.92256e-13 0)
(2 2.61816e-13 0)
(1.82991 0.228795 0)
(2 -2.42121e-13 0)
(1.99999 1.5975e-05 0)
(1.83169 0.228905 0)
(1.83174 0.229199 0)
(2.0154 -0.0306859 0)
(2 1.91248e-13 0)
(2 1.74914e-10 0)
(2.10676 -0.262138 0)
(1.84736 0.211002 0)
(2 1.76988e-13 0)
(2 2.37088e-13 0)
(2 -1.79103e-13 0)
(2 -2.86842e-11 0)
(2 3.46313e-13 0)
(1.83184 0.22902 0)
(1.83008 0.228771 0)
(2 -4.99988e-13 0)
(1.83204 0.228889 0)
(1.83176 0.22843 0)
(1.83173 0.229075 0)
(2 -1.08969e-13 0)
(2 1.44214e-13 0)
(2 -6.15477e-11 0)
(2 -5.78684e-14 0)
(2.11741 -0.264785 0)
(1.83039 0.228856 0)
(2 -4.47427e-11 0)
(2 -4.86833e-14 0)
(1.84658 0.212222 0)
(1.83182 0.228325 0)
(2 -5.20102e-13 0)
(1.84149 0.217812 0)
(1.82961 0.22865 0)
(2 -1.38664e-13 0)
(2 -2.14357e-07 0)
(2 9.40712e-11 0)
(2 -4.92075e-14 0)
(2 -4.78695e-13 0)
(1.83133 0.2289 0)
(2 1.10091e-13 0)
(2 -2.70048e-13 0)
(2 -3.76346e-13 0)
(2 -3.10997e-13 0)
(1.82978 0.231523 0)
(2 5.65458e-13 0)
(1.83923 0.223728 0)
(2.11727 -0.264982 0)
(2 -2.24058e-13 0)
(2.11884 -0.265319 0)
(2 2.32692e-13 0)
(2 -1.35978e-07 0)
(2 2.5517e-13 0)
(2.00116 -0.00178987 0)
(2.11058 -0.265016 0)
(2.00031 -0.00055491 0)
(2 -1.15652e-14 0)
(2 -4.77161e-14 0)
(2 -1.1868e-07 0)
(1.97683 0.0344048 0)
(2 -5.24079e-13 0)
(2 1.40488e-13 0)
(2.04205 -0.0860001 0)
(2 -2.10277e-07 0)
(2 -1.54912e-13 0)
(2 -4.16456e-13 0)
(2 -2.11386e-07 0)
(2 3.00251e-07 0)
(2 -1.15928e-07 0)
(2 -4.7705e-13 0)
(2 -1.6413e-06 0)
(2.02011 -0.0427883 0)
(2 -4.82395e-07 0)
(2 -3.85922e-08 0)
(2.00096 -0.00133182 0)
(2 -4.53809e-13 0)
(2.11059 -0.261761 0)
(2 -2.86604e-11 0)
(2 -3.85223e-12 0)
(2 -1.24375e-10 0)
(2 3.45156e-13 0)
(1.87452 0.178471 0)
(2 5.56823e-14 0)
(2 3.07649e-13 0)
(2 -4.48474e-13 0)
(2 -1.71415e-07 0)
(2.10706 -0.263604 0)
(2 -2.88162e-14 0)
(2 1.35976e-09 0)
(1.84091 0.21808 0)
(1.83012 0.22885 0)
(2 -3.08203e-07 0)
(2 4.85576e-13 0)
(2 -1.16328e-07 0)
(2.0379 -0.0777649 0)
(2 3.22113e-14 0)
(2 4.61359e-10 0)
(2 -3.45745e-13 0)
(2 1.95889e-13 0)
(2 2.84486e-13 0)
(2 1.69744e-14 0)
(2.014 -0.0311572 0)
(1.99597 0.00298509 0)
(1.83188 0.228956 0)
(2 -6.86502e-13 0)
(2 -1.55287e-13 0)
(2 9.27961e-14 0)
(1.83117 0.229887 0)
(2.03644 -0.0690155 0)
(2 -3.90497e-09 0)
(2 5.1428e-14 0)
(2 -3.77643e-13 0)
(1.82976 0.228653 0)
(1.83028 0.228042 0)
(2 -2.98064e-08 0)
(2 4.92754e-06 0)
(2 3.2899e-09 0)
(2 -2.23434e-13 0)
(2 1.28578e-09 0)
(2 3.84041e-13 0)
(2 -7.53177e-12 0)
(2 -5.8324e-13 0)
(2 -8.90065e-14 0)
(2.11945 -0.264651 0)
(2 4.83748e-13 0)
(2 -1.45489e-11 0)
(1.82911 0.228496 0)
(2.11796 -0.264855 0)
(2 -3.13133e-13 0)
(1.82929 0.228369 0)
(2 6.99697e-11 0)
(2.10675 -0.263574 0)
(2 -2.37926e-14 0)
(2 4.06476e-13 0)
(2.11912 -0.265222 0)
(2 7.0494e-14 0)
(2 -1.16507e-11 0)
(2 -4.97333e-12 0)
(2 -4.44147e-13 0)
(2 -2.18382e-12 0)
(2 -3.0118e-13 0)
(2 -4.71811e-13 0)
(1.83452 0.225301 0)
(1.83175 0.228559 0)
(2 4.38574e-13 0)
(2 -2.40915e-13 0)
(2 -2.89183e-13 0)
(2 5.40853e-13 0)
(1.84562 0.212624 0)
(2 3.57949e-13 0)
(1.94722 0.081137 0)
(2.10898 -0.262329 0)
(2 -3.00247e-08 0)
(2 2.25122e-13 0)
(2 -4.07478e-13 0)
(2 -2.37388e-13 0)
(2 -2.81351e-13 0)
(2 -4.38358e-13 0)
(2 4.31719e-14 0)
(1.9849 0.0210237 0)
(2 -5.13552e-14 0)
(2 -3.04238e-13 0)
(1.90708 0.121164 0)
(2 6.98864e-14 0)
(2 -3.37499e-13 0)
(2 7.28067e-14 0)
(1.86046 0.196171 0)
(2 -6.04219e-13 0)
(2 5.21259e-13 0)
(2 3.55916e-13 0)
(2 3.89665e-13 0)
(2.1168 -0.265121 0)
(2 1.51434e-11 0)
(2 5.49181e-13 0)
(2.1214 -0.275523 0)
(2.11665 -0.265347 0)
(2 5.97487e-14 0)
(2 -6.76409e-14 0)
(1.83163 0.228925 0)
(2 3.55625e-13 0)
(1.98375 -0.0123072 0)
(2 -2.59077e-13 0)
(2 -2.07433e-14 0)
(2 -1.3039e-15 0)
(1.88174 0.16975 0)
(2.11829 -0.270359 0)
(2 -5.54437e-13 0)
(2.12227 -0.276729 0)
(2 -2.05278e-13 0)
(2.07527 -0.154403 0)
(2 -3.32787e-13 0)
(2 5.8516e-13 0)
(2 2.0835e-13 0)
(1.83089 0.228463 0)
(2 -4.08542e-08 0)
(2 7.00723e-13 0)
(1.83166 0.22888 0)
(2 -4.71368e-13 0)
(2 -2.47075e-11 0)
(2 1.71879e-09 0)
(1.83153 0.228926 0)
(2 2.39588e-10 0)
(2 1.16257e-13 0)
(1.83165 0.228949 0)
(2 -5.19226e-13 0)
(2 -6.51836e-13 0)
(2.11702 -0.265372 0)
(2 -1.65529e-11 0)
(1.94504 0.0841367 0)
(2 -6.0065e-13 0)
(2 -2.86232e-13 0)
(1.83021 0.22874 0)
(1.83028 0.228781 0)
(1.88637 0.163725 0)
(1.84945 0.209121 0)
(2 -1.33005e-13 0)
(2.11638 -0.265407 0)
(2 -1.52975e-13 0)
(2 1.14505e-13 0)
(1.83899 0.220555 0)
(2 2.9574e-13 0)
(2.11905 -0.264188 0)
(2 2.35734e-13 0)
(2 -5.44571e-13 0)
(2 1.50945e-13 0)
(1.83124 0.229067 0)
(2 -4.84396e-13 0)
(2 -1.34828e-13 0)
(2 5.48525e-13 0)
(2 3.14391e-13 0)
(1.89885 0.147431 0)
(2 -6.68809e-14 0)
(1.83325 0.213366 0)
(1.83064 0.228809 0)
(2.1176 -0.265015 0)
(2 3.90879e-14 0)
(2 4.32484e-13 0)
(2.11865 -0.264375 0)
(2.11844 -0.264226 0)
(2 -6.66437e-13 0)
(2 -5.34344e-13 0)
(2 -6.2276e-12 0)
(1.87986 0.17246 0)
(1.87291 0.18065 0)
(2 -3.43245e-13 0)
(2 2.29322e-13 0)
(2 -5.24898e-13 0)
(2 1.02243e-13 0)
(2 2.12429e-13 0)
(2 1.27575e-13 0)
(2 -3.39963e-13 0)
(1.92765 0.108365 0)
(1.83001 0.228844 0)
(1.99501 0.00362812 0)
(2 -3.27431e-13 0)
(1.83381 0.226643 0)
(2.11787 -0.264472 0)
(2 3.45449e-14 0)
(2 -1.20642e-13 0)
(2 2.57015e-13 0)
(1.90735 0.135195 0)
(2 1.37291e-13 0)
(1.96524 0.0556809 0)
(2 -3.28272e-14 0)
(1.84604 0.212666 0)
(1.83247 0.228206 0)
(2 -1.67341e-13 0)
(2.11777 -0.265299 0)
(2 2.76173e-13 0)
(1.83036 0.228791 0)
(2 1.25104e-13 0)
(2 2.90243e-13 0)
(1.83128 0.228918 0)
(1.84191 0.217591 0)
(2 3.26083e-13 0)
(1.82787 0.227561 0)
(2 -3.35464e-13 0)
(2.11254 -0.264423 0)
(2 3.45794e-14 0)
(2 -3.72021e-13 0)
(2 -1.0324e-14 0)
(1.83062 0.231532 0)
(1.83476 0.225153 0)
(1.85233 0.204891 0)
(2 -4.14123e-13 0)
(1.83015 0.228334 0)
(1.83178 0.22891 0)
(2 -4.48694e-14 0)
(1.83116 0.229233 0)
(2 -9.48505e-09 0)
(1.83243 0.228182 0)
(2 4.14377e-13 0)
(2.11739 -0.265284 0)
(2.00822 -0.0197212 0)
(2.11844 -0.265969 0)
(2 -3.38085e-11 0)
(2 -2.24761e-11 0)
(2 -3.33178e-11 0)
(2 2.83998e-13 0)
(2 -1.4451e-11 0)
(1.83148 0.229029 0)
(2 -2.89242e-14 0)
(1.83152 0.229061 0)
(2 -3.59169e-11 0)
(2 -9.05297e-11 0)
(2 2.54786e-13 0)
(1.83986 0.219679 0)
(2 -3.39036e-13 0)
(2.10918 -0.26297 0)
(1.8317 0.228926 0)
(2 3.33e-14 0)
(2.10711 -0.263392 0)
(2.11328 -0.247475 0)
(2.11473 -0.262291 0)
(2 -9.95257e-14 0)
(1.91591 0.125254 0)
(1.98375 0.0225062 0)
(1.83113 0.229615 0)
(1.83174 0.228917 0)
(2 -1.86847e-13 0)
(2 -3.51361e-07 0)
(2 -7.20592e-08 0)
(2 1.64595e-14 0)
(1.83166 0.228991 0)
(2 -2.20009e-13 0)
(2 -3.03079e-13 0)
(1.8317 0.229026 0)
(1.83179 0.228919 0)
(2 -1.53639e-13 0)
(1.94167 0.0871478 0)
(1.99999 0.000760781 0)
(2 -5.20313e-13 0)
(2.00114 -0.00195132 0)
(1.82995 0.228721 0)
(2.05043 -0.099703 0)
(2 -1.2148e-07 0)
(2.05971 -0.125362 0)
(2.10424 -0.261864 0)
(2.1042 -0.263341 0)
(1.99913 -0.0294278 0)
(1.83067 0.228805 0)
(1.83395 0.226509 0)
(1.96668 0.0491337 0)
(1.83148 0.229092 0)
(1.83165 0.229005 0)
(2 -2.48311e-13 0)
(2 -2.27504e-13 0)
(1.83022 0.228783 0)
(1.82957 0.228986 0)
(1.83157 0.229035 0)
(1.82893 0.227544 0)
(2 3.67981e-13 0)
(1.83169 0.228991 0)
(2.10856 -0.264085 0)
(1.83077 0.23039 0)
(1.83137 0.228689 0)
(1.82881 0.229067 0)
(1.83212 0.228902 0)
(2.04508 -0.0882063 0)
(2.03554 -0.071451 0)
(2.02165 -0.0465488 0)
(1.83159 0.228985 0)
(2.01396 -0.0312626 0)
(1.83111 0.228955 0)
(2 1.2881e-13 0)
(2 1.14819e-13 0)
(1.83105 0.229782 0)
(1.83188 0.229072 0)
(2 -2.84552e-13 0)
(2.11742 -0.265135 0)
(1.83011 0.228464 0)
(1.83176 0.228946 0)
(2 -5.56847e-14 0)
(1.8316 0.228902 0)
(1.83147 0.228847 0)
(2 -6.56354e-13 0)
(1.83179 0.22904 0)
(2.1072 -0.263329 0)
(1.83084 0.229463 0)
(1.83004 0.228847 0)
(1.83022 0.228774 0)
(1.83174 0.228386 0)
(2 -1.11821e-13 0)
(2 -1.39605e-14 0)
(2 -1.06299e-07 0)
(1.83174 0.228906 0)
(1.89015 0.159174 0)
(2.11418 -0.252991 0)
(1.83148 0.228875 0)
(2.11892 -0.27093 0)
(1.8317 0.228904 0)
(2 -7.44649e-14 0)
(2 4.60814e-13 0)
(2 -4.18863e-13 0)
(2 -8.68132e-14 0)
(1.83141 0.229111 0)
(1.83143 0.22898 0)
(2 2.65431e-13 0)
(2 1.27578e-13 0)
(1.83146 0.228883 0)
(2.11847 -0.266893 0)
(1.83213 0.228832 0)
(2.10718 -0.263051 0)
(2 1.06421e-13 0)
(1.8327 0.227721 0)
(2 -8.58599e-14 0)
(2.11728 -0.264136 0)
(1.83088 0.229528 0)
(2.08749 -0.191272 0)
(2 -5.35052e-13 0)
(1.83171 0.228908 0)
(1.83053 0.230027 0)
(1.83189 0.228727 0)
(2 3.45378e-13 0)
(2 1.21666e-14 0)
(1.92517 0.109317 0)
(1.83073 0.229734 0)
(2.10811 -0.26446 0)
(1.83166 0.228988 0)
(2 -1.39754e-13 0)
(1.83176 0.22888 0)
(2.04168 -0.0860367 0)
(1.83203 0.228558 0)
(2.11947 -0.264479 0)
(2 1.33395e-13 0)
(1.83139 0.229488 0)
(2.10926 -0.233948 0)
(1.83106 0.229802 0)
(2.10842 -0.26371 0)
(2 1.0307e-13 0)
(1.83126 0.22905 0)
(2 1.02134e-13 0)
(1.82986 0.228696 0)
(2 5.26891e-13 0)
(1.90148 0.14475 0)
(1.83771 0.221609 0)
(1.86761 0.187529 0)
(2.12089 -0.273296 0)
(2 -1.02679e-13 0)
(1.83151 0.228944 0)
(2 -5.71332e-13 0)
(1.83156 0.228918 0)
(2 -1.1493e-07 0)
(1.83163 0.229075 0)
(2 -2.38069e-07 0)
(2 2.51039e-13 0)
(1.8314 0.228828 0)
(2.00245 -0.00752682 0)
(1.8304 0.230066 0)
(2.11375 -0.264701 0)
(1.84149 0.224068 0)
(2 1.9528e-14 0)
(1.88069 0.173075 0)
(2 6.90094e-13 0)
(1.83107 0.228575 0)
(1.83172 0.229028 0)
(1.83112 0.228372 0)
(2 -4.17992e-13 0)
(1.84801 0.210193 0)
(1.83176 0.228912 0)
(1.8441 0.214956 0)
(1.89714 0.149596 0)
(1.83469 0.227913 0)
(2 -4.80954e-13 0)
(1.88801 0.161935 0)
(2 5.84097e-13 0)
(1.8319 0.228879 0)
(2 2.27183e-13 0)
(1.97178 0.0410946 0)
(2 -1.36677e-13 0)
(1.84442 0.214852 0)
(2 3.70957e-13 0)
(1.83173 0.228842 0)
(1.83915 0.220336 0)
(1.83958 0.219764 0)
(2 -2.52749e-13 0)
(1.84082 0.225879 0)
(2.11795 -0.265101 0)
(2 -3.75468e-13 0)
(2.11653 -0.265051 0)
(2 6.24244e-13 0)
(2 -3.84041e-13 0)
(2 -8.17011e-14 0)
(1.83007 0.228836 0)
(2 2.66785e-13 0)
(1.83157 0.22918 0)
(2 6.12591e-14 0)
(2 2.30177e-13 0)
(2 2.83267e-13 0)
(1.83119 0.229216 0)
(1.83915 0.224726 0)
(1.85566 0.205983 0)
(1.83183 0.229134 0)
(1.83118 0.228557 0)
(2.11849 -0.265325 0)
(1.8322 0.229121 0)
(1.83048 0.228834 0)
(2 1.49644e-13 0)
(1.8542 0.206807 0)
(1.8318 0.228978 0)
(1.83942 0.217237 0)
(2 -2.88158e-14 0)
(1.83032 0.228815 0)
(1.83023 0.228811 0)
(2 3.01441e-13 0)
(1.82911 0.231394 0)
(1.83099 0.228775 0)
(1.83101 0.229084 0)
(1.83093 0.229501 0)
(2 7.15789e-14 0)
(2 -1.74668e-13 0)
(2 -2.23243e-13 0)
(1.83161 0.228887 0)
(2.12118 -0.269352 0)
(2 -1.18541e-13 0)
(1.83177 0.229027 0)
(2 7.02942e-14 0)
(2 -7.73338e-14 0)
(2.11751 -0.264649 0)
(2 -6.68443e-13 0)
(2 -7.60037e-14 0)
(1.83157 0.229019 0)
(1.83127 0.229142 0)
(2 -4.75363e-13 0)
(1.83171 0.228997 0)
(1.83 0.229488 0)
(1.8314 0.228873 0)
(2.00764 -0.0174658 0)
(1.83137 0.228924 0)
(2 8.20862e-14 0)
(1.83136 0.228899 0)
(1.83139 0.228961 0)
(1.85698 0.199719 0)
(2 8.7657e-14 0)
(2 4.08972e-13 0)
(2 -9.67998e-14 0)
(1.83106 0.228557 0)
(1.83142 0.229113 0)
(1.83149 0.22887 0)
(2.01295 -0.0298923 0)
(2 -6.15162e-14 0)
(1.82792 0.231453 0)
(1.83129 0.228993 0)
(1.83154 0.228833 0)
(2 4.94179e-14 0)
(1.83129 0.228876 0)
(1.83201 0.228948 0)
(1.83154 0.229015 0)
(1.82778 0.232064 0)
(2 -2.11559e-13 0)
(1.83162 0.229054 0)
(1.83055 0.229683 0)
(1.85219 0.202276 0)
(1.83149 0.229422 0)
(1.82842 0.231437 0)
(2 1.414e-14 0)
(1.83182 0.23011 0)
(1.83327 0.226755 0)
(1.83143 0.228868 0)
(1.83187 0.229167 0)
(1.83167 0.228879 0)
(2.11826 -0.265234 0)
(1.83131 0.228929 0)
(1.83131 0.22973 0)
(2 -8.56601e-15 0)
(1.83157 0.228948 0)
(1.83138 0.228869 0)
(1.83159 0.22904 0)
(1.83165 0.229054 0)
(2 -5.46531e-08 0)
(1.83181 0.228855 0)
(1.83164 0.228832 0)
(2 -1.60685e-07 0)
(1.83172 0.228935 0)
(1.85813 0.199019 0)
(2 2.13005e-14 0)
(2 9.458e-14 0)
(2 7.69553e-10 0)
(1.8311 0.229944 0)
(1.83201 0.229456 0)
(2 1.53643e-13 0)
(2 -2.04014e-13 0)
(1.90831 0.134894 0)
(2 2.08689e-13 0)
(1.83182 0.228992 0)
(2 6.27899e-13 0)
(2 -7.75152e-14 0)
(1.83166 0.229012 0)
(1.83099 0.229587 0)
(1.83127 0.228851 0)
(1.83171 0.228956 0)
(2 3.2387e-14 0)
(2 2.19528e-13 0)
(2 4.17132e-13 0)
(1.88107 0.167824 0)
(2 -5.62774e-13 0)
(1.83159 0.228746 0)
(2 2.38214e-13 0)
(2 4.37857e-14 0)
(1.83024 0.228756 0)
(1.83015 0.228818 0)
(2 8.24907e-14 0)
(1.83175 0.228993 0)
(2.12099 -0.273577 0)
(1.83179 0.229035 0)
(1.83176 0.229337 0)
(2.09347 -0.200799 0)
(2 4.25963e-14 0)
(2.12014 -0.271591 0)
(1.84993 0.203602 0)
(1.83228 0.229016 0)
(1.83214 0.228444 0)
(1.83218 0.228421 0)
(2.11712 -0.264184 0)
(1.83135 0.228861 0)
(1.83122 0.229422 0)
(2.11724 -0.264383 0)
(2.1206 -0.273842 0)
(2 -2.64518e-07 0)
(1.83208 0.228592 0)
(1.83195 0.228685 0)
(2 -3.86292e-14 0)
(2 -1.06807e-14 0)
(1.83176 0.228895 0)
(2 1.16458e-13 0)
(1.83305 0.227027 0)
(2 2.46375e-06 0)
(1.8531 0.204556 0)
(2 1.63258e-13 0)
(1.92186 0.117586 0)
(1.83195 0.228704 0)
(1.83057 0.229987 0)
(1.88111 0.170794 0)
(1.84569 0.217174 0)
(1.83018 0.228874 0)
(1.83119 0.229481 0)
(1.83554 0.227835 0)
(2 3.89316e-13 0)
(2.11767 -0.264387 0)
(1.83155 0.228176 0)
(1.83168 0.228972 0)
(1.82956 0.23112 0)
(2 7.15857e-06 0)
(2 4.02846e-10 0)
(2 1.53447e-09 0)
(1.8284 0.229776 0)
(2 1.74632e-13 0)
(1.83158 0.22897 0)
(1.83135 0.228819 0)
(2.08519 -0.178045 0)
(2 6.00518e-14 0)
(1.83165 0.228952 0)
(2.00002 -4.80644e-05 0)
(2 -3.25961e-13 0)
(1.99999 1.91083e-05 0)
(1.99998 2.73509e-05 0)
(1.83171 0.228906 0)
(1.8318 0.228894 0)
(2.00055 -0.000883191 0)
(2 2.6245e-13 0)
(2 1.89504e-14 0)
(1.83155 0.228946 0)
(1.8307 0.229787 0)
(1.83139 0.228986 0)
(1.83081 0.228725 0)
(1.83162 0.229315 0)
(2.11329 -0.251116 0)
(1.85344 0.203527 0)
(2 -4.52341e-13 0)
(1.83267 0.227564 0)
(1.83129 0.228887 0)
(1.83149 0.228866 0)
(1.83568 0.225121 0)
(2 3.14208e-13 0)
(1.8317 0.228984 0)
(1.83612 0.223772 0)
(1.83098 0.229536 0)
(2 -5.68355e-13 0)
(1.83094 0.228945 0)
(1.83096 0.22935 0)
(2.04684 -0.0936705 0)
(1.83177 0.229015 0)
(1.83086 0.228829 0)
(2 -4.45947e-13 0)
(1.83127 0.229089 0)
(2.05326 -0.107045 0)
(1.83184 0.228947 0)
(2.04936 -0.0984305 0)
(1.83158 0.229057 0)
(2 -1.09928e-07 0)
(1.83137 0.228996 0)
(1.82333 0.231682 0)
(1.83173 0.229011 0)
(1.83158 0.229106 0)
(1.83145 0.229004 0)
(1.83029 0.228258 0)
(1.83132 0.229237 0)
(1.82913 0.228764 0)
(2 -2.31354e-13 0)
(2.02286 -0.0461407 0)
(1.83172 0.228925 0)
(1.83175 0.229067 0)
(2.05155 -0.107222 0)
(1.83179 0.22895 0)
(2.00464 -0.0115168 0)
(1.89043 0.149389 0)
(1.83143 0.229034 0)
(1.83134 0.228863 0)
(1.83049 0.229821 0)
(2 7.29718e-14 0)
(1.83042 0.230056 0)
(1.88512 0.168562 0)
(1.83119 0.228573 0)
(2.02647 -0.0546567 0)
(1.83056 0.229904 0)
(1.82691 0.231711 0)
(2 1.9861e-13 0)
(2.04314 -0.0882955 0)
(2 -4.02901e-09 0)
(1.83033 0.232016 0)
(2 -1.37509e-13 0)
(1.88454 0.166078 0)
(2 4.79892e-09 0)
(1.84487 0.21014 0)
(2.04003 -0.0815056 0)
(2 5.98965e-14 0)
(1.8312 0.229858 0)
(1.83577 0.226044 0)
(2 -3.09369e-13 0)
(1.83118 0.228954 0)
(1.83103 0.229791 0)
(1.83294 0.229485 0)
(1.83831 0.223052 0)
(1.832 0.229111 0)
(2 3.54587e-14 0)
(1.83012 0.228828 0)
(2 -3.09568e-13 0)
(2 -1.95756e-13 0)
(2 8.73433e-14 0)
(2.03463 -0.0677914 0)
(1.83147 0.229055 0)
(1.8315 0.229353 0)
(1.82975 0.231203 0)
(1.83177 0.22899 0)
(1.8342 0.228203 0)
(1.82908 0.230514 0)
(1.83293 0.229775 0)
(1.83154 0.229177 0)
(2.03335 -0.0642423 0)
(1.98694 0.0218895 0)
(2 3.56659e-09 0)
(2 -3.93283e-14 0)
(1.8241 0.233162 0)
(1.83171 0.229077 0)
(1.83135 0.229005 0)
(1.83188 0.229064 0)
(1.99999 1.63052e-05 0)
(1.91113 0.132721 0)
(2 -1.66428e-07 0)
(1.82932 0.231315 0)
(1.85728 0.208302 0)
(2 -2.63835e-12 0)
(2 -5.40926e-11 0)
(2.088 -0.186037 0)
(1.83138 0.228931 0)
(2 -3.47552e-13 0)
(2 -1.15032e-13 0)
(2.10645 -0.263569 0)
(1.83183 0.22899 0)
(2 -2.68653e-13 0)
(1.83032 0.228839 0)
(1.83167 0.228977 0)
(1.83034 0.228861 0)
(1.83813 0.221696 0)
(1.83137 0.228907 0)
(2 -1.41542e-10 0)
(2.1183 -0.268402 0)
(1.95895 0.0643526 0)
(1.83128 0.228886 0)
(1.83137 0.228962 0)
(2 -1.3211e-13 0)
(1.83178 0.228988 0)
(1.83154 0.229023 0)
(1.91544 0.124492 0)
(1.99906 0.00452444 0)
(1.96419 0.059051 0)
(2 -9.61481e-14 0)
(1.82973 0.228708 0)
(1.8314 0.228784 0)
(2 -1.21413e-07 0)
(2 -2.08552e-10 0)
(2.1173 -0.263618 0)
(2 -2.37706e-10 0)
(2 -6.76328e-14 0)
(1.83177 0.228998 0)
(1.83176 0.229048 0)
(1.83201 0.228978 0)
(1.83141 0.228989 0)
(1.83136 0.229022 0)
(1.82804 0.230821 0)
(1.83148 0.229185 0)
(1.83166 0.22924 0)
(1.83125 0.229083 0)
(2 2.57931e-14 0)
(2.00167 -0.00267109 0)
(1.83184 0.228984 0)
(1.83162 0.22885 0)
(2.00121 -0.00165742 0)
(1.83171 0.22906 0)
(1.83141 0.228998 0)
(2.11687 -0.264338 0)
(2.11758 -0.264913 0)
(1.8316 0.229408 0)
(1.82916 0.22978 0)
(2 -2.24534e-13 0)
(2 -2.45184e-13 0)
(1.99894 0.00246764 0)
(1.83159 0.229037 0)
(1.83192 0.228813 0)
(1.83187 0.229008 0)
(2 1.03797e-09 0)
(1.83168 0.229004 0)
(2 8.43083e-15 0)
(2.04754 -0.0970851 0)
(1.82912 0.231614 0)
(1.82967 0.230315 0)
(2 -1.5231e-13 0)
(1.92487 0.111839 0)
(1.83149 0.229039 0)
(2 -1.47716e-14 0)
(1.82915 0.228389 0)
(2 -1.03013e-10 0)
(1.83163 0.229052 0)
(1.88806 0.155134 0)
(1.83159 0.228909 0)
(2 1.30365e-11 0)
(1.83178 0.229068 0)
(1.82934 0.229572 0)
(2.11763 -0.264026 0)
(1.83176 0.228869 0)
(2 -1.28381e-07 0)
(1.83103 0.229186 0)
(1.82968 0.228817 0)
(2 7.18572e-09 0)
(2.11675 -0.262418 0)
(1.83201 0.228263 0)
(1.86332 0.190706 0)
(2.00072 -0.00114913 0)
(1.83584 0.228759 0)
(1.83138 0.228904 0)
(2 -4.68884e-12 0)
(1.99962 -0.00422726 0)
(1.83224 0.229851 0)
(2.00165 -0.00195259 0)
(1.8317 0.22895 0)
(2 -3.46956e-12 0)
(2 -5.11991e-13 0)
(1.83109 0.229386 0)
(2 1.18249e-13 0)
(1.83187 0.228873 0)
(1.83156 0.229036 0)
(2.00136 -0.00226435 0)
(1.86752 0.178644 0)
(2 2.96871e-09 0)
(1.83144 0.228998 0)
(2 3.99499e-10 0)
(2 -2.36142e-13 0)
(2 1.00941e-11 0)
(2 5.99839e-12 0)
(1.83188 0.229074 0)
(2 7.06527e-09 0)
(2 2.63829e-13 0)
(1.83624 0.225124 0)
(2 -2.34338e-13 0)
(1.8314 0.228883 0)
(2 3.09757e-10 0)
(1.89251 0.156486 0)
(1.83039 0.230571 0)
(1.83173 0.229486 0)
(2 8.45449e-10 0)
(2 -3.82495e-13 0)