/*--------------------------------*- C++ -*----------------------------------*\
  =========                 |
  \\      /  F ield         | OpenFOAM: The Open Source CFD Toolbox
   \\    /   O peration     | Website:  https://openfoam.org
    \\  /    A nd           | Version:  12
     \\/     M anipulation  |
\*---------------------------------------------------------------------------*/
FoamFile
{
    format      ascii;
    class       volScalarField;
    location    "8.16";
    object      p;
}
// * * * * * * * * * * * * * * * * * * * * * * * * * * * * * * * * * * * * * //

dimensions      [1 -1 -2 0 0 0 0];

internalField   nonuniform List<scalar> 
22702
(
1
1
0.87506
1
1.05631
1
1.46916
1
1
0.624231
1.4705
1.46701
1
1.47123
0.904962
1
1
1
1.4715
1
1.47214
1
1.46962
0.661061
1.473
0.681265
1
1.47075
0.652338
0.654224
1
1.46808
1
1
1
1.43454
1.4735
1.46992
1
1
0.63413
1
1.22784
1
1.46899
1
1
1
1
0.649549
1
0.646705
1
1.47032
1
1.47373
1
1
1
1
0.659892
1
1
0.64467
1
0.664129
1
1
1
0.647693
1
1.47209
1.2817
1
1.47349
1.49881
0.682973
1.46703
0.658275
1
1.47198
0.66289
1.47369
1.47125
1
1
1
1
0.9394
0.632212
1.47239
1
1
0.635577
1
1.47214
0.633963
1
1
1
1
1.22785
1.47205
0.680998
1
1
1.11005
1
0.661066
1
1.46851
1.47167
1
1
0.650318
0.645981
0.626934
1
1
1
1
1
0.924748
1
1.40174
1.02636
1.47147
1
1.47249
1.47148
1.47199
1.46944
1
0.661721
1
0.673603
1
1
1
1
1.47175
1
1
1
1
1.4709
1
1.02664
1
1
1
1
0.661013
1
1.01128
1
0.659779
1
1
1
1.47128
1
1.47035
0.632837
0.657043
1.47511
1.47158
1
1.07473
1.26497
1
1.47833
0.659039
1.43552
1
1
1
1
1.47112
1.38819
1
1.47247
0.637268
1.47795
1
0.649611
1
0.642694
0.668406
0.999787
1
1
1.47279
1
1
1.47128
1
1.47396
1.47254
0.65937
1
1
0.655274
1.47165
1
1
1
1.47179
1
0.654295
1
1
1.47134
1.47061
1.47279
1
1.00004
1
1
1
1.47161
1
0.640185
1.49282
1.47218
1.47219
1
1
1
0.644914
1.47395
1.21722
1
1.47289
0.63742
0.640941
1.47265
1.47395
1
1.46601
0.673404
1.4151
1
1
1
1
1.47072
1
1.25967
1.04458
1
1
1.47131
0.64575
0.796051
1
1.47109
0.661967
1.47353
1
1
1
1
1
1
1
0.652328
0.785565
0.642614
1.47156
1
1
1
1
1.41856
1
0.656518
1
0.64045
0.657538
1.46985
0.669761
1.47206
1
1
1
0.997663
0.652323
0.65903
0.999999
1
0.638687
1
1.47163
0.671881
1
1
1.47094
0.628101
1
1.46008
0.654679
1.47067
1
0.645096
0.997757
1
1
1
0.65949
1
1
1
1.00001
1.015
1.28028
1
0.696641
1
1
1
1
1
1
1
1.47015
1
1.47337
1
1
1
0.651096
1
1.47025
0.6576
1
1.38405
1
1
1.47034
1
1
1
1.45972
1
1
1.46938
1.46878
1
1.09554
1
1
0.665182
1
1
1
0.636837
1
1
1
1
0.663164
1
1
1
1
1
0.640833
1.00006
1.4704
1
0.999982
1.47217
1.47537
1
1
0.662286
0.814568
1.47189
1
1
1
1.47047
0.652238
1
1.47092
1
1
0.713645
0.734917
1
0.661959
0.639631
1
1
1
1
1
1
1
1.47025
1.11631
1.46439
0.637673
0.898539
1.47206
1
1.47432
1.47136
0.640782
0.785446
1
0.643448
1
1.48868
1
1
1
1
1.47162
1
1
1
1
1
1
1
1.16221
1.47133
1
1.4727
1
1
0.663423
1
1
1
1
1.47195
1.3546
1
1
0.665488
1.47229
1.47151
1
1.47146
1.47161
1.47077
1
0.826623
1
1.47155
0.978155
1.47202
1
0.640904
0.99888
1.47186
1
1
1
1
0.660298
1.47358
1.42426
1
1.46987
1.47058
1.47203
1
1.21725
1.47259
1
1
1.323
1.06875
1.47175
0.923547
1.47109
1
1.47149
1.47377
1.47082
1.47242
1
1.44864
0.916119
0.900746
1
0.999999
1
1
1.4656
1
1
1
1
1
1.46903
1
1
0.996183
1.47191
1.4342
1
1.41751
1.00004
1
1
1.47121
1
0.996401
1.00382
1
1.47382
1
1.47471
1
1
1.34435
1
1.47283
1.00002
1
1.4712
1
1.47191
1
1
1
1.47097
1
1.47276
1.00001
1.47142
1.47035
1.47264
1.47009
1
1.46847
1.46957
1
0.65173
1.44053
1.33327
1
1.47187
1
0.652315
0.653609
1
1
1
1
1
0.635298
1
1.47217
1.11999
1.47184
1
1
1
1
1
1.47258
1
1.4718
1.27146
0.768161
1
1.00001
1.1247
1.1166
1
1
1.17025
1
0.65673
1.47004
1.47176
1
1
1
1.46711
1
1.00003
1.4713
1.4719
0.939481
1
1
0.64413
1.42589
1
1
1
1
1
1.47199
1.46875
1
1.46991
1.47446
1.47238
1
1
1
1
0.670687
1.47106
1
1
1.4276
1.4699
1
1.44366
1.47229
1
1
1
1
1
1.47301
1
1
1
1
1.46659
1
1.45347
0.651295
1
0.639264
1
1
1
0.996917
0.645858
0.999081
1
1
1
1.05794
1
1
0.856526
1
1
1
1
1
1
1
0.999997
0.933551
0.999999
1
0.997545
1
0.660859
1
1
1
1
1.34903
1
1
1
1
0.640008
1
1
1.44221
1.47182
1
1
1
0.902988
1
1
1
1
1
1
0.936929
1.00924
1.47148
1
1
1
1.47082
0.904707
1
1
1
1.46917
1.47243
1
1.00001
1
1
1
1
1
1
1
0.640546
1
1
1.46948
0.652026
1
1.46912
1
0.664696
1
1
0.637059
1
1
1
1
1
1
1
1.46247
1.47031
1
1
1
1
1.42982
1
1.14803
0.655486
1
1
1
1
1
1
1
1.02711
1
1
1.25185
1
1
1
1.38191
1
1
1
1
0.655905
1
1
0.62595
0.646953
1
1
1.47088
1
0.99629
1
1
1
1.32577
0.654812
1
0.654301
1
0.788312
1
1
1
1.47257
1
1
1.47203
1
1
1
1.47183
1
1
1.4723
1
1
0.641711
1
1.14595
1
1
1.4718
1.47208
1.30899
1.41864
1
0.639157
1
1
1.45052
1
0.684143
1
1
1
1.47532
1
1
1
1
1.27678
1
1.43776
1.46989
0.628841
1
1
0.680277
0.684754
1
1
1
1.33123
1.35116
1
1
1
1
1
1
1
1.19212
1.47211
0.995296
1
1.46426
0.666271
1
1
1
1.2512
1
1.09373
1
1.42784
1.46995
1
0.641479
1
1.4758
1
1
1.47083
1.44273
1
1.47373
1
0.645543
1
1
1
1.48139
1.4621
1.41248
1
1.47546
1.47116
1
1.47548
1
1.46987
1
0.658979
0.988313
0.655996
1
1
1
1
1
1.47207
1
1.47152
1
1
1
1.44827
1
0.669481
1.47238
1
0.637077
0.682176
0.681261
1
1.22553
1.04486
1.47321
1.47103
1
0.999999
1
1
1.47058
1
1
1.47025
1.4712
1
1.16083
1.00007
1
0.99678
1.4722
0.853649
1
0.816923
0.655845
0.659969
0.929346
1.46921
1.46522
1.08635
1.47191
1.47189
1
1
1.47011
1.47208
1.47171
1.47049
1
1.47204
0.687449
1.4694
1.47092
1.4721
1.48064
0.868216
0.877066
0.920733
1.47232
0.965187
1.47244
1
1
1.47343
1.4717
1
0.647259
1.47212
1.47226
1
1.47411
1.4743
1
1.47203
0.636795
1.47184
1.47076
1.46951
1.47388
1
1
1
1.4722
1.30247
0.711502
1.46962
0.636168
1.47219
1
1
1
1
1.468
1.46955
1
1
1.46982
0.635996
1.4695
0.659501
1
1.46844
1
0.628969
1.46907
0.73595
1
1.47165
1.47218
1.4701
1
1
1.2261
1.47299
0.664905
1.46934
1
1.47231
0.867081
1.47148
0.640762
1
1.46904
0.70965
1.4736
0.661955
1
1.47471
1
1.47174
1
1.27026
1.45346
1.36742
0.650603
1
1.47074
1
1.47138
1
1.47189
1
1
1.47239
0.973608
1.47665
0.631502
1.41263
1
1.3235
1
1.47212
1.47144
1.47201
1
1.422
1.47236
1.43544
1.2757
1.46347
1
1.31041
1
1.47025
1
1.06687
1
1.43667
1
1.47213
1.448
1.44864
1
1.46539
0.658091
1
0.651299
1
1
1
1.46908
1
1.47193
1
1
1
1.47354
1.46115
1.38495
1.46876
1.46996
0.644916
1.47533
1.47606
1
1.40075
1.47105
1.46898
1
1.47744
1.47118
1
1.47573
1.47161
1.4719
1.47217
1
1
1
1.47135
0.687115
1
1.47148
1
1
0.652589
1
1
1.47103
1.47075
1
1.47203
1.47958
1.47255
0.981654
1.47105
1
1.47253
1.47244
1.37173
1
1
1
1.47103
1.47019
1.4722
0.959792
1
1.48269
1.47066
1.46866
1
1.4718
1.47053
1.47264
1.48537
1
1.47083
1.4739
1.41296
1.46823
1.48398
1
1.46795
1.46568
1.47202
1.46613
1.47098
0.690313
1.47053
1.46886
1
1.47179
1.47125
1.47203
1.47096
1
1.47182
1.47096
1
1.47213
1.39413
1
1
1
1.46776
1.47502
1
1
1.24948
1
1.47163
1
1
1.47218
1.47343
1.47151
1.47124
1
1
1
1.32911
1
1.47229
1
1
1.47124
1.47032
1
1.4704
0.66377
1.47261
1.47264
0.735799
1
0.664155
1.41002
1.47964
1.47113
1.47114
0.624444
1.47266
1.47321
0.62774
0.625322
1
1.47274
1.47022
1
1
1.47207
1
1.47487
1
1.40923
1
1.20717
1.47037
1.46959
1.32153
1.42559
1.47431
1.46937
1.44913
1
0.660945
1.4748
1.47058
1.47365
1.00001
1
1
1.47718
1
1.47296
1.47073
0.774212
1
1.4714
0.99994
1
1.00003
1.00004
1.47089
1.47344
0.998451
1
1
1.47127
1.47586
1.47214
1.47426
1.47055
0.680816
1.41274
1
1.46794
1.47135
1.47383
1.47338
1
1.47271
1.45892
1.47538
1
1.47273
1.47048
0.866668
1.47032
1.47257
1
1.47175
0.821402
1.47109
0.876852
1.47262
1
1.47094
1.47687
1.47166
1.47197
1.47127
1.47421
1.47405
1.47113
1
0.932398
1.47094
1.47191
0.818111
1.47115
0.966772
1.28055
1.47037
1.47409
1.46883
1
1.47712
1.31247
1.47392
0.907975
1.47552
1.47897
1
0.849099
1
1.46423
1
1.32166
1
1.44573
0.861411
1
1.46931
1.468
1
1.47003
1.47355
1.47652
1.47486
1.4797
1
1.47279
1
1
1
0.895919
1.47198
1.47373
1.4762
1.47057
1.47756
1.47519
1.46952
1.47235
0.910403
1.03252
1
1
1.47965
1.47115
1.46976
1.46856
1.00003
1.24225
1
1.47484
1.41598
1
1
0.742246
1.47207
1
1
0.666148
1.47116
1
1.47484
1.47137
1.47512
1.45383
1.47139
1
0.661463
1.11278
1.4724
1.47149
1
1.47294
1.47192
1.23756
1.00928
1.09796
1
1.47124
1.4717
1
1
0.638518
1
1
1.47142
1.47079
1.46839
1.47212
1.47231
1.47092
1.47233
1.46801
1.47354
1
0.996221
1.47184
1.47133
0.996783
1.47167
1.47239
0.666218
0.631999
1.47203
1.46923
1
1
1.00129
1.47145
1.46772
1.46921
1
1.47073
1
0.870355
1.47485
1.47426
1
1.19752
1.47318
1
1.46969
1
1.47021
1.30217
1.47162
1
1.47163
1.46874
0.641902
1.47262
1
1.47042
1.47154
1
0.675576
1.47364
1.41108
0.997548
1.45186
1.47136
1
1.00236
1.46716
0.998026
1.47128
1
1
1.47195
1
1.46897
1.47261
0.996665
1.36309
1
1.47232
1
1
1
1
1.4687
1
1
1.47721
1
1.47101
1
1.30043
1.46773
1.47301
1
1
1.00132
1
1.47179
1.4722
1.47018
1.4716
1.47072
1.47213
1.47205
1
1.47084
1.47089
1
1.47211
1.46966
1
1.47182
0.933117
1.05799
1.47177
1.47067
1.47041
1
1.47144
1
1.47222
1.47196
1
1.47259
1
1
1
1
1.4699
0.656197
0.997935
1
1.4726
1.47973
1
1.47166
1
1.00561
0.678315
1.47101
0.999579
1
1.47001
0.998419
1.47082
1
0.99977
1
1.46957
1.47335
1.47247
1.4734
0.651555
1.46863
1.47268
1.47213
1.10797
1
1
1.19537
1.47224
0.66063
0.641671
1
1.47066
1.47156
1.47476
1
1
1.47284
1.47285
0.999875
1
1.33786
0.66234
1
1.07913
1.47336
1.47557
0.998245
1.47255
1.4831
1
0.998881
1
1.46615
1.47224
1.18503
1
1.44453
1
1.00222
1.47003
0.641822
1.46866
1.4744
0.997045
0.999914
1.41808
1
0.999709
1
1.47041
1
1.00001
0.664452
1.47135
1.00001
1
1
1
1.47485
1.26288
1
1
0.684058
1.47258
1.26172
1
1
1
1.45166
1.44958
1.47612
1
1
1.4739
1
1.47183
1.4702
1
1
1.47417
1.47178
1.45523
1
1
1.47403
1.47422
1
1
1
1.47522
1
1
1
1.47271
1.47677
1.47355
1
1.48229
1.00003
0.723934
1.46959
1.47143
1
1.47185
1.45848
1.46524
1
1
1.47795
1
1.25955
1.47426
1
0.660771
1
1.47231
1
1
1.47236
1
1
1
1.14764
1.47044
0.705174
1.00001
1.47059
1
1
1.46973
1
1.47745
1
1
1.47115
1.47241
1
1.00005
1
1
1
1
1
1
1.4665
1.47142
1
1.4747
0.661132
1.47154
1
1.47075
1.47933
1.47097
1.46072
1.47312
1
1
1.47429
1
1.28626
1.47533
1.47165
1
1.4727
1.46171
1
1.4166
1
1.47196
1.30112
1.47543
0.997702
1.46388
1.42194
1.471
1.46827
1.0383
1.46799
1.47587
1
1.46881
1
1.47118
1
1
1
1
0.996026
1.47059
1.47261
1.37925
1
1.47251
1
1
1
0.678146
1
1.46039
1
1.42436
1.46173
1
1
1
1.43511
1.47175
1
1
1.47113
0.656838
1.07204
1
1.47692
1.47197
1.42548
1.45911
1.4718
1
1.47462
1
1
1
1
1.47141
1.47216
1
1.46561
1.05384
1.47289
1.43786
1
1
1.4372
1
1
0.651496
1.3304
1
1
1.4669
1
1.47642
1.4287
1
1.42652
0.665465
1.47247
1.47014
1.47231
1
0.631092
1
1
1
1.47374
1.38146
1
1.48064
1.4723
1
1.47064
1
1
1
1
1.47187
0.999362
1
1.47396
1
1
1.47541
1.47094
1
1.4765
1.0875
1.00002
1
1.47058
1
1.47097
1
1.0157
1.4701
1
1.47098
1
1
1.14177
1.47276
1
1
1
1
1
0.996571
0.652247
0.666603
1.02009
1
1.02599
1
1.02545
1
1.4712
1
1.28752
1
1.4714
1
1
1
1.47105
1
1.36476
1.4726
1
1.24497
1.47321
1
1
1.46977
1.47014
1
1
1.05122
0.647399
1
1.47345
1
1
1
1
1.07844
1.47344
1
1
1
0.648878
1
1.47135
1.47028
1.4776
1
1
1
1
1.2282
1.4796
1
1
1
1.46653
1.47111
1.0532
1
1
1
1.47256
1.4712
1
0.66881
1.46944
1.47052
1.4743
1.47384
1.47107
1
1
1.47442
1.47775
1.46951
0.650481
1.04044
1.47302
1
1
1
1
1
1.47187
0.647785
1
1
1.47274
1.21205
1
1.48108
1
1
1
0.637985
1
1
1.11
1.47019
1.47148
1
1.48259
1.47456
1
1.07123
1
1.46505
1
1.47155
0.652883
1
1
1
1
1.47103
1.00006
1
1
1
1.44027
1
1
1
1
1.47225
0.641132
1.35447
1.47462
1
1.47053
1
1
1
0.99711
1
1.47313
1
0.821161
1
1
1.00003
1.47062
0.668333
1
1.46908
1
1.46847
1.47163
0.647242
1
1
1.45038
1
1
0.645265
1
1.46829
1
1.44993
0.999296
1.47238
1
1
1
1
1.47324
1
1
1.47171
1
1
1
1
1
1
1
1
1.30824
1
1.14282
1.46835
1
1
1
0.648689
1
1
1
1
1.4744
1.47243
1.05253
1
1
1.47193
1
1
1.4729
1
1.00002
1
1
1
1.00001
1.47168
0.803615
1.47126
1.47385
0.996723
1
1
1
1.27025
1
1
1.47007
1.47085
1
1
1
1
0.647314
1
1
1
1.29926
1
1.47083
1.47509
1
1.47429
1
1
1
1.25297
1
1.47078
1
1.47119
1
1
0.99593
1.47114
1
1
1
1
1
1.46979
1.00002
1
0.649309
1.46921
0.666813
1
1.47051
1
0.996347
1
1.47295
1.47346
1
1.46028
0.884032
1.47083
1.48095
1.00003
1
1
0.661724
1
1
1
1.47166
1.26282
1.47057
1
1
1
1
0.996825
1.47333
1
0.669457
1
1
1
1
1
1
1
1.48283
1.47382
1.47553
1
1
0.9969
1
0.984229
1
1
1
0.683303
0.98077
1
0.648458
0.646236
1
1.47405
1.47417
1
1.47311
1.47142
0.670949
1.31753
1
1
1
0.668448
1.47277
1
0.672827
1
1.47465
1.07352
1
1
1
1
1.47183
1.4701
1
1
1.47174
1
1
1.47245
1.47076
1
1.43963
1.47199
1.47043
0.954004
1.46757
1.00865
0.6703
1.36016
1.47053
1
1
1
0.679451
1
0.655987
1.4781
0.956386
1.47129
0.952729
1
1.47293
1.2062
1
1
1.46975
1
1.19302
1.47253
1
1
1.47306
1.46573
0.658701
1.26657
0.999898
1
1.28157
1
1.47602
0.940916
1.47567
1.46933
1
1
1
1
1.45196
1
1
1.47357
0.999648
1.47265
1.37125
1.4729
0.659987
1
1
1
1
1.47328
1.00004
1.47084
1
1.47052
1.46884
1.05576
1.4766
1.1442
1.47274
1
1.32211
0.675738
1.47371
1.4719
1.39277
1.07272
1.46981
1.47096
1.47107
1.47186
1
0.917594
1.07077
1
1.47228
1.22111
1.4713
1.00003
1
1
0.673707
1.47398
1.46965
1.38164
1
1.16959
1
1.47685
1.47767
1
1.47364
1.47002
1
1
1
1.47381
1
1.17946
1.47059
1.32011
1
1.4727
1
1
1
1
1
1
1
1
1
1
0.664362
1
1.45143
0.687154
1.27046
0.998583
1.4703
1
1.24484
1.00001
1.30173
1.39291
1
1.00213
1.48165
0.910221
1
1.4762
1.45697
0.93755
1
1.47366
1.4728
1.47462
1
1.47305
1.47252
1.47253
1
1.20551
1
1.00006
1.47276
1
1.46996
1.06846
1.47131
1
1
1.46616
1.47618
0.6774
1
1.47164
1.35071
1.47375
1
1
1.46937
1.46715
0.99825
1
1.40534
0.996968
1.46987
1.00006
1
1
1
1
1.21009
1
1.36425
1.46931
1.35017
1.47239
1
1.00282
1
1
1.47236
1
1.47115
1
1
1
1
0.999999
1
1.05763
1.24666
1
1
0.679838
1
1.4683
0.679273
1.47639
1
1.23128
0.999742
1.47182
1.29785
0.666407
1.25593
1.00003
1.47203
1.47008
1
1.27824
1.47599
1.47261
0.99841
1.48489
1.45743
0.665352
1
1
0.997859
1
1.46253
1
0.661637
1.47255
1
1
1.41145
1
1.46971
1
1.47279
1
0.698697
1
1
1.47322
1.46531
1.47147
1
1.4696
1.46809
1.48203
1
1
1.46063
0.999999
0.738996
1
1
1
1.47324
1
1.47266
1.3079
1.47051
1
1.47105
0.999381
1
1
1
1
1
1
0.744658
1
1
1.47135
1
1.47495
1.47502
1
0.666328
0.6619
1
1.47451
1.07696
0.662982
0.63531
1
1.47415
1
1.47787
0.631473
1.00142
1
1
0.999508
1
1
1
0.999914
1.18653
1.47065
1
1
1.47387
1.2753
1
1.4246
1.47074
1.47256
1.19014
1.46425
1
1.47173
1
1.47212
1
1.47151
1.46926
0.996931
1.46633
1.47759
1
1
1
1
1
0.926626
1.46916
1.00005
1.00003
0.653022
0.999982
0.680086
0.675865
1
1.47103
1.4719
1.47216
1
1.47271
1
0.663947
1
1
1.47473
0.843274
1.46942
1
1.47132
1
0.977924
1.47068
1
1
1
1.47236
1
1.47208
0.658156
1
1
1.27306
1
1
1.25405
1
1
1.47297
1
1
1
1
1
1.4747
1.47075
1
1.47092
1.47324
0.647729
1.20595
1.46969
1
1
1.42371
0.99898
1
1
1.47305
1.47381
1.29858
1
1.47081
0.661658
1.43725
0.999642
1
1.47253
1.00003
1.47038
1.39779
1.34962
1
1
1.47076
0.719546
0.659232
1
1.47107
1
1.47446
1
1.27503
1
1
1.47225
1.2918
0.676878
1
0.998434
1
1
1.02742
1.19163
1.47083
1
1.47617
1
1
1
1
1
1
1.06601
0.65816
1
1
1.03241
1
1
1
1
1
1.47365
1
1
1.4712
1.47018
1.34725
1
1
1
0.834832
1.4677
1.31648
1
1
1
1
1.47303
1
1
1
1.47134
1
1
1.33396
1.49085
1.03248
0.755387
1.47158
1.33555
1.47133
1
1.23466
1
1
1
0.660158
1.00232
0.635978
1
0.644561
0.621698
1
0.661433
1
1
1
1.19826
1
1.47176
1.46996
1.00129
1.2125
1.39353
0.664233
0.784174
0.889909
1
1.47082
1.47542
1.47091
1.47146
1.40388
0.875025
1
1.40481
1
1.45318
1
1
0.996622
1.00957
1
1
1
1.47065
1
0.685547
1
1.47547
0.648353
1
1
1.47107
1
1.47124
0.999874
1
1
1.47068
1.40925
1
1.4835
1
1
1.01429
1
1.20006
1
1
0.649053
1
1
1.47027
0.999998
1.47215
1
1.00003
0.656564
1
1
0.67957
1.00089
1
1.47406
0.655285
1.47647
0.665095
1.47315
1
1
1
1
1
1
1
1
1
1
1
1.45226
1
1.47156
1.47304
0.656831
1
1
1
1
1
1
1.4616
1
1
0.66398
1
1
1.475
1
1
1.17733
1.39473
0.653602
0.633912
0.719212
0.75167
1
0.996507
0.664873
1.00033
1.42938
0.996847
1
1
1.4717
1
1
1
0.788091
1.00001
1.16445
1
1
1.18797
1.47135
1
0.684253
1
1
1
0.9968
1
1.47036
1.47137
1
0.672517
1
1.25441
0.659956
1
0.892832
1
0.99612
0.622207
1
1
1
0.995539
0.64358
1
0.651668
0.998423
1.23889
1.40234
0.639499
0.646404
1
0.990662
1
0.998705
1
1.47036
1.47102
1
1.01488
1.47174
1.47209
1
1
1.47117
1
1
1.00004
1
1.47369
1
1
1.0184
1
0.998593
0.705414
1
1
1
1
1
1.47632
1.02943
1.00004
1
1
1
1
1
1.00003
1
0.645182
1.10466
0.99862
1.46721
1.45225
1
1.01491
1.4716
1.41623
1
1
0.660922
1.47258
1
1.47229
1
1.47463
1.33124
0.647182
1
0.658594
1.43828
0.999678
1
0.658846
0.673111
1
1
1.39196
1
0.999998
0.630674
1
1
1
1.1487
1
0.657976
1.46939
1
1
1
1
1.47103
1
1
1.47789
1.42262
1
1
1
1.47633
0.644779
1
1.47106
1.47221
1
1.37585
0.999999
1.00003
1
1
1.44305
1.01643
1
0.656269
1.2568
1
1
0.997754
1
1
1.47399
1
1
1.00003
1
1.47034
1
1
1
1
1
1
1.00001
1.20745
1
1.47368
1
1
1.47387
1
1
1
1.47076
1.47538
1.04721
1
0.997755
1
1
1
1
1.47201
1
1
1.47125
0.660509
1
1
1
1
1
1
1.3772
1
1
1.47083
1.47252
1
1
1
1.47111
1.47121
1
0.999722
1.46745
1
1
1
1.00002
0.674116
1.02805
0.996352
0.995916
1
1
0.671935
1.47302
1
0.643383
1
1.46948
1.45345
0.649958
0.999406
1.47055
1.47152
1.47061
1
1
0.928714
1.42945
1.37783
0.661004
1
1
1
1.47296
1.4724
0.662581
0.99729
1
1.4727
0.687111
1
1.45668
0.658567
0.982486
1.0071
1
1.47331
1
1
1
1
1
1
1.00011
1.43734
1
1
1.47612
1
1
1
1.47112
1
0.645471
1
1
1
1.16257
1
1
1
1
1
0.791818
1
0.682759
1
1.47214
1.00005
0.858663
0.874665
1.00002
1.00364
1.23845
1
1
0.658878
1.47097
1.47217
1.47152
1
0.639629
0.632541
1
1.47004
1
1
1
1
1
1.00003
1
0.656761
1.29356
1
1
0.646172
0.989256
1.00001
1
1
1
0.622729
1
0.710471
1
1
1.46457
1
1
0.656332
1
1.47179
1
0.670381
1
0.657185
1
1.00819
1.47192
1.48642
1
1
1.47317
1
1
1.09783
0.996808
1
0.998263
1
1.47363
1
0.653843
1.00002
1.46989
0.998749
1
1
0.794595
1
0.998932
0.654663
1.47456
1.16867
1
1.00001
0.889721
1
1
1
0.812924
1
1
1
1.47115
1
0.644909
0.999999
1
1
1
0.652587
1.47122
1.44595
0.657085
1
1.47022
1
1
1.47166
1.47114
1.39784
0.651895
0.997763
0.999283
1
1.4723
1
1
1
1
1.471
1.00004
1
1
1.47479
1
1
1.47101
0.660722
1
1
1
0.660694
1
0.999999
0.999999
0.998733
1
1
1
1
1.3602
1
1.4722
1.47123
1.475
1.47121
1.46916
1.4719
1
1.47395
1
1.47179
1.47192
1
0.998862
0.672873
1.40203
0.999886
1
1
1
1
1.00112
1
1.07478
1
1
1
0.835283
1.47165
1.47306
1.46933
1.40181
0.999867
1
1.02312
1.46953
0.997985
1.05843
0.99702
0.626701
1
1.00003
1
1
1
1
1
1.47015
0.651225
1.47049
1.47143
0.994776
0.646284
1
1
1
1.47281
0.659936
1.4145
0.648048
1.47145
1.46679
0.655818
1.47071
1.025
1
1.47522
0.798582
1
0.998724
0.686755
1
0.641808
1
1.4723
1.47147
0.781877
1
1.4728
0.631849
1
0.664063
1
1.47132
1
1
1.44554
1
0.845449
1
0.999655
0.646155
1.4618
0.999493
1
0.666603
1
1
1
1
1.25282
1
1.47246
1
1
1.48286
1
1
1.47115
1
0.652873
1
0.647052
1.00001
1
1
1
1
1.45119
1.27385
1.471
1
1.47132
1.43983
0.624821
0.6844
1
1
1.47426
1
0.654207
1
0.994525
1
1
1.47329
1
1.47045
0.686219
1.48227
1
0.688121
1
1
1.46852
1.4711
1
1.00004
1
1.47688
1
1
0.672331
0.999424
0.674932
1
1
1
1.47548
1.47727
1.47118
1
1
0.649648
1
1.47013
1
1
1
1.45905
1.47066
1.47131
0.647008
1.47492
1.47301
0.646799
1.47052
1.00004
0.653257
1.0129
1
1
1.47333
0.635627
1.29136
0.635667
1.47314
0.99729
0.640976
1.47497
1
1
1
1
1.47221
1.47242
0.654149
1
1.00002
0.661059
1.00003
1
0.659228
0.662615
1.32775
1.47131
0.998479
1.47146
1
1.47783
0.800909
0.67365
1.47124
1.48426
1
1.47081
1
1
1.47093
1
1.37398
1.47065
1
1
1
1
1.46874
1.46622
1.46976
1
1
1.47175
1.47089
1.46882
1
1.46974
1
1
1
1
1
0.655495
0.847882
0.677725
1
1
1.47035
1
1
1.47042
0.684485
1
1.47099
1.46514
1.45038
0.659282
1
0.646252
1
1.00003
1.47222
1.22513
1.47117
1.42746
1
0.666526
1
1.47426
1.33452
0.666124
1
1
1
0.818925
1
1
1.47867
1
0.65561
1.4734
1
1
1
1
1
1.37511
1.10364
1
1.47132
1
1.47224
1
0.997479
1
1.47077
1.46665
1.4702
1.47424
0.999575
1.47126
1
1.47198
1.47209
1.39184
1
1
0.680449
1.46718
1
1
1.47898
1.47101
1.47178
1
1.46939
1
1
1.00003
1.46994
1.4705
1.13091
1.09957
1.47133
1.47255
0.702972
1
1
1
1
1.00001
1.16426
1
1
1.39074
0.675485
0.999974
1
1.47192
0.999897
0.999802
1.06603
1.43566
1.46946
0.915827
1
0.673183
1
1.00133
1.47031
1.47354
1.4787
0.999028
1
1
0.659125
1
1
1.47011
1.04796
1
1
1
1
1
1
1
0.999939
1.47083
1.00002
1
1
1
1
1.29915
1
1.21177
1
1
1.47268
1.4757
0.665
0.998802
1
1
1
0.655298
1.47161
1.47126
1
1
1
1
1
1
1
1
1.46933
1.46567
0.668412
1.04883
0.656849
1
0.646798
1
1.47181
1.13135
1
1
0.703541
1
1.45063
0.811011
0.996907
0.665865
1
1
1.4702
1.00004
0.997176
0.640773
1.47416
1.47134
1
1
1
1
1.43665
1
1
1.47116
0.998989
1.47149
1.00009
1
1
0.682257
1
1
1.46973
0.670865
0.780611
0.654815
1.47186
0.999182
1
1.47221
0.6467
0.672773
1.00468
1
1
1.4721
1.00004
1.21872
1
1
1.47219
0.659736
1
1
1.00013
1.47275
1.00018
1.45057
1
1.00003
1
1
0.700346
1
0.779784
1.00002
1
1.4721
0.687502
1
0.760983
0.802181
1
1
1.46965
1
1
1
1.47075
1.47201
1.00005
1.45227
1.47175
0.767599
1.47449
1.46969
1
1
1.4544
0.999999
1
1
1
1
1.47876
1.47178
1
1
1
1.4694
1.00021
1
0.664131
0.696006
1
1.00003
1.17174
1
1
0.897021
0.649077
1
1
1
1.47632
1.42918
1.47222
1
1
1
1
0.694289
1
1.45535
1
1.46709
0.653372
1.473
1
1
1
0.641931
1
1.47293
1.00003
1
0.665532
1.16299
1
0.999657
1.48392
0.645232
0.668863
1
1.47413
0.641463
0.661782
1
0.692774
1.00001
1
1
1
0.629118
1
1
1
1
1.46968
1
1.3565
0.664511
1
1
1
0.655396
1.4722
1
1
0.996789
1.4719
1
1.47122
1.47158
1
1
0.750835
0.655492
1
1
0.665764
1.14477
1.21077
1
1
1.47588
0.997371
1
0.997629
1.47266
1
1
1
1
1
1
1.46962
1
1.1605
1.14619
0.675167
1.41773
1
1.4722
1.47188
1
1
1
0.909914
0.681195
1
1.22192
0.999664
1.40735
1
1
1
0.999999
1
1.0071
1.20569
1.47322
1.47317
1
1.47332
1
0.637436
1
0.997652
0.999736
1
0.657075
1
0.654734
1.00002
1.47624
1.47165
0.671853
1.47388
0.679332
0.996093
1.34825
0.648151
1.35299
1
1
0.998414
1
1
1
1.00006
1
0.656395
1
1
1
1
0.999567
1.4689
0.812065
1
1
1
1.03753
1
1
1
1.26959
0.763422
1
1
1
1.04997
1.46697
1
0.643835
1
1.4754
0.889609
0.62682
1
0.655113
1
1
1.44467
0.998201
1.43526
1
1.00924
1
1
1.47242
1
1
1
1
1.08797
1
1.47097
1.47435
1.47116
0.66523
1.4738
0.997067
1.38325
1
1
0.654125
1
1
0.674112
1.47758
1
1
0.999961
1
1
1
0.649339
0.654881
1
1.47805
1
1.22278
1.47181
0.665102
1.38918
1
1
0.681779
1
1
1.47111
1.4712
1.16057
1
1
1.00163
1.47143
0.662541
0.674739
1.47303
1.46928
1.32763
1.18544
1
0.890192
1
1
1
1.44278
1.47444
1.46964
1
1
1.47213
0.668532
1.42128
0.634684
1
0.668484
1
0.674879
1.47098
0.64107
1
0.984539
0.674807
1
1
1
0.853894
1.42589
1.47221
1.46964
1.47055
1
1
1.47097
1
1
1.46997
1
0.633781
1
0.682589
1
1.47336
1
1
1.02396
1.35392
1
0.998997
0.626817
1.47108
1.00001
0.661763
1.08934
1
1
1.35015
1.47184
1.47131
1
1.47397
1.11708
1
1.02601
1.47014
1
1
1
1
1.472
1
0.682232
1.46946
0.666259
0.690128
0.834058
1.4736
1.15796
1.4709
1
1.47669
0.997538
1.00003
1.47182
1.47381
1
1.46881
1
1.47119
1
1.47212
1
1.00004
0.999968
1.46999
0.640592
0.667716
0.997896
0.999999
1
1
0.672023
1
1.30666
1
0.664322
1
1.17711
1.47138
1.47912
1
1
1.00003
0.99945
1
1.47081
1.47179
1
1.19458
1.47352
0.85378
1.47081
1.00025
0.666184
1.0952
0.640142
1
1
1.07967
1.4717
1
1
1.03861
0.99854
1
0.676533
1
0.797808
1
1.4712
1
1
0.660111
1.1064
1.06706
0.998525
1.4713
1.471
0.787465
0.998056
0.665313
0.646286
0.681623
1
1
1
0.999035
0.743936
0.656155
1
1.47327
0.999741
1.47134
1.46913
1.4713
1.47114
1
0.657204
1.47067
0.65875
1
1.47116
1.4764
0.996711
0.795639
1.47134
1.33077
1
0.675072
1
1
1.47378
1
1.02639
1.47161
1
0.689254
0.672257
1
1
0.65692
0.62951
1.47208
1.00003
1
0.669336
0.640934
1.47707
1.46217
1.43886
1.47139
1.13428
0.98347
1.18422
1.46829
1.3502
1
1.22868
1
0.635228
0.870435
1
0.672012
1.46966
1.02238
1.47396
1
1.47162
1.47236
1
1.47266
1.47151
0.658753
1.47425
1
1.48379
1
0.76387
0.658074
1.47218
1
1
1
0.661891
1.47147
1.47386
1
0.649736
1
1
0.662706
1.00004
0.64311
1.47128
1
0.811982
0.626084
1
1
1.27401
1
1
1
1.07984
0.651789
1
1.00001
1
1.47313
0.665787
1
1.471
0.672713
0.632942
1
1
1.46861
1
1.47053
1.00001
1.4692
0.660396
1
1
0.654453
0.804909
0.686878
1
1
1
1
1.4778
0.663159
1
0.664368
1
1.46626
1
1
0.915561
1
1
0.833576
0.999693
1.00005
1
0.665462
0.656258
1
1
1
1
0.784539
1.47065
1.47181
1
0.657489
0.62907
0.910896
0.658226
1
0.807181
1
0.660138
0.984276
1
1
0.669307
1
1.47202
1.46338
0.655092
1
1
1
1.47471
1
1.04482
0.854561
1.14601
0.657924
1.183
0.674096
1
1
0.723274
0.921341
1
1.0411
1
1
0.662682
1
0.929214
1.04855
0.665507
1
1.37445
0.762255
0.899512
1
1
1
0.655151
1
0.663573
0.668897
1
0.85598
0.65767
1.0661
0.75732
0.654833
1.47144
1
1.47073
1.25695
0.702111
1.47069
0.676322
0.999026
1.47325
0.999999
1
1.47188
1
0.705546
1
1.06604
1
1
1.47164
1
0.764902
0.795215
1.47179
0.94258
1
0.772307
1.47182
1.47094
0.922927
1
1.47167
1.11985
0.845652
1
1.0219
1
0.642633
1.20917
0.755979
0.722864
1
1
0.665954
1.47133
0.958948
0.670452
0.652812
0.858306
1
1.00855
1.47333
1.4714
1
1
0.999999
0.647843
1.21969
1.00002
1.47208
1.42939
0.668128
1
1.09387
0.881719
1.28534
1.41707
1
1.04522
1
1.00005
0.660437
0.827374
1
1
0.793438
0.668648
1.03779
1
1.00001
0.6573
1.20545
1
1.45992
1
1.04689
1.24895
1
1.45869
1
1
1.47329
1
0.653627
1.47259
0.676356
1.12446
1
0.65744
0.999919
1
1.00003
1
0.801462
1.02632
0.659526
1.34517
1.472
0.64148
1
1
1
1
1
0.95933
0.673119
1.05058
0.669843
0.64614
1.07514
1
0.999799
1.11712
1
1
0.656882
0.983378
1
1
1.12809
1
1.47095
1
1.47256
1.08487
1.01882
0.656615
1
1
0.672999
1
1
1
1
1.47092
1.04225
0.998083
1
0.651567
1.05132
0.999999
1
1.30175
1
0.651269
1.46891
1
1.00001
1
1.46948
0.675982
0.872769
0.65711
1.35432
1.47165
1
1
1.47171
1
0.631317
1
1
1
1
1
0.757749
1
1.47067
1
1
1.15354
1.47057
0.643657
0.863882
1
1.47107
1
1
1
1
1
1.47134
1.47271
0.627258
1.47147
0.657212
1
1
1.47524
1
1.47398
1.00611
1.0278
1.06334
1.47004
1.06889
1.31427
0.6519
1
0.643328
0.984419
1
1.47075
1
1
0.670073
1.4676
1
1.47222
1
1
1
1
1
1.00001
0.670015
1.4723
0.833645
1.47036
1
0.676214
0.656163
0.715787
1.47484
1.47179
0.962636
1
0.776916
1
1.1772
1
1.4719
0.644577
0.663475
0.840056
1
1.47244
1
1.0734
0.664537
1
1.47192
1.40886
0.998875
1
1.46952
0.654793
1.47198
1.47379
1.46596
0.663377
1.08649
1
1
0.637358
1
0.798338
0.826947
1
1.00002
1.47218
1
1.47481
1.07761
1
1.04081
1.47736
1
0.679544
1
0.789266
1
1
1.38634
1
0.782545
1
0.652577
1.03658
0.948681
0.633749
1.47187
1.37766
1.46977
0.670649
0.678625
0.995902
0.999999
1
0.663243
1.44458
0.656809
0.99997
1
1.47206
1.47224
0.90458
1
0.655062
0.714505
1.3133
0.978124
0.663686
0.999999
0.663874
1.11908
0.643351
1
1.00005
0.815142
1.4713
1.47213
0.850272
0.999573
1
1
0.743689
1
0.647917
1
0.627164
0.647394
1
1
1.00003
0.660184
1.47113
1
1
1.00007
1.00004
0.643146
1.47086
1.46992
1
0.659154
1.46816
1
1.09013
1
1
1.47402
0.645945
1
1
0.660227
0.728173
0.645737
0.668069
1
0.71065
0.997048
1.09143
0.672309
1
1
1.13518
1
1.41694
1
1
1.31211
0.679003
1
0.6316
1.12179
1.46974
1
1
0.674601
0.677537
0.648176
0.747344
0.674295
1.35164
0.999391
1
1
1
1
1.47356
0.673724
1
0.928084
0.999675
0.999388
0.999938
0.745021
1.11373
1
1.47515
1.47198
1
1
1.45557
1.00005
0.999999
1.47049
0.665258
1.47552
0.999999
0.628339
1.47295
1.00005
1
0.807537
1
0.638936
1
1.47054
1
1
1.47479
1
1
1.47274
1
1
1
1.46696
1
0.744873
0.708762
1
0.637572
1.47221
1
1
0.970811
1
1.47421
1.26819
1.37519
1
1
0.687144
1
0.644496
1.47191
1.46992
1.47157
1
1.47205
0.65825
1
0.642022
1.37678
1.42506
1.46978
1.46923
0.7745
0.64653
1
1.3081
1.4725
1.46934
1.4704
0.735282
1.16766
1
1.35403
0.750553
1
1.00002
1
1.00002
0.881211
1
1.47951
1
1
1
1
1
1
1.00006
1.46932
1
1.47581
1.34733
0.66011
1.472
1.0224
1.23162
1
1.47073
1
0.67039
1
1
1
1
1.3984
1
0.642913
1.47188
0.638814
1.47231
1.3721
1.23413
1
1.09011
1.21892
0.995888
0.623568
0.780107
1.00002
0.999999
0.917939
1
0.638524
1.47212
0.660148
0.934146
0.866834
1
1
1
1.01335
1
1
0.629446
0.996992
1.46791
1
1.47191
1
0.649627
1
1
1.47125
1.47288
0.643681
1
1.47163
1
0.823831
0.6566
1.46888
1.41982
1
1.07946
1.46956
0.998684
1
1.19173
1.41626
1.46825
0.995235
1
0.999998
1.39567
1
1
1
1.47173
0.998488
1
1
1.4724
1
1
0.659202
1
1
1
1.46864
1
1
0.844841
1.14227
1.42534
0.753326
1
1.47074
1
1.16257
1
1.47349
0.99745
1.47071
1
0.652803
1
1.32035
1
1
1.43978
1.00002
1.47176
1
1.47449
0.674476
0.66333
1.47187
1
1.39728
1
1.46971
1
1
1.00005
1.46815
1.4707
1.12146
1.47161
0.995891
0.65958
1.46965
0.846654
1
1.47201
1
1.47093
1
1.47348
1.47108
0.996336
0.648698
1
1.47045
1
1.0262
1
1
0.997922
0.71941
1.42013
1
1.42834
1
0.857537
0.655785
1.47271
1.47358
0.66289
1
1.47368
1.47788
1.47514
0.712525
1.47184
0.645758
1.4708
1.48115
1
1
1.47205
1
1
1
1
0.649583
1
1
1.46964
1.47236
1
1.47172
1
1.47905
1.46879
1
1.39025
1
0.643206
1.47126
1.36195
1.13089
0.636148
1.47145
1
1
0.647913
1
1
1.47174
1
1
0.791024
1
1.47287
1.00008
1.47115
0.650707
1.47337
1
1.46963
1.45517
0.889558
1
1.47043
0.787522
1.47262
1.33086
1.47133
1.47593
0.997504
1.47033
1.4724
1.47092
1.4713
1.00062
1
0.673803
1
1.46728
0.845881
1.42591
1
1.46309
1
1
1
1
1
1.46669
0.646833
0.632064
1.47303
1.47126
1
1
1
1
1
1.46729
1.42142
1.47198
1.00539
1
1
1
1.00003
1.47201
1.47189
1
1.47601
1.47176
0.641007
1.32835
1
1.4718
1.47203
1.46878
0.998112
1.47045
1.47271
1
1.44301
1
1
1
1
1
1
1.47277
1.47207
1.43996
1.47078
0.644494
0.689172
1.47247
1.47141
1
0.645862
0.943604
1
1.22329
0.663957
1
0.999461
0.998243
0.661312
1
1.47028
1
1
1
1.47164
0.943439
1
1.47143
1.47145
1
1.47063
1
1
1.47036
1
0.669129
1
1.47694
1
1
0.656728
1
1.4733
1
0.645754
0.657355
1
1.45471
1
0.634235
0.882507
1
1.47195
1
1
1
1.47354
1
0.672462
1.06569
1.47286
1.47428
1.47109
1.04356
1.47412
1.47097
1
1.00002
1
1
1.00001
1.47151
1
0.999266
1.47709
1
0.641972
1
1.47088
1.21499
1.05844
1.21502
1.06314
1.46377
0.714967
1.47187
1
0.652299
0.99711
1.47034
0.932231
1.47003
1.47204
1.46457
1
1.47395
1.47092
1.47246
1
1.00004
1
1
1.47067
1.33508
1
1
0.666648
0.99632
1
1.47234
1
1.4726
1.4723
1.47325
0.902764
1.47249
1.4721
1.00459
1.22497
1.47168
1.47155
1
1.43897
0.820641
1.45507
0.984971
1.47149
1
1.46875
1.47302
1
0.663388
0.922569
0.684598
1
1.08286
0.99674
1.46768
1
1
0.996542
1
1.22315
1.43371
1
1
1.47399
1
1
1.33355
1.47201
1.45435
1.47381
1.47142
1
1.47164
0.735521
1.47134
1
0.989803
0.658287
1
1
0.763373
1
1.14231
1
1.47221
1
1.46082
1.29501
0.656598
1
1
1
1
1
1.47109
1.01146
1
1.47398
1
1.4717
1.472
0.999999
1
0.965433
0.999835
0.672341
0.642506
0.726718