/*--------------------------------*- C++ -*----------------------------------*\
  =========                 |
  \\      /  F ield         | OpenFOAM: The Open Source CFD Toolbox
   \\    /   O peration     | Website:  https://openfoam.org
    \\  /    A nd           | Version:  12
     \\/     M anipulation  |
\*---------------------------------------------------------------------------*/
FoamFile
{
    format      ascii;
    class       volScalarField;
    location    "16";
    object      rho;
}
// * * * * * * * * * * * * * * * * * * * * * * * * * * * * * * * * * * * * * //

dimensions      [1 -3 0 0 0 0 0];

internalField   nonuniform List<scalar> 
9801
(
1.11892
1.12032
1.11848
1.12083
1.12439
1.13015
1.14238
1.15599
1.16451
1.17021
1.1751
1.17944
1.18287
1.18114
1.18017
1.18277
1.18688
1.19359
1.20758
1.2219
1.23064
1.23657
1.24159
1.24632
1.24812
1.24408
1.24413
1.2476
1.25251
1.26119
1.27836
1.29307
1.30158
1.30775
1.31298
1.31734
1.3144
1.31005
1.31224
1.31728
1.32373
1.33833
1.35932
1.37298
1.3808
1.38717
1.39287
1.39188
1.38321
1.38261
1.38744
1.3942
1.40608
1.43016
1.45081
1.46214
1.47039
1.47718
1.48005
1.46886
1.46252
1.46646
1.47459
1.48644
1.51289
1.54171
1.55866
1.56949
1.57903
1.58555
1.57318
1.55808
1.56006
1.57025
1.58611
1.62207
1.66147
1.68498
1.69993
1.71297
1.72152
1.70461
1.68155
1.68376
1.70062
1.73122
1.79376
1.85069
1.88546
1.91245
1.938
1.94298
1.91806
1.9039
1.92533
1.99364
2.14712
3.71441
11.5403
1.12419
1.12592
1.1247
1.12684
1.13018
1.13535
1.14825
1.16276
1.17129
1.17681
1.18128
1.18516
1.18795
1.18647
1.18561
1.18807
1.19188
1.19804
1.21291
1.22806
1.23678
1.24252
1.24724
1.25144
1.25276
1.24903
1.24902
1.25229
1.25678
1.26517
1.28337
1.2986
1.30708
1.31299
1.31797
1.32186
1.31882
1.31459
1.31656
1.32114
1.32695
1.3414
1.36334
1.37727
1.38519
1.39144
1.39682
1.39627
1.38792
1.38673
1.39095
1.39698
1.4074
1.43158
1.45323
1.46519
1.47355
1.48043
1.48405
1.47389
1.46645
1.46932
1.47659
1.48662
1.51187
1.54203
1.56008
1.57117
1.58073
1.58775
1.57733
1.56154
1.56189
1.57125
1.58373
1.61426
1.65498
1.68079
1.69733
1.71138
1.72335
1.70994
1.6839
1.68263
1.69754
1.72014
1.77123
1.82855
1.86711
1.89703
1.92513
1.93558
1.91361
1.8978
1.90401
1.94892
2.02136
3.48452
11.5278
1.12169
1.12402
1.12299
1.12509
1.12842
1.13331
1.1462
1.16096
1.16922
1.1745
1.1788
1.18261
1.18538
1.18385
1.18316
1.1857
1.18953
1.19543
1.21038
1.22577
1.23428
1.23982
1.2444
1.24853
1.24977
1.24612
1.24627
1.24964
1.25412
1.26218
1.28035
1.29561
1.30389
1.30964
1.31457
1.3186
1.3158
1.31152
1.31344
1.31798
1.32357
1.33692
1.35866
1.37273
1.3807
1.38696
1.39251
1.39353
1.38536
1.38295
1.38666
1.39245
1.40131
1.42381
1.44682
1.45963
1.46818
1.47517
1.48011
1.47197
1.46255
1.4638
1.47032
1.47857
1.49824
1.53053
1.55148
1.56331
1.57287
1.58075
1.57463
1.55744
1.55398
1.5613
1.57205
1.59398
1.63806
1.66982
1.68704
1.70029
1.71204
1.70477
1.67685
1.66877
1.68045
1.69877
1.7348
1.79727
1.84617
1.87814
1.90539
1.92029
1.90087
1.88619
1.89157
1.92554
1.95627
3.33434
11.3854
1.11971
1.12184
1.12081
1.12296
1.12626
1.13082
1.14317
1.15831
1.16676
1.17204
1.17629
1.1801
1.18255
1.18053
1.18005
1.1827
1.18653
1.19202
1.20635
1.22211
1.23075
1.23629
1.24087
1.245
1.24604
1.24223
1.24244
1.24578
1.25017
1.25735
1.27469
1.29054
1.29908
1.3049
1.30991
1.31411
1.31161
1.30691
1.30844
1.31269
1.31786
1.32858
1.35005
1.36576
1.37441
1.38087
1.38654
1.3891
1.38076
1.37594
1.37893
1.38457
1.3919
1.41106
1.43689
1.45165
1.4603
1.46712
1.47276
1.46708
1.45425
1.4531
1.45919
1.46711
1.48154
1.51436
1.53981
1.55253
1.56182
1.5698
1.56855
1.54897
1.53963
1.54563
1.55631
1.57164
1.61018
1.64819
1.66767
1.68075
1.69308
1.69603
1.67173
1.65229
1.65697
1.67424
1.69732
1.74509
1.79888
1.83556
1.86426
1.88824
1.88251
1.86139
1.84992
1.86493
1.87271
3.23309
11.2801
1.11635
1.1178
1.11672
1.11899
1.12236
1.12681
1.13845
1.1538
1.16251
1.16781
1.17205
1.17578
1.17776
1.17534
1.17492
1.17754
1.18132
1.18634
1.19949
1.21594
1.22511
1.23073
1.23533
1.23943
1.24045
1.23643
1.23611
1.23913
1.2433
1.24923
1.26505
1.28259
1.29199
1.29797
1.30302
1.30735
1.30572
1.30023
1.30061
1.30416
1.3089
1.31682
1.33734
1.35605
1.36569
1.37211
1.37762
1.38084
1.37345
1.36681
1.3689
1.37411
1.3805
1.39488
1.42172
1.43927
1.44849
1.45528
1.46136
1.45946
1.44543
1.44092
1.44607
1.45365
1.46428
1.49241
1.52189
1.53679
1.54649
1.55495
1.55925
1.54375
1.52705
1.52802
1.5378
1.54996
1.57765
1.62156
1.6489
1.66414
1.67701
1.68646
1.67269
1.64571
1.63751
1.64877
1.6678
1.70016
1.75343
1.79975
1.83349
1.86241
1.87713
1.86211
1.84253
1.83669
1.81334
3.16678
11.2359
1.1128
1.1137
1.11259
1.11485
1.1182
1.12243
1.13327
1.14912
1.15832
1.16359
1.16771
1.1713
1.17331
1.17101
1.17036
1.17274
1.1763
1.18064
1.19185
1.20947
1.21979
1.22555
1.23006
1.23403
1.23551
1.23145
1.23028
1.23288
1.23681
1.24172
1.25498
1.27461
1.28563
1.29181
1.29674
1.30101
1.30061
1.29405
1.29273
1.29587
1.30057
1.30704
1.3251
1.34651
1.35769
1.36435
1.36974
1.37369
1.36855
1.35932
1.35928
1.36404
1.37032
1.38155
1.40724
1.42793
1.43832
1.44553
1.4521
1.45488
1.4426
1.43173
1.43366
1.4406
1.44949
1.47161
1.50506
1.52453
1.53517
1.54383
1.5514
1.54487
1.52353
1.51621
1.52264
1.53369
1.55093
1.59124
1.63097
1.65264
1.66679
1.67916
1.67821
1.65173
1.63303
1.63365
1.64841
1.66975
1.70974
1.75901
1.79799
1.82888
1.85569
1.8622
1.84896
1.83117
1.78398
3.10121
11.2402
1.10957
1.11056
1.10935
1.11151
1.11471
1.11849
1.1277
1.14401
1.15417
1.15964
1.16372
1.16729
1.16968
1.16767
1.16634
1.16835
1.17174
1.17576
1.1848
1.20274
1.2147
1.22097
1.22552
1.22949
1.23179
1.22784
1.22497
1.22691
1.23079
1.23556
1.2466
1.26677
1.27974
1.28665
1.29173
1.29619
1.29791
1.2907
1.28588
1.28807
1.29289
1.29941
1.31531
1.33775
1.35062
1.35788
1.36359
1.36881
1.36856
1.35756
1.35241
1.35556
1.36146
1.37047
1.39342
1.41809
1.43077
1.43854
1.44546
1.45138
1.44484
1.42953
1.42612
1.43122
1.43895
1.45342
1.48704
1.51543
1.52922
1.53822
1.54642
1.54789
1.5281
1.51254
1.51282
1.52208
1.53424
1.56057
1.60712
1.64104
1.65947
1.67324
1.68334
1.67125
1.64355
1.63229
1.63724
1.65285
1.67784
1.72129
1.76432
1.79746
1.82487
1.84729
1.84772
1.83352
1.7789
3.04336
11.2715
1.10775
1.10893
1.10719
1.10907
1.11221
1.11606
1.12425
1.14026
1.15135
1.15724
1.16155
1.16529
1.16825
1.16668
1.16354
1.16474
1.168
1.17225
1.18062
1.19807
1.21126
1.21811
1.22292
1.22711
1.23043
1.22788
1.22238
1.22272
1.22624
1.23109
1.24123
1.26121
1.27572
1.28322
1.28861
1.29339
1.29708
1.29229
1.28402
1.28373
1.28787
1.29363
1.30707
1.3307
1.34622
1.35416
1.36018
1.36583
1.36935
1.36027
1.35079
1.35106
1.35604
1.36289
1.38021
1.40944
1.42722
1.43608
1.44311
1.44978
1.44972
1.433
1.42387
1.42602
1.43294
1.44231
1.46717
1.50446
1.52609
1.53694
1.54536
1.55142
1.5407
1.51792
1.51043
1.51519
1.52543
1.53923
1.57395
1.61996
1.64905
1.66666
1.68121
1.68859
1.67029
1.64354
1.63584
1.64362
1.66021
1.68897
1.73187
1.76888
1.79719
1.82014
1.83278
1.8295
1.79077
3.00565
11.3103
1.1075
1.10967
1.10663
1.10759
1.11049
1.1142
1.12164
1.13762
1.14979
1.15622
1.16083
1.16478
1.16829
1.16824
1.16352
1.16307
1.16591
1.16989
1.17717
1.19432
1.20905
1.21665
1.22182
1.22621
1.23013
1.22999
1.22306
1.2213
1.22412
1.22848
1.23644
1.25599
1.2731
1.28167
1.28736
1.29228
1.29671
1.29525
1.28542
1.28283
1.28586
1.29085
1.29974
1.32275
1.34351
1.35354
1.35995
1.36554
1.37017
1.36529
1.35252
1.34961
1.35332
1.35936
1.36988
1.39801
1.42408
1.43605
1.44342
1.44996
1.45355
1.44169
1.42618
1.42416
1.42965
1.43741
1.45029
1.48494
1.51916
1.53581
1.54551
1.55414
1.55651
1.53642
1.51619
1.51265
1.51865
1.52922
1.54727
1.58927
1.63261
1.65905
1.67608
1.69012
1.69209
1.67094
1.6477
1.64231
1.65103
1.66802
1.70023
1.74198
1.77381
1.79573
1.81044
1.81628
1.79942
2.99286
11.3445
1.1082
1.11151
1.10778
1.10786
1.11041
1.11389
1.11979
1.13515
1.14936
1.15664
1.1614
1.1654
1.16906
1.17052
1.1657
1.1637
1.16587
1.16951
1.17498
1.19036
1.20765
1.2167
1.22225
1.22677
1.2309
1.2327
1.22628
1.22224
1.22404
1.22804
1.23365
1.24992
1.271
1.282
1.28815
1.29315
1.29777
1.29916
1.28994
1.28401
1.28564
1.29024
1.29631
1.31356
1.33986
1.3541
1.36124
1.36683
1.37201
1.37188
1.35841
1.35073
1.35265
1.35817
1.3651
1.38368
1.41637
1.4357
1.44473
1.45136
1.45731
1.4543
1.43589
1.4263
1.42732
1.43361
1.44199
1.46224
1.50357
1.53275
1.54678
1.55635
1.56506
1.56041
1.53247
1.516
1.5166
1.52497
1.53627
1.55761
1.60216
1.64154
1.66536
1.68206
1.69549
1.69631
1.6755
1.65302
1.64786
1.65657
1.6742
1.70896
1.74822
1.77478
1.7905
1.79958
1.80174
3.00152
11.3729
1.10993
1.1142
1.11053
1.10944
1.11146
1.11472
1.11936
1.13273
1.14927
1.15795
1.16303
1.16714
1.17087
1.17338
1.16957
1.16576
1.16707
1.17035
1.17471
1.1866
1.20627
1.21771
1.22376
1.22842
1.23263
1.23575
1.23132
1.2248
1.22521
1.22864
1.23332
1.24429
1.2674
1.28277
1.28999
1.29505
1.29965
1.30287
1.2965
1.28725
1.28694
1.29066
1.2959
1.30593
1.3321
1.35346
1.3628
1.3687
1.37399
1.37748
1.36838
1.35545
1.35374
1.35776
1.36372
1.37304
1.40137
1.43193
1.44602
1.45362
1.46021
1.46432
1.45199
1.43218
1.42668
1.43034
1.43807
1.44831
1.47811
1.52094
1.54507
1.55669
1.56535
1.57233
1.56236
1.53493
1.52208
1.52322
1.53071
1.54211
1.56758
1.61322
1.64993
1.67254
1.68922
1.70081
1.69891
1.67869
1.65657
1.651
1.6587
1.67703
1.71423
1.75102
1.77192
1.78155
1.79497
3.02975
11.3986
1.1124
1.11752
1.11452
1.11193
1.11337
1.11636
1.12018
1.13056
1.14873
1.15956
1.16521
1.16949
1.17329
1.17649
1.17451
1.16899
1.16908
1.17195
1.17583
1.18386
1.20364
1.21877
1.22591
1.23073
1.23496
1.23874
1.23724
1.22907
1.22733
1.23007
1.23426
1.24086
1.26077
1.28209
1.29184
1.29745
1.30216
1.30639
1.30461
1.29352
1.28952
1.29186
1.29636
1.30237
1.32059
1.349
1.3638
1.37096
1.37652
1.38182
1.38042
1.36488
1.35648
1.35741
1.36241
1.36895
1.38464
1.42022
1.44538
1.45641
1.46349
1.4699
1.46951
1.44822
1.43198
1.43085
1.43613
1.4437
1.45541
1.49187
1.533
1.55371
1.56527
1.57525
1.58201
1.56633
1.53692
1.52526
1.52807
1.53702
1.54927
1.57774
1.62218
1.65548
1.67657
1.69307
1.70333
1.70073
1.67999
1.65708
1.65074
1.65725
1.67604
1.71484
1.7477
1.7634
1.78058
3.07155
11.4256
1.11528
1.12091
1.11918
1.1152
1.11575
1.11849
1.12201
1.1292
1.14716
1.16105
1.16768
1.17213
1.17598
1.17947
1.17964
1.17342
1.17164
1.17406
1.17772
1.18296
1.19923
1.21882
1.22815
1.23337
1.23766
1.24167
1.243
1.23523
1.23035
1.23193
1.23555
1.24019
1.25274
1.27789
1.29301
1.29995
1.30496
1.30962
1.31214
1.30303
1.29353
1.2932
1.29651
1.30153
1.31097
1.33849
1.36284
1.37319
1.37945
1.3849
1.3887
1.37871
1.36216
1.35843
1.36184
1.36777
1.37536
1.39965
1.43668
1.45597
1.46451
1.47122
1.47778
1.47288
1.44871
1.43555
1.43465
1.43913
1.44698
1.46308
1.50631
1.54639
1.56553
1.5759
1.58415
1.58737
1.56887
1.54199
1.53202
1.53472
1.54329
1.55635
1.58771
1.63036
1.66053
1.68002
1.69564
1.70443
1.70122
1.67923
1.65464
1.64724
1.65236
1.67205
1.71146
1.73906
1.76164
3.12365
11.4582
1.11828
1.12416
1.12392
1.11926
1.11851
1.12093
1.12434
1.12923
1.14421
1.16165
1.17003
1.17483
1.17878
1.18244
1.18449
1.17925
1.17498
1.17641
1.17968
1.18371
1.19408
1.21608
1.22982
1.23613
1.24063
1.24474
1.24796
1.24325
1.23477
1.23383
1.23654
1.24074
1.24769
1.2695
1.29231
1.30226
1.30793
1.31263
1.31685
1.3139
1.30022
1.29501
1.29715
1.30157
1.3073
1.32408
1.35574
1.37418
1.38227
1.38785
1.39315
1.39325
1.376
1.36339
1.36257
1.36614
1.37209
1.38236
1.41525
1.44997
1.46611
1.47476
1.48197
1.48739
1.47449
1.44768
1.43705
1.43907
1.4455
1.45332
1.47067
1.51592
1.55332
1.57056
1.5814
1.59114
1.59544
1.57522
1.5475
1.5374
1.54052
1.54942
1.56353
1.59729
1.63754
1.66478
1.68317
1.69797
1.70562
1.70077
1.67617
1.64979
1.6411
1.64474
1.66641
1.70345
1.73466
3.17915
11.4942
1.12117
1.12726
1.12851
1.12435
1.12181
1.1236
1.12674
1.1305
1.1405
1.16021
1.17195
1.17761
1.18179
1.18556
1.18875
1.18614
1.1794
1.1788
1.18137
1.18507
1.19101
1.20997
1.23001
1.23877
1.24376
1.24793
1.25183
1.25141
1.24115
1.23617
1.23791
1.24168
1.24656
1.25984
1.28706
1.30356
1.31068
1.31553
1.31997
1.32244
1.3119
1.29996
1.29884
1.30199
1.3068
1.31429
1.33983
1.37013
1.38362
1.3905
1.39616
1.40126
1.39535
1.37434
1.36445
1.36508
1.36981
1.37643
1.39176
1.43158
1.46287
1.47564
1.48249
1.48867
1.49348
1.47795
1.45254
1.44368
1.44397
1.44851
1.45662
1.47803
1.52584
1.56282
1.58067
1.59113
1.59948
1.60018
1.57981
1.55349
1.54301
1.54553
1.55421
1.57028
1.6072
1.64554
1.67005
1.68633
1.69936
1.70557
1.69909
1.67247
1.64346
1.6324
1.6355
1.65835
1.6992
3.22092
11.5268
1.12408
1.13047
1.13285
1.13045
1.12583
1.12627
1.1289
1.1323
1.13813
1.15604
1.17301
1.18048
1.18495
1.18879
1.19235
1.19288
1.18529
1.18144
1.18311
1.18651
1.19078
1.20276
1.22669
1.24057
1.2467
1.25102
1.25501
1.25774
1.25059
1.24077
1.24008
1.24317
1.24733
1.2537
1.27547
1.30127
1.31237
1.31816
1.32303
1.32774
1.32591
1.31023
1.30191
1.30234
1.30591
1.31136
1.32354
1.35656
1.38254
1.39338
1.39999
1.40562
1.40905
1.39502
1.3737
1.36758
1.36997
1.37536
1.38195
1.40062
1.44268
1.47059
1.48306
1.49176
1.4993
1.50206
1.48033
1.45359
1.44536
1.4485
1.4554
1.46397
1.48546
1.53258
1.56787
1.58493
1.59583
1.60475
1.60632
1.58577
1.55836
1.54751
1.55012
1.55904
1.577
1.61534
1.65125
1.67357
1.68905
1.70097
1.70535
1.6964
1.66815
1.63656
1.62215
1.62306
1.65485
3.23754
11.5584
1.12702
1.13387
1.13672
1.13674
1.13073
1.12888
1.13091
1.13417
1.13824
1.15052
1.17168
1.18281
1.18806
1.19194
1.19553
1.19818
1.19301
1.18544
1.18532
1.18825
1.19199
1.19795
1.21818
1.23991
1.24907
1.25404
1.25821
1.26214
1.26126
1.24951
1.2436
1.24461
1.24771
1.25224
1.26329
1.2923
1.31301
1.32133
1.32662
1.33128
1.33463
1.32486
1.3079
1.30351
1.30614
1.3111
1.31712
1.33575
1.37177
1.39254
1.40082
1.40649
1.41229
1.41496
1.39709
1.3772
1.3724
1.37375
1.3785
1.38592
1.41082
1.45591
1.48233
1.49296
1.49908
1.505
1.5074
1.48611
1.46123
1.4539
1.45505
1.45989
1.4682
1.49237
1.53975
1.57359
1.59035
1.60119
1.60927
1.60969
1.59118
1.56464
1.55241
1.55341
1.56113
1.5804
1.62105
1.65651
1.67763
1.69128
1.70079
1.70314
1.69305
1.66336
1.62981
1.60728
1.60648
3.21782
11.5941
1.12977
1.13716
1.14005
1.14207
1.13709
1.13224
1.13328
1.13626
1.13981
1.14639
1.16623
1.18346
1.19065
1.19496
1.19871
1.20219
1.20155
1.19224
1.18838
1.19002
1.19315
1.19717
1.2084
1.23426
1.25035
1.25707
1.26156
1.26568
1.26889
1.26166
1.24876
1.2461
1.24872
1.25271
1.25834
1.27737
1.30786
1.32319
1.32995
1.33449
1.33881
1.3391
1.32286
1.30956
1.30846
1.31117
1.31589
1.32277
1.34774
1.3836
1.40133
1.40973
1.4162
1.42204
1.42074
1.39752
1.37841
1.37537
1.37929
1.38514
1.39215
1.41784
1.46217
1.48658
1.49822
1.50743
1.51506
1.5158
1.49142
1.46491
1.45662
1.45954
1.46646
1.47532
1.49897
1.5445
1.57669
1.59328
1.60488
1.6141
1.61631
1.59667
1.56707
1.55336
1.55399
1.56182
1.5824
1.62413
1.65894
1.67913
1.69192
1.69935
1.69993
1.68842
1.6573
1.61543
1.58033
3.16187
11.6319
1.13181
1.14017
1.14318
1.14625
1.14467
1.1375
1.13615
1.13836
1.14154
1.1455
1.15838
1.181
1.19265
1.19804
1.202
1.20567
1.2083
1.20191
1.19273
1.19174
1.19428
1.19801
1.20361
1.22325
1.24845
1.25951
1.26492
1.26897
1.27283
1.27299
1.25935
1.25
1.25062
1.25409
1.25841
1.26584
1.29203
1.31986
1.33122
1.3373
1.34213
1.34679
1.34323
1.32331
1.31215
1.31176
1.31491
1.31999
1.32923
1.36128
1.39597
1.41096
1.41777
1.42261
1.4286
1.42656
1.40208
1.38492
1.38193
1.38325
1.38794
1.396
1.42623
1.4728
1.49772
1.50799
1.51432
1.52032
1.52139
1.49917
1.47366
1.46513
1.46595
1.47059
1.479
1.50578
1.55255
1.58388
1.5995
1.60992
1.61767
1.61852
1.59957
1.56988
1.5551
1.55437
1.561
1.58177
1.62477
1.66037
1.68008
1.69098
1.69589
1.69458
1.68239
1.6432
1.58448
3.08314
11.6754
1.13298
1.14305
1.14636
1.14979
1.1515
1.14505
1.13961
1.14038
1.14318
1.14673
1.15331
1.17411
1.19312
1.2008
1.20517
1.20885
1.21233
1.21169
1.20033
1.19461
1.19624
1.19975
1.20372
1.21272
1.23912
1.25934
1.26702
1.27164
1.27583
1.27972
1.27473
1.25933
1.254
1.25529
1.25835
1.26303
1.27449
1.30633
1.33044
1.34033
1.34637
1.35149
1.35529
1.34545
1.32352
1.31496
1.31632
1.32057
1.32575
1.33593
1.3709
1.40357
1.41749
1.42581
1.43248
1.43806
1.43189
1.40442
1.38668
1.38478
1.38921
1.3953
1.40269
1.4309
1.47607
1.50024
1.51183
1.5211
1.52874
1.52953
1.50659
1.47878
1.46815
1.47003
1.4769
1.48653
1.51399
1.55845
1.58703
1.60195
1.61267
1.62147
1.62374
1.60318
1.57123
1.55506
1.55352
1.55931
1.57974
1.62388
1.66006
1.67863
1.68752
1.69029
1.68866
1.66996
1.61963
3.01851
11.726
1.13342
1.146
1.14944
1.15288
1.15595
1.15374
1.14494
1.143
1.14535
1.14876
1.15275
1.16498
1.18913
1.20239
1.20803
1.2119
1.21549
1.21837
1.212
1.20076
1.19908
1.20151
1.20496
1.20941
1.22468
1.25354
1.26869
1.27509
1.27943
1.28358
1.28598
1.27437
1.25939
1.25657
1.25928
1.26348
1.2687
1.28532
1.31961
1.3397
1.34757
1.35267
1.35763
1.36157
1.34905
1.32758
1.32063
1.3211
1.32416
1.32936
1.3429
1.38254
1.41476
1.42749
1.43349
1.43805
1.44395
1.43855
1.41156
1.39521
1.39249
1.39346
1.39782
1.40587
1.43721
1.48496
1.51052
1.52094
1.52755
1.53353
1.53505
1.51505
1.48784
1.47666
1.47647
1.48059
1.4892
1.51956
1.5653
1.59366
1.60791
1.61748
1.62497
1.62664
1.607
1.5738
1.55515
1.55197
1.55662
1.57658
1.62177
1.65818
1.67534
1.68174
1.68398
1.6785
1.65932
2.99408
11.7762
1.13208
1.14839
1.15224
1.15585
1.15922
1.16104
1.15357
1.14718
1.14798
1.1508
1.15416
1.15954
1.17925
1.20138
1.21036
1.21502
1.21877
1.22239
1.2231
1.21155
1.20301
1.20328
1.2063
1.21011
1.21627
1.23889
1.26616
1.27776
1.2833
1.2871
1.29106
1.29013
1.27336
1.26203
1.26185
1.2647
1.2686
1.27415
1.2954
1.33004
1.34767
1.35556
1.3615
1.36688
1.36863
1.35102
1.32905
1.32316
1.3259
1.33091
1.3361
1.34923
1.3885
1.41913
1.43208
1.44069
1.44759
1.45292
1.44507
1.41632
1.39751
1.39472
1.39899
1.40548
1.41318
1.44136
1.48701
1.51185
1.52352
1.53281
1.54046
1.54269
1.52335
1.49348
1.47876
1.47808
1.48398
1.49426
1.52561
1.56971
1.59643
1.61046
1.62116
1.6297
1.63196
1.61111
1.57533
1.55404
1.54934
1.5528
1.57194
1.61806
1.65449
1.66998
1.67563
1.67315
1.68238
3.01439
11.8222
1.12808
1.14981
1.15522
1.15914
1.16262
1.16593
1.16384
1.15384
1.15076
1.1525
1.15562
1.15942
1.16912
1.19431
1.21146
1.21816
1.22209
1.2257
1.22918
1.2253
1.21114
1.20629
1.20822
1.21175
1.21569
1.22418
1.25224
1.27624
1.28546
1.29078
1.29493
1.29894
1.29417
1.27507
1.26577
1.26579
1.26842
1.27272
1.27983
1.30665
1.34111
1.3567
1.36343
1.36756
1.37265
1.3748
1.35614
1.33559
1.33066
1.33127
1.33416
1.33946
1.35524
1.39773
1.42966
1.44198
1.4478
1.45228
1.45819
1.45286
1.42538
1.40713
1.40364
1.40435
1.40807
1.41567
1.44578
1.49407
1.52078
1.53149
1.53826
1.5446
1.54769
1.53127
1.50095
1.48506
1.48286
1.48644
1.49499
1.52746
1.57431
1.60324
1.61704
1.6256
1.63229
1.63412
1.61477
1.57694
1.55201
1.54538
1.54778
1.56645
1.61335
1.64899
1.66385
1.66378
1.68831
3.06652
11.8648
1.12225
1.14885
1.15814
1.16265
1.1661
1.16941
1.17146
1.1638
1.15506
1.15488
1.15773
1.1612
1.16541
1.18078
1.20716
1.21977
1.22523
1.22909
1.23288
1.23555
1.22602
1.21308
1.21104
1.21299
1.21605
1.2203
1.23297
1.26465
1.28561
1.2942
1.29967
1.30408
1.3073
1.29695
1.27611
1.26858
1.27033
1.27424
1.27862
1.28587
1.31504
1.34828
1.36269
1.37034
1.37651
1.38191
1.3817
1.36009
1.33834
1.33305
1.33595
1.34113
1.34641
1.36033
1.40087
1.43179
1.44504
1.4541
1.46124
1.46667
1.46074
1.4332
1.41121
1.40539
1.40851
1.41468
1.42269
1.45058
1.496
1.52124
1.53325
1.54297
1.5507
1.55387
1.53782
1.50597
1.48689
1.48338
1.48769
1.49724
1.52943
1.57586
1.60418
1.61799
1.62763
1.63498
1.63695
1.6177
1.57797
1.54954
1.54097
1.54229
1.56086
1.60734
1.64153
1.65116
1.6818
3.13702
11.9072
1.11772
1.14173
1.15903
1.16562
1.16935
1.17277
1.1761
1.17527
1.16401
1.15876
1.16
1.16263
1.16592
1.17173
1.19397
1.21859
1.22838
1.23322
1.23695
1.24069
1.24058
1.22564
1.21468
1.21425
1.21724
1.22101
1.22585
1.24323
1.27623
1.29413
1.30122
1.30606
1.31045
1.31376
1.30127
1.281
1.27499
1.27567
1.27821
1.2827
1.29196
1.32488
1.35824
1.37215
1.3783
1.38225
1.38765
1.38882
1.36777
1.34667
1.34142
1.34151
1.34373
1.34887
1.36456
1.40805
1.44178
1.45489
1.46095
1.46559
1.47167
1.46958
1.44363
1.42055
1.41411
1.41444
1.41758
1.42476
1.45414
1.5025
1.52953
1.54028
1.54683
1.55357
1.55857
1.54611
1.51291
1.49155
1.48692
1.48924
1.49651
1.52721
1.57677
1.60797
1.62185
1.62973
1.63587
1.6382
1.62141
1.57978
1.54649
1.53556
1.53617
1.55409
1.59999
1.62706
1.66464
3.2118
11.9443
1.11709
1.1303
1.15527
1.16787
1.17321
1.17675
1.18006
1.1829
1.17705
1.16488
1.16202
1.16402
1.16729
1.17115
1.18055
1.20814
1.2292
1.23707
1.24115
1.24456
1.24809
1.24311
1.22534
1.21809
1.21945
1.22266
1.22628
1.23146
1.25265
1.28569
1.30174
1.30888
1.31435
1.31929
1.32086
1.30422
1.28319
1.2777
1.28023
1.28458
1.28903
1.29765
1.3306
1.36298
1.37671
1.38493
1.39139
1.39675
1.39631
1.3741
1.35053
1.34315
1.34529
1.35026
1.35581
1.36917
1.40977
1.44271
1.45695
1.46644
1.47385
1.4795
1.4772
1.45253
1.42617
1.41599
1.41722
1.42281
1.43111
1.4594
1.50419
1.52935
1.5419
1.55252
1.5603
1.56459
1.55186
1.51782
1.49371
1.48712
1.48979
1.49779
1.52695
1.57525
1.60653
1.62126
1.63067
1.6375
1.63989
1.62367
1.58042
1.54277
1.52908
1.52854
1.54737
1.58659
1.63497
3.27954
11.9738
1.11862
1.12464
1.14417
1.16716
1.17636
1.18059
1.1838
1.18705
1.18815
1.17669
1.16647
1.16629
1.16931
1.17295
1.17705
1.19025
1.22032
1.2379
1.24479
1.24901
1.25264
1.2553
1.24532
1.22788
1.22286
1.22418
1.22701
1.23105
1.23757
1.26297
1.29542
1.30987
1.31614
1.32002
1.32453
1.32678
1.31004
1.29022
1.28531
1.28578
1.28805
1.29251
1.303
1.33879
1.37281
1.38665
1.39266
1.3964
1.40174
1.40366
1.38347
1.35934
1.35179
1.35143
1.35317
1.35792
1.37203
1.41544
1.45216
1.46669
1.47305
1.47742
1.48328
1.48497
1.46371
1.43551
1.42417
1.4233
1.42598
1.43258
1.46087
1.50995
1.53877
1.55001
1.55647
1.56282
1.56896
1.56074
1.52624
1.49884
1.49062
1.49128
1.49644
1.52182
1.5724
1.60764
1.62347
1.63152
1.6369
1.63845
1.62412
1.58186
1.54001
1.52162
1.5204
1.53511
1.5942
3.32464
11.999
1.12111
1.12546
1.13316
1.15748
1.17649
1.1836
1.18745
1.19074
1.19397
1.19157
1.17708
1.17058
1.17184
1.17463
1.17796
1.1826
1.20032
1.23098
1.24639
1.25311
1.25754
1.26125
1.26258
1.24758
1.23001
1.22651
1.22939
1.23337
1.23713
1.24367
1.27093
1.30237
1.31584
1.32268
1.32836
1.33333
1.33386
1.31461
1.29322
1.28759
1.2901
1.29466
1.29931
1.30846
1.34259
1.3757
1.38985
1.39826
1.40492
1.41027
1.41116
1.39146
1.36496
1.35389
1.35455
1.35937
1.36543
1.37772
1.41691
1.45206
1.46733
1.47679
1.48459
1.4906
1.4921
1.47307
1.44276
1.4269
1.42508
1.42971
1.43747
1.46446
1.51043
1.53752
1.55088
1.5622
1.5704
1.57573
1.56685
1.53163
1.50111
1.48985
1.4903
1.49622
1.52013
1.56907
1.60456
1.62082
1.62985
1.63565
1.63684
1.62358
1.58309
1.5383
1.51462
1.50366
1.54424
3.32639
12.0233
1.12431
1.12735
1.13063
1.1423
1.16975
1.18529
1.19128
1.1948
1.198
1.20067
1.19344
1.17845
1.17436
1.17638
1.17984
1.18345
1.18878
1.21033
1.24033
1.25381
1.25978
1.26407
1.26806
1.26908
1.25281
1.23669
1.23386
1.23502
1.23757
1.24166
1.24991
1.28003
1.3115
1.32467
1.33043
1.33384
1.33849
1.34039
1.32237
1.30156
1.29608
1.29629
1.29807
1.30235
1.31247
1.34878
1.38466
1.39946
1.40554
1.40899
1.41411
1.41795
1.40256
1.3755
1.36391
1.36264
1.36359
1.36747
1.37893
1.41919
1.45925
1.47632
1.48354
1.4883
1.49434
1.49884
1.48416
1.45208
1.43409
1.43072
1.43226
1.43761
1.46222
1.51298
1.54693
1.56013
1.56696
1.57262
1.57863
1.57455
1.54081
1.5065
1.49291
1.49142
1.49461
1.51372
1.5635
1.6029
1.62103
1.62932
1.63349
1.63344
1.62152
1.58366
1.53793
1.50186
1.49888
3.2829
12.0544
1.12716
1.12878
1.1318
1.13654
1.15382
1.18101
1.19351
1.19871
1.20175
1.20503
1.20678
1.19488
1.18137
1.17966
1.18209
1.18518
1.18849
1.19445
1.21882
1.24815
1.26095
1.26727
1.27229
1.27674
1.27605
1.25675
1.23964
1.23687
1.23987
1.24381
1.24773
1.25546
1.28574
1.31647
1.32926
1.33641
1.34228
1.34722
1.348
1.32931
1.30614
1.29827
1.29993
1.30445
1.30942
1.31766
1.35029
1.38527
1.40072
1.40969
1.41696
1.42251
1.42559
1.41253
1.38434
1.36738
1.36436
1.36804
1.37368
1.38397
1.42
1.45846
1.47649
1.48705
1.49568
1.50187
1.50527
1.492
1.45902
1.4368
1.43155
1.43483
1.44165
1.46405
1.51145
1.54406
1.559
1.57062
1.57949
1.58485
1.57931
1.54524
1.50832
1.4914
1.48903
1.49289
1.5109
1.55852
1.59886
1.61821
1.6268
1.63006
1.62886
1.61729
1.58337
1.52792
1.48655
3.19796
12.0945
1.13166
1.13114
1.13399
1.13735
1.14282
1.1638
1.19001
1.20106
1.20616
1.20963
1.21316
1.21262
1.19712
1.18557
1.18435
1.1861
1.18928
1.19325
1.20058
1.22754
1.25631
1.26847
1.27401
1.27784
1.28193
1.28199
1.26337
1.24723
1.24436
1.2452
1.24756
1.25172
1.26081
1.29304
1.32504
1.33833
1.34397
1.34733
1.35211
1.35511
1.3395
1.31596
1.30764
1.30698
1.30764
1.31121
1.31976
1.35343
1.39284
1.41067
1.41767
1.4217
1.42681
1.432
1.42406
1.39551
1.37646
1.37219
1.37248
1.37558
1.38455
1.42094
1.46547
1.4863
1.49435
1.49903
1.50482
1.51033
1.50178
1.46862
1.44431
1.43773
1.43789
1.44176
1.45917
1.50876
1.55053
1.56792
1.5753
1.58014
1.58519
1.58364
1.55435
1.51488
1.49446
1.48976
1.49097
1.50389
1.55113
1.59533
1.61593
1.62322
1.62508
1.62235
1.61246
1.57377
1.51356
3.10227
12.1476
1.13929
1.13438
1.13614
1.13879
1.14199
1.14867
1.17367
1.19923
1.20949
1.21443
1.21772
1.22112
1.21794
1.1992
1.18818
1.18824
1.19155
1.19515
1.19873
1.20616
1.23475
1.2631
1.27456
1.28062
1.28583
1.29033
1.28887
1.26834
1.25034
1.24698
1.24985
1.2541
1.25823
1.26574
1.29597
1.32771
1.3415
1.3495
1.35584
1.36091
1.36335
1.34866
1.32272
1.3098
1.30899
1.31272
1.3178
1.32503
1.35431
1.39264
1.41143
1.4214
1.42931
1.43509
1.43921
1.43279
1.40504
1.38122
1.37374
1.37608
1.38147
1.39058
1.42276
1.46432
1.48507
1.49625
1.50577
1.51242
1.51714
1.50936
1.47654
1.44809
1.43816
1.43944
1.44494
1.46011
1.50487
1.54532
1.56369
1.57528
1.58495
1.59032
1.58851
1.5597
1.51724
1.49241
1.48555
1.48711
1.49957
1.54532
1.59054
1.61138
1.61778
1.61816
1.6165
1.60167
1.56938
3.04292
12.2051
1.15028
1.13795
1.13769
1.14047
1.14368
1.14751
1.15641
1.18369
1.20716
1.2165
1.22173
1.22548
1.22863
1.22309
1.20402
1.1947
1.19454
1.19616
1.19933
1.20354
1.21296
1.24335
1.27118
1.2824
1.28761
1.29067
1.29489
1.29541
1.27686
1.25932
1.25549
1.25578
1.25729
1.26115
1.2694
1.30094
1.33596
1.35124
1.35737
1.36084
1.36537
1.36982
1.35965
1.33299
1.31882
1.31662
1.31709
1.32002
1.32663
1.35545
1.39899
1.4214
1.42963
1.43367
1.43806
1.44357
1.44222
1.41696
1.39116
1.38266
1.38205
1.38408
1.39057
1.42066
1.46829
1.4946
1.5046
1.50987
1.51554
1.52162
1.51896
1.48807
1.4566
1.44467
1.44259
1.44444
1.45452
1.49775
1.54815
1.57261
1.58121
1.58614
1.58966
1.58986
1.56725
1.52354
1.49453
1.48512
1.48439
1.49307
1.53769
1.58512
1.60645
1.61142
1.61227
1.60476
1.61204
3.04297
12.2567
1.16298
1.14718
1.14099
1.14289
1.14611
1.14959
1.15335
1.16287
1.19162
1.21464
1.22385
1.22919
1.23353
1.23699
1.22957
1.20805
1.1977
1.19838
1.202
1.20604
1.20985
1.2183
1.24841
1.27572
1.28676
1.29327
1.2988
1.30344
1.30331
1.28433
1.26365
1.25739
1.25926
1.26326
1.26756
1.27426
1.30283
1.33757
1.35339
1.36184
1.3686
1.37367
1.37727
1.36879
1.34182
1.32288
1.3186
1.32152
1.32664
1.33334
1.35737
1.3979
1.42047
1.43105
1.43948
1.4458
1.45069
1.45023
1.42773
1.3983
1.3846
1.38404
1.38857
1.39564
1.42108
1.46563
1.49212
1.50536
1.51658
1.52422
1.52949
1.52619
1.49586
1.46036
1.44387
1.44215
1.44647
1.45648
1.49481
1.54352
1.56781
1.57876
1.58737
1.593
1.59387
1.57294
1.52727
1.49318
1.48044
1.47924
1.48707
1.53077
1.57894
1.59968
1.60536
1.5989
1.63071
3.08685
12.3003
1.17163
1.16437
1.14945
1.14667
1.14851
1.15132
1.15458
1.15865
1.16931
1.19913
1.22136
1.22993
1.23445
1.23785
1.24135
1.23594
1.2161
1.20653
1.20625
1.20748
1.21012
1.21411
1.2234
1.25456
1.2834
1.29529
1.3006
1.30385
1.30831
1.3105
1.29428
1.27275
1.26591
1.26568
1.26672
1.27018
1.27706
1.30637
1.3449
1.36293
1.36964
1.37288
1.377
1.38206
1.37912
1.3542
1.33349
1.32811
1.32807
1.32952
1.33457
1.35599
1.40052
1.42913
1.43993
1.44497
1.44938
1.45518
1.45813
1.43984
1.40816
1.39276
1.38983
1.39057
1.3951
1.41662
1.46633
1.5018
1.51556
1.52173
1.52598
1.53147
1.5328
1.50752
1.47009
1.45165
1.44727
1.44764
1.45278
1.48574
1.54105
1.57346
1.58446
1.5891
1.59221
1.59368
1.57827
1.53246
1.49315
1.47698
1.47431
1.48076
1.52396
1.57116
1.59234
1.59115
1.63184
3.15965
12.3425
1.17552
1.18028
1.1686
1.15427
1.15154
1.1539
1.15725
1.16014
1.16365
1.17434
1.20488
1.22683
1.23557
1.24081
1.24546
1.24905
1.24314
1.22215
1.20996
1.20927
1.21238
1.21604
1.21963
1.22741
1.25749
1.28672
1.299
1.30616
1.31201
1.31675
1.31852
1.30292
1.27873
1.26818
1.26851
1.27232
1.27723
1.28318
1.3078
1.34456
1.36294
1.37199
1.37962
1.38516
1.38969
1.38802
1.36563
1.34048
1.33012
1.33062
1.33491
1.34067
1.35805
1.39863
1.4276
1.44074
1.45044
1.45764
1.46291
1.46516
1.4492
1.41574
1.39501
1.39079
1.39428
1.40042
1.4181
1.46285
1.49768
1.51329
1.52434
1.5331
1.53871
1.53946
1.51628
1.4766
1.45222
1.44551
1.44752
1.45362
1.48199
1.53549
1.56831
1.58051
1.58757
1.59327
1.59586
1.58239
1.53614
1.49143
1.4717
1.46842
1.47467
1.51684
1.56242
1.57589
1.62291
3.24321
12.3827
1.18066
1.18892
1.18962
1.17495
1.16082
1.15821
1.15899
1.16085
1.16416
1.16833
1.18004
1.21099
1.23357
1.24271
1.24761
1.25138
1.25543
1.25174
1.23127
1.21849
1.21654
1.21694
1.21903
1.2229
1.23161
1.26284
1.29463
1.30792
1.31343
1.31641
1.32057
1.32449
1.31408
1.28992
1.27849
1.27708
1.27721
1.27929
1.28461
1.30777
1.34847
1.37193
1.38077
1.38512
1.38913
1.39448
1.39675
1.37875
1.35115
1.33928
1.33764
1.33839
1.34212
1.35628
1.39881
1.43554
1.45055
1.45672
1.46038
1.46581
1.47066
1.46063
1.42749
1.40491
1.39871
1.39781
1.40029
1.41245
1.45697
1.50259
1.52325
1.53098
1.53529
1.5402
1.54406
1.52794
1.48703
1.45872
1.44957
1.44789
1.45021
1.47325
1.52977
1.57003
1.58463
1.58961
1.59319
1.59478
1.58369
1.53941
1.49014
1.46658
1.46243
1.46859
1.51089
1.54496
1.60103
3.3244
12.4154
1.18332
1.19536
1.19875
1.19759
1.17992
1.16375
1.16084
1.16323
1.16656
1.16945
1.17289
1.18408
1.216
1.23923
1.24865
1.25498
1.25998
1.26392
1.25959
1.23739
1.22116
1.21859
1.22129
1.22541
1.22936
1.23616
1.26453
1.29606
1.3099
1.31759
1.32403
1.32893
1.33251
1.32444
1.29986
1.28258
1.27839
1.28075
1.28503
1.29021
1.30832
1.34672
1.37129
1.38255
1.39123
1.3976
1.40236
1.40441
1.38957
1.35998
1.34245
1.33942
1.34291
1.34838
1.35998