/*--------------------------------*- C++ -*----------------------------------*\
  =========                 |
  \\      /  F ield         | OpenFOAM: The Open Source CFD Toolbox
   \\    /   O peration     | Website:  https://openfoam.org
    \\  /    A nd           | Version:  12
     \\/     M anipulation  |
\*---------------------------------------------------------------------------*/
FoamFile
{
    format      ascii;
    class       volScalarField;
    location    "16";
    object      T;
}
// * * * * * * * * * * * * * * * * * * * * * * * * * * * * * * * * * * * * * //

dimensions      [0 0 0 1 0 0 0];

internalField   nonuniform List<scalar> 
9801
(
0.829237
0.82962
0.829012
0.829635
0.830626
0.832277
0.835833
0.839715
0.842092
0.843665
0.845016
0.84619
0.847109
0.846558
0.846223
0.84689
0.84799
0.849856
0.853774
0.857689
0.860013
0.861557
0.862841
0.864037
0.864475
0.86326
0.863215
0.864083
0.865372
0.867716
0.872363
0.876243
0.878414
0.879939
0.881173
0.882201
0.881304
0.879978
0.880457
0.881689
0.883303
0.887123
0.892573
0.896002
0.897874
0.899332
0.900581
0.900201
0.897653
0.897317
0.898419
0.899999
0.902949
0.909053
0.914138
0.916797
0.918614
0.919971
0.920465
0.917277
0.915272
0.916027
0.917787
0.920538
0.926897
0.93371
0.937503
0.939729
0.941502
0.942667
0.939277
0.934929
0.935074
0.937178
0.940606
0.948702
0.95732
0.962139
0.96496
0.967195
0.968568
0.96406
0.957604
0.957544
0.960702
0.966915
0.980087
0.991181
0.997289
1.00208
1.0064
1.0065
0.998382
0.991617
0.993411
1.00555
1.03509
1.19359
1.57197
0.832886
0.833377
0.83296
0.833518
0.834447
0.835906
0.839634
0.8438
0.846207
0.847739
0.84896
0.849975
0.850679
0.850173
0.849864
0.850483
0.851494
0.853175
0.857316
0.86149
0.863836
0.865341
0.866541
0.867574
0.867861
0.866715
0.866649
0.867461
0.868621
0.870855
0.875766
0.879811
0.881998
0.88347
0.884642
0.885543
0.884612
0.883326
0.883747
0.884852
0.886278
0.890001
0.895671
0.89918
0.901101
0.902544
0.903731
0.903482
0.901109
0.900651
0.901591
0.902981
0.90549
0.911512
0.916822
0.919669
0.921563
0.923004
0.923729
0.920946
0.918787
0.919291
0.92086
0.923104
0.929111
0.936224
0.940319
0.942679
0.944551
0.945915
0.943125
0.938858
0.93867
0.940595
0.943268
0.950205
0.959288
0.964755
0.968071
0.970697
0.972885
0.969479
0.962712
0.961933
0.964815
0.96951
0.980537
0.99209
0.999146
1.00457
1.00986
1.01163
1.00559
0.998799
0.997979
1.00601
1.02536
1.18646
1.59292
0.837204
0.837886
0.83754
0.83811
0.839043
0.840427
0.84417
0.848467
0.850848
0.852337
0.853514
0.854506
0.855194
0.854658
0.854394
0.85505
0.856079
0.857686
0.861869
0.866172
0.868511
0.869994
0.871178
0.872208
0.872471
0.871342
0.87133
0.872192
0.873371
0.875526
0.880463
0.884577
0.88676
0.888227
0.889426
0.890394
0.889534
0.88827
0.888706
0.889835
0.891236
0.894673
0.900327
0.903923
0.905906
0.907406
0.908705
0.908911
0.906715
0.906006
0.906885
0.908277
0.910422
0.916016
0.921725
0.924851
0.926872
0.928472
0.929625
0.927554
0.925087
0.925334
0.926836
0.928735
0.93343
0.941181
0.946134
0.948853
0.950961
0.952711
0.951202
0.946983
0.946073
0.94772
0.950185
0.955368
0.965676
0.972872
0.976673
0.979538
0.982048
0.98037
0.9738
0.971746
0.974329
0.978636
0.98706
1.0009
1.01087
1.01709
1.02297
1.02667
1.02301
1.01873
1.01831
1.02513
1.03752
1.19643
1.61702
0.843388
0.844044
0.843706
0.844314
0.845275
0.846625
0.850289
0.854733
0.857191
0.858714
0.859922
0.860984
0.861647
0.861008
0.860832
0.861562
0.862646
0.864212
0.868307
0.872755
0.875165
0.87669
0.877931
0.879048
0.879308
0.878195
0.878232
0.879156
0.880391
0.882403
0.887225
0.891558
0.89386
0.895401
0.896704
0.897799
0.897076
0.895766
0.896171
0.897325
0.898736
0.901637
0.907378
0.911496
0.913721
0.915361
0.916809
0.917466
0.915282
0.914066
0.914924
0.916458
0.918426
0.923471
0.930098
0.933801
0.935938
0.937633
0.939074
0.937654
0.934537
0.93435
0.936018
0.938131
0.941855
0.950109
0.956409
0.959555
0.961866
0.963885
0.963629
0.95901
0.956924
0.958573
0.961341
0.965266
0.974829
0.984083
0.988918
0.992151
0.995189
0.995999
0.990428
0.985943
0.987388
0.991969
0.998119
1.01003
1.02256
1.0307
1.03718
1.0436
1.04335
1.03907
1.0356
1.03894
1.04373
1.20713
1.63863
0.850468
0.850989
0.850665
0.851357
0.852393
0.853771
0.857327
0.861928
0.864506
0.866067
0.867314
0.868434
0.869034
0.868343
0.868231
0.86902
0.870154
0.87166
0.875541
0.880309
0.882932
0.884527
0.885837
0.887036
0.887353
0.88626
0.886212
0.887121
0.888374
0.890136
0.894693
0.899632
0.902251
0.903895
0.905296
0.906533
0.906102
0.904673
0.904825
0.905885
0.907273
0.909557
0.915271
0.920374
0.922978
0.924722
0.926261
0.927187
0.925311
0.923724
0.924386
0.925917
0.92778
0.931808
0.939021
0.943669
0.946121
0.947957
0.94966
0.949234
0.945761
0.944792
0.946313
0.948505
0.951501
0.958966
0.966667
0.970621
0.973208
0.975506
0.976712
0.972966
0.968918
0.969403
0.972187
0.975616
0.982963
0.994176
1.00125
1.00508
1.00842
1.01092
1.00785
1.00145
0.999559
1.00281
1.0082
1.01694
1.03005
1.04051
1.04814
1.0553
1.0593
1.05658
1.05147
1.04897
1.04477
1.21197
1.65188
0.85797
0.85839
0.858081
0.858819
0.859894
0.86125
0.864648
0.869502
0.872287
0.873888
0.875151
0.876298
0.876962
0.87635
0.876191
0.876952
0.878072
0.879432
0.882856
0.888096
0.891134
0.89283
0.894179
0.895422
0.895921
0.894872
0.894603
0.895425
0.896657
0.898183
0.902133
0.90781
0.910965
0.912736
0.914185
0.915493
0.915439
0.913714
0.913448
0.914426
0.915846
0.917787
0.922985
0.929006
0.932157
0.934076
0.935695
0.936919
0.935602
0.933177
0.933295
0.934771
0.936645
0.939894
0.947032
0.952757
0.955676
0.957719
0.959612
0.960435
0.957228
0.954423
0.955091
0.95717
0.959781
0.965879
0.974871
0.980152
0.983003
0.985376
0.987461
0.985891
0.980439
0.978611
0.980584
0.983767
0.988606
0.999057
1.00885
1.01449
1.01827
1.02152
1.0215
1.0153
1.01061
1.01076
1.01479
1.0206
1.03063
1.04196
1.05059
1.05775
1.06407
1.06562
1.06233
1.0561
1.04481
1.20995
1.65913
0.864976
0.865439
0.865111
0.865835
0.866896
0.868155
0.871103
0.876173
0.879313
0.881025
0.882318
0.883482
0.884279
0.883705
0.883364
0.884043
0.885148
0.886458
0.889299
0.894732
0.898317
0.900217
0.901634
0.902911
0.903662
0.902555
0.901764
0.90245
0.903699
0.905213
0.908573
0.914514
0.918301
0.920344
0.92189
0.923272
0.923817
0.921805
0.920467
0.921204
0.922698
0.924683
0.929344
0.935805
0.939522
0.94166
0.943385
0.944951
0.944907
0.941843
0.940448
0.941469
0.943259
0.945918
0.952402
0.959334
0.962906
0.965086
0.967031
0.968678
0.966982
0.962869
0.961959
0.963497
0.965757
0.969847
0.978843
0.986303
0.990124
0.992533
0.99474
0.995201
0.990291
0.986178
0.986227
0.988875
0.992311
0.999308
1.01094
1.01925
1.02385
1.02739
1.02992
1.0272
1.02063
1.01767
1.01873
1.02277
1.02921
1.0398
1.04958
1.05708
1.06351
1.06807
1.06757
1.06231
1.04837
1.20561
1.66375
0.871016
0.871513
0.871009
0.871675
0.872766
0.874061
0.876704
0.88174
0.885212
0.887074
0.88843
0.889618
0.890563
0.890123
0.889213
0.889632
0.890748
0.892152
0.89479
0.900131
0.904134
0.906242
0.907739
0.909049
0.910085
0.909341
0.907752
0.907889
0.909057
0.910609
0.913712
0.919654
0.923959
0.926208
0.927817
0.929229
0.930314
0.928958
0.926562
0.926505
0.927806
0.929589
0.933585
0.940434
0.94495
0.947241
0.948926
0.950501
0.951508
0.94909
0.946405
0.946488
0.948002
0.950043
0.954999
0.963047
0.968022
0.970474
0.972361
0.974168
0.974221
0.969897
0.967328
0.967889
0.969869
0.972527
0.979278
0.988956
0.994581
0.997559
0.999758
1.00134
0.998716
0.992992
0.990933
0.992142
0.994938
0.998657
1.00784
1.01918
1.02603
1.03022
1.03382
1.03575
1.03136
1.02473
1.02262
1.0243
1.02848
1.03559
1.04571
1.05402
1.0607
1.06621
1.06849
1.06608
1.05533
1.20216
1.66695
0.87605
0.876848
0.875937
0.876277
0.877239
0.878465
0.880896
0.885973
0.889792
0.891795
0.893228
0.894467
0.895598
0.895646
0.894259
0.894131
0.895039
0.896304
0.898614
0.903909
0.908418
0.910737
0.912302
0.913638
0.914861
0.914881
0.912876
0.912317
0.91317
0.91451
0.916953
0.9228
0.927911
0.930458
0.932104
0.93351
0.934806
0.934425
0.931645
0.930848
0.931722
0.93322
0.935892
0.942533
0.948472
0.951375
0.95313
0.95465
0.955954
0.954668
0.951174
0.950298
0.95133
0.953097
0.956137
0.963906
0.97091
0.974273
0.976276
0.978043
0.979044
0.975956
0.971838
0.971214
0.972673
0.974798
0.978374
0.987736
0.996437
1.0007
1.00329
1.00548
1.00609
1.00103
0.995861
0.994763
0.996192
0.999
1.00378
1.01472
1.02552
1.0318
1.03576
1.039
1.03947
1.03415
1.02832
1.02676
1.0287
1.03307
1.04074
1.0502
1.05745
1.06318
1.06685
1.06727
1.06115
1.20174
1.66983
0.880126
0.881256
0.880129
0.88015
0.880944
0.882052
0.883946
0.888825
0.893277
0.89554
0.897028
0.898295
0.899469
0.899946
0.898528
0.89793
0.898573
0.89968
0.901375
0.906127
0.911424
0.914181
0.91584
0.917198
0.918453
0.919016
0.917164
0.915972
0.91647
0.917629
0.919299
0.924168
0.930386
0.933655
0.93543
0.93686
0.938201
0.93862
0.936009
0.934317
0.934755
0.936067
0.937822
0.942837
0.950227
0.954302
0.956363
0.957926
0.95935
0.959298
0.955563
0.953426
0.953915
0.955451
0.957411
0.962696
0.971522
0.976666
0.979239
0.981059
0.982645
0.981828
0.976926
0.974325
0.974509
0.976204
0.978511
0.984152
0.995159
1.00245
1.00602
1.00863
1.0108
1.00954
1.00224
0.997918
0.997955
1.00001
1.00297
1.00858
1.02006
1.02995
1.0356
1.03933
1.04243
1.04268
1.0374
1.03171
1.03024
1.03235
1.03685
1.04488
1.05372
1.06027
1.06498
1.06706
1.06517
1.20418
1.67257
0.883415
0.884778
0.883638
0.883306
0.883962
0.884991
0.886425
0.890618
0.895793
0.898507
0.900094
0.901376
0.902539
0.903312
0.902144
0.900989
0.901408
0.902421
0.903735
0.907358
0.913355
0.916847
0.918661
0.920041
0.921279
0.92219
0.920867
0.918937
0.919067
0.920085
0.921445
0.924694
0.931454
0.935947
0.938077
0.939534
0.940855
0.94178
0.939946
0.937298
0.937229
0.938303
0.939781
0.942676
0.950132
0.956026
0.958743
0.960404
0.961863
0.962813
0.960257
0.956667
0.956203
0.957292
0.958933
0.961536
0.969527
0.977662
0.981454
0.9836
0.985332
0.986395
0.983025
0.977686
0.976169
0.977113
0.979194
0.981993
0.990172
1.00152
1.00752
1.01042
1.01263
1.01444
1.01184
1.00471
1.00129
1.00143
1.00325
1.00634
1.01296
1.02456
1.03378
1.03932
1.04312
1.04577
1.04527
1.04014
1.03461
1.03308
1.03508
1.03953
1.04797
1.05655
1.06238
1.06551
1.06756
1.20943
1.67531
0.886083
0.887645
0.886698
0.885862
0.88632
0.887272
0.888479
0.891726
0.897408
0.900786
0.902526
0.90384
0.905001
0.905973
0.905348
0.903634
0.903657
0.904551
0.905752
0.908202
0.9142
0.918778
0.920923
0.922354
0.923593
0.924684
0.924217
0.921756
0.921229
0.922058
0.923318
0.925271
0.93117
0.937287
0.940181
0.941806
0.943162
0.944371
0.943847
0.940632
0.939478
0.94017
0.941472
0.943165
0.948488
0.956425
0.960524
0.96258
0.964122
0.965574
0.965172
0.960811
0.958455
0.958703
0.96007
0.961883
0.966371
0.976238
0.98288
0.985903
0.987868
0.989544
0.989409
0.983624
0.979224
0.978862
0.980188
0.982272
0.985613
0.995482
1.00618
1.01117
1.01419
1.01698
1.01879
1.0146
1.0068
1.00371
1.00433
1.00659
1.00993
1.01725
1.02847
1.03689
1.04214
1.04586
1.04819
1.04752
1.04234
1.03671
1.03503
1.03668
1.04091
1.04971
1.0581
1.06318
1.06806
1.21654
1.67818
0.888352
0.890006
0.889464
0.888171
0.888338
0.889198
0.890313
0.892588
0.898214
0.902557
0.904595
0.905952
0.907114
0.908164
0.908199
0.90626
0.905695
0.906434
0.907567
0.909187
0.914165
0.920024
0.922876
0.924423
0.925679
0.926839
0.927214
0.924864
0.923385
0.923853
0.924941
0.92633
0.930104
0.937448
0.94181
0.943874
0.945326
0.946651
0.94736
0.944704
0.941921
0.941809
0.942766
0.944206
0.946964
0.95492
0.961628
0.964578
0.966331
0.967836
0.968893
0.966088
0.961417
0.960363
0.961309
0.962961
0.965101
0.972016
0.982171
0.987232
0.989627
0.991423
0.993205
0.991836
0.985248
0.981659
0.98135
0.982459
0.984595
0.98903
1.00071
1.01122
1.016
1.01855
1.0207
1.02153
1.01667
1.00969
1.00712
1.00768
1.00987
1.01342
1.02143
1.03218
1.03984
1.04472
1.04821
1.05013
1.04933
1.044
1.03797
1.03592
1.03701
1.04111
1.05064
1.05885
1.06679
1.22509
1.68131
0.890396
0.892079
0.892015
0.890512
0.890261
0.891018
0.892092
0.893652
0.898369
0.903784
0.906408
0.907882
0.909081
0.910178
0.910792
0.90916
0.907827
0.908256
0.909257
0.910502
0.913701
0.920354
0.924496
0.9264
0.927728
0.928921
0.929855
0.928433
0.925869
0.925574
0.92638
0.927631
0.92969
0.936241
0.942827
0.9458
0.947436
0.948773
0.949968
0.949102
0.945104
0.943558
0.944168
0.945447
0.947071
0.952029
0.961017
0.966097
0.968458
0.970036
0.971512
0.971535
0.966679
0.963129
0.962891
0.963845
0.965538
0.968574
0.977825
0.987142
0.991339
0.993852
0.995834
0.997241
0.993713
0.986387
0.983475
0.983933
0.985531
0.987797
0.992701
1.00484
1.01445
1.01856
1.02129
1.02405
1.02527
1.01996
1.01273
1.01011
1.01078
1.01308
1.01684
1.02539
1.0356
1.04258
1.0471
1.05029
1.05194
1.05079
1.04499
1.03844
1.03576
1.03618
1.04095
1.05126
1.06273
1.23415
1.68438
0.892331
0.894017
0.894436
0.893108
0.892293
0.892854
0.89385
0.895045
0.898217
0.904352
0.90804
0.909783
0.911059
0.912196
0.913159
0.912343
0.910246
0.910049
0.91084
0.911977
0.913791
0.919643
0.925624
0.928323
0.929794
0.931013
0.932148
0.932016
0.928927
0.927415
0.92793
0.929059
0.930497
0.934532
0.942548
0.947292
0.949425
0.95082
0.952077
0.95278
0.949721
0.946241
0.94591
0.946824
0.948187
0.950371
0.957837
0.966306
0.97009
0.972138
0.973689
0.975104
0.973427
0.967514
0.964729
0.964889
0.966189
0.968066
0.972452
0.983563
0.991962
0.995354
0.997192
0.998893
1.00021
0.995988
0.989097
0.986692
0.986688
0.987804
0.990063
0.995986
1.00881
1.01846
1.02291
1.0255
1.02768
1.02788
1.02257
1.01577
1.01301
1.01353
1.01576
1.01994
1.02935
1.03918
1.04544
1.04927
1.05193
1.0533
1.05194
1.0458
1.03827
1.03449
1.03476
1.04099
1.05563
1.24132
1.68661
0.894301
0.895987
0.89678
0.896018
0.89455
0.894693
0.895531
0.896616
0.898467
0.904126
0.909367
0.911722
0.913083
0.914243
0.915315
0.91547
0.913118
0.911918
0.91243
0.913483
0.9148
0.918508
0.92575
0.929913
0.931788
0.933064
0.934231
0.935034
0.932895
0.929945
0.929737
0.930671
0.931917
0.933801
0.940362
0.947781
0.951038
0.952751
0.954151
0.955497
0.954969
0.950431
0.948009
0.948123
0.949137
0.950698
0.954363
0.963897
0.971069
0.974123
0.976072
0.977619
0.978554
0.974632
0.96864
0.966929
0.967535
0.968944
0.97087
0.976344
0.987983
0.995227
0.998479
1.00105
1.00316
1.00386
0.997935
0.990644
0.988427
0.989188
0.990947
0.993409
0.999376
1.01197
1.02116
1.02535
1.02793
1.03024
1.03072
1.02545
1.0184
1.01547
1.01599
1.01829
1.02288
1.03279
1.0421
1.04766
1.05107
1.05355
1.05465
1.05291
1.04627
1.03738
1.03266
1.03293
1.04511
1.24477
1.68762
0.896348
0.898034
0.898989
0.898998
0.897098
0.896515
0.897167
0.898218
0.899518
0.903413
0.909976
0.913468
0.915091
0.916264
0.917342
0.918141
0.916548
0.914206
0.914167
0.915079
0.916242
0.918065
0.924313
0.930767
0.933581
0.935072
0.936301
0.937457
0.937191
0.933682
0.931911
0.932211
0.933146
0.934469
0.937824
0.946418
0.952325
0.954816
0.956337
0.957666
0.958638
0.95583
0.950913
0.949645
0.950425
0.951858
0.953607
0.959132
0.969406
0.975076
0.977436
0.979045
0.980694
0.981429
0.976399
0.970816
0.969458
0.969778
0.971058
0.973191
0.980215
0.992663
0.999749
1.00253
1.00415
1.00576
1.0064
1.00066
0.993956
0.991995
0.992239
0.993424
0.995731
1.00234
1.01501
1.02391
1.02814
1.03068
1.03267
1.03281
1.02808
1.02126
1.01791
1.01797
1.01997
1.02498
1.0356
1.04476
1.04977
1.05262
1.05474
1.05557
1.05374
1.04624
1.03591
1.03002
1.03203
1.24219
1.68736
0.898361
0.900051
0.901019
0.901668
0.900099
0.898574
0.89891
0.899875
0.901011
0.903087
0.909346
0.914638
0.916909
0.918217
0.919344
0.920394
0.920193
0.917328
0.91614
0.916652
0.91763
0.918855
0.922355
0.930208
0.93497
0.937056
0.938376
0.939589
0.940537
0.938385
0.934523
0.93372
0.934508
0.935708
0.93735
0.943126
0.951993
0.956357
0.958383
0.959703
0.960957
0.961048
0.956366
0.952549
0.952255
0.953056
0.954372
0.956425
0.963809
0.973857
0.978604
0.98104
0.982934
0.984509
0.984121
0.977599
0.972231
0.971391
0.972413
0.973914
0.976012
0.983433
0.995573
1.00185
1.00483
1.0075
1.00965
1.00982
1.00321
0.996021
0.99379
0.994517
0.996293
0.998814
1.00525
1.01733
1.02586
1.03005
1.03269
1.03494
1.03557
1.03067
1.02304
1.0192
1.01918
1.02123
1.02667
1.0377
1.04652
1.05101
1.0537
1.05573
1.05633
1.05411
1.04515
1.03238
1.02448
1.23393
1.68604
0.900124
0.901964
0.902958
0.903944
0.90345
0.901199
0.900783
0.901495
0.90252
0.90377
0.90788
0.914865
0.918461
0.920142
0.921338
0.922443
0.923241
0.921283
0.918463
0.91816
0.918955
0.920118
0.921827
0.927935
0.935425
0.938736
0.940395
0.941592
0.942727
0.942776
0.93871
0.935917
0.936103
0.937154
0.938412
0.940637
0.94848
0.956431
0.959708
0.961573
0.962949
0.964297
0.96327
0.957528
0.954331
0.954226
0.955137
0.956588
0.959317
0.968572
0.978303
0.982396
0.984256
0.985606
0.987312
0.986736
0.979894
0.975106
0.974246
0.974532
0.975799
0.9781
0.986591
0.999382
1.00605
1.0087
1.01036
1.01198
1.01227
1.00629
0.999417
0.997138
0.997288
0.998431
1.00076
1.00805
1.02049
1.02868
1.03258
1.035
1.03696
1.03728
1.03255
1.02479
1.02057
1.02022
1.02203
1.0277
1.03906
1.04774
1.05192
1.05449
1.05638
1.0566
1.05359
1.04081
1.02491
1.22221
1.6848
0.901556
0.903795
0.904871
0.905972
0.906515
0.904495
0.902786
0.903034
0.903937
0.905071
0.907144
0.913699
0.919501
0.921919
0.923244
0.924355
0.925407
0.925215
0.921736
0.919981
0.920491
0.921592
0.922804
0.925592
0.933667
0.939601
0.941955
0.943336
0.944569
0.945716
0.944236
0.939649
0.938054
0.938426
0.939328
0.940681
0.944189
0.953621
0.960475
0.96333
0.965163
0.966627
0.96771
0.964906
0.958578
0.956126
0.95653
0.957704
0.959112
0.962208
0.972355
0.981319
0.985008
0.987456
0.989416
0.990936
0.989204
0.9815
0.97652
0.975991
0.977121
0.97871
0.980922
0.989011
1.00134
1.00758
1.0105
1.01311
1.01524
1.01545
1.00927
1.00176
0.998874
0.999289
1.00107
1.00378
1.01118
1.02299
1.03046
1.03419
1.0367
1.03893
1.03963
1.03446
1.02601
1.02143
1.02093
1.02265
1.02835
1.03982
1.04823
1.05222
1.05495
1.05661
1.05662
1.04999
1.03436
1.21202
1.68439
0.902654
0.90561
0.906698
0.907804
0.908777
0.908091
0.905323
0.904715
0.905471
0.906563
0.9078
0.911703
0.919183
0.923217
0.924995
0.92617
0.927258
0.928138
0.926198
0.922759
0.922248
0.923001
0.924069
0.925395
0.930166
0.938841
0.943284
0.94526
0.946526
0.947739
0.94845
0.945014
0.940535
0.939681
0.940492
0.941731
0.943261
0.948325
0.958377
0.964051
0.966337
0.967841
0.969304
0.970451
0.966848
0.960654
0.958649
0.95876
0.959587
0.961097
0.965062
0.976385
0.985391
0.98886
0.990482
0.991752
0.993412
0.991932
0.98441
0.979842
0.979044
0.979224
0.980399
0.982686
0.991491
1.00458
1.0114
1.01406
1.01577
1.01738
1.01781
1.01248
1.00512
1.00208
1.00193
1.00298
1.00546
1.01367
1.02573
1.03304
1.03659
1.03891
1.04086
1.0414
1.03637
1.02744
1.02228
1.02149
1.02302
1.02863
1.03996
1.04814
1.0523
1.05516
1.05667
1.05464
1.04607
1.20756
1.68517
0.903025
0.907196
0.908388
0.909546
0.910607
0.911188
0.908845
0.906837
0.907092
0.907997
0.909058
0.910745
0.916986
0.92372
0.926512
0.927962
0.929102
0.930201
0.93042
0.926895
0.924272
0.92435
0.925286
0.926451
0.928329
0.935309
0.943386
0.9468
0.948504
0.949623
0.950793
0.95052
0.945539
0.942166
0.942117
0.942975
0.944083
0.945739
0.952211
0.96226
0.967161
0.969487
0.971297
0.97282
0.973313
0.968265
0.961906
0.960204
0.960993
0.962339
0.963802
0.967764
0.979068
0.987397
0.990798
0.993313
0.995333
0.996809
0.994608
0.986554
0.98129
0.980513
0.981598
0.983318
0.985609
0.993648
1.0061
1.01258
1.01554
1.018
1.02007
1.02067
1.01551
1.00749
1.0035
1.00323
1.00482
1.00771
1.01614
1.02774
1.03461
1.03814
1.0408
1.043
1.04359
1.03815
1.02853
1.02286
1.02181
1.02312
1.02829
1.03936
1.04765
1.0522
1.05543
1.05595
1.05423
1.20999
1.68729
0.902282
0.9084
0.91009
0.911348
0.912435
0.913477
0.912825
0.909682
0.908714
0.909266
0.910265
0.911444
0.914535
0.922404
0.9276
0.929704
0.930912
0.932
0.933054
0.931873
0.927538
0.926047
0.926642
0.927733
0.928896
0.931541
0.9401
0.947122
0.949874
0.951521
0.952726
0.953903
0.952495
0.946825
0.944067
0.944067
0.944849
0.946099
0.948267
0.956263
0.966225
0.970637
0.972536
0.973739
0.97525
0.975871
0.970517
0.964603
0.963177
0.963317
0.96408
0.965647
0.970239
0.982327
0.991219
0.994561
0.996125
0.997329
0.998966
0.997534
0.98992
0.984836
0.983842
0.983966
0.984946
0.987099
0.995579
1.00879
1.01591
1.01864
1.02033
1.02197
1.02287
1.01858
1.01039
1.006
1.00525
1.00625
1.00877
1.01751
1.02972
1.0371
1.04065
1.04286
1.04451
1.04493
1.03979
1.02966
1.02327
1.02186
1.02276
1.02738
1.03831
1.04707
1.0525
1.05448
1.05924
1.21768
1.69033
0.900659
0.90887
0.911698
0.913173
0.914244
0.915277
0.915921
0.913526
0.91078
0.910725
0.911641
0.912747
0.914048
0.918967
0.927064
0.930895
0.932619
0.93378
0.934915
0.935717
0.932817
0.928855
0.928225
0.928815
0.929744
0.93101
0.934975
0.944557
0.950673
0.953223
0.954899
0.956188
0.957131
0.954096
0.947916
0.945679
0.946211
0.947368
0.948566
0.950779
0.959562
0.969041
0.97301
0.97528
0.977148
0.978674
0.978598
0.972416
0.966137
0.964615
0.965434
0.966819
0.96834
0.972532
0.984136
0.992538
0.996009
0.998567
1.00064
1.00215
1.00049
0.992839
0.986724
0.985104
0.985886
0.987526
0.989899
0.997747
1.01012
1.0168
1.01988
1.02235
1.02439
1.02525
1.02098
1.01244
1.00726
1.00623
1.00744
1.01013
1.01871
1.03078
1.03811
1.04181
1.04432
1.04597
1.04629
1.0411
1.03072
1.02368
1.02169
1.02202
1.02607
1.03708
1.04679
1.05151
1.06097
1.22838
1.69384
0.89943
0.907429
0.912618
0.914786
0.91594
0.917006
0.918048
0.917797
0.914276
0.912633
0.91303
0.913875
0.914908
0.916744
0.923781
0.931255
0.934242
0.935748
0.936845
0.937955
0.937923
0.933375
0.930012
0.929872
0.930795
0.931937
0.933413
0.938844
0.948725
0.953917
0.956027
0.957478
0.95879
0.959773
0.956095
0.950094
0.948311
0.948497
0.949217
0.950529
0.953333
0.963045
0.972655
0.976574
0.978283
0.979408
0.980987
0.981326
0.97533
0.969282
0.967759
0.967742
0.968314
0.969826
0.974388
0.986741
0.996102
0.999642
1.00126
1.00247
1.00416
1.00366
0.996534
0.990104
0.988299
0.988344
0.989149
0.991191
0.99943
1.01256
1.01974
1.02252
1.02413
1.02584
1.02728
1.02403
1.01508
1.00924
1.00788
1.00854
1.01065
1.01883
1.03166
1.03984
1.04369
1.04567
1.0468
1.04714
1.04267
1.03217
1.02404
1.02101
1.02072
1.02433
1.03614
1.04542
1.05946
1.23977
1.69716
0.899633
0.904472
0.912091
0.916088
0.917806
0.918898
0.919929
0.920824
0.91901
0.915202
0.914309
0.914952
0.915999
0.917185
0.920191
0.928801
0.935132
0.937517
0.938761
0.939774
0.940832
0.93933
0.933915
0.931715
0.932138
0.933145
0.934218
0.935802
0.942388
0.952214
0.956814
0.958944
0.960624
0.962064
0.962519
0.957648
0.951415
0.949784
0.950547
0.951801
0.953026
0.9557
0.965511
0.974661
0.978411
0.980812
0.982752
0.984286
0.984144
0.977808
0.971036
0.968925
0.969513
0.970835
0.972442
0.976445
0.988043
0.997018
1.00076
1.00338
1.00549
1.00705
1.00641
0.999599
0.992302
0.989479
0.989766
0.991282
0.993683
1.0015
1.01364
1.02038
1.02367
1.02638
1.0284
1.02951
1.02609
1.01698
1.01052
1.0087
1.00945
1.01162
1.01927
1.03189
1.04029
1.04439
1.04656
1.0477
1.04805
1.04394
1.03344
1.0241
1.01972
1.0187
1.02286
1.03469
1.05346
1.25022
1.69958
0.900632
0.903202
0.90922
0.916478
0.919352
0.920711
0.921712
0.922732
0.923083
0.919525
0.916333
0.91629
0.917262
0.918413
0.919659
0.923864
0.933111
0.938338
0.940441
0.941728
0.942798
0.943601
0.94059
0.935297
0.933795
0.934212
0.935094
0.936296
0.93833
0.946124
0.955697
0.959874
0.961692
0.962851
0.964216
0.964889
0.959983
0.954134
0.952682
0.952801
0.953429
0.954756
0.9579
0.968379
0.978127
0.982011
0.983676
0.984729
0.986258
0.986813
0.981152
0.974254
0.972078
0.971926
0.972354
0.973724
0.977832
0.990137
1.0003
1.00423
1.00592
1.00702
1.00862
1.00914
1.00338
0.995551
0.992401
0.9921
0.992778
0.994672
1.00256
1.01583
1.02351
1.02647
1.02807
1.02964
1.03129
1.02914
1.01995
1.01261
1.01028
1.01041
1.01181
1.01849
1.03182
1.04142
1.04567
1.04724
1.04796
1.04821
1.04494
1.03504
1.0241
1.01769
1.01635
1.02083
1.04327
1.25736
1.7008
0.901917
0.903982
0.906225
0.914089
0.919953
0.922214
0.923429
0.924461
0.925478
0.924743
0.92024
0.918222
0.918624
0.919505
0.920538
0.921959
0.927547
0.936881
0.94146
0.943492
0.944854
0.945975
0.946387
0.941892
0.936579
0.935538
0.936445
0.937677
0.938748
0.940748
0.94911
0.95832
0.962137
0.964195
0.965939
0.96739
0.967542
0.961923
0.955601
0.953933
0.954682
0.95596
0.957277
0.960099
0.970195
0.979521
0.983382
0.98578
0.987764
0.989315
0.989569
0.983981
0.976384
0.973218
0.973386
0.974676
0.976409
0.980058
0.991226
1.00085
1.00491
1.00747
1.00962
1.01127
1.01168
1.00647
0.998115
0.993725
0.993163
0.994442
0.996641
1.00405
1.01649
1.0238
1.02736
1.03025
1.03227
1.03361
1.03123
1.02195
1.01388
1.01073
1.01075
1.0122
1.01848
1.03171
1.04148
1.04554
1.04709
1.04808
1.0485
1.04592
1.03649
1.02367
1.0154
1.01222
1.0289
1.25823
1.70036
0.903264
0.905118
0.905952
0.909794
0.918473
0.923265
0.925172
0.926273
0.927269
0.928108
0.925887
0.921224
0.919944
0.920574
0.921653
0.922736
0.924385
0.931156
0.940213
0.944218
0.946045
0.947364
0.948607
0.948941
0.944074
0.939215
0.938368
0.938708
0.939466
0.940657
0.943206
0.952296
0.961554
0.965356
0.967013
0.968021
0.969425
0.969995
0.964741
0.958625
0.957012
0.957048
0.957521
0.958786
0.961804
0.972407
0.982648
0.986792
0.988481
0.989427
0.990835
0.991921
0.987643
0.979941
0.976648
0.976266
0.976477
0.977584
0.980919
0.992332
1.00342
1.00806
1.00998
1.01117
1.01278
1.01406
1.01013
1.00128
0.996292
0.995255
0.995619
0.997171
1.00402
1.01778
1.0269
1.03041
1.03205
1.03334
1.03491
1.0339
1.02515
1.016
1.01202
1.0114
1.01218
1.01739
1.0311
1.04177
1.04585
1.04712
1.04812
1.04857
1.04671
1.03733
1.02258
1.01207
1.014
1.25157
1.69806
0.904344
0.90608
0.906893
0.908392
0.913997
0.922486
0.926349
0.927993
0.928939
0.929972
0.930528
0.926858
0.922637
0.922096
0.922843
0.923788
0.924756
0.926613
0.934252
0.943095
0.946881
0.948831
0.950411
0.951782
0.951603
0.945833
0.940647
0.939802
0.94071
0.941887
0.942979
0.945363
0.954569
0.963498
0.967117
0.969261
0.971069
0.972527
0.972743
0.967317
0.960491
0.958167
0.95865
0.959894
0.96131
0.963848
0.973475
0.983354
0.987581
0.990089
0.992194
0.993807
0.994668
0.990992
0.982984
0.978168
0.977309
0.97828
0.979878
0.982925
0.993179
1.00376
1.00861
1.01144
1.01375
1.01539
1.01632
1.01272
1.00369
0.997558
0.996025
0.996928
0.998813
1.00498
1.01787
1.02673
1.03072
1.03356
1.03568
1.03708
1.03571
1.02686
1.01697
1.01207
1.01119
1.01213
1.01727
1.03066
1.04122
1.04516
1.04667
1.04811
1.04863
1.04697
1.03694
1.01857
1.00817
1.23859
1.69538
0.90616
0.90721
0.908097
0.909143
0.910893
0.917653
0.925762
0.92917
0.930798
0.931877
0.932973
0.932815
0.928017
0.924395
0.923991
0.924513
0.925485
0.926673
0.928998
0.937397
0.946056
0.949692
0.951386
0.952589
0.953874
0.953908
0.948327
0.943438
0.942544
0.942765
0.943439
0.944679
0.94746
0.957118
0.966521
0.970379
0.972006
0.972996
0.974424
0.975296
0.970776
0.96388
0.961429
0.96119
0.961329
0.962371
0.964912
0.974761
0.986003
0.991002
0.992936
0.994048
0.995452
0.996926
0.994789
0.986729
0.981308
0.980073
0.980104
0.980964
0.983521
0.993854
1.00616
1.01185
1.014
1.01515
1.01663
1.01818
1.01593
1.00688
1.00017
0.998204
0.998178
0.999275
1.00418
1.01777
1.02903
1.03357
1.03525
1.03632
1.03768
1.03744
1.02996
1.01919
1.01319
1.01173
1.01217
1.01623
1.02949
1.04045
1.04447
1.04626
1.04801
1.04851
1.04649
1.03223
1.01384
1.22363
1.69367
0.909136
0.908651
0.909232
0.910075
0.911062
0.913222
0.92121
0.929088
0.932243
0.93381
0.93483
0.935884
0.934907
0.929092
0.925629
0.925634
0.926662
0.927775
0.928826
0.931178
0.940111
0.948605
0.951999
0.953894
0.955538
0.956876
0.956434
0.950284
0.94481
0.94377
0.944626
0.945863
0.947051
0.949416
0.958579
0.967792
0.971695
0.97405
0.975988
0.977478
0.978153
0.9739
0.966298
0.962499
0.962245
0.963265
0.964715
0.966937
0.975598
0.98647
0.991632
0.99436
0.996663
0.998312
0.999478
0.997679
0.98984
0.98309
0.980975
0.98157
0.983062
0.985724
0.994843
1.00632
1.01198
1.015
1.01749
1.01921
1.02049
1.01841
1.00952
1.0017
0.998848
0.99916
1.00066
1.00489
1.01723
1.02819
1.03293
1.03568
1.03807
1.03964
1.03928
1.03178
1.02009
1.01299
1.0111
1.01178
1.0159
1.02847
1.03906
1.04331
1.04582
1.04781
1.04847
1.04245
1.02901
1.21369
1.69342
0.913413
0.91023
0.910155
0.911042
0.912067
0.913244
0.916119
0.92477
0.931971
0.934846
0.9365
0.93764
0.938597
0.936884
0.93097
0.928076
0.928016
0.928509
0.929492
0.930782
0.933784
0.943178
0.951551
0.954901
0.956454
0.957383
0.958658
0.958804
0.953246
0.947938
0.946758
0.946822
0.947247
0.948432
0.950961
0.960414
0.970671
0.975088
0.976841
0.977839
0.979142
0.980409
0.977533
0.969771
0.96561
0.964939
0.965032
0.965881
0.967855
0.976313
0.988712
0.994989
0.997265
0.998359
0.999492
1.00103
1.00071
0.993674
0.986371
0.983965
0.983754
0.984267
0.986119
0.994692
1.00791
1.01513
1.01778
1.01907
1.02047
1.02216
1.02151
1.01321
1.00452
1.00107
1.00038
1.00093
1.0039
1.01591
1.02937
1.0356
1.03765
1.03894
1.04001
1.0402
1.03423
1.02201
1.01382
1.01165
1.01189
1.01496
1.02659
1.03733
1.04242
1.04557
1.04776
1.04677
1.04177
1.21237
1.6948
0.918388
0.913586
0.911641
0.912235
0.913261
0.914359
0.91551
0.918584
0.927663
0.934715
0.93752
0.939178
0.940511
0.941552
0.939287
0.932638
0.929434
0.929649
0.930796
0.93206
0.933197
0.935902
0.945236
0.953369
0.956577
0.95856
0.960255
0.9616
0.961536
0.955866
0.949624
0.947742
0.948312
0.949473
0.950745
0.952868
0.961529
0.971615
0.976076
0.978484
0.980496
0.981971
0.983006
0.980553
0.972696
0.967172
0.965941
0.966757
0.968226
0.970247
0.97735
0.988895
0.995106
0.998006
1.00037
1.00215
1.00353
1.00339
0.997117
0.988827
0.984954
0.984746
0.985979
0.988038
0.995295
1.00764
1.01488
1.01843
1.02133
1.02328
1.02471
1.02387
1.01572
1.00595
1.00129
1.00077
1.002
1.00489
1.0155
1.02848
1.03467
1.03746
1.03987
1.04146
1.04167
1.03593
1.02318
1.01397
1.0112
1.01135
1.01382
1.02446
1.03544
1.04152
1.04558
1.04648
1.05055
1.21834
1.69755
0.92184
0.919441
0.914738
0.91383
0.914402
0.915288
0.916317
0.917587
0.92103
0.930405
0.937182
0.93978
0.941171
0.942215
0.943289
0.941642
0.93554
0.932602
0.932521
0.932913
0.933736
0.934983
0.937923
0.947476
0.956117
0.959615
0.96114
0.962071
0.963382
0.964018
0.95923
0.952789
0.950756
0.950681
0.950972
0.952031
0.954142
0.962926
0.974158
0.979325
0.98121