/*--------------------------------*- C++ -*----------------------------------*\
  =========                 |
  \\      /  F ield         | OpenFOAM: The Open Source CFD Toolbox
   \\    /   O peration     | Website:  https://openfoam.org
    \\  /    A nd           | Version:  12
     \\/     M anipulation  |
\*---------------------------------------------------------------------------*/
FoamFile
{
    format      ascii;
    class       volScalarField;
    location    "1";
    object      p;
}
// * * * * * * * * * * * * * * * * * * * * * * * * * * * * * * * * * * * * * //

dimensions      [1 -1 -2 0 0 0 0];

internalField   nonuniform List<scalar> 
46253
(
1.0422
1
1.16276
1
1.15663
1.15152
0.970526
0.891919
1
1
1.04739
0.840808
1
1
1
1
1
1
1
1
1
1.14185
1
1.01029
0.973458
1
1
1
1
0.887574
1.00165
1
1
1
1
1
1
1
1.03459
1
0.995925
0.844397
1
1
0.837767
1
1
1
1
1
1
1
1.11806
0.889717
1.17683
0.888742
1
1
1.07158
0.998137
1
0.997059
1
1
1
1
1
1.13273
0.88961
0.845677
0.969796
1
1
1.00677
1.11052
1.00981
1
1
1
1
1
1
1.12237
1
0.977947
1.01167
0.99997
0.99998
1.1264
1
1
0.996772
1.00168
1
1
1
1.00005
1
1.06985
1
1
0.999958
1.07545
1.00015
1.17355
0.979747
0.866822
1.00683
1.00348
0.889619
1.00267
1
1
1
1
1.11851
0.841529
0.997633
1.18805
0.897867
1
1.14662
1
1
1
1.19544
1
0.880273
1.19962
1
1.03778
1.03648
1.14645
0.97589
1
1
1
1
0.895973
1
1
1.04319
1.04453
0.994172
1
1.18977
0.999999
0.999987
1.03767
1
0.889746
1.11387
1
1
0.976871
0.84856
0.886509
1
0.999943
1.17146
0.999899
0.887784
0.889442
1
0.977191
0.999998
0.977978
1
1.30415
1
0.999907
0.999959
1.13637
0.988323
1.16733
1.05673
1.00468
0.999955
1.0012
0.842074
1.16799
0.975672
1.00009
1.00284
1
0.999943
0.999962
0.829781
1
1
1.11236
1
0.997258
1
1
1
1.02092
1
1.08081
1.08863
1
1
0.99991
0.999908
1
0.849073
0.972221
1.01064
1.02405
1
1
1.18893
0.988483
1.03991
1.00412
1
0.991304
1.00218
1.02698
1.13658
1.1282
1.0391
1.0545
1.00033
0.999932
0.990145
1
0.999999
1.08825
1.09106
1.0378
1
1
1
1
1
1
1
1.03546
1.04713
1
0.999974
1
1
1
1.10384
1
0.970731
1
1.04131
1.04398
1.04516
1.08807
1
1.09056
1.01268
1.0069
0.899661
0.994083
1
0.985424
0.994456
0.847748
0.996213
1.00836
1
1
1
1.02644
1.0442
1.02156
0.999999
1
1
1.04445
1
1.18436
1
0.882142
0.910546
1.08694
1.08608
1.10325
1.04018
1
0.996412
0.998253
0.896132
0.988919
1
1.064
1.062
1.00133
1
1.05785
1.01936
0.999992
1.0184
0.988154
1.04704
1.17918
1.04568
0.881551
1.17559
1
1.04133
1.03969
1
0.995468
1
1
1.00062
1
1.05126
1
1.04686
0.889076
1.05804
1
0.875109
0.889421
1
0.975886
0.984749
1.01888
0.986109
1
1
1.0606
1.05212
1.08619
1.0823
1
1
1
0.997258
0.896356
1.04492
1.04454
1
1.11815
1.1123
1
1.18881
1
1.06974
1.06214
1
0.89454
0.999973
1.07068
1
0.84541
1
0.8911
1
1.04499
1
1.04608
1
0.874757
1
1
1
1
1
1
1
1.07608
1
1
1
1
1.07035
1
1.05423
0.895411
1
1
1
1.00139
1.00328
0.888056
1.04588
0.840797
1.0494
1
1
1.08185
1.21728
1
0.989822
1.07752
1.00199
1
0.857678
0.967429
0.966608
1
0.996938
1
1.0804
1.08162
1.05219
1
1.09662
1
1
1
1
1
1
1.15769
1
1.00026
1.08946
0.996565
1
1
0.901673
1.09026
1
1.0866
1
1.04801
1
1
1.08352
1.05691
1
1.00574
1
1
1
1
0.976465
1.00072
1
1
0.895827
0.888712
1.09548
0.999438
1
0.980338
0.979
1
1
0.892614
1
0.911242
0.999126
1
0.997931
1
1.09295
0.919209
1.09351
1.05389
0.971794
1
0.971688
0.972988
1.06708
1
0.973517
0.999958
1
1.09089
1
1
0.996149
1
0.914717
0.884477
1.08884
0.903036
0.96879
1.08931
1.00252
1.05253
1.0571
1
1
1
1
1.20475
1
0.910544
0.999625
0.845987
0.911349
0.974611
0.997963
0.977274
1
1
1.06399
0.998423
0.851088
1.07662
1.08958
1.09051
1.05112
0.994422
1
1.05531
0.999215
1
1
1
0.995061
1.09087
0.835916
0.996483
1
1
0.985876
1
1
0.997992
1.14754
0.99513
1
1
0.996046
1
0.996637
1.00655
0.998544
1
0.995303
0.996342
1
0.971099
0.996634
1
1
1.07305
1
0.995691
0.902535
1
1
1.08431
1
1
1.00793
1.00433
0.855208
1.05827
1.05507
1.09059
0.903281
1.09078
0.998321
1.06882
1.06888
1.0691
1.07051
1
1.09549
1
0.973593
0.848135
1
1
1
1.08764
1
1
0.986969
0.991032
1
0.984312
1
1
0.87988
1
1
1
1.07861
1
1
1.08815
0.981701
1.02347
1
1.02454
1.02523
1.02682
1.12193
1
1.09071
1.0907
0.98821
0.941401
1
1
1.00771
1
1.17969
1.00461
1.08927
1.17935
1.09843
1
0.994718
0.99917
1
1
1.11321
0.976843
1
1
0.958062
1.0685
1.06944
1.06843
1.06917
1.0666
1.0663
1.0637
1.06442
0.826441
0.978786
1.06195
1.00313
1.06289
1.05952
1
0.989206
1.00039
1.05958
1
1.05628
1
1.05666
1
0.983415
1.05306
1
1.05386
1.1207
1
1.05021
1
1.05075
1
0.858595
1
0.907198
1.00671
1
1
1.04702
1.04743
1
0.991776
1.04332
1.04364
0.960611
1
1
1.03847
1.08958
1.03884
1
1.08657
1.03479
0.900101
1.03514
1.08953
1.08782
1
1
1
1.03143
1.03168
0.860179
1
1
1.02746
0.914649
1.02813
0.889794
1
1.02209
1.02279
1
1
1
1.00072
1
0.997725
0.987754
1.00356
1
1.01677
1
1.0177
1
1
0.99874
0.99995
1.01472
1.01435
0.975831
1.00448
1.00952
1.00589
1.00987
1
0.968335
1.0052
1.00517
1
0.896442
1.00109
1.00192
1.27143
1
1
1
0.999456
0.975824
0.999083
1.04467
1.09697
0.971739
0.873854
0.993847
0.994205
0.988418
0.992709
0.993022
0.895908
0.891496
1.06686
0.900632
1.19059
1.08864
1
0.859694
1.08909
0.899992
1.00255
0.995082
1.06928
1.06634
1.06937
1.08706
1
1.06555
1
1
1.06632
1.08869
1
1.06883
1.06812
0.90388
0.901356
1
0.963572
0.871047
1.02057
1
1
1
1.09587
1
1.00264
1
0.979514
1.09077
1.02353
0.997102
1.02563
0.909206
1
1.0015
0.993232
1.02784
1.09284
1
1
1
1
1.02706
1.02417
1.00055
0.998769
0.996862
1
0.909069
1
1
1.02683
0.986637
1.09566
0.898388
1.09583
1.0944
0.967061
0.967884
1
1.02884
0.873536
0.968207
1
0.976769
1.08714
1
1.0939
0.974665
0.984927
1.0921
1.08721
1.12838
1.09623
1
1.04193
1.04244
0.97792
1
1.12145
1.11466
0.989384
0.99856
1
0.998593
0.844374
0.87761
1.11666
1
1
1
1.02619
1.02617
1.06991
1.09997
1
1.09013
1.02091
1
1.1008
1.02076
1.08926
0.974928
0.971262
1
0.97698
0.997028
0.86
0.977488
0.877586
1.00913
1
1
1.00853
1
1
0.982595
0.978848
1
1.08622
0.898919
0.991699
0.895735
0.894894
1.08785
0.902213
0.89071
0.883196
0.87896
1
1.09259
0.939588
1.09396
1
0.977003
0.910159
0.91623
1
1
0.999023
1
1.0003
0.997439
1.09346
1.09344
1.28894
1.09391
1
1.09379
1
0.98024
1.00348
0.92875
1.10929
1
1.08896
1
0.980312
0.978847
1.09045
1.09501
0.976661
0.972157
0.978493
1
1
1
1
0.97353
0.999589
1
0.959209
1.09148
0.901395
1
0.891639
1.01793
0.974639
1
1.08491
1.08753
0.99759
1.15122
1.07035
0.91637
1.03639
1.02756
0.915756
1.0704
1.07026
0.969186
1.04593
1
1
1.00106
0.842184
1.15996
0.97158
1
1.06558
1
1.06569
1
1.03299
1.22211
1.02373
1.02973
0.889859
0.908391
0.807726
1.08194
1.08096
1.07694
0.899805
0.985952
1.01581
1.13031
1.05164
1.05508
1.05785
1.04846
1.0519
1
0.997339
1.05557
1.06008
1.04897
0.972362
1.0586
1.03665
1.04499
1.06064
1
1.06362
1.04575
1.06365
1
1.03999
1.06837
1.06549
1.06637
1.0405
1.06638
1.07026
1.0365
1.06738
1
1.06893
1.03711
1
1.03305
1.06863
1
1
1.08423
1.03355
1
1
1
1.02974
1.02738
1
1
1
1.03019
1.08694
1.05514
1.02459
1
0.93746
1.02495
1.01954
1.01978
0.887506
1.01516
1.01523
1.01207
1
1.01693
1.01308
1
1.00683
0.988237
1
1
1.00766
0.91256
1.03365
1.00376
1.00393
0.999839
1.09027
0.999584
1.07802
0.996271
1
0.984692
1.08822
0.99757
0.959396
0.948999
0.977952
0.994104
0.984319
0.983341
0.986732
0.992771
0.988975
0.989926
1.03617
1.02622
1.10684
1
1.02395
1
1.03373
1.02932
1.06969
1
1.1929
1.10492
1
0.991498
0.989643
0.988368
0.990314
1
0.950989
1.03125
1.03518
1.01084
1.16139
1.02938
1.03214
1.02987
1.02253
0.998285
0.894105
0.995522
0.97503
1
0.942782
0.907265
0.898406
0.954477
1
1.04903
1.02234
0.842543
1
1.08368
0.994337
0.943437
1.08609
1
1.07073
1
0.922008
0.952881
0.829773
1.02837
0.958365
0.961917
1.00399
1.08762
0.945882
1.08736
0.984451
1.00081
0.888202
0.894358
1.01667
0.939246
1.03394
0.98728
1
1.03345
1.06024
0.921092
0.950147
1
1
1
0.989826
1.09927
1
1
1.0769
0.953866
0.877167
1
0.974834
1
0.989164
0.92735
1
1
1.13198
0.893446
1.06849
0.902912
1.00623
1.0069
1.18169
1.0356
0.998498
1.08994
0.970973
1
0.958744
1.08352
0.990059
0.909417
1
1
0.941434
0.988815
0.982838
0.975466
1.0018
1.00284
1
1.08677
0.983111
0.975021
0.97624
0.878085
0.962682
1.08858
0.930797
0.895728
0.977324
0.883725
0.977341
1.02293
1
1
1
0.909074
0.976597
1
0.976274
0.977204
1.12822
1.0062
0.915942
0.976628
1.04318
0.992593
1.04637
1
1
0.929137
1.05187
1
1
1.0868
0.971844
1
0.970798
0.844006
1.0108
0.981858
1
1.08809
0.980267
1
1.08143
0.981063
1.07628
1.08178
1
1.02517
1.07777
0.983817
0.978462
1.04542
1
0.995804
1.07027
1.05735
0.930861
1
1.0415
1.07191
1.0639
1.10119
0.992691
1.11471
1.10342
1.10557
0.912472
1.0652
1.10425
1.05132
1.10012
1
1.00265
0.994518
1.05688
1.08288
1.19455
1.06251
1.08877
0.879825
1.06999
1.05682
1.05783
1.01056
1.0873
1
1.08745
1.08581
1.04725
1.02796
1
1.04963
1
1
1
1.05011
1
1
0.913326
1.01224
1
0.919283
1.05023
1.00293
0.97802
1
1.00692
1.00727
1.00225
1
1
1
1
1
1.00931
1
1
1
1
1
0.999991
1.00081
1.05679
1
0.952407
1
1
1
1.00746
0.904648
1.04418
0.999991
1.02014
1.10229
0.999991
1
1
1.04221
0.999985
1.02696
1
1.06218
0.894132
1.01542
1
1.01629
1
1
1.01576
1
1.06737
1.06686
0.998366
1.06142
1
1
1.04109
1.04115
0.908398
1.04456
1
1.04466
1.02266
1
1.04426
1
0.95722
0.959518
0.902067
1.04032
0.913963
0.953206
1
1.04436
0.96358
0.963385
1.02509
1.02763
0.866127
1.02834
1.02237
0.957974
1.02778
1.02817
1.0834
1.0406
1.04602
1.07669
1.04294
1.02512
1.04572
1.04598
1.02685
1.087
1.02835
1
0.973812
1.02799
1.04592
1.0426
0.89557
1.0061
1.02754
1.04525
1.08628
1.04561
1.00328
1.04585
0.907541
1
1.03658
0.890615
1.08414
1.00345
1.04518
1.02927
1.00993
1
0.912248
1.05581
1
1
1.09713
1
1
1.19954
0.898893
1
1.04413
1.04284
1.04412
1
0.886557
1.02598
1.02869
1.02802
1.01467
1.04298
1.22345
1.06076
1.04114
0.906823
1.04278
1.04169
1.03868
1.04193
1.03975
1
0.906426
1
1.00613
1
1.06917
1.00743
1.03994
1.02647
0.812791
1.02724
0.996776
1.03521
1.02162
1.00644
0.903484
1.04766
1
1.03742
1.03748
1
1.07086
1
1
1
1
1.07138
0.919811
1
1.08314
1.06534
0.891525
1.05319
1.07755
0.886229
1.03508
0.88447
1
1.07949
1.08577
0.91691
1.075
1.01148
1.02271
1
1
1.06635
1.08012
0.901869
0.900288
1.08739
1
1.07448
1.09019
0.951416
0.972388
1.04393
1.07871
1.12779
1
1.0736
1.04292
1
1.03341
1.03356
0.980845
1.07225
1.03035
1.0318
1
1.04697
1.03209
1.0427
1.0521
1
1.06381
1.0728
1
1.01492
1.03039
0.764223
1.05861
1.06343
1.06383
1.07096
1.04214
1.07362
1
1.02419
0.996491
1.00018
1.08594
1
1.03746
1.00026
1
1.0259
1.07114
1
1.02748
0.996483
1.02777
1
1.07628
1.0825
1.0439
1.05334
0.893556
0.850153
0.962981
0.952018
0.959816
1.05776
0.995095
0.947992
0.977294
1.07487
1.02578
1.05807
1.03903
0.965279
1.03906
1.0165
0.914066
1.06997
1.05049
0.975641
0.973107
0.985768
1.07449
1.02077
1.03577
1.02283
1.00973
1.023
0.959978
1.00864
1.04481
1.03482
1.04498
1.07228
0.981696
1.02034
0.986318
0.999088
1.077
0.913295
1.02753
1.07617
0.915655
0.813799
0.883823
1.07501
0.898085
1.01518
1.01219
1.07474
1.03207
1.01803
0.966714
1
1.01125
1.01762
1.04594
1.05435
1.00197
0.979601
1
0.838983
0.90673
0.98857
0.890227
1.0309
1
1.03345
1.01429
1.01507
1
1.06919
0.980882
1.04023
1.04487
0.984525
1.07223
0.913436
0.969956
1.00023
1.04509
1.03112
1.01028
1.01261
1
1.01207
1
0.973258
1.06547
1.01053
0.885349
1.05683
1.03396
1
1.03964
1.0412
0.990045
1.0068
1.0043
1.04121
1.03779
1.19502
1.10347
1
1.00493
1.07082
1.00721
1
1.03924
1.00714
1
1.03745
1.03917
0.920381
1.09666
1.03693
1.00565
0.926505
1
1
1.03696
1.02017
1
1.04098
0.987391
1.03754
1.03989
1.0345
1.38864
0.910261
1
1.00489
1.09425
1
1
1.04628
1.09162
1.0359
1.08017
1.00178
0.877301
0.888279
1.01009
0.923085
1.00199
1.00052
1.01501
1.05712
1.04702
1.00082
1.00707
1.08148
1.02207
1.00646
0.807805
0.941665
1.04225
1.07629
1.00848
1.0959
0.999026
1.04192
1.09399
0.908982
1
0.998595
0.991792
1.00478
0.913272
1
1
1.06021
1.05982
0.912956
1.00346
1
1
1.00233
1.00899
1.0862
1
1
0.997699
0.993141
0.993759
1.06668
1.00054
1.0068
1.00353
0.99156
1.05563
1.00539
1.08172
0.897078
1.01625
0.992733
1.02737
1.14417
1.02899
0.976915
1.02112
0.935223
1.02085
1.02922
0.991181
0.984927
1.01069
1
1.00321
1.07787
1
0.935336
0.930578
0.945865
0.933642
1.06687
0.991938
1.07676
1
0.943427
1.02428
0.916142
0.90136
0.973572
0.926478
0.686937
1.02109
1.02483
0.892125
1.02759
0.987984
1.09459
0.892311
1
0.949612
1.02843
0.894095
1.09407
0.977222
0.974055
1
1
0.976101
0.950152
1.07064
1
1.07338
0.948355
1
1.01965
0.896783
0.891212
0.904641
0.98684
1.02005
0.978299
1
0.89125
0.909897
1
0.880446
1.06596
0.978826
0.978855
0.999765
1
1
1.08802
0.953011
0.771173
0.892675
0.893901
1.09181
0.910769
1.00404
1
1.01512
1
1
1.01673
0.969322
1.33975
1.01485
1.07542
1.06558
1.00601
0.923896
1.04433
0.924299
1.05565
0.957386
1.03172
1
0.999997
0.908803
0.95142
1.04467
0.924613
0.99999
1
1.06566
0.917414
0.889822
0.894338
1.01012
1.03036
0.924372
1
1.04607
0.999987
1.00949
1
1.04423
1.00396
0.987325
1
1.00593
0.999997
1
1
1
1
1
1.0312
1.04446
1
1.04445
1.04548
1
1.07708
1.07069
1
0.968574
1.02967
1.04519
1
1
1.07394
0.88329
0.926718
1.09158
1.04563
1.0462
0.968121
0.814418
1.04173
1
1
1
1
0.989132
1.00426
1.04583
1.04993
0.989983
0.925222
1.00377
1.07423
0.917398
0.958405
1.04348
1.00348
1.04541
0.981455
1.04575
0.983737
1
1.07407
1.00388
1.02554
1
1
1.0943
1.01087
0.931106
0.957405
1.01807
1.04434
1
0.904257
1
0.976302
1.01905
1.01885
1.0108
0.91125
0.928952
0.971135
1.04373
0.99073
1.04452
0.988939
1
1.00961
0.993168
0.913151
1.04064
1.06638
0.973989
1
1
0.780206
1.04241
1.01332
1.03581
1.09573
0.987955
0.878574
1.06907
1
1.01249
1.01653
1
1.04257
0.943608
0.87543
1.04081
0.696701
0.991007
0.979816
1.03835
0.976991
0.990005
1
0.989942
0.991442
1.03858
0.969794
1
0.990042
0.983759
1.00122
0.992453
1.03612
1.00369
0.987877
1
1.0058
1
0.988001
1.00966
1
1
1.09224
1.01164
1.04366
1.00577
1
1
1.03097
1.04462
0.991384
1.01918
1
1.05308
1
0.986995
1.07984
1.03122
0.724621
1.00449
0.956984
1.03134
1.03293
0.918237
0.98888
0.931486
0.987071
1.03484
0.983205
0.951672
1
1.03454
0.960563
1.0431
1
1.03279
1.0308
1
0.997989
0.899749
0.957399
1.00233
1.0347
1.0601
0.967817
1.03764
1.02625
1
1.02859
0.966724
1.00255
1.16765
1.00275
1
1
1
0.960893
1.0021
1.02823
1.00478
1.02626
0.956356
1
1.07371
1.09624
1.03741
1.02109
0.913881
1
0.992578
1.07274
1.00252
1.00558
0.993196
1.02356
1.08623
0.992249
1.20405
1.00366
1.02331
1.02143
0.987407
1
1.06376
1.05568
0.983861
0.999999
1.01647
1.06324
1
1
0.989349
1
1
0.944183
0.912189
1.00117
1.01812
1.02909
1.06987
1.07075
1
0.971908
1.07002
0.923211
1.08194
0.918872
1.01822
1.00669
0.870972
1.01703
0.914561
0.999985
0.887086
0.930509
1.01665
0.90404
1.01207
0.999984
1.00789
1.07067
1.02826
1.01332
1.0771
1
0.98787
1.07628
0.995457
1
1.00552
1.01382
1.01207
0.99297
0.984548
1.00014
0.905514
1
1.04741
1.03108
1.10084
1.26398
1.00057
1.05042
1.09152
1.00698
1.07309
1.00012
1.00868
0.967703
0.976658
1.01284
1.06406
1.0035
1.01077
1.02837
1.07518
1.01203
1.00917
1.01471
0.939902
1.00682
0.947377
1
1.01273
0.996213
1.08671
0.937447
0.976278
0.963834
0.968632
1.06374
0.902636
0.992403
0.981686
0.915174
1
1.0138
0.997405
0.935418
1.00437
0.943591
1.03299
1
1.00372
1.00174
1
1.00018
1
1
1.03399
1.0514
0.998925
1.05027
0.935605
1
1.00376
1.08167
1.0096
1.03318
1.00095
0.981591
0.990123
1.00261
0.930441
1.00105
1
0.95146
1.02674
1
1
0.97451
1.01434
0.998766
1.04206
0.991276
1.02285
1.0749
0.883018
0.858726
0.884317
1.0184
1.02413
0.992035
1
0.997048
0.923789
1.07533
1.04212
0.952268
1.0213
1.06579
1.02264
0.997621
0.919443
1.01037
1.05874
1.02522
1.0299
1.02498
1
0.92175
1.0223
1.02771
0.978976
1
1.07238
0.923036
0.99161
0.920923
0.875505
0.975955
1
1.04274
1.10255
1.03741
0.90746
0.991976
1.03441
1.03579
1.01771
0.852071
1.0428
1.03181
0.906584
0.989011
0.989909
0.907057
1.06201
0.989558
1.01051
0.989689
1
0.959177
1.203
0.988044
0.941736
0.986149
1.04142
1.09421
0.908471
0.990939
0.994823
0.991667
0.918526
1.12691
0.915688
1.0399
0.985323
0.980148
1.01902
0.976682
1.01024
1.06771
0.863297
1.00649
1.03856
0.978677
1.19975
0.976448
0.897988
0.916624
0.950665
0.918874
1.04312
1
0.992163
1
0.915341
1.04312
1
1
0.914226
1.05066
1
0.968906
0.995201
1.09468
0.974167
1.07165
0.875015
1
0.946277
0.918379
1.04285
0.918573
0.987578
1.04289
0.988394
0.989268
0.995615
1
0.993348
0.999974
1.04225
0.996981
1.05052
0.950774
0.946594
1.0416
1.04213
1.04232
1
0.944167
0.85811
1.04142
0.999998
1.05175
1.00648
0.950464
1.04154
0.958504
1.28175
0.999997
0.945164
1
0.920124
1.09524
0.95085
0.860543
1.07351
1.0408
1.00226
0.949472
1.02093
0.983708
1.04087
1.03508
1.00297
1.07372
0.984794
0.98621
0.999977
1.04953
1.07383
1.03988
1.03401
0.978469
1.04727
1
0.999972
1.03966
0.997905
0.921967
1.05217
1
1
1.05075
1.03837
1.05611
1.00431
1.05355
1.03836
1.06166
0.946066
0.978656
1.00431
1.03727
0.979942
1.03473
1.02566
1.06225
1.03751
1.04539
1.07908
1.02119
1.07311
1.00003
0.920668
1.03639
1
0.984374
0.970709
1.0583
1.00164
0.991199
0.996715
0.922611
1.03641
1.00343
0.982996
1.01568
1.0529
0.987461
1.00818
1
1.0023
1.0098
0.958467
1.00315
1.0282
1.02624
1.06045
0.98575
1.06667
1.06432
1.07148
0.920516
1.02456
1.03514
1.07553
1
0.990648
1.07209
1.06312
1.00507
1.0347
1.00195
1.0761
1.01433
0.9984
0.989356
1.04251
0.991847
1.00188
1.03332
1.02783
0.965367
1.06182
1.00494
0.928005
0.968176
0.990395
1.04233
1.03332
1.00039
0.951015
1.00247
0.989651
1.06917
0.865746
1.07903
1.07152
0.98922
1
0.961638
0.99638
1.00599
1.21984
1.02477
1.09191
1.03216
1.00423
1.02727
1.04667
1.07359
1
1.02626
0.995124
1.03243
1.05907
0.970282
0.997924
1.01628
1.04302
0.971873
1.07683
1.14124
1.07141
0.868899
0.996145
1.03119
1.03106
0.929671
1
1
1.07345
1.04305
1
1
1.00052
0.927792
1.01085
1.07561
0.999294
0.984987
1.02886
1.00403
1.02659
0.925805
1.07296
0.984242
1.02892
0.927194
0.927957
1.00885
1.00338
0.993578
1
1.00923
1
1
1.09524
0.92874
0.941778
1.04286
1.02733
1.09556
0.929464
1
1
1.02678
1.09704
1.103
1.00403
1.00697
1.07772
1.04307
0.99658
1.00586
1
1.07292
1
1
1.00894
1
1.08526
1.0254
1.06782
1.10624
1.02486
1.07245
1.00832
1.00482
1
1.07499
1.01237
1.02291
1.02256
1
1.0181
1.01135
0.988996
1.00293
1
0.999883
1.08122
1
0.909529
1.01398
1
1
1.03708
1
1.07406
1.02124
1
0.936995
1.01263
1
1.03786
0.991204
1
1.02043
0.853489
1
0.906013
1.02391
1.07311
1
1.03719
1.04235
1
1
1
0.998261
0.997811
0.937833
1.01734
1.01299
1.02725
1
1
0.911106
1.03798
1
0.997521
1.01614
1
0.944482
1
1.0185
1
0.940912
1
0.885898
1
1
1.06382
0.865233
1.03716
1.07164
1.06671
1.01759
1
0.941278
0.922023
1.02079
0.8692
1
1.03582
1.02964
1.00305
0.914172
1.10564
0.936971
0.999993
1.36361
1.01995
0.94726
0.946419
1.0569
1
0.979567
0.946189
1
1
0.905182
1.00192
0.763191
1.02737
1.0235
0.999954
0.999993
1
1.02286
1.096
0.914719
1.02638
1.00292
1.02745
0.953341
0.909751
0.916083
1.04459
1.00002
1.01898
1.02533
0.951499
1.19161
1.06858
0.886807
0.969274
1.02242
0.914443
0.895643
1
1.02973
1.06924
1
1.02204
1.02554
1.0042
0.988962
1.07555
1.07067
0.970236
1.00014
1
1.03995
1.06765
1.02933
1.03003
1
1.15824
1.06875
1.02457
1.00676
0.97983
1.00454
1
1.02395
0.995121
1.02845
1
0.868727
1
1.04711
0.958223
1.19281
1.02829
0.956507
1.03582
1.03098
1.02627
0.909252
1.05475
1.04299
1.03964
0.963239
1.02773
1.0299
1.04192
1.02658
1.02055
0.908077
1
1.03892
1.07676
1.09266
0.93062
1.03119
1.03286
1.04077
0.982761
0.98592
1.10215
0.970394
1.02163
0.977988
0.943622
0.915561
1.04292
0.96495
0.938207
1
1.02299
1.03215
1.07204
1
1
1.0302
0.938091
1.01288
1.02276
0.97874
1
1.03544
1.04281
1.01123
1.03257
1.02037
1
1.09403
1.04243
1.0349
1.04292
1.02057
1.00958
1.07314
1
0.92238
1.03164
0.932503
1.04278
1.04285
0.972823
0.974298
0.971728
1.13869
1.0429
0.975195
1.00421
1.04095
1.00403
1.0347
1.10456
1
1.0378
1.00001
1.05323
0.905721
0.918491
1.06032
1.04249
1.01436
0.93014
1.0037
1.01571
1.04608
1
1.1064
0.966315
0.948578
0.98497
1.03728
1
1.04277
1.03403
1.04202
0.968317
0.937799
1
1.06733
1.01411
1.11862
1.06698
1.04247
0.909672
1.01203
1.055
0.924943
1.0426
1.04119
0.984426
1.04781
1.06193
0.979091
1.03752
1.03248
1
0.999815
1.01753
1.04204
1.04009
1.03671
1.00291
1.0746
1.04072
1.06858
1.01009
0.972244
1.03906
1
1.03676
1.04098
1.01656
1.03917
1
1.0402
0.92622
1.07208
1.12534
1.04017
1.03821
1.02087
1
1.07528
0.931971
1
1.03933
1.04248
1.03675
1
1
1.02015
1.03807
1
1.04187
1
1.03533
1.03827
0.920528
1
1.03647
1
1.03441
1.01877
1.08543
0.980631
1.04361
1.03547
1.03328
1
1
1
1.02499
1.04308
0.93445
1.03455
0.996085
1.03134
1.04191
1.00724
0.981339
1.04208
1.08525
1
1.00152
0.994045
0.981929
1
1.02426
1.04312
1
1.03291
0.950301
0.950189
0.950834
1.04509
1.09647
1.02938
1.04122
1.02238
0.929189
1.03105
0.908834
1.00832
0.989685
0.987834
1.02805
1
1.12001
1.04465
0.930978
1.02739
1.06517
1.00118
0.99313
0.93107
0.909368
1
1.02878
1.0442
1.01747
1.02675
1.03053
1
1.00176
1.02511
1.00116
1.04652
1.02751
1
1
1.0436
1.02387
1.01675
1
1.00677
1
1
1.00162
1.04621
1
1.02494
1.05725
1.01442
1
0.916099
1.00193
1.04532
1.02144
1
1.02437
1.00297
0.9369
1.0263
1.05296
1.0655
1.03195
1
1.04746
1.02298
1.00571
1
1.10426
1.01879
0.994544
1.02165
1.0503
1.03103
1.04483
1.04716
1
1.04903
1.02232
1.10396
1.0039
1.01874
1.01511
0.914303
1.00387
1
0.924621
1
1.04676
0.993864
1
1
0.99482
0.983957
1.01476
1.00642
0.864751
1
1
0.937646
0.984389
1.0358
0.996565
1.07031
0.957721
1.04628
1.01083
1.04855
1
1.03497
1.07221
1.04845
1
1.0866
1.00209
1
1.04866
0.950928
1
1.15491
1.03868
0.999011
1.00186
1.07407
0.994861
1
1.02373
1.02667
1
1.04832
1.07337
1.07431
1.00635
1.03791
0.935634
1.02592
1
1.01654
1.03251
1.16672
1.05299
1.02106
1
0.934758
1.02083
1.04909
0.93443
1
1
0.936853
0.977479
1
1.08944
1.07888
1.04096
0.985887
1.04967
0.875533
1.04915
0.942561
0.960845
0.992722
0.978199
0.98029
1.08367
1.04007
0.992481
0.933909
0.931031
1.08535
0.999995
1.04948
0.958303
1
1.07262
0.922598
1
1.04891
1.01174
1.19977
1
1.04336
1.04913
1.00524
0.932387
1.00893
1.06662
1.05023
1.01073
1.09359
0.857848
1.04241
1.0059
1.00036
0.937455
1.01424
1.01021
0.857432
0.859036
1.08005
0.849901
1.05004
1.03959
1
1.00989
1
1.00393
0.916163
1.0715
1.06594
1
1.03985
1.0044
0.927011
1.00021
1.04586
1.00143
0.869427
1
1.12754
0.923271
1.05573
1.02779
1.0082
1.0469
0.999998
1
1.01385
1.17106
0.99779
1.04516
1.00408
1.03914
1.00224
1.04767
0.943175
1.06638
1.01259
1.07401
1.00741
1.09397
0.930349
1
1
0.855211
1
1.01265
0.945055
0.995915
0.993698
0.987462
0.952459
0.874781
1
1.191
1
1
1.02419
1.04817
0.993234
1.05588
0.935378
1.01183
1.01375
1.11554
0.941495
0.99673
0.998537
1
0.924252
1.04762
0.966689
0.989508
1.00231
0.988656
1.00581
0.988651
1
1.1854
0.992337
0.982339
1.04633
1.01711
0.938572
0.995786
0.92774
1
1.07608
1.00408
0.998927
1.04739
0.935982
1
1
0.970763
1
1
1.00802
1.02779
0.905275
0.933712
0.984784
1.0165
0.999803
1.05017
1
1
0.999776
0.919122
0.990441
0.98867
1.02091
1
0.985079
0.86869
0.99416
0.93458
0.918377
0.870595
1
1.02463
1.00865
0.994639
1.04962
0.982005
1
1
1.09248
0.985439
1.046
0.993421
1.00743
1.02184
0.9879
1.20415
1
1.00004
0.981869
1.04588
1
0.992876
0.922773
1.03753
1.01601
0.981637
1.00089
0.999465
0.961561
0.890011
1.01952
1.04156
1
1.02613
0.981616
1.05024
0.977606
0.986831
0.997424
0.858997
0.998847
1.02084
0.788714
0.899938
1.0051
1.00786
1.02006
1
1.00885
1
1.05099
1.00803
0.859272
1.02159
0.984687
1.05237
0.985866
1
1.04088
0.954961
1.05097
0.959406
0.900052
1.00407
0.981731
1.02334
1.1027
1.03784
1.05181
0.981173
0.987596
0.880513
0.941859
1
1.02223
0.939251
0.938739
0.971959
0.940296
1
0.861697
1.02065
0.940726
1.04811
1.00531
0.906985
1
1.08319
1.00269
1.02918
1.00259
0.942014
0.922665
0.941265
1.04224
1.00393
1.04884
0.930774
1.01478
1.20635
0.946835
0.908033
1.09248
0.905728
0.997348
1
1.00235
1.09149
0.917616
0.98124
0.999979
1.02842
0.992314
1
0.999537
1
0.936382
1.03592
1.01403
1.01973
0.999979
0.863567
1
1.01836
1.13075
0.994068
1
1.00311
1.04836
1.00521
1.02727
1.01497
1.00074
0.937097
1.01629
1
1.07685
0.912559
1.04894
0.922361
1.0329
1.05158
0.995316
1.06305
0.866482
1.05475
0.936533
1
1.02818
1.0497
1.01772
1.00704
0.945304
1.04881
1.02113
1.09546
0.911041
1.09469
1.05449
1.00298
0.914398
1.18267
1.00019
1.03209
1.04842
1
1.03624
1.12956
1.05029
0.977301
0.906426
1.02023
0.916329
0.999292
1.06586
1
1
0.957089
0.950407
1.02966
0.993783
1.04755
0.959946
0.926563
1.03628
1.04984
1.03638
0.942625
0.930246
1.05093
0.999998
0.91407
0.907113
0.85361
0.998923
1.02705
0.999995
1.04619
0.933098
1.00471
1.03144
0.996319
1.01485
1.03551
1.01657
0.856899
1.0761
1.04006
1.05023
1.0656
0.969696
0.945604
1.0487
0.941722
1.11438
1.02654
0.999996
0.943285
0.947918
1.06634
1.04007
1.01043
1.0206
0.996926
0.991043
0.951051
0.992794
1.0567
0.933387
1.03174
1.02979
1.01887
1.03373
1.0273
1.0361
1.00339
0.949111
1.02451
1.02213
1.00371
0.951742
0.980414
1.00136
1.05645
0.986266
1.04076
0.87267
0.990637
0.99711
1.01415
0.991392
1.03826
1
1.04319
0.987549
0.940757
0.936638
0.993765
0.999975
0.936394
0.942616
0.994754
1.00687
0.955639
1.00461
1.04492
0.9821
0.986597
1
1.07723
0.941888
1.10644
1.16927
0.971175
0.996887
1.04593
1.10204
0.999993
0.877288
1.04129
1.0312
0.999984
1.02871
1.0328
0.93388
1.02618
1
1.02388
1.03521
0.994608
1
1.03842
0.971665
1.03602
1.03772
1.00724
1.02221
0.862575
1.00158
1.04776
1
1.00002
1.05833
1.04863
1.0401
0.942213
1.0235
0.939434
1.00116
0.983021
0.953637
0.972619
0.91553
0.922157
1.00465
1.01128
1.04254
0.939474
0.977103
0.937513
1.02344
0.969144
0.989663
1.0353
1.0444
1
0.94502
0.990472
1.00592
1.05831
1.0493
0.943078
1.0195
0.97153
1.05809
1.04541
0.98905
1.03851
1
1.00061
0.982889
0.941853
0.849744
0.969499
1
1.00301
1.00422
1.03132
1.00539
1.03091
0.996759
1.06028
1.01027
1.04731
0.93985
1.10872
0.986661
0.913745
1.01723
1.0015
1
1.03787
1.04984
0.991444
1.10555
0.990406
1.0752
1
0.941753
1.00125
1.02989
1
0.916275
1.01418
1.01813
1.02448
0.972128
0.935927
1.0227
1.04902
1.01225
1.01698
1
0.942692
0.991398
1.00719
1.08522
1.04696
1
0.98363
0.987858
1.05838
1.06221
1.01229
1.0583
0.987774
1.06165
1
1.09286
0.978863
0.91373
0.946333
1.06604
0.935356
0.948758
0.980333
1.04965
1
0.991224
1.02422
1
1.0153
0.935916
1.02041
0.990004
1
1.01354
1.00664
0.934088
0.974502
1.08832
0.977458
1.03162
0.962453
0.996015
0.987936
0.981181
0.912091
0.946665
1
1.03118
1.21366
1.01
1.05057
0.979736
0.960273
0.914975
0.939365
1.05796
0.98096
1.05859
1.02175
1.04706
1.06301
0.982234
0.980063
0.962938
1
0.93451
1.07628
1.02225
1.01147
0.965868
0.979852
1.02349
0.978476
1.0511
0.996358
1.12653
1
0.975299
0.977561
0.933769
0.974625
1.06119
1.0577
1
1.02521
0.975987
1.07531
1
0.929244
1
1.05307
0.934177
0.986614
1.01163
1
1.06153
0.938217
0.972864
1.0239
1
1
1.04889
0.98024
1.00455
0.990598
0.997119
1.05065
1.04746
1.06026
1.00764
0.996246
0.863321
0.945009
1.04468
1.0527
1.07095
1
0.916433
0.922705
0.975166
1.05137
0.970472
1.10409
0.964291
1
1.01056
0.974594
0.950593
0.920405
0.908876
1.07256
1.04777
1.04844
1.11374
0.994973
1.08932
0.968962
1.01412
1.01333
1
0.951715
0.982136
1.05456
1.05548
0.966327
0.996349
0.964209
1.00878
1.00426
1.07651
0.937341
1.0345
0.911522
0.950004
1.05001
1.10013
1.10501
1.01684
1.01589
0.986663
1
1.13197
1.00221
1.04756
1.01968
1
1.01346
1.04535
0.969178
1.06705
1.02372
1.07359
0.937576
1.04681
1
1.00634
0.990479
0.920154
1.04021
1.04838
1.0161
0.922049
1
0.915527
1.02059
1
1.00177
1.05565
1.11066
1.06335
1.0712
1.02183
1.02601
0.943867
1.008
1
1.05798
0.941644
1.04887
1.0125
0.938189
1.08051
0.988898
0.998159
1.02164
1.01452
1
1.03049
1.0552
0.928706
1.01604
1.03478
1.03707
0.940986
0.91819
0.983505
0.907218
1.20682
1.01879
1.01746
1
1.07121
1.10711
1.01812
1.0492
0.990546
0.974492
1.04348
0.94952
1.07468
1.04884
0.983754
1.09899
0.950741
0.916007
0.807875
0.999986
1.03445
1.0224
1
1.01218
1
0.908601
1.00469
1
1.01756
0.934776
1.02503
0.965395
1
1.02853
1.00052
0.981533
0.932356
0.900515
0.976432
1.00014
0.98611
1.02764
1.02969
1.06467
1.03333
1.00172
1.00831
1.02012
1.03733
1.13642
0.999986
0.892782
1.00085
1.0294
1.10198
0.941816
0.890018
1.01582
1.00094
1
1.02744
0.868559
0.96859
1.05753
1.03967
1.0563
1.03856
1.01879
0.927511
0.999988
1
0.983204
1.03337
1.01231
1.00628
1.00225
1.00007
1.03156
0.972175
1.00317
0.988701
1.05734
1.00065
1.02312
1
0.926096
1.0622
1.05269
1.04846
1.07576
0.973817
1.04195
1
1.03625
1.00067
1.04585
1.02934
1.03721
0.941697
0.925485
0.982178
0.885392
1.03019
0.939376
1.02232
1.02176
0.979606
0.999981
0.955713
1.04905
1.03884
1.04473
1.06922
1.02426
0.971133
1.00377
0.976426
1.04546
0.922909
0.941994
1.13289
1.00776
1.05421
1.06424
0.924843
1
0.98541
1.04459
1.06753
1.01565
0.977251
1.00943
1.04125
1.04468
0.97535
1.00766
0.886422
1
1.02323
1.0104
0.971277
1.04721
1
1
1.03511
0.989767
1.04664
1.05722
1.04697
0.992281
1.02586
0.996335
1.04581
0.945512
1.03783
1.02763
1.01862
1.04402
0.972194
1.01637
1
0.901545
0.925609
1.00196
1.05607
1.04705
1.00991
0.943643
1.10288
1
0.933103
1.0492
0.983608
1.02555
0.97868
1.00207
0.933058
1.04246
1.02884
1.04587
0.975171
0.941671
1.02813
0.992472
1.04647
1.13216
1.02211
1
0.949592
1.02763
0.862942
1.04746
0.908436
0.98193
1.00197
0.945874
1.01729
0.921364
0.934894
0.989043
1.05635
1.01151
1.00296
1.04761
1.00158
1.038
1.06648
1.1354
1
1.01514
0.999997
1.06597
1.03979
1.07312
1.04287
1.02732
1.05127
1.02133
1.04744
0.982832
1.00799
0.992217
1
1
0.888859
0.838743
1.04856
1
0.936609
1.00431
0.847419
1.02949
1
1.00415
1.04616
1.04067
1.00359
1.04771
1.08317
1.12826
1.02387
0.928654
1.04449
1.02777
1.07421
1.04607
1.04686
0.983931
0.980094
1.02827
1.00452
1.04706
0.990288
0.980927
1.05061
1.04418
0.989311
0.927595
0.99004
1.04734
1
1.03063
1.00198
0.989521
1.05405
1
1.03253
1.03319
0.985434
1.04333
0.992069
1.00107
1.00075
1.07061
0.991406
0.993206
0.973416
1.03524
1.03894
1.04652
1.05821
1.04724
1
1.03947
1.05416
1.02997
0.980826
1.00225
0.903918
1
1.00608
1
1.04064
1.12456
1.03625
1
1.05836
1.03593
0.984976
1.07539
1.10731
1.00668
1.07309
0.97645
0.928174
1.08064
0.992336
0.971594
1.03249
1.04244
1
1.10628
0.903132
1.02587
1.13127
0.929225
1.073
0.977247
1.03625
0.992339
0.939834
1.04508
1.01835
1.04681
1
0.977292
0.910125
1.05354
0.988131
1
0.920184
1.04562
1
1.06212
0.969786
0.995774
1.03635
1.07166
0.928772
1.00619
1.06658
0.914578
1
1.03206
1
1.01507
1.02691
1
0.999988
1
1.12853
0.924406
0.99891
1.06291
1.05625
1.03426
0.92805
0.975968
0.99122