/*--------------------------------*- C++ -*----------------------------------*\
  =========                 |
  \\      /  F ield         | OpenFOAM: The Open Source CFD Toolbox
   \\    /   O peration     | Website:  https://openfoam.org
    \\  /    A nd           | Version:  12
     \\/     M anipulation  |
\*---------------------------------------------------------------------------*/
FoamFile
{
    format      ascii;
    class       surfaceScalarField;
    location    "1";
    object      phi;
}
// * * * * * * * * * * * * * * * * * * * * * * * * * * * * * * * * * * * * * //

dimensions      [1 0 -1 0 0 0 0];

internalField   nonuniform List<scalar> 
275392
(
-6.98029e-05
1.92295e-05
5.05728e-05
8.42797e-06
4.56306e-05
-5.03745e-05
3.5111e-05
2.96499e-05
-6.47609e-05
6.6479e-05
-6.0806e-05
-5.70632e-06
5.77026e-05
-7.20639e-05
1.43613e-05
6.60361e-05
-6.68189e-05
3.79986e-07
-5.16592e-05
-4.3493e-05
7.75271e-05
-7.1132e-05
7.02377e-05
4.38791e-05
1.89781e-05
-6.21378e-05
3.27773e-05
-8.76381e-05
-6.59592e-05
-5.87012e-06
7.18634e-05
6.06286e-05
1.47877e-07
-6.08168e-05
-6.52245e-05
-4.08461e-07
6.29548e-05
-6.48293e-05
1.77164e-06
-5.85785e-05
6.05878e-05
-2.00929e-06
-6.45806e-05
6.0021e-06
-6.16053e-05
-2.97529e-06
6.66724e-05
-5.9375e-05
-7.241e-06
7.74993e-05
-4.62394e-05
-3.12599e-05
-6.31766e-05
1.57137e-06
-6.64331e-05
6.504e-05
1.37522e-06
-7.01704e-05
1.7485e-05
5.26785e-05
-6.80643e-06
-6.29931e-05
6.67301e-05
-5.98982e-05
-6.83039e-06
3.77772e-05
2.95082e-05
-6.72854e-05
6.50165e-05
-6.31887e-05
-2.14428e-06
-2.1909e-05
5.96862e-05
-3.781e-05
6.88668e-05
-3.11189e-05
3.64505e-05
2.26302e-05
-5.90808e-05
6.59289e-05
7.2831e-07
6.89393e-05
-7.55723e-06
-6.11745e-05
6.59202e-05
-2.78241e-09
-6.41461e-05
-2.90014e-07
-6.60489e-05
6.73627e-05
-1.31377e-06
-6.35161e-05
-4.84452e-07
6.35674e-05
-2.9945e-06
4.03918e-05
2.38023e-05
-6.41942e-05
6.15924e-05
-6.3241e-05
1.64865e-06
-4.03532e-05
7.10077e-05
-3.06545e-05
-2.0724e-05
6.11158e-05
2.72508e-06
3.24708e-05
-4.58858e-05
6.91701e-05
-6.99516e-05
3.96366e-07
-6.12189e-05
6.16439e-05
-4.25042e-07
6.8759e-05
-7.09339e-05
2.18561e-06
6.51731e-05
-6.51731e-05
9.25846e-06
5.95626e-05
6.29145e-05
-5.69259e-05
-1.04437e-06
-6.92253e-06
3.29158e-05
-2.99859e-05
6.61361e-06
6.25567e-05
6.78134e-05
-5.86902e-05
6.77639e-05
-7.05155e-05
1.81889e-05
5.23198e-05
4.89248e-06
-6.36259e-05
5.87688e-05
-2.77436e-05
6.28546e-05
2.5539e-06
-6.24671e-05
-6.5663e-06
-6.36097e-05
6.85373e-05
-5.30274e-06
-6.32434e-05
6.23966e-05
-6.26631e-05
-2.33529e-07
7.44058e-05
-7.58678e-05
1.3908e-06
-1.19423e-06
-6.507e-05
6.6899e-05
-1.82897e-06
1.87928e-06
5.20064e-05
-5.40956e-05
-6.99327e-05
3.23661e-05
5.74012e-05
-5.54558e-05
-4.41081e-06
6.65344e-05
-1.38339e-05
-5.25096e-05
-6.3179e-05
2.32245e-06
6.0855e-05
6.48639e-05
-6.48639e-05
6.30252e-05
-6.30217e-05
-6.40138e-06
5.38901e-05
-4.74887e-05
-4.68963e-05
4.04949e-05
6.7324e-05
-6.59072e-05
-1.41681e-06
-5.84012e-05
5.71903e-05
9.85187e-07
-6.04876e-05
1.40612e-06
-3.34881e-06
-5.2834e-05
5.61828e-05
6.53617e-05
-6.27551e-05
-2.21763e-06
-6.4e-05
8.18839e-07
6.05362e-06
5.83595e-05
-6.44131e-05
6.98832e-06
6.15197e-05
6.05651e-05
-6.78136e-05
7.30535e-06
-6.34095e-05
6.2929e-05
6.26644e-07
-6.15375e-05
-1.22633e-06
-6.06135e-05
6.4104e-05
-3.49049e-06
-7.22057e-05
2.0132e-05
5.20738e-05
-7.30693e-06
-6.32153e-05
6.71828e-05
-1.5915e-06
-6.32926e-05
2.67905e-06
-6.11802e-06
6.38206e-05
-4.89119e-05
5.74078e-05
-1.68268e-06
9.58628e-06
9.9358e-05
-0.000100441
-1.70017e-06
-5.79546e-05
6.97503e-05
-1.14938e-05
-6.67476e-05
9.36622e-06
6.59364e-05
-2.17858e-05
6.79938e-05
-6.49541e-05
-3.03969e-06
-6.31638e-05
1.06518e-05
5.2512e-05
6.90757e-05
-3.26252e-05
6.34463e-05
-6.34532e-05
6.32764e-05
-4.67742e-07
-1.97939e-05
-4.58902e-05
6.56688e-05
-3.97022e-05
5.22054e-05
-6.34076e-05
2.48333e-06
6.09185e-05
9.86481e-07
-6.7432e-05
-5.29281e-05
6.28284e-05
-1.1467e-05
-6.11545e-05
6.40654e-05
-2.91089e-06
3.60292e-05
-5.58833e-05
7.44719e-05
-7.44706e-05
-6.40108e-05
5.97988e-07
-6.59122e-05
1.16409e-05
6.18483e-05
-6.17157e-05
-9.83177e-08
6.74271e-05
-6.74271e-05
-1.88049e-06
-6.12962e-05
3.3766e-06
5.01121e-05
-5.31419e-05
5.53842e-07
-5.66336e-05
5.60797e-05
-5.41638e-07
-0.000108844
5.89097e-05
6.54788e-05
-6.54909e-05
6.83931e-05
-2.12392e-05
-4.71539e-05
7.1577e-05
-4.09109e-05
-3.06661e-05
5.44957e-05
-3.99452e-05
-2.67871e-05
0.000107141
-6.65003e-05
6.84124e-05
-2.16377e-06
6.0581e-05
-6.05749e-05
-1.15663e-05
-6.06393e-05
-6.41959e-05
6.35488e-05
8.14968e-07
-5.61323e-05
6.57807e-05
-1.00658e-05
-6.92203e-05
1.30831e-05
5.81995e-05
-6.54944e-05
7.31745e-06
-6.07552e-05
2.35705e-06
5.83981e-05
-0.00011344
6.95837e-05
3.82537e-05
-6.28418e-05
2.4588e-05
6.49674e-05
-7.75613e-06
-5.78087e-05
6.44147e-05
-6.25852e-05
-2.14492e-06
-6.16053e-05
6.7002e-05
-5.39674e-06
2.70481e-07
-6.14894e-05
-4.01679e-05
-2.17461e-05
6.18299e-05
-6.346e-05
1.85473e-06
-6.6643e-05
6.51394e-05
1.62957e-06
-6.40676e-05
3.1965e-06
6.08788e-05
-6.0781e-05
-2.67905e-06
7.53093e-05
-6.84156e-05
-5.37327e-06
-6.30092e-05
2.22825e-06
-6.16776e-05
1.57029e-05
-5.37759e-05
6.58463e-05
-1.2255e-05
-6.78958e-05
1.36001e-05
5.67427e-05
-5.65173e-05
2.07973e-08
5.59415e-05
1.01521e-06
5.89098e-05
-5.96613e-05
7.99555e-07
-6.40125e-05
-3.98298e-08
6.84317e-05
-2.59147e-05
-4.2517e-05
-6.99245e-05
4.60684e-05
2.38546e-05
6.69119e-05
-1.73881e-06
3.83053e-05
2.44721e-05
-6.27774e-05
-5.29229e-05
6.58213e-05
-1.25399e-05
-6.6105e-05
1.31635e-05
5.2293e-06
6.20947e-05
7.19222e-05
-7.19222e-05
8.37361e-07
6.75419e-05
5.46569e-05
4.27205e-06
5.7986e-05
-5.74321e-05
-4.37766e-05
4.5611e-05
2.40471e-05
7.3764e-05
-7.3764e-05
6.14765e-05
-6.31766e-05
1.70017e-06
3.73779e-05
-6.19402e-05
2.45623e-05
-4.50263e-05
-2.49069e-05
7.81819e-06
6.05749e-05
-6.05878e-05
6.28289e-05
-2.24113e-06
-6.33698e-06
5.37613e-05
-4.74243e-05
-6.15409e-05
6.50056e-05
-3.46473e-06
6.17367e-05
1.13962e-06
-1.71696e-06
6.27465e-05
-6.43291e-05
1.57294e-06
6.14272e-05
7.50697e-06
7.18238e-05
-6.99246e-05
5.5805e-05
-5.46733e-05
-9.38897e-07
5.90509e-05
-5.97251e-05
5.68783e-05
-1.06258e-06
3.62058e-05
2.68034e-05
-6.30092e-05
6.45291e-05
-6.38464e-05
-6.82643e-07
6.70895e-05
-6.69946e-05
-1.12186e-07
-6.18629e-05
9.26076e-06
5.26021e-05
-4.25816e-05
4.63039e-05
-5.91428e-06
-4.98489e-05
6.11913e-05
3.67339e-05
2.54252e-05
-6.21591e-05
6.70535e-05
-2.18961e-06
-6.41453e-05
-7.56351e-06
6.47867e-05
-6.46192e-05
-1.67441e-07
-6.30043e-05
-3.08392e-06
5.75609e-05
-5.15073e-05
-2.83361e-06
-5.05413e-05
5.33749e-05
6.10879e-05
-5.59509e-07
-2.99613e-06
-4.46732e-05
-5.71359e-05
1.0948e-06
5.60411e-05
6.48382e-05
-6.48382e-05
5.81405e-05
-1.98353e-06
-5.6157e-05
6.29963e-05
-2.92377e-06
-6.00726e-05
2.90498e-05
3.7202e-05
-4.31134e-05
-2.10769e-05
6.41903e-05
-4.55954e-06
-5.86042e-05
1.61639e-05
-5.63798e-05
-2.48585e-06
-5.08762e-05
5.3362e-05
-5.64533e-05
-1.71878e-06
5.83066e-05
6.29963e-05
6.11416e-05
-5.53842e-07
6.06472e-05
-6.79662e-05
7.28693e-06
1.42536e-05
5.24703e-05
5.60554e-05
-5.65587e-05
4.394e-07
6.34863e-05
5.44197e-08
5.72754e-05
-1.4326e-06
6.58971e-05
-5.25849e-06
6.38079e-05
-6.64e-05
2.65665e-06
-6.31849e-05
7.14599e-07
-5.34799e-05
5.39738e-05
-2.04598e-06
-4.66258e-06
-5.85785e-05
3.54459e-05
2.76792e-05
-6.31251e-05
-1.39105e-06
-5.54357e-05
5.68268e-05
-5.72255e-05
2.71708e-06
6.17212e-05
-2.44721e-07
-6.20055e-05
6.21747e-05
-9.66772e-08
1.13344e-06
-3.95588e-05
6.2699e-05
-2.3261e-05
-2.4235e-06
6.2599e-05
-5.82977e-05
4.35936e-05
2.22895e-05
5.62699e-05
-5.64129e-05
1.14105e-07
5.72699e-05
-8.88286e-07
-4.09714e-05
-2.02861e-05
6.12575e-05
6.49026e-05
-8.87435e-06
-5.60282e-05
-6.49541e-05
6.51988e-05
-2.44721e-07
6.17294e-05
7.06045e-06
6.17011e-05
-6.33159e-05
1.58241e-06
4.5531e-05
-5.1868e-05
3.84026e-06
-3.03969e-06
-5.0464e-05
5.35037e-05
-2.18961e-06
-6.38593e-05
-6.03938e-05
6.5648e-05
-5.29504e-06
6.44769e-05
-3.55458e-07
-2.25014e-05
6.07552e-05
6.32106e-05
-6.10613e-05
-2.25769e-06
-3.26232e-05
-2.98819e-05
5.90722e-05
-1.10242e-05
6.21845e-05
-5.01501e-05
1.02654e-05
-6.6358e-05
5.60926e-05
4.80949e-05
-4.93694e-05
-3.51331e-05
6.90902e-05
-3.4005e-05
3.61672e-05
2.24886e-05
-5.86557e-05
-5.25506e-05
-8.20459e-06
6.30994e-05
1.80321e-06
-3.37586e-05
-3.83053e-05
-3.57576e-05
-2.91267e-05
6.49937e-05
4.79436e-06
6.01753e-05
5.21127e-05
2.53866e-05
7.05183e-05
-6.02529e-05
6.47863e-05
-6.47365e-05
5.94731e-05
-5.81031e-05
-1.37095e-06
6.44904e-05
-6.44904e-05
5.88234e-05
6.04834e-07
-3.70042e-05
-2.18755e-05
5.89747e-05
-5.91031e-05
-7.25085e-06
6.47971e-05
9.6764e-06
-5.91348e-05
7.3718e-08
-6.03575e-05
-1.38428e-06
6.23119e-05
-3.69394e-07
-6.83409e-05
6.84089e-05
6.59902e-06
-6.4925e-05
6.50762e-05
-1.33953e-06
-6.37305e-05
6.10489e-05
-6.06684e-05
-4.09805e-07
6.06393e-05
-6.15538e-05
9.14484e-07
5.95692e-05
-1.36247e-06
5.87558e-05
2.25583e-06
6.353e-05
-6.3233e-05
-6.72596e-05
2.62882e-05
-6.01241e-05
6.17856e-05
-1.66153e-06
5.39803e-05
-5.53713e-05
9.07413e-05
-6.68015e-05
-1.3418e-05
6.59072e-05
-6.59072e-05
6.83907e-05
-6.7919e-05
-8.98775e-07
-5.83724e-05
-2.5963e-06
2.8866e-05
3.77954e-05
-1.03975e-06
9.13924e-06
5.67504e-05
6.34214e-05
-6.34214e-05
1.98814e-05
4.06729e-05
-6.22619e-05
2.9856e-05
3.85758e-05
6.44323e-05
-6.2488e-05
-1.83467e-06
-6.06779e-05
6.1953e-05
-1.27512e-06
-6.27179e-05
6.27571e-05
9.53124e-07
5.22544e-05
-5.32075e-05
3.40549e-05
2.96756e-05
-6.37305e-05
-3.59981e-05
6.19249e-05
-2.37794e-05
4.14649e-05
1.90562e-05
6.30761e-05
1.38919e-06
6.48253e-05
-6.48253e-05
-3.7915e-05
-2.07276e-05
5.8745e-05
6.95523e-06
5.71488e-05
-2.09172e-05
5.82951e-05
6.32797e-05
-6.32797e-05
7.76022e-05
-5.34386e-05
-2.41418e-05
1.31795e-06
-6.48106e-05
-6.12318e-05
5.1649e-05
9.58276e-06
6.88696e-05
-6.92303e-05
3.60641e-07
8.1596e-06
5.73518e-05
-9.77874e-08
4.96292e-05
-5.721e-05
3.6399e-05
2.10074e-05
-5.74064e-05
7.00007e-05
-6.22254e-05
3.39338e-05
3.20005e-05
-6.59343e-05
-6.31638e-05
-3.19425e-06
6.5145e-05
-6.01929e-05
6.4703e-05
-6.48146e-05
-1.83656e-08
-6.15049e-05
6.10321e-05
3.36186e-07
4.60848e-05
-6.57011e-05
6.16568e-05
4.04434e-06
6.61566e-05
-9.59031e-06
-5.66038e-05
-6.35128e-05
2.03994e-05
2.11757e-05
-6.07929e-05
-3.9291e-05
-3.12491e-05
6.27462e-05
-6.62533e-05
3.45031e-06
-1.93201e-07
-5.1327e-05
5.15202e-05
3.81765e-05
-6.05362e-05
2.23598e-05
-5.94482e-05
-9.59374e-06
4.18473e-05
-4.46809e-05
6.38532e-05
6.52012e-07
-5.94666e-05
5.78082e-07
1.48921e-06
-6.05701e-05
2.80785e-06
-6.39623e-05
-2.83361e-06
6.44775e-05
5.85182e-05
2.52405e-06
3.32048e-05
2.47426e-05
-5.79473e-05
-5.98536e-05
6.25326e-05
-2.67905e-06
-6.97259e-05
2.89891e-05
4.08874e-05
5.15202e-07
2.67877e-05
-5.02895e-05
-2.34417e-06
-6.3357e-05
-6.4498e-05
9.43042e-07
4.68325e-05
3.07691e-05
6.12704e-05
-6.12704e-05
6.20046e-05
-6.185e-05
-1.54561e-07
-6.03668e-05
6.04687e-05
6.46361e-05
1.94405e-08
-1.57878e-07
9.11936e-06
5.8905e-05
2.21537e-06
5.97892e-05
6.2494e-05
2.33486e-06
6.32056e-05
6.69119e-05
6.86124e-05
-5.97463e-05
3.42481e-05
2.65973e-05
-6.08454e-05
4.75918e-05
-5.00776e-05
6.38898e-05
-7.85151e-08
-3.27153e-06
5.41606e-05
-5.08891e-05
-6.4645e-05
4.48318e-06
-3.65793e-06
5.44826e-05
-5.08247e-05
-6.69942e-05
3.13452e-06
6.3539e-05
1.45744e-06
-4.6497e-06
5.36325e-05
-4.89828e-05
6.43256e-05
-6.53199e-05
1.01851e-06
-5.38901e-05
4.92404e-05
6.14078e-05
-6.07347e-05
-6.61752e-07
7.38413e-05
-5.22801e-05
-2.15612e-05
-6.79643e-05
8.3018e-05
-1.63194e-05
4.34315e-05
3.04098e-05
-5.85424e-05
-2.2819e-06
-3.8514e-05
6.13733e-05
-2.30418e-05
1.12408e-05
3.17004e-07
2.59053e-05
-4.18826e-05
-9.42552e-05
5.42173e-05
4.34741e-05
6.26737e-05
-6.02109e-05
-2.39149e-06
-6.925e-05
6.93322e-05
-6.48382e-05
4.16026e-06
-9.02787e-06
-5.78054e-05
-5.98856e-05
-1.60644e-06
-5.4817e-05
-3.8409e-07
5.62961e-05
-5.1649e-06
-4.1023e-05
4.61879e-05
-3.4316e-05
6.06413e-05
-2.61797e-05
-3.85899e-05
7.21102e-05
-3.35203e-05
6.70535e-05
-1.32917e-09
5.98693e-05
-5.98142e-05
-6.43874e-05
1.76457e-06
6.26228e-05
-3.01393e-06
-5.2074e-05
5.5088e-05
1.37732e-06
-6.39704e-05
-2.33224e-06
5.62243e-05
-7.46812e-06
-5.55586e-05
3.39867e-05
6.41695e-05
-3.11765e-07
-6.38418e-05
1.95347e-05
-5.51876e-05
-4.2633e-06
-5.87459e-05
-5.88735e-05
-9.43238e-06
6.81097e-05
-6.81097e-05
-6.01289e-05
1.23343e-06
3.62831e-05
-5.9699e-05
2.34159e-05
4.17571e-05
-4.6922e-05
-8.71979e-06
-5.62343e-05
6.36855e-05
-6.14325e-05
-2.17803e-06
6.07681e-05
5.53842e-07
-6.13219e-05
-6.80839e-05
5.93642e-05
-4.48871e-06
3.48562e-05
-3.07466e-05
-6.06779e-05
6.1309e-06
5.4547e-05
2.31471e-05
-5.99891e-05
6.22676e-05
-6.33435e-05
1.12407e-06
-5.14113e-05
5.29962e-05
-5.37522e-06
4.69053e-05
-6.79822e-05
6.42972e-05
-6.42972e-05
-3.9413e-06
5.43667e-05
-5.04254e-05
5.94543e-05
-6.02142e-05
7.59923e-07
-6.71507e-05
3.66061e-06
6.07195e-05
6.18277e-05
-6.17804e-05
-5.74186e-08
-4.57139e-05
-3.01295e-05
6.44003e-08
-5.58479e-05
5.57835e-05
-6.55083e-05
-9.56286e-05
-8.25917e-06
7.97024e-05
1.12154e-06
-3.44696e-05
-2.73441e-05
6.16648e-05
1.81609e-05
2.88379e-06
6.1541e-05
-8.03242e-05
-3.17079e-05
-3.77999e-05
-6.94322e-05
2.72134e-05
4.22751e-05
-6.21205e-05
6.21205e-05
4.37922e-07
5.90164e-05
1.30089e-06
-6.28418e-05
-5.98185e-05
3.91038e-06
5.68729e-05
-7.42066e-06
-5.6037e-05
7.9952e-06
-6.4438e-05
-4.287e-05
6.25294e-05
2.31483e-06
6.18627e-05
4.97814e-05
2.07369e-05
4.81199e-05
-5.11596e-05
-2.26946e-05
5.94286e-05
-6.23652e-05
6.23652e-05
-8.00277e-18
1.35805e-06
-3.62279e-05
2.82578e-05
4.62394e-06
6.23781e-05
7.30685e-05
-1.77358e-05
-5.53327e-05
-6.52474e-05
6.52889e-05
-2.13274e-06
-6.52755e-05
4.74243e-05
2.56442e-05
-5.79232e-05
-8.31049e-06
-3.87116e-05
-2.24016e-05
6.38562e-05
-5.89435e-05
6.72612e-07
-6.08551e-05
6.00061e-05
7.76178e-07
-4.5853e-06
-5.98021e-05
5.57577e-05
-5.56933e-05
-6.62679e-05
3.90266e-06
-6.75945e-05
1.32665e-06
5.83672e-05
-5.86574e-05
-4.23633e-06
6.13219e-05
6.16345e-05
-6.52942e-05
3.77663e-06
-2.97308e-06
5.37715e-05
-4.86331e-05
-6.91873e-06
-5.81324e-05
-5.5637e-05
-5.33102e-06
-5.69529e-05
-4.49827e-06
6.27645e-05
-3.34881e-06
-6.40782e-05
-3.8035e-05
-1.90088e-05
5.6895e-05
-4.27904e-05
6.26249e-05
1.41681e-07
-5.72776e-05
-6.19005e-05
-2.35705e-05
5.97377e-05
-1.87296e-05
-4.52878e-05
5.9852e-05
-5.96492e-05
-1.06174e-07
1.8509e-06
-6.6031e-05
6.42482e-05
-1.61613e-05
-5.8308e-05
-4.89265e-05
5.08643e-05
-1.906e-06
-3.70945e-06
6.51859e-05
-6.14765e-05
-1.60899e-06
-5.89106e-05
3.12298e-05
-7.05122e-05
3.92866e-05
-5.81831e-05
9.38009e-06
5.95186e-05
-2.08296e-05
1.82226e-06
-6.67902e-05
6.54884e-05
1.36086e-06
5.81653e-05
-3.96523e-06
-6.15415e-05
-2.1046e-05
5.93513e-05
-6.63788e-05
6.64323e-05
4.45609e-05
-5.79609e-05
-6.33501e-05
2.49229e-05
3.75067e-05
-6.24296e-05
1.87276e-05
4.22466e-05
-6.09742e-05
5.95702e-05
-4.85576e-05
5.89495e-05
-1.04114e-05
-5.44184e-05
5.75859e-06
3.7919e-06
6.0406e-05
7.38715e-05
-7.14667e-05
-4.49643e-06
6.12688e-05
1.80103e-06
7.69087e-06
8.51786e-05
8.3078e-06
6.11918e-05
2.88565e-05
-3.52694e-05
-4.85707e-05
5.07732e-05
-2.20249e-06
-4.68447e-05
-1.72593e-06
5.68266e-05
-5.72878e-05
3.92979e-07
3.62139e-07
1.0122e-06
5.88515e-05
1.76448e-05
-5.63072e-05
5.21617e-05
-2.1062e-05
-5.84802e-05
2.85589e-06
4.88283e-05
-4.69607e-05
-1.86761e-06
5.10308e-05
-2.20249e-06
6.15548e-05
-4.12804e-06
-5.64458e-05
-1.86374e-05
5.68139e-05
-6.41626e-05
4.39311e-06
3.19812e-05
-5.09277e-05
1.89466e-05
5.13785e-05
-1.93974e-05
2.2251e-05
-6.01263e-05
-2.44463e-05
6.06522e-05
-5.40962e-07
5.86815e-05
6.07681e-05
-6.23147e-05
6.30579e-05
-6.94033e-07
6.36661e-05
-6.36661e-05
-3.78673e-06
-5.80761e-05
-5.1231e-07
-6.13477e-05
5.28468e-05
8.50083e-06
-3.87326e-05
-2.32752e-05
6.20693e-05
-2.82073e-06
5.38901e-05
-5.10694e-05
-7.45699e-05
3.47733e-05
3.9762e-05
6.51907e-05
-1.3994e-06
5.17649e-05
-4.57242e-05
-6.04074e-06
4.92662e-05
2.49873e-06
-5.68525e-05
5.40318e-05
-7.34036e-05
4.23198e-05
3.11372e-05
-3.75196e-05
6.95008e-05
-3.19812e-05
-3.62101e-05
-2.30092e-05
5.88197e-05
-5.25331e-06
-6.27486e-05
2.67285e-05
-3.41399e-07
-2.73474e-05
5.70676e-05
-5.72802e-05
2.99154e-07
-5.34522e-06
5.64533e-05
-5.1108e-05
6.62422e-05
-1.48016e-05
-5.1145e-05
2.68966e-06
5.59471e-05
3.58931e-06
6.07166e-05
-6.42574e-05
6.60307e-05
-1.76872e-06
5.1546e-05
-5.68912e-05
-2.27977e-06
4.51446e-05
-4.28648e-05
-1.87638e-06
3.66159e-05
-7.38368e-05
-6.5611e-05
5.67366e-05
-5.51443e-05
5.40201e-05
-6.20649e-05
6.1895e-05
-6.68461e-05
5.01033e-06
6.50314e-05
-5.51765e-05
-3.25388e-06
3.61414e-05
2.13551e-05
-5.74965e-05
-7.89547e-06
-6.01885e-05
5.24476e-05
-4.65227e-05
-5.92482e-06
4.94336e-05
3.01393e-06
6.33676e-05
-1.4e-06
-3.64335e-05
6.36549e-05
-2.35706e-05
-4.38249e-05
-2.6368e-05
5.28597e-05
-5.19066e-05
2.87225e-06
6.44904e-05
4.95109e-05
5.55425e-05
9.65116e-06
4.338e-05
-4.56598e-05
3.31017e-05
2.55283e-05
-5.863e-05
-6.23008e-05
6.35082e-05
-6.4637e-05
1.12955e-06
-3.78888e-06
-5.90262e-05
-1.9363e-06
-4.24186e-05
5.60457e-05
-1.37021e-05
3.6618e-05
-5.11982e-05
1.45802e-05
5.43409e-05
-1.77229e-05
-3.57989e-05
-3.75169e-05
-7.72803e-07
-6.48382e-05
-2.51213e-06
6.47988e-05
5.2937e-05
-4.68576e-05
-6.07938e-06
4.97814e-05
3.15561e-06
-6.3035e-05
6.3035e-05
5.66336e-05
-2.44721e-07
-5.63889e-05
6.41427e-05
-4.15124e-05
4.35045e-06
5.88744e-05
6.0356e-05
-5.31946e-05
7.85802e-05
-2.18193e-05
-5.67598e-05
6.22785e-05
-5.93128e-05
-2.88058e-06
-2.34675e-05
5.98665e-05
-5.52265e-05
1.23332e-05
6.54063e-05
-6.11622e-05
-4.44109e-06
4.94257e-06
6.34947e-05
-4.45695e-05
-2.09225e-05
-3.68362e-05
-2.3138e-05
6.06248e-05
4.95624e-05
-4.7888e-05
-1.67441e-06
5.16104e-05
-2.04793e-06
-1.70317e-06
1.0942e-06
-6.21029e-05
6.11667e-05
5.78057e-05
1.58425e-06
-5.93899e-05
-5.28468e-05
1.28801e-08
-2.86386e-06
4.72303e-05
-4.42233e-05
6.59364e-05
-4.69873e-05
5.75706e-05
-1.05679e-05
-2.8702e-07
6.34989e-05
-5.378e-05
6.76336e-06
3.65665e-05
-5.09792e-05
1.44128e-05
5.43796e-05
-1.78131e-05
8.01139e-06
6.57527e-05
-1.03427e-05
-6.34214e-05
-7.77814e-07
6.42068e-05
5.23059e-05
-4.66902e-05
-5.6157e-06
6.7324e-05
5.03739e-05
1.93201e-06
4.27102e-05
-4.66515e-05
6.25526e-05
-6.65235e-05
3.989e-06
1.30089e-06
-5.66465e-05
5.53456e-05
1.0603e-05
6.0317e-05
-6.35268e-05
6.3801e-05
-6.18206e-05
-7.37979e-05
3.54157e-05
3.78063e-05
6.69737e-05
7.05635e-07
-6.3349e-05
3.0925e-05
-4.96784e-05
1.87534e-05
5.07216e-05
-1.97966e-05
6.59511e-05
-3.38651e-06
6.04003e-05
-6.1451e-05
1.08175e-06
1.10897e-05
5.34393e-05
-5.86171e-05
-3.55511e-05
5.99833e-05
-2.35815e-05
6.50896e-05
9.13299e-07
8.03715e-05
-5.08633e-05
2.78209e-06
6.41169e-05
-6.20818e-05
-6.22106e-06
6.64482e-05
-6.02271e-05
-3.78673e-06
-5.7767e-05
2.92094e-05
4.23676e-05
4.88782e-05
2.97031e-05
6.41389e-05
1.00908e-06
5.80761e-05
8.65396e-06
5.74344e-05
1.82696e-05
-5.36961e-05
6.3885e-06
5.83981e-05
-5.6801e-05
3.52656e-05
-6.12189e-05
2.59533e-05
2.46223e-05
-6.03829e-05
-6.17356e-05
1.01476e-06
6.08149e-05
-1.27696e-05
-5.65403e-05
-1.91282e-06
6.4663e-05
-6.44375e-05
6.32557e-05
1.84617e-05
-5.71966e-05
6.27667e-05
-6.43744e-05
5.59767e-05
1.82897e-06
-3.4883e-05
-2.49383e-05
5.9901e-05
6.37003e-05
-6.3364e-05
-3.85959e-07
6.26536e-05
-5.8402e-05
-3.8446e-06
-6.56201e-05
6.5212e-05
-3.61929e-06
-5.03352e-05
5.39545e-05
5.83853e-05
6.80067e-06
6.48533e-05
-6.38832e-05
-8.89683e-07
3.63346e-05
-5.06186e-05
1.4284e-05
5.44826e-05
-1.8148e-05
-3.74681e-05
7.07501e-05
-3.3282e-05
-5.64477e-05
5.61631e-05
-7.43179e-06
6.57398e-05
-5.8308e-05
6.99387e-06
5.49592e-05
-2.12521e-06
-5.91066e-05
-4.3607e-05
-2.4174e-05
5.1868e-05
-4.75531e-05
-4.31482e-06
7.12911e-05
-2.90445e-05
2.4298e-06
6.24811e-05
-3.61956e-05
1.30935e-05
2.02987e-05
-6.18823e-05
6.17702e-05
-6.48104e-05
5.7773e-05
-6.60019e-05
6.60046e-05
1.73881e-06
5.01292e-05
-4.5034e-05
5.58135e-05
-1.06318e-05
-6.35603e-05
5.46629e-05
-5.31182e-05
8.10755e-06
6.06908e-05
-2.52449e-05
3.62702e-05
-5.03996e-05
1.41294e-05
5.45213e-05
-1.8251e-05
2.00043e-05
-5.56733e-05
-6.42972e-05
6.83931e-06
5.74579e-05
-2.64075e-07
6.51131e-05
-8.90057e-07
5.52228e-05
-5.40277e-05
-6.03559e-05
6.03559e-05
4.79395e-05
-6.86764e-05
2.07369e-05
-3.28441e-05
6.60489e-05
5.84202e-05
3.46594e-07
4.66129e-05
7.43179e-05
-3.55747e-05
-3.87432e-05
3.02166e-05
-4.89442e-05
1.87276e-05
5.01292e-05
-1.99126e-05
-3.79409e-05
6.31109e-05
-2.345e-05
5.5436e-05
-3.86006e-06
-5.35459e-05
5.75891e-05
2.24522e-06
-5.9886e-05
4.08287e-06
5.11713e-05
-6.27915e-05
5.3648e-05
9.14355e-06
3.49671e-08
-5.19836e-05
5.15645e-05
8.69709e-06
4.86665e-05
-5.6491e-05
6.32303e-05
-6.12395e-05
-1.15863e-06
-7.12869e-06
-6.00897e-05
1.79033e-06
-6.16439e-05
-3.57335e-05
-5.00848e-05
-6.34301e-05
4.37099e-06
5.90635e-05
-5.91283e-05
-1.23893e-07
-5.89875e-05
5.946e-05
-3.92179e-06
-5.59251e-05
1.13058e-06
-5.26312e-05
5.14775e-05
-3.62723e-06
-6.01234e-05
6.19563e-05
-6.38356e-05
2.09375e-06
3.1891e-05
3.2316e-05
-6.42071e-05
-4.04625e-06
-6.19035e-05
6.44356e-05
-6.43974e-05
-6.46063e-05
5.71745e-05
5.575e-05
-8.84473e-06
1.89845e-06
-6.42128e-05
6.23791e-05
-6.48031e-05
5.48902e-05
-5.77826e-05
4.27763e-05
-6.06722e-05
6.3769e-05
-6.43424e-05
6.32026e-07
6.1498e-05
5.44394e-05
1.14264e-05
-7.99333e-06
-5.70156e-05
-3.64181e-05
2.62265e-05
6.18299e-05
-5.88879e-05
-2.98074e-06
6.07832e-05
-5.87929e-05
-4.67169e-06
-4.42838e-05
4.54255e-05
5.96244e-05
-1.11908e-06
6.23008e-05
-6.7324e-05
3.88657e-05
-5.74811e-05
1.85817e-05
3.60641e-05
-5.00519e-05
1.39877e-05
5.46501e-05
-1.85859e-05
-8.14352e-07
-6.22248e-05
-5.36803e-05
4.35086e-05
-1.9282e-06
6.42487e-05
-5.69427e-05
5.7342e-05
-3.99282e-07
2.15104e-05
-5.97142e-05
6.57655e-05
-5.87717e-05
-6.44774e-05
3.02783e-06
6.54397e-05
4.3032e-06
5.85621e-05
-7.12188e-05
4.83154e-05
2.279e-05
-4.37924e-05
5.46041e-05
-1.07568e-05
-5.25917e-05
8.96439e-06
6.07423e-05
-6.07938e-05
5.15202e-08
6.37176e-05
-6.57011e-05
3.59869e-05
-4.98458e-05
1.38589e-05
5.46758e-05
-1.8689e-05
-6.51469e-05
9.79017e-07
-5.8097e-05
5.34726e-05
5.55271e-05
-1.66508e-05
8.34985e-06
3.90419e-05
-4.6722e-05
-6.09226e-06
5.40318e-05
2.41385e-05
-3.45814e-05
4.72154e-06
-4.23352e-05
3.49565e-05
-6.07552e-05
2.57987e-05
-6.53221e-05
6.33393e-06
5.90611e-05
4.92147e-05
-5.24862e-05
3.48663e-05
-6.33698e-05
2.85036e-05
4.88669e-05
-5.25248e-05
-2.20893e-05
5.83724e-05
-7.55157e-05
5.77799e-05
-6.11299e-05
-4.26716e-05
3.59225e-05
-4.9717e-05
1.37945e-05
5.47145e-05
-1.8792e-05
6.60747e-05
-3.29729e-05
1.22743e-06
-5.05928e-06
-4.08645e-05
4.59238e-05
-5.863e-05
3.96706e-06
5.46629e-05
6.20818e-05
-7.65075e-06
-5.57706e-05
-6.33946e-05
6.34924e-05
1.14809e-06
-6.30152e-05
6.19105e-05
6.28181e-05
6.04041e-07
-5.50797e-05
5.45302e-05
6.41427e-06
6.00339e-05
-3.64092e-05
5.9971e-05
-2.39727e-05
6.01915e-05
3.49189e-06
6.98743e-05
-3.22001e-05
-3.76741e-05
-5.98678e-05
-1.14872e-05
-3.05098e-05
6.47092e-05
-3.07667e-05
6.11271e-05
-5.99772e-05
1.03904e-06
-6.23367e-05
4.92202e-05
-6.09341e-05
6.38464e-05
-6.34471e-05
-3.99282e-07
3.58581e-05
-4.95753e-05
1.37173e-05
5.47531e-05
-1.8895e-05
-5.87073e-05
5.98021e-05
-1.79205e-06
-6.08637e-05
-1.85497e-06
6.46688e-05
3.77368e-06
2.93599e-05
5.88956e-05
-6.11959e-05
2.30424e-06
-1.75553e-05
-4.90444e-05
6.65966e-05
7.04668e-05
-3.44928e-05
-3.5974e-05
-6.43212e-05
6.35934e-05
7.22925e-07
-6.08969e-05
-2.13809e-06
6.46063e-05
-8.23035e-06
-5.6376e-05
6.10386e-05
-2.67905e-06
-6.21462e-05
-5.74675e-05
2.87187e-06
5.56177e-05
-5.40408e-05
1.21417e-05
3.45575e-05
-5.17438e-05
1.72449e-05
3.00234e-05
-4.75918e-05
1.75684e-05
-1.99512e-05
4.99746e-05
5.0535e-05
-4.12992e-05
-6.02833e-05
-4.55052e-05
4.5312e-05
6.1594e-05
-6.34938e-05
1.93518e-06
4.85835e-05
-6.2275e-05
4.95691e-05
-1.4992e-05
-3.58253e-05
6.75668e-05
-3.14222e-05
-4.13256e-06
-6.25944e-05
3.49049e-06
5.88747e-05
-6.14731e-05
-1.91932e-06
1.00541e-05
5.8085e-05
3.10409e-06
-5.91066e-05
5.60025e-05
3.84354e-05
2.08348e-05
-5.92701e-05
-3.50131e-05
-3.95607e-05
-6.47214e-05
6.41152e-05
6.73388e-07
1.94618e-05
5.1546e-05
5.95352e-05
-5.33211e-05
-6.35956e-06
-3.19296e-05
5.16232e-05
-1.96936e-05
3.30454e-06
5.98214e-05
5.67805e-05
-8.36755e-07
6.20174e-05
3.74809e-06
-8.74376e-07
6.2222e-05
-4.49148e-05
5.34611e-05
-8.61093e-06
5.16605e-05
-5.385e-05
2.16917e-06
9.49578e-06
-5.43646e-05
6.10604e-05
1.79806e-05
-4.99102e-05
5.14811e-05
-2.87281e-06
5.23477e-05
-5.15925e-05
1.1281e-06
6.12191e-05
5.96089e-05
-2.5554e-05
1.19722e-05
5.77432e-05
3.46473e-05
-6.28546e-05
2.82073e-05
2.81256e-06
-6.22604e-05
5.96472e-05
2.1521e-06
2.20957e-05
-6.30066e-05
-6.08969e-05
-6.4232e-05
-6.04445e-05
6.03937e-05
2.46009e-06
6.03688e-05
6.39486e-05
-6.10429e-05
-7.58635e-06
-5.55903e-05
5.49142e-05
1.13225e-05
4.92533e-05
-5.22672e-05
4.05212e-06
5.14702e-05
-5.75393e-05
-5.04435e-07
-6.62678e-05
4.23844e-05
-4.74437e-05
-6.1714e-05
-1.1839e-06
6.78579e-05
-1.07668e-05
-5.6888e-05
5.53437e-05
-3.24791e-05
-2.36232e-05
-1.79375e-06
-5.859e-05
6.27621e-05
5.73588e-05
-4.67181e-05
-1.05568e-05
-5.09329e-06
6.40782e-05
-2.96241e-07
-6.09742e-05
5.32461e-05
-4.82744e-05
-4.9717e-06
-7.14684e-06
-5.84621e-05
5.84702e-05
2.01599e-07
-2.91862e-05
4.65614e-05
-1.73752e-05
-3.74835e-05
6.95136e-05
-3.20301e-05
3.28055e-05
1.56493e-05
-4.84547e-05
5.19581e-05
-1.91526e-05
2.06982e-05
-4.98844e-05
-5.85347e-05
6.05033e-05
-2.73629e-06
4.113e-05
-9.02186e-06
-5.95488e-05
2.53814e-05
4.27729e-05
2.52696e-05
6.33827e-05
-3.86402e-05
1.89339e-06
5.59679e-06
-7.45449e-05
6.66818e-06
-6.42942e-05
5.45152e-05
5.76165e-05
-4.94419e-05
-8.15798e-06
-2.56957e-05
5.99438e-05
5.04275e-05
-4.1655e-05
6.12968e-05
-5.83769e-05
-2.90341e-06
1.23595e-05
-5.83704e-06
3.91425e-05
1.32407e-05
-5.23832e-05
-6.91659e-05
3.74037e-05
3.17622e-05
-3.88827e-06
-5.437e-05
5.82608e-05
-3.47246e-05
-3.44413e-05
-6.28253e-05
6.28698e-05
4.13578e-05
2.32099e-05
-6.45677e-05
-6.17449e-05
6.19615e-05
-3.96024e-06
-6.25188e-05
5.83069e-05
-6.90582e-07
-6.65515e-05
5.0902e-05
2.34417e-06
3.65021e-05
-5.9493e-05
2.29909e-05
-6.1803e-05
1.35294e-06
-6.23359e-05
6.23976e-05
-8.67799e-09
-7.52195e-05
5.34006e-05
-6.2597e-05
-2.00929e-06
7.41891e-06
-5.77155e-05
5.02966e-05
7.49626e-05
-6.5391e-05
-1.86744e-06
6.18947e-05
-5.97017e-05
-5.6895e-05
-5.89649e-06
-2.03644e-06
-6.02907e-05
6.25036e-05
1.92633e-06
3.41193e-05
3.0281e-05
5.96876e-05
5.52548e-07
-5.52957e-06
5.33234e-05
-4.86479e-05
-4.67546e-06
-5.51781e-05
-6.00712e-05
2.43431e-05
6.2666e-05
-6.2622e-05
5.99255e-05
5.12111e-05
2.11233e-06
5.65043e-05
-5.53966e-07
-2.82073e-06
-5.80761e-05
3.361e-05
-8.40993e-06
5.52683e-05
-5.31946e-05
-2.07369e-06
6.06789e-05
-6.26773e-05
5.37098e-05
-4.90601e-05
-4.6497e-06
-2.33258e-05
5.94672e-05
2.83759e-05
-3.19342e-05
5.50493e-05
2.18961e-07
-3.12314e-05
-2.70187e-05
5.84434e-05
5.10436e-05
-4.96655e-05
-1.37817e-06
5.1649e-05
2.06081e-06
5.28984e-05
-1.85473e-06
-4.58744e-08
6.42438e-05
5.64013e-05
5.65506e-07
5.48561e-05
-4.74372e-05
4.44137e-06
5.78683e-05
2.36017e-05
-5.90351e-05
4.30451e-05
-4.66644e-05
5.98536e-05
6.18491e-05
6.38464e-05
-6.57527e-05
-2.60071e-06
-6.08999e-05
2.45262e-05
-6.0343e-05
5.42508e-05
6.55745e-05
5.07115e-05
-2.22019e-05
-6.91401e-05
4.06366e-05
2.85036e-05
-6.5478e-05
6.55448e-05
-2.76289e-09
-2.93665e-06
-6.19015e-05
-3.78673e-05
-3.12728e-05
4.91803e-05
1.83115e-05
5.84675e-05
-6.08501e-05
2.37537e-06
-6.41866e-05
6.35358e-05
6.00338e-07
-5.77284e-05
-3.61929e-06
1.67841e-05
-4.81551e-05
-6.17548e-05
5.48322e-05
-5.33327e-05
-1.44397e-06
5.56255e-05
-9.8253e-07
5.9171e-05
6.43685e-05
-6.13304e-07
2.08657e-06
5.58994e-05
-6.23781e-05
5.42765e-05
-5.02451e-05
-4.03146e-06
-9.59224e-07
5.19066e-05
-5.31431e-05
1.23648e-06
5.2512e-05
-5.10694e-05
-1.44257e-06
5.22544e-05
-5.30787e-05
8.24323e-07
-3.40997e-07
5.26665e-05
1.61001e-06
5.4122e-05
-1.61001e-06
-2.00929e-06
5.42637e-05
5.43023e-05
-2.39569e-06
-6.33993e-06
5.55407e-05
-5.12729e-05
5.64688e-05
2.38957e-07
5.86171e-05
-1.72593e-05
5.64281e-05
-5.90659e-06
-5.05604e-05
-1.31838e-05
-5.3816e-05
6.38574e-05
-3.2321e-06
-6.06126e-05
-4.6495e-05
6.01453e-05
-1.09728e-06
-5.91327e-05
6.03167e-05
-6.35429e-05
3.16346e-06
5.48827e-05
-5.30043e-05
5.16619e-05
-5.04125e-05
-1.24936e-06
-5.68581e-05
5.76389e-05
-7.75908e-07
-1.57137e-06
5.32332e-05
3.32548e-06
4.69716e-05
-6.1828e-05
-5.98048e-05
5.80817e-05
1.76792e-06
-4.44619e-05
-3.10538e-05
-6.81692e-05
3.56077e-05
3.25185e-05
-5.96906e-05
-6.99613e-05
3.92179e-05
3.06767e-05
-1.04735e-06
-3.5383e-05
-3.85655e-05
2.84757e-05
2.44333e-05
-5.56382e-05
-6.03302e-05
-2.67295e-05
-3.7963e-05
6.0519e-05
-6.00577e-05
-5.72955e-07
-2.97725e-05
5.60673e-05
-4.3921e-06
-5.99051e-05
-5.95187e-05
6.0066e-05
-1.45207e-06
-5.85503e-05
4.42237e-07
1.33122e-06
6.03855e-05
6.09184e-05
-5.23938e-05
-4.578e-06
-6.60051e-05
5.75637e-06
6.31766e-05
3.73521e-07
-6.2494e-05
6.34214e-05
-6.12048e-05
-9.11422e-07
3.59378e-07
6.01544e-05
6.17387e-05
-6.08367e-05
-9.21575e-07
-6.42168e-05
-1.821e-06
6.56233e-05
-5.55567e-05
2.14549e-05
5.98855e-05
-6.08774e-05
1.02808e-06
6.2597e-06
5.94801e-05
8.75843e-07
-5.74193e-05
5.65434e-05
5.72647e-05
-5.63889e-05
2.68807e-05
1.34576e-06
-6.15627e-05
-6.4542e-05
-3.51858e-05
-3.48317e-05
5.6827e-05
2.89964e-06
-6.05452e-05
6.181e-05
-1.43582e-06
5.56805e-05
-5.35939e-05
5.66207e-05
-5.62343e-05
-3.86402e-07
-5.49857e-05
-4.17673e-06
3.92584e-05
-6.82924e-05
5.71359e-05
-2.35705e-06
-5.47789e-05
5.62729e-05
-1.77745e-06
-5.44955e-05
5.16056e-07
5.43292e-05
2.14843e-05
4.76457e-05
7.18945e-06
4.91836e-05
8.4225e-07
6.39347e-05
1.35211e-06
6.2429e-05
6.04416e-05
1.7559e-06
-6.92065e-05
4.1665e-05
2.72405e-05
3.41579e-05
-6.40782e-05
2.99204e-05
-1.0304e-07
5.67366e-05
6.14894e-05
-6.14894e-05
-2.30487e-06
5.11723e-05
-4.89005e-05
-6.29113e-05
2.43214e-05
1.72593e-06
6.00597e-05
-7.6888e-05
6.21437e-05
-6.27731e-05
6.86219e-07
-4.54885e-06
5.64485e-05
-5.2019e-05
6.2055e-05
-6.29819e-05
2.85332e-06
6.36035e-05
5.76125e-05
-6.84575e-05
3.65793e-05
3.18781e-05
-2.1824e-05
6.02593e-05
-6.2264e-05
5.52168e-05
8.33102e-06
5.86944e-05
-3.05257e-06
-5.56418e-05
-3.88591e-05
-2.95984e-05
-2.66646e-06
-5.93792e-05