/*--------------------------------*- C++ -*----------------------------------*\
  =========                 |
  \\      /  F ield         | OpenFOAM: The Open Source CFD Toolbox
   \\    /   O peration     | Website:  https://openfoam.org
    \\  /    A nd           | Version:  12
     \\/     M anipulation  |
\*---------------------------------------------------------------------------*/
FoamFile
{
    format      ascii;
    class       volScalarField;
    location    "1";
    object      rho;
}
// * * * * * * * * * * * * * * * * * * * * * * * * * * * * * * * * * * * * * //

dimensions      [1 -3 0 0 0 0 0];

internalField   nonuniform List<scalar> 
9801
(
1.23257
1.22799
1.22538
1.22551
1.2274
1.23232
1.23626
1.23834
1.2401
1.24058
1.24135
1.24248
1.24592
1.25018
1.25364
1.25505
1.25432
1.25494
1.25614
1.25887
1.26695
1.27225
1.27354
1.27329
1.27255
1.27241
1.27361
1.27527
1.28115
1.289
1.29224
1.29327
1.29273
1.29316
1.29396
1.29501
1.2978
1.3056
1.31086
1.31284
1.31306
1.31348
1.3138
1.3157
1.3182
1.3251
1.33121
1.33339
1.33409
1.33509
1.33624
1.33804
1.34026
1.34435
1.34868
1.35214
1.35614
1.35816
1.36067
1.365
1.36969
1.37109
1.3726
1.37489
1.37692
1.37907
1.38201
1.38584
1.39359
1.40229
1.40639
1.40772
1.4072
1.40795
1.40981
1.41282
1.41748
1.42732
1.43873
1.44437
1.44648
1.44437
1.4448
1.44776
1.45288
1.4611
1.47534
1.4886
1.4959
1.49857
1.49557
1.4965
1.5046
1.51909
1.54829
1.58425
1.62043
1.89173
3.1171
1.23773
1.23309
1.23032
1.23062
1.23238
1.23743
1.24179
1.24408
1.24563
1.24548
1.24627
1.24785
1.25109
1.2549
1.25795
1.2596
1.25906
1.25931
1.26084
1.2644
1.27128
1.2758
1.27811
1.27883
1.27683
1.27653
1.27819
1.28023
1.28535
1.29172
1.29563
1.2981
1.29816
1.29736
1.29818
1.29977
1.30271
1.3082
1.3126
1.31603
1.3177
1.31735
1.31801
1.32069
1.32417
1.32805
1.33203
1.33505
1.33696
1.33782
1.33959
1.34288
1.34666
1.34946
1.35238
1.35429
1.35671
1.35968
1.36195
1.36496
1.3712
1.37619
1.37852
1.37943
1.37943
1.38135
1.38446
1.38774
1.39309
1.4023
1.40815
1.41127
1.4103
1.40903
1.41148
1.41505
1.41936
1.42789
1.43889
1.44523
1.44859
1.4461
1.44458
1.44834
1.45357
1.46141
1.47571
1.48744
1.495
1.50102
1.49918
1.49704
1.50381
1.51633
1.53557
1.55881
1.57929
1.83473
3.08282
1.23973
1.23571
1.23303
1.23321
1.23505
1.24
1.24451
1.24703
1.24846
1.24824
1.2489
1.25054
1.25374
1.25739
1.26013
1.26156
1.26108
1.26151
1.26318
1.26724
1.27366
1.27748
1.27965
1.28023
1.27852
1.2785
1.28036
1.28298
1.28812
1.29349
1.29698
1.29927
1.29911
1.29864
1.2999
1.30225
1.30612
1.31072
1.31418
1.31731
1.31824
1.31781
1.31914
1.32292
1.32761
1.33096
1.33393
1.33675
1.33784
1.33788
1.33967
1.34384
1.34934
1.35301
1.35584
1.35772
1.35886
1.36027
1.36197
1.36415
1.36985
1.37655
1.38021
1.38259
1.38301
1.38401
1.38661
1.38971
1.39364
1.40102
1.40728
1.41091
1.41181
1.4107
1.41247
1.41625
1.42091
1.42866
1.43854
1.44498
1.44899
1.44808
1.44515
1.44791
1.45317
1.46009
1.472
1.48428
1.49343
1.50104
1.50163
1.49687
1.50261
1.51437
1.53003
1.54946
1.56202
1.81558
3.03645
1.24227
1.23924
1.23676
1.23674
1.23828
1.24263
1.24739
1.25018
1.25169
1.25176
1.25224
1.25367
1.25662
1.26034
1.263
1.26424
1.26384
1.26444
1.26613
1.2704
1.27618
1.27956
1.28156
1.28219
1.2812
1.28153
1.28334
1.28636
1.29107
1.29518
1.29825
1.30048
1.30097
1.30158
1.30317
1.30609
1.30997
1.31313
1.31548
1.31763
1.31828
1.31946
1.32175
1.32652
1.33111
1.33406
1.33642
1.33768
1.33705
1.33769
1.34005
1.34538
1.35256
1.35696
1.35979
1.36151
1.36067
1.35947
1.36054
1.36312
1.36881
1.37734
1.38265
1.38592
1.38745
1.38698
1.38749
1.3893
1.39252
1.39884
1.40617
1.41081
1.41402
1.41381
1.41382
1.41674
1.4208
1.42709
1.43671
1.44392
1.44848
1.45036
1.44704
1.44721
1.45209
1.45822
1.46785
1.48019
1.49002
1.49807
1.50314
1.49927
1.49831
1.50741
1.52038
1.53758
1.54677
1.8065
2.99331
1.24418
1.24189
1.23993
1.24005
1.24146
1.24506
1.24959
1.25252
1.25424
1.2549
1.25536
1.25657
1.259
1.26272
1.26543
1.26669
1.26654
1.26723
1.26894
1.27314
1.27814
1.28119
1.28315
1.28395
1.28373
1.28448
1.28634
1.28954
1.2936
1.29664
1.29903
1.30092
1.30224
1.3043
1.30675
1.30992
1.31302
1.31551
1.31712
1.31753
1.31829
1.32065
1.32444
1.32995
1.33401
1.33677
1.3389
1.33887
1.33717
1.33792
1.34043
1.34617
1.35462
1.35971
1.36258
1.36446
1.36293
1.36002
1.36053
1.36325
1.36907
1.37823
1.38458
1.38824
1.39075
1.38958
1.38749
1.38853
1.39169
1.3983
1.40695
1.41222
1.4158
1.41695
1.41535
1.4165
1.41983
1.42462
1.43381
1.44327
1.44899
1.45289
1.45137
1.44853
1.45116
1.4568
1.46445
1.47606
1.48669
1.49525
1.50281
1.5042
1.50027
1.50349
1.51256
1.52683
1.53548
1.79977
2.95502
1.24634
1.24439
1.24268
1.24292
1.24449
1.24802
1.25215
1.25493
1.2567
1.25766
1.25832
1.25955
1.26187
1.26535
1.26784
1.269
1.26909
1.27007
1.27202
1.27606
1.28027
1.28289
1.28466
1.28546
1.28602
1.28754
1.28971
1.29285
1.2962
1.29858
1.30021
1.30112
1.3027
1.3061
1.31041
1.31358
1.316
1.31805
1.31895
1.31841
1.31895
1.32113
1.32587
1.33279
1.33714
1.33959
1.34154
1.34088
1.3387
1.33908
1.34118
1.34584
1.35512
1.36175
1.36514
1.36708
1.36531
1.36184
1.36202
1.36439
1.36948
1.37888
1.3859
1.38987
1.39258
1.39131
1.38793
1.38853
1.39167
1.39815
1.40796
1.4142
1.41796
1.42032
1.41815
1.41693
1.41902
1.42296
1.43023
1.44161
1.44961
1.45462
1.45687
1.45284
1.45204
1.45624
1.46235
1.47198
1.48304
1.49211
1.50014
1.50699
1.50646
1.50406
1.50836
1.5174
1.52541
1.7913
2.91601
1.24875
1.24701
1.24528
1.24549
1.24713
1.25084
1.25489
1.25748
1.25918
1.26013
1.26091
1.26231
1.26489
1.26805
1.27022
1.27113
1.2713
1.27259
1.27509
1.27916
1.28256
1.28482
1.28632
1.2869
1.28774
1.28983
1.29317
1.29631
1.29889
1.30085
1.30205
1.30241
1.30357
1.30661
1.3125
1.31689
1.31903
1.32067
1.32115
1.32054
1.32091
1.3226
1.32603
1.33378
1.33979
1.34278
1.34429
1.34329
1.34111
1.34136
1.34322
1.34635
1.35449
1.3626
1.36671
1.36898
1.36801
1.36439
1.36448
1.36681
1.37087
1.37955
1.38699
1.39111
1.39369
1.39267
1.3896
1.38979
1.39259
1.3977
1.40812
1.41612
1.42056
1.42344
1.42194
1.41872
1.41946
1.42276
1.42799
1.43856
1.4492
1.45549
1.45992
1.45961
1.45566
1.45683
1.46165
1.46867
1.47973
1.48987
1.49805
1.50574
1.51037
1.50871
1.50714
1.51179
1.51651
1.77819
2.87565
1.25123
1.24987
1.24806
1.24813
1.24963
1.25327
1.25753
1.26013
1.26177
1.26267
1.26346
1.26496
1.26791
1.27079
1.27263
1.27321
1.27349
1.27495
1.27802
1.28216
1.28506
1.287
1.28829
1.28865
1.28943
1.2915
1.29577
1.29966
1.30189
1.30351
1.30439
1.30452
1.30542
1.30736
1.31236
1.31871
1.32222
1.3238
1.32409
1.32317
1.32331
1.32484
1.32715
1.33289
1.34073
1.3449
1.3471
1.34687
1.3443
1.34399
1.34565
1.34823
1.35401
1.36252
1.36747
1.3701
1.37048
1.36776
1.36757
1.36981
1.37301
1.37994
1.38768
1.39203
1.39465
1.39456
1.39183
1.39225
1.39511
1.39871
1.40688
1.4171
1.42268
1.42623
1.42653
1.4221
1.42118
1.42382
1.42792
1.43551
1.44707
1.45558
1.461
1.46467
1.46235
1.45918
1.46183
1.46728
1.47581
1.48685
1.49575
1.50336
1.51046
1.51337
1.51085
1.50909
1.50985
1.7632
2.83482
1.25363
1.2529
1.25118
1.25102
1.25224
1.25537
1.25979
1.2627
1.26441
1.26527
1.26599
1.26754
1.27078
1.2735
1.27512
1.27544
1.27575
1.27721
1.28064
1.2851
1.28778
1.28954
1.29063
1.29073
1.29132
1.29303
1.2971
1.3024
1.30515
1.30673
1.30746
1.30714
1.3075
1.30896
1.31169
1.31863
1.32425
1.32703
1.32802
1.3271
1.32637
1.32727
1.32902
1.33213
1.33959
1.34601
1.34906
1.35053
1.34886
1.34742
1.34857
1.35074
1.35444
1.36174
1.36768
1.37084
1.37256
1.37177
1.37118
1.37283
1.37534
1.37974
1.38755
1.39301
1.39617
1.39793
1.39633
1.39558
1.39739
1.40028
1.40505
1.41529
1.42331
1.4275
1.4303
1.42796
1.42466
1.42602
1.42932
1.43404
1.44383
1.45446
1.46136
1.46631
1.46813
1.46467
1.46367
1.46744
1.47333
1.48283
1.49313
1.50107
1.50784
1.51337
1.51472
1.51202
1.50652
1.74675
2.79417
1.2559
1.25583
1.25447
1.25416
1.25515
1.25756
1.26182
1.26499
1.26682
1.26779
1.26856
1.27015
1.27357
1.27623
1.27772
1.27798
1.27815
1.27937
1.28246
1.28762
1.29071
1.29244
1.29346
1.29323
1.29338
1.29474
1.29771
1.30387
1.30834
1.31022
1.31124
1.3106
1.31
1.31092
1.31271
1.31692
1.32467
1.32931
1.33158
1.33206
1.3304
1.32997
1.3312
1.33328
1.33764
1.34531
1.35023
1.35282
1.35386
1.35239
1.35216
1.35363
1.35584
1.36064
1.36741
1.37167
1.37435
1.37563
1.37492
1.37542
1.37723
1.37988
1.38623
1.39405
1.39845
1.40123
1.40151
1.39916
1.39944
1.40178
1.40504
1.41184
1.42198
1.42825
1.43194
1.43379
1.43035
1.42874
1.43128
1.43511
1.4412
1.45154
1.46017
1.46589
1.47035
1.47162
1.46847
1.46886
1.47309
1.47914
1.48855
1.49758
1.50449
1.51046
1.51436
1.51486
1.5092
1.73266
2.75371
1.25808
1.25841
1.25736
1.25731
1.25833
1.26035
1.26409
1.26707
1.26886
1.26997
1.271
1.27295
1.2765
1.27902
1.28049
1.28082
1.28062
1.28153
1.28398
1.28952
1.2936
1.29554
1.29671
1.29636
1.29577
1.29664
1.29858
1.30379
1.31023
1.31356
1.31511
1.31523
1.3136
1.31333
1.31444
1.31654
1.32265
1.33025
1.33414
1.33617
1.33608
1.33415
1.33395
1.33511
1.33722
1.34291
1.35029
1.35447
1.35707
1.35799
1.35664
1.35656
1.35786
1.36046
1.36682
1.37291
1.37638
1.37877
1.37886
1.37792
1.37872
1.38078
1.3848
1.39355
1.40039
1.40404
1.40608
1.40448
1.40271
1.40394
1.40641
1.40977
1.41753
1.42718
1.43283
1.43645
1.43734
1.43425
1.43428
1.43732
1.4411
1.4475
1.45712
1.46485
1.47043
1.47463
1.47522
1.47306
1.47435
1.47856
1.48423
1.49246
1.50033
1.50645
1.51138
1.51438
1.51303
1.72331
2.71309
1.26028
1.26068
1.25976
1.26012
1.26148
1.26373
1.26667
1.26906
1.27073
1.27179
1.27303
1.27599
1.27966
1.28188
1.28332
1.28367
1.28321
1.28385
1.28562
1.29074
1.29608
1.29859
1.30003
1.30017
1.29877
1.29877
1.30007
1.30315
1.31054
1.316
1.31855
1.31985
1.31863
1.31646
1.31644
1.31779
1.3209
1.32903
1.33565
1.33896
1.34082
1.33993
1.33741
1.33713
1.33846
1.34161
1.34917
1.35563
1.35905
1.36138
1.36139
1.35966
1.36004
1.3619
1.36647
1.37402
1.37866
1.38135
1.38251
1.38078
1.38054
1.3823
1.38493
1.39109
1.40044
1.40587
1.40924
1.41074
1.40823
1.40671
1.4077
1.40987
1.41382
1.4232
1.43257
1.43771
1.44148
1.44219
1.43927
1.4393
1.44176
1.44546
1.45216
1.46172
1.46923
1.47462
1.47898
1.48022
1.47844
1.47934
1.48292
1.48788
1.49492
1.50217
1.50768
1.5119
1.51387
1.71784
2.67166
1.26271
1.26297
1.26207
1.2625
1.2642
1.2671
1.26966
1.27149
1.27287
1.27353
1.27473
1.27811
1.28258
1.28486
1.28629
1.28677
1.28606
1.28626
1.28754
1.2914
1.2979
1.30153
1.30326
1.30412
1.30257
1.3013
1.30197
1.30377
1.30941
1.31723
1.32135
1.32333
1.32389
1.32098
1.31906
1.31968
1.32153
1.32701
1.3358
1.34075
1.34348
1.34479
1.34226
1.3399
1.34053
1.3426
1.34821
1.35602
1.36056
1.36325
1.36456
1.36288
1.36224
1.36382
1.36676
1.37411
1.3805
1.38383
1.38586
1.38491
1.38329
1.38416
1.38618
1.38925
1.39753
1.40663
1.41132
1.41453
1.41472
1.41065
1.40929
1.41111
1.41398
1.41923
1.43002
1.43871
1.44338
1.44679
1.44626
1.44267
1.44273
1.44546
1.44946
1.45686
1.46679
1.47442
1.47988
1.48388
1.48489
1.48279
1.4831
1.48635
1.49068
1.49721
1.50422
1.50935
1.51278
1.71326
2.62949
1.26534
1.26557
1.26457
1.26483
1.2666
1.27016
1.27282
1.27438
1.27521
1.27541
1.27642
1.27941
1.28481
1.2879
1.28944
1.29016
1.28923
1.28877
1.28967
1.29206
1.29871
1.30409
1.30641
1.30773
1.30697
1.30453
1.3043
1.30554
1.30873
1.31683
1.32306
1.32608
1.32763
1.32634
1.32273
1.32215
1.32348
1.32669
1.33472
1.3417
1.34515
1.34736
1.34696
1.34369
1.34328
1.34492
1.34858
1.35603
1.36154
1.36464
1.36667
1.36599
1.36458
1.36555
1.36774
1.3729
1.38135
1.38628
1.389
1.38995
1.38735
1.38621
1.38746
1.38976
1.39433
1.40466
1.41249
1.41637
1.41892
1.41672
1.41256
1.41288
1.41553
1.41896
1.42618
1.43725
1.44427
1.44839
1.45073
1.44853
1.44514
1.44633
1.44982
1.4543
1.46269
1.47252
1.47938
1.48444
1.48749
1.48758
1.4857
1.48625
1.48945
1.49363
1.50038
1.5064
1.51016
1.70797
2.58722
1.26774
1.26835
1.26736
1.26733
1.2688
1.27259
1.27577
1.27738
1.27801
1.27765
1.27827
1.28042
1.28623
1.29076
1.29262
1.29363
1.29279
1.29146
1.29189
1.2934
1.29845
1.30577
1.30945
1.31101
1.31131
1.30863
1.30714
1.30784
1.30962
1.3155
1.32376
1.32804
1.33031
1.33086
1.32743
1.32531
1.32608
1.32799
1.33376
1.3418
1.3463
1.34879
1.34991
1.34767
1.3464
1.34764
1.35001
1.35634
1.36275
1.36624
1.36867
1.36912
1.36707
1.36707
1.36882
1.37192
1.38018
1.38796
1.39176
1.39406
1.39262
1.38902
1.38913
1.39145
1.39444
1.40106
1.41088
1.41682
1.42001
1.4215
1.41866
1.41652
1.41825
1.42136
1.42519
1.43321
1.44255
1.44816
1.45173
1.45297
1.45023
1.44896
1.45169
1.45575
1.46072
1.46881
1.47705
1.48278
1.48698
1.48914
1.48954
1.48891
1.49022
1.49354
1.49761
1.50288
1.50677
1.7002
2.54473
1.26977
1.2708
1.27014
1.27013
1.27133
1.27496
1.2785
1.28024
1.28096
1.28024
1.28039
1.28183
1.28678
1.29294
1.29569
1.29694
1.29668
1.29464
1.29432
1.29543
1.29825
1.30592
1.31172
1.31416
1.31513
1.31336
1.31057
1.31048
1.31177
1.31515
1.32327
1.32934
1.3322
1.33379
1.33228
1.32911
1.32901
1.33053
1.33417
1.34169
1.34715
1.35006
1.35183
1.3509
1.34917
1.34992
1.35198
1.3569
1.36434
1.36858
1.37096
1.37206
1.36976
1.36868
1.37014
1.37254
1.37786
1.38735
1.39327
1.39634
1.39767
1.39496
1.39289
1.3942
1.39655
1.39939
1.40586
1.41474
1.42009
1.42327
1.42521
1.42288
1.42181
1.4238
1.42676
1.43043
1.43755
1.4455
1.45053
1.45387
1.4559
1.45501
1.45513
1.458
1.46194
1.46641
1.47238
1.47869
1.48383
1.48803
1.49109
1.49324
1.49414
1.49525
1.49765
1.50047
1.50366
1.69025
2.50166
1.27175
1.27292
1.27237
1.27258
1.27399
1.27767
1.28112
1.28299
1.28399
1.28328
1.28281
1.28381
1.28695
1.2941
1.29851
1.30012
1.30062
1.29857
1.29715
1.29778
1.29935
1.30468
1.31268
1.3167
1.31843
1.31828
1.31503
1.31361
1.31447
1.31634
1.32227
1.3298
1.3337
1.33574
1.33623
1.33342
1.33237
1.33356
1.33582
1.34208
1.34811
1.3514
1.35341
1.35358
1.35171
1.35196
1.35384
1.35722
1.36479
1.37076
1.37366
1.37505
1.37366
1.37151
1.37232
1.37446
1.37704
1.38342
1.39222
1.39715
1.40019
1.40167
1.39911
1.39741
1.39823
1.40017
1.40312
1.41001
1.41908
1.42462
1.42779
1.42928
1.42773
1.42716
1.42862
1.43087
1.43397
1.43982
1.44793
1.45401
1.45804
1.46089
1.46144
1.46188
1.46378
1.46613
1.46894
1.4733
1.47969
1.4862
1.4911
1.49495
1.49809
1.49982
1.49985
1.5
1.49983
1.67878
2.45749
1.27396
1.27504
1.2744
1.27458
1.27609
1.2803
1.28401
1.28592
1.28708
1.28666
1.28557
1.28606
1.28776
1.29383
1.3003
1.30305
1.30418
1.30326
1.30067
1.30035
1.30142
1.30417
1.31191
1.31811
1.32088
1.32219
1.32041
1.31748
1.31747
1.31881
1.3223
1.32962
1.33478
1.33734
1.33876
1.33755
1.33588
1.33657
1.3383
1.34291
1.34943
1.35308
1.3553
1.35626
1.35465
1.35425
1.3557
1.35792
1.36309
1.37107
1.37576
1.37834
1.37901
1.37659
1.37534
1.37616
1.37774
1.38049
1.38819
1.39709
1.40187
1.40475
1.40579
1.40298
1.40107
1.40192
1.40405
1.40713
1.41418
1.4232
1.42849
1.43188
1.43429
1.43327
1.43177
1.43187
1.43347
1.43648
1.44269
1.45188
1.45856
1.46283
1.46626
1.46772
1.46698
1.46666
1.46829
1.47141
1.47583
1.4825
1.48967
1.49479
1.49867
1.50153
1.50312
1.50249
1.4994
1.66468
2.41329
1.27659
1.27739
1.27649
1.27647
1.27775
1.28201
1.2868
1.28899
1.29023
1.29024
1.28865
1.28844
1.28951
1.29325
1.30096
1.30547
1.30732
1.30777
1.30512
1.30335
1.30391
1.30541
1.31058
1.31828
1.32238
1.32441
1.3251
1.32245
1.32105
1.32192
1.32373
1.32937
1.33548
1.33869
1.34054
1.34085
1.33925
1.33928
1.34069
1.34364
1.35047
1.35547
1.35784
1.35922
1.3583
1.3569
1.35743
1.359
1.36152
1.36861
1.37654
1.38065
1.38314
1.38317
1.37968
1.37809
1.37926
1.38137
1.38473
1.39313
1.40154
1.40593
1.4089
1.40996
1.40696
1.40505
1.40575
1.40758
1.41071
1.41864
1.42804
1.43331
1.4366
1.43898
1.43716
1.43409
1.4344
1.43694
1.44049
1.44765
1.45722
1.46322
1.46719
1.4699
1.47085
1.46967
1.46945
1.47161
1.47498
1.47945
1.48665
1.49322
1.49766
1.50117
1.50353
1.50496
1.50266
1.65344
2.37026
1.27956
1.28009
1.27885
1.27847
1.27945
1.28303
1.28887
1.29193
1.29333
1.29381
1.29212
1.29113
1.29186
1.29388
1.3005
1.30681
1.30958
1.31093
1.31006
1.30724
1.30683
1.30784
1.3105
1.31742
1.32314
1.32592
1.32752
1.32722
1.32512
1.32515
1.32642
1.32989
1.33617
1.34009
1.34223
1.34341
1.34247
1.3418
1.34288
1.34483
1.35001
1.35696
1.36071
1.36248
1.36279
1.36051
1.35949
1.36049
1.36235
1.36567
1.37409
1.38152
1.38528
1.3876
1.38684
1.38304
1.38195
1.38304
1.38488
1.38861
1.39796
1.4062
1.41036
1.41335
1.41408
1.40987
1.40761
1.40884
1.41133
1.41533
1.42436
1.43298
1.43764
1.44069
1.44188
1.43873
1.43686
1.43884
1.4421
1.44624
1.4532
1.46086
1.466
1.46964
1.47208
1.47331
1.47325
1.47387
1.47624
1.47959
1.48343
1.48928
1.49501
1.49918
1.50249
1.50523
1.50642
1.64578
2.32829
1.28257
1.28307
1.28167
1.28073
1.28138
1.28382
1.29008
1.29456
1.2963
1.29717
1.296
1.29427
1.29449
1.29569
1.29984
1.30726
1.31144
1.31334
1.3141
1.31192
1.31021
1.31066
1.31199
1.31665
1.32333
1.32708
1.3291
1.33015
1.32901
1.32832
1.32927
1.33129
1.33696
1.34188
1.34428
1.34587
1.3458
1.34462
1.34509
1.34655
1.34905
1.35599
1.3625
1.36576
1.36734
1.36628
1.36328
1.36275
1.3639
1.36564
1.36974
1.37922
1.3861
1.38949
1.39192
1.3906
1.386
1.38471
1.38612
1.38853
1.39369
1.40383
1.41114
1.41476
1.41713
1.41621
1.41168
1.41094
1.41306
1.41594
1.42094
1.42971
1.43671
1.44073
1.44329
1.4438
1.44211
1.4421
1.44437
1.44745
1.45095
1.45627
1.46276
1.4679
1.47176
1.47469
1.47714
1.47843
1.47891
1.48034
1.48287
1.48619
1.49076
1.4962
1.50085
1.50477
1.50752
1.64064
2.2865
1.28544
1.28623
1.28504
1.28337
1.2835
1.28497
1.29017
1.29652
1.29924
1.30036
1.30006
1.29784
1.29725
1.2981
1.30021
1.30686
1.31282
1.31547
1.31684
1.31642
1.31408
1.31372
1.31473
1.31718
1.32327
1.32805
1.33054
1.33203
1.33223
1.33128
1.33173
1.33317
1.33727
1.34367
1.34706
1.34865
1.34931
1.34791
1.34733
1.34814
1.3497
1.35341
1.36177
1.36779
1.3707
1.3719
1.36953
1.36606
1.3656
1.36701
1.3692
1.37478
1.38467
1.39078
1.39377
1.39562
1.39283
1.38846
1.38832
1.3903
1.39327
1.39985
1.40905
1.41474
1.41788
1.41952
1.41774
1.41514
1.41582
1.41824
1.42118
1.4257
1.43287
1.43898
1.44299
1.44573
1.44733
1.44721
1.44729
1.44894
1.45152
1.45469
1.4586
1.4642
1.47014
1.4748
1.47826
1.48097
1.483
1.48338
1.48372
1.48539
1.48823
1.49229
1.49773
1.5032
1.50728
1.63628
2.24433
1.288
1.28947
1.28878
1.28657
1.28583
1.28676
1.28981
1.29722
1.30196
1.30357
1.30406
1.30201
1.30021
1.30053
1.30181
1.30614
1.31355
1.31753
1.31928
1.32004
1.31829
1.31696
1.31754
1.31894
1.32347
1.32918
1.3322
1.334
1.33495
1.33412
1.33397
1.33515
1.33746
1.3438
1.34939
1.3519
1.35296
1.35202
1.35006
1.35015
1.35151
1.3533
1.35806
1.3669
1.37242
1.37519
1.3763
1.37277
1.36911
1.36907
1.37064
1.37337
1.38043
1.38941
1.3943
1.39692
1.39828
1.39516
1.39241
1.39323
1.39538
1.39842
1.40438
1.41212
1.41717
1.42001
1.42173
1.4215
1.42034
1.42094
1.42294
1.42566
1.42932
1.43501
1.4411
1.44582
1.44901
1.45109
1.45206
1.4523
1.45324
1.45511
1.45787
1.46147
1.46684
1.47305
1.47788
1.48151
1.48425
1.48623
1.4867
1.48665
1.48802
1.49064
1.49452
1.5003
1.50504
1.63037
2.20204
1.28978
1.29247
1.29239
1.29056
1.28865
1.28901
1.29057
1.29632
1.30342
1.30664
1.30778
1.30689
1.30396
1.3032
1.30408
1.30637
1.31322
1.31907
1.3216
1.32286
1.32243
1.32042
1.32028
1.32138
1.32416
1.33038
1.33446
1.33634
1.33755
1.33709
1.33634
1.33705
1.33851
1.34211
1.34974
1.35466
1.35679
1.3572
1.35477
1.35305
1.35338
1.35448
1.35652
1.36282
1.37204
1.37698
1.37946
1.38005
1.37571
1.37259
1.37311
1.37485
1.37799
1.38503
1.39295
1.39745
1.39992
1.40113
1.39892
1.39709
1.3978
1.3998
1.4029
1.40798
1.41433
1.41934
1.42279
1.4252
1.42625
1.42577
1.426
1.42739
1.42962
1.43247
1.43704
1.44337
1.44859
1.45209
1.45462
1.45638
1.45691
1.45744
1.45904
1.46145
1.46465
1.46952
1.47562
1.48042
1.48392
1.48665
1.48876
1.48989
1.4901
1.49131
1.49387
1.49766
1.50229
1.62178
2.16015
1.29096
1.29467
1.29519
1.29473
1.29229
1.29163
1.29258
1.29569
1.30315
1.30817
1.31039
1.31133
1.30911
1.30659
1.30671
1.30793
1.31235
1.31974
1.32369
1.32541
1.3261
1.32433
1.32313
1.32382
1.32542
1.33052
1.33653
1.33925
1.34051
1.34057
1.33917
1.33903
1.34006
1.3418
1.34719
1.35533
1.35969
1.36163
1.36105
1.35737
1.35563
1.35642
1.35804
1.36074
1.36803
1.37634
1.38058
1.38291
1.38343
1.37933
1.37675
1.37734
1.37914
1.38253
1.38897
1.39589
1.40031
1.40297
1.40466
1.40354
1.40237
1.40291
1.40449
1.40666
1.4099
1.4157
1.42191
1.42612
1.42893
1.43107
1.43121
1.43077
1.43129
1.43297
1.43542
1.4393
1.44578
1.45145
1.45516
1.45782
1.46013
1.46156
1.46202
1.46298
1.46512
1.46797
1.47188
1.47705
1.48193
1.48571
1.48891
1.49149
1.49347
1.4943
1.49518
1.49759
1.49984
1.61061
2.11849
1.29214
1.29636
1.29735
1.29781
1.29643
1.29479
1.29522
1.29668
1.30215
1.3087
1.31191
1.31358
1.31389
1.31107
1.30973
1.31041
1.31246
1.31914
1.32508
1.32769
1.32902
1.32861
1.32648
1.32623
1.32727
1.32991
1.33692
1.34199
1.34399
1.34464
1.34303
1.34152
1.34193
1.34327
1.34546
1.3522
1.3602
1.36417
1.36614
1.3648
1.36068
1.35944
1.36024
1.36168
1.36458
1.37223
1.38005
1.38406
1.38628
1.3869
1.38357
1.38147
1.38208
1.38376
1.38631
1.3913
1.39828
1.4034
1.40639
1.40876
1.40901
1.40756
1.40683
1.40762
1.40959
1.41255
1.41836
1.42529
1.42986
1.43274
1.4352
1.43597
1.43483
1.43451
1.43606
1.43864
1.44236
1.44845
1.45407
1.45799
1.46093
1.46356
1.46587
1.46694
1.46729
1.46819
1.46995
1.47303
1.47787
1.48359
1.48809
1.49164
1.49474
1.49738
1.49878
1.49946
1.49901
1.59698
2.07709
1.29365
1.29806
1.29939
1.30015
1.30001
1.29832
1.29806
1.29903
1.30214
1.30872
1.31302
1.31519
1.31645
1.3157
1.31325
1.31303
1.31407
1.31807
1.32564
1.32983
1.33161
1.33236
1.33046
1.32885
1.3293
1.33068
1.33514
1.34296
1.34716
1.3487
1.34829
1.34554
1.34443
1.34504
1.34631
1.34895
1.35693
1.36486
1.36852
1.37038
1.36863
1.36423
1.36271
1.36357
1.36534
1.3688
1.37613
1.38334
1.3874
1.38976
1.39086
1.38836
1.38596
1.38588
1.38739
1.3897
1.39397
1.40124
1.4071
1.41049
1.41289
1.41378
1.41203
1.41052
1.41113
1.41293
1.41559
1.42125
1.42855
1.43326
1.43623
1.43851
1.43958
1.43884
1.43862
1.43999
1.44213
1.44505
1.45012
1.45618
1.46079
1.46423
1.46732
1.47016
1.47134
1.4701
1.46982
1.47165
1.47486
1.4796
1.48586
1.49097
1.49478
1.49817
1.50078
1.50222
1.49999
1.58467
2.03636
1.2953
1.3
1.30163
1.30249
1.30286
1.30168
1.30096
1.30174
1.30351
1.3091
1.31429
1.31684
1.31836
1.31903
1.31703
1.31584
1.31656
1.3184
1.32479
1.33128
1.33403
1.33529
1.33488
1.33228
1.33167
1.33259
1.33437
1.34058
1.34833
1.35201
1.35338
1.35179
1.34825
1.34728
1.34818
1.34974
1.35304
1.36154
1.36895
1.37241
1.37426
1.37247
1.36823
1.36683
1.36762
1.36925
1.37228
1.37905
1.38649
1.39103
1.39361
1.39508
1.39304
1.39016
1.38968
1.39094
1.39298
1.39686
1.40456
1.41067
1.41413
1.41662
1.41798
1.41613
1.414
1.41446
1.41649
1.41926
1.42459
1.43137
1.43597
1.43897
1.44146
1.44355
1.4436
1.44266
1.44297
1.44481
1.44769
1.45254
1.45906
1.46409
1.46755
1.47048
1.473
1.47389
1.47215
1.47196
1.47402
1.4771
1.48229
1.48907
1.49386
1.49764
1.50096
1.50298
1.50134
1.57582
1.99653
1.29671
1.3016
1.30426
1.3051
1.3056
1.30482
1.30378
1.30426
1.30553
1.30976
1.31585
1.31892
1.32058
1.32166
1.3207
1.31897
1.31912
1.32012
1.32327
1.33121
1.33626
1.33822
1.33902
1.3369
1.33463
1.33461
1.33558
1.338
1.34588
1.35344
1.35669
1.35786
1.35517
1.35141
1.35073
1.35157
1.35313
1.35673
1.36547
1.37271
1.37608
1.37806
1.37683
1.37258
1.37062
1.37114
1.37285
1.37569
1.38198
1.38981
1.39477
1.3975
1.3993
1.39748
1.39389
1.39301
1.39427
1.39642
1.40042
1.40812
1.41422
1.41768
1.42003
1.42152
1.42008
1.41822
1.41869
1.42048
1.42278
1.42688
1.43339
1.4387
1.44227
1.4449
1.44721
1.44766
1.44613
1.44614
1.44802
1.4507
1.45505
1.46148
1.46655
1.47013
1.47324
1.47582
1.47558
1.47348
1.47455
1.47749
1.48113
1.48652
1.49179
1.49588
1.49963
1.50252
1.50169
1.56842
1.95754
1.29822
1.30207
1.30653
1.30795
1.30856
1.30818
1.30667
1.30655
1.30752
1.3101
1.3169
1.3216
1.32335
1.32446
1.32421
1.32214
1.32143
1.32208
1.32356
1.3292
1.33742
1.34116
1.34245
1.34204
1.33861
1.33701
1.33755
1.33882
1.34206
1.35103
1.35809
1.36105
1.3621
1.35873
1.35472
1.35391
1.35478
1.35654
1.36049
1.36926
1.37643
1.37991
1.38191
1.38098
1.3767
1.37447
1.37488
1.37646
1.37901
1.38499
1.39329
1.3985
1.40127
1.40315
1.4014
1.3975
1.39662
1.39794
1.40012
1.40417
1.41143
1.41722
1.42069
1.42311
1.42504
1.42448
1.42249
1.42219
1.42362
1.42594
1.4296
1.4359
1.4416
1.44541
1.44824
1.45072
1.4511
1.44907
1.44905
1.4511
1.4538
1.45785
1.46419
1.46944
1.47304
1.47588
1.47688
1.47591
1.47602
1.47835
1.48149
1.4854
1.48956
1.49348
1.49716
1.50058
1.50154
1.56198
1.91936
1.30036
1.30196
1.30768
1.31059
1.31152
1.31182
1.31006
1.30894
1.3095
1.31093
1.31619
1.32343
1.32666
1.32766
1.32784
1.32559
1.32399
1.32434
1.32546
1.3277
1.33541
1.34274
1.34571
1.34659
1.34455
1.34085
1.33996
1.34061
1.34197
1.34604
1.35576
1.36243
1.36521
1.36618
1.36239
1.35822
1.35739
1.35827
1.36012
1.36409
1.37267
1.37979
1.38331
1.38549
1.38524
1.38089
1.37814
1.3784
1.37997
1.38253
1.38847
1.3968
1.4019
1.40457
1.40648
1.40508
1.40135
1.40049
1.40184
1.40395
1.40747
1.41396
1.41998
1.42387
1.42648
1.42866
1.42866
1.42642
1.4258
1.42712
1.42919
1.43239
1.43857
1.44471
1.44874
1.4516
1.45365
1.45337
1.45138
1.452
1.45436
1.45727
1.46146
1.46705
1.47151
1.47478
1.47707
1.47761
1.4781
1.47961
1.48208
1.48506
1.48825
1.49163
1.49462
1.49789
1.50081
1.55564
1.88175
1.30288
1.30284
1.30753
1.31241
1.31426
1.31515
1.31425
1.31198
1.31169
1.31259
1.31492
1.32263
1.32902
1.33135
1.33198
1.33047
1.32757
1.32681
1.32731
1.32835
1.33175
1.34118
1.34771
1.35025
1.35071
1.3471
1.34333
1.34274
1.34359
1.34526
1.35026
1.36026
1.3665
1.36914
1.37011
1.36627
1.36189
1.36091
1.36171
1.36351
1.36734
1.37595
1.3834
1.38712
1.38922
1.38911
1.38464
1.38175
1.38203
1.38359
1.38619
1.39203
1.40007
1.40504
1.40771
1.40961
1.40883
1.40552
1.40441
1.4055
1.40755
1.41067
1.41653
1.42286
1.42711
1.42986
1.43211
1.43236
1.42971
1.4288
1.43027
1.43261
1.436
1.442
1.44775
1.45156
1.45429
1.45545
1.4547
1.45422
1.45582
1.45833
1.46122
1.46471
1.46895
1.4727
1.47586
1.47814
1.47947
1.48101
1.48281
1.485
1.48748
1.49012
1.49287
1.49639
1.50003
1.54791
1.84439
1.30574
1.30483
1.30698
1.31323
1.31678
1.31809
1.31853
1.31611
1.31432
1.31452
1.31554
1.31946
1.32874
1.33429
1.33615
1.33617
1.33272
1.32957
1.32919
1.33008
1.33153
1.33662
1.3468
1.35248
1.35471
1.35446
1.3497
1.34614
1.34585
1.34674
1.34868
1.35438
1.36439
1.37032
1.37291
1.37391
1.37017
1.36549
1.36429
1.3652
1.36711
1.37093
1.3793
1.38668
1.39037
1.39249
1.39277
1.38845
1.38547
1.38571
1.38725
1.38996
1.39557
1.40306
1.40794
1.4107
1.41271
1.41267
1.40968
1.4083
1.40921
1.41108
1.4138
1.41926
1.42592
1.43038
1.43316
1.43521
1.43506
1.43249
1.43234
1.4342
1.43663
1.43995
1.44501
1.44994
1.45343
1.45577
1.45677
1.45722
1.4579
1.45966
1.462
1.46464
1.46732
1.47032
1.4737
1.47714
1.4797
1.48145
1.48321
1.48496
1.48673
1.48879
1.49181
1.49578
1.49927
1.5393
1.8078
1.30875
1.30723
1.30761
1.31257
1.31865
1.32111
1.32211
1.32107
1.31778
1.31678
1.31741
1.31888
1.32477
1.33444
1.33919
1.34077
1.33974
1.33494
1.33219
1.33217
1.33312
1.33496
1.34158
1.35173
1.35669
1.35884
1.35814
1.35275
1.34928
1.34902
1.34995
1.35215
1.35832
1.36816
1.37387
1.37642
1.37768
1.37417
1.36932
1.36802
1.36883
1.37059
1.37425
1.38259
1.39002
1.39374
1.39579
1.39621
1.39219
1.3893
1.38954
1.39104
1.39369
1.39874
1.40576
1.41079
1.41375
1.41584
1.41637
1.41356
1.41185
1.41267
1.41457
1.41735
1.4226
1.42904
1.43328
1.43596
1.43765
1.43716
1.43568
1.43631
1.43819
1.44059
1.44361
1.44729
1.45131
1.45483
1.45749
1.45893
1.4602
1.46147
1.46321
1.4652
1.46723
1.46937
1.47201
1.47515
1.47841
1.48109
1.48306
1.4848
1.48653
1.48855
1.49097
1.4944
1.49766
1.53129
1.77238
1.31175
1.30969
1.3095
1.31144
1.31867
1.32377
1.32548
1.32588
1.32289
1.31994
1.31963
1.32035
1.32229
1.3299
1.33943
1.34362
1.34523
1.34335
1.33769
1.33508
1.33514
1.33603
1.33835
1.34638
1.35631
1.36078
1.36278
1.36174
1.356
1.3525
1.3523
1.35334
1.35573
1.36211
1.37176
1.37733
1.37983
1.3812
1.37804
1.37298
1.37146
1.37236
1.37426
1.37803
1.38601
1.39305
1.39665
1.3987
1.39949
1.39609
1.39326
1.39335
1.39479
1.39735
1.40178
1.40842
1.41366
1.41682
1.41897
1.41971
1.41698
1.41538
1.41634
1.41826
1.42113
1.42606
1.4318
1.43569
1.43819
1.43951
1.43961
1.43958
1.44063
1.44228
1.44429
1.44656
1.44922
1.4528
1.45659
1.45942
1.46134
1.46297
1.4644
1.46585
1.46748
1.46939
1.47142
1.47376
1.47658
1.47967
1.48241
1.48435
1.48612
1.48809
1.49018
1.49297
1.49568
1.52345
1.73787
1.31472
1.31231
1.31161
1.31201
1.31623
1.32458
1.32879
1.33009
1.3292
1.32472
1.32234
1.32233
1.32314
1.32579
1.33508
1.3443
1.348
1.34939
1.34658
1.34046
1.33793
1.33817
1.33934
1.34228
1.35109
1.36029
1.36434
1.36631
1.36535
1.35959
1.35598
1.35579
1.35688
1.35943
1.36584
1.37506
1.38045
1.38297
1.38457
1.38188
1.37685
1.37533
1.37615
1.37797
1.38163
1.38918
1.39594
1.39956
1.40161
1.40267
1.40006
1.39728
1.39717
1.39857
1.40093
1.40475
1.41113
1.41654
1.41976
1.42183
1.42256
1.42017
1.41902
1.42013
1.42205
1.42505
1.42934
1.43404
1.43756
1.43998
1.44139
1.4426
1.44364
1.44469
1.44583
1.44729
1.44918
1.45151
1.45483
1.45859
1.46142
1.46362
1.46515
1.46623
1.46761
1.46949
1.47158
1.47375
1.47592
1.47827
1.48092
1.48338
1.48537
1.48729
1.48923
1.49181
1.49379
1.51565
1.70423
1.31801
1.31514
1.31375
1.31376
1.31499
1.32185
1.33021
1.33372
1.33459
1.33193
1.32673
1.32489
1.32528
1.32644
1.32992
1.33998
1.3483
1.35161
1.35309
1.35
1.34374
1.34136
1.34158
1.34273
1.346
1.35516
1.36395
1.36783
1.36972
1.36897
1.3633
1.35961
1.35941
1.36051
1.36305
1.36922
1.37821
1.38362
1.38613
1.38776
1.38556
1.38066
1.37901
1.37985
1.38175
1.38543
1.39229
1.39861
1.40223
1.40436
1.40578
1.40407
1.4013
1.40093
1.40227
1.40448
1.40799
1.414
1.41928
1.42243
1.42444
1.42506
1.42335
1.42288
1.42414
1.42602
1.42886
1.43213
1.43577
1.43911
1.4418
1.44384
1.44559
1.44713
1.44801
1.44865
1.45001
1.45201
1.45433
1.45726
1.46063
1.46335
1.46538
1.46632
1.46756
1.46947
1.47162
1.47378
1.47591
1.47795
1.47983
1.48179
1.48386
1.48595
1.48813
1.49077
1.49209
1.5081
1.67146
1.32199
1.31876
1.3162
1.31574
1.31616
1.31857
1.3274
1.33522
1.33828
1.33894
1.33482
1.32948
1.32805
1.32834
1.32948
1.33354
1.34426
1.35224
1.35531
1.35669
1.35346
1.34706
1.34454
1.34485
1.34627
1.34999
1.35909
1.3673
1.37104
1.37293
1.37253
1.36714
1.3633
1.36299
1.36416
1.36682
1.37273
1.3812
1.3865
1.38905
1.39073
1.38914
1.3846
1.38298
1.38377
1.38564
1.38909
1.3951
1.40108
1.40486
1.4071
1.40875
1.40789
1.40523
1.40471