/*--------------------------------*- C++ -*----------------------------------*\
  =========                 |
  \\      /  F ield         | OpenFOAM: The Open Source CFD Toolbox
   \\    /   O peration     | Website:  https://openfoam.org
    \\  /    A nd           | Version:  12
     \\/     M anipulation  |
\*---------------------------------------------------------------------------*/
FoamFile
{
    format      ascii;
    class       volScalarField;
    location    "1";
    object      T;
}
// * * * * * * * * * * * * * * * * * * * * * * * * * * * * * * * * * * * * * //

dimensions      [0 0 0 1 0 0 0];

internalField   nonuniform List<scalar> 
9801
(
0.952031
0.950718
0.949935
0.949985
0.950605
0.952167
0.953407
0.95403
0.954469
0.954476
0.954518
0.954653
0.955507
0.956569
0.957375
0.957591
0.957162
0.957185
0.957343
0.957886
0.960036
0.961293
0.961419
0.961198
0.960793
0.960665
0.960903
0.961263
0.962873
0.965048
0.965719
0.965812
0.965409
0.965363
0.965441
0.96565
0.966363
0.968663
0.970089
0.97045
0.970311
0.970208
0.970132
0.970432
0.970938
0.972793
0.974485
0.975002
0.975088
0.975252
0.975439
0.975803
0.976281
0.977329
0.978457
0.979319
0.980308
0.980703
0.981222
0.98231
0.983563
0.983763
0.983949
0.984387
0.984823
0.985308
0.986016
0.986948
0.989019
0.991365
0.992244
0.992361
0.991987
0.992074
0.992451
0.993113
0.994213
0.996769
0.999781
1.00106
1.00139
1.00056
1.00053
1.00115
1.00233
1.00434
1.008
1.01133
1.01298
1.01341
1.01211
1.01207
1.0138
1.01718
1.0243
1.03227
1.03886
1.09774
1.31668
0.953176
0.951832
0.951006
0.951125
0.951702
0.95329
0.954654
0.955341
0.955738
0.955597
0.955688
0.956026
0.956857
0.957834
0.958535
0.958823
0.958467
0.958405
0.958673
0.959493
0.961303
0.962375
0.962803
0.962896
0.962129
0.961944
0.962326
0.962797
0.964164
0.965894
0.966813
0.967267
0.967125
0.966718
0.966835
0.967192
0.967951
0.969506
0.970685
0.971468
0.971767
0.971513
0.971564
0.972102
0.972916
0.973874
0.974912
0.975659
0.976088
0.976253
0.976661
0.977493
0.978438
0.979082
0.979768
0.980164
0.980687
0.981358
0.981858
0.982569
0.98424
0.985522
0.98599
0.986091
0.985955
0.986347
0.98708
0.987832
0.989189
0.991688
0.99315
0.993823
0.993371
0.992857
0.993393
0.99422
0.995229
0.997437
1.00038
1.00191
1.00262
1.00172
1.00112
1.00199
1.00325
1.0052
1.00889
1.01185
1.01364
1.01498
1.01422
1.01337
1.0149
1.01792
1.02279
1.02863
1.03316
1.09008
1.31727
0.953035
0.951813
0.951043
0.951117
0.951722
0.953277
0.954691
0.955481
0.955907
0.955806
0.955947
0.956389
0.9573
0.958321
0.958975
0.959228
0.958918
0.958941
0.959279
0.9603
0.962035
0.962955
0.963387
0.963449
0.962783
0.962694
0.963133
0.96377
0.965149
0.966573
0.967405
0.967848
0.96766
0.967397
0.967646
0.968223
0.969261
0.970501
0.971384
0.972126
0.972274
0.972054
0.972309
0.973229
0.974406
0.975226
0.975947
0.976623
0.976849
0.976807
0.977238
0.978356
0.979809
0.980694
0.981345
0.981732
0.981908
0.982163
0.982561
0.98306
0.984545
0.98639
0.987362
0.987891
0.987863
0.988009
0.988623
0.989384
0.990352
0.992297
0.993972
0.994857
0.995004
0.994512
0.994881
0.995801
0.996988
0.999015
1.00164
1.00332
1.00431
1.00395
1.00298
1.00361
1.00497
1.00676
1.00992
1.01317
1.01548
1.01739
1.01756
1.01624
1.0177
1.02071
1.02492
1.03078
1.03553
1.09184
1.3168
0.953396
0.952463
0.951734
0.951743
0.952244
0.953607
0.955099
0.955989
0.956471
0.95649
0.956623
0.957045
0.957932
0.959036
0.959716
0.959945
0.95971
0.959795
0.960166
0.961291
0.962888
0.963738
0.964157
0.964239
0.963808
0.963834
0.964238
0.964998
0.966266
0.967329
0.968075
0.968552
0.968534
0.968573
0.968928
0.969694
0.970748
0.971564
0.972131
0.972632
0.972715
0.972944
0.973498
0.974766
0.975974
0.976726
0.97729
0.977562
0.977268
0.977364
0.977948
0.979393
0.981362
0.982515
0.9832
0.983598
0.983263
0.982814
0.98301
0.983634
0.98518
0.987545
0.98901
0.989866
0.990216
0.990019
0.990099
0.99055
0.991384
0.993055
0.995023
0.996233
0.997035
0.996907
0.99684
0.997559
0.99865
1.00034
1.00293
1.0049
1.00612
1.00663
1.00566
1.00565
1.00691
1.00859
1.01129
1.01474
1.01737
1.01947
1.02097
1.02012
1.01997
1.02239
1.02599
1.03113
1.03471
1.09274
1.31384
0.953869
0.953195
0.952601
0.952642
0.953084
0.954193
0.955595
0.95651
0.957055
0.95727
0.957418
0.957787
0.958532
0.959663
0.960423
0.960698
0.960572
0.9607
0.961101
0.962242
0.963648
0.964455
0.964906
0.96504
0.964886
0.964992
0.965407
0.966242
0.967336
0.968097
0.968656
0.96906
0.969303
0.969783
0.970386
0.971226
0.972066
0.972685
0.973025
0.973047
0.973184
0.973785
0.974792
0.9763
0.977423
0.978151
0.978673
0.978602
0.977988
0.978135
0.978769
0.980324
0.982701
0.984081
0.984814
0.985282
0.984792
0.983862
0.983943
0.984635
0.98623
0.988804
0.990573
0.991571
0.99225
0.991877
0.991239
0.991468
0.992313
0.994149
0.99654
0.997996
0.998947
0.999228
0.998738
0.999024
0.999908
1.00125
1.00379
1.00638
1.00798
1.00906
1.00866
1.00789
1.00856
1.01009
1.01227
1.01552
1.01841
1.02072
1.02284
1.0234
1.02253
1.02338
1.02585
1.0299
1.03242
1.09228
1.3093
0.954549
0.95397
0.95344
0.953512
0.953991
0.955067
0.956322
0.957171
0.957721
0.958026
0.958244
0.95863
0.959345
0.960418
0.961171
0.961465
0.961422
0.961647
0.962155
0.963297
0.964494
0.965215
0.965665
0.965798
0.965856
0.966198
0.966742
0.96758
0.968474
0.969054
0.96939
0.969524
0.969867
0.970777
0.971949
0.972793
0.973416
0.973881
0.974037
0.97377
0.973872
0.974435
0.975745
0.977732
0.978953
0.979584
0.980046
0.979801
0.979076
0.97914
0.979671
0.980935
0.983565
0.98542
0.98631
0.986803
0.986244
0.985177
0.985203
0.985856
0.987253
0.989887
0.991848
0.992939
0.993662
0.993274
0.992257
0.992394
0.993232
0.995013
0.997799
0.999558
1.00059
1.00123
1.00059
1.00024
1.00079
1.00187
1.0039
1.00702
1.00923
1.01064
1.01126
1.01017
1.00997
1.01108
1.01275
1.0154
1.01841
1.02084
1.02302
1.02494
1.02486
1.02419
1.02516
1.02754
1.02972
1.09076
1.30399
0.95533
0.9548
0.954257
0.954314
0.954803
0.955927
0.957151
0.957932
0.958447
0.958748
0.958999
0.959438
0.960239
0.961223
0.961902
0.96216
0.962175
0.962513
0.963215
0.9644
0.965384
0.966018
0.966403
0.966489
0.966642
0.967176
0.968104
0.968958
0.969632
0.970093
0.970305
0.970309
0.970567
0.971378
0.973038
0.974274
0.974767
0.975087
0.975129
0.97483
0.974886
0.975309
0.976248
0.97849
0.980204
0.980981
0.981338
0.980981
0.980258
0.980285
0.980766
0.981625
0.983908
0.986219
0.987344
0.987916
0.987594
0.986477
0.986466
0.987113
0.988252
0.990704
0.992805
0.993914
0.994568
0.994234
0.993309
0.993355
0.994126
0.995524
0.998413
1.00067
1.00191
1.00269
1.00225
1.00133
1.00153
1.00242
1.00385
1.00681
1.00969
1.01141
1.01261
1.0125
1.01143
1.01176
1.01302
1.01492
1.01795
1.02068
1.02288
1.02488
1.02605
1.02552
1.02493
1.02607
1.0274
1.08808
1.29841
0.956123
0.955699
0.955125
0.955138
0.95558
0.956674
0.957957
0.958737
0.959234
0.959512
0.959761
0.960231
0.961146
0.962048
0.962632
0.962815
0.96289
0.963313
0.964212
0.965437
0.966287
0.96684
0.967168
0.967211
0.967375
0.967932
0.969154
0.97025
0.970831
0.971192
0.971331
0.971289
0.97148
0.971968
0.973351
0.975155
0.976071
0.976366
0.976355
0.975963
0.975933
0.976307
0.976921
0.978531
0.980767
0.98192
0.982472
0.982357
0.981522
0.981378
0.981797
0.982494
0.984125
0.986524
0.987912
0.988591
0.988645
0.987797
0.9877
0.988305
0.989189
0.991141
0.993305
0.994487
0.995154
0.995087
0.994249
0.994346
0.995147
0.996167
0.998418
1.00124
1.00278
1.00374
1.0038
1.00252
1.00226
1.003
1.0041
1.00619
1.00939
1.01167
1.01311
1.01409
1.0134
1.01251
1.01321
1.01464
1.01695
1.01994
1.02232
1.02433
1.02616
1.02687
1.02613
1.02553
1.02575
1.08499
1.29268
0.956876
0.956643
0.956097
0.956038
0.956392
0.957324
0.958653
0.959525
0.960042
0.960305
0.960532
0.961012
0.962012
0.962864
0.96338
0.963497
0.963601
0.96404
0.965066
0.966403
0.967198
0.967702
0.96798
0.967972
0.968113
0.968578
0.969745
0.971283
0.972029
0.972387
0.972516
0.972329
0.972371
0.972714
0.973425
0.97536
0.976926
0.97761
0.977789
0.977415
0.977104
0.977291
0.977725
0.978559
0.980661
0.982458
0.983283
0.983636
0.983081
0.982587
0.982862
0.983432
0.984458
0.986512
0.988163
0.988997
0.989423
0.989137
0.988929
0.989358
0.99003
0.99124
0.993403
0.994915
0.995747
0.996198
0.995685
0.995428
0.995909
0.996709
0.998058
1.0009
1.0031
1.00423
1.00497
1.00427
1.0033
1.00366
1.00457
1.00584
1.00855
1.01147
1.01331
1.01461
1.01506
1.01404
1.01374
1.01473
1.01631
1.0189
1.02166
1.02378
1.0256
1.02706
1.02741
1.02659
1.02504
1.08147
1.28686
0.957581
0.957553
0.957117
0.957009
0.957288
0.958
0.959282
0.960234
0.960784
0.96108
0.96132
0.961808
0.962857
0.963682
0.964159
0.964257
0.964323
0.964699
0.965634
0.967188
0.968113
0.968617
0.968895
0.968802
0.968828
0.969199
0.970045
0.971847
0.973126
0.973594
0.973815
0.973554
0.973307
0.973503
0.973954
0.975083
0.977262
0.978532
0.979067
0.979124
0.978514
0.97831
0.978585
0.979108
0.980292
0.982448
0.983815
0.984482
0.984712
0.984186
0.984056
0.984417
0.984999
0.986333
0.98822
0.989366
0.990052
0.990359
0.990105
0.990209
0.990676
0.991387
0.993155
0.995322
0.996517
0.997219
0.997244
0.996511
0.996555
0.99718
0.998082
0.999996
1.00282
1.00453
1.00551
1.00598
1.00495
1.00446
1.00514
1.00618
1.00783
1.01069
1.01304
1.01456
1.01574
1.01607
1.01514
1.01522
1.01635
1.018
1.02056
1.02299
1.02486
1.0265
1.02752
1.02761
1.02599
1.07847
1.28096
0.958252
0.958345
0.958008
0.957981
0.958263
0.958861
0.959985
0.96088
0.961419
0.961754
0.962069
0.962664
0.963744
0.964519
0.964986
0.9651
0.965047
0.965333
0.966079
0.967751
0.968979
0.969556
0.969888
0.969774
0.96958
0.969819
0.97037
0.971889
0.973766
0.974698
0.975082
0.975075
0.974518
0.974376
0.974642
0.975168
0.976875
0.979018
0.980066
0.980529
0.980421
0.979732
0.979591
0.979837
0.980359
0.981938
0.984012
0.985151
0.985788
0.985969
0.985481
0.985398
0.985715
0.986394
0.988159
0.989841
0.990758
0.991358
0.991333
0.991009
0.9912
0.99174
0.992836
0.995281
0.997161
0.998119
0.998628
0.998114
0.997555
0.997864
0.998529
0.999455
1.00165
1.00432
1.00586
1.00682
1.00702
1.00608
1.00606
1.00687
1.00788
1.00965
1.01229
1.0144
1.01589
1.01702
1.01716
1.01654
1.01688
1.01801
1.01957
1.02179
1.0239
1.02557
1.02693
1.02768
1.02721
1.0766
1.27493
0.958928
0.95904
0.958747
0.958842
0.959228
0.9599
0.960784
0.961499
0.962003
0.962322
0.962695
0.96359
0.964704
0.965381
0.965824
0.965939
0.965808
0.966006
0.966547
0.968096
0.969701
0.970452
0.970876
0.970913
0.970483
0.970471
0.970844
0.971739
0.973904
0.975494
0.976197
0.976538
0.976137
0.975423
0.97537
0.975706
0.976533
0.978853
0.980708
0.98157
0.981997
0.981651
0.980788
0.980628
0.98093
0.981745
0.983875
0.985662
0.986545
0.987105
0.987034
0.986436
0.986494
0.986954
0.988177
0.990288
0.991547
0.992229
0.992498
0.991941
0.991834
0.99229
0.992984
0.994692
0.997284
0.998761
0.999641
1.00001
0.999232
0.998756
0.999007
0.999583
1.00068
1.00332
1.0059
1.0073
1.00829
1.00845
1.00758
1.00756
1.00821
1.00921
1.01106
1.01369
1.01574
1.01717
1.01837
1.01869
1.01818
1.01842
1.01937
1.02071
1.02258
1.02453
1.02604
1.02719
1.02766
1.07568
1.2687
0.959668
0.959737
0.959449
0.95957
0.960062
0.960932
0.9617
0.96225
0.962662
0.962858
0.963219
0.96424
0.965587
0.966274
0.966708
0.966857
0.966646
0.966711
0.967101
0.968268
0.970218
0.971307
0.971823
0.97208
0.971612
0.971224
0.971416
0.971941
0.9736
0.975899
0.977095
0.97764
0.977781
0.976874
0.976252
0.976389
0.976878
0.978419
0.980928
0.982299
0.982974
0.983275
0.982438
0.981625
0.981754
0.982262
0.983779
0.985956
0.987181
0.987851
0.988152
0.987567
0.987297
0.987679
0.988436
0.990464
0.992229
0.993096
0.993609
0.993277
0.992757
0.992965
0.993488
0.9943
0.996609
0.999109
1.00038
1.00121
1.00122
1.00001
0.999588
1.00007
1.00084
1.0023
1.00532
1.0077
1.00896
1.00986
1.00967
1.00863
1.00863
1.00935
1.01044
1.01249
1.01523
1.0173
1.01876
1.01983
1.0201
1.0195
1.01956
1.02042
1.02157
1.02329
1.02518
1.02661
1.02757
1.075
1.26222
0.960466
0.960524
0.960209
0.96028
0.960794
0.961865
0.962664
0.96313
0.963377
0.963433
0.963736
0.964638
0.966262
0.967188
0.967649
0.967865
0.967587
0.967449
0.967722
0.968445
0.970439
0.972049
0.972745
0.973138
0.972912
0.972181
0.972108
0.972471
0.973412
0.975808
0.977637
0.978508
0.978943
0.978541
0.977431
0.977222
0.977582
0.978466
0.980774
0.982744
0.983662
0.984209
0.984032
0.982962
0.982773
0.983171
0.984122
0.986181
0.987705
0.988498
0.988971
0.988688
0.98817
0.988372
0.988916
0.9903
0.99264
0.993985
0.994678
0.994897
0.994084
0.993709
0.99401
0.994602
0.99584
0.998718
1.00085
1.00188
1.00256
1.00188
1.00065
1.00072
1.00143
1.00235
1.00436
1.00742
1.00932
1.01041
1.01103
1.01039
1.00941
1.00974
1.01067
1.01189
1.0142
1.0169
1.01874
1.0201
1.0209
1.02092
1.02038
1.0205
1.02133
1.0224
1.02421
1.02587
1.02696
1.07411
1.25554
0.961192
0.961365
0.961052
0.961036
0.961462
0.962604
0.963561
0.96404
0.964226
0.964115
0.964299
0.964945
0.966692
0.968048
0.968603
0.968903
0.968649
0.968249
0.968378
0.968831
0.970349
0.972538
0.973637
0.974102
0.974191
0.973393
0.972948
0.973152
0.97368
0.975426
0.977864
0.979119
0.979774
0.979923
0.978892
0.978238
0.978441
0.978974
0.980612
0.982908
0.984169
0.984815
0.985079
0.984341
0.98389
0.984176
0.984777
0.986522
0.988304
0.989213
0.989777
0.989821
0.989108
0.989027
0.989442
0.990229
0.992514
0.994655
0.995678
0.99626
0.995783
0.994675
0.994658
0.995262
0.996035
0.997854
1.00056
1.00216
1.003
1.00339
1.00254
1.0019
1.00235
1.00319
1.00421
1.00642
1.00896
1.01046
1.01141
1.01173
1.01094
1.01057
1.01132
1.01241
1.01375
1.01596
1.0182
1.01974
1.02085
1.02142
1.02152
1.02133
1.02165
1.02247
1.02353
1.02497
1.02605
1.07255
1.24864
0.961801
0.962102
0.96189
0.961879
0.962228
0.963321
0.964384
0.964904
0.965117
0.964894
0.964938
0.965369
0.966859
0.968704
0.969522
0.969892
0.969814
0.969201
0.969105
0.969435
0.970282
0.972575
0.974303
0.97503
0.975319
0.974795
0.973963
0.973937
0.974321
0.975324
0.977729
0.97952
0.980356
0.980817
0.980367
0.979413
0.97937
0.979797
0.980834
0.983
0.98456
0.985345
0.985794
0.985458
0.984878
0.985033
0.985554
0.986899
0.988988
0.990127
0.990675
0.990894
0.990126
0.989717
0.990045
0.990643
0.992071
0.994696
0.996306
0.997112
0.997427
0.996572
0.995912
0.996228
0.996819
0.997544
0.999328
1.00176
1.0032
1.00407
1.00457
1.00386
1.00351
1.00403
1.0048
1.00576
1.00771
1.00987
1.0112
1.01209
1.01265
1.01238
1.01239
1.01316
1.0142
1.01538
1.01699
1.0187
1.02009
1.02121
1.02204
1.02264
1.02286
1.02309
1.02366
1.02438
1.02525
1.07047
1.24152
0.962395
0.962736
0.962562
0.962616
0.96303
0.964137
0.965171
0.965729
0.966028
0.965811
0.965667
0.965963
0.966906
0.969051
0.970369
0.970846
0.970993
0.970378
0.969951
0.970138
0.970608
0.972202
0.974583
0.975776
0.97629
0.976247
0.975284
0.974864
0.975119
0.975677
0.977437
0.979658
0.980807
0.981406
0.981549
0.980717
0.980396
0.980733
0.981382
0.983202
0.984942
0.985855
0.986373
0.986381
0.985762
0.985791
0.986275
0.987183
0.989299
0.990942
0.991679
0.991982
0.9915
0.99076
0.990918
0.991442
0.992072
0.993825
0.996231
0.997554
0.998359
0.998706
0.997881
0.997322
0.997479
0.997955
0.998706
1.00061
1.00312
1.00462
1.00547
1.00585
1.00534
1.00513
1.00548
1.00603
1.00683
1.00844
1.01065
1.0123
1.0134
1.01417
1.01428
1.01436
1.01483
1.01542
1.01614
1.01732
1.01904
1.02081
1.02215
1.0232
1.02406
1.02449
1.02444
1.02436
1.0243
1.06806
1.23416
0.963059
0.963371
0.963168
0.963217
0.963661
0.964928
0.966041
0.966609
0.966954
0.966826
0.966496
0.966641
0.96715
0.968972
0.970903
0.971722
0.972057
0.97178
0.971005
0.970907
0.971226
0.972049
0.974353
0.976193
0.977012
0.977402
0.976876
0.976007
0.976006
0.976405
0.977443
0.979604
0.981125
0.98188
0.982299
0.981942
0.981443
0.98164
0.982139
0.983484
0.985374
0.986412
0.987016
0.987256
0.986745
0.986587
0.986963
0.987555
0.988986
0.991209
0.992495
0.993144
0.993267
0.992469
0.992016
0.992172
0.992528
0.993218
0.995348
0.997776
0.999047
0.999788
1.00001
0.999102
0.998471
0.998642
0.999161
0.999957
1.00192
1.00439
1.00584
1.00676
1.00737
1.00701
1.00651
1.00648
1.00684
1.00762
1.00933
1.01187
1.01368
1.01485
1.01576
1.01611
1.01583
1.01568
1.01606
1.01687
1.01806
1.01989
1.02185
1.02323
1.0243
1.02507
1.02545
1.02519
1.02427
1.06492
1.22663
0.963846
0.964076
0.963793
0.963782
0.964163
0.96544
0.966877
0.967531
0.9679
0.967899
0.96742
0.967354
0.967674
0.968796
0.971102
0.972444
0.972993
0.973127
0.972334
0.971806
0.971971
0.972417
0.973958
0.976243
0.977453
0.978053
0.978257
0.977475
0.977064
0.977321
0.977859
0.979528
0.981327
0.982272
0.982817
0.982908
0.982437
0.982443
0.982853
0.983712
0.9857
0.987145
0.987811
0.988187
0.987895
0.987454
0.987577
0.987998
0.988682
0.990682
0.992891
0.994009
0.994642
0.994589
0.993489
0.992945
0.993209
0.993713
0.994576
0.99691
0.999174
1.00034
1.00109
1.00131
1.00035
0.999715
0.999847
1.00028
1.0011
1.0033
1.00588
1.00731
1.00818
1.00878
1.00818
1.00722
1.00725
1.00788
1.00882
1.0108
1.01344
1.01507
1.01613
1.01681
1.01701
1.0166
1.01647
1.01701
1.01789
1.01911
1.02109
1.02288
1.02408
1.02503
1.02564
1.02596
1.02524
1.06238
1.21905
0.964735
0.964885
0.964501
0.964382
0.964673
0.965746
0.967499
0.968412
0.968829
0.968969
0.968459
0.968161
0.968379
0.968982
0.970964
0.972841
0.973666
0.974066
0.973807
0.972967
0.972842
0.973141
0.973934
0.975988
0.977679
0.978499
0.97897
0.978881
0.978262
0.97827
0.978646
0.979674
0.981523
0.982677
0.983306
0.983654
0.983379
0.983183
0.983497
0.984067
0.985579
0.987598
0.988679
0.989175
0.989255
0.988573
0.988254
0.988525
0.989031
0.989946
0.99234
0.994415
0.995431
0.996025
0.995762
0.994574
0.994192
0.994426
0.994849
0.995817
0.998417
1.00063
1.00172
1.00248
1.0026
1.00129
1.00057
1.00085
1.00146
1.00252
1.00503
1.00738
1.00862
1.00938
1.00966
1.00866
1.00806
1.00856
1.00942
1.01053
1.01246
1.01456
1.01592
1.01684
1.01745
1.01771
1.01763
1.01775
1.01835
1.01924
1.02029
1.02189
1.02343
1.02455
1.02543
1.02612
1.02631
1.06069
1.21147
0.965639
0.965781
0.965348
0.965061
0.965252
0.965983
0.967859
0.9692
0.969716
0.969974
0.969621
0.969102
0.969166
0.969522
0.970765
0.972978
0.974218
0.974784
0.975009
0.974358
0.973848
0.973982
0.974376
0.975758
0.977734
0.97884
0.979436
0.979744
0.979408
0.979203
0.979485
0.980079
0.98175
0.983192
0.983898
0.984367
0.984348
0.984002
0.984142
0.984568
0.985302
0.987325
0.989214
0.990154
0.990605
0.99029
0.989405
0.989241
0.989557
0.990026
0.991184
0.993879
0.995803
0.996729
0.99736
0.996936
0.995531
0.995094
0.995419
0.996005
0.997388
1.00021
1.00216
1.00308
1.00367
1.00333
1.00192
1.00163
1.00216
1.00288
1.00422
1.00666
1.00853
1.00956
1.01017
1.01025
1.00968
1.00964
1.01023
1.01105
1.01198
1.01344
1.01519
1.01653
1.0175
1.01823
1.01886
1.01916
1.01926
1.01962
1.02028
1.02116
1.02237
1.0238
1.02505
1.02608
1.02672
1.05968
1.20383
0.9665
0.966728
0.966362
0.965851
0.965888
0.966327
0.967885
0.969785
0.970595
0.970928
0.970835
0.970169
0.969991
0.970243
0.970873
0.972858
0.974629
0.975415
0.975819
0.975694
0.974997
0.974889
0.975187
0.975914
0.977717
0.979125
0.979858
0.980297
0.980355
0.980076
0.980206
0.980629
0.981837
0.983714
0.984707
0.985173
0.985368
0.984958
0.984789
0.985029
0.985488
0.986573
0.989006
0.990751
0.991591
0.991937
0.991249
0.990231
0.990091
0.990487
0.991091
0.992685
0.995503
0.997208
0.998011
0.998499
0.997656
0.996321
0.996225
0.996721
0.997465
0.999263
1.00179
1.00329
1.00408
1.00447
1.00387
1.00302
1.00316
1.00375
1.00449
1.00569
1.00766
1.00928
1.01029
1.01097
1.01135
1.01126
1.01124
1.01164
1.01231
1.01315
1.01418
1.01569
1.01723
1.01842
1.0193
1.02001
1.02055
1.02062
1.02068
1.02108
1.02178
1.02283
1.02427
1.02575
1.02682
1.05893
1.19602
0.967267
0.967697
0.967483
0.966814
0.966588
0.966864
0.967778
0.969995
0.971409
0.971885
0.972029
0.971415
0.970874
0.970968
0.971349
0.972644
0.974846
0.976025
0.976543
0.976767
0.976247
0.975851
0.976021
0.976434
0.977774
0.979458
0.980347
0.980875
0.981153
0.98091
0.980864
0.981208
0.981887
0.983748
0.985384
0.986116
0.986426
0.986154
0.985582
0.98561
0.98601
0.986536
0.987925
0.990494
0.992091
0.992893
0.993212
0.992193
0.991127
0.991113
0.991559
0.992328
0.994348
0.9969
0.998258
0.998968
0.999326
0.998385
0.997531
0.997724
0.998273
0.999038
1.00067
1.0028
1.00411
1.00482
1.00523
1.00509
1.00464
1.00475
1.00523
1.00589
1.00683
1.00836
1.00998
1.0112
1.01201
1.01254
1.01274
1.01275
1.01297
1.01343
1.01413
1.01506
1.01647
1.01809
1.01932
1.02027
1.02099
1.02152
1.02163
1.02158
1.02187
1.02249
1.02347
1.02506
1.02635
1.05778
1.18801
0.967797
0.968594
0.968567
0.968013
0.967434
0.967539
0.968004
0.969726
0.971843
0.972801
0.973137
0.97287
0.971993
0.971763
0.972025
0.972708
0.974749
0.97648
0.977229
0.9776
0.97747
0.976874
0.97683
0.977155
0.977977
0.979812
0.981012
0.981564
0.981918
0.981781
0.981558
0.981766
0.982193
0.983252
0.985485
0.986918
0.987541
0.987661
0.986951
0.986451
0.986549
0.986874
0.987472
0.989308
0.991981
0.993408
0.994125
0.994297
0.993046
0.99214
0.99229
0.992785
0.993677
0.995696
0.997947
0.999199
0.999873
1.0002
0.999523
0.99895
0.999116
0.999626
1.00042
1.00181
1.00356
1.00488
1.00577
1.00637
1.00656
1.00633
1.00632
1.00661
1.00711
1.00781
1.00903
1.01073
1.01207
1.01297
1.01362
1.01405
1.01414
1.01424
1.01462
1.01519
1.01598
1.01724
1.01884
1.02009
1.02101
1.02173
1.0223
1.0226
1.0226
1.02282
1.02341
1.02442
1.02566
1.05587
1.17986
0.968147
0.96925
0.969402
0.969262
0.968524
0.968324
0.968607
0.969538
0.971763
0.973254
0.973912
0.974188
0.973527
0.972776
0.972809
0.973171
0.974488
0.976677
0.977843
0.978352
0.978553
0.978029
0.977674
0.977874
0.978348
0.979854
0.981619
0.982417
0.982785
0.982802
0.98239
0.982348
0.982647
0.983159
0.984739
0.987114
0.988383
0.988946
0.988777
0.987708
0.987202
0.987434
0.987907
0.988697
0.990814
0.993218
0.994443
0.995114
0.995266
0.994086
0.993341
0.993513
0.994028
0.994996
0.996844
0.998816
1.00005
1.00079
1.00125
1.0009
1.00053
1.00065
1.00105
1.00158
1.00245
1.00406
1.00572
1.00682
1.00754
1.00803
1.00798
1.00776
1.00782
1.00816
1.00874
1.00974
1.0115
1.01297
1.01391
1.01459
1.0152
1.01555
1.01563
1.01582
1.01629
1.01697
1.01797
1.01933
1.02061
1.02159
1.02244
1.02315
1.02368
1.02383
1.02395
1.02453
1.02506
1.05326
1.17158
0.968497
0.969755
0.970047
0.970181
0.969765
0.96927
0.969396
0.969831
0.971463
0.973412
0.974362
0.974856
0.974948
0.974109
0.973709
0.973908
0.974519
0.976498
0.978253
0.979022
0.979413
0.979292
0.978662
0.978587
0.978894
0.979673
0.981734
0.983221
0.983805
0.983993
0.983521
0.983077
0.983197
0.983589
0.984229
0.986201
0.988529
0.989684
0.990256
0.989867
0.98867
0.988308
0.988543
0.988961
0.989808
0.992025
0.994284
0.995441
0.996083
0.996262
0.995305
0.994704
0.99488
0.995362
0.996092
0.997526
0.999519
1.00096
1.0018
1.00246
1.0025
1.00206
1.00182
1.002
1.00249
1.00328
1.00489
1.00676
1.00796
1.0087
1.0093
1.00943
1.009
1.00883
1.00915
1.00975
1.01071
1.01234
1.01379
1.0148
1.01557
1.01628
1.01689
1.01711
1.01711
1.01725
1.01762
1.01839
1.01966
1.02117
1.02236
1.02331
1.02416
1.02486
1.02512
1.0252
1.02498
1.05
1.16324
0.968947
0.970264
0.970656
0.97088
0.970836
0.970325
0.970245
0.970532
0.97146
0.973418
0.974691
0.975333
0.975706
0.975483
0.974752
0.974687
0.974995
0.976182
0.978418
0.979651
0.980175
0.980394
0.979833
0.979359
0.979491
0.979897
0.98121
0.983503
0.984733
0.985183
0.98506
0.984254
0.983928
0.984107
0.984478
0.985249
0.98758
0.989882
0.990944
0.991482
0.990975
0.989698
0.989259
0.989508
0.990025
0.991028
0.993148
0.995228
0.996399
0.99708
0.997397
0.996682
0.995994
0.995974
0.996409
0.997072
0.998298
1.00038
1.00204
1.00299
1.00365
1.00389
1.00337
1.00291
1.00306
1.0035
1.0042
1.00576
1.00775
1.009
1.00976
1.01032
1.01053
1.01023
1.0101
1.01039
1.01085
1.01157
1.01292
1.01452
1.01572
1.01662
1.01747
1.01819
1.01844
1.01797
1.01778
1.01818
1.01899
1.02025
1.02192
1.02328
1.02429
1.0252
1.02584
1.02614
1.0254
1.04706
1.15487
0.969438
0.970841
0.971326
0.971576
0.971684
0.971329
0.971111
0.971341
0.971865
0.973531
0.97507
0.975821
0.97627
0.976467
0.975875
0.975519
0.975732
0.976276
0.978166
0.980079
0.980886
0.981258
0.981136
0.980369
0.980187
0.980457
0.980981
0.982806
0.985074
0.986147
0.986547
0.986082
0.985047
0.984762
0.985024
0.985481
0.986446
0.988919
0.991069
0.99207
0.992604
0.992087
0.990857
0.990452
0.990681
0.991156
0.992035
0.99399
0.996131
0.997439
0.998181
0.998606
0.998024
0.997202
0.997067
0.997429
0.998017
0.999129
1.00133
1.00306
1.00403
1.00473
1.0051
1.00455
1.00392
1.00403
1.00456
1.0053
1.00677
1.00863
1.00984
1.01062
1.01127
1.01176
1.01171
1.01134
1.01135
1.01173
1.01244
1.01372
1.01546
1.01677
1.01767
1.01843
1.01903
1.01918
1.01858
1.01844
1.01892
1.01971
1.02108
1.0229
1.02416
1.02516
1.02602
1.02648
1.02591
1.04504
1.14654
0.969857
0.971317
0.972107
0.972355
0.972499
0.972264
0.971949
0.97209
0.972467
0.973724
0.975532
0.976437
0.976927
0.977244
0.97696
0.976444
0.976488
0.976781
0.977716
0.980058
0.981541
0.982118
0.98235
0.981728
0.981059
0.981052
0.981336
0.982047
0.984358
0.986565
0.98751
0.98785
0.987067
0.98597
0.98577
0.986015
0.986469
0.987521
0.990061
0.992154
0.993128
0.9937
0.993345
0.992118
0.99155
0.991702
0.992197
0.993019
0.994835
0.997086
0.998511
0.999295
0.999811
0.999294
0.998268
0.998019
0.998383
0.998998
1.00014
1.00234
1.00407
1.00504
1.0057
1.00611
1.00569
1.00514
1.00527
1.00574
1.00635
1.00747
1.00928
1.0107
1.01164
1.01233
1.0129
1.01295
1.01243
1.01236
1.01275
1.01339
1.01452
1.01625
1.01755
1.01845
1.01923
1.01984
1.01971
1.01904
1.01927
1.01999
1.02092
1.02234
1.02372
1.02482
1.02579
1.02646
1.0261
1.0434
1.13822
0.970307
0.971455
0.972782
0.973202
0.973378
0.973265
0.97281
0.972771
0.973056
0.973821
0.975842
0.977229
0.977746
0.978072
0.977996
0.97738
0.97717
0.97736
0.977799
0.979464
0.98188
0.982979
0.983356
0.983235
0.982226
0.981756
0.981916
0.982287
0.983237
0.985861
0.987917
0.988779
0.989085
0.988105
0.986933
0.986697
0.98695
0.987465
0.988615
0.991158
0.993231
0.994234
0.994811
0.994543
0.993308
0.992665
0.992782
0.993241
0.993979
0.995702
0.998083
0.999578
1.00037
1.00091
1.00041
0.999297
0.999049
0.999429
1.00005
1.00121
1.00328
1.00492
1.0059
1.00658
1.00712
1.00695
1.00638
1.00628
1.00666
1.00729
1.0083
1.01005
1.01158
1.0126
1.01334
1.01397
1.01401
1.01334
1.01327
1.01372
1.01436
1.0154
1.01709
1.01845
1.01934
1.02002
1.02023
1.01989
1.01988
1.02046
1.02124
1.02223
1.0233
1.02432
1.02525
1.02605
1.02612
1.04202
1.12992
0.970944
0.971419
0.973125
0.973985
0.974258
0.974343
0.973818
0.973479
0.973643
0.974067
0.975629
0.977772
0.978721
0.979015
0.979066
0.978399
0.977925
0.978028
0.978357
0.979019
0.981292
0.983441
0.98431
0.984568
0.983971
0.982883
0.982622
0.982811
0.983211
0.984405
0.987242
0.98918
0.989987
0.990268
0.989167
0.987951
0.987712
0.987968
0.988504
0.989661
0.992145
0.9942
0.995215
0.995841
0.995772
0.994519
0.993726
0.993799
0.994255
0.994991
0.996702
0.999089
1.00055
1.00131
1.00186
1.00146
1.00039
1.00015
1.00054
1.00114
1.00215
1.004
1.00571
1.0068
1.00754
1.00815
1.00815
1.00751
1.00733
1.00769
1.00824
1.00911
1.01084
1.01251
1.01359
1.01433
1.01485
1.01471
1.01407
1.01419
1.01474
1.01543
1.0165
1.01798
1.01911
1.01992
1.02045
1.02054
1.02062
1.02098
1.0216
1.02235
1.02315
1.02398
1.02469
1.02543
1.02602
1.04064
1.1216
0.971695
0.971678
0.973078
0.974525
0.97507
0.97533
0.975061
0.974381
0.974294
0.974559
0.975248
0.977531
0.979417
0.9801
0.980286
0.979839
0.978981
0.978754
0.978902
0.979208
0.980211
0.982983
0.984894
0.985637
0.98577
0.984715
0.983609
0.983437
0.983684
0.984174
0.985638
0.988548
0.990361
0.991125
0.991405
0.990293
0.989019
0.988734
0.988969
0.989492
0.990605
0.993094
0.995241
0.996312
0.996915
0.996883
0.995599
0.994767
0.994847
0.995296
0.996046
0.997722
1.00002
1.00144
1.0022
1.00275
1.00253
1.00158
1.00127
1.00158
1.00217
1.00306
1.00473
1.00652
1.00772
1.0085
1.00913
1.0092
1.00845
1.00818
1.00859
1.00922
1.01015
1.01182
1.0134
1.01442
1.01513
1.0154
1.01514
1.01496
1.01535
1.01596
1.01663
1.0175
1.01861
1.01956
1.02033
1.02086
1.02116
1.02154
1.02197
1.02251
1.0231
1.02373
1.02436
1.0252
1.02599
1.03886
1.11319
0.972545
0.972271
0.972909
0.974767
0.975817
0.976199
0.976329
0.975608
0.975072
0.975128
0.97543
0.976593
0.979332
0.980964
0.981509
0.981515
0.980498
0.979568
0.979456
0.979718
0.980147
0.981644
0.984628
0.986287
0.986936
0.986865
0.985474
0.984432
0.984345
0.984606
0.985175
0.986839
0.989747
0.991467
0.992216
0.992506
0.991424
0.990066
0.989718
0.989982
0.990537
0.991645
0.994062
0.996185
0.997245
0.997853
0.997936
0.996695
0.995836
0.995907
0.996349
0.997127
0.998737
1.00088
1.00227
1.00306
1.00363
1.00362
1.00277
1.00238
1.00264
1.00317
1.00395
1.0055
1.00738
1.00864
1.00943
1.01
1.00996
1.00923
1.00919
1.0097
1.01037
1.01128
1.01268
1.01405
1.01498
1.01559
1.01584
1.01593
1.01607
1.01649
1.01706
1.01768
1.01834
1.0191
1.01994
1.02077
1.02139
1.02179
1.02221
1.02262
1.02303
1.02352
1.02426
1.02525
1.02604
1.03678
1.10479
0.973439
0.972982
0.973093
0.974568
0.97637
0.977092
0.977384
0.977075
0.976096
0.975799
0.975982
0.976418
0.978159
0.981009
0.982402
0.982864
0.982563
0.981152
0.98034
0.980334
0.980612
0.981154
0.983101
0.986068
0.987515
0.98814
0.987936
0.986364
0.98535
0.985273
0.985546
0.986189
0.987986
0.990842
0.992492
0.99323
0.993594
0.992581
0.991176
0.990801
0.991034
0.991545
0.992606
0.99501
0.997145
0.99821
0.998798
0.998919
0.997768
0.996937
0.997007
0.997438
0.998199
0.999645
1.00165
1.00308
1.00392
1.00452
1.00467
1.00387
1.00338
1.00362
1.00416
1.00495
1.00644
1.00826
1.00946
1.01022
1.01069
1.01055
1.01013
1.0103
1.01083
1.01149
1.01232
1.01334
1.01446
1.01541
1.01612
1.01649
1.01681
1.01711
1.01755
1.01804
1.0185
1.01901
1.01966
1.02046
1.02124
1.02186
1.02231
1.0227
1.02311
1.0236
1.0242
1.02506
1.02584
1.03486
1.0965
0.974328
0.973709
0.973653
0.974229
0.976372
0.977877
0.978378
0.978495
0.977609
0.976733
0.976637
0.976851
0.977423
0.979672
0.982472
0.983699
0.98417
0.983621
0.981959
0.981189
0.981207
0.98147
0.982152
0.984507
0.987402
0.988703
0.989285
0.988981
0.987312
0.98629
0.986232
0.986533
0.98723
0.98909
0.991885
0.993493
0.994215
0.994611
0.993699
0.992237
0.991798
0.992056
0.992609
0.993698
0.995994
0.998012
0.999044
0.999631
0.999857
0.998885
0.998074
0.9981
0.998514
0.999245
1.00051
1.00241
1.0039
1.00479
1.0054
1.00561
1.00484
1.00439
1.00466