/*--------------------------------*- C++ -*----------------------------------*\
  =========                 |
  \\      /  F ield         | OpenFOAM: The Open Source CFD Toolbox
   \\    /   O peration     | Website:  https://openfoam.org
    \\  /    A nd           | Version:  12
     \\/     M anipulation  |
\*---------------------------------------------------------------------------*/
FoamFile
{
    format      ascii;
    class       volScalarField;
    location    "19.4";
    object      rho;
}
// * * * * * * * * * * * * * * * * * * * * * * * * * * * * * * * * * * * * * //

dimensions      [1 -3 0 0 0 0 0];

internalField   nonuniform List<scalar> 
9801
(
1.1314
1.147
1.15951
1.16929
1.17449
1.17479
1.17061
1.17216
1.17687
1.1862
1.19889
1.20948
1.21696
1.22171
1.22286
1.2209
1.21964
1.22147
1.22914
1.24383
1.25915
1.27119
1.28014
1.28745
1.29117
1.28623
1.28006
1.27832
1.28031
1.28717
1.30668
1.32732
1.34084
1.35027
1.35774
1.36391
1.36055
1.35165
1.35014
1.35285
1.35705
1.36893
1.39311
1.41173
1.42351
1.43247
1.44024
1.44273
1.43235
1.42783
1.43053
1.43607
1.44478
1.46685
1.49205
1.50809
1.5195
1.52842
1.53611
1.52952
1.51508
1.51438
1.52121
1.53091
1.55326
1.58743
1.61175
1.62649
1.63822
1.64856
1.64845
1.62526
1.61534
1.62248
1.63495
1.66165
1.71055
1.74837
1.77005
1.78599
1.80056
1.80524
1.77624
1.75428
1.76233
1.78364
1.82681
1.90563
1.96918
2.00883
2.04085
2.072
2.07431
2.05123
2.04496
2.07553
2.16876
4.15202
14.6969
1.14099
1.14775
1.15477
1.16187
1.1685
1.17371
1.18114
1.18897
1.19596
1.20176
1.2079
1.21374
1.21703
1.21487
1.2131
1.21505
1.22019
1.23396
1.24978
1.26168
1.27123
1.27918
1.28537
1.2878
1.28025
1.27445
1.27534
1.27958
1.28661
1.30424
1.32605
1.34049
1.34996
1.35683
1.36218
1.36016
1.34867
1.34423
1.34671
1.35202
1.36074
1.38326
1.40871
1.42316
1.43185
1.43883
1.44411
1.43845
1.42557
1.42297
1.42715
1.43386
1.44596
1.47491
1.50179
1.51588
1.52556
1.5333
1.53849
1.52786
1.51363
1.51332
1.52024
1.52945
1.5517
1.58965
1.61559
1.63011
1.64124
1.65082
1.64885
1.6259
1.61585
1.62246
1.63412
1.65478
1.70148
1.74264
1.76651
1.78399
1.8
1.8073
1.77857
1.75356
1.75812
1.77745
1.80868
1.87522
1.94034
1.98438
2.01959
2.05312
2.05944
2.03539
2.02135
2.0355
2.04345
3.85754
14.6713
1.14145
1.13637
1.13564
1.1413
1.15577
1.1764
1.19415
1.20376
1.20866
1.21117
1.21049
1.20607
1.19839
1.19649
1.20032
1.20723
1.22166
1.24781
1.2655
1.27237
1.2764
1.27951
1.27952
1.26725
1.26047
1.26338
1.26915
1.27718
1.29221
1.31862
1.33705
1.34544
1.35072
1.35485
1.3512
1.33788
1.33249
1.33574
1.34163
1.34896
1.3635
1.39145
1.41438
1.42483
1.43061
1.4345
1.43136
1.41914
1.41214
1.41456
1.4211
1.42913
1.44524
1.47756
1.50208
1.51358
1.52061
1.52549
1.52508
1.5116
1.5008
1.50268
1.51098
1.52089
1.54335
1.58398
1.60959
1.62175
1.63096
1.63845
1.63618
1.61583
1.6046
1.60973
1.62104
1.63697
1.67982
1.72721
1.75235
1.76804
1.78192
1.78991
1.76869
1.73978
1.73745
1.75429
1.77743
1.82795
1.90243
1.95622
1.99237
2.02487
2.03535
2.01309
1.99939
2.01102
1.99748
3.66097
14.4603
1.1399
1.12184
1.12208
1.12688
1.14383
1.17813
1.20017
1.20923
1.21449
1.2188
1.21572
1.19449
1.18268
1.18439
1.18948
1.19926
1.2208
1.24961
1.26711
1.27427
1.27903
1.28018
1.26577
1.25122
1.25085
1.25597
1.26285
1.27323
1.29299
1.31866
1.33513
1.34136
1.34427
1.34207
1.33382
1.32573
1.32567
1.33111
1.33801
1.34625
1.36205
1.3889
1.40744
1.41463
1.41769
1.41862
1.41659
1.40867
1.40477
1.40913
1.41647
1.42406
1.4378
1.46662
1.48824
1.49765
1.50326
1.50788
1.5102
1.50083
1.49109
1.49371
1.50212
1.51128
1.52719
1.56218
1.58898
1.6018
1.61107
1.61947
1.6225
1.60608
1.5901
1.59264
1.60353
1.61639
1.64549
1.69389
1.72375
1.74001
1.75379
1.76651
1.75976
1.72882
1.71304
1.72308
1.74406
1.77455
1.8343
1.89349
1.93408
1.96848
1.99157
1.98137
1.96114
1.95412
1.91691
3.50863
14.2903
1.12907
1.11685
1.11874
1.1227
1.13543
1.17279
1.19946
1.20836
1.2134
1.21413
1.20065
1.18289
1.17855
1.18131
1.18571
1.1919
1.21036
1.24294
1.26022
1.26615
1.26809
1.26353
1.25458
1.24797
1.24821
1.25219
1.25789
1.26556
1.28264
1.30707
1.32067
1.32553
1.3269
1.3272
1.3265
1.32286
1.32155
1.32577
1.33196
1.33825
1.34688
1.36745
1.38583
1.39476
1.40036
1.40579
1.41025
1.40657
1.39986
1.40048
1.40524
1.41087
1.4176
1.4367
1.46384
1.47922
1.48777
1.49464
1.50112
1.49737
1.48394
1.48039
1.48549
1.49273
1.50173
1.52709
1.56104
1.58002
1.59164
1.60139
1.60975
1.60203
1.57952
1.57225
1.57963
1.5911
1.60851
1.65191
1.69431
1.71664
1.73175
1.74598
1.75156
1.72802
1.70134
1.69596
1.71039
1.73314
1.77411
1.8356
1.88673
1.92534
1.95889
1.97132
1.95518
1.93562
1.86914
3.41292
14.2041
1.12045
1.11717
1.11984
1.12403
1.13631
1.16609
1.18952
1.19835
1.20084
1.19614
1.18614
1.1794
1.179
1.18165
1.18591
1.19134
1.20154
1.2254
1.24367
1.25007
1.25115
1.2509
1.25052
1.24888
1.24849
1.2513
1.25584
1.26098
1.26653
1.28135
1.29906
1.30837
1.31402
1.31981
1.3255
1.3262
1.32182
1.32177
1.32431
1.32602
1.32871
1.33754
1.3599
1.3786
1.3902
1.39855
1.40527
1.40874
1.40051
1.39269
1.39108
1.393
1.39762
1.40806
1.43724
1.46326
1.47678
1.48538
1.49292
1.49645
1.48346
1.46984
1.46758
1.47243
1.48004
1.4964
1.53382
1.56222
1.577
1.58768
1.59748
1.60092
1.57988
1.56103
1.55927
1.56871
1.58161
1.6107
1.66204
1.69831
1.71851
1.734
1.74637
1.73598
1.70505
1.68771
1.68968
1.70613
1.73183
1.77943
1.8344
1.87797
1.91312
1.94275
1.94672
1.93499
1.86944
3.32953
14.193
1.11845
1.1201
1.12337
1.13035
1.14337
1.15851
1.17085
1.17842
1.18089
1.18087
1.18132
1.18169
1.18277
1.18529
1.18903
1.19346
1.19775
1.20569
1.2199
1.23027
1.2385
1.24524
1.25051
1.25284
1.2519
1.25303
1.25473
1.25367
1.25307
1.25678
1.27189
1.29187
1.30721
1.31735
1.32417
1.32911
1.32715
1.32104
1.3152
1.31134
1.31269
1.31749
1.33433
1.36454
1.38462
1.39523
1.40241
1.40849
1.40508
1.38831
1.37794
1.37799
1.38313
1.39096
1.41408
1.44803
1.46776
1.47837
1.48649
1.49374
1.48874
1.46573
1.45435
1.45668
1.46439
1.47659
1.50901
1.54796
1.569
1.58091
1.59064
1.59861
1.58742
1.55929
1.54796
1.55156
1.56322
1.5809
1.62379
1.6766
1.70806
1.72628
1.74136
1.7473
1.72369
1.69492
1.68506
1.69142
1.7093
1.73913
1.78883
1.83607
1.87172
1.90078
1.92079
1.92182
1.87992
3.28854
14.221
1.1155
1.12293
1.13114
1.14182
1.14937
1.15205
1.15434
1.15717
1.16213
1.16926
1.17679
1.18294
1.18723
1.19104
1.19376
1.19396
1.19221
1.19317
1.19899
1.21344
1.22984
1.24161
1.24952
1.25533
1.258
1.25632
1.25025
1.24345
1.24239
1.24517
1.25428
1.28049
1.30301
1.31517
1.32279
1.32906
1.33201
1.31955
1.30297
1.29973
1.30336
1.30917
1.32283
1.35606
1.38128
1.39246
1.39946
1.40537
1.40572
1.38551
1.36959
1.3699
1.37584
1.38428
1.40406
1.43922
1.46274
1.4739
1.48178
1.48856
1.48866
1.46709
1.45007
1.44917
1.45629
1.46621
1.48952
1.53351
1.56411
1.57815
1.58765
1.59587
1.59391
1.56707
1.5466
1.54505
1.5539
1.56627
1.58905
1.64025
1.68819
1.71507
1.73261
1.74732
1.74724
1.72025
1.69509
1.68929
1.69808
1.71722
1.75095
1.79829
1.83733
1.86521
1.88485
1.89622
1.88478
3.28314
14.2585
1.11167
1.12476
1.13563
1.14328
1.14783
1.14822
1.14609
1.14865
1.15804
1.16725
1.17463
1.18218
1.18975
1.19443
1.19352
1.18704
1.18461
1.1866
1.19399
1.2132
1.23006
1.24111
1.24948
1.25621
1.26089
1.25435
1.23919
1.23431
1.23676
1.2414
1.252
1.28152
1.30503
1.31541
1.32194
1.32744
1.32889
1.30989
1.29541
1.29599
1.30109
1.30821
1.32496
1.356
1.37822
1.38871
1.3952
1.39942
1.39767
1.38281
1.36942
1.36869
1.37401
1.3823
1.39945
1.43303
1.45964
1.47143
1.47859
1.48375
1.48575
1.47307
1.45308
1.44863
1.45386
1.46294
1.47653
1.51214
1.55299
1.57354
1.58402
1.59261
1.59847
1.58686
1.55951
1.5478
1.54942
1.55919
1.57295
1.6026
1.65494
1.69653
1.72133
1.73884
1.75169
1.74695
1.72315
1.70228
1.69769
1.70662
1.7253
1.76019
1.80434
1.83654
1.85597
1.86878
1.87697
3.30358
14.2867
1.11852
1.128
1.13287
1.13594
1.13727
1.14094
1.14542
1.15252
1.16205
1.17259
1.1812
1.18777
1.19236
1.1909
1.18198
1.17717
1.17855
1.18265
1.19589
1.22001
1.23736
1.24682
1.25263
1.25754
1.25843
1.24167
1.22935
1.23007
1.23459
1.24133
1.25859
1.29036
1.30931
1.3179
1.32348
1.3261
1.31671
1.30051
1.29339
1.29548
1.30082
1.31007
1.33164
1.35883
1.37733
1.38597
1.39005
1.39126
1.39163
1.38523
1.37285
1.37115
1.37682
1.38453
1.39405
1.42101
1.45178
1.46675
1.47413
1.48019
1.48641
1.48485
1.46718
1.45611
1.45731
1.46328
1.47135
1.48689
1.52728
1.56294
1.58074
1.59147
1.60086
1.60628
1.58684
1.56078
1.55321
1.55786
1.56752
1.58003
1.61016
1.6608
1.6992
1.72336
1.74212
1.75505
1.75321
1.73277
1.71048
1.70262
1.70955
1.7272
1.76328
1.80521
1.83177
1.84562
1.8615
3.3409
14.3097
1.12415
1.1283
1.12224
1.11796
1.12064
1.13137
1.14978
1.16592
1.17705
1.18445
1.1897
1.19371
1.19052
1.17563
1.16789
1.16934
1.17387
1.18077
1.20133
1.2331
1.24818
1.25394
1.25778
1.25889
1.24635
1.22845
1.22441
1.22762
1.23243
1.24174
1.26918
1.29733
1.31295
1.31957
1.32151
1.31683
1.31037
1.30201
1.2967
1.30042
1.30871
1.31807
1.33053
1.35479
1.37176
1.37927
1.38325
1.38822
1.39486
1.39503
1.38589
1.38145
1.38334
1.38609
1.39122
1.40174
1.43214
1.45919
1.4728
1.48171
1.48948
1.49611
1.48821
1.46772
1.45898
1.45968
1.46514
1.473
1.49375
1.5397
1.5737
1.59076
1.60236
1.61314
1.61695
1.59264
1.56724
1.55914
1.56014
1.56791
1.58164
1.61599
1.66662
1.70543
1.73106
1.75065
1.76105
1.75845
1.73743
1.71098
1.70032
1.70629
1.72365
1.76287
1.80265
1.82395
1.84295
3.38732
14.3354
1.12854
1.11643
1.10632
1.1062
1.10998
1.12088
1.1525
1.18114
1.19336
1.19805
1.20021
1.19669
1.17928
1.16252
1.16062
1.16417
1.16963
1.17952
1.20973
1.24105
1.25496
1.26102
1.2638
1.25542
1.23915
1.22894
1.22677
1.23108
1.23949
1.25345
1.27164
1.29541
1.30841
1.31232
1.31081
1.31224
1.31625
1.31273
1.31032
1.31349
1.3186
1.3198
1.32318
1.33321
1.35599
1.37303
1.38364
1.39296
1.40112
1.40806
1.40586
1.39258
1.38505
1.38258
1.38372
1.38896
1.40664
1.44549
1.47225
1.48591
1.49562
1.50367
1.50727
1.48887
1.46595
1.45776
1.45705
1.46273
1.47242
1.50305
1.55487
1.58775
1.60537
1.61809
1.62784
1.62465
1.59296
1.56485
1.55743
1.5623
1.57257
1.58786
1.62517
1.67617
1.71288
1.73624
1.75426
1.76172
1.75654
1.73353
1.70591
1.69521
1.69992
1.71811
1.76006
1.79456
1.81883
3.44212
14.3697
1.13332
1.10533
1.10043
1.10366
1.10823
1.11744
1.15075
1.18847
1.20064
1.206
1.20931
1.20011
1.17433
1.16257
1.16253
1.16623
1.1743
1.19121
1.21538
1.2412
1.25399
1.25723
1.25196
1.24747
1.24461
1.23874
1.23977
1.24605
1.25463
1.25909
1.26257
1.27249
1.29032
1.30143
1.30918
1.31788
1.32642
1.33346
1.33208
1.32483
1.31892
1.31289
1.31032
1.3141
1.33212
1.36489
1.38772
1.40301
1.41275
1.41938
1.42199
1.40687
1.3856
1.37515
1.37493
1.38055
1.39007
1.4225
1.4671
1.49021
1.50153
1.50979
1.51646
1.50992
1.47972
1.45766
1.45322
1.4568
1.46437
1.47822
1.52153
1.57608
1.60459
1.6174
1.62641
1.6324
1.62436
1.59249
1.5686
1.56407
1.56945
1.58063
1.59888
1.6388
1.68476
1.71508
1.73477
1.75065
1.75678
1.75077
1.72845
1.70132
1.69026
1.69315
1.71248
1.75161
1.78495
3.49881
14.4136
1.13065
1.10654
1.10389
1.10689
1.11235
1.12812
1.16005
1.18872
1.20178
1.20577
1.19979
1.18712
1.17819
1.17089
1.17251
1.18013
1.19279
1.20061
1.20836
1.22272
1.23471
1.23946
1.24251
1.24989
1.2575
1.26303
1.26201
1.26098
1.26001
1.25345
1.24716
1.24936
1.2658
1.29389
1.31503
1.33121
1.34175
1.34828
1.35039
1.33573
1.31242
1.2998
1.29956
1.30444
1.31553
1.35165
1.3934
1.41269
1.42156
1.42729
1.43023
1.41928
1.38851
1.37302
1.37269
1.37771
1.38485
1.40283
1.45097
1.49014
1.50511
1.5125
1.51695
1.51898
1.5045
1.47248
1.45813
1.46027
1.46947
1.47935
1.4916
1.53302
1.58171
1.60558
1.61779
1.62798
1.63618
1.62909
1.60029
1.57904
1.57462
1.58015
1.59027
1.60723
1.64603
1.68693
1.71335
1.7319
1.74688
1.75429
1.74924
1.72572
1.69633
1.68229
1.68295
1.70022
1.74233
3.54495
14.4599
1.12638
1.11466
1.11455
1.12052
1.13248
1.14543
1.15924
1.17547
1.1845
1.18571
1.1837
1.18731
1.19003
1.19246
1.19545
1.20043
1.20458
1.2024
1.19505
1.19617
1.20981
1.23036
1.24846
1.26441
1.27631
1.28265
1.284
1.27356
1.25443
1.23861
1.23626
1.24017
1.24992
1.28341
1.32413
1.34422
1.35255
1.35753
1.35955
1.34535
1.31135
1.29826
1.30016
1.30531
1.31347
1.34133
1.39099
1.41574
1.42429
1.42809
1.42647
1.41993
1.40142
1.38029
1.37675
1.38266
1.39322
1.40321
1.42248
1.46652
1.49463
1.50471
1.51006
1.51714
1.52396
1.51009
1.48279
1.47245
1.47256
1.47558
1.48158
1.49314
1.53344
1.58279
1.61005
1.62501
1.63652
1.64451
1.63974
1.61366
1.58985
1.58096
1.58316
1.59117
1.6103
1.65165
1.69042
1.71613
1.73557
1.75062
1.7559
1.7475
1.72072
1.68713
1.66741
1.66514
1.69085
3.56402
14.5038
1.12661
1.1296
1.13512
1.14434
1.15
1.15232
1.15155
1.15225
1.16088
1.16948
1.1788
1.19363
1.20887
1.21676
1.21873
1.21472
1.20405
1.18716
1.18182
1.18415
1.19187
1.22061
1.25922
1.28003
1.28813
1.29303
1.29549
1.28284
1.24761
1.23369
1.23542
1.24019
1.24805
1.27809
1.32717
1.34854
1.3561
1.35977
1.35357
1.3372
1.3179
1.30503
1.30581
1.31354
1.32708
1.34247
1.37186
1.40219
1.41363
1.41638
1.41687
1.42204
1.42396
1.40925
1.396
1.39528
1.39817
1.40055
1.40485
1.42185
1.46462
1.494
1.50925
1.52218
1.53168
1.53764
1.52156
1.49143
1.47585
1.47261
1.4742
1.47947
1.49192
1.53398
1.58655
1.61762
1.63506
1.64774
1.65483
1.64888
1.62033
1.59092
1.57991
1.58358
1.5934
1.61564
1.66004
1.69916
1.72371
1.73959
1.7502
1.75127
1.74058
1.71142
1.67591
1.64963
1.63857
3.54496
14.5522
1.13183
1.14771
1.15692
1.16194
1.16095
1.14716
1.13611
1.13587
1.14323
1.16226
1.18765
1.21076
1.22298
1.22872
1.23191
1.22132
1.19069
1.17729
1.17829
1.18243
1.19099
1.22122
1.26514
1.2836
1.2907
1.29495
1.29141
1.27009
1.2477
1.23835
1.23951
1.2452
1.26042
1.28793
1.32152
1.34324
1.35026
1.34641
1.34068
1.33972
1.33331
1.32601
1.32611
1.33226
1.33823
1.34063
1.34465
1.36652
1.39465
1.40861
1.41846
1.42896
1.43925
1.44272
1.42546
1.40686
1.39825
1.39221
1.3919
1.39806
1.42173
1.47342
1.51112
1.52713
1.53648
1.54486
1.54911
1.52924
1.49406
1.47457
1.47105
1.47586
1.48374
1.49795
1.54396
1.59835
1.62749
1.64203
1.65242
1.65618
1.64792
1.61992
1.59247
1.58373
1.58671
1.597
1.62257
1.66811
1.70438
1.72524
1.73808
1.74486
1.74328
1.7313
1.70087
1.65781
1.61514
3.48403
14.6072
1.14611
1.16246
1.16778
1.16729
1.15121
1.13323
1.12878
1.13113
1.13862
1.16823
1.206
1.22136
1.22715
1.2319
1.23158
1.20852
1.18498
1.17977
1.18187
1.18636
1.201
1.23744
1.26831
1.28378
1.29018
1.28697
1.27423
1.26457
1.25455
1.25068
1.2552
1.26737
1.27817
1.28484
1.30004
1.31815
1.32765
1.33163
1.33719
1.34645
1.35582
1.35777
1.34881
1.34206
1.33595
1.3285
1.32722
1.33541
1.36769
1.40491
1.42808
1.44399
1.45287
1.45876
1.45336
1.42339
1.39609
1.38599
1.38673
1.39235
1.40043
1.43323
1.49327
1.527
1.53987
1.54777
1.55478
1.55509
1.52725
1.49024
1.47592
1.47753
1.48539
1.4966
1.51291
1.55607
1.60175
1.62557
1.63841
1.64818
1.65327
1.64809
1.62438
1.59914
1.58915
1.59056
1.59875
1.62374
1.66884
1.70304
1.72178
1.73277
1.7379
1.7359
1.72288
1.684
1.62139
3.39734
14.6658
1.15964
1.17016
1.17117
1.15321
1.13117
1.12633
1.12895
1.13312
1.14506
1.18703
1.21758
1.22733
1.23234
1.23091
1.21278
1.19462
1.18582
1.18468
1.18869
1.20089
1.22065
1.24234
1.2643
1.27412
1.27394
1.26565
1.26527
1.26982
1.2714
1.2733
1.27791
1.2833
1.28342
1.27669
1.27458
1.28454
1.30913
1.33028
1.34806
1.36374
1.37343
1.37835
1.37106
1.34734
1.32412
1.31442
1.31608
1.32185
1.33982
1.39107
1.43457
1.45127
1.45939
1.465
1.46612
1.44725
1.40758
1.3889
1.38856
1.39468
1.40499
1.41887
1.45258
1.50525
1.53264
1.54319
1.54675
1.54882
1.5503
1.53169
1.50496
1.49407
1.49511
1.50006
1.50642
1.51742
1.55418
1.59751
1.62238
1.6369
1.64813
1.65711
1.65772
1.63393
1.60334
1.58867
1.58778
1.59432
1.61889
1.66449
1.69971
1.71884
1.72854
1.73168
1.73041
1.71118
1.65676
3.32103
14.7285
1.16913
1.17552
1.15846
1.13119
1.12176
1.1236
1.12757
1.13629
1.16474
1.19988
1.22091
1.22969
1.23003
1.21604
1.20327
1.19628
1.19315
1.19773
1.21104
1.22504
1.23025
1.23339
1.24023
1.25155
1.25797
1.26278
1.27056
1.28308
1.29573
1.30156
1.29871
1.28734
1.27101
1.26081
1.26145
1.26799
1.29146
1.33369
1.3657
1.37999
1.38605
1.38887
1.38347
1.35099
1.31963
1.31282
1.3163
1.32215
1.3339
1.36925
1.42512
1.45129
1.45947
1.45903
1.45422
1.4507
1.437
1.41341
1.40523
1.4091
1.41682
1.42228
1.42779
1.44879
1.49428
1.52329
1.53619
1.54739
1.55857
1.56591
1.55239
1.52404
1.50639
1.49941
1.49706
1.50145
1.5147
1.55486
1.5999
1.62762
1.64647
1.65994
1.66745
1.66474
1.63638
1.60089
1.58362
1.58208
1.58758
1.61233
1.66151
1.69897
1.71765
1.72487
1.72682
1.72046
1.69696
3.28718
14.7893
1.17835
1.17759
1.1441
1.12827
1.12445
1.1266
1.13581
1.15656
1.17762
1.19825
1.21253
1.21571
1.20877
1.20428
1.20811
1.20991
1.21424
1.22158
1.22813
1.2313
1.2252
1.214
1.21251
1.22403
1.24761
1.27081
1.29279
1.30675
1.31321
1.31656
1.31052
1.2806
1.2551
1.25008
1.2535
1.2597
1.27852
1.33318
1.37204
1.38479
1.39132
1.39376
1.38208
1.35623
1.32858
1.31932
1.32309
1.33612
1.3517
1.36365
1.38893
1.4231
1.43919
1.44489
1.4497
1.45674
1.46481
1.45977
1.43741
1.4248
1.42105
1.41585
1.41286
1.41796
1.44037
1.49194
1.53373
1.55513
1.56785
1.5773
1.58174
1.56561
1.5286
1.50111
1.49332
1.49629
1.50308
1.51904
1.5664
1.61487
1.64097
1.65431
1.66384
1.66895
1.66396
1.63267
1.59592
1.57857
1.57625
1.58251
1.61023
1.663
1.69998
1.71374
1.71742
1.71405
1.72005
3.3058
14.8473
1.17341
1.16219
1.14644
1.13618
1.13648
1.14499
1.16197
1.17205
1.17574
1.17793
1.1828
1.19317
1.20148
1.2096
1.22038
1.23475
1.24321
1.24573
1.24061
1.22377
1.20292
1.19634
1.1992
1.20728
1.23574
1.28401
1.31409
1.32424
1.32833
1.32513
1.30561
1.27374
1.25462
1.25188
1.2551
1.26339
1.28434
1.3227
1.36501
1.38196
1.38553
1.37691
1.37159
1.36958
1.35825
1.3471
1.34666
1.35196
1.35662
1.35621
1.35604
1.37179
1.40901
1.43656
1.45405
1.47155
1.48344
1.48961
1.47835
1.44613
1.41954
1.40722
1.40489
1.40915
1.41659
1.444
1.50667
1.55163
1.56858
1.57692
1.5829
1.58211
1.56181
1.52408
1.50119
1.49754
1.5027
1.51322
1.53317
1.58043
1.62174
1.64164
1.65196
1.65976
1.66408
1.66044
1.63314
1.59802
1.57977
1.57591
1.57977
1.60781
1.65871
1.69055
1.70215
1.70066
1.72703
3.36696
14.9064
1.15571
1.15501
1.15838
1.16086
1.16435
1.16885
1.17334
1.17395
1.16223
1.15357
1.15669
1.17335
1.20151
1.2279
1.24711
1.25632
1.26027
1.26041
1.2467
1.20912
1.1905
1.18995
1.19381
1.2006
1.22846
1.28804
1.31871
1.3283
1.33273
1.32709
1.30558
1.27885
1.26195
1.26069
1.26885
1.28597
1.29744
1.30546
1.32716
1.35263
1.3635
1.36819
1.37409
1.38248
1.3917
1.38919
1.37374
1.36097
1.34973
1.33858
1.33702
1.34281
1.36584
1.41702
1.46027
1.48151
1.49207
1.49896
1.50149
1.48111
1.43526
1.40991
1.40599
1.41049
1.41926
1.43309
1.4629
1.51791
1.55237
1.56515
1.57068
1.57211
1.57323
1.56346
1.53685
1.51768
1.51301
1.51482
1.51985
1.5343
1.57656
1.61657
1.63672
1.64795
1.6576
1.66672
1.66856
1.64218
1.6013
1.5763
1.56994
1.57135
1.59709
1.64696
1.6785
1.68602
1.71833
3.45064
14.9626
1.14883
1.16342
1.17572
1.18677
1.19203
1.19132
1.18002
1.15819
1.14173
1.13933
1.14259
1.15309
1.19291
1.24094
1.26224
1.26963
1.27306
1.26786
1.23669
1.20684
1.19393
1.19324
1.19783
1.21293
1.24143
1.27837
1.30873
1.31877
1.31568
1.30667
1.30528
1.30036
1.29044
1.28706
1.29096
1.29636
1.2981
1.29236
1.29089
1.30736
1.34173
1.36869
1.38845
1.40527
1.41438
1.41757
1.40361
1.36996
1.34153
1.331
1.33205
1.33715
1.34529
1.37919
1.44602
1.48174
1.49307
1.49714
1.49439
1.48681
1.46767
1.43705
1.42345
1.42509
1.43314
1.4412
1.44748
1.46367
1.50699
1.54086
1.55607
1.56493
1.57516
1.5843
1.58209
1.55506
1.5274
1.51349
1.50984
1.51207
1.52658
1.5718
1.61581
1.64072
1.65778
1.66986
1.67595
1.67397
1.64455
1.59723
1.56641
1.55836
1.56067
1.58703
1.63784
1.66451
1.70298
3.53817
15.016
1.14318
1.18032
1.19618
1.20343
1.20645
1.20561
1.18767
1.15161
1.13878
1.14016
1.14381
1.15143
1.18444
1.24105
1.26507
1.2723
1.27196
1.25628
1.23697
1.2168
1.20692
1.20897
1.22007
1.23562
1.24375
1.25312
1.27076
1.28992
1.29949
1.30506
1.31214
1.32158
1.32792
1.32306
1.31078
1.29847
1.28364
1.27411
1.27464
1.28106
1.30695
1.35934
1.39989
1.41767
1.42609
1.43073
1.4273
1.39343
1.34983
1.33451
1.33518
1.34238
1.35689
1.37497
1.40578
1.44999
1.47278
1.48021
1.48363
1.48835
1.4931
1.48656
1.46456
1.44902
1.44367
1.44046
1.43601
1.43891
1.45494
1.50043
1.54244
1.56658
1.58131
1.59224
1.5996
1.59533
1.56159
1.52366
1.50554
1.50393
1.50887
1.52447
1.57301
1.62443
1.65076
1.66209
1.66943
1.67425
1.67167
1.64176
1.59207
1.55928
1.54925
1.55061
1.5809
1.62518
1.67485
3.61853
15.0588
1.13432
1.18923
1.2071
1.2133
1.21637
1.2075
1.17692
1.15411
1.14501
1.14606
1.15215
1.16858
1.1936
1.22627
1.25023
1.25599
1.25078
1.24504
1.24491
1.24136
1.23649
1.23569
1.23913
1.24305
1.24071
1.23203
1.23347
1.25348
1.28762
1.31243
1.33028
1.34353
1.35028
1.35052
1.33239
1.29869
1.27442
1.26813
1.27075
1.27555
1.28649
1.33173
1.39453
1.4194
1.42679
1.42605
1.41715
1.40577
1.38233
1.36008
1.35528
1.36045
1.36776
1.37323
1.3769
1.39167
1.43062
1.46264
1.48022
1.49443
1.50844
1.51629
1.5124
1.48634
1.45652
1.43649
1.42904
1.42974
1.43529
1.45408
1.50775
1.55806
1.58226
1.59272
1.5999
1.60333
1.59509
1.55699
1.51969
1.50624
1.50618
1.51176
1.52932
1.57771
1.62505
1.64721
1.65773
1.66498
1.66979
1.66634
1.63929
1.59088
1.55468
1.54199
1.54312
1.56894
1.63203
3.67298
15.0922
1.13168
1.18898
1.20942
1.21518
1.21466
1.19975
1.17951
1.16337
1.16013
1.16448
1.17667
1.18716
1.19195
1.19904
1.21578
1.23393
1.2428
1.24908
1.25638
1.26575
1.27044
1.26589
1.25484
1.24035
1.22378
1.21726
1.21961
1.22769
1.25923
1.31051
1.34269
1.35662
1.3629
1.36596
1.35526
1.31244
1.27922
1.27187
1.27476
1.28423
1.30023
1.31999
1.35713
1.39451
1.40845
1.41167
1.41416
1.41778
1.41826
1.40488
1.38598
1.37627
1.37188
1.36502
1.3593
1.36233
1.37734
1.42285
1.47161
1.50063
1.51435
1.52269
1.52841
1.52366
1.48889
1.44835
1.43045
1.42928
1.4345
1.44329
1.46838
1.52679
1.56876
1.58444
1.59084
1.59266
1.59351
1.58947
1.56212
1.53124
1.51685
1.5144
1.51689
1.52786
1.57032
1.61807
1.64237
1.65365
1.66126
1.66703
1.66628
1.64205
1.59352
1.55259
1.53373
1.52633
1.57512
3.69103
15.1238
1.13679
1.17947
1.19861
1.20216
1.19866
1.19464
1.18981
1.18367
1.18264
1.18599
1.19067
1.19271
1.1844
1.17921
1.18403
1.20797
1.23958
1.26001
1.27555
1.28445
1.28858
1.28727
1.26924
1.23584
1.2163
1.21399
1.21751
1.22252
1.23769
1.29327
1.34352
1.35909
1.36427
1.36135
1.35082
1.33334
1.30558
1.2918
1.29304
1.3006
1.30771
1.31295
1.31919
1.34251
1.37866
1.40258
1.41726
1.43004
1.43935
1.44238
1.42852
1.40115
1.37687
1.36144
1.35646
1.35875
1.36396
1.37827
1.43344
1.49012
1.51269
1.52115
1.52535
1.52386
1.51452
1.48432
1.45363
1.44299
1.44579
1.4537
1.46222
1.47902
1.52262
1.55828
1.57444
1.5829
1.59125
1.60023
1.60306
1.5795
1.54248
1.51887
1.51056
1.5113
1.51885
1.55788
1.60843
1.63769
1.6536
1.66355
1.66827
1.66651
1.64446
1.59573
1.54966
1.51506
1.51384
3.65956
15.1579
1.13648
1.1582
1.17809
1.18985
1.19534
1.19992
1.20443
1.20783
1.20601
1.20206
1.19608
1.18336
1.17295
1.17219
1.17584
1.1863
1.22321
1.26644
1.28734
1.296
1.30014
1.29955
1.28022
1.24184
1.22057
1.21782
1.22159
1.23136
1.24671
1.27148
1.31571
1.3438
1.35148
1.35256
1.35299
1.35201
1.34332
1.32576
1.31446
1.31138
1.3098
1.3049
1.30195
1.30647
1.32903
1.37584
1.4153
1.43645
1.4474
1.45439
1.45792
1.44227
1.40213
1.37071
1.36037
1.362
1.36841
1.3799
1.39891
1.44538
1.48867
1.50576
1.51164
1.51467
1.51813
1.51936
1.50238
1.47615
1.46189
1.45699
1.45399
1.45534
1.46867
1.51128
1.55404
1.57826
1.59395
1.60684
1.61572
1.61776
1.59192
1.54586
1.51395
1.50356
1.50483
1.51123
1.54872
1.60557
1.64095
1.65746
1.6649
1.66624
1.66079
1.63818
1.59206
1.53211
1.48795
3.5778
15.2015
1.13388
1.13746
1.15283
1.18096
1.20044
1.2128
1.22029
1.22425
1.22381
1.21451
1.19477
1.17561
1.16917
1.17071
1.17452
1.18048
1.20484
1.25979
1.2895
1.29839
1.30149
1.29727
1.2856
1.26205
1.23896
1.23308
1.23706
1.24529
1.25222
1.25782
1.27199
1.30608
1.33405
1.3482
1.35727
1.36577
1.37148
1.36678
1.34617
1.32645
1.31185
1.30073
1.29586
1.29775
1.30305
1.32609
1.38525
1.43176
1.44872
1.45568
1.45942
1.45709
1.44003
1.40557
1.38119
1.37518
1.37829
1.3839
1.38914
1.39912
1.43724
1.48022
1.50138
1.51228
1.52388
1.53303
1.53698
1.52265
1.49042
1.46313
1.44903
1.44598
1.44833
1.46037
1.50487
1.55868
1.59141
1.60673
1.61504
1.62087
1.6211
1.59271
1.54215
1.50991
1.50039
1.50131
1.50866
1.54703
1.60649
1.64241
1.65537
1.65839
1.65676
1.64892
1.62909
1.57764
1.50881
3.46845
15.2687
1.12845
1.13025
1.13636
1.16232
1.20028
1.2218
1.23128
1.23543
1.23616
1.22582
1.20029
1.17936
1.17304
1.17497
1.18039
1.1886
1.20094
1.23265
1.27292
1.28868
1.2928
1.29415
1.29334
1.2863
1.2697
1.25605
1.25238
1.25386
1.25503
1.25237
1.25053
1.25839
1.29315
1.33378
1.35988
1.37663
1.38746
1.39282
1.38794
1.35946
1.32423
1.30183
1.29545
1.29777
1.30267
1.31098
1.33983
1.40036
1.43834
1.45051
1.45458
1.45708
1.45876
1.44898
1.42099
1.39732
1.38743
1.38502
1.3854
1.38826
1.39583
1.42941
1.47789
1.50773
1.52341
1.53394
1.54233
1.54791
1.53601
1.49503
1.45872
1.44449
1.4432
1.44753
1.45993
1.51051
1.57033
1.59894
1.60939
1.61495
1.61655
1.61326
1.58984
1.54603
1.51559
1.50536
1.50479
1.50864
1.5421
1.59862
1.63219
1.64359
1.64654
1.64553
1.64074
1.61687
1.56746
3.38317
15.35
1.12812
1.1287
1.13257
1.14351
1.18371
1.22156
1.2347
1.24028
1.24264
1.23884
1.21829
1.19351
1.18365
1.18442
1.18846
1.19358
1.19853
1.20707
1.23527
1.26979
1.28711
1.29472
1.29946
1.30447
1.30521
1.29081
1.27367
1.26388
1.25581
1.24388
1.23803
1.2405
1.25033
1.29222
1.3505
1.38238
1.39457
1.40147
1.40506
1.39681
1.3549
1.31411
1.30078
1.30173
1.30865
1.31917
1.32938
1.35035
1.39815
1.43309
1.44781
1.45467
1.45827
1.46245
1.46203
1.44363
1.41748
1.39884
1.38957
1.38678
1.38822
1.39428
1.42469
1.47962
1.51605
1.53342
1.54305
1.54946
1.55317
1.53717
1.49143
1.45759
1.44846
1.4514
1.45878
1.4713
1.5132
1.56604
1.59261
1.60256
1.60821
1.61318
1.61518
1.59991
1.55829
1.52144
1.50423
1.50022
1.50117
1.52904
1.58687
1.62393
1.63687
1.63884
1.63882
1.6301
1.62347
3.35513
15.4235
1.13124
1.132
1.13575
1.13996
1.15588
1.20033
1.22852
1.23723
1.24124
1.24453
1.24196
1.22085
1.20016
1.19337
1.194
1.19662
1.19829
1.19837
1.20194
1.22653
1.2673
1.29276
1.30812
1.32099
1.32757
1.32693
1.30744
1.27862
1.25259
1.23701
1.23481
1.23852
1.2438
1.25898
1.31518
1.37538
1.39573
1.4015
1.39931
1.39118
1.37997
1.35252
1.32773
1.32103
1.32395
1.32977
1.33435
1.33604
1.34293
1.37768
1.41976
1.44244
1.45452
1.46691
1.47745
1.48215
1.467
1.43116
1.40122
1.3872
1.38405
1.38716
1.39466
1.42927
1.49271
1.52924
1.5416
1.5471
1.54861
1.54818
1.53617
1.50095
1.47186
1.46119
1.45954
1.46134
1.46765
1.50256
1.5566
1.58819
1.60273
1.61186
1.61853
1.62199
1.61045
1.56728
1.52169
1.49767
1.49121
1.49242
1.51883
1.57802
1.61819
1.63169
1.6346
1.62655
1.65263
3.38694
15.4842
1.13772
1.13446
1.13699
1.14062
1.14487
1.16306
1.20662
1.23308
1.2429
1.24748
1.25132
1.25059
1.23108
1.21101
1.20359
1.20144
1.1973
1.19103
1.19135
1.19643
1.22379
1.2774
1.31424
1.33037
1.33884
1.34353
1.34045
1.30624
1.26071
1.2415
1.23954
1.24403
1.25605
1.27129
1.28876
1.3274
1.36591
1.38019
1.38369
1.38665
1.3914
1.3948
1.38278
1.36002
1.34634
1.34047
1.33293
1.32261
1.32141
1.32915
1.36469
1.42062
1.45853
1.47728
1.4871
1.49252
1.4923
1.4731
1.42606
1.39281
1.38461
1.38779
1.3951
1.40713
1.44203
1.49711
1.52685
1.53768
1.54295
1.54805
1.55303
1.54913
1.52082
1.4869
1.46642
1.45875
1.45915
1.4645
1.49103
1.54569
1.58567
1.60512
1.61468
1.62073
1.62501
1.6183
1.574
1.52028
1.492
1.48372
1.48357
1.50953
1.57308
1.61338
1.62601
1.61966
1.66189
3.45635
15.54
1.14645
1.13553
1.13787
1.14131
1.14404
1.1475
1.16488
1.20941
1.23882
1.25143
1.25954
1.26444
1.26357
1.24458
1.22142
1.20567
1.19327
1.18875
1.1909
1.19498
1.20269
1.23845
1.30146
1.33115
1.33943
1.34055
1.33317
1.32183
1.29565
1.26918
1.26164
1.26483
1.27191
1.27716
1.27983
1.28107
1.30236
1.34448
1.37309
1.38982
1.40632
1.41851
1.42328
1.41191
1.38003
1.34727
1.32456
1.31587
1.31696
1.32153
1.33111
1.37438
1.44351
1.47577
1.48529
1.48829
1.48489
1.47771
1.46288
1.42958
1.40731
1.40335
1.40756
1.41365
1.41865
1.43639
1.48193
1.51733
1.53454
1.54481
1.55462
1.56426
1.56641
1.54121
1.49815
1.46908
1.45735
1.45301
1.45527
1.479
1.53953
1.58792
1.60928
1.61969
1.62501
1.62649
1.61704
1.5696
1.51348
1.48362
1.47602
1.4778
1.50914
1.56959
1.60467
1.60723
1.65552
3.54585
15.5959
1.1675
1.14412
1.14234
1.14311
1.14347
1.14551
1.14934
1.16799
1.21731
1.25158
1.26484
1.27152
1.27642
1.27665
1.25115
1.21521
1.19737
1.19382
1.19654
1.20345
1.21113
1.2203
1.25294
1.30073
1.32164
1.32729
1.3306
1.3344
1.3339
1.31793
1.29537
1.28359
1.27973
1.27455
1.26416
1.26086
1.26507
1.28595
1.33949
1.38913
1.41486
1.4262
1.4328
1.43595
1.42317
1.37622
1.33396
1.31994
1.32047
1.32732
1.34209
1.36136
1.39679
1.44275
1.46363
1.4689
1.46912
1.47198
1.47763
1.4797
1.46034
1.43472
1.42064
1.41295
1.40506
1.40457
1.41823
1.46456
1.51151
1.5396
1.55971
1.57214
1.5784
1.57793
1.54885
1.4951
1.45832
1.44772
1.44885
1.45368
1.47911
1.54805
1.59794
1.61348
1.61781
1.61854
1.61669
1.60799
1.56902
1.51586
1.48426
1.47565
1.47566
1.50442
1.55842
1.58036
1.63583
3.64399
15.6455
1.19645
1.16515
1.14933
1.14441
1.14413
1.14655
1.15
1.15488
1.17619
1.22866
1.26163
1.27237
1.27729
1.27843
1.27523
1.25101
1.22031
1.20833
1.20779
1.21085
1.21442
1.21774
1.22204
1.24419
1.28913
1.31969
1.33571
1.34634
1.35489
1.35738
1.34241
1.31311
1.28777
1.26995
1.2609
1.25986
1.26316
1.26844
1.28975
1.35604
1.40905
1.42585
1.43116
1.42873
1.41848
1.40409
1.37453
1.35036
1.34444
1.34842
1.35458
1.3592
1.36276
1.37865
1.41789
1.4475
1.46237
1.476
1.49345
1.50411
1.50508
1.48188
1.44316
1.41151
1.39578
1.39242
1.39513
1.40887
1.46503
1.53071
1.56057
1.57062
1.57626
1.5785
1.57345
1.54192
1.49044
1.46169
1.45575
1.45966
1.46818
1.48858
1.54441
1.58599
1.59917
1.60361
1.60817
1.61317
1.61244
1.57957
1.52136
1.48099
1.46807
1.46631
1.49283
1.53548
1.60365
3.7361
15.6821
1.21355
1.20032
1.16717
1.15045
1.1475
1.14984
1.15329
1.1568
1.16139
1.18291
1.23536
1.26586
1.2748
1.27963
1.28448
1.28348
1.2598
1.2298
1.21575
1.21236
1.21297
1.21395
1.2144
1.21817
1.23615
1.2848
1.32892
1.35083
1.36063
1.36647
1.37005
1.35969
1.32005
1.28211
1.26622
1.26474
1.26928
1.27941
1.29225
1.31312
1.36153
1.39898
1.41105
1.41376
1.41635
1.4194
1.41934
1.40546
1.38357
1.3688
1.36033
1.35133
1.34262