/*--------------------------------*- C++ -*----------------------------------*\
  =========                 |
  \\      /  F ield         | OpenFOAM: The Open Source CFD Toolbox
   \\    /   O peration     | Website:  https://openfoam.org
    \\  /    A nd           | Version:  12
     \\/     M anipulation  |
\*---------------------------------------------------------------------------*/
FoamFile
{
    format      ascii;
    class       volScalarField;
    location    "7.01";
    object      p;
}
// * * * * * * * * * * * * * * * * * * * * * * * * * * * * * * * * * * * * * //

dimensions      [1 -1 -2 0 0 0 0];

internalField   nonuniform List<scalar> 
22702
(
1
1
0.868632
1
1.05499
1
1.47452
1
1
0.690311
1.47135
1.47631
1
1.47092
0.885125
1
1
1
1.47089
1
1.47225
1
1.46537
0.655307
1.47194
0.658757
1
1.46896
0.683786
0.654702
1
1.47561
1
1
1
1.43542
1.47111
1.46621
1
1
0.65561
1
1.23326
1
1.46649
1
1
1
1
0.662669
1
0.652635
1
1.47127
1
1.47273
1
1
1
1
0.643626
1
1
0.670734
1
0.646832
1
1
1
0.66194
1
1.47473
1.28462
1
1.47636
1.50246
0.650388
1.4725
0.65443
1
1.46906
0.661517
1.47101
1.47016
1
1
1
1
0.925888
0.670729
1.47275
1
1
0.666951
1
1.4724
0.666809
1
1
1
1
1.23199
1.46955
0.656846
1
1
1.11377
1
0.655751
1
1.47278
1.47346
1
1
0.641974
0.649316
0.680192
1
1
1
1
1
0.912729
1
1.40198
1.04467
1.47452
1
1.47596
1.47069
1.47145
1.47418
1
0.638938
1
0.645244
1
1
1
1
1.47254
1
1
1
1
1.46738
1
1.02722
1
1
1
1
0.663708
1
1.01064
1
0.655386
1
1
1
1.47139
1
1.46827
0.66167
0.653106
1.47913
1.47361
1
1.0734
1.26126
1
1.46998
0.654482
1.43609
1
1
1
1
1.47099
1.38659
1
1.472
0.646997
1.4703
1
0.669113
1
0.661728
0.654737
0.999784
1
1
1.47198
1
1
1.47025
1
1.47198
1.47189
0.662755
1
1
0.663648
1.47146
1
1
1
1.47131
1
0.667368
1
1
1.4715
1.47125
1.47255
1
1.00004
1
1
1
1.47146
1
0.637721
1.49842
1.47156
1.47074
1
1
1
0.642693
1.47093
1.22356
1
1.47329
0.650638
0.658342
1.47329
1.46927
1
1.4799
0.632629
1.41529
1
1
1
1
1.47069
1
1.27627
1.04268
1
1
1.47203
0.655204
0.768331
1
1.47071
0.664976
1.47909
1
1
1
1
1
1
1
0.657683
0.752436
0.658
1.47125
1
1
1
1
1.41195
1
0.656191
1
0.637708
0.662632
1.47186
0.654135
1.47202
1
1
1
0.997682
0.666177
0.641115
0.999999
1
0.633176
1
1.47121
0.658707
1
1
1.46955
0.667127
1
1.47401
0.653617
1.47157
1
0.646358
0.997677
1
1
1
0.64999
1
1
1
1.00002
1.00891
1.28684
1
0.666487
1
1
1
1
1
1
1
1.47214
1
1.47391
1
1
1
0.663608
1
1.4666
0.656811
1
1.37209
1
1
1.47261
1
1
1
1.4548
1
1
1.46994
1.47039
1
1.1012
1
1
0.650837
1
1
1
0.662162
1
1
1
1
0.666085
1
1
1
1
1
0.654476
1.00006
1.47035
1
0.999997
1.47501
1.47914
1
1
0.674204
0.818513
1.47226
1
1
1
1.47109
0.663371
1
1.46926
1
1
0.706245
0.691056
1
0.661377
0.664634
1
1
1
1
1
1
1
1.47158
1.1129
1.44632
0.656408
0.901483
1.471
1
1.47544
1.47336
0.647456
0.784606
1
0.664257
1
1.48653
1
1
1
1
1.47134
1
1
1
1
1
1
1
1.16675
1.46914
1
1.47112
1
1
0.664637
1
1
1
1
1.47135
1.35664
1
1
0.656492
1.47223
1.47116
1
1.4713
1.47075
1.47121
1
0.838993
1
1.47044
0.982174
1.4711
1
0.657052
0.998855
1.46967
1
1
1
1
0.654521
1.47131
1.4259
1
1.47113
1.47052
1.47038
1
1.21563
1.47249
1
1
1.31952
1.06849
1.47158
0.931292
1.47146
1
1.47132
1.47125
1.47128
1.47269
1
1.46418
0.898459
0.873625
1
0.999999
1
1
1.47365
1
1
1
1
1
1.47024
1
1
0.996022
1.47105
1.40116
1
1.38858
1.00004
1
1
1.47177
1
0.997116
1.00489
1
1.47103
1
1.47122
1
1
1.34842
1
1.47193
1.00002
1
1.47342
1
1.47128
1
1
1
1.4705
1
1.47183
1.00001
1.47104
1.47104
1.47144
1.47003
1
1.47181
1.4611
1
0.65894
1.44061
1.33799
1
1.47104
1
0.654165
0.652382
1
1
1
1
1
0.668719
1
1.47105
1.11892
1.4724
1
1
1
1
1
1.47134
1
1.47172
1.27783
0.78589
1
1.00001
1.13386
1.11615
1
1
1.16909
1
0.661092
1.47176
1.47143
1
1
1
1.47273
1
1.00003
1.47124
1.47117
0.955295
1
1
0.659393
1.42743
1
1
1
1
1
1.47107
1.47152
1
1.47341
1.47313
1.4715
1
1
1
1
0.657085
1.47353
1
1
1.42632
1.47022
1
1.44298
1.47379
1
1
1
1
1
1.47114
1
1
1
1
1.46949
1
1.46803
0.663754
1
0.649166
1
1
1
0.996822
0.666386
0.999045
1
1
1
1.05977
1
1
0.87101
1
1
1
1
1
1
1
0.999997
0.924479
0.999999
1
0.997597
1
0.657095
1
1
1
1
1.34893
1
1
1
1
0.664163
1
1
1.44302
1.4732
1
1
1
0.890171
1
1
1
1
1
1
0.953047
1.01156
1.47098
1
1
1
1.47539
0.898088
1
1
1
1.46457
1.47643
1
1.00001
1
1
1
1
1
1
1
0.662716
1
1
1.46982
0.667069
1
1.46916
1
0.662016
1
1
0.658932
1
1
1
1
1
1
1
1.46214
1.47048
1
1
1
1
1.42817
1
1.13735
0.662929
1
1
1
1
1
1
1
1.03856
1
1
1.249
1
1
1
1.38708
1
1
1
1
0.666163
1
1
0.662479
0.665626
1
1
1.47028
1
1.01512
1
1
1
1.32422
0.646784
1
0.639679
1
0.784804
1
1
1
1.47271
1
1
1.4711
1
1
1
1.47111
1
1
1.47171
1
1
0.64604
1
1.13339
1
1
1.47278
1.47024
1.30974
1.42006
1
0.658442
1
1
1.44968
1
0.661508
1
1
1
1.47193
1
1
1
1
1.27847
1
1.45076
1.4673
0.672883
1
1
0.655775
0.661512
1
1
1
1.32693
1.35624
1
1
1
1
1
1
1
1.19529
1.46933
1.01134
1
1.46591
0.636956
1
1
1
1.25339
1
1.09274
1
1.42905
1.46968
1
0.65797
1
1.47119
1
1
1.46967
1.44183
1
1.47171
1
0.686281
1
1
1
1.46053
1.4617
1.41264
1
1.47406
1.47198
1
1.47302
1
1.46942
1
0.664763
0.969216
0.66194
1
1
1
1
1
1.4723
1
1.47218
1
1
1
1.44779
1
0.649273
1.47117
1
0.66757
0.669508
0.648624
1
1.22613
1.03235
1.47271
1.47161
1
0.999999
1
1
1.47147
1
1
1.47148
1.47214
1
1.15721
1.00008
1
0.996783
1.47674
0.842484
1
0.81781
0.656215
0.663882
0.961162
1.4659
1.46481
1.08767
1.47153
1.47214
1
1
1.47282
1.47208
1.47224
1.46808
1
1.47188
0.662331
1.47324
1.46994
1.47188
1.47581
0.868585
0.898286
0.925736
1.47106
0.956212
1.47161
1
1
1.47299
1.47205
1
0.665426
1.47021
1.47208
1
1.47111
1.47161
1
1.47134
0.664648
1.47611
1.46967
1.47431
1.47609
1
1
1
1.47174
1.30109
0.663402
1.47115
0.663475
1.47083
1
1
1
1
1.47015
1.47185
1
1
1.47206
0.663225
1.47149
0.657036
1
1.46791
1
0.68791
1.47336
0.741445
1
1.47123
1.47439
1.47353
1
1
1.21535
1.4738
0.665685
1.4713
1
1.47125
0.88328
1.47349
0.663835
1
1.46989
0.671862
1.4732
0.656842
1
1.47168
1
1.47089
1
1.26973
1.45332
1.3673
0.653136
1
1.47074
1
1.47065
1
1.47145
1
1
1.47026
0.987228
1.4741
0.699618
1.43627
1
1.32936
1
1.47099
1.4714
1.47191
1
1.42132
1.4713
1.4361
1.28754
1.46674
1
1.30629
1
1.4697
1
1.06107
1
1.4361
1
1.47135
1.44797
1.44818
1
1.46663
0.65191
1
0.664085
1
1
1
1.47205
1
1.4722
1
1
1
1.47331
1.46134
1.38904
1.4698
1.47514
0.646637
1.47176
1.47004
1
1.402
1.47147
1.45574
1
1.47015
1.47427
1
1.47371
1.47235
1.47086
1.47295
1
1
1
1.47085
0.644989
1
1.4716
1
1
0.650674
1
1
1.47137
1.47076
1
1.47139
1.46452
1.47221
0.980659
1.47183
1
1.47173
1.47041
1.37892
1
1
1
1.47293
1.47151
1.47132
0.938998
1
1.48527
1.4714
1.46925
1
1.47184
1.46989
1.47156
1.48802
1
1.47111
1.47197
1.41213
1.47012
1.48662
1
1.47333
1.46592
1.47116
1.46995
1.46988
0.653966
1.46845
1.47183
1
1.47119
1.47096
1.47153
1.47206
1
1.47017
1.47086
1
1.47205
1.39226
1
1
1
1.47149
1.47161
1
1
1.24618
1
1.47154
1
1
1.472
1.47332
1.47126
1.4721
1
1
1
1.32509
1
1.47193
1
1
1.47694
1.46943
1
1.47156
0.645102
1.4713
1.47536
0.71609
1
0.647022
1.40673
1.47606
1.47133
1.47098
0.658211
1.47117
1.4736
0.657311
0.662759
1
1.47015
1.47118
1
1
1.47105
1
1.47049
1
1.41151
1
1.2153
1.47047
1.47438
1.31571
1.42756
1.47147
1.47064
1.45042
1
0.655026
1.47162
1.47188
1.47354
1.00001
1
1
1.47102
1
1.47137
1.47185
0.750003
1
1.47164
0.999941
1
1.00003
1.00004
1.47189
1.46902
0.998455
1
1
1.4708
1.47377
1.47169
1.47717
1.46952
0.676865
1.41906
1
1.46771
1.47081
1.47149
1.47533
1
1.47149
1.4584
1.47271
1
1.47137
1.47138
0.860788
1.47146
1.47179
1
1.47194
0.841069
1.47153
0.855959
1.47146
1
1.47143
1.47518
1.47144
1.47155
1.47176
1.47789
1.47203
1.47286
1
0.924775
1.47087
1.47108
0.84387
1.47162
0.987309
1.29321
1.47086
1.47727
1.47281
1
1.47424
1.30248
1.47038
0.922923
1.47381
1.48065
1
0.870561
1
1.46552
1
1.32126
1
1.43911
0.873469
1
1.46965
1.46559
1
1.46896
1.47294
1.47695
1.46952
1.47758
1
1.47165
1
1
1
0.895891
1.47178
1.47305
1.47678
1.47157
1.47344
1.47764
1.46646
1.47205
0.900738
1.03199
1
1
1.47854
1.47184
1.4712
1.47138
1.00003
1.23387
1
1.4724
1.41537
1
1
0.731991
1.47057
1
1
0.666074
1.47152
1
1.46933
1.47145
1.47116
1.45329
1.47147
1
0.655759
1.10873
1.47057
1.47136
1
1.47352
1.47101
1.22227
1.00938
1.10575
1
1.46928
1.47103
1
1
0.658626
1
1
1.47146
1.47163
1.47454
1.47134
1.47062
1.4751
1.472
1.46887
1.47133
1
0.996334
1.47131
1.47073
0.997011
1.47168
1.47035
0.658217
0.673195
1.47427
1.4728
1
1
1.00084
1.47212
1.47324
1.47144
1
1.47167
1
0.857423
1.4739
1.47817
1
1.19963
1.47467
1
1.47144
1
1.47184
1.30879
1.46985
1
1.47088
1.47959
0.657416
1.471
1
1.47219
1.4696
1
0.657606
1.47539
1.39485
0.997828
1.44922
1.47072
1
0.998303
1.46741
0.997976
1.4709
1
1
1.47206
1
1.47131
1.47132
0.996578
1.37118
1
1.47076
1
1
1
1
1.47126
1
1
1.46984
1
1.47106
1
1.30056
1.46972
1.47327
1
1
1.00031
1
1.47272
1.4719
1.47061
1.47122
1.47122
1.47217
1.47139
1
1.47212
1.47221
1
1.47182
1.47166
1
1.47196
0.923835
1.05918
1.47192
1.47171
1.47242
1
1.47108
1
1.47148
1.47163
1
1.47394
1
1
1
1
1.47054
0.656699
0.997917
1
1.47131
1.47909
1
1.4714
1
1.00562
0.660996
1.47172
0.999593
1
1.47128
0.998353
1.47121
1
0.999784
1
1.47009
1.47679
1.47245
1.47237
0.662615
1.47034
1.47027
1.47146
1.11098
1
1
1.19842
1.47097
0.648011
0.660408
1
1.47161
1.47212
1.47443
1
1
1.46908
1.47277
0.99988
1
1.33889
0.649227
1
1.07676
1.47033
1.47523
0.998239
1.47117
1.48345
1
0.999123
1
1.47279
1.47534
1.18533
1
1.43731
1
1.00263
1.4729
0.657955
1.47041
1.47122
0.997015
0.999912
1.40456
1
0.999698
1
1.4691
1
1.00001
0.644352
1.47225
1.00001
1
1
1
1.4664
1.26454
1
1
0.663715
1.47189
1.26638
1
1
1
1.44657
1.45815
1.47154
1
1
1.4796
1
1.47225
1.47119
1
1
1.47453
1.47092
1.45746
1
1
1.47424
1.47287
1
1
1
1.4733
1
1
1
1.47185
1.47482
1.4734
1
1.46685
1.00003
0.696407
1.47156
1.47161
1
1.47612
1.44703
1.47208
1
1
1.47607
1
1.24008
1.46943
1
0.658635
1
1.47411
1
1
1.47422
1
1
1
1.14572
1.46738
0.681343
1.00001
1.47218
1
1
1.47201
1
1.47635
1
1
1.47161
1.47242
1
1.00005
1
1
1
1
1
1
1.47024
1.47198
1
1.46977
0.65602
1.47139
1
1.47163
1.47994
1.47283
1.46823
1.46961
1
1
1.47445
1
1.27921
1.47647
1.47208
1
1.47318
1.46339
1
1.4094
1
1.47136
1.30084
1.47502
0.997623
1.46409
1.41412
1.47246
1.47232
1.03654
1.47192
1.47437
1
1.47099
1
1.47127
1
1
1
1
0.996507
1.47129
1.47122
1.3831
1
1.47034
1
1
1
0.62936
1
1.45875
1
1.4241
1.45769
1
1
1
1.44616
1.47639
1
1
1.47037
0.663711
1.08044
1
1.47666
1.47109
1.42909
1.45871
1.47128
1
1.47137
1
1
1
1
1.47354
1.47287
1
1.45932
1.04917
1.47237
1.43373
1
1
1.43644
1
1
0.653914
1.33418
1
1
1.47539
1
1.47556
1.42632
1
1.42456
0.663339
1.47177
1.47103
1.47328
1
0.649873
1
1
1
1.47182
1.37859
1
1.47876
1.4721
1
1.47227
1
1
1
1
1.4718
0.999359
1
1.47483
1
1
1.46796
1.47144
1
1.47482
1.09365
1.00002
1
1.47107
1
1.47052
1
1.01343
1.47158
1
1.47239
1
1
1.14181
1.47084
1
1
1
1
1
0.996283
0.650829
0.657167
1.02036
1
1.02376
1
1.02456
1
1.47173
1
1.28097
1
1.47265
1
1
1
1.47239
1
1.36627
1.4714
1
1.24541
1.47215
1
1
1.47245
1.47063
1
1
1.04276
0.652064
1
1.47345
1
1
1
1
1.07527
1.4713
1
1
1
0.670677
1
1.47168
1.47093
1.47731
1
1
1
1
1.23073
1.47684
1
1
1
1.4708
1.47204
1.04379
1
1
1
1.47497
1.47142
1
0.657912
1.47145
1.47202
1.47218
1.47253
1.47258
1
1
1.47779
1.46945
1.47165
0.673646
1.04139
1.47282
1
1
1
1
1
1.47163
0.660087
1
1
1.47143
1.20752
1
1.47844
1
1
1
0.659934
1
1
1.11956
1.47092
1.47042
1
1.47204
1.47921
1
1.07496
1
1.48107
1
1.46935
0.660944
1
1
1
1
1.4724
1.00006
1
1
1
1.45342
1
1
1
1
1.47101
0.66012
1.36786
1.47539
1
1.47166
1
1
1
0.997176
1
1.47194
1
0.809524
1
1
1.00004
1.46961
0.666031
1
1.47503
1
1.46756
1.4725
0.679243
1
1
1.45962
1
1
0.683086
1
1.4705
1
1.44547
0.999321
1.47225
1
1
1
1
1.46993
1
1
1.47073
1
1
1
1
1
1
1
1
1.30482
1
1.15187
1.46837
1
1
1
0.652467
1
1
1
1
1.47442
1.47149
1.04894
1
1
1.47332
1
1
1.47078
1
1.00002
1
1
1
1.00001
1.47209
0.787364
1.47245
1.4747
0.997126
1
1
1
1.2748
1
1
1.47305
1.47109
1
1
1
1
0.678575
1
1
1
1.29159
1
1.47329
1.47417
1
1.47341
1
1
1
1.25162
1
1.47376
1
1.47111
1
1
0.996182
1.47235
1
1
1
1
1
1.47512
1.00002
1
0.65505
1.47327
0.65513
1
1.46993
1
0.996093
1
1.47213
1.4776
1
1.47032
0.875512
1.47151
1.4784
1.00003
1
1
0.658758
1
1
1
1.47153
1.2659
1.46972
1
1
1
1
0.99673
1.47139
1
0.659784
1
1
1
1
1
1
1
1.48324
1.47401
1.47495
1
1
0.996923
1
0.980696
1
1
1
0.659018
0.982557
1
0.663876
0.654128
1
1.47358
1.47118
1
1.47442
1.47141
0.657383
1.30622
1
1
1
0.664075
1.47268
1
0.665712
1
1.48157
1.08663
1
1
1
1
1.47106
1.47848
1
1
1.4715
1
1
1.46663
1.47205
1
1.43869
1.4701
1.4643
0.962347
1.47053
1.00868
0.663012
1.35836
1.47188
1
1
1
0.663807
1
0.651246
1.47117
0.960977
1.47117
0.950805
1
1.47255
1.20655
1
1
1.47221
1
1.19252
1.47373
1
1
1.47713
1.46484
0.661194
1.27054
0.99989
1
1.27484
1
1.47231
0.939195
1.47165
1.47622
1
1
1
1
1.47134
1
1
1.47362
0.999633
1.47113
1.36868
1.46863
0.659125
1
1
1
1
1.47135
1.00005
1.4725
1
1.47163
1.47229
1.05827
1.46321
1.14128
1.47243
1
1.32049
0.677221
1.47951
1.47135
1.37336
1.08274
1.47769
1.47229
1.47312
1.4699
1
0.931962
1.06988
1
1.47124
1.22039
1.47185
1.00003
1
1
0.700998
1.47687
1.4745
1.38613
1
1.17093
1
1.47539
1.4761
1
1.473
1.47305
1
1
1
1.47168
1
1.17882
1.4705
1.32188
1
1.47229
1
1
1
1
1
1
1
1
1
1
0.673334
1
1.43969
0.65453
1.27327
0.998531
1.4772
1
1.24756
1.00001
1.30057
1.39664
1
1.00174
1.48019
0.92468
1
1.46948
1.4551
0.936853
1
1.47448
1.47107
1.47345
1
1.47133
1.47222
1.46987
1
1.2055
1
1.00006
1.47171
1
1.4713
1.06629
1.46921
1
1
1.47055
1.46869
0.703475
1
1.4715
1.35083
1.47092
1
1
1.4699
1.46939
0.99825
1
1.40972
0.996952
1.47144
1.00005
1
1
1
1
1.21174
1
1.35791
1.47211
1.34621
1.47345
1
1.00359
1
1
1.46371
1
1.46939
1
1
1
1
0.999999
1
1.05729
1.24426
1
1
0.636065
1
1.47478
0.669877
1.47889
1
1.24002
0.999764
1.4707
1.29473
0.6636
1.25595
1.00003
1.47207
1.47121
1
1.27706
1.46965
1.46964
0.998398
1.47209
1.45833
0.657202
1
1
0.997527
1
1.46212
1
0.660553
1.47495
1
1
1.41946
1
1.47288
1
1.47272
1
0.683577
1
1
1.4746
1.47271
1.47814
1
1.47067
1.47157
1.47263
1
1
1.45636
0.999999
0.73235
1
1
1
1.47323
1
1.47092
1.29929
1.46888
1
1.47255
0.999382
1
1
1
1
1
1
0.72575
1
1
1.47221
1
1.4772
1.47641
1
0.650484
0.662561
1
1.4727
1.07369
0.661529
0.635613
1
1.47446
1
1.47
0.65933
1.00131
1
1
0.999512
1
1
1
0.99991
1.19298
1.4725
1
1
1.47209
1.2756
1
1.41844
1.47358
1.47409
1.19417
1.47357
1
1.47184
1
1.46671
1
1.46743
1.46984
0.996797
1.47316
1.47234
1
1
1
1
1
0.924781
1.47743
1.00004
1.00003
0.626404
0.999987
0.655016
0.632469
1
1.47033
1.4712
1.47154
1
1.47168
1
0.66131
1
1
1.47228
0.833448
1.47096
1
1.47312
1
0.986763
1.4714
1
1
1
1.47427
1
1.47072
0.659862
1
1
1.26963
1
1
1.25554
1
1
1.47205
1
1
1
1
1
1.47986
1.47306
1
1.4687
1.46929
0.653428
1.20714
1.46971
1
1
1.42391
0.999004
1
1
1.47148
1.46844
1.30093
1
1.47081
0.655519
1.43166
0.999622
1
1.47408
1.00003
1.46957
1.40636
1.35591
1
1
1.47073
0.714971
0.660342
1
1.47104
1
1.47117
1
1.27709
1
1
1.46856
1.29432
0.664334
1
0.998273
1
1
1.02653
1.19132
1.47111
1
1.47777
1
1
1
1
1
1
1.06719
0.657849
1
1
1.03423
1
1
1
1
1
1.47044
1
1
1.47168
1.46966
1.33345
1
1
1
0.825228
1.47578
1.32497
1
1
1
1
1.47118
1
1
1
1.47301
1
1
1.33594
1.49064
1.04091
0.742626
1.47734
1.33117
1.46959
1
1.23015
1
1
1
0.644376
1.00256
0.647923
1
0.6595
0.642233
1
0.649456
1
1
1
1.20185
1
1.47247
1.47062
1.00129
1.21253
1.39543
0.666152
0.767113
0.888279
1
1.47234
1.47008
1.47231
1.47169
1.40465
0.877616
1
1.40575
1
1.44538
1
1
0.996502
1.00994
1
1
1
1.46837
1
0.643145
1
1.47272
0.642324
1
1
1.47191
1
1.47129
0.999771
1
1
1.47254
1.43718
1
1.48143
1
1
1.01454
1
1.19642
1
1
0.650247
1
1
1.47384
0.999999
1.46946
1
1.00003
0.644116
1
1
0.625246
1.00089
1
1.47105
0.654115
1.47144
0.662703
1.47145
1
1
1
1
1
1
1
1
1
1
1
1.45223
1
1.47342
1.47142
0.657596
1
1
1
1
1
1
1.45715
1
1
0.665482
1
1
1.47098
1
1
1.17481
1.39191
0.67016
0.652882
0.702193
0.758773
1
0.99644
0.62228
1.0003
1.42821
0.996926
1
1
1.47036
1
1
1
0.773758
1.00001
1.16572
1
1
1.18927
1.47237
1
0.656298
1
1
1
0.996364
1.00001
1.47356
1.47162
1
0.658339
1
1.25174
0.658011
1
0.894244
1
0.996454
0.639761
1
1
1
0.995373
0.675158
1
0.654829
0.998441
1.24613
1.42721
0.657979
0.664603
1
0.990659
1
0.998603
1
1.4726
1.46989
1
1.01733
1.47074
1.47202
1
1
1.47252
1
1
1.00004
1
1.47523
1
1
1.01852
1
0.998562
0.68686
1
1
1
1
1
1.47598
1.03539
1.00005
1
1
1
1
1
1.00003
1
0.658737
1.1042
0.998607
1.46782
1.47105
1
1.0146
1.47092
1.41265
1
1
0.644358
1.47373
1
1.471
1
1.47405
1.32045
0.657176
1
0.658274
1.42705
0.999677
1
0.658332
0.637937
1
1
1.39373
1
0.999998
0.650546
1
1
1
1.14899
1
0.657866
1.4732
1
1
1
1
1.47239
1
1
1.47562
1.42133
1
1
1
1.47029
0.655607
1
1.47076
1.47131
1
1.37485
0.999999
1.00003
1
1
1.43229
1.02143
1
0.643555
1.2491
1
1
0.997405
1
1
1.47622
1
1
1.00004
1
1.47581
1
1
1
1
1
1
1.00001
1.20735
1
1.47038
1
1
1.47302
1
1
1
1.47184
1.47484
1.04456
1
0.997512
1
1
1
1
1.47158
1
1
1.47108
0.660366
1
1
1
1
1
1
1.37776
1
1
1.47023
1.47199
1
1
1
1.47182
1.47417
1
0.999709
1.46933
1
1
1
1.00002
0.630852
1.02976
0.99592
0.995992
1
1
0.64895
1.47163
1
0.651927
1
1.47021
1.45121
0.667768
0.999398
1.47115
1.47457
1.47123
1
1
0.925478
1.4161
1.38612
0.645201
1
1
1
1.46816
1.47185
0.646917
0.997277
1
1.47153
0.629366
1
1.46903
0.650832
0.974319
1.00671
1
1.47952
1
1
1
1
1
1
1.00011
1.43731
1
1
1.47734
1
1
1
1.47127
1
0.659865
1
1
1
1.15971
1
1
1
1
1
0.794221
1
0.627036
1
1.47162
1.00006
0.872614
0.872392
1.00002
1.00425
1.24352
1
1
0.65323
1.47053
1.47134
1.47192
1
0.653091
0.658351
1
1.46999
1
1
1
1
1
1.00003
1
0.652154
1.30164
1
1
0.66308
0.989772
1.00001
1
1
1
0.639923
1
0.701709
1
1
1.47843
1
1
0.665143
1
1.47201
1
0.666506
1
0.65306
1
1.00784
1.47004
1.48902
1
1
1.47338
1
1
1.10577
0.996844
1
0.998168
1
1.47475
1
0.676891
1.00002
1.46737
0.998887
1
1
0.80297
1
0.999053
0.653318
1.47274
1.17097
1
1.00001
0.903654
1
1
1
0.799401
1
1
1
1.4717
1
0.653989
0.999999
1
1
1
0.657727
1.47139
1.42637
0.65811
1
1.46932
1
1
1.47175
1.47151
1.39611
0.646806
0.997695
0.999248
1
1.47047
1
1
1
1
1.4696
1.00004
1
1
1.47836
1
1
1.47152
0.657135
1
1
1
0.662621
1
0.999999
0.999999
0.998612
1
1
1
1
1.37264
1
1.47087
1.46784
1.47037
1.47178
1.47083
1.47116
1
1.4723
1
1.47187
1.47082
1
0.998785
0.65715
1.40244
0.999913
1
1
1
1
0.998762
1
1.07316
1
1
1
0.847702
1.4716
1.4708
1.46964
1.39584
0.99987
1
1.02334
1.47264
0.997936
1.0557
0.997139
0.655925
1
1.00002
1
1
1
1
1
1.4727
0.66342
1.47287
1.47136
0.995187
0.655737
1
1
1
1.47118
0.643752
1.41297
0.647772
1.47159
1.467
0.656238
1.4748
1.02456
1
1.47559
0.808745
1
0.998688
0.658327
1
0.648682
1
1.47116
1.4725
0.753121
1
1.47185
0.657038
1
0.665273
1
1.47148
1
1
1.4739
1
0.830923
1
0.999686
0.648544
1.47342
0.999484
1
0.632564
1
1
1
1
1.24626
1
1.47244
1
1
1.4775
1
1
1.47283
1
0.642988
1
0.664161
1.00001
1
1
1
1
1.44988
1.26877
1.47136
1
1.47223
1.43741
0.642688
0.650423
1
1
1.47394
1
0.645242
1
0.986559
1
1
1.47118
1
1.46981
0.656907
1.48034
1
0.654554
1
1
1.46759
1.46998
1
1.00004
1
1.46984
1
1
0.634418
0.999401
0.624335
1
1
1
1.47456
1.46913
1.47147
1
1
0.657032
1
1.46779
1
1
1
1.4505
1.47106
1.47164
0.659627
1.47502
1.47144
0.673347
1.47169
1.00004
0.675739
1.01227
1
1
1.47069
0.655719
1.29273
0.655969
1.47146
0.997429
0.65492
1.47361
1
1
1
1
1.47169
1.47272
0.655062
1
1.00002
0.655263
1.00003
1
0.650439
0.653407
1.32169
1.4735
0.998459
1.47186
1
1.4772
0.809478
0.662691
1.47133
1.48393
1
1.47305
1
1
1.47096
1
1.35408
1.47185
1
1
1
1
1.46985
1.46551
1.47465
1
1
1.47418
1.47276
1.47378
1
1.47047
1
1
1
1
1
0.656439
0.836546
0.658255
1
1
1.47189
1
1
1.4725
0.653421
1
1.47106
1.46551
1.45123
0.64096
1
0.662874
1
1.00003
1.47219
1.22366
1.47054
1.43067
1
0.646234
1
1.47376
1.33512
0.669585
1
1
1
0.811056
1
1
1.48011
1
0.666806
1.4714
1
1
1
1
1
1.37397
1.10194
1
1.46863
1
1.46829
1
0.997662
1
1.47138
1.47089
1.47115
1.47563
0.99957
1.47031
1
1.47138
1.47046
1.39596
1
1
0.655845
1.47624
1
1
1.47484
1.47214
1.4685
1
1.47136
1
1
1.00003
1.47132
1.4735
1.13446
1.09971
1.47166
1.47011
0.710659
1
1
1
1
1.00001
1.16001
1
1
1.40455
0.625005
0.999969
1
1.47213
0.999892
0.99981
1.06574
1.43028
1.47473
0.912759
1
0.63522
1
0.994472
1.47163
1.47406
1.47877
0.998978
1
1
0.66138
1
1
1.47145
1.04948
1
1
1
1
1
1
1
0.999941
1.47165
1.00002
1
1
1
1
1.29053
1
1.215
1
1
1.47136
1.47764
0.663889
0.998763
1
1
1
0.663877
1.47003
1.47186
1
1
1
1
1
1
1
1
1.47318
1.46752
0.654997
1.05039
0.652325
1
0.658578
1
1.4717
1.12831
1
1
0.723361
1
1.44979
0.812441
0.996727
0.65562
1
1
1.46935
1.00004
0.997306
0.634154
1.47213
1.47049
1
1
1
1
1.43838
1
1
1.47206
0.998932
1.4709
1.00005
1
1
0.667244
1
1
1.47138
0.663319
0.783018
0.654828
1.47188
0.999371
1
1.46934
0.658354
0.66423
1.0129
1
1
1.47305
1.00004
1.21892
1
1
1.4708
0.653439
1
1
1.00013
1.47055
1.00013
1.45193
1
1.00003
1
1
0.733273
1
0.797722
1.00001
1
1.47605
0.6671
1
0.786842
0.792373
1
1
1.47184
1
1
1
1.46841
1.4727
1.00005
1.46913
1.47313
0.784509
1.47108
1.44453
1
1
1.46953
0.999999
1
1
1
1
1.47755
1.46922
1
1
1
1.47097
1.0002
1
0.66017
0.732192
1
1.00003
1.17013
1
1
0.897945
0.68192
1
1
1
1.47726
1.43071
1.47127
1
1
1
1
0.634538
1
1.45003
1
1.46342
0.655197
1.47364
1
1
1
0.664649
1
1.4721
1.00003
1
0.668882
1.17156
1
0.999664
1.48748
0.653807
0.65753
1
1.47155
0.661594
0.658867
1
0.661689
1.00001
1
1
1
0.659362
1
1
1
1
1.46851
1
1.35754
0.635711
1
1
1
0.657555
1.47112
1
1
0.996736
1.47077
1
1.47163
1.47208
1
1
0.7202
0.66215
1
1
0.668225
1.14202
1.21008
1
1
1.47356
0.99736
1
0.997629
1.47247
1
1
1
1
1
1
1.47074
1
1.1648
1.14367
0.7031
1.41965
1
1.47186
1.47179
1
1
1
0.916156
0.637788
1
1.22185
0.999643
1.43139
1
1
1
0.999999
1
1.00671
1.20534
1.47351
1.47207
1
1.47232
1
0.694636
1
0.997464
0.999795
1
0.643529
1
0.648966
1.00002
1.47566
1.47229
0.652981
1.4769
0.641926
0.996145
1.34674
0.657162
1.33124
1
1
0.998426
1
1
1
1.00007
1
0.650173
1
1
1
1
0.999585
1.47032
0.81318
1
1
1
1.03844
1
1
1
1.26872
0.757572
1
1
1
1.05137
1.47637
1
0.661928
1
1.47338
0.888302
0.662905
1
0.660584
1
1
1.44521
0.998239
1.43651
1
1.00859
1
1
1.47209
1
1
1
1
1.08633
1
1.47114
1.47334
1.47357
0.642459
1.47227
0.997161
1.38355
1
1
0.639253
1
1
0.662172
1.47235
1
1
0.999969
1
1
1
0.643697
0.651967
1
1.4696
1
1.21001
1.47135
0.652624
1.38886
1
1
0.662083
1
1
1.47142
1.47123
1.17298
1
1
1.00204
1.47146
0.640145
0.651465
1.47064
1.47181
1.3228
1.1867
1
0.897801
1
1
1
1.4293
1.4789
1.47245
1
1
1.46924
0.659577
1.43659
0.636645
1
0.654919
1
0.65702
1.47168
0.637642
1
0.974826
0.700172
1
1
1
0.849967
1.4254
1.47265
1.47129
1.46999
1
1
1.47296
1
1
1.47076
1
0.660826
1
0.656586
1
1.46923
1
1
1.02027
1.35635
1
0.99889
0.660103
1.47039
1.00001
0.658506
1.08979
1
1
1.35585
1.47123
1.47112
1
1.47388
1.11776
1
1.02499
1.47173
1
1
1
1
1.47131
1
0.660243
1.47247
0.659267
0.66073
0.819588
1.47377
1.15673
1.47108
1
1.46931
0.997638
1.00003
1.47198
1.47362
1
1.47042
1
1.4709
1
1.47086
1
1.00004
0.999987
1.4747
0.651831
0.655787
0.997866
0.999999
1
1
0.655706
1
1.30751
1
0.649368
1
1.1861
1.47135
1.47802
1
1
1.00003
0.99946
1
1.47165
1.47211
1
1.19866
1.47355
0.849023
1.47145
1.00019
0.644853
1.09755
0.665437
1
1
1.07831
1.47152
1
1
1.03905
0.998577
1
0.648762
1
0.787986
1
1.47332
1
1
0.655559
1.11196
1.05924
0.998507
1.4719
1.47107
0.769523
0.99807
0.650381
0.660473
0.658431
1
1
1
0.999105
0.733029
0.661334
1
1.47177
0.999747
1.47132
1.47008
1.47111
1.47104
1
0.65583
1.47114
0.665656
1
1.47424
1.47062
0.996617
0.807432
1.47339
1.34202
1
0.655528
1
1
1.468
1
1.02692
1.47109
1
0.660755
0.655737
1
1
0.659182
0.65244
1.47197
1.00006
1
0.648042
0.639938
1.47332
1.45565
1.43922
1.47049
1.1294
0.97424
1.19065
1.47658
1.36737
1
1.23699
1
0.656437
0.865901
1
0.654165
1.47083
1.02229
1.4729
1
1.47175
1.47299
1
1.47326
1.47131
0.658218
1.47412
1
1.48677
1
0.752574
0.661444
1.47175
1
1
1
0.652256
1.47121
1.47341
1
0.650146
1
1
0.646525
1.00004
0.631152
1.47113
1
0.825238
0.644676
1
1
1.26764
1
1
1
1.08114
0.65088
1
1.00001
1
1.47565
0.659817
1
1.47188
0.670872
0.661979
1
1
1.47276
1
1.47194
1.00001
1.47193
0.659815
1
1
0.662568
0.806232
0.654583
1
1
1
1
1.47775
0.640525
1
0.655996
1
1.47771
1
1
0.923316
1
1
0.827127
0.999697
1.00005
1
0.660264
0.652733
1
1
1
1
0.792045
1.46955
1.47139
1
0.659572
0.659475
0.906261
0.65281
1
0.816916
1
0.66733
0.97829
1
1
0.653909
1
1.46832
1.45288
0.653329
1
1
1
1.4739
1
1.04511
0.834291
1.14936
0.653553
1.17902
0.648248
1
1
0.728491
0.91067
1
1.039
1
1
0.665304
1
0.933678
1.04179
0.657058
1
1.37935
0.761927
0.879159
1
1
1
0.66117
1
0.652481
0.671879
1
0.852462
0.662793
1.07224
0.747654
0.658827
1.47167
1
1.47172
1.25315
0.714393
1.4713
0.654731
0.998999
1.47142
0.999999
1
1.47176
1
0.729003
1
1.06766
1
1
1.47154
1
0.758374
0.825915
1.47012
0.931673
1
0.754385
1.47211
1.47004
0.907575
1
1.47183
1.11792
0.849023
1
1.01663
1
0.654651
1.1977
0.777002
0.748402
1
1
0.651538
1.47493
0.962632
0.657462
0.642894
0.872711
1
1.00975
1.4721
1.47101
1
1
0.999999
0.649761
1.21542
0.999982
1.47301
1.44549
0.654154
1.00001
1.09936
0.876721
1.27603
1.42396
1
1.04661
1
1.00005
0.642992
0.851214
1
1
0.823937
0.647221
1.03669
1
1.00002
0.648721
1.2055
1
1.45469
1
1.03316
1.24705
1
1.4619
1
1
1.47388
1
0.655746
1.47327
0.711839
1.12263
1
0.65374
0.999919
1
1.00003
1
0.794367
1.02729
0.651889
1.34624
1.4702
0.642335
1
1
1
1
1
0.967111
0.657127
1.05696
0.655076
0.650821
1.08342
1
0.999799
1.1156
1
1
0.668619
0.996034
1
1
1.129
1
1.47085
1
1.47322
1.09313
1.0216
0.649637
1
1
0.664627
1
1
1
1
1.4707
1.04294
0.998088
1
0.652064
1.05261
0.999999
1
1.30188
1
0.660225
1.46922
1
1.00001
1
1.47076
0.661622
0.882663
0.644032
1.35406
1.4732
1
1
1.47078
1
0.643462
1
1
1
1
1
0.772884
1
1.47278
1
1
1.16232
1.47079
0.666642
0.879965
1
1.4696
1
1
1
1
1
1.47158
1.47205
0.652972
1.47179
0.642036
1
1
1.47109
1
1.47079
1.003
1.02732
1.06205
1.4703
1.06818
1.31437
0.642325
1
0.654175
0.982589
1
1.47114
1
1
0.653121
1.47022
1
1.4702
1
1
1
1
1
1.00001
0.666416
1.4717
0.846499
1.47132
1
0.65908
0.662148
0.704734
1.47715
1.4695
0.968595
1
0.791142
1
1.1806
1
1.47075
0.650765
0.660306
0.856815
1
1.47159
1
1.08441
0.68326
1
1.47266
1.41158
0.998897
1
1.4718
0.661212
1.47028
1.47341
1.47043
0.663721
1.0895
1
1
0.636812
1
0.792121
0.820944
1
1.00002
1.47054
1
1.47888
1.09146
1
1.03641
1.47898
1
0.660724
1
0.764836
1
1
1.38464
1
0.796974
1
0.656525
1.03692
0.948838
0.640549
1.47287
1.37566
1.47207
0.651813
0.711823
0.99592
0.999999
1
0.69021
1.4443
0.6576
0.999968
1
1.4712
1.47179
0.903377
1
0.657506
0.724316
1.31052
0.972821
0.652867
0.999999
0.660563
1.11196
0.662493
1
1.00006
0.80841
1.47058
1.47381
0.844015
0.99959
1
1
0.725298
1
0.640594
1
0.651289
0.657139
1
1
1.00003
0.660687
1.47271
1
1
1.00007
1.00004
0.663263
1.4722
1.47129
0.999999
0.652801
1.47235
1
1.09961
1
1
1.47513
0.64589
1
1
0.647337
0.751524
0.653309
0.662016
1
0.713282
0.997128
1.08915
0.653717
1
1
1.13128
1
1.4164
1
1
1.31898
0.700422
1
0.661705
1.12168
1.47122
1
1
0.653491
0.645883
0.643595
0.737016
0.644411
1.34847
0.999413
1
1
1
1
1.47152
0.666812
1
0.931672
0.999674
0.999068
0.999943
0.768935
1.1218
1
1.47137
1.47129
1
1
1.45842
1.00004
0.999999
1.47062
0.659396
1.47544
0.999999
0.646549
1.47135
1.00005
1
0.818212
1
0.645784
1
1.47166
1
1
1.47538
1
1
1.47015
1
1
1
1.47361
1
0.75032
0.73043
1
0.640268
1.46979
1
1
0.971878
1
1.47037
1.2706
1.3737
1
1
0.68162
1
0.660736
1.47142
1.47276
1.47422
1
1.47101
0.652594
1
0.659646
1.37593
1.42169
1.47462
1.47058
0.764264
0.649565
1
1.31502
1.47169
1.47284
1.47108
0.736225
1.16994
1
1.35303
0.757225
1
1.00002
1
1.00002
0.897078
1
1.47194
1
1
1
1
1
1
1.00006
1.46749
1
1.47439
1.34844
0.658683
1.47196
1.02439
1.23551
1
1.47234
1
0.65765
1
1
1
1
1.39912
1
0.637068
1.46778
0.644008
1.47142
1.3734
1.24026
1
1.08485
1.21131
0.995505
0.656613
0.765276
1.00002
0.999999
0.912178
1
0.646168
1.47151
0.654181
0.926616
0.857143
1
1
1
1.01345
1
1
0.65405
0.996482
1.47058
1
1.47095
1
0.643092
1
1
1.47167
1.47223
0.63238
1
1.47212
1
0.809594
0.666663
1.47219
1.42223
1
1.07558
1.47208
0.998659
1
1.19388
1.41199
1.46955
0.995582
1
0.999998
1.3962
1
1
1
1.47273
0.998502
1
1
1.47089
1
1
0.657978
1
1
1
1.47175
1
1
0.851904
1.13566
1.4279
0.772551
1
1.47133
1
1.16552
1
1.46977
0.99727
1.47152
1
0.656978
1
1.32862
1
1
1.43916
1.00001
1.47209
1
1.47312
0.688966
0.654379
1.47156
1
1.39868
1
1.47213
1
1
1.00005
1.47341
1.47029
1.1154
1.4712
0.995667
0.663312
1.47294
0.872687
1
1.46868
1
1.47025
1
1.47344
1.47235
0.996193
0.647925
1
1.47146
1
1.0295
1
1
0.997974
0.748733
1.42049
1
1.42435
1
0.87784
0.665513
1.47187
1.47251
0.711692
1
1.47078
1.4694
1.4701
0.689234
1.47161
0.692865
1.47146
1.46701
1
1
1.47207
1
1
1
1
0.663643
1
1
1.47192
1.47151
1
1.47139
1
1.46962
1.47265
1
1.39165
1
0.636473
1.47188
1.34631
1.12144
0.633603
1.47169
1
1
0.654871
1
1
1.47117
1
1
0.78715
1
1.47161
1.00008
1.46997
0.661344
1.47043
1
1.4719
1.45233
0.892881
1
1.47095
0.769426
1.47741
1.3284
1.47116
1.47191
0.997067
1.47323
1.47108
1.47185
1.47094
1.00042
1
0.661895
1
1.47239
0.823643
1.42834
1
1.46248
1
1
1
1
1
1.46919
0.655191
0.677484
1.47164
1.47142
1
1
1
1
1
1.46785
1.43432
1.47147
1.01859
1
1
1
1.00003
1.4698
1.4714
1
1.47043
1.47037
0.655234
1.3222
1
1.47115
1.4755
1.46799
0.997953
1.47194
1.47113
1
1.42548
1
1
1
1
1
1
1.47176
1.47001
1.43744
1.47157
0.652082
0.69142
1.47175
1.47144
1
0.646604
0.934681
1
1.21519
0.65075
1
0.999443
0.99829
0.658371
1
1.47163
1
1
1
1.47148
0.946479
1
1.472
1.4713
1
1.4719
1
1
1.47127
1
0.648693
1
1.47053
1
1
0.656046
1
1.47444
1
0.644647
0.642134
1
1.4527
1
0.631686
0.887004
1
1.47184
1
1
1
1.47645
1
0.650539
1.06463
1.47138
1.47329
1.47121
1.04069
1.47328
1.47129
1
1.00002
1
1
1.00001
1.47106
1
0.999292
1.47649
1
0.62991
1
1.47184
1.21034
1.06608
1.20874
1.06013
1.47101
0.707503
1.47151
1
0.662087
0.9972
1.47232
0.936374
1.47164
1.47225
1.46934
1
1.46995
1.47095
1.47157
1
1.00004
1
1
1.47245
1.33535
1
1
0.659863
0.996411
1
1.47208
1
1.47219
1.472
1.47399
0.885025
1.47214
1.47176
1.00673
1.22722
1.47217
1.47104
1
1.43538
0.819155
1.45565
0.983604
1.47052
1
1.47125
1.4718
1
0.651539
0.928875
0.709731
1
1.08372
0.996857
1.47206
1
1
0.996703
1
1.23308
1.44914
1
1
1.47335
1
1
1.33356
1.47187
1.45145
1.47431
1.47249
1
1.47115
0.714491
1.46815
1
0.995468
0.648629
1
1
0.742562
1
1.14076
1
1.47381
1
1.46229
1.2951
0.656571
1
1
1
1
1
1.46937
1.01123
1
1.47148
1
1.47192
1.47216
0.999999
1
0.970111
0.999846