/*--------------------------------*- C++ -*----------------------------------*\
  =========                 |
  \\      /  F ield         | OpenFOAM: The Open Source CFD Toolbox
   \\    /   O peration     | Website:  https://openfoam.org
    \\  /    A nd           | Version:  12
     \\/     M anipulation  |
\*---------------------------------------------------------------------------*/
FoamFile
{
    format      ascii;
    class       volScalarField;
    location    "4.68";
    object      p;
}
// * * * * * * * * * * * * * * * * * * * * * * * * * * * * * * * * * * * * * //

dimensions      [1 -1 -2 0 0 0 0];

internalField   nonuniform List<scalar> 
22702
(
1
1
0.883223
1
1.07709
1
1.47293
1
1
0.670806
1.47082
1.46884
1
1.47184
0.912074
1
1
1
1.47068
1
1.47072
1
1.47234
0.635793
1.47237
0.636472
1
1.47304
0.703027
0.641469
1
1.46654
1
1
1
1.43074
1.46806
1.47175
1
1
0.628071
1
1.2249
1
1.4726
1
1
1
1
0.661941
1
0.64463
1
1.4707
1
1.46709
1
1
1
1
0.627518
1
1
0.68928
1
0.634229
1
1
1
0.670226
1
1.47076
1.29876
1
1.47065
1.49735
0.634875
1.46357
0.652025
1
1.46979
0.658738
1.47798
1.47867
1
1
1
1
0.963606
0.672268
1.46883
1
1
0.684173
1
1.47111
0.679767
1
1
1
1
1.24688
1.47029
0.650104
1
1
1.1074
1
0.654833
1
1.46208
1.47255
1
1
0.632338
0.628758
0.674171
1
1
1
1
1
0.943571
1
1.40846
1.07626
1.46882
1
1.46846
1.47082
1.47077
1.47252
1
0.646637
1
0.654856
1
1
1
1
1.47187
1
1
1
1
1.4729
1
1.02532
1
1
1
1
0.658744
1
1.01077
1
0.653046
1
1
1
1.46842
1
1.47109
0.642913
0.632673
1.47163
1.4718
1
1.09932
1.27479
1
1.47762
0.656515
1.43247
1
1
1
1
1.47228
1.38439
1
1.47161
0.655315
1.47273
1
0.682845
1
0.657699
0.637912
0.999781
1
1
1.46978
1
1
1.47249
1
1.47368
1.4717
0.665169
1
1
0.66468
1.47187
1
1
1
1.47198
1
0.681115
1
1
1.47144
1.47226
1.46737
1
1.00004
1
1
1
1.47152
1
0.626288
1.48975
1.47199
1.46912
1
1
1
0.643717
1.47366
1.22173
1
1.4737
0.659263
0.672362
1.4737
1.46801
1
1.47512
0.670298
1.42109
1
1
1
1
1.4718
1
1.27385
1.04518
1
1
1.47148
0.672306
0.787391
1
1.4669
0.677615
1.47431
1
1
1
1
1
1
1
0.659116
0.768654
0.675381
1.47073
1
1
1
1
1.41596
1
0.663675
1
0.640495
0.665464
1.46985
0.638089
1.47082
1
1
1
0.997525
0.682676
0.666834
1
1
0.634708
1
1.47123
0.651291
1
1
1.47004
0.646319
1
1.46941
0.642929
1.4716
1
0.645533
0.997681
1
1
1
0.643865
1
1
1
1
1.02768
1.30681
1
0.693381
1
1
1
1
1
1
1
1.47161
1
1.47148
1
1
1
0.666436
1
1.47307
0.652836
1
1.3763
1
1
1.47367
1
1
1
1.45939
1
1
1.46337
1.47192
1
1.09943
1
1
0.655397
1
1
1
0.692591
1
1
1
1
0.650762
1
1
1
1
1
0.670596
1.00007
1.47097
1
0.99996
1.4713
1.4722
1
1
0.672207
0.834231
1.47121
1
1
1
1.47141
0.663027
1
1.47116
1
1
0.707848
0.687633
1
0.677145
0.662773
1
1
1
1
1
1
1
1.47025
1.08871
1.4401
0.671612
0.935387
1.47173
1
1.47115
1.47212
0.650964
0.800317
1
0.685005
1
1.48718
1
1
1
1
1.47193
1
1
1
1
1
1
1
1.17811
1.46899
1
1.4708
1
1
0.661467
1
1
1
1
1.472
1.35284
1
1
0.667684
1.47124
1.47156
1
1.47143
1.4724
1.47168
1
0.848219
1
1.47097
1.00054
1.47136
1
0.679433
0.998832
1.4699
1
1
1
1
0.655015
1.47106
1.42029
1
1.47513
1.47137
1.47052
1
1.22057
1.46986
1
1
1.31555
1.06603
1.47138
0.971443
1.47152
1
1.47182
1.47122
1.47198
1.47062
1
1.44612
0.909315
0.855853
1
0.999999
1
1
1.47749
1
1
1
1
1
1.46976
1
1
0.996149
1.47155
1.40941
1
1.40085
1.00004
1
1
1.47082
1
0.997033
1.00488
1
1.47238
1
1.47565
1
1
1.34822
1
1.47598
1.00002
1
1.47283
1
1.47186
1
1
1
1.47206
1
1.47614
1.00001
1.47183
1.47277
1.47137
1.47536
1
1.47099
1.46097
1
0.665301
1.44153
1.33512
1
1.47203
1
0.661388
0.640911
1
1
1
1
1
0.683211
1
1.47104
1.13317
1.4706
1
1
1
1
1
1.47108
1
1.47861
1.28234
0.797908
1
1.00001
1.13113
1.11476
1
1
1.14687
1
0.663156
1.47126
1.47137
1
1
1
1.47246
1
1.00003
1.46805
1.47054
0.948647
1
1
0.661785
1.42976
1
1
1
1
1
1.47185
1.47147
1
1.472
1.47279
1.47137
1
1
1
1
0.641921
1.4723
1
1
1.42603
1.47048
1
1.44092
1.46807
1
1
1
1
1
1.47253
1
1
1
1
1.47446
1
1.46065
0.680269
1
0.632197
1
1
1
0.99708
0.665943
0.999053
1
1
1
1.05894
1
1
0.881543
1
1
1
1
1
1
1
0.999997
0.950233
0.999999
1
0.997567
1
0.658056
1
1
1
1
1.34485
1
1
1
1
0.677623
1
1
1.44423
1.47245
1
1
1
0.858457
1
1
1
1
1
1
0.968139
1.03343
1.47179
1
1
1
1.47681
0.932166
1
1
1
1.47203
1.47123
1
1.00001
1
1
1
1
1
1
1
0.675009
1
1
1.47067
0.682633
1
1.46938
1
0.655272
1
1
0.672086
1
1
1
1
1
1
1
1.46164
1.46995
1
1
1
1
1.42815
1
1.15937
0.678033
1
1
1
1
1
1
1
1.03687
1
1
1.24677
1
1
1
1.39324
1
1
1
1
0.679654
1
1
0.652721
0.678938
1
1
1.47115
1
0.981616
1
1
1
1.3169
0.658281
1
0.639926
1
0.761459
1
1
1
1.47303
1
1
1.47124
1
1
1
1.47147
1
1
1.47124
1
1
0.657169
1
1.15827
1
1
1.47245
1.47047
1.30881
1.42141
1
0.678045
1
1
1.45007
1
0.672699
1
1
1
1.47185
1
1
1
1
1.28075
1
1.43172
1.46833
0.69551
1
1
0.640998
0.639116
1
1
1
1.32805
1.34865
1
1
1
1
1
1
1
1.20924
1.4798
1.00546
1
1.46477
0.641134
1
1
1
1.25005
1
1.08839
1
1.43174
1.46576
1
0.680377
1
1.4714
1
1
1.47155
1.43933
1
1.47411
1
0.705233
1
1
1
1.46266
1.46191
1.41374
1
1.47251
1.47151
1
1.47259
1
1.4655
1
0.673076
0.94389
0.668405
1
1
1
1
1
1.47132
1
1.47159
1
1
1
1.44873
1
0.632582
1.47125
1
0.689079
0.662684
0.649906
1
1.22324
1.04532
1.47039
1.47153
1
0.999999
1
1
1.47181
1
1
1.47192
1.47176
1
1.1368
0.999907
1
0.996818
1.46782
0.858001
1
0.844185
0.661933
0.661769
0.94219
1.47245
1.46166
1.11028
1.47341
1.47142
1
1
1.47112
1.47129
1.47047
1.46959
1
1.46814
0.648763
1.47513
1.47046
1.47191
1.47129
0.852932
0.913007
0.952377
1.47121
0.974896
1.47078
1
1
1.46975
1.47191
1
0.684872
1.47028
1.47174
1
1.47244
1.47288
1
1.47158
0.683407
1.47538
1.47611
1.47256
1.46714
1
1
1
1.47131
1.3019
0.705419
1.47149
0.664605
1.47132
1
1
1
1
1.47202
1.47187
1
1
1.47182
0.667877
1.47134
0.662454
1
1.46837
1
0.668012
1.47279
0.737002
1
1.4714
1.47383
1.47359
1
1
1.23025
1.47304
0.662649
1.47017
1
1.47294
0.906353
1.47372
0.659923
1
1.47287
0.666862
1.46987
0.653353
1
1.47172
1
1.4702
1
1.2602
1.45296
1.3701
0.649237
1
1.47148
1
1.47257
1
1.4732
1
1
1.4708
1.01672
1.47428
0.705812
1.43535
1
1.34655
1
1.47127
1.47319
1.4717
1
1.42215
1.47076
1.43683
1.27931
1.47183
1
1.30693
1
1.47058
1
1.08511
1
1.43422
1
1.47359
1.45041
1.44939
1
1.46466
0.637261
1
0.676484
1
1
1
1.46191
1
1.47189
1
1
1
1.47297
1.44152
1.36472
1.47196
1.47297
0.633085
1.471
1.47674
1
1.42844
1.47315
1.43201
1
1.47725
1.46689
1
1.47947
1.47313
1.46948
1.47274
1
1
1
1.47031
0.676247
1
1.47136
1
1
0.635514
1
1
1.47028
1.47212
1
1.47227
1.46555
1.47109
0.956107
1.47243
1
1.47239
1.47074
1.39135
1
1
1
1.47196
1.47198
1.47319
0.914492
1
1.47989
1.47191
1.47207
1
1.47174
1.47083
1.4701
1.47822
1
1.47354
1.47828
1.40789
1.47257
1.47456
1
1.47853
1.46625
1.47285
1.47557
1.47031
0.630318
1.47135
1.47374
1
1.47038
1.47201
1.47026
1.47065
1
1.47325
1.47189
1
1.47144
1.39331
1
1
1
1.47476
1.46503
1
1
1.25167
1
1.47103
1
1
1.47136
1.47393
1.47155
1.47183
1
1
1
1.33201
1
1.47266
1
1
1.46798
1.47715
1
1.47045
0.649379
1.4714
1.47456
0.723084
1
0.651347
1.40936
1.47259
1.46514
1.46692
0.666075
1.47097
1.47351
0.660776
0.659579
1
1.47403
1.47223
1
1
1.47114
1
1.46993
1
1.41316
1
1.20156
1.46987
1.47361
1.33183
1.42778
1.46734
1.47445
1.45698
1
0.633154
1.4681
1.47409
1.47966
1.00001
1
1
1.46886
1
1.47312
1.47076
0.733935
1
1.47056
0.999945
1
1.00003
1.00005
1.47394
1.46992
0.998475
1
1
1.4713
1.47345
1.47093
1.47277
1.4724
0.668287
1.39449
1
1.46764
1.47122
1.47134
1.45924
1
1.4707
1.45896
1.47323
1
1.47133
1.47046
0.83164
1.46983
1.47231
1
1.47144
0.82411
1.47172
0.830634
1.47076
1
1.47
1.47589
1.47224
1.4732
1.47007
1.47205
1.47313
1.47317
1
0.918222
1.47159
1.47119
0.851538
1.47356
0.998716
1.28831
1.4717
1.47086
1.4758
1
1.47419
1.30428
1.46885
0.911062
1.47407
1.48226
1
0.878206
1
1.48119
1
1.33435
1
1.44108
0.895468
1
1.46375
1.46543
1
1.46943
1.47117
1.46287
1.46075
1.48443
1
1.47208
1
1
1
0.925461
1.47106
1.47383
1.47853
1.47105
1.46939
1.47972
1.46982
1.47196
0.925
1.02937
1
1
1.48002
1.47137
1.4714
1.47168
1.00003
1.23996
1
1.47976
1.40829
1
1
0.746037
1.47079
1
1
0.678417
1.47148
1
1.48018
1.47088
1.46751
1.45046
1.471
1
0.648435
1.11063
1.47004
1.47171
1
1.47249
1.47064
1.22874
1.01148
1.0963
1
1.46984
1.47221
1
1
0.65006
1
1
1.47238
1.47111
1.47287
1.47108
1.47011
1.4758
1.47328
1.46876
1.47067
1
0.996345
1.47221
1.47043
0.99677
1.47096
1.4707
0.650066
0.688322
1.47136
1.48384
1
1
1.00211
1.47041
1.47307
1.47157
1
1.47029
1
0.868266
1.48088
1.46864
1
1.20386
1.47037
1
1.47292
1
1.47276
1.31975
1.4749
1
1.46989
1.47607
0.646879
1.47282
1
1.47243
1.47969
1
0.64968
1.46747
1.40215
0.99759
1.47222
1.47074
1
1.00177
1.47149
0.997383
1.47046
1
1
1.47226
1
1.47338
1.47062
0.996258
1.36876
1
1.4703
1
1
1
1
1.47191
1
1
1.46544
1
1.47097
1
1.2785
1.46815
1.47375
1
1
0.97799
1
1.47391
1.47323
1.47117
1.471
1.47014
1.47092
1.47032
1
1.4713
1.47365
1
1.47087
1.47041
1
1.47411
0.943865
1.06121
1.47326
1.47134
1.47084
1
1.47195
1
1.47224
1.47096
1
1.47394
1
1
1
1
1.47217
0.666959
0.997858
1
1.47134
1.48171
1
1.47135
1
1.0055
0.640232
1.46897
0.99961
1
1.46703
0.998352
1.47166
1
0.999769
1
1.47178
1.47494
1.46925
1.4733
0.667095
1.47007
1.4724
1.4723
1.11281
1
1
1.20398
1.47007
0.659371
0.657848
1
1.47153
1.47159
1.46298
1
1
1.47138
1.47007
0.999884
1
1.35536
0.653195
1
1.07756
1.47108
1.46741
0.998218
1.47232
1.48121
1
0.99931
1
1.47429
1.46818
1.18646
1
1.43865
1
1.00297
1.47482
0.630388
1.47105
1.4717
0.996855
0.999908
1.40536
1
0.999688
1
1.47499
1
1.00001
0.651631
1.47085
1.00001
1
1
1
1.47516
1.27725
1
1
0.674591
1.47171
1.27469
1
1
1
1.44823
1.46318
1.47069
1
1
1.46803
1
1.47099
1.47183
1
1
1.4753
1.47022
1.44852
1
1
1.47541
1.47348
1
1
1
1.4738
1
1
1
1.47172
1.46992
1.47391
1
1.47682
1.00003
0.683907
1.47082
1.47101
1
1.4758
1.46632
1.46216
1
1
1.47626
1
1.23877
1.46875
1
0.648019
1
1.47008
1
1
1.47143
1
1
1
1.14635
1.47221
0.675922
1.00001
1.47086
1
1
1.47253
1
1.47607
1
1
1.4707
1.47122
1
1.00005
1
1
1
1
1
1
1.47594
1.46954
1
1.47964
0.658282
1.46659
1
1.47069
1.47814
1.46976
1.46978
1.4708
1
1
1.46591
1
1.2753
1.47594
1.4718
1
1.47308
1.46984
1
1.41439
1
1.47033
1.31366
1.47346
0.997568
1.46881
1.42566
1.4721
1.47209
1.03737
1.47043
1.47487
1
1.47133
1
1.47071
1
1
1
1
0.996371
1.47212
1.47106
1.39459
1
1.47674
1
1
1
0.663006
1
1.45919
1
1.43049
1.45843
1
1
1
1.46566
1.46804
1
1
1.47124
0.661649
1.09213
1
1.47609
1.47118
1.4253
1.45877
1.47155
1
1.46901
1
1
1
1
1.47047
1.47255
1
1.46243
1.05735
1.47182
1.44548
1
1
1.44406
1
1
0.664482
1.33886
1
1
1.48504
1
1.47564
1.426
1
1.42341
0.666011
1.47065
1.47258
1.47136
1
0.660415
1
1
1
1.47125
1.37073
1
1.4596
1.47123
1
1.4697
1
1
1
1
1.47157
0.999383
1
1.4735
1
1
1.4719
1.4719
1
1.47261
1.09094
1.00002
1
1.473
1
1.47262
1
1.01301
1.47174
1
1.47202
1
1
1.14832
1.47406
1
1
1
1
1
0.996691
0.651759
0.65284
1.02109
1
0.998777
1
1.00571
1
1.47176
1
1.28222
1
1.47429
1
1
1
1.47366
1
1.3719
1.47027
1
1.24522
1.472
1
1
1.46268
1.46974
1
1
1.03849
0.659139
1
1.47289
1
1
1
1
1.07768
1.47287
1
1
1
0.685491
1
1.47324
1.47192
1.47449
1
1
1
1
1.24152
1.47252
1
1
1
1.47071
1.47157
1.05878
1
1
1
1.47054
1.47165
1
0.644341
1.47115
1.47164
1.47181
1.46804
1.47559
1
1
1.47292
1.46883
1.47166
0.686596
1.0416
1.47086
1
1
1
1
1
1.47187
0.657257
1
1
1.47145
1.20101
1
1.46972
1
1
1
0.680778
1
1
1.11437
1.47109
1.47364
1
1.47337
1.48031
1
1.08856
1
1.47858
1
1.47123
0.658002
1
1
1
1
1.47159
1.00007
1
1
1
1.45359
1
1
1
1
1.47181
0.679397
1.38134
1.47536
1
1.47228
1
1
1
0.997079
1
1.47709
1
0.783837
1
1
1.00003
1.47393
0.656953
1
1.4748
1
1.47274
1.47103
0.688924
1
1
1.46704
1
1
0.704003
1
1.47129
1
1.45467
0.999297
1.46956
1
1
1
1
1.47791
1
1
1.47186
1
1
1
1
1
1
1
1
1.29987
1
1.15012
1.47244
1
1
1
0.671715
1
1
1
1
1.46222
1.47046
1.03678
1
1
1.47122
1
1
1.47423
1
1.00002
1
1
1
1.00001
1.47263
0.755851
1.47176
1.47289
0.997099
1
1
1
1.27355
1
1
1.47437
1.4703
1
1
1
1
0.667706
1
1
1
1.29351
1
1.46861
1.47467
1
1.47557
1
1
1
1.24568
1
1.47268
1
1.47167
1
1
0.996207
1.47149
1
1
1
1
1
1.47025
1.00002
1
0.662722
1.47524
0.686708
1
1.47297
1
0.996266
1
1.47272
1.47725
1
1.4647
0.887801
1.47223
1.4594
1.00003
1
1
0.655903
1
1
1
1.47103
1.26882
1.47621
1
1
1
1
0.996825
1.46781
1
0.665162
1
1
1
1
1
1
1
1.47415
1.46811
1.47963
1
1
0.996909
1
0.974066
1
1
1
0.639343
0.954619
1
0.658442
0.673705
1
1.47134
1.47157
1
1.46505
1.47012
0.663957
1.30129
1
1
1
0.664762
1.47343
1
0.663352
1
1.47933
1.0739
1
1
1
1
1.47144
1.4728
1
1
1.47096
1
1
1.47349
1.47099
1
1.42443
1.47323
1.47004
0.984492
1.47191
1.00794
0.666225
1.3606
1.47344
1
1
1
0.656363
1
0.653845
1.47502
0.976899
1.47201
0.932166
1
1.46999
1.21564
1
1
1.47412
1
1.19683
1.46892
1
1
1.46952
1.48522
0.677151
1.27289
0.999892
1
1.2996
1
1.47546
0.923661
1.48191
1.479
1
1
1
1
1.46601
1
1
1.47111
0.99965
1.47286
1.39484
1.47423
0.663603
1
1
1
1
1.47304
1.00004
1.4696
1
1.47284
1.47374
1.05824
1.47807
1.14065
1.47325
1
1.32533
0.681034
1.46703
1.47091
1.3775
1.06898
1.47243
1.47245
1.47252
1.46977
1
0.920438
1.06423
1
1.47228
1.21477
1.47082
1.00003
1
1
0.723507
1.47351
1.47059
1.38183
1
1.18005
1
1.46928
1.46609
1
1.4721
1.47067
1
1
1
1.4692
1
1.1804
1.47091
1.32622
1
1.47195
1
1
1
1
1
1
1
1
1
1
0.700224
1
1.44085
0.63276
1.25828
0.998553
1.4689
1
1.24604
1.00001
1.28552
1.39631
1
1.00259
1.47867
0.913301
1
1.47126
1.45102
0.946842
1
1.47245
1.47317
1.47364
1
1.47242
1.4731
1.4684
1
1.20335
1
1.00006
1.47293
1
1.47294
1.06631
1.47414
1
1
1.47548
1.47355
0.717025
1
1.47042
1.35174
1.46595
1
1
1.46988
1.47249
0.998257
1
1.42657
0.996901
1.47079
1.00003
1
1
1
1
1.20454
1
1.35435
1.47276
1.34864
1.47162
1
1.00394
1
1
1.47167
1
1.4646
1
1
1
1
0.999999
1
1.05863
1.24192
1
1
0.613854
1
1.47706
0.675202
1.47569
1
1.24147
0.999758
1.46934
1.30537
0.679845
1.2651
1.00003
1.47159
1.47279
1
1.29476
1.47238
1.47339
0.998408
1.47769
1.4577
0.655501
1
1
0.997697
1
1.47053
1
0.699498
1.47029
1
1
1.40812
1
1.4745
1
1.47296
1
0.696611
1
1
1.47148
1.47998
1.46596
1
1.47285
1.47044
1.46715
1
1
1.46755
0.999999
0.762263
1
1
1
1.47373
1
1.47114
1.29893
1.47384
1
1.47241
0.999392
1
1
1
1
1
1
0.731807
1
1
1.47164
1
1.4783
1.4724
1
0.658844
0.662466
1
1.46877
1.06923
0.666153
0.641608
1
1.47339
1
1.47288
0.670284
1.00114
1
1
0.999497
1
1
1
0.999917
1.18688
1.47099
1
1
1.47255
1.27196
1
1.42724
1.46989
1.47081
1.1814
1.47509
1
1.47117
1
1.45725
1
1.46558
1.4743
0.996805
1.46923
1.47462
1
1
1
1
1
0.892818
1.47042
1.00004
1.00003
0.622679
0.999989
0.636832
0.675259
1
1.47207
1.47133
1.47215
1
1.4713
1
0.664276
1
1
1.47499
0.810268
1.47365
1
1.4717
1
1.00504
1.46972
1
1
1
1.46782
1
1.47154
0.679486
1
1
1.27242
1
1
1.25681
1
1
1.47078
1
1
1
1
1
1.46398
1.46941
1
1.47024
1.4735
0.655291
1.20831
1.47306
1
1
1.42134
0.999018
1
1
1.47174
1.47536
1.32374
1
1.47019
0.659792
1.44014
0.999319
1
1.47348
1.00003
1.47319
1.39761
1.35716
1
1
1.47111
0.725926
0.630244
1
1.4727
1
1.47151
1
1.28308
1
1
1.46844
1.29429
0.666333
1
0.997995
1
1
1.02565
1.19354
1.47271
1
1.47045
1
1
1
1
1
1
1.06885
0.667832
1
1
1.02871
1
1
1
1
1
1.47286
1
1
1.47092
1.46717
1.34265
1
1
1
0.829708
1.47688
1.32634
1
1
1
1
1.47336
1
1
1
1.47245
1
1
1.3326
1.48987
1.05299
0.762667
1.46926
1.33393
1.46942
1
1.24281
1
1
1
0.659769
1.00221
0.623608
1
0.672815
0.632556
1
0.668295
1
1
1
1.21697
1
1.47029
1.47339
1.00168
1.22084
1.39824
0.632825
0.747446
0.867154
1
1.4723
1.47253
1.47194
1.47248
1.40198
0.883532
1
1.40656
1
1.44879
1
1
0.996547
1.01117
1
1
1
1.47021
1
0.615711
1
1.47277
0.63431
1
1
1.4722
1
1.4716
0.999774
1
1
1.47131
1.434
1
1.48713
1
1
1.01459
1
1.19877
1
1
0.656498
1
1
1.46994
1
1.46938
1
1.00003
0.636965
1
1
0.630515
1.00089
1
1.47166
0.650347
1.47968
0.669902
1.47217
1
1
1
1
1
1
1
1
1
1
1
1.45072
1
1.47
1.47246
0.649733
1
1
1
1
1
1
1.45381
1
1
0.664613
1
1
1.47169
1
1
1.17888
1.39362
0.681983
0.645728
0.677021
0.751589
1
0.996628
0.621311
1.00037
1.4283
0.996893
1
1
1.47441
1
1
1
0.749472
1.00001
1.16572
1
1
1.18924
1.46949
1
0.656163
1
1
1
0.996683
1
1.46616
1.47108
1
0.664069
1
1.23411
0.64118
1
0.890473
1
0.996406
0.631833
1
1
1
0.996114
0.672246
1
0.669875
0.998444
1.25001
1.41603
0.664635
0.678543
1
0.990708
1
0.998627
1
1.46985
1.47085
1
1.0198
1.47286
1.47356
1
1
1.47052
1
1
1.00005
1
1.48071
1
1
1.01797
1
0.998586
0.683101
1
1
1
1
1
1.4752
1.01506
1.00005
1
1
1
1
1
1.00003
1
0.650737
1.10211
0.998619
1.4598
1.47236
1
1.0144
1.47198
1.38682
1
1
0.673155
1.471
1
1.47236
1
1.46912
1.32263
0.644565
1
0.639201
1.42418
0.999696
1
0.670381
0.681107
1
1
1.39768
1
0.999998
0.638841
1
1
1
1.14265
1
0.643489
1.4701
1
1
1
1
1.4717
1
1
1.47543
1.41965
1
1
1
1.47758
0.649619
1
1.47051
1.47085
1
1.3717
0.999999
1.00003
1
1
1.43479
1.02584
1
0.634477
1.25331
1
1
0.997711
1
1
1.472
1
1
1.00003
1
1.47181
1
1
1
1
1
1
1.00001
1.2012
1
1.46787
1
1
1.47469
1
1
1
1.47222
1.47149
1.04276
1
0.997621
1
1
1
1
1.47209
1
1
1.47152
0.659716
1
1
1
1
1
1
1.37729
1
1
1.4765
1.47171
1
1
1
1.47059
1.47427
1
0.99969
1.46573
1
1
1
1.00002
0.613379
1.03152
0.996067
0.995899
1
1
0.637214
1.4707
1
0.689242
1
1.46625
1.45066
0.679248
0.999408
1.47023
1.47139
1.47112
1
1
0.899127
1.42367
1.38064
0.686894
1
1
1
1.4756
1.47177
0.66814
0.997396
1
1.47123
0.621691
1
1.46104
0.654403
0.987224
1.0063
1
1.47226
1
1
1
1
1
1
1.00011
1.43262
1
1
1.46573
1
1
1
1.46976
1
0.652632
1
1
1
1.15333
1
1
1
1
1
0.791763
1
0.627955
1
1.47453
1.00005
0.870872
0.877293
1.00002
1.00508
1.25672
1
1
0.637507
1.46823
1.47169
1.47069
1
0.659067
0.646624
1
1.4671
1
1
1
1
1
1.00003
1
0.655859
1.29535
1
1
0.682234
0.957718
1.00001
1
1
1
0.635749
1
0.665142
1
1
1.48225
1
1
0.652624
1
1.47088
1
0.63842
1
0.652304
1
1.00804
1.47301
1.48525
1
1
1.47301
1
1
1.10407
0.996854
1
0.998175
1
1.4743
1
0.665352
1.00002
1.46824
0.998805
1
1
0.789184
1
0.999065
0.663695
1.47323
1.17671
1
1.00001
0.888534
1
1
1
0.772025
1
1
1
1.46906
1
0.64571
0.999999
1
1
1
0.65259
1.4727
1.42659
0.670956
1
1.48851
1
1
1.47211
1.47188
1.39499
0.647205
0.997756
0.999238
1
1.47065
1
1
1
1
1.47477
1.00004
1
1
1.47023
1
1
1.472
0.646899
1
1
1
0.658591
1
0.999999
0.999999
0.998631
1
1
1
1
1.35153
1
1.47115
1.47072
1.48235
1.4702
1.47312
1.47127
1
1.46975
1
1.47232
1.47161
1
0.998887
0.659367
1.40189
0.999897
1
1
1
1
1.00936
1
1.07186
1
1
1
0.843704
1.47202
1.47454
1.46835
1.39137
0.999873
1
1.02272
1.47336
0.997927
1.05321
0.997017
0.6803
1
1.00002
1
1
1
1
1
1.46862
0.654382
1.46847
1.47387
0.994971
0.63486
1
1
1
1.47181
0.640924
1.41415
0.648257
1.47233
1.48048
0.651831
1.47192
1.02483
1
1.47551
0.790551
1
0.998859
0.642148
1
0.665229
1
1.47271
1.47117
0.760635
1
1.47154
0.684823
1
0.664333
1
1.47152
1
1
1.46207
1
0.840599
1
0.999687
0.66529
1.46533
0.99949
1
0.640366
1
1
1
1
1.24946
1
1.46871
1
1
1.48033
1
1
1.47119
1
0.642511
1
0.679838
1.00001
1
1
1
1
1.45236
1.27942
1.47207
1
1.47181
1.43623
0.634199
0.647712
1
1
1.4718
1
0.641673
1
0.973897
1
1
1.47344
1
1.46805
0.636009
1.48253
1
0.634812
1
1
1.47134
1.46848
1
1.00004
1
1.47508
1
1
0.657224
0.999392
0.632781
1
1
1
1.47134
1.47266
1.47195
1
1
0.674555
1
1.47435
1
1
1
1.44762
1.4721
1.47073
0.658946
1.47447
1.47141
0.688138
1.4715
1.00004
0.687029
0.981671
1
1
1.4747
0.651163
1.30622
0.645966
1.4714
0.997425
0.668932
1.47386
1
1
1
1
1.47189
1.47263
0.654432
1
1.00002
0.658394
1.00003
1
0.646212
0.624312
1.30985
1.46941
0.998482
1.47044
1
1.47064
0.824879
0.667056
1.47352
1.48387
1
1.47318
1
1
1.47262
1
1.36318
1.47186
1
1
1
1
1.4725
1.46233
1.4684
1
1
1.46788
1.47074
1.47114
1
1.4712
1
1
1
1
1
0.64209
0.845576
0.65258
1
1
1.47169
1
1
1.47309
0.664983
1
1.47241
1.46427
1.45038
0.649098
1
0.681903
1
1.00003
1.47221
1.2234
1.47082
1.43313
1
0.68918
1
1.46977
1.33089
0.674154
1
1
1
0.79509
1
1
1.48168
1
0.677539
1.47168
1
1
1
1
1
1.37566
1.10177
1
1.47121
1
1.47531
1
0.997223
1
1.4731
1.48148
1.46975
1.47541
0.999608
1.47066
1
1.47192
1.47471
1.40736
1
1
0.637878
1.468
1
1
1.46893
1.47588
1.47388
1
1.46965
1
1
1.00003
1.48066
1.47021
1.13332
1.09787
1.47056
1.47198
0.689442
1
1
1
1
1.00002
1.16305
1
1
1.40572
0.631684
0.999967
1
1.47165
0.999882
0.999825
1.06916
1.42998
1.46686
0.918216
1
0.631167
1
1.00805
1.47223
1.47446
1.45655
0.998978
1
1
0.655644
1
1
1.47207
1.04997
1
1
1
1
1
1
1
0.999937
1.47229
1.00002
1
1
1
1
1.29016
1
1.21553
1
1
1.47146
1.47601
0.67661
0.998801
1
1
1
0.661715
1.47035
1.47128
1
1
1
1
1
1
1
1
1.4711
1.47622
0.640908
1.05099
0.656129
1
0.661759
1
1.47159
1.12324
1
1
0.72321
1
1.44912
0.792123
0.996593
0.666522
1
1
1.46963
1.00004
0.997178
0.637916
1.47113
1.47362
1
1
1
1
1.44192
1
1
1.47219
0.999031
1.4713
1.00007
1
1
0.644005
1
1
1.47242
0.662813
0.759292
0.6442
1.47248
0.999358
1
1.47647
0.66967
0.679538
0.989842
1
1
1.47246
1.00004
1.21006
1
1
1.4718
0.654635
1
1
1.00013
1.4716
1.00016
1.46479
1
1.00003
1
1
0.704185
1
0.782301
1.00001
1
1.47136
0.641438
1
0.796349
0.801929
1
1
1.4729
1
1
1
1.47154
1.47332
1.00005
1.46988
1.47231
0.809755
1.47204
1.44813
1
1
1.47361
0.999999
1
1
1
1
1.47619
1.4754
1
1
1
1.47241
1.0002
1
0.648023
0.691777
1
1.00003
1.17054
1
1
0.884696
0.692827
1
1
1
1.47574
1.43428
1.47188
1
1
1
1
0.617737
1
1.45029
1
1.4449
0.642137
1.47366
1
1
1
0.685231
1
1.47127
1.00003
1
0.675049
1.17796
1
0.999659
1.48734
0.656693
0.658182
1
1.47108
0.650884
0.654
1
0.642561
1.00001
1
1
1
0.6716
1
1
1
1
1.46807
1
1.35353
0.635963
1
1
1
0.653697
1.47152
1
1
0.996491
1.47169
1
1.47308
1.47128
1
1
0.738972
0.673274
1
1
0.660787
1.16723
1.2144
1
1
1.47315
0.997386
1
0.997662
1.47334
1
1
1
1
1
1
1.47098
1
1.16453
1.13826
0.714739
1.41743
1
1.47209
1.47253
1
1
1
0.933738
0.665563
1
1.22244
0.999636
1.38802
1
1
1
0.999999
1
1.00827
1.19666
1.47262
1.47437
1
1.47358
1
0.70302
1
0.997684
0.999782
1
0.637839
1
0.641359
1.00002
1.47613
1.47162
0.653846
1.47886
0.687652
0.996299
1.36285
0.645408
1.3339
1
1
0.998441
1
1
1
1.00006
1
0.640809
1
1
1
1
0.9996
1.47248
0.823112
1
1
1
1.03503
1
1
1
1.26458
0.743978
1
1
1
1.05606
1.468
1
0.638664
1
1.47137
0.893853
0.681454
1
0.660982
1
1
1.44855
0.998266
1.45241
1
1.00852
1
1
1.47071
1
1
1
1
1.08698
1
1.47021
1.47371
1.46777
0.645397
1.47315
0.997131
1.38271
1
1
0.647982
1
1
0.639023
1.4693
1
1
0.99996
1
1
1
0.638135
0.642695
1
1.47753
1
1.2135
1.4719
0.673284
1.39027
1
1
0.651277
1
1
1.47097
1.47093
1.15765
1
1
1.00083
1.47219
0.648443
0.63299
1.47049
1.47078
1.32364
1.18858
1
0.897262
1
1
1
1.43418
1.47668
1.47005
1
1
1.46895
0.666284
1.43322
0.631305
1
0.640013
1
0.651717
1.4706
0.647865
1
0.975501
0.701751
1
1
1
0.842534
1.40696
1.47213
1.47145
1.47456
1
1
1.47234
1
1
1.47067
1
0.677535
1
0.632976
1
1.47014
1
1
1.01743
1.35703
1
0.998625
0.678911
1.47219
1.00001
0.63526
1.08684
1
1
1.35719
1.47138
1.47251
1
1.46957
1.11994
1
1.02285
1.47105
1
1
1
1
1.47196
1
0.641273
1.47372
0.668851
0.63581
0.817261
1.46951
1.152
1.46875
1
1.47776
0.997449
1.00003
1.4724
1.47241
1
1.47195
1
1.46886
1
1.47237
1
1.00004
0.999991
1.47374
0.649897
0.636639
0.997928
0.999999
1
1
0.64085
1
1.31128
1
0.663387
1
1.18892
1.47042
1.47439
1
1
1.00003
0.999399
1
1.47144
1.47102
1
1.20944
1.47163
0.829963
1.47196
1.00059
0.658498
1.10012
0.673837
1
1
1.08146
1.47136
1
1
1.02256
0.998649
1
0.640795
1
0.782028
1
1.47339
1
1
0.665002
1.1124
1.04026
0.998486
1.47
1.47227
0.74551
0.998082
0.642518
0.685399
0.650428
1
1
1
0.999058
0.709522
0.679283
1
1.47104
0.999738
1.47302
1.47074
1.47114
1.47204
1
0.645856
1.47277
0.66194
1
1.47508
1.48085
0.996565
0.811876
1.46653
1.33724
1
0.645612
1
1
1.47014
1
1.027
1.4718
1
0.646366
0.638913
1
1
0.645822
0.652394
1.47142
1.00005
1
0.637344
0.638253
1.47225
1.45856
1.44009
1.47139
1.11993
0.978756
1.20031
1.47373
1.36991
1
1.23989
1
0.649958
0.841768
1
0.634597
1.47053
1.02287
1.47124
1
1.47175
1.4725
1
1.47176
1.47308
0.635202
1.47442
1
1.48869
1
0.756428
0.659567
1.47107
1
1
1
0.655628
1.47354
1.47171
1
0.642443
1
1
0.63505
1.00004
0.636588
1.47146
1
0.816954
0.655178
1
1
1.26085
1
1
1
1.07707
0.643929
1
1.00001
1
1.46849
0.662284
1
1.47233
0.636083
0.657377
1
1
1.47748
1
1.47444
1.00001
1.47385
0.658214
1
1
0.67839
0.80564
0.631863
1
1
1
1
1.47822
0.644426
1
0.666936
1
1.47968
1
1
0.922265
1
1
0.815404
0.999687
1.00005
1
0.658348
0.637925
1
1
1
1
0.800835
1.46731
1.47122
1
0.679699
0.669554
0.883781
0.648962
1
0.849801
1
0.647192
0.969039
1
1
0.656913
1
1.465
1.45854
0.645574
1
1
1
1.46196
1
1.03007
0.81808
1.14831
0.65872
1.18477
0.644825
1
1
0.728468
0.885888
1
1.04884
1
1
0.683278
1
0.909872
1.06843
0.671439
1
1.37984
0.742465
0.876414
1
1
1
0.657951
1
0.660593
0.66561
1
0.877152
0.676075
1.08363
0.73593
0.655968
1.47193
1
1.47244
1.2543
0.730399
1.47284
0.641794
0.999005
1.47072
0.999999
1
1.46527
1
0.751998
1
1.0946
1
1
1.47177
1
0.786859
0.846998
1.47105
0.906937
1
0.731076
1.47225
1.47031
0.904733
1
1.47214
1.12308
0.873406
1
0.989518
1
0.645389
1.19916
0.790583
0.769531
1
1
0.648929
1.47532
0.935859
0.664265
0.654215
0.843344
1
1.01243
1.47243
1.47018
1
1
0.999999
0.643255
1.21776
0.999981
1.47208
1.44825
0.661056
1
1.12141
0.901548
1.26629
1.39305
1
1.00881
1
1.00005
0.634108
0.8734
1
1
0.824956
0.632443
1.03983
1
1.00002
0.641057
1.21468
1
1.45989
1
1.02088
1.24628
1
1.47018
1
1
1.46959
1
0.648227
1.47273
0.688909
1.12109
1
0.670353
0.999913
1
1.00003
1
0.804252
1.02828
0.655291
1.35236
1.47111
0.637297
1
1
1
1
1
0.956592
0.682672
1.05665
0.664051
0.671974
1.08402
1
0.999806
1.11897
1
1
0.690172
0.989859
1
1
1.11272
1
1.47094
1
1.47205
1.06545
1.0467
0.653334
1
1
0.638916
1
1
1
1
1.46862
1.04365
0.998069
1
0.647128
1.05084
0.999999
1
1.31075
1
0.673466
1.47357
1
1.00001
1
1.47187
0.667757
0.87793
0.633968
1.35312
1.46879
1
1
1.47151
1
0.643029
1
1
1
1
1
0.767513
1
1.47063
1
1
1.16648
1.47108
0.652766
0.890688
1
1.47249
1
1
1
1
1
1.4721
1.4711
0.650427
1.4714
0.657389
1
1
1.47194
1
1.4706
1.00411
1.02797
1.036
1.4712
1.06204
1.31529
0.656883
1
0.64955
1.0051
1
1.47211
1
1
0.659715
1.46388
1
1.47041
1
1
1
1
1
1.00001
0.656019
1.47174
0.867613
1.4707
1
0.667621
0.653015
0.717727
1.47977
1.4703
0.944162
1
0.812826
1
1.1953
1
1.47145
0.639222
0.64404
0.858845
1
1.47082
1
1.08037
0.689158
1
1.47251
1.42223
0.99885
1
1.47315
0.667912
1.47395
1.47313
1.48078
0.672376
1.09316
1
1
0.644591
1
0.831387
0.854386
1
1.00002
1.46931
1
1.47817
1.0967
1
1.04118
1.47757
1
0.663768
1
0.752583
1
1
1.37163
1
0.819696
1
0.65225
1.03841
0.940264
0.649774
1.47573
1.38597
1.47208
0.659776
0.721814
0.995582
0.999999
1
0.672671
1.4431
0.63971
0.999973
1
1.47222
1.47098
0.878383
1
0.648036
0.719376
1.31611
0.970106
0.66023
0.999999
0.640799
1.11225
0.654989
1
1.00006
0.798829
1.47212
1.47176
0.820143
0.999601
1
1
0.696943
1
0.649573
1
0.660078
0.649292
1
1
1.00003
0.657009
1.4706
1
1
1.00006
1.00004
0.684446
1.47072
1.47159
1
0.657789
1.47009
1
1.10729
1
1
1.46937
0.645542
1
1
0.663891
0.745447
0.652049
0.640019
1
0.703729
0.997346
1.08855
0.648675
1
1
1.13183
1
1.41748
1
1
1.31931
0.707489
1
0.681006
1.1163
1.4712
1
1
0.654402
0.681438
0.655812
0.717861
0.668007
1.33828
0.99942
1
1
1
1
1.47145
0.637652
1
0.953871
0.999697
0.998592
0.999943
0.769218
1.14395
1
1.47153
1.47093
1
1
1.44771
1.00004
0.999999
1.47151
0.66842
1.47048
0.999999
0.630328
1.47147
1.00006
1
0.840652
1
0.649754
1
1.47157
1
1
1.47577
1
1
1.47412
1
1
1
1.47127
1
0.761597
0.748244
1
0.636683
1.46864
1
1
0.974904
1
1.47469
1.27811
1.36787
1
1
0.669025
1
0.642299
1.47393
1.47071
1.47303
1
1.47147
0.655495
1
0.658308
1.37779
1.42478
1.47184
1.47142
0.737591
0.644466
1
1.31271
1.47095
1.47116
1.4726
0.769204
1.15563
1
1.35546
0.769705
1
1.00002
1
1.00002
0.912689
1
1.47046
1
1
1
1
1
1
1.00006
1.4677
1
1.47472
1.34969
0.636103
1.47208
1.03378
1.24089
1
1.47326
1
0.663567
1
1
1
1
1.39986
1
0.648894
1.46749
0.642328
1.47126
1.37443
1.2262
1
1.08932
1.22618
0.995953
0.67879
0.762145
1.00002
0.999999
0.913758
1
0.621964
1.4705
0.646423
0.912076
0.857491
1
1
1
1.01561
1
1
0.668418
0.996891
1.47365
1
1.47128
1
0.649997
1
1
1.47096
1.47079
0.640955
1
1.47173
1
0.81321
0.673938
1.47179
1.42235
1
1.0785
1.47219
0.998635
1
1.171
1.4135
1.47412
0.995845
1
0.999998
1.39727
1
1
1
1.47065
0.998505
1
1
1.47123
1
1
0.660128
1
1
1
1.47187
1
1
0.851403
1.1636
1.42694
0.793748
1
1.47156
1
1.15776
1
1.47608
0.997253
1.47103
1
0.655388
1
1.32058
1
1
1.44005
1.00001
1.47135
1
1.47576
0.69151
0.660772
1.4723
1
1.40938
1
1.47187
1
1
1.00005
1.4726
1.47777
1.11585
1.47166
0.995892
0.676429
1.47228
0.863845
1
1.48018
1
1.47124
1
1.47628
1.472
0.996431
0.657105
1
1.47148
1
1.03703
1
1
0.998041
0.734743
1.42096
1
1.4288
1
0.892219
0.648764
1.4691
1.47261
0.662231
1
1.47356
1.47581
1.47528
0.682096
1.4715
0.644712
1.47006
1.47598
1
1
1.47146
1
1
1
1
0.651702
1
1
1.47187
1.47089
1
1.47109
1
1.47493
1.4713
1
1.391
1
0.644647
1.47113
1.33756
1.11669
0.641934
1.47312
1
1
0.650816
1
1
1.47189
1
1
0.788058
1
1.47127
1.00009
1.47107
0.65466
1.47423
1
1.46981
1.45345
0.893512
1
1.47451
0.771886
1.47917
1.33545
1.47151
1.46889
0.997472
1.47353
1.47083
1.47172
1.47087
1.00024
1
0.686505
1
1.47305
0.80093
1.42717
1
1.4641
1
1
1
1
1
1.47104
0.648543
0.628795
1.47101
1.47078
1
1
1
1
1
1.47249
1.42455
1.47089
1.02427
1
1
1
1.00003
1.46542
1.47158
1
1.47232
1.47028
0.674562
1.32351
1
1.47224
1.47637
1.46698
0.997807
1.47271
1.47202
1
1.42221
1
1
1
1
1
1
1.47168
1.47126
1.43826
1.47096
0.65089
0.694652
1.47068
1.47111
1
0.638023
0.924204
1
1.23149
0.663492
1
0.999452
0.998266
0.643659
1
1.47033
1
1
1
1.47218
0.94601
1
1.47062
1.47108
1
1.47137
1
1
1.47293
1
0.646857
1
1.46728
1
1
0.677719
1
1.47606
1
0.647196
0.646728
1
1.47826
1
0.627858
0.884714
1
1.471
1
1
1
1.47582
1
0.632914
1.06361
1.47029
1.47339
1.47175
1.0453
1.46918
1.47208
1
1.00002
1
1
1.00001
1.473
1
0.999316
1.48257
1
0.635085
1
1.47293
1.20367
1.05261
1.20918
1.05774
1.47194
0.730745
1.4722
1
0.660211
0.997266
1.47115
0.939448
1.47095
1.47162
1.44817
1
1.47015
1.47303
1.47214
1
1.00003
1
1
1.47116
1.3317
1
1
0.662078
0.9966
1
1.47159
1
1.47059
1.47188
1.46735
0.891479
1.47253
1.47124
1.02097
1.23736
1.47058
1.47171
1
1.42505
0.840579
1.46062
0.986968
1.47075
1
1.47167
1.47058
1
0.648345
0.928491
0.679392
1
1.07842
0.996502
1.46591
1
1
0.996912
1
1.23438
1.44276
1
1
1.47138
1
1
1.32974
1.47425
1.45262
1.47177
1.47135
1
1.47381
0.734096
1.47183
1
1.014
0.637831
1
1
0.737435
1
1.12191
1
1.47417
1
1.46379
1.29869
0.643103
1
1
1
1
1
1.47078
1.01132
1
1.47681
1
1.47108
1.4715
0.999999
1
0.946591
0.999843
0.645171
0.644355
0.714718