/*--------------------------------*- C++ -*----------------------------------*\
  =========                 |
  \\      /  F ield         | OpenFOAM: The Open Source CFD Toolbox
   \\    /   O peration     | Website:  https://openfoam.org
    \\  /    A nd           | Version:  12
     \\/     M anipulation  |
\*---------------------------------------------------------------------------*/
FoamFile
{
    format      ascii;
    class       surfaceScalarField;
    location    "13.3";
    object      phi;
}
// * * * * * * * * * * * * * * * * * * * * * * * * * * * * * * * * * * * * * //

dimensions      [1 0 -1 0 0 0 0];

internalField   nonuniform List<scalar> 
19404
(
-0.000124445
3.07055e-07
-0.000124331
2.37913e-07
-0.000123961
2.69495e-07
-0.000123351
4.00232e-07
-0.000123027
3.95766e-07
-0.000122882
3.24391e-07
-0.000122795
2.19158e-07
-0.000122903
9.59016e-08
-0.000124417
2.1478e-08
-0.000126767
1.09888e-07
-0.000127734
3.43109e-07
-0.000127906
4.1454e-07
-0.000127794
3.51499e-07
-0.000127317
2.49235e-07
-0.000126499
3.14018e-07
-0.000126075
3.86548e-07
-0.000125912
3.49646e-07
-0.000125831
2.59993e-07
-0.000125806
1.33315e-07
-0.000126638
3.74915e-08
-0.00012925
8.97083e-08
-0.000130788
2.97691e-07
-0.000131124
4.14112e-07
-0.000131058
3.72376e-07
-0.000130522
2.33518e-07
-0.000129606
1.95097e-07
-0.000129091
3.46054e-07
-0.000128883
3.44051e-07
-0.00012881
2.82709e-07
-0.000128768
1.69027e-07
-0.000129222
7.06269e-08
-0.000131666
1.44754e-07
-0.000133756
3.61414e-07
-0.000134324
4.52041e-07
-0.000134318
4.01574e-07
-0.000133731
2.1806e-07
-0.000132616
5.31688e-08
-0.00013192
2.27037e-07
-0.000131584
3.08171e-07
-0.000131502
3.14618e-07
-0.00013148
2.08012e-07
-0.000131682
9.74368e-08
-0.000133915
1.20157e-07
-0.000136675
3.65967e-07
-0.000137557
4.33687e-07
-0.000137635
4.07871e-07
-0.000137108
2.26992e-07
-0.000135585
-2.72967e-08
-0.000134397
8.45466e-08
-0.000133832
2.71503e-07
-0.000133651
3.28771e-07
-0.000133615
2.45307e-07
-0.000133711
1.10598e-07
-0.000135843
7.6488e-08
-0.000139523
2.60261e-07
-0.000140875
3.97463e-07
-0.000141088
4.38094e-07
-0.000140544
2.45656e-07
-0.000138175
-5.12887e-08
-0.000136189
-6.18614e-08
-0.000135355
1.41911e-07
-0.000135106
2.31044e-07
-0.000135118
2.37231e-07
-0.000135314
6.69643e-08
-0.000137903
5.6021e-08
-0.000142083
1.58043e-07
-0.000143709
3.27224e-07
-0.000144011
4.61207e-07
-0.00014369
2.71873e-07
-0.000140479
7.1195e-08
-0.000137001
-5.29486e-08
-0.000135625
-7.33153e-08
-0.000135361
5.1214e-08
-0.000135441
-4.65107e-09
-0.000136019
-2.1906e-07
-0.000140515
-2.24648e-07
-0.000145106
3.35327e-07
-0.000146609
3.26039e-07
-0.000146845
3.97112e-07
-0.000145927
4.40975e-07
-0.000141104
2.41189e-08
-0.000135705
-4.59537e-07
-0.000133285
-3.81406e-07
-0.000133144
-5.12698e-07
-0.000133437
-5.09313e-08
-0.000138611
-2.32732e-07
-0.000145665
-3.43264e-07
-0.000147878
2.43336e-09
-0.000148363
5.81577e-07
-0.000148233
6.98454e-07
-0.000144892
5.32916e-07
-0.000135832
2.82419e-07
-0.000127328
-2.10364e-07
-0.000124475
-7.24458e-07
-0.000125374
-6.62806e-07
-0.000133135
-2.59874e-06
-0.000135091
-6.69263e-06
-0.000105474
-2.13341e-05
2.01994e-05
-0.000133168
4.08294e-07
-0.000132974
3.71485e-07
-0.000132132
3.75057e-07
-0.000131209
4.32479e-07
-0.000130788
4.509e-07
-0.000130595
4.15828e-07
-0.000130474
3.30694e-07
-0.000130829
2.53634e-07
-0.000132838
2.73029e-07
-0.000134316
2.96037e-07
-0.000134809
4.00506e-07
-0.000134859
4.62171e-07
-0.000134751
4.51718e-07
-0.00013418
4.06437e-07
-0.000132867
4.11089e-07
-0.000132212
4.20108e-07
-0.00013195
4.02774e-07
-0.000131832
3.50791e-07
-0.000131819
2.51927e-07
-0.000133006
2.19388e-07
-0.000135224
2.86184e-07
-0.000136206
3.84869e-07
-0.00013643
4.94821e-07
-0.000136401
5.03549e-07
-0.000136049
4.12318e-07
-0.000134558
3.60257e-07
-0.000133586
3.38447e-07
-0.000133211
3.29496e-07
-0.000133075
3.28179e-07
-0.000133025
2.67277e-07
-0.00013338
1.91427e-07
-0.000135651
2.76061e-07
-0.000137489
4.80848e-07
-0.000137993
5.86853e-07
-0.000138036
5.81044e-07
-0.000137898
4.60154e-07
-0.000136441
3.3723e-07
-0.000134899
2.4431e-07
-0.000134321
2.49289e-07
-0.000134118
2.92586e-07
-0.000134056
2.51994e-07
-0.000134149
1.8532e-07
-0.000136063
2.04027e-07
-0.000138847
4.62035e-07
-0.00013977
5.9434e-07
-0.000139881
6.19697e-07
-0.000139801
4.93578e-07
-0.000138278
3.25584e-07
-0.00013609
1.90965e-07
-0.000135226
1.85255e-07
-0.000134944
2.6419e-07
-0.00013489
2.7371e-07
-0.00013497
1.88229e-07
-0.000136849
1.53553e-07
-0.000140341
3.36311e-07
-0.000141679
5.22181e-07
-0.000141873
6.31362e-07
-0.000141834
5.26301e-07
-0.000140094
3.80167e-07
-0.000137127
1.73536e-07
-0.000135969
8.25111e-08
-0.000135621
1.08786e-07
-0.00013551
1.81802e-07
-0.000135647
1.18863e-07
-0.000138166
4.8193e-08
-0.000142348
2.7573e-07
-0.000143888
4.89726e-07
-0.000144111
6.63232e-07
-0.000144062
6.08464e-07
-0.000141738
4.67273e-07
-0.000137589
2.26865e-07
-0.000135919
-1.10667e-07
-0.000135526
-2.17129e-07
-0.000135546
-1.82544e-07
-0.00013618
-2.76384e-07
-0.000140612
-1.40858e-07
-0.000144596
2.60388e-07
-0.000145927
5.62857e-07
-0.000146227
7.35766e-07
-0.00014611
6.58511e-07
-0.000142398
4.29769e-07
-0.000136109
-2.65111e-07
-0.000133763
-7.7657e-07
-0.000133263
-7.24025e-07
-0.00013349
-1.009e-06
-0.000136724
-1.05262e-06
-0.000142654
-7.52048e-07
-0.000145673
-7.64019e-09
-0.000146504
4.58026e-07
-0.000146746
4.79499e-07
-0.000144359
3.85551e-07
-0.00013597
-3.24463e-07
-0.000127115
-1.47859e-06
-0.00012132
-2.66723e-06
-0.000120998
-3.46441e-06
-0.000123902
-6.13724e-06
-0.000126505
-1.30968e-05
-0.000118296
-2.40368e-05
2.63668e-05
-0.000132515
5.3333e-07
-0.000132313
4.92748e-07
-0.000131503
5.01508e-07
-0.000130643
5.19603e-07
-0.000130223
4.87419e-07
-0.000130019
4.54434e-07
-0.000129915
4.12363e-07
-0.000130268
3.81591e-07
-0.00013221
4.47555e-07
-0.000133632
5.39787e-07
-0.000134081
5.52897e-07
-0.000134167
5.67921e-07
-0.000134069
5.43707e-07
-0.000133557
5.31311e-07
-0.000132327
5.09539e-07
-0.000131692
4.72619e-07
-0.000131404
4.19278e-07
-0.000131282
4.09468e-07
-0.000131265
3.67147e-07
-0.000132306
3.61377e-07
-0.000134478
4.90539e-07
-0.000135491
5.91729e-07
-0.000135739
6.09617e-07
-0.000135719
6.01038e-07
-0.000135479
5.55836e-07
-0.000134133
4.77168e-07
-0.000133143
3.95403e-07
-0.000132739
3.53316e-07
-0.000132514
3.44167e-07
-0.000132433
3.76781e-07
-0.000132656
3.51797e-07
-0.00013483
4.37512e-07
-0.000136793
6.22624e-07
-0.00013736
6.91255e-07
-0.000137441
6.89947e-07
-0.000137357
6.14882e-07
-0.000136104
5.16609e-07
-0.00013453
3.76995e-07
-0.0001339
2.85841e-07
-0.000133596
2.96245e-07
-0.000133467
3.13632e-07
-0.000133499
3.18249e-07
-0.000135192
3.34586e-07
-0.000138098
5.39036e-07
-0.000139136
7.00206e-07
-0.000139309
7.53312e-07
-0.000139251
6.65833e-07
-0.000137925
5.72045e-07
-0.000135693
3.95468e-07
-0.000134808
2.27572e-07
-0.000134479
1.93706e-07
-0.000134363
2.35211e-07
-0.00013441
2.63355e-07
-0.000135933
2.57637e-07
-0.000139413
4.65259e-07
-0.000140921
6.83997e-07
-0.000141206
7.78691e-07
-0.000141205
7.41201e-07
-0.000139892
6.49338e-07
-0.000136774
4.01213e-07
-0.000135288
1.19105e-07
-0.000134841
1.07617e-08
-0.000134741
4.48779e-08
-0.00013483
6.91356e-08
-0.00013694
9.43768e-08
-0.000141068
3.76411e-07
-0.000142851
7.0158e-07
-0.000143228
8.44456e-07
-0.000143244
8.47832e-07
-0.000141737
7.35156e-07
-0.000137332
3.86464e-07
-0.000134872
-1.59551e-07
-0.000134286
-4.10778e-07
-0.000134253
-4.14336e-07
-0.000134586
-4.81145e-07
-0.000138141
-3.57161e-07
-0.000142507
1.86852e-07
-0.00014426
7.00025e-07
-0.000144694
8.65094e-07
-0.000144773
8.1476e-07
-0.00014222
7.02208e-07
-0.00013542
3.46282e-08
-0.000132031
-9.53877e-07
-0.000131475
-1.56281e-06
-0.000131512
-1.64223e-06
-0.000132776
-1.87222e-06
-0.000138249
-1.6235e-06
-0.000142734
-7.34111e-07
-0.000144053
-8.66297e-08
-0.000144309
1.17618e-07
-0.000142736
2.02281e-08
-0.00013529
-6.46509e-07
-0.000127879
-2.34009e-06
-0.000122384
-4.05833e-06
-0.000119846
-5.73614e-06
-0.000120688
-8.90178e-06
-0.000123766
-1.64012e-05
-0.000122302
-2.3599e-05
2.94791e-05
-0.000131411
6.62761e-07
-0.000131237
6.35312e-07
-0.000130494
6.33688e-07
-0.000129605
6.08758e-07
-0.000129151
5.49822e-07
-0.000128936
5.0899e-07
-0.00012885
4.77125e-07
-0.000129305
4.62382e-07
-0.000131227
5.92557e-07
-0.000132469
7.17266e-07
-0.000132888
7.72519e-07
-0.000132959
7.20009e-07
-0.0001329
6.62962e-07
-0.000132527
6.10018e-07
-0.000131393
6.14845e-07
-0.000130673
5.41842e-07
-0.000130361
4.94175e-07
-0.000130206
4.60613e-07
-0.000130185
4.3759e-07
-0.000131231
4.83463e-07
-0.000133351
6.59304e-07
-0.000134324
7.78191e-07
-0.000134593
7.74585e-07
-0.000134615
7.29776e-07
-0.000134474
6.38411e-07
-0.000133328
5.92146e-07
-0.000132055
5.26344e-07
-0.000131532
4.56466e-07
-0.000131312
4.18806e-07
-0.000131249
4.36081e-07
-0.000131494
4.24184e-07
-0.000133649
5.48655e-07
-0.0001357
7.32977e-07
-0.000136323
8.08207e-07
-0.000136415
7.83185e-07
-0.000136369
7.22172e-07
-0.000135402
6.45771e-07
-0.000133422
5.92286e-07
-0.000132591
4.66093e-07
-0.00013227
3.81524e-07
-0.00013219
3.64056e-07
-0.000132261
3.44476e-07
-0.000133881
3.94298e-07
-0.00013688
5.8432e-07
-0.000138053
7.72093e-07
-0.000138262
8.47441e-07
-0.000138261
8.17705e-07
-0.000137337
7.47284e-07
-0.000134746
6.15758e-07
-0.000133478
3.94604e-07
-0.000133076
2.56802e-07
-0.000132962
2.33989e-07
-0.000133
2.35671e-07
-0.000134356
2.74249e-07
-0.000137851
5.0475e-07
-0.000139587
7.79441e-07
-0.000139959
8.97896e-07
-0.00014
9.02537e-07
-0.000139328
8.15627e-07
-0.000136044
6.32159e-07
-0.000133825
2.87895e-07
-0.000133178
-5.28708e-08
-0.000133027
-8.07545e-08
-0.000133088
-7.12007e-08
-0.000134679
-1.49541e-08
-0.000138824
3.12077e-07
-0.000141017
7.74207e-07
-0.000141557
9.91435e-07
-0.000141646
1.04988e-06
-0.00014109
9.24959e-07
-0.000136825
6.26026e-07
-0.000133148
1.4182e-08
-0.000132162
-6.01065e-07
-0.000132002
-7.75342e-07
-0.000132138
-7.88374e-07
-0.000134498
-7.58336e-07
-0.000139383
-1.60188e-07
-0.000141611
5.92295e-07
-0.000142099
9.39679e-07
-0.00014223
1.00927e-06
-0.000141246
8.67987e-07
-0.000135434
3.7911e-07
-0.000130174
-1.01892e-06
-0.00012866
-2.05189e-06
-0.000128602
-2.52679e-06
-0.000128881
-2.697e-06
-0.000132113
-2.76971e-06
-0.000136694
-2.08834e-06
-0.000138697
-1.11622e-06
-0.000139284
-6.00292e-07
-0.000139081
-6.83166e-07
-0.000134459
-1.0269e-06
-0.000126543
-2.91675e-06
-0.000120052
-5.37427e-06
-0.000116824
-7.32334e-06
-0.00011727
-1.13324e-05
-0.000121017
-1.84196e-05
-0.000125126
-2.11937e-05
3.09712e-05
-0.000130159
8.02327e-07
-0.000129972
7.65702e-07
-0.000129309
7.46457e-07
-0.000128357
6.98329e-07
-0.000127839
6.17699e-07
-0.000127603
5.64604e-07
-0.000127502
5.25517e-07
-0.000128051
5.06298e-07
-0.00013011
7.11276e-07
-0.000131326
9.1574e-07
-0.000131619
9.54781e-07
-0.000131651
8.88265e-07
-0.000131562
7.85435e-07
-0.000131262
7.33601e-07
-0.000130181
6.924e-07
-0.000129357
6.17729e-07
-0.000128961
5.24454e-07
-0.000128804
5.21786e-07
-0.000128802
4.93924e-07
-0.000129948
5.51569e-07
-0.00013215
7.77731e-07
-0.000133104
9.52069e-07
-0.000133332
9.54817e-07
-0.000133336
8.76672e-07
-0.000133226
7.67223e-07
-0.000132182
7.14803e-07
-0.000130718
6.46392e-07
-0.000130123
5.11134e-07
-0.000129892
4.76786e-07
-0.000129801
4.63162e-07
-0.000130088
4.63638e-07
-0.000132272
6.01771e-07
-0.000134347
8.27263e-07
-0.000134958
9.51829e-07
-0.000135059
9.43983e-07
-0.000135019
8.86073e-07
-0.00013425
8.15632e-07
-0.000132151
7.42911e-07
-0.000131182
5.3241e-07
-0.000130862
4.04406e-07
-0.000130755
3.89368e-07
-0.000130801
3.78928e-07
-0.000132222
4.19072e-07
-0.000135114
6.43037e-07
-0.000136405
9.03972e-07
-0.000136679
9.86003e-07
-0.000136713
1.01679e-06
-0.000136269
9.49026e-07
-0.000133748
8.05223e-07
-0.000131926
4.87725e-07
-0.000131409
2.36774e-07
-0.000131259
1.67395e-07
-0.000131268
1.5784e-07
-0.000132377
2.10118e-07
-0.00013573
4.54709e-07
-0.000137665
8.66178e-07
-0.000138187
1.06148e-06
-0.000138268
1.09263e-06
-0.000138085
1.04418e-06
-0.000135472
8.90507e-07
-0.000132233
4.15733e-07
-0.000131249
-5.59524e-08
-0.000131029
-2.69366e-07
-0.000131045
-2.87822e-07
-0.000132002
-2.55465e-07
-0.000135877
7.52953e-08
-0.000138544
7.32667e-07
-0.00013929
1.11456e-06
-0.000139431
1.20859e-06
-0.000139387
1.10592e-06
-0.000136822
9.04167e-07
-0.000132023
9.34591e-08
-0.000129971
-6.22599e-07
-0.00012967
-1.06615e-06
-0.000129669
-1.15974e-06
-0.000130587
-1.19114e-06
-0.000135033
-7.95073e-07
-0.000138492
2.443e-07
-0.000139499
9.5526e-07
-0.000139687
1.1077e-06
-0.00013962
9.94608e-07
-0.000136292
6.74597e-07
-0.000129726
-5.53445e-07
-0.000126178
-2.15017e-06
-0.000125662
-3.00946e-06
-0.000125677
-3.56943e-06
-0.000127139
-3.79758e-06
-0.000131508
-3.51134e-06
-0.000134728
-2.54523e-06
-0.000135884
-1.82199e-06
-0.000136192
-1.70996e-06
-0.000134765
-1.79902e-06
-0.000128549
-3.0434e-06
-0.000121729
-6.01304e-06
-0.000116487
-8.46164e-06
-0.000116093
-1.13498e-05
-0.000120167
-1.97107e-05
-0.000126342
-1.9251e-05
3.2298e-05
-0.000129162
9.40633e-07
-0.000128993
9.56071e-07
-0.000128452
9.16439e-07
-0.000127282
8.32891e-07
-0.000126601
7.46236e-07
-0.000126329
6.83095e-07
-0.000126204
6.24404e-07
-0.000126639
5.5837e-07
-0.000128815
7.17849e-07
-0.000130289
9.76607e-07
-0.000130619
1.06456e-06
-0.000130608
1.04198e-06
-0.000130507
9.93368e-07
-0.000130232
9.24609e-07
-0.000129205
8.4502e-07
-0.000128078
7.35363e-07
-0.000127614
6.35221e-07
-0.000127424
6.00501e-07
-0.000127383
5.48267e-07
-0.000128467
5.76552e-07
-0.000130949
8.0738e-07
-0.000132061
1.05636e-06
-0.00013224
1.08915e-06
-0.0001322
1.04581e-06
-0.000132074
9.75738e-07
-0.000131182
8.89462e-07
-0.00012954
7.77693e-07
-0.000128788
5.92418e-07
-0.000128503
5.11127e-07
-0.000128409
5.0298e-07
-0.000128607
4.94567e-07
-0.00013072
6.06799e-07
-0.000132986
8.96784e-07
-0.000133673
1.0686e-06
-0.000133794
1.12019e-06
-0.000133757
1.08403e-06
-0.000133231
1.01094e-06
-0.000131174
8.68103e-07
-0.000129846
6.07933e-07
-0.000129404
4.04136e-07
-0.000129247
3.63297e-07
-0.00012926
3.85304e-07
-0.000130472
4.39123e-07
-0.000133342
6.99624e-07
-0.000134776
1.02067e-06
-0.000135193
1.16008e-06
-0.000135255
1.18465e-06
-0.000135133
1.1216e-06
-0.000133303
9.92452e-07
-0.000130654
5.38065e-07
-0.000129761
2.47907e-07
-0.000129553
8.84639e-08
-0.000129545
4.6424e-08
-0.000130293
6.8804e-08
-0.000133526
3.66377e-07
-0.000135804
9.09125e-07
-0.000136465
1.21778e-06
-0.00013664
1.29697e-06
-0.000136649
1.24656e-06
-0.000135395
1.09118e-06
-0.000131597
6.17639e-07
-0.000129487
8.97047e-08
-0.000129121
-3.09699e-07
-0.00012909
-4.71144e-07
-0.000129479
-5.23108e-07
-0.000132732
-2.88402e-07
-0.00013629
4.84706e-07
-0.000137451
1.1503e-06
-0.000137685
1.35346e-06
-0.000137738
1.2827e-06
-0.000136825
1.06053e-06
-0.000132213
5.83037e-07
-0.000128613
-5.95546e-07
-0.000127598
-1.15487e-06
-0.000127542
-1.44686e-06
-0.000127734
-1.58118e-06
-0.0001305
-1.52252e-06
-0.000135305
-6.51564e-07
-0.000137492
5.54993e-07
-0.000137976
1.04257e-06
-0.000138114
1.10291e-06
-0.000137033
9.80749e-07
-0.000131194
3.42902e-07
-0.000125871
-1.65294e-06
-0.000123765
-3.10408e-06
-0.000123626
-4.13406e-06
-0.000123901
-4.60172e-06
-0.000126642
-4.75398e-06
-0.000130438
-4.19072e-06
-0.000132437
-3.39871e-06
-0.000133203
-3.06906e-06
-0.000133422
-3.23148e-06
-0.000131286
-3.1317e-06
-0.000125827
-5.74209e-06
-0.000119622
-8.51884e-06
-0.000115995
-1.09374e-05
-0.000118787
-1.90569e-05
-0.000126692
-1.85587e-05
3.37323e-05
-0.000128329
1.00206e-06
-0.000128209
1.06219e-06
-0.000127895
1.03036e-06
-0.000126703
9.59665e-07
-0.000125827
9.25749e-07
-0.000125485
8.61819e-07
-0.000125341
8.09841e-07
-0.000125488
7.27534e-07
-0.000127324
7.51326e-07
-0.000129079
9.63425e-07
-0.00012965
1.07993e-06
-0.00012976
1.1122e-06
-0.000129689
1.09244e-06
-0.000129543
1.0535e-06
-0.000128751
9.74263e-07
-0.00012727
8.76448e-07
-0.000126643
8.06113e-07
-0.00012642
7.41855e-07
-0.000126346
6.82752e-07
-0.000127053
6.37033e-07
-0.000129571
8.03726e-07
-0.000130957
1.05831e-06
-0.000131311
1.18926e-06
-0.000131342
1.1904e-06
-0.00013126
1.14301e-06
-0.000130751
1.05989e-06
-0.000128865
9.02019e-07
-0.000127672
7.31088e-07
-0.000127316
6.07381e-07
-0.000127209
5.46823e-07
-0.000127365
5.03436e-07
-0.000129261
5.85644e-07
-0.000131641
9.08254e-07
-0.000132542
1.19196e-06
-0.000132751
1.26781e-06
-0.000132753
1.25469e-06
-0.000132593
1.1813e-06
-0.000131009
1.05215e-06
-0.000128804
6.25779e-07
-0.000128068
5.0046e-07
-0.000127886
3.95453e-07
-0.000127884
3.28105e-07
-0.000128898
3.56059e-07
-0.000131791
6.76966e-07
-0.000133446
1.10623e-06
-0.000133948
1.32953e-06
-0.00013408
1.3466e-06
-0.00013408
1.26867e-06
-0.000133256
1.13055e-06
-0.000130314
8.13543e-07
-0.000128544
2.6709e-07
-0.000128151
9.80415e-08
-0.000128095
-4.42721e-09
-0.000128419
-3.96662e-08
-0.00013121
1.5242e-07
-0.000134183
7.95608e-07
-0.000135184
1.33817e-06
-0.000135427
1.4995e-06
-0.000135474
1.41444e-06
-0.000135118
1.23307e-06
-0.000131918
9.55414e-07
-0.000128759
9.34945e-08
-0.000127687
-2.97013e-07
-0.000127552
-5.19597e-07
-0.000127636
-6.52266e-07
-0.000129396
-6.79543e-07
-0.000133865
-5.88768e-08
-0.000136146
9.79551e-07
-0.000136609
1.4365e-06
-0.000136671
1.46365e-06
-0.000136489
1.31827e-06
-0.00013331
1.07082e-06
-0.000128585
-4.73317e-08
-0.000126389
-1.16829e-06
-0.000126023
-1.74118e-06
-0.000126061
-1.96209e-06
-0.000126918
-2.12358e-06
-0.000131391
-1.76357e-06
-0.000135361
-4.00188e-07
-0.000136687
6.94207e-07
-0.000136948
1.04144e-06
-0.000136957
1.05046e-06
-0.000134289
8.21125e-07
-0.000127968
-4.05847e-07
-0.00012385
-2.73838e-06
-0.000122404
-4.18488e-06
-0.00012243
-5.03709e-06
-0.00012326
-5.56663e-06
-0.00012665
-5.61286e-06
-0.00012964
-4.9744e-06
-0.000131173
-4.51787e-06
-0.000131859
-4.62425e-06
-0.000131704
-5.01587e-06
-0.000129256
-5.88469e-06
-0.000124577
-8.44112e-06
-0.00011924
-1.08786e-05
-0.000117576
-1.78245e-05
-0.000126884
-1.86602e-05
3.56169e-05
-0.000127576
1.05819e-06
-0.000127495
1.11085e-06
-0.000127259
1.05777e-06
-0.00012621
1.02744e-06
-0.000125316
1.0372e-06
-0.000124996
1.00937e-06
-0.000124847
9.43444e-07
-0.000124926
8.60751e-07
-0.000126468
8.81813e-07
-0.000128087
1.05785e-06
-0.000128737
1.15905e-06
-0.000128957
1.17108e-06
-0.000128955
1.14237e-06
-0.000128863
1.12338e-06
-0.000128317
1.02896e-06
-0.000126722
9.82599e-07
-0.000125971
9.32519e-07
-0.000125742
8.79291e-07
-0.000125657
8.01706e-07
-0.000126169
7.28097e-07
-0.000128431
8.27365e-07
-0.000129973
1.1115e-06
-0.000130437
1.24575e-06
-0.000130542
1.26261e-06
-0.000130487
1.22269e-06
-0.000130283
1.17369e-06
-0.000128749
1.07057e-06
-0.000126997
8.29238e-07
-0.000126466
7.35366e-07
-0.000126332
6.30521e-07
-0.000126378
5.4284e-07
-0.000127967
5.56128e-07
-0.000130544
8.95914e-07
-0.000131602
1.26137e-06
-0.000131889
1.3887e-06
-0.000131935
1.36185e-06
-0.0001319
1.31179e-06
-0.000131113
1.19753e-06
-0.000128613
9.57694e-07
-0.000127226
5.43445e-07
-0.000126917
4.42442e-07
-0.000126875
3.64543e-07
-0.000127403
2.76382e-07
-0.000130233
4.9998e-07
-0.000132461
1.09323e-06
-0.000133125
1.46465e-06
-0.000133282
1.49782e-06
-0.000133309
1.41191e-06
-0.000133087
1.26501e-06
-0.000130666
1.06853e-06
-0.000128139
4.58565e-07
-0.000127195
1.58946e-07
-0.000127009
1.41378e-08
-0.00012704
-6.88322e-08
-0.000128675
-8.49179e-08
-0.000132556
4.54034e-07
-0.000134403
1.30153e-06
-0.000134774
1.60558e-06
-0.000134829
1.5738e-06
-0.000134784
1.40967e-06
-0.000132819
1.22378e-06
-0.00012894
6.13313e-07
-0.000126995
-2.79891e-07
-0.000126528
-5.81093e-07
-0.000126532
-7.39126e-07
-0.000126974
-8.84401e-07
-0.000130675
-7.2341e-07
-0.000134673
3.93622e-07
-0.000135914
1.36903e-06
-0.000136103
1.62983e-06
-0.00013614
1.60172e-06
-0.000134895
1.40843e-06
-0.000129989
7.97542e-07
-0.00012641
-8.45715e-07
-0.000125176
-1.79118e-06
-0.000124983
-2.3571e-06
-0.000125087
-2.44797e-06
-0.000127003
-2.55617e-06
-0.000131966
-1.80685e-06
-0.00013495
-2.66764e-07
-0.000135903
6.11118e-07
-0.000136113
8.23821e-07
-0.00013589
9.43507e-07
-0.00013203
2.88575e-07
-0.000125868
-1.20493e-06
-0.000122574
-3.68069e-06
-0.000121702
-5.07821e-06
-0.00012173
-6.00941e-06
-0.000123217
-6.51631e-06
-0.0001266
-6.41821e-06
-0.000128841
-5.92383e-06
-0.00013003
-5.86295e-06
-0.000130604
-6.33914e-06
-0.000130217
-7.0786e-06
-0.000127859
-8.78466e-06
-0.000123441
-1.0846e-05
-0.00011941
-1.60623e-05
-0.000126414
-1.91167e-05
3.78964e-05
-0.000127246
1.18672e-06
-0.000127169
1.20767e-06
-0.000126963
1.1321e-06
-0.000125873
1.08927e-06
-0.000124922
1.09417e-06
-0.000124557
1.04261e-06
-0.000124395
9.74916e-07
-0.00012445
8.97679e-07
-0.00012606
9.50916e-07
-0.000127729
1.20793e-06
-0.000128358
1.34644e-06
-0.000128553
1.3176e-06
-0.000128583
1.284e-06
-0.000128499
1.22567e-06
-0.000128098
1.13127e-06
-0.000126486
1.08287e-06
-0.000125587
1.01817e-06
-0.000125292
9.30513e-07
-0.000125175
8.41981e-07
-0.00012546
7.56979e-07
-0.000127614
8.50838e-07
-0.000129317
1.18096e-06
-0.000129867
1.36776e-06
-0.000130019
1.38636e-06
-0.000130026
1.36613e-06
-0.000129925
1.30169e-06
-0.00012888
1.20676e-06
-0.000126883
1.01058e-06
-0.000126067
8.00485e-07
-0.000125824
6.75317e-07
-0.000125787
6.15654e-07
-0.00012668
5.33049e-07
-0.000129499
8.14739e-07
-0.000130972
1.29451e-06
-0.000131378
1.51367e-06
-0.00013149
1.51368e-06
-0.000131465
1.44469e-06
-0.000131125
1.33944e-06
-0.000128856
1.17034e-06
-0.000127024
7.31831e-07
-0.000126378
4.90385e-07
-0.000126242
3.82761e-07
-0.000126321
3.04618e-07
-0.000128353
3.38078e-07
-0.000131531
8.84422e-07
-0.000132673
1.49075e-06
-0.000132907
1.63615e-06
-0.000132933
1.58214e-06
-0.000132883
1.45683e-06
-0.00013138
1.29913e-06
-0.000128241
8.37936e-07
-0.000126707
1.91393e-07
-0.00012628
2.08619e-09
-0.000126274
-9.73589e-08
-0.000126732
-1.84878e-07
-0.000130308
-2.34788e-08
-0.000133563
9.32994e-07
-0.000134433
1.64243e-06
-0.000134534
1.74485e-06
-0.000134533
1.65118e-06
-0.000133728
1.53037e-06
-0.000129892
1.15018e-06
-0.000126983
7.53529e-08
-0.000126008
-6.23106e-07
-0.000125818
-9.51007e-07
-0.000125886
-1.01146e-06
-0.000127296
-1.12076e-06
-0.000132104
-5.11224e-07
-0.000134963
8.94278e-07
-0.000135659
1.66775e-06
-0.000135737
1.76172e-06
-0.000135664
1.67855e-06
-0.000133044
1.42943e-06
-0.000127913
2.29721e-07
-0.000125113
-1.52265e-06
-0.000124173
-2.36356e-06
-0.000124131
-2.66189e-06
-0.000124426
-2.92953e-06
-0.000127661
-2.99987e-06
-0.000132424
-1.85489e-06
-0.000134779
-3.24071e-07
-0.000135513
3.50551e-07
-0.000135652
4.96778e-07
-0.000134817
4.86045e-07
-0.000130136
-1.97309e-07
-0.000124633
-2.22186e-06
-0.000121788
-4.69505e-06
-0.000121156
-6.04446e-06
-0.000121309
-6.95443e-06
-0.000123445
-7.48615e-06
-0.000126721
-7.26328e-06
-0.000128561
-6.95317e-06
-0.000129456
-7.21393e-06
-0.000129818
-8.15406e-06
-0.000129177
-9.462e-06
-0.000126649
-1.10886e-05
-0.000122222
-1.45459e-05
-0.000125524
-1.90463e-05
4.01465e-05
-0.000127216
1.38125e-06
-0.000127128
1.35666e-06
-0.000126904
1.26249e-06
-0.000125789
1.21515e-06
-0.000124682
1.12611e-06
-0.000124217
1.02353e-06
-0.000124034
9.57738e-07
-0.000123987
8.68006e-07
-0.000125449
8.8827e-07
-0.000127662
1.27825e-06
-0.000128313
1.54475e-06
-0.000128501
1.55836e-06
-0.000128509
1.46859e-06
-0.000128439
1.39752e-06
-0.000128095
1.29635e-06
-0.00012653
1.21226e-06
-0.000125396
1.0387e-06
-0.000125003
9.37891e-07
-0.00012486
8.30672e-07
-0.000124899
7.29864e-07
-0.000126735
8.0367e-07
-0.000128951
1.2099e-06
-0.000129655
1.52631e-06
-0.000129847
1.59108e-06
-0.00012985
1.53126e-06
-0.00012978
1.45416e-06
-0.000129135
1.35089e-06
-0.000127045
1.16961e-06
-0.000125918
8.70718e-07
-0.000125543
7.13822e-07
-0.000125439
6.37824e-07
-0.00012569
5.38683e-07
-0.000128235
6.61928e-07
-0.000130544
1.26354e-06
-0.000131165
1.62188e-06
-0.000131299
1.69404e-06
-0.000131292
1.60926e-06
-0.000131179
1.50473e-06
-0.000129542
1.37352e-06
-0.000127102
9.68306e-07
-0.000126122
5.19608e-07
-0.000125818
3.87539e-07
-0.00012578
3.13402e-07
-0.000126517
2.40377e-07
-0.000130067
5.30247e-07
-0.000132272
1.37491e-06
-0.000132736
1.76095e-06
-0.000132804
1.79802e-06
-0.000132799
1.68776e-06
-0.000132131
1.53733e-06
-0.000128915
1.22203e-06
-0.000126677
4.57579e-07
-0.000125976
1.39525e-08
-0.000125786
-2.0091e-07
-0.000125838
-2.40972e-07
-0.000127559
-3.00248e-07
-0.000131925
3.09712e-07
-0.000133942
1.46115e-06
-0.000134296
1.89262e-06
-0.000134359
1.96527e-06
-0.000134248
1.82118e-06
-0.000131904
1.63121e-06
-0.000127857
6.96328e-07
-0.000125953
-4.92853e-07
-0.000125341
-9.68908e-07
-0.000125218
-1.2124e-06
-0.000125405
-1.26719e-06
-0.00012833
-1.26939e-06
-0.000133142
-2.00727e-07
-0.000135117
1.28493e-06
-0.000135573
1.80607e-06
-0.000135666
1.79596e-06
-0.000135237
1.6105e-06
-0.000130925
1.46292e-06
-0.000126014
-2.51094e-07
-0.000124039
-2.05515e-06
-0.000123578
-2.71564e-06
-0.000123612
-3.24485e-06
-0.000124221
-3.46414e-06
-0.000128234
-3.30837e-06
-0.000132343
-1.9419e-06
-0.00013407
-5.92741e-07
-0.000134635
-3.66494e-08
-0.000134756
3.00339e-08
-0.00013367
-5.50919e-08
-0.00012886
-1.10395e-06
-0.000123679
-3.1848e-06
-0.0001211
-5.7251e-06
-0.000120643
-7.02856e-06
-0.00012095
-8.0265e-06
-0.000123645
-8.51176e-06
-0.000126727
-8.20385e-06
-0.000128304
-8.03778e-06
-0.000129143
-8.68495e-06
-0.000129349
-1.00933e-05
-0.000128631
-1.13964e-05
-0.000125259
-1.34381e-05
-0.000124582
-1.9125e-05
4.22648e-05
-0.000127339
1.67798e-06
-0.000127218
1.57663e-06
-0.000126939
1.46315e-06
-0.00012585
1.36627e-06
-0.000124595
1.18529e-06
-0.000124021
1.04486e-06
-0.000123767
9.38706e-07
-0.000123646
8.39868e-07
-0.000124466
7.96771e-07
-0.000127337
1.12484e-06
-0.00012855
1.64414e-06
-0.000128637
1.84165e-06
-0.000128587
1.74192e-06
-0.000128476
1.62832e-06
-0.000128158
1.51042e-06
-0.000126703
1.36905e-06
-0.000125367
1.12053e-06
-0.000124782
9.14027e-07
-0.000124561
8.15904e-07
-0.000124505
7.36834e-07
-0.000125597
6.84572e-07
-0.000128462
1.09178e-06
-0.000129599
1.62325e-06
-0.000129804
1.81738e-06
-0.000129823
1.73291e-06
-0.000129764
1.63716e-06
-0.000129419
1.52672e-06
-0.000127476
1.38072e-06
-0.000125878
9.88026e-07
-0.000125318
7.5772e-07
-0.000125113
6.38361e-07
-0.000125112
5.65308e-07
-0.000126699
5.35716e-07
-0.000129856
1.03116e-06
-0.000131032
1.68394e-06
-0.000131208
1.82127e-06
-0.000131228
1.8099e-06
-0.000131169
1.69088e-06
-0.000130313
1.58869e-06
-0.000127552
1.28065e-06
-0.00012604
6.98957e-07
-0.000125544
4.33528e-07
-0.000125425
2.88941e-07
-0.000125526
1.96599e-07
-0.000127965
2.55487e-07
-0.000131479
9.85186e-07
-0.000132584
1.79734e-06
-0.000132735
1.94339e-06
-0.000132734
1.91208e-06
-0.000132566
1.78646e-06
-0.000130337
1.61614e-06
-0.000127152
8.5576e-07
-0.000125914
1.02073e-07
-0.000125508
-2.20931e-07
-0.000125439
-3.15523e-07
-0.000125697
-3.87037e-07
-0.000129086
-2.56515e-07
-0.000132914
8.43021e-07
-0.000134088
1.88389e-06
-0.000134235
2.06124e-06
-0.000134251
2.02859e-06
-0.000133725
1.923e-06
-0.000130001
1.53339e-06
-0.000126426
2.11518e-07
-0.000124995
-9.37797e-07
-0.00012465
-1.2479e-06
-0.000124663
-1.45632e-06
-0.000125279
-1.64513e-06
-0.000129754
-1.39652e-06
-0.00013396
2.487e-07
-0.000135229
1.57006e-06
-0.000135374
1.86972e-06
-0.000135403
1.97039e-06
-0.000134315
1.80944e-06
-0.000129392
1.145e-06
-0.000125211
-8.89221e-07
-0.000123495
-2.58183e-06
-0.000123052
-3.27781e-06
-0.000123111
-3.62709e-06
-0.000124186
-3.93443e-06
-0.00012858
-3.6551e-06
-0.000132189
-2.14785e-06
-0.000133649
-1.00611e-06
-0.000134115
-6.3893e-07
-0.000134128
-5.72756e-07
-0.000132572
-8.54307e-07
-0.000127725
-2.01269e-06
-0.000122831
-4.31155e-06
-0.000120391
-6.84984e-06
-0.000120117
-8.14502e-06
-0.000120669
-9.37268e-06
-0.000124007
-9.68341e-06
-0.000127084
-9.19646e-06
-0.000128511
-9.27373e-06
-0.000129094
-1.04194e-05
-0.000129178
-1.17849e-05
-0.000127571
-1.27477e-05
-0.000123967
-1.82393e-05
4.44401e-05
-0.000127641
1.72911e-06
-0.000127488
1.86271e-06
-0.000127219
1.79158e-06
-0.000126156
1.63792e-06
-0.000124666
1.32029e-06
-0.000123945
1.06329e-06
-0.000123611
9.37932e-07
-0.000123469
8.70759e-07
-0.000123642
7.91854e-07
-0.000126192
9.17877e-07
-0.00012839
1.54863e-06
-0.000128842
1.88658e-06
-0.000128801
1.99146e-06
-0.000128689
1.93249e-06
-0.000128426
1.78206e-06
-0.000127155
1.62457e-06
-0.000125442
1.25856e-06
-0.000124679
9.30568e-07
-0.000124356
8.42407e-07
-0.000124223
7.58361e-07
-0.000124544
6.74243e-07
-0.000127362
8.74337e-07
-0.000129489
1.56294e-06
-0.000129899
1.88875e-06
-0.000129912
1.97488e-06
-0.000129845
1.86285e-06
-0.000129664
1.75297e-06
-0.000128109
1.60825e-06
-0.000126017
1.19894e-06
-0.000125197
8.04422e-07
-0.000124899
6.65467e-07
-0.000124815
5.82974e-07
-0.000125326
4.87637e-07
-0.000128559
7.22041e-07
-0.000130762
1.54743e-06
-0.000131243
1.94804e-06
-0.000131265
2.01214e-06
-0.000131235
1.92963e-06
-0.000130898
1.80442e-06
-0.000128471
1.60663e-06
-0.000126165
9.60301e-07
-0.000125403
4.58979e-07
-0.000125156
2.79538e-07
-0.000125123
1.95248e-07
-0.000125913
1.29005e-07
-0.000129804
4.61173e-07
-0.000132217
1.53905e-06
-0.00013271
2.05754e-06
-0.000132761
2.14599e-06
-0.00013275
2.01954e-06
-0.000131899
1.89361e-06
-0.000128441
1.46238e-06
-0.000126073
4.33161e-07
-0.000125212
-1.85581e-07
-0.000124943
-3.78868e-07
-0.000124953
-4.6074e-07
-0.000126092
-5.47462e-07
-0.000130744
-1.02641e-07
-0.000133553
1.33661e-06
-0.000134236
2.096e-06
-0.000134347
2.1673e-06
-0.000134331
2.0952e-06
-0.000132714
2.09797e-06
-0.000127959
1.35991e-06
-0.000125243
-3.35023e-07
-0.000124416
-1.23056e-06
-0.000124181
-1.71748e-06
-0.000124229
-1.78526e-06
-0.000125468
-1.90566e-06
-0.000130624
-1.37099e-06
-0.000133949
5.17063e-07
-0.000134886
1.73039e-06
-0.000135109
1.98985e-06
-0.000135169
1.74357e-06
-0.000133633
1.53729e-06
-0.000128118
8.79606e-07
-0.000124232
-1.37606e-06
-0.000122877
-3.05269e-06
-0.000122635
-3.66926e-06
-0.000122717
-4.15929e-06
-0.000124265
-4.40354e-06
-0.000128628
-3.88825e-06
-0.000131654
-2.47012e-06
-0.000132879
-1.5499e-06
-0.000133265
-1.32852e-06
-0.000133229
-1.31742e-06
-0.000131559
-1.76316e-06