/*--------------------------------*- C++ -*----------------------------------*\
  =========                 |
  \\      /  F ield         | OpenFOAM: The Open Source CFD Toolbox
   \\    /   O peration     | Website:  https://openfoam.org
    \\  /    A nd           | Version:  12
     \\/     M anipulation  |
\*---------------------------------------------------------------------------*/
FoamFile
{
    format      ascii;
    class       surfaceScalarField;
    location    "26";
    object      phi;
}
// * * * * * * * * * * * * * * * * * * * * * * * * * * * * * * * * * * * * * //

dimensions      [1 0 -1 0 0 0 0];

internalField   nonuniform List<scalar> 
19404
(
-0.000146448
-9.11982e-07
-0.000147285
-2.17962e-06
-0.000148422
-1.62158e-06
-0.000149092
-8.41675e-07
-0.000149695
-2.60823e-07
-0.000150616
5.45434e-07
-0.000151221
1.64583e-06
-0.000151066
2.79142e-06
-0.000150594
2.6319e-06
-0.000150442
1.67263e-06
-0.000150443
1.04506e-06
-0.000150711
4.19217e-07
-0.00015187
-3.25582e-07
-0.000152886
-1.08517e-06
-0.000152772
-1.05036e-06
-0.000152322
-2.34351e-07
-0.000149899
7.66914e-07
-0.00014587
1.6265e-06
-0.000142887
2.12943e-06
-0.000142313
1.45633e-06
-0.000142273
1.12723e-06
-0.000143401
4.81105e-07
-0.000151286
-1.4915e-06
-0.000161114
-2.96374e-06
-0.000164971
-2.42797e-06
-0.000165815
-1.51797e-06
-0.000165904
-9.95752e-07
-0.000165696
-4.92134e-07
-0.000163394
4.4015e-07
-0.000156209
2.10446e-06
-0.00014996
2.94519e-06
-0.000148586
2.30966e-06
-0.000148556
1.60168e-06
-0.000149052
1.13109e-06
-0.000152744
4.73417e-07
-0.000157154
-3.01092e-07
-0.000159331
-7.00556e-07
-0.000160329
-6.76548e-07
-0.000160883
-6.9772e-07
-0.000161276
-7.32393e-07
-0.000161402
-8.27769e-07
-0.000161209
-8.27855e-07
-0.000160194
-4.52624e-07
-0.00015969
-1.32507e-07
-0.000159601
2.97132e-08
-0.000160343
5.22138e-07
-0.000160846
1.43259e-06
-0.000160693
2.25898e-06
-0.000159824
2.26992e-06
-0.000159398
1.50493e-06
-0.00015917
8.97169e-07
-0.000158545
2.62437e-07
-0.000157426
-6.44453e-07
-0.000156815
-9.65751e-07
-0.000156629
-9.07772e-07
-0.000156572
-9.09221e-07
-0.000156786
-8.93567e-07
-0.000159742
-6.65197e-07
-0.000166215
-2.22827e-08
-0.0001692
5.06354e-07
-0.000169728
1.03396e-06
-0.000169647
1.3774e-06
-0.000169138
1.57068e-06
-0.00016827
1.01248e-06
-0.000165262
5.07371e-07
-0.00015886
2.48986e-07
-0.00015458
2.13949e-07
-0.000153535
9.98669e-08
-0.000153584
-7.75869e-08
-0.000153759
-2.40013e-07
-0.000157145
-2.4192e-07
-0.000167048
-1.5557e-07
-0.000174049
-2.14047e-08
-0.000176573
1.98631e-07
-0.000177321
3.79992e-07
-0.000177547
5.24738e-07
-0.000177463
5.59769e-07
-0.000171691
8.02715e-07
-0.000158091
1.25354e-06
-0.000151581
1.10037e-06
-0.000150583
6.44182e-07
-0.000150672
2.12356e-07
-0.00015483
-2.44479e-07
-0.000167479
-3.71183e-07
-0.000176444
-4.55674e-07
-0.000179884
-3.83408e-07
-0.00018112
-3.78163e-07
-0.000181467
-4.70828e-07
-0.000179735
-6.8503e-07
-0.000168168
-6.26494e-07
-0.0001525
-1.06923e-06
-0.000141591
-2.25821e-06
-0.000137829
-3.00592e-06
-0.000138345
-2.98579e-06
-0.000151978
-3.45659e-06
-0.000164117
-8.14437e-06
-0.000163581
-1.33392e-05
-7.50364e-05
-5.42065e-05
5.55204e-05
-0.000148261
-1.23354e-06
-0.000147398
-2.19163e-06
-0.000146681
-1.79225e-06
-0.000146151
-7.29801e-07
-0.000146004
2.6e-07
-0.000146762
1.06416e-06
-0.00014917
2.15255e-06
-0.000151646
3.31539e-06
-0.000153087
3.51221e-06
-0.000153839
2.6364e-06
-0.000154072
1.77727e-06
-0.000153896
7.66145e-07
-0.000153753
-3.51837e-07
-0.000153605
-1.17803e-06
-0.000151936
-2.90184e-07
-0.000148284
1.25339e-06
-0.000145665
1.76923e-06
-0.000144361
1.95567e-06
-0.000144023
2.25209e-06
-0.000143953
2.00432e-06
-0.000144588
1.15708e-06
-0.000149806
-1.26101e-06
-0.000155925
-3.06293e-06
-0.000160449
-3.52522e-06
-0.000163432
-3.45209e-06
-0.000164337
-2.70715e-06
-0.000164282
-1.58201e-06
-0.000162039
4.25369e-07
-0.000157142
2.3698e-06
-0.00015303
3.33151e-06
-0.000151456
3.56298e-06
-0.000150777
3.20396e-06
-0.000150687
2.64556e-06
-0.000151907
1.51329e-06
-0.000155624
3.50967e-07
-0.000158576
-3.53346e-07
-0.000160159
-8.79131e-07
-0.000160842
-8.66149e-07
-0.000161129
-8.78874e-07
-0.000161204
-9.36101e-07
-0.000161137
-1.17362e-06
-0.000160319
-1.19992e-06
-0.000158885
-7.14671e-07
-0.000157822
-8.34579e-09
-0.000157326
6.07237e-07
-0.000157696
1.29918e-06
-0.000159288
2.38493e-06
-0.000160491
3.25386e-06
-0.000161209
3.44285e-06
-0.000161575
2.59865e-06
-0.000161578
1.72204e-06
-0.00016074
7.98337e-07
-0.000158335
-7.26299e-07
-0.000156663
-1.01559e-06
-0.000156158
-1.29292e-06
-0.000155981
-1.41961e-06
-0.000156001
-1.43292e-06
-0.000157868
-1.35581e-06
-0.000163586
-4.38548e-07
-0.000167396
8.15795e-07
-0.000168941
1.62403e-06
-0.00016956
1.95165e-06
-0.000169651
1.98876e-06
-0.000169608
1.73014e-06
-0.000167025
1.30845e-06
-0.000159764
8.51032e-07
-0.000154991
5.64727e-07
-0.000153655
1.64227e-07
-0.000153588
-1.06856e-07
-0.000153696
-4.07248e-07
-0.000156054
-7.22692e-07
-0.000165294
-8.10235e-07
-0.000172721
-3.0187e-07
-0.000175315
1.8766e-07
-0.000176047
5.0738e-07
-0.000176242
7.69579e-07
-0.00017594
1.0784e-06
-0.000170173
1.60356e-06
-0.000157988
1.95272e-06
-0.00015153
1.48984e-06
-0.000150206
6.30889e-07
-0.00015023
-4.84413e-08
-0.000152314
-8.11209e-07
-0.000162902
-1.35807e-06
-0.000172748
-1.01287e-06
-0.000176932
-7.92379e-07
-0.000178456
-9.52127e-07
-0.00017876
-1.12579e-06
-0.000177455
-1.21287e-06
-0.000167596
-1.04881e-06
-0.000153432
-1.76321e-06
-0.000141744
-3.75663e-06
-0.000133998
-6.49028e-06
-0.000132898
-7.77606e-06
-0.000135917
-8.26071e-06
-0.000144823
-1.64341e-05
-0.000145651
-2.38324e-05
-0.000110171
-6.27894e-05
6.77509e-05
-0.00014853
1.65575e-07
-0.000144772
-1.35293e-06
-0.000141932
-1.67696e-07
-0.000141006
8.6199e-08
-0.000140931
1.41684e-07
-0.000142003
2.71666e-07
-0.00014596
9.56578e-07
-0.000151451
2.34221e-06
-0.000155526
3.22448e-06
-0.000156718
2.50461e-06
-0.000156731
2.17353e-06
-0.000156436
1.77406e-06
-0.000155387
1.24716e-06
-0.000151284
9.51657e-07
-0.000145563
2.03777e-06
-0.00014338
2.00082e-06
-0.000143019
1.5587e-06
-0.000143014
1.30436e-06
-0.000143284
1.17731e-06
-0.000144779
1.11513e-06
-0.00015035
-9.5078e-07
-0.000156045
-2.0989e-06
-0.000158647
-2.78795e-06
-0.000159657
-3.3329e-06
-0.000160131
-3.33963e-06
-0.000159932
-2.17034e-06
-0.000157247
9.25408e-08
-0.000153726
1.65878e-06
-0.000151732
2.32899e-06
-0.00015102
2.74644e-06
-0.000150903
2.98447e-06
-0.000150829
2.91795e-06
-0.000151671
2.18634e-06
-0.000154712
1.14919e-06
-0.000157399
4.80922e-07
-0.000158957
-4.0017e-08
-0.000159777
-3.41299e-07
-0.00016019
-4.69172e-07
-0.000160302
-4.40263e-07
-0.000160278
-4.85669e-07
-0.000159624
-5.79078e-07
-0.000156884
-4.13393e-07
-0.000154387
-1.40888e-07
-0.00015318
2.23098e-07
-0.000152816
7.00653e-07
-0.000153288
1.2394e-06
-0.000156448
2.12988e-06
-0.000160157
3.33059e-06
-0.000162143
3.69373e-06
-0.00016271
3.09448e-06
-0.00016279
2.46523e-06
-0.000161906
1.76659e-06
-0.000158158
1.04728e-06
-0.000155278
-8.15908e-07
-0.00015399
-1.36948e-06
-0.000153436
-1.61698e-06
-0.000153289
-1.60548e-06
-0.000153673
-1.63744e-06
-0.000158167
-1.31688e-06
-0.000164123
1.49618e-07
-0.000166916
1.48647e-06
-0.000167933
1.9856e-06
-0.000168151
2.18243e-06
-0.000168145
2.26302e-06
-0.000166413
2.3126e-06
-0.000159498
1.91088e-06
-0.000154023
7.97173e-07
-0.000152259
-9.32743e-08
-0.000152062
-5.83662e-07
-0.000152123
-1.00407e-06
-0.00015325
-1.50241e-06
-0.000161147
-1.83163e-06
-0.000169125
-8.87734e-07
-0.000171579
1.47786e-07
-0.000172092
7.93246e-07
-0.000172152
1.35496e-06
-0.000171501
1.80896e-06
-0.000166883
2.17247e-06
-0.000156632
2.10763e-06
-0.000149621
1.12003e-06
-0.000147405
-1.41602e-07
-0.000147269
-1.1664e-06
-0.000147871
-1.93669e-06
-0.000155541
-2.9413e-06
-0.000167131
-2.4994e-06
-0.000171643
-1.5892e-06
-0.000172295
-1.16679e-06
-0.000172517
-8.93031e-07
-0.000170984
-7.53578e-07
-0.00016266
-8.11545e-07
-0.000150541
-2.02384e-06
-0.000140026
-4.81578e-06
-0.000132369
-7.97612e-06
-0.000128763
-1.06555e-05
-0.000128978
-1.25729e-05
-0.000134282
-2.24241e-05
-0.000137532
-3.18795e-05
-0.000120864
-6.46079e-05
6.9337e-05
-0.000150484
1.44111e-06
-0.000141728
2.64282e-06
-0.000138568
1.40232e-06
-0.000138163
7.46323e-07
-0.000138066
3.04817e-07
-0.000138477
-1.99605e-07
-0.000141957
-6.18663e-07
-0.000150629
1.26093e-07
-0.000155843
1.94531e-06
-0.000156951
2.3388e-06
-0.000156883
2.28822e-06
-0.000156689
2.3435e-06
-0.000154609
2.91524e-06
-0.000148067
3.54639e-06
-0.000143622
3.23679e-06
-0.000142271
2.00606e-06
-0.000142081
1.40335e-06
-0.000142029
7.82969e-07
-0.000143066
-4.12132e-07
-0.00014752
-1.78985e-06
-0.000153664
-2.03613e-06
-0.00015751
-2.07764e-06
-0.000158031
-2.3726e-06
-0.000157855
-2.16921e-06
-0.000156425
-1.01224e-06
-0.000152943
2.45197e-07
-0.000150071
8.87498e-07
-0.00014903
1.07514e-06
-0.000148923
1.23685e-06
-0.000149101
1.20768e-06
-0.000149585
1.28721e-06
-0.000150326
1.48923e-06
-0.000152132
1.61604e-06
-0.000155288
1.11966e-06
-0.000157119
6.89821e-07
-0.000157567
6.67688e-07
-0.000157693
6.84931e-07
-0.000157733
7.22195e-07
-0.000157732
6.13151e-07
-0.000157649
3.97969e-07
-0.000156399
1.70066e-07
-0.00015279
-7.96778e-10
-0.000149948
-9.82422e-08
-0.000148768
7.04961e-08
-0.000148417
4.83748e-07
-0.000148627
9.4253e-07
-0.000152372
1.64023e-06
-0.000158315
3.07434e-06
-0.000160733
3.86366e-06
-0.00016126
3.76528e-06
-0.000161406
3.26675e-06
-0.000161373
2.65092e-06
-0.000159092
1.89852e-06
-0.000154064
5.48345e-07
-0.00015108
-8.87506e-07
-0.000150066
-1.74578e-06
-0.000149717
-1.8925e-06
-0.000149733
-1.84573e-06
-0.000151739
-1.8584e-06
-0.000158782
-9.11227e-07
-0.000162953
9.02875e-07
-0.000164102
1.94741e-06
-0.000164406
2.43537e-06
-0.000164383
2.71552e-06
-0.000164017
2.91234e-06
-0.000159842
2.81544e-06
-0.000152849
1.52958e-06
-0.00014997
-4.8678e-09
-0.000149609
-1.21377e-06
-0.000149604
-1.80761e-06
-0.000149901
-2.29565e-06
-0.000154055
-2.70384e-06
-0.000161752
-1.82006e-06
-0.000164792
-6.56577e-08
-0.000165509
1.19459e-06
-0.000165588
1.84292e-06
-0.000165377
2.20911e-06
-0.000162922
2.45269e-06
-0.000154766
2.19624e-06
-0.000146976
8.76739e-07
-0.000143484
-1.11507e-06
-0.000142922
-2.71303e-06
-0.000142998
-3.81365e-06
-0.000145911
-4.83028e-06
-0.0001549
-5.05293e-06
-0.000160691
-3.38151e-06
-0.000162228
-1.61301e-06
-0.000162572
-5.81252e-07
-0.000162344
-2.09293e-07
-0.000157436
-2.76674e-07
-0.000147116
-1.83805e-06
-0.000136712
-5.43299e-06
-0.000128617
-9.78045e-06
-0.000123364
-1.38969e-05
-0.000121553
-1.65766e-05
-0.000124814
-2.50481e-05
-0.000129971
-3.51092e-05
-0.000128256
-6.33837e-05
6.48369e-05
-0.000147705
3.3463e-06
-0.000142037
4.23111e-06
-0.000138892
2.43279e-06
-0.000138176
1.20212e-06
-0.000137982
3.75083e-07
-0.000137984
-3.44363e-07
-0.000138713
-1.00805e-06
-0.000145235
-1.52701e-06
-0.000153084
-6.90092e-08
-0.000154709
1.95212e-06
-0.000154684
2.89494e-06
-0.000153893
3.6126e-06
-0.00015163
4.19165e-06
-0.000148128
4.3182e-06
-0.000144414
3.39998e-06
-0.000143267
1.87258e-06
-0.00014302
4.66863e-07
-0.000143574
-9.63381e-07
-0.000144839
-2.1833e-06
-0.000147972
-2.24007e-06
-0.000152706
-2.55728e-06
-0.000154082
-1.83247e-06
-0.000154039
-7.94908e-07
-0.000152807
4.94741e-07
-0.000150949
1.13965e-06
-0.000148583
1.08355e-06
-0.000146867
8.08678e-07
-0.000146681
2.98781e-07
-0.000146629
-5.8388e-08
-0.000146658
-2.02727e-07
-0.000146865
-2.66504e-07
-0.000147795
-1.37694e-07
-0.000150658
4.83907e-07
-0.00015358
1.24587e-06
-0.000154543
1.58505e-06
-0.000154698
1.80527e-06
-0.000154637
1.91932e-06
-0.000154605
1.77957e-06
-0.000154668
1.41813e-06
-0.000154627
1.00096e-06
-0.000153517
6.05507e-07
-0.000149607
3.73988e-08
-0.000146114
-3.52228e-07
-0.000144317
-1.06633e-08
-0.000143666
6.15565e-07
-0.000143581
1.09285e-06
-0.00014596
1.55717e-06
-0.000153489
2.69076e-06
-0.000157864
3.82905e-06
-0.00015916
3.91935e-06
-0.000159563
3.45559e-06
-0.000159658
2.85362e-06
-0.000159087
2.29595e-06
-0.000154091
1.38713e-06
-0.000148648
-5.30106e-07
-0.000146607
-1.5608e-06
-0.00014597
-1.97801e-06
-0.000145735
-1.87327e-06
-0.000146006
-1.6621e-06
-0.0001507
-1.23972e-06
-0.000156982
4.52943e-07
-0.000159214
2.11186e-06
-0.000159808
2.87943e-06
-0.000159975
3.19915e-06
-0.000160006
3.30683e-06
-0.000158972
3.18476e-06
-0.000152702
2.28629e-06
-0.000147241
-1.09724e-07
-0.000145625
-1.80671e-06
-0.000145425
-2.86496e-06
-0.00014546
-3.22059e-06
-0.00014643
-3.34428e-06
-0.000152772
-2.80901e-06
-0.000157845
-6.37234e-07
-0.000159126
1.20476e-06
-0.000159386
2.11817e-06
-0.000159406
2.46251e-06
-0.000158425
2.52132e-06
-0.000152999
2.34864e-06
-0.000145302
7.5369e-07
-0.000140148
-1.58605e-06
-0.000138324
-3.84473e-06
-0.000138163
-5.75103e-06
-0.000138513
-7.04007e-06
-0.000142731
-7.59453e-06
-0.00014979
-6.2364e-06
-0.00015358
-3.55746e-06
-0.000154549
-1.45066e-06
-0.000154817
-1.63146e-07
-0.000153223
2.96759e-07
-0.00014658
-7.02749e-07
-0.000137564
-4.34862e-06
-0.000128167
-1.01341e-05
-0.000120976
-1.49495e-05
-0.000118403
-1.82197e-05
-0.000121157
-2.63002e-05
-0.000126585
-3.69493e-05
-0.000130987
-6.06817e-05
5.98462e-05
-0.000147291
4.28326e-06
-0.000144365
4.57085e-06
-0.000140939
3.08234e-06
-0.00013919
1.47125e-06
-0.00013868
3.4022e-07
-0.00013854
-6.04184e-07
-0.000138519
-1.15371e-06
-0.000139469
-1.41607e-06
-0.000145147
-7.59518e-07
-0.000149184
1.33725e-06
-0.000149982
3.12919e-06
-0.000149728
4.11079e-06
-0.000149306
4.28507e-06
-0.000148452
3.8912e-06
-0.000147172
2.45012e-06
-0.000146039
1.06409e-06
-0.000145401
-2.32122e-07
-0.000145139
-1.36829e-06
-0.000145063
-2.40606e-06
-0.000145626
-2.42711e-06
-0.000147127
-1.42186e-06
-0.000147985
-1.96778e-07
-0.000147956
1.06704e-06
-0.000147867
1.76125e-06
-0.000147911
1.5078e-06
-0.000147568
1.13975e-06
-0.000145888
6.8412e-07
-0.000144921
-2.01595e-07
-0.000144675
-7.45092e-07
-0.000144482
-1.06084e-06
-0.000144308
-1.03489e-06
-0.000144274
-6.84457e-07
-0.000146136
-1.12012e-07
-0.000149563
1.22491e-06
-0.000150932
2.42368e-06
-0.000151348
2.91449e-06
-0.000151623
2.79092e-06
-0.000151917
2.28155e-06
-0.000152042
1.79122e-06
-0.000152025
1.33372e-06
-0.000151185
8.95316e-07
-0.000146667
2.10026e-07
-0.000141785
-2.78632e-08
-0.000139537
4.87465e-07
-0.000138869
9.5307e-07
-0.000138799
1.29726e-06
-0.000140103
1.56889e-06
-0.000148059
2.18375e-06
-0.000155028
3.22899e-06
-0.000157217
3.52709e-06
-0.000157725
3.16574e-06
-0.000157853
2.6873e-06
-0.000157786
2.22743e-06
-0.00015482
1.6729e-06
-0.000147841
4.18582e-07
-0.000143471
-9.12434e-07
-0.000141981
-1.57164e-06
-0.000141399
-1.46008e-06
-0.000141309
-1.11875e-06
-0.000142935
-8.25735e-07
-0.000149858
2.06185e-07
-0.000154194
2.13161e-06
-0.000155552
3.31885e-06
-0.000156239
3.72007e-06
-0.000156681
3.56245e-06
-0.000156708
2.99734e-06
-0.000153911
2.44866e-06
-0.000146965
2.52697e-07
-0.000142918
-2.10247e-06
-0.00014163
-3.6314e-06
-0.00014102
-3.99999e-06
-0.000140986
-3.71225e-06
-0.000143204
-3.41744e-06
-0.0001502
-1.84786e-06
-0.000153959
6.37313e-07
-0.00015481
2.06038e-06
-0.000154961
2.56258e-06
-0.00015479
2.61117e-06
-0.000152192
2.35142e-06
-0.000145963
9.24895e-07
-0.000140257
-1.60373e-06
-0.000136411
-4.22978e-06
-0.000134442
-6.86641e-06
-0.000133882
-8.25556e-06
-0.000134216
-8.94457e-06
-0.000138223
-8.88938e-06
-0.000144078
-6.8863e-06
-0.000147258
-3.91712e-06
-0.000148384
-1.70252e-06
-0.00014873
-9.06728e-07
-0.00014699
-6.45364e-07
-0.000140713
-3.45296e-06
-0.000132132
-8.56714e-06
-0.000123694
-1.49364e-05
-0.000118303
-1.94558e-05
-0.00011991
-2.505e-05
-0.000125839
-3.9779e-05
-0.000133613
-5.81291e-05
5.71297e-05
-0.000145933
3.82113e-06
-0.000145643
3.98749e-06
-0.000143844
3.04225e-06
-0.000141072
2.12541e-06
-0.000139687
6.81281e-07
-0.000138984
-4.69176e-07
-0.000137663
-1.58426e-07
-0.000137081
2.83394e-07
-0.000137356
3.43708e-07
-0.00014106
7.53193e-07
-0.000145093
2.07286e-06
-0.000146951
3.06044e-06
-0.000148362
3.26095e-06
-0.000149181
2.13178e-06
-0.000149204
1.51457e-06
-0.000148593
7.18163e-07
-0.000147348
-2.67344e-08
-0.000145847
-1.10007e-06
-0.000143595
-1.15516e-06
-0.000141837
-2.6602e-07
-0.000141439
4.16394e-07
-0.000142045
9.81643e-07
-0.000143616
1.6605e-06
-0.000145294
1.67402e-06
-0.000146037
1.38607e-06
-0.000146064
9.36866e-07
-0.000145632
4.76023e-07
-0.000144257
-2.96657e-07
-0.000143478
-9.75403e-07
-0.000142681
-1.31883e-06
-0.000141423
-8.57798e-07
-0.000140654
-7.63898e-08
-0.000140791
4.63591e-07
-0.000144032
1.17308e-06
-0.000147387
2.44857e-06
-0.000148815
3.07613e-06
-0.000149671
2.8643e-06
-0.00015024
2.33932e-06
-0.000150397
1.75724e-06
-0.000150378
1.28604e-06
-0.000149861
9.42089e-07
-0.000144113
7.92402e-07
-0.000137624
1.13447e-06
-0.000135729
1.31272e-06
-0.000135398
1.21777e-06
-0.000135394
1.2103e-06
-0.000136294
1.31064e-06
-0.000143417
1.64155e-06
-0.000152371
2.34172e-06
-0.00015555
2.70226e-06
-0.000156146
2.5386e-06
-0.000156184
2.22748e-06
-0.000156191
1.92306e-06
-0.00015506
1.65992e-06
-0.00014827
1.12463e-06
-0.000141354
-1.46338e-07
-0.000138262
-4.52848e-07
-0.000137312
-7.01981e-07
-0.000137089
-5.75207e-07
-0.000137417
-3.79076e-07
-0.000142224
4.37284e-08
-0.000149091
1.53882e-06
-0.00015222
3.19111e-06
-0.000153717
3.70187e-06
-0.000154854
3.32697e-06
-0.000155248
2.45519e-06
-0.000154878
1.72937e-06
-0.000149655
5.55254e-07
-0.000142857
-1.79209e-06
-0.000138695
-3.63835e-06
-0.000136798
-3.94245e-06
-0.000136169
-3.70083e-06
-0.000136437
-3.44652e-06
-0.000141532
-2.97523e-06
-0.000149003
-9.24471e-07
-0.000151896
1.31498e-06
-0.000152444
2.26438e-06
-0.000152599
2.45901e-06
-0.000152043
2.22206e-06
-0.00014835
1.39675e-06
-0.000142629
-9.27833e-07
-0.000137472
-3.95843e-06
-0.00013321
-6.72703e-06
-0.000130577
-8.36352e-06
-0.000130216
-9.36517e-06
-0.000130749
-1.01208e-05
-0.000134935
-9.78798e-06
-0.000140235
-7.40087e-06
-0.000143882
-4.67474e-06
-0.000145805
-3.14157e-06
-0.000146158
-3.04407e-06
-0.000143524
-3.48542e-06
-0.000137449
-8.32171e-06
-0.000129701
-1.36453e-05
-0.000120897
-1.91711e-05
-0.000117773
-2.33807e-05
-0.000124165
-3.94141e-05
-0.000135931
-5.71212e-05
5.39711e-05
-0.000145571
2.6638e-06
-0.000145516
2.85711e-06
-0.000145119
2.80419e-06
-0.000143447
2.15756e-06
-0.000140656
1.60379e-06
-0.000137121
1.36914e-06
-0.000135052
1.6288e-06
-0.000134578
1.49845e-06
-0.000134476
1.31787e-06
-0.000135314
1.20701e-06
-0.000140516
9.9682e-07
-0.000147286
8.41379e-07
-0.000149612
1.2618e-06
-0.000149762
1.20774e-06
-0.000149629
8.82259e-07
-0.000149248
5.24138e-07
-0.000148017
-4.99833e-08
-0.000143925
1.20096e-07
-0.00013984
1.06544e-06
-0.000138456
1.64032e-06
-0.000138235
1.73659e-06
-0.000138874
1.91394e-06
-0.000142267
1.59998e-06
-0.000144647
1.56815e-06
-0.000145367
1.28686e-06
-0.000145485
8.8612e-07
-0.000145396
4.04506e-07
-0.000144427
-1.16023e-07
-0.000142323
-7.96211e-07
-0.000139815
-5.2033e-07
-0.000137966
1.05516e-07
-0.000137252
6.25208e-07
-0.000137157
9.98878e-07
-0.000139105
1.32714e-06
-0.000144836
1.90415e-06
-0.000147823
2.57436e-06
-0.000148779
2.52251e-06
-0.000149102
2.08607e-06
-0.000149199
1.67312e-06
-0.000149167
1.20216e-06
-0.000148314
1.12371e-06
-0.000141568
1.93939e-06
-0.000135126
2.19269e-06
-0.000133436
1.71304e-06
-0.000133331
1.23733e-06
-0.000133352
8.72304e-07
-0.000134209
4.95947e-07
-0.000140633
6.11125e-07
-0.000150377
1.01246e-06
-0.000154262
1.61889e-06
-0.000154851
1.81693e-06
-0.000154846
1.79663e-06
-0.000154826
1.75086e-06
-0.000154213
1.73447e-06
-0.000149145
1.83111e-06
-0.000140783
1.42954e-06
-0.000136033
2.31635e-07
-0.000134488
2.47755e-08
-0.000134205
-2.1016e-07
-0.000134229
-2.7691e-07
-0.000136087
-2.10483e-07
-0.000143415
4.547e-07
-0.000149549
2.12232e-06
-0.000152381
2.93143e-06
-0.000153982
2.55956e-06
-0.000154771
1.65414e-06
-0.000154827
8.94327e-07
-0.000152792
5.32373e-07
-0.000144335
-7.06865e-07
-0.000137059
-2.712e-06
-0.000133501
-2.97107e-06
-0.000132609
-3.22705e-06
-0.000132611
-3.30998e-06
-0.000134368
-3.39213e-06
-0.000142152
-2.66079e-06
-0.000148647
-3.56172e-07
-0.00015094
1.44826e-06
-0.000151457
1.95516e-06
-0.000151652
1.78574e-06
-0.000150975
1.41497e-06
-0.000146206
5.60197e-07
-0.000139424
-2.26764e-06
-0.00013405
-5.64843e-06
-0.000130488
-8.13791e-06
-0.000128345
-9.71312e-06
-0.000127895
-1.0913e-05
-0.000128423
-1.09175e-05
-0.000132323
-1.03101e-05
-0.000137229
-8.15369e-06
-0.000140699
-6.34786e-06
-0.000142979
-5.92345e-06
-0.000142944
-6.52427e-06
-0.000139965
-8.66171e-06
-0.000134966
-1.39365e-05
-0.000128375
-1.84116e-05
-0.000121699
-2.27937e-05
-0.000122357
-3.62522e-05
-0.00013727
-5.85508e-05
5.3559e-05
-0.000144268
1.23828e-06
-0.000144726
1.7577e-06
-0.000144589
1.79863e-06
-0.000143718
2.13279e-06
-0.000139428
2.70794e-06
-0.000135396
3.12139e-06
-0.000134345
2.80687e-06
-0.000134183
2.42428e-06
-0.00013413
2.07612e-06
-0.000135277
1.452e-06
-0.000140218
4.07065e-07
-0.000146007
-5.14627e-07
-0.000148687
-2.37255e-07
-0.000149061
1.39359e-07
-0.000148986
1.7504e-07
-0.000148686
2.28617e-07
-0.000145615
8.78545e-07
-0.000140053
1.92298e-06
-0.00013746
2.51708e-06
-0.000137032
2.67509e-06
-0.000137034
2.539e-06
-0.000138683
2.34088e-06
-0.000142432
1.94198e-06
-0.000144733
1.55291e-06
-0.000145414
1.23234e-06
-0.000145513
8.71761e-07
-0.000145455
4.67634e-07
-0.000144486
2.18319e-07
-0.00013978
4.44826e-07
-0.000136362
6.04047e-07
-0.000135455
6.07947e-07
-0.000135273
6.17261e-07
-0.000135349
8.32216e-07
-0.000136784
9.41432e-07
-0.000143149
1.173e-06
-0.000147688
1.94845e-06
-0.000148603
2.16777e-06
-0.000148582
1.971e-06
-0.000148503
1.89408e-06
-0.000148064
1.96037e-06
-0.000145672
2.69429e-06
-0.000139894
3.11403e-06
-0.000134716
2.25773e-06
-0.000132816
1.68978e-06
-0.000132606
1.04166e-06
-0.0001326
3.24798e-07
-0.000133452
-7.46883e-07
-0.00013959
-1.76061e-06
-0.000149125
-5.54582e-07
-0.000152867
6.51109e-07
-0.000153405
1.34026e-06
-0.000153432
1.69341e-06
-0.000153137
1.94997e-06
-0.000152327
2.22005e-06
-0.000149
2.44121e-06
-0.000141625
2.07586e-06
-0.000135961
9.20676e-07
-0.000133504
1.14078e-07
-0.000132879
-2.0906e-07
-0.000132845
-5.0066e-07
-0.000133175
-6.35841e-07
-0.000137543
-6.77807e-07
-0.000146777
2.6697e-07
-0.000152406
1.65153e-06
-0.000154142
1.65429e-06
-0.000154468
1.02668e-06
-0.000154541
4.99825e-07
-0.000153659
1.86766e-07
-0.000146458
-8.11376e-08
-0.000136643
-8.25395e-07
-0.000131751
-2.11411e-06
-0.000130358
-2.3859e-06
-0.000130405
-2.85087e-06
-0.000130686
-3.25566e-06
-0.000134585
-3.54886e-06
-0.000143088
-2.80292e-06
-0.000149067
-5.44593e-07
-0.000151299
9.72477e-07
-0.000151687
1.29918e-06
-0.000151809
1.17587e-06
-0.000150386
7.64189e-07
-0.000145096
-1.44924e-07
-0.000138422
-3.01316e-06
-0.000132837
-6.67466e-06
-0.000128544
-9.52973e-06
-0.000125944
-1.09636e-05
-0.000125769
-1.15074e-05
-0.000126454
-1.16741e-05
-0.000130888
-1.11647e-05
-0.000135799
-9.6061e-06
-0.000138758
-8.99489e-06
-0.000140076
-9.68527e-06
-0.000139772
-1.16299e-05
-0.000137492
-1.5407e-05
-0.000134053
-1.90659e-05
-0.000128609
-2.22984e-05
-0.000124482
-3.11772e-05
-0.000135851
-6.0488e-05
5.74561e-05
-0.000142046
7.44689e-07
-0.00014225
6.00559e-07
-0.000142065
1.01219e-06
-0.0001402
2.49903e-06
-0.000137566
3.29064e-06
-0.000136019
3.66874e-06
-0.000135188
3.54482e-06
-0.00013505
3.54918e-06
-0.000135349
2.58707e-06
-0.000138432
1.10035e-06
-0.000142225
1.90495e-08
-0.000144629
-6.06663e-07
-0.000146113
-5.68296e-07
-0.000146656
-4.58765e-07
-0.000146601
-1.14896e-07
-0.000145042
8.17445e-07
-0.000140732
1.83719e-06
-0.000137653
2.38402e-06
-0.000136695
2.62538e-06
-0.000136525
2.69038e-06
-0.00013671
2.58437e-06
-0.000139785
2.3706e-06
-0.000143654
2.26623e-06
-0.000145346
1.94616e-06
-0.000145718
1.48106e-06
-0.00014564
1.32638e-06
-0.000145463
1.32e-06
-0.000143297
1.41287e-06
-0.000137421
1.40178e-06
-0.000134218
1.00421e-06
-0.000133797
6.98438e-07
-0.00013382
2.75995e-07
-0.000134098
-1.27456e-07
-0.000135717
-2.68803e-07
-0.000141738
1.651e-07
-0.000147209
1.30015e-06
-0.000148296
2.16412e-06
-0.000148327
2.56222e-06
-0.000147814
3.17821e-06
-0.000146348
4.06299e-06
-0.000144186
4.29464e-06
-0.000139856
3.24457e-06
-0.000135429
2.47147e-06
-0.000134137
1.09831e-06
-0.000133963
-3.52672e-07
-0.000134378
-1.72984e-06
-0.000134943
-2.45845e-06
-0.000137679
-2.33975e-06
-0.000145465
-1.71028e-06
-0.000150184
9.47057e-08
-0.000151114
1.44944e-06
-0.000151205
2.12074e-06
-0.000150899
2.44256e-06
-0.000150269
2.5579e-06
-0.000148736
2.51135e-06
-0.000143885
2.21381e-06
-0.000137335
1.11451e-06
-0.000133791
-1.06016e-07
-0.000132555
-6.73721e-07
-0.000132368
-1.00218e-06
-0.000132396
-1.36221e-06
-0.000133869
-1.65782e-06
-0.000142899
-1.53903e-06
-0.000151563
1.86913e-08
-0.000153913
9.51238e-07
-0.00015407
7.1086e-07
-0.00015412
4.80609e-07
-0.000153241
4.78723e-07
-0.000147834
7.93097e-07
-0.000137784
7.06462e-07
-0.000131797
-6.83652e-07
-0.0001297
-1.65338e-06
-0.000129162
-2.29709e-06
-0.000129227
-2.8685e-06
-0.000130135
-4.01796e-06
-0.000135397
-5.03964e-06
-0.0001441
-4.31394e-06
-0.000149438
-1.60236e-06
-0.000151089
2.91016e-07
-0.000151438
7.46581e-07
-0.000151526
8.21509e-07
-0.000149987
5.52218e-07
-0.000144358
4.70974e-09
-0.000136679
-2.97371e-06
-0.000130202
-6.93306e-06
-0.000125923
-1.01977e-05
-0.000123898
-1.16216e-05
-0.000123854
-1.25443e-05
-0.000125076
-1.29283e-05
-0.000130433
-1.26753e-05
-0.000135272
-1.1866e-05
-0.000137758
-1.21109e-05
-0.000138707
-1.40121e-05
-0.000138311
-1.74258e-05
-0.000137245
-2.03331e-05
-0.000134438
-2.23651e-05
-0.000128897
-2.70876e-05
-0.000132774
-6.04512e-05
6.29673e-05
-0.000141792
7.44443e-07
-0.000140042
5.97607e-07
-0.000136945
1.67548e-06
-0.00013562
2.35369e-06
-0.000135215
2.64642e-06
-0.000135142
3.14875e-06
-0.000135075
3.44404e-06
-0.000135949
3.28448e-06
-0.000139756
1.8293e-06
-0.000142883
1.22148e-06
-0.000143905
6.53336e-07
-0.000144298
-3.96392e-08
-0.000144459
-4.59928e-07
-0.000144343
1.559e-07
-0.000143163
1.15795e-06
-0.000140178
1.60713e-06
-0.000137313
1.71114e-06
-0.000136107
1.84648e-06
-0.00013579
2.00167e-06
-0.000135704
2.08117e-06
-0.00013634
2.06899e-06
-0.000141068
2.37523e-06
-0.000145013
2.53911e-06
-0.000145467
2.66137e-06
-0.000145377
2.62089e-06
-0.000145146
2.48806e-06
-0.000144508
2.38639e-06
-0.000142177
2.30316e-06
-0.000137356
1.8725e-06
-0.000134309
1.33973e-06
-0.000133636
6.0055e-07
-0.00013356
-9.55385e-08
-0.00013364
-8.96782e-07
-0.000134493
-1.19848e-06
-0.000138977
-8.39296e-07
-0.000144658
8.26134e-07
-0.000146161
2.76619e-06
-0.000146077
4.08155e-06
-0.000144992
5.14336e-06
-0.000144642
5.43757e-06
-0.000144331
4.45551e-06
-0.000142126
3.78466e-06
-0.000138952
1.7627e-06
-0.000137345
-3.72326e-07
-0.000136707
-2.08195e-06
-0.00013603
-3.04896e-06
-0.000135377
-2.59335e-06
-0.000135535
-2.50991e-06
-0.000139396
-2.32205e-06
-0.000145886
-5.95915e-07
-0.000148306
1.46644e-06
-0.000148751
2.41593e-06
-0.000148821
2.71742e-06
-0.000148751
2.48247e-06
-0.000148468
2.23966e-06
-0.000146567
1.87313e-06
-0.000140592
1.09544e-06
-0.000135295
-2.80617e-07
-0.000133248
-1.18524e-06
-0.000132695
-1.69155e-06
-0.000132606
-1.92933e-06
-0.000132786
-2.27096e-06
-0.000137786
-2.65021e-06
-0.000148419
-1.62847e-06
-0.000152454
1.66679e-07
-0.00015279
8.25114e-07
-0.000152789
1.04988e-06
-0.000151969
1.29787e-06
-0.000148754
1.77803e-06
-0.000141017
2.1891e-06
-0.000133471
1.28012e-06
-0.000130099
-5.48149e-07
-0.000129096
-1.78342e-06
-0.000128823
-2.87649e-06
-0.000129207
-4.41238e-06
-0.000130576
-6.65772e-06
-0.000136491
-7.6e-06
-0.000145201
-5.61459e-06
-0.000149798
-2.02555e-06
-0.000150807
2.37682e-08
-0.000150927
8.62486e-07
-0.000150714
1.2668e-06
-0.000148595
9.05448e-07
-0.000142859
1.91249e-07
-0.000134754
-3.41744e-06
-0.00012792
-7.53594e-06
-0.000123838
-1.10606e-05
-0.000122357
-1.27782e-05
-0.00012239
-1.40806e-05
-0.00012518
-1.50142e-05
-0.00013197
-1.47908e-05
-0.000136527
-1.45624e-05
-0.000138533
-1.57149e-05
-0.00013902
-1.86623e-05
-0.000138918
-2.14743e-05
-0.000138038
-2.3079e-05
-0.000132799
-2.55726e-05
-0.000129664
-6.03838e-05
6.71575e-05
-0.000141831
9.03844e-07
-0.000136451
1.95693e-06
-0.00013367
2.59995e-06
-0.000133189
2.3074e-06
-0.000133099
2.09617e-06
-0.000133343
2.06301e-06
-0.000134622
1.88415e-06
-0.000138669
8.81774e-07
-0.000143207
9.92794e-07
-0.00014531
1.43139e-06
-0.000145438
1.22459e-06
-0.000145234
1.24138e-06
-0.000144195
1.71563e-06
-0.000142454
2.32207e-06
-0.000140639
2.27741e-06
-0.000138076
1.78585e-06
-0.000135695
1.62801e-06
-0.000134961
1.25887e-06
-0.000134752
1.16468e-06
-0.000134676
1.0815e-06
-0.000135442
1.15911e-06
-0.000140197
1.79878e-06
-0.000144393
2.75865e-06
-0.000145461
3.4006e-06
-0.000145567
3.7677e-06
-0.000145467
3.80125e-06
-0.000144765
3.73228e-06
-0.000142364
3.31382e-06
-0.00013848
2.47069e-06
-0.000135754
1.49789e-06
-0.000134903
3.29154e-07
-0.000134607
-6.25493e-07
-0.000134415
-9.60643e-07
-0.000134188
-1.01069e-06
-0.000134408
-5.85962e-07
-0.000138311
4.22428e-07
-0.000142422
2.92137e-06
-0.000143505
5.06535e-06
-0.000143741
6.0828e-06
-0.000144617
5.43184e-06
-0.000145762
4.4637e-06
-0.000146018
2.867e-06
-0.000144223
1.35371e-06
-0.000140623
-7.7973e-07
-0.000137944
-2.56137e-06
-0.000135965
-3.22853e-06
-0.000134534
-2.71786e-06
-0.000133912
-2.18301e-06
-0.000134351
-1.988e-06
-0.000139637
-1.5323e-06
-0.000145289
3.98268e-07
-0.000147241
2.12387e-06
-0.000147813
2.60493e-06
-0.000148062
2.28521e-06
-0.000148145
1.88976e-06
-0.000147934
1.64861e-06
-0.000144199
1.33058e-06
-0.000137425
3.14784e-07
-0.000133722
-1.13344e-06
-0.000132571
-1.87005e-06
-0.000132322
-2.33817e-06
-0.000132341
-2.60724e-06
-0.000133503
-3.10817e-06
-0.000141668
-3.15889e-06
-0.000148944
-1.28517e-06
-0.000150967
6.97038e-07
-0.000151283
1.51398e-06
-0.000151104
2.00165e-06
-0.000149491
2.75505e-06
-0.000144417
3.40242e-06
-0.000136575
3.21508e-06
-0.000131651
1.01945e-06
-0.000129893
-1.17683e-06
-0.000129567
-3.02978e-06
-0.000130088
-5.27763e-06
-0.000130293
-6.93499e-06
-0.000130621
-8.20753e-06
-0.000135568
-8.50582e-06
-0.000143897
-6.17883e-06
-0.00014787