/*--------------------------------*- C++ -*----------------------------------*\
  =========                 |
  \\      /  F ield         | OpenFOAM: The Open Source CFD Toolbox
   \\    /   O peration     | Website:  https://openfoam.org
    \\  /    A nd           | Version:  12
     \\/     M anipulation  |
\*---------------------------------------------------------------------------*/
FoamFile
{
    format      ascii;
    class       surfaceScalarField;
    location    "26";
    object      phi;
}
// * * * * * * * * * * * * * * * * * * * * * * * * * * * * * * * * * * * * * //

dimensions      [1 0 -1 0 0 0 0];

internalField   nonuniform List<scalar> 
19404
(
-0.000130535
-3.39516e-07
-0.000133119
-2.13125e-08
-0.00013393
6.19151e-07
-0.00013413
6.5585e-07
-0.000134319
4.67277e-07
-0.000134692
4.87103e-07
-0.000135145
4.26399e-07
-0.000135714
1.42933e-07
-0.000136668
-1.4972e-07
-0.000138007
-3.90507e-07
-0.000138455
-2.64639e-07
-0.000138201
2.57547e-07
-0.000137062
7.92199e-07
-0.000136194
1.05477e-06
-0.000135813
9.95063e-07
-0.000135566
9.26139e-07
-0.000135668
3.88108e-07
-0.000137781
-9.12125e-08
-0.000140059
-5.84956e-08
-0.000141727
-1.1093e-07
-0.000143005
-1.40179e-07
-0.000143352
-1.88981e-07
-0.000142828
8.59484e-08
-0.000139961
1.04857e-06
-0.000138204
1.11121e-06
-0.000137818
8.42549e-07
-0.000137708
7.58081e-07
-0.000137649
6.08216e-07
-0.000138601
4.09861e-07
-0.000143588
-5.47201e-07
-0.000146648
-3.66453e-07
-0.000147432
-2.24203e-08
-0.000147564
1.06539e-07
-0.000147326
2.99512e-08
-0.000144527
2.8809e-07
-0.000141382
7.00271e-07
-0.00014068
6.17268e-07
-0.000140531
4.22636e-07
-0.000140479
1.58458e-07
-0.000140568
-3.19259e-08
-0.000142671
-2.02822e-07
-0.00014869
-1.45434e-07
-0.000151742
1.58719e-07
-0.000152381
5.14024e-07
-0.000152417
5.54311e-07
-0.000151477
4.6558e-07
-0.000147248
2.37519e-07
-0.000144181
1.79229e-07
-0.000143453
1.84986e-07
-0.000143293
1.32983e-07
-0.000143296
8.61314e-09
-0.000143362
-1.3971e-07
-0.000144811
-1.68126e-07
-0.000150243
2.01538e-07
-0.000154254
4.10948e-07
-0.00015546
5.73947e-07
-0.000155819
6.66148e-07
-0.000155771
5.46985e-07
-0.000153514
4.18641e-07
-0.000148172
1.03586e-07
-0.000145323
3.0556e-08
-0.000144466
-3.24511e-08
-0.000144299
3.66452e-07
-0.000144363
-1.20836e-07
-0.000145222
3.45195e-07
-0.000151541
-3.57237e-07
-0.000157913
3.38499e-07
-0.000160016
4.34867e-07
-0.000160477
5.78179e-07
-0.000160409
6.86892e-07
-0.000158573
7.90784e-07
-0.000152297
2.22769e-07
-0.000146157
-1.97417e-07
-0.000143693
5.33337e-07
-0.000143466
-8.42813e-08
-0.00014357
2.67904e-08
-0.000146906
-1.46242e-07
-0.000156219
-2.05209e-07
-0.000161191
3.78542e-08
-0.000162665
4.01607e-07
-0.000163032
5.49277e-07
-0.00016307
5.54427e-07
-0.000161087
4.96761e-07
-0.000151022
-4.63061e-07
-0.000141707
-2.34064e-09
-0.000138643
-1.88347e-07
-0.000138638
-6.91259e-07
-0.000140594
-1.19347e-06
-0.000153057
-1.52316e-06
-0.00016289
-1.0496e-06
-0.000165738
2.13307e-07
-0.000166293
1.13183e-06
-0.000166275
8.18105e-07
-0.000160267
2.26784e-07
-0.000146302
-3.44726e-07
-0.000131893
3.63399e-08
-0.000116521
-6.65862e-06
-0.000117177
-4.01181e-05
2.28506e-05
-0.000137908
-3.71742e-07
-0.000138644
-4.27265e-07
-0.000142014
4.40396e-07
-0.000143941
1.16099e-06
-0.000144175
1.30904e-06
-0.000144152
1.14213e-06
-0.000143989
7.24828e-07
-0.000143336
2.73105e-07
-0.000143101
-5.12564e-07
-0.000142766
-1.23958e-06
-0.000141995
-8.63675e-07
-0.000141044
-2.98867e-07
-0.000140443
5.32994e-07
-0.000140182
1.22234e-06
-0.000140153
1.43792e-06
-0.00014219
1.79941e-06
-0.000145465
1.50713e-06
-0.000146559
9.08846e-07
-0.00014679
2.46439e-07
-0.000146875
-2.52779e-07
-0.000146848
-5.09069e-07
-0.000146517
-5.35984e-07
-0.000143927
-1.59326e-07
-0.000142111
7.17638e-07
-0.000141398
1.33106e-06
-0.000140989
1.28509e-06
-0.000140814
1.22271e-06
-0.000141033
1.15089e-06
-0.000144753
7.72215e-07
-0.000148652
1.12632e-07
-0.000149868
-2.86977e-07
-0.000150153
-1.78107e-07
-0.000150144
-9.11132e-09
-0.000149555
5.5676e-08
-0.000145965
3.98469e-07
-0.000143349
7.50463e-07
-0.00014264
7.30567e-07
-0.000142452
5.11915e-07
-0.000142408
2.63014e-07
-0.000142465
4.43492e-08
-0.000144537
-1.53362e-07
-0.000149697
-1.51574e-07
-0.000152343
8.72909e-08
-0.000152967
5.56805e-07
-0.000153047
8.00273e-07
-0.000152756
8.76519e-07
-0.000149536
8.23022e-07
-0.000145836
5.53746e-07
-0.000144585
1.43503e-07
-0.000144087
-3.72742e-09
-0.000143847
-5.55309e-08
-0.000143874
-1.40817e-07
-0.000145062
-2.7316e-07
-0.000150505
2.0269e-07
-0.000154483
6.83962e-07
-0.000155646
9.47586e-07
-0.000155872
1.09254e-06
-0.0001559
1.04163e-06
-0.000154696
9.14958e-07
-0.000149512
7.04466e-07
-0.000145817
1.55598e-07
-0.000144722
-1.06077e-07
-0.000144428
-8.70944e-08
-0.000144451
-3.68411e-08
-0.000145345
-1.95157e-07
-0.000151561
-2.04485e-08
-0.000157233
4.03014e-07
-0.00015913
7.79238e-07
-0.000159649
1.04352e-06
-0.000159733
1.15494e-06
-0.000159213
1.13064e-06
-0.000153386
7.63768e-07
-0.000146474
1.17274e-07
-0.00014405
-2.04717e-07
-0.000143497
-1.02584e-07
-0.000143564
-2.77242e-07
-0.000145565
-5.23856e-07
-0.000153751
-3.89805e-07
-0.00015976
3.25946e-07
-0.000161846
7.21942e-07
-0.00016248
7.75136e-07
-0.000162665
6.53547e-07
-0.000161208
5.73824e-07
-0.000151287
1.56148e-07
-0.00014219
-4.99957e-07
-0.000138881
-1.29252e-06
-0.000138425
-1.68932e-06
-0.00013896
-2.25338e-06
-0.000145814
-2.96649e-06
-0.000155543
-2.07981e-06
-0.000159816
-5.34753e-07
-0.000160787
4.39704e-08
-0.000160883
-3.34019e-07
-0.000154858
-1.49372e-06
-0.000141059
-3.27057e-06
-0.000124751
-4.02558e-06
-0.000107625
-1.43929e-05
-0.00012813
-5.7446e-05
3.31103e-05
-0.00013712
-1.02018e-07
-0.000137272
-4.88217e-08
-0.000140064
3.65217e-07
-0.000142722
1.32416e-06
-0.000143688
1.67857e-06
-0.000144102
1.26208e-06
-0.000144154
7.17871e-07
-0.000144056
2.00053e-07
-0.000143495
-3.17437e-07
-0.000142094
-1.14495e-06
-0.000140312
-7.02433e-07
-0.000139117
6.48047e-08
-0.000138592
6.25538e-07
-0.000138505
1.17335e-06
-0.000138807
1.44867e-06
-0.000142138
1.72665e-06
-0.000145697
1.35045e-06
-0.000146688
9.95422e-07
-0.000146885
5.37399e-07
-0.00014682
5.41153e-08
-0.000146662
-3.12468e-07
-0.000144526
6.70026e-08
-0.000141489
7.5168e-07
-0.000140454
9.38491e-07
-0.000140099
1.04335e-06
-0.000140014
1.19956e-06
-0.000139988
1.18375e-06
-0.00014104
1.09852e-06
-0.000145259
4.7306e-07
-0.000148204
3.12539e-07
-0.000149022
2.62183e-07
-0.000149214
2.52829e-07
-0.000149153
3.79569e-07
-0.000147811
5.88137e-07
-0.000144512
8.23561e-07
-0.000142759
7.03273e-07
-0.000142269
5.67487e-07
-0.000142152
3.7413e-07
-0.000142122
1.97877e-07
-0.000142141
4.87015e-08
-0.000143818
-7.04586e-08
-0.00014814
1.96435e-07
-0.000150657
6.19926e-07
-0.000151491
8.95302e-07
-0.000151676
1.07999e-06
-0.000151589
1.16389e-06
-0.00014956
1.07697e-06
-0.000145785
5.54724e-07
-0.000144033
1.65837e-08
-0.000143333
-1.00331e-07
-0.000142979
-1.04296e-08
-0.0001429
8.87713e-08
-0.000143389
5.04362e-08
-0.000147939
2.62924e-07
-0.000152512
9.59356e-07
-0.000154188
1.29501e-06
-0.000154604
1.33954e-06
-0.000154666
1.26477e-06
-0.000154142
1.11433e-06
-0.000149593
8.91346e-07
-0.000145058
2.35604e-07
-0.000143452
-6.80589e-08
-0.000143049
-1.24647e-07
-0.000143013
-1.23807e-07
-0.000143522
-2.2843e-07
-0.00014849
-1.51002e-07
-0.000154467
4.4618e-07
-0.000156878
9.94563e-07
-0.000157588
1.24252e-06
-0.000157741
1.30532e-06
-0.000157547
1.2659e-06
-0.000152576
1.19429e-06
-0.000145226
5.53804e-07
-0.00014218
-2.16383e-07
-0.000141467
-6.13516e-07
-0.000141481
-7.02473e-07
-0.000142131
-9.22379e-07
-0.000148922
-9.46649e-07
-0.000156707
7.60001e-08
-0.000159187
8.63549e-07
-0.000159597
1.07728e-06
-0.000159754
1.09466e-06
-0.000158445
1.02636e-06
-0.000150256
6.68899e-07
-0.00014056
-6.39409e-07
-0.000135597
-2.2798e-06
-0.000134415
-3.23776e-06
-0.000134352
-3.83113e-06
-0.000136855
-4.54521e-06
-0.000146826
-4.47575e-06
-0.000153297
-2.85297e-06
-0.000154781
-1.93331e-06
-0.000155073
-2.14579e-06
-0.000150427
-3.40286e-06
-0.000138689
-5.8842e-06
-0.000123755
-8.81882e-06
-0.000106761
-2.30782e-05
-0.000133385
-6.01555e-05
3.50887e-05
-0.000135207
2.98319e-07
-0.00013509
4.5409e-07
-0.000136538
5.51953e-07
-0.000141334
9.98911e-07
-0.000143802
1.41861e-06
-0.000144382
1.19823e-06
-0.000144434
6.65877e-07
-0.000144313
1.50799e-07
-0.000143263
-1.43556e-07
-0.000138386
1.39807e-07
-0.000135581
5.45717e-07
-0.000135101
5.8842e-07
-0.000135159
5.46869e-07
-0.000135593
5.92403e-07
-0.000137438
6.963e-07
-0.000142583
9.21642e-07
-0.000146171
1.03532e-06
-0.000146798
8.73913e-07
-0.000146694
6.77756e-07
-0.000146508
5.88238e-07
-0.000144559
7.76371e-07
-0.000140179
1.24736e-06
-0.000138276
1.28356e-06
-0.000138051
1.06452e-06
-0.000138041
7.79583e-07
-0.000138381
5.86224e-07
-0.000139136
5.22473e-07
-0.000141258
6.05657e-07
-0.000144766
5.2181e-07
-0.000146492
6.29279e-07
-0.000146918
8.94403e-07
-0.000146982
1.09553e-06
-0.000146823
1.14864e-06
-0.000145641
1.09671e-06
-0.000143014
9.41534e-07
-0.000141711
5.89132e-07
-0.000141197
3.21325e-07
-0.000140848
2.15864e-07
-0.000140581
2.18407e-07
-0.000140496
2.39223e-07
-0.000141438
2.25795e-07
-0.000145226
5.73502e-07
-0.000148065
1.05612e-06
-0.000149323
1.21309e-06
-0.000149764
1.2037e-06
-0.000149796
1.16256e-06
-0.000149291
1.01002e-06
-0.00014548
7.24002e-07
-0.000142283
2.56147e-07
-0.000141007
1.51971e-07
-0.000140513
1.99616e-07
-0.000140397
2.44189e-07
-0.000140563
2.05899e-07
-0.000144107
2.23723e-07
-0.000149764
7.18314e-07
-0.000152039
1.21099e-06
-0.000152564
1.33702e-06
-0.000152627
1.31237e-06
-0.000152479
1.21127e-06
-0.000148865
1.12724e-06
-0.000143029
6.63347e-07
-0.000140763
6.34182e-08
-0.000140266
-2.19758e-07
-0.000140228
-2.97443e-07
-0.00014042
-3.80435e-07
-0.000143869
-4.0919e-07
-0.000150454
1.54666e-07
-0.000153323
9.11812e-07
-0.000154041
1.32397e-06
-0.000154204
1.46278e-06
-0.000154091
1.5171e-06
-0.000151016
1.44013e-06
-0.000143245
8.13405e-07
-0.000138958
-3.77246e-07
-0.000138032
-1.1191e-06
-0.000137946
-1.37965e-06
-0.000138104
-1.49842e-06
-0.000141839
-1.65388e-06
-0.00015
-8.4131e-07
-0.00015342
6.36356e-07
-0.000154076
1.37363e-06
-0.000154255
1.45381e-06
-0.000153949
1.24154e-06
-0.00014906
9.21139e-07
-0.000139209
-5.06463e-07
-0.000132048
-2.62767e-06
-0.000129214
-4.67547e-06
-0.000128857
-5.89272e-06
-0.000129177
-6.51929e-06
-0.00013414
-7.09545e-06
-0.00014058
-6.31586e-06
-0.000142866
-5.07566e-06
-0.000143293
-5.2676e-06
-0.000141452
-6.35151e-06
-0.000133667
-8.67422e-06
-0.000123386
-1.08648e-05
-0.000112523
-2.31356e-05
-0.000129049
-5.73556e-05
4.02612e-05
-0.000133161
6.03638e-07
-0.000133052
6.03565e-07
-0.000133954
5.84805e-07
-0.000139991
5.80345e-07
-0.000143723
9.03984e-07
-0.000144004
9.36224e-07
-0.00014387
7.17821e-07
-0.000143435
6.23892e-07
-0.000140281
9.15317e-07
-0.000134909
1.34284e-06
-0.000133071
1.22542e-06
-0.000132932
8.19292e-07
-0.00013289
4.49305e-07
-0.000133318
1.13465e-07
-0.000135703
-1.10412e-07
-0.000141535
1.66897e-07
-0.000144637
6.82815e-07
-0.000144995
1.07528e-06
-0.000144927
1.34191e-06
-0.000144188
1.62222e-06
-0.000141403
1.82985e-06
-0.000137989
1.81159e-06
-0.000136719
1.28244e-06
-0.000136448
8.36384e-07
-0.000136376
4.99665e-07
-0.000136399
1.85842e-07
-0.000137012
-4.33135e-08
-0.000139103
1.0918e-07
-0.00014194
6.37591e-07
-0.000143611
1.13666e-06
-0.000144343
1.45711e-06
-0.000144575
1.54763e-06
-0.000144553
1.51916e-06
-0.000144244
1.41189e-06
-0.000142118
1.134e-06
-0.000140012
6.14568e-07
-0.000138994
2.11339e-07
-0.000138314
1.41899e-07
-0.000137923
2.61194e-07
-0.000137824
3.43463e-07
-0.000138377
3.33733e-07
-0.000142295
5.96155e-07
-0.000145723
1.1139e-06
-0.000146965
1.32676e-06
-0.000147317
1.31421e-06
-0.000147322
1.18247e-06
-0.000147112
1.06949e-06
-0.000143734
1.00921e-06
-0.000139552
6.76988e-07
-0.000138054
3.21815e-07
-0.000137646
1.90969e-07
-0.000137564
1.43213e-07
-0.000137638
7.69838e-08
-0.000140202
8.26418e-08
-0.000146048
3.86244e-07
-0.000148653
1.00009e-06
-0.000149217
1.32628e-06
-0.000149303
1.44284e-06
-0.000149222
1.46883e-06
-0.00014695
1.41477e-06
-0.000140891
9.771e-07
-0.000137746
1.27607e-07
-0.00013704
-4.1777e-07
-0.000136892
-5.62987e-07
-0.000136932
-5.97104e-07
-0.000138673
-6.43884e-07
-0.000144941
-1.97601e-07
-0.000148628
7.74139e-07
-0.000149629
1.40708e-06
-0.000149944
1.60339e-06
-0.000150016
1.62217e-06
-0.000148887
1.53866e-06
-0.000142161
1.05623e-06
-0.00013595
-4.00519e-07
-0.000134095
-1.45935e-06
-0.000133857
-2.11954e-06
-0.000133862
-2.26646e-06
-0.000135039
-2.37819e-06
-0.000142067
-1.9807e-06
-0.000147715
-2.77475e-07
-0.000148992
1.09771e-06
-0.000149157
1.5684e-06
-0.000149271
1.55477e-06
-0.000147065
1.20659e-06
-0.000139366
1.72278e-07
-0.000130714
-2.45839e-06
-0.000125399
-4.8628e-06
-0.000124023
-6.56776e-06
-0.000123962
-8.32553e-06
-0.000125764
-9.20885e-06
-0.000131475
-9.44048e-06
-0.000135528
-8.69191e-06
-0.000136992
-8.66212e-06
-0.000137108
-1.00385e-05
-0.000134123
-1.17472e-05
-0.000126858
-1.36835e-05
-0.000117309
-2.11604e-05
-0.000123977
-5.53776e-05
4.89882e-05
-0.000131357
8.4003e-07
-0.000131255
6.66304e-07
-0.000132312
3.98299e-07
-0.000138116
1.44774e-07
-0.000141458
4.04831e-07
-0.000141698
8.74399e-07
-0.000141555
1.21031e-06
-0.000140564
1.51922e-06
-0.000137187
1.82348e-06
-0.000133441
1.88673e-06
-0.00013208
1.40508e-06
-0.000131748
9.5279e-07
-0.000131653
4.702e-07
-0.000131745
-7.72322e-08
-0.000133265
-4.12897e-07
-0.000137899
-2.17959e-07
-0.000140887
6.20686e-07
-0.000141503
1.50944e-06
-0.000141474
2.06529e-06
-0.000141061
2.37985e-06
-0.000139723
2.3012e-06
-0.000137291
1.93023e-06
-0.000135773
1.22085e-06
-0.000135218
5.92904e-07
-0.000134892
2.02102e-07
-0.000134639
-8.24442e-10
-0.000134575
-5.32676e-08
-0.000135249
-4.11711e-08
-0.0001382
4.4099e-07
-0.000140652
1.27044e-06
-0.000141853
1.72632e-06
-0.000142388
1.77267e-06
-0.000142477
1.6956e-06
-0.000142405
1.57435e-06
-0.000141295
1.38883e-06
-0.00013821
9.04846e-07
-0.000136346
3.72844e-07
-0.000135533
1.59017e-07
-0.000135185
2.09598e-07
-0.000135095
2.67401e-07
-0.000135379
2.80096e-07
-0.000139106
4.35044e-07
-0.000143285
9.69242e-07
-0.000144525
1.34258e-06
-0.000144716
1.42723e-06
-0.000144742
1.39815e-06
-0.000144518
1.35248e-06
-0.000141696
1.28199e-06
-0.000137023
1.06296e-06
-0.000135292
3.95644e-07
-0.000134918
5.86424e-08
-0.000134845
-2.71932e-08
-0.000134907
-9.52388e-08
-0.000136606
-9.92742e-08
-0.000141948
2.06197e-07
-0.000144998
8.85003e-07
-0.000145815
1.34563e-06
-0.000146019
1.55245e-06
-0.00014603
1.6491e-06
-0.000145122
1.64301e-06
-0.000139958
1.34003e-06
-0.000135186
3.18174e-07
-0.000133892
-3.20785e-07
-0.000133681
-7.92721e-07
-0.000133655
-9.03139e-07
-0.000134357
-9.23692e-07
-0.000139467
-6.59415e-07
-0.000144434
4.09841e-07
-0.000145935
1.35065e-06
-0.000146345
1.68898e-06
-0.000146483
1.68178e-06
-0.000146354
1.53605e-06
-0.000142443
1.27907e-06
-0.000135012
-1.34492e-08
-0.000130982
-1.61484e-06
-0.000130203
-2.50919e-06
-0.000130181
-3.07058e-06
-0.000130377
-3.2542e-06
-0.000133944
-3.25672e-06
-0.000141219
-2.06384e-06
-0.000144788
8.89073e-08
-0.000145653
1.27087e-06
-0.000145824
1.57139e-06
-0.000145346
1.48279e-06
-0.000140274
9.60157e-07
-0.000131921
-1.30089e-06
-0.000125505
-4.2777e-06
-0.00012173
-6.71525e-06
-0.000120889
-8.77657e-06
-0.000121054
-1.07421e-05
-0.000124034
-1.15327e-05
-0.000128785
-1.16704e-05
-0.000131289
-1.16414e-05
-0.000132359
-1.29971e-05
-0.000132333
-1.54426e-05
-0.000129762
-1.71068e-05
-0.000124246
-2.05979e-05
-0.000120415
-5.32925e-05
5.88984e-05
-0.000130034
1.06075e-06
-0.000129937
8.11167e-07
-0.000131335
3.90464e-07
-0.000135361
2.53805e-08
-0.000137686
3.99053e-07
-0.000138273
1.01931e-06
-0.000138233
1.60446e-06
-0.000137684
2.01092e-06
-0.000135894
2.15226e-06
-0.00013348
2.10704e-06
-0.000132106
1.6265e-06
-0.000131481
1.0206e-06
-0.000131137
5.48878e-07
-0.000131015
1.2674e-07
-0.000131094
-1.84641e-08
-0.000133365
5.89666e-08
-0.000136434
7.88298e-07
-0.000137889
1.73888e-06
-0.000138507
2.29012e-06
-0.000138605
2.28561e-06
-0.000138504
2.11539e-06
-0.000137329
1.90905e-06
-0.00013527
1.16846e-06
-0.000134188
5.49924e-07
-0.00013352
6.26843e-08
-0.000132826
-5.41999e-08
-0.000132363
9.48103e-08
-0.000132349
2.6585e-07
-0.00013422
4.407e-07
-0.000137732
1.14834e-06
-0.000139475
1.73872e-06
-0.000140227
1.85414e-06
-0.000140525
1.72948e-06
-0.000140552
1.59274e-06
-0.000140242
1.39118e-06
-0.000137208
1.10123e-06
-0.000134037
5.91879e-07
-0.00013314
2.69682e-07
-0.000132872
1.17927e-07
-0.000132807
1.03569e-07
-0.00013298
1.28717e-07
-0.000135871
2.58599e-07
-0.00014043
7.73336e-07
-0.000142006
1.34748e-06
-0.000142309
1.56369e-06
-0.00014234
1.62733e-06
-0.00014223
1.64355e-06
-0.000140627
1.58865e-06
-0.000135805
1.28586e-06
-0.000132973
5.74525e-07
-0.000132515
4.66145e-08
-0.000132435
-2.46889e-07
-0.000132488
-3.46735e-07
-0.000133643
-3.54229e-07
-0.000138268
-1.28715e-08
-0.000141817
7.98655e-07
-0.000142954
1.47008e-06
-0.000143306
1.73174e-06
-0.000143384
1.83173e-06
-0.00014324
1.85568e-06
-0.000140163
1.70705e-06
-0.000134442
7.38147e-07
-0.000131562
-3.38454e-07
-0.000131081
-8.51417e-07
-0.000131051
-1.2093e-06
-0.000131209
-1.3307e-06
-0.000134229
-1.2631e-06
-0.000140487
-3.3292e-07
-0.000143371
1.10473e-06
-0.000143966
1.7716e-06
-0.000144107
1.85598e-06
-0.000144172
1.71093e-06
-0.000142818
1.50896e-06
-0.000136186
8.36888e-07
-0.000130182
-1.31989e-06
-0.000127647
-2.64861e-06
-0.000127317
-3.63343e-06
-0.000127351
-4.16534e-06
-0.000128238
-4.42544e-06
-0.000133994
-4.09538e-06
-0.000140532
-2.01933e-06
-0.000143083
1.5393e-07
-0.000143612
1.1189e-06
-0.000143798
1.34516e-06
-0.00014211
1.29681e-06
-0.000135609
2.24057e-07
-0.000128338
-2.91578e-06
-0.000123073
-6.26402e-06
-0.000119796
-9.02381e-06
-0.00011921
-1.09128e-05
-0.000119771
-1.2877e-05
-0.000123416
-1.37559e-05
-0.000127217
-1.39466e-05
-0.000129209
-1.48103e-05
-0.000129782
-1.75956e-05
-0.000129297
-2.0035e-05
-0.000127427
-2.12776e-05
-0.000119531
-5.03634e-05
6.57494e-05
-0.000129641
1.07923e-06
-0.000129611
1.06891e-06
-0.000130875
6.99239e-07
-0.00013263
6.0766e-07
-0.000134001
9.14504e-07
-0.000134907
1.22276e-06
-0.000135286
1.53158e-06
-0.000135253
1.76176e-06
-0.00013488
1.89234e-06
-0.000133685
1.96983e-06
-0.000132552
1.63617e-06
-0.000131703
1.24617e-06
-0.000130921
7.8868e-07
-0.000130136
6.43475e-07
-0.000129901
7.40539e-07
-0.000130089
7.54292e-07
-0.000132462
9.66802e-07
-0.000134941
1.649e-06
-0.000136434
2.0889e-06
-0.000137161
2.04509e-06
-0.000137242
1.82904e-06
-0.000137095
1.63407e-06
-0.000135567
1.27399e-06
-0.000133463
4.90244e-07
-0.000131992
1.68116e-07
-0.000131005
1.07292e-07
-0.000130466
3.34164e-07
-0.000130333
5.59159e-07
-0.000131183
6.78061e-07
-0.000135528
1.08236e-06
-0.000138207
1.69659e-06
-0.000138883
1.89544e-06
-0.000139037
1.79599e-06
-0.000139027
1.60427e-06
-0.000138934
1.37335e-06
-0.000136676
1.13585e-06
-0.000132592
7.11494e-07
-0.000131249
3.50016e-07
-0.000131009
5.95497e-08
-0.000130946
-5.29054e-08
-0.00013111
-5.15672e-08
-0.00013329
1.2582e-07
-0.00013782
6.73573e-07
-0.000139848
1.42556e-06
-0.000140335
1.79725e-06
-0.000140462
1.91381e-06
-0.000140436
1.88029e-06
-0.000139907
1.79215e-06
-0.000136075
1.45854e-06
-0.000132215
5.59279e-07
-0.000130901
-4.60008e-08
-0.000130678
-3.73595e-07
-0.000130652
-5.20022e-07
-0.000131048
-5.92468e-07
-0.000134694
-3.40417e-07
-0.000139266
6.3871e-07
-0.000140953
1.59658e-06
-0.000141404
1.98971e-06
-0.000141573
2.1095e-06
-0.000141599
2.00579e-06
-0.000140619
1.8541e-06
-0.000135226
1.3635e-06
-0.000130901
-1.5057e-07
-0.000129456
-9.23303e-07
-0.000129273
-1.45256e-06
-0.000129297
-1.64739e-06
-0.000130137
-1.74627e-06
-0.000135609
-1.34179e-06
-0.000140947
3.47894e-07
-0.000142549
1.68028e-06
-0.000142767
2.0508e-06
-0.000142845
2.05844e-06
-0.000142553
1.88987e-06
-0.000138561
1.53209e-06
-0.000131627
-1.30591e-07
-0.000127374
-2.51683e-06
-0.000125626
-3.77098e-06
-0.000125289
-4.86948e-06
-0.000125351
-5.23792e-06
-0.000127094
-5.56736e-06
-0.000133658
-4.89488e-06
-0.000138992
-2.44638e-06
-0.000141015
-3.0509e-07
-0.000141591
5.52543e-07
-0.000141675
6.80136e-07
-0.000139391
5.48558e-07
-0.000133001
-1.2849e-06
-0.000126237
-4.44943e-06
-0.000121435
-8.14913e-06
-0.000118756
-1.09682e-05
-0.000118403
-1.30337e-05
-0.000119291
-1.52542e-05
-0.000123334
-1.58286e-05
-0.000126701
-1.61643e-05
-0.000128365
-1.83081e-05
-0.000128481
-2.11951e-05
-0.000128558
-2.22338e-05
-0.000119883
-4.9496e-05
6.75018e-05
-0.000129067
8.54355e-07
-0.000129867
1.24235e-06
-0.000130535
1.27818e-06
-0.000131085
1.4293e-06
-0.000131837
1.43577e-06
-0.000132682
1.52325e-06
-0.000133284
1.58603e-06
-0.000133537
1.60836e-06
-0.000133568
1.58006e-06
-0.000133372
1.46561e-06
-0.000132775
1.43328e-06
-0.000131887
1.22682e-06
-0.00013041
1.07854e-06
-0.000129125
1.1611e-06
-0.000128734
1.26225e-06
-0.000128702
1.21395e-06
-0.000130297
1.16934e-06
-0.000133979
1.53827e-06
-0.000136012
1.89066e-06
-0.000136604
1.91878e-06
-0.000136661
1.78789e-06
-0.000136579
1.5824e-06
-0.000136072
1.34814e-06
-0.00013317
1.0092e-06
-0.000130409
4.86687e-07
-0.000129237
4.60211e-07
-0.000128846
5.08268e-07
-0.000128751
5.87907e-07
-0.000129279
6.63316e-07
-0.000133592
9.12373e-07
-0.000137444
1.61247e-06
-0.000138336
1.96304e-06
-0.000138445
1.95699e-06
-0.000138406
1.7426e-06
-0.000138318
1.52209e-06
-0.000136612
1.31779e-06
-0.000132489
8.4493e-07
-0.000130281
3.00572e-07
-0.000129691
1.90676e-08
-0.000129528
-6.21848e-08
-0.000129512
-6.99998e-08
-0.00013081
6.6594e-09
-0.00013538
5.69644e-07
-0.000138344
1.53106e-06
-0.000139121
2.06752e-06
-0.000139292
2.19925e-06
-0.000139334
2.12097e-06
-0.00013925
1.97336e-06
-0.000137143
1.73053e-06
-0.000132632
9.43035e-07
-0.000130251
-1.18095e-07
-0.000129473
-5.26595e-07
-0.000129214
-6.12768e-07
-0.000129247
-5.74203e-07
-0.000130921
-5.51697e-07
-0.000136329
1.61837e-07
-0.00013949
1.50797e-06
-0.000140259
2.16213e-06
-0.000140432
2.29036e-06
-0.000140494
2.10654e-06
-0.000140416
1.89223e-06
-0.000137378
1.62152e-06
-0.000131746
4.52131e-07
-0.000128893
-1.03336e-06
-0.00012799
-1.67399e-06
-0.000127807
-1.86773e-06
-0.000127878
-1.98815e-06
-0.0001301
-2.05058e-06
-0.000136961
-1.14912e-06
-0.000141018
9.16654e-07
-0.000141969
2.0177e-06
-0.000142102
2.27077e-06
-0.000142173
2.21322e-06
-0.000141001
2.00671e-06
-0.000135179
1.41247e-06
-0.000129012
-1.08963e-06
-0.000125484
-3.65252e-06
-0.000123879
-4.9852e-06
-0.000123746
-5.89334e-06
-0.000123876
-6.6167e-06
-0.000126679
-6.9388e-06
-0.000133236
-5.68788e-06
-0.000137816
-2.87882e-06
-0.000139746
-9.79992e-07
-0.000140344
-3.11069e-07
-0.000140092
-2.00315e-07
-0.000137153
-8.90625e-07
-0.000131578
-3.17288e-06
-0.000125371
-6.43492e-06
-0.000120563
-1.00371e-05
-0.00011785
-1.31224e-05
-0.000117663
-1.5271e-05
-0.00011885
-1.7419e-05
-0.00012334
-1.76631e-05
-0.000126734
-1.88849e-05
-0.000128095
-2.17247e-05
-0.000129005
-2.30472e-05
-0.000120369
-4.93246e-05
6.72828e-05
-0.000127548
7.06827e-07
-0.000128871
9.0945e-07
-0.000130372
1.52179e-06
-0.000131033
1.88271e-06
-0.000131653
1.9704e-06
-0.000132378
1.80811e-06
-0.000132848
1.79257e-06
-0.000132963
1.74516e-06
-0.000132902
1.64553e-06
-0.000132774
1.45634e-06
-0.000132195
1.26438e-06
-0.000131072
1.05228e-06
-0.000129588
1.02599e-06
-0.000128584
1.12786e-06
-0.000128213
1.20344e-06
-0.000128131
1.19027e-06
-0.000129244
1.1199e-06
-0.000133685
1.45715e-06
-0.000136054
1.84825e-06
-0.000136434
1.88525e-06
-0.000136393
1.84437e-06
-0.000136314
1.65791e-06
-0.000136087
1.48712e-06
-0.000133327
1.29449e-06
-0.000129165
9.63959e-07
-0.000127749
7.93681e-07
-0.000127494
6.7155e-07
-0.000127419
5.46725e-07
-0.000127864
4.63756e-07
-0.000131633
6.1879e-07
-0.000136574
1.33545e-06
-0.000138166
1.97283e-06
-0.00013832
1.98023e-06
-0.000138289
1.87021e-06
-0.000138162
1.68026e-06
-0.000136925
1.52232e-06
-0.000133049
1.07334e-06
-0.000130087
3.84382e-07
-0.000128808
4.92479e-08
-0.000128318
4.06068e-08
-0.000128213
5.0591e-08
-0.000128528
3.34672e-08
-0.000132339
2.8581e-07
-0.000136875
1.3005e-06
-0.000138471
2.17066e-06
-0.000138852
2.37839e-06
-0.000138946
2.2835e-06
-0.000138945
2.10734e-06
-0.000138323
1.90437e-06
-0.000134145
1.53494e-06
-0.000130314
3.25755e-07
-0.000128537
-5.11717e-07
-0.000127942
-5.12082e-07
-0.000127824
-5.38027e-07
-0.0001281
-6.08209e-07
-0.000132148
-4.34143e-07
-0.000137631
7.69489e-07
-0.000139651
2.00121e-06
-0.000140119
2.2891e-06
-0.000140227
2.14218e-06
-0.000140253
1.91087e-06
-0.000139313
1.67014e-06
-0.000133952
1.25806e-06
-0.000129172
-2.89631e-07
-0.000126991
-1.61613e-06
-0.000126412
-1.97622e-06
-0.000126411
-2.27773e-06
-0.000126727
-2.57665e-06
-0.000131159
-2.61692e-06
-0.000138111
-9.81785e-07
-0.000140991
1.27315e-06
-0.000141629
2.28677e-06
-0.000141734
2.48548e-06
-0.000141725
2.46252e-06
-0.000139369
2.38298e-06
-0.000132334
1.12724e-06
-0.000126857
-2.1865e-06
-0.000124331
-4.75653e-06
-0.000123166
-6.22692e-06
-0.000122793
-7.31695e-06
-0.000122909
-7.52563e-06
-0.000125568
-7.57461e-06
-0.000131595
-6.12325e-06
-0.00013571
-3.52131e-06
-0.000137729
-1.90603e-06
-0.000138359
-1.68117e-06
-0.000138074
-1.79355e-06
-0.000135725
-3.12202e-06
-0.000130868
-5.48015e-06
-0.000124623
-8.38778e-06
-0.000119454
-1.18283e-05
-0.000116661
-1.51991e-05
-0.000116568
-1.73514e-05
-0.000118324
-1.92976e-05
-0.000123714
-2.00761e-05
-0.000126865
-2.26361e-05
-0.000128782
-2.40234e-05
-0.000120998
-4.81736e-05
6.71243e-05
-0.000126423
7.25298e-07
-0.00012685
6.13323e-07
-0.000129177
9.10687e-07
-0.000131502
1.96601e-06
-0.000132298
2.29255e-06
-0.000132711
2.44277e-06
-0.000132905
2.2867e-06
-0.000132904
2.08892e-06
-0.00013282
1.83791e-06
-0.000132669
1.55296e-06
-0.000131565
1.16495e-06
-0.00012977
8.05866e-07
-0.000128621
5.35407e-07
-0.00012796
6.37651e-07
-0.000127611
8.04803e-07
-0.000127479
9.09889e-07
-0.00012835
9.53117e-07
-0.000133112
1.34988e-06
-0.000135852
1.93259e-06
-0.000136258
2.07781e-06
-0.000136189
2.02481e-06
-0.000136092
1.92403e-06
-0.000135776
1.77629e-06
-0.000133425
1.68111e-06
-0.000129039
1.38943e-06
-0.000127371
9.33529e-07
-0.000127095
7.26769e-07
-0.00012703
5.19191e-07
-0.0001271
3.44549e-07
-0.000129624
1.69021e-07
-0.000135253
7.41223e-07
-0.000137723
1.66841e-06
-0.000138118
1.95329e-06
-0.00013812
1.92055e-06
-0.000138073
1.83971e-06
-0.000137541
1.72341e-06
-0.000134259
1.72752e-06
-0.000130182
1.01221e-06
-0.000128009
2.5383e-07
-0.000127282
2.6386e-07
-0.000127102
1.22338e-07
-0.000127124
2.11056e-08
-0.000129049
-2.67971e-08
-0.00013472
5.80377e-07
-0.000137897
1.86876e-06
-0.000138726
2.43446e-06
-0.000138857
2.38191e-06
-0.000138865
2.25346e-06
-0.000138737
2.1232e-06
-0.000136236
2.12044e-06
-0.000130882
1.34505e-06
-0.000127937
-4.92244e-08
-0.000126838
-2.62867e-07
-0.000126689
-5.5651e-07
-0.000126706
-7.58431e-07
-0.000128248
-8.64193e-07
-0.000134595
-4.34291e-07
-0.000138936
1.20501e-06
-0.000140016
2.15267e-06
-0.000140158
2.14879e-06
-0.000140186
1.96801e-06
-0.00013999
1.8965e-06
-0.00013673
2.09922e-06
-0.000130318
1.01164e-06
-0.00012676
-1.06508e-06
-0.000125513
-2.04314e-06
-0.000125384
-2.76464e-06
-0.000125401
-3.12611e-06
-0.000126358
-3.42982e-06
-0.000132446
-3.15374e-06
-0.000138678
-6.4155e-07
-0.000140715
1.67273e-06
-0.000141005
2.54875e-06
-0.000141068
2.87864e-06
-0.000140966
2.63341e-06
-0.000138074
2.24293e-06
-0.00013134
3.97667e-07
-0.000126415
-3.07915e-06
-0.000123509
-5.83268e-06
-0.000121534
-7.25516e-06
-0.000121013
-7.56386e-06
-0.000121234
-8.06051e-06
-0.000124394
-8.20568e-06
-0.000130402
-6.78067e-06
-0.000134608
-4.59251e-06
-0.000136874
-3.57482e-06
-0.000137288
-3.77809e-06
-0.000136828
-4.05636e-06
-0.000134439
-5.5754e-06
-0.000129922
-7.53737e-06
-0.000123508
-1.00037e-05
-0.000118058
-1.37029e-05
-0.000115441
-1.72571e-05
-0.000115443
-1.92373e-05
-0.000118914
-2.13972e-05
-0.000124444
-2.3998e-05
-0.000127489
-2.5826e-05
-0.000122012
-4.52505e-05
6.64603e-05
-0.000125865
6.13984e-07
-0.000125757
5.24933e-07
-0.000126626
5.25186e-07
-0.000130435
1.2156e-06
-0.000132768
2.58001e-06
-0.000133017
2.89732e-06
-0.000133064
2.95651e-06
-0.000133131
2.53552e-06
-0.000133089
2.13822e-06
-0.000132939
1.73699e-06
-0.000131708
1.26974e-06
-0.000129332
5.80156e-07
-0.000127827
8.72381e-08
-0.000127048
3.2527e-07
-0.000126644
5.84983e-07
-0.000126504
8.12018e-07
-0.00012712
9.17449e-07
-0.000131864
1.29666e-06
-0.000135291
1.99523e-06
-0.000135972
2.26434e-06
-0.000136029
2.2399e-06
-0.000135931
2.14057e-06
-0.000135644
2.0563e-06
-0.000133682
1.91917e-06
-0.000129548
1.61765e-06
-0.000127518
1.13321e-06
-0.000127125
7.57667e-07
-0.000127061
4.68651e-07
-0.000127024
1.93007e-07
-0.000127995
-9.49758e-08
-0.00013315
1.63853e-08
-0.00013685
1.06718e-06
-0.000137657
1.8374e-06
-0.000137722
1.99701e-06
-0.000137653
2.09209e-06
-0.000137385
2.24979e-06
-0.000135457
2.27387e-06
-0.000130616
2.06367e-06
-0.000127801
8.54984e-07
-0.000126814
2.89866e-07
-0.000126575
9.87709e-08
-0.00012654
-1.22168e-07
-0.000126972
-3.4802e-07
-0.000131451
-2.11698e-07
-0.000136741
1.05157e-06
-0.000138379
2.27788e-06
-0.000138647
2.51956e-06
-0.00013866
2.52574e-06
-0.000138589
2.52222e-06
-0.00013766
2.41858e-06
-0.000132646
2.19815e-06
-0.00012809
7.92952e-07
-0.000126489
-2.89327e-07
-0.000126129
-6.89074e-07
-0.000126137
-1.04155e-06
-0.000126347
-1.20393e-06
-0.000130116
-1.38631e-06
-0.000136869
-1.40724e-07
-0.00013951
1.71474e-06
-0.000139902
2.29331e-06
-0.000139936
2.40279e-06
-0.000139781
2.4433e-06
-0.000138814
2.4802e-06
-0.000133748
2.04823e-06
-0.000128145
1.32878e-07
-0.00012577
-1.80629e-06
-0.000124779
-2.80704e-06
-0.000124431
-3.45073e-06
-0.000124463
-3.6946e-06
-0.000125807
-4.10665e-06
-0.000132685
-3.55133e-06
-0.000138227
-6.48149e-07
-0.000140068
1.8114e-06
-0.000140761
2.81646e-06
-0.000141002
2.64419e-06
-0.00014087
2.4399e-06
-0.00013719
2.20039e-06
-0.000129813
1.82497e-07
-0.000124364
-3.68684e-06
-0.000121559
-6.46665e-06
-0.00012016
-7.66823e-06
-0.000119894
-8.54035e-06
-0.000120166
-8.85447e-06
-0.000123811