/*--------------------------------*- C++ -*----------------------------------*\
  =========                 |
  \\      /  F ield         | OpenFOAM: The Open Source CFD Toolbox
   \\    /   O peration     | Website:  https://openfoam.org
    \\  /    A nd           | Version:  12
     \\/     M anipulation  |
\*---------------------------------------------------------------------------*/
FoamFile
{
    format      ascii;
    class       volScalarField;
    location    "26";
    object      T;
}
// * * * * * * * * * * * * * * * * * * * * * * * * * * * * * * * * * * * * * //

dimensions      [0 0 0 1 0 0 0];

internalField   nonuniform List<scalar> 
9801
(
0.790537
0.79538
0.798155
0.799142
0.799915
0.800948
0.802145
0.803724
0.805938
0.808892
0.811494
0.812575
0.812218
0.811473
0.811585
0.811928
0.812572
0.815696
0.820595
0.823972
0.826653
0.828437
0.829262
0.827283
0.824615
0.824409
0.824973
0.825719
0.827023
0.833054
0.840157
0.843222
0.844541
0.845516
0.844688
0.84113
0.839989
0.840464
0.841342
0.842634
0.845196
0.852624
0.859465
0.862102
0.863079
0.863564
0.861144
0.857537
0.856977
0.857741
0.858911
0.860404
0.862845
0.869089
0.876565
0.880217
0.881791
0.882718
0.882681
0.878557
0.87509
0.874805
0.875679
0.87712
0.878975
0.885675
0.895928
0.901699
0.904199
0.905383
0.90559
0.901936
0.896211
0.893696
0.894671
0.896568
0.90051
0.911679
0.922194
0.927496
0.930411
0.932264
0.933506
0.92903
0.919418
0.916422
0.918852
0.923761
0.937353
0.954939
0.965517
0.973545
0.980391
0.982317
0.976582
0.966282
0.958426
1.12551
1.52562
0.79345
0.795527
0.800457
0.804847
0.806112
0.806576
0.807218
0.807787
0.808483
0.810152
0.811445
0.812221
0.813064
0.813907
0.814771
0.816834
0.821423
0.823749
0.825103
0.826651
0.828338
0.829904
0.829277
0.827705
0.827758
0.828031
0.828616
0.829528
0.833122
0.839345
0.843214
0.845459
0.846959
0.847988
0.846271
0.843308
0.842899
0.843619
0.844679
0.845938
0.848451
0.855181
0.861301
0.864211
0.865616
0.866606
0.865328
0.861136
0.859829
0.860455
0.861552
0.86295
0.865016
0.871522
0.879083
0.882846
0.884664
0.88575
0.886337
0.882908
0.878355
0.877554
0.878776
0.880328
0.882505
0.888903
0.89892
0.904374
0.90697
0.908418
0.909676
0.907505
0.900327
0.897735
0.89875
0.901064
0.904482
0.913951
0.924706
0.930768
0.934563
0.9374
0.939691
0.935112
0.925788
0.922964
0.925732
0.930418
0.93959
0.954457
0.965771
0.974917
0.983334
0.987045
0.982373
0.970728
0.953646
1.11912
1.54515
0.798885
0.799814
0.802899
0.80828
0.811272
0.8132
0.814686
0.815975
0.816764
0.81641
0.815283
0.814602
0.814969
0.815968
0.817211
0.820913
0.827921
0.831872
0.833556
0.834638
0.835632
0.835239
0.831736
0.830191
0.830827
0.831986
0.83323
0.835246
0.840972
0.847305
0.850117
0.851524
0.852687
0.852949
0.850419
0.84843
0.848787
0.849986
0.851404
0.85284
0.855258
0.861178
0.866447
0.869114
0.870613
0.871791
0.871938
0.869129
0.867352
0.867605
0.868517
0.86971
0.871252
0.876316
0.884154
0.888627
0.890962
0.89247
0.8938
0.892142
0.887488
0.885825
0.886701
0.888434
0.890494
0.896061
0.905723
0.912098
0.915537
0.91786
0.919696
0.91874
0.911684
0.908104
0.909118
0.911674
0.914849
0.922661
0.935601
0.943574
0.947786
0.950982
0.953297
0.950197
0.941687
0.938137
0.940492
0.945869
0.953138
0.967718
0.983097
0.993621
1.00345
1.01005
1.00843
0.999442
0.980736
1.13191
1.57573
0.80557
0.8061
0.807725
0.814149
0.820304
0.823422
0.825389
0.826971
0.827802
0.823834
0.818753
0.817908
0.818948
0.821008
0.824192
0.830704
0.838095
0.841912
0.843674
0.844773
0.844234
0.84004
0.837006
0.837136
0.83819
0.840052
0.842632
0.846281
0.851805
0.856526
0.858703
0.859898
0.860791
0.861079
0.859511
0.858507
0.859152
0.860247
0.861371
0.862568
0.864387
0.869628
0.875467
0.87891
0.881063
0.882736
0.884166
0.882586
0.879137
0.878203
0.878838
0.880172
0.881884
0.886034
0.894952
0.901174
0.904133
0.905971
0.907649
0.907157
0.901776
0.898996
0.899892
0.901975
0.90434
0.90894
0.918925
0.926738
0.930735
0.933403
0.935487
0.935812
0.930207
0.925529
0.925951
0.928822
0.932316
0.938082
0.950706
0.960983
0.966169
0.96991
0.973424
0.973833
0.967121
0.961063
0.960926
0.966404
0.973757
0.984665
1.00033
1.01298
1.02385
1.03356
1.03531
1.03027
1.01319
1.15181
1.61005
0.813723
0.814674
0.816463
0.823367
0.832189
0.83582
0.837551
0.838546
0.836929
0.83107
0.82756
0.827717
0.828785
0.830838
0.834852
0.842773
0.850049
0.852828
0.853936
0.854143
0.852352
0.849073
0.847788
0.848646
0.85011
0.851778
0.854154
0.857958
0.862862
0.866837
0.86939
0.871208
0.872662
0.873843
0.873374
0.871793
0.871666
0.872386
0.873401
0.874703
0.876467
0.881662
0.88872
0.892858
0.895225
0.89706
0.89863
0.897627
0.893149
0.891665
0.89259
0.894326
0.896315
0.899923
0.908685
0.916037
0.919499
0.921567
0.923303
0.923632
0.919058
0.915354
0.915852
0.918035
0.920549
0.924148
0.933093
0.942309
0.947179
0.950275
0.952915
0.954856
0.951692
0.945197
0.94356
0.946145
0.949844
0.954362
0.964522
0.977765
0.985382
0.989745
0.993729
0.996259
0.992751
0.985494
0.981656
0.983198
0.989865
0.998561
1.01208
1.02638
1.03785
1.04794
1.05273
1.05168
1.03426
1.16747
1.63653
0.823998
0.825149
0.827407
0.834816
0.843412
0.846727
0.848046
0.848091
0.845697
0.841599
0.839825
0.840305
0.841483
0.84316
0.846161
0.852833
0.859651
0.862598
0.863817
0.864401
0.864205
0.86272
0.8616
0.862236
0.863606
0.865036
0.866483
0.868445
0.873182
0.878623
0.88218
0.884571
0.886359
0.887822
0.88853
0.886416
0.884668
0.884785
0.885916
0.887488
0.889344
0.894124
0.902263
0.907149
0.909627
0.911463
0.912955
0.912425
0.908
0.905794
0.906661
0.908443
0.910506
0.913693
0.92152
0.929437
0.933565
0.936038
0.938086
0.939491
0.936814
0.931466
0.930153
0.931946
0.934436
0.937512
0.944663
0.95519
0.961554
0.964997
0.967757
0.97035
0.970239
0.963605
0.958933
0.959295
0.962778
0.96685
0.973616
0.98667
0.99762
1.00407
1.00855
1.01228
1.01206
1.00535
0.999391
0.997736
1.00041
1.00668
1.01551
1.02812
1.03962
1.04902
1.05546
1.05767
1.04877
1.18042
1.65403
0.835078
0.836546
0.838982
0.84587
0.852265
0.855479
0.857025
0.857559
0.856836
0.85476
0.853394
0.85364
0.854563
0.855853
0.857209
0.860609
0.866729
0.871041
0.873587
0.875467
0.876941
0.877413
0.875935
0.875281
0.875869
0.876691
0.877502
0.878699
0.881626
0.888169
0.893243
0.89617
0.898289
0.900022
0.901432
0.900326
0.896757
0.895927
0.896981
0.898647
0.900616
0.904672
0.912822
0.918503
0.921259
0.92312
0.924616
0.925034
0.921352
0.917563
0.917557
0.919283
0.921383
0.924348
0.931212
0.939565
0.944282
0.946955
0.94911
0.951042
0.950825
0.945356
0.941836
0.942137
0.944387
0.947069
0.952036
0.962501
0.97121
0.975556
0.978288
0.980853
0.982616
0.978686
0.971586
0.969024
0.970622
0.974234
0.978772
0.98825
1.00202
1.0114
1.01685
1.02107
1.02383
1.02106
1.01444
1.01012
1.00919
1.01153
1.01707
1.02605
1.03752
1.04714
1.05382
1.05724
1.05404
1.19247
1.66551
0.845835
0.84784
0.850374
0.854889
0.858624
0.86166
0.863926
0.865506
0.866511
0.86638
0.86579
0.865719
0.865894
0.866124
0.866576
0.867778
0.871748
0.877626
0.881816
0.884718
0.886714
0.888276
0.8884
0.886574
0.885588
0.885435
0.885912
0.886997
0.888889
0.895164
0.90219
0.905618
0.907515
0.909076
0.910602
0.910639
0.906512
0.904484
0.905316
0.906924
0.908916
0.912521
0.920137
0.926446
0.929452
0.931339
0.932891
0.934081
0.932215
0.927544
0.926051
0.927129
0.928992
0.93128
0.936619
0.945486
0.951447
0.9544
0.956595
0.958675
0.960214
0.956975
0.951319
0.949843
0.951248
0.953546
0.956599
0.964449
0.975555
0.982076
0.985513
0.988047
0.990309
0.989631
0.982847
0.977536
0.97644
0.978495
0.982023
0.987087
0.998677
1.01181
1.01996
1.02501
1.02918
1.03131
1.02777
1.02117
1.01703
1.01645
1.01895
1.02412
1.03289
1.04325
1.05084
1.05507
1.05618
1.2031
1.67295
0.853465
0.856347
0.859267
0.861472
0.863866
0.866424
0.868829
0.870778
0.872306
0.873585
0.874191
0.874308
0.873958
0.873122
0.873323
0.874446
0.877165
0.883897
0.889695
0.892828
0.894701
0.896248
0.897445
0.895816
0.892565
0.891265
0.891728
0.89302
0.894865
0.900427
0.908804
0.913059
0.914953
0.916388
0.917804
0.918049
0.914486
0.911556
0.911563
0.912785
0.914379
0.917055
0.923924
0.931278
0.935008
0.937016
0.938621
0.94012
0.9403
0.936113
0.932912
0.932798
0.934063
0.935827
0.938886
0.947165
0.955319
0.95939
0.96172
0.963767
0.965758
0.965677
0.960102
0.956253
0.955938
0.957564
0.959843
0.963905
0.974654
0.985047
0.990243
0.993341
0.995827
0.997449
0.993845
0.986329
0.982278
0.981664
0.983688
0.987286
0.993554
1.00652
1.01906
1.02687
1.03183
1.03546
1.0362
1.03273
1.02739
1.02333
1.02227
1.02417
1.02876
1.03744
1.04692
1.05297
1.05681
1.21215
1.6783
0.85729
0.860482
0.864347
0.867534
0.86958
0.872039
0.874269
0.875947
0.877282
0.878542
0.879305
0.879164
0.878603
0.878303
0.878976
0.880274
0.882487
0.889315
0.896137
0.899253
0.900961
0.902349
0.903511
0.902715
0.897659
0.89511
0.895487
0.896715
0.89865
0.903724
0.912801
0.918425
0.92075
0.922273
0.923651
0.924137
0.921275
0.917496
0.916255
0.916704
0.917903
0.919618
0.924702
0.933458
0.938916
0.941532
0.943315
0.944942
0.946245
0.943811
0.938819
0.93686
0.937119
0.938524
0.940515
0.946038
0.956246
0.962868
0.966199
0.968426
0.970439
0.971933
0.968535
0.962064
0.959415
0.95972
0.961782
0.96443
0.971031
0.983989
0.99294
0.997227
1.00016
1.00247
1.00319
0.996891
0.989265
0.986443
0.986892
0.989106
0.992499
0.998492
1.01119
1.02334
1.031
1.0359
1.03944
1.04052
1.03828
1.03312
1.02816
1.02596
1.02703
1.03076
1.04
1.04933
1.05626
1.22124
1.68294
0.860474
0.86245
0.866928
0.872064
0.875704
0.87768
0.879305
0.880712
0.881998
0.883211
0.883622
0.882259
0.881579
0.881949
0.882862
0.884101
0.886031
0.892647
0.90004
0.903248
0.904964
0.906334
0.907341
0.906686
0.902115
0.899083
0.899371
0.900501
0.901953
0.905613
0.914541
0.921758
0.924857
0.926638
0.928136
0.929188
0.927479
0.922446
0.919484
0.919085
0.920079
0.9216
0.92472
0.93335
0.941381
0.945261
0.947359
0.949025
0.950507
0.950268
0.944649
0.940137
0.939275
0.940286
0.942161
0.945286
0.95456
0.964775
0.969841
0.972563
0.974588
0.976285
0.975519
0.968485
0.962957
0.962013
0.963404
0.965744
0.968922
0.978125
0.991642
0.999236
1.0028
1.00535
1.00774
1.00806
1.00118
0.994183
0.991424
0.990912
0.992284
0.995784
1.00256
1.01543
1.02751
1.03552
1.04042
1.04364
1.04396
1.04211
1.03696
1.03079
1.02711
1.02727
1.03091
1.04215
1.05333
1.2302
1.68706
0.863925
0.865162
0.867175
0.872877
0.878839
0.881872
0.88323
0.884874
0.886387
0.887682
0.888037
0.886038
0.884469
0.88451
0.885115
0.886144
0.887754
0.893808
0.901877
0.905676
0.907608
0.909131
0.910276
0.909909
0.906236
0.90309
0.903139
0.904246
0.905587
0.907569
0.914612
0.923265
0.927455
0.929562
0.93107
0.932081
0.93174
0.927184
0.922556
0.921707
0.92242
0.923766
0.925645
0.93155
0.941749
0.947582
0.950262
0.952013
0.953474
0.954399
0.951194
0.944659
0.942316
0.942859
0.944467
0.946483
0.951702
0.963468
0.971771
0.975315
0.977438
0.978964
0.979945
0.977022
0.969694
0.966082
0.965868
0.967159
0.969352
0.972935
0.983765
0.997295
1.00432
1.00826
1.01168
1.01436
1.01359
1.00488
0.996812
0.993682
0.993892
0.996116
0.999926
1.00715
1.02024
1.03172
1.03888
1.04315
1.04585
1.04578
1.04389
1.03865
1.03138
1.02651
1.02601
1.03228
1.04686
1.23779
1.6902
0.867153
0.867669
0.868354
0.870731
0.878413
0.884297
0.887357
0.889364
0.891069
0.892521
0.893306
0.890992
0.887763
0.886269
0.886488
0.887395
0.888808
0.89404
0.90283
0.907572
0.909778
0.911401
0.91283
0.913324
0.910374
0.907113
0.906838
0.90791
0.909256
0.910716
0.914552
0.923094
0.928438
0.930638
0.931962
0.932864
0.933502
0.932242
0.927369
0.92495
0.92535
0.926664
0.928082
0.930505
0.939291
0.948032
0.951734
0.953703
0.955436
0.957117
0.957246
0.952011
0.947184
0.946518
0.947375
0.948776
0.950772
0.958477
0.970514
0.976582
0.979393
0.981484
0.983621
0.984796
0.979616
0.97201
0.968959
0.968499
0.96956
0.971938
0.97636
0.98915
1.00358
1.01093
1.01424
1.01648
1.01817
1.01633
1.00799
1.00077
0.99806
0.998194
1.00026
1.00418
1.01225
1.02514
1.03501
1.04073
1.04435
1.04661
1.04644
1.04494
1.03947
1.03065
1.02499
1.02561
1.03744
1.24171
1.69206
0.869988
0.869242
0.869613
0.870568
0.875672
0.885636
0.891444
0.894309
0.896079
0.897535
0.89843
0.895689
0.88945
0.88703
0.887429
0.888527
0.890132
0.894635
0.903729
0.90968
0.912177
0.913727
0.915019
0.915868
0.914747
0.911476
0.91049
0.911274
0.912455
0.913754
0.915329
0.920841
0.927425
0.93026
0.93187
0.933641
0.935573
0.936859
0.934354
0.930153
0.929377
0.929822
0.930519
0.931574
0.935381
0.945625
0.952453
0.955661
0.957999
0.960119
0.961908
0.960519
0.953881
0.950029
0.949417
0.950123
0.9517
0.954746
0.965029
0.976373
0.981723
0.984901
0.987428
0.989228
0.98872
0.981092
0.973568
0.97122
0.971624
0.973118
0.975588
0.980279
0.993792
1.00787
1.01408
1.01697
1.01957
1.02197
1.02001
1.0118
1.0049
1.00221
1.00254
1.00451
1.00827
1.01679
1.02894
1.03725
1.04183
1.04502
1.04727
1.04746
1.0461
1.03947
1.02895
1.02303
1.02602
1.24139
1.69308
0.872221
0.870125
0.870732
0.871814
0.87475
0.885407
0.894739
0.898066
0.899962
0.90151
0.90197
0.898222
0.891451
0.889317
0.889884
0.890996
0.89266
0.896284
0.904499
0.911143
0.914003
0.915582
0.91672
0.917966
0.91876
0.916696
0.91454
0.914521
0.915002
0.915275
0.915667
0.917496
0.924335
0.930358
0.933617
0.936161
0.938395
0.940369
0.941247
0.937298
0.933056
0.931539
0.931387
0.932272
0.934013
0.941222
0.95237
0.958348
0.961562
0.963668
0.965602
0.966527
0.961413
0.953937
0.951169
0.951434
0.952665
0.954575
0.959281
0.971865
0.982778
0.987427
0.989612
0.990611
0.992152
0.99154
0.983621
0.97691
0.975004
0.974992
0.976075
0.978515
0.983564
0.997578
1.0117
1.01845
1.02149
1.02364
1.02493
1.0229
1.01641
1.00986
1.00642
1.00602
1.0078
1.01132
1.02044
1.0322
1.03939
1.04308
1.04609
1.0484
1.04869
1.04652
1.03785
1.0258
1.01794
1.23714
1.69336
0.875478
0.872341
0.873015
0.87419
0.876672
0.885608
0.896199
0.900173
0.902062
0.902867
0.90121
0.897758
0.894302
0.892706
0.893394
0.894818
0.89684
0.899173
0.9042
0.910938
0.914617
0.916607
0.91857
0.920432
0.921976
0.922439
0.91976
0.917577
0.916227
0.914933
0.915017
0.916193
0.920976
0.930398
0.936587
0.940061
0.942362
0.944256
0.945923
0.944328
0.93687
0.932297
0.93181
0.932883
0.9345
0.938693
0.950405
0.960302
0.964248
0.966544
0.968222
0.968727
0.967548
0.961033
0.955198
0.953997
0.954709
0.956378
0.958418
0.963913
0.977078
0.986459
0.990368
0.993214
0.995416
0.997152
0.995342
0.986536
0.979854
0.978119
0.9789
0.980379
0.982219
0.986336
0.999233
1.0133
1.02023
1.02363
1.02618
1.02784
1.02658
1.02066
1.01357
1.00937
1.00851
1.01026
1.01389
1.02355
1.03484
1.0411
1.04425
1.04733
1.04921
1.04916
1.04539
1.03252
1.01728
1.22942
1.69317
0.878215
0.875844
0.876492
0.877743
0.880995
0.88841
0.896086
0.899851
0.901053
0.900409
0.899918
0.899692
0.898407
0.8977
0.898439
0.899841
0.900854
0.901358
0.902523
0.907969
0.914777
0.918624
0.921198
0.923368
0.925215
0.926806
0.925939
0.920425
0.915634
0.914226
0.914928
0.916453
0.919845
0.929767
0.939336
0.943649
0.946015
0.94787
0.948964
0.947963
0.941543
0.93541
0.93449
0.935345
0.936896
0.939471
0.946503
0.958201
0.964533
0.967076
0.968219
0.969464
0.971168
0.970421
0.964086
0.959399
0.958177
0.958131
0.958973
0.960814
0.966508
0.980629
0.991239
0.995663
0.997835
0.999658
1.00166
1.0005
0.991666
0.984671
0.982411
0.981601
0.98198
0.984237
0.988919
1.00199
1.01614
1.02366
1.02698
1.02892
1.02984
1.02892
1.02415
1.01708
1.01224
1.01091
1.01212
1.01562
1.02565
1.03641
1.04194
1.04502
1.04845
1.0496
1.04897
1.04028
1.02418
1.22167
1.6931
0.881059
0.880396
0.881247
0.883011
0.885546
0.889449
0.893758
0.896614
0.897984
0.898928
0.900846
0.90267
0.904275
0.904229
0.903157
0.902629
0.901985
0.901321
0.901741
0.904227
0.913054
0.920752
0.924521
0.926618
0.928322
0.930128
0.930476
0.923731
0.916735
0.915406
0.916048
0.917261
0.919559
0.928354
0.940236
0.945675
0.947885
0.949005
0.948891
0.948476
0.946546
0.941551
0.939394
0.940086
0.941561
0.942403
0.94366
0.950053
0.960873
0.966623
0.969713
0.972276
0.974792
0.976881
0.975871
0.968056
0.962137
0.960072
0.959455
0.959839
0.961881
0.968949
0.984851
0.995623
1.00032
1.00365
1.00547
1.00672
1.00411
0.993532
0.985725
0.983651
0.984254
0.986359
0.989212
0.993142
1.00434
1.0176
1.02468
1.02814
1.03052
1.0321
1.03195
1.0273
1.0193
1.01368
1.01205
1.01302
1.01668
1.02678
1.03688
1.04213
1.04573
1.04887
1.04985
1.04613
1.03474
1.21713
1.69365
0.884295
0.885122
0.886135
0.887531
0.888456
0.888371
0.889535
0.893523
0.897149
0.900512
0.90417
0.907637
0.909857
0.91096
0.908841
0.904738
0.901536
0.900811
0.90168
0.903328
0.910208
0.921546
0.927113
0.929635
0.931485
0.932445
0.931159
0.926192
0.919858
0.917883
0.9186
0.920082
0.922342
0.926779
0.936807
0.944264
0.946759
0.947888
0.949189
0.951046
0.952337
0.950694
0.946398
0.944331
0.943439
0.942608
0.9425
0.944288
0.952735
0.965422
0.972949
0.977561
0.980332
0.982118
0.983043
0.978389
0.968276
0.962062
0.960025
0.960156
0.961686
0.964675
0.973107
0.989835
1.00102
1.00522
1.00642
1.00641
1.00716
1.00575
0.997686
0.99139
0.989723
0.989737
0.990442
0.99212
0.99562
1.00606
1.01895
1.02654
1.03038
1.03308
1.03441
1.03361
1.02854
1.02015
1.01421
1.01239
1.01354
1.01726
1.02656
1.03625
1.04193
1.0461
1.0493
1.04942
1.04426
1.2175
1.69516
0.887675
0.889082
0.890128
0.890388
0.888073
0.886494
0.887085
0.890609
0.897511
0.904016
0.909248
0.912404
0.91425
0.91566
0.914468
0.906638
0.901367
0.901114
0.90206
0.903572
0.908668
0.920672
0.928243
0.930879
0.932306
0.932311
0.931948
0.93031
0.925868
0.922799
0.923113
0.924293
0.925589
0.926643
0.930046
0.939157
0.945829
0.949203
0.952063
0.955077
0.957567
0.958984
0.956
0.948658
0.943469
0.941164
0.941303
0.942535
0.945895
0.959724
0.974589
0.980941
0.983789
0.985629
0.985952
0.984837
0.978154
0.968191
0.963498
0.963256
0.965568
0.96812
0.970156
0.975475
0.989979
1.00054
1.00438
1.00668
1.00947
1.01159
1.01075
1.00325
0.995867
0.992254
0.991409
0.99225
0.994223
0.997837
1.00898
1.02177
1.02842
1.0317
1.03436
1.03496
1.03421
1.02963
1.02115
1.01491
1.01281
1.01368
1.01618
1.02545
1.03566
1.04227
1.04743
1.04963
1.05167
1.22383
1.69773
0.891645
0.893062
0.892779
0.890142
0.887075
0.886489
0.887363
0.889655
0.898195
0.908744
0.914268
0.916636
0.918188
0.919152
0.917005
0.908722
0.903487
0.90323
0.904031
0.905579
0.90919
0.918124
0.927121
0.930553
0.931909
0.932582
0.933437
0.934482
0.933552
0.929585
0.927277
0.92705
0.926881
0.926612
0.927425
0.931528
0.942282
0.951399
0.956974
0.9605
0.962523
0.96408
0.963349
0.954507
0.945143
0.942319
0.94262
0.943786
0.946785
0.953807
0.968793
0.980287
0.984748
0.985831
0.984575
0.985257
0.986369
0.981358
0.972967
0.96961
0.969322
0.969249
0.969018
0.970421
0.975356
0.989788
1.00283
1.009
1.0116
1.01343
1.01498
1.01415
1.00706
0.998828
0.994493
0.99374
0.995217
0.997432
1.00143
1.01217
1.02297
1.02877
1.03222
1.03498
1.0361
1.03606
1.03173
1.0227
1.01543
1.01219
1.01211
1.01445
1.02444
1.03594
1.04414
1.04803
1.0557
1.23335
1.70123
0.895991
0.897257
0.89465
0.889176
0.886603
0.886958
0.888171
0.890403
0.89927
0.912311
0.917713
0.920057
0.921399
0.920229
0.916238
0.911723
0.907779
0.907401
0.908387
0.91009
0.911793
0.914677
0.922153
0.928966
0.932093
0.933774
0.935849
0.938146
0.939817
0.93941
0.934635
0.930227
0.927398
0.926195
0.926833
0.928443
0.935242
0.95045
0.96008
0.963936
0.966228
0.96715
0.965681
0.960493
0.951026
0.945922
0.94592
0.948443
0.952552
0.954918
0.958652
0.969616
0.979312
0.983257
0.985571
0.988014
0.989804
0.990722
0.985725
0.976181
0.970261
0.968545
0.968587
0.969407
0.971315
0.975989
0.990722
1.00496
1.01116
1.01357
1.01519
1.01618
1.01563
1.01081
1.00389
0.999623
0.998423
0.998748
0.999969
1.00326
1.01317
1.02376
1.02998
1.03402
1.03718
1.03855
1.03864
1.03387
1.02355
1.01496
1.01087
1.01014
1.01229
1.02369
1.03696
1.04439
1.05675
1.24484
1.70547
0.899938
0.901211
0.8967
0.889279
0.887233
0.887706
0.888819
0.891664
0.901887
0.913467
0.918935
0.920914
0.920247
0.918811
0.918301
0.916506
0.914058
0.912845
0.913235
0.913648
0.91338
0.913135
0.914782
0.922609
0.930992
0.935869
0.939667
0.942776
0.944736
0.945997
0.943759
0.934983
0.92837
0.926714
0.927394
0.928721
0.931906
0.945112
0.959882
0.965273
0.967195
0.966195
0.9647
0.964486
0.961286
0.955015
0.952426
0.952957
0.954384
0.955065
0.95488
0.95752
0.968455
0.981551
0.988194
0.990869
0.992717
0.994137
0.994747
0.988599
0.977444
0.971425
0.970023
0.970849
0.973193
0.975855
0.979385
0.991268
1.00536
1.01196
1.01442
1.01631
1.01843
1.01952
1.01637
1.00899
1.00272
1.00002
0.999801
1.00074
1.0041
1.01472
1.02578
1.03244
1.03655
1.03892
1.04018
1.04009
1.03463
1.02395
1.01493
1.00946
1.00746
1.00972
1.02376
1.03681
1.05444
1.25665
1.70973
0.903177
0.903848
0.897666
0.89121
0.889474
0.890324
0.892546
0.896451
0.902294
0.91073
0.915845
0.917579
0.918045
0.919658
0.921221
0.922496
0.921915
0.918896
0.916551
0.914626
0.912167
0.911501
0.912454
0.91601
0.927092
0.938181
0.944455
0.947546
0.949153
0.950153
0.949247
0.940336
0.930754
0.928584
0.92922
0.930905
0.935062
0.941483
0.95222
0.961026
0.964381
0.965613
0.966526
0.967653
0.969004
0.967819
0.961626
0.956893
0.954517
0.953058
0.952536
0.953724
0.957296
0.970447
0.985173
0.991695
0.993962
0.99459
0.994631
0.994745
0.990414
0.98147
0.976295
0.975405
0.976115
0.976693
0.977789
0.980406
0.990294
1.00453
1.0131
1.01738
1.01977
1.02193
1.02306
1.02064
1.01294
1.00521
1.00141
1.00083
1.00183
1.00523
1.01562
1.02738
1.03458
1.03856
1.04021
1.04108
1.04068
1.03517
1.02454
1.01354
1.00646
1.00414
1.00825
1.02365
1.04724
1.26713
1.71275
0.905672
0.90581
0.90014
0.895318
0.894607
0.895824
0.897826
0.898997
0.900242
0.90362
0.910107
0.915538
0.919318
0.922501
0.92515
0.926924
0.927872
0.926092
0.920033
0.913688
0.910588
0.910668
0.911864
0.91371
0.921624
0.938164
0.946868
0.949961
0.951924
0.952631
0.950614
0.945253
0.936869
0.93274
0.933052
0.935134
0.937971
0.939828
0.942546
0.950585
0.960355
0.966168
0.969496
0.9725
0.97443
0.975577
0.972901
0.96378
0.955997
0.953013
0.953022
0.954488
0.956788
0.960766
0.972495
0.98661
0.992884
0.994706
0.995753
0.997615
0.999143
0.996155
0.987599
0.981374
0.978785
0.977965
0.977961
0.979015
0.981149
0.989692
1.00515
1.01501
1.0194
1.02208
1.02461
1.02634
1.02471
1.01607
1.00696
1.00254
1.00139
1.00165
1.00504
1.01698
1.02988
1.03697
1.04006
1.04121
1.04186
1.04071
1.03449
1.0243
1.01176
1.00308
1.00122
1.00675
1.0349
1.27355
1.71402
0.904884
0.906925
0.905931
0.902775
0.900391
0.90012
0.900097
0.898924
0.897984
0.898853
0.90321
0.912919
0.921414
0.926271
0.928932
0.930416
0.931326
0.930945
0.924107
0.914944
0.912047
0.912279
0.913249
0.915398
0.921126
0.934227
0.94642
0.950851
0.952303
0.950785
0.949319
0.949143
0.946465
0.941011
0.938474
0.938695
0.939377
0.938799
0.938696
0.941062
0.950259
0.963581
0.972055
0.976326
0.978763
0.97988
0.979985
0.974321
0.962871
0.956572
0.955565
0.957149
0.959496
0.960962
0.963031
0.971229
0.98564
0.994137
0.997616
0.999599
1.0016
1.00328
1.00138
0.993584
0.985997
0.981653
0.979737
0.97946
0.980398
0.982213
0.990486
1.00651
1.01706
1.02204
1.02529
1.02788
1.02821
1.02572
1.01686
1.00686
1.00164
1.0009
1.0019
1.00575
1.01865
1.03177
1.03834
1.04047
1.04106
1.04097
1.0392
1.03476
1.02444
1.00936
1.00029
0.996826
1.01644
1.27435
1.71326
0.906172
0.909536
0.911217
0.911147
0.907771
0.903505
0.899595
0.896897
0.89664
0.89758
0.899462
0.907111
0.920508
0.927743
0.930687
0.932532
0.933375
0.932189
0.927386
0.919454
0.915634
0.916027
0.917807
0.921388
0.925029
0.92957
0.938723
0.945976
0.948641
0.949758
0.950884
0.95227
0.95391
0.953308
0.947698
0.942948
0.939963
0.937612
0.937149
0.938304
0.941372
0.953678
0.970053
0.97768
0.980124
0.98027
0.979175
0.978985
0.975286
0.9666
0.961431
0.960516
0.960926
0.960834
0.961423
0.963483
0.970477
0.985289
0.995615
0.999941
1.00215
1.00399
1.00601
1.00612
0.999728
0.98986
0.983237
0.980862
0.980853
0.981784
0.983344
0.993018
1.00984
1.01986
1.02411
1.02642
1.02731
1.02837
1.0275
1.01928
1.00895
1.00339
1.00207
1.00218
1.00554
1.01894
1.03212
1.03802
1.03972
1.04086
1.041
1.0388
1.03535
1.02293
1.00613
0.996164
0.997013
1.26726
1.71044
0.908339
0.913356
0.914797
0.915563
0.914333
0.908119
0.90097
0.89807
0.898158
0.898946
0.900358
0.903837
0.915166
0.926318
0.930239
0.931721
0.931755
0.932224
0.931907
0.928144
0.92356
0.922518
0.923319
0.924712
0.926056
0.92705
0.928338
0.935094
0.944344
0.950266
0.95435
0.957971
0.960064
0.961186
0.958825
0.949845
0.941802
0.938432
0.938004
0.939043
0.941081
0.94564
0.957882
0.971883
0.977929
0.979584
0.980646
0.981691
0.982617
0.979819
0.970935
0.9645
0.96226
0.962161
0.963271
0.964281
0.965245
0.969613
0.983465
0.995731
1.00123
1.00449
1.00755
1.00983
1.00986
1.00279
0.991724
0.985115
0.98302
0.983307
0.984227
0.986317
0.994576
1.00953
1.01926
1.02381
1.02685
1.0293
1.03158
1.0313
1.02279
1.01064
1.00293
1.00068
1.00106
1.0049
1.01931
1.03303
1.03869
1.04029
1.04127
1.03987
1.03825
1.03387
1.01947
1.00071
0.989762
1.25497
1.7071
0.909012
0.915099
0.916656
0.917266
0.916971
0.913653
0.905823
0.901284
0.901285
0.902282
0.903594
0.90488
0.908486
0.918947
0.927422
0.930772
0.932913
0.934464
0.935889
0.936602
0.933869
0.929207
0.926889
0.926024
0.924436
0.923245
0.92369
0.926282
0.935233
0.948468
0.95783
0.962958
0.965326
0.966241
0.966029
0.959463
0.947475
0.940933
0.939723
0.940677
0.943235
0.945624
0.948519
0.95765
0.971753
0.979711
0.982271
0.982615
0.982604
0.983658
0.983386
0.976755
0.969504
0.966498
0.965588
0.964462
0.964201
0.965395
0.969267
0.983398
0.998743
1.00586
1.00864
1.01057
1.01137
1.01016
1.00479
0.995773
0.989009
0.986196
0.985054
0.984914
0.986252
0.994875
1.01122
1.0229
1.0287
1.03207
1.03383
1.03443
1.03344
1.02328
1.00953
1.00185
0.999791
1.00062
1.00579
1.02058
1.0336
1.03822
1.03893
1.03848
1.03748
1.03717
1.03113
1.01249
0.993882
1.24003
1.70467
0.907293
0.91458
0.915712
0.916576
0.917821
0.918488
0.914621
0.907936
0.905434
0.905316
0.905268
0.905554
0.906565
0.910204
0.92116
0.930889
0.93557
0.938564
0.940421
0.941262
0.941246
0.937639
0.931191
0.92591
0.922457
0.921123
0.92187
0.92342
0.927016
0.94095
0.957678
0.964937
0.967357
0.968084
0.967736
0.96562
0.958455
0.948563
0.944199
0.943907
0.945412
0.947144
0.947631
0.948881
0.95452
0.968883
0.978333
0.981481
0.983963
0.986826
0.989142
0.989406
0.982842
0.972806
0.966096
0.964029
0.964668
0.96604
0.967912
0.972425
0.988139
1.00243
1.00739
1.0094
1.01098
1.0118
1.01188
1.00836
0.998962
0.990155
0.986051
0.985254
0.985795
0.987608
0.996466
1.01413
1.02623
1.03136
1.03282
1.03333
1.03393
1.03264
1.02351
1.01087
1.00317
1.00129
1.00186
1.00666
1.02065
1.03189
1.03548
1.03715
1.03707
1.03685
1.03568
1.02363
1.00676
1.22774
1.70376
0.901428
0.912028
0.915803
0.91816
0.919685
0.921021
0.921568
0.916715
0.909456
0.906035
0.905335
0.9058
0.906959
0.908719
0.913635
0.926024
0.936011
0.940514
0.942859
0.944044
0.944399
0.943713
0.938027
0.928895
0.923331
0.922016
0.922629
0.92436
0.928007
0.934313
0.948232
0.961167
0.96564
0.966514
0.965509
0.965577
0.966346
0.963267
0.955367
0.950493
0.949057
0.948561
0.946658
0.945119
0.946202
0.951783
0.967507
0.980757
0.986879
0.989799
0.991942
0.993668
0.993508
0.985299
0.972746
0.967353
0.967635
0.969923
0.972914
0.975853
0.979466
0.989634
1.00034
1.00607
1.00909
1.01138
1.01303
1.01369
1.01202
1.00368
0.99421
0.989361
0.987931
0.988545
0.990378
0.997499
1.01402
1.02594
1.03056
1.03221
1.0334
1.03463
1.03417
1.0257
1.01239
1.00373
1.00173
1.00242
1.00674
1.01901
1.02919
1.03337
1.03528
1.03554
1.03622
1.02997
1.01983
1.2219
1.70435
0.894989
0.9051
0.915552
0.920508
0.922757
0.92398
0.924759
0.923909
0.91617
0.908886
0.906796
0.907283
0.908655
0.910714
0.912716
0.917108
0.928528
0.93797
0.94215
0.944179
0.945469
0.946195
0.945667
0.93778
0.928284
0.9252
0.925809
0.928271
0.931686
0.933984
0.936903
0.947105
0.959155
0.964465
0.966408
0.968448
0.970588
0.971918
0.970113
0.961668
0.953338
0.947596
0.944261
0.943643
0.944927
0.94676
0.952084
0.969864
0.985623
0.991213
0.992829
0.993314
0.992015
0.990217
0.986093
0.980052
0.977359
0.97742
0.977868
0.977349
0.976846
0.977583
0.984964
0.997773
1.00631
1.01063
1.01396
1.017
1.01865
1.01718
1.00854
0.997789
0.991696
0.989306
0.988484
0.989218
0.995886
1.01334
1.02658
1.03181
1.03389
1.03585
1.03737
1.03522
1.02674
1.01357
1.00464
1.00239
1.0028
1.00627
1.01648
1.02599
1.03095
1.0334
1.03474
1.03357
1.02918
1.22265
1.7063
0.892832
0.897348
0.910907
0.920965
0.924606
0.926102
0.926632
0.927135
0.925082
0.917179
0.911911
0.911144
0.911616
0.91227
0.91258
0.913674
0.91732
0.929024
0.940141
0.945245
0.947916
0.949065
0.949541
0.948211
0.939739
0.932276
0.930454
0.931191
0.932897
0.933525
0.933906
0.93597
0.945027
0.959723
0.96846
0.97207
0.974621
0.976147
0.977184
0.97528
0.96367
0.950857
0.94573
0.94529
0.946837
0.949894
0.953496
0.958597
0.971967
0.984619
0.988788
0.989802
0.990847
0.993234
0.996463
0.996517
0.991837
0.986071
0.981107
0.976578
0.973732
0.973507
0.974553
0.983329
1.00041
1.01171
1.01661
1.01991
1.02154
1.02142
1.0201
1.0117
0.999017
0.990726
0.987705
0.987599
0.989052
0.99543
1.01258
1.02693
1.03318
1.03564
1.03656
1.03675
1.03539
1.02939
1.01562
1.00558
1.00282
1.00249
1.00418
1.01304
1.02331
1.02948
1.03263
1.03337
1.03716
1.22849
1.70887
0.891805
0.894021
0.90315
0.917404
0.924496
0.927201
0.929068
0.929991
0.930837
0.928731
0.920961
0.915374
0.91301
0.911306
0.911007
0.912108
0.91374
0.918422
0.933073
0.945525
0.949779
0.951233
0.951894
0.952343
0.951413
0.944383
0.936769
0.933272
0.932768
0.932923
0.9328
0.933919
0.936129
0.945889
0.963306
0.973124
0.976374
0.977445
0.977745
0.976625
0.972836
0.962312
0.953238
0.950947
0.952264
0.954789
0.956692
0.957484
0.958723
0.966891
0.97955
0.987336
0.992764
0.998425
1.00286
1.00555
1.00509
0.998404
0.98661
0.977571
0.974002
0.973701
0.974065
0.976446
0.9879
1.00503
1.01483
1.0191
1.02073
1.02109
1.02141
1.02085
1.01307
1.00059
0.99236
0.98924
0.988429
0.988933
0.994087
1.01096
1.02639
1.03312
1.0365
1.03847
1.03838
1.03693
1.03098
1.01653
1.00555
1.00163
1.00099
1.00166
1.01023
1.02184
1.02931
1.0315
1.04126
1.23664
1.71154
0.89252
0.894302
0.899234
0.909472
0.922124
0.928556
0.931359
0.933126
0.93398
0.934404
0.931089
0.921795
0.914374
0.911791
0.91169
0.912844
0.914467
0.91698
0.923077
0.937392
0.948147
0.952019
0.953717
0.954649