/*--------------------------------*- C++ -*----------------------------------*\
  =========                 |
  \\      /  F ield         | OpenFOAM: The Open Source CFD Toolbox
   \\    /   O peration     | Website:  https://openfoam.org
    \\  /    A nd           | Version:  12
     \\/     M anipulation  |
\*---------------------------------------------------------------------------*/
FoamFile
{
    format      ascii;
    class       volScalarField;
    location    "4";
    object      p;
}
// * * * * * * * * * * * * * * * * * * * * * * * * * * * * * * * * * * * * * //

dimensions      [1 -1 -2 0 0 0 0];

internalField   nonuniform List<scalar> 
22702
(
1
1
0.869967
1
1.0556
1
1.47137
1
1
0.657262
1.47129
1.47153
1
1.47095
0.886477
1
1
1
1.47117
1
1.47192
1
1.47153
0.65705
1.47257
0.657441
1
1.47089
0.65766
0.657752
1
1.4716
1
1
1
1.43552
1.47162
1.47161
1
1
0.65741
1
1.22955
1
1.47021
1
1
1
1
0.658086
1
0.656483
1
1.47119
1
1.47184
1
1
1
1
0.657388
1
1
0.657638
1
0.65772
1
1
1
0.657594
1
1.47192
1.28421
1
1.47186
1.49676
0.658371
1.47152
0.657586
1
1.47157
0.660374
1.47144
1.47147
1
1
1
1
0.931061
0.657395
1.47262
1
1
0.657474
1
1.47222
0.657341
1
1
1
1
1.23003
1.47153
0.657681
1
1
1.11037
1
0.658916
1
1.47139
1.47137
1
1
0.650472
0.650414
0.657343
1
1
1
1
1
0.911879
1
1.4025
1.04249
1.47155
1
1.47167
1.47119
1.471
1.47141
1
0.657494
1
0.657337
1
1
1
1
1.47134
1
1
1
1
1.47181
1
1.02826
1
1
1
1
0.657709
1
1.01089
1
0.657966
1
1
1
1.47149
1
1.47184
0.64776
0.657418
1.47179
1.47175
1
1.07559
1.26502
1
1.47169
0.65774
1.43639
1
1
1
1
1.47113
1.38195
1
1.47171
0.657687
1.47188
1
0.657928
1
0.656737
0.657373
0.999784
1
1
1.47296
1
1
1.47159
1
1.47129
1.4716
0.666268
1
1
0.659285
1.47141
1
1
1
1.47135
1
0.657677
1
1
1.47149
1.47119
1.47136
1
1.00004
1
1
1
1.47174
1
0.657987
1.48851
1.47157
1.47098
1
1
1
0.644606
1.47077
1.22913
1
1.47331
0.657832
0.657828
1.47333
1.47121
1
1.47604
0.649017
1.4148
1
1
1
1
1.4715
1
1.27355
1.04346
1
1
1.4716
0.657201
0.773016
1
1.47171
0.65774
1.47518
1
1
1
1
1
1
1
0.656816
0.767188
0.657825
1.47162
1
1
1
1
1.41889
1
0.657487
1
0.639538
0.659282
1.47147
0.658233
1.47183
1
1
1
0.997569
0.657165
0.649182
0.999999
1
0.636006
1
1.47115
0.657583
1
1
1.47158
0.647373
1
1.46935
0.657338
1.47154
1
0.64457
0.997709
1
1
1
0.656748
1
1
1
1.00001
1.01108
1.28627
1
0.668597
1
1
1
1
1
1
1
1.47162
1
1.4731
1
1
1
0.65805
1
1.47173
0.658092
1
1.38021
1
1
1.47124
1
1
1
1.46118
1
1
1.46652
1.47095
1
1.09773
1
1
0.657217
1
1
1
0.657469
1
1
1
1
0.655807
1
1
1
1
1
0.657471
1.00007
1.47185
1
0.999994
1.47181
1.47177
1
1
0.665286
0.821435
1.47153
1
1
1
1.47136
0.657558
1
1.47187
1
1
0.715469
0.710051
1
0.657663
0.658473
1
1
1
1
1
1
1
1.47158
1.11163
1.44415
0.658746
0.906423
1.47137
1
1.47181
1.47144
0.657551
0.781708
1
0.657737
1
1.48307
1
1
1
1
1.47144
1
1
1
1
1
1
1
1.1699
1.47158
1
1.47152
1
1
0.660914
1
1
1
1
1.47122
1.35618
1
1
0.657852
1.47163
1.47127
1
1.47136
1.47163
1.47133
1
0.837212
1
1.47115
0.986754
1.47137
1
0.657734
0.998823
1.47119
1
1
1
1
0.658411
1.47119
1.42582
1
1.47231
1.47129
1.47141
1
1.20705
1.47199
1
1
1.32302
1.0651
1.4715
0.935394
1.47139
1
1.47126
1.47115
1.47118
1.47162
1
1.46286
0.91275
0.883927
1
0.999999
1
1
1.46898
1
1
1
1
1
1.47109
1
1
0.996139
1.4712
1.41522
1
1.38576
1.00004
1
1
1.47158
1
0.99689
1.00461
1
1.47099
1
1.47093
1
1
1.34654
1
1.47118
1.00002
1
1.47218
1
1.47122
1
1
1
1.47151
1
1.47222
1.00001
1.47143
1.47152
1.4716
1.47153
1
1.47116
1.46633
1
0.657816
1.44156
1.33642
1
1.47148
1
0.657081
0.657297
1
1
1
1
1
0.657303
1
1.47157
1.11356
1.4716
1
1
1
1
1
1.47127
1
1.4732
1.27638
0.782408
1
1.00001
1.13518
1.11694
1
1
1.16258
1
0.657357
1.47144
1.47147
1
1
1
1.47136
1
1.00003
1.47074
1.47107
0.946925
1
1
0.658374
1.42762
1
1
1
1
1
1.47118
1.47118
1
1.4723
1.47203
1.47163
1
1
1
1
0.657523
1.47138
1
1
1.42805
1.47012
1
1.44263
1.47162
1
1
1
1
1
1.47104
1
1
1
1
1.46958
1
1.46718
0.65849
1
0.657485
1
1
1
0.996882
0.65721
0.999037
1
1
1
1.06401
1
1
0.86495
1
1
1
1
1
1
1
0.999997
0.932581
0.999999
1
0.997568
1
0.658923
1
1
1
1
1.34921
1
1
1
1
0.657312
1
1
1.4431
1.47131
1
1
1
0.886485
1
1
1
1
1
1
0.947636
1.01256
1.47188
1
1
1
1.4719
0.89696
1
1
1
1.47153
1.46898
1
1.00001
1
1
1
1
1
1
1
0.657979
1
1
1.47087
0.657642
1
1.46985
1
0.65772
1
1
0.657789
1
1
1
1
1
1
1
1.46203
1.47048
1
1
1
1
1.42908
1
1.14573
0.657844
1
1
1
1
1
1
1
1.03337
1
1
1.24868
1
1
1
1.38853
1
1
1
1
0.658298
1
1
0.644614
0.657709
1
1
1.47119
1
0.987325
1
1
1
1.32559
0.654623
1
0.6447
1
0.780034
1
1
1
1.47239
1
1
1.47167
1
1
1
1.47169
1
1
1.47128
1
1
0.657629
1
1.14538
1
1
1.47148
1.47129
1.31005
1.42079
1
0.657573
1
1
1.44965
1
0.658819
1
1
1
1.47175
1
1
1
1
1.27838
1
1.43673
1.47193
0.657526
1
1
0.658395
0.657594
1
1
1
1.33062
1.35386
1
1
1
1
1
1
1
1.19406
1.47146
1.00894
1
1.46585
0.657508
1
1
1
1.25486
1
1.08838
1
1.42908
1.46918
1
0.657638
1
1.47177
1
1
1.47169
1.44103
1
1.47382
1
0.657737
1
1
1
1.46662
1.46193
1.41242
1
1.47464
1.47171
1
1.47233
1
1.46932
1
0.657649
0.971027
0.657137
1
1
1
1
1
1.47166
1
1.47161
1
1
1
1.44708
1
0.657805
1.47181
1
0.657407
0.671713
0.660698
1
1.22654
1.03484
1.47322
1.47181
1
0.999999
1
1
1.47134
1
1
1.47135
1.47166
1
1.16135
1.00005
1
0.9968
1.47146
0.852786
1
0.825283
0.659583
0.657713
0.939916
1.47164
1.46465
1.09056
1.47162
1.47187
1
1
1.47134
1.47248
1.47136
1.47227
1
1.47155
0.657817
1.47032
1.47133
1.46975
1.47108
0.862566
0.896922
0.930211
1.47134
0.955749
1.47186
1
1
1.47343
1.47161
1
0.657912
1.47198
1.47153
1
1.47161
1.47162
1
1.47154
0.65713
1.47119
1.47155
1.47126
1.47423
1
1
1
1.47127
1.30079
0.673711
1.47156
0.651319
1.47121
1
1
1
1
1.47038
1.4717
1
1
1.47149
0.656861
1.47175
0.658778
1
1.46799
1
0.657405
1.47288
0.741458
1
1.47178
1.47424
1.47141
1
1
1.2266
1.47338
0.657533
1.47141
1
1.47173
0.875342
1.47212
0.65835
1
1.47265
0.679048
1.47346
0.657674
1
1.47168
1
1.47152
1
1.27008
1.45324
1.36799
0.647809
1
1.4714
1
1.47154
1
1.47166
1
1
1.47159
0.979048
1.47444
0.657656
1.41821
1
1.33126
1
1.47179
1.47157
1.47193
1
1.42226
1.47113
1.43519
1.28452
1.47127
1
1.30762
1
1.47139
1
1.06787
1
1.43608
1
1.47171
1.44868
1.44791
1
1.46762
0.657194
1
0.658449
1
1
1
1.47122
1
1.47209
1
1
1
1.47239
1.46002
1.38534
1.47021
1.47156
0.657511
1.47616
1.47137
1
1.40344
1.47152
1.46212
1
1.47157
1.47204
1
1.47829
1.47185
1.47157
1.47276
1
1
1
1.47162
0.650996
1
1.47153
1
1
0.657309
1
1
1.47144
1.4716
1
1.47145
1.47701
1.47176
0.973791
1.47133
1
1.47136
1.47154
1.37399
1
1
1
1.47069
1.47128
1.4717
0.942487
1
1.47843
1.47099
1.471
1
1.47113
1.47119
1.47147
1.47959
1
1.47142
1.472
1.40664
1.47225
1.47846
1
1.47075
1.46599
1.47168
1.47153
1.47231
0.657209
1.47165
1.47211
1
1.47153
1.47166
1.47141
1.47143
1
1.47188
1.47161
1
1.47136
1.39352
1
1
1
1.47143
1.47755
1
1
1.25197
1
1.47128
1
1
1.47171
1.47334
1.4715
1.47187
1
1
1
1.32607
1
1.47179
1
1
1.47132
1.4716
1
1.47151
0.64816
1.47155
1.47055
0.725565
1
0.648237
1.40766
1.47047
1.4725
1.47259
0.657409
1.47099
1.47262
0.657977
0.646295
1
1.47242
1.47157
1
1
1.47178
1
1.47487
1
1.40959
1
1.21431
1.47186
1.47398
1.32367
1.42214
1.47137
1.47253
1.43942
1
0.65743
1.47482
1.47144
1.47757
1.00001
1
1
1.47735
1
1.47172
1.47109
0.754614
1
1.47161
0.99994
1
1.00003
1.00004
1.47152
1.47127
0.998476
1
1
1.4715
1.47361
1.47142
1.47533
1.47069
0.669616
1.4021
1
1.46776
1.47147
1.47152
1.47102
1
1.47153
1.45806
1.47282
1
1.47178
1.47146
0.863095
1.47144
1.47175
1
1.47096
0.842595
1.47137
0.862124
1.47151
1
1.47147
1.47734
1.47151
1.47172
1.47147
1.47025
1.47211
1.46994
1
0.924883
1.47134
1.4714
0.847008
1.47157
0.980237
1.30445
1.47143
1.47179
1.47155
1
1.47441
1.30299
1.47346
0.923472
1.47388
1.47585
1
0.871675
1
1.4653
1
1.31953
1
1.45546
0.874573
1
1.47118
1.47315
1
1.47274
1.4734
1.47837
1.47275
1.47751
1
1.47138
1
1
1
0.894554
1.47149
1.47111
1.47115
1.47155
1.47326
1.47187
1.4696
1.47205
0.896683
1.03062
1
1
1.47756
1.4718
1.47136
1.47127
1.00003
1.23597
1
1.47779
1.4178
1
1
0.743729
1.47163
1
1
0.657992
1.47132
1
1.47137
1.47159
1.47151
1.45274
1.47168
1
0.653224
1.10673
1.47169
1.47156
1
1.47142
1.47143
1.23943
1.01113
1.09848
1
1.47168
1.4712
1
1
0.657516
1
1
1.47154
1.4716
1.47067
1.47136
1.47113
1.46973
1.47181
1.4707
1.47138
1
0.996246
1.47073
1.47164
0.996985
1.47146
1.47149
0.658855
0.657613
1.47016
1.47362
1
1
1.00147
1.47136
1.47068
1.47129
1
1.47148
1
0.856599
1.4784
1.47605
1
1.21203
1.47172
1
1.4702
1
1.47142
1.30312
1.47037
1
1.47225
1.46986
0.657374
1.47182
1
1.47149
1.47153
1
0.659475
1.47292
1.4001
0.99767
1.45464
1.47163
1
0.997403
1.47093
0.997946
1.47168
1
1
1.47049
1
1.4713
1.47142
0.996415
1.37778
1
1.47149
1
1
1
1
1.47126
1
1
1.47128
1
1.4714
1
1.29769
1.46968
1.47128
1
1
0.996696
1
1.47189
1.47155
1.47127
1.47147
1.47164
1.47103
1.47165
1
1.47142
1.47126
1
1.47155
1.47149
1
1.47074
0.924155
1.06017
1.47144
1.47132
1.47169
1
1.47163
1
1.47134
1.47132
1
1.47116
1
1
1
1
1.47171
0.648879
0.997889
1
1.47181
1.47279
1
1.47143
1
1.00555
0.657467
1.47149
0.999592
1
1.47049
0.998385
1.47145
1
0.999774
1
1.47112
1.47341
1.47091
1.47346
0.658619
1.47261
1.47182
1.4718
1.11154
1
1
1.19554
1.47113
0.647416
0.658108
1
1.47131
1.47147
1.47153
1
1
1.4707
1.47146
0.999882
1
1.32998
0.650208
1
1.0818
1.4713
1.47006
0.998265
1.47123
1.47929
1
0.998865
1
1.47014
1.47161
1.18591
1
1.43933
1
1.00178
1.47083
0.657339
1.47095
1.47138
0.996988
0.999911
1.40921
1
0.999692
1
1.47272
1
1.00001
0.647603
1.47167
1.00001
1
1
1
1.47228
1.26159
1
1
0.65829
1.47161
1.26303
1
1
1
1.44907
1.45238
1.4734
1
1
1.47707
1
1.47172
1.47142
1
1
1.47337
1.47134
1.44836
1
1
1.47352
1.47256
1
1
1
1.47267
1
1
1
1.47198
1.47717
1.47423
1
1.47294
1.00003
0.69999
1.47109
1.47104
1
1.4718
1.46293
1.47121
1
1
1.47509
1
1.25631
1.47124
1
0.659164
1
1.47354
1
1
1.47058
1
1
1
1.14807
1.47107
0.681589
1.00001
1.47285
1
1
1.47188
1
1.47544
1
1
1.47146
1.47177
1
1.00005
1
1
1
1
1
1
1.47155
1.47163
1
1.4714
0.657651
1.47696
1
1.47172
1.47912
1.47167
1.4673
1.47392
1
1
1.47223
1
1.28855
1.47648
1.47171
1
1.47423
1.46744
1
1.41913
1
1.47161
1.30195
1.47222
0.99747
1.46404
1.42737
1.47289
1.47212
1.03664
1.47156
1.47511
1
1.47138
1
1.47141
1
1
1
1
0.99651
1.47122
1.47175
1.38499
1
1.47477
1
1
1
0.64964
1
1.45983
1
1.42663
1.46063
1
1
1
1.43357
1.47149
1
1
1.47173
0.656859
1.07494
1
1.47625
1.47131
1.42809
1.45916
1.47136
1
1.47319
1
1
1
1
1.47298
1.47207
1
1.46108
1.05608
1.47165
1.43802
1
1
1.43999
1
1
0.657722
1.32924
1
1
1.47105
1
1.47559
1.42765
1
1.42668
0.657482
1.47135
1.47119
1.47221
1
0.657595
1
1
1
1.4715
1.38673
1
1.47552
1.47157
1
1.4716
1
1
1
1
1.47146
0.999344
1
1.47352
1
1
1.46966
1.47165
1
1.47592
1.08322
1.00002
1
1.47177
1
1.47184
1
1.01392
1.47135
1
1.47134
1
1
1.14441
1.4714
1
1
1
1
1
0.9965
0.656821
0.657234
1.02037
1
1.0216
1
1.02232
1
1.47137
1
1.29253
1
1.47157
1
1
1
1.47151
1
1.37089
1.47224
1
1.24468
1.4722
1
1
1.47127
1.47115
1
1
1.05277
0.647951
1
1.47245
1
1
1
1
1.07678
1.47174
1
1
1
0.657601
1
1.47145
1.47159
1.48089
1
1
1
1
1.23081
1.48049
1
1
1
1.47477
1.4714
1.05247
1
1
1
1.47166
1.47156
1
0.658287
1.47178
1.47169
1.47096
1.47199
1.47018
1
1
1.47683
1.47082
1.47145
0.657821
1.0417
1.47165
1
1
1
1
1
1.47142
0.658284
1
1
1.47135
1.20646
1
1.4769
1
1
1
0.657541
1
1
1.11973
1.47183
1.47192
1
1.46994
1.47513
1
1.07375
1
1.47488
1
1.47175
0.657626
1
1
1
1
1.47164
1.00007
1
1
1
1.45545
1
1
1
1
1.4712
0.65734
1.36593
1.47447
1
1.47108
1
1
1
0.997131
1
1.47157
1
0.809574
1
1
1.00003
1.4719
0.657215
1
1.46989
1
1.47272
1.47162
0.657637
1
1
1.44939
1
1
0.65758
1
1.46787
1
1.44973
0.99932
1.47143
1
1
1
1
1.47162
1
1
1.47154
1
1
1
1
1
1
1
1
1.30382
1
1.14897
1.47094
1
1
1
0.6571
1
1
1
1
1.47037
1.47141
1.05675
1
1
1.47274
1
1
1.47128
1
1.00002
1
1
1
1.00001
1.47185
0.788298
1.47138
1.47348
0.996856
1
1
1
1.27426
1
1
1.47082
1.47115
1
1
1
1
0.657613
1
1
1
1.2935
1
1.47152
1.47519
1
1.47291
1
1
1
1.24948
1
1.47133
1
1.47156
1
1
0.996047
1.47141
1
1
1
1
1
1.47311
1.00002
1
0.657836
1.47481
0.657839
1
1.47156
1
0.995859
1
1.4728
1.47423
1
1.46401
0.885138
1.47148
1.47696
1.00003
1
1
0.657335
1
1
1
1.47144
1.26934
1.4711
1
1
1
1
0.996726
1.47279
1
0.659022
1
1
1
1
1
1
1
1.47879
1.47206
1.46993
1
1
0.996873
1
0.982353
1
1
1
0.657946
0.981897
1
0.651517
0.657419
1
1.4722
1.47145
1
1.47305
1.47141
0.657871
1.30813
1
1
1
0.659201
1.472
1
0.657132
1
1.47232
1.07788
1
1
1
1
1.4717
1.47184
1
1
1.47163
1
1
1.47128
1.47173
1
1.44707
1.47187
1.47158
0.964986
1.47071
1.00877
0.657312
1.35898
1.47104
1
1
1
0.65801
1
0.656875
1.47431
0.961733
1.47131
0.952358
1
1.47154
1.21155
1
1
1.47105
1
1.18842
1.47058
1
1
1.46863
1.47436
0.657338
1.26427
0.999896
1
1.28532
1
1.47641
0.938535
1.48111
1.46976
1
1
1
1
1.45812
1
1
1.47183
0.999644
1.4717
1.37316
1.4723
0.660623
1
1
1
1
1.47171
1.00004
1.47142
1
1.47109
1.47019
1.05747
1.47377
1.14429
1.47195
1
1.3179
0.686869
1.47419
1.47129
1.37766
1.07757
1.47165
1.4715
1.47131
1.47251
1
0.910727
1.06704
1
1.47102
1.21914
1.47173
1.00003
1
1
0.691573
1.47035
1.4715
1.37973
1
1.17472
1
1.47486
1.47514
1
1.47228
1.47147
1
1
1
1.47293
1
1.18039
1.47104
1.32167
1
1.47113
1
1
1
1
1
1
1
1
1
1
0.67819
1
1.43898
0.657077
1.27339
0.998574
1.47115
1
1.24372
1.00001
1.29896
1.40155
1
1.00208
1.47615
0.906138
1
1.4746
1.47019
0.937915
1
1.47158
1.47167
1.47418
1
1.47131
1.47119
1.47422
1
1.20715
1
1.00006
1.47177
1
1.47124
1.06679
1.47258
1
1
1.47039
1.47433
0.688586
1
1.47128
1.35088
1.47057
1
1
1.47167
1.47105
0.998242
1
1.41238
0.996909
1.47137
1.00006
1
1
1
1
1.20696
1
1.36524
1.47159
1.34846
1.47067
1
1.00271
1
1
1.47145
1
1.47464
1
1
1
1
0.999999
1
1.05627
1.24024
1
1
0.657617
1
1.46955
0.681526
1.47552
1
1.22674
0.999753
1.47145
1.29804
0.668061
1.25298
1.00003
1.47189
1.47034
1
1.28149
1.47448
1.47239
0.998396
1.46858
1.45795
0.65344
1
1
0.997823
1
1.46549
1
0.669512
1.47056
1
1
1.41346
1
1.47151
1
1.47207
1
0.692846
1
1
1.47138
1.47008
1.47454
1
1.47322
1.47161
1.4738
1
1
1.46078
0.999999
0.746034
1
1
1
1.47214
1
1.47138
1.30235
1.47295
1
1.47136
0.999383
1
1
1
1
1
1
0.722344
1
1
1.47155
1
1.47593
1.46929
1
0.658089
0.658824
1
1.4731
1.07877
0.658436
0.636192
1
1.47201
1
1.47458
0.658097
1.00134
1
1
0.99952
1
1
1
0.999912
1.18848
1.47133
1
1
1.4728
1.27434
1
1.43662
1.47232
1.47153
1.18894
1.46523
1
1.47169
1
1.46859
1
1.47016
1.47124
0.996865
1.47285
1.47058
1
1
1
1
1
0.922737
1.47186
1.00004
1.00003
0.657751
0.999983
0.658278
0.650885
1
1.47157
1.47107
1.47177
1
1.47173
1
0.660434
1
1
1.47286
0.834449
1.47037
1
1.4718
1
0.982634
1.47135
1
1
1
1.47362
1
1.47156
0.657361
1
1
1.27016
1
1
1.25168
1
1
1.47141
1
1
1
1
1
1.47564
1.47127
1
1.47124
1.47261
0.659457
1.21205
1.47357
1
1
1.42297
0.998948
1
1
1.47138
1.47219
1.30426
1
1.47166
0.665013
1.43639
0.999663
1
1.47072
1.00003
1.47299
1.40302
1.35697
1
1
1.47124
0.721202
0.657588
1
1.47144
1
1.47088
1
1.277
1
1
1.4705
1.29871
0.659645
1
0.99816
1
1
1.0265
1.1893
1.47131
1
1.47566
1
1
1
1
1
1
1.06675
0.658574
1
1
1.03472
1
1
1
1
1
1.47072
1
1
1.47179
1.47122
1.33502
1
1
1
0.844385
1.47294
1.32386
1
1
1
1
1.47131
1
1
1
1.47167
1
1
1.33599
1.48647
1.03441
0.751467
1.47033
1.32906
1.47288
1
1.23128
1
1
1
0.657362
1.00268
0.657909
1
0.658098
0.646389
1
0.660705
1
1
1
1.20404
1
1.47166
1.47083
1.00143
1.22008
1.39425
0.657394
0.764471
0.882057
1
1.47118
1.47193
1.47123
1.47157
1.40213
0.881307
1
1.40471
1
1.45061
1
1
0.996458
1.00928
1
1
1
1.47128
1
0.657423
1
1.47267
0.657823
1
1
1.4715
1
1.47134
0.999729
1
1
1.47245
1.41413
1
1.48693
1
1
1.01493
1
1.2045
1
1
0.659412
1
1
1.47293
0.999998
1.47228
1
1.00003
0.65777
1
1
0.658203
1.00089
1
1.47173
0.658315
1.47104
0.657975
1.47135
1
1
1
1
1
1
1
1
1
1
1
1.45133
1
1.47344
1.47133
0.658209
1
1
1
1
1
1
1.45799
1
1
0.66094
1
1
1.47183
1
1
1.17904
1.39273
0.657826
0.657821
0.7035
0.74009
1
0.996583
0.65823
1.0003
1.43302
0.99687
1
1
1.47137
1
1
1
0.770573
1.00001
1.16987
1
1
1.18912
1.47188
1
0.659493
1
1
1
0.996775
1.00001
1.46999
1.4715
1
0.657962
1
1.25048
0.658157
1
0.883161
1
0.996429
0.646339
1
1
1
0.99596
0.657563
1
0.658822
0.998424
1.24394
1.4191
0.657779
0.657067
1
0.990161
1
0.99865
1
1.47036
1.47189
1
1.01081
1.47162
1.47151
1
1
1.4715
1
1
1.00004
1
1.47235
1
1
1.01845
1
0.998559
0.701492
1
1
1
1
1
1.4738
1.03364
1.00005
1
1
1
1
1
1.00003
1
0.658563
1.09901
0.998604
1.46951
1.46998
1
1.01422
1.47171
1.40344
1
1
0.651987
1.47189
1
1.47152
1
1.47231
1.32156
0.657092
1
0.657829
1.44941
0.999677
1
0.65853
0.654699
1
1
1.39585
1
0.999998
0.651601
1
1
1
1.14765
1
0.65816
1.47225
1
1
1
1
1.47198
1
1
1.46917
1.42057
1
1
1
1.47498
0.650073
1
1.47138
1.47165
1
1.37419
0.999999
1.00003
1
1
1.44827
1.01057
1
0.657731
1.25397
1
1
0.997338
1
1
1.47451
1
1
1.00003
1
1.47151
1
1
1
1
1
1
1.00001
1.20152
1
1.47277
1
1
1.47312
1
1
1
1.47135
1.46996
1.04546
1
0.997609
1
1
1
1
1.47144
1
1
1.47143
0.658374
1
1
1
1
1
1
1.37936
1
1
1.47018
1.47195
1
1
1
1.47139
1.47004
1
0.999712
1.46888
1
1
1
1.00002
0.657638
1.02916
0.996182
0.995806
1
1
0.654383
1.47165
1
0.658163
1
1.47113
1.45152
0.657774
0.999407
1.47124
1.47158
1.47098
1
1
0.925078
1.428
1.39563
0.657967
1
1
1
1.47217
1.47158
0.657781
0.997287
1
1.47136
0.657683
1
1.4591
0.657987
0.974155
1.00661
1
1.47087
1
1
1
1
1
1
1.00011
1.43789
1
1
1.4728
1
1
1
1.47146
1
0.657315
1
1
1
1.1601
1
1
1
1
1
0.787592
1
0.657632
1
1.47166
1.00006
0.862261
0.867785
1.00002
1.00476
1.24327
1
1
0.656896
1.47129
1.47161
1.47154
1
0.651314
0.65436
1
1.47135
1
1
1
1
1
1.00003
1
0.658252
1.29928
1
1
0.657469
0.988571
1.00001
1
1
1
0.646604
1
0.690887
1
1
1.47676
1
1
0.655543
1
1.47151
1
0.657272
1
0.658871
1
1.00825
1.47231
1.48485
1
1
1.4722
1
1
1.09893
0.996777
1
0.99823
1
1.47423
1
0.657746
1.00002
1.47166
0.998916
1
1
0.797788
1
0.999005
0.657826
1.47277
1.16615
1
1.00001
0.905937
1
1
1
0.796712
1
1
1
1.47149
1
0.65771
0.999999
1
1
1
0.652424
1.47143
1.43318
0.659474
1
1.47707
1
1
1.47135
1.47203
1.39456
0.652635
0.997699
0.999227
1
1.47143
1
1
1
1
1.47071
1.00004
1
1
1.47008
1
1
1.47186
0.659398
1
1
1
0.659924
1
0.999999
0.999999
0.998638
1
1
1
1
1.36226
1
1.47183
1.47102
1.4807
1.47165
1.47165
1.47174
1
1.47229
1
1.47137
1.47153
1
0.998841
0.658798
1.40112
0.999913
1
1
1
1
0.999321
1
1.07484
1
1
1
0.846998
1.47186
1.47047
1.47489
1.40731
0.999873
1
1.02333
1.47212
0.99791
1.05972
0.997264
0.658138
1
1.00002
1
1
1
1
1
1.47097
0.656976
1.47119
1.47168
0.995395
0.657137
1
1
1
1.47179
0.657548
1.41409
0.650526
1.47142
1.47481
0.659194
1.47058
1.02342
1
1.47471
0.799351
1
0.998754
0.659306
1
0.658234
1
1.4718
1.47157
0.7478
1
1.4715
0.658001
1
0.659716
1
1.47144
1
1
1.47052
1
0.838879
1
0.999647
0.658063
1.47155
0.999482
1
0.65751
1
1
1
1
1.24726
1
1.47164
1
1
1.4791
1
1
1.47169
1
0.657807
1
0.656602
1.00001
1
1
1
1
1.45066
1.26983
1.47149
1
1.47161
1.4376
0.646726
0.659137
1
1
1.47122
1
0.658135
1
0.986357
1
1
1.47147
1
1.47367
0.657919
1.48031
1
0.657823
1
1
1.47118
1.46975
1
1.00004
1
1.47218
1
1
0.65124
0.999416
0.657748
1
1
1
1.47336
1.47495
1.4716
1
1
0.656036
1
1.47415
1
1
1
1.45427
1.47177
1.47154
0.657264
1.4739
1.47133
0.66661
1.47113
1.00004
0.668792
1.01251
1
1
1.47067
0.657169
1.297
0.657038
1.47138
0.997315
0.65681
1.47384
1
1
1
1
1.47156
1.4717
0.659207
1
1.00002
0.65828
1.00004
1
0.660559
0.657588
1.32428
1.47169
0.998468
1.47153
1
1.47678
0.820777
0.657424
1.47159
1.48379
1
1.47165
1
1
1.47148
1
1.35274
1.47127
1
1
1
1
1.47142
1.46583
1.47005
1
1
1.47147
1.47164
1.47144
1
1.4715
1
1
1
1
1
0.657773
0.847485
0.657712
1
1
1.47163
1
1
1.47209
0.649347
1
1.47153
1.46605
1.45009
0.645097
1
0.657275
1
1.00003
1.47155
1.21522
1.47105
1.42978
1
0.658577
1
1.46971
1.33348
0.657512
1
1
1
0.802976
1
1
1.47784
1
0.657722
1.47142
1
1
1
1
1
1.3779
1.09911
1
1.47088
1
1.47243
1
0.997184
1
1.47193
1.47057
1.47047
1.47586
0.999578
1.47099
1
1.47123
1.47049
1.39749
1
1
0.657603
1.47151
1
1
1.47344
1.47157
1.47339
1
1.47155
1
1
1.00003
1.46961
1.47287
1.12902
1.09602
1.47123
1.47214
0.69519
1
1
1
1
1.00001
1.16184
1
1
1.39705
0.658161
0.999967
1
1.47142
0.999893
0.99981
1.07073
1.43741
1.4715
0.908721
1
0.657256
1
0.999802
1.47192
1.4745
1.46927
0.999003
1
1
0.656741
1
1
1.4719
1.04956
1
1
1
1
1
1
1
0.999937
1.47227
1.00002
1
1
1
1
1.29883
1
1.21631
1
1
1.47146
1.47644
0.658276
0.998762
1
1
1
0.659613
1.47111
1.47141
1
1
1
1
1
1
1
1
1.47146
1.46769
0.658027
1.0505
0.658108
1
0.652283
1
1.47106
1.12759
1
1
0.71434
1
1.45067
0.8104
0.996578
0.658151
1
1
1.46997
1.00004
0.997196
0.64127
1.4729
1.47614
1
1
1
1
1.43954
1
1
1.47156
0.998943
1.47161
1.00005
1
1
0.659325
1
1
1.47145
0.655408
0.780529
0.657825
1.47161
0.999306
1
1.47402
0.658685
0.658457
1.01292
1
1
1.47151
1.00004
1.2116
1
1
1.47148
0.658874
1
1
1.00014
1.47179
1.00013
1.46774
1
1.00003
1
1
0.725433
1
0.782528
1.00002
1
1.47293
0.659403
1
0.782622
0.805146
1
1
1.47177
1
1
1
1.47168
1.47106
1.00005
1.45476
1.47131
0.787339
1.47139
1.45081
1
1
1.4705
0.999999
1
1
1
1
1.48013
1.47133
1
1
1
1.47153
1.00021
1
0.657982
0.72059
1
1.00003
1.17402
1
1
0.898273
0.657721
1
1
1
1.47605
1.43101
1.47165
1
1
1
1
0.657353
1
1.45892
1
1.46653
0.658414
1.47682
1
1
1
0.658058
1
1.47156
1.00003
1
0.657732
1.16824
1
0.999664
1.4768
0.649729
0.657856
1
1.4725
0.64734
0.658347
1
0.659317
1
1
1
1
0.656899
1
1
1
1
1.47027
1
1.35803
0.657526
1
1
1
0.657978
1.47139
1
1
0.996775
1.46631
1
1.47104
1.47128
1
1
0.724178
0.657804
1
1
0.658054
1.14434
1.21822
1
1
1.47395
0.997353
1
0.99782
1.47212
1
1
1
1
1
1
1.47138
1
1.16251
1.14889
0.690477
1.41567
1
1.47162
1.47097
1
1
1
0.912929
0.657564
1
1.22245
0.999654
1.40753
1
1
1
0.999999
1
1.00788
1.20781
1.47264
1.47068
1
1.47186
1
0.657496
1
0.997569
0.999776
1
0.656769
1
0.657934
1.00002
1.47498
1.47108
0.657214
1.47723
0.659053
0.99624
1.36349
0.660025
1.34273
1
1
0.998428
1
1
1
1.00006
1
0.658592
1
1
1
1
0.999592
1.47161
0.809479
1
1
1
1.03665
1
1
1
1.2742
0.756429
1
1
1
1.04411
1.47142
1
0.656834
1
1.47335
0.893941
0.657787
1
0.656374
1
1
1.44506
0.998238
1.43558
1
1.00889
1
1
1.47164
1
1
1
1
1.09389
1
1.47157
1.47326
1.47159
0.657232
1.47191
0.997109
1.38217
1
1
0.647865
1
1
0.65811
1.47348
1
1
0.999959
1
1
1
0.641415
0.657417
1
1.47186
1
1.21573
1.47134
0.660732
1.39026
1
1
0.671568
1
1
1.47154
1.47169
1.16881
1
1
1.0017
1.47192
0.657561
0.657927
1.47203
1.47145
1.32357
1.18188
1
0.897973
1
1
1
1.43744
1.47192
1.47121
1
1
1.47133
0.657796
1.42185
0.634528
1
0.658616
1
0.659934
1.4716
0.642852
1
0.98312
0.682697
1
1
1
0.845183
1.42883
1.47178
1.47175
1.47191
1
1
1.47131
1
1
1.47141
1
0.656944
1
0.657951
1
1.4713
1
1
1.0241
1.35715
1
0.998812
0.657321
1.47173
1.00001
0.657096
1.08643
1
1
1.35879
1.47194
1.47123
1
1.47141
1.12273
1
1.02354
1.47147
1
1
1
1
1.47122
1
0.655106
1.47199
0.660636
0.658044
0.829342
1.47131
1.16161
1.47181
1
1.47187
0.997453
1.00003
1.47128
1.47283
1
1.47197
1
1.4715
1
1.47158
1
1.00004
0.999957
1.47073
0.653903
0.657916
0.997847
0.999999
1
1
0.657571
1
1.30737
1
0.648969
1
1.18185
1.47095
1.47608
1
1
1.00003
0.999449
1
1.47102
1.47105
1
1.19179
1.4721
0.849021
1.47107
1.00053
0.653935
1.09932
0.657338
1
1
1.07677
1.47139
1
1
1.03899
0.99854
1
0.658388
1
0.785395
1
1.46996
1
1
0.657762
1.10495
1.06612
0.998499
1.47191
1.47138
0.769097
0.998068
0.65768
0.657074
0.659095
1
1
1
0.999054
0.727944
0.656562
1
1.47153
0.999741
1.4715
1.47147
1.47096
1.47167
1
0.660034
1.47174
0.661675
1
1.47176
1.47176
0.996588
0.814172
1.47222
1.34554
1
0.659103
1
1
1.47874
1
1.02643
1.47172
1
0.658219
0.657445
1
1
0.645545
0.648156
1.47162
1.00004
1
0.649128
0.648246
1.47482
1.45821
1.43904
1.47106
1.12395
0.983176
1.18778
1.46886
1.37193
1
1.23924
1
0.649121
0.863756
1
0.657519
1.47169
1.02233
1.47299
1
1.47141
1.47176
1
1.4718
1.47158
0.656716
1.47507
1
1.47485
1
0.742848
0.657019
1.47179
1
1
1
0.657508
1.47185
1.47263
1
0.657265
1
1
0.658069
1.00004
0.640292
1.47113
1
0.823397
0.649876
1
1
1.26992
1
1
1
1.07767
0.657339
1
1.00001
1
1.47435
0.658541
1
1.47132
0.65808
0.65685
1
1
1.47177
1
1.47037
1.00001
1.47137
0.660232
1
1
0.657852
0.810262
0.657813
1
1
1
1
1.47485
0.653268
1
0.658172
1
1.47459
1
1
0.929115
1
1
0.821051
0.999689
1.00005
1
0.659822
0.657018
1
1
1
1
0.796514
1.46973
1.47114
1
0.658194
0.657456
0.904161
0.657004
1
0.822411
1
0.658797
0.983651
1
1
0.657711
1
1.47091
1.45676
0.656986
1
1
1
1.47621
1
1.04163
0.834731
1.14337
0.658533
1.18929
0.65709
1
1
0.718655
0.913178
1
1.0425
1
1
0.657543
1
0.93889
1.04754
0.658679
1
1.38581
0.757283
0.876024
1
1
1
0.657895
1
0.657766
0.657723
1
0.855748
0.657615
1.07124
0.744316
0.647947
1.4714
1
1.47148
1.25239
0.729605
1.47151
0.65864
0.999003
1.47186
0.999999
1
1.47217
1
0.724599
1
1.06995
1
1
1.47152
1
0.77237
0.82023
1.47155
0.939359
1
0.754757
1.4713
1.47113
0.910546
1
1.47143
1.11828
0.851166
1
1.01773
1
0.657397
1.19846
0.77015
0.74199
1
1
0.656728
1.47182
0.962416
0.659058
0.65134
0.862818
1
1.01812
1.4723
1.47144
1
1
0.999999
0.657759
1.21714
0.999992
1.47227
1.43194
0.656972
1.00001
1.09135
0.872686
1.28303
1.41416
1
1.04251
1
1.00005
0.647802
0.848541
1
1
0.818449
0.648493
1.03862
1
1.00002
0.65078
1.21092
1
1.46166
1
1.0352
1.2516
1
1.46164
1
1
1.47202
1
0.646343
1.47177
0.698681
1.12375
1
0.65679
0.999915
1
1.00003
1
0.796322
1.02646
0.657579
1.33736
1.47134
0.638795
1
1
1
1
1
0.964285
0.657038
1.04423
0.659514
0.657065
1.07141
1
0.999804
1.11289
1
1
0.660692
0.992536
1
1
1.13044
1
1.47136
1
1.47171
1.09037
1.01579
0.65845
1
1
0.657125
1
1
1
1
1.47203
1.04302
0.998072
1
0.645527
1.05174
0.999999
1
1.30659
1
0.657417
1.47029
1
1.00001
1
1.47117
0.65775
0.872027
0.649761
1.35361
1.47611
1
1
1.4713
1
0.647743
1
1
1
1
1
0.769736
1
1.47121
1
1
1.15732
1.47165
0.661896
0.873244
1
1.47129
1
1
1
1
1
1.47146
1.47143
0.648435
1.4713
0.641686
1
1
1.47138
1
1.47254
0.999954
1.02874
1.06731
1.47136
1.07161
1.31828
0.646063
1
0.647633
0.988306
1
1.47145
1
1
0.648931
1.4709
1
1.47129
1
1
1
1
1
1.00001
0.657918
1.47138
0.849311
1.47167
1
0.659667
0.657265
0.721786
1.46689
1.47216
0.970618
1
0.798767
1
1.18052
1
1.47185
0.643882
0.658238
0.848731
1
1.4716
1
1.06954
0.674588
1
1.4713
1.40774
0.99888
1
1.47132
0.658175
1.47465
1.4716
1.47301
0.658209
1.08923
1
1
0.642024
1
0.805164
0.824194
1
1.00002
1.47121
1
1.47423
1.08298
1
1.04023
1.47882
1
0.658469
1
0.766143
1
1
1.38576
1
0.800593
1
0.658885
1.03692
0.948075
0.649281
1.47143
1.37793
1.47143
0.657908
0.693709
0.995909
0.999999
1
0.690023
1.44399
0.657408
0.999966
1
1.47165
1.47115
0.904313
1
0.657717
0.713762
1.30997
0.980365
0.642503
0.999999
0.657938
1.11395
0.657472
1
1.00006
0.811479
1.47122
1.4718
0.838057
0.999596
1
1
0.723181
1
0.653164
1
0.654004
0.657006
1
1
1.00003
0.657779
1.47148
1
1
1.00007
1.00004
0.65785
1.47169
1.47185
0.999999
0.659039
1.47121
1
1.09177
1
1
1.47365
0.651508
1
1
0.657716
0.748164
0.65937
0.658206
1
0.702671
0.997125
1.09404
0.649531
1
1
1.12957
1
1.41562
1
1
1.32049
0.683347
1
0.656963
1.12828
1.47159
1
1
0.658962
0.65902
0.642919
0.735267
0.659046
1.35095
0.999408
1
1
1
1
1.47108
0.658231
1
0.934937
0.999681
0.998552
0.999935
0.762353
1.12874
1
1.47151
1.47136
1
1
1.45119
1.00004
0.999999
1.47132
0.657952
1.47177
0.999999
0.642512
1.4711
1.00005
1
0.825824
1
0.648633
1
1.47183
1
1
1.47508
1
1
1.4722
1
1
1
1.47124
1
0.744812
0.721105
1
0.634312
1.47213
1
1
0.976
1
1.47472
1.26814
1.37517
1
1
0.663422
1
0.658974
1.4714
1.47129
1.47237
1
1.47124
0.657631
1
0.660081
1.37699
1.43189
1.47208
1.47164
0.759236
0.648721
1
1.30346
1.47111
1.4717
1.47142
0.744507
1.16806
1
1.35404
0.754817
1
1.00002
1
1.00002
0.891848
1
1.47577
1
1
1
1
1
1
1.00006
1.46888
1
1.47559
1.34665
0.657951
1.47121
1.03102
1.22835
1
1.4712
1
0.65595
1
1
1
1
1.40022
1
0.643977
1.47109
0.638104
1.47134
1.37496
1.24088
1
1.08777
1.21639
0.995721
0.658169
0.775641
1.00002
0.999999
0.917836
1
0.651248
1.47112
0.648807
0.926531
0.856907
1
1
1
1.01494
1
1
0.658392
0.996556
1.47186
1
1.47164
1
0.654322
1
1
1.47147
1.47171
0.644894
1
1.4717
1
0.810951
0.651312
1.47168
1.42146
1
1.07634
1.47126
0.998667
1
1.19139
1.41204
1.47042
0.995701
1
0.999998
1.39827
1
1
1
1.47149
0.998501
1
1
1.4714
1
1
0.659736
1
1
1
1.47182
1
1
0.856348
1.1442
1.42719
0.770882
1
1.47139
1
1.16321
1
1.4719
0.997258
1.47194
1
0.658211
1
1.3118
1
1
1.4389
1.00002
1.4716
1
1.4732
0.697415
0.659547
1.4721
1
1.40064
1
1.47156
1
1
1.00005
1.47044
1.4706
1.11885
1.47178
0.995648
0.657569
1.47122
0.865346
1
1.46945
1
1.4716
1
1.47372
1.47149
0.996222
0.653937
1
1.47132
1
1.0325
1
1
0.997952
0.746967
1.41895
1
1.43041
1
0.87431
0.645655
1.47195
1.47181
0.69394
1
1.47193
1.47175
1.47189
0.684949
1.47104
0.67312
1.47182
1.47715
1
1
1.47162
1
1
1
1
0.656674
1
1
1.47161
1.4714
1
1.47166
1
1.47177
1.47136
1
1.39042
1
0.636436
1.47117
1.35368
1.13404
0.638687
1.47149
1
1
0.651753
1
1
1.47123
1
1
0.785165
1
1.47133
1.00008
1.47213
0.645823
1.47161
1
1.47128
1.45285
0.892676
1
1.4704
0.75723
1.47362
1.32977
1.47161
1.47257
0.997205
1.47124
1.47161
1.47192
1.47147
1.00073
1
0.657432
1
1.47174
0.830971
1.42893
1
1.4627
1
1
1
1
1
1.46883
0.646208
0.658149
1.47156
1.4714
1
1
1
1
1
1.46784
1.4266
1.47193
1.01709
1
1
1
1.00003
1.47026
1.47128
1
1.47173
1.47131
0.658162
1.3261
1
1.47151
1.47558
1.46819
0.998039
1.47197
1.47184
1
1.42834
1
1
1
1
1
1
1.47133
1.47147
1.43807
1.47185
0.649361
0.705248
1.4716
1.47197
1
0.656554
0.939628
1
1.22137
0.649666
1
0.999461
0.998262
0.657515
1
1.47132
1
1
1
1.47188
0.939325
1
1.47147
1.47151
1
1.47128
1
1
1.47151
1
0.657437
1
1.47262
1
1
0.656851
1
1.47212
1
0.636869
0.652155
1
1.46797
1
0.637257
0.88298
1
1.47169
1
1
1
1.47567
1
0.658073
1.06622
1.4712
1.4732
1.4712
1.0454
1.47335
1.47148
1
1.00002
1
1
1.00001
1.47124
1
0.999298
1.47281
1
0.640595
1
1.47142
1.21518
1.05393
1.21465
1.06545
1.47364
0.71188
1.47139
1
0.660626
0.99715
1.47175
0.933558
1.47182
1.47173
1.45239
1
1.4712
1.47124
1.47137
1
1.00004
1
1
1.47157
1.33122
1
1
0.659445
0.996616
1
1.4715
1
1.47159
1.47109
1.47048
0.902926
1.4717
1.47149
1.00093
1.22676
1.47153
1.47165
1
1.43393
0.828366
1.4462
0.988291
1.47149
1
1.47143
1.47133
1
0.657158
0.930422
0.701659
1
1.08076
0.996795
1.47192
1
1
0.996677
1
1.22582
1.44301
1
1
1.47164
1
1
1.33223
1.47147
1.45208
1.47249
1.47155
1
1.47071
0.735765
1.471
1
0.992333
0.658121
1
1
0.752568
1
1.14486
1
1.47331
1
1.46243
1.29352
0.657747
1
1
1
1
1
1.47105
1.01162
1
1.47145