/*--------------------------------*- C++ -*----------------------------------*\
  =========                 |
  \\      /  F ield         | OpenFOAM: The Open Source CFD Toolbox
   \\    /   O peration     | Website:  https://openfoam.org
    \\  /    A nd           | Version:  12
     \\/     M anipulation  |
\*---------------------------------------------------------------------------*/
FoamFile
{
    format      ascii;
    class       volScalarField;
    location    "4";
    object      p;
}
// * * * * * * * * * * * * * * * * * * * * * * * * * * * * * * * * * * * * * //

dimensions      [1 -1 -2 0 0 0 0];

internalField   nonuniform List<scalar> 
45568
(
2.38617
1.22006
2.61422
1.58612
0.841937
1.20951
1.67653
1
0.632723
1.72368
0.620156
2.5221
1.86936
1
0.641113
0.329786
1
1
0.996431
1.6768
1
2.6173
1.65611
1
1
1.21499
1
1
0.33762
1.71879
0.908382
1
1.00013
1.6314
0.933579
1.71862
0.848812
1
1.70743
1
1
0.325657
1
2.53389
1
3.54522
0.324732
2.98293
0.920949
1
2.5206
2.07484
1
1.67564
1.96455
2.60418
2.60546
2.20262
1.82836
0.956336
1
1.8322
1
1
2.21024
1.11452
1
1.00454
1.68588
3.08877
0.717486
0.509538
2.52355
1.72872
2.63031
1
1
1.28354
0.951789
1
1.90761
1.49638
0.49888
2.48143
1.9567
1.00003
2.34401
1.24736
1.67695
0.625405
1.61018
1
1.87591
3.02224
1
1
3.06862
1.86798
1.00692
1.72584
0.778561
1.98647
2.56847
1
1
1
1
2.61726
1
3.00036
1
0.664574
0.932021
1
3.02741
1
1
2.60509
2.28074
1.72778
1
1.80229
2.60241
2.60479
1
1.80671
2.68787
2.14037
2.95944
1
2.45422
2.73434
2.7589
1
0.328246
1
1
1
1.97243
1.99492
1
1.55378
1.71114
1
0.324551
1
1
1
1
1
1.34788
1
0.393636
1.01846
0.381731
1
1
0.999522
0.317126
2.21722
0.311894
1
2.21476
0.328304
0.626359
0.64277
1.71662
1
2.24845
1
0.329962
1
1.26946
1
2.27331
0.318466
0.314899
2.12927
2.35932
2.56248
2.28213
1.68105
0.328649
0.327909
1.26872
1.68894
1
1.03014
1.64891
0.331779
0.332725
1.68166
1.6438
1.25994
1.83787
0.774787
0.330214
0.935016
0.613815
0.331054
1.10984
1.53843
2.61337
3.99783
3.58988
2.11253
1.67532
1.54224
0.928103
2.41125
0.994072
1
2.07442
1
2.61967
0.327217
0.326627
1
1.70447
2.62062
1.87954
0.936793
1.87833
1.34896
2.34226
1.95771
0.325483
0.325117
1
1.61909
0.598782
1.7063
0.411276
2.42875
1.65966
0.514195
0.652084
1.22842
1
2.34099
0.296132
1.23473
2.27557
1.00003
1.23727
1.14568
2.61314
1.25017
1.17752
1.14843
1
1.12332
1.18666
2.7149
0.326002
1.10277
0.326047
0.324477
0.325598
1.12221
1
1.11198
1.34229
1
2.50235
1.10926
1.30416
1.50991
2.19418
0.325863
1.23364
0.325342
1
2.33555
4.02762
1.43673
1
1.4261
1
1
1
4.37979
1
0.625491
2.66153
1.70508
1.14926
1.07396
1.69394
1.15613
1.0717
2.6502
2.46782
1.71418
1
1
2.38795
1.75396
1.63701
0.92548
1.2657
0.995975
1
2.61489
1.67866
0.906534
1.14178
2.7195
1
1.58902
2.60127
1
1.95693
0.635203
0.647715
1.91886
1.84301
1.20643
0.440616
2.08326
2.61596
1.25164
2.61356
1
1
1.68528
1.65307
1.68428
1.71731
1
1
2.17525
0.409984
1.4917
1
2.96091
4.38738
1.66942
2.34955
2.60282
4.33961
2.12366
2.6104
1.40871
1
1
1
0.796088
1
0.999988
1.93473
1.76832
1
0.570745
1.67322
1.87521
1.00363
1
1.9163
1.91106
4.10667
0.606064
1.57965
0.950457
0.945087
1.96649
1
1.86847
0.938245
2.56081
2.47957
2.1978
0.927967
1
1.56651
1.09969
1
2.0247
1.86509
0.689183
1.87999
1.84977
1
2.54244
0.312289
1
1.62569
1.04216
1
1.27765
1.76487
1
0.757939
1
0.334912
1
2.75021
1
1
1.24124
1
1
1.9215
1
1
2.32298
1
1
1.68474
1
1
1
2.33707
1
0.640746
1.6774
1
1.85453
1.72177
2.70202
1.75128
1
1
1
0.63077
1
2.49893
2.42209
1.12316
1
3.08279
1
1.00001
1
1
1.10979
0.947329
1
1
2.07257
0.323292
2.10645
1
1.72346
1.24859
1.66803
1
1
2.79999
1.91106
1.10455
1.51873
0.99999
0.684595
1.2684
1
0.961487
2.70468
1.72248
1.72647
1
1
1.93768
1
1
0.784958
1.96352
0.550098
0.348773
0.33938
0.98306
1.35672
1
0.570805
1
2.5844
2.10449
2.41622
2.57386
1.66676
2.07472
0.784389
1.01411
1.05407
1
2.0537
1.86524
1
1.89089
2.33907
1
1
1.00578
1
0.315199
1.3814
0.310192
1
1.75708
1.75058
1
1.60302
2.07508
1
1
1.67859
2.02626
2.23752
1.64353
1
1.69121
0.961961
1.84821
1
0.619039
1
1
0.33648
1
1
1
1
2.09235
1.51708
0.552818
1
1
0.68111
1.26313
1
1
2.60205
1.50964
2.61756
1.63311
1
1.36154
0.326977
1
1.26768
1
2.07631
1
1.61783
3.01632
1
1
0.651638
1.18814
1
1
1
0.331825
0.332436
1
4.14016
1
1
0.964958
1
1.96738
0.323393
0.958982
1.54407
1.55808
1
1
1.64303
1
1
1
0.7129
0.832028
1
1.63219
0.995074
0.596406
2.71135
1
0.324773
0.826481
1.76373
0.504748
1.1681
2.13142
1.63773
2.87369
1.08456
0.659357
0.937322
0.951821
1
3.14958
1.09888
1
2.54753
0.921304
1.75727
1.68282
2.07618
0.329115
0.554223
1
1
3.57835
0.325241
0.324373
2.51287
1.60878
2.42695
1
1.47079
1
0.623635
1.65259
1.04084
2.35737
1.06062
1.29192
1
1.61454
1
3.52601
2.05835
1.67612
2.78227
0.32596
1
1.27273
1.85865
1
1.8979
1.10976
1.63365
0.629196
2.61855
2.29563
1.72557
1
1.84953
4.34025
1.15082
1.60051
0.327947
1
3.76031
1
2.61588
1
1
0.740126
2.29884
2.4825
1
1.16106
1.10898
4.20433
1.87044
1.37395
1.73134
0.564083
0.9764
1.6766
1.66357
1.61155
4.20642
1.98399
1.03653
1.02295
0.940562
1
0.920242
0.719054
2.4907
1.36976
2.57876
0.668203
1
3.78414
1
1.6417
1.69961
1.89373
1.18744
4.50636
1.26008
1
1
2.79425
1.32982
0.325025
1.81779
1.15568
1
2.35767
0.324579
1.24391
2.08983
1.04273
1.10062
2.51575
1
1
1
1.63086
1
1.7125
1
1
1
1.00002
1.15025
1.44919
1.09692
1
1
0.871886
1.44636
4.56741
0.688649
1.85566
1.51831
1.23055
2.35421
2.31997
2.82747
1.86212
0.903032
2.07689
1
1
1.7836
1.18025
1.70636
1.35854
1.06721
1.87072
1.53595
2.3559
1.91108
1.74853
1.20105
2.07931
1.79192
1.01259
1
0.942861
1.25611
2.30333
1.24699
0.840689
2.61293
1.03514
1.90492
1
2.62119
1.86645
1
0.956287
1.08278
1
1.67126
1.21036
2.906
1.10689
1
1
1.16011
0.553034
1.77475
1.04507
1.20611
1.53044
1.88281
2.60568
1.94073
0.743498
0.608998
0.857932
1.85329
1.20799
0.832505
1.22662
1.65225
1.70146
1.61733
1.79773
3.18988
2.73535
1.77542
1.19256
3.35887
1.23627
0.987071
1.79766
2.25915
1.8832
1.77076
1.68953
1.23737
2.5934
2.60601
0.472622
2.07569
0.490625
2.51688
2.24863
1.49909
2.08067
0.948291
0.619797
1.22159
1.37448
1.93611
1
0.66819
1
1.15311
1.46038
1.87291
1
1.31245
1
4.06748
1.6123
2.60628
2.48045
2.66724
1.25393
1.20934
2.96815
1.44341
2.61632
3.38471
1
0.955964
1
2.65782
1
1
2.28213
1.36306
1.75356
2.24531
0.89013
1.59544
1.45606
0.937788
2.04748
2.25522
2.10166
1
1.86828
2.11941
1.17478
0.773857
0.780218
1
0.318065
1.69241
0.324703
2.67625
1.24589
1
1.14551
1.23416
2.25077
2.07662
1
1.14991
1.06969
1.10057
1.35212
1.88154
1.12685
0.942955
2.06578
1.97186
1.88549
1.82276
1.7237
1.96234
1.93556
1.11998
2.08497
1.18199
2.07113
2.08218
1
1
3.12124
1
1.87393
2.96527
0.891033
1.13008
0.311053
1.24885
1.61506
0.315084
1.48519
1.81717
1.05696
2.75882
4.09165
1.14558
1.04541
1.05334
1
0.798029
1.62009
1.04669
2.05051
1.5249
1.57026
1.03821
1
1.03773
1.86893
1.45032
1.7285
0.935922
0.999454
0.791341
1
1.00622
0.990023
1.77061
0.709597
1.11043
0.321623
0.322183
0.848041
1.12784
1.95916
0.768641
0.997154
1.22488
1.78256
0.847886
2.44243
1
1.18539
0.78823
0.326791
1.23055
1.14502
1.83155
1
1
1.32443
1
1.71581
1.70657
1.18488
0.331076
0.330859
4.43848
2.63099
1
0.574844
1.92346
1.75558
0.787658
1.1424
1.07467
1
1.90369
0.980127
1.60273
0.955906
1
0.972487
0.979882
0.315927
0.962258
1.82294
1
1.29302
0.999997
1
1
0.992974
2.75212
1.24317
1
1
1.37632
1.03285
1.01394
1.91132
1.90579
1.6976
1.10208
1.10828
0.33158
1
1
1.9143
1.28525
0.332068
0.33131
1.10179
1.77922
0.991479
1.64851
0.940142
1
1
1.70914
1
0.325632
1.26856
1
0.774392
1.63537
1
1.58161
1.3869
1.36434
1.55984
0.812136
1
3.791
0.32553
1.98758
0.780732
2.0588
1
0.761315
1
1
0.776187
0.780593
3.31749
2.06404
1.78153
1
1.29906
1.30291
1.27722
0.99473
0.328898
0.315782
1.68667
1.07145
0.328895
1.83729
0.888675
1.81293
0.315149
1.09848
1.14763
1
1.75713
1.80022
1.23778
1.29857
1.7628
1.27472
1.2614
0.325689
2.16205
1.19178
0.713049
1.87946
0.955992
1.22224
1.3104
0.679036
0.325927
1.59803
1.89113
1
1
1.56703
1.73899
3.06269
1
1.63732
1.21758
2.07704
2.41473
1.70156
3.15628
1
1.16936
0.862203
0.992613
1.74044
1
0.941644
1.08816
0.841424
1.69774
1.49522
1
3.06168
0.803214
3.04872
2.61306
1.02463
1.61075
0.525533
0.99826
0.922084
1
0.999985
1.67352
1.28255
0.962138
1.15373
2.21818
1.39659
1.14162
1.75231
2.1692
1.2385
1
1.60005
2.07026
1.0651
1.23187
1.22623
0.951178
1.17113
0.814982
1
2.2007
0.594139
2.09246
1
1.27403
0.326164
3.16851
2.07742
1.53407
1.83693
1.03804
1.63797
1.81048
1.02751
1.86768
1.19494
1.25856
1
1
1.07735
1.98807
1
2.44993
2.52578
0.996466
0.949907
1
1.88932
0.995544
0.9456
1.74416
1.37507
1
1.15253
1
2.60809
1
0.801193
1.25567
1.55945
1.9629
1.25403
0.888981
1
0.784589
0.979374
0.324853
2.60362
1.36883
1.98088
3.56352
1.97876
1
2.0163
0.325618
2.02116
1.75165
1.39893
2.60728
2.2232
2.02699
2.04783
0.324711
0.788033
1
1.50051
1.39723
2.12358
1.49317
3.17032
2.11159
0.999915
1.24111
1.28109
1.01375
1.07268
1.41151
1
1.1979
1.18409
1.17704
0.957761
2.80375
1
2.76048
1
1
2.70897
1.5758
0.675994
1.22532
1.22042
1
1
1.6976
1.6528
1.23686
0.996164
1.89662
0.94823
0.972268
1.05044
0.604053
1.8505
1.07019
1.02174
1
0.862318
1.67295
2.10723
0.619722
0.325456
1.77224
0.766528
0.325135
1
1.13904
2.02491
0.961318
1.69155
1.86811
1
1.85841
1
1.70331
1.88052
1.28853
1.58317
1
0.890794
1.28522
0.922987
2.61431
1.11329
0.570063
1.72224
1.92251
2.61801
1
1.30933
1.3187
1.36457
1.35744
1.39541
1.38982
1.09874
0.631306
1
1.43164
1
1.42523
1.77317
1.59061
1.78805
1.622
0.346936
2.08518
1.58767
1.61641
1.46397
1.4572
2.61516
1.61246
1.13585
0.328643
0.322835
1.51557
1.50433
1.57527
1
1
1.53526
0.935425
1.12081
1.1655
1.54211
2.61628
1.56723
1
1
0.55261
1.22893
1
1
2.19303
1
1.62835
1.61998
1.66594
1.66365
1.25955
1.21974
1.89609
1.91682
1.33149
1.13741
1.75802
1.75352
2.61353
1.34274
1.13323
0.32579
1.28323
1.09793
1
0.76739
1.13932
0.326356
2.61286
0.440447
0.325202
1.41891
2.6136
1
0.881129
1
1.63379
1.15842
2.61497
1.58614
0.586087
0.955831
1.76062
1.20865
2.61012
2.91587
1.98786
1.27241
1.98291
0.310176
2.6072
1.60498
0.635007
2.61427
2.59349
1.03886
2.60604
1.00054
1.57126
2.61093
1.16216
1.56814
2.60928
1.35165
2.84774
2.22148
2.60893
0.550331
1.35003
2.5681
1.14848
2.62234
1.57993
0.99994
2.62479
1.06234
1.76119
1
1.19989
1.43412
1.47129
3.49957
1.9373
1.15524
2.11317
0.935899
1
3.56023
0.99463
2.77067
2.61127
2.61321
2.61985
4.32737
0.77083
2.85879
2.61399
0.568695
1.95301
1.2539
2.45942
1.715
1.53941
1.54657
2.24827
1
1
1.19306
1.57179
1.66136
2.24747
1.56765
2.27463
1.02698
3.46403
2.26388
1.93383
1.83252
1
4.30176
2.0353
4.34123
4.34375
1.44922
3.44137
4.67661
4.37534
1.06229
1.28049
4.32187
1
1
1.00004
2.86296
1
1
1
2.89622
1
1.3731
0.953762
1.87073
2.09658
1.86042
0.59005
1.6956
0.324904
3.09172
1.98345
0.891821
0.879756
0.860637
1.49547
2.38294
0.750543
1.55107
1.73465
1
2.06089
0.669921
1.1303
1.35001
1
1
1.12765
1.34238
2.95151
1.87505
3.03806
2.42562
1.91382
1
2.91675
2.42867
1
1
3.02105
1.36724
0.821405
0.820045
1.25026
2.98658
1.14794
1.11875
1.66813
1
1
1.58617
1.61995
0.695803
1.22939
1
1.23592
0.637901
1.24269
3.07309
1.248
1.34233
2.24645
1.17427
1.76098
1.42173
3.02515
1.64484
1
2.09496
2.61647
0.999998
1
1.66209
2.60912
0.325919
2.54922
1.02172
1.02074
1.70777
1.3251
1.24516
1.68071
1.67624
2.01719
1.13963
1
1.71343
0.960996
2.60809
2.60418
2.0059
4.39818
4.13835
1.78821
1
2.61491
1.51944
1
1.24724
0.328382
1.33299
1.92684
0.762505
1.94283
1.10614
2.22594
2.51602
0.771909
0.856125
2.61135
1.52847
1.01504
1.01023
0.562776
1
3.04068
1.25235
0.433899
1.66669
4.35958
0.331026
4.14993
1.92353
4.40024
1.12038
1.69873
0.701283
4.41897
0.886836
0.999992
1.85493
2.2267
0.552433
1.87742
1.58347
1.86474
1.33988
1.08156
1
1.52175
1.32512
2.10536
4.32474
1
4.37707
0.882709
2.05627
1.5562
1.61909
0.790357
1.30132
1
1
1.89229
1.8767
0.759983
1.49104
1.71723
1.47065
1.70765
3.12617
1.68873
1
1
1.69371
1.12421
1.79042
1.24808
0.95457
2.74577
1
1.19738
2.03059
2.70273
2.69408
1.16987
1.42718
3.5246
1
1
0.738474
1.77283
1.21218
1
1.34618
0.956874
1
1
3.72803
0.712742
1.31796
1.76243
2.69214
1
1
4.38584
1
1
1.73135
1
1.56546
1.22469
1
2.62232
1.0885
1
1
1
0.787759
2.15465
1.56372
1.90898
1
1.74178
1.90896
1.88683
2.65468
1.00001
1
0.867547
0.782805
1.18874
1.50028
3.41572
0.963548
1.08946
1.50941
2.18936
0.999326
1.82143
1
1.77408
2.0855
0.614459
2.08502
2.0615
2.60236
2.29336
1.77317
3.01512
1.88121
1
0.968747
2.11522
2.24968
2.1335
0.882752
1.25982
2.65065
2.14906
0.328581
1
1.89813
1.34277
2.26039
1.08364
1
1.69812
2.7524
1.87391
1
1.16914
1.17587
1
2.21321
1.00004
0.330258
2.26412
1.95076
1.12318
1.95675
2.30787
1
1.29501
1.86107
1.29193
0.764978
1.87394
3.14278
1.68369
0.807851
1.81522
2.60915
1.21836
0.997647
1.30271
0.881921
2.60851
1
0.486708
1.17391
0.789816
1
2.26439
2.55604
1.16296
1.16333
1.54271
0.999932
1.32664
2.61042
2.44345
2.61487
0.946968
1.34888
1.68089
2.62008
1.61027
1.25746
2.39883
2.25825
1.99408
0.89766
2.61666
1.88282
3.02335
2.61811
1
1
2.61924
2.50719
1.88573
0.517541
0.529167
1
1.72661
1
1.3686
1
1.56961
1
1.73314
1.25308
3.20525
2.22637
1
1
4.30918
1
0.885743
1.50367
4.52998
3.82711
2.02647
1
0.975332
2.61672
0.983001
1
1.24474
1
1.88478
1
0.943716
2.59571
2.60284
1.68471
1.30363
0.999999
1.9614
1.94356
0.999996
1
1.15373
1.09299
1
0.715691
2.61123
0.985446
1.8303
1.7786
2.6067
3.80639
0.864453
1
0.8042
1.379
1
1.02551
2.62723
2.61397
0.812631
1.1414
0.958361
2.61607
1.03278
1.3647
1.04331
1.57591
2.80606
2.41757
0.999998
1.45794
2.60901
1
1.20354
1.03069
1.25359
1.31411
1.88287
2.3823
2.99278
3.33705
2.20875
0.953785
1.84318
2.3401
1.33104
1.11993
3.02771
3.42471
1
1
2.05102
0.779782
1
1.71804
2.21008
1.10138
1.76927
1
1.77353
1
1
1
1.54047
1.53421
1
1.11238
1.66447
1.61799
0.637591
2.44797
1.63755
2.75293
0.999969
2.5254
1.57065
1
0.809727
1
1.79372
1.58988
0.839158
2.77047
1.54728
1.89464
1.77806
1.50857
1.42786
1.17349
1.52166
1.48637
1.57743
1.4957
1.44327
2.62174
1.45244
1.89075
1.14164
1
2.05382
1.94853
1.76355
0.957094
2.60449
1.30483
1.42253
2.6269
2.09765
1.63863
2.09353
1
1.04113
1.00002
1.12086
1.87312
1.39226
1.4024
0.326214
1.96097
2.31935
2.60721
1.28081
1
1.17253
1.45546
2.60964
2.61794
1
2.21595
2.60747
2.21123
1.16691
4.07827
1.84221
1
2.61243
1.24306
1.89504
1.87051
1.36024
2.62382
1
2.62145
1
1.90064
0.903901
1
1.20013
1.31779
1
2.13488
1.80363
3.34613
2.96705
4.13761
1.00006
1.25662
1.7352
0.999998
2.20304
0.69317
1.89817
1.74861
2.61695
3.2871
2.61037
1.80476
1.74755
1.00154
4.38934
1.46835
0.562619
1.69543
1.60658
3.70326
1.79877
0.567879
1.50261
1.56832
1.19069
1
4.42329
3.76752
0.861251
1.83464
1.00012
1
1.593
2.71805
1.24584
2.23692
2.20918
0.849229
1
0.93548
1.91161
0.32878
4.32699
1.71659
1.0308
1.00092
1.59858
3.52692
2.42404
1.53812
0.819402
0.795236
1.54077
1.54403
3.9249
1
2.61058
0.78085
0.791333
1.26602
2.6127
2.53406
2.67105
1
1.53304
1
1
1
1.52833
1
1.19047
1.41601
0.766445
1.36809
0.776276
1.42271
0.941733
1.29381
1
1.94433
0.897087
1
0.920396
1.61206
1
1
1
2.08541
3.86183
1.20933
3.08854
1.20816
1.72815
4.34793
1
2.25007
1
3.07578
2.70941
1.25834
2.62526
1.72176
2.60635
1.11028
1.26676
1.84689
1
2.60922
1
2.15381
1
1
1
0.60679
2.60932
1
1
2.01554
1.34936
1.68678
2.59564
1.67164
1.75612
2.57787
0.814452
1
1.88651
1
0.998478
2.60995
1.00563
2.24189
2.03024
1.97951
1.71706
2.01617
1.47713
0.325168
2.62219
2.60991
1.45552
1.74445
1
1.45596
2.62209
3.65057
0.357649
2.58309
0.927681
1
1.31308
4.1754
1.99337
2.03253
2.06202
1.47432
0.936236
1
1.34427
1
2.60595
1
1.79894
2.16005
1
2.61373
1.35276
1.145
2.61087
1.79713
2.61764
1
0.883756
0.906023
1.65942
1.70156
1.36188
1.54009
2.60981
2.61012
1.43562
1.64506
1.19314
1.44184
2.05823
2.61316
1
1
1.47313
1
2.6153
1.66544
1.80092
1.55484
1
1
1.48547
0.655112
0.903091
1.24122
1.3255
1.51982
1.6416
1.82281
2.61627
2.05828
1
1.55172
1.24473
2.45187
1.59672
1.33197
2.61865
0.85566
1.57739
1.61388
1.77003
1.84829
0.739723
2.60839
1.76451
1.81771
1.27488
2.61339
2.60807
1
2.60742
1.77221
0.758781
1.90433
1.93155
1.71737
1.70837
1.62797
1.26753
1.68615
2.65227
1.91303
2.61001
0.332194
2.58471
1.44035
1.58644
1.54112
1.15818
0.82634
1.89273
3.36556
2.21549
1
2.0976
1.87859
1.87608
1.59196
0.947957
1.31698
1.33322
2.618
1.19085
1.93587
1.94943
0.807098
1.61485
2.6103
1
1.1475
0.79127
0.777265
1
2.07263
0.774285
1.98214
1.97932
2.07379
2.07193
2.07489
1.00041
2.01949
2.02192
2.62562
0.819267
1.64027
0.756364
2.61354
2.08434
2.06568
2.61287
1.12866
1.1146
1.76295
0.827601
2.61871
1.21435
2.24798
1.47645
2.61064
1
1
2.14018
2.15269
0.325799
2.60728
0.629555
0.749804
3.46102
1.47336
1.37006
1.85889
0.955106
1.78644
2.61509
1.18329
1.16367
2.06947
0.994246
1.15587
1.6358
1.62346
1.22057
1.23632
2.23465
1.19942
1
0.999993
1
1
2.22947
1.12906
1.313
1.9718
1
1.71189
1
2.607
1
1.21313
1.20779
1.78039
1
2.61601
4.29876
0.978514
1.52323
1.20001
1.5723
1.55801
1.72901
0.776557
1.3384
1
1
0.768146
1.47395
1.75752
1
0.872067
0.777119
3.27081
1.40615
1.33941
1.66881
0.94466
1
0.779139
1.18277
0.873977
2.83329
2.13415
1.71506
2.13257
1.36588
1.00037
1.34304
1.30712
1.79899
0.828987
1
1.28172
1
1
1.99388
0.818322
4.52778
1.32491
1
1.18724
1.43724
1.23038
1.55801
1
1
1
1.55467
4.68115
1.97898
0.950773
1
1.05374
1.34405
1.57546
2.01559
2.20614
1.44218
1.50278
1.41999
1.13795
0.925541
4.39415
0.68314
1.30793
1.93631
1.10502
0.603726
1.04507
2.12056
1.12286
2.61171
1.31685
1.71663
2.02195
0.927679
1
1.31561
2.6124
1
1.9251
1
1.53582
1.52811
1.66028
2.55468
1
0.772372
1.47679
1.09675
1
0.628683
0.735244
0.844481
0.750159
0.727456
2.227
1
0.793744
0.955601
0.719043
0.809862
1.9649
1.43614
0.981613
1
1
3.01258
1.42555
1.43048
1.42122
1.68178
1.67547
2.5132
1
4.39631
1.41784
0.972824
0.600575
0.795559
1
2.49807
1.00001
1.63669
0.625902
1
1.75843
1.41206
2.6032
1
2.61629
1.76169
1.38814
1.40971
2.61606
0.999975
1.38524
2.61558
0.891427
1.3755
0.999996
1.55634
1.15127
0.891899
1.4841
1.89306
0.999997
1.81706
1
1
1
2.61363
1
1.84611
1.83573
1.1438
3.05
2.95992
1.26732
1.1714
1.69407
1
1.99527
2.61512
2.61132
0.606033
1.83086
1.81162
4.42369
1.55706
2.61679
1.25407
1.0518
1.36417
2.60919
1.14933
0.999996
1.19306
2.61037
3.02554
1.13612
1.09516
1.19453
1.63867
1
2.47895
4.19033
1.25073
1.69412
1
1
1.76343
1
1.0004
1.86989
1.08474
1.0003
1
1.8923
1.23844
1.13729
1.00001
2.3784
1
1.43004
1.41699
1
1.43484
1.38464
2.34951
1.20505
1.00018
3.67124
2.42831
1.00001
1
1.45639
0.853862
1.27983
1
1.431
1.47038
1.09966
4.48188
1.02054
1.25573
1.01043
1.3226
0.959084
2.85597
2.18719
1.85114
0.953445
1.26789
2.62458
0.856286
1.49794
1.03559
1.2374
1.02289
1.50565
0.627847
1.82003
3.10967
1.00068
2.62019
1.52993
2.66635
0.976424
1.54535
1
1.62091
1.35571
1.95682
1
1.85034
1.88838
0.994729
2.81896
1
1.3358
1.08156
2.30033
1.91693
2.68389
1
2.35745
1.25062
1
1.45229
0.849993
1.24989
4.53156
1.68885
1
1.80279
1.24768
1.59642
1.75451
1.00002
0.874701
0.832097
3.81856
1.67303
0.331976
2.23029
3.43621
2.15231
2.58802
2.07504
1
1.00003
1.63973
3.22318
2.00074
1.77978
0.878269
0.867475
1.68222
1.57622
2.61028
2.56021
1.82076
1.00123
1.26402
1.00015
2.60627
2.34115
1.2535
0.916918
1.54358
1.91112
1.88136
1.85018
1.90631
0.990165
3.1119
1.51653
4.35351
1.77544
2.61086
1.34073
2.00724
2.61643
1.44858
2.26722
1.34198
1.6481
2.34842
0.836247
2.48554
1.43902
1.02168
1.81528
2.61151
1.55216
1.43803
0.543514
0.926653
2.36858
0.811723
1.22484
1.23067
1.83736
1.25273
0.999779
1.42535
0.9427
0.904781
1.42535
0.694363
1.25199
1
1.2305
1
1.47
1
0.878994
2.42011
0.862807
1
1.84825
1.57439
1.06259
1.56826
0.680059
1.25066
2.32746
0.859585
1.61134
1.51256
1.02404
1
1
2.78838
1.57916
4.30144
1.56673
0.792108
1
1.00001
0.870836
2.11232
1.2065
1.18558
2.48852
0.952029
2.53877
1.98964
1.11836
2.00435
2.60795
1.80031
0.774547
0.912136
2.11261
0.999998
2.1427
0.825648
1
1
1.46147
1.00005
1.79728
2.34274
1.99802
1
1.99372
1
1.00001
1
0.999993
2.09838
1
1.13188
0.808454
1.23711
1.13706
1
0.701221
2.62334
1.19324
2.43659
0.812556
2.29316
2.6148
4.3911
0.913656
1
1.19535
0.63784
2.11798
0.959883
1
1
2.0051
1
3.6176
4.38289
2.62583
2.61571
1.45037
1
1
1
1.8415
2.26532
3.21781
4.41449
1
2.40341
1.03543
1.91251
2.78814
2.12959
0.855826
0.999999
1.06735
1.40269
2.6096
0.789817
2.36195
1.15254
1.80455
1.16483
2.60906
1
0.912633
0.782263
2.61294
0.934083
1.47379
0.858898
1.7805
1
0.923277
0.90259
4.00501
1.81961
1
1
0.978085
1
2.13059
1
1
1.40888
1.00977
1.31445
2.60678
1.3588
3.94465
1.27516
1.8768
1
1.19946
1
1.00001
1.53134
4.32966
1
1.68086
0.961235
1.11207
4.29232
0.999673
1
1
0.325159
1.73565
2.32642
1
1.88637
1.1161
1.8455
1.28732
2.33165
1
2.61164
1.30863
1
1.4612
1.10566
1.6292
1
2.61568
1.28125
1
1.6559
1
1.85095
2.61309
1.85861
0.685821
1.95707
2.61585
0.776366
2.29049
1.8972
1.57025
1.00002
1.61465
1
1.75391
0.845812
1.11411
3.1537
2.46056
1.71395
1.1218
1
2.19237
0.783032
1
1.00005
1.00311
2.99703
0.999801
1
3.04188
1
1
0.858555
1.17104
2.90955
0.988628
1
2.69137
1
1.00011
0.780589
1.20014
4.40431
4.29959
1
1
1.00004
2.10098
1.10318
1.19351
2.01222
2.07359
1
1.47804
1
1
2.13497
1.28839
2.81494
1
2.40162
1
0.801191
1.0005
2.1233
1
2.60241
1.30186
1.26842
1
1
1
0.824793
1.08997
1
2.61277
0.955816
0.863116
0.846694
1.60506
1
1
0.998515
0.791573
1.18777
1
2.61095
1
1
1
2.35732
0.999997
1.43887
2.58571
1.44083
0.941335
1
3.03656
1.0895
1.77101
1.13857
0.908482
2.38628
2.86815
1.15935
2.61488
3.30684
2.33949
1
3.41878
0.674336
2.25314
1.17447
1
2.61153
2.35342
1
0.947333
2.33806
1
1.78411
1.76167
1.7826
1.07251
1
0.998413
1
1
1.00008
1.46708
0.639938
1.77241
1.01967
1.46877
2.65842
0.882976
1.26458
2.14975
1
2.52586
1
2.24777
0.977835
2.2571
1
1
1
1
0.988331
2.52305
1
1.02472
1
1
1
4.48363
1.78264
4.35011
1.07373
2.98023
0.99951
4.26948
2.12759
1.12911
2.61718
2.4972
2.28806
1.21862
1.09394
1
2.08632
2.22355
0.626925
1.16561
1.94369
0.999999
3.04233
0.769881
2.15162
1.00019
4.21855
1.15755
2.44579
2.41245
2.61813
0.326453
2.84454
1
0.640808
1
1
1.78573
1.19813
1.34403
0.825982
1
3.02712
4.22684
1
1
1.45749
1.16926
2.33892
0.999619
0.918335
1.62774
2.61549
1
2.39858
1.3572
1
2.76489
0.984181
1
1.60763
0.635769
0.915844
1.33426
1.40155
2.76177
1
0.940541
2.62171
3.09179
1.16528
1
1.52245
2.60873
0.790311
1
2.76693
1.82639
1.23275
4.04727
0.994299
1
0.618408
1
2.61411
0.986357
0.963728
0.863396
2.14881
0.972992
0.994885
1
1
2.39287
1
2.6122
1.11026
0.774188
1.73005
1
0.622038
1
1.77975
1.96455
1.58257
1.24705
0.358616
2.61518
1.47975
1
1
1.36718
1.36779
1
1.55399
4.33346
1.13811
2.10434
1
1
1
0.908799
2.17324
1.53107
0.946031
1.33923
1.82463
1.09475
2.4179
1
1
1
1.82275
0.853642
0.897185
2.60928
0.898528
0.870116
2.38951
1
1.39234
1.08767
1
1
1
4.40765
3.12849
2.23177
0.913301
2.35639
1.20625
1.75877
1.39324
4.2982
1
1
1
2.61824
1.25026
1
2.70111
1
2.17396
1.88649
2.61442
2.61676
2.59385
2.43501
1.00001
2.61969
2.60442
2.38809
1
2.05694
0.999999
1
3.09579
2.52488
1
1
1.23947
1.35278
2.50478
0.809169
2.57307
1.58827
1
1
1
2.02456
1
0.722773
3.09742
3.03667
2.19728
1.68202
2.61163
1.80893
1.92018
1
1
1.46325
2.60847
1
1.395
1.54208
1.86571
2.61688
1.97209
2.05406
0.892723
1.32233
1.51807
1.28065
4.5152
2.61551
1.63424
1.88755
2.61017
2.61609
1.30611
1.6364
1
1
2.61296
2.27878
0.882177
0.930301
2.62731
1.22457
2.19929
1.00003
1.37347
2.72777
2.61183
1
1.21711
1.21406
2.01873
1.30287
2.61208
4.35028
2.61607
4.45596
2.6139
1.08176
1.67672
1.57398
2.61563
1
1.22585
2.16927
2.53276
1.02816
1
2.61483
0.799396
0.335115
0.632536
1
0.798005
1.2056
2.61331
2.03232
1.38715
1.35736
2.61743
1
0.698148
1.79141
0.823863
1.52857
1
1.5513
1.88414
1
2.60879
2.39038
3.56331
1.24907
1.2432
1.48888
0.999986
1.62599
1
2.16547
2.61173
1.80124
1.01467
1.12033
1.78782
1.67326
1.2194
1.76169
1
1.95331
1
1.4544
1.57705
0.893167
1.88965
1.12191
1
1.58891
1.21108
1.21667
1
1
0.799646
2.32809
2.55465
1
1
1.4383
1
1.46539
2.46606
0.991777
1
1.29949
1
2.35877
1.11946
2.62318
1.14211
1.4883
1
1.40005
1.76354
1.64411
1.4624
1
1.21108
2.62793
1
0.948557
1.45748
0.848681
1.45337
1.41046
1.63897
2.61669
1.58503
1.00001
1
1.00006
1.46059
1
1.76423
1.54254
1
1
1
1
2.60396
1.10503
0.31814
2.58423
0.839954
3.71475
1.52753
0.777614
0.807041
1.19087
1.65403
1
1.48929
2.59969
1.67596
0.628594
2.61532
2.01078
1
1.69216
2.79301
2.59058
1
1.27
1.26709
1.63031
1.45646
1.65636
1.24437
2.75894
2.61307
1.17048
2.3833
2.70773
2.62484
1.54829
2.26131
1
1.62503
1.39297
1
1
1
0.740205
1
1
1.57988
1
1
2.61109
1.00002
1.48235
2.61173
1
1
0.996861
1
2.76282
2.61276
1.60071
0.799066
2.61527
2.01059
2.28022
1
1
1.69435
2.5111
1
0.817778
1.22457
1.57552
0.808913
0.782539
1.22751
0.786085
0.999448
1.12876
2.60971
2.61573
0.805129
0.792533
2.61619
1
1
1.35104
1
1.49581
1
2.616
1.20406
1.20421
1
1
1.37256
2.58216
2.79252
2.61399
1.00061
2.53373
1.55378
1
1.49287
1
2.58339
1
0.936693
0.785225
1
1
1
2.23466
1.46319
1
1
1.23338
1.0033
2.36196
1.21749
1
1.28371
0.574949
0.839232
0.999998
1
2.60982
1.77342
1.40484
1
1.37824
1.76124
2.49758
2.6155
1.60409
2.59172
1
1.24023
1
4.25937
1.74816
2.61186
2.21755
2.60888
0.802861
1
1
0.731231
0.999997
1
2.61585
0.784456
0.758936
1.50399
1
1.0024
1
2.54524
1.94829
1
1
1.44728
1
1.41032
0.640417
1.44901
0.718823
2.98464
4.05291
1.08479
2.61196
1.15882
1
4.42869
1
1.86587
2.6121
0.752856
1
1
2.61053
1.42519
0.932622
1
0.328953
2.17748
1.77484
1.00563
2.59754
2.17368
1
0.936782
1.49082
0.814715
2.25977
1.61253
1
1
1.00406
1.2077
2.46809
2.61354
2.62585
1.90196
0.980646
1.71135
2.62027
1.60924
1.89772
1.51809
1
1.00117
1
0.99999
0.892658
0.648375
2.78066
1.15576
1
1.97959
1.43428
1.17424
1.1217
1.17126
1
1.43083
1.17989
1
1
1.14994
2.61479
0.607689
1
1
1
1
3.60946
0.727684
2.56955
3.04219
1.69135
1
0.999998
2.61448
2.66014
1.05096
1.17126
2.53945
1
2.7645
1
1
1.00027
1
1.08152
2.06805
1
1.54097
1
2.62296
1.5295
2.54008
1.00223
1.00025
1
0.621914
1.08628
1
2.33991
2.60755
1
1.76087
1.74667
3.19718
1
2.50878
1
1.00013
0.943848
0.940749
0.988773
1.99577
1
0.883784
0.996361
2.62159
1.7747
1
2.62363
0.986918
1
0.32538
2.41486
0.842988
0.586879
2.30921
1
1.95092
1
1
1
2.61529
2.40333
1
1.00138
1.1667
2.93091
1.83371
1
0.633374
2.61464
1
0.904743
0.563947
2.16216
1
2.07596
1.00978
1
1
1
1
2.70942
1.12133
0.628988
0.99938
2.39852
1.03716
2.59525
3.07422
1
1
1
1.6234
1
2.14739
2.95366
2.02138
1.91494
0.326396
0.479751
1.34735
0.680173
0.324842
1
3.5589
3.2521
2.25903
1
1
1.89585
2.62333
1.00904
2.4164
2.2591
2.52918
1.91832
1.75418
1.8847
0.812797
1.39974
1
1
1
1.76263
0.986942
1
1.42753
0.971271
0.880965
2.26175
1
2.62413
0.808095
3.47522
1
1
0.47516
0.943301
0.717824
1
2.60999
2.07804
0.68882
2.61416
1.6679
2.22412
2.53756
2.613
1
1
1
1
0.398972
1
1.45946
0.941098
0.322262
2.61287
0.654199
1.28472
2.22606
1.13987
1.39733
1
1.07348
1
0.735272
2.61337
2.59187
3.84709
0.671365
1
1
1
0.627
2.90951
1
1
1
1
2.24844
1
1
0.330745
1
1
1
1
0.526437
1
3.20559
1.97377
1.09499
1
1
1
0.99629
2.37614
1
1
2.96903
1.15842
1
0.349845
0.328942
1
1
1
0.594131
3.10581
1.19276
0.925096
1
1
1
1.14416
0.837988
1.14304
2.61318
2.60966
1
1
2.79489
1
0.979692
2.62342
0.871504
2.59108
4.10569
0.97449
2.62087
3.3886
1
0.752319
0.436768
1
0.846918
1
1.97975
1.13899
1
0.639206
0.608363
1
1
1
0.894041
0.910511
2.61354
1
1
1
0.871022
1
1.11059
1
1
0.333716
1
1
1
2.34644
1.81381
1
0.321371
1.1586
0.342765
1
2.60448
1.75259
3.6029
1.01087
2.0871
1.18101
0.961842
0.630127
0.991145
0.329116
2.45667
3.2325
4.28406
0.351432
2.02049
1
1
1
2.46443
2.63838
1
1
0.726632
2.0734
1.03374
2.3109
1.1546
1.41196
2.34988
1
0.369068
2.58956
1.15521
2.19793
0.743235
4.031
0.89992
2.59324
3.35053
1
2.61714
1
2.61163
2.24678
1.40501
1.9737
1.69771
1
2.61479
1
1
1
0.868908
1
2.60967
1
0.959222
1
1.33025
1
0.915584
1
2.52095
1
1
1
1.00017
3.43409
1
1.95029
2.61452
2.59422
1
1.91061
1
1
1.98716
2.61918
4.19298
0.349033
0.322314
1
1.68572
1
3.14875
0.631917
2.61218
0.360779
2.47516
1.44347
1.51648
2.61449
2.24245
1.00087
0.892787
1.42165
0.9227
0.366882
0.804042
1
1
3.29494
0.858868
1
2.36606
0.330017
1
1
1
1.83242
3.72709
2.61624
1.60634
1
2.61515
1.8927
0.992719
2.59984
0.977467
0.945143
0.994315
1.03786
1
4.15456
0.91415
1.37603
0.976447
1
1
1.00015
2.61536
1
2.61345
1.03163
0.77304
0.324439
1.47213
0.952864
0.33029
0.922426
1
1.0679
1.07036
3.34103
1.09014
1
2.61351
1.49764
2.29787
1.70408
0.967375
0.631778
2.59849
1
1
1.08059
1.31672
1.17848
4.25192
1
1
0.993354
0.323917
1.64967
1
2.61807
1.18419
2.6118
1
3.68768
1
1
0.43077
1
1
2.61608
1
1
1
1.35474
1
1.7078
2.07703
1.55833
2.18144
1.46776
2.45804
2.61056
2.61994
3.28044
0.947177
1.53397
1.45706
1.38663
1
1.44314
0.997645
2.60652
2.61547
1.64619
1.07349
1.51266
0.325825
0.84035
2.61828
1
0.326524
1.52224
0.89689
1
1
1
0.329278
1.58941
0.824331
1
1.82752
1.40621
2.44656
1
1.49703
1.90574
2.61652
1.12858
1.54109
1.79244
1.42287
1.59233
2.63551
2.26019
1.77642
0.323243
1.41574
1
1
2.61182
1
0.789863
1
1
2.61129
2.61248
1.71152
1
1
2.39123
0.922814
0.74169
1
0.970097
1.50358
1
0.971187
0.928755
0.814474
2.24021
2.96905
1
1
1
0.942234
2.61105
2.24483
0.729817
4.39233
3.02692
1.94975
0.781291
0.542353
1
0.813154
1.33216
1.34008
0.329845
3.62837
3.18814
1
1.12668
1.63514
0.525249
2.61355
0.599108
2.61185
1.12509
0.320096
1
2.61564
0.608186
4.45611
2.69066
0.965315
1
3.78167
1.93042
1.26262
1
1
2.61154
0.949281
0.575873
2.61117
2.87126
3.18926
1.47866
1.2989
0.941879
2.06651
1.00003
0.58546
2.61206
1
1
0.944926
1.95355
4.43814
1
0.324506
1.27562
1.5755
1
2.63332
4.56155
1
1.77114
0.477337
1.63776
0.436381
4.46366
1
1
1
1
1
4.33457
1
1.68316
1
1.45802
0.320116
0.319277
2.60862
1.60929
0.326512
1.49489
1.24528
1.25075
1
0.764435
1.26601
0.972944
3.73828
1
2.60959
1.33948
0.331278
0.398822
1
1
0.961781
1.31554
4.29687
0.37127
0.567315
1.21599
1
2.56821
0.335207
1
2.61392
1.70891
1
0.999999
3.12326
1
2.59993
1
0.329674
1
1
1.32478
0.863277
1
0.991658
2.60712
1
1
1.01474
1
1
1.97239
0.811426
2.38461
1
1.51576
0.918572
2.61734
2.61842
1
2.6222
2.51793
1.12212
1
1
1.50147
3.06839
0.331444
0.987188
2.09448
1.10242
2.60818
0.978239
0.324191
0.844488
1
1
1.0962
2.07159
4.18304
1.08593
0.620621
3.79754
0.330009
0.331637
1
0.823638
0.342511
2.61442
1.96105
1.14101
1
1
1.50072
1
1.95352
0.853192
1
1
0.329146
0.964392
1
2.63178
1
1.11629
0.345946
1
1.29764
1
1
0.634781
2.62374
0.639685
2.59891
0.325735
2.61594
2.60461
1.25498
1.46273