/*--------------------------------*- C++ -*----------------------------------*\
  =========                 |
  \\      /  F ield         | OpenFOAM: The Open Source CFD Toolbox
   \\    /   O peration     | Website:  https://openfoam.org
    \\  /    A nd           | Version:  12
     \\/     M anipulation  |
\*---------------------------------------------------------------------------*/
FoamFile
{
    format      ascii;
    class       volScalarField;
    location    "4";
    object      T;
}
// * * * * * * * * * * * * * * * * * * * * * * * * * * * * * * * * * * * * * //

dimensions      [0 0 0 1 0 0 0];

internalField   nonuniform List<scalar> 
22702
(
1
1
0.962608
1
1.01728
1
1.12045
1
1
0.890566
1.12068
1.12061
1
1.11845
0.967793
1
1
1
1.12039
1
1.11867
1
1.11905
0.897081
1.11879
0.888717
1
1.11981
0.89714
0.896965
1
1.12055
1
1
1
1.11068
1.1185
1.11924
1
1
0.890441
1
1.0626
1
1.11983
1
1
1
1
0.897773
1
0.896252
1
1.12061
1
1.1207
1
1
1
1
0.888814
1
1
0.896797
1
0.896838
1
1
1
0.889405
1
1.11878
1.0759
1
1.11876
1.12527
0.897594
1.11964
0.899173
1
1.12079
0.897533
1.11977
1.11967
1
1
1
1
0.981467
0.889648
1.12095
1
1
0.88945
1
1.11874
0.889275
1
1
1
1
1.06271
1.12063
0.888794
1
1
1.03213
1
0.897426
1
1.11974
1.12044
1
1
0.885885
0.885861
0.889798
1
1
1
1
1
0.975623
1
1.10334
1.01366
1.11962
1
1.11975
1.12049
1.11846
1.12083
1
0.889393
1
0.889592
1
1
1
1
1.12053
1
1
1
1
1.11877
1
1.00811
1
1
1
1
0.896986
1
1.00314
1
0.89988
1
1
1
1.12059
1
1.11876
0.884851
0.888795
1.11891
1.11884
1
1.02278
1.07125
1
1.12069
0.899403
1.11086
1
1
1
1
1.11849
1.09834
1
1.12054
0.897507
1.12064
1
0.898786
1
0.897473
0.888704
0.999938
1
1
1.12062
1
1
1.11858
1
1.11968
1.12051
0.898959
1
1
0.897465
1.11852
1
1
1
1.11851
1
0.891205
1
1
1.11856
1.11852
1.11957
1
1.00001
1
1
1
1.1186
1
0.897104
1.12368
1.11857
1.11844
1
1
1
0.891829
1.11835
1.06079
1
1.11895
0.894753
0.893721
1.11894
1.11848
1
1.11953
0.885322
1.10609
1
1
1
1
1.11854
1
1.07252
1.01237
1
1
1.11857
0.889039
0.930666
1
1.11861
0.889665
1.11939
1
1
1
1
1
1
1
0.895748
0.928681
0.891887
1.11861
1
1
1
1
1.1088
1
0.897872
1
0.88993
0.898622
1.1185
0.896779
1.11865
1
1
1
0.999309
0.897693
0.885389
1
1
0.887696
1
1.12032
0.88877
1
1
1.12085
0.884697
1
1.11784
0.88873
1.11856
1
0.892861
0.999346
1
1
1
0.896576
1
1
1
1
1.00486
1.07639
1
0.892859
1
1
1
1
1
1
1
1.12085
1
1.12111
1
1
1
0.889099
1
1.11874
0.896824
1
1.09828
1
1
1.12067
1
1
1
1.11849
1
1
1.1179
1.12073
1
1.02876
1
1
0.889438
1
1
1
0.889718
1
1
1
1
0.887948
1
1
1
1
1
0.888649
1.00002
1.11877
1
0.999998
1.11879
1.11904
1
1
0.899858
0.946945
1.12068
1
1
1
1.11853
0.889257
1
1.11877
1
1
0.910416
0.908561
1
0.897392
0.889265
1
1
1
1
1
1
1
1.11979
1.03246
1.11253
0.889173
0.973945
1.12078
1
1.11879
1.12057
0.889773
0.933628
1
0.88979
1
1.1236
1
1
1
1
1.11852
1
1
1
1
1
1
1
1.04763
1.12005
1
1.11859
1
1
0.898774
1
1
1
1
1.11849
1.09278
1
1
0.898115
1.1186
1.11851
1
1.11853
1.1186
1.11855
1
0.952112
1
1.11848
0.997899
1.11855
1
0.890068
0.999665
1.12063
1
1
1
1
0.895422
1.11843
1.10853
1
1.11871
1.11851
1.12049
1
1.05695
1.11866
1
1
1.08508
1.01833
1.11857
0.982759
1.11855
1
1.11853
1.1185
1.11851
1.11862
1
1.11735
0.975883
0.967051
1
1
1
1
1.11819
1
1
1
1
1
1.12047
1
1
0.998894
1.11849
1.10595
1
1.09883
1.00001
1
1
1.11864
1
0.9991
1.00132
1
1.11845
1
1.1184
1
1
1.09058
1
1.11845
1.00001
1
1.1187
1
1.11849
1
1
1
1.11855
1
1.11862
1
1.11853
1.1207
1.11858
1.11963
1
1.12082
1.11744
1
0.897665
1.11203
1.08825
1
1.11854
1
0.889129
0.888696
1
1
1
1
1
0.888996
1
1.1186
1.03294
1.11862
1
1
1
1
1
1.11853
1
1.11902
1.07398
0.933876
1
1
1.03769
1.03236
1
1
1.04572
1
0.90013
1.11851
1.11852
1
1
1
1.12057
1
1.00001
1.11826
1.11841
0.986244
1
1
0.897772
1.10894
1
1
1
1
1
1.11849
1.12081
1
1.11873
1.11864
1.11858
1
1
1
1
0.888754
1.12069
1
1
1.10904
1.11828
1
1.11224
1.12007
1
1
1
1
1
1.11846
1
1
1
1
1.11814
1
1.11728
0.889473
1
0.888968
1
1
1
0.999106
0.896863
0.999725
1
1
1
1.01843
1
1
0.960982
1
1
1
1
1
1
1
0.999999
0.981877
1
1
0.999304
1
0.895929
1
1
1
1
1.0912
1
1
1
1
0.897553
1
1
1.11237
1.1206
1
1
1
0.967801
1
1
1
1
1
1
0.986411
1.00532
1.11864
1
1
1
1.11858
0.971045
1
1
1
1.11971
1.11922
1
1
1
1
1
1
1
1
1
0.889117
1
1
1.11961
0.890443
1
1.1193
1
0.897955
1
1
0.889075
1
1
1
1
1
1
1
1.11652
1.11835
1
1
1
1
1.10927
1
1.04141
0.896873
1
1
1
1
1
1
1
1.01119
1
1
1.06798
1
1
1
1.1002
1
1
1
1
0.889543
1
1
0.883807
0.889485
1
1
1.11849
1
1.00421
1
1
1
1.08568
0.887679
1
0.883827
1
0.933127
1
1
1
1.1191
1
1
1.1186
1
1
1
1.11861
1
1
1.1185
1
1
0.889934
1
1.04131
1
1
1.12079
1.12075
1.08202
1.1074
1
0.889684
1
1
1.11381
1
0.889465
1
1
1
1.11862
1
1
1
1
1.07448
1
1.11109
1.11902
0.889648
1
1
0.889037
0.888748
1
1
1
1.08684
1.09225
1
1
1
1
1
1
1
1.05373
1.12055
1.00421
1
1.1173
0.889125
1
1
1
1.0688
1
1.02504
1
1.10927
1.11803
1
0.890313
1
1.12085
1
1
1.11864
1.11188
1
1.12166
1
0.895148
1
1
1
1.11759
1.11649
1.10557
1
1.1197
1.1186
1
1.11875
1
1.11806
1
0.889471
0.993333
0.888716
1
1
1
1
1
1.11858
1
1.11857
1
1
1
1.11324
1
0.897492
1.11863
1
0.897544
0.894207
0.890029
1
1.06187
1.0116
1.11894
1.11863
1
1
1
1
1.11854
1
1
1.11854
1.11859
1
1.04542
1.00001
1
0.999085
1.12051
0.957158
1
0.948221
0.900606
0.899949
0.99025
1.119
1.11705
1.02683
1.11862
1.11865
1
1
1.12076
1.12034
1.11853
1.12124
1
1.11855
0.89701
1.11839
1.11868
1.11912
1.11858
0.960332
0.971048
0.981185
1.11852
0.988889
1.11871
1
1
1.11897
1.11865
1
0.89
1.11921
1.11857
1
1.11855
1.11857
1
1.11858
0.897128
1.11841
1.12066
1.12075
1.11885
1
1
1
1.11851
1.07983
0.894815
1.11858
0.886455
1.11849
1
1
1
1
1.11837
1.11861
1
1
1.11857
0.888631
1.11879
0.897725
1
1.11779
1
0.89143
1.11887
0.919738
1
1.11863
1.11916
1.11853
1
1
1.06176
1.11897
0.897993
1.11851
1
1.1186
0.964265
1.11867
0.889221
1
1.11887
0.896985
1.11897
0.897051
1
1.1186
1
1.11931
1
1.07249
1.1146
1.09552
0.884911
1
1.11862
1
1.11857
1
1.11857
1
1
1.1187
0.995642
1.1192
0.894295
1.10598
1
1.08706
1
1.11891
1.11856
1.11891
1
1.10773
1.1186
1.11059
1.07594
1.11911
1
1.08142
1
1.11869
1
1.02067
1
1.11082
1
1.1186
1.11359
1.11343
1
1.11782
0.888641
1
0.889571
1
1
1
1.12049
1
1.11868
1
1
1
1.11876
1.11608
1.09912
1.11828
1.11851
0.889056
1.11918
1.12077
1
1.10356
1.11857
1.11712
1
1.1208
1.12087
1
1.12019
1.11873
1.11871
1.11884
1
1
1
1.11858
0.886081
1
1.11859
1
1
0.888736
1
1
1.11857
1.11854
1
1.11852
1.11993
1.11873
0.994069
1.11854
1
1.11855
1.11859
1.09659
1
1
1
1.11839
1.11859
1.11861
0.984837
1
1.12042
1.11847
1.1185
1
1.11852
1.11867
1.11858
1.1206
1
1.11851
1.11883
1.10509
1.11877
1.12026
1
1.11839
1.11739
1.11861
1.11856
1.11877
0.888716
1.11865
1.11876
1
1.11862
1.11862
1.11856
1.11852
1
1.11863
1.11864
1
1.11852
1.10131
1
1
1
1.11845
1.1196
1
1
1.06808
1
1.11848
1
1
1.11862
1.11896
1.11857
1.11865
1
1
1
1.08704
1
1.11862
1
1
1.12072
1.12079
1
1.11859
0.885039
1.11858
1.1184
0.913968
1
0.885081
1.10551
1.11844
1.11877
1.11879
0.888734
1.11857
1.11879
0.889005
0.884473
1
1.11874
1.11855
1
1
1.11861
1
1.11916
1
1.10492
1
1.0588
1.11861
1.11911
1.08734
1.10799
1.12062
1.11888
1.11175
1
0.888866
1.11932
1.11855
1.11998
1
1
1
1.12055
1
1.11862
1.11848
0.92432
1
1.11858
0.999983
1
1.00001
1.00001
1.11856
1.11863
0.999565
1
1
1.11856
1.11903
1.11854
1.11949
1.11837
0.893288
1.10325
1
1.11775
1.11852
1.11861
1.11831
1
1.11853
1.11563
1.11883
1
1.11874
1.11857
0.96044
1.11852
1.11878
1
1.11847
0.953917
1.11861
0.960168
1.11853
1
1.1186
1.12237
1.11856
1.11858
1.1186
1.11927
1.11866
1.1191
1
0.979559
1.11862
1.11852
0.955268
1.1186
0.996015
1.08123
1.11861
1.11876
1.11869
1
1.1192
1.08013
1.11903
0.979121
1.11907
1.12077
1
0.963182
1
1.11709
1
1.08425
1
1.11501
0.964051
1
1.11842
1.11887
1
1.11896
1.11897
1.11987
1.11941
1.12017
1
1.12072
1
1
1
0.970331
1.11853
1.11849
1.11854
1.11859
1.1192
1.11875
1.11806
1.11867
0.970951
1.00875
1
1
1.12254
1.11863
1.11853
1.11853
1.00001
1.06349
1
1.12007
1.10559
1
1
0.920438
1.11861
1
1
0.898057
1.11855
1
1.12074
1.11858
1.12079
1.11445
1.11862
1
0.887029
1.03016
1.11872
1.11861
1
1.11852
1.11857
1.06505
1.00311
1.0275
1
1.11952
1.1185
1
1
0.888744
1
1
1.11857
1.11861
1.11836
1.11853
1.11851
1.11941
1.11864
1.11839
1.11856
1
0.998925
1.11846
1.11859
0.999135
1.11858
1.11858
0.889232
0.889543
1.11825
1.11926
1
1
1.00042
1.11853
1.11834
1.11854
1
1.11858
1
0.958359
1.12018
1.11955
1
1.05796
1.11869
1
1.11953
1
1.11851
1.07983
1.11825
1
1.11868
1.1186
0.888711
1.11862
1
1.1186
1.12025
1
0.889483
1.1189
1.1027
0.999333
1.11486
1.11861
1
1.00098
1.11867
0.99939
1.1186
1
1
1.11839
1
1.11866
1.11857
0.998975
1.09737
1
1.11858
1
1
1
1
1.11852
1
1
1.11825
1
1.11854
1
1.07907
1.1182
1.1185
1
1
1.00075
1
1.11874
1.11856
1.1186
1.1186
1.1187
1.1185
1.11865
1
1.11851
1.11847
1
1.11863
1.11854
1
1.11844
0.97936
1.01713
1.11852
1.11855
1.11863
1
1.11865
1
1.11855
1.11855
1
1.11845
1
1
1
1
1.11858
0.885317
0.999397
1
1.11862
1.11884
1
1.11851
1
1.00159
0.892429
1.11861
0.999884
1
1.11834
0.99954
1.11855
1
0.999936
1
1.11848
1.11873
1.11842
1.11936
0.895251
1.11884
1.11857
1.11873
1.0311
1
1
1.05415
1.11851
0.884754
0.893712
1
1.11862
1.11855
1.11853
1
1
1.11831
1.11855
0.999966
1
1.08669
0.885856
1
1.02323
1.12058
1.11835
0.999504
1.11851
1.12073
1
0.999671
1
1.11828
1.12026
1.05096
1
1.1116
1
1.00046
1.11839
0.889876
1.11848
1.11849
0.999139
0.999975
1.10425
1
0.999912
1
1.11893
1
1
0.884828
1.11863
1
1
1
1
1.11856
1.07043
1
1
0.889333
1.1186
1.0708
1
1
1
1.11371
1.11438
1.11986
1
1
1.11942
1
1.11857
1.11861
1
1
1.11897
1.11849
1.11412
1
1
1.11901
1.11884
1
1
1
1.11886
1
1
1
1.11874
1.12026
1.11914
1
1.11888
1.00001
0.904684
1.11849
1.11848
1
1.11975
1.11697
1.12059
1
1
1.11941
1
1.06913
1.11863
1
0.889364
1
1.11904
1
1
1.11842
1
1
1
1.04088
1.11857
0.89781
1
1.11889
1
1
1.1188
1
1.11948
1
1
1.11857
1.1186
1
1.00001
1
1
1
1
1
1
1.11878
1.11862
1
1.12063
0.890304
1.11987
1
1.11858
1.12012
1.11859
1.11765
1.12195
1
1
1.11863
1
1.07887
1.1197
1.11861
1
1.1192
1.11771
1
1.10756
1
1.11855
1.08009
1.11863
0.999277
1.11665
1.11016
1.11893
1.1187
1.01047
1.11855
1.11934
1
1.11852
1
1.11856
1
1
1
1
0.998987
1.11851
1.11862
1.09896
1
1.11938
1
1
1
0.885562
1
1.11607
1
1.10871
1.11506
1
1
1
1.1102
1.12063
1
1
1.11865
0.889814
1.02258
1
1.11968
1.1185
1.10904
1.11596
1.1185
1
1.11898
1
1
1
1
1.11891
1.11867
1
1.1163
1.01743
1.11868
1.11126
1
1
1.11169
1
1
0.892356
1.08613
1
1
1.11835
1
1.11944
1.10902
1
1.10878
0.890612
1.11865
1.11845
1.11871
1
0.896047
1
1
1
1.1186
1.09938
1
1.11946
1.11856
1
1.11861
1
1
1
1
1.11852
0.999813
1
1.11901
1
1
1.11851
1.11857
1
1.11971
1.02327
1.00001
1
1.1186
1
1.11862
1
1.00391
1.11855
1
1.11851
1
1
1.041
1.11865
1
1
1
1
1
0.998996
0.889609
0.888587
1.00579
1
1.00786
1
1.00803
1
1.11855
1
1.07842
1
1.1186
1
1
1
1.11859
1
1.09613
1.11869
1
1.06633
1.11871
1
1
1.12021
1.11844
1
1
1.01654
0.884967
1
1.11875
1
1
1
1
1.02179
1.11864
1
1
1
0.891496
1
1.11858
1.11853
1.12141
1
1
1
1
1.06221
1.12174
1
1
1
1.11921
1.11855
1.01642
1
1
1
1.11868
1.11858
1
0.889032
1.11859
1.11861
1.11842
1.11868
1.11827
1
1
1.11972
1.11842
1.11856
0.895074
1.01191
1.11865
1
1
1
1
1
1.11852
0.89203
1
1
1.11854
1.05683
1
1.11964
1
1
1
0.892685
1
1
1.03361
1.11858
1.11862
1
1.118
1.11931
1
1.02228
1
1.11915
1
1.11873
0.889985
1
1
1
1
1.11861
1.00002
1
1
1
1.11479
1
1
1
1
1.11852
0.891122
1.09484
1.11919
1
1.11844
1
1
1
0.999182
1
1.11895
1
0.943054
1
1
1.00001
1.11861
0.891983
1
1.11829
1
1.11882
1.11861
0.891812
1
1
1.11323
1
1
0.896675
1
1.11735
1
1.11385
0.999806
1.11856
1
1
1
1
1.12036
1
1
1.11859
1
1
1
1
1
1
1
1
1.08059
1
1.04121
1.11851
1
1
1
0.890046
1
1
1
1
1.11824
1.11857
1.01757
1
1
1.11887
1
1
1.11863
1
1
1
1
1
1
1.1186
0.935859
1.11851
1.11902
0.999097
1
1
1
1.07352
1
1
1.11841
1.11852
1
1
1
1
0.891076
1
1
1
1.07769
1
1.11855
1.11935
1
1.11884
1
1
1
1.06752
1
1.12058
1
1.11858
1
1
0.998867
1.11854
1
1
1
1
1
1.11896
1.00001
1
0.894265
1.11928
0.894492
1
1.1185
1
0.998813
1
1.11884
1.11914
1
1.11681
0.967623
1.11852
1.12001
1.00001
1
1
0.890511
1
1
1
1.11855
1.07232
1.11845
1
1
1
1
0.999064
1.11892
1
0.890466
1
1
1
1
1
1
1
1.12031
1.11877
1.11804
1
1
0.999106
1
0.996603
1
1
1
0.889624
0.996496
1
0.886657
0.890934
1
1.11871
1.11855
1
1.11887
1.11857
0.890339
1.08132
1
1
1
0.890343
1.11875
1
0.889228
1
1.11873
1.02335
1
1
1
1
1.11863
1.11995
1
1
1.11856
1
1
1.1201
1.11862
1
1.11276
1.11861
1.12013
0.991558
1.11856
1.00251
0.890186
1.09343
1.11843
1
1
1
0.889774
1
0.889877
1.11923
0.990631
1.11854
0.987892
1
1.11858
1.05815
1
1
1.11848
1
1.05235
1.11837
1
1
1.11873
1.11909
0.889785
1.07112
0.99997
1
1.07597
1
1.11948
0.983697
1.12119
1.11815
1
1
1
1
1.11477
1
1
1.11872
0.999898
1.11872
1.09705
1.11868
0.894519
1
1
1
1
1.11873
1.00001
1.11854
1
1.11859
1.11826
1.0164
1.11945
1.04106
1.11879
1
1.08385
0.900151
1.11919
1.11853
1.09762
1.02328
1.11959
1.11853
1.11848
1.11883
1
0.975543
1.01881
1
1.11846
1.05897
1.11862
1.00001
1
1
0.901543
1.11822
1.11944
1.09823
1
1.04884
1
1.11919
1.11933
1
1.11873
1.11918
1
1
1
1.11895
1
1.0492
1.11851
1.08476
1
1.11848
1
1
1
1
1
1
1
1
1
1
0.896535
1
1.11093
0.888708
1.07332
0.999593
1.11842
1
1.06607
1
1.07938
1.10294
1
1.00057
1.1196
0.97434
1
1.11929
1.11841
0.983549
1
1.11861
1.11872
1.11914
1
1.1185
1.11856
1.11915
1
1.05702
1
1.00002
1.11871
1
1.11867
1.01893
1.11883
1
1
1.11831
1.11909
0.90042
1
1.11866
1.09156
1.11839
1
1
1.11996
1.11842
0.999498
1
1.10596
0.999116
1.11849
1.00001
1
1
1
1
1.05706
1
1.09471
1.11858
1.091
1.1184
1
1.00062
1
1
1.11997
1
1.11925
1
1
1
1
1
1
1.01582
1.06523
1
1
0.89079
1
1.11823
0.897761
1.11977
1
1.06175
0.99993
1.11872
1.07921
0.896163
1.06838
1.00001
1.11864
1.11827
1
1.07523
1.11921
1.11883
0.999542
1.11799
1.11558
0.887069
1
1
0.999358
1
1.11718
1
0.895821
1.11846
1
1
1.1051
1
1.11856
1
1.11877
1
0.902239
1
1
1.11856
1.11811
1.11939
1
1.11893
1.11855
1.11896
1
1
1.1164
1
0.923853
1
1
1
1.11886
1
1.11852
1.08021
1.11886
1
1.1185
0.999824
1
1
1
1
1
1
0.912987
1
1
1.11856
1
1.11957
1.11802
1
0.889497
0.891033
1
1.11893
1.02205
0.891908
0.885954
1
1.11867
1
1.1193
0.888957
1.00039
1
1
0.999863
1
1
1
0.999975
1.05234
1.11856
1
1
1.11884
1.07351
1
1.11108
1.11876
1.1187
1.05247
1.11648
1
1.11863
1
1.11737
1
1.11811
1.11852
0.999103
1.11884
1.11843
1
1
1
1
1
0.978902
1.12012
1.00001
1.00001
0.892453
0.999994
0.889809
0.886049
1
1.11868
1.11859
1.11867
1
1.11862
1
0.892781
1
1
1.11894
0.951212
1.11832
1
1.11862
1
0.996735
1.11866
1
1
1
1.11904
1
1.1187
0.890014
1
1
1.07253
1
1
1.06804
1
1
1.11865
1
1
1
1
1
1.11962
1.11846
1
1.11885
1.11889
0.890084
1.05829
1.119
1
1
1.10787
0.9997
1
1
1.1185
1.11869
1.08129
1
1.11871
0.892011
1.11173
0.999899
1
1.11838
1.00001
1.11889
1.10334
1.09297
1
1
1.11854
0.912394
0.891342
1
1.11857
1
1.11839
1
1.07419
1
1
1.11838
1.07936
0.890473
1
0.999468
1
1
1.00757
1.05257
1.11855
1
1.11969
1
1
1
1
1
1
1.01906
0.890192
1
1
1.01148
1
1
1
1
1
1.11836
1
1
1.11862
1.11845
1.08797
1
1
1
0.956328
1.1186
1.08531
1
1
1
1
1.11864
1
1
1
1.11866
1
1
1.08815
1.12315
1.01144
0.924843
1.11832
1.08651
1.1191
1
1.06303
1
1
1
0.888606
1.00071
0.895659
1
0.888958
0.885027
1
0.89029
1
1
1
1.05627
1
1.1187
1.11837
1.0004
1.06024
1.10103
0.889993
0.927757
0.966448
1
1.1185
1.11999
1.11851
1.11861
1.10325
0.966622
1
1.10384
1
1.11385
1
1
0.998987
1.00259
1
1
1
1.11905
1
0.890095
1
1.11881
0.895521
1
1
1.11859
1
1.11854
0.999863
1
1
1.11879
1.10607
1
1.12272
1
1
1.00427
1
1.0562
1
1
0.889843
1
1
1.1189
1
1.11875
1
1.00001
0.892904
1
1
0.896926
1.00031
1
1.1195
0.889778
1.11859
0.889066
1.11868
1
1
1
1
1
1
1
1
1
1
1
1.11414
1
1.11903
1.12011
0.889935
1
1
1
1
1
1
1.11566
1
1
0.892813
1
1
1.11981
1
1
1.04927
1.1011
0.89016
0.889033
0.905902
0.91929
1
0.999022
0.895746
1.00012
1.11107
0.999106
1
1
1.11865
1
1
1
0.929836
1
1.04668
1
1
1.05205
1.11867
1
0.889497
1
1
1
0.999076
1
1.11821
1.11859
1
0.889035
1
1.06777
0.889908
1
0.966771
1
0.998934
0.884834
1
1
1
0.998838
0.890279
1
0.889235
0.99955
1.06612
1.10693
0.888982
0.893002
1
0.997095
1
0.999615
1
1.11833
1.11864
1
1.00477
1.11869
1.11852
1
1
1.11858
1
1
1.00001
1
1.11894
1
1
1.00527
1
0.999588
0.905194
1
1
1
1
1
1.11902
1.01119
1.00001
1
1
1
1
1
1.00001
1
0.889923
1.02905
0.999601
1.1204
1.11848
1
1.00395
1.11872
1.10286
1
1
0.886484
1.11875
1
1.11981
1
1.11878
1.08524
0.89016
1
0.889935
1.11453
0.999908
1
0.890303
0.887547
1
1
1.10187
1
1
0.88714
1
1
1
1.04059
1
0.889694
1.11875
1
1
1
1
1.11866
1
1
1.11819
1.10734
1
1
1
1.11908
0.886148
1
1.11871
1.1186
1
1.09689
1
1.00001
1
1
1.11392
1.00468
1
0.894698
1.06869
1
1
0.999221
1
1
1.11966
1
1
1.00001
1
1.11906
1
1
1
1
1
1
1
1.05566
1
1.11886
1
1
1.1189
1
1
1
1.11849
1.11824
1.0128
1
0.999317
1
1
1
1
1.12018
1
1
1.1186
0.89051
1
1
1
1
1
1
1.0981
1
1
1.11823
1.11903
1
1
1
1.11881
1.11827
1
0.999921
1.11777
1
1
1
1.00001
0.893369
1.00826
0.998908
0.998797
1
1
0.887409
1.11888
1
0.888947
1
1.11847
1.11422
0.890702
0.99983
1.11854
1.1189
1.11848
1
1
0.97968
1.10868
1.1015
0.888844
1
1
1
1.11866
1.11858
0.888996
0.999225
1
1.11857
0.891008
1
1.11602
0.890396
0.994245
1.00189
1
1.11846
1
1
1
1
1
1
1.00003
1.11123
1
1
1.11877
1
1
1
1.11856
1
0.88966
1
1
1
1.04428
1
1
1
1
1
0.935859
1
0.892292
1
1.11858
1.00002
0.960374
0.962042
1
1.0013
1.06597
1
1
0.889603
1.11847
1.11858
1.11857
1
0.886424
0.887646
1
1.11848
1
1
1
1
1
1.00001
1
0.892766
1.07949
1
1
0.889971
0.998409
1
1
1
1
0.884821
1
0.901243
1
1
1.1197
1
1
0.888529
1
1.11853
1
0.8897
1
0.890727
1
1.00235
1.11876
1.12248
1
1
1.12012
1
1
1.02906
0.999078
1
0.999494
1
1.11919
1
0.894155
1
1.12086
0.999703
1
1
0.939021
1
0.999716
0.888967
1.11892
1.04668
1
1
0.973827
1
1
1
0.938737
1
1
1
1.1186
1
0.891098
1
1
1
1
0.88929
1.11854
1.11005
0.889617
1
1.11972
1
1
1.1185
1.11974
1.10152
0.888121
0.999343
0.999779
1
1.11857
1
1
1
1
1.11832
1.00001
1
1
1.11881
1
1
1.11864
0.889556
1
1
1
0.893501
1
1
1
0.999611
1
1
1
1
1.09404
1
1.12005
1.11874
1.12109
1.11858
1.11872
1.11858
1
1.11873
1
1.11851
1.11859
1
0.999669
0.889354
1.10298
0.999975
1
1
1
1
1.0015
1
1.021
1
1
1
0.956294
1.11864
1.11829
1.11918
1.10573
0.999964
1
1.00667
1.11883
0.999403
1.01842
0.999216
0.889907
1
1.00001
1
1
1
1
1
1.11843
0.890088
1.11847
1.11863
0.998662
0.888609
1
1
1
1.11865
0.888878
1.10592
0.888022
1.11854
1.11916
0.891359
1.11835
1.00667
1
1.11924
0.940806
1
0.999645
0.889411
1
0.89024
1
1.11859
1.1186
0.923155
1
1.1193
0.890012
1
0.890898
1
1.11856
1
1
1.11782
1
0.95303
1
0.999899
0.890555
1.11838
0.999852
1
0.889114
1
1
1
1
1.06827
1
1.11858
1
1
1.12154
1
1
1.11872
1
0.891958
1
0.894846
1
1
1
1
1
1.11404
1.07168
1.11858
1
1.11858
1.11114
0.884767
0.889351
1
1
1.11846
1
0.890916
1
0.997778
1
1
1.11869
1
1.11893
0.888918
1.12103
1
0.888916
1
1
1.11847
1.11817
1
1.00001
1
1.11912
1
1
0.886186
0.999833
0.891258
1
1
1
1.11897
1.1195
1.11969
1
1
0.888087
1
1.11907
1
1
1
1.11472
1.11862
1.11858
0.888673
1.11913
1.11855
0.892268
1.11956
1.00001
0.893082
1.00529
1
1
1.11841
0.888621
1.07895
0.888563
1.11856
0.999233
0.888559
1.11906
1
1
1
1
1.11855
1.11989
0.890618
1
1.00001
0.890691
1.00001
1
0.889787
0.892871
1.08538
1.11861
0.999562
1.11854
1
1.11947
0.946853
0.890494
1.11861
1.12228
1
1.11854
1
1
1.11858
1
1.09197
1.11977
1
1
1
1
1.11852
1.11733
1.11827
1
1
1.11856
1.12057
1.11881
1
1.11854
1
1
1
1
1
0.889409
0.955694
0.888838
1
1
1.1187
1
1
1.11881
0.885634
1
1.11859
1.11738
1.11392
0.883953
1
0.888652
1
1.00001
1.11974
1.05857
1.11996
1.10943
1
0.889104
1
1.11817
1.08754
0.893012
1
1
1
0.940824
1
1
1.12115
1
0.894183
1.11851
1
1
1
1
1
1.09777
1.02768
1
1.11861
1
1.11872
1
0.999177
1
1.11875
1.1183
1.11836
1.11954
0.99988
1.11977
1
1.1185
1.11829
1.10223
1
1
0.889331
1.11967
1
1
1.11894
1.11853
1.11894
1
1.11869
1
1
1.00001
1.11814
1.11886
1.03549
1.02717
1.11853
1.1187
0.902856
1
1
1
1
1
1.04432
1
1
1.10272
0.893984
0.999987
1
1.11851
0.999969
0.999946
1.01986
1.11106
1.1202
0.974713
1
0.889519
1
1.00162
1.11866
1.1192
1.11763
0.999716
1
1
0.889494
1
1
1.11865
1.01409
1
1
1
1
1
1
1
0.999982
1.11967
1
1
1
1
1
1.07995
1
1.05852
1
1
1.11858
1.11973
0.892878
0.999647
1
1
1
0.890937
1.11954
1.11852
1
1
1
1
1
1
1
1
1.11871
1.1173
0.891178
1.01438
0.892464
1
0.886768
1
1.11848
1.03677
1
1
0.909917
1
1.11405
0.94331
0.999007
0.889129
1
1
1.11941
1.00001
0.999193
0.883999
1.12008
1.12044
1
1
1
1
1.1116
1
1
1.11856
0.999698
1.11911
1.00001
1
1
0.889421
1
1
1.11865
0.888442
0.933238
0.89499
1.11858
0.999802
1
1.11904
0.889296
0.889307
1.00538
1
1
1.12002
1.00001
1.05805
1
1
1.12003
0.891678
1
1
1.00004
1.11939
1.00004
1.11665
1
1.00001
1
1
0.913968
1
0.935135
1
1
1.11894
0.88946
1
0.933894
0.943668
1
1
1.11872
1
1
1
1.11873
1.11842
1.00001
1.11547
1.12008
0.935518
1.1185
1.11412
1
1
1.11782
1
1
1
1
1
1.12123
1.11848
1
1
1
1.11865
1.00006
1
0.889426
0.912217
1
1.00001
1.04796
1
1
0.971771
0.893865
1
1
1
1.11964
1.1097
1.1186
1
1
1
1
0.889884
1
1.11667
1
1.11721
0.889158
1.11954
1
1
1
0.888901
1
1.11909
1.00001
1
0.891537
1.04719
1
0.999904
1.12086
0.887126
0.888919
1
1.1198
0.884858
0.889727
1
0.889432
1
1
1
1
0.888496
1
1
1
1
1.11955
1
1.09322
0.888947
1
1
1
0.890137
1.11854
1
1
0.999077
1.11702
1
1.11844
1.11934
1
1
0.913583
0.888993
1
1
0.891012
1.04103
1.05901
1
1
1.12012
0.999243
1
0.999371
1.12024
1
1
1
1
1
1
1.1186
1
1.04527
1.04099
0.901223
1.10633
1
1.11856
1.11844
1
1
1
0.975963
0.890527
1
1.06431
0.999901
1.10403
1
1
1
1
1
1.00219
1.05634
1.11878
1.11842
1
1.1186
1
0.897112
1
0.999298
0.999936
1
0.888506
1
0.893877
1.00001
1.1193
1.11983
0.888714
1.11991
0.889258
0.99892
1.09436
0.88978
1.08953
1
1
0.999551
1
1
1
1.00002
1
0.890119
1
1
1
1
0.999883
1.11866
0.943
1
1
1
1.01049
1
1
1
1.07346
0.924919
1
1
1
1.01431
1.11998
1
0.888468
1
1.11897
0.972149
0.889677
1
0.889828
1
1
1.11281
0.999497
1.11052
1
1.00254
1
1
1.11872
1
1
1
1
1.02653
1
1.11858
1.11891
1.11955
0.889073
1.11861
0.999173
1.09882
1
1
0.885044
1
1
0.890644
1.11882
1
1
0.999988
1
1
1
0.884015
0.888776
1
1.1202
1
1.05923
1.11851
0.890318
1.10151
1
1
0.894008
1
1
1.11858
1.11862
1.04731
1
1
1.00044
1.11945
0.889035
0.891727
1.11997
1.11854
1.08524
1.04963
1
0.971358
1
1
1
1.11133
1.1185
1.11862
1
1
1.11863
0.888855
1.10829
0.884187
1
0.894927
1
0.889801
1.11861
0.886352
1
0.996923
0.898311
1
1
1
0.954711
1.10894
1.11864
1.11905
1.11971
1
1
1.12009
1
1
1.11856
1
0.888493
1
0.888931
1
1.11995
1
1
1.00867
1.09305
1
0.999656
0.88868
1.1186
1
0.888589
1.02454
1
1
1.0931
1.11863
1.11851
1
1.11854
1.03536
1
1.00668
1.11856
1
1
1
1
1.1185
1
0.887684
1.11881
0.89025
0.888955
0.950927
1.11852
1.04469
1.11861
1
1.11986
0.999265
1.00001
1.11848
1.12018
1
1.1194
1
1.11854
1
1.11965
1
1.00001
0.999988
1.11835
0.887926
0.894151
0.999387
1
1
1
0.888807
1
1.08141
1
0.885512
1
1.05095
1.11843
1.1193
1
1
1.00001
0.999843
1
1.11964
1.11849
1
1.05317
1.11882
0.956074
1.11847
1.00015
0.887441
1.02802
0.888639
1
1
1.02182
1.1205
1
1
1.01274
0.999583
1
0.889016
1
0.934896
1
1.11823
1
1
0.888934
1.03068
1.02022
0.999571
1.11866
1.1185
0.929402
0.999448
0.888884
0.888554
0.889509
1
1
1
0.99973
0.914808
0.894687
1
1.11858
0.999926
1.11859
1.11854
1.11991
1.11861
1
0.889805
1.11871
0.890391
1
1.11855
1.11863
0.999025
0.944719
1.11864
1.09075
1
0.889472
1
1
1.12085
1
1.00755
1.11866
1
0.889019
0.889198
1
1
0.884152
0.885038
1.11858
1.00001
1
0.885407
0.885064
1.1195
1.11558
1.11144
1.11969
1.03589
0.996859
1.05217
1.11789
1.09622
1
1.06532
1
0.885425
0.960632
1
0.889078
1.11858
1.00639
1.11891
1
1.11853
1.11967
1
1.11874
1.11861
0.889478
1.11937
1
1.12026
1
0.92175
0.889434
1.11871
1
1
1
0.889789
1.11873
1.11878
1
0.892798
1
1
0.890732
1.00001
0.883217
1.11991
1
0.947623
0.885728
1
1
1.07182
1
1
1
1.02168
0.890071
1
1
1
1.11924
0.889609
1
1.11848
0.888911
0.888472
1
1
1.11892
1
1.11833
1
1.11854
0.894528
1
1
0.889082
0.943484
0.888904
1
1
1
1
1.1194
0.887166
1
0.889764
1
1.11895
1
1
0.98088
1
1
0.946785
0.999911
1.00001
1
0.889967
0.893556
1
1
1
1
0.93868
1.11817
1.1195
1
0.889988
0.88872
0.973272
0.89397
1
0.947274
1
0.889231
0.996963
1
1
0.893237
1
1.11835
1.11618
0.889711
1
1
1
1.11895
1
1.01346
0.951295
1.04009
0.893804
1.05203
0.888655
1
1
0.911495
0.976053
1
1.01369
1
1
0.888771
1
0.983813
1.01509
0.889805
1
1.10015
0.92523
0.964515
1
1
1
0.894085
1
0.889745
0.889975
1
0.958102
0.889553
1.0216
0.920651
0.88492
1.11852
1
1.11859
1.06741
0.916322
1.11859
0.889417
0.999716
1.11956
1
1
1.11863
1
0.913702
1
1.02123
1
1
1.11858
1
0.93047
0.946534
1.12053
0.983989
1
0.924366
1.11848
1.11944
0.975259
1
1.11853
1.03326
0.956581
1
1.00672
1
0.893992
1.05405
0.929675
0.91982
1
1
0.895185
1.11856
0.990834
0.891043
0.8865
0.960346
1
1.00692
1.11963
1.11866
1
1
1
0.891344
1.05951
0.999998
1.11876
1.11026
0.888635
1
1.02704
0.963481
1.07591
1.10624
1
1.01371
1
1.00002
0.88488
0.955738
1
1
0.946033
0.885132
1.0126
1
1.00001
0.886039
1.058
1
1.1163
1
1.01166
1.06792
1
1.11578
1
1
1.11878
1
0.884723
1.11981
0.904194
1.03472
1
0.89261
0.999976
1
1.00001
1
0.938766
1.00756
0.890954
1.08821
1.11999
0.883002
1
1
1
1
1
0.991346
0.888528
1.01422
0.890981
0.889607
1.02195
1
0.999944
1.03133
1
1
0.889846
0.999569
1
1
1.03742
1
1.11962
1
1.11964
1.02678
1.00618
0.891129
1
1
0.888569
1
1
1
1
1.11867
1.01227
0.999449
1
0.884449
1.01478
1
1
1.08122
1
0.888716
1.11832
1
1
1
1.11859
0.888932
0.964237
0.885619
1.09222
1.11956
1
1
1.11852
1
0.884866
1
1
1
1
1
0.929892
1
1.11863
1
1
1.04438
1.11954
0.890569
0.96367
1
1.11846
1
1
1
1
1
1.11854
1.11966
0.885153
1.11854
0.883172
1
1
1.1185
1
1.12018
1.00171
1.00808
1.02051
1.11853
1.02006
1.08399
0.885041
1
0.886238
0.998371
1
1.11851
1
1
0.885818
1.1189
1
1.11947
1
1
1
1
1
1
0.890972
1.11955
0.956078
1.11862
1
0.889709
0.888913
0.913767
1.11755
1.1187
0.993212
1
0.939495
1
1.05046
1
1.11872
0.883657
0.889234
0.956157
1
1.11871
1
1.02129
0.895255
1
1.12028
1.10393
0.99968
1
1.11852
0.889624
1.11936
1.11856
1.11884
0.891925
1.02646
1
1
0.885351
1
0.941566
0.947821
1
1.00001
1.11849
1
1.119
1.02478
1
1.01303
1.12093
1
0.889286
1
0.928462
1
1
1.09956
1
0.940029
1
0.897129
1.01045
0.986582
0.885483
1.11852
1.09757
1.11959
0.891696
0.902381
0.998826
1
1
0.901194
1.11257
0.889644
0.99999
1
1.11857
1.11916
0.973337
1
0.889494
0.909733
1.08203
0.996215
0.883332
1
0.889026
1.03312
0.892857
1
1.00002
0.943668
1.11975
1.11877
0.952375
0.999885
1
1
0.913097
1
0.888749
1
0.887348
0.88956
1
1
1.00001
0.89425
1.11858
1
1
1.00002
1.00001
0.890595
1.11872
1.11862
1
0.890828
1.12001
1
1.02713
1
1
1.11909
0.887499
1
1
0.888969
0.922036
0.890762
0.889007
1
0.905634
0.999178
1.02785
0.885726
1
1
1.03638
1
1.10624
1
1
1.08493
0.89845
1
0.888777
1.03683
1.1187
1
1
0.895316
0.889252
0.883669
0.917461
0.889235
1.09163
0.999831
1
1
1
1
1.1187
0.888956
1
0.98265
0.999909
0.999566
0.999981
0.926938
1.03695
1
1.11854
1.11865
1
1
1.11461
1.00001
1
1.11852
0.892427
1.11885
1
0.883049
1.11856
1.00002
1
0.948399
1
0.886096
1
1.11931
1
1
1.11933
1
1
1.11901
1
1
1
1.12017
1
0.920793
0.912364
1
0.883291
1.1187
1
1
0.995098
1
1.11938
1.07202
1.09716
1
1
0.891062
1
0.889357
1.11855
1.11976
1.11892
1
1.11965
0.889659
1
0.889794
1.09756
1.10877
1.11855
1.11874
0.925879
0.886535
1
1.08041
1.11924
1.11941
1.11852
0.920716
1.04716
1
1.09228
0.924342
1
1
1
1.00001
0.969477
1
1.11936
1
1
1
1
1
1
1.00002
1.11801
1
1.11946
1.0906
0.889737
1.12007
1.01091
1.06253
1
1.11845
1
0.889176
1
1
1
1
1.10283
1
0.88475
1.11842
0.882857
1.11853
1.0971
1.0654
1
1.02487
1.05935
0.99877
0.889663
0.931597
1.00001
1
0.977469
1
0.886188
1.1191
0.88527
0.980102
0.958445
1
1
1
1.00418
1
1
0.889849
0.998888
1.11997
1
1.11856
1
0.889605
1
1
1.11854
1.11863
0.885215
1
1.11932
1
0.943556
0.886219
1.11905
1.10757
1
1.0214
1.1185
0.999619
1
1.05306
1.10545
1.11834
0.998766
1
0.999999
1.10238
1
1
1
1.11858
0.999572
1
1
1.11863
1
1
0.892218
1
1
1
1.11917
1
1
0.958316
1.04098
1.10883
0.929932
1
1.11853
1
1.04474
1
1.11924
0.999216
1.11867
1
0.889341
1
1.08194
1
1
1.11141
1
1.1187
1
1.11898
0.903839
0.891821
1.11938
1
1.10221
1
1.11927
1
1
1.00001
1.11831
1.11831
1.03436
1.11865
0.998752
0.888813
1.11862
0.96114
1
1.11848
1
1.1186
1
1.11906
1.11939
0.99892
0.888348
1
1.11854
1
1.01097
1
1
0.999415
0.921726
1.107
1
1.10895
1
0.963971
0.885836
1.11869
1.11866
0.902433
1
1.11879
1.11962
1.11893
0.899216
1.11848
0.894596
1.11902
1.11994
1
1
1.11859
1
1
1
1
0.889715
1
1
1.11938
1.11856
1
1.11864
1
1.12032
1.11973
1
1.10059
1
0.883412
1.11845
1.09169
1.03846
0.883239
1.11859
1
1
0.88787
1
1
1.11851
1
1
0.934848
1
1.11865
1.00002
1.11869
0.885564
1.11989
1
1.1185
1.11446
0.969713
1
1.11833
0.925491
1.11904
1.08675
1.11858
1.11902
0.999188
1.11993
1.1187
1.11866
1.11864
1.0002
1
0.888701
1
1.11981
0.950105
1.10922
1
1.11662
1
1
1
1
1
1.11797
0.886664
0.888873
1.119
1.11852
1
1
1
1
1
1.11779
1.10857
1.11867
1.00681
1
1
1
1.00001
1.11832
1.11853
1
1.11918
1.11955
0.894044
1.08581
1
1.11856
1.11955
1.11781
0.999437
1.11868
1.11872
1
1.10944
1
1
1
1
1
1
1.1186
1.12019
1.11122
1.11862
0.888442
0.906901
1.11856
1.11868
1
0.888404
0.984042
1
1.06059
0.885793
1
0.999846
0.999504
0.889103
1
1.11868
1
1
1
1.11947
0.986035
1
1.11851
1.11856
1
1.11874
1
1
1.11857
1
0.888758
1
1.1187
1
1
0.893072
1
1.11864
1
0.884583
0.886616
1
1.11798
1
0.885403
0.967523
1
1.11861
1
1
1
1.11955
1
0.890769
1.01859
1.11897
1.1189
1.1185
1.01449
1.11899
1.11851
1
1
1
1
1
1.11848
1
0.9998
1.11887
1
0.883312
1
1.1185
1.05902
1.01869
1.05892
1.02
1.11915
0.909143
1.11853
1
0.891057
0.999185
1.11858
0.982868
1.11861
1.11866
1.11446
1
1.11909
1.11848
1.11854
1
1.00001
1
1
1.11914
1.08701
1
1
0.889672
0.999032
1
1.11872
1
1.11861
1.11856
1.11831
0.974306
1.11869
1.11869
1.00196
1.06121
1.11954
1.1187
1
1.11037
0.949252
1.11326
0.998322
1.1187
1
1.11851
1.11865
1
0.893135
0.982946
0.905303
1
1.02417
0.99908
1.11925
1
1
0.999032
1
1.06174
1.1123
1
1
1.11857
1
1
1.08723
1.11856
1.11429
1.11893
1.11865
1
1.11843
0.917633
1.11881
1
0.999478
0.892253
1
1
0.923607
1
1.04116
1
1.11895
1
1.11656
1.07811
0.889239
1
1
1
1
1
1.11862
1.00333
1
1.11919
1
1.11863
1.1186
1
1
0.994036
0.999955
0.884084
0.885764
0.914404
1.02517
1
0.999552
0.890689
1.00001
1
1.11855
0.983011
1.11136
1.09992
1
1
1
1
1
1.11862
1.1187
1
1.11892
1
1.11984
1.0823
0.998941
1
1
1
1.07173
1
0.989045
1
1.11882
1
1
1.11852
1
1
1
1
1
1.11883
0.88575
0.998873
1.10755
1.11859
1
1.11853
1
1
1
1
0.90035
1
1.11855
1.11857
1.11856
1.12011