/*--------------------------------*- C++ -*----------------------------------*\
  =========                 |
  \\      /  F ield         | OpenFOAM: The Open Source CFD Toolbox
   \\    /   O peration     | Website:  https://openfoam.org
    \\  /    A nd           | Version:  12
     \\/     M anipulation  |
\*---------------------------------------------------------------------------*/
FoamFile
{
    format      ascii;
    class       volVectorField;
    location    "3.35";
    object      U;
}
// * * * * * * * * * * * * * * * * * * * * * * * * * * * * * * * * * * * * * //

dimensions      [0 1 -1 0 0 0 0];

internalField   nonuniform List<vector> 
46253
(
(0.918828 0.000182974 0)
(0.875633 0.000158103 0)
(0.794703 0.000936663 0)
(0.875989 0.00019199 0)
(0.798602 0.00191288 0)
(0.801578 0.000639983 0)
(0.916956 0.0138792 0)
(1.0367 0.0100451 0)
(0.878971 0.000215582 0)
(0.879559 0.000263035 0)
(0.918916 0.000176444 0)
(1.08425 -0.0665862 0)
(0.893807 0.000210068 0)
(0.893137 0.000144009 0)
(0.92 6.25683e-14 0)
(0.880865 0.000169633 0)
(0.881344 0.000229727 0)
(0.888613 0.000173639 0)
(0.887942 0.000133529 0)
(0.884183 0.000219435 0)
(0.884579 0.000256709 0)
(0.80758 0.00330525 0)
(0.92 1.87721e-14 0)
(0.916449 0.00176173 0)
(0.91146 0.0130656 0)
(0.877635 0.000305888 0)
(0.882597 0.000191923 0)
(0.883035 0.000242748 0)
(0.877179 0.000208449 0)
(1.02002 0.0129712 0)
(0.948773 0.0419103 0)
(0.898835 0.000115797 0)
(0.899273 0.000274535 0)
(0.885805 0.000280744 0)
(0.886257 0.000358012 0)
(0.92 1.22053e-13 0)
(0.891454 9.61187e-05 0)
(0.891781 0.000169918 0)
(0.966272 -0.0105533 0)
(0.92 1.84846e-13 0)
(0.910959 0.00836436 0)
(1.05665 -0.0665991 0)
(0.897237 -7.9205e-05 0)
(0.897561 -5.03403e-05 0)
(0.873722 -0.0638595 0)
(0.889895 5.99623e-05 0)
(0.890313 7.71533e-05 0)
(0.92 -6.47988e-14 0)
(0.903106 -4.86692e-05 0)
(0.903618 -5.75077e-05 0)
(0.904786 0.000105626 0)
(0.905297 0.000163332 0)
(0.818584 0.00178061 0)
(0.984071 0.0152579 0)
(0.785509 0.0109193 0)
(1.04814 -0.0389152 0)
(0.908795 -6.05402e-05 0)
(0.909373 -3.97976e-05 0)
(0.881015 0.0632233 0)
(0.925845 0.00907554 0)
(0.92 -3.82417e-14 0)
(0.926516 0.00414032 0)
(0.92 5.12528e-14 0)
(0.92 -3.32745e-14 0)
(0.92 -1.86656e-14 0)
(0.89537 -1.46378e-05 0)
(0.895989 -3.64509e-05 0)
(0.812142 0.000541443 0)
(1.04608 -0.0355355 0)
(0.860657 -0.0663641 0)
(0.915353 0.0139516 0)
(0.910674 6.00052e-05 0)
(0.911221 0.000141628 0)
(0.931091 -0.00704915 0)
(0.823292 0.00190532 0)
(0.917199 0.00210166 0)
(0.921842 2.4393e-05 0)
(0.922459 -2.90196e-05 0)
(0.92 9.54007e-15 0)
(0.900955 -1.89799e-05 0)
(0.901784 4.72773e-05 0)
(0.914774 8.60106e-05 0)
(0.817081 0.00209099 0)
(0.915318 9.35371e-05 0)
(0.928394 0.0137587 0)
(0.828933 0.00140941 0)
(0.935401 -0.000148331 0)
(0.936095 -0.000285684 0)
(0.989542 -0.0017104 0)
(0.92 -3.89953e-12 0)
(0.92 9.01205e-14 0)
(0.916715 0.00856863 0)
(0.830109 0.00104271 0)
(0.90669 -1.96906e-05 0)
(0.92 2.55674e-13 0)
(0.907386 1.00455e-05 0)
(0.831375 0.00124036 0)
(0.92 1.31339e-13 0)
(0.883133 0.0631368 0)
(0.92 7.2745e-14 0)
(0.92 1.45655e-13 0)
(0.832458 0.000886983 0)
(0.826149 0.00036382 0)
(0.949724 0.0410256 0)
(0.787907 0.00636269 0)
(0.91864 0.0136118 0)
(1.0432 -0.0677188 0)
(0.949956 -0.000491325 0)
(0.950696 -0.000525634 0)
(1.04904 -0.0551238 0)
(0.937653 0.00380035 0)
(0.912705 -6.6262e-05 0)
(0.913404 -7.72293e-05 0)
(0.92 1.38412e-13 0)
(0.92 -4.58321e-14 0)
(1.05607 0.00174035 0)
(0.90437 -0.0683353 0)
(0.925323 0.00915283 0)
(0.778694 0.0644001 0)
(1.02861 -0.0313689 0)
(0.92 1.17718e-14 0)
(0.804589 0.00162901 0)
(0.916667 -5.66392e-05 0)
(0.917261 -0.000108743 0)
(0.83738 0.000223919 0)
(0.772577 0.0580866 0)
(0.92 8.85239e-14 0)
(1.05844 -0.0482245 0)
(0.769292 0.0105911 0)
(0.924862 -5.65725e-05 0)
(0.960438 -0.000654213 0)
(0.9612 -0.000682611 0)
(0.804925 0.0029714 0)
(0.915425 0.0145613 0)
(0.92572 -0.000132444 0)
(0.92 5.11193e-14 0)
(0.929162 -0.000255853 0)
(0.929645 -0.000429712 0)
(1.02732 -0.0322087 0)
(0.92 5.10539e-14 0)
(0.920562 -7.49095e-06 0)
(0.966798 -0.00067519 0)
(0.967597 -0.000708017 0)
(0.94952 0.0300348 0)
(0.919995 5.91874e-05 0)
(0.776451 0.008059 0)
(0.933057 -0.000270287 0)
(0.933816 -0.000347919 0)
(0.970049 -0.00163544 0)
(0.92 8.52104e-13 0)
(1.04691 -0.0582102 0)
(0.819976 0.000375686 0)
(0.92717 -6.30762e-05 0)
(0.927888 2.44146e-05 0)
(0.948564 0.0288021 0)
(0.863723 -0.0671399 0)
(1.05041 -0.0467529 0)
(0.92 1.98932e-13 0)
(0.939428 -0.000396856 0)
(0.78851 0.00845575 0)
(0.940079 -0.000475362 0)
(1.04765 -0.0682786 0)
(1.0491 -0.0372886 0)
(0.92 5.61186e-14 0)
(0.916425 0.0144304 0)
(0.930885 -0.00029471 0)
(0.915256 0.0146866 0)
(0.931516 -0.00011652 0)
(0.7061 0.0405121 0)
(0.92 1.19115e-13 0)
(0.943622 -0.000425288 0)
(0.944276 -0.000597419 0)
(0.810514 0.00251283 0)
(0.912367 0.00889378 0)
(0.791945 0.00422923 0)
(0.828181 -0.073638 0)
(0.869459 -0.0143193 0)
(0.832618 0.0023099 0)
(0.920398 -0.00591726 0)
(0.902417 -0.0736514 0)
(0.790943 0.0023095 0)
(0.949036 0.0284768 0)
(0.947904 -0.000514589 0)
(0.94855 -0.000648232 0)
(0.874372 0.0145084 0)
(0.937443 -0.000378491 0)
(0.938183 -0.000173573 0)
(0.891114 -0.0713632 0)
(0.874049 0.0141657 0)
(0.871497 0.0130547 0)
(0.821682 0.00161151 0)
(0.835493 3.34766e-05 0)
(0.914815 0.00530318 0)
(0.835425 7.9007e-06 0)
(0.919491 0.000161896 0)
(0.919092 0.000373955 0)
(0.943853 -0.0117009 0)
(0.841837 0.000647548 0)
(1.00253 -0.00143058 0)
(1.00317 -0.00138471 0)
(0.92 5.0299e-14 0)
(0.92 4.13859e-14 0)
(0.941591 -0.000295081 0)
(0.942226 -0.000223792 0)
(0.92 1.50658e-13 0)
(0.87997 -0.0719599 0)
(0.950676 0.0279941 0)
(0.954095 -0.000616509 0)
(0.954781 -0.000759444 0)
(0.92 2.06194e-13 0)
(0.92 9.43463e-14 0)
(0.776054 0.069696 0)
(0.904399 0.00966353 0)
(0.827576 0.00119148 0)
(0.84772 -0.0268228 0)
(0.842659 0.000791868 0)
(0.950739 0.0295695 0)
(0.927626 0.0112857 0)
(0.958401 -0.00064974 0)
(0.81021 0.00135828 0)
(0.814554 0.00123449 0)
(0.95902 -0.000811046 0)
(0.822015 -0.0713715 0)
(0.945709 -0.000453261 0)
(0.946382 -0.000325984 0)
(0.919745 0.00696912 0)
(0.840218 0.0014146 0)
(0.835788 0.00143378 0)
(1.01267 -0.00138991 0)
(1.01355 -0.00121415 0)
(0.912556 0.0569824 0)
(0.92 -3.03041e-13 0)
(0.92 8.5136e-11 0)
(0.92 1.6492e-10 0)
(0.838326 0.000384482 0)
(0.92 1.93777e-13 0)
(0.919795 8.12685e-05 0)
(0.92 2.54303e-13 0)
(0.914156 0.0557416 0)
(0.902659 0.0585618 0)
(0.838396 0.00075512 0)
(0.833652 0.00108253 0)
(0.845694 0.000673329 0)
(0.919965 3.86625e-06 0)
(0.92 -3.73928e-14 0)
(0.824722 0.00137835 0)
(0.92 2.19369e-13 0)
(0.951178 0.0272289 0)
(0.846374 0.000505463 0)
(0.964729 -0.000716994 0)
(0.965348 -0.00086758 0)
(0.905031 0.0583473 0)
(1.02283 -0.00155053 0)
(0.847058 0.000632819 0)
(1.02347 -0.00143292 0)
(0.952107 -0.000603847 0)
(0.952857 -0.000345897 0)
(1.03088 -0.0265618 0)
(0.925125 0.0103705 0)
(0.848372 0.000114198 0)
(0.91222 0.0129004 0)
(0.92895 0.00760408 0)
(1.07597 -0.0583822 0)
(0.951688 0.0357053 0)
(0.971037 0.00100386 0)
(0.92 9.74101e-14 0)
(0.92 2.60608e-14 0)
(0.92 2.26347e-13 0)
(0.956283 -0.000638337 0)
(0.971046 -0.00078152 0)
(0.956902 -0.000486063 0)
(0.83563 0.00105564 0)
(0.92 1.62131e-13 0)
(0.92 2.7705e-14 0)
(0.971679 -0.000964339 0)
(0.839324 0.000909472 0)
(0.779678 0.0114987 0)
(0.92 2.13569e-16 0)
(1.00688 0.0143274 0)
(1.01381 -0.0182399 0)
(1.0321 -0.00197945 0)
(1.03298 -0.00174315 0)
(0.82471 0.000764814 0)
(0.8275 0.000682144 0)
(0.92 2.51902e-13 0)
(0.911052 0.00568261 0)
(0.9547 0.00757255 0)
(1.03542 -0.033459 0)
(0.94688 0.0241874 0)
(0.92 9.70049e-14 0)
(0.886631 0.0633755 0)
(0.887637 0.0628634 0)
(0.934729 0.0103208 0)
(0.92 -1.30294e-13 0)
(0.891768 0.0624927 0)
(0.931297 0.0497623 0)
(0.834853 0.00173254 0)
(0.933424 0.0495788 0)
(0.906553 0.00456245 0)
(0.975393 -0.000843427 0)
(0.784924 0.0716319 0)
(0.975923 -0.00108902 0)
(1.05384 -0.0436337 0)
(0.788261 0.0531032 0)
(0.817709 0.00102103 0)
(0.962711 -0.000794767 0)
(0.963467 -0.00050143 0)
(0.92 1.26133e-13 0)
(0.955051 0.0421741 0)
(0.873697 0.0136373 0)
(0.872193 0.0137977 0)
(0.905309 0.00496228 0)
(0.92 1.06136e-13 0)
(0.979496 -0.000894344 0)
(0.852292 0.000526794 0)
(0.980103 -0.00115181 0)
(1.0309 -0.0317718 0)
(0.892755 0.0611693 0)
(0.92 1.81234e-13 0)
(1.01653 0.0100889 0)
(1.04612 -0.0456118 0)
(0.852905 0.000400801 0)
(0.916952 0.0139024 0)
(0.912268 0.0131643 0)
(0.939756 -0.000102943 0)
(0.945901 0.0262952 0)
(0.853531 0.000486235 0)
(0.844201 0.00014627 0)
(0.983709 -0.00106894 0)
(0.984298 -0.00125286 0)
(1.05069 -0.00231847 0)
(1.05089 -0.00218875 0)
(0.820248 0.00222283 0)
(0.92 1.46979e-13 0)
(0.854152 0.000375963 0)
(0.952245 8.69483e-05 0)
(1.03945 -0.0292177 0)
(0.969098 -0.000869253 0)
(0.969804 -0.000529983 0)
(0.92 2.70304e-13 0)
(0.818381 0.00094856 0)
(0.82169 0.000821734 0)
(0.92 -4.93717e-14 0)
(0.776701 0.0417526 0)
(0.856744 0.00156937 0)
(0.988066 -0.000938648 0)
(0.988682 -0.00130806 0)
(0.92 4.29096e-13 0)
(1.03665 -0.0323133 0)
(0.833789 0.00244026 0)
(0.886367 -0.00298854 0)
(0.92 7.31638e-14 0)
(0.895766 -0.0824177 0)
(0.92 8.62375e-14 0)
(1.0652 -0.0624764 0)
(0.859425 0.0040805 0)
(0.973258 -0.000776847 0)
(0.92 1.3133e-13 0)
(0.973828 -0.000610288 0)
(0.92 2.87578e-12 0)
(1.08534 -0.0646905 0)
(0.829291 -0.000441408 0)
(0.849676 0.0040381 0)
(0.827621 -0.000616458 0)
(0.867502 0.0119432 0)
(0.85131 0.0043819 0)
(0.851981 0.00434912 0)
(0.852074 0.00456051 0)
(0.992002 -0.00114047 0)
(0.856873 0.00415103 0)
(0.860204 0.00483365 0)
(0.859422 0.00470233 0)
(0.859555 0.00483207 0)
(0.992591 -0.00130296 0)
(0.851574 0.00380741 0)
(0.897165 0.060066 0)
(1.02579 -0.0313422 0)
(0.836549 0.000821191 0)
(0.857194 0.00373527 0)
(0.92 1.20292e-13 0)
(0.912833 0.0148199 0)
(0.959984 0.000679171 0)
(1.04767 -0.0475276 0)
(0.977357 -0.000938558 0)
(0.983848 0.0198903 0)
(0.977934 -0.000721836 0)
(0.856104 0.00153002 0)
(0.92 -1.16364e-13 0)
(0.996286 -0.00118937 0)
(0.751525 0.0599358 0)
(0.87494 0.0143512 0)
(0.947509 0.0256918 0)
(0.996731 -0.00152896 0)
(0.960473 0.00438966 0)
(0.857777 0.000629662 0)
(0.970677 0.017084 0)
(0.959282 0.0216647 0)
(0.960532 0.0244024 0)
(0.849068 0.00046461 0)
(0.990342 -0.0186152 0)
(0.92 1.11692e-13 0)
(0.929751 0.00046841 0)
(0.929172 0.000172969 0)
(0.899137 0.0589735 0)
(0.836511 0.000443887 0)
(0.855339 0.0345667 0)
(0.92 1.33322e-07 0)
(0.92 -1.39738e-12 0)
(0.92 -1.45142e-13 0)
(0.854769 0.000459079 0)
(0.850993 0.000126993 0)
(0.874688 0.0138302 0)
(0.802605 0.0666261 0)
(0.87451 0.0145029 0)
(0.994236 -0.0175685 0)
(0.856299 0.0306826 0)
(0.920616 0.00310704 0)
(0.844948 0.000551104 0)
(0.855341 0.000177289 0)
(1.02233 -0.0240539 0)
(0.855962 0.030935 0)
(0.92 1.63537e-13 0)
(1.00042 -0.00121456 0)
(0.846993 0.000185757 0)
(0.981679 -0.00110183 0)
(0.847001 0.000169744 0)
(0.92 -2.28279e-14 0)
(1.00102 -0.00154911 0)
(0.982168 -0.000930402 0)
(0.832255 0.000288488 0)
(0.888227 -0.00548868 0)
(0.92 1.57701e-13 0)
(0.92 1.78608e-13 0)
(0.91996 2.04332e-05 0)
(0.919993 1.0453e-06 0)
(1.00965 -0.0276639 0)
(1.00532 0.000208956 0)
(0.869296 0.0134785 0)
(0.92 1.17037e-07 0)
(0.977692 0.0133427 0)
(1.04782 -0.0454076 0)
(0.852122 0.0301629 0)
(0.944498 0.00853093 0)
(0.831548 0.000313472 0)
(1.00729 -0.0262502 0)
(0.947499 0.0291677 0)
(0.835322 0.000112389 0)
(0.849727 0.000564005 0)
(1.04549 -0.0319656 0)
(0.92 2.84555e-13 0)
(1.01395 -0.016851 0)
(0.98945 -0.0177541 0)
(0.92 2.38569e-13 0)
(0.921927 0.00782638 0)
(0.92 -3.11496e-13 0)
(0.858764 0.0361473 0)
(0.898543 0.0035868 0)
(0.857117 0.0342197 0)
(0.985894 -0.00105587 0)
(1.00391 -0.0277975 0)
(0.851038 0.000739854 0)
(1.00609 -0.0279909 0)
(1.00593 -0.0275025 0)
(0.986508 -0.000758872 0)
(0.857484 0.00413118 0)
(1.00716 -0.0276049 0)
(0.832684 0.00190145 0)
(0.867947 0.0155762 0)
(0.857036 0.0315128 0)
(0.85879 0.00476011 0)
(0.867919 0.0154405 0)
(0.966927 0.00211165 0)
(0.92 1.77947e-13 0)
(0.89232 0.0111495 0)
(1.05127 -0.0450005 0)
(1.00666 -0.00127614 0)
(1.02565 -0.0244328 0)
(0.954486 0.0257078 0)
(1.00719 -0.00156361 0)
(0.938423 -0.00576237 0)
(0.923026 0.000592459 0)
(0.922613 0.000367378 0)
(0.92 1.33758e-14 0)
(0.83936 0.00126674 0)
(0.841105 0.00118164 0)
(0.92 7.07658e-14 0)
(0.76407 0.00787609 0)
(0.92 2.26698e-13 0)
(1.01084 -0.0163665 0)
(0.921497 0.00947416 0)
(1.09172 -0.0742775 0)
(1.01183 -0.0165058 0)
(1.0039 -0.0272504 0)
(0.921342 0.00975833 0)
(1.00656 -0.0260623 0)
(0.92 1.08297e-13 0)
(0.85875 0.0040999 0)
(0.990072 -0.00125446 0)
(0.995915 -0.0186723 0)
(1.06357 -0.0540618 0)
(0.990502 -0.00103961 0)
(1.01069 -0.00147829 0)
(1.0112 -0.00163366 0)
(0.920248 0.000236941 0)
(0.925218 0.00958019 0)
(0.850328 0.004046 0)
(0.920284 0.000165803 0)
(0.948963 0.0369393 0)
(0.92 6.23063e-12 0)
(0.92 2.69627e-13 0)
(0.850401 0.000869495 0)
(0.926062 0.00707581 0)
(0.855277 0.0292449 0)
(0.980042 0.0210033 0)
(0.92211 0.00630585 0)
(0.92 1.91612e-13 0)
(0.875128 0.0142024 0)
(1.00159 -0.0233278 0)
(0.851635 0.000430224 0)
(0.92 2.53678e-14 0)
(0.953853 0.00167337 0)
(0.719971 -0.0530106 0)
(0.990667 -0.0182702 0)
(0.84772 0.000247127 0)
(0.849048 0.000222656 0)
(0.990401 -0.0178521 0)
(0.854379 0.00406512 0)
(0.992359 -0.0181719 0)
(0.98928 -0.0148048 0)
(0.992037 -0.0178119 0)
(0.92 -1.76564e-13 0)
(0.930123 0.00122338 0)
(0.895579 0.00427289 0)
(0.92 2.58788e-13 0)
(1.00426 -0.0283857 0)
(0.996108 -0.0183623 0)
(0.85716 0.000382849 0)
(0.92 -1.29066e-13 0)
(0.994261 -0.0011151 0)
(0.92 1.29388e-14 0)
(0.914119 0.0091216 0)
(1.01947 -0.025162 0)
(0.855898 7.52394e-05 0)
(0.837519 0.000460973 0)
(0.994838 -0.000881039 0)
(0.92 1.26896e-13 0)
(0.92 7.04276e-15 0)
(0.839646 0.0103411 0)
(0.840103 0.0107372 0)
(1.05378 -0.0840592 0)
(0.842432 0.0111752 0)
(0.841154 0.0110498 0)
(1.01678 -0.00155905 0)
(1.03168 -0.0240677 0)
(1.01732 -0.00197075 0)
(0.926958 0.0102758 0)
(0.848744 0.0122424 0)
(0.847901 0.0123583 0)
(0.852126 0.0126755 0)
(0.851564 0.0126 0)
(0.847734 0.000480249 0)
(0.853031 0.0323445 0)
(0.92 -1.00948e-12 0)
(1.00409 -0.027331 0)
(1.05359 -0.0785269 0)
(0.831765 0.00254862 0)
(0.879186 0.0125011 0)
(0.92 9.77462e-14 0)
(0.856405 0.0290008 0)
(0.836024 0.0036676 0)
(0.911161 0.00264167 0)
(0.913193 0.0128018 0)
(0.947491 0.025897 0)
(0.92 -7.59433e-14 0)
(0.945301 0.0267324 0)
(0.87159 0.0147821 0)
(0.838317 0.00183324 0)
(1.05624 -0.0453616 0)
(0.92 1.61968e-13 0)
(0.871467 0.0152484 0)
(0.867192 0.016463 0)
(0.99828 -0.00134772 0)
(0.842534 0.00728674 0)
(0.871293 0.013727 0)
(0.998881 -0.00107634 0)
(0.944072 0.0296619 0)
(0.921863 0.0107842 0)
(0.850898 0.00383896 0)
(0.919405 0.0111923 0)
(0.918835 0.0111688 0)
(0.916787 0.0115584 0)
(1.0725 -0.00942025 0)
(0.871062 0.0142904 0)
(1.02095 -0.00147206 0)
(1.02131 -0.00171113 0)
(0.954371 0.0356735 0)
(0.868939 -0.00121319 0)
(0.862464 0.0154327 0)
(0.834949 0.000110556 0)
(0.937747 -0.0034257 0)
(0.855356 0.000720822 0)
(0.784399 0.0494632 0)
(0.89215 0.0207864 0)
(0.855784 0.0301821 0)
(0.785445 0.0562912 0)
(0.853891 0.0351513 0)
(0.857624 0.00501261 0)
(0.955187 0.0383197 0)
(0.952384 0.0420036 0)
(0.858673 0.0039761 0)
(0.851694 0.00399112 0)
(0.898199 -0.000250224 0)
(1.00465 -0.0262544 0)
(0.857284 0.00387009 0)
(0.857145 0.000572429 0)
(0.961571 0.0218724 0)
(0.857598 0.0128779 0)
(0.85689 0.0128981 0)
(0.862036 0.0130656 0)
(0.861323 0.0131605 0)
(0.866327 0.0129745 0)
(0.865156 0.0131 0)
(0.870321 0.0126753 0)
(0.869351 0.0128685 0)
(0.896487 -0.0787175 0)
(1.00756 -0.025834 0)
(0.874869 0.0123539 0)
(0.96429 -4.18571e-05 0)
(0.874077 0.0125547 0)
(0.879444 0.0118914 0)
(0.856761 0.00402291 0)
(0.913494 0.0143099 0)
(0.918096 0.00158799 0)
(0.878662 0.0121597 0)
(0.851142 0.0042073 0)
(0.884194 0.0113513 0)
(0.856535 0.000332513 0)
(0.883519 0.0116317 0)
(0.92 1.1717e-13 0)
(1.00352 -0.0242982 0)
(0.889111 0.010733 0)
(0.852627 0.000643279 0)
(0.888281 0.0109858 0)
(0.834478 0.0695869 0)
(0.852969 0.00931122 0)
(0.893876 0.00974926 0)
(0.92 2.56455e-07 0)
(0.892741 0.0100758 0)
(0.92 -7.79798e-08 0)
(1.06628 -0.0770878 0)
(0.852613 0.000713597 0)
(1.02876 -0.0217674 0)
(0.918077 0.00136727 0)
(0.835181 0.00286026 0)
(0.845327 0.00667383 0)
(0.898452 0.00886474 0)
(0.897985 0.00927378 0)
(0.849975 0.00342006 0)
(0.994032 -0.02004 0)
(0.903791 0.00797855 0)
(0.90302 0.00828224 0)
(0.962795 0.019517 0)
(0.843419 0.000302483 0)
(0.844924 0.000289743 0)
(0.911184 0.00630641 0)
(1.02689 -0.00170953 0)
(0.91047 0.00655963 0)
(0.854216 0.0076593 0)
(1.00444 -0.00155501 0)
(0.915993 0.00484691 0)
(1.04325 -0.0422805 0)
(0.914721 0.0052559 0)
(1.0274 -0.00183286 0)
(1.0052 -0.00109662 0)
(0.857281 0.00634302 0)
(0.868478 0.0147056 0)
(0.865905 0.0137428 0)
(0.920347 0.00356701 0)
(0.919789 0.00383354 0)
(1.04907 0.00488369 0)
(0.858535 0.00580672 0)
(0.859987 0.00519322 0)
(0.925882 0.00230211 0)
(1.01275 -0.0165225 0)
(0.925437 0.00260262 0)
(1.0473 -0.043627 0)
(0.852681 0.00455653 0)
(0.933619 0.00011515 0)
(0.933051 0.000395476 0)
(0.867761 0.0159149 0)
(0.868079 0.0148596 0)
(0.867653 0.0157701 0)
(0.923464 -0.000401955 0)
(0.868186 0.0146816 0)
(0.995941 -0.0180205 0)
(0.978324 -0.0173758 0)
(0.948418 0.0440703 0)
(0.841063 0.000844636 0)
(0.940715 -0.00226271 0)
(0.839112 0.00147251 0)
(0.940133 -0.00199311 0)
(0.839536 0.00171294 0)
(0.853859 0.00209729 0)
(0.994651 -0.0176187 0)
(0.994439 -0.0173123 0)
(0.944857 -0.00405851 0)
(0.943663 -0.00394661 0)
(1.00986 -0.0274343 0)
(0.991162 -0.0158242 0)
(0.949338 -0.0059267 0)
(0.989701 -0.0150672 0)
(0.949243 -0.00551222 0)
(0.843506 0.00119689 0)
(0.958574 0.0227989 0)
(0.956271 -0.00854354 0)
(0.956107 -0.0081412 0)
(0.874327 0.0142521 0)
(1.03947 -0.0303501 0)
(0.962194 -0.00960127 0)
(0.961697 -0.00949616 0)
(0.702242 0.0253313 0)
(0.849792 0.00215457 0)
(0.849749 0.00225605 0)
(0.874923 0.0139586 0)
(0.965591 -0.0122077 0)
(1.00976 -0.0271936 0)
(0.964285 -0.0119461 0)
(0.883739 -0.0132346 0)
(0.925152 -0.00652611 0)
(1.00397 -0.0285792 0)
(1.05005 -0.0546402 0)
(0.970443 -0.0135697 0)
(0.971074 -0.0131768 0)
(0.97872 -0.0176509 0)
(0.976327 -0.01523 0)
(0.975058 -0.0151374 0)
(1.03106 -0.0310656 0)
(1.04361 -0.0354071 0)
(0.846294 0.0119733 0)
(0.930435 -0.00426856 0)
(0.776398 0.0475743 0)
(1.03091 -0.00169155 0)
(0.92 7.64846e-11 0)
(1.06956 -0.0517598 0)
(1.03119 -0.00218242 0)
(1.03938 -0.0430621 0)
(0.869927 -0.00947203 0)
(0.915383 0.00581973 0)
(0.854004 0.0127863 0)
(0.84544 0.0120472 0)
(0.852911 0.0128486 0)
(1.00854 -0.00156049 0)
(0.839104 0.00156094 0)
(0.843505 0.0115958 0)
(0.839504 0.00161964 0)
(0.92 -1.64909e-13 0)
(0.843018 0.0115518 0)
(1.00901 -0.00136568 0)
(0.92 -1.54388e-13 0)
(0.846887 0.0122022 0)
(0.847308 0.0121976 0)
(1.0183 -0.0237878 0)
(1.02989 -0.0330058 0)
(0.853825 0.00428387 0)
(0.959954 0.0210152 0)
(0.897099 -0.0812218 0)
(0.918556 0.000490395 0)
(0.92 1.75524e-13 0)
(0.92 -4.98693e-13 0)
(0.854782 0.000652994 0)
(0.852294 0.0316654 0)
(0.92 -4.11391e-13 0)
(0.965857 -0.00156251 0)
(0.838322 0.00191154 0)
(1.00801 -0.0263151 0)
(0.855168 0.0298988 0)
(0.923347 0.00747786 0)
(0.972263 0.000802096 0)
(0.921579 0.00716665 0)
(1.04371 -0.0432616 0)
(0.87591 0.013948 0)
(0.94658 0.00570038 0)
(0.908917 0.00523867 0)
(0.917031 0.0107249 0)
(0.854547 0.0317002 0)
(0.92 1.30495e-13 0)
(0.850095 0.00362607 0)
(0.92 -1.62258e-13 0)
(0.839114 0.000202983 0)
(0.920107 0.00685742 0)
(0.921831 0.00799864 0)
(0.96812 -0.000601404 0)
(0.915712 0.00392598 0)
(0.916166 0.00324116 0)
(0.858243 0.0049352 0)
(1.02465 -0.0190887 0)
(0.855349 0.000359511 0)
(0.858027 0.00398791 0)
(0.920181 0.00746491 0)
(0.983625 -0.0186474 0)
(0.855848 0.0342551 0)
(1.0634 0.000325276 0)
(0.855641 0.0353082 0)
(0.856063 0.0333133 0)
(0.960786 0.0226437 0)
(0.955928 0.0253386 0)
(0.854983 0.00405094 0)
(0.918732 0.00739582 0)
(1.05967 -0.0434557 0)
(1.00633 -0.0291033 0)
(0.92 4.06521e-14 0)
(1.00642 -0.0266573 0)
(1.03685 -0.00181599 0)
(0.92 -8.61189e-15 0)
(0.855229 0.0326694 0)
(1.00699 -0.027314 0)
(1.00219 -0.0235082 0)
(0.854941 0.0316704 0)
(1.03755 -0.00237987 0)
(0.834032 -0.0335678 0)
(0.851473 0.0303583 0)
(0.92 2.80771e-13 0)
(0.905691 0.00727866 0)
(0.905126 0.00766724 0)
(1.00775 -0.026269 0)
(0.837172 0.000458748 0)
(0.834717 -0.0226634 0)
(0.851179 -0.0302088 0)
(0.907014 0.00900951 0)
(0.988273 5.21392e-05 0)
(0.86862 0.0130187 0)
(0.995747 -0.018524 0)
(0.967246 0.0116718 0)
(1.05253 -0.0426924 0)
(0.838542 0.0699867 0)
(0.850326 0.000228305 0)
(0.851626 0.000225979 0)
(0.92 -9.46838e-15 0)
(0.927264 0.00139795 0)
(0.92694 0.00163083 0)
(0.856085 0.0128806 0)
(0.852151 0.0349967 0)
(0.92 1.87872e-13 0)
(1.01498 -0.00142995 0)
(0.934626 -0.000895325 0)
(0.92 -3.24104e-14 0)
(0.851624 0.0353218 0)
(0.934498 -0.000672081 0)
(1.0154 -0.00105306 0)
(1.00446 -0.0269934 0)
(1.00585 -0.0283707 0)
(0.92 2.09187e-13 0)
(1.01001 -0.0270582 0)
(0.990006 -0.0186043 0)
(1.07229 -0.0526598 0)
(1.00859 -0.0275618 0)
(1.04801 -0.0469681 0)
(0.952055 -0.0065425 0)
(0.873093 0.0141123 0)
(0.868015 0.0125571 0)
(0.950897 -0.00646726 0)
(0.92 6.19968e-14 0)
(0.874473 0.0141065 0)
(1.00405 -0.0245144 0)
(1.00714 -0.026544 0)
(0.874889 0.014351 0)
(1.04068 -0.00191053 0)
(1.02587 -0.0334235 0)
(0.994298 -0.0206714 0)
(1.03721 -0.0313664 0)
(1.04165 -0.0301639 0)
(1.04129 -0.00222923 0)
(1.03686 -0.0380283 0)
(1.03745 -0.037957 0)
(1.04803 -0.0455813 0)
(1.04981 -0.0457373 0)
(0.866247 0.000212383 0)
(0.840841 0.0220806 0)
(0.999774 0.00161827 0)
(0.840169 0.0220503 0)
(0.866862 0.000272181 0)
(1.00589 -0.0263379 0)
(1.02447 -0.0312184 0)
(1.0384 -0.0365131 0)
(0.853206 0.00852617 0)
(0.871676 0.0127833 0)
(0.989819 -0.0177222 0)
(0.843424 0.000591839 0)
(0.994674 -0.0179637 0)
(0.988964 -0.0175082 0)
(0.857253 0.0355146 0)
(0.858489 0.0364222 0)
(0.970502 -0.00281124 0)
(0.856773 0.034677 0)
(0.92 3.0891e-13 0)
(0.857163 0.0335775 0)
(0.856583 0.0037409 0)
(1.00585 -0.0253702 0)
(0.991681 -0.0160173 0)
(0.90955 0.0134947 0)
(0.847184 -0.0269059 0)
(0.859527 0.00419365 0)
(1.01864 -0.00187574 0)
(0.8486 0.00218234 0)
(0.991162 -0.0218146 0)
(0.992004 -0.0219866 0)
(1.01915 -0.00162495 0)
(0.852818 0.0307214 0)
(0.995259 -0.0239419 0)
(1.00072 -0.0254073 0)
(0.995218 -0.0241396 0)
(0.85665 0.00127044 0)
(0.856587 0.00108111 0)
(0.857215 0.00102356 0)
(0.85682 0.00171942 0)
(0.99894 -0.0254966 0)
(0.993929 -0.0181047 0)
(0.92 6.30997e-14 0)
(0.966898 0.0181324 0)
(0.856836 0.0318049 0)
(1.03934 -0.0396491 0)
(0.92 7.03501e-14 0)
(1.03524 -0.0368355 0)
(0.918104 0.00032596 0)
(0.91651 0.0140368 0)
(0.852964 0.00838009 0)
(1.04421 -0.00215502 0)
(1.04449 -0.00240432 0)
(0.923064 0.00812288 0)
(0.80918 0.0680745 0)
(0.855294 0.012995 0)
(1.0397 -0.0366996 0)
(1.05027 -0.00537403 0)
(1.06209 0.00803125 0)
(1.03602 -0.0355797 0)
(0.85092 0.0124267 0)
(0.84999 0.0125024 0)
(1.00636 -0.0286312 0)
(0.878682 -0.0161241 0)
(0.85308 0.00891736 0)
(0.852856 0.00882512 0)
(0.993273 -0.0167552 0)
(0.91748 -0.0812168 0)
(0.975704 -0.0191372 0)
(1.00431 -0.0282019 0)
(0.904468 5.95576e-05 0)
(0.844396 0.0117088 0)
(0.841038 0.00015695 0)
(0.843804 0.0117819 0)
(0.838673 0.00021095 0)
(0.840218 0.0106813 0)
(0.755603 0.0508276 0)
(0.839718 0.0105718 0)
(0.918683 0.000518322 0)
(1.04221 -0.0333588 0)
(1.04382 -0.0420778 0)
(0.987084 0.0209206 0)
(0.843559 -0.0101302 0)
(0.809416 -0.0207475 0)
(0.832984 -0.032698 0)
(1.01839 -0.0243418 0)
(0.916621 -0.000474873 0)
(0.918432 0.000594994 0)
(0.783521 -0.0263543 0)
(0.891106 0.0102384 0)
(0.886555 0.0110105 0)
(0.882062 0.0116609 0)
(0.896556 0.00950139 0)
(0.890445 0.0105574 0)
(0.92 1.9803e-13 0)
(0.937638 -0.00453918 0)
(0.885565 0.0112587 0)
(0.87732 0.0122118 0)
(0.89571 0.00975885 0)
(1.00535 -0.0281028 0)
(0.880968 0.0119209 0)
(0.91206 0.00680335 0)
(0.901065 0.00835696 0)
(0.876335 0.0124213 0)
(0.841286 1.38615e-05 0)
(0.872824 0.0126266 0)
(0.899917 0.00870928 0)
(0.871923 0.012831 0)
(0.867884 0.0163405 0)
(0.908536 0.00667021 0)
(0.884655 0.0610471 0)
(0.868191 0.0129194 0)
(0.867534 0.013086 0)
(0.907363 0.00705098 0)
(0.863635 0.0129293 0)
(0.864027 0.0159764 0)
(0.912937 0.00558245 0)
(0.862885 0.013007 0)
(0.856036 0.00888176 0)
(0.860045 0.0129873 0)
(0.912441 0.00586215 0)
(0.844268 0.000997634 0)
(0.918463 0.0043661 0)
(0.858794 0.0130851 0)
(0.92 1.15394e-13 0)
(0.860311 0.00488364 0)
(1.04849 -0.00153157 0)
(0.917826 0.00459869 0)
(0.867745 0.0161975 0)
(0.918842 0.000457729 0)
(0.867996 0.0151802 0)
(0.923568 0.00282154 0)
(0.916296 0.0113586 0)
(0.874512 0.0139091 0)
(0.867823 0.0150333 0)
(0.919701 6.70131e-05 0)
(0.922352 0.00323937 0)
(1.04916 -0.00216089 0)
(0.862827 -0.0243356 0)
(0.930801 0.000524147 0)
(0.853207 0.00431743 0)
(0.990939 -0.000519194 0)
(0.929286 0.00101281 0)
(0.937651 -0.00163307 0)
(0.936321 -0.00132571 0)
(1.04284 -0.0357409 0)
(0.942089 -0.00345191 0)
(0.941964 -0.00311526 0)
(0.94791 -0.00461868 0)
(0.855961 0.000610157 0)
(0.916563 0.0009667 0)
(0.947293 -0.00435203 0)
(0.853491 0.00257009 0)
(0.954792 -0.00717054 0)
(0.912929 0.0143424 0)
(0.853382 0.00240247 0)
(0.847988 0.00223188 0)
(0.954291 -0.00690407 0)
(1.02076 -0.020645 0)
(0.893601 -0.0189632 0)
(0.959342 -0.00929132 0)
(0.958024 -0.00913024 0)
(0.962793 -0.0110382 0)
(1.02478 -0.00191424 0)
(0.963225 -0.0106801 0)
(0.843421 -0.00776611 0)
(0.969575 -0.0123976 0)
(0.856025 0.00137586 0)
(0.985531 -0.0190245 0)
(1.02543 -0.0016075 0)
(0.968666 -0.0123403 0)
(0.961894 0.0202894 0)
(0.972772 0.0154487 0)
(1.00815 -0.0262789 0)
(0.97224 -0.01479 0)
(0.985752 -0.0201945 0)
(0.985741 -0.0201023 0)
(0.913055 0.00629239 0)
(0.971508 -0.0146527 0)
(0.977544 -0.0160896 0)
(0.978168 -0.015755 0)
(0.91877 0.000284398 0)
(0.815901 -0.00887571 0)
(0.769568 -0.053664 0)
(0.855512 0.00388012 0)
(0.816432 -0.0061289 0)
(0.85785 0.00453909 0)
(0.814656 -0.00899547 0)
(0.852912 -0.016391 0)
(0.900089 -0.0232749 0)
(0.92 8.73256e-14 0)
(0.774603 0.0534936 0)
(1.01898 0.000363035 0)
(0.92 1.48556e-14 0)
(1.02725 -0.00980341 0)
(0.98521 0.00208984 0)
(0.949157 0.0305191 0)
(0.954113 0.0341136 0)
(0.856079 0.00390448 0)
(0.874424 0.00218693 0)
(0.918866 0.00536113 0)
(0.914055 0.00628178 0)
(1.07105 -0.00356317 0)
(0.978478 0.00636991 0)
(0.921434 0.00461525 0)
(0.91725 0.00591829 0)
(0.920737 0.00498881 0)
(0.922385 0.0108095 0)
(0.946202 0.00795956 0)
(1.03 -0.0325645 0)
(0.98991 -0.0183028 0)
(1.00682 -0.0273078 0)
(0.855676 0.0042041 0)
(0.992119 -0.00816556 0)
(1.02237 -0.0317403 0)
(1.03809 -0.0427698 0)
(0.972237 0.0170029 0)
(0.92 1.24439e-14 0)
(0.894227 0.0117754 0)
(0.921075 0.0117499 0)
(1.10598 -0.0675491 0)
(0.92 -2.33292e-14 0)
(1.05295 -0.00137477 0)
(0.919429 0.0091758 0)
(0.98119 0.00511838 0)
(1.05238 -0.00160519 0)
(0.92 6.63503e-14 0)
(0.860336 0.0153864 0)
(0.850997 0.000541308 0)
(1.00547 -0.0112879 0)
(0.972462 0.0154448 0)
(0.891659 0.00829569 0)
(0.922444 0.00399119 0)
(0.961756 0.0210252 0)
(0.960458 0.0213361 0)
(0.920821 -0.0275904 0)
(1.02901 -0.00149601 0)
(0.978027 0.00615879 0)
(1.02954 -0.00121664 0)
(0.98545 -0.0189284 0)
(0.913172 0.00493194 0)
(1.06549 -0.0666493 0)
(1.02986 -0.0346202 0)
(0.905708 -0.0259133 0)
(0.988603 0.000583679 0)
(0.9153 0.00600187 0)
(0.981468 -0.0181926 0)
(0.851723 0.00286811 0)
(0.915546 0.00613539 0)
(0.878613 0.0142655 0)
(1.00235 -0.00999628 0)
(0.97495 0.00952989 0)
(0.842738 0.00108651 0)
(0.851807 0.00302987 0)
(0.865072 0.00186732 0)
(0.997896 -0.0208149 0)
(0.853337 0.0355382 0)
(0.85715 0.00089846 0)
(0.867136 0.00174271 0)
(0.851552 -0.0167523 0)
(0.970221 0.0109435 0)
(1.05037 -0.0501644 0)
(0.92 -4.56768e-14 0)
(0.922107 0.0148582 0)
(0.869871 0.00147723 0)
(0.99949 -0.0210974 0)
(1.00343 -0.00853446 0)
(0.914778 -0.000353517 0)
(0.92 2.19617e-14 0)
(0.728493 -0.063222 0)
(1.04091 -0.0445446 0)
(0.865291 0.0157828 0)
(1.04372 -0.0440528 0)
(0.990414 -0.0150474 0)
(0.990025 -0.0146644 0)
(0.782138 0.00577073 0)
(0.913379 0.00657732 0)
(0.994644 -0.0176803 0)
(0.855786 0.0290893 0)
(0.974629 -0.00375407 0)
(0.871747 0.00129756 0)
(0.968318 0.014302 0)
(1.0089 0.0132959 0)
(1.0188 -0.00973284 0)
(1.02985 -0.031061 0)
(0.857015 0.00129382 0)
(0.856496 0.00151239 0)
(0.993142 -0.00817369 0)
(0.985168 0.00164387 0)
(0.988859 -0.0211181 0)
(1.00509 -0.0268883 0)
(0.997282 -0.0164897 0)
(0.997083 -0.0163581 0)
(0.857064 0.0014274 0)
(0.989064 0.0153916 0)
(0.987514 -0.0210149 0)
(1.00687 -0.0274102 0)
(1.00965 -0.0271401 0)
(1.04806 -0.047734 0)
(0.96531 0.0149663 0)
(0.856147 0.02938 0)
(1.00195 -0.00766755 0)
(0.901072 -0.0231975 0)
(0.994134 -0.0229915 0)
(1.06136 -0.0530122 0)
(0.993871 -0.0225903 0)
(0.920619 0.0117372 0)
(0.92 3.71717e-14 0)
(0.842557 0.00165819 0)
(0.842075 0.00172149 0)
(1.02382 -0.0301217 0)
(0.996981 -0.0249862 0)
(0.914652 0.000435507 0)
(1.00846 -0.0272722 0)
(0.996309 -0.0250954 0)
(1.0167 -0.00107096 0)
(0.858225 0.00353345 0)
(1.0378 -0.0369956 0)
(1.00973 -0.0266793 0)
(0.897062 -0.011415 0)
(0.913488 0.00782418 0)
(0.897194 0.0115572 0)
(0.854511 0.00236853 0)
(0.852797 0.00215328 0)
(0.995332 -0.00442035 0)
(0.889521 0.0132097 0)
(0.845891 0.00197042 0)
(0.841096 0.0015574 0)
(0.854141 0.0262142 0)
(1.0034 -0.0266619 0)
(0.844304 0.00173538 0)
(1.00347 -0.0262544 0)
(1.00626 -0.0660837 0)
(0.990708 0.00285021 0)
(0.986333 -0.00190113 0)
(0.853424 0.0046982 0)
(0.856751 0.0283919 0)
(0.986235 -0.00196871 0)
(0.92 1.28486e-13 0)
(0.85423 0.0209893 0)
(1.0055 -0.025087 0)
(0.859132 0.0213093 0)
(0.852643 0.0209138 0)
(0.857888 0.00277013 0)
(0.89871 0.00928581 0)
(0.857219 0.0215348 0)
(1.00439 -0.0242623 0)
(0.981331 -0.00335985 0)
(0.899529 0.0106787 0)
(0.865601 0.0161265 0)
(0.921595 0.0114409 0)
(0.867401 0.0208605 0)
(0.882092 0.0145185 0)
(0.993478 -0.00336767 0)
(0.92 9.83896e-14 0)
(0.903506 0.0100561 0)
(0.865552 0.0212864 0)
(0.876032 0.0200027 0)
(0.848692 0.0339669 0)
(0.993902 -0.0206489 0)
(0.764759 -0.0464731 0)
(0.846725 0.0337271 0)
(0.841583 0.0294819 0)
(1.03596 -0.0347997 0)
(0.874098 0.0205418 0)
(0.842785 0.0299207 0)
(0.891615 0.0121597 0)
(0.878308 -0.000517283 0)
(0.92 3.37243e-13 0)
(0.843441 0.0170177 0)
(0.913783 0.0122998 0)
(0.884811 0.0186455 0)
(0.933218 0.000127353 0)
(0.938284 -0.00732167 0)