/*--------------------------------*- C++ -*----------------------------------*\
  =========                 |
  \\      /  F ield         | OpenFOAM: The Open Source CFD Toolbox
   \\    /   O peration     | Website:  https://openfoam.org
    \\  /    A nd           | Version:  12
     \\/     M anipulation  |
\*---------------------------------------------------------------------------*/
FoamFile
{
    format      ascii;
    class       volScalarField;
    location    "0.4";
    object      p;
}
// * * * * * * * * * * * * * * * * * * * * * * * * * * * * * * * * * * * * * //

dimensions      [1 -1 -2 0 0 0 0];

internalField   nonuniform List<scalar> 
46253
(
1
1
1
1
1
1
1
0.992419
1
1
1
0.90659
1
1
1
1
1
1
1
1
1
1
1
1
1
1
1
1
1
0.992913
1.03993
1
1
1
1
1
1
1
0.980448
1
1
0.90362
1
1
0.851312
1
1
1
1
1
1
1
1
0.988148
1
0.905581
1
1
1.12655
1
1
1
1
1
1
1
1
1
0.913685
0.857427
1
1
1
0.999961
1
1
1
1
1
1
1
1
1
1
1
1
1
1
0.984661
1
1
1
1
1
1
1
1
1
1.12503
1
1
1
1
1.03648
1
1
0.89777
1
1
0.899923
0.979677
1
1
1
1
0.981921
0.884976
1
1.33173
0.926753
1
1
1
1
1
1.39219
1
0.902178
1.00031
1
1
1
1
1
1
1
1
1
0.929999
1
1
1
1
1.03204
1
0.999973
1
1
0.980576
1
0.897501
1
1
1
1.00999
0.865153
0.902488
1
1
1
1
0.882966
0.900925
1
1
1
1
1
1.54502
1
1
1
1
1
1
0.881774
0.956138
1
1
0.887686
1
1.00887
1
1
1
1
1
0.851079
1
1
1
1
1
1
1
1
0.980233
1
1
1
1
1
1
1
1
0.878865
1.00581
1
1
1
1
1.33214
1
1
0.955774
1
1.02878
1
1
1
1
1
0.879149
1
1
1
1
1
1
1
1.08167
1
1
1
1
1
1
1
1.07948
1.09495
1
1
1
1
1
1
1
1.00531
1
1
1
1.09285
1
1
1
1
1
0.923265
1
1
1
1
0.897785
1.03271
1
1
1
1
1
1
1
1
1
1
1
1
0.999987
1
0.987899
0.935181
1
1
1
1
1
1
1
0.919402
1.02332
1
1.11795
1.11635
1
1
1.10972
1.05915
1
1.05732
1
1
1.32845
1
0.907445
1.35108
1
1
1
1
1.02959
1
1
0.941469
1
1
1
1
0.927971
1.10826
1
0.987659
0.912121
1
1
1
0.980371
1.02056
1
1
1
1
1
1
1
1
1
1
0.91923
1
1
1
1
1
1
1.08268
1
1
1
1
0.93226
1
0.984435
1
0.883789
1
0.88025
1
1
1
1
1
0.881297
1
1
1
1
1
1
1
1
1
1
1
1
1
1
1.10224
0.930285
1
1
1
1
1
0.907017
1
0.993022
1
1
1
1
1.45346
1
1.02379
1
1
1
0.992006
1.00021
0.997121
1
1
1
1
1
1.10061
1
1
1
1
1
1
1
1
1.28678
1
1
1
1
1
1
0.92532
1
1
1
1
1
1
1
1
1
1
0.937609
1
1
1
1
1
0.984203
1
1
0.988738
0.915119
1
1
1
1
1.01302
1
1
0.912344
1
0.937396
1
1
1
1
1
0.986147
1
1
1
1
1
1
1
1
1
1
1
1
1
1
1
1
0.986918
0.906521
1
0.936006
1.00279
1
1
1
1
1
1
1
1
1.00047
1
0.939869
1
0.888211
0.942053
1
1
1
1
1
1
1
0.899554
1
1
1
1
1
1
1
1.03552
1
1
1
1
1
0.993188
1
1
1
1
1
1
1
0.870732
1
1
1
1
1
1
1
1
1
0.969534
0.965918
1
1
1
1
1
1
1
1
0.933659
1
1
1
1
1
1
1
0.870201
1
1
1
0.93463
1
1
1
1
1
1
1
1
1
1
0.887129
1
1
1
1
1
1
1
1.02702
1
1.01998
1
1
0.906113
1
1
1
1
1
1
1
1.01677
1.08393
1
1.08444
1.0853
1.08634
0.975577
1
1
1
1.02133
1.00695
1
1
0.999257
1
1.34257
0.94545
1
1.34967
1
1
1.03031
1.03466
1
1
0.987379
1
1
1
0.987774
1
1
1
1
1
1
1
1
0.848778
1
1
1
1
1
1
1
1
1
1
1
1
1
1
1
1
1
1
1.21265
1
1
1
1
1
0.876137
1
0.935611
1
1
1
1
1
1
1
1
1
0.992304
1
1
1
1
1
1
1
1
0.928328
1
1
1
1
1
1
1
1
0.987239
1
1
1
0.949136
1
0.918615
1
1
1
1
1
1
1
1
1
0.999999
1.04164
1
1
1
0.999998
1
1
1
1
1
0.999998
1
1
1
1
0.999999
1
1.00053
1
0.999999
1
0.919782
1
1
1.27819
1
1
1
1
1
1
1.10883
0.981105
1
0.901738
1
1
1
1
1
0.935383
0.916562
1
0.980294
1.33098
1
1
0.89943
1
0.925228
0.997876
1
1
1
1
1
1
1
1
1
1
1
1
1
1
0.931604
0.940984
1
0.996076
0.850959
1
1
1
1
1
1
1
1
1
1
1.08562
1
1.08605
0.934707
1
1
1
1.08781
1
1
1
1
1
1.08351
1.08636
1
1
1
1
0.933959
1
1
1.08639
1
1
0.983077
1
1
0.998551
1.00109
1
1.08398
0.906
1
1
1
1
1
1
1
1
1
1
0.858822
1
1
1
1
1
1
0.865191
0.847155
1
1
1
1
0.992999
0.918741
1.20323
1
1
1
1
1
1
1
1
1
1
1
1
1
1
1
1
1
1
1
0.899514
1
0.91427
1
1
1
0.999999
1
1
1
1
1
1
0.953814
1
0.916749
0.917208
1
0.947276
0.938331
0.915966
0.913595
1
1
0.995479
1
1
1
0.966726
0.950588
1
1
1
1
1
1
1
1
0.984168
1
1
1
1
1
1
1.00741
0.849764
1
1
1
0.999999
0.999999
1
1
0.999999
0.999999
0.999999
1
1
1
1
0.999999
1
1
0.99061
1
0.945547
1
0.942279
1
1
1
1
1
1
1.26951
1
0.948352
0.978908
0.978197
0.949583
1
1
1
1.11412
1
1
1
0.882506
0.978203
1
1
1
1
1
1
1
1.46155
1
1
0.925388
0.933514
0.994375
0.856484
0.79965
0.848645
0.925207
1.00109
1
0.875868
1
1
1
1
1
1
1
1
1
1
1
1
1.00001
1
1
1
1
1
1
1
1
1.12396
1
1
1
1
1
1
1
1
1
1
1
1
1
1
1
1
1
1
1
1
1
1.08687
1
1
1
1
1
0.863546
1
1
0.966397
1
1
0.999999
0.925101
1
0.999998
1
1
1
0.999998
1
1
1
1
1
0.999999
0.941187
0.833759
1
1
1
1
1
0.824748
1
1
0.999999
1
1
0.991475
0.980842
1
1
0.999999
0.999999
1
1
1
1
1
0.870704
0.867967
1
0.872361
1
0.871406
0.875548
0.892971
1
1.39094
0.978337
1
1
1
1.02207
1.02634
1
0.995184
0.999711
1.00001
0.97949
0.977913
0.999677
0.999572
0.999609
1.08287
1
0.933659
1
1
1
0.994625
0.961022
0.924518
0.985541
1
1.00001
1.08197
0.897347
1
1
1
0.975814
1
1
1
1
0.954471
0.987269
0.997002
0.999572
0.98903
0.992888
0.926295
1
0.977381
1
0.999999
1
0.873908
0.942236
0.892824
0.971255
0.999957
0.999999
1
0.999823
1
0.956389
0.987009
1
1
1
1
1
1
1
0.895598
0.987619
0.912413
1
1
1
1
0.958342
1
1
0.859205
0.921736
1
0.929734
1
1
1
0.999995
1
1
1
1
0.997678
1
1
0.961836
1
1
0.99371
1
0.999999
1
1
1
1
1
0.999999
1
1
0.911838
0.999959
1
0.960077
0.952471
0.999999
0.897776
0.999999
1.08275
1
1
1
0.965647
0.999999
1
1
0.999999
0.973782
0.998441
0.948671
1
1.11147
1
0.999937
1
1
0.966892
1.00002
1
1
1
1
1
0.999999
0.871694
1
1
1
1
1
1
1
1
1
1
1
0.99431
1
1
1
1.00003
1
1
0.999981
0.999999
0.968862
1
0.999372
0.999999
0.997156
1
1
0.8785
1
1
0.942718
0.996342
1
1
1.02224
1
1
1
1.07379
1
0.989768
1
1
0.908485
1
1
1.07691
0.993449
1
1
1.0211
1
1.02248
1.00181
1
1.09135
1
1
1
1.00002
1
1
0.946628
1
1
0.953214
1.09362
1
1
1
1
1
1
1
1
1
1
1
1
1
1
1
1
1
1
1
1.12403
1
0.981137
1
1
1
0.97233
0.931597
0.891369
1
0.8829
1.0226
1
1
1
1.01134
1
1.08701
1
1
0.926546
0.923816
1
1
1
1
1
1
1
1
1
1
1
1
1
1
0.948576
1
1
1
1.085
1
1
1
1
1
0.943886
1.09748
0.942255
1
1
1
1
1
1.08615
1.0813
0.897357
1.07184
1.0847
0.989107
1.04415
1.02149
1
0.99898
1
0.985684
1
1.08657
1
1
1.0843
1
1.08041
1
1
1.08233
1
1
0.948195
1
1.08573
1
1
1
0.93572
1
0.935406
1
1.06663
0.921265
1
1
1
1.08231
0.994385
1
1.00792
0.999999
1
1
0.845962
1
1
0.989689
0.960811
1
1
1
1
1
0.922166
1.01262
1.05182
1.07204
0.987248
1
0.985655
1.06025
1.09646
0.971212
1.08823
1
0.999165
1
1
1
0.969863
1
1
1
0.860624
0.93726
1
1.08421
1.00258
1.08545
1
1
1.08388
0.981673
0.953537
1.00003
1
1
1
1
1
1
1
1
1
1
0.97508
1
1
0.877872
0.919782
0.999999
0.896157
0.919987
1
0.915414
1
0.831891
1
0.984741
1
0.98276
1.04343
1
1
1
0.849843
0.931578
0.923095
1.02362
1
1
0.809112
0.978765
1
0.99996
0.815803
1
1
1
1
1
1
1
1.01604
0.892038
1
1
1
0.981881
1
1
1.0635
1
1
1
1
1.04652
1
1.00376
1
0.875771
1.11892
1.12731
0.999163
1
1
1.00054
1
1
1
1
0.891618
1
1
1
0.886698
1
1
1
1
1
1
1
1.10224
0.873893
0.925188
0.869647
1
1
1
0.860255
1
0.99346
1
1
1
0.878378
0.835281
1
1.00356
1
0.943308
1
1
1
1
1
1
1
1
1
1
1
1
1
1
1.07886
1
0.830014
1
1
1
0.965168
0.846375
0.939201
0.999865
1
0.943184
1.00181
0.917657
1.13706
0.949697
1
1
1.13759
0.841263
1
1
1
1
1
1.00001
1
1
1
1
0.996269
0.932957
1
0.896102
0.869588
1
0.869174
0.925292
1
1
0.891984
1.01397
1.02408
1
1.01836
0.893436
0.970117
1
1.02492
1
0.879377
1
1
1
1
1
1
1
1
0.912178
0.999999
0.996369
1
0.87133
1
1
1
0.913299
1
0.999647
1.00111
0.996782
1
1
1
1
1
1
1
1
0.999795
1
1.00685
1
1
1
0.979532
1
1
1
0.890567
1
0.903613
1
0.999012
0.998779
0.909679
0.994502
0.97476
1
0.928457
1.14059
1
1
1.00002
1.17463
0.912299
1
1
0.879731
0.881896
1.02009
0.976154
1
1
1.0178
1
1.04679
1
1
1
0.992917
0.993527
0.9942
0.995617
0.90592
1
1.02292
0.995237
1
1.08641
1.09643
0.941014
1
1
1
0.993738
0.955992
1
1
1.05348
1.05386
0.98164
1
1
1
1
1.00827
1
1
1
1
1
1
1
1
0.930362
1
1
1
0.931035
1
0.957143
0.924258
1.02602
1.01108
1.25647
1
1
1
0.984753
1
1
1
0.978279
0.980831
1
1
1
1
0.986029
0.975004
0.989813
0.980949
1
1
1
1
0.985152
1
0.942329
0.964188
1
0.937511
1.00301
1.02425
1
0.945811
0.896264
1
1
0.923987
1
0.979485
1.0225
0.941329
0.999984
1
1
1
1
1
1.00251
1
1
1
0.998976
1
1
0.954696
0.949109
0.961444
1
1
1
1
0.944881
0.965434
1
0.91344
1.0998
1
1
1
1
1
1.0233
1
1.00167
0.948676
0.952762
0.995189
0.958012
1
1
1
1
1
0.9945
1
0.994986
1
1
1.1011
0.996834
0.966995
1
0.967313
0.999998
1
1
1
1
0.948904
1
1.02354
0.964439
1
1
1.10696
0.968911
0.918244
0.950436
1
0.99623
1.00529
1
1
1
1
1
1
1
1
1
0.982185
1
1
1
1
1
1
1
1
1
1
1
1
0.998228
1
1
1.0138
0.994088
1
1
1
1
0.92446
0.965482
1.02044
1
1
1.01121
1.00214
1.07536
1
1
1
1
1
1
1
1.02042
1
0.963111
1
1
0.943826
1.00315
1
0.899131
1
1
1
1
1
1
0.900996
0.99969
1
1
1.02178
0.899411
0.975625
1.00774
0.912447
1
1
0.956087
1
1.02305
0.933907
0.90818
1
0.943028
0.977968
1
1
1
1
1
1
1
1
0.952087
1
1
1.02252
1
1
1.0069
1
1
1
1.17572
1
0.910309
1.09597
1
1
1.04766
1
1
0.996185
0.908078
1
1.00349
1
1.03137
1
1.02778
1
1
1
1
1
1.00343
1
1
1.03397
1
1
1
1
1
1
1.00618
1
1
0.897327
1
1
1.1705
0.93092
0.999783
0.898284
1
1
1
1.04743
1
0.896634
1
1.10865
1
1
1.14477
1.00531
1.00723
0.89985
1.00494
1
1
1.00715
0.999687
1.0121
1
1.01115
1.03187
1.00335
1
1
1.015
1
1
1
1
1
1
0.960498
1.01144
1
1
1.12379
1.01904
1.01173
1
1
1
1.01457
1
1.30818
1
1
1
1
1.00319
1
1
1
1
1.01928
1
1
1.00026
1.00001
1
0.941306
1
1.04384
1
1.05218
1
1
1
1.14931
1.04184
1.00698
1.02656
1
1
1
1
1.11604
1.09035
1.03267
1
1
1.11851
1
1
1
1
1
0.980623
0.945831
1.04941
1
1.07009
1
1
1
1.02319
1
0.971883
1.13742
0.946977
1
0.911071
0.900462
1
0.943516
1
0.919249
0.974415
1.07104
0.967633
1
1
1.0607
1
0.995142
1
1
1
1.03838
1
1.04806
1
1.05897
1
1
1.04486
1.03476
1
0.967757
1
1.00004
1.01026
1.17004
1.0079
1
1
1.01937
1
1
1.04909
1
1.01346
1.02597
1.06226
1
0.93427
1
1.07031
1.02382
1.06153
1
1.02538
0.984379
1
0.975107
1
1
1
1
0.987534
1.02277
1.0143
1.02106
1
0.964002
1.04178
1.03175
0.984705
1
1.0657
1.04824
0.982017
1.05826
0.991497
1
1
1
1
1
1
1
1
1
1.00001
1
1
0.984324
1
1
1
1.0601
0.996396
1
1.01757
1.03951
1.05461
0.971681
1
1
0.998452
1.08151
1
1
1
1.06813
1
1
1
1.00299
1
1.00785
1.0113
1.00748
1.07191
1.07633
1
1
1
0.96573
1
1
0.995874
1.07328
1.03228
1.0736
1
0.959508
0.991216
1
0.989834
1.08376
1.07844
1
1.0078
1.01492
1.08225
1.01308
1
1
1.00846
1
0.957913
0.873181
1.02916
1
1
1.16786
1.09324
0.973756
1
1.08793
1.09037
0.976031
0.90165
1
1.08474
0.971607
1
1
0.969562
1
1
0.900065
1
1
1.00278
1.00842
1
1.03067
1
1.0974
1
0.936379
1
0.999556
1
0.953901
0.974724
0.98466
1.09657
1
1
1
1
0.996434
1.00968
1.01254
1.00524
1.09449
1
1.00683
1
0.940541
0.990609
1.00671
0.993807
1
1
1
1
0.946262
1
1
1
0.947024
1
1
1
0.990407
0.999992
1
1
0.87475
1
1
0.995479
1
0.989432
1
1
1
1
1
1
1
1
1
0.986248
1
0.981878
1
1.09979
1
1.10045
1
1
0.906716
1
1
1
1
0.976567
1
0.991907
1.00289
1
1
1
0.998096
1.17747
1
0.911406
1
1
0.936568
1
0.880425
1
1
1.01123
1
1
1
1
1
1.10649
1
1
1.02692
1.03231
1.10353
1
1
1
1
1.00198
1.11127
1
1
1.10853
1
1.11512
0.905695
1.1128
1
1
1.03822
1.02254
1
1
1
1
1
1
1
1.10338
1.01746
1
1
1
1.00003
1
1
1
1
1.11667
1.05649
1
1.00548
0.961141
1
1.02364
1
1
1.09134
1
1
1
1
1
1
1
0.999765
0.999758
1.11909
1
1.12881
1.12613
1
0.956512
0.873824
1
1
1
1
1
1.1238
0.936136
1
1.03353
1
1
1
1
1
1
1
1
1.0684
1
1.12105
1
0.969281
1
1
1
1
1
1
0.935602
1
1.13111
0.99873
1.01735
1.13402
1
1
0.994521
1
1.00017
1.27245
1
1
1
0.995116
1.07014
1.02653
1
1
1.02618
1
1
1.04022
1
1
0.997519
1
1
1
0.874699
1
0.909172
1
1
1
1.00744
1
1
1.13664
1
1
1
1
1.00808
1.00563
1.14037
1
1
1
1
1.00746
1.00541
1
1
1
0.967648
1.00626
0.933511
1
1
1
1
1
1
1
1.00437
0.976891
1
1
0.994103
1.00309
1
1
1
1
1.1826
0.900205
1
1
1
1
1
1
1
1
1
1
1
1
1
1.10405
1.00049
1
1
1
1
1
1
1
1
1
1
1.00491
1
1
1
1
0.952364
1
1
0.945638
1
1
1
1
1
1
1
1
0.978089
1
1
0.999206
1
1
1
0.909093
1
0.953358
0.999838
1
1
0.999346
1.08318
1
1
1
0.964228
0.973674
0.974083
1
0.901366
1.06845
1
1
0.970649
0.999949
1
0.989134
1
1
0.979643
1
1
1
0.97973
1
0.913358
1
1
1
0.911966
0.999996
1
1
1
1
1
0.965449
1
0.912166
1
1.00554
1
0.933314
0.943496
1.18123
1
1
1.0011
1
0.99117
0.979371
1
1
1.10866
0.987107
1
1
0.932625
0.951655
1.00329
0.871078
1
1
1
1
1
0.999991
0.966027
1
1
1.06703
0.990145
0.939337
0.979797
1.05945
1
1.01044
1
0.987355
1.00018
0.994306
0.912855
1
1
0.962181
0.924644
1
1
1
1
0.92272
1
1
1
1
1
1
0.987935
1
1
1
1
1
1
0.818464
1
1
1
1.09347
0.934336
1
1
1
1
1
0.91816
1
1.05357
1.00136
0.99999
1
0.999793
0.89225
1
1
0.957461
0.999999
1
1
1.00552
1
1
0.908816
1
1.081
0.961164
1
1.07177
1
0.996066
1
1
1
0.893
1
1
1
1.01143
1.05299
1
0.973688
0.947801
1
1.01003
1.02616
1
1
1
1
1
1
1
1.02714
1.07073
1
1.10684
1
1
1
1
1
1
1
1.00033
0.907985
1
1
1
1
1
1
0.959147
1
1
1
1
1
1
1
1.24576
1
1
0.93464
1
1
1
1.01443
1
1
1
1.09443
1.0096
0.960745
0.996856
1
0.98954
0.967431
1
1
1.09368
1
0.989034
1
1
1.02437
1
1
1
1
1
1
1
1
1.00022
1
1.21232
1
1.09392
0.961224
1
1.09434
0.963631
1
1
1
1.09467
0.998393
1.10702
1
1.09063
1
0.997593
1
1
1
1.09192
0.946785
1
1
1.00025
0.998545
1.01668
1
1
1
1
1
1
1
1
1.00459
1
1.22106
1
1
1
1
1
0.959942
1
1
1
1
1
1
1
1
1
1
1
1
1
0.977379
1
1
1
1
0.919536
1
1.02179
1
1
1
1
1
1
1
1
0.972031
1
1.01294
1
1
0.934113
1
0.999745
1
1
0.997014
1.00208
1
1
1
1.00001
1
1
1.04811
1
1.0513
1
1
1
1
1.02781
0.969333
1
1.00871
0.991998
1
1
1
1
1.21349
1
1.00001
1
1
1
1
0.999959
0.974968
1
1
1
1
1
1.08945
1
1
1
1.06193
1
1
1
1
1
1
1
1
0.915883
1
1
1
1
1
1
1.00002
1.06196
1
0.946326
1.06368
1
1
1
1
1
1
1.0083
0.998565
1.11757
1
1
1
1
0.900921
1
1
1
1
1
1
1
1
1
1
1.03501
1
1
1
1
1
0.97158
1
1
0.997148
1
1
1
1
1
0.987656
1.02226
1.07014
1
0.87915
1
1
1
1
1
1
1
1
1
0.969436
1
1
1
1
1
1
1
1
1
1
0.980481
1
0.832647
1
0.98472
0.995603
1
1
1
0.984623
1.07608
1
1
1
1
1
1
1
1.00172
1
0.995122
1.01099
1.30872
0.997924
0.898467
1
1
0.898269
1
1
1
1
1
1.02909
1
0.873638
1.0363
1
1.03102
1
0.873898
1
0.969071
0.998881
1
1
1
1
1
1
1
0.968567
1
1
1
0.999064
1
1
0.968253
1
1
1
1.00899
1
1
1
1.09119
1
0.930143
1
1
1
1.1631
0.882788
1
1.08981
1.0624
1
1
0.925554
0.899974
0.885102
1
0.899041
1
1.09656
1
0.994953
1
0.933968
0.990157
1.13216
1.12475
1
1
0.912764
0.999082
1
1
1.0447
0.885063
1
1.01508
1.00382
1.11326
0.999622
1
1
1
1
1
1.00577
1.05497
1
0.929735
1
0.936352
1
1.03682
1.12652
1
1.13531
1
1.01522
0.999993
1
1
0.904211
1
1
1.04009
0.942073
1
1
0.996033
0.99294
1
1.01014
1
1
1.02306
1
1
1.11505
1
1
1.02262
1.20358
1
0.938349
1
1
1.00433
1
1.01025
1
1.058
1
1.00475
1
1
0.999503
1.03446
0.950855
1
1
1
1
1.00055
1
0.876197
1.00021
1.09513
1
1
1
1
1.01106
1
1
1.08839
1.08782
0.96955
1
0.947706
1
1.09096
1
1
1
0.995693
0.968649
1
1
1
1
1.03033
0.877361
1
1
0.957065
0.890941
1
1.08576
1.08789
1.05726
1
1
1
1
1
1.03323
1.10504
1.05641
1.07084
1
1
1.00006
1
1
1
1.10398
1
1
0.956583
0.914987
1
1
1.04227
1
1
0.919967
1
1.07532
1
1.08661
1.02454
1
1.00476
1
1
0.909467
1
1
1.00393
0.963288
1
1
1.00158
1
0.932444
1
1
1.07093
0.909042
1
1
1
1
1
1.08193
1
1
1
0.960813
1
1
1
1.19476
0.913355
1
1.0213
1.03086
0.911268
1
1
1
0.974091
0.982329
1
1
1
0.915651
1.00765
1.03281
1
0.99462
0.971145
1
1.01016
1.00068
1
1.06239
1
0.955291
1
1.07501
1.06601
1
0.967351
1
1.00998
0.983637
0.940168
1
0.969108
1
1
1.09333
1
0.948952
1
1
1
1.03729
1
1
1
0.980142
1.04513
1
1.082
1
0.91324
1
1
1.23844
1.09743
1
1.08988
1.00371
1.06633
1
1
0.951815
0.972041
1
1
1.13479
0.979151
1
0.976744
1
1
1.09233
0.999992
0.889007
1
1
1
1
0.997812
1
1.09105
0.979181
1
1
1
0.977008
1
1
1.06367
0.96937
0.999998
1.04379
1
1.0085
1
1.09461
1.23189
1
1.02477
0.96611
1
0.986299
1.0634
0.999993
1
1
1
0.989476
1.08737
1.02601
1.03349
1
0.978505
1.09552
1
1
1
1.01158
0.998372
1
0.984579
0.970805
0.897031
1.06362
1
1
1
1
0.908247
1.08834
1
1.0622
1.00996
1
0.887432
1
1.04645
1
0.999995
1
1.04273
1
1
1.2053
1
1
1
0.990391
0.878249
0.999093
1.05581
1.07835
1.09567
1
1
1.05632
1
0.961806
1
1
1.04326
1
1
1
1
1
1
1
1
1
1.01466
1.09385
1
1
1
0.901941
1.03265
1.09124
1
1.03155
1
1
1
1
1
1
1.05803
1
1
1
1.0419
1.08896
0.998458
1.05116
1
1.02602
1.02968
1
1.14385
1
1.19531
1.00515
1.04323
1.04261
1
1.00077
1
0.992627
1.08262
1
1
1
1
1
1
1
1
1
1.0579
1
1.00016
1.04276
1
1
1
1.07979
0.926615
1.04634
1
1
1
1.00003
1
1
1
1.00666
1
0.957666
1.10335
0.992094
1.04363
0.98486
0.998106
1.06162
1.05609
1
1
1
1
1.07086
1.03985
1.09959
1
1
1
0.977966
1.0491
1
1
1
1
1
1.04216
1
1
1
1
1
1
1
1
0.905454
1.04133
1
0.943211
1
1
1
0.919093
1.09715
0.999997
1.06829
1
1
1.18852
1.05194
0.986331
1.07392
1
1
1
1
1
0.996161
1.09865
1
1
1
1.09111
1.00706
1
0.948213
0.900196
1.07438
0.999783
1.04398
1
0.999846
1
1.058
1.06392
1
1
1.09183
1.05291
1.15223
1
1
1.09509
1
1
1.10543
1.05888
1
1.05176
1.10809
1
1
1
0.967539
1
1.1033
1.01706
1
1.02914
1
1
1
1.07261
1
0.899331
1.01523
1.06654
1.09278
1
0.92639
0.902428
1.01061
1
0.88827
1.02029
1.01003
0.998609
1.05488
1.0491
1
0.975625
0.993244
1
0.995754
0.986827
1.06862
1
1
1
0.989567
1.03091
1
1.01704
1
1.06778
1.00002
0.881244
1
1
1
1
1.00376
1
0.99318
0.922442
1.03345
1
1.04894
1
1
1.09164
1.23107
1
1
1
0.95507
1
1.00003
1
1
1
1
1
1
0.99504
1
1
1.00089
1.04945
1
1
0.869883
1
1
1
1
1
1
1.04549
1.06248
0.988977
0.99622
1
1
1.00012
0.986842
1.0565
0.909512
0.952211
1.07832
1
1
1
0.965232
0.972404
1.0492
1
1
1
1.00258
1
1
1.04699
1.05348
0.947321
0.977365
0.840569
1
1
1
1
1
1
1
1
1
1.04782
1.04557
1
1
1
1.01305
1
1
1.06262
0.890795
1
1
0.982177
1.04925
1
1.16195
1
1
1
1.10193
1
1.24109
1
1
1
1
1
0.999553
1.06744
1
1
1
1
1
1
1.06339
1
0.974584
1
1
1
0.953195
1
0.975784
1.08101
1
1
1
1.20604
0.848139
1
1
1
1
1
1
1.10436
1.02937
1
1
1
1
1.09328
1
1.0821
1
1
1
1
0.984642
1
0.999119
1.07842
1
0.989465
1.10505
0.972739
0.998265
1
1
1
1
1.00051
1
1
1.09997
1.0393
1.10013
1.04841
1
1
1
1
1.05238
0.987837
1.00326
1
1
1
1
0.904872
1
0.999862
1
1
1
1
1
1.03219
1
1
1
1.03028
1
0.956161
1.03995
1
1.04806
0.99958
1
0.999998
1
1
1
1
1
1.25049
1
0.910779
1
1
1
1
1.00196
1.021
1
1
1.07722
0.917466
1
1
1
1
1
1
1
1
1
1.09889
1
1
1
1
1
1
1.03821
1
1.09355
1
1
1
1
0.998872
1.11996
1.11008
1
1
1
1
1
1
1
1
1.08014
1
1
1.00699
1
0.913851
1.08122
1
1
1
1.10921
1
1.01782
1
1
1
1
1
1.03855
1
1.06966
1
0.946727
1
0.874016
1
1.11127
1.12231
0.999221
1
1
1
0.89299
1.01665
1.02252
1.02251
1
1.10144
1.08062
0.928857
0.999983
1
1
1
1.06789
1
1
1
1
1
1
1.00001
1
1
1
1
1
1.03704
1
1.08528
1
1
1
1
1
0.966114
0.990671
1
1.10701
1
1
1
1.01417
1
0.958705
1
1.04367
1
1.07979
1
1.00303
0.902417
0.916836
1
0.989904
1.03348
1
1.05809
1
1.23339
1
1
1.0508
1.08552
0.924878
1
1.00978
1.096
1
1.04099
1
0.981444
1.00524
1.04748
1.10974
1
1
1
1
1.09476
1
1.26834
1
1
1
1
1
1
1
1
1
1
1
1.10652
1
1.05724
1
1
0.999456
0.995669
1
1
1
1
0.996756
1
1
1
1
1
1
1
1
1
0.999712
0.995025
1
0.889988
1
1.101
1
1
1.10021
1
1
1
1
1
1
0.902831
1
0.992078
1
1
1
1
0.98978
1.04903
1
1
1
1
1.05216
1
1
0.999345
1
1
1
1
1.07382
1.09185
1
1
1
1
1
1
1
1
1.04288
1
0.959155
1
1
1
1
1.22643
1
1
1
1
1.051
1
0.999986
0.935306
1
1.07416
1
1
1.02587
1.00892
1
1
1
1.00038
0.967333
1
1
1
1
1
1.09299
1
1
1
1
1
1
1
0.975111
1
1
1
0.993182
1
1
1.00004
1
0.946428
1.09419
1
1
0.936293
1
0.982944
1
1
1
1
1
1
1
1
0.993177
0.955242
0.937972
1.10646
1
1
0.999555
1.06765
1
1.09835
1
0.997573
1
1.09623
0.930101
1.03104
1
1
1.08937
0.981804
1.08771
1
1
1.1078
1
1.02208
0.997985
1
0.96522
1.09577
0.956552
1
1
1
1.02845
0.972885
1
1.06107
1
1
1.00521
1.00665
0.999907
1
1.04629
1.09747
1
0.98099
1.06385
1
1
0.969886
1
1
1.00024
1
1
1
1
1
1.02419
1
1.09089
1
1.02902
1
1
1
0.996968
0.942922
1
1.0301
0.990582
1
1
1
1
1.04289
1.10024
0.988941
1
1
1
0.999907
0.98345
1
1.06545
1
1.10482
1
1
1.04462
1.04025
1.03198
1
1
1
1.00151
1
1
1.07537
1
1
0.934017
1
1
1
0.962702
1
1
1
1.03785
1.00646
1.10987
1
1.07203
1
1
1
0.97686
1
1.10229
1
1
1
1
1
1
1
1
1
1
1
0.925817
1
1
1.02833
1.02369
1.07791
1
1
1
1
1
1.02352
1
0.890939
1
0.999907
0.997972
1
1
1.10568
1.04156
1.03109
1
1
1.02821
1.0733
1
0.98423
1
1.0462
1
1
1
1
1.01745
1
1.01808
0.985789
1
1
0.999981
1.05701
1
1
0.988305
1
1
1.1089
1
0.994724
1
1
1.03667
1
0.910704
1.0693
1
1
0.941457
1
1
1
1.02521
1
1
1.03231
0.993587
1.05876
1
1.03316
0.921579
1
0.910912
1.04079
1
1
1
1
1
1
1
1
1
1
1.06523
1
1
1
1.07406
1
0.939791
1.05899
0.999996
1
1.03203
0.99998
1
1
1
1.02271
1
1.00407
1.03328
1
1
1.10208
1.0756
1
1.01463
1
0.946935
0.98664
1
1.08532
1.0179
1.06037
1
0.911607
1.10295
1.24125
1
1.06977
1
1
0.901107
1
0.986994
1
1
1.01073
1
1
1
1.10305
1
1.0346
1.04855
1
1
1
1
1.18811
1
1
1.05477
1
1
1.00011
1.04206
1
0.970389
1
1
1
1
1
1
1
1.06485
1.10661
1.04708
0.899569
1
1.00669
1
1.09071
1.08267
1
1.0949
1
1.01888
1.07948
1
1
1.07082
1
1
0.967464
1.00004
1
1
0.841735
1.05693
1
0.874586
1
1.00068
1
1
1
1.06944
1.05328
1
1
1
1
1
1
1
0.857168
1.08151
1
1
1
1
1
1
1
0.96894
1.02888
1
1.05497
1
1
1
1.07683
1
1.1973
1.01969
1.03423
1
1
1
1
1
1
1.07371
1
1
1.06134
1
1
1
1
1
0.970744
1
1
1
1.08735
1
1.00005
1.00047
1
1
1.00394
1
1
1.00299
0.931077
1
1
1
1.03703
1.10087
1.04313
1.01645
1
1.02033
1
0.914575
1.10316
1
1
1
1
1.03634
1.10684
1.04402
1.0207
1.09176
1
1
1.12025
1.12045
1
1
1
0.991979
1
1.06243
1
1
1.0424
1
1
1
0.883055
1
1.00436
1
1
1.00424
1
0.969873
1.04899
1.07579
1
1.09725
0.880723
1
1
1
1
1
1
1
1
1
1.08099
1.24379
1
1
1
1.02143
0.873062
1
1.05619
1
1
1.05375
1
1.01577
1
1.04257
1
1
1
1
1
1.07732
1.09709
1
1
1
1
1
1.05257
1
1
1
1
1
1.0978
1.00008
1
1
1
1
1.05265
1
0.952152
1.07962
1
1
1
1
1
1.0714
1
1
1.05396
1
1
1.09099
1.07332
0.921667
1
1.06608
0.991539
1
1.10339
1
1.11213
1
1
1.1601
1.10727
1
1
1
1
0.988886
1
1
1
0.999569
1
1
0.994185
1.07037
1.0761
1
1
1
1.0837
1.11883
1
1
1
1
1.00001
1
1
1.00429
1.08835
1
1.01889
1
1
0.963364
1
1
1.0001
1
1
1
1
1
1
1.04425
0.841487
1
0.981811
0.970795
1
1.04811
1
1.05514
1
1
1.00993
1
1
1
1.00001
1
1
1
1.0436
1
1.20913
1.00723
1.09135
0.980529
1
1
1
1
1.26975
1.05013
1
1
1
1
1
1
1
1
1.03635
0.986165
1
1
1
1
1
1
1.10882
1.06681
1
1.06041
1.06667
1
1.00937
1
1
1
1
1
1
0.995233
1
1
1
1
1
1
1
1.08109
1
0.940002
1
1
1.11027
0.999942
1
1
1
1.0575
1.09252
1
1
1
1
1
1
1
1
1
1
1
1
1
1
1.24842
1
1
1
1.0759
1
1
1
1
1
1
1
1
1
1
1
1
1.15686
1
1
1.06761
1.11691
1.11479
1
1
1
1
1
1.03917
1.0809
1
1.00406
1
1
1
1
1
1
0.911291
1
1.03976
1
1
1
1
1
1
1
1.07697
1.12536
1
1
1.08272
1
1
1
1.2042
1.04468
1
1
1
0.880796
0.994907
1
1
0.898507
1.00009
1
1
1
0.994946
1.03694
1.08976
1
1.07409
1
1
1
1
1
1.07639
1.09807
1.08414
0.980457
1
1.00132
1
1
1
1
1
1
0.951564
1.10821
0.924481
1.01295
1
1
1.13257
1
1
1
1
1
1
1
0.962683
1
1
1
1.18841
1
0.947521
1
1
1
1
1
1
1
1
1.02009
1
1.05517
0.998881
1
0.944387
1
1
1
1
0.966588
1
1.00008
1.07697
1.11128
1
1
1
1.10603
1
1
1.12168
1
1
1
1
1
1
1
1
1
1
1.23655
1.12995
1
1
0.913116
1
1.03767
1
1
0.964826
0.946653
0.96129
1
1
1
1
0.939231
1
1
1
1.03528
1.01965
1.09807
0.941003
1.01809
1
0.995008
1.06348
1
0.99976
1
1.09456
1
1
1.0478
1
1
1.0862
1
0.996128
1
1
1
1
1
1.07799
1
1
1.07877
1.00443
0.985658
1
1
1
1
1
1
1
1.08559
0.893166
0.94255
1
1
1
1
1
1
1
1
1
1.22101
1
1
1
1
1
1
1
1.01655
1
1.09173
0.968592
0.953304
0.917279
1
1
1
1.07531
1
1.1284
1
1
1.10343
0.944009
1
0.873063
0.945839
1
1
0.951339
1.09429
1
1
1.09578
1.00418
1.23159
1
1
1.03921
1
1.06227
1.03655
1
1.07846
1
0.975965
1.12369
1.11893
1.1443
1
0.879146
1.17025
1
1
1
0.877431
1
0.989222
1
1
1.01819
1
1
1
0.969921
0.949715
1
1
1
1.03584
1.00091
1
1
1
1
1
1
1
1.0103
1
1
1
1
1
1.08739
1
1.1096
1
1.05247
1
1
1
1
0.933068
1
1
1.10403
1
1
1.14037
1
1
0.99994
1.05102
1
0.868689
1
1
1.03075
1
1.0672
1.03135
1
0.95379
1.09995
1
1
0.875762
1
1.07391
1
1
1.1062
1
1
1.21386
1.06387
0.999428
1
1
1
1
1
1
1
1
0.933126
1
0.999393
0.994902
1
1
1.208
1
1
1
1
1
1
1
1
1
1
1
1
1
1.00428
1
1.03571
1
1
1
1.0142
1
1.0982
1
1.10194
1.01583
1
1
1
1
1
1
1.00013
1
1
1.06459
1.10091
1
1
1
1
1.14497
1.10036
1
1
1
1.11455
1
1
0.999356
1
1
1
1
1
1
1
1
1
1
1
1
1
1
1
1.11613
1.07994
1.13598
1
1.02196
1.14882
1
1
1
1
1
1.12398
1
1
1.01032
0.887591
1
0.983792
1
1
1
0.985496
1
1
1
0.911049
1
1
1.07482
1.15715
1
1
1
1
1
1
1.1274
1
1
1.07572
1
1
1
1
1
1
1
1.07469
0.965093
1
1.3526
1
1.03594
1
1
1
1.11679
1
1
1
1
0.867535
1
1
1
1
1
1
1.01309
1
1
1.0871
1
0.977371
1.01459
1.13448
1
1
0.877647
1
1
1
1
1.18169
0.935705
1.08545
1
1
1
1
1
1
1
1.11137
1.06459
1
1
1
1
1
1.05493
1
0.97483
1
1
1.01765
1
0.973618
1.07544
1
1.0147
1.14627
1.0343
0.953937
1.00385
1.03661
1
1.07921
1
0.956517
0.961617
0.960296
1
1.14429
1
1
1
1
1
1.10683
1
1
1
1
0.897732
0.971409
1
1.0038
1
1.01089
1.00789
1
1
1
0.996496
1
1
1.07074
0.949691
1.03845
1
1
1
1
1
0.901862
1
1
1
1
1
1.08426
0.959967
1
1
1
0.994231
1
1
1
1
1
1
1
1
1
1
1
1
1
0.934434
1
1
1
0.983563
1
1
1
0.923811
1
1
0.955277
1
1
1
1
1
1
1.14595
1
1.0162
1
1
1.00918
1
1
1.01447
1
1
0.940006
1
1
1.1142
0.927733
1.02351
1
1
1
1.04126
1
0.924092
0.914387
1
0.973294
1.05756
1
1
1
1
1
1
1.04606
1
1
0.872947
1
1
1
1
1
1
1
1.07665
1
1.00155
1.06037
1.02504
1
1
1
1
1
1.07408
0.966721
1
0.867696
1
1.00221
1
0.896816
1
1
1
1.02661
0.943805
1
1
1.07114
1
1
1
1
1.17211
1
1.13902
1
0.979645
0.953029
0.945216
1.1976
0.874786
1.07151
1
1
1
1
1.11815
0.88088
1
1.12615
1
1.07288
1.12922
1
1.06016
1
1
0.999999
1
1
1
1
1
1
1
1
1
1
0.918839
1
0.988752
1.01942
1
1
1
1
1
1
1.02666
1
1
1
0.872024
1
1
1
1
1
1
1
1
1
1
0.889529
1.00378
1
1.12626
1
1
1
1
1
1
1
1
1
1
1
1
1
0.860088
1.0308
1
1.13534
1
0.92255
1
1
1
0.965612
1
1
1
1
1
1
1
1
1.07147
1.0764
1
0.995169
1
1
1
1
1
0.999775
1
1
1
1
0.921689
1
1.03814
1
1
1.16126
1.0005
1
1
1
1
1
1
1
1
1
1
1
1
1.01399
1
1
0.999623
1
0.940733
1
1
1
1
1
1
1
1.05473
1
1
0.877296
1
1
1.00654
1
1
0.976473
1
1
1
1
1.00847
1
0.897475
0.871953
1
1
1
1
1
1
1
1
1
1
1
1
1
1
1
1.12117
1
0.939492
1
1
1
1
1
1
1.01558
1
1.01908
1
1
1
1
1
1
0.865156
1.07375
1
1
1
0.950561
0.977538
0.960067
1
1
1
1
0.886734
0.911615
0.999993
1
1
1
1.00719
1
1
1
1
1
1
0.985836
1
1
1
1
1
1
1
1
1.00431
1
1
1
1
1
0.962318
1
0.97985
1
1
0.952915
1
0.919003
0.914854
1
1
1
1
1
1
0.983722
1
1
0.999732
0.920054
1
1
1.15057
0.928887
1
1
1
1
1.0662
1
1
1
1
1.12527
1
1
0.918526
1
1
1
0.958317
1
1
1
1
1
1
1
1.10515
1.00016
0.94082
1
1
0.88899
1.00586
1
0.980356
1
1
1
1
1
0.943747
1
1
1
1.00937
1.16527
1
1
1
0.999944
1
1
1
1
1
1.05855
1
1
1
1.00742
1
1.12652
1
1
1
1.01067
1.01177
1
0.970182
1
1.12988
1
1
0.949335
0.944784
1
1
1
1
1.06634
1
1
1
1
1.07278
0.891327
1.1538
1
1
1
1
1
1
0.937211
1
1
1
1
0.999999
1
1
1
1
0.999115
0.982519
1
1
1
1
0.899508
1
1
0.967182
1
1
1.01805
0.947684
0.918184
0.970126
1
0.904058
1
1
1
1
1
1.01434
1
0.999274
1
1
1.11858
1
1
1
1
1
1
1
1
1.02972
1
0.986439
1
1
1
1.11022
1.145
1
1
0.948519
1
1
0.936815
1
0.937929
1.09815
1.07211
1.03928
1
1
0.99259
0.940128
0.946525
0.935244
1
1
1.06886
1.06777
1.00665
1
0.931186
1
1
0.997961
1
1
1
1
0.976225
1.16721
0.920754
1
1.14371
1
1
1
0.994434
1
0.920977
1
1
1.14238
1.30853
1
1
0.981743
1
0.988297
1
1
0.885123
1
1
1
1
1.03623
1
1
1
1
1
1.22671
1
1
1.00388
0.989729
1
0.997074
1
0.984238
0.934888
1
0.889392
1
1.02905
1
1
1
1
1
0.989243
1.00749
1
1
1.27231
1
1
1
1
0.976179
1
1
1
0.974131
1
1
1
1
1
1
1
0.99821
0.920724
1
1
1
1
1
1
1
1.1528
1.01561
1
1
1
0.956357
0.95534
0.965401
0.959531
1.02909
1
1
1
1
1.00527
1
1
1
1
1
1
1
1
1.02767
1
1
0.953463
1
0.984778
1
1.05431
1
1
1.06522
1.13829
1
0.927141
1
1
1
1.00758
1
1
1
0.89489
1
1
1
1
1
1
1.11126
1.06933
1
1.04843
1.06728
1
1
1.28798
1
1
1
1.01177
1
1
1
0.917987
1
1
1.07094
1
0.93997
1
1
1
1.11454
1
1
1
0.995484
1
1
1
1
1.03279
1
1
1
0.86734
1.09306
1.00439
1
1
1.00475
0.950395
1
1.0627
1
1
1.08987
1
0.910486
0.928388
1
1
1.03997
1
0.865234
1
1
0.870944
1.11185
1
1.03508
1.05688
1
1
0.946383
1.04198
1.08065
1
0.905711
1
1.14074
1
0.95333
1.03876
1
1
1.01567
0.97528
1
1
1
0.990867
1
0.898212
1
0.91362
1
1.07207
1
1.0001
1
1
1
1
1
1
1
1
0.932088
1
0.99769
1.10719
1.03249
1
1
1
1
1.03403
1
1.06285
1
1
0.988828
1
1
1.01168
1
1
1
1.09611
1
1
1.00784
0.887193
1
1.029
0.993545
1
1
1
1
1
1
0.995547
1
1
1
0.925212
1.06864
0.979709
1.00322
0.936666
1
1
1
1
1
1
1
0.994192
1
1.05449
1.03127
1
1.0596
0.952991
1
1
0.905488
1
1.16629
1.12601
1
1
1
1
1.22032
1
1.02215
1
1
1
1.09901
0.9134
0.930688
1.02388
1
1.18398
1
1
1
0.903933
1
1
0.998989
1
1
1
1
0.998672
1.00907
1.05878
1
1
0.998378
1.0131
1
1
0.902582
1
1
1
1
1
1
1
1.05349
1
1
1
1
1.12717
1
1
1
1
0.994529
0.967252
1.05052
1
0.933168
1
0.949397
0.880095
1
1.16224
1
0.924286
1
1
1.10695
1.10333
1.01336
1
0.937781
1
1
0.977395
1.07172
1
1
1.07812
1
1
1.03307
1.16175
1
0.930328
1
0.974894
0.99964
1.06834
1
1.05311
1
1.02933
0.933473
1
1
1
1
1
1.05224
1
1.01427
1
0.947075
1
1.2856
1
1
1
1.19462
1
0.91416
1
1
1
1
1.06338
1
0.945846
1
1
1.00571
1
1
1.1713
1
1
1.00603
1
1
1
1
1
1
1
1
1.00528
1.02757
0.991778
1.00566
0.955298
1
1
0.980384
1
1.0653
1
1
1
1
1
1.076
1
0.932913
1
1
1
1
0.999944
1
0.983408
1
1
0.954861
1
1
1
1
1
1.0752
0.942357
1
1
1
1
1.01545
0.873113
0.927174
0.983065
1
1
1
1.01147
1
1.03022
1.00723
1.04208
1
0.869151
1
1.10022
1.14818
1.00725
1
1
1
1
1.19617
1
0.885555
0.87727
1
1
1
1.00124
1
1
1
1
1
1
1.04586
1
1
1
1.03297
1
1
0.949673
0.924146
1.0001
0.946478
1
0.946257
1
0.923413
1
0.948656
1
1.17219
1
0.994126
1
0.935954
1
1
1
1.03081
1
1
1
0.913313
1
1
1
1
1.01241
1
1
1
1
1
1.05262
1
1
1.00314
1.02999
1.03849
1.07582
1.06263
1
1.05523
1
1
1
1.12717
1
1
0.948776
0.890916
1.1482
1
1.17564
1
0.97535
0.888049
1
1
1.16437
1
1
1
1
1
1.06641
1.15785
1
1
1
0.977157
1
0.933821
1.00622
1.04845
1
1
1
0.966008
1
0.946539
0.922466
1
0.991645
1
0.942235
0.882256
1
1.09084
1
1.02494
0.950694
1
0.908432
1
1.0292
1
1
1.07062
1
1
1.02899
1
1
1.0726
0.894535
1.15425
1
1
1
1.13053
0.953977
0.954209
1
0.932544
1
0.958241
1.1223
0.963821
1.10822
1
0.932665
0.944361
0.945457
0.898059
0.919121
1
1
1.21455
1
0.893129
0.90107
0.901086
0.967214
0.888978
0.951171
1.01066
0.934869
0.944343
1
1
1.06788
0.901602
0.8855
0.884173
1
0.870272
1
0.982317
0.864417
1.11618
0.877234
0.883123
1
0.86516
1
1.06383
1.06103
1.00884
1
1
1
1
1
1
1
1
1.03191
1
1
1
1
1.09905
0.971932
1.02935
1
1
1.05491
1
1.13686
1.0055
1
1
1
1
0.944685
1
1
1
1
1.05044
1
1.00244
0.99529
1.1145
1.06052
0.872278
1.07623
1
0.991621
0.997378
1
0.932876
1.00579
1
1.03989
1
1
1
1
0.954238
1.02018
1
1
1.04193
1
0.873452
1
1.00902
1.34365
1
1
0.987108
1.10645
0.997427
0.895912
0.988064
1
1
0.960196
1
1
1
1
1
1
1
1
1
1.00164
1
1
1
1
1
1.20297
0.946014
1
0.98974
1
1
1
1
1.06843
1
0.920593
1.01455
1
1
1
1.00705
1
1
1.00007
1
0.993863
1
1
1
1.06975
1
1
1
1
1
1
1
1
1
1.01475
0.98498
0.881606
1
1