/*--------------------------------*- C++ -*----------------------------------*\
  =========                 |
  \\      /  F ield         | OpenFOAM: The Open Source CFD Toolbox
   \\    /   O peration     | Website:  https://openfoam.org
    \\  /    A nd           | Version:  12
     \\/     M anipulation  |
\*---------------------------------------------------------------------------*/
FoamFile
{
    format      ascii;
    class       surfaceScalarField;
    location    "0.4";
    object      phi;
}
// * * * * * * * * * * * * * * * * * * * * * * * * * * * * * * * * * * * * * //

dimensions      [1 0 -1 0 0 0 0];

internalField   nonuniform List<scalar> 
69079
(
-0.000205532
0.00011876
8.67723e-05
0.000166001
7.96889e-18
-0.000166001
-0.000179374
0.000179374
0.000167917
-1.91521e-06
-0.000176703
-2.67121e-06
-0.000176703
0.000103304
-0.00019142
8.81163e-05
2.35102e-06
0.000139986
-0.000142294
0.000169597
-0.000169597
1.76183e-19
0.00016874
8.56803e-07
-0.000127916
-7.76163e-05
-0.000156839
0.000166333
-1.07315e-05
-0.000166388
0.000162809
3.57841e-06
-0.000165548
-8.40003e-07
4.5797e-06
-0.000146503
0.000141924
0.000168773
-3.36001e-08
0.000167933
8.40003e-07
-0.000168572
0.000166354
2.21761e-06
-0.000166724
-1.84801e-06
0.000168454
-0.000167513
-9.40804e-07
0.000167144
1.31041e-06
0.000170117
-0.00017257
2.45281e-06
-0.00018139
1.74049e-05
0.000163985
0.000194679
-0.000127731
-6.69483e-05
0.000160726
-2.02777e-05
-0.000140449
-0.000167933
-1.66321e-06
0.0001679
3.36001e-08
3.86402e-07
-1.68001e-08
0.000145343
-0.000142959
0.000159144
-0.000166209
6.9843e-06
0.000159416
-0.000172755
1.33393e-05
0.000186061
-2.66449e-05
0.000166203
9.40804e-07
-5.20802e-07
-0.000167833
3.10801e-05
0.000136753
0.000165934
-0.000165934
5.49013e-17
3.86402e-07
-6.2646e-06
0.000148219
-0.000141877
-1.48681e-05
-0.000166522
0.000133813
3.45409e-05
-0.000168353
-0.000177511
2.18027e-05
0.000164775
-0.000164775
1.07607e-17
-7.98003e-06
-0.000139633
0.000169613
-2.99845e-05
0.000164506
1.84801e-06
-1.42801e-06
-9.71884e-05
0.000185607
-8.84187e-05
0.000161432
-0.000161432
3.1618e-17
0.00018512
-2.36881e-05
0.000156879
2.82409e-05
0.000184129
-2.72497e-05
0.000159634
-4.73762e-06
-0.000154897
-0.000134953
0.000161898
-2.80115e-05
-0.000175846
0.00018013
-4.28398e-06
-0.000166217
7.11245e-05
9.48443e-05
0.000160222
-0.000160222
-3.70391e-17
0.000183541
-2.33185e-05
0.000162169
-1.42562e-07
-0.000162067
-9.69028e-05
-5.46674e-05
0.00015157
9.95068e-05
6.67467e-05
-0.000166253
0.000179127
-9.12563e-05
-8.78711e-05
-1.87657e-05
-0.000149067
6.53019e-05
-0.00016249
-0.000139852
0.000144432
0.000161969
8.40003e-07
-2.80561e-06
0.00019604
-0.00019604
-1.92248e-05
-0.000149135
-0.000153305
1.30735e-05
-6.63267e-05
0.00016963
0.000154342
2.91985e-05
0.000182247
-2.79049e-05
0.000162266
-2.02085e-05
-0.000142043
0.000169966
-0.000166472
-3.49441e-06
0.0001239
7.07787e-05
0.000148949
-0.0001532
4.25042e-06
-3.59521e-06
0.000152545
-0.000160659
1.47841e-05
0.000145875
0.000159416
2.66449e-05
-2.01601e-06
0.000152645
-0.000181592
2.89465e-05
0.00013603
2.36041e-05
0.000170252
-1.76065e-05
-0.000103152
-6.37058e-05
0.000166858
-0.000156056
0.000158055
-1.99921e-06
0.000151385
-0.000171461
2.00761e-05
0.000152629
-1.2432e-06
-0.000109141
-5.34043e-05
-8.26563e-06
-0.000133477
0.000141742
-9.2182e-05
0.000181222
-8.90403e-05
0.000190362
-5.6549e-05
-0.000168958
1.29025e-05
0.000156879
2.72497e-05
9.04684e-05
6.85947e-05
-0.000159063
-3.34321e-06
-0.000154426
-1.45321e-05
4.08242e-07
-0.000138258
0.00013785
0.000166681
-4.5108e-06
8.85531e-05
7.81707e-05
-0.000166724
7.07787e-05
-0.000162961
-0.000155787
1.36081e-06
0.000167866
-0.000167866
0.00017081
-1.16804e-05
2.64265e-05
-0.00018218
0.000155753
5.60954e-05
-0.000159248
-0.00016166
-1.29209e-05
0.000148563
-0.000173225
2.46625e-05
0.000151906
-3.34321e-06
8.89443e-06
0.000140206
-0.000148681
-9.03671e-06
0.000140048
-0.000130258
0.000154342
2.79049e-05
-2.72497e-05
-0.000136892
0.0001373
9.79444e-06
-0.00015782
0.000148025
-0.000152647
4.35883e-05
-1.01802e-05
0.000155765
-0.000144932
5.7137e-05
-0.00015404
-0.000152759
-5.2005e-06
0.000157846
0.00015554
-0.000158137
4.17047e-06
-0.000161197
0.000138987
2.22097e-05
-5.77922e-06
-0.000170924
0.000148378
2.18737e-05
-6.88803e-06
0.000155266
-0.00017336
0.00017336
-0.000160279
7.43339e-06
-4.70906e-05
0.000146597
0.000188097
-0.000112062
-7.59299e-05
-0.000180635
7.36218e-05
0.000107013
0.000160037
-7.72803e-07
-0.000159265
0.000146043
-0.00017042
2.43769e-05
0.000150881
-4.83842e-06
0.000164338
-2.21761e-06
0.000147589
-0.000145371
0.000150932
9.10564e-06
0.000101708
-0.000161381
5.96738e-05
0.000147135
-0.000177577
3.04417e-05
0.000176165
-2.90305e-05
-2.20662e-06
0.000158642
-0.000101019
0.000190664
-8.96451e-05
-0.000125849
-2.73505e-05
0.000141994
-0.000168723
2.67289e-05
0.00014774
-5.74562e-06
0.000156632
-0.000168022
1.13754e-05
-0.000158777
3.29281e-05
-4.3933e-05
-0.000136702
0.000145421
-0.000175477
3.00553e-05
-2.60401e-05
-0.000146298
0.000140211
0.000111334
-0.0001196
-0.000134165
0.000143324
0.000178383
-0.000178383
0.000150529
4.03202e-07
-2.70481e-05
0.000157509
-0.0001671
9.55233e-06
-0.00016033
4.69748e-06
9.06836e-05
9.79575e-05
-0.000168236
2.66953e-05
0.000141541
0.000142868
-0.000173713
3.08449e-05
-0.00014942
0.000172957
-3.00889e-05
-0.000156373
-2.66672e-06
0.000131195
-6.00663e-05
-5.31722e-05
0.00015488
-2.43265e-05
0.000185053
0.000145421
3.07441e-05
-0.000145556
0.000143338
-3.00553e-05
0.000161482
-0.000161553
9.09052e-05
-0.000158441
6.75363e-05
0.000141171
-0.000172251
3.10801e-05
0.000171663
-3.04921e-05
-2.51161e-05
-0.000147454
0.000151957
1.27176e-05
-0.000164674
-2.84929e-05
-0.000153687
1.87551e-05
-0.000143762
0.000125112
-9.47552e-05
0.000157544
-6.24912e-05
-0.000150797
5.44322e-06
0.000145354
8.26418e-06
0.000154002
-0.000148466
0.000138814
0.000150881
0.000161694
-4.26554e-06
0.000139457
-0.000170957
3.15001e-05
-3.37681e-05
9.24004e-07
-0.0001469
0.000145976
0.000144111
8.51763e-06
-2.96017e-05
6.14356e-05
0.000108391
0.000144346
6.38402e-07
-0.000144985
1.49521e-06
0.000142851
1.13904e-05
0.000158576
-6.18746e-05
-7.89099e-05
0.000140785
-0.000187674
0.00011373
7.39438e-05
9.65164e-05
-0.000158391
4.87202e-07
0.000146732
-0.000147219
-0.000146782
0.000147269
0.000129147
-0.000137295
-0.000155216
0.000161415
-6.19922e-06
0.000132603
-0.000159181
2.65777e-05
0.000143523
-1.092e-05
-1.3304e-05
-0.000129135
0.000142439
8.74107e-05
6.22946e-05
-0.000149705
0.000141171
3.17857e-05
-3.10801e-05
2.20249e-05
-0.000153855
0.00013183
-0.000154883
-7.57044e-06
0.000157142
4.543e-06
0.000136904
-0.000169597
3.26929e-05
0.000168437
-3.15337e-05
9.81628e-05
-0.000156951
5.87885e-05
0.000148378
-0.000138584
0.000161775
-0.000167082
0.000146984
4.97282e-06
-5.20802e-07
0.000158576
4.39309e-05
-0.000138574
-0.00015283
-2.38561e-06
0.000162236
-5.6983e-06
-9.22492e-05
-5.70866e-05
0.000149336
0.00013519
-0.000167715
3.25249e-05
0.000170924
-2.23945e-05
-0.000173645
-3.52297e-05
0.000131043
-0.000111859
0.000139457
3.22057e-05
-3.15001e-05
-0.000103791
-6.77715e-05
0.000171562
0.000167127
-0.000164859
-2.26801e-06
-1.94713e-05
0.00016753
-0.000148059
0.000129982
-0.000156291
2.63089e-05
0.000142297
-1.23144e-05
0.000140958
-0.000141583
5.34199e-07
-6.09842e-06
-0.000155098
-0.000172217
2.64097e-05
0.000145808
-3.08953e-05
-0.000141322
-2.16385e-05
-0.000151721
-6.18242e-05
0.000152293
-0.00019058
0.000102245
8.83347e-05
-0.000159315
0.000137895
2.14201e-05
0.000140141
7.95522e-07
0.000153655
-0.000145814
-7.88153e-06
-0.000180836
0.000159197
-0.000155686
-1.008e-07
-0.0001532
0.000155703
-2.50321e-06
-9.32572e-05
-9.73228e-05
9.10228e-05
-0.000162893
7.18707e-05
-8.73603e-07
-0.000165598
-5.51042e-06
-0.000162725
0.000157823
-5.68905e-07
-0.000160189
6.98883e-06
0.000132637
-0.000166657
3.40201e-05
-3.60865e-05
0.000148988
4.65088e-06
0.000127748
-0.000153737
2.59897e-05
-0.000163616
3.42721e-06
0.000141171
-1.34233e-05
0.000140247
1.16592e-05
-2.93497e-05
0.000161569
-0.000155608
-6.19021e-06
-3.88082e-06
0.000149605
-0.000145724
0.00016333
-0.00016333
-0.000204054
9.59284e-05
0.000108125
-9.25012e-05
0.000160004
-6.75027e-05
-0.000144614
-4.51024e-06
0.000148095
-0.000164226
-3.6786e-06
-9.64273e-05
-5.81417e-05
0.000154569
8.98972e-05
5.56418e-05
-0.000145539
0.000110003
-0.000123307
5.19122e-06
0.000156005
-0.000161197
0.00013519
3.32473e-05
0.000130083
-0.000164893
3.48097e-05
-3.25249e-05
-0.000172822
0.000153351
-0.000155031
0.000155031
0.000105656
6.2345e-05
0.000163313
-3.32305e-05
-2.73673e-05
-0.000153469
0.000136197
9.6634e-05
-0.000158712
6.20779e-05
-4.55236e-06
-0.000149705
0.000153148
-1.15797e-06
0.000151496
-0.000150132
0.000124875
-0.000151402
2.65273e-05
0.000139995
-1.51201e-05
0.000166993
-0.000168387
-0.000140482
0.000145673
-9.9369e-05
-8.83045e-05
-9.64996e-05
0.000156543
-6.00434e-05
-0.000160045
3.33556e-06
0.000159128
-0.000164841
5.83946e-06
-8.42523e-05
0.000171663
0.000165052
1.59762e-06
0.000164055
9.11545e-07
-0.000193839
9.613e-05
9.77092e-05
4.73426e-05
0.000138265
0.00016368
2.94374e-07
9.64972e-05
-0.000141055
4.45852e-05
0.000161869
5.66162e-06
0.000144614
-4.80988e-05
4.3193e-05
0.000128369
-0.000162557
3.41881e-05
0.000161642
0.000162037
-3.36673e-05
0.000166437
-2.80031e-05
-0.000138869
-0.000149479
-4.56186e-06
0.000153981
-0.000183054
0.000106428
7.66251e-05
0.000137475
1.34065e-05
-2.91817e-05
-5.61122e-05
0.000154275
0.000171216
-0.000171156
-0.000140062
0.000140701
0.000146833
-0.000145337
-9.49859e-05
0.000152944
-5.71318e-05
-2.73841e-06
-0.000157921
0.000126672
-0.000161264
3.45913e-05
-0.000150848
0.000154594
-3.74641e-06
0.000160743
-3.40705e-05
-0.000165456
0.000165235
0.000158871
4.77926e-06
3.72961e-06
-0.000149487
0.000145757
-0.000141794
0.000136124
-0.000131663
-1.06173e-05
0.00014299
-0.000157181
6.33362e-06
-0.000138315
-5.3105e-05
0.000131427
-0.000151705
0.000166836
-1.86612e-05
0.000159905
-6.9149e-07
-0.000154325
-2.85601e-06
0.000158895
-0.000158895
0.000124959
-0.00015997
3.50113e-05
0.000159466
-3.45073e-05
0.000119835
-0.000145724
2.58889e-05
0.000136568
-1.67329e-05
-9.19636e-05
-9.109e-05
-0.000162356
6.1337e-05
-0.000152259
-2.06641e-06
8.51142e-05
9.40132e-05
0.000155024
6.48902e-06
0.000135829
1.19112e-05
-2.90641e-05
-0.000152746
0.000140113
1.26336e-05
0.000173645
-0.000166993
-0.000134216
0.000149
0.000146491
-0.000150628
3.91791e-06
0.000147286
-6.08162e-06
-0.000141205
0.000123262
-0.000158693
3.54313e-05
0.000158173
-3.49105e-05
-5.49362e-06
-0.000153821
-0.000155619
0.000159229
-5.7439e-06
9.40804e-07
-0.000151738
0.000171092
-2.99783e-05
-7.20891e-05
0.000160642
4.29099e-07
-0.000175166
2.86626e-05
-0.00014017
-1.56288e-05
0.000149117
-6.82083e-06
-0.000142297
0.000128369
3.49441e-05
0.000156005
-6.51003e-05
-3.41881e-05
-0.00015787
0.000143338
1.45321e-05
7.13002e-06
-0.000147713
-0.000201937
0.00011792
8.40171e-05
-0.000149437
4.95602e-06
0.000144481
-9.15268e-05
-0.00011041
5.56082e-06
0.000141793
-0.000147353
-0.00015026
6.95523e-06
0.000143305
-1.04328e-05
-0.000139827
-0.000156308
0.000145875
0.000121548
-0.000157383
3.58345e-05
-0.000150663
3.86402e-06
0.000146799
0.00015026
-6.43443e-06
-0.000143825
-5.12402e-06
0.000149504
-0.00014438
0.000145136
0.000156879
-3.53305e-05
0.000151889
-6.58563e-06
-0.000145304
0.000159982
-1.11206e-06
-0.000166779
-1.69009e-05
-0.000155921
-6.70323e-06
0.000151553
-0.00014485
8.76627e-05
5.83298e-05
-0.000145993
-0.000154678
6.2429e-05
-7.82194e-05
-8.97812e-05
-0.000170205
3.9602e-05
0.000126672
3.53641e-05
6.76304e-06
-0.000142389
-3.45913e-05
7.39203e-06
0.000139894
-0.00014144
1.05e-05
0.00013094
0.000119852
-0.000156106
3.62545e-05
-5.74311e-06
0.000167163
0.000150411
-5.94722e-06
-0.000144464
-0.000156618
-8.19043e-06
0.000155569
-3.57169e-05
-9.35713e-05
0.000156509
-6.29381e-05
0.000167009
-1.49521e-05
-0.000152057
0.000170515
-3.12003e-05
-0.00015885
0.000154829
3.90892e-06
0.000159039
-0.000158934
-0.000162272
9.60964e-06
0.000152662
-2.53681e-06
0.000145522
-0.000142985
-8.56635e-05
0.000154258
0.000113854
-0.000139558
2.57041e-05
-1.98577e-05
0.000133712
1.41299e-05
0.000156459
-5.64482e-06
0.000149537
-0.000143893
-1.45489e-05
0.000129529
-0.00011498
0.000176871
-0.00010458
-7.22907e-05
3.30961e-06
-0.000149974
0.000146665
3.20881e-06
-0.000155468
0.000154342
-0.000154342
-0.000145371
0.000147219
-1.84801e-06
0.000153501
-0.0001594
5.78279e-06
-0.000134333
0.000135257
-2.52001e-06
0.000147471
-0.000144951
2.40241e-06
-0.000149873
0.000147471
7.54474e-05
9.19703e-05
-0.000167418
-1.66321e-06
0.000157366
-0.000152175
-1.94881e-06
0.000154124
-0.000155931
-2.89842e-07
0.000149017
-0.000146614
0.000137441
4.3781e-05
0.000118138
-0.000154796
3.66577e-05
-6.60579e-05
-7.39035e-05
0.000139961
0.000124959
3.57841e-05
-0.00017551
0.000109452
0.000150021
-5.33872e-05
-4.10426e-05
-3.50113e-05
-0.000184885
0.000105504
7.93803e-05
-7.74164e-05
0.000156153
-7.84226e-05
8.46505e-05
8.13661e-05
-0.000166017
-9.28036e-05
0.000158105
-0.00015278
0.00014527
7.50963e-06
-0.00015404
1.26e-06
-0.000148343
2.71657e-06
0.000145626
5.52687e-06
0.000156098
-0.000142145
-4.03202e-06
0.000146177
-0.000132586
0.000118037
0.00010262
-0.000131424
0.000142457
-0.000152097
5.20802e-07
0.000145405
-0.000145925
5.91866e-05
-0.000155686
-9.75748e-05
-8.73099e-05
-1.2096e-07
0.00014585
-0.000145729
-0.00015906
-8.02878e-06
-0.00018806
0.00010915
-3.81361e-06
-0.000158458
0.000159805
-0.000159518
-0.00013094
0.000157635
-0.000148006
0.000146983
-3.14161e-06
0.00014821
-0.000145069
-3.20377e-05
-0.000122993
9.55453e-05
-0.000186802
-4.50074e-05
0.000150663
-0.000148849
4.68722e-06
0.000144161
2.43042e-06
0.000111704
-0.000114545
6.66963e-06
-0.000151133
0.000144464
0.000123262
3.62041e-05
0.000145398
-1.09704e-06
-0.000144301
0.000149605
-8.06403e-07
-0.000148798
8.66883e-07
0.000144531
0.000144788
-0.000143921
-3.54313e-05
-0.000147219
-3.44401e-06
2.95009e-07
0.000144493
-0.000161768
0.000167211
-0.000147118
0.00014821
-1.092e-06
5.56082e-06
0.000143456
0.000143691
5.81282e-06
-0.000147572
4.53602e-07
-8.16974e-05
-6.26977e-05
0.000144395
-0.000176471
3.82134e-05
0.000114061
-0.000112009
-3.50416e-06
0.000114543
-0.000154342
3.97994e-05
0.000162537
-0.000156696
-5.66341e-06
-2.67037e-06
0.000160622
0.000151805
-3.72625e-05
5.48825e-05
-0.00015131
0.000115332
-0.000135661
2.03281e-05
-2.18569e-05
0.000137189
-0.000153149
0.00014107
1.20792e-05
0.00013976
-1.2348e-05
-0.000152511
0.000158257
-8.00859e-05
-5.34072e-05
0.000127029
-0.000152477
0.000146967
-3.77926e-06
-0.000144306
-9.39628e-05
-9.98764e-05
-0.000126096
1.49626e-06
0.000124861
-0.000146391
0.000142461
1.13064e-06
0.000145964
-0.000147095
-4.68722e-06
-0.00014186
0.000146547
4.13282e-07
0.000146394
-0.000146807
0.000178467
-8.72427e-05
-9.12244e-05
7.62723e-06
0.00014149
0.000121548
3.66241e-05
-0.000151889
6.87123e-06
0.000145018
-0.000150733
5.95638e-06
-3.58345e-05
0.000113518
-0.000151201
3.76825e-05
-4.2773e-05
0.000113854
-0.000133964
2.01097e-05
-0.000143607
0.000139726
-0.000142767
-6.66963e-06
-2.27305e-05
0.000136585
6.69252e-06
6.71835e-05
0.000109688
0.000159903
-0.000156593
0.000151033
-1.42801e-06
-0.000156425
6.39242e-05
0.000149319
-5.02322e-06
-0.000144296
-0.000143779
0.000170993
0.000138869
-0.000116844
1.41121e-06
-0.000141473
8.21523e-07
-0.000145304
0.000144482
-4.04882e-06
0.000158643
8.61507e-05
8.06235e-05
-0.000166774
0.000100379
8.86674e-05
-0.000189046
-0.000135906
-8.18709e-06
0.00014495
3.69601e-07
-0.000146194
0.000145825
9.76084e-06
0.000153569
-0.000153721
0.000146329
-0.000145959
0.000151873
-0.000153956
2.08321e-06
1.008e-07
0.000146228
-1.2432e-06
0.000146849
-0.000145606
0.00014779
-0.000147689
-0.000160558
-8.55502e-05
0.000156809
-7.1541e-05
-8.95991e-05
0.000158927
-6.95053e-05
-0.000180382
4.94426e-05
0.000145035
-0.000146132
1.74721e-06
-0.000146984
0.000145237
-1.68841e-05
0.000162406
-0.000145522
0.000166069
-0.000103774
0.000119852
3.70273e-05
-0.000144397
4.48562e-06
0.000139911
0.000104748
-0.000176367
7.16187e-05
0.000154713
7.61234e-06
-0.000152175
-0.00017929
0.000104211
7.50795e-05
-3.62545e-05
0.000144061
-0.000140331
-0.000152158
-1.69681e-06
-0.000143034
0.000147594
-4.55954e-06
3.56497e-06
-0.000146599
-0.000144171
0.000129905
1.41326e-05
-0.000152019
0.000152173
-1.54561e-07
-0.000149843
-2.17561e-06
0.000111687
-0.000152057
4.03706e-05
-0.000156048
-2.86168e-07
0.000149554
-3.78673e-05
-0.00016501
0.000110343
-0.000154191
0.000149603
4.5881e-06
-0.000154796
6.04802e-07
-0.000149798
0.00014988
-8.23203e-08
-0.000150193
3.94802e-07
-0.000153855
-0.000152225
0.000147303
4.92242e-06
-0.000152897
1.1508e-05
0.000141389
0.000147409
-0.000146279
-0.000125002
4.21678e-08
-0.000152696
5.79602e-06
0.0001469
-0.000143573
-3.91442e-06
0.000147488
0.000118575
3.29281e-06
0.000141994
-0.000145287
-0.000147353
-3.19201e-06
0.000150545
-0.000149403
3.14161e-06
0.000146261
-8.78979e-05
-0.000116156
5.54033e-06
0.000156291
-6.52683e-05
0.000153554
6.32217e-06
0.000143657
2.23441e-06
-0.000145892
1.176e-06
0.000147404
-0.00014858
-0.000140601
0.000154342
-6.44451e-05
0.000151906
-7.19043e-06
-0.000144716
-0.000150865
2.21761e-06
0.000148647
0.000118138
3.74305e-05
-0.000148699
7.39203e-07
0.00014796
0.000141994
2.45281e-06
-0.000144447
-3.66577e-05
0.000156189
-2.68058e-06
-0.000149551
-3.66472e-06
0.000153391
9.12244e-06
5.07264e-06
-0.000154496
-0.000147557
0.000152806
5.11156e-06
-0.000152667
-0.000148328
0.000148345
0.000150562
-4.92242e-06
-0.00014564
0.000110511
-0.000149117
3.86066e-05
-4.32266e-05
0.000161886
-0.000161872
-0.000152957
0.000150949
2.4362e-06
-0.000148781
2.83921e-06
0.000145942
-8.88555e-05
-9.92044e-05
-0.000144676
0.000124645
0.000149621
-0.000148697
-9.24004e-07
-0.000158354
8.73235e-06
-0.000148907
5.52149e-05
-0.000144783
-5.09042e-06
-0.000154555
0.000149941
5.32562e-06
0.000140062
-0.000145388
-0.000151133
5.59442e-06
0.000145539
0.00016758
-0.000182811
0.000157954
-0.000150327
0.000145421
-0.000152007
-0.000146806
0.000149352
-6.50745e-07
0.000148366
-3.97243e-06
-0.000144394
0.000147437
-0.000154141
0.000150125
0.000154761
-0.000154666
-0.000151422
0.000152039
-6.16562e-07
-0.000149877
-1.54561e-06
-0.000154243
0.000152059
2.18401e-06
-0.000152847
-1.39609e-06
-0.000154215
0.000152069
2.14537e-06
-0.00015286
-1.35409e-06
-0.000154186
0.000152084
2.10169e-06
-0.000152869
-1.31713e-06
0.000178
-0.000116076
-3.35833e-06
-0.000142145
0.000145504
-0.000154161
0.000152103
2.05801e-06
-0.000167839
9.34974e-05
7.4342e-05
-0.000152882
-1.27848e-06
-0.000154122
0.000152118
2.00425e-06
0.000151301
0.000161213
-0.000141725
-1.94881e-05
0.000118306
1.72705e-05
-0.000135577
-0.000152901
-1.22136e-06
0.000152377
-0.000154078
0.00015213
1.94881e-06
0.000155686
6.72003e-06
-0.000152914
-1.16424e-06
-0.000177286
4.03941e-05
-0.0001433
4.36802e-08
0.000143256
-0.000154035
0.000152133
1.90177e-06
-8.85363e-05
-6.84267e-05
0.000156963
-0.000152921
-1.11384e-06
0.000136369
-0.000140283
3.82739e-06
5.61122e-06
-0.000144598
0.000138987
-0.000153998
0.00015213
1.86817e-06
-0.00014648
-7.56003e-06
-0.000152916
-1.08193e-06
1.37761e-06
-0.000147857
-0.000133645
-1.14336e-05
6.97539e-05
-0.00015829
-0.000149141
-6.4339e-06
0.000132821
-1.45153e-05
-0.000144766
0.000151453
-6.68643e-06
-0.000147757
2.99041e-06
-0.000153966
0.000152116
1.84969e-06
-0.000152902
-1.06344e-06
-6.23282e-06
0.000146614
-0.000140381
1.34401e-07
0.000143607
-0.000143741
-0.00015326
0.000151404
1.8564e-06
-0.000152907
-3.52789e-07
0.000151619
-0.000155086
3.8587e-06
-3.42721e-06
0.000162322
-0.000160558
-0.000153957
0.000152143
1.8144e-06
0.000111368
-0.000151201
3.9833e-05
-0.000152859
-1.09872e-06
4.09922e-06
-0.000144447
0.000140348
0.000125916
1.76065e-05
-0.000153882
0.000152078
1.80433e-06
0.000149134
-9.07105e-06
-0.000140722
-0.000152844
-1.0383e-06
0.00014858
-3.72121e-05
-2.84257e-05
3.49441e-06
-0.000144413
0.000140919
0.000146799
-0.000150797
3.99842e-06
-1.68001e-08
0.000146816
-0.000153875
0.000152081
1.79426e-06
-0.000152827
-1.04843e-06
-0.000151031
0.000128423
2.13771e-05
4.97282e-06
-0.000144665
0.000139693
5.99762e-06
-0.000145808
0.00013981
-0.000153161
0.00015135
1.81107e-06
2.50515e-06
-0.000145988
0.000143101
-0.000152835
-3.2598e-07
-8.50898e-06
0.000151176
-0.000151721
-4.58642e-06
-0.000153121
0.000151323
1.79761e-06
-0.00015281
-3.10774e-07
-0.000148781
0.000149655
-8.73603e-07
-0.000148496
0.000151301
-2.80561e-06
-5.71202e-07
7.29156e-05
-0.000160787
-4.20002e-07
-0.000148076
-0.000143019
0.000144766
0.000149524
-0.000151671
2.14711e-06
-8.26301e-05
-8.3568e-05
0.000149067
-0.000153764
0.000151999
1.76569e-06
9.24004e-07
0.000145489
-0.000146413
-0.000152763
-1.00094e-06
-4.87202e-07
-0.000145892
0.000146379
-5.77922e-06
0.000144917
-0.000139138
2.83921e-06
-0.000145858
-0.000143809
0.000146648
-0.000153741
0.000151982
1.75896e-06
-0.000152744
-9.95879e-07
-0.000147704
1.97065e-06
0.000145734
-0.000143389
-2.58721e-06
0.000145976
-0.000153054
0.000151278
1.77575e-06
-0.000144632
-0.00015275
-3.0394e-07
-0.000154107
0.00015661
-2.50321e-06
-1.76272e-06
-0.000157019
-0.000153692
0.000151945
1.74719e-06
-0.000152701
-9.91143e-07
-0.00014984
2.94001e-06
-4.72408e-06
-0.000153672
0.000151928
1.74382e-06
-0.000152682
-9.89476e-07
-6.90743e-05
-9.25842e-05
8.40003e-08
0.000146278
-0.000146362
-0.000147471
0.000147555
0.000146009
-0.000144598
-0.000153652
0.000151911
1.74046e-06
-0.000147053
1.63129e-06
0.000145421
-0.000152664
-9.878e-07
-1.2652e-06
0.000144769
-0.000142986
-0.000151491
0.000154936
-0.000149378
3.18358e-06
0.000146194
-1.03845e-05
-0.000153633
0.000151893
1.74047e-06
-0.000152645
-9.87802e-07
0.000147323
2.20078e-06
-0.000153613
0.000151876
1.73711e-06
-0.000152622
-9.91158e-07
1.90059e-07
-0.000156029
0.000137648
-0.00015238
0.000154739
-2.35873e-06
-0.000100043
-5.55987e-05
0.000155532
-1.21016e-05
0.000108528
-0.000148042
3.95138e-05
7.57683e-06
-0.000160474
0.000134073
-3.01764e-06
-0.000131028
-4.28738e-05
-0.000146067
7.15349e-06
0.000138087
-7.17006e-06
-0.000143009
-8.77803e-05
-8.29419e-05
0.000170722
-0.000151127
0.000151995
-8.68563e-07
-0.000153223
8.43363e-07
-1.24656e-06
0.000113064
3.8741e-05
0.00014648
-0.000145556
-0.000152308
0.000153195
-8.87043e-07
0.000145993
0.000123296
4.01522e-06
-0.000127311
-1.34401e-07
-3.81361e-05
0.000133544
-1.0248e-05
0.000153879
8.60163e-07
-9.17284e-07
-1.90307e-06
0.000145932
-4.71607e-06
-0.000140815
0.000153939
-2.06641e-06
-2.03679e-06
0.000156657
8.19614e-05
9.7515e-05
-0.000174217
0.000102027
7.21899e-05
-0.000111536
-6.88467e-05
-1.90009e-05
0.00015283
-6.19922e-06
-0.000146026
-0.000156308
-0.000171878
9.36587e-05
-0.00014354
0.000144716
0.000143484
-0.000143605
4.53602e-06
-0.000148158
-4.79033e-06
0.00015295
0.000168006
-6.7627e-05
-0.000148489
-3.69024e-06
0.000152045
7.22799e-06
-0.000148541
0.000140284
-0.000146967
1.59601e-06
-0.000156101
6.25298e-05
0.000158173
-0.000123632
-7.22102e-06
0.00015278
-0.0001454
-1.03656e-05
-0.000142011
0.000152377
9.45172e-05
-0.000161348
6.68307e-05
0.000141641
-0.000147874
0.000151251
-0.000133846
-0.000197149
0.000116542
8.06067e-05
-0.000148978
-3.78401e-06
0.000152694
3.66959e-06
-0.000151726
-0.000173782
8.40003e-05
0.000128554
8.04723e-06
-0.000136601
0.000140482
-1.1928e-05
-7.44243e-06
2.68464e-06
-0.000157417
1.07352e-05
5.30278e-06
-0.000153823
0.000147805
-0.000147696
-1.09234e-07
0.000142246
-0.000147891
4.70153e-05
-0.00014756
0.000144296
5.24162e-06
-0.000155098
0.000151369
3.72961e-06
0.000157284
-0.000161471
-0.000152528
-1.42801e-06
3.44887e-06
-0.000152605
-8.46889e-05
0.000128587
-4.51559e-05
1.37422e-06
-0.00014692
0.000145546
0.000120708
1.71865e-05
-0.000137895
0.000144758
-0.000144344
0.000105773
-0.000147353
4.15802e-05
0.00013519
-1.44817e-05
-7.79523e-06
-0.000142384
0.000142679
-0.000142478
0.00013892
-0.000149285
0.000144397
-3.86234e-05
-1.29159e-05
-0.000134924
0.000143212
-0.000146396
0.000146917
-8.73603e-05
0.000170521
-8.31603e-05
-0.000152257
0.000153117
-8.60168e-07
-8.53431e-07
0.000141445
-0.000144803
-8.95275e-05
-8.97627e-05
0.000132003
-0.000149222
-1.31345e-05
0.000143237
0.000151318
-0.000108125
-9.0231e-05
0.000162626
-7.23948e-05
0.000146261
-0.000153116
1.2264e-06
0.000153916
-9.13049e-06
-0.00013117
4.50569e-05
-1.95871e-06
0.000138257
6.21602e-07
0.000153721
-0.000158391
7.40883e-06
0.000149302
-0.000156711
-0.000152155
0.000153015
-8.60146e-07
-8.04763e-07
-0.000148504
-1.37257e-06
2.75521e-06
0.000138433
-0.000141188
-0.000152477
0.000123716
1.85809e-05
-0.000152131
0.00015299
-8.5848e-07
-0.000176933
3.70811e-05
0.000145186
-0.000142431
-8.07987e-07
-2.83417e-05
0.000146646
-6.82083e-07
4.00178e-07
-0.000145992
0.000145592
0.000153166
-6.55035e-05
-0.000147715
-6.28322e-07
-0.000141154
0.000138617
0.000137044
-2.84986e-06
0.000146201
7.24356e-06
-0.000146354
0.000139177
-0.000152069
0.000152928
-8.58496e-07
-0.00014312
9.74404e-07
0.000142801
-7.9112e-07
0.000163582
-0.00010794
-0.00014312
-6.72003e-06
0.000142443
-0.000142399
0.000145821
2.85601e-08
0.0001532
-2.78881e-06
0.000102615
-0.000142549
3.99338e-05
5.25767e-06
0.00014243
-0.000146921
-0.000144296
0.00014443
0.000164652
-0.000153052
0.000142683
-4.00682e-05
3.92107e-06
-0.000148498
0.000144507
-5.72782e-06
0.000148741
-0.000141613
9.11988e-06
0.000137791
-0.000147778
-0.000139996
0.000148498
0.000183625
-0.000145371
-3.82537e-05
1.06008e-05
-0.000145337
0.000134737
-0.000153199
0.00015077
-1.02595e-06
0.000145069
-0.000134468
6.57723e-05
0.000117852
0.000147888
4.78298e-07
3.34662e-06
-0.000148627
0.000144862
4.73903e-06
-0.000147279
0.000142732
1.22808e-05
0.000136131
-0.000148412
1.34401e-06
0.000145875
-0.000144296
-0.000156257
0.000136702
-0.000139222
0.000149588
-1.37761e-06
-4.55282e-06
0.000147337
-0.000142649
0.000147386
-0.000146972
0.000148916
-0.000154393
1.91521e-06
2.35201e-07
0.000151906
-3.52801e-07
2.58553e-06
-0.000144731
0.000140381
-0.000142969
-3.57016e-06
0.000128984
-0.000144373
-0.000145976
0.000139155
0.000110796
3.87578e-05
-0.00014989
0.000148899
9.91204e-07
0.000152261
-0.000151316
-9.44092e-07
0.000151866
3.94752e-07
-3.83209e-05
0.00014821
-2.80561e-06
0.000152234
-0.000151274
-9.59216e-07
-0.000152224
0.000151731
4.922e-07
0.000151831
4.03154e-07
1.33225e-05
0.000140566
-0.000153889
-0.00012842
0.000141742
1.54897e-05
-0.000143909
-0.000141809
0.000135728
-0.000151243
-9.81063e-07
-5.32562e-06
0.000116156
-0.000134081
1.79257e-05
-5.31007e-07
0.000152503
0.000144481
-0.00014413
0.00014818
0.000122758
-6.60243e-06
-0.00014879
-0.00010532
0.000133964
-2.86441e-05
0.000158744
-1.11552e-05
0.000145976
-0.000133695
0.000101103
-0.000141238
4.01354e-05
0.000141524
-4.0421e-05
0.000123228
-0.000127916
0.000162538
-9.13941e-06
3.49105e-06
-0.000141242
0.000146054
-5.43727e-06
-0.000140244
0.000135198
-0.000140047
4.51552e-06
-0.000146233
-0.000148471
-1.72201e-06
1.13232e-06
0.000146409
-0.000145732
0.000145819
6.40082e-06
0.000136635
-0.000143036
0.000142532
2.50321e-06
-0.000146312
-0.0001375
-8.85389e-06
-4.19372e-06
-0.000141098
-0.000151689
2.31174e-06
9.24004e-07
0.000144632
-0.000145556
-0.000148094
-5.12906e-06
0.000156123
-0.000156123
5.1005e-06
-9.01828e-05
-0.000106966
-0.00014843
-1.41289e-06
-0.000166086
-8.36643e-07
-7.39875e-05
-0.000100229
7.233e-06
-0.000158691
-0.000139786
-0.00014956
-2.61036e-06
0.000132406
-0.000149771
1.68773e-05
-0.00012712
-1.62565e-05
0.000145272
0.000130066
1.20487e-05
-0.000141628
-0.000154952
0.000154093
-0.000145668
0.000148559
-1.08011e-06
1.70857e-05
-0.000122405
-0.000153651
1.65692e-05
-0.000149314
-3.60193e-06
-0.000149274
-3.64729e-06
-0.000149213
-3.70105e-06
-0.000149329
-3.57337e-06
2.81905e-06
-0.000154544
1.79761e-06
-0.000157338
7.56406e-05
2.85601e-06
-0.000149143
-3.75817e-06
2.80057e-06
0.000147809
2.90473e-06
0.000148266
-0.000148604
3.38349e-07
-0.000149327
-3.58009e-06
2.96017e-06
-0.000182331
0.000102128
8.02035e-05
-0.00014907
-3.81193e-06
2.78882e-06
3.01393e-06
-0.000146497
0.000150579
-4.08242e-06
-0.000149324
-3.53474e-06
0.00015328
-0.000165153
1.18426e-05
-0.000149013
-3.85562e-06
3.05593e-06
3.79346e-06
-0.000148963
-3.89762e-06
0.000149175
-0.000151611
2.43601e-06
-0.000149319
-3.52466e-06
3.09625e-06
-5.96402e-06
-0.000148911
-3.93626e-06
2.82407e-06
-0.000152998
-1.1088e-06
-0.000149314
-3.51289e-06
3.12817e-06
-0.000164792
7.74315e-05
0.000137441
-0.000143876
9.76588e-05
-0.000139693
4.20338e-05
2.7635e-06
3.15841e-06
0.000149605
-2.87281e-06
-0.000147101
-4.70402e-07
-0.000149306
-3.52967e-06
0.000151142
-0.000145977
3.84721e-06
-0.000146967
4.20002e-06
-1.51201e-06
2.77527e-06
-4.8065e-05
1.2591e-05
0.000133403
-0.000143106
-0.000149294
-3.51624e-06
2.21761e-06
-0.000140836
-1.80642e-06
0.000142564
3.7212e-06
-0.00014928
-3.48265e-06
3.70969e-06
0.000169805
-0.000149268
-3.47594e-06
2.73036e-06
-0.000149257
-3.49274e-06
1.73041e-06
-0.000150428
1.31713e-05
-0.000140902
2.72525e-06
7.15683e-06
-0.000144716
0.000137559
-0.000149238
-3.46251e-06
0.000162053
-8.40003e-07
-0.000137391
0.000144548
-0.000148748
-1.1424e-06
3.68937e-06
-1.57217e-06
-0.000144201
0.000146487
-0.000128935
-1.34239e-05
0.000142711
-0.000149223
-3.45916e-06
2.72166e-06
-0.000149208
-3.4558e-06
0.000122859
1.83121e-05
2.71998e-06
-0.000130765
-1.62343e-05
0.000148249
-0.000149191
-3.45411e-06
0.000147958
0.000148887
-1.08185e-06
-2.83417e-05
2.71997e-06
-1.68836e-06
-0.000153269
-0.000150984
0.000150388
-1.32049e-06
-0.000149171
-3.45075e-06
-0.000150618
0.000152062
-1.44485e-06
-0.000151446
8.28315e-07
2.02945e-05
-0.000138937
0.000118642
2.72165e-06
-0.000149151
-2.52003e-06
2.72502e-06
-7.23747e-05
-9.86836e-05
0.000171058
-1.13123e-05
-0.000131345
0.00014265
0.000140224
-0.000145769
8.62272e-06
-0.000152864
3.36001e-07
0.000130971
-0.000142169
-6.55203e-06
0.000145808
-0.000139256
1.07813e-05
-0.00014276
-1.09653e-05
0.000143224
1.05373e-05
0.000138433
-0.000148634
-9.2014e-05
0.000178165
-0.0001472
-0.000145288
0.000146996
-3.02539e-06
5.44322e-06
0.000142935
2.68801e-07
0.000146161
-0.000146429
-3.36001e-07
0.000146967
-0.000146631