/*--------------------------------*- C++ -*----------------------------------*\
  =========                 |
  \\      /  F ield         | OpenFOAM: The Open Source CFD Toolbox
   \\    /   O peration     | Website:  https://openfoam.org
    \\  /    A nd           | Version:  12
     \\/     M anipulation  |
\*---------------------------------------------------------------------------*/
FoamFile
{
    format      ascii;
    class       volScalarField;
    location    "0.4";
    object      T;
}
// * * * * * * * * * * * * * * * * * * * * * * * * * * * * * * * * * * * * * //

dimensions      [0 0 0 1 0 0 0];

internalField   nonuniform List<scalar> 
46253
(
1
1
1
1
1
1
1
0.99779
1
1
1
0.972361
1
1
1
1
1
1
1
1
1
1
1
1
1
1
1
1
1
0.997927
1.01248
1
1
1
1
1
1
1
0.994364
1
1
0.97146
1
1
0.954994
1
1
1
1
1
1
1
1
0.99656
1
0.972135
1
1
1.03683
1
1
1
1
1
1
1
1
1
0.974612
0.956954
1
1
1
0.999989
1
1
1
1
1
1
1
1
1
1
1
1
1
1
0.995566
1
1
1
1
1
1
1
1
1
1.03607
1
1
1
1
1.01171
1
1
0.969657
1
1
0.97034
0.994136
1
1
1
1
0.994754
0.965651
1
1.08841
0.978577
1
1
1
1
1
1.10121
1
0.971073
1.00009
1
1
1
1
1
1
1
1
1
0.979567
1
1
1
1
1.01024
1
0.999992
1
1
0.994401
1
0.969601
1
1
1
1.00387
0.959416
0.971165
1
1
1
1
0.965058
0.970715
1
1
1
1
1
1.13697
1
1
1
1
1
1
0.96462
0.987262
1
1
0.966494
1
1.00338
1
1
1
1
1
0.954919
1
1
1
1
1
1
1
1
0.994298
1
1
1
1
1
1
1
1
0.963728
1.00258
1
1
1
1
1.08898
1
1
0.987154
1
1.00949
1
1
1
1
1
0.963804
1
1
1
1
1
1
1
1.02468
1
1
1
1
1
1
1
1.02384
1.02835
1
1
1
1
1
1
1
1.00235
1
1
1
1.02752
1
1
1
1
1
0.977561
1
1
1
1
0.969665
1.01064
1
1
1
1
1
1
1
1
1
1
1
1
0.999996
1
0.996478
0.981201
1
1
1
1
1
1
1
0.976372
1.00776
1
1.03452
1.03378
1
1
1.03233
1.01807
1
1.01789
1
1
1.08821
1
0.972677
1.09049
1
1
1
1
1.01046
1
1
0.982903
1
1
1
1
0.979006
1.03159
1
0.996406
0.974097
1
1
1
0.994341
1.00711
1
1
1
1
1
1
1
1
1
1
0.976345
1
1
1
1
1
1
1.02381
1
1
1
1
0.980215
1
0.995512
1
0.965274
1
0.964205
1
1
1
1
1
0.964541
1
1
1
1
1
1
1
1
1
1
1
1
1
1
1.03024
0.979692
1
1
1
1
1
0.972541
1
0.997947
1
1
1
1
1.11641
1
1.00806
1
1
1
0.997678
1.00077
1.00092
1
1
1
1
1
1.02956
1
1
1
1
1
1
1
1
1.07686
1
1
1
1
1
1
0.978198
1
1
1
1
1
1
1
1
1
1
0.981753
1
1
1
1
1
0.995428
1
1
0.996733
0.975006
1
1
1
1
1.00468
1
1
0.974311
1
0.981842
1
1
1
1
1
0.995997
1
1
1
1
1
1
1
1
1
1
1
1
1
1
1
1
0.996219
0.972387
1
0.981426
1.00175
1
1
1
1
1
1
1
1
1.00013
1
0.982575
1
0.966701
0.983213
1
1
1
1
1
1
1
0.970219
1
1
1
1
1
1
1
1.01123
1
1
1
1
1
0.997993
1
1
1
1
1
1
1
0.961164
1
1
1
1
1
1
1
1
1
0.991191
0.990132
1
1
1
1
1
1
1
1
0.980725
1
1
1
1
1
1
1
0.961035
1
1
1
0.981035
1
1
1
1
1
1
1
1
1
1
0.966368
1
1
1
1
1
1
1
1.0088
1
1.00675
1
1
0.972278
1
1
1
1
1
1
1
1.00596
1.02331
1
1.02345
1.02368
1.02396
0.993315
1
1
1
1.00803
1.00265
1
1
0.999788
1
1.08884
0.984089
1
1.08982
1
1
1.01049
1.01176
1
1
0.996461
1
1
1
0.998058
1
1
1
1
1
1
1
1
0.954189
1
1
1
1
1
1
1
1
1
1
1
1
1
1
1
1
1
1
1.05892
1
1
1
1
1
0.96291
1
0.981317
1
1
1
1
1
1
1
1
1
0.998368
1
1
1
1
1
1
1
1
0.978987
1
1
1
1
1
1
1
1
0.996274
1
1
1
0.985303
1
0.976065
1
1
1
1
1
1
1
1
1
1
1.01313
1
1
1
1
1
1
1
1
1
0.999999
1
1
1
1
1
1
1.00109
1
1
1
0.976495
1
1
1.07608
1
1
1
1
1
1
1.031
0.995398
1
0.97089
1
1
1
1
1
0.981155
0.975484
1
0.994307
1.08578
1
1
0.970201
1
0.978051
1.00014
1
1
1
1
1
1
1
1
1
1
1
1
1
1
0.980084
0.982789
1
0.999683
0.954874
1
1
1
1
1
1
1
1
1
1
1.02377
1
1.02388
0.980903
1
1
1
1.02436
1
1
1
1
1
1.02319
1.02397
1
1
1
1
0.980845
1
1
1.02397
1
1
0.995113
1
1
1.00109
1.00186
1
1.02332
0.972272
1
1
1
1
1
1
1
1
1
1
0.957405
1
1
1
1
1
1
0.95945
0.953665
1
1
1
1
0.997954
0.976148
1.05689
1
1
1
1
1
1
1
1
1
1
1
1
1
1
1
1
1
1
1
0.970226
1
0.974715
1
1
1
1
1
1
1
1
1
1
0.986601
1
0.975621
0.975794
1
0.984658
0.981992
0.975248
0.974531
1
1
0.999235
1
1
1
0.990393
0.985645
1
1
1
1
1
1
1
1
0.996348
1
1
1
1
1
1
1.00277
0.954531
1
1
1
1
1
1
1
1
1
1
1
1
1
1
1
1
1
0.997921
1
0.984144
1
0.983173
1
1
1
1
1
1
1.07326
1
0.984981
0.993918
0.993711
0.985348
1
1
1
1.03248
1
1
1
0.964887
0.993923
1
1
1
1
1
1
1
1.11695
1
1
0.978155
0.980545
0.998322
0.956774
0.938597
0.954153
0.978243
1.00091
1
0.962787
1
1
1
1
1
1
1
1
1
1
1
1
1
1
1
1
1
1
1
1
1
1.03498
1
1
1
1
1
1
1
1
1
1
1
1
1
1
1
1
1
1
1
1
1
1.0241
1
1
1
1
1
0.958915
1
1
0.990447
1
1
1
0.978131
1
0.999999
1
1
1
1
1
1
1
1
1
1
0.982926
0.949469
1
1
1
1
1
0.946748
1
1
1
1
1
0.998316
0.995822
1
1
1
1
1
1
1
1
1
0.961216
0.960308
1
0.961737
1
0.961438
0.962742
0.968153
1
1.09915
0.994408
1
1
1
1.0081
1.00933
1
0.998635
0.999917
1
0.99457
0.993853
0.999908
0.999878
0.999888
1.02303
1
0.980639
1
1
1
0.998526
0.988726
0.977837
0.997281
1
1
1.02278
0.969515
1
1
1
0.993075
1
1
1
1
0.986908
0.997526
0.999117
0.999878
0.998229
0.999356
0.978362
1
0.99352
1
1
1
0.962227
0.983162
0.96813
0.991849
0.999988
1
1
0.999949
1
0.987477
0.996297
1
1
1
1
1
1
1
0.968971
0.996483
0.974147
1
1
1
1
0.98806
1
1
0.95753
0.976996
1
0.979409
1
1
1
0.999999
1
1
1
1
0.999391
1
1
0.988963
1
1
0.998265
1
1
1
1
1
1
1
1
1
1
0.973981
1.00003
1
0.988574
0.986184
1
0.969693
1
1.02299
1
1
1
0.990079
1
1
1
1
0.993213
1.00036
0.985076
1
1.03166
1
0.999982
1
1
0.990597
1.00001
1
1
1
1
1
1
0.961496
1
1
1
1
1
1
1
1
1
1
1
0.998387
1
1
1
1.00001
1
1
0.999995
1
0.991175
1
0.999821
1
0.999187
1
1
0.963609
1
1
0.983312
0.998954
1
1
1.00734
1
1
1
1.02058
1
0.99778
1
1
0.972937
1
1
1.02144
0.998791
1
1
1.00653
1
1.00693
1.00052
1
1.02531
1
1
1
1.00001
1
1
0.984573
1
1
0.986509
1.02592
1
1
1
1
1
1
1
1
1
1
1
1
1
1
1
1
1
1
1
1.03511
1
0.995045
1
1
1
0.992006
0.980188
0.967679
1
0.965043
1.00755
1
1
1
1.0033
1
1.02414
1
1
0.978457
0.977615
1
1
1
1
1
1
1
1
1
1
1
1
1
1
0.985061
1
1
1
1.0236
1
1
1
1
1
0.983654
1.02699
0.983162
1
1
1
1
1
1.02391
1.02261
0.969581
1.02004
1.02352
0.998103
1.01243
1.00611
1
0.999708
1
0.995875
1
1.02402
1
1
1.02341
1
1.02236
1
1
1.02288
1
1
0.984933
1
1.02379
1
1
1
0.981195
1
0.981288
1
1.0194
0.976862
1
1
1
1.02287
0.999281
1
1.00289
1
1
1
0.95328
1
1
0.997837
0.988644
1
1
1
1
1
0.977129
1.00369
1.01456
1.02008
0.99637
1
0.996827
1.01761
1.0267
0.99169
1.02651
1
0.999761
1
1
1
0.991297
1
1
1
0.958011
0.981649
1
1.02339
1.00175
1.02372
1
1
1.0233
0.994675
0.986531
1.00001
1
1
1
1
1
1
1
1
1
1
0.992838
1
1
0.963463
0.976413
1
0.969153
0.97647
1
0.975093
1
0.948972
1
0.995616
1
0.995034
1.01259
1
1
1
0.954539
0.980158
0.977581
1.00725
1
1
0.941407
0.994453
1
0.999988
0.943622
1
1
1
1
1
1
1
1.00559
0.967871
1
1
1
0.994779
1
1
1.01847
1
1
1
1
1.01422
1
1.00203
1
0.962784
1.03384
1.03606
0.999761
1
1
1.00015
1
1
1
1
0.967757
1
1
1
0.966223
1
1
1
1
1
1
1
1.02826
0.962216
0.978049
0.960854
1
1
1
0.957865
1
0.998212
1
1
1
0.963603
0.949916
1
1.00102
1
0.983537
1
1
1
1
1
1
1
1
1
1
1
1
1
1
1.02233
1
0.948298
1
1
1
0.989913
0.953579
0.982353
0.999961
1
0.983593
1.00153
0.975754
1.03751
0.985381
1
1
1.03765
0.951856
1
1
1
1
1
1
1
1
1
1
0.998901
0.980589
1
0.969181
0.960862
1
0.960727
0.978061
1
1
0.967846
1.00579
1.00701
1
1.00693
0.9683
0.991385
1
1.0072
1
0.963943
1
1
1
1
1
1
1
1
0.974101
1
0.99897
1
0.961415
1
1
1
0.974412
1
0.999899
1.0003
0.999982
1
1
1
1
1
1
1
1
0.999941
1
1.00253
1
1
1
0.994156
1
1
1
0.96743
1
0.971459
1
0.999717
0.999651
0.973318
0.999359
0.992724
1
0.979013
1.03834
1
1
1.00001
1.04714
0.974117
1
1
0.964061
0.964725
1.00577
0.993173
1
1
1.00515
1
1.0137
1
1
1
0.997973
0.998147
0.998275
0.998767
0.972165
1
1.00657
0.998675
1
1.02574
1.02668
0.98279
1
1
1
0.998676
0.987245
1
1
1.01569
1.01573
0.994719
1
1
1
1
1.0024
1
1
1
1
1
1
1
1
0.979587
1
1
1
0.979791
1
0.987564
0.977745
1.00794
1.00316
1.06969
1
1
1
0.995683
1
1
1
0.993736
0.994921
1
1
1
1
0.99605
0.992846
0.997144
0.994573
1
1
1
1
0.995802
1
0.983172
0.989636
1
0.981733
1.00188
1.00704
1
0.984209
0.969194
1
1
0.977702
1
0.995254
1.00745
0.982874
0.999996
1
1
1
1
1
1.00082
1
1
1
0.999816
1
1
0.986842
0.985188
0.988848
1
1
1
1
0.983932
0.990017
1
0.974468
1.02836
1
1
1
1
1
1.00714
1
1.00157
0.98506
0.986271
0.998624
0.987844
1
1
1
1
1
0.998454
1
0.999445
1
1
1.02862
0.999127
0.990478
1
0.99057
0.999999
1
1
1
1
0.985154
1
1.00722
0.989729
1
1
1.03033
0.991035
0.975947
0.985582
1
0.998937
1.00151
1
1
1
1
1
1
1
1
1
0.994867
1
1
1
1
1
1
1
1
1
1
1
1
1.00047
1
1
1.00397
0.998314
1
1
1
1
0.977882
0.99005
1.00632
1
1
1.00324
1.00157
1.02204
1
1
1
1
1
1
1
1.00627
1
0.989351
1
1
0.983797
1.00097
1
0.970071
1
1
1
1
1
1
0.970645
0.999912
1
1
1.00716
0.970157
0.993023
1.00227
0.974157
1
1
0.987283
1
1.00657
0.980672
0.972851
1
0.983405
0.993704
1
1
1
1
1
1
1
1
0.986094
1
1
1.00642
1
1
1.00291
1
1
1
1.04741
1
0.973495
1.02759
1
1
1.01444
1
1
0.998979
0.972822
1
1.00206
1
1.0089
1
1.00789
1
1
1
1
1
1.00181
1
1
1.00962
1
1
1
1
1
1
1.00181
1
1
0.969516
1
1
1.04608
0.979749
0.999938
0.969811
1
1
1
1.01378
1
0.969302
1
1.03117
1
1
1.03951
1.00155
1.0031
0.97029
1.0015
1
1
1.00277
0.999939
1.00344
1
1.00325
1.00903
1.00106
1
1
1.00432
1
1
1
1
1
1
0.988552
1.00331
1
1
1.03513
1.00545
1.00341
1
1
1
1.00419
1
1.08322
1
1
1
1
1.00098
1
1
1
1
1.00648
1
1
1.00007
1
1
0.982977
1
1.01236
1
1.01466
1
1
1
1.04066
1.0118
1.00311
1.0077
1
1
1
1
1.03309
1.02567
1.00926
1
1
1.03371
1
1
1
1
1
0.994683
0.984229
1.0139
1
1.02143
1
1
1
1.00661
1
0.991928
1.0387
0.984721
1
0.973733
0.97044
1
0.983539
1
0.976315
0.992673
1.01986
0.990645
1
1
1.017
1
0.998632
1
1
1
1.01084
1
1.01353
1
1.01652
1
1
1.01264
1.00984
1
0.990681
1
1.00001
1.003
1.047
1.0035
1
1
1.00601
1
1
1.01381
1
1.00388
1.00739
1.01743
1
0.980757
1
1.0202
1.00795
1.01723
1
1.00837
0.995578
1
0.994042
1
1
1
1
0.996481
1.00649
1.00412
1.00601
1
0.989581
1.01179
1.009
0.995606
1
1.01838
1.01358
0.994894
1.01633
0.997628
1
1
1
1
1
1
1
1
1
1
1
1
0.995552
1
1
1
1.01683
0.998982
1
1.00571
1.01116
1.01533
0.991875
1
1
0.999664
1.02271
1
1
1
1.01906
1
1
1
1.00086
1
1.00265
1.0044
1.00252
1.02011
1.02132
1
1
1
0.990126
1
1
0.998921
1.02048
1.00975
1.02058
1
0.988306
0.99751
1
0.997116
1.02331
1.02189
1
1.00264
1.00425
1.0229
1.00489
1
1
1.00286
1
0.987846
0.961967
1.0095
1
1
1.04636
1.02584
0.992431
1
1.02442
1.02507
0.993086
0.970837
1
1.02356
0.991805
1
1
0.991209
1
1
0.970357
1
1
1.00088
1.00286
1
1.00866
1
1.02695
1
0.98161
1
0.999899
1
0.986627
0.993416
0.995593
1.02673
1
1
1
1
0.999
1.00321
1.00483
1.00197
1.02617
1
1.00232
1
0.98265
0.997308
1.00227
0.998227
1
1
1
1
0.984523
1
1
1
0.984659
1
1
1
0.997252
0.999998
1
1
0.962458
1
1
0.998707
1
0.996969
1
1
1
1
1
1
1
1
1
0.996055
1
0.995406
1
1.02761
1
1.02779
1
1
0.972376
1
1
1
1
0.994445
1
0.998098
1.00179
1
1
1
0.999456
1.04785
1
0.973813
1
1
0.981446
1
0.96427
1
1
1.00329
1
1
1
1
1
1.02937
1
1
1.00779
1.01034
1.02858
1
1
1
1
1.00056
1.03063
1
1
1.02991
1
1.03167
0.972088
1.03105
1
1
1.01078
1.00644
1
1
1
1
1
1
1
1.02856
1.00529
1
1
1
1.00001
1
1
1
1
1.03209
1.01585
1
1.00258
0.988807
1
1.00681
1
1
1.02579
1
1
1
1
1
1
1
0.999933
0.999931
1.03274
1
1.03534
1.03464
1
0.987441
0.962206
1
1
1
1
1
1.034
0.981316
1
1.01073
1
1
1
1
1
1
1
1
1.01986
1
1.03327
1
0.991231
1
1
1
1
1
1
0.981161
1
1.03595
0.999696
1.00517
1.03671
1
1
0.999057
1
1.0001
1.07183
1
1
1
0.998622
1.02004
1.00751
1
1
1.00762
1
1
1.01251
1
1
0.999311
1
1
1
0.962424
1
0.973121
1
1
1
1.00212
1
1
1.0374
1
1
1
1
1.0023
1.00168
1.03838
1
1
1
1
1.00213
1.00154
1
1
1
0.990746
1.00178
0.98053
1
1
1
1
1
1
1
1.00125
0.993708
1
1
0.998312
1.00088
1
1
1
1
1.0502
0.970401
1
1
1
1
1
1
1
1
1
1
1
1
1
1.0298
1.00114
1
1
1
1
1
1
1
1
1
1
1.00141
1
1
1
1
0.986148
1
1
0.984193
1
1
1
1
1
1
1
1
0.99383
1
1
0.999773
1
1
1
0.973079
1
0.986475
0.999954
1
1
0.999813
1.0231
1
1
1
0.989649
0.992406
0.992659
1
0.970759
1.02076
1
1
0.991523
0.999985
1
0.996885
1
1
0.994274
1
1
1
0.994308
1
0.974462
1
1
1
0.973953
0.999999
1
1
1
1
1
0.990017
1
0.974035
1
1.00183
1
0.980471
0.983608
1.04981
1
1
1.00137
1
0.997554
0.994478
1
1
1.02994
0.996401
1
1
0.980293
0.98594
1.00139
0.96134
1
1
1
1
1
0.999997
0.990216
1
1
1.01937
0.997234
0.98246
0.994185
1.01667
1
1.00301
1
0.996432
1.00009
0.998404
0.974314
1
1
0.989086
0.977897
1
1
1
1
0.977283
1
1
1
1
1
1
0.996543
1
1
1
1
1
1
0.94476
1
1
1
1.02589
0.980777
1
1
1
1
1
0.975848
1
1.01531
1.00044
0.999997
1
0.999995
0.967955
1
1
0.987684
1
1
1
1.00161
1
1
0.973055
1
1.02252
0.988775
1
1.02
1
0.998888
1
1
1
0.968188
1
1
1
1.00328
1.01487
1
0.99265
0.98497
1
1.00289
1.00741
1
1
1
1
1
1
1
1.00768
1.01973
1
1.02946
1
1
1
1
1
1
1
1.0001
0.972801
1
1
1
1
1
1
0.988217
1
1
1
1
1
1
1
1.06751
1
1
0.980868
1
1
1
1.00452
1
1
1
1.02614
1.00312
0.988686
0.999101
1
0.996981
0.990659
1
1
1.02594
1
0.996839
1
1
1.00721
1
1
1
1
1
1
1
1
1.00006
1
1.05745
1
1.026
0.988783
1
1.02612
0.98954
1
1
1
1.0262
0.999541
1.02949
1
1.02511
1
0.999332
1
1
1
1.02546
0.984493
1
1
1.00007
0.999605
1.00476
1
1
1
1
1
1
1
1
1.00131
1
1.05965
1
1
1
1
1
0.988604
1
1
1
1
1
1
1
1
1
1
1
1
1
0.993486
1
1
1
1
0.976319
1
1.00624
1
1
1
1
1
1
1
1
0.992044
1
1.00403
1
1
0.98071
1
0.999927
1
1
0.999171
1.00062
1
1
1
1
1
1
1.01352
1
1.0144
1
1
1
1
1.00789
0.991253
1
1.00319
0.998444
1
1
1
1
1.05762
1
1
1
1
1
1
0.999988
0.992784
1
1
1
1
1
1.02479
1
1
1
1.01734
1
1
1
1
1
1
1
1
0.975199
1
1
1
1
1
1
1.00001
1.01734
1
0.984549
1.01781
1
1
1
1
1
1
1.0024
0.99959
1.03318
1
1
1
1
0.970621
1
1
1
1
1
1
1
1
1
1
1.01107
1
1
1
1
1
0.991811
1
1
0.999184
1
1
1
1
1
0.99646
1.00678
1.01958
1
0.963877
1
1
1
1
1
1
1
1
1
0.991169
1
1
1
1
1
1
1
1
1
1
0.994713
1
0.948981
1
0.995612
0.998743
1
1
1
0.995586
1.02143
1
1
1
1
1
1
1
1.00049
1
0.998619
1.00322
1.08253
0.999406
0.969869
1
1
0.969807
1
1
1
1
1
1.00879
1
0.962099
1.01144
1
1.00935
1
0.962201
1
0.991401
0.999722
1
1
1
1
1
1
1
0.991003
1
1
1
0.999778
1
1
0.990837
1
1
1
1.00298
1
1
1
1.02528
1
0.979517
1
1
1
1.04418
0.964997
1
1.0249
1.01746
1
1
0.978134
0.970314
0.965703
1
0.97005
1
1.02674
1
0.998576
1
0.980672
0.997181
1.03613
1.03418
1
1
0.974249
0.999738
1
1
1.01265
0.965704
1
1.00474
1.00109
1.03119
0.999892
1
1
1
1
1
1.00171
1.01543
1
0.9794
1
0.981381
1
1.01038
1.03465
1
1.03698
1
1.0048
0.999998
1
1
0.971614
1
1
1.01129
0.983096
1
1
0.99896
0.998
1
1.00331
1
1
1.00661
1
1
1.03165
1
1
1.00649
1.05523
1
0.981984
1
1
1.00124
1
1.00295
1
1.01626
1
1.00139
1
1
1.00013
1.00982
0.985706
1
1
1
1
1.00016
1
0.962909
1.00009
1.02634
1
1
1
1
1.00318
1
1
1.02452
1.02436
0.991206
1
0.984772
1
1.02522
1
1
1
0.998768
0.990962
1
1
1
1
1.00866
0.963269
1
1
0.987581
0.967502
1
1.0238
1.02438
1.01606
1
1
1
1
1
1.00941
1.02899
1.01583
1.01977
1
1
1.00001
1
1
1
1.0287
1
1
0.987461
0.974937
1
1
1.01198
1
1
0.976469
1
1.02097
1
1.02403
1.00703
1
1.0019
1
1
0.973216
1
1
1.00169
0.989371
1
1
1.00045
1
0.980209
1
1
1.01979
0.973089
1
1
1
1
1
1.02276
1
1
1
0.988644
1
1
1
1.05318
0.974441
1
1.00612
1.00882
0.973833
1
1
1
0.992656
0.995066
1
1
1
0.975101
1.00218
1.00927
1
0.998462
0.99167
1
1.00339
1.00022
1
1.01746
1
0.987079
1
1.02193
1.01845
1
0.99064
1
1.00336
0.995411
0.982556
1
0.991075
1
1
1.02586
1
0.985181
1
1
1
1.01062
1
1
1
0.994433
1.01283
1
1.02279
1
0.974364
1
1
1.0637
1.02696
1
1.02493
1.00106
1.01854
1
1
0.985986
0.992056
1
1
1.03683
0.993998
1
0.993314
1
1
1.0256
0.999998
0.966893
1
1
1
1
0.999374
1
1.02524
0.994134
1
1
1
0.993377
1
1
1.01781
0.991164
0.999999
1.01241
1
1.00242
1
1.0262
1.06233
1
1.00704
0.9902
1
0.996066
1.01774
0.999998
1
1
1
0.99705
1.02425
1.00754
1.00947
1
0.993824
1.02644
1
1
1
1.0033
0.999535
1
0.995569
0.991573
0.969379
1.0178
1
1
1
1
0.97287
1.02451
1
1.01745
1.00293
1
0.9664
1
1.01324
1
0.999999
1
1.01203
1
1
1.05566
1
1
1
0.997321
0.963562
0.999741
1.0157
1.02181
1.02649
1
1
1.0158
1
0.989131
1
1
1.01242
1
1
1
1
1
1
1
1
1
1.00587
1.026
1
1
1
0.970906
1.00931
1.0253
1
1.00901
1
1
1
1
1
1
1.01628
1
1
1
1.0119
1.02467
0.999617
1.01443
1
1.00746
1.00842
1
1.03928
1
1.0532
1.00152
1.01223
1.01209
1
1.00038
1
0.997914
1.02295
1
1
1
1
1
1
1
1
1
1.01624
1
1.00005
1.0121
1
1
1
1.0222
0.978428
1.0131
1
1
1
1.00001
1
1
1
1.0019
1
0.987711
1.02855
0.997794
1.01234
0.995651
0.999459
1.01725
1.01578
1
1
1
1
1.01992
1.01129
1.02754
1
1
1
0.994671
1.01382
1
1
1
1
1
1.01193
1
1
1
1
1
1
1
1
0.971971
1.0117
1
0.983429
1
1
1
0.976184
1.02689
0.999999
1.01908
1
1
1.0514
1.01461
0.996077
1.02061
1
1
1
1
1
0.998917
1.02729
1
1
1
1.02526
1.00208
1
0.98496
0.970398
1.02073
0.999938
1.01243
1
0.999956
1
1.0163
1.01793
1
1
1.02546
1.01491
1.04142
1
1
1.02634
1
1
1.02909
1.01654
1
1.01456
1.02979
1
1
1
0.990614
1
1.02945
1.00484
1
1.00826
1
1
1
1.02046
1
0.970132
1.00433
1.01866
1.02572
1
0.978392
0.971085
1.00302
1
0.966658
1.00625
1.00294
0.999642
1.0154
1.01382
1
0.992973
0.998043
1
0.998789
0.997081
1.01917
1
1
1
0.99701
1.00874
1
1.00534
1
1.01905
1.00001
0.964451
1
1
1
1
1.00107
1
0.998075
0.977199
1.0095
1
1.01492
1
1
1.02541
1.0614
1
1
1
0.986952
1
1.00001
1
1
1
1
1
1
0.998584
1
1
1.00026
1.01392
1
1
0.960894
1
1
1
1
1
1
1.01283
1.01749
0.996842
0.99894
1
1
1.00003
0.996227
1.01585
0.973202
0.986107
1.02178
1
1
1
0.989954
0.992049
1.01388
1
1
1
1.00077
1
1
1.01326
1.015
0.984839
0.993482
0.951521
1
1
1
1
1
1
1
1
1
1.01344
1.01286
1
1
1
1.00413
1
1
1.01753
0.96745
1
1
0.994875
1.01383
1
1.04391
1
1
1
1.02817
1
1.0639
1
1
1
1
1
0.999872
1.01883
1
1
1
1
1
1
1.01774
1
0.992686
1
1
1
0.986519
1
0.993019
1.02252
1
1
1
1.05578
0.95398
1
1
1
1
1
1
1.02879
1.0083
1
1
1
1
1.02586
1
1.02282
1
1
1
1
0.995603
1
0.999742
1.02182
1
0.996978
1.029
0.992137
0.99948
1
1
1
1
1.00014
1
1
1.02765
1.01114
1.02767
1.0136
1
1
1
1
1.01469
0.996509
1.00136
1
1
1
1
0.971833
1
0.999961
1
1
1
1
1
1.00916
1
1
1
1.00858
1
0.987294
1.01131
1
1.01354
0.99988
1
0.999999
1
1
1
1
1
1.06692
1
0.973735
1
1
1
1
1.00062
1.00611
1
1
1.02161
0.975637
1
1
1
1
1
1
1
1
1
1.02736
1
1
1
1
1
1
1.01084
1
1.02593
1
1
1
1
0.999677
1.03293
1.03035
1
1
1
1
1
1
1
1
1.02242
1
1
1.00199
1
0.974608
1.02267
1
1
1
1.03008
1
1.00568
1
1
1
1
1
1.01093
1
1.01943
1
0.984699
1
0.962204
1
1.03066
1.03354
0.999777
1
1
1
0.968143
1.00527
1.00641
1.00655
1
1.02803
1.02242
0.979131
0.999998
1
1
1
1.01896
1
1
1
1
1
1
1
1
1
1
1
1
1.01045
1
1.02368
1
1
1
1
1
0.990201
0.997337
1
1.0305
1
1
1
1.00442
1
0.988182
1
1.01233
1
1.02219
1
1.00088
0.971093
0.9755
1
0.997092
1.00945
1
1.0163
1
1.0641
1
1
1.01426
1.02375
0.977892
1
1.00314
1.02659
1
1.01154
1
0.994671
1.00151
1.01337
1.03128
1
1
1
1
1.02622
1
1.07041
1
1
1
1
1
1
1
1
1
1
1
1.02938
1
1.01606
1
1
0.999915
0.998775
1
1
1
1
0.999083
1
1
1
1
1
1
1
1
1
0.999918
0.998589
1
0.967251
1
1.0279
1
1
1.0277
1
1
1
1
1
1
0.971221
1
0.997743
1
1
1
1
0.997072
1.0138
1
1
1
1
1.01467
1
1
0.999813
1
1
1
1
1.02058
1.02544
1
1
1
1
1
1
1
1
1.01211
1
0.988157
1
1
1
1
1.06033
1
1
1
1
1.01435
1
0.999996
0.981069
1
1.02065
1
1
1.00789
1.00257
1
1
1
1.00011
0.990556
1
1
1
1
1
1.02575
1
1
1
1
1
1
1
0.992825
1
1
1
0.998047
1
1
1.00001
1
0.984393
1.02607
1
1
0.981364
1
0.995097
1
1
1
1
1
1
1
1
0.998034
0.987125
0.981871
1.02936
1
1
0.999873
1.01889
1
1.02719
1
0.999306
1
1.02662
0.97951
1.00904
1
1
1.02477
0.99478
1.02433
1
1
1.02971
1
1.00632
0.999416
1
0.989937
1.0265
0.98739
1
1
1
1.00831
0.992177
1
1.0171
1
1
1.00189
1.00293
0.999974
1
1.01306
1.02695
1
0.994531
1.01968
1
1
0.991313
1
1
1.00007
1
1
1
1
1
1.00739
1
1.02518
1
1.00821
1
1
1
0.999146
0.983349
1
1.00851
0.9973
1
1
1
1
1.01211
1.02769
0.997385
1
1
1
0.999973
0.995254
1
1.0183
1
1.02891
1
1
1.0126
1.01153
1.00904
1
1
1
1.00044
1
1
1.021
1
1
0.980687
1
1
1
0.989201
1
1
1
1.01073
1.00188
1.03026
1
1.02008
1
1
1
0.993338
1
1.02824
1
1
1
1
1
1
1
1
1
1
1
0.978219
1
1
1.00801
1.00674
1.02239
1
1
1
1
1
1.00677
1
0.967546
1
0.999975
0.99942
1
1
1.02914
1.01174
1.00907
1
1
1.00798
1.02044
1
0.995481
1
1.01315
1
1
1
1
1.00531
1
1.00555
0.995907
1
1
0.999995
1.01599
1
1
0.996632
1
1
1.03001
1
0.998496
1
1
1.01034
1
0.973631
1.01935
1
1
0.982907
1
1
1
1.00714
1
1
1.00913
0.998329
1.01647
1
1.00939
0.976912
1
0.973694
1.01175
1
1
1
1
1
1
1
1
1
1
1.01824
1
1
1
1.02064
1
0.98241
1.01667
0.999999
1
1.00911
0.999994
1
1
1
1.00644
1
1.00138
1.00947
1
1
1.02819
1.02105
1
1.00417
1
0.984536
0.996175
1
1.02398
1.00508
1.01691
1
0.973896
1.02842
1.06378
1
1.01947
1
1
0.970645
1
0.996275
1
1
1.00308
1
1
1
1.02844
1
1.00983
1.01384
1
1
1
1
1.05124
1
1
1.01551
1
1
1.00003
1.01188
1
0.991465
1
1
1
1
1
1
1
1.01814
1.0294
1.01326
0.970204
1
1.00303
1
1.02544
1.02298
1
1.02658
1
1.00536
1.0224
1
1
1.01976
1
1
0.990812
1.00001
1
1
0.951897
1.01601
1
0.962374
1
1.00019
1
1
1
1.01961
1.01515
1
1
1
1
1
1
1
0.956887
1.02297
1
1
1
1
1
1
1
0.991211
1.0085
1
1.01544
1
1
1
1.02168
1
1.05364
1.00562
1.00988
1
1
1
1
1
1
1.02054
1
1
1.01718
1
1
1
1
1
0.991555
1
1
1
1.02454
1
1.00001
1.00013
1
1
1.00122
1
1
1.00087
0.979798
1
1
1
1.01049
1.02819
1.01218
1.00467
1
1.00625
1
0.974805
1.02958
1
1
1
1
1.01051
1.02976
1.01239
1.00639
1.02575
1
1
1.03317
1.03321
1
1
1
0.997679
1
1.01764
1
1
1.01212
1
1
1
0.965016
1
1.00158
1
1
1.00131
1
0.991299
1.0138
1.02111
1
1.02691
0.964361
1
1
1
1
1
1
1
1
1
1.02282
1.06526
1
1
1
1.00611
0.961972
1
1.01578
1
1
1.0151
1
1.00451
1
1.0122
1
1
1
1
1
1.02151
1.02719
1
1
1
1
1
1.0148
1
1
1
1
1
1.02706
1.00002
1
1
1
1
1.01491
1
0.986141
1.02215
1
1
1
1
1
1.01992
1
1
1.01519
1
1
1.02522
1.02043
0.976935
1
1.01847
0.997563
1
1.02887
1
1.03115
1
1
1.0444
1.02959
1
1
1
1
0.996815
1
1
1
0.99989
1
1
0.998335
1.01988
1.0212
1
1
1
1.02326
1.03292
1
1
1
1
1
1
1
1.0016
1.02509
1
1.00603
1
1
0.989438
1
1
1.00003
1
1
1
1
1
1
1.01344
0.951808
1
0.994784
0.99158
1
1.01366
1
1.01564
1
1
1.00284
1
1
1
1
1
1
1
1.01232
1
1.05603
1.00207
1.02571
0.995078
1
1
1
1
1.07072
1.01411
1
1
1
1
1
1
1
1
1.0103
0.996042
1
1
1
1
1
1
1.0303
1.01867
1
1.01692
1.01881
1
1.00273
1
1
1
1
1
1
0.999184
1
1
1
1
1
1
1
1.02255
1
0.982457
1
1
1.03035
0.999983
1
1
1
1.01612
1.02564
1
1
1
1
1
1
1
1
1
1
1
1
1
1
1.06622
1
1
1
1.02129
1
1
1
1
1
1
1
1
1
1
1
1
1.04258
1
1
1.01912
1.03214
1.03188
1
1
1
1
1
1.0111
1.0225
1
1.00167
1
1
1
1
1
1
0.97381
1
1.01124
1
1
1
1
1
1
1
1.02163
1.03463
1
1
1.02331
1
1
1
1.05457
1.01262
1
1
1
0.964388
0.998542
1
1
0.969973
1.00003
1
1
1
0.998713
1.01042
1.02504
1
1.0209
1
1
1
1
1
1.02128
1.02713
1.02348
0.994386
1
1.00045
1
1
1
1
1
1
0.985913
1.02985
0.977781
1.00375
1
1
1.03649
1
1
1
1
1
1
1
0.990064
1
1
1
1.05122
1
0.984707
1
1
1
1
1
1
1
1
1.00574
1
1.01549
0.999831
1
0.98377
1
1
1
1
0.99114
1
1.00002
1.02171
1.03118
1
1
1
1.02924
1
1
1.03369
1
1
1
1
1
1
1
1
1
1
1.06303
1.03567
1
1
0.974367
1
1.01068
1
1
0.989937
0.984457
0.989014
1
1
1
1
0.982225
1
1
1
1.01001
1.0056
1.0273
0.982773
1.00517
1
0.998701
1.01886
1
1.00006
1
1.02635
1
1
1.01347
1
1
1.02408
1
0.998891
1
1
1
1
1
1.02171
1
1
1.02193
1.00136
0.99589
1
1
1
1
1
1
1
1.02412
0.968214
0.983222
1
1
1
1
1
1
1
1
1
1.05906
1
1
1
1
1
1
1
1.00474
1
1.0256
0.990996
0.986666
0.975633
1
1
1
1.02099
1
1.03544
1
1
1.02875
0.983674
1
0.961922
0.984206
1
1
0.985845
1.02652
1
1
1.0267
1.00271
1.06209
1
1
1.01306
1
1.01985
1.01036
1
1.02184
1
0.993082
1.03667
1.03266
1.0421
1
0.963874
1.04889
1
1
1
0.963303
1
0.996896
1
1
1.00523
1
1
1
0.991335
0.985578
1
1
1
1.01017
1.00032
1
1
1
1
1
1
1
1.003
1
1
1
1
1
1.02461
1
1.03039
1
1.01475
1
1
1
1
0.980375
1
1
1.02922
1
1
1.0385
1
1
0.999983
1.01445
1
0.960538
1
1
1.00876
1
1.01881
1.00888
1
0.98657
1.02782
1
1
0.962779
1
1.02062
1
1
1.0295
1
1
1.05774
1.01787
0.999849
1
1
1
1
1
1
1
1
0.980391
1
0.999827
0.998545
1
1
1.05573
1
1
1
1
1
1
1
1
1
1
1
1
1
1.00123
1
1.01012
1
1
1
1.00405
1
1.02762
1
1.02819
1.00499
1
1
1
1
1
1
1.00004
1
1
1.01806
1.02794
1
1
1
1
1.04035
1.02821
1
1
1
1.03168
1
1
0.999898
1
1
1
1
1
1
1
1
1
1
1
1
1
1
1
1.0325
1.02224
1.0374
1
1.00626
1.04066
1
1
1
1
1
1.03413
1
1
1.00298
0.966486
1
0.995332
1
1
1
0.995837
1
1
1
0.973769
1
1
1.02085
1.04278
1
1
1
1
1
1
1.03488
1
1
1.02111
1
1
1
1
1
1
1
1.02082
0.989899
1
1.09151
1
1.01021
1
1
1
1.03227
1
1
1
1
0.960237
1
1
1
1
1
1
1.00376
1
1
1.02416
1
0.993523
1.00459
1.0374
1
1
0.963378
1
1
1
1
1.04905
0.981192
1.02372
1
1
1
1
1
1
1
1.03086
1.01809
1
1
1
1
1
1.01545
1
0.992781
1
1
1.00504
1
0.992472
1.02103
1
1.00421
1.03987
1.00973
0.986616
1.00127
1.01037
1
1.02204
1
0.987533
0.989002
0.988666
1
1.03953
1
1
1
1
1
1.02997
1
1
1
1
0.969571
0.991745
1
1.0013
1
1.00335
1.00229
1
1
1
0.998999
1
1
1.01976
0.985356
1.01087
1
1
1
1
1
0.970907
1
1
1
1
1
1.0234
0.988393
1
1
1
0.998355
1
1
1
1
1
1
1
1
1
1
1
1
1
0.980811
1
1
1
0.995274
1
1
1
0.977568
1
1
0.987011
1
1
1
1
1
1
1.0398
1
1.00511
1
1
1.00267
1
1
1.00416
1
1
0.982478
1
1
1.03196
0.978801
1.00669
1
1
1
1.01166
1
0.977699
0.974747
1
0.992295
1.01616
1
1
1
1
1
1
1.01299
1
1
0.961931
1
1
1
1
1
1
1
1.02135
1
1.00045
1.0177
1.00737
1
1
1
1
1
1.02065
0.990375
1
0.96028
1
1.00064
1
0.969332
1
1
1
1.00756
0.983607
1
1
1.01984
1
1
1
1
1.04666
1
1.03802
1
0.994139
0.986345
0.984029
1.05309
0.962448
1.01997
1
1
1
1
1.03304
0.964392
1
1.03519
1
1.02034
1.03536
1
1.01687
1
1
1
1
1
1
1
1
1
1
1
1
1
0.976107
1
0.996781
1.00555
1
1
1
1
1
1
1.00757
1
1
1
0.961637
1
1
1
1
1
1
1
1
1
1
0.967084
1.00108
1
1.03533
1
1
1
1
1
1
1
1
1
1
1
1
1
0.957798
1.00877
1
1.03708
1
0.977221
1
1
1
0.990793
1
1
1
1
1
1
1
1
1.01996
1.02129
1
0.998627
1
1
1
1
1
1.0001
1
1
1
1
0.976971
1
1.01189
1
1
1.04426
1.00015
1
1
1
1
1
1
1
1
1
1
1
1
1.0052
1
1
0.999892
1
0.982697
1
1
1
1
1
1
1
1.01539
1
1
0.963294
1
1
1.00187
1
1
0.993257
1
1
1
1
1.0025
1
0.969563
0.961611
1
1
1
1
1
1
1
1
1
1
1
1
1
1
1
1.03384
1
0.982325
1
1
1
1
1
1
1.00449
1
1.00588
1
1
1
1
1
1
0.959403
1.02057
1
1
1
0.985617
0.993529
0.988435
1
1
1
1
0.966176
0.97391
0.999998
1
1
1
1.00211
1
1
1
1
1
1
0.995944
1
1
1
1
1
1
1
1
1.00137
1
1
1
1
1
0.989242
1
0.994202
1
1
0.986314
1
0.976147
0.974891
1
1
1
1
1
1
0.995317
1
1
0.999924
0.976473
1
1
1.04097
0.979145
1
1
1
1
1.01854
1
1
1
1
1.03504
1
1
0.976003
1
1
1
0.987908
1
1
1
1
1
1
1
1.02906
1.00004
0.98272
1
1
0.966912
1.00221
1
0.994346
1
1
1
1
1
0.983596
1
1
1
1.00268
1.04474
1
1
1
0.999984
1
1
1
1
1
1.01643
1
1
1
1.00212
1
1.03478
1
1
1
1.00305
1.0034
1
0.991401
1
1.03617
1
1
0.985253
0.983902
1
1
1
1
1.01855
1
1
1
1
1.02031
0.967646
1.04245
1
1
1
1
1
1
0.981641
1
1
1
1
1
1
1
1
1
0.999747
0.994986
1
1
1
1
0.970161
1
1
0.990511
1
1
1.00519
0.984761
0.975909
0.991387
1
0.971582
1
1
1
1
1
1.00415
1
0.999803
1
1
1.03268
1
1
1
1
1
1
1
1
1.00843
1
0.996142
1
1
1
1.03045
1.03944
1
1
0.985011
1
1
0.98152
1
0.981858
1.02719
1.0201
1.01111
1
1
0.997856
0.982514
0.984419
0.981049
1
1
1.01926
1.01896
1.00194
1
0.97983
1
1
0.999429
1
1
1
1
0.993148
1.0453
0.976687
1
1.03982
1
1
1
0.998416
1
0.976753
1
1
1.03889
1.0802
1
1
0.994784
1
0.996677
1
1
0.965737
1
1
1
1
1.01031
1
1
1
1
1
1.06024
1
1
1.00115
0.997063
1
0.999179
1
0.995462
0.980946
1
0.967021
1
1.00825
1
1
1
1
1
0.996915
1.00222
1
1
1.072
1
1
1
1
0.993139
1
1
1
0.992542
1
1
1
1
1
1
1
0.999545
0.976669
1
1
1
1
1
1
1
1.0417
1.0045
1
1
1
0.987518
0.987186
0.990128
0.988494
1.0083
1
1
1
1
1.00157
1
1
1
1
1
1
1
1
1.00789
1
1
0.986478
1
0.995624
1
1.01528
1
1
1.01825
1.03839
1
0.978616
1
1
1
1.0022
1
1
1
0.968796
1
1
1
1
1
1
1.03062
1.01936
1
1.0137
1.01883
1
1
1.07514
1
1
1
1.00336
1
1
1
0.975842
1
1
1.01982
1
0.982455
1
1
1
1.03161
1
1
1
0.998717
1
1
1
1
1.0093
1
1
1
0.960094
1.02578
1.00131
1
1
1.00137
0.985571
1
1.01756
1
1
1.02581
1
0.973564
0.978995
1
1
1.01129
1
0.959461
1
1
0.961242
1.0309
1
1.00996
1.01598
1
1
0.984379
1.01184
1.02243
1
0.972072
1
1.03935
1
0.986439
1.01095
1
1
1.00445
0.992877
1
1
1
0.997391
1
0.969765
1
0.97452
1
1.02012
1
1.00003
1
1
1
1
1
1
1
1
0.980098
1
0.99934
1.02964
1.00925
1
1
1
1
1.00963
1
1.0176
1
1
0.996802
1
1
1.00333
1
1
1
1.02663
1
1
1.00236
0.966357
1
1.00824
0.998154
1
1
1
1
1
1
0.998726
1
1
1
0.978036
1.0192
0.99416
1.00097
0.981478
1
1
1
1
1
1
1
0.99834
1
1.01608
1.00887
1
1.01671
0.986338
1
1
0.972007
1
1.04523
1.03464
1
1
1
1
1.05886
1
1.00631
1
1
1
1.0274
0.974449
0.979685
1.00679
1
1.05046
1
1
1
0.971543
1
1
0.999719
1
1
1
1
0.999643
1.00259
1.0165
1
1
0.999595
1.00381
1
1
0.971128
1
1
1
1
1
1
1
1.015
1
1
1
1
1.03494
1
1
1
1
0.998443
0.99053
1.01426
1
0.980432
1
0.98527
0.964099
1
1.04493
1
0.977756
1
1
1.03069
1.02854
1.00382
1
0.981813
1
1
0.993565
1.02001
1
1
1.02175
1
1
1.00951
1.04481
1
0.979576
1
0.992839
0.999897
1.01911
1
1.01489
1
1.00833
0.980516
1
1
1
1
1
1.01474
1
1.00407
1
0.984581
1
1.0747
1
1
1
1.05237
1
0.974685
1
1
1
1
1.01777
1
0.984279
1
1
1.00172
1
1
1.04631
1
1
1.00177
1
1
1
1
1
1
1
1
1.00155
1.00783
0.997645
1.00165
0.98702
1
1
0.994393
1
1.01826
1
1
1
1
1
1.02115
1
0.980355
1
1
1
1
0.999984
1
0.995222
1
1
0.986888
1
1
1
1
1
1.02096
0.98318
1
1
1
1
1.00447
0.961948
0.978625
0.995176
1
1
1
1.0033
1
1.00855
1.00216
1.01196
1
0.960689
1
1.02769
1.04099
1.00218
1
1
1
1
1.05264
1
0.965849
0.963227
1
1
1
1.00037
1
1
1
1
1
1
1.01292
1
1
1
1.00933
1
1
0.985353
0.977711
1.00003
0.984401
1
0.984335
1
0.97749
1
0.98505
1
1.04661
1
0.998318
1
0.981265
1
1
1
1.00875
1
1
1
0.974402
1
1
1
1
1.00358
1
1
1
1
1
1.01481
1
1
1.00263
1.00897
1.01314
1.02113
1.02034
1
1.01552
1
1
1
1.03777
1
1
0.985087
0.967484
1.04332
1
1.05045
1
0.992978
0.966589
1
1
1.0452
1
1
1
1
1
1.01859
1.04284
1
1
1
0.993499
1
0.980628
1.00178
1.01369
1
1
1
0.990168
1
0.984425
0.977169
1
0.997605
1
0.983144
0.964827
1
1.02603
1
1.00714
0.985658
1
0.972886
1
1.00833
1
1
1.01974
1
1
1.0082
1
1
1.02027
0.968633
1.04191
1
1
1
1.03582
0.987023
0.987161
1
0.980472
1
0.988188
1.03367
0.990006
1.02983
1
0.980497
0.983996
0.984333
0.969845
0.976283
1
1
1.05744
1
0.96827
0.970769
0.970775
0.991087
0.966957
0.986067
1.00313
0.980941
0.984022
1
1
1.01899
0.97084
0.965866
0.965439
1
0.961071
1
0.994902
0.959207
1.03205
0.963245
0.965078
1
0.959431
1
1.01789
1.01723
1.00256
1
1
1
1
1
1
1
1
1.00962
1
1
1
1
1.03
0.991898
1.00887
1
1
1.01544
1
1.03785
1.00166
1
1
1
1
0.98387
1
1
1
1
1.01417
1
1.00075
0.998652
1.03421
1.01697
0.961686
1.02123
1
0.997599
0.999251
1
0.980342
1.00173
1
1.01124
1
1
1
1
0.986708
1.00576
1
1
1.01181
1
0.96208
1
1.00261
1.08906
1
1
0.996303
1.03204
0.999264
0.969053
0.996575
1
1
0.988462
1
1
1
1
1
1
1
1
1
1.00053
1
1
1
1
1
1.05433
0.984267
1
0.997058
1
1
1
1
1.01912
1
0.976636
1.00544
1
1
1
1.00206
1
1
1.00002
1
0.998245
1
1
1
1.01947
1
1
1
1
1
1
1
1
1
1.00427
0.995688
0.964573
1
1
1
1
1.00938
1
0.990428
1
1
1
1
1
0.984856
1
1
1.00965
0.997917
1
0.985673
1
1
1
0.997953
1
1.00384
1
0.996499
1
1
1
1.01023
0.997178
0.941521
0.993727
0.996255
1
1.0494
1
1
0.993174
1
1
1
1
1
1.01676
0.961627
1
0.981556
1
1.00445
1
1.00344
1
1.00004
1
1
1
0.999979
1
1
1.00628
1
1
1.00969
1
0.982532
1
1