/*--------------------------------*- C++ -*----------------------------------*\
  =========                 |
  \\      /  F ield         | OpenFOAM: The Open Source CFD Toolbox
   \\    /   O peration     | Website:  https://openfoam.org
    \\  /    A nd           | Version:  12
     \\/     M anipulation  |
\*---------------------------------------------------------------------------*/
FoamFile
{
    format      ascii;
    class       volScalarField;
    location    "1.33";
    object      p;
}
// * * * * * * * * * * * * * * * * * * * * * * * * * * * * * * * * * * * * * //

dimensions      [1 -1 -2 0 0 0 0];

internalField   nonuniform List<scalar> 
22702
(
1
1
0.88962
1
1.06589
1
1.47128
1
1
0.693976
1.47271
1.471
1
1.47205
0.915008
1
1
1
1.47301
1
1.47223
1
1.47179
0.656853
1.46846
0.615739
1
1.4697
0.667833
0.659189
1
1.47079
1
1
1
1.43632
1.47189
1.47144
1
1
0.649325
1
1.22633
1
1.46905
1
1
1
1
0.655353
1
0.653951
1
1.47222
1
1.47093
1
1
1
1
0.640046
1
1
0.670335
1
0.66474
1
1
1
0.67688
1
1.47063
1.27957
1
1.47035
1.49745
0.667335
1.47033
0.657908
1
1.47355
0.662346
1.47384
1.47219
1
1
1
1
0.948285
0.680923
1.47435
1
1
0.698138
1
1.47262
0.688873
1
1
1
1
1.22027
1.47358
0.617484
1
1
1.10663
1
0.661194
1
1.47155
1.47009
1
1
0.617561
0.619797
0.684519
1
1
1
1
1
0.932444
1
1.40152
1.0346
1.47056
1
1.47127
1.47291
1.4721
1.47014
1
0.640494
1
0.684411
1
1
1
1
1.47064
1
1
1
1
1.47195
1
1.02563
1
1
1
1
0.657262
1
1.01046
1
0.658978
1
1
1
1.4727
1
1.47193
0.631882
0.645602
1.47016
1.4702
1
1.07474
1.2581
1
1.47074
0.656573
1.43739
1
1
1
1
1.47137
1.36479
1
1.47112
0.673147
1.47125
1
0.655191
1
0.654669
0.63147
0.999774
1
1
1.47155
1
1
1.471
1
1.47435
1.47114
0.667847
1
1
0.659422
1.47088
1
1
1
1.47139
1
0.6418
1
1
1.47113
1.47098
1.4735
1
1.00004
1
1
1
1.47134
1
0.670996
1.48834
1.47082
1.47273
1
1
1
0.652006
1.47437
1.2219
1
1.47269
0.660653
0.653297
1.47308
1.47589
1
1.48027
0.64983
1.4145
1
1
1
1
1.47102
1
1.28145
1.0412
1
1
1.47233
0.676634
0.755211
1
1.47522
0.63475
1.47837
1
1
1
1
1
1
1
0.656914
0.790559
0.65896
1.47162
1
1
1
1
1.41924
1
0.656625
1
0.639473
0.653938
1.4702
0.655033
1.47209
1
1
1
0.997516
0.656179
0.691059
0.999999
1
0.64514
1
1.47168
0.626355
1
1
1.47332
0.686887
1
1.48269
0.648541
1.47269
1
0.639763
0.997757
1
1
1
0.654487
1
1
1
1.00001
1.01607
1.28179
1
0.637776
1
1
1
1
1
1
1
1.47242
1
1.46977
1
1
1
0.65716
1
1.47208
0.650445
1
1.37117
1
1
1.47267
1
1
1
1.46302
1
1
1.46365
1.47248
1
1.08588
1
1
0.678069
1
1
1
0.703115
1
1
1
1
0.619148
1
1
1
1
1
0.708831
1.00007
1.4713
1
0.999992
1.47055
1.47006
1
1
0.669225
0.794501
1.47196
1
1
1
1.47262
0.671336
1
1.47171
1
1
0.724575
0.724956
1
0.658933
0.649955
1
1
1
1
1
1
1
1.47031
1.12257
1.44315
0.708638
0.910671
1.4721
1
1.4707
1.47114
0.670518
0.751477
1
0.637989
1
1.48053
1
1
1
1
1.47078
1
1
1
1
1
1
1
1.17835
1.47221
1
1.47139
1
1
0.660685
1
1
1
1
1.47156
1.34872
1
1
0.659451
1.47009
1.471
1
1.47095
1.47051
1.47139
1
0.812945
1
1.47049
0.969883
1.47144
1
0.658807
0.998831
1.47095
1
1
1
1
0.657706
1.47406
1.42746
1
1.46927
1.47264
1.4733
1
1.22149
1.47049
1
1
1.33039
1.06256
1.47157
0.930606
1.47119
1
1.47137
1.47118
1.47103
1.47015
1
1.43336
0.913395
0.885227
1
0.999999
1
1
1.46733
1
1
1
1
1
1.47089
1
1
0.995816
1.4714
1.40164
1
1.40139
1.00004
1
1
1.47093
1
0.997678
1.00486
1
1.47044
1
1.47231
1
1
1.3471
1
1.47414
1.00002
1
1.47315
1
1.47164
1
1
1
1.47127
1
1.48041
1.00001
1.47094
1.46791
1.47126
1.47074
1
1.46996
1.47405
1
0.659485
1.4402
1.33819
1
1.47097
1
0.670904
0.648858
1
1
1
1
1
0.681732
1
1.47133
1.11363
1.47032
1
1
1
1
1
1.47149
1
1.46948
1.27445
0.757454
1
1.00001
1.13427
1.119
1
1
1.17602
1
0.65808
1.46926
1.4699
1
1
1
1.46884
1
1.00003
1.47717
1.47341
0.941465
1
1
0.65423
1.42484
1
1
1
1
1
1.47162
1.47026
1
1.47337
1.47938
1.47184
1
1
1
1
0.627404
1.47043
1
1
1.42758
1.4696
1
1.44257
1.47221
1
1
1
1
1
1.46981
1
1
1
1
1.48091
1
1.46055
0.641032
1
0.665519
1
1
1
0.996867
0.658847
0.999058
1
1
1
1.06504
1
1
0.859859
1
1
1
1
1
1
1
0.999997
0.934569
0.999999
1
0.997445
1
0.654213
1
1
1
1
1.35419
1
1
1
1
0.646505
1
1
1.44146
1.47037
0.999999
1
1
0.888432
1
1
1
1
1
1
0.939456
1.01481
1.47063
1
1
1
1.46997
0.913702
1
1
1
1.47077
1.46841
1
1.00001
1
1
1
1
1
1
1
0.654734
1
1
1.47214
0.64322
1
1.4698
1
0.658855
1
1
0.653333
1
1
1
1
1
1
1
1.4619
1.47038
1
1
1
1
1.42991
1
1.13974
0.658105
1
1
1
1
1
1
1
1.0247
1
1
1.23224
1
1
1
1.38816
1
1
1
1
0.630822
1
1
0.64076
0.63302
1
1
1.47216
1
0.998449
1
1
1
1.33133
0.65001
1
0.650904
1
0.784941
1
1
1
1.47118
1
1
1.476
1
1
1
1.47651
1
1
1.46967
1
1
0.671149
1
1.14232
1
1
1.47012
1.474
1.31282
1.42016
1
0.650157
1
1
1.45149
1
0.663108
1
1
1
1.4692
1
1
1
1
1.27022
1
1.45894
1.47598
0.705388
1
1
0.606009
0.606876
1
1
1
1.3225
1.35374
1
1
1
1
1
1
1
1.19579
1.47087
0.996429
1
1.46572
0.637535
1
1
1
1.24938
1
1.08737
1
1.42639
1.46958
1
0.661684
1
1.47046
1
1
1.4719
1.44108
1
1.47712
1
0.703922
1
1
1
1.46911
1.46165
1.41414
1
1.47574
1.46904
1
1.47056
1
1.46949
1
0.632118
0.974825
0.654594
1
1
1
1
1
1.47091
1
1.472
1
1
1
1.44792
1
0.662473
1.47481
1
0.652277
0.675908
0.660717
1
1.21752
1.0383
1.47359
1.46799
1
0.999999
1
1
1.47211
1
1
1.4716
1.46835
1
1.17243
0.999822
1
0.996619
1.47228
0.858972
1
0.834612
0.658589
0.658988
0.968372
1.47075
1.4646
1.09946
1.47166
1.47189
1
1
1.46872
1.47159
1.47183
1.47539
1
1.47196
0.668549
1.47225
1.47318
1.46889
1.46976
0.864154
0.887171
0.923159
1.47013
0.959677
1.47272
1
1
1.47375
1.47144
1
0.644329
1.47175
1.4699
1
1.47346
1.47388
1
1.47164
0.64719
1.4717
1.46961
1.46911
1.46979
1
1
1
1.46934
1.29959
0.65388
1.47563
0.644198
1.47067
1
1
1
1
1.47388
1.46995
1
1
1.46476
0.645415
1.47073
0.65213
1
1.46838
1
0.692814
1.48104
0.741681
1
1.47102
1.46371
1.46569
1
1
1.20513
1.46055
0.661231
1.46023
1
1.4725
0.87849
1.46777
0.651069
1
1.47354
0.699008
1.47368
0.657579
1
1.47963
1
1.47188
1
1.26935
1.45257
1.366
0.636312
1
1.4716
1
1.47168
1
1.48146
1
1
1.47209
0.97284
1.48577
0.718904
1.42037
1
1.32859
1
1.47247
1.47732
1.47177
1
1.4221
1.47164
1.4355
1.2868
1.47368
1
1.29989
1
1.4731
1
1.06938
1
1.43858
1
1.47188
1.44755
1.44854
1
1.46857
0.643457
1
0.641634
1
1
1
1.47293
1
1.46433
1
1
1
1.46561
1.45742
1.38139
1.47521
1.47127
0.666973
1.47871
1.47438
1
1.40386
1.4718
1.45816
1
1.4703
1.47077
1
1.47556
1.46994
1.47144
1.48338
1
1
1
1.47173
0.618026
1
1.47773
1
1
0.649189
1
1
1.47722
1.47174
1
1.48149
1.47787
1.47099
0.977171
1.47112
1
1.47179
1.46975
1.37704
1
1
1
1.46998
1.47165
1.47213
0.943403
1
1.4791
1.47147
1.47175
1
1.47119
1.47282
1.46864
1.47897
1
1.47139
1.46541
1.40656
1.4742
1.47679
1
1.47494
1.46489
1.47275
1.47301
1.47355
0.615313
1.47145
1.47349
1
1.47199
1.4729
1.47167
1.47141
1
1.47088
1.47127
1
1.46911
1.39838
1
1
1
1.47428
1.4771
1
1
1.2462
1
1.47199
1
1
1.47249
1.47247
1.47121
1.4693
1
1
1
1.3267
1
1.47201
1
1
1.47029
1.46926
1
1.47026
0.652234
1.47153
1.4694
0.764185
1
0.640605
1.40718
1.46889
1.47419
1.47402
0.697107
1.47218
1.472
0.69554
0.640121
1
1.47348
1.47147
1
1
1.47126
1
1.47625
1
1.40863
1
1.21866
1.47123
1.47192
1.32524
1.399
1.4743
1.47447
1.43086
1
0.644834
1.47497
1.47206
1.47965
1.00001
1
1
1.4762
1
1.472
1.47009
0.761481
1
1.47193
0.99994
1
1.00003
1.00004
1.47204
1.46933
0.998563
1
1
1.47151
1.4617
1.47143
1.47109
1.47512
0.666802
1.3989
1
1.46805
1.47126
1.47086
1.46056
1
1.46555
1.45875
1.47692
1
1.47203
1.471
0.859555
1.4587
1.47165
1
1.47107
0.836565
1.47137
0.864658
1.45593
1
1.47206
1.48197
1.46296
1.48734
1.4717
1.46917
1.48016
1.46964
1
0.929469
1.47151
1.47176
0.846021
1.4677
0.970917
1.29855
1.47177
1.47026
1.46986
1
1.47348
1.30136
1.47535
0.916394
1.48747
1.47114
1
0.869211
1
1.46809
1
1.32009
1
1.45574
0.870224
1
1.47188
1.47655
1
1.47539
1.47362
1.47885
1.47175
1.464
1
1.47069
1
1
1
0.893532
1.47105
1.47069
1.47012
1.46138
1.47276
1.47252
1.47005
1.45992
0.894473
1.03102
1
1
1.47772
1.46679
1.48474
1.4792
1.00003
1.23822
1
1.47623
1.42362
1
1
0.742953
1.47006
1
1
0.665013
1.47282
1
1.4728
1.47131
1.47453
1.45241
1.47261
1
0.643357
1.11183
1.47102
1.47219
1
1.47198
1.4748
1.22297
1.00991
1.10132
1
1.47215
1.47052
1
1
0.686954
1
1
1.4612
1.47753
1.46916
1.47106
1.46994
1.46921
1.47219
1.46933
1.47156
1
0.996088
1.47186
1.47161
0.99692
1.47713
1.46952
0.647068
0.701365
1.46904
1.46623
1
1
1.00167
1.47212
1.46942
1.47833
1
1.47719
1
0.884635
1.4802
1.47586
1
1.2119
1.47135
1
1.47096
1
1.47118
1.29994
1.47158
1
1.47169
1.4633
0.685587
1.47071
1
1.47168
1.47108
1
0.645552
1.4744
1.4006
0.997641
1.46234
1.47164
1
0.997854
1.47662
0.997933
1.47144
1
1
1.47331
1
1.47159
1.46999
0.996252
1.37068
1
1.46877
1
1
1
1
1.47722
1
1
1.47999
1
1.47185
1
1.29905
1.47907
1.47086
1
1
1.00108
1
1.46987
1.47148
1.47216
1.47144
1.47047
1.47149
1.47219
1
1.4711
1.47023
1
1.47196
1.47177
1
1.47111
0.925488
1.05982
1.47195
1.47152
1.4698
1
1.47126
1
1.46842
1.47124
1
1.47012
1
1
1
1
1.47097
0.64435
0.997815
1
1.47482
1.47732
1
1.48377
1
1.00506
0.664221
1.47162
0.999617
1
1.4715
0.998394
1.47158
1
0.999768
1
1.47083
1.47055
1.47245
1.47569
0.661811
1.47421
1.46485
1.47164
1.11856
1
1
1.1903
1.47393
0.640891
0.658987
1
1.47195
1.46892
1.47345
1
1
1.47359
1.47239
0.999884
1
1.34913
0.653782
1
1.07559
1.47079
1.45674
0.998281
1.46259
1.48019
1
0.99831
1
1.47032
1.47192
1.17879
1
1.45849
1
1.00081
1.47038
0.641052
1.47054
1.46016
0.997019
0.999912
1.41059
1
0.999714
1
1.4736
1
1.00001
0.646372
1.47
1.00001
1
1
1
1.48141
1.26053
1
1
0.66145
1.472
1.26172
1
1
1
1.45017
1.46392
1.46948
1
1
1.47269
1
1.47109
1.4717
1
1
1.47306
1.47095
1.44833
1
1
1.47333
1.47138
1
1
1
1.47269
1
1
1
1.47187
1.47781
1.47256
1
1.47761
1.00003
0.717491
1.47057
1.4698
1
1.47118
1.46669
1.47078
1
1
1.47543
1
1.25517
1.46881
1
0.660193
1
1.47347
1
1
1.46946
1
1
1
1.14496
1.46996
0.695981
1.00001
1.47328
1
1
1.4706
1
1.47613
1
1
1.46893
1.47091
1
1.00005
1
1
1
1
1
1
1.4742
1.47046
1
1.47284
0.659761
1.48268
1
1.47264
1.46735
1.46916
1.48195
1.47842
1
1
1.47602
1
1.28777
1.47712
1.46867
1
1.47516
1.46457
1
1.42112
1
1.47186
1.30367
1.46784
0.997452
1.463
1.42675
1.47416
1.48095
1.03533
1.48103
1.47613
1
1.48587
1
1.47046
1
1
1
1
0.996123
1.46821
1.47139
1.38895
1
1.47489
1
1
1
0.60694
1
1.45964
1
1.42637
1.4524
1
1
1
1.4178
1.47062
1
1
1.47299
0.661435
1.07465
1
1.47652
1.47193
1.42912
1.46001
1.47161
1
1.47477
1
1
1
1
1.47415
1.47095
1
1.44441
1.04652
1.47102
1.43769
1
1
1.43929
1
1
0.68909
1.32826
1
1
1.4741
1
1.47605
1.42516
1
1.42338
0.658597
1.47118
1.47006
1.47112
1
0.653299
1
1
1
1.47132
1.40395
1
1.48568
1.47086
1
1.47132
1
1
1
1
1.47054
0.999367
1
1.47325
1
1
1.47213
1.47162
1
1.47249
1.08122
1.00002
1
1.46921
1
1.46914
1
1.01246
1.47063
1
1.4721
1
1
1.14471
1.47279
1
1
1
1
1
0.995604
0.663967
0.647941
1.02126
1
1.02194
1
1.02534
1
1.47067
1
1.28334
1
1.47296
1
1
1
1.4742
1
1.36831
1.47165
1
1.26626
1.47274
1
1
1.47294
1.47323
1
1
1.04538
0.63702
1
1.47107
1
1
1
1
1.0746
1.47217
1
1
1
0.664392
1
1.47072
1.47175
1.48448
1
1
1
1
1.21739
1.47443
1
1
1
1.47611
1.47126
1.04537
1
1
1
1.47138
1.47137
1
0.660576
1.47231
1.47168
1.47254
1.47022
1.4692
1
1
1.47806
1.47051
1.46349
0.670314
1.04208
1.47077
1
1
1
1
1
1.47058
0.658374
1
1
1.46222
1.18973
1
1.47588
1
1
1
0.649771
1
1
1.1197
1.47175
1.47291
1
1.46499
1.4767
1
1.07581
1
1.47727
1
1.47134
0.662854
1
1
1
1
1.47314
1.00007
1
1
1
1.46963
1
1
1
1
1.46852
0.650985
1.38337
1.47452
1
1.47036
1
1
1
0.997194
1
1.4683
1
0.808108
1
1
1.00003
1.47117
0.656648
1
1.46858
1
1.47206
1.47085
0.639554
1
1
1.44166
1
1
0.70903
1
1.47756
1
1.45026
0.999354
1.47168
1
1
1
1
1.47045
1
1
1.47182
1
1
1
1
1
1
1
1
1.28862
1
1.14206
1.47144
1
1
1
0.659053
1
1
1
1
1.47401
1.4704
1.04783
1
1
1.47324
1
1
1.47345
1
1.00002
1
1
1
1.00001
1.47148
0.784524
1.47115
1.47338
0.996887
1
1
1
1.27085
1
1
1.47066
1.46975
1
1
1
1
0.626105
1
1
1
1.28963
1
1.47052
1.47412
1
1.47309
1
1
1
1.24738
1
1.46992
1
1.47118
1
1
0.996394
1.47145
1
1
1
1
1
1.46914
1.00002
1
0.681767
1.4709
0.673869
1
1.47253
1
0.995406
1
1.47459
1.47561
1
1.46288
0.887434
1.47098
1.4697
1.00003
1
1
0.656729
1
1
1
1.47157
1.27981
1.47213
1
1
1
1
0.996771
1.47367
1
0.663163
1
1
1
1
1
1
1
1.4759
1.47387
1.47857
1
1
0.996903
1
0.990058
1
1
1
0.663853
0.982856
1
0.652104
0.655162
1
1.47114
1.4808
1
1.47807
1.47604
0.660685
1.32482
1
1
1
0.66244
1.47033
1
0.66088
1
1.47523
1.07771
1
1
1
1
1.47195
1.47125
1
1
1.47137
1
1
1.4715
1.47187
1
1.42892
1.47286
1.47295
0.950169
1.47322
1.00838
0.660599
1.36039
1.47019
1
1
1
0.642053
1
0.664614
1.46774
0.959894
1.47107
0.94879
1
1.47192
1.20589
1
1
1.47337
1
1.18952
1.47364
1
1
1.4686
1.47896
0.658807
1.26268
0.999895
1
1.28934
1
1.47808
0.939346
1.48262
1.46867
1
1
1
1
1.45596
1
1
1.47054
0.999645
1.47013
1.39554
1.47036
0.662582
1
1
1
1
1.47141
1.00004
1.47189
1
1.47133
1.47049
1.05699
1.48179
1.1557
1.47168
1
1.31814
0.686742
1.47611
1.47218
1.37654
1.07819
1.47255
1.47118
1.47147
1.47447
1
0.911269
1.0655
1
1.47109
1.21765
1.47094
1.00003
1
1
0.690988
1.47136
1.47369
1.37973
1
1.18441
1
1.47771
1.47737
1
1.46955
1.47349
1
1
1
1.47308
1
1.17733
1.47366
1.32155
1
1.47224
1
1
1
1
1
1
1
1
1
1
0.693475
1
1.44242
0.616036
1.2706
0.998571
1.47402
1
1.2485
1.00001
1.29925
1.40543
1
1.00325
1.467
0.903263
1
1.47849
1.46497
0.930566
1
1.4712
1.47061
1.47435
1
1.46224
1.46968
1.47494
1
1.22556
1
1.00006
1.47092
1
1.47178
1.06966
1.46824
1
1
1.47035
1.47916
0.680034
1
1.47344
1.34857
1.47047
1
1
1.47321
1.47149
0.998269
1
1.4194
0.996732
1.47301
1.00007
1
1
1
1
1.19585
1
1.3572
1.47425
1.34359
1.47181
1
1.0033
1
1
1.47226
1
1.48062
1
1
1
1
0.999999
1
1.05247
1.22225
1
1
0.628511
1
1.46567
0.699911
1.4673
1
1.22956
0.999751
1.47197
1.29485
0.666515
1.25385
1.00003
1.47264
1.47019
1
1.27883
1.47513
1.46994
0.998384
1.47069
1.45808
0.65799
1
1
0.997449
1
1.463
1
0.671385
1.47375
1
1
1.43048
1
1.47348
1
1.47005
1
0.692124
1
1
1.46935
1.46883
1.47634
1
1.47258
1.48097
1.46808
1
1
1.45153
0.999999
0.751606
1
1
1
1.4706
1
1.48233
1.28503
1.46967
1
1.47104
0.999391
1
1
1
1
1
1
0.713948
1
1
1.47148
1
1.47012
1.47147
1
0.676442
0.660818
1
1.47643
1.07815
0.659225
0.626015
1
1.46922
1
1.47525
0.695304
1.00134
1
1
0.999513
1
1
1
0.999914
1.18987
1.47154
1
1
1.47618
1.26303
1
1.42961
1.47292
1.47025
1.19302
1.4559
1
1.47372
1
1.46749
1
1.48343
1.46811
0.99721
1.46932
1.4699
1
1
1
1
1
0.918787
1.47279
1.00004
1.00003
0.614841
0.999981
0.679667
0.623173
1
1.47077
1.4723
1.4707
1
1.4724
1
0.663764
1
1
1.46742
0.842146
1.46928
1
1.46907
1
0.981552
1.47334
1
1
1
1.47632
1
1.47258
0.657547
1
1
1.26745
1
1
1.25463
1
1
1.47101
1
1
1
1
1
1.47558
1.47253
1
1.47253
1.46935
0.654804
1.20601
1.47367
1
1
1.4195
0.998898
1
1
1.46033
1.46987
1.31346
1
1.47012
0.677523
1.43757
0.999621
1
1.46946
1.00004
1.47
1.41086
1.36483
1
1
1.47169
0.722039
0.625165
1
1.4725
1
1.46872
1
1.27188
1
1
1.47053
1.30748
0.661768
1
0.998232
1
1
1.02555
1.1897
1.47458
1
1.46861
1
1
1
1
1
1
1.0652
0.662735
1
1
1.03408
1
1
1
1
1
1.46655
1
1
1.47215
1.47328
1.34883
1
1
1
0.845845
1.47234
1.33276
1
1
1
1
1.47325
1
1
1
1.4783
1
1
1.33187
1.48271
1.02807
0.752124
1.47479
1.32767
1.47394
1
1.23156
1
1
1
0.658511
1.00286
0.641969
1
0.6834
0.648349
1
0.65042
1
1
1
1.2049
1
1.47
1.46636
1.00131
1.22236
1.39194
0.621865
0.772803
0.89484
1
1.47131
1.47163
1.47128
1.46969
1.40321
0.887166
1
1.40401
1
1.45486
1
1
0.996614
1.00907
1
1
1
1.47309
1
0.627181
1
1.46102
0.680017
1
1
1.46677
1
1.47102
0.999387
1
1
1.47285
1.41386
1
1.48812
1
1
1.01577
1
1.21194
1
1
0.650489
1
1
1.47322
0.999998
1.47373
1
1.00003
0.677525
1
1
0.596222
1.00089
1
1.47233
0.684705
1.47846
0.665779
1.47317
1
1
1
1
1
1
1
1
1
1
1
1.45147
1
1.47348
1.47084
0.654863
1
1
1
1
1
1
1.45881
1
1
0.66211
1
1
1.47241
1
1
1.17546
1.39443
0.645814
0.663456
0.710984
0.727132
1
0.996652
0.595508
1.00027
1.44958
0.996894
1
1
1.4725
1
1
1
0.777857
1.00001
1.16002
1
1
1.18919
1.46915
1
0.639555
1
1
1
0.99685
1
1.47483
1.46793
1
0.667821
1
1.25207
0.656843
1
0.888119
1
0.996166
0.639889
1
1
1
0.996051
0.624778
1
0.678215
0.998447
1.23345
1.43188
0.659994
0.652337
1
0.991139
1
0.99863
1
1.47018
1.47209
1
1.01412
1.47117
1.47234
1
1
1.46962
1
1
1.00004
1
1.47171
1
1
1.01812
1
0.998615
0.716611
1
1
1
1
1
1.47019
1.03206
1.00005
1
1
1
1
1
1.00003
1
0.65975
1.10109
0.998635
1.45992
1.46337
1
1.0157
1.47017
1.41137
1
1
0.685578
1.47034
1
1.47139
1
1.47111
1.31293
0.654448
1
0.657285
1.44605
0.99968
1
0.661717
0.651616
1
1
1.39553
1
0.999998
0.653702
1
1
1
1.1413
1
0.655891
1.47352
1
1
1
1
1.47094
1
1
1.46919
1.41867
1
1
1
1.47683
0.654409
1
1.47238
1.47107
1
1.36847
0.999999
1.00003
1
1
1.44425
1.01522
1
0.673947
1.2596
1
1
0.99698
1
1
1.47148
1
1
1.00003
1
1.4731
1
1
1
1
1
1
1.00001
1.20236
1
1.4739
1
1
1.47324
1
1
1
1.47114
1.47328
1.04881
1
0.997603
1
1
1
1
1.47178
1
1
1.47254
0.663917
1
1
1
1
1
1
1.37973
1
1
1.47024
1.47001
1
1
1
1.47272
1.46747
1
0.999706
1.46801
1
1
1
1.00002
0.628123
1.03059
0.996256
0.996117
1
1
0.66064
1.47047
1
0.696886
1
1.47537
1.45417
0.647311
0.999417
1.4699
1.47303
1.46983
1
1
0.927273
1.42377
1.38506
0.679447
1
1
1
1.46925
1.47178
0.643758
0.997376
1
1.47031
0.647888
1
1.45364
0.661098
0.968924
1.00671
1
1.46613
1
1
1
1
1
1
1.00011
1.43886
1
1
1.47932
1
1
1
1.47157
1
0.660077
1
1
1
1.15449
1
1
1
1
1
0.787556
1
0.644129
1
1.4726
1.00007
0.85375
0.861256
1.00002
1.00412
1.23146
1
1
0.664275
1.47096
1.47423
1.47264
1
0.654657
0.64604
1
1.47469
1
1
1
1
1
1.00003
1
0.656541
1.29377
1
1
0.649137
0.990736
1.00001
1
1
1
0.634685
1
0.679046
1
1
1.47686
1
1
0.661466
1
1.47153
1
0.622568
1
0.65424
1
1.0084
1.47351
1.48603
1
1
1.47008
1
1
1.10189
0.996682
1
0.99829
1
1.47548
1
0.635322
1.00002
1.47328
0.998995
1
1
0.798517
1
0.99901
0.664185
1.46992
1.15793
1
1.00001
0.876474
1
1
1
0.798437
1
1
1
1.47148
1
0.6556
0.999999
1
1
1
0.658124
1.47277
1.44736
0.666155
1
1.48363
1
1
1.47038
1.47181
1.39423
0.659857
0.997704
0.999174
1
1.47292
1
1
1
1
1.47153
1.00004
1
1
1.46983
1
1
1.47644
0.663767
1
1
1
0.662305
1
0.999999
0.999999
0.998691
1
1
1
1
1.37975
1
1.47422
1.47179
1.48176
1.47172
1.47247
1.47242
1
1.47266
1
1.47115
1.47214
1
0.99886
0.667038
1.39768
0.999901
1
1
1
1
1.00149
1
1.07262
1
1
1
0.854837
1.47207
1.46968
1.47689
1.41202
0.99987
1
1.02324
1.47044
0.998001
1.05218
0.997418
0.665588
1
1.00002
1
1
1
1
1
1.47364
0.6568
1.47704
1.46599
0.995259
0.657022
1
1
1
1.4733
0.642783
1.41763
0.655448
1.47208
1.48027
0.653646
1.46888
1.02284
1
1.47622
0.785878
1
0.998837
0.613718
1
0.689504
1
1.47168
1.47089
0.757496
1
1.47191
0.665789
1
0.661491
1
1.47287
1
1
1.46956
1
0.843379
1
0.999642
0.690438
1.47517
0.999486
1
0.629174
1
1
1
1
1.2471
1
1.47282
1
1
1.47907
1
1
1.47247
1
0.69079
1
0.655056
1.00001
1
1
1
1
1.45379
1.27096
1.47945
1
1.47169
1.43887
0.636928
0.631586
1
1
1.4723
1
0.69185
1
0.99022
1
1
1.47268
1
1.47631
0.605885
1.48052
1
0.605135
1
1
1.47114
1.47004
1
1.00004
1
1.46413
1
1
0.610619
0.999385
0.609645
1
1
1
1.47382
1.47561
1.47179
1
1
0.699888
1
1.47138
1
1
1
1.4486
1.4722
1.4722
0.665541
1.47558
1.46508
0.651019
1.47252
1.00004
0.6566
1.01343
1
1
1.47142
0.675059
1.29274
0.675444
1.46423
0.997557
0.654061
1.47632
1
1
1
1
1.47184
1.47068
0.653078
1
1.00002
0.663896
1.00004
1
0.679635
0.628918
1.3234
1.47455
0.998492
1.47231
1
1.47845
0.819181
0.658443
1.46499
1.48557
1
1.47288
1
1
1.47115
1
1.35855
1.47219
1
1
1
1
1.47339
1.46647
1.47016
1
1
1.47112
1.46962
1.47071
1
1.47166
1
1
1
1
1
0.650193
0.850878
0.609541
1
1
1.47016
1
1
1.47557
0.647234
1
1.47172
1.46672
1.4499
0.655814
1
0.672523
1
1.00003
1.47159
1.22113
1.4728
1.42645
1
0.641526
1
1.4732
1.33495
0.636657
1
1
1
0.828615
1
1
1.47582
1
0.644876
1.46277
1
1
1
1
1
1.37673
1.10572
1
1.47173
1
1.46877
1
0.997549
1
1.47336
1.4716
1.47051
1.47666
0.99959
1.47209
1
1.47126
1.47149
1.39637
1
1
0.6683
1.47017
1
1
1.46947
1.46674
1.47281
1
1.4729
1
1
1.00003
1.46348
1.47551
1.12841
1.10051
1.4681
1.47291
0.674518
1
1
1
1
1.00002
1.16296
1
1
1.39905
0.605551
0.999971
1
1.47161
0.999885
0.999827
1.06835
1.41978
1.47069
0.902178
1
0.611298
1
1.00552
1.47684
1.47069
1.47005
0.999038
1
1
0.658009
1
1
1.47333
1.04959
1
1
1
1
1
1
1
0.999932
1.47131
1.00002
1
1
1
1
1.31699
1
1.22321
1
1
1.46974
1.47747
0.656897
0.998823
1
1
1
0.656346
1.47265
1.47048
1
1
1
1
1
1
1
1
1.47103
1.47729
0.651583
1.04959
0.660423
1
0.642835
1
1.47083
1.11889
1
1
0.685266
1
1.44885
0.844258
0.996446
0.659288
1
1
1.46905
1.00004
0.996894
0.648872
1.47215
1.47957
1
1
1
1
1.4394
1
1
1.47178
0.999023
1.47147
1.00005
1
1
0.618678
1
1
1.47222
0.658236
0.809536
0.659107
1.47227
0.999314
1
1.47164
0.657511
0.630139
1.00999
1
1
1.47089
1.00004
1.21719
1
1
1.4724
0.658122
1
1
1.00013
1.47211
1.0001
1.47406
1
1.00003
1
1
0.723783
1
0.779552
1.00002
1
1.46934
0.615619
1
0.776991
0.802581
1
1
1.4731
1
1
1
1.4725
1.47084
1.00005
1.45314
1.47057
0.779388
1.4734
1.44998
1
1
1.47311
0.999999
1
1
1
1
1.47802
1.47069
1
1
1
1.4739
1.00022
1
0.668181
0.753314
1
1.00003
1.17173
1
1
0.887083
0.648905
1
1
1
1.47623
1.4331
1.47216
1
1
1
1
0.653084
1
1.46937
1
1.47772
0.661366
1.47916
1
1
1
0.707824
1
1.47156
1.00003
1
0.63425
1.17315
1
0.999654
1.4681
0.642006
0.612931
1
1.47201
0.649054
0.664849
1
0.613613
1.00001
1
1
1
0.686485
1
1
1
1
1.46983
1
1.35919
0.633202
1
1
1
0.654166
1.47225
1
1
0.996493
1.47892
1
1.47061
1.47245
1
1
0.722063
0.648397
1
1
0.650575
1.13508
1.22064
1
1
1.46929
0.997472
1
0.997474
1.47246
1
1
1
1
1
1
1.47323
1
1.15378
1.14992
0.696376
1.41607
1
1.47204
1.47087
1
1
1
0.901501
0.678278
1
1.22515
0.999643
1.4039
1
1
1
0.999999
1
1.00685
1.20145
1.47288
1.47288
1
1.47075
1
0.733
1
0.997072
0.999769
1
0.655642
1
0.668136
1.00002
1.47374
1.47072
0.666737
1.47967
0.624838
0.996159
1.37382
0.658425
1.33275
1
1
0.998441
1
1
1
1.00006
1
0.686181
1
1
1
1
0.999561
1.47254
0.793131
1
1
1
1.03604
1
1
1
1.25589
0.775188
1
1
1
1.04043
1.47041
1
0.676771
1
1.47399
0.905334
0.642367
1
0.651958
1
1
1.44112
0.998271
1.43882
1
1.00891
1
1
1.47101
1
1
1
1
1.08606
1
1.4724
1.47365
1.47091
0.631629
1.47107
0.99712
1.38062
1
1
0.649846
1
1
0.659795
1.46786
1
1
0.999946
1
1
1
0.65581
0.653105
1
1.47137
1
1.22287
1.47128
0.65955
1.38422
1
1
0.688322
1
1
1.46046
1.47188
1.17698
1
1
1.00176
1.47068
0.636665
0.668693
1.47393
1.47639
1.31979
1.18423
1
0.882509
1
1
1
1.44657
1.47134
1.47002
1
1
1.47358
0.641186
1.41979
0.63542
1
0.659284
1
0.663583
1.47177
0.640376
1
0.980202
0.6743
1
1
1
0.841605
1.41649
1.47214
1.47107
1.47059
1
1
1.47162
1
1
1.47239
1
0.695603
1
0.627807
1
1.47563
1
1
1.01275
1.35621
1
0.99886
0.686939
1.47232
1.00001
0.639275
1.08907
1
1
1.35836
1.47121
1.47124
1
1.47218
1.12098
1
1.02608
1.47566
1
1
1
1
1.47142
1
0.642009
1.47089
0.669314
0.606929
0.818292
1.47188
1.16527
1.47391
1
1.47136
0.99752
1.00003
1.47052
1.47068
1
1.47049
1
1.47392
1
1.47125
1
1.00004
0.99999
1.46784
0.645348
0.662034
0.997954
0.999999
1
1
0.667892
1
1.30232
1
0.636675
1
1.18119
1.47575
1.47107
1
1
1.00003
0.999395
1
1.47283
1.47145
1
1.18359
1.46919
0.852259
1.47083
1.00051
0.657747
1.09992
0.699307
1
1
1.07667
1.47163
1
1
1.03063
0.998616
1
0.598303
1
0.791235
1
1.46851
1
1
0.657662
1.08875
1.0691
0.998564
1.47249
1.48433
0.770744
0.998074
0.663794
0.671414
0.662649
1
1
1
0.999008
0.713936
0.656088
1
1.46606
0.99973
1.47589
1.47389
1.47101
1.47177
1
0.660339
1.47023
0.656629
1
1.46736
1.47494
0.996615
0.814476
1.47859
1.3298
1
0.666031
1
1
1.47996
1
1.02659
1.47431
1
0.612086
0.685212
1
1
0.655009
0.65338
1.47257
1.00004
1
0.619664
0.662902
1.4758
1.45766
1.44142
1.4736
1.11568
0.987392
1.18656
1.4743
1.3795
1
1.23278
1
0.63913
0.873555
1
0.677885
1.47152
1.02224
1.47242
1
1.47168
1.47089
1
1.4714
1.47242
0.65323
1.47562
1
1.4732
1
0.740509
0.656304
1.47037
1
1
1
0.655809
1.47008
1.47284
1
0.653305
1
1
0.680965
1.00005
0.643868
1.4723
1
0.821524
0.668768
1
1
1.26756
1
1
1
1.07851
0.653906
1
1.00001
1
1.46885
0.670862
1
1.47055
0.61625
0.687626
1
1
1.47794
1
1.46878
1.00001
1.46947
0.662131
1
1
0.643022
0.825154
0.622893
1
1
1
1
1.4756
0.656598
1
0.66255
1
1.48123
1
1
0.903316
1
1
0.820408
0.999678
1.00005
1
0.672025
0.659848
1
1
1
1
0.788675
1.47008
1.47267
1
0.659294
0.69661
0.909851
0.659684
1
0.821711
1
0.653511
0.978441
1
1
0.657478
1
1.47907
1.46113
0.653634
1
1
1
1.47372
1
1.03844
0.841241
1.13962
0.655756
1.19171
0.663607
1
1
0.711873
0.917079
1
1.0315
1
1
0.663814
1
0.935926
1.03922
0.665455
1
1.38177
0.757737
0.883628
1
1
1
0.657445
1
0.654948
0.645436
1
0.850727
0.660834
1.066
0.735096
0.61624
1.47101
1
1.47956
1.25596
0.71836
1.48281
0.650658
0.999012
1.47127
0.999999
1
1.4771
1
0.712722
1
1.07158
1
1
1.47128
1
0.772485
0.803715
1.47345
0.9411
1
0.770839
1.47052
1.47347
0.915731
1
1.4724
1.12118
0.850133
1
1.00715
1
0.654856
1.20026
0.75689
0.739158
1
1
0.654614
1.46535
0.956808
0.662196
0.635677
0.868346
1
1.01099
1.47127
1.47247
1
1
0.999999
0.654763
1.20364
0.99999
1.47261
1.42463
0.661772
1.00001
1.09944
0.879968
1.28452
1.40076
1
1.05054
1
1.00005
0.640074
0.834462
1
1
0.808021
0.635589
1.03713
1
1.00001
0.585821
1.20686
1
1.47176
1
1.03625
1.25429
1
1.46439
1
1
1.46807
1
0.659385
1.47068
0.673752
1.12347
1
0.657566
0.99991
1
1.00003
1
0.81105
1.02696
0.658537
1.3412
1.4734
0.647617
1
1
1
1
1
0.958311
0.640796
1.04208
0.659125
0.66185
1.07293
1
0.9998
1.11619
1
1
0.646452
0.989255
1
1
1.14126
1
1.47336
1
1.47076
1.09276
1.01873
0.656794
1
1
0.638737
1
1
1
1
1.47443
1.04207
0.998079
1
0.655348
1.05066
0.999999
1
1.30182
1
0.641042
1.46718
1
1.00001
1
1.47313
0.639332
0.879258
0.660111
1.35158
1.47132
1
1
1.47224
1
0.663049
1
1
1
1
1
0.755085
1
1.47052
1
1
1.15085
1.4731
0.677447
0.859992
1
1.47416
1
1
1
1
1
1.47286
1.47087
0.651761
1.47112
0.641059
1
1
1.46118
1
1.47307
1.00984
1.02976
1.0667
1.47315
1.0621
1.31631
0.641353
1
0.649502
0.981905
1
1.47144
1
1
0.656186
1.4775
1
1.47197
1
1
1
1
1
1.00001
0.63372
1.47182
0.839262
1.4717
1
0.665794
0.679482
0.713598
1.4775
1.4734
0.966732
1
0.794177
1
1.18672
1
1.47111
0.657472
0.66823
0.844789
1
1.47147
1
1.07397
0.665211
1
1.47097
1.40871
0.998907
1
1.47128
0.653978
1.47747
1.4711
1.47597
0.657426
1.09896
1
1
0.638279
1
0.796466
0.820794
1
1.00002
1.47351
1
1.48697
1.08782
1
1.04334
1.47889
1
0.630539
1
0.784398
1
1
1.38875
1
0.796101
1
0.662234
1.03828
0.94599
0.668365
1.46561
1.37697
1.47093
0.659012
0.689601
0.995603
0.999999
1
0.699246
1.43982
0.651815
0.999966
1
1.47144
1.47289
0.911703
1
0.649961
0.690825
1.31033
0.980371
0.648053
0.999999
0.668947
1.11841
0.65429
1
1.00005
0.805722
1.47297
1.47256
0.848301
0.999602
1
1
0.726588
1
0.64818
1
0.670854
0.654762
1
1
1.00004
0.65536
1.4729
1
1
1.00007
1.00004
0.662925
1.47077
1.4745
1
0.658557
1.4707
1
1.1018
1
1
1.46967
0.650251
1
1
0.648501
0.726648
0.658497
0.64269
1
0.690619
0.997107
1.10612
0.652124
1
1
1.12864
1
1.41746
1
1
1.32183
0.661725
1
0.634873
1.12139
1.4719
1
1
0.656714
0.624854
0.637053
0.738814
0.62172
1.34997
0.999427
1
1
1
1
1.4701
0.608058
1
0.923177
0.999681
0.998581
0.999945
0.755268
1.11841
1
1.46294
1.47159
1
1
1.44947
1.00004
0.999999
1.47277
0.656135
1.46521
0.999999
0.650202
1.4716
1.00005
1
0.812763
1
0.640752
1
1.47052
1
1
1.47149
1
1
1.47774
1
1
1
1.47303
1
0.733307
0.715343
1
0.63133
1.47413
1
1
0.978672
1
1.47253
1.26001
1.37779
1
1
0.691818
1
0.658293
1.46946
1.47509
1.47015
1
1.47245
0.653062
1
0.657603
1.38311
1.44722
1.46989
1.47205
0.767028
0.660138
1
1.28763
1.47271
1.47358
1.48474
0.750948
1.17099
1
1.3564
0.719828
1
1.00002
1
1.00002
0.896189
1
1.47481
1
1
1
1
1
1
1.00006
1.46783
1
1.47543
1.34964
0.657361
1.47131
1.03634
1.2309
1
1.46917
1
0.66268
1
1
1
1
1.41513
1
0.633374
1.47805
0.636277
1.47277
1.39086
1.24595
1
1.08796
1.21493
0.99534
0.657347
0.782522
1.00002
0.999999
0.925186
1
0.630652
1.47264
0.61338
0.927699
0.857635
1
1
1
1.01436
1
1
0.679534
0.996679
1.46946
1
1.47148
1
0.655905
1
1
1.47153
1.47161
0.635493
1
1.47195
1
0.807854
0.632966
1.47265
1.42918
1
1.08169
1.47098
0.998723
1
1.19984
1.40978
1.46736
0.995735
1
0.999998
1.41112
1
1
1
1.47414
0.998542
1
1
1.472
1
1
0.653671
1
1
1
1.47134
1
1
0.865627
1.13645
1.4254
0.770163
1
1.47266
1
1.15797
1
1.47107
0.997378
1.4675
1
0.651575
1
1.31806
1
1
1.43454
1.00001
1.47108
1
1.47578
0.694289
0.66349
1.47062
1
1.40134
1
1.47098
1
1
1.00005
1.47137
1.47038
1.11957
1.47106
0.995073
0.66224
1.47139
0.867171
1
1.4739
1
1.47117
1
1.47542
1.47143
0.996465
0.648603
1
1.47146
1
1.03205
1
1
0.997897
0.748504
1.41632
1
1.42442
1
0.868797
0.659164
1.47352
1.47273
0.718206
1
1.47047
1.47173
1.47102
0.712149
1.47066
0.661763
1.47148
1.4831
1
1
1.47051
1
1
1
1
0.65832
1
1
1.47074
1.47254
1
1.47157
1
1.47164
1.47083
1
1.39061
1
0.633789
1.47009
1.34895
1.13823
0.63444
1.47204
1
1
0.661306
1
1
1.47165
1
1
0.785218
1
1.47178
1.00008
1.4732
0.64711
1.46891
1
1.47034
1.44999
0.907128
1
1.4673
0.762768
1.47433
1.33044
1.47033
1.46976
0.997252
1.47049
1.47153
1.46775
1.47197
1.00068
1
0.653761
1
1.47061
0.835191
1.42687
1
1.46316
1
1
1
1
1
1.46921
0.651017
0.686507
1.47139
1.47212
1
1
1
1
1
1.46475
1.42291
1.46556
1.01823
1
1
1
1.00004
1.47286
1.47176
1
1.47154
1.47264
0.651042
1.32381
1
1.47171
1.47758
1.46779
0.997851
1.46965
1.46997
1
1.42771
1
1
1
1
1
1
1.471
1.47339
1.43225
1.477
0.647248
0.69912
1.46677
1.46646
1
0.650089
0.94226
1
1.21881
0.659215
1
0.999457
0.998297
0.658429
1
1.47339
1
1
1
1.47135
0.94516
1
1.4713
1.47176
1
1.47282
1
1
1.48084
1
0.658907
1
1.4691
1
1
0.657038
1
1.4643
1
0.634432
0.654178
1
1.45022
1
0.642565
0.873229
1
1.47267
1
1
1
1.47658
1
0.669868
1.06542
1.4738
1.47357
1.471
1.03057
1.47046
1.47101
1
1.00002
1
1
1.00001
1.47338
1
0.999345
1.46709
1
0.633285
1
1.47974
1.21775
1.05818
1.21364
1.06965
1.47386
0.718909
1.47114
1
0.653886
0.997242
1.47969
0.94635
1.47894
1.4701
1.44575
1
1.47257
1.47896
1.46431
1
1.00004
1
1
1.47386
1.33137
1
1
0.669817
0.996628
1
1.47308
1
1.46457
1.47125
1.46779
0.908539
1.47161
1.47306
1.00741
1.2257
1.47472
1.47135
1
1.43491
0.837378
1.44912
0.98601
1.47286
1
1.48559
1.47027
1
0.653347
0.937452
0.735664
1
1.07966
0.996861
1.47032
1
1
0.997005
1
1.23201
1.43846
1
1
1.47272
1
1
1.33161
1.46967
1.45154
1.46974
1.47092
1
1.47111
0.746006
1.47122
1
0.99692
0.669621
1
1
0.776142
1
1.14319
1
1.46866
1
1.46311
1.28453
0.650542
1
1
1
1
1
1.47205
1.01185
1
1.47419
1
1.471
1.46373
0.999999
1
0.972627
0.999831
0.662757
0.640162
0.752835