/*--------------------------------*- C++ -*----------------------------------*\
  =========                 |
  \\      /  F ield         | OpenFOAM: The Open Source CFD Toolbox
   \\    /   O peration     | Website:  https://openfoam.org
    \\  /    A nd           | Version:  12
     \\/     M anipulation  |
\*---------------------------------------------------------------------------*/
FoamFile
{
    format      ascii;
    class       volScalarField;
    location    "5.64";
    object      p;
}
// * * * * * * * * * * * * * * * * * * * * * * * * * * * * * * * * * * * * * //

dimensions      [1 -1 -2 0 0 0 0];

internalField   nonuniform List<scalar> 
22702
(
1
1
0.877332
1
1.04855
1
1.4701
1
1
0.613373
1.46904
1.47013
1
1.47158
0.899222
1
1
1
1.46943
1
1.47181
1
1.4723
0.667038
1.47242
0.690635
1
1.47485
0.631355
0.660787
1
1.47206
1
1
1
1.43533
1.47608
1.47179
1
1
0.669141
1
1.23321
1
1.47393
1
1
1
1
0.65984
1
0.657329
1
1.46912
1
1.47398
1
1
1
1
0.683229
1
1
0.642227
1
0.659956
1
1
1
0.641087
1
1.47104
1.28502
1
1.47081
1.4958
0.664479
1.46874
0.659302
1
1.47061
0.660018
1.47272
1.47398
1
1
1
1
0.938065
0.62329
1.46852
1
1
0.634089
1
1.47157
0.643078
1
1
1
1
1.23312
1.47052
0.665888
1
1
1.10784
1
0.661546
1
1.46904
1.47304
1
1
0.668585
0.672547
0.618056
1
1
1
1
1
0.922723
1
1.40034
1.03771
1.47063
1
1.46851
1.46993
1.47013
1.47283
1
0.6673
1
0.673987
1
1
1
1
1.47285
1
1
1
1
1.47107
1
1.02314
1
1
1
1
0.662786
1
1.01029
1
0.658274
1
1
1
1.46772
1
1.47096
0.659352
0.679974
1.47183
1.47275
1
1.07802
1.26373
1
1.47389
0.660267
1.4362
1
1
1
1
1.47189
1.39619
1
1.47369
0.664365
1.47424
1
0.651838
1
0.655178
0.688691
0.999791
1
1
1.47181
1
1
1.47144
1
1.47116
1.47241
0.653549
1
1
0.655037
1.47146
1
1
1
1.47143
1
0.64602
1
1
1.47159
1.47129
1.47056
1
1.00004
1
1
1
1.47106
1
0.675492
1.49016
1.47157
1.47205
1
1
1
0.642214
1.47102
1.21397
1
1.47284
0.649867
0.64781
1.47291
1.4705
1
1.47552
0.635392
1.41419
1
1
1
1
1.4712
1
1.27616
1.04182
1
1
1.47256
0.662492
0.79322
1
1.47014
0.658498
1.47599
1
1
1
1
1
1
1
0.660994
0.778097
0.64611
1.4715
1
1
1
1
1.42043
1
0.658938
1
0.636764
0.657323
1.47113
0.667754
1.4723
1
1
1
0.997674
0.649581
0.62143
0.999999
1
0.63267
1
1.47147
0.655779
1
1
1.47067
0.627495
1
1.47821
0.681367
1.47208
1
0.645646
0.997679
1
1
1
0.659771
1
1
1
1.00002
1.01762
1.28684
1
0.695505
1
1
1
1
1
1
1
1.47168
1
1.47298
1
1
1
0.664071
1
1.4718
0.661865
1
1.36148
1
1
1.47309
1
1
1
1.45989
1
1
1.45519
1.47266
1
1.09894
1
1
0.677081
1
1
1
0.619544
1
1
1
1
0.689187
1
1
1
1
1
0.628524
1.00007
1.47126
1
0.999999
1.47191
1.47265
1
1
0.665332
0.805374
1.4714
1
1
1
1.47057
0.648187
1
1.47072
1
1
0.709435
0.716601
1
0.651855
0.659355
1
1
1
1
1
1
1
1.47382
1.10877
1.45796
0.63321
0.901323
1.47325
1
1.47041
1.47162
0.649475
0.789056
1
0.650098
1
1.48578
1
1
1
1
1.4715
1
1
1
1
1
1
1
1.16831
1.46831
1
1.47164
1
1
0.657882
1
1
1
1
1.47127
1.35553
1
1
0.655592
1.47136
1.47124
1
1.47137
1.47139
1.47141
1
0.812847
1
1.47015
0.982065
1.47165
1
0.644019
0.998863
1.47182
1
1
1
1
0.663757
1.47106
1.42649
1
1.46885
1.46998
1.47075
1
1.22335
1.47311
1
1
1.32428
1.06708
1.47169
0.931797
1.47165
1
1.47164
1.47132
1.47144
1.47112
1
1.44517
0.907619
0.889885
1
0.999999
1
1
1.47706
1
1
1
1
1
1.47229
1
1
0.996186
1.47106
1.40264
1
1.38927
1.00004
1
1
1.47114
1
0.997176
1.00385
1
1.47129
1
1.47239
1
1
1.34654
1
1.47277
1.00002
1
1.47299
1
1.47113
1
1
1
1.47126
1
1.47565
1.00001
1.4714
1.47257
1.47204
1.47433
1
1.4707
1.46372
1
0.651363
1.44147
1.33752
1
1.47155
1
0.670611
0.685993
1
1
1
1
1
0.641124
1
1.4715
1.11543
1.47108
1
1
1
1
1
1.47142
1
1.46986
1.277
0.770092
1
1.00001
1.13504
1.11382
1
1
1.1631
1
0.658025
1.47162
1.47174
1
1
1
1.47168
1
1.00003
1.47613
1.47096
0.945822
1
1
0.656533
1.42492
1
1
1
1
1
1.47108
1.47438
1
1.47237
1.47386
1.47231
1
1
1
1
0.671144
1.47162
1
1
1.42828
1.4698
1
1.44315
1.46725
1
1
1
1
1
1.47129
1
1
1
1
1.47896
1
1.46562
0.655492
1
0.651668
1
1
1
0.996988
0.655502
0.998985
1
1
1
1.058
1
1
0.867184
1
1
1
1
1
1
1
0.999997
0.927796
0.999999
1
0.997613
1
0.661409
1
1
1
1
1.35084
1
1
1
1
0.652149
1
1
1.44213
1.47129
1
1
1
0.893446
1
1
1
1
1
1
0.94905
1.01302
1.4716
1
1
1
1.47591
0.908784
1
1
1
1.4736
1.47213
1
1.00001
1
1
1
1
1
1
1
0.659311
1
1
1.47023
0.64494
1
1.47048
1
0.661821
1
1
0.658627
1
1
1
1
1
1
1
1.46192
1.47041
1
1
1
1
1.42933
1
1.13518
0.65031
1
1
1
1
1
1
1
1.03576
1
1
1.24606
1
1
1
1.38693
1
1
1
1
0.665884
1
1
0.640779
0.658422
1
1
1.46948
1
1.01943
1
1
1
1.32458
0.662375
1
0.650522
1
0.78211
1
1
1
1.47244
1
1
1.47047
1
1
1
1.47053
1
1
1.47299
1
1
0.649272
1
1.13497
1
1
1.47387
1.46933
1.30895
1.41866
1
0.647762
1
1
1.45015
1
0.662707
1
1
1
1.47263
1
1
1
1
1.27804
1
1.43219
1.46943
0.610089
1
1
0.681613
0.692237
1
1
1
1.3264
1.3535
1
1
1
1
1
1
1
1.19428
1.47556
1.01078
1
1.46558
0.679226
1
1
1
1.25338
1
1.08987
1
1.42734
1.47001
1
0.64345
1
1.47532
1
1
1.47135
1.44139
1
1.47472
1
0.609889
1
1
1
1.47233
1.46191
1.4125
1
1.47088
1.47175
1
1.47379
1
1.47013
1
0.663782
0.974334
0.664011
1
1
1
1
1
1.47247
1
1.47253
1
1
1
1.44743
1
0.66666
1.47055
1
0.65173
0.680874
0.673412
1
1.22421
1.0359
1.47389
1.47085
1
0.999999
1
1
1.4717
1
1
1.47175
1.47207
1
1.16168
1.00014
1
0.996602
1.46714
0.851136
1
0.812958
0.655989
0.660002
0.936306
1.47347
1.46535
1.0927
1.4715
1.47156
1
1
1.47414
1.471
1.47154
1.47001
1
1.4723
0.665768
1.47663
1.47012
1.47282
1.47425
0.862887
0.898429
0.925791
1.47191
0.957881
1.47007
1
1
1.47421
1.47217
1
0.646003
1.47036
1.47161
1
1.4717
1.47169
1
1.47172
0.65035
1.47666
1.47615
1.47341
1.47545
1
1
1
1.47158
1.30085
0.692586
1.47059
0.648589
1.47077
1
1
1
1
1.47146
1.47096
1
1
1.47134
0.654346
1.47131
0.658282
1
1.46838
1
0.619704
1.47308
0.733521
1
1.4705
1.47302
1.47095
1
1
1.22247
1.47233
0.659076
1.47126
1
1.47147
0.872645
1.47024
0.66047
1
1.47019
0.69024
1.47419
0.657213
1
1.47292
1
1.46925
1
1.27056
1.45313
1.36752
0.645635
1
1.47142
1
1.47189
1
1.47157
1
1
1.47156
0.974835
1.47524
0.596302
1.42036
1
1.3286
1
1.47202
1.47124
1.47073
1
1.42212
1.471
1.43474
1.28606
1.46468
1
1.30577
1
1.47086
1
1.05733
1
1.437
1
1.47173
1.44842
1.44858
1
1.45759
0.695051
1
0.65402
1
1
1
1.46859
1
1.47205
1
1
1
1.47311
1.46451
1.38649
1.47081
1.47616
0.654577
1.47113
1.47008
1
1.40919
1.47104
1.44697
1
1.47486
1.4741
1
1.48094
1.47347
1.47127
1.47398
1
1
1
1.47202
0.680226
1
1.47151
1
1
0.682536
1
1
1.47158
1.47146
1
1.47092
1.47883
1.47113
0.97699
1.47201
1
1.47193
1.4715
1.37455
1
1
1
1.47279
1.4717
1.4711
0.938007
1
1.47915
1.47192
1.47154
1
1.47193
1.47081
1.47112
1.47872
1
1.47095
1.47785
1.40668
1.47064
1.47645
1
1.47846
1.46561
1.47121
1.47141
1.47009
0.668295
1.47142
1.47221
1
1.47146
1.471
1.47172
1.47208
1
1.47095
1.47141
1
1.47242
1.39526
1
1
1
1.47407
1.46707
1
1
1.24768
1
1.47081
1
1
1.47161
1.47315
1.47146
1.47161
1
1
1
1.32772
1
1.47157
1
1
1.46935
1.47649
1
1.47145
0.655376
1.47196
1.47535
0.72065
1
0.652207
1.40837
1.47525
1.47261
1.47299
0.646311
1.47104
1.47444
0.648421
0.641028
1
1.47259
1.47114
1
1
1.47163
1
1.46785
1
1.40786
1
1.21691
1.47084
1.47339
1.32672
1.41874
1.46874
1.47469
1.43915
1
0.675255
1.47186
1.47174
1.48015
1.00001
1
1
1.46902
1
1.47128
1.47052
0.758393
1
1.47171
0.999941
1
1.00003
1.00004
1.47156
1.47075
0.998501
1
1
1.4719
1.47232
1.47133
1.47611
1.47047
0.676307
1.39747
1
1.46805
1.47127
1.47144
1.47739
1
1.47096
1.45814
1.47279
1
1.47165
1.47163
0.848866
1.47128
1.47216
1
1.47078
0.828348
1.47219
0.859319
1.47128
1
1.47147
1.47906
1.47134
1.47153
1.47136
1.47308
1.47223
1.47283
1
0.931116
1.47182
1.47099
0.839245
1.47107
0.985431
1.30582
1.47159
1.47093
1.47735
1
1.47389
1.30259
1.47204
0.918012
1.47452
1.48276
1
0.868877
1
1.47074
1
1.32086
1
1.45364
0.872829
1
1.47556
1.46334
1
1.46982
1.47409
1.48037
1.46137
1.47867
1
1.47127
1
1
1
0.901558
1.47164
1.4727
1.47854
1.47137
1.46821
1.47696
1.47765
1.472
0.905775
1.03018
1
1
1.48208
1.47171
1.47177
1.47112
1.00003
1.23454
1
1.48078
1.41069
1
1
0.744383
1.47133
1
1
0.661479
1.47116
1
1.47394
1.47182
1.46792
1.45305
1.47161
1
0.659122
1.10668
1.47132
1.47168
1
1.47009
1.47153
1.22279
1.00885
1.10062
1
1.46897
1.47176
1
1
0.646826
1
1
1.47127
1.47157
1.47397
1.47143
1.47182
1.47436
1.47166
1.47411
1.47147
1
0.996458
1.47221
1.47192
0.996911
1.47145
1.47147
0.666354
0.619594
1.4688
1.47562
1
1
1.0008
1.47149
1.47258
1.47124
1
1.47149
1
0.857271
1.48163
1.46151
1
1.20365
1.47143
1
1.47124
1
1.47108
1.32179
1.4703
1
1.47116
1.47956
0.651235
1.47174
1
1.47532
1.47504
1
0.668972
1.46944
1.38477
0.997566
1.46246
1.47109
1
1.0027
1.47068
0.997568
1.47182
1
1
1.47086
1
1.47078
1.47134
0.996722
1.37461
1
1.47123
1
1
1
1
1.47123
1
1
1.47614
1
1.47128
1
1.29995
1.47754
1.4729
1
1
1.00719
1
1.47375
1.47149
1.4729
1.47132
1.47156
1.47082
1.47165
1
1.47186
1.47254
1
1.47148
1.47143
1
1.47174
0.927146
1.05806
1.47153
1.47112
1.47087
1
1.47152
1
1.47104
1.47148
1
1.47036
1
1
1
1
1.47092
0.651566
0.997952
1
1.47079
1.467
1
1.47135
1
1.00531
0.666613
1.47135
0.999578
1
1.47017
0.998373
1.47129
1
0.99977
1
1.47151
1.47629
1.47041
1.47103
0.655605
1.471
1.47116
1.47261
1.11521
1
1
1.19856
1.47199
0.649531
0.655381
1
1.47172
1.47254
1.46998
1
1
1.47391
1.47096
0.999871
1
1.33156
0.652096
1
1.0809
1.47142
1.46947
0.998254
1.47155
1.48051
1
0.99885
1
1.47052
1.46771
1.18493
1
1.43539
1
1.0016
1.47239
0.672037
1.4706
1.47112
0.99696
0.99991
1.39817
1
0.999686
1
1.47544
1
1.00001
0.654046
1.4714
1.00001
1
1
1
1.47457
1.2592
1
1
0.659798
1.47137
1.25973
1
1
1
1.44928
1.45469
1.47191
1
1
1.47836
1
1.47081
1.47179
1
1
1.47313
1.47169
1.4485
1
1
1.47367
1.47286
1
1
1
1.47519
1
1
1
1.47112
1.46933
1.47257
1
1.47194
1.00003
0.716199
1.47055
1.47074
1
1.47381
1.44528
1.4688
1
1
1.47879
1
1.24982
1.47031
1
0.657194
1
1.47324
1
1
1.47613
1
1
1
1.13958
1.47185
0.698555
1.00001
1.47297
1
1
1.47127
1
1.47802
1
1
1.47178
1.47219
1
1.00005
1
1
1
1
1
1
1.46994
1.47139
1
1.4737
0.654305
1.46497
1
1.47203
1.47975
1.47134
1.47994
1.47448
1
1
1.47443
1
1.28445
1.47364
1.47167
1
1.47284
1.46852
1
1.42026
1
1.47176
1.30439
1.47246
0.997552
1.4613
1.42902
1.46908
1.47197
1.03829
1.47128
1.4735
1
1.47161
1
1.47112
1
1
1
1
0.996371
1.4715
1.47068
1.38717
1
1.47738
1
1
1
0.666352
1
1.4614
1
1.42592
1.45562
1
1
1
1.44991
1.46891
1
1
1.47089
0.657244
1.07909
1
1.47614
1.47101
1.4281
1.46032
1.47116
1
1.47294
1
1
1
1
1.47286
1.47362
1
1.46063
1.05829
1.47221
1.43742
1
1
1.43878
1
1
0.654338
1.33741
1
1
1.47621
1
1.47465
1.43011
1
1.42806
0.657286
1.47137
1.47144
1.47216
1
0.648037
1
1
1
1.47146
1.37457
1
1.48089
1.47166
1
1.4711
1
1
1
1
1.47157
0.999322
1
1.47308
1
1
1.47199
1.47132
1
1.47467
1.08879
1.00002
1
1.47068
1
1.4703
1
1.01195
1.47191
1
1.47156
1
1
1.1415
1.47241
1
1
1
1
1
0.99613
0.663468
0.66757
1.02163
1
1.02315
1
1.01924
1
1.472
1
1.28431
1
1.47085
1
1
1
1.47088
1
1.36273
1.47187
1
1.24585
1.47183
1
1
1.46917
1.4716
1
1
1.04763
0.643574
1
1.47428
1
1
1
1
1.07482
1.47167
1
1
1
0.635959
1
1.4713
1.47172
1.47578
1
1
1
1
1.23437
1.47884
1
1
1
1.47355
1.47142
1.04303
1
1
1
1.47141
1.47137
1
0.658066
1.47153
1.47185
1.47175
1.47199
1.47107
1
1
1.47989
1.46989
1.47146
0.63831
1.04147
1.47155
1
1
1
1
1
1.47156
0.657386
1
1
1.4716
1.2133
1
1.4783
1
1
1
0.647881
1
1
1.1185
1.4713
1.47226
1
1.46624
1.47833
1
1.07396
1
1.47533
1
1.47177
0.658176
1
1
1
1
1.47081
1.00006
1
1
1
1.45599
1
1
1
1
1.47113
0.646285
1.37351
1.47552
1
1.47232
1
1
1
0.997228
1
1.47807
1
0.803697
1
1
1.00004
1.47353
0.660059
1
1.47078
1
1.47556
1.47116
0.630472
1
1
1.46373
1
1
0.616591
1
1.46625
1
1.44958
0.999314
1.47006
1
1
1
1
1.47022
1
1
1.47177
1
1
1
1
1
1
1
1
1.30614
1
1.14795
1.47204
1
1
1
0.649167
1
1
1
1
1.47036
1.47116
1.05954
1
1
1.47287
1
1
1.47251
1
1.00002
1
1
1
1.00001
1.47208
0.786736
1.4716
1.4732
0.997061
1
1
1
1.26988
1
1
1.4724
1.47179
1
1
1
1
0.637758
1
1
1
1.2873
1
1.47147
1.47348
1
1.47314
1
1
1
1.25148
1
1.47298
1
1.4714
1
1
0.996019
1.47133
1
1
1
1
1
1.47353
1.00002
1
0.653302
1.46929
0.64475
1
1.47132
1
0.995721
1
1.47137
1.47793
1
1.46531
0.88697
1.47194
1.47708
1.00003
1
1
0.655518
1
1
1
1.47143
1.26635
1.47688
1
1
1
1
0.996618
1.47114
1
0.655514
1
1
1
1
1
1
1
1.47622
1.47353
1.47461
1
1
0.996825
1
0.972964
1
1
1
0.669829
0.979531
1
0.644251
0.650399
1
1.47204
1.47219
1
1.47055
1.47143
0.653078
1.29973
1
1
1
0.657849
1.47366
1
0.653701
1
1.48064
1.07865
1
1
1
1
1.47126
1.47388
1
1
1.47137
1
1
1.47012
1.47201
1
1.44681
1.47226
1.47049
0.960192
1.47245
1.00852
0.654157
1.35873
1.47191
1
1
1
0.665964
1
0.663058
1.47771
0.953953
1.47187
0.955208
1
1.46982
1.21128
1
1
1.4733
1
1.18351
1.47162
1
1
1.46858
1.47997
0.659018
1.27822
0.999896
1
1.27499
1
1.46905
0.945447
1.48001
1.4783
1
1
1
1
1.45839
1
1
1.47368
0.999643
1.4722
1.36797
1.47359
0.65118
1
1
1
1
1.47241
1.00005
1.47162
1
1.47225
1.47034
1.05853
1.46768
1.14538
1.47225
1
1.31923
0.666318
1.46849
1.47131
1.38169
1.0812
1.47341
1.47186
1.47144
1.47114
1
0.913039
1.06687
1
1.4711
1.22093
1.47196
1.00003
1
1
0.688418
1.47879
1.4719
1.37961
1
1.16999
1
1.46918
1.46755
1
1.47143
1.47174
1
1
1
1.47093
1
1.18009
1.47608
1.32226
1
1.47119
1
1
1
1
1
1
1
1
1
1
0.668926
1
1.43715
0.665476
1.26747
0.998561
1.47021
1
1.24233
1.00001
1.30049
1.39793
1
1.0025
1.48042
0.911385
1
1.46793
1.45221
0.945053
1
1.4734
1.47219
1.47319
1
1.47126
1.47301
1.4752
1
1.21485
1
1.00006
1.47254
1
1.47148
1.06583
1.46947
1
1
1.46996
1.47033
0.693703
1
1.47135
1.35071
1.47062
1
1
1.47051
1.47029
0.998231
1
1.41015
0.996884
1.47133
1.00007
1
1
1
1
1.20982
1
1.35323
1.47255
1.34972
1.47286
1
1.00306
1
1
1.47038
1
1.47581
1
1
1
1
0.999999
1
1.05742
1.24395
1
1
0.697812
1
1.47034
0.676235
1.47889
1
1.23581
0.99976
1.47151
1.29826
0.678316
1.25362
1.00003
1.47194
1.47388
1
1.28109
1.47237
1.47351
0.998405
1.46315
1.45793
0.661714
1
1
0.997463
1
1.46817
1
0.68387
1.47436
1
1
1.42578
1
1.47319
1
1.47331
1
0.677203
1
1
1.47396
1.47895
1.4675
1
1.46812
1.47158
1.47227
1
1
1.45936
0.999999
0.741012
1
1
1
1.47323
1
1.4714
1.30261
1.47143
1
1.47165
0.999387
1
1
1
1
1
1
0.730954
1
1
1.47166
1
1.47693
1.4777
1
0.674874
0.651359
1
1.47371
1.07413
0.656954
0.64481
1
1.47321
1
1.47239
0.64296
1.00121
1
1
0.999505
1
1
1
0.999908
1.18342
1.47176
1
1
1.47143
1.26951
1
1.41498
1.46888
1.47079
1.18404
1.47401
1
1.47072
1
1.45701
1
1.47796
1.46938
0.996835
1.47376
1.47899
1
1
1
1
1
0.917888
1.47192
1.00004
1.00003
0.7051
0.999981
0.672549
0.645953
1
1.47276
1.47109
1.47216
1
1.47143
1
0.649917
1
1
1.4734
0.829073
1.47287
1
1.47329
1
0.984472
1.47072
1
1
1
1.47389
1
1.47083
0.660398
1
1
1.26745
1
1
1.253
1
1
1.47172
1
1
1
1
1
1.46814
1.47172
1
1.47134
1.47365
0.663458
1.21205
1.46806
1
1
1.42318
0.999025
1
1
1.4709
1.47505
1.31127
1
1.47252
0.672419
1.44973
0.999422
1
1.47368
1.00003
1.47138
1.38951
1.35606
1
1
1.47149
0.724836
0.670474
1
1.47164
1
1.47157
1
1.27092
1
1
1.4704
1.29693
0.655511
1
0.998478
1
1
1.02659
1.18284
1.47125
1
1.47578
1
1
1
1
1
1
1.06699
0.64731
1
1
1.02735
1
1
1
1
1
1.47207
1
1
1.47137
1.47156
1.32964
1
1
1
0.824274
1.47746
1.32436
1
1
1
1
1.47219
1
1
1
1.46978
1
1
1.33481
1.49239
1.03616
0.745313
1.47012
1.33248
1.46877
1
1.23543
1
1
1
0.631162
1.00188
0.675084
1
0.645322
0.649642
1
0.659215
1
1
1
1.1994
1
1.47167
1.47186
1.00182
1.21736
1.39921
0.666375
0.779517
0.886494
1
1.47142
1.47252
1.47154
1.47143
1.40184
0.876308
1
1.40376
1
1.44848
1
1
0.996551
1.01058
1
1
1
1.47127
1
0.695679
1
1.47219
0.672252
1
1
1.47126
1
1.47161
0.999904
1
1
1.47248
1.4376
1
1.4856
1
1
1.01508
1
1.19742
1
1
0.663127
1
1
1.4685
0.999998
1.4727
1
1.00003
0.672615
1
1
0.713275
1.00089
1
1.47104
0.671133
1.47075
0.665365
1.47213
1
1
1
1
1
1
1
1
1
1
1
1.45116
1
1.47327
1.47057
0.654358
1
1
1
1
1
1
1.45799
1
1
0.650827
1
1
1.47186
1
1
1.17764
1.39267
0.647323
0.638901
0.711133
0.748554
1
0.996539
0.715225
1.0004
1.43304
0.996989
1
1
1.47278
1
1
1
0.780704
1.00001
1.16804
1
1
1.19008
1.4715
1
0.658044
1
1
1
0.996611
1.00001
1.46906
1.47119
1
0.665506
1
1.25216
0.663402
1
0.892358
1
0.996059
0.650083
1
1
1
0.995634
0.634999
1
0.64581
0.998428
1.24538
1.42245
0.640205
0.650029
1
0.991504
1
0.998638
1
1.47125
1.47276
1
1.01682
1.47246
1.47064
1
1
1.47103
1
1
1.00005
1
1.47463
1
1
1.01745
1
0.998556
0.699584
1
1
1
1
1
1.47452
1.02722
1.00005
1
1
1
1
1
1.00003
1
0.663108
1.0974
0.998563
1.47143
1.47145
1
1.01602
1.47231
1.40389
1
1
0.620591
1.47175
1
1.47025
1
1.47062
1.31552
0.663381
1
0.664831
1.43015
0.99967
1
0.646435
0.628115
1
1
1.39625
1
0.999998
0.650799
1
1
1
1.15015
1
0.654984
1.47186
1
1
1
1
1.47237
1
1
1.47751
1.42098
1
1
1
1.4724
0.647429
1
1.47191
1.47165
1
1.37363
0.999999
1.00003
1
1
1.42967
1.01731
1
0.672676
1.24488
1
1
0.997204
1
1
1.47108
1
1
1.00003
1
1.47221
1
1
1
1
1
1
1.00001
1.20625
1
1.47046
1
1
1.47363
1
1
1
1.47117
1.47395
1.04521
1
0.997531
1
1
1
1
1.47218
1
1
1.47088
0.649743
1
1
1
1
1
1
1.37959
1
1
1.47022
1.47227
1
1
1
1.4717
1.47099
1
0.999728
1.46833
1
1
1
1.00002
0.697446
1.03076
0.995874
0.995978
1
1
0.657176
1.46989
1
0.615137
1
1.47074
1.45095
0.648274
0.999407
1.47152
1.47184
1.46987
1
1
0.922991
1.42355
1.38954
0.614805
1
1
1
1.47302
1.47155
0.650458
0.997262
1
1.47154
0.699446
1
1.46946
0.653043
0.976515
1.00703
1
1.47664
1
1
1
1
1
1
1.00011
1.43895
1
1
1.47384
1
1
1
1.47115
1
0.661013
1
1
1
1.15738
1
1
1
1
1
0.784216
1
0.697847
1
1.47146
1.00005
0.861923
0.880948
1.00002
1.00412
1.24683
1
1
0.673837
1.47192
1.47139
1.47101
1
0.640627
0.665122
1
1.47113
1
1
1
1
1
1.00003
1
0.665024
1.30319
1
1
0.644184
0.982667
1.00001
1
1
1
0.650348
1
0.711209
1
1
1.48067
1
1
0.657724
1
1.4712
1
0.660967
1
0.662198
1
1.00761
1.47194
1.48355
1
1
1.47471
1
1
1.09531
0.997053
1
0.998213
1
1.47257
1
0.641734
1.00002
1.46886
0.998862
1
1
0.795719
1
0.999007
0.650582
1.47371
1.16982
1
1.00001
0.894986
1
1
1
0.80106
1
1
1
1.47139
1
0.661734
0.999999
1
1
1
0.646966
1.47139
1.4341
0.653372
1
1.47912
1
1
1.47124
1.47256
1.39412
0.648953
0.997682
0.999301
1
1.47158
1
1
1
1
1.47059
1.00004
1
1
1.46906
1
1
1.47112
0.655906
1
1
1
0.655724
1
0.999999
0.999999
0.998644
1
1
1
1
1.36148
1
1.47122
1.47075
1.48125
1.47124
1.47159
1.47094
1
1.47064
1
1.47226
1.47169
1
0.998834
0.663083
1.40007
0.999888
1
1
1
1
0.99156
1
1.0705
1
1
1
0.827849
1.47109
1.47069
1.47866
1.40358
0.999873
1
1.02257
1.47252
0.997973
1.05802
0.996914
0.638311
1
1.00002
1
1
1
1
1
1.47219
0.660323
1.47175
1.47131
0.994648
0.693356
1
1
1
1.47108
0.66491
1.41431
0.650389
1.47223
1.47704
0.666987
1.47277
1.02524
1
1.47534
0.796472
1
0.998796
0.668645
1
0.657108
1
1.4711
1.4714
0.760702
1
1.47072
0.638363
1
0.663504
1
1.47079
1
1
1.47054
1
0.84215
1
0.999681
0.655593
1.47531
0.999473
1
0.682217
1
1
1
1
1.25449
1
1.47139
1
1
1.48093
1
1
1.47218
1
0.670402
1
0.652093
1.00001
1
1
1
1
1.44996
1.27156
1.47185
1
1.47148
1.43714
0.652143
0.660007
1
1
1.46996
1
0.670339
1
0.986851
1
1
1.47225
1
1.46843
0.680682
1.4798
1
0.672413
1
1
1.4738
1.47011
1
1.00004
1
1.4796
1
1
0.677547
0.999421
0.708909
1
1
1
1.47337
1.46913
1.47005
1
1
0.617938
1
1.47673
1
1
1
1.4442
1.47205
1.47089
0.633666
1.47479
1.47117
0.662796
1.47005
1.00004
0.667793
1.00853
1
1
1.47266
0.644726
1.29777
0.667517
1.47126
0.997335
0.650168
1.47284
1
1
1
1
1.47055
1.47292
0.664367
1
1.00002
0.65009
1.00003
1
0.656269
0.67661
1.32119
1.46888
0.998479
1.47086
1
1.46414
0.81102
0.654945
1.47146
1.48251
1
1.47133
1
1
1.47189
1
1.35724
1.46997
1
1
1
1
1.47149
1.46619
1.47123
1
1
1.46967
1.47364
1.47194
1
1.47164
1
1
1
1
1
0.666043
0.839844
0.673183
1
1
1.47281
1
1
1.46601
0.642221
1
1.47206
1.46626
1.44987
0.653377
1
0.621237
1
1.00003
1.4731
1.23008
1.47038
1.42915
1
0.626635
1
1.47193
1.334
0.656576
1
1
1
0.819158
1
1
1.47982
1
0.650217
1.47122
1
1
1
1
1
1.3791
1.10087
1
1.47047
1
1.47257
1
0.997453
1
1.47063
1.47851
1.47288
1.47289
0.999579
1.47058
1
1.47146
1.47061
1.39697
1
1
0.666382
1.47196
1
1
1.47411
1.47095
1.47019
1
1.46989
1
1
1.00003
1.47706
1.46797
1.13165
1.0991
1.47221
1.47168
0.716194
1
1
1
1
1.00001
1.15906
1
1
1.38825
0.707703
0.999979
1
1.47193
0.999894
0.999825
1.06694
1.43838
1.47308
0.913834
1
0.704237
1
0.988819
1.47104
1.4728
1.46209
0.999145
1
1
0.669764
1
1
1.47122
1.05022
1
1
1
1
1
1
1
0.999941
1.47483
1.00002
1
1
1
1
1.29983
1
1.2194
1
1
1.47163
1.46953
0.648569
0.998787
1
1
1
0.666096
1.47029
1.47118
1
1
1
1
1
1
1
1
1.47245
1.46734
0.67042
1.05091
0.664255
1
0.662729
1
1.47182
1.12513
1
1
0.71828
1
1.45083
0.810048
0.996521
0.644325
1
1
1.47046
1.00004
0.997107
0.639243
1.47127
1.47313
1
1
1
1
1.43951
1
1
1.47134
0.999036
1.4707
1.00008
1
1
0.675104
1
1
1.47177
0.652319
0.778895
0.663982
1.47216
0.999348
1
1.47741
0.648555
0.673638
1.01037
1
1
1.47263
1.00004
1.2096
1
1
1.47222
0.660314
1
1
1.00013
1.47121
1.00018
1.46074
1
1.00003
1
1
0.705744
1
0.783915
1.00002
1
1.47374
0.681108
1
0.778069
0.799925
1
1
1.4708
1
1
1
1.47096
1.47044
1.00005
1.47497
1.47257
0.788792
1.47125
1.45079
1
1
1.47112
0.999999
1
1
1
1
1.47687
1.47227
1
1
1
1.46973
1.0002
1
0.649481
0.699067
1
1.00003
1.16735
1
1
0.895603
0.630668
1
1
1
1.47123
1.43016
1.47165
1
1
1
1
0.702418
1
1.45207
1
1.46488
0.648477
1.47068
1
1
1
0.617997
1
1.47031
1.00003
1
0.65475
1.17066
1
0.999661
1.48719
0.655354
0.668733
1
1.47102
0.650782
0.646981
1
0.677789
0.999995
1
1
1
0.62383
1
1
1
1
1.46957
1
1.35445
0.678527
1
1
1
0.647323
1.47127
1
1
0.996788
1.46244
1
1.47232
1.47036
1
1
0.734828
0.652078
1
1
0.660517
1.14464
1.21235
1
1
1.47434
0.997376
1
0.997767
1.4711
1
1
1
1
1
1
1.47064
1
1.16264
1.14909
0.685938
1.41451
1
1.47047
1.47185
1
1
1
0.912379
0.667683
1
1.22171
0.999701
1.40785
1
1
1
0.999999
1
1.00597
1.2095
1.4729
1.47264
1
1.47154
1
0.600118
1
0.997256
0.999795
1
0.648604
1
0.657505
1.00002
1.47632
1.472
0.666849
1.47699
0.649485
0.996228
1.36638
0.652585
1.33204
1
1
0.998424
1
1
1
1.00007
1
0.672217
1
1
1
1
0.999585
1.47245
0.813681
1
1
1
1.03764
1
1
1
1.26438
0.76244
1
1
1
1.0547
1.47134
1
0.688475
1
1.47355
0.908772
0.628944
1
0.659856
1
1
1.44492
0.998234
1.45012
1
1.00887
1
1
1.4716
1
1
1
1
1.0931
1
1.47129
1.47324
1.47387
0.675823
1.47175
0.997139
1.38202
1
1
0.64988
1
1
0.670859
1.47144
1
1
0.999932
1
1
1
0.633371
0.656145
1
1.4716
1
1.2083
1.47146
0.657405
1.3876
1
1
0.67472
1
1
1.4714
1.47209
1.16968
1
1
1.00151
1.47249
0.669611
0.66899
1.47119
1.47109
1.31845
1.18445
1
0.897491
1
1
1
1.44305
1.47812
1.47306
1
1
1.46855
0.661543
1.42763
0.632315
1
0.669812
1
0.66337
1.47163
0.646518
1
0.974819
0.688699
1
1
1
0.849751
1.43062
1.47174
1.4712
1.46902
1
1
1.47061
1
1
1.47292
1
0.618822
1
0.679
1
1.46986
1
1
1.02314
1.35793
1
0.998909
0.644245
1.47231
1.00001
0.69282
1.08783
1
1
1.35573
1.47087
1.47162
1
1.46929
1.11685
1
1.02466
1.47103
1
1
1
1
1.47137
1
0.672818
1.47274
0.651976
0.683573
0.819944
1.46937
1.16141
1.46938
1
1.47047
0.997545
1.00003
1.47222
1.47305
1
1.46864
1
1.47127
1
1.47117
1
1.00004
0.99998
1.47489
0.658295
0.669294
0.997865
0.999999
1
1
0.666909
1
1.30883
1
0.645537
1
1.18633
1.47229
1.47469
1
1
1.00003
0.999437
1
1.47026
1.47092
1
1.19437
1.47428
0.848955
1.47111
0.999895
0.664554
1.09855
0.634561
1
1
1.07798
1.47088
1
1
1.03512
0.998526
1
0.686925
1
0.796416
1
1.47103
1
1
0.638171
1.09963
1.06175
0.99851
1.47125
1.4718
0.778374
0.998113
0.656242
0.619413
0.66645
1
1
1
0.99911
0.73837
0.643488
1
1.47108
0.999746
1.47216
1.47276
1.47146
1.47225
1
0.658979
1.47073
0.668243
1
1.47106
1.47387
0.996844
0.804817
1.47032
1.34974
1
0.656995
1
1
1.469
1
1.02652
1.4692
1
0.679291
0.666055
1
1
0.653136
0.640435
1.4712
1.00004
1
0.662956
0.642051
1.47032
1.45408
1.44038
1.47093
1.12749
0.97868
1.18299
1.47079
1.37229
1
1.24204
1
0.64407
0.862081
1
0.661497
1.47107
1.02133
1.47327
1
1.4721
1.4731
1
1.47177
1.47159
0.662153
1.47508
1
1.48655
1
0.760368
0.669989
1.47331
1
1
1
0.661464
1.47136
1.47296
1
0.662293
1
1
0.673102
1.00004
0.637978
1.47065
1
0.811555
0.642696
1
1
1.27296
1
1
1
1.0793
0.6648
1
1.00001
1
1.4731
0.650572
1
1.47204
0.695759
0.644973
1
1
1.47232
1
1.47449
1.00001
1.47181
0.659564
1
1
0.656041
0.801181
0.673885
1
1
1
1
1.47889
0.659371
1
0.651622
1
1.47878
1
1
0.921927
1
1
0.824557
0.999673
1.00005
1
0.651947
0.671407
1
1
1
1
0.790985
1.47016
1.47153
1
0.645661
0.642023
0.908947
0.669374
1
0.82553
1
0.680816
0.989838
1
1
0.658063
1
1.47316
1.45291
0.663999
1
1
1
1.46137
1
1.03942
0.841025
1.14665
0.663537
1.17918
0.658696
1
1
0.719808
0.902764
1
1.03847
1
1
0.626667
1
0.928503
1.0427
0.651907
1
1.37482
0.747265
0.891608
1
1
1
0.653347
1
0.659768
0.66143
1
0.852245
0.657312
1.07034
0.757105
0.666706
1.47187
1
1.47157
1.25139
0.732722
1.47206
0.668475
0.999033
1.47075
0.999999
1
1.47071
1
0.718941
1
1.07618
1
1
1.47198
1
0.769581
0.816741
1.47086
0.924814
1
0.752709
1.47224
1.47
0.907565
1
1.4721
1.11721
0.850155
1
1.0159
1
0.65769
1.20017
0.781475
0.737493
1
1
0.660104
1.47137
0.957721
0.652076
0.649967
0.856056
1
1.02222
1.47301
1.47058
1
1
0.999999
0.66407
1.21493
0.999985
1.46959
1.44271
0.667069
1
1.09926
0.883416
1.2685
1.40876
1
1.04246
1
1.00005
0.652947
0.846192
1
1
0.807775
0.655948
1.04075
1
1.00001
0.682195
1.21041
1
1.4623
1
1.03264
1.24985
1
1.46404
1
1
1.47375
1
0.643326
1.47307
0.697161
1.1247
1
0.65777
0.99991
1
1.00003
1
0.778537
1.02764
0.658193
1.33293
1.47125
0.632774
1
1
1
1
1
0.96135
0.635358
1.05173
0.653941
0.648872
1.06488
1
0.999813
1.11996
1
1
0.672243
0.988613
1
1
1.12494
1
1.47023
1
1.47212
1.08923
1.02226
0.66422
1
1
0.692296
1
1
1
1
1.46914
1.04329
0.998122
1
0.647864
1.05335
0.999999
1
1.30861
1
0.660153
1.47229
1
1.00001
1
1.47132
0.668906
0.883823
0.646448
1.35143
1.47291
1
1
1.47051
1
0.639379
1
1
1
1
1
0.763317
1
1.47399
1
1
1.16199
1.47038
0.670192
0.87458
1
1.47215
1
1
1
1
1
1.47083
1.47126
0.641435
1.4714
0.641637
1
1
1.47121
1
1.47096
0.998109
1.02773
1.05845
1.47282
1.07228
1.31838
0.642226
1
0.64787
0.985715
1
1.47201
1
1
0.642792
1.47183
1
1.47061
1
1
1
1
1
1.00001
0.664917
1.47276
0.842814
1.47155
1
0.662064
0.660104
0.724389
1.47935
1.46987
0.965818
1
0.784207
1
1.18553
1
1.47189
0.641019
0.660636
0.853297
1
1.47096
1
1.06547
0.67687
1
1.47066
1.40753
0.99888
1
1.47179
0.666477
1.47413
1.47271
1.47451
0.645467
1.09537
1
1
0.64383
1
0.810891
0.831361
1
1.00002
1.47146
1
1.47746
1.08809
1
1.03141
1.47797
1
0.676471
1
0.769269
1
1
1.38663
1
0.800734
1
0.656121
1.03776
0.952719
0.644
1.47157
1.37887
1.47249
0.653923
0.690523
0.996286
0.999999
1
0.694871
1.44429
0.665972
0.999968
1
1.47129
1.47037
0.897615
1
0.670905
0.73023
1.31325
0.972514
0.647989
0.999999
0.646967
1.11468
0.661816
1
1.00006
0.80609
1.47053
1.47213
0.835705
0.999602
1
1
0.729624
1
0.662245
1
0.64452
0.661654
1
1
1.00004
0.661822
1.4711
1
1
1.00007
1.00004
0.638847
1.47329
1.47175
0.999999
0.658092
1.47236
1
1.09701
1
1
1.47202
0.648336
1
1
0.650683
0.734013
0.662118
0.681906
1
0.709951
0.997181
1.08458
0.641531
1
1
1.13092
1
1.41739
1
1
1.32273
0.704435
1
0.651848
1.11933
1.47015
1
1
0.657927
0.675408
0.642256
0.728554
0.687254
1.34868
0.999388
1
1
1
1
1.4711
0.694311
1
0.931808
0.999678
0.998837
0.999931
0.748919
1.12502
1
1.4716
1.47099
1
1
1.44817
1.00005
0.999999
1.47038
0.655022
1.47199
0.999999
0.649863
1.47159
1.00005
1
0.816495
1
0.647457
1
1.4732
1
1
1.47426
1
1
1.4687
1
1
1
1.47016
1
0.760493
0.723189
1
0.636833
1.46968
1
1
0.968335
1
1.47601
1.26928
1.37512
1
1
0.666912
1
0.644109
1.47361
1.46998
1.47388
1
1.47227
0.662428
1
0.649867
1.37394
1.42688
1.47608
1.47147
0.765049
0.646938
1
1.29904
1.47093
1.47167
1.47209
0.741259
1.17152
1
1.35179
0.759241
1
1.00002
1
1.00002
0.88092
1
1.47058
1
1
1
1
1
1
1.00006
1.47043
1
1.47684
1.34631
0.671029
1.47128
1.0316
1.22885
1
1.4716
1
0.651692
1
1
1
1
1.40074
1
0.653947
1.47303
0.633302
1.47041
1.37164
1.24068
1
1.0877
1.21297
0.995554
0.640141
0.768612
1.00002
0.999999
0.905277
1
0.670909
1.47095
0.664619
0.928857
0.85764
1
1
1
1.01491
1
1
0.658677
0.996838
1.47274
1
1.47125
1
0.660605
1
1
1.47068
1.47202
0.65566
1
1.47039
1
0.816667
0.669835
1.47205
1.42191
1
1.07909
1.47207
0.998671
1
1.18715
1.41249
1.47203
0.995206
1
0.999998
1.3976
1
1
1
1.47122
0.998494
1
1
1.47084
1
1
0.665277
1
1
1
1.47186
1
1
0.83921
1.14257
1.42624
0.769224
1
1.47086
1
1.16263
1
1.4698
0.997267
1.47095
1
0.667002
1
1.33603
1
1
1.43928
1.00001
1.47199
1
1.47033
0.706867
0.651031
1.47182
1
1.40279
1
1.47202
1
1
1.00005
1.47335
1.47218
1.11027
1.47169
0.995895
0.629181
1.47091
0.85544
1
1.47074
1
1.4712
1
1.47396
1.47121
0.996247
0.655094
1
1.4717
1
1.04065
1
1
0.997982
0.75216
1.4209
1
1.43191
1
0.866395
0.635094
1.4726
1.47436
0.676374
1
1.47335
1.47298
1.47226
0.687796
1.47192
0.672908
1.47236
1.4675
1
1
1.47127
1
1
1
1
0.66038
1
1
1.47314
1.47166
1
1.47156
1
1.47368
1.47225
1
1.38857
1
0.641795
1.47162
1.3493
1.12675
0.638351
1.47215
1
1
0.647984
1
1
1.47117
1
1
0.794813
1
1.47147
1.00009
1.47038
0.637714
1.47419
1
1.47164
1.45248
0.881871
1
1.47431
0.767222
1.47855
1.32863
1.47097
1.46975
0.997106
1.46982
1.47081
1.47118
1.47098
1.00079
1
0.628738
1
1.47208
0.825204
1.42862
1
1.46274
1
1
1
1
1
1.46975
0.642727
0.645348
1.47025
1.47189
1
1
1
1
1
1.46779
1.42992
1.47107
1.02154
1
1
1
1.00004
1.46997
1.47142
1
1.47426
1.47106
0.653789
1.32406
1
1.4717
1.47395
1.46831
0.997812
1.47256
1.47324
1
1.42457
1
1
1
1
1
1
1.47207
1.47144
1.4377
1.47118
0.648698
0.702633
1.47132
1.47093
1
0.642685
0.948269
1
1.21622
0.635765
1
0.999449
0.998277
0.658876
1
1.47067
1
1
1
1.47056
0.926118
1
1.4712
1.47148
1
1.4717
1
1
1.47226
1
0.65944
1
1.47041
1
1
0.644804
1
1.47151
1
0.644799
0.651063
1
1.47275
1
0.625916
0.899288
1
1.47145
1
1
1
1.47144
1
0.671565
1.06341
1.47141
1.47313
1.47132
1.04549
1.47353
1.47208
1
1.00002
1
1
1.00001
1.47142
1
0.99929
1.47199
1
0.640279
1
1.47096
1.21016
1.05645
1.2163
1.05965
1.46665
0.699597
1.47167
1
0.663072
0.997123
1.47166
0.945039
1.47157
1.47179
1.46652
1
1.4711
1.47135
1.47165
1
1.00004
1
1
1.4719
1.33247
1
1
0.646722
0.996411
1
1.47225
1
1.47137
1.47211
1.47171
0.912282
1.47262
1.47074
1.00136
1.22954
1.47066
1.4715
1
1.43357
0.817749
1.46312
0.991564
1.47058
1
1.47176
1.47082
1
0.662213
0.926213
0.686821
1
1.0853
0.996992
1.46831
1
1
0.997003
1
1.22837
1.43826
1
1
1.47269
1
1
1.33316
1.47349
1.45116
1.47377
1.47291
1
1.4715
0.725116
1.47023
1
0.995907
0.661522
1
1
0.741446
1
1.14569
1
1.47241
1
1.46253
1.29414
0.664948
1
1
1
1
1
1.47137
1.01117
1
1.47268
1