/*--------------------------------*- C++ -*----------------------------------*\
  =========                 |
  \\      /  F ield         | OpenFOAM: The Open Source CFD Toolbox
   \\    /   O peration     | Website:  https://openfoam.org
    \\  /    A nd           | Version:  12
     \\/     M anipulation  |
\*---------------------------------------------------------------------------*/
FoamFile
{
    format      ascii;
    class       volVectorField;
    location    "5.275";
    object      U;
}
// * * * * * * * * * * * * * * * * * * * * * * * * * * * * * * * * * * * * * //

dimensions      [0 1 -1 0 0 0 0];

internalField   nonuniform List<vector> 
46253
(
(0.931289 -0.00284919 0)
(0.894026 0.00300139 0)
(0.778104 0.00107249 0)
(0.893929 0.00411275 0)
(0.781139 0.00202291 0)
(0.78433 0.000749381 0)
(1.09366 0.0297274 0)
(0.995667 -0.0405069 0)
(0.894979 0.00562796 0)
(0.894699 0.006446 0)
(0.93033 -0.00280122 0)
(1.12745 -0.065354 0)
(0.903646 0.000493058 0)
(0.902806 0.000460085 0)
(0.923898 0.0140639 0)
(0.895227 0.00614666 0)
(0.895901 0.00673713 0)
(0.899095 0.00166865 0)
(0.898376 0.0016121 0)
(0.897054 0.00426525 0)
(0.897877 0.00460562 0)
(0.787055 0.00332781 0)
(0.8474 -0.00368318 0)
(0.93815 -0.00309471 0)
(1.03515 -0.0112522 0)
(0.894368 0.00552474 0)
(0.896768 0.00542555 0)
(0.897206 0.00588029 0)
(0.894976 0.00454507 0)
(0.985726 -0.0496885 0)
(0.933475 0.0417945 0)
(0.908886 0.000753864 0)
(0.909379 0.00064387 0)
(0.897565 0.00294264 0)
(0.898397 0.00314426 0)
(0.867252 0.00221672 0)
(0.900391 0.000724778 0)
(0.901108 0.000859225 0)
(1.18138 9.32556e-05 0)
(0.847729 -0.0102164 0)
(0.924882 0.00427923 0)
(1.14144 -0.0669331 0)
(0.906703 0.000504718 0)
(0.907002 0.000432377 0)
(1.184 -0.101058 0)
(0.899165 0.000919428 0)
(0.899525 0.000977117 0)
(0.843943 0.00126589 0)
(0.912481 0.000250749 0)
(0.912738 0.000357552 0)
(0.914477 0.000751621 0)
(0.915321 0.000554988 0)
(0.796668 0.001903 0)
(0.947876 0.00452878 0)
(0.767023 0.0110093 0)
(1.07999 -0.0391478 0)
(0.918756 0.000322109 0)
(0.91904 0.000445701 0)
(0.863 0.0627397 0)
(0.947899 -0.0232741 0)
(0.859822 0.00525262 0)
(1.06628 -0.0180747 0)
(0.871895 -0.000641799 0)
(0.851298 0.00500526 0)
(0.923077 -0.00361171 0)
(0.904906 0.00042546 0)
(0.905324 0.000471865 0)
(0.793413 0.000588138 0)
(1.08076 -0.0360112 0)
(1.16054 -0.095354 0)
(0.952439 0.00128663 0)
(0.920521 0.000705732 0)
(0.921398 0.000687711 0)
(0.986835 -0.0151003 0)
(0.79947 0.00200959 0)
(0.952989 -0.000321225 0)
(0.932267 0.000274854 0)
(0.932632 5.12965e-05 0)
(0.869848 -0.00623669 0)
(0.910836 0.000247992 0)
(0.9113 0.000342407 0)
(0.925014 0.000664512 0)
(0.79485 0.00219863 0)
(0.925232 0.000660019 0)
(1.02164 0.00739761 0)
(0.8035 0.00159153 0)
(0.946949 0.00058678 0)
(0.947615 0.000399489 0)
(1.12476 0.0174889 0)
(0.864438 -0.00136299 0)
(0.839013 -0.00193124 0)
(0.992118 -0.00146365 0)
(0.805155 0.00112433 0)
(0.916975 0.000238235 0)
(0.849659 -0.00247543 0)
(0.917529 0.000425244 0)
(0.805187 0.00142058 0)
(0.919893 -0.000178378 0)
(0.86518 0.0616825 0)
(0.865806 0.00452099 0)
(0.84791 -0.000392073 0)
(0.806887 0.000955394 0)
(0.80429 0.000462862 0)
(0.935958 0.0411804 0)
(0.769902 0.00643595 0)
(1.02656 0.019288 0)
(1.13765 -0.0667429 0)
(0.962819 0.000293018 0)
(0.963244 -2.74405e-06 0)
(1.11087 -0.0562573 0)
(1.20909 -0.0263521 0)
(0.923124 0.00054953 0)
(0.923753 0.000610343 0)
(0.916632 0.0145858 0)
(0.873693 0.00781536 0)
(1.0704 0.0198869 0)
(1.10928 -0.0848857 0)
(0.880993 -0.0521526 0)
(0.764169 0.0622117 0)
(1.06274 -0.03263 0)
(0.841852 0.00543033 0)
(0.786553 0.00157347 0)
(0.926658 0.000567455 0)
(0.927132 0.000603058 0)
(0.811865 0.000398737 0)
(0.75623 0.0564019 0)
(0.859471 0.00449958 0)
(1.08309 -0.0475028 0)
(0.753008 0.0102359 0)
(0.935595 0.000380586 0)
(0.974126 -0.000513471 0)
(0.975116 -0.000440046 0)
(0.78532 0.00278941 0)
(1.07609 -0.00964763 0)
(0.936899 0.00012363 0)
(0.935717 -0.00617913 0)
(0.940398 -6.67903e-05 0)
(0.940437 -7.93808e-05 0)
(1.06527 -0.0336321 0)
(0.918135 -0.00310888 0)
(0.930935 0.00029904 0)
(0.981522 -0.000593366 0)
(0.982164 -0.000668941 0)
(0.941779 0.0386446 0)
(0.930492 0.000485237 0)
(0.759864 0.00856187 0)
(0.944292 0.000180271 0)
(0.945313 0.000358958 0)
(1.17819 -0.0110696 0)
(0.862014 -0.00225173 0)
(1.11223 -0.0602435 0)
(0.799474 0.000483201 0)
(0.938565 0.000405182 0)
(0.939304 0.000410814 0)
(0.964172 0.029415 0)
(1.12391 -0.0794411 0)
(1.08136 -0.0477024 0)
(0.831169 0.000649988 0)
(0.951319 0.00031875 0)
(0.769864 0.00828784 0)
(0.952025 0.000355623 0)
(1.12173 -0.0663194 0)
(1.07703 -0.038127 0)
(0.920891 0.0154465 0)
(1.07999 0.00222647 0)
(0.941497 0.000200761 0)
(1.07362 0.00442504 0)
(0.942006 0.000286515 0)
(0.696267 0.0402501 0)
(0.862756 0.00474601 0)
(0.955798 0.000131517 0)
(0.956208 4.84512e-05 0)
(0.790162 0.00262403 0)
(0.914461 -0.0164458 0)
(0.77365 0.00417616 0)
(0.796031 -0.0653122 0)
(1.19623 0.0391629 0)
(0.802098 0.00218678 0)
(1.13381 -0.0221373 0)
(1.11009 -0.0869079 0)
(0.774738 0.00230736 0)
(0.966429 0.0281155 0)
(0.960504 0.000389542 0)
(0.961266 0.000309793 0)
(0.84422 0.00111291 0)
(0.948935 0.000372836 0)
(0.949811 0.000569782 0)
(1.20233 -0.0976037 0)
(0.844987 0.000893653 0)
(0.845251 0.000972785 0)
(0.799019 0.00169335 0)
(0.851214 0.000266745 0)
(1.02413 -0.0330873 0)
(0.851115 0.000205078 0)
(0.840455 0.000387357 0)
(0.840469 0.000350004 0)
(1.20901 -0.00817193 0)
(0.812071 0.000734216 0)
(1.02008 -0.00176741 0)
(1.01913 -0.00167838 0)
(0.898981 -0.0027063 0)
(0.852707 0.00371633 0)
(0.953813 0.000570427 0)
(0.954295 0.000438617 0)
(0.858931 -0.00266355 0)
(1.10054 -0.0813959 0)
(0.969003 0.0276678 0)
(0.967787 -4.6031e-05 0)
(0.968436 -2.14377e-05 0)
(0.860982 0.00524377 0)
(0.871488 -0.00696137 0)
(0.763133 0.0680503 0)
(0.907396 0.000634533 0)
(0.8035 0.00130908 0)
(1.20096 0.0659447 0)
(0.811133 0.000802184 0)
(0.94377 0.0380698 0)
(1.0132 0.000959806 0)
(0.971999 -0.000491577 0)
(0.791454 0.00130199 0)
(0.794785 0.00117948 0)
(0.972632 -0.000720885 0)
(0.79577 -0.0672293 0)
(0.957874 0.000326616 0)
(0.958678 0.000515604 0)
(1.00986 -0.0111567 0)
(0.806636 0.00128867 0)
(0.805596 0.00159455 0)
(1.03017 -0.00220655 0)
(1.03362 -0.00189383 0)
(0.895297 0.0553379 0)
(0.842713 0.0140314 0)
(0.871448 0.00189231 0)
(0.863669 0.00149509 0)
(0.812248 0.000445565 0)
(0.844846 -0.00437477 0)
(0.842379 0.000110344 0)
(0.855581 -0.00862445 0)
(0.897856 0.0541495 0)
(0.88551 0.0574997 0)
(0.810384 0.00100758 0)
(0.806753 0.00128988 0)
(0.811939 0.000764793 0)
(0.841984 0.000180396 0)
(0.928206 0.0101951 0)
(0.801382 0.00146969 0)
(0.831061 0.000438172 0)
(0.969151 0.0271622 0)
(0.813632 0.000680584 0)
(0.979343 -0.000119299 0)
(0.980093 -0.000311026 0)
(0.887078 0.0570393 0)
(1.04822 0.000188059 0)
(0.812041 0.000742795 0)
(1.05164 0.000492146 0)
(0.964849 -0.000220935 0)
(0.965993 0.000100492 0)
(1.06675 -0.0278038 0)
(0.878471 0.00514116 0)
(0.816473 0.000294149 0)
(1.02336 -0.000282839 0)
(1.06661 -0.018278 0)
(1.10986 -0.058167 0)
(0.940549 0.0394762 0)
(1.06989 -0.0150837 0)
(0.830125 0.000316707 0)
(0.897391 0.00998789 0)
(0.855385 0.00881178 0)
(0.970418 0.000216816 0)
(0.9872 -0.000535085 0)
(0.970684 8.20499e-05 0)
(0.807955 0.00127444 0)
(0.888346 0.00859279 0)
(0.615044 0.00372638 0)
(0.987738 -0.00045854 0)
(0.809702 0.00110202 0)
(0.76177 0.0119495 0)
(0.862219 0.00677516 0)
(0.890359 0.00100868 0)
(1.04722 -0.0191853 0)
(1.06489 0.00109569 0)
(1.06787 0.00100554 0)
(0.802797 0.000705012 0)
(0.80486 0.000606746 0)
(0.855359 -0.00537652 0)
(1.02324 -0.0263785 0)
(1.04075 -0.0172397 0)
(1.06631 -0.0327633 0)
(0.950215 0.0349554 0)
(0.854206 0.0015497 0)
(0.869571 0.0614475 0)
(0.870378 0.0607996 0)
(1.03966 -0.00967773 0)
(0.824035 0.00189527 0)
(0.874003 0.0607251 0)
(0.91461 0.0493107 0)
(0.804276 0.00180612 0)
(0.916367 0.0490684 0)
(0.94011 -0.0162848 0)
(0.99077 -0.00048709 0)
(0.771658 0.0702381 0)
(0.991353 -0.000847131 0)
(1.08712 -0.044192 0)
(0.769764 0.052144 0)
(0.845082 -9.99069e-05 0)
(0.976938 -0.00020539 0)
(0.977987 0.000138757 0)
(0.862361 0.0051201 0)
(0.940385 0.04107 0)
(0.845052 0.000911762 0)
(0.845178 0.00104711 0)
(1.08603 -0.0108412 0)
(0.871065 -0.0177209 0)
(0.996774 -0.00057257 0)
(0.810777 0.000599427 0)
(0.997537 -0.000611283 0)
(1.07322 -0.0346501 0)
(0.874543 0.0600018 0)
(0.860819 -0.00172721 0)
(0.863662 0.00193419 0)
(1.08361 -0.0478679 0)
(0.812525 0.000605509 0)
(1.11804 0.0077094 0)
(1.03348 0.00452125 0)
(1.02318 0.012947 0)
(0.953472 0.0343098 0)
(0.810147 0.000553517 0)
(0.81537 0.000151294 0)
(1.00056 -0.000855265 0)
(1.00117 -0.00114262 0)
(0.912561 0.000326229 0)
(0.907592 -0.00130273 0)
(0.844729 -2.87382e-06 0)
(0.948006 0.00589182 0)
(0.811907 0.000425701 0)
(0.97751 -0.0282228 0)
(1.07223 -0.0299194 0)
(0.984038 -0.000948986 0)
(0.985341 -0.000440761 0)
(0.831191 0.000364958 0)
(0.797874 0.00096835 0)
(0.800423 0.000825653 0)
(0.867709 0.00873191 0)
(0.76139 0.0397627 0)
(0.800729 0.00104681 0)
(1.00631 -0.000611191 0)
(1.00719 -0.000822221 0)
(0.853403 -0.0173301 0)
(1.07689 -0.0345582 0)
(0.802444 0.00229123 0)
(1.16178 -0.0349646 0)
(0.86379 0.00130087 0)
(1.0998 -0.0836538 0)
(0.917031 0.0260939 0)
(1.09484 -0.067707 0)
(0.831562 -0.00469215 0)
(0.989354 -0.00016331 0)
(0.86497 0.00287469 0)
(0.989327 -0.000143885 0)
(0.868009 -0.00169619 0)
(1.08969 -0.0653476 0)
(0.846147 -6.91278e-05 0)
(0.809266 0.00293621 0)
(0.845883 -3.97061e-05 0)
(0.845414 0.000944693 0)
(0.809075 0.00274393 0)
(0.808859 0.00275213 0)
(0.809081 0.00273604 0)
(1.01097 -0.000857292 0)
(0.812219 0.000813886 0)
(0.83443 -0.00409392 0)
(0.833787 -0.00420204 0)
(0.834026 -0.00415627 0)
(1.01042 -0.000807546 0)
(0.809116 0.00258892 0)
(0.879559 0.0594144 0)
(1.06545 -0.0336974 0)
(0.809331 0.00099179 0)
(0.811141 -0.000549016 0)
(0.855211 0.00407613 0)
(1.00367 0.00366283 0)
(0.917816 -0.0226481 0)
(1.08009 -0.0460949 0)
(0.993242 -0.000927584 0)
(0.912574 -0.0278195 0)
(0.994413 -0.000585535 0)
(0.800045 0.00125997 0)
(0.851736 0.00912468 0)
(1.01401 -0.000744752 0)
(0.739454 0.0590224 0)
(0.844065 0.000872357 0)
(0.947911 0.0363432 0)
(1.01581 -0.00147559 0)
(0.969348 -0.0199433 0)
(0.79265 6.77192e-05 0)
(1.05218 -0.0252173 0)
(0.97726 0.0228169 0)
(0.974463 0.0260241 0)
(0.813786 0.000643133 0)
(1.00568 -0.00409483 0)
(0.842173 0.00221876 0)
(0.924566 -0.000199298 0)
(0.92297 -0.000460209 0)
(0.88159 0.0579489 0)
(0.811026 0.000446507 0)
(0.835394 0.0303789 0)
(0.840861 7.9949e-05 0)
(0.858666 -0.00141562 0)
(0.844603 0.00859089 0)
(0.808904 0.00100118 0)
(0.816507 0.000211972 0)
(0.844845 0.000920794 0)
(0.786365 0.0654791 0)
(0.844321 0.00103741 0)
(1.02246 -0.0114052 0)
(0.837266 0.0264563 0)
(1.04993 -0.0233732 0)
(0.813209 0.000826702 0)
(0.814293 0.000657169 0)
(1.05961 -0.0261117 0)
(0.836732 0.0267401 0)
(0.8228 -0.00158887 0)
(1.02365 -0.00123138 0)
(0.865112 0.000245646 0)
(0.999417 -0.000337978 0)
(0.865034 0.000311403 0)
(0.863474 0.00771388 0)
(1.02294 -0.00102379 0)
(0.999519 -0.000344081 0)
(0.847775 8.28839e-05 0)
(1.12963 0.0198852 0)
(0.864576 0.00592019 0)
(0.842194 -0.00168737 0)
(0.839835 0.000288718 0)
(0.839612 0.000308937 0)
(1.03286 -0.0115134 0)
(0.98279 0.0356808 0)
(0.845424 0.00115567 0)
(0.840878 0.000138697 0)
(0.969668 0.0036705 0)
(1.08199 -0.0458199 0)
(0.831476 0.0262499 0)
(1.02469 -0.0156616 0)
(0.84745 6.23734e-05 0)
(1.03348 -0.0112486 0)
(0.960034 0.030664 0)
(0.851012 0.000378169 0)
(0.812129 0.000849182 0)
(1.07578 -0.0322073 0)
(0.829848 0.000618971 0)
(1.04706 -0.018212 0)
(1.00463 -0.00410731 0)
(0.927067 -0.0222406 0)
(1.05548 -0.038113 0)
(0.69434 0.0305225 0)
(0.840046 0.0320666 0)
(1.17534 -0.0104772 0)
(0.838772 0.0302664 0)
(1.00286 -0.00123513 0)
(1.02612 -0.0104979 0)
(0.807671 0.000916386 0)
(1.03134 -0.0113076 0)
(1.03077 -0.0109453 0)
(1.00373 -0.000838891 0)
(0.818858 -0.00189539 0)
(1.03198 -0.0113771 0)
(0.803182 0.00184107 0)
(0.843972 0.00284731 0)
(0.837264 0.0272905 0)
(0.832379 -0.00394245 0)
(0.84361 0.00278561 0)
(1.06161 -0.0198628 0)
(0.913822 -0.0104997 0)
(1.16829 -0.0341916 0)
(1.07888 -0.0453334 0)
(1.03075 -0.000575357 0)
(1.05632 -0.0243351 0)
(0.970237 0.0262101 0)
(1.03245 -0.000383525 0)
(1.06496 -0.01008 0)
(0.932637 0.000128073 0)
(0.936905 0.00170049 0)
(0.866197 0.00913302 0)
(0.807103 0.00130563 0)
(0.807771 0.00115047 0)
(0.86614 0.00370594 0)
(0.748872 0.00759137 0)
(0.831661 0.00128958 0)
(1.04351 -0.0174377 0)
(1.01439 -0.000233768 0)
(1.13882 -0.0824728 0)
(1.04359 -0.0173154 0)
(1.03012 -0.011255 0)
(0.897454 -0.0188419 0)
(1.03263 -0.0113511 0)
(0.710147 -0.00078943 0)
(0.829127 -0.00446342 0)
(1.0093 -2.32032e-05 0)
(1.01161 -0.0101627 0)
(1.1242 -0.0596561 0)
(1.01029 4.9993e-05 0)
(1.03003 -0.0015563 0)
(1.02929 -0.00210219 0)
(0.924304 -0.00706046 0)
(0.88641 -0.00485515 0)
(0.809146 0.00281138 0)
(0.930798 -0.00377682 0)
(0.938021 0.0400105 0)
(0.857125 -0.00179993 0)
(0.843806 -0.00728201 0)
(0.80692 0.00103412 0)
(1.0147 -0.0175334 0)
(0.834335 0.0248875 0)
(0.884136 -0.0163212 0)
(1.05714 -0.0378992 0)
(0.858924 1.25288e-05 0)
(0.844748 0.000831982 0)
(1.03127 -0.0109044 0)
(0.813057 0.00058376 0)
(0.925528 0.0159966 0)
(1.0007 -0.0361888 0)
(0.70773 -0.0458303 0)
(1.01466 -0.00864079 0)
(0.815913 0.000487507 0)
(0.81639 0.000466289 0)
(1.01349 -0.00686195 0)
(0.804645 0.00287046 0)
(1.02203 -0.00994066 0)
(1.01935 -0.00986411 0)
(1.02133 -0.00950813 0)
(0.872015 0.0189451 0)
(1.21553 0.0193873 0)
(1.21967 0.0209505 0)
(0.829702 0.000472523 0)
(1.02585 -0.0115586 0)
(1.00089 -0.0130449 0)
(0.798441 0.00121951 0)
(0.861737 0.000869133 0)
(1.01125 -0.00157978 0)
(0.829508 0.000288308 0)
(0.975222 0.00381096 0)
(1.05373 -0.0256511 0)
(0.812911 0.000489383 0)
(0.853523 8.15953e-05 0)
(1.01156 -0.00126483 0)
(0.858697 0.00176811 0)
(0.863633 -0.00609957 0)
(0.842613 0.0179544 0)
(0.84164 0.0178927 0)
(1.16099 -0.0855077 0)
(0.844483 0.0190717 0)
(0.843567 0.0190715 0)
(1.04371 -0.00188068 0)
(1.06133 -0.0239475 0)
(1.04285 -0.000987994 0)
(0.88699 0.0177012 0)
(0.854053 0.0211458 0)
(0.853038 0.0211922 0)
(0.85636 0.0218138 0)
(0.855303 0.0218391 0)
(0.813638 0.000759879 0)
(0.833934 0.0281845 0)
(0.855667 -0.000625728 0)
(1.03071 -0.011831 0)
(1.15878 -0.0764466 0)
(0.847227 0.0011974 0)
(0.842343 0.000670894 0)
(0.858145 -0.00215862 0)
(0.836472 0.0247687 0)
(0.847493 0.00168164 0)
(0.841475 0.000523877 0)
(1.00601 0.0194115 0)
(0.944991 0.0371278 0)
(0.917997 -0.0112377 0)
(0.955056 0.0334583 0)
(0.844307 0.0016421 0)
(0.854651 0.00178969 0)
(1.08886 -0.044436 0)
(0.830162 0.000222938 0)
(0.84546 0.00171171 0)
(0.846258 0.00324443 0)
(1.02059 -0.000183643 0)
(0.843186 0.00817761 0)
(0.841688 0.00162636 0)
(1.02234 9.43072e-06 0)
(0.956698 0.0328715 0)
(0.928309 0.0254368 0)
(0.809317 0.00259045 0)
(0.925952 0.025831 0)
(0.925441 0.0258484 0)
(0.923256 0.0261802 0)
(0.949129 0.0123761 0)
(0.842885 0.00161037 0)
(1.04143 -0.00117955 0)
(1.04224 -0.0023073 0)
(0.947893 0.037892 0)
(0.823349 0.00269935 0)
(0.84734 0.0034783 0)
(0.850633 0.000293606 0)
(0.982537 -0.0166035 0)
(0.801487 0.000940625 0)
(0.76667 0.0484787 0)
(1.16886 -0.0542779 0)
(0.83661 0.025872 0)
(0.767305 0.0549059 0)
(0.83417 0.031198 0)
(0.826851 -0.00228747 0)
(0.941591 0.0399163 0)
(0.937241 0.041659 0)
(0.828012 -0.00395095 0)
(0.80882 0.00249024 0)
(1.18242 0.00455431 0)
(1.02827 -0.00998876 0)
(0.813717 -0.000291036 0)
(0.793619 0.00113612 0)
(0.983572 0.0218365 0)
(0.862465 0.022822 0)
(0.861704 0.0227293 0)
(0.868012 0.0233404 0)
(0.867125 0.0234199 0)
(0.872253 0.0235797 0)
(0.870625 0.0235918 0)
(0.876709 0.0236277 0)
(0.875855 0.0237431 0)
(1.2095 -0.101935 0)
(1.03342 -0.0101332 0)
(0.881666 0.0237989 0)
(0.908618 -0.0176551 0)
(0.880907 0.0240045 0)
(0.88727 0.0236446 0)
(0.809818 0.000479325 0)
(0.95829 0.0109815 0)
(0.964541 0.00652913 0)
(0.88584 0.0237958 0)
(0.808986 0.00270516 0)
(0.890936 0.023388 0)
(0.804282 0.00119534 0)
(0.890324 0.023613 0)
(0.91111 0.0275386 0)
(1.03656 -0.0112493 0)
(0.897557 0.0232266 0)
(0.871381 0.00040483 0)
(0.896649 0.0233292 0)
(0.81717 0.0674887 0)
(0.816473 0.00612542 0)
(0.902218 0.0224202 0)
(0.839283 0.000329555 0)
(0.900631 0.022818 0)
(0.838967 0.000399445 0)
(1.12613 -0.0813375 0)
(0.871237 0.000465088 0)
(1.05857 -0.0216268 0)
(0.961663 0.00281957 0)
(0.846409 0.00110423 0)
(0.846019 0.00103386 0)
(0.907262 0.0219763 0)
(0.906498 0.022124 0)
(0.810539 0.00254956 0)
(1.02607 -0.00638719 0)
(0.912788 0.0213985 0)
(0.912029 0.0217153 0)
(0.981888 0.0200358 0)
(0.814777 0.000285544 0)
(0.815289 0.000355324 0)
(0.920613 0.02018 0)
(1.05133 -0.00270363 0)
(0.919834 0.0203972 0)
(0.811119 0.00526752 0)
(1.02101 -0.00235253 0)
(0.926644 0.0189095 0)
(1.09137 -0.0454997 0)
(0.925613 0.0192067 0)
(1.04942 -0.0021312 0)
(1.02452 -0.0012103 0)
(0.823144 -0.000590586 0)
(0.846173 0.00178135 0)
(0.846395 0.0018805 0)
(0.93117 0.0179368 0)
(0.930302 0.018222 0)
(0.797208 0.00276926 0)
(0.828892 -0.00304757 0)
(0.831951 -0.00384264 0)
(0.937312 0.0168959 0)
(1.04196 -0.0162342 0)
(0.936646 0.0171711 0)
(1.09129 -0.0480712 0)
(0.808448 0.0028196 0)
(0.945676 0.0150978 0)
(0.94493 0.015336 0)
(0.844645 0.00294804 0)
(0.842715 0.00238219 0)
(0.844237 0.00294195 0)
(1.06306 -0.00293054 0)
(0.842302 0.00229171 0)
(1.00051 -0.0126262 0)
(0.99378 -0.00124987 0)
(0.931801 0.0427323 0)
(0.810506 0.000778791 0)
(0.954213 0.0130448 0)
(0.855783 0.00169904 0)
(0.953036 0.0133083 0)
(0.856062 0.00192438 0)
(0.808099 0.00116029 0)
(1.0013 -0.0114682 0)
(1.0017 -0.0122714 0)
(0.95744 0.0111607 0)
(0.956972 0.0114582 0)
(1.03416 -0.0119058 0)
(1.01909 -0.0113112 0)
(0.965529 0.0103199 0)
(1.01997 -0.0103424 0)
(0.96478 0.0104635 0)
(0.807442 0.00117948 0)
(0.974871 0.0243497 0)
(0.973841 0.00762606 0)
(0.971349 0.0078926 0)
(0.843803 0.00113292 0)
(1.07017 -0.0301581 0)
(0.975274 0.00588371 0)
(0.976269 0.00606968 0)
(0.691704 0.0262175 0)
(0.868345 0.00251295 0)
(0.86833 0.00268552 0)
(0.844786 0.000855214 0)
(0.986489 0.00443058 0)
(1.03459 -0.0106089 0)
(0.984173 0.00476613 0)
(0.943406 -0.0155743 0)
(1.18843 -0.016074 0)
(1.02111 -0.0119556 0)
(1.12151 -0.0578986 0)
(0.984081 0.00223577 0)
(0.984812 0.00240361 0)
(0.99406 -0.00135327 0)
(0.998653 0.00114971 0)
(0.997151 0.0012936 0)
(1.07116 -0.0333456 0)
(1.08037 -0.0361365 0)
(0.849144 0.0204505 0)
(1.21021 -0.0084233 0)
(0.760518 0.0455759 0)
(1.05361 -0.000609433 0)
(0.856672 -0.00144528 0)
(1.10846 -0.0542052 0)
(1.05611 -0.00268624 0)
(1.09209 -0.0445871 0)
(1.0864 -0.0234928 0)
(0.956859 -0.00192592 0)
(0.859811 0.0222789 0)
(0.848495 0.0204721 0)
(0.858111 0.0223443 0)
(1.03479 0.000314987 0)
(0.855672 0.0017307 0)
(0.846878 0.0196467 0)
(0.856176 0.00188019 0)
(0.82977 -0.00121401 0)
(0.845593 0.0196593 0)
(1.03304 -6.42907e-05 0)
(0.83278 -0.000763434 0)
(0.850121 0.0207702 0)
(0.8516 0.0206441 0)
(1.0538 -0.0253747 0)
(1.07043 -0.0339257 0)
(0.806111 0.00294068 0)
(0.980221 0.0222996 0)
(1.17435 -0.0987676 0)
(0.956594 0.0013509 0)
(0.828843 0.000186993 0)
(0.867223 -0.00262412 0)
(0.804358 0.00039796 0)
(0.83321 0.0275299 0)
(0.851691 0.0187171 0)
(0.896071 -0.0179799 0)
(0.85463 0.00182234 0)
(1.03314 -0.0110175 0)
(0.835147 0.0255425 0)
(0.932181 0.0225187 0)
(0.884956 -0.0362339 0)
(0.931544 0.0222512 0)
(1.08781 -0.0424878 0)
(0.844488 0.000853534 0)
(0.993725 -0.0350934 0)
(0.93338 -0.0257587 0)
(0.923943 0.0254741 0)
(0.835158 0.02762 0)
(0.83251 0.00317373 0)
(0.810032 0.00269586 0)
(0.843732 0.00916195 0)
(0.855099 1.70244e-06 0)
(0.93093 0.0218566 0)
(0.9307 0.0227063 0)
(0.888791 -0.0248179 0)
(0.934413 -0.00406195 0)
(0.930921 -0.00936711 0)
(0.83111 -0.00315348 0)
(1.05556 -0.0200394 0)
(0.810173 0.000792597 0)
(0.823038 -0.00320608 0)
(0.929904 0.0222648 0)
(1.00497 -0.00228597 0)
(0.835951 0.0302024 0)
(1.13618 0.00327904 0)
(0.836862 0.0312594 0)
(0.83563 0.0291797 0)
(0.976622 0.0239488 0)
(0.971319 0.0264359 0)
(0.804192 0.00288919 0)
(0.929018 0.0218692 0)
(1.09464 -0.0450353 0)
(1.03422 -0.0123692 0)
(0.833415 6.15105e-05 0)
(1.03323 -0.0113688 0)
(1.05705 -0.00270219 0)
(0.833781 9.69337e-05 0)
(0.835162 0.0285337 0)
(1.03115 -0.0112597 0)
(1.03176 -0.0126614 0)
(0.835693 0.0273052 0)
(1.05606 -0.00401298 0)
(0.779582 -0.0439746 0)
(0.830834 0.0265071 0)
(0.9162 0.0106766 0)
(0.915171 0.0209331 0)
(0.914192 0.0211407 0)
(1.03282 -0.00955795 0)
(0.852997 5.6249e-05 0)
(0.785321 -0.0302887 0)
(0.872001 -0.0405058 0)
(0.950356 0.0111535 0)
(0.853674 -0.0239966 0)
(0.84539 0.000961693 0)
(1.02302 -0.0110092 0)
(0.998597 -0.0315476 0)
(1.09183 -0.0459164 0)
(0.821984 0.0680035 0)
(0.816561 0.000390481 0)
(0.815986 0.000586066 0)
(0.834476 0.000223778 0)
(0.939141 0.0162758 0)
(0.938449 0.0164764 0)
(0.861509 0.0225309 0)
(0.832216 0.0314005 0)
(0.865124 -0.00146773 0)
(1.04038 0.000210346 0)
(0.947272 0.0142486 0)
(0.913391 -0.01754 0)
(0.831724 0.0318473 0)
(0.947008 0.0145205 0)
(1.04258 -2.76047e-05 0)
(1.03228 -0.0116798 0)
(1.03341 -0.0126313 0)
(0.855564 0.00645178 0)
(1.03287 -0.0120927 0)
(1.00475 -0.00401255 0)
(1.09499 -0.0527646 0)
(1.03328 -0.0112958 0)
(1.08409 -0.0493797 0)
(0.965852 0.00937943 0)
(0.845075 0.00113766 0)
(0.845492 0.00107207 0)
(0.966513 0.00950688 0)
(0.829981 0.000453704 0)
(0.843471 0.00103909 0)
(1.03585 -0.0116936 0)
(1.03354 -0.0101431 0)
(0.844524 0.000921498 0)
(1.07438 -0.000261152 0)
(1.05981 -0.0353053 0)
(1.02613 -0.00637153 0)
(1.06807 -0.0320943 0)
(1.07324 -0.0303788 0)
(1.07673 -9.96679e-05 0)
(1.06709 -0.0387987 0)
(1.06897 -0.0392401 0)
(1.1001 -0.0497156 0)
(1.10139 -0.0491218 0)
(0.886207 0.000176334 0)
(0.817899 0.0190904 0)
(0.6991 -0.0139396 0)
(0.817515 0.0190493 0)
(0.886911 5.95239e-05 0)
(1.02888 -0.0102921 0)
(1.05187 -0.0313762 0)
(1.08336 -0.0357157 0)
(0.814166 0.00559909 0)
(0.845141 0.000946192 0)
(1.00505 -0.00338322 0)
(0.812767 0.000725541 0)
(1.0224 -0.0107407 0)
(1.0019 -0.00526209 0)
(0.839051 0.0315151 0)
(0.839603 0.0325489 0)
(1.12191 -0.00932708 0)
(0.838202 0.0303999 0)
(0.826942 -0.00100005 0)
(0.837419 0.0294173 0)
(0.805602 0.00146966 0)
(1.03544 -0.0101878 0)
(1.01955 -0.0102231 0)
(0.691503 -0.0275401 0)
(0.874863 -0.0248061 0)
(0.832316 -0.00483248 0)
(1.03989 -0.00285567 0)
(0.866891 0.00262743 0)
(1.01308 -0.0053547 0)
(1.01906 -0.00574569 0)
(1.03908 -0.00232664 0)
(0.832853 0.0265331 0)
(1.01302 -0.00826636 0)
(1.03108 -0.00911411 0)
(1.00916 -0.00809531 0)
(0.79659 0.00115298 0)
(0.795809 0.00155308 0)
(0.79395 0.000952041 0)
(0.801916 0.0013114 0)
(1.02835 -0.00892261 0)
(1.02454 -0.0104775 0)
(0.837286 0.000331911 0)
(0.985282 0.0190812 0)
(0.836824 0.0276592 0)
(1.06861 -0.040092 0)
(0.837471 0.000172366 0)
(1.06717 -0.038841 0)
(0.936396 -0.00264325 0)
(1.13239 -0.0194867 0)
(0.813879 0.0055588 0)
(1.07064 -0.00326915 0)
(1.07077 -0.00352609 0)
(0.892145 -0.0227031 0)
(0.792493 0.0671995 0)
(0.860903 0.022573 0)
(1.08362 -0.0357355 0)
(1.17249 -0.0117729 0)
(1.16338 -0.0103868 0)
(1.07588 -0.0348704 0)
(0.854967 0.0215923 0)
(0.854579 0.0214127 0)
(1.03339 -0.0119571 0)
(0.953232 -0.0218849 0)
(0.815459 0.0058707 0)
(0.815137 0.00583004 0)
(1.01104 -0.01073 0)
(1.14038 -0.0849364 0)
(1.13499 0.0146429 0)
(1.02095 -0.0122673 0)
(0.856579 0.000670286 0)
(0.848285 0.0201685 0)
(0.813638 0.000328598 0)
(0.847575 0.0201175 0)
(0.854686 4.96932e-05 0)
(0.843233 0.0187064 0)
(0.740984 0.0502799 0)
(0.842816 0.018448 0)
(0.952043 0.00573778 0)
(1.07957 -0.035612 0)
(1.08827 -0.0444544 0)
(0.768948 -0.00955756 0)
(0.858333 -0.0223302 0)
(0.896905 -0.026413 0)
(0.924756 -0.0283705 0)
(1.05556 -0.025704 0)
(0.857287 -0.0031942 0)
(0.949999 0.000213943 0)
(0.719184 -0.0419883 0)
(0.898841 0.0228997 0)
(0.894801 0.0231456 0)
(0.889286 0.0238331 0)
(0.905205 0.0223052 0)
(0.898357 0.0230667 0)
(0.831641 0.000441451 0)
(1.11661 0.0170456 0)
(0.893057 0.0234714 0)
(0.883841 0.0235631 0)
(0.904259 0.0224753 0)
(1.03319 -0.0122056 0)
(0.888642 0.0239022 0)
(0.920756 0.020911 0)
(0.910282 0.0217154 0)
(0.882877 0.0237598 0)
(0.857766 0.000320576 0)
(0.879493 0.0238334 0)
(0.908919 0.022022 0)
(0.87815 0.0239392 0)
(0.84551 0.00309074 0)
(0.918237 0.0204651 0)
(0.86597 0.0592557 0)
(0.874738 0.0237692 0)
(0.873793 0.0238484 0)
(0.917066 0.0207286 0)
(0.869311 0.0233509 0)
(0.868729 0.0266226 0)
(0.923447 0.0195205 0)
(0.868604 0.0233672 0)
(0.845721 0.0010237 0)
(0.865585 0.0231401 0)
(0.922319 0.0198923 0)
(0.808628 0.00108471 0)
(0.928832 0.0185836 0)
(0.863817 0.0231918 0)
(0.942169 -0.00140442 0)
(0.833866 -0.00410572 0)
(0.890177 -0.00365967 0)
(0.928182 0.0187679 0)
(0.845045 0.0030637 0)
(0.840739 0.000481704 0)
(0.843376 0.00266635 0)
(0.934798 0.0172729 0)
(0.922948 0.026007 0)
(0.843167 0.00104507 0)
(0.843011 0.00253936 0)
(0.840145 0.000296813 0)
(0.933467 0.0177445 0)
(0.894135 4.09149e-06 0)
(0.882641 -0.0336549 0)
(0.942695 0.0155706 0)
(0.807253 0.00275619 0)
(1.02003 -0.000574044 0)
(0.941226 0.0160133 0)
(0.950119 0.0134941 0)
(0.948944 0.0137267 0)
(1.07994 -0.0369228 0)
(0.955964 0.0124351 0)
(0.956085 0.0127475 0)
(0.96192 0.0104748 0)
(0.800496 0.000920099 0)
(0.937387 -0.00160081 0)
(0.959705 0.0107937 0)
(0.809258 0.00162571 0)
(0.967855 0.00821025 0)
(1.01921 0.0107763 0)
(0.809387 0.00147533 0)
(0.865936 0.00264672 0)
(0.966971 0.00838013 0)
(1.05362 -0.0200082 0)
(0.916909 -0.0279731 0)
(0.976535 0.00736397 0)
(0.976332 0.00751858 0)
(0.978865 0.00453444 0)
(1.05422 0.000710167 0)
(0.976679 0.00510191 0)
(0.838886 -0.0240449 0)
(0.986674 0.00425758 0)
(0.798822 0.00143683 0)
(1.00917 -0.00271421 0)
(1.05379 -2.33034e-05 0)
(0.988378 0.00409062 0)
(0.981244 0.0204414 0)
(0.995469 0.0161173 0)
(1.03326 -0.0112375 0)
(0.991529 0.000915871 0)
(1.00247 -0.00381197 0)
(1.00709 -0.00418093 0)
(0.95901 -0.00542108 0)
(0.986863 0.00179423 0)
(0.995116 0.00050073 0)
(0.998749 0.000159334 0)
(0.952452 0.00204398 0)
(0.86978 -0.0234065 0)
(0.784794 -0.0625776 0)
(0.80351 0.00256155 0)
(0.874993 -0.0201532 0)
(0.826219 -0.00273378 0)
(0.869526 -0.0249869 0)
(0.904557 -0.0245083 0)
(0.88859 -0.026793 0)
(0.916595 0.00120303 0)
(0.757715 0.0527223 0)
(0.909193 -0.00956716 0)
(0.829636 0.00725565 0)
(1.03298 -0.00218417 0)
(0.930181 -0.00983969 0)
(0.949229 0.0364794 0)
(0.945003 0.0385252 0)
(0.804516 0.00190678 0)
(1.10335 -0.0234602 0)
(0.928675 0.0196829 0)
(0.923906 0.0203318 0)
(0.759957 -0.00175735 0)
(1.14662 -0.00862401 0)
(0.930516 0.0193521 0)
(0.927838 0.0199444 0)
(0.929698 0.0194804 0)
(0.928777 0.0255278 0)
(1.10447 -0.0758748 0)
(1.07093 -0.0354078 0)
(1.00619 -0.00563236 0)
(1.02968 -0.0116592 0)
(0.80557 0.00242593 0)
(1.01896 -0.00498432 0)
(1.05497 -0.0335306 0)
(1.09249 -0.0453616 0)
(0.991701 0.0178423 0)
(0.829659 1.87711e-05 0)
(0.900862 0.0246803 0)
(0.927711 0.0261158 0)
(1.10319 -0.0733008 0)
(0.828559 -0.000316742 0)
(0.912682 -0.000386729 0)
(0.906508 0.0156668 0)
(1.01059 0.00514316 0)
(0.916201 -0.000533223 0)
(0.84841 0.00220046 0)
(0.864671 0.0253395 0)
(0.811531 0.000920387 0)
(1.03644 -0.0113121 0)
(0.992951 0.0163751 0)
(0.850959 -0.0128095 0)
(0.932426 0.0190873 0)
(0.98238 0.0207773 0)
(0.98183 0.0222211 0)
(0.969304 -0.0327119 0)
(1.04959 -0.00436924 0)
(1.00747 0.0059845 0)
(1.05003 -0.00288591 0)
(1.00986 -0.00260349 0)
(0.991894 0.000461718 0)
(1.10056 -0.0649397 0)
(1.06576 -0.0369683 0)
(0.922508 -0.0284965 0)
(1.01459 0.00108615 0)
(0.925936 0.0200922 0)
(0.99893 -0.00144976 0)
(0.811045 0.00191407 0)
(0.926377 0.0201478 0)
(0.884503 0.0261334 0)
(1.03302 -0.0102519 0)
(0.998353 0.011017 0)
(0.808285 0.00108254 0)
(0.810663 0.00197855 0)
(0.878989 0.00761825 0)
(1.02549 -0.00625903 0)
(0.833699 0.0316569 0)
(0.793321 0.00120649 0)
(0.881436 0.00794928 0)
(0.880456 -0.0243163 0)
(0.996924 0.0117805 0)
(1.08353 -0.048072 0)
(0.83217 -0.000182452 0)
(1.0394 -0.00137101 0)
(0.883074 0.00806228 0)
(1.01827 -0.0072582 0)
(1.03287 -0.00830668 0)
(0.857824 0.00105139 0)
(0.831965 -0.000113798 0)
(0.759169 -0.0671699 0)
(1.09502 -0.0473086 0)
(0.870259 0.0264291 0)
(1.08999 -0.0445722 0)
(1.01769 -0.00949781 0)
(1.01752 -0.00999918 0)
(0.765307 0.00556771 0)
(0.922365 0.0208928 0)
(1.01149 -0.00985261 0)
(0.834783 0.024661 0)
(0.977799 -0.0152436 0)
(0.886544 0.00820744 0)
(0.987227 0.0164005 0)
(0.910779 -0.00161833 0)
(1.02285 -0.00934291 0)
(1.05994 -0.0307762 0)
(0.876594 0.00144077 0)
(0.875809 0.00157208 0)
(1.01946 -0.00533723 0)
(0.934615 -0.00876802 0)
(1.00431 -0.00590348 0)
(1.02875 -0.0103285 0)
(1.02913 -0.0121513 0)
(1.02817 -0.0112603 0)
(0.876574 0.00152676 0)
(0.909253 -0.00184999 0)
(1.00241 -0.00503416 0)
(1.03433 -0.0120832 0)
(1.03395 -0.0122692 0)
(1.09395 -0.0485643 0)
(0.985627 0.0174931 0)
(0.836143 0.0248727 0)
(1.03038 -0.00723305 0)
(1.1054 -0.0503439 0)
(1.01956 -0.00542092 0)
(1.08458 -0.058227 0)
(1.02213 -0.00595054 0)
(0.9271 0.0260324 0)
(0.393103 0.00409429 0)
(0.859781 0.0019255 0)
(0.859258 0.00191184 0)
(1.05268 -0.0316295 0)
(1.01801 -0.00981225 0)
(0.865059 0.000463014 0)
(1.03427 -0.0105553 0)
(1.01126 -0.0086619 0)
(1.11355 -0.0100061 0)
(1.10514 0.00467702 0)
(1.07565 -0.0376218 0)
(1.03366 -0.0108376 0)
(0.966633 -0.0216007 0)
(0.954836 -0.00284171 0)
(0.905047 0.0249668 0)
(0.872774 0.00353336 0)
(0.871271 0.00256796 0)
(1.02174 -0.00372728 0)
(0.896511 0.0258989 0)
(0.86361 0.00238522 0)
(0.858017 0.0016372 0)
(0.841557 0.0266086 0)
(1.02458 -0.00997369 0)
(0.862059 0.00224825 0)
(1.03133 -0.0105986 0)
(1.1679 -0.0942714 0)
(0.704148 -0.0125334 0)
(0.995944 -0.00979273 0)
(0.807934 0.00308299 0)
(0.84014 0.0265102 0)
(0.996809 -0.00589279 0)
(0.828907 0.000274139 0)
(0.854255 0.0305651 0)
(1.03661 -0.0107508 0)
(0.860646 0.0311596 0)
(0.853207 0.0303928 0)
(0.870422 0.00917509 0)
(0.719389 0.000239468 0)
(0.859223 0.031175 0)
(1.03228 -0.0114948 0)
(0.995365 -0.00476403 0)
(0.907409 0.0240819 0)
(0.846799 0.00348717 0)
(0.896765 -0.0103775 0)
(0.869127 0.0316063 0)
(0.887946 0.0265676 0)
(1.02117 -0.00260749 0)
(0.850407 -0.00220262 0)
(0.910739 0.0237605 0)
(0.867806 0.0317389 0)
(0.878095 0.0313108 0)
(0.829824 0.030412 0)
(1.02032 -0.00687156 0)
(0.725065 -0.0453708 0)
(0.828346 0.0301617 0)
(0.821792 0.0262352 0)