/*--------------------------------*- C++ -*----------------------------------*\
  =========                 |
  \\      /  F ield         | OpenFOAM: The Open Source CFD Toolbox
   \\    /   O peration     | Website:  https://openfoam.org
    \\  /    A nd           | Version:  12
     \\/     M anipulation  |
\*---------------------------------------------------------------------------*/
FoamFile
{
    format      ascii;
    class       volScalarField;
    location    "20.3";
    object      rho;
}
// * * * * * * * * * * * * * * * * * * * * * * * * * * * * * * * * * * * * * //

dimensions      [1 -3 0 0 0 0 0];

internalField   nonuniform List<scalar> 
9801
(
1.1494
1.18809
1.19856
1.20177
1.18755
1.15933
1.15098
1.15236
1.16136
1.18586
1.21916
1.23861
1.24743
1.25165
1.24405
1.22111
1.20738
1.2081
1.21553
1.24
1.2739
1.29675
1.30753
1.31398
1.31253
1.29281
1.2711
1.26664
1.26946
1.28155
1.31583
1.34947
1.36745
1.3771
1.38385
1.38466
1.36522
1.34295
1.33906
1.34277
1.34935
1.37483
1.41555
1.44101
1.45341
1.46188
1.46671
1.45553
1.43118
1.42215
1.42552
1.4317
1.44472
1.48024
1.51659
1.53542
1.54649
1.55471
1.55918
1.54268
1.52125
1.51852
1.52558
1.5351
1.5589
1.603
1.63407
1.65034
1.66239
1.67234
1.66762
1.63853
1.62625
1.63319
1.64559
1.67185
1.72476
1.76679
1.79027
1.80717
1.82252
1.82864
1.79885
1.77252
1.77827
1.79941
1.84115
1.92258
1.99189
2.03488
2.06849
2.10183
2.1081
2.08547
2.07784
2.10473
2.18716
4.27628
15.7258
1.15321
1.17518
1.18093
1.17698
1.17213
1.17325
1.17386
1.18144
1.19454
1.20857
1.22246
1.23305
1.23641
1.22898
1.22085
1.22023
1.22257
1.23005
1.24852
1.26772
1.28499
1.29743
1.30479
1.30195
1.28761
1.27875
1.27901
1.28106
1.28865
1.31168
1.33599
1.35485
1.36728
1.37571
1.37684
1.36212
1.35077
1.34982
1.35166
1.35672
1.37079
1.39977
1.42623
1.44225
1.45163
1.45763
1.45242
1.43626
1.42952
1.43085
1.4361
1.44397
1.46196
1.49514
1.52177
1.53584
1.5452
1.55141
1.5487
1.53028
1.51983
1.52237
1.53028
1.54109
1.56762
1.60847
1.63596
1.65076
1.66154
1.6691
1.66157
1.63661
1.62734
1.6345
1.64672
1.66919
1.71912
1.76286
1.78738
1.80467
1.82044
1.82768
1.7986
1.77131
1.77462
1.79413
1.82478
1.89187
1.96139
2.00836
2.04506
2.08048
2.0907
2.06755
2.0514
2.06159
2.06077
3.96698
15.6964
1.14388
1.13527
1.13925
1.15131
1.16778
1.18865
1.20488
1.21251
1.21445
1.21577
1.21452
1.20215
1.19307
1.19547
1.20347
1.21676
1.24136
1.26438
1.27571
1.28063
1.28465
1.28782
1.27518
1.26241
1.2635
1.26959
1.27691
1.29057
1.3166
1.33589
1.3441
1.35002
1.35706
1.3564
1.34292
1.33869
1.34261
1.34918
1.35637
1.36825
1.39076
1.41281
1.42495
1.43118
1.43461
1.43266
1.42551
1.42291
1.42662
1.43432
1.44175
1.45016
1.4685
1.49618
1.51236
1.52083
1.52592
1.5293
1.52797
1.5179
1.5154
1.52201
1.5313
1.54233
1.56819
1.60258
1.62197
1.63208
1.63959
1.64631
1.64454
1.62698
1.61915
1.62616
1.63842
1.65554
1.69816
1.7433
1.7673
1.78263
1.796
1.8046
1.7866
1.75842
1.75501
1.77145
1.79478
1.84295
1.91941
1.97671
2.01488
2.04872
2.06322
2.04258
2.02689
2.03555
2.0142
3.75865
15.461
1.1221
1.10363
1.10812
1.12625
1.16687
1.20767
1.22889
1.23684
1.23826
1.22713
1.19507
1.16776
1.16492
1.17051
1.18515
1.21549
1.25613
1.28283
1.29194
1.29581
1.29371
1.26728
1.2419
1.24014
1.24614
1.25837
1.27598
1.29941
1.32644
1.34424
1.35097
1.35241
1.34255
1.32715
1.32288
1.32752
1.33626
1.3475
1.35917
1.37211
1.39133
1.40645
1.41166
1.41178
1.411
1.41353
1.41429
1.41731
1.42438
1.43127
1.43863
1.44617
1.45874
1.47791
1.48934
1.49655
1.50409
1.51181
1.51743
1.51283
1.51101
1.51503
1.52252
1.53107
1.54477
1.57245
1.5928
1.60528
1.61626
1.62651
1.63288
1.62049
1.60871
1.61188
1.62195
1.6342
1.65903
1.70453
1.7345
1.75157
1.76612
1.78053
1.77799
1.74829
1.73085
1.73892
1.75957
1.78817
1.84635
1.90859
1.95181
1.98756
2.01436
2.00751
1.98771
1.97889
1.93474
3.59308
15.2671
1.10916
1.09353
1.09661
1.10911
1.15608
1.21418
1.23279
1.23897
1.24249
1.22289
1.17535
1.1584
1.15977
1.16449
1.17285
1.20263
1.25715
1.283
1.29124
1.29255
1.27389
1.24522
1.23513
1.23677
1.24136
1.24894
1.26546
1.29501
1.32191
1.33354
1.3351
1.32898
1.32288
1.32132
1.32068
1.32225
1.32889
1.33968
1.35114
1.36196
1.37314
1.3832
1.38906
1.39317
1.40016
1.40877
1.41507
1.41385
1.41493
1.41982
1.42206
1.42371
1.42897
1.44696
1.46824
1.48176
1.49268
1.50215
1.50989
1.50853
1.49912
1.4971
1.49862
1.50274
1.51069
1.5359
1.56855
1.58773
1.60104
1.61221
1.62161
1.61671
1.59586
1.58779
1.59214
1.60187
1.61715
1.65868
1.70334
1.7279
1.74475
1.76016
1.76897
1.74827
1.71927
1.70985
1.72194
1.74436
1.78272
1.84544
1.90079
1.94214
1.97776
1.99515
1.98121
1.96124
1.88814
3.48923
15.1617
1.10434
1.09472
1.0978
1.11276
1.16086
1.20913
1.22852
1.23384
1.2251
1.1952
1.16926
1.16046
1.16126
1.16689
1.18047
1.20656
1.24305
1.26736
1.27257
1.26536
1.25071
1.24188
1.23835
1.24016
1.24746
1.25884
1.26668
1.27381
1.2892
1.3035
1.30982
1.31265
1.31781
1.32527
1.32942
1.3289
1.33008
1.33233
1.33229
1.33074
1.33454
1.34942
1.37057
1.38776
1.4015
1.41134
1.41806
1.41849
1.40871
1.39885
1.3927
1.39366
1.39952
1.41594
1.45019
1.4759
1.49042
1.50004
1.50777
1.50949
1.49296
1.47445
1.46968
1.4747
1.48357
1.50382
1.54477
1.57511
1.59199
1.60375
1.61341
1.61629
1.59352
1.56921
1.56351
1.57243
1.58638
1.61678
1.67115
1.71107
1.73351
1.75019
1.76386
1.755
1.72175
1.70109
1.7005
1.71535
1.74017
1.78726
1.84552
1.8924
1.92967
1.96146
1.96895
1.9588
1.8921
3.40398
15.1416
1.10549
1.10403
1.11405
1.13538
1.15942
1.18602
1.2001
1.20073
1.1906
1.18023
1.1743
1.17206
1.1764
1.18546
1.19429
1.20115
1.2121
1.22621
1.23632
1.23991
1.24387
1.24931
1.25404
1.25634
1.25862
1.26189
1.26023
1.25048
1.24943
1.26239
1.2869
1.30713
1.32216
1.33267
1.33923
1.33976
1.33263
1.31976
1.30435
1.30108
1.30591
1.32012
1.35392
1.38731
1.40646
1.41533
1.42101
1.42317
1.40416
1.37626
1.36755
1.37115
1.37912
1.39399
1.43202
1.47272
1.49135
1.49985
1.5068
1.50866
1.48803
1.45918
1.45004
1.45471
1.46418
1.48237
1.5239
1.56668
1.58815
1.59944
1.60856
1.61339
1.59431
1.56193
1.55007
1.55388
1.56634
1.58676
1.6353
1.69318
1.72591
1.74376
1.75836
1.76303
1.73752
1.70689
1.69584
1.70152
1.71963
1.7492
1.79847
1.84802
1.88531
1.91499
1.93694
1.9405
1.90311
3.36746
15.1656
1.11504
1.12915
1.14254
1.14915
1.15359
1.15659
1.1575
1.16177
1.16815
1.175
1.1834
1.19395
1.1997
1.20136
1.20078
1.19364
1.18475
1.18592
1.19841
1.22086
1.24388
1.26154
1.27032
1.27354
1.27037
1.25944
1.23945
1.22938
1.23097
1.23807
1.26626
1.30809
1.33063
1.33955
1.34498
1.3473
1.33409
1.30161
1.28781
1.28933
1.29422
1.30421
1.34086
1.3881
1.40767
1.4156
1.42096
1.41876
1.39584
1.36901
1.36222
1.36618
1.37245
1.38367
1.41902
1.46486
1.48713
1.49614
1.50059
1.49859
1.48415
1.4602
1.4488
1.4509
1.45865
1.47201
1.50604
1.55422
1.58235
1.5944
1.60205
1.60572
1.59749
1.56921
1.55061
1.55037
1.55925
1.57371
1.60126
1.65612
1.70354
1.72902
1.74525
1.75888
1.75869
1.73345
1.71017
1.70466
1.71224
1.72975
1.7598
1.80622
1.84708
1.87626
1.89647
1.9102
1.90445
3.37251
15.2015
1.12922
1.15559
1.16102
1.16211
1.1516
1.13334
1.12986
1.13469
1.14933
1.17309
1.1978
1.2091
1.21435
1.21397
1.1995
1.17769
1.1711
1.17336
1.18205
1.21145
1.25053
1.26853
1.27548
1.27993
1.2765
1.24962
1.22657
1.2243
1.22806
1.23449
1.25848
1.30659
1.33231
1.3408
1.34641
1.3452
1.32105
1.29441
1.28844
1.29136
1.29644
1.30671
1.33718
1.38005
1.40257
1.41071
1.41159
1.40405
1.3905
1.37383
1.3661
1.36943
1.37808
1.39182
1.41417
1.44979
1.4728
1.48223
1.48489
1.48733
1.4881
1.47257
1.45798
1.45818
1.46619
1.47547
1.48816
1.5269
1.56499
1.58229
1.59117
1.59901
1.60526
1.59363
1.56992
1.56073
1.5641
1.57287
1.58449
1.61034
1.66163
1.70364
1.72961
1.74823
1.76337
1.76306
1.74328
1.72201
1.71311
1.71835
1.73401
1.76466
1.80966
1.8454
1.86722
1.88141
1.89336
3.4008
15.2275
1.13873
1.15848
1.16336
1.15708
1.13567
1.12619
1.12768
1.13565
1.15594
1.18617
1.20391
1.21174
1.21621
1.20869
1.18295
1.16915
1.16954
1.17372
1.18844
1.22568
1.25599
1.26866
1.27588
1.27993
1.26402
1.23608
1.22676
1.22739
1.23087
1.23871
1.26883
1.30652
1.32677
1.33584
1.3385
1.3276
1.30883
1.29709
1.29414
1.29809
1.30724
1.32328
1.34475
1.37048
1.38681
1.39305
1.39256
1.39367
1.39367
1.3862
1.38217
1.3859
1.39345
1.39876
1.40605
1.42753
1.45138
1.46358
1.47207
1.4824
1.4915
1.49499
1.48045
1.4712
1.47072
1.47278
1.47814
1.49148
1.53156
1.56732
1.58655
1.60033
1.61155
1.61834
1.6015
1.57697
1.5672
1.5671
1.57258
1.58388
1.61162
1.66378
1.70727
1.73628
1.75798
1.77318
1.77399
1.75381
1.72677
1.71321
1.71759
1.73293
1.7667
1.81246
1.84323
1.85906
1.87618
3.43807
15.2476
1.14131
1.15249
1.14764
1.13347
1.12805
1.12922
1.13259
1.14884
1.17654
1.19432
1.20339
1.20921
1.20575
1.18365
1.1712
1.17105
1.17409
1.17948
1.20677
1.24146
1.25733
1.26609
1.27156
1.26374
1.23921
1.2285
1.22904
1.23278
1.23907
1.25774
1.28611
1.30781
1.31856
1.32244
1.31755
1.31165
1.30675
1.3035
1.30671
1.31541
1.32703
1.33319
1.34272
1.35659
1.36611
1.37181
1.37934
1.3904
1.39939
1.40641
1.40309
1.39914
1.39723
1.3951
1.39547
1.40251
1.42828
1.45536
1.47377
1.4888
1.50096
1.50955
1.50475
1.48374
1.47037
1.46357
1.46493
1.47269
1.49588
1.54621
1.58534
1.60511
1.61818
1.62935
1.63181
1.60601
1.57643
1.56348
1.56301
1.57049
1.58411
1.61845
1.67506
1.71991
1.74733
1.76728
1.7774
1.77391
1.75231
1.72322
1.70965
1.71415
1.7302
1.76902
1.8126
1.83583
1.8555
3.48309
15.2738
1.13897
1.12644
1.11521
1.11608
1.12191
1.13405
1.15892
1.18343
1.19525
1.20113
1.20581
1.19899
1.17397
1.16329
1.16485
1.16954
1.17652
1.19701
1.23431
1.25464
1.26204
1.26514
1.25868
1.23838
1.22713
1.22652
1.23135
1.24152
1.25877
1.27495
1.29017
1.30149
1.30585
1.3039
1.30369
1.30998
1.31574
1.31922
1.32367
1.3311
1.33455
1.33151
1.33001
1.33475
1.35074
1.36806
1.38377
1.39939
1.41294
1.42164
1.42283
1.40796
1.39138
1.38137
1.382
1.38856
1.40863
1.45027
1.48202
1.50036
1.51048
1.51776
1.51931
1.49599
1.46662
1.45498
1.45607
1.46393
1.47624
1.51311
1.57155
1.60691
1.62223
1.63272
1.64175
1.63529
1.59776
1.56855
1.56204
1.56762
1.57798
1.59489
1.63523
1.68865
1.72558
1.74801
1.76547
1.77281
1.76705
1.74603
1.71921
1.70757
1.71081
1.7266
1.76686
1.80191
1.82688
3.53867
15.3098
1.12381
1.09714
1.09536
1.10024
1.11085
1.14148
1.18703
1.20924
1.215
1.21531
1.20537
1.17556
1.15596
1.15521
1.15934
1.16563
1.18328
1.2181
1.24487
1.2587
1.26229
1.2557
1.24121
1.2345
1.23201
1.23536
1.24616
1.26229
1.27162
1.27488
1.27779
1.28434
1.29275
1.29884
1.30692
1.31822
1.33154
1.34032
1.34217
1.33724
1.32746
1.31643
1.31353
1.31871
1.33815
1.37119
1.39825
1.41531
1.42446
1.43074
1.43308
1.41257
1.38057
1.37033
1.37325
1.38049
1.39608
1.44001
1.48683
1.50643
1.51565
1.52267
1.52425
1.50856
1.47349
1.45629
1.45631
1.46288
1.47309
1.49051
1.53647
1.5904
1.61671
1.62848
1.63458
1.63647
1.62733
1.59733
1.57725
1.57558
1.58338
1.59527
1.61023
1.6469
1.69205
1.72157
1.74111
1.75731
1.76583
1.76263
1.74423
1.71752
1.704
1.70492
1.71901
1.75532
1.79004
3.596
15.3543
1.11552
1.09046
1.09182
1.09695
1.1064
1.1453
1.19481
1.21426
1.22121
1.22236
1.19929
1.16815
1.1581
1.15834
1.16483
1.18355
1.20504
1.22249
1.23925
1.24736
1.24538
1.23825
1.23908
1.24343
1.24908
1.25717
1.26485
1.27097
1.27147
1.26225
1.25525
1.25904
1.27676
1.29996
1.32081
1.3385
1.3491
1.35532
1.35602
1.33812
1.31005
1.29865
1.30055
1.30703
1.32455
1.37005
1.40934
1.426
1.43361
1.43795
1.43237
1.4071
1.38108
1.37173
1.37414
1.38087
1.39296
1.42325
1.47547
1.50473
1.51467
1.5158
1.51395
1.51307
1.49819
1.47478
1.46827
1.4737
1.48305
1.49054
1.50154
1.5397
1.58632
1.61083
1.62379
1.63468
1.64408
1.63897
1.61394
1.59439
1.58801
1.58979
1.59752
1.61232
1.64898
1.69038
1.71857
1.73983
1.75793
1.7682
1.76524
1.74314
1.71178
1.69288
1.69114
1.7034
1.74511
3.6442
15.4002
1.1136
1.09501
1.09599
1.10526
1.12796
1.15998
1.19016
1.20691
1.20993
1.20014
1.1864
1.17667
1.17194
1.17701
1.19095
1.20555
1.21278
1.21554
1.21361
1.21529
1.22524
1.23622
1.24843
1.26325
1.27588
1.28144
1.28095
1.27403
1.25642
1.24099
1.23964
1.24474
1.26087
1.30084
1.33821
1.35591
1.36315
1.36673
1.36328
1.33496
1.30266
1.29532
1.29872
1.3042
1.3166
1.36256
1.41166
1.42922
1.43598
1.43538
1.42675
1.41287
1.392
1.38171
1.38496
1.3951
1.40605
1.41455
1.43899
1.47661
1.49668
1.50547
1.51288
1.52098
1.52701
1.51273
1.49102
1.48337
1.48261
1.4826
1.48626
1.49723
1.53559
1.58734
1.61935
1.63687
1.64964
1.6597
1.65671
1.62913
1.60028
1.58722
1.5881
1.5953
1.61292
1.65454
1.69701
1.72641
1.74762
1.76343
1.76943
1.76237
1.73634
1.70039
1.67628
1.66999
1.69065
3.6641
15.4457
1.11903
1.11234
1.11889
1.13596
1.14988
1.15902
1.1692
1.17639
1.17967
1.18088
1.18443
1.19151
1.20232
1.20945
1.2122
1.21466
1.2115
1.19458
1.18674
1.19075
1.2071
1.23816
1.26807
1.28783
1.29645
1.30006
1.29597
1.27092
1.23914
1.22936
1.23171
1.2373
1.25159
1.29924
1.34663
1.3625
1.36917
1.37292
1.36232
1.33185
1.30814
1.30038
1.30358
1.31314
1.33036
1.35612
1.39362
1.41624
1.42252
1.42149
1.42187
1.42536
1.42005
1.40725
1.40209
1.40386
1.40569
1.40616
1.40937
1.43033
1.47222
1.50116
1.51818
1.53257
1.54252
1.54651
1.52686
1.49737
1.4807
1.47542
1.47573
1.48186
1.49481
1.53817
1.59633
1.63195
1.64955
1.66113
1.66744
1.66091
1.63006
1.59722
1.58506
1.58845
1.59819
1.62034
1.66619
1.70907
1.73553
1.75162
1.76232
1.7633
1.75274
1.72396
1.68621
1.65707
1.64075
3.64068
15.4997
1.13263
1.1399
1.15026
1.15713
1.15957
1.15423
1.14401
1.14518
1.1575
1.17452
1.19379
1.21565
1.22837
1.23312
1.23216
1.21941
1.1932
1.17581
1.17482
1.17892
1.19054
1.23297
1.28149
1.29963
1.30643
1.31035
1.30547
1.27087
1.23873
1.23187
1.23438
1.23984
1.25526
1.29989
1.34545
1.36315
1.36823
1.36154
1.35008
1.34004
1.32508
1.31865
1.32223
1.33178
1.34023
1.3457
1.35751
1.38578
1.40728
1.41777
1.42685
1.43596
1.44397
1.44149
1.42393
1.40945
1.39963
1.39253
1.39364
1.40137
1.43064
1.48388
1.52156
1.53907
1.54953
1.55776
1.55851
1.52974
1.49221
1.47521
1.47414
1.47979
1.48808
1.50316
1.55234
1.61002
1.63928
1.6532
1.66283
1.66587
1.65591
1.62567
1.5985
1.59084
1.59475
1.6046
1.62978
1.67686
1.71469
1.73531
1.74737
1.75417
1.75279
1.7408
1.7114
1.66799
1.62362
3.5718
15.562
1.14705
1.16604
1.17005
1.1707
1.16128
1.13784
1.12976
1.13195
1.14044
1.16932
1.21085
1.23376
1.24182
1.2462
1.24544
1.2198
1.18304
1.1742
1.1764
1.18058
1.19156
1.2361
1.28445
1.30162
1.30833
1.30872
1.29116
1.26602
1.24784
1.24161
1.24496
1.25598
1.27445
1.29524
1.32375
1.34194
1.34597
1.34338
1.34465
1.35041
1.35229
1.34598
1.34192
1.34254
1.34113
1.3352
1.33468
1.3471
1.38381
1.41595
1.4346
1.449
1.45837
1.46348
1.4527
1.42163
1.3964
1.38758
1.38915
1.39497
1.40449
1.44561
1.50879
1.54016
1.55182
1.55892
1.5623
1.55735
1.52438
1.49133
1.48114
1.48459
1.49337
1.50515
1.52157
1.56367
1.60996
1.63406
1.64662
1.65587
1.66041
1.65535
1.63292
1.60876
1.59873
1.60036
1.60786
1.63052
1.67453
1.70922
1.72836
1.73987
1.74579
1.74504
1.73369
1.69615
1.63265
3.47936
15.626
1.16041
1.17591
1.17968
1.17388
1.14658
1.12965
1.12872
1.13196
1.14055
1.17674
1.22054
1.23698
1.24332
1.24777
1.23911
1.20476
1.18375
1.17944
1.18172
1.18745
1.20782
1.24735
1.28048
1.29547
1.29899
1.28932
1.27891
1.27132
1.26362
1.2628
1.26851
1.27977
1.28708
1.29009
1.29222
1.30854
1.3301
1.34189
1.35117
1.36221
1.37275
1.37666
1.36739
1.35157
1.33506
1.32299
1.32208
1.32776
1.3495
1.39964
1.4392
1.45791
1.46773
1.47426
1.475
1.44606
1.40559
1.3909
1.39178
1.39816
1.40859
1.42478
1.46681
1.51807
1.54157
1.55051
1.55578
1.55948
1.55727
1.53306
1.50687
1.49752
1.49899
1.50441
1.51173
1.52434
1.5626
1.60602
1.63061
1.64519
1.65709
1.66689
1.66728
1.64396
1.61377
1.59796
1.59597
1.60105
1.62275
1.66816
1.70516
1.72611
1.73744
1.74097
1.74006
1.7218
1.6686
3.40407
15.6911
1.16688
1.1776
1.17884
1.15956
1.13699
1.13172
1.13342
1.13682
1.1486
1.19367
1.22834
1.24012
1.2452
1.24235
1.22001
1.19879
1.1888
1.18879
1.19429
1.20879
1.2262
1.24578
1.26573
1.27528
1.27528
1.2726
1.27688
1.28223
1.28559
1.28643
1.28884
1.29219
1.28899
1.27605
1.27199
1.2788
1.30742
1.34031
1.36243
1.37873
1.38797
1.39274
1.38873
1.36164
1.32932
1.31658
1.31756
1.32263
1.33162
1.37148
1.43354
1.46127
1.47069
1.47577
1.47403
1.46321
1.43409
1.40794
1.40224
1.40681
1.41458
1.42212
1.4326
1.46645
1.51239
1.53842
1.55081
1.55903
1.56689
1.56974
1.55087
1.52427
1.50944
1.50469
1.5056
1.51055
1.52364
1.56302
1.60718
1.63509
1.65335
1.66642
1.67471
1.67317
1.64644
1.61049
1.59144
1.58888
1.59459
1.61689
1.66525
1.7054
1.72541
1.73227
1.7338
1.72822
1.70836
3.37554
15.7539
1.17279
1.179
1.16662
1.1412
1.13021
1.13092
1.13446
1.14082
1.16529
1.20452
1.22998
1.23831
1.23796
1.22647
1.21581
1.20494
1.20087
1.20504
1.21603
1.22747
1.23282
1.23555
1.23975
1.25314
1.26696
1.27594
1.28465
1.29644
1.30631
1.31042
1.30693
1.29554
1.27607
1.26332
1.26323
1.26827
1.28451
1.33053
1.37274
1.39217
1.39998
1.4039
1.39986
1.36987
1.33137
1.31815
1.31934
1.32476
1.33538
1.35589
1.40484
1.4493
1.46524
1.46982
1.47094
1.47237
1.46596
1.44103
1.42193
1.41752
1.41989
1.42263
1.42506
1.43146
1.45672
1.5055
1.54014
1.55797
1.56821
1.5768
1.58271
1.56926
1.53791
1.51348
1.50399
1.50521
1.51106
1.52565
1.56874
1.61676
1.6451
1.66041
1.67086
1.67705
1.67382
1.64521
1.6075
1.58837
1.58419
1.58887
1.6129
1.66451
1.70356
1.71908
1.72383
1.72077
1.73014
3.40182
15.8146
1.18557
1.18875
1.15859
1.13687
1.13128
1.13322
1.14014
1.15543
1.17573
1.20074
1.21952
1.2251
1.22145
1.22018
1.2239
1.22259
1.22057
1.22269
1.22736
1.23156
1.2298
1.22042
1.21889
1.22891
1.25706
1.28272
1.30111
1.31407
1.32134
1.32493
1.32029
1.29412
1.2651
1.25635
1.25853
1.2637
1.27369
1.31748
1.37478
1.3959
1.40355
1.40738
1.40139
1.37969
1.34718
1.32949
1.32938
1.33742
1.35064
1.36218
1.37415
1.40735
1.44177
1.45773
1.465
1.46977
1.47625
1.47988
1.46446
1.44403
1.43275
1.42631
1.42092
1.4194
1.42525
1.44933
1.50333
1.54583
1.56709
1.58047
1.58952
1.59354
1.57806
1.5401
1.51146
1.5033
1.5061
1.51328
1.53233
1.58187
1.62706
1.65009
1.66212
1.67096
1.67636
1.67218
1.64453
1.60711
1.58584
1.58052
1.58388
1.60866
1.66015
1.69559
1.70886
1.70739
1.73566
3.47013
15.8765
1.18611
1.18547
1.15989
1.14232
1.13908
1.14347
1.15345
1.16428
1.17153
1.18101
1.19495
1.21033
1.2203
1.22739
1.23359
1.24007
1.24352
1.24172
1.23714
1.22924
1.21587
1.20715
1.20829
1.21394
1.23646
1.28216
1.31432
1.32949
1.33521
1.33679
1.32639
1.29427
1.26655
1.25877
1.26076
1.26595
1.27937
1.3083
1.35658
1.38751
1.39647
1.39508
1.3885
1.38567
1.37649
1.35959
1.3521
1.35458
1.36073
1.36476
1.36154
1.36358
1.38741
1.42813
1.45452
1.47189
1.48889
1.50019
1.50402
1.48602
1.45429
1.42947
1.41587
1.41313
1.41778
1.42581
1.45408
1.51735
1.56243
1.57927
1.58782
1.59327
1.59237
1.57384
1.53719
1.5131
1.50853
1.51376
1.52299
1.5415
1.58745
1.62891
1.64986
1.66066
1.6687
1.67561
1.67543
1.64989
1.60916
1.58272
1.57487
1.57629
1.59885
1.64889
1.6832
1.69198
1.72545
3.55903
15.9353
1.1785
1.18134
1.17189
1.16131
1.15626
1.15753
1.16232
1.16725
1.1678
1.16438
1.16838
1.1892
1.2182
1.23526
1.24652
1.25507
1.26029
1.26074
1.25077
1.22743
1.20611
1.2
1.20221
1.20686
1.22054
1.27016
1.31812
1.33432
1.34128
1.34536
1.33715
1.30436
1.27474
1.26651
1.26958
1.27965
1.29284
1.30351
1.32134
1.35344
1.37527
1.38369
1.38839
1.39386
1.40071
1.40161
1.38717
1.37421
1.36794
1.35871
1.34614
1.34366
1.35011
1.37868
1.43466
1.47822
1.49925
1.51024
1.5175
1.51763
1.49087
1.44486
1.41912
1.41508
1.41971
1.42847
1.44205
1.47331
1.52935
1.56334
1.576
1.58184
1.58494
1.5864
1.57694
1.55017
1.52866
1.52012
1.51885
1.52329
1.5381
1.58129
1.62411
1.64726
1.66085
1.67161
1.67954
1.68121
1.65582
1.609
1.57546
1.56439
1.56525
1.58716
1.63794
1.66722
1.70762
3.65207
15.9897
1.17177
1.17917
1.18146
1.18185
1.17802
1.17476
1.17327
1.16994
1.16104
1.15528
1.1564
1.16345
1.19477
1.23449
1.25695
1.26853
1.27366
1.27584
1.265
1.23131
1.20607
1.2011
1.20373
1.20808
1.21684
1.25091
1.30709
1.33196
1.33856
1.33659
1.32846
1.31804
1.29998
1.28746
1.28661
1.29189
1.2978
1.30149
1.30178
1.3075
1.33589
1.36979
1.39143
1.40763
1.42163
1.4292
1.42623
1.40256
1.37302
1.35007
1.33829
1.33789
1.34243
1.35035
1.38879
1.46232
1.49986
1.51141
1.51638
1.51461
1.50529
1.47927
1.44569
1.4318
1.43347
1.44169
1.45057
1.45774
1.4767
1.52106
1.55333
1.56832
1.57754
1.5872
1.59713
1.59556
1.56825
1.53647
1.51859
1.5137
1.51564
1.52907
1.57382
1.62252
1.65037
1.66618
1.67754
1.6842
1.68379
1.6565
1.60557
1.56702
1.55348
1.55309
1.57757
1.62436
1.67726
3.7362
16.033
1.15667
1.17882
1.18709
1.19486
1.19968
1.20003
1.19283
1.1761
1.15924
1.15248
1.15332
1.1567
1.16983
1.21972
1.2616
1.27552
1.28198
1.28637
1.28121
1.24421
1.21215
1.20556
1.20838
1.2158
1.22864
1.24515
1.27652
1.31068
1.32461
1.32745
1.32903
1.33079
1.32939
1.31949
1.3088
1.30373
1.30095
1.29507
1.28737
1.28724
1.29681
1.33345
1.38352
1.41636
1.43429
1.44352
1.44874
1.43925
1.39534
1.35397
1.33968
1.3397
1.34488
1.35686
1.37808
1.41944
1.47108
1.4945
1.50063
1.50123
1.50275
1.50462
1.49502
1.47326
1.45843
1.4533
1.45088
1.44741
1.44996
1.46702
1.51299
1.55252
1.57645
1.59453
1.60578
1.61241
1.60851
1.57395
1.53136
1.51008
1.50699
1.51144
1.52453
1.5727
1.62875
1.65832
1.67097
1.67857
1.68272
1.67952
1.65171
1.60006
1.55845
1.54254
1.54318
1.56667
1.63289
3.7914
16.0704
1.13537
1.17701
1.19602
1.20817
1.21478
1.21821
1.21279
1.18541
1.15864
1.15143
1.1532
1.15701
1.16565
1.20064
1.25717
1.27853
1.28495
1.28576
1.27636
1.25565
1.22996
1.21975
1.22203
1.23062
1.24058
1.24636
1.25077
1.26605
1.29619
1.31789
1.33068
1.3411
1.34998
1.35385
1.34391
1.32484
1.30643
1.28886
1.27802
1.27754
1.28161
1.29406
1.34846
1.4123
1.43749
1.44611
1.45112
1.44728
1.42283
1.37932
1.3551
1.35237
1.3598
1.37217
1.38103
1.38816
1.40983
1.45003
1.47848
1.49278
1.50292
1.51591
1.52496
1.52163
1.49734
1.46923
1.44889
1.43881
1.43762
1.44267
1.46339
1.51957
1.56934
1.59276
1.60334
1.61099
1.61441
1.60634
1.56841
1.52731
1.50998
1.50817
1.51327
1.52889
1.57733
1.63077
1.65663
1.66719
1.67301
1.67601
1.67162
1.64674
1.5982
1.55586
1.53563
1.52732
1.57778
3.80234
16.1093
1.12001
1.16924
1.20732
1.22174
1.22738
1.22964
1.22215
1.18827
1.15863
1.15345
1.15578
1.16153
1.17512
1.20028
1.23864
1.26738
1.2751
1.27369
1.26966
1.26616
1.25649
1.24449
1.24188
1.2456
1.25036
1.24691
1.23601
1.23489
1.25009
1.29097
1.32783
1.35254
1.36926
1.3771
1.37824
1.35746
1.31676
1.28561
1.27506
1.27641
1.28122
1.28974
1.31499
1.37953
1.42581
1.43972
1.44122
1.43633
1.43151
1.41951
1.39593
1.38184
1.37968
1.38235
1.38288
1.37667
1.37605
1.39094
1.43466
1.47909
1.50733
1.52358
1.53377
1.54038
1.5368
1.50447
1.46244
1.44021
1.43701
1.44139
1.44938
1.47527
1.53432
1.57848
1.59477
1.60151
1.60355
1.60591
1.60368
1.57451
1.53699
1.51931
1.51659
1.51925
1.52865
1.57108
1.62204
1.64807
1.65944
1.66636
1.67078
1.66832
1.64674
1.60059
1.55614
1.52141
1.51969
3.75957
16.1502
1.11921
1.16246
1.21397
1.22812
1.2334
1.23529
1.21835
1.1849
1.1652
1.16153
1.16589
1.18082
1.19521
1.20107
1.20892
1.23316
1.25599
1.26523
1.26932
1.2755
1.28343
1.28447
1.27363
1.26403
1.25452
1.23638
1.22307
1.22246
1.22738
1.25102
1.31343
1.36211
1.38078
1.38901
1.39299
1.38603
1.34321
1.29413
1.27935
1.28039
1.28832
1.30488
1.32071
1.33873
1.37785
1.41046
1.42384
1.42949
1.43488
1.44222
1.44507
1.43066
1.41003
1.39501
1.38069
1.36704
1.36382
1.36822
1.38304
1.43551
1.49484
1.5233
1.53397
1.54084
1.54395
1.5363
1.49955
1.46162
1.44703
1.44772
1.45406
1.46119
1.48311
1.53564
1.57313
1.58797
1.59559
1.60371
1.61069
1.61148
1.58734
1.54934
1.52434
1.51489
1.51517
1.5213
1.55713
1.6092
1.64095
1.65705
1.66592
1.66924
1.66639
1.64681
1.60263
1.54245
1.49406
3.6685
16.1969
1.12811
1.17228
1.21173
1.22779
1.23125
1.22105
1.20675
1.19333
1.18175
1.18148
1.18956
1.20069
1.2054
1.20038
1.19039
1.19226
1.21646
1.25004
1.27268
1.29369
1.30891
1.31492
1.30863
1.28197
1.24704
1.22184
1.21525
1.21757
1.22272
1.23435
1.28305
1.35607
1.38328
1.39041
1.3879
1.37332
1.35317
1.3244
1.3033
1.3012
1.30983
1.32077
1.32646
1.3255
1.32578
1.34818
1.38972
1.42018
1.44139
1.46046
1.47121
1.4743
1.4573
1.42054
1.38516
1.36688
1.36412
1.36819
1.37485
1.39376
1.45528
1.50908
1.52873
1.53595
1.53797
1.53647
1.53025
1.50376
1.47438
1.46079
1.45839
1.46095
1.46631
1.48125
1.5262
1.56826
1.58904
1.59896
1.60734
1.6185
1.62384
1.60357
1.55793
1.52281
1.50851
1.50652
1.51033
1.5436
1.60174
1.64064
1.65879
1.66564
1.66575
1.65968
1.64089
1.58837
1.51268
3.55437
16.2625
1.14417
1.16676
1.18949
1.20449
1.20801
1.20667
1.20855
1.21137
1.21314
1.21173
1.21116
1.21116
1.20361
1.18572
1.17501
1.1755
1.1845
1.22306
1.27979
1.31422
1.32802
1.33365
1.33362
1.30756
1.24907
1.22078
1.21689
1.2198
1.231
1.25413
1.28017
1.31851
1.35575
1.3673
1.36567
1.36282
1.36353
1.36325
1.35386
1.34068
1.33452
1.33239
1.32516
1.30887
1.30251
1.30754
1.33227
1.39011
1.44217
1.46803
1.47919
1.48607
1.48672
1.46377
1.41128
1.37762
1.36987
1.37286
1.38196
1.39613
1.41723
1.4656
1.50565
1.5215
1.5268
1.52887
1.53291
1.5362
1.52483
1.49876
1.47703
1.46473
1.45912
1.45895
1.46914
1.51048
1.55849
1.58688
1.6082
1.62375
1.63098
1.63204
1.60769
1.55539
1.51466
1.49986
1.49905
1.50355
1.53777
1.60189
1.64335
1.65748
1.65973
1.65629
1.64914
1.62311
1.57133
3.47035
16.3449
1.15306
1.15681
1.15321
1.16299
1.18738
1.20722
1.22422
1.23892
1.24652
1.24376
1.2298
1.21003
1.18451
1.16799
1.16489
1.16775
1.17286
1.19627
1.27219
1.31986
1.33212
1.33672
1.33081
1.30317
1.26494
1.23612
1.2308
1.23879
1.25872
1.27318
1.27802
1.28048
1.29103
1.32
1.34452
1.36013
1.3774
1.39495
1.40243
1.39307
1.36764
1.34018
1.31461
1.29835
1.29547
1.29909
1.30618
1.33663
1.41625
1.46604
1.48027
1.4854
1.48189
1.46763
1.44396
1.41149
1.39291
1.39074
1.39697
1.40526
1.41145
1.41869
1.44745
1.48576
1.50741
1.51971
1.53301
1.54869
1.55691
1.54896
1.51441
1.47635
1.45436
1.44753
1.44866
1.45853
1.50603
1.57257
1.60752
1.62017
1.62705
1.63064
1.6282
1.60207
1.55032
1.51293
1.49976
1.4982
1.50273
1.53769
1.59944
1.63625
1.64623
1.64542
1.64352
1.6331
1.62649
3.4492
16.4268
1.15182
1.13489
1.12655
1.12998
1.15305
1.20265
1.24411
1.26578
1.27332
1.2738
1.25271
1.20716
1.17415
1.16311
1.1641
1.16806
1.18008
1.21065
1.25528
1.30208
1.32047
1.32063
1.30665
1.2951
1.28929
1.27798
1.26949
1.27036
1.27534
1.27874
1.27072
1.25439
1.25181
1.26606
1.30715
1.35674
1.39573
1.41854
1.42805
1.43064
1.41137
1.36122
1.31644
1.29858
1.29703
1.30137
1.31299
1.33679
1.37585
1.43067
1.45939
1.46585
1.46353
1.462
1.46347
1.45866
1.44245
1.42695
1.41864
1.41324
1.40364
1.39527
1.39964
1.42784
1.47654
1.51462
1.54244
1.55961
1.56741
1.57118
1.55839
1.51052
1.46374
1.4465
1.4465
1.45211
1.46618
1.51717
1.57879
1.60692
1.61592
1.61989
1.62057
1.61797
1.60141
1.56026
1.52337
1.50539
1.50047
1.50013
1.52778
1.58638
1.62254
1.63269
1.63454
1.62702
1.65686
3.49019
16.4964
1.1378
1.11709
1.11677
1.12036
1.13015
1.18258
1.25192
1.27492
1.28177
1.28568
1.27399
1.22238
1.17716
1.1664
1.16825
1.1827
1.21272
1.23001
1.23716
1.25113
1.27481
1.29015
1.29575
1.30088
1.31172
1.32328
1.32187
1.30606
1.28913
1.27078
1.24868
1.23607
1.23562
1.24001
1.2588
1.32924
1.39918
1.42372
1.43168
1.4346
1.42533
1.39183
1.34136
1.3149
1.31153
1.32049
1.33768
1.34987
1.35513
1.36704
1.39931
1.43064
1.44765
1.45836
1.4722
1.48695
1.49195
1.47838
1.44991
1.41871
1.39331
1.38193
1.38241
1.38918
1.42469
1.49573
1.54238
1.55865
1.56629
1.57002
1.56752
1.54836
1.50077
1.46596
1.45714
1.46042
1.4667
1.47413
1.51382
1.56927
1.59757
1.60772
1.61238
1.61771
1.62288
1.61637
1.57608
1.52768
1.4987
1.48924
1.48793
1.5127
1.57238
1.61138
1.62573
1.62059
1.66512
3.56672
16.5542
1.1279
1.10898
1.11136
1.11724
1.13109
1.17498
1.24173
1.27394
1.28114
1.27378
1.25159
1.22877
1.20293
1.19127
1.19719
1.21616
1.22995
1.23351
1.22472
1.21018
1.21286
1.24164
1.28142
1.31274
1.34085
1.357
1.36234
1.35163
1.31247
1.26706
1.2404
1.23331
1.23537
1.24068
1.25747
1.29797
1.36698
1.40902
1.42054
1.41615
1.40123
1.39121
1.38222
1.36426
1.35303
1.35206
1.35519
1.35594
1.34433
1.33373
1.33963
1.37256
1.42065
1.45946
1.48853
1.50599
1.51383
1.51498
1.49207
1.43949
1.39629
1.38141
1.38199
1.38743
1.40228
1.45235
1.51904
1.54854
1.55734
1.55707
1.55329
1.55147
1.54493
1.517
1.48952
1.47565
1.47004
1.46917
1.47175
1.49456
1.54717
1.58554
1.60531
1.61841
1.62804
1.63364
1.62825
1.58372
1.52331
1.48731
1.47691
1.47593
1.50185
1.5659
1.60706
1.6129
1.66332
3.6541
16.6112
1.12909
1.10999
1.11383
1.13176
1.159
1.17984
1.205
1.23488
1.24717
1.24581
1.24562
1.24488
1.24332
1.24161
1.24092
1.24147
1.23943
1.22174
1.196
1.1854
1.1872
1.19843
1.24408
1.31594
1.35798
1.37329
1.37998
1.37923
1.35019
1.28481
1.24608
1.23872
1.2422
1.26085
1.28751
1.30311
1.31677
1.34695
1.37469
1.38658
1.39136
1.39787
1.41023
1.41925
1.41195
1.39181
1.37258
1.35073
1.32598
1.31553
1.31733
1.32618
1.36804
1.44432
1.49224
1.50833
1.51527
1.5168
1.50614
1.47403
1.42502
1.39855
1.39554
1.40483
1.41944
1.43324
1.46167
1.50438
1.52898
1.53877
1.54402
1.55143
1.56442
1.5697
1.5485
1.51096
1.48163
1.46263
1.45193
1.45272
1.47469
1.53581
1.59043
1.61748
1.62878
1.63369
1.63491
1.62535
1.57514
1.51204
1.477
1.46808
1.46987
1.50329
1.56435
1.58959
1.64699
3.74658
16.6661
1.14426
1.12747
1.13833
1.16265
1.1757
1.17941
1.17614
1.17342
1.19189
1.22283
1.24632
1.26733
1.28641
1.29326
1.28632
1.26755
1.23547
1.19466
1.1733
1.17141
1.17537
1.18326
1.21121
1.29546
1.36001
1.37657
1.37941
1.36492
1.33692
1.30867
1.27992
1.26878
1.27501
1.29076
1.30036
1.30323
1.29346
1.28633
1.30242
1.34492
1.38375
1.41221
1.43768
1.45218
1.45688
1.44322
1.40068
1.35159
1.32315
1.31574
1.31793
1.32405
1.34302
1.40242
1.47246
1.49932
1.50551
1.49729
1.48546
1.47984
1.46951
1.44754
1.43269
1.42914
1.42934
1.42568
1.42192
1.43379
1.47464
1.51378
1.53909
1.56325
1.58234
1.59063
1.59198
1.56463
1.50684
1.46198
1.44717
1.4466
1.45045
1.47371
1.54766
1.60435
1.62135
1.62584
1.6254
1.62104
1.60942
1.56892
1.51267
1.47829
1.46957
1.46963
1.50197
1.54304
1.61125
3.83448
16.7085
1.17902
1.16593
1.17089
1.17697
1.18004
1.16941
1.14905
1.14482
1.15213
1.18216
1.23915
1.29156
1.31853
1.32659
1.32613
1.30305
1.23925
1.18617
1.17121
1.17134
1.17737
1.20092
1.2367
1.27366
1.31988
1.34573
1.34649
1.33815
1.33543
1.33332
1.33025
1.32498
1.32032
1.31633
1.30848
1.28887
1.2655
1.25765
1.26166
1.28238
1.34455
1.41408
1.44984
1.46262
1.46902
1.46692
1.43783
1.37719
1.33615
1.32522
1.32809
1.34319
1.36515