/*--------------------------------*- C++ -*----------------------------------*\
  =========                 |
  \\      /  F ield         | OpenFOAM: The Open Source CFD Toolbox
   \\    /   O peration     | Website:  https://openfoam.org
    \\  /    A nd           | Version:  12
     \\/     M anipulation  |
\*---------------------------------------------------------------------------*/
FoamFile
{
    format      ascii;
    class       volScalarField;
    location    "20.3";
    object      T;
}
// * * * * * * * * * * * * * * * * * * * * * * * * * * * * * * * * * * * * * //

dimensions      [0 0 0 1 0 0 0];

internalField   nonuniform List<scalar> 
9801
(
0.819321
0.828712
0.831311
0.83207
0.827803
0.819809
0.817195
0.817496
0.819795
0.826308
0.835151
0.840488
0.842768
0.843773
0.841408
0.835092
0.831269
0.831469
0.833432
0.839776
0.84834
0.854065
0.856979
0.858634
0.858091
0.852626
0.846728
0.84532
0.84606
0.849208
0.85784
0.86591
0.870119
0.87237
0.874062
0.874131
0.868988
0.863079
0.861744
0.862474
0.864042
0.870313
0.880056
0.885993
0.888806
0.890626
0.891649
0.888754
0.882665
0.880068
0.880623
0.881866
0.884743
0.892855
0.900982
0.905171
0.907577
0.909192
0.909975
0.905985
0.900478
0.89945
0.900681
0.9025
0.907497
0.917002
0.923631
0.927031
0.929432
0.931164
0.929835
0.922697
0.919337
0.920488
0.922704
0.927895
0.938603
0.946783
0.951109
0.954059
0.956432
0.957112
0.949971
0.942794
0.943245
0.946705
0.954567
0.969931
0.981646
0.988471
0.994338
0.999228
0.998604
0.989204
0.982208
0.983136
0.999955
1.18301
1.56666
0.821409
0.827075
0.8284
0.827177
0.825672
0.825858
0.825763
0.827411
0.830618
0.834256
0.838004
0.840907
0.841763
0.839686
0.837519
0.837301
0.83781
0.839545
0.844101
0.848911
0.853323
0.85653
0.858386
0.857571
0.853842
0.851325
0.851227
0.851571
0.85325
0.858841
0.864925
0.869682
0.87268
0.874591
0.874859
0.871281
0.868005
0.867418
0.867497
0.868448
0.871557
0.878494
0.885171
0.889054
0.89109
0.892374
0.891202
0.887135
0.884928
0.884915
0.885762
0.88736
0.891472
0.89939
0.905558
0.908512
0.910336
0.911473
0.910735
0.906189
0.903178
0.903451
0.904913
0.907121
0.913067
0.922207
0.927933
0.930799
0.932753
0.934052
0.932085
0.925928
0.923289
0.924472
0.926783
0.931342
0.941783
0.950638
0.955325
0.958455
0.961044
0.962024
0.955131
0.94815
0.94829
0.951843
0.957856
0.971043
0.983389
0.991064
0.997469
1.00359
1.00459
0.997236
0.988701
0.987594
0.990632
1.17316
1.58803
0.823167
0.821574
0.822819
0.82627
0.830829
0.836082
0.839887
0.841115
0.841163
0.8416
0.841674
0.838629
0.836599
0.837347
0.839572
0.842788
0.849057
0.854545
0.857058
0.858262
0.859717
0.860864
0.857297
0.853738
0.853924
0.855304
0.85675
0.860167
0.866576
0.87151
0.873894
0.875786
0.877429
0.87703
0.87332
0.871912
0.872568
0.873691
0.875362
0.878171
0.8838
0.889491
0.892509
0.893845
0.894494
0.893945
0.892072
0.891197
0.891538
0.893071
0.894728
0.896694
0.901156
0.90799
0.911803
0.91355
0.91444
0.91499
0.914507
0.911744
0.91091
0.912393
0.914483
0.916986
0.922997
0.930911
0.935115
0.937134
0.938485
0.939651
0.939087
0.934751
0.932712
0.934157
0.9369
0.940805
0.950385
0.960158
0.965139
0.968252
0.970816
0.972331
0.968074
0.961639
0.960863
0.964519
0.96996
0.980684
0.996153
1.00658
1.01357
1.02073
1.0241
1.01991
1.01404
1.01286
1.01177
1.18468
1.61632
0.823547
0.820172
0.821594
0.827011
0.838693
0.849348
0.85462
0.856698
0.85723
0.854841
0.845852
0.837763
0.836858
0.838345
0.842241
0.850655
0.861474
0.868804
0.871598
0.87292
0.872354
0.864988
0.857552
0.856636
0.857718
0.860645
0.865263
0.871339
0.878877
0.884084
0.885878
0.886156
0.883614
0.879468
0.877822
0.878425
0.880464
0.883347
0.886296
0.889778
0.895148
0.899211
0.900282
0.900266
0.900177
0.900726
0.900433
0.900808
0.902539
0.904254
0.906244
0.908259
0.911452
0.916119
0.918933
0.920857
0.922825
0.924681
0.925908
0.924602
0.924223
0.92538
0.927336
0.929535
0.93289
0.939492
0.944508
0.947613
0.950245
0.952625
0.954092
0.951192
0.948631
0.949598
0.95222
0.955483
0.961736
0.972398
0.979367
0.983396
0.98679
0.990095
0.989562
0.98295
0.979346
0.98178
0.987366
0.994968
1.00862
1.02189
1.03088
1.03897
1.04593
1.04527
1.04015
1.03576
1.02795
1.19719
1.64461
0.8275
0.824702
0.825205
0.828489
0.842288
0.858946
0.864991
0.867805
0.869304
0.863899
0.849995
0.843849
0.843537
0.844351
0.846718
0.855518
0.871117
0.879355
0.882352
0.882774
0.877574
0.869164
0.865354
0.865257
0.866287
0.868391
0.873089
0.88141
0.889115
0.892753
0.893192
0.89133
0.889746
0.889242
0.888745
0.88919
0.891069
0.894143
0.897493
0.900566
0.903514
0.906161
0.907928
0.909266
0.911227
0.913359
0.914816
0.914483
0.914899
0.916469
0.917373
0.917981
0.919471
0.924211
0.929879
0.933457
0.936279
0.938788
0.940922
0.940707
0.938689
0.938407
0.939157
0.940505
0.942871
0.949495
0.957688
0.962477
0.965874
0.968862
0.971472
0.970465
0.965774
0.964116
0.965534
0.968399
0.972716
0.983149
0.99404
1.00002
1.00415
1.00808
1.01038
1.00584
0.999323
0.997441
1.00102
1.00729
1.01728
1.03177
1.0435
1.05256
1.06088
1.06481
1.06142
1.05447
1.03784
1.20458
1.66429
0.834549
0.833579
0.834392
0.838552
0.852384
0.866858
0.873359
0.87536
0.873085
0.864113
0.856751
0.854109
0.854339
0.85601
0.859933
0.867522
0.878448
0.885596
0.887171
0.885149
0.881196
0.878759
0.877633
0.878203
0.880364
0.883697
0.886414
0.888963
0.893165
0.897115
0.898993
0.899942
0.901279
0.903283
0.904705
0.90471
0.905153
0.906272
0.906679
0.906505
0.907765
0.911929
0.917813
0.922538
0.926137
0.928818
0.930849
0.931187
0.928947
0.926658
0.925441
0.925866
0.927616
0.932161
0.941334
0.948039
0.951834
0.954503
0.956883
0.957676
0.953779
0.949306
0.948365
0.949886
0.952439
0.957984
0.96854
0.976227
0.980646
0.983894
0.986623
0.987568
0.982165
0.97623
0.975083
0.977699
0.981527
0.98949
1.00282
1.01242
1.01818
1.02231
1.02572
1.02398
1.0162
1.01106
1.01086
1.01492
1.02158
1.03274
1.04525
1.05516
1.06356
1.07016
1.07098
1.06628
1.04955
1.20407
1.67576
0.845458
0.846624
0.849714
0.856353
0.863708
0.871813
0.875897
0.87597
0.872968
0.870168
0.868225
0.867887
0.869519
0.872581
0.875623
0.8784
0.881894
0.885731
0.888407
0.889536
0.890488
0.891799
0.89343
0.894441
0.895425
0.897058
0.897147
0.894677
0.894507
0.898087
0.904992
0.910583
0.914704
0.917756
0.919798
0.920156
0.918749
0.915638
0.911645
0.910971
0.91254
0.91678
0.926249
0.935176
0.9404
0.942951
0.944862
0.945816
0.941041
0.933552
0.931247
0.932316
0.934573
0.938694
0.949062
0.959831
0.965057
0.967667
0.969831
0.970409
0.965081
0.957408
0.955019
0.956366
0.959053
0.964097
0.975058
0.986108
0.991909
0.994891
0.997233
0.998464
0.993777
0.985595
0.982444
0.983395
0.986853
0.992523
1.0049
1.01857
1.02597
1.03023
1.03378
1.03488
1.02907
1.02184
1.01898
1.02023
1.02465
1.03187
1.04311
1.05379
1.06213
1.06889
1.07223
1.07085
1.0597
1.20487
1.68334
0.858875
0.863526
0.867437
0.870073
0.87248
0.873613
0.873987
0.875481
0.877359
0.878856
0.880826
0.883735
0.885478
0.886525
0.887195
0.88557
0.883084
0.883545
0.887446
0.893902
0.90005
0.9049
0.907506
0.908745
0.908334
0.906197
0.900391
0.897415
0.897911
0.899917
0.908131
0.920011
0.926557
0.929334
0.931254
0.932352
0.928989
0.919846
0.915913
0.916359
0.917759
0.92059
0.930838
0.943891
0.9496
0.952191
0.953877
0.953319
0.947172
0.939892
0.937954
0.939001
0.940779
0.944003
0.953796
0.966183
0.972125
0.974635
0.975942
0.975459
0.971729
0.965473
0.962303
0.962853
0.964993
0.968674
0.977867
0.99033
0.997195
1.00012
1.00201
1.00297
1.00092
0.994108
0.989349
0.989218
0.991581
0.995418
1.00254
1.01597
1.02685
1.03258
1.03618
1.03926
1.03933
1.03352
1.02807
1.02656
1.02809
1.03222
1.03919
1.04937
1.05821
1.06526
1.06995
1.07139
1.06643
1.20915
1.68915
0.871015
0.878315
0.880628
0.881443
0.878353
0.872971
0.871927
0.87327
0.877559
0.884536
0.891839
0.89521
0.897219
0.897525
0.893277
0.886553
0.884669
0.885337
0.887984
0.896874
0.908412
0.913818
0.916111
0.918014
0.91721
0.909328
0.902498
0.901856
0.902938
0.904779
0.911762
0.925834
0.933497
0.936365
0.938198
0.937887
0.931082
0.923571
0.921813
0.922607
0.924063
0.926995
0.935619
0.947781
0.953766
0.956007
0.956325
0.954293
0.950739
0.946318
0.944327
0.945345
0.94785
0.951772
0.958078
0.967496
0.973172
0.975437
0.976353
0.977224
0.977429
0.973601
0.969887
0.969935
0.972049
0.974616
0.978124
0.988214
0.997388
1.00119
1.00319
1.00516
1.00683
1.00418
0.998603
0.996427
0.997202
0.999217
1.00197
1.0087
1.02163
1.03153
1.03734
1.04137
1.04473
1.04461
1.03968
1.03462
1.03244
1.03347
1.03721
1.0438
1.05333
1.06151
1.06748
1.0707
1.07025
1.21553
1.69377
0.878798
0.883846
0.885489
0.883873
0.877026
0.874255
0.874636
0.876766
0.882782
0.892313
0.898191
0.90105
0.902744
0.900519
0.892224
0.88813
0.888323
0.889647
0.894033
0.905281
0.914782
0.918883
0.921404
0.922701
0.918019
0.909486
0.906822
0.907013
0.908138
0.910576
0.91955
0.93071
0.936668
0.939154
0.939901
0.936666
0.931434
0.928067
0.92737
0.928645
0.931408
0.936216
0.94268
0.949559
0.953535
0.954934
0.954974
0.955412
0.955276
0.95331
0.952333
0.953522
0.955779
0.957538
0.959519
0.965241
0.971392
0.974282
0.97629
0.978871
0.981267
0.982269
0.978638
0.976459
0.976442
0.97719
0.978644
0.982262
0.992743
1.00142
1.00589
1.00917
1.01195
1.01367
1.00949
1.00342
1.00092
1.00081
1.00225
1.00531
1.01233
1.0253
1.03584
1.04244
1.0471
1.0504
1.05053
1.04554
1.03899
1.03564
1.03653
1.04009
1.04704
1.05712
1.06502
1.06963
1.07247
1.22261
1.69778
0.882985
0.885518
0.88384
0.879547
0.878295
0.878714
0.879983
0.885349
0.893786
0.899071
0.902106
0.904205
0.9031
0.896197
0.892649
0.892569
0.893527
0.895262
0.903712
0.914116
0.919093
0.922038
0.923666
0.921217
0.914124
0.910946
0.910883
0.91182
0.913722
0.91941
0.928115
0.934452
0.93733
0.938269
0.936918
0.935403
0.933696
0.932637
0.933608
0.936237
0.93982
0.941886
0.944602
0.948243
0.950807
0.952254
0.954089
0.956907
0.959277
0.961232
0.960333
0.959334
0.95904
0.958657
0.958781
0.961111
0.968229
0.975245
0.979601
0.9832
0.986369
0.988605
0.987405
0.982036
0.978628
0.977008
0.977445
0.979635
0.985845
0.999041
1.00887
1.01376
1.01702
1.01958
1.02014
1.01356
1.00589
1.0025
1.00226
1.00419
1.00787
1.01678
1.0306
1.04144
1.04782
1.05205
1.05412
1.05305
1.04787
1.04093
1.03742
1.03831
1.04184
1.05003
1.06063
1.06759
1.07304
1.23014
1.70146
0.884727
0.880681
0.877484
0.877823
0.879807
0.883778
0.891641
0.899338
0.902987
0.904765
0.90623
0.904187
0.896564
0.893442
0.89398
0.895421
0.897343
0.903438
0.914766
0.921047
0.923363
0.924236
0.922226
0.916277
0.912696
0.912393
0.913758
0.916769
0.921989
0.926984
0.931411
0.934492
0.935543
0.935043
0.934934
0.936546
0.937984
0.939069
0.940355
0.942543
0.943706
0.942949
0.942464
0.94397
0.948529
0.953295
0.957244
0.961311
0.965052
0.9674
0.967739
0.963773
0.959369
0.956783
0.957182
0.959253
0.964912
0.976206
0.984727
0.989395
0.991697
0.993583
0.994108
0.988004
0.979945
0.976563
0.976793
0.978958
0.982527
0.992808
1.00794
1.01654
1.02012
1.02266
1.02488
1.02325
1.01374
1.00626
1.00438
1.00562
1.00829
1.01265
1.02272
1.03598
1.04521
1.05046
1.05392
1.05528
1.05375
1.04884
1.04265
1.03935
1.03974
1.0428
1.05215
1.0621
1.07072
1.23861
1.70487
0.881387
0.874319
0.873879
0.875394
0.878793
0.888193
0.902154
0.909149
0.911054
0.911222
0.908271
0.899036
0.892946
0.892668
0.893924
0.895824
0.901256
0.911884
0.919867
0.9238
0.924812
0.9227
0.918542
0.916387
0.915401
0.916305
0.919741
0.924712
0.92771
0.928738
0.929434
0.931161
0.933586
0.935291
0.93739
0.940375
0.944134
0.946634
0.947189
0.945868
0.943193
0.940083
0.939537
0.941198
0.946843
0.956133
0.963652
0.968158
0.970536
0.972244
0.973033
0.967484
0.958303
0.955389
0.956234
0.958307
0.962846
0.975344
0.987805
0.992963
0.995492
0.997196
0.9975
0.993423
0.983956
0.978936
0.978775
0.980526
0.983387
0.988318
1.00059
1.01428
1.02062
1.02349
1.02494
1.02549
1.02329
1.01564
1.01056
1.01009
1.01188
1.01464
1.01851
1.02777
1.03899
1.04637
1.05101
1.05431
1.05586
1.05521
1.05113
1.04494
1.04063
1.04013
1.04289
1.05272
1.06519
1.24718
1.70787
0.879709
0.873798
0.874295
0.875764
0.878694
0.890875
0.905993
0.911762
0.91387
0.914255
0.907306
0.897843
0.89466
0.894669
0.896676
0.902496
0.909328
0.914893
0.919848
0.921925
0.921176
0.918955
0.919139
0.920253
0.921899
0.924262
0.926583
0.928598
0.928934
0.926366
0.924517
0.925697
0.930918
0.937571
0.943432
0.948213
0.95101
0.952773
0.953054
0.948262
0.940367
0.937163
0.937696
0.939601
0.944858
0.957823
0.968654
0.973299
0.975376
0.976531
0.974921
0.967968
0.960544
0.95761
0.958174
0.960035
0.963503
0.972232
0.986277
0.993946
0.996638
0.996821
0.996214
0.995854
0.992095
0.98605
0.984343
0.98572
0.988038
0.989819
0.992887
1.0032
1.01531
1.02136
1.02447
1.02727
1.02949
1.02814
1.02187
1.01706
1.01541
1.01575
1.01772
1.02133
1.0304
1.04073
1.04776
1.05267
1.05643
1.05869
1.05823
1.05348
1.04558
1.0394
1.03822
1.04174
1.05684
1.25488
1.71031
0.880187
0.876362
0.876762
0.879851
0.88699
0.897033
0.906236
0.911008
0.911784
0.908674
0.904551
0.901579
0.900241
0.901912
0.906233
0.910745
0.913247
0.914166
0.913647
0.914237
0.917149
0.920283
0.923615
0.927807
0.931371
0.933007
0.932906
0.931059
0.926063
0.9218
0.921537
0.92323
0.92812
0.939792
0.950277
0.955105
0.957141
0.958298
0.957461
0.949487
0.940012
0.937822
0.938679
0.940173
0.943844
0.957037
0.970568
0.975413
0.977281
0.977084
0.974714
0.970984
0.96545
0.962614
0.963461
0.966235
0.969179
0.971312
0.97807
0.988121
0.99323
0.995541
0.997603
0.999678
1.00135
0.997725
0.992066
0.990057
0.989828
0.989859
0.990945
0.994024
1.00421
1.01761
1.02568
1.0298
1.03307
1.03572
1.03499
1.02794
1.02061
1.01719
1.01724
1.01908
1.02346
1.03384
1.04454
1.05163
1.05617
1.05936
1.06085
1.05955
1.05384
1.04383
1.03633
1.03509
1.04474
1.25881
1.71168
0.883932
0.883422
0.8856
0.890987
0.89543
0.898435
0.901488
0.903656
0.904478
0.904702
0.90572
0.907752
0.911022
0.913212
0.914077
0.914985
0.914151
0.909094
0.906942
0.908313
0.913439
0.92272
0.93131
0.936836
0.939294
0.940387
0.939415
0.932312
0.922737
0.919691
0.920389
0.922062
0.92635
0.940367
0.953913
0.95866
0.960722
0.961731
0.958727
0.949882
0.94285
0.940518
0.941506
0.944277
0.949063
0.956381
0.96693
0.973058
0.9747
0.974425
0.974682
0.975734
0.974406
0.971051
0.969702
0.97022
0.970754
0.970764
0.971623
0.977492
0.988883
0.996552
1.00098
1.00488
1.00748
1.00855
1.00342
0.995672
0.991258
0.989735
0.989785
0.991473
0.995087
1.0068
1.02181
1.03055
1.03488
1.03771
1.03919
1.03758
1.02987
1.02148
1.01808
1.01879
1.02121
1.02701
1.03864
1.04936
1.05536
1.05848
1.06069
1.06113
1.05929
1.0523
1.04074
1.03303
1.03193
1.25623
1.71166
0.890639
0.893565
0.896587
0.898812
0.899768
0.898144
0.894938
0.895367
0.899251
0.904507
0.910134
0.916667
0.92039
0.921814
0.921594
0.918039
0.910005
0.904804
0.904477
0.905767
0.909376
0.922263
0.936532
0.94207
0.944233
0.945432
0.943931
0.933858
0.924053
0.921712
0.922321
0.923834
0.928406
0.941465
0.954631
0.959911
0.961486
0.959476
0.956271
0.953395
0.949141
0.947298
0.948356
0.951157
0.953609
0.955181
0.958544
0.966441
0.972347
0.975244
0.977709
0.980222
0.982448
0.981813
0.977078
0.973155
0.970437
0.968742
0.969183
0.971529
0.979741
0.994097
1.00384
1.0084
1.01127
1.01352
1.01376
1.00623
0.996184
0.991363
0.990904
0.992306
0.994572
0.998665
1.01171
1.02671
1.03399
1.03719
1.03934
1.04009
1.03764
1.03008
1.02316
1.02089
1.0217
1.02423
1.03082
1.043
1.05227
1.05652
1.05885
1.06071
1.06076
1.05855
1.04972
1.03634
1.02674
1.24769
1.71053
0.897634
0.90269
0.903885
0.904271
0.901389
0.893931
0.891559
0.892259
0.894944
0.903997
0.916701
0.923579
0.926019
0.927446
0.927309
0.919619
0.908379
0.905601
0.906109
0.907254
0.910568
0.924117
0.938642
0.943879
0.945996
0.946178
0.940924
0.933356
0.927956
0.926088
0.927025
0.930204
0.935608
0.941784
0.949966
0.955048
0.956147
0.955509
0.955899
0.957552
0.95814
0.95642
0.955325
0.955581
0.955264
0.953676
0.953617
0.957294
0.967738
0.976623
0.981732
0.985612
0.988152
0.989578
0.986693
0.97821
0.971198
0.968754
0.969234
0.970898
0.973557
0.985059
1.00186
1.00999
1.01305
1.01493
1.01582
1.01454
1.00584
0.997109
0.994367
0.995222
0.997418
1.00039
1.00484
1.01606
1.02812
1.03419
1.03713
1.03909
1.04013
1.039
1.03353
1.02743
1.02448
1.02458
1.02666
1.03275
1.04412
1.05216
1.05592
1.0586
1.06079
1.06112
1.05809
1.04504
1.02833
1.23589
1.70921
0.903518
0.906994
0.908225
0.906429
0.897793
0.892547
0.892355
0.893378
0.896083
0.907443
0.9209
0.926015
0.928103
0.92948
0.926845
0.916314
0.909763
0.908252
0.908991
0.910745
0.916961
0.928903
0.938687
0.943058
0.944104
0.941351
0.938483
0.936065
0.933669
0.933443
0.935154
0.938472
0.940744
0.941683
0.942327
0.947045
0.953172
0.956555
0.959106
0.962283
0.965379
0.966561
0.964016
0.959562
0.954901
0.951646
0.95149
0.953253
0.959638
0.973723
0.984382
0.989567
0.992347
0.994195
0.994412
0.986537
0.975303
0.97092
0.971047
0.972735
0.975571
0.980106
0.991753
1.00545
1.01152
1.01372
1.01498
1.01599
1.01553
1.00928
1.00243
1.00003
1.00042
1.00179
1.00379
1.00715
1.01721
1.02842
1.03462
1.03811
1.04093
1.04361
1.04392
1.03806
1.03014
1.0257
1.02501
1.02664
1.03257
1.04397
1.05211
1.05641
1.05976
1.06169
1.0618
1.05452
1.03804
1.2258
1.70868
0.906614
0.908821
0.909293
0.903216
0.896195
0.894594
0.895016
0.896134
0.900015
0.914135
0.924702
0.928242
0.9297
0.928835
0.922082
0.915559
0.912325
0.912303
0.91398
0.918424
0.923744
0.929691
0.93549
0.93829
0.938241
0.937395
0.938651
0.940197
0.941183
0.941417
0.942135
0.9432
0.942394
0.938679
0.937646
0.939804
0.948293
0.95773
0.964008
0.968614
0.971291
0.972715
0.971651
0.96404
0.954662
0.950863
0.951135
0.952601
0.955234
0.966811
0.983996
0.991517
0.994092
0.99552
0.995066
0.992165
0.984109
0.976877
0.975281
0.97652
0.978608
0.980609
0.983655
0.993054
1.00539
1.01225
1.01537
1.01745
1.01967
1.02039
1.01544
1.00844
1.00454
1.00325
1.00342
1.00484
1.00838
1.0188
1.03017
1.03712
1.04154
1.04477
1.04694
1.04663
1.03985
1.03036
1.02518
1.02458
1.02651
1.03255
1.04419
1.05281
1.05758
1.06075
1.06209
1.05956
1.05003
1.22151
1.7095
0.909532
0.910611
0.906847
0.898899
0.89523
0.895384
0.896433
0.898422
0.906147
0.91836
0.926026
0.928465
0.928254
0.924823
0.921588
0.91816
0.916921
0.918224
0.921579
0.925093
0.926829
0.927601
0.928848
0.932758
0.936812
0.939461
0.941917
0.945415
0.948389
0.949658
0.948685
0.945438
0.939841
0.936261
0.936358
0.937997
0.942954
0.956329
0.968232
0.97384
0.97612
0.977263
0.976176
0.967782
0.956573
0.952397
0.95262
0.954063
0.957086
0.963026
0.977008
0.989225
0.99348
0.994629
0.994936
0.995416
0.993738
0.987005
0.981822
0.980672
0.981372
0.982185
0.982928
0.984828
0.991902
1.00518
1.0144
1.01887
1.02138
1.0236
1.02514
1.02164
1.01336
1.00691
1.00424
1.00452
1.00628
1.01036
1.02164
1.03387
1.04086
1.04444
1.04694
1.04859
1.04782
1.04051
1.03053
1.02553
1.02474
1.02641
1.03262
1.04449
1.05313
1.05795
1.0612
1.0614
1.05814
1.22431
1.71177
0.914847
0.914688
0.905262
0.898296
0.896384
0.896899
0.899119
0.903914
0.910206
0.917912
0.923525
0.925158
0.924078
0.923672
0.924748
0.924362
0.92375
0.924407
0.925861
0.927223
0.92675
0.923978
0.923584
0.926719
0.935163
0.942734
0.948136
0.951917
0.954135
0.955277
0.954004
0.946396
0.937726
0.93513
0.935809
0.937369
0.940411
0.953428
0.96971
0.975682
0.977859
0.978951
0.977258
0.971241
0.962008
0.956874
0.956783
0.959008
0.962705
0.965929
0.969415
0.978886
0.98841
0.99272
0.994599
0.995846
0.99777
0.998826
0.994647
0.989119
0.986162
0.984475
0.983043
0.982757
0.984518
0.991312
1.00598
1.01708
1.02226
1.02566
1.02798
1.02903
1.02513
1.01516
1.00749
1.00514
1.00585
1.00781
1.01304
1.026
1.03743
1.0431
1.0461
1.04832
1.04965
1.04854
1.04119
1.03138
1.02616
1.02521
1.02638
1.03216
1.0437
1.05239
1.05784
1.05979
1.0638
1.23299
1.71508
0.915697
0.914108
0.906097
0.900577
0.89964
0.901101
0.904234
0.907582
0.909853
0.912702
0.916997
0.921649
0.92468
0.926823
0.928655
0.930598
0.931656
0.931128
0.929777
0.927443
0.923493
0.921047
0.921488
0.92337
0.930288
0.943754
0.953186
0.957721
0.959471
0.959984
0.957063
0.947721
0.939233
0.936755
0.937288
0.938825
0.942809
0.951378
0.965372
0.974062
0.976532
0.976118
0.974239
0.973439
0.970918
0.966217
0.964138
0.964877
0.966652
0.967865
0.967018
0.967683
0.974601
0.986027
0.993287
0.997996
1.00264
1.00563
1.00666
1.00195
0.993312
0.986523
0.982737
0.981939
0.983205
0.985437
0.993353
1.01055
1.02234
1.0265
1.02852
1.0299
1.02972
1.02496
1.01532
1.0089
1.00753
1.00882
1.01138
1.01642
1.0283
1.03874
1.04411
1.04709
1.04914
1.05055
1.05028
1.04337
1.03312
1.02689
1.02505
1.0253
1.02983
1.0414
1.05144
1.0564
1.066
1.24463
1.71896
0.913865
0.913529
0.910613
0.907354
0.905823
0.906261
0.907794
0.909341
0.909536
0.908425
0.909685
0.91623
0.925143
0.930271
0.933639
0.936178
0.937747
0.937896
0.934963
0.92797
0.921447
0.919632
0.92037
0.921869
0.926171
0.941288
0.955182
0.959859
0.961883
0.963105
0.960784
0.951436
0.942706
0.940204
0.941078
0.94404
0.947895
0.95102
0.95626
0.965494
0.971641
0.973955
0.975285
0.976745
0.978689
0.978984
0.974968
0.971365
0.969664
0.967198
0.963778
0.963179
0.96514
0.973464
0.989158
1.00101
1.00662
1.00962
1.01157
1.01152
1.00435
0.991749
0.984602
0.983382
0.984578
0.98695
0.990726
0.999439
1.01453
1.02341
1.0266
1.02801
1.02874
1.02924
1.02681
1.01976
1.01404
1.01174
1.01134
1.01266
1.0166
1.02773
1.03856
1.04466
1.04842
1.05096
1.05244
1.05252
1.04595
1.0345
1.02653
1.02322
1.02275
1.02692
1.04009
1.05057
1.06572
1.25689
1.72287
0.912918
0.913756
0.914475
0.914622
0.913437
0.912418
0.911956
0.910908
0.908087
0.906381
0.906795
0.909105
0.918911
0.930831
0.937653
0.941177
0.942745
0.943418
0.940327
0.93024
0.922332
0.920713
0.921503
0.922851
0.925621
0.936171
0.952738
0.959835
0.96169
0.961118
0.958763
0.955803
0.950659
0.947081
0.946868
0.948448
0.950201
0.951331
0.951459
0.953195
0.961519
0.971191
0.977233
0.981832
0.985733
0.987894
0.987128
0.980586
0.972305
0.965745
0.962344
0.962246
0.963592
0.965942
0.977128
0.997483
1.00757
1.01075
1.01207
1.0115
1.00894
1.00193
0.992771
0.988987
0.989458
0.991722
0.994104
0.996053
1.00134
1.01329
1.02177
1.02566
1.02805
1.03061
1.03325
1.03285
1.02562
1.01725
1.01252
1.01117
1.01183
1.01533
1.02673
1.03924
1.0467
1.05088
1.05318
1.05417
1.05376
1.04713
1.03512
1.02552
1.02075
1.01955
1.02513
1.03969
1.06067
1.26798
1.72575
0.908919
0.914521
0.917013
0.91943
0.920913
0.921017
0.918791
0.913596
0.908278
0.906198
0.90646
0.907521
0.911693
0.927229
0.939745
0.944041
0.946084
0.947417
0.945864
0.934826
0.925062
0.923038
0.923901
0.92619
0.930108
0.935079
0.944587
0.954641
0.95865
0.959384
0.959824
0.960293
0.959914
0.957097
0.954022
0.952586
0.951815
0.950137
0.947989
0.948054
0.951065
0.961882
0.976072
0.985221
0.990323
0.993029
0.994584
0.992085
0.979884
0.967919
0.963596
0.963525
0.964974
0.968398
0.974488
0.986264
1.00055
1.00684
1.00852
1.00877
1.00912
1.00964
1.00708
1.00117
0.997152
0.995789
0.995175
0.994321
0.995123
0.99982
1.01212
1.02258
1.02884
1.03358
1.03661
1.03831
1.03731
1.0283
1.01699
1.01125
1.01038
1.01151
1.01491
1.02732
1.04187
1.0499
1.05291
1.05392
1.05436
1.05348
1.04721
1.03529
1.02401
1.01776
1.01694
1.02442
1.05034
1.2755
1.72716
0.902047
0.915003
0.920503
0.924262
0.926258
0.927326
0.925722
0.91743
0.908951
0.906565
0.907056
0.908201
0.910914
0.921973
0.93908
0.945505
0.947496
0.947765
0.944877
0.938674
0.930965
0.927995
0.928772
0.931464
0.93453
0.936344
0.937702
0.942364
0.951258
0.957539
0.96119
0.964206
0.966786
0.967914
0.965074
0.959581
0.95426
0.949135
0.946071
0.945946
0.947132
0.950926
0.967063
0.984934
0.991942
0.994407
0.995876
0.994896
0.988183
0.97593
0.968998
0.96818
0.970255
0.973715
0.976198
0.978289
0.98458
0.995776
1.00353
1.00738
1.01015
1.01368
1.01606
1.01518
1.00864
1.00101
0.995489
0.992745
0.992433
0.993905
0.999794
1.015
1.02809
1.03415
1.03686
1.03873
1.03954
1.0373
1.02739
1.01669
1.01198
1.0114
1.01262
1.01648
1.02913
1.04351
1.05058
1.05265
1.05316
1.05344
1.05259
1.04766
1.03611
1.02303
1.01556
1.01359
1.03504
1.27748
1.72679
0.896793
0.913794
0.924785
0.929169
0.930841
0.931591
0.929411
0.919072
0.909713
0.908002
0.908721
0.910506
0.914731
0.922471
0.934276
0.942891
0.945147
0.94472
0.943588
0.942544
0.93964
0.936098
0.93539
0.936592
0.938125
0.937186
0.933988
0.933719
0.938424
0.950593
0.961266
0.968392
0.973182
0.975471
0.97588
0.970116
0.958352
0.949133
0.945951
0.9463
0.947616
0.950164
0.957801
0.976488
0.989377
0.993206
0.993613
0.992264
0.990994
0.987785
0.981268
0.977311
0.976703
0.977463
0.97763
0.976029
0.975947
0.980303
0.992503
1.00459
1.01215
1.0165
1.01931
1.02112
1.02019
1.01158
1.0001
0.993909
0.993018
0.994277
0.996589
1.00376
1.01961
1.0312
1.03543
1.03707
1.03733
1.03772
1.0372
1.02978
1.02007
1.01526
1.01422
1.01467
1.01708
1.02857
1.04259
1.04929
1.05113
1.05193
1.05316
1.05325
1.04946
1.0371
1.02176
1.01258
1.01629
1.27193
1.72429
0.896882
0.912352
0.927394
0.931787
0.933407
0.933947
0.928808
0.918425
0.912335
0.911241
0.912621
0.917288
0.921772
0.923637
0.926065
0.933472
0.940308
0.943083
0.944361
0.946212
0.948601
0.948921
0.945699
0.942855
0.940065
0.934668
0.930789
0.930678
0.932272
0.939585
0.958055
0.971911
0.977273
0.979735
0.980902
0.978983
0.966845
0.952452
0.947974
0.948297
0.950687
0.955515
0.960067
0.965456
0.976789
0.985964
0.989642
0.99117
0.992726
0.994847
0.995707
0.991753
0.986025
0.981882
0.977859
0.973943
0.973036
0.974332
0.978687
0.993553
1.00961
1.01714
1.02002
1.02188
1.02275
1.02074
1.01095
1.00059
0.996616
0.996794
0.998436
1.00031
1.00637
1.0205
1.03049
1.0344
1.03621
1.03804
1.03977
1.04002
1.03401
1.02426
1.0175
1.01451
1.01437
1.01601
1.02617
1.04046
1.04799
1.05066
1.05238
1.05418
1.05456
1.05101
1.03691
1.01719
1.00653
1.26016
1.7211
0.901154
0.915538
0.927071
0.932185
0.933292
0.930101
0.92568
0.9215
0.917984
0.91797
0.92052
0.923984
0.925544
0.924029
0.920982
0.921612
0.92919
0.939371
0.946171
0.952476
0.956978
0.958764
0.956947
0.949162
0.938668
0.930953
0.928916
0.929643
0.931262
0.934909
0.94972
0.970836
0.978628
0.980736
0.98004
0.975849
0.970102
0.961834
0.95574
0.95516
0.957725
0.96091
0.962599
0.962367
0.962573
0.969236
0.981064
0.989563
0.995403
1.00076
1.00374
1.00462
1.00012
0.989983
0.979997
0.974665
0.973802
0.97492
0.976854
0.98236
0.999639
1.01415
1.01935
1.02128
1.02182
1.0214
1.0198
1.01269
1.00469
1.00099
1.00032
1.00098
1.00248
1.00663
1.01885
1.0301
1.03556
1.03792
1.03971
1.04258
1.04416
1.03928
1.02744
1.0177
1.0133
1.01268
1.01397
1.02374
1.03938
1.04801
1.05114
1.05339
1.05493
1.05501
1.04998
1.03034
1.00915
1.24548
1.71888
0.907659
0.91414
0.92089
0.925596
0.926613
0.92622
0.926805
0.927653
0.928227
0.927826
0.927688
0.927734
0.925505
0.919975
0.916768
0.917033
0.919991
0.932004
0.94899
0.959184
0.963331
0.965062
0.965097
0.957553
0.940027
0.93128
0.930012
0.930863
0.934309
0.941297
0.949152
0.960617
0.971429
0.974725
0.974291
0.973514
0.973756
0.973684
0.971062
0.96723
0.965449
0.964871
0.962885
0.958277
0.956574
0.958175
0.965633
0.982242
0.996602
1.0036
1.00669
1.00861
1.00874
1.00251
0.987958
0.978483
0.976305
0.977161
0.97968
0.983617
0.989634
1.00306
1.014
1.01836
1.01979
1.02028
1.02126
1.02207
1.01899
1.01198
1.00619
1.00288
1.00131
1.00133
1.00412
1.01546
1.02839
1.03577
1.04087
1.04454
1.04652
1.04699
1.04108
1.02726
1.01571
1.01137
1.01121
1.01306
1.02333
1.03973
1.0483
1.05126
1.05356
1.05462
1.05404
1.04253
1.02393
1.23358
1.71805
0.910496
0.911487
0.910261
0.913392
0.920908
0.927031
0.932224
0.936729
0.939072
0.938265
0.934092
0.928083
0.920237
0.915215
0.914313
0.915209
0.916807
0.924273
0.947375
0.961314
0.964993
0.966415
0.964773
0.956633
0.945265
0.936587
0.935026
0.937449
0.943404
0.947741
0.949237
0.950038
0.953328
0.961883
0.968967
0.973477
0.978469
0.983455
0.985625
0.983027
0.975774
0.96789
0.960433
0.955719
0.954968
0.956134
0.958356
0.967523
0.990235
1.00373
1.00759
1.00899
1.00794
1.00396
0.99748
0.988483
0.983366
0.982837
0.984644
0.986952
0.988639
0.990754
0.998861
1.0094
1.01529
1.01855
1.022
1.02604
1.02829
1.0263
1.01716
1.0069
1.00077
0.998756
0.999102
1.00197
1.01514
1.0328
1.04155
1.04432
1.04596
1.04712
1.04672
1.04016
1.0261
1.01532
1.0118
1.01182
1.01391
1.02397
1.03866
1.04615
1.04953
1.05198
1.05358
1.04894
1.03919
1.22914
1.71895
0.909625
0.905112
0.902368
0.903544
0.911
0.926443
0.93903
0.945599
0.947894
0.948117
0.941911
0.927996
0.917662
0.914244
0.9146
0.915828
0.919605
0.929087
0.942716
0.956672
0.962119
0.962181
0.958109
0.954764
0.953052
0.949714
0.947173
0.947406
0.948889
0.949983
0.947629
0.942824
0.942153
0.946657
0.958901
0.973205
0.984289
0.990827
0.993615
0.994424
0.989149
0.974899
0.961781
0.956457
0.955995
0.957298
0.960777
0.967762
0.979125
0.994652
1.00252
1.00424
1.00363
1.00317
1.00354
1.00222
0.997753
0.993464
0.991201
0.989757
0.987153
0.984874
0.986151
0.994122
1.00748
1.01777
1.02514
1.0298
1.0319
1.03292
1.02964
1.01694
1.00405
0.999075
0.999029
1.00058
1.00454
1.0186
1.03477
1.0417
1.0438
1.04497
1.0453
1.04486
1.04048
1.02886
1.01839
1.01407
1.0137
1.01431
1.02151
1.0347
1.04284
1.04754
1.05103
1.05141
1.05033
1.23322
1.72151
0.904426
0.899882
0.899803
0.901057
0.90432
0.921092
0.942033
0.948869
0.950967
0.952129
0.948754
0.9333
0.919126
0.915764
0.916382
0.921078
0.930428
0.935752
0.937938
0.942249
0.949366
0.953859
0.955513
0.957061
0.960249
0.963603
0.963171
0.958489
0.953529
0.948106
0.941617
0.937974
0.937902
0.939245
0.945055
0.966058
0.985831
0.992778
0.995088
0.995986
0.993504
0.984162
0.969717
0.962053
0.96107
0.963654
0.968595
0.972097
0.973678
0.977221
0.986514
0.995244
0.999935
1.00288
1.00667
1.01066
1.01203
1.00836
1.00055
0.991926
0.984784
0.981572
0.981738
0.983733
0.993963
1.01348
1.02597
1.0303
1.03223
1.03316
1.03253
1.02751
1.01474
1.00511
1.00248
1.00327
1.00499
1.00718
1.01819
1.0327
1.03973
1.04232
1.04384
1.04552
1.04686
1.04477
1.03337
1.02036
1.01364
1.01198
1.01182
1.01722
1.0306
1.04079
1.04803
1.05066
1.05827
1.24294
1.72507
0.900789
0.897625
0.898446
0.900395
0.90497
0.918987
0.939464
0.949115
0.951326
0.949114
0.942403
0.935497
0.927671
0.924141
0.926002
0.931837
0.936117
0.937296
0.934692
0.9303
0.931222
0.940119
0.951951
0.961156
0.969376
0.974036
0.975608
0.97263
0.961263
0.947695
0.939681
0.937626
0.938308
0.939911
0.945081
0.957307
0.977374
0.989219
0.992461
0.991226
0.987013
0.984236
0.981814