/*--------------------------------*- C++ -*----------------------------------*\
  =========                 |
  \\      /  F ield         | OpenFOAM: The Open Source CFD Toolbox
   \\    /   O peration     | Website:  https://openfoam.org
    \\  /    A nd           | Version:  12
     \\/     M anipulation  |
\*---------------------------------------------------------------------------*/
FoamFile
{
    format      ascii;
    class       volScalarField;
    location    "18.7";
    object      rho;
}
// * * * * * * * * * * * * * * * * * * * * * * * * * * * * * * * * * * * * * //

dimensions      [1 -3 0 0 0 0 0];

internalField   nonuniform List<scalar> 
9801
(
1.0789
1.07986
1.0809
1.08369
1.08679
1.09174
1.102
1.11741
1.12794
1.13313
1.1367
1.13924
1.14015
1.1406
1.14202
1.14445
1.14775
1.15252
1.16334
1.18108
1.19303
1.19866
1.20239
1.20453
1.20382
1.20364
1.20516
1.20802
1.21185
1.21704
1.23051
1.25067
1.26262
1.26854
1.27254
1.27332
1.27113
1.27073
1.27254
1.27623
1.28073
1.28785
1.30724
1.32968
1.34043
1.34617
1.34953
1.34618
1.34222
1.34267
1.34602
1.35098
1.35719
1.37096
1.39893
1.41903
1.42882
1.43474
1.43499
1.42601
1.42227
1.42482
1.43072
1.43811
1.44922
1.47811
1.50909
1.5249
1.53426
1.54047
1.53222
1.51825
1.51634
1.52295
1.5331
1.54831
1.58705
1.63043
1.65326
1.66727
1.67639
1.67157
1.65002
1.63812
1.64622
1.66321
1.69886
1.77362
1.83009
1.86311
1.88888
1.90893
1.90195
1.88345
1.88225
1.9211
2.02629
3.65883
11.8087
1.08432
1.08386
1.08546
1.08881
1.09242
1.09677
1.10736
1.12346
1.13332
1.13898
1.14326
1.1465
1.14509
1.14313
1.14519
1.14872
1.15273
1.1573
1.16819
1.18591
1.1971
1.20335
1.20802
1.21109
1.20751
1.20499
1.20749
1.21161
1.2162
1.22143
1.23477
1.2545
1.2661
1.27258
1.27745
1.27908
1.2726
1.27061
1.27389
1.27888
1.28402
1.29088
1.30934
1.33111
1.34261
1.34945
1.35454
1.35172
1.34271
1.34223
1.34667
1.3526
1.35896
1.37147
1.39877
1.41957
1.43025
1.43709
1.44024
1.42965
1.42134
1.4236
1.43037
1.43809
1.44905
1.47822
1.50941
1.52543
1.53536
1.54282
1.53661
1.51824
1.5142
1.52185
1.53238
1.54731
1.58505
1.62449
1.64666
1.66096
1.67428
1.67584
1.64921
1.63544
1.6439
1.66208
1.691
1.74821
1.80265
1.83945
1.87016
1.89641
1.89228
1.87139
1.86401
1.88614
1.91427
3.42857
11.7995
1.08357
1.08296
1.08378
1.08673
1.09031
1.09451
1.10489
1.12136
1.13143
1.1372
1.14166
1.14514
1.14418
1.14142
1.14289
1.14631
1.15046
1.15512
1.16604
1.18366
1.19468
1.2009
1.20566
1.20884
1.20573
1.20297
1.20528
1.20944
1.21421
1.21952
1.23244
1.25171
1.26311
1.26955
1.27449
1.2765
1.27058
1.26836
1.27156
1.27642
1.28155
1.28797
1.30509
1.32638
1.33801
1.34508
1.35044
1.34939
1.34081
1.33955
1.3437
1.34948
1.35575
1.3665
1.39164
1.41269
1.42375
1.43087
1.43573
1.42834
1.41817
1.41824
1.42425
1.43185
1.4416
1.46751
1.49815
1.51517
1.52583
1.53423
1.53314
1.51504
1.50671
1.5123
1.52243
1.53511
1.56478
1.60614
1.63326
1.6498
1.66338
1.66903
1.64447
1.62346
1.6282
1.6449
1.66638
1.70991
1.77242
1.81726
1.84812
1.87552
1.87627
1.85522
1.84841
1.86558
1.86918
3.26222
11.6412
1.08272
1.08145
1.08088
1.08342
1.08718
1.09194
1.10279
1.11897
1.12898
1.13474
1.13916
1.14276
1.14239
1.13859
1.13926
1.14245
1.1468
1.15218
1.16353
1.18011
1.19063
1.19675
1.20146
1.20515
1.20329
1.19976
1.20123
1.20489
1.20955
1.21516
1.22766
1.24621
1.25767
1.2642
1.26928
1.27244
1.26739
1.26334
1.26519
1.2693
1.27443
1.28114
1.29746
1.31873
1.33093
1.33822
1.3439
1.34566
1.33686
1.33226
1.33466
1.33963
1.34584
1.35579
1.37986
1.40247
1.41433
1.42167
1.42781
1.42453
1.41044
1.40687
1.41182
1.41913
1.42789
1.44982
1.48206
1.50169
1.51321
1.52201
1.52615
1.50988
1.49393
1.4958
1.50508
1.51639
1.53849
1.58056
1.61182
1.62865
1.64137
1.65152
1.64004
1.61279
1.60449
1.61751
1.63703
1.66584
1.71838
1.76712
1.80134
1.83116
1.84645
1.83202
1.81421
1.81261
1.79189
3.14404
11.5253
1.07852
1.07712
1.07659
1.07918
1.0828
1.08792
1.09977
1.11499
1.12406
1.12946
1.13361
1.13703
1.13746
1.1343
1.1348
1.13773
1.14156
1.1466
1.15796
1.17374
1.18383
1.18989
1.19461
1.19868
1.19846
1.19436
1.19485
1.19789
1.20192
1.20698
1.21868
1.23739
1.24942
1.25613
1.26129
1.26542
1.26229
1.25629
1.25692
1.26047
1.26514
1.27123
1.28633
1.30809
1.32105
1.32832
1.3339
1.33727
1.32965
1.32203
1.32355
1.32836
1.33436
1.34319
1.36536
1.38881
1.40125
1.40871
1.41496
1.4158
1.40194
1.39384
1.39743
1.40444
1.41261
1.42981
1.46179
1.48405
1.49615
1.50511
1.51258
1.50584
1.48521
1.47869
1.48587
1.49655
1.51181
1.54759
1.58657
1.60862
1.62299
1.63583
1.63811
1.61242
1.5915
1.59185
1.60789
1.63015
1.67067
1.72342
1.76529
1.79728
1.82501
1.82816
1.81051
1.79454
1.7475
3.06834
11.4722
1.07375
1.07224
1.07215
1.07482
1.07825
1.08298
1.09501
1.11038
1.11914
1.12416
1.12793
1.13114
1.13238
1.12977
1.12971
1.13223
1.1357
1.13998
1.15033
1.16707
1.17782
1.18384
1.18841
1.19245
1.19348
1.18887
1.18799
1.1905
1.19419
1.19858
1.20862
1.22844
1.24207
1.24911
1.25417
1.25846
1.25732
1.24958
1.24819
1.25126
1.25576
1.26129
1.27451
1.29712
1.3116
1.3193
1.32491
1.3293
1.32494
1.31418
1.31263
1.31685
1.32276
1.3307
1.35046
1.37535
1.3893
1.39739
1.40413
1.409
1.40035
1.38627
1.38438
1.39012
1.39781
1.41086
1.44118
1.46917
1.48373
1.4932
1.50168
1.50448
1.48535
1.46962
1.47014
1.47958
1.49168
1.51666
1.56063
1.59334
1.61161
1.62534
1.63533
1.62238
1.59416
1.58287
1.58948
1.60678
1.6335
1.67899
1.72475
1.76047
1.79007
1.81294
1.81041
1.79605
1.7395
2.99842
11.4765
1.06982
1.06912
1.06922
1.07179
1.075
1.07886
1.08928
1.10437
1.11344
1.11894
1.12315
1.12687
1.12945
1.12693
1.12525
1.12718
1.13046
1.13431
1.14272
1.16022
1.17253
1.17896
1.18353
1.18752
1.18946
1.18447
1.18162
1.18366
1.1875
1.19216
1.20099
1.22026
1.23523
1.24295
1.2482
1.25259
1.25391
1.24589
1.24077
1.2428
1.24743
1.25331
1.26531
1.28774
1.30371
1.31204
1.31794
1.32308
1.32387
1.31275
1.30545
1.30721
1.31254
1.31967
1.33637
1.36351
1.38085
1.39004
1.39717
1.40368
1.40261
1.38589
1.3774
1.3797
1.38647
1.39595
1.42003
1.45526
1.47622
1.48706
1.49563
1.50237
1.49213
1.46938
1.46177
1.46729
1.47808
1.49384
1.53042
1.57462
1.60147
1.6176
1.63114
1.63566
1.61313
1.58965
1.58456
1.59344
1.61148
1.64257
1.68754
1.72636
1.7563
1.78186
1.79572
1.79185
1.74718
2.95515
11.51
1.06662
1.06668
1.06675
1.06937
1.07275
1.07678
1.08658
1.10054
1.10917
1.11489
1.11962
1.12374
1.12723
1.12544
1.12209
1.12342
1.12674
1.13078
1.13825
1.15525
1.16862
1.17551
1.18032
1.18446
1.18746
1.18353
1.1778
1.17847
1.18205
1.18697
1.19586
1.2146
1.23041
1.23866
1.24421
1.24897
1.25255
1.24735
1.23857
1.23782
1.24166
1.24706
1.25741
1.27966
1.29831
1.30773
1.31392
1.31942
1.32351
1.31595
1.30392
1.30182
1.30595
1.31211
1.32416
1.35189
1.37578
1.38729
1.39461
1.40124
1.40509
1.39205
1.37666
1.37443
1.37985
1.38779
1.40269
1.43786
1.4694
1.48457
1.49374
1.5017
1.50184
1.47982
1.46264
1.46156
1.46997
1.48121
1.50125
1.54435
1.58433
1.608
1.62416
1.63774
1.63762
1.6125
1.5915
1.58939
1.59981
1.61875
1.65298
1.6948
1.7275
1.75183
1.76977
1.7764
1.75647
2.93861
11.5468
1.06604
1.06622
1.06494
1.067
1.07018
1.07425
1.084
1.09952
1.10889
1.11451
1.11895
1.12287
1.12634
1.12492
1.12016
1.12066
1.12381
1.12796
1.13525
1.15227
1.16701
1.17439
1.17927
1.18341
1.18696
1.18505
1.17752
1.176
1.17892
1.18324
1.19088
1.20956
1.22765
1.23693
1.24271
1.24759
1.25193
1.25048
1.23981
1.23643
1.23908
1.24383
1.25105
1.27094
1.29427
1.30625
1.31286
1.31833
1.32323
1.32101
1.30665
1.30084
1.3033
1.30901
1.31662
1.33818
1.3692
1.38609
1.39458
1.40113
1.40628
1.40062
1.38155
1.37399
1.37711
1.38442
1.39327
1.41629
1.45564
1.4805
1.49252
1.5013
1.50856
1.50055
1.47552
1.46365
1.46469
1.47332
1.48516
1.51185
1.55791
1.59433
1.61659
1.63266
1.64408
1.63855
1.61486
1.59659
1.59548
1.60611
1.62626
1.66289
1.70145
1.7279
1.74434
1.75522
1.75563
2.94562
11.5748
1.06752
1.06764
1.06497
1.06602
1.06866
1.07214
1.07964
1.09759
1.11078
1.1164
1.12027
1.12401
1.1273
1.12622
1.12074
1.11996
1.12255
1.12638
1.1323
1.14857
1.16623
1.175
1.18005
1.18415
1.18781
1.18785
1.17996
1.17641
1.17828
1.18226
1.18769
1.20317
1.22506
1.23701
1.24327
1.24808
1.2525
1.25396
1.24455
1.23752
1.23866
1.24299
1.2484
1.26157
1.28809
1.30547
1.31345
1.31896
1.32396
1.32614
1.31465
1.3035
1.3034
1.30815
1.31427
1.32569
1.35606
1.38234
1.39423
1.40137
1.40766
1.41029
1.39533
1.37953
1.37723
1.3817
1.38906
1.40019
1.43249
1.47072
1.49106
1.50221
1.51128
1.51721
1.49983
1.47353
1.46541
1.46952
1.4794
1.49211
1.52234
1.5677
1.60068
1.6215
1.63792
1.64798
1.64229
1.61949
1.6014
1.60005
1.61043
1.63143
1.66933
1.7037
1.72398
1.73503
1.74688
2.96969
11.5973
1.07072
1.0718
1.06676
1.06637
1.06845
1.07164
1.07675
1.09292
1.11086
1.1191
1.12361
1.12705
1.12985
1.1293
1.12349
1.12118
1.12296
1.12641
1.13094
1.14369
1.16427
1.17587
1.18162
1.18579
1.18949
1.19142
1.18506
1.17876
1.17952
1.18289
1.18737
1.19707
1.22001
1.2369
1.24457
1.24957
1.25397
1.25736
1.25177
1.24149
1.24007
1.24327
1.24802
1.25514
1.27731
1.30238
1.31416
1.32052
1.32588
1.33072
1.32621
1.31111
1.30584
1.30772
1.31281
1.31951
1.3386
1.37277
1.39328
1.40269
1.40962
1.41561
1.41206
1.39137
1.3792
1.3793
1.38522
1.39328
1.4094
1.44939
1.48441
1.50146
1.51137
1.51983
1.52251
1.5013
1.47783
1.47169
1.47528
1.48401
1.498
1.53215
1.57645
1.60735
1.62739
1.64353
1.65085
1.64417
1.62239
1.60367
1.60128
1.61081
1.63291
1.67171
1.70157
1.71628
1.73154
3.00532
11.6196
1.07391
1.07732
1.07071
1.06787
1.0695
1.07259
1.07677
1.08894
1.10893
1.12003
1.12544
1.12936
1.13265
1.13413
1.12869
1.12385
1.12477
1.12774
1.13157
1.13968
1.15992
1.17563
1.1828
1.18748
1.19153
1.19506
1.19234
1.18369
1.182
1.18454
1.18831
1.19374
1.21141
1.23433
1.24546
1.2514
1.25622
1.26074
1.26053
1.24919
1.24311
1.24405
1.24771
1.25277
1.26552
1.29454
1.31427
1.32288
1.32872
1.33411
1.33633
1.32278
1.30937
1.30782
1.31147
1.31738
1.32668
1.35569
1.38839
1.4041
1.41221
1.41875
1.42368
1.4113
1.38873
1.38098
1.38336
1.38999
1.39818
1.41897
1.4631
1.49472
1.50993
1.5203
1.52964
1.52985
1.5037
1.4799
1.47476
1.4803
1.49043
1.5059
1.54164
1.58318
1.61136
1.63047
1.64598
1.65202
1.64492
1.62219
1.60248
1.59919
1.6071
1.63052
1.66869
1.69337
1.7131
3.05159
11.646
1.07582
1.08074
1.0761
1.07086
1.07194
1.07493
1.07867
1.08731
1.10598
1.11961
1.12612
1.13056
1.13431
1.1375
1.13581
1.12864
1.12744
1.12989
1.13327
1.13802
1.1535
1.17357
1.18363
1.1892
1.19371
1.1979
1.19958
1.19149
1.18548
1.18609
1.18909
1.19331
1.20358
1.22836
1.24594
1.25379
1.25905
1.26378
1.26731
1.25957
1.24737
1.24488
1.24729
1.25199
1.2589
1.28156
1.31094
1.32489
1.33173
1.33712
1.34156
1.33633
1.31799
1.30982
1.31146
1.31668
1.32294
1.33713
1.37311
1.40083
1.41254
1.41964
1.4262
1.42918
1.41118
1.38998
1.38429
1.38625
1.39283
1.40224
1.4301
1.47695
1.50665
1.52044
1.52954
1.53643
1.53294
1.50747
1.48628
1.48194
1.48689
1.49657
1.51357
1.55083
1.58941
1.61485
1.6325
1.64687
1.6516
1.64371
1.61953
1.59825
1.59364
1.60026
1.62609
1.66122
1.68821
3.10326
11.6804
1.07721
1.08259
1.08048
1.07552
1.07575
1.07846
1.08183
1.08745
1.1029
1.11853
1.12649
1.13158
1.13582
1.13964
1.14178
1.13588
1.13114
1.13212
1.13488
1.13848
1.14791
1.16952
1.18424
1.19122
1.19613
1.20047
1.20422
1.2004
1.18991
1.18744
1.18981
1.19392
1.20004
1.21954
1.24422
1.25577
1.26171
1.26642
1.27057
1.26931
1.25509
1.24713
1.24845
1.25256
1.25782
1.26938
1.29991
1.32361
1.33323
1.33903
1.34412
1.34723
1.33437
1.31739
1.31357
1.31577
1.32091
1.32785
1.34956
1.38842
1.41149
1.42195
1.4293
1.43605
1.43436
1.40965
1.38997
1.38704
1.39162
1.39886
1.40791
1.43771
1.48441
1.51152
1.52472
1.53491
1.54392
1.54049
1.51335
1.49164
1.48701
1.49244
1.50245
1.5214
1.55934
1.59458
1.61766
1.63432
1.6474
1.65117
1.64122
1.61473
1.59181
1.58554
1.5916
1.61895
1.65557
3.14974
11.7175
1.07888
1.08462
1.08467
1.08066
1.08008
1.0823
1.08542
1.08899
1.0997
1.11749
1.12773
1.13347
1.13799
1.14197
1.14556
1.14352
1.13554
1.1339
1.1361
1.13969
1.14566
1.16419
1.18415
1.19334
1.19862
1.20296
1.20694
1.20754
1.19668
1.19012
1.19158
1.19518
1.19969
1.21056
1.23729
1.25596
1.26365
1.26855
1.27293
1.27614
1.26765
1.25376
1.25113
1.25368
1.25808
1.26382
1.28226
1.31515
1.33322
1.34094
1.34667
1.35185
1.35122
1.33256
1.3176
1.3156
1.31905
1.32514
1.33401
1.36387
1.4026
1.42152
1.42989
1.43574
1.44238
1.43895
1.41323
1.39608
1.39302
1.39497
1.40105
1.41173
1.44602
1.49343
1.5211
1.53451
1.54402
1.55004
1.54383
1.51883
1.4977
1.49245
1.4973
1.50701
1.52853
1.56791
1.60066
1.62141
1.63609
1.64721
1.64972
1.63781
1.60929
1.58341
1.57497
1.58012
1.61469
3.17518
11.7524
1.0814
1.08732
1.08914
1.08575
1.08332
1.08453
1.08712
1.09049
1.09758
1.11583
1.12967
1.1362
1.14076
1.14472
1.14839
1.14918
1.1405
1.13596
1.13769
1.1412
1.1457
1.15851
1.18186
1.19518
1.20114
1.2054
1.20931
1.21223
1.20566
1.1952
1.19386
1.19647
1.20036
1.20591
1.22508
1.25225
1.265
1.27109
1.27581
1.28039
1.28053
1.26566
1.25503
1.25449
1.25738
1.26226
1.27018
1.29726
1.32842
1.34259
1.34964
1.3552
1.36019
1.3539
1.33142
1.31996
1.32006
1.32402
1.32986
1.34018
1.37493
1.41148
1.42851
1.43821
1.44601
1.45241
1.44393
1.41453
1.39703
1.39544
1.40076
1.40831
1.41882
1.45249
1.49838
1.5245
1.53784
1.548
1.55509
1.54999
1.52446
1.50208
1.4962
1.5009
1.51115
1.53554
1.5751
1.60525
1.62425
1.63801
1.6469
1.64712
1.63322
1.60266
1.57483
1.55914
1.56702
3.16678
11.7895
1.0849
1.0909
1.0936
1.09087
1.08565
1.08559
1.08809
1.09158
1.09651
1.11204
1.1309
1.13943
1.14382
1.14752
1.15093
1.15294
1.14629
1.13926
1.13991
1.14316
1.14708
1.15392
1.17508
1.19512
1.20331
1.20795
1.21192
1.21565
1.21488
1.20313
1.19666
1.19764
1.2009
1.20536
1.21463
1.2417
1.26455
1.2738
1.27906
1.28347
1.28722
1.28072
1.26307
1.25617
1.25768
1.26193
1.26722
1.27888
1.31221
1.33931
1.35026
1.35638
1.3618
1.36662
1.35659
1.33335
1.32359
1.32335
1.32687
1.33294
1.34699
1.38769
1.42384
1.43923
1.44669
1.45202
1.45765
1.44938
1.4215
1.40558
1.40339
1.406
1.41212
1.42362
1.45936
1.50405
1.52971
1.54331
1.55341
1.55875
1.55324
1.52923
1.50649
1.49988
1.50359
1.51345
1.53999
1.5802
1.60935
1.62685
1.63846
1.64451
1.64281
1.62741
1.59524
1.56034
1.53379
3.12479
11.8303
1.0891
1.09513
1.0978
1.09607
1.08892
1.08731
1.08936
1.09259
1.09643
1.10625
1.1282
1.14154
1.1469
1.15044
1.15374
1.15652
1.15349
1.14471
1.14277
1.14506
1.14852
1.15269
1.1651
1.19036
1.20476
1.21074
1.21479
1.21858
1.22148
1.21434
1.20197
1.19958
1.20229
1.20629
1.21112
1.226
1.25663
1.27416
1.28118
1.2857
1.29022
1.29286
1.27967
1.26358
1.26026
1.262
1.26599
1.27162
1.2885
1.32538
1.3489
1.35885
1.36528
1.37108
1.37396
1.35777
1.33394
1.32598
1.32809
1.33342
1.33938
1.35304
1.39388
1.42809
1.44315
1.45299
1.46117
1.46704
1.45629
1.42636
1.40848
1.40628
1.41143
1.41912
1.43074
1.46532
1.50783
1.53227
1.5459
1.55628
1.56252
1.558
1.53328
1.50909
1.50128
1.50414
1.51362
1.54152
1.58239
1.61079
1.6271
1.63709
1.64093
1.63752
1.62056
1.58006
1.52733
3.05335
11.8727
1.09315
1.09962
1.1019
1.10192
1.09476
1.09012
1.09128
1.0941
1.09747
1.10232
1.11955
1.14081
1.14976
1.15397
1.15725
1.1604
1.16104
1.15267
1.14636
1.1468
1.14947
1.1531
1.15859
1.17852
1.20271
1.21296
1.21791
1.22191
1.2259
1.22625
1.21352
1.20447
1.20432
1.20652
1.21031
1.21631
1.23898
1.2692
1.28279
1.28922
1.29402
1.29848
1.29757
1.27928
1.26488
1.26276
1.26533
1.26992
1.27662
1.30045
1.33852
1.35849
1.36651
1.37123
1.37671
1.37993
1.36223
1.33972
1.33303
1.33303
1.3361
1.34205
1.35845
1.40251
1.43831
1.45337
1.46095
1.46673
1.47209
1.46311
1.43516
1.41765
1.41446
1.4169
1.42279
1.43515
1.47192
1.51339
1.53671
1.54965
1.55952
1.56525
1.56154
1.5371
1.51073
1.50115
1.50291
1.51156
1.54069
1.58304
1.61152
1.62639
1.63378
1.63561
1.63188
1.60759
1.55116
2.98118
11.921
1.09464
1.10326
1.10595
1.1081
1.10444
1.09588
1.09397
1.096
1.09901
1.10243
1.11054
1.13362
1.15052
1.1571
1.16089
1.16428
1.16723
1.16352
1.15268
1.14916
1.15083
1.15376
1.1576
1.16641
1.19286
1.21343
1.22141
1.22595
1.22985
1.23337
1.22855
1.21264
1.20581
1.20671
1.20987
1.21444
1.22386
1.25366
1.28079
1.29192
1.29791
1.3027
1.30691
1.3011
1.27899
1.26718
1.26719
1.27086
1.27568
1.2824
1.30918
1.34627
1.36431
1.37324
1.38014
1.38618
1.38685
1.36538
1.34187
1.3349
1.33735
1.34275
1.34855
1.36279
1.40506
1.44029
1.45581
1.46589
1.4744
1.48021
1.47092
1.4415
1.42115
1.41673
1.42089
1.42838
1.4419
1.47878
1.51773
1.53976
1.55316
1.56358
1.57018
1.56572
1.53836
1.51017
1.49955
1.50062
1.50871
1.53851
1.58213
1.61031
1.6235
1.62848
1.62979
1.62145
1.59066
2.9405
11.9718
1.09422
1.10457
1.10794
1.11142
1.11355
1.10687
1.09892
1.09849
1.10085
1.10392
1.10774
1.12146
1.14627
1.15881
1.16434
1.16805
1.17163
1.17353
1.16462
1.15424
1.15267
1.15466
1.15801
1.16253
1.17768
1.2072
1.22317
1.22976
1.23382
1.23735
1.23942
1.22817
1.21232
1.20884
1.21134
1.21544
1.22022
1.23307
1.2665
1.28974
1.29863
1.30381
1.30851
1.31302
1.30497
1.28253
1.27262
1.27213
1.27427
1.2788
1.28745
1.3193
1.35718
1.37435
1.3816
1.38596
1.39181
1.39346
1.3723
1.34961
1.34292
1.34248
1.34482
1.35051
1.36666
1.41166
1.44949
1.46562
1.47358
1.47964
1.48421
1.47684
1.44986
1.4292
1.42375
1.42578
1.43175
1.44598
1.48553
1.52504
1.54626
1.55753
1.5662
1.57179
1.56779
1.54071
1.51061
1.49806
1.49761
1.50454
1.5351
1.58023
1.60776
1.61854
1.6223
1.61971
1.61893
2.94594
12.0202
1.09181
1.10581
1.10984
1.11375
1.11732
1.11814
1.10881
1.10248
1.1029
1.10527
1.10842
1.11419
1.13527
1.15764
1.16656
1.17132
1.17501
1.17854
1.17771
1.16407
1.15566
1.15638
1.15963
1.16337
1.16894
1.19078
1.21883
1.23037
1.23579
1.24004
1.24451
1.24511
1.22894
1.21578
1.21439
1.2162
1.21957
1.22451
1.24169
1.27691
1.29769
1.30633
1.31208
1.31736
1.32067
1.30791
1.28423
1.27478
1.27586
1.28012
1.28494
1.29296
1.32476
1.36149
1.37827
1.3877
1.39516
1.40122
1.40081
1.3777
1.35254
1.34399
1.34591
1.35148
1.35785
1.37153
1.41361
1.45071
1.46688
1.47647
1.48483
1.49094
1.4851
1.45768
1.43401
1.42636
1.42869
1.43544
1.45101
1.49077
1.52801
1.54749
1.55924
1.56919
1.57583
1.57181
1.54278
1.50996
1.49513
1.49361
1.49958
1.53088
1.57663
1.60252
1.61225
1.61097
1.6304
2.98743
12.067
1.08786
1.1069
1.11195
1.11616
1.11979
1.12322
1.12077
1.10933
1.10537
1.10699
1.11007
1.1138
1.12429
1.15022
1.16721
1.17389
1.17798
1.18146
1.18455
1.17901
1.1643
1.15987
1.1616
1.16452
1.16814
1.17618
1.20405
1.22883
1.2385
1.24385
1.24835
1.25235
1.24816
1.22871
1.21738
1.21671
1.21955
1.22362
1.22944
1.25135
1.28751
1.30637
1.31378
1.31807
1.32273
1.32664
1.31335
1.29014
1.28178
1.28127
1.28311
1.28767
1.29724
1.33228
1.37132
1.38866
1.39586
1.40008
1.40562
1.40732
1.38652
1.36154
1.3531
1.35255
1.3544
1.35976
1.37464
1.41874
1.45814
1.47538
1.48358
1.49018
1.49521
1.4912
1.46555
1.43986
1.43057
1.43113
1.43607
1.4513
1.49364
1.53361
1.55428
1.56457
1.57224
1.57763
1.5743
1.54548
1.50925
1.49137
1.48857
1.49365
1.52547
1.57042
1.59531
1.60043
1.62718
3.05246
12.112
1.08301
1.10703
1.11416
1.1186
1.12221
1.12567
1.12795
1.11974
1.11
1.10953
1.11224
1.11558
1.12006
1.13683
1.16279
1.17471
1.18
1.18403
1.18788
1.19037
1.18004
1.16633
1.16361
1.16555
1.16885
1.17314
1.18588
1.21755
1.23865
1.24694
1.25155
1.25508
1.25857
1.25064
1.22966
1.2208
1.22161
1.22494
1.22897
1.23476
1.25885
1.29463
1.312
1.32004
1.32636
1.33174
1.33412
1.31769
1.2929
1.28359
1.28487
1.2894
1.2944
1.30246
1.33507
1.3732
1.39074
1.40055
1.40825
1.41431
1.41531
1.39476
1.3672
1.35502
1.35509
1.36018
1.36692
1.3806
1.42152
1.45913
1.47642
1.48652
1.49496
1.50084
1.49705
1.4708
1.44275
1.43123
1.43173
1.43798
1.45408
1.4957
1.53475
1.55464
1.5658
1.57479
1.58042
1.57692
1.54707
1.50748
1.48652
1.48252
1.48719
1.51934
1.563
1.58247
1.6148
3.12588
12.154
1.07797
1.10359
1.11578
1.12104
1.12472
1.12816
1.13144
1.13037
1.11857
1.11331
1.1146
1.11729
1.12051
1.12707
1.15067
1.17364
1.18262
1.18735
1.19121
1.19496
1.19465
1.17906
1.16769
1.16736
1.17045
1.17417
1.17877
1.19521
1.22789
1.24605
1.25346
1.25881
1.26318
1.26609
1.25485
1.23401
1.2264
1.22657
1.22863
1.23277
1.23982
1.26771
1.30433
1.32126
1.32816
1.3321
1.33711
1.3406
1.32492
1.30042
1.29177
1.29097
1.29223
1.29653
1.30547
1.34039
1.38187
1.40089
1.40848
1.41286
1.41826
1.4219
1.40522
1.37701
1.36429
1.36272
1.36439
1.36912
1.3829
1.42562
1.46533
1.48278
1.49084
1.49698
1.50312
1.50342
1.47908
1.4486
1.4357
1.4343
1.43801
1.45161
1.49431
1.53718
1.55895
1.56912
1.57614
1.58069
1.57752
1.54851
1.506
1.48147
1.47606
1.47987
1.51336
1.54985
1.59104
3.19687
12.1881
1.07498
1.09448
1.11534
1.12386
1.12798
1.13132
1.13447
1.13704
1.13017
1.11877
1.11668
1.11876
1.12197
1.1258
1.13679
1.16499
1.18363
1.19055
1.19433
1.19781
1.20126
1.19631
1.17876
1.17152
1.17224
1.17454
1.17808
1.18341
1.20427
1.23778
1.25472
1.26192
1.26696
1.27153
1.27359
1.25863
1.23649
1.22902
1.23063
1.23458
1.23879
1.24542
1.27346
1.3091
1.32545
1.3339
1.34059
1.34599
1.3481
1.33079
1.30457
1.29335
1.29378
1.29821
1.30365
1.31119
1.34228
1.38244
1.40181
1.4118
1.4199
1.42618
1.42902
1.4139
1.38459
1.36744
1.36437
1.36823
1.37458
1.38827
1.4285
1.46502
1.4823
1.49387
1.50354
1.50947
1.50865
1.48382
1.45106
1.43511
1.43325
1.43797
1.45182
1.49316
1.53566
1.55729
1.56816
1.57595
1.58069
1.57798
1.55003
1.50504
1.47617
1.46824
1.47261
1.50207
1.55548
3.25038
12.2152
1.07534
1.08485
1.10845
1.12525
1.1315
1.1347
1.13775
1.14084
1.14084
1.12856
1.12029
1.12081
1.12382
1.12731
1.13148
1.14727
1.17696
1.19185
1.19787
1.20151
1.20501
1.20758
1.19734
1.17963
1.17402
1.17555
1.17901
1.18318
1.18932
1.21348
1.24628
1.26127
1.26768
1.27202
1.27627
1.27896
1.26417
1.24282
1.23626
1.2364
1.23825
1.24237
1.25028
1.28088
1.31831
1.3352
1.34186
1.34541
1.35005
1.35402
1.33992
1.31381
1.30267
1.3013
1.30199
1.30545
1.31317
1.34528
1.38928
1.41108
1.41943
1.42416
1.42963
1.43467
1.4242
1.39446
1.37553
1.37119
1.37218
1.37628
1.38912
1.43171
1.47287
1.49125
1.49939
1.50536
1.51167
1.51366
1.49083
1.45634
1.43877
1.43549
1.43807
1.44819
1.48836
1.53395
1.55788
1.56913
1.57621
1.58009
1.57716
1.55064
1.50466
1.47113
1.45978
1.45899
1.5094
3.27498
12.2413
1.07704
1.08215
1.09465
1.12025
1.1333
1.1385
1.14169
1.14476
1.1476
1.14254
1.12855
1.12421
1.12577
1.12846
1.13174
1.13685
1.15784
1.18709
1.20005
1.20585
1.20941
1.21288
1.21382
1.19843
1.18198
1.17921
1.18177
1.18496
1.18837
1.19442
1.22038
1.25291
1.26746
1.27412
1.27942
1.28426
1.28566
1.26875
1.24609
1.23857
1.24035
1.24473
1.24933
1.25607
1.28415
1.32036
1.33723
1.34606
1.35316
1.35872
1.36182
1.34854
1.32104
1.30542
1.30304
1.30658
1.31192
1.31882
1.34639
1.38849
1.41061
1.42161
1.43045
1.43704
1.44114
1.43204
1.40272
1.37961
1.37235
1.37456
1.38026
1.39375
1.43429
1.47248
1.49017
1.50144
1.5111
1.51779
1.51921
1.4965
1.45998
1.43881
1.43375
1.43681
1.44708
1.4851
1.53103
1.55657
1.56856
1.575
1.57768
1.5738
1.54984
1.5047
1.46829
1.44458
1.4577
3.25382
12.2705
1.07885
1.08274
1.08688
1.10509
1.13079
1.1417
1.14621
1.14929
1.15226
1.15373
1.14307
1.13003
1.12766
1.12978
1.13292
1.13639
1.14262
1.16775
1.19584
1.20745
1.21311
1.21712
1.22085
1.2205
1.20265
1.18726
1.18448
1.18575
1.18862
1.19277
1.20058
1.22929
1.26143
1.27532
1.28115
1.28436
1.28867
1.29152
1.27654
1.25462
1.24753
1.24732
1.24831
1.252
1.25906
1.28815
1.32749
1.34676
1.35422
1.35823
1.36296
1.36792
1.35937
1.33179
1.31467
1.31097
1.31098
1.31367
1.32006
1.34825
1.39466
1.42012
1.42964
1.43464
1.43994
1.44561
1.44141
1.4129
1.38703
1.37843
1.3781
1.38136
1.3924
1.43376
1.47869
1.5001
1.50863
1.51452
1.52051
1.52394
1.50506
1.46666
1.44216
1.43548
1.4366
1.4432
1.4786
1.52674
1.5541
1.56618
1.57207
1.57394
1.56965
1.54771
1.50507
1.45654
1.43027
3.18652
12.3071
1.08057
1.08383
1.08694
1.09338
1.11671
1.14045
1.14974
1.15381
1.1566
1.1597
1.15906
1.14411
1.13301
1.13225
1.13449
1.13728
1.14072
1.14819
1.17627
1.2038
1.21518
1.22114
1.22581
1.22986
1.2271
1.20588
1.18999
1.18815
1.19135
1.19563
1.19937
1.20619
1.23454
1.26573
1.27914
1.28625
1.29214
1.29711
1.29928
1.2841
1.2602
1.24979
1.24989
1.25354
1.25806
1.26371
1.28874
1.32748
1.34774
1.35796
1.36587
1.37163
1.37571
1.36844
1.34094
1.31903
1.31259
1.31496
1.32033
1.32699
1.35073
1.39398
1.41915
1.43082
1.44018
1.44705
1.45194
1.44823
1.42103
1.39167
1.37934
1.37916
1.38404
1.39542
1.43401
1.47733
1.49843
1.50992
1.51995
1.52667
1.52903
1.50975
1.47015
1.4424
1.43316
1.43388
1.44012
1.47299
1.52178
1.55134
1.56395
1.56875
1.56937
1.56421
1.54481
1.49537
1.43777
3.09197
12.3564
1.0838
1.08575
1.08869
1.09218
1.10024
1.12658
1.14877
1.15737
1.16163
1.1648
1.16792
1.16374
1.14609
1.13662
1.13613
1.13805
1.14126
1.14522
1.15442
1.18487
1.21157
1.22193
1.22699
1.23082
1.23518
1.2335
1.21312
1.19876
1.1967
1.19719
1.19891
1.20268
1.21068
1.24027
1.27322
1.28781
1.29385
1.2976
1.30251
1.30639
1.29413
1.26921
1.258
1.25623
1.25637
1.25937
1.26531
1.29085
1.33406
1.35797
1.3667
1.37093
1.37505
1.38037
1.37814
1.35268
1.32896
1.3217
1.32096
1.32248
1.32788
1.35113
1.39808
1.42792
1.4392
1.44465
1.44957
1.45549
1.45603
1.43116
1.39917
1.38543
1.38318
1.38527
1.39286
1.4287
1.47897
1.50645
1.51666
1.52222
1.52705
1.5306
1.51702
1.47757
1.44518
1.43322
1.43188
1.43591
1.46587
1.51682
1.54858
1.5608
1.56412
1.56289
1.55831
1.5339
1.48347
3.01221
12.4168
1.08992
1.08841
1.09057
1.09331
1.09695
1.10726
1.13616
1.15729
1.16559
1.1699
1.17297
1.1757
1.16779
1.14778
1.13925
1.14012
1.14349
1.14691
1.15045
1.15982
1.19133
1.21754
1.22813
1.23438
1.23944
1.24336
1.23899
1.21687
1.20055
1.19748
1.20006
1.2038
1.20786
1.21454
1.24254
1.27569
1.29101
1.29953
1.30623
1.31126
1.31424
1.30206
1.27525
1.2598
1.25775
1.26106
1.2662
1.27182
1.29276
1.33354
1.35769
1.36845
1.37655
1.38271
1.38748
1.38559
1.3618
1.33449
1.32307
1.32325
1.32788
1.33411
1.35348
1.39663
1.42593
1.4392
1.44941
1.45692
1.46233
1.46233
1.43861
1.40431
1.38621
1.38282
1.38614
1.39414
1.42638
1.47507
1.50202
1.51463
1.52491
1.53163
1.53433
1.52061
1.48063
1.44546
1.43068
1.4283
1.43173
1.46002
1.51162
1.54414
1.5554
1.55708
1.55666
1.5476
1.53415
2.98183
12.4754
1.09976
1.09142
1.09268
1.09562
1.09877
1.10271
1.1149
1.14486
1.16445
1.17207
1.17666
1.18003
1.18245
1.17301
1.15363
1.14626
1.14642
1.14793
1.15096
1.15503
1.1659
1.1989
1.22586
1.23668
1.24176
1.24463
1.24825
1.24495
1.22279
1.20716
1.20454
1.20541
1.20705
1.21062
1.21785
1.24745
1.28418
1.30104
1.30744
1.31061
1.31445
1.31888
1.31152
1.28558
1.26947
1.26639
1.26661
1.26847
1.27338
1.29304
1.33676
1.36577
1.37658
1.38124
1.38504
1.39057
1.39301
1.37433
1.34602
1.3331
1.33007
1.32994
1.33382
1.35089
1.39734
1.43403
1.44856
1.45498
1.45965
1.46548
1.46868
1.44885
1.41236
1.39192
1.38708
1.38795
1.39271
1.41945
1.47278
1.50834
1.52127
1.52664
1.53033
1.53331
1.52554
1.48807
1.44808
1.4295
1.42523
1.42694
1.45309
1.50578
1.53881
1.54875
1.55101
1.54455
1.5634
3.00603
12.5256
1.11458
1.0996
1.09647
1.09843
1.10128
1.10424
1.1079
1.12106
1.1516
1.17084
1.17881
1.18387
1.18783
1.1903
1.17919
1.15767
1.149
1.15001
1.15341
1.15674
1.1601
1.16982
1.20258
1.22943
1.2404
1.24737
1.2527
1.25679
1.25342
1.23144
1.21207
1.20666
1.20875
1.21286
1.21759
1.22376
1.2497
1.28532
1.30212
1.3103
1.31701
1.32211
1.32617
1.32083
1.2958
1.2749
1.26823
1.26982
1.27424
1.27923
1.29414
1.33409
1.36345
1.37625
1.38633
1.39403
1.39933
1.40136
1.38426
1.35241
1.3333
1.3297
1.33315
1.33893
1.35381
1.39594
1.43158
1.44765
1.45857
1.46718
1.47292
1.47482
1.4559
1.41843
1.39396
1.3867
1.38822
1.39359
1.41717
1.46785
1.50244
1.51675
1.52635
1.53343
1.53658
1.5292
1.4919
1.44828
1.42576
1.42
1.42145
1.44707
1.49967
1.53172
1.54239
1.5374
1.57309
3.06466
12.5693
1.12751
1.11642
1.10313
1.10131
1.10307
1.10542
1.10846
1.11228
1.12574
1.15724
1.17716
1.18501
1.18977
1.19368
1.19666
1.18663
1.16558
1.1571
1.15625
1.15652
1.15905
1.16293
1.17405
1.20866
1.23809
1.25018
1.25584
1.26017
1.26421
1.2613
1.23805
1.21852
1.21426
1.21573
1.21713
1.22038
1.22634
1.25167
1.29025
1.31039
1.31809
1.32192
1.32629
1.33163
1.33118
1.30888
1.28523
1.27698
1.27552
1.27558
1.27937
1.29313
1.33548
1.37276
1.38816
1.39498
1.3998
1.40395
1.40667
1.39342
1.36205
1.34213
1.33724
1.33723
1.34012
1.35119
1.39348
1.4376
1.45747
1.46509
1.46935
1.47459
1.47914
1.46639
1.42847
1.40014
1.39081
1.39013
1.39302
1.41032
1.46212
1.50609
1.52336
1.5288
1.53224
1.5348
1.53116
1.49664
1.44916
1.4224
1.415
1.41572
1.44105
1.49278
1.52403
1.52791
1.56936
3.14151
12.6116
1.13404
1.1357
1.11921
1.1072
1.10574
1.10763
1.10989
1.11208
1.11575
1.13049
1.16359
1.18381
1.19196
1.1972
1.20162
1.20417
1.19231
1.16856
1.15803
1.15814
1.16114
1.1652
1.16953
1.17998
1.21384
1.24316
1.25466
1.25998
1.26311
1.2662
1.26627
1.24955
1.22802
1.21885
1.21884
1.2221
1.22633
1.23101
1.25098
1.28834
1.31012
1.32077
1.32949
1.33542
1.3399
1.33957
1.31935
1.29156
1.27789
1.27672
1.28047
1.2859
1.29789
1.33637
1.3734
1.38943
1.39734
1.40297
1.40804
1.41241
1.40393
1.37279
1.34705
1.33818
1.33954
1.34428
1.35421
1.39074
1.4333
1.45404
1.4658
1.47568
1.48205
1.48559
1.47395
1.43634
1.40394
1.39076
1.38976
1.39357
1.40906
1.4574
1.50051
1.51777
1.52575
1.53223
1.53614
1.53289
1.49969
1.44923
1.41813
1.40925
1.41012
1.43608
1.48562
1.50737
1.5557
3.22357
12.6506
1.13928
1.14532
1.14154
1.12365
1.11205
1.10974
1.11003
1.11247
1.11611
1.12092
1.13764
1.17125
1.1914
1.19928
1.20363
1.20669
1.20904
1.19836
1.17527
1.16555
1.16578
1.16821
1.1712
1.1745
1.18289
1.2145
1.24495
1.25753
1.26387
1.2698
1.27459
1.2766
1.26324
1.23981
1.22821
1.22594
1.22542
1.22706
1.23168
1.25075
1.29265
1.32045
1.33084
1.33569
1.33864
1.34325
1.34613
1.33111
1.30191
1.28717
1.28496
1.28586
1.28883
1.29778
1.33329
1.37444
1.39448
1.40285
1.40808
1.41291
1.41809
1.41463
1.38556
1.35673
1.34573
1.34342
1.34423
1.35052
1.38381
1.43535
1.46406
1.47427
1.4793
1.48363
1.48829
1.48264
1.44684
1.40994
1.39435
1.39144
1.39266
1.40303
1.45027
1.50032
1.52193
1.5286
1.5323
1.53494
1.53232
1.50265
1.45001
1.41437
1.40392
1.40386
1.43082
1.46984
1.52867
3.29924
12.6808
1.14263
1.15094
1.1536
1.148
1.12577
1.11264
1.11208
1.11488
1.11865
1.12219
1.1264
1.14308
1.17697
1.1966
1.20441
1.20988
1.21452
1.21705
1.20446
1.18053
1.16957
1.16846
1.17037
1.17302
1.177
1.18555
1.21659
1.2505
1.26606
1.27266
1.27739
1.28196
1.28516
1.27472
1.24869
1.23089
1.22651
1.22865
1.23288
1.2382
1.25374
1.29213
1.31993
1.33178
1.33954
1.34571
1.35037
1.35317
1.34137
1.31196
1.29239
1.28715
1.28916
1.29373
1.30143
1.33158
1.37391