/*--------------------------------*- C++ -*----------------------------------*\
  =========                 |
  \\      /  F ield         | OpenFOAM: The Open Source CFD Toolbox
   \\    /   O peration     | Website:  https://openfoam.org
    \\  /    A nd           | Version:  12
     \\/     M anipulation  |
\*---------------------------------------------------------------------------*/
FoamFile
{
    format      ascii;
    class       volScalarField;
    location    "29.7";
    object      rho;
}
// * * * * * * * * * * * * * * * * * * * * * * * * * * * * * * * * * * * * * //

dimensions      [1 -3 0 0 0 0 0];

internalField   nonuniform List<scalar> 
9801
(
1.23599
1.29649
1.32471
1.34188
1.34649
1.33731
1.30467
1.26243
1.24171
1.24214
1.25529
1.30005
1.36727
1.40133
1.41209
1.41537
1.39885
1.36403
1.33827
1.33385
1.34055
1.3895
1.48234
1.54482
1.56887
1.57938
1.5848
1.56605
1.50011
1.41382
1.34535
1.31432
1.30809
1.30963
1.31507
1.35521
1.51705
1.67758
1.72956
1.74542
1.74884
1.70922
1.60125
1.46883
1.38744
1.36041
1.35777
1.3615
1.37254
1.41691
1.57888
1.77294
1.84932
1.87385
1.88353
1.86028
1.78607
1.66992
1.55952
1.50044
1.48281
1.48377
1.49214
1.52532
1.67624
1.90416
2.00282
2.0308
2.04134
2.0037
1.883
1.74632
1.68473
1.67781
1.68589
1.70365
1.758
1.87881
1.99123
2.05511
2.09435
2.12588
2.14546
2.11721
2.0803
2.07931
2.10461
2.13987
2.19289
2.2957
2.40707
2.48743
2.55131
2.62591
2.66177
2.61836
2.49416
5.71054
40.7043
1.21744
1.25898
1.28547
1.30512
1.31535
1.32121
1.3241
1.30703
1.29151
1.29469
1.30683
1.32325
1.34404
1.36524
1.37197
1.36405
1.35048
1.34096
1.34201
1.34828
1.38373
1.45112
1.49939
1.52939
1.54702
1.55293
1.52979
1.47783
1.43149
1.3996
1.37281
1.34812
1.33874
1.34384
1.37293
1.45471
1.55954
1.64129
1.68327
1.69297
1.66879
1.60957
1.54358
1.48687
1.43502
1.40757
1.40581
1.41573
1.44938
1.53396
1.63162
1.71705
1.77856
1.79972
1.78807
1.74762
1.69768
1.65054
1.60151
1.55641
1.53929
1.54533
1.57202
1.64716
1.75377
1.85251
1.92836
1.95737
1.94966
1.89676
1.82262
1.76905
1.73647
1.72874
1.73712
1.75958
1.83103
1.92551
1.99174
2.03401
2.06044
2.07084
2.06326
2.03996
2.0229
2.02982
2.05512
2.08857
2.14159
2.24491
2.35189
2.42679
2.48342
2.53364
2.52897
2.49709
2.3374
5.25994
40.27
1.19151
1.19395
1.2135
1.25367
1.29084
1.31575
1.33475
1.34886
1.3493
1.33475
1.32442
1.32126
1.31177
1.29784
1.29441
1.30276
1.31503
1.32769
1.34505
1.3788
1.43797
1.48401
1.50111
1.50465
1.50347
1.47369
1.42223
1.38836
1.37893
1.38113
1.38056
1.37653
1.37877
1.39947
1.45205
1.51125
1.55649
1.57818
1.58735
1.58117
1.55762
1.52958
1.50668
1.48856
1.47572
1.46846
1.46797
1.48218
1.53548
1.59741
1.63653
1.65271
1.66337
1.66601
1.65821
1.64624
1.6373
1.63064
1.61948
1.60885
1.60587
1.61592
1.65719
1.72
1.76641
1.79158
1.80953
1.82039
1.81717
1.8011
1.78339
1.77131
1.76479
1.76847
1.78095
1.817
1.88762
1.93874
1.96032
1.97317
1.97557
1.97409
1.97299
1.96951
1.96919
1.97973
2.00317
2.03496
2.08671
2.17946
2.2661
2.32657
2.3745
2.389
2.38402
2.38573
2.28015
5.02663
39.1387
1.15966
1.15153
1.15812
1.18587
1.2426
1.30234
1.34248
1.36494
1.37503
1.37291
1.34769
1.31347
1.28091
1.25236
1.24492
1.25153
1.2722
1.30331
1.3395
1.38378
1.43548
1.46842
1.47315
1.46535
1.44121
1.40545
1.36942
1.34497
1.34257
1.3521
1.3682
1.38823
1.42148
1.46311
1.50147
1.52696
1.52599
1.51833
1.50433
1.49299
1.48908
1.48231
1.48046
1.49237
1.50203
1.50704
1.51756
1.54797
1.5926
1.61841
1.61381
1.59829
1.57769
1.56519
1.56438
1.57153
1.58425
1.602
1.62135
1.63443
1.64887
1.67616
1.71649
1.74884
1.74977
1.73374
1.71616
1.70904
1.71334
1.72471
1.74138
1.76204
1.78056
1.79419
1.81272
1.84686
1.89119
1.90905
1.91003
1.90259
1.89714
1.89589
1.90202
1.90604
1.90182
1.89805
1.91025
1.93556
1.97247
2.04013
2.10861
2.16229
2.21232
2.23653
2.25314
2.27853
2.23088
4.91674
38.0332
1.15378
1.14515
1.15214
1.16158
1.18241
1.23898
1.31496
1.3606
1.37758
1.38328
1.37986
1.33838
1.27841
1.24876
1.24053
1.24248
1.25033
1.26828
1.3016
1.34668
1.38878
1.41335
1.41958
1.41463
1.40266
1.38812
1.36687
1.34107
1.33134
1.33702
1.35167
1.38775
1.42829
1.45643
1.47821
1.48536
1.4802
1.46847
1.46296
1.46565
1.47372
1.47384
1.47245
1.48101
1.49319
1.50492
1.52036
1.54569
1.56881
1.57515
1.57025
1.55497
1.54236
1.53918
1.54198
1.53908
1.54271
1.56219
1.59548
1.62963
1.65256
1.672
1.69554
1.704
1.69754
1.6797
1.66931
1.6714
1.6797
1.68232
1.69556
1.72789
1.76411
1.79104
1.80833
1.82469
1.84362
1.85112
1.85516
1.85972
1.86115
1.86415
1.86605
1.86335
1.84649
1.8271
1.82311
1.83624
1.85934
1.89933
1.95744
2.01607
2.07974
2.1274
2.16135
2.20363
2.17474
4.91725
37.1994
1.16267
1.15333
1.16449
1.17273
1.17543
1.18073
1.21864
1.3005
1.34724
1.35919
1.36142
1.3532
1.31736
1.27386
1.25351
1.25073
1.25442
1.25777
1.26001
1.26751
1.28797
1.32434
1.36345
1.38524
1.39331
1.39592
1.37822
1.35124
1.33855
1.33903
1.34593
1.36724
1.399
1.41516
1.41638
1.41077
1.41271
1.42773
1.44975
1.46782
1.47924
1.48492
1.47328
1.46189
1.4659
1.47642
1.49256
1.5055
1.51005
1.51154
1.5165
1.52596
1.53466
1.54436
1.5519
1.55467
1.55264
1.55339
1.56387
1.58097
1.60193
1.61691
1.62278
1.6274
1.63683
1.64925
1.66107
1.67737
1.68932
1.69616
1.70064
1.7042
1.71642
1.73141
1.73413
1.72745
1.7325
1.75895
1.79838
1.83107
1.85535
1.8747
1.88538
1.88248
1.85943
1.82484
1.79208
1.77305
1.77281
1.79047
1.8261
1.89365
1.96902
2.02736
2.07185
2.12844
2.15838
4.92549
36.77
1.20419
1.18233
1.18116
1.17186
1.15973
1.15665
1.16145
1.19644
1.28291
1.33807
1.35341
1.35927
1.36013
1.32843
1.28078
1.25517
1.23902
1.2263
1.21829
1.21531
1.21956
1.23829
1.29157
1.35412
1.38543
1.39534
1.39724
1.37714
1.35097
1.34106
1.34418
1.3506
1.35255
1.35144
1.34693
1.35048
1.36265
1.39419
1.44311
1.47733
1.493
1.49881
1.48422
1.45967
1.45106
1.44566
1.44255
1.44212
1.44597
1.45641
1.47491
1.50283
1.53149
1.55575
1.57317
1.58074
1.57563
1.56482
1.55861
1.54698
1.53375
1.52591
1.52975
1.54722
1.58147
1.62248
1.65938
1.69466
1.71853
1.72762
1.71867
1.70258
1.68494
1.65583
1.6244
1.61337
1.62359
1.65129
1.71631
1.8065
1.87598
1.90622
1.9181
1.91302
1.88269
1.83088
1.7763
1.73594
1.72476
1.73835
1.76986
1.83852
1.91716
1.97592
2.01649
2.0613
2.10634
4.91427
36.587
1.25824
1.21489
1.18267
1.16403
1.15522
1.15244
1.15468
1.16021
1.19061
1.27974
1.34117
1.35832
1.36234
1.35947
1.32378
1.2601
1.22712
1.21473
1.20876
1.20646
1.20786
1.21271
1.22798
1.28655
1.35879
1.39236
1.40135
1.4022
1.38055
1.35416
1.34017
1.33147
1.31998
1.30684
1.30652
1.31305
1.32742
1.3658
1.43719
1.48385
1.49855
1.50465
1.50323
1.47561
1.43483
1.41702
1.41055
1.40853
1.41248
1.42138
1.4405
1.47939
1.53137
1.56665
1.5826
1.59206
1.59785
1.58534
1.54825
1.51209
1.48042
1.46881
1.47303
1.48751
1.52745
1.60278
1.68018
1.71893
1.73484
1.73973
1.72932
1.69529
1.64098
1.58945
1.56038
1.55453
1.56397
1.58228
1.62951
1.75784
1.87198
1.91187
1.92604
1.92603
1.90311
1.83406
1.75386
1.71869
1.71734
1.73357
1.76886
1.84839
1.93022
1.97133
1.98946
2.00811
2.04596
4.8372
36.4674
1.29096
1.28114
1.22476
1.18068
1.16142
1.15693
1.16003
1.16786
1.17347
1.19064
1.2642
1.32005
1.33259
1.33094
1.32082
1.29158
1.24441
1.22054
1.21343
1.21256
1.21712
1.22766
1.23495
1.23827
1.26777
1.33508
1.37851
1.39202
1.39631
1.38897
1.36201
1.33354
1.31385
1.30492
1.30592
1.31401
1.33552
1.36091
1.39229
1.44307
1.47277
1.47987
1.47642
1.46139
1.43875
1.41827
1.40875
1.40717
1.41156
1.42117
1.43574
1.45596
1.49494
1.54827
1.57861
1.58933
1.59169
1.58191
1.55116
1.49736
1.46454
1.45958
1.46648
1.47852
1.50924
1.59133
1.67663
1.7127
1.72786
1.73038
1.7021
1.64809
1.59563
1.56307
1.55044
1.55075
1.56225
1.59652
1.65461
1.71887
1.80786
1.87668
1.90448
1.91149
1.87792
1.80991
1.75592
1.7354
1.73917
1.77055
1.83846
1.91192
1.95683
1.96654
1.96607
1.96161
1.98463
4.76029
36.2935
1.28289
1.29367
1.28461
1.25051
1.21537
1.19884
1.19088
1.18121
1.16908
1.1582
1.16089
1.21339
1.27465
1.29701
1.30081
1.30404
1.30384
1.28659
1.27084
1.26691
1.26583
1.2546
1.23449
1.2176
1.21037
1.22501
1.29002
1.35404
1.3818
1.39239
1.39622
1.38128
1.3477
1.33355
1.33862
1.35815
1.36982
1.365
1.35654
1.3552
1.37943
1.41734
1.44002
1.45055
1.46012
1.4622
1.45476
1.44677
1.44466
1.44777
1.45195
1.45459
1.46007
1.47627
1.514
1.53856
1.54491
1.54229
1.53116
1.50632
1.47807
1.47033
1.4788
1.51073
1.5603
1.60391
1.64562
1.6757
1.68463
1.66634
1.62753
1.5961
1.57954
1.56735
1.56186
1.57431
1.61043
1.65359
1.68251
1.69819
1.72738
1.78171
1.8203
1.83083
1.81611
1.79362
1.78413
1.79327
1.83391
1.8899
1.92856
1.94992
1.95818
1.95295
1.93362
1.90859
1.92121
4.77438
36.1088
1.26402
1.30321
1.32361
1.33403
1.31734
1.27053
1.21852
1.17774
1.14183
1.11588
1.10513
1.11118
1.16587
1.24134
1.28856
1.32626
1.35952
1.37456
1.36367
1.33386
1.29758
1.25613
1.212
1.18564
1.17554
1.17492
1.19091
1.26377
1.34677
1.384
1.40478
1.4224
1.42675
1.40897
1.39703
1.39014
1.37504
1.3467
1.31574
1.301
1.302
1.32904
1.38702
1.44073
1.47516
1.50289
1.51733
1.5137
1.49282
1.47334
1.46057
1.44634
1.4316
1.4251
1.4323
1.46127
1.49021
1.50654
1.51533
1.51444
1.51057
1.52002
1.54799
1.579
1.59477
1.60161
1.60727
1.60987
1.60205
1.58475
1.56776
1.56161
1.56854
1.58361
1.61581
1.65562
1.68029
1.6919
1.69476
1.68577
1.68213
1.6907
1.71488
1.74375
1.7661
1.79016
1.82763
1.90181
1.95536
1.97394
1.97284
1.9613
1.9389
1.90563
1.87859
1.85298
1.86501
4.92412
35.933
1.24958
1.34234
1.36335
1.37448
1.37611
1.33653
1.25634
1.16798
1.11036
1.08739
1.08243
1.08378
1.09359
1.14905
1.27684
1.37186
1.41281
1.42829
1.43172
1.40427
1.32893
1.23735
1.18343
1.16436
1.16112
1.16269
1.16785
1.18738
1.26625
1.37341
1.43513
1.4698
1.48694
1.48623
1.4551
1.40561
1.34849
1.30556
1.28634
1.28159
1.28246
1.29063
1.32411
1.39997
1.48875
1.52898
1.5437
1.54921
1.53955
1.50456
1.45929
1.42235
1.40245
1.39562
1.39712
1.40851
1.43605
1.46687
1.49282
1.51946
1.56125
1.5924
1.60335
1.60324
1.59943
1.58566
1.56109
1.5415
1.53601
1.54103
1.5501
1.56013
1.57684
1.63026
1.69605
1.72609
1.73159
1.71457
1.6847
1.662
1.643
1.63189
1.64003
1.66968
1.71662
1.79056
1.90125
1.97627
2.00978
2.01707
1.99881
1.9673
1.91768
1.86532
1.82447
1.80073
1.81114
5.09015
35.8007
1.26842
1.35323
1.36676
1.37689
1.37396
1.32022
1.21999
1.14396
1.10449
1.08923
1.08516
1.08485
1.08936
1.1275
1.26051
1.39054
1.42524
1.43721
1.43809
1.40964
1.32584
1.23134
1.18052
1.16506
1.16304
1.16445
1.1692
1.18095
1.22285
1.34114
1.45375
1.48778
1.50097
1.50262
1.46989
1.39088
1.32033
1.28984
1.28215
1.28147
1.2839
1.29648
1.33798
1.41514
1.48214
1.52088
1.53903
1.54882
1.54332
1.50773
1.44792
1.40711
1.38957
1.38583
1.38871
1.39755
1.41954
1.45087
1.49893
1.56396
1.60365
1.61911
1.62285
1.61139
1.58188
1.54532
1.5138
1.49631
1.49566
1.509
1.53346
1.5636
1.61919
1.70458
1.75156
1.76684
1.76878
1.74292
1.69415
1.65118
1.61752
1.59734
1.60028
1.62149
1.67082
1.78744
1.90686
1.96175
1.98969
1.99752
1.98096
1.94786
1.9022
1.85164
1.80978
1.77811
1.77389
5.13643
35.8328
1.28713
1.34405
1.3557
1.36092
1.32038
1.23365
1.17317
1.14001
1.11471
1.09953
1.09576
1.09592
1.11067
1.1923
1.30335
1.3706
1.40604
1.41942
1.41117
1.35194
1.28053
1.22933
1.19684
1.18044
1.17592
1.17675
1.1805
1.19705
1.26978
1.3747
1.4378
1.4706
1.48659
1.48611
1.42438
1.34382
1.30484
1.29297
1.28888
1.28856
1.29543
1.33134
1.39006
1.42997
1.45755
1.48229
1.50063
1.50956
1.50626
1.4802
1.44077
1.4092
1.39324
1.39023
1.3942
1.40126
1.42647
1.48909
1.55356
1.5884
1.60436
1.61449
1.61644
1.5931
1.55528
1.52045
1.49384
1.47952
1.48001
1.49166
1.51362
1.5628
1.66968
1.76165
1.79471
1.80568
1.80777
1.78427
1.72749
1.66265
1.615
1.59117
1.59055
1.60526
1.64111
1.756
1.86743
1.91931
1.94348
1.95152
1.93385
1.9147
1.8892
1.85134
1.81801
1.78979
1.77942
5.08225
36.0343
1.31001
1.33723
1.33475
1.28504
1.20199
1.15285
1.13758
1.13447
1.13348
1.1295
1.12486
1.13069
1.20205
1.28878
1.319
1.33309
1.34535
1.3502
1.31987
1.28118
1.25707
1.24097
1.22843
1.21661
1.20802
1.2071
1.21473
1.26352
1.34495
1.39024
1.41278
1.42827
1.43504
1.40073
1.34192
1.30827
1.29796
1.29881
1.30254
1.30764
1.33538
1.39321
1.43234
1.44584
1.45117
1.45832
1.46075
1.46018
1.45697
1.44632
1.42725
1.40701
1.39595
1.39563
1.40214
1.41179
1.45093
1.54475
1.59752
1.60978
1.61212
1.60484
1.58388
1.55547
1.52882
1.5041
1.48128
1.46985
1.47286
1.4848
1.50349
1.56059
1.6906
1.77537
1.80357
1.81586
1.81477
1.79194
1.75307
1.69336
1.63231
1.59954
1.59327
1.60329
1.63991
1.72098
1.80646
1.85567
1.88076
1.89504
1.8889
1.88023
1.86635
1.84861
1.83226
1.80712
1.7787
4.98261
36.2374
1.33929
1.35452
1.30487
1.18994
1.1121
1.08855
1.09011
1.10517
1.1224
1.12902
1.13942
1.21212
1.31936
1.3494
1.34711
1.33128
1.30594
1.25944
1.2288
1.22291
1.23022
1.24069
1.24194
1.24162
1.24655
1.25531
1.2809
1.34643
1.3913
1.40059
1.40203
1.40104
1.36453
1.31649
1.29281
1.28919
1.29558
1.30358
1.31405
1.34162
1.38622
1.42997
1.461
1.46901
1.46207
1.4484
1.44721
1.45006
1.44484
1.42605
1.40396
1.39376
1.39308
1.39857
1.40738
1.41936
1.4719
1.57321
1.62569
1.63905
1.63842
1.60532
1.56613
1.54378
1.5266
1.50511
1.48037
1.46476
1.46575
1.47822
1.49584
1.55611
1.68084
1.76442
1.79455
1.8044
1.80348
1.78258
1.74242
1.69876
1.65505
1.62148
1.60803
1.61187
1.63815
1.69279
1.75046
1.79604
1.82376
1.84118
1.84085
1.83055
1.82834
1.82821
1.83123
1.82846
1.8295
4.88577
36.4541
1.34215
1.34769
1.24859
1.14319
1.08951
1.06809
1.06394
1.06836
1.08312
1.10809
1.16821
1.31221
1.38743
1.39831
1.39661
1.36952
1.28589
1.21755
1.19217
1.18497
1.18903
1.20418
1.23526
1.26991
1.28962
1.3024
1.33556
1.40081
1.42944
1.42472
1.40844
1.36808
1.3188
1.28447
1.2705
1.27104
1.28146
1.30224
1.33759
1.3688
1.39218
1.42394
1.44769
1.45376
1.45331
1.46019
1.46451
1.46599
1.463
1.44718
1.41808
1.39123
1.3831
1.38805
1.39688
1.41143
1.47097
1.5694
1.62006
1.63012
1.61714
1.60078
1.58388
1.56143
1.53968
1.51538
1.48901
1.47458
1.47696
1.48795
1.50711
1.56581
1.65059
1.72031
1.7615
1.78088
1.78578
1.75741
1.71542
1.68591
1.66275
1.64064
1.62701
1.62819
1.64998
1.68367
1.71168
1.74103
1.76137
1.77434
1.77461
1.77136
1.78218
1.79899
1.81765
1.83035
1.86181
4.86915
36.6987
1.31398
1.29206
1.20715
1.14085
1.09418
1.07136
1.06927
1.07525
1.08277
1.10811
1.22426
1.34608
1.39046
1.40103
1.39089
1.3346
1.268
1.22232
1.19734
1.19497
1.20882
1.23868
1.26914
1.28365
1.29221
1.30103
1.33824
1.39879
1.4154
1.41032
1.39754
1.36935
1.32771
1.29464
1.28921
1.29922
1.31495
1.33361
1.34905
1.36087
1.37307
1.3821
1.40025
1.43235
1.46502
1.48781
1.50218
1.50904
1.50447
1.47286
1.42183
1.38555
1.37407
1.3764
1.38255
1.39996
1.44923
1.52216
1.57852
1.60262
1.61131
1.61537
1.61318
1.59827
1.56918
1.53029
1.49692
1.48319
1.48558
1.49612
1.52634
1.58418
1.63076
1.66727
1.7001
1.71873
1.71544
1.69239
1.67342
1.66478
1.65787
1.65194
1.65577
1.67419
1.6923
1.69059
1.68522
1.68437
1.68702
1.69232
1.70327
1.72452
1.74869
1.77553
1.80475
1.82755
1.87316
4.85884
36.9372
1.26325
1.22772
1.1894
1.15846
1.12312
1.09669
1.09118
1.09535
1.11159
1.17587
1.261
1.32505
1.35873
1.3593
1.33053
1.29766
1.2771
1.25932
1.24887
1.25211
1.26244
1.27176
1.27483
1.26893
1.26937
1.27378
1.29626
1.35382
1.38635
1.39255
1.39764
1.39679
1.36555
1.33951
1.33554
1.33911
1.34093
1.342
1.34371
1.3434
1.33988
1.34215
1.3549
1.40671
1.47966
1.52118
1.53941
1.54772
1.54402
1.5001
1.42374
1.37892
1.36738
1.36924
1.37746
1.40536
1.44041
1.47315
1.5232
1.57886
1.61089
1.62331
1.62655
1.62084
1.59079
1.54377
1.51204
1.5019
1.50631
1.52556
1.56685
1.60208
1.61804
1.62674
1.63144
1.62374
1.6151
1.61597
1.62505
1.63824
1.6563
1.68782
1.72021
1.73388
1.72079
1.68616
1.64977
1.62869
1.62183
1.63258
1.67042
1.70422
1.73535
1.76766
1.79874
1.82246
1.86036
4.80397
37.0866
1.20542
1.18253
1.18004
1.17171
1.15455
1.13107
1.12324
1.13282
1.18416
1.23754
1.26449
1.28277
1.29138
1.28689
1.28342
1.28633
1.29096
1.30275
1.31879
1.32273
1.31268
1.29218
1.26737
1.24684
1.23672
1.23513
1.24141
1.28321
1.35339
1.3957
1.41604
1.4263
1.42456
1.39934
1.37509
1.36119
1.35121
1.33775
1.32389
1.3172
1.31839
1.32353
1.33456
1.37471
1.47321
1.53479
1.55119
1.55899
1.56018
1.52784
1.44669
1.38318
1.36675
1.36737
1.37966
1.41619
1.44693
1.46529
1.48288
1.51605
1.56103
1.59254
1.60481
1.60678
1.59731
1.57244
1.55122
1.54829
1.56005
1.5818
1.59921
1.60674
1.60935
1.59174
1.55865
1.54077
1.54123
1.55503
1.58583
1.63129
1.69457
1.73705
1.75542
1.75259
1.71829
1.65579
1.61063
1.59495
1.59189
1.6236
1.66725
1.7091
1.74541
1.77117
1.78966
1.79845
1.81269
4.76063
37.1313
1.1608
1.14883
1.15716
1.16828
1.16881
1.16711
1.17242
1.21016
1.24597
1.25772
1.26149
1.24898
1.22344
1.22094
1.2355
1.26716
1.31251
1.35217
1.37025
1.37445
1.36133
1.31117
1.24997
1.21654
1.20568
1.20617
1.21042
1.2265
1.3002
1.39679
1.43705
1.45248
1.46024
1.44687
1.40779
1.36677
1.3404
1.32517
1.316
1.31502
1.31902
1.32886
1.35927
1.40437
1.45051
1.5091
1.5399
1.54835
1.53423
1.48872
1.43893
1.40501
1.38694
1.38553
1.40782
1.45176
1.47796
1.48786
1.48821
1.47469
1.47485
1.5026
1.54507
1.57265
1.58531
1.59515
1.6063
1.61504
1.62166
1.62336
1.61818
1.604
1.57646
1.53228
1.50229
1.49693
1.50268
1.52438
1.58745
1.67588
1.72533
1.75032
1.76308
1.74698
1.68845
1.62739
1.60144
1.59363
1.60643
1.64501
1.69527
1.7358
1.75831
1.76706
1.76863
1.75678
1.6971
4.80641
37.014
1.13585
1.11847
1.12299
1.1377
1.15897
1.18604
1.23711
1.27427
1.28415
1.28307
1.26395
1.22047
1.19716
1.19796
1.20509
1.23482
1.31683
1.36947
1.38209
1.38748
1.3832
1.33597
1.24999
1.20479
1.19741
1.19979
1.20566
1.22299
1.27807
1.37447
1.44161
1.45975
1.46366
1.44939
1.41775
1.38383
1.35058
1.32787
1.32107
1.32411
1.33683
1.37347
1.40719
1.41752
1.42293
1.43353
1.45857
1.4748
1.47365
1.46545
1.45227
1.43776
1.43248
1.4429
1.47792
1.50383
1.51206
1.50867
1.47912
1.4343
1.41425
1.4178
1.44681
1.50408
1.57057
1.62482
1.6553
1.66514
1.6627
1.6534
1.64068
1.60741
1.54371
1.49376
1.47896
1.48119
1.4944
1.54371
1.63184
1.69289
1.72255
1.74324
1.75083
1.71234
1.65025
1.61949
1.61493
1.61584
1.6536
1.71139
1.74516
1.75788
1.75817
1.75232
1.73335
1.67558
1.54394
5.04345
36.8028
1.12963
1.11183
1.11731
1.12489
1.14164
1.19572
1.25807
1.2845
1.29413
1.29562
1.26353
1.21619
1.20157
1.20184
1.21079
1.25668
1.32626
1.3645
1.37862
1.3814
1.35412
1.29287
1.24167
1.21513
1.2062
1.20701
1.21533
1.26015
1.33113
1.3774
1.40558
1.42235
1.41683
1.40126
1.38405
1.36881
1.36492
1.36157
1.36299
1.37819
1.40531
1.42607
1.43059
1.42472
1.4032
1.37843
1.367
1.37841
1.41248
1.44349
1.45596
1.46452
1.49378
1.53371
1.54822
1.54592
1.53617
1.50588
1.44114
1.39679
1.38472
1.38721
1.39721
1.43371
1.53241
1.6299
1.65991
1.66834
1.66155
1.6455
1.61467
1.572
1.52765
1.49343
1.48159
1.48478
1.51843
1.60268
1.66183
1.68784
1.70816
1.72354
1.70643
1.65844
1.6315
1.62948
1.63474
1.67406
1.73921
1.76601
1.76682
1.75711
1.74798
1.72596
1.67
1.58073
1.47046
5.34323
36.6553
1.1331
1.11461
1.11836
1.12874
1.16289
1.21337
1.25044
1.27209
1.27743
1.26627
1.24367
1.22675
1.21997
1.22631
1.25384
1.29286
1.32069
1.33848
1.34164
1.32345
1.29289
1.26914
1.25189
1.2379
1.23362
1.23963
1.28176
1.34356
1.37144
1.37717
1.36011
1.32987
1.32493
1.34371
1.36593
1.37764
1.39029
1.41596
1.44608
1.46335
1.46634
1.45331
1.43071
1.39995
1.36861
1.3395
1.32297
1.32193
1.33714
1.38407
1.44325
1.50485
1.5694
1.59744
1.60312
1.588
1.5478
1.47359
1.41028
1.38437
1.38163
1.38654
1.40702
1.47575
1.54925
1.59376
1.62359
1.63368
1.62135
1.59461
1.56617
1.54083
1.52272
1.51217
1.50895
1.53199
1.60351
1.65301
1.66844
1.67511
1.67555
1.66669
1.6406
1.62119
1.62319
1.63885
1.67712
1.74653
1.78361
1.78601
1.77296
1.75656
1.72913
1.67879
1.61643
1.53973
1.48314
5.51985
36.5994
1.14969
1.13575
1.13948
1.16576
1.19429
1.21334
1.22828
1.238
1.24081
1.23915
1.24122
1.24399
1.2525
1.27838
1.30162
1.30947
1.31155
1.3018
1.28256
1.26718
1.25794
1.2536
1.25317
1.25535
1.2655
1.3167
1.37452
1.39596
1.39756
1.37155
1.30045
1.26011
1.25778
1.2775
1.33391
1.39187
1.44606
1.49
1.5099
1.51473
1.49541
1.44928
1.39614
1.36417
1.3444
1.32856
1.31667
1.31419
1.31738
1.33038
1.40094
1.52924
1.58846
1.60373
1.60855
1.59307
1.53025
1.45674
1.41035
1.39147
1.39079
1.41157
1.4795
1.5392
1.5604
1.56607
1.5577
1.54296
1.53513
1.53425
1.53557
1.53314
1.52853
1.5332
1.56517
1.63777
1.68028
1.68863
1.67668
1.6581
1.63889
1.60877
1.58756
1.59094
1.60905
1.6432
1.70986
1.77007
1.79366
1.7886
1.7666
1.7377
1.70354
1.65469
1.59793
1.54561
1.55556
5.48634
36.5894
1.16032
1.17643
1.20721
1.22205
1.22358
1.21677
1.20768
1.20116
1.20243
1.21219
1.22976
1.26279
1.30204
1.322
1.3273
1.31311
1.28096
1.25286
1.24108
1.24183
1.24696
1.25
1.25493
1.27204
1.33458
1.39694
1.4212
1.42778
1.41372
1.3358
1.25841
1.23243
1.23042
1.23447
1.27175
1.39057
1.49689
1.5355
1.54718
1.54489
1.50586
1.42173
1.36355
1.33919
1.32898
1.3231
1.31933
1.31906
1.33121
1.37564
1.436
1.50122
1.55973
1.57972
1.57121
1.53363
1.48825
1.4544
1.4326
1.42459
1.44445
1.5005
1.54403
1.55957
1.56432
1.54122
1.49079
1.46
1.45564
1.47158
1.50261
1.52432
1.53839
1.5809
1.67183
1.72466
1.73807
1.72278
1.6875
1.65389
1.61324
1.56579
1.54673
1.5507
1.57082
1.62584
1.69745
1.74615
1.76303
1.76443
1.75107
1.72847
1.70414
1.66999
1.6328
1.57965
1.54943
5.41082
36.7076
1.16641
1.23513
1.2661
1.27216
1.266
1.23984
1.20189
1.19032
1.19332
1.20995
1.25215
1.30278
1.32938
1.33923
1.32454
1.28124
1.23519
1.21668
1.21651
1.22786
1.24497
1.25677
1.27566
1.33248
1.39523
1.42317
1.43279
1.4288
1.3758
1.29688
1.24844
1.23025
1.22725
1.23205
1.26812
1.38929
1.50418
1.54185
1.55246
1.53952
1.47539
1.40048
1.35592
1.33559
1.32746
1.32426
1.3257
1.34743
1.40032
1.43927
1.45265
1.45801
1.46909
1.48476
1.49092
1.48892
1.48126
1.46693
1.46578
1.49533
1.55083
1.58123
1.58977
1.58362
1.55442
1.49625
1.43514
1.406
1.40246
1.41536
1.45553
1.50892
1.57939
1.68444
1.74908
1.76917
1.76629
1.73624
1.70202
1.65668
1.59242
1.54092
1.52454
1.52483
1.53702
1.59246
1.66134
1.70109
1.72481
1.74129
1.74202
1.73143
1.71449
1.69391
1.67225
1.62611
1.56694
5.24322
36.8141
1.1699
1.25844
1.2762
1.27998
1.26127
1.22189
1.20079
1.19726
1.20846
1.2519
1.3008
1.32548
1.33592
1.32969
1.28955
1.22791
1.1921
1.18265
1.18506
1.19913
1.22619
1.26518
1.33428
1.39678
1.41866
1.42522
1.42544
1.38305
1.31416
1.27674
1.2584
1.24552
1.2443
1.27631
1.34038
1.38878
1.44985
1.49453
1.50106
1.47303
1.42589
1.39278
1.37059
1.35138
1.34222
1.34513
1.37468
1.42157
1.45018
1.45696
1.44627
1.41216
1.38337
1.3845
1.41364
1.4501
1.47171
1.48894
1.53766
1.59996
1.62592
1.63053
1.62659
1.60555
1.54489
1.46023
1.40051
1.37722
1.37539
1.38293
1.41397
1.50904
1.6605
1.75306
1.7793
1.78622
1.76372
1.72956
1.69206
1.64388
1.58275
1.53497
1.51584
1.51096
1.51538
1.55114
1.61232
1.66145
1.70231
1.73476
1.74219
1.73091
1.72197
1.70861
1.69691
1.67625
1.64368
5.07016
36.8735
1.19959
1.23577
1.24704
1.23674
1.21969
1.21233
1.21282
1.23496
1.27838
1.31057
1.32435
1.33019
1.32827
1.29141
1.22962
1.18637
1.16473
1.1577
1.15885
1.16391
1.18616
1.27785
1.39806
1.44752
1.45423
1.44224
1.39778
1.3212
1.27189
1.25855
1.25959
1.26493
1.29847
1.35945
1.3838
1.38824
1.38843
1.38607
1.39451
1.40766
1.41347
1.4125
1.3981
1.38468
1.3831
1.41231
1.45354
1.47248
1.47352
1.45396
1.4001
1.34985
1.33007
1.33168
1.34957
1.39093
1.45175
1.53882
1.63377
1.66953
1.67544
1.67042
1.65434
1.61398
1.53284
1.44906
1.39388
1.37139
1.36924
1.37358
1.39738
1.53393
1.71583
1.7736
1.78874
1.78099
1.7416
1.69839
1.66526
1.63019
1.58272
1.53782
1.51397
1.50499
1.50572
1.51951
1.57045
1.64341
1.70242
1.73274
1.73803
1.73142
1.72217
1.71021
1.70424
1.69333
1.72375
4.9554
36.931
1.20847
1.19889
1.16555
1.16038
1.17183
1.19218
1.23223
1.30324
1.35125
1.361
1.35251
1.33756
1.30181
1.22977
1.17443
1.15172
1.14573
1.14606
1.14875
1.15238
1.16688
1.27369
1.41902
1.46117
1.47142
1.46382
1.38346
1.30154
1.27004
1.26242
1.26923
1.31394
1.37625
1.39688
1.39765
1.37957
1.32827
1.29578
1.29723
1.33741
1.39017
1.4106
1.41666
1.43327
1.48331
1.51952
1.52465
1.51295
1.48024
1.41112
1.34807
1.31743
1.31111
1.31533
1.32392
1.34237
1.41725
1.58444
1.66906
1.68753
1.69281
1.68688
1.65507
1.59544
1.52958
1.45989
1.40283
1.3773
1.37446
1.37844
1.4164
1.58605
1.72074
1.76425
1.77873
1.75821
1.69768
1.66084
1.64391
1.62384
1.59001
1.55341
1.52877
1.51695
1.51424
1.51919
1.54185
1.61651
1.68381
1.71181
1.72199
1.71274
1.7051
1.69593
1.6973
1.69691
1.75352
4.94202
37.0796
1.20392
1.13966
1.10891
1.10543
1.11281
1.13816
1.2234
1.34398
1.40337
1.4147
1.40682
1.3653
1.27493
1.18121
1.13314
1.11985
1.12203
1.12924
1.13624
1.14601
1.19433
1.30993
1.4075
1.44936
1.45542
1.42563
1.36233
1.31533
1.29406
1.29896
1.33261
1.38709
1.40872
1.40908
1.38506
1.32382
1.27199
1.25145
1.25039
1.26697
1.32421
1.38594
1.44191
1.53122
1.58726
1.59681
1.58104
1.53347
1.45291
1.37135
1.32367
1.30848
1.30974
1.3168
1.32661
1.36223
1.46725
1.58493
1.6575
1.68056
1.68182
1.65607
1.61566
1.57542
1.531
1.47439
1.42256
1.39692
1.39347
1.40656
1.49191
1.61408
1.68591
1.713
1.71896
1.693
1.65695
1.64134
1.63462
1.62307
1.60344
1.58321
1.56306
1.5424
1.52819
1.52513
1.53152
1.58161
1.65374
1.68475
1.68932
1.68357
1.68124
1.68055
1.69006
1.69717
1.76821
4.94992
37.3367
1.16566
1.10588
1.09477
1.09554
1.09959
1.11087
1.19346
1.35152
1.40909
1.42096
1.42302
1.38363
1.26662
1.17103
1.12828
1.11783
1.12018
1.12608
1.13538
1.17514
1.25878
1.31922
1.36288
1.39477
1.40314
1.39235
1.37619
1.36148
1.36263
1.37861
1.4013
1.41291
1.41402
1.38864
1.33101
1.27984
1.25357
1.24445
1.2442
1.24887
1.26559
1.33894
1.4914
1.60362
1.63653
1.64355
1.62903
1.56487
1.44854
1.36618
1.329
1.31759
1.32005
1.33273
1.37416
1.44732
1.50636
1.55021
1.59276
1.61395
1.61332
1.60195
1.58869
1.57251
1.53712
1.48666
1.45152
1.43996
1.44392
1.47979
1.54907
1.59189
1.6155
1.62952
1.637
1.63791
1.63644
1.63715
1.64136
1.64254
1.63628
1.62408
1.59447
1.55637
1.52763
1.51768
1.5175
1.53745
1.60283
1.64855
1.66826
1.6709
1.67198
1.67493
1.68645
1.69214
1.76487
4.95066
37.5417
1.12666
1.09293
1.09508
1.09869
1.10417
1.13383
1.22291
1.32533
1.38574
1.39898
1.39029
1.35085
1.27387
1.18903
1.14274
1.13002
1.13296
1.14057
1.1679
1.24407
1.29647
1.31074
1.31816
1.32405
1.34176
1.36715
1.39105
1.42425
1.45134
1.46106
1.45557
1.42883
1.38484
1.33086
1.28342
1.25612
1.24533
1.24329
1.24561
1.25054
1.26496
1.33208
1.49572
1.60495
1.6347
1.6381
1.6044
1.5177
1.43966
1.39073
1.36326
1.35843
1.37011
1.40025
1.44854
1.4889
1.50801
1.51393
1.51157
1.51533
1.53195
1.55027
1.56304
1.56908
1.55094
1.51676
1.49952
1.49654
1.50115
1.52622
1.55134
1.55373
1.5464
1.54569
1.56321
1.59742
1.62454
1.64475
1.65811
1.6726
1.67643
1.64998
1.60905
1.56277
1.5199
1.49039
1.47899
1.48567
1.55854
1.63875
1.67408
1.68361
1.68638
1.68928
1.69296
1.68381
1.67504
5.00247
37.5877
1.10825
1.08474
1.09169
1.09899
1.13126
1.1978
1.24093
1.2737
1.31404
1.33746
1.33616
1.32006
1.2897
1.23855
1.18937
1.16689
1.16627
1.17948
1.23149
1.29011
1.30759
1.30695
1.28313
1.26992
1.27598
1.31975
1.40553
1.47437
1.50511
1.51675
1.51116
1.46483
1.3699
1.30165
1.27116
1.25627
1.24916
1.24895
1.25559
1.28152
1.33259
1.39372
1.46247
1.54146
1.57424
1.57022
1.54103
1.49586
1.45345
1.42912
1.42512
1.43352
1.44733
1.4628
1.48108
1.49257
1.49061
1.46545
1.44388
1.44068
1.45464
1.49595
1.53665
1.55858
1.57247
1.55975
1.54025
1.53024
1.52799
1.53486
1.53192
1.50934
1.49614
1.49626
1.52356
1.57725
1.62942
1.66414
1.68477
1.69696
1.68977
1.66163
1.61755
1.55316
1.48518
1.44834
1.43883
1.44846
1.52825
1.65133
1.71251
1.71794
1.71351
1.70398
1.68302
1.63306
1.50583
5.14559
37.5091
1.11219
1.08846
1.09833
1.12571
1.19161
1.2389
1.25105
1.25461
1.24772
1.23952
1.25657
1.28352
1.29247
1.29289
1.26503
1.23175
1.22682
1.24757
1.2856
1.30384
1.3074
1.28773
1.26366
1.2584
1.26178
1.28354
1.3834
1.47909
1.5095
1.52081
1.50008
1.42345
1.35398
1.31319
1.28635
1.27254
1.26914
1.27715
1.3037
1.34622
1.38317
1.40591
1.42467
1.44025
1.4618
1.48019
1.48894
1.49015
1.48129
1.48219
1.49138
1.4981
1.4984
1.49711
1.49506
1.48403
1.45325
1.42185
1.40871
1.40704
1.4123
1.44974
1.51238
1.55635
1.57808
1.57945
1.55193
1.53779
1.53517
1.52585
1.50374
1.48318
1.47697
1.48612
1.52239
1.59147
1.64941
1.67839
1.69431
1.69416
1.67803
1.64141
1.58736
1.51955
1.4591
1.43083
1.42549
1.44565
1.54337
1.68471
1.73636
1.7342
1.72199
1.69233
1.64523
1.54017
1.3694
5.37056
37.4263
1.13485
1.11589
1.13168
1.17304
1.22483
1.24775
1.25456
1.23991
1.19437
1.17439
1.17984
1.22908
1.2878
1.30732
1.31585
1.32351
1.32542
1.32362
1.32179
1.31054
1.27539
1.25391
1.25043
1.25376
1.27025
1.31675
1.37075
1.42764
1.46453
1.46645
1.43152
1.3945
1.36988
1.34619
1.32728
1.31743
1.32222
1.34254
1.36795
1.38837
1.39587
1.39744
1.38105
1.36756
1.37128
1.39492
1.43304
1.47564
1.50995
1.52843
1.53248
1.52423
1.51797
1.51628
1.50779
1.47693
1.4351
1.41055
1.40252
1.40215
1.41395
1.46068
1.51694
1.54633
1.56379
1.56448
1.54122
1.52629
1.51502
1.50167
1.48824
1.48122
1.48287
1.5042
1.55647
1.61524
1.65412
1.67588
1.68552
1.67143
1.62976
1.58391
1.54
1.49772
1.46209
1.44026
1.44178
1.50688
1.60983
1.68257
1.71775
1.72371
1.70997
1.66051
1.57538
1.46109
1.3535
5.5533
37.4269
1.18326
1.16275
1.17638
1.21122
1.23631
1.24414
1.24068
1.20979
1.1762
1.15949
1.1583
1.16745
1.21722
1.29424
1.35398
1.39724
1.41258
1.40723
1.36755
1.30621
1.26143
1.24845
1.24913
1.26093
1.30367
1.34267
1.35584
1.36312
1.36844
1.36246
1.36267
1.37097
1.3776
1.37783
1.37754
1.38888
1.4082
1.4137
1.40825
1.40538
1.39089
1.35896
1.34135
1.33748
1.34141
1.35254
1.37829
1.44489
1.51191
1.53134
1.52986
1.5152
1.50022
1.48713
1.47767
1.46988
1.44697
1.42108
1.41221
1.415
1.44895
1.50088
1.52515
1.53438
1.53868
1.52007
1.49857
1.48522
1.47997
1.48172
1.48778
1.49987
1.52948
1.57243
1.60505
1.62345
1.63984
1.65241
1.64282
1.61052
1.57557
1.54468
1.51806
1.49715
1.48383
1.48254
1.5418
1.60711
1.63381
1.64771
1.6539
1.65174
1.62158
1.55774
1.50228
1.45402
1.49426
5.59515
37.4972
1.24349
1.2301
1.23307
1.24125
1.24437
1.2355
1.20439
1.18028
1.16763
1.16081
1.15704
1.15799
1.16777
1.23743
1.35897
1.41023
1.42406
1.42793
1.4015
1.32441
1.27526
1.26229
1.26467
1.29418
1.33487
1.34848
1.34784
1.32171
1.28163
1.26958
1.28234
1.31879
1.35874
1.38879
1.43662
1.47594
1.48727
1.48094
1.45063
1.40185
1.35441
1.33387
1.33116
1.33567
1.347
1.36928
1.4196
1.46517
1.48239
1.49071
1.4784
1.45825
1.44855
1.44934
1.45654
1.46342
1.46069