/*--------------------------------*- C++ -*----------------------------------*\
  =========                 |
  \\      /  F ield         | OpenFOAM: The Open Source CFD Toolbox
   \\    /   O peration     | Website:  https://openfoam.org
    \\  /    A nd           | Version:  12
     \\/     M anipulation  |
\*---------------------------------------------------------------------------*/
FoamFile
{
    format      ascii;
    class       volVectorField;
    location    "8.41";
    object      U;
}
// * * * * * * * * * * * * * * * * * * * * * * * * * * * * * * * * * * * * * //

dimensions      [0 1 -1 0 0 0 0];

internalField   nonuniform List<vector> 
22702
(
(2 -4.49492e-15 0)
(2 -4.81988e-14 0)
(2.04401 -0.0917587 0)
(2 -1.16944e-09 0)
(1.96898 0.0310713 0)
(2 -1.41326e-15 0)
(1.82828 0.2286 0)
(2 -1.02807e-13 0)
(2 -2.29659e-13 0)
(2.06998 -0.271518 0)
(1.82981 0.228615 0)
(1.82961 0.229319 0)
(2 1.47343e-14 0)
(1.83146 0.228662 0)
(2.0326 -0.0766798 0)
(2 -1.07887e-13 0)
(2 3.60981e-14 0)
(2 3.87952e-14 0)
(1.82967 0.228589 0)
(2 2.65175e-14 0)
(1.83121 0.229202 0)
(2 -1.63048e-13 0)
(1.82975 0.228317 0)
(2.10638 -0.26442 0)
(1.83183 0.228739 0)
(2.12384 -0.264704 0)
(2 -1.10532e-13 0)
(1.82917 0.228543 0)
(2.09697 -0.259042 0)
(2.10802 -0.263887 0)
(2 -8.25709e-15 0)
(1.83219 0.228694 0)
(2 -8.50407e-15 0)
(2 -9.58618e-14 0)
(2 -1.39553e-13 0)
(1.84577 0.214866 0)
(1.83266 0.228064 0)
(1.82979 0.22864 0)
(2 -1.1594e-13 0)
(2 -2.18968e-13 0)
(2.06919 -0.277868 0)
(2 2.93911e-14 0)
(1.90923 0.122931 0)
(2 -2.32197e-14 0)
(1.82923 0.228375 0)
(2 3.19171e-14 0)
(2 2.34816e-13 0)
(2 -1.20519e-13 0)
(2 -1.9672e-13 0)
(2.11311 -0.265218 0)
(2 1.98753e-14 0)
(2.11057 -0.265812 0)
(2 -1.19566e-13 0)
(1.82976 0.228531 0)
(2 7.37619e-14 0)
(1.83305 0.228344 0)
(2 1.16237e-13 0)
(2 1.5975e-09 0)
(2 -1.16983e-13 0)
(2 -1.69678e-13 0)
(2.16486 -0.252794 0)
(2 -1.88303e-14 0)
(2 -1.078e-13 0)
(2.11321 -0.270157 0)
(2 2.02122e-14 0)
(2.11821 -0.258919 0)
(2 -1.45022e-13 0)
(2 2.44363e-14 0)
(2 -2.54297e-14 0)
(2.08131 -0.268865 0)
(2 -8.58238e-14 0)
(1.83135 0.229136 0)
(1.89018 0.145515 0)
(2 1.59248e-09 0)
(1.83151 0.229074 0)
(1.82231 0.237617 0)
(2.10601 -0.258781 0)
(1.83221 0.229771 0)
(2.1038 -0.263381 0)
(2 -2.48091e-13 0)
(1.83026 0.228998 0)
(2.11585 -0.263551 0)
(1.82793 0.228017 0)
(1.82683 0.227733 0)
(2 -7.03837e-15 0)
(2 8.38669e-07 0)
(2 6.16053e-16 0)
(2 -3.15899e-15 0)
(2.01626 -0.0430155 0)
(2.07014 -0.274374 0)
(1.83109 0.228728 0)
(2 -3.64956e-14 0)
(2 -4.31904e-11 0)
(2.09882 -0.264906 0)
(2 -2.81598e-14 0)
(1.83105 0.229429 0)
(2.09767 -0.265759 0)
(2 2.39982e-08 0)
(2 1.95727e-14 0)
(2 -1.07918e-14 0)
(2 5.36009e-14 0)
(1.9073 0.119235 0)
(1.82991 0.229077 0)
(2.09321 -0.265273 0)
(2 1.27125e-09 0)
(2 -1.07174e-09 0)
(1.96574 0.0670512 0)
(2 9.21909e-09 0)
(2.113 -0.263176 0)
(2 -1.3335e-13 0)
(1.83476 0.229763 0)
(1.83006 0.228754 0)
(2 4.62871e-09 0)
(2 -1.68706e-13 0)
(2.13126 -0.270456 0)
(2.1415 -0.258648 0)
(2.06999 -0.269286 0)
(2 1.39577e-14 0)
(2 -1.48577e-07 0)
(2 1.29327e-14 0)
(2 -1.16927e-13 0)
(2 1.20718e-07 0)
(2.02285 -0.0533713 0)
(2 -1.07257e-07 0)
(1.85458 0.199734 0)
(1.98402 0.0258118 0)
(1.83087 0.228992 0)
(2 -1.30489e-13 0)
(1.83113 0.229097 0)
(1.83013 0.228702 0)
(1.83144 0.22849 0)
(1.82928 0.228877 0)
(2 -8.8895e-14 0)
(2.09182 -0.264663 0)
(2 1.35839e-14 0)
(2.13551 -0.26004 0)
(2 -1.14632e-14 0)
(2 -1.23613e-13 0)
(2 -5.68851e-14 0)
(2 5.37864e-14 0)
(1.83036 0.228827 0)
(2 3.14899e-09 0)
(2 -2.04606e-13 0)
(2 -1.26778e-13 0)
(2 -2.07456e-13 0)
(1.83116 0.229232 0)
(2 -4.93192e-15 0)
(1.99356 0.0166303 0)
(2 1.6851e-15 0)
(2 -6.99922e-14 0)
(2 -6.60328e-11 0)
(2 1.48789e-14 0)
(2.10848 -0.262469 0)
(2 -1.07478e-13 0)
(1.99588 0.00981458 0)
(2 -5.91606e-14 0)
(2.10208 -0.263932 0)
(2 -1.22321e-13 0)
(2 3.58957e-14 0)
(2 2.42339e-14 0)
(1.83098 0.229086 0)
(2 -3.60396e-14 0)
(1.83098 0.228878 0)
(2.17185 -0.254875 0)
(2.1452 -0.251697 0)
(1.83058 0.228884 0)
(1.83023 0.228442 0)
(2 2.38822e-14 0)
(1.96179 0.0484512 0)
(1.89585 0.140198 0)
(2 -1.87468e-13 0)
(1.82694 0.228266 0)
(2.10593 -0.26321 0)
(1.84427 0.214211 0)
(2 3.10786e-14 0)
(2 -9.45113e-14 0)
(2 -3.7262e-14 0)
(2 2.94961e-14 0)
(1.83147 0.228906 0)
(1.85913 0.197462 0)
(2 -1.5519e-13 0)
(1.8298 0.228995 0)
(2.13149 -0.271965 0)
(1.83058 0.228519 0)
(2 -9.29506e-14 0)
(2.11087 -0.263689 0)
(2 8.44955e-14 0)
(2.11171 -0.264901 0)
(2.13167 -0.244164 0)
(2.00008 -0.000134164 0)
(2 1.45661e-14 0)
(2 8.7921e-15 0)
(1.82964 0.227867 0)
(2 8.59367e-14 0)
(2 -4.75782e-14 0)
(1.83158 0.228893 0)
(2 -3.7868e-13 0)
(1.8325 0.228403 0)
(1.82958 0.229128 0)
(2.11163 -0.269942 0)
(2 2.69039e-14 0)
(2 1.28139e-13 0)
(2.10874 -0.266589 0)
(1.83162 0.229113 0)
(2 -1.52264e-14 0)
(2 -1.13438e-14 0)
(2 -8.87832e-16 0)
(1.83158 0.229075 0)
(2 -4.77461e-14 0)
(2.11943 -0.267184 0)
(2 -6.26477e-11 0)
(2 -5.2069e-14 0)
(1.83154 0.229097 0)
(1.83125 0.229073 0)
(1.83409 0.229508 0)
(2 -3.54293e-14 0)
(1.99999 2.33097e-05 0)
(2 -1.53543e-14 0)
(2 1.06236e-14 0)
(2 -1.6909e-14 0)
(1.8314 0.229252 0)
(2 -1.46471e-13 0)
(2.13156 -0.268946 0)
(1.82423 0.234818 0)
(1.83187 0.228994 0)
(1.83169 0.228419 0)
(2 1.95462e-07 0)
(2 -6.12475e-14 0)
(2 6.08815e-15 0)
(2.11482 -0.272619 0)
(1.83203 0.22852 0)
(1.92617 0.10699 0)
(2 2.28773e-14 0)
(1.8311 0.229586 0)
(2.12238 -0.267667 0)
(2.12053 -0.269117 0)
(1.83112 0.229521 0)
(1.83262 0.227308 0)
(2 8.84021e-14 0)
(1.82966 0.232472 0)
(2.06902 -0.293824 0)
(1.85045 0.205973 0)
(2 -1.23054e-13 0)
(2 2.12007e-13 0)
(2 1.1412e-15 0)
(2 -1.07293e-13 0)
(1.8317 0.229009 0)
(2 -9.08623e-14 0)
(1.90484 0.133814 0)
(1.98322 0.0310171 0)
(2 -1.27937e-13 0)
(2 8.05683e-15 0)
(1.83181 0.228566 0)
(2.12396 -0.263831 0)
(2.09005 -0.158337 0)
(2 -3.24034e-13 0)
(1.83258 0.227405 0)
(2.1187 -0.262942 0)
(1.82903 0.232218 0)
(2 2.67894e-15 0)
(2 -9.47508e-15 0)
(2 -1.45913e-13 0)
(2 -1.80725e-13 0)
(2 -4.36168e-14 0)
(2 -4.50838e-14 0)
(2 -1.06602e-14 0)
(2.11373 -0.264224 0)
(2.06652 -0.163685 0)
(2.11902 -0.26708 0)
(1.83113 0.228845 0)
(2 -9.2936e-14 0)
(2 3.39923e-13 0)
(2 -1.3287e-07 0)
(2 8.11881e-14 0)
(1.84533 0.213106 0)
(2 -2.24163e-07 0)
(2.11344 -0.263994 0)
(2 -1.34329e-14 0)
(2.11347 -0.280057 0)
(2.10549 -0.265835 0)
(1.83265 0.228489 0)
(2.11434 -0.264566 0)
(1.83122 0.229098 0)
(2 -4.3909e-14 0)
(2 -9.83261e-14 0)
(2 -1.13082e-14 0)
(2.00075 -0.00156104 0)
(2.11301 -0.263595 0)
(2.07809 -0.290396 0)
(2 -2.96891e-07 0)
(2 -1.51781e-07 0)
(2.11745 -0.281926 0)
(2 2.41261e-09 0)
(1.83017 0.228618 0)
(2.08108 -0.283852 0)
(2 -5.52827e-14 0)
(2 -3.09357e-11 0)
(1.82984 0.228848 0)
(2.14806 -0.266113 0)
(2 -1.95698e-13 0)
(1.83383 0.227287 0)
(2.15115 -0.255635 0)
(1.83156 0.228745 0)
(2 -2.28549e-13 0)
(2.11161 -0.285179 0)
(2.00076 -0.00145255 0)
(2 3.99591e-14 0)
(2 2.88457e-06 0)
(2 1.22135e-13 0)
(2.10928 -0.265069 0)
(2 -9.88967e-14 0)
(2 -1.61895e-07 0)
(2 -5.50753e-07 0)
(1.99999 3.70432e-06 0)
(1.99586 0.00580646 0)
(1.89123 0.146703 0)
(2 -2.86397e-11 0)
(2.1207 -0.243691 0)
(2 -1.50182e-11 0)
(2 1.58652e-06 0)
(2 8.08296e-14 0)
(2 4.47012e-14 0)
(2 7.67181e-15 0)
(2 5.36798e-14 0)
(2 -8.48406e-13 0)
(1.82933 0.228875 0)
(2 2.48813e-13 0)
(1.82862 0.228867 0)
(2 3.58862e-14 0)
(2 4.26307e-14 0)
(2 6.76933e-14 0)
(2.10672 -0.266558 0)
(2 8.32669e-15 0)
(1.83112 0.228942 0)
(2.12062 -0.267015 0)
(2 -1.64031e-13 0)
(1.87467 0.17889 0)
(2 -2.44186e-13 0)
(2 -1.14291e-13 0)
(1.82947 0.229038 0)
(2 6.2348e-14 0)
(2 -8.85779e-09 0)
(2 8.52606e-14 0)
(1.8311 0.227596 0)
(2 4.48222e-10 0)
(2 -8.43393e-14 0)
(1.83736 0.216742 0)
(1.83001 0.228222 0)
(2 3.93054e-14 0)
(1.97298 0.057518 0)
(2 -5.95779e-14 0)
(2 5.21426e-14 0)
(2.13372 -0.257896 0)
(2 -1.36234e-13 0)
(2 -1.97908e-14 0)
(2 1.10072e-13 0)
(2.11017 -0.267092 0)
(2 -2.75238e-14 0)
(2 -1.29958e-13 0)
(2 2.90722e-14 0)
(2 -1.80626e-13 0)
(2.13893 -0.24957 0)
(2 5.7006e-14 0)
(2 -2.0083e-13 0)
(2 -1.87216e-13 0)
(2 2.323e-14 0)
(2 -6.25861e-14 0)
(2.06471 -0.278663 0)
(1.99998 4.11215e-05 0)
(1.83105 0.2291 0)
(2 9.89112e-14 0)
(1.99999 -3.55307e-05 0)
(1.83079 0.229 0)
(1.83008 0.228458 0)
(2 9.5026e-14 0)
(2 -2.04387e-14 0)
(2.10222 -0.275406 0)
(2.06984 -0.118823 0)
(1.83004 0.229017 0)
(2 8.31516e-14 0)
(2 7.92941e-14 0)
(2 1.585e-14 0)
(1.83145 0.22878 0)
(2.08455 -0.272526 0)
(2 5.72134e-14 0)
(1.8313 0.229163 0)
(2 -8.94007e-14 0)
(2 -1.13676e-13 0)
(2.10711 -0.220767 0)
(2.11226 -0.212814 0)
(2 -4.89726e-14 0)
(2.11218 -0.261242 0)
(2.11592 -0.263301 0)
(2 -1.08387e-13 0)
(2 -7.46346e-14 0)
(2 1.19463e-13 0)
(2 -1.42224e-13 0)
(2 -9.69219e-11 0)
(2 -1.50926e-13 0)
(2 -6.74431e-14 0)
(1.82842 0.228837 0)
(1.96688 0.0685342 0)
(1.83985 0.212816 0)
(2.06879 -0.269761 0)
(2.03005 -0.0700735 0)
(1.831 0.228752 0)
(2 -5.74609e-13 0)
(1.83137 0.229187 0)
(1.82998 0.228947 0)
(2.11742 -0.264323 0)
(2.09074 -0.143083 0)
(2 5.15835e-13 0)
(2.1168 -0.263592 0)
(2 2.65497e-14 0)
(1.82134 0.234104 0)
(2 1.23032e-13 0)
(2 2.28569e-14 0)
(2 -3.13978e-14 0)
(2 4.32652e-14 0)
(1.83167 0.229095 0)
(2 -4.95425e-14 0)
(2 4.67532e-14 0)
(2 -2.3651e-14 0)
(2 1.52459e-09 0)
(2 -1.6833e-13 0)
(2 -1.33839e-13 0)
(2 -2.11054e-13 0)
(1.93882 0.0918351 0)
(1.83061 0.229082 0)
(2 -1.16859e-13 0)
(1.83113 0.228969 0)
(2 -1.32364e-13 0)
(2 -1.50327e-13 0)
(2.11144 -0.263019 0)
(2 -4.88106e-15 0)
(2 -1.67692e-13 0)
(2 -3.16343e-14 0)
(2 -1.76812e-13 0)
(1.83154 0.229061 0)
(1.87153 0.181249 0)
(2 -3.38035e-13 0)
(2 -3.8812e-13 0)
(2.10823 -0.263573 0)
(1.83184 0.229299 0)
(1.83175 0.228942 0)
(2 -8.83731e-14 0)
(1.83169 0.229029 0)
(1.83167 0.228987 0)
(1.83123 0.229054 0)
(2 5.50371e-14 0)
(2.05228 -0.110196 0)
(2 1.57914e-13 0)
(1.8324 0.229342 0)
(2.00691 -0.00744454 0)
(1.83119 0.229093 0)
(2 1.20122e-13 0)
(2.11762 -0.26424 0)
(2.00037 -0.000653068 0)
(1.82941 0.228936 0)
(2 8.45984e-14 0)
(2 9.26088e-14 0)
(2 -5.13963e-11 0)
(2 -2.24283e-11 0)
(2.11003 -0.261665 0)
(1.83223 0.228569 0)
(1.849 0.212632 0)
(2 -1.26031e-13 0)
(1.83107 0.229898 0)
(1.83148 0.228994 0)
(1.82992 0.228933 0)
(2 1.48379e-14 0)
(1.91852 0.119705 0)
(1.83236 0.228798 0)
(2 1.28197e-13 0)
(2 -9.17331e-14 0)
(1.88293 0.17207 0)
(1.9783 0.0332147 0)
(1.8316 0.228987 0)
(2.02421 -0.0433192 0)
(1.83152 0.228931 0)
(2 -3.25973e-14 0)
(1.83145 0.228924 0)
(1.83131 0.228734 0)
(1.83134 0.228931 0)
(1.83194 0.229058 0)
(2 1.25533e-13 0)
(1.83745 0.219339 0)
(2.02946 -0.0573445 0)
(2.04342 -0.0688447 0)
(2 1.94223e-15 0)
(2 -3.95539e-07 0)
(2 -6.83229e-14 0)
(2 4.65515e-14 0)
(1.83213 0.228493 0)
(2 -2.50078e-14 0)
(2 -9.00071e-14 0)
(2 1.99502e-14 0)
(2 2.27476e-14 0)
(2 -6.56159e-15 0)
(1.82926 0.228943 0)
(2 -5.89656e-15 0)
(2 7.27062e-14 0)
(2.00149 -0.00238648 0)
(1.83179 0.228922 0)
(1.84554 0.223203 0)
(2 -2.22284e-13 0)
(1.86461 0.202736 0)
(1.99998 2.67837e-05 0)
(2 1.04813e-13 0)
(2 -1.94733e-13 0)
(1.83202 0.229055 0)
(2 1.21404e-13 0)
(2.00239 -0.00322454 0)
(1.99796 0.0036804 0)
(2 4.64704e-14 0)
(1.8313 0.228888 0)
(2 9.19629e-15 0)
(1.83124 0.230094 0)
(2 -2.78999e-14 0)
(2 1.27839e-13 0)
(1.87391 0.176748 0)
(2 -3.16889e-14 0)
(1.83113 0.230924 0)
(1.99999 1.25727e-05 0)
(2 1.34667e-13 0)
(1.83116 0.230708 0)
(2 1.0097e-14 0)
(1.83163 0.228976 0)
(2 8.4887e-14 0)
(2 3.26076e-06 0)
(2 3.43984e-14 0)
(1.83175 0.228925 0)
(2 5.91105e-14 0)
(1.83089 0.229346 0)
(2 4.35101e-06 0)
(1.83168 0.229071 0)
(1.82922 0.228644 0)
(1.83159 0.228475 0)
(1.82697 0.227914 0)
(2 -7.01907e-17 0)
(1.83035 0.228822 0)
(1.83586 0.224871 0)
(2 3.82544e-15 0)
(2.11085 -0.262261 0)
(1.84068 0.217733 0)
(1.8809 0.17222 0)
(2 -2.69661e-14 0)
(1.83177 0.228926 0)
(2 -2.1555e-13 0)
(2.12733 -0.260363 0)
(2.16219 -0.246493 0)
(2 -7.43514e-14 0)
(2 -3.55825e-14 0)
(2 -1.30242e-13 0)
(2 -8.31309e-14 0)
(2 1.03827e-09 0)
(2.08708 -0.269432 0)
(2 1.42419e-13 0)
(1.83115 0.229004 0)
(1.9504 0.0729984 0)
(1.83187 0.229138 0)
(2 -3.55967e-15 0)
(2 7.85689e-11 0)
(2 -3.02159e-15 0)
(2 -1.23913e-14 0)
(2 -4.95982e-08 0)
(1.83122 0.228645 0)
(2 -7.86691e-14 0)
(1.83012 0.230342 0)
(1.90178 0.14422 0)
(2.0826 -0.14625 0)
(2 1.30394e-09 0)
(2 6.16617e-06 0)
(1.94692 0.0805891 0)
(1.95966 0.0698718 0)
(2 2.98693e-14 0)
(2 -1.24084e-14 0)
(1.93411 0.0902793 0)
(2 1.53605e-13 0)
(2.10549 -0.262039 0)
(1.83202 0.229152 0)
(1.83178 0.229081 0)
(2 -6.92799e-11 0)
(2 -2.77298e-14 0)
(2 1.47316e-13 0)
(1.82909 0.228554 0)
(2 1.20976e-13 0)
(1.99999 1.63495e-05 0)
(1.83258 0.228093 0)
(1.83252 0.228523 0)
(2.0138 -0.0266344 0)
(2 -7.52004e-16 0)
(2 1.71247e-10 0)
(2.11533 -0.265898 0)
(1.84526 0.210983 0)
(2 -1.01853e-13 0)
(2 2.65816e-13 0)
(2 9.8236e-14 0)
(2 -2.85487e-11 0)
(2 -1.96202e-13 0)
(1.83167 0.228958 0)
(1.83048 0.228677 0)
(2 -1.60864e-13 0)
(1.83072 0.230198 0)
(1.83131 0.229974 0)
(1.83164 0.228494 0)
(2 -2.77593e-13 0)
(2 9.47311e-14 0)
(2 -6.10424e-11 0)
(2 -1.27605e-13 0)
(2.08262 -0.271691 0)
(1.83002 0.229015 0)
(2 -4.58196e-11 0)
(2 -2.40462e-14 0)
(1.84757 0.212252 0)
(1.83221 0.228507 0)
(2 -7.40627e-14 0)
(1.84256 0.218073 0)
(1.83119 0.229222 0)
(2 8.75081e-14 0)
(2 -2.1192e-07 0)
(2 1.04591e-10 0)
(2 -7.36936e-14 0)
(2 -9.75405e-14 0)
(1.83149 0.229002 0)
(2 -1.67753e-13 0)
(2 3.28239e-14 0)
(2 -9.02637e-14 0)
(2 -6.97976e-14 0)
(1.83213 0.230109 0)
(2 -3.52439e-13 0)
(1.83874 0.229056 0)
(2.11185 -0.268607 0)
(2 -2.04992e-13 0)
(2.12807 -0.262545 0)
(2 8.28705e-14 0)
(2 -1.33392e-07 0)
(2 4.07603e-14 0)
(2.00115 -0.00149842 0)
(2.11166 -0.263559 0)
(2.0003 -0.000524827 0)
(2 1.07773e-14 0)
(2 2.78135e-14 0)
(2 -1.1849e-07 0)
(1.97225 0.0402391 0)
(2 -6.81575e-14 0)
(2 1.09522e-13 0)
(2.04403 -0.0919534 0)
(2 -2.33097e-07 0)
(2 -1.51094e-13 0)
(2 -1.71008e-13 0)
(2 -2.07966e-07 0)
(2 5.29845e-07 0)
(2 -7.41123e-08 0)
(2 -2.05747e-13 0)
(2 -1.70466e-06 0)
(2.02552 -0.0520625 0)
(2 -5.11129e-07 0)
(2 -3.82357e-08 0)
(2.00088 -0.00139271 0)
(2 -9.98737e-14 0)
(2.10664 -0.261739 0)
(2 -2.85e-11 0)
(2 -3.98635e-12 0)
(2 -2.83283e-11 0)
(2 5.07273e-14 0)
(1.87466 0.177142 0)
(2 1.25518e-13 0)
(2 3.89807e-14 0)
(2 4.03524e-14 0)
(2 -1.66341e-07 0)
(2.12415 -0.267266 0)
(2 1.15529e-13 0)
(2 1.29768e-09 0)
(1.84046 0.217129 0)
(1.82968 0.229155 0)
(2 -2.97085e-07 0)
(2 7.57025e-14 0)
(2 -1.0966e-07 0)
(2.03664 -0.0640329 0)
(2 -3.91518e-14 0)
(2 4.23052e-10 0)
(2 7.31198e-15 0)
(2 7.04668e-14 0)
(2 -1.60285e-13 0)
(2 -2.27721e-13 0)
(2.00861 -0.0258029 0)
(1.99121 0.00749704 0)
(1.83127 0.229329 0)
(2 -2.90859e-13 0)
(2 3.70358e-14 0)
(2 -1.38996e-14 0)
(1.82959 0.231235 0)
(2.03409 -0.0682199 0)
(2 -4.74297e-09 0)
(2 -2.15277e-13 0)
(2 8.55275e-14 0)
(1.82915 0.228654 0)
(1.8298 0.227729 0)
(2 -3.39034e-08 0)
(2 4.52639e-06 0)
(2 2.81282e-09 0)
(2 -1.74809e-13 0)
(2 1.28933e-09 0)
(2 -6.31892e-14 0)
(2 -4.93479e-12 0)
(2 -5.73551e-14 0)
(2 -2.41674e-13 0)
(2.10373 -0.267104 0)
(2 4.68441e-14 0)
(2 -1.59718e-11 0)
(1.82859 0.228367 0)
(2.11982 -0.264928 0)
(2 -1.09292e-13 0)
(1.82919 0.228266 0)
(2 6.70247e-11 0)
(2.10248 -0.262035 0)
(2 -2.99853e-14 0)
(2 1.41825e-13 0)
(2.10638 -0.267669 0)
(2 -1.54427e-13 0)
(2 -1.26062e-11 0)
(2 -5.0334e-12 0)
(2 2.45514e-14 0)
(2 -2.44807e-12 0)
(2 -7.6034e-14 0)
(2 -9.45787e-14 0)
(1.8345 0.225719 0)
(1.83198 0.228845 0)
(2 2.59272e-13 0)
(2 -1.72511e-14 0)
(2 -5.03933e-14 0)
(2 1.66578e-13 0)
(1.84722 0.21213 0)
(2 6.17701e-14 0)
(1.94556 0.0760851 0)
(2.11223 -0.261267 0)
(2 -2.71497e-08 0)
(2 9.67085e-14 0)
(2 -7.7192e-14 0)
(2 1.04541e-13 0)
(2 -1.27124e-13 0)
(2 2.51228e-14 0)
(2 -3.55463e-14 0)
(1.98582 0.0197178 0)
(2 2.09383e-14 0)
(2 7.06684e-14 0)
(1.90369 0.134966 0)
(2 -8.60169e-14 0)
(2 -7.19956e-15 0)
(2 6.25035e-14 0)
(1.8608 0.194136 0)
(2 -4.85646e-15 0)
(2 6.80165e-14 0)
(2 -6.98861e-14 0)
(2 -1.03329e-13 0)
(2.11318 -0.266747 0)
(2 3.76717e-12 0)
(2 4.4182e-14 0)
(2.1136 -0.273749 0)
(2.11422 -0.265545 0)
(2 -3.17756e-13 0)
(2 1.1294e-13 0)
(1.83198 0.229291 0)
(2 7.15363e-14 0)
(1.96208 -0.0386207 0)
(2 3.17636e-14 0)
(2 9.18434e-14 0)
(2 4.59119e-14 0)
(1.8849 0.169502 0)
(2.12794 -0.266748 0)
(2 -2.01666e-13 0)
(2.13211 -0.272596 0)
(2 -2.20174e-13 0)
(2.07959 -0.153079 0)
(2 -2.41889e-13 0)
(2 -3.73609e-14 0)
(2 -8.1174e-14 0)
(1.83109 0.227935 0)
(2 -3.79625e-08 0)
(2 -2.57129e-13 0)
(1.83195 0.228861 0)
(2 1.70887e-14 0)
(2 -3.15421e-11 0)
(2 1.61715e-09 0)
(1.83189 0.228909 0)
(2 2.52481e-10 0)
(2 1.41428e-13 0)
(1.83225 0.229192 0)
(2 3.78119e-14 0)
(2 -2.65684e-14 0)
(2.11702 -0.264387 0)
(2 -1.66646e-11 0)
(1.9471 0.0826028 0)
(2 -5.03632e-14 0)
(2 -1.30521e-14 0)
(1.8309 0.228853 0)
(1.83059 0.228741 0)
(1.88669 0.163775 0)
(1.84762 0.208759 0)
(2 -4.685e-14 0)
(2.11521 -0.264455 0)
(2 3.22008e-14 0)
(2 1.15571e-13 0)
(1.83987 0.220674 0)
(2 -1.15167e-13 0)
(2.11552 -0.267836 0)
(2 -9.94159e-14 0)
(2 -1.73384e-13 0)
(2 1.58213e-14 0)
(1.83128 0.229034 0)
(2 -4.64339e-14 0)
(2 8.2397e-14 0)
(2 -5.64201e-14 0)
(2 -5.55791e-14 0)
(1.89839 0.148548 0)
(2 -1.55883e-13 0)
(1.83682 0.22629 0)
(1.83125 0.229778 0)
(2.07807 -0.270586 0)
(2 -6.05529e-14 0)
(2 5.74976e-14 0)
(2.11845 -0.250655 0)
(2.15092 -0.262307 0)
(2 5.66034e-14 0)
(2 4.97609e-14 0)
(2 -6.47464e-12 0)
(1.87915 0.172993 0)
(1.87444 0.178649 0)
(2 -1.72401e-13 0)
(2 1.33136e-13 0)
(2 -3.80412e-15 0)
(2 1.95246e-13 0)
(2 1.32904e-13 0)
(2 -5.69015e-14 0)
(2 1.65119e-13 0)
(1.92719 0.109709 0)
(1.82648 0.228041 0)
(1.99668 -0.000529641 0)
(2 2.90331e-14 0)
(1.83362 0.226006 0)
(2.12563 -0.258713 0)
(2 -7.97534e-14 0)
(2 1.29845e-15 0)
(2 -6.48954e-14 0)
(1.90604 0.131673 0)
(2 -7.30343e-14 0)
(1.96624 0.051321 0)
(2 4.46462e-14 0)
(1.84465 0.212144 0)
(1.83341 0.228664 0)
(2 2.42128e-14 0)
(2.11856 -0.265249 0)
(2 -1.06519e-13 0)
(1.83235 0.228595 0)
(2 -7.8343e-14 0)
(2 -8.6133e-14 0)
(1.83068 0.228984 0)
(1.84255 0.217762 0)
(2 -6.32216e-14 0)
(1.82616 0.231323 0)
(2 -1.73336e-14 0)
(2.11218 -0.264111 0)
(2 2.51674e-14 0)
(2 -6.77671e-14 0)
(2 2.97163e-14 0)
(1.83132 0.227943 0)
(1.83443 0.225689 0)
(1.85283 0.20385 0)
(2 -5.40764e-14 0)
(1.82971 0.227787 0)
(1.83094 0.228282 0)
(2 -2.09666e-13 0)
(1.83091 0.229057 0)
(2 -9.35014e-09 0)
(1.83405 0.228279 0)
(2 6.43022e-14 0)
(2.11721 -0.26295 0)
(2.00882 -0.0196514 0)
(2.10754 -0.269615 0)
(2 -3.34616e-11 0)
(2 -2.3019e-11 0)
(2 -3.2862e-11 0)
(2 -2.50392e-13 0)
(2 -1.19344e-11 0)
(1.8324 0.228882 0)
(2 2.99006e-15 0)
(1.83211 0.228747 0)
(2 -3.14257e-11 0)
(2 -9.50431e-11 0)
(2 -9.42382e-14 0)
(1.84074 0.219263 0)
(2 -1.77426e-14 0)
(2.10417 -0.263349 0)
(1.83154 0.228797 0)
(2 4.95509e-14 0)
(2.0998 -0.261454 0)
(2.12761 -0.239424 0)
(2.12662 -0.250261 0)
(2 -1.1237e-13 0)
(1.91356 0.126361 0)
(1.98715 0.0239393 0)
(1.83228 0.229859 0)
(1.83093 0.228644 0)
(2 8.89969e-15 0)
(2 -3.99259e-07 0)
(2 -2.46409e-08 0)
(2 -4.47876e-14 0)
(1.83132 0.228671 0)
(2 6.34413e-14 0)
(2 -2.83109e-14 0)
(1.83144 0.228754 0)
(1.83095 0.228374 0)
(2 -1.56528e-13 0)
(1.94835 0.0905746 0)
(2.00008 0.000838033 0)
(2 -1.1093e-13 0)
(2.00119 -0.00186327 0)
(1.83103 0.228928 0)
(2.0535 -0.0979852 0)
(2 -1.23202e-07 0)
(2.05926 -0.122289 0)
(2.10432 -0.262277 0)
(2.10704 -0.264242 0)
(1.98908 -0.0358098 0)
(1.8296 0.228239 0)
(1.8355 0.226882 0)
(1.96432 0.0553074 0)
(1.83053 0.228921 0)
(1.83156 0.229369 0)
(2 4.40415e-14 0)
(2 8.57117e-14 0)
(1.82925 0.22859 0)
(1.82899 0.228256 0)
(1.83178 0.229016 0)
(1.82772 0.228383 0)
(2 -2.74459e-14 0)
(1.83259 0.228613 0)
(2.09179 -0.263047 0)
(1.82915 0.230253 0)
(1.83135 0.22812 0)
(1.82886 0.228607 0)
(1.83001 0.228511 0)
(2.04596 -0.0859243 0)
(2.03507 -0.0717384 0)
(2.01941 -0.0546826 0)
(1.8326 0.229503 0)
(2.01065 -0.0259525 0)
(1.83143 0.229028 0)
(2 2.77382e-13 0)
(2 -1.20274e-13 0)
(1.83281 0.229674 0)
(1.83136 0.229111 0)
(2 -1.25269e-13 0)
(2.11908 -0.263463 0)
(1.83099 0.227988 0)
(1.83186 0.229501 0)
(2 -9.91341e-14 0)
(1.83137 0.228956 0)
(1.83126 0.229212 0)
(2 2.8454e-14 0)
(1.83132 0.22847 0)
(2.11575 -0.267107 0)
(1.83061 0.230514 0)
(1.82706 0.228223 0)
(1.82967 0.228946 0)
(1.83191 0.229119 0)
(2 2.53744e-14 0)
(2 1.54609e-13 0)
(2 -1.081e-07 0)
(1.83217 0.229325 0)
(1.89081 0.1599 0)
(2.09198 -0.25404 0)
(1.8318 0.228928 0)
(2.11104 -0.27133 0)
(1.83226 0.229553 0)
(2 -8.51136e-14 0)
(2 -1.63195e-14 0)
(2 -4.41567e-14 0)
(2 -1.42548e-13 0)
(1.83037 0.230482 0)
(1.83145 0.228951 0)
(2 8.25766e-14 0)
(2 2.37629e-13 0)
(1.83126 0.228848 0)
(2.11136 -0.267723 0)
(1.83093 0.229626 0)
(2.10631 -0.263026 0)
(2 -4.46793e-14 0)
(1.83194 0.227649 0)
(2 -1.68708e-13 0)
(2.07329 -0.264599 0)
(1.83144 0.229533 0)
(2.09055 -0.186837 0)
(2 -8.82771e-14 0)
(1.83115 0.228595 0)
(1.83049 0.230261 0)
(1.832 0.229145 0)
(2 -3.70581e-13 0)
(2 3.79742e-14 0)
(1.91502 0.125715 0)
(1.83078 0.229629 0)
(2.10945 -0.261861 0)
(1.8316 0.22869 0)
(2 4.302e-14 0)
(1.83083 0.228931 0)
(2.03697 -0.0776685 0)
(1.83262 0.228653 0)
(2.11629 -0.260683 0)
(2 -7.47217e-14 0)
(1.8322 0.22849 0)
(2.11795 -0.221465 0)
(1.83279 0.229813 0)
(2.10363 -0.263528 0)
(2 7.46476e-14 0)
(1.83174 0.228871 0)
(2 9.43062e-14 0)
(1.8309 0.228627 0)
(2 8.49148e-14 0)
(1.9018 0.140804 0)
(1.83741 0.221842 0)
(1.86588 0.186152 0)
(2.13861 -0.270372 0)
(2 -1.90366e-13 0)
(1.83131 0.22893 0)
(2 1.4384e-13 0)
(1.83145 0.229102 0)
(2 -1.17656e-07 0)
(1.83136 0.22918 0)
(2 -2.31559e-07 0)
(2 2.13868e-14 0)
(1.83134 0.228678 0)
(2.00687 -0.00977059 0)
(1.83095 0.230277 0)
(2.0821 -0.267029 0)
(1.85843 0.199859 0)
(2 -1.0542e-13 0)
(1.87854 0.171447 0)
(2 -2.19633e-13 0)
(1.83089 0.228143 0)
(1.83136 0.229097 0)
(1.83136 0.22778 0)
(2 -6.83128e-14 0)
(1.84786 0.209317 0)
(1.83107 0.228925 0)
(1.84238 0.214368 0)
(1.89786 0.147203 0)
(1.83935 0.226761 0)
(2 -1.51246e-13 0)
(1.88508 0.163812 0)
(2 -1.20321e-13 0)
(1.83093 0.229247 0)
(2 -6.28452e-14 0)
(1.97414 0.0326809 0)
(2 9.55469e-15 0)
(1.84499 0.215551 0)
(2 -5.64194e-15 0)
(1.83122 0.229084 0)
(1.83956 0.220411 0)
(1.83924 0.220479 0)
(2 -1.84834e-13 0)
(1.83479 0.233131 0)
(2.16666 -0.253169 0)
(2 -1.22312e-13 0)
(2.11319 -0.267641 0)
(2 -1.3068e-13 0)
(2 5.4924e-15 0)
(2 -3.44912e-14 0)
(1.83542 0.229504 0)
(2 1.12819e-13 0)
(1.83125 0.229161 0)
(2 3.73562e-15 0)
(2 1.97907e-13 0)
(2 1.32451e-13 0)
(1.83078 0.229036 0)
(1.83719 0.223036 0)
(1.86564 0.189568 0)
(1.83013 0.229773 0)
(1.83009 0.230393 0)
(2.12542 -0.261275 0)
(1.83082 0.229174 0)
(1.83118 0.228692 0)
(2 -1.22749e-14 0)
(1.86443 0.200426 0)
(1.83137 0.228979 0)
(1.84157 0.231893 0)
(2 -7.6458e-15 0)
(1.82799 0.22863 0)
(1.83301 0.22915 0)
(2 -3.0473e-13 0)
(1.82905 0.231516 0)
(1.83053 0.228569 0)
(1.83116 0.229374 0)
(1.83144 0.229494 0)
(2 -3.13435e-13 0)
(2 1.2511e-14 0)
(2 -3.47584e-14 0)
(1.83119 0.228583 0)
(2.10828 -0.268463 0)
(2 8.72577e-14 0)
(1.83143 0.229176 0)
(2 2.45673e-14 0)
(2 1.16291e-13 0)
(2.1644 -0.248885 0)
(2 2.10283e-13 0)
(2 8.4399e-14 0)
(1.83178 0.228748 0)
(1.83172 0.229081 0)
(2 6.9086e-15 0)
(1.83168 0.229276 0)
(1.83073 0.230982 0)
(1.83145 0.228983 0)
(2.00469 -0.0155495 0)
(1.83158 0.229442 0)
(2 -7.16272e-15 0)
(1.83164 0.229574 0)
(1.83138 0.229407 0)
(1.86894 0.17866 0)
(2 -2.11238e-15 0)
(2 -5.47428e-14 0)
(2 -9.10158e-15 0)
(1.83108 0.230371 0)
(1.83122 0.228934 0)
(1.8317 0.229096 0)
(2.02342 -0.0416009 0)
(2 2.00853e-14 0)
(1.82664 0.231129 0)
(1.83136 0.229039 0)
(1.8311 0.228534 0)
(2 -9.67951e-14 0)
(1.83138 0.229026 0)
(1.83126 0.229377 0)
(1.83165 0.229092 0)
(1.82708 0.231915 0)
(2 -1.2661e-13 0)
(1.83177 0.229268 0)
(1.83125 0.226847 0)
(1.85111 0.202127 0)
(1.83231 0.22905 0)
(1.82829 0.231475 0)
(2 1.44659e-14 0)
(1.82995 0.232922 0)
(1.83303 0.226787 0)
(1.83156 0.229382 0)
(1.83017 0.23039 0)
(1.83219 0.228401 0)
(2.12781 -0.259182 0)
(1.8309 0.228679 0)
(1.83147 0.229451 0)
(2 -1.81019e-14 0)
(1.83334 0.229318 0)
(1.83197 0.229018 0)
(1.83291 0.229108 0)
(1.83104 0.228797 0)
(2 -5.12912e-08 0)
(1.83218 0.229137 0)
(1.82966 0.228301 0)
(2 -1.67057e-07 0)
(1.83195 0.228874 0)
(1.85806 0.200683 0)
(2 3.35986e-13 0)
(2 4.63259e-14 0)
(2 1.02261e-09 0)
(1.83125 0.230907 0)
(1.8313 0.229115 0)
(2 -3.93737e-14 0)
(2 -4.84784e-14 0)
(1.90684 0.133568 0)
(2 -1.94606e-13 0)
(1.83163 0.228994 0)
(2 6.84024e-14 0)
(2 -1.7137e-13 0)
(1.83178 0.229537 0)
(1.83108 0.229625 0)
(1.8317 0.228874 0)
(1.83114 0.229007 0)
(2 3.67643e-14 0)
(2 -2.24241e-13 0)
(2 -2.91092e-14 0)
(1.88348 0.166185 0)
(2 6.56777e-14 0)
(1.83285 0.229985 0)
(2 7.06534e-14 0)
(2 -7.88272e-14 0)
(1.83083 0.228673 0)
(1.82718 0.228149 0)
(2 1.92019e-14 0)
(1.83157 0.22881 0)
(2.11291 -0.282431 0)
(1.83136 0.228445 0)
(1.83118 0.229423 0)
(2.07423 -0.215372 0)
(2 -8.06084e-15 0)
(2.12741 -0.273102 0)
(1.84936 0.203636 0)
(1.83137 0.229837 0)
(1.83636 0.231254 0)
(1.83252 0.230337 0)
(2.11272 -0.266253 0)
(1.83121 0.228844 0)
(1.83055 0.228822 0)
(2.11808 -0.262401 0)
(2.11395 -0.273299 0)
(2 -2.65035e-07 0)
(1.8306 0.228601 0)
(1.83242 0.229051 0)
(2 -2.67509e-13 0)
(2 3.31618e-14 0)
(1.83176 0.229228 0)
(2 -5.62324e-14 0)
(1.83205 0.228143 0)
(2 2.34646e-06 0)
(1.85145 0.204237 0)
(2 -3.26978e-14 0)
(1.92169 0.114442 0)
(1.8325 0.22857 0)
(1.83082 0.230057 0)
(1.88192 0.170132 0)
(1.85431 0.202176 0)
(1.83502 0.229298 0)
(1.83052 0.228985 0)
(1.84172 0.216755 0)
(2 1.29427e-13 0)
(2.12907 -0.25599 0)
(1.82953 0.228986 0)
(1.83185 0.229479 0)
(1.82894 0.230619 0)
(2 6.75874e-06 0)
(2 2.49749e-10 0)
(2 1.34194e-09 0)
(1.82995 0.229697 0)
(2 -4.67796e-14 0)
(1.83161 0.229121 0)
(1.83253 0.228943 0)
(2.08637 -0.165701 0)
(2 -9.23083e-14 0)
(1.8304 0.228466 0)
(2.00002 -3.69128e-05 0)
(2 1.30741e-13 0)
(1.99999 1.89368e-05 0)
(1.99998 2.55966e-05 0)
(1.8318 0.229669 0)
(1.83136 0.229037 0)
(2.00054 -0.000827617 0)
(2 6.80867e-14 0)
(2 9.0688e-14 0)
(1.83193 0.229039 0)
(1.83073 0.229828 0)
(1.83141 0.228642 0)
(1.82938 0.229154 0)
(1.83085 0.228532 0)
(2.12107 -0.247602 0)
(1.86732 0.207356 0)
(2 2.80918e-14 0)
(1.83199 0.227882 0)
(1.83171 0.228795 0)
(1.83169 0.2288 0)
(1.83504 0.23169 0)
(2 -5.67087e-14 0)
(1.83166 0.229192 0)
(1.8359 0.224132 0)
(1.83122 0.229835 0)
(2 -5.68814e-14 0)
(1.83042 0.228863 0)
(1.8311 0.229577 0)
(2.05285 -0.0988855 0)
(1.8317 0.228752 0)
(1.8299 0.228782 0)
(2 6.90257e-14 0)
(1.83259 0.229659 0)
(2.05782 -0.113665 0)
(1.83129 0.229031 0)
(2.05397 -0.0950804 0)
(1.83143 0.229018 0)
(2 -1.1718e-07 0)
(1.83172 0.229168 0)
(1.8251 0.234516 0)
(1.83132 0.228976 0)
(1.83151 0.229398 0)
(1.83152 0.228933 0)
(1.8296 0.22818 0)
(1.83141 0.229717 0)
(1.82887 0.228253 0)
(2 3.76784e-14 0)
(2.02174 -0.0447697 0)
(1.83131 0.229008 0)
(1.83183 0.229157 0)
(2.05412 -0.109684 0)
(1.83138 0.228785 0)
(2.00362 -0.0203369 0)
(1.89265 0.149208 0)
(1.83129 0.228907 0)
(1.83142 0.229177 0)
(1.82996 0.229279 0)
(2 8.17974e-14 0)
(1.83084 0.230358 0)
(1.89613 0.142803 0)
(1.83261 0.228001 0)
(2.03151 -0.0615989 0)
(1.83113 0.230081 0)
(1.82733 0.231266 0)
(2 4.06313e-14 0)
(2.04219 -0.0860751 0)
(2 -5.46995e-09 0)
(1.83161 0.224298 0)
(2 -1.00088e-13 0)
(1.88562 0.166517 0)
(2 4.49819e-09 0)
(1.82741 0.222896 0)
(2.04536 -0.0878518 0)
(2 1.19313e-13 0)
(1.83636 0.231958 0)
(1.8319 0.232105 0)
(2 -8.73981e-14 0)
(1.83111 0.231066 0)
(1.83229 0.229695 0)
(1.82929 0.230823 0)
(1.83021 0.226118 0)
(1.82818 0.231392 0)
(2 -3.95261e-14 0)
(1.8295 0.229071 0)
(2 -7.5182e-15 0)
(2 -2.0687e-13 0)
(2 -2.11227e-14 0)
(2.03715 -0.0697865 0)
(1.83196 0.229031 0)
(1.8313 0.229338 0)
(1.82963 0.231058 0)
(1.83157 0.228758 0)
(1.83484 0.226759 0)
(1.83011 0.230202 0)
(1.82489 0.225017 0)
(1.83113 0.229187 0)
(2.03492 -0.0677097 0)
(1.98843 0.0214179 0)
(2 3.62787e-09 0)
(2 -4.90856e-16 0)
(1.82542 0.232685 0)
(1.83133 0.229028 0)
(1.83183 0.22882 0)
(1.83166 0.229084 0)
(1.99999 1.65624e-05 0)
(1.91523 0.12644 0)
(2 -1.57991e-07 0)
(1.82928 0.23098 0)
(1.85665 0.205294 0)
(2 -2.91981e-12 0)
(2 -5.40631e-11 0)
(2.08314 -0.188129 0)
(1.83133 0.229454 0)
(2 -4.45687e-14 0)
(2 -1.1548e-13 0)
(2.08931 -0.260572 0)
(1.8316 0.229217 0)
(2 -1.49983e-13 0)
(1.82756 0.228393 0)
(1.83103 0.228264 0)
(1.83513 0.229623 0)
(1.83881 0.221916 0)
(1.83127 0.228924 0)
(2 -1.75012e-10 0)
(2.13236 -0.264899 0)
(1.95475 0.0672043 0)
(1.83143 0.228694 0)
(1.83093 0.22885 0)
(2 -1.66892e-13 0)
(1.83057 0.228891 0)
(1.8318 0.22888 0)
(1.90975 0.1273 0)
(1.9995 0.00474097 0)
(1.96604 0.0573407 0)
(2 -9.05038e-14 0)
(1.83059 0.22917 0)
(1.83132 0.228985 0)
(2 -1.24224e-07 0)
(2 -2.19693e-10 0)
(2.11946 -0.264271 0)
(2 -2.36075e-10 0)
(2 -7.81534e-14 0)
(1.83136 0.22897 0)
(1.83148 0.229029 0)
(1.83242 0.229288 0)
(1.83113 0.228364 0)
(1.8312 0.22982 0)
(1.82746 0.231718 0)
(1.83044 0.22907 0)
(1.83153 0.229203 0)
(1.83125 0.22863 0)
(2 1.51984e-13 0)
(2.00167 -0.00246788 0)
(1.83115 0.229153 0)
(1.8321 0.228993 0)
(2.00131 -0.00170675 0)
(1.83155 0.229169 0)
(1.83164 0.229102 0)
(2.132 -0.261404 0)
(2.07622 -0.272604 0)
(1.83072 0.227959 0)
(1.82833 0.234335 0)
(2 -2.14733e-13 0)
(2 -6.24293e-15 0)
(1.99957 0.00170994 0)
(1.83055 0.228643 0)
(1.83258 0.228915 0)
(1.8317 0.229104 0)
(2 9.60373e-10 0)
(1.83169 0.228788 0)
(2 -6.42838e-14 0)
(2.03123 -0.0981813 0)
(1.8287 0.231331 0)
(1.83152 0.234416 0)
(2 -6.32273e-14 0)
(1.92197 0.122349 0)
(1.83186 0.229187 0)
(2 -1.36132e-13 0)
(1.8283 0.230156 0)
(2 -9.97526e-11 0)
(1.83135 0.229228 0)
(1.87941 0.160339 0)
(1.83104 0.230113 0)
(2 1.57967e-11 0)
(1.8322 0.228329 0)
(1.83189 0.228353 0)
(2.1212 -0.260512 0)
(1.83224 0.229278 0)
(2 -1.36705e-07 0)
(1.83038 0.230671 0)
(1.8263 0.228168 0)
(2 7.25979e-09 0)
(2.12916 -0.260165 0)
(1.83185 0.228472 0)
(1.84567 0.212039 0)
(2.00101 -0.000980821 0)
(1.84071 0.224553 0)
(1.83161 0.229256 0)
(2 -5.4874e-12 0)
(1.99662 -0.00337311 0)
(1.83006 0.230643 0)
(2.00264 -0.00109016 0)
(1.83262 0.228911 0)
(2 -3.80842e-12 0)
(2 -1.62227e-13 0)
(1.83094 0.230175 0)
(2 1.30027e-13 0)
(1.83066 0.230451 0)
(1.83168 0.229111 0)
(2.00144 -0.00219203 0)
(1.86164 0.196042 0)
(2 2.9517e-09 0)
(1.83165 0.229077 0)
(2 1.70516e-09 0)
(2 -8.52157e-13 0)
(2 1.13964e-11 0)
(2 6.42188e-12 0)
(1.83166 0.2289 0)
(2 7.17183e-09 0)
(2 -1.87671e-14 0)
(1.83302 0.232084 0)
(2 8.53929e-14 0)
(1.83352 0.230358 0)
(2 2.79701e-10 0)
(1.89022 0.157417 0)
(1.83267 0.227528 0)
(1.83097 0.229392 0)
(2 7.34841e-10 0)