/*--------------------------------*- C++ -*----------------------------------*\
  =========                 |
  \\      /  F ield         | OpenFOAM: The Open Source CFD Toolbox
   \\    /   O peration     | Website:  https://openfoam.org
    \\  /    A nd           | Version:  12
     \\/     M anipulation  |
\*---------------------------------------------------------------------------*/
FoamFile
{
    format      ascii;
    class       volScalarField;
    location    "1.9";
    object      p;
}
// * * * * * * * * * * * * * * * * * * * * * * * * * * * * * * * * * * * * * //

dimensions      [1 -1 -2 0 0 0 0];

internalField   nonuniform List<scalar> 
22702
(
1
1
0.870219
1
1.05588
1
1.47153
1
1
0.6573
1.47145
1.47153
1
1.47089
0.886147
1
1
1
1.47136
1
1.47196
1
1.47114
0.657248
1.47263
0.657504
1
1.47088
0.657589
0.657653
1
1.47161
1
1
1
1.43524
1.47396
1.47109
1
1
0.657657
1
1.23008
1
1.47031
1
1
1
1
0.656449
1
0.656671
1
1.47133
1
1.47179
1
1
1
1
0.658105
1
1
0.657316
1
0.65711
1
1
1
0.65807
1
1.47177
1.28345
1
1.47189
1.4971
0.657266
1.47146
0.658356
1
1.47102
0.659398
1.47158
1.47168
1
1
1
1
0.931371
0.657967
1.47252
1
1
0.657391
1
1.47231
0.657056
1
1
1
1
1.2299
1.47109
0.657317
1
1
1.10958
1
0.659554
1
1.47133
1.4716
1
1
0.64871
0.651985
0.657701
1
1
1
1
1
0.911923
1
1.40306
1.04189
1.47171
1
1.47152
1.47149
1.47142
1.47124
1
0.658102
1
0.657352
1
1
1
1
1.47164
1
1
1
1
1.47209
1
1.02705
1
1
1
1
0.655846
1
1.01013
1
0.658198
1
1
1
1.47132
1
1.4715
0.649584
0.658115
1.47188
1.47151
1
1.0766
1.26459
1
1.47166
0.658667
1.43641
1
1
1
1
1.47098
1.38344
1
1.47146
0.6576
1.47187
1
0.658048
1
0.656817
0.658004
0.999792
1
1
1.47299
1
1
1.47163
1
1.47129
1.47135
0.660877
1
1
0.657108
1.47141
1
1
1
1.47136
1
0.657785
1
1
1.47135
1.47132
1.47127
1
1.00004
1
1
1
1.47189
1
0.657977
1.48879
1.47157
1.47174
1
1
1
0.645036
1.47085
1.23072
1
1.47323
0.65802
0.657805
1.47341
1.47107
1
1.47488
0.646611
1.41548
1
1
1
1
1.47152
1
1.27783
1.04321
1
1
1.47161
0.657058
0.77476
1
1.47086
0.657446
1.47491
1
1
1
1
1
1
1
0.657685
0.768682
0.657657
1.47144
1
1
1
1
1.41897
1
0.659009
1
0.640483
0.657843
1.47134
0.657586
1.47192
1
1
1
0.99769
0.657912
0.647818
0.999999
1
0.636023
1
1.47148
0.658149
1
1
1.47099
0.651273
1
1.47123
0.657697
1.4716
1
0.645842
0.997709
1
1
1
0.656855
1
1
1
1.00001
1.01338
1.28586
1
0.661394
1
1
1
1
1
1
1
1.47121
1
1.47338
1
1
1
0.659789
1
1.47193
0.657539
1
1.36437
1
1
1.47197
1
1
1
1.46113
1
1
1.46531
1.47106
1
1.09699
1
1
0.657082
1
1
1
0.657737
1
1
1
1
0.653182
1
1
1
1
1
0.655589
1.00007
1.4716
1
0.999989
1.47165
1.4719
1
1
0.665917
0.816256
1.47149
1
1
1
1.47146
0.657744
1
1.47157
1
1
0.715121
0.712614
1
0.658249
0.659865
1
1
1
1
1
1
1
1.47184
1.11136
1.45051
0.65909
0.909072
1.47178
1
1.47213
1.4717
0.657826
0.781472
1
0.6576
1
1.48398
1
1
1
1
1.47148
1
1
1
1
1
1
1
1.16721
1.47113
1
1.47146
1
1
0.659708
1
1
1
1
1.4713
1.35498
1
1
0.658595
1.47166
1.47133
1
1.47129
1.47171
1.47143
1
0.836808
1
1.47123
0.986182
1.47142
1
0.657632
0.998859
1.47107
1
1
1
1
0.660333
1.47096
1.42517
1
1.47043
1.47141
1.47126
1
1.21118
1.47221
1
1
1.32354
1.06617
1.47129
0.935424
1.47128
1
1.47115
1.4711
1.4712
1.47166
1
1.46419
0.912125
0.881156
1
0.999999
1
1
1.47157
1
1
1
1
1
1.47101
1
1
0.996087
1.4713
1.40631
1
1.38971
1.00004
1
1
1.47156
1
0.99706
1.00473
1
1.47124
1
1.47169
1
1
1.34433
1
1.47182
1.00002
1
1.47215
1
1.47129
1
1
1
1.47148
1
1.47389
1.00001
1.47148
1.47198
1.47161
1.47186
1
1.47133
1.46484
1
0.658058
1.44137
1.33434
1
1.4715
1
0.656796
0.657457
1
1
1
1
1
0.657213
1
1.47149
1.11901
1.4716
1
1
1
1
1
1.47106
1
1.47156
1.27569
0.784127
1
1.00001
1.13572
1.11754
1
1
1.16434
1
0.658054
1.47171
1.47176
1
1
1
1.47186
1
1.00003
1.47264
1.47101
0.953987
1
1
0.656723
1.42795
1
1
1
1
1
1.47131
1.47129
1
1.47188
1.47336
1.47162
1
1
1
1
0.658069
1.47155
1
1
1.42789
1.46998
1
1.44251
1.47113
1
1
1
1
1
1.47139
1
1
1
1
1.46957
1
1.46764
0.658132
1
0.65719
1
1
1
0.996915
0.65805
0.999046
1
1
1
1.06288
1
1
0.868273
1
1
1
1
1
1
1
0.999997
0.933378
0.999999
1
0.997564
1
0.660051
1
1
1
1
1.34819
1
1
1
1
0.658096
1
1
1.44322
1.47161
0.999999
1
1
0.883854
1
1
1
1
1
1
0.953564
1.01241
1.47196
1
1
1
1.47342
0.898407
1
1
1
1.47118
1.46928
1
1.00001
1
1
1
1
1
1
1
0.659215
1
1
1.47094
0.658009
1
1.47036
1
0.656686
1
1
0.658219
1
1
1
1
1
1
1
1.46186
1.47029
1
1
1
1
1.42911
1
1.14255
0.658081
1
1
1
1
1
1
1
1.04038
1
1
1.24981
1
1
1
1.3865
1
1
1
1
0.658515
1
1
0.645626
0.658251
1
1
1.47131
1
0.989316
1
1
1
1.32577
0.650896
1
0.649888
1
0.781556
1
1
1
1.47239
1
1
1.4717
1
1
1
1.47173
1
1
1.47127
1
1
0.657606
1
1.14067
1
1
1.47172
1.47163
1.31051
1.4209
1
0.657819
1
1
1.44995
1
0.657738
1
1
1
1.47183
1
1
1
1
1.27783
1
1.4388
1.47032
0.658017
1
1
0.658151
0.65749
1
1
1
1.33141
1.35192
1
1
1
1
1
1
1
1.19596
1.47157
1.00661
1
1.46562
0.657606
1
1
1
1.25401
1
1.08921
1
1.42914
1.46932
1
0.65782
1
1.47161
1
1
1.4717
1.44102
1
1.47406
1
0.657343
1
1
1
1.46817
1.46193
1.41239
1
1.47418
1.47157
1
1.47239
1
1.46942
1
0.657603
0.97025
0.658172
1
1
1
1
1
1.47137
1
1.47146
1
1
1
1.44687
1
0.657776
1.47176
1
0.65815
0.673818
0.656217
1
1.22619
1.0401
1.47331
1.4717
1
0.999999
1
1
1.4715
1
1
1.47149
1.47141
1
1.15913
1.00006
1
0.996826
1.47118
0.847969
1
0.825642
0.659044
0.658318
0.942008
1.47113
1.46474
1.08973
1.47174
1.47167
1
1
1.47121
1.47263
1.4714
1.47214
1
1.47167
0.657891
1.47149
1.47076
1.47195
1.47403
0.864644
0.894065
0.930956
1.47139
0.959358
1.47146
1
1
1.47353
1.47159
1
0.6576
1.47175
1.47132
1
1.47148
1.47151
1
1.47157
0.65784
1.47215
1.47141
1.47131
1.47566
1
1
1
1.47124
1.30222
0.669369
1.4716
0.650338
1.47124
1
1
1
1
1.4706
1.47176
1
1
1.47155
0.656002
1.47243
0.659098
1
1.46796
1
0.657457
1.47299
0.737668
1
1.47173
1.4742
1.47197
1
1
1.21927
1.47343
0.658243
1.47154
1
1.47172
0.873717
1.47235
0.659889
1
1.47102
0.691052
1.47357
0.658349
1
1.47176
1
1.47128
1
1.26955
1.45311
1.36769
0.650943
1
1.47128
1
1.4714
1
1.47157
1
1
1.47163
0.982393
1.47435
0.65756
1.43361
1
1.32805
1
1.47174
1.47156
1.47152
1
1.42241
1.47139
1.43527
1.28319
1.4703
1
1.30825
1
1.47193
1
1.06062
1
1.43647
1
1.47171
1.44878
1.44773
1
1.46521
0.657739
1
0.658484
1
1
1
1.47148
1
1.47205
1
1
1
1.47244
1.45916
1.38679
1.47223
1.4749
0.656976
1.46702
1.4715
1
1.4086
1.47147
1.45272
1
1.47156
1.4719
1
1.47809
1.47185
1.47124
1.47287
1
1
1
1.47148
0.651097
1
1.47156
1
1
0.658137
1
1
1.47155
1.47104
1
1.47144
1.46795
1.47188
0.971374
1.47141
1
1.47143
1.47152
1.37755
1
1
1
1.47352
1.47122
1.47175
0.946849
1
1.47832
1.47133
1.47132
1
1.47168
1.47197
1.47145
1.47929
1
1.47136
1.47174
1.40662
1.47096
1.47796
1
1.47593
1.46593
1.4717
1.47348
1.47193
0.658316
1.4717
1.4704
1
1.47134
1.47162
1.47136
1.47149
1
1.47185
1.47154
1
1.47128
1.39405
1
1
1
1.47058
1.47684
1
1
1.25055
1
1.47151
1
1
1.47155
1.47324
1.47168
1.47164
1
1
1
1.32575
1
1.47191
1
1
1.47117
1.4715
1
1.47157
0.649702
1.4716
1.47133
0.720648
1
0.651281
1.40749
1.47414
1.47245
1.47238
0.656494
1.47106
1.47251
0.65711
0.646586
1
1.47199
1.47174
1
1
1.47181
1
1.47204
1
1.40942
1
1.21443
1.47189
1.47408
1.32339
1.41937
1.4716
1.47288
1.43826
1
0.657732
1.47417
1.47131
1.47776
1.00001
1
1
1.47636
1
1.47144
1.47106
0.75923
1
1.47166
0.999937
1
1.00003
1.00004
1.47136
1.47123
0.998455
1
1
1.47139
1.47354
1.47154
1.47443
1.47098
0.669436
1.41913
1
1.4677
1.47156
1.47168
1.47094
1
1.47153
1.45808
1.47271
1
1.47141
1.47142
0.862775
1.47149
1.47151
1
1.47086
0.837942
1.47163
0.859536
1.47161
1
1.47153
1.47638
1.47152
1.47169
1.47158
1.47045
1.47206
1.47106
1
0.929013
1.47151
1.47136
0.84007
1.47155
0.975528
1.29609
1.47122
1.47186
1.47177
1
1.47437
1.30098
1.47277
0.924333
1.47375
1.47866
1
0.870027
1
1.46564
1
1.32019
1
1.443
0.873269
1
1.4703
1.47514
1
1.4714
1.47351
1.47773
1.47251
1.47826
1
1.47162
1
1
1
0.897865
1.47142
1.47056
1.46981
1.47159
1.47576
1.47126
1.46853
1.47202
0.901295
1.03052
1
1
1.47807
1.47179
1.47153
1.47123
1.00003
1.23556
1
1.47762
1.41255
1
1
0.746604
1.47159
1
1
0.65831
1.47136
1
1.4715
1.4716
1.47169
1.45289
1.47179
1
0.652488
1.11101
1.47134
1.47157
1
1.4717
1.47148
1.23955
1.00969
1.09761
1
1.47117
1.47158
1
1
0.657224
1
1
1.47154
1.47164
1.47166
1.47138
1.47115
1.47036
1.47196
1.46958
1.47123
1
0.99624
1.47175
1.47152
0.996999
1.47153
1.47145
0.657993
0.657996
1.47118
1.47325
1
1
1.00115
1.47138
1.47187
1.47133
1
1.47156
1
0.856631
1.47846
1.47647
1
1.20993
1.47169
1
1.46971
1
1.47139
1.3104
1.47083
1
1.47152
1.47584
0.656475
1.47185
1
1.47142
1.47173
1
0.659333
1.47315
1.40832
0.997732
1.45509
1.47155
1
0.998437
1.47333
0.997812
1.47164
1
1
1.47191
1
1.47285
1.47142
0.996559
1.36711
1
1.47143
1
1
1
1
1.4712
1
1
1.47176
1
1.47114
1
1.29752
1.46922
1.47081
1
1
1.00171
1
1.47195
1.47157
1.47087
1.47131
1.47127
1.47108
1.47162
1
1.47145
1.47055
1
1.47159
1.4715
1
1.47176
0.925534
1.05881
1.47141
1.47121
1.4716
1
1.47154
1
1.47106
1.47122
1
1.47131
1
1
1
1
1.47163
0.649116
0.997879
1
1.47174
1.47636
1
1.47149
1
1.00554
0.657106
1.47163
0.999584
1
1.47034
0.998376
1.47125
1
0.999774
1
1.47053
1.47442
1.47124
1.47321
0.658936
1.47272
1.47157
1.47183
1.11175
1
1
1.19736
1.47115
0.648483
0.658476
1
1.47198
1.47131
1.47275
1
1
1.4704
1.47179
0.999877
1
1.33746
0.651218
1
1.07976
1.47139
1.47245
0.99826
1.47113
1.47922
1
0.998931
1
1.46997
1.47114
1.18524
1
1.44241
1
1.00247
1.47131
0.657718
1.4711
1.47148
0.996975
0.999911
1.40309
1
0.999696
1
1.47293
1
1.00001
0.649939
1.47182
1.00001
1
1
1
1.47048
1.26317
1
1
0.657675
1.47178
1.26357
1
1
1
1.44869
1.45282
1.47435
1
1
1.47351
1
1.47171
1.47134
1
1
1.47335
1.47141
1.44831
1
1
1.47351
1.47243
1
1
1
1.47247
1
1
1
1.4717
1.47578
1.47436
1
1.47057
1.00003
0.701096
1.47116
1.47095
1
1.47178
1.44874
1.47144
1
1
1.47478
1
1.25757
1.47109
1
0.659301
1
1.47344
1
1
1.47092
1
1
1
1.14536
1.47115
0.68622
1.00001
1.47258
1
1
1.47247
1
1.47519
1
1
1.47156
1.47151
1
1.00005
1
1
1
1
1
1
1.47055
1.47176
1
1.47158
0.657786
1.47546
1
1.47177
1.47876
1.47176
1.47098
1.47409
1
1
1.47242
1
1.28891
1.47633
1.47143
1
1.47433
1.46653
1
1.41801
1
1.47162
1.30064
1.4724
0.997476
1.46341
1.42745
1.47286
1.47224
1.03631
1.47158
1.47514
1
1.47158
1
1.47167
1
1
1
1
0.996604
1.47117
1.47165
1.40079
1
1.47489
1
1
1
0.646745
1
1.45989
1
1.42702
1.45719
1
1
1
1.43366
1.47119
1
1
1.47292
0.657064
1.07811
1
1.47579
1.47125
1.42842
1.45923
1.47133
1
1.47216
1
1
1
1
1.47099
1.47189
1
1.46039
1.05206
1.47158
1.43835
1
1
1.43957
1
1
0.657634
1.3284
1
1
1.47218
1
1.47555
1.42788
1
1.42683
0.656887
1.4715
1.47104
1.47219
1
0.657283
1
1
1
1.47169
1.38499
1
1.47632
1.47154
1
1.47176
1
1
1
1
1.47147
0.999346
1
1.47346
1
1
1.47109
1.47185
1
1.47544
1.08341
1.00002
1
1.47168
1
1.47166
1
1.0144
1.47149
1
1.4714
1
1
1.14504
1.47138
1
1
1
1
1
0.996173
0.657834
0.655648
1.02075
1
1.02555
1
1.02444
1
1.47142
1
1.28915
1
1.47163
1
1
1
1.47158
1
1.36955
1.47132
1
1.24364
1.47216
1
1
1.47142
1.47099
1
1
1.04542
0.649834
1
1.47241
1
1
1
1
1.07703
1.47148
1
1
1
0.657637
1
1.47152
1.47103
1.47965
1
1
1
1
1.23066
1.48144
1
1
1
1.47608
1.47161
1.04701
1
1
1
1.47156
1.47134
1
0.658443
1.47132
1.4715
1.47018
1.47146
1.47091
1
1
1.47565
1.47064
1.47149
0.657917
1.04163
1.47172
1
1
1
1
1
1.47145
0.657982
1
1
1.47143
1.20458
1
1.47526
1
1
1
0.65748
1
1
1.11901
1.47133
1.47166
1
1.46863
1.47559
1
1.07745
1
1.47381
1
1.47181
0.658628
1
1
1
1
1.47175
1.00006
1
1
1
1.45367
1
1
1
1
1.47099
0.657894
1.36671
1.47436
1
1.47097
1
1
1
0.997096
1
1.47174
1
0.815066
1
1
1.00004
1.47067
0.656952
1
1.46987
1
1.47
1.47114
0.657805
1
1
1.45047
1
1
0.657252
1
1.46597
1
1.44992
0.999318
1.47235
1
1
1
1
1.4716
1
1
1.47168
1
1
1
1
1
1
1
1
1.30473
1
1.15099
1.4712
1
1
1
0.658333
1
1
1
1
1.47139
1.47144
1.05388
1
1
1.47251
1
1
1.47139
1
1.00002
1
1
1
1.00001
1.4711
0.788139
1.47156
1.47342
0.996945
1
1
1
1.27384
1
1
1.47139
1.47127
1
1
1
1
0.657775
1
1
1
1.29164
1
1.47162
1.47521
1
1.47283
1
1
1
1.24948
1
1.47146
1
1.47134
1
1
0.996054
1.4717
1
1
1
1
1
1.47368
1.00002
1
0.657843
1.47314
0.657089
1
1.4732
1
0.995947
1
1.47283
1.47042
1
1.4695
0.879197
1.47131
1.47106
1.00003
1
1
0.657101
1
1
1
1.4715
1.26932
1.47387
1
1
1
1
0.99676
1.47281
1
0.659473
1
1
1
1
1
1
1
1.47829
1.4724
1.47402
1
1
0.996877
1
0.980453
1
1
1
0.657408
0.976848
1
0.661425
0.658093
1
1.47218
1.47157
1
1.47307
1.47136
0.657564
1.30446
1
1
1
0.659842
1.47196
1
0.656462
1
1.47039
1.08025
1
1
1
1
1.47129
1.47164
1
1
1.47189
1
1
1.4716
1.4715
1
1.44125
1.47167
1.47203
0.955518
1.47091
1.00885
0.656831
1.35901
1.47084
1
1
1
0.657477
1
0.65826
1.47305
0.954657
1.47181
0.95185
1
1.47237
1.2104
1
1
1.47071
1
1.19016
1.47088
1
1
1.46905
1.46615
0.657906
1.27714
0.999896
1
1.27394
1
1.46947
0.943153
1.48177
1.47469
1
1
1
1
1.4607
1
1
1.47217
0.999642
1.47155
1.38494
1.47283
0.659292
1
1
1
1
1.47154
1.00004
1.47155
1
1.4723
1.47037
1.05764
1.46855
1.14404
1.47173
1
1.31914
0.679919
1.47175
1.47124
1.36926
1.08098
1.47149
1.47129
1.47132
1.47283
1
0.914191
1.06578
1
1.47121
1.2175
1.47158
1.00003
1
1
0.689179
1.47044
1.47166
1.37938
1
1.1784
1
1.47197
1.47177
1
1.47236
1.47161
1
1
1
1.47291
1
1.18166
1.47411
1.32165
1
1.47098
1
1
1
1
1
1
1
1
1
1
0.681129
1
1.4419
0.65791
1.27267
0.998564
1.47037
1
1.24188
1.00001
1.29899
1.40434
1
1.00202
1.4759
0.908182
1
1.47332
1.46007
0.942704
1
1.47004
1.47148
1.47417
1
1.47109
1.47135
1.47377
1
1.20705
1
1.00006
1.47155
1
1.47228
1.0676
1.4724
1
1
1.47128
1.4731
0.6856
1
1.47138
1.35081
1.47056
1
1
1.47192
1.47379
0.998238
1
1.41988
0.99697
1.4716
1.00006
1
1
1
1
1.2057
1
1.3558
1.47058
1.34835
1.47105
1
1.0022
1
1
1.47185
1
1.47444
1
1
1
1
0.999999
1
1.05598
1.23938
1
1
0.657558
1
1.46958
0.684216
1.4742
1
1.22855
0.999752
1.47109
1.2973
0.668786
1.25358
1.00003
1.47179
1.47347
1
1.28073
1.4718
1.47252
0.998412
1.46921
1.45783
0.651364
1
1
0.997755
1
1.46884
1
0.673345
1.47103
1
1
1.41144
1
1.47075
1
1.47193
1
0.683994
1
1
1.47403
1.46636
1.47016
1
1.47321
1.47166
1.46843
1
1
1.46734
0.999999
0.743221
1
1
1
1.47192
1
1.47151
1.30285
1.47273
1
1.47151
0.999382
1
1
1
1
1
1
0.712858
1
1
1.47125
1
1.47641
1.46965
1
0.662329
0.658731
1
1.47316
1.07855
0.657759
0.63805
1
1.47227
1
1.47096
0.659211
1.00151
1
1
0.999512
1
1
1
0.999913
1.19045
1.47161
1
1
1.47278
1.27486
1
1.41923
1.47244
1.47179
1.19067
1.47077
1
1.47131
1
1.46409
1
1.46956
1.4709
0.996755
1.47311
1.4708
1
1
1
1
1
0.921628
1.47188
1.00004
1.00003
0.65811
0.999983
0.657665
0.649409
1
1.4716
1.47132
1.47156
1
1.47156
1
0.660006
1
1
1.47304
0.828998
1.47029
1
1.47355
1
0.976385
1.47143
1
1
1
1.47269
1
1.47156
0.657881
1
1
1.27064
1
1
1.25238
1
1
1.4714
1
1
1
1
1
1.4711
1.47121
1
1.47182
1.47272
0.659593
1.21134
1.47334
1
1
1.42278
0.998984
1
1
1.47143
1.47288
1.29619
1
1.47173
0.670014
1.44741
0.999454
1
1.47082
1.00003
1.47273
1.39824
1.35713
1
1
1.47123
0.718359
0.657463
1
1.47162
1
1.47043
1
1.27685
1
1
1.4705
1.29783
0.660006
1
0.997996
1
1
1.0267
1.18945
1.47131
1
1.47432
1
1
1
1
1
1
1.06805
0.657268
1
1
1.03022
1
1
1
1
1
1.47124
1
1
1.47158
1.47115
1.33988
1
1
1
0.841205
1.47473
1.32376
1
1
1
1
1.4713
1
1
1
1.47052
1
1
1.33692
1.48902
1.04019
0.747491
1.47004
1.3285
1.47152
1
1.23138
1
1
1
0.654235
1.00262
0.658158
1
0.659327
0.647458
1
0.659317
1
1
1
1.20609
1
1.47178
1.47162
1.00152
1.2253
1.39535
0.657655
0.765798
0.884705
1
1.47194
1.47175
1.47191
1.47159
1.40147
0.87597
1
1.40447
1
1.46196
1
1
0.996461
1.01046
1
1
1
1.47176
1
0.657657
1
1.47263
0.657714
1
1
1.47154
1
1.47164
0.99936
1
1
1.47219
1.42261
1
1.48733
1
1
1.01495
1
1.20596
1
1
0.659386
1
1
1.47288
0.999998
1.47032
1
1.00003
0.657474
1
1
0.658374
1.00089
1
1.47162
0.65787
1.47105
0.65938
1.47138
1
1
1
1
1
1
1
1
1
1
1
1.45149
1
1.47332
1.47147
0.657115
1
1
1
1
1
1
1.45798
1
1
0.660638
1
1
1.47156
1
1
1.1774
1.39387
0.658137
0.657569
0.699417
0.745648
1
0.996556
0.658332
1.00029
1.43304
0.996898
1
1
1.47149
1
1
1
0.771138
1.00001
1.16825
1
1
1.18924
1.47184
1
0.659336
1
1
1
0.99675
1.00001
1.46983
1.47144
1
0.658941
1
1.25064
0.657318
1
0.885867
1
0.996431
0.645734
1
1
1
0.996111
0.657763
1
0.658945
0.998419
1.24209
1.4211
0.657269
0.65714
1
0.990176
1
0.998661
1
1.47221
1.47088
1
1.01505
1.47153
1.47193
1
1
1.47141
1
1
1.00004
1
1.47405
1
1
1.0187
1
0.998565
0.695345
1
1
1
1
1
1.47417
1.02911
1.00005
1
1
1
1
1
1.00003
1
0.659564
1.10118
0.99862
1.47299
1.47049
1
1.01435
1.4716
1.40313
1
1
0.651929
1.47185
1
1.47138
1
1.47261
1.31768
0.657656
1
0.65719
1.44286
0.99968
1
0.657543
0.656679
1
1
1.39418
1
0.999998
0.653563
1
1
1
1.1498
1
0.657262
1.47076
1
1
1
1
1.47185
1
1
1.46973
1.42089
1
1
1
1.47216
0.660687
1
1.47189
1.47163
1
1.37401
0.999999
1.00003
1
1
1.4474
1.01484
1
0.657406
1.24966
1
1
0.9975
1
1
1.47083
1
1
1.00003
1
1.4714
1
1
1
1
1
1
1.00001
1.20143
1
1.47039
1
1
1.47309
1
1
1
1.47181
1.47046
1.04612
1
0.997653
1
1
1
1
1.47138
1
1
1.47158
0.65925
1
1
1
1
1
1
1.37949
1
1
1.47021
1.47243
1
1
1
1.47172
1.47011
1
0.999719
1.46801
1
1
1
1.00002
0.657241
1.02983
0.996221
0.995833
1
1
0.64932
1.47198
1
0.658289
1
1.47065
1.45157
0.657584
0.999406
1.47133
1.47149
1.47095
1
1
0.927437
1.43132
1.38582
0.659249
1
1
1
1.47218
1.47147
0.656888
0.997298
1
1.47168
0.657543
1
1.46256
0.661034
0.97145
1.00644
1
1.47176
1
1
1
1
1
1
1.00011
1.43754
1
1
1.47426
1
1
1
1.47133
1
0.658937
1
1
1
1.1621
1
1
1
1
1
0.790003
1
0.657128
1
1.47156
1.00006
0.865003
0.868233
1.00002
1.00413
1.24133
1
1
0.657294
1.47116
1.4716
1.47139
1
0.649417
0.653541
1
1.47129
1
1
1
1
1
1.00003
1
0.659173
1.30103
1
1
0.658339
0.982577
1.00001
1
1
1
0.644307
1
0.690288
1
1
1.47747
1
1
0.656202
1
1.47165
1
0.657407
1
0.660844
1
1.00807
1.47039
1.48525
1
1
1.47224
1
1
1.10017
0.996776
1
0.998194
1
1.47414
1
0.657805
1.00002
1.47106
0.998985
1
1
0.797872
1
0.999012
0.655602
1.47294
1.16838
1
1.00001
0.903209
1
1
1
0.791312
1
1
1
1.47159
1
0.658151
0.999999
1
1
1
0.652047
1.4716
1.43269
0.659287
1
1.47651
1
1
1.47125
1.47213
1.39554
0.654203
0.997745
0.999238
1
1.47142
1
1
1
1
1.47148
1.00004
1
1
1.47047
1
1
1.4718
0.658796
1
1
1
0.658107
1
0.999999
0.999999
0.998632
1
1
1
1
1.35879
1
1.47159
1.47177
1.48109
1.47157
1.47195
1.4717
1
1.47235
1
1.47131
1.47182
1
0.998837
0.658602
1.40181
0.999913
1
1
1
1
1.00199
1
1.0745
1
1
1
0.849105
1.47177
1.47049
1.47167
1.40738
0.999872
1
1.02352
1.47189
0.997905
1.05872
0.99721
0.658089
1
1.00002
1
1
1
1
1
1.47124
0.656991
1.47143
1.47169
0.995389
0.658146
1
1
1
1.47108
0.657988
1.41471
0.649668
1.47146
1.47298
0.660321
1.47047
1.02421
1
1.47463
0.787517
1
0.998774
0.656893
1
0.657746
1
1.47174
1.47119
0.758346
1
1.47149
0.657737
1
0.659969
1
1.47156
1
1
1.46798
1
0.833679
1
0.999669
0.657557
1.47032
0.999487
1
0.65772
1
1
1
1
1.24657
1
1.4719
1
1
1.47776
1
1
1.47181
1
0.657467
1
0.656843
1.00001
1
1
1
1
1.45102
1.27099
1.47144
1
1.47131
1.43689
0.643559
0.657254
1
1
1.47223
1
0.657587
1
0.981498
1
1
1.47136
1
1.47285
0.656984
1.47817
1
0.657579
1
1
1.47045
1.46977
1
1.00004
1
1.4734
1
1
0.650499
0.999418
0.658124
1
1
1
1.47348
1.47377
1.47151
1
1
0.65888
1
1.47166
1
1
1
1.4587
1.47151
1.47154
0.657724
1.47381
1.47133
0.661426
1.4715
1.00004
0.661967
1.01584
1
1
1.47058
0.657935
1.29637
0.658146
1.47138
0.997352
0.653086
1.47379
1
1
1
1
1.47199
1.47214
0.660729
1
1.00002
0.660229
1.00003
1
0.655388
0.657469
1.32482
1.47063
0.998466
1.47158
1
1.47044
0.815612
0.656778
1.47159
1.48301
1
1.47193
1
1
1.47162
1
1.35446
1.47158
1
1
1
1
1.47138
1.46592
1.47349
1
1
1.47231
1.47129
1.47122
1
1.47134
1
1
1
1
1
0.65707
0.83736
0.656799
1
1
1.47148
1
1
1.47239
0.647427
1
1.47154
1.46613
1.44996
0.646879
1
0.657826
1
1.00003
1.47149
1.21669
1.47125
1.42876
1
0.658124
1
1.47019
1.33253
0.657229
1
1
1
0.80115
1
1
1.47865
1
0.657427
1.47147
1
1
1
1
1
1.37717
1.1027
1
1.47172
1
1.47226
1
0.997392
1
1.47172
1.47098
1.47129
1.47593
0.99958
1.47115
1
1.47136
1.4704
1.39705
1
1
0.657279
1.47113
1
1
1.4757
1.47183
1.47289
1
1.47163
1
1
1.00003
1.47048
1.47269
1.1298
1.09948
1.47154
1.47125
0.694346
1
1
1
1
1.00001
1.1638
1
1
1.39587
0.658287
0.999974
1
1.47155
0.999886
0.999815
1.071
1.44154
1.47155
0.908846
1
0.657745
1
1.00194
1.47189
1.47447
1.47232
0.99903
1
1
0.657751
1
1
1.47189
1.04943
1
1
1
1
1
1
1
0.999938
1.47212
1.00002
1
1
1
1
1.29801
1
1.21877
1
1
1.4714
1.47672
0.657816
0.998753
1
1
1
0.659946
1.47111
1.47123
1
1
1
1
1
1
1
1
1.47107
1.46852
0.65806
1.05055
0.658195
1
0.650152
1
1.4721
1.12792
1
1
0.713758
1
1.45045
0.807078
0.996559
0.657071
1
1
1.46988
1.00004
0.997198
0.641939
1.47218
1.4747
1
1
1
1
1.43927
1
1
1.47173
0.998941
1.47192
1.00005
1
1
0.659187
1
1
1.47156
0.654919
0.781403
0.657782
1.47158
0.999296
1
1.47207
0.658148
0.657508
1.01807
1
1
1.47143
1.00004
1.2155
1
1
1.47131
0.659959
1
1
1.00014
1.47179
1.00013
1.45864
1
1.00003
1
1
0.725122
1
0.780624
1.00001
1
1.4739
0.659884
1
0.783379
0.80211
1
1
1.47169
1
1
1
1.47144
1.47174
1.00005
1.46191
1.47137
0.785208
1.47143
1.44919
1
1
1.46685
0.999999
1
1
1
1
1.47941
1.47133
1
1
1
1.47145
1.0002
1
0.658758
0.717343
1
1.00003
1.17274
1
1
0.896478
0.657939
1
1
1
1.47639
1.43102
1.47164
1
1
1
1
0.657478
1
1.45471
1
1.4668
0.658084
1.47054
1
1
1
0.658935
1
1.47164
1.00003
1
0.65787
1.168
1
0.999659
1.48189
0.646385
0.656847
1
1.47181
0.648038
0.657493
1
0.659495
1
1
1
1
0.658261
1
1
1
1
1.47006
1
1.35942
0.657458
1
1
1
0.657429
1.47143
1
1
0.996714
1.46974
1
1.47116
1.47165
1
1
0.718694
0.656912
1
1
0.657284
1.13935
1.21659
1
1
1.47467
0.997348
1
0.997766
1.47224
1
1
1
1
1
1
1.47133
1
1.16308
1.14818
0.699745
1.41518
1
1.47195
1.47132
1
1
1
0.911337
0.657355
1
1.22377
0.999659
1.4262
1
1
1
0.999999
1
1.00683
1.20636
1.47271
1.47107
1
1.47192
1
0.657348
1
0.997658
0.999773
1
0.654852
1
0.658078
1.00002
1.47501
1.47121
0.657689
1.47753
0.65893
0.996133
1.36169
0.659396
1.33485
1
1
0.998432
1
1
1
1.00006
1
0.658056
1
1
1
1
0.999592
1.47194
0.806596
1
1
1
1.03734
1
1
1
1.26451
0.754671
1
1
1
1.05266
1.4714
1
0.657621
1
1.47341
0.891932
0.657935
1
0.655421
1
1
1.44515
0.998223
1.43402
1
1.00906
1
1
1.47164
1
1
1
1
1.09202
1
1.47156
1.47345
1.4712
0.657731
1.47196
0.997095
1.38167
1
1
0.648555
1
1
0.657273
1.47432
1
1
0.999953
1
1
1
0.641727
0.658328
1
1.47187
1
1.21418
1.47137
0.6597
1.39276
1
1
0.673864
1
1
1.47155
1.47095
1.1679
1
1
1.00136
1.47128
0.657448
0.657399
1.47145
1.47133
1.3227
1.18189
1
0.899056
1
1
1
1.44297
1.47464
1.47174
1
1
1.47084
0.658437
1.42426
0.633906
1
0.658186
1
0.658309
1.4713
0.645056
1
0.971664
0.6831
1
1
1
0.843435
1.42702
1.4717
1.47197
1.47195
1
1
1.47169
1
1
1.47111
1
0.657823
1
0.657085
1
1.47124
1
1
1.02619
1.35809
1
0.998785
0.6568
1.47123
1.00001
0.657972
1.08797
1
1
1.35693
1.47164
1.47183
1
1.47244
1.12148
1
1.02353
1.47135
1
1
1
1
1.47138
1
0.650978
1.47177
0.659871
0.657662
0.82438
1.47241
1.16255
1.47148
1
1.47194
0.997437
1.00003
1.47144
1.4724
1
1.47193
1
1.47136
1
1.47122
1
1.00004
0.999967
1.47169
0.654207
0.657992
0.99784
0.999999
1
1
0.658506
1
1.30674
1
0.644959
1
1.1791
1.47101
1.47676
1
1
1.00003
0.999447
1
1.47144
1.47109
1
1.19405
1.47202
0.845081
1.47097
1.00011
0.653317
1.10009
0.657853
1
1
1.07764
1.47152
1
1
1.04139
0.998544
1
0.659339
1
0.784523
1
1.46992
1
1
0.658152
1.107
1.05965
0.998494
1.47129
1.47144
0.774605
0.998075
0.657253
0.658251
0.657944
1
1
1
0.999056
0.72343
0.657713
1
1.47139
0.999744
1.47148
1.4716
1.47122
1.47093
1
0.658914
1.47164
0.655526
1
1.47208
1.47457
0.996681
0.812838
1.47228
1.34109
1
0.659546
1
1
1.47301
1
1.02681
1.47138
1
0.658586
0.657145
1
1
0.647579
0.649599
1.4715
1.00005
1
0.650695
0.64914
1.47338
1.46347
1.43938
1.47101
1.12871
0.983004
1.18729
1.47074
1.36984
1
1.24192
1
0.651136
0.862045
1
0.657491
1.47163
1.022
1.47303
1
1.4712
1.47161
1
1.47135
1.47159
0.657448
1.47523
1
1.47809
1
0.747605
0.657379
1.47122
1
1
1
0.657328
1.47175
1.47267
1
0.658243
1
1
0.657698
1.00004
0.642836
1.47143
1
0.82408
0.649479
1
1
1.2677
1
1
1
1.0762
0.657727
1
1.00001
1
1.47429
0.659466
1
1.47171
0.659032
0.658122
1
1
1.47103
1
1.47252
1.00001
1.47136
0.658349
1
1
0.656998
0.811211
0.657802
1
1
1
1
1.47511
0.652529
1
0.657932
1
1.4761
1
1
0.927986
1
1
0.823733
0.999683
1.00005
1
0.659737
0.65737
1
1
1
1
0.797828
1.46972
1.47141
1
0.658177
0.657499
0.908022
0.657308
1
0.829428
1
0.659539
0.984963
1
1
0.658184
1
1.47048
1.45996
0.657339
1
1
1
1.47517
1
1.04225
0.838222
1.14416
0.658104
1.18368
0.657307
1
1
0.71789
0.904286
1
1.04049
1
1
0.657809
1
0.942183
1.04246
0.65918
1
1.37509
0.758279
0.880242
1
1
1
0.657545
1
0.65783
0.658211
1
0.851362
0.657865
1.06449
0.748488
0.649759
1.4713
1
1.4715
1.25212
0.730473
1.47148
0.658329
0.998999
1.47122
0.999999
1
1.47194
1
0.721848
1
1.06554
1
1
1.47138
1
0.76806
0.815843
1.47117
0.938767
1
0.761849
1.47157
1.47133
0.903861
1
1.47158
1.12215
0.849771
1
1.01879
1
0.658203
1.19951
0.771156
0.747051
1
1
0.657055
1.47215
0.965323
0.658939
0.654116
0.862601
1
1.01897
1.47193
1.47153
1
1
0.999999
0.65835
1.21823
0.999994
1.47074
1.42655
0.657389
1.00001
1.09653
0.87683
1.27526
1.41776
1
1.04166
1
1.00005
0.648964
0.847921
1
1
0.81606
0.647577
1.03528
1
1.00002
0.649519
1.20923
1
1.46463
1
1.03866
1.25066
1
1.46495
1
1
1.47224
1
0.647302
1.47153
0.701573
1.12522
1
0.657714
0.999916
1
1.00003
1
0.795288
1.02661
0.657652
1.3373
1.47129
0.640073
1
1
1
1
1
0.965761
0.658161
1.05306
0.658942
0.658101
1.0728
1
0.999793
1.11812
1
1
0.660606
0.989736
1
1
1.13029
1
1.47169
1
1.47141
1.09243
1.02167
0.658222
1
1
0.657554
1
1
1
1
1.47159
1.04375
0.998075
1
0.645029
1.05391
0.999999
1
1.30549
1
0.656948
1.46998
1
1.00001
1
1.47149
0.656545
0.873185
0.646752
1.35349
1.47271
1
1
1.47141
1
0.648777
1
1
1
1
1
0.775068
1
1.47188
1
1
1.15865
1.47188
0.666082
0.867605
1
1.47141
1
1
1
1
1
1.47159
1.47121
0.649777
1.47122
0.641143
1
1
1.47146
1
1.4718
1.0063
1.02886
1.0603
1.47168
1.06791
1.31904
0.643441
1
0.643247
0.987411
1
1.47176
1
1
0.648626
1.47042
1
1.47106
1
1
1
1
1
1.00001
0.657986
1.47149
0.851458
1.47153
1
0.658369
0.660962
0.718222
1.47482
1.47201
0.96264
1
0.795817
1
1.17938
1
1.4718
0.644608
0.65933
0.851456
1
1.47127
1
1.07499
0.675939
1
1.47165
1.40593
0.998873
1
1.4715
0.657102
1.47137
1.47176
1.47469
0.657588
1.09127
1
1
0.644446
1
0.807221
0.832908
1
1.00002
1.47137
1
1.47654
1.08545
1
1.03697
1.47935
1
0.657449
1
0.770764
1
1
1.38446
1
0.803321
1
0.656695
1.03701
0.947201
0.649565
1.47154
1.37993
1.47107
0.657967
0.701859
0.995885
0.999999
1
0.688883
1.44441
0.657108
0.999967
1
1.47151
1.47158
0.900794
1
0.657
0.708924
1.31015
0.973973
0.643615
0.999999
0.656462
1.11826
0.656476
1
1.00006
0.816341
1.47109
1.47158
0.843034
0.999594
1
1
0.721488
1
0.651404
1
0.652349
0.658029
1
1
1.00003
0.657194
1.47149
1
1
1.00007
1.00004
0.657702
1.47117
1.4718
0.999999
0.65858
1.471
1
1.09783
1
1
1.47364
0.654746
1
1
0.657578
0.749849
0.658688
0.658029
1
0.696881
0.997165
1.09017
0.646395
1
1
1.12849
1
1.41632
1
1
1.32657
0.688465
1
0.657254
1.12555
1.4716
1
1
0.658033
0.658308
0.640452
0.733379
0.658911
1.3517
0.999399
1
1
1
1
1.47096
0.659399
1
0.934485
0.999676
0.9989
0.999936
0.761871
1.12673
1
1.47159
1.47148
1
1
1.45085
1.00004
0.999999
1.47147
0.657993
1.47134
0.999999
0.644175
1.47144
1.00005
1
0.824692
1
0.646613
1
1.47125
1
1
1.47516
1
1
1.47134
1
1
1
1.4715
1
0.751361
0.725307
1
0.63439
1.47202
1
1
0.970799
1
1.47439
1.26768
1.37582
1
1
0.668927
1
0.658106
1.47155
1.47137
1.4717
1
1.47139
0.6581
1
0.65952
1.37688
1.42813
1.47457
1.47215
0.763763
0.646043
1
1.31046
1.47154
1.47153
1.47148
0.750926
1.16842
1
1.35541
0.753816
1
1.00002
1
1.00002
0.894012
1
1.47464
1
1
1
1
1
1
1.00006
1.46899
1
1.47575
1.34486
0.657278
1.47177
1.02525
1.22967
1
1.47103
1
0.657325
1
1
1
1
1.40094
1
0.641995
1.47062
0.640111
1.4715
1.3751
1.239
1
1.08794
1.21694
0.995611
0.658498
0.771465
1.00002
0.999999
0.91884
1
0.650144
1.47138
0.650924
0.929042
0.853334
1
1
1
1.01279
1
1
0.658309
0.996403
1.47191
1
1.47149
1
0.653237
1
1
1.47138
1.47198
0.644438
1
1.47165
1
0.813453
0.650981
1.47168
1.421
1
1.07773
1.47144
0.998661
1
1.19257
1.41231
1.47015
0.995864
1
0.999998
1.39878
1
1
1
1.4715
0.998486
1
1
1.47103
1
1
0.659551
1
1
1
1.47181
1
1
0.855764
1.13938
1.42803
0.773425
1
1.47147
1
1.16642
1
1.47182
0.997272
1.47188
1
0.657736
1
1.3186
1
1
1.43913
1.00002
1.47164
1
1.47277
0.696871
0.660644
1.47147
1
1.39609
1
1.47123
1
1
1.00005
1.47098
1.47034
1.1179
1.47193
0.995713
0.658152
1.47111
0.866505
1
1.47071
1
1.47161
1
1.47376
1.47124
0.996206
0.65725
1
1.47148
1
1.02903
1
1
0.997963
0.748414
1.41908
1
1.42963
1
0.871473
0.643877
1.47222
1.47163
0.697535
1
1.47165
1.4717
1.47175
0.691992
1.47091
0.670366
1.47133
1.47444
1
1
1.47157
1
1
1
1
0.657096
1
1
1.47116
1.47142
1
1.47171
1
1.47183
1.47099
1
1.3904
1
0.636918
1.47098
1.34813
1.12997
0.641083
1.4715
1
1
0.648347
1
1
1.47139
1
1
0.778677
1
1.47124
1.00009
1.472
0.645067
1.47119
1
1.47183
1.45277
0.894944
1
1.47266
0.763692
1.4714
1.32895
1.47149
1.47246
0.99723
1.4713
1.47112
1.47182
1.47157
1.0008
1
0.658041
1
1.47178
0.833644
1.42919
1
1.46268
1
1
1
1
1
1.46873
0.647475
0.659311
1.47184
1.47128
1
1
1
1
1
1.46787
1.4362
1.47197
1.01532
1
1
1
1.00003
1.47022
1.47139
1
1.47136
1.47075
0.657823
1.32568
1
1.47142
1.47582
1.46796
0.998016
1.47191
1.47149
1
1.42788
1
1
1
1
1
1
1.47195
1.47123
1.43807
1.47177
0.650729
0.698385
1.47163
1.47196
1
0.654397
0.941641
1
1.2214
0.651281
1
0.999456
0.998268
0.658821
1
1.47147
1
1
1
1.47154
0.941641
1
1.47166
1.47121
1
1.47135
1
1
1.47154
1
0.65781
1
1.47454
1
1
0.657923
1
1.47224
1
0.637383
0.65014
1
1.46466
1
0.634223
0.882984
1
1.47158
1
1
1
1.47613
1
0.6572
1.0668
1.47132
1.47337
1.47153
1.04091
1.47332
1.4717
1
1.00002
1
1
1.00001
1.47106
1
0.999289
1.47406
1
0.642604
1
1.4712
1.21658
1.05442
1.21533
1.06258
1.47698
0.708208
1.47135
1
0.65926
0.997102
1.47164
0.942503
1.47171
1.47168
1.46604
1
1.47118
1.47113
1.47131
1
1.00004
1
1
1.4715
1.32952
1
1
0.657842
0.996582
1
1.47148
1
1.47147
1.4717
1.4734
0.902274
1.47155
1.47154
1.00768
1.22348
1.4714
1.47164
1
1.43416
0.834775
1.4594
0.990692
1.47152
1
1.47144
1.47081
1
0.657891
0.933981
0.701002
1
1.08197
0.996832
1.47185
1
1
0.996566
1
1.22779
1.44347
1
1
1.47175
1
1
1.33434
1.47132
1.45201
1.47185
1.47105
1
1.47186
0.737455
1.47176
1
0.991124
0.657794
1
1
0.748663
1
1.14145
1
1.47325
1
1.46245
1.2958
0.657723
1
1
1
1
1
1.4718
1.01153
1
1.47142
1
1.47162