/*--------------------------------*- C++ -*----------------------------------*\
  =========                 |
  \\      /  F ield         | OpenFOAM: The Open Source CFD Toolbox
   \\    /   O peration     | Website:  https://openfoam.org
    \\  /    A nd           | Version:  12
     \\/     M anipulation  |
\*---------------------------------------------------------------------------*/
FoamFile
{
    format      ascii;
    class       volScalarField;
    location    "1.9";
    object      T;
}
// * * * * * * * * * * * * * * * * * * * * * * * * * * * * * * * * * * * * * //

dimensions      [0 0 0 1 0 0 0];

internalField   nonuniform List<scalar> 
22702
(
1
1
0.962664
1
1.01737
1
1.12057
1
1
0.890507
1.12067
1.12072
1
1.11842
0.967662
1
1
1
1.12048
1
1.11868
1
1.11898
0.89719
1.11878
0.888725
1
1.11979
0.897053
0.896917
1
1.12062
1
1
1
1.11062
1.11907
1.11914
1
1
0.890507
1
1.06272
1
1.11982
1
1
1
1
0.897002
1
0.896317
1
1.12056
1
1.12073
1
1
1
1
0.889061
1
1
0.896622
1
0.896558
1
1
1
0.889561
1
1.11873
1.07573
1
1.11876
1.12538
0.89718
1.11962
0.899393
1
1.12082
0.897073
1.11979
1.1197
1
1
1
1
0.981541
0.889813
1.12089
1
1
0.889419
1
1.11875
0.889127
1
1
1
1
1.06267
1.12066
0.888641
1
1
1.03192
1
0.897507
1
1.11974
1.12048
1
1
0.885167
0.886443
0.889893
1
1
1
1
1
0.975625
1
1.10347
1.0135
1.11972
1
1.11977
1.12065
1.11853
1.12082
1
0.889589
1
0.889613
1
1
1
1
1.12065
1
1
1
1
1.11882
1
1.00772
1
1
1
1
0.896143
1
1.00292
1
0.90002
1
1
1
1.12051
1
1.11868
0.885562
0.889047
1.11893
1.11878
1
1.02306
1.07116
1
1.12064
0.899649
1.11087
1
1
1
1
1.11845
1.09924
1
1.12055
0.897452
1.1206
1
0.89891
1
0.897469
0.88893
0.99994
1
1
1.12072
1
1
1.11858
1
1.11968
1.12053
0.897251
1
1
0.896877
1.11852
1
1
1
1.11851
1
0.891142
1
1
1.11851
1.11855
1.11957
1
1.00001
1
1
1
1.11866
1
0.897075
1.12376
1.11857
1.11865
1
1
1
0.892208
1.11837
1.06121
1
1.11893
0.894695
0.893547
1.11896
1.11847
1
1.11923
0.884372
1.10625
1
1
1
1
1.11855
1
1.07381
1.0123
1
1
1.11857
0.888961
0.93128
1
1.11846
0.889489
1.11942
1
1
1
1
1
1
1
0.895894
0.929156
0.891699
1.11858
1
1
1
1
1.10888
1
0.898405
1
0.890286
0.898143
1.11848
0.896419
1.11867
1
1
1
0.999343
0.898113
0.88486
1
1
0.887604
1
1.12049
0.888973
1
1
1.12084
0.88621
1
1.11823
0.888846
1.11857
1
0.893389
0.999346
1
1
1
0.896647
1
1
1
1
1.00548
1.07631
1
0.890107
1
1
1
1
1
1
1
1.12083
1
1.12122
1
1
1
0.889684
1
1.11877
0.896488
1
1.09469
1
1
1.12066
1
1
1
1.11843
1
1
1.11784
1.12058
1
1.02856
1
1
0.889383
1
1
1
0.889807
1
1
1
1
0.886917
1
1
1
1
1
0.887954
1.00002
1.1187
1
0.999997
1.11874
1.11908
1
1
0.899872
0.945259
1.12075
1
1
1
1.11853
0.889315
1
1.11869
1
1
0.910246
0.909454
1
0.897627
0.889737
1
1
1
1
1
1
1
1.11985
1.03239
1.11435
0.889308
0.97484
1.12093
1
1.11885
1.12063
0.889739
0.933584
1
0.889621
1
1.12409
1
1
1
1
1.11854
1
1
1
1
1
1
1
1.04697
1.11996
1
1.11858
1
1
0.898442
1
1
1
1
1.1185
1.0925
1
1
0.898486
1.11861
1.11851
1
1.1185
1.11861
1.11857
1
0.952009
1
1.11848
0.997704
1.11857
1
0.889889
0.999675
1.12064
1
1
1
1
0.896389
1.11839
1.10839
1
1.11828
1.11852
1.12059
1
1.05795
1.11875
1
1
1.08517
1.01864
1.11851
0.982755
1.11851
1
1.1185
1.11849
1.11851
1.11863
1
1.11759
0.975711
0.966159
1
1
1
1
1.11865
1
1
1
1
1
1.12052
1
1
0.99888
1.1185
1.10379
1
1.09986
1.00001
1
1
1.11867
1
0.99915
1.00135
1
1.11851
1
1.11858
1
1
1.09004
1
1.11861
1.00001
1
1.11872
1
1.1185
1
1
1
1.11854
1
1.11902
1
1.11854
1.12082
1.11857
1.1197
1
1.12077
1.11706
1
0.897805
1.112
1.08777
1
1.11855
1
0.888976
0.888736
1
1
1
1
1
0.888961
1
1.11859
1.03437
1.11864
1
1
1
1
1
1.11849
1
1.11862
1.07381
0.934477
1
1
1.03789
1.03253
1
1
1.04617
1
0.900375
1.11857
1.11858
1
1
1
1.12068
1
1.00001
1.11872
1.11841
0.988286
1
1
0.897066
1.10903
1
1
1
1
1
1.1185
1.12076
1
1.11868
1.11901
1.11857
1
1
1
1
0.88895
1.12067
1
1
1.109
1.11825
1
1.11222
1.11998
1
1
1
1
1
1.11853
1
1
1
1
1.11812
1
1.11729
0.889279
1
0.888811
1
1
1
0.999116
0.897024
0.999728
1
1
1
1.01813
1
1
0.962069
1
1
1
1
1
1
1
0.999999
0.982125
1
1
0.999304
1
0.896383
1
1
1
1
1.09095
1
1
1
1
0.897738
1
1
1.11241
1.12056
1
1
1
0.96696
1
1
1
1
1
1
0.988119
1.00523
1.11868
1
1
1
1.11897
0.971474
1
1
1
1.11962
1.11929
1
1
1
1
1
1
1
1
1
0.889555
1
1
1.11977
0.890506
1
1.11957
1
0.897531
1
1
0.889215
1
1
1
1
1
1
1
1.11648
1.11831
1
1
1
1
1.10928
1
1.04057
0.896892
1
1
1
1
1
1
1
1.01309
1
1
1.06788
1
1
1
1.09974
1
1
1
1
0.889525
1
1
0.88414
0.889556
1
1
1.1185
1
1.00484
1
1
1
1.0857
0.886182
1
0.885771
1
0.933645
1
1
1
1.1191
1
1
1.11861
1
1
1
1.11862
1
1
1.11849
1
1
0.889805
1
1.04008
1
1
1.12086
1.12089
1.08214
1.10743
1
0.889624
1
1
1.11389
1
0.889038
1
1
1
1.11864
1
1
1
1
1.07435
1
1.11087
1.11869
0.889801
1
1
0.888953
0.888722
1
1
1
1.087
1.09177
1
1
1
1
1
1
1
1.05423
1.12054
1.00356
1
1.11725
0.889145
1
1
1
1.0686
1
1.02526
1
1.10929
1.11806
1
0.890234
1
1.12086
1
1
1.11869
1.11189
1
1.12145
1
0.895095
1
1
1
1.11829
1.11649
1.10556
1
1.11972
1.11857
1
1.11877
1
1.11808
1
0.889404
0.993104
0.889033
1
1
1
1
1
1.11852
1
1.11854
1
1
1
1.11319
1
0.89741
1.11862
1
0.897908
0.894977
0.888206
1
1.06179
1.01301
1.11897
1.11861
1
1
1
1
1.11858
1
1
1.11857
1.11854
1
1.04486
1.00001
1
0.999093
1.12044
0.955639
1
0.94838
0.900496
0.900191
0.990961
1.11889
1.11707
1.02661
1.11865
1.11861
1
1
1.12071
1.12056
1.11854
1.12125
1
1.11858
0.897109
1.11855
1.11856
1.11975
1.11932
0.960949
0.97016
0.981414
1.11852
0.989904
1.1186
1
1
1.119
1.1187
1
0.889786
1.11916
1.11851
1
1.11854
1.11855
1
1.11857
0.89741
1.11864
1.1206
1.12075
1.11923
1
1
1
1.11849
1.08015
0.893175
1.1186
0.885981
1.11848
1
1
1
1
1.11846
1.11863
1
1
1.11858
0.888186
1.11892
0.89785
1
1.11778
1
0.891454
1.11889
0.918358
1
1.11862
1.11916
1.11865
1
1
1.0602
1.11899
0.898207
1.11855
1
1.1186
0.963816
1.11872
0.889775
1
1.1185
0.90144
1.119
0.89738
1
1.11863
1
1.1193
1
1.07236
1.11458
1.09543
0.886145
1
1.11861
1
1.11854
1
1.11855
1
1
1.11867
0.996646
1.11918
0.894358
1.11007
1
1.08631
1
1.11891
1.11855
1.1188
1
1.10777
1.11866
1.11061
1.07564
1.11893
1
1.08158
1
1.11879
1
1.01865
1
1.11091
1
1.1186
1.11363
1.11339
1
1.11718
0.888835
1
0.889487
1
1
1
1.12055
1
1.11867
1
1
1
1.11878
1.11596
1.09981
1.11893
1.11936
0.888788
1.11741
1.12078
1
1.10455
1.11855
1.11459
1
1.12079
1.1209
1
1.12015
1.11871
1.11863
1.11887
1
1
1
1.11856
0.886114
1
1.11859
1
1
0.889023
1
1
1.1186
1.11844
1
1.11853
1.11794
1.11875
0.993377
1.11856
1
1.11857
1.1186
1.09751
1
1
1
1.11893
1.11858
1.11862
0.986158
1
1.12038
1.11858
1.11858
1
1.11864
1.11881
1.11858
1.12052
1
1.11849
1.1187
1.10505
1.11844
1.12013
1
1.11941
1.11738
1.11862
1.11882
1.11865
0.889104
1.1187
1.11841
1
1.11858
1.11861
1.11856
1.11852
1
1.11862
1.11863
1
1.11849
1.10143
1
1
1
1.11829
1.11966
1
1
1.06774
1
1.11856
1
1
1.11858
1.11894
1.1186
1.1186
1
1
1
1.08692
1
1.11865
1
1
1.12066
1.12075
1
1.11859
0.88566
1.11858
1.11865
0.912164
1
0.886278
1.10544
1.11921
1.11876
1.11875
0.888419
1.11857
1.11876
0.888693
0.884521
1
1.11863
1.11862
1
1
1.11862
1
1.11872
1
1.10489
1
1.05883
1.11865
1.11913
1.08725
1.1071
1.12066
1.11898
1.11135
1
0.888993
1.11919
1.11855
1.12004
1
1
1
1.12036
1
1.11857
1.11848
0.925936
1
1.1186
0.999982
1
1.00001
1.00001
1.11854
1.11862
0.999559
1
1
1.11854
1.11901
1.11857
1.11933
1.11858
0.893215
1.10709
1
1.11774
1.11857
1.11862
1.1179
1
1.11854
1.11563
1.11881
1
1.11867
1.11852
0.960294
1.11854
1.11873
1
1.11844
0.952347
1.11871
0.95932
1.11857
1
1.1186
1.1219
1.11855
1.11858
1.11862
1.11932
1.11866
1.1194
1
0.98085
1.11868
1.11851
0.95301
1.11858
0.994628
1.07953
1.11859
1.11876
1.11867
1
1.11919
1.07961
1.11891
0.97939
1.11904
1.12127
1
0.962609
1
1.11706
1
1.08439
1
1.11222
0.963611
1
1.11829
1.11915
1
1.1188
1.119
1.11974
1.11921
1.12031
1
1.12071
1
1
1
0.971329
1.11854
1.11836
1.1184
1.11859
1.11994
1.11867
1.11796
1.11865
0.972364
1.00873
1
1
1.12268
1.11862
1.11857
1.11849
1.00001
1.0636
1
1.12003
1.10497
1
1
0.921544
1.11861
1
1
0.898221
1.11853
1
1.12076
1.11859
1.1208
1.11448
1.11864
1
0.886774
1.03131
1.11861
1.11861
1
1.11858
1.11859
1.06506
1.0027
1.02726
1
1.11944
1.11857
1
1
0.888686
1
1
1.11856
1.1186
1.1186
1.11854
1.11852
1.11948
1.11869
1.11816
1.11853
1
0.998924
1.11876
1.11857
0.999138
1.11859
1.11859
0.888946
0.889657
1.11847
1.11906
1
1
1.00032
1.11854
1.11862
1.11852
1
1.1186
1
0.958345
1.12021
1.11952
1
1.0574
1.1187
1
1.11934
1
1.1185
1.08183
1.11836
1
1.11855
1.11963
0.88841
1.11863
1
1.1186
1.12025
1
0.889488
1.11895
1.10433
0.999345
1.11483
1.1186
1
1.00127
1.11903
0.999348
1.1186
1
1
1.11866
1
1.11882
1.11857
0.999016
1.09487
1
1.11858
1
1
1
1
1.11848
1
1
1.11836
1
1.11849
1
1.07904
1.1181
1.1184
1
1
1.0022
1
1.11875
1.11856
1.11849
1.11857
1.11859
1.1185
1.11865
1
1.11851
1.1183
1
1.11863
1.11853
1
1.11867
0.979789
1.01675
1.11851
1.11853
1.11863
1
1.11863
1
1.11848
1.11854
1
1.11848
1
1
1
1
1.11856
0.885408
0.999394
1
1.11861
1.11958
1
1.11854
1
1.00159
0.892415
1.11864
0.999881
1
1.11832
0.999537
1.11851
1
0.999936
1
1.11836
1.11916
1.11851
1.11938
0.895278
1.11887
1.11852
1.11871
1.03107
1
1
1.0546
1.11851
0.885161
0.89374
1
1.11875
1.11851
1.1188
1
1
1.11825
1.11863
0.999965
1
1.08874
0.886263
1
1.02263
1.12058
1.11897
0.999503
1.11847
1.1207
1
0.999691
1
1.11822
1.12017
1.05051
1
1.11198
1
1.00066
1.11849
0.889979
1.11853
1.11854
0.999135
0.999975
1.10287
1
0.999913
1
1.11899
1
1
0.885736
1.11866
1
1
1
1
1.11846
1.07082
1
1
0.889092
1.11863
1.07092
1
1
1
1.11362
1.11486
1.1201
1
1
1.11839
1
1.1186
1.11863
1
1
1.11898
1.11854
1.1141
1
1
1.11902
1.11882
1
1
1
1.11882
1
1
1
1.11866
1.12007
1.11917
1
1.11854
1.00001
0.905083
1.11851
1.11848
1
1.11966
1.11347
1.12063
1
1
1.11935
1
1.06942
1.11859
1
0.889481
1
1.11902
1
1
1.11849
1
1
1
1.04002
1.1186
0.89954
1
1.11883
1
1
1.1189
1
1.11942
1
1
1.1186
1.11855
1
1.00001
1
1
1
1
1
1
1.11854
1.11864
1
1.12065
0.890229
1.11946
1
1.11859
1.12031
1.11862
1.11839
1.12161
1
1
1.11869
1
1.07898
1.11966
1.11854
1
1.11923
1.11738
1
1.10685
1
1.11855
1.07978
1.1187
0.999279
1.11664
1.1102
1.11892
1.11873
1.01038
1.11856
1.11933
1
1.11857
1
1.1186
1
1
1
1
0.999013
1.11848
1.1186
1.10252
1
1.11942
1
1
1
0.884419
1
1.1161
1
1.10881
1.11467
1
1
1
1.11022
1.12055
1
1
1.11893
0.889758
1.02341
1
1.11956
1.11849
1.10912
1.11598
1.1185
1
1.11878
1
1
1
1
1.11845
1.11863
1
1.11616
1.01632
1.1187
1.11134
1
1
1.11161
1
1
0.8924
1.0858
1
1
1.11862
1
1.11942
1.1091
1
1.10883
0.890101
1.11869
1.11841
1.11871
1
0.895822
1
1
1
1.11862
1.09896
1
1.11958
1.11856
1
1.11865
1
1
1
1
1.11854
0.999813
1
1.11901
1
1
1.11847
1.11861
1
1.1196
1.02332
1.00001
1
1.11857
1
1.11858
1
1.00404
1.11858
1
1.11853
1
1
1.04121
1.11863
1
1
1
1
1
0.9989
0.890036
0.888007
1.00587
1
1.00896
1
1.00862
1
1.11857
1
1.07756
1
1.11861
1
1
1
1.11861
1
1.09576
1.1185
1
1.06609
1.11868
1
1
1.12025
1.1184
1
1
1.01451
0.885696
1
1.11874
1
1
1
1
1.02191
1.11858
1
1
1
0.891553
1
1.1186
1.11845
1.12133
1
1
1
1
1.06213
1.12194
1
1
1
1.11955
1.11859
1.01491
1
1
1
1.11868
1.11853
1
0.889165
1.11852
1.11857
1.11824
1.11858
1.11836
1
1
1.11954
1.11838
1.11857
0.895106
1.01189
1.11866
1
1
1
1
1
1.11853
0.89179
1
1
1.11856
1.05637
1
1.11928
1
1
1
0.892663
1
1
1.03342
1.11852
1.11856
1
1.11772
1.11935
1
1.02326
1
1.11869
1
1.11874
0.890133
1
1
1
1
1.11864
1.00002
1
1
1
1.11412
1
1
1
1
1.11845
0.89139
1.09483
1.11917
1
1.11841
1
1
1
0.99917
1
1.119
1
0.944862
1
1
1.00001
1.11833
0.891992
1
1.11826
1
1.11825
1.1185
0.89193
1
1
1.11363
1
1
0.89659
1
1.11672
1
1.11389
0.999805
1.11876
1
1
1
1
1.12026
1
1
1.11861
1
1
1
1
1
1
1
1
1.08078
1
1.04181
1.11858
1
1
1
0.890574
1
1
1
1
1.1185
1.11856
1.01681
1
1
1.11882
1
1
1.11864
1
1
1
1
1
1
1.11845
0.935825
1.11854
1.11901
0.999123
1
1
1
1.07343
1
1
1.11853
1.11855
1
1
1
1
0.891161
1
1
1
1.07746
1
1.11858
1.11935
1
1.11882
1
1
1
1.06752
1
1.12058
1
1.11853
1
1
0.998869
1.1186
1
1
1
1
1
1.11905
1.00001
1
0.894316
1.11893
0.894302
1
1.11885
1
0.99884
1
1.11885
1.11829
1
1.1183
0.965642
1.11849
1.11831
1.00001
1
1
0.890327
1
1
1
1.11857
1.07232
1.11908
1
1
1
1
0.999073
1.11892
1
0.890367
1
1
1
1
1
1
1
1.12019
1.11883
1.11893
1
1
0.999107
1
0.996089
1
1
1
0.889475
0.995046
1
0.890684
0.891169
1
1.11871
1.11858
1
1.11888
1.11855
0.889948
1.08052
1
1
1
0.89038
1.11875
1
0.888836
1
1.11864
1.02399
1
1
1
1
1.11852
1.11994
1
1
1.11862
1
1
1.12015
1.11857
1
1.11108
1.11857
1.12016
0.988753
1.11861
1.00252
0.889721
1.09345
1.11838
1
1
1
0.889565
1
0.890423
1.11909
0.988539
1.11864
0.987682
1
1.11876
1.05786
1
1
1.11841
1
1.0528
1.11843
1
1
1.11883
1.1173
0.890056
1.07423
0.99997
1
1.07292
1
1.11849
0.985072
1.12134
1.11924
1
1
1
1
1.11604
1
1
1.11878
0.999898
1.11865
1.09956
1.11881
0.894108
1
1
1
1
1.11864
1.00001
1.11858
1
1.11887
1.11831
1.01648
1.11861
1.04098
1.11873
1
1.08413
0.897563
1.11873
1.11852
1.09492
1.02421
1.11957
1.11849
1.11849
1.11891
1
0.97667
1.01848
1
1.1185
1.05872
1.1186
1.00001
1
1
0.900644
1.11822
1.11944
1.09815
1
1.0498
1
1.11854
1.11865
1
1.11875
1.11917
1
1
1
1.11894
1
1.04978
1.11914
1.08476
1
1.11843
1
1
1
1
1
1
1
1
1
1
0.897631
1
1.11224
0.889
1.07315
0.99959
1.11824
1
1.06564
1
1.07939
1.10339
1
1.00054
1.1197
0.974847
1
1.11899
1.1157
0.984987
1
1.11823
1.11864
1.11912
1
1.11846
1.11857
1.11908
1
1.05698
1
1.00002
1.11863
1
1.11888
1.01922
1.1188
1
1
1.11846
1.11881
0.899315
1
1.11864
1.09155
1.11838
1
1
1.11996
1.11904
0.999497
1
1.10761
0.999134
1.11856
1.00002
1
1
1
1
1.0567
1
1.09276
1.11837
1.09097
1.11847
1
1.00048
1
1
1.11999
1
1.11922
1
1
1
1
1
1
1.01572
1.06505
1
1
0.890769
1
1.11821
0.898769
1.11962
1
1.06183
0.999929
1.11865
1.07904
0.896306
1.06853
1.00001
1.11862
1.11889
1
1.07504
1.11853
1.11885
0.999546
1.11797
1.11555
0.88625
1
1
0.999329
1
1.11817
1
0.897178
1.11854
1
1
1.10506
1
1.11842
1
1.11875
1
0.898964
1
1
1.11915
1.11731
1.11841
1
1.11892
1.11858
1.11802
1
1
1.11758
1
0.922733
1
1
1
1.1188
1
1.11855
1.08033
1.11881
1
1.11853
0.999823
1
1
1
1
1
1
0.909567
1
1
1.11849
1
1.11965
1.11812
1
0.89105
0.890997
1
1.11896
1.02206
0.891431
0.88685
1
1.11873
1
1.11848
0.88942
1.00043
1
1
0.999861
1
1
1
0.999975
1.05284
1.11862
1
1
1.11883
1.07364
1
1.10704
1.11877
1.11878
1.0529
1.11797
1
1.11855
1
1.11715
1
1.11802
1.11846
0.999071
1.11886
1.11846
1
1
1
1
1
0.978647
1.12012
1.00001
1.00001
0.892585
0.999993
0.889642
0.885485
1
1.11869
1.11861
1.11861
1
1.11859
1
0.892558
1
1
1.11898
0.949419
1.11831
1
1.11901
1
0.99483
1.11865
1
1
1
1.11878
1
1.1187
0.890236
1
1
1.07265
1
1
1.06823
1
1
1.11866
1
1
1
1
1
1.11878
1.11845
1
1.11894
1.1189
0.890214
1.05809
1.11894
1
1
1.10782
0.99971
1
1
1.11853
1.11886
1.07854
1
1.11875
0.893985
1.11379
0.99984
1
1.11841
1.00001
1.11882
1.10238
1.09302
1
1
1.11854
0.91141
0.891307
1
1.11858
1
1.11828
1
1.07415
1
1
1.11838
1.07916
0.890435
1
0.999422
1
1
1.00764
1.0526
1.11856
1
1.11926
1
1
1
1
1
1
1.01939
0.889808
1
1
1.01021
1
1
1
1
1
1.11844
1
1
1.11858
1.11843
1.0891
1
1
1
0.955717
1.11901
1.0853
1
1
1
1
1.11861
1
1
1
1.11837
1
1
1.08833
1.12362
1.01297
0.923631
1.11826
1.08637
1.11884
1
1.06307
1
1
1
0.887426
1.0007
0.895705
1
0.889439
0.88521
1
0.889784
1
1
1
1.0568
1
1.11876
1.11852
1.00043
1.06141
1.1015
0.890073
0.928162
0.967286
1
1.11866
1.12
1.11865
1.11862
1.10311
0.965122
1
1.1038
1
1.11717
1
1
0.998989
1.00291
1
1
1
1.11909
1
0.890167
1
1.1188
0.895494
1
1
1.11861
1
1.1186
0.999764
1
1
1.11873
1.10824
1
1.12283
1
1
1.00427
1
1.0566
1
1
0.889957
1
1
1.11887
1
1.1183
1
1.00001
0.892889
1
1
0.896894
1.00031
1
1.1195
0.889614
1.11855
0.889543
1.11863
1
1
1
1
1
1
1
1
1
1
1
1.11417
1
1.119
1.12003
0.889644
1
1
1
1
1
1
1.11566
1
1
0.892624
1
1
1.11977
1
1
1.04874
1.10134
0.890416
0.888889
0.904403
0.921286
1
0.999014
0.895694
1.00012
1.11108
0.999114
1
1
1.11869
1
1
1
0.92999
1
1.04617
1
1
1.0521
1.11866
1
0.889403
1
1
1
0.999069
1
1.11817
1.11858
1
0.889389
1
1.06781
0.889555
1
0.967595
1
0.998938
0.884499
1
1
1
0.998877
0.890343
1
0.889278
0.999548
1.06566
1.10786
0.88875
0.89309
1
0.997092
1
0.999618
1
1.11872
1.11841
1
1.00597
1.11866
1.1186
1
1
1.11857
1
1
1.00001
1
1.11931
1
1
1.00534
1
0.99959
0.902906
1
1
1
1
1
1.11914
1.00994
1.00001
1
1
1
1
1
1.00001
1
0.890255
1.02963
0.999606
1.12127
1.1187
1
1.00399
1.11867
1.10254
1
1
0.886501
1.11875
1
1.11969
1
1.11885
1.08379
0.890278
1
0.889669
1.11304
0.999908
1
0.89003
0.888363
1
1
1.10149
1
1
0.887714
1
1
1
1.04126
1
0.889515
1.11841
1
1
1
1
1.11863
1
1
1.1183
1.1074
1
1
1
1.1186
0.890522
1
1.11881
1.1186
1
1.09685
1
1.00001
1
1
1.11376
1.00589
1
0.894596
1.06784
1
1
0.999263
1
1
1.1185
1
1
1.00001
1
1.11903
1
1
1
1
1
1
1
1.05566
1
1.11831
1
1
1.11888
1
1
1
1.11859
1.11832
1.01296
1
0.999329
1
1
1
1
1.12011
1
1
1.11858
0.890926
1
1
1
1
1
1
1.09815
1
1
1.11823
1.11916
1
1
1
1.11886
1.11827
1
0.999924
1.11766
1
1
1
1.00001
0.893247
1.00844
0.99892
0.998806
1
1
0.885488
1.11899
1
0.889047
1
1.11836
1.11421
0.890808
0.99983
1.11856
1.11887
1.11849
1
1
0.980368
1.10925
1.09887
0.889393
1
1
1
1.11869
1.11855
0.888768
0.999228
1
1.11861
0.891006
1
1.11704
0.891558
0.99343
1.00184
1
1.11871
1
1
1
1
1
1
1.00003
1.11115
1
1
1.11914
1
1
1
1.11853
1
0.890154
1
1
1
1.04495
1
1
1
1
1
0.936589
1
0.892184
1
1.11856
1.00002
0.961331
0.962222
1
1.00113
1.06546
1
1
0.889736
1.11844
1.11858
1.11854
1
0.885676
0.887341
1
1.11847
1
1
1
1
1
1.00001
1
0.893548
1.07989
1
1
0.890399
0.996651
1
1
1
1
0.883849
1
0.90106
1
1
1.11981
1
1
0.888629
1
1.11859
1
0.889714
1
0.891426
1
1.0023
1.11832
1.1226
1
1
1.12011
1
1
1.02937
0.999078
1
0.999484
1
1.11915
1
0.894164
1
1.12087
0.999724
1
1
0.939064
1
0.999718
0.888114
1.11895
1.04726
1
1
0.972993
1
1
1
0.936865
1
1
1
1.11863
1
0.891154
1
1
1
1
0.889042
1.11858
1.10974
0.889551
1
1.11956
1
1
1.11848
1.11978
1.10172
0.888711
0.999357
0.999783
1
1.11858
1
1
1
1
1.1185
1.00001
1
1
1.11891
1
1
1.11863
0.889333
1
1
1
0.892603
1
1
1
0.99961
1
1
1
1
1.09302
1
1.11989
1.11887
1.12116
1.11858
1.11882
1.11858
1
1.11875
1
1.11851
1.11864
1
0.999668
0.889278
1.10313
0.999975
1
1
1
1
1.00226
1
1.02102
1
1
1
0.957262
1.11863
1.11831
1.11843
1.10509
0.999964
1
1.00673
1.11883
0.999401
1.01812
0.999201
0.889869
1
1.00001
1
1
1
1
1
1.11849
0.889936
1.11853
1.11863
0.998659
0.889
1
1
1
1.1185
0.889007
1.10603
0.887661
1.11855
1.1187
0.891734
1.11833
1.00691
1
1.11922
0.93665
1
0.99965
0.888406
1
0.890049
1
1.11858
1.11851
0.926623
1
1.1193
0.889877
1
0.891059
1
1.11858
1
1
1.11719
1
0.951256
1
0.999906
0.890403
1.1178
0.999853
1
0.889167
1
1
1
1
1.06775
1
1.11865
1
1
1.12086
1
1
1.11877
1
0.891922
1
0.894966
1
1
1
1
1
1.11408
1.07205
1.11855
1
1.11851
1.11096
0.883515
0.888569
1
1
1.11868
1
0.890849
1
0.996372
1
1
1.11862
1
1.11877
0.88852
1.11995
1
0.888784
1
1
1.11832
1.11817
1
1.00001
1
1.11919
1
1
0.8859
0.999834
0.891408
1
1
1
1.11899
1.11899
1.11954
1
1
0.889234
1
1.11865
1
1
1
1.11579
1.11857
1.11858
0.888839
1.11909
1.11852
0.890255
1.11954
1.00001
0.89046
1.00621
1
1
1.11841
0.888922
1.07881
0.889003
1.11854
0.999243
0.887139
1.11904
1
1
1
1
1.11864
1.11997
0.891272
1
1.00001
0.89152
1.00001
1
0.887834
0.89283
1.08552
1.11839
0.999562
1.11857
1
1.11813
0.945097
0.89001
1.11861
1.12206
1
1.1186
1
1
1.11858
1
1.09242
1.11968
1
1
1
1
1.11855
1.11735
1.119
1
1
1.11873
1.12047
1.11877
1
1.11854
1
1
1
1
1
0.889281
0.952278
0.888456
1
1
1.11864
1
1
1.11889
0.884991
1
1.11856
1.1174
1.11389
0.884639
1
0.888883
1
1.00001
1.11972
1.05898
1.12009
1.10917
1
0.888975
1
1.11826
1.08735
0.892803
1
1
1
0.940225
1
1
1.12119
1
0.893899
1.11853
1
1
1
1
1
1.09761
1.0286
1
1.11877
1
1.11869
1
0.999233
1
1.11869
1.11834
1.11852
1.11954
0.99988
1.1199
1
1.11852
1.1183
1.10214
1
1
0.889259
1.1196
1
1
1.11942
1.11858
1.11885
1
1.11869
1
1
1.00001
1.11826
1.11881
1.0358
1.02806
1.11858
1.11851
0.902569
1
1
1
1
1
1.04497
1
1
1.10298
0.89396
0.999989
1
1.11857
0.999967
0.999947
1.01994
1.11154
1.12023
0.974739
1
0.889727
1
1.0022
1.11865
1.1192
1.11849
0.999723
1
1
0.890011
1
1
1.11865
1.01407
1
1
1
1
1
1
1
0.999982
1.11964
1
1
1
1
1
1.07943
1
1.05912
1
1
1.11854
1.11982
0.892578
0.999644
1
1
1
0.890994
1.1196
1.11848
1
1
1
1
1
1
1
1
1.11864
1.11769
0.891329
1.01442
0.892505
1
0.886106
1
1.11877
1.03688
1
1
0.909699
1
1.11402
0.94222
0.999002
0.888781
1
1
1.11943
1.00001
0.999194
0.884268
1.11998
1.12016
1
1
1
1
1.11154
1
1
1.1186
0.999698
1.1192
1.00001
1
1
0.889317
1
1
1.11865
0.888161
0.933543
0.894975
1.11859
0.999799
1
1.11865
0.88904
0.888934
1.00683
1
1
1.11993
1.00001
1.05893
1
1
1.11998
0.892211
1
1
1.00004
1.11942
1.00004
1.11547
1
1.00001
1
1
0.913828
1
0.934604
1
1
1.11911
0.889612
1
0.934192
0.942417
1
1
1.11868
1
1
1
1.11867
1.11856
1.00001
1.11696
1.12007
0.934838
1.11853
1.11383
1
1
1.11616
1
1
1
1
1
1.12107
1.11848
1
1
1
1.1186
1.00006
1
0.889798
0.911
1
1.00001
1.04771
1
1
0.971004
0.893952
1
1
1
1.11974
1.10967
1.1186
1
1
1
1
0.889937
1
1.11507
1
1.117
0.889055
1.11838
1
1
1
0.889287
1
1.1191
1.00001
1
0.891511
1.04714
1
0.999903
1.12235
0.885857
0.888498
1
1.11969
0.885063
0.88955
1
0.88946
1
1
1
1
0.889051
1
1
1
1
1.11959
1
1.09356
0.888891
1
1
1
0.889902
1.11854
1
1
0.999059
1.11788
1
1.11847
1.11933
1
1
0.911586
0.888627
1
1
0.890883
1.03973
1.0587
1
1
1.1202
0.999242
1
0.999354
1.12023
1
1
1
1
1
1
1.11854
1
1.04531
1.04085
0.904623
1.10621
1
1.11863
1.1185
1
1
1
0.975493
0.890538
1
1.06531
0.999903
1.10864
1
1
1
1
1
1.00189
1.05578
1.11879
1.11851
1
1.1186
1
0.897079
1
0.999322
0.999935
1
0.887781
1
0.893947
1.00001
1.11931
1.11988
0.888881
1.12
0.889264
0.998891
1.0938
0.889516
1.08711
1
1
0.999552
1
1
1
1.00002
1
0.889944
1
1
1
1
0.999883
1.11876
0.942051
1
1
1
1.01066
1
1
1
1.07154
0.924334
1
1
1
1.01675
1.12002
1
0.888793
1
1.11898
0.97121
0.889708
1
0.889493
1
1
1.11281
0.999493
1.11111
1
1.00259
1
1
1.11872
1
1
1
1
1.02598
1
1.11858
1.11895
1.11944
0.88922
1.11862
0.99917
1.09872
1
1
0.885311
1
1
0.890407
1.11902
1
1
0.999986
1
1
1
0.883886
0.889094
1
1.12009
1
1.05882
1.11852
0.890007
1.10184
1
1
0.894905
1
1
1.11857
1.11845
1.04707
1
1
1.00035
1.11932
0.888945
0.891568
1.11982
1.11851
1.08484
1.04962
1
0.97168
1
1
1
1.11223
1.11904
1.11866
1
1
1.11851
0.889083
1.10876
0.883858
1
0.894528
1
0.889187
1.11855
0.886947
1
0.993559
0.898491
1
1
1
0.954143
1.10831
1.11863
1.11911
1.11965
1
1
1.12004
1
1
1.11848
1
0.888877
1
0.888555
1
1.11992
1
1
1.00922
1.09324
1
0.999649
0.888477
1.11849
1
0.888927
1.02493
1
1
1.09282
1.11864
1.11862
1
1.11876
1.035
1
1.00667
1.11852
1
1
1
1
1.11853
1
0.886137
1.1188
0.890004
0.888769
0.948794
1.11876
1.04478
1.11857
1
1.11978
0.99926
1.00001
1.11854
1.12018
1
1.11937
1
1.11851
1
1.11955
1
1.00001
0.99999
1.11861
0.887869
0.893947
0.999385
1
1
1
0.88912
1
1.08127
1
0.884111
1
1.05012
1.11845
1.11933
1
1
1.00001
0.999842
1
1.11969
1.1185
1
1.05374
1.11883
0.954756
1.11845
1.00003
0.887148
1.02825
0.888884
1
1
1.02202
1.12044
1
1
1.0134
0.999584
1
0.889407
1
0.934618
1
1.11821
1
1
0.889039
1.03122
1.01843
0.99957
1.1185
1.11853
0.931302
0.99945
0.888747
0.889046
0.889076
1
1
1
0.999731
0.913184
0.895238
1
1.11853
0.999927
1.11856
1.1186
1.12007
1.11844
1
0.889367
1.11869
0.887992
1
1.11863
1.11927
0.999051
0.944323
1.11868
1.08962
1
0.889642
1
1
1.1193
1
1.00766
1.11858
1
0.889124
0.889118
1
1
0.884902
0.885617
1.11856
1.00002
1
0.885994
0.885423
1.11897
1.11668
1.11153
1.11958
1.03721
0.996774
1.05206
1.11849
1.0956
1
1.06575
1
0.886235
0.960093
1
0.889119
1.11857
1.00629
1.11891
1
1.11849
1.11958
1
1.11866
1.11861
0.889956
1.1194
1
1.12131
1
0.923185
0.889695
1.11861
1
1
1
0.889798
1.11872
1.11879
1
0.89303
1
1
0.890772
1.00001
0.884133
1.11999
1
0.947824
0.885569
1
1
1.07109
1
1
1
1.02133
0.890172
1
1
1
1.11917
0.890034
1
1.11861
0.889305
0.888997
1
1
1.11853
1
1.1188
1
1.11854
0.893597
1
1
0.888701
0.943768
0.888848
1
1
1
1
1.1195
0.886855
1
0.889767
1
1.11934
1
1
0.980507
1
1
0.947717
0.99991
1.00001
1
0.889968
0.893665
1
1
1
1
0.939125
1.11817
1.11957
1
0.889999
0.888783
0.9745
0.894008
1
0.949603
1
0.889484
0.997322
1
1
0.893678
1
1.11827
1.11637
0.889829
1
1
1
1.11857
1
1.01361
0.952444
1.0404
0.893395
1.05046
0.888727
1
1
0.911188
0.973297
1
1.01312
1
1
0.888883
1
0.984765
1.01368
0.890059
1
1.09725
0.925559
0.965829
1
1
1
0.893928
1
0.889815
0.890277
1
0.956664
0.889732
1.01978
0.922125
0.885612
1.1185
1
1.11857
1.06744
0.916769
1.11856
0.889309
0.999715
1.11943
1
1
1.11859
1
0.912714
1
1.02002
1
1
1.11855
1
0.928984
0.945051
1.12053
0.983773
1
0.926783
1.11858
1.11954
0.973203
1
1.11857
1.03425
0.956134
1
1.00708
1
0.894225
1.05446
0.930018
0.921611
1
1
0.895357
1.11864
0.991658
0.891103
0.887701
0.960279
1
1.0072
1.11957
1.11863
1
1
1
0.891448
1.05976
0.999998
1.1184
1.10924
0.888724
1
1.02842
0.964783
1.07409
1.10658
1
1.01346
1
1.00002
0.885335
0.95563
1
1
0.945199
0.884797
1.01164
1
1.00001
0.88556
1.05758
1
1.11661
1
1.01259
1.06762
1
1.11728
1
1
1.11873
1
0.885115
1.11967
0.905224
1.03513
1
0.892865
0.999976
1
1.00001
1
0.938275
1.0076
0.891132
1.08829
1.12005
0.883477
1
1
1
1
1
0.991754
0.889006
1.01665
0.890857
0.890067
1.02216
1
0.999941
1.0327
1
1
0.889779
0.998776
1
1
1.0374
1
1.11975
1
1.1195
1.02734
1.00784
0.890965
1
1
0.888757
1
1
1
1
1.11859
1.01246
0.99945
1
0.883926
1.0154
1
1
1.08097
1
0.888521
1.11824
1
1
1
1.11864
0.88848
0.964748
0.884486
1.09218
1.1187
1
1
1.11852
1
0.885291
1
1
1
1
1
0.931616
1
1.11876
1
1
1.04472
1.11963
0.892111
0.961866
1
1.11849
1
1
1
1
1
1.11858
1.11959
0.885692
1.11853
0.882823
1
1
1.11853
1
1.12007
1.00351
1.00811
1.01859
1.11861
1.01906
1.08417
0.884021
1
0.884427
0.998098
1
1.11861
1
1
0.885668
1.11872
1
1.11943
1
1
1
1
1
1
0.891048
1.1196
0.956766
1.1186
1
0.889217
0.890099
0.912523
1.11903
1.11868
0.99089
1
0.938463
1
1.0501
1
1.11874
0.884017
0.889715
0.956963
1
1.11864
1
1.0227
0.895753
1
1.12021
1.10371
0.999678
1
1.11859
0.889158
1.11855
1.11859
1.11919
0.891639
1.02701
1
1
0.886146
1
0.94226
0.95068
1
1.00001
1.11855
1
1.11965
1.02548
1
1.01209
1.1211
1
0.888896
1
0.929974
1
1
1.09927
1
0.940926
1
0.896211
1.01046
0.98633
0.885596
1.11853
1.09821
1.11956
0.891836
0.905403
0.99882
1
1
0.900796
1.11265
0.889658
0.999991
1
1.11854
1.11921
0.972236
1
0.889274
0.907936
1.08206
0.994265
0.88362
1
0.888445
1.03423
0.892652
1
1.00002
0.945257
1.11964
1.11874
0.953997
0.999884
1
1
0.912478
1
0.888303
1
0.886719
0.889835
1
1
1.00001
0.8942
1.11859
1
1
1.00002
1.00001
0.890544
1.11863
1.11862
1
0.890788
1.12004
1
1.02874
1
1
1.11908
0.888767
1
1
0.888879
0.922617
0.890567
0.888908
1
0.903471
0.99919
1.02674
0.884601
1
1
1.03603
1
1.1064
1
1
1.08657
0.900394
1
0.888857
1.03612
1.11868
1
1
0.895082
0.889023
0.882647
0.916749
0.889219
1.0918
0.999828
1
1
1
1
1.1187
0.889439
1
0.982506
0.999907
0.999658
0.999982
0.926765
1.03644
1
1.11856
1.11868
1
1
1.11452
1.00001
1
1.11854
0.892298
1.11876
1
0.883788
1.11863
1.00002
1
0.947988
1
0.885425
1
1.11921
1
1
1.11935
1
1
1.11888
1
1
1
1.12025
1
0.923125
0.913857
1
0.883399
1.11868
1
1
0.993558
1
1.11931
1.07191
1.09731
1
1
0.893104
1
0.88903
1.1186
1.11978
1.1188
1
1.11973
0.889796
1
0.889538
1.09754
1.1086
1.11917
1.11886
0.927426
0.885437
1
1.08273
1.11933
1.11938
1.11854
0.922978
1.04727
1
1.0926
0.924006
1
1
1
1.00001
0.970211
1
1.11922
1
1
1
1
1
1
1.00002
1.11806
1
1.11951
1.09017
0.889504
1.12016
1.00901
1.06282
1
1.11841
1
0.889777
1
1
1
1
1.10298
1
0.884162
1.11832
0.883601
1.11856
1.09713
1.06491
1
1.02496
1.05945
0.998739
0.889778
0.930114
1.00001
1
0.9778
1
0.885753
1.11919
0.886081
0.980861
0.957277
1
1
1
1.0036
1
1
0.889793
0.998838
1.12007
1
1.11853
1
0.889339
1
1
1.11853
1.11868
0.885241
1
1.11922
1
0.944297
0.886075
1.11904
1.10747
1
1.02177
1.11858
0.999617
1
1.05335
1.10552
1.11827
0.998812
1
0.999999
1.10248
1
1
1
1.11859
0.999567
1
1
1.11858
1
1
0.89268
1
1
1
1.11918
1
1
0.958152
1.03971
1.10899
0.9308
1
1.11855
1
1.04574
1
1.1192
0.99922
1.11866
1
0.889212
1
1.08372
1
1
1.11147
1
1.11872
1
1.11889
0.903772
0.892319
1.11921
1
1.10154
1
1.11921
1
1
1.00001
1.1184
1.11824
1.03409
1.11869
0.99877
0.889025
1.11862
0.961502
1
1.1184
1
1.11864
1
1.11908
1.11935
0.998916
0.889736
1
1.11858
1
1.01009
1
1
0.999418
0.922363
1.10703
1
1.10866
1
0.963109
0.88457
1.11874
1.11862
0.903737
1
1.11874
1.11954
1.11892
0.901841
1.11846
0.893534
1.11891
1.1195
1
1
1.11856
1
1
1
1
0.889769
1
1
1.11931
1.11857
1
1.11865
1
1.12025
1.1197
1
1.10059
1
0.883518
1.11841
1.09058
1.03736
0.883998
1.11857
1
1
0.886425
1
1
1.11854
1
1
0.932553
1
1.11861
1.00002
1.11869
0.885396
1.11984
1
1.11866
1.11445
0.970423
1
1.11884
0.927646
1.11839
1.08652
1.11855
1.11892
0.9992
1.11996
1.11861
1.11864
1.1186
1.00022
1
0.888974
1
1.11989
0.951081
1.10927
1
1.11661
1
1
1
1
1
1.11793
0.887142
0.889291
1.11905
1.11849
1
1
1
1
1
1.1178
1.10963
1.11868
1.00639
1
1
1
1.00001
1.11829
1.11855
1
1.11908
1.11941
0.893805
1.08572
1
1.11855
1.11963
1.11776
0.99943
1.11864
1.11866
1
1.10943
1
1
1
1
1
1
1.1187
1.12019
1.11123
1.11862
0.888965
0.904387
1.11857
1.11868
1
0.887591
0.98462
1
1.06059
0.886456
1
0.999845
0.999505
0.889691
1
1.11866
1
1
1
1.11932
0.986595
1
1.1186
1.11848
1
1.11873
1
1
1.11856
1
0.888892
1
1.11911
1
1
0.89348
1
1.11866
1
0.884831
0.885801
1
1.11745
1
0.88408
0.967268
1
1.11859
1
1
1
1.11969
1
0.890459
1.01878
1.11898
1.11893
1.11856
1.01321
1.11896
1.11859
1
1
1
1
1
1.11846
1
0.999797
1.11913
1
0.884264
1
1.11849
1.05935
1.01894
1.05907
1.01918
1.11952
0.907796
1.11852
1
0.890574
0.999172
1.11858
0.985793
1.1186
1.11862
1.11677
1
1.11907
1.11848
1.11851
1
1.00001
1
1
1.11911
1.08662
1
1
0.889071
0.999022
1
1.11865
1
1.11855
1.11865
1.11892
0.974054
1.11862
1.11869
1.00388
1.06036
1.11949
1.11866
1
1.11042
0.951324
1.1168
0.99903
1.11867
1
1.11853
1.11855
1
0.89332
0.98387
0.90503
1
1.02447
0.999092
1.11925
1
1
0.999007
1
1.06223
1.11269
1
1
1.11859
1
1
1.08772
1.11855
1.11428
1.11878
1.11857
1
1.11869
0.918236
1.11894
1
0.999139
0.892141
1
1
0.922195
1
1.04025
1
1.11894
1
1.11656
1.07862
0.889263
1
1
1
1
1
1.11877
1.0033
1
1.11919
1
1.11861
1.11863
1
1
0.991224
0.999955
0.88477
0.885446
0.914264
1.02555
1
0.999553
0.890398
1.00001
1
1.11856
0.982894
1.11135
1.09989
1
1
1
1
1
1.11867
1.11871
1
1.11901
1
1.11977
1.08235
0.998838
1
1
1
1.0714
1
0.988346
1
1.11838
1
1
1.11855
1
1
1
1
1
1.11883
0.884329
0.998866
1.10751
1.11854
1
1.11854
1
1
1
1
0.899439
1
1.11859
1.11863
1.1186
1.12009
0.986544
1
1.10186
1.03092
1.11974
1.1194
1.02398
1.11942
1
1
1
1.11892