/*--------------------------------*- C++ -*----------------------------------*\
  =========                 |
  \\      /  F ield         | OpenFOAM: The Open Source CFD Toolbox
   \\    /   O peration     | Website:  https://openfoam.org
    \\  /    A nd           | Version:  12
     \\/     M anipulation  |
\*---------------------------------------------------------------------------*/
FoamFile
{
    format      ascii;
    class       volScalarField;
    location    "7.52";
    object      T;
}
// * * * * * * * * * * * * * * * * * * * * * * * * * * * * * * * * * * * * * //

dimensions      [0 0 0 1 0 0 0];

internalField   nonuniform List<scalar> 
22702
(
1
1
0.959566
1
1.01603
1
1.12008
1
1
0.895759
1.12048
1.12022
1
1.11836
0.965804
1
1
1
1.1208
1
1.1188
1
1.11827
0.896359
1.11934
0.874206
1
1.1188
0.895392
0.896512
1
1.12023
1
1
1
1.11068
1.11951
1.11838
1
1
0.893539
1
1.06309
1
1.11862
1
1
1
1
0.89687
1
0.8969
1
1.12017
1
1.12065
1
1
1
1
0.877245
1
1
0.894993
1
0.894109
1
1
1
0.887518
1
1.11885
1.0761
1
1.11946
1.12644
0.894367
1.11923
0.89707
1
1.12139
0.897792
1.11972
1.11974
1
1
1
1
0.982634
0.890223
1.12074
1
1
0.897809
1
1.11905
0.897798
1
1
1
1
1.06344
1.12107
0.877166
1
1
1.03122
1
0.897519
1
1.11936
1.12013
1
1
0.878497
0.879922
0.891355
1
1
1
1
1
0.97684
1
1.10357
1.01322
1.12009
1
1.12042
1.12111
1.11845
1.12078
1
0.88243
1
0.89629
1
1
1
1
1.12057
1
1
1
1
1.11969
1
1.00752
1
1
1
1
0.896952
1
1.00301
1
0.897765
1
1
1
1.12021
1
1.11828
0.888078
0.875725
1.11997
1.11863
1
1.02368
1.07093
1
1.1209
0.896965
1.11085
1
1
1
1
1.11824
1.10018
1
1.12054
0.897596
1.12081
1
0.898904
1
0.898018
0.875394
0.999939
1
1
1.11963
1
1
1.11873
1
1.11944
1.12055
0.899268
1
1
0.896512
1.11863
1
1
1
1.11861
1
0.893827
1
1
1.11848
1.11854
1.11928
1
1.00001
1
1
1
1.1187
1
0.898995
1.12509
1.1187
1.11846
1
1
1
0.891854
1.11867
1.05711
1
1.11898
0.896087
0.896044
1.119
1.11875
1
1.11751
0.881235
1.10628
1
1
1
1
1.11864
1
1.072
1.01269
1
1
1.11866
0.897561
0.926246
1
1.11819
0.88925
1.11796
1
1
1
1
1
1
1
0.896102
0.925771
0.894811
1.11868
1
1
1
1
1.11008
1
0.896345
1
0.887156
0.897337
1.11851
0.891099
1.1188
1
1
1
0.999337
0.8987
0.891929
1
1
0.885797
1
1.12088
0.886306
1
1
1.12147
0.896425
1
1.11769
0.872854
1.11879
1
0.892564
0.999348
1
1
1
0.896267
1
1
1
1
1.00623
1.07664
1
0.886219
1
1
1
1
1
1
1
1.12122
1
1.12042
1
1
1
0.891872
1
1.11933
0.894383
1
1.0954
1
1
1.12118
1
1
1
1.1171
1
1
1.11605
1.12093
1
1.02803
1
1
0.896928
1
1
1
0.896637
1
1
1
1
0.883132
1
1
1
1
1
0.894367
1.00002
1.11831
1
0.999999
1.11879
1.12009
1
1
0.901194
0.946002
1.12007
1
1
1
1.11877
0.886886
1
1.11834
1
1
0.906026
0.90233
1
0.896134
0.892069
1
1
1
1
1
1
1
1.12001
1.03137
1.11252
0.897081
0.976171
1.12114
1
1.12011
1.11989
0.888392
0.933919
1
0.889431
1
1.12478
1
1
1
1
1.11863
1
1
1
1
1
1
1
1.04778
1.11944
1
1.11859
1
1
0.898684
1
1
1
1
1.11859
1.09268
1
1
0.896404
1.11858
1.11856
1
1.1185
1.11874
1.11855
1
0.954044
1
1.11849
0.998441
1.11857
1
0.889388
0.999678
1.12089
1
1
1
1
0.895164
1.11854
1.10824
1
1.11844
1.11874
1.12042
1
1.05908
1.11899
1
1
1.08479
1.01852
1.11845
0.983893
1.11856
1
1.1185
1.11854
1.11853
1.11838
1
1.11307
0.976357
0.967131
1
1
1
1
1.12114
1
1
1
1
1
1.12065
1
1
0.99896
1.11858
1.10435
1
1.09993
1.00001
1
1
1.11808
1
0.998913
1.00106
1
1.11856
1
1.11899
1
1
1.09018
1
1.11906
1.00001
1
1.11869
1
1.11859
1
1
1
1.11866
1
1.11973
1
1.11862
1.1203
1.11844
1.11972
1
1.12037
1.11759
1
0.897382
1.11185
1.08756
1
1.11867
1
0.897189
0.872012
1
1
1
1
1
0.898016
1
1.11863
1.03445
1.11815
1
1
1
1
1
1.1186
1
1.1195
1.07431
0.936807
1
1
1.03676
1.0313
1
1
1.04551
1
0.899528
1.11851
1.11858
1
1
1
1.12054
1
1.00001
1.1183
1.11865
0.985232
1
1
0.896043
1.10873
1
1
1
1
1
1.11859
1.12059
1
1.11845
1.11932
1.11858
1
1
1
1
0.880263
1.12028
1
1
1.10878
1.11822
1
1.11229
1.1203
1
1
1
1
1
1.11857
1
1
1
1
1.1203
1
1.11828
0.888797
1
0.888613
1
1
1
0.999089
0.897447
0.999714
1
1
1
1.01794
1
1
0.962469
1
1
1
1
1
1
1
0.999999
0.980351
1
1
0.999308
1
0.894875
1
1
1
1
1.09104
1
1
1
1
0.900127
1
1
1.11236
1.12057
1
1
1
0.967016
1
1
1
1
1
1
0.98729
1.00532
1.11867
1
1
1
1.11949
0.970892
1
1
1
1.11832
1.11998
1
1
1
1
1
1
1
1
1
0.888273
1
1
1.11989
0.892355
1
1.11944
1
0.898725
1
1
0.887783
1
1
1
1
1
1
1
1.11641
1.11821
1
1
1
1
1.10896
1
1.0401
0.895692
1
1
1
1
1
1
1
1.0112
1
1
1.06487
1
1
1
1.09915
1
1
1
1
0.890155
1
1
0.884816
0.889942
1
1
1.11871
1
1.00248
1
1
1
1.08495
0.884852
1
0.883773
1
0.929471
1
1
1
1.11875
1
1
1.1184
1
1
1
1.11842
1
1
1.11837
1
1
0.888038
1
1.03935
1
1
1.12058
1.12128
1.08238
1.10735
1
0.888915
1
1
1.11387
1
0.891453
1
1
1
1.11861
1
1
1
1
1.0746
1
1.10958
1.11935
0.895021
1
1
0.876929
0.873656
1
1
1
1.08616
1.09179
1
1
1
1
1
1
1
1.05531
1.12012
1.0033
1
1.11737
0.882083
1
1
1
1.06907
1
1.02556
1
1.10926
1.11824
1
0.891615
1
1.1208
1
1
1.11864
1.11184
1
1.12183
1
0.899762
1
1
1
1.11941
1.11635
1.10559
1
1.11947
1.11848
1
1.1188
1
1.1182
1
0.889601
0.99538
0.891089
1
1
1
1
1
1.1183
1
1.11849
1
1
1
1.11313
1
0.893181
1.11844
1
0.901183
0.889314
0.885348
1
1.06118
1.01207
1.11888
1.1185
1
1
1
1
1.11865
1
1
1.1186
1.11843
1
1.04607
0.999908
1
0.999088
1.12127
0.95781
1
0.949476
0.898942
0.900001
0.998494
1.11809
1.11716
1.02783
1.11863
1.11847
1
1
1.12118
1.12004
1.11845
1.12101
1
1.11873
0.894272
1.11925
1.11856
1.11966
1.11828
0.959876
0.970922
0.979795
1.11842
0.990234
1.1183
1
1
1.11901
1.11854
1
0.889935
1.11868
1.11834
1
1.11861
1.11855
1
1.11858
0.900823
1.11925
1.12047
1.12023
1.1176
1
1
1
1.11832
1.08009
0.887191
1.11843
0.885615
1.11838
1
1
1
1
1.11968
1.11849
1
1
1.11849
0.890227
1.11872
0.896454
1
1.11765
1
0.898499
1.1189
0.91605
1
1.11847
1.11906
1.11848
1
1
1.06169
1.11895
0.898518
1.11857
1
1.11861
0.967738
1.11848
0.890241
1
1.1188
0.894362
1.11905
0.897905
1
1.1186
1
1.11926
1
1.07259
1.11456
1.09531
0.889644
1
1.11883
1
1.11859
1
1.11859
1
1
1.11852
0.997487
1.11925
0.904272
1.10656
1
1.0862
1
1.11862
1.11853
1.11889
1
1.10783
1.11876
1.1106
1.07667
1.11841
1
1.08192
1
1.1187
1
1.01842
1
1.11074
1
1.1186
1.11369
1.11333
1
1.11629
0.870802
1
0.889416
1
1
1
1.12017
1
1.11884
1
1
1
1.11873
1.11555
1.0992
1.11922
1.11909
0.888084
1.11687
1.12026
1
1.10265
1.11848
1.11706
1
1.12094
1.12061
1
1.12083
1.11886
1.11879
1.11885
1
1
1
1.11851
0.879449
1
1.11858
1
1
0.874488
1
1
1.11854
1.11882
1
1.11852
1.11805
1.11947
0.99405
1.11867
1
1.11863
1.11854
1.09653
1
1
1
1.11909
1.1188
1.1186
0.98412
1
1.11928
1.11887
1.11883
1
1.11874
1.11867
1.11847
1.12022
1
1.11854
1.11928
1.104
1.11904
1.11988
1
1.1201
1.11729
1.11861
1.11953
1.11866
0.877325
1.1185
1.11917
1
1.1186
1.11858
1.11853
1.1184
1
1.11876
1.11861
1
1.11834
1.10147
1
1
1
1.11954
1.1169
1
1
1.0673
1
1.11863
1
1
1.11844
1.11897
1.11868
1.11847
1
1
1
1.08623
1
1.11837
1
1
1.12167
1.12052
1
1.11852
0.881459
1.11861
1.11898
0.91211
1
0.883525
1.1044
1.11913
1.11825
1.11833
0.891433
1.11892
1.11873
0.890874
0.883933
1
1.11829
1.11823
1
1
1.11859
1
1.11949
1
1.10513
1
1.05969
1.11822
1.11905
1.08655
1.1089
1.12019
1.11918
1.11168
1
0.879575
1.11807
1.11866
1.12024
1
1
1
1.12035
1
1.11874
1.11835
0.917519
1
1.11848
0.999982
1
1.00001
1.00001
1.1186
1.11897
0.999564
1
1
1.11856
1.11897
1.11857
1.11927
1.11855
0.895485
1.10659
1
1.11762
1.11871
1.1186
1.1159
1
1.11855
1.1155
1.11897
1
1.11905
1.11905
0.961134
1.11861
1.11905
1
1.11858
0.949932
1.1188
0.961347
1.11862
1
1.11858
1.12385
1.11857
1.1186
1.11858
1.12021
1.11877
1.11943
1
0.981771
1.11885
1.11851
0.950336
1.11848
0.996228
1.07962
1.11884
1.11961
1.11971
1
1.11914
1.07956
1.11895
0.975776
1.11917
1.1213
1
0.960897
1
1.11903
1
1.0842
1
1.11219
0.963505
1
1.11955
1.11843
1
1.11939
1.11896
1.12051
1.12119
1.12043
1
1.12091
1
1
1
0.971587
1.11838
1.1185
1.11946
1.1185
1.11692
1.11899
1.11779
1.11879
0.973083
1.00919
1
1
1.12408
1.11872
1.1185
1.11847
1.00001
1.06426
1
1.12059
1.10863
1
1
0.921525
1.11858
1
1
0.898328
1.11837
1
1.12012
1.11849
1.12042
1.11453
1.11853
1
0.89145
1.03108
1.11855
1.11857
1
1.11876
1.11853
1.06523
1.00284
1.0279
1
1.11904
1.11862
1
1
0.892882
1
1
1.11854
1.11862
1.11802
1.11858
1.1186
1.12089
1.11866
1.11817
1.11853
1
0.998786
1.11877
1.11851
0.999055
1.11851
1.11854
0.896033
0.895249
1.11891
1.11949
1
1
1.00048
1.11845
1.11803
1.11844
1
1.11853
1
0.958375
1.1205
1.12036
1
1.055
1.11846
1
1.12002
1
1.11845
1.07828
1.11805
1
1.11856
1.12061
0.891455
1.11869
1
1.11911
1.12004
1
0.895067
1.11938
1.10162
0.999289
1.11183
1.11857
1
1.00225
1.11961
0.99925
1.11857
1
1
1.11906
1
1.11988
1.11849
0.998998
1.09489
1
1.11853
1
1
1
1
1.11853
1
1
1.11939
1
1.11857
1
1.07894
1.11831
1.11861
1
1
1.00247
1
1.11889
1.11856
1.11931
1.1186
1.11886
1.11851
1.11858
1
1.1184
1.11863
1
1.11856
1.11844
1
1.11842
0.981684
1.01694
1.11852
1.11851
1.11857
1
1.1186
1
1.11856
1.11852
1
1.1188
1
1
1
1
1.1186
0.889482
0.9994
1
1.11852
1.1204
1
1.11853
1
1.00148
0.889363
1.11859
0.999882
1
1.11875
0.999517
1.11851
1
0.999933
1
1.11867
1.11996
1.11847
1.11886
0.894529
1.11878
1.1189
1.11852
1.03223
1
1
1.05601
1.11861
0.884848
0.893389
1
1.11895
1.11838
1.11842
1
1
1.11875
1.11837
0.999963
1
1.08998
0.882942
1
1.02265
1.12083
1.11555
0.999496
1.1186
1.11958
1
0.999676
1
1.11842
1.12076
1.05013
1
1.11189
1
1.00044
1.1187
0.888684
1.11862
1.11862
0.999147
0.999975
1.10528
1
0.999912
1
1.11943
1
1
0.880937
1.11859
1
1
1
1
1.11942
1.07107
1
1
0.891099
1.11854
1.07134
1
1
1
1.11358
1.11872
1.1197
1
1
1.11729
1
1.11852
1.11882
1
1
1.11914
1.11864
1.11342
1
1
1.11916
1.11879
1
1
1
1.11873
1
1
1
1.11824
1.12049
1.11911
1
1.11973
1.00001
0.905325
1.11851
1.11836
1
1.12034
1.11361
1.12038
1
1
1.11922
1
1.0689
1.11901
1
0.89512
1
1.11905
1
1
1.11891
1
1
1
1.03983
1.11901
0.90099
1
1.11885
1
1
1.11864
1
1.11928
1
1
1.11851
1.1183
1
1.00002
1
1
1
1
1
1
1.11805
1.11864
1
1.12012
0.891602
1.11997
1
1.11856
1.11966
1.11858
1.12065
1.12232
1
1
1.11935
1
1.07844
1.11966
1.11837
1
1.11947
1.12114
1
1.10864
1
1.11852
1.07943
1.1194
0.999266
1.11769
1.10995
1.11893
1.11873
1.01043
1.11848
1.11935
1
1.1185
1
1.1187
1
1
1
1
0.998824
1.11855
1.11871
1.10329
1
1.11982
1
1
1
0.874782
1
1.1164
1
1.10858
1.11261
1
1
1
1.10985
1.12144
1
1
1.11854
0.889507
1.02033
1
1.11941
1.11853
1.10891
1.11632
1.11858
1
1.11866
1
1
1
1
1.11876
1.11863
1
1.11784
1.0156
1.11825
1.11114
1
1
1.11169
1
1
0.895981
1.08477
1
1
1.11992
1
1.11949
1.10915
1
1.10866
0.890018
1.1185
1.11846
1.11861
1
0.896892
1
1
1
1.11843
1.09993
1
1.12056
1.11857
1
1.11863
1
1
1
1
1.11856
0.999803
1
1.11913
1
1
1.11589
1.11857
1
1.12031
1.02338
1.00001
1
1.11857
1
1.11868
1
1.0041
1.11863
1
1.11852
1
1
1.03987
1.11868
1
1
1
1
1
0.998925
0.888254
0.892678
1.00589
1
1.00942
1
1.00942
1
1.1186
1
1.07331
1
1.11862
1
1
1
1.11861
1
1.09556
1.11841
1
1.06648
1.11879
1
1
1.11983
1.11845
1
1
1.01435
0.889053
1
1.11864
1
1
1
1
1.02173
1.11871
1
1
1
0.891342
1
1.11855
1.11878
1.1206
1
1
1
1
1.0616
1.11925
1
1
1
1.11996
1.11852
1.01457
1
1
1
1.11813
1.11854
1
0.89359
1.11852
1.11855
1.11805
1.11824
1.11776
1
1
1.12013
1.11827
1.11847
0.89389
1.01175
1.11865
1
1
1
1
1
1.11863
0.891032
1
1
1.11847
1.05829
1
1.11946
1
1
1
0.899146
1
1
1.03314
1.11859
1.1185
1
1.11763
1.1195
1
1.02193
1
1.11866
1
1.11932
0.889144
1
1
1
1
1.11867
1.00002
1
1
1
1.11649
1
1
1
1
1.11856
0.897276
1.09669
1.1192
1
1.11837
1
1
1
0.999162
1
1.1197
1
0.942638
1
1
1.00001
1.11834
0.892295
1
1.118
1
1.11778
1.11856
0.88866
1
1
1.11101
1
1
0.900589
1
1.11848
1
1.11371
0.999811
1.11872
1
1
1
1
1.1205
1
1
1.11848
1
1
1
1
1
1
1
1
1.08053
1
1.04166
1.11893
1
1
1
0.890945
1
1
1
1
1.11897
1.11842
1.01662
1
1
1.11887
1
1
1.11876
1
1
1
1
1
1
1.11889
0.935666
1.11854
1.11912
0.999186
1
1
1
1.07374
1
1
1.11859
1.11857
1
1
1
1
0.88687
1
1
1
1.07829
1
1.11854
1.11934
1
1.11898
1
1
1
1.06798
1
1.12014
1
1.11852
1
1
0.99892
1.11855
1
1
1
1
1
1.11837
1.00001
1
0.896247
1.11861
0.89228
1
1.11836
1
0.99882
1
1.11874
1.12015
1
1.11634
0.961431
1.11847
1.11782
1.00001
1
1
0.891694
1
1
1
1.11857
1.07158
1.11801
1
1
1
1
0.999056
1.11902
1
0.889797
1
1
1
1
1
1
1
1.12069
1.11852
1.11957
1
1
0.999094
1
0.994067
1
1
1
0.887719
0.993733
1
0.890954
0.894094
1
1.11859
1.11851
1
1.11935
1.11854
0.891179
1.08541
1
1
1
0.889149
1.11844
1
0.889215
1
1.12006
1.022
1
1
1
1
1.1186
1.11995
1
1
1.11851
1
1
1.11986
1.11855
1
1.10926
1.11846
1.12014
0.990368
1.11971
1.00241
0.890193
1.0939
1.11839
1
1
1
0.888229
1
0.88674
1.1199
0.989974
1.11845
0.987652
1
1.11875
1.05717
1
1
1.11953
1
1.05288
1.1183
1
1
1.12046
1.1165
0.888633
1.0721
0.999971
1
1.07356
1
1.11949
0.98134
1.12167
1.11984
1
1
1
1
1.11507
1
1
1.11844
0.999898
1.11869
1.09884
1.11899
0.894184
1
1
1
1
1.11862
1.00001
1.11848
1
1.11867
1.11826
1.01667
1.12103
1.0403
1.11858
1
1.0833
0.901568
1.11973
1.11852
1.09867
1.02348
1.11974
1.1185
1.11856
1.11859
1
0.977729
1.01796
1
1.11854
1.05981
1.11865
1.00001
1
1
0.908883
1.11771
1.11972
1.09826
1
1.04822
1
1.11948
1.11937
1
1.11898
1.11943
1
1
1
1.11909
1
1.04937
1.11764
1.08416
1
1.11856
1
1
1
1
1
1
1
1
1
1
0.902958
1
1.11065
0.87905
1.07334
0.999596
1.11847
1
1.06544
1
1.07891
1.1036
1
1.00054
1.1203
0.977981
1
1.12016
1.11638
0.981811
1
1.11803
1.11863
1.11919
1
1.11864
1.11896
1.11879
1
1.05912
1
1.00002
1.11869
1
1.11865
1.01916
1.11888
1
1
1.11825
1.11951
0.90751
1
1.11858
1.09105
1.11827
1
1
1.12012
1.11902
0.999492
1
1.10863
0.9991
1.11869
1.00002
1
1
1
1
1.05762
1
1.09325
1.11909
1.0902
1.11821
1
1.0008
1
1
1.11989
1
1.11909
1
1
1
1
1
1
1.01554
1.0651
1
1
0.889939
1
1.11801
0.895389
1.12088
1
1.06322
0.999927
1.11917
1.07813
0.900303
1.06858
1.00001
1.11858
1.11915
1
1.07555
1.11956
1.11874
0.999543
1.11845
1.11553
0.888958
1
1
0.999313
1
1.11856
1
0.901373
1.11796
1
1
1.1058
1
1.11889
1
1.11835
1
0.899929
1
1
1.11842
1.12032
1.12041
1
1.11901
1.11849
1.1168
1
1
1.11768
1
0.924393
1
1
1
1.11852
1
1.11846
1.08096
1.11876
1
1.11852
0.999824
1
1
1
1
1
1
0.907133
1
1
1.11852
1
1.11932
1.11772
1
0.888803
0.891295
1
1.11892
1.02122
0.890878
0.888894
1
1.11893
1
1.11945
0.890269
1.00046
1
1
0.999858
1
1
1
0.999975
1.05342
1.11857
1
1
1.11877
1.07187
1
1.10708
1.11912
1.11892
1.05375
1.11794
1
1.11853
1
1.11522
1
1.11869
1.11832
0.999127
1.11893
1.11833
1
1
1
1
1
0.975061
1.12025
1.00001
1.00001
0.892246
0.999992
0.890197
0.879602
1
1.11881
1.11903
1.11867
1
1.11842
1
0.892591
1
1
1.11911
0.950295
1.11806
1
1.11828
1
0.997228
1.11861
1
1
1
1.11824
1
1.11851
0.888957
1
1
1.07216
1
1
1.0687
1
1
1.11834
1
1
1
1
1
1.12012
1.11854
1
1.11916
1.11881
0.891877
1.05732
1.11926
1
1
1.10779
0.999721
1
1
1.11861
1.11912
1.08528
1
1.1189
0.891551
1.11191
0.99979
1
1.11839
1.00001
1.11885
1.0989
1.09341
1
1
1.11858
0.912198
0.888871
1
1.11847
1
1.11843
1
1.07401
1
1
1.11826
1.07995
0.889941
1
0.999489
1
1
1.00734
1.05237
1.11858
1
1.11951
1
1
1
1
1
1
1.01948
0.88964
1
1
1.0133
1
1
1
1
1
1.11888
1
1
1.11838
1.11844
1.08719
1
1
1
0.950122
1.11931
1.08546
1
1
1
1
1.11859
1
1
1
1.11804
1
1
1.08827
1.1223
1.01157
0.923236
1.11863
1.08676
1.11845
1
1.06148
1
1
1
0.882488
1.00053
0.902341
1
0.884644
0.882163
1
0.891172
1
1
1
1.05699
1
1.11885
1.11891
1.00031
1.0638
1.10174
0.884648
0.928362
0.967874
1
1.11853
1.11963
1.11851
1.11863
1.10362
0.962816
1
1.10391
1
1.11175
1
1
0.998985
1.00248
1
1
1
1.11927
1
0.888661
1
1.11893
0.898341
1
1
1.11863
1
1.11845
0.999798
1
1
1.11873
1.10787
1
1.12356
1
1
1.00424
1
1.058
1
1
0.889981
1
1
1.11919
1
1.11837
1
1.00001
0.894215
1
1
0.879396
1.00031
1
1.11933
0.894664
1.11856
0.889879
1.11856
1
1
1
1
1
1
1
1
1
1
1
1.11443
1
1.11902
1.12005
0.890019
1
1
1
1
1
1
1.1155
1
1
0.892703
1
1
1.11964
1
1
1.04688
1.10129
0.894659
0.887036
0.897098
0.922669
1
0.999016
0.884021
1.00014
1.11092
0.999145
1
1
1.11887
1
1
1
0.928194
1
1.04505
1
1
1.05137
1.11849
1
0.87912
1
1
1
0.999085
1
1.11869
1.11866
1
0.88961
1
1.06796
0.890643
1
0.970681
1
0.998662
0.880662
1
1
1
0.998874
0.884588
1
0.880752
0.999547
1.06503
1.10741
0.886011
0.898782
1
0.997537
1
0.999617
1
1.11853
1.11827
1
1.00759
1.11867
1.11861
1
1
1.11863
1
1
1.00001
1
1.11945
1
1
1.0052
1
0.999588
0.898487
1
1
1
1
1
1.11775
1.01236
1.00001
1
1
1
1
1
1.00001
1
0.889438
1.03145
0.9996
1.11592
1.11959
1
1.00467
1.11866
1.10545
1
1
0.893564
1.11925
1
1.11971
1
1.11818
1.08332
0.890552
1
0.891341
1.11594
0.999907
1
0.891004
0.890529
1
1
1.10195
1
0.999999
0.884881
1
1
1
1.03948
1
0.888395
1.11876
1
1
1
1
1.11853
1
1
1.11782
1.10723
1
1
1
1.11943
0.889038
1
1.11908
1.11859
1
1.09697
1
1.00001
1
1
1.11024
1.00584
1
0.896646
1.06664
1
1
0.999262
1
1
1.12086
1
1
1.00001
1
1.11916
1
1
1
1
1
1
1
1.05607
1
1.11875
1
1
1.11889
1
1
1
1.11858
1.11836
1.01285
1
0.99933
1
1
1
1
1.11996
1
1
1.11843
0.890677
1
1
1
1
1
1
1.09747
1
1
1.11924
1.1187
1
1
1
1.11902
1.11812
1
0.999916
1.1197
1
1
1
1.00001
0.891387
1.00873
0.998948
0.998826
1
1
0.877949
1.11861
1
0.901792
1
1.11902
1.11432
0.896556
0.999831
1.11859
1.11889
1.11847
1
1
0.978202
1.10807
1.10047
0.90085
1
1
1
1.1185
1.11841
0.887526
0.999222
1
1.11868
0.891188
1
1.11547
0.889627
0.992856
1.00179
1
1.1182
1
1
1
1
1
1
1.00003
1.11129
1
1
1.11847
1
1
1
1.11858
1
0.890195
1
1
1
1.04324
1
1
1
1
1
0.939748
1
0.890975
1
1.11875
1.00002
0.962406
0.96307
1
1.00097
1.06452
1
1
0.888559
1.11856
1.11876
1.11856
1
0.890083
0.888909
1
1.11845
1
1
1
1
1
1.00001
1
0.893468
1.0787
1
1
0.89387
0.998242
1
1
1
1
0.880966
1
0.892835
1
1
1.12097
1
1
0.887781
1
1.11852
1
0.882332
1
0.889405
1
1.00224
1.11855
1.12395
1
1
1.11974
1
1
1.03115
0.999103
1
0.999458
1
1.11922
1
0.892358
1
1.12098
0.999723
1
1
0.940547
1
0.999711
0.889573
1.11887
1.04741
1
1
0.971538
1
1
1
0.936923
1
1
1
1.11862
1
0.891036
1
1
1
1
0.891824
1.11847
1.11196
0.88982
1
1.1178
1
1
1.11856
1.11985
1.10172
0.887723
0.999352
0.999796
1
1.11853
1
1
1
1
1.11869
1.00001
1
1
1.12063
1
1
1.11854
0.889253
1
1
1
0.895682
1
1
1
0.999609
1
1
1
1
1.09487
1
1.11955
1.11913
1.12061
1.11861
1.11892
1.11858
1
1.11898
1
1.11863
1.1185
1
0.999688
0.889071
1.10272
0.99997
1
1
1
1
0.997834
1
1.01933
1
1
1
0.954879
1.11854
1.11872
1.11973
1.10882
0.999962
1
1.00642
1.11897
0.999408
1.01726
0.999186
0.892589
1
1.00001
1
1
1
1
1
1.11848
0.889831
1.11847
1.11853
0.998507
0.874088
1
1
1
1.11868
0.887792
1.10595
0.890147
1.11863
1.12006
0.89016
1.1181
1.00686
1
1.11934
0.941804
1
0.999643
0.880987
1
0.896087
1
1.11862
1.11847
0.924619
1
1.1193
0.891482
1
0.891606
1
1.11852
1
1
1.11732
1
0.95487
1
0.999915
0.896072
1.1179
0.999851
1
0.881753
1
1
1
1
1.06959
1
1.11835
1
1
1.12239
1
1
1.11879
1
0.896254
1
0.89942
1
1
1
1
1
1.11398
1.07219
1.11846
1
1.11856
1.11134
0.881467
0.876655
1
1
1.11861
1
0.895824
1
0.998156
1
1
1.11858
1
1.11979
0.880979
1.11798
1
0.877801
1
1
1.1191
1.1183
1
1.00001
1
1.11928
1
1
0.877427
0.999819
0.88207
1
1
1
1.11895
1.11978
1.11954
1
1
0.900421
1
1.11991
1
1
1
1.11479
1.11852
1.1186
0.895468
1.11904
1.11837
0.893962
1.1193
1.00001
0.896896
1.00595
1
1
1.11885
0.888159
1.07779
0.882775
1.11834
0.999269
0.891018
1.1191
1
1
1
1
1.11859
1.11981
0.889325
1
1.00001
0.890481
1.00001
1
0.883591
0.891634
1.08494
1.11877
0.999567
1.11847
1
1.11982
0.95135
0.890523
1.11856
1.12044
1
1.11873
1
1
1.11867
1
1.09426
1.11948
1
1
1
1
1.11864
1.11741
1.11839
1
1
1.1191
1.12087
1.11879
1
1.1186
1
1
1
1
1
0.889674
0.956725
0.880898
1
1
1.11902
1
1
1.11869
0.88344
1
1.11874
1.11747
1.11387
0.88387
1
0.901147
1
1.00001
1.11989
1.05793
1.12046
1.10909
1
0.899115
1
1.11838
1.08776
0.89197
1
1
1
0.937303
1
1
1.12119
1
0.895335
1.11861
1
1
1
1
1
1.09685
1.02956
1
1.11911
1
1.11842
1
0.999222
1
1.11842
1.11942
1.11824
1.11967
0.999887
1.12042
1
1.11852
1.1186
1.10231
1
1
0.888116
1.11938
1
1
1.11867
1.11877
1.11925
1
1.11876
1
1
1.00001
1.11994
1.11929
1.03722
1.02725
1.11848
1.11841
0.901644
1
1
1
1
1.00001
1.04536
1
1
1.09936
0.881348
0.999989
1
1.11853
0.999965
0.999949
1.01941
1.10649
1.11997
0.979067
1
0.882729
1
0.99941
1.11858
1.11916
1.11989
0.999729
1
1
0.88863
1
1
1.11861
1.0141
1
1
1
1
1
1
1
0.999982
1.11981
1
1
1
1
1
1.07775
1
1.05982
1
1
1.11841
1.11932
0.892606
0.999655
1
1
1
0.891036
1.11994
1.11858
1
1
1
1
1
1
1
1
1.11862
1.11818
0.889378
1.01421
0.894067
1
0.885421
1
1.1187
1.03605
1
1
0.911726
1
1.11396
0.943022
0.999082
0.887899
1
1
1.1195
1.00001
0.999213
0.88539
1.11946
1.12137
1
1
1
1
1.1117
1
1
1.11859
0.999717
1.11906
1.00001
1
1
0.890655
1
1
1.11894
0.889796
0.932911
0.894509
1.11849
0.999801
1
1.11959
0.886122
0.889829
1.00657
1
1
1.11967
1.00001
1.05614
1
1
1.12014
0.89093
1
1
1.00004
1.11918
1.00004
1.11767
1
1.00001
1
1
0.919461
1
0.940618
1
1
1.11822
0.88724
1
0.937352
0.94229
1
1
1.11867
1
1
1
1.11835
1.11863
1.00002
1.11675
1.1199
0.938962
1.11865
1.11199
1
1
1.11991
1
1
1
1
1
1.11912
1.11866
1
1
1
1.11874
1.00006
1
0.887777
0.918665
1
1.00001
1.04651
1
1
0.967695
0.891565
1
1
1
1.11938
1.10956
1.11861
1
1
1
1
0.892921
1
1.1179
1
1.12
0.889827
1.11753
1
1
1
0.901494
1
1.11912
1.00001
1
0.892117
1.04701
1
0.999904
1.12043
0.886908
0.88129
1
1.11957
0.890694
0.887582
1
0.880302
0.999999
1
1
1
0.898217
1
1
1
1
1.11934
1
1.09267
0.881578
1
1
1
0.892099
1.11848
1
1
0.998993
1.11609
1
1.11848
1.11904
1
1
0.907192
0.887164
1
1
0.893216
1.03895
1.05967
1
1
1.11929
0.999258
1
0.999352
1.1206
1
1
1
1
1
1
1.11889
1
1.04408
1.04183
0.904503
1.10592
1
1.11862
1.1184
1
1
1
0.979218
0.892992
1
1.06608
0.999906
1.10748
1
1
1
1
1
1.00194
1.05507
1.11882
1.11846
1
1.11869
1
0.908414
1
0.999309
0.999937
1
0.889298
1
0.893241
1.00001
1.11937
1.11999
0.890728
1.11986
0.889618
0.998882
1.0916
0.889298
1.08823
1
1
0.999551
1
1
1
1.00002
1
0.895318
1
1
1
1
0.999878
1.11894
0.947698
1
1
1
1.0105
1
1
1
1.06982
0.923651
1
1
1
1.01386
1.11969
1
0.877072
1
1.11892
0.974078
0.883776
1
0.891165
1
1
1.11252
0.999502
1.1122
1
1.00256
1
1
1.11838
1
1
1
1
1.02536
1
1.11854
1.11908
1.11947
0.883456
1.11876
0.99918
1.09895
1
1
0.885274
1
1
0.8886
1.11807
1
1
0.999979
1
1
1
0.88807
0.889738
1
1.12047
1
1.05961
1.11859
0.891726
1.09956
1
1
0.885905
1
1
1.11856
1.11841
1.04597
1
1
1.00024
1.11946
0.885281
0.887766
1.11953
1.11853
1.08423
1.04851
1
0.971503
1
1
1
1.11416
1.1193
1.11913
1
1
1.11859
0.882512
1.10775
0.885407
1
0.888329
1
0.890404
1.11872
0.884939
1
0.997532
0.901094
1
1
1
0.957497
1.11208
1.11875
1.119
1.11978
1
1
1.1197
1
1
1.11909
1
0.901349
1
0.880629
1
1.12034
1
1
1.00759
1.0935
1
0.99959
0.889087
1.1185
1
0.874096
1.02398
1
1
1.09145
1.11849
1.11843
1
1.11887
1.03616
1
1.00665
1.11845
1
1
1
1
1.11854
1
0.880384
1.11905
0.890909
0.882828
0.950181
1.11881
1.04425
1.11909
1
1.12023
0.999232
1.00001
1.11864
1.11963
1
1.11945
1
1.11856
1
1.11956
1
1.00001
1.00001
1.1189
0.887015
0.888019
0.999404
1
1
1
0.884728
1
1.08095
1
0.882991
1
1.05144
1.11853
1.11739
1
1
1.00001
0.999833
1
1.11963
1.11851
1
1.05458
1.11836
0.955174
1.11855
1.00004
0.888918
1.02808
0.896928
1
1
1.02175
1.12009
1
1
1.01192
0.999592
1
0.875903
1
0.931286
1
1.11823
1
1
0.897209
1.03187
1.0189
0.999563
1.11856
1.11869
0.928408
0.999467
0.890316
0.901895
0.89166
1
1
1
0.999735
0.909228
0.897332
1
1.11841
0.999926
1.11859
1.1187
1.12048
1.11835
1
0.890428
1.11885
0.894634
1
1.11845
1.11986
0.999082
0.947627
1.11854
1.08944
1
0.888007
1
1
1.11924
1
1.00756
1.11842
1
0.88159
0.888988
1
1
0.886562
0.890416
1.11864
1.00001
1
0.875308
0.87463
1.11779
1.11398
1.11164
1.11972
1.03582
0.995807
1.05182
1.12161
1.09642
1
1.06608
1
0.894289
0.957722
1
0.889148
1.11851
1.00635
1.11873
1
1.1186
1.11939
1
1.11828
1.11859
0.890329
1.11959
1
1.12043
1
0.920887
0.889655
1.11848
1
1
1
0.890583
1.11886
1.11882
1
0.894653
1
1
0.892105
1.00001
0.884882
1.12008
1
0.948523
0.884551
1
1
1.07166
1
1
1
1.02072
0.890973
1
1
1
1.11851
0.888534
1
1.11867
0.875976
0.893912
1
1
1.11967
1
1.11828
1
1.11862
0.895823
1
1
0.887694
0.947057
0.877698
1
1
1
1
1.11887
0.88844
1
0.88929
1
1.11811
1
1
0.983352
1
1
0.946508
0.999905
1.00001
1
0.890042
0.893316
1
1
1
1
0.935602
1.11826
1.11985
1
0.88874
0.891571
0.973803
0.893954
1
0.947919
1
0.895037
0.996254
1
1
0.893034
1
1.1187
1.11702
0.891211
1
1
1
1.11858
1
1.01281
0.950867
1.04078
0.891103
1.05193
0.886114
1
1
0.915026
0.974442
1
1.01241
1
1
0.901257
1
0.982275
1.01401
0.890735
1
1.09912
0.925069
0.967629
1
1
1
0.89316
1
0.891511
0.893594
1
0.958241
0.889195
1.01975
0.919859
0.890406
1.11854
1
1.11839
1.06748
0.913773
1.11857
0.890174
0.99972
1.11945
1
1
1.11877
1
0.917919
1
1.01917
1
1
1.11862
1
0.930316
0.945904
1.12095
0.981961
1
0.916023
1.11863
1.11977
0.973528
1
1.11852
1.03442
0.956919
1
1.00644
1
0.894691
1.05436
0.937426
0.92527
1
1
0.894767
1.11848
0.989511
0.891414
0.886169
0.959558
1
1.00637
1.11948
1.11834
1
1
1
0.892375
1.05992
0.999999
1.11905
1.1085
0.890694
0.999997
1.02912
0.965566
1.07251
1.10353
1
1.01308
1
1.00002
0.873407
0.955633
1
1
0.943691
0.873737
1.01167
1
1.00001
0.873018
1.05678
1
1.11926
1
1.01158
1.0668
1
1.11837
1
1
1.11865
1
0.88686
1.11935
0.908204
1.03397
1
0.894085
0.999973
1
1.00001
1
0.938851
1.00767
0.890409
1.08996
1.12047
0.884274
1
1
1
1
1
0.988521
0.899384
1.01385
0.890845
0.888855
1.02232
1
0.999945
1.03336
1
1
0.902546
0.998424
1
1
1.03755
1
1.11978
1
1.11926
1.02719
1.009
0.89247
1
1
0.875477
1
1
1
1
1.1191
1.01222
0.999453
1
0.888168
1.01562
1
1
1.08013
1
0.885151
1.11816
1
1
1
1.11908
0.890105
0.969115
0.876233
1.09236
1.11823
1
1
1.1186
1
0.881058
1
1
1
1
1
0.931519
1
1.11899
1
1
1.04516
1.11979
0.897593
0.966934
1
1.11859
1
1
1
1
1
1.11846
1.1196
0.892513
1.1185
0.884314
1
1
1.11866
1
1.11948
1.00307
1.00823
1.01751
1.11867
1.0198
1.08305
0.885697
1
0.886369
0.996365
1
1.11867
1
1
0.888236
1.11879
1
1.11967
1
1
1
1
1
1
0.889246
1.12001
0.958187
1.11873
1
0.889043
0.895117
0.914869
1.12001
1.11876
0.988843
1
0.942978
1
1.05091
1
1.11919
0.885483
0.889174
0.957948
1
1.11847
1
1.02073
0.89342
1
1.12013
1.10986
0.999666
1
1.11845
0.89049
1.11968
1.11868
1.12038
0.89161
1.02814
1
1
0.882052
1
0.946409
0.950326
1
1.00001
1.11875
1
1.11793
1.0266
1
1.01145
1.11937
1
0.89041
1
0.929257
1
1
1.09935
1
0.938981
1
0.896629
1.01076
0.989216
0.875529
1.11884
1.09833
1.11953
0.891515
0.906691
0.998827
1
1
0.90528
1.11244
0.890309
0.999992
1
1.11853
1.11902
0.96907
1
0.890474
0.912806
1.08137
0.995932
0.885239
1
0.888066
1.03411
0.891757
1
1.00002
0.94243
1.11998
1.11849
0.951319
0.999881
1
1
0.903127
1
0.88855
1
0.887859
0.891446
1
1
1.00001
0.893427
1.11859
1
1
1.00002
1.00001
0.89224
1.11854
1.11861
1
0.890088
1.12004
1
1.02999
1
1
1.11833
0.886942
1
1
0.891978
0.925393
0.889359
0.890164
1
0.907552
0.999199
1.0304
0.883528
1
1
1.03698
1
1.10599
1
1
1.089
0.907652
1
0.89039
1.03579
1.11882
1
1
0.894308
0.886187
0.883283
0.915996
0.881602
1.09208
0.99983
1
1
1
1
1.11845
0.876176
1
0.983026
0.999909
0.999623
0.999981
0.928754
1.03554
1
1.11865
1.11878
1
1
1.11463
1.00001
1
1.11874
0.89354
1.11626
1
0.885207
1.11859
1.00002
1
0.951454
1
0.885356
1
1.11934
1
1
1.11928
1
1
1.12007
1
1
1
1.12068
1
0.929749
0.918099
1
0.88538
1.11885
1
1
0.993489
1
1.11982
1.07195
1.0972
1
1
0.894783
1
0.888891
1.11817
1.12037
1.11877
1
1.1202
0.892216
1
0.888357
1.09682
1.11188
1.11857
1.11884
0.919146
0.887156
1
1.0818
1.11945
1.11977
1.11869
0.925073
1.04706
1
1.09308
0.923035
1
1
1
1.00001
0.967758
1
1.11793
1
1
1
1
1
1
1.00002
1.11821
1
1.11964
1.09065
0.890789
1.12
1.00963
1.06236
1
1.1185
1
0.890813
1
1
1
1
1.10227
1
0.882771
1.1186
0.88111
1.1186
1.09619
1.06417
1
1.02461
1.06009
0.998747
0.893563
0.924913
1.00001
1
0.974158
1
0.881068
1.11958
0.886798
0.982502
0.95875
1
1
1
1.00403
1
1
0.896229
0.99898
1.11961
1
1.11853
1
0.890766
1
1
1.11861
1.1184
0.883569
1
1.11904
1
0.943417
0.896811
1.1194
1.10732
1
1.02238
1.11857
0.999613
1
1.0543
1.10573
1.11797
0.998902
1
0.999999
1.102
1
1
1
1.11856
0.999568
1
1
1.11868
1
1
0.892864
1
1
1
1.11922
1
1
0.954525
1.03878
1.10867
0.937384
1
1.11872
1
1.04304
1
1.11963
0.9992
1.11858
1
0.890038
1
1.08487
1
1
1.11168
1
1.11839
1
1.11767
0.905525
0.891297
1.11934
1
1.10166
1
1.11931
1
1
1.00001
1.11911
1.11931
1.03535
1.11845
0.998674
0.900993
1.11864
0.962393
1
1.11708
1
1.11823
1
1.11913
1.11937
0.998903
0.888238
1
1.11868
1
1.00884
1
1
0.999413
0.920483
1.10709
1
1.10945
1
0.964919
0.890175
1.11848
1.11853
0.911849
1
1.1188
1.12007
1.11927
0.902866
1.11834
0.900022
1.11907
1.11985
1
1
1.11868
1
1
1
1
0.889727
1
1
1.11938
1.11869
1
1.11862
1
1.12061
1.11968
1
1.10095
1
0.88381
1.11846
1.08982
1.03714
0.880215
1.1185
1
1
0.888897
1
1
1.11859
1
1
0.936063
1
1.1185
1.00003
1.11914
0.884602
1.11952
1
1.1185
1.11472
0.964514
1
1.11837
0.924192
1.12001
1.08616
1.11873
1.11804
0.999159
1.1196
1.11858
1.11852
1.11838
1.00003
1
0.900835
1
1.11978
0.947333
1.10915
1
1.11671
1
1
1
1
1
1.1179
0.886958
0.897883
1.11896
1.11856
1
1
1
1
1
1.11762
1.10892
1.11858
1.00859
1
1
1
1.00001
1.11836
1.11852
1
1.11949
1.11947
0.898032
1.0857
1
1.11862
1.11946
1.11789
0.999377
1.11874
1.1186
1
1.10646
1
1
1
1
1
1
1.11848
1.12062
1.11159
1.11854
0.886154
0.909312
1.1185
1.11853
1
0.887933
0.985573
1
1.06002
0.884199
1
0.999846
0.999519
0.887908
1
1.1186
1
1
1
1.11935
0.985343
1
1.11865
1.11865
1
1.11945
1
1
1.11865
1
0.886513
1
1.11863
1
1
0.896174
1
1.11887
1
0.887229
0.873968
1
1.11327
1
0.882764
0.969712
1
1.11849
1
1
1
1.11936
1
0.887705
1.01759
1.11954
1.11908
1.11851
1.01446
1.11905
1.11867
1
1
1
1
1
1.11865
1
0.999807
1.11811
1
0.881542
1
1.11862
1.05987
1.01642
1.05953
1.01725
1.11886
0.905474
1.11857
1
0.890026
0.999199
1.11855
0.981811
1.11857
1.11867
1.11343
1
1.11935
1.11866
1.11857
1
1.00001
1
1
1.11965
1.08792
1
1
0.889466
0.999052
1
1.11855
1
1.11847
1.11855
1.11845
0.973376
1.11862
1.11846
1.00459
1.05963
1.11997
1.11838
1
1.11015
0.953194
1.11778
0.994512
1.11832
1
1.11866
1.11832
1
0.894809
0.980676
0.910704
1
1.024
0.999168
1.11899
1
1
0.999079
1
1.06244
1.1118
1
1
1.11879
1
1
1.08777
1.11819
1.11449
1.11819
1.11842
1
1.11846
0.914689
1.11914
1
0.999261
0.890584
1
1
0.916219
1
1.03905
1
1.11889
1
1.11657
1.07868
0.888788
1
1
1
1
1
1.1191
1.00334
1
1.11939
1
1.11867
1.11855
1
1
0.992947
0.999954
0.884959
0.883701
0.916302
1.02589
1
0.999543
0.893611
1.00001
1
1.11824
0.980849
1.11152
1.10073
1
1
1
1
1
1.11847
1.11855
1
1.11833
1
1.11976
1.08232
0.998961
1
1
1
1.07174
1
0.988469
1
1.1189
1
1
1.11856
1
1
1
1
1
1.11878
0.884434
0.998836
1.10747
1.1185
1
1.11868
1
1
1
1
0.902087
1
1.11858
1.11865
1.11861
1.11983