/*--------------------------------*- C++ -*----------------------------------*\
  =========                 |
  \\      /  F ield         | OpenFOAM: The Open Source CFD Toolbox
   \\    /   O peration     | Website:  https://openfoam.org
    \\  /    A nd           | Version:  12
     \\/     M anipulation  |
\*---------------------------------------------------------------------------*/
FoamFile
{
    format      ascii;
    class       volScalarField;
    location    "3.65";
    object      rho;
}
// * * * * * * * * * * * * * * * * * * * * * * * * * * * * * * * * * * * * * //

dimensions      [1 -3 0 0 0 0 0];

internalField   nonuniform List<scalar> 
22702
(
1.40001
1.40001
1.24898
1.40001
1.44786
1.40001
1.84002
1.40001
1.40001
1.05946
1.84009
1.83897
1.40001
1.84187
1.26244
1.40001
1.40001
1.40001
1.84009
1.40001
1.84159
1.40001
1.84229
1.02643
1.84051
1.0014
1.40001
1.8376
1.01314
1.02926
1.40001
1.83723
1.40001
1.40001
1.40001
1.80921
1.83976
1.84272
1.40001
1.40001
1.05158
1.40001
1.62305
1.40001
1.83667
1.40001
1.40001
1.40001
1.40001
1.03139
1.40001
1.03281
1.40001
1.84041
1.40001
1.83576
1.40001
1.40001
1.40001
1.40001
1.01437
1.40001
1.40001
1.0235
1.40001
1.02698
1.40001
1.40001
1.40001
1.0248
1.40001
1.84125
1.67132
1.40001
1.84308
1.86027
0.991234
1.84216
1.02314
1.40001
1.83969
1.0352
1.8388
1.83896
1.40001
1.40001
1.40001
1.40001
1.32413
1.04681
1.84485
1.40001
1.40001
1.07345
1.40001
1.842
1.07478
1.40001
1.40001
1.40001
1.40001
1.62297
1.83969
1.00188
1.40001
1.40001
1.50674
1.40001
1.03109
1.40001
1.83999
1.83749
1.40001
1.40001
1.01714
1.02478
1.05403
1.40001
1.40001
1.40001
1.40001
1.40001
1.30169
1.40001
1.78024
1.43898
1.83849
1.40001
1.8393
1.8391
1.84118
1.83678
1.40001
1.00471
1.40001
1.04613
1.40001
1.40001
1.40001
1.40001
1.83729
1.40001
1.40001
1.40001
1.40001
1.84249
1.40001
1.42758
1.40001
1.40001
1.40001
1.40001
1.02637
1.40001
1.41032
1.40001
1.02291
1.40001
1.40001
1.40001
1.8434
1.40001
1.83851
1.04314
1.0149
1.83877
1.83971
1.40001
1.4757
1.65058
1.40001
1.83829
1.02308
1.81047
1.40001
1.40001
1.40001
1.40001
1.84221
1.75593
1.40001
1.83827
1.04966
1.83631
1.40001
1.02346
1.40001
1.03541
1.01159
1.39979
1.40001
1.40001
1.83908
1.40001
1.40001
1.84259
1.40001
1.83879
1.83815
1.02714
1.40001
1.40001
1.02858
1.83978
1.40001
1.40001
1.40001
1.8397
1.40001
1.02585
1.40001
1.40001
1.84103
1.8417
1.83899
1.40001
1.40005
1.40001
1.40001
1.40001
1.84181
1.40001
1.06082
1.84974
1.83909
1.84057
1.40001
1.40001
1.40001
1.01439
1.8386
1.63023
1.40001
1.84347
1.06452
1.05219
1.84348
1.84504
1.40001
1.8421
0.99825
1.79127
1.40001
1.40001
1.40001
1.40001
1.84353
1.40001
1.65185
1.44198
1.40001
1.40001
1.84367
1.06402
1.13976
1.40001
1.84212
1.0258
1.83907
1.40001
1.40001
1.40001
1.40001
1.40001
1.40001
1.40001
1.03186
1.13438
1.05823
1.84141
1.40001
1.40001
1.40001
1.40001
1.79495
1.40001
1.02808
1.40001
1.00216
1.02351
1.84545
1.02142
1.84158
1.40001
1.40001
1.40001
1.39744
1.02822
1.02915
1.4
1.40001
1.00521
1.40001
1.83828
1.00829
1.40001
1.40001
1.83936
1.0672
1.40001
1.83643
1.02122
1.84039
1.40001
1.01125
1.39761
1.40001
1.40001
1.40001
1.0263
1.40001
1.40001
1.40001
1.40001
1.39572
1.67384
1.40001
1.02616
1.40001
1.40001
1.40001
1.40001
1.40001
1.40001
1.40001
1.839
1.40001
1.83725
1.40001
1.40001
1.40001
1.0228
1.40001
1.84286
1.03554
1.40001
1.7625
1.40001
1.40001
1.83925
1.40001
1.40001
1.40001
1.83625
1.40001
1.40001
1.83009
1.83868
1.40001
1.49478
1.40001
1.40001
1.05363
1.40001
1.40001
1.40001
1.06624
1.40001
1.40001
1.40001
1.40001
1.02941
1.40001
1.40001
1.40001
1.40001
1.40001
1.0657
1.40006
1.83879
1.40001
1.39999
1.83992
1.8375
1.40001
1.40001
1.03219
1.22462
1.8375
1.40001
1.40001
1.40001
1.83826
1.02011
1.40001
1.83812
1.40001
1.40001
1.10684
1.08083
1.40001
1.02618
1.04608
1.40001
1.40001
1.40001
1.40001
1.40001
1.40001
1.40001
1.83801
1.50658
1.83032
1.07025
1.30778
1.83701
1.40001
1.84242
1.83695
1.05571
1.17587
1.40001
1.044
1.40001
1.84474
1.40001
1.40001
1.40001
1.40001
1.83921
1.40001
1.40001
1.40001
1.40001
1.40001
1.40001
1.40001
1.56072
1.84363
1.40001
1.84206
1.40001
1.40001
1.03222
1.40001
1.40001
1.40001
1.40001
1.84121
1.73762
1.40001
1.40001
1.01903
1.83853
1.84059
1.40001
1.8401
1.84219
1.8423
1.40001
1.24629
1.40001
1.84431
1.39251
1.8423
1.40001
1.05869
1.3988
1.83896
1.40001
1.40001
1.40001
1.40001
1.02843
1.84305
1.79863
1.40001
1.84373
1.83854
1.83951
1.40001
1.59931
1.84086
1.40001
1.40001
1.70821
1.46263
1.84121
1.33208
1.84102
1.40001
1.84149
1.84058
1.84154
1.83888
1.40001
1.83833
1.2982
1.25989
1.40001
1.4
1.40001
1.40001
1.84418
1.40001
1.40001
1.40001
1.40001
1.40001
1.83865
1.40001
1.40001
1.39629
1.84209
1.79483
1.40001
1.76508
1.40004
1.40001
1.40001
1.83788
1.40001
1.39717
1.40467
1.40001
1.8395
1.40001
1.8401
1.40001
1.40001
1.72726
1.40001
1.84527
1.40003
1.40001
1.84642
1.40001
1.84287
1.40001
1.40001
1.40001
1.84316
1.40001
1.84037
1.40001
1.84117
1.83724
1.84399
1.83893
1.40001
1.83852
1.82629
1.40001
1.03105
1.81493
1.71698
1.40001
1.83993
1.40001
1.06183
1.02462
1.40001
1.40001
1.40001
1.40001
1.40001
1.07231
1.40001
1.84156
1.50871
1.83815
1.40001
1.40001
1.40001
1.40001
1.40001
1.84033
1.40001
1.84605
1.66157
1.18967
1.40001
1.40001
1.52996
1.51736
1.40001
1.40001
1.55823
1.40001
1.02561
1.84524
1.84429
1.40001
1.40001
1.40001
1.83732
1.40001
1.40003
1.84113
1.84546
1.35821
1.40001
1.40001
1.03487
1.80115
1.40001
1.40001
1.40001
1.40001
1.40001
1.84288
1.83744
1.40001
1.84481
1.83856
1.84468
1.40001
1.40001
1.40001
1.40001
1.00854
1.83652
1.40001
1.40001
1.80297
1.84055
1.40001
1.81568
1.84309
1.40001
1.40001
1.40001
1.40001
1.40001
1.84327
1.40001
1.40001
1.40001
1.40001
1.83801
1.40001
1.83415
1.03713
1.40001
1.04693
1.40001
1.40001
1.40001
1.39719
1.03172
1.39903
1.40001
1.40001
1.40001
1.46679
1.40001
1.40001
1.28149
1.40001
1.40001
1.40001
1.40001
1.40001
1.40001
1.40001
1.4
1.30191
1.4
1.40001
1.39756
1.40001
1.02317
1.40001
1.40001
1.40001
1.40001
1.72962
1.40001
1.40001
1.40001
1.40001
1.05442
1.40001
1.40001
1.81607
1.83728
1.4
1.40001
1.40001
1.27433
1.40001
1.40001
1.40001
1.40001
1.40001
1.40001
1.36136
1.39902
1.84196
1.40001
1.40001
1.40001
1.83963
1.28451
1.40001
1.40001
1.40001
1.84334
1.83301
1.40001
1.40001
1.40001
1.40001
1.40001
1.40001
1.40001
1.40001
1.40001
1.0332
1.40001
1.40001
1.84064
1.03129
1.40001
1.83891
1.40001
1.02078
1.40001
1.40001
1.04548
1.40001
1.40001
1.40001
1.40001
1.40001
1.40001
1.40001
1.8331
1.84092
1.40001
1.40001
1.40001
1.40001
1.80408
1.40001
1.52971
1.02985
1.40001
1.40001
1.40001
1.40001
1.40001
1.40001
1.40001
1.43533
1.40001
1.40001
1.62984
1.40001
1.40001
1.40001
1.76297
1.40001
1.40001
1.40001
1.40001
1.03785
1.40001
1.40001
1.0212
1.0404
1.40001
1.40001
1.84169
1.40001
1.3769
1.40001
1.40001
1.40001
1.7091
1.05452
1.40001
1.03168
1.40001
1.17196
1.40001
1.40001
1.40001
1.84114
1.40001
1.40001
1.84357
1.40001
1.40001
1.40001
1.84286
1.40001
1.40001
1.84166
1.40001
1.40001
1.06166
1.40001
1.52934
1.40001
1.40001
1.83622
1.83959
1.69344
1.7966
1.40001
1.05342
1.40001
1.40001
1.82243
1.40001
1.02195
1.40001
1.40001
1.40001
1.8426
1.40001
1.40001
1.40001
1.40001
1.66705
1.40001
1.82148
1.84505
1.06481
1.40001
1.40001
0.994294
1.00064
1.40001
1.40001
1.40001
1.71445
1.73405
1.40001
1.40001
1.40001
1.40001
1.40001
1.40001
1.40001
1.58413
1.83746
1.41398
1.40001
1.83696
1.00192
1.40001
1.40001
1.40001
1.64439
1.40001
1.4872
1.40001
1.80311
1.83963
1.40001
1.06155
1.40001
1.83536
1.40001
1.40001
1.84438
1.81431
1.40001
1.84091
1.40001
1.03204
1.40001
1.40001
1.40001
1.83757
1.83316
1.78982
1.40001
1.84398
1.83956
1.40001
1.84313
1.40001
1.83985
1.40001
1.02681
1.36534
1.01588
1.40001
1.40001
1.40001
1.40001
1.40001
1.84425
1.40001
1.84378
1.40001
1.40001
1.40001
1.81948
1.40001
1.01719
1.84411
1.40001
1.05039
1.05228
1.02978
1.40001
1.61522
1.4253
1.84336
1.84064
1.40001
1.4
1.40001
1.40001
1.84184
1.40001
1.40001
1.84165
1.83896
1.40001
1.5541
1.40006
1.40001
1.39673
1.84099
1.2371
1.40001
1.21826
1.02452
1.02914
1.36692
1.84107
1.83568
1.48129
1.84204
1.84256
1.40001
1.40001
1.83416
1.83987
1.84239
1.83714
1.40001
1.84168
0.979135
1.84235
1.84183
1.8375
1.84562
1.27161
1.30807
1.31826
1.84519
1.33204
1.84119
1.40001
1.40001
1.84328
1.84136
1.40001
1.04107
1.83983
1.84318
1.40001
1.84106
1.8411
1.40001
1.84271
1.05659
1.84801
1.83602
1.83557
1.84262
1.40001
1.40001
1.40001
1.84383
1.68349
1.02317
1.84102
1.0121
1.84444
1.40001
1.40001
1.40001
1.40001
1.8439
1.84077
1.40001
1.40001
1.84088
1.02887
1.84176
1.01968
1.40001
1.83896
1.40001
1.05316
1.84296
1.14029
1.40001
1.84285
1.8446
1.84229
1.40001
1.40001
1.60713
1.84359
1.021
1.84138
1.40001
1.84048
1.27602
1.84223
1.05213
1.40001
1.84152
1.0521
1.84329
1.0238
1.40001
1.84243
1.40001
1.84294
1.40001
1.65748
1.82507
1.74649
1.00907
1.40001
1.84176
1.40001
1.84216
1.40001
1.84177
1.40001
1.40001
1.84231
1.37711
1.84383
1.04388
1.80779
1.40001
1.71092
1.40001
1.8423
1.84165
1.84185
1.40001
1.79761
1.84226
1.80899
1.67178
1.83935
1.40001
1.69295
1.40001
1.84273
1.40001
1.45094
1.40001
1.80942
1.40001
1.8408
1.82176
1.82016
1.40001
1.83694
1.01818
1.40001
1.0413
1.40001
1.40001
1.40001
1.83784
1.40001
1.84231
1.40001
1.40001
1.40001
1.84252
1.82632
1.77083
1.84429
1.84112
1.04757
1.84834
1.83765
1.40001
1.77902
1.8418
1.82283
1.40001
1.83722
1.8356
1.40001
1.84806
1.84033
1.84122
1.84306
1.40001
1.40001
1.40001
1.84141
1.00621
1.40001
1.84182
1.40001
1.40001
1.023
1.40001
1.40001
1.84183
1.8414
1.40001
1.84129
1.83595
1.8434
1.37558
1.84165
1.40001
1.84166
1.84161
1.75384
1.40001
1.40001
1.40001
1.83915
1.84112
1.84123
1.32645
1.40001
1.84785
1.84102
1.83943
1.40001
1.8408
1.84295
1.84177
1.84638
1.40001
1.84235
1.83973
1.77974
1.84167
1.84526
1.40001
1.84502
1.83663
1.84127
1.8434
1.8408
1.00802
1.84293
1.84296
1.40001
1.8415
1.84142
1.84156
1.84239
1.40001
1.84163
1.84128
1.40001
1.84057
1.77333
1.40001
1.40001
1.40001
1.84668
1.83827
1.40001
1.40001
1.64263
1.40001
1.84131
1.40001
1.40001
1.84353
1.84333
1.84068
1.84066
1.40001
1.40001
1.40001
1.70776
1.40001
1.84122
1.40001
1.40001
1.83536
1.83546
1.40001
1.84187
1.01015
1.84389
1.84635
1.10555
1.40001
1.00484
1.78225
1.84427
1.84002
1.83966
1.06043
1.84258
1.83956
1.05021
1.03212
1.40001
1.83958
1.84188
1.40001
1.40001
1.84167
1.40001
1.84486
1.40001
1.78704
1.40001
1.6076
1.842
1.8442
1.7093
1.81275
1.8377
1.84257
1.82286
1.40001
1.01126
1.83858
1.84108
1.84788
1.40002
1.40001
1.40001
1.84487
1.40001
1.84086
1.84085
1.13615
1.40001
1.84216
1.39995
1.40001
1.40003
1.40005
1.84145
1.84352
1.39849
1.40001
1.40001
1.84227
1.84358
1.84267
1.84161
1.84416
1.04064
1.78115
1.40001
1.83908
1.8409
1.84117
1.83271
1.40001
1.84133
1.82984
1.8425
1.40001
1.84124
1.84232
1.25984
1.84136
1.84115
1.40001
1.84201
1.2613
1.8415
1.2347
1.84129
1.40001
1.84229
1.84665
1.84164
1.84169
1.84212
1.83436
1.84182
1.83821
1.40001
1.32152
1.84171
1.84327
1.26441
1.84203
1.38576
1.66589
1.84168
1.84166
1.84053
1.40001
1.84395
1.69063
1.84024
1.32526
1.84331
1.84206
1.40001
1.2822
1.40001
1.84457
1.40001
1.70221
1.40001
1.81405
1.26208
1.40001
1.8438
1.84772
1.40001
1.8445
1.84366
1.84687
1.83229
1.83451
1.40001
1.83816
1.40001
1.40001
1.40001
1.27402
1.83981
1.84028
1.84133
1.84192
1.84077
1.84059
1.83689
1.84225
1.27831
1.43069
1.40001
1.40001
1.84326
1.84198
1.84165
1.84161
1.40003
1.63091
1.40001
1.8476
1.79391
1.40001
1.40001
1.11887
1.84145
1.40001
1.40001
1.00108
1.84191
1.40001
1.83775
1.84166
1.8376
1.825
1.8418
1.40001
1.01347
1.50937
1.84221
1.8416
1.40001
1.841
1.84177
1.61658
1.40985
1.50171
1.40001
1.84334
1.83824
1.40001
1.40001
1.06437
1.40001
1.40001
1.84175
1.84188
1.84109
1.84239
1.84122
1.84061
1.84265
1.844
1.84239
1.40001
1.39608
1.8409
1.8413
1.39701
1.84183
1.84165
1.027
1.06668
1.84476
1.84955
1.40001
1.40001
1.40158
1.84252
1.84081
1.84177
1.40001
1.84187
1.40001
1.23766
1.84952
1.84332
1.40001
1.59929
1.8428
1.40001
1.83977
1.40001
1.84259
1.6875
1.84804
1.40001
1.84144
1.84934
1.05503
1.84141
1.40001
1.841
1.83801
1.40001
1.02397
1.8381
1.76541
1.39792
1.82132
1.84148
1.40001
1.39231
1.84695
1.3984
1.8412
1.40001
1.40001
1.84269
1.40001
1.84194
1.84176
1.39621
1.75298
1.40001
1.84169
1.40001
1.40001
1.40001
1.40001
1.84148
1.40001
1.40001
1.83371
1.40001
1.84121
1.40001
1.68577
1.84531
1.84036
1.40001
1.40001
1.39946
1.40001
1.83933
1.84134
1.84205
1.84159
1.84236
1.84199
1.84122
1.40001
1.84238
1.84292
1.40001
1.84127
1.84248
1.40001
1.84129
1.30924
1.45788
1.84182
1.84214
1.8424
1.40001
1.84119
1.40001
1.84205
1.84194
1.40001
1.84282
1.40001
1.40001
1.40001
1.40001
1.8426
1.01919
1.39781
1.40001
1.84411
1.84843
1.40001
1.84167
1.40001
1.4048
0.99522
1.84208
1.39964
1.40001
1.84258
1.39835
1.84101
1.40001
1.39977
1.40001
1.84022
1.84086
1.84318
1.84335
1.03152
1.84287
1.8407
1.84182
1.51779
1.40001
1.40001
1.59148
1.84117
1.00949
1.0334
1.40001
1.84077
1.83858
1.84443
1.40001
1.40001
1.84037
1.84269
1.39989
1.40001
1.72058
1.02137
1.40001
1.47897
1.83887
1.84311
1.39824
1.84147
1.84898
1.40001
1.39903
1.40001
1.83784
1.84078
1.58221
1.40001
1.83216
1.40001
1.40137
1.84263
1.03754
1.8391
1.84165
1.39698
1.39992
1.78341
1.40001
1.39971
1.40001
1.84283
1.40001
1.40002
1.00505
1.84138
1.40001
1.40001
1.40001
1.40001
1.83702
1.64615
1.40001
1.40001
1.01403
1.84178
1.65105
1.40001
1.40001
1.40001
1.82164
1.83887
1.83795
1.40001
1.40001
1.84315
1.40001
1.84192
1.84105
1.40001
1.40001
1.8432
1.84134
1.81731
1.40001
1.40001
1.84323
1.84488
1.40001
1.40001
1.40001
1.84335
1.40001
1.40001
1.40001
1.84092
1.84714
1.84316
1.40001
1.84322
1.40003
1.06984
1.83916
1.8431
1.40001
1.84091
1.81552
1.83884
1.40001
1.40001
1.84303
1.40001
1.63177
1.84251
1.40001
1.05031
1.40001
1.84386
1.40001
1.40001
1.83957
1.40001
1.40001
1.40001
1.54259
1.84207
1.06303
1.40002
1.84298
1.40001
1.40001
1.84212
1.40001
1.84277
1.40001
1.40001
1.84228
1.84327
1.40001
1.40006
1.40001
1.40001
1.40001
1.40001
1.40001
1.40001
1.84894
1.84141
1.40001
1.83776
1.0299
1.84922
1.40001
1.83769
1.83699
1.84224
1.8331
1.8426
1.40001
1.40001
1.83888
1.40001
1.67191
1.84718
1.84063
1.40001
1.84498
1.83909
1.40001
1.79867
1.40001
1.84013
1.68897
1.83924
1.39754
1.83179
1.80686
1.84424
1.84224
1.43538
1.84156
1.84647
1.40001
1.84173
1.40001
1.84276
1.40001
1.40001
1.40001
1.40001
1.39661
1.84155
1.84217
1.76287
1.40001
1.84507
1.40001
1.40001
1.40001
0.990982
1.40001
1.8305
1.40001
1.80139
1.82311
1.40001
1.40001
1.40001
1.81802
1.83631
1.40001
1.40001
1.84176
1.03772
1.47117
1.40001
1.84448
1.8415
1.80306
1.83035
1.84339
1.40001
1.84091
1.40001
1.40001
1.40001
1.40001
1.84401
1.83912
1.40001
1.84188
1.45063
1.84141
1.81118
1.40001
1.40001
1.81301
1.40001
1.40001
1.04393
1.71004
1.40001
1.40001
1.84888
1.40001
1.84669
1.80369
1.40001
1.80351
1.03589
1.84218
1.84217
1.84272
1.40001
1.06576
1.40001
1.40001
1.40001
1.84044
1.76185
1.40001
1.84401
1.83805
1.40001
1.84168
1.40001
1.40001
1.40001
1.40001
1.83948
1.3994
1.40001
1.84365
1.40001
1.40001
1.84269
1.84162
1.40001
1.8433
1.48829
1.40003
1.40001
1.84154
1.40001
1.84126
1.40001
1.41424
1.84169
1.40001
1.84171
1.40001
1.40001
1.53231
1.84012
1.40001
1.40001
1.40001
1.40001
1.40001
1.39662
1.06588
1.01405
1.42009
1.40001
1.42124
1.40001
1.42387
1.40001
1.84175
1.40001
1.66454
1.40001
1.84226
1.40001
1.40001
1.40001
1.84214
1.40001
1.76513
1.84094
1.40001
1.63343
1.84275
1.40001
1.40001
1.83818
1.84222
1.40001
1.40001
1.45422
1.01198
1.40001
1.8399
1.40001
1.40001
1.40001
1.40001
1.47499
1.84027
1.40001
1.40001
1.40001
1.04316
1.40001
1.84232
1.84203
1.85383
1.40001
1.40001
1.40001
1.40001
1.62329
1.84583
1.40001
1.40001
1.40001
1.83503
1.84175
1.45463
1.40001
1.40001
1.40001
1.83904
1.84164
1.40001
1.04527
1.8418
1.84205
1.84517
1.84416
1.84986
1.40001
1.40001
1.83337
1.84645
1.841
1.02835
1.44135
1.84249
1.40001
1.40001
1.40001
1.40001
1.40001
1.83885
1.03285
1.40001
1.40001
1.84175
1.60356
1.40001
1.83871
1.40001
1.40001
1.40001
1.05194
1.40001
1.40001
1.5183
1.84216
1.84116
1.40001
1.84262
1.84819
1.40001
1.47452
1.40001
1.84728
1.40001
1.84387
1.03834
1.40001
1.40001
1.40001
1.40001
1.84188
1.40008
1.40001
1.40001
1.40001
1.81668
1.40001
1.40001
1.40001
1.40001
1.8416
1.04897
1.7357
1.84242
1.40001
1.84288
1.40001
1.40001
1.40001
1.39711
1.40001
1.83944
1.40001
1.19289
1.40001
1.40001
1.40003
1.84163
0.999518
1.40001
1.84535
1.40001
1.83917
1.84184
1.03537
1.40001
1.40001
1.82376
1.40001
1.40001
1.03061
1.40001
1.84406
1.40001
1.82223
1.39932
1.84214
1.40001
1.40001
1.40001
1.40001
1.84193
1.40001
1.40001
1.84144
1.40001
1.40001
1.40001
1.40001
1.40001
1.40001
1.40001
1.40001
1.69242
1.40001
1.54172
1.83946
1.40001
1.40001
1.40001
1.06463
1.40001
1.40001
1.40001
1.40001
1.8459
1.84175
1.45597
1.40001
1.40001
1.84302
1.40001
1.40001
1.84033
1.40001
1.40002
1.40001
1.40001
1.40001
1.40002
1.84143
1.15266
1.84168
1.84379
1.39716
1.40001
1.40001
1.40001
1.66285
1.40001
1.40001
1.84204
1.84137
1.40001
1.40001
1.40001
1.40001
1.02854
1.40001
1.40001
1.40001
1.67724
1.40001
1.84198
1.84504
1.40001
1.84247
1.40001
1.40001
1.40001
1.63658
1.40001
1.83703
1.40001
1.84173
1.40001
1.40001
1.39651
1.84175
1.40001
1.40001
1.40001
1.40001
1.40001
1.84447
1.40003
1.40001
1.04544
1.84485
1.03038
1.40001
1.84151
1.40001
1.3962
1.40001
1.84387
1.83967
1.40001
1.84354
1.28046
1.84157
1.84346
1.40004
1.40001
1.40001
1.03015
1.40001
1.40001
1.40001
1.84279
1.65105
1.84124
1.40001
1.40001
1.40001
1.40001
1.39693
1.83948
1.40001
1.03846
1.40001
1.40001
1.40001
1.40001
1.40001
1.40001
1.40001
1.84556
1.84062
1.84751
1.40001
1.40001
1.39694
1.40001
1.38263
1.40001
1.40001
1.40001
1.00872
1.38394
1.40001
1.03099
1.06126
1.40001
1.84274
1.84212
1.40001
1.83837
1.84145
1.03566
1.71043
1.40001
1.40001
1.40001
1.03789
1.83977
1.40001
1.0373
1.40001
1.83887
1.47439
1.40001
1.40001
1.40001
1.40001
1.84143
1.83886
1.40001
1.40001
1.84156
1.40001
1.40001
1.84005
1.84218
1.40001
1.8151
1.84117
1.83972
1.36293
1.84382
1.40853
1.03755
1.73685
1.84315
1.40001
1.40001
1.40001
1.01319
1.40001
1.06342
1.84017
1.35824
1.84171
1.35219
1.40001
1.84208
1.60647
1.40001
1.40001
1.84582
1.40001
1.58276
1.84342
1.40001
1.40001
1.83414
1.8452
1.0569
1.66842
1.39989
1.40001
1.66934
1.40001
1.84696
1.34835
1.8529
1.84825
1.40001
1.40001
1.40001
1.40001
1.84099
1.40001
1.40001
1.84106
1.39963
1.84083
1.77075
1.84163
1.03169
1.40001
1.40001
1.40001
1.40001
1.84085
1.40005
1.84202
1.40001
1.84136
1.8349
1.45688
1.85003
1.53314
1.84144
1.40001
1.70182
1.04406
1.84714
1.84378
1.74753
1.47596
1.83945
1.84151
1.84139
1.84268
1.40001
1.31195
1.4641
1.40001
1.84448
1.61238
1.84256
1.40004
1.40001
1.40001
1.09337
1.84092
1.8408
1.75595
1.40001
1.5702
1.40001
1.84508
1.8446
1.40001
1.83971
1.84087
1.40001
1.40001
1.40001
1.83934
1.40001
1.57986
1.84328
1.70742
1.40001
1.84249
1.40001
1.40001
1.40001
1.40001
1.40001
1.40001
1.40001
1.40001
1.40001
1.40001
1.0904
1.40001
1.8172
1.01048
1.66273
1.39853
1.84159
1.40001
1.63217
1.40002
1.68672
1.76677
1.40001
1.40194
1.83719
1.29979
1.40001
1.84115
1.82798
1.34654
1.40001
1.84467
1.84062
1.84453
1.40001
1.84144
1.83994
1.84058
1.40001
1.60498
1.40001
1.40006
1.84058
1.40001
1.84234
1.46497
1.84035
1.40001
1.40001
1.84565
1.84078
1.08051
1.40001
1.84169
1.7318
1.84077
1.40001
1.40001
1.84018
1.83321
1.39823
1.40001
1.7739
1.39705
1.8428
1.40007
1.40001
1.40001
1.40001
1.40001
1.60511
1.40001
1.73565
1.83945
1.73066
1.84314
1.40001
1.40292
1.40001
1.40001
1.83997
1.40001
1.83966
1.40001
1.40001
1.40001
1.40001
1.4
1.40001
1.45233
1.62585
1.40001
1.40001
1.01602
1.40001
1.84595
1.09162
1.83889
1.40001
1.62339
1.39975
1.8415
1.68638
1.05686
1.64033
1.40004
1.84242
1.83995
1.40001
1.66898
1.8428
1.83991
1.39843
1.85517
1.82939
1.02147
1.40001
1.40001
1.39733
1.40001
1.81667
1.40001
1.06077
1.84368
1.40001
1.40001
1.7735
1.40001
1.83857
1.40001
1.83969
1.40001
1.05682
1.40001
1.40001
1.84057
1.84814
1.84654
1.40001
1.84332
1.84136
1.83819
1.40001
1.40001
1.84335
1.4
1.12772
1.40001
1.40001
1.40001
1.8413
1.40001
1.84183
1.6912
1.8432
1.40001
1.84169
1.39936
1.40001
1.40001
1.40001
1.40001
1.40001
1.40001
1.09966
1.40001
1.40001
1.84141
1.40001
1.84013
1.84096
1.40001
1.04807
1.02635
1.40001
1.84291
1.47883
1.03387
1.00779
1.40001
1.83947
1.40001
1.84183
1.07553
1.40125
1.40001
1.40001
1.39952
1.40001
1.40001
1.40001
1.39992
1.57562
1.84165
1.40001
1.40001
1.84541
1.66031
1.40001
1.80013
1.84247
1.84245
1.57945
1.83991
1.40001
1.84165
1.40001
1.83457
1.40001
1.84627
1.8431
1.3973
1.84928
1.84061
1.40001
1.40001
1.40001
1.40001
1.40001
1.3134
1.83946
1.40005
1.40003
1.02862
1.4
1.01754
0.993614
1.40001
1.83972
1.8423
1.84169
1.40001
1.84012
1.40001
1.03015
1.40001
1.40001
1.83881
1.19817
1.84359
1.40001
1.84001
1.40001
1.37315
1.84181
1.40001
1.40001
1.40001
1.84952
1.40001
1.84219
1.05603
1.40001
1.40001
1.65571
1.40001
1.40001
1.63608
1.40001
1.40001
1.84215
1.40001
1.40001
1.40001
1.40001
1.40001
1.84891
1.84186
1.40001
1.84118
1.83941
1.0377
1.60373
1.84433
1.40001
1.40001
1.79868
1.39889
1.40001
1.40001
1.84181
1.84144
1.68975
1.40001
1.84004
1.04662
1.81213
1.39973
1.40001
1.84161
1.40004
1.84379
1.75895
1.73471
1.40001
1.40001
1.84161
1.10207
1.02279
1.40001
1.84233
1.40001
1.84004
1.40001
1.66766
1.40001
1.40001
1.84079
1.68523
1.03731
1.40001
1.39814
1.40001
1.40001
1.42585
1.58047
1.84192
1.40001
1.83998
1.40001
1.40001
1.40001
1.40001
1.40001
1.40001
1.46483
1.03457
1.40001
1.40001
1.42647
1.40001
1.40001
1.40001
1.40001
1.40001
1.84299
1.40001
1.40001
1.84124
1.84238
1.73888
1.40001
1.40001
1.40001
1.22876
1.84225
1.70989
1.40001
1.40001
1.40001
1.40001
1.84096
1.40001
1.40001
1.40001
1.85232
1.40001
1.40001
1.72069
1.85184
1.43253
1.13671
1.8404
1.7139
1.84265
1.40001
1.62164
1.40001
1.40001
1.40001
1.00451
1.40311
1.04501
1.40001
1.06068
1.0225
1.40001
1.0408
1.40001
1.40001
1.40001
1.59549
1.40001
1.84164
1.84665
1.40076
1.6149
1.77498
1.01492
1.15642
1.26178
1.40001
1.84187
1.84059
1.84181
1.84188
1.78001
1.27091
1.40001
1.78272
1.40001
1.82785
1.40001
1.40001
1.39639
1.40895
1.40001
1.40001
1.40001
1.84131
1.40001
1.01053
1.40001
1.84242
1.0527
1.40001
1.40001
1.84179
1.40001
1.84182
1.39916
1.40001
1.40001
1.84234
1.79152
1.40001
1.85744
1.40001
1.40001
1.41472
1.40001
1.60456
1.40001
1.40001
1.03717
1.40001
1.40001
1.8435
1.4
1.84032
1.40001
1.40004
1.04292
1.40001
1.40001
1.00428
1.40082
1.40001
1.84167
1.0457
1.85097
1.01608
1.84137
1.40001
1.40001
1.40001
1.40001
1.40001
1.40001
1.40001
1.40001
1.40001
1.40001
1.40001
1.82334
1.40001
1.84381
1.83889
1.02747
1.40001
1.40001
1.40001
1.40001
1.40001
1.40001
1.82934
1.40001
1.40001
1.02703
1.40001
1.40001
1.84117
1.40001
1.40001
1.56658
1.77073
1.01178
1.04043
1.08286
1.1202
1.40001
1.39673
1.0171
1.40022
1.8232
1.39688
1.40001
1.40001
1.84004
1.40001
1.40001
1.40001
1.16908
1.40002
1.55473
1.40001
1.40001
1.58575
1.84231
1.40001
1.01093
1.40001
1.40001
1.40001
1.39653
1.40001
1.84436
1.84156
1.40001
1.02007
1.40001
1.63894
1.00116
1.40001
1.26699
1.40001
1.39671
1.0156
1.40001
1.40001
1.40001
1.39605
1.03248
1.40001
1.0531
1.39839
1.6342
1.80042
1.0296
1.02571
1.40001
1.38995
1.40001
1.39867
1.40001
1.84317
1.84133
1.40001
1.40594
1.83973
1.84173
1.40001
1.40001
1.84166
1.40001
1.40001
1.40005
1.40001
1.85163
1.40001
1.40001
1.41803
1.40001
1.39862
1.09784
1.40001
1.40001
1.40001
1.40001
1.40001
1.84682
1.43091
1.40006
1.40001
1.40001
1.40001
1.40001
1.40001
1.40004
1.40001
1.03638
1.48776
1.39864
1.83554
1.84499
1.40001
1.41366
1.83983
1.79075
1.40001
1.40001
1.01824
1.84404
1.40001
1.8396
1.40001
1.8433
1.71654
1.03159
1.40001
1.00169
1.81966
1.39969
1.40001
1.03579
1.00093
1.40001
1.40001
1.77347
1.40001
1.4
1.03483
1.40001
1.40001
1.40001
1.54387
1.40001
1.02734
1.84071
1.40001
1.40001
1.40001
1.40001
1.84251
1.40001
1.40001
1.83906
1.79622
1.40001
1.40001
1.40001
1.84037
1.0352
1.40001
1.84095
1.84138
1.40001
1.75408
1.4
1.40004
1.40001
1.40001
1.8093
1.41517
1.40001
1.04765
1.63346
1.40001
1.40001
1.39741
1.40001
1.40001
1.84393
1.40001
1.40001
1.40004
1.40001
1.84002
1.40001
1.40001
1.40001
1.40001
1.40001
1.40001
1.40002
1.5951
1.40001
1.84052
1.40001
1.40001
1.84277
1.40001
1.40001
1.40001
1.84182
1.84019
1.44424
1.40001
1.3976
1.40001
1.40001
1.40001
1.40001
1.83924
1.40001
1.40001
1.8429
1.02643
1.40001
1.40001
1.40001
1.40001
1.40001
1.40001
1.75822
1.40001
1.40001
1.84565
1.84051
1.40001
1.40001
1.40001
1.84085
1.84438
1.40001
1.39971
1.84436
1.40001
1.40001
1.40001
1.40002
1.0235
1.43239
1.39615
1.39614
1.40001
1.40001
1.01749
1.84086
1.40001
1.03937
1.40001
1.84145
1.82415
1.01514
1.39941
1.8415
1.84032
1.84285
1.40001
1.40001
1.31437
1.7952
1.76525
1.01565
1.40001
1.40001
1.40001
1.84161
1.84387
1.03624
1.39738
1.40001
1.84274
1.0183
1.40001
1.83787
1.04049
1.36674
1.40592
1.40001
1.84211
1.40001
1.40001
1.40001
1.40001
1.40001
1.40001
1.40011
1.81182
1.40001
1.40001
1.84819
1.40001
1.40001
1.40001
1.84174
1.40001
1.03688
1.40001
1.40001
1.40001
1.54665
1.40001
1.40001
1.40001
1.40001
1.40001
1.16684
1.40001
1.02354
1.40001
1.84209
1.40008
1.2504
1.25961
1.40002
1.40436
1.63254
1.40001
1.40001
1.05001
1.84231
1.84187
1.8421
1.40001
1.02649
1.02724
1.40001
1.84231
1.40001
1.40001
1.40001
1.40001
1.40001
1.40004
1.40001
1.03805
1.68725
1.40001
1.40001
1.04417
1.39227
1.40001
1.40001
1.40001
1.40001
1.01478
1.40001
1.05322
1.40001
1.40001
1.84768
1.40001
1.40001
1.03565
1.40001
1.8414
1.40001
1.00993
1.40001
1.04419
1.40001
1.40813
1.8405
1.85179
1.40001
1.40001
1.83883
1.40001
1.40001
1.48898
1.39667
1.40001
1.39825
1.40001
1.8433
1.40001
1.02398
1.40002
1.83689
1.39895
1.40001
1.40001
1.19011
1.40001
1.39905
1.0222
1.83933
1.55667
1.40001
1.40001
1.31597
1.40001
1.40001
1.40001
1.19043
1.40001
1.40001
1.40001
1.8416
1.40001
1.03171
1.4
1.40001
1.40001
1.40001
1.02789
1.84187
1.78912
1.0343
1.40001
1.83592
1.40001
1.40001
1.842
1.8407
1.77283
1.03148
1.39769
1.39921
1.40001
1.84173
1.40001
1.40001
1.40001
1.40001
1.84685
1.40004
1.40001
1.40001
1.83596
1.40001
1.40001
1.84175
1.0497
1.40001
1.40001
1.40001
1.03462
1.40001
1.4
1.4
1.39867
1.40001
1.40001
1.40001
1.40001
1.74884
1.40001
1.84171
1.84142
1.85264
1.84286
1.84171
1.84211
1.40001
1.83982
1.40001
1.84214
1.84168
1.40001
1.39888
1.03561
1.77858
1.3999
1.40001
1.40001
1.40001
1.40001
1.40232
1.40001
1.47226
1.40001
1.40001
1.40001
1.24244
1.84179
1.83329
1.84005
1.7909
1.39989
1.40001
1.42213
1.84031
1.39785
1.45226
1.39724
1.06431
1.40001
1.40003
1.40001
1.40001
1.40001
1.40001
1.40001
1.84201
1.03314
1.84245
1.84224
1.39516
1.03921
1.40001
1.40001
1.40001
1.84164
1.04544
1.79012
1.03164
1.84196
1.8383
1.04469
1.84161
1.42287
1.40001
1.84581
1.17048
1.40001
1.39875
0.989689
1.40001
1.05292
1.40001
1.84212
1.8417
1.15291
1.40001
1.84179
1.05941
1.40001
1.03388
1.40001
1.84267
1.40001
1.40001
1.84183
1.40001
1.22853
1.40001
1.39965
1.04894
1.83459
1.3995
1.40001
1.00671
1.40001
1.40001
1.40001
1.40001
1.63472
1.40001
1.84242
1.40001
1.40001
1.85003
1.40001
1.40001
1.84041
1.40001
1.04552
1.40001
1.02832
1.40002
1.40001
1.40001
1.40001
1.40001
1.82333
1.65891
1.8417
1.40001
1.84143
1.81181
1.01955
0.997493
1.40001
1.40001
1.84468
1.40001
1.04383
1.40001
1.38164
1.40001
1.40001
1.8409
1.40001
1.84505
1.00058
1.85157
1.40001
1.00555
1.40001
1.40001
1.84196
1.84036
1.40001
1.40005
1.40001
1.83911
1.40001
1.40001
0.999639
1.39937
1.00474
1.40001
1.40001
1.40001
1.84318
1.83795
1.83985
1.40001
1.40001
1.04336
1.40001
1.84712
1.40001
1.40001
1.40001
1.81635
1.84145
1.84285
1.05462
1.84089
1.84182
1.08519
1.84057
1.40004
1.06936
1.41406
1.40001
1.40001
1.84098
1.05935
1.68424
1.05605
1.84194
1.39747
1.03909
1.84601
1.40001
1.40001
1.40001
1.40001
1.84141
1.83983
1.04287
1.40001
1.40003
1.03502
1.40004
1.40001
1.05522
1.02287
1.70617
1.84225
1.39846
1.84235
1.40001
1.84689
1.19397
1.03645
1.84218
1.8506
1.40001
1.84211
1.40001
1.40001
1.84257
1.40001
1.73754
1.84009
1.40001
1.40001
1.40001
1.40001
1.84226
1.83695
1.84593
1.40001
1.40001
1.8441
1.8358
1.84159
1.40001
1.84228
1.40001
1.40001
1.40001
1.40001
1.40001
1.02759
1.23495
1.00532
1.40001
1.40001
1.84168
1.40001
1.40001
1.84447
1.03817
1.40001
1.84261
1.83718
1.82248
1.00587
1.40001
1.05658
1.40001
1.40003
1.83981
1.60896
1.84018
1.80345
1.40001
1.01139
1.40001
1.84006
1.71538
1.00529
1.40001
1.40001
1.40001
1.17436
1.40001
1.40001
1.8434
1.40001
1.01735
1.84115
1.40001
1.40001
1.40001
1.40001
1.40001
1.75729
1.50234
1.40001
1.84169
1.40001
1.84181
1.40001
1.39742
1.40001
1.842
1.83996
1.84287
1.84701
1.3996
1.83934
1.40001
1.8406
1.84015
1.77537
1.40001
1.40001
1.00914
1.83921
1.40001
1.40001
1.84122
1.84193
1.84336
1.40001
1.84186
1.40001
1.40001
1.40003
1.84004
1.84405
1.52842
1.4988
1.84191
1.84093
1.05445
1.40001
1.40001
1.40001
1.40001
1.40002
1.5505
1.40001
1.40001
1.77431
1.00604
1.39998
1.40001
1.84083
1.3999
1.39982
1.46877
1.79428
1.83727
1.2966
1.40001
1.00904
1.40001
1.39984
1.84162
1.84288
1.84615
1.39898
1.40001
1.40001
1.04565
1.40001
1.40001
1.84171
1.44905
1.40001
1.40001
1.40001
1.40001
1.40001
1.40001
1.40001
1.39994
1.83989
1.40002
1.40001
1.40001
1.40001
1.40001
1.6985
1.40001
1.59528
1.40001
1.40001
1.84172
1.84633
1.0343
1.39878
1.40001
1.4
1.40001
1.04179
1.84043
1.84209
1.40001
1.40001
1.40001
1.40001
1.40001
1.40001
1.40001
1.40001
1.84182
1.84508
1.02097
1.45109
1.03944
1.40001
1.02859
1.40001
1.84054
1.5156
1.40001
1.40001
1.11794
1.40001
1.8228
1.18225
1.39656
1.03661
1.40001
1.40001
1.83706
1.40005
1.39703
1.01989
1.83943
1.84815
1.40001
1.40001
1.40001
1.40001
1.81333
1.40001
1.40001
1.84154
1.39893
1.84115
1.40003
1.40001
1.40001
1.00768
1.40001
1.40001
1.84111
1.0355
1.15992
1.02623
1.84177
1.39936
1.40001
1.84761
1.02907
1.02994
1.41687
1.40001
1.40001
1.83923
1.40004
1.59498
1.40001
1.40001
1.8398
1.04168
1.40001
1.40001
1.40014
1.84141
1.40015
1.82882
1.40001
1.40004
1.40001
1.40001
1.13582
1.40001
1.16448
1.40002
1.40001
1.84338
1.00318
1.40001
1.17399
1.1772
1.40001
1.40001
1.84194
1.40001
1.40001
1.40001
1.83975
1.843
1.40006
1.82513
1.83892
1.18244
1.84154
1.81453
1.40001
1.40001
1.84114
1.4
1.40001
1.40001
1.40001
1.40001
1.84326
1.84238
1.40001
1.40001
1.40001
1.84238
1.40023
1.40001