/*--------------------------------*- C++ -*----------------------------------*\
  =========                 |
  \\      /  F ield         | OpenFOAM: The Open Source CFD Toolbox
   \\    /   O peration     | Website:  https://openfoam.org
    \\  /    A nd           | Version:  12
     \\/     M anipulation  |
\*---------------------------------------------------------------------------*/
FoamFile
{
    format      ascii;
    class       volScalarField;
    location    "22.2";
    object      rho;
}
// * * * * * * * * * * * * * * * * * * * * * * * * * * * * * * * * * * * * * //

dimensions      [1 -3 0 0 0 0 0];

internalField   nonuniform List<scalar> 
9801
(
1.08572
1.0819
1.08625
1.10286
1.12691
1.14488
1.1521
1.15275
1.14991
1.14043
1.13125
1.13215
1.13873
1.15658
1.18933
1.20953
1.21383
1.21546
1.21122
1.19923
1.18783
1.18483
1.18747
1.19875
1.22726
1.2629
1.27947
1.28423
1.28684
1.27669
1.25593
1.24712
1.24812
1.2515
1.25742
1.28291
1.32711
1.35024
1.3565
1.36051
1.35718
1.3353
1.32131
1.32113
1.32386
1.32853
1.33826
1.37427
1.41249
1.4282
1.43527
1.44068
1.43324
1.41275
1.40501
1.40676
1.4123
1.41975
1.43955
1.48122
1.5095
1.52134
1.52936
1.53247
1.51531
1.50064
1.50146
1.50824
1.51768
1.53673
1.57919
1.61369
1.63096
1.64304
1.65263
1.64377
1.61727
1.60993
1.61819
1.63263
1.66252
1.72377
1.76952
1.79442
1.81283
1.8297
1.8275
1.79497
1.77494
1.78504
1.81556
1.88735
2.0006
2.08462
2.15496
2.24393
2.27808
3.5235
14.8406
1.11638
1.09957
1.09133
1.09575
1.10647
1.12736
1.14339
1.15359
1.16198
1.16464
1.16244
1.16074
1.15894
1.15963
1.16705
1.18402
1.20291
1.20997
1.21088
1.2077
1.20526
1.20501
1.21323
1.22452
1.22922
1.24077
1.26106
1.27585
1.27903
1.27299
1.26606
1.26173
1.26235
1.26692
1.28374
1.2983
1.31197
1.32978
1.3456
1.35317
1.34831
1.33771
1.33149
1.33111
1.33434
1.34062
1.36081
1.38424
1.40245
1.41596
1.42601
1.43169
1.42542
1.41291
1.40909
1.41191
1.41796
1.42576
1.45113
1.48524
1.50539
1.51769
1.52726
1.53034
1.51371
1.49917
1.50031
1.5077
1.51737
1.53609
1.57792
1.61282
1.63051
1.643
1.65274
1.64422
1.61812
1.61065
1.61923
1.63289
1.65724
1.70986
1.75694
1.78475
1.80635
1.82723
1.83002
1.79308
1.77108
1.783
1.8127
1.86254
1.95013
2.02501
2.08701
2.1553
2.1592
3.33412
14.8603
1.11386
1.11818
1.11456
1.10505
1.10636
1.11116
1.12145
1.13365
1.1437
1.15203
1.1627
1.17483
1.18218
1.18208
1.17751
1.17912
1.18171
1.18555
1.18773
1.19034
1.19426
1.20421
1.2282
1.24304
1.24683
1.24759
1.25374
1.25853
1.25319
1.24898
1.25131
1.25521
1.26016
1.27444
1.29944
1.31312
1.31728
1.32514
1.33289
1.33391
1.32389
1.32033
1.32294
1.32789
1.33406
1.34587
1.37195
1.3938
1.403
1.41023
1.41644
1.41401
1.40223
1.39865
1.40126
1.40734
1.4151
1.42575
1.45403
1.48538
1.50106
1.5097
1.51613
1.51269
1.49574
1.48758
1.4915
1.50036
1.51103
1.52942
1.56916
1.601
1.61705
1.62801
1.63641
1.62929
1.6063
1.59845
1.60642
1.62026
1.6379
1.68097
1.73697
1.76962
1.78954
1.80778
1.81357
1.78393
1.75595
1.75771
1.78293
1.82022
1.89098
1.9707
2.02883
2.08811
2.09297
3.26952
14.6102
1.11918
1.13537
1.14013
1.13161
1.11162
1.09589
1.08877
1.09382
1.11229
1.14134
1.16996
1.19016
1.20037
1.20552
1.20171
1.17946
1.15668
1.1489
1.15454
1.16903
1.18765
1.21255
1.24176
1.25664
1.26291
1.26544
1.25556
1.22969
1.21839
1.22228
1.23366
1.24869
1.26298
1.28097
1.30532
1.31926
1.32463
1.3236
1.31453
1.30151
1.29842
1.30453
1.31461
1.32547
1.33537
1.34864
1.37157
1.38765
1.39367
1.39632
1.39658
1.39116
1.38317
1.38573
1.39405
1.4029
1.41172
1.42487
1.44872
1.46983
1.48084
1.48742
1.49347
1.49362
1.48041
1.47375
1.47917
1.48839
1.4987
1.514
1.54753
1.57756
1.59365
1.60431
1.61354
1.61494
1.59576
1.5811
1.58534
1.59842
1.61361
1.64063
1.69301
1.73216
1.75381
1.77176
1.78619
1.77399
1.74437
1.73027
1.7415
1.77184
1.81531
1.88158
1.93812
1.98998
2.01184
3.30251
14.3956
1.12432
1.14443
1.1494
1.14979
1.1223
1.08144
1.07197
1.07407
1.08269
1.11993
1.17118
1.19406
1.20223
1.20738
1.20931
1.18396
1.14433
1.13644
1.1393
1.14761
1.17192
1.21269
1.24322
1.25664
1.26186
1.26136
1.24272
1.21792
1.20988
1.21194
1.21799
1.23132
1.25442
1.28096
1.3007
1.30888
1.31114
1.3098
1.30419
1.29477
1.28986
1.29321
1.30089
1.31201
1.32545
1.34064
1.35766
1.36937
1.37527
1.37931
1.3837
1.38626
1.37847
1.37495
1.38111
1.38927
1.39702
1.40611
1.42485
1.44534
1.45916
1.46876
1.47709
1.48401
1.47709
1.4626
1.46203
1.46927
1.47815
1.48824
1.51254
1.54667
1.56765
1.58069
1.59209
1.60198
1.59282
1.56868
1.56124
1.57011
1.58401
1.60171
1.64225
1.69319
1.72528
1.7464
1.76557
1.77042
1.74628
1.72206
1.71529
1.73134
1.76349
1.81267
1.86897
1.91374
1.93786
3.32828
14.2675
1.12431
1.14685
1.15102
1.14482
1.10923
1.07881
1.07254
1.07459
1.08036
1.10319
1.15899
1.19242
1.20098
1.2035
1.19418
1.16755
1.14418
1.13771
1.14027
1.14598
1.15767
1.19392
1.23151
1.24443
1.24652
1.241
1.2315
1.2205
1.21099
1.21086
1.21532
1.22221
1.2342
1.25824
1.28005
1.29064
1.29468
1.29664
1.29892
1.29926
1.29266
1.2889
1.29162
1.29789
1.30504
1.31487
1.33142
1.34975
1.3613
1.36892
1.37651
1.38309
1.38293
1.37227
1.36867
1.37141
1.37507
1.38038
1.39372
1.42178
1.44481
1.45826
1.46829
1.47656
1.47953
1.46395
1.45095
1.4495
1.45455
1.4627
1.47837
1.51609
1.54912
1.56721
1.57984
1.59101
1.59395
1.57052
1.55002
1.54668
1.55638
1.57105
1.5971
1.64884
1.69561
1.72487
1.74717
1.76489
1.75779
1.73002
1.71159
1.71049
1.72724
1.75981
1.80929
1.85428
1.87804
3.35694
14.2084
1.11389
1.13613
1.13575
1.11875
1.09657
1.08425
1.08007
1.08204
1.0908
1.11095
1.13993
1.16862
1.18041
1.18
1.17166
1.1609
1.15102
1.14599
1.14816
1.15447
1.1624
1.1736
1.19679
1.216
1.22375
1.22615
1.22939
1.23167
1.22538
1.21937
1.22056
1.2232
1.22521
1.2278
1.2389
1.26225
1.28102
1.29215
1.30022
1.30606
1.30508
1.29507
1.2894
1.28616
1.28514
1.28783
1.29744
1.32316
1.35021
1.36661
1.37678
1.38396
1.38842
1.37848
1.36344
1.35386
1.35299
1.35774
1.36707
1.39436
1.43033
1.45204
1.46465
1.47359
1.48066
1.4733
1.44867
1.43438
1.43458
1.44252
1.45484
1.48583
1.53136
1.56032
1.57631
1.58821
1.59727
1.58428
1.55279
1.53664
1.53649
1.54839
1.56653
1.60613
1.66265
1.70491
1.73203
1.75392
1.76432
1.74829
1.72295
1.70858
1.711
1.72723
1.76145
1.80826
1.83456
3.37504
14.1867
1.09206
1.10472
1.10414
1.09892
1.09729
1.09637
1.09724
1.10284
1.11254
1.11979
1.12626
1.13232
1.13993
1.14796
1.15444
1.15983
1.16401
1.16703
1.16705
1.16732
1.16784
1.16547
1.16373
1.17168
1.19154
1.21293
1.2277
1.23631
1.24162
1.23802
1.22968
1.222
1.21338
1.20939
1.21245
1.2271
1.2617
1.29053
1.30336
1.30992
1.31397
1.30758
1.29022
1.27678
1.27069
1.27257
1.27792
1.29495
1.33511
1.3662
1.379
1.38616
1.39191
1.38753
1.36064
1.3422
1.33959
1.34467
1.35374
1.37589
1.41816
1.44973
1.46396
1.47252
1.47988
1.47934
1.45142
1.42831
1.42485
1.43129
1.44225
1.46378
1.511
1.55434
1.5754
1.5876
1.59779
1.59734
1.56524
1.537
1.53183
1.53897
1.55339
1.57667
1.62263
1.67269
1.70749
1.73246
1.754
1.75886
1.745
1.72299
1.70912
1.71046
1.72339
1.76055
1.79356
3.39466
14.1907
1.07879
1.06701
1.06814
1.07704
1.09077
1.10516
1.11941
1.12856
1.13174
1.12875
1.11884
1.1101
1.11132
1.1192
1.13621
1.15824
1.17574
1.18395
1.18758
1.18319
1.1697
1.15433
1.15074
1.15363
1.16633
1.19695
1.22724
1.24202
1.24861
1.25087
1.2434
1.22259
1.20574
1.20422
1.20765
1.2154
1.24349
1.28376
1.30362
1.31169
1.3172
1.31655
1.29708
1.27137
1.26603
1.26951
1.2751
1.28703
1.32258
1.36158
1.37811
1.38551
1.39034
1.38652
1.36275
1.34127
1.33891
1.34401
1.35135
1.36746
1.40768
1.44486
1.4616
1.46997
1.47497
1.47391
1.45742
1.43204
1.42443
1.42893
1.43816
1.45191
1.48508
1.53522
1.56622
1.58068
1.59022
1.59586
1.58845
1.55921
1.54141
1.54108
1.54961
1.56446
1.58932
1.63363
1.67582
1.70639
1.73061
1.75122
1.7542
1.74473
1.72423
1.70611
1.70186
1.71427
1.74513
3.40633
14.2085
1.07389
1.05782
1.0595
1.06589
1.07963
1.10911
1.12852
1.13497
1.13914
1.13485
1.11461
1.10785
1.11017
1.1192
1.13822
1.16397
1.17962
1.18711
1.19037
1.18119
1.16039
1.15028
1.15075
1.15478
1.16981
1.20207
1.22795
1.24024
1.24751
1.25198
1.24005
1.21429
1.20511
1.20651
1.20978
1.21801
1.24605
1.27864
1.29705
1.30694
1.31296
1.3117
1.29132
1.27243
1.2693
1.27333
1.2793
1.2922
1.3233
1.35527
1.37166
1.37913
1.38052
1.37727
1.36686
1.34902
1.34378
1.34894
1.35905
1.37033
1.39231
1.42938
1.45138
1.46036
1.46469
1.46907
1.46891
1.4516
1.43673
1.43721
1.44382
1.45123
1.46263
1.49678
1.54125
1.56721
1.582
1.59391
1.60359
1.59482
1.5667
1.55098
1.55024
1.55774
1.57118
1.59483
1.63624
1.6752
1.70547
1.72995
1.74902
1.75177
1.74276
1.7195
1.69551
1.68544
1.68629
3.4029
14.2461
1.07039
1.06235
1.06357
1.07383
1.09569
1.11513
1.12624
1.13246
1.1282
1.11725
1.11286
1.11212
1.11628
1.13077
1.15397
1.17022
1.1784
1.18382
1.18028
1.16217
1.1524
1.15307
1.15653
1.16324
1.18759
1.21313
1.22689
1.23511
1.24115
1.23962
1.2211
1.20913
1.20882
1.21223
1.21751
1.23251
1.26106
1.28207
1.29299
1.29912
1.30001
1.2952
1.28617
1.27639
1.275
1.28032
1.29071
1.30321
1.32239
1.34541
1.35851
1.36438
1.36655
1.37134
1.37462
1.36645
1.36006
1.36273
1.3677
1.37132
1.37793
1.40008
1.43251
1.45088
1.46155
1.47095
1.47945
1.47833
1.45759
1.44417
1.44176
1.44489
1.45173
1.46399
1.50177
1.54805
1.57648
1.59357
1.6064
1.61404
1.60364
1.57692
1.55863
1.55475
1.56016
1.57225
1.59801
1.64054
1.67903
1.70824
1.73059
1.74529
1.74525
1.73374
1.7073
1.6779
1.64377
3.37453
14.3013
1.07722
1.07779
1.08632
1.099
1.10763
1.1125
1.11277
1.10252
1.09781
1.10104
1.10892
1.12489
1.14372
1.15943
1.16905
1.17506
1.17897
1.17164
1.15147
1.14348
1.14578
1.15091
1.15955
1.18423
1.21425
1.22597
1.23045
1.23503
1.23308
1.21642
1.20524
1.20456
1.20883
1.21616
1.23087
1.25012
1.26949
1.28346
1.28913
1.28841
1.28609
1.28848
1.28914
1.28597
1.28884
1.29614
1.30291
1.30603
1.31185
1.32819
1.34492
1.35506
1.36456
1.37512
1.38429
1.38899
1.37921
1.37042
1.36682
1.3649
1.36629
1.37438
1.40477
1.44153
1.46297
1.47723
1.48771
1.49511
1.48535
1.45834
1.44292
1.43956
1.44148
1.4493
1.46504
1.50931
1.55839
1.58753
1.60506
1.61853
1.62452
1.61054
1.57947
1.55801
1.55496
1.56331
1.57723
1.60654
1.65073
1.68646
1.71081
1.72817
1.73562
1.733
1.71871
1.68551
1.63211
3.31846
14.3654
1.09264
1.11212
1.11693
1.11812
1.11626
1.10437
1.08305
1.07336
1.07553
1.08348
1.10319
1.14007
1.17324
1.1855
1.18791
1.18459
1.17394
1.14916
1.13104
1.13045
1.13543
1.14314
1.16422
1.20311
1.22715
1.23727
1.24069
1.2349
1.21977
1.21046
1.20652
1.20865
1.21751
1.23305
1.24403
1.25056
1.26337
1.27391
1.27801
1.27906
1.28559
1.29384
1.30108
1.3052
1.30439
1.30443
1.30202
1.29815
1.29701
1.3043
1.32848
1.35341
1.37219
1.38712
1.39705
1.40349
1.39823
1.37753
1.36069
1.35283
1.35467
1.36159
1.3787
1.42396
1.46424
1.48267
1.49285
1.50116
1.50479
1.48307
1.45152
1.43732
1.4372
1.44316
1.45222
1.4735
1.52527
1.5733
1.59866
1.61289
1.62321
1.62414
1.6078
1.57983
1.56257
1.56157
1.5695
1.58528
1.61847
1.66007
1.68943
1.7079
1.72018
1.72301
1.71996
1.69848
1.64599
3.25728
14.4305
1.1061
1.14147
1.14652
1.14405
1.12601
1.0909
1.06557
1.06084
1.06376
1.07008
1.08938
1.14572
1.1856
1.19714
1.20198
1.20048
1.17436
1.14119
1.13067
1.13144
1.13752
1.15599
1.18121
1.2045
1.22436
1.23177
1.22807
1.21786
1.21745
1.21925
1.21979
1.22551
1.23439
1.24185
1.24353
1.24117
1.23982
1.24785
1.26494
1.28055
1.29429
1.30857
1.31942
1.32516
1.3206
1.30709
1.29061
1.28173
1.28337
1.29007
1.31047
1.35174
1.38387
1.39981
1.40739
1.41229
1.40998
1.38419
1.35649
1.34812
1.35043
1.35675
1.36665
1.39979
1.45457
1.48407
1.49551
1.50241
1.50649
1.50456
1.47625
1.44776
1.4407
1.44567
1.45635
1.46829
1.48812
1.53408
1.57402
1.59543
1.60848
1.61876
1.62158
1.61132
1.58913
1.57274
1.57004
1.5764
1.59005
1.62186
1.66033
1.68623
1.70219
1.71031
1.71321
1.70632
1.67133
3.21375
14.4874
1.10899
1.15015
1.15565
1.15779
1.13999
1.09109
1.06639
1.06362
1.06697
1.07891
1.10872
1.15031
1.18346
1.19581
1.19573
1.18026
1.16194
1.14966
1.14297
1.14758
1.16192
1.17661
1.18279
1.18765
1.19356
1.2033
1.21147
1.21785
1.22618
1.23833
1.24876
1.25248
1.2499
1.24283
1.22994
1.21969
1.21964
1.22736
1.25235
1.28744
1.31364
1.32758
1.3345
1.33823
1.33273
1.3041
1.2778
1.27194
1.27582
1.28255
1.29802
1.34603
1.38837
1.40393
1.41153
1.41659
1.41283
1.39352
1.36422
1.35178
1.35392
1.36321
1.37632
1.38927
1.42071
1.46387
1.48458
1.49302
1.49796
1.50433
1.50639
1.48508
1.4637
1.45811
1.46031
1.46505
1.47228
1.48821
1.5302
1.57054
1.59404
1.60922
1.62176
1.62899
1.62376
1.60006
1.57744
1.56962
1.57312
1.58533
1.61836
1.65789
1.68375
1.69789
1.7038
1.70416
1.69302
3.19716
14.5312
1.10843
1.14791
1.15345
1.14446
1.11854
1.09572
1.08109
1.0805
1.09059
1.10994
1.12451
1.13657
1.15199
1.16189
1.16345
1.16312
1.16668
1.1708
1.17745
1.18064
1.18223
1.18364
1.17611
1.1624
1.16056
1.17207
1.1988
1.22583
1.24904
1.26384
1.27094
1.27323
1.26284
1.23467
1.20993
1.20369
1.20654
1.21314
1.23679
1.28961
1.32488
1.33758
1.34376
1.34631
1.33539
1.3027
1.27887
1.27389
1.27759
1.28626
1.30328
1.33232
1.37563
1.39851
1.40577
1.40407
1.40166
1.40237
1.39159
1.37539
1.37138
1.37536
1.38019
1.38334
1.38892
1.41456
1.45653
1.4811
1.49521
1.5088
1.51937
1.5228
1.50211
1.47667
1.46403
1.46019
1.46115
1.4684
1.48716
1.53123
1.5734
1.60068
1.61952
1.6323
1.63742
1.6287
1.59948
1.57195
1.56275
1.5666
1.57913
1.61613
1.65876
1.68296
1.69304
1.69466
1.70377
3.21453
14.5703
1.09531
1.11863
1.12023
1.11381
1.1118
1.1109
1.11241
1.11729
1.12353
1.12826
1.12986
1.11867
1.11194
1.12053
1.14041
1.16096
1.18257
1.20236
1.21062
1.2104
1.19967
1.17821
1.15397
1.14396
1.14549
1.15166
1.17739
1.23129
1.26655
1.27939
1.28544
1.287
1.27356
1.23171
1.20633
1.20361
1.20729
1.214
1.23394
1.28483
1.32634
1.34003
1.34365
1.33609
1.3243
1.31199
1.29361
1.28759
1.29296
1.30572
1.31523
1.32043
1.33698
1.3685
1.38667
1.39471
1.40241
1.41147
1.42018
1.4145
1.39522
1.3839
1.37806
1.37182
1.37181
1.37958
1.4107
1.46278
1.49805
1.51474
1.52573
1.53477
1.53607
1.51124
1.47769
1.45984
1.45822
1.46412
1.47291
1.49444
1.54303
1.58683
1.61037
1.62395
1.63383
1.63584
1.62409
1.59289
1.56609
1.55732
1.56079
1.57578
1.6184
1.6594
1.67855
1.68204
1.70278
3.26143
14.6164
1.08232
1.08071
1.08664
1.09529
1.11042
1.13207
1.14715
1.15235
1.15041
1.13942
1.11564
1.09656
1.09427
1.09844
1.11551
1.1587
1.20368
1.22061
1.22678
1.22917
1.21746
1.17491
1.14491
1.1417
1.14512
1.1517
1.17259
1.23051
1.27108
1.28308
1.28815
1.28314
1.25894
1.23255
1.21492
1.21165
1.21741
1.23366
1.25392
1.27526
1.30432
1.31977
1.32165
1.31775
1.32015
1.32549
1.32528
1.31729
1.31446
1.31617
1.3149
1.30907
1.30823
1.32321
1.36106
1.39194
1.4117
1.42822
1.43842
1.44304
1.42728
1.39572
1.37279
1.36367
1.36428
1.3701
1.38034
1.42089
1.48169
1.51468
1.52781
1.53639
1.54206
1.5377
1.50767
1.47541
1.46277
1.46418
1.47159
1.48316
1.51006
1.55761
1.59165
1.60884
1.61984
1.62846
1.6307
1.61876
1.58923
1.56407
1.55577
1.55801
1.57463
1.61782
1.65256
1.66461
1.68992
3.32991
14.6719
1.07257
1.06514
1.06938
1.08573
1.12123
1.151
1.16128
1.16592
1.16431
1.13839
1.1019
1.09279
1.09473
1.09952
1.11704
1.17071
1.21074
1.22347
1.22969
1.22961
1.20481
1.16781
1.1501
1.14713
1.15052
1.16343
1.19485
1.23353
1.26328
1.27495
1.27318
1.25896
1.25007
1.24284
1.2363
1.23765
1.24658
1.25796
1.26323
1.26349
1.26472
1.28254
1.30399
1.31626
1.32771
1.34135
1.35228
1.35348
1.33899
1.32036
1.30277
1.2924
1.2931
1.29986
1.32479
1.37816
1.42019
1.4388
1.44815
1.45399
1.45216
1.42113
1.38002
1.36465
1.36501
1.37109
1.38167
1.39867
1.43984
1.49167
1.51722
1.5276
1.53232
1.53359
1.53141
1.51172
1.48739
1.47712
1.47876
1.48535
1.49388
1.51574
1.5582
1.58835
1.60405
1.61507
1.62516
1.6315
1.62293
1.59252
1.56279
1.55151
1.552
1.567
1.60801
1.63575
1.66737
3.41011
14.7294
1.06466
1.06503
1.07473
1.10499
1.13981
1.15598
1.16345
1.16749
1.15399
1.12025
1.10278
1.09865
1.10018
1.10651
1.13849
1.18508
1.20942
1.22006
1.22292
1.20694
1.18405
1.16989
1.16196
1.16331
1.17504
1.19509
1.20868
1.22257
1.23609
1.24261
1.24223
1.24247
1.24815
1.25867
1.26866
1.27122
1.26903
1.26669
1.25622
1.24207
1.23946
1.24872
1.28202
1.31937
1.34512
1.36196
1.37023
1.37341
1.36045
1.3236
1.29394
1.2864
1.28954
1.29538
1.3068
1.35125
1.41436
1.44057
1.44913
1.45021
1.44422
1.43302
1.4079
1.38359
1.3785
1.38471
1.39581
1.40415
1.4113
1.43637
1.47981
1.50653
1.51922
1.52815
1.53725
1.54276
1.52968
1.50458
1.48771
1.48153
1.48187
1.48911
1.51333
1.55612
1.58663
1.6056
1.62171
1.63388
1.63954
1.62786
1.59091
1.55459
1.53968
1.53889
1.55439
1.59377
1.63649
3.48682
14.7774
1.06439
1.07073
1.09698
1.13467
1.15031
1.15717
1.16159
1.15176
1.12157
1.10602
1.10358
1.10585
1.11227
1.13535
1.16744
1.1914
1.20357
1.20603
1.19338
1.18028
1.17749
1.17799
1.18186
1.19284
1.20764
1.2153
1.21494
1.20431
1.20045
1.21009
1.22803
1.24468
1.26331
1.28274
1.29386
1.2976
1.28768
1.2619
1.23535
1.2262
1.22867
1.23513
1.25791
1.31468
1.35728
1.37264
1.37969
1.38256
1.37284
1.33472
1.29877
1.28962
1.2927
1.3033
1.32201
1.34359
1.3788
1.41509
1.42957
1.43341
1.43551
1.43989
1.44195
1.42912
1.41118
1.40381
1.40256
1.3995
1.39719
1.40281
1.42648
1.47339
1.50846
1.52915
1.54328
1.55331
1.55781
1.54312
1.50933
1.48284
1.4749
1.47724
1.4846
1.51178
1.56006
1.59612
1.61599
1.62838
1.63651
1.63807
1.62223
1.58325
1.54406
1.52603
1.52517
1.54206
1.59608
3.53812
14.8133
1.06216
1.08421
1.12822
1.15386
1.16148
1.16408
1.1523
1.12329
1.10716
1.10383
1.10687
1.11755
1.14203
1.16097
1.1727
1.18283
1.18586
1.17853
1.17233
1.17555
1.18384
1.19722
1.21162
1.21966
1.22289
1.21881
1.19853
1.18211
1.18051
1.18776
1.21537
1.25735
1.28933
1.30326
1.30848
1.30972
1.29723
1.2524
1.22531
1.2224
1.22644
1.23275
1.25122
1.3045
1.35633
1.37394
1.37859
1.37106
1.35753
1.34419
1.32371
1.31155
1.31402
1.3241
1.33324
1.33809
1.34173
1.35911
1.39376
1.41855
1.43329
1.44788
1.46112
1.46761
1.45608
1.42911
1.40593
1.39258
1.38787
1.39024
1.39755
1.4252
1.48061
1.52252
1.5419
1.55188
1.55873
1.55982
1.54184
1.50355
1.47819
1.47227
1.4759
1.48538
1.5187
1.56986
1.60286
1.61845
1.62725
1.63236
1.63068
1.61417
1.5764
1.53713
1.51604
1.50908
1.54704
3.54485
14.8481
1.0575
1.09538
1.13659
1.1564
1.16193
1.15333
1.13179
1.11947
1.11272
1.11392
1.12525
1.14708
1.1606
1.16517
1.16393
1.15559
1.15298
1.1597
1.17076
1.18667
1.20836
1.22567
1.2338
1.23619
1.22759
1.19881
1.17545
1.17094
1.17439
1.18063
1.20423
1.26717
1.30342
1.31391
1.31859
1.31484
1.28507
1.24982
1.22958
1.22628
1.23169
1.24988
1.27276
1.29452
1.32652
1.34925
1.35481
1.35365
1.35452
1.358
1.36037
1.3536
1.34361
1.33918
1.33596
1.32646
1.3195
1.32331
1.34443
1.3906
1.43274
1.45792
1.47193
1.48035
1.48374
1.46635
1.42582
1.39523
1.38647
1.38917
1.39573
1.40673
1.44155
1.49801
1.53013
1.54288
1.55011
1.55369
1.55299
1.53661
1.50452
1.48429
1.48055
1.48481
1.49317
1.52207
1.56895
1.59814
1.61165
1.61975
1.62536
1.62506
1.61086
1.57487
1.53514
1.50445
1.49825
3.50211
14.8888
1.07681
1.10355
1.12503
1.13793
1.13878
1.13211
1.12944
1.13109
1.13481
1.14433
1.1544
1.16047
1.16344
1.15542
1.13577
1.12794
1.13164
1.14606
1.17724
1.21488
1.23799
1.24654
1.2491
1.24451
1.21657
1.17777
1.1648
1.16599
1.17049
1.18084
1.21838
1.2714
1.30372
1.31441
1.31341
1.29573
1.27758
1.26168
1.24907
1.24875
1.25867
1.27241
1.27904
1.28192
1.28277
1.29811
1.32538
1.34473
1.36004
1.37847
1.39096
1.39352
1.37886
1.35434
1.3308
1.31346
1.30766
1.31078
1.31791
1.34653
1.41123
1.45759
1.47379
1.48122
1.48478
1.4802
1.4561
1.4178
1.39783
1.39688
1.40497
1.41674
1.42855
1.45492
1.49754
1.52315
1.53463
1.54219
1.54964
1.55606
1.54742
1.51805
1.49408
1.48369
1.48215
1.48684
1.5126
1.55896
1.5908
1.60743
1.61779
1.624
1.62451
1.61137
1.57557
1.5233
1.47547
3.4206
14.934
1.0911
1.0979
1.09694
1.09791
1.10948
1.12437
1.13926
1.15675
1.16945
1.1747
1.17461
1.16937
1.15262
1.12715
1.11426
1.11435
1.11873
1.13196
1.17877
1.23162
1.25263
1.2599
1.26234
1.2487
1.20645
1.17704
1.16759
1.16923
1.1798
1.2048
1.2294
1.25588
1.28055
1.28987
1.28749
1.2826
1.28341
1.28514
1.28746
1.28623
1.28411
1.28303
1.27604
1.26086
1.25537
1.26146
1.28675
1.33114
1.37216
1.39803
1.41029
1.41608
1.4115
1.37856
1.33539
1.31235
1.30793
1.31139
1.3189
1.33529
1.37356
1.43055
1.46071
1.47
1.46988
1.46666
1.46658
1.45829
1.43699
1.4228
1.41917
1.41919
1.42017
1.42604
1.44819
1.49046
1.51943
1.53577
1.55033
1.56282
1.56989
1.56159
1.52661
1.49172
1.47546
1.47377
1.47751
1.5023
1.55198
1.5902
1.61096
1.62108
1.62434
1.62114
1.60723
1.56255
1.48861
3.32204
14.9907
1.09694
1.08049
1.07101
1.07267
1.08185
1.11014
1.14999
1.18081
1.19517
1.1993
1.19544
1.17536
1.13972
1.11434
1.10906
1.11133
1.11568
1.12948
1.17742
1.23273
1.2547
1.26023
1.25277
1.23027
1.20937
1.19087
1.18546
1.19198
1.20872
1.2215
1.22603
1.22876
1.2327
1.24912
1.26808
1.28189
1.29913
1.3162
1.32422
1.32146
1.30688
1.28507
1.25912
1.2429
1.24114
1.24535
1.25596
1.30061
1.3693
1.40268
1.41353
1.41901
1.41791
1.40074
1.35972
1.32727
1.31895
1.32382
1.33793
1.352
1.35982
1.37722
1.41393
1.44103
1.45342
1.46085
1.47041
1.48102
1.48315
1.46425
1.43865
1.42089
1.4126
1.41092
1.41679
1.44132
1.48986
1.52759
1.54939
1.56258
1.57146
1.5762
1.56514
1.52404
1.48439
1.46822
1.46662
1.47091
1.49665
1.55315
1.59567
1.61283
1.61731
1.61655
1.61237
1.59091
1.53837
3.25216
15.0633
1.09724
1.0686
1.06407
1.06652
1.07123
1.08727
1.14285
1.1883
1.20202
1.20757
1.20933
1.18822
1.14035
1.11617
1.11243
1.11627
1.13194
1.15551
1.17812
1.2091
1.23064
1.23457
1.2294
1.22456
1.22388
1.22311
1.22293
1.2241
1.22655
1.22739
1.21572
1.20072
1.19962
1.21142
1.24362
1.28616
1.32122
1.34103
1.34881
1.35001
1.33201
1.29002
1.2553
1.24197
1.24212
1.24625
1.2575
1.28386
1.33728
1.38589
1.40326
1.40546
1.39693
1.39042
1.38678
1.37171
1.35661
1.35245
1.35483
1.35704
1.35138
1.3478
1.35809
1.39568
1.43668
1.463
1.48068
1.49426
1.50247
1.50195
1.47508
1.43534
1.41058
1.40467
1.40768
1.41419
1.44371
1.50207
1.542
1.55936
1.56802
1.57377
1.57344
1.55778
1.51768
1.48167
1.46721
1.46497
1.46978
1.49741
1.55302
1.59111
1.60392
1.60544
1.60488
1.59665
1.58511
3.23935
15.1375
1.10655
1.07093
1.06714
1.06955
1.07579
1.0961
1.13978
1.18266
1.19922
1.20256
1.19438
1.17669
1.15434
1.13575
1.13399
1.14294
1.15902
1.16752
1.17144
1.1725
1.18227
1.20403
1.22022
1.23281
1.24743
1.25828
1.26026
1.25252
1.239
1.21824
1.19443
1.18371
1.18477
1.18994
1.21116
1.27322
1.3272
1.3465
1.35375
1.35795
1.34927
1.31147
1.26715
1.25049
1.25094
1.26233
1.28273
1.29516
1.30374
1.32828
1.36026
1.37776
1.38532
1.39259
1.40418
1.41368
1.40927
1.38985
1.3703
1.35253
1.33705
1.33099
1.33441
1.34731
1.39448
1.45244
1.48496
1.49824
1.50546
1.5087
1.5021
1.46616
1.42367
1.40668
1.40657
1.41326
1.42524
1.45854
1.51273
1.54442
1.55569
1.56024
1.56257
1.56524
1.55871
1.52621
1.49042
1.47215
1.46723
1.4674
1.48958
1.54284
1.5795
1.59113
1.59397
1.58908
1.61118
3.27916
15.2024
1.10588
1.08298
1.07919
1.08352
1.09445
1.10768
1.12589
1.15358
1.17292
1.1782
1.17819
1.178
1.17637
1.17177
1.16749
1.16812
1.17139
1.17125
1.15598
1.14584
1.14884
1.16892
1.20959
1.247
1.27214
1.28358
1.28709
1.27952
1.25053
1.21244
1.18894
1.18321
1.18572
1.19079
1.20568
1.24769
1.31126
1.34144
1.34907
1.34237
1.32759
1.31791
1.3026
1.28642
1.28313
1.28849
1.2945
1.2967
1.28864
1.28407
1.29891
1.33972
1.37861
1.40469
1.42455
1.43669
1.44241
1.43317
1.39764
1.35661
1.33398
1.32956
1.33348
1.34007
1.35988
1.42117
1.47525
1.49366
1.5
1.49807
1.49283
1.48489
1.46166
1.43448
1.42358
1.42376
1.42702
1.4322
1.45501
1.50196
1.53312
1.54699
1.55657
1.56586
1.57213
1.56983
1.53791
1.4933
1.46557
1.45735
1.45724
1.47745
1.53056
1.56864
1.58401
1.58163
1.61651
3.35058
15.2585
1.1099
1.09968
1.10053
1.10677
1.11331
1.11628
1.11732
1.11999
1.13898
1.16367
1.17768
1.18826
1.19796
1.20327
1.19968
1.18938
1.17684
1.15685
1.1402
1.13642
1.13947
1.14665
1.18203
1.24685
1.28082
1.29165
1.29727
1.29758
1.27256
1.22281
1.19419
1.18911
1.19348
1.21049
1.23141
1.24599
1.26665
1.29784
1.31541
1.32038
1.32394
1.32949
1.33701
1.33871
1.32717
1.31275
1.29975
1.28327
1.26768
1.26357
1.26778
1.28611
1.34433
1.40482
1.43211
1.4423
1.44809
1.44771
1.42805
1.3814
1.34583
1.33682
1.34069
1.35384
1.37174
1.39242
1.43206
1.46432
1.47655
1.48108
1.48583
1.49171
1.49656
1.48521
1.45772
1.43667
1.42579
1.42169
1.42345
1.44137
1.4897
1.53145
1.55325
1.56492
1.57394
1.58003
1.57776
1.54243
1.48974
1.45662
1.44697
1.44697
1.4672
1.52352
1.56383
1.57257
1.61309
3.43188
15.3124
1.1201
1.11634
1.11841
1.1215
1.12336
1.11886
1.10815
1.10665
1.11277
1.14033
1.17784
1.20225
1.21623
1.22177
1.2215
1.2071
1.17673
1.1485
1.13699
1.13744
1.14091
1.14705
1.16804
1.22738
1.27728
1.29137
1.29278
1.27944
1.26362
1.24558
1.22348
1.21671
1.22278
1.23433
1.24093
1.24186
1.23449
1.23655
1.26341
1.30098
1.32861
1.34945
1.36632
1.3739
1.37049
1.34593
1.30792
1.276
1.26255
1.26238
1.26683
1.27504
1.30489
1.37692
1.42522
1.43897
1.44088
1.42944
1.4186
1.40778
1.38581
1.36953
1.36689
1.371
1.37524
1.3763
1.38123
1.40955
1.44677
1.46947
1.48471
1.5016
1.51426
1.51916
1.50465
1.46679
1.43196
1.41479
1.41183
1.414
1.43177
1.48556
1.53675
1.56195
1.5724
1.57775
1.58017
1.57441
1.53574
1.48159
1.4487
1.43926
1.44066
1.46667
1.52189
1.54914
1.59639
3.51563
15.3608
1.13603
1.13326
1.12841
1.12539
1.11942
1.10954
1.10439
1.10537
1.10879
1.12094
1.16597
1.20885
1.22535
1.23196
1.23547
1.22745
1.1885
1.15231
1.14116
1.14231
1.15011
1.16709
1.18314
1.20247
1.23741
1.26144
1.26673
1.26735
1.26973
1.2701
1.26868
1.26133
1.25413
1.24964
1.2418
1.22265
1.21038
1.21094
1.22012
1.25669
1.31831
1.36141
1.37961
1.38764
1.39119
1.38058
1.33597
1.28731
1.26885
1.26833
1.27676
1.29595
1.31486
1.33685
1.37633
1.40351
1.41162
1.41444
1.41904
1.42453
1.43008
1.42217
1.4026
1.38492
1.37064
1.35853
1.35546
1.36331
1.39645
1.44685
1.4867
1.50985
1.52096
1.527
1.52837
1.50852
1.45846
1.42055
1.40854
1.4092
1.41415
1.43455
1.49554
1.54555
1.56314
1.56844
1.56964
1.56835
1.56229
1.53304
1.48467
1.45036
1.43973
1.43865
1.4636
1.50394
1.56175
3.59544
15.3992
1.15074
1.15217
1.13913
1.12631
1.11347
1.10326
1.10156
1.10436
1.1091
1.11651
1.14629
1.20168
1.22582
1.23193
1.23002
1.22041
1.20361
1.17586
1.1618
1.16296
1.17171
1.18123
1.18545
1.18652
1.18729
1.20745
1.24107
1.26476
1.2807
1.29665
1.30568
1.30447
1.28847
1.2629
1.2315
1.20853
1.20223
1.2047
1.20963
1.22351
1.281
1.35416
1.38029
1.38693
1.38245
1.36644
1.34985
1.32522
1.30326
1.29813
1.30378
1.31136
1.3159
1.31546
1.31794
1.34418
1.38211
1.40857
1.42715
1.44492
1.4559
1.45862
1.4434
1.40724
1.37002
1.35026
1.34722
1.3509
1.35978
1.40347
1.47222
1.50707
1.51834
1.52351
1.52315
1.51632
1.49644
1.45602
1.42745
1.42007
1.42327
1.4308
1.44453
1.48918
1.53115
1.54783
1.55405
1.5593
1.56535
1.56644
1.54206
1.49108
1.44964
1.43227
1.42985
1.44285
1.51221
3.65733
15.4297
1.16257
1.16987
1.16032
1.13595
1.11431
1.10468
1.10414
1.10803
1.11419
1.12121
1.13277
1.168
1.2056
1.21823
1.2213
1.22383
1.22188
1.21146
1.1951
1.18611
1.18495
1.18571
1.17924
1.16792
1.16627
1.17249
1.19831
1.24754
1.29088
1.31494
1.32558
1.32978
1.32508
1.2899
1.2374
1.21103
1.20572
1.20879
1.22057
1.24133
1.26495
1.30518
1.34536
1.35935
1.36052
1.36167
1.36342
1.36428
1.35674
1.34154
1.3291
1.31927
1.30605
1.2933
1.29159
1.29902
1.33111
1.38756
1.43278
1.45463
1.46393
1.46923
1.46762
1.44078
1.38877
1.35676
1.3498
1.35376
1.36616
1.38681
1.42667
1.47582
1.49843
1.50458
1.50461
1.50766
1.51288
1.50843
1.47849
1.4486
1.43309
1.42525
1.42209
1.42987
1.46994
1.51617
1.54055
1.55548
1.56786
1.57357
1.57199
1.54694
1.49376
1.44515
1.4193
1.40414
1.45186
3.67721
15.4554
1.16638
1.17817
1.17794
1.16024
1.1289
1.11196
1.10982
1.11244
1.11638
1.12097
1.12591
1.13406
1.16413
1.20116
1.22042
1.22985
1.23711
1.24054
1.23279
1.21342
1.19669
1.18234
1.16764
1.15921
1.15958
1.1631
1.17007
1.20782
1.28072
1.31728
1.32739
1.33019
1.32098
1.29941
1.26648
1.23692
1.22804
1.23214
1.2431
1.25152
1.2559
1.259
1.27744
1.31574
1.34573
1.36454
1.37987
1.3918
1.39632
1.3873
1.36165
1.32902
1.30052
1.28827
1.28834
1.2926
1.30158
1.34443
1.41683
1.45161
1.46151
1.46282
1.45497
1.44487
1.42536
1.39386
1.37641
1.37456
1.37865
1.38264
1.38723
1.41046
1.45403
1.48173
1.49532
1.50892
1.52341
1.53156
1.52855
1.49566
1.4502
1.42045
1.41152
1.41076
1.41692
1.45655
1.51401
1.54897
1.56439
1.57098
1.57193
1.56559
1.53822
1.48654
1.4378
1.3983
1.40001
3.63723
15.4902
1.16114
1.17777
1.18065
1.1824
1.16376
1.13209
1.11822
1.11672
1.11898
1.12188
1.12189
1.12262
1.12858
1.15875
1.2046
1.23287
1.24673
1.25448
1.25777
1.2491
1.22016
1.18902
1.16997
1.16279
1.1633
1.16786
1.17731
1.19401
1.23483
1.28751
1.30911
1.3137
1.31326
1.31087
1.30314
1.28606
1.26795
1.25896
1.25662
1.25364
1.24221
1.23542
1.23862
1.25692
1.30633
1.35836
1.38838
1.40096
1.40769
1.4108
1.39974
1.35782
1.31378
1.29505
1.29368
1.3004
1.31491
1.33321
1.36819
1.41449
1.43638
1.44228
1.44544
1.44944
1.45263
1.44666
1.42301
1.40007
1.38566
1.375
1.36773
1.36958
1.38954
1.44075
1.48665
1.51246
1.52757
1.53728
1.54268
1.53757
1.49604
1.44085
1.41136
1.40391
1.40477
1.41212
1.45886
1.52276
1.55355
1.56283
1.56465
1.55958
1.54896
1.52495
1.48216
1.42511
1.39333
3.54017
15.5436
1.1426
1.17567
1.18102
1.18387
1.18433
1.16899
1.14221
1.12904
1.12561
1.12344
1.11973
1.1201
1.12321
1.12926
1.15951
1.21458
1.24601
1.25708
1.26243
1.26491
1.25454
1.21914
1.18634
1.17392
1.1737
1.17827
1.18563
1.19161
1.19847
1.22487
1.27015
1.2981
1.31054
1.31881
1.32785
1.32992
1.31633
1.29211
1.27
1.25059
1.23663
1.23201
1.23413
1.23904
1.25655
1.31837
1.37815
1.39929
1.40542
1.40338
1.39499
1.38359
1.35591
1.32845
1.31831
1.31953
1.32416
1.32779
1.33113
1.35059
1.39324
1.42508
1.44269
1.4564
1.4702
1.47754
1.47253
1.44278
1.40393
1.37369
1.36096
1.36021
1.36381
1.38276
1.44374
1.50122
1.52656
1.53577
1.54064
1.54042
1.52806
1.48523
1.43595
1.41244
1.40866
1.41331
1.42383
1.46368
1.51677
1.54171
1.54772
1.54796
1.54637
1.54002
1.52367
1.47694
1.41896
3.41881
15.615
1.10603
1.15721
1.17659
1.18518
1.19062
1.19349
1.18187
1.15447
1.13528
1.12568
1.1224
1.12275
1.12503
1.12812
1.13327
1.16408
1.22256
1.25146
1.25997
1.26439
1.26841
1.26107
1.22523
1.19609
1.18676
1.18683
1.1895
1.18992
1.18741
1.19024
1.20865
1.25753
1.30156
1.3251
1.33641
1.34339
1.34694
1.33645
1.30234
1.26524
1.24335
1.23728
1.24007
1.24823
1.25882
1.27492
1.32282
1.36894
1.38574
1.39056
1.39483
1.39873
1.39684
1.37831
1.3526
1.33551
1.3256