/*--------------------------------*- C++ -*----------------------------------*\
  =========                 |
  \\      /  F ield         | OpenFOAM: The Open Source CFD Toolbox
   \\    /   O peration     | Website:  https://openfoam.org
    \\  /    A nd           | Version:  12
     \\/     M anipulation  |
\*---------------------------------------------------------------------------*/
FoamFile
{
    format      ascii;
    class       volScalarField;
    location    "15.7";
    object      T;
}
// * * * * * * * * * * * * * * * * * * * * * * * * * * * * * * * * * * * * * //

dimensions      [0 0 0 1 0 0 0];

internalField   nonuniform List<scalar> 
9801
(
0.818743
0.818979
0.819823
0.821419
0.825216
0.83082
0.833879
0.834994
0.835398
0.834853
0.834574
0.834834
0.83547
0.836279
0.83746
0.840081
0.845309
0.849204
0.8507
0.851365
0.851203
0.851169
0.851631
0.852322
0.853143
0.85415
0.855827
0.859768
0.864211
0.866556
0.867714
0.868342
0.86837
0.868671
0.86918
0.869924
0.870906
0.872048
0.874223
0.879306
0.883484
0.88544
0.886463
0.886886
0.886188
0.886087
0.886611
0.887465
0.888611
0.89012
0.894401
0.900721
0.904028
0.90545
0.906151
0.904894
0.903721
0.903808
0.904597
0.905797
0.907529
0.911507
0.918867
0.923545
0.92549
0.926659
0.925683
0.922506
0.921738
0.922595
0.924085
0.926273
0.931609
0.940546
0.946165
0.948752
0.950344
0.948994
0.944245
0.94193
0.942685
0.945179
0.949303
0.960347
0.970902
0.976143
0.979136
0.981336
0.979528
0.972318
0.968565
0.970523
0.976339
0.993342
1.01453
1.03107
1.03888
1.13534
1.53943
0.822624
0.823247
0.824176
0.825835
0.829539
0.833203
0.835849
0.83765
0.838856
0.83936
0.838514
0.838375
0.839054
0.83999
0.841088
0.843143
0.84761
0.851441
0.853588
0.854968
0.855858
0.855148
0.85445
0.85502
0.855969
0.857066
0.858346
0.861414
0.866573
0.86965
0.871202
0.872333
0.872647
0.871304
0.871164
0.872044
0.873237
0.874494
0.876307
0.881199
0.885972
0.888266
0.889622
0.890576
0.88931
0.887798
0.888242
0.889424
0.890823
0.892388
0.896431
0.902647
0.9062
0.907987
0.909211
0.908523
0.905744
0.905296
0.906379
0.907863
0.909606
0.913458
0.920889
0.925625
0.927793
0.929255
0.929157
0.925325
0.923734
0.924776
0.92655
0.92883
0.93419
0.943048
0.948495
0.95117
0.953
0.953501
0.948344
0.944756
0.946139
0.94863
0.952721
0.962262
0.972164
0.977903
0.981743
0.985308
0.985644
0.97852
0.973865
0.976561
0.982295
0.993405
1.01046
1.02607
1.03494
1.13672
1.561
0.826585
0.827647
0.828767
0.830642
0.834331
0.837439
0.839443
0.841076
0.842346
0.843201
0.842997
0.842839
0.843424
0.844395
0.845561
0.847437
0.851536
0.855181
0.857329
0.858836
0.859977
0.860018
0.8592
0.859363
0.860079
0.861105
0.862311
0.865004
0.870151
0.873599
0.875445
0.876831
0.877597
0.876434
0.875681
0.876194
0.877203
0.878429
0.880129
0.884769
0.889809
0.892414
0.894035
0.895268
0.894464
0.892629
0.892797
0.89382
0.895197
0.896772
0.900534
0.906701
0.910423
0.912429
0.913942
0.91393
0.911241
0.910236
0.911175
0.912792
0.914671
0.918281
0.92547
0.930357
0.932774
0.934532
0.935324
0.932281
0.930013
0.930721
0.932564
0.934889
0.939575
0.947988
0.954028
0.957416
0.959995
0.961755
0.957902
0.953251
0.953811
0.956649
0.960246
0.967695
0.979276
0.987489
0.992239
0.996227
0.997992
0.992768
0.988166
0.989605
0.995553
1.00411
1.01995
1.03752
1.0481
1.15605
1.58458
0.831993
0.83339
0.834547
0.836677
0.840186
0.842946
0.844758
0.846202
0.847415
0.848488
0.849077
0.848758
0.84913
0.850076
0.851287
0.853077
0.857126
0.860915
0.86307
0.864518
0.865656
0.866481
0.865664
0.86505
0.865604
0.866708
0.868103
0.870848
0.876148
0.879906
0.88186
0.883227
0.884234
0.883355
0.881778
0.881944
0.882935
0.884339
0.886347
0.89111
0.896471
0.899311
0.900997
0.902317
0.901947
0.899809
0.899455
0.900359
0.901769
0.903536
0.907357
0.913745
0.91783
0.919997
0.92162
0.922281
0.919809
0.918162
0.918932
0.920583
0.922575
0.926037
0.933176
0.938731
0.941573
0.943593
0.945155
0.943101
0.939667
0.939735
0.941669
0.944184
0.948106
0.956494
0.96386
0.967917
0.970836
0.973232
0.9717
0.966313
0.964815
0.967487
0.971262
0.9769
0.988016
0.998369
1.00443
1.00893
1.01272
1.01089
1.00599
1.00447
1.00878
1.01623
1.02795
1.04388
1.05329
1.17769
1.60645
0.838011
0.839566
0.840744
0.84317
0.846726
0.849317
0.851107
0.852503
0.853661
0.85478
0.855481
0.855142
0.855577
0.856584
0.857824
0.85971
0.863848
0.867588
0.869802
0.871264
0.872394
0.873392
0.872736
0.871929
0.872575
0.873763
0.875211
0.877999
0.883328
0.887154
0.889154
0.89046
0.891456
0.890969
0.889361
0.889564
0.890716
0.892179
0.894135
0.89874
0.904208
0.907232
0.908976
0.9103
0.910584
0.908554
0.90786
0.908807
0.910274
0.912002
0.915483
0.921781
0.926254
0.928686
0.930453
0.931757
0.930183
0.927679
0.927962
0.92958
0.931561
0.934487
0.941242
0.947712
0.951191
0.953516
0.955557
0.955488
0.95156
0.949658
0.951089
0.953609
0.956855
0.964123
0.973166
0.978468
0.981705
0.984554
0.985783
0.980934
0.976518
0.977113
0.980907
0.985652
0.994508
1.00635
1.01473
1.02025
1.02495
1.02666
1.02243
1.01891
1.01869
1.02356
1.03201
1.04515
1.05306
1.18989
1.61919
0.844162
0.84579
0.847387
0.850416
0.854148
0.856407
0.857875
0.859155
0.860352
0.861574
0.86184
0.861756
0.862512
0.863623
0.864973
0.8674
0.871517
0.874613
0.87656
0.878077
0.879397
0.880482
0.879865
0.87948
0.880223
0.881415
0.882874
0.885867
0.890941
0.894373
0.896325
0.897739
0.898972
0.898957
0.897509
0.897647
0.898743
0.90019
0.902054
0.906364
0.911739
0.914904
0.916835
0.918346
0.919378
0.917815
0.916123
0.916704
0.918127
0.919861
0.922859
0.929116
0.934279
0.937136
0.939151
0.940885
0.940913
0.937653
0.936121
0.937178
0.939086
0.94162
0.947673
0.955426
0.959883
0.962499
0.964717
0.966259
0.963326
0.959139
0.95874
0.960979
0.963889
0.969321
0.979158
0.986638
0.990696
0.993569
0.995877
0.993489
0.987523
0.985531
0.98767
0.991609
0.997499
1.00806
1.01819
1.02491
1.0301
1.03473
1.03463
1.03018
1.02693
1.02741
1.0312
1.04132
1.04995
1.19761
1.62631
0.849745
0.851156
0.852828
0.856308
0.860941
0.86352
0.864841
0.865989
0.867085
0.867898
0.867238
0.867093
0.868041
0.869439
0.871147
0.87437
0.87901
0.881756
0.883311
0.884579
0.885803
0.886455
0.885428
0.885245
0.886276
0.88776
0.889522
0.893027
0.898125
0.901176
0.902834
0.904158
0.905452
0.905786
0.904214
0.903921
0.905038
0.906588
0.908543
0.9128
0.91829
0.921563
0.923528
0.925128
0.926573
0.926168
0.923564
0.922923
0.9241
0.925857
0.928549
0.934659
0.940762
0.94398
0.946026
0.947791
0.948953
0.946403
0.943159
0.94295
0.944643
0.94691
0.951645
0.960128
0.966165
0.969209
0.971364
0.973273
0.972239
0.967179
0.965039
0.966236
0.968827
0.972394
0.980513
0.990251
0.995888
0.999309
1.0021
1.00311
0.998193
0.993291
0.992494
0.994965
0.998981
1.00634
1.01721
1.02603
1.03228
1.03724
1.04059
1.03912
1.0347
1.03083
1.03062
1.03555
1.0446
1.20142
1.63074
0.855219
0.855999
0.857116
0.859576
0.865272
0.869665
0.871455
0.872414
0.873353
0.873805
0.873114
0.872314
0.872671
0.873854
0.875404
0.878642
0.884301
0.888114
0.889636
0.890703
0.891792
0.892336
0.891422
0.890496
0.891039
0.892379
0.894049
0.897455
0.903065
0.906831
0.908592
0.909899
0.911234
0.912021
0.910553
0.909304
0.909771
0.911111
0.912854
0.916666
0.922827
0.926849
0.928915
0.930497
0.932007
0.932579
0.929919
0.928056
0.928519
0.930072
0.932246
0.937518
0.944766
0.949003
0.951131
0.952778
0.954166
0.953043
0.948997
0.947675
0.948743
0.950725
0.95376
0.961274
0.969341
0.973506
0.975879
0.977826
0.978569
0.974574
0.970489
0.970056
0.971975
0.974604
0.979294
0.989361
0.997931
1.00257
1.00585
1.00861
1.00787
1.00118
0.997132
0.997515
1.00035
1.00464
1.01302
1.02329
1.03095
1.03656
1.04121
1.04337
1.04178
1.0368
1.03154
1.0316
1.03605
1.20287
1.63317
0.860252
0.860573
0.861465
0.862804
0.867146
0.873189
0.876056
0.877555
0.878743
0.879412
0.878548
0.877259
0.877175
0.877944
0.879092
0.880955
0.886369
0.891847
0.89446
0.895928
0.897118
0.897814
0.896803
0.895384
0.895296
0.896101
0.897332
0.899381
0.904934
0.910373
0.913129
0.914754
0.916147
0.917246
0.916218
0.913965
0.91348
0.914324
0.915729
0.918348
0.924729
0.930262
0.93301
0.934681
0.936151
0.937135
0.935208
0.932342
0.932098
0.933287
0.934977
0.938358
0.945944
0.951764
0.954519
0.956269
0.957825
0.958105
0.954527
0.951826
0.952033
0.953612
0.95566
0.960126
0.969281
0.975701
0.97886
0.98098
0.982774
0.981584
0.976212
0.973467
0.973819
0.975975
0.978759
0.985423
0.996493
1.00397
1.008
1.01092
1.01303
1.01037
1.00385
1.00091
1.00165
1.00449
1.00929
1.01825
1.02757
1.03428
1.03935
1.04368
1.04483
1.04298
1.03703
1.03087
1.02746
1.20102
1.63472
0.864685
0.864592
0.86544
0.866467
0.868923
0.874584
0.878839
0.880877
0.882235
0.883322
0.88375
0.882097
0.881153
0.881652
0.882601
0.883755
0.886999
0.893351
0.897276
0.899208
0.900613
0.901807
0.901941
0.899888
0.898901
0.899309
0.900257
0.90152
0.905157
0.911803
0.915869
0.917942
0.919464
0.920774
0.920959
0.918199
0.916676
0.917075
0.918238
0.919879
0.924706
0.931723
0.935596
0.9376
0.939129
0.940437
0.939799
0.936396
0.935129
0.935773
0.93717
0.939099
0.944838
0.952599
0.956719
0.958912
0.960615
0.962034
0.960195
0.955994
0.954765
0.955432
0.957152
0.959543
0.966507
0.975867
0.980908
0.983687
0.985728
0.987097
0.98329
0.97754
0.976037
0.977093
0.979389
0.982491
0.990703
1.00174
1.0082
1.0118
1.01479
1.01678
1.01344
1.00671
1.00405
1.00512
1.00821
1.01361
1.02272
1.03086
1.03673
1.04158
1.04534
1.04568
1.04266
1.0346
1.0242
1.19538
1.63575
0.86862
0.868198
0.868823
0.869768
0.871402
0.875753
0.880148
0.882712
0.884379
0.885728
0.886887
0.886718
0.884832
0.884699
0.885518
0.886556
0.888433
0.893544
0.898409
0.90104
0.902778
0.904176
0.905282
0.904481
0.902125
0.901905
0.902734
0.903874
0.90596
0.911867
0.917251
0.919911
0.921594
0.922979
0.924011
0.922416
0.91964
0.919532
0.920501
0.921814
0.924446
0.931456
0.937005
0.939638
0.941314
0.942759
0.943509
0.940733
0.937851
0.937734
0.93876
0.940324
0.943354
0.951516
0.958193
0.961256
0.963099
0.964656
0.964896
0.960654
0.957045
0.956859
0.958231
0.960148
0.963603
0.972962
0.981457
0.985389
0.987699
0.989615
0.990198
0.984937
0.979732
0.978708
0.979717
0.98197
0.985883
0.995732
1.00639
1.01244
1.01597
1.01882
1.01971
1.0156
1.00953
1.00723
1.00839
1.01167
1.01771
1.02691
1.03418
1.03926
1.04364
1.04595
1.04562
1.03962
1.02702
1.18874
1.63674
0.870999
0.871208
0.871828
0.872757
0.874081
0.877738
0.881716
0.884225
0.886028
0.887524
0.888838
0.889619
0.888225
0.887426
0.887998
0.888986
0.890384
0.894372
0.899331
0.902322
0.904285
0.905841
0.907179
0.907761
0.905496
0.904299
0.904912
0.905987
0.907467
0.911877
0.917956
0.921288
0.923166
0.924644
0.925954
0.925945
0.922991
0.92176
0.922413
0.923592
0.925169
0.930182
0.937456
0.941253
0.943197
0.944682
0.945987
0.945115
0.94108
0.939589
0.940305
0.94172
0.943504
0.948828
0.957757
0.962743
0.965111
0.966745
0.968213
0.966625
0.961251
0.959019
0.959479
0.961061
0.96312
0.968194
0.978813
0.985969
0.989319
0.991793
0.993931
0.993119
0.986047
0.98134
0.981117
0.982774
0.985383
0.989894
1.00017
1.00997
1.01538
1.01873
1.02154
1.02248
1.01832
1.01225
1.00998
1.01124
1.01467
1.0214
1.0304
1.03684
1.0415
1.04506
1.04631
1.04356
1.03333
1.18351
1.63774
0.87274
0.872952
0.873687
0.874765
0.876468
0.880267
0.883665
0.885996
0.887772
0.889243
0.890504
0.891473
0.89067
0.889748
0.890224
0.891208
0.892477
0.895791
0.900837
0.903935
0.905883
0.907419
0.908751
0.909762
0.908527
0.906723
0.906946
0.907897
0.909134
0.912123
0.918365
0.922598
0.924739
0.926304
0.927673
0.928598
0.926568
0.924065
0.924077
0.925104
0.926498
0.929216
0.936523
0.942327
0.944925
0.946503
0.947878
0.948649
0.945602
0.942274
0.942106
0.943175
0.944656
0.947042
0.954738
0.962866
0.966491
0.968547
0.970224
0.971372
0.967949
0.962618
0.961186
0.961821
0.963511
0.965925
0.97312
0.984264
0.990377
0.993142
0.995057
0.996724
0.995158
0.988457
0.98466
0.984564
0.985897
0.988405
0.993572
1.00414
1.01324
1.01847
1.02183
1.02445
1.02477
1.02053
1.01461
1.01233
1.01355
1.01699
1.0243
1.03307
1.039
1.04319
1.04559
1.04538
1.03988
1.18151
1.63903
0.874336
0.874441
0.875147
0.876233
0.877766
0.881669
0.885782
0.887951
0.889582
0.890972
0.892194
0.893239
0.892689
0.89165
0.892013
0.892954
0.894141
0.896751
0.902082
0.905741
0.907658
0.909162
0.910455
0.911587
0.911166
0.909004
0.908676
0.909492
0.910702
0.912657
0.918291
0.923849
0.926521
0.928109
0.92945
0.930654
0.930036
0.926823
0.925849
0.926616
0.927876
0.929465
0.934442
0.942292
0.946367
0.948365
0.949867
0.951324
0.950731
0.946283
0.944085
0.944296
0.945451
0.947151
0.951226
0.960696
0.967429
0.970406
0.972401
0.974074
0.974215
0.968783
0.964052
0.963468
0.964588
0.966386
0.969054
0.977396
0.988023
0.993141
0.995968
0.998618
1.00061
0.998126
0.990741
0.986949
0.987096
0.988861
0.991612
0.99727
1.00772
1.01606
1.02094
1.02425
1.02671
1.02689
1.02245
1.01642
1.01405
1.01516
1.01846
1.02611
1.03464
1.0402
1.044
1.04536
1.04466
1.18364
1.64083
0.876056
0.875928
0.876472
0.877469
0.878687
0.881874
0.887187
0.890298
0.891724
0.892957
0.894102
0.895133
0.89478
0.893411
0.893441
0.894258
0.895416
0.897241
0.902392
0.907455
0.909781
0.911138
0.912335
0.91345
0.913626
0.911343
0.910328
0.91094
0.912089
0.913529
0.917455
0.924364
0.928285
0.930077
0.931392
0.932637
0.933238
0.930561
0.928126
0.928109
0.928987
0.930347
0.93283
0.940369
0.947309
0.950348
0.95211
0.953526
0.954455
0.951435
0.946745
0.945633
0.946484
0.948064
0.95004
0.956077
0.966046
0.971348
0.973681
0.975304
0.977013
0.976613
0.970689
0.966679
0.966091
0.966721
0.968405
0.97159
0.981516
0.992404
0.99751
0.999939
1.00197
1.00331
1.0003
0.993436
0.990016
0.990094
0.991704
0.994485
1.0009
1.01122
1.01876
1.02326
1.02644
1.02865
1.02874
1.02409
1.01768
1.0151
1.01603
1.01908
1.02695
1.03546
1.04112
1.04378
1.04735
1.18971
1.64329
0.878146
0.877491
0.877795
0.878638
0.879731
0.881559
0.887052
0.892105
0.894288
0.895351
0.896369
0.897303
0.897153
0.895389
0.894827
0.895394
0.896501
0.89787
0.901536
0.908152
0.911844
0.913373
0.914459
0.915513
0.916135
0.91426
0.912307
0.91241
0.913337
0.914584
0.916612
0.923032
0.929363
0.932151
0.933589
0.934821
0.93597
0.934958
0.93109
0.929594
0.93009
0.931299
0.932872
0.937298
0.946244
0.95168
0.954056
0.955571
0.956879
0.95681
0.95203
0.948422
0.948243
0.94916
0.950602
0.952884
0.960617
0.970117
0.974601
0.97716
0.979225
0.980881
0.978986
0.972
0.968198
0.968168
0.969434
0.971304
0.974716
0.985009
0.995243
0.999764
1.00233
1.00486
1.0066
1.00329
0.995956
0.992428
0.992643
0.994506
0.997496
1.00433
1.01421
1.02113
1.02545
1.02852
1.03057
1.03049
1.02516
1.01834
1.01557
1.01618
1.01895
1.02722
1.03605
1.04118
1.04787
1.19816
1.64629
0.880987
0.879468
0.879264
0.879963
0.880957
0.882134
0.885402
0.892362
0.896401
0.898017
0.898929
0.899755
0.899954
0.898067
0.896546
0.896796
0.8977
0.898881
0.900632
0.906625
0.9129
0.915582
0.916826
0.917865
0.918784
0.917965
0.915069
0.914032
0.914429
0.915469
0.916853
0.920521
0.928641
0.933676
0.935824
0.937059
0.938223
0.938754
0.935422
0.931888
0.931597
0.932586
0.933939
0.935765
0.942223
0.951022
0.955135
0.957212
0.958756
0.960187
0.959172
0.953586
0.950469
0.950282
0.951122
0.952668
0.955729
0.965283
0.974619
0.978592
0.980515
0.982021
0.983641
0.981408
0.974559
0.971227
0.970933
0.971634
0.973367
0.977285
0.988365
0.998658
1.00344
1.00593
1.00795
1.00881
1.00541
0.998737
0.995245
0.995141
0.996742
0.999716
1.00739
1.01729
1.02383
1.02774
1.03038
1.03209
1.03178
1.02614
1.01888
1.01558
1.01571
1.01825
1.02738
1.03598
1.04591
1.20759
1.64941
0.884679
0.882995
0.881224
0.881533
0.882409
0.883474
0.884964
0.890445
0.896972
0.899861
0.90134
0.902331
0.903088
0.90217
0.899383
0.898526
0.899125
0.90011
0.901258
0.904212
0.911898
0.916956
0.919058
0.920225
0.921247
0.921701
0.919043
0.916089
0.91585
0.916721
0.917917
0.91953
0.925328
0.933481
0.937195
0.938986
0.940182
0.941382
0.9407
0.936174
0.933846
0.933992
0.934804
0.936132
0.938708
0.947129
0.955257
0.958762
0.960777
0.962397
0.9636
0.960917
0.954679
0.952138
0.952509
0.953713
0.955265
0.958784
0.969061
0.977515
0.981122
0.983693
0.9858
0.987181
0.98372
0.976144
0.972682
0.972906
0.974361
0.976368
0.980258
0.990969
1.0008
1.00531
1.00781
1.01008
1.01151
1.00833
1.00114
0.997186
0.996984
0.998717
1.00196
1.0102
1.01989
1.02598
1.02961
1.03208
1.03364
1.03303
1.02708
1.0192
1.01499
1.01443
1.01734
1.02715
1.04058
1.21637
1.65185
0.88729
0.88793
0.884756
0.883516
0.884005
0.88495
0.886029
0.888724
0.895793
0.900671
0.90274
0.904121
0.905299
0.906077
0.904035
0.901049
0.90071
0.901517
0.902603
0.903966
0.909012
0.916771
0.920438
0.922219
0.923424
0.924485
0.923921
0.919918
0.917894
0.918244
0.919212
0.920336
0.922562
0.930332
0.937573
0.940523
0.942219
0.943489
0.944497
0.942146
0.937135
0.935402
0.935906
0.937067
0.938547
0.942193
0.951855
0.959006
0.961859
0.963496
0.964962
0.966225
0.962978
0.956908
0.954791
0.954811
0.955661
0.957288
0.961696
0.973066
0.981609
0.984947
0.986661
0.988093
0.989453
0.986301
0.979192
0.976043
0.975858
0.976531
0.978242
0.982536
0.993804
1.0036
1.00821
1.01063
1.01258
1.0135
1.01056
1.00364
0.999356
0.998744
1.00009
1.00337
1.01235
1.02228
1.02824
1.03147
1.0335
1.03479
1.03404
1.02809
1.01917
1.01352
1.01254
1.01612
1.032
1.22236
1.6532
0.888483
0.890317
0.889344
0.886468
0.88586
0.886546
0.887526
0.888921
0.893756
0.90053
0.903766
0.905409
0.906681
0.907861
0.90825
0.905223
0.902896
0.903107
0.904065
0.905169
0.907253
0.91431
0.92079
0.923401
0.924932
0.926204
0.927256
0.925459
0.921201
0.919918
0.920426
0.92143
0.922689
0.926343
0.935357
0.94138
0.94388
0.945493
0.94678
0.947328
0.943269
0.938552
0.937666
0.938412
0.939478
0.940929
0.945564
0.955784
0.962052
0.96477
0.966805
0.968524
0.969235
0.96449
0.958094
0.956268
0.95704
0.95846
0.960067
0.964384
0.975581
0.983362
0.986663
0.989245
0.991412
0.992658
0.988878
0.981243
0.977532
0.977554
0.978979
0.981079
0.985508
0.996324
1.00554
1.0099
1.01244
1.01462
1.01587
1.01279
1.00518
1.00046
0.999796
1.0012
1.00469
1.01404
1.02406
1.02978
1.0327
1.03457
1.03571
1.03483
1.02887
1.01875
1.01164
1.00947
1.02017
1.22306
1.6533
0.889445
0.891454
0.892079
0.890258
0.888181
0.888378
0.889249
0.890254
0.892726
0.899197
0.90424
0.906484
0.907916
0.909159
0.910295
0.909732
0.906227
0.904995
0.905548
0.906522
0.907688
0.911349
0.919485
0.924327
0.926388
0.927769
0.92901
0.929671
0.926279
0.92231
0.921832
0.922768
0.923976
0.925394
0.930561
0.939804
0.944627
0.946727
0.948263
0.949625
0.949754
0.944862
0.94048
0.93973
0.940326
0.941477
0.943221
0.949258
0.959925
0.965732
0.968035
0.969343
0.970745
0.971546
0.966749
0.960877
0.959264
0.959362
0.960109
0.961729
0.966789
0.978744
0.987061
0.990292
0.992048
0.993525
0.994705
0.9915
0.984235
0.980686
0.980426
0.981248
0.982978
0.987799
0.999252
1.00821
1.01227
1.01444
1.01627
1.01745
1.01476
1.00734
1.00223
1.00112
1.00207
1.00536
1.01511
1.0255
1.03102
1.03353
1.03525
1.0363
1.03542
1.02923
1.01787
1.00896
1.00839
1.21745
1.65199
0.890518
0.89265
0.893629
0.893505
0.891005
0.890409
0.891035
0.891958
0.893142
0.897431
0.904092
0.907476
0.909196
0.910495
0.911673
0.912586
0.910416
0.907311
0.907064
0.907911
0.909005
0.910578
0.916311
0.924063
0.927574
0.929249
0.930466
0.931691
0.93142
0.926828
0.924102
0.92427
0.925164
0.926237
0.927968
0.934746
0.9437
0.94778
0.949803
0.951402
0.95277
0.95196
0.945977
0.941927
0.941705
0.942849
0.944152
0.945838
0.952417
0.962772
0.967861
0.970354
0.972463
0.974163
0.97442
0.968838
0.962433
0.960578
0.961304
0.96272
0.964413
0.969204
0.980697
0.988462
0.991733
0.994174
0.996292
0.997503
0.994246
0.986786
0.982534
0.982084
0.983365
0.985438
0.990345
1.00127
1.00948
1.01338
1.01609
1.01846
1.01996
1.01719
1.00901
1.0032
1.00176
1.00269
1.00595
1.01579
1.02622
1.03149
1.03387
1.03568
1.03667
1.03574
1.02885
1.01448
1.00381
1.2064
1.65023
0.891828
0.894058
0.895068
0.895847
0.893945
0.892341
0.892619
0.893493
0.894529
0.896661
0.902965
0.908286
0.910563
0.911901
0.913107
0.91427
0.914174
0.910604
0.90889
0.909367
0.910375
0.911455
0.913694
0.921215
0.927895
0.930562
0.932078
0.93329
0.934412
0.932758
0.927752
0.925797
0.926145
0.927148
0.928386
0.930783
0.938983
0.947236
0.950644
0.952347
0.953624
0.955046
0.954133
0.948102
0.944634
0.944373
0.944862
0.945998
0.948014
0.955608
0.966305
0.971497
0.973595
0.974868
0.976363
0.977019
0.97177
0.965482
0.96363
0.96362
0.964321
0.965968
0.971261
0.983373
0.991778
0.995044
0.996759
0.99821
0.99958
0.997292
0.989982
0.985338
0.98442
0.98494
0.986528
0.992001
1.00385
1.01266
1.01662
1.01868
1.02054
1.02169
1.01903
1.01083
1.00438
1.00252
1.0032
1.00613
1.01591
1.02643
1.03156
1.03401
1.03605
1.03684
1.03566
1.02523
1.00865
1.19393
1.64914
0.893404
0.895689
0.896657
0.897686
0.896751
0.894391
0.894191
0.895002
0.896058
0.897179
0.9009
0.908016
0.911815
0.913523
0.914724
0.915854
0.916799
0.914793
0.911373
0.910827
0.911469
0.912458
0.913674
0.917271
0.925906
0.931455
0.933737
0.935107
0.936258
0.937027
0.933633
0.928731
0.927668
0.928425
0.929548
0.930711
0.933467
0.942532
0.950159
0.953224
0.955143
0.956779
0.958034
0.956113
0.949511
0.945962
0.946006
0.947166
0.948482
0.950429
0.958018
0.968356
0.973242
0.975761
0.977884
0.9795
0.979713
0.974034
0.967135
0.964806
0.965378
0.96686
0.968724
0.973518
0.984861
0.992843
0.996273
0.998698
1.00075
1.00213
0.999857
0.992258
0.986784
0.985574
0.98667
0.988811
0.994424
1.00597
1.01418
1.01789
1.02014
1.02218
1.02367
1.02098
1.01221
1.00516
1.00293
1.00351
1.00629
1.01575
1.02611
1.03132
1.03414
1.03616
1.0369
1.03293
1.02099
1.18596
1.64931
0.895049
0.89755
0.898493
0.89954
0.899611
0.897095
0.895907
0.896346
0.897197
0.898201
0.899758
0.905649
0.912393
0.915237
0.916571
0.917636
0.918672
0.918686
0.914982
0.9125
0.912636
0.913588
0.914714
0.916071
0.92115
0.930042
0.934588
0.936598
0.937941
0.939119
0.939441
0.935064
0.930758
0.930047
0.930513
0.931465
0.932814
0.93651
0.946305
0.953499
0.956318
0.957723
0.958821
0.960165
0.958376
0.951917
0.948737
0.948481
0.948894
0.950073
0.952229
0.960541
0.971506
0.976609
0.978609
0.979686
0.981035
0.981836
0.977071
0.970395
0.968079
0.968038
0.968599
0.970112
0.974983
0.987033
0.995812
0.999255
1.00092
1.00233
1.00405
1.00277
0.995389
0.989606
0.98804
0.988283
0.989722
0.995072
1.00683
1.01568
1.01981
1.02205
1.02382
1.02502
1.02294
1.01432
1.0063
1.0035
1.00376
1.00603
1.01502
1.02533
1.03085
1.03403
1.03623
1.03575
1.0315
1.18518
1.65079
0.896106
0.899765
0.900659
0.901636
0.902339
0.90064
0.897925
0.897506
0.898141
0.899145
0.900274
0.902775
0.91028
0.916092
0.918413
0.919552
0.920525
0.921464
0.919912
0.915609
0.914275
0.91482
0.915761
0.916781
0.918384
0.924859
0.933601
0.937605
0.939568
0.941071
0.942341
0.941897
0.936237
0.932032
0.931722
0.932772
0.933966
0.935219
0.939104
0.949068
0.955637
0.958315
0.960319
0.96198
0.963174
0.960639
0.953643
0.950038
0.950021
0.951126
0.952456
0.954341
0.962098
0.972584
0.977519
0.980075
0.982303
0.984037
0.984611
0.980005
0.972791
0.969472
0.969499
0.970795
0.97261
0.977246
0.98845
0.996642
1.00027
1.0029
1.00502
1.00649
1.00491
0.997158
0.990366
0.988234
0.988821
0.990571
0.995795
1.00764
1.01675
1.0209
1.02344
1.02566
1.02687
1.02465
1.01551
1.00675
1.00353
1.00366
1.00558
1.01395
1.02425
1.03027
1.03411
1.03524
1.03817
1.19045
1.65335
0.89573
0.901584
0.902855
0.90378
0.904657
0.904519
0.901195
0.899069
0.899301
0.900235
0.901264
0.902351
0.905784
0.914226
0.919435
0.921567
0.92275
0.923734
0.924227
0.92089
0.916846
0.91607
0.916617
0.917586
0.91877
0.920887
0.928556
0.936868
0.940372
0.942031
0.943238
0.944483
0.943982
0.93838
0.934719
0.934358
0.934736
0.935642
0.937085
0.941699
0.952095
0.958822
0.961436
0.962799
0.964052
0.965462
0.963472
0.956628
0.953079
0.952481
0.952586
0.953637
0.955733
0.964174
0.975562
0.98102
0.983145
0.984398
0.985741
0.986885
0.983396
0.97602
0.972497
0.972078
0.972508
0.973825
0.978417
0.990403
0.999526
1.00319
1.0049
1.00618
1.00767
1.00684
0.9995
0.992542
0.990209
0.990426
0.991937
0.996668
1.00823
1.01814
1.02288
1.02505
1.02652
1.02735
1.02578
1.01709
1.00765
1.00378
1.00346
1.00481
1.01263
1.02301
1.0301
1.03304
1.04104
1.20009
1.65647
0.893133
0.901922
0.904543
0.905824
0.906745
0.907577
0.9062
0.902253
0.900921
0.901276
0.901998
0.903019
0.904365
0.90923
0.918139
0.922773
0.92471
0.925863
0.926815
0.926601
0.921832
0.918022
0.917779
0.918778
0.919942
0.921017
0.923297
0.931658
0.939572
0.942786
0.944613
0.946177
0.947452
0.946198
0.939934
0.936
0.935774
0.93678
0.937944
0.939273
0.943766
0.954108
0.960558
0.963346
0.965555
0.967222
0.968392
0.965958
0.958538
0.954143
0.953768
0.954867
0.956453
0.958401
0.965979
0.97678
0.981991
0.984521
0.986709
0.988463
0.989441
0.986156
0.978553
0.973914
0.973177
0.974249
0.976027
0.980492
0.991634
1.00015
1.00375
1.00616
1.00839
1.01009
1.00963
1.00251
0.994713
0.991573
0.991471
0.992519
0.996476
1.00792
1.01813
1.02286
1.02548
1.02738
1.02844
1.02709
1.01862
1.00861
1.0038
1.00279
1.00344
1.01089
1.02215
1.02877
1.04121
1.21116
1.65965
0.890333
0.8992
0.905172
0.907469
0.90869
0.909638
0.910221
0.907462
0.903255
0.902309
0.903019
0.904094
0.90521
0.906849
0.912913
0.921497
0.92548
0.927348
0.928634
0.92963
0.928731
0.923515
0.920382
0.920259
0.920813
0.921761
0.92301
0.925928
0.934876
0.942526
0.945609
0.947121
0.948167
0.949467
0.948566
0.942511
0.938783
0.938285
0.938555
0.939426
0.940911
0.94599
0.956946
0.963897
0.966495
0.96771
0.968837
0.970304
0.9689
0.962007
0.957798
0.957011
0.956948
0.957669
0.959475
0.967225
0.978912
0.985001
0.987292
0.988536
0.98986
0.991354
0.98938
0.981817
0.976749
0.97561
0.975804
0.97692
0.98108
0.992788
1.00262
1.00701
1.00911
1.01081
1.01244
1.01197
1.00463
0.995951
0.992058
0.991825
0.993097
0.996745
1.00771
1.01905
1.02484
1.02718
1.02826
1.02888
1.0278
1.02013
1.00947
1.00332
1.00138
1.00166
1.00995
1.02068
1.03749
1.2219
1.66232
0.89025
0.894531
0.903224
0.908201
0.910181
0.911248
0.912187
0.912417
0.908478
0.904717
0.904486
0.905363
0.906437
0.907509
0.909242
0.916001
0.924378
0.928144
0.93
0.931391
0.932491
0.931159
0.925218
0.92185
0.921906
0.922995
0.924159
0.925264
0.928141
0.937318
0.944674
0.947609
0.949537
0.951177
0.952427
0.950962
0.944331
0.940025
0.939619
0.940614
0.941836
0.943137
0.947501
0.95802
0.964762
0.96774
0.970167
0.971975
0.973347
0.971653
0.964243
0.958683
0.957358
0.958139
0.959581
0.961644
0.968819
0.979851
0.985629
0.988398
0.990734
0.992504
0.993771
0.992013
0.984459
0.97826
0.976461
0.977168
0.978834
0.9827
0.993641
1.00378
1.00841
1.01063
1.01213
1.01354
1.01381
1.0075
0.998481
0.994099
0.993432
0.994237
0.997079
1.00728
1.01876
1.0248
1.02736
1.02853
1.02908
1.02821
1.02158
1.01058
1.00274
0.999521
0.999965
1.00842
1.02946
1.23024
1.66392
0.891294
0.893037
0.897987
0.906519
0.91078
0.912631
0.913795
0.914827
0.914439
0.909721
0.906691
0.906687
0.907442
0.908359
0.909474
0.911514
0.918869
0.927032
0.930537
0.932198
0.933478
0.934561
0.933346
0.927749
0.924693
0.924516
0.924929
0.925805
0.927092
0.930498
0.940097
0.947618
0.950582
0.951995
0.952994
0.954343
0.95358
0.947373
0.943158
0.942328
0.942228
0.942862
0.944299
0.948979
0.96031
0.96818
0.971149
0.972644
0.973547
0.974646
0.973986
0.967267
0.961654
0.960292
0.960593
0.961436
0.963137
0.969787
0.981604
0.988584
0.991259
0.992585
0.993871
0.99547
0.994887
0.987664
0.980913
0.978809
0.978715
0.979602
0.98269
0.99345
1.0043
1.0093
1.0118
1.01413
1.01576
1.01611
1.01034
1.00074
0.995401
0.99417
0.994654
0.996461
1.006
1.01867
1.02539
1.02768
1.02849
1.02913
1.02872
1.02309
1.01169
1.00154
0.997266
0.996924
1.01757
1.23403
1.66414
0.892448
0.893628
0.895195
0.901293
0.909728
0.913572
0.915285
0.916364
0.917414
0.916488
0.911372
0.908585
0.90865
0.909546
0.910507
0.911456
0.91353
0.921466
0.929537
0.932902
0.934661
0.936139
0.937325
0.935795
0.929589
0.925997
0.925927
0.92696
0.928103
0.929252
0.93238
0.941902
0.949186
0.952169
0.954276
0.955978
0.957278
0.956187
0.949507
0.94419
0.943158
0.94397
0.94537
0.946846
0.950871
0.961492
0.96902
0.972035
0.973993
0.975812
0.977317
0.977273
0.971297
0.964361
0.961758
0.962008
0.963193
0.964938
0.970856
0.981986
0.988911
0.992141
0.994642
0.996507
0.997933
0.997231
0.990072
0.982476
0.979471
0.979547
0.980873
0.983728
0.99359
1.00556
1.01181
1.01427
1.01576
1.01707
1.01746
1.01231
1.0025
0.996153
0.994264
0.994733
0.99672
1.00579
1.01842
1.02533
1.0276
1.02838
1.02906
1.02886
1.02439
1.01238
1.00042
0.993432
1.00251
1.2306
1.66262
0.893771
0.89481
0.895747
0.897806
0.904713
0.912653
0.916136
0.91792
0.919198
0.920193
0.918548
0.913213
0.91074
0.910711
0.9112
0.912167
0.913395
0.916028
0.924372
0.932176
0.935399
0.936962
0.938045
0.939219
0.938167
0.93232
0.928863
0.928487
0.928737
0.929503
0.930789
0.934268
0.944168
0.952112
0.955247
0.956668
0.957568
0.958904
0.958722
0.952847
0.947704
0.94653
0.946452
0.946682
0.947838
0.951582
0.962457
0.971439
0.975285
0.97709
0.978621
0.980109
0.980095
0.974147
0.966692
0.963757
0.963673
0.964461
0.965883
0.971112
0.98327
0.991811
0.995076
0.996586
0.997758
0.999339
0.999687
0.993483
0.985247
0.981769
0.981342
0.982118
0.98421
0.993088
1.00531
1.01195
1.01471
1.01642
1.01787
1.01883
1.01522
1.00549
0.997988
0.995392
0.99519
0.996251
1.00444
1.01768
1.02485
1.02699
1.02802
1.02905
1.02908
1.02508
1.01227
0.996799
0.993232
1.21973
1.65991
0.895505
0.896081
0.896982
0.898039
0.900229
0.907827
0.915666
0.919048
0.920744
0.921956
0.922835
0.920458
0.914467
0.911956
0.912343
0.91342
0.914551
0.915607
0.918091
0.926746
0.934403
0.937468
0.939254
0.940826
0.942025
0.940647
0.934231
0.930028
0.929617
0.930557
0.931743
0.932929
0.935875
0.945419
0.953191
0.956412
0.958648
0.960509
0.961924
0.961485
0.955705
0.949374
0.946946
0.947237
0.948381
0.949922
0.95338
0.963673
0.973091
0.977119
0.978947
0.979925
0.981088
0.981873
0.977542
0.969661
0.965593
0.965203
0.966415
0.968107
0.972688
0.983678
0.991826
0.995569
0.998347
1.0005
1.00199
1.00212
0.996065
0.987279
0.982846
0.982008
0.982738
0.984305
0.991804
1.00507
1.01303
1.01629
1.01824
1.01978
1.02056
1.01713
1.00705
0.998459
0.994947
0.994704
0.996072
1.0039
1.01694
1.02416
1.02642
1.02778
1.02905
1.02916
1.02493
1.00833
0.993674
1.20477
1.65779
0.897646
0.897268
0.898035
0.899033
0.900203
0.902852
0.910976
0.918371
0.921357