/*--------------------------------*- C++ -*----------------------------------*\
  =========                 |
  \\      /  F ield         | OpenFOAM: The Open Source CFD Toolbox
   \\    /   O peration     | Website:  https://openfoam.org
    \\  /    A nd           | Version:  12
     \\/     M anipulation  |
\*---------------------------------------------------------------------------*/
FoamFile
{
    format      ascii;
    class       volVectorField;
    location    "6.46";
    object      U;
}
// * * * * * * * * * * * * * * * * * * * * * * * * * * * * * * * * * * * * * //

dimensions      [0 1 -1 0 0 0 0];

internalField   nonuniform List<vector> 
22702
(
(2 2.944e-14 0)
(2 4.10941e-15 0)
(2.04415 -0.0929258 0)
(2 -1.12495e-09 0)
(1.97799 0.0309134 0)
(2 -6.48955e-16 0)
(1.83267 0.229345 0)
(2 -4.19739e-15 0)
(2 4.9977e-14 0)
(2.11812 -0.265593 0)
(1.83052 0.228753 0)
(1.83195 0.228557 0)
(2 2.47365e-13 0)
(1.83146 0.228765 0)
(2.03882 -0.0759739 0)
(2 1.36113e-13 0)
(2 1.06621e-13 0)
(2 1.11698e-14 0)
(1.83034 0.228583 0)
(2 -3.30962e-14 0)
(1.83146 0.229171 0)
(2 4.09753e-14 0)
(1.83132 0.229219 0)
(2.11901 -0.272148 0)
(1.83254 0.230067 0)
(2.12288 -0.265097 0)
(2 -7.45763e-14 0)
(1.82738 0.227894 0)
(2.08767 -0.259734 0)
(2.11763 -0.264801 0)
(2 2.27255e-14 0)
(1.8287 0.2287 0)
(2 -4.00637e-15 0)
(2 5.29505e-14 0)
(2 1.86368e-13 0)
(1.84482 0.214302 0)
(1.83149 0.229926 0)
(1.83123 0.229125 0)
(2 8.16757e-14 0)
(2 -2.53323e-14 0)
(2.14615 -0.263643 0)
(2 -6.30833e-14 0)
(1.91524 0.125515 0)
(2 1.87875e-13 0)
(1.82859 0.228947 0)
(2 -2.27982e-13 0)
(2 1.73658e-13 0)
(2 -1.80794e-13 0)
(2 -1.26195e-13 0)
(2.11978 -0.265743 0)
(2 -2.53291e-14 0)
(2.11808 -0.270102 0)
(2 2.09926e-13 0)
(1.83034 0.228798 0)
(2 -2.78489e-13 0)
(1.82731 0.229024 0)
(2 2.65912e-13 0)
(2 1.55833e-09 0)
(2 -5.1841e-15 0)
(2 -1.12645e-13 0)
(2.12318 -0.263519 0)
(2 -2.36304e-13 0)
(2 -3.75613e-14 0)
(2.09618 -0.262687 0)
(2 3.32386e-14 0)
(2.12457 -0.263614 0)
(2 1.61851e-14 0)
(2 -1.42575e-13 0)
(2 -5.89396e-14 0)
(2.11027 -0.25841 0)
(2 2.74926e-14 0)
(1.82956 0.228637 0)
(1.89794 0.148644 0)
(2 1.64188e-09 0)
(1.83017 0.229446 0)
(1.82206 0.236733 0)
(2.11944 -0.260307 0)
(1.83038 0.2287 0)
(2.10637 -0.264254 0)
(2 -5.14644e-15 0)
(1.83023 0.228948 0)
(2.10943 -0.262764 0)
(1.82937 0.228863 0)
(1.8296 0.228862 0)
(2 -1.18764e-14 0)
(2 1.10297e-06 0)
(2 -1.13368e-13 0)
(2 -3.9678e-15 0)
(2.02392 -0.0477895 0)
(2.11687 -0.261309 0)
(1.83194 0.228482 0)
(2 1.27758e-13 0)
(2 -5.94369e-11 0)
(2.09619 -0.263241 0)
(2 -4.32078e-14 0)
(1.8313 0.229177 0)
(2.10629 -0.266638 0)
(2 2.27003e-08 0)
(2 3.54168e-14 0)
(2 -1.52504e-13 0)
(2 1.61388e-13 0)
(1.91514 0.124415 0)
(1.82982 0.229074 0)
(2.12219 -0.264655 0)
(2 1.01135e-09 0)
(2 -1.00661e-09 0)
(1.95853 0.0596965 0)
(2 9.71366e-09 0)
(2.10959 -0.261619 0)
(2 -1.32889e-13 0)
(1.82953 0.228498 0)
(1.82921 0.229015 0)
(2 4.46499e-09 0)
(2 -2.22915e-13 0)
(2.11892 -0.271742 0)
(2.11437 -0.269278 0)
(2.1192 -0.264104 0)
(2 1.21094e-14 0)
(2 -1.55532e-07 0)
(2 -2.35332e-14 0)
(2 -1.22983e-13 0)
(2 1.21246e-07 0)
(2.03002 -0.057393 0)
(2 -1.10257e-07 0)
(1.85632 0.19994 0)
(1.98349 0.0256398 0)
(1.82944 0.2289 0)
(2 1.51829e-14 0)
(1.82931 0.228948 0)
(1.83013 0.228546 0)
(1.83122 0.229078 0)
(1.83019 0.228788 0)
(2 9.21057e-14 0)
(2.13036 -0.263007 0)
(2 8.15529e-15 0)
(2.11387 -0.263508 0)
(2 -5.34345e-14 0)
(2 2.60202e-13 0)
(2 5.55828e-15 0)
(2 7.84987e-14 0)
(1.82928 0.228974 0)
(2 3.08119e-09 0)
(2 1.92812e-13 0)
(2 -2.65682e-13 0)
(2 -3.71922e-14 0)
(1.83439 0.230019 0)
(2 4.46451e-14 0)
(1.99544 0.0119481 0)
(2 8.26887e-15 0)
(2 -8.92501e-14 0)
(2 -6.95288e-11 0)
(2 1.24075e-14 0)
(2.11628 -0.262886 0)
(2 -6.21846e-14 0)
(1.99547 0.00926659 0)
(2 2.59557e-14 0)
(2.10196 -0.263326 0)
(2 -2.00028e-13 0)
(2 -4.75613e-14 0)
(2 -1.88629e-13 0)
(1.83142 0.228995 0)
(2 5.91779e-15 0)
(1.83069 0.228576 0)
(2.1072 -0.284598 0)
(2.12631 -0.264511 0)
(1.82754 0.228109 0)
(1.82805 0.228195 0)
(2 5.47803e-14 0)
(1.96804 0.0466739 0)
(1.90416 0.142942 0)
(2 4.23439e-14 0)
(1.82932 0.22927 0)
(2.11055 -0.263297 0)
(1.84406 0.214917 0)
(2 7.79442e-14 0)
(2 1.42756e-13 0)
(2 1.50716e-14 0)
(2 2.62596e-13 0)
(1.83148 0.228684 0)
(1.86249 0.192425 0)
(2 7.60557e-14 0)
(1.82949 0.228711 0)
(2.1171 -0.26974 0)
(1.82749 0.229032 0)
(2 1.73352e-13 0)
(2.09044 -0.261801 0)
(2 5.32432e-14 0)
(2.11681 -0.266771 0)
(2.1223 -0.262806 0)
(2.00009 -0.000148033 0)
(2 9.48791e-14 0)
(2 1.18542e-13 0)
(1.82806 0.228356 0)
(2 -2.29102e-14 0)
(2 -5.65227e-14 0)
(1.83219 0.22941 0)
(2 -3.809e-13 0)
(1.82912 0.228576 0)
(1.82954 0.228594 0)
(2.10069 -0.278113 0)
(2 -1.26106e-13 0)
(2 3.39378e-14 0)
(2.10565 -0.261152 0)
(1.83156 0.228968 0)
(2 -6.15486e-14 0)
(2 -6.63836e-14 0)
(2 1.10763e-14 0)
(1.83165 0.228928 0)
(2 2.01629e-13 0)
(2.10554 -0.259617 0)
(2 -6.36067e-11 0)
(2 2.01016e-13 0)
(1.83182 0.228873 0)
(1.83153 0.228857 0)
(1.82922 0.228534 0)
(2 2.61238e-14 0)
(1.99998 2.59755e-05 0)
(2 1.71569e-14 0)
(2 -1.29911e-14 0)
(2 -6.04931e-14 0)
(1.83205 0.229003 0)
(2 8.95115e-15 0)
(2.13176 -0.26919 0)
(1.82126 0.233109 0)
(1.83144 0.229045 0)
(1.83155 0.229271 0)
(2 1.77003e-07 0)
(2 3.61399e-14 0)
(2 4.44895e-14 0)
(2.11219 -0.268788 0)
(1.83205 0.228711 0)
(1.91544 0.132108 0)
(2 -5.12699e-14 0)
(1.83075 0.229515 0)
(2.12634 -0.266281 0)
(2.11878 -0.261567 0)
(1.83094 0.229522 0)
(1.83141 0.228794 0)
(2 3.94062e-14 0)
(1.83055 0.227504 0)
(2.1312 -0.270153 0)
(1.85041 0.207425 0)
(2 -1.5847e-14 0)
(2 1.04668e-13 0)
(2 1.16357e-13 0)
(2 -2.94807e-14 0)
(1.83211 0.229117 0)
(2 -3.35799e-13 0)
(1.90294 0.139994 0)
(1.98253 0.0303552 0)
(2 -1.93789e-14 0)
(2 1.65965e-13 0)
(1.83209 0.229012 0)
(2.12389 -0.270055 0)
(2.08307 -0.156027 0)
(2 -1.63186e-13 0)
(1.8321 0.227286 0)
(2.08561 -0.268643 0)
(1.83011 0.228558 0)
(2 4.26236e-14 0)
(2 -1.92897e-14 0)
(2 4.73394e-14 0)
(2 -2.02355e-13 0)
(2 -1.39497e-13 0)
(2 -1.44719e-13 0)
(2 4.56375e-15 0)
(2.11608 -0.265974 0)
(2.08586 -0.16244 0)
(2.12589 -0.261957 0)
(1.83153 0.229062 0)
(2 -4.07625e-15 0)
(2 1.43184e-13 0)
(2 -2.0441e-07 0)
(2 1.91649e-13 0)
(1.85252 0.215786 0)
(2 -2.15956e-07 0)
(2.11512 -0.265089 0)
(2 -4.45591e-14 0)
(2.11537 -0.28008 0)
(2.11012 -0.260042 0)
(1.83172 0.228398 0)
(2.12362 -0.265935 0)
(1.83154 0.229186 0)
(2 -1.25738e-14 0)
(2 -1.46826e-13 0)
(2 -1.14127e-13 0)
(2.00088 -0.00166464 0)
(2.09338 -0.260115 0)
(2.12858 -0.272842 0)
(2 -3.04422e-07 0)
(2 -1.36664e-07 0)
(2.11472 -0.281606 0)
(2 2.49044e-09 0)
(1.82956 0.228743 0)
(2.12158 -0.263066 0)
(2 -3.27221e-14 0)
(2 -4.08337e-11 0)
(1.83028 0.228794 0)
(2.10848 -0.281173 0)
(2 -1.68224e-13 0)
(1.83491 0.227374 0)
(2.12723 -0.265651 0)
(1.83203 0.228977 0)
(2 -2.18962e-14 0)
(2.1108 -0.286303 0)
(2.00073 -0.00125396 0)
(2 -1.94509e-15 0)
(2 3.06254e-06 0)
(2 4.20337e-14 0)
(2.11747 -0.269086 0)
(2 -1.73051e-13 0)
(2 -1.78064e-07 0)
(2 -8.83473e-07 0)
(1.99999 1.3561e-05 0)
(1.99095 0.0104732 0)
(1.89696 0.148342 0)
(2 -2.55187e-11 0)
(2.11629 -0.253401 0)
(2 -1.56162e-11 0)
(2 1.47404e-06 0)
(2 -3.54361e-14 0)
(2 -1.96859e-13 0)
(2 -4.9563e-15 0)
(2 1.91518e-13 0)
(2 -1.00178e-12 0)
(1.83009 0.228865 0)
(2 1.66429e-13 0)
(1.82822 0.228267 0)
(2 6.32077e-14 0)
(2 -1.73014e-13 0)
(2 4.61416e-14 0)
(2.1057 -0.267185 0)
(2 8.16586e-14 0)
(1.83413 0.23003 0)
(2.12181 -0.268417 0)
(2 -8.69819e-14 0)
(1.86493 0.199092 0)
(2 -2.12387e-13 0)
(2 -7.79982e-15 0)
(1.82968 0.229349 0)
(2 -9.11063e-14 0)
(2 -9.0668e-09 0)
(2 -6.00565e-14 0)
(1.83344 0.226932 0)
(2 4.89972e-10 0)
(2 -2.4925e-13 0)
(1.83288 0.23335 0)
(1.83009 0.229286 0)
(2 1.30985e-13 0)
(1.96093 0.0592658 0)
(2 6.59176e-14 0)
(2 -7.09414e-14 0)
(2.12181 -0.269718 0)
(2 1.52935e-14 0)
(2 -3.75048e-14 0)
(2 1.04586e-14 0)
(2.08619 -0.261096 0)
(2 3.07508e-14 0)
(2 5.76505e-14 0)
(2 2.66329e-15 0)
(2 -9.06357e-14 0)
(2.10979 -0.260147 0)
(2 2.2223e-15 0)
(2 -1.29243e-14 0)
(2 -1.73457e-13 0)
(2 3.92598e-14 0)
(2 1.35667e-13 0)
(2.12277 -0.262982 0)
(1.99998 4.19507e-05 0)
(1.82962 0.228186 0)
(2 1.12575e-13 0)
(2.00001 -3.28008e-05 0)
(1.82837 0.228432 0)
(1.8272 0.227784 0)
(2 8.58105e-14 0)
(2 7.69763e-14 0)
(2.08767 -0.268561 0)
(2.06387 -0.130285 0)
(1.82989 0.229234 0)
(2 -5.5228e-14 0)
(2 -1.03281e-13 0)
(2 -2.86504e-13 0)
(1.83211 0.228977 0)
(2.10981 -0.26033 0)
(2 -4.8666e-14 0)
(1.83052 0.228461 0)
(2 -2.21047e-14 0)
(2 -1.1086e-14 0)
(2.10876 -0.208474 0)
(2.11372 -0.207244 0)
(2 -1.54012e-13 0)
(2.10148 -0.25982 0)
(2.11275 -0.26524 0)
(2 3.3445e-14 0)
(2 -1.04124e-14 0)
(2 2.17726e-13 0)
(2 -6.05621e-15 0)
(2 -9.18533e-11 0)
(2 3.32555e-14 0)
(2 1.27995e-13 0)
(1.82949 0.228857 0)
(1.9575 0.0639328 0)
(1.8373 0.223796 0)
(2.12073 -0.266231 0)
(2.02622 -0.051066 0)
(1.8293 0.22901 0)
(2 4.07059e-14 0)
(1.83198 0.229979 0)
(1.82951 0.229139 0)
(2.14686 -0.263148 0)
(2.07738 -0.157871 0)
(2 8.31573e-13 0)
(2.11243 -0.26741 0)
(2 -1.07759e-14 0)
(1.82305 0.236626 0)
(2 -6.46899e-14 0)
(2 -1.47443e-14 0)
(2 2.71851e-13 0)
(2 3.06811e-16 0)
(1.8317 0.229066 0)
(2 -6.41404e-14 0)
(2 -9.06636e-14 0)
(2 -9.8749e-14 0)
(2 1.52891e-09 0)
(2 -1.87795e-13 0)
(2 -2.61901e-14 0)
(2 -2.38168e-14 0)
(1.93914 0.0945585 0)
(1.83127 0.228821 0)
(2 7.93812e-14 0)
(1.83153 0.229044 0)
(2 1.13007e-14 0)
(2 -5.30677e-15 0)
(2.10952 -0.264149 0)
(2 -8.95892e-14 0)
(2 1.98779e-13 0)
(2 -2.84704e-13 0)
(2 -1.5663e-13 0)
(1.83163 0.228866 0)
(1.87266 0.181472 0)
(2 -3.56019e-13 0)
(2 -3.09381e-13 0)
(2.10062 -0.264792 0)
(1.8307 0.228778 0)
(1.83144 0.228905 0)
(2 8.8878e-15 0)
(1.83154 0.228913 0)
(1.83182 0.22914 0)
(1.8315 0.228861 0)
(2 2.93959e-14 0)
(2.05988 -0.119021 0)
(2 3.19292e-14 0)
(1.83168 0.228733 0)
(2.00069 -0.00694648 0)
(1.83157 0.228956 0)
(2 -3.6553e-14 0)
(2.13872 -0.263627 0)
(2.00038 -0.000608597 0)
(1.83144 0.229187 0)
(2 9.42127e-14 0)
(2 -1.29567e-14 0)
(2 -6.36105e-11 0)
(2 -2.15679e-11 0)
(2.11421 -0.260503 0)
(1.83197 0.228423 0)
(1.84697 0.212312 0)
(2 -6.9778e-14 0)
(1.83225 0.228578 0)
(1.83193 0.228865 0)
(1.82968 0.229158 0)
(2 -6.02092e-14 0)
(1.92047 0.119482 0)
(1.83124 0.22959 0)
(2 -8.58949e-15 0)
(2 -1.49208e-13 0)
(1.8823 0.169256 0)
(1.97771 0.0395271 0)
(1.83181 0.22883 0)
(2.0187 -0.0500074 0)
(1.83164 0.228922 0)
(2 -2.33503e-14 0)
(1.83168 0.228946 0)
(1.8315 0.229026 0)
(1.83157 0.228935 0)
(1.83038 0.228475 0)
(2 -3.45784e-14 0)
(1.83987 0.218787 0)
(2.03247 -0.0554012 0)
(2.04385 -0.0777346 0)
(2 -9.28329e-14 0)
(2 -4.18473e-07 0)
(2 -1.81279e-13 0)
(2 -2.97129e-14 0)
(1.83158 0.229996 0)
(2 1.18327e-13 0)
(2 2.28809e-13 0)
(2 2.27565e-14 0)
(2 -3.02085e-14 0)
(2 1.77058e-13 0)
(1.83156 0.22924 0)
(2 1.22521e-13 0)
(2 2.88213e-14 0)
(2.0015 -0.00261042 0)
(1.83143 0.228913 0)
(1.84872 0.216192 0)
(2 4.65303e-14 0)
(1.85268 0.207979 0)
(1.99998 2.63503e-05 0)
(2 -3.6365e-14 0)
(2 -9.58192e-14 0)
(1.83011 0.228132 0)
(2 -1.17454e-13 0)
(2.00234 -0.002833 0)
(1.99843 0.00401338 0)
(2 -1.04323e-14 0)
(1.8316 0.229025 0)
(2 3.20581e-14 0)
(1.83179 0.229018 0)
(2 -1.9921e-14 0)
(2 4.55744e-14 0)
(1.87343 0.179864 0)
(2 -1.37991e-15 0)
(1.8318 0.229017 0)
(1.99999 1.30811e-05 0)
(2 1.10644e-13 0)
(1.83219 0.228357 0)
(2 3.13e-13 0)
(1.83155 0.22888 0)
(2 1.98021e-14 0)
(2 3.15387e-06 0)
(2 7.93766e-14 0)
(1.83219 0.229299 0)
(2 1.9671e-14 0)
(1.82813 0.23108 0)
(2 4.33652e-06 0)
(1.83186 0.229063 0)
(1.83087 0.229212 0)
(1.83152 0.229183 0)
(1.82965 0.228864 0)
(2 -5.244e-14 0)
(1.83075 0.229304 0)
(1.83656 0.221807 0)
(2 -2.27855e-14 0)
(2.10976 -0.25559 0)
(1.84147 0.21799 0)
(1.87875 0.17274 0)
(2 1.50158e-14 0)
(1.83186 0.229259 0)
(2 1.95172e-14 0)
(2.12736 -0.268146 0)
(2.12569 -0.263872 0)
(2 -1.42983e-13 0)
(2 -2.39753e-13 0)
(2 -2.03826e-13 0)
(2 -4.31458e-14 0)
(2 1.57426e-09 0)
(2.11352 -0.269456 0)
(2 -6.41644e-14 0)
(1.83157 0.229107 0)
(1.95546 0.062107 0)
(1.83014 0.228322 0)
(2 3.3486e-14 0)
(2 8.91409e-11 0)
(2 -2.2141e-14 0)
(2 -3.51576e-14 0)
(2 -5.7128e-08 0)
(1.83156 0.229 0)
(2 -2.75606e-13 0)
(1.83185 0.230349 0)
(1.90007 0.147408 0)
(2.0764 -0.159839 0)
(2 1.32861e-09 0)
(1.99999 7.69324e-06 0)
(1.94846 0.0801446 0)
(1.96091 0.0651187 0)
(2 2.6432e-14 0)
(2 -7.80374e-14 0)
(1.93738 0.0931135 0)
(2 1.85852e-13 0)
(2.10804 -0.263003 0)
(1.83134 0.228827 0)
(1.83153 0.228995 0)
(2 -6.65063e-11 0)
(2 -2.09627e-14 0)
(2 -5.02551e-14 0)
(1.83153 0.229267 0)
(2 2.96305e-13 0)
(1.99999 1.51603e-05 0)
(1.83081 0.229158 0)
(1.83186 0.2285 0)
(2.01698 -0.0368603 0)
(2 -1.06683e-13 0)
(2 1.18617e-10 0)
(2.12069 -0.265576 0)
(1.84727 0.210475 0)
(2 -7.64364e-14 0)
(2 -1.48035e-13 0)
(2 3.42638e-14 0)
(2 -2.82441e-11 0)
(2 -1.36669e-13 0)
(1.83148 0.228874 0)
(1.82996 0.22942 0)
(2 1.077e-13 0)
(1.83238 0.228095 0)
(1.82946 0.2301 0)
(1.83174 0.22916 0)
(2 -2.19012e-14 0)
(2 1.17015e-13 0)
(2 -6.34115e-11 0)
(2 -7.69343e-14 0)
(2.12133 -0.262947 0)
(1.82945 0.228786 0)
(2 -4.5855e-11 0)
(2 1.31177e-13 0)
(1.84608 0.212571 0)
(1.83222 0.228371 0)
(2 2.20499e-13 0)
(1.84163 0.217414 0)
(1.8308 0.229345 0)
(2 3.6279e-13 0)
(2 -2.26732e-07 0)
(2 7.04473e-11 0)
(2 -1.05502e-13 0)
(2 -5.90075e-14 0)
(1.8313 0.229123 0)
(2 -4.98569e-14 0)
(2 -1.02395e-13 0)
(2 -1.16561e-13 0)
(2 1.41231e-14 0)
(1.83096 0.230773 0)
(2 -2.56155e-13 0)
(1.84201 0.224838 0)
(2.12412 -0.266516 0)
(2 -1.07643e-13 0)
(2.1223 -0.259216 0)
(2 -8.12978e-14 0)
(2 -1.11126e-07 0)
(2 -5.35786e-14 0)
(2.00112 -0.00177576 0)
(2.11058 -0.265228 0)
(2.00032 -0.000641953 0)
(2 1.11648e-13 0)
(2 -1.38809e-14 0)
(2 -1.25926e-07 0)
(1.9757 0.0357235 0)
(2 -4.86945e-14 0)
(2 8.78193e-15 0)
(2.0444 -0.0876498 0)
(2 -2.16492e-07 0)
(2 -6.72116e-14 0)
(2 -6.51683e-14 0)
(2 -2.24848e-07 0)
(2 4.49644e-07 0)
(2 -1.14137e-07 0)
(2 2.19616e-13 0)
(2 -1.58184e-06 0)
(2.01646 -0.0410112 0)
(2 -4.74543e-07 0)
(2 -4.20628e-08 0)
(2.00092 -0.00138377 0)
(2 2.40914e-15 0)
(2.11512 -0.258866 0)
(2 -2.88485e-11 0)
(2 -4.3935e-12 0)
(2 -4.92409e-11 0)
(2 6.11628e-14 0)
(1.87445 0.178271 0)
(2 -4.59856e-14 0)
(2 8.75034e-14 0)
(2 -5.63689e-14 0)
(2 -1.74392e-07 0)
(2.10922 -0.268112 0)
(2 3.84271e-14 0)
(2 1.6383e-09 0)
(1.84066 0.217997 0)
(1.829 0.228503 0)
(2 -3.03613e-07 0)
(2 1.1883e-13 0)
(2 -1.19518e-07 0)
(2.04311 -0.0793909 0)
(2 -6.36236e-14 0)
(2 4.36076e-10 0)
(2 -2.74121e-14 0)
(2 7.53964e-15 0)
(2 -1.42548e-13 0)
(2 6.16849e-14 0)
(2.00685 -0.0298138 0)
(1.99402 0.000995984 0)
(1.83211 0.22898 0)
(2 -1.47119e-13 0)
(2 1.60674e-13 0)
(2 8.72767e-15 0)
(1.83061 0.230809 0)
(2.02763 -0.0673494 0)
(2 -4.78959e-09 0)
(2 7.31715e-15 0)
(2 4.1011e-14 0)
(1.83097 0.228986 0)
(1.82682 0.226572 0)
(2 -3.02186e-08 0)
(2 5.38502e-06 0)
(2 3.52889e-09 0)
(2 -9.74173e-15 0)
(2 1.32986e-09 0)
(2 -6.91776e-15 0)
(2 -1.44426e-11 0)
(2 4.82876e-15 0)
(2 -2.29267e-14 0)
(2.10856 -0.266972 0)
(2 -1.21913e-13 0)
(2 -1.27566e-11 0)
(1.82896 0.227945 0)
(2.10879 -0.263826 0)
(2 -2.25597e-13 0)
(1.82848 0.227135 0)
(2 6.57623e-11 0)
(2.10464 -0.260911 0)
(2 -2.66672e-14 0)
(2 3.9932e-14 0)
(2.11078 -0.267773 0)
(2 -2.73821e-13 0)
(2 -1.02773e-11 0)
(2 -5.62771e-12 0)
(2 1.4841e-14 0)
(2 -2.4029e-12 0)
(2 -6.90101e-14 0)
(2 2.92202e-14 0)
(1.835 0.225286 0)
(1.83212 0.22871 0)
(2 1.75708e-13 0)
(2 6.34367e-14 0)
(2 1.14167e-13 0)
(2 2.22546e-13 0)
(1.8452 0.212724 0)
(2 2.03579e-13 0)
(1.94475 0.0849976 0)
(2.10144 -0.255207 0)
(2 -2.987e-08 0)
(2 2.36968e-13 0)
(2 3.00627e-14 0)
(2 -1.92495e-15 0)
(2 1.90546e-14 0)
(2 -5.30505e-14 0)
(2 -4.716e-14 0)
(1.9839 0.0163647 0)
(2 -1.5745e-15 0)
(2 -3.64845e-14 0)
(1.90829 0.121615 0)
(2 3.00649e-14 0)
(2 -5.41719e-15 0)
(2 1.25674e-14 0)
(1.86184 0.19319 0)
(2 -7.52422e-14 0)
(2 1.07175e-13 0)
(2 -7.65456e-14 0)
(2 -1.35645e-13 0)
(2.11577 -0.273156 0)
(2 3.91003e-12 0)
(2 2.56996e-13 0)
(2.10702 -0.284974 0)
(2.11971 -0.269128 0)
(2 -1.4741e-13 0)
(2 -8.09246e-14 0)
(1.83174 0.228766 0)
(2 -5.80842e-14 0)
(1.9836 -0.0498397 0)
(2 -1.77814e-15 0)
(2 -1.22647e-14 0)
(2 4.98453e-14 0)
(1.88082 0.170354 0)
(2.13659 -0.263582 0)
(2 1.71505e-13 0)
(2.13992 -0.265606 0)
(2 -7.05015e-14 0)
(2.08582 -0.154437 0)
(2 7.18359e-14 0)
(2 -4.94983e-14 0)
(2 2.88427e-14 0)
(1.82982 0.229435 0)
(2 -4.36392e-08 0)
(2 -2.58728e-13 0)
(1.83164 0.228892 0)
(2 -3.87478e-14 0)
(2 -2.49744e-11 0)
(2 1.67916e-09 0)
(1.83162 0.228794 0)
(2 2.40981e-10 0)
(2 1.56734e-14 0)
(1.83166 0.228839 0)
(2 -2.83855e-13 0)
(2 1.79724e-14 0)
(2.14543 -0.262723 0)
(2 -1.7318e-11 0)
(1.94441 0.0852219 0)
(2 3.21517e-14 0)
(2 4.17812e-16 0)
(1.82915 0.229018 0)
(1.83013 0.228732 0)
(1.88781 0.163094 0)
(1.84967 0.208817 0)
(2 2.00019e-13 0)
(2.14413 -0.263477 0)
(2 -4.78188e-14 0)
(2 8.20814e-15 0)
(1.83873 0.220526 0)
(2 5.12668e-14 0)
(2.11386 -0.266777 0)
(2 -1.49237e-14 0)
(2 -1.8849e-13 0)
(2 2.43197e-14 0)
(1.83114 0.229131 0)
(2 -9.06656e-14 0)
(2 7.70278e-14 0)
(2 -8.418e-15 0)
(2 -2.79634e-14 0)
(1.89984 0.145317 0)
(2 5.59598e-14 0)
(1.84208 0.210027 0)
(1.83153 0.227798 0)
(2.08717 -0.261217 0)
(2 2.92101e-14 0)
(2 1.8618e-13 0)
(2.12145 -0.259961 0)
(2.12169 -0.264046 0)
(2 3.40918e-15 0)
(2 -5.67529e-15 0)
(2 -6.61397e-12 0)
(1.88012 0.173536 0)
(1.87164 0.183436 0)
(2 1.08206e-13 0)
(2 -1.44864e-13 0)
(2 1.4273e-14 0)
(2 -5.54534e-14 0)
(2 -4.84233e-14 0)
(2 -4.78281e-14 0)
(2 -1.33001e-13 0)
(1.92844 0.104332 0)
(1.83023 0.229 0)
(1.99159 0.00870351 0)
(2 2.05719e-14 0)
(1.83404 0.226675 0)
(2.12089 -0.259527 0)
(2 -3.58213e-14 0)
(2 1.02515e-13 0)
(2 -2.64935e-14 0)
(1.90721 0.138997 0)
(2 -7.04138e-15 0)
(1.96892 0.0538997 0)
(2 1.66894e-14 0)
(1.84616 0.212552 0)
(1.83228 0.228258 0)
(2 2.87359e-15 0)
(2.13427 -0.259717 0)
(2 6.19241e-14 0)
(1.82748 0.228773 0)
(2 -2.48167e-14 0)
(2 3.3187e-14 0)
(1.83222 0.229312 0)
(1.84189 0.217547 0)
(2 -1.13943e-13 0)
(1.82686 0.228391 0)
(2 -1.89314e-13 0)
(2.08257 -0.273288 0)
(2 1.90422e-14 0)
(2 -8.75623e-15 0)
(2 4.40915e-14 0)
(1.83725 0.227729 0)
(1.83513 0.22493 0)
(1.85195 0.204784 0)
(2 2.17239e-14 0)
(1.83022 0.229979 0)
(1.83189 0.228876 0)
(2 1.47163e-13 0)
(1.83098 0.229444 0)
(2 -9.44074e-09 0)
(1.83233 0.228178 0)
(2 2.4168e-13 0)
(2.09248 -0.269406 0)
(2.01063 -0.0199036 0)
(2.10485 -0.27205 0)
(2 -3.32953e-11 0)
(2 -2.33606e-11 0)
(2 -3.56772e-11 0)
(2 -9.20535e-14 0)
(2 -1.42404e-11 0)
(1.83175 0.228772 0)
(2 4.10667e-14 0)
(1.83206 0.229012 0)
(2 -3.88124e-11 0)
(2 -9.56309e-11 0)
(2 1.3371e-13 0)
(1.84007 0.219272 0)
(2 2.16241e-15 0)
(2.12346 -0.262827 0)
(1.83166 0.228945 0)
(2 1.91206e-14 0)
(2.09144 -0.261326 0)
(2.12844 -0.239851 0)
(2.13494 -0.256268 0)
(2 -9.66626e-14 0)
(1.91672 0.123554 0)
(1.98369 0.0228208 0)
(1.8308 0.229614 0)
(1.83185 0.228823 0)
(2 -7.92209e-14 0)
(2 -3.71628e-07 0)
(2 -6.4393e-08 0)
(2 1.36607e-13 0)
(1.83189 0.229203 0)
(2 2.17206e-14 0)
(2 -6.86179e-14 0)
(1.83186 0.229093 0)
(1.83188 0.228855 0)
(2 -3.33686e-15 0)
(1.93735 0.0938349 0)
(1.99984 0.000791701 0)
(2 -2.16545e-13 0)
(2.00116 -0.00202156 0)
(1.8297 0.228883 0)
(2.05187 -0.0953174 0)
(2 -1.15189e-07 0)
(2.06176 -0.115039 0)
(2.10922 -0.263328 0)
(2.10633 -0.262792 0)
(1.98775 -0.0149794 0)
(1.82981 0.229054 0)
(1.83396 0.226458 0)
(1.96544 0.0482814 0)
(1.83137 0.229194 0)
(1.83168 0.228968 0)
(2 -3.72763e-14 0)
(2 -1.49456e-14 0)
(1.82956 0.228726 0)
(1.82905 0.228551 0)
(1.83158 0.22888 0)
(1.82863 0.227609 0)
(2 2.0744e-13 0)
(1.8315 0.229113 0)
(2.09806 -0.263392 0)
(1.83151 0.227645 0)
(1.83094 0.227372 0)
(1.82804 0.228054 0)
(1.82993 0.229114 0)
(2.05217 -0.0917859 0)
(2.03336 -0.0813264 0)
(2.01396 -0.0449399 0)
(1.83159 0.228865 0)
(2.01677 -0.0326695 0)
(1.83028 0.229388 0)
(2 -1.21988e-13 0)
(2 3.15034e-14 0)
(1.83087 0.229809 0)
(1.831 0.228836 0)
(2 -1.30362e-14 0)
(2.10801 -0.261815 0)
(1.83063 0.229047 0)
(1.83175 0.228729 0)
(2 -5.67851e-14 0)
(1.83179 0.228721 0)
(1.83164 0.228721 0)
(2 -6.7019e-14 0)
(1.83161 0.229259 0)
(2.09774 -0.264063 0)
(1.83082 0.230391 0)
(1.83021 0.228924 0)
(1.8299 0.22893 0)
(1.832 0.229092 0)
(2 2.55314e-13 0)
(2 8.58367e-14 0)
(2 -1.02125e-07 0)
(1.83172 0.228698 0)
(1.89184 0.157136 0)
(2.12107 -0.256245 0)
(1.83173 0.228736 0)
(2.1074 -0.281467 0)
(1.83165 0.22869 0)
(2 -9.69751e-14 0)
(2 -2.06445e-13 0)
(2 2.83402e-14 0)
(2 -6.35541e-14 0)
(1.83151 0.228262 0)
(1.83175 0.228981 0)
(2 4.67422e-15 0)
(2 1.01084e-13 0)
(1.83172 0.228982 0)
(2.10813 -0.274262 0)
(1.8307 0.229012 0)
(2.11393 -0.25897 0)
(2 -1.12849e-14 0)
(1.83284 0.227623 0)
(2 -1.62527e-14 0)
(2.11505 -0.268086 0)
(1.83064 0.229621 0)
(2.10106 -0.190728 0)
(2 -3.35906e-14 0)
(1.83177 0.228828 0)
(1.83043 0.229943 0)
(1.83212 0.228455 0)
(2 -1.22173e-13 0)
(2 2.18027e-13 0)
(1.92457 0.109898 0)
(1.8306 0.229775 0)
(2.10226 -0.26129 0)
(1.83197 0.228724 0)
(2 1.0622e-13 0)
(1.83204 0.22885 0)
(2.03567 -0.0877183 0)
(1.83152 0.228685 0)
(2.11832 -0.261502 0)
(2 -8.43939e-14 0)
(1.832 0.228425 0)
(2.12155 -0.230683 0)
(1.83097 0.229875 0)
(2.09993 -0.261672 0)
(2 4.16948e-14 0)
(1.83102 0.22906 0)
(2 2.08838e-14 0)
(1.83103 0.228904 0)
(2 1.47354e-13 0)
(1.90241 0.141848 0)
(1.83807 0.221584 0)
(1.86705 0.185989 0)
(2.13069 -0.274674 0)
(2 1.11484e-13 0)
(1.83121 0.229111 0)
(2 2.38647e-14 0)
(1.83195 0.228831 0)
(2 -1.21969e-07 0)
(1.83191 0.229014 0)
(2 -2.34786e-07 0)
(2 -1.47061e-13 0)
(1.8314 0.228615 0)
(1.99805 -0.00958235 0)
(1.83013 0.230062 0)
(2.0836 -0.273123 0)
(1.86045 0.197355 0)
(2 -1.20395e-14 0)
(1.88155 0.171062 0)
(2 3.94875e-14 0)
(1.82993 0.229186 0)
(1.83208 0.228973 0)
(1.83031 0.228685 0)
(2 -3.2663e-14 0)
(1.8479 0.210033 0)
(1.83099 0.228595 0)
(1.84395 0.215105 0)
(1.8968 0.14884 0)
(1.83892 0.227144 0)
(2 1.97755e-15 0)
(1.88958 0.159405 0)
(2 -2.5404e-14 0)
(1.83106 0.228682 0)
(2 -1.40869e-13 0)
(1.97022 0.0427436 0)
(2 -3.90339e-14 0)
(1.84409 0.214177 0)
(2 -3.79765e-14 0)
(1.83201 0.228764 0)
(1.83874 0.220691 0)
(1.83979 0.219277 0)
(2 -5.10631e-14 0)
(1.82722 0.232701 0)
(2.12399 -0.261694 0)
(2 -3.81779e-14 0)
(2.13044 -0.265682 0)
(2 -2.48993e-13 0)
(2 8.3169e-14 0)
(2 -3.03168e-14 0)
(1.82929 0.228867 0)
(2 6.09259e-15 0)
(1.83172 0.229328 0)
(2 2.74603e-14 0)
(2 -2.07408e-13 0)
(2 -1.89639e-13 0)
(1.83135 0.229461 0)
(1.84567 0.219646 0)
(1.86344 0.189158 0)
(1.83102 0.229524 0)
(1.83015 0.230232 0)
(2.11998 -0.260249 0)
(1.82983 0.228514 0)
(1.82962 0.228733 0)
(2 -3.16474e-14 0)
(1.86133 0.192367 0)
(1.83218 0.228872 0)
(1.83452 0.234649 0)
(2 1.14596e-13 0)
(1.82927 0.228679 0)
(1.82754 0.228657 0)
(2 -1.70581e-14 0)
(1.83058 0.232296 0)
(1.83136 0.2288 0)
(1.83113 0.228584 0)
(1.83052 0.229501 0)
(2 -9.2254e-14 0)
(2 1.10873e-13 0)
(2 2.56062e-14 0)
(1.83211 0.22895 0)
(2.1183 -0.261064 0)
(2 1.31633e-13 0)
(1.83143 0.228966 0)
(2 1.80923e-13 0)
(2 1.03924e-13 0)
(2.12708 -0.264766 0)
(2 3.31867e-14 0)
(2 -7.41111e-15 0)
(1.83125 0.228865 0)
(1.83153 0.229073 0)
(2 5.84381e-14 0)
(1.83189 0.228679 0)
(1.83427 0.2298 0)
(1.83271 0.229641 0)
(2.01223 -0.0212098 0)
(1.83152 0.229 0)
(2 1.88202e-14 0)
(1.83141 0.228933 0)
(1.8315 0.229128 0)
(1.85894 0.19861 0)
(2 3.5775e-14 0)
(2 -1.33031e-13 0)
(2 7.12102e-15 0)
(1.83042 0.230096 0)
(1.83109 0.229052 0)
(1.8317 0.229089 0)
(2.01424 -0.026229 0)
(2 5.84437e-14 0)
(1.82389 0.229955 0)
(1.83119 0.229143 0)
(1.83224 0.22884 0)
(2 7.88926e-14 0)
(1.8312 0.229049 0)
(1.83086 0.228594 0)
(1.83134 0.229014 0)
(1.82446 0.23018 0)
(2 -7.194e-14 0)
(1.83204 0.228695 0)
(1.82985 0.231578 0)
(1.84761 0.199923 0)
(1.832 0.228943 0)
(1.82515 0.230113 0)
(2 -6.73616e-15 0)
(1.83208 0.230858 0)
(1.83361 0.226852 0)
(1.83165 0.229085 0)
(1.83021 0.229262 0)
(1.83193 0.228267 0)
(2.11627 -0.264374 0)
(1.83243 0.229313 0)
(1.83139 0.229375 0)
(2 6.11252e-15 0)
(1.83129 0.229035 0)
(1.83159 0.229089 0)
(1.83136 0.228864 0)
(1.83214 0.228808 0)
(2 -4.98529e-08 0)
(1.83163 0.229128 0)
(1.83127 0.229139 0)
(2 -1.79012e-07 0)
(1.83173 0.228809 0)
(1.85799 0.199433 0)
(2 -9.6007e-14 0)
(2 2.43672e-14 0)
(2 1.04939e-09 0)
(1.83128 0.230416 0)
(1.83164 0.22923 0)
(2 -1.39262e-14 0)
(2 1.47508e-13 0)
(1.9065 0.13883 0)
(2 3.09083e-13 0)
(1.83193 0.229083 0)
(2 2.28569e-13 0)
(2 9.02201e-14 0)
(1.83159 0.228912 0)
(1.83067 0.229518 0)
(1.83145 0.228934 0)
(1.83181 0.228852 0)
(2 1.31175e-14 0)
(2 7.4498e-14 0)
(2 -1.60538e-13 0)
(1.88066 0.164667 0)
(2 -2.34089e-13 0)
(1.83184 0.228992 0)
(2 2.38162e-13 0)
(2 2.51328e-13 0)
(1.82894 0.228785 0)
(1.83042 0.228979 0)
(2 -3.04992e-14 0)
(1.83172 0.2289 0)
(2.10866 -0.276636 0)
(1.8316 0.229262 0)
(1.83104 0.230007 0)
(2.10298 -0.20389 0)
(2 -1.73617e-13 0)
(2.13113 -0.274785 0)
(1.84783 0.201 0)
(1.83031 0.230424 0)
(1.8324 0.228463 0)
(1.83224 0.228637 0)
(2.1225 -0.263479 0)
(1.8315 0.228706 0)
(1.83119 0.229511 0)
(2.12227 -0.261315 0)
(2.11003 -0.282806 0)
(2 -2.59183e-07 0)
(1.83162 0.228652 0)
(1.83215 0.228587 0)
(2 4.67914e-14 0)
(2 3.74381e-15 0)
(1.83167 0.228993 0)
(2 2.89334e-14 0)
(1.82985 0.231147 0)
(2 2.10071e-06 0)
(1.85219 0.205549 0)
(2 -3.96378e-14 0)
(1.92235 0.115493 0)
(1.83206 0.228616 0)
(1.83053 0.22997 0)
(1.88164 0.168705 0)
(1.84297 0.22231 0)
(1.82914 0.228897 0)
(1.83088 0.229621 0)
(1.83272 0.224376 0)
(2 8.71568e-14 0)
(2.12119 -0.259752 0)
(1.83073 0.229017 0)
(1.83216 0.229295 0)
(1.82989 0.2311 0)
(2 6.6548e-06 0)
(2 3.27855e-10 0)
(2 1.3904e-09 0)
(1.82726 0.228309 0)
(2 -5.32677e-14 0)
(1.83203 0.229272 0)
(1.83149 0.228624 0)
(2.0976 -0.175323 0)
(2 3.12018e-14 0)
(1.83168 0.22895 0)
(2.00002 -4.44987e-05 0)
(2 1.19511e-13 0)
(1.99999 1.92254e-05 0)
(1.99998 2.99336e-05 0)
(1.8322 0.229223 0)
(1.83323 0.229374 0)
(2.00052 -0.000902799 0)
(2 2.93977e-14 0)
(2 4.13824e-15 0)
(1.832 0.22892 0)
(1.83032 0.229758 0)
(1.83165 0.229137 0)
(1.82849 0.229088 0)
(1.83304 0.229324 0)
(2.12641 -0.252315 0)
(1.84727 0.223855 0)
(2 -2.37381e-13 0)
(1.83308 0.227284 0)
(1.83151 0.228881 0)
(1.83181 0.228852 0)
(1.83106 0.232525 0)
(2 -2.21736e-13 0)
(1.8318 0.228677 0)
(1.8362 0.223612 0)
(1.83063 0.229493 0)
(2 2.19732e-13 0)
(1.83052 0.229838 0)
(1.83146 0.227301 0)
(2.04847 -0.0890806 0)
(1.83201 0.2288 0)
(1.8303 0.229857 0)
(2 -1.27685e-13 0)
(1.83131 0.229076 0)
(2.04895 -0.11403 0)
(1.83116 0.229085 0)
(2.05392 -0.0891074 0)
(1.83169 0.228805 0)
(2 -1.24723e-07 0)
(1.83146 0.228949 0)
(1.82283 0.233649 0)
(1.83209 0.228961 0)
(1.83169 0.228962 0)
(1.8314 0.22888 0)
(1.82663 0.227454 0)
(1.83123 0.229123 0)
(1.82906 0.228664 0)
(2 2.00518e-14 0)
(2.02305 -0.05292 0)
(1.83116 0.22913 0)
(1.83153 0.228858 0)
(2.0438 -0.115054 0)
(1.83202 0.228907 0)
(1.99854 -0.00950366 0)
(1.89712 0.153047 0)
(1.83122 0.229086 0)
(1.82918 0.228685 0)
(1.83136 0.228685 0)
(2 3.04976e-14 0)
(1.83001 0.229943 0)
(1.89167 0.151036 0)
(1.83142 0.229187 0)
(2.02636 -0.0526971 0)
(1.83029 0.229893 0)
(1.82692 0.233069 0)
(2 4.3368e-14 0)
(2.04004 -0.0867287 0)
(2 -5.4951e-09 0)
(1.83382 0.232476 0)
(2 -6.64487e-14 0)
(1.8852 0.166313 0)
(2 4.81238e-09 0)
(1.83757 0.215252 0)
(2.03925 -0.0784876 0)
(2 2.1013e-14 0)
(1.83 0.230547 0)
(1.82819 0.228435 0)
(2 -1.1322e-13 0)
(1.83129 0.226316 0)
(1.83086 0.229807 0)
(1.83207 0.23026 0)
(1.82858 0.233562 0)
(1.82959 0.233136 0)
(2 1.36416e-14 0)
(1.82919 0.228451 0)
(2 -5.16713e-14 0)
(2 1.04262e-13 0)
(2 2.75173e-13 0)
(2.03513 -0.073988 0)
(1.83116 0.228697 0)
(1.83093 0.229595 0)
(1.83055 0.231564 0)
(1.83195 0.228886 0)
(1.83485 0.227909 0)
(1.8299 0.231025 0)
(1.83606 0.226205 0)
(1.83184 0.229253 0)
(2.03396 -0.0685284 0)
(1.98766 0.0232795 0)
(2 3.61662e-09 0)
(2 -7.22105e-14 0)
(1.82368 0.234675 0)
(1.83186 0.229138 0)
(1.83127 0.228909 0)
(1.83202 0.228945 0)
(1.99999 1.6729e-05 0)
(1.91708 0.122189 0)
(2 -1.6797e-07 0)
(1.83096 0.23176 0)
(1.86042 0.205258 0)
(2 -3.18469e-12 0)
(2 -5.83106e-11 0)
(2.09251 -0.18428 0)
(1.83154 0.229154 0)
(2 1.1822e-14 0)
(2 2.0386e-14 0)
(2.09045 -0.261138 0)
(1.832 0.228819 0)
(2 2.22741e-14 0)
(1.83041 0.228837 0)
(1.83163 0.228945 0)
(1.82909 0.228805 0)
(1.83826 0.221248 0)
(1.83154 0.228971 0)
(2 -2.67805e-10 0)
(2.12956 -0.26543 0)
(1.95599 0.0675885 0)
(1.83133 0.2283 0)
(1.83146 0.228942 0)
(2 -9.90554e-14 0)
(1.83181 0.229238 0)
(1.83127 0.228928 0)
(1.91753 0.127902 0)
(1.99881 0.00770237 0)
(1.96578 0.0557363 0)
(2 7.58931e-15 0)
(1.8311 0.228987 0)
(1.83169 0.229083 0)
(2 -1.17426e-07 0)
(2 -2.34197e-10 0)
(2.12254 -0.2622 0)
(2 -2.46734e-10 0)
(2 2.03163e-14 0)
(1.83212 0.228953 0)
(1.83156 0.229003 0)
(1.8319 0.229021 0)
(1.83173 0.229089 0)
(1.83134 0.228974 0)
(1.82825 0.230403 0)
(1.83139 0.229264 0)
(1.8315 0.228345 0)
(1.83141 0.228977 0)
(2 2.41603e-13 0)
(2.00139 -0.00270364 0)
(1.83132 0.229322 0)
(1.83212 0.228935 0)
(2.00104 -0.00188681 0)
(1.83137 0.228873 0)
(1.83136 0.229051 0)
(2.12192 -0.257173 0)
(2.09388 -0.260758 0)
(1.83103 0.229643 0)
(1.8315 0.228764 0)
(2 -3.1114e-14 0)
(2 1.79486e-13 0)
(1.99993 0.00126909 0)
(1.8316 0.228942 0)
(1.83198 0.228724 0)
(1.83203 0.228794 0)
(2 1.03983e-09 0)
(1.83137 0.228844 0)
(2 -1.14847e-13 0)
(2.04803 -0.0971952 0)
(1.82993 0.231919 0)
(1.83753 0.229634 0)
(2 -7.63933e-14 0)
(1.92007 0.111683 0)
(1.83015 0.228701 0)
(2 1.48905e-13 0)
(1.82934 0.227563 0)
(2 -1.01488e-10 0)
(1.83209 0.228735 0)
(1.88453 0.156401 0)
(1.83145 0.228696 0)
(2 1.68861e-11 0)
(1.83114 0.229379 0)
(1.82885 0.230345 0)
(2.12277 -0.262839 0)
(1.83161 0.22909 0)
(2 -1.33451e-07 0)
(1.83167 0.227985 0)
(1.82991 0.229001 0)
(2 7.28361e-09 0)
(2.12147 -0.258305 0)
(1.8303 0.2303 0)
(1.85552 0.214032 0)
(2.00087 -0.00123827 0)
(1.84724 0.21545 0)
(1.83155 0.22912 0)
(2 -5.26296e-12 0)
(1.99728 -0.00290379 0)
(1.82965 0.230676 0)
(2.00187 -0.00133313 0)
(1.83143 0.228938 0)
(2 -3.01971e-12 0)
(2 -1.22006e-13 0)
(1.82998 0.229121 0)
(2 1.07322e-13 0)
(1.82875 0.229723 0)
(1.83129 0.228962 0)
(2.00135 -0.00228392 0)
(1.86165 0.187222 0)
(2 3.07482e-09 0)
(1.83138 0.229076 0)
(2 1.87091e-09 0)
(2 -9.98586e-13 0)
(2 1.14676e-11 0)
(2 6.51884e-12 0)
(1.83198 0.229024 0)
(2 7.01632e-09 0)
(2 -1.27944e-13 0)
(1.83097 0.235419 0)
(2 1.28099e-13 0)
(1.83142 0.229169 0)
(2 2.98809e-10 0)
(1.89158 0.157319 0)
(1.82971 0.228222 0)
(1.83094 0.229812 0)
(2 8.69322e-10 0)
(2 -2.14692e-13 0)
(1.99909 -0.00480638 0)
(2 1.91728e-12 0)
(1.83129 0.228754 0)