/*--------------------------------*- C++ -*----------------------------------*\
  =========                 |
  \\      /  F ield         | OpenFOAM: The Open Source CFD Toolbox
   \\    /   O peration     | Website:  https://openfoam.org
    \\  /    A nd           | Version:  12
     \\/     M anipulation  |
\*---------------------------------------------------------------------------*/
FoamFile
{
    format      ascii;
    class       volScalarField;
    location    "3.8";
    object      p;
}
// * * * * * * * * * * * * * * * * * * * * * * * * * * * * * * * * * * * * * //

dimensions      [1 -1 -2 0 0 0 0];

internalField   nonuniform List<scalar> 
46253
(
0.861219
1
1
1
1
1
0.799827
1.12622
1
1
0.862686
0.802069
1
1
1
1
1
1
1
1
1
1
1
0.827913
0.809211
1
1
1
1
1.12263
1.1278
0.999986
0.999972
1
1
1
1
1
1.11652
1
0.790545
0.802052
1
1
0.752031
1
1
1
0.996099
0.98637
1.14903
1.21902
1
1.10612
1.00002
0.867897
1.49715
1.47634
1.26466
0.799978
1
0.783733
1
1
1
1
1
1
0.870348
0.755949
0.790946
1.46299
1.46244
1.07079
1
0.824374
1.36972
1.36644
1
1.0003
1.00056
1.41868
1
1.41515
0.801819
1
1.30514
1.30316
1.17611
1
1
0.791766
1
1.56738
1
1.56833
1
1
1.2614
1
1
1
1
1.12413
0.999992
0.803777
0.805535
1.25131
1.24896
0.825823
1.11364
1.4428
1.43436
1
1
1.18667
0.76209
0.800165
1.4744
0.881715
1
1
1.40344
1.39856
1
1.48012
1
0.849564
0.98993
1.35191
1.2174
1.21532
1
0.809539
1.34791
1
1.33175
1.32928
0.878196
1
1.37766
1.19704
1.19527
1.11184
1.38121
1.00098
1.31385
1.31142
1.11579
1
0.823729
1
1.34116
1.33808
1.06963
0.7573
0.84802
1
1.28766
1
1.28565
0.806119
0.865315
1
0.808325
1.32238
0.810738
1.32062
1.70397
1
1.27257
1.27068
1
0.784704
1
0.744388
1.10177
1
1.06666
0.764242
0.999998
1.06745
1.25818
1.25631
1
1.29634
1.29328
0.749331
1
1
1
1
0.784351
1
1
1
1.11251
1
1.09848
1.09601
1
1
1.27998
1.27833
1
0.759268
1.06328
1.23675
1.23504
1
1
1.47428
0.787252
1
1.09432
1
1.10689
0.807458
1.2238
1
1
1.22209
0.742114
1.26531
1.26351
0.805439
1
1
1.07153
1.06901
1.20196
1
1
1
1
1
1
1
1.19827
1.21946
1
1
1
1
1
1
1
1.0621
1
1.20273
1.20117
1.21617
1.04458
1
1.04116
1.2437
1.24133
0.89238
0.795044
1
0.805469
0.777701
0.820763
1.11583
0.978277
1
1
1
1.23035
1.18365
1.22896
1
1
1
1.18223
1
1.00032
1
1.10308
0.914467
1.0168
1.01518
1
1
1
0.788097
0.781393
0.881918
1.09607
1
1.25192
1.24891
0.802429
1
1.23995
1.16286
1
1.15974
0.797919
1.1713
1.45631
1.16981
0.85464
1.45409
1
1.20994
1.20756
1
1.11584
1
1
1.07917
1
1.15927
1
1.15789
0.870226
1.23672
1
1.09632
0.849272
1
0.808974
0.810404
1.1159
1.09069
1
1
1.1469
1.14546
0.971609
0.970599
1
1
1
0.765697
0.887341
1.19063
1.1884
1
1
1
1
1.49393
1
1.13614
1.13478
1
0.877469
1
1.10558
1
0.759239
1
0.810568
1
1.17714
1
1.17556
1
0.810462
1
1
1
1
1
1
1
1.12472
1
1
1
1
1.12286
1
1.22873
0.875596
1
1
1
0.804104
0.760363
0.850809
1.16499
1.0993
1.16356
1
1
1.11324
1.5082
1
1.09918
1.11198
0.771431
1
1.11965
1.04842
1.04821
1
1.12046
1
0.922553
0.919956
1.22608
1
0.999097
1
1
1
1
1
1
1.41417
1
1.11783
1
0.787116
1
1
0.89407
1
1
1.10301
1
1.15304
1
1
1.10181
1.15106
1
1.0916
1
1
1
1
1.08032
1.12377
1
1
1.11097
0.851979
1
0.7819
1
1.08643
1.07433
1
1
0.879166
1
0.916494
1.12522
1
0.786816
1
1.35305
1.11064
0.998272
1.14104
1.08957
1
1.08671
1.08845
1.13976
1
1.08641
1
1
1
1
1
1.06519
1
1.1096
0.854941
1.0851
0.901512
1.05709
1.084
0.975395
0.893713
0.893251
1
1
1
1
0.991511
1
0.919525
0.804352
0.782363
0.921656
1.0869
0.79448
1.08468
1
1
1.13048
1.11214
0.822041
1.12915
1.0756
1.07452
0.875467
0.792162
1
0.875698
1.12066
1
1
1
0.783516
1
1.0928
0.784835
1
1
1.09788
1
1
0.7686
0.727007
1.12618
1
1
1.12673
1
1.12494
1.13024
1.12531
1
1.11873
1.11631
1
1.08761
1.11304
1
1
1.11793
1
0.81377
0.898038
1
1
1.11657
1
1
1
1
0.774358
1
1
1.05765
0.904033
1.05648
0.80234
1
1
1
1
1
1
1
1.08527
0.785804
1
1
1
1
1
1
0.810124
1.10385
1
1.08754
1
1
0.852819
1
1
1
1.10782
1
1
1.10661
1.08327
1.15087
1
1.15552
1.15598
1.1597
1.16441
1
1.04862
1.04772
1.09889
1.10816
1
1
1.07408
1
1.45103
1.07931
1
1.45695
1.00803
1
1.11423
1.12302
1
1
1.15616
1.09245
1
1
1.03771
0.999963
0.999989
0.992522
0.996494
1.28512
1.28845
1.26831
1.26793
0.745405
1.08223
1.25575
0.75865
1.25787
1.24298
1
0.812306
0.842083
1.2451
1
1.23441
1
1.23546
1
1.09398
1.22441
1
1.22589
1.35203
1
1.21367
1
1.2156
1
0.776023
1
0.909091
0.843855
1
1
1.20216
1.20408
1
1.11934
1.19004
1.19249
1.0354
1
1
1.17509
1.03144
1.17601
1
1.09122
1.16474
0.858018
1.16648
1.03081
1.08905
1
1
1
1.15492
1.15669
1.08652
1
1
1.14512
0.928684
1.14654
0.849751
1
1.12874
1.13078
1
1
1
0.782576
1
1.11398
1.03313
1.1318
1
1.1139
1
1.11526
1
1
1.11607
1.11711
1.10383
1.10585
1.0801
1.12525
1.09385
1.12883
1.0957
1
1.04981
1.0784
1.08073
1
0.885404
1.06939
1.07013
1.64903
1
1
1
1.0596
1.07445
1.05989
0.790747
1.11346
1.08867
0.825724
1.04989
1.05169
1.03381
1.04262
1.04356
0.879741
0.872483
1
1.12044
1.47095
1.02103
1
0.833882
1.01958
0.860796
1.11324
0.820655
1
1
1
1.08029
1
1
1
1
1
1.07935
1
1
1
0.897353
0.887824
1
1.04482
0.745573
0.857825
1
1
1
1
1
0.755558
1
1.08502
1
1.14539
0.772049
1.14917
0.868732
1
0.774919
0.795577
1.15849
1
1
1
1
1
1.15232
1.14968
0.7633
0.823617
0.824057
1
0.911048
1
1
1.15334
1.02822
0.999575
1.12958
1.04555
1.00002
1.04798
1.05452
1
1.15656
0.851361
1.08024
1
1.08382
1.00627
1
0.999999
1.08801
1.0966
1
1.00489
0.734689
1
1
1.18478
1.18652
1.0819
1
0.73528
0.731209
0.79927
0.95023
1
1.11461
1.11302
0.853641
1.3425
1
1
1
1.13919
1.14083
1
0.995702
1
1.0637
1.12398
1
1.0073
1.12516
1.06149
1.08438
1.07986
1
1.08182
1.12109
0.833276
1.0819
0.851414
1.08872
1
1
1.08976
1
1
1.09325
1.08515
1
0.995957
0.889629
1.11846
0.879844
0.885121
0.994609
0.880596
0.876808
0.848201
0.845955
1
1
1.11589
1
1
1.09109
0.901725
0.88979
1
1
1.12424
1
1.11707
1.12433
1.15215
1.34205
1.10625
0.999308
1
0.999955
1
1.08846
1.12401
1.10763
0.732002
1
1.05275
1
1.12241
1.11652
1.05217
1
1.11051
1.09789
1.10997
1
1
1
1
1.09824
1.12103
1
1.03091
1
0.878847
1
0.878714
0.848262
0.808264
1
0.986499
0.985701
0.796395
1.40399
1
0.887504
1.12291
1.12441
0.888207
1
1
1.08223
0.787488
1
1
1.11954
0.769509
1.16927
1.09016
1
1
1
1
1
1
1.51444
1
0.858273
0.871469
0.866473
1.05941
0.81342
0.744213
0.787695
0.891207
1.11248
0.852077
0.7345
1.21951
1.22943
1.23855
1.20809
1.22112
1
1.06429
1.2313
1.24906
1.21017
1.08141
1.23995
1.17209
1.19638
1.25207
1
1.26073
1.19861
1.26365
1
1.17967
1.25772
1.26658
1.26861
1.18135
1.25886
1.28107
1.17052
1.22958
1
1.0007
1.17191
1
1.16032
1.00033
1
1
0.977122
1.16136
1
1
1
1.14986
1.16017
1
1
1
1.15098
0.97548
0.82044
1.13449
1
0.972592
1.1357
1.11923
1.1207
0.869169
1.10961
1.11072
1.09916
1
0.834148
1.10031
1
1.08469
0.812262
1
1
1.08544
0.91637
0.814592
1.07319
1.07412
1.06335
1.03698
1.06534
0.805904
1.05575
1
1.02333
1.03509
1.05662
1.03834
1.01771
1.08409
1.04645
1.10387
1.02147
0.795887
1.04652
1.03609
1.03796
0.858455
0.824002
0.734628
1
0.825729
1
0.828793
0.824708
0.823354
1
1.47348
1.10425
1
0.981204
0.968752
1.09729
1.10571
1
1.11211
1.15662
1.16693
1.1345
1.17201
1.15229
1.15868
1.1537
1.15034
1.05621
0.876694
1.12409
1.08773
1
0.97964
0.894283
0.858724
1.0237
1
1.21059
1.15304
0.800617
1
0.964324
0.791904
0.991554
0.962737
1
1.30611
1
0.938408
1.0235
1.0661
1.14866
1.03634
1.04306
0.870989
1.02647
0.997308
1.02504
1.01952
0.805539
0.802893
0.883399
0.849077
0.977403
1.16353
1.0309
1
1.16253
1.24732
0.942479
1.011
1
1
1
1.10752
1.03848
1
1
0.81922
1.01574
0.849458
1
0.802427
1
1.1018
0.952019
1
1
0.726684
0.854675
1.27749
0.860999
1.12778
1.129
1.00003
1.16889
1.1156
1
0.962836
1
1.02941
0.952436
0.980341
0.901134
1
1
0.977678
0.968452
1.1292
1.09135
1.112
1.11336
1
0.951698
1.11339
1.08113
1.08124
0.848154
1.03329
1
0.954654
0.917429
1.11471
0.827103
1.11127
1.15384
1
1
1
0.899975
1.10308
1
1.08002
1.10606
1.10937
1.11447
0.886289
1.0748
0.787102
0.795991
1.20419
1
1
0.962974
1.2204
1
1
1
1.09401
1
1.09414
0.771849
1.0529
0.974695
1
1
0.973936
1
1.30139
1.08903
1.29093
1.30198
1
0.790474
1.29598
1.09123
0.975181
1.20054
1
0.786761
1.2735
1.24001
0.967412
1
1.19189
1.27513
1.25412
0.999995
1.11824
0.736213
1.00002
1
0.890862
1.25715
1
1.21552
1.13719
1
1
0.804114
1.23197
0.946543
1.1117
1.25618
1.01227
0.842656
1.18139
1.23467
1.23495
1.10308
0.94498
1
1.14099
1.01058
1.13231
1.14955
1
1.21429
1
1
1
1.21248
1
1
0.926212
0.967898
1
0.933334
1.21624
1.1252
1.09271
1
1.043
1
1.12073
1
1
1
1
1
0.973817
1
1
1
1
1
1
0.761674
0.794139
1
1.01469
1
1
1
1.11585
0.914349
0.848928
1
0.832096
1.13643
1
1
1
1.02935
0.999993
1.15752
0.999997
1.25291
0.875421
0.875413
1
1.19825
1
1
1.15686
1
1.27194
1.26515
1.11301
1.25035
1
1
1.21489
1.21668
0.887645
1.20877
1
1.21043
1.14436
1
1.2033
1
0.944218
0.946833
0.889899
1.19792
0.880426
0.934973
1
1.20408
0.956298
0.956925
1.14804
1.15308
0.828487
1.15396
1.14723
1.02908
1.14987
1.15073
0.933704
1.18832
1.19135
1.10533
1.3099
1.1508
1.18425
1.19265
1.15144
0.932458
1.15536
1
0.964535
1.15442
1.18566
1.2977
0.882634
1.11958
1.15443
1.34609
1.00004
1.17705
0.882786
1.17717
0.915621
1
1.05103
0.852299
0.999061
1.10231
1.25293
1.15749
1.09519
1
1.10993
1.23099
1
1
0.735364
1
1
1.11316
0.918919
1
1.32855
1.31082
1.32736
1
0.870006
1.00861
1.15224
1.15157
0.794334
1.31642
1.09465
1.04145
1.1986
0.935539
1.21051
1.29707
1.18281
1.29875
1.27422
1
0.929766
1
0.975155
1
0.802026
1.09035
1.27669
1.15869
1.1021
1.16058
1.11311
1.23521
1.146
1.16035
0.895882
1.20779
1
1.25418
1.25737
1
1.0887
1
1
1
1
1
0.920521
1
0.926271
0.813473
0.869103
1.22386
0.816808
0.868107
1.23776
0.846081
1
0.812883
0.926052
0.943829
1
1.1149
1.04514
1
1
1.26374
0.770369
0.896363
0.891817
1.13886
1
1
0.722668
1.0102
1.0906
1.19741
0.76707
1
1
1
1.30871
1
1.21963
1.22229
1.08171
0.815054
1.19399
1.20974
1
1.11429
1.21191
1.29759
1.04916
1
1.25955
1
1
1.13102
1.19662
1.12278
1.24395
0.815178
1.25138
1.26379
1.1939
1
1
1.13895
1.00502
1.00045
0.991457
1
0.850506
1.00017
1
1.1629
0.822116
1
1.17626
0.779166
1.17969
1
1
0.990509
1.20759
0.819706
0.873386
0.774881
0.955304
0.930045
0.946461
0.81649
1.12105
0.982583
0.964684
1
1.16517
0.818968
0.8161
0.957434
1.18346
1.17081
0.918354
1
1
0.96479
0.964357
0.802548
1
1.13282
0.840105
1.14638
1.14022
1.14926
0.949495
1.13648
1.19877
0.787377
1.20034
0.801446
0.935567
1.1347
0.941922
1.10595
0.811426
0.917422
1.14595
1
0.927228
1.13312
0.854201
1.27491
0.887581
1.1071
1.15618
1.27425
0.815751
1.11542
0.960928
1
1.15151
1.11884
1.20219
1.22709
1
0.976535
1
1.07333
0.914177
1.14115
0.82368
0.81908
1
0.817815
0.8731
1.10864
1
0.820731
1.08249
1.04235
1.34856
1.08892
0.825208
0.907529
0.954906
1.03206
1.34562
0.826574
1.07945
1.08958
1
1.09244
1
1.08585
1.26098
1.08077
0.861309
1.23824
1.02002
1
0.827082
1.2887
1.03321
1
0.819897
1.29205
1.18002
1.51446
1.13185
1
1.05467
1.28066
1.06108
1
1.26804
1.06463
1
1.17717
1.27013
1.1057
1.33466
1.24647
1.05464
0.935394
1
1
1.2494
0.848016
1
0.859298
1.09871
1.18081
1.18719
0.86375
1.1138
0.935627
1
0.873732
1.31619
1
1
1.20312
1.31279
0.861072
0.913646
1.03533
0.80841
0.803436
1.02313
0.932125
1.03606
1.02594
1.00591
1.23846
1.03737
1.02865
1.12575
0.912736
1.02135
1.01681
1.05783
1.10939
0.856319
1
1.02795
1.31901
1.01426
1.20768
1.31622
0.874031
1
1.01752
0.984243
1.10815
0.892035
1
1
1.03652
1.03606
0.943352
1.11094
1
1
1.11377
0.942453
0.981981
1
1
0.752727
0.998841
1.00039
1.2668
1.09534
0.879859
0.956092
0.986446
1
0.878153
0.980071
0.916893
0.867687
1.12674
1.14839
1.39148
1.18875
1.09142
1.19998
0.960314
1.19926
1.19025
0.80852
1.12066
1.13449
1
0.812914
1
1
0.95499
0.947004
0.969684
0.950439
1.26674
1.14382
1
1
0.966463
1.15733
0.894435
0.924288
0.962295
0.893299
1.14476
1.04385
1.15925
0.901767
0.854477
0.955354
1.32103
0.864839
1
1.01616
1.13188
0.900027
1.32259
0.97209
1.0877
1
1
1.08569
0.997934
1.28005
1
0.999989
0.995625
1
1.12986
0.918672
0.906716
0.895648
0.95745
1.13036
0.922802
1
0.904515
0.90323
1
0.850226
0.802498
0.923996
1.08614
1.09376
1
1
1.13974
0.934696
1.14509
0.907611
0.910347
1.316
0.899249
0.990105
1
1.10216
1
1
0.834987
1.08353
1.08826
1.10412
1
0.799806
0.835597
0.91395
1.20596
0.912469
1.2308
0.94481
1.233
1
1
0.889721
0.929221
1.13349
0.91191
1
1
0.813111
0.909865
0.866655
0.912117
1.07597
1.02765
0.973511
1
1.18798
1
1.07718
1
1.21369
0.994154
0.801456
1
1.11588
1
1
1
1
1
1
1.23735
1.20654
1
1.21603
1.19503
1
1.08271
1.29469
1
1.02918
1.01439
1.2075
1
1
0.900774
0.856029
0.92291
1.14339
1.19641
1.18914
1.02685
1.0922
1.12483
1
1
1
1
1.1518
1.04861
1.17955
1.14196
1.15617
0.921004
1.05202
0.899702
0.928518
1.01093
1.32301
0.816752
1.17858
1.09023
1.18134
1.09297
1
1.02206
0.814245
1.14213
1
1
1.13344
0.811853
0.937845
1.01317
0.809066
1.3307
1
0.89787
1
1.0473
0.803355
0.808149
1.14943
0.888821
0.935926
1.08184
1.32521
1.11522
1.3404
1.05943
1
1.14703
1.1196
0.893737
1.2811
1.26312
1.04464
1
1
1.11499
1.30278
1.16513
1.24071
1.31803
1.14093
0.84513
1.04139
1
1.16078
1.13201
1
1.30492
0.983703
0.84457
1.28372
1.12089
1.15786
1.06306
1.2618
1.05904
0.967623
1
0.982465
0.975846
1.26415
1.05433
1
0.981908
1.07561
1.12139
1.14816
1.24252
1.12626
0.960524
1
0.875112
1
0.962491
0.816136
1
1
1.31276
0.804568
1.19654
0.817696
1
1
1.20176
1.03871
1.14787
0.816123
1
0.992909
1
0.952403
1.28734
0.804934
1.13518
0.811539
1.00195
1
1.21471
1.10401
1.0542
0.993401
0.949603
1.02073
1.06961
0.998498
1
1.22728
1.01816
1.2845
1
1.21591
1.20566
1
1.15176
0.92285
1.01409
0.784846
1.2311
0.793328
1.03535
1.04235
1.16895
1.00003
1.18373
1.03077
0.789891
1.42937
0.791593
1
1
0.999991
1.00968
0.789389
1.18577
0.854547
1.17155
1.13116
1.10735
0.999615
1.32383
1.17508
1.13831
0.920361
1.05698
1.09471
0.999287
1.11313
0.837882
1.08057
1.15272
1.30174
1.08896
1.12289
1.04229
1.15429
1.14177
1.02862
1.20692
0.965682
0.789808
1.0673
1.20801
1.11072
1.01818
1
1
1.03236
1
1
1.00081
0.881911
1.10833
1.12439
1.18234
1.11858
1.28694
1
1.04306
1.20661
0.929035
0.993558
0.931883
1.12705
0.820006
0.781818
1.11224
0.882461
1.19995
0.85697
0.94408
1.14864
0.929725
1.08381
1.19878
1.12434
1.31598
0.795758
1.09605
1
1
1.08216
1
1.10046
1
1.11976
1.09881
1.08614
1.09729
1.07868
1.40275
0.935128
1
1.20683
0.951617
0.954829
1.11361
1.4125
1.21783
1.14474
1.0562
1
1.10521
1.06965
1.02578
1.05517
1.13726
0.895506
0.850607
1.38267
0.9033
1.14035
1.13414
1.07278
1.14109
0.965999
1.05766
1.00231
1
1.38248
1.15097
0.967993
0.953343
1.04957
1.02156
1.03925
0.895855
0.929099
1.08641
1.0642
0.944083
1
1.14065
1.10159
0.962656
1.11763
0.971987
1.36029
1
1.0387
1.03243
1
1
1
1
1.36438
1.21745
1.02076
1.22397
0.950915
1
1.04261
0.968064
1.12898
1.01504
1.03399
1.08144
1.08318
1.11508
0.939217
1
1
0.994271
1.17068
1
1
0.961791
1.14331
1.02258
1.34311
1.0666
1.13293
1
1.1244
1.12776
1.12326
1.15258
1.16229
1.06689
1
1.0089
0.924309
1
1.34745
0.989039
1.15698
1.14712
1.15883
1.01088
0.923984
0.791812
1.24344
0.79296
1.17832
1.16521
1
1.12441
1.13174
1.1745
1.07734
1
1
1.12477
0.994772
0.925695
0.800167
1.1381
1
1.31626
0.954969
1.19234
0.932657
0.990666
1.18428
1.1876
1.12134
0.805946
1.31891
1.18045
0.929502
0.981996
0.965265
0.932334
1.25316
0.970469
0.812459
0.966448
1
1.00505
1.11761
1.0478
1.01588
0.94447
1.19999
1.31884
0.920431
1.05292
1.02327
1.05407
0.892579
1.10866
0.942098
1.19783
0.946411
0.925571
1.02399
0.91743
1.02609
1.12141
1.13275
1.1229
1.19505
0.927102
1.10658
0.920214
0.874979
0.95583
1.11851
0.957066
1.26653
1
1.05582
1
0.932885
1.26996
1
1
0.925941
1.2173
1
0.961716
1.01123
1.3227
1.08608
1.00008
0.802403
1
0.921595
0.961082
1.24227
0.947615
1.04283
1.24519
1.04326
1.04063
1.1496
1
0.802997
1
1.22992
1.00715
1.22331
1.01741
0.906087
1.20235
1.23312
1.20369
1
0.90562
0.795364
1.21342
1.20488
1.21768
1.12198
1.0085
1.21658
1.02943
1.09221
1.20577
0.915156
1
0.962567
1.31779
0.924375
0.802559
1.00009
1.20422
0.856804
0.924786
0.830402
0.978826
1.20621
1.01995
1.10585
1
1.02846
1.02882
1.28335
1.21721
1
1.18956
1.04399
1.13074
1.21172
1
1.21331
1.19234
1.15512
0.967961
1.22521
1
1
1.22107
1.17885
1.23347
0.814277
1.22864
1.18128
1
1.03334
1.06178
0.812812
1.16596
0.962418
0.842221
0.834265
1.25361
1.1687
1.20972
1.14108
1
1
1
0.96613
1.15448
1
1.00408
0.799629
1.238
1.10187
1.14394
1.096
0.939377
1.15691
1.03004
1.00105
1.16714
0.792513
1.01271
1.13387
1
0.793103
1.14585
0.941773
0.782793
1.14782
1.14308
1.24248
1.01023
1.25874
1.25416
1
0.935082
0.821796
1.14258
1
1
1.02662
1
1.25022
0.854538
1.14518
1.12818
1
1.16638
1.15304
1.02509
1.33327
1.04328
0.789558
1.13125
1.04457
0.959624
1.24611
1
0.955073
0.961724
1.03808
1.33775
1.13301
1
0.933206
0.88098
1.14721
1.26239
1.11754
1.13978
1.26647
1.14176
1
1.04295
1.0527
0.890045
1.53709
1.21802
1.31924
1.11989
1.03853
0.845071
1.20492
1
1
1.04521
1.04847
1.12316
1.15323
0.95537
1.0671
1.0293
1.30603
0.959344
0.999999
0.731792
1
0.796229
1.06503
1.10647
1.10846
0.987974
1
1
1.26995
1.29373
1
1
1.08145
0.985633
1.11878
1.27889
1.07711
1.06537
1.09
1.09214
1.14349
0.960227
1
1.06616
1.09377
0.950396
0.961521
0.858376
1.08925
1.14639
1
1.14284
1
1
1.32685
0.960623
0.995822
1.2578
1.0783
1.31897
0.962583
1
1
1.08038
1.33577
0.945965
0.813204
1.10942
1
1.26209
1.07815
1.10527
1
1
1
1
1.12125
1
0.958165
1.06267
1.01965
1.12949
1.0659
1.00001
1.11992
1
1
1
1.13178
1.05276
1.05471
1
1.12161
1.12782
0.880891
1
1
0.866171
0.955297
1
0.905142
1.14525
1
1
1
1
1
1.03647
1
0.971901
1.14231
1
1.18164
1.13772
1
1.04049
0.780199
1
0.893484
1.13548
1
1
1.17932
1.19744
1
1
1
0.867822
0.863934
0.966622
1.16136
0.814979
1.17917
1
1
0.886808
1.1778
0.997602
0.864461
1.15741
1
0.983353
1
1.19229
1.22701
0.979288
1
0.85851
1
1
0.878219
0.782595
1.17448
0.997334
1
1.1901
1
0.96152
0.902525
1.1768
0.798823
0.998993
0.81572
1
0.853909
0.922217
0.95353
0.962588
1.202
1.10242
1.17331
0.996984
1.0037
0.877313
1.23418
1.01933
0.99374
1
1
0.881159
0.867346
1.13034
0.81992
1.19669
1.42114
1.20388
1
1.19443
1.32699
0.916447
1.20983
1.38725
1.00941
1.01017
0.922406
0.895848
1.20143
1.3492
0.91246
1.20527
1.00616
1.10979
1.10572
0.86156
1.0361
1.37098
0.912885
0.867854
1
1.10224
1
1
0.860458
1.23166
1.39188
1.04151
1
1
1.03792
1.03148
1
1.35267
1
1.23051
1.10381
1
0.706352
1
1.22755
1
1.01643
0.857738
1
1.37665
0.784791
1.22615
1
0.788556
1
0.794325
1.02184
1.00096
1.24512
1.01661
0.841054
1.24234
1.07465
0.89734
1.22777
1.32396
1.35517
1.03473
1.24052
1.23889
0.84718
1.07604
1.14469
0.901986
1
1.18541
1
1.31596
0.968413
1.25732
1.25935
0.839127
0.982804
1.02195
1
1.05235
1.13247
0.968372
0.99446
0.936812
1.32768
1.0395
1.00891
1
1.04954
1.25542
1
1
1
1.253
1.01034
1.10695
1.05076
1.01805
1
1.26891
1.31186
1.1974
1.26658
1.03176
1
1.31961
0.844254
1.26401
1.27395
1.0336
1.19415
0.998813
1
0.931479
1.26358
0.956473
1.30142
1.24919
0.964748
0.966679
0.963571
1.3811
1.27684
0.967581
0.851427
1
1.19274
1.25308
1.13092
1
1.28614
1
1.22555
1.12311
0.927209
1.24673
1.23695
1.08773
0.946103
1.17305
1.22339
1.20862
1
1.09679
0.955349
0.896287
1.08873
1.28305
1
1.25294
1.26546
1.22094
0.955366
0.95928
1
1.2676
1.21832
1.35194
1
1.19705
0.896093
1.18389
1.22818
0.942088
1.23931
1.20839
1.05172
1.21106
1.25026
1.01548
1.14085
1.17322
1
1.03663
1.09352
1.22534
1.19681
1.18414
0.865266
1.28419
1.25835
1.27041
1.0392
1.05699
1.14887
1
1.13915
1.21014
1.0933
1.18403
1
1.28112
0.969022
1
1.3601
1.20058
1.17208
1.10374
1
1.28655
0.965922
1
1.18632
1.15594
1.16006
1
1
1.10097
1.17502
1
1.15423
1
1.14851
1.14664
0.894727
1
1.16278
1
1.13606
0.858647
1.00016
1.06426
1.1645
1.15119
1.12641
1
1
1
1.11772
1.16209
0.960938
1.13898
1.12463
1.11182
1.16284
0.855662
1.0181
1.19279
1.00001
1
1.0489
1.02333
1.01822
1
1.11423
1.19568
1
1.12866
1.0401
0.897241
1.04069
1.1729
1.09437
1.09746
1.15986
1.1338
0.957443
1.11514
1.10976
1.10263
0.882008
1.04237
1.12559
1
1.35201
1.17083
0.965636
1.08339
1.26308
0.78678
1.14476
0.960685
0.933422
1
1.09959
1.17109
1.18988
1.12306
1.17284
1
0.787253
1.06957
1.09829
1.18192
1.08563
1
1
1.16867
1.05725
1.18692
1
0.825644
1
1
0.788053
1.17941
1
1.0721
1.23805
1.11326
1
0.939431
1.10177
1.18041
1.04447
1
1.05907
0.786171
0.96143
0.798783
1.22365
1.03345
1.14046
1
1.18967
1.21305
0.811306
1
1
1.02743
0.817999
1.04708
1.22868
1.13787
1.17784
1.1877
1
1.13297
1.20908
1
0.787131
1.02919
1.01601
0.909376
0.784248
1
0.956359
1
1.18821
1.14924
1
1
1.00948
1.08696
1.11527
1.07112
0.801018
1
1
0.933862
0.804194
1.15348
1.08199
1.31578
0.868785
1.18616
0.796651
1.20217
1
1.15045
1
1.1999
1
1
0.794114
1
1.19704
1.00846
1
0.715967
1.16103
1.01573
0.861062
1.28319
1.14933
1
0.86923
1.17499
1
1.19466
1
1.06088
1.06753
1.15848
0.944718
1.14226
1
0.870463
1.03143
1.42828
1.22307
0.820074
1
0.939193
0.818753
1.2148
0.940919
1
1
0.96911
1.12765
1
0.758149
1.14489
1.1713
1.13134
1.20468
0.801717
1.21206
0.990136
1.02711
1.07016
1.0022
1.00294
0.948895
1.16873
1.06459
0.927109
0.949178
1.10679
1
1.20256
1.02394
1
1
0.904689
1
1.22412
1.08474
1.11828
1
1.179
1.21995
1.08761
0.931477
0.852319
1
1.21324
1.08256
1.31298
0.776888
1.17623
1.08849
1.0988
0.92291
1.09567
0.853582
0.798766
0.798676
0.949041
0.803904
1.21096
1.19666
1
1.01477
1
0.876866
0.882155
1.27045
1.25331
1
1.15344
0.818121
0.961818
0.819058
1.18871
1.11916
0.805004
1
1.1329
0.971351
1.23113
1.14648
1.18369
1.2483
1
1
1
1.11503
1.08983
1.18604
0.874502
1.15086
0.856148
1.23606
1.01655
1.25776
1.09219
1.27422
1.1801
1.13274
0.956522
1
1
0.796068
1
1.1992
1.01841
0.885873
1.08299
1.05066
0.986143
1.10742
1
1.11895
1
1
0.953658
1.1992
1.0592
1.23367
0.925855
1.19523
0.986111
1.34366
0.934771
0.883818
0.756439
1
0.962871
1.19638
1.04109
1.04839
1.10273
1.04185
0.79818
1.04516
1
1.10235
1.10029
0.899586
0.999993
1.10192
0.928252
1.00627
0.962044
1
0.812997
0.794238
1.07216
0.999962
0.963344
1
1
1.04353
1
1
1.09878
1.15592
0.935656
0.935029
0.898249
1.09943
1.07301
1.20992
1
1
0.862227
0.915171
1.05001
1.02002
1.11196
1
1.08364
0.801056
1.04513
0.953003
0.912555
0.793919
1
1.15089
1.10049
1.08564
1.20737
0.994759
1
1
1.31962
1.07443
1.21285
1.08215
1.11227
1.1065
1.0154
0.99341
1
1.06914
1.05866
1.20966
1
1.0447
0.934259
0.849113
1
0.992101
1.1163
0.794388
0.95255
0.857076
1.1096
1.19137
1
1.15219
1.07796
1.22246
1.12528
1.02557
0.83576
0.797685
1.06746
1.10445
1.13218
0.914091
1.09787
1
1.12721
1
0.851869
1
1.24931
1.11489
0.800687
1
1.03361
1.219
0.942316
1
1.18799
0.939833
1
0.948511
0.911647
1.09449
0.937884
1.12162
0.957429
0.846395
1.21639
1.07364
1.08714
0.843613
0.928287
1
1.11808
0.964534
0.977891
0.962185
0.960621
1
0.80236
1.12891
1.00628
1.00023
0.985374
0.921598
1
1.11954
1.0362
1.13033
1.10276
0.925737
0.932295
0.936819
1.11624
1.10226
0.995715
0.946871
1.15027
1.11701
0.991865
0.883922
1
0.919495
1.15446
1
1.0825
1
0.910509
1.00665
1
1.12726
1.10179
1
1.15693
1
0.974252
1.00793
1.1473
1.14051
1
0.798583
1
1.17039
1.37453
1.05841
1
1.08467
1.21168
1.10472
1.13277
1.00861
0.869573
0.961594
1.00837
1
1.28289
0.929876
1
0.913747
1.14382
0.87191
1.0588
1.25242
0.794214
1.23133
0.923724
1
1.13547
1.21847
1.16591
1.09175
0.986543
0.999999
1.18645
0.999994
0.92835
1
1.22858
1.10386
0.906179
1.00021
1.11465
1.14163
1.21516
1
1.1869
1.36809
1.2196
1.06582
0.943903
1.18037
0.941124
1.09157
1.26339
1
1
0.941367
1.0032
1.17256
1.01611
1.20795
0.946092
0.912805
1.19038
0.868089
1
0.919417
0.991132
1.21968
1
0.939888
0.948824
0.792204
1.0924
1.21656
1
1
0.959446
0.8155
1.17539
0.784588
1.14946
1.03253
1.18419
0.792328
1.29219
1.03201
1.22788
1.2633
0.805177
1.02382
1
0.917671
1.34438
1.21285
1
0.918063
0.998595
0.833225
1.18584
1.13521
1.15341
1.06687
1.15003
0.873172
1.0827
1.24338
0.967425
1.26257
1.25031
1.04498
1.28148
1.23747
1.1477
1
0.926843
1.22446
1.2051
1
0.933011
1.08169
1.0757
1.2411
1.0701
1.15779
0.796789
1.0934
1.0694
1
1.09641
1.14529
1
1.16714
1.07274
0.929827
0.966597
1.07881
1
0.967596
0.916563
1.10633
1.09432
1.01442
1.12675
1.17588
1.07974
1.07755
1
1.28279
0.915604
0.959299
1.11476
1.01722
1.10978
1.18455
1.33675
1
1.10657
1.19388
1.25841
1
1.24763
1.27542
0.957496
1.23352
1
1.2201
1.15918
1.08077
1
1.18168
1.01414
1.27814
1.14289
1.07766
1.15538
0.803426
1.12152
1.19254
1
1
1.24026
1.21036
1.15538
0.924062
1.13769
0.913043
0.869216
1.03188
1.0112
1.01522
0.893926
0.957936
1.10723
1.13678
1.16483
0.910289
0.894297
0.957657
1.16485
1.01103
1.04668
1.27361
1.17317
1
1.00157
1.07309
1.07385
1.19261
1.20084
0.924189
1.19483
1.01305
1.2807
1.18239
1.09956
1.29384
1
1.17001
1.06177
0.921313
0.784729
1.01558
1
0.863577
0.774168
1.14568
0.770001
0.854096
1.06107
1.24528
1.126
1.19009
0.906372
1.3295
1.06209
0.888579
1.14031
0.819423
1
1.28853
1.20883
1.1411
1.34102
1.05286
1
1
0.902549
1.07772
0.825192
1
0.909686
0.810706
1.14198
1.13774
1.01478
0.934926
1.13253
1.1989
1.1404
1.15285
1
0.921081
1.05554
1.13071
1.29708
1
1
1.03339
1.09694
1.00006
1.24917
1.14321
0.9979
1.06405
1.24838
1
1
0.994328
0.889136
0.899042
0.848278
0.980223
0.897716
1.06897
1.20636
1
1.13964
1.16935
1
0.812778
0.982037
1.15715
1.04423
1
0.867546
0.814516
0.98176
1.05049
0.742214
1.12746
0.997895
1.02792
1.08648
1.06905
0.876738
0.888638
1.1046
1
1.01755
1.09543
1.12789
1.21497
0.875571
0.895569
0.881761
1.00649
1
1.07574
1
1.15991
1.20615
0.746487
0.880383
0.876985
0.896734
1
0.983485
1
0.806412
0.865718
1.0037
0.875975
1.13448
0.876178
1.24303
1.06249
1.37043
1
1.05378
0.876145
0.905151
0.875618
1.24648
1.242
1
1.12588
0.876893
1.28892
1
0.915113
1
1.22332
0.981824
1.06563
1.02848
1
0.745642
0.95934
0.87698
1.1233
1
1
1.01166
1.04399
1.10598
1.03375
1.00854
1.2208
1.20046
1.24298
1.01677
1.08759
0.780089
0.903535
1.20121
1.22103
0.997994
1
0.902397
0.908623
1.01999
1.22841
0.873197
1
1.0317
1
1.02422
1.01867
1.03887
0.944062
0.89926
0.741199
1.1934
0.999994
1
0.801418
1
0.87688
1.04279
1.209
1
1.0435
1.04588
1
1
0.869112
1.12594
0.87349
1.19121
1.11337
0.795796
0.92467
1.15531
0.868867
1.0332
1.18402
1.33258
1
1.15044
1.16747
1.03802
1
1.37793
0.821483
1.19126
1.09864
1
1.04007
1.20268
1.10143
1.27173
1.11163
1
0.987021
1
1
1.11694
1.05836
0.912102
1.17636
1.00015
1.05346
0.934596
1
0.893539
1.14829
1
1
1.23552
0.960393
0.742488
1.281
1
1.12205
0.978723
1.18685
1
1.23854
1.01469
1.20575
1.2051
0.985263
1
1.04828
0.824705
1.14558
1.05076
1
1.13588
1.2336
0.919513
1.17052
1.12039
1.18139
0.975093
0.947622
1.02952
0.944719
1.33525
1.07007
1
1
1.28107
1.34261
1.09516
1
1.04383
1.02785
1.20099
1.03079
0.999997
1.2038
0.875527
1
1.03609
0.946611
1.12856
1
1.14822
1.10816
1
0.809231
1
1.11897
0.93354
1
1.06768
0.96486
1.11946
1.00982
1
1.13697
0.811085
1.07131
0.959781
0.888571
1.02917
1
1.06629
1.14724
1.14008
1.25977
1
0.804238
1
1.07935
1.15732
1.38424
1
0.862216
1
1.13257
1
0.991819
1.11822
1.0843
0.806945
1
1.17336
0.786424
0.968754
1.24479
1.16659
1.2352
0.996026
1.07653
0.934754
1
1
1.02677
1.14538
1.0894
1.06514
1
1.32403
1.14733
1.01839
0.923814
1.04082
1.24502
1
1.09644
1
0.966741
1.24575
1.22477
1.22589
1.28805
0.895964
1.17479
1.37589
1.1552
1.32898
1.24404
1.17916
1.16555
0.983903
0.967162
1.01403
0.863366
1.18035
0.961305
1.00002
1.09395
1.01898
1
1.12953
1.22566
1.16329
1.18403
1.27295
1.10745
1.02131
0.932775
1.00282
1.22068
0.945147
0.985294
0.730309
1.30582
1.22759
1.24893
0.959222
1
0.8361
1.09263
0.830612
1.12995
1.06388
1.10618
1.17259
1.2046
1.00832
0.85479
1.1205
1
1.10412
1.31002
1.11615
1.19374
1
1
1.15811
0.842264
1.21213
1.23867
1.09072
0.834493
1.11965
1.07953
1.22378
1.03072
1.16819
1.16425
1.10785
1.18101
0.861006
1.09879
1
0.943238
0.919707
0.923564
0.843726
1.25251
1.08174
0.982435
1.13221
1
0.967031
1.2049
1.0557
1.11686
1.01384
1.17368
0.928168
0.845339
0.851907
1.21881
1.09863
1.01716
1.13073
1.07523
1.19109
1.3709
1.11596
1
1.03619
1.16804
0.796219
1.19942
1.12201
1.02971
0.785394
1.0163
1.10419
0.911363
0.929499
1.06971
0.904855
1.08617
0.792498
1.20368
0.791687
1.18932
1
1.38569
1
1.09695
1
1
1
0.999999
1.2808
1.12752
1.21425
1.11314
1.21035
1.02408
1.07929
1.07594
1
1
1.11905
1.11339
1.20203
1
0.960053
1.06304
1.1128
1.14281
1
0.786629
0.999989
0.85982
0.783822
1.20567
0.939424
1
1.13651
0.92594
1.19096
0.833472
1
1.20985
1.18736
0.879581
1.01951
1.13961
0.796737
1.19114
0.845356
1.0015
1.21189
0.843066
0.846367
0.923836
0.841069
1.19715
1
1.15539
0.859622
1.07083
1.22729
1
1.14988
1.152
1.05839
1.18601
0.834289
0.861879
1
1.27881
0.835985
0.83183
1.0268
1.17875
1.17158
1.18
1
1.1929
1
1.17385
1
1.15221
1.05179
0.801461
0.909769
1
1
1
1.17805
1.36525
1.16296
1
1
1.16099
1.05921
1
1.3412
0.857848
1.10506
1.01127
0.937326
0.936803
1.12768
1.04446
1.16573
1.18302
1
1.34189
0.917892
1.12729
1
0.926733
1
0.859186
1.18336
0.854223
0.976941
1.19288
1.02529
1.18502
1
1.00157
0.925532
1.22522
1.04137
1
0.953136
1.17299
1
1.24906
0.97606
0.89259
1.18596
1.28559
0.924927
0.855958
1.26713
0.934939
1
1.16247
1
1.00298
1.13076
1
1
1
1.11442
0.937354
0.880698
1.25279
1.23999
1.17976
0.962817
1.02689
0.880391
1.20297
1
0.956995
0.873325
1.19545
0.872956
1.10276
0.981049
1.17773
1.17333
0.914725
1.0105
0.882664
1.02266
1.01699
1
1.07001
1.12029
0.880301
0.915415
1.19115
0.907815
1
1
1.19547
1.09303
0.923866
0.83916
1.10496
1.18827
1
1.12609
1.13972
0.957138
0.983493
1.04065
1.19888
1
0.933538
1.17223
1.01963
0.855531
0.906727
1.19748
1.17689
1.29947
0.999998
1
1.18068
1
1
1.13529
1
1.17643
1.24316
1.00333
1
0.957329
1
0.928767
0.891031
1
1.00095
0.952386
0.97846
1.36159
0.972584
1.16903
1.04827
1.20592
1.02525
1.19012
1.17071
1
1.22715
0.917719
1.34376
1.11161
1
1.2318
1.2373
0.962136
1.04111
1.11638
1.00709
0.800127
0.88059
0.979062
0.931788
1.15246
1
0.999902
1
0.97703
0.878391
1
1
1
0.932047
1
0.959624
0.852178
1.0099
0.795653
1.25894
0.962112
1.07086
1.00008
1.16651
1.18646
0.894743
1
1.21766
1.3209
1
1
1
1.15845
1.34813
1.14551
1
1
0.960942
1
0.870856
0.99797
1.2226
0.996895
1.06353
0.887607
1.26849
1.20488
1.25255
1
1
1.03772
1.21685
0.831289
1
1.29953
1.28024
1.22241
0.836168
1.22765
1.049
1.10544
1
1.28198
0.995889
1.12
1.01889
0.91751
1.20837
1.13008
1
1
1.21384
0.797042
1.14621
1
1.14642
1.12102
1.30692
1
1.33823
1.10348
1
0.999997
1.11565
1.20191
0.9795
1.24426
1
1.27293
1.19512
1.2014
1.01
1.28991
0.855296
1.10789
1
1.24703
0.861286
1.29703
0.90151
0.98218
0.99323
0.8603
0.985682
1.00553
1.08921
1.09531
1.31393
1.07612
0.813731
0.986309
0.85782
1.1197
1
1.2888
1.18902
1.1835
1
1
0.857778
1.30134
1.27341