/*--------------------------------*- C++ -*----------------------------------*\
  =========                 |
  \\      /  F ield         | OpenFOAM: The Open Source CFD Toolbox
   \\    /   O peration     | Website:  https://openfoam.org
    \\  /    A nd           | Version:  12
     \\/     M anipulation  |
\*---------------------------------------------------------------------------*/
FoamFile
{
    format      ascii;
    class       volScalarField;
    location    "6.67";
    object      rho;
}
// * * * * * * * * * * * * * * * * * * * * * * * * * * * * * * * * * * * * * //

dimensions      [1 -3 0 0 0 0 0];

internalField   nonuniform List<scalar> 
22702
(
1.40001
1.40001
1.24964
1.40001
1.45142
1.40001
1.84005
1.40001
1.40001
1.04899
1.83812
1.84019
1.40001
1.84178
1.2687
1.40001
1.40001
1.40001
1.83894
1.40001
1.84218
1.40001
1.84024
1.01878
1.84296
1.0256
1.40001
1.83883
1.07739
1.02727
1.40001
1.84054
1.40001
1.40001
1.40001
1.80967
1.84362
1.84056
1.40001
1.40001
1.02345
1.40001
1.61832
1.40001
1.83729
1.40001
1.40001
1.40001
1.40001
1.0289
1.40001
1.02135
1.40001
1.83791
1.40001
1.84095
1.40001
1.40001
1.40001
1.40001
1.01913
1.40001
1.40001
1.07749
1.40001
0.985658
1.40001
1.40001
1.40001
1.02827
1.40001
1.84248
1.67231
1.40001
1.84346
1.86518
0.983758
1.84109
1.02132
1.40001
1.83889
1.02983
1.83989
1.835
1.40001
1.40001
1.40001
1.40001
1.32564
1.03654
1.8413
1.40001
1.40001
1.05087
1.40001
1.84205
1.0507
1.40001
1.40001
1.40001
1.40001
1.62065
1.83887
1.01766
1.40001
1.40001
1.50402
1.40001
1.03158
1.40001
1.8462
1.83878
1.40001
1.40001
1.03625
1.05033
1.04422
1.40001
1.40001
1.40001
1.40001
1.40001
1.3026
1.40001
1.77719
1.43902
1.83939
1.40001
1.84141
1.83906
1.84238
1.83529
1.40001
1.01564
1.40001
1.031
1.40001
1.40001
1.40001
1.40001
1.83927
1.40001
1.40001
1.40001
1.40001
1.8418
1.40001
1.4266
1.40001
1.40001
1.40001
1.40001
1.02982
1.40001
1.41102
1.40001
1.01976
1.40001
1.40001
1.40001
1.84041
1.40001
1.84138
1.05382
1.02196
1.84432
1.8421
1.40001
1.474
1.65545
1.40001
1.83658
1.02213
1.81053
1.40001
1.40001
1.40001
1.40001
1.84146
1.76913
1.40001
1.83858
1.06301
1.83951
1.40001
1.03661
1.40001
1.03184
1.03205
1.39979
1.40001
1.40001
1.84073
1.40001
1.40001
1.84116
1.40001
1.84667
1.8383
1.04048
1.40001
1.40001
1.02534
1.84162
1.40001
1.40001
1.40001
1.84149
1.40001
1.07848
1.40001
1.40001
1.84211
1.84163
1.84685
1.40001
1.40005
1.40001
1.40001
1.40001
1.84164
1.40001
1.00777
1.85774
1.84196
1.84226
1.40001
1.40001
1.40001
1.0164
1.84187
1.61194
1.40001
1.84325
1.04103
1.06978
1.84334
1.83981
1.40001
1.84592
1.00039
1.79039
1.40001
1.40001
1.40001
1.40001
1.84126
1.40001
1.65833
1.44251
1.40001
1.40001
1.84188
1.04078
1.14536
1.40001
1.84046
1.06079
1.84668
1.40001
1.40001
1.40001
1.40001
1.40001
1.40001
1.40001
1.0304
1.13592
1.06481
1.84193
1.40001
1.40001
1.40001
1.40001
1.79423
1.40001
1.02684
1.40001
1.00572
1.02392
1.84126
1.01548
1.84204
1.40001
1.40001
1.40001
1.39771
1.03588
1.00626
1.4
1.40001
1.00594
1.40001
1.83937
1.02043
1.40001
1.40001
1.83635
1.05059
1.40001
1.83757
1.02793
1.84197
1.40001
1.0105
1.39769
1.40001
1.40001
1.40001
1.01736
1.40001
1.40001
1.4
1.40002
1.3987
1.67295
1.40001
1.0491
1.40001
1.40001
1.40001
1.40001
1.40001
1.40001
1.40001
1.83532
1.40001
1.84046
1.40001
1.40001
1.40001
1.04931
1.40001
1.84072
1.02798
1.40001
1.7658
1.40001
1.40001
1.8377
1.40001
1.40001
1.40001
1.82919
1.40001
1.40001
1.83818
1.8369
1.40001
1.49191
1.40001
1.40001
1.03817
1.40001
1.40001
1.40001
1.04367
1.40001
1.40001
1.40001
1.40001
1.06767
1.40001
1.40001
1.40001
1.40001
1.40001
1.02042
1.40008
1.84149
1.40001
1.4
1.84261
1.84366
1.40001
1.40001
1.04472
1.22113
1.83989
1.40001
1.40001
1.40001
1.84195
1.0278
1.40001
1.84225
1.40001
1.40001
1.08637
1.07227
1.40001
1.03347
1.05135
1.40001
1.40001
1.40001
1.40001
1.40001
1.40001
1.40001
1.83497
1.50686
1.82877
1.03205
1.30887
1.83977
1.40001
1.84437
1.83939
1.02138
1.17747
1.40001
1.06833
1.40001
1.84908
1.40001
1.40001
1.40001
1.40001
1.84133
1.40001
1.40001
1.40001
1.40001
1.40001
1.40001
1.40001
1.5579
1.84115
1.40001
1.84207
1.40001
1.40001
1.02431
1.40001
1.40001
1.40001
1.40001
1.84166
1.73568
1.40001
1.40001
1.02999
1.84248
1.84192
1.40001
1.84199
1.84169
1.84168
1.40001
1.24284
1.40001
1.84199
1.38751
1.8419
1.40001
1.06129
1.39891
1.83983
1.40001
1.40001
1.40001
1.40001
1.03389
1.8416
1.80198
1.40001
1.84039
1.842
1.83991
1.40001
1.60812
1.84241
1.40001
1.40001
1.70909
1.46009
1.8423
1.33776
1.84217
1.40001
1.84203
1.84214
1.84185
1.8426
1.40001
1.81739
1.30291
1.26394
1.40001
1.4
1.40001
1.40001
1.84886
1.40001
1.40001
1.40001
1.40001
1.40001
1.83897
1.40001
1.40001
1.39624
1.84195
1.79097
1.40001
1.77678
1.40005
1.40001
1.40001
1.84208
1.40001
1.39684
1.4039
1.40001
1.84201
1.40001
1.84178
1.40001
1.40001
1.72849
1.40001
1.84177
1.40003
1.40001
1.84127
1.40001
1.84184
1.40001
1.40001
1.40001
1.84121
1.40001
1.84513
1.40001
1.8413
1.83869
1.84173
1.83454
1.40001
1.83646
1.83745
1.40001
1.03404
1.81417
1.71903
1.40001
1.84137
1.40001
1.04087
1.03087
1.40001
1.40001
1.40001
1.40001
1.40001
1.049
1.40001
1.84201
1.51598
1.84265
1.40001
1.40001
1.40001
1.40001
1.40001
1.84218
1.40001
1.84457
1.65983
1.19274
1.40001
1.40001
1.52768
1.50801
1.40001
1.40001
1.55512
1.40001
1.02296
1.8417
1.84193
1.40001
1.40001
1.40001
1.837
1.40001
1.40003
1.84167
1.8411
1.35213
1.40001
1.40001
1.023
1.80061
1.40001
1.40001
1.40001
1.40001
1.40001
1.84185
1.83673
1.40001
1.84197
1.84519
1.84169
1.40001
1.40001
1.40001
1.40001
1.02379
1.83832
1.40001
1.40001
1.80173
1.84005
1.40001
1.81639
1.84146
1.40001
1.40001
1.40001
1.40001
1.40001
1.84197
1.40001
1.40001
1.40001
1.40001
1.84753
1.40001
1.82945
1.05881
1.40001
1.02045
1.40001
1.40001
1.40001
1.39686
1.04329
1.39902
1.40001
1.40001
1.40001
1.45762
1.40001
1.40001
1.27802
1.40001
1.40001
1.40001
1.40001
1.40001
1.40001
1.40001
1.4
1.30317
1.4
1.40001
1.39758
1.40001
1.02678
1.40001
1.40001
1.40001
1.40001
1.73004
1.40001
1.40001
1.40001
1.40001
1.05095
1.40001
1.40001
1.81591
1.83834
1.4
1.40001
1.40001
1.27258
1.40001
1.40001
1.40001
1.40001
1.40001
1.40001
1.35706
1.40183
1.84162
1.40001
1.40001
1.40001
1.84201
1.28911
1.40001
1.40001
1.40001
1.83927
1.83949
1.40001
1.40001
1.40001
1.40001
1.40001
1.40001
1.40001
1.40001
1.40001
1.04983
1.40001
1.40001
1.83841
1.07778
1.40001
1.83851
1.40001
1.02638
1.40001
1.40001
1.04631
1.40001
1.40001
1.40001
1.40001
1.40001
1.40001
1.40001
1.83305
1.84038
1.40001
1.40001
1.40001
1.40001
1.80312
1.40001
1.54199
1.03589
1.40001
1.40001
1.40001
1.40001
1.40001
1.40001
1.40001
1.43752
1.40001
1.40001
1.63663
1.40001
1.40001
1.40001
1.76487
1.40001
1.40001
1.40001
1.40001
1.05641
1.40001
1.40001
1.04348
1.05497
1.40001
1.40001
1.84199
1.40001
1.3866
1.40001
1.40001
1.40001
1.70973
1.01897
1.40001
1.00682
1.40001
1.15965
1.40001
1.40001
1.40001
1.84214
1.40001
1.40001
1.84244
1.40001
1.40001
1.40001
1.84264
1.40001
1.40001
1.84152
1.40001
1.40001
1.01917
1.40001
1.54014
1.40001
1.40001
1.83959
1.83946
1.69503
1.79529
1.40001
1.04997
1.40001
1.40001
1.82235
1.40001
1.02975
1.40001
1.40001
1.40001
1.84149
1.40001
1.40001
1.40001
1.40001
1.66097
1.40001
1.80859
1.84134
1.04566
1.40001
1.40001
1.02163
1.03079
1.40001
1.40001
1.40001
1.71544
1.7343
1.40001
1.40001
1.40001
1.40001
1.40001
1.40001
1.40001
1.58188
1.83319
1.40743
1.40001
1.83653
1.01547
1.40001
1.40001
1.40001
1.64373
1.40001
1.48843
1.40001
1.8024
1.84017
1.40001
1.06455
1.40001
1.84011
1.40001
1.40001
1.84082
1.8145
1.40001
1.83911
1.40001
1.0662
1.40001
1.40001
1.40001
1.84735
1.83293
1.78896
1.40001
1.84336
1.84142
1.40001
1.84205
1.40001
1.84024
1.40001
1.04728
1.36383
1.04615
1.40001
1.40001
1.40001
1.40001
1.40001
1.84214
1.40001
1.84201
1.40001
1.40001
1.40001
1.82062
1.40001
1.01226
1.84232
1.40001
1.06164
1.03789
1.0224
1.40001
1.62014
1.43155
1.84326
1.84138
1.40001
1.4
1.40001
1.40001
1.84211
1.40001
1.40001
1.84219
1.84126
1.40001
1.55888
1.40017
1.40001
1.39668
1.84082
1.24547
1.40001
1.22528
1.02485
1.02368
1.33985
1.84015
1.83585
1.47994
1.8419
1.84122
1.40001
1.40001
1.83513
1.84037
1.84108
1.83645
1.40001
1.84224
1.00042
1.83811
1.84
1.84102
1.84595
1.26253
1.304
1.31794
1.84197
1.33699
1.84294
1.40001
1.40001
1.84375
1.84163
1.40001
1.07595
1.84186
1.84153
1.40001
1.84146
1.84184
1.40001
1.84183
1.05606
1.84051
1.83283
1.8362
1.84624
1.40001
1.40001
1.40001
1.84162
1.68696
1.02883
1.84269
1.04448
1.84197
1.40001
1.40001
1.40001
1.40001
1.83857
1.84239
1.40001
1.40001
1.84139
1.04699
1.84142
1.02434
1.40001
1.83905
1.40001
1.04503
1.84317
1.11963
1.40001
1.84202
1.84489
1.84085
1.40001
1.40001
1.61813
1.84374
1.03947
1.84136
1.40001
1.84171
1.27488
1.84088
1.04726
1.40001
1.84057
1.05203
1.84381
1.02695
1.40001
1.84163
1.40001
1.84152
1.40001
1.65917
1.82469
1.74669
1.01935
1.40001
1.84157
1.40001
1.84208
1.40001
1.84219
1.40001
1.40001
1.84159
1.38278
1.84416
1.05912
1.79063
1.40001
1.71248
1.40001
1.84214
1.84207
1.84156
1.40001
1.79704
1.84257
1.80898
1.66521
1.84011
1.40001
1.69286
1.40001
1.84065
1.40001
1.45753
1.40001
1.80842
1.40001
1.84159
1.82182
1.82088
1.40001
1.83804
1.03615
1.40001
1.05706
1.40001
1.40001
1.40001
1.84564
1.40001
1.84279
1.40001
1.40001
1.40001
1.84208
1.8303
1.76517
1.83927
1.84177
1.01645
1.84604
1.8428
1.40001
1.78197
1.8417
1.84003
1.40001
1.83735
1.84078
1.40001
1.84591
1.84156
1.84248
1.84272
1.40001
1.40001
1.40001
1.84138
1.02746
1.40001
1.84318
1.40001
1.40001
1.02451
1.40001
1.40001
1.84101
1.84129
1.40001
1.84161
1.84492
1.84242
1.37176
1.84227
1.40001
1.84215
1.8413
1.75748
1.40001
1.40001
1.40001
1.84073
1.84109
1.84194
1.33689
1.40001
1.84774
1.84106
1.84021
1.40001
1.84164
1.8408
1.84111
1.85162
1.40001
1.8413
1.84159
1.78433
1.83947
1.85065
1.40001
1.83842
1.83605
1.8419
1.83919
1.84233
1.03303
1.8408
1.83948
1.40001
1.84184
1.84168
1.84179
1.84135
1.40001
1.84203
1.84174
1.40001
1.84147
1.77359
1.40001
1.40001
1.40001
1.83968
1.84771
1.40001
1.40001
1.64153
1.40001
1.84174
1.40001
1.40001
1.84142
1.8432
1.84211
1.8411
1.40001
1.40001
1.40001
1.70944
1.40001
1.84131
1.40001
1.40001
1.83905
1.83316
1.40001
1.84152
1.01568
1.84165
1.8406
1.0955
1.40001
1.00531
1.78105
1.84698
1.84085
1.84059
1.04932
1.84156
1.84265
1.04654
1.04122
1.40001
1.84129
1.83994
1.40001
1.40001
1.84131
1.40001
1.84867
1.40001
1.78693
1.40001
1.60908
1.84064
1.84453
1.70339
1.81162
1.8462
1.84124
1.81414
1.40001
1.02181
1.84016
1.8396
1.84469
1.40002
1.40001
1.40001
1.84554
1.40001
1.8428
1.84172
1.12292
1.40001
1.84128
1.39994
1.40001
1.40003
1.40005
1.84
1.84238
1.39845
1.40001
1.40001
1.8421
1.8436
1.84212
1.84729
1.83995
1.03836
1.79892
1.40001
1.83873
1.84197
1.8432
1.84173
1.40001
1.84146
1.83024
1.84258
1.40001
1.84221
1.84034
1.25054
1.84135
1.84106
1.40001
1.84216
1.24404
1.84155
1.23041
1.8415
1.40001
1.84208
1.84083
1.84213
1.84206
1.84193
1.84111
1.84208
1.83946
1.40001
1.31898
1.84155
1.84199
1.25318
1.84152
1.38326
1.6854
1.84116
1.84405
1.83934
1.40001
1.84443
1.69324
1.84382
1.31874
1.84352
1.84664
1.40001
1.28261
1.40001
1.84128
1.40001
1.70542
1.40001
1.80935
1.27229
1.40001
1.84611
1.84293
1.40001
1.84054
1.84365
1.84989
1.84004
1.84485
1.40001
1.83853
1.40001
1.40001
1.40001
1.2908
1.84254
1.84108
1.8429
1.84133
1.84667
1.84322
1.83649
1.84253
1.2808
1.43096
1.40001
1.40001
1.84107
1.84273
1.84185
1.84145
1.40003
1.63276
1.40001
1.84518
1.799
1.40001
1.40001
1.13415
1.84142
1.40001
1.40001
1.04066
1.84152
1.40001
1.83703
1.84143
1.84547
1.82491
1.84195
1.40001
1.01852
1.50895
1.84156
1.84206
1.40001
1.84191
1.84096
1.62418
1.40991
1.50286
1.40001
1.84143
1.84219
1.40001
1.40001
1.04411
1.40001
1.40001
1.8419
1.84303
1.83887
1.84189
1.84247
1.83956
1.84212
1.84101
1.84218
1.40001
1.39599
1.84101
1.84144
1.39706
1.84202
1.84119
1.0336
1.04792
1.84328
1.84664
1.40001
1.40001
1.401
1.84122
1.83905
1.8415
1.40001
1.8411
1.40001
1.23884
1.84546
1.84537
1.40001
1.60723
1.8429
1.40001
1.83874
1.40001
1.84145
1.68661
1.83986
1.40001
1.8429
1.84733
1.03724
1.84125
1.40001
1.83952
1.83342
1.40001
1.02636
1.84285
1.77634
1.39759
1.82319
1.84161
1.40001
1.39618
1.83767
1.39812
1.8419
1.40001
1.40001
1.84034
1.40001
1.8399
1.84102
1.39655
1.7426
1.40001
1.84111
1.40001
1.40001
1.40001
1.40001
1.84159
1.40001
1.40001
1.83312
1.40001
1.84226
1.40001
1.68244
1.83971
1.84059
1.40001
1.40001
1.40248
1.40001
1.8418
1.84142
1.83927
1.84188
1.84084
1.8413
1.84133
1.40001
1.84129
1.8414
1.40001
1.84117
1.84169
1.40001
1.83984
1.30802
1.45709
1.84107
1.84166
1.84134
1.40001
1.84162
1.40001
1.84225
1.84178
1.40001
1.84201
1.40001
1.40001
1.40001
1.40001
1.84196
1.02413
1.39791
1.40001
1.84214
1.85073
1.40001
1.84185
1.40001
1.40537
1.00717
1.84171
1.39959
1.40001
1.84336
1.39842
1.84194
1.40001
1.39979
1.40001
1.84285
1.8437
1.84239
1.84225
1.04367
1.8429
1.84429
1.84183
1.50652
1.40001
1.40001
1.58787
1.84247
1.01208
1.04399
1.40001
1.84059
1.84133
1.8416
1.40001
1.40001
1.84496
1.84164
1.39989
1.40001
1.72485
1.02723
1.40001
1.47892
1.83973
1.84026
1.39824
1.84233
1.84758
1.40001
1.39881
1.40001
1.84002
1.84095
1.57931
1.40001
1.81687
1.40001
1.40175
1.84028
1.0311
1.84055
1.84219
1.39705
1.39992
1.79137
1.40001
1.39969
1.40001
1.84132
1.40001
1.40002
1.00487
1.84193
1.40001
1.40001
1.40001
1.40001
1.84578
1.65222
1.40001
1.40001
1.0375
1.84195
1.65265
1.40001
1.40001
1.40001
1.82107
1.82584
1.84481
1.40001
1.40001
1.8472
1.40001
1.84126
1.84123
1.40001
1.40001
1.84402
1.84225
1.8241
1.40001
1.40001
1.84412
1.84251
1.40001
1.40001
1.40001
1.84256
1.40001
1.40001
1.40001
1.84284
1.84408
1.84494
1.40001
1.84932
1.40004
1.08674
1.84132
1.84153
1.40001
1.84152
1.82598
1.84017
1.40001
1.40001
1.84441
1.40001
1.63393
1.84301
1.40001
1.03968
1.40001
1.84398
1.40001
1.40001
1.8383
1.40001
1.40001
1.40001
1.54403
1.84042
1.07865
1.40002
1.84305
1.40001
1.40001
1.84211
1.40001
1.8452
1.40001
1.40001
1.8426
1.84231
1.40001
1.40006
1.40001
1.40001
1.40001
1.40001
1.40001
1.40001
1.84729
1.84171
1.40001
1.83681
1.02559
1.84891
1.40001
1.84274
1.85112
1.84051
1.84741
1.83873
1.40001
1.40001
1.83903
1.40001
1.6699
1.84652
1.84124
1.40001
1.84442
1.84226
1.40001
1.78943
1.40001
1.84222
1.68612
1.83946
1.39739
1.83146
1.79554
1.84319
1.84265
1.43673
1.84111
1.84436
1.40001
1.84186
1.40001
1.84336
1.40001
1.40001
1.40001
1.40001
1.39635
1.84203
1.84378
1.75603
1.40001
1.84306
1.40001
1.40001
1.40001
1.00614
1.40001
1.83128
1.40001
1.8004
1.83322
1.40001
1.40001
1.40001
1.80742
1.83929
1.40001
1.40001
1.8401
1.04348
1.4769
1.40001
1.84622
1.84201
1.80289
1.83105
1.842
1.40001
1.84353
1.40001
1.40001
1.40001
1.40001
1.84414
1.84194
1.40001
1.83614
1.44368
1.84216
1.81294
1.40001
1.40001
1.81354
1.40001
1.40001
1.05774
1.70913
1.40001
1.40001
1.8426
1.40001
1.84443
1.80277
1.40001
1.80251
1.04213
1.84281
1.84169
1.84225
1.40001
1.05131
1.40001
1.40001
1.40001
1.84246
1.77555
1.40001
1.83344
1.84259
1.40001
1.84098
1.40001
1.40001
1.40001
1.40001
1.84227
1.39934
1.40001
1.84403
1.40001
1.40001
1.84212
1.84196
1.40001
1.84611
1.48569
1.40003
1.40001
1.8434
1.40001
1.8433
1.40001
1.41327
1.8422
1.40001
1.84222
1.40001
1.40001
1.52686
1.84223
1.40001
1.40001
1.40001
1.40001
1.40001
1.39653
1.02104
1.0188
1.41963
1.40001
1.42565
1.40001
1.42687
1.40001
1.84222
1.40001
1.67675
1.40001
1.84038
1.40001
1.40001
1.40001
1.84055
1.40001
1.75819
1.84272
1.40001
1.62872
1.84084
1.40001
1.40001
1.84668
1.84168
1.40001
1.40001
1.44157
1.02579
1.40001
1.8426
1.40001
1.40001
1.40001
1.40001
1.47152
1.84189
1.40001
1.40001
1.40001
1.07249
1.40001
1.84204
1.84113
1.849
1.40001
1.40001
1.40001
1.40001
1.62222
1.84945
1.40001
1.40001
1.40001
1.84545
1.84174
1.44225
1.40001
1.40001
1.40001
1.84283
1.84192
1.40001
1.02868
1.84152
1.84177
1.8418
1.84007
1.83947
1.40001
1.40001
1.84924
1.83906
1.8417
1.07354
1.44048
1.84286
1.40001
1.40001
1.40001
1.40001
1.40001
1.84185
1.04343
1.40001
1.40001
1.8412
1.60875
1.40001
1.84843
1.40001
1.40001
1.40001
1.05723
1.40001
1.40001
1.51736
1.84183
1.84148
1.40001
1.8378
1.84657
1.40001
1.47548
1.40001
1.84677
1.40001
1.8411
1.0458
1.40001
1.40001
1.40001
1.40001
1.84021
1.40007
1.40001
1.40001
1.40001
1.82427
1.40001
1.40001
1.40001
1.40001
1.84232
1.05538
1.74965
1.84419
1.40001
1.84137
1.40001
1.40001
1.40001
1.39707
1.40001
1.84393
1.40001
1.18959
1.40001
1.40001
1.40004
1.8411
1.03794
1.40001
1.84048
1.40001
1.83877
1.84158
1.06796
1.40001
1.40001
1.82738
1.40001
1.40001
1.07498
1.40001
1.84125
1.40001
1.82232
1.39938
1.8425
1.40001
1.40001
1.40001
1.40001
1.83485
1.40001
1.40001
1.84179
1.40001
1.40001
1.40001
1.40001
1.40001
1.40001
1.40001
1.40001
1.69429
1.40001
1.54256
1.83993
1.40001
1.40001
1.40001
1.04017
1.40001
1.40001
1.40001
1.40001
1.84349
1.84155
1.44329
1.40001
1.40001
1.84306
1.40001
1.40001
1.84267
1.40001
1.40002
1.40001
1.40001
1.40001
1.40002
1.84266
1.15375
1.84173
1.84406
1.39677
1.40001
1.40001
1.40001
1.66064
1.40001
1.40001
1.83944
1.84206
1.40001
1.40001
1.40001
1.40001
1.03848
1.40001
1.40001
1.40001
1.68308
1.40001
1.84071
1.84485
1.40001
1.84279
1.40001
1.40001
1.40001
1.64109
1.40001
1.83742
1.40001
1.84196
1.40001
1.40001
1.39601
1.84178
1.40001
1.40001
1.40001
1.40001
1.40001
1.84049
1.40003
1.40001
1.06306
1.83987
1.06148
1.40001
1.84111
1.40001
1.39589
1.40001
1.84355
1.84396
1.40001
1.83291
1.2754
1.84159
1.84873
1.40004
1.40001
1.40001
1.02181
1.40001
1.40001
1.40001
1.84227
1.65416
1.84204
1.40001
1.40001
1.40001
1.40001
1.39671
1.84261
1.40001
1.04343
1.40001
1.40001
1.40001
1.40001
1.40001
1.40001
1.40001
1.85032
1.83911
1.83938
1.40001
1.40001
1.39688
1.40001
1.36956
1.40001
1.40001
1.40001
1.00817
1.37136
1.40001
1.02895
1.0424
1.40001
1.84219
1.8418
1.40001
1.84296
1.84187
1.03025
1.6975
1.40001
1.40001
1.40001
1.0435
1.84253
1.40001
1.0386
1.40001
1.84128
1.48054
1.40001
1.40001
1.40001
1.40001
1.84175
1.84033
1.40001
1.40001
1.84193
1.40001
1.40001
1.8399
1.84186
1.40001
1.82315
1.84162
1.83832
1.35466
1.83846
1.40821
1.03708
1.74032
1.84145
1.40001
1.40001
1.40001
1.03637
1.40001
1.02065
1.84595
1.35144
1.84167
1.34416
1.40001
1.84281
1.59629
1.40001
1.40001
1.8402
1.40001
1.58395
1.84043
1.40001
1.40001
1.84089
1.83408
1.03263
1.65784
1.39991
1.40001
1.66674
1.40001
1.84818
1.33884
1.84652
1.84346
1.40001
1.40001
1.40001
1.40001
1.82802
1.40001
1.40001
1.83949
1.39967
1.84182
1.75466
1.84292
1.02747
1.40001
1.40001
1.40001
1.40001
1.84189
1.40005
1.84203
1.40001
1.84141
1.83988
1.45519
1.84214
1.52627
1.84162
1.40001
1.70212
1.05605
1.84396
1.8421
1.76765
1.47551
1.84083
1.84166
1.84104
1.84257
1.40001
1.30598
1.46807
1.40001
1.84199
1.61352
1.84054
1.40004
1.40001
1.40001
1.09396
1.84535
1.84023
1.76011
1.40001
1.5619
1.40001
1.84669
1.84789
1.40001
1.8432
1.84062
1.40001
1.40001
1.40001
1.8433
1.40001
1.57097
1.84066
1.70835
1.40001
1.8399
1.40001
1.40001
1.40001
1.40001
1.40001
1.40001
1.40001
1.40001
1.40001
1.40001
1.07718
1.40001
1.82782
1.03303
1.6598
1.39858
1.84111
1.40001
1.63001
1.40002
1.68268
1.77346
1.40001
1.40283
1.8488
1.30472
1.40001
1.84502
1.83741
1.33691
1.40001
1.84292
1.84226
1.84301
1.40001
1.84218
1.84061
1.84117
1.40001
1.60146
1.40001
1.40007
1.84057
1.40001
1.84144
1.4665
1.84447
1.40001
1.40001
1.83955
1.84569
1.08575
1.40001
1.84261
1.73261
1.84068
1.40001
1.40001
1.83904
1.8402
1.39826
1.40001
1.78657
1.39699
1.84181
1.40008
1.40001
1.40001
1.40001
1.40001
1.6026
1.40001
1.74504
1.83896
1.73101
1.83995
1.40001
1.4026
1.40001
1.40001
1.83902
1.40001
1.8418
1.40001
1.40001
1.40001
1.40001
1.4
1.40001
1.45609
1.63703
1.40001
1.40001
1.0014
1.40001
1.83937
1.06128
1.846
1.40001
1.61945
1.39975
1.84216
1.68114
1.04398
1.64507
1.40004
1.84193
1.83963
1.40001
1.6702
1.84562
1.84104
1.39841
1.83528
1.82987
1.02167
1.40001
1.40001
1.39815
1.40001
1.83594
1.40001
1.0541
1.83873
1.40001
1.40001
1.79833
1.40001
1.83914
1.40001
1.84264
1.40001
1.06681
1.40001
1.40001
1.84321
1.84166
1.84077
1.40001
1.84007
1.84139
1.84774
1.40001
1.40001
1.83014
1.4
1.12163
1.40001
1.40001
1.40001
1.84229
1.40001
1.8418
1.6934
1.84132
1.40001
1.84165
1.3994
1.40001
1.40001
1.40001
1.40001
1.40001
1.40001
1.10361
1.40001
1.40001
1.84182
1.40001
1.84758
1.84404
1.40001
1.06112
1.02192
1.40001
1.84378
1.47612
1.04246
1.01183
1.40001
1.8418
1.40001
1.84736
1.04988
1.40177
1.40001
1.40001
1.39951
1.40001
1.40001
1.40001
1.39992
1.58167
1.84163
1.40001
1.40001
1.84331
1.65915
1.40001
1.8004
1.84067
1.84166
1.58241
1.83582
1.40001
1.84192
1.40001
1.84536
1.40001
1.83927
1.84409
1.39689
1.8433
1.84635
1.40001
1.40001
1.40001
1.40001
1.40001
1.31216
1.83956
1.40005
1.40003
1.00123
1.39999
1.00034
1.00175
1.40001
1.83917
1.84061
1.84071
1.40001
1.84188
1.40001
1.02646
1.40001
1.40001
1.84113
1.19835
1.8406
1.40001
1.8429
1.40001
1.37532
1.84298
1.40001
1.40001
1.40001
1.84354
1.40001
1.84191
1.03214
1.40001
1.40001
1.65965
1.40001
1.40001
1.64441
1.40001
1.40001
1.84262
1.40001
1.40001
1.40001
1.40001
1.40001
1.84496
1.84068
1.40001
1.84042
1.84122
1.03893
1.59826
1.83999
1.40001
1.40001
1.79888
1.399
1.40001
1.40001
1.84194
1.8434
1.68537
1.40001
1.83894
1.06141
1.80488
1.39972
1.40001
1.84
1.40004
1.84102
1.76516
1.7356
1.40001
1.40001
1.84229
1.12378
1.00714
1.40001
1.84241
1.40001
1.84106
1.40001
1.66243
1.40001
1.40001
1.84074
1.68215
1.03776
1.40001
1.39851
1.40001
1.40001
1.42658
1.58359
1.84218
1.40001
1.84668
1.40001
1.40001
1.40001
1.40001
1.40001
1.40001
1.46477
1.03764
1.40001
1.40001
1.43058
1.40001
1.40001
1.40001
1.40001
1.40001
1.84099
1.40001
1.40001
1.84209
1.84292
1.71391
1.40001
1.40001
1.40001
1.22124
1.8411
1.70858
1.40001
1.40001
1.40001
1.40001
1.84343
1.40001
1.40001
1.40001
1.84101
1.40001
1.40001
1.7184
1.85794
1.43883
1.12605
1.84186
1.71728
1.8409
1.40001
1.62287
1.40001
1.40001
1.40001
1.00511
1.40287
0.986815
1.40001
1.04311
1.02024
1.40001
1.0355
1.40001
1.40001
1.40001
1.59675
1.40001
1.84057
1.84155
1.40165
1.60689
1.77001
1.01805
1.13696
1.28839
1.40001
1.84163
1.84171
1.84158
1.84157
1.78061
1.26433
1.40001
1.78256
1.40001
1.82559
1.40001
1.40001
1.39662
1.4103
1.40001
1.40001
1.40001
1.84004
1.40001
1.00639
1.40001
1.84256
1.01905
1.40001
1.40001
1.84163
1.40001
1.84173
1.40016
1.40001
1.40001
1.84251
1.79141
1.40001
1.85385
1.40001
1.40001
1.415
1.40001
1.59573
1.40001
1.40001
1.03568
1.40001
1.40001
1.84039
1.4
1.84176
1.40001
1.40004
0.98817
1.40001
1.40001
1.01574
1.40082
1.40001
1.84125
1.01698
1.84084
1.04205
1.84281
1.40001
1.40001
1.40001
1.40001
1.4
1.40001
1.40001
1.40001
1.40001
1.40001
1.40001
1.82415
1.40001
1.8438
1.83991
1.03761
1.40001
1.40001
1.40001
1.40001
1.40001
1.40001
1.82934
1.40001
1.40001
1.02301
1.40001
1.40001
1.84099
1.40001
1.40001
1.57027
1.77025
1.05945
1.0529
1.07771
1.1247
1.40001
1.39654
0.988577
1.4002
1.80987
1.39686
1.40001
1.40001
1.84018
1.40001
1.40001
1.40001
1.14691
1.40002
1.55929
1.40001
1.40001
1.58369
1.84079
1.40001
1.02903
1.40001
1.40001
1.40001
1.39668
1.40001
1.84324
1.84117
1.40001
1.02301
1.40001
1.64229
1.03597
1.40001
1.28834
1.40001
1.39608
1.01108
1.40001
1.40001
1.40001
1.39567
1.05021
1.40001
1.03716
1.39845
1.63096
1.79604
1.05664
1.0572
1.40001
1.39111
1.40001
1.39865
1.40001
1.84128
1.84109
1.40001
1.41241
1.84035
1.84225
1.40001
1.40001
1.84103
1.40001
1.40001
1.40005
1.40001
1.84382
1.40001
1.40001
1.41828
1.40001
1.39856
1.07448
1.40001
1.40001
1.40001
1.40001
1.40001
1.83944
1.43126
1.40005
1.40001
1.40001
1.40001
1.40001
1.40001
1.40004
1.40001
1.04418
1.49845
1.3986
1.84715
1.83764
1.40001
1.41699
1.84058
1.78562
1.40001
1.40001
1.00738
1.84256
1.40001
1.84077
1.40001
1.83929
1.70701
1.04011
1.40001
1.0362
1.81059
1.39968
1.40001
1.03765
1.01003
1.40001
1.40001
1.77429
1.40001
1.4
1.02943
1.40001
1.40001
1.40001
1.54313
1.40001
1.03619
1.84341
1.40001
1.40001
1.40001
1.40001
1.84199
1.40001
1.40001
1.84698
1.79645
1.40001
1.40001
1.40001
1.84724
1.03558
1.40001
1.84105
1.84093
1.40001
1.75228
1.4
1.40003
1.40001
1.40001
1.82302
1.41282
1.40001
0.982928
1.6398
1.40001
1.40001
1.39727
1.40001
1.40001
1.84459
1.40001
1.40001
1.40003
1.40001
1.84167
1.40001
1.40001
1.40001
1.40001
1.40001
1.40001
1.40002
1.59706
1.40001
1.84288
1.40001
1.40001
1.84266
1.40001
1.40001
1.40001
1.84187
1.84381
1.44643
1.40001
1.39758
1.40001
1.40001
1.40001
1.40001
1.83782
1.40001
1.40001
1.84274
1.02281
1.40001
1.40001
1.40001
1.40001
1.40001
1.40001
1.75933
1.40001
1.40001
1.84515
1.84263
1.40001
1.40001
1.40001
1.84116
1.84055
1.40001
1.39973
1.84666
1.40001
1.40001
1.40001
1.40002
0.997518
1.42893
1.39611
1.39593
1.40001
1.40001
1.01982
1.84313
1.40001
1.02773
1.40001
1.84396
1.82268
1.0593
1.3994
1.84165
1.84171
1.84117
1.40001
1.40001
1.32822
1.80054
1.76661
1.01763
1.40001
1.40001
1.40001
1.84272
1.84166
1.0286
1.39722
1.40001
1.8431
1.0074
1.40001
1.82787
1.04148
1.35942
1.40656
1.40001
1.84341
1.40001
1.40001
1.40001
1.40001
1.40001
1.40001
1.40011
1.81256
1.40001
1.40001
1.84298
1.40001
1.40001
1.40001
1.84103
1.40001
1.04581
1.40001
1.40001
1.40001
1.5561
1.40001
1.40001
1.40001
1.40001
1.40001
1.16927
1.40001
1.01279
1.40001
1.84031
1.40007
1.26495
1.27294
1.40002
1.40454
1.63176
1.40001
1.40001
1.0183
1.84092
1.84115
1.84096
1.40001
1.03275
1.01563
1.40001
1.84302
1.40001
1.40001
1.40001
1.40001
1.40001
1.40004
1.40001
1.04096
1.68438
1.40001
1.40001
1.05715
1.38917
1.40001
1.40001
1.40001
1.40001
1.00902
1.40001
1.07454
1.40001
1.40001
1.85096
1.40001
1.40001
1.04071
1.40001
1.84237
1.40001
1.02826
1.40001
1.04292
1.40001
1.40769
1.84215
1.85469
1.40001
1.40001
1.83996
1.40001
1.40001
1.49972
1.39689
1.40001
1.39825
1.40001
1.84478
1.40001
1.02521
1.40002
1.83476
1.39872
1.40001
1.40001
1.20367
1.40001
1.39904
1.0391
1.84072
1.56438
1.40001
1.40001
1.30843
1.40001
1.40001
1.40001
1.18271
1.40001
1.40001
1.40001
1.84162
1.40001
1.03954
1.4
1.40001
1.40001
1.40001
1.01301
1.84223
1.80197
1.04244
1.40001
1.83603
1.40001
1.40001
1.84153
1.84019
1.77291
1.03755
1.39771
1.39929
1.40001
1.84128
1.40001
1.40001
1.40001
1.40001
1.83982
1.40005
1.40001
1.40001
1.84304
1.40001
1.40001
1.84181
1.01915
1.40001
1.40001
1.40001
1.02351
1.40001
1.4
1.4
1.39862
1.40001
1.40001
1.40001
1.40001
1.73935
1.40001
1.83976
1.84073
1.84499
1.84087
1.84051
1.8419
1.40001
1.84298
1.40001
1.84209
1.84183
1.40001
1.39889
1.01602
1.78082
1.3999
1.40001
1.40001
1.40001
1.40001
1.39131
1.40001
1.47384
1.40001
1.40001
1.40001
1.24638
1.84188
1.8398
1.84549
1.7814
1.39987
1.40001
1.4226
1.84117
1.39798
1.45079
1.39727
1.06309
1.40001
1.40003
1.40001
1.40001
1.40001
1.40001
1.40001
1.84161
1.04362
1.84151
1.84197
1.39534
1.04487
1.40001
1.40001
1.40001
1.84247
1.03299
1.78837
1.021
1.84224
1.84517
1.0433
1.84114
1.42399
1.40001
1.84436
1.18699
1.40001
1.39875
1.0295
1.40001
1.04811
1.40001
1.84202
1.84167
1.13106
1.40001
1.83965
1.06973
1.40001
1.0345
1.40001
1.84245
1.40001
1.40001
1.84149
1.40001
1.2298
1.40001
1.39967
1.0536
1.84488
1.39949
1.40001
1.01724
1.40001
1.40001
1.40001
1.40001
1.63547
1.40001
1.84186
1.40001
1.40001
1.84654
1.40001
1.40001
1.84172
1.40001
1.01943
1.40001
1.05872
1.40002
1.40001
1.40001
1.40001
1.40001
1.82162
1.65595
1.84171
1.40001
1.84189
1.80929
1.01109
1.02339
1.40001
1.40001
1.84282
1.40001
1.01256
1.40001
1.37939
1.40001
1.40001
1.84292
1.40001
1.8409
1.0332
1.84765
1.40001
1.03227
1.40001
1.40001
1.84512
1.8399
1.40001
1.40005
1.40001
1.84531
1.40001
1.40001
1.01555
1.39945
1.00899
1.40001
1.40001
1.40001
1.84321
1.8478
1.84028
1.40001
1.40001
1.02726
1.40001
1.84106
1.40001
1.40001
1.40001
1.8339
1.84161
1.84147
1.0395
1.8442
1.84156
1.06943
1.83974
1.40005
1.07811
1.41536
1.40001
1.40001
1.84312
1.04338
1.67731
1.04509
1.84168
1.39727
1.03761
1.84392
1.40001
1.40001
1.40001
1.40001
1.842
1.84006
1.04172
1.40001
1.40003
1.03524
1.40004
1.40001
1.03192
0.999529
1.70995
1.84154
1.39845
1.84195
1.40001
1.84977
1.21073
1.03377
1.84225
1.85106
1.40001
1.84268
1.40001
1.40001
1.84211
1.40001
1.7532
1.83968
1.40001
1.40001
1.40001
1.40001
1.84213
1.83695
1.84106
1.40001
1.40001
1.8435
1.83529
1.84268
1.40001
1.84169
1.40001
1.40001
1.40001
1.40001
1.40001
1.03551
1.2353
1.03245
1.40001
1.40001
1.84065
1.40001
1.40001
1.8424
1.03549
1.40001
1.8419
1.83723
1.82341
0.997768
1.40001
1.03928
1.40001
1.40003
1.83879
1.61394
1.83949
1.80286
1.40001
1.02015
1.40001
1.84387
1.71723
1.05379
1.40001
1.40001
1.40001
1.18404
1.40001
1.40001
1.846
1.40001
1.07466
1.84145
1.40001
1.40001
1.40001
1.40001
1.40001
1.75598
1.50158
1.40001
1.84116
1.40001
1.84212
1.40001
1.39716
1.40001
1.84154
1.84733
1.84069
1.84625
1.3996
1.84
1.40001
1.84153
1.83966
1.77525
1.40001
1.40001
1.00582
1.84213
1.40001
1.40001
1.84937
1.84238
1.84204
1.40001
1.84269
1.40001
1.40001
1.40003
1.84584
1.84003
1.52557
1.49689
1.84195
1.84193
1.09102
1.40001
1.40001
1.40001
1.40001
1.40001
1.55607
1.40001
1.40001
1.76571
1.00715
1.39999
1.40001
1.84236
1.3999
1.39983
1.46596
1.81028
1.84103
1.3098
1.40001
1.02148
1.40001
1.39646
1.84175
1.8449
1.84491
1.39907
1.40001
1.40001
1.0324
1.40001
1.40001
1.84174
1.44741
1.40001
1.40001
1.40001
1.40001
1.40001
1.40001
1.40001
1.39995
1.8403
1.40002
1.40001
1.40001
1.40001
1.40001
1.68209
1.40001
1.60736
1.40001
1.40001
1.8418
1.84659
1.03016
1.39878
1.40001
1.4
1.40001
1.03643
1.84082
1.84166
1.40001
1.40001
1.40001
1.40001
1.40001
1.40001
1.40001
1.40001
1.84239
1.83489
0.991987
1.44968
1.04072
1.40001
1.0205
1.40001
1.84171
1.51524
1.40001
1.40001
1.12403
1.40001
1.82344
1.19365
1.39687
1.03385
1.40001
1.40001
1.83886
1.40005
1.39726
1.00852
1.84129
1.84056
1.40001
1.40001
1.40001
1.40001
1.81337
1.40001
1.40001
1.84191
1.399
1.8422
1.4001
1.40001
1.40001
1.04517
1.40001
1.40001
1.84072
1.02916
1.1585
1.03269
1.84158
1.39932
1.40001
1.84317
1.05916
1.03993
1.41743
1.40001
1.40001
1.83911
1.40005
1.59655
1.40001
1.40001
1.83788
1.04175
1.40001
1.40001
1.40014
1.84179
1.40014
1.82729
1.40001
1.40004
1.40001
1.40001
1.13631
1.40001
1.18498
1.40003
1.40001
1.84074
1.04076
1.40001
1.19102
1.19754
1.40001
1.40001
1.84073
1.40001
1.40001
1.40001
1.84129
1.84232
1.40006
1.824
1.83924
1.18392
1.84212
1.81735
1.40001
1.40001
1.82888
1.4
1.40001
1.40001
1.40001
1.40001
1.84787
1.84288
1.40001
1.40001
1.40001
1.8407
1.40021
1.40001
1.0351
1.12052
1.40001