/*--------------------------------*- C++ -*----------------------------------*\
  =========                 |
  \\      /  F ield         | OpenFOAM: The Open Source CFD Toolbox
   \\    /   O peration     | Website:  https://openfoam.org
    \\  /    A nd           | Version:  12
     \\/     M anipulation  |
\*---------------------------------------------------------------------------*/
FoamFile
{
    format      ascii;
    class       volScalarField;
    location    "2.6";
    object      T;
}
// * * * * * * * * * * * * * * * * * * * * * * * * * * * * * * * * * * * * * //

dimensions      [0 0 0 1 0 0 0];

internalField   nonuniform List<scalar> 
46253
(
0.965257
1
1
1
1
1
0.946335
1.02691
1
1
0.965415
0.938099
1
1
1
1
1
1
1
1
1
1
1
0.957348
0.94999
1
1
1
1
1.02519
1.03315
1
1
1
1
1
1
1
1.02109
1
0.94365
0.938265
1
1
0.923378
1
1
1
1
1
1
1
1
1.06604
1
0.959143
0.999985
0.999965
1.06867
0.943383
1
1.02388
1
1
1
1
1
1
0.959769
0.924424
0.945859
1.00013
1.00019
1.0456
1
0.956723
1.09514
1.09114
1
1
1
1.03588
1
1.03197
0.949266
1
1.07521
1.07471
1.01394
1
1
0.943048
1
1
1
1
1
1
1.06765
1
1
1
1
1.03258
1
0.950397
0.939053
1.06325
1.06273
0.945447
1.03079
0.999571
1.00031
1
1
1.05006
0.926005
0.946333
1.11886
0.962736
1
1
1.03651
1.04503
1
1.11827
1
0.952815
0.999644
1.08727
1.05526
1.05469
1
0.948347
1.0858
1
1.08147
1.08108
0.961507
1
1.10479
1.05069
1.05018
1.02908
1.10011
1.00004
1.07687
1.07651
1.0227
1
0.945135
1
1.0846
1.08362
1.0174
0.924922
0.951836
1
1.07131
1
1.07086
0.939388
0.958602
1
0.949241
1.07923
0.948183
1.07868
1.17172
1
1.06792
1.06754
1
0.946014
1
0.920486
1.02352
1
1.04436
0.926228
1
1.01638
1.06477
1.06436
1
1.07338
1.07265
0.922291
1
1
1
1
0.938518
1
1
1
1.03104
1
1.02703
1.02657
1
1
1.06959
1.06922
1
0.925226
1.01544
1.0598
1.05941
1
1
1.11938
0.945655
1
1.03946
1
1.0281
0.947742
1.05674
1
1
1.05634
0.920493
1.06637
1.06596
0.94457
1
1
1.02019
1.0196
1.05322
1
1
1
1
1
1
1
1.05181
1.05861
1
1
1
1
1
1
1
1.01484
1
1.05193
1.05161
1.05724
1.01342
1
1.01306
1.06152
1.06096
0.965694
0.945266
1
0.948454
0.939951
0.943196
1.03046
1.00635
1
1
1
1.05825
1.04756
1.05794
1
1
1
1.04723
1
1.00001
1
1.07219
0.972522
1.00669
1.00598
1
1
1
0.937415
0.939992
0.963623
1.0248
1
1.0659
1.06504
0.945601
1
1.06352
1.04273
1
1.04246
0.94462
1.04483
1.11562
1.04456
0.954156
1.11134
1
1.0535
1.05302
1
1.03162
1
1
1.01111
1
1.04209
1
1.04176
0.96022
1.06251
1
1.0762
0.951236
1
0.948287
0.950391
1.01765
1.02364
1
1
1.03924
1.03877
0.995424
0.995265
1
1
1
1.02216
0.964965
1.04913
1.04855
1
1
1
1
1.11921
1
1.03651
1.03621
1
0.960324
1
1.03449
1
0.925539
1
0.940749
1
1.04625
1
1.04592
1
0.941148
1
1
1
1
1
1
1
1.03382
1
1
1
1
1.03336
1
1.06105
0.961511
1
1
1
0.948453
1.00916
0.951892
1.0435
1.04761
1.04308
1
1
1.03106
1.12907
1
1.02598
1.0308
0.938255
1
1.03745
1.01092
1.01266
1
1.03043
1
0.982174
0.982184
1.05999
1
0.999993
1
1
1
1
1
1
1.10437
1
1.03074
1
0.987949
1
1
0.966624
1
1
1.02835
1
1.04066
1
1
1.02791
1.04033
1
1.01647
1
1
1
1
1.02001
1.07031
1
1
1.06179
0.951822
1
0.943682
1
1.02131
1.01862
1
1
0.963954
1
0.972776
1.03124
1
1.01464
1
1.03627
1.04489
1.00002
1.0377
0.99477
1
0.993466
0.993398
1.03734
1
0.991851
1
1
1
1
1
0.994695
1
1.04677
0.953585
1.0241
0.969139
1.01398
1.02383
1.00687
0.972807
0.971927
1
1
1
1
0.999614
1
0.973944
0.946043
0.932573
0.974198
0.992967
0.945588
1.02028
1
1
1.03502
1.02947
0.94375
1.03475
1.02177
1.02146
0.97012
0.945778
1
0.970072
1.03132
1
1
1
0.940452
1
1.05104
1.01517
1
1
1.02364
1
1
1.02243
0.915415
1.03088
1
1
1.03141
1
1.03149
1.03289
1.03224
1
1.01094
1.01588
1
0.994497
1.02969
1
1
1.03231
1
0.951027
0.968534
1
1
1.03192
1
1
1
1
0.929422
1
1
1.01749
0.969761
1.01719
0.94429
1
1
1
1
1
1
1
0.992973
0.933332
1
1
1
1
1
1
0.949378
1.02686
1
1.02232
1
1
0.954032
1
1
1
1.02971
1
1
1.02932
1.02125
1.0372
1
1.03804
1.03831
1.03915
1.08628
1
1.01453
1.01421
1.02696
1.01013
1
1
1.04648
1
1.11215
1.03932
1
1.11115
0.999752
1
1.03083
1.03307
1
1
1.01158
0.994278
1
1
1.00933
1
1
1.00009
1.00002
1.04589
1.03262
1.0652
1.06542
0.921392
1.02088
1.06326
1.01323
1.06401
1.06035
1
0.949581
0.958375
1.06093
1
1.05806
1
1.05836
1
1.02318
1.05553
1
1.05599
1.09006
1
1.05283
1
1.0533
1
0.929746
1
0.970499
0.958102
1
1
1.05006
1.05052
1
1.03002
1.04737
1.04776
1.00741
1
1
1.04343
1.01049
1.04384
1
1.02554
1.04081
0.953798
1.04118
1.01006
1.0251
1
1
1
1.03796
1.03827
1.08438
1
1
1.03515
0.975426
1.03571
0.951517
1
1.03111
1.03137
1
1
1
1.02392
1
1.02948
1.00641
1.03452
1
1.02696
1
1.02716
1
1
1.02977
1.0297
1.02396
1.02424
1.01066
1.03161
1.02161
1.03271
1.02218
1
1.01182
1.01787
1.01828
1
0.964405
1.01568
1.01569
1.15222
1
1
1
1.01254
1.01852
1.01301
0.913704
1.05094
0.994006
0.944927
1.01077
1.01109
1.00567
1.00802
1.00798
0.960849
0.959791
1
1.02511
1.11723
1.00811
1
0.948513
1.00787
0.955214
1.01771
0.951435
1
1
1
1.02298
1
1
1
1
1
1.02269
1
1
1
0.96762
0.963449
1
1.01016
0.921259
0.963027
1
1
1
1
1
1.01221
1
1.02096
1
1.03561
1.02318
1.03597
0.956553
1
0.941942
0.943389
1.03937
1
1
1
1
1
1.03674
1.03636
1.01366
0.951769
0.951401
1
0.971451
1
1
1.0368
1.00381
1.00001
1.01143
0.999542
1
1.01194
1.01397
1
1.03775
0.954366
0.992947
1
1.01766
1.00392
1
1
0.99197
1.0238
1
1.00384
0.916105
1
1
1.04587
1.04647
1.02071
1
0.916519
0.916682
0.944048
1.02444
1
1.02974
1.0416
0.954867
1.08828
1
1
1
1.0338
1.03412
1
0.999959
1
1.01857
1.02959
1
0.999768
1.03004
1.01838
0.99334
0.992953
1
1.01956
1.03055
0.947664
1.02027
0.952846
1.02018
1
1
1.02048
1
1
1.02314
1.02127
1
1.00174
0.965082
1.02993
0.963739
0.965163
1.00123
0.961054
0.960787
0.951551
0.950963
1
1
1.06323
1
1
0.993252
0.968866
0.963158
1
1
1.03128
1
1.03053
1.03124
1.00017
1.05303
1.08543
1.00001
1
1
1
1.02212
1.03144
1.02484
0.917066
1
1.01611
1
0.999595
0.998932
1.01565
1
0.997801
0.994238
0.998342
1
1
1
1
0.995354
1.0311
1
1.00624
1
0.960469
1
0.961421
0.962646
0.947266
1
0.999061
0.998582
0.946075
1.1025
1
0.96244
1.0262
1.02622
0.962641
1
1
0.992975
0.912176
1
1
1.03028
0.927521
1.04968
0.992945
1
1
1
1
1
1
1.12934
1
0.963368
0.959922
0.955901
1.06197
0.918406
0.912711
0.91848
0.967312
1.0247
0.962465
0.915977
1.05422
1.05687
1.05912
1.05142
1.05469
1
1.01461
1.05725
1.06157
1.05192
0.992529
1.05953
1.04278
1.04867
1.06227
1
1.0648
1.04913
1.06533
1
1.0446
1.06626
1.0715
1.07348
1.04496
0.997582
1.06831
1.04206
0.999042
1
0.999998
1.04249
1
1.03921
1
1
1
0.996302
1.03979
1
1
1
1.03679
1.03954
1
1
1
1.03713
0.996064
0.920485
1.03241
1
0.988987
1.03282
1.02804
1.02838
0.960153
1.02544
1.02599
1.02308
1
0.957983
1.0232
1
1.01918
0.948523
1
1
1.01932
0.97097
0.920001
1.01644
1.01669
1.01423
1.01198
1.01476
0.915936
1.01184
1
1.00311
1.01148
1.01173
1.00862
1.00349
1.01943
1.00883
1.00284
1.00283
0.948058
1.00946
1.0074
1.00741
0.963783
0.924961
0.916604
1
0.925856
1
0.925915
0.924174
0.921234
1
1.11534
1.08483
1
0.99688
0.994208
1.02623
1.02851
1
1.00228
1.03875
1.0413
1.08821
1.04759
1.03708
1.03924
1.03783
1.03701
1.00574
0.960677
1.03094
0.992089
1
0.989632
0.966623
0.954591
1.00513
1
1.05182
1.03739
0.937652
1
0.992344
0.943246
0.994151
0.992077
1
1.01756
1
0.978651
1.00466
1.01905
1.03611
1.00873
1.0104
0.93916
1.00925
0.994994
1.00902
1.00326
0.946917
0.939424
0.963117
0.932509
0.989789
1.04035
1.00428
1
1.04003
1.06164
0.979884
0.999315
1
1
1
1.0291
0.99958
1
1
0.920465
1.00019
0.95199
1
0.949455
1
1.02736
0.981489
1
1
0.915315
0.953344
1.0681
0.954446
1.03221
1.03246
1
1.04191
1.03027
1
0.992471
1
1.00473
0.990357
0.996787
0.967527
1
1
0.988955
0.994101
1.00113
0.994157
1.02876
1.0292
1
0.990124
1.00186
0.99167
1.01645
0.951508
1.00548
1
0.982727
0.951288
0.998095
0.946169
0.998075
1.03757
1
1
1
0.968302
0.997085
1
1.01957
0.997514
1.08609
1.01497
0.962007
1.01899
0.911705
0.947875
1.05018
1
1
0.985089
1.05505
1
1
1
0.993115
1
0.993238
0.928413
0.999104
0.994421
1
1
0.994544
1
1.07879
1.02222
1.07323
1.08149
1
0.939132
1.07352
1.02256
0.99515
1.04886
1
0.946731
1.06861
1.05982
0.985875
1
1.04654
1.06966
1.06283
0.999995
1.02819
0.916549
0.999999
1
0.962716
1.06388
1
1.05343
0.999091
1
1
0.949795
1.05832
0.988021
1.057
1.06386
1.00513
0.94931
0.999654
1.05845
1.05901
1.06445
0.987703
1
0.98918
1.00488
0.989268
1.03652
1
1.05363
1
1
1
1.0526
1
1
0.975013
1.01021
1
0.976031
1.05411
1.03241
0.993816
1
0.998002
1
1.03037
1
1
1
1
1
1.008
1
1
1
1
1
1
1.01754
0.914345
1
1.0018
1
1
1
1.02019
0.973771
0.928846
1
0.928582
1.00079
1
1
1
1.00925
1
1.0391
1
1.06291
0.959865
0.938367
1
0.999999
1
1
1
1
1.06821
1.06748
1.02983
1.06217
1
1
0.998441
0.998996
0.96233
1.05462
1
1.05613
1.03548
1
1.04946
1
0.987301
0.98806
0.964143
1.0496
0.960201
0.984888
1
1.04977
0.990452
0.990642
1.03583
1.03735
0.946457
1.03772
1.03602
1.0064
1.03669
1.037
0.985332
1.04582
1.04685
1.03219
1.07581
1.03646
1.04502
1.04717
1.03643
0.984791
1.03796
1
0.993082
1.03759
1.04533
1.0741
0.962866
1.03064
1.03703
1.04112
1.00305
1.04298
0.942529
1.04332
0.973428
1
0.989957
0.952104
1.00267
1.02746
1.04148
1.0381
1.05928
1
1.01613
1.05759
1
1
0.91716
1
1
1.05539
0.951255
1
1.03829
1.03613
1.03849
1
0.958961
1.01036
1.03739
1.03705
0.938381
1.03661
1.08623
0.989304
1.05011
0.956373
1.05586
1.03453
1.04455
1.03469
1.0426
1
0.954529
1
1.00866
1
0.918458
1.04049
1.03214
1.0387
1.03239
1.03944
1.02982
1.05871
1.03585
1.08897
0.966716
1.05101
1
1.06286
1.0652
1
0.999959
1
1
1
1
1
0.973474
1
0.982648
0.918707
0.95793
1.05592
0.919808
0.958212
1.05982
0.950878
1
0.918849
0.982595
0.958806
1
1.0213
0.988328
1
1
1.0662
0.917867
0.968745
0.966714
0.990972
1
1
0.913066
1.00072
0.994542
1.04815
0.914577
1
1
1
1.0752
1
1.0562
1.05689
1.02048
0.918981
1.04919
1.05213
1
1.02584
1.05264
1.07404
0.990084
1
1.0646
1
1
0.992903
1.05018
1.01307
1.06082
0.919044
1.06503
1.06761
1.0473
1
1
1.03346
1.00353
1
1.00025
1
0.92983
1
1
1.04228
0.921971
1
1.04475
0.989921
1.04549
1
1
1.00009
1.05202
0.922134
0.959231
0.929298
0.990114
0.983426
0.987992
0.919847
1.02943
0.990404
0.992766
1
1.04269
0.91983
0.921022
0.990619
1.04503
1.04427
0.971328
1
1
0.993015
0.993073
0.946607
1
1.03517
0.958774
1.03779
1.03486
1.03804
0.988429
1.03411
1.04875
0.91295
1.04908
0.91627
0.984254
1.03603
0.985607
1.03047
0.917329
0.97188
1.03559
1
0.97569
1.0227
0.953728
1.06957
0.9645
1.02855
1.03886
1.0694
0.920413
1.03186
0.991556
1
1.0381
1.03228
1.04944
1.05666
1
0.995482
1
1.01793
0.97354
1.00472
0.945462
0.922833
1
0.922129
0.938408
1.0288
1
0.92053
1.02213
0.983808
1.04013
1.0238
0.922025
0.969509
0.989102
1.00092
1.04052
0.924913
1.02211
1.02484
1
1.02518
1
0.992771
1.06535
1.02282
0.955523
1.05899
1.01633
1
0.925041
1.03375
1.00559
1
0.939749
1.03405
1.04383
1.11225
1.03826
1
1.01628
1.0721
1.01783
1
1.06901
1.01868
1
1.04316
1.0492
1.02873
1.08753
1.06272
1.01611
0.976408
1
1
1.06196
0.931809
1
0.930971
1.02368
1.044
1.04576
0.933115
1.05877
0.956218
1
0.939454
1.07973
1
1
1.04948
1.07877
0.932771
0.978477
1.01081
0.941069
0.939454
1.01069
0.975618
1.0111
1.00901
1.00703
1.05912
0.988141
1.01036
1.03189
0.978138
1.01876
1.02278
1.06434
1.00069
0.930442
1
1.00133
1.08093
1.00673
1.05463
1.07973
0.957908
1
1.0061
0.99822
1.0262
0.964844
1
1
0.988351
0.988368
0.958334
1.02891
1
1
1.02884
0.973992
0.997432
1
1
1.02015
1.0018
1.00214
1.06793
1.0247
0.940622
1.02338
0.998815
1
0.940593
0.996933
0.950752
0.937603
0.992372
1.03628
1.09936
1.04752
0.993934
1.04417
0.984376
1.03694
1.04826
0.950133
1.01054
1.08614
1
1.01855
1
1
0.983681
0.979947
0.987635
0.980755
1.06811
1.00626
1
1
0.985819
1.04053
0.943768
0.95361
0.992106
0.942668
0.999351
0.98773
1.04145
0.944457
0.931466
0.989836
1.08238
0.956393
1
1.00297
1.00104
0.943886
1.08039
0.994487
0.993509
1
1
0.996526
0.994261
1.07255
1
1
0.993408
1
1.03347
0.951774
0.945393
0.967007
0.990274
1.03405
0.981503
1
0.945047
0.968271
1
0.95223
0.914794
0.98258
1.02163
1.02408
1
1
0.990082
0.985236
1.01002
0.946368
0.946828
1.07921
0.967488
1
1
1.02765
1
1
0.949846
0.993448
1.05478
1.02803
1
0.915378
0.948797
0.972474
1.04973
0.970099
1.05745
0.987156
1.00006
1
1
0.962987
0.98366
0.989089
0.970782
1
1
0.918008
0.9693
0.957277
0.949702
1.02079
1.01478
0.966121
1
1.04583
1
1.02124
1
1.03361
1
0.946612
1
1.02014
1
1
1
1
1
1
1.00003
1.04979
1
1.02364
1.04758
1
1.03642
1.07056
1
1.00401
1.014
1.0421
1
1
0.976778
0.955509
0.974712
0.991507
1.04796
1.04621
1.00294
1.01332
0.992612
1
1
1
1
1.00516
1.01518
1.04401
0.995625
1.00563
0.972876
1.01585
0.976929
0.976468
0.997989
1.03731
0.950477
1.04243
1.02235
1.04447
1.02306
1
1.00005
0.956806
1.03434
1
1
1.00094
0.958054
0.978843
0.998929
0.953181
1.03905
1
0.967326
1
1.00913
0.936209
0.944081
1.03765
0.962054
0.977026
0.993212
1.03769
1.02869
1.03943
1.01611
1
1.03681
1.02846
0.964468
1.03227
1.06612
1.00806
1
1
0.98554
1.03519
1.04026
1.06133
1.07982
1.00463
0.950276
0.987141
1
1.03941
0.993342
1
1.0355
0.990146
0.950112
1.03297
0.995396
1.00625
1.01295
1.06723
1.01218
0.994134
1
0.997497
0.995803
1.06791
1.01296
1
0.997557
1.01661
1.03129
1.00642
1.062
1.03239
0.991232
1
0.956105
1
0.992358
0.939812
1
1
1.07862
0.934436
1.04811
0.939972
1
1
1.05108
0.98788
1.00577
0.937015
1
0.974396
1
0.989478
1.0729
0.942358
0.986925
0.933898
0.996539
1
1.05356
1.02965
1.01926
0.973117
0.98993
1.01321
1.01506
0.99488
1
1.05763
1.00137
1.07075
1
1.0547
1.05162
1
1.00885
0.952914
0.999634
0.946839
1.05775
0.913961
1.00654
1.00854
1.04339
1
1.04637
1.00479
0.948188
1.10944
0.94736
1
1
1
0.997979
0.936141
1.04687
1.01435
1.04383
0.989617
1
0.999999
1.08104
1.04318
1.03694
0.9735
1
1.02183
1
1.02726
1.01734
1.02061
1.03878
1.07549
1.02045
1.01531
0.991925
1.03945
1.0373
1.00425
1.00002
0.963988
0.913354
1.01418
1.00001
1.02956
0.982184
1
1
1.00519
1
1
0.998553
0.96054
1.02608
1.03286
1.04775
0.99977
1.07233
1
1.00795
0.999413
0.975817
0.97346
0.9775
1.03282
0.934047
0.930914
1.03051
0.96083
1.05084
0.955585
0.980086
1.03686
0.955292
1.02369
1.05236
1.03041
1.00692
0.939853
1.02602
1
1
1.01786
1
1.02314
1
1.02898
1.02666
1.02422
1.02243
1.01713
1.04557
0.955575
1
1.05098
0.982275
0.986787
1.01181
1.04595
1.05386
0.990683
1.01649
1
1.02493
1.01966
1.00287
1.01164
1.03327
0.975175
0.948221
1.0438
0.94322
0.995266
1.03266
1.02006
0.99021
0.985152
1.01692
0.999876
1
1.04407
1.00744
0.994265
0.983133
1.00994
1.002
1.00713
0.974119
0.954459
1.01945
1.01314
0.959071
1
1.03427
1.02372
0.984285
1.02845
0.988185
1.04182
1
1.01191
1.01122
1
1
1
1
1.04242
1.0542
1.0067
1.05518
0.981361
1
1.01354
0.993654
1.0315
1.01429
1.01099
1.0199
1.01832
1.02775
0.979369
1
1
0.993484
1.04299
1
1
0.991855
1.03515
1.00718
1.04169
1.01809
1.03173
1
0.996198
0.987433
0.997925
1.03785
1.04058
1.01836
1
1.00582
0.975187
1
1.04004
0.992741
1.0389
0.992612
1.03949
1.00634
0.972814
0.937484
1.06073
0.938021
1.04464
1.04159
1
0.990397
1.03144
1.04371
1.01951
1
1
0.990167
1.00095
0.974988
0.936599
0.989719
1
1.0777
0.988933
1.04862
0.956921
1.00009
1.04656
1.04758
1.02005
0.938464
1.08102
1.0453
0.955998
0.997143
0.993382
0.954347
1.06319
0.994522
0.940173
0.993774
1
0.997184
1.00409
1.01317
0.976077
0.988901
1.05038
1.08218
0.974924
1.01399
1.01876
1.01417
0.964125
1.08472
0.95842
1.04973
0.989595
0.983397
1.00776
0.979483
1.01593
0.99044
0.992015
1.00663
1.04918
0.983532
1.01687
0.980201
0.959126
0.95979
1.00967
0.959913
1.06611
1
1.01466
1
0.978449
1.06693
1
1
0.975129
1.05378
1
0.992116
1.02432
1.08029
0.991669
1
0.937295
1
0.981059
0.961098
1.06082
0.95919
1.01405
1.06163
1.01443
1.00524
1.00735
1
0.945461
1
1.05855
1.0213
1.05499
1.00291
0.977791
1.0506
1.05909
1.05105
1
0.976996
0.935207
1.05476
0.999626
1.05426
1.03096
1.00088
1.0554
1.00541
1.01321
0.999435
0.97982
1
0.961321
1.07978
0.981268
0.93737
0.999999
1.05244
0.949281
0.980551
0.927828
0.997081
1.05322
1.01278
1.02812
1
1.00798
1.00839
1.04672
1.05459
1
1.04921
0.986086
0.991948
1.05329
1
1.04712
1.04965
1.00815
0.963803
1.05627
1
1
1.05523
1.04602
1.05834
0.93555
1.05699
1.04677
1
0.979015
1.01377
1.01332
1.04371
0.992199
0.9582
0.958351
1.06336
1.0443
1.05269
0.987373
1
1
1
0.963638
1.04054
1
1.00259
0.946581
1.05924
1.02356
1.00601
0.995912
0.978599
1.04096
1.00536
1.00239
1.04208
0.91446
1.00507
1.03377
1
0.94647
1.03624
0.985957
0.936336
1.03601
1.03472
1.06046
1.00412
1.06536
1.06414
1
0.977731
0.924306
1.03777
1
1
1.01014
1
1.06289
0.952839
1.03868
0.996692
1
1.041
1.0091
1.00908
1.06742
1.01096
0.939417
1.03509
0.986914
0.991342
1.06156
1
0.983178
0.992091
1.01023
1.0449
1.03539
1
0.985914
0.942238
1.0053
1.06624
1.02722
0.987302
1.06736
1.0049
1
1.00948
1.01601
0.962826
1.13272
1.02165
1.08011
1.03161
1.01657
0.926529
1.05114
1
1
0.985911
1.01569
1.03249
0.992507
0.989135
1.01839
1.01293
1.07604
0.990735
1
0.915616
1
0.936034
1.01728
1.0296
1.02976
0.970488
1
1
1.06826
1.07311
1
1
1.02223
0.969876
1.01164
1.07063
1.0212
1.01913
1.0251
1.02496
1.03499
0.988878
1
1.01951
1.02514
0.98235
0.989544
0.960068
1.02432
1.00585
1
1.03525
1
1
1.08387
0.990569
0.997474
1.0647
1.02164
1.08062
0.991355
1
1
1.0229
1.08717
0.987287
0.936862
1.0288
1
1.06521
1.02095
1.02789
1
1
1
1
1.03207
1
0.991347
1.01826
0.976942
1.0249
1.01922
1
1.03126
1
1
1
1.03477
1.01583
1.01635
1
1.02882
1.03367
0.971949
1
1
0.9706
0.991058
1
0.967535
1.03702
1
1
1
1
1
1.01235
1
0.987801
1.03645
1
1.04423
1.00437
1
1.01232
0.931297
1
0.96556
1.03249
1
1
1.04363
1.04897
1
1
1
0.970707
0.967983
0.987003
1.04169
0.948226
1.04666
1
1
0.964364
1.04337
1
0.966443
1.04122
1
0.991319
1
1.05045
1
0.989931
1
0.954233
1
1
0.970451
0.931581
1.04289
1
1
1.04967
1
0.988701
0.967848
1.04578
0.937067
1
0.922125
1
0.947682
0.973938
0.990668
0.988867
1.02137
1.02377
1.04507
0.994202
0.999212
0.970774
1
1.00258
0.992919
1
1
0.96022
0.969143
0.997345
0.92361
1.0499
1.04619
1.01307
1
1.04898
1.08068
0.972202
1.05158
1.04436
0.97409
0.997411
0.974768
0.965546
1.05013
1.04647
0.96649
1.05089
0.996733
1.02372
1.03753
0.955711
1.00857
1.04291
0.971426
0.956966
1
1.02774
1
1
0.935246
1.02412
1.0447
1.01092
1
1
1.00894
1.01164
1
1.04043
1
1.03913
1.02877
1
0.907991
1
1.02343
1
1.00043
0.951849
1
1.04328
0.9456
1.04308
1
0.934311
1
0.916043
1.00151
1.00006
1.0257
1.00042
0.927634
1.02605
1.02052
0.966951
1.05688
1.08319
1.0411
1.0057
1.02507
1.02509
0.929919
1.02089
1.03575
0.968603
1
1.046
1
1.07952
0.991674
1.0281
1.02821
0.926799
0.99815
1.00857
1
1.01118
1.032
0.993711
0.996343
0.979237
1.07522
1.00672
0.974441
1
1.01423
1.02768
1
1
1
1.02765
0.975078
1.02494
1.01493
1.00201
1
1.02967
1.07617
1.01668
1.02957
1.01139
1
1.08038
0.929105
1.02905
1.06806
1.01192
1.01609
0.999998
1
0.975067
1.02883
0.991905
1.07506
1.0629
0.99333
0.993815
0.992952
1.09748
1.06897
0.993775
0.94915
1
1.01379
1.03223
0.99669
1
1.0333
1
1.05646
1.00299
0.974178
1.06114
1.05974
1.04146
0.979647
1.01195
1.01948
1.05204
1
1.03782
0.989573
0.976437
1.02122
1.03286
1
1.06374
1.03163
1.05646
0.989267
0.986354
1
1.06671
1.01885
1.08823
1
1.04881
0.967076
1.01535
1.05745
0.978689
1.06006
1.05397
1.01375
1.05269
1.06191
1.00014
1.03409
1.04264
1
1.0176
1.02252
1.05752
1.05044
1.04598
0.959006
1.07147
1.03629
1.06768
1.01491
1.0123
1.03653
1
1.03348
1.05425
1.02146
1.04778
1
1.03559
0.985817
1
1.09027
1.05125
1.04491
1.02414
1
1.07249
0.987238
1
1.04856
1.03819
1.04183
1
1
1.02356
1.0453
1
1.03758
1
1.03954
1.03575
0.965712
1
1.04268
1
1.03602
0.93488
1
1.01466
1.04011
1.03997
1.03368
1
1
1
1.02825
1.03961
0.984287
1.03674
1.00341
1.03014
1.03928
0.964964
1.00475
1.04664
1
1
1.01733
1.01865
1.00503
1
1.0274
1.0475
1
1.03448
0.981653
0.972251
0.98263
1.04208
0.999424
1.02587
1.03865
1.03216
0.983315
1.03066
1.01467
1.06734
0.972189
1.00458
1.02995
1
1.08891
1.04153
0.98843
1.02422
1.06543
0.948185
1.00574
0.985824
0.956355
1
1.02644
1.04175
1.04705
1.02932
1.04198
1
0.948788
1.01997
1.02263
1.04431
1.02473
1
1
1.04115
1.01702
1.04653
1
0.93722
1
1
0.941681
1.04371
1
1.02026
1.05971
1.02608
1
0.979819
1.02427
1.04361
1.01288
1
1.01734
0.931776
0.986953
0.935553
1.05593
0.991241
1.03381
1
1.04626
1.02126
0.933049
1
1
1.00889
0.951177
1.01332
1.0279
1.03303
1.04307
1.04566
1
0.999185
1.02067
1
0.944729
1.01009
1.00684
0.97012
0.929685
1
0.985594
1
1.04572
1.0073
1
1
1.02484
1.02087
1.0268
1.01599
0.937526
1
1
0.980411
0.949747
1.03687
1.0222
1.01244
0.970873
1.0451
0.946256
1.04961
1
1.03614
1
1.049
1
1
0.943203
1
1.04802
0.99996
1
0.910557
1.03955
1.02603
0.957806
0.999263
1.00794
1
0.963432
1.0437
1
1.04739
1
1.00003
1.01555
1.03878
0.988009
1.03454
1
0.965721
1.0073
1.10852
1.05572
0.947364
1
0.982993
0.938914
1.05245
0.984598
1
1
0.989254
0.99429
1
0.920373
0.999303
1.04191
0.996297
1.05018
0.937374
1.05225
0.995367
1.0026
1.0189
1.0009
1.00108
0.988959
1.04118
1.01799
0.983267
0.981906
0.999237
1
1.04954
1.00188
1
1
0.968226
1
1.05799
1.01997
1.00249
1
1.04433
1.05328
1.02025
0.982807
0.968545
1
1.05231
1.01922
1.07866
0.930235
1.04362
1.02051
1.02294
0.981106
1.02154
0.953368
0.935882
0.935717
0.988658
0.938098
1.05185
1.04928
1
1.00976
1
0.941741
0.962365
1.06719
1.06341
1
1.03747
0.940644
0.98929
0.946899
1.04684
1.0291
0.938218
1
0.991967
0.966153
1.05802
1.03563
1.01363
1
1
1
1
1.01309
1.02036
1.04615
0.941402
1.03697
0.949288
0.9996
0.976196
1.06415
1.02094
1.06837
1.01281
0.989805
0.988429
1
1
0.935268
1
1.01745
0.976413
0.943402
1.02118
1.01358
0.992193
1.04243
1
0.994742
1
1
0.959554
1.04896
1.01508
1.05892
0.982692
1.01694
0.97389
1.08697
0.980507
0.942912
1.02067
1
0.986568
1.04837
1.00704
1.01336
1.02397
1.01411
0.9352
1.01375
1
1.03987
1.0237
0.94346
1
1.02452
0.978552
1.00439
0.991479
1
0.922225
0.935148
1.01653
1
0.994021
1
1
1.00787
1
1
1.02295
1.03889
0.959618
0.982214
0.942547
1.0237
1.01673
1.0512
1
1
0.961129
0.972907
1.01412
1.00651
1.02672
1
1.01945
0.936541
1.0131
0.990406
0.97087
0.934902
1
1.03714
1.02345
1.01921
1.0506
1.00025
1
1
1.08062
1.01664
1.05314
1.01788
1.02709
1.02524
1.00577
0.999499
1
1.01976
1.01508
1.05234
1
1.01144
0.97727
0.931432
1
0.999098
1.02832
0.949388
0.989554
0.953318
1.02613
1.0481
1
1.03788
1.01788
0.999994
1.00774
1.00927
0.949214
0.935986
1.019
1.02451
1.00199
0.9512
1.02613
1
1.03003
1
0.961134
1
0.999843
1.02801
0.936825
1
1.00817
1.05339
0.987143
1
1.04697
0.986325
1
0.988458
0.949178
1.02533
0.984274
1.02931
0.990422
0.93077
1.05285
1.01695
1.02059
0.950456
0.983059
1
1.0285
0.986521
0.989108
0.992027
0.988868
1
0.937551
1.03048
0.972604
1
1.02622
0.962808
1
0.99077
1.01696
1.03106
1.0247
0.984407
0.975713
0.983924
0.992568
1.02422
1
0.980375
1.03855
0.99746
0.992504
0.96047
1
0.95752
1.00801
1
1.0188
1
0.968989
1.00365
1
1.03025
1.02422
1
1.00964
1
0.988053
0.975233
1.03747
1.03461
1
0.936568
1
1.0423
1.09347
1.01239
1
1.01942
1.05278
1.02466
1.03227
1.00435
0.957095
0.985041
1.00434
1
1.07082
0.973634
1
0.972453
1.03488
0.96668
1.01236
1.06379
0.934695
1.05698
0.978482
1
1.03275
1.05415
1.04152
1.02122
0.991727
1
1.04612
1
0.967471
1
1.05625
1.02519
0.970032
1.00002
1.02784
1.03423
1.05326
1
1.04637
1.09196
1.05399
1.01448
0.955518
1.04563
0.980448
1.02044
1.06551
1
1
0.985953
0.996397
1.04252
0.99572
1.0519
0.987061
0.971749
1.04719
0.966395
1
0.979476
0.972569
1.05474
1
0.976421
0.956162
0.934653
1.0209
1.05569
1
1
0.985549
0.934849
1.0432
0.951918
1.03687
1.00875
1.04535
0.934214
1.07883
0.984133
1.05923
1.06586
0.948869
0.979692
1
0.978145
1.08666
1.05419
1
0.978219
0.995174
0.924112
1.04526
1.03325
1.03746
1.01492
1.00609
0.965912
1.01808
1.06385
0.987481
1.0285
1.02724
0.987127
1.03118
1.02478
1.03313
1
0.983883
1.02284
1.04262
1
0.98558
1.02143
1.0174
1.05914
1.01944
1.03821
0.936285
1.02211
1.01568
1
1.0228
1.03518
1
1.04056
1.01887
0.980142
0.988071
1.01707
1
0.98731
0.978756
1.02546
1.02184
0.99938
1.0311
1.04264
1.01828
1.01837
1
1.07173
0.979195
0.99226
1.01321
1.00053
1.02655
1.0447
1.08457
1
1.04332
1.04844
1.0281
1
1.02633
1.03032
0.99208
1.0244
1
1.02208
1.03257
1.01803
1
1.04441
1.00016
1.0312
1.03451
1.01673
1.03802
0.938776
1.02968
1.04694
1
1
1.06022
1.05154
1.03773
0.984192
1.03324
0.978303
0.963655
1.0057
0.997939
1.00034
0.965722
0.986924
1.02518
1.03366
1.03987
0.977232
0.971411
0.988453
1.04088
0.999462
1.00908
1.03028
1.04215
1
0.999362
1.01579
1.01607
1.00001
1.04911
0.984346
1.04027
0.999597
0.999
1.04407
1.02516
1.03396
1
1.01032
1.01761
0.982086
0.932862
1.00011
1
0.956448
1.03042
1.0355
1.02719
0.933228
1.01315
1.06151
1.03019
1.04624
0.975726
1.08328
1.01268
0.964835
1.03364
0.955641
1
1.03347
1.0514
1.00489
1.08535
1.01151
1
1
0.975293
1.01773
0.944372
1
0.96838
0.939448
1.03428
1.03304
0.999974
0.982897
1.0316
1.04849
1.03451
1.03771
1
0.98186
1.01184
1.03214
1.07436
1
1
1.00639
1.02418
1
1.06237
1.03525
1
1.01357
1.06233
1
1
0.999984
0.963856
0.974753
0.926196
0.9952
0.975365
1.01523
1.0507
1
1.00456
1.04214
1
0.946726
0.995593
1.03882
1.00801
1
0.937608
0.940468
0.993316
1.01274
0.920305
0.999822
1.00226
1.00321
1.01967
1.01451
0.969102
0.964859
1.02693
1
1.01722
1.08433
1.03109
1.05274
0.970615
0.974885
0.963965
0.974552
1
1.01811
1
1.03955
1.05024
0.920776
0.968795
0.969839
0.974307
1
0.992912
1
0.942399
0.937358
0.998057
0.970899
0.995861
0.971277
0.99971
1.01365
1.0927
1
1.01474
0.968866
0.944856
0.965493
1.06207
1.06001
1
1.03081
0.971302
1.07228
1
0.972705
1
1.05466
0.990546
1.01328
1.00952
1
0.920794
0.986567
0.968776
1.02995
1
1
1
1.00829
1.02532
1.0208
1.01809
1.05423
1.04938
1.06102
1.01172
1.02008
0.93052
0.944051
1.04985
1.05399
0.999999
1
0.968806
0.970381
1.00143
1.01165
0.964168
1
1.00477
1
1.00817
1.00112
0.981932
0.980728
0.961138
0.918421
1.04739
1
1
0.948891
1
0.965408
1.01265
1.01849
1
0.982187
1.00913
1
1
0.96448
1.00184
0.964293
1.01554
1.0271
0.921876
0.978561
1.03769
0.960898
0.978891
0.999997
1.08341
1
1.02056
1.04327
1.00732
1
1.0949
0.952191
1.04674
1.02342
1
1.01201
1.05094
0.994647
1.06802
1.02668
1
0.993386
1
1
1.02772
1.01542
0.971812
1.04268
1
1.01625
0.976393
1
0.965087
1.03657
1
1
1.05845
0.992196
0.919527
1.0706
1
1.02915
0.991909
1.01437
1
1.05953
0.975582
1.05033
1.01778
0.992596
1
1.01004
0.962804
1.03592
1.01526
1
1.03244
1.05771
0.974357
1.01971
1.02515
1.04506
0.996314
0.983353
1.00393
0.956327
1.06319
1.01968
1
1
1.0706
1.08489
1.02287
1
1.00798
1.00405
1.05025
0.97894
1
1.04997
0.967323
1
0.979649
0.980291
1.00673
1
1.03577
1.02569
1
0.94116
1
1.02855
0.986248
1
1.01899
0.987051
1.02862
0.998708
1
1.03318
0.948207
1.01567
0.99241
0.964804
1.00485
1
1.01342
1.03584
1.0339
1.06465
1
0.958289
1
1.02258
1.0382
1.09551
1
0.956689
1
1.03163
1
0.994695
1.017
0.994059
0.948882
1
1.04333
0.933435
0.992766
1.05085
1.04076
1.05886
1
1.02152
0.982791
1
1
1.00303
1.03517
1.02066
1.01526
1
1.08122
1.03614
1.00208
0.981868
1.00747
1.06625
1
1.02585
1
0.984892
1.06179
1.05637
1.03341
1.07397
0.97274
1.04316
1.09944
1.03741
1.08211
1.00003
1.0448
1.04014
0.996485
0.985699
1.00459
0.956369
1.04518
0.987949
1
1.0251
1.00224
1
0.991442
1.06004
1.04009
1.04561
1.06776
1.0292
1.00246
0.986181
0.999107
1.0364
0.981542
0.997268
0.915809
1.07679
1.05705
1.06243
0.989128
1
0.953498
1
0.923714
0.990812
1.0141
0.994266
1.04245
1.05127
0.999181
0.952253
1.02922
1
1.02873
1.07807
0.995118
1.04795
1
1
1.03814
0.946205
1.0512
1.05974
1
0.948546
1.03194
1.02147
0.999201
0.978851
1.04081
1.04097
1.0258
1.04494
0.967834
1.023
1
0.956659
0.973349
0.981862
0.925876
1
1.01846
0.995034
0.995279
1
0.9882
1.05004
1.01121
1.03076
1.00009
1.01075
0.975082
0.928653
0.932674
1.0579
1.0269
0.97745
1.03416
1.01578
1.04736
1.09459
1.02791
1
0.98049
1.04172
0.937062
1.04878
1.00452
1.00441
0.941302
0.974952
1.02503
0.971654
0.976528
1.01504
0.942348
1.02024
1.02219
1.04993
0.945023
1.0468
1
1.09665
1
1.02206
1
1
1
1
1.07001
1.03375
1.05226
1.02713
1.05119
1.00283
1.01728
1.01609
1
1
1.03056
1.04012
1.04947
1
0.990655
1.01445
1.03862
1.03738
1
0.947068
1
0.964787
0.94174
1.05048
0.987021
1
1.03272
0.974125
1.04676
0.926302
1
1.05229
1.04606
0.967761
1.00212
1.03622
0.938513
1.04711
0.958937
1.00077
1.05174
0.927729
0.951105
0.973504
0.965848
1.04844
1
1.03996
0.957894
1.01537
1.05569
1
1.03676
1.03719
1.01155
1.0452
0.965541
0.958714
1
1.06927
0.967587
0.956532
0.995618
1.04439
1.04152
1.04413
1
1.04755
1
1.04206
1
1.03921
1.00999
0.954318
0.947045
1
1
1
1.04317
1.09145
1.03935
1
1
1.03875
1.01179
1
1.08729
0.967548
0.999972
0.999525
0.978654
0.986846
0.991226
1.00856
1.04284
1.04439
1
1.0846
0.956729
1.03138
1
0.979901
1
0.966269
1.04522
0.963119
0.992796
1.04735
1.00811
1.04548
1
1.00161
0.96876
1.05525
1.01268
1
0.985872
1.04214
1
1.06282
0.994351
0.943227
1.04581
1.07087
0.978864
0.955109
1.06667
0.977285
1
1.04216
1
1.00321
1.03198
1
1
1
1.0287
0.977623
0.94285
1.0633
1.05883
1.0461
0.988578
0.997104
0.971966
1.05031
1
0.985168
0.965534
1.04863
0.939961
1.02489
0.997103
1.04358
1.04249
0.972303
0.999356
0.972756
1.00904
1.00099
1
1.01636
1.02538
0.971878
0.953288
1.04767
0.94617
1
1
1.04808
1.02238
0.962549
0.967043
1.02478
1.0459
1
1.0004
0.997365
0.985456
0.99753
1.00723
1.04936
1
0.972169
1.04514
1.00554
0.961032
0.969938
1.04864
1.04492
1.07594
1
1
1.04384
1
1
0.989014
1
1.0436
1.03908
0.974472
1
0.989981
1
0.974626
0.942416
1
0.974211
0.983866
0.995388
1.09182
0.993821
1.04015
1.00873
1.05124
1.00458
1.0485
1.04155
1
1.05688
0.971882
1.08788
1.02658
1
1.05751
1.059
0.992084
1.0074
1.02839
0.974485
0.94455
0.971693
0.996152
0.976401
1.00862
1
0.998117
1
0.994712
0.942431
1
1
1
0.956001
1
0.991256
0.963983
0.99918
0.933566
1.06504
0.993571
0.988225
1
1.04052
1.04784
0.966608
1
1.05387
1.03729
1
1
1
1
1.09067
1.00603
1
1
0.992294
1
0.939768
1
0.998981
0.970489
1.01429
0.939362
0.999138
1.05212
1.00001
1
1
1.00147
1.05609
0.925611
1
1.07609
1.07003
1.02325
0.948021
1.05663
1.00889
1.02554
1
1.03839
0.978747
1.02895
1.00737
0.97206
1.05083
1.0323
1
1
1.05138
0.938999
0.98844
1
0.988935
1.02094
1.03516
1
1.08763
1.02385
1
1
1.02087
1.0512
0.992536
1.06154
1
1.06842
1.0481
1.04913
0.973388
1.07252
0.934002
1.02533
1
1.03489
0.962975
1.07433
0.971133
0.997136
0.977897
0.964071
0.997521
0.973764
1.04622
1.02183
1.03674
1.01754
0.942195
0.997627
0.934688
1.02939
1
1.03358
1.04655
1.04507
1
1
0.967493
1.07556
1.06822
0.96413
1.0221
0.964582
1
1
1.02938
0.989303
0.959521
1.03888
1.06094
1
0.998226
1.0802
0.969279
1.04449
0.954736
0.987461
0.955493
1.0233
0.999864
1.04311
1.03458
1.053
0.988637
0.9647
1.02933
0.963878
0.966941
0.972737
1