/*--------------------------------*- C++ -*----------------------------------*\
  =========                 |
  \\      /  F ield         | OpenFOAM: The Open Source CFD Toolbox
   \\    /   O peration     | Website:  https://openfoam.org
    \\  /    A nd           | Version:  12
     \\/     M anipulation  |
\*---------------------------------------------------------------------------*/
FoamFile
{
    format      ascii;
    class       volScalarField;
    location    "3.78";
    object      T;
}
// * * * * * * * * * * * * * * * * * * * * * * * * * * * * * * * * * * * * * //

dimensions      [0 0 0 1 0 0 0];

internalField   nonuniform List<scalar> 
22702
(
1
1
0.96531
1
1.01711
1
1.12138
1
1
0.893449
1.1209
1.12068
1
1.11837
0.970845
1
1
1
1.12061
1
1.11865
1
1.11931
0.89749
1.11825
0.914222
1
1.11993
0.892547
0.896385
1
1.11924
1
1
1
1.11067
1.11816
1.11944
1
1
0.891667
1
1.06149
1
1.11987
1
1
1
1
0.898709
1
0.898594
1
1.12083
1
1.11896
1
1
1
1
0.87745
1
1
0.894792
1
0.892975
1
1
1
0.896854
1
1.11877
1.07598
1
1.11882
1.12552
0.896238
1.11951
0.89934
1
1.12079
0.897072
1.1196
1.12019
1
1
1
1
0.984708
0.895094
1.12055
1
1
0.890117
1
1.11874
0.887731
1
1
1
1
1.06186
1.12056
0.908953
1
1
1.0305
1
0.897173
1
1.11874
1.12039
1
1
0.899093
0.900205
0.89394
1
1
1
1
1
0.979503
1
1.10275
1.0106
1.11952
1
1.11948
1.12057
1.11836
1.12123
1
0.890578
1
0.883404
1
1
1
1
1.12038
1
1
1
1
1.11903
1
1.00726
1
1
1
1
0.898655
1
1.00302
1
0.899687
1
1
1
1.12021
1
1.11878
0.889904
0.893837
1.11911
1.11899
1
1.0241
1.0718
1
1.12105
0.899684
1.11078
1
1
1
1
1.11844
1.10247
1
1.11999
0.899497
1.11961
1
0.899423
1
0.900233
0.908886
0.999937
1
1
1.1199
1
1
1.11864
1
1.11861
1.12015
0.896235
1
1
0.896926
1.11854
1
1
1
1.11848
1
0.893608
1
1
1.11856
1.11851
1.11852
1
1.00001
1
1
1
1.11858
1
0.900075
1.12375
1.11862
1.11829
1
1
1
0.891325
1.11836
1.05868
1
1.11896
0.891294
0.893064
1.11898
1.1191
1
1.12049
0.879233
1.10626
1
1
1
1
1.11846
1
1.0732
1.01211
1
1
1.11876
0.876787
0.938931
1
1.11926
0.894554
1.11944
1
1
1
1
1
1
1
0.894297
0.930726
0.892233
1.11852
1
1
1
1
1.10969
1
0.896361
1
0.888959
0.897726
1.11809
0.890626
1.11857
1
1
1
0.999288
0.897853
0.867707
1
1
0.886679
1
1.12025
0.905534
1
1
1.12105
0.870893
1
1.12007
0.890622
1.11877
1
0.893755
0.999363
1
1
1
0.89736
1
1
1
1
1.00884
1.07585
1
0.908333
1
1
1
1
1
1
1
1.12115
1
1.1209
1
1
1
0.887491
1
1.11884
0.889157
1
1.0997
1
1
1.12112
1
1
1
1.1182
1
1
1.11428
1.12115
1
1.02738
1
1
0.881263
1
1
1
0.889652
1
1
1
1
0.907483
1
1
1
1
1
0.864159
1.00002
1.11882
1
0.999991
1.11888
1.11924
1
1
0.899534
0.944234
1.12034
1
1
1
1.11872
0.898375
1
1.11872
1
1
0.901834
0.902604
1
0.895159
0.887448
1
1
1
1
1
1
1
1.12012
1.03102
1.11211
0.86575
0.97435
1.12071
1
1.11909
1.12029
0.884506
0.93934
1
0.892544
1
1.12408
1
1
1
1
1.11856
1
1
1
1
1
1
1
1.04754
1.11987
1
1.11856
1
1
0.898226
1
1
1
1
1.11848
1.09281
1
1
0.896454
1.11874
1.11855
1
1.11856
1.11871
1.11852
1
0.945642
1
1.11824
0.997064
1.11857
1
0.890359
0.999667
1.12097
1
1
1
1
0.894947
1.11798
1.10885
1
1.11888
1.11857
1.12023
1
1.05969
1.11863
1
1
1.08504
1.01922
1.11846
0.984309
1.11849
1
1.11849
1.1186
1.1185
1.1187
1
1.11035
0.976986
0.969725
1
1
1
1
1.11777
1
1
1
1
1
1.12068
1
1
0.998848
1.11852
1.10502
1
1.10467
1.00001
1
1
1.1183
1
0.9992
1.00134
1
1.11872
1
1.11934
1
1
1.09014
1
1.11914
1.00001
1
1.11943
1
1.11849
1
1
1
1.11846
1
1.1183
1
1.11854
1.12141
1.11864
1.12021
1
1.12114
1.12001
1
0.895597
1.11229
1.08712
1
1.11858
1
0.8785
0.886366
1
1
1
1
1
0.886805
1
1.11859
1.03306
1.11851
1
1
1
1
1
1.1185
1
1.11842
1.07401
0.933773
1
1
1.03595
1.03283
1
1
1.04483
1
0.900708
1.11892
1.11865
1
1
1
1.12136
1
1.00001
1.11813
1.11785
0.981327
1
1
0.89789
1.10895
1
1
1
1
1
1.11852
1.12094
1
1.11926
1.11859
1.11875
1
1
1
1
0.910621
1.12061
1
1
1.10905
1.11852
1
1.11222
1.11973
1
1
1
1
1
1.11893
1
1
1
1
1.12009
1
1.11479
0.884087
1
0.885521
1
1
1
0.999105
0.897905
0.999741
1
1
1
1.01792
1
1
0.956275
1
1
1
1
1
1
1
0.999999
0.983207
1
1
0.999271
1
0.895943
1
1
1
1
1.09086
1
1
1
1
0.8902
1
1
1.11246
1.12069
1
1
1
0.968077
1
1
1
1
1
1
0.981758
1.00506
1.11849
1
1
1
1.11959
0.974442
1
1
1
1.11989
1.11936
1
1
1
1
1
1
1
1
1
0.886261
1
1
1.11974
0.89279
1
1.11962
1
0.899148
1
1
0.886017
1
1
1
1
1
1
1
1.11651
1.11855
1
1
1
1
1.10927
1
1.04078
0.894962
1
1
1
1
1
1
1
1.00746
1
1
1.06477
1
1
1
1.09974
1
1
1
1
0.893365
1
1
0.887124
0.893308
1
1
1.11836
1
1.0004
1
1
1
1.08653
0.884108
1
0.882351
1
0.927402
1
1
1
1.11875
1
1
1.11857
1
1
1
1.11864
1
1
1.11839
1
1
0.88586
1
1.04231
1
1
1.12068
1.12081
1.0815
1.10744
1
0.888736
1
1
1.11342
1
0.895473
1
1
1
1.11913
1
1
1
1
1.07396
1
1.11173
1.11974
0.895312
1
1
0.913798
0.916135
1
1
1
1.08643
1.09315
1
1
1
1
1
1
1
1.05379
1.12111
0.997952
1
1.1172
0.891051
1
1
1
1.0681
1
1.0254
1
1.10891
1.11806
1
0.891257
1
1.11955
1
1
1.11875
1.11171
1
1.12203
1
0.894125
1
1
1
1.12024
1.11636
1.10516
1
1.11871
1.11867
1
1.11926
1
1.11804
1
0.895617
0.996848
0.888112
1
1
1
1
1
1.11873
1
1.11874
1
1
1
1.11318
1
0.896054
1.1187
1
0.902921
0.887868
0.885022
1
1.06223
1.01665
1.11888
1.11856
1
1
1
1
1.1186
1
1
1.11866
1.11857
1
1.04649
0.999877
1
0.999082
1.1201
0.960087
1
0.950118
0.900617
0.900605
0.994133
1.11927
1.11704
1.02768
1.11861
1.11859
1
1
1.12072
1.11991
1.11876
1.12136
1
1.1186
0.902233
1.11925
1.1185
1.11951
1.11849
0.955964
0.964013
0.97878
1.11834
0.992683
1.11819
1
1
1.11892
1.11867
1
0.892729
1.11906
1.11832
1
1.11884
1.11887
1
1.11854
0.896937
1.11921
1.12117
1.12107
1.11757
1
1
1
1.11826
1.08046
0.905382
1.11845
0.887433
1.11823
1
1
1
1
1.11962
1.11835
1
1
1.1183
0.888299
1.11877
0.897162
1
1.11783
1
0.893015
1.11853
0.911677
1
1.11865
1.11862
1.11829
1
1
1.05946
1.11815
0.897014
1.1171
1
1.11849
0.96612
1.11856
0.886381
1
1.11858
0.892002
1.11894
0.897334
1
1.11943
1
1.11929
1
1.07258
1.11494
1.09495
0.892626
1
1.11858
1
1.11836
1
1.11831
1
1
1.11846
0.994492
1.12025
0.893079
1.1087
1
1.08696
1
1.11882
1.11809
1.1187
1
1.10767
1.11841
1.11062
1.07509
1.11809
1
1.08132
1
1.11853
1
1.02057
1
1.11054
1
1.11845
1.11298
1.11332
1
1.11839
0.900805
1
0.885269
1
1
1
1.11922
1
1.11895
1
1
1
1.11879
1.11554
1.10084
1.11894
1.11934
0.886682
1.11587
1.12032
1
1.10251
1.11804
1.11703
1
1.12092
1.11922
1
1.12118
1.11894
1.11868
1.11936
1
1
1
1.11857
0.903602
1
1.11951
1
1
0.875324
1
1
1.11918
1.11873
1
1.11994
1.11765
1.11881
0.99482
1.11849
1
1.11853
1.1181
1.098
1
1
1
1.11912
1.11873
1.11855
0.989084
1
1.11936
1.11872
1.11843
1
1.11866
1.11857
1.11801
1.11971
1
1.11856
1.11779
1.10416
1.11878
1.11948
1
1.12027
1.11756
1.1189
1.11962
1.11854
0.907365
1.11874
1.119
1
1.11854
1.11901
1.11852
1.1185
1
1.1185
1.11854
1
1.11837
1.10078
1
1
1
1.11945
1.11686
1
1
1.06714
1
1.11858
1
1
1.11865
1.1189
1.11855
1.11849
1
1
1
1.08687
1
1.11847
1
1
1.12034
1.1213
1
1.11925
0.881671
1.11856
1.11879
0.907915
1
0.89071
1.10478
1.11931
1.11839
1.11828
0.874657
1.11845
1.11892
0.876983
0.886968
1
1.11843
1.11818
1
1
1.11864
1
1.11934
1
1.10478
1
1.05958
1.11807
1.11842
1.08751
1.10856
1.11931
1.11833
1.11434
1
0.8947
1.11897
1.11878
1.11996
1
1
1
1.12022
1
1.1188
1.1182
0.918587
1
1.1187
0.999984
1
1.00001
1.00001
1.1188
1.11951
0.999561
1
1
1.11847
1.11943
1.11863
1.11918
1.1184
0.899531
1.10811
1
1.1178
1.11859
1.11863
1.11699
1
1.11883
1.11568
1.12025
1
1.11901
1.11928
0.955345
1.11712
1.11936
1
1.11866
0.948175
1.11866
0.96079
1.11731
1
1.11853
1.12238
1.11708
1.12001
1.11854
1.11943
1.12015
1.119
1
0.981023
1.11862
1.11845
0.952365
1.118
0.990267
1.07761
1.11864
1.11888
1.11977
1
1.12025
1.07874
1.11814
0.970722
1.12032
1.12124
1
0.960882
1
1.11695
1
1.08341
1
1.11104
0.963136
1
1.11878
1.1177
1
1.11948
1.11891
1.11881
1.11522
1.11659
1
1.12097
1
1
1
0.972676
1.1185
1.1192
1.12006
1.11793
1.11715
1.11965
1.11677
1.11727
0.975041
1.00913
1
1
1.12298
1.11925
1.11924
1.11921
1.00001
1.06434
1
1.12091
1.10434
1
1
0.918518
1.11847
1
1
0.904454
1.11898
1
1.12108
1.11853
1.11952
1.1144
1.11852
1
0.895795
1.03085
1.1185
1.11855
1
1.11888
1.11853
1.05866
1.00289
1.02802
1
1.11946
1.11855
1
1
0.887709
1
1
1.11719
1.11997
1.11797
1.11864
1.11865
1.1205
1.11869
1.11815
1.11854
1
0.998935
1.11875
1.11852
0.999131
1.11907
1.11807
0.898484
0.896277
1.11908
1.11702
1
1
1.00049
1.11879
1.118
1.11926
1
1.11944
1
0.959042
1.12056
1.11865
1
1.05712
1.11878
1
1.12026
1
1.11848
1.08181
1.11916
1
1.11841
1.11679
0.889046
1.11849
1
1.11906
1.12081
1
0.900516
1.11862
1.10338
0.99932
1.11457
1.11894
1
1.00322
1.11979
0.999265
1.11845
1
1
1.1189
1
1.11978
1.11799
0.999008
1.09523
1
1.11817
1
1
1
1
1.11879
1
1
1.1178
1
1.11847
1
1.07917
1.11823
1.11917
1
1
1.00221
1
1.11905
1.1184
1.11914
1.11849
1.11883
1.11866
1.11852
1
1.11842
1.11867
1
1.11853
1.11861
1
1.11895
0.981796
1.0169
1.11868
1.11866
1.1185
1
1.11848
1
1.11847
1.11853
1
1.11894
1
1
1
1
1.11852
0.894209
0.999407
1
1.11872
1.12006
1
1.11946
1
1.0015
0.896768
1.11851
0.999878
1
1.11856
0.999522
1.11845
1
0.999932
1
1.11833
1.12018
1.1187
1.11877
0.896421
1.11823
1.11778
1.11855
1.03163
1
1
1.0538
1.11906
0.891033
0.896733
1
1.11882
1.11859
1.11927
1
1
1.1184
1.11866
0.999962
1
1.08887
0.882216
1
1.02135
1.12094
1.11944
0.999497
1.11762
1.11982
1
0.999713
1
1.11923
1.11992
1.05024
1
1.11096
1
1.0008
1.11908
0.890494
1.11821
1.11777
0.999133
0.999975
1.10489
1
0.999912
1
1.11952
1
1
0.884203
1.11852
1
1
1
1
1.1203
1.06927
1
1
0.894444
1.11865
1.07008
1
1
1
1.11363
1.11966
1.1196
1
1
1.11786
1
1.11795
1.11868
1
1
1.11911
1.11812
1.11308
1
1
1.11912
1.11866
1
1
1
1.11898
1
1
1
1.1182
1.11941
1.11897
1
1.12008
1.00001
0.903644
1.11821
1.11823
1
1.1203
1.11357
1.12011
1
1
1.1197
1
1.06446
1.1196
1
0.898984
1
1.11914
1
1
1.11803
1
1
1
1.03992
1.1194
0.899021
1
1.11892
1
1
1.11873
1
1.11975
1
1
1.11817
1.11865
1
1.00002
1
1
1
1
1
1
1.11842
1.1186
1
1.12088
0.886307
1.12029
1
1.11807
1.12033
1.11825
1.11936
1.12109
1
1
1.11924
1
1.07728
1.11987
1.1184
1
1.11926
1.11703
1
1.10812
1
1.11804
1.08011
1.11913
0.999331
1.11526
1.11057
1.11906
1.11831
1.01013
1.11918
1.11925
1
1.11933
1
1.11867
1
1
1
1
0.998953
1.11793
1.11869
1.10211
1
1.12006
1
1
1
0.898273
1
1.11609
1
1.10867
1.11197
1
1
1
1.11254
1.12029
1
1
1.11822
0.892322
1.02317
1
1.11984
1.11843
1.10903
1.1161
1.11847
1
1.11816
1
1
1
1
1.11824
1.11885
1
1.11343
1.01986
1.11869
1.11144
1
1
1.1117
1
1
0.890743
1.08505
1
1
1.11904
1
1.11947
1.10898
1
1.10846
0.893041
1.11839
1.11862
1.11876
1
0.893649
1
1
1
1.1185
1.10124
1
1.11723
1.11861
1
1.1187
1
1
1
1
1.11856
0.999817
1
1.11915
1
1
1.1169
1.11864
1
1.12067
1.02662
1.00001
1
1.11853
1
1.11854
1
1.00404
1.11863
1
1.11882
1
1
1.03945
1.11834
1
1
1
1
1
0.998954
0.883243
0.895919
1.00587
1
1.00865
1
1.00706
1
1.11852
1
1.07357
1
1.11842
1
1
1
1.11864
1
1.09224
1.11846
1
1.06647
1.11905
1
1
1.11895
1.11889
1
1
1.01218
0.892772
1
1.11873
1
1
1
1
1.02077
1.11878
1
1
1
0.88966
1
1.11819
1.11874
1.12059
1
1
1
1
1.06102
1.11909
1
1
1
1.11853
1.11864
1.01293
1
1
1
1.11845
1.11857
1
0.900693
1.11858
1.1186
1.11868
1.11942
1.11946
1
1
1.11795
1.1186
1.1182
0.892405
1.01136
1.11889
1
1
1
1
1
1.11857
0.894764
1
1
1.1184
1.05687
1
1.1183
1
1
1
0.893808
1
1
1.03266
1.11857
1.11836
1
1.11949
1.11813
1
1.01993
1
1.11878
1
1.11882
0.893513
1
1
1
1
1.11872
1.00002
1
1
1
1.1154
1
1
1
1
1.11785
0.890811
1.09809
1.11927
1
1.11842
1
1
1
0.999183
1
1.12056
1
0.939502
1
1
1.00001
1.11826
0.901434
1
1.11895
1
1.11789
1.11872
0.890699
1
1
1.11769
1
1
0.894767
1
1.1187
1
1.11386
0.999783
1.11885
1
1
1
1
1.12158
1
1
1.11847
1
1
1
1
1
1
1
1
1.08085
1
1.04209
1.1187
1
1
1
0.882236
1
1
1
1
1.11947
1.11887
1.01952
1
1
1.1189
1
1
1.11829
1
1
1
1
1
1
1.11915
0.930713
1.11868
1.11913
0.999209
1
1
1
1.07403
1
1
1.11902
1.11859
1
1
1
1
0.893223
1
1
1
1.07915
1
1.11862
1.11925
1
1.11904
1
1
1
1.06732
1
1.12074
1
1.11856
1
1
0.998926
1.11868
1
1
1
1
1
1.11788
1.00001
1
0.893625
1.11835
0.89513
1
1.11912
1
0.998896
1
1.11871
1.11943
1
1.1154
0.971612
1.11854
1.1189
1.00001
1
1
0.887236
1
1
1
1.11857
1.07187
1.11823
1
1
1
1
0.999057
1.11858
1
0.891214
1
1
1
1
1
1
1
1.12053
1.11829
1.11947
1
1
0.999119
1
0.993135
1
1
1
0.890607
0.993631
1
0.884189
0.882973
1
1.1188
1.1194
1
1.11922
1.1192
0.886331
1.0843
1
1
1
0.892235
1.11869
1
0.885641
1
1.12001
1.02146
1
1
1
1
1.11858
1.12004
1
1
1.11863
1
1
1.12082
1.11855
1
1.10835
1.11831
1.11945
0.992236
1.11964
1.00225
0.888987
1.09308
1.11837
1
1
1
0.89385
1
0.88254
1.11937
0.988861
1.1185
0.98679
1
1.1189
1.05715
1
1
1.11959
1
1.05406
1.11846
1
1
1.11912
1.1174
0.890853
1.07255
0.999969
1
1.07298
1
1.11879
0.9833
1.12158
1.11901
1
1
1
1
1.11887
1
1
1.11834
0.999899
1.11866
1.09767
1.11803
0.895566
1
1
1
1
1.11849
1.00001
1.1188
1
1.11878
1.11918
1.01685
1.12044
1.03973
1.11913
1
1.08322
0.896007
1.12035
1.11856
1.09748
1.02498
1.11973
1.11858
1.11881
1.11821
1
0.979912
1.01841
1
1.1189
1.05909
1.11868
1.00001
1
1
0.907075
1.11903
1.11923
1.09815
1
1.04776
1
1.12066
1.12012
1
1.11857
1.11905
1
1
1
1.11868
1
1.0509
1.1182
1.08555
1
1.11874
1
1
1
1
1
1
1
1
1
1
0.892044
1
1.11078
0.90615
1.07252
0.999594
1.11948
1
1.06575
1
1.0797
1.10129
1
1.00093
1.12034
0.977381
1
1.11842
1.11578
0.986606
1
1.11869
1.11845
1.11929
1
1.11763
1.11909
1.11833
1
1.05861
1
1.00002
1.11873
1
1.11876
1.01808
1.11848
1
1
1.11938
1.11875
0.909234
1
1.11824
1.09134
1.11845
1
1
1.11931
1.11901
0.999504
1
1.10801
0.999105
1.11858
1.00002
1
1
1
1
1.05696
1
1.09265
1.11897
1.09114
1.1184
1
1.00094
1
1
1.1199
1
1.11814
1
1
1
1
1
1
1.01626
1.06489
1
1
0.891724
1
1.11877
0.888671
1.12107
1
1.06407
0.999927
1.11897
1.07845
0.900365
1.06927
1.00001
1.11878
1.11923
1
1.07539
1.11949
1.1183
0.999546
1.12066
1.11553
0.891852
1
1
0.99924
1
1.11891
1
0.900485
1.11857
1
1
1.10358
1
1.11889
1
1.11847
1
0.900855
1
1
1.11858
1.11774
1.11962
1
1.11886
1.1192
1.1165
1
1
1.11927
1
0.924862
1
1
1
1.11912
1
1.11945
1.08004
1.11814
1
1.11869
0.999823
1
1
1
1
1
1
0.916151
1
1
1.1186
1
1.11951
1.11972
1
0.891476
0.889222
1
1.11943
1.01973
0.893252
0.888837
1
1.11855
1
1.11929
0.873854
1.00036
1
1
0.999857
1
1
1
0.999976
1.05227
1.1188
1
1
1.11883
1.07204
1
1.10687
1.11893
1.11859
1.05423
1.11856
1
1.11875
1
1.11522
1
1.11937
1.11878
0.999104
1.11791
1.11851
1
1
1
1
1
0.976362
1.11971
1.00001
1.00001
0.892856
0.999993
0.886706
0.889045
1
1.11884
1.11861
1.11877
1
1.11849
1
0.894675
1
1
1.11824
0.951673
1.11872
1
1.11852
1
0.995853
1.11838
1
1
1
1.11752
1
1.11869
0.890793
1
1
1.0721
1
1
1.06952
1
1
1.11841
1
1
1
1
1
1.12027
1.11888
1
1.11887
1.11833
0.890788
1.05638
1.11895
1
1
1.10754
0.999724
1
1
1.11785
1.11797
1.08551
1
1.11894
0.886431
1.10872
0.999793
1
1.11864
1.00001
1.11828
1.1024
1.09172
1
1
1.11853
0.911065
0.894061
1
1.11866
1
1.11863
1
1.07427
1
1
1.11846
1.0795
0.887256
1
0.99952
1
1
1.00718
1.05409
1.11859
1
1.11967
1
1
1
1
1
1
1.01955
0.890048
1
1
1.00665
1
1
1
1
1
1.11894
1
1
1.11846
1.11882
1.08897
1
1
1
0.948553
1.11965
1.08529
1
1
1
1
1.11815
1
1
1
1.11801
1
1
1.08756
1.12318
1.00833
0.923528
1.11952
1.08724
1.11849
1
1.0623
1
1
1
0.874988
1.00071
0.894577
1
0.87257
0.88666
1
0.885371
1
1
1
1.05576
1
1.1187
1.11891
1.00033
1.06307
1.10052
0.894081
0.926142
0.963522
1
1.11873
1.11983
1.1187
1.11833
1.10396
0.969134
1
1.10444
1
1.11393
1
1
0.998977
1.00251
1
1
1
1.11893
1
0.891125
1
1.1191
0.897237
1
1
1.11818
1
1.11853
0.999797
1
1
1.11884
1.107
1
1.12318
1
1
1.00433
1
1.05585
1
1
0.890452
1
1
1.11904
1
1.11817
1
1.00001
0.894675
1
1
0.898737
1.00031
1
1.11926
0.882879
1.12033
0.888042
1.11822
1
1
1
1
1
1
1
1
1
1
1
1.11417
1
1.11914
1.1202
0.888464
1
1
1
1
1
1
1.11565
1
1
0.892149
1
1
1.11951
1
1
1.04694
1.10199
0.896236
0.879024
0.898638
0.92441
1
0.998993
0.896383
1.00012
1.10983
0.999148
1
1
1.11874
1
1
1
0.928115
1
1.04554
1
1
1.05424
1.11794
1
0.888223
1
1
1
0.999138
1
1.11888
1.11821
1
0.889636
1
1.0671
0.892051
1
0.968561
1
0.998991
0.886537
1
1
1
0.998932
0.893993
1
0.873665
0.999544
1.06364
1.10514
0.878429
0.901211
1
0.997171
1
0.999617
1
1.11876
1.11822
1
1.00295
1.11859
1.11862
1
1
1.1184
1
1
1.00001
1
1.12083
1
1
1.00521
1
0.999598
0.895424
1
1
1
1
1
1.11967
1.00896
1.00001
1
1
1
1
1
1.00001
1
0.894884
1.02682
0.999595
1.11484
1.11923
1
1.00434
1.11865
1.10697
1
1
0.867422
1.11887
1
1.11975
1
1.11892
1.08417
0.893909
1
0.893445
1.10934
0.999912
1
0.889619
0.876312
1
1
1.10177
1
1
0.887699
1
1
1
1.03944
1
0.889032
1.11837
1
1
1
1
1.11863
1
1
1.11783
1.10825
1
1
1
1.11965
0.883221
1
1.11877
1.11867
1
1.09724
1
1.00001
1
1
1.11026
1.00707
1
0.896728
1.07037
1
1
0.999239
1
1
1.11913
1
1
1.00001
1
1.11918
1
1
1
1
1
1
1
1.05707
1
1.11858
1
1
1.11983
1
1
1
1.11874
1.11891
1.01206
1
0.999324
1
1
1
1
1.12035
1
1
1.11878
0.891938
1
1
1
1
1
1
1.09779
1
1
1.11883
1.11911
1
1
1
1.11882
1.11881
1
0.99991
1.1204
1
1
1
1
0.894974
1.00869
0.99893
0.998855
1
1
0.882451
1.11875
1
0.856058
1
1.11859
1.11578
0.898339
0.999831
1.11852
1.11893
1.1181
1
1
0.974427
1.10567
1.10086
0.864728
1
1
1
1.11797
1.11843
0.882889
0.999244
1
1.11867
0.889961
1
1.1161
0.892469
0.995704
1.00162
1
1.12011
1
1
1
1
1
1
1.00003
1.1112
1
1
1.11987
1
1
1
1.11849
1
0.893805
1
1
1
1.04346
1
1
1
1
1
0.934942
1
0.892488
1
1.11853
1.00002
0.961972
0.966022
1
1.001
1.06388
1
1
0.888478
1.11855
1.11884
1.11854
1
0.883529
0.889185
1
1.11894
1
1
1
1
1
1.00001
1
0.891773
1.0794
1
1
0.888102
0.999803
1
1
1
1
0.886232
1
0.903173
1
1
1.12005
1
1
0.890874
1
1.11838
1
0.895465
1
0.891965
1
1.00223
1.11824
1.12316
1
1
1.11962
1
1
1.02581
0.999113
1
0.999468
1
1.11948
1
0.892968
1
1.12077
0.999672
1
1
0.93928
1
0.999715
0.889708
1.11836
1.04634
1
1
0.969393
1
1
1
0.936188
1
1
1
1.11851
1
0.894124
1
1
1
1
0.891009
1.11834
1.11284
0.891343
1
1.11697
1
1
1.11851
1.1199
1.10305
0.889838
0.999343
0.999782
1
1.11823
1
1
1
1
1.11903
1.00001
1
1
1.11925
1
1
1.11902
0.892342
1
1
1
0.894199
1
1
1
0.999614
1
1
1
1
1.09827
1
1.11986
1.11909
1.12121
1.11857
1.11885
1.11849
1
1.11869
1
1.11844
1.11848
1
0.999677
0.89201
1.10272
0.999971
1
1
1
1
1.00262
1
1.02027
1
1
1
0.949962
1.11845
1.11908
1.11816
1.10511
0.999965
1
1.00672
1.11896
0.999401
1.01437
0.99914
0.887568
1
1.00001
1
1
1
1
1
1.11891
0.894022
1.11924
1.11807
0.9985
0.891079
1
1
1
1.11887
0.873256
1.10672
0.890747
1.11834
1.11728
0.893108
1.11909
1.00714
1
1.11929
0.940841
1
0.999641
0.902728
1
0.886896
1
1.11837
1.11874
0.929356
1
1.11916
0.888178
1
0.88846
1
1.11853
1
1
1.1173
1
0.952964
1
0.999915
0.888213
1.11986
0.99985
1
0.881685
1
1
1
1
1.06941
1
1.11859
1
1
1.1223
1
1
1.11874
1
0.892033
1
0.902672
1
1
1
1
1
1.11428
1.07193
1.11923
1
1.11862
1.11275
0.885898
0.892289
1
1
1.11906
1
0.890094
1
1.00307
1
1
1.1182
1
1.11904
0.907984
1.12083
1
0.906385
1
1
1.11835
1.11817
1
1.00001
1
1.11564
1
1
0.902783
0.999823
0.890443
1
1
1
1.11904
1.11979
1.11963
1
1
0.863821
1
1.11892
1
1
1
1.11475
1.11843
1.11859
0.864244
1.11942
1.11818
0.894065
1.11968
1.00001
0.900726
1.00514
1
1
1.11872
0.860031
1.07846
0.866133
1.11805
0.999277
0.885448
1.11908
1
1
1
1
1.1187
1.11993
0.888937
1
1.00001
0.893769
1.00001
1
0.87958
0.894247
1.08624
1.11921
0.999565
1.11831
1
1.12109
0.945382
0.889325
1.11805
1.12202
1
1.11871
1
1
1.11882
1
1.09254
1.11977
1
1
1
1
1.11893
1.11722
1.11928
1
1
1.11936
1.12062
1.11885
1
1.11879
1
1
1
1
1
0.886981
0.954579
0.897697
1
1
1.11894
1
1
1.118
0.883225
1
1.11852
1.11729
1.11363
0.882402
1
0.863548
1
1.00001
1.1199
1.05983
1.12026
1.10768
1
0.883689
1
1.11842
1.08672
0.895143
1
1
1
0.944984
1
1
1.12156
1
0.895275
1.11881
1
1
1
1
1
1.09665
1.02927
1
1.11911
1
1.11802
1
0.999204
1
1.11833
1.11793
1.11836
1.11976
0.999885
1.1199
1
1.11852
1.11897
1.10229
1
1
0.891898
1.11893
1
1
1.1188
1.11819
1.11848
1
1.11892
1
1
1.00001
1.11662
1.1194
1.03719
1.02716
1.11784
1.11831
0.912277
1
1
1
1
1.00001
1.04446
1
1
1.10046
0.894583
0.999988
1
1.11836
0.999968
0.999948
1.01927
1.10607
1.11887
0.976091
1
0.885891
1
1.00243
1.1191
1.11903
1.11957
0.999704
1
1
0.890835
1
1
1.11886
1.01427
1
1
1
1
1
1
1
0.999982
1.11967
1
1
1
1
1
1.07639
1
1.06051
1
1
1.11841
1.11875
0.891681
0.999654
1
1
1
0.888476
1.11936
1.11853
1
1
1
1
1
1
1
1
1.11856
1.11808
0.892806
1.01423
0.892451
1
0.888743
1
1.11863
1.03492
1
1
0.919014
1
1.1137
0.940352
0.999095
0.881081
1
1
1.12012
1.00001
0.999237
0.888088
1.11941
1.12155
1
1
1
1
1.11138
1
1
1.11868
0.999692
1.11931
1.00002
1
1
0.904881
1
1
1.11889
0.883488
0.930503
0.894876
1.11851
0.999819
1
1.11916
0.879887
0.893481
1.0005
1
1
1.12
1.00001
1.05878
1
1
1.12023
0.895274
1
1
1.00004
1.11931
1.00004
1.11759
1
1.00001
1
1
0.90955
1
0.937188
1
1
1.11771
0.907209
1
0.936885
0.947279
1
1
1.11858
1
1
1
1.11878
1.11869
1.00001
1.11794
1.12
0.938578
1.11885
1.11632
1
1
1.11959
1
1
1
1
1
1.11945
1.11836
1
1
1
1.1185
1.00006
1
0.892495
0.901446
1
1.00001
1.04669
1
1
0.969654
0.891327
1
1
1
1.11883
1.10825
1.11886
1
1
1
1
0.886233
1
1.11753
1
1.11581
0.891156
1.11736
1
1
1
0.858527
1
1.11912
1.00001
1
0.893934
1.04944
1
0.999904
1.11865
0.883385
0.893938
1
1.11929
0.89145
0.891372
1
0.904183
1
1
1
1
0.856505
1
1
1
1
1.12008
1
1.09339
0.878127
1
1
1
0.891723
1.11848
1
1
0.998995
1.11757
1
1.11821
1.11942
1
1
0.915742
0.881824
1
1
0.899704
1.04049
1.05865
1
1
1.11968
0.999262
1
0.999339
1.1203
1
1
1
1
1
1
1.11908
1
1.04431
1.03982
0.899313
1.10627
1
1.11873
1.1188
1
1
1
0.979092
0.888511
1
1.06527
0.999895
1.10859
1
1
1
1
1
1.00192
1.05532
1.11895
1.11896
1
1.11831
1
0.892449
1
0.999304
0.999942
1
0.888889
1
0.888716
1.00001
1.11928
1.11965
0.889078
1.11914
0.896829
0.998916
1.08947
0.89141
1.08765
1
1
0.999551
1
1
1
1.00002
1
0.885857
1
1
1
1
0.999886
1.1184
0.948267
1
1
1
1.01057
1
1
1
1.07052
0.924903
1
1
1
1.01577
1.11935
1
0.879129
1
1.11901
0.974958
0.894214
1
0.886225
1
1
1.11152
0.999502
1.11365
1
1.00254
1
1
1.11843
1
1
1
1
1.02453
1
1.11873
1.11897
1.11841
0.882774
1.11833
0.999188
1.09853
1
1
0.883728
1
1
0.895084
1.11777
1
1
0.999991
1
1
1
0.885357
0.86982
1
1.12096
1
1.05894
1.11851
0.885463
1.10523
1
1
0.884361
1
1
1.11754
1.11844
1.05082
1
1
1.00029
1.1193
0.88057
0.888388
1.11976
1.1186
1.08394
1.04944
1
0.970117
1
1
1
1.11349
1.11935
1.11932
1
1
1.11835
0.882579
1.10795
0.884948
1
0.89098
1
0.89595
1.11843
0.887672
1
0.994718
0.90728
1
1
1
0.955246
1.10808
1.11846
1.11937
1.12096
1
1
1.12
1
1
1.11903
1
0.856273
1
0.906215
1
1.11914
1
1
1.00598
1.0921
1
0.999622
0.869794
1.11837
1
0.901915
1.02432
1
1
1.09239
1.1184
1.1188
1
1.1191
1.03494
1
1.00632
1.11899
1
1
1
1
1.11849
1
0.896842
1.11905
0.888853
0.909182
0.949695
1.11912
1.04209
1.11889
1
1.12089
0.999222
1.00001
1.11867
1.1193
1
1.12068
1
1.11897
1
1.11952
1
1.00001
1
1.11864
0.886735
0.896175
0.999405
1
1
1
0.890668
1
1.08033
1
0.885008
1
1.04978
1.11896
1.117
1
1
1.00001
0.999828
1
1.11975
1.11863
1
1.05141
1.11847
0.951782
1.11853
1.00004
0.885694
1.0275
0.859605
1
1
1.02205
1.12048
1
1
1.0071
0.999595
1
0.912781
1
0.939096
1
1.11868
1
1
0.876337
1.03008
1.02316
0.99957
1.11828
1.11967
0.929906
0.999469
0.890181
0.865746
0.896565
1
1
1
0.99974
0.917109
0.89424
1
1.11819
0.999927
1.11879
1.11895
1.1199
1.11839
1
0.893628
1.11924
0.897555
1
1.11791
1.11889
0.99909
0.939
1.11937
1.08988
1
0.891587
1
1
1.1192
1
1.00775
1.11819
1
0.902242
0.884422
1
1
0.886492
0.876657
1.11843
1.00001
1
0.89719
0.8732
1.11793
1.11725
1.11195
1.11982
1.03606
0.996326
1.05171
1.12087
1.09323
1
1.06663
1
0.890997
0.955351
1
0.893002
1.11864
1.00641
1.11925
1
1.11844
1.1196
1
1.11874
1.11857
0.889039
1.11942
1
1.12213
1
0.925365
0.890119
1.11831
1
1
1
0.889484
1.11934
1.11889
1
0.89247
1
1
0.891086
1.00001
0.886008
1.12027
1
0.947598
0.872872
1
1
1.06925
1
1
1
1.0208
0.891428
1
1
1
1.1188
0.892633
1
1.11883
0.913567
0.860176
1
1
1.11971
1
1.1182
1
1.11837
0.894529
1
1
0.882268
0.946137
0.906289
1
1
1
1
1.11948
0.885832
1
0.890206
1
1.11928
1
1
0.979655
1
1
0.947723
0.999905
1.00001
1
0.892732
0.894273
1
1
1
1
0.937252
1.11807
1.11971
1
0.8904
0.874071
0.973273
0.894367
1
0.948783
1
0.900082
0.996184
1
1
0.894172
1
1.11919
1.11715
0.890693
1
1
1
1.11761
1
1.0119
0.950799
1.04134
0.885198
1.05187
0.890003
1
1
0.917987
0.977425
1
1.00984
1
1
0.876987
1
0.977705
1.01728
0.889878
1
1.09844
0.926643
0.971744
1
1
1
0.894075
1
0.888606
0.898159
1
0.957688
0.891197
1.01861
0.926358
0.899555
1.11862
1
1.11927
1.06765
0.917999
1.11956
0.900871
0.999718
1.11957
1
1
1.11916
1
0.918363
1
1.02145
1
1
1.11856
1
0.928911
0.944518
1.12059
0.984047
1
0.917842
1.11873
1.11937
0.979116
1
1.11833
1.03439
0.958095
1
1.00524
1
0.896378
1.05612
0.937624
0.925716
1
1
0.894582
1.11776
0.98649
0.892139
0.886751
0.957705
1
1.00805
1.11909
1.11861
1
1
1
0.891485
1.0572
0.999995
1.119
1.11089
0.887676
0.999996
1.02956
0.968475
1.0724
1.10395
1
1.01196
1
1.00001
0.885146
0.952614
1
1
0.938243
0.889382
1.01422
1
1
0.906813
1.05792
1
1.11885
1
1.01713
1.06667
1
1.11783
1
1
1.11906
1
0.88117
1.11955
0.910946
1.03478
1
0.892618
0.999973
1
1.00001
1
0.936636
1.00773
0.891793
1.09026
1.12006
0.884491
1
1
1
1
1
0.987035
0.894035
1.01519
0.892333
0.882483
1.02341
1
0.999946
1.03359
1
1
0.899079
0.995304
1
1
1.03776
1
1.1199
1
1.11921
1.02424
1.01028
0.889288
1
1
0.904607
1
1
1
1
1.11893
1.01225
0.999455
1
0.88642
1.01532
1
1
1.08042
1
0.87897
1.1181
1
1
1
1.11906
0.892753
0.963806
0.877967
1.09155
1.11858
1
1
1.11832
1
0.873019
1
1
1
1
1
0.925593
1
1.11913
1
1
1.04468
1.11991
0.891092
0.966176
1
1.11884
1
1
1
1
1
1.11835
1.11921
0.87947
1.11857
0.885848
1
1
1.11789
1
1.11981
1.00047
1.00814
1.01731
1.1188
1.01895
1.08364
0.885009
1
0.883926
0.99997
1
1.11874
1
1
0.881262
1.11887
1
1.1191
1
1
1
1
1
1
0.89265
1.11982
0.95863
1.11846
1
0.894577
0.888092
0.917549
1.12027
1.11867
0.989954
1
0.940032
1
1.05076
1
1.11889
0.881524
0.893598
0.955601
1
1.11841
1
1.02294
0.89096
1
1.12031
1.1116
0.999665
1
1.11854
0.888993
1.11974
1.11845
1.11956
0.892079
1.0303
1
1
0.884094
1
0.945662
0.950707
1
1.00001
1.11876
1
1.12185
1.02557
1
1.01536
1.11962
1
0.900813
1
0.930154
1
1
1.09936
1
0.940786
1
0.897098
1.01069
0.983392
0.872411
1.11807
1.09972
1.11935
0.892019
0.907599
0.998847
1
1
0.903973
1.11206
0.888121
0.999992
1
1.11826
1.11919
0.967553
1
0.887247
0.919157
1.08223
0.993798
0.887425
1
0.890249
1.03738
0.895558
1
1.00002
0.940164
1.11977
1.11881
0.951493
0.999881
1
1
0.9073
1
0.887366
1
0.875601
0.891393
1
1
1.00001
0.896499
1.11869
1
1
1.00002
1.00001
0.888724
1.11831
1.11902
1
0.891766
1.11999
1
1.03257
1
1
1.11825
0.887664
1
1
0.876827
0.921809
0.891754
0.902936
1
0.91122
0.999218
1.02571
0.882743
1
1
1.03663
1
1.10676
1
1
1.08916
0.910715
1
0.88498
1.03544
1.11912
1
1
0.891258
0.909383
0.885064
0.918874
0.908155
1.09148
0.999827
1
1
1
1
1.11873
0.912159
1
0.983566
0.999909
0.999597
0.999984
0.930182
1.03599
1
1.11794
1.11846
1
1
1.11398
1.00001
1
1.11844
0.890274
1.12048
1
0.884711
1.11853
1.00001
1
0.950763
1
0.884789
1
1.11912
1
1
1.11923
1
1
1.11898
1
1
1
1.12052
1
0.930224
0.919302
1
0.885012
1.11875
1
1
0.992321
1
1.12033
1.07168
1.09755
1
1
0.889178
1
0.889028
1.11832
1.11929
1.11893
1
1.11987
0.888614
1
0.885814
1.09668
1.11219
1.11908
1.11879
0.923525
0.888387
1
1.08518
1.11935
1.11932
1.11979
0.921889
1.04716
1
1.09166
0.930858
1
1
1
1.00001
0.9718
1
1.11788
1
1
1
1
1
1
1.00002
1.11792
1
1.11941
1.09031
0.891351
1.1203
1.01147
1.06322
1
1.1185
1
0.887606
1
1
1
1
1.10232
1
0.882506
1.11888
0.880443
1.11878
1.09603
1.06688
1
1.02405
1.06058
0.998708
0.886638
0.925016
1.00001
1
0.976221
1
0.897807
1.11922
0.899388
0.976276
0.957784
1
1
1
1.00406
1
1
0.88273
0.999009
1.12057
1
1.11828
1
0.890384
1
1
1.11868
1.11854
0.885371
1
1.11934
1
0.943682
0.899197
1.11932
1.10699
1
1.02269
1.11864
0.999612
1
1.05596
1.10638
1.11825
0.998881
1
0.999999
1.10188
1
1
1
1.11868
0.999565
1
1
1.11851
1
1
0.889729
1
1
1
1.11951
1
1
0.954071
1.04222
1.10801
0.93496
1
1.11879
1
1.04285
1
1.12035
0.999222
1.1184
1
0.8868
1
1.08506
1
1
1.11136
1
1.11861
1
1.11777
0.90646
0.895094
1.11931
1
1.10182
1
1.11913
1
1
1.00002
1.11886
1.11862
1.03829
1.11842
0.998669
0.874444
1.11894
0.961599
1
1.11613
1
1.11852
1
1.11894
1.11916
0.998887
0.886087
1
1.1186
1
1.01268
1
1
0.999415
0.922628
1.10717
1
1.11053
1
0.965581
0.883899
1.11843
1.11882
0.894529
1
1.11887
1.11965
1.11956
0.902604
1.11845
0.899382
1.11895
1.12056
1
1
1.11863
1
1
1
1
0.89343
1
1
1.11914
1.11868
1
1.11862
1
1.11973
1.11945
1
1.10007
1
0.887067
1.11855
1.08859
1.03699
0.881645
1.11838
1
1
0.887546
1
1
1.11854
1
1
0.934561
1
1.11852
1.00003
1.11852
0.881342
1.12015
1
1.11849
1.11526
0.968817
1
1.11791
0.92604
1.1201
1.08673
1.11868
1.11831
0.999264
1.12087
1.1184
1.11847
1.11879
1.00035
1
0.8868
1
1.12031
0.947603
1.10924
1
1.1177
1
1
1
1
1
1.11785
0.886963
0.882876
1.11909
1.11849
1
1
1
1
1
1.11653
1.10661
1.11821
1.00478
1
1
1
1.00001
1.11937
1.11848
1
1.11858
1.11985
0.886409
1.08625
1
1.11842
1.11863
1.11766
0.999348
1.1174
1.11853
1
1.10884
1
1
1
1
1
1
1.11847
1.12032
1.11175
1.11898
0.886204
0.902523
1.11825
1.11835
1
0.888973
0.983451
1
1.06091
0.880011
1
0.999846
0.999514
0.890616
1
1.11851
1
1
1
1.11952
0.985821
1
1.11877
1.11838
1
1.11885
1
1
1.11937
1
0.88909
1
1.11813
1
1
0.892406
1
1.11767
1
0.888141
0.87995
1
1.11423
1
0.883596
0.968368
1
1.11869
1
1
1
1.11857
1
0.888307
1.01666
1.11869
1.11893
1.11878
1.01395
1.11801
1.11871
1
1
1
1
1
1.11922
1
0.999803
1.11918
1
0.885237
1
1.11946
1.06064
1.0169
1.05807
1.02056
1.11594
0.909982
1.11906
1
0.89327
0.999175
1.11929
0.985115
1.11927
1.11848
1.11418
1
1.11866
1.11957
1.11801
1
1.00001
1
1
1.11909
1.08608
1
1
0.885458
0.999025
1
1.11831
1
1.11791
1.11862
1.11815
0.975676
1.11853
1.11858
1.00335
1.061
1.11901
1.11847
1
1.11046
0.950637
1.11792
1.0004
1.11853
1
1.11948
1.1184
1
0.891821
0.980272
0.896028
1
1.0232
0.99909
1.11993
1
1
0.999107
1
1.06253
1.11225
1
1
1.11857
1
1
1.08684
1.11837
1.11532
1.11835
1.11841
1
1.11907
0.90964
1.11951
1
0.999417
0.887498
1
1
0.916608
1
1.042
1
1.11876
1
1.11666
1.07712
0.887194
1
1
1
1
1
1.11887
1.00334
1
1.11876
1
1.11865
1.11771
1
1
0.987063
0.999958
0.883141
0.884878
0.909818
1.02444
1
0.99955
0.89306
1.00001
1
1.11839
0.983235
1.1126
1.10776
1
1
1
1
1
1.11849
1.11853
1
1.11817
1
1.11914
1.08191
0.99894
1
1
1
1.07287
1
0.986151
1
1.11867
1
1
1.11939
1
1
1
1
1
1.11936
0.884464
0.998993
1.1078
1.11782
1
1.11956
1
1
1
1
0.907324
1
1.11886
1.1187
1.11861
1.1204
0.986524
1
1.10166
1.03218