/*--------------------------------*- C++ -*----------------------------------*\
  =========                 |
  \\      /  F ield         | OpenFOAM: The Open Source CFD Toolbox
   \\    /   O peration     | Website:  https://openfoam.org
    \\  /    A nd           | Version:  12
     \\/     M anipulation  |
\*---------------------------------------------------------------------------*/
FoamFile
{
    format      ascii;
    class       volScalarField;
    location    "20.6";
    object      T;
}
// * * * * * * * * * * * * * * * * * * * * * * * * * * * * * * * * * * * * * //

dimensions      [0 0 0 1 0 0 0];

internalField   nonuniform List<scalar> 
9801
(
0.810712
0.8118
0.811727
0.812138
0.812591
0.813199
0.814558
0.818001
0.82207
0.824932
0.827237
0.82849
0.828118
0.826669
0.826569
0.827132
0.827908
0.829055
0.832902
0.837989
0.841052
0.843198
0.844865
0.845582
0.843944
0.842502
0.842845
0.843636
0.844672
0.846558
0.852021
0.857222
0.859629
0.860911
0.861956
0.862206
0.860259
0.859656
0.8602
0.861172
0.86246
0.866139
0.872644
0.876597
0.87818
0.879082
0.879434
0.878509
0.877467
0.877492
0.878226
0.879356
0.881274
0.887178
0.893774
0.896906
0.898426
0.899212
0.898059
0.895984
0.895356
0.895843
0.897047
0.898691
0.902722
0.911025
0.916541
0.919012
0.920417
0.920484
0.916761
0.913941
0.913853
0.915337
0.917542
0.922236
0.932952
0.940675
0.944234
0.946267
0.947315
0.944632
0.938126
0.935376
0.93707
0.940676
0.950368
0.966162
0.975504
0.980992
0.985415
0.987699
0.983075
0.973929
0.970314
0.975666
0.999786
1.17171
1.54874
0.811148
0.812629
0.813773
0.814798
0.817142
0.82123
0.823061
0.823831
0.825108
0.826671
0.828255
0.82849
0.828267
0.829095
0.830021
0.830901
0.832198
0.836327
0.839779
0.841657
0.843377
0.844877
0.846154
0.845587
0.844997
0.845593
0.846437
0.847409
0.848627
0.852538
0.857665
0.860452
0.862169
0.863429
0.864052
0.86232
0.861556
0.862148
0.863173
0.864409
0.865869
0.870315
0.876313
0.879475
0.881039
0.882171
0.882342
0.879749
0.87872
0.879392
0.880567
0.88198
0.883982
0.889875
0.896256
0.899394
0.901145
0.902361
0.90163
0.897971
0.897062
0.897893
0.899421
0.901181
0.905275
0.913568
0.919384
0.92204
0.923812
0.924718
0.92096
0.916498
0.916562
0.918416
0.920816
0.925687
0.935558
0.94301
0.946777
0.949373
0.95177
0.949827
0.942328
0.939727
0.94205
0.945856
0.9533
0.966248
0.97607
0.982452
0.988337
0.992672
0.98965
0.98152
0.976772
0.979857
0.991047
1.16509
1.56876
0.814496
0.814758
0.815893
0.817202
0.820527
0.826272
0.829542
0.830794
0.831601
0.832576
0.832824
0.831169
0.830869
0.83176
0.833184
0.834532
0.836813
0.842511
0.846872
0.848335
0.849227
0.850218
0.850249
0.84853
0.848347
0.849348
0.850615
0.851942
0.853801
0.859002
0.864338
0.866381
0.867487
0.868566
0.86854
0.866134
0.865627
0.866569
0.867897
0.869383
0.871129
0.876074
0.882095
0.884941
0.886416
0.887675
0.887668
0.884695
0.883502
0.884276
0.885687
0.887346
0.889557
0.895578
0.901918
0.905051
0.906926
0.908427
0.908066
0.904269
0.902745
0.903621
0.905381
0.907416
0.911492
0.919789
0.925816
0.92883
0.930973
0.932578
0.929854
0.924868
0.924265
0.926197
0.928789
0.932735
0.941978
0.95121
0.956313
0.959562
0.96234
0.961576
0.954425
0.950889
0.952867
0.957095
0.96292
0.974839
0.988275
0.996488
1.00283
1.00897
1.00822
1.00287
0.999569
1.00257
1.00776
1.174
1.59437
0.818843
0.818731
0.820049
0.822226
0.826964
0.8337
0.837267
0.838878
0.839943
0.840212
0.838153
0.835965
0.836024
0.836992
0.838727
0.841025
0.844765
0.850514
0.854243
0.855772
0.856773
0.857348
0.856108
0.854368
0.854656
0.855739
0.857339
0.859301
0.862129
0.86738
0.871719
0.873646
0.874786
0.875836
0.875529
0.873299
0.87291
0.873873
0.875335
0.877143
0.879553
0.884616
0.890197
0.89305
0.894669
0.89608
0.89636
0.893534
0.892007
0.892748
0.894257
0.896173
0.898977
0.905066
0.911317
0.914546
0.916524
0.918168
0.918339
0.914766
0.912762
0.913655
0.915688
0.918072
0.922304
0.930671
0.93725
0.940613
0.943027
0.94495
0.943653
0.938387
0.936535
0.938397
0.941321
0.944972
0.953202
0.963781
0.970006
0.973619
0.976673
0.97829
0.973641
0.967769
0.967512
0.972034
0.977725
0.986784
1.00054
1.01124
1.01872
1.02623
1.02955
1.0265
1.02132
1.02012
1.01803
1.18516
1.61966
0.826306
0.826439
0.827576
0.829603
0.834353
0.841551
0.845291
0.846795
0.847827
0.847873
0.846303
0.844207
0.844146
0.845313
0.846734
0.848686
0.852458
0.858096
0.861766
0.86354
0.864857
0.865916
0.865523
0.863785
0.863396
0.864475
0.865901
0.86751
0.870045
0.874921
0.879648
0.882276
0.883927
0.885394
0.886058
0.884219
0.88281
0.883483
0.88484
0.88637
0.888443
0.893118
0.899192
0.902863
0.90492
0.90661
0.907716
0.905667
0.903207
0.903532
0.905004
0.906756
0.909106
0.914673
0.921646
0.925649
0.927933
0.929784
0.930986
0.928435
0.925193
0.925458
0.927538
0.929941
0.933341
0.941055
0.948789
0.952944
0.955683
0.95808
0.959141
0.954947
0.950734
0.951202
0.954091
0.957518
0.96353
0.974612
0.983362
0.98806
0.991616
0.994838
0.993609
0.986671
0.982843
0.984479
0.989793
0.996892
1.00881
1.02156
1.03078
1.03852
1.04534
1.04542
1.04048
1.03489
1.02389
1.19111
1.63601
0.835846
0.836255
0.837306
0.838655
0.841677
0.848047
0.852652
0.854711
0.855902
0.856571
0.856432
0.855149
0.854608
0.855181
0.856204
0.857302
0.85928
0.864506
0.869955
0.872942
0.874712
0.876072
0.876825
0.875813
0.874269
0.874207
0.874919
0.875917
0.877424
0.881504
0.887916
0.892222
0.894601
0.896273
0.897594
0.897015
0.894535
0.893739
0.894385
0.895533
0.897088
0.900725
0.907922
0.913281
0.916007
0.917865
0.919388
0.918731
0.91552
0.91424
0.915138
0.9167
0.918623
0.92305
0.931021
0.936462
0.939343
0.941426
0.943309
0.942708
0.938421
0.936426
0.937625
0.939826
0.942542
0.948907
0.958243
0.963958
0.967112
0.969647
0.971885
0.970348
0.964431
0.962167
0.963887
0.967045
0.971255
0.980475
0.991671
0.998679
1.00308
1.00666
1.00831
1.00337
0.996955
0.995055
0.997683
1.00302
1.01107
1.02285
1.03325
1.04147
1.04871
1.05327
1.05165
1.04565
1.03019
1.18949
1.6454
0.845891
0.846172
0.847083
0.848034
0.849438
0.853295
0.858054
0.861362
0.863585
0.865125
0.866257
0.86637
0.865348
0.865113
0.865346
0.866041
0.867118
0.869627
0.87548
0.880502
0.883339
0.885132
0.886456
0.887091
0.885607
0.883798
0.883452
0.884099
0.885235
0.887326
0.893279
0.899923
0.90358
0.905665
0.907171
0.907988
0.906123
0.903488
0.903053
0.903948
0.905354
0.907635
0.914039
0.921
0.924831
0.927116
0.928821
0.929677
0.92704
0.923862
0.92341
0.924654
0.926444
0.929636
0.937295
0.944276
0.947922
0.950266
0.952324
0.953594
0.950307
0.946093
0.945426
0.947052
0.949338
0.953599
0.963062
0.971149
0.975317
0.977929
0.980307
0.98118
0.976142
0.971101
0.970399
0.972847
0.976247
0.982089
0.993572
1.00376
1.00946
1.01343
1.01674
1.01624
1.00956
1.00448
1.00364
1.00649
1.01175
1.02064
1.03177
1.04068
1.04799
1.0538
1.05554
1.05201
1.03857
1.18738
1.65187
0.853815
0.854822
0.855272
0.855969
0.856979
0.858962
0.862602
0.86597
0.868836
0.871121
0.872839
0.874241
0.874227
0.872911
0.872666
0.873318
0.874352
0.87592
0.880634
0.885568
0.888791
0.891122
0.892902
0.894367
0.894038
0.891262
0.890527
0.891276
0.892517
0.89415
0.89887
0.905073
0.909055
0.911603
0.91342
0.91489
0.914569
0.911137
0.909911
0.910735
0.91216
0.914117
0.919343
0.926323
0.930515
0.933037
0.93496
0.936562
0.935936
0.931388
0.929456
0.930269
0.931985
0.934475
0.940973
0.949392
0.953999
0.956405
0.95836
0.960209
0.959298
0.95376
0.951253
0.951862
0.953913
0.956697
0.963962
0.974341
0.980431
0.983619
0.985985
0.987905
0.985636
0.978984
0.975907
0.976564
0.979287
0.982744
0.990578
1.00297
1.01169
1.01671
1.02063
1.02361
1.02155
1.0142
1.00968
1.00957
1.0126
1.01806
1.02728
1.03715
1.04482
1.05116
1.0548
1.05458
1.04655
1.18753
1.65663
0.858956
0.860633
0.860967
0.861674
0.862762
0.865043
0.868698
0.87185
0.874262
0.8761
0.877633
0.879138
0.8794
0.877649
0.877585
0.87856
0.879921
0.882345
0.887104
0.891432
0.894036
0.895882
0.897456
0.898892
0.898471
0.895788
0.895537
0.896634
0.898132
0.900564
0.905653
0.910615
0.913675
0.91568
0.917335
0.918832
0.919177
0.915875
0.914336
0.915211
0.916811
0.918938
0.92395
0.930998
0.935069
0.937233
0.938911
0.940412
0.94084
0.93703
0.934071
0.934254
0.935888
0.937987
0.94277
0.951787
0.957917
0.960796
0.962667
0.964373
0.964756
0.960094
0.955736
0.955403
0.95707
0.95935
0.963454
0.973592
0.982763
0.987256
0.990001
0.992256
0.993049
0.987743
0.981639
0.97977
0.980753
0.983515
0.987678
0.997726
1.01026
1.01817
1.02286
1.0264
1.02809
1.02467
1.01803
1.01414
1.01426
1.01733
1.02299
1.03221
1.04106
1.04785
1.05262
1.05451
1.0513
1.19067
1.66055
0.862842
0.863588
0.864193
0.865225
0.866699
0.87063
0.875035
0.877593
0.879503
0.881051
0.882441
0.883613
0.882248
0.880349
0.880663
0.881863
0.883589
0.887153
0.893112
0.896872
0.898891
0.900421
0.901725
0.902653
0.901003
0.898532
0.898543
0.899871
0.901583
0.904516
0.910303
0.915373
0.917797
0.919501
0.920923
0.92218
0.922331
0.919619
0.917813
0.918467
0.920109
0.922038
0.926311
0.933614
0.938414
0.94064
0.942054
0.943329
0.944119
0.941615
0.93799
0.93755
0.938931
0.940864
0.943736
0.951483
0.95971
0.963624
0.965773
0.9674
0.968503
0.966022
0.96051
0.95855
0.95937
0.961543
0.964115
0.970427
0.981867
0.989236
0.992763
0.995251
0.997338
0.996387
0.988855
0.983632
0.983131
0.984926
0.987882
0.992568
1.00343
1.01517
1.02224
1.02659
1.03004
1.03149
1.02831
1.0219
1.018
1.01806
1.02113
1.02685
1.03609
1.04435
1.05014
1.05332
1.0541
1.19588
1.66392
0.86561
0.864935
0.865533
0.866921
0.868809
0.873676
0.879751
0.882684
0.884081
0.885292
0.88656
0.886837
0.884125
0.882392
0.882865
0.884062
0.88567
0.889378
0.896261
0.901087
0.903016
0.903998
0.90485
0.905154
0.903851
0.901676
0.901398
0.902593
0.904224
0.906327
0.911664
0.917921
0.921239
0.922706
0.923795
0.924812
0.925222
0.923032
0.921035
0.921305
0.92268
0.924303
0.926817
0.933564
0.939957
0.942914
0.944546
0.94599
0.947345
0.946418
0.942458
0.940926
0.941676
0.943167
0.945
0.949375
0.958811
0.964962
0.967723
0.969539
0.971195
0.971609
0.967022
0.96258
0.962106
0.963545
0.965623
0.968275
0.976645
0.988092
0.99395
0.996844
0.999149
1.00135
0.999264
0.991826
0.98764
0.987253
0.988663
0.991528
0.996889
1.00811
1.01907
1.02598
1.03037
1.0337
1.03432
1.03138
1.02542
1.02126
1.02105
1.02382
1.02948
1.03895
1.04677
1.05138
1.05501
1.20253
1.66701
0.868088
0.866476
0.86699
0.86826
0.86989
0.874231
0.881951
0.886517
0.888427
0.889622
0.890236
0.88914
0.886622
0.885148
0.885595
0.886756
0.888049
0.890149
0.896374
0.902717
0.905354
0.906579
0.907373
0.907881
0.907122
0.905216
0.904652
0.905458
0.906631
0.907963
0.910692
0.917791
0.923019
0.925211
0.926422
0.927681
0.92876
0.927508
0.924751
0.923962
0.924475
0.925673
0.927233
0.93147
0.939741
0.944821
0.947231
0.948761
0.950274
0.951104
0.947876
0.94424
0.94362
0.944442
0.945986
0.948115
0.954914
0.964503
0.969431
0.972086
0.974085
0.975986
0.975114
0.969162
0.9656
0.965113
0.965894
0.967903
0.971469
0.981865
0.99283
0.998128
1.00151
1.00444
1.00643
1.00282
0.994527
0.990399
0.990399
0.992256
0.995351
1.00097
1.01196
1.02221
1.02886
1.03317
1.0363
1.03691
1.03409
1.02799
1.02338
1.0228
1.02486
1.03071
1.04055
1.04793
1.05447
1.21052
1.67014
0.870978
0.868848
0.869458
0.870671
0.872021
0.874777
0.882132
0.888127
0.890311
0.891456
0.891981
0.891874
0.890318
0.888538
0.888625
0.88965
0.89084
0.892018
0.894694
0.901727
0.906453
0.908507
0.909811
0.911092
0.91186
0.910096
0.90793
0.907643
0.908242
0.909219
0.910524
0.91498
0.922992
0.927411
0.929524
0.93079
0.932044
0.932378
0.929266
0.926445
0.925988
0.926632
0.927925
0.929967
0.936981
0.945539
0.949603
0.951683
0.953164
0.954616
0.953936
0.948897
0.945817
0.945592
0.946609
0.948352
0.951505
0.960933
0.970264
0.97469
0.977312
0.979324
0.980725
0.977406
0.970211
0.96671
0.966478
0.96769
0.969971
0.974977
0.987514
0.99867
1.00378
1.00639
1.00862
1.00967
1.00537
0.997879
0.994189
0.994049
0.995628
0.998603
1.00477
1.01586
1.02552
1.0317
1.03573
1.03842
1.0387
1.03584
1.02952
1.02433
1.02312
1.02463
1.03138
1.04166
1.05153
1.21927
1.67337
0.874706
0.872099
0.872436
0.873621
0.874851
0.876474
0.880831
0.887313
0.890706
0.892351
0.893692
0.895007
0.895488
0.893544
0.891952
0.892125
0.892817
0.893459
0.894476
0.898455
0.906003
0.910396
0.912641
0.914166
0.915544
0.915859
0.912739
0.910138
0.909807
0.910375
0.911431
0.913329
0.920455
0.928341
0.931823
0.933657
0.935079
0.93635
0.935275
0.930541
0.928078
0.928112
0.929075
0.930544
0.934
0.943456
0.950878
0.95404
0.955973
0.95757
0.958764
0.955475
0.949565
0.947469
0.947845
0.949309
0.95132
0.956379
0.967905
0.976177
0.979679
0.981779
0.983498
0.984068
0.978354
0.971086
0.968794
0.969486
0.971327
0.973807
0.979231
0.99214
1.00224
1.00659
1.00926
1.01196
1.01342
1.00896
1.00106
0.997107
0.997027
0.998945
1.00222
1.00881
1.01967
1.02842
1.03392
1.03752
1.03981
1.04002
1.03701
1.0304
1.02444
1.02239
1.02382
1.03222
1.04576
1.22769
1.67627
0.878527
0.876858
0.875997
0.876655
0.877544
0.878471
0.879839
0.884903
0.890655
0.893754
0.895716
0.897197
0.898529
0.899042
0.896764
0.894744
0.894228
0.894555
0.895466
0.897254
0.903887
0.911373
0.914878
0.916645
0.91806
0.919326
0.918616
0.914134
0.911733
0.911794
0.912713
0.914021
0.917942
0.927217
0.933257
0.935768
0.937349
0.938746
0.939693
0.936465
0.931372
0.930076
0.930718
0.932023
0.933773
0.9396
0.949895
0.955471
0.957862
0.959502
0.960878
0.961117
0.95603
0.950901
0.94989
0.95081
0.952661
0.95497
0.961979
0.973784
0.980012
0.98241
0.984062
0.985985
0.986731
0.98093
0.974646
0.972889
0.973095
0.97433
0.976673
0.982591
0.995559
1.00567
1.01047
1.01321
1.01542
1.01607
1.01196
1.00504
1.00115
1.00079
1.00222
1.00531
1.01228
1.02292
1.03092
1.03578
1.03895
1.04101
1.04132
1.03826
1.03087
1.02341
1.02073
1.02267
1.0367
1.23319
1.67809
0.88093
0.881783
0.87999
0.879191
0.879113
0.879544
0.880556
0.883436
0.890056
0.894993
0.897604
0.899267
0.900624
0.901908
0.901586
0.897824
0.895709
0.895939
0.897021
0.898462
0.902983
0.911294
0.916302
0.918575
0.92006
0.921283
0.922056
0.919053
0.914466
0.913698
0.914584
0.915869
0.917817
0.924855
0.933464
0.937318
0.939197
0.94055
0.941654
0.941511
0.936472
0.932736
0.932725
0.933905
0.935426
0.93787
0.945931
0.955116
0.959128
0.961133
0.962625
0.96405
0.963423
0.957484
0.953568
0.953347
0.954236
0.955637
0.957899
0.965856
0.977356
0.983177
0.986168
0.988605
0.990573
0.990528
0.983854
0.977169
0.975141
0.975697
0.97711
0.979318
0.984621
0.997301
1.00775
1.01262
1.01551
1.01824
1.01982
1.01632
1.00889
1.00411
1.00312
1.00446
1.00742
1.01508
1.02583
1.03327
1.03764
1.04067
1.0426
1.0426
1.03912
1.03028
1.02146
1.01782
1.02375
1.23378
1.67861
0.882929
0.884849
0.883994
0.881703
0.880865
0.881356
0.882373
0.884135
0.890125
0.896397
0.899547
0.90132
0.902651
0.903874
0.904478
0.90104
0.897759
0.897963
0.899087
0.900526
0.903734
0.911441
0.917316
0.919974
0.92151
0.922639
0.923494
0.922676
0.918162
0.9161
0.916779
0.918087
0.91956
0.923055
0.931897
0.938057
0.940474
0.941898
0.942995
0.943971
0.942463
0.937374
0.935526
0.936235
0.937483
0.93881
0.941737
0.95118
0.959196
0.962568
0.96468
0.966518
0.968178
0.966613
0.959985
0.956257
0.955532
0.955879
0.95728
0.959889
0.969433
0.981871
0.987968
0.990471
0.992253
0.994308
0.99447
0.987467
0.980527
0.978085
0.977658
0.9785
0.980658
0.986831
1.00049
1.0116
1.01689
1.01963
1.02173
1.02231
1.01902
1.01136
1.00581
1.00451
1.00592
1.00921
1.01783
1.02883
1.03585
1.03957
1.04214
1.04361
1.04324
1.03897
1.02832
1.01781
1.01281
1.22882
1.67794
0.884976
0.887049
0.886796
0.8835
0.882271
0.882951
0.884116
0.885876
0.891166
0.898085
0.901451
0.903148
0.904398
0.905356
0.905557
0.903064
0.900307
0.900369
0.901469
0.902866
0.905108
0.911137
0.917855
0.920959
0.922523
0.92361
0.92459
0.925151
0.922637
0.919423
0.919333
0.920463
0.92181
0.923277
0.928414
0.936958
0.941206
0.94317
0.9447
0.946223
0.94733
0.944379
0.939715
0.938466
0.938604
0.939312
0.940839
0.945466
0.956284
0.963616
0.967051
0.969405
0.971096
0.972378
0.969038
0.961503
0.957709
0.957233
0.957876
0.959381
0.962326
0.973077
0.985283
0.990857
0.994144
0.996808
0.99877
0.997843
0.989409
0.981706
0.979366
0.97998
0.98179
0.984436
0.990681
1.00385
1.01411
1.01884
1.02149
1.02355
1.02405
1.02051
1.01304
1.00755
1.00615
1.00729
1.01087
1.02025
1.03123
1.03744
1.04059
1.04298
1.04404
1.04335
1.03746
1.02323
1.00943
1.21884
1.67652
0.887004
0.888948
0.888237
0.885041
0.884065
0.884837
0.885992
0.887511
0.891938
0.89924
0.903178
0.904877
0.905858
0.906545
0.906953
0.905551
0.903356
0.903252
0.904263
0.905478
0.906756
0.909775
0.916935
0.921604
0.923605
0.924924
0.926294
0.927597
0.927468
0.923914
0.922086
0.92234
0.923046
0.923968
0.925744
0.932805
0.941117
0.944953
0.947195
0.9489
0.950454
0.950877
0.946129
0.941139
0.939512
0.939567
0.940762
0.94273
0.949772
0.961945
0.968684
0.971327
0.973144
0.974557
0.975378
0.970867
0.962904
0.959397
0.95892
0.959697
0.961424
0.965241
0.977607
0.990325
0.995795
0.998079
0.999306
1.00023
0.999301
0.992178
0.985572
0.983685
0.984165
0.985463
0.987773
0.99384
1.00623
1.01557
1.02007
1.02262
1.02461
1.02571
1.02307
1.01545
1.00931
1.00749
1.00842
1.01196
1.0218
1.03245
1.038
1.04101
1.04343
1.04431
1.04303
1.0326
1.01498
1.20731
1.67547
0.889115
0.890732
0.889695
0.88706
0.886169
0.887
0.888244
0.889517
0.891853
0.898374
0.903767
0.905978
0.9073
0.908578
0.909674
0.909596
0.907305
0.905962
0.906218
0.906941
0.907774
0.908929
0.913306
0.921012
0.925017
0.927087
0.928666
0.930127
0.931376
0.92977
0.925639
0.923805
0.923397
0.923916
0.925243
0.928637
0.938444
0.946423
0.949917
0.951958
0.953384
0.954732
0.953153
0.945714
0.941094
0.940781
0.941813
0.943267
0.945814
0.955087
0.966977
0.972224
0.974425
0.976182
0.977676
0.977749
0.971689
0.963797
0.961181
0.961945
0.964163
0.966219
0.969278
0.980068
0.991415
0.996332
0.998737
1.00111
1.00332
1.00322
0.996449
0.989406
0.986604
0.986592
0.987767
0.989957
0.995875
1.00797
1.01696
1.02164
1.02479
1.02735
1.0286
1.02565
1.01713
1.01029
1.00812
1.00898
1.01237
1.02232
1.03272
1.03819
1.04152
1.04387
1.04461
1.03996
1.02657
1.19958
1.67545
0.891525
0.892864
0.892068
0.89007
0.888883
0.889306
0.890143
0.891013
0.892073
0.895487
0.902952
0.907564
0.909773
0.911131
0.912383
0.913459
0.912375
0.90923
0.907838
0.907609
0.907839
0.908721
0.910653
0.91783
0.925985
0.929814
0.931813
0.933196
0.934539
0.935027
0.930745
0.925638
0.923955
0.924193
0.925343
0.927075
0.933372
0.945221
0.951724
0.954258
0.956047
0.957435
0.957845
0.95273
0.945155
0.942864
0.943583
0.94508
0.946773
0.949861
0.959834
0.97037
0.974621
0.976273
0.977106
0.978912
0.980159
0.9753
0.968554
0.966522
0.966452
0.966542
0.967484
0.970175
0.980286
0.992955
0.999773
1.00267
1.00473
1.00664
1.00672
1.0007
0.992922
0.988919
0.988184
0.989177
0.991381
0.998089
1.01081
1.02001
1.02454
1.02712
1.02926
1.03031
1.02743
1.01833
1.01071
1.00829
1.00911
1.0124
1.02239
1.03284
1.03858
1.04221
1.0443
1.04318
1.03707
1.19831
1.67678
0.893398
0.895336
0.895935
0.894673
0.892038
0.891044
0.891179
0.891706
0.892626
0.894027
0.899533
0.907828
0.911926
0.913868
0.915105
0.916331
0.917134
0.914472
0.910076
0.907984
0.907751
0.908634
0.909981
0.913755
0.924112
0.931606
0.934538
0.936259
0.937401
0.938182
0.935984
0.928954
0.925268
0.925458
0.926566
0.928003
0.930805
0.940213
0.95113
0.955474
0.957147
0.957614
0.957742
0.957823
0.953483
0.947901
0.946614
0.947667
0.949198
0.950033
0.951935
0.960451
0.970679
0.975604
0.978925
0.981818
0.983757
0.984583
0.979548
0.971601
0.967348
0.966186
0.966383
0.967609
0.970402
0.981323
0.995382
1.00249
1.00558
1.00793
1.00986
1.00973
1.00317
0.994365
0.989987
0.989567
0.991042
0.993686
1.00136
1.01391
1.02224
1.02633
1.02904
1.03114
1.03205
1.02829
1.01881
1.01112
1.00868
1.00917
1.0123
1.02212
1.03254
1.03856
1.0425
1.04357
1.04398
1.20335
1.67948
0.895225
0.897671
0.898623
0.899193
0.896813
0.893459
0.892416
0.892728
0.893532
0.894594
0.896864
0.905042
0.912823
0.915924
0.917506
0.918656
0.919752
0.919219
0.913654
0.909206
0.908867
0.909784
0.911038
0.912956
0.919953
0.931207
0.936332
0.938237
0.939533
0.940329
0.939897
0.934766
0.928805
0.927921
0.929177
0.931305
0.933495
0.936157
0.944493
0.952723
0.955828
0.957167
0.958638
0.960755
0.962018
0.958168
0.952623
0.95066
0.949779
0.949001
0.949649
0.951996
0.961645
0.974523
0.981202
0.983973
0.986002
0.987879
0.988635
0.98231
0.972611
0.96793
0.967345
0.968497
0.970317
0.973522
0.984389
0.998537
1.00557
1.00829
1.00987
1.01079
1.0104
1.00487
0.997021
0.993022
0.992566
0.993738
0.996228
1.00356
1.01579
1.02398
1.02796
1.03027
1.03187
1.03289
1.02989
1.02043
1.01224
1.0092
1.00921
1.01144
1.02091
1.03145
1.03845
1.04139
1.04773
1.21329
1.68307
0.896253
0.899483
0.900506
0.901657
0.901905
0.898169
0.894617
0.894144
0.894843
0.895935
0.897239
0.901482
0.911296
0.917093
0.919327
0.920764
0.921812
0.9222
0.918697
0.912591
0.911128
0.912055
0.913619
0.915628
0.918765
0.926918
0.935197
0.938192
0.939271
0.939455
0.940211
0.940816
0.937009
0.933275
0.933122
0.934296
0.93503
0.935174
0.936595
0.94406
0.953019
0.957931
0.961503
0.964409
0.966334
0.967115
0.962212
0.954488
0.950369
0.949461
0.950034
0.951427
0.953935
0.964817
0.978354
0.984606
0.987213
0.988881
0.989822
0.989449
0.983456
0.974706
0.97097
0.971177
0.972822
0.974944
0.977708
0.986426
0.998945
1.00555
1.00834
1.01027
1.01213
1.01295
1.00901
1.00139
0.996245
0.994624
0.995047
0.996939
1.00368
1.01586
1.02414
1.02848
1.03159
1.03391
1.03502
1.03227
1.02226
1.01284
1.00869
1.0081
1.00942
1.01876
1.03053
1.03737
1.04874
1.22501
1.68692
0.8963
0.901011
0.902241
0.903418
0.904497
0.903525
0.898376
0.896008
0.896489
0.897581
0.898798
0.900667
0.907426
0.916311
0.919883
0.921248
0.921875
0.922397
0.922605
0.919077
0.915544
0.915582
0.916933
0.91847
0.919709
0.921482
0.928481
0.935743
0.938803
0.940687
0.942772
0.944967
0.945956
0.942336
0.937986
0.936107
0.934346
0.933242
0.933928
0.936411
0.945988
0.957877
0.964187
0.967155
0.969118
0.970623
0.970606
0.963055
0.954003
0.950864
0.951151
0.952561
0.954571
0.957897
0.968668
0.981118
0.986694
0.988693
0.989928
0.991517
0.992138
0.987162
0.97936
0.97568
0.975206
0.975585
0.976335
0.978458
0.986536
0.999386
1.00711
1.01084
1.01326
1.01561
1.01708
1.01373
1.00448
0.997249
0.994646
0.994888
0.996517
1.00341
1.01674
1.02667
1.03171
1.03421
1.03564
1.03623
1.03319
1.02308
1.01269
1.00727
1.00585
1.00693
1.01773
1.02986
1.04628
1.23623
1.6902
0.895125
0.902164
0.903828
0.90502
0.905972
0.906597
0.903738
0.899218
0.898606
0.899555
0.900772
0.901965
0.904252
0.911808
0.91888
0.921537
0.922878
0.924001
0.925386
0.926058
0.922567
0.919533
0.919323
0.919722
0.919244
0.919279
0.921414
0.929433
0.937975
0.943106
0.947097
0.949375
0.950851
0.950836
0.945069
0.937448
0.93345
0.93281
0.933804
0.935291
0.938911
0.95211
0.964343
0.968751
0.970479
0.971446
0.97124
0.97
0.962911
0.955982
0.954321
0.955366
0.95739
0.959329
0.961214
0.968841
0.980691
0.987323
0.990261
0.992147
0.994002
0.995739
0.993265
0.985665
0.979652
0.976699
0.976028
0.976789
0.978988
0.987298
1.00081
1.00962
1.01413
1.01685
1.01863
1.01934
1.01504
1.00464
0.997033
0.994736
0.99531
0.997244
1.00448
1.01837
1.02863
1.03334
1.03529
1.03607
1.03622
1.03305
1.02362
1.01269
1.00586
1.00345
1.00551
1.01741
1.03902
1.24538
1.69218
0.89273
0.902218
0.904794
0.90617
0.907169
0.908141
0.908255
0.904439
0.901559
0.901669
0.902513
0.903357
0.9042
0.906576
0.914491
0.921388
0.924584
0.926809
0.928546
0.929977
0.929966
0.925803
0.921921
0.919493
0.917911
0.918072
0.919248
0.922445
0.933519
0.944641
0.949577
0.951994
0.953524
0.954538
0.952421
0.942726
0.935315
0.934227
0.935253
0.937637
0.941171
0.946606
0.957831
0.966245
0.969018
0.969504
0.969525
0.970962
0.972172
0.968429
0.962522
0.960203
0.959963
0.959645
0.959043
0.96018
0.966776
0.979574
0.988332
0.992971
0.996863
0.999319
1.00079
0.998366
0.988987
0.980244
0.976744
0.976796
0.97821
0.980527
0.989908
1.00472
1.01313
1.01637
1.01805
1.01882
1.01929
1.01607
1.00654
0.999232
0.996984
0.997208
0.998636
1.00508
1.01877
1.02905
1.03331
1.03468
1.0353
1.03574
1.03367
1.02536
1.0134
1.00431
1.0014
1.00343
1.02692
1.25088
1.69279
0.890399
0.899834
0.905227
0.907302
0.908567
0.909718
0.910897
0.910481
0.906348
0.904099
0.903882
0.90399
0.904458
0.905574
0.908846
0.918066
0.925611
0.929298
0.931487
0.93279
0.9339
0.932611
0.92578
0.920023
0.918509
0.919077
0.920226
0.92209
0.927773
0.941305
0.949927
0.952801
0.953697
0.952735
0.951703
0.949528
0.94357
0.940143
0.940514
0.942258
0.944001
0.945235
0.94725
0.955149
0.963661
0.967771
0.970696
0.974173
0.976997
0.978357
0.974785
0.9673
0.961957
0.958449
0.956836
0.957497
0.959387
0.966878
0.982886
0.994414
0.998568
1.00046
1.00182
1.00198
0.998557
0.9891
0.981218
0.978855
0.97971
0.981906
0.984846
0.993005
1.00586
1.01319
1.01621
1.01804
1.01982
1.02126
1.0188
1.00972
1.00186
0.998389
0.99789
0.998809
1.00408
1.01767
1.0284
1.03278
1.03438
1.03559
1.03651
1.03519
1.02729
1.01344
1.00249
0.997062
1.00969
1.24981
1.69162
0.890073
0.895137
0.903794
0.908374
0.910344
0.911608
0.912834
0.913915
0.912534
0.907897
0.90534
0.90477
0.905075
0.905959
0.907304
0.911978
0.923043
0.930405
0.933443
0.93517
0.936478
0.936973
0.932333
0.923738
0.920699
0.92131
0.923223
0.925897
0.928308
0.933697
0.943658
0.949085
0.950784
0.951656
0.952954
0.954648
0.955161
0.950733
0.946551
0.945329
0.94478
0.943179
0.942835
0.944893
0.953474
0.965446
0.973357
0.977802
0.980826
0.982715
0.983574
0.978253
0.967153
0.959838
0.958039
0.958688
0.960357
0.963285
0.971716
0.987427
0.996438
0.999316
1.00004
0.999642
1.00047
0.999921
0.993283
0.986257
0.983593
0.983294
0.983793
0.985456
0.99256
1.00554
1.01398
1.01787
1.01999
1.02186
1.0238
1.02269
1.01356
1.00368
0.998572
0.997454
0.998172
1.00289
1.01669
1.02851
1.03347
1.03501
1.03618
1.03696
1.03594
1.02812
1.01228
0.99808
0.995613
1.24178
1.68888
0.890967
0.89289
0.89906
0.907885
0.911798
0.913612
0.914787
0.91597
0.916914
0.914179
0.908406
0.906004
0.906068
0.906918
0.908009
0.909603
0.916727
0.928575
0.933929
0.93578
0.936491
0.936611
0.936571
0.932455
0.926991
0.9257
0.926599
0.927839
0.928677
0.929352
0.933086
0.942343
0.949203
0.952988
0.956619
0.959553
0.961222
0.960995
0.955585
0.948881
0.944275
0.941775
0.941333
0.942385
0.944806
0.955457
0.971005
0.979038
0.98205
0.983779
0.984488
0.983515
0.977431
0.9677
0.963019
0.962857
0.96454
0.966714
0.968825
0.97413
0.985828
0.993901
0.997017
0.999022
1.00162
1.00367
1.00443
0.999279
0.990791
0.985475
0.983577
0.983687
0.984989
0.991362
1.00463
1.01439
1.01945
1.02311
1.02539
1.02668
1.0251
1.01553
1.00411
0.998192
0.996891
0.997649
1.00226
1.01639
1.02876
1.03335
1.03491
1.0364
1.03694
1.03568
1.0267
1.00677
0.992072
1.22851
1.68632
0.891907
0.893244
0.895263
0.903465
0.912037
0.915443
0.917059
0.918138
0.91918
0.919206
0.913691
0.908058
0.907172
0.908069
0.909261
0.9107
0.913095
0.921403
0.931318
0.935284
0.936794
0.938081
0.939182
0.939798
0.936421
0.931108
0.928633
0.92778
0.927179
0.927191
0.928314
0.93264
0.943889
0.953895
0.959178
0.962285
0.964298
0.965722
0.965152
0.957144
0.947109
0.942539
0.942133
0.943197
0.94502
0.948981
0.961089
0.974795
0.980446
0.982156
0.982339
0.982196
0.982662
0.980606
0.974396
0.96991
0.96855
0.968287
0.967732
0.968271
0.972081
0.983843
0.99478
1.00018
1.00286
1.00544
1.00777
1.00865
1.00323
0.992543
0.985365
0.983003
0.98319
0.984524
0.991009
1.00699
1.01901
1.02352
1.02527
1.02661
1.02741
1.02542
1.01579
1.00437
0.998411
0.997035
0.997742
1.00247
1.01638
1.02824
1.03243
1.03415
1.03586
1.03648
1.03453
1.0204
1.00105
1.21434
1.68482
0.892947
0.894147
0.895273
0.898447
0.908443
0.916038
0.918849
0.920293
0.921189
0.921855
0.920186
0.913371
0.909747
0.910008
0.911268
0.91267
0.913744
0.915547
0.923256
0.932892
0.937618
0.939915
0.941527
0.94285
0.94343
0.939675
0.933269
0.929241
0.927721
0.927791
0.9288
0.93032
0.934786
0.947948
0.958836
0.963229
0.965134
0.966182
0.966429
0.964661
0.955723
0.947336
0.94528
0.946315
0.948691
0.951168
0.953781
0.961559
0.972622
0.978724
0.981251
0.982847
0.985274
0.987475
0.987358
0.981725
0.974703
0.969822
0.967178
0.966576
0.967559
0.971359
0.984151
0.996898
1.0034
1.00698
1.00899
1.01035
1.01006
1.00378
0.992529
0.985564
0.98411
0.985141
0.987697
0.993962
1.00838
1.01917
1.02318
1.02468
1.0257
1.02661
1.02603
1.01852
1.00711
1.00006
0.998158
0.998483
1.00206
1.01469
1.02583
1.03029
1.03304
1.03535
1.03628
1.03022
1.01707
1.20558
1.68486
0.894358
0.895353
0.896454
0.897824
0.902274
0.912694
0.918825
0.920956
0.922237
0.923166
0.924074
0.922147
0.916014
0.913189
0.913242
0.913759
0.914123
0.915007
0.91673
0.924279
0.93479
0.940254
0.942926
0.944728
0.946131
0.946938
0.943009
0.934953
0.930325
0.929684
0.930676
0.931921
0.933531
0.938244
0.951134
0.960781
0.964128
0.965547
0.966374
0.966623
0.96493
0.958446
0.952922
0.951456
0.951968
0.952598
0.952295
0.952949
0.957869
0.969539
0.979103
0.984455
0.987944
0.990786
0.992576
0.992742
0.986459
0.975751
0.968734
0.966794
0.967512
0.969012
0.973178
0.987713
1.00157
1.0069
1.00867
1.00873
1.00913
1.00986
1.00604
0.996075
0.989658
0.988013
0.987884
0.98864
0.992871
1.00609
1.01748
1.02228
1.02464
1.02714
1.02908
1.02928
1.02229
1.00914
1.00022
0.997538
0.997727
1.0002
1.01184
1.02342
1.02924
1.0331
1.03584
1.03496
1.02961
1.20509
1.68647
0.896585
0.896878
0.89787
0.898986
0.900225
0.905182
0.915358
0.921096
0.923404
0.924864
0.926034
0.927109
0.925091
0.918893
0.915457
0.914774
0.91503
0.915235
0.915968
0.917688
0.925696
0.937471
0.943497
0.946339
0.948407
0.949849
0.950265
0.945403
0.936543
0.932336
0.932081
0.932927
0.934142
0.935784
0.940573
0.952661
0.961623
0.965137
0.96652
0.967297
0.968663
0.969421
0.965892
0.960093
0.956277
0.953627
0.950995
0.950052
0.95107
0.955579
0.969256
0.982514
0.98909
0.991964
0.993697
0.994997
0.994217
0.986565
0.975222
0.969796
0.969305
0.970871
0.973385
0.977592
0.989292
1.00075
1.00545
1.00746
1.00946
1.01123
1.01252
1.0098
1.0003
0.992031
0.988212
0.987479
0.988339
0.991472
1.00365
1.01718
1.02423
1.02736
1.02954
1.03101
1.03091
1.02374
1.00944
0.999339
0.996271
0.996492
0.998741
1.00983
1.02226
1.02936
1.03401
1.03499
1.03845
1.21127
1.68925
0.899768
0.898189
0.898841
0.89975
0.90076
0.902133
0.907162
0.917427
0.92361
0.926276
0.927968
0.929213
0.930202