/*--------------------------------*- C++ -*----------------------------------*\
  =========                 |
  \\      /  F ield         | OpenFOAM: The Open Source CFD Toolbox
   \\    /   O peration     | Website:  https://openfoam.org
    \\  /    A nd           | Version:  12
     \\/     M anipulation  |
\*---------------------------------------------------------------------------*/
FoamFile
{
    format      ascii;
    class       volScalarField;
    location    "8.3";
    object      rho;
}
// * * * * * * * * * * * * * * * * * * * * * * * * * * * * * * * * * * * * * //

dimensions      [1 -3 0 0 0 0 0];

internalField   nonuniform List<scalar> 
22702
(
1.40001
1.40001
1.24398
1.40001
1.43741
1.40001
1.83686
1.40001
1.40001
1.04846
1.8383
1.837
1.40001
1.84137
1.26115
1.40001
1.40001
1.40001
1.83899
1.40001
1.84232
1.40001
1.84099
1.01143
1.84148
1.06294
1.40001
1.83865
1.0336
1.01946
1.40001
1.83803
1.40001
1.40001
1.40001
1.80876
1.84169
1.84046
1.40001
1.40001
1.02586
1.40001
1.61237
1.40001
1.8381
1.40001
1.40001
1.40001
1.40001
1.0174
1.40001
1.01904
1.40001
1.83855
1.40001
1.83871
1.40001
1.40001
1.40001
1.40001
0.991406
1.40001
1.40001
1.02958
1.40001
1.0434
1.40001
1.40001
1.40001
1.06317
1.40001
1.84041
1.66839
1.40001
1.84093
1.86281
1.04903
1.83875
1.02343
1.40001
1.83763
1.03261
1.84264
1.8432
1.40001
1.40001
1.40001
1.40001
1.30466
1.05846
1.84008
1.40001
1.40001
1.05376
1.40001
1.84237
1.04107
1.40001
1.40001
1.40001
1.40001
1.61299
1.83806
1.06032
1.40001
1.40001
1.52515
1.40001
1.02742
1.40001
1.83815
1.83979
1.40001
1.40001
1.03374
1.03597
1.05391
1.40001
1.40001
1.40001
1.40001
1.40001
1.29048
1.40001
1.77912
1.42634
1.83813
1.40001
1.83777
1.8388
1.84147
1.83753
1.40001
1.02539
1.40001
1.01187
1.40001
1.40001
1.40001
1.40001
1.83965
1.40001
1.40001
1.40001
1.40001
1.84354
1.40001
1.42299
1.40001
1.40001
1.40001
1.40001
1.03233
1.40001
1.41032
1.40001
1.02619
1.40001
1.40001
1.40001
1.83894
1.40001
1.84121
1.02554
1.02956
1.83909
1.8391
1.40001
1.4558
1.65322
1.40001
1.83962
1.01933
1.81013
1.40001
1.40001
1.40001
1.40001
1.84153
1.76788
1.40001
1.83847
1.02355
1.83953
1.40001
1.03741
1.40001
1.02424
1.05014
1.39978
1.40001
1.40001
1.83707
1.40001
1.40001
1.84275
1.40001
1.8409
1.8378
1.0255
1.40001
1.40001
1.02981
1.84183
1.40001
1.40001
1.40001
1.84171
1.40001
1.0209
1.40001
1.40001
1.84145
1.84218
1.83916
1.40001
1.40004
1.40001
1.40001
1.40001
1.84211
1.40001
1.02222
1.85384
1.84254
1.84092
1.40001
1.40001
1.40001
1.01129
1.84379
1.61019
1.40001
1.84292
1.01434
1.01325
1.84288
1.84542
1.40001
1.83995
1.02949
1.79175
1.40001
1.40001
1.40001
1.40001
1.84194
1.40001
1.67005
1.44155
1.40001
1.40001
1.84161
1.0131
1.1582
1.40001
1.84087
1.04135
1.8416
1.40001
1.40001
1.40001
1.40001
1.40001
1.40001
1.40001
1.01979
1.15974
1.01489
1.84188
1.40001
1.40001
1.40001
1.40001
1.80108
1.40001
1.01776
1.40001
1.00821
1.02604
1.84292
1.02722
1.84214
1.40001
1.40001
1.40001
1.39772
1.0393
1.01652
1.4
1.40001
1.00517
1.40001
1.83937
1.05779
1.40001
1.40001
1.83693
1.01499
1.40001
1.84657
1.03064
1.84158
1.40001
1.01263
1.39791
1.40001
1.40001
1.40001
1.01862
1.40001
1.40001
1.4
1.40002
1.41235
1.6699
1.40001
1.06095
1.40001
1.40001
1.40001
1.40001
1.40001
1.40001
1.40001
1.83712
1.40001
1.83657
1.40001
1.40001
1.40001
1.02682
1.40001
1.84273
1.02769
1.40001
1.74333
1.40001
1.40001
1.84134
1.40001
1.40001
1.40001
1.83144
1.40001
1.40001
1.82403
1.83818
1.40001
1.50257
1.40001
1.40001
1.00708
1.40001
1.40001
1.40001
1.0517
1.40001
1.40001
1.40001
1.40001
1.05162
1.40001
1.40001
1.40001
1.40001
1.40001
1.0336
1.40007
1.84028
1.40001
1.39999
1.83933
1.83877
1.40001
1.40001
1.03239
1.20748
1.83853
1.40001
1.40001
1.40001
1.842
1.06427
1.40001
1.84172
1.40001
1.40001
1.1109
1.0954
1.40001
1.03693
1.03282
1.40001
1.40001
1.40001
1.40001
1.40001
1.40001
1.40001
1.83889
1.5258
1.82594
1.03575
1.30253
1.83953
1.40001
1.84262
1.83898
1.02885
1.16241
1.40001
1.03473
1.40001
1.84743
1.40001
1.40001
1.40001
1.40001
1.84215
1.40001
1.40001
1.40001
1.40001
1.40001
1.40001
1.40001
1.56582
1.83962
1.40001
1.8419
1.40001
1.40001
1.03295
1.40001
1.40001
1.40001
1.40001
1.84164
1.73005
1.40001
1.40001
1.03425
1.84266
1.84182
1.40001
1.84166
1.84293
1.8422
1.40001
1.22505
1.40001
1.8422
1.39083
1.8421
1.40001
1.02718
1.39889
1.83892
1.40001
1.40001
1.40001
1.40001
1.02778
1.84351
1.79929
1.40001
1.84395
1.84231
1.83845
1.40001
1.61529
1.8419
1.40001
1.40001
1.71283
1.46697
1.84162
1.31109
1.84196
1.40001
1.84229
1.84234
1.84213
1.84256
1.40001
1.83545
1.3032
1.27641
1.40001
1.4
1.40001
1.40001
1.84475
1.40001
1.40001
1.40001
1.40001
1.40001
1.83917
1.40001
1.40001
1.39606
1.84182
1.77787
1.40001
1.7643
1.40005
1.40001
1.40001
1.84063
1.40001
1.39751
1.40494
1.40001
1.8418
1.40001
1.84032
1.40001
1.40001
1.73335
1.40001
1.83976
1.40003
1.40001
1.83775
1.40001
1.84164
1.40001
1.40001
1.40001
1.84244
1.40001
1.84687
1.40001
1.84203
1.83885
1.8422
1.84197
1.40001
1.83764
1.83523
1.40001
1.03097
1.8115
1.71828
1.40001
1.84262
1.40001
1.00487
1.0134
1.40001
1.40001
1.40001
1.40001
1.40001
1.04251
1.40001
1.84176
1.50978
1.84106
1.40001
1.40001
1.40001
1.40001
1.40001
1.84221
1.40001
1.84125
1.66054
1.16116
1.40001
1.40001
1.53349
1.51188
1.40001
1.40001
1.54599
1.40001
1.03113
1.84103
1.84131
1.40001
1.40001
1.40001
1.83946
1.40001
1.40003
1.84305
1.84392
1.34796
1.40001
1.40001
1.01292
1.80044
1.40001
1.40001
1.40001
1.40001
1.40001
1.8418
1.83812
1.40001
1.83794
1.84596
1.84175
1.40001
1.40001
1.40001
1.40001
1.06087
1.83893
1.40001
1.40001
1.80335
1.83845
1.40001
1.81703
1.83859
1.40001
1.40001
1.40001
1.40001
1.40001
1.84188
1.40001
1.40001
1.40001
1.40001
1.84342
1.40001
1.83988
1.02965
1.40001
1.03308
1.40001
1.40001
1.40001
1.39684
1.03789
1.39906
1.40001
1.40001
1.40001
1.45983
1.40001
1.40001
1.27025
1.40001
1.40001
1.40001
1.40001
1.40001
1.40001
1.40001
1.4
1.32594
1.4
1.40001
1.39762
1.40001
1.02778
1.40001
1.40001
1.40001
1.40001
1.73553
1.40001
1.40001
1.40001
1.40001
1.02175
1.40001
1.40001
1.81432
1.83907
1.4
1.40001
1.40001
1.2821
1.40001
1.40001
1.40001
1.40001
1.40001
1.40001
1.3482
1.41032
1.84196
1.40001
1.40001
1.40001
1.84485
1.27366
1.40001
1.40001
1.40001
1.84022
1.83655
1.40001
1.40001
1.40001
1.40001
1.40001
1.40001
1.40001
1.40001
1.40001
1.02627
1.40001
1.40001
1.83937
1.02408
1.40001
1.83889
1.40001
1.03768
1.40001
1.40001
1.02574
1.40001
1.40001
1.40001
1.40001
1.40001
1.40001
1.40001
1.83199
1.83849
1.40001
1.40001
1.40001
1.40001
1.80385
1.40001
1.53817
1.03736
1.40001
1.40001
1.40001
1.40001
1.40001
1.40001
1.40001
1.43635
1.40001
1.40001
1.63112
1.40001
1.40001
1.40001
1.76007
1.40001
1.40001
1.40001
1.40001
1.04313
1.40001
1.40001
1.02151
1.04043
1.40001
1.40001
1.84234
1.40001
1.37127
1.40001
1.40001
1.40001
1.71061
1.04228
1.40001
1.02752
1.40001
1.17421
1.40001
1.40001
1.40001
1.84078
1.40001
1.40001
1.84148
1.40001
1.40001
1.40001
1.84102
1.40001
1.40001
1.84238
1.40001
1.40001
1.03151
1.40001
1.54109
1.40001
1.40001
1.84
1.83807
1.69639
1.79281
1.40001
1.02982
1.40001
1.40001
1.82586
1.40001
1.04924
1.40001
1.40001
1.40001
1.84208
1.40001
1.40001
1.40001
1.40001
1.65982
1.40001
1.83106
1.83885
1.07008
1.40001
1.40001
1.05233
1.05762
1.40001
1.40001
1.40001
1.70894
1.72998
1.40001
1.40001
1.40001
1.40001
1.40001
1.40001
1.40001
1.58354
1.84146
1.40623
1.40001
1.83637
1.02368
1.40001
1.40001
1.40001
1.64178
1.40001
1.48785
1.40001
1.80722
1.83986
1.40001
1.02253
1.40001
1.83888
1.40001
1.40001
1.84118
1.81539
1.40001
1.84098
1.40001
1.03761
1.40001
1.40001
1.40001
1.8398
1.83316
1.79512
1.40001
1.84306
1.84171
1.40001
1.84263
1.40001
1.8403
1.40001
1.04398
1.36179
1.02405
1.40001
1.40001
1.40001
1.40001
1.40001
1.84149
1.40001
1.84194
1.40001
1.40001
1.40001
1.82064
1.40001
1.02531
1.8417
1.40001
1.0111
1.06169
1.0372
1.40001
1.61521
1.43182
1.84445
1.84134
1.40001
1.4
1.40001
1.40001
1.84281
1.40001
1.40001
1.84199
1.84165
1.40001
1.551
1.40037
1.40001
1.39675
1.83765
1.24361
1.40001
1.21687
1.03164
1.02758
1.3437
1.84023
1.83654
1.48875
1.84297
1.84212
1.40001
1.40001
1.83761
1.83856
1.84171
1.83561
1.40001
1.84182
1.0452
1.84674
1.84113
1.84109
1.84667
1.26479
1.29332
1.32103
1.84237
1.35411
1.84063
1.40001
1.40001
1.84419
1.84282
1.40001
1.0316
1.83803
1.84212
1.40001
1.84108
1.84216
1.40001
1.843
1.01568
1.84851
1.8396
1.83917
1.84773
1.40001
1.40001
1.40001
1.84204
1.68379
1.0639
1.84113
1.01938
1.84227
1.40001
1.40001
1.40001
1.40001
1.84245
1.84195
1.40001
1.40001
1.84199
1.02784
1.84226
1.02517
1.40001
1.83952
1.40001
1.04201
1.84313
1.13833
1.40001
1.84137
1.84364
1.84137
1.40001
1.40001
1.59423
1.84369
1.03715
1.84138
1.40001
1.84072
1.27444
1.84234
1.03205
1.40001
1.83982
1.06088
1.844
1.03798
1.40001
1.84195
1.40001
1.83995
1.40001
1.65394
1.82261
1.75196
1.04794
1.40001
1.84115
1.40001
1.84149
1.40001
1.84271
1.40001
1.40001
1.84085
1.3634
1.84415
1.04262
1.81059
1.40001
1.7126
1.40001
1.84063
1.84266
1.84068
1.40001
1.79626
1.84047
1.80727
1.67028
1.82751
1.40001
1.69002
1.40001
1.8411
1.40001
1.46022
1.40001
1.81234
1.40001
1.8411
1.82702
1.82155
1.40001
1.836
1.02213
1.40001
1.0305
1.40001
1.40001
1.40001
1.8374
1.40001
1.84102
1.40001
1.40001
1.40001
1.84269
1.82614
1.76519
1.84291
1.84586
1.03607
1.83596
1.83971
1.40001
1.78035
1.84263
1.8191
1.40001
1.83927
1.83865
1.40001
1.84997
1.84183
1.84171
1.84276
1.40001
1.40001
1.40001
1.84093
1.05164
1.40001
1.84146
1.40001
1.40001
1.00039
1.40001
1.40001
1.84062
1.83972
1.40001
1.84144
1.83766
1.84188
1.36735
1.84116
1.40001
1.84119
1.84174
1.75098
1.40001
1.40001
1.40001
1.84291
1.84234
1.84183
1.3371
1.40001
1.84153
1.84276
1.84035
1.40001
1.84277
1.84108
1.84249
1.8449
1.40001
1.84211
1.84042
1.77649
1.84011
1.84484
1.40001
1.85033
1.83485
1.84213
1.8447
1.84401
1.05181
1.84116
1.83939
1.40001
1.84171
1.84195
1.84298
1.84018
1.40001
1.84214
1.84221
1.40001
1.8421
1.77805
1.40001
1.40001
1.40001
1.84524
1.84243
1.40001
1.40001
1.63761
1.40001
1.84209
1.40001
1.40001
1.84296
1.84287
1.84178
1.84138
1.40001
1.40001
1.40001
1.70102
1.40001
1.84136
1.40001
1.40001
1.83696
1.83919
1.40001
1.83963
1.002
1.84273
1.84257
1.11701
1.40001
1.04758
1.77566
1.84703
1.84074
1.83974
1.01289
1.84073
1.84363
1.01274
1.02398
1.40001
1.84028
1.84024
1.40001
1.40001
1.84185
1.40001
1.83903
1.40001
1.79142
1.40001
1.59392
1.84169
1.84368
1.70253
1.81357
1.83852
1.84246
1.81722
1.40001
1.03042
1.8417
1.84085
1.846
1.40002
1.40001
1.40001
1.84072
1.40001
1.84241
1.83992
1.1515
1.40001
1.8416
1.39994
1.40001
1.40004
1.40005
1.84074
1.84363
1.39854
1.40001
1.40001
1.84128
1.84351
1.84241
1.84388
1.84149
1.06128
1.77451
1.40001
1.83902
1.84043
1.8434
1.84226
1.40001
1.84131
1.83044
1.84259
1.40001
1.84148
1.844
1.26548
1.84148
1.84203
1.40001
1.84092
1.23722
1.8428
1.25437
1.84141
1.40001
1.84244
1.84726
1.84259
1.84215
1.84246
1.83737
1.84199
1.84194
1.40001
1.32639
1.84235
1.84147
1.22796
1.84271
1.37354
1.6708
1.84163
1.84013
1.84706
1.40001
1.84389
1.6972
1.84314
1.31468
1.84392
1.84767
1.40001
1.26008
1.40001
1.84356
1.40001
1.69909
1.40001
1.81534
1.25934
1.40001
1.8423
1.84081
1.40001
1.83906
1.84456
1.84656
1.82276
1.84463
1.40001
1.8388
1.40001
1.40001
1.40001
1.28653
1.84212
1.84224
1.84333
1.84039
1.83644
1.84302
1.83843
1.84237
1.28813
1.4295
1.40001
1.40001
1.84546
1.84031
1.84187
1.84128
1.40003
1.62573
1.40001
1.84933
1.78682
1.40001
1.40001
1.10886
1.84191
1.40001
1.40001
1.01928
1.84157
1.40001
1.84061
1.84299
1.83848
1.82568
1.84244
1.40001
1.05318
1.50408
1.84089
1.84265
1.40001
1.84214
1.84152
1.61066
1.41088
1.49441
1.40001
1.83989
1.84154
1.40001
1.40001
1.02365
1.40001
1.40001
1.84244
1.84004
1.8391
1.84202
1.8424
1.84366
1.84307
1.84389
1.84226
1.40001
1.39634
1.8422
1.84062
1.39683
1.84167
1.84199
1.05002
1.07196
1.84507
1.84459
1.40001
1.40001
1.40171
1.84138
1.83795
1.84179
1.40001
1.83994
1.40001
1.23365
1.84761
1.8291
1.40001
1.59674
1.84315
1.40001
1.84226
1.40001
1.84145
1.69204
1.84213
1.40001
1.84341
1.8477
1.02187
1.84243
1.40001
1.84309
1.8424
1.40001
1.05619
1.83925
1.76979
1.39794
1.8187
1.84195
1.40001
1.39082
1.84576
1.39858
1.84352
1.40001
1.40001
1.84202
1.40001
1.8433
1.84246
1.39656
1.75204
1.40001
1.84214
1.40001
1.40001
1.40001
1.40001
1.84128
1.40001
1.40001
1.83962
1.40001
1.84029
1.40001
1.68584
1.8414
1.84213
1.40001
1.40001
1.39618
1.40001
1.84205
1.84175
1.84309
1.84265
1.84164
1.84067
1.84122
1.40001
1.84039
1.84353
1.40001
1.8415
1.84011
1.40001
1.84096
1.31641
1.45684
1.84215
1.84209
1.84246
1.40001
1.8425
1.40001
1.84111
1.84322
1.40001
1.84359
1.40001
1.40001
1.40001
1.40001
1.84134
1.04449
1.39794
1.40001
1.8419
1.84871
1.40001
1.84168
1.40001
1.40538
1.05526
1.84202
1.39959
1.40001
1.84165
1.39837
1.84035
1.40001
1.39975
1.40001
1.84005
1.84572
1.84374
1.84479
1.04024
1.84101
1.84435
1.84115
1.50622
1.40001
1.40001
1.58397
1.84187
1.04508
1.03835
1.40001
1.84286
1.84204
1.84528
1.40001
1.40001
1.84403
1.84273
1.39988
1.40001
1.71251
1.00329
1.40001
1.47816
1.8391
1.84708
1.39827
1.84113
1.84258
1.40001
1.39929
1.40001
1.83954
1.83773
1.58716
1.40001
1.80796
1.40001
1.40246
1.84062
1.02311
1.84002
1.84179
1.39707
1.39992
1.79243
1.40001
1.39969
1.40001
1.84272
1.40001
1.40002
1.0274
1.84117
1.40001
1.40001
1.40001
1.40001
1.8413
1.64581
1.40001
1.40001
1.04572
1.84265
1.64246
1.40001
1.40001
1.40001
1.8221
1.8382
1.84014
1.40001
1.40001
1.84422
1.40001
1.84232
1.84228
1.40001
1.40001
1.84362
1.84113
1.8157
1.40001
1.40001
1.84391
1.8431
1.40001
1.40001
1.40001
1.8431
1.40001
1.40001
1.40001
1.84086
1.84201
1.84328
1.40001
1.84184
1.40004
1.07679
1.83988
1.84079
1.40001
1.84403
1.81619
1.83721
1.40001
1.40001
1.84502
1.40001
1.63016
1.84422
1.40001
1.04374
1.40001
1.84301
1.40001
1.40001
1.8408
1.40001
1.40001
1.40001
1.53922
1.84248
1.05117
1.40002
1.84195
1.40001
1.40001
1.84191
1.40001
1.84502
1.40001
1.40001
1.83997
1.841
1.40001
1.40006
1.40001
1.40001
1.40001
1.40001
1.40001
1.40001
1.84423
1.8413
1.40001
1.84127
1.03285
1.83789
1.40001
1.84171
1.84488
1.83943
1.84392
1.84043
1.40001
1.40001
1.84222
1.40001
1.67938
1.84648
1.8416
1.40001
1.84481
1.83887
1.40001
1.79228
1.40001
1.84171
1.67812
1.84515
1.39767
1.83339
1.80523
1.84357
1.84265
1.43565
1.84158
1.84394
1.40001
1.84173
1.40001
1.84171
1.40001
1.40001
1.40001
1.40001
1.39633
1.8413
1.84249
1.77523
1.40001
1.84582
1.40001
1.40001
1.40001
1.03924
1.40001
1.83111
1.40001
1.79993
1.82186
1.40001
1.40001
1.40001
1.83072
1.83712
1.40001
1.40001
1.84047
1.03898
1.48338
1.40001
1.84546
1.8415
1.80248
1.83139
1.84159
1.40001
1.84368
1.40001
1.40001
1.40001
1.40001
1.84265
1.8428
1.40001
1.83005
1.4509
1.84251
1.81271
1.40001
1.40001
1.81273
1.40001
1.40001
1.02251
1.7133
1.40001
1.40001
1.84631
1.40001
1.84467
1.80259
1.40001
1.80031
1.038
1.84051
1.84449
1.84252
1.40001
1.01233
1.40001
1.40001
1.40001
1.84371
1.76034
1.40001
1.83696
1.84235
1.40001
1.84212
1.40001
1.40001
1.40001
1.40001
1.8423
1.39928
1.40001
1.84353
1.40001
1.40001
1.83941
1.84161
1.40001
1.84848
1.49084
1.40002
1.40001
1.84484
1.40001
1.84428
1.40001
1.41296
1.84101
1.40001
1.84433
1.40001
1.40001
1.5405
1.84101
1.40001
1.40001
1.40001
1.40001
1.40001
1.39605
1.03516
1.05392
1.42011
1.40001
1.41917
1.40001
1.42399
1.40001
1.84101
1.40001
1.66616
1.40001
1.84275
1.40001
1.40001
1.40001
1.84328
1.40001
1.73906
1.84293
1.40001
1.63567
1.84193
1.40001
1.40001
1.83771
1.84181
1.40001
1.40001
1.44963
1.04548
1.40001
1.84365
1.40001
1.40001
1.40001
1.40001
1.47629
1.84274
1.40001
1.40001
1.40001
1.02862
1.40001
1.8411
1.83846
1.84197
1.40001
1.40001
1.40001
1.40001
1.62901
1.83935
1.40001
1.40001
1.40001
1.84038
1.84123
1.46038
1.40001
1.40001
1.40001
1.84131
1.84117
1.40001
1.05039
1.83909
1.84218
1.84372
1.83943
1.84097
1.40001
1.40001
1.84708
1.84567
1.84155
1.02826
1.43909
1.84349
1.40001
1.40001
1.40001
1.40001
1.40001
1.84237
1.03721
1.40001
1.40001
1.84171
1.58966
1.40001
1.85035
1.40001
1.40001
1.40001
1.01721
1.40001
1.40001
1.51183
1.83882
1.84153
1.40001
1.84858
1.84435
1.40001
1.48544
1.40001
1.84173
1.40001
1.84213
1.0415
1.40001
1.40001
1.40001
1.40001
1.84305
1.40007
1.40001
1.40001
1.40001
1.83235
1.40001
1.40001
1.40001
1.40001
1.84154
1.01693
1.74426
1.8447
1.40001
1.8425
1.40001
1.40001
1.40001
1.39722
1.40001
1.84324
1.40001
1.20876
1.40001
1.40001
1.40004
1.84215
1.04382
1.40001
1.84506
1.40001
1.8413
1.84153
1.03965
1.40001
1.40001
1.8352
1.40001
1.40001
1.03646
1.40001
1.84115
1.40001
1.82263
1.39922
1.84179
1.40001
1.40001
1.40001
1.40001
1.84032
1.40001
1.40001
1.84122
1.40001
1.40001
1.40001
1.40001
1.40001
1.40001
1.40001
1.40001
1.68662
1.40001
1.54646
1.84051
1.40001
1.40001
1.40001
1.02437
1.40001
1.40001
1.40001
1.40001
1.8456
1.84239
1.44497
1.40001
1.40001
1.8421
1.40001
1.40001
1.8422
1.40001
1.40002
1.40001
1.40001
1.40001
1.40002
1.8435
1.18495
1.84124
1.84342
1.39707
1.40001
1.40001
1.40001
1.67041
1.40001
1.40001
1.84098
1.84163
1.40001
1.40001
1.40001
1.40001
1.04754
1.40001
1.40001
1.40001
1.68189
1.40001
1.83917
1.84395
1.40001
1.84205
1.40001
1.40001
1.40001
1.63053
1.40001
1.83907
1.40001
1.84169
1.40001
1.40001
1.39594
1.84132
1.40001
1.40001
1.40001
1.40001
1.40001
1.84324
1.40003
1.40001
1.02274
1.84221
1.03357
1.40001
1.84235
1.40001
1.39545
1.40001
1.84231
1.84667
1.40001
1.83518
1.27634
1.84201
1.84175
1.40004
1.40001
1.40001
1.02836
1.40001
1.40001
1.40001
1.84263
1.65678
1.84234
1.40001
1.40001
1.40001
1.40001
1.39678
1.83919
1.40001
1.04907
1.40001
1.40001
1.40001
1.40001
1.40001
1.40001
1.40001
1.84942
1.83926
1.84675
1.40001
1.40001
1.39696
1.40001
1.38615
1.40001
1.40001
1.40001
1.03864
1.37679
1.40001
1.03149
1.02161
1.40001
1.84257
1.84185
1.40001
1.83914
1.84254
1.04264
1.69502
1.40001
1.40001
1.40001
1.05216
1.84156
1.40001
1.05053
1.40001
1.84688
1.46723
1.40001
1.40001
1.40001
1.40001
1.84094
1.8399
1.40001
1.40001
1.84219
1.40001
1.40001
1.83768
1.84227
1.40001
1.80251
1.84117
1.83963
1.35574
1.84301
1.40932
1.04281
1.73895
1.8425
1.40001
1.40001
1.40001
1.04162
1.40001
1.03511
1.84835
1.3627
1.84138
1.35365
1.40001
1.84173
1.58847
1.40001
1.40001
1.8428
1.40001
1.57272
1.8405
1.40001
1.40001
1.83807
1.84391
1.03762
1.67023
1.3999
1.40001
1.66912
1.40001
1.84023
1.32557
1.85173
1.84606
1.40001
1.40001
1.40001
1.40001
1.84179
1.40001
1.40001
1.8412
1.39965
1.84249
1.75168
1.83981
1.0365
1.40001
1.40001
1.40001
1.40001
1.84271
1.40005
1.84196
1.40001
1.84204
1.8412
1.45732
1.84492
1.54143
1.84171
1.40001
1.70637
1.07178
1.84826
1.84261
1.76988
1.46756
1.84055
1.84177
1.84427
1.8425
1.40001
1.30966
1.46795
1.40001
1.84286
1.60813
1.84165
1.40004
1.40001
1.40001
1.07778
1.84551
1.84117
1.75704
1.40001
1.56358
1.40001
1.83989
1.84138
1.40001
1.84327
1.84142
1.40001
1.40001
1.40001
1.84089
1.40001
1.57361
1.84425
1.70687
1.40001
1.84115
1.40001
1.40001
1.40001
1.40001
1.40001
1.40001
1.40001
1.40001
1.40001
1.40001
1.05672
1.40001
1.80692
1.0522
1.67289
1.39856
1.84668
1.40001
1.63557
1.40002
1.69312
1.7734
1.40001
1.40201
1.84926
1.30184
1.40001
1.83901
1.82303
1.3278
1.40001
1.84329
1.84125
1.84354
1.40001
1.84116
1.84428
1.83947
1.40001
1.59791
1.40001
1.40007
1.8421
1.40001
1.84174
1.46861
1.84344
1.40001
1.40001
1.83864
1.83835
1.0809
1.40001
1.84284
1.73149
1.84122
1.40001
1.40001
1.84087
1.84068
1.3983
1.40001
1.79031
1.39687
1.84236
1.40005
1.40001
1.40001
1.40001
1.40001
1.5969
1.40001
1.74136
1.83967
1.72948
1.84311
1.40001
1.40312
1.40001
1.40001
1.83875
1.40001
1.8389
1.40001
1.40001
1.40001
1.40001
1.4
1.40001
1.45681
1.62848
1.40001
1.40001
1.02346
1.40001
1.84563
1.05528
1.84873
1.40001
1.62109
1.39975
1.84184
1.674
1.04168
1.64062
1.40004
1.84217
1.84427
1.40001
1.66839
1.84725
1.84296
1.39838
1.84833
1.82976
1.04414
1.40001
1.40001
1.39758
1.40001
1.83455
1.40001
1.04296
1.84302
1.40001
1.40001
1.79296
1.40001
1.83928
1.40001
1.84162
1.40001
1.08665
1.40001
1.40001
1.84391
1.85007
1.84679
1.40001
1.84225
1.8414
1.83707
1.40001
1.40001
1.82528
1.4
1.13841
1.40001
1.40001
1.40001
1.84216
1.40001
1.84158
1.68284
1.84032
1.40001
1.84149
1.3994
1.40001
1.40001
1.40001
1.40001
1.40001
1.40001
1.11442
1.40001
1.40001
1.84111
1.40001
1.84288
1.84584
1.40001
1.04233
1.03933
1.40001
1.8421
1.47724
1.0387
1.00605
1.40001
1.84413
1.40001
1.84681
1.02396
1.40141
1.40001
1.40001
1.3995
1.40001
1.40001
1.40001
1.39992
1.56717
1.84103
1.40001
1.40001
1.84249
1.66082
1.40001
1.79692
1.84339
1.84021
1.58378
1.84345
1.40001
1.84278
1.40001
1.82558
1.40001
1.84125
1.84466
1.39663
1.84018
1.84229
1.40001
1.40001
1.40001
1.40001
1.40001
1.31124
1.8407
1.40005
1.40003
1.02106
1.39999
1.03209
1.04436
1.40001
1.84276
1.84168
1.84208
1.40001
1.84344
1.40001
1.03949
1.40001
1.40001
1.84368
1.22272
1.84454
1.40001
1.84299
1.40001
1.3745
1.84132
1.40001
1.40001
1.40001
1.8444
1.40001
1.84184
1.0348
1.40001
1.40001
1.65608
1.40001
1.40001
1.64838
1.40001
1.40001
1.84066
1.40001
1.40001
1.40001
1.40001
1.40001
1.84875
1.8411
1.40001
1.84161
1.84264
1.02879
1.59188
1.8412
1.40001
1.40001
1.79883
1.39904
1.40001
1.40001
1.84191
1.83962
1.68718
1.40001
1.84207
1.03117
1.81137
1.39948
1.40001
1.84454
1.40004
1.84102
1.76517
1.7374
1.40001
1.40001
1.84276
1.08174
1.04063
1.40001
1.84136
1.40001
1.84391
1.40001
1.65022
1.40001
1.40001
1.84141
1.68133
1.05203
1.40001
1.39831
1.40001
1.40001
1.42697
1.58168
1.84285
1.40001
1.84548
1.40001
1.40001
1.40001
1.40001
1.40001
1.40001
1.46626
1.0375
1.40001
1.40001
1.42887
1.40001
1.40001
1.40001
1.40001
1.40001
1.84061
1.40001
1.40001
1.84213
1.83945
1.73108
1.40001
1.40001
1.40001
1.23175
1.84739
1.70893
1.40001
1.40001
1.40001
1.40001
1.84076
1.40001
1.40001
1.40001
1.84845
1.40001
1.40001
1.71581
1.85337
1.4339
1.1594
1.84651
1.71121
1.83866
1.40001
1.61918
1.40001
1.40001
1.40001
1.03778
1.40264
1.02436
1.40001
1.0319
1.00594
1.40001
1.03153
1.40001
1.40001
1.40001
1.58602
1.40001
1.84117
1.84021
1.40161
1.61485
1.78308
1.04682
1.15695
1.2788
1.40001
1.84192
1.83988
1.84181
1.84009
1.77845
1.28065
1.40001
1.77906
1.40001
1.82753
1.40001
1.40001
1.39635
1.41014
1.40001
1.40001
1.40001
1.84104
1.40001
1.02367
1.40001
1.8427
1.02319
1.40001
1.40001
1.83976
1.40001
1.84208
1.3999
1.40001
1.40001
1.84157
1.80367
1.40001
1.85714
1.40001
1.40001
1.41568
1.40001
1.59058
1.40001
1.40001
1.02848
1.40001
1.40001
1.84426
1.4
1.83988
1.40001
1.40004
1.03382
1.40001
1.40001
1.02417
1.40083
1.40001
1.83993
1.02353
1.84754
1.02822
1.8427
1.40001
1.40001
1.40001
1.40001
1.40001
1.40001
1.40001
1.40001
1.40001
1.40001
1.40001
1.82336
1.40001
1.84282
1.83966
1.03153
1.40001
1.40001
1.40001
1.40001
1.40001
1.40001
1.83015
1.40001
1.40001
1.03957
1.40001
1.40001
1.83974
1.40001
1.40001
1.56542
1.77363
1.02314
1.01354
1.07639
1.13743
1.40001
1.39637
1.02337
1.40027
1.798
1.39699
1.40001
1.40001
1.84315
1.40001
1.40001
1.40001
1.16136
1.40002
1.56311
1.40001
1.40001
1.57723
1.84308
1.40001
1.04342
1.40001
1.40001
1.40001
1.39664
1.40001
1.83868
1.83888
1.40001
1.04387
1.40001
1.64599
1.03462
1.40001
1.29211
1.40001
1.39626
0.999982
1.40001
1.40001
1.40001
1.39561
1.05114
1.40001
1.036
1.39845
1.637
1.80333
1.0132
1.02094
1.40001
1.39068
1.40001
1.3987
1.40001
1.84294
1.84123
1.40001
1.42065
1.84121
1.8418
1.40001
1.40001
1.84005
1.40001
1.40001
1.40005
1.40001
1.83967
1.40001
1.40001
1.41811
1.40001
1.39859
1.0797
1.40001
1.40001
1.40001
1.40001
1.40001
1.84774
1.42273
1.40006
1.40001
1.40001
1.40001
1.40001
1.40001
1.40004
1.40001
1.03133
1.49439
1.39861
1.82133
1.83013
1.40001
1.41501
1.84088
1.78796
1.40001
1.40001
1.02522
1.8421
1.40001
1.83997
1.40001
1.8437
1.70431
1.03122
1.40001
1.03632
1.80367
1.39968
1.40001
1.03653
1.04899
1.40001
1.40001
1.77276
1.40001
1.4
1.01847
1.40001
1.40001
1.40001
1.54411
1.40001
1.02875
1.84171
1.40001
1.40001
1.40001
1.40001
1.84237
1.40001
1.40001
1.84408
1.79641
1.40001
1.40001
1.40001
1.84032
1.01545
1.40001
1.84276
1.84149
1.40001
1.75229
1.4
1.40003
1.40001
1.40001
1.81116
1.42035
1.40001
1.03026
1.63822
1.40001
1.40001
1.39708
1.40001
1.40001
1.8447
1.40001
1.40001
1.40004
1.40001
1.84157
1.40001
1.40001
1.40001
1.40001
1.40001
1.40001
1.40002
1.59368
1.40001
1.83978
1.40001
1.40001
1.84212
1.40001
1.40001
1.40001
1.84185
1.84326
1.44785
1.40001
1.39758
1.40001
1.40001
1.40001
1.40001
1.83885
1.40001
1.40001
1.84189
1.03928
1.40001
1.40001
1.40001
1.40001
1.40001
1.40001
1.75926
1.40001
1.40001
1.84566
1.84145
1.40001
1.40001
1.40001
1.84235
1.84428
1.40001
1.39967
1.84159
1.40001
1.40001
1.40001
1.40002
1.0253
1.42931
1.39619
1.39612
1.40001
1.40001
1.02868
1.84058
1.40001
1.01692
1.40001
1.8403
1.82445
1.02065
1.39941
1.84237
1.84205
1.8411
1.40001
1.40001
1.3115
1.79184
1.76906
1.04109
1.40001
1.40001
1.40001
1.83896
1.84272
1.0333
1.39736
1.40001
1.84247
1.01718
1.40001
1.84152
1.03651
1.36638
1.40611
1.40001
1.84809
1.40001
1.40001
1.40001
1.40001
1.40001
1.40001
1.40011
1.81166
1.40001
1.40001
1.84197
1.40001
1.40001
1.40001
1.83984
1.40001
1.03109
1.40001
1.40001
1.40001
1.55425
1.40001
1.40001
1.40001
1.40001
1.40001
1.18533
1.40001
1.02047
1.40001
1.84399
1.40007
1.25894
1.27383
1.40002
1.40388
1.63589
1.40001
1.40001
1.03732
1.83882
1.84325
1.84327
1.40001
1.03235
1.0103
1.40001
1.83962
1.40001
1.40001
1.40001
1.40001
1.40001
1.40004
1.40001
1.03146
1.67895
1.40001
1.40001
1.02197
1.38695
1.40001
1.40001
1.40001
1.40001
1.00099
1.40001
1.06539
1.40001
1.40001
1.84306
1.40001
1.40001
1.04767
1.40001
1.84271
1.40001
1.0512
1.40001
1.03334
1.40001
1.40768
1.84003
1.85533
1.40001
1.40001
1.8408
1.40001
1.40001
1.48866
1.39686
1.40001
1.39813
1.40001
1.84486
1.40001
1.03775
1.40002
1.83539
1.39871
1.40001
1.40001
1.19331
1.40001
1.39904
1.03924
1.84354
1.5513
1.40001
1.40001
1.30745
1.40001
1.40001
1.40001
1.19473
1.40001
1.40001
1.40001
1.84196
1.40001
1.03401
1.4
1.40001
1.40001
1.40001
1.025
1.84143
1.8204
1.04301
1.40001
1.84047
1.40001
1.40001
1.84159
1.84139
1.77337
1.02777
1.39775
1.39924
1.40001
1.84179
1.40001
1.40001
1.40001
1.40001
1.84038
1.40004
1.40001
1.40001
1.83955
1.40001
1.40001
1.84109
1.05769
1.40001
1.40001
1.40001
1.03418
1.40001
1.4
1.4
1.39867
1.40001
1.40001
1.40001
1.40001
1.76046
1.40001
1.83944
1.84139
1.85062
1.84157
1.84233
1.84424
1.40001
1.83994
1.40001
1.84234
1.8426
1.40001
1.39897
1.05612
1.7794
1.39991
1.40001
1.40001
1.40001
1.40001
1.40139
1.40001
1.47095
1.40001
1.40001
1.40001
1.23607
1.84214
1.84223
1.83967
1.78163
1.39988
1.40001
1.42336
1.84319
1.3979
1.45232
1.39712
1.02921
1.40001
1.40003
1.40001
1.40001
1.40001
1.40001
1.40001
1.84055
1.03336
1.84018
1.84228
1.39514
1.00384
1.40001
1.40001
1.40001
1.83954
0.991719
1.79266
1.02616
1.84213
1.83888
1.03177
1.84394
1.42421
1.40001
1.84459
1.21168
1.40001
1.39874
1.04127
1.40001
1.02255
1.40001
1.84533
1.84231
1.12566
1.40001
1.83997
1.02949
1.40001
1.04267
1.40001
1.84161
1.40001
1.40001
1.83075
1.40001
1.24814
1.40001
1.39971
1.02234
1.83692
1.39949
1.40001
1.0047
1.40001
1.40001
1.40001
1.40001
1.64166
1.40001
1.84299
1.40001
1.40001
1.85485
1.40001
1.40001
1.84281
1.40001
1.02497
1.40001
1.01933
1.40002
1.40001
1.40001
1.40001
1.40001
1.82482
1.66091
1.84124
1.40001
1.84126
1.81131
1.0024
1.0426
1.40001
1.40001
1.84572
1.40001
1.02618
1.40001
1.38457
1.40001
1.40001
1.84153
1.40001
1.84043
1.04275
1.8507
1.40001
1.05183
1.40001
1.40001
1.84192
1.84087
1.40001
1.40004
1.40001
1.84237
1.40001
1.40001
1.04984
1.39942
1.02134
1.40001
1.40001
1.40001
1.84384
1.84071
1.8402
1.40001
1.40001
1.02291
1.40001
1.84118
1.40001
1.40001
1.40001
1.82125
1.84194
1.84175
0.993862
1.84439
1.84123
1.0612
1.84058
1.40005
1.04856
1.41344
1.40001
1.40001
1.83902
0.983554
1.68622
0.991073
1.84108
1.39745
1.039
1.84337
1.40001
1.40001
1.40001
1.40001
1.84064
1.84101
1.02834
1.40001
1.40003
1.0396
1.40004
1.40001
1.03217
1.03463
1.70791
1.84244
1.39847
1.84201
1.40001
1.84458
1.21215
1.03949
1.84153
1.84607
1.40001
1.84229
1.40001
1.40001
1.84126
1.40001
1.73106
1.84014
1.40001
1.40001
1.40001
1.40001
1.84103
1.83715
1.84537
1.40001
1.40001
1.84334
1.83793
1.84058
1.40001
1.84094
1.40001
1.40001
1.40001
1.40001
1.40001
1.02567
1.25399
1.0409
1.40001
1.40001
1.84185
1.40001
1.40001
1.83951
1.04446
1.40001
1.84143
1.83713
1.82036
1.02278
1.40001
1.00607
1.40001
1.40003
1.84085
1.61482
1.84024
1.80692
1.40001
1.05939
1.40001
1.84118
1.71705
1.03537
1.40001
1.40001
1.40001
1.19524
1.40001
1.40001
1.84541
1.40001
1.02169
1.84127
1.40001
1.40001
1.40001
1.40001
1.40001
1.7587
1.50183
1.40001
1.84197
1.40001
1.83929
1.40001
1.39715
1.40001
1.8411
1.84041
1.84227
1.84631
1.39964
1.83996
1.40001
1.84169
1.84155
1.77464
1.40001
1.40001
1.03742
1.83953
1.40001
1.40001
1.8476
1.8432
1.83962
1.40001
1.84192
1.40001
1.40001
1.40003
1.83916
1.8435
1.53188
1.49372
1.84267
1.84075
1.08127
1.40001
1.40001
1.40001
1.40001
1.40002
1.56071
1.40001
1.40001
1.76857
1.02354
1.39998
1.40001
1.84262
1.3999
1.39984
1.46599
1.79742
1.83887
1.31418
1.40001
1.01564
1.40001
1.40143
1.84099
1.84347
1.84049
1.39897
1.40001
1.40001
1.03544
1.40001
1.40001
1.84096
1.44899
1.40001
1.40001
1.40001
1.40001
1.40001
1.40001
1.40001
1.39994
1.84217
1.40002
1.40001
1.40001
1.40001
1.40001
1.67337
1.40001
1.61441
1.40001
1.40001
1.84113
1.84584
1.02941
1.39876
1.40001
1.4
1.40001
1.03203
1.83943
1.84186
1.40001
1.40001
1.40001
1.40001
1.40001
1.40001
1.40001
1.40001
1.84071
1.8421
1.04206
1.45045
1.03263
1.40001
1.01968
1.40001
1.84222
1.52014
1.40001
1.40001
1.0989
1.40001
1.82136
1.18812
1.39702
1.03552
1.40001
1.40001
1.84165
1.40005
1.39743
1.02107
1.83835
1.84684
1.40001
1.40001
1.40001
1.40001
1.81275
1.40001
1.40001
1.84166
1.39892
1.84064
1.40011
1.40001
1.40001
1.0413
1.40001
1.40001
1.84326
1.0398
1.1676
1.02634
1.84099
1.39931
1.40001
1.84128
1.01202
1.05074
1.41009
1.40001
1.40001
1.83906
1.40004
1.59239
1.40001
1.40001
1.83945
1.03654
1.40001
1.40001
1.40014
1.84033
1.40012
1.83615
1.40001
1.40004
1.40001
1.40001
1.11514
1.40001
1.18331
1.40001
1.40001
1.84363
1.04141
1.40001
1.16729
1.1835
1.40001
1.40001
1.84194
1.40001
1.40001
1.40001
1.84155
1.84212
1.40006
1.83605
1.83912
1.16987
1.84191
1.81625
1.40001
1.40001
1.83357
1.4
1.40001
1.40001
1.40001
1.40001
1.84137
1.84396
1.40001
1.40001
1.40001
1.84105
1.40021
1.40001
1.03628