/*--------------------------------*- C++ -*----------------------------------*\
  =========                 |
  \\      /  F ield         | OpenFOAM: The Open Source CFD Toolbox
   \\    /   O peration     | Website:  https://openfoam.org
    \\  /    A nd           | Version:  12
     \\/     M anipulation  |
\*---------------------------------------------------------------------------*/
FoamFile
{
    format      ascii;
    class       surfaceScalarField;
    location    "27.5";
    object      phi;
}
// * * * * * * * * * * * * * * * * * * * * * * * * * * * * * * * * * * * * * //

dimensions      [1 0 -1 0 0 0 0];

internalField   nonuniform List<scalar> 
19404
(
-0.000157193
2.23419e-06
-0.000142804
1.07033e-06
-0.00013972
-5.19302e-08
-0.000139617
-1.96183e-06
-0.000140014
-3.03334e-06
-0.000140499
-2.50648e-06
-0.000140746
-1.29957e-06
-0.000140797
-6.2748e-07
-0.000140968
-5.42551e-08
-0.000145275
8.72917e-07
-0.000157795
2.35601e-06
-0.000166135
1.85411e-06
-0.000169072
1.25274e-06
-0.000169939
7.55088e-07
-0.000169818
3.17497e-07
-0.000167348
-2.12493e-07
-0.000156847
-7.12625e-07
-0.000148991
-4.56584e-07
-0.000145668
3.01107e-07
-0.000144434
7.95769e-07
-0.000143975
1.23282e-06
-0.000143796
1.51796e-06
-0.000143922
1.77579e-06
-0.000145358
1.99353e-06
-0.000149847
1.1629e-06
-0.000157097
3.03397e-07
-0.000162913
-6.94657e-07
-0.000165715
-9.6343e-07
-0.000166828
-7.64922e-07
-0.000167193
-6.51035e-07
-0.000167052
-6.50503e-07
-0.000164213
-1.90127e-08
-0.000158388
6.98204e-07
-0.000155537
1.32272e-06
-0.000154363
1.70244e-06
-0.000153206
2.06021e-06
-0.000151872
2.24626e-06
-0.000151807
1.7194e-06
-0.000151929
1.01975e-06
-0.000152972
1.27624e-07
-0.000154903
-9.86956e-07
-0.000157407
-1.6781e-06
-0.000160786
-1.87276e-06
-0.000165241
-1.10601e-06
-0.000168941
-3.46174e-07
-0.000170569
2.49591e-07
-0.000170943
9.11095e-07
-0.00017078
1.74115e-06
-0.000169648
2.45842e-06
-0.000167196
2.8571e-06
-0.000163637
1.87043e-06
-0.000158534
1.21415e-06
-0.000154554
1.17419e-06
-0.000153633
1.07095e-06
-0.000153669
7.03602e-07
-0.000153849
2.73634e-07
-0.000154779
-2.9858e-07
-0.00015765
-1.0592e-06
-0.000166328
-1.4093e-06
-0.000176513
-1.2061e-06
-0.000180479
-7.53256e-07
-0.000181194
-4.37865e-07
-0.000181342
-1.2743e-07
-0.000180953
3.05978e-07
-0.000177506
8.16773e-07
-0.000167735
1.14782e-06
-0.000157147
9.38579e-07
-0.00015228
1.67355e-07
-0.00015147
-6.79343e-07
-0.000151542
-1.54889e-06
-0.000152033
-2.31658e-06
-0.000157961
-2.99449e-06
-0.000172882
-3.40117e-06
-0.000181043
-2.97215e-06
-0.000182742
-2.39623e-06
-0.000182969
-1.8575e-06
-0.00018271
-1.08865e-06
-0.000180611
-4.1546e-07
-0.000170612
-3.85032e-08
-0.000157199
2.51874e-07
-0.000151084
9.64666e-08
-0.000149962
-3.10682e-07
-0.000149977
-5.5973e-07
-0.000151997
-8.09138e-07
-0.000163482
-3.81629e-07
-0.000176132
1.3901e-07
-0.000181856
1.18881e-06
-0.000183997
2.27893e-06
-0.00018481
2.73729e-06
-0.000184766
2.49367e-06
-0.000177068
2.38475e-06
-0.00015911
2.1174e-06
-0.000143798
3.42608e-07
-0.000134595
-1.88655e-06
-0.000134634
-2.43158e-06
-0.00014707
-5.94639e-06
-0.000150604
-1.89553e-05
-7.76847e-05
-6.16548e-05
5.54171e-05
-0.000164015
3.34986e-06
-0.000151238
2.06565e-06
-0.000145031
-8.78558e-07
-0.000142339
-3.11736e-06
-0.000140147
-3.48413e-06
-0.000138298
-2.34193e-06
-0.000137272
-1.04939e-06
-0.000136968
5.67316e-09
-0.000137132
7.9631e-07
-0.000142768
1.08013e-06
-0.000159349
1.99957e-06
-0.000169124
1.11645e-06
-0.000171718
5.91101e-07
-0.000172225
2.99999e-07
-0.000172091
-7.48775e-08
-0.00016953
-1.73867e-08
-0.000158088
-1.56366e-07
-0.00014836
1.15732e-06
-0.000143991
2.57897e-06
-0.000142445
2.85671e-06
-0.000141996
2.91202e-06
-0.000141955
2.8946e-06
-0.000142557
2.42238e-06
-0.000145709
1.88734e-06
-0.000152899
3.73442e-07
-0.000160493
-1.83268e-06
-0.000164955
-2.21884e-06
-0.000166847
-1.93185e-06
-0.000167358
-1.70919e-06
-0.000167375
-1.43647e-06
-0.00016664
-7.26003e-07
-0.000162729
1.11802e-06
-0.000158224
2.75706e-06
-0.000155135
3.62611e-06
-0.000152971
3.80479e-06
-0.000152511
3.65627e-06
-0.000152567
3.15663e-06
-0.000153223
2.17283e-06
-0.000154835
5.58589e-07
-0.000156627
-1.02143e-06
-0.000157903
-2.02304e-06
-0.000159038
-2.65699e-06
-0.000160772
-2.54875e-06
-0.00016381
-2.23814e-06
-0.000166643
-1.10743e-06
-0.000168052
5.11486e-07
-0.000168535
1.87665e-06
-0.000168555
2.76752e-06
-0.000168447
3.33138e-06
-0.000168373
3.66529e-06
-0.000166269
3.30301e-06
-0.000159833
2.72907e-06
-0.000155126
2.41697e-06
-0.000154159
1.89029e-06
-0.000154198
1.02836e-06
-0.000154547
-5.26804e-08
-0.000155505
-1.16618e-06
-0.000157948
-2.12692e-06
-0.000165253
-2.74944e-06
-0.000173938
-2.58336e-06
-0.000177441
-1.34201e-06
-0.000178235
-5.05842e-08
-0.000178135
1.16422e-06
-0.000177452
2.21799e-06
-0.000175287
2.76644e-06
-0.000167753
2.72992e-06
-0.00015802
1.8177e-06
-0.000153459
5.03147e-07
-0.000152578
-9.96418e-07
-0.000152533
-2.47779e-06
-0.000153011
-3.76505e-06
-0.000158176
-4.83702e-06
-0.000171414
-5.63315e-06
-0.000179359
-5.23665e-06
-0.000181582
-3.93422e-06
-0.000182116
-2.66433e-06
-0.000181976
-1.46548e-06
-0.000180448
-4.95114e-07
-0.000171964
2.04065e-07
-0.000159412
6.41025e-07
-0.000152612
-1.98041e-07
-0.000150816
-6.51626e-07
-0.000150805
-1.13282e-06
-0.000151465
-1.51951e-06
-0.000158601
-1.64192e-06
-0.000170949
-2.39418e-07
-0.000178363
1.78841e-06
-0.000181215
2.80976e-06
-0.000182029
3.27921e-06
-0.000181832
3.32539e-06
-0.000174077
3.16153e-06
-0.000157584
2.12602e-06
-0.000142677
-1.2895e-06
-0.00013063
-5.43585e-06
-0.000125118
-8.05686e-06
-0.000126954
-1.12674e-05
-0.000132876
-3.54245e-05
-0.000120525
-7.0066e-05
6.24777e-05
-0.000168214
3.26522e-06
-0.000161492
2.38129e-06
-0.000150669
1.22458e-06
-0.000142293
-1.64758e-06
-0.000135731
-9.55911e-07
-0.000132673
1.78761e-07
-0.000131964
3.51221e-07
-0.000131957
5.25686e-07
-0.000132852
1.01818e-07
-0.000141611
8.44516e-08
-0.000161952
-2.39557e-06
-0.000171277
-1.48214e-06
-0.000172712
-6.85033e-07
-0.000172618
-3.85402e-07
-0.000172362
-1.69905e-07
-0.000168264
1.32921e-06
-0.000154019
4.14653e-06
-0.000143104
5.44694e-06
-0.000139924
4.85945e-06
-0.000139679
4.19166e-06
-0.000139724
3.61487e-06
-0.000140341
2.67201e-06
-0.000142323
1.91179e-06
-0.000148838
-7.69902e-07
-0.000157101
-3.36743e-06
-0.000162014
-3.62962e-06
-0.000164789
-3.25004e-06
-0.000165897
-3.12268e-06
-0.000166006
-2.65111e-06
-0.000164845
-1.16685e-06
-0.000160625
1.45599e-06
-0.000156695
3.46246e-06
-0.000154012
4.55014e-06
-0.000152127
4.77168e-06
-0.000151712
4.49308e-06
-0.000151782
3.69701e-06
-0.000152809
2.70677e-06
-0.000155517
7.092e-07
-0.000157709
-7.86345e-07
-0.000158666
-1.77178e-06
-0.000159012
-2.40971e-06
-0.000159114
-3.00302e-06
-0.000159145
-3.39922e-06
-0.000159436
-2.86452e-06
-0.000160765
-1.80604e-06
-0.000163501
7.56597e-08
-0.00016537
1.98228e-06
-0.000166111
3.08311e-06
-0.000166369
3.67405e-06
-0.000166341
4.18148e-06
-0.000164735
4.69443e-06
-0.000158884
4.74898e-06
-0.000155127
3.99308e-06
-0.000154191
2.08535e-06
-0.000154105
4.98902e-07
-0.00015466
-1.30582e-06
-0.000155404
-2.50601e-06
-0.000156624
-3.36162e-06
-0.000160443
-3.90565e-06
-0.000166217
-2.99349e-06
-0.000169661
-8.36868e-07
-0.000170934
1.16388e-06
-0.000171157
2.69508e-06
-0.000171
3.59369e-06
-0.000170581
3.97827e-06
-0.000166245
3.88604e-06
-0.000158083
2.54963e-06
-0.00015339
4.62905e-07
-0.000151967
-1.54989e-06
-0.000151724
-3.33646e-06
-0.000152049
-4.72974e-06
-0.000155506
-5.90291e-06
-0.000165683
-6.49543e-06
-0.0001732
-5.62352e-06
-0.000176134
-3.90711e-06
-0.000177063
-2.24644e-06
-0.00017715
-9.50532e-07
-0.000176228
-6.68475e-08
-0.000170298
7.45895e-07
-0.0001598
1.01088e-06
-0.000152109
1.30578e-07
-0.000148695
-1.05347e-06
-0.000147916
-1.89793e-06
-0.000147947
-2.23402e-06
-0.00015109
-2.46619e-06
-0.000163396
-1.48466e-06
-0.000172482
7.92375e-07
-0.00017541
2.35501e-06
-0.000176117
3.21266e-06
-0.000175703
3.38779e-06
-0.000168591
3.21988e-06
-0.000154946
1.33299e-06
-0.000141288
-2.9628e-06
-0.000130264
-7.99094e-06
-0.000122882
-1.13589e-05
-0.000119689
-1.67173e-05
-0.00012783
-4.03989e-05
-0.000131581
-7.29273e-05
6.07928e-05
-0.00016776
2.44798e-06
-0.000166137
2.86818e-06
-0.000155185
3.43831e-06
-0.000138139
3.99631e-06
-0.000130097
3.6593e-06
-0.000128925
2.43924e-06
-0.000128863
1.72992e-06
-0.000129445
6.13999e-07
-0.000133234
-5.67449e-07
-0.000145373
-3.73395e-06
-0.000160992
-6.30381e-06
-0.000169395
-4.7385e-06
-0.000171179
-2.90897e-06
-0.000171116
-1.29648e-06
-0.000167484
1.51613e-06
-0.000159044
5.30761e-06
-0.000149828
7.66865e-06
-0.000142615
8.44046e-06
-0.00013985
6.52668e-06
-0.000139461
4.9068e-06
-0.000139557
3.64019e-06
-0.000141192
2.05106e-06
-0.00014697
-1.29459e-06
-0.000153491
-4.18457e-06
-0.000157883
-5.08204e-06
-0.000161022
-4.90235e-06
-0.000162031
-4.74815e-06
-0.000162102
-3.63969e-06
-0.000160204
-1.20429e-06
-0.000155957
1.48857e-06
-0.000152659
3.36688e-06
-0.000151358
4.52706e-06
-0.000151125
5.13083e-06
-0.000151085
5.20814e-06
-0.000151168
4.6419e-06
-0.000152026
3.33846e-06
-0.000154661
1.46381e-06
-0.000157035
-3.15974e-07
-0.000158113
-1.11743e-06
-0.000158524
-2.08192e-06
-0.000158529
-2.9238e-06
-0.000157697
-3.26257e-06
-0.000155275
-3.2694e-06
-0.000154167
-2.8393e-06
-0.000154256
-2.21096e-06
-0.000157353
-1.08833e-06
-0.000160721
1.30058e-06
-0.000161713
3.27167e-06
-0.000161837
4.44891e-06
-0.000161438
5.24283e-06
-0.000160422
5.75814e-06
-0.000158145
5.65176e-06
-0.000155642
4.22819e-06
-0.000154613
1.62154e-06
-0.000154491
-7.74472e-07
-0.000154507
-2.32087e-06
-0.00015426
-3.65553e-06
-0.000154116
-4.27765e-06
-0.000153975
-3.86781e-06
-0.00015578
-2.76176e-06
-0.00015981
-3.88043e-07
-0.000162245
2.05722e-06
-0.00016348
3.57335e-06
-0.000164083
4.23094e-06
-0.000164148
4.42298e-06
-0.000163014
4.25156e-06
-0.000157378
3.07895e-06
-0.000152428
7.10212e-07
-0.000150321
-1.69747e-06
-0.000149664
-3.57441e-06
-0.000149678
-4.79304e-06
-0.000150702
-5.65214e-06
-0.000157287
-5.86478e-06
-0.000164779
-4.86081e-06
-0.000168304
-2.96316e-06
-0.000169592
-1.25776e-06
-0.000169876
8.62319e-09
-0.000169245
7.67782e-07
-0.000165556
1.35846e-06
-0.000157897
1.51399e-06
-0.000149708
5.37576e-07
-0.000144606
-1.31808e-06
-0.000142869
-2.81667e-06
-0.00014276
-3.52698e-06
-0.000143522
-3.89054e-06
-0.000151338
-4.07088e-06
-0.000160715
-2.50173e-06
-0.000164524
-2.83254e-07
-0.000165485
1.13323e-06
-0.000165366
1.56318e-06
-0.000159777
1.46551e-06
-0.000148977
-5.07331e-07
-0.000136844
-5.14489e-06
-0.000125749
-9.67014e-06
-0.000118292
-1.32061e-05
-0.000117238
-1.80287e-05
-0.00012483
-4.05299e-05
-0.000136734
-7.44683e-05
5.45794e-05
-0.000162761
2.61088e-06
-0.000160856
4.64801e-06
-0.000149471
7.07656e-06
-0.000136106
8.01892e-06
-0.000130325
6.36698e-06
-0.000129168
4.39278e-06
-0.000129098
3.00131e-06
-0.000132004
7.49817e-07
-0.000141593
-3.73877e-06
-0.000149331
-6.74789e-06
-0.000155438
-7.8546e-06
-0.000160737
-7.66524e-06
-0.000162181
-5.30085e-06
-0.000160413
-4.87003e-07
-0.00015433
4.05742e-06
-0.000150298
7.03769e-06
-0.000148196
8.90262e-06
-0.000144966
9.36629e-06
-0.000141607
8.54989e-06
-0.000140892
5.73189e-06
-0.000141761
2.89724e-06
-0.000147356
-7.43371e-07
-0.000152664
-4.06839e-06
-0.000154804
-5.0972e-06
-0.000156139
-5.49857e-06
-0.000156343
-5.64612e-06
-0.000155941
-4.25005e-06
-0.000153079
-1.67844e-06
-0.000149698
4.42916e-07
-0.000147771
1.99278e-06
-0.000147192
3.19665e-06
-0.000147233
3.95447e-06
-0.000147922
4.33724e-06
-0.000149282
4.52602e-06
-0.000151214
4.21078e-06
-0.000153327
2.91745e-06
-0.00015526
1.44372e-06
-0.000156639
-2.68701e-07
-0.00015719
-1.14321e-06
-0.00015719
-1.82656e-06
-0.000156581
-2.41628e-06
-0.000153784
-2.88241e-06
-0.000150719
-3.17418e-06
-0.000149051
-2.95177e-06
-0.000148406
-2.24048e-06
-0.000148804
-1.25684e-06
-0.000152397
5.63988e-07
-0.000154908
3.34178e-06
-0.000155625
5.12446e-06
-0.000155775
5.9535e-06
-0.000155942
5.91218e-06
-0.000156549
4.8408e-06
-0.000156687
3.56184e-06
-0.000155364
9.14997e-07
-0.00015375
-1.4992e-06
-0.000152923
-3.45025e-06
-0.000151647
-4.32686e-06
-0.000148652
-4.15537e-06
-0.000146497
-2.94116e-06
-0.000146402
-1.72218e-06
-0.000149731
-4.78162e-07
-0.000154269
1.83981e-06
-0.000156445
3.60111e-06
-0.000157647
4.33576e-06
-0.000158346
4.33485e-06
-0.000158374
3.63712e-06
-0.000156746
3.0546e-06
-0.000152038
1.20229e-06
-0.00014852
-1.54129e-06
-0.000146881
-2.88421e-06
-0.000146351
-3.94879e-06
-0.000146433
-4.43869e-06
-0.000148899
-4.60168e-06
-0.000155697
-3.6281e-06
-0.000159715
-1.61969e-06
-0.000161078
3.18065e-07
-0.000161519
1.60155e-06
-0.000161513
2.18733e-06
-0.000159688
2.46207e-06
-0.000154392
2.3084e-06
-0.000147539
9.71641e-07
-0.000141797
-1.92141e-06
-0.000139087
-4.18502e-06
-0.000138751
-5.67715e-06
-0.000138896
-6.77662e-06
-0.00014234
-7.54454e-06
-0.0001509
-7.0467e-06
-0.0001561
-4.85028e-06
-0.000157429
-2.96818e-06
-0.000157651
-2.09229e-06
-0.000153968
-1.78917e-06
-0.000145961
-2.79087e-06
-0.000136887
-6.30478e-06
-0.000126551
-1.07164e-05
-0.00011739
-1.45235e-05
-0.000114491
-1.76452e-05
-0.000122232
-3.97205e-05
-0.000137588
-7.25761e-05
4.9157e-05
-0.000153453
2.94726e-06
-0.000151354
6.19988e-06
-0.00014505
8.29984e-06
-0.000138109
8.96227e-06
-0.000133336
7.98867e-06
-0.000132687
5.97258e-06
-0.000134594
2.6471e-06
-0.000143704
-2.34465e-06
-0.000149969
-5.12591e-06
-0.000151995
-6.57498e-06
-0.000152213
-7.94708e-06
-0.000151657
-7.36987e-06
-0.00014757
-3.33723e-06
-0.000143316
6.01695e-07
-0.000142171
3.03406e-06
-0.000143012
5.37288e-06
-0.000144434
7.59912e-06
-0.000144367
8.78651e-06
-0.000144572
8.42599e-06
-0.000146047
5.52792e-06
-0.000149437
1.7651e-06
-0.000152231
-9.13259e-07
-0.000153429
-3.91361e-06
-0.000153551
-4.63986e-06
-0.000153235
-4.58403e-06
-0.000150768
-3.32101e-06
-0.000146458
-1.70028e-06
-0.000143298
-7.85766e-07
-0.000142115
-2.18444e-07
-0.000141947
5.40336e-07
-0.000142353
1.31445e-06
-0.000143273
2.05001e-06
-0.000145027
2.69953e-06
-0.0001481
3.34576e-06
-0.000151722
3.73169e-06
-0.000154343
3.02046e-06
-0.000155346
2.03576e-06
-0.000155554
1.25944e-06
-0.000155477
1.67763e-07
-0.000155264
-7.43001e-07
-0.000153696
-1.63461e-06
-0.000149909
-2.66345e-06
-0.000146467
-3.38016e-06
-0.000143832
-3.17882e-06
-0.000141961
-2.11865e-06
-0.000141386
-7.52898e-07
-0.000142848
4.45314e-07
-0.000147446
2.52648e-06
-0.000149938
4.7657e-06
-0.000151382
5.64589e-06
-0.000153744
4.99897e-06
-0.000156591
3.76016e-06
-0.000157596
1.76091e-06
-0.000157188
3.11038e-07
-0.000154787
-1.32566e-06
-0.000151624
-3.45585e-06
-0.0001471
-4.06943e-06
-0.000142356
-3.32109e-06
-0.00013996
-2.03136e-06
-0.000139594
-9.70186e-07
-0.000141083
-2.5584e-07
-0.000146989
1.08889e-06
-0.000150807
2.90492e-06
-0.000152665
3.92436e-06
-0.000154266
3.72486e-06
-0.000155376
3.17317e-06
-0.000155308
2.35288e-06
-0.000152577
1.43546e-06
-0.000147845
-5.31921e-07
-0.000144814
-2.14221e-06
-0.000143524
-2.77057e-06
-0.000143082
-3.05065e-06
-0.000143248
-2.92093e-06
-0.0001464
-2.32039e-06
-0.000151507
-4.24196e-07
-0.000154033
1.85228e-06
-0.000154667
3.3611e-06
-0.000154764
4.01555e-06
-0.000154062
4.15549e-06
-0.000151521
3.5014e-06
-0.00014704
1.03804e-06
-0.000141194
-2.04083e-06
-0.000137123
-4.93926e-06
-0.000136005
-7.47112e-06
-0.000135872
-1.0123e-05
-0.000136396
-1.0598e-05
-0.000140729
-1.08908e-05
-0.000145788
-9.76397e-06
-0.000147695
-8.24453e-06
-0.000147964
-7.15426e-06
-0.000146827
-6.41605e-06
-0.000142531
-6.17799e-06
-0.000137731
-7.68998e-06
-0.000131761
-1.1151e-05
-0.000123614
-1.41011e-05
-0.000117354
-1.66453e-05
-0.000121165
-3.68218e-05
-0.000138065
-7.34893e-05
4.63558e-05
-0.000143021
2.44393e-06
-0.000142162
5.47335e-06
-0.000139976
6.74655e-06
-0.000138641
7.61152e-06
-0.000138113
7.87897e-06
-0.000139819
4.17051e-06
-0.000147171
-4.07265e-07
-0.000151644
-2.22685e-06
-0.000152627
-4.03371e-06
-0.000152476
-5.34221e-06
-0.000150556
-5.73386e-06
-0.000141111
-2.58164e-06
-0.000133367
9.65823e-08
-0.000131693
8.16148e-07
-0.000131797
1.2242e-06
-0.000134043
1.99137e-06
-0.000138153
3.74084e-06
-0.000143329
5.95135e-06
-0.000150487
6.29002e-06
-0.00015552
3.41561e-06
-0.000156667
2.00345e-06
-0.000155901
9.22571e-07
-0.000153579
-7.68575e-07
-0.000151035
-2.28055e-06
-0.000147455
-1.38595e-06
-0.000143609
-3.26223e-07
-0.000139898
-2.8155e-07
-0.000137293
-5.1775e-07
-0.000136738
-1.04029e-06
-0.000136777
-1.44601e-06
-0.000137665
-1.56269e-06
-0.000139071
-1.05635e-06
-0.000141274
-8.96467e-08
-0.000145869
1.48086e-06
-0.000151686
3.25491e-06
-0.000154426
3.80717e-06
-0.000154906
3.88239e-06
-0.000155075
3.0189e-06
-0.000154863
1.61633e-06
-0.000154435
1.44021e-07
-0.000152747
-1.18573e-06
-0.000147725
-2.35891e-06
-0.000142063
-3.10836e-06
-0.000137797
-2.79462e-06
-0.000135444
-1.54147e-06
-0.000134745
-4.19825e-07
-0.000135113
3.84421e-07
-0.000139259
1.3791e-06
-0.00014492
3.22467e-06
-0.00014927
4.44466e-06
-0.00015391
4.08108e-06
-0.000157122
2.23751e-06
-0.000157936
9.26e-07
-0.000157942
1.51707e-07
-0.000156124
-9.08598e-07
-0.000150111
-2.30509e-06
-0.000142263
-2.67121e-06
-0.000137478
-2.21093e-06
-0.000135827
-1.52549e-06
-0.000135525
-8.56729e-07
-0.000136003
-2.66333e-07
-0.00014037
4.55832e-07
-0.000146412
2.1017e-06
-0.000150072
3.59027e-06
-0.000152738
3.84252e-06
-0.000154061
3.17376e-06
-0.000154252
2.44018e-06
-0.000153343
1.87551e-06
-0.000148704
8.24173e-07
-0.000144251
-1.11794e-06
-0.000141381
-1.80627e-06
-0.000139918
-2.1436e-06
-0.000139208
-1.96155e-06
-0.000139401
-1.41952e-06
-0.000142767
-4.16491e-07
-0.000147255
2.02557e-06
-0.000149211
4.32601e-06
-0.000149584
5.42743e-06
-0.000150069
5.60897e-06
-0.000150462
4.18612e-06
-0.000148847
1.97972e-06
-0.000144352
-1.37746e-06
-0.00013954
-5.16183e-06
-0.000135278
-8.42478e-06
-0.000132991
-1.04944e-05
-0.000132684
-1.21308e-05
-0.000133341
-1.26571e-05
-0.00013678
-1.28579e-05
-0.000139384
-1.22778e-05
-0.000140222
-1.17002e-05
-0.000140211
-1.11808e-05
-0.000139334
-1.0603e-05
-0.000138012
-1.07099e-05
-0.000136114
-1.21066e-05
-0.000132248
-1.48383e-05
-0.00012551
-1.72492e-05
-0.000123031
-3.18122e-05
-0.000135698
-7.63329e-05
4.81837e-05
-0.00013548
1.67315e-06
-0.000136126
3.54023e-06
-0.000136218
4.19527e-06
-0.000136839
4.59554e-06
-0.000143461
3.52039e-06
-0.0001516
3.46525e-07
-0.000154576
-8.09261e-07
-0.000155137
-1.59162e-06
-0.000154905
-2.36357e-06
-0.000152587
-2.16151e-06
-0.000143641
1.28463e-07
-0.000133436
1.76734e-06
-0.000128533
1.73082e-06
-0.000127627
1.22609e-06
-0.000127461
1.02113e-06
-0.000127749
8.16825e-07
-0.000130154
8.72016e-07
-0.000141783
1.91507e-08
-0.000155044
4.40434e-07
-0.000159282
1.82909e-06
-0.000159749
1.76414e-06
-0.000159536
1.34225e-06
-0.00015672
1.62629e-06
-0.000149049
3.05681e-06
-0.000143883
2.93278e-06
-0.000141587
1.71016e-06
-0.000139424
5.99379e-07
-0.000136347
-4.10582e-07
-0.000134349
-1.33045e-06
-0.000134212
-2.30064e-06
-0.000134206
-3.41459e-06
-0.000134543
-3.21354e-06
-0.000135615
-2.40239e-06
-0.000139978
-9.28619e-07
-0.000148336
2.02843e-06
-0.000153245
4.48132e-06
-0.000155156
5.14279e-06
-0.000155912
3.76242e-06
-0.00015603
2.52481e-06
-0.000155519
1.1279e-06
-0.000153413
-4.72794e-07
-0.000147208
-1.83078e-06
-0.000138242
-2.28604e-06
-0.000132336
-1.44121e-06
-0.000130405
-6.3184e-07
-0.000130046
-2.43637e-07
-0.000130246
3.98861e-08
-0.000132679
3.31189e-07
-0.000140621
1.09087e-06
-0.000150309
2.55215e-06
-0.000155892
2.41096e-06
-0.000157537
1.87472e-06
-0.000157829
9.92501e-07
-0.000157796
3.8528e-07
-0.0001567
2.05319e-07
-0.00014954
-2.30122e-07
-0.000139408
-1.0964e-06
-0.000134174
-1.37734e-06
-0.000132939
-1.1043e-06
-0.000132761
-1.03201e-06
-0.000133079
-7.45779e-07
-0.000135642
-1.79381e-07
-0.000143097
1.21736e-06
-0.000149521
3.39341e-06
-0.000152644
4.11262e-06
-0.000154041
3.67016e-06
-0.000154397
3.00438e-06
-0.000154305
2.4563e-06
-0.000151164
2.02185e-06
-0.000145111
3.65425e-07
-0.000140346
-1.30208e-06
-0.000136996
-1.77888e-06
-0.000135114
-2.14448e-06
-0.000134337
-1.89273e-06
-0.000134653
-1.17128e-06
-0.000138146
1.60682e-07
-0.000142796
3.06259e-06
-0.000146404
5.39432e-06
-0.00014937
5.96798e-06
-0.000151204
4.62004e-06
-0.000151664
2.34803e-06
-0.000149474
-2.42139e-07
-0.000143886
-3.75485e-06
-0.000137399
-7.58964e-06
-0.000132395
-1.03868e-05
-0.000129617
-1.20319e-05
-0.000129184
-1.28839e-05
-0.000129595
-1.38975e-05
-0.000131507
-1.45216e-05
-0.000133225
-1.45314e-05
-0.000134179
-1.43446e-05
-0.000134819
-1.39624e-05
-0.000135974
-1.38305e-05
-0.000136878
-1.49898e-05
-0.000136878
-1.67998e-05
-0.000133566
-1.93801e-05
-0.000128213
-2.86631e-05
-0.000130409
-7.6984e-05
5.73087e-05
-0.000131532
1.58745e-06
-0.000132181
1.79763e-06
-0.000133167
2.75035e-06
-0.000140233
7.14325e-07
-0.000150118
-1.40573e-06
-0.000154168
-5.53849e-07
-0.000154959
-8.76016e-07
-0.000154738
-1.09199e-06
-0.000152501
2.62144e-07
-0.000146087
2.28978e-06
-0.000138643
3.59883e-06
-0.00013254
3.68463e-06
-0.000128606
2.56751e-06
-0.000127514
1.813e-06
-0.000127405
1.07841e-06
-0.000127899
6.48069e-08
-0.000131498
-2.1765e-06
-0.000140296
-3.86431e-06
-0.000152562
-3.14969e-06
-0.00015783
-5.282e-07
-0.000157999
1.61318e-06
-0.000156489
3.44729e-06
-0.000151481
5.33151e-06
-0.00014726
6.36824e-06
-0.000144939
4.92585e-06
-0.000143047
3.61113e-06
-0.000141048
1.66084e-06
-0.000138655
-3.29785e-07
-0.000136875
-2.18177e-06
-0.000135477
-3.89215e-06
-0.000133487
-3.54098e-06
-0.000131509
-3.03771e-06
-0.000130882
-1.87189e-06
-0.000131544
-1.05494e-06
-0.00014017
3.63794e-07
-0.000151496
3.01106e-06
-0.000156371
4.66443e-06
-0.000157857
3.15201e-06
-0.00015818
1.95935e-06
-0.000158003
9.83857e-07
-0.00015585
5.40592e-07
-0.000146877
-4.20833e-07
-0.000134361
-2.77867e-07
-0.000128457
5.82064e-07
-0.000127453
4.69551e-07
-0.000127403
2.58432e-07
-0.000127682
-4.76191e-08
-0.000129351
-4.20319e-07
-0.000137628
-9.83314e-07
-0.00015115
3.10064e-08
-0.000157135
1.45549e-06
-0.000157813
1.3327e-06
-0.000157661
1.5649e-06
-0.000157184
1.35014e-06
-0.000155806
1.34829e-06
-0.000149773
1.32161e-06
-0.000139616
6.54749e-07
-0.000133762
-6.02181e-07
-0.000131576
-1.11574e-06
-0.000131038
-1.22176e-06
-0.000130976
-1.10279e-06
-0.000132051
-8.55535e-07
-0.000139184
1.6708e-07
-0.00014896
2.73655e-06
-0.00015365
4.36828e-06
-0.000155163
4.30412e-06
-0.000155564
3.68133e-06
-0.000155632
3.18925e-06
-0.000154049
2.78844e-06
-0.000147428
1.83346e-06
-0.000140723
-4.18835e-07
-0.000135551
-1.96888e-06
-0.0001319
-3.12331e-06
-0.000129718
-3.20363e-06
-0.00012898
-2.63963e-06
-0.000129548
-1.90054e-06
-0.000134715
-4.10525e-07
-0.000142981
2.85151e-06
-0.000149441
4.94409e-06
-0.00015305
4.35985e-06
-0.000154527
2.14001e-06
-0.000154276
9.88973e-08
-0.000149309
-1.92748e-06
-0.000140319
-5.2728e-06
-0.000132919
-8.34797e-06
-0.000128325
-1.04903e-05
-0.000125924
-1.17072e-05
-0.000125573
-1.33439e-05
-0.00012597
-1.48129e-05
-0.000127857
-1.59253e-05
-0.000130317
-1.62472e-05
-0.000132451
-1.59322e-05
-0.000134524
-1.57798e-05
-0.000136538
-1.70458e-05
-0.000137541
-1.99692e-05
-0.000137434
-2.25458e-05
-0.000133968
-2.84567e-05
-0.00012552
-7.57369e-05
6.82629e-05
-0.000131123
1.55985e-06
-0.000132095
1.05352e-06
-0.000137702
-2.35974e-07
-0.000143778
-1.3585e-06
-0.00014906
-2.04029e-06
-0.000151895
-1.65581e-06
-0.000151731
-7.87773e-07
-0.000149484
1.15402e-06
-0.000144916
3.24234e-06
-0.000141255
4.29364e-06
-0.00013809
4.68515e-06
-0.000134068
4.38863e-06
-0.000130828
3.47666e-06
-0.000129955
2.32127e-06
-0.000130131
8.25227e-07
-0.000132938
-1.47471e-06
-0.000135493
-3.20323e-06
-0.000137645
-4.23399e-06
-0.000142215
-4.16005e-06
-0.00014762
-1.44931e-06
-0.000149949
2.17302e-06
-0.000149832
4.7878e-06
-0.000148896
6.46969e-06
-0.000148457
6.6625e-06
-0.000147841
5.57666e-06
-0.000147363
3.57189e-06
-0.000146462
1.82581e-06
-0.000143976
-3.05752e-08
-0.000140164
-1.998e-06
-0.000135773
-3.71812e-06
-0.000131164
-2.30907e-06
-0.000128273
-1.00126e-06
-0.000127329
-3.38514e-07
-0.000127313
1.41943e-07
-0.000131968
1.89435e-07
-0.000149997
3.22219e-08
-0.000158934
1.34485e-06
-0.00016008
1.17899e-06
-0.000160047
8.26286e-07
-0.000159653
8.44474e-07
-0.000156903
1.1487e-06
-0.00014572
2.83824e-06
-0.000132593
3.97564e-06
-0.000127598
2.57223e-06
-0.000127035
1.63658e-06
-0.000127142
8.3053e-07
-0.000127646
-2.65408e-08
-0.000128921
-1.11184e-06
-0.000134525
-2.24125e-06
-0.000148411
-2.35456e-06
-0.000156442
5.13447e-08
-0.000158047
1.52734e-06
-0.000158204
2.43913e-06
-0.000157811
3.1403e-06
-0.000156263
3.40605e-06
-0.000151535
2.93365e-06
-0.000142364
1.92505e-06
-0.000134758
3.60627e-07
-0.00013103
-1.05641e-06
-0.000129576
-1.04239e-06
-0.000129278
-1.0467e-06
-0.000129383
-1.06941e-06
-0.000133784
-8.64316e-07
-0.000146838
9.57492e-07
-0.000154758
3.53182e-06
-0.000156666
3.56125e-06
-0.000156893
3.23355e-06
-0.000156928
2.96451e-06
-0.000156163
2.92019e-06
-0.000151193
2.51378e-06
-0.000143066
5.57843e-07
-0.000136163
-2.04366e-06
-0.000130412
-3.51153e-06
-0.0001263
-4.2019e-06
-0.00012447
-3.84787e-06
-0.000124277
-3.32393e-06
-0.000125875
-3.03711e-06
-0.000136235
-1.63685e-06
-0.000148799
1.34834e-06
-0.000154499
2.56667e-06
-0.000156049
1.01547e-06
-0.000156241
-2.43735e-07
-0.000153643
-1.56822e-06
-0.00014434
-2.61959e-06
-0.000134029
-4.93638e-06
-0.000127719
-7.71864e-06
-0.000124493
-9.95405e-06
-0.000123155
-1.18303e-05
-0.00012311
-1.38076e-05
-0.000123907
-1.60701e-05
-0.000127213
-1.73418e-05
-0.000131465
-1.72301e-05
-0.000134727
-1.70127e-05
-0.000136991
-1.82636e-05
-0.000138006
-2.18917e-05
-0.000138262
-2.54215e-05
-0.000136569
-2.93067e-05
-0.000124034
-7.28069e-05
7.30073e-05
-0.000132194
1.07416e-06
-0.00013681
1.74676e-07
-0.000143064
-4.27828e-07
-0.000146132
-7.0743e-07
-0.00014669
-8.53136e-07
-0.000146738
-6.12646e-07
-0.000145108
1.04602e-06
-0.000141924
2.92894e-06
-0.00014005
3.76875e-06
-0.000138845
4.40721e-06
-0.000137347
4.51582e-06
-0.000135607
4.33795e-06
-0.000134631
3.66273e-06
-0.000134441
2.20713e-06
-0.000136043
1.31904e-07
-0.000137745
-1.22802e-06
-0.000137922
-2.3786e-06
-0.000137459
-3.27883e-06
-0.000136024
-1.51288e-06
-0.000136146
-1.55135e-07
-0.000140149
9.11206e-07
-0.000144406
3.29943e-06
-0.000146657
5.27398e-06
-0.00014936
5.545e-06
-0.000151457
3.91952e-06
-0.000151987
2.66459e-06
-0.000151797
1.75906e-06
-0.00014952
9.533e-07
-0.000141781
3.07779e-07
-0.00013209
-7.71535e-07
-0.000127099
6.44873e-07
-0.000125848
9.29056e-07
-0.000125695
1.00615e-06
-0.000125849
9.60174e-07
-0.000130242
-7.73796e-08
-0.000148383
-2.01172e-06
-0.000159667
-2.40558e-06
-0.000160669
-8.05741e-07
-0.000160524
-2.78028e-08
-0.000158641
9.79903e-07
-0.000152337
3.60608e-06
-0.000143262
6.09753e-06
-0.00013439
6.51591e-06
-0.000129611
5.0242e-06
-0.000128493
2.97016e-06
-0.000128451
1.34959e-06
-0.00012947
-2.09018e-07
-0.000130842
-1.7655e-06
-0.000133058
-2.88562e-06
-0.000141694
-3.31648e-06
-0.00015256
-1.40365e-06
-0.000156182
1.57137e-06
-0.000156803
3.11318e-06
-0.000156778
3.93655e-06
-0.000156627
4.11006e-06
-0.000154565
4.23596e-06
-0.000146172
3.77085e-06
-0.000136052
1.99191e-06
-0.000130072
5.72322e-07
-0.000128163
1.53142e-07
-0.000127961
-3.9324e-07
-0.000127985
-9.28019e-07
-0.000129662
-1.36765e-06
-0.00014307
-2.58462e-06
-0.000155259
-7.34389e-07
-0.000157602
1.78183e-06
-0.000157653
2.44917e-06
-0.000157424
2.83197e-06
-0.000156658
2.92506e-06
-0.000153863
2.4655e-06
-0.000146718
1.19163e-06
-0.000137814
-1.08514e-06
-0.000130233
-3.45238e-06
-0.000124917
-4.27904e-06
-0.000122462
-4.10118e-06
-0.000121993
-3.89027e-06
-0.00012213
-3.90367e-06
-0.000128161
-4.22302e-06
-0.000146116
-3.56413e-06
-0.000155016
-1.66597e-06
-0.000156225
-1.33725e-06
-0.000156334
-1.60795e-06
-0.000153934
-1.76128e-06
-0.000146877
-1.7328e-06
-0.00013753
-1.50414e-06
-0.000129822
-3.93285e-06
-0.000125049
-7.09143e-06
-0.000122729
-9.95047e-06
-0.000122185
-1.28937e-05
-0.000122572
-1.55961e-05
-0.000124555
-1.80533e-05
-0.000130198
-1.86768e-05
-0.000134909
-1.83206e-05
-0.000137707
-1.93745e-05
-0.00013893
-2.33008e-05
-0.000139129
-2.72097e-05
-0.000137883
-2.97067e-05
-0.000122772
-7.14082e-05
7.17688e-05
-0.000134248
5.20121e-07
-0.000139829
-1.88606e-07
-0.000144308
-1.53338e-07
-0.000145368
6.95542e-08
-0.000145183
4.01507e-07
-0.000142978
1.366e-06
-0.000139204
3.04044e-06
-0.000138003
3.79599e-06
-0.000137793
3.83506e-06
-0.000137816
4.27147e-06
-0.000137677
4.36142e-06
-0.000137538
3.92904e-06
-0.000138019
2.69577e-06
-0.000139662
1.36229e-06
-0.000140397
3.83532e-07
-0.000140287
-8.05235e-08
-0.000139057
-7.65527e-07
-0.000133979
5.73214e-07
-0.000131371
9.18289e-07
-0.000131217
9.81925e-07
-0.000132323
9.24793e-07
-0.000138955
1.05593e-06
-0.000147814
2.38933e-06
-0.000152701
2.4409e-06
-0.000153829
2.27253e-06
-0.00015382
1.83843e-06
-0.000153643
1.7977e-06
-0.000151994
1.36412e-06
-0.00014105
2.60764e-06
-0.000128341
4.59405e-06
-0.000124824
3.54973e-06
-0.000124664
2.66756e-06
-0.00012482
2.03201e-06
-0.000126673
8.97657e-07
-0.000134889
-2.03603e-06
-0.000148413
-4.88788e-06
-0.000156967
-3.78736e-06
-0.000158578
-2.19425e-06
-0.000158094
-8.30687e-08
-0.000152113
3.57075e-06
-0.000145764
6.83324e-06
-0.000141982
8.15415e-06
-0.000137934
8.13664e-06
-0.000133544
6.74578e-06
-0.000131454
4.28807e-06
-0.000131089
1.94912e-06
-0.000131921
-1.17975e-07
-0.000132796
-1.8862e-06
-0.000133236
-3.02155e-06
-0.000135733
-3.611e-06
-0.000146112
-3.07016e-06
-0.000153776
6.01486e-09
-0.00015579
2.82495e-06
-0.0001562
4.011e-06
-0.000156217
4.46973e-06
-0.000155537
4.87319e-06
-0.000148652
5.21345e-06
-0.000135573
5.22541e-06
-0.00012909
3.39263e-06
-0.00012777
1.57133e-06
-0.000127695
2.3392e-07
-0.000128082
-1.04465e-06
-0.00013019
-3.21759e-06
-0.000138062
-5.47259e-06
-0.000151091
-5.91966e-06
-0.000156128
-1.85262e-06
-0.000156742
9.77523e-07
-0.000156547
2.30858e-06
-0.000156065
2.80364e-06
-0.000154453
2.57727e-06
-0.000149502
1.61665e-06
-0.000140166
2.28128e-07
-0.000130786
-2.42302e-06
-0.00012498
-4.15602e-06
-0.000122675
-4.66806e-06
-0.000122236
-4.95153e-06