/*--------------------------------*- C++ -*----------------------------------*\
  =========                 |
  \\      /  F ield         | OpenFOAM: The Open Source CFD Toolbox
   \\    /   O peration     | Website:  https://openfoam.org
    \\  /    A nd           | Version:  12
     \\/     M anipulation  |
\*---------------------------------------------------------------------------*/
FoamFile
{
    format      ascii;
    class       volScalarField;
    location    "5";
    object      p;
}
// * * * * * * * * * * * * * * * * * * * * * * * * * * * * * * * * * * * * * //

dimensions      [1 -1 -2 0 0 0 0];

internalField   nonuniform List<scalar> 
22702
(
1
1
0.86869
1
1.05572
1
1.47189
1
1
0.657002
1.47174
1.47191
1
1.47191
0.885295
1
1
1
1.47175
1
1.472
1
1.47131
0.657785
1.4706
0.658304
1
1.47092
0.656741
0.658559
1
1.47186
1
1
1
1.43536
1.47165
1.47128
1
1
0.657214
1
1.23009
1
1.47019
1
1
1
1
0.657426
1
0.657935
1
1.47166
1
1.47186
1
1
1
1
0.657705
1
1
0.657016
1
0.65709
1
1
1
0.657808
1
1.47186
1.28481
1
1.47181
1.49697
0.658313
1.4713
0.657503
1
1.47131
0.658846
1.47142
1.47149
1
1
1
1
0.931325
0.657351
1.47228
1
1
0.657444
1
1.47218
0.657237
1
1
1
1
1.22987
1.47137
0.658621
1
1
1.11012
1
0.658663
1
1.47141
1.47132
1
1
0.646739
0.647539
0.657178
1
1
1
1
1
0.916001
1
1.40132
1.04278
1.47132
1
1.47129
1.47181
1.47142
1.47121
1
0.657852
1
0.657965
1
1
1
1
1.47152
1
1
1
1
1.4718
1
1.02696
1
1
1
1
0.659341
1
1.01103
1
0.657686
1
1
1
1.47124
1
1.47173
0.648348
0.657908
1.47192
1.47165
1
1.07574
1.26632
1
1.47141
0.657806
1.43611
1
1
1
1
1.47181
1.36908
1
1.47159
0.657633
1.47172
1
0.658092
1
0.658245
0.657445
0.999787
1
1
1.47096
1
1
1.47163
1
1.47144
1.47173
0.661888
1
1
0.657977
1.47155
1
1
1
1.47148
1
0.657055
1
1
1.47139
1.47137
1.4715
1
1.00004
1
1
1
1.47128
1
0.658444
1.48865
1.47163
1.47175
1
1
1
0.645082
1.47093
1.21914
1
1.47329
0.657177
0.657072
1.47337
1.47118
1
1.47311
0.649979
1.4142
1
1
1
1
1.47161
1
1.27736
1.04317
1
1
1.47134
0.657139
0.77583
1
1.47074
0.657426
1.4742
1
1
1
1
1
1
1
0.655249
0.769002
0.656608
1.47138
1
1
1
1
1.41906
1
0.656753
1
0.639438
0.657475
1.471
0.656691
1.47195
1
1
1
0.997707
0.657849
0.649538
0.999999
1
0.636324
1
1.47177
0.658106
1
1
1.47128
0.648175
1
1.47352
0.657992
1.4713
1
0.646433
0.997702
1
1
1
0.656896
1
1
0.999999
1.00001
1.00979
1.28589
1
0.664381
1
1
1
1
1
1
1
1.47134
1
1.47123
1
1
1
0.65955
1
1.4717
0.656815
1
1.36478
1
1
1.47173
1
1
1
1.4608
1
1
1.45721
1.47182
1
1.09739
1
1
0.657667
1
1
1
0.657708
1
1
1
1
0.658485
1
1
1
1
1
0.65831
1.00007
1.4718
1
0.999983
1.47172
1.47191
1
1
0.666894
0.81767
1.47157
1
1
1
1.47114
0.65772
1
1.47188
1
1
0.711287
0.708034
1
0.65786
0.659209
1
1
1
1
1
1
1
1.47133
1.11187
1.45506
0.659033
0.910606
1.47181
1
1.47182
1.4717
0.657135
0.782105
1
0.657425
1
1.48248
1
1
1
1
1.4716
1
1
1
1
1
1
1
1.16892
1.47126
1
1.4715
1
1
0.65918
1
1
1
1
1.47143
1.35638
1
1
0.657602
1.4717
1.47139
1
1.47139
1.47169
1.47146
1
0.835225
1
1.47119
0.982133
1.47148
1
0.656797
0.99888
1.47111
1
1
1
1
0.659505
1.47081
1.42622
1
1.47116
1.47114
1.47143
1
1.21883
1.47072
1
1
1.32274
1.06305
1.47121
0.93226
1.47117
1
1.47111
1.47116
1.47115
1.47169
1
1.459
0.912759
0.884701
1
0.999999
1
1
1.47307
1
1
1
1
1
1.47111
1
1
0.996079
1.47138
1.40419
1
1.38903
1.00004
1
1
1.47159
1
0.99718
1.00474
1
1.47143
1
1.47193
1
1
1.34741
1
1.47187
1.00002
1
1.4717
1
1.47141
1
1
1
1.47159
1
1.47429
1.00001
1.47158
1.47125
1.47151
1.47145
1
1.47143
1.46438
1
0.658462
1.44096
1.33665
1
1.47161
1
0.657194
0.657881
1
1
1
1
1
0.657147
1
1.47155
1.11657
1.47167
1
1
1
1
1
1.47112
1
1.47074
1.2765
0.783504
1
1.00001
1.1347
1.11772
1
1
1.16603
1
0.658546
1.47147
1.47163
1
1
1
1.4713
1
1.00003
1.47362
1.47088
0.948696
1
1
0.65638
1.42746
1
1
1
1
1
1.4714
1.4713
1
1.47154
1.47392
1.47147
1
1
1
1
0.657675
1.47153
1
1
1.42765
1.47011
1
1.4427
1.47123
1
1
1
1
1
1.47147
1
1
1
1
1.47107
1
1.46893
0.657766
1
0.657554
1
1
1
0.996962
0.659007
0.999045
1
1
1
1.06409
1
1
0.866518
1
1
1
1
1
1
1
0.999997
0.931253
0.999999
1
0.997558
1
0.659336
1
1
1
1
1.34911
1
1
1
1
0.65708
1
1
1.4429
1.47145
0.999999
1
1
0.886521
1
1
1
1
1
1
0.950403
1.01024
1.4713
1
1
1
1.47039
0.898155
1
1
1
1.4714
1.46916
1
1.00001
1
1
1
1
1
1
1
0.658689
1
1
1.4712
0.657136
1
1.47027
1
0.659564
1
1
0.657576
1
1
1
1
1
1
1
1.46193
1.47053
1
1
1
1
1.42873
1
1.14603
0.657946
1
1
1
1
1
1
1
1.03699
1
1
1.24618
1
1
1
1.38778
1
1
1
1
0.658064
1
1
0.649077
0.658022
1
1
1.47107
1
0.985742
1
1
1
1.32558
0.649062
1
0.646927
1
0.785389
1
1
1
1.47105
1
1
1.47151
1
1
1
1.47154
1
1
1.47143
1
1
0.656664
1
1.1452
1
1
1.47159
1.47185
1.30974
1.42053
1
0.657446
1
1
1.44972
1
0.658028
1
1
1
1.47185
1
1
1
1
1.27823
1
1.45752
1.47472
0.657573
1
1
0.658475
0.658582
1
1
1
1.3309
1.35438
1
1
1
1
1
1
1
1.19328
1.47157
1.00629
1
1.46577
0.657776
1
1
1
1.25456
1
1.08913
1
1.42914
1.46927
1
0.656571
1
1.47142
1
1
1.47164
1.44072
1
1.47588
1
0.658131
1
1
1
1.47195
1.46186
1.41268
1
1.47103
1.47148
1
1.47242
1
1.4694
1
0.657686
0.971584
0.656868
1
1
1
1
1
1.47142
1
1.47135
1
1
1
1.44709
1
0.656891
1.47154
1
0.658197
0.674399
0.65559
1
1.22701
1.03768
1.4732
1.47154
1
0.999999
1
1
1.47149
1
1
1.47146
1.4715
1
1.15905
0.999972
1
0.996753
1.47125
0.846927
1
0.822421
0.659698
0.658183
0.937072
1.47141
1.46467
1.08816
1.47172
1.47176
1
1
1.47126
1.47133
1.47146
1.4727
1
1.47161
0.65874
1.4715
1.4716
1.46973
1.47482
0.863974
0.896405
0.930367
1.47148
0.956254
1.47204
1
1
1.47348
1.4713
1
0.657245
1.4709
1.47156
1
1.47157
1.47161
1
1.47154
0.657678
1.47339
1.47161
1.47109
1.47582
1
1
1
1.47144
1.29981
0.668614
1.47155
0.64961
1.47137
1
1
1
1
1.471
1.47176
1
1
1.47164
0.65366
1.47176
0.658008
1
1.46796
1
0.657197
1.473
0.735166
1
1.47152
1.47428
1.47221
1
1
1.21034
1.47353
0.658156
1.47157
1
1.47161
0.874617
1.4722
0.659385
1
1.47053
0.690463
1.47349
0.660159
1
1.47177
1
1.4712
1
1.27083
1.45328
1.36724
0.647679
1
1.4713
1
1.47171
1
1.47164
1
1
1.47155
0.984293
1.4745
0.657678
1.42327
1
1.33068
1
1.47149
1.47156
1.47129
1
1.42233
1.47174
1.43489
1.28374
1.46762
1
1.30652
1
1.47193
1
1.06642
1
1.43566
1
1.47161
1.44829
1.44805
1
1.4607
0.657479
1
0.657968
1
1
1
1.47127
1
1.47199
1
1
1
1.47245
1.46487
1.38604
1.47281
1.47366
0.657229
1.4689
1.47164
1
1.41032
1.47148
1.44699
1
1.47122
1.47196
1
1.47776
1.4714
1.47154
1.47286
1
1
1
1.47167
0.652846
1
1.47147
1
1
0.657984
1
1
1.47148
1.47112
1
1.47153
1.47728
1.47172
0.974447
1.4713
1
1.47129
1.47162
1.37363
1
1
1
1.47298
1.47105
1.47161
0.941008
1
1.47892
1.4714
1.47121
1
1.47157
1.47185
1.4715
1.48024
1
1.47171
1.4712
1.40724
1.47068
1.47904
1
1.47605
1.46591
1.47164
1.47347
1.47131
0.657566
1.47163
1.47064
1
1.47156
1.47164
1.47136
1.47151
1
1.47183
1.4716
1
1.47148
1.39269
1
1
1
1.47064
1.47527
1
1
1.25206
1
1.47159
1
1
1.47175
1.47333
1.47137
1.47165
1
1
1
1.32651
1
1.47117
1
1
1.47109
1.47172
1
1.47149
0.647981
1.47152
1.47317
0.728684
1
0.647819
1.40783
1.47462
1.47152
1.47183
0.657823
1.47171
1.47275
0.658065
0.648192
1
1.47113
1.47217
1
1
1.47153
1
1.47571
1
1.41117
1
1.21658
1.47205
1.47404
1.32432
1.42798
1.47148
1.47261
1.43662
1
0.657549
1.47095
1.47163
1.47687
1.00001
1
1
1.47701
1
1.47144
1.47132
0.758109
1
1.4714
0.99994
1
1.00003
1.00004
1.47178
1.4711
0.998478
1
1
1.47172
1.47367
1.47144
1.47363
1.47214
0.672376
1.39688
1
1.46779
1.47135
1.47169
1.47241
1
1.47161
1.45811
1.4729
1
1.47147
1.47124
0.863828
1.47151
1.47112
1
1.47134
0.842796
1.47135
0.860136
1.47171
1
1.47153
1.48253
1.47151
1.47178
1.47141
1.47041
1.47221
1.46935
1
0.929873
1.47136
1.47141
0.843929
1.47152
0.979851
1.29322
1.4711
1.47177
1.47206
1
1.4745
1.29967
1.47189
0.923108
1.47389
1.47349
1
0.869406
1
1.47115
1
1.32004
1
1.44901
0.874079
1
1.47449
1.47426
1
1.47349
1.47347
1.47623
1.46801
1.47217
1
1.47136
1
1
1
0.893072
1.4716
1.47109
1.47123
1.47152
1.47449
1.47191
1.47476
1.472
0.893952
1.03166
1
1
1.47947
1.47171
1.47152
1.47129
1.00003
1.23922
1
1.47726
1.42559
1
1
0.743631
1.47166
1
1
0.658705
1.47142
1
1.4716
1.47138
1.47173
1.45268
1.47152
1
0.652712
1.11269
1.47141
1.47157
1
1.47145
1.47147
1.23393
1.00817
1.10244
1
1.47122
1.47169
1
1
0.657497
1
1
1.47151
1.47153
1.47276
1.47154
1.47108
1.47323
1.47187
1.47334
1.4712
1
0.996182
1.47167
1.47166
0.996987
1.47146
1.47153
0.658263
0.657617
1.47147
1.4758
1
1
1.00094
1.47141
1.4729
1.47143
1
1.47148
1
0.860179
1.47769
1.47547
1
1.21171
1.47167
1
1.47222
1
1.47169
1.31699
1.47174
1
1.47115
1.47694
0.657374
1.47151
1
1.47075
1.47141
1
0.658596
1.47109
1.38691
0.997597
1.46334
1.47163
1
0.996253
1.47356
0.99801
1.47152
1
1
1.47245
1
1.47393
1.47144
0.996603
1.36506
1
1.47151
1
1
1
1
1.47125
1
1
1.46521
1
1.47176
1
1.29863
1.47008
1.47094
1
1
0.998479
1
1.47149
1.4715
1.47135
1.47155
1.47136
1.47106
1.47141
1
1.47149
1.47203
1
1.47109
1.47176
1
1.47279
0.927184
1.05815
1.47151
1.47162
1.47146
1
1.47152
1
1.47112
1.4714
1
1.47157
1
1
1
1
1.47187
0.648856
0.997888
1
1.47153
1.4702
1
1.47139
1
1.00485
0.657636
1.47141
0.999582
1
1.47159
0.998386
1.47166
1
0.999769
1
1.47228
1.47253
1.47069
1.47178
0.658829
1.47255
1.47069
1.47174
1.11552
1
1
1.19603
1.47111
0.646839
0.658889
1
1.4714
1.47147
1.47026
1
1
1.47021
1.47078
0.999876
1
1.34506
0.648923
1
1.08158
1.47128
1.46702
0.998263
1.47143
1.48001
1
0.999098
1
1.47023
1.47127
1.18693
1
1.45051
1
1.00194
1.47184
0.657185
1.47122
1.47159
0.99699
0.999912
1.40633
1
0.999691
1
1.47261
1
1.00001
0.647604
1.47147
1.00001
1
1
1
1.47159
1.26203
1
1
0.658367
1.47143
1.26353
1
1
1
1.44906
1.4667
1.47078
1
1
1.47454
1
1.47162
1.47102
1
1
1.47346
1.47164
1.44908
1
1
1.47364
1.47292
1
1
1
1.47292
1
1
1
1.47211
1.47674
1.47434
1
1.47003
1.00003
0.699979
1.47137
1.47128
1
1.47444
1.4459
1.47118
1
1
1.4753
1
1.24921
1.47105
1
0.658302
1
1.47366
1
1
1.46948
1
1
1
1.13961
1.47091
0.68181
1.00001
1.47296
1
1
1.4719
1
1.47561
1
1
1.47153
1.47155
1
1.00005
1
1
1
1
1
1
1.47575
1.47142
1
1.47159
0.658276
1.47783
1
1.47155
1.47243
1.47163
1.47495
1.47624
1
1
1.46978
1
1.28894
1.47609
1.47157
1
1.47384
1.46701
1
1.41978
1
1.47135
1.30168
1.47011
0.997507
1.46206
1.42757
1.47239
1.47228
1.03762
1.47144
1.47484
1
1.47151
1
1.47174
1
1
1
1
0.996183
1.47136
1.47161
1.39909
1
1.47448
1
1
1
0.648615
1
1.45956
1
1.42687
1.45672
1
1
1
1.43335
1.4713
1
1
1.47327
0.657283
1.07607
1
1.47589
1.47132
1.42849
1.45887
1.47145
1
1.47157
1
1
1
1
1.47025
1.47204
1
1.45961
1.05754
1.4714
1.43805
1
1
1.4399
1
1
0.657934
1.33008
1
1
1.4763
1
1.47539
1.4278
1
1.42688
0.656747
1.47166
1.47147
1.47234
1
0.656892
1
1
1
1.47173
1.39891
1
1.4676
1.47165
1
1.47157
1
1
1
1
1.47166
0.999352
1
1.47361
1
1
1.46903
1.47144
1
1.47575
1.08692
1.00002
1
1.4719
1
1.47205
1
1.01324
1.47138
1
1.47145
1
1
1.14464
1.47191
1
1
1
1
1
0.996237
0.657348
0.657044
1.02004
1
1.02292
1
1.02251
1
1.47132
1
1.27938
1
1.47158
1
1
1
1.47157
1
1.38083
1.47099
1
1.24423
1.47193
1
1
1.47132
1.47129
1
1
1.05048
0.646738
1
1.47266
1
1
1
1
1.07728
1.4714
1
1
1
0.657579
1
1.47151
1.4712
1.48398
1
1
1
1
1.22859
1.47291
1
1
1
1.47566
1.47129
1.05307
1
1
1
1.47165
1.47123
1
0.657627
1.47132
1.47173
1.47012
1.47079
1.4728
1
1
1.47203
1.47046
1.47152
0.657592
1.04091
1.47166
1
1
1
1
1
1.47164
0.657987
1
1
1.47141
1.20515
1
1.47362
1
1
1
0.658026
1
1
1.1209
1.47131
1.47143
1
1.47005
1.47524
1
1.07672
1
1.47259
1
1.47169
0.659079
1
1
1
1
1.47156
1.00007
1
1
1
1.45107
1
1
1
1
1.47095
0.658349
1.36862
1.47447
1
1.47209
1
1
1
0.997119
1
1.46991
1
0.811207
1
1
1.00003
1.47201
0.657945
1
1.47058
1
1.47347
1.47132
0.657684
1
1
1.45235
1
1
0.658265
1
1.47672
1
1.44974
0.999318
1.4706
1
1
1
1
1.47139
1
1
1.47162
1
1
1
1
1
1
1
1
1.30451
1
1.14778
1.47105
1
1
1
0.658334
1
1
1
1
1.47074
1.4714
1.05837
1
1
1.47288
1
1
1.47176
1
1.00002
1
1
1
1.00001
1.47094
0.784394
1.47155
1.47363
0.996859
1
1
1
1.27386
1
1
1.47197
1.47131
1
1
1
1
0.658003
1
1
1
1.29206
1
1.47153
1.47501
1
1.47295
1
1
1
1.24982
1
1.47117
1
1.47126
1
1
0.99634
1.47129
1
1
1
1
1
1.47354
1.00002
1
0.657926
1.47131
0.658384
1
1.47401
1
0.995975
1
1.47262
1.46983
1
1.47182
0.880617
1.47167
1.47177
1.00003
1
1
0.656732
1
1
1
1.47149
1.26958
1.47528
1
1
1
1
0.996798
1.47207
1
0.659862
1
1
1
1
1
1
1
1.4788
1.47005
1.47377
1
1
0.996881
1
0.979258
1
1
1
0.657191
0.976019
1
0.661185
0.658216
1
1.47229
1.47155
1
1.47146
1.47126
0.658368
1.31224
1
1
1
0.660047
1.47185
1
0.6566
1
1.47084
1.07798
1
1
1
1
1.47143
1.4716
1
1
1.47146
1
1
1.47161
1.4718
1
1.43511
1.47155
1.47142
0.961025
1.4721
1.00871
0.657289
1.35875
1.47208
1
1
1
0.657423
1
0.657577
1.4715
0.960312
1.47159
0.955991
1
1.47043
1.21079
1
1
1.47104
1
1.18849
1.47029
1
1
1.46881
1.47869
0.657734
1.28076
0.999896
1
1.28059
1
1.47035
0.941214
1.48109
1.47631
1
1
1
1
1.45757
1
1
1.47021
0.999642
1.47181
1.38566
1.47171
0.661188
1
1
1
1
1.47175
1.00004
1.47154
1
1.47197
1.47077
1.05826
1.47236
1.14334
1.47161
1
1.31814
0.681951
1.47106
1.47121
1.36728
1.07804
1.47148
1.47161
1.47133
1.47293
1
0.918657
1.06763
1
1.47123
1.22099
1.47145
1.00003
1
1
0.69304
1.47613
1.47128
1.37935
1
1.17684
1
1.47195
1.47031
1
1.47182
1.47123
1
1
1
1.47227
1
1.18358
1.47526
1.32126
1
1.47099
1
1
1
1
1
1
1
1
1
1
0.678476
1
1.43808
0.657296
1.27318
0.998565
1.47194
1
1.24304
1.00001
1.29893
1.40135
1
1.00217
1.47283
0.91423
1
1.4718
1.45775
0.941978
1
1.47015
1.47182
1.47392
1
1.47123
1.47159
1.47309
1
1.20807
1
1.00006
1.4717
1
1.47199
1.06738
1.4726
1
1
1.47233
1.47284
0.692892
1
1.47153
1.35089
1.47058
1
1
1.47137
1.47459
0.998233
1
1.42903
0.996891
1.47167
1.00005
1
1
1
1
1.20743
1
1.35381
1.47071
1.34907
1.47016
1
1.00441
1
1
1.47149
1
1.47351
1
1
1
1
0.999999
1
1.05529
1.24001
1
1
0.658498
1
1.47014
0.682305
1.47228
1
1.23125
0.99975
1.47126
1.29692
0.666881
1.25346
1.00003
1.47167
1.47298
1
1.27962
1.47099
1.47139
0.998409
1.4731
1.45807
0.654121
1
1
0.997457
1
1.46937
1
0.667774
1.4697
1
1
1.41173
1
1.47099
1
1.4719
1
0.687941
1
1
1.47287
1.47812
1.46986
1
1.4695
1.47165
1.46695
1
1
1.46912
0.999999
0.74164
1
1
1
1.47146
1
1.47142
1.30258
1.47038
1
1.4716
0.999379
1
1
1
1
1
1
0.714633
1
1
1.47145
1
1.47184
1.47598
1
0.661541
0.656533
1
1.47304
1.07745
0.657231
0.637473
1
1.47103
1
1.4703
0.658601
1.00095
1
1
0.999507
1
1
1
0.999914
1.18962
1.47155
1
1
1.47264
1.27522
1
1.41825
1.46985
1.47172
1.18985
1.46975
1
1.47151
1
1.46734
1
1.46987
1.47244
0.997134
1.47263
1.47678
1
1
1
1
1
0.921031
1.47146
1.00004
1.00003
0.657721
0.999989
0.657263
0.652924
1
1.47199
1.47152
1.47158
1
1.47148
1
0.661108
1
1
1.47089
0.834182
1.47101
1
1.47237
1
0.980402
1.47122
1
1
1
1.47163
1
1.4715
0.657423
1
1
1.27081
1
1
1.25239
1
1
1.47167
1
1
1
1
1
1.4678
1.47127
1
1.47106
1.47155
0.660476
1.2116
1.46953
1
1
1.4231
0.998925
1
1
1.47145
1.47243
1.30225
1
1.47198
0.667192
1.45182
0.999625
1
1.47061
1.00003
1.4704
1.39242
1.35729
1
1
1.47117
0.720346
0.658233
1
1.4716
1
1.47056
1
1.27663
1
1
1.47045
1.29763
0.659868
1
0.998423
1
1
1.02597
1.18865
1.47126
1
1.47454
1
1
1
1
1
1
1.06673
0.657657
1
1
1.03452
1
1
1
1
1
1.47204
1
1
1.47151
1.47137
1.34231
1
1
1
0.836666
1.47356
1.32396
1
1
1
1
1.47176
1
1
1
1.47029
1
1
1.3355
1.48452
1.0374
0.748032
1.47214
1.32823
1.47228
1
1.23119
1
1
1
0.657744
1.00236
0.657531
1
0.658982
0.645807
1
0.660208
1
1
1
1.20391
1
1.47185
1.47208
1.00142
1.2247
1.39833
0.65875
0.768339
0.884418
1
1.47145
1.47159
1.47146
1.4716
1.40347
0.872853
1
1.4057
1
1.46157
1
1
0.996459
1.0105
1
1
1
1.47107
1
0.658774
1
1.47282
0.658117
1
1
1.47156
1
1.47139
1.00011
1
1
1.4725
1.41454
1
1.4871
1
1
1.01496
1
1.20357
1
1
0.660199
1
1
1.46971
0.999999
1.47204
1
1.00003
0.658036
1
1
0.658198
1.00089
1
1.47173
0.657382
1.47219
0.659753
1.47173
1
1
1
1
1
1
1
1
1
1
1
1.45173
1
1.47354
1.47159
0.657279
1
1
1
1
1
1
1.45798
1
1
0.660662
1
1
1.47169
1
1
1.17802
1.39224
0.65845
0.657631
0.702019
0.739053
1
0.996626
0.657915
1.00036
1.44323
0.996908
1
1
1.47194
1
1
1
0.771892
1.00001
1.16681
1
1
1.19023
1.47184
1
0.659586
1
1
1
0.996722
1.00001
1.47161
1.4715
1
0.66001
1
1.25048
0.657577
1
0.886294
1
0.996263
0.645519
1
1
1
0.996121
0.658293
1
0.659333
0.998409
1.24407
1.42241
0.65786
0.657986
1
0.990539
1
0.998655
1
1.47157
1.47197
1
1.00975
1.47192
1.4713
1
1
1.47153
1
1
1.00004
1
1.47424
1
1
1.01869
1
0.998565
0.69871
1
1
1
1
1
1.46982
1.03438
1.00005
1
1
1
1
1
1.00003
1
0.660178
1.09882
0.998594
1.45672
1.47054
1
1.01366
1.47186
1.40835
1
1
0.655229
1.47181
1
1.47169
1
1.47269
1.31412
0.657757
1
0.657073
1.43036
0.999681
1
0.658004
0.656808
1
1
1.39657
1
0.999998
0.65268
1
1
1
1.15141
1
0.657088
1.47008
1
1
1
1
1.472
1
1
1.47625
1.42102
1
1
1
1.47497
0.658873
1
1.47128
1.47169
1
1.37421
0.999999
1.00003
1
1
1.44136
1.01081
1
0.658062
1.2462
1
1
0.99758
1
1
1.46847
1
1
1.00003
1
1.47138
1
1
1
1
1
1
1.00001
1.20148
1
1.47055
1
1
1.47303
1
1
1
1.47152
1.47435
1.04654
1
0.997656
1
1
1
1
1.47117
1
1
1.47156
0.657615
1
1
1
1
1
1
1.37786
1
1
1.47202
1.47177
1
1
1
1.47128
1.47034
1
0.999669
1.47165
1
1
1
1.00002
0.658401
1.02995
0.996226
0.995834
1
1
0.653315
1.47232
1
0.658669
1
1.47318
1.45142
0.658498
0.99941
1.47131
1.4715
1.47126
1
1
0.92585
1.42229
1.38922
0.658669
1
1
1
1.47162
1.47167
0.655681
0.997272
1
1.47174
0.658589
1
1.46715
0.660158
0.969929
1.00688
1
1.47475
1
1
1
1
1
1
1.00011
1.43858
1
1
1.47001
1
1
1
1.47149
1
0.659319
1
1
1
1.16086
1
1
1
1
1
0.787277
1
0.658353
1
1.47129
1.00007
0.858898
0.86823
1.00002
1.00354
1.2433
1
1
0.657116
1.47123
1.47129
1.47162
1
0.649723
0.652872
1
1.4715
1
1
1
1
1
1.00003
1
0.658158
1.30093
1
1
0.658445
0.984909
1.00001
1
1
1
0.643361
1
0.691647
1
1
1.47753
1
1
0.656549
1
1.47131
1
0.658617
1
0.660629
1
1.00839
1.47173
1.48508
1
1
1.47132
1
1
1.09944
0.996744
1
0.998263
1
1.47392
1
0.657785
1.00002
1.472
0.998976
1
1
0.79665
1
0.999021
0.655389
1.47079
1.16629
1
1.00001
0.908217
1
1
1
0.795839
1
1
1
1.47151
1
0.658234
0.999999
1
1
1
0.651894
1.47148
1.43674
0.659905
1
1.47636
1
1
1.47179
1.47129
1.39425
0.650824
0.997762
0.999241
1
1.47148
1
1
1
1
1.47216
1.00004
1
1
1.47027
1
1
1.47171
0.659817
1
1
1
0.657934
1
0.999999
0.999999
0.998657
1
1
1
1
1.36767
1
1.47288
1.47098
1.481
1.47144
1.47205
1.47173
1
1.47187
1
1.47133
1.47167
1
0.998856
0.659886
1.401
0.999903
1
1
1
1
0.998852
1
1.072
1
1
1
0.849047
1.47171
1.47104
1.47544
1.41874
0.999876
1
1.02209
1.4717
0.997909
1.0615
0.997304
0.657962
1
1.00002
1
1
1
1
1
1.47163
0.657094
1.47167
1.47163
0.995016
0.657695
1
1
1
1.47086
0.65759
1.41452
0.650686
1.47138
1.4759
0.661296
1.47174
1.02339
1
1.47474
0.796361
1
0.998738
0.659047
1
0.657666
1
1.47183
1.4714
0.751169
1
1.47158
0.657909
1
0.662057
1
1.47147
1
1
1.46531
1
0.833875
1
0.999646
0.657786
1.47011
0.999473
1
0.657975
1
1
1
1
1.25361
1
1.47079
1
1
1.48244
1
1
1.47137
1
0.658096
1
0.657809
1.00001
1
1
1
1
1.45053
1.27381
1.47146
1
1.47133
1.4375
0.642171
0.658674
1
1
1.47038
1
0.658097
1
0.983691
1
1
1.47181
1
1.47033
0.658269
1.47196
1
0.658311
1
1
1.47459
1.46978
1
1.00004
1
1.47413
1
1
0.651554
0.999385
0.657834
1
1
1
1.47328
1.47088
1.47174
1
1
0.658028
1
1.47361
1
1
1
1.44738
1.47172
1.47145
0.657766
1.47382
1.47138
0.66073
1.47151
1.00004
0.663111
1.01211
1
1
1.47089
0.657471
1.29562
0.657417
1.47142
0.997274
0.653195
1.47365
1
1
1
1
1.47115
1.47123
0.661155
1
1.00002
0.659818
1.00004
1
0.65689
0.658148
1.32394
1.47101
0.998473
1.47138
1
1.46903
0.819867
0.656569
1.47157
1.48065
1
1.47174
1
1
1.47163
1
1.35819
1.4718
1
1
1
1
1.47162
1.46602
1.47126
1
1
1.46992
1.47151
1.47185
1
1.47156
1
1
1
1
1
0.657174
0.835095
0.658205
1
1
1.47132
1
1
1.47196
0.645044
1
1.47153
1.46619
1.45021
0.647703
1
0.657529
1
1.00003
1.47097
1.22873
1.47166
1.42971
1
0.658451
1
1.47241
1.334
0.657531
1
1
1
0.807582
1
1
1.4738
1
0.657271
1.47159
1
1
1
1
1
1.3759
1.10502
1
1.47105
1
1.47137
1
0.997434
1
1.47205
1.47242
1.47238
1.47555
0.999579
1.47191
1
1.47149
1.47074
1.39747
1
1
0.657094
1.47198
1
1
1.4753
1.47157
1.47002
1
1.47096
1
1
1.00003
1.47233
1.47007
1.12872
1.10145
1.4718
1.47114
0.696566
1
1
1
1
1.00002
1.16401
1
1
1.39404
0.658152
0.999967
1
1.47131
0.999896
0.999805
1.06478
1.41809
1.47175
0.909158
1
0.657357
1
0.999028
1.47175
1.47444
1.46825
0.999031
1
1
0.657721
1
1
1.47174
1.04996
1
1
1
1
1
1
1
0.999934
1.47164
1.00002
1
1
1
1
1.30872
1
1.22
1
1
1.47142
1.47699
0.657513
0.9988
1
1
1
0.661183
1.47228
1.47177
1
1
1
1
1
1
1
1
1.47184
1.46832
0.658461
1.05071
0.657555
1
0.65607
1
1.4717
1.12859
1
1
0.717444
1
1.45064
0.813066
0.996425
0.655764
1
1
1.46995
1.00004
0.996957
0.641292
1.47214
1.48057
1
1
1
1
1.43942
1
1
1.47127
0.998953
1.47177
1.00003
1
1
0.659359
1
1
1.47167
0.654873
0.779535
0.658158
1.47157
0.9993
1
1.47272
0.657794
0.65778
1.01394
1
1
1.47125
1.00004
1.2041
1
1
1.47111
0.660824
1
1
1.00014
1.4718
1.00012
1.45741
1
1.00003
1
1
0.72651
1
0.785802
1.00002
1
1.47395
0.659665
1
0.778909
0.804531
1
1
1.47192
1
1
1
1.47153
1.47156
1.00005
1.45621
1.47141
0.781865
1.47143
1.4474
1
1
1.46837
0.999999
1
1
1
1
1.47302
1.47126
1
1
1
1.47197
1.00022
1
0.658323
0.724234
1
1.00003
1.16978
1
1
0.896029
0.657618
1
1
1
1.47671
1.43107
1.47163
1
1
1
1
0.658515
1
1.4681
1
1.46862
0.659421
1.46993
1
1
1
0.658881
1
1.47159
1.00003
1
0.657554
1.16845
1
0.999673
1.46773
0.647876
0.658407
1
1.47218
0.651109
0.657217
1
0.65935
1
1
1
1
0.657395
1
1
1
1
1.4707
1
1.35837
0.657722
1
1
1
0.657157
1.47161
1
1
0.996741
1.45978
1
1.47121
1.47157
1
1
0.721563
0.657883
1
1
0.658351
1.14529
1.21647
1
1
1.46935
0.997324
1
0.997595
1.47152
1
1
1
1
1
1
1.47164
1
1.15777
1.15184
0.699337
1.41529
1
1.47109
1.47155
1
1
1
0.913393
0.658143
1
1.2236
0.99966
1.40708
1
1
1
0.999999
1
1.00732
1.20792
1.4728
1.47175
1
1.47165
1
0.65801
1
0.99755
0.999773
1
0.652918
1
0.657511
1.00002
1.47513
1.47171
0.659435
1.47707
0.658597
0.996085
1.35434
0.658843
1.33368
1
1
0.99842
1
1
1
1.00006
1
0.657548
1
1
1
1
0.999594
1.47176
0.804683
1
1
1
1.03763
1
1
1
1.26342
0.75703
1
1
1
1.05094
1.4719
1
0.658201
1
1.4733
0.894829
0.658303
1
0.653468
1
1
1.44497
0.998229
1.43477
1
1.00886
1
1
1.47136
1
1
1
1
1.09208
1
1.47168
1.47316
1.47192
0.657864
1.47163
0.997158
1.38206
1
1
0.647637
1
1
0.657766
1.47431
1
1
0.999962
1
1
1
0.641421
0.657824
1
1.47157
1
1.21321
1.47149
0.66027
1.37701
1
1
0.670976
1
1
1.4715
1.4717
1.16777
1
1
1.00138
1.47142
0.657819
0.65712
1.47295
1.47127
1.31929
1.1875
1
0.896592
1
1
1
1.43907
1.47157
1.47109
1
1
1.47234
0.658446
1.42928
0.636524
1
0.657452
1
0.657735
1.47113
0.643508
1
0.975866
0.688581
1
1
1
0.84594
1.44164
1.47155
1.4718
1.47132
1
1
1.47182
1
1
1.47128
1
0.657932
1
0.658525
1
1.47141
1
1
1.02465
1.35726
1
0.998579
0.658019
1.47177
1.00001
0.658039
1.08805
1
1
1.35666
1.47095
1.47195
1
1.47037
1.12413
1
1.02414
1.47133
1
1
1
1
1.47147
1
0.651805
1.47161
0.659592
0.658358
0.818617
1.47041
1.16294
1.47123
1
1.47146
0.997444
1.00003
1.47143
1.47146
1
1.47124
1
1.47126
1
1.47154
1
1.00004
0.999981
1.47291
0.654029
0.657578
0.997927
0.999999
1
1
0.658236
1
1.30565
1
0.646026
1
1.177
1.47107
1.47016
1
1
1.00003
0.999445
1
1.47136
1.47113
1
1.19096
1.47134
0.838683
1.47159
1.00048
0.65018
1.10049
0.658726
1
1
1.07835
1.47165
1
1
1.04112
0.998569
1
0.658311
1
0.78569
1
1.47059
1
1
0.657601
1.10447
1.06503
0.998503
1.4708
1.47144
0.776326
0.998074
0.658993
0.657167
0.657605
1
1
1
0.999058
0.726541
0.657314
1
1.47137
0.999732
1.47147
1.47207
1.47183
1.47182
1
0.657596
1.47108
0.655629
1
1.47196
1.47557
0.996638
0.817303
1.47198
1.33636
1
0.659817
1
1
1.47718
1
1.02702
1.47213
1
0.65859
0.657132
1
1
0.651766
0.647778
1.47149
1.00003
1
0.648895
0.648926
1.47629
1.45976
1.43935
1.47266
1.12875
0.982057
1.18849
1.47688
1.36582
1
1.24046
1
0.648994
0.863655
1
0.657541
1.47185
1.02296
1.47299
1
1.4713
1.47106
1
1.47145
1.47158
0.657667
1.4748
1
1.47277
1
0.745874
0.657475
1.47173
1
1
1
0.657846
1.47116
1.47272
1
0.65886
1
1
0.658212
1.00004
0.642721
1.47155
1
0.825998
0.650296
1
1
1.26764
1
1
1
1.07794
0.658233
1
1.00001
1
1.47276
0.659283
1
1.47162
0.658475
0.657784
1
1
1.47715
1
1.47222
1.00001
1.47146
0.658119
1
1
0.657879
0.814625
0.658378
1
1
1
1
1.47488
0.649571
1
0.658097
1
1.47681
1
1
0.927874
1
1
0.821037
0.999682
1.00005
1
0.659205
0.657326
1
1
1
1
0.794127
1.4697
1.47108
1
0.657955
0.657886
0.903934
0.657283
1
0.827028
1
0.659372
0.982655
1
1
0.659892
1
1.47029
1.45977
0.657799
1
1
1
1.46898
1
1.04248
0.836924
1.14589
0.657749
1.18113
0.657353
1
1
0.717429
0.907266
1
1.04203
1
1
0.657649
1
0.940019
1.04487
0.659613
1
1.37496
0.758977
0.875272
1
1
1
0.65779
1
0.658214
0.658086
1
0.855162
0.657411
1.06791
0.746348
0.649036
1.47145
1
1.47153
1.25404
0.731549
1.47148
0.657598
0.999037
1.47191
0.999999
1
1.47127
1
0.718123
1
1.07055
1
1
1.4716
1
0.768373
0.819386
1.47138
0.938068
1
0.760715
1.47145
1.47221
0.906391
1
1.47138
1.12371
0.850887
1
1.01741
1
0.659311
1.2021
0.772374
0.746794
1
1
0.656483
1.47195
0.962537
0.658261
0.652994
0.866029
1
1.01906
1.47198
1.47163
1
1
0.999999
0.658672
1.21693
0.999996
1.46997
1.43771
0.656603
1.00001
1.09275
0.871758
1.27172
1.41237
1
1.04273
1
1.00005
0.648328
0.84976
1
1
0.815418
0.650136
1.03912
1
1.00001
0.65018
1.20993
1
1.46464
1
1.03779
1.25714
1
1.46282
1
1
1.47095
1
0.649765
1.47131
0.69758
1.12535
1
0.656943
0.999911
1
1.00003
1
0.796287
1.02641
0.659093
1.34303
1.47127
0.638893
1
1
1
1
1
0.963477
0.656976
1.0498
0.658895
0.657611
1.07453
1
0.999809
1.11961
1
1
0.656593
0.989008
1
1
1.12869
1
1.47165
1
1.47155
1.0886
1.01986
0.658876
1
1
0.658613
1
1
1
1
1.47117
1.044
0.998058
1
0.642579
1.05308
0.999999
1
1.30423
1
0.658113
1.47097
1
1.00001
1
1.47172
0.657706
0.871863
0.650837
1.3536
1.47201
1
1
1.47147
1
0.648897
1
1
1
1
1
0.777066
1
1.47123
1
1
1.16077
1.47144
0.663407
0.870157
1
1.47144
1
1
1
1
1
1.47146
1.47184
0.648826
1.4714
0.641817
1
1
1.47156
1
1.4724
1.00309
1.02802
1.06645
1.47208
1.07382
1.31839
0.645586
1
0.645378
0.984486
1
1.47166
1
1
0.650833
1.47454
1
1.47228
1
1
1
1
1
1.00001
0.658108
1.47083
0.84606
1.47143
1
0.658755
0.661004
0.716666
1.47677
1.47211
0.967196
1
0.798207
1
1.17756
1
1.4717
0.64609
0.658191
0.842512
1
1.47117
1
1.07688
0.678131
1
1.47167
1.41374
0.998879
1
1.4719
0.657314
1.47281
1.47123
1.47525
0.657826
1.08801
1
1
0.64279
1
0.807004
0.827885
1
1.00002
1.47153
1
1.47689
1.08307
1
1.03996
1.47701
1
0.657595
1
0.773561
1
1
1.38613
1
0.802393
1
0.6579
1.03762
0.945868
0.649263
1.471
1.38096
1.47147
0.659407
0.700022
0.995586
0.999999
1
0.686899
1.44384
0.657382
0.999967
1
1.47186
1.47151
0.901936
1
0.657148
0.711764
1.30928
0.974429
0.643448
0.999999
0.655859
1.11494
0.659535
1
1.00006
0.814348
1.47195
1.47148
0.83982
0.999595
1
1
0.724876
1
0.652001
1
0.654346
0.658656
1
1
1.00003
0.660665
1.47158
1
1
1.00007
1.00004
0.657567
1.47178
1.47172
0.999999
0.659237
1.47125
1
1.0925
1
1
1.47256
0.649814
1
1
0.657612
0.744839
0.658789
0.658504
1
0.700195
0.997158
1.0882
0.643664
1
1
1.12933
1
1.41645
1
1
1.31836
0.682599
1
0.657752
1.12744
1.471
1
1
0.655783
0.658362
0.642493
0.735494
0.657095
1.34987
0.999407
1
1
1
1
1.47159
0.658252
1
0.93546
0.999674
0.998999
0.999937
0.764026
1.1289
1
1.47167
1.47148
1
1
1.45155
1.00004
0.999999
1.47133
0.6579
1.47072
0.999999
0.645437
1.47155
1.00005
1
0.827154
1
0.647333
1
1.47132
1
1
1.47513
1
1
1.47469
1
1
1
1.47128
1
0.751175
0.719562
1
0.635763
1.47217
1
1
0.974714
1
1.47413
1.26793
1.37682
1
1
0.668799
1
0.659263
1.4719
1.47121
1.47145
1
1.47102
0.659007
1
0.658821
1.37694
1.42727
1.47328
1.47202
0.761917
0.645543
1
1.29911
1.47121
1.47139
1.47156
0.7455
1.16711
1
1.35462
0.75071
1
1.00002
1
1.00002
0.892455
1
1.47451
1
1
1
1
1
1
1.00006
1.46893
1
1.47564
1.34517
0.657835
1.47146
1.0249
1.22957
1
1.47132
1
0.660855
1
1
1
1
1.40089
1
0.643673
1.47054
0.638439
1.47137
1.37538
1.24086
1
1.08882
1.21637
0.995593
0.658061
0.776038
1.00002
0.999999
0.916745
1
0.650493
1.47103
0.648329
0.927205
0.856453
1
1
1
1.01284
1
1
0.657708
0.996941
1.47151
1
1.4719
1
0.653933
1
1
1.47158
1.47044
0.645131
1
1.47159
1
0.811393
0.653136
1.47152
1.42113
1
1.07918
1.47171
0.998667
1
1.19
1.41209
1.47137
0.995977
1
0.999998
1.39855
1
1
1
1.47164
0.998508
1
1
1.47102
1
1
0.658158
1
1
1
1.47173
1
1
0.856992
1.14572
1.42766
0.777779
1
1.47137
1
1.16497
1
1.4714
0.997237
1.47165
1
0.658968
1
1.32918
1
1
1.43889
1.00002
1.47133
1
1.47287
0.697098
0.661288
1.47148
1
1.39785
1
1.47137
1
1
1.00005
1.47143
1.47187
1.11847
1.47147
0.995938
0.657769
1.47164
0.869348
1
1.47091
1
1.47167
1
1.47364
1.47146
0.996361
0.658407
1
1.47148
1
1.0266
1
1
0.99797
0.747006
1.41873
1
1.42572
1
0.872868
0.643845
1.47052
1.47189
0.695025
1
1.47157
1.4715
1.47174
0.69333
1.47115
0.672374
1.47147
1.47126
1
1
1.47151
1
1
1
1
0.657229
1
1
1.47136
1.47151
1
1.4716
1
1.47165
1.47143
1
1.39075
1
0.637395
1.47139
1.34713
1.12945
0.639347
1.47152
1
1
0.649265
1
1
1.47143
1
1
0.783321
1
1.47133
1.00008
1.47124
0.645774
1.47166
1
1.47198
1.45284
0.893013
1
1.47209
0.766031
1.47135
1.32829
1.47154
1.47155
0.997262
1.47176
1.47114
1.47164
1.47164
1.00041
1
0.6574
1
1.47141
0.828439
1.42893
1
1.46267
1
1
1
1
1
1.4688
0.646509
0.658843
1.47171
1.47117
1
1
1
1
1
1.46788
1.43766
1.47169
1.00951
1
1
1
1.00003
1.47021
1.4714
1
1.47195
1.47247
0.657861
1.32629
1
1.47167
1.47573
1.46814
0.997991
1.47196
1.47157
1
1.42705
1
1
1
1
1
1
1.47171
1.47126
1.43811
1.47168
0.649991
0.695311
1.47168
1.47165
1
0.65196
0.939124
1
1.22106
0.650893
1
0.999455
0.998292
0.658396
1
1.47132
1
1
1
1.47156
0.940139
1
1.47136
1.4713
1
1.4712
1
1
1.47158
1
0.657035
1
1.47385
1
1
0.657101
1
1.47164
1
0.638112
0.651535
1
1.46218
1
0.636897
0.88736
1
1.47178
1
1
1
1.47603
1
0.657086
1.06658
1.47123
1.47308
1.47164
1.04418
1.47334
1.47161
1
1.00002
1
1
1.00001
1.47139
1
0.99929
1.47088
1
0.642717
1
1.47136
1.21559
1.05559
1.21466
1.06444
1.47854
0.704429
1.47166
1
0.658398
0.997138
1.4716
0.937217
1.47167
1.47161
1.46651
1
1.47125
1.47142
1.47163
1
1.00004
1
1
1.47139
1.3324
1
1
0.656574
0.996738
1
1.47163
1
1.4716
1.47158
1.47355
0.905309
1.47169
1.47153
1.00223
1.22737
1.47126
1.47174
1
1.43386
0.833859
1.46077
0.987988
1.47169
1
1.47142
1.47144
1
0.65796
0.931077
0.703993
1
1.07945
0.996779
1.47114
1
1
0.996709
1
1.22827
1.44226
1
1
1.47123
1
1
1.33315
1.4719
1.45208
1.47152
1.47175
1
1.47287
0.728578
1.47106
1
0.99117
0.657017
1
1
0.749856
1
1.14649
1
1.47339
1
1.46243
1.29296
0.658012
1
1
1
1
1
1.47114
1.01148
1