/*--------------------------------*- C++ -*----------------------------------*\
  =========                 |
  \\      /  F ield         | OpenFOAM: The Open Source CFD Toolbox
   \\    /   O peration     | Website:  https://openfoam.org
    \\  /    A nd           | Version:  12
     \\/     M anipulation  |
\*---------------------------------------------------------------------------*/
FoamFile
{
    format      ascii;
    class       volScalarField;
    location    "5";
    object      p;
}
// * * * * * * * * * * * * * * * * * * * * * * * * * * * * * * * * * * * * * //

dimensions      [1 -1 -2 0 0 0 0];

internalField   nonuniform List<scalar> 
45568
(
2.37445
1.21628
2.61382
1.5801
0.839453
1.2061
1.66238
1
0.630546
1.71229
1.14926
2.49557
1.86839
1
0.643472
0.327972
1
1
0.993002
1.66126
1
2.61691
1.64748
1
1
1.21212
1
1
0.33354
1.71103
0.910038
1
0.987916
1.60853
1.62541
1.69117
0.84652
1
1.69112
1
1
0.327288
1
2.50947
1
3.51487
0.32751
2.95936
1.58045
1
2.49055
2.0635
1
1.66192
2.27667
2.60442
2.59108
2.20304
1.8149
0.949914
1
1.82022
1
1
2.21122
1.25941
1
1.00143
1.66619
3.0667
0.715749
0.516958
2.48973
1.71151
2.61398
1
1
1.25323
0.947218
1
1.89568
1.48859
0.508393
2.4638
1.94382
1.00003
2.30243
1.23841
1.66299
0.624568
1.61394
1
1.86628
2.99944
1
1
3.05243
1.85577
1.01277
1.72065
0.779701
1.97876
3.28197
1
1
1
1
2.61551
1
2.97979
1
0.663172
1.59305
1
3.00356
1
1
3.29148
2.29584
1.71195
1
1.79468
2.60264
2.60582
1
1.79774
2.62971
2.10503
2.82627
1
2.42396
2.71509
2.70007
1
0.330658
1
1
1
1.95846
1.98986
1
1.55371
1.70466
1
0.329437
1
1
1
1
1
1.33208
1
0.393156
1.01986
0.380603
1
1
1.00311
0.317281
2.21583
0.311755
1
2.19782
0.327977
0.633398
0.64746
1.68598
1
2.21634
1
0.328383
1
1.28681
1
2.31021
0.319044
0.31547
2.09281
2.31071
2.53257
2.29477
1.67182
0.328918
0.328064
1.27003
1.68304
1
0.88355
1.64671
0.331338
0.332532
1.69136
1.64162
1.25726
1.82697
0.770761
0.330001
0.923279
0.621148
0.331212
1.38106
1.55218
2.61496
3.95687
3.56308
2.07962
1.66176
1.5444
0.925294
2.39864
0.991771
1
2.06286
1
2.62147
0.327345
0.327003
1
1.68315
2.622
1.88688
0.937094
1.85788
1.34236
2.29313
1.94082
0.325721
0.325208
1
1.62308
0.601241
1.68471
0.415772
2.39917
1.63603
1.18547
0.652887
1.22737
1
2.26652
0.296928
1.23744
2.30496
1.00003
1.23993
1.12647
2.61376
1.24792
1.16876
1.14256
1
1.09536
1.17508
2.67664
0.32421
1.08161
0.324224
0.325031
0.32494
1.09997
1
1.07683
1.32857
1
2.48261
1.07536
1.30431
1.50423
2.19362
0.325809
1.23021
0.326052
1
2.29554
3.98613
1.79279
1
1.4205
1
1
1
4.32538
1
0.621531
2.64606
1.6901
1.13199
1.11004
1.68235
1.13343
1.13876
2.63547
2.43847
1.70458
1
1
2.37169
1.74463
1.61644
1.58734
1.27892
1.82802
1
2.61623
1.68058
0.910327
1.11979
2.65543
1
1.57737
2.60227
1
1.93859
0.638863
0.648201
1.90944
1.83986
1.20198
0.451426
2.07685
2.61703
2.29785
2.61394
1
1
1.67251
1.63843
1.67036
1.71008
1
1
2.14508
0.412823
1.47855
1
2.80723
4.29816
1.65236
2.30126
2.58458
4.28024
2.08124
2.61077
1.40194
1
1
1
0.793734
1
1.00136
1.90058
1.76151
1
0.557209
1.66408
1.88789
0.843907
1
1.91246
1.90028
4.07914
0.612553
1.57141
0.943065
0.944148
1.93862
1
1.85511
0.936907
2.53388
2.4679
2.1822
1.28877
1
1.56464
1.09204
1
2.01501
1.85244
0.684415
1.82174
1.81146
1
2.50839
0.322624
1
1.64905
1.9294
1
1.24695
1.76435
1
0.741325
1
0.329557
1
2.68749
1
1
1.23174
1
1
1.89182
1
1
2.26939
1
1
1.69397
1
1
1
2.26621
1
0.642732
1.65716
1
1.81086
1.71138
2.68665
1.75964
1
1
1
0.632845
1
2.49832
2.42093
2.35528
1
3.21047
1
1.00001
1
1
1.93216
0.938117
1
1
2.07197
0.325451
2.10647
1
1.70699
1.24272
1.64891
1
1
2.77737
1.90827
1.08833
1.50695
0.99999
0.679757
1.26905
1
0.956786
2.6398
1.70813
1.70462
1
1
1.85143
1
1
1.16718
1.94828
0.540412
0.34758
0.339061
0.978421
1.33925
1
0.57783
1
2.54079
2.09179
2.34848
2.55297
1.6435
2.04842
0.779285
1.01499
1.05682
1
2.04361
1.86357
1
1.87684
2.29411
1
1
1.81177
1
0.314965
1.38918
0.310132
1
1.74894
1.73162
1
1.58518
2.05805
1
1
1.68558
2.01578
2.22325
1.63915
1
1.68274
0.954923
1.83
1
0.540047
1
1
0.330569
1
1
1
1
2.07874
1.51398
0.538935
1
1
0.678781
1.25946
1
1
2.60221
1.50347
2.61739
1.64485
1
1.34903
0.327624
1
1.2658
1
2.05825
1
1.64331
3.01
1
1
0.652288
1.17291
1
1
1
0.331721
0.332036
1
4.11019
1
1
0.960095
1
1.96437
0.32499
0.953808
1.55606
1.55102
1
1
1.62796
1
1
1
0.71132
0.831422
1
1.61365
0.964369
0.597214
2.65395
1
0.328986
0.8264
1.72947
0.547556
1.16125
2.08955
1.62978
2.85944
1.07579
0.657425
0.937
0.942712
1
3.15359
1.08856
1
2.51223
0.920149
1.72881
1.66737
2.28849
0.325886
0.545387
1
1
3.93559
0.325017
0.324803
2.4811
1.62544
2.39213
1
1.46592
1
0.62116
1.64388
1.5605
2.3429
1.05801
1.80383
1
1.62995
1
3.49658
2.05564
1.65774
2.70449
0.328595
1
1.28031
1.80769
1
1.88809
1.0855
1.62677
0.626404
2.61803
2.25276
1.7089
1
1.84586
4.31002
1.12967
1.58985
0.325465
1
3.72643
1
2.61585
1
1
2.0438
2.25607
2.4564
1
1.93874
1.07678
4.15254
1.87196
1.36994
1.71583
0.55635
0.973036
1.66215
1.65143
1.61125
4.17067
1.97829
1.82358
0.967314
0.938579
1
0.917637
0.719413
2.47139
1.35513
2.54412
0.669492
1
3.75108
1
1.6285
1.67623
1.86815
1.18269
4.3396
1.2577
1
1
2.78928
1.32369
0.325863
1.80827
2.35024
1
2.34492
0.325886
1.23863
2.06587
1.0377
1.08403
2.4889
1
1
1
1.61124
1
1.70514
1
1
1
1.00002
2.33518
1.4445
1.08327
1
1
0.86773
1.4371
4.40745
0.685231
1.84132
1.51768
1.21888
2.28706
2.26403
2.80281
1.83957
0.917666
2.05674
1
1
1.76944
2.15814
1.69772
1.34624
1.06266
1.87268
1.52872
2.29626
1.89829
1.73281
1.19781
2.06966
1.79059
1.84008
1
0.938298
1.25009
2.29134
1.24068
1.84443
2.61297
1.67486
1.89132
1
2.61912
1.85518
1
0.956352
1.15401
1
1.65987
1.20089
2.89081
1.10858
1
1
1.18193
0.5436
1.73603
1.04133
1.19372
1.5226
1.88746
2.60491
1.93062
0.742123
0.613015
0.849175
1.8502
1.19379
0.832788
1.21382
1.63896
1.68803
1.61277
1.77412
3.19066
2.73887
1.77449
1.17613
3.33818
1.23399
0.983982
1.76912
2.24804
1.86659
1.78607
1.68073
1.22284
2.60127
2.58992
0.474016
2.08646
0.493491
2.49384
2.22934
1.49473
2.08943
1.28003
0.623655
1.22305
1.38456
1.91547
1
0.668281
1
1.15473
1.44404
1.82784
1
1.31058
1
4.02576
1.61211
2.61306
2.4708
2.67019
1.24038
1.20048
2.95813
1.43666
2.61625
3.16768
1
0.947989
1
2.65298
1
1
2.28267
1.34831
1.7442
2.17031
0.888235
1.60226
1.44495
0.966129
2.02554
2.19692
2.08191
1
1.85867
2.08197
1.16551
0.771154
0.777776
1
0.317748
1.67378
0.324773
2.67964
1.24371
1
1.12381
1.23143
2.21266
2.0714
1
1.15065
1.95476
1.08476
1.34707
1.86652
1.09559
1.54733
2.04793
1.97227
1.8914
1.82452
1.72656
1.95597
1.94807
1.10332
2.07331
1.16978
2.0535
2.05888
1
1
3.12507
1
1.86446
3.8171
0.885789
1.10192
0.311516
1.22699
1.61912
0.315163
1.48032
1.812
1.07308
2.70296
4.04862
1.14752
1.06458
1.07323
1
0.749735
1.60879
1.06828
2.03695
1.57914
1.58236
1.02231
1
1.01377
1.85504
1.8579
1.73475
0.936483
1.78672
0.790013
1
1.00642
1.79424
1.7838
0.709856
1.10617
0.322332
0.322668
0.840931
1.10074
1.97131
0.816869
1.00812
1.78602
1.7485
0.842975
2.43921
1
1.18234
0.671305
0.326282
1.22769
1.13869
1.81799
1
1
1.32241
1
1.69608
1.69239
1.17059
0.330596
0.330774
4.36412
2.63064
1
0.584733
1.92411
1.75052
0.777398
1.12314
1.06993
1
1.90151
0.98025
1.60119
0.933131
1
0.959248
0.979907
0.328119
0.942113
1.81554
1
1.30031
0.999997
1
1
0.992857
2.74608
1.22906
1
1
1.35103
1.03281
1.02685
1.87692
1.86304
1.67501
1.09283
1.08066
0.32603
1
1
1.90261
1.25878
0.3314
0.33092
1.09975
1.73893
1.80768
1.63545
0.938112
1
1
1.68875
1
0.329143
1.26713
1
0.663873
1.62027
1
1.58513
1.38267
1.35265
1.56212
0.806259
1
3.75902
0.325665
1.98216
0.777654
2.0395
1
0.761069
1
1
0.907745
0.767243
3.29583
2.06391
1.7777
1
1.29447
1.30512
1.29028
1.58659
0.329303
0.325181
1.67261
1.06756
0.329463
1.84925
0.892237
1.80999
0.325171
1.0814
1.1448
1
1.76355
1.79193
1.23392
1.29176
1.73536
1.26693
1.2528
0.325881
2.13506
1.1762
0.712207
1.89119
0.948578
1.22309
1.30461
1.69192
0.326204
1.58302
1.88017
1
1
1.55162
1.71442
3.03064
1
1.64802
1.21455
2.06791
2.36154
1.67436
3.158
1
1.14658
0.86418
1.10089
1.71922
1
0.920643
1.07366
0.841875
1.68312
1.49264
1
3.06194
0.800199
3.04482
2.613
1.04001
1.63596
0.865715
1.00419
1.59171
1
0.999985
1.66369
1.28345
0.96095
1.15717
2.21044
1.39952
1.14631
1.73544
2.1672
1.23674
1
1.58779
2.05069
1.59966
1.22946
1.22203
0.945286
1.16636
0.82216
1
2.16767
0.597528
2.07041
1
1.27123
0.324318
3.15428
2.06374
1.51107
1.82883
1.03539
1.6215
1.80509
1.02569
1.8581
1.18331
1.26774
1
1
1.93718
1.98379
1
2.42205
2.54167
1.00226
0.942188
1
1.87858
1.00167
0.94253
1.75346
1.3609
1
1.14004
1
2.6078
1
0.792747
1.24389
1.55791
1.95656
1.23704
0.888781
1
0.786602
0.982614
0.325272
2.61787
1.37252
1.9616
3.5466
1.94918
1
1.99266
0.323693
1.99591
1.7502
1.39548
2.61538
2.22546
2.02819
2.03416
0.325097
0.768146
1
1.4909
1.39054
2.07931
1.48674
3.17574
2.06022
0.999915
1.23115
1.28604
2.1158
2.11412
1.42523
1
1.19304
1.18564
1.18677
0.951354
2.79979
1
2.75782
1
1
2.70773
1.58478
1.9203
1.22125
1.21665
1
1
1.67084
1.64717
1.21968
1.02127
1.88279
0.952591
0.973468
1.05024
0.604258
1.82761
1.07353
1.02591
1
0.856152
1.68199
2.12402
0.619649
0.325634
1.73904
1.43109
0.325598
1
1.13556
2.01431
0.957223
1.65208
1.88029
1
1.81294
1
1.66815
1.8765
1.28469
1.59051
1
0.905598
1.27798
0.927062
2.61701
1.08188
0.567673
1.70569
1.92426
2.6128
1
1.3128
1.31885
1.35168
1.34542
1.3879
1.37961
1.76774
1.94669
1
1.42411
1
1.41984
1.78764
1.57517
1.79205
1.6045
0.347195
2.06205
1.56807
1.59976
1.45312
1.44832
2.60933
1.58331
1.11941
0.33069
0.328506
1.49384
1.48604
1.55992
1
1
1.51866
0.932288
1.11667
1.16063
1.52274
2.60919
1.55317
1
1
0.557077
1.22252
1
1
2.15473
1
1.59878
1.59299
1.65039
1.63769
1.2759
1.19964
1.88721
1.90429
1.33357
1.11897
1.71555
1.71037
2.6141
1.3442
1.1109
0.326433
1.29484
1.09188
1
0.764987
1.16097
0.330217
2.6045
0.43232
0.325966
1.42964
2.61471
1
0.884311
1
1.62952
1.13569
2.61697
1.57636
0.584441
1.54547
1.75961
1.1923
2.6145
2.91674
1.96407
1.28228
1.963
0.315391
2.61639
1.60113
1.91676
3.37005
2.60946
1.81355
2.60636
1.00054
1.58102
2.6075
1.14002
1.57765
2.61909
1.34953
2.77616
2.2272
2.61822
0.534323
1.3525
2.54048
1.1317
2.6025
1.60356
0.99994
2.60505
1.05911
1.7764
1
1.19915
1.42651
1.93108
3.466
1.93625
1.15014
2.08328
1.57879
1
3.52318
0.998559
3.23849
2.60965
2.61216
2.59324
4.32981
0.709949
2.86247
2.61263
0.545135
1.94269
1.26766
2.42211
1.69176
1.54189
1.54423
2.25583
1
1
1.18919
1.94318
1.92944
2.25273
1.56619
2.3004
1.02702
3.44454
2.28809
1.93434
1.82673
1
4.3406
2.02
4.29122
4.32564
1.45505
3.41565
4.42067
4.42359
1.06033
1.27452
4.43103
1
1
1.00004
2.86184
1
1
1
2.89469
1
1.3467
0.951436
1.87757
2.11606
1.8793
0.592857
1.67584
0.326584
3.04407
1.97921
0.884081
0.869888
0.859906
1.49181
2.37243
0.747712
1.55296
1.69786
1
2.04564
0.665955
1.11807
1.34931
1
1
1.114
1.34425
2.95597
1.87814
3.03939
2.512
1.9338
1
2.91314
2.53161
1
1
3.01429
1.36122
0.822601
0.819022
1.24993
2.85243
1.12597
1.11537
1.65512
1
1
1.6088
1.59562
0.693174
1.20698
1
1.21657
1.93875
1.27093
3.06516
1.28016
1.33833
2.23156
1.15586
1.78401
1.42765
2.88968
1.63616
1
2.08938
2.59784
0.999998
1
1.65427
2.61083
0.327531
2.52055
1.86532
1.85812
1.68693
1.32356
1.23511
1.66921
1.65037
2.01544
1.13644
1
1.70433
0.961279
2.61217
2.61036
2.00516
4.43337
4.09806
1.79787
1
2.61379
1.51755
1
1.23631
0.329353
1.33197
1.92028
1.91914
1.93315
1.35832
2.20506
2.54515
0.724473
0.854142
2.61117
1.5421
1.01487
1.01054
0.552581
1
2.90228
1.25973
1.39733
1.64399
4.24613
0.330879
4.12065
1.89882
4.23248
1.05364
1.69091
2.82005
4.30925
0.883888
0.999992
1.84972
2.21904
0.562434
1.87712
1.58041
1.85882
1.3354
1.0783
1
1.52716
1.31916
2.17114
4.36027
1
4.38709
0.880713
2.03548
1.53974
1.61463
0.748827
1.2985
1
1
1.87644
1.84881
0.758811
1.50716
1.66634
1.47466
1.68553
3.11548
1.68182
1
1
1.68746
1.11092
1.79983
1.2463
0.947116
2.74558
1
1.18998
2.01333
2.70291
2.69396
1.16278
1.4296
3.50167
1
1
0.735594
1.76868
1.2026
1
1.33818
0.956889
1
1
4.65723
0.71194
1.32063
1.72667
2.69229
1
1
4.33599
1
1
1.8696
1
1.5603
1.21113
1
2.62131
1.92627
1
1
1
0.72376
2.11919
1.5645
1.87051
1
1.71682
1.8696
1.87475
2.64206
1.00002
1
0.867312
0.882369
1.17961
1.49371
3.40696
0.97056
1.07536
1.50047
2.15338
0.999356
1.8077
1
1.75986
2.07834
0.616049
2.08047
2.02376
2.60193
2.29036
1.76614
3.00733
1.87617
1
0.983681
2.08199
2.24307
2.1207
0.881305
1.26731
2.64751
2.1271
0.327583
1
1.89702
1.32634
2.24367
1.08563
1
1.68801
2.68238
1.87196
1
1.14245
1.17145
1
2.20794
1.00004
0.326571
2.27519
1.90754
1.11248
1.91653
2.32007
1
1.29508
1.87497
1.28973
0.666472
1.862
3.14389
1.67001
0.806893
1.80081
2.61292
1.21163
0.997639
1.30539
0.879191
2.61655
1
0.559441
1.1665
0.791266
1
2.27555
2.55447
1.16767
1.17097
1.52889
1.00016
1.32146
2.61119
2.40045
2.60782
0.947029
1.34673
1.66822
2.60452
1.60987
1.25255
2.326
2.23999
1.98861
0.895988
2.6161
1.87174
3.01207
2.61682
1
1
2.61413
2.41935
1.86961
1.06178
0.755202
1
1.72213
1
1.36262
1
1.56769
1
1.72116
1.26368
3.21148
2.23096
1
1
4.45595
1
0.890733
1.51118
4.53318
3.7906
2.00982
1
0.972714
2.61684
0.977688
1
1.24051
1
1.87003
1
0.95895
2.61633
2.61289
1.67706
1.29624
0.999999
1.95845
1.94383
0.999994
1
1.15086
1.88318
0.999991
0.716295
2.61108
0.976789
1.83731
1.78972
2.58865
3.80228
0.863611
1
0.817667
1.36691
1
1.02482
2.65207
2.60982
0.815426
1.14136
0.958274
2.63161
1.84955
1.36376
1.04092
1.56944
2.72895
2.38381
0.999998
1.44119
2.60789
1
1.20273
1.57566
1.2608
1.29865
1.82116
2.39369
2.98362
3.31118
2.1874
0.945352
1.82707
2.34404
1.32586
1.12421
3.01843
3.37372
1
1
2.05018
0.77065
1
1.67249
2.20866
1.0972
1.78002
1
1.79044
1
1
1
1.53488
1.4988
1
1.11256
1.64155
1.62328
0.635155
2.43825
1.63581
2.75014
0.99997
2.49683
1.57861
1
0.827116
1
1.80325
1.5898
0.83885
2.75273
1.5369
1.91217
1.79472
1.4907
1.41942
1.16678
1.49851
1.47056
1.58213
1.48255
1.43447
2.62588
1.437
1.86259
1.13469
1
2.03402
1.9364
1.95
0.951593
2.60445
1.3097
1.40659
2.62546
2.09758
1.90788
2.098
1
2.22267
1.00002
1.11917
1.86639
1.37375
1.38399
0.3306
1.93755
2.28335
2.60783
1.27102
1
1.16963
1.4575
2.60916
2.57406
1
2.21708
2.60903
2.22049
1.16609
4.04321
1.84589
1
2.61317
1.23674
1.8975
1.86954
1.3624
2.62408
1
2.62164
1
1.83146
0.905013
1
1.90381
1.32569
1
2.12219
1.77664
3.33841
2.96528
4.09722
1.00008
1.27058
1.73425
0.999997
2.17861
1.95201
1.90111
1.7382
2.61705
3.28204
2.61156
1.81697
1.74971
1.00155
4.41319
1.46559
0.550702
1.6912
1.59996
3.68928
1.79377
0.564205
1.50857
1.58467
1.18879
1
4.55422
3.75428
0.857734
1.92298
1.00012
1
1.59552
2.44932
1.23958
2.24378
2.19465
0.847125
1
0.938148
1.89336
0.327715
4.30446
1.9326
1.02943
1.00012
1.59286
3.49988
2.35217
1.52925
0.817639
0.808905
1.53741
1.54263
3.9011
1
2.6
0.643227
0.730029
1.26992
2.61269
2.51745
2.62075
1
1.53366
1
1
1
1.49828
1
1.17708
1.4063
0.764611
1.3484
0.78495
1.42035
2.64134
1.29132
1
2.61672
0.897256
1
0.926728
1.60952
1
1
1
2.10126
3.83616
1.19609
3.09658
1.19891
1.67614
4.44752
1
2.18879
1
3.0737
2.65963
1.2492
2.62341
1.67961
2.60678
1.12713
1.26048
1.86841
1
2.6092
1
2.1275
1
1
1
2.79009
2.61115
1
1
2.00166
1.33313
2.68087
2.42446
1.65629
1.74516
2.41899
0.812551
1
1.87379
1
0.993698
2.61058
1.00331
2.2414
2.02276
1.97414
1.71436
2.01048
1.47973
0.330677
2.61644
2.61337
1.46425
1.73576
1
1.45425
2.60347
3.62381
3.35996
2.63313
0.929657
1
1.31151
4.13361
1.994
1.98925
2.06261
1.47977
0.940033
1
1.34023
1
2.62156
1
1.77876
2.64034
1
2.61568
1.35344
1.1316
2.60961
1.77556
2.6195
1
0.884576
0.900674
1.63887
1.70001
1.82305
1.81285
2.6129
2.6161
1.43067
1.63729
1.18443
1.43186
2.04169
2.61152
1
1
1.45214
1
2.61548
1.64774
1.81411
1.52117
1
1
1.46339
1.7412
0.896687
1.23225
1.31064
1.50489
1.66699
1.82131
2.61049
2.03691
1
1.52175
1.23584
2.45342
1.60738
1.56098
2.60845
0.855447
1.60007
1.61837
1.76157
1.81025
0.737933
2.61015
1.73584
1.80037
1.27274
2.61421
2.62053
1
2.6132
1.77152
0.765325
1.86404
1.92174
1.70661
1.70344
1.63688
1.28357
1.68989
2.63618
1.87873
2.61046
0.327397
2.58841
1.42226
1.59916
1.5916
1.15751
0.826804
1.87892
3.35704
2.19834
1
2.07108
1.876
1.87838
1.60182
0.950416
1.31792
1.32864
2.63175
1.19458
1.91989
1.92644
0.806483
1.60711
2.61483
1
1.1472
0.800016
0.787314
1
2.05623
0.775368
1.97661
1.9685
2.0675
2.06013
2.06616
1.00039
2.00132
1.99801
2.62976
0.807802
1.63228
0.75668
2.61231
2.03667
2.03444
2.61117
1.11306
1.20274
1.7529
0.835254
2.61057
1.21141
2.24393
1.46715
2.61073
1
1
2.10243
2.11482
0.32291
2.62185
0.6227
0.745021
3.43672
1.60843
1.36967
1.85938
0.959038
1.76631
2.6117
1.16871
1.16115
2.05437
0.993137
1.15995
1.61799
1.61926
1.21524
1.23683
2.23481
1.19094
1
0.999993
1
1
2.23921
1.12928
1.30886
1.95679
1
1.69728
1
2.60706
1
1.2102
1.20557
1.76874
1
2.61591
4.26163
1.00203
1.51229
1.20652
1.57121
1.53961
1.70149
0.773248
1.32672
1
1
0.762868
1.46727
1.73178
1
0.872182
0.94417
3.24696
1.3989
1.33298
1.66672
0.943596
1
0.789754
1.16729
0.87376
2.76758
2.11764
1.70203
2.11502
1.36229
1.00037
1.33751
1.29891
1.80314
0.823179
1
1.27253
1
1
1.95869
0.813619
4.29658
1.33178
1
1.17108
1.41766
1.20969
1.53757
1
1
1
1.53424
4.55513
1.9543
0.927884
1
1.62525
1.35082
1.56553
1.99938
2.21384
1.41286
1.50329
1.40303
1.19747
0.907838
4.35424
1.93766
1.30983
1.92321
1.078
1.71615
1.04601
2.12403
1.1398
2.61248
1.31485
1.71076
2.00848
0.907089
1
1.31432
2.6133
1
2.40845
1
1.51493
1.50719
1.64133
2.55404
1
1.6954
1.47505
1.08533
1
0.618344
0.732593
0.86411
0.757722
2.0524
3.43372
1
0.7924
0.951571
2.71571
0.820663
1.94401
1.42561
0.987896
1
1
2.88087
1.43529
1.42153
1.4286
1.67744
1.6695
2.51378
1
4.42227
1.41013
0.96509
0.597733
0.751391
1
2.47307
1.00001
1.61854
0.620292
1
1.74195
1.40552
2.60289
1
2.61701
1.75091
1.38358
1.38733
2.61625
0.999974
1.37926
2.61817
0.888559
1.36122
0.999996
1.53359
1.75826
0.887057
1.47856
1.90443
0.999975
1.79749
1
1
1
2.61371
1
1.81415
1.81681
1.12699
2.94164
2.96037
1.28194
2.32015
1.76377
1
2.02101
2.61625
2.6113
0.615492
1.77901
1.76754
4.36207
1.5351
2.61693
1.24398
1.0508
1.35486
2.60908
1.14841
0.999997
1.18164
2.61061
2.89135
1.15409
1.09425
1.1851
1.68841
1
2.50008
4.17412
1.95645
1.93971
1
1
1.74974
1
1.0003
1.87512
1.08341
0.999209
1
1.89079
1.23
2.00003
1.00001
2.38872
1
1.42321
1.40065
1
1.42901
1.37226
2.34297
1.24545
1.00017
3.61149
2.42344
1.00001
1
1.44113
0.775718
1.28811
1
1.42509
1.44588
1.10083
4.41292
1.86853
1.24917
1.84481
1.31606
0.962209
2.85733
2.18147
1.78556
0.952316
1.26671
2.62401
2.0252
1.48373
1.43655
1.23251
1.8426
1.49322
0.61992
1.83384
3.10927
1.00073
2.62046
1.49732
2.65711
0.970634
1.51056
1
1.6335
1.35229
1.94596
1
1.8405
1.90404
0.99459
2.74024
1
1.3341
1.24442
2.33156
1.9103
2.6788
1
2.37075
1.25422
1
1.45932
0.838768
1.22824
4.49773
1.67092
1
1.80344
1.2254
1.60303
1.7191
1.00001
0.869063
0.830135
3.69325
1.64588
0.327838
2.19619
3.41536
2.12767
2.70931
2.06481
1
1.00002
1.6385
3.21838
2.00325
1.7947
0.883169
0.862873
1.66961
1.58714
2.61012
3.3157
1.81406
1.00123
1.26743
1.00004
2.60626
2.3395
1.27251
0.921644
1.53335
1.91187
1.95189
1.86452
1.90371
0.990015
3.00289
1.5107
4.33581
1.75512
2.57861
1.34017
2.01837
2.61644
1.45586
2.26486
1.33958
1.6451
2.35046
0.833629
2.42928
1.40811
1.03855
1.81348
2.61201
1.5508
1.41
0.675736
1.80003
2.34017
0.81306
1.20818
1.22912
1.82183
1.23487
0.999776
1.4053
1.78258
0.906956
1.39858
0.691793
1.27477
1
1.22686
1
1.46593
1
0.880038
2.41484
0.857381
1
1.83017
1.54548
1.06263
1.52057
0.679007
1.27463
2.31156
0.875643
1.64212
1.50441
1.02359
1
1
2.78178
1.54525
4.30792
1.52555
0.750863
1
1.00001
0.8695
2.10918
1.20678
1.1929
2.50005
0.954578
2.50229
1.96731
1.13353
1.98053
2.60877
1.77345
1.93563
0.9102
2.11279
0.999998
2.14791
0.837301
1
1
1.46594
1.00004
1.76443
2.34233
2.00905
1
2.01585
1
1.00001
1
0.999995
2.1064
1
1.04391
0.81737
1.22322
1.09926
1
1.37741
2.6243
1.18153
2.3669
0.81528
2.30773
2.61468
4.38414
0.903894
1
1.17963
1.7841
2.11666
0.95966
1
1
2.00037
1
3.60644
4.33584
2.62613
2.6155
1.45636
1
1
0.999999
1.83162
2.27103
3.21175
4.36203
1
2.35434
1.03497
1.90262
2.70501
2.12898
0.844154
0.999999
1.07172
1.40469
2.61578
0.792283
2.27354
1.15648
1.80776
1.16113
2.63387
1
0.91155
0.782643
2.61461
0.931514
1.46822
0.854456
1.77381
1
0.921551
0.900989
3.99406
1.81154
1
1
0.989241
1
2.12693
1
1
1.40598
1.02531
1.32037
2.63245
1.35478
3.9277
1.2507
1.86604
1
1.20594
1
1.00001
1.5307
4.31492
1
1.67758
0.967978
1.10926
4.45221
0.999671
1
1
0.32355
1.73034
2.32243
1
1.86891
1.11765
1.84542
1.28586
2.33552
1
2.62128
1.3011
1
1.461
1.23601
1.64484
1
2.61714
1.27705
1
1.79505
1
1.87173
2.61446
1.87343
0.683082
1.94139
2.61406
0.769572
2.28051
1.89266
1.56313
1.00002
1.6069
1
1.70776
0.844408
1.10899
2.94404
2.46045
1.70477
1.11693
1
2.15575
0.777529
1
1.00006
1.00253
2.99203
1.00324
1
3.03514
1
1
0.904376
1.17178
2.82424
0.987334
1
2.68605
1
1.0001
0.779852
1.18806
4.39332
4.30048
1
1
1.00004
2.09161
1.09876
1.18941
2.06896
2.06972
1
1.48858
1
1
2.11979
1.28077
2.755
1
2.39871
1
0.793881
1.00075
2.11817
1
2.60272
1.28998
1.26267
1
1
1
1.246
1.07614
1
2.61262
0.956436
0.864154
0.845253
1.60395
1
1
0.999021
1.05458
1.1898
1
2.61139
1
1
1
2.32336
0.999996
1.42475
2.58605
1.42692
0.943916
1
2.96724
1.09296
1.79589
1.13999
0.918269
2.36177
2.86069
1.16069
2.61107
3.29946
2.29749
1
3.40593
0.671811
2.24935
1.16885
1
2.61154
2.32039
1
1.09312
2.29435
1
1.74842
1.75854
1.73906
1.07441
1
0.998542
1
1
1.00007
1.46069
3.17633
1.7633
1.54338
1.46045
2.66168
0.887489
1.26768
2.90849
1
2.47618
1
2.2311
1.37792
2.23453
1
1
1
1
1.00073
2.4736
1
1.04026
1
1
1
4.38268
1.78413
4.2922
2.60024
2.96788
1.00186
4.25305
2.09754
1.13425
2.61712
2.42087
2.28123
1.20793
1.09596
1
2.06169
2.27392
1.47647
2.21598
1.91931
0.999984
3.03747
0.708087
2.13843
1.00017
4.18668
1.1403
2.4399
2.39911
2.61813
0.32847
2.84153
1
0.640883
1
1
1.79588
1.18706
1.31967
0.826085
1
3.01953
4.18521
1
1
2.07923
1.15431
2.34858
0.999648
0.96442
1.61203
2.61551
1
2.40223
1.91007
1
2.76492
0.984179
1
1.59313
0.638182
0.903324
1.32424
1.39741
2.69454
1
0.917527
2.61859
4.52117
1.1601
1
1.49926
2.61034
0.790854
1
2.68998
1.82232
1.23253
4.01401
0.995226
1
0.614756
1
2.61471
0.979164
0.954988
0.879322
2.11645
0.978554
1.00739
1
1
2.38041
1
2.61207
1.13221
0.773457
1.71076
1
0.617164
1
1.78619
1.94376
1.58233
1.2468
0.359494
2.61215
1.47044
1
1
1.35591
1.35948
1
1.55661
4.29773
1.72186
2.07662
1
1
1
0.893995
2.13698
1.51021
0.963226
1.33558
1.77638
1.52117
2.38606
1
1
1
1.76404
0.857053
0.897851
2.60937
0.898133
0.86923
2.37996
1
1.38399
1.08421
1
1
1
4.44353
2.98466
2.23108
1.38643
2.36094
1.19855
1.74815
1.39377
4.25349
1
1
1
2.61811
1.25187
1
2.69628
1
2.18277
1.86869
2.61468
2.61678
2.58598
2.44628
1.00001
2.61973
2.60609
2.38931
1
2.04686
0.999999
1
2.94049
2.52444
1
1
1.24152
1.3361
2.39524
0.805732
2.57293
1.59464
1
1
1
2.01348
1
0.624226
2.93544
3.02848
2.20666
2.25014
2.60988
1.80616
1.91007
1
1
1.45806
2.60908
1
1.38787
1.50906
1.86082
2.61851
1.95993
2.0387
0.891355
1.31644
2.10935
1.9071
4.57688
2.61577
1.63566
1.87241
2.60997
2.6136
1.29595
1.64111
1
1
2.61678
2.27926
1.20834
1.57955
2.63946
1.21982
2.20578
1.00002
1.36928
2.47573
2.61166
1
1.20201
1.20044
2.01357
1.29757
2.60998
4.31039
2.61621
4.3708
2.61512
1.9685
1.6131
1.52907
2.61132
1
1.2123
2.16404
2.52926
1.02858
1
2.61276
0.802453
0.335597
0.617485
1
0.798076
1.20246
2.60991
2.03681
1.37414
1.29179
2.61798
1
1.09407
2.81023
0.838617
1.52515
1
1.54034
1.87757
1
2.61016
2.3773
3.52571
1.2295
1.23528
1.49269
0.999986
1.61265
1
2.12813
2.61
1.78487
1.01428
1.08967
1.80536
1.66492
1.70587
1.78807
1
1.91433
1
1.43986
1.53055
0.897718
1.88878
1.08497
1
1.55783
1.21405
1.21033
1
1
0.790159
2.31609
2.54911
1
1
1.43015
1
1.47607
2.46045
0.991973
1
1.30371
1
2.28565
1.0847
2.62647
1.11991
1.488
1
1.40564
1.77175
1.65672
1.47496
1
1.2087
2.62639
1
0.947123
1.4554
0.843715
1.43991
1.41713
1.64977
2.61089
1.44861
1
1
1.00006
1.44165
1
1.7718
1.55054
1
1
1
0.999999
2.60391
1.10065
0.317346
2.58312
0.83969
3.67865
1.5258
0.765604
0.807461
1.22244
1.65919
1
1.48803
2.59903
1.65779
0.624126
2.6156
1.99952
1
2.28233
2.72755
2.59093
1
1.24948
1.23826
1.62205
1.46438
1.66119
1.27113
2.75487
2.61422
1.15534
2.38142
2.64929
2.62435
1.54035
2.24939
1
1.62973
1.3815
1
1
1
0.722687
1
1
1.57344
1
1
2.61678
1.00002
1.46515
2.61287
1
1
0.996873
1
2.75646
2.61285
1.59411
0.803066
2.61496
2.55192
2.63293
1
1
1.69931
2.54608
1
0.826854
1.25738
1.57109
0.809331
0.806521
1.20381
0.774482
0.997029
1.1245
2.60985
2.61228
0.794694
0.798813
2.61618
1
1
1.91968
1
1.50855
1
2.61604
1.19309
1.19397
1
1
1.36794
2.57658
2.61646
2.60994
1.00061
2.53395
1.53621
1
1.49872
1
2.57753
1
0.936041
0.776564
1
1
1
2.27852
1.45421
1
1
1.21958
0.995773
2.35808
1.20783
1
1.28946
0.574834
0.828723
0.999997
1
2.60891
1.7938
1.40798
1
1.39391
1.79354
2.43695
2.61288
1.5818
2.5934
1
1.05534
1
4.21178
1.74355
2.61103
2.21618
2.6091
0.79445
1
1
0.734098
0.999997
1
2.6157
0.779202
0.769756
1.49094
1
1.00239
1
2.54377
2.55064
1
1
1.43372
1
1.4135
0.651864
1.44322
0.715459
2.97444
4.01717
1.09791
2.61185
1.16185
1
4.34594
1
1.86845
2.61056
0.757683
1
1
2.61043
1.39905
0.932459
1
0.329013
2.17115
1.77934
1.00562
2.59704
2.16777
1
0.945718
1.47257
0.811905
2.24255
1.5945
1
1
1.00405
1.20426
2.45872
2.61226
2.62696
1.89685
0.977205
1.66876
2.62075
1.59196
1.88579
1.50377
1
1.00118
1
0.999991
0.99746
0.657086
2.6937
1.15939
1
1.97597
1.41906
1.1611
1.097
1.15688
1
1.4126
2.97085
1
1
1.17465
2.61269
2.45984
1
1
1
1
4.63163
1.50455
2.55667
2.93878
1.67428
1
0.999997
2.6146
2.67297
1.4887
1.16735
2.58701
1
2.74905
1
1
1.00028
1
1.08614
2.06905
1
1.52493
1
2.62511
1.4969
2.53529
1.00224
1.00025
1
0.63335
1.09159
1
2.32882
2.60762
1
2.02574
1.74623
3.16568
1
2.49833
1
1.00012
0.949713
0.947042
0.993223
1.99184
1
0.888085
0.996738
2.62482
1.78423
1
2.62554
0.98306
1
0.328454
2.40724
0.842848
0.595624
2.3149
1
1.95348
1
1
1
2.61529
2.40243
1
1.00135
1.11019
2.91134
1.90591
1
0.64215
2.61757
1
0.899435
2.96732
2.15996
1
2.06738
1.39611
1
1
1
1
2.70441
1.12421
0.627688
0.999364
2.40126
1.4973
2.59519
3.05123
1
1
1
1.62848
1
2.12674
2.98851
2.01186
1.90571
0.327587
0.47527
1.40541
0.663485
0.328476
1
3.53408
3.23077
2.24171
1
1
2.23665
2.62209
1.00902
2.41402
2.27751
2.55898
1.90605
1.78781
1.89718
0.810902
1.3918
1
1
1
1.75973
0.985821
1
1.43058
0.965227
1.0653
2.24556
1
2.51763
0.809871
3.46258
1
1
0.470171
1.04882
0.694854
1
2.61146
2.06488
0.670891
2.61102
2.68225
2.20601
2.53309
2.61267
1
1
1
1
0.401007
1
1.45786
0.9411
0.324639
2.61635
0.649989
1.28743
2.2107
1.14186
1.3977
1
1.07048
1
0.894935
2.61348
2.59217
3.82349
0.667054
1
1
1
0.625192
2.91149
1
1
1
1
2.26885
1
1
0.324075
1
1
1
1
0.534837
1
3.19666
1.99062
1.06573
1
1
1
1.28736
2.43086
1
1
2.95078
3.16837
1
0.394935
0.332356
1
1
1
1.33001
3.08885
1.18303
0.92674
1
1
1
1.12548
0.854072
1.11941
2.61634
2.60873
1
1
2.78613
1
0.914987
2.62141
0.872013
2.59109
4.07506
0.951743
2.62088
3.37642
1
0.74856
0.432061
1
0.85396
1
1.96255
1.12638
1
0.641521
0.609413
1
1
1
0.909046
0.92476
2.61363
1
1
1
0.896879
1
1.10475
1
1
0.415226
1
1
1
2.29725
2.32171
1
0.357826
1.15746
0.341226
1
2.60446
1.78123
3.58492
0.981274
2.08284
1.15811
0.960833
0.630409
0.989765
0.330146
2.50087
3.23388
4.16864
0.351379
1.99838
1
1
1
2.43015
2.62971
1
1
0.74172
2.06899
1.03164
2.31805
1.15579
1.40528
2.34939
1
0.37127
2.58961
1.13855
2.19683
0.737405
4.01622
0.90015
2.59329
3.3966
1
2.61563
1
2.6113
2.16557
1.41786
1.95749
1.70218
1
2.61093
1
1
1
0.88023
1
2.61245
1
0.956383
1
1.32184
1
0.917252
1
2.52131
1
1
1
1.00013
3.41849
1
1.95088
2.6145
2.59426
1
1.89879
1
1
1.98227
2.60338
4.14372
0.349235
0.322893
1
1.73505
1
3.12028
0.624791
2.61217
0.359384
2.47408
1.43193
1.50825
2.61445
2.24727
1.00084
0.934468
1.40318
0.921707
0.481081
0.811602
1
1
3.27327
0.834758
1
2.36681
0.309224
1
1
1
1.82343
3.69462
2.61625
1.63546
1
2.6151
1.90317
0.992851
2.59992
0.977475
0.941072
0.995155
1.03717
1
4.7663
0.914133
1.36834
0.976567
1
1
1.00015
2.61139
1
2.61342
1.03104
0.773508
0.326901
1.4626
0.971927
0.329567
1.04182
1
1.06672
1.0925
3.31228
1.08266
1
2.61471
1.48275
2.85625
1.70057
0.965205
0.577484
2.59853
1
1
1.09583
1.31646
1.17153
4.22705
1
1
0.993527
0.32708
1.64284
1
2.6181
1.18072
2.61179
1
3.67715
1
1
0.571056
1
1
2.61285
1
1
1
1.36505
1
1.67313
2.06916
1.56486
2.1767
1.46294
2.45809
2.61262
2.61271
3.28049
0.942103
1.54433
1.44172
1.37741
1
1.43087
0.99776
2.60646
2.61665
1.6318
1.07217
1.52566
0.328055
0.859273
2.61824
1
0.328456
1.6036
0.888042
1
1
1
0.329814
1.58534
0.821447
1
1.84368
1.38766
2.44485
1
1.47946
1.8333
2.61647
1.12254
1.54223
1.7839
1.4037
1.56677
2.65927
2.19813
1.79477
0.326845
1.39134
1
1
2.61514
1
0.780236
1
1
2.61131
2.61248
1.63075
1
1
2.76303
0.910229
0.732043
1
0.963826
1.49687
1
0.966965
0.955724
0.818274
2.23368
2.8631
1
1
1
0.943606
2.6111
2.23229
0.66473
4.3652
3.07684
1.94079
0.779942
0.5794
1
0.777392
1.31349
1.33545
0.330519
3.61617
3.22596
1
1.10023
1.62786
0.532642
2.61376
0.593678
2.61188
1.09437
0.326145
1
2.61562
0.614882
4.41748
2.69058
0.966432
1
3.76568
1.92953
1.25546
1
1
2.61145
0.947397
1.27756
2.61107
2.77145
3.16409
1.48
1.29575
0.962024
2.05952
1.00019
0.652921
2.61488
1
1
1.68089
1.93673
4.39666
1
0.333371
1.26628
1.5638
1
2.62073
4.46375
1
1.77667
0.478706
1.50703
0.433475
4.40851
1
1
1
1
1
4.3224
1
1.66333
1
1.44765
0.320219
0.318352
2.57203
1.80604
0.329012
1.47878
1.24205
1.24532
1
2.79321
1.25684
0.970407
4.6117
1
2.60945
1.33335
0.330483
0.398524
1
1
0.97201
1.31173
4.39512
0.371745
1.08076
1.21404
1
3.73817
0.334891
1
2.61766
1.70895
1
0.999999
3.15552
1
2.60056
1
0.329347
1
1
1.3262
0.863145
1
0.991698
2.6072
1
1
1.01359
1
1
1.96059
0.797346
2.38251
1
1.60879
0.922044
2.61129
2.61845
1
2.59956
2.58353
1.11898
1
1
1.50382
3.04542
0.3298
0.987328
2.07488
1.09974
2.6096
0.978015
0.327492
0.858445
1
1
1.09249
2.07759
4.14706
1.08261
0.587287
3.76855
0.329657
0.32407
1
1.13518
0.341423
2.61444
1.95022
1.12053
1
1
1.48222
1
1.94238
0.857345
1
1
0.33047
0.961109
1
2.62419
1
1.10931
0.353882
1
1.29369
1
1
0.437776
2.61059
0.575056
2.5392
0.329402
2.61599
2.60537
1.2485
1.46549
2.61307
1
2.34999
1
0.582899
0.992674
1
0.987148
1.31131
0.322864
0.862505
2.61408
1.61795
0.577817
1
0.328837
2.58592
0.327222
1.27843
2.60958