/*--------------------------------*- C++ -*----------------------------------*\
  =========                 |
  \\      /  F ield         | OpenFOAM: The Open Source CFD Toolbox
   \\    /   O peration     | Website:  https://openfoam.org
    \\  /    A nd           | Version:  12
     \\/     M anipulation  |
\*---------------------------------------------------------------------------*/
FoamFile
{
    format      ascii;
    class       surfaceScalarField;
    location    "5";
    object      phi;
}
// * * * * * * * * * * * * * * * * * * * * * * * * * * * * * * * * * * * * * //

dimensions      [1 0 -1 0 0 0 0];

internalField   nonuniform List<scalar> 
67988
(
-0.000338938
0.0003407
-1.7884e-06
-0.000299317
0.000299156
0.000204687
-0.000431251
0.000226285
0.000129967
-0.000286503
0.000157418
-0.000143943
-7.78638e-05
0.000222145
-8.84567e-05
0.000254601
-0.000166988
-7.30546e-05
0.000312447
-0.000240714
-7.94923e-05
-0.000191605
0.000271097
0.00018869
-0.00018627
-2.50872e-06
0.00021086
6.63656e-05
-0.000276776
-0.00020346
-3.10806e-05
0.000234946
-0.000358627
0.000149611
0.000208714
-0.000311782
0.000116248
0.000194942
0.00017271
-0.000289168
0.000116458
0.000182409
-0.000133506
-4.84126e-05
-0.000157093
0.000111093
4.5532e-05
0.000236775
-0.000321116
8.43419e-05
-9.63764e-05
-0.000174021
0.000270397
-0.000174692
0.000255089
-8.05459e-05
-0.000308123
0.000199645
0.000108339
0.000216889
-0.000280001
6.31122e-05
-0.000425586
0.000395704
3.00325e-05
-0.000301534
0.000302894
-1.30613e-06
-0.000216623
0.000291733
-7.51103e-05
0.000102816
0.000177185
-0.000280001
-0.000216738
0.000127096
0.000167077
0.000105532
-0.000272609
0.00030659
-0.00030659
-1.12875e-05
0.000121395
-0.000110583
-0.000334045
0.000200436
0.000133331
3.13423e-05
-0.000218887
0.000187539
0.000314606
-0.000195791
-0.000118816
-0.000343198
0.000255475
8.77331e-05
-0.000185059
-6.65321e-05
0.000251821
0.000238482
-0.000280251
4.29232e-05
0.000262898
-0.000349875
8.73749e-05
-0.000206208
6.20107e-05
7.58803e-06
-0.000245197
0.000237609
0.000217763
4.87697e-05
-0.000266257
0.000133925
-0.000320153
0.000186229
-0.000310289
0.000121492
0.000188796
0.000131606
-0.000137612
5.90349e-06
-0.000215741
0.000223329
-0.00027343
-8.51793e-05
-0.000306568
0.000134799
0.000171769
-0.000373629
0.000269233
0.000104333
2.37816e-05
0.000107705
-0.000396354
0.000277374
0.000119065
-7.11975e-05
0.00030925
-0.00027798
6.13566e-05
0.000136487
0.000145226
-0.000281619
-0.000365955
0.000257147
0.000108752
0.000247289
-3.03997e-05
-0.00031768
0.000134747
0.000183231
-0.000324752
0.000324989
-3.59764e-07
-0.000445152
0.000240558
0.000204352
-0.000379476
2.39417e-05
0.000355536
0.000358428
-0.000266055
-9.19642e-05
-0.000322165
9.86076e-05
0.000223288
0.000189589
-0.000196945
7.40075e-06
0.000130089
-0.000304361
0.000174273
-0.000207254
-0.000115236
-0.000304165
0.000214229
8.99364e-05
-9.88964e-05
0.000265973
-0.000289058
-1.01211e-05
0.000299578
0.000364109
-0.000259123
-0.000104987
0.000250293
-0.000246177
-4.11602e-06
4.22011e-05
-0.000217052
0.000231
-0.000351472
0.000119758
0.000256341
5.7974e-05
-0.000314414
8.60786e-05
-0.000217798
0.000131877
0.000169143
-0.000171328
1.97476e-06
-0.000201339
0.000338101
0.000283775
-0.000282859
-8.56886e-07
-6.29127e-05
-0.00031655
6.4102e-05
0.000242488
-0.000318725
0.000228061
9.06644e-05
0.000220041
-0.000281802
6.19306e-05
-4.69922e-05
0.000236126
0.000247885
-0.000250293
2.40801e-06
-0.000294079
0.000294527
0.000127354
-0.000281358
0.00015236
0.000133831
3.50226e-05
-0.000328059
0.000240391
8.78997e-05
-0.0003218
0.000218193
0.00010335
0.000340827
-0.000161957
-0.000178869
0.000240006
6.55427e-05
-0.000305288
0.000231539
2.71316e-05
-0.000257758
-0.000294121
0.000219519
0.000158694
3.00309e-05
-0.000172844
-0.000137689
8.93203e-05
-0.000276053
0.000186733
0.000242679
4.45043e-05
-0.000288099
-0.000263068
-0.000133208
-0.000260877
1.40281e-05
0.000246849
-4.43802e-05
-0.000201853
0.000246233
-5.2148e-05
0.000308453
1.90981e-05
-0.000276206
0.000257058
-0.000260519
0.000159302
0.000101412
-0.000173162
-0.000161599
0.000130259
7.92842e-05
-0.000209921
-0.00022071
-3.38867e-05
0.00025456
0.000340866
-9.8445e-05
-0.0002416
0.000192697
8.09483e-05
-0.000273645
-8.01643e-05
0.000272861
0.000243485
-7.07753e-05
0.000252459
-0.000255074
2.61521e-06
-8.55319e-05
-0.000339601
0.000169359
0.000145248
-0.000376839
5.37813e-05
0.000323081
-0.000269277
0.000264601
4.67602e-06
0.000145071
-0.000214802
6.93587e-05
0.000250967
-1.71171e-06
-0.000249018
0.000276005
-3.9231e-05
-6.77635e-05
-0.000309028
0.000329741
-0.000148986
-0.000180756
-0.000186649
-8.49803e-05
0.000271629
0.000214441
0.000126128
-6.4818e-05
-0.000199952
0.000264749
0.00010709
-0.00029268
0.00018578
-0.000202656
0.000304568
-0.000101912
-0.000270429
-1.07766e-05
0.000281091
-0.000292277
-0.000153132
-0.000303688
0.000438748
-0.000134866
-0.000225065
-4.91962e-05
0.000274261
-0.000232042
-3.85876e-05
-0.000331561
0.000242735
8.93192e-05
0.000288488
-0.000308658
1.9608e-05
0.000209432
-0.000308785
9.99023e-05
0.000158677
0.000117964
-0.000276641
-0.000353497
0.000134387
0.000219015
0.00031449
-0.000328361
1.37546e-05
0.000333212
-0.000140327
-0.00019277
0.000284511
-3.20523e-05
-0.000127775
0.000129794
-1.64436e-06
0.000199893
7.77563e-05
-0.000277649
-8.44763e-05
0.000284369
0.000235929
5.46282e-05
-0.000290557
-0.000200238
-0.00012179
-0.000302863
8.24427e-05
8.67163e-05
0.000187041
-0.000273757
0.000310848
-0.000132155
-0.000178276
-0.000147964
0.000304491
-0.000156406
0.000279161
9.74404e-06
-0.000288905
0.000153486
-7.09422e-05
-8.25627e-05
-8.83683e-05
-0.000181861
0.000270229
0.000184941
-0.000273309
-8.73603e-05
0.000272301
-0.000167151
-9.77456e-05
0.000264897
-8.05787e-05
-0.000225989
0.000237643
1.87596e-05
-0.000255353
0.000294085
-6.70883e-05
-0.000226997
0.000135878
-0.000131933
-4.35844e-06
-0.000113222
-0.000146898
0.000125406
9.96522e-06
-6.86978e-17
-0.000269277
0.000237861
1.2432e-05
0.000274089
-0.000114658
0.000113331
-0.000111638
-1.67244e-06
-0.000250882
-3.80042e-05
0.000115286
-1.98579e-06
0.000227277
-0.000316205
8.89283e-05
0.000238291
-0.000318694
8.05918e-05
0.000112088
-0.000138674
2.6467e-05
-0.000233257
0.000131738
0.000101449
-0.000167587
-5.36926e-05
0.00022115
2.65423e-06
0.000260937
0.000180181
-0.000276557
-0.000334852
0.000241083
9.39524e-05
-0.000327489
0.000203169
0.00012432
-7.67916e-05
-8.03419e-05
-0.000234017
6.68659e-05
0.000186497
-0.000300342
0.000113495
0.000276641
-0.000276641
-8.29312e-05
-0.000199907
0.000283057
0.000109048
-0.000110957
1.91816e-06
0.000113187
-4.07243e-06
0.000272222
1.5328e-05
0.000354712
-0.000253638
-0.000100793
8.81098e-05
-0.00030338
0.000215712
-0.000239653
0.000174816
-0.000220494
-9.69569e-05
0.000112363
-0.000113309
9.3417e-07
0.000114912
-2.58629e-06
0.000301158
-9.72377e-05
-0.000204219
0.000238607
7.47921e-05
-0.000315373
-0.000156269
-0.000171221
0.000294595
-0.000272867
-2.15162e-05
0.000351149
-0.000317035
-3.42363e-05
0.000119331
-0.000113324
-5.99525e-06
0.000118357
9.21272e-07
0.000220174
1.7477e-05
-0.000238295
5.20743e-05
0.000298915
0.000175605
0.000124743
-0.000317087
0.000138535
0.000178414
0.0001907
-6.06937e-05
0.000112206
-0.000113314
1.27781e-06
-0.000122454
-8.85421e-05
0.00020972
6.43898e-05
-0.000216896
0.000152174
0.000114858
-2.48748e-06
0.000153925
0.000209855
-0.00020872
0.000280207
-7.07265e-05
-0.000230799
-0.000164712
0.0003954
-0.000237419
-6.66968e-05
0.000304131
-0.000213154
-0.000160484
-0.000245166
0.000339916
-9.38897e-05
0.000316714
-0.000221615
-9.58487e-05
0.000232554
7.84283e-05
-0.000204381
0.000204283
-0.000297679
-4.12846e-05
0.000202097
7.08118e-05
0.000202217
-0.000282745
8.05283e-05
4.58215e-05
-0.000292327
0.000246669
-0.000178333
-0.000125832
-0.000208077
-0.00017472
0.000383022
0.000111428
-0.000113127
1.5364e-06
0.000113496
-2.16507e-06
-0.000317129
0.000228957
8.81723e-05
0.000266568
-0.000238547
-2.81024e-05
-0.00030649
9.85761e-05
-0.000248242
-6.38553e-05
-0.000136142
-7.51171e-05
0.000210244
0.000335071
-9.31833e-05
0.000295761
-0.000242301
-5.26689e-05
-0.000129805
0.000320171
-0.000190257
0.000100733
-0.000324387
0.000223531
0.000117764
-0.000111626
-6.12673e-06
0.000116835
8.4587e-07
9.31564e-05
-0.000275017
-0.000344101
0.000172071
0.000129811
-0.000199018
6.94554e-05
0.000292509
-7.42329e-05
-0.000171838
0.00010373
6.36201e-05
8.68914e-05
0.000216727
-0.000303937
-0.000301338
0.000173241
0.000127861
4.28495e-05
-0.000245861
-0.000184507
1.70715e-05
-0.00027345
0.000108848
0.000163499
-0.000287029
2.61521e-05
-0.000311355
0.000311513
0.000112147
-0.00010728
-0.000166472
-0.000232948
0.000149806
0.000157224
0.000183603
-0.000277971
0.000170143
-0.000235239
7.23842e-05
0.000161974
0.000324272
-0.000119728
-0.000113847
-0.000163681
-0.00024262
9.28889e-05
0.000149835
-9.37329e-05
-0.000143955
0.000224029
5.51322e-05
-0.000232565
7.98838e-05
0.000153277
-8.62214e-05
-0.000156029
0.000237907
9.53801e-05
0.000109791
-0.00011142
1.64022e-06
-0.000250523
8.06974e-05
0.00017259
0.000110139
-0.000111622
1.63238e-06
0.000113174
-3.32856e-06
0.00011313
-2.83014e-06
-7.21368e-05
-0.000160632
-0.000202077
-5.87442e-05
0.000260821
-6.91875e-05
-0.000179524
0.00030166
-6.24976e-05
0.000162913
0.000166828
0.000200043
-0.000298179
9.81245e-05
-0.000249698
0.000182119
-0.000125328
0.000281458
-0.000157261
-0.000217073
0.00024236
-2.51329e-05
0.000188159
0.000170455
0.000117443
-0.000111259
-6.21194e-06
-8.07507e-05
-0.000218808
0.000116842
5.26594e-07
0.000340089
-0.000173769
-0.000166321
0.000342555
-0.000102353
-0.00028079
4.33673e-05
-0.000344937
0.000149307
0.00019487
-8.71363e-05
0.000269305
-0.000182169
0.000264659
-3.21804e-05
-0.000232434
4.60322e-05
-0.000271097
-9.05244e-05
0.000271013
-0.000180489
7.88483e-05
-0.000265497
0.000239448
-0.000280939
4.15491e-05
-0.000151313
0.000285237
-7.41466e-05
-0.000159121
0.000175514
-0.000312188
0.000136568
0.000175494
-0.000126507
-9.11494e-05
-0.000141856
0.000233276
-7.04607e-05
0.000281003
-0.000210388
6.75045e-05
0.000223458
-0.000290606
-0.000200927
0.000109809
-0.000272231
0.000203303
0.000275791
-0.000100297
-9.17466e-05
-0.000262317
0.000321166
-0.000109785
-0.00018275
-8.85531e-05
0.000271303
-0.000228873
0.000249845
-2.09721e-05
0.00031283
-0.000314691
1.74083e-06
0.000309536
-0.000217709
-9.2088e-05
0.000108897
-0.000294388
0.000284545
-3.41183e-05
-6.02702e-05
0.000245655
0.000141786
-0.000352111
0.000210898
0.000275633
-4.83562e-05
-0.000340431
0.000109318
0.000332971
-0.000114319
-0.000166984
0.000198511
-0.000157485
-9.98922e-05
0.000258016
8.78091e-05
0.000210269
-0.000297817
-0.000179136
-0.00014198
-0.000312405
0.000227431
8.53127e-05
-0.00037151
6.75631e-05
0.000249313
-0.000146497
-0.000325711
4.56612e-05
0.000279635
0.000126172
5.59816e-05
-0.000186604
0.000320843
-0.000298
-2.28861e-05
-0.000297141
0.000255795
4.11992e-05
5.38278e-05
0.000245398
-0.000112268
-6.05379e-05
-0.000295138
0.00029864
-3.22917e-06
0.000383257
-0.000247193
-0.00013635
-0.000257807
-6.74759e-05
0.000211891
0.000171212
-0.000220361
1.1228e-05
0.000209133
-7.67455e-05
-0.000233543
-0.000132944
-0.000175477
0.000227623
7.78228e-05
-0.000304725
0.000208015
6.35334e-05
-0.000271742
0.000265763
-0.000199658
-0.000218345
0.000173965
-0.000311893
0.000196029
0.000115864
0.000293722
-0.000294898
9.53055e-07
1.59238e-05
9.5537e-05
-0.000111197
-0.000139528
0.00026589
-0.000264741
0.000185249
0.000224771
-1.50575e-05
0.000262832
-2.33231e-05
0.000214781
0.00010204
0.000209388
0.000145595
0.000316683
-0.000103824
-0.000212776
-0.000293273
8.78018e-06
0.000284365
-0.000229455
-8.65724e-05
0.000315874
0.000376749
-6.48671e-06
-0.000370466
6.82093e-05
0.000196571
0.000246905
1.69401e-05
-0.000263845
-0.000118664
0.000320881
-8.64363e-05
0.000274681
-0.000188245
-0.000201408
0.000207975
-6.5133e-06
-0.000171501
-0.000147225
-0.000169077
-0.000174123
0.000102791
-0.000335867
0.000231704
0.000204261
0.00010201
-0.000306336
-0.000195777
-7.35563e-05
0.000269333
0.000157469
-4.05102e-06
-0.000152734
-3.66213e-05
-0.000264877
0.000315933
-0.000189152
-0.000126948
-2.44409e-05
0.000279941
9.06364e-05
-0.000282241
9.78597e-05
0.000168358
-0.000266055
-2.07887e-05
-0.000272535
-0.000305545
0.000291034
1.44859e-05
0.000144604
-0.000126429
-0.000118512
0.000249459
-0.00014037
-8.62355e-05
0.000226419
0.000242756
-3.42441e-05
-0.000208213
0.000310207
-0.000210643
-9.04684e-05
0.000271041
-0.000180573
-0.000227228
0.000246426
1.71163e-06
0.000241003
0.000259653
-0.000171084
-2.89379e-05
0.000297597
-0.000268672
-5.29369e-05
0.000291279
0.000285373
-0.000149514
-0.000136142
-7.70003e-06
0.000301785
-7.91842e-05
-0.000211465
-0.000127186
0.000265014
-0.000138773
-0.000266131
6.34746e-05
-8.20382e-06
-0.000241963
0.000250188
0.000209617
-0.000277621
6.71836e-05
0.00010478
8.09113e-05
-0.000185525
0.000254621
6.21323e-05
-0.000316728
-6.06541e-05
0.000315669
0.000257629
-0.00022552
0.000315854
-9.00057e-05
-0.000129608
0.000123176
4.99407e-06
-7.22403e-05
0.000254549
-0.000182309
0.000119692
0.000191559
-0.000311342
7.70541e-05
0.00022066
-0.000297839
0.000277033
-0.000199277
1.26862e-05
0.000207982
-0.000323834
0.000130845
0.00019353
0.000189057
-0.000269221
-0.000117531
-0.000104283
0.000221555
9.36184e-05
0.000172887
-0.000266505
-9.28708e-05
8.15186e-05
-0.000273337
0.000188861
-0.000362486
0.000154511
0.000208151
-6.43163e-05
0.000272385
-0.000208069
-8.73883e-05
0.000267905
-0.000180517
0.000290502
-5.79328e-05
0.000224309
2.25961e-05
-8.85363e-05
0.000273477
-0.000184941
-0.000212425
0.000312927
-0.000272049
0.000184689
0.000310885
-0.000208534
-0.000102352
-0.000342606
0.000267434
7.51475e-05
-0.000185333
-7.91003e-05
0.000266897
-0.000187797
0.000267766
-0.000250654
0.000315337
-0.000174189
-0.000141149
-0.00025864
7.58901e-05
7.35843e-05
-0.000275661
-4.66325e-05
-0.000295923
-9.13644e-05
0.000278517
-0.000187153
0.000109133
0.000111474
-8.18258e-05
0.000145629
0.000169709
-0.000283614
0.000275535
8.2978e-06
0.000101398
-0.000249326
2.17964e-06
-9.93234e-05
0.000329793
-0.000230702
-6.93563e-05
0.000263761
-0.000194405
0.000269501
-0.000134121
0.000264209
0.000173039
-6.47255e-05
-0.000189981
-0.000121912
0.000461957
-0.000232799
-0.00022902
0.000256976
0.000205133
-0.000292259
0.000302846
-1.04275e-05
-0.000277845
0.000275661
2.18401e-06
0.000331389
-0.000280468
-5.12925e-05
-0.000257685
8.92923e-05
0.000168393
-8.60469e-05
0.000277512
-0.000191465
0.000156661
5.90522e-05
-0.000215713
-7.66083e-05
-0.000181077
0.00027106
-0.000194074
-0.00022598
0.00011139
0.000114728
-0.000262865
0.000183765
-0.000287505
5.86322e-05
0.000430675
-0.00017362
7.10149e-05
5.1414e-05
-0.000122498
0.000231587
0.000199213
-0.000257069
0.000180461
9.67643e-05
0.000187183
5.87627e-05
-0.000248421
0.000189673
0.000332453
-0.000121011
-0.000211544
0.000157831
0.000153054
-7.39763e-05
-0.000183093
-0.000285214
-8.24982e-05
0.000367692
0.000244945
-0.000147006
-7.18808e-05
0.000247564
-0.00017653
4.39559e-05
-0.000260927
0.000230833
5.09607e-06
0.000156455
-5.159e-05
-0.000337762
0.000192009
0.000144174
0.000200985
-0.000270341
0.000229899
-0.00023797
8.35297e-06
-0.000177107
-0.000154163
-1.00184e-05
0.000212763
-0.000202426
-0.000146141
0.000253266
-2.55361e-05
0.000257797
-0.000232261
-0.000142073
0.000300749
-6.74401e-05
0.000312214
-0.000246854
0.000176793
0.000103208
0.000230861
7.81203e-06
-0.000238673
-0.000223795
0.000192018
-5.90821e-05
-0.000267042
-0.000168588
0.000163519
5.17958e-06
0.000116765
8.52352e-06
0.000115253
1.6073e-06
8.42857e-05
-0.000220595
0.000136195
0.00019551
0.000100995
-2.63481e-05
0.000257209
0.000158017
9.78573e-06
-0.000167654
-0.000252617
2.32401e-06
-0.000258415
0.000306391
-4.72643e-05
-0.000194153
-0.000171734
-0.000106843
0.000306314
-0.000199723
0.0003181
-1.38059e-06
-0.000204724
-9.68765e-05
-0.000240687
0.000346812
-0.000105604
0.000124584
0.000105545
-0.000230398
-8.87955e-05
0.000268352
-0.00017982
-0.000162754
0.000289713
-0.000127018
-0.000166858
0.000288351
0.000303814
-4.67993e-05
-0.00017947
0.00029514
-6.74523e-05
0.000249677
-0.000182225
-7.18994e-05
-0.000240464
0.000312927
0.000275232
-0.000283389
5.44602e-05
0.000228929
-8.82283e-05
-0.000161421
0.000249649
0.000350873
-0.000208539
-0.000252897
0.000185445
0.000110061
5.16113e-06
0.000268949
-0.000217015
-5.43518e-05
0.00011351
-3.50337e-06
-6.71163e-05
-0.000185781
0.000266558
-6.225e-05
4.73365e-05
-0.000273396
0.000226198
-3.41041e-05
-0.000249285
-0.000209133
-7.69568e-05
0.000293446
-0.000247076
0.000251553
-6.38402e-05
-0.000187713
0.000184437
0.000308319
-4.18202e-05
-0.000243408
0.000235173
-0.000314616
0.000314578
-0.000288546
0.00022114
6.76479e-05
6.93283e-05
-0.000289689
-0.000193902
0.000262258
-0.000223369
-4.05095e-06
0.000227065
-0.000229047
-8.96031e-05
0.000319651
-0.000250769
0.000186929
0.000192365
-0.000128027
0.000315337
-0.000138545
0.000272021
-0.000191073
0.000120202
-6.55483e-05
-0.000185221
-0.000251833
0.000177857
-0.000267793
0.000195553
-0.000241165
0.000176849
-0.000277633
-1.70505e-05
-7.16281e-05
0.000245241
-0.000173789
-0.000179873
9.12276e-05
8.80982e-05
0.000187685
-0.000253233
-0.000261549
0.000174161
-0.00013645
0.000210997
-7.42032e-05
-9.08818e-05
-0.00013501
0.000225029
0.000286553
-0.00012614
-0.000160413
-0.000267933
0.000182953
-0.000131246
0.00021342
6.34284e-05
-0.000276996
-0.000246912
0.00041941
-0.000172492
-0.000109808
0.000284878
-0.000175415
-7.76723e-05
0.000251133
-0.000173461
-9.71865e-05
-0.000139552
0.000236693
-9.98801e-06
0.000121138
0.000168981
0.000109312
-0.000278293
0.000191565
-0.000262884
7.13433e-05
-1.41051e-05
-0.000203315
0.00021742
-0.000265754
0.00029984
-3.37326e-05
-0.000213893
-9.04684e-05
-0.000197587
0.000316834
-0.000445694
0.000193237
0.000252062
-0.000240689
-7.94643e-05
0.000273701
-0.000180545
0.000198396
-2.3675e-05
-0.000174506
-8.66757e-05
-0.000155333
0.000241681
0.000177633
-0.000213126
-6.62455e-05
0.000279371
-0.000192025
-8.42523e-05
0.000276277
0.000115722
2.58715e-06
0.000116649
-9.56716e-07
3.48601e-05
0.000241781
-0.000106668
-0.000198908
-0.000276725
0.000188189
-0.000123559
0.000217177
9.22319e-06
-0.000233116
-0.000189617
-7.87923e-05
0.000268409
7.55388e-05
0.000219327
-0.000294526
0.000102759
-3.16778e-05
0.000226005
-0.000208694
5.29207e-07
-0.000275299
0.000285385
-1.00263e-05
-0.000173825
-0.000143305
-0.00020169
0.000296426
-9.47356e-05
-0.000123854
-0.000163911
0.000287706
-0.000128493
0.000305677
-1.30537e-05
0.000243923
-0.000230869
-0.000250791
3.76657e-05
-7.10463e-05
0.000157115
-1.42994e-05
0.000214877
-0.000200544
0.000182953
-0.000109356
-0.000162073
0.000271544
0.000244513
-0.000171863
-7.28724e-05
-4.56444e-05
0.000175681
0.000247455
-0.000159433
-0.000186845
-8.92083e-05
0.000105225
4.79503e-05
-0.000236516
0.000165926
7.03976e-05
-0.000132655
-0.000174986
0.000307554
6.29396e-05
-0.000197757
0.000134559
-8.17582e-05
-0.00014619
0.000226713
3.18765e-05
-0.000261608
0.000100834
0.000202134
-0.000352454
9.05853e-05
0.000261827
0.000146779
-0.00026877
0.000122676
0.00018233
-3.75745e-05
0.00010405
-0.000228477
-0.00010606
-0.000119881
0.000180769
-0.00018089
0.000427372
-0.000246319
7.24241e-05
0.00016907
-0.00024204
-0.000151509
0.000293329
-0.000141821
9.84987e-05
-0.000323743
1.52613e-06
-0.000220382
6.6629e-05
-0.000305607
0.000239102
-8.40989e-05
0.000321299
0.000254722
7.09258e-05
-5.59717e-05
-7.4361e-05
0.00013044
-6.65978e-05
-0.000114643
-0.000129053
-0.000231729
-4.61162e-05
-0.00021376
0.000440423
-0.000226463
0.0001108
6.00898e-06
0.000112436
-1.46708e-06
-0.000182689
-0.00017954
0.000300317
-0.000120231
0.000246901
-0.000160482
0.000242061
-0.000293077
5.10162e-05
-0.000219872
-7.61929e-05
0.00029606
6.78443e-05
0.000189953
-0.000131214
0.000187414
-5.59015e-05
0.000141463
0.000190784
-0.000231521
0.000361762
-0.000130039
0.000267933
4.47275e-05
4.88756e-05
-0.000204749
-0.000140437
0.00018101
0.000111518
-0.000290531
-5.25282e-05
0.000280589
-4.55561e-05
0.000314787
-0.000134926
-0.000194425
0.000329577
0.000269506
-3.98752e-05
-9.63212e-05
-0.000265857
-3.50447e-05
-9.20779e-05
0.000187265
-0.000187034
-0.00015182
0.000251074
-0.000311374
0.000284621
-0.00012796
0.00021375
0.0001071
-6.79316e-05
-0.000158333
0.000228796
0.000301671
-0.000187189
-0.000114671
4.1917e-05
-0.000297728
-0.000133581
-0.000250721
0.000284433
-3.37284e-05
-0.000213187
0.000203631
-0.000204597
0.000273925
-0.000174536
-0.000122476
-0.000239024
-5.45043e-05
-8.06079e-05
-0.000146999
0.000227631
-0.000173995
-0.000119081
0.00029236
-0.000145694
9.61958e-05
4.91641e-05
-0.000188693
0.000247745
-0.000320969
0.000321023
0.000181609
0.000158481
0.000364225
-3.20906e-05
-0.000332253
-0.000308761
0.00017532
0.000133441
7.65243e-05
0.000190373
-9.9872e-05
0.000344515
-0.000244547
-0.000249821
-8.89291e-07
0.000250504
-9.91939e-06
7.59083e-05
0.000187853
-0.000337882
0.000105597
0.000232831
-0.000180694
-6.80112e-05
-0.000165805
0.000241611
-7.58114e-05
7.5323e-05
0.000240392
-0.000252759
-6.92804e-07
0.000253321
-4.92836e-05
-0.000233606
0.000178721
-2.10459e-05
-0.000112097
0.00019635
-0.000177793
-0.000169756
0.000348052
0.000159908
-0.000338622
-0.000156969
0.00030313
-0.000146051
-0.000273253
0.000107446
-0.00023428
-0.000151288
-0.000167715
0.000317955
0.000246549
-0.000270901
-0.00020276
5.48242e-05
-0.000232289
0.000177465
0.000204371
-1.76382e-07
-5.55226e-05
-0.000161801
-9.3255e-05
0.00029317
-9.98292e-05
0.000268627
-0.000168727
3.36065e-05
-0.000291502
-0.000112299
-0.000102222
0.000185025
-0.000263621
7.85963e-05
-0.000272482
-4.8444e-05
-7.56003e-05
-0.000177017
0.000252617
0.000232539
7.19147e-05
-0.00030469
-0.000191732
-0.000159628
8.74016e-05
0.000214381
-0.000301727
-0.00016673
-8.73879e-05
0.000254145
0.00030339
-0.0001574
-0.000145959
0.000236716
-4.52074e-05
-0.000171109
-0.000145097
6.81243e-05
-0.000257825
0.000189701
-0.000141819
0.000411434
-0.000270391
0.000252571
-5.14897e-05
-0.000200055
0.000108697
8.0497e-06
0.000298144
-0.000169118
-0.000129204
0.000256318
-0.000288935
3.22849e-05
0.000179789
-0.000257461
0.000113886
0.000226796
0.000111441
-2.73472e-06
0.000234064
0.000296726
-0.000287904
-8.73533e-06
-8.75673e-05
-0.000143047
0.000230811
-0.000165635
0.000237724
-0.000157384
0.00030697
-0.000278377
0.000187013
0.000259086
-0.000257515
-1.57025e-06
-6.45963e-05
0.000245113
-0.000180517
0.000169105
-0.000235273
0.000353342
-0.00013004
-0.000223302
-7.92233e-05
0.000292095
0.000269753
-0.000258245
-1.1508e-05
-0.000183989
0.000182869
-0.000247465
-0.00027737
0.000191324
0.000250371
5.25429e-06
0.000131243
0.000125905
-0.000257771
6.28572e-05
-0.000237573
0.000174651
-0.000222629
0.000134401
0.000272469
-3.04081e-05
0.000123763
-0.000247945
0.000124888
-0.00011551
0.000246397
-0.000191311
-9.71562e-05
0.000288538
4.36092e-05
-0.000180002
-0.000236739
-8.08418e-05
-0.000222973
0.00015106
-0.000126456
0.000248685
-0.000121255
-4.52892e-05
-0.000266243
0.000265101
5.94328e-05
-0.000344653
-4.55531e-05
0.000254612
0.000143055
-0.000269694
0.000126905
-0.000240788
-2.46291e-05
9.49176e-05
0.000169174
-0.000264091
-5.34631e-05
-0.000253127
0.000332843
-9.68145e-05
-0.000235412
-7.59217e-05
-0.000216535
1.24898e-05
0.000252839
-9.9193e-05
-0.000141267
0.000240965
-0.000116156
0.000263387
0.000197624
8.99531e-05
-0.000288295
4.54721e-05
-0.000305493
0.000260625
0.000161197
-0.000290993
-0.000217642
0.0002832
-6.5706e-05
-0.000163873
0.000211287
0.000257509
-0.000203591
-2.88331e-05
-0.000263131
7.59296e-05
-0.000323618
0.000247766
-0.000228162
-0.000123563
0.000209595
0.000143747
-0.000246818
0.000109337
0.000138687
-0.000252374
8.52196e-05
0.000235274
-0.000125127
0.000263756
7.57071e-05
0.0002183
-0.000431737
0.000199102
0.000243625
0.000115892
9.54048e-05
0.000199196
-0.00023038
-7.83807e-05
0.000364497
-0.000197194
-5.4002e-05
0.000251751
-6.24402e-05
0.000276669
-0.000127868
-4.84936e-05
0.000175955
-0.000222377
-4.87848e-05
7.95483e-05
-0.000264405
0.000184857
0.000287605
-7.98137e-05
0.00013144
0.00012052
-0.000251093
-0.000225903
-0.000126471
0.000156316
-0.000291382
0.000133446
-0.000184017
0.000172182
-0.000186287
0.000156425
-0.000295767
0.000139118
3.28693e-05
-0.000168825
0.000135767
-0.000118532
-0.000163441
0.000281981
-0.000178591
9.07908e-05
-0.000109683
0.000241537
-0.000311173
4.64831e-05
0.000262617
-7.53518e-05
0.000342928
-0.000268721
0.000105654
0.00027105
-4.52522e-05
-0.000252801
-0.000202783
0.000203157
-0.000197165
-1.96071e-05
6.7814e-06
-0.000212773
0.000206402
-6.02556e-05
0.000337566
-0.000275862
-0.000255208
0.000145676
-0.000127343
-0.000108447
0.000160278
-0.00030881
0.000150141
-0.000110956
0.000339522
-0.000211889
0.000326261
-0.000114042
0.000328466
-6.48235e-05
-0.000264659
0.000321073
-0.000229489
-9.17008e-05
-0.00018327
0.000432944
-0.000250394
0.000125571
0.000275798
-0.00040115
-8.5259e-05
-0.000238056
-0.000238428
0.000152814
0.000333173
1.2243e-05
-0.000345362
0.000155786
0.000142981
4.11708e-05
0.000279887
-2.74041e-05
-0.000287192
0.00025368
-0.000209787
-5.86841e-05
-0.000248653
0.000305688
-0.000221244
0.000119952
-0.000245669
0.000270684
0.000125577
-0.000395216
0.000171999
-0.000159256
2.76476e-05
-0.000131171
-0.000204874
0.000335901
-0.00015194
-6.81862e-06
-0.000114703
-0.000183422
-0.000173603
-0.000161229
0.000273126
-5.98543e-05
0.000194931
-0.000326372
0.000212328
1.48743e-05
-0.000227683
4.74396e-05
-0.000142515
0.000250458
0.000163867
-0.000324558
0.000159868
7.84497e-05
0.000229591
0.000254689
-0.000199865
5.56172e-05
-0.00018418
0.000128059
-0.000281737
7.71403e-05
-0.000220791
0.00013168
0.000161116
-0.000323394
0.000162703
-0.000249324
0.00031147
0.000160665
-0.000267837
0.000141361
0.000146245
0.000140309
-0.000197554
-8.32126e-05
-0.000328571
0.000191582
-0.000127759
0.000398945
0.000252167
-0.00028112
0.00027041
-0.000397844
0.000130988
-0.000256154
0.000264949
-0.000143903
0.000415469
-0.000131858
-0.000282731
0.000269261
-0.000143848
-0.000419086
0.000172181
0.000175125
0.000156248
8.81163e-05
-0.000283893
0.000109791
-0.000250337
-0.000291089
0.000101108
-0.000132263
-0.000264418
0.000396317
8.89283e-05
0.000182757
-0.000271685
-0.000192025
0.000294686
1.42892e-05
-0.000309106
-0.000247945
0.000149401
-0.000293957
0.00012986
-0.000133922
-0.000195705
0.000329593
0.000236583
-0.000175278
-6.14365e-05
-4.58471e-05
0.000311095
-0.000265349
-0.00025738
0.000141552
-0.000195969
0.00012034
0.000338339
-0.000241088
-9.66557e-05
0.000195636
-0.000329587
-0.000284163
6.85302e-06
0.000225315
-9.05162e-05
6.61042e-06
-0.000249904
0.000243213
-0.000252603
7.73859e-06
-0.000145937
0.000238645
-0.000229836
0.000112099
-0.000119401
-0.000110749
-0.000185025
-0.000111541
1.0127e-08
-0.000103445
0.000327088
3.89317e-06
0.000395817
0.000217123
-0.000188964
-4.09922e-05
0.000269949
-0.000143334
0.000215758
0.000263991
-0.000168352
-9.57009e-05
-5.75735e-05
0.000299055
0.000269873
-0.000280001
0.000139833
-0.000235033
-9.83949e-05
-0.000238932
-0.000153354
0.000236608
-0.000293055
0.000103633
0.000189468
0.000170076
-0.000366805
0.000196143
-0.000149777
0.000230271
-2.89335e-05
0.000241706
-0.000367377
0.000219032
0.00014806
0.000164687
-0.00036965
0.000205893
0.0002677
7.11459e-05
-0.000339993
-6.39006e-05
0.000329807
-0.000335051
0.000249923
8.48278e-05
0.000247826
-0.000172052
-9.03632e-05
-0.000233483
-0.000233768
0.000160584
0.000156475
-0.000374247
0.000216405
-9.60921e-05
-0.000148356
0.000244271
-0.00014089
-0.000226596
-0.000297202
5.68929e-05
9.03003e-05
0.000179593
-0.000269893
-9.28204e-05
-0.000177241
0.000270061
0.00022369
-0.00040405
-0.000258301
8.42803e-05
-9.67911e-05
0.000293973
-0.000437745
0.000223994
-4.98735e-05
0.000296254
-6.96672e-05
0.000222739
-0.000152558
-0.00010986
-1.06646e-06
0.00011926
-0.000263391
0.000144167
0.000161045
-0.000317313
3.65011e-06
2.62941e-05
-0.000246117
-0.00023547
3.38138e-06
0.000141582
9.6422e-05
-0.000237407
-0.000279788
0.000139519
-0.000264259
6.67444e-05
7.2988e-05
-0.000229143
0.000154739
-0.000101176
0.000242319
0.000255369
-0.000158874
0.000263649
-0.000249621
2.3143e-05
-0.000212839
0.000189242
-0.000175818
0.000336422
0.000142704
-0.00024396
-0.000223119
-7.93256e-05
0.000300657
-0.000296977
0.000214513
-0.000339915
0.000126298
-8.87874e-05
0.000230313
3.62321e-05
0.000194265
-0.000230497
-0.000238005
0.000147891
-0.000247615
5.10489e-05
-0.000316324
0.000247679
-0.00019819
-0.000137155
-0.000102853
0.000281702
-0.000178912
-0.000152054
-0.00015689
0.000308455
-0.000233193
0.000113863
0.000178949
-0.000277845
-0.000249578
2.95585e-05
0.000219672
0.000178968
-0.000331473
-0.000301887
0.00024147
-2.03617e-05
-0.000127571
0.000147938
2.5332e-05
-0.00025683
0.000232034
-0.000114944
1.62849e-06
-1.73925e-06
-0.000205546
0.000213026
-0.000219011
-0.000171932
0.000368454
-0.000197143
-0.000225231
0.000120441
-0.00027548
4.56561e-06
0.000327691
-0.00029047
0.00017169
-0.00021905
0.000137545
-0.000390227
0.000251666
-9.34364e-05
-0.000183205
6.11584e-05
0.000196528
-0.000187558
0.000210331
-9.79734e-05
0.000121685
0.000301194
-0.000145644
0.000210757
-0.000154436
0.000293046
-0.000282017
0.000194993
8.70243e-05
0.000257517
1.74441e-05
-0.000274961
0.000174714
7.83106e-05
-0.000207019
-7.17447e-05
0.000278763
-0.00017015
-0.000179425
0.000230107
-0.000218075
-0.000242002
-0.000116988
3.61224e-06
-2.16522e-06
0.000101379
0.000202044
-0.000312563
-0.000119032
-0.000115416
0.000300441
0.000189838
-3.18858e-05
0.000345263
-0.000229749
-0.000118539
-0.000112605
-0.000181546
-2.42037e-05
0.000209493
-0.000185658
-0.000298002
0.000141055
-0.000278573
-0.000208601
0.000103262
0.000239414
0.000180517
-0.000283381
0.000128921
-0.000260566
0.000140826
0.0001213
2.76921e-05
-0.000216385
0.000139033
0.000127983
-0.000267772
-8.94505e-05
0.000269922
-0.000149557
7.21553e-05
7.73588e-05
-0.000121794
-0.000208299
-2.72275e-05
0.000313713
-0.000144733
-0.000289106
0.00011354
0.000174675
-0.000274065
9.71607e-05
0.000176904
0.000202049
-0.000190821
-9.22043e-05
-0.000181861
0.000188609
-0.000278052
-0.000414728
0.000272185
0.000250203
0.000196981
-0.000169289
-0.000124724