/*--------------------------------*- C++ -*----------------------------------*\
  =========                 |
  \\      /  F ield         | OpenFOAM: The Open Source CFD Toolbox
   \\    /   O peration     | Website:  https://openfoam.org
    \\  /    A nd           | Version:  12
     \\/     M anipulation  |
\*---------------------------------------------------------------------------*/
FoamFile
{
    format      ascii;
    class       volScalarField;
    location    "5";
    object      rho;
}
// * * * * * * * * * * * * * * * * * * * * * * * * * * * * * * * * * * * * * //

dimensions      [1 -3 0 0 0 0 0];

internalField   nonuniform List<scalar> 
22702
(
1.40001
1.40001
1.26396
1.40001
1.45283
1.40001
1.83903
1.40001
1.40001
1.03312
1.83856
1.8388
1.40001
1.84211
1.28117
1.40001
1.40001
1.40001
1.83892
1.40001
1.84219
1.40001
1.84075
1.02635
1.84095
1.03665
1.40001
1.83903
1.02529
1.02763
1.40001
1.83886
1.40001
1.40001
1.40001
1.80934
1.84178
1.84046
1.40001
1.40001
1.03357
1.40001
1.62048
1.40001
1.83813
1.40001
1.40001
1.40001
1.40001
1.02559
1.40001
1.02717
1.40001
1.83852
1.40001
1.83869
1.40001
1.40001
1.40001
1.40001
1.03583
1.40001
1.40001
1.02598
1.40001
1.02604
1.40001
1.40001
1.40001
1.0354
1.40001
1.8419
1.67164
1.40001
1.84185
1.86238
1.02681
1.83985
1.02384
1.40001
1.83794
1.02842
1.83957
1.83986
1.40001
1.40001
1.40001
1.40001
1.32841
1.03458
1.83892
1.40001
1.40001
1.03493
1.40001
1.84234
1.03484
1.40001
1.40001
1.40001
1.40001
1.6203
1.83825
1.03701
1.40001
1.40001
1.50589
1.40001
1.02773
1.40001
1.8397
1.83835
1.40001
1.40001
1.02376
1.02466
1.03419
1.40001
1.40001
1.40001
1.40001
1.40001
1.31279
1.40001
1.77852
1.44008
1.83988
1.40001
1.83968
1.83872
1.84166
1.83781
1.40001
1.03541
1.40001
1.03529
1.40001
1.40001
1.40001
1.40001
1.83832
1.40001
1.40001
1.40001
1.40001
1.84179
1.40001
1.42675
1.40001
1.40001
1.40001
1.40001
1.02832
1.40001
1.41096
1.40001
1.0233
1.40001
1.40001
1.40001
1.83821
1.40001
1.84179
1.02556
1.0361
1.84167
1.84153
1.40001
1.47243
1.65445
1.40001
1.83828
1.02397
1.81002
1.40001
1.40001
1.40001
1.40001
1.84203
1.74962
1.40001
1.83836
1.02587
1.8387
1.40001
1.02489
1.40001
1.02642
1.03567
1.39979
1.40001
1.40001
1.83864
1.40001
1.40001
1.84185
1.40001
1.8397
1.83862
1.03248
1.40001
1.40001
1.02693
1.84181
1.40001
1.40001
1.40001
1.84174
1.40001
1.03244
1.40001
1.40001
1.84164
1.84161
1.83998
1.40001
1.40005
1.40001
1.40001
1.40001
1.84157
1.40001
1.02739
1.85471
1.84186
1.84199
1.40001
1.40001
1.40001
1.01235
1.84128
1.61244
1.40001
1.84335
1.02852
1.02962
1.84343
1.84143
1.40001
1.84306
1.02739
1.79019
1.40001
1.40001
1.40001
1.40001
1.84185
1.40001
1.66528
1.44269
1.40001
1.40001
1.84162
1.03488
1.16582
1.40001
1.84104
1.03473
1.84405
1.40001
1.40001
1.40001
1.40001
1.40001
1.40001
1.40001
1.02507
1.15854
1.0312
1.84162
1.40001
1.40001
1.40001
1.40001
1.79163
1.40001
1.02462
1.40001
1.00576
1.02491
1.84135
1.02575
1.84215
1.40001
1.40001
1.40001
1.39771
1.02564
1.02689
1.4
1.40001
1.00359
1.40001
1.83879
1.03641
1.40001
1.40001
1.83787
1.02535
1.40001
1.84374
1.03623
1.84158
1.40001
1.01272
1.3977
1.40001
1.40001
1.40001
1.02571
1.40001
1.40001
1.4
1.40002
1.40739
1.67266
1.40001
1.04362
1.40001
1.40001
1.40001
1.40001
1.40001
1.40001
1.40001
1.838
1.40001
1.83801
1.40001
1.40001
1.40001
1.03798
1.40001
1.84173
1.02586
1.40001
1.74635
1.40001
1.40001
1.83816
1.40001
1.40001
1.40001
1.82863
1.40001
1.40001
1.82722
1.83823
1.40001
1.49355
1.40001
1.40001
1.03508
1.40001
1.40001
1.40001
1.03495
1.40001
1.40001
1.40001
1.40001
1.03701
1.40001
1.40001
1.40001
1.40001
1.40001
1.03671
1.40007
1.84183
1.40001
1.39999
1.84171
1.84145
1.40001
1.40001
1.03719
1.21047
1.83829
1.40001
1.40001
1.40001
1.84143
1.03542
1.40001
1.84192
1.40001
1.40001
1.0957
1.09206
1.40001
1.02623
1.03761
1.40001
1.40001
1.40001
1.40001
1.40001
1.40001
1.40001
1.83965
1.5076
1.82671
1.03752
1.30716
1.83829
1.40001
1.84177
1.83854
1.03417
1.17259
1.40001
1.03462
1.40001
1.84642
1.40001
1.40001
1.40001
1.40001
1.84184
1.40001
1.40001
1.40001
1.40001
1.40001
1.40001
1.40001
1.56246
1.83913
1.40001
1.84172
1.40001
1.40001
1.02735
1.40001
1.40001
1.40001
1.40001
1.8417
1.73767
1.40001
1.40001
1.02514
1.84188
1.84165
1.40001
1.84165
1.84188
1.84168
1.40001
1.22893
1.40001
1.84148
1.37974
1.8417
1.40001
1.03358
1.39888
1.83789
1.40001
1.40001
1.40001
1.40001
1.03037
1.84119
1.80109
1.40001
1.8414
1.84143
1.8384
1.40001
1.61035
1.84108
1.40001
1.40001
1.70676
1.46232
1.84147
1.32938
1.84144
1.40001
1.84139
1.84143
1.84142
1.84183
1.40001
1.82965
1.30936
1.28037
1.40001
1.4
1.40001
1.40001
1.84292
1.40001
1.40001
1.40001
1.40001
1.40001
1.83802
1.40001
1.40001
1.39608
1.84165
1.78271
1.40001
1.76807
1.40005
1.40001
1.40001
1.8417
1.40001
1.3972
1.40474
1.40001
1.8417
1.40001
1.84216
1.40001
1.40001
1.72945
1.40001
1.8421
1.40003
1.40001
1.84193
1.40001
1.84168
1.40001
1.40001
1.40001
1.84183
1.40001
1.84414
1.40001
1.84183
1.83806
1.84179
1.83997
1.40001
1.83792
1.83533
1.40001
1.02667
1.81433
1.71948
1.40001
1.84185
1.40001
1.03483
1.03612
1.40001
1.40001
1.40001
1.40001
1.40001
1.03494
1.40001
1.84177
1.51214
1.84181
1.40001
1.40001
1.40001
1.40001
1.40001
1.84138
1.40001
1.84099
1.66395
1.1741
1.40001
1.40002
1.53085
1.5153
1.40001
1.40001
1.55975
1.40001
1.02384
1.84178
1.84192
1.40001
1.40001
1.40001
1.83824
1.40001
1.40003
1.84341
1.84125
1.346
1.40001
1.40001
1.02452
1.80218
1.40001
1.40001
1.40001
1.40001
1.40001
1.84167
1.83774
1.40001
1.84177
1.84382
1.84174
1.40001
1.40001
1.40001
1.40001
1.03592
1.83827
1.40001
1.40001
1.80237
1.84048
1.40001
1.81595
1.8391
1.40001
1.40001
1.40001
1.40001
1.40001
1.84175
1.40001
1.40001
1.40001
1.40001
1.84114
1.40001
1.83965
1.03571
1.40001
1.03554
1.40001
1.40001
1.40001
1.39697
1.02819
1.39905
1.40001
1.40001
1.40001
1.46277
1.40001
1.40001
1.26167
1.40001
1.40001
1.40001
1.40001
1.40001
1.40001
1.40001
1.4
1.32831
1.4
1.40001
1.39756
1.40001
1.02996
1.40001
1.40001
1.40001
1.40001
1.731
1.40001
1.40001
1.40001
1.40001
1.02506
1.40001
1.40001
1.81606
1.83838
1.4
1.40001
1.40001
1.28246
1.40001
1.40001
1.40001
1.40001
1.40001
1.40001
1.34776
1.40779
1.84159
1.40001
1.40001
1.40001
1.84089
1.29445
1.40001
1.40001
1.40001
1.83982
1.83776
1.40001
1.40001
1.40001
1.40001
1.40001
1.40001
1.40001
1.40001
1.40001
1.03696
1.40001
1.40001
1.83951
1.03344
1.40001
1.83893
1.40001
1.02754
1.40001
1.40001
1.03564
1.40001
1.40001
1.40001
1.40001
1.40001
1.40001
1.40001
1.83315
1.84087
1.40001
1.40001
1.40001
1.40001
1.80332
1.40001
1.54052
1.02706
1.40001
1.40001
1.40001
1.40001
1.40001
1.40001
1.40001
1.43433
1.40001
1.40001
1.63466
1.40001
1.40001
1.40001
1.76621
1.40001
1.40001
1.40001
1.40001
1.03586
1.40001
1.40001
1.02624
1.03566
1.40001
1.40001
1.84137
1.40001
1.3749
1.40001
1.40001
1.40001
1.70937
1.02618
1.40001
1.02378
1.40001
1.17603
1.40001
1.40001
1.40001
1.8408
1.40001
1.40001
1.84176
1.40001
1.40001
1.40001
1.84177
1.40001
1.40001
1.84172
1.40001
1.40001
1.03347
1.40001
1.53976
1.40001
1.40001
1.83813
1.83843
1.69473
1.79598
1.40001
1.03468
1.40001
1.40001
1.82221
1.40001
1.03614
1.40001
1.40001
1.40001
1.84203
1.40001
1.40001
1.40001
1.40001
1.66554
1.40001
1.8295
1.84436
1.03489
1.40001
1.40001
1.03687
1.03699
1.40001
1.40001
1.40001
1.71428
1.73585
1.40001
1.40001
1.40001
1.40001
1.40001
1.40001
1.40001
1.58569
1.8385
1.40392
1.40001
1.83667
1.03558
1.40001
1.40001
1.40001
1.64341
1.40001
1.48725
1.40001
1.8037
1.8398
1.40001
1.03299
1.40001
1.838
1.40001
1.40001
1.84176
1.81418
1.40001
1.84202
1.40001
1.02895
1.40001
1.40001
1.40001
1.84209
1.83311
1.78886
1.40001
1.84053
1.84175
1.40001
1.84255
1.40001
1.83992
1.40001
1.03522
1.3692
1.035
1.40001
1.40001
1.40001
1.40001
1.40001
1.84169
1.40001
1.84162
1.40001
1.40001
1.40001
1.81986
1.40001
1.02486
1.84179
1.40001
1.02636
1.05469
1.03361
1.40001
1.61755
1.43501
1.84323
1.84179
1.40001
1.4
1.40001
1.40001
1.84173
1.40001
1.40001
1.8417
1.84177
1.40001
1.55305
1.39998
1.40001
1.39676
1.83834
1.24118
1.40001
1.21542
1.02554
1.02379
1.32604
1.841
1.8357
1.48455
1.84187
1.84197
1.40001
1.40001
1.83785
1.8392
1.84171
1.83894
1.40001
1.84187
1.02771
1.84149
1.84147
1.83868
1.8449
1.25893
1.29262
1.32736
1.84176
1.35356
1.84212
1.40001
1.40001
1.84352
1.84139
1.40001
1.03425
1.84027
1.84182
1.40001
1.84188
1.8419
1.40001
1.8418
1.02619
1.84331
1.83842
1.83772
1.84535
1.40001
1.40001
1.40001
1.84172
1.68556
1.04833
1.84178
1.02683
1.84164
1.40001
1.40001
1.40001
1.40001
1.84131
1.84196
1.40001
1.40001
1.84186
1.03142
1.84174
1.02636
1.40001
1.83861
1.40001
1.03231
1.84306
1.12183
1.40001
1.84177
1.8442
1.84241
1.40001
1.40001
1.60195
1.84354
1.02595
1.84186
1.40001
1.84187
1.27005
1.84242
1.03776
1.40001
1.84092
1.07265
1.84354
1.02901
1.40001
1.84197
1.40001
1.84021
1.40001
1.65865
1.82539
1.74757
1.02469
1.40001
1.84137
1.40001
1.84195
1.40001
1.8419
1.40001
1.40001
1.84173
1.38193
1.84442
1.02948
1.798
1.40001
1.714
1.40001
1.84139
1.84182
1.84112
1.40001
1.79759
1.84183
1.80895
1.67066
1.84005
1.40001
1.6918
1.40001
1.84199
1.40001
1.46335
1.40001
1.80959
1.40001
1.84187
1.82093
1.82072
1.40001
1.83172
1.03571
1.40001
1.03579
1.40001
1.40001
1.40001
1.83824
1.40001
1.8422
1.40001
1.40001
1.40001
1.84258
1.83558
1.76456
1.84277
1.84376
1.03508
1.83892
1.83817
1.40001
1.78619
1.84172
1.82026
1.40001
1.83788
1.83858
1.40001
1.84707
1.84157
1.84153
1.84293
1.40001
1.40001
1.40001
1.84191
1.03064
1.40001
1.84169
1.40001
1.40001
1.03621
1.40001
1.40001
1.84169
1.84143
1.40001
1.84181
1.847
1.84177
1.37209
1.84155
1.40001
1.84154
1.84181
1.75335
1.40001
1.40001
1.40001
1.84306
1.84118
1.84183
1.33815
1.40001
1.84772
1.84157
1.8414
1.40001
1.84175
1.84191
1.84171
1.84905
1.40001
1.842
1.84161
1.78256
1.84104
1.84817
1.40001
1.84532
1.83671
1.84185
1.84288
1.84158
1.03578
1.84173
1.84105
1.40001
1.84171
1.84183
1.84157
1.84183
1.40001
1.84212
1.84176
1.40001
1.84176
1.77075
1.40001
1.40001
1.40001
1.84086
1.84492
1.40001
1.40001
1.64109
1.40001
1.84186
1.40001
1.40001
1.84196
1.84338
1.84164
1.84188
1.40001
1.40001
1.40001
1.70827
1.40001
1.84147
1.40001
1.40001
1.83778
1.83832
1.40001
1.84171
1.02502
1.84179
1.84343
1.11485
1.40001
1.02483
1.7828
1.84462
1.84177
1.84204
1.03601
1.84182
1.84291
1.03625
1.02523
1.40001
1.84147
1.8424
1.40001
1.40001
1.84181
1.40001
1.84604
1.40001
1.78748
1.40001
1.60776
1.84229
1.84399
1.70491
1.80337
1.83825
1.84261
1.80957
1.40001
1.03561
1.84125
1.8419
1.84639
1.40002
1.40001
1.40001
1.84624
1.40001
1.84172
1.84156
1.14675
1.40001
1.84165
1.39995
1.40001
1.40003
1.40005
1.84205
1.84123
1.39848
1.40001
1.40001
1.84196
1.84368
1.84169
1.84377
1.84215
1.0525
1.77514
1.40001
1.83844
1.84162
1.84192
1.84241
1.40001
1.84189
1.82978
1.84304
1.40001
1.8415
1.84153
1.25891
1.84181
1.84114
1.40001
1.84153
1.23683
1.84141
1.25497
1.84199
1.40001
1.8417
1.84739
1.84176
1.84204
1.84158
1.83924
1.84244
1.83848
1.40001
1.32691
1.84142
1.84169
1.23811
1.84174
1.37749
1.67814
1.84122
1.84178
1.8421
1.40001
1.84442
1.68621
1.8421
1.32005
1.8439
1.84146
1.40001
1.26465
1.40001
1.84149
1.40001
1.70429
1.40001
1.82175
1.26954
1.40001
1.84456
1.84412
1.40001
1.84367
1.84349
1.84584
1.83806
1.84197
1.40001
1.83814
1.40001
1.40001
1.40001
1.28917
1.84185
1.84133
1.84149
1.84174
1.84491
1.84217
1.84478
1.8422
1.29012
1.43141
1.40001
1.40001
1.84344
1.84193
1.84176
1.84153
1.40003
1.63014
1.40001
1.84667
1.80156
1.40001
1.40001
1.13112
1.84185
1.40001
1.40001
1.02659
1.84164
1.40001
1.83817
1.84162
1.83827
1.82494
1.84173
1.40001
1.03036
1.50992
1.8416
1.84175
1.40001
1.84175
1.84168
1.62415
1.40824
1.5006
1.40001
1.83998
1.84195
1.40001
1.40001
1.03569
1.40001
1.40001
1.84175
1.84175
1.84295
1.84179
1.84134
1.84121
1.84202
1.84338
1.84146
1.40001
1.39619
1.84166
1.84191
1.39699
1.84168
1.84173
1.03661
1.03508
1.84174
1.84575
1.40001
1.40001
1.40095
1.84165
1.84302
1.84165
1.40001
1.8417
1.40001
1.25509
1.84708
1.84549
1.40001
1.60328
1.84177
1.40001
1.84026
1.40001
1.84199
1.70075
1.84207
1.40001
1.84145
1.84657
1.03553
1.8418
1.40001
1.84106
1.83887
1.40001
1.03697
1.84146
1.76635
1.3976
1.83395
1.84183
1.40001
1.3939
1.8433
1.39806
1.84175
1.40001
1.40001
1.84253
1.40001
1.84348
1.84166
1.39661
1.74516
1.40001
1.84171
1.40001
1.40001
1.40001
1.40001
1.84151
1.40001
1.40001
1.83613
1.40001
1.84196
1.40001
1.68451
1.84052
1.84118
1.40001
1.40001
1.39613
1.40001
1.84162
1.84177
1.84152
1.84172
1.84153
1.84127
1.84156
1.40001
1.84181
1.84229
1.40001
1.84128
1.84205
1.40001
1.84287
1.32412
1.45729
1.8418
1.8418
1.84165
1.40001
1.84168
1.40001
1.84137
1.84161
1.40001
1.84187
1.40001
1.40001
1.40001
1.40001
1.84215
1.02605
1.39789
1.40001
1.84179
1.84036
1.40001
1.84169
1.40001
1.40485
1.03163
1.84158
1.39959
1.40001
1.84184
1.39839
1.84188
1.40001
1.39977
1.40001
1.84245
1.84306
1.84104
1.84106
1.03024
1.84266
1.84116
1.8419
1.51296
1.40001
1.40001
1.58822
1.84138
1.02374
1.03177
1.40001
1.84155
1.84175
1.84071
1.40001
1.40001
1.84074
1.84113
1.39988
1.40001
1.72664
1.02608
1.40001
1.47996
1.83824
1.8393
1.39827
1.84167
1.84851
1.40001
1.39911
1.40001
1.84059
1.83883
1.58132
1.40001
1.82317
1.40001
1.40201
1.84199
1.03414
1.84144
1.84188
1.39699
1.39992
1.78276
1.40001
1.3997
1.40001
1.8426
1.40001
1.40002
1.02459
1.84167
1.40001
1.40001
1.40001
1.40001
1.8415
1.65044
1.40001
1.40001
1.03642
1.84166
1.65182
1.40001
1.40001
1.40001
1.82157
1.83715
1.83976
1.40001
1.40001
1.84368
1.40001
1.84191
1.84113
1.40001
1.40001
1.84347
1.8419
1.82059
1.40001
1.40001
1.84362
1.84292
1.40001
1.40001
1.40001
1.84294
1.40001
1.40001
1.40001
1.84221
1.84625
1.84432
1.40001
1.84057
1.40004
1.08328
1.84159
1.84151
1.40001
1.84246
1.81889
1.83804
1.40001
1.40001
1.84502
1.40001
1.63843
1.84118
1.40001
1.03664
1.40001
1.84361
1.40001
1.40001
1.83995
1.40001
1.40001
1.40001
1.53633
1.84108
1.0631
1.40002
1.84298
1.40001
1.40001
1.84185
1.40001
1.84534
1.40001
1.40001
1.84174
1.84181
1.40001
1.40006
1.40001
1.40001
1.40001
1.40001
1.40001
1.40001
1.84539
1.84164
1.40001
1.83832
1.03502
1.84719
1.40001
1.84184
1.84355
1.84186
1.84443
1.84165
1.40001
1.40001
1.84025
1.40001
1.67246
1.8458
1.84182
1.40001
1.84382
1.83789
1.40001
1.79448
1.40001
1.84168
1.68733
1.84048
1.39751
1.83304
1.80017
1.8425
1.84243
1.43725
1.84173
1.84476
1.40001
1.84177
1.40001
1.84196
1.40001
1.40001
1.40001
1.40001
1.3962
1.8416
1.84186
1.77603
1.40001
1.84425
1.40001
1.40001
1.40001
1.02587
1.40001
1.83104
1.40001
1.80165
1.82736
1.40001
1.40001
1.40001
1.80764
1.8382
1.40001
1.40001
1.84329
1.03413
1.47281
1.40001
1.84558
1.8416
1.80312
1.83038
1.84173
1.40001
1.84182
1.40001
1.40001
1.40001
1.40001
1.84058
1.84227
1.40001
1.83157
1.4546
1.8415
1.8117
1.40001
1.40001
1.81336
1.40001
1.40001
1.03195
1.71302
1.40001
1.40001
1.84605
1.40001
1.84525
1.80239
1.40001
1.8016
1.03306
1.84174
1.84179
1.84251
1.40001
1.02667
1.40001
1.40001
1.40001
1.84196
1.77684
1.40001
1.83783
1.84187
1.40001
1.84177
1.40001
1.40001
1.40001
1.40001
1.84191
1.39936
1.40001
1.8436
1.40001
1.40001
1.83808
1.84173
1.40001
1.84521
1.48559
1.40003
1.40001
1.84216
1.40001
1.8423
1.40001
1.41329
1.84162
1.40001
1.84171
1.40001
1.40001
1.53927
1.84194
1.40001
1.40001
1.40001
1.40001
1.40001
1.39624
1.03433
1.03523
1.42004
1.40001
1.4204
1.40001
1.42003
1.40001
1.84156
1.40001
1.6669
1.40001
1.8418
1.40001
1.40001
1.40001
1.84177
1.40001
1.75998
1.84127
1.40001
1.63374
1.84215
1.40001
1.40001
1.83877
1.84162
1.40001
1.40001
1.44769
1.02364
1.40001
1.84282
1.40001
1.40001
1.40001
1.40001
1.47574
1.84168
1.40001
1.40001
1.40001
1.03253
1.40001
1.84172
1.8415
1.85167
1.40001
1.40001
1.40001
1.40001
1.62015
1.84171
1.40001
1.40001
1.40001
1.84548
1.84154
1.45023
1.40001
1.40001
1.40001
1.84174
1.84149
1.40001
1.03585
1.8416
1.84195
1.84057
1.84114
1.84292
1.40001
1.40001
1.84202
1.84084
1.84174
1.02858
1.44039
1.84179
1.40001
1.40001
1.40001
1.40001
1.40001
1.84188
1.03284
1.40001
1.40001
1.84165
1.59695
1.40001
1.84393
1.40001
1.40001
1.40001
1.03201
1.40001
1.40001
1.51772
1.84159
1.84173
1.40001
1.8409
1.84499
1.40001
1.47341
1.40001
1.84269
1.40001
1.84175
1.03638
1.40001
1.40001
1.40001
1.40001
1.84177
1.40007
1.40001
1.40001
1.40001
1.82373
1.40001
1.40001
1.40001
1.40001
1.8412
1.03398
1.74932
1.84443
1.40001
1.8423
1.40001
1.40001
1.40001
1.39712
1.40001
1.84029
1.40001
1.20361
1.40001
1.40001
1.40004
1.84227
1.03249
1.40001
1.84079
1.40001
1.84349
1.84157
1.03233
1.40001
1.40001
1.82538
1.40001
1.40001
1.02733
1.40001
1.84536
1.40001
1.82218
1.39932
1.8409
1.40001
1.40001
1.40001
1.40001
1.83882
1.40001
1.40001
1.84182
1.40001
1.40001
1.40001
1.40001
1.40001
1.40001
1.40001
1.40001
1.68987
1.40001
1.54437
1.84124
1.40001
1.40001
1.40001
1.03507
1.40001
1.40001
1.40001
1.40001
1.84112
1.84163
1.45547
1.40001
1.40001
1.8429
1.40001
1.40001
1.84179
1.40001
1.40002
1.40001
1.40001
1.40001
1.40002
1.84126
1.17514
1.84182
1.8436
1.39687
1.40001
1.40001
1.40001
1.6614
1.40001
1.40001
1.84209
1.84153
1.40001
1.40001
1.40001
1.40001
1.03355
1.40001
1.40001
1.40001
1.67927
1.40001
1.84177
1.84493
1.40001
1.84311
1.40001
1.40001
1.40001
1.63895
1.40001
1.83806
1.40001
1.84151
1.40001
1.40001
1.39634
1.84154
1.40001
1.40001
1.40001
1.40001
1.40001
1.84354
1.40003
1.40001
1.02986
1.84149
1.03001
1.40001
1.8442
1.40001
1.39598
1.40001
1.84277
1.84018
1.40001
1.84208
1.27599
1.84194
1.84232
1.40004
1.40001
1.40001
1.03275
1.40001
1.40001
1.40001
1.84174
1.65745
1.84511
1.40001
1.40001
1.40001
1.40001
1.3968
1.84216
1.40001
1.03737
1.40001
1.40001
1.40001
1.40001
1.40001
1.40001
1.40001
1.84798
1.84034
1.84387
1.40001
1.40001
1.39688
1.40001
1.37681
1.40001
1.40001
1.40001
1.03457
1.37359
1.40001
1.03941
1.03411
1.40001
1.84247
1.84178
1.40001
1.8418
1.8415
1.03525
1.69631
1.40001
1.40001
1.40001
1.03774
1.84198
1.40001
1.03419
1.40001
1.84115
1.47469
1.40001
1.40001
1.40001
1.40001
1.84165
1.83964
1.40001
1.40001
1.84175
1.40001
1.40001
1.83934
1.84201
1.40001
1.81088
1.84183
1.83914
1.35851
1.84214
1.4087
1.03407
1.73979
1.84231
1.40001
1.40001
1.40001
1.03469
1.40001
1.03431
1.84154
1.35771
1.84179
1.35341
1.40001
1.84075
1.60228
1.40001
1.40001
1.84128
1.40001
1.58112
1.84059
1.40001
1.40001
1.83808
1.84812
1.03468
1.6678
1.3999
1.40001
1.66892
1.40001
1.84107
1.33845
1.8493
1.84613
1.40001
1.40001
1.40001
1.40001
1.82832
1.40001
1.40001
1.84049
1.39965
1.84187
1.76467
1.84196
1.03475
1.40001
1.40001
1.40001
1.40001
1.84182
1.40005
1.84178
1.40001
1.84191
1.84114
1.45743
1.84299
1.53798
1.84168
1.40001
1.70255
1.06282
1.84145
1.84147
1.74837
1.47472
1.84002
1.84188
1.84163
1.84301
1.40001
1.3152
1.46692
1.40001
1.84151
1.61279
1.84165
1.40004
1.40001
1.40001
1.07559
1.84576
1.84002
1.75849
1.40001
1.56995
1.40001
1.84203
1.84035
1.40001
1.84209
1.84041
1.40001
1.40001
1.40001
1.84233
1.40001
1.57767
1.845
1.70537
1.40001
1.84129
1.40001
1.40001
1.40001
1.40001
1.40001
1.40001
1.40001
1.40001
1.40001
1.40001
1.05937
1.40001
1.81151
1.03543
1.66078
1.39857
1.84216
1.40001
1.63261
1.40002
1.68478
1.77894
1.40001
1.40224
1.84283
1.31049
1.40001
1.84222
1.82974
1.3392
1.40001
1.84052
1.84186
1.84394
1.40001
1.84152
1.84172
1.84326
1.40001
1.59975
1.40001
1.40006
1.84181
1.40001
1.84194
1.4662
1.84268
1.40001
1.40001
1.84238
1.84303
1.07542
1.40001
1.8416
1.7326
1.84087
1.40001
1.40001
1.83936
1.84463
1.39824
1.40001
1.80334
1.39689
1.84196
1.40006
1.40001
1.40001
1.40001
1.40001
1.59905
1.40001
1.73559
1.84109
1.73093
1.84043
1.40001
1.40466
1.40001
1.40001
1.83945
1.40001
1.84358
1.40001
1.40001
1.40001
1.40001
1.4
1.40001
1.45473
1.62975
1.40001
1.40001
1.03446
1.40001
1.84042
1.06366
1.84269
1.40001
1.62187
1.39976
1.84121
1.68283
1.0427
1.64236
1.40004
1.84193
1.843
1.40001
1.66682
1.84114
1.84152
1.39841
1.84345
1.82977
1.032
1.40001
1.40001
1.39749
1.40001
1.83966
1.40001
1.04413
1.83995
1.40001
1.40001
1.78826
1.40001
1.84136
1.40001
1.84199
1.40001
1.06955
1.40001
1.40001
1.84307
1.84779
1.84066
1.40001
1.83995
1.84194
1.83776
1.40001
1.40001
1.84035
1.4
1.12612
1.40001
1.40001
1.40001
1.84151
1.40001
1.8417
1.68811
1.84076
1.40001
1.84187
1.39938
1.40001
1.40001
1.40001
1.40001
1.40001
1.40001
1.09918
1.40001
1.40001
1.84172
1.40001
1.84229
1.84549
1.40001
1.03966
1.03278
1.40001
1.84309
1.47632
1.03244
1.00657
1.40001
1.84136
1.40001
1.8406
1.03697
1.40094
1.40001
1.40001
1.39951
1.40001
1.40001
1.40001
1.39992
1.58223
1.84174
1.40001
1.40001
1.84279
1.66272
1.40001
1.79479
1.84023
1.8417
1.58245
1.84087
1.40001
1.84174
1.40001
1.83963
1.40001
1.84033
1.84255
1.39714
1.84276
1.84637
1.40001
1.40001
1.40001
1.40001
1.40001
1.31786
1.83923
1.40005
1.40003
1.03184
1.4
1.03463
1.03071
1.40001
1.84198
1.84165
1.84172
1.40001
1.84174
1.40001
1.03649
1.40001
1.40001
1.8411
1.22788
1.84131
1.40001
1.84255
1.40001
1.37806
1.84133
1.40001
1.40001
1.40001
1.84193
1.40001
1.84155
1.0341
1.40001
1.40001
1.65857
1.40001
1.40001
1.64135
1.40001
1.40001
1.84175
1.40001
1.40001
1.40001
1.40001
1.40001
1.83836
1.8416
1.40001
1.84081
1.84168
1.03834
1.60304
1.83998
1.40001
1.40001
1.79829
1.39893
1.40001
1.40001
1.84175
1.84261
1.68837
1.40001
1.84195
1.04619
1.82629
1.39964
1.40001
1.84096
1.40004
1.84076
1.7703
1.73845
1.40001
1.40001
1.84141
1.10571
1.03349
1.40001
1.8418
1.40001
1.84094
1.40001
1.66401
1.40001
1.40001
1.84073
1.68351
1.03758
1.40001
1.39843
1.40001
1.40001
1.42575
1.58128
1.84149
1.40001
1.84432
1.40001
1.40001
1.40001
1.40001
1.40001
1.40001
1.46555
1.03468
1.40001
1.40001
1.43196
1.40001
1.40001
1.40001
1.40001
1.40001
1.84228
1.40001
1.40001
1.84177
1.84169
1.72501
1.40001
1.40001
1.40001
1.22846
1.84293
1.7078
1.40001
1.40001
1.40001
1.40001
1.84181
1.40001
1.40001
1.40001
1.84068
1.40001
1.40001
1.71849
1.85192
1.4348
1.13381
1.84238
1.71177
1.84223
1.40001
1.6215
1.40001
1.40001
1.40001
1.03611
1.40243
1.02792
1.40001
1.03742
1.02211
1.40001
1.03825
1.40001
1.40001
1.40001
1.59573
1.40001
1.84185
1.84228
1.40143
1.61532
1.77567
1.03561
1.15781
1.28019
1.40001
1.84168
1.8397
1.84169
1.8418
1.78048
1.26772
1.40001
1.78251
1.40001
1.83252
1.40001
1.40001
1.39646
1.41058
1.40001
1.40001
1.40001
1.84046
1.40001
1.03551
1.40001
1.84296
1.02871
1.40001
1.40001
1.84177
1.40001
1.84161
1.40016
1.40001
1.40001
1.84259
1.79175
1.40001
1.85424
1.40001
1.40001
1.41491
1.40001
1.59561
1.40001
1.40001
1.03825
1.40001
1.40001
1.84011
1.4
1.84218
1.40001
1.40004
1.03146
1.40001
1.40001
1.02742
1.40082
1.40001
1.84055
1.03483
1.84257
1.03822
1.84178
1.40001
1.40001
1.40001
1.40001
1.40001
1.40001
1.40001
1.40001
1.40001
1.40001
1.40001
1.82409
1.40001
1.84348
1.8393
1.03433
1.40001
1.40001
1.40001
1.40001
1.40001
1.40001
1.82956
1.40001
1.40001
1.03629
1.40001
1.40001
1.84001
1.40001
1.40001
1.5718
1.77036
1.03526
1.03576
1.08553
1.12605
1.40001
1.39663
1.02844
1.40031
1.8167
1.39691
1.40001
1.40001
1.84192
1.40001
1.40001
1.40001
1.16169
1.40002
1.5617
1.40001
1.40001
1.58354
1.84202
1.40001
1.03813
1.40001
1.40001
1.40001
1.39673
1.40001
1.84182
1.8417
1.40001
1.0385
1.40001
1.63955
1.03466
1.40001
1.28218
1.40001
1.39632
1.02183
1.40001
1.40001
1.40001
1.39614
1.03483
1.40001
1.03783
1.39841
1.63361
1.79675
1.03605
1.0314
1.40001
1.39065
1.40001
1.39866
1.40001
1.84175
1.84216
1.40001
1.40735
1.84195
1.84162
1.40001
1.40001
1.84174
1.40001
1.40001
1.40005
1.40001
1.84419
1.40001
1.40001
1.41859
1.40001
1.39857
1.08184
1.40001
1.40001
1.40001
1.40001
1.40001
1.84038
1.43178
1.40006
1.40001
1.40001
1.40001
1.40001
1.40001
1.40004
1.40001
1.03791
1.49505
1.3986
1.82661
1.84002
1.40001
1.41372
1.8419
1.78449
1.40001
1.40001
1.03329
1.84187
1.40001
1.83992
1.40001
1.84274
1.69939
1.03428
1.40001
1.03386
1.80532
1.39969
1.40001
1.03488
1.03506
1.40001
1.40001
1.77418
1.40001
1.4
1.02968
1.40001
1.40001
1.40001
1.54728
1.40001
1.03429
1.84044
1.40001
1.40001
1.40001
1.40001
1.84221
1.40001
1.40001
1.846
1.79642
1.40001
1.40001
1.40001
1.84496
1.03682
1.40001
1.84128
1.8419
1.40001
1.75393
1.4
1.40003
1.40001
1.40001
1.81468
1.40845
1.40001
1.02956
1.6353
1.40001
1.40001
1.39761
1.40001
1.40001
1.83977
1.40001
1.40001
1.40004
1.40001
1.84075
1.40001
1.40001
1.40001
1.40001
1.40001
1.40001
1.40002
1.59337
1.40001
1.84085
1.40001
1.40001
1.84314
1.40001
1.40001
1.40001
1.84181
1.84416
1.44621
1.40001
1.39766
1.40001
1.40001
1.40001
1.40001
1.83885
1.40001
1.40001
1.84175
1.03422
1.40001
1.40001
1.40001
1.40001
1.40001
1.40001
1.7572
1.40001
1.40001
1.84231
1.84152
1.40001
1.40001
1.40001
1.84111
1.84063
1.40001
1.39967
1.84213
1.40001
1.40001
1.40001
1.40002
1.03134
1.42987
1.39623
1.39584
1.40001
1.40001
1.03121
1.84215
1.40001
1.03711
1.40001
1.84321
1.82377
1.03473
1.39942
1.84153
1.84118
1.84147
1.40001
1.40001
1.32279
1.79942
1.76792
1.03714
1.40001
1.40001
1.40001
1.8419
1.8419
1.03331
1.39728
1.40001
1.84195
1.03429
1.40001
1.83748
1.03708
1.36748
1.40688
1.40001
1.84434
1.40001
1.40001
1.40001
1.40001
1.40001
1.40001
1.40012
1.81216
1.40001
1.40001
1.8404
1.40001
1.40001
1.40001
1.84173
1.40001
1.03676
1.40001
1.40001
1.40001
1.55563
1.40001
1.40001
1.40001
1.40001
1.40001
1.17798
1.40001
1.03247
1.40001
1.84158
1.40007
1.25355
1.26329
1.40002
1.4036
1.6329
1.40001
1.40001
1.03403
1.84156
1.84156
1.84185
1.40001
1.02693
1.03039
1.40001
1.84181
1.40001
1.40001
1.40001
1.40001
1.40001
1.40003
1.40001
1.03197
1.68661
1.40001
1.40001
1.03536
1.38256
1.40001
1.40001
1.40001
1.40001
1.01953
1.40001
1.07406
1.40001
1.40001
1.84691
1.40001
1.40001
1.03423
1.40001
1.84161
1.40001
1.03577
1.40001
1.03755
1.40001
1.40837
1.84191
1.85216
1.40001
1.40001
1.83895
1.40001
1.40001
1.49558
1.39675
1.40001
1.39827
1.40001
1.84388
1.40001
1.02988
1.40002
1.83846
1.39896
1.40001
1.40001
1.1882
1.40001
1.39903
1.03326
1.84098
1.55994
1.40001
1.40001
1.30477
1.40001
1.40001
1.40001
1.18725
1.40001
1.40001
1.40001
1.84168
1.40001
1.0339
1.4
1.40001
1.40001
1.40001
1.02667
1.84173
1.81059
1.03827
1.40001
1.84589
1.40001
1.40001
1.84205
1.83973
1.77216
1.02673
1.39776
1.39925
1.40001
1.84168
1.40001
1.40001
1.40001
1.40001
1.84237
1.40004
1.40001
1.40001
1.83972
1.40001
1.40001
1.84194
1.03829
1.40001
1.40001
1.40001
1.03196
1.40001
1.4
1.4
1.39866
1.40001
1.40001
1.40001
1.40001
1.74881
1.40001
1.84087
1.84084
1.84928
1.84165
1.84208
1.84198
1.40001
1.84212
1.40001
1.84163
1.84186
1.40001
1.39886
1.03836
1.77831
1.39991
1.40001
1.40001
1.40001
1.40001
1.39648
1.40001
1.47115
1.40001
1.40001
1.40001
1.24188
1.84194
1.84133
1.84535
1.7913
1.39988
1.40001
1.42194
1.84176
1.39791
1.45852
1.39731
1.03527
1.40001
1.40003
1.40001
1.40001
1.40001
1.40001
1.40001
1.84187
1.03367
1.84194
1.84183
1.39505
1.03597
1.40001
1.40001
1.40001
1.84114
1.03571
1.79054
1.02597
1.84166
1.84558
1.03787
1.842
1.42326
1.40001
1.84468
1.18632
1.40001
1.39874
1.03754
1.40001
1.03459
1.40001
1.84208
1.84164
1.13776
1.40001
1.84061
1.03501
1.40001
1.03926
1.40001
1.84168
1.40001
1.40001
1.83617
1.40001
1.2272
1.40001
1.39965
1.03414
1.84071
1.39948
1.40001
1.03582
1.40001
1.40001
1.40001
1.40001
1.6405
1.40001
1.84113
1.40001
1.40001
1.84983
1.40001
1.40001
1.84141
1.40001
1.03264
1.40001
1.02887
1.40002
1.40001
1.40001
1.40001
1.40001
1.82297
1.66233
1.84167
1.40001
1.8416
1.81127
1.01823
1.03713
1.40001
1.40001
1.84083
1.40001
1.03401
1.40001
1.38128
1.40001
1.40001
1.84185
1.40001
1.84066
1.03664
1.84085
1.40001
1.03667
1.40001
1.40001
1.84458
1.84024
1.40001
1.40005
1.40001
1.84433
1.40001
1.40001
1.02919
1.39939
1.03334
1.40001
1.40001
1.40001
1.84335
1.84164
1.84019
1.40001
1.40001
1.03641
1.40001
1.8437
1.40001
1.40001
1.40001
1.81895
1.84195
1.84164
1.036
1.84377
1.8416
1.03936
1.83994
1.40005
1.04207
1.40968
1.40001
1.40001
1.84115
1.0357
1.68164
1.03565
1.84164
1.39728
1.0308
1.8437
1.40001
1.40001
1.40001
1.40001
1.84147
1.83922
1.03827
1.40001
1.40003
1.03662
1.40004
1.40001
1.03523
1.03167
1.70785
1.84133
1.39848
1.84164
1.40001
1.83883
1.21272
1.03288
1.84178
1.84748
1.40001
1.84203
1.40001
1.40001
1.84184
1.40001
1.73952
1.83997
1.40001
1.40001
1.40001
1.40001
1.84188
1.83685
1.84146
1.40001
1.40001
1.8403
1.83855
1.84155
1.40001
1.84183
1.40001
1.40001
1.40001
1.40001
1.40001
1.03449
1.22875
1.03656
1.40001
1.40001
1.84147
1.40001
1.40001
1.84197
1.02159
1.40001
1.84178
1.837
1.82263
1.02464
1.40001
1.03576
1.40001
1.40003
1.83941
1.61946
1.83947
1.80426
1.40001
1.03688
1.40001
1.84254
1.7171
1.03078
1.40001
1.40001
1.40001
1.19978
1.40001
1.40001
1.84141
1.40001
1.02927
1.84188
1.40001
1.40001
1.40001
1.40001
1.40001
1.75544
1.50317
1.40001
1.84108
1.40001
1.84166
1.40001
1.39746
1.40001
1.84217
1.84272
1.84248
1.84534
1.39958
1.83985
1.40001
1.84174
1.84105
1.77502
1.40001
1.40001
1.03464
1.8403
1.40001
1.40001
1.84511
1.84187
1.84049
1.40001
1.84109
1.40001
1.40001
1.40004
1.84259
1.84045
1.52576
1.49903
1.84198
1.84141
1.07953
1.40001
1.40001
1.40001
1.40001
1.40002
1.55938
1.40001
1.40001
1.77187
1.03074
1.39998
1.40001
1.84161
1.3999
1.39981
1.46405
1.79283
1.83929
1.30566
1.40001
1.03457
1.40001
1.39672
1.84197
1.8444
1.83952
1.39903
1.40001
1.40001
1.03468
1.40001
1.40001
1.84196
1.44929
1.40001
1.40001
1.40001
1.40001
1.40001
1.40001
1.40001
1.39994
1.84022
1.40002
1.40001
1.40001
1.40001
1.40001
1.69258
1.40001
1.61225
1.40001
1.40001
1.84164
1.84649
1.03139
1.3988
1.40001
1.4
1.40001
1.03823
1.84063
1.84203
1.40001
1.40001
1.40001
1.40001
1.40001
1.40001
1.40001
1.40001
1.84173
1.83897
1.03404
1.45005
1.03197
1.40001
1.03396
1.40001
1.84173
1.52359
1.40001
1.40001
1.10251
1.40001
1.82301
1.20559
1.39646
1.0335
1.40001
1.40001
1.83852
1.40005
1.39697
1.01571
1.84042
1.8491
1.40001
1.40001
1.40001
1.40001
1.81291
1.40001
1.40001
1.84154
1.39896
1.84116
1.40004
1.40001
1.40001
1.03787
1.40001
1.40001
1.8418
1.03227
1.16984
1.02954
1.8418
1.39931
1.40001
1.84296
1.03599
1.03586
1.41155
1.40001
1.40001
1.83911
1.40004
1.59646
1.40001
1.40001
1.83906
1.0368
1.40001
1.40001
1.40014
1.84083
1.40013
1.82864
1.40001
1.40004
1.40001
1.40001
1.11245
1.40001
1.17455
1.40002
1.40001
1.84393
1.03821
1.40001
1.1692
1.19408
1.40001
1.40001
1.84202
1.40001
1.40001
1.40001
1.84159
1.84186
1.40006
1.82776
1.83895
1.17237
1.84173
1.82022
1.40001
1.40001
1.83869
1.4
1.40001
1.40001
1.40001
1.40001
1.84135
1.84159
1.40001
1.40001
1.40001
1.84208