/*--------------------------------*- C++ -*----------------------------------*\
  =========                 |
  \\      /  F ield         | OpenFOAM: The Open Source CFD Toolbox
   \\    /   O peration     | Website:  https://openfoam.org
    \\  /    A nd           | Version:  12
     \\/     M anipulation  |
\*---------------------------------------------------------------------------*/
FoamFile
{
    format      ascii;
    class       volScalarField;
    location    "2.02";
    object      rho;
}
// * * * * * * * * * * * * * * * * * * * * * * * * * * * * * * * * * * * * * //

dimensions      [1 -3 0 0 0 0 0];

internalField   nonuniform List<scalar> 
22702
(
1.40001
1.40001
1.29724
1.40001
1.44086
1.40001
1.83581
1.40001
1.40001
1.04807
1.83775
1.83664
1.40001
1.84158
1.32238
1.40001
1.40001
1.40001
1.83826
1.40001
1.84206
1.40001
1.83808
1.01912
1.84489
1.16891
1.40001
1.84114
1.07005
1.01373
1.40001
1.83991
1.40001
1.40001
1.40001
1.80937
1.84214
1.83803
1.40001
1.40001
1.03837
1.40001
1.6048
1.40001
1.83968
1.40001
1.40001
1.40001
1.40001
1.02434
1.40001
1.0171
1.40001
1.8386
1.40001
1.84147
1.40001
1.40001
1.40001
1.40001
0.869427
1.40001
1.40001
1.03555
1.40001
1.02017
1.40001
1.40001
1.40001
1.01648
1.40001
1.84126
1.66701
1.40001
1.84259
1.86328
1.02956
1.83968
1.02536
1.40001
1.83918
1.02539
1.83859
1.83861
1.40001
1.40001
1.40001
1.40001
1.35517
1.03108
1.83937
1.40001
1.40001
1.08808
1.40001
1.84277
1.09827
1.40001
1.40001
1.40001
1.40001
1.60557
1.8394
1.18666
1.40001
1.40001
1.51964
1.40001
1.027
1.40001
1.83987
1.83931
1.40001
1.40001
1.05757
1.06925
1.03433
1.40001
1.40001
1.40001
1.40001
1.40001
1.3431
1.40001
1.77618
1.41387
1.84155
1.40001
1.84022
1.83774
1.84188
1.83824
1.40001
0.982002
1.40001
1.03937
1.40001
1.40001
1.40001
1.40001
1.83886
1.40001
1.40001
1.40001
1.40001
1.8407
1.40001
1.42442
1.40001
1.40001
1.40001
1.40001
1.02769
1.40001
1.41057
1.40001
1.02374
1.40001
1.40001
1.40001
1.83824
1.40001
1.84055
1.06662
0.895112
1.84436
1.84323
1.40001
1.44868
1.64263
1.40001
1.83994
1.02531
1.81035
1.40001
1.40001
1.40001
1.40001
1.84163
1.77168
1.40001
1.83833
0.990683
1.84138
1.40001
1.03138
1.40001
1.01529
1.08129
1.39981
1.40001
1.40001
1.83699
1.40001
1.40001
1.84126
1.40001
1.83873
1.83794
1.02395
1.40001
1.40001
1.02345
1.84052
1.40001
1.40001
1.40001
1.84061
1.40001
1.03321
1.40001
1.40001
1.84221
1.84168
1.83963
1.40001
1.40004
1.40001
1.40001
1.40001
1.84168
1.40001
0.983343
1.85672
1.84023
1.84117
1.40001
1.40001
1.40001
1.00841
1.84188
1.61445
1.40001
1.84315
1.01546
1.0191
1.84327
1.84524
1.40001
1.84639
0.960937
1.7913
1.40001
1.40001
1.40001
1.40001
1.84122
1.40001
1.65595
1.44212
1.40001
1.40001
1.84297
1.04218
1.13209
1.40001
1.84562
1.05972
1.841
1.40001
1.40001
1.40001
1.40001
1.40001
1.40001
1.40001
1.02895
1.18475
1.01887
1.84276
1.40001
1.40001
1.40001
1.40001
1.7929
1.40001
1.02692
1.40001
1.00803
1.02455
1.84306
1.02094
1.84246
1.40001
1.40001
1.40001
1.39753
1.03395
0.957526
1.4
1.40001
1.00192
1.40001
1.83836
1.19556
1.40001
1.40001
1.83742
1.04714
1.40001
1.84281
0.888147
1.84314
1.40001
1.01327
1.39768
1.40001
1.40001
1.40001
1.03103
1.40001
1.40001
1.40001
1.40001
1.40134
1.67163
1.40001
1.00833
1.40001
1.40001
1.40001
1.40001
1.40001
1.40001
1.40001
1.83743
1.40001
1.83686
1.40001
1.40001
1.40001
1.05127
1.40001
1.84122
1.02301
1.40001
1.74728
1.40001
1.40001
1.84175
1.40001
1.40001
1.40001
1.82873
1.40001
1.40001
1.82423
1.83901
1.40001
1.49358
1.40001
1.40001
1.03813
1.40001
1.40001
1.40001
1.06665
1.40001
1.40001
1.40001
1.40001
1.04134
1.40001
1.40001
1.40001
1.40001
1.40001
0.996398
1.40007
1.84045
1.40001
1.39999
1.84246
1.84445
1.40001
1.40001
1.0362
1.17155
1.84024
1.40001
1.40001
1.40001
1.84326
1.02766
1.40001
1.8411
1.40001
1.40001
1.08493
1.08804
1.40001
1.03724
1.04314
1.40001
1.40001
1.40001
1.40001
1.40001
1.40001
1.40001
1.84149
1.53227
1.8122
0.996723
1.31481
1.83781
1.40001
1.84294
1.8389
1.021
1.12793
1.40001
1.04061
1.40001
1.84937
1.40001
1.40001
1.40001
1.40001
1.84033
1.40001
1.40001
1.40001
1.40001
1.40001
1.40001
1.40001
1.57316
1.83817
1.40001
1.84256
1.40001
1.40001
1.02577
1.40001
1.40001
1.40001
1.40001
1.84083
1.7472
1.40001
1.40001
1.0389
1.83989
1.84245
1.40001
1.84221
1.84092
1.84209
1.40001
1.18979
1.40001
1.84046
1.35844
1.84225
1.40001
1.02118
1.39882
1.84012
1.40001
1.40001
1.40001
1.40001
1.03229
1.84313
1.80192
1.40001
1.84382
1.8424
1.84052
1.40001
1.6106
1.84272
1.40001
1.40001
1.70493
1.46639
1.84225
1.32002
1.84262
1.40001
1.84252
1.8428
1.8424
1.83994
1.40001
1.8289
1.30641
1.26854
1.40001
1.4
1.40001
1.40001
1.83761
1.40001
1.40001
1.40001
1.40001
1.40001
1.84044
1.40001
1.40001
1.39627
1.84261
1.79684
1.40001
1.76389
1.40005
1.40001
1.40001
1.84002
1.40001
1.39716
1.40438
1.40001
1.84186
1.40001
1.83899
1.40001
1.40001
1.70431
1.40001
1.83792
1.40003
1.40001
1.84067
1.40001
1.84165
1.40001
1.40001
1.40001
1.84134
1.40001
1.8391
1.40001
1.84068
1.83976
1.84229
1.84026
1.40001
1.83893
1.84587
1.40001
1.01273
1.82569
1.71933
1.40001
1.84048
1.40001
1.04501
0.861276
1.40001
1.40001
1.40001
1.40001
1.40001
1.12864
1.40001
1.84241
1.5307
1.84027
1.40001
1.40001
1.40001
1.40001
1.40001
1.84265
1.40001
1.84426
1.69061
1.13292
1.40001
1.40001
1.53304
1.5186
1.40001
1.40001
1.55076
1.40001
1.02294
1.84197
1.84178
1.40001
1.40001
1.40001
1.84026
1.40001
1.40003
1.84015
1.84245
1.34566
1.40001
1.40001
1.02341
1.79038
1.40001
1.40001
1.40001
1.40001
1.40001
1.84211
1.83949
1.40001
1.84132
1.84015
1.84271
1.40001
1.40001
1.40001
1.40001
1.20701
1.8373
1.40001
1.40001
1.81133
1.84095
1.40001
1.82437
1.8382
1.40001
1.40001
1.40001
1.40001
1.40001
1.84171
1.40001
1.40001
1.40001
1.40001
1.84077
1.40001
1.84177
1.04428
1.40001
1.01848
1.40001
1.40001
1.40001
1.39694
1.02107
1.39901
1.40001
1.40001
1.40001
1.461
1.40001
1.40001
1.2637
1.40001
1.40001
1.40001
1.40001
1.40001
1.40001
1.40001
1.4
1.32943
1.4
1.40001
1.39753
1.40001
1.032
1.40001
1.40001
1.40001
1.40001
1.72578
1.40001
1.40001
1.40001
1.40001
1.03057
1.40001
1.40001
1.8102
1.83703
1.4
1.40001
1.40001
1.2723
1.40001
1.40001
1.40001
1.40001
1.40001
1.40001
1.34523
1.39995
1.84135
1.40001
1.40001
1.40001
1.84487
1.3185
1.40001
1.40001
1.40001
1.83907
1.84034
1.40001
1.40001
1.40001
1.40001
1.40001
1.40001
1.40001
1.40001
1.40001
1.05335
1.40001
1.40001
1.83992
1.03619
1.40001
1.83953
1.40001
1.02729
1.40001
1.40001
1.04939
1.40001
1.40001
1.40001
1.40001
1.40001
1.40001
1.40001
1.83773
1.84595
1.40001
1.40001
1.40001
1.40001
1.80369
1.40001
1.55983
1.01914
1.40001
1.40001
1.40001
1.40001
1.40001
1.40001
1.40001
1.44001
1.40001
1.40001
1.6287
1.40001
1.40001
1.40001
1.76575
1.40001
1.40001
1.40001
1.40001
1.04715
1.40001
1.40001
1.02553
1.0401
1.40001
1.40001
1.84112
1.40001
1.41506
1.40001
1.40001
1.40001
1.73283
1.03177
1.40001
1.02057
1.40001
1.15785
1.40001
1.40001
1.40001
1.84079
1.40001
1.40001
1.84207
1.40001
1.40001
1.40001
1.84139
1.40001
1.40001
1.84086
1.40001
1.40001
1.02072
1.40001
1.54585
1.40001
1.40001
1.83955
1.83645
1.67327
1.78258
1.40001
1.02213
1.40001
1.40001
1.82593
1.40001
1.04676
1.40001
1.40001
1.40001
1.84237
1.40001
1.40001
1.40001
1.40001
1.67869
1.40001
1.80322
1.84131
1.0634
1.40001
1.40001
1.16769
1.16466
1.40001
1.40001
1.40001
1.72271
1.76139
1.40001
1.40001
1.40001
1.40001
1.40001
1.40001
1.40001
1.61248
1.83971
1.40218
1.40001
1.83631
0.95043
1.40001
1.40001
1.40001
1.63489
1.40001
1.48973
1.40001
1.78343
1.83722
1.40001
1.02209
1.40001
1.84154
1.40001
1.40001
1.84341
1.82243
1.40001
1.83917
1.40001
1.01838
1.40001
1.40001
1.40001
1.83804
1.82911
1.77433
1.40001
1.84093
1.84173
1.40001
1.84244
1.40001
1.84186
1.40001
1.05672
1.37519
1.04873
1.40001
1.40001
1.40001
1.40001
1.40001
1.8414
1.40001
1.84271
1.40001
1.40001
1.40001
1.81007
1.40001
1.01892
1.84209
1.40001
1.0368
1.0499
1.03998
1.40001
1.61283
1.4284
1.84492
1.84121
1.40001
1.4
1.40001
1.40001
1.84206
1.40001
1.40001
1.84164
1.84146
1.40001
1.56832
1.3995
1.40001
1.39682
1.83844
1.24947
1.40001
1.22556
1.02503
1.0238
1.32693
1.84035
1.83998
1.48727
1.84262
1.84217
1.40001
1.40001
1.8408
1.83884
1.83865
1.83577
1.40001
1.83796
1.0397
1.84643
1.84146
1.84058
1.84066
1.25305
1.29503
1.32955
1.84064
1.35261
1.83993
1.40001
1.40001
1.84335
1.84192
1.40001
1.03972
1.8388
1.84117
1.40001
1.841
1.84077
1.40001
1.84221
1.03381
1.8417
1.84051
1.8393
1.84232
1.40001
1.40001
1.40001
1.84074
1.71427
1.00726
1.84144
1.03301
1.84049
1.40001
1.40001
1.40001
1.40001
1.84358
1.8419
1.40001
1.40001
1.84179
1.03737
1.84224
1.02784
1.40001
1.8293
1.40001
1.04709
1.84332
1.11773
1.40001
1.84136
1.84432
1.84008
1.40001
1.40001
1.62461
1.84372
1.02971
1.84158
1.40001
1.84102
1.28564
1.83949
1.04357
1.40001
1.843
1.06648
1.84447
1.02774
1.40001
1.84228
1.40001
1.83779
1.40001
1.64393
1.83544
1.72254
1.01656
1.40001
1.84184
1.40001
1.84165
1.40001
1.83937
1.40001
1.40001
1.84187
1.35512
1.84369
1.06056
1.80199
1.40001
1.7129
1.40001
1.84084
1.83856
1.84141
1.40001
1.79211
1.84145
1.7973
1.65008
1.8425
1.40001
1.67877
1.40001
1.84236
1.40001
1.45752
1.40001
1.8217
1.40001
1.8414
1.80814
1.80905
1.40001
1.83557
0.88911
1.40001
1.03789
1.40001
1.40001
1.40001
1.83784
1.40001
1.84507
1.40001
1.40001
1.40001
1.84244
1.82935
1.76793
1.84369
1.84795
1.02173
1.8336
1.8378
1.40001
1.78152
1.83757
1.82248
1.40001
1.84052
1.84136
1.40001
1.846
1.84306
1.84149
1.84341
1.40001
1.40001
1.40001
1.84133
0.996758
1.40001
1.84536
1.40001
1.40001
0.850456
1.40001
1.40001
1.84349
1.84199
1.40001
1.84372
1.84628
1.8426
1.37764
1.84144
1.40001
1.84087
1.83996
1.75031
1.40001
1.40001
1.40001
1.84544
1.84211
1.83975
1.33153
1.40001
1.84991
1.84197
1.8419
1.40001
1.84192
1.84186
1.83867
1.84941
1.40001
1.84083
1.83688
1.78426
1.84252
1.84742
1.40001
1.84999
1.83454
1.8438
1.84632
1.84256
1.01581
1.84377
1.84345
1.40001
1.83899
1.84342
1.83751
1.84064
1.40001
1.8394
1.84541
1.40001
1.84116
1.76586
1.40001
1.40001
1.40001
1.8424
1.84814
1.40001
1.40001
1.6524
1.40001
1.84202
1.40001
1.40001
1.84234
1.84311
1.84206
1.84132
1.40001
1.40001
1.40001
1.71078
1.40001
1.84296
1.40001
1.40001
1.84
1.84088
1.40001
1.84342
1.02847
1.84255
1.8395
1.15137
1.40001
1.02442
1.78474
1.84123
1.84031
1.83792
1.00101
1.84074
1.84319
1.0018
1.02051
1.40001
1.84005
1.84057
1.40001
1.40001
1.83792
1.40001
1.83957
1.40001
1.7661
1.40001
1.59432
1.84155
1.84439
1.70633
1.81338
1.83788
1.84607
1.80877
1.40001
0.924983
1.84136
1.84195
1.8516
1.40002
1.40001
1.40001
1.84148
1.40001
1.84231
1.84036
1.13942
1.40001
1.84658
1.39994
1.40001
1.40003
1.40005
1.84112
1.83988
1.39856
1.40001
1.40001
1.84142
1.84404
1.84177
1.8438
1.84302
1.03745
1.77126
1.40001
1.83169
1.84204
1.84222
1.83817
1.40001
1.84339
1.82356
1.84386
1.40001
1.84113
1.84475
1.24338
1.84149
1.8421
1.40001
1.84024
1.22315
1.84222
1.24986
1.84228
1.40001
1.84069
1.84798
1.83684
1.84251
1.84137
1.84233
1.84373
1.8416
1.40001
1.32679
1.84167
1.8429
1.23797
1.83813
1.37832
1.68246
1.84208
1.84337
1.84666
1.40001
1.84431
1.69704
1.84158
1.31071
1.84345
1.84779
1.40001
1.26512
1.40001
1.84169
1.40001
1.69493
1.40001
1.81505
1.26942
1.40001
1.84738
1.83997
1.40001
1.84008
1.84594
1.8466
1.85208
1.84576
1.40001
1.83728
1.40001
1.40001
1.40001
1.29204
1.8413
1.84098
1.84663
1.83845
1.84317
1.84433
1.8431
1.83972
1.29663
1.42973
1.40001
1.40001
1.84708
1.84468
1.84188
1.842
1.40003
1.62735
1.40001
1.84668
1.785
1.40001
1.40001
1.14188
1.84248
1.40001
1.40001
1.03772
1.84209
1.40001
1.8392
1.84591
1.83722
1.82639
1.84128
1.40001
1.0256
1.50644
1.84227
1.84204
1.40001
1.8424
1.84195
1.62546
1.41048
1.5027
1.40001
1.83741
1.84172
1.40001
1.40001
0.991717
1.40001
1.40001
1.83649
1.84651
1.83988
1.84228
1.84346
1.84396
1.84166
1.84454
1.84288
1.40001
1.39634
1.84239
1.84122
1.39714
1.84393
1.84019
1.01308
1.07885
1.84413
1.84449
1.40001
1.40001
1.40171
1.84386
1.83848
1.84192
1.40001
1.84459
1.40001
1.29107
1.85246
1.84871
1.40001
1.60545
1.84038
1.40001
1.84168
1.40001
1.83714
1.69916
1.84248
1.40001
1.8427
1.83444
0.993536
1.83799
1.40001
1.84279
1.83913
1.40001
1.01941
1.84851
1.76739
1.39761
1.8193
1.84361
1.40001
1.38617
1.84754
1.39803
1.83759
1.40001
1.40001
1.84364
1.40001
1.84512
1.83928
1.39654
1.75011
1.40001
1.83994
1.40001
1.40001
1.40001
1.40001
1.84195
1.40001
1.40001
1.82392
1.40001
1.83993
1.40001
1.6908
1.85226
1.84096
1.40001
1.40001
1.39656
1.40001
1.84177
1.83789
1.84297
1.83911
1.84316
1.84022
1.84001
1.40001
1.83667
1.84343
1.40001
1.83995
1.84347
1.40001
1.84086
1.31889
1.45622
1.84253
1.8459
1.84262
1.40001
1.84228
1.40001
1.84101
1.83993
1.40001
1.84344
1.40001
1.40001
1.40001
1.40001
1.83689
1.03486
1.39793
1.40001
1.8426
1.84809
1.40001
1.84183
1.40001
1.40518
1.03986
1.84019
1.39958
1.40001
1.83919
1.39833
1.84143
1.40001
1.39979
1.40001
1.83886
1.8464
1.84026
1.84335
1.02196
1.84242
1.83841
1.84165
1.50806
1.40001
1.40001
1.60552
1.84179
1.02671
1.0147
1.40001
1.84243
1.84175
1.84515
1.40001
1.40001
1.83918
1.8417
1.39988
1.40001
1.70878
1.0329
1.40001
1.47748
1.83912
1.84853
1.39827
1.8413
1.85087
1.40001
1.39913
1.40001
1.83817
1.83869
1.58745
1.40001
1.80862
1.40001
1.40264
1.84274
1.02131
1.84134
1.84144
1.39708
1.39992
1.79104
1.40001
1.3997
1.40001
1.84456
1.40001
1.40002
1.02698
1.83985
1.40001
1.40001
1.40001
1.40001
1.84485
1.64049
1.40001
1.40001
1.04684
1.84243
1.63121
1.40001
1.40001
1.40001
1.82108
1.83968
1.84011
1.40001
1.40001
1.84166
1.40001
1.84241
1.84235
1.40001
1.40001
1.84303
1.84081
1.82149
1.40001
1.40001
1.84133
1.84111
1.40001
1.40001
1.40001
1.84239
1.40001
1.40001
1.40001
1.83976
1.84081
1.84369
1.40001
1.84517
1.40004
1.09193
1.84075
1.84015
1.40001
1.84326
1.81396
1.83713
1.40001
1.40001
1.84703
1.40001
1.63104
1.83973
1.40001
0.999024
1.40001
1.84438
1.40001
1.40001
1.84834
1.40001
1.40001
1.40001
1.53778
1.84044
1.07658
1.40002
1.84261
1.40001
1.40001
1.842
1.40001
1.84844
1.40001
1.40001
1.83984
1.84102
1.40001
1.40006
1.40001
1.40001
1.40001
1.40001
1.40001
1.40001
1.85558
1.84442
1.40001
1.83892
1.04095
1.85829
1.40001
1.84344
1.84433
1.83985
1.83858
1.83899
1.40001
1.40001
1.84185
1.40001
1.67245
1.84803
1.84118
1.40001
1.84185
1.83782
1.40001
1.79662
1.40001
1.84342
1.67221
1.83327
1.39755
1.82905
1.79818
1.84188
1.84252
1.43517
1.84171
1.84452
1.40001
1.84182
1.40001
1.84174
1.40001
1.40001
1.40001
1.40001
1.39681
1.84173
1.84157
1.77554
1.40001
1.84564
1.40001
1.40001
1.40001
1.00555
1.40001
1.83054
1.40001
1.79913
1.82228
1.40001
1.40001
1.40001
1.80698
1.83975
1.40001
1.40001
1.84018
1.02817
1.48742
1.40001
1.84944
1.84251
1.80036
1.82839
1.84238
1.40001
1.84344
1.40001
1.40001
1.40001
1.40001
1.84237
1.84288
1.40001
1.82877
1.46489
1.84176
1.81198
1.40001
1.40001
1.81225
1.40001
1.40001
1.00849
1.71301
1.40001
1.40001
1.84428
1.40001
1.84492
1.80275
1.40001
1.8022
1.02708
1.84143
1.84272
1.84278
1.40001
1.01302
1.40001
1.40001
1.40001
1.8419
1.7539
1.40001
1.84684
1.84021
1.40001
1.8464
1.40001
1.40001
1.40001
1.40001
1.84064
1.39936
1.40001
1.84482
1.40001
1.40001
1.83768
1.84194
1.40001
1.84047
1.48404
1.40003
1.40001
1.83958
1.40001
1.83621
1.40001
1.41389
1.8422
1.40001
1.84557
1.40001
1.40001
1.54302
1.84281
1.40001
1.40001
1.40001
1.40001
1.40001
1.39639
1.03938
1.0395
1.42015
1.40001
1.41897
1.40001
1.42657
1.40001
1.84185
1.40001
1.66577
1.40001
1.83672
1.40001
1.40001
1.40001
1.84133
1.40001
1.77476
1.84165
1.40001
1.63548
1.84189
1.40001
1.40001
1.83861
1.8488
1.40001
1.40001
1.44422
1.0206
1.40001
1.84223
1.40001
1.40001
1.40001
1.40001
1.47849
1.84249
1.40001
1.40001
1.40001
1.04163
1.40001
1.83654
1.84218
1.84429
1.40001
1.40001
1.40001
1.40001
1.62543
1.84039
1.40001
1.40001
1.40001
1.84201
1.84168
1.45372
1.40001
1.40001
1.40001
1.83997
1.8413
1.40001
1.00011
1.84218
1.84321
1.84408
1.84523
1.83989
1.40001
1.40001
1.8495
1.84583
1.84178
1.04331
1.43918
1.84072
1.40001
1.40001
1.40001
1.40001
1.40001
1.84022
1.01658
1.40001
1.40001
1.84186
1.59094
1.40001
1.84891
1.40001
1.40001
1.40001
1.02956
1.40001
1.40001
1.51366
1.84225
1.84034
1.40001
1.84587
1.83783
1.40001
1.47733
1.40001
1.83973
1.40001
1.8423
1.0242
1.40001
1.40001
1.40001
1.40001
1.84598
1.40007
1.40001
1.40001
1.40001
1.83917
1.40001
1.40001
1.40001
1.40001
1.84159
1.03117
1.74737
1.84478
1.40001
1.84243
1.40001
1.40001
1.40001
1.39722
1.40001
1.8432
1.40001
1.19079
1.40001
1.40001
1.40004
1.8419
1.03838
1.40001
1.83647
1.40001
1.84094
1.84127
1.05803
1.40001
1.40001
1.80487
1.40001
1.40001
1.00039
1.40001
1.84138
1.40001
1.82219
1.39935
1.84103
1.40001
1.40001
1.40001
1.40001
1.83791
1.40001
1.40001
1.84165
1.40001
1.40001
1.40001
1.40001
1.40001
1.40001
1.40001
1.40001
1.69047
1.40001
1.54566
1.84183
1.40001
1.40001
1.40001
1.03593
1.40001
1.40001
1.40001
1.40001
1.84406
1.84244
1.46095
1.40001
1.40001
1.84355
1.40001
1.40001
1.84272
1.40001
1.40002
1.40001
1.40001
1.40001
1.40002
1.84342
1.15638
1.84171
1.84478
1.39714
1.40001
1.40001
1.40001
1.68174
1.40001
1.40001
1.8415
1.84399
1.40001
1.40001
1.40001
1.40001
1.06054
1.40001
1.40001
1.40001
1.68159
1.40001
1.84713
1.84444
1.40001
1.84762
1.40001
1.40001
1.40001
1.62052
1.40001
1.83887
1.40001
1.84133
1.40001
1.40001
1.39608
1.84201
1.40001
1.40001
1.40001
1.40001
1.40001
1.84337
1.40003
1.40001
1.00491
1.84702
0.991239
1.40001
1.84335
1.40001
1.39591
1.40001
1.84298
1.84653
1.40001
1.83524
1.27533
1.84225
1.83975
1.40004
1.40001
1.40001
1.04
1.40001
1.40001
1.40001
1.84163
1.65224
1.8463
1.40001
1.40001
1.40001
1.40001
1.39681
1.84381
1.40001
1.0303
1.40001
1.40001
1.40001
1.40001
1.40001
1.40001
1.40001
1.84533
1.84559
1.84477
1.40001
1.40001
1.39689
1.40001
1.37697
1.40001
1.40001
1.40001
1.0372
1.37948
1.40001
1.03093
1.0319
1.40001
1.84321
1.84208
1.40001
1.84877
1.84223
1.04074
1.70014
1.40001
1.40001
1.40001
1.02601
1.84035
1.40001
1.02762
1.40001
1.84837
1.45788
1.40001
1.40001
1.40001
1.40001
1.84113
1.8417
1.40001
1.40001
1.8418
1.40001
1.40001
1.83632
1.84249
1.40001
1.79873
1.84004
1.84067
1.35474
1.84453
1.40913
1.03722
1.73918
1.84182
1.40001
1.40001
1.40001
1.06231
1.40001
1.03852
1.84256
1.34739
1.84203
1.35111
1.40001
1.84063
1.57673
1.40001
1.40001
1.84336
1.40001
1.55753
1.83919
1.40001
1.40001
1.83987
1.84496
1.04901
1.67125
1.3999
1.40001
1.66547
1.40001
1.83765
1.35172
1.84616
1.84529
1.40001
1.40001
1.40001
1.40001
1.82798
1.40001
1.40001
1.84523
1.39965
1.84343
1.7556
1.84316
1.02673
1.40001
1.40001
1.40001
1.40001
1.84272
1.40005
1.84835
1.40001
1.84239
1.84021
1.45749
1.8399
1.5417
1.84158
1.40001
1.70509
1.04401
1.84062
1.84273
1.76233
1.48494
1.84213
1.84209
1.84513
1.84344
1.40001
1.30407
1.46548
1.40001
1.84187
1.60944
1.84303
1.40004
1.40001
1.40001
1.10518
1.84703
1.84262
1.76019
1.40001
1.56919
1.40001
1.83779
1.83564
1.40001
1.83552
1.84259
1.40001
1.40001
1.40001
1.83721
1.40001
1.57947
1.84537
1.70881
1.40001
1.84111
1.40001
1.40001
1.40001
1.40001
1.40001
1.40001
1.40001
1.40001
1.40001
1.40001
1.08779
1.40001
1.80717
1.03495
1.68373
1.39858
1.84248
1.40001
1.6354
1.40002
1.69428
1.77455
1.40001
1.401
1.84805
1.29905
1.40001
1.84009
1.8392
1.34617
1.40001
1.84315
1.84317
1.8437
1.40001
1.84168
1.84342
1.84694
1.40001
1.59509
1.40001
1.40007
1.8425
1.40001
1.8418
1.46846
1.84058
1.40001
1.40001
1.83763
1.8414
1.08355
1.40001
1.83971
1.73218
1.84087
1.40001
1.40001
1.84212
1.84188
1.39823
1.40001
1.79338
1.39677
1.84343
1.40007
1.40001
1.40001
1.40001
1.40001
1.59446
1.40001
1.73937
1.84409
1.74056
1.83621
1.40001
1.40333
1.40001
1.40001
1.83844
1.40001
1.83937
1.40001
1.40001
1.40001
1.40001
1.4
1.40001
1.45679
1.62752
1.40001
1.40001
1.01069
1.40001
1.83882
1.06349
1.84858
1.40001
1.62117
1.39976
1.84187
1.66312
1.05809
1.63089
1.40004
1.84252
1.84665
1.40001
1.66618
1.84412
1.83703
1.39838
1.84472
1.8295
1.02903
1.40001
1.40001
1.39758
1.40001
1.83729
1.40001
1.06335
1.83627
1.40001
1.40001
1.80496
1.40001
1.84337
1.40001
1.84017
1.40001
1.04947
1.40001
1.40001
1.84436
1.84893
1.84021
1.40001
1.84114
1.84161
1.83452
1.40001
1.40001
1.82184
1.4
1.13147
1.40001
1.40001
1.40001
1.84209
1.40001
1.84173
1.68588
1.83996
1.40001
1.84188
1.39939
1.40001
1.40001
1.40001
1.40001
1.40001
1.40001
1.08835
1.40001
1.40001
1.8416
1.40001
1.84243
1.84782
1.40001
1.0538
1.03047
1.40001
1.84553
1.47725
1.02539
1.01113
1.40001
1.83675
1.40001
1.84531
1.02569
1.4013
1.40001
1.40001
1.39952
1.40001
1.40001
1.40001
1.39992
1.57822
1.84108
1.40001
1.40001
1.84344
1.65976
1.40001
1.80407
1.84257
1.84189
1.60755
1.84502
1.40001
1.84089
1.40001
1.82524
1.40001
1.8463
1.83574
1.39674
1.84328
1.84435
1.40001
1.40001
1.40001
1.40001
1.40001
1.30249
1.84198
1.40005
1.40003
1.05446
1.4
1.00393
0.973713
1.40001
1.84106
1.84137
1.84333
1.40001
1.84173
1.40001
1.02812
1.40001
1.40001
1.83645
1.22792
1.8381
1.40001
1.84384
1.40001
1.37935
1.84024
1.40001
1.40001
1.40001
1.8476
1.40001
1.84288
1.04759
1.40001
1.40001
1.65315
1.40001
1.40001
1.65505
1.40001
1.40001
1.84095
1.40001
1.40001
1.40001
1.40001
1.40001
1.83535
1.84929
1.40001
1.8417
1.84188
1.04231
1.58938
1.84132
1.40001
1.40001
1.79597
1.39906
1.40001
1.40001
1.84152
1.844
1.68967
1.40001
1.84079
1.05967
1.82515
1.39943
1.40001
1.8353
1.40004
1.84023
1.77996
1.73185
1.40001
1.40001
1.84441
1.12595
1.04016
1.40001
1.84121
1.40001
1.84337
1.40001
1.64129
1.40001
1.40001
1.84117
1.68025
1.03279
1.40001
1.39825
1.40001
1.40001
1.42675
1.57973
1.84119
1.40001
1.84542
1.40001
1.40001
1.40001
1.40001
1.40001
1.40001
1.46617
1.01759
1.40001
1.40001
1.41315
1.40001
1.40001
1.40001
1.40001
1.40001
1.84156
1.40001
1.40001
1.84169
1.84367
1.71004
1.40001
1.40001
1.40001
1.22805
1.84778
1.70484
1.40001
1.40001
1.40001
1.40001
1.8425
1.40001
1.40001
1.40001
1.84603
1.40001
1.40001
1.72216
1.85333
1.4312
1.14051
1.84165
1.71239
1.83912
1.40001
1.60353
1.40001
1.40001
1.40001
1.07269
1.40327
1.09462
1.40001
1.0754
1.02167
1.40001
1.05733
1.40001
1.40001
1.40001
1.57559
1.40001
1.84105
1.84015
1.40189
1.61977
1.78403
1.03332
1.14026
1.27959
1.40001
1.84236
1.83926
1.84237
1.83946
1.80143
1.26134
1.40001
1.79361
1.40001
1.82872
1.40001
1.40001
1.39651
1.41084
1.40001
1.40001
1.40001
1.8423
1.40001
1.00568
1.40001
1.8437
0.990413
1.40001
1.40001
1.8413
1.40001
1.84178
1.3998
1.40001
1.40001
1.84262
1.79932
1.40001
1.85257
1.40001
1.40001
1.4148
1.40001
1.59394
1.40001
1.40001
1.0481
1.40001
1.40001
1.84227
1.4
1.8415
1.40001
1.40004
1.01054
1.40001
1.40001
0.998366
1.40083
1.40001
1.83927
0.994072
1.84509
1.05489
1.84056
1.40001
1.40001
1.40001
1.40001
1.40001
1.40001
1.40001
1.40001
1.40001
1.40001
1.40001
1.81738
1.40001
1.84383
1.83798
1.01417
1.40001
1.40001
1.40001
1.40001
1.40001
1.40001
1.82918
1.40001
1.40001
1.02969
1.40001
1.40001
1.8388
1.40001
1.40001
1.56369
1.78524
1.03401
1.02378
1.06053
1.10816
1.40001
1.39644
1.06923
1.4002
1.79847
1.397
1.40001
1.40001
1.84196
1.40001
1.40001
1.40001
1.13779
1.40002
1.56193
1.40001
1.40001
1.57091
1.84177
1.40001
1.08917
1.40001
1.40001
1.40001
1.3969
1.40001
1.84347
1.84202
1.40001
1.05159
1.40001
1.6455
1.02752
1.40001
1.26296
1.40001
1.39661
1.02278
1.40001
1.40001
1.40001
1.39622
1.0639
1.40001
1.08029
1.39837
1.60585
1.81273
1.04719
1.03331
1.40001
1.39044
1.40001
1.39866
1.40001
1.84217
1.84204
1.40001
1.39086
1.84267
1.84061
1.40001
1.40001
1.84537
1.40001
1.40001
1.40005
1.40001
1.84007
1.40001
1.40001
1.41816
1.40001
1.39859
1.08265
1.40001
1.40001
1.40001
1.40001
1.40001
1.85411
1.42722
1.40006
1.40001
1.40001
1.40001
1.40001
1.40001
1.40004
1.40001
1.0249
1.46919
1.39859
1.82226
1.83651
1.40001
1.41529
1.84302
1.80206
1.40001
1.40001
0.95643
1.84165
1.40001
1.83862
1.40001
1.84028
1.70731
1.02079
1.40001
1.02714
1.80146
1.39969
1.40001
1.02358
0.964115
1.40001
1.40001
1.77188
1.40001
1.4
1.03295
1.40001
1.40001
1.40001
1.54393
1.40001
1.01448
1.84086
1.40001
1.40001
1.40001
1.40001
1.84299
1.40001
1.40001
1.84576
1.80822
1.40001
1.40001
1.40001
1.84119
1.0435
1.40001
1.84225
1.84427
1.40001
1.76517
1.4
1.40003
1.40001
1.40001
1.81283
1.40481
1.40001
1.00217
1.63944
1.40001
1.40001
1.39743
1.40001
1.40001
1.84281
1.40001
1.40001
1.40004
1.40001
1.84198
1.40001
1.40001
1.40001
1.40001
1.40001
1.40001
1.40002
1.58139
1.40001
1.84026
1.40001
1.40001
1.85081
1.40001
1.40001
1.40001
1.84173
1.8458
1.44837
1.40001
1.39755
1.40001
1.40001
1.40001
1.40001
1.83853
1.40001
1.40001
1.84077
1.02832
1.40001
1.40001
1.40001
1.40001
1.40001
1.40001
1.77423
1.40001
1.40001
1.84566
1.84119
1.40001
1.40001
1.40001
1.84177
1.84411
1.40001
1.39965
1.85498
1.40001
1.40001
1.40001
1.40002
1.01237
1.42878
1.39623
1.39614
1.40001
1.40001
1.01774
1.84018
1.40001
0.918007
1.40001
1.8367
1.83982
1.03224
1.39941
1.8455
1.84155
1.84003
1.40001
1.40001
1.33124
1.81141
1.75949
0.955304
1.40001
1.40001
1.40001
1.84235
1.84155
1.05669
1.39737
1.40001
1.84222
1.00393
1.40001
1.83616
1.03898
1.36613
1.40674
1.40001
1.84782
1.40001
1.40001
1.40001
1.40001
1.40001
1.40001
1.40011
1.81269
1.40001
1.40001
1.8549
1.40001
1.40001
1.40001
1.84705
1.40001
1.02465
1.40001
1.40001
1.40001
1.55898
1.40001
1.40001
1.40001
1.40001
1.40001
1.17253
1.40001
1.00185
1.40001
1.83943
1.40008
1.24446
1.2541
1.40002
1.40421
1.6257
1.40001
1.40001
1.03677
1.84078
1.84659
1.84667
1.40001
1.03297
1.03676
1.40001
1.84853
1.40001
1.40001
1.40001
1.40001
1.40001
1.40004
1.40001
1.03556
1.68704
1.40001
1.40001
1.03522
1.38987
1.40001
1.40001
1.40001
1.40001
1.02133
1.40001
1.03979
1.40001
1.40001
1.83702
1.40001
1.40001
1.018
1.40001
1.84083
1.40001
1.03224
1.40001
1.03927
1.40001
1.40786
1.84138
1.85237
1.40001
1.40001
1.84082
1.40001
1.40001
1.47295
1.39684
1.40001
1.39812
1.40001
1.84675
1.40001
1.06693
1.40002
1.8363
1.39871
1.40001
1.40001
1.17827
1.40001
1.399
1.04727
1.83534
1.53411
1.40001
1.40001
1.2601
1.40001
1.40001
1.40001
1.16297
1.40001
1.40001
1.40001
1.84051
1.40001
1.01745
1.4
1.40001
1.40001
1.40001
1.01744
1.84002
1.81597
1.0498
1.40001
1.83494
1.40001
1.40001
1.84213
1.84196
1.79263
1.03424
1.39769
1.39928
1.40001
1.84049
1.40001
1.40001
1.40001
1.40001
1.84042
1.40004
1.40001
1.40001
1.84163
1.40001
1.40001
1.84055
1.02201
1.40001
1.40001
1.40001
1.02855
1.40001
1.4
1.4
1.39867
1.40001
1.40001
1.40001
1.40001
1.74251
1.40001
1.83936
1.84098
1.84791
1.84291
1.84293
1.84729
1.40001
1.83912
1.40001
1.84343
1.84206
1.40001
1.39891
1.03907
1.77784
1.39991
1.40001
1.40001
1.40001
1.40001
1.40612
1.40001
1.47134
1.40001
1.40001
1.40001
1.23088
1.84079
1.84083
1.84219
1.78659
1.39988
1.40001
1.42341
1.84321
1.39792
1.42686
1.3971
1.05226
1.40001
1.40002
1.40001
1.40001
1.40001
1.40001
1.40001
1.84493
1.02135
1.84608
1.83945
1.39497
0.877799
1.40001
1.40001
1.40001
1.84231
0.915462
1.80241
1.01505
1.8425
1.83707
1.03871
1.84274
1.42485
1.40001
1.84503
1.17984
1.40001
1.3987
1.05563
1.40001
1.01074
1.40001
1.84022
1.84105
1.15705
1.40001
1.83974
1.04825
1.40001
1.03468
1.40001
1.84015
1.40001
1.40001
1.83836
1.40001
1.23421
1.40001
1.39972
1.01265
1.84461
1.39948
1.40001
0.956014
1.40001
1.40001
1.40001
1.40001
1.64094
1.40001
1.84007
1.40001
1.40001
1.85522
1.40001
1.40001
1.84243
1.40001
1.00183
1.40001
1.03548
1.40002
1.40001
1.40001
1.40001
1.40001
1.83279
1.65575
1.84225
1.40001
1.84169
1.83009
1.02183
1.08154
1.40001
1.40001
1.84563
1.40001
1.00461
1.40001
1.38348
1.40001
1.40001
1.84241
1.40001
1.83912
1.06086
1.85166
1.40001
1.08779
1.40001
1.40001
1.84569
1.84069
1.40001
1.40005
1.40001
1.84795
1.40001
1.40001
1.0736
1.3994
1.03057
1.40001
1.40001
1.40001
1.8437
1.84747
1.83867
1.40001
1.40001
0.951163
1.40001
1.8399
1.40001
1.40001
1.40001
1.81634
1.84243
1.84174
0.89162
1.84732
1.84197
1.05338
1.84014
1.40005
1.06514
1.41075
1.40001
1.40001
1.84025
0.848953
1.68021
0.863982
1.84191
1.39749
1.0472
1.84427
1.40001
1.40001
1.40001
1.40001
1.84132
1.84113
1.03816
1.40001
1.40003
1.03326
1.40004
1.40001
1.02225
1.04541
1.70933
1.83955
1.39849
1.84123
1.40001
1.83632
1.21236
1.03786
1.84003
1.84626
1.40001
1.84462
1.40001
1.40001
1.8434
1.40001
1.73441
1.83863
1.40001
1.40001
1.40001
1.40001
1.84079
1.83724
1.84392
1.40001
1.40001
1.84145
1.84061
1.83952
1.40001
1.84112
1.40001
1.40001
1.40001
1.40001
1.40001
1.02751
1.24871
1.11227
1.40001
1.40001
1.84346
1.40001
1.40001
1.84469
1.02751
1.40001
1.84401
1.83746
1.82375
1.02226
1.40001
0.958352
1.40001
1.40003
1.84041
1.62271
1.83982
1.78403
1.40001
1.0768
1.40001
1.8437
1.71283
1.05071
1.40001
1.40001
1.40001
1.23074
1.40001
1.40001
1.84663
1.40001
1.03655
1.8431
1.40001
1.40001
1.40001
1.40001
1.40001
1.74933
1.50227
1.40001
1.84113
1.40001
1.84159
1.40001
1.39737
1.40001
1.84017
1.83852
1.84236
1.84641
1.39961
1.8394
1.40001
1.84085
1.84053
1.77302
1.40001
1.40001
1.03352
1.84006
1.40001
1.40001
1.84186
1.83643
1.84077
1.40001
1.84044
1.40001
1.40001
1.40004
1.83821
1.84219
1.53102
1.49331
1.84056
1.84047
1.05185
1.40001
1.40001
1.40001
1.40001
1.40003
1.56586
1.40001
1.40001
1.76063
1.0269
1.39998
1.40001
1.8403
1.39991
1.39983
1.46831
1.79963
1.84139
1.28373
1.40001
1.02502
1.40001
1.42285
1.84088
1.84357
1.84077
1.39901
1.40001
1.40001
1.04872
1.40001
1.40001
1.84123
1.44958
1.40001
1.40001
1.40001
1.40001
1.40001
1.40001
1.40001
1.39994
1.84253
1.40002
1.40001
1.40001
1.40001
1.40001
1.67595
1.40001
1.61575
1.40001
1.40001
1.84209
1.83973
1.04322
1.39876
1.40001
1.4
1.40001
1.03655
1.83841
1.84221
1.40001
1.40001
1.40001
1.40001
1.40001
1.40001
1.40001
1.40001
1.83964
1.84238
1.03923
1.44721
1.03354
1.40001
1.04017
1.40001
1.8427
1.50823
1.40001
1.40001
1.06687
1.40001
1.82391
1.24677
1.39688
1.04782
1.40001
1.40001
1.84125
1.40005
1.39734
1.00665
1.83906
1.84872
1.40001
1.40001
1.40001
1.40001
1.81342
1.40001
1.40001
1.84216
1.39893
1.84061
1.40008
1.40001
1.40001
1.00506
1.40001
1.40001
1.84401
1.03762
1.2097
1.01345
1.84197
1.39935
1.40001
1.84146
1.05509
1.05666
1.41484
1.40001
1.40001
1.83886
1.40004
1.59179
1.40001
1.40001
1.83894
1.03739
1.40001
1.40001
1.40013
1.84001
1.40013
1.84311
1.40001
1.40004
1.40001
1.40001
1.11897
1.40001
1.15299
1.40003
1.40001
1.84173
1.02486
1.40001
1.17855
1.19395
1.40001
1.40001
1.84209
1.40001
1.40001
1.40001
1.84176
1.8408
1.40005
1.8348
1.83887
1.19513
1.84194
1.83218
1.40001
1.40001
1.84532
1.4
1.40001
1.40001
1.40001
1.40001
1.84002
1.83751
1.40001