/*--------------------------------*- C++ -*----------------------------------*\
  =========                 |
  \\      /  F ield         | OpenFOAM: The Open Source CFD Toolbox
   \\    /   O peration     | Website:  https://openfoam.org
    \\  /    A nd           | Version:  12
     \\/     M anipulation  |
\*---------------------------------------------------------------------------*/
FoamFile
{
    format      ascii;
    class       volScalarField;
    location    "5.225";
    object      rho;
}
// * * * * * * * * * * * * * * * * * * * * * * * * * * * * * * * * * * * * * //

dimensions      [1 -3 0 0 0 0 0];

internalField   nonuniform List<scalar> 
46253
(
1.37797
1.43984
1.60187
1.43961
1.59839
1.59537
1.29539
1.331
1.43809
1.43918
1.3869
1.16128
1.43883
1.4394
1.39376
1.43807
1.43914
1.43837
1.43857
1.43923
1.43963
1.58937
1.52772
1.3902
1.14989
1.43955
1.43865
1.43998
1.43879
1.33157
1.39756
1.43314
1.43329
1.43872
1.43803
1.48284
1.43977
1.43832
1.4782
1.53475
1.3623
1.14233
1.4359
1.43475
1.10004
1.43936
1.43845
1.52046
1.42852
1.42733
1.4253
1.42512
1.57977
1.31196
1.61092
1.21157
1.42119
1.42059
1.49005
1.36327
1.49024
1.34655
1.47448
1.51616
1.39538
1.43855
1.43775
1.58517
1.21587
1.15352
1.48015
1.41786
1.41648
1.23941
1.57574
1.37189
1.40222
1.40141
1.46258
1.43138
1.43071
1.41247
1.58137
1.41214
1.39085
1.57184
1.38352
1.3826
1.30918
1.47512
1.53449
1.24072
1.57085
1.4235
1.52292
1.42343
1.56999
1.39599
1.48909
1.48335
1.52927
1.56931
1.57382
1.39321
1.60931
1.3022
1.12294
1.36195
1.36119
1.14238
1.34782
1.414
1.41382
1.3972
1.45338
1.29134
1.05538
1.44363
1.61287
1.20197
1.53738
1.59264
1.40969
1.40871
1.56681
1.61958
1.48843
1.19136
1.62827
1.39735
1.34611
1.34496
1.59207
1.1156
1.39624
1.39085
1.3918
1.39113
1.19319
1.40543
1.40403
1.33576
1.33535
1.38747
1.40432
1.62102
1.38618
1.38569
1.46215
1.47539
1.14201
1.57858
1.39475
1.39397
1.35711
1.18388
1.17076
1.53074
1.37679
1.6072
1.37607
1.11654
1.21029
1.41529
1.17325
1.3887
1.13521
1.38799
1.71676
1.48175
1.37076
1.36987
1.58653
1.38132
1.60492
1.42565
1.2635
1.56849
1.06808
1.05807
1.60567
1.35698
1.36477
1.36419
1.51118
1.38001
1.37864
1.02524
1.51076
1.51029
1.57683
1.502
1.31433
1.502
1.51713
1.51709
1.35731
1.56495
1.27818
1.27948
1.40873
1.48523
1.37395
1.37338
1.48551
1.16745
1.35316
1.35431
1.35351
1.48545
1.44928
1.61331
1.38734
1.57289
1.24072
1.5649
1.38347
1.3206
1.34897
1.58694
1.58351
1.34831
1.43736
1.36761
1.3668
1.27815
1.56519
1.56742
1.2641
1.2651
1.4486
1.54366
1.48034
1.48312
1.56629
1.5279
1.51494
1.50247
1.44553
1.46055
1.56607
1.56872
1.56475
1.51529
1.40174
1.5748
1.532
1.35012
1.56473
1.33822
1.33763
1.45789
1.24961
1.56507
1.24426
1.35853
1.35698
1.22207
1.47988
1.5657
1.24417
1.16415
1.17785
1.38891
1.29024
1.5333
1.40812
1.49766
1.35107
1.3285
1.35094
1.56779
1.50264
1.72164
1.32712
1.56587
1.61638
1.48209
1.3152
1.23164
1.22205
1.2202
1.57494
1.57313
1.49279
1.32477
1.16936
1.21335
1.37454
1.48806
1.48258
1.48059
1.28037
1.53763
1.47411
1.42282
1.56779
1.42149
1.32434
1.32082
1.60377
1.32108
1.20235
1.60198
1.51061
1.34185
1.34035
1.48337
1.388
1.51073
1.51035
1.18603
1.47136
1.31786
1.5691
1.31634
1.19124
1.47268
1.48718
1.31522
1.16367
1.56973
1.12379
1.13605
1.50973
1.37331
1.57144
1.56506
1.30542
1.305
1.42231
1.42339
1.51113
1.36483
1.57366
1.39345
1.22471
1.33285
1.33157
1.53256
1.58019
1.57711
1.46122
1.61517
1.56931
1.30514
1.30395
1.51131
1.21029
1.56767
1.35196
1.47923
1.11751
1.41784
1.12271
1.52944
1.32403
1.47835
1.32274
1.47384
1.13438
1.50905
1.56232
1.5094
1.51027
1.56292
1.56484
1.56491
1.29185
1.53988
1.52956
1.52979
1.52978
1.2912
1.56446
1.46832
1.19214
1.56721
1.53833
1.48303
1.31184
1.32578
1.16852
1.32056
1.32487
1.32111
1.57716
1.51869
1.29133
1.63879
1.51171
1.37585
1.28993
1.24501
1.5704
1.31286
1.34246
1.33945
1.56594
1.29783
1.52912
1.392
1.38946
1.46628
1.56762
1.52403
1.51649
1.48332
1.53441
1.57806
1.56883
1.51117
1.58361
1.51121
1.27895
1.52416
1.30264
1.56484
1.58429
1.21394
1.52489
1.54012
1.27857
1.48271
1.31014
1.48278
1.47948
1.2778
1.30735
1.50669
1.23318
1.48093
1.52631
1.51807
1.5184
1.25488
1.30605
1.50978
1.5164
1.31124
1.16577
1.53032
1.20083
1.50719
1.25569
1.35852
1.50218
1.5668
1.21984
1.53052
1.23344
1.30146
1.4661
1.28678
1.64864
1.52044
1.29653
1.52183
1.30635
1.26683
1.56754
1.26866
1.26965
1.30824
1.53407
1.26843
1.56889
1.51074
1.52345
1.53023
1.51125
1.23594
1.42021
1.29222
1.1914
1.26988
1.22947
1.34551
1.26774
1.1931
1.38144
1.37281
1.48167
1.56548
1.565
1.48212
1.6327
1.53149
1.23683
1.29348
1.08755
1.23797
1.26021
1.43014
1.26072
1.65851
1.53
1.29701
1.29315
1.17597
1.29379
1.26263
1.26277
1.38759
1.46848
1.56238
1.37487
1.39108
1.48272
1.53528
1.56675
1.26793
1.52645
1.32898
1.33077
1.4879
1.51124
1.25709
1.5687
1.40679
1.39366
1.50328
1.27585
1.56578
1.56608
1.27759
1.56974
1.26802
1.28177
1.26933
1.46807
1.38403
1.33131
1.53066
1.26532
1.30248
1.58686
1.48246
1.29273
1.53384
1.29446
1.21931
1.59123
1.49859
1.29442
1.48858
1.47658
1.5162
1.51715
1.14224
1.5134
1.51519
1.24853
1.23428
1.24506
1.42911
1.50255
1.50292
1.49702
1.49879
1.56533
1.52861
1.48025
1.25904
1.08747
1.50745
1.51454
1.48717
1.52398
1.5068
1.51601
1.24282
1.38
1.4258
1.37227
1.51127
1.49709
1.20171
1.53302
1.50937
1.50788
1.28305
1.50676
1.51424
1.28039
1.36823
1.40301
1.56315
1.40635
1.40664
1.41123
1.29408
1.51272
1.2509
1.25229
1.37607
1.41828
1.50629
1.5023
1.27602
1.58193
1.60487
1.12448
1.52491
1.60525
1.52544
1.53214
1.38764
1.39213
1.53006
1.56448
1.33737
1.2727
1.53678
1.58449
1.33046
1.4893
1.4908
1.48407
1.48583
1.47903
1.47931
1.47102
1.47266
0.996467
1.25985
1.46613
1.34905
1.46758
1.45943
1.54218
1.24197
1.33104
1.46016
1.56298
1.45237
1.5911
1.45361
1.41895
1.25378
1.44569
1.47454
1.44718
1.54597
1.55566
1.43928
1.51892
1.44044
1.51923
1.18579
1.47452
1.2377
1.31647
1.5087
1.50922
1.43159
1.43261
1.56306
1.26678
1.42521
1.42671
1.32781
1.56516
1.56521
1.41458
1.23376
1.41602
1.55879
1.27685
1.40707
1.1724
1.40735
1.2348
1.27503
1.5315
1.50853
1.5083
1.3988
1.40105
1.31116
1.52985
1.52951
1.3937
1.24556
1.39391
1.16553
1.56682
1.38177
1.3812
1.50975
1.51252
1.51033
1.27097
1.51308
1.30299
1.31601
1.40092
1.56531
1.36786
1.49582
1.36914
1.49538
1.57423
1.30451
1.30454
1.36553
1.36705
1.25848
1.28234
1.3532
1.28112
1.35256
1.56445
1.34233
1.33981
1.34267
1.51163
1.22476
1.34176
1.34137
1.68912
1.4793
1.47924
1.51122
1.32399
1.25913
1.3257
1.35932
1.24744
1.26434
1.16189
1.32802
1.32909
1.31026
1.30898
1.30784
1.19779
1.21645
1.50752
1.33764
1.61469
1.22999
1.47925
1.19133
1.22711
1.17763
1.34055
1.33308
1.49532
1.50886
1.49598
1.26477
1.49593
1.51024
1.49531
1.53623
1.5118
1.26318
1.53512
1.50574
1.50397
1.21612
1.22994
1.56912
1.33888
1.08448
1.34943
1.5318
1.47526
1.57768
1.52952
1.52842
1.36378
1.49709
1.25605
1.52585
1.39977
1.44546
1.40123
1.1686
1.51163
1.24701
1.30784
1.40911
1.52697
1.50661
1.56292
1.52606
1.49656
1.40195
1.40246
1.37447
1.37752
1.39208
1.53073
1.2331
1.58333
1.53173
1.40277
1.29612
1.5236
1.33433
1.52375
1.52424
1.34093
1.34327
1.56721
1.40311
1.20486
1.26399
1.52674
1.26042
1.22489
1.52623
1.52581
1.26895
1.25709
1.52629
1.22581
1.67448
1.53089
1.4109
1.42098
1.42251
1.25881
1.49914
1.66445
1.64757
1.30529
1.49238
1.51024
1.27613
1.31626
1.19617
1.54122
1.56793
1.56923
1.5251
1.38914
1.39116
1.49264
1.52855
1.47558
1.26144
1.37966
1.4244
1.52922
1.38042
1.25622
1.25998
1.25653
1.48571
1.25592
1.2992
1.18988
1.25482
1.19831
1.35602
1.51032
1.50974
1.35456
1.53332
1.5122
1.25419
1.25528
1.51121
1.20519
1.23443
1.26745
1.21271
1.22414
1.20297
1.19269
1.21565
1.18764
1.19128
1.45397
1.54834
1.3921
1.54928
1.45355
1.27108
1.23335
1.18347
1.55824
1.51076
1.30029
1.56496
1.27903
1.30305
1.52226
1.52086
1.10341
1.52247
1.53862
1.522
1.54746
1.25536
1.28218
1.43282
1.64262
1.5295
1.24393
1.48098
1.28518
1.2852
1.24756
1.5289
1.2854
1.27506
1.28186
1.57527
1.57702
1.57313
1.56662
1.27321
1.26913
1.5213
1.32605
1.52373
1.19248
1.52111
1.21768
1.37463
1.13975
1.55816
1.21011
1.20494
1.44138
1.57722
1.49417
1.18132
1.35497
1.34307
1.18377
1.50038
1.50191
1.26579
1.35059
1.55709
1.55699
1.29431
1.02613
1.30527
1.26628
1.48239
1.50961
1.56517
1.50972
1.4972
1.51596
1.64286
1.51652
1.35216
1.20601
1.1693
1.33638
1.56056
1.30947
1.32779
1.21134
1.32973
1.3551
1.60296
1.44234
1.44958
1.45602
1.43523
1.44341
1.53217
1.12097
1.45069
1.46193
1.4369
1.25763
1.45759
1.41444
1.42916
1.46364
1.4926
1.46929
1.43005
1.46974
1.50879
1.41844
1.48744
1.47537
1.47717
1.41904
1.48048
1.48183
1.40968
1.48178
1.50981
1.48765
1.41146
1.56445
1.40413
1.48831
1.37798
1.52942
1.44525
1.40526
1.50925
1.51682
1.5116
1.39522
1.41183
1.51273
1.51207
1.51752
1.396
1.44839
1.28895
1.38341
1.56885
1.28464
1.38526
1.37296
1.37621
1.2065
1.36903
1.36726
1.35572
1.58668
1.37838
1.35999
1.57276
1.3492
1.19586
1.57238
1.48166
1.35323
1.24261
1.39087
1.34091
1.33781
1.33149
1.23711
1.33745
1.44165
1.32961
1.57759
1.2946
1.23434
1.32455
1.32968
1.31797
1.25843
1.31214
1.30172
1.30194
1.35387
1.31986
1.31831
1.31369
1.3476
1.43962
1.33711
1.56414
1.43799
1.53195
1.48521
1.41211
1.46694
1.40939
1.61737
1.32121
1.51708
1.29877
1.36452
1.37475
1.38151
1.55535
1.35758
1.40488
1.40929
1.31865
1.30179
1.40152
1.4052
1.40317
1.40287
1.17775
1.19663
1.29342
1.26445
1.55879
1.28437
1.22286
1.18048
1.32421
1.53122
1.4406
1.40445
1.16057
1.54153
1.41733
1.46073
1.29913
1.41597
1.52035
1.48837
1.56801
1.25497
1.32421
1.35767
1.39799
1.32795
1.33701
1.40127
1.23498
1.29983
1.23583
1.30005
1.31532
1.11054
1.23053
1.41658
1.28519
1.40687
1.30001
1.56563
1.40667
1.46104
1.25629
1.3145
1.56449
1.5657
1.46068
1.27124
1.52587
1.57628
1.45902
1.55357
1.31593
1.19604
1.52886
1.31332
1.45767
1.27933
1.26819
1.48317
1.52872
1.38381
1.18213
1.48029
1.17086
1.28205
1.28182
1.61525
1.41169
1.29477
1.5259
1.27007
1.45563
1.32865
1.41591
1.30363
1.23546
1.46726
1.46788
1.28301
1.35806
1.2898
1.27208
1.26987
1.27046
1.46721
1.41558
1.29593
1.25937
1.25813
1.19416
1.3319
1.52454
1.27153
1.18095
1.2883
1.14212
1.2866
1.40479
2.32425
1.48998
1.49077
1.2341
1.27492
1.48439
1.25681
1.2763
1.23857
1.34053
1.18165
1.26042
1.35169
1.35626
1.43482
1.47185
1.47402
1.27179
1.44616
1.48494
1.49251
1.51676
1.27082
1.48726
1.27316
1.03057
1.5407
1.27238
1.56798
1.519
1.27791
1.53405
1.50037
1.25538
1.49282
1.50229
1.47387
1.49496
1.49538
1.25808
1.35289
1.43198
1.50687
1.42069
1.48121
1.45795
1.27651
1.51636
1.4276
1.48401
1.46933
1.53415
1.27625
1.43546
1.5355
1.54312
1.19492
1.47193
1.54222
1.44416
1.29717
1.53376
1.55026
1.29981
1.45747
1.40787
1.16262
1.46908
1.22112
1.17829
1.4878
1.45511
1.45953
1.50289
1.40716
1.51641
1.36339
1.22678
1.34292
1.40009
1.47034
1.44559
1.47175
1.51169
1.48308
1.44254
1.46734
1.49737
1.24442
1.54192
1.46833
1.25301
1.44703
1.27874
1.27149
1.46149
1.42527
1.54983
1.29501
1.46239
1.46276
1.49903
1.50803
1.51497
1.39851
1.45278
1.45898
1.4603
1.50897
1.50737
1.56825
1.3589
1.41076
1.46081
1.31211
1.50836
1.45383
1.45929
1.29863
1.2353
1.44643
1.44892
1.41217
1.28711
1.45039
1.5333
1.51085
1.19511
1.44335
1.40828
1.44468
1.46536
1.21516
1.36979
1.51249
1.43674
1.45695
1.47891
1.43809
1.50659
1.47927
1.47552
1.29366
1.46304
1.55241
1.51386
1.4294
1.43095
1.19473
1.42551
1.55183
1.42683
1.39931
1.48568
1.4193
1.55199
1.41982
1.43682
1.22979
1.44085
1.17349
1.40653
1.55573
1.42013
1.41589
1.32825
1.4009
1.40335
1.16417
1.40369
1.40162
1.32506
1.40131
1.40169
1.40643
1.42457
1.41005
1.37636
1.38357
1.40244
1.40539
1.41147
1.4021
1.40727
1.40335
1.46948
1.26536
1.40301
1.40671
1.38177
1.22152
1.31455
1.40243
1.39404
1.2165
1.39764
1.39911
1.39908
1.23222
1.54869
1.3209
1.16751
1.20714
1.28172
1.39515
1.4032
1.44513
1.52318
1.5088
1.45294
1.55947
1.46732
1.50142
1.53016
1.52961
1.1489
1.19789
1.53244
1.38253
1.3786
1.38232
1.53187
1.21228
1.36219
1.40305
1.40264
1.38078
1.38013
1.16673
1.29239
1.44251
1.12426
1.45436
1.3739
1.41937
1.37266
1.37121
1.49503
1.25191
1.49654
1.24004
1.57469
1.29398
1.2104
1.37288
1.41063
1.64909
1.41255
1.30134
1.35789
1.40124
1.29593
1.22162
1.43798
1.4938
1.36716
1.36816
1.49439
1.48885
1.48252
1.47569
1.48341
1.47691
1.51747
1.23892
1.49009
1.40027
1.3348
1.20984
1.44801
1.5537
1.20991
1.35585
1.17577
1.53284
1.56427
1.39689
1.13762
1.51085
1.33451
1.53111
1.56583
1.56517
1.47342
1.33585
1.21923
1.21281
1.34141
1.522
1.51472
1.35058
1.30877
1.26481
1.43122
1.30414
1.58323
1.52183
1.52434
1.38345
1.48466
1.34447
1.34923
1.36438
1.4692
1.32989
1.34653
1.48008
1.45343
1.3449
1.38093
1.27939
1.47598
1.47023
1.52806
1.47678
1.35026
1.33318
1.60985
1.4594
1.34253
1.48213
1.48991
1.42958
1.51651
1.56264
1.39085
1.23833
1.44072
1.20809
1.48428
1.43845
1.44182
1.51914
1.31593
1.54293
1.51953
1.32669
1.32661
1.33116
1.52054
1.50629
1.21568
1.44534
1.48703
1.21357
1.06671
1.33237
1.43613
1.43093
1.29112
1.28987
1.28365
1.27338
1.52346
1.31547
1.34526
1.40897
1.41666
1.42052
1.31062
1.2431
1.53016
1.53083
1.26928
1.26536
1.2863
1.5278
1.30476
1.37217
1.30568
1.31925
1.30932
1.4634
1.30586
1.41737
1.48834
1.41857
1.32904
1.45944
1.30209
1.34941
1.26325
1.4612
1.23946
1.39343
1.51343
1.25265
1.40755
1.19615
1.48854
1.23376
1.29317
1.30584
1.4886
1.39741
1.28356
1.26901
1.46794
1.29753
1.28416
1.43308
1.45023
1.5393
1.35192
1.50478
1.35643
1.23043
1.30279
1.13331
1.43377
1.50525
1.42625
1.37644
1.2961
1.46915
1.47688
1.36841
1.30174
1.38961
1.37234
1.5365
1.2377
1.51424
1.51791
1.39219
1.40695
1.24925
1.28837
1.51471
1.27715
1.52158
1.25957
1.47163
1.26405
1.2025
1.45672
1.12886
1.51609
1.48839
1.37525
1.30379
1.53741
1.4478
1.37324
1.418
1.62123
1.18846
1.50836
1.23793
1.48356
1.26919
1.47251
1.36765
1.28188
1.51516
1.41725
1.36848
1.55887
1.52453
1.35935
1.22479
1.25551
1.51102
1.53163
1.36351
1.43048
1.46483
1.41095
1.26809
1.4182
1.42385
1.39149
1.08854
1.26688
1.50283
1.39282
1.51607
1.48113
1.5427
1.43337
1.51416
1.38751
1.40385
1.21092
1.13119
1.11058
1.55297
1.2451
1.22235
1.25848
1.56452
1.45691
1.45664
1.24783
1.29394
1.40675
1.14645
1.19284
1.33607
1.35877
1.39839
1.50945
1.56942
1.51666
1.2042
1.45321
1.51569
1.17374
1.51115
1.21889
1.18443
1.3491
1.20161
1.51352
1.51389
1.36476
1.33406
1.08749
1.26155
1.51465
1.52116
1.2893
1.23876
1.28382
1.54287
1.48012
1.40477
1.2264
1.24609
1.47759
1.30339
1.37574
1.45266
1.16712
1.53699
1.38069
1.31528
1.18948
1.38845
1.32704
1.39945
1.57058
1.33041
1.26671
1.31982
1.26688
1.31928
1.32779
1.26071
1.52858
1.32278
1.54253
1.19393
1.50856
1.47495
1.26884
1.24995
1.27767
1.25774
1.4775
1.30498
1.50706
1.50796
1.27089
1.31807
1.37596
1.21613
1.3444
1.38038
1.56398
1.48326
1.31729
1.37009
1.42368
1.35652
1.51697
1.20673
1.54055
1.31329
1.30901
1.37907
1.51529
1.27958
1.26059
1.53833
1.56772
1.26111
1.29685
1.48348
1.47395
1.49718
1.29594
1.47486
1.30267
1.18852
1.36282
1.23382
1.34936
1.30463
1.36899
1.56376
1.36473
1.2356
1.56346
1.19318
1.40577
1.36171
1.25496
1.29799
1.56301
1.51156
1.34845
1.40758
1.33934
1.24105
1.2334
1.51435
1.20543
1.43896
1.49304
1.27032
1.95143
1.9338
1.61922
1.26205
1.09096
1.28179
1.50323
1.38841
1.42533
1.21859
1.42185
1.22342
1.45284
1.42736
1.43331
1.46445
1.45169
1.19492
1.44182
1.34861
1.21525
1.44605
1.45546
1.38204
1.23374
1.20991
1.16823
1.24972
1.16648
1.21813
1.46095
1.40801
1.44752
1.24475
1.48448
1.42774
1.43977
1.31231
1.4575
1.34553
1.45206
1.48311
1.56694
1.46098
1.46883
1.56875
1.4351
1.42354
1.46619
1.4282
1.41374
1.48368
1.21858
1.48717
1.47824
1.32207
1.21463
1.3961
1.47355
1.46925
1.3807
1.17968
1.22983
1.37907
1.41557
1.40868
1.32108
1.5256
1.34131
1.54163
1.47492
1.5442
1.48294
1.3023
1.27528
1.40124
1.39389
1.30081
1.23722
1.26325
1.37786
1.2507
1.30813
1.38206
1.6297
1.39635
1.25485
1.40335
1.25772
1.48886
1.49308
1.33143
1.39117
1.54392
1.49501
1.2857
1.16255
1.25539
1.31014
1.15911
1.38403
1.48951
1.22139
1.54422
1.33638
1.51382
1.2841
1.29699
1.19504
1.25674
1.25584
1.38264
1.2694
1.38602
1.23982
1.54394
1.3036
1.27631
1.19601
1.37535
1.47348
1.33621
1.52021
1.48309
1.53049
1.37448
1.32753
1.3551
1.517
1.30144
1.18521
1.47783
1.48365
1.31853
1.35373
1.49786
1.3753
1.28468
1.18875
1.37438
1.65597
1.30233
1.34813
1.36858
1.34314
1.42792
1.44938
1.2686
1.28654
1.36702
1.34426
1.45069
1.22802
1.35366
1.28007
1.30299
1.35613
1.27966
1.37812
1.39293
1.22979
1.4441
1.44281
1.67881
1.53997
1.44473
1.51447
1.65165
1.43125
1.67442
1.54444
1.43846
1.34008
1.4435
1.30302
1.55849
1.44074
1.33425
1.38422
1.40865
1.49812
1.3925
1.58163
1.65741
1.3002
1.53398
1.34228
1.58437
1.61273
1.20632
1.46699
1.20513
1.35085
1.29727
1.43497
1.3548
1.31478
1.37764
1.48725
1.34164
1.34468
1.43531
1.30643
1.20706
1.31136
1.41596
1.35711
1.41831
1.32707
1.27786
1.31805
1.42796
1.33349
1.32298
1.26471
1.59291
1.2533
1.49599
1.54403
1.42971
1.30684
1.19473
1.33317
1.06856
1.32079
1.42496
1.42423
1.49476
1.51705
1.41616
1.30131
1.23777
1.42575
1.36729
1.49224
1.38173
1.07481
1.24983
1.31405
1.50449
1.36487
1.26467
1.55544
1.31679
1.30223
1.29685
1.4179
1.42096
1.43337
1.35129
1.41854
1.29512
1.41646
1.48597
1.56628
1.30255
1.54227
1.5439
1.31006
1.17651
1.38027
1.28925
1.4355
1.4877
1.48532
1.48182
1.33522
1.48625
1.2356
1.5593
1.24734
1.2961
1.61051
1.16732
1.28782
1.17435
1.4142
1.17345
1.24824
1.40862
1.19037
1.28292
1.41285
1.39444
1.48821
1.65732
1.26628
1.50972
1.52256
1.36131
1.50164
1.37443
1.53361
1.39128
1.26535
1.28909
1.36955
1.35636
1.41185
1.1274
1.48085
1.43757
1.18933
1.57446
1.25571
1.41113
1.43492
1.39128
1.22739
1.49711
1.38011
1.28222
1.32086
1.33959
1.39811
1.39451
1.24263
1.40929
1.50349
1.35535
1.39659
1.26834
1.41947
1.26745
1.24208
1.30852
1.53152
1.41144
1.30294
1.42438
1.26938
1.33622
1.31761
1.33107
1.3949
1.18634
1.36532
1.34984
1.08979
1.54056
1.40175
1.37757
1.26455
1.3882
1.28049
1.40331
1.54722
1.25173
1.2242
1.46806
1.53867
1.45951
1.46728
1.40177
1.44513
1.24359
1.43659
1.26475
1.56423
1.27243
1.42196
1.39534
1.17496
1.20916
1.36292
1.36361
1.38372
1.24858
1.49079
1.459
1.29532
1.4231
1.40096
1.47631
1.34808
1.40508
1.25744
1.39652
1.25103
1.38844
1.51226
1.34698
1.48988
1.33345
1.41058
1.41675
1.24948
1.45668
1.20311
1.2285
1.51374
1.40084
1.29179
1.41212
1.40133
1.41347
1.19871
1.24743
1.41023
1.45925
1.60861
1.4272
1.41964
1.52322
1.34631
1.38814
1.42519
1.35983
1.52204
1.49611
1.35651
1.19371
1.23751
1.15377
1.42576
1.45523
1.39065
1.58202
1.43806
1.20102
1.1736
1.43263
1.43544
1.29478
1.15425
1.39232
1.42928
1.24548
1.31381
1.47511
1.25793
1.46738
1.30415
1.50024
1.47402
1.54746
1.30313
1.35448
1.25898
1.22944
1.44841
1.44255
1.51661
1.24736
1.27701
1.61687
1.27888
1.18974
1.24586
1.13423
1.44047
1.48263
1.38095
1.25209
1.42855
1.41564
1.35093
1.48469
1.3832
1.4397
1.43981
1.33442
1.40498
1.19238
1.13412
1.3355
1.13529
1.36851
1.48067
1.28107
1.48241
1.24412
1.36766
1.52443
1.52405
1.24246
1.43471
1.56616
1.27234
1.40772
1.51559
1.26368
1.49157
1.16367
1.38543
1.37253
1.1925
1.35624
1.0993
1.21855
1.35773
1.21878
1.30014
1.30258
1.48177
1.30683
1.56833
1.35282
1.6182
1.43659
1.31549
1.45215
1.44252
1.35451
1.44306
1.48108
1.38506
1.11566
1.34484
1.41632
1.44515
1.30844
1.30766
1.34618
1.32784
1.16817
1.41719
1.41608
1.52531
1.18915
1.51679
1.45802
1.06804
1.49638
1.33933
1.14841
1.42349
1.42408
1.32284
1.34061
1.19983
1.26334
1.5217
1.24408
1.24156
1.41508
1.45391
1.5203
1.33161
1.50157
1.3864
1.4507
1.52595
1.41358
1.33359
1.30437
1.2188
1.45756
1.52569
1.47893
1.45574
1.32713
1.46336
1.63661
1.45973
1.32771
1.53534
1.24502
1.35333
1.08263
1.31534
1.38039
1.33008
1.38969
1.46744
1.31794
1.448
1.38208
1.53683
1.49976
1.53896
1.22615
1.3182
1.52358
1.19607
1.31672
1.46674
1.37181
1.30493
1.3217
1.25211
1.31867
1.53319
1.19033
1.3239
1.41242
1.23735
1.28904
1.476
1.19054
1.31597
1.39452
1.35222
1.39561
1.3915
1.46953
1.23763
1.47952
1.47569
1.51874
1.24838
1.36098
1.29783
1.51238
1.47712
1.22672
1.49498
1.47275
1.22245
1.30004
1.33298
1.51434
1.32703
1.30768
1.22438
1.39126
1.25826
1.21077
1.3064
1.41106
1.27797
1.4711
1.53889
1.2647
1.26526
1.25488
1.39278
1.30788
1.5393
1.41384
1.39679
1.30403
1.4829
1.20668
1.3731
1.48531
1.30243
1.46676
1.33536
1.25958
1.44491
1.64146
1.33761
1.51416
1.28437
1.2066
1.51394
1.43835
1.5259
1.4704
1.49166
1.2343
1.28551
1.42095
1.50793
1.24713
1.14199
1.38178
1.44885
1.50018
1.62924
1.52859
1.21981
1.2725
1.29197
1.29488
1.18952
1.47787
1.52189
1.4868
1.38103
1.52155
1.47622
1.29725
1.19187
1.24858
1.49131
1.29854
1.26337
1.28003
1.25097
1.39333
1.19397
1.51984
1.26854
1.27385
1.26299
1.19163
1.28179
1.24384
1.30057
1.52177
1.32095
1.51706
1.46356
1.52127
1.21705
1.30373
1.36753
1.26947
1.5161
1.21242
1.53283
1.52211
1.27811
1.52518
1.46197
1.65017
1.26653
1.57391
1.36874
1.29344
1.28412
1.4608
1.51899
1.58795
1.53898
1.31237
1.46037
1.41399
1.27492
1.40419
1.18363
1.26102
1.49372
1.29435
1.49152
1.45181
1.52222
1.28387
1.2298
1.25039
1.44602
1.37773
1.29369
1.25466
1.53837
1.54082
1.41077
1.41526
1.44232
1.23713
1.32167
1.45232
1.52138
1.53247
1.52112
1.52633
1.2616
1.52293
1.27952
1.30964
1.43561
1.41864
1.29823
1.4476
1.26797
1.17123
1.47107
1.20364
1.38953
1.52917
1.45744
1.41794
1.43205
1.54256
1.43199
1.44359
1.41744
1.63098
1.27931
1.31004
1.28637
1.43331
1.52398
1.43674
1.17239
1.41727
1.42656
1.62566
1.30271
1.54195
1.29213
1.52492
1.31973
1.42004
1.28806
1.54303
1.18254
1.43378
1.54829
1.39118
1.18623
1.41596
1.49016
1.53602
1.32619
1.52227
1.21414
1.20619
1.31804
1.22332
1.42694
1.51181
1.53735
1.14301
1.23905
1.47755
1.28042
1.41419
1.14477
1.32251
1.29749
1.31091
1.39338
1.42216
1.29924
1.29426
1.54598
1.52173
1.20463
1.22283
1.40313
1.35929
1.34098
1.41297
1.4147
1.44123
1.3416
1.51924
1.23058
1.33414
1.41309
1.44101
1.30807
1.2473
1.1908
1.43497
1.41322
1.16278
1.32903
1.30672
1.56861
1.59481
1.20683
1.24779
1.40311
1.22082
1.2046
1.54288
1.27378
1.49378
1.53038
1.29907
1.35012
1.41215
1.25748
1.50506
1.53442
1.24613
1.66767
1.56354
1.40335
1.49491
1.33534
1.28279
1.53493
1.70049
1.49354
1.3424
1.48656
1.29052
1.14622
1.54383
1.40513
1.43178
1.3373
1.52296
1.17878
1.5639
1.19014
1.31927
1.6241
1.3453
1.3146
1.38965
1.35523
1.25015
1.20522
1.45075
1.39278
1.40415
1.32801
1.34736
1.35082
1.44834
1.25898
1.40112
1.22337
1.56306
1.42531
1.50168
1.51462
1.20642
1.36258
1.34847
1.37627
1.15596
1.21489
1.56213
1.34004
1.38926
1.24058
1.29877
1.24943
1.39126
1.33326
1.23271
1.52192
1.22636
1.3476
1.4959
1.54131
1.52226
1.35819
1.23215
1.3654
1.22434
1.29736
1.56566
1.36707
1.38723
1.32866
1.36044
1.21509
1.54586
1.51512
1.43344
1.36487
1.36886
1.23642
1.32907
1.49248
1.52348
1.25056
1.35999
1.20448
1.3804
1.36097
1.25291
1.24269
1.25686
1.56515
1.37078
1.24015
1.23715
1.48941
1.32477
1.37446
1.3785
1.54394
1.37277
1.54085
1.45343
1.34495
1.24644
1.46553
1.3558
1.65548
1.26248
1.3196
1.34161
1.44139
1.54131
1.55206
1.48265
1.43383
1.37056
1.36723
1.54475
1.36493
1.37167
1.34805
1.49171
1.25738
1.54786
1.47728
1.3395
1.54352
1.49482
1.43292
1.22016
1.31531
1.45525
1.25591
1.35553
1.34216
1.24422
1.44347
1.46693
1.2904
1.37542
1.41798
1.48076
1.42734
1.3464
1.3504
1.33591
1.42683
1.17198
1.48908
1.37898
1.47894
1.2139
1.34567
1.38554
1.54441
1.3743
1.34323
1.34472
1.32846
1.53096
1.37673
1.15802
1.50411
1.55061
1.33776
1.3218
1.35593
1.52196
1.49087
1.28192
1.52248
1.3294
1.38937
1.31719
1.52164
1.53763
1.35246
1.32527
1.5223
1.38795
1.52172
1.30534
1.38312
1.22729
1.52218
1.31444
1.53038
1.30651
1.31024
1.5119
1.35352
1.39189
1.31355
1.28945
1.47466
1.47391
1.48035
1.36303
1.39004
1.27253
1.30028
1.37187
1.29504
1.39391
1.4213
1.23932
1.42779
1.51388
1.52547
1.41068
1.6088
1.23599
1.52523
1.35976
1.42995
1.47286
1.29891
1.24996
1.35161
1.24935
1.40152
1.52421
1.26946
1.39127
1.38963
1.26646
1.28903
1.52174
1.51198
1.30446
1.29798
1.37263
1.50425
1.54507
1.39992
1.19345
1.28224
1.47156
1.28806
1.30047
1.16194
1.26231
1.48565
1.2706
1.40024
1.32962
1.37366
1.4181
1.48817
1.27586
1.24874
1.36969
1.40465
1.28167
1.47825
1.54337
1.39972
1.27111
1.32822
1.54429
1.4167
1.51824
1.52227
1.34655
1.40291
1.5336
1.24759
1.45752
1.37181
1.49318
1.25596
1.37022
1.40694
1.26446
1.48305
1.27628
1.173
1.26047
1.18752
1.44899
1.40134
1.38729
1.52187
1.4139
1.34072
1.65468
1.45986
1.56608
1.21338
1.3435
1.24455
1.44314
1.38502
1.40371
1.4123
1.4996
1.32409
1.33531
1.56693
1.50887
1.20881
1.21567
1.23781
1.15
1.52169
1.15044
1.46902
1.41191
1.30601
1.45379
1.4607
1.39576
1.36916
1.37398
1.33325
1.16238
1.45534
1.54496
1.34595
1.32863
1.39538
1.24941
1.48669
1.51158
1.41182
1.15528
1.42117
1.52243
1.38914
1.50322
1.41769
1.54056
1.52311
1.18491
1.51735
1.4199
1.3115
1.52226
1.6985
1.39635
1.37594
1.26702
1.49137
1.30658
1.59303
1.64741
1.42787
1.5259
1.41689
1.50209
1.49302
1.33233
1.3979
1.37448
1.39169
1.52191
1.21903
1.17723
1.59236
1.44905
1.11987
1.52148
1.31597
1.28727
1.42799
1.37118
1.52167
1.54818
1.15514
1.35364
1.54606
1.61701
1.34226
1.40741
1.35947
1.42351
1.16238
1.42667
1.2941
1.32196
1.27892
1.19898
1.20109
1.41293
1.40313
1.23035
1.29317
1.26582
1.50904
1.4783
1.42337
1.32057
1.48021
1.50433
1.20599
1.56498
1.43705
1.34531
1.37382
1.48295
1.41163
1.43561
1.34988
1.28506
1.61567
1.49276
1.43184
1.34326
1.51537
1.18275
1.41122
1.35256
1.36855
1.3826
1.35075
1.1305
1.07974
1.09739
1.41095
1.16214
1.42924
1.44013
1.52646
1.14781
1.52169
1.49316
1.21555
1.48538
1.47386
1.52235
1.38814
1.46603
1.19527
1.30725
1.41918
1.39038
1.1635
1.48173
1.36318
1.22286
1.45952
1.39489
1.3238
1.4446
1.48197
1.47681
1.48678
1.42624
1.36391
1.4166
1.48822
1.38692
1.14348
1.44228
1.21519
1.47622
1.34818
1.48708
1.31748
1.3553
1.15819
1.4769
1.54809
1.07912
1.52824
1.33154
1.21533
1.37694
1.25547
1.2733
1.28796
1.41548
1.47799
1.36167
1.52469
1.4859
1.27121
1.42501
1.28288
1.46134
1.32136
1.32921
1.46889
1.54063
1.34298
1.37722
1.39155
1.53507
1.16076
1.42376
1.33556
1.25834
1.37253
1.22021
1.151
1.22937
1.52484
1.41062
1.37324
1.28391
1.45096
1.35839
1.35994
1.21904
1.21641
1.52964
1.58778
1.20825
1.3396
1.44893
1.17557
1.52508
1.5237
1.3375
1.52956
1.52378
1.36235
1.4064
1.15853
1.30402
1.28734
1.3568
1.34513
1.43187
1.52138
1.52497
1.68269
1.22391
1.25686
1.22639
1.36611
1.52244
1.36698
1.1331
1.23987
1.3054
1.21934
1.1301
1.52423
1.40354
1.3623
1.35921
1.43027
1.24559
1.52436
1.52347
1.51438
1.35984
1.44722
1.35641
1.37822
1.35979
1.23118
1.63271
1.52336
1.23363
1.24697
1.44568
1.52303
1.25493
1.2492
1.39503
1.49132
1.24706
1.38749
1.43554
1.45585
1.17151
1.36397
1.42982
1.52089
1.40368
1.35828
1.44738
1.37326
1.22557
1.41853
1.11272
1.23044
1.35802
1.42963
1.45218
1.3004
1.45743
1.37966
1.52606
1.43281
1.52584
1.44592
1.38209
1.07508
1.45721
1.26044
1.43844
1.3781
1.52501
1.42842
1.40323
1.49106
1.45584
1.44631
1.27258
1.40691
1.37201
1.36784
1.39972
1.43553
1.35441
1.36876
1.18027
1.39349
1.52642
1.36912
1.27976
1.28422
1.33607
1.21694
1.47994
1.11249
1.38184
1.21169
1.45575
1.02746
1.34535
1.52642
1.34633
1.44433
1.37022
1.37159
1.40927
1.24988
1.32715
1.34659
1.3718
1.45454
1.26426
1.31916
1.33611
1.29399
1.19398
1.52716
1.34381
1.30385
1.47128
1.34959
1.52637
1.22193
1.2292
1.46716
1.36948
1.37561
1.52626
1.30987
1.52622
1.28029
1.41745
1.32361
1.39738
1.46612
1.18118
1.56217
1.33153
1.5581
1.33425
1.47318
1.34784
1.44236
1.37194
1.3799
1.19877
1.22523
1.27645
1.19792
1.49535
1.49055
1.05226
1.45801
1.22769
1.38321
1.37309
1.33618
1.46904
1.05772
1.4463
1.37038
1.46779
1.3813
1.44409
1.32237
1.35746
1.29293
1.45657
1.32447
1.52468
1.05318
1.5287
1.44398
1.37252
1.233
1.61658
1.38595
1.3863
1.4428
1.46788
1.43164
1.55593
1.43549
1.35033
1.21156
1.31882
1.18704
1.36129
1.47368
1.47311
1.51074
1.39721
1.30546
1.42127
1.30209
1.44032
1.43002
1.21447
1.43285
1.37993
1.46507
1.47781
1.21049
1.4459
1.47175
1.18723
1.20662
1.05525
1.36273
1.34853
1.45986
1.464
1.14009
1.62963
1.42379
1.3127
1.41258
1.18138
1.32287
1.03709
1.49376
1.43734
1.43827
1.47341
1.2595
1.23184
1.48956
1.43571
1.53932
1.34129
1.46113
1.36859
1.30097
1.56686
1.42193
1.39986
1.40773
1.33333
1.30409
1.24684
1.35699
1.45454
1.28237
1.36251
1.35155
1.54007
1.36725
1.3517
1.375
1.49094
1.45267
1.33496
1.32636
1.46851
1.41564
1.36664
1.34948
1.45323
1.27246
1.38962
1.21534
1.3711
1.33471
1.46727
1.37104
1.38036
1.52605
1.39857
1.26744
1.36448
1.15114
1.35363
1.45364
1.16691
1.34476
1.38011
1.35996
1.31139
1.39539
1.40161
1.36203
1.35784
1.52484
1.49519
1.35168
1.36925
1.41652
1.30423
1.38275
1.41128
1.528
1.45561
1.4042
1.43045
1.36359
1.47336
1.3469
1.3626
1.20233
1.35249
1.52238
1.33101
1.37522
1.35511
1.49838
1.41874
1.30018
1.36337
1.37735
1.33552
1.41056
1.15853
1.39231
1.41424
1.50501
1.47244
1.45834
1.43927
1.3886
1.44095
1.39088
1.41284
1.18298
1.30392
1.30813
1.301
1.18505
1.19689
1.37834
1.4021
1.39643
1.48663
1.50324
1.22499
1.42162
1.29749
1.31913
1.36664
1.40027
1.52377
1.3104
1.34941
1.33334
1.46385
1.42308
1.44849
1.31658
1.29967
1.46264
1.40944
1.28286
1.37748
1.49663
1.31166
1.25179
1.47639
1.10638
1.30381
1.4807
1.16535
1.55745
1.39175
1.24098
1.31951
1.33738
1.46287
1.39006
1.4124
1.50636
1.53321
1.33868
1.18051
1.39963
1.45739
1.52625
1.37602
1.42651
1.29903
1.53079
1.32155
1.50472
1.52561
1.47096
1.34994
1.37025
1.52618
1.23386
1.5117
1.40094
1.39094
1.30072
1.31223
1.38628
1.42185
1.40605
1.41404
1.50056
1.48099
1.32703
1.39706
1.50286
1.53292
1.50073
1.30823
1.27912
1.46954
1.46886
1.40909
1.4684
1.34142
1.46901
1.49987
1.52518
1.22013
1.19259
1.3702
1.3862
1.19662
1.318
1.35555
1.42452
1.4987
1.29894
1.42432
1.56752
1.28561
1.19491
1.41597
1.32224
1.51809
1.33108
1.49524
1.19216
1.23846
1.4983
1.35948
1.19162
1.32182
1.36059
1.34656
1.46043
1.1752
1.31359
1.5433
1.1328
1.18147
1.39228
1.43359
1.45038
1.31638
1.19419
1.214
1.47478
1.36006
1.4736
1.41785
1.43564
1.50475
1.45186
1.45453
1.37794
1.50324
1.19267
1.50747
1.61601
1.33914
1.29177
1.42525
1.35238
1.45765
1.44556
1.33406
1.55257
1.47148
1.23602
1.36527
1.32968
1.29949
1.46523
1.45837
1.46585
1.37826
1.44641
1.49063
1.47617
1.22604
1.51077
1.44212
1.18957
1.34416
1.21887
1.55086
1.56117
1.24864
1.38089
1.37531
1.4409
1.44057
1.45257
1.32847
1.3756
1.63593
1.63788
1.43547
1.42837
1.46245
1.66664
1.36153
1.18811
1.32918
1.43493
1.4406
1.48995
1.51078
1.21768
1.21461
1.30494
1.44572
1.26422
1.53565
1.32501
1.55195
1.21548
1.30378
1.2479