/*--------------------------------*- C++ -*----------------------------------*\
  =========                 |
  \\      /  F ield         | OpenFOAM: The Open Source CFD Toolbox
   \\    /   O peration     | Website:  https://openfoam.org
    \\  /    A nd           | Version:  12
     \\/     M anipulation  |
\*---------------------------------------------------------------------------*/
FoamFile
{
    format      ascii;
    class       surfaceScalarField;
    location    "14.9";
    object      phi;
}
// * * * * * * * * * * * * * * * * * * * * * * * * * * * * * * * * * * * * * //

dimensions      [1 0 -1 0 0 0 0];

internalField   nonuniform List<scalar> 
19404
(
-0.000139091
1.89678e-07
-0.000139085
1.70718e-07
-0.000138964
1.59239e-07
-0.000138521
1.50406e-07
-0.000137198
2.01635e-07
-0.000136554
2.17682e-07
-0.000136354
1.73712e-07
-0.000136281
7.72859e-08
-0.000137109
5.98885e-08
-0.000139405
1.45178e-07
-0.000140851
2.11136e-07
-0.000141377
2.0276e-07
-0.000141543
1.79712e-07
-0.000141526
1.6066e-07
-0.000141406
1.49949e-07
-0.000140488
1.8451e-07
-0.000138844
2.75445e-07
-0.000138297
2.68518e-07
-0.000138147
1.97091e-07
-0.000138162
8.14459e-08
-0.000139564
8.76258e-08
-0.000142111
1.43749e-07
-0.000143396
1.84322e-07
-0.000143835
1.76672e-07
-0.000143956
1.55353e-07
-0.000143917
1.24737e-07
-0.00014364
1.31486e-07
-0.000141824
2.08991e-07
-0.000140505
2.8346e-07
-0.00014016
2.62508e-07
-0.000140074
1.99606e-07
-0.000140395
1.14254e-07
-0.000142741
1.6243e-07
-0.000145127
2.03188e-07
-0.000146067
1.99885e-07
-0.00014636
1.61993e-07
-0.000146425
1.35431e-07
-0.000146365
1.07051e-07
-0.000144869
1.05451e-07
-0.000142715
2.32145e-07
-0.00014205
2.24508e-07
-0.000141919
2.05894e-07
-0.000141949
1.07261e-07
-0.000143506
1.41649e-07
-0.000146689
2.11266e-07
-0.000148339
2.65762e-07
-0.000148877
2.54222e-07
-0.000149038
2.23824e-07
-0.00014903
1.51925e-07
-0.000147635
1.05753e-07
-0.000144696
1.16154e-07
-0.000143633
9.08239e-08
-0.000143442
6.88784e-08
-0.000143471
2.4564e-08
-0.000144605
1.5385e-08
-0.000148302
2.27438e-07
-0.000150785
3.2384e-07
-0.000151594
3.31661e-07
-0.000151842
3.52686e-07
-0.000151872
2.96124e-07
-0.00015071
2.31046e-07
-0.00014655
1.18578e-07
-0.000144589
6.91926e-08
-0.000144347
6.58178e-10
-0.000144414
-1.07094e-07
-0.000145581
-1.08037e-07
-0.000150223
7.54984e-08
-0.000153537
2.79759e-07
-0.000154602
4.08658e-07
-0.000154921
3.63089e-07
-0.000155002
3.47549e-07
-0.000153841
2.6797e-07
-0.00014817
1.61615e-07
-0.000144629
4.08669e-08
-0.000144065
-1.06559e-07
-0.000144165
-2.28581e-07
-0.000146276
-3.55125e-07
-0.000152413
-9.37215e-08
-0.000156254
1.0826e-07
-0.000157501
3.13205e-07
-0.000157873
4.35579e-07
-0.00015794
4.11752e-07
-0.0001552
3.92499e-07
-0.000146437
-1.8308e-07
-0.00014138
-4.3913e-07
-0.000140793
-6.38634e-07
-0.000141128
-9.90385e-07
-0.000146963
-1.04456e-06
-0.00015559
-7.21095e-07
-0.000159017
-3.87282e-07
-0.000159776
2.30597e-07
-0.000160062
4.44537e-07
-0.000157358
2.7574e-07
-0.000147398
8.70869e-08
-0.00013664
-2.92767e-07
-0.000129325
5.43991e-08
-0.000125445
-6.34407e-06
-0.000115524
-3.16163e-05
2.19302e-05
-0.000139893
3.76479e-07
-0.000139851
3.84446e-07
-0.000139679
3.55704e-07
-0.000139164
3.22969e-07
-0.000137937
3.68208e-07
-0.000137273
3.80644e-07
-0.000137016
3.10444e-07
-0.000136925
2.15039e-07
-0.000137764
1.48667e-07
-0.000140236
2.39161e-07
-0.00014165
3.77219e-07
-0.000142083
3.82169e-07
-0.000142178
3.73377e-07
-0.000142126
3.76993e-07
-0.000141941
3.58257e-07
-0.000140986
3.72144e-07
-0.000139501
4.54779e-07
-0.000138946
4.44996e-07
-0.000138771
3.46337e-07
-0.000138777
2.21863e-07
-0.000140213
1.57915e-07
-0.000142846
2.60077e-07
-0.000144054
3.57787e-07
-0.000144413
3.69889e-07
-0.000144469
3.44986e-07
-0.000144417
3.4248e-07
-0.000144026
3.17476e-07
-0.000142258
3.77138e-07
-0.000141
4.80912e-07
-0.000140638
4.54243e-07
-0.000140543
3.68267e-07
-0.000140848
2.36351e-07
-0.000143371
2.58953e-07
-0.000145797
3.47076e-07
-0.000146656
3.7206e-07
-0.000146894
3.50534e-07
-0.000146929
3.4159e-07
-0.000146783
2.9134e-07
-0.000145223
2.91561e-07
-0.000143086
4.16057e-07
-0.000142373
4.01148e-07
-0.000142196
3.63068e-07
-0.000142228
2.49082e-07
-0.0001438
2.29569e-07
-0.000147202
3.3039e-07
-0.000148879
4.40499e-07
-0.000149374
4.52939e-07
-0.000149489
4.26517e-07
-0.000149469
3.60012e-07
-0.000148151
2.82073e-07
-0.000145166
2.45991e-07
-0.000143906
2.05319e-07
-0.0001436
1.81014e-07
-0.000143592
1.45472e-07
-0.000144508
9.73175e-08
-0.000148283
2.91268e-07
-0.000150944
5.53162e-07
-0.000151885
6.21684e-07
-0.000152162
6.28644e-07
-0.000152214
5.44255e-07
-0.000151263
4.23107e-07
-0.000147234
2.63044e-07
-0.00014492
9.48606e-08
-0.000144415
1.19514e-09
-0.000144454
-7.39173e-08
-0.000145223
-1.68099e-07
-0.000149492
3.47913e-08
-0.000153164
5.03377e-07
-0.000154536
7.36743e-07
-0.00015494
7.23101e-07
-0.000155029
6.67704e-07
-0.000154127
5.33908e-07
-0.000148803
2.99882e-07
-0.000144895
-8.50133e-09
-0.000144006
-2.55965e-07
-0.000144056
-4.26406e-07
-0.000145042
-6.58428e-07
-0.000150499
-4.24922e-07
-0.000155101
2.8263e-07
-0.000156802
6.19817e-07
-0.000157303
6.73567e-07
-0.000157456
5.72294e-07
-0.000155726
4.44132e-07
-0.000147287
-6.61543e-08
-0.000141433
-7.56771e-07
-0.000140195
-1.24702e-06
-0.00014024
-1.72861e-06
-0.00014326
-2.20904e-06
-0.000150686
-1.8709e-06
-0.000154979
-8.35153e-07
-0.000156271
-1.45602e-07
-0.000156587
-1.27939e-07
-0.000154523
-4.36027e-07
-0.000144922
-1.35696e-06
-0.000133228
-2.58756e-06
-0.000124059
-2.98209e-06
-0.000118887
-1.28636e-05
-0.000133019
-3.48871e-05
2.79061e-05
-0.000139641
5.57614e-07
-0.000139566
5.82182e-07
-0.000139384
5.37902e-07
-0.000138877
4.9204e-07
-0.000137764
5.21997e-07
-0.000137148
5.13829e-07
-0.000136904
4.38586e-07
-0.00013679
3.41133e-07
-0.000137599
2.54308e-07
-0.0001401
3.89096e-07
-0.00014137
5.45614e-07
-0.000141749
6.05734e-07
-0.000141812
5.91943e-07
-0.00014174
5.98998e-07
-0.000141527
5.32429e-07
-0.000140592
5.24864e-07
-0.000139345
5.71331e-07
-0.000138854
5.57234e-07
-0.000138684
4.65372e-07
-0.00013864
3.37197e-07
-0.000140012
2.75285e-07
-0.000142588
4.34736e-07
-0.000143687
5.64896e-07
-0.000143995
5.92544e-07
-0.000144063
5.94423e-07
-0.000143974
5.39407e-07
-0.000143536
4.9246e-07
-0.000141802
5.45783e-07
-0.000140687
5.83657e-07
-0.000140362
5.53141e-07
-0.000140273
4.56033e-07
-0.000140579
3.21604e-07
-0.000143127
3.39336e-07
-0.000145468
5.01928e-07
-0.000146255
6.07094e-07
-0.000146477
6.23401e-07
-0.00014648
5.95691e-07
-0.000146309
5.23143e-07
-0.000144651
4.99922e-07
-0.000142555
5.49981e-07
-0.000141873
4.88876e-07
-0.000141713
4.19616e-07
-0.000141734
2.95241e-07
-0.00014318
2.21447e-07
-0.00014664
4.0519e-07
-0.000148382
6.55624e-07
-0.000148877
6.98255e-07
-0.000149003
6.88605e-07
-0.000148992
6.12039e-07
-0.000147925
5.16162e-07
-0.00014479
4.27161e-07
-0.000143206
3.10054e-07
-0.000142793
2.65915e-07
-0.000142738
2.05971e-07
-0.000143284
1.11832e-07
-0.0001469
2.46128e-07
-0.000150068
6.8518e-07
-0.000151188
8.48903e-07
-0.000151485
8.38003e-07
-0.000151538
7.33891e-07
-0.000150978
6.0624e-07
-0.000147314
4.65846e-07
-0.000144377
1.59494e-07
-0.000143443
1.24813e-08
-0.000143317
-2.10295e-08
-0.000143554
-9.89378e-08
-0.000146764
-6.62307e-08
-0.000151276
5.04784e-07
-0.000153127
9.52236e-07
-0.000153624
9.72413e-07
-0.000153716
8.92557e-07
-0.000153284
6.91763e-07
-0.000148884
4.68602e-07
-0.000144153
-1.45647e-07
-0.000142443
-5.67982e-07
-0.0001422
-6.91469e-07
-0.00014247
-7.98723e-07
-0.000146547
-8.58906e-07
-0.000152497
-4.00351e-09
-0.000154769
7.52773e-07
-0.000155259
9.10738e-07
-0.000155401
8.36402e-07
-0.000154426
6.76087e-07
-0.000147283
2.58219e-07
-0.000140157
-8.2714e-07
-0.000137591
-2.10162e-06
-0.000137462
-2.62539e-06
-0.0001382
-3.10608e-06
-0.000144178
-3.33185e-06
-0.000150187
-2.24883e-06
-0.000152526
-1.20712e-06
-0.00015285
-9.63069e-07
-0.000151882
-1.37033e-06
-0.000143941
-2.46663e-06
-0.000133112
-4.8459e-06
-0.000123581
-7.46766e-06
-0.000118216
-1.94428e-05
-0.000135237
-3.22538e-05
3.0482e-05
-0.000139258
7.19116e-07
-0.00013919
7.7324e-07
-0.000139015
7.0676e-07
-0.000138423
6.33491e-07
-0.000137325
6.41428e-07
-0.000136736
6.23063e-07
-0.000136498
5.68949e-07
-0.000136375
4.71273e-07
-0.000137084
3.9692e-07
-0.000139485
5.28902e-07
-0.000140784
7.59652e-07
-0.000141144
8.07021e-07
-0.000141221
8.07736e-07
-0.000141136
7.75322e-07
-0.000140951
7.07393e-07
-0.000139968
6.40921e-07
-0.000138882
6.69443e-07
-0.000138392
6.27965e-07
-0.000138187
5.58637e-07
-0.000138131
4.68532e-07
-0.00013932
4.17522e-07
-0.000141836
5.91096e-07
-0.00014295
7.72554e-07
-0.000143281
8.24154e-07
-0.000143321
8.00164e-07
-0.000143269
7.50269e-07
-0.000142767
6.66622e-07
-0.000140992
6.75547e-07
-0.000140032
6.45451e-07
-0.000139728
5.78195e-07
-0.000139616
4.70376e-07
-0.00013983
3.75205e-07
-0.00014218
4.1665e-07
-0.000144537
6.92716e-07
-0.000145322
8.72247e-07
-0.000145533
9.09812e-07
-0.00014554
8.6077e-07
-0.000145394
7.79598e-07
-0.000143726
7.0569e-07
-0.000141657
6.28727e-07
-0.000141005
4.91584e-07
-0.000140824
3.81587e-07
-0.000140812
2.94556e-07
-0.000141844
2.04604e-07
-0.000145251
4.42791e-07
-0.000147178
8.4407e-07
-0.000147734
9.809e-07
-0.000147856
9.59366e-07
-0.000147844
8.72689e-07
-0.000147054
7.73011e-07
-0.000143853
6.67351e-07
-0.000141931
4.23434e-07
-0.000141428
2.30362e-07
-0.000141374
1.47117e-07
-0.000141607
5.0193e-08
-0.000144677
9.70832e-08
-0.000148447
5.89442e-07
-0.000149718
9.60943e-07
-0.000149989
1.02875e-06
-0.000150065
9.94217e-07
-0.000149761
8.84223e-07
-0.000146518
7.42854e-07
-0.000142747
4.55918e-07
-0.000141487
-1.44705e-08
-0.000141261
-1.3914e-07
-0.000141347
-2.02909e-07
-0.000143341
-2.77523e-07
-0.000148482
1.42107e-07
-0.000150917
8.26958e-07
-0.000151478
1.04251e-06
-0.000151588
1.04349e-06
-0.000151514
8.8946e-07
-0.000148383
6.92733e-07
-0.000142409
8.64375e-08
-0.000139862
-7.09918e-07
-0.000139492
-1.09125e-06
-0.000139565
-1.16778e-06
-0.000141517
-1.29857e-06
-0.000147728
-7.7439e-07
-0.000151052
4.19908e-07
-0.000151823
1.02694e-06
-0.00015199
1.07121e-06
-0.000151803
8.55432e-07
-0.000147378
5.53079e-07
-0.000139213
-8.10695e-07
-0.000134808
-2.40393e-06
-0.000134078
-3.63018e-06
-0.000134088
-4.23894e-06
-0.000136423
-4.70245e-06
-0.000141888
-4.33222e-06
-0.000144804
-3.18703e-06
-0.000145757
-2.69911e-06
-0.000145758
-3.15501e-06
-0.000141244
-3.89079e-06
-0.000132817
-6.10746e-06
-0.000124381
-8.91364e-06
-0.000119927
-1.95767e-05
-0.000134255
-3.12193e-05
3.37649e-05
-0.000138578
8.77033e-07
-0.0001385
9.28557e-07
-0.000138316
8.49291e-07
-0.000137691
7.8287e-07
-0.000136571
7.59118e-07
-0.000135978
7.09731e-07
-0.000135713
6.56324e-07
-0.000135581
5.77479e-07
-0.000136114
5.2276e-07
-0.000138475
6.68504e-07
-0.000139855
9.41644e-07
-0.000140264
1.03028e-06
-0.00014033
9.9724e-07
-0.000140266
9.55577e-07
-0.000140061
8.53797e-07
-0.000139021
7.82162e-07
-0.00013786
7.31227e-07
-0.000137389
6.81361e-07
-0.000137195
6.10056e-07
-0.000137126
5.40764e-07
-0.000138085
4.86377e-07
-0.000140671
7.09591e-07
-0.000141892
9.78413e-07
-0.000142214
1.05503e-06
-0.000142257
1.0226e-06
-0.000142188
9.63139e-07
-0.000141685
8.65049e-07
-0.000139913
8.10183e-07
-0.000138916
6.72868e-07
-0.000138539
5.44507e-07
-0.000138412
4.84399e-07
-0.000138451
4.17696e-07
-0.000140328
4.3801e-07
-0.000142988
8.25858e-07
-0.000143935
1.11381e-06
-0.000144164
1.16707e-06
-0.000144195
1.11475e-06
-0.000144083
1.00276e-06
-0.000142697
8.9768e-07
-0.000140519
7.04037e-07
-0.000139651
4.27872e-07
-0.000139344
3.36251e-07
-0.000139263
3.05212e-07
-0.000139666
2.35169e-07
-0.000142811
4.32038e-07
-0.000145269
9.07864e-07
-0.000145977
1.18064e-06
-0.000146135
1.19133e-06
-0.000146148
1.11788e-06
-0.000145678
1.01602e-06
-0.000142719
8.65279e-07
-0.000140337
4.71462e-07
-0.000139661
1.39836e-07
-0.000139508
5.20467e-08
-0.000139549
-2.52223e-08
-0.000141517
-1.08547e-08
-0.000145665
4.20328e-07
-0.000147355
9.8573e-07
-0.000147753
1.21746e-06
-0.000147838
1.24596e-06
-0.00014775
1.17551e-06
-0.000145489
1.04157e-06
-0.000141051
6.17626e-07
-0.000139264
-5.93541e-08
-0.000138951
-4.0514e-07
-0.000138951
-5.07379e-07
-0.00013988
-5.68871e-07
-0.00014467
-2.95676e-07
-0.000147981
5.7292e-07
-0.000148787
1.1171e-06
-0.000148954
1.2222e-06
-0.000149008
1.13075e-06
-0.000147446
9.75948e-07
-0.000141459
4.99026e-07
-0.000137375
-6.60949e-07
-0.000136613
-1.3696e-06
-0.000136589
-1.75064e-06
-0.000137112
-1.87038e-06
-0.00014191
-1.71037e-06
-0.000147171
-4.69315e-07
-0.000148741
7.06815e-07
-0.00014899
1.08151e-06
-0.00014912
1.06239e-06
-0.000147164
7.85389e-07
-0.000139863
-8.15506e-08
-0.000133336
-2.38371e-06
-0.000130855
-3.96443e-06
-0.000130754
-5.13082e-06
-0.000131325
-5.90313e-06
-0.000135431
-6.16369e-06
-0.000139593
-5.50946e-06
-0.000141474
-4.87939e-06
-0.00014188
-5.19906e-06
-0.000141126
-5.95651e-06
-0.000135732
-7.27006e-06
-0.000127832
-9.94574e-06
-0.000121625
-1.83618e-05
-0.000133716
-2.94199e-05
3.74107e-05
-0.000137755
1.02886e-06
-0.000137667
1.0907e-06
-0.000137486
1.00229e-06
-0.000136869
9.28207e-07
-0.000135662
8.66617e-07
-0.000135006
7.78392e-07
-0.000134702
7.20641e-07
-0.000134552
6.65988e-07
-0.000134842
6.20514e-07
-0.000137146
7.69215e-07
-0.000138781
1.0896e-06
-0.000139225
1.21897e-06
-0.000139312
1.19358e-06
-0.00013924
1.11262e-06
-0.000139078
1.00164e-06
-0.00013806
9.02864e-07
-0.000136795
8.07089e-07
-0.000136251
6.67544e-07
-0.000136003
6.11183e-07
-0.000135904
5.99228e-07
-0.000136542
5.59247e-07
-0.000139187
8.03719e-07
-0.000140599
1.1453e-06
-0.00014094
1.27836e-06
-0.000140992
1.25713e-06
-0.000140929
1.17841e-06
-0.000140576
1.05991e-06
-0.00013888
9.09216e-07
-0.000137694
6.81076e-07
-0.000137224
4.97452e-07
-0.000137008
4.666e-07
-0.000136953
4.67294e-07
-0.00013818
4.94679e-07
-0.000141148
8.54077e-07
-0.000142418
1.28235e-06
-0.000142697
1.37737e-06
-0.00014272
1.33092e-06
-0.000142653
1.22159e-06
-0.000141747
1.08587e-06
-0.000139359
8.11657e-07
-0.000138135
4.51411e-07
-0.000137677
2.63873e-07
-0.000137534
2.67689e-07
-0.000137661
2.5864e-07
-0.000140129
3.68279e-07
-0.000143223
8.68247e-07
-0.000144204
1.27587e-06
-0.000144417
1.36655e-06
-0.000144458
1.36069e-06
-0.000144274
1.25922e-06
-0.000141989
1.05923e-06
-0.000138881
5.36659e-07
-0.00013784
1.39361e-07
-0.000137581
-9.4769e-08
-0.000137583
-1.46038e-07
-0.000138665
-1.4887e-07
-0.000142755
2.11143e-07
-0.00014508
9.51192e-07
-0.000145653
1.38045e-06
-0.000145806
1.4865e-06
-0.000145825
1.41315e-06
-0.000144841
1.25554e-06
-0.000140461
8.09587e-07
-0.000137403
-7.94397e-08
-0.000136799
-5.42291e-07
-0.000136782
-7.85181e-07
-0.000137078
-8.8572e-07
-0.000140623
-7.43785e-07
-0.000145161
1.8541e-07
-0.00014657
1.11318e-06
-0.000146807
1.44041e-06
-0.00014691
1.44904e-06
-0.000146424
1.23287e-06
-0.000141891
7.55473e-07
-0.000136546
-5.24442e-07
-0.000134447
-1.45383e-06
-0.000134219
-2.17854e-06
-0.000134292
-2.45358e-06
-0.000136288
-2.57464e-06
-0.0001422
-1.90567e-06
-0.000145757
-2.54493e-07
-0.000146735
7.31301e-07
-0.000146892
9.71525e-07
-0.000146581
9.07948e-07
-0.000141986
5.35014e-07
-0.000134502
-1.30524e-06
-0.000129816
-3.92365e-06
-0.000128587
-5.39364e-06
-0.000128589
-6.77799e-06
-0.000130204
-7.48144e-06
-0.000134306
-7.5349e-06
-0.000136943
-7.03649e-06
-0.000138174
-7.14374e-06
-0.000138624
-8.16609e-06
-0.000137192
-9.24713e-06
-0.000132497
-1.12163e-05
-0.000126643
-1.64275e-05
-0.000131773
-2.91725e-05
4.15553e-05
-0.000136867
1.16647e-06
-0.000136798
1.23628e-06
-0.00013665
1.14037e-06
-0.000136121
1.03572e-06
-0.000134795
9.51784e-07
-0.000133996
8.45311e-07
-0.000133635
7.81354e-07
-0.000133486
7.75432e-07
-0.000133584
7.2521e-07
-0.00013569
8.43184e-07
-0.000137689
1.18986e-06
-0.00013823
1.37636e-06
-0.000138308
1.35628e-06
-0.000138252
1.26423e-06
-0.000138115
1.13903e-06
-0.000137212
1.00798e-06
-0.000135691
8.55819e-07
-0.000135025
6.94784e-07
-0.000134741
6.10454e-07
-0.000134616
6.14696e-07
-0.000134998
6.33808e-07
-0.000137525
8.25592e-07
-0.000139365
1.27484e-06
-0.000139836
1.47792e-06
-0.000139909
1.46909e-06
-0.000139857
1.36909e-06
-0.000139669
1.22718e-06
-0.000138248
1.04645e-06
-0.000136469
7.52437e-07
-0.000135783
5.51806e-07
-0.000135509
4.68744e-07
-0.000135431
4.89826e-07
-0.000136134
5.2228e-07
-0.000139191
8.27615e-07
-0.000140994
1.30799e-06
-0.000141474
1.51179e-06
-0.000141567
1.50115e-06
-0.000141562
1.41748e-06
-0.000141224
1.25562e-06
-0.000138903
9.9888e-07
-0.000136688
5.65485e-07
-0.000136047
3.41455e-07
-0.000135868
2.28252e-07
-0.00013593
2.15142e-07
-0.000137703
2.79845e-07
-0.000141171
7.56053e-07
-0.000142586
1.3192e-06
-0.000142956
1.53805e-06
-0.000143033
1.52726e-06
-0.000143016
1.41012e-06
-0.000141956
1.23453e-06
-0.000138465
7.87836e-07
-0.000136428
1.37139e-07
-0.000135989
-9.90437e-08
-0.000135924
-2.23044e-07
-0.000136288
-2.64052e-07
-0.00013971
-1.27951e-08
-0.000143075
8.38026e-07
-0.000144071
1.51286e-06
-0.000144306
1.70472e-06
-0.000144371
1.58124e-06
-0.000144142
1.34701e-06
-0.000140943
1.03316e-06
-0.00013688
8.42247e-08
-0.000135356
-6.01997e-07
-0.000135059
-9.45691e-07
-0.000135122
-1.01809e-06
-0.000136561
-1.06592e-06
-0.000141743
-4.73043e-07
-0.00014485
8.52305e-07
-0.000145528
1.56149e-06
-0.000145597
1.68183e-06
-0.000145594
1.54716e-06
-0.000143374
1.1738e-06
-0.000137538
2.0596e-07
-0.000133671
-1.53984e-06
-0.000132552
-2.3252e-06
-0.000132557
-2.9125e-06
-0.000132841
-3.19969e-06
-0.000136579
-3.19788e-06
-0.000142221
-1.87967e-06
-0.000144803
-1.8652e-07
-0.000145443
5.86012e-07
-0.000145629
7.39226e-07
-0.000144356
7.89574e-07
-0.000138183
-1.50171e-07
-0.00013176
-2.71989e-06
-0.000128166
-5.41447e-06
-0.000127367
-6.95544e-06
-0.000127548
-8.20033e-06
-0.000130104
-8.86944e-06
-0.00013375
-8.78601e-06
-0.000135695
-8.65499e-06
-0.000136632
-9.48655e-06
-0.00013678
-1.12333e-05
-0.000135154
-1.27612e-05
-0.000130842
-1.55518e-05
-0.000130416
-2.83513e-05
4.52642e-05
-0.000136107
1.28788e-06
-0.000136036
1.35819e-06
-0.000135886
1.25216e-06
-0.000135481
1.15419e-06
-0.000134071
1.03621e-06
-0.000133086
9.36435e-07
-0.000132677
8.67891e-07
-0.000132493
8.45975e-07
-0.000132538
7.97881e-07
-0.000134386
8.63289e-07
-0.000136808
1.24224e-06
-0.000137536
1.51455e-06
-0.000137619
1.50998e-06
-0.000137563
1.43686e-06
-0.000137427
1.30018e-06
-0.000136811
1.17506e-06
-0.000135004
9.50887e-07
-0.000133933
8.24756e-07
-0.000133568
6.97068e-07
-0.00013343
6.57746e-07
-0.000133609
6.18582e-07
-0.000135922
7.72604e-07
-0.000138342
1.26099e-06
-0.000139076
1.59307e-06
-0.000139184
1.61776e-06
-0.000139148
1.53806e-06
-0.000139046
1.40452e-06
-0.000138174
1.26229e-06
-0.000135874
9.41079e-07
-0.00013461
7.21843e-07
-0.000134244
5.75363e-07
-0.000134136
5.34903e-07
-0.000134548
5.04964e-07
-0.000137408
6.97392e-07
-0.000139838
1.24014e-06
-0.000140529
1.56442e-06
-0.000140684
1.61477e-06
-0.000140675
1.52356e-06
-0.000140587
1.39523e-06
-0.000139073
1.23035e-06
-0.000136127
7.99866e-07
-0.000134892
5.17524e-07
-0.000134628
2.82877e-07
-0.000134584
2.09074e-07
-0.000135579
1.86259e-07
-0.000139254
5.74168e-07
-0.000141416
1.28555e-06
-0.000141961
1.6596e-06
-0.000142096
1.66943e-06
-0.000142113
1.53263e-06
-0.000141824
1.335e-06
-0.000138894
1.06338e-06
-0.000135942
3.10675e-07
-0.000134848
-6.76895e-08
-0.000134595
-1.92842e-07
-0.000134649
-2.54802e-07
-0.000136548
-2.14e-07
-0.000141074
4.31317e-07
-0.00014314
1.44236e-06
-0.00014356
1.80957e-06
-0.000143637
1.72514e-06
-0.000143652
1.48756e-06
-0.000142074
1.22138e-06
-0.00013748
6.30208e-07
-0.00013465
-5.50998e-07
-0.000133797
-9.46879e-07
-0.000133717
-1.14127e-06
-0.000133953
-1.28215e-06
-0.000137435
-1.21046e-06
-0.00014264
-4.18058e-08
-0.000144653
1.35069e-06
-0.000145071
1.8179e-06
-0.00014517
1.80809e-06
-0.00014465
1.59704e-06
-0.000140014
1.17416e-06
-0.000134514
-6.9441e-07
-0.000131947
-2.43752e-06
-0.000131316
-3.21982e-06
-0.000131347
-3.6035e-06
-0.000132116
-3.80913e-06
-0.000136894
-3.5296e-06
-0.0001416
-1.92806e-06
-0.000143565
-4.35452e-07
-0.000144157
1.29601e-07
-0.000144291
1.94173e-07
-0.000142447
7.6462e-08
-0.000136043
-1.2883e-06
-0.000130127
-3.96852e-06
-0.000127091
-6.81196e-06
-0.000126598
-8.33591e-06
-0.000127027
-9.6975e-06
-0.000130159
-1.02638e-05
-0.000133376
-1.01087e-05
-0.000135053
-1.04751e-05
-0.00013572
-1.22297e-05
-0.00013556
-1.40472e-05
-0.000133669
-1.54799e-05
-0.000129732
-2.68092e-05
4.856e-05
-0.000135653
1.39334e-06
-0.000135603
1.48621e-06
-0.000135475
1.39717e-06
-0.000135163
1.29426e-06
-0.000133809
1.19353e-06
-0.000132444
1.03538e-06
-0.000131921
9.67242e-07
-0.000131704
9.10015e-07
-0.000131656
8.54727e-07
-0.000133137
8.66346e-07
-0.00013599
1.20344e-06
-0.00013706
1.55217e-06
-0.000137251
1.63927e-06
-0.000137202
1.59246e-06
-0.000137091
1.49211e-06
-0.000136725
1.39198e-06
-0.000134994
1.24013e-06
-0.000133336
8.91357e-07
-0.000132725
8.03491e-07
-0.000132523
7.37947e-07
-0.000132521
6.84537e-07
-0.000134244
7.17916e-07
-0.000137314
1.12023e-06
-0.000138494
1.58238e-06
-0.000138755
1.70268e-06
-0.000138753
1.65124e-06
-0.000138674
1.55802e-06
-0.000138228
1.45702e-06
-0.000135925
1.29082e-06
-0.000133969
7.86753e-07
-0.000133376
7.20921e-07
-0.000133236
6.05161e-07
-0.000133347
5.41714e-07
-0.000135676
5.88744e-07
-0.000138826
1.10464e-06
-0.000139911
1.60865e-06
-0.000140134
1.71798e-06
-0.000140146
1.65004e-06
-0.000140087
1.53959e-06
-0.000139275
1.42497e-06
-0.00013628
1.1114e-06
-0.000134391
5.3268e-07
-0.000133819
3.51861e-07
-0.000133728
2.74619e-07
-0.00013397
1.95999e-07
-0.000137008
3.05647e-07
-0.000140418
1.08191e-06
-0.000141464
1.6978e-06
-0.000141677
1.79769e-06
-0.000141708
1.6839e-06
-0.000141645
1.50076e-06
-0.000139807
1.32039e-06
-0.00013606
7.54203e-07
-0.000134143
-1.7146e-08
-0.000133626
-1.48666e-07
-0.000133583
-2.68311e-07
-0.000134121
-3.60588e-07
-0.000138355
-1.63254e-07
-0.000142245
9.83259e-07
-0.000143272
1.80054e-06
-0.000143388
1.8666e-06
-0.000143423
1.72546e-06
-0.000142884
1.56857e-06
-0.000138839
1.27634e-06
-0.000134638
2.63115e-08
-0.000133002
-9.51425e-07
-0.000132681
-1.40177e-06
-0.000132728
-1.54103e-06
-0.000133704
-1.71308e-06
-0.00013899
-1.25419e-06
-0.00014332
4.78939e-07
-0.00014459
1.68789e-06
-0.000144804
1.95541e-06
-0.000144868
1.85286e-06
-0.000143335
1.6768e-06
-0.000137408
7.71958e-07
-0.000132725
-1.47609e-06
-0.000130626
-3.20829e-06
-0.00013015
-3.64329e-06
-0.000130211
-4.10219e-06
-0.000131905
-4.44921e-06
-0.00013732
-3.97097e-06
-0.000141412
-2.26368e-06
-0.000143112
-1.03129e-06
-0.000143587
-6.23591e-07
-0.000143447
-4.74694e-07
-0.000140693
-9.22552e-07
-0.000134444
-2.50205e-06
-0.000128928
-5.31119e-06
-0.000126194
-8.21155e-06
-0.000125992
-9.78704e-06
-0.000126786
-1.14308e-05
-0.000130616
-1.17499e-05
-0.00013376
-1.16188e-05
-0.000135136
-1.27758e-05
-0.000135369
-1.46815e-05
-0.000135162
-1.57309e-05
-0.000129453
-2.51452e-05
5.13969e-05
-0.000135445
1.48495e-06
-0.000135414
1.60257e-06
-0.00013528
1.5298e-06
-0.000135045
1.45722e-06
-0.000133852
1.37735e-06
-0.000132189
1.1886e-06
-0.000131537
1.07782e-06
-0.000131282
9.77167e-07
-0.000131167
9.04889e-07
-0.000132082
8.69572e-07
-0.000135113
1.12001e-06
-0.000136669
1.54228e-06
-0.000136999
1.69665e-06
-0.000137009
1.71554e-06
-0.000136909
1.65749e-06
-0.000136681
1.58402e-06
-0.000135259
1.47218e-06
-0.000133198
1.17548e-06
-0.000132343
9.21722e-07
-0.000132053
8.21239e-07
-0.000131964
7.69189e-07
-0.000132882
7.164e-07
-0.000136212
9.86228e-07
-0.000137985
1.51641e-06
-0.000138387
1.72639e-06
-0.000138441
1.74158e-06
-0.000138391
1.69618e-06
-0.000138182
1.6009e-06
-0.000136349
1.51929e-06
-0.000133881
1.11785e-06
-0.000132982
8.01233e-07
-0.00013276
6.8332e-07
-0.000132709
5.78541e-07
-0.000134046
5.42433e-07
-0.000137709
8.94245e-07
-0.000139427
1.58694e-06
-0.000139796
1.81715e-06
-0.00013987
1.82484e-06
-0.000139847
1.71657e-06
-0.000139512
1.58634e-06
-0.000136925
1.4095e-06
-0.000134325
8.1152e-07
-0.000133341
3.99851e-07
-0.000133081
2.78515e-07
-0.000133094
2.06332e-07
-0.000134665
1.60358e-07
-0.00013907
6.34616e-07
-0.000141145
1.59517e-06
-0.000141532
1.91069e-06
-0.000141573
1.87262e-06
-0.000141558
1.74152e-06
-0.000140678
1.61761e-06
-0.000136699
1.29984e-06
-0.000133915
3.57786e-07
-0.000133039
-1.52878e-07
-0.000132929
-3.67003e-07
-0.000133003
-4.9522e-07
-0.00013516
-5.97755e-07
-0.000140427
1.31804e-07
-0.00014283
1.52378e-06
-0.00014326
2.03577e-06
-0.000143312
2.09037e-06
-0.000143251
1.98823e-06
-0.000141066
1.82468e-06
-0.000135893
9.06161e-07
-0.000133018
-6.9517e-07
-0.000132099
-1.44496e-06
-0.00013189
-1.90978e-06
-0.000131982
-1.97304e-06
-0.000134264
-2.08574e-06
-0.000140355
-1.17587e-06
-0.000143627
8.40276e-07
-0.000144441
1.82636e-06
-0.000144613
1.95191e-06
-0.000144606
1.79074e-06
-0.000141695
1.63553e-06
-0.000134876
4.75907e-07
-0.000130961
-2.13272e-06
-0.000129626
-3.67542e-06
-0.000129487
-4.2718e-06
-0.000129626
-4.89284e-06
-0.000132131
-5.19397e-06
-0.000137447
-4.45319e-06
-0.000140725
-2.81193e-06
-0.000142048
-1.78929e-06
-0.000142329
-1.51924e-06
-0.000142053
-1.27809e-06
-0.000139104
-2.29103e-06
-0.000133038
-3.86275e-06
-0.000127855
-6.80135e-06
-0.000125375
-9.77378e-06
-0.000125376
-1.15133e-05
-0.000126737
-1.33504e-05
-0.000131127
-1.33143e-05
-0.000134135
-1.363e-05
-0.000135369
-1.51655e-05
-0.00013608
-1.59763e-05
-0.000129683
-2.30121e-05
5.39662e-05
-0.000135323
1.54907e-06
-0.000135313
1.71987e-06
-0.000135181
1.66892e-06
-0.000134979
1.62474e-06
-0.000134015
1.53345e-06
-0.000132193
1.38589e-06
-0.000131384
1.19547e-06
-0.000131095
1.07114e-06
-0.00013097
9.80846e-07
-0.000131417
8.81448e-07
-0.000134248
1.05369e-06
-0.000136224
1.49165e-06
-0.00013673
1.73293e-06
-0.000136798
1.79788e-06
-0.000136724
1.78212e-06
-0.000136578
1.72587e-06
-0.000135712
1.6374e-06
-0.000133326
1.42673e-06
-0.00013218
1.08907e-06
-0.00013185
9.65543e-07
-0.000131723
8.5419e-07
-0.000132081
7.50892e-07
-0.000135061
8.94923e-07
-0.000137465
1.43771e-06
-0.000138102
1.77122e-06
-0.000138222
1.84887e-06
-0.000138182
1.81773e-06
-0.000138073
1.74762e-06
-0.000136884
1.63643e-06
-0.000134111
1.39656e-06
-0.000132845
9.3575e-07
-0.000132491
7.86879e-07
-0.000132418
6.49725e-07
-0.000132793
5.1383e-07
-0.000136155
6.88129e-07
-0.00013892
1.42075e-06
-0.00013961
1.93382e-06
-0.000139704
1.98885e-06
-0.000139692
1.91197e-06
-0.000139582
1.79534e-06
-0.000137858
1.67836e-06
-0.000134556
1.19289e-06
-0.000133139
5.27319e-07
-0.000132748
3.12402e-07
-0.000132692
1.45544e-07
-0.000133074
3.73124e-08
-0.000136863
1.65173e-07
-0.000140467
1.20236e-06
-0.000141348
1.97362e-06
-0.000141456
2.0966e-06
-0.000141467
2.0783e-06
-0.000141133
1.95617e-06
-0.000138178
1.76778e-06
-0.000134343
8.39321e-07
-0.00013294
-8.2445e-08
-0.000132588
-5.25587e-07
-0.000132579
-6.69112e-07
-0.000132935
-7.89225e-07
-0.000137055
-6.41594e-07
-0.000141566
7.5821e-07
-0.000142858
2.0417e-06
-0.000143007
2.3348e-06
-0.000143038
2.28283e-06
-0.000142687
2.1607e-06
-0.000138943
1.86512e-06
-0.000134127
3.32383e-07
-0.000131896
-1.34124e-06
-0.000131214
-1.98878e-06
-0.000131214
-2.30139e-06
-0.000131469
-2.53262e-06
-0.000135485
-2.56e-06
-0.000141466
-9.25395e-07
-0.000143862
1.13171e-06
-0.000144263
1.86766e-06
-0.000144339
2.03961e-06
-0.000143819
1.95588e-06
-0.000139779
1.62116e-06
-0.000133567
-2.44709e-07
-0.000130325
-2.85727e-06
-0.000129074
-4.42959e-06
-0.000128976
-5.04869e-06
-0.000129276
-5.62803e-06
-0.000132423
-5.87955e-06
-0.000137263
-4.91269e-06
-0.000139942
-3.40545e-06
-0.000141066
-2.63437e-06
-0.000141274
-2.47469e-06
-0.000140744
-2.34734e-06
-0.00013771
-3.65551e-06
-0.00013194
-5.48818e-06
-0.000126946
-8.63611e-06
-0.000124577
-1.17091e-05
-0.000124714
-1.34251e-05
-0.000127002
-1.51692e-05
-0.000131792
-1.50881e-05
-0.000134562
-1.60903e-05
-0.000136281
-1.67556e-05
-0.000130165
-2.02151e-05
5.63422e-05
-0.000135192
1.60211e-06
-0.00013522
1.83466e-06
-0.000135117
1.81649e-06
-0.000134931
1.76649e-06
-0.000134273
1.68416e-06
-0.000132387
1.55564e-06
-0.000131354
1.29971e-06
-0.000131018
1.16829e-06
-0.000130877
1.07441e-06
-0.000130987
9.33544e-07
-0.000133317
1.00143e-06
-0.000135729
1.43984e-06
-0.000136463
1.78468e-06
-0.000136623
1.89073e-06
-0.000136578
1.86889e-06
-0.000136466
1.83346e-06
-0.000135998
1.74772e-06
-0.00013378
1.62453e-06
-0.000132215
1.29127e-06
-0.000131745
1.05426e-06
-0.000131619
9.60266e-07
-0.000131638
8.11311e-07
-0.000133809
8.13724e-07
-0.000136874
1.31053e-06
-0.000137845
1.83882e-06
-0.000138032
1.97976e-06
-0.000138034
1.97765e-06
-0.000137946
1.90048e-06
-0.000137378
1.80307e-06
-0.000134741
1.63252e-06
-0.00013291
1.12285e-06
-0.000132342
8.05921e-07
-0.000132192
6.86499e-07
-0.000132198
5.43749e-07
-0.000134169
5.13193e-07
-0.000138042
1.09197e-06
-0.000139398
1.92967e-06
-0.00013961
2.13287e-06
-0.000139616
2.14652e-06
-0.000139558
2.04088e-06
-0.000138751
1.92583e-06
-0.000135352
1.59211e-06
-0.000133181
7.83055e-07
-0.000132583
3.02928e-07
-0.000132416
6.27316e-08
-0.000132438
-3.62737e-08
-0.000134161
-9.5407e-08
-0.00013885
5.54979e-07
-0.000140918
1.82908e-06
-0.000141246
2.29543e-06
-0.000141282
2.38504e-06
-0.000141267
2.24007e-06
-0.000140116
2.10339e-06
-0.000135986
1.51735e-06
-0.000133335
2.30593e-07
-0.000132385
-5.50129e-07
-0.000132061
-8.38984e-07
-0.000132073
-8.80152e-07
-0.000133279
-1.00461e-06
-0.000138593
-4.43428e-07
-0.000142
1.36352e-06
-0.000142922
2.43091e-06
-0.0001431
2.53882e-06
-0.000143114
2.42474e-06
-0.000142007
2.33364e-06
-0.000136718
1.73033e-06
-0.000132547
-4.28772e-07
-0.000131131
-1.88703e-06
-0.000130726
-2.54502e-06
-0.000130743
-2.79919e-06
-0.000131224
-2.92303e-06
-0.000136148
-2.71283e-06
-0.000141389
-7.59434e-07
-0.000143185
1.26248e-06
-0.000143595
1.9752e-06
-0.000143731
1.9717e-06
-0.00014328
1.68427e-06
-0.000138691
1.16829e-06
-0.000132605
-7.86484e-07
-0.000129629
-3.55065e-06
-0.000128568
-5.14661e-06
-0.000128518
-5.87143e-06
-0.000128951
-6.35564e-06
-0.000132449
-6.39777e-06
-0.000136687
-5.26924e-06
-0.000138968
-4.02876e-06
-0.00014002
-3.52691e-06
-0.000140214