/*--------------------------------*- C++ -*----------------------------------*\
  =========                 |
  \\      /  F ield         | OpenFOAM: The Open Source CFD Toolbox
   \\    /   O peration     | Website:  https://openfoam.org
    \\  /    A nd           | Version:  12
     \\/     M anipulation  |
\*---------------------------------------------------------------------------*/
FoamFile
{
    format      ascii;
    class       surfaceScalarField;
    location    "3.14";
    object      phi;
}
// * * * * * * * * * * * * * * * * * * * * * * * * * * * * * * * * * * * * * //

dimensions      [1 0 -1 0 0 0 0];

internalField   nonuniform List<scalar> 
33852
(
0.000251329
2.24281e-05
-0.000273757
-0.000246121
1.32441e-05
0.000232877
-0.000174972
-7.09776e-05
0.000247506
0.000304053
-0.000163969
-0.000140085
0.000290589
-4.30343e-05
-0.000250116
2.72441e-05
-0.000260681
0.000233437
0.000315135
1.47301e-05
-0.000330409
0.000304277
-9.59564e-05
-0.000208321
0.000286413
-3.50841e-05
0.000202175
1.84885e-06
-0.000202981
0.000289471
-0.000366548
7.70343e-05
0.0003605
-4.5656e-05
-4.39602e-05
0.000263285
-0.000219325
-4.39283e-05
0.000318107
-0.000274141
6.05237e-05
-0.000235095
0.000252057
1.2236e-05
-0.000264293
0.000264853
-1.2796e-05
-0.000278433
3.23121e-05
0.000340674
-5.12131e-05
0.000158593
0.000112308
-0.000270901
-2.43097e-05
0.000303339
-0.000278924
0.000271377
-0.000276165
4.78802e-06
-1.76034e-05
0.000273903
-0.000257151
-0.000223857
1.4787e-05
0.000207886
-0.000154258
-0.000183556
0.000337798
-0.000143753
-6.83739e-05
0.000212041
3.72401e-05
0.000267037
-6.07742e-05
-0.000261705
0.000322456
-0.000216862
2.03352e-06
0.000215192
-0.000206265
-1.89171e-05
0.000142045
0.000137388
-0.000279433
0.000341254
1.92452e-05
0.000142618
0.000128347
-0.000270965
-0.000101136
0.000259729
-0.000250489
-3.78001e-06
0.000254269
0.000330746
-5.95936e-05
-0.000271255
-0.000357022
0.000203631
-0.000227315
0.000208913
0.000231645
3.32081e-05
-5.65602e-06
0.000237301
-8.06541e-06
0.000210418
-0.000232625
0.000259869
0.000315443
-5.70417e-05
-0.000258338
-0.000309093
5.51042e-05
0.000253989
0.000238678
-0.000299487
0.000273589
-0.000306321
3.27321e-05
-0.000180237
-5.49362e-05
0.000235173
0.000272133
-0.000272133
0.000148429
-0.000297473
0.000149045
-0.000213961
0.000219525
-7.16069e-06
-0.000268241
0.000237301
3.09401e-05
-0.000198927
0.00024447
-4.73996e-05
-9.16164e-05
-0.000217477
-0.00011458
-0.000252082
-0.000280169
0.000266113
1.40561e-05
0.000329369
1.19355e-05
-0.000250433
7.01963e-05
0.000117908
0.000145909
-0.000263817
1.34681e-05
-0.000267457
0.000253989
-0.000134569
0.000282997
-0.000152233
-5.06129e-05
0.000202321
-0.000274681
0.000245113
2.95681e-05
0.000237553
-0.000268437
3.08841e-05
-0.00018907
-2.42348e-05
0.000151665
0.000115565
-0.00026723
-0.000193633
-2.88474e-05
0.000218264
0.000263985
2.24281e-05
0.000275941
-2.35201e-06
0.000265329
-0.000250741
-1.45881e-05
0.000224924
-6.38569e-05
-0.000161713
-1.82001e-06
0.000239373
0.000366781
-0.000312262
-5.38828e-05
-2.82015e-05
0.000303943
-0.000275691
-0.000101584
0.000219493
0.00034309
2.41152e-05
-0.000372765
0.000355336
1.84476e-05
-0.000217071
2.27226e-05
0.000309219
-0.0003214
1.2333e-05
-0.000207783
0.000270065
-6.44546e-05
-4.45202e-06
1.71798e-05
-0.000320094
0.000302919
0.000233445
-0.000200124
-3.53403e-05
0.000268935
-0.000339747
7.00283e-05
0.000331879
-6.32805e-05
-0.000268941
0.000236573
3.23681e-05
-0.000129388
-0.000132609
0.000261997
-1.86761e-05
-0.000249565
-1.022e-05
-0.000258721
2.33457e-05
0.000210136
-0.000232635
3.13047e-05
-0.00022234
0.000190934
-2.52634e-05
0.000329124
-0.000305361
-0.000279329
0.000273701
5.62802e-06
0.000156129
-0.000296857
0.000140729
-6.06117e-05
-0.000152099
0.000211203
0.000143277
0.0001218
-0.000265077
-0.000250152
0.000225823
-0.000216492
0.000155542
-0.000168813
0.000327181
-0.000158369
0.000185389
7.16523e-05
-0.000257041
0.000255193
2.07481e-05
-0.000192277
0.000148317
5.03089e-05
0.000265471
0.000307712
-0.000290625
9.06572e-05
-0.00023606
0.000135241
0.000117096
-0.000281065
-1.51942e-06
0.00024426
-0.000243626
0.000166489
0.000122836
-0.000289325
0.000142419
8.88742e-05
-3.92002e-06
0.000259113
0.000304058
5.39392e-06
-0.000323853
0.000314818
8.98197e-06
-3.99002e-05
0.000236293
-0.000196393
4.08802e-06
-0.000284257
-2.50168e-05
0.000166869
-0.000139788
-0.000159964
0.000135709
0.000210418
-0.000178383
-0.000269921
0.000264965
4.95602e-06
2.64041e-05
0.000174721
-0.000201125
2.87841e-05
-0.000257265
0.000228481
0.000276137
-0.000262669
0.000115108
0.000212073
0.000214658
-0.000190424
-0.000175813
0.000202217
1.37023e-05
0.000282486
-0.000296623
0.000268738
2.1716e-05
0.000272768
-0.000284326
1.25229e-05
3.86402e-06
0.000267513
-1.82719e-05
0.000291384
0.000330655
1.00243e-05
0.000213804
-0.000257672
0.00031637
-0.000316058
-6.63603e-06
-0.000272693
2.78242e-05
0.000197034
0.000187993
3.98722e-05
-0.000227865
-5.52897e-05
0.000219232
-0.00016399
0.000153609
-0.000270285
0.000116676
0.000279441
-0.000329701
5.02602e-05
-6.38122e-05
0.000249201
-0.000166909
0.000315897
-0.000148989
-0.000313889
-1.00481e-05
-0.000214929
0.000175029
2.78601e-05
-0.000278349
0.000276221
-1.88441e-05
-0.000248613
1.73114e-05
-0.000303218
0.000285915
0.000344989
-0.000158593
-0.000186397
-1.68691e-05
-0.000240756
0.000257525
-0.000266617
-3.30401e-06
0.000224001
2.45841e-05
-0.000248585
0.000284509
-0.000128381
0.000140197
0.000138853
-0.000279049
-0.000202099
-1.10995e-05
0.000258169
-0.000115551
0.000225674
-0.000242537
-6.38122e-05
0.000251805
-0.000210406
0.000249481
-5.60002e-07
-0.000248921
0.000255109
-0.000237441
-0.000326979
0.00030037
-3.08841e-05
0.000203169
-0.000172285
0.000291187
1.19781e-06
-0.000292454
7.75893e-05
0.00013338
-0.000211511
4.58897e-05
-0.000198963
-0.000288372
-4.60184e-06
0.000294119
-1.61826e-06
-0.000286354
0.000146973
-0.000273925
0.000126952
-0.000263731
0.000220073
-0.000294069
0.000266138
0.000279441
-0.000312661
-1.23972e-05
0.000325132
0.000109964
0.000159886
-2.13785e-05
0.000352037
0.000140141
0.000139833
-0.000279973
0.000245029
-0.000250349
5.32002e-06
-0.000210953
0.000180069
0.000279133
-5.43202e-06
0.000350722
-3.26208e-05
-0.000301767
0.000307943
-1.83835e-06
0.000270985
-0.000270985
-0.000364626
0.000225925
0.000138808
-0.000203624
1.96471e-05
1.68631e-05
0.000275157
-0.000278461
3.30401e-06
-5.0696e-06
0.000170244
-0.00016528
-0.000197345
0.000254801
-5.74562e-05
-0.000205706
4.86339e-06
-0.000237927
0.00015803
8.02073e-05
-0.000180264
0.000261402
-8.11387e-05
0.000256285
-0.000287113
3.08281e-05
-0.000249229
5.18842e-05
-2.35441e-05
0.000275899
-0.00025266
-0.000253547
1.35801e-06
0.000252189
0.000231281
-7.28003e-06
-0.000294176
7.62628e-06
0.000286747
-0.000266085
0.000266085
-0.000284818
-5.52139e-05
-0.000170536
-0.000194048
-0.000172532
0.000213736
-4.46839e-05
-1.232e-05
-0.000239177
0.000251497
3.10801e-06
0.000210113
-0.000213221
-0.000186577
-2.30118e-05
0.00021091
7.6223e-06
0.000294571
-0.000302082
-0.000236153
-1.34401e-05
0.000249593
1.50361e-05
-0.000251189
-0.000241025
0.000256061
-0.000301257
0.000308969
0.000256117
7.16803e-06
-0.000166361
-3.16951e-05
0.000201178
-0.000145237
-0.000134765
-0.000244329
0.000240549
0.000298782
-4.78839e-07
-0.000298343
-0.000298837
6.26234e-07
0.000298257
1.9274e-05
0.000181217
0.000163773
7.70044e-05
-0.000257269
-0.000159242
0.000310908
0.000250721
-0.000108677
-0.000235145
-1.83681e-05
0.000253513
-0.000204603
-0.000126917
0.000331474
-6.10402e-06
-0.000229125
0.000235229
-2.15252e-05
-0.000182183
-0.000285877
-8.52063e-05
6.2684e-06
-0.000300369
-0.000212687
0.00032816
-0.000115158
0.000281597
0.000288205
-5.16322e-05
0.000271993
-1.57081e-05
-0.000186815
-1.38672e-05
0.000200139
0.00029777
3.76969e-07
-0.000298014
-0.000269487
-3.26985e-05
-0.000218821
0.000247605
-2.52423e-05
0.000310541
-0.000285307
0.000176925
7.74533e-06
-0.000186647
-3.35636e-05
0.00021058
-0.000301233
0.000275974
0.000292679
5.76659e-06
-0.000298283
0.000157445
0.00011886
-0.000276305
0.000289266
3.97831e-06
-0.000294103
-0.000242157
0.000115692
0.000126792
-0.000281753
0.000295497
0.000302513
-0.000156857
-0.000145657
0.000207005
-0.000203897
-0.000232009
-0.000121156
-0.000155009
-4.08373e-06
-0.000294094
0.000298157
-1.0136e-05
0.000276249
0.000290307
-1.99611e-05
-0.000270219
-0.000262925
2.91465e-05
0.00023386
0.000271433
-0.000267569
0.000249621
2.95121e-05
0.000315043
-9.75297e-06
-0.000305276
5.05642e-05
0.000159293
-0.000207208
-0.000100648
0.000198423
-9.68074e-05
0.000252617
-2.91201e-05
-0.000223497
8.41173e-07
0.000291793
-0.000176206
-3.14131e-05
0.00020937
-2.07501e-06
0.000290613
-9.33244e-05
0.000246933
-0.000255417
-5.26402e-06
0.000121184
0.000181329
1.34121e-05
0.000241557
-0.000254969
0.000236097
1.34961e-05
-0.000249593
0.000249509
-0.000242929
0.000256425
6.29364e-05
-0.000202157
0.000137899
-0.000214621
0.000115649
-0.000200122
0.000297252
1.43895e-06
-0.000298677
0.000253849
2.22881e-05
0.000268493
-0.000216441
-5.20522e-05
0.000225518
-0.000246849
2.13305e-05
0.000257909
1.40841e-05
5.90726e-05
0.000296657
0.000267186
-3.89594e-05
-0.000228226
0.00017282
1.274e-05
0.000240297
-0.000253037
0.000194561
-0.000115567
-8.06075e-05
-0.000205522
2.16972e-05
-1.27207e-06
-0.000297972
0.000299124
0.000224293
-0.00017045
-5.37254e-05
0.000344737
-4.13094e-05
0.000275969
-0.000135829
2.31561e-05
0.000238337
-0.000261493
-0.000231141
0.000254297
-2.66799e-05
-0.000229714
0.000256409
0.000156466
-0.000161713
-7.60736e-05
-0.000166499
-0.000261723
4.14346e-05
0.000220288
-3.17521e-05
-0.00022997
6.65794e-06
0.000261717
-3.25193e-05
-0.000229198
1.67255e-05
0.000124745
-0.000194153
0.000308785
-0.000171397
0.000262319
-3.57923e-05
-0.000226526
-0.000319746
0.000175685
-0.000102432
-0.000228453
-6.90203e-05
-1.37065e-06
-0.000297552
0.000298524
-2.79874e-05
0.000182145
-0.000153999
0.000308184
6.85932e-06
0.000250097
-0.000248249
-1.84801e-06
-0.000177786
6.19959e-05
0.000260251
-3.07098e-05
-0.000229533
0.000197345
-0.000250769
5.34242e-05
0.000254205
-0.000231206
-2.29992e-05
-0.000252337
0.000240017
0.000143414
0.000100644
-0.000101864
-0.000170269
0.000132496
-0.000261885
-0.000290249
0.000242201
4.80483e-05
0.000216808
3.1248e-05
-0.000248056
-0.000236496
-9.14003e-06
0.000248658
0.000326865
-2.3115e-05
0.000263996
-3.42721e-05
-0.000229724
0.000144786
-0.000235881
9.31049e-05
3.63259e-05
-0.000265637
0.000229311
-0.000253905
0.000121296
0.000249817
-5.24722e-05
0.000294673
-0.000154253
-0.000140421
0.000122248
-0.000289157
1.53441e-05
0.000237665
-0.000253009
-0.000262031
3.54705e-05
0.00022656
-2.73221e-06
-3.77917e-05
-0.000224239
0.000248505
-0.000272373
-0.000264649
3.44737e-05
0.000230175
0.000193257
0.000101416
-0.000149941
0.000290137
-0.000167163
-3.80498e-05
0.000209099
-1.81721e-05
0.000263201
-0.00029339
0.000310635
0.000117486
0.000103637
0.000261325
-0.000261325
0.000307157
-1.94827e-05
-0.000289529
5.32002e-07
0.000248949
0.000254857
1.65761e-05
0.000309701
-0.000275917
-3.31729e-05
-2.26336e-05
0.000266577
-0.000243943
3.00077e-05
-0.000260519
0.000230511
-0.000252139
0.000229506
0.00032671
3.11501e-05
-0.000260598
0.000229447
0.000276809
-3.16961e-05
-7.49199e-06
-0.000293133
0.00029882
0.000270934
3.90495e-05
0.000230245
-0.000266617
3.63721e-05
0.000201565
-0.000202243
-0.000258301
0.000238533
1.97681e-05
0.000169762
-0.000257245
8.74835e-05
-0.000206979
0.000163241
-0.000249145
8.59043e-05
-0.000266169
0.000224813
4.13562e-05
0.000253073
-2.78797e-05
-0.000225194
0.000175554
4.27575e-05
-0.000234837
-2.29601e-05
0.000257797
-0.000236377
-2.28761e-05
0.000259253
-1.94265e-05
0.000255969
-0.000236542
-0.000259345
0.000239919
-3.42256e-05
0.000179813
-0.000235929
-2.24001e-05
0.000258329
-0.00025484
0.000229192
2.56481e-05
2.94001e-06
0.000211289
-0.000214229
-0.000267031
3.79849e-05
0.000229046
0.000270677
4.48002e-06
4.1598e-05
0.000162636
-0.000205314
-3.31197e-05
0.000249928
-2.08563e-05
0.000218597
9.73004e-05
0.000248198
-0.000216951
0.000277264
-0.000278315
0.000277309
-0.00028083
-1.84997e-05
0.000258601
-0.000240101
-0.000261644
0.000243145
3.06593e-05
-0.000205228
-2.92611e-05
-0.000207645
0.000236779
0.000314394
-0.000287783
-2.74121e-05
0.000261297
-3.11081e-05
-0.000230189
3.28739e-05
-0.000262362
0.000229488
-0.000229853
0.000259645
-2.97921e-05
0.000325869
-1.77019e-05
0.000145254
-0.000210791
0.000256929
-0.000109956
-0.000285785
0.000286966
0.000241977
-6.41202e-06
-0.000235565
0.000228537
-0.000181716
-3.75821e-05
0.000218664
2.9152e-05
-0.000210369
-0.000239989
0.000260317
-2.03281e-05
-0.000103472
0.000191476
-8.60099e-05
3.06524e-05
-0.000197738
0.000240169
-0.000263424
2.32552e-05
-0.000115584
0.000258861
-0.000243993
0.000265721
-2.17281e-05
-0.000238953
0.000232541
0.000258626
-0.000245105
-1.35213e-05
0.000264349
-2.46681e-05
-0.000246317
-0.000272592
-1.0478e-05
0.000297586
-5.3535e-05
-9.53979e-06
0.000290736
-0.000280931
-0.000168047
0.000209823
0.000232212
1.77004e-05
-0.000248026
0.000328849
-0.000328905
0.000260955
-0.000245018
-1.59377e-05
-0.000302129
-8.0061e-07
0.00030462
9.56266e-06
3.71135e-05
0.0001681
-0.000211321
0.000215413
-3.53007e-05
-0.000180301
0.000278054
-0.000255789
-2.22648e-05
-0.000206034
3.05772e-05
3.15421e-05
-0.000261891
0.000230348
0.000284977
-0.000292225
2.44721e-05
-0.000259617
-0.000257965
1.87881e-05
0.000266057
-1.64361e-05
0.000151173
-0.000267625
0.000116452
0.000299021
-4.43309e-06
0.000238617
-7.53763e-05
2.12521e-05
0.000177045
-0.000198297
-0.000183877
0.000205129
-0.000236275
0.000257219
-2.09441e-05
0.000261462
-3.31689e-05
-0.000228293
-0.000197009
-5.21362e-05
0.000251581
-1.48401e-06
8.06721e-06
-0.000264817
0.000257114
-0.000344486
0.00023656
0.000106538
0.000266371
-0.000236811
-2.95597e-05
0.000306764
-0.000314649
7.85432e-06
-2.57041e-05
-0.000229097
0.000254801
0.000261493
-7.64403e-06
9.82514e-06
-0.000210082
0.000262411
-3.19033e-05
-0.000230508
-6.90483e-05
-0.000260653
-0.000194685
0.000248025
-5.33402e-05
-0.000266533
0.000249985
1.65481e-05
-0.000317921
1.67195e-05
-1.72333e-05
0.000296977
-0.000279917
-0.000276221
1.65481e-05
0.000249537
-0.000165387
6.43282e-05
0.000273595
1.48497e-05
-0.000288433
-0.000316117
0.000307842
8.15329e-06
3.46641e-05
-0.000263649
0.000228985
-1.74378e-05
0.000281331
-0.000315163
1.6376e-05
-0.000176541
-7.42283e-05
-0.000234884
0.000204764
-2.16721e-05
-0.000216469
0.000238141
-0.00031476
0.000295837
1.88539e-05
-0.000133054
0.000273939
-0.000141767
-8.4222e-06
3.31521e-05
-0.000263453
0.000230301
-0.000197595
2.42622e-05
0.00017322
0.000221536
0.000281343
-0.000281369
2.41057e-07
-0.000236993
-2.20921e-05
0.000224813
-0.000202721
0.000139273
0.000143753
-0.000278517
0.000198165
-5.60927e-05
0.00030833
-1.06049e-05
0.000209529
-0.000268983
2.92853e-05
0.00022306
-0.000252345
-0.000322226
0.000138195
0.000296586
2.92374e-05
1.93859e-05
-0.000224355
-2.77845e-05
-0.000136468
-0.000133004
-0.000326532
0.000113876
0.000242873
2.56201e-05
0.000218765
-0.000224869
1.0926e-05
-0.000287788
0.000277193
-0.000242643
0.000270847
-2.71668e-05
0.000281419
-0.000281826
0.0002885
-7.70803e-05
-8.86458e-06
0.000290339
-1.87881e-05
0.000247101
-0.000228313
0.00028139
-0.000290199
-5.56456e-06
-0.000283872
0.000289488
0.000282076
-0.000269556
0.000284399
0.000226314
2.67597e-05
-0.000311803
0.000317268
-7.95259e-06
0.000252929
-2.09894e-05
0.000227503
2.40505e-05
-0.000268913
0.000246057
-2.05381e-05
-0.000259401
3.02849e-05
0.000229116
0.000178305
7.64963e-05
1.00576e-05
0.000281121
-0.000289967
-0.000238141
-2.88401e-05
0.000266981
2.51441e-05
-0.000263285
0.000284117
-0.000162317
-0.000232177
0.000261129
-2.89521e-05
-0.000234697
0.000260709
-2.60121e-05
1.41813e-06
0.000279934
2.45001e-05
-0.000259197
2.38001e-05
-0.000255977
0.000274268
-0.000242859
-3.13939e-05
0.000317699
-9.96256e-06
-0.000307658
-2.55091e-06
-0.000255753
1.1816e-05
0.000243937
-1.71034e-05
-0.000261185
0.000228066
-0.000245337
0.000270145
-2.48081e-05
-0.000263229
1.49801e-05
-2.35964e-05
0.000285964
-0.000262387
2.13641e-05
-0.000266701
-0.000241671
-2.13097e-05
3.26466e-05
-9.0432e-05
0.000260194
0.000280858
-0.000286461
5.05122e-05
0.000237693
0.000282312
-0.000281803
-0.000243181
-2.39401e-05
0.000267121
-0.000260894
7.34723e-06
-0.000295138
1.9309e-05
0.00027572
-0.000268717
2.55361e-05
-8.49466e-06
0.00029062
-0.000268326
0.000243549
2.47772e-05
-0.000232513
0.000210841
0.000280329
-0.000289064
-6.16002e-07
0.000260289
-0.000259673
-0.000301756
-1.6101e-05
-0.000264573
2.35481e-05
-0.00024417
-2.41555e-05
-3.43281e-05
-0.00029803
0.000293946
0.000286674
-0.000158327
0.000295269
-0.000289363
2.30152e-05
4.9266e-06
0.00026235
-0.000255032
-7.23258e-06
0.000307569
-2.01987e-05
-0.000287319
5.93099e-05
-0.000246765
-2.19521e-05
-0.000356571
0.000241891
0.000285767
-0.000280515
2.33801e-05
-0.000190013
-1.61654e-05
-0.000306466
2.55895e-05
0.000280891
-0.000197208
0.000310559
-0.000113934
0.000259841
-0.000238533
-2.13081e-05
-0.000291697
2.94001e-05
0.000222097
-0.000251497
-0.00016453
0.000138172
-0.00016575
0.000251441
-0.000238029
-1.34121e-05
-0.000263873
3.40201e-05
-2.23161e-05
-0.000269837
0.000251469
0.000230427
3.12901e-05
-4.74157e-05
0.000206925
0.000232619
-0.000260499
-1.74094e-05
-3.73522e-06
0.000245442
-0.000240348
-0.000293213
-0.000237049
0.000265189
-2.81401e-05
0.000230096
3.22225e-05
-0.000268521
2.55921e-05
-0.000239905
-2.86161e-05
0.000228954
-0.000260706
-0.000282366
4.73202e-05
-0.000242005
0.000294622
-0.000284204
-0.000288942
1.33731e-05
0.000275218
-4.29047e-06
0.000219208
0.000228551
-0.00026107
0.000296885
-0.0001309
-0.000165985
0.000241094
-0.000261666
0.000269989
-0.000226213
-1.76681e-05
-0.000165319
0.000307313
-0.000142483
2.49649e-05
0.000222662
-0.000247627
-0.00019351
0.000194865
-0.000283746
0.000282246
6.95038e-06
-0.000290973
-0.000302485
0.000146693
0.000155793
0.000259995
-0.000239359
-2.06361e-05
-0.000215741
0.000193649
0.000261776
4.61844e-07
0.000257293
0.000232526
2.16796e-05
-0.000295463
-6.11257e-05
1.0286e-05
0.000231697
-0.000250318
1.74451e-05
-0.000230917
-2.37161e-05
0.000254633
-0.000242295
0.000263191
-2.08965e-05
8.27597e-05
0.00013375
2.02849e-05
-0.0003058
0.000285496
0.000256565
-1.80041e-05
-0.000238561
0.000243881
-0.000254017
1.0136e-05
-0.000226745
0.000207957
0.000223131
-0.000258923
-0.000244693
4.76842e-05
1.59121e-05
-0.000137761
-0.000218792
1.57921e-05
0.000245701
0.000280411
0.000293173
0.000305935
1.71937e-06
0.000249817
-0.000220417
2.51749e-05
0.000225009
-0.000250184
-0.000243178
0.000268865
-2.56873e-05
2.28201e-05
-0.000262725
-0.000113483
0.000295353
9.18313e-06
2.08181e-05
0.000261675
-0.000235103
-2.65721e-05
1.32085e-05
-0.000303838
0.000290765
0.000321745
-3.09693e-05
-0.000290727
0.000249733
1.63241e-05
0.000306321
-0.000292924
-0.000231859
-0.000112979
9.63204e-06
0.000250657
-4.9129e-05
-0.00020239
0.000251519
2.20333e-05
0.000246832
-0.000241686
-2.29629e-05
0.000260737
-2.24001e-05
0.000287674
-0.000268023
2.63369e-05
2.68241e-05
-0.000257965
0.000210617
-0.000207677
2.58161e-05
-0.000262865
0.000280458
0.000121744
-0.000256173
0.000134429
1.95002e-05
3.81365e-05
0.000159278
-0.000197458
-0.000239485
-2.85377e-05
4.00056e-05
0.000164078
-0.000204836
-0.000246691
0.000271066
-2.43747e-05
0.000209866
-0.000248826
1.98857e-05
1.73489e-05
-0.00017505
-3.06354e-05
0.000226704
-0.000257415
-2.88401e-05
0.000244245
-0.000215405
-2.16161e-05
0.000242985
-0.000221369
0.000201657
-0.000250786
-0.000273532
-0.000232905
-2.55081e-05
0.000258413
0.000241234
2.98318e-05
-0.00021111
-2.39936e-05
0.000232714
-2.18821e-05
-0.000224967
-0.000239345
6.28042e-05
0.000259004
-0.000229718
4.75106e-05
-0.000249901
-3.43393e-05
0.000257694
-0.000223354
0.000205675
-0.000240014
0.000261689
-1.1956e-05
-6.06763e-05
-0.000229572
-0.000221813
-1.73415e-05
0.000242392
0.000247109
5.3175e-05
0.000212448
-0.000265623
-0.000261099
0.000177353
-0.000231757
5.44042e-05
6.36219e-05
0.00013484
0.000259457
-0.000240915
-2.47224e-05
-0.000265385
0.000227165
3.82201e-05
-2.87813e-05
-0.000222158
0.00025094
-0.000284749
0.000264161
0.000234501
3.61761e-05
2.18821e-05
0.000234087
-0.000307217
0.000151089
0.000156129
0.00016509
-5.18397e-05
0.000254045
-0.000115192
2.56901e-05
0.000217446
-0.000243136
-0.000286185
0.000286365
9.13472e-06
0.000257377
-0.000245953
0.000208937
3.70161e-05
0.000254832
0.000246186
-1.97056e-05
-0.000246815
-2.02161e-05
-0.000263019
2.0724e-05
-0.000269215
2.24001e-05
2.79601e-05
0.000220024
-0.000247984
0.000242481
-0.000274597
1.32721e-05
0.000243944
-1.41338e-05
1.34405e-05
-0.000247022
-0.000328669
0.000124013
-0.000233135
-2.62109e-05
-0.000252113
0.000252113
0.000259782
-0.000144217
-1.84999e-05
-0.000278179
0.000296866
0.000276186
0.000258749
-0.000135913
0.000224113
2.39205e-05
0.00023468
7.77652e-05
-0.000340264
3.75443e-05
0.000258962
1.76363e-05
-0.000248843
-3.00917e-05
0.000207453
-3.01001e-05
0.000259701
2.95429e-05
0.000218353
-0.000247896
-3.05014e-05
-4.09782e-05
-0.000217818
0.000258797
-0.000233423
-2.14173e-05
3.73416e-05
-0.000195899
0.000159162
-3.30877e-05
0.000221671
-0.000255943
-0.000282195
-8.33226e-06
0.000290242
-0.000189919
0.000161627
0.000166349
8.16763e-05
1.28219e-05
-0.000295058
0.000235075
2.59446e-05
-0.000261019
-0.000199213
-1.21264e-06
0.000232743
-0.000264287
3.15449e-05
-8.42803e-06
-0.000217029
0.000225457
-0.000160134
0.000197481
-0.000249985
-3.46025e-05
0.000256274
0.000218076
-0.000252679
-0.000246289
0.000272245
-2.59561e-05
0.000253547
2.78321e-05
-0.000232062
-2.95821e-05
-0.00029838
0.000316597
-1.82307e-05
2.34087e-05
0.000212462
-0.000250254
-0.000267233
2.09441e-05
-2.12801e-05
-0.000245953
-3.61481e-05
0.00024861
-0.000290092
-1.36602e-05
0.00022082
-0.000256968
0.000246891
-0.000248372
2.04605e-06
2.80002e-06
0.000181413
-0.000184213
0.000255294
0.000234529
2.67681e-05
-2.62361e-05
0.000245001
-0.000218765
3.36001e-05
0.000216609
-0.000250209
0.000244861
2.73841e-05
0.000306545
-0.000143949
-0.000162597
1.56694e-05
0.000235917
-0.000254083
0.000271013
-0.000113568
0.000225569
-0.000256677
-0.00024119
0.000104572
-0.000265469
7.16803e-06
-0.000241635
-2.75801e-05
-0.000241361
-2.48081e-05
0.000310619
-2.74079e-05
-7.67483e-05
0.000243097
-1.1452e-05
-0.000215601
0.000224281
-8.68003e-06
0.000255193
-7.68883e-05
3.44328e-05
-0.000194782
0.000161603
-0.000265245
-1.40001e-07
-4.14962e-05
3.93027e-05
0.000156011
-0.000195559
0.00019618
-0.000161426
0.000257041
-7.05603e-06
0.000251151
-0.000218277
-1.82278e-05
-2.1128e-05
0.000279623
-9.56517e-05
-0.000182562
-1.42801e-05
-0.000191913
0.000206193
0.000258665
-1.53553e-05
-0.00024331
1.98101e-05
0.000238855
-0.000279366
-7.90716e-06
3.65988e-05
-0.000193305
0.000155604
1.36921e-05
0.000247997
-0.000162498
0.00019829
-1.95189e-05
0.000248711
3.27649e-05
0.000188877
-0.000223198
-4.17202e-06
-2.49389e-05
0.000265108
-0.000231955
-3.14693e-05
0.000296917
-0.000281545
-1.52964e-05
1.63717e-05
-0.000237659
0.000221288
-0.00010514
0.000226885
1.92638e-05
-0.00030507
0.000285809
2.52001e-05
-2.79441e-05
2.69165e-05
0.000308773
-0.000289512
0.000238891
1.97345e-05
2.15601e-06
0.000231617
-0.000233773
-0.000310299
2.5627e-05
0.000284628
-0.000162177
-0.000144145
0.000209178
-0.000250156
-0.000165404
0.000241924
1.90317e-05
0.000257199
-4.13534e-05
0.000250531
0.000214498
-0.000255851
0.000318689
-0.000318877
-1.07314e-05
0.000287095
-0.000275867
-0.000303005
1.97381e-05
0.000283163
4.20842e-05
-0.000286413
-3.87019e-05
0.000252483
2.62921e-05
-2.21859e-05
0.000307375
-0.000285191
2.43321e-05
3.93992e-05
0.000162213
-0.0001995
0.000249294
-0.000219751
2.83277e-05
-0.000261633
4.36802e-06
-2.00503e-05
0.000306722
-0.000286817
-0.000250987
-0.000266673
3.07441e-05
0.000252141
-0.000236741
-1.54001e-05
1.2264e-05
0.000239877
-0.000276189
-1.26206e-05
0.000255697
-7.01387e-06
0.000314238
-1.18953e-05
0.000299478
-0.000287469
-4.74012e-05
0.000247437
-0.000235621
0.000257601
-1.99361e-05
0.000130766
8.52386e-05
-0.00021743
0.00022117
3.03493e-05
0.000226759
-0.000258662
3.71393e-05
0.000271875
-0.000288458
1.68655e-05
0.000251273
-0.000239093
-1.31321e-05
0.000252225
-2.91201e-05
-0.000257265
2.56481e-05
0.000231617
-0.000228005
-2.92601e-05
0.000259765
-0.000233571
-2.61941e-05
0.000258721
-0.000265873
2.4228e-06
0.00028835
1.28053e-06
-0.000289803
0.000247683
-0.000233378
-1.85921e-05
0.000308713
-0.000300784
-8.03058e-06
0.000244726
-9.96333e-05
-0.000266897
2.56761e-05
0.000241221
-3.48881e-05
-0.000232009
-0.000266393
2.51161e-05
0.000241277
-1.21542e-05
-0.000267351
0.000278765
-3.45241e-05
-0.000231869
-0.000261658
1.94216e-05
-0.000266281
2.43881e-05
0.000241893
-0.000284135
-2.15503e-05
-0.000306251
2.76467e-05
0.000278598
-3.34041e-05
-0.000232877
-0.000165903
-0.000258133
2.94001e-05
0.000228733
0.000308738
-0.000308726
-0.000195805
0.000209049
-3.29281e-05
-0.000225205
0.000197569
-0.000279447
8.16988e-05
0.000284028
2.23648e-05
-0.000301953
1.76961e-05
0.000285626
-0.000280871
-4.75384e-06
-0.000257125
0.000231617
2.55081e-05
0.000172332
2.88641e-05
-0.000200129
-0.000266953
2.81681e-05
0.000238785
-0.000227361
-2.97641e-05
-3.67361e-05
-0.000230217
0.000277258
0.000297416
1.91224e-05
-0.000276173
-3.1679e-05
0.000307522
-0.000258679
-1.09981e-05
0.000297507
-0.000287615
1.49906e-05
-0.000301922
0.000286897
-0.000230609
-0.000307559
0.000287462
0.000263005
-2.5565e-05
-0.000280692
1.36081e-05
0.000165898
0.000230516
1.85362e-05
-0.000250438
-0.00019525
0.000161999
0.000236738
1.31517e-05
-0.00024989
-0.00025833
2.66093e-05
0.000231721
-1.09228e-05
0.000247661
5.74002e-06
0.000246877
-3.19817e-05
-0.000226348
0.00029961
-0.000285774
-1.38391e-05
0.000228024
-0.000226666
0.000289877
0.000237685
1.98521e-05
-0.000257537
-1.24236e-05
0.000250108
0.000246636
1.50389e-05
-0.000305445
1.54048e-05
0.00024448
2.18905e-05
3.31268e-05
-0.000202066
-0.000287413
-1.77227e-05
-0.000182869
0.000295177
-0.000146511
0.000180491
-3.24836e-05
3.08067e-05
-0.000203895
0.000170319
-0.000164515
0.000259149
-0.000239236
-1.99137e-05
0.000261392
-0.000273059
-0.000240504
0.000233064
-2.18519e-05
0.000301116
-0.000279205
0.000307991
-0.000293034
0.000242117
1.77241e-05
-0.000224975
0.00024443
-1.94545e-05
1.61001e-05
-0.000241075
-7.00003e-06
0.000260989
-0.000297159
4.91789e-06
0.000292191
-0.000174497
0.000160217
-1.74105e-05
-6.31112e-06
-0.000290844
-1.67929e-05
-0.000285138
4.28402e-06
-0.000300476
0.000136052
-0.000257476
2.37498e-05
0.000233684
0.000238197
1.32441e-05
-3.08075e-05
-0.000226654
-3.31738e-05
-0.000293636
2.0464e-05
-0.000226795
0.000207099
0.000254969
-0.000233465
-2.15041e-05
-0.000198692
0.000221244
-0.000184905
-7.34254e-06
0.00020442
0.000136969
0.000141608
3.86279e-06
0.000269878
0.000279895
-0.000305445
3.21371e-06
0.000244853
-1.98591e-05
0.000298638
-0.000278901
-0.000302208
0.000287528
1.47731e-05
-0.000258301
0.000230077
2.82241e-05
-2.64041e-05
-0.000231897
0.000302724
-0.00030067
0.000267119
-2.00154e-05
0.000304481
-0.00028447
0.000286266
-7.45552e-07
-0.000256873
0.000256873
-0.000268194
0.000295832
-0.000147059
-6.75524e-05
-6.82386e-06
0.000294314
-0.000287428
-0.000297771
0.000290199
0.000292083
-0.000279303
0.000290459
-0.000305235
1.47012e-05
3.40823e-05
-0.000240251
0.000213378
2.33404e-05
-1.45183e-05
-0.000246063
0.000231527
-1.43364e-05
0.000298015
-0.000283752
0.000263481
-1.96001e-05
0.000254224
-0.000235464
-1.87601e-05
-3.09888e-05
-0.000273764
0.000304794
1.43327e-05
-0.000296985
0.000282642
-1.45881e-05
0.000233465
-0.000218877
0.000206192
-0.000295076
0.000283402
-1.9196e-05
0.000304659
-0.000285422
0.00025102
-2.68973e-05
0.000297438
-0.000270531
-0.000295883
0.000268956
1.07156e-05
0.000244749
-0.000255465
0.00030518
-0.000312061
6.86916e-06
1.79879e-05
1.51257e-05
0.000286562
-0.000301624
6.27763e-06
0.000282637
2.35916e-06
-0.000318442
-0.000290083
0.000304277
-0.000242481
0.000243657
8.45603e-06
-0.0002264
0.000242772
-0.000293382
0.000274188
0.000285112
-0.00014891
-8.32151e-05
0.00029439
1.4471e-05
3.09956e-05
-0.000192978
0.000163858
-0.000274538
0.000257293
-0.000219535
0.00024982
0.000243411
1.92865e-05
-0.000262697
0.000236019
2.31309e-05
-0.000301438
0.000283208
0.000312479
-1.79654e-05
0.000237945
-0.000257069
1.91241e-05
-0.000222494
0.000247459
0.000294436
1.80833e-05
-0.000162658
-1.44669e-05
0.000298237
-0.000283623
-0.000141351
-0.000266415
0.000159993
0.000106423
-0.000309082
0.000295366
1.3677e-05
-0.000258699
0.000241826
1.68729e-05
-0.000154802
0.000156856
-0.000306342
0.000288522
1.78156e-05
-0.000216096
0.000177463
-9.69084e-06
0.000253101
2.04675e-05
1.75387e-05
-0.00030422
0.000286638
-0.000300793
-7.23191e-06
0.000307844
-0.000249229
0.000220109
-0.000201153
-8.52603e-05
-0.000272762
0.000252948
0.000303828
-0.000286307
-0.000192366
1.82304e-05
1.50895e-05
0.000284526
-0.000299559
-8.80603e-05
0.000239233
-0.000303605
1.9467e-05
0.000284207
-0.000206829
-2.81612e-06
-0.000298043
-0.000165055
2.05297e-05
0.000302838
-0.000288447
-1.44132e-05
-0.000175373
-0.000299171
-0.000174086
-2.26178e-05
0.000243528
0.000289441
1.71434e-05
0.000252869
5.78492e-05
-0.000286158
-0.000247213
-0.00027067
-2.34845e-05
-0.000274664
0.000300279
-0.000263259
0.000282649
-0.000169194
-4.11832e-05
0.000211523
0.000197569
1.56521e-05
-0.000213221
-1.24673e-05
-0.000285623
0.000298312
1.83597e-05
1.84891e-05
-0.000305473
0.000286882
0.000253345
-1.71361e-05
-0.000236209
1.89541e-05
-0.000304853
0.00028603
2.03561e-05
0.000232989
0.000216385
-2.46121e-05
-0.000191773
1.56634e-05
0.000282514
-0.000298379
-0.000251448
0.00011749
-0.000303584
1.86335e-05
0.000285029
0.000224326
-5.18531e-05
-0.000297071
1.26071e-05
0.000281478
0.000255837
-2.19801e-05
-0.000233857
-0.000302846
0.000106218
0.000234529
1.70521e-05
-0.000251581
0.000280143
1.67588e-05
0.000304284
-0.000285221
1.76084e-05
-0.000299095
0.000233512
1.84916e-05
-0.000252004
-1.89349e-05
-1.43339e-05
0.000298443
-0.000284103
-0.000280294
0.00029997
-0.000278099
0.000291107
-0.0003035
1.2634e-05
0.000249741
-1.62291e-05
1.14194e-05
0.000250041
-1.55121e-05
0.000298711
-0.00028306