/*--------------------------------*- C++ -*----------------------------------*\
  =========                 |
  \\      /  F ield         | OpenFOAM: The Open Source CFD Toolbox
   \\    /   O peration     | Website:  https://openfoam.org
    \\  /    A nd           | Version:  12
     \\/     M anipulation  |
\*---------------------------------------------------------------------------*/
FoamFile
{
    format      ascii;
    class       volScalarField;
    location    "5.2";
    object      rho;
}
// * * * * * * * * * * * * * * * * * * * * * * * * * * * * * * * * * * * * * //

dimensions      [1 -3 0 0 0 0 0];

internalField   nonuniform List<scalar> 
45568
(
2.36579
1.47042
2.69067
1.66096
1.12659
1.45168
1.88974
1.40001
0.916341
1.81603
1.37071
2.41612
1.90188
1.40001
0.926494
0.594702
1.40001
1.40001
1.27079
1.80784
1.40001
2.69515
1.82137
1.40001
1.40001
1.452
1.40001
1.40001
0.579569
1.81893
1.19144
1.40001
1.38727
1.72126
1.6945
1.93256
1.13238
1.40001
1.80981
1.40001
1.40001
0.5842
1.40001
2.42023
1.40001
3.13191
0.584238
2.76933
1.70861
1.40001
2.31438
2.13443
1.40001
1.78643
2.27677
2.69375
2.52128
2.20353
1.85842
1.18221
1.40001
1.86521
1.40001
1.40001
2.15376
1.69209
1.40001
1.27881
1.89622
2.83821
1.0052
0.805537
2.32141
1.82234
2.5369
1.40001
1.40001
1.49469
1.17884
1.40001
1.95664
1.63352
0.794414
2.29901
1.97204
1.40003
2.29214
1.53121
1.89702
0.910861
1.83116
1.40001
1.97842
2.7956
1.40001
1.40001
2.82943
1.9818
1.28188
1.8287
1.06347
1.97573
2.87118
1.40001
1.40001
1.40001
1.40001
2.70111
1.40001
2.78043
1.40001
0.950536
1.72615
1.40001
2.79773
1.40001
1.40001
2.87034
2.1826
1.84393
1.40001
1.87925
2.69062
2.69082
1.40001
1.88224
2.42878
2.12228
2.53088
1.40001
2.3561
2.60349
2.42651
1.40001
0.581218
1.40001
1.40001
1.40001
1.97902
1.97496
1.40001
1.71959
1.79336
1.40001
0.597914
1.40001
1.40001
1.40001
1.40001
1.40001
1.58274
1.40001
0.671367
1.29379
0.659898
1.40001
1.40001
1.27426
0.572832
2.15961
0.567769
1.40001
2.23684
0.585149
1.02913
0.929376
1.9272
1.40001
2.19177
1.40001
0.590854
1.40001
1.54126
1.40001
2.19142
0.574939
0.573028
2.11662
2.30265
2.42208
2.18593
1.79004
0.587749
0.589204
1.50803
1.91287
1.40001
1.26629
1.86707
0.591256
0.594854
1.80073
1.86274
1.50392
1.94321
1.05932
0.588544
1.16457
0.984821
0.591428
1.83871
1.65176
2.69429
3.41134
3.16056
2.13778
1.89888
1.71566
1.20833
2.38365
1.26537
1.40001
2.07317
1.40001
2.69305
0.585494
0.587874
1.40001
1.82427
2.68909
1.90722
1.2575
1.96937
1.57731
2.24385
2.09452
0.583518
0.584592
1.40001
1.84115
0.881269
1.80674
0.711256
2.33905
1.72124
1.45395
0.937393
1.44128
1.40001
2.26072
0.549165
1.449
2.19149
1.40003
1.45697
1.32798
2.68373
1.46377
1.35855
1.33181
1.40001
1.34332
1.36414
2.41062
0.583171
1.34745
0.583209
0.584482
0.584377
1.34175
1.40001
1.3628
1.58264
1.40001
2.34177
1.36865
1.50213
1.67399
2.19834
0.583143
1.48141
0.584831
1.40001
2.28206
3.42829
1.97901
1.40001
1.63952
1.40001
1.40001
1.40001
3.60392
1.40001
0.963441
2.55385
1.80643
1.43244
1.54942
1.81923
1.43862
1.71159
2.54942
2.36379
1.80756
1.40001
1.40001
2.35954
1.83292
1.72724
1.71893
1.53715
2.00167
1.40001
2.68658
1.8037
1.19182
1.43782
2.47781
1.40001
1.75377
2.6811
1.40001
1.98798
0.919318
0.935659
2.02599
1.883
1.45975
0.735006
2.08778
2.69607
2.28786
2.69502
1.40001
1.40001
1.81077
1.86079
1.77254
1.81669
1.40001
1.40001
2.14983
0.680849
1.62873
1.40001
2.52658
3.58856
1.89161
2.29398
2.51342
3.60832
2.11062
2.69072
1.62334
1.40001
1.40001
1.40001
1.08064
1.40001
1.40171
2.0749
1.90718
1.40001
0.820875
1.83513
1.95752
1.21585
1.40001
1.90917
1.96055
3.47943
0.913497
1.65803
1.21948
1.22483
2.09626
1.40001
1.98179
1.21809
2.4285
2.43331
2.22256
1.77068
1.40001
1.74724
1.39269
1.40001
2.10548
1.94874
0.975052
2.04804
2.0315
1.40001
2.33637
0.576467
1.40001
1.84398
2.09847
1.40001
1.49702
1.89221
1.40001
1.12908
1.40001
0.584455
1.40001
2.5395
1.40001
1.40001
1.53003
1.40001
1.40001
2.07136
1.40001
1.40001
2.22337
1.40001
1.40001
1.7979
1.40001
1.40001
1.40001
2.24155
1.40001
0.92861
1.80671
1.40001
1.92918
1.79667
2.58026
1.9514
1.40001
1.40001
1.40001
0.92108
1.40001
2.61498
2.55857
2.28686
1.40001
2.86157
1.40001
1.40002
1.40001
1.40001
2.11357
1.19316
1.40001
1.40001
2.27348
0.581414
2.30157
1.40001
1.81767
1.49505
1.87913
1.40001
1.40001
2.64972
1.91839
1.36852
1.67933
1.4
0.969782
1.53203
1.40001
1.22632
2.43428
1.81911
1.84317
1.40001
1.40001
2.05045
1.40001
1.40001
1.39619
1.99175
0.817685
0.620005
0.609017
1.2571
1.5806
1.40001
0.921448
1.40001
2.38793
2.15637
2.30273
2.49129
1.73258
2.1102
1.16904
1.41782
1.41188
1.40001
2.11965
1.91531
1.40001
2.07477
2.28598
1.40001
1.40001
1.98842
1.40001
0.571248
1.59467
0.56735
1.40001
1.89887
1.83695
1.40001
1.66732
2.07599
1.40001
1.40001
1.79527
2.10553
2.25584
1.73986
1.40001
1.81121
1.23182
1.92645
1.40001
0.818426
1.40001
1.40001
0.572881
1.40001
1.40001
1.40001
1.40001
2.09367
1.69708
0.81689
1.40001
1.40001
0.971676
1.41791
1.40001
1.40001
2.68256
1.70485
2.71846
1.8203
1.40001
1.50193
0.590531
1.40001
1.50887
1.40001
2.06825
1.40001
1.83714
2.9849
1.40001
1.40001
0.980614
1.39652
1.40001
1.40001
1.40001
0.592433
0.594073
1.40001
3.50541
1.40001
1.40001
1.23258
1.40001
2.01626
0.578575
1.22821
1.64951
1.7469
1.40001
1.40001
1.80552
1.40001
1.40001
1.40001
0.996992
1.1989
1.40001
1.77777
1.23516
0.878628
2.49107
1.40001
0.606132
1.11019
1.9206
0.87923
1.34045
2.1174
1.80711
2.69942
1.43725
0.943735
1.16923
1.19596
1.40001
3.08571
1.37622
1.40001
2.3424
1.20293
1.96032
1.91053
2.27317
0.587457
0.801452
1.40001
1.40001
3.57607
0.583571
0.583501
2.30535
1.84337
2.33545
1.40001
1.67624
1.40001
0.910742
1.87123
1.96209
2.34035
1.57848
1.98869
1.40001
1.84553
1.40001
3.12027
2.16716
1.88838
2.5471
0.583315
1.40001
1.53539
2.01986
1.40001
2.01009
1.33461
1.78127
0.91786
2.6928
2.20471
1.82047
1.40001
1.8887
3.62806
1.32718
1.7843
0.5834
1.40001
3.24449
1.40001
2.67377
1.40001
1.40001
2.22228
2.20548
2.29914
1.40001
2.07417
1.37556
3.53577
1.95271
1.598
1.82623
0.817774
1.25275
1.97361
1.97055
1.80158
3.54983
1.9811
1.99417
1.33479
1.2194
1.40001
1.20076
1.01109
2.33094
1.56081
2.4028
0.958227
1.40001
3.26176
1.40001
1.83336
1.90642
2.02679
1.43626
3.64395
1.50236
1.40001
1.40001
2.8382
1.57922
0.583815
1.90452
2.28884
1.40001
2.34482
0.585087
1.49161
2.09278
1.31344
1.37784
2.41377
1.40001
1.40001
1.40001
1.72332
1.40001
1.81704
1.40001
1.40001
1.40001
1.40002
2.2665
1.58991
1.38089
1.40001
1.40001
1.22226
1.58094
3.69421
0.977449
1.95113
1.70281
1.40682
2.27669
2.25316
2.667
1.9446
1.27668
2.07433
1.40001
1.40001
1.95436
2.3004
1.81555
1.50953
1.42717
1.97287
1.84046
2.25439
1.96854
1.83657
1.45389
2.08073
1.98737
2.00414
1.40001
1.17666
1.47022
2.22087
1.465
2.207
2.71072
1.97795
1.95142
1.40001
2.67161
1.92093
1.40001
1.17574
1.6031
1.40001
1.76354
1.43171
2.72016
1.46395
1.40001
1.40001
1.52574
0.807511
1.91585
1.31598
1.42215
1.8415
2.15446
2.68789
2.04234
1.02904
0.954416
1.21799
2.10673
1.41979
1.11928
1.5541
1.86012
1.82118
1.92512
1.9686
3.11871
2.79191
1.89939
1.36253
3.0154
1.4824
1.26338
1.96725
2.27392
1.98525
1.98922
1.90531
1.41441
2.68359
2.51815
0.769188
2.19868
0.784307
2.33748
2.19332
1.69819
2.19808
1.6702
0.941447
1.43135
1.72116
2.08965
1.40001
0.959444
1.40001
1.55027
1.76346
2.04908
1.40001
1.50343
1.40001
3.45421
1.83143
2.68931
2.43526
2.74048
1.46811
1.42873
2.95278
1.58875
2.71729
2.84029
1.40001
1.21919
1.40001
2.7345
1.40001
1.40001
2.20401
1.51795
1.84066
2.25879
1.17302
1.90159
1.58265
1.33456
2.02612
2.2639
2.10074
1.40001
1.98591
2.1378
1.36231
1.11687
1.12532
1.40001
0.576819
1.82209
0.584289
2.74299
1.53312
1.40001
1.32556
1.47916
2.19098
2.07979
1.40001
1.33729
2.08372
1.33591
1.57807
2.13309
1.34019
1.71175
2.04932
2.20403
2.14827
2.10142
1.94045
2.00543
2.09581
1.3433
2.29225
1.37817
2.0536
2.12115
1.40001
1.40001
3.06273
1.40001
1.96254
3.54696
1.39335
1.33306
0.56829
1.46082
1.81231
0.572764
1.6895
1.88624
1.33026
2.43208
3.46565
1.34222
1.31951
1.32681
1.40001
1.09143
1.92867
1.32573
2.11843
1.7485
1.76372
1.33254
1.40001
1.3583
1.92344
2.04518
1.94265
1.3377
1.98863
1.13233
1.40001
1.36471
1.99241
1.98443
0.996494
1.46986
0.58119
0.580084
1.20322
1.33783
2.17366
1.27534
1.4084
1.98497
1.91518
1.20785
2.57631
1.40001
1.43987
1.00346
0.592267
1.47723
1.33503
1.94538
1.40001
1.40001
1.57291
1.40001
1.93414
1.8185
1.37254
0.592631
0.590296
3.64618
2.72336
1.40001
0.90863
2.08228
1.84413
1.11144
1.44171
1.42196
1.40001
2.07225
1.37992
1.79581
1.29493
1.40001
1.33308
1.37966
0.608642
1.30976
1.88952
1.40001
1.53882
1.4
1.40001
1.40001
1.39282
2.80861
1.46016
1.40001
1.40001
1.55545
1.39297
1.38766
2.01943
2.02892
1.82101
1.36927
1.37369
0.585008
1.40001
1.40001
2.08915
1.49668
0.592327
0.590496
1.39549
1.92233
1.991
1.80761
1.16633
1.40001
1.40001
1.827
1.40001
0.588587
1.42185
1.40001
1.08022
1.77399
1.40001
1.88346
1.6091
1.5097
1.86591
1.15112
1.40001
3.28557
0.580623
2.0215
1.10963
2.00922
1.40001
1.04842
1.40001
1.40001
1.45832
1.1175
2.98901
2.164
2.04784
1.40001
1.4989
1.63322
1.61874
1.73674
0.589415
0.57604
1.86223
1.33667
0.587364
2.11833
1.25217
2.07536
0.574441
1.38084
1.5074
1.40001
1.94958
1.93493
1.57961
1.64617
1.95992
1.61978
1.60815
0.58667
2.14633
1.38924
0.998421
1.95853
1.19096
1.56698
1.65403
2.04241
0.585066
1.90144
2.04081
1.40001
1.40001
1.87134
1.82608
2.6201
1.40001
1.83
1.46462
2.12438
2.29881
1.82345
3.09785
1.40001
1.44891
1.2295
1.34827
1.82808
1.40001
1.28615
1.3796
1.20555
1.85724
1.69624
1.40001
3.0182
1.08797
3.00819
2.71727
1.40809
1.82066
1.4949
1.36022
1.72088
1.40001
1.39999
1.75355
1.62192
1.17964
1.50394
2.40352
1.56299
1.49124
1.83095
2.36244
1.57871
1.40001
1.76089
2.06975
1.74184
1.42943
1.41923
1.16944
1.34054
1.17519
1.40001
2.15477
0.888546
2.12869
1.40001
1.604
0.584752
3.0969
2.04955
1.79329
1.87011
1.40037
1.82651
1.89851
1.38982
1.98684
1.46036
1.61798
1.40001
1.40001
2.09266
2.01335
1.40001
2.35672
2.6405
1.36284
1.21275
1.40001
1.99838
1.36273
1.1678
1.94974
1.55864
1.40001
1.44801
1.40001
2.71343
1.40001
1.14468
1.4117
1.72871
2.07672
1.41189
1.25036
1.40001
1.07452
1.33563
0.581693
2.68855
1.58614
1.99284
3.35921
1.98988
1.40001
2.01133
0.585015
2.02035
1.83649
1.55402
2.68564
2.39663
2.05181
2.05688
0.582864
1.11008
1.40001
1.6266
1.55051
2.10464
1.6232
3.10818
2.1013
1.39992
1.46743
1.5735
2.17141
2.1768
1.59398
1.40001
1.44331
1.44428
1.44182
1.16987
2.83501
1.40001
2.80147
1.40001
1.40001
2.76964
1.88642
2.07538
1.50262
1.50259
1.40001
1.40001
1.82164
1.75177
1.57878
1.42178
2.07891
1.31343
1.33863
1.41141
0.888744
1.94031
1.43484
1.38611
1.40001
1.20669
1.79862
2.20821
0.90571
0.585586
1.96486
1.85106
0.58395
1.40001
1.49956
2.02867
1.1728
1.89557
2.01577
1.40001
1.93356
1.40001
1.90182
2.02143
1.56558
1.84006
1.40001
1.26676
1.56462
1.28841
2.6892
1.34558
0.852694
2.0019
2.17175
2.69235
1.40001
1.59313
1.59588
1.62467
1.62119
1.65903
1.65122
2.10907
2.1046
1.40001
1.69234
1.40001
1.68795
1.87253
1.70941
2.07485
1.75356
0.613335
2.08769
1.69941
1.73815
1.73108
1.71954
2.68757
1.76728
1.41952
0.582006
0.605459
1.76787
1.76517
1.81155
1.40001
1.40001
1.6567
1.16367
1.47969
1.458
1.66616
2.69122
1.80071
1.40001
1.40001
0.847433
1.5073
1.40001
1.40001
2.14779
1.40001
1.85293
1.85139
1.88249
1.8796
1.55968
1.51335
2.08278
1.97021
1.59703
1.33344
1.94968
1.94669
2.68572
1.60783
1.3329
0.583447
1.54606
1.44705
1.40001
1.0527
1.50711
0.588625
2.70245
0.692906
0.582786
1.59801
2.68531
1.40001
1.24511
1.40001
1.73247
1.46233
2.71382
1.74828
0.869277
1.95018
1.88836
1.53781
2.68434
2.91418
2.08196
1.53951
2.07416
0.572799
2.69032
1.91002
2.0575
3.37299
2.76494
1.99284
2.68153
1.40055
1.83068
2.68322
1.46338
1.83222
2.69055
1.57665
2.49237
2.17257
2.6852
0.767577
1.70328
2.42418
1.3281
2.6969
1.77278
1.39995
2.69479
1.33218
2.0564
1.40001
1.44512
1.73759
2.07322
3.31061
2.18672
1.45401
2.10784
1.72423
1.40001
3.35138
1.34805
2.8772
2.68616
2.69393
2.39301
3.87138
1.0967
2.87872
2.69118
0.7884
1.99088
1.55388
2.2909
1.82829
1.85137
1.8596
2.31833
1.40001
1.40001
1.44378
2.08617
2.10123
2.30512
1.761
2.36658
1.38761
3.29282
2.35076
2.17531
2.09658
1.40001
3.86672
2.25574
3.85052
3.85982
1.58992
3.06904
3.70111
3.8595
1.33169
1.61403
3.82779
1.40001
1.40001
1.40005
2.87981
1.40001
1.40001
1.40001
2.90936
1.40001
1.56034
1.17512
1.9936
2.2074
2.00254
0.872572
1.86778
0.582158
2.62615
2.01593
1.25423
1.23627
1.14417
1.69656
2.5273
1.03808
1.86284
1.93783
1.40001
2.0183
0.959843
1.42124
1.61627
1.40001
1.40001
1.41384
1.61296
2.94359
1.96118
3.00836
2.42536
2.18397
1.40001
2.91385
2.41898
1.40001
1.40001
2.99411
1.59047
1.16751
1.16484
1.58387
2.54627
1.44769
1.47894
1.88385
1.40001
1.40001
1.7813
1.68135
0.984367
1.51578
1.40001
1.5248
2.13623
1.54203
3.02896
1.55781
1.59896
2.22238
1.45294
1.86545
1.61496
2.54712
1.85646
1.40001
2.19466
2.68937
1.4
1.40001
1.8261
2.69055
0.587985
2.43122
2.00256
1.99335
1.82219
1.55494
1.46643
1.7556
1.77138
2.02756
1.40004
1.40001
1.99424
1.17595
2.67953
2.68092
2.22967
3.77685
3.49867
1.8957
1.40001
2.69348
1.76516
1.40001
1.59882
0.593447
1.60132
2.17907
2.25673
2.1812
1.82032
2.39636
2.64411
1.18392
1.1406
2.6835
1.64872
1.37343
1.37058
0.884809
1.40001
2.5585
1.55288
1.86418
1.88394
3.81345
0.599452
3.51606
2.07751
3.79898
1.33333
1.7876
2.66708
3.85002
1.24952
1.4
2.11007
2.40663
0.903986
2.05541
1.77038
2.12328
1.68111
1.34765
1.40001
1.82994
1.64843
2.37167
3.87343
1.40001
3.88457
1.1666
2.10178
1.85051
1.77555
1.08406
1.53522
1.40001
1.40001
1.94016
1.96356
1.04885
1.83049
1.9107
1.81632
1.82696
3.06273
1.96914
1.40001
1.40001
1.98327
1.46287
1.99616
1.54045
1.21106
2.79592
1.40001
1.49726
2.01547
2.76486
2.75772
1.46204
1.61547
3.3323
1.40001
1.40001
1.02372
1.94647
1.50035
1.40001
1.61081
1.35951
1.40001
1.40001
3.81593
1.00138
1.59462
1.95661
2.74616
1.40001
1.40001
3.63572
1.40001
1.40001
2.13599
1.40001
1.80936
1.52143
1.40001
2.72488
2.10981
1.40001
1.40001
1.40001
1.06325
2.12843
1.82331
2.03955
1.40001
1.96024
2.03593
1.93733
2.71941
1.40003
1.40001
1.23047
1.58961
1.45853
1.80509
3.26149
1.19414
1.39232
1.81654
2.14819
1.39934
1.91106
1.40001
1.81799
2.15642
0.900706
2.15297
2.04685
2.69839
2.46206
1.85561
2.98759
2.03666
1.40001
1.34366
2.10794
2.43212
2.09645
1.17128
1.53409
2.72774
2.09868
0.575795
1.40001
2.05263
1.54565
2.30851
1.44033
1.40001
1.81253
2.53238
1.97744
1.40001
1.44982
1.47643
1.40001
2.39813
1.40005
0.580999
2.19815
2.01105
1.41796
2.00383
2.4818
1.40001
1.63373
1.98198
1.57996
0.984565
1.93067
3.08606
1.87651
1.16994
1.95604
2.69382
1.50364
1.39763
1.63749
1.17081
2.68961
1.40001
0.890012
1.46078
1.14929
1.40001
2.4537
2.66073
1.47255
1.48066
1.80321
1.40016
1.5923
2.71687
2.28513
2.69042
1.17187
1.61536
1.78137
2.68985
1.76917
1.55532
2.28937
2.22733
2.01486
1.18056
2.69557
2.0538
2.99434
2.7142
1.40001
1.40001
2.69326
2.43343
2.04257
1.58855
1.15535
1.40001
1.87771
1.40001
1.62115
1.40001
1.8728
1.40001
1.8478
1.53375
3.13022
2.17884
1.40001
1.40001
3.71577
1.40001
1.25377
1.64883
3.73137
3.30611
2.04271
1.40001
1.33856
2.71767
1.34623
1.40001
1.60255
1.40001
2.05843
1.40001
1.33014
2.68189
2.68454
1.77711
1.64246
1.4
2.09291
2.07052
1.4
1.40001
1.47827
2.10515
1.39998
1.00515
2.7089
1.25671
1.99953
1.87565
2.69403
3.52609
1.14785
1.40001
1.17846
1.69914
1.40001
1.29999
2.69621
2.70549
1.17403
1.49698
1.1859
2.68484
1.99742
1.61606
1.40682
1.76153
2.45501
2.32555
1.4
1.62095
2.6893
1.40001
1.55033
1.94802
1.55047
1.58775
1.992
2.53247
2.97782
3.20966
2.17435
1.22415
2.00892
2.49974
1.57858
1.51619
2.99649
3.24861
1.40001
1.40001
2.26938
1.09749
1.40001
1.90657
2.20731
1.36417
2.0047
1.40001
2.01221
1.40001
1.40001
1.40001
1.73351
1.76869
1.40001
1.46604
1.88109
1.86034
0.919345
2.41125
1.87028
2.81054
1.39998
2.32961
1.87631
1.40001
1.18029
1.40001
1.90364
1.90322
1.20321
2.62686
1.8079
1.96367
1.98519
1.75226
1.67391
1.52176
1.75947
1.73064
1.89206
1.73874
1.70335
2.7172
1.70834
2.03781
1.49272
1.40001
2.12631
1.98557
2.10039
1.19365
2.70707
1.55039
1.66646
2.72033
2.17784
2.12633
2.17377
1.40001
2.29491
1.40003
1.47586
1.95861
1.63705
1.64984
0.581045
1.97623
2.266
2.69058
1.62198
1.40001
1.48729
1.59564
2.70702
2.42107
1.40001
2.26333
2.69126
2.2619
1.46578
3.4635
2.10349
1.40001
2.70892
1.59198
1.92006
2.13328
1.6985
2.71857
1.40001
2.71448
1.40001
2.0482
1.27029
1.40001
2.10019
1.66417
1.40001
2.18386
1.92275
3.21356
2.94837
3.49909
1.4001
1.55605
2.02716
1.4
2.16283
2.13726
2.15945
2.02301
2.71406
3.17308
2.68301
2.09126
2.03631
1.40156
3.6795
1.67627
0.80851
1.80793
1.90609
3.44938
1.97641
0.84794
1.82691
1.89362
1.54512
1.40001
3.75847
3.49381
1.21605
2.09643
1.40013
1.40001
1.90029
2.52351
1.53064
2.41677
2.23529
1.13442
1.40001
1.14408
1.94243
0.576679
3.59366
2.10835
1.39234
1.40016
1.88301
3.11943
2.37381
1.85011
1.10204
1.15784
1.85299
1.86343
3.5952
1.40001
2.68754
1.04334
1.09414
1.61239
2.70929
2.46622
2.43284
1.40001
1.71109
1.40001
1.40001
1.40001
1.73051
1.40001
1.46353
1.74132
1.0517
1.56105
1.13705
1.75179
2.53546
1.58427
1.40001
2.53527
1.26219
1.40001
1.28876
1.91558
1.40001
1.40001
1.40001
2.20237
3.55586
1.51843
3.05232
1.51557
1.91795
3.75928
1.40001
2.28534
1.40001
3.03427
2.40788
1.60928
2.71967
1.92589
2.70354
1.49953
1.61342
1.96591
1.40001
2.70524
1.40001
2.10994
1.40001
1.40001
1.40001
2.64832
2.68759
1.40001
1.40001
1.97949
1.57868
2.62826
2.4789
1.87391
1.86655
2.46596
1.09929
1.40001
1.98131
1.40001
1.36038
2.71045
1.3679
2.18703
2.03252
2.20467
2.00644
2.0257
1.72769
0.577472
2.69964
2.68461
1.72408
2.024
1.40001
1.73096
2.69052
3.19737
2.69125
2.72898
1.29765
1.40001
1.54616
3.52227
2.22501
2.12167
2.17914
1.73217
1.30182
1.40001
1.56989
1.40001
2.68337
1.40001
1.95862
2.76106
1.40001
2.72201
1.60983
1.43784
2.7098
1.95164
2.69324
1.40001
1.24515
1.27671
1.87731
1.80676
2.00344
1.99447
2.68478
2.68604
1.69121
1.87677
1.49167
1.69926
2.14602
2.68872
1.40001
1.40001
1.72036
1.40001
2.71024
1.88578
1.98169
1.75216
1.40001
1.40001
1.72559
2.06227
1.26325
1.5165
1.59267
1.78504
1.96516
1.99112
2.69289
2.13794
1.40001
1.76135
1.52684
2.58657
1.84645
1.75745
2.69098
1.14542
1.90801
1.85568
1.99079
1.92428
1.12372
2.68658
1.92529
1.97543
1.60925
2.69479
2.6914
1.40001
2.68059
2.00046
1.12306
2.03449
2.04248
1.81977
1.81856
1.92111
1.5659
1.80977
2.7114
2.01051
2.70754
0.585578
2.6875
1.5804
1.77338
1.75998
1.50079
1.18957
1.97559
3.22867
2.17642
1.40001
2.09968
2.05682
2.0434
1.79463
1.16944
1.59266
1.58827
2.71085
1.47376
1.98417
1.98677
1.16833
1.90198
2.68442
1.40001
1.48464
1.14991
1.14347
1.40001
2.14028
1.13439
1.99868
1.99412
2.11632
2.13592
2.03427
1.40039
2.03565
2.02687
2.71928
1.19221
1.81255
1.11836
2.68132
2.07275
2.06449
2.6883
1.43167
1.66824
1.96726
1.20636
2.68834
1.46406
2.19024
1.59642
2.69626
1.40001
1.40001
2.11352
2.12003
0.584793
2.6874
0.975086
1.12962
3.08118
1.75964
1.57881
2.12546
1.17882
1.95854
2.69084
1.46588
1.45982
2.06014
1.39397
1.5155
1.78807
1.8372
1.50366
1.58979
2.28503
1.49818
1.40001
1.4
1.40001
1.40001
2.28196
1.48562
1.67506
2.19381
1.40001
1.86427
1.40001
2.70745
1.40001
1.48516
1.48318
1.86063
1.40001
2.71469
3.73218
1.39175
1.83554
1.56188
1.8213
1.80564
1.94655
1.07413
1.60659
1.40001
1.40001
1.06866
1.79963
1.96892
1.40001
1.24104
1.43244
2.95729
1.73286
1.58728
1.84148
1.22466
1.40001
1.30296
1.48763
1.23237
2.50974
2.07701
1.81576
2.0656
1.69688
1.40037
1.60317
1.56891
1.97847
1.11994
1.40001
1.5486
1.40001
1.40001
2.1167
1.11645
3.60422
1.60258
1.40001
1.48889
1.68571
1.53108
1.67907
1.40001
1.40001
1.40001
1.67301
3.72277
2.0134
1.30373
1.40001
1.77124
1.592
1.75154
2.10502
2.40812
1.66767
1.72458
1.64058
1.6461
1.281
3.64868
2.11797
1.56418
2.00239
1.37876
1.81642
1.40899
2.33815
1.48691
2.71379
1.60748
1.86984
2.02711
1.27249
1.40001
1.60358
2.7134
1.40001
2.54844
1.40001
1.77695
1.77701
1.86481
2.66686
1.40001
2.05176
1.68248
1.39156
1.40001
0.971141
1.01131
1.2135
1.05677
2.19222
3.28995
1.40001
1.13207
1.24012
2.6162
1.17906
1.98147
1.56821
1.34875
1.40001
1.40001
2.60422
1.69657
1.56476
1.69937
1.90688
1.89707
2.63709
1.40001
3.64467
1.56023
1.24608
0.883729
1.11228
1.40001
2.31813
1.40002
1.78366
0.966766
1.40001
1.96561
1.55855
2.70601
1.40001
2.71158
2.03517
1.542
1.65396
2.71062
1.39998
1.53461
2.72512
1.18012
1.53313
1.4
1.7892
2.09866
1.18414
1.71683
2.14413
1.39998
1.99673
1.40001
1.40001
1.40001
2.71229
1.40001
2.02939
2.02068
1.43284
2.57306
2.94455
1.56658
2.32243
2.04653
1.40001
2.25183
2.71475
2.71032
0.932059
1.88227
1.97455
3.60681
1.78887
2.71418
1.53954
1.37373
1.50458
2.70824
1.40819
1.4
1.47478
2.71201
2.60069
1.51297
1.37642
1.48752
1.98263
1.40001
2.61639
3.76503
2.12048
2.11189
1.40001
1.40001
1.87315
1.40001
1.40033
1.96232
1.41578
1.3992
1.40001
1.94315
1.5129
2.15913
1.40001
2.53445
1.40001
1.67705
1.66355
1.40001
1.68574
1.63158
2.51121
1.5771
1.40016
3.41269
2.57486
1.40001
1.40001
1.71229
1.16858
1.57873
1.40001
1.66092
1.71643
1.37014
3.62959
2.00542
1.5295
2.00256
1.65704
1.18588
2.8773
2.19102
1.99735
1.18088
1.42264
2.73066
2.19058
1.74349
1.9255
1.5226
1.98173
1.74994
0.967734
1.99617
3.05278
1.40073
2.71798
1.76047
2.72814
1.37329
1.7675
1.40001
1.92588
1.60574
2.1973
1.40001
2.09916
1.96296
1.39446
2.53
1.40001
1.59804
1.78889
2.50506
2.17206
2.74708
1.40001
2.52306
1.54638
1.40001
1.60859
1.18682
1.40626
3.74106
1.8609
1.40001
2.07339
1.40778
1.8453
1.92459
1.40002
1.23232
1.18741
3.47185
1.89148
0.588667
2.15702
3.06683
2.10733
2.85135
2.05185
1.40001
1.40003
1.93151
3.14334
2.22954
2.06545
1.24086
1.22333
1.91287
1.89438
2.71089
3.34535
2.08158
1.40104
1.54835
1.40006
2.70845
2.50544
1.55062
1.2831
1.77761
1.98745
2.10172
2.1324
1.98798
1.38861
2.59448
1.76604
3.64578
1.97998
2.67949
1.58904
2.24555
2.71535
1.77472
2.44708
1.58641
1.93648
2.50687
1.13027
2.33472
1.65949
1.40858
2.07897
2.71319
1.81778
1.65504
1.06143
1.99786
2.23959
1.15328
1.51078
1.58264
1.98491
1.43156
1.39975
1.68361
2.03355
1.26086
1.67957
0.982481
1.55898
1.40001
1.58121
1.40001
1.59862
1.40001
1.24313
2.30232
1.22477
1.40001
1.9971
1.75219
1.42612
1.75121
0.970573
1.61382
2.31858
1.22154
1.84356
1.68809
1.3836
1.40001
1.40001
2.83036
1.76071
3.60586
1.75736
1.09571
1.40001
1.40001
1.23422
2.08928
1.41181
1.53281
2.61728
1.31657
2.39041
2.02092
1.48552
2.02299
2.70775
1.90896
2.09146
1.2839
2.31619
1.4
2.34072
1.1844
1.40001
1.40001
1.78069
1.40005
1.92297
2.49601
2.07098
1.40001
2.07535
1.40001
1.40002
1.40001
1.4
2.19911
1.40001
1.57309
1.16353
1.57525
1.545
1.40001
1.78726
2.73023
1.46936
2.52458
1.17491
2.46967
2.70934
3.66246
1.27727
1.40001
1.40666
1.87548
2.31943
1.32217
1.40001
1.40001
2.23072
1.40001
3.39456
3.64097
2.72978
2.71646
1.77918
1.40001
1.40001
1.4
1.9023
2.4512
3.13336
3.62937
1.40001
2.52066
1.39806
2.15723
2.48833
2.22819
1.2124
1.4
1.43319
1.73066
2.71089
1.09248
2.46092
1.49709
2.07189
1.4684
2.73257
1.40001
1.19204
1.08446
2.70912
1.21706
1.78937
1.22176
1.92034
1.40001
1.20565
1.18331
3.64954
1.95057
1.40001
1.40001
1.35413
1.40001
2.22781
1.40001
1.40001
1.73619
1.37627
1.6627
2.71468
1.61775
3.60672
1.48153
1.93372
1.40001
1.55952
1.40001
1.40001
1.84738
3.614
1.40001
1.97902
1.33287
1.46764
3.72679
1.39968
1.40001
1.40001
0.587566
2.01161
2.49086
1.40001
2.04142
1.47421
2.10849
1.52044
2.49563
1.40001
2.71228
1.58634
1.40001
1.78755
1.74121
1.93163
1.40001
2.70718
1.62661
1.40001
2.06461
1.40001
1.97549
2.71286
1.9654
0.975486
2.19193
2.70962
1.14339
2.45972
2.15385
1.88591
1.40003
1.91969
1.40001
1.9418
1.13811
1.41167
2.6206
2.59846
1.81388
1.46173
1.40001
2.14783
1.14175
1.40001
1.40006
1.33218
2.96492
1.40401
1.40001
2.97912
1.40001
1.40001
1.31518
1.5263
2.53631
1.32507
1.40001
2.75074
1.40001
1.40011
1.11888
1.41996
3.66423
3.60293
1.40001
1.40001
1.40005
2.31781
1.45693
1.48319
2.28654
2.29615
1.40001
1.79723
1.40001
1.40001
2.10041
1.55357
2.53291
1.40001
2.55009
1.40001
1.13782
1.40076
2.30143
1.40001
2.70407
1.44955
1.54695
1.40001
1.40001
1.40001
1.62697
1.35986
1.40001
2.71115
1.17258
1.15759
1.13516
1.87317
1.40001
1.40001
1.39902
1.47542
1.47179
1.40001
2.71069
1.40001
1.40001
1.40001
2.22732
1.4
1.5802
2.69144
1.58937
1.16687
1.40001
2.58424
1.45092
1.8659
1.48765
1.28532
2.52694
2.87765
1.49788
2.70911
3.18494
2.21003
1.40001
3.26286
0.964831
2.308
1.3474
1.40001
2.71075
2.21796
1.40001
1.51082
2.19872
1.40001
1.95197
1.97111
1.94917
1.43803
1.40001
1.39852
1.40001
1.40001
1.40011
1.58761
2.73742
1.97378
1.89633
1.59339
2.72962
1.25069
1.53647
2.65107
1.40001
2.36769
1.40001
2.21882
1.74335
2.22602
1.40001
1.40001
1.40001
1.40001
1.39988
2.35493
1.40001
1.39621
1.40001
1.40001
1.40001
3.71535
2.06619
3.72875
2.65735
2.90379
1.4014
3.69042
2.11705
1.53023
2.71444
2.42754
2.4615
1.44178
1.44727
1.40001
2.0821
2.44985
1.95972
2.30329
1.95589
1.39999
2.99981
1.04487
2.19545
1.40018
3.53724
1.33109
2.58617
2.37907
2.71496
0.605586
2.85867
1.40001
0.989229
1.40001
1.40001
1.87609
1.54174
1.48694
1.18627
1.40001
2.99326
3.53606
1.40001
1.40001
2.29175
1.36289
2.50845
1.39966
1.34715
1.71876
2.70854
1.40001
2.55445
2.17769
1.40001
2.79869
1.38528
1.40001
1.78151
0.979003
1.26963
1.52552
1.74009
2.47172
1.40001
1.28514
2.70889
3.73866
1.46514
1.40001
1.78493
2.70747
1.14926
1.40001
2.46371
1.97329
1.5285
3.43111
1.39458
1.40001
0.962155
1.40001
2.71068
1.25823
1.23848
1.24137
2.16406
1.33393
1.37241
1.40001
1.40001
2.54262
1.40001
2.71624
1.55623
1.13469
2.00689
1.40001
0.96175
1.40001
2.05505
1.97459
1.89028
1.58972
0.651476
2.70967
1.60231
1.4
1.40001
1.52454
1.54026
1.40001
1.86792
3.64408
2.03442
2.10232
1.40001
1.40001
1.40001
1.26541
2.21951
1.79142
1.28381
1.68322
1.99026
1.87478
2.41823
1.40001
1.40001
1.40001
1.95959
1.23356
1.20221
2.70813
1.19685
1.16451
2.40314
1.40001
1.55564
1.35287
1.40001
1.40001
1.40001
3.67419
2.58859
2.40786
1.75609
2.51778
1.49976
1.81308
1.73451
3.57394
1.40001
1.40001
1.40001
2.72031
1.5428
1.40001
2.74004
1.40001
2.37987
2.01156
2.70797
2.7148
2.67965
2.63226
1.40001
2.71465
2.69167
2.54326
1.40001
2.25723
1.4
1.40001
2.60333
2.64561
1.40001
1.40001
1.59207
1.51152
2.44323
1.10887
2.6815
1.88111
1.40001
1.40001
1.40001
2.23203
1.40001
0.90359
2.60957
2.95747
2.40015
2.42105
2.7108
2.07122
2.16507
1.40001
1.40001
1.78431
2.71555
1.40001
1.63345
1.77508
2.11565
2.71901
2.20958
2.27937
1.17719
1.57899
2.31846
2.17187
3.77179
2.68929
1.85494
2.0577
2.70709
2.70949
1.58567
1.94244
1.40001
1.40001
2.71165
2.45857
1.60766
1.72489
2.72452
1.50608
2.39836
1.40003
1.62502
2.58587
2.70765
1.40001
1.41885
1.42311
2.25074
1.57182
2.70771
3.62185
2.71464
3.66655
2.71058
2.10668
1.77493
1.74563
2.70992
1.40001
1.44367
2.38597
2.61126
1.3515
1.40001
2.70939
1.10285
0.620358
1.47008
1.40001
1.10403
1.49892
2.70992
2.25955
1.71193
1.68438
2.7131
1.40001
1.59467
2.66451
1.19496
1.891
1.40001
1.85861
2.14228
1.40001
2.70723
2.5251
3.15603
1.42057
1.43614
1.72554
1.39999
1.78567
1.40001
2.13297
2.70948
1.97461
1.34377
1.34935
1.98823
1.77036
2.03839
1.86254
1.40001
2.0793
1.40001
1.62409
1.75581
1.26961
2.14876
1.3524
1.40001
1.89529
1.41061
1.42244
1.40001
1.40001
1.11098
2.48201
2.70481
1.40001
1.40001
1.75743
1.40001
1.72224
2.58387
1.3921
1.40001
1.64695
1.40001
2.26713
1.34253
2.71988
1.32331
1.73649
1.40001
1.76871
2.05574
1.94152
1.73091
1.40001
1.56089
2.72185
1.40001
1.17244
1.78859
1.21269
1.71737
1.74821
1.96282
2.70749
1.75648
1.40001
1.40001
1.40007
1.71936
1.40001
2.05207
1.86313
1.40001
1.40001
1.40001
1.39993
2.70535
1.45088
0.600378
2.68313
1.19482
3.21947
1.84468
1.15607
1.10937
1.57428
1.96599
1.40001
1.79832
2.6975
1.90527
0.976534
2.71554
2.2141
1.40001
2.45513
2.44966
2.69298
1.40001
1.47788
1.47079
1.9275
1.79036
1.96543
1.53808
2.78069
2.71052
1.37311
2.53822
2.45529
2.72028
1.85735
2.27569
1.40001
1.83229
1.59668
1.40001
1.40001
1.40001
1.09799
1.40001
1.40001
1.88632
1.40001
1.40001
2.71259
1.40002
1.8047
2.71183
1.40001
1.40001
1.39776
1.40001
2.79395
2.71062
1.90003
1.17814
2.71083
2.71319
2.61315
1.40001
1.40001
1.8082
2.65355
1.40001
1.1942
1.58415
1.88277
1.17517
1.16654
1.52129
1.1302
1.39651
1.4802
2.70676
2.71271
1.12122
1.14612
2.71294
1.40001
1.40001
2.14086
1.40001
1.8269
1.40001
2.71293
1.42524
1.42268
1.40001
1.40001
1.70705
2.65475
2.59166
2.7085
1.40041
2.6513
1.81034
1.40001
1.81998
1.40001
2.66644
1.40001
1.2915
1.10928
1.40001
1.40001
1.40001
2.50819
1.64335
1.40001
1.40001
1.5198
1.39973
2.47837
1.52246
1.40001
1.53169
0.856961
1.18922
1.4
1.40001
2.70904
1.86717
1.56399
1.40001
1.73238
1.85878
2.44027
2.71071
1.81548
2.68064
1.40001
1.39042
1.40001
3.55879
2.03358
2.71131
2.40301
2.70891
1.16503
1.40001
1.40001
1.09642
1.4
1.40001
2.71232
1.15851
1.12253
1.65439
1.40001
1.40252
1.40001
2.66777
2.75106
1.40001
1.40001
1.64801
1.40001
1.7408
1.00407
1.79436
1.09474
2.92892
3.43039
1.45094
2.71903
1.51865
1.40001
3.64548
1.40001
1.95227
2.71037
1.11312
1.40001
1.40001
2.71436
1.60791
1.30016
1.40001
0.619255
2.36874
2.05263
1.40511
2.70664
2.30828
1.40001
1.15759
1.6774
1.13447
2.22575
1.76394
1.40001
1.40001
1.40385
1.45706
2.42304
2.71192
2.72062
1.97715
1.33471
1.8926
2.71796
1.75445
1.97867
1.66442
1.40001
1.40117
1.40001
1.4
1.36408
1.00149
2.77565
1.34758
1.40001
2.08495
1.62477
1.37305
1.32609
1.35733
1.40001
1.62776
2.64281
1.40001
1.40001
1.51927
2.71079
2.77504
1.40001
1.40001
1.40001
1.40001
3.79127
2.06482
2.66641
2.95268
1.83722
1.40001
1.4
2.71284
2.77334
1.72235
1.52074
2.68889
1.40001
2.80227
1.40001
1.40001
1.40028
1.40001
1.46454
2.04338
1.40001
1.80109
1.40001
2.71967
1.72513
2.65061
1.40208
1.40025
1.40001
0.973262
1.43218
1.40001
2.3713
2.70861
1.40001
2.34186
2.03107
2.92623
1.40001
2.62094
1.40001
1.40013
1.17744
1.17481
1.3937
2.2294
1.40001
1.25274
1.39675
2.71892
1.8749
1.40001
2.719
1.3503
1.40001
0.607873
2.52032
1.12963
0.927309
2.37206
1.40001
2.19963
1.40001
1.40001
1.40001
2.71522
2.28264
1.40001
1.40253
1.49015
2.92432
2.08328
1.40001
0.99477
2.71203
1.40001
1.26115
2.72027
2.33293
1.40001
2.29957
1.69353
1.40001
1.40001
1.40001
1.40001
2.75379
1.34965
0.971309
1.3994
2.27588
1.91831
2.68172
2.84405
1.40001
1.40001
1.40001
1.84815
1.40001
2.08862
2.98829
2.09695
2.16254
0.60203
0.800965
1.73528
1.01968
0.605502
1.40001
3.15863
2.94537