/*--------------------------------*- C++ -*----------------------------------*\
  =========                 |
  \\      /  F ield         | OpenFOAM: The Open Source CFD Toolbox
   \\    /   O peration     | Website:  https://openfoam.org
    \\  /    A nd           | Version:  12
     \\/     M anipulation  |
\*---------------------------------------------------------------------------*/
FoamFile
{
    format      ascii;
    class       volScalarField;
    location    "5.2";
    object      T;
}
// * * * * * * * * * * * * * * * * * * * * * * * * * * * * * * * * * * * * * //

dimensions      [0 0 0 1 0 0 0];

internalField   nonuniform List<scalar> 
45568
(
1.40372
1.15823
1.35841
1.3106
1.04372
1.15543
1.24742
1
0.962797
1.30896
1.15334
1.44579
1.36389
1
0.964705
0.782908
1
1
1.09432
1.30644
1
1.36016
1.26506
1
1
1.16007
1
1
0.797503
1.31274
1.0669
1
0.995711
1.31754
1.2764
1.24473
1.04563
1
1.31059
1
1
0.783421
1
1.44915
1
1.57095
0.780564
1.49605
1.27707
1
1.48883
1.35134
1
1.29089
1.43651
1.3545
1.43926
1.3905
1.3559
1.13492
1
1.35781
1
1
1.40562
1.18609
1
1.0969
1.23586
1.51031
0.997311
0.879587
1.48478
1.32042
1.44272
1
1
1.18297
1.13617
1
1.35959
1.27558
0.869265
1.49179
1.38673
1.00001
1.41189
1.1366
1.24108
0.96045
1.23519
1
1.3248
1.50218
1
1
1.50842
1.31066
1.09895
1.31555
1.02174
1.39159
1.57306
1
1
1
1
1.35728
1
1.49766
1
0.975773
1.27894
1
1.50153
1
1
1.57382
1.43533
1.29689
1
1.33876
1.35423
1.35812
1
1.33848
1.51807
1.39748
1.56255
1
1.4319
1.45922
1.54584
1
0.783958
1
1
1
1.38872
1.3929
1
1.25967
1.33253
1
0.75902
1
1
1
1
1
1.19355
1
0.818812
1.10295
0.809996
1
1
1.09589
0.772805
1.40784
0.768208
1
1.37662
0.786771
0.899584
0.96611
1.24377
1
1.41112
1
0.783961
1
1.15116
1
1.43307
0.774758
0.769292
1.39533
1.4191
1.45803
1.43332
1.29194
0.782823
0.778955
1.17304
1.2382
1
0.945072
1.2365
0.785798
0.784397
1.31013
1.23611
1.17178
1.32542
1.02018
0.784374
1.13548
0.857776
0.782112
1.23147
1.29659
1.3604
1.6228
1.5768
1.37927
1.2321
1.25984
1.07231
1.40778
1.09293
1
1.38352
1
1.35999
0.782667
0.779837
1
1.3087
1.36417
1.36804
1.14419
1.32851
1.19984
1.44377
1.27929
0.782216
0.779732
1
1.23697
0.948237
1.30852
0.83061
1.43034
1.31757
1.182
0.969383
1.18045
1
1.42797
0.758712
1.18417
1.43572
1.00001
1.18077
1.19244
1.36129
1.18391
1.19822
1.19229
1
1.16461
1.20168
1.54287
0.781527
1.1328
0.781963
0.778887
0.779164
1.16186
1
1.13662
1.19026
1
1.4718
1.13284
1.19634
1.27061
1.38853
0.781878
1.16183
0.780248
1
1.41008
1.62652
1.26793
1
1.21345
1
1
1
1.67871
1
0.896569
1.44853
1.31121
1.11319
1.14685
1.30263
1.11681
1.19467
1.44748
1.43526
1.30881
1
1
1.40535
1.30952
1.31794
1.27807
1.15158
1.27327
1
1.36334
1.30966
1.0673
1.10534
1.49213
1
1.26545
1.36166
1
1.36768
0.96172
0.968582
1.31939
1.36434
1.15485
0.846242
1.38993
1.35958
1.44163
1.35927
1
1
1.30679
1.23499
1.31618
1.30729
1
1
1.40628
0.853392
1.2675
1
1.5579
1.6758
1.2303
1.41728
1.4394
1.6606
1.39508
1.3615
1.20888
1
1
1
1.02713
1
1.00056
1.27744
1.29044
1
0.919702
1.26902
1.3512
0.932876
1
1.37814
1.36053
1.64036
0.934842
1.30443
1.09184
1.07833
1.27912
1
1.3109
1.07589
1.45206
1.41945
1.37379
1.30635
1
1.25181
1.09541
1
1.3399
1.34462
0.98576
1.26099
1.25789
1
1.48325
0.783984
1
1.23923
1.29453
1
1.18129
1.31038
1
0.963876
1
0.790439
1
1.47445
1
1
1.13569
1
1
1.27665
1
1
1.42579
1
1
1.31069
1
1
1
1.4298
1
0.965705
1.30529
1
1.33964
1.3365
1.45453
1.24908
1
1
1
0.9626
1
1.33728
1.32431
1.44709
1
1.5619
1
1
1
1
1.29357
1.11025
1
1
1.27515
0.781281
1.28024
1
1.31876
1.16823
1.23569
1
1
1.4676
1.37156
1.13436
1.26608
0.999997
0.983765
1.15548
1
1.09649
1.51855
1.32276
1.29507
1
1
1.26679
1
1
1.16332
1.36836
0.918696
0.793146
0.784165
1.09032
1.20204
1
0.883691
1
1.48633
1.35682
1.45787
1.43508
1.31945
1.37352
0.971618
1.00321
1.04388
1
1.34765
1.35318
1
1.27659
1.412
1
1
1.26912
1
0.772369
1.20824
0.767379
1
1.28759
1.32918
1
1.31195
1.38166
1
1
1.31047
1.3398
1.37769
1.3199
1
1.30724
1.09485
1.32081
1
0.777825
1
1
0.796191
1
1
1
1
1.39119
1.2565
0.916661
1
1
0.98344
1.23456
1
1
1.35891
1.23456
1.34828
1.2431
1
1.25763
0.788969
1
1.17116
1
1.38561
1
1.24012
1.40703
1
1
0.94035
1.17319
1
1
1
0.78577
0.783758
1
1.6409
1
1
1.09492
1
1.34509
0.785739
1.09611
1.29986
1.24356
1
1
1.25674
1
1
1
0.993913
0.975845
1
1.26501
1.12287
0.947336
1.4802
1
0.760958
1.03899
1.27719
0.874705
1.20171
1.397
1.26123
1.48057
1.05096
0.973283
1.13599
1.11198
1
1.42665
1.12451
1
1.47845
1.07082
1.23841
1.23472
1.43573
0.785337
0.910861
1
1
1.51329
0.782102
0.778986
1.49155
1.23331
1.42607
1
1.22303
1
0.95829
1.23375
1.26211
1.40072
1.15512
1.27
1
1.23288
1
1.56854
1.32899
1.23365
1.4775
0.78007
1
1.1567
1.25755
1
1.31526
1.14488
1.2781
0.961253
1.3585
1.42246
1.32264
1
1.36692
1.66329
1.19814
1.24437
0.780505
1
1.60658
1
1.37407
1
1
1.30428
1.42381
1.48995
1
1.28142
1.13412
1.64418
1.34933
1.19935
1.32093
0.918924
1.08845
1.19316
1.19232
1.24537
1.64481
1.39072
1.28095
0.971917
1.07623
1
1.06966
0.999854
1.47688
1.23211
1.47901
0.978932
1
1.6084
1
1.23924
1.23834
1.29301
1.15121
1.6673
1.16896
1
1
1.37955
1.18062
0.782236
1.32538
1.44377
1
1.39868
0.779659
1.16745
1.38581
1.11009
1.12927
1.44221
1
1
1
1.32029
1
1.32221
1
1
1
1.00001
1.43713
1.27112
1.11979
1
1
0.98967
1.27024
1.67353
0.985789
1.32906
1.25431
1.21068
1.43434
1.42836
1.47143
1.34494
1.00243
1.38651
1
1
1.2536
1.45139
1.30647
1.25621
1.0481
1.33795
1.15962
1.44565
1.35613
1.32756
1.15365
1.38645
1.24441
1.27401
1
1.11877
1.18146
1.43936
1.17731
1.28336
1.34986
1.26692
1.35791
1
1.37373
1.34128
1
1.13601
1.16257
1
1.31929
1.17003
1.48583
1.05872
1
1
1.07663
0.913079
1.28171
1.11011
1.17007
1.15989
1.23339
1.3593
1.32358
1.00842
0.898287
0.982527
1.22255
1.17393
1.04227
1.08458
1.23453
1.28827
1.18078
1.26224
1.4322
1.37064
1.31316
1.20661
1.54748
1.16226
1.09177
1.26145
1.38208
1.31535
1.24526
1.24248
1.2068
1.34968
1.44032
0.856544
1.32616
0.868001
1.47276
1.41116
1.23238
1.32909
1.26928
0.919985
1.184
1.13012
1.27838
1
0.978401
1
1.04496
1.14111
1.26004
1
1.20232
1
1.63105
1.23711
1.35108
1.41963
1.36123
1.1772
1.16598
1.4031
1.26794
1.34804
1.55837
1
1.09398
1
1.35991
1
1
1.41417
1.25492
1.32789
1.35025
1.06006
1.17641
1.27236
1.16985
1.40171
1.35633
1.39319
1
1.30913
1.38258
1.19204
0.963587
0.965899
1
0.76999
1.29581
0.776825
1.36146
1.13848
1
1.19458
1.16443
1.41053
1.38757
1
1.18985
1.28384
1.1345
1.19412
1.23125
1.16916
1.28106
1.38237
1.24749
1.23325
1.22216
1.24746
1.3475
1.27935
1.15682
1.26727
1.18183
1.38331
1.37271
1
1
1.42241
1
1.34161
1.50639
1.05299
1.17604
0.767021
1.17634
1.24268
0.772693
1.22679
1.34068
1.0996
1.5426
1.63404
1.18316
1.09338
1.10102
1
0.940631
1.18199
1.09331
1.33745
1.25698
1.25296
1.09407
1
1.10267
1.34217
1.27012
1.24856
0.980065
1.27317
0.971111
1
1.02737
1.27129
1.24338
0.994637
1.06155
0.774657
0.778088
0.977553
1.17194
1.25065
1.01689
1.00417
1.26934
1.28528
0.978919
1.32713
1
1.14926
0.905115
0.773005
1.16156
1.18598
1.32179
1
1
1.17955
1
1.24498
1.30595
1.1893
0.781757
0.784344
1.67318
1.3531
1
0.87979
1.29469
1.32921
0.966097
1.10577
1.04673
1
1.29376
0.994497
1.24273
1.00855
1
1.02025
0.994263
0.769894
1.01296
1.33999
1
1.16825
0.999999
1
1
0.997968
1.37364
1.17531
1
1
1.22939
1.03412
1.0365
1.30485
1.3037
1.30757
1.1297
1.13756
0.791578
1
1
1.27837
1.18215
0.78298
0.784821
1.09737
1.2806
1.26972
1.26174
1.1371
1
1
1.28935
1
0.760686
1.23542
1
0.940446
1.27337
1
1.17041
1.2028
1.25848
1.16604
0.985521
1
1.59913
0.784132
1.36974
0.957031
1.39885
1
1.01495
1
1
1.08722
0.957145
1.54225
1.3323
1.21132
1
1.19447
1.10643
1.10265
1.26448
0.781253
0.784869
1.2737
1.11701
0.783675
1.22499
0.99386
1.21503
0.777583
1.12322
1.06841
1
1.24808
1.29558
1.09139
1.1111
1.23962
1.10352
1.09956
0.779595
1.40547
1.17896
0.995271
1.35253
1.11789
1.0875
1.11381
1.29531
0.781924
1.17614
1.30276
1
1
1.16842
1.32315
1.59249
1
1.2412
1.16005
1.34528
1.46228
1.30746
1.42781
1
1.12215
0.985376
1.16935
1.32203
1
1.00563
1.09102
0.977625
1.27827
1.23044
1
1.41317
1.02985
1.41184
1.34626
1.04271
1.24374
1.20072
1.02839
1.27139
1
0.999996
1.33162
1.10354
1.13503
1.07148
1.29133
1.25584
1.06859
1.30908
1.28236
1.09321
1
1.26843
1.37903
1.26346
1.19301
1.19724
1.13804
1.203
0.96805
1
1.40485
0.948232
1.3769
1
1.10018
0.779023
1.42897
1.40953
1.19107
1.3609
1.03844
1.2383
1.32355
1.03688
1.30915
1.13504
1.10223
1
1
1.28877
1.3735
1
1.42927
1.33994
1.02677
1.09416
1
1.3153
1.0267
1.13755
1.24945
1.23648
1
1.11063
1
1.34556
1
0.975875
1.22954
1.25973
1.30133
1.22593
0.99064
1
1.02489
1.02101
0.780959
1.35937
1.20719
1.3663
1.47797
1.36578
1
1.37418
0.77971
1.37635
1.31124
1.26836
1.36071
1.29676
1.38234
1.38351
0.781592
0.947226
1
1.27855
1.26846
1.38752
1.27975
1.42909
1.38479
0.999976
1.166
1.14657
1.38523
1.38627
1.23445
1
1.15441
1.13223
1.12734
1.13852
1.38082
1
1.37368
1
1
1.36745
1.17177
1.29243
1.13928
1.13616
1
1
1.30662
1.32324
1.09144
1.00959
1.2765
1.01174
1.01941
1.04124
0.951407
1.31649
1.04813
1.03374
1
0.983289
1.31225
1.32524
0.958588
0.779495
1.23838
1.21714
0.781807
1
1.06771
1.37637
1.13864
1.21662
1.29878
1
1.34024
1
1.22098
1.29726
1.14279
1.2104
1
0.998962
1.13987
1.00392
1.3618
1.14282
0.93651
1.20015
1.23899
1.3602
1
1.14543
1.1489
1.15556
1.15266
1.16248
1.15904
1.29406
1.28332
1
1.1707
1
1.16873
1.31937
1.28098
1.21554
1.2753
0.798002
1.38338
1.28704
1.28196
1.17891
1.17507
1.36176
1.25343
1.10327
0.781369
0.772167
1.18934
1.18787
1.19965
1
1
1.28689
1.13787
1.06292
1.11504
1.28606
1.36027
1.19668
1
1
0.934191
1.12965
1
1
1.40361
1
1.2104
1.21007
1.2168
1.21672
1.14254
1.11264
1.28121
1.35837
1.15385
1.17965
1.23687
1.23614
1.36135
1.15721
1.17644
0.778345
1.15264
1.05389
1
1.01764
1.07128
0.782702
1.34811
0.839866
0.781214
1.24188
1.359
1
0.989423
1
1.31668
1.11504
1.35013
1.26508
0.943948
1.36395
1.30675
1.08012
1.36126
1.39591
1.31823
1.1552
1.31899
0.777475
1.36036
1.17702
1.28969
1.47914
1.36065
1.27805
1.35798
1.00016
1.2031
1.36093
1.11572
1.20585
1.35934
1.20284
1.55551
1.41054
1.3612
0.89215
1.12553
1.46413
1.1972
1.36051
1.25582
0.999983
1.36292
1.11461
1.21077
1
1.15133
1.13448
1.27877
1.46629
1.24265
1.1137
1.3947
1.26887
1
1.47349
1.02469
1.5597
1.36083
1.35967
1.51047
1.55916
0.948348
1.38912
1.36199
0.904032
1.34874
1.14047
1.48634
1.30969
1.16237
1.16476
1.36036
1
1
1.15243
1.27919
1.29029
1.3617
1.24602
1.36345
1.03248
1.46456
1.36536
1.24075
1.22254
1
1.5682
1.25891
1.55856
1.56536
1.28779
1.55773
1.66916
1.60236
1.11518
1.10287
1.61814
1
1
1.00001
1.38768
1
1
1
1.39327
1
1.22961
1.1397
1.31699
1.32665
1.30915
0.945331
1.26731
0.780517
1.58631
1.36707
0.992848
0.987203
1.04982
1.22939
1.3159
1.01196
1.1654
1.22778
1
1.4021
0.978568
1.10145
1.16037
1
1
1.10083
1.16
1.40131
1.35243
1.41019
1.38823
1.23978
1
1.39559
1.39025
1
1
1.41154
1.1977
0.984998
0.985447
1.09447
1.5658
1.10952
1.06454
1.24764
1
1
1.25332
1.32069
0.988635
1.11447
1
1.11683
1.2709
1.13396
1.41717
1.13364
1.16597
1.39488
1.12465
1.31852
1.22329
1.5836
1.23422
1
1.3179
1.3617
1
1
1.26567
1.35916
0.781115
1.44843
1.27361
1.27118
1.30836
1.18854
1.17078
1.33196
1.2974
1.37365
1.1374
1
1.19594
1.13427
1.35905
1.35683
1.25236
1.64281
1.6398
1.31241
1
1.35753
1.19544
1
1.09694
0.773383
1.16247
1.23889
1.35131
1.23936
1.22307
1.28956
1.35058
0.97719
1.04969
1.35958
1.29572
1.03062
1.02789
0.87559
1
1.58742
1.12854
1.34027
1.23351
1.55656
0.774614
1.641
1.27989
1.55498
1.06787
1.33036
1.43942
1.56059
0.989763
0.999998
1.225
1.28896
0.882775
1.27499
1.24889
1.22808
1.11964
1.12045
1
1.15825
1.11089
1.28133
1.57386
1
1.58041
1.05778
1.37029
1.16337
1.27495
0.936248
1.18028
1
1
1.35302
1.32518
1.01608
1.15845
1.22251
1.15485
1.30867
1.42329
1.1915
1
1
1.19491
1.10879
1.24602
1.13642
1.09771
1.37147
1
1.12564
1.39653
1.36555
1.36386
1.11783
1.22821
1.47195
1
1
1.00631
1.25093
1.12589
1
1.1569
0.985457
1
1
1.71696
0.997191
1.15495
1.23325
1.3724
1
1
1.66952
1
1
1.22901
1
1.19581
1.11634
1
1.34655
1.29366
1
1
1
0.926785
1.39833
1.19919
1.29764
1
1.23267
1.30014
1.3511
1.36506
1
1
0.984858
1.12322
1.13166
1.15217
1.46001
1.13277
1.09501
1.15477
1.40577
0.99981
1.32911
1
1.34419
1.32736
0.956424
1.33046
1.39653
1.34965
1.30374
1.33031
1.40913
1.28727
1
1.01983
1.39408
1.29733
1.40989
1.05525
1.14318
1.35814
1.41638
0.798436
1
1.30279
1.20994
1.35127
1.04912
1
1.30645
1.47455
1.32963
1
1.11993
1.1112
1
1.2878
1.00001
0.785674
1.41215
1.34812
1.09955
1.35473
1.3076
1
1.10587
1.3247
1.14861
0.921177
1.345
1.42631
1.2655
0.965965
1.28126
1.36072
1.1283
0.999303
1.10679
1.05117
1.36251
1
0.881832
1.11666
0.959137
1
1.30166
1.34425
1.1053
1.10802
1.19257
1.00011
1.1522
1.3454
1.48375
1.35951
1.14007
1.16265
1.30778
1.3622
1.25789
1.12736
1.45281
1.39635
1.37469
1.06256
1.3606
1.27886
1.41133
1.34823
1
1
1.36317
1.38894
1.29294
1.22706
1.07401
1
1.28173
1
1.16726
1
1.16783
1
1.29913
1.14308
1.43366
1.41318
1
1
1.6762
1
0.994007
1.2811
1.69824
1.60277
1.37044
1
1.01781
1.34817
1.01993
1
1.09805
1
1.27887
1
1.01619
1.35773
1.36194
1.33147
1.11074
1
1.29272
1.30201
0.999998
1
1.09014
1.29189
0.999985
0.998767
1.34925
1.08973
1.26981
1.33465
1.34666
1.50505
1.05113
1
0.967362
1.12429
1
1.10426
1.3613
1.34905
0.965491
1.06909
1.12161
1.36363
1.27231
1.16881
1.03993
1.24782
1.5527
1.43223
0.999999
1.24946
1.35942
1
1.08377
1.2586
1.1381
1.15057
1.26267
1.31776
1.40649
1.44797
1.40855
1.09146
1.26484
1.30965
1.1697
1.03723
1.40994
1.45489
1
1
1.26693
0.946608
1
1.22338
1.39008
1.12439
1.2439
1
1.24654
1
1
1
1.23972
1.19127
1
1.05632
1.23235
1.21127
0.963771
1.41448
1.21352
1.37421
0.999991
1.4801
1.16866
1
0.969668
1
1.3076
1.17548
0.978115
1.46486
1.19706
1.35453
1.24071
1.19517
1.17911
1.07305
1.19715
1.18882
1.17259
1.19148
1.18511
1.35094
1.18656
1.28666
1.06489
1
1.33241
1.34508
1.2793
1.1194
1.34684
1.17217
1.17663
1.35142
1.32876
1.26678
1.33074
1
1.46528
1.00001
1.05971
1.34727
1.1706
1.17466
0.777192
1.35644
1.40546
1.35906
1.1007
1
1.10094
1.2882
1.34994
1.4973
1
1.34859
1.3585
1.35048
1.11675
1.63431
1.22186
1
1.35116
1.09252
1.36462
1.22856
1.12127
1.35137
1
1.35225
1
1.26459
0.998256
1
1.27206
1.11219
1
1.35958
1.29389
1.45085
1.40219
1.64026
1.00002
1.14067
1.20551
0.999999
1.40675
1.26809
1.2363
1.20522
1.34986
1.44356
1.35994
1.21925
1.20762
1.00044
1.67878
1.22563
0.912973
1.30783
1.17415
1.49152
1.26393
0.934438
1.15444
1.1712
1.07964
1
1.68439
1.50044
0.980534
1.28917
1.00003
1
1.17454
1.41204
1.13415
1.29631
1.37263
1.04758
1
1.12303
1.38025
0.798566
1.67489
1.28921
1.03546
1.00006
1.17078
1.56861
1.36103
1.16373
1.03611
0.961745
1.16273
1.16671
1.51698
1
1.35813
0.920519
0.941275
1.10032
1.35014
1.42895
1.51033
1
1.25638
1
1
1
1.22085
1
1.11723
1.13547
1.01615
1.23118
0.954162
1.13788
1.424
1.14977
1
1.42122
0.995631
1
1.00407
1.17642
1
1
1
1.32505
1.51023
1.11699
1.41835
1.11816
1.22444
1.65123
1
1.34916
1
1.4155
1.53884
1.09918
1.35098
1.22432
1.35027
1.12724
1.10022
1.33089
1
1.35042
1
1.4065
1
1
1
1.4367
1.35857
1
1
1.39429
1.19757
1.42837
1.39834
1.25754
1.30543
1.39344
1.03388
1
1.33019
1
1.02455
1.348
1.02647
1.416
1.3746
1.24663
1.19881
1.37454
1.19599
0.775746
1.36118
1.3612
1.18043
1.20332
1
1.17779
1.36231
1.58303
1.60246
1.35546
1.00497
1
1.18518
1.6438
1.25131
1.32412
1.32788
1.19109
1.00624
1
1.19279
1
1.35604
1
1.27819
1.36123
1
1.34438
1.16609
1.10749
1.34882
1.27954
1.36282
1
0.99279
0.998484
1.23104
1.30885
1.27414
1.2722
1.35911
1.35875
1.18212
1.21196
1.12397
1.18464
1.33091
1.35984
1
1
1.18722
1
1.35104
1.2145
1.24572
1.21579
1
1
1.18812
1.29454
0.996027
1.13138
1.15178
1.18896
1.18849
1.24713
1.36044
1.33146
1
1.21019
1.13386
1.32615
1.2103
1.21914
1.36014
1.0463
1.1746
1.21296
1.24322
1.33718
0.949498
1.35945
1.27568
1.27987
1.10124
1.3572
1.36002
1
1.36017
1.24625
0.949314
1.30091
1.30788
1.32226
1.32027
1.1899
1.14426
1.31491
1.36668
1.30936
1.34938
0.786449
1.34604
1.26075
1.2734
1.26064
1.07508
0.972359
1.33517
1.45528
1.40914
1
1.38674
1.27432
1.28097
1.26205
1.14069
1.15625
1.16703
1.35712
1.11771
1.3578
1.35879
0.965479
1.17554
1.36104
1
1.0812
0.958721
0.956379
1
1.32854
0.954074
1.36919
1.36823
1.35223
1.33316
1.40746
1.00011
1.37996
1.3778
1.35178
0.972929
1.25537
0.948708
1.36047
1.38534
1.38277
1.3619
1.10121
1.17735
1.23995
0.977704
1.3617
1.15749
1.41683
1.27829
1.36172
1
1
1.38331
1.38665
0.769826
1.36129
0.900314
0.951606
1.56059
1.25901
1.21455
1.22593
1.1297
1.25683
1.36263
1.11875
1.1167
1.38374
0.998558
1.07133
1.26107
1.23906
1.12762
1.09188
1.35021
1.12535
1
0.999998
1
1
1.35227
1.06285
1.09422
1.24902
1
1.2656
1
1.34807
1
1.13732
1.13361
1.33059
1
1.34907
1.59661
0.997271
1.15662
1.0842
1.19806
1.19376
1.2295
1.00523
1.15512
1
1
0.999414
1.14752
1.23382
1
0.988749
1.0751
1.53544
1.13027
1.16536
1.2589
1.07851
1
1.02527
1.11156
0.984493
1.54456
1.42257
1.3158
1.43079
1.12087
1.00011
1.15504
1.16095
1.26403
1.02793
1
1.15781
1
1
1.28338
1.0222
1.67125
1.15772
1
1.11109
1.16939
1.12473
1.28615
1
1
1
1.2891
1.70985
1.35385
1.00815
1
1.28775
1.17758
1.26387
1.32018
1.28722
1.1906
1.21256
1.18992
1.153
1.0012
1.66954
1.28426
1.15869
1.35229
1.13036
1.30514
1.04053
1.272
1.06194
1.3474
1.14554
1.27904
1.37706
1.00108
1
1.14331
1.34779
1
1.31967
1
1.19156
1.1911
1.23525
1.34036
1
1.32623
1.22654
1.09471
1
0.899768
0.994138
0.98021
1.00572
1.29426
1.56535
1
0.984803
1.0824
1.44053
0.969552
1.35635
1.2693
1.02515
1
1
1.54119
1.17214
1.26963
1.17173
1.22326
1.22081
1.33453
1
1.697
1.2684
1.08578
0.949802
0.946858
1
1.48293
1
1.27084
0.899765
1
1.23929
1.26927
1.34696
1
1.35185
1.20861
1.26643
1.17408
1.35116
0.999993
1.26546
1.34355
1.05244
1.25109
0.999999
1.1999
1.32831
1.04761
1.20499
1.23711
0.999997
1.24696
1
1
1
1.34911
1
1.25445
1.25164
1.10711
1.59176
1.40102
1.14444
1.44932
1.20799
1
1.25499
1.34901
1.34884
0.922481
1.33188
1.25437
1.68893
1.20138
1.3497
1.13397
1.07068
1.2583
1.34888
1.14009
0.999999
1.12013
1.34655
1.55481
1.0695
1.11406
1.12361
1.19278
1
1.33296
1.54627
1.27951
1.27611
1
1
1.30617
1
1.00009
1.34882
1.07001
0.999564
1
1.35
1.13085
1.28643
1
1.316
1
1.17908
1.17702
1
1.18176
1.17111
1.31055
1.08755
1.00004
1.48493
1.32334
1
1
1.18681
0.94156
1.13255
1
1.20063
1.18727
1.12156
1.69796
1.27422
1.14352
1.27372
1.11279
1.12782
1.38892
1.38897
1.25611
1.11718
1.2362
1.34491
1.29749
1.19262
1.25384
1.13286
1.26734
1.19509
0.897962
1.26818
1.42058
1.00021
1.34993
1.19633
1.35787
0.991774
1.19774
1
1.18091
1.17793
1.24131
1
1.22478
1.35336
0.998426
1.50682
1
1.16726
1.21823
1.31041
1.23934
1.36156
1
1.31255
1.13862
1
1.2683
0.979945
1.22407
1.68866
1.26756
1
1.21642
1.21972
1.21182
1.23301
1
0.992731
0.980459
1.49519
1.21457
0.783639
1.42141
1.55806
1.40832
1.37893
1.40888
1
1.00001
1.18231
1.43546
1.25033
1.21284
0.991228
0.985795
1.23332
1.17498
1.34794
1.4728
1.21648
1.00049
1.14949
1.00002
1.3471
1.30771
1.14283
1.00466
1.20743
1.34574
1.27944
1.2282
1.34146
0.996609
1.60242
1.19457
1.66335
1.2429
1.34346
1.18176
1.25389
1.34897
1.14425
1.2954
1.18558
1.18344
1.31325
1.02911
1.46559
1.19235
1.04274
1.21768
1.34729
1.19942
1.19462
1.04177
1.27257
1.45757
0.984813
1.11167
1.09246
1.25289
1.20471
0.99996
1.1652
1.28048
0.995087
1.16088
0.98788
1.13085
1
1.09137
1
1.29627
1
0.989689
1.46292
0.985532
1
1.25429
1.25457
1.04563
1.22712
0.982957
1.10125
1.39634
0.983061
1.2372
1.25805
1.03172
1
1
1.37776
1.24498
1.67228
1.21744
0.940224
1
1
0.987398
1.39598
1.18564
1.07873
1.3357
1.0109
1.45691
1.34629
1.06498
1.34879
1.34852
1.29826
1.27855
1.00069
1.27228
0.999999
1.27772
0.970354
1
1
1.14545
1.00001
1.28829
1.31005
1.33868
1
1.34079
1
1
1
0.999998
1.32136
1
1.13786
0.963595
1.09038
1.12854
1
1.28059
1.34421
1.11896
1.31419
0.978532
1.30446
1.34918
1.67461
0.999994
1
1.1718
1.27716
1.27328
1.01249
1
1
1.25353
1
1.48541
1.66679
1.34496
1.34801
1.14232
1
1
1
1.34075
1.29502
1.43616
1.67607
1
1.31378
1.03989
1.23686
1.52795
1.33907
0.979629
1
1.04762
1.13256
1.34944
1.01439
1.30128
1.07032
1.21697
1.11825
1.35549
1
1.0646
1.00633
1.34911
1.07387
1.14778
0.986026
1.29167
1
1.06842
1.05998
1.52645
1.29964
1
1
1.02653
1
1.34121
1
1
1.13123
1.0294
1.11177
1.35122
1.16384
1.51943
1.18133
1.34633
1
1.08353
1
1
1.15949
1.66646
1
1.19006
1.02004
1.05886
1.66699
0.999909
1
1
0.769409
1.19971
1.30662
1
1.28615
1.05959
1.22447
1.17572
1.30797
1
1.35072
1.15053
1
1.1444
1.20005
1.18334
1
1.34994
1.10204
1
1.21226
1
1.32591
1.35021
1.3354
0.984979
1.24229
1.34985
0.956322
1.30072
1.23166
1.1694
1.00001
1.17968
1
1.22963
1.03636
1.09928
1.57071
1.32667
1.31031
1.07185
1
1.40339
0.95572
1
1.00002
1.05101
1.41175
0.999967
1
1.42391
1
1
0.994628
1.07432
1.54631
1.04197
1
1.3648
1
1.00003
0.97212
1.15963
1.68035
1.66936
1
1
1.00001
1.26881
1.05458
1.12174
1.26272
1.26428
1
1.14708
1
1
1.40629
1.15462
1.51754
1
1.31679
1
0.987074
1.00021
1.28879
1
1.34758
1.24193
1.14396
1
1
1
1.10269
1.11576
1
1.34915
1.13586
1.04963
1.03989
1.19662
1
1
0.999719
1.06072
1.11806
1
1.34891
1
1
1
1.46038
0.999999
1.26535
1.34526
1.25842
1.14007
1
1.59306
1.05285
1.32327
1.0679
1.0029
1.3144
1.38803
1.08171
1.34992
1.4474
1.46359
1
1.46101
0.980627
1.3545
1.2025
1
1.34883
1.46503
1
1.22456
1.46913
1
1.25658
1.24037
1.25655
1.04764
1
0.999584
1
1
1.00003
1.27675
1.57455
1.24216
1.17085
1.27579
1.35949
0.99211
1.14287
1.5763
1
1.46593
1
1.39703
1.13249
1.39673
1
1
1
1
0.996295
1.47416
1
1.03547
1
1
1
1.65086
1.2154
1.60913
1.58158
1.43369
1.00049
1.61012
1.39325
1.0402
1.34987
1.38873
1.30047
1.16836
1.05168
1
1.38868
1.29913
1.44308
1.44248
1.35791
0.999997
1.40924
0.940515
1.36253
1.00005
1.65522
1.19988
1.32542
1.40915
1.34996
0.764834
1.38629
1
0.904429
1
1
1.33524
1.0815
1.24486
0.971308
1
1.4074
1.65648
1
1
1.26369
1.18082
1.30937
0.999902
1.01859
1.31433
1.34987
1
1.31888
1.2371
1
1.38286
0.994611
1
1.2506
0.900328
1.00006
1.20878
1.13227
1.5278
1
1.00513
1.35026
1.70303
1.11591
1
1.18975
1.34945
0.959061
1
1.53025
1.28454
1.13533
1.63515
0.998519
1
0.89472
1
1.35018
1.09004
1.08316
0.984132
1.38272
1.02058
1.03224
1
1
1.31724
1
1.34675
1.14371
0.954237
1.20162
1
0.894694
1
1.21328
1.35799
1.16911
1.09621
0.767916
1.34996
1.29897
1
1
1.25514
1.2456
1
1.16464
1.64642
1.20353
1.3916
1
1
1
0.992697
1.34503
1.1927
1.15015
1.11728
1.25327
1.16477
1.38469
1
1
1
1.25861
0.981813
1.04202
1.34913
1.04917
1.04503
1.38198
1
1.25172
1.1211
1
1
1
1.6929
1.59982
1.2898
1.1364
1.3102
1.12738
1.342
1.13083
1.66423
1
1
1
1.34768
1.13612
1
1.38016
1
1.28094
1.29697
1.35182
1.34925
1.34795
1.3012
1
1.35096
1.35525
1.31573
1
1.27259
1
1
1.57224
1.33658
1
1
1.09563
1.24197
1.39611
1.02221
1.3437
1.16937
1
1
1
1.26045
1
0.949955
1.56818
1.43299
1.28509
1.29253
1.34984
1.21862
1.23471
1
1
1.14318
1.34401
1
1.18932
1.19349
1.22676
1.34807
1.24574
1.25325
1.05915
1.16617
1.26938
1.23601
1.68313
1.36536
1.23731
1.28444
1.34948
1.34974
1.1502
1.18522
1
1
1.34958
1.29731
1.09647
1.27565
1.3527
1.13262
1.28516
1.00001
1.17903
1.30642
1.34943
1
1.18346
1.17715
1.25268
1.15539
1.34942
1.6646
1.34912
1.66778
1.35
1.28916
1.28373
1.24177
1.34947
1
1.17453
1.27646
1.35508
1.06058
1
1.34995
1.01526
0.754932
1.14862
1
1.01586
1.12165
1.3497
1.25498
1.12738
1.11245
1.35102
1
1.21641
1.59007
0.974342
1.15468
1
1.16266
1.22827
1
1.34938
1.31891
1.56745
1.21047
1.19681
1.20297
0.999996
1.27529
1
1.42083
1.34964
1.26275
1.05087
1.15675
1.24208
1.32948
1.20446
1.32012
1
1.27975
1
1.25169
1.231
0.994006
1.2299
1.15351
1
1.16693
1.19455
1.18056
1
1
1.00338
1.31023
1.34997
1
1
1.1343
1
1.18731
1.33027
0.997746
1
1.10749
1
1.43547
1.15208
1.35292
1.19634
1.19827
1
1.1351
1.20802
1.17749
1.18346
1
1.08721
1.35143
1
1.11792
1.14487
0.980153
1.17444
1.13422
1.18322
1.3497
1.12985
1
1
1.00002
1.17317
1
1.20775
1.16351
1
1
1
1.00006
1.34757
1.06357
0.742861
1.3465
0.973796
1.60047
1.15895
0.96343
1.011
1.08208
1.18672
1
1.14659
1.34908
1.23132
0.900271
1.34863
1.26052
1
1.29964
1.54615
1.34616
1
1.18055
1.1795
1.17806
1.14519
1.18683
1.13892
1.38102
1.35015
1.18399
1.31561
1.50504
1.35091
1.16208
1.38222
1
1.24406
1.21544
1
1
1
0.935902
1
1
1.1673
1
1
1.34976
1
1.14819
1.35007
1
1
0.99843
1
1.37679
1.34969
1.17223
0.962974
1.35011
1.35243
1.42654
1
1
1.32002
1.34044
1
0.974253
1.08465
1.16666
0.967718
0.967565
1.1179
0.940504
0.999938
1.06128
1.34953
1.35007
0.99882
0.957374
1.34996
1
1
1.26961
1
1.15214
1
1.35008
1.1606
1.16261
1
1
1.12358
1.35629
1.4221
1.34944
1.00034
1.33889
1.19444
1
1.15107
1
1.35154
1
1.00625
0.955295
1
1
1
1.31031
1.23108
1
1
1.11509
1.00383
1.3296
1.11786
1
1.16246
0.938417
0.966478
0.999999
1
1.34863
1.32221
1.26259
1
1.12972
1.32162
1.38889
1.34996
1.21341
1.35421
1
1.00454
1
1.65692
1.20534
1.34996
1.28861
1.34846
0.964759
1
1
0.940548
0.999999
1
1.35069
0.962249
0.949814
1.2598
1
1.00063
1
1.33572
1.35986
1
1
1.21696
1
1.1321
0.910539
1.14545
0.93977
1.42272
1.63599
1.05149
1.34489
1.07222
1
1.67491
1
1.3464
1.34892
0.946425
1
1
1.34637
1.22732
1.00902
1
0.747478
1.28275
1.20971
1.00196
1.34379
1.30777
1
1.12376
1.23916
0.994247
1.39794
1.27449
1
1
1.00132
1.15653
1.387
1.3492
1.35163
1.33937
1.01965
1.2468
1.35012
1.27979
1.33477
1.26525
1
1.00033
1
0.999998
1.02578
0.909778
1.36441
1.19158
1
1.31152
1.22104
1.17712
1.17207
1.18811
1
1.21697
1.56857
1
1
1.07177
1.34918
1.58752
1
1
1
1
1.73254
1.27193
1.34633
1.39746
1.28716
1
0.999999
1.34916
1.34944
1.25362
1.07271
1.34702
1
1.37551
1
1
1.00008
1
1.05602
1.40849
1
1.19341
1
1.35144
1.22332
1.33883
1.00075
1.00007
1
0.899698
1.04393
1
1.3619
1.34777
1
1.2746
1.20808
1.51326
1
1.33653
1
1.00004
1.13616
1.13794
0.998058
1.24699
1
0.99278
0.999069
1.35135
1.31829
1
1.35136
1.02444
1
0.755584
1.33024
1.04071
0.883171
1.36622
1
1.2429
1
1
1
1.3485
1.46653
1
0.999674
1.06197
1.3955
1.27047
1
0.907011
1.34946
1
0.996546
1.58083
1.26807
1
1.26243
1.23679
1
1
1
1
1.37319
1.15246
0.898118
0.999828
1.4705
1.26505
1.35467
1.49947
1
1
1
1.23903
1
1.42364
1.40406
1.34181
1.23428
0.765735
0.835835
1.10631
0.916341
0.761085
1
1.56605
1.5332
1.30886
1
1
1.31194
1.35073
1.03261
1.32527
1.36182
1.33453
1.35324
1.31959
1.34676
1.03349
1.12936
1
1
1
1.3286
0.995736
1
1.13397
0.98856
1.05167
1.30313
1
1.32662
0.999752
1.49413
1
1
0.845545
1.22088
0.949592
1
1.34967
1.34997
0.929026
1.34904
1.46948
1.30761
1.34847
1.34908
1
1
1
1
0.795538
1
1.19332
1.00966
0.749198
1.34981
0.970228
1.14831
1.30029
1.0603
1.13565
1
1.02088
1
0.998588
1.3501
1.34925
1.50907
0.918466
1
1
1
0.898337
1.39541
1
1
1
1
1.36318
1
1
0.76557
1
1
1
1
0.859229
1
1.43583
1.2502
1.04977
1
1
1
1.10369
1.32483
1
1
1.40108
1.55886
1
0.791566
0.749365
1
1
1
1.21405
1.41882
1.13612
1.00333
1
1
1
1.19766
0.979743
1.19488
1.34929
1.34902
1
1
1.37933
1
1.20764
1.35293
0.989496
1.35067
1.53602
1.16322
1.3525
1.47246
1
0.949252
0.814342
1
0.980449
1
1.3586
1.06483
1
0.907439
0.893025
1
1
1
1.001
1.00773
1.34765
1
1
1
0.984754
1
1.06193
1
1
0.807182
1
1
1
1.44344
1.32586
1
0.770087
1.18926
0.757988
1
1.35205
1.31772
1.50124
1.02218
1.26432
1.18854
1.01434
0.901974
0.996544
0.768058
1.335
1.43829
1.54777
0.764893
1.37138
1
1
1
1.48973
1.3436
1
1
0.931653
1.26245
1.06875
1.30453
1.18191
1.19045
1.30485
1
0.779341
1.34992
1.0672
1.28558
0.942151
1.52977
0.987646
1.35457
1.45694
1
1.35195
1
1.34904
1.34744
1.13358
1.31631
1.30993
1
1.34868
1
1
1
0.989684
1
1.34969
1
1.01347
1
1.20362
1
1.00166
1
1.33661
1
1
1
1.00004
1.55153
1
1.28824
1.35003
1.35403
1
1.35929
1
1
1.2474
1.34842
1.64688
0.766311
0.743583
1
1.19343
1
1.42404
0.898967
1.34928
0.769308
1.33106
1.22339
1.1946
1.34988
1.29301
1.00025
1.00132
1.21466
1.00255
0.839374
1.02219
1
1
1.45175
0.974978
1
1.32254
0.771913
1
1
1
1.34146
1.59586
1.35038
1.24081
1
1.34836
1.23376
0.99797
1.35173
0.992792
1.07812
1.02257
1.06077
1
1.66321
1.00152
1.15433
0.993127
1
1
1.00004
1.34952
1
1.34952
1.03519
0.947023
0.769314
1.2068
1.02011
0.760357
1.04822
1
1.06094
1.04575
1.45704
1.0534
1
1.34896
1.22314
1.38299
1.19486
1.01549
1.39482
1.35585
1
1
1.05351
1.1628
1.11409
1.66076
1
1
0.998087
0.767627
1.18366
1
1.3488
1.10646
1.34927
1
1.49146
1
1
0.876561
1
1
1.3483
1
1
1
1.11191
1
1.25023
1.27447
1.16296
1.29865
1.14498
1.30288
1.34958
1.352
1.44266
1.01291
1.16173
1.21923
1.20538
1
1.21779
1.05229
1.34361
1.34924
1.18396
1.05175
1.14688
0.763593
0.981921
1.3497
1
0.752225
1.26056
0.997628
1
1
1
0.751184
1.28306
1.03252
1
1.21217
1.2182
1.32046
1
1.14767
1.21585
1.35006
1.05921
1.15675
1.21499
1.22274
1.25949
1.34819
1.35716
1.21091
0.773656
1.22457
1
1
1.34968
1
0.989735
1
1
1.34553
1.34954
1.28392
1
1
1.37151
1.00052
0.98715
1
1.01688
1.3033
1
1.01881
1.00513
1.02593
1.29368
1.38677
1
1
1
1.01267
1.34945
1.38037
0.97201
1.66557
1.41366
1.24904
0.969872
0.883191
1
1.14777
1.1548
1.11712
0.76564
1.48442
1.43594
1
1.17681
1.26051
0.859352
1.34825
0.886778
1.34946
1.16972
0.747391
1
1.3493
0.891433
1.6564
1.37062
1.01462
1
1.50167
1.2886
1.16192
1
1
1.35411
1.01477
1.2154
1.3442
1.37469
1.50666
1.1464
1.1785
1.00891
1.40836
1.00003
1.03623
1.34968
1
1
1.28829
1.24599
1.67049
1
0.751121
1.15284
1.25531
1
1.34838
1.68889
1
1.33662
0.837265
1.16565
0.812925
1.64052
1
1
1
1
1
1.67081
1
1.19109
1
1.22407
0.742816
0.741555
1.50621
1.32448
0.758659
1.25003
1.16988
1.16328
1
1.47989
1.15473
1.0203
1.67866
1
1.34963
1.2077
0.751911
0.795232
1
1
1.02143
1.18249
1.65903
0.779629
1.18776
1.1671
1
1.52139
0.755944
1
1.3496
1.17952
1
1
1.42403
1
1.34778
1
0.768291
1
1
1.16093
0.984524
1
0.99542
1.34853
1
1
1.03451
1
1
1.33123
1.03555
1.31458
1
1.26118
1.00698
1.34939
1.3503
1
1.35284
1.33622
1.15621
1
1
1.20463
1.49477
0.756023
0.995829
1.39047
1.09742
1.34934
0.99225
0.750431
0.982515
1
1
1.11723
1.3305
1.65065
1.07796
0.902574
1.5999
0.762578
0.772626
1
1.38687
0.758993
1.34833
1.38747
1.05527
1
1
1.24589
1
1.32928
0.985852
1
1
0.750656
1.02171
1
1.34796
1
1.14848
0.763965
1
1.17862
1
1
1.3308
1.34808
1.10817
1.33754
0.753769
1.34937
1.35921
1.19634
1.14263
1.34912
1
1.34487
1
0.937896
1.02527
1
0.995955
1.18312
0.746285
1.04471
1.35231
1.23861
0.876311
1
0.758311
1.34674
0.770776
1.13057
1.3527
0.990896
1.18243
1.04524
0.989689
0.743058
0.987241
1.34994
1
1.34889
0.743973
1.00001
0.984097
1.37125
1.28527
1.35354
1.12803
1.53669
1.26249
0.888068
1
1
1
0.909665
1.15401
1
0.990721
0.776966
1.15986
0.953007
1.35332
1
1
1
1
0.854649
1.26363
1.34953
1
0.977826
0.743676
1
0.766284
1.34787
1.28404