/*--------------------------------*- C++ -*----------------------------------*\
  =========                 |
  \\      /  F ield         | OpenFOAM: The Open Source CFD Toolbox
   \\    /   O peration     | Website:  https://openfoam.org
    \\  /    A nd           | Version:  12
     \\/     M anipulation  |
\*---------------------------------------------------------------------------*/
FoamFile
{
    format      ascii;
    class       volScalarField;
    location    "27.1";
    object      p;
}
// * * * * * * * * * * * * * * * * * * * * * * * * * * * * * * * * * * * * * //

dimensions      [1 -1 -2 0 0 0 0];

internalField   nonuniform List<scalar> 
9801
(
0.698317
0.703256
0.70586
0.70123
0.689223
0.676321
0.667009
0.664032
0.666812
0.69718
0.752183
0.78425
0.799086
0.808377
0.816466
0.809561
0.768651
0.733983
0.719272
0.71535
0.717056
0.720415
0.726689
0.763415
0.846343
0.895681
0.912065
0.920279
0.925105
0.917016
0.868367
0.815919
0.793893
0.790909
0.793119
0.797404
0.806416
0.834035
0.877597
0.909219
0.927368
0.93913
0.948342
0.956973
0.963245
0.95341
0.935355
0.924987
0.918558
0.912088
0.910011
0.914793
0.931937
0.959924
0.986652
1.00851
1.0273
1.04157
1.05171
1.05991
1.06738
1.07212
1.07596
1.08038
1.08172
1.07489
1.0714
1.07821
1.09022
1.10591
1.12582
1.16057
1.2032
1.22859
1.24046
1.24675
1.24899
1.25359
1.25285
1.22659
1.19274
1.18366
1.19368
1.21166
1.26
1.34523
1.40702
1.44362
1.47365
1.50535
1.51474
1.47441
1.43716
1.43564
1.48171
1.60189
1.85207
4.83589
31.2771
0.717337
0.706865
0.69581
0.682364
0.671328
0.66593
0.666618
0.669798
0.686161
0.739724
0.784625
0.803535
0.813319
0.819946
0.820185
0.791397
0.744361
0.722921
0.721102
0.723396
0.726527
0.731913
0.749019
0.802795
0.867545
0.899483
0.91271
0.919583
0.919566
0.893261
0.84262
0.810654
0.804057
0.804584
0.80758
0.812106
0.823806
0.859267
0.902231
0.927595
0.942016
0.951653
0.959292
0.965506
0.961355
0.937858
0.918425
0.912367
0.913685
0.917991
0.924041
0.941348
0.967924
0.99158
1.00968
1.02372
1.03423
1.04087
1.0394
1.03787
1.04254
1.05266
1.06343
1.07314
1.08205
1.08787
1.08196
1.08445
1.09494
1.10586
1.11804
1.14275
1.18429
1.21606
1.23341
1.24547
1.25658
1.26299
1.25949
1.23508
1.20545
1.19616
1.20422
1.22032
1.25481
1.3344
1.40508
1.44954
1.485
1.51928
1.52912
1.49374
1.45898
1.44774
1.46948
1.54564
1.69017
4.40409
31.6521
0.730518
0.691525
0.662773
0.653616
0.655422
0.660746
0.667588
0.680611
0.728128
0.783945
0.808542
0.817696
0.823728
0.821877
0.794388
0.752471
0.727186
0.721477
0.723011
0.727065
0.735205
0.753227
0.786132
0.833552
0.875094
0.896356
0.904286
0.902894
0.886199
0.85712
0.830123
0.815625
0.813209
0.816455
0.821174
0.826731
0.844424
0.888289
0.923218
0.94052
0.951582
0.960573
0.967575
0.964137
0.93293
0.909123
0.904256
0.907179
0.912931
0.922555
0.944831
0.980954
1.0069
1.02073
1.02933
1.03637
1.03788
1.01886
1.00652
1.00902
1.0217
1.04354
1.06188
1.07529
1.08696
1.09782
1.10094
1.09598
1.09612
1.0994
1.10524
1.11588
1.14356
1.19099
1.22238
1.23931
1.25249
1.26353
1.26453
1.24817
1.22278
1.21023
1.21669
1.23372
1.25909
1.33121
1.42342
1.47657
1.50964
1.53959
1.54611
1.51704
1.48535
1.47491
1.48723
1.54685
1.60961
4.20709
31.7812
0.74867
0.686157
0.65039
0.646398
0.64865
0.65504
0.670441
0.710758
0.763583
0.80238
0.819898
0.82465
0.818373
0.794716
0.766749
0.743905
0.730821
0.727997
0.731727
0.740831
0.757482
0.779871
0.809064
0.84325
0.868166
0.877491
0.877542
0.871577
0.863851
0.848972
0.832858
0.826475
0.826117
0.829454
0.834354
0.840616
0.863874
0.910721
0.939709
0.952215
0.958801
0.964016
0.959681
0.929119
0.902236
0.896481
0.901008
0.908471
0.917354
0.934448
0.977014
1.01639
1.03356
1.04263
1.04954
1.04909
1.01893
0.987773
0.98218
0.989433
1.00722
1.03938
1.06736
1.08539
1.09934
1.11119
1.12051
1.11631
1.10001
1.08781
1.08578
1.09237
1.10589
1.14782
1.2002
1.22818
1.24346
1.25764
1.26924
1.26807
1.24857
1.2287
1.22738
1.24714
1.27267
1.31891
1.39861
1.46461
1.50486
1.53588
1.55327
1.54177
1.51566
1.49207
1.48119
1.51291
1.53655
4.06316
31.8891
0.7301
0.687426
0.660293
0.655611
0.658967
0.671085
0.699273
0.734456
0.771534
0.801112
0.808822
0.802737
0.787145
0.773445
0.762129
0.753334
0.746778
0.748194
0.756695
0.769747
0.781235
0.793725
0.815673
0.834398
0.844246
0.849352
0.852563
0.856192
0.859734
0.856195
0.843679
0.836274
0.836043
0.839332
0.844444
0.852167
0.882897
0.925241
0.945089
0.950974
0.954211
0.952738
0.931868
0.904619
0.894449
0.897569
0.905034
0.913244
0.923078
0.951517
1.00709
1.04002
1.05328
1.05863
1.05886
1.03754
0.99346
0.970667
0.970837
0.979488
0.994732
1.02936
1.07102
1.09785
1.11369
1.12375
1.13045
1.13112
1.11065
1.0835
1.07017
1.07376
1.08517
1.10744
1.16233
1.21335
1.24058
1.25957
1.27685
1.29052
1.28414
1.26002
1.24945
1.25481
1.27616
1.30456
1.35686
1.42883
1.48609
1.52674
1.55938
1.5726
1.5621
1.54189
1.51432
1.50776
1.47501
3.9476
31.9184
0.725396
0.707798
0.690107
0.688558
0.695684
0.710754
0.726677
0.740413
0.75542
0.765419
0.771762
0.77541
0.776877
0.77624
0.776047
0.776897
0.780472
0.783967
0.785796
0.788472
0.793288
0.801174
0.80667
0.810224
0.815709
0.828115
0.845846
0.858146
0.865229
0.868519
0.85729
0.845451
0.843789
0.847456
0.852624
0.861861
0.893412
0.923519
0.936162
0.942071
0.945586
0.939167
0.914819
0.898337
0.897026
0.903406
0.911908
0.920697
0.934235
0.978283
1.02683
1.04801
1.05412
1.05685
1.05276
1.02645
0.987483
0.968427
0.968562
0.976099
0.986244
1.01203
1.06515
1.10806
1.1282
1.13755
1.14293
1.14554
1.13242
1.09781
1.07134
1.06348
1.07163
1.08626
1.11864
1.18101
1.23366
1.2652
1.2872
1.3072
1.32021
1.30281
1.27828
1.26819
1.26974
1.28787
1.31689
1.36395
1.42472
1.47854
1.52246
1.55982
1.58897
1.5955
1.57261
1.53634
1.43923
3.80063
32.0294
0.732438
0.743238
0.742625
0.73385
0.732128
0.735267
0.739465
0.737452
0.726136
0.722793
0.731896
0.75365
0.772985
0.784905
0.796623
0.811596
0.820751
0.821684
0.81368
0.805711
0.801371
0.793833
0.788962
0.79108
0.799154
0.817712
0.844802
0.863667
0.873196
0.878964
0.873515
0.860287
0.855808
0.857987
0.862187
0.872951
0.898108
0.916167
0.927708
0.936401
0.941975
0.935206
0.917568
0.906747
0.90619
0.91184
0.919368
0.927467
0.945266
0.993492
1.03138
1.04285
1.04769
1.05079
1.04884
1.02883
0.993546
0.97099
0.966869
0.971416
0.978876
0.992127
1.04036
1.10365
1.13484
1.14662
1.15381
1.15915
1.15746
1.12531
1.0874
1.07068
1.06913
1.07798
1.09404
1.13743
1.21096
1.26685
1.30195
1.32822
1.34842
1.35048
1.31427
1.28017
1.26786
1.26922
1.28538
1.31179
1.35333
1.41079
1.4713
1.53019
1.57942
1.6064
1.60418
1.56769
1.44581
3.65275
32.1476
0.754779
0.782053
0.786162
0.777734
0.763153
0.751711
0.734299
0.712943
0.705201
0.706636
0.712638
0.729212
0.759734
0.796068
0.825802
0.84075
0.847194
0.849448
0.84455
0.828939
0.802741
0.786025
0.784872
0.78789
0.795292
0.812422
0.838211
0.860359
0.873889
0.88251
0.883718
0.871291
0.863663
0.863426
0.865761
0.881522
0.905667
0.920069
0.928278
0.934581
0.938045
0.92954
0.920934
0.916118
0.914678
0.917215
0.922245
0.928893
0.94668
0.993015
1.0251
1.03831
1.04654
1.05263
1.05472
1.04017
1.00941
0.98252
0.969653
0.967731
0.972019
0.979775
1.00855
1.08271
1.13533
1.15572
1.16675
1.17579
1.18264
1.16645
1.11894
1.08661
1.07472
1.07638
1.08678
1.10744
1.16985
1.25365
1.309
1.34233
1.36345
1.37716
1.35188
1.30043
1.26982
1.26108
1.26398
1.27875
1.30274
1.34764
1.4171
1.48468
1.53761
1.5752
1.59111
1.57004
1.48169
3.58471
32.3311
0.779422
0.803808
0.806752
0.804842
0.792659
0.760801
0.720407
0.7048
0.70436
0.707147
0.712832
0.722283
0.745983
0.797278
0.838057
0.851733
0.857928
0.859946
0.854477
0.832572
0.804573
0.793649
0.793935
0.79727
0.806562
0.824944
0.84264
0.856258
0.867365
0.873389
0.868875
0.860731
0.857349
0.859481
0.870262
0.898402
0.920034
0.931673
0.939866
0.946085
0.94081
0.926946
0.916667
0.911111
0.909302
0.910913
0.914982
0.921134
0.938811
0.984057
1.02171
1.04035
1.05144
1.05953
1.06597
1.05702
1.02378
0.989893
0.970185
0.965663
0.969905
0.977119
0.99462
1.06141
1.13404
1.16653
1.18208
1.19325
1.2031
1.20232
1.15845
1.10767
1.08426
1.0793
1.08574
1.09776
1.13259
1.22766
1.31237
1.34617
1.36461
1.37737
1.36495
1.32274
1.28097
1.25882
1.25434
1.26266
1.27883
1.30879
1.37455
1.4462
1.49696
1.53259
1.54859
1.54535
1.49812
3.61508
32.5419
0.786754
0.810199
0.813683
0.811559
0.78861
0.744796
0.718496
0.712241
0.713006
0.716268
0.723541
0.740673
0.770882
0.80305
0.830332
0.846297
0.852332
0.849523
0.837815
0.825115
0.814864
0.808233
0.809408
0.816964
0.83136
0.84539
0.854919
0.860952
0.862616
0.846867
0.833653
0.834561
0.840925
0.853251
0.884355
0.925681
0.946302
0.954905
0.960636
0.958296
0.945574
0.930116
0.915828
0.90326
0.898267
0.900239
0.905137
0.913605
0.930775
0.977216
1.02647
1.05195
1.06277
1.07022
1.07697
1.07066
1.02727
0.982323
0.965601
0.965718
0.971781
0.980667
0.997987
1.0507
1.13476
1.1791
1.19705
1.20897
1.21772
1.21951
1.19405
1.13614
1.09833
1.08726
1.08884
1.09572
1.11105
1.18886
1.29071
1.33556
1.35487
1.36792
1.36203
1.33583
1.30333
1.27252
1.25461
1.2522
1.26345
1.28514
1.33582
1.41004
1.46505
1.50036
1.51319
1.51974
1.5072
3.668
32.7294
0.785951
0.805089
0.805449
0.791125
0.762811
0.740737
0.727982
0.723898
0.726693
0.735928
0.752818
0.772409
0.790527
0.806657
0.816902
0.822857
0.822502
0.818366
0.818036
0.820922
0.824065
0.827432
0.83691
0.849546
0.856688
0.860941
0.864139
0.861757
0.839263
0.814341
0.8087
0.812184
0.821197
0.846827
0.907093
0.950061
0.963887
0.970978
0.970898
0.955695
0.93501
0.918999
0.905327
0.895197
0.893194
0.89683
0.904235
0.915368
0.934348
0.975405
1.0321
1.06078
1.07198
1.07837
1.07793
1.06103
1.01864
0.982039
0.969809
0.971457
0.978094
0.990709
1.01555
1.06027
1.12775
1.18165
1.20491
1.21602
1.2206
1.22208
1.21172
1.16514
1.11704
1.09901
1.10058
1.10884
1.12605
1.17397
1.25402
1.30906
1.33434
1.34847
1.35053
1.33977
1.32239
1.30048
1.27386
1.2566
1.25569
1.27071
1.3023
1.36739
1.42892
1.46892
1.48729
1.49947
1.50636
3.71922
32.8494
0.778347
0.786324
0.776074
0.75719
0.743919
0.739062
0.740083
0.745016
0.758128
0.773628
0.78356
0.789865
0.799101
0.802531
0.801327
0.79482
0.791198
0.79562
0.804376
0.81274
0.825375
0.847565
0.863888
0.871279
0.875698
0.877457
0.868387
0.841763
0.814815
0.804343
0.805808
0.811585
0.828937
0.874857
0.924364
0.954319
0.968946
0.974146
0.958621
0.929918
0.913399
0.908486
0.904614
0.897531
0.896506
0.90237
0.917621
0.94055
0.960028
0.976183
1.01438
1.05245
1.06679
1.06867
1.06153
1.0478
1.02164
0.99328
0.98166
0.983451
0.993243
1.01871
1.04976
1.07545
1.1072
1.15459
1.18819
1.20254
1.20918
1.21397
1.21338
1.18934
1.14065
1.11753
1.11894
1.13209
1.15718
1.18873
1.22192
1.26094
1.29224
1.31152
1.32208
1.32614
1.32557
1.32085
1.30685
1.28092
1.26461
1.26581
1.28422
1.32446
1.3843
1.43232
1.4571
1.4697
1.48682
3.7778
32.9423
0.756617
0.75862
0.752956
0.747591
0.745526
0.749026
0.759607
0.777207
0.789488
0.794921
0.79579
0.792319
0.785104
0.782663
0.782294
0.780222
0.785852
0.799158
0.810151
0.824606
0.843449
0.858642
0.867639
0.874509
0.873704
0.860694
0.841924
0.824693
0.813821
0.810498
0.813293
0.832832
0.877535
0.911581
0.926482
0.937385
0.943391
0.932845
0.917435
0.905735
0.900388
0.903246
0.90933
0.917091
0.928244
0.942213
0.954928
0.966535
0.973418
0.973857
0.978469
1.00424
1.03623
1.04934
1.05298
1.04703
1.03435
1.01596
1.0047
1.00597
1.02197
1.05256
1.07583
1.08885
1.09419
1.10222
1.13228
1.1694
1.18896
1.19683
1.20009
1.19539
1.17339
1.15217
1.15074
1.16288
1.1808
1.19569
1.20549
1.21597
1.23511
1.2594
1.28128
1.29878
1.3119
1.32121
1.32628
1.32388
1.30406
1.28643
1.28748
1.30302
1.33581
1.38013
1.41104
1.4234
1.4456
3.8608
33.046
0.734563
0.742277
0.748115
0.754429
0.765142
0.778261
0.790303
0.799454
0.804357
0.802903
0.790914
0.77058
0.759481
0.759242
0.768618
0.782864
0.798524
0.819456
0.839012
0.850691
0.856192
0.856379
0.852196
0.841904
0.83457
0.83273
0.829498
0.824751
0.826339
0.832262
0.860125
0.897676
0.91944
0.927821
0.930155
0.914512
0.887714
0.878351
0.883858
0.896578
0.906143
0.912633
0.923874
0.953589
0.982852
0.994747
0.991619
0.98238
0.971049
0.95516
0.947127
0.953545
0.989876
1.03202
1.05091
1.05831
1.05937
1.04917
1.03903
1.04048
1.05825
1.08033
1.09369
1.09466
1.07265
1.05723
1.06205
1.09675
1.14523
1.17201
1.18663
1.20079
1.21177
1.20595
1.19537
1.19379
1.19749
1.20011
1.1956
1.19145
1.1946
1.20696
1.23249
1.26444
1.29352
1.31761
1.33871
1.3567
1.35708
1.3272
1.30321
1.3011
1.31033
1.33035
1.35527
1.36681
1.39351
3.96821
33.1372
0.720634
0.743663
0.759837
0.781678
0.797569
0.804623
0.806052
0.806742
0.805734
0.792831
0.7631
0.743825
0.740455
0.744532
0.760288
0.79499
0.837674
0.862315
0.872405
0.875451
0.86719
0.8406
0.810317
0.797993
0.800647
0.81588
0.829186
0.836491
0.85283
0.896108
0.931436
0.945116
0.946897
0.9398
0.910697
0.870311
0.849121
0.848174
0.858754
0.883583
0.910008
0.93365
0.970644
1.01038
1.03078
1.03691
1.02693
0.990386
0.949381
0.929669
0.927453
0.933639
0.950746
0.998235
1.04452
1.06522
1.07226
1.07917
1.08532
1.09354
1.09877
1.10217
1.10366
1.08609
1.0473
1.02468
1.02258
1.03426
1.08001
1.14073
1.18185
1.21109
1.23465
1.24823
1.24218
1.22533
1.21033
1.19485
1.18391
1.17619
1.17141
1.17728
1.19258
1.22602
1.27127
1.31575
1.35561
1.38077
1.3921
1.37237
1.33083
1.30435
1.29659
1.2956
1.29977
1.31228
1.34339
4.09466
33.2338
0.705566
0.75307
0.792832
0.81516
0.82367
0.827525
0.823332
0.811671
0.790913
0.756145
0.733461
0.728583
0.730666
0.736669
0.763636
0.83281
0.87754
0.891119
0.896644
0.892512
0.861449
0.80676
0.777719
0.772917
0.77761
0.795845
0.826407
0.868029
0.925632
0.960399
0.972579
0.975659
0.968481
0.928841
0.875529
0.843414
0.832121
0.833156
0.840816
0.862918
0.909176
0.971964
1.0307
1.05606
1.06325
1.06278
1.04586
0.987378
0.936447
0.921984
0.923318
0.929123
0.937234
0.960885
1.01497
1.06001
1.08396
1.10387
1.12988
1.14271
1.13865
1.12361
1.10422
1.06658
1.02485
1.0039
1.00066
1.00556
1.02213
1.08096
1.15932
1.20979
1.23553
1.25157
1.26148
1.2589
1.23369
1.20686
1.18651
1.17099
1.16158
1.16184
1.17213
1.19393
1.24322
1.31036
1.363
1.39134
1.406
1.40216
1.36865
1.32842
1.29713
1.27171
1.25702
1.24803
1.28871
4.22372
33.3201
0.710213
0.776615
0.812045
0.825625
0.832385
0.835802
0.834688
0.813247
0.763633
0.730283
0.722589
0.724185
0.728524
0.743499
0.804411
0.868523
0.891786
0.900832
0.904789
0.888565
0.828734
0.781431
0.768013
0.767961
0.771026
0.782527
0.835709
0.929784
0.973769
0.986768
0.992475
0.986663
0.950494
0.902733
0.866864
0.844059
0.834493
0.834517
0.839499
0.851627
0.896528
0.991938
1.05328
1.07498
1.08274
1.08142
1.04364
0.983137
0.945031
0.930142
0.929943
0.938643
0.950749
0.957988
0.968744
1.01155
1.06911
1.11534
1.1503
1.17078
1.17587
1.15664
1.11437
1.06373
1.02293
1.00324
0.999684
1.00396
1.01246
1.03949
1.10857
1.17945
1.21946
1.23907
1.25011
1.25378
1.256
1.24364
1.21603
1.18458
1.16175
1.15423
1.15986
1.17484
1.21134
1.28537
1.35624
1.39046
1.40643
1.41243
1.39708
1.36703
1.32752
1.28174
1.24096
1.20859
1.21011
4.30413
33.412
0.743089
0.794302
0.814849
0.827084
0.833727
0.832101
0.809875
0.772605
0.741959
0.727446
0.724896
0.72681
0.736662
0.787936
0.853068
0.882096
0.895266
0.902857
0.898038
0.851306
0.79622
0.772415
0.768962
0.770853
0.775206
0.802987
0.889114
0.95632
0.980783
0.990261
0.990651
0.956919
0.914752
0.889951
0.872476
0.854293
0.845488
0.848084
0.862495
0.883321
0.910346
0.975139
1.0471
1.07189
1.07488
1.05793
1.0279
0.996433
0.968553
0.955719
0.955717
0.961711
0.963758
0.956776
0.955506
0.963542
1.00961
1.09431
1.15146
1.17327
1.18222
1.1808
1.14271
1.07963
1.03169
1.01067
1.00911
1.01548
1.02589
1.04569
1.07409
1.11577
1.16911
1.21282
1.2379
1.25362
1.26663
1.2743
1.26526
1.22735
1.18037
1.15361
1.14971
1.1626
1.18867
1.24243
1.32515
1.37655
1.39586
1.40354
1.3994
1.38854
1.36481
1.31832
1.26055
1.2052
1.15637
4.28322
33.4963
0.774017
0.796467
0.808013
0.814335
0.807599
0.784124
0.760978
0.744805
0.736867
0.734507
0.735419
0.745177
0.789835
0.839317
0.865584
0.883707
0.891354
0.883531
0.847432
0.81151
0.789782
0.776474
0.773165
0.776767
0.801852
0.860456
0.915485
0.955737
0.976817
0.981529
0.953355
0.91469
0.901209
0.895106
0.88372
0.874429
0.872213
0.879459
0.892979
0.902673
0.909492
0.934603
0.994083
1.03026
1.03799
1.03508
1.0305
1.02102
1.01006
0.997504
0.985557
0.974823
0.961442
0.949783
0.947542
0.952515
0.965955
1.03123
1.1247
1.16226
1.17296
1.17816
1.17021
1.12461
1.07013
1.03912
1.02961
1.03113
1.03751
1.04943
1.06587
1.08256
1.10845
1.16931
1.23005
1.2579
1.27061
1.27786
1.28131
1.26606
1.21153
1.16347
1.14879
1.15842
1.18392
1.21302
1.27325
1.33986
1.36779
1.37752
1.38333
1.3823
1.37215
1.35065
1.30144
1.23336
1.15441
4.17118
33.5558
0.794398
0.800637
0.799543
0.778224
0.752934
0.740737
0.737601
0.737807
0.739339
0.741752
0.754802
0.801707
0.846058
0.865789
0.873192
0.87383
0.860963
0.832458
0.810095
0.796015
0.788035
0.786299
0.789609
0.813083
0.859252
0.887026
0.908602
0.930469
0.938729
0.927504
0.905025
0.894982
0.898703
0.904091
0.90877
0.908121
0.906065
0.906359
0.907303
0.906994
0.905124
0.906915
0.931734
0.988921
1.02102
1.03131
1.03937
1.0494
1.05126
1.03754
1.0107
0.977405
0.94793
0.938198
0.941374
0.949755
0.960573
0.987036
1.07194
1.1432
1.16631
1.17421
1.17485
1.16
1.12158
1.08003
1.05272
1.04235
1.04499
1.05421
1.07078
1.08651
1.10003
1.12569
1.1926
1.24459
1.26646
1.27542
1.27118
1.25316
1.22209
1.18647
1.16697
1.17186
1.19376
1.21353
1.23517
1.28032
1.31671
1.33354
1.34437
1.35553
1.35804
1.3544
1.32779
1.27146
1.18213
4.02874
33.651
0.813534
0.812597
0.774249
0.736749
0.722215
0.720221
0.722851
0.728171
0.736049
0.760371
0.809509
0.84319
0.857915
0.865456
0.864956
0.846174
0.822927
0.809388
0.802391
0.796371
0.794689
0.799467
0.823239
0.866994
0.88967
0.896513
0.897901
0.890705
0.881592
0.884383
0.893617
0.900267
0.906929
0.923187
0.94033
0.946554
0.936383
0.920691
0.909243
0.896829
0.891343
0.893092
0.900933
0.938834
1.00467
1.04475
1.06134
1.07073
1.06992
1.0628
1.03989
0.98623
0.946317
0.939532
0.944668
0.95539
0.97496
1.00185
1.03652
1.09006
1.13409
1.15353
1.16139
1.16162
1.1482
1.12158
1.09388
1.07646
1.07171
1.07669
1.08968
1.10789
1.12173
1.12956
1.15127
1.2028
1.23806
1.25075
1.24523
1.234
1.22122
1.20706
1.19774
1.20652
1.21609
1.21726
1.22049
1.22685
1.25263
1.28135
1.30097
1.31938
1.33011
1.33854
1.33518
1.29587
1.23593
3.91267
33.791
0.810322
0.775988
0.738414
0.722109
0.718673
0.719783
0.7225
0.728724
0.756283
0.81149
0.843472
0.853087
0.852846
0.840179
0.822972
0.81596
0.814495
0.813652
0.80847
0.807897
0.813579
0.831694
0.865469
0.886721
0.894243
0.895343
0.877523
0.853194
0.84694
0.854801
0.881912
0.911199
0.936775
0.957918
0.968309
0.970989
0.957484
0.92507
0.896507
0.88622
0.886009
0.890709
0.899064
0.918601
0.972094
1.04221
1.06896
1.0741
1.06951
1.05027
1.02072
0.991792
0.967655
0.961032
0.972529
0.994279
1.01744
1.03153
1.03544
1.04159
1.06651
1.10199
1.12461
1.13464
1.13566
1.12861
1.1273
1.12899
1.13122
1.13434
1.13802
1.13865
1.13391
1.13021
1.132
1.14878
1.18784
1.21516
1.22396
1.22163
1.2226
1.22357
1.23241
1.24467
1.23964
1.22453
1.20854
1.19931
1.20205
1.2253
1.25785
1.28749
1.30963
1.31742
1.32458
1.31045
1.29153
3.86291
33.9481
0.773014
0.741669
0.732372
0.727589
0.722945
0.724088
0.728818
0.757242
0.81187
0.844154
0.854084
0.85065
0.824436
0.797941
0.793306
0.803543
0.819559
0.827618
0.83165
0.836599
0.850807
0.872475
0.886965
0.892069
0.889375
0.872498
0.84949
0.837536
0.836905
0.842181
0.863966
0.919985
0.9646
0.983597
0.9904
0.98902
0.963453
0.920905
0.896218
0.88947
0.891158
0.902536
0.930005
0.958012
0.982529
1.00906
1.03596
1.0417
1.03147
1.01415
1.00278
1.00383
1.01398
1.02882
1.03804
1.04382
1.04859
1.04322
1.03241
1.02097
1.01752
1.02787
1.05913
1.09382
1.11721
1.13116
1.15409
1.18545
1.20606
1.20976
1.19288
1.16163
1.13241
1.1153
1.11103
1.1166
1.13827
1.17719
1.20495
1.21507
1.22411
1.24397
1.26977
1.27448
1.26535
1.24931
1.21776
1.1843
1.17122
1.17791
1.20078
1.24227
1.28095
1.30031
1.31245
1.30897
1.32501
3.90225
34.127
0.732424
0.721303
0.725687
0.731834
0.735986
0.740441
0.770516
0.822822
0.852195
0.860742
0.858889
0.826547
0.783068
0.767949
0.769769
0.786854
0.819382
0.83943
0.857374
0.876805
0.889617
0.894769
0.897104
0.890892
0.875627
0.855359
0.837929
0.831816
0.835266
0.847098
0.871014
0.917772
0.967334
0.989031
0.996209
0.995564
0.975837
0.929863
0.903973
0.900709
0.915569
0.94937
0.974122
0.985404
0.988198
0.973907
0.957976
0.963259
0.980924
0.993001
1.00544
1.03625
1.08107
1.10611
1.10902
1.09462
1.06709
1.03643
1.01283
0.997944
0.98742
0.987258
0.999303
1.03387
1.0875
1.14634
1.20107
1.24
1.25666
1.26152
1.2422
1.18903
1.13491
1.10422
1.09332
1.0952
1.10569
1.13016
1.17052
1.20475
1.23361
1.27015
1.29501
1.30203
1.29446
1.28108
1.24934
1.1918
1.15611
1.14542
1.15313
1.1798
1.23678
1.28395
1.30063
1.30228
1.33711
3.97508
34.3334
0.708261
0.705754
0.714965
0.726765
0.743921
0.784045
0.844678
0.875884
0.883015
0.879731
0.849183
0.795106
0.763674
0.756693
0.758587
0.765131
0.795737
0.846707
0.887668
0.911115
0.919878
0.917
0.900066
0.885856
0.87237
0.85798
0.844265
0.840049
0.847499
0.86022
0.869813
0.889346
0.935412
0.968368
0.977414
0.974917
0.965423
0.953919
0.942216
0.948081
0.968604
0.984769
0.992043
0.994622
0.974967
0.924578
0.89418
0.893101
0.914446
0.956305
1.0147
1.09436
1.14815
1.1635
1.16318
1.13817
1.07827
1.02638
0.998723
0.982871
0.973873
0.971758
0.975451
0.987327
1.02771
1.12717
1.21328
1.24845
1.26099
1.26349
1.25301
1.21569
1.14733
1.10192
1.08745
1.08912
1.09376
1.10169
1.12495
1.17712
1.233
1.27731
1.30448
1.3167
1.31621
1.30747
1.28691
1.22099
1.1583
1.13437
1.13206
1.13754
1.18625
1.25188
1.27827
1.28428
1.33201
4.03622
34.5017
0.693199
0.690673
0.699639
0.713249
0.758937
0.848801
0.905251
0.917373
0.917429
0.891527
0.826698
0.773372
0.755801
0.754427
0.756625
0.762249
0.780803
0.839484
0.896573
0.919412
0.929174
0.932642
0.916717
0.889877
0.87671
0.868082
0.861515
0.860744
0.865582
0.87015
0.8679
0.8665
0.876535
0.917878
0.952251
0.96435
0.9705
0.986327
1.00955
1.01477
1.0069
1.00135
0.997111
0.974797
0.928584
0.885456
0.867408
0.868367
0.87819
0.908677
1.01401
1.13659
1.18208
1.19354
1.19381
1.16522
1.09922
1.03514
0.998093
0.981713
0.975261
0.973841
0.979329
1.00172
1.03436
1.07921
1.16866
1.22554
1.24244
1.23819
1.22041
1.19462
1.157
1.11704
1.09572
1.09328
1.10157
1.11236
1.12284
1.14452
1.19867
1.26215
1.3004
1.31551
1.32097
1.31675
1.3022
1.25426
1.18956
1.147
1.13004
1.12623
1.14779
1.2033
1.23946
1.24922
1.30785
4.09641
34.6454
0.692772
0.68617
0.689826
0.698236
0.771111
0.894027
0.93259
0.941459
0.94139
0.896912
0.808865
0.764646
0.754699
0.754392
0.758927
0.774625
0.799712
0.827727
0.873715
0.909707
0.922642
0.920557
0.910768
0.907449
0.899657
0.893567
0.888343
0.881677
0.875956
0.869882
0.857281
0.844055
0.841039
0.853739
0.900483
0.947183
0.986637
1.03866
1.0669
1.07137
1.05232
1.02084
0.986544
0.942089
0.891171
0.859958
0.851799
0.855777
0.863314
0.885766
1.00394
1.14009
1.18269
1.19172
1.17564
1.11783
1.06909
1.04537
1.02362
1.00345
0.995305
0.999074
1.01707
1.04004
1.04973
1.05567
1.08829
1.14676
1.18083
1.19034
1.18904
1.18261
1.16731
1.14404
1.12195
1.11365
1.11577
1.12165
1.12855
1.13284
1.15001
1.20785
1.2664
1.29577
1.30954
1.30994
1.30144
1.27359
1.23919
1.20099
1.16462
1.14547
1.13829
1.15698
1.18979
1.20781
1.28085
4.16819
34.821
0.696967
0.69093
0.694915
0.715695
0.811769
0.903534
0.934894
0.944243
0.936383
0.868918
0.79789
0.767027
0.758482
0.758613
0.768939
0.796603
0.81622
0.825684
0.837861
0.866704
0.893066
0.906452
0.917267
0.927102
0.932942
0.931084
0.918198
0.899058
0.87942
0.856864
0.836327
0.827089
0.82758
0.833545
0.851109
0.907195
1.00563
1.06533
1.084
1.09065
1.08912
1.06232
1.00396
0.933573
0.882889
0.858299
0.852615
0.85816
0.877007
0.942411
1.02227
1.08623
1.12715
1.13337
1.11233
1.08398
1.06924
1.06329
1.06049
1.05464
1.05021
1.0524
1.05574
1.05438
1.05017
1.04521
1.04269
1.06734
1.12179
1.15875
1.17566
1.18292
1.17973
1.16872
1.15392
1.14356
1.13798
1.13605
1.13183
1.12318
1.12377
1.14485
1.20349
1.25875
1.28471
1.29615
1.29713
1.28788
1.27648
1.25885
1.22632
1.1837
1.15431
1.13782
1.14505
1.16295
1.25772
4.23297
34.8362
0.704115
0.697701
0.70741
0.760905
0.83924
0.891842
0.91743
0.921993
0.889151
0.832289
0.79563
0.776981
0.770026
0.771227
0.788698
0.81442
0.826143
0.830398
0.828878
0.823013
0.834098
0.874524
0.916168
0.944018
0.962587
0.972435
0.967214
0.933313
0.883155
0.840617
0.819419
0.816057
0.819888
0.830613
0.853435
0.913204
1.00255
1.06344
1.08251
1.08059
1.05537
1.02346
0.990873
0.951321
0.903456
0.878116
0.877783
0.892033
0.939643
0.994806
1.01725
1.02637
1.03275
1.0404
1.04988
1.06185
1.0738
1.08422
1.09697
1.11043
1.11656
1.10634
1.08165
1.05197
1.0317
1.02272
1.02129
1.03158
1.06833
1.12567
1.16477
1.18132
1.18669
1.18515
1.17972
1.1744
1.16791
1.16256
1.1454
1.11876
1.10713
1.1108
1.13042
1.18466
1.23907
1.27396
1.29086
1.29432
1.29251
1.28509
1.27363
1.24866
1.20365
1.1622
1.13127
1.11831
1.21641
4.31118
34.7638
0.71437
0.715041
0.753647
0.80717
0.838154
0.863878
0.878062
0.868705
0.842137
0.822863
0.805811
0.792967
0.789191
0.794797
0.814891
0.830522
0.835117
0.832987
0.811889
0.79621
0.798327
0.823696
0.893786
0.955861
0.991477
1.00605
1.01008
0.981572
0.899223
0.832127
0.81447
0.813569
0.821082
0.850516
0.910342
0.95802
0.986466
1.01176
1.02464
1.02132
1.01656
1.01542
1.01012
0.981893
0.948809
0.932041
0.93418
0.952917
0.987457
1.00664
1.00882
0.987601
0.962528
0.962042
0.980945
1.02189
1.06832
1.10391
1.13397
1.15379
1.16118
1.15053
1.10893
1.05895
1.02816
1.01847
1.02396
1.03606
1.05179
1.08486
1.13255
1.16293
1.17484
1.18182
1.18777
1.19335
1.19613
1.19836
1.18687
1.14124
1.10643
1.09718
1.10156
1.11526
1.1591
1.22019
1.25985
1.27752
1.28405
1.28674
1.2902
1.29029
1.2739
1.22602
1.1652
1.1084
1.11714
4.37338
34.6443
0.727932
0.759704
0.810132
0.828695
0.833123
0.835409
0.82118
0.80669
0.808445
0.815942
0.820272
0.820829
0.822638
0.83317
0.843031
0.845004
0.843086
0.822342
0.793094
0.787134
0.790964
0.799585
0.855499
0.966746
1.00898
1.01921
1.0169
0.973774
0.891389
0.840969
0.824972
0.82524
0.856659
0.922498
0.964415
0.980152
0.974312
0.943884
0.930517
0.942914
0.97478
1.00109
1.00957
1.01404
1.01085
1.00313
1.00077
1.00439
1.00897
1.00925
0.988961
0.957294
0.932469
0.925575
0.932541
0.958352
1.0185
1.09334
1.14012
1.16041
1.17039
1.17151
1.14335
1.08654
1.0477
1.03691
1.04729
1.06664
1.08048
1.0874
1.08801
1.10273
1.12981
1.15476
1.18086
1.2091
1.22743
1.23476
1.23359
1.18984
1.12469
1.09661
1.09339
1.09718
1.10598
1.14343
1.19223
1.23194
1.25832
1.27769
1.29367
1.30746
1.311
1.29184
1.23056
1.13638
1.06596
4.3253
34.6581
0.756779
0.818962
0.837638
0.840347
0.835284
0.799466
0.77022
0.769207
0.783413
0.80712
0.829683
0.852602
0.869618
0.873897
0.868203
0.855791
0.832165
0.798976
0.785674
0.787112
0.793204
0.819659
0.880858
0.954676
1.00151
1.01244
0.988087
0.933234
0.887774
0.86308
0.854729
0.880026
0.94236
0.980142
0.991974
0.987518
0.93839
0.884769
0.869344
0.875243
0.903833
0.95539
1.00255
1.03889
1.06581
1.07545
1.06989
1.05516
1.03128
1.0046
0.983759
0.960308
0.938838
0.928765
0.92886
0.936372
0.955805
1.02668
1.11246
1.14881
1.15859
1.14752
1.13568
1.12117
1.10093
1.09311
1.09656
1.09847
1.09617
1.07744
1.05289
1.04729
1.06751
1.11456
1.17238
1.2224
1.25198
1.25979
1.25583
1.22313
1.15856
1.11136
1.09204
1.08748
1.0886
1.09757
1.11631
1.16076
1.22236
1.26276
1.28901
1.30967
1.31756
1.31037
1.27804
1.18635
1.08064
4.19332
34.7419
0.80839
0.852287
0.856792
0.85094
0.811245
0.763985
0.747032
0.74799
0.758912
0.789963
0.836545
0.877432
0.899606
0.905131
0.901593
0.87525
0.824733
0.798351
0.791973
0.798313
0.835747
0.87829
0.899127
0.914716
0.932282
0.933434
0.91823
0.906414
0.902566
0.897898
0.919823
0.978971
1.00862
1.01301
1.00898
0.963315
0.888548
0.85071
0.843865
0.847373
0.854866
0.884957
0.966576
1.04696
1.08572
1.10242
1.10984
1.10679
1.07755
1.03053
0.996083
0.972949
0.955318
0.943563
0.940121
0.942421
0.945637
0.963269
1.03881
1.10917
1.1322
1.13434
1.13924
1.14803
1.15741
1.15568
1.14381
1.12558
1.09741
1.05489
1.02359
1.01643
1.02718
1.06841
1.16066
1.23511
1.26259
1.26682
1.25935
1.22896
1.18354
1.14406
1.11256
1.09219
1.08004
1.0728
1.07058
1.09035
1.17056
1.24345
1.27475
1.29567
1.30385
1.29943
1.28752
1.23478
1.16136
4.03228
34.9337
0.847245
0.861081
0.856901
0.828803
0.787064
0.760021
0.74982
0.750337
0.756482
0.77337
0.823433
0.880058
0.90322
0.908177
0.898554
0.869251
0.840096
0.821804
0.827668
0.860035
0.891704
0.902807
0.901925
0.876844
0.839865
0.82927
0.842585
0.866672
0.892642
0.941494
1.02335
1.06212
1.06375
1.04736
1.00085
0.918681
0.855058
0.832209
0.830013
0.833793
0.838333
0.854105
0.90697
1.00933
1.08025
1.10512
1.1139
1.1098
1.08999
1.07295
1.04363
1.00801
0.980628
0.961268
0.944615
0.936216
0.937568
0.950058
0.987022
1.063
1.11984
1.14719
1.16248
1.1807
1.19406
1.19504
1.17691
1.14644
1.09861
1.04223
1.01234
1.00858
1.01457
1.03613
1.12989
1.22827
1.25931
1.2654
1.25138
1.22161
1.19253
1.17136
1.14794
1.11603
1.08539
1.06176
1.05107
1.05194
1.09599
1.18807
1.24787
1.2721
1.28131
1.27569
1.27311
1.24659
1.2369
3.95449
35.1623
0.871159
0.862314
0.825109
0.793896
0.773797
0.764786
0.762896
0.7697
0.785901
0.797677
0.806055
0.839933
0.873467
0.878756
0.871657
0.871093
0.879108
0.895494
0.907741
0.912154
0.913872
0.906598
0.867272
0.813494
0.781626
0.774839
0.783104
0.806973
0.86464
0.989986
1.09048
1.11563
1.11765
1.09615
1.00868
0.901862
0.849654
0.831214
0.829476
0.833309
0.840004
0.866612
0.914552
0.959371
1.02415
1.07656
1.09809
1.10011
1.09494
1.09538
1.09001
1.05272
0.994533
0.960713
0.949056
0.946317
0.954217
0.972398
0.99588
1.02938
1.09141
1.14219
1.1682
1.18567
1.19836
1.19818
1.18751
1.16311
1.11568
1.05224
1.01996
1.01907
1.03176
1.06437
1.12045
1.18393
1.22248
1.23538
1.23436
1.21729
1.19403
1.18108
1.17717
1.16275
1.12471
1.08344
1.05421
1.04388
1.0545
1.09986
1.18711
1.23858
1.25545
1.25021
1.24792
1.23673
1.25435
3.98398
35.4147
0.898454
0.864267
0.798052
0.778429
0.772477
0.771344
0.779038
0.797533
0.806952
0.803802
0.789578
0.782798
0.804246
0.840673
0.865537
0.901515
0.95048
0.974011
0.967919
0.944289
0.912644
0.858469
0.806723