/*--------------------------------*- C++ -*----------------------------------*\
  =========                 |
  \\      /  F ield         | OpenFOAM: The Open Source CFD Toolbox
   \\    /   O peration     | Website:  https://openfoam.org
    \\  /    A nd           | Version:  12
     \\/     M anipulation  |
\*---------------------------------------------------------------------------*/
FoamFile
{
    format      ascii;
    class       volScalarField;
    location    "27.1";
    object      rho;
}
// * * * * * * * * * * * * * * * * * * * * * * * * * * * * * * * * * * * * * //

dimensions      [1 -3 0 0 0 0 0];

internalField   nonuniform List<scalar> 
9801
(
1.16476
1.17183
1.16263
1.14662
1.13956
1.14203
1.14863
1.16223
1.17908
1.19466
1.2096
1.22111
1.22774
1.2322
1.23463
1.23175
1.23331
1.23719
1.24235
1.24897
1.25417
1.25836
1.26349
1.27461
1.29114
1.30876
1.32163
1.32784
1.33187
1.33061
1.32118
1.31587
1.31621
1.31915
1.32312
1.32864
1.34077
1.36587
1.39039
1.40308
1.40912
1.41215
1.4065
1.39868
1.39591
1.39678
1.4001
1.40487
1.41121
1.4256
1.45853
1.48842
1.50346
1.51205
1.51813
1.51677
1.50609
1.49668
1.49479
1.49947
1.50696
1.51732
1.54851
1.59247
1.61668
1.62822
1.63733
1.64486
1.63719
1.61238
1.60139
1.60596
1.6157
1.63097
1.67623
1.73649
1.77081
1.79002
1.80477
1.81713
1.80882
1.77009
1.75333
1.76363
1.78408
1.82952
1.91991
1.99064
2.03234
2.06449
2.09435
2.10183
2.07438
2.05378
2.05957
2.11693
2.27668
4.8919
21.3383
1.14985
1.17113
1.17444
1.17064
1.16094
1.15506
1.15626
1.16127
1.17042
1.18394
1.19959
1.21821
1.23395
1.24095
1.24424
1.24655
1.24706
1.24427
1.24608
1.25078
1.25621
1.26023
1.26435
1.27088
1.28949
1.31249
1.32401
1.33065
1.33565
1.33879
1.33057
1.31894
1.31881
1.32296
1.32796
1.33303
1.33994
1.36161
1.39085
1.40623
1.41365
1.41889
1.42118
1.40877
1.39545
1.39568
1.40112
1.40745
1.41389
1.42472
1.45826
1.49028
1.50548
1.51409
1.52068
1.52319
1.50628
1.4907
1.49209
1.49893
1.50712
1.5165
1.54623
1.59105
1.61628
1.62908
1.6386
1.64588
1.63782
1.61033
1.59966
1.60492
1.61574
1.63093
1.67039
1.72618
1.76113
1.78158
1.79778
1.81338
1.8068
1.76781
1.75036
1.75968
1.77936
1.8113
1.8813
1.95387
2.00292
2.04153
2.07701
2.0892
2.06354
2.0432
2.04395
2.08058
2.12543
4.54413
21.329
1.13892
1.15644
1.16187
1.16588
1.16947
1.1717
1.17169
1.17296
1.17642
1.18068
1.18723
1.20392
1.22214
1.23224
1.23986
1.24612
1.25149
1.25445
1.25249
1.25301
1.25621
1.25985
1.26291
1.2667
1.27979
1.30203
1.31456
1.32189
1.32736
1.33189
1.32845
1.3178
1.31654
1.31994
1.32413
1.3286
1.33392
1.34998
1.37847
1.39605
1.40497
1.41126
1.41604
1.40944
1.39492
1.39239
1.39665
1.40329
1.41055
1.42072
1.45117
1.48381
1.49946
1.50819
1.51505
1.51889
1.5039
1.48631
1.48548
1.49185
1.50028
1.50986
1.53652
1.57965
1.60479
1.61738
1.62678
1.63431
1.628
1.60141
1.58822
1.5927
1.60334
1.61616
1.64535
1.70091
1.74058
1.7609
1.77522
1.78788
1.78403
1.7504
1.72917
1.733
1.75086
1.77398
1.82568
1.90987
1.97031
2.00845
2.04178
2.05639
2.03566
2.01766
2.01571
2.04234
2.04185
4.24826
20.9556
1.12596
1.12905
1.14834
1.16609
1.17435
1.17993
1.18355
1.18317
1.1774
1.17099
1.17053
1.17647
1.19779
1.22369
1.23967
1.24844
1.25416
1.25836
1.25628
1.25029
1.24557
1.24459
1.24689
1.25088
1.26246
1.28736
1.30445
1.31325
1.3193
1.32446
1.32482
1.31387
1.30877
1.31006
1.31349
1.31818
1.32334
1.33526
1.36328
1.38463
1.39556
1.40269
1.40848
1.40777
1.39064
1.38231
1.38449
1.39
1.397
1.40724
1.43479
1.46826
1.48585
1.49518
1.50222
1.50749
1.49666
1.47613
1.47037
1.47409
1.48112
1.48977
1.51121
1.55206
1.58022
1.59492
1.60522
1.61321
1.61185
1.5879
1.56963
1.57059
1.57983
1.59147
1.61065
1.65943
1.70339
1.72456
1.73826
1.75157
1.75786
1.73358
1.70212
1.69451
1.70839
1.73012
1.76167
1.8274
1.89364
1.93746
1.97291
1.99984
1.99284
1.97044
1.95156
1.96063
1.93588
4.03564
20.5449
1.11882
1.12542
1.14557
1.16355
1.17479
1.18136
1.18546
1.17937
1.16254
1.15555
1.15649
1.16019
1.18287
1.2192
1.2381
1.24623
1.25157
1.25601
1.2515
1.2337
1.2249
1.22591
1.23066
1.23716
1.2497
1.27533
1.29423
1.30246
1.30759
1.31162
1.3114
1.3017
1.2952
1.29609
1.29982
1.3049
1.31052
1.3209
1.34737
1.36998
1.38096
1.38774
1.39331
1.39561
1.38149
1.36859
1.36841
1.3728
1.37866
1.38663
1.40914
1.44479
1.46607
1.47625
1.48337
1.48939
1.48392
1.46064
1.44802
1.44962
1.45609
1.46406
1.47973
1.51742
1.5505
1.56739
1.57825
1.58718
1.59266
1.57601
1.54947
1.54313
1.55028
1.56119
1.5749
1.61148
1.66243
1.69063
1.70615
1.71955
1.73063
1.71895
1.68562
1.6632
1.66374
1.68269
1.70773
1.75362
1.82224
1.87894
1.92038
1.95663
1.9725
1.95914
1.93597
1.92363
1.86324
3.89959
20.2709
1.11779
1.13376
1.15084
1.1627
1.17029
1.17583
1.17305
1.15465
1.14364
1.1434
1.14664
1.15317
1.18017
1.21297
1.22955
1.2372
1.24252
1.24387
1.22958
1.21118
1.20746
1.21066
1.21572
1.22283
1.23589
1.26081
1.28048
1.28901
1.29361
1.29659
1.29771
1.2914
1.2833
1.28322
1.28686
1.29161
1.29696
1.30555
1.32961
1.35404
1.36594
1.3729
1.37851
1.3823
1.37287
1.35599
1.35205
1.35556
1.36106
1.36771
1.38442
1.42143
1.4478
1.4592
1.46617
1.47132
1.46921
1.44696
1.42761
1.42637
1.43346
1.44213
1.45481
1.48634
1.52397
1.54425
1.55574
1.56482
1.57297
1.56879
1.54142
1.52349
1.52425
1.53434
1.54672
1.57042
1.62127
1.66309
1.6844
1.69872
1.71201
1.71244
1.68382
1.6567
1.647
1.6532
1.6715
1.6996
1.75313
1.81575
1.86547
1.90466
1.93809
1.94718
1.93542
1.914
1.83247
3.78192
20.1605
1.12377
1.14807
1.15665
1.16274
1.16682
1.16052
1.13942
1.13003
1.13122
1.13512
1.14093
1.15694
1.18577
1.20721
1.2175
1.22344
1.2256
1.21692
1.20256
1.19663
1.19811
1.20213
1.20675
1.21226
1.22301
1.24412
1.26294
1.27299
1.27873
1.28309
1.28725
1.28615
1.27643
1.27298
1.27556
1.27973
1.28457
1.29117
1.31166
1.3391
1.35332
1.36059
1.36605
1.37028
1.3656
1.34837
1.34019
1.34305
1.34911
1.35607
1.36837
1.3998
1.4281
1.44069
1.44728
1.45129
1.45233
1.44064
1.42091
1.41374
1.4184
1.42708
1.4377
1.45955
1.49822
1.52522
1.53844
1.54776
1.55662
1.56261
1.54452
1.51793
1.50918
1.51412
1.52496
1.53973
1.57766
1.63348
1.66862
1.68736
1.70209
1.71271
1.69938
1.66942
1.65007
1.64459
1.65232
1.67008
1.7031
1.7586
1.81332
1.85634
1.89173
1.91867
1.92079
1.90991
1.83885
3.69856
20.15
1.13663
1.16012
1.16305
1.16398
1.15664
1.13104
1.11644
1.11695
1.12101
1.12698
1.13923
1.16593
1.19084
1.20203
1.20666
1.20764
1.20178
1.1937
1.18752
1.18597
1.1893
1.19438
1.19962
1.20463
1.21227
1.22859
1.24595
1.25768
1.26636
1.27381
1.27967
1.28363
1.27657
1.26766
1.26732
1.27053
1.27493
1.28043
1.29671
1.3261
1.34352
1.35179
1.35743
1.36203
1.36245
1.34888
1.33763
1.33831
1.34414
1.35079
1.35937
1.38159
1.40943
1.42411
1.43157
1.43691
1.44275
1.44395
1.42587
1.41201
1.4121
1.4187
1.42662
1.43761
1.46886
1.50728
1.52758
1.5383
1.5472
1.55557
1.55223
1.52299
1.50455
1.50184
1.50907
1.52102
1.54163
1.59261
1.64592
1.67571
1.69396
1.70974
1.71623
1.69554
1.66499
1.64795
1.64607
1.65597
1.67527
1.71028
1.76263
1.80918
1.84427
1.87177
1.88855
1.891
1.85701
3.67173
20.2003
1.1423
1.16358
1.16728
1.16411
1.13665
1.11417
1.11129
1.11449
1.11867
1.12491
1.14112
1.16784
1.18737
1.19448
1.19497
1.1899
1.18723
1.18797
1.18738
1.18365
1.18369
1.18747
1.19138
1.19467
1.19871
1.21184
1.23304
1.24811
1.25869
1.26709
1.27366
1.27933
1.27808
1.26499
1.26
1.26163
1.26568
1.27114
1.28469
1.31454
1.33565
1.34553
1.35208
1.35781
1.36256
1.35583
1.34076
1.33783
1.34192
1.34681
1.35189
1.36237
1.38929
1.41054
1.42151
1.43067
1.43994
1.44699
1.44281
1.42196
1.41267
1.41197
1.41638
1.42362
1.4396
1.48124
1.5162
1.53233
1.54184
1.55019
1.55504
1.53706
1.5079
1.49756
1.49997
1.50987
1.52319
1.55161
1.60691
1.65447
1.68247
1.70076
1.71579
1.71665
1.69714
1.6717
1.65565
1.6527
1.66036
1.67887
1.71542
1.76508
1.80514
1.8328
1.84948
1.86064
1.85999
3.68951
20.2508
1.14159
1.16334
1.1639
1.14497
1.12221
1.11347
1.11276
1.1159
1.12364
1.13651
1.14767
1.15998
1.17235
1.17797
1.17923
1.18042
1.18537
1.19088
1.19234
1.18793
1.18482
1.18374
1.18296
1.18294
1.1854
1.19434
1.2216
1.24587
1.25894
1.26707
1.27325
1.27882
1.28005
1.26516
1.25315
1.25255
1.25676
1.26282
1.27475
1.30402
1.33016
1.34288
1.35077
1.3575
1.36359
1.36557
1.35165
1.34071
1.33813
1.3385
1.341
1.34648
1.3666
1.39878
1.41906
1.4325
1.44276
1.45034
1.45482
1.4385
1.41506
1.40614
1.40645
1.41266
1.42202
1.45041
1.49783
1.52596
1.53837
1.54663
1.55446
1.55402
1.52701
1.50468
1.50153
1.50708
1.51593
1.52773
1.55615
1.61009
1.65498
1.68327
1.70315
1.71888
1.72273
1.70826
1.68198
1.66051
1.65365
1.66071
1.67976
1.71861
1.76694
1.80122
1.82008
1.83096
1.84761
3.73083
20.2716
1.13122
1.14521
1.13785
1.12457
1.1198
1.11943
1.12224
1.12957
1.13914
1.14498
1.14657
1.14359
1.14495
1.15628
1.16969
1.18145
1.19023
1.19644
1.20136
1.19982
1.18986
1.18041
1.17347
1.17253
1.17567
1.18248
1.21007
1.24511
1.2627
1.27136
1.27742
1.28238
1.28245
1.2652
1.2484
1.24604
1.25019
1.25601
1.26576
1.29141
1.32413
1.34231
1.352
1.35913
1.36512
1.37029
1.36412
1.34418
1.33184
1.32792
1.3302
1.33584
1.34879
1.38496
1.419
1.4362
1.44585
1.45279
1.45865
1.45235
1.42222
1.4034
1.39999
1.40439
1.41239
1.42616
1.46705
1.51219
1.53391
1.54501
1.55494
1.56459
1.55857
1.52958
1.51222
1.50801
1.50842
1.51484
1.52712
1.5573
1.61181
1.66004
1.69174
1.71292
1.72656
1.72804
1.71577
1.68739
1.66084
1.65208
1.65932
1.67907
1.72001
1.76584
1.79257
1.80479
1.82472
3.78138
20.2832
1.11265
1.11767
1.11518
1.11892
1.12467
1.13305
1.14113
1.14635
1.14992
1.14761
1.1323
1.1236
1.12448
1.1349
1.16084
1.18404
1.19757
1.20492
1.21024
1.2134
1.19958
1.17541
1.16538
1.16631
1.17018
1.17766
1.20316
1.24688
1.26926
1.2776
1.28278
1.28512
1.28044
1.26451
1.24944
1.24647
1.24976
1.25489
1.26184
1.27834
1.3136
1.34153
1.35385
1.36058
1.36602
1.37067
1.37129
1.35148
1.3289
1.32054
1.32196
1.32786
1.33734
1.36718
1.41251
1.4368
1.44653
1.45225
1.45599
1.45534
1.43484
1.40752
1.39894
1.40019
1.40671
1.4149
1.43442
1.48408
1.52499
1.5452
1.55844
1.56948
1.57775
1.56438
1.53173
1.51166
1.50673
1.50944
1.51652
1.5282
1.55829
1.61529
1.66501
1.69602
1.71704
1.72923
1.72849
1.71502
1.68579
1.65914
1.65134
1.65697
1.67518
1.71669
1.75607
1.77531
1.79762
3.84316
20.2978
1.09609
1.09439
1.09949
1.11611
1.13636
1.14922
1.15526
1.15803
1.15506
1.13529
1.11698
1.11361
1.11622
1.12385
1.15384
1.18895
1.20482
1.21162
1.2167
1.21877
1.20562
1.17466
1.16493
1.16706
1.17164
1.18097
1.20904
1.24948
1.2721
1.28068
1.28419
1.28086
1.27679
1.27058
1.25728
1.2517
1.25448
1.2605
1.26659
1.27246
1.29468
1.33223
1.35141
1.3591
1.36409
1.36794
1.37023
1.35947
1.33167
1.31863
1.3185
1.32337
1.33069
1.34911
1.39371
1.42884
1.44163
1.44715
1.4515
1.45582
1.45141
1.42578
1.40638
1.40171
1.40287
1.40948
1.41864
1.44544
1.50116
1.54138
1.56
1.5709
1.58104
1.58739
1.56941
1.53553
1.51531
1.50991
1.51174
1.51909
1.53193
1.56727
1.62459
1.66973
1.69657
1.71544
1.72491
1.72229
1.71008
1.68358
1.65776
1.6484
1.65142
1.66703
1.70607
1.7376
1.76509
3.91458
20.3245
1.0859
1.08997
1.10233
1.12664
1.14881
1.15831
1.16338
1.16439
1.14477
1.11751
1.1092
1.11077
1.11455
1.12586
1.1613
1.19506
1.2084
1.21513
1.21873
1.21499
1.19597
1.178
1.17107
1.1729
1.18063
1.19907
1.2211
1.24575
1.26665
1.27577
1.27627
1.27434
1.27834
1.28206
1.27562
1.26456
1.26283
1.26526
1.26752
1.27129
1.27866
1.31002
1.3422
1.35504
1.36123
1.36555
1.36879
1.36572
1.34069
1.32013
1.31837
1.32329
1.33016
1.33789
1.36293
1.40852
1.43435
1.44435
1.45087
1.45722
1.46324
1.45325
1.42391
1.40806
1.40568
1.40821
1.4133
1.42279
1.45638
1.51663
1.55389
1.57048
1.58267
1.59304
1.59502
1.57103
1.53671
1.51739
1.51311
1.51756
1.5273
1.54231
1.57712
1.62956
1.668
1.69147
1.70893
1.71837
1.71715
1.70633
1.68066
1.65185
1.63899
1.63959
1.65482
1.69149
1.72866
3.98743
20.3679
1.07913
1.09377
1.11936
1.14181
1.15427
1.16099
1.16562
1.15808
1.1271
1.11137
1.11098
1.11359
1.11823
1.1373
1.17678
1.19955
1.20946
1.21528
1.21334
1.20117
1.19224
1.18603
1.18563
1.19211
1.20776
1.21799
1.22221
1.23109
1.24817
1.25998
1.26582
1.27308
1.2832
1.29144
1.29603
1.2859
1.27211
1.26694
1.26531
1.26666
1.27071
1.2869
1.32675
1.3506
1.35967
1.36467
1.36705
1.36656
1.35361
1.3296
1.32127
1.32373
1.32843
1.33438
1.34288
1.37564
1.42083
1.44338
1.45388
1.46198
1.46973
1.47413
1.45437
1.42366
1.4096
1.40589
1.40872
1.41634
1.42854
1.47082
1.53339
1.56809
1.58211
1.59137
1.59671
1.59589
1.57976
1.55091
1.53104
1.525
1.52691
1.53306
1.54714
1.58483
1.63348
1.66748
1.68901
1.70508
1.71332
1.71214
1.7008
1.67377
1.64176
1.62594
1.62515
1.6418
1.68509
4.04345
20.421
1.07577
1.10463
1.13971
1.15403
1.15961
1.1641
1.16251
1.13712
1.11458
1.11111
1.1137
1.11754
1.12923
1.15962
1.18718
1.20249
1.20945
1.20817
1.19806
1.19574
1.19817
1.20095
1.2082
1.21904
1.22674
1.22693
1.21863
1.21543
1.22259
1.24471
1.26501
1.27989
1.2932
1.30289
1.30914
1.30772
1.28483
1.26592
1.26019
1.26184
1.26627
1.27524
1.30677
1.34229
1.35692
1.36285
1.36463
1.36687
1.36705
1.35029
1.33201
1.32767
1.3294
1.33274
1.33841
1.34944
1.38946
1.4335
1.45538
1.46752
1.47698
1.48421
1.48314
1.45271
1.42165
1.41197
1.41625
1.4248
1.43236
1.4416
1.47662
1.53247
1.56608
1.58237
1.59518
1.60676
1.60965
1.5942
1.56388
1.5378
1.52721
1.5288
1.53782
1.55501
1.59377
1.63932
1.66913
1.68655
1.69942
1.7063
1.70513
1.69345
1.6649
1.63168
1.61294
1.60626
1.631
4.06895
20.4883
1.07294
1.11082
1.15142
1.16506
1.17057
1.17272
1.15398
1.12495
1.11487
1.11414
1.11808
1.13174
1.15283
1.17061
1.18739
1.1968
1.19819
1.19197
1.19183
1.19861
1.20968
1.22624
1.23656
1.23914
1.23417
1.21964
1.20503
1.20149
1.20545
1.22742
1.26564
1.29098
1.30422
1.31147
1.31678
1.31841
1.29706
1.26659
1.25868
1.26096
1.26602
1.27287
1.28871
1.32414
1.34964
1.35958
1.36387
1.36873
1.37455
1.37463
1.35461
1.33807
1.33377
1.33399
1.33689
1.34339
1.35846
1.40541
1.45009
1.46993
1.47872
1.48497
1.49147
1.48799
1.45718
1.43334
1.42749
1.42744
1.42951
1.43455
1.44354
1.47494
1.53294
1.57548
1.5953
1.60578
1.61189
1.61286
1.60177
1.57101
1.54273
1.5325
1.53564
1.54576
1.5631
1.60002
1.64018
1.66505
1.67985
1.6906
1.69904
1.69695
1.68564
1.65423
1.62046
1.5941
1.57428
4.04986
20.5646
1.0713
1.11149
1.15437
1.16791
1.17277
1.16451
1.14146
1.12753
1.12238
1.12604
1.1387
1.15595
1.16413
1.16798
1.17032
1.17469
1.18231
1.189
1.19634
1.21053
1.23561
1.25171
1.25851
1.25555
1.22889
1.2
1.19064
1.19234
1.19795
1.21771
1.26519
1.29994
1.31262
1.31923
1.32245
1.31854
1.3001
1.27374
1.26214
1.26332
1.26859
1.27479
1.28037
1.29626
1.33197
1.35554
1.3661
1.3734
1.38059
1.38608
1.38148
1.35779
1.34136
1.33666
1.33752
1.34205
1.34979
1.36874
1.42028
1.46083
1.47763
1.48717
1.49563
1.50245
1.49664
1.46829
1.44369
1.43252
1.43098
1.43329
1.43697
1.44436
1.4709
1.52874
1.57336
1.59461
1.60696
1.6134
1.61284
1.60418
1.57809
1.55246
1.54252
1.54501
1.5514
1.56498
1.59752
1.6349
1.6588
1.6741
1.68677
1.69137
1.68852
1.67404
1.64035
1.59672
1.54623
3.9775
20.6361
1.07502
1.11464
1.14795
1.16057
1.16137
1.14969
1.14113
1.13965
1.14215
1.14949
1.15816
1.16375
1.16536
1.15427
1.14491
1.1476
1.16418
1.18919
1.21463
1.24067
1.25676
1.26437
1.26884
1.26116
1.21766
1.18893
1.18537
1.18819
1.19557
1.21635
1.2666
1.30319
1.31633
1.32195
1.3198
1.31329
1.30634
1.29023
1.27427
1.27056
1.27306
1.27534
1.27686
1.28213
1.30321
1.34315
1.36733
1.37882
1.38574
1.39193
1.39698
1.38801
1.36141
1.34591
1.34292
1.34535
1.34928
1.35478
1.37292
1.42496
1.46677
1.48525
1.49435
1.50179
1.5099
1.50895
1.484
1.45562
1.44024
1.4341
1.43139
1.43378
1.44184
1.46745
1.52222
1.56776
1.59112
1.60363
1.61027
1.61497
1.61289
1.59137
1.56329
1.54765
1.54486
1.54882
1.55956
1.5918
1.63081
1.65656
1.67321
1.68269
1.6816
1.67752
1.65994
1.61612
1.54615
3.87307
20.7089
1.08606
1.1136
1.13149
1.14242
1.14477
1.14383
1.14705
1.15598
1.16804
1.17344
1.17269
1.16681
1.1518
1.13586
1.13195
1.13523
1.14593
1.18585
1.23874
1.26525
1.27404
1.27811
1.2747
1.24503
1.2072
1.19014
1.18761
1.1912
1.20418
1.22984
1.26213
1.29453
1.31001
1.31331
1.30784
1.30637
1.31009
1.31124
1.29662
1.2824
1.27766
1.276
1.27541
1.27724
1.28307
1.31115
1.35432
1.37696
1.38874
1.39868
1.40744
1.41219
1.39687
1.36657
1.35157
1.34805
1.34723
1.34947
1.3553
1.3745
1.42577
1.46804
1.48881
1.50313
1.51341
1.52096
1.51963
1.4935
1.45936
1.43712
1.42991
1.43036
1.43324
1.43933
1.46205
1.51716
1.56651
1.59318
1.60868
1.61919
1.6245
1.62244
1.59837
1.56655
1.54679
1.53971
1.54178
1.55297
1.58916
1.63134
1.65761
1.67165
1.6733
1.67054
1.66627
1.63967
1.57706
3.76789
20.7898
1.10159
1.11175
1.113
1.11559
1.12491
1.13798
1.15547
1.17457
1.18584
1.19083
1.18962
1.16957
1.1398
1.12525
1.12479
1.12837
1.13693
1.18141
1.2476
1.27089
1.27891
1.28132
1.26069
1.22911
1.20924
1.1981
1.19773
1.20836
1.22788
1.23842
1.24563
1.26396
1.28566
1.29604
1.30046
1.30467
1.31358
1.32238
1.32493
1.30817
1.28936
1.28021
1.27438
1.27045
1.272
1.28106
1.31974
1.36628
1.39188
1.40864
1.41854
1.42449
1.42427
1.39863
1.36505
1.34871
1.34559
1.34818
1.35381
1.36132
1.37954
1.42939
1.47843
1.50207
1.51153
1.51839
1.52506
1.52722
1.50672
1.46747
1.43995
1.42914
1.42647
1.4298
1.44021
1.46701
1.52387
1.57433
1.6004
1.61233
1.61986
1.62553
1.62352
1.60003
1.56644
1.54273
1.53288
1.53494
1.54857
1.58982
1.63337
1.65696
1.66511
1.66155
1.66108
1.65064
1.61967
3.70235
20.8746
1.11729
1.10807
1.09325
1.09229
1.10317
1.13247
1.16566
1.18624
1.1959
1.20148
1.20392
1.1809
1.14023
1.12695
1.1272
1.13071
1.14732
1.19305
1.24011
1.2645
1.27085
1.25764
1.23612
1.22638
1.22091
1.21942
1.22453
1.23389
1.24051
1.24168
1.2337
1.23074
1.24484
1.27554
1.29595
1.30904
1.32137
1.33278
1.33949
1.33616
1.30893
1.28209
1.26603
1.26131
1.26443
1.27046
1.28568
1.34278
1.39486
1.41411
1.42204
1.42792
1.43124
1.42445
1.39632
1.36765
1.35561
1.35637
1.36227
1.36617
1.36994
1.3809
1.42381
1.47459
1.50149
1.51678
1.52775
1.53462
1.53247
1.5091
1.46553
1.43591
1.42813
1.43129
1.44205
1.4554
1.47721
1.53068
1.57572
1.59691
1.60676
1.61439
1.62096
1.62202
1.60145
1.5639
1.53586
1.52691
1.52896
1.54444
1.59109
1.63317
1.65168
1.65296
1.65111
1.64716
1.64802
3.68837
20.9577
1.12425
1.09128
1.07791
1.07761
1.08509
1.12369
1.17207
1.19496
1.20423
1.2103
1.20788
1.1792
1.14769
1.136
1.13716
1.14692
1.16828
1.18901
1.21322
1.23019
1.23415
1.22869
1.22652
1.2308
1.23974
1.25327
1.25881
1.25503
1.24696
1.23143
1.21284
1.20721
1.21264
1.24263
1.28632
1.31456
1.33223
1.34211
1.34797
1.35076
1.33179
1.28555
1.26348
1.2612
1.26526
1.27266
1.28728
1.31429
1.37
1.40648
1.41746
1.41952
1.41911
1.42421
1.42851
1.41353
1.38875
1.37515
1.36921
1.36564
1.3664
1.37104
1.38184
1.42665
1.48765
1.51697
1.52656
1.52985
1.52696
1.52399
1.50888
1.47261
1.44845
1.44319
1.44824
1.45485
1.4611
1.47836
1.52582
1.56949
1.59069
1.60218
1.61408
1.62284
1.6212
1.59971
1.55699
1.52933
1.52199
1.52382
1.54104
1.59176
1.62908
1.64028
1.63906
1.63405
1.65892
3.72157
21.0343
1.11311
1.07392
1.06876
1.07031
1.07842
1.12093
1.18087
1.20452
1.2129
1.21613
1.20345
1.17684
1.15933
1.15328
1.15502
1.16715
1.17778
1.18166
1.18205
1.18513
1.19952
1.21482
1.22639
1.24462
1.26702
1.27918
1.28265
1.27334
1.24432
1.20946
1.19498
1.19502
1.19989
1.21619
1.26853
1.31842
1.3382
1.34654
1.35045
1.34637
1.33011
1.3001
1.27328
1.26888
1.2768
1.29444
1.30708
1.31253
1.32296
1.35951
1.39063
1.40428
1.41633
1.43119
1.44121
1.446
1.43353
1.40054
1.37328
1.36513
1.36731
1.37232
1.37971
1.39214
1.43112
1.4817
1.50745
1.51742
1.52183
1.52456
1.52726
1.51833
1.48836
1.46434
1.45427
1.45138
1.45187
1.45477
1.47169
1.52354
1.56891
1.59177
1.60567
1.61657
1.62092
1.61987
1.59374
1.55082
1.52543
1.51859
1.51903
1.54032
1.58883
1.61858
1.62494
1.62
1.65583
3.78776
21.1115
1.09262
1.06528
1.06475
1.06828
1.08286
1.13888
1.19152
1.20905
1.21621
1.21348
1.19166
1.17506
1.16875
1.16694
1.17028
1.17736
1.17957
1.16991
1.15763
1.15778
1.16961
1.19961
1.23537
1.26728
1.28514
1.29198
1.29384
1.28178
1.23302
1.19663
1.18935
1.19158
1.19765
1.20953
1.24652
1.30972
1.33835
1.34602
1.34024
1.32864
1.32459
1.32204
1.31096
1.30273
1.30515
1.31085
1.31106
1.30381
1.29953
1.30762
1.34299
1.39006
1.42264
1.43878
1.44847
1.45469
1.45809
1.44077
1.40254
1.3802
1.37597
1.37814
1.38183
1.38633
1.39254
1.41947
1.47061
1.50565
1.52144
1.52799
1.53132
1.53563
1.53053
1.50392
1.47529
1.45713
1.44751
1.44434
1.44836
1.46855
1.52605
1.57209
1.59399
1.60612
1.61284
1.61592
1.61665
1.59148
1.55088
1.52345
1.51366
1.51349
1.53552
1.57782
1.60206
1.60478
1.64689
3.87147
21.1816
1.07429
1.06297
1.06465
1.07434
1.10841
1.15918
1.192
1.2068
1.21014
1.19308
1.17599
1.17376
1.1749
1.1776
1.18252
1.18443
1.17446
1.15577
1.14818
1.15014
1.15647
1.18276
1.23999
1.27975
1.29411
1.30071
1.30027
1.26966
1.22431
1.19977
1.19293
1.19559
1.20946
1.23168
1.2543
1.28344
1.31382
1.3244
1.32252
1.32314
1.32808
1.34249
1.35737
1.35568
1.33949
1.32211
1.30403
1.28813
1.28453
1.28878
1.2997
1.34276
1.40693
1.44027
1.45165
1.45716
1.45901
1.45559
1.44349
1.41632
1.39249
1.38178
1.37853
1.37771
1.37893
1.38495
1.41145
1.46402
1.5028
1.52106
1.52981
1.53684
1.54221
1.54019
1.51503
1.47971
1.45506
1.44281
1.43985
1.44615
1.47224
1.53035
1.57304
1.59323
1.60565
1.61214
1.6181
1.61936
1.5961
1.55219
1.51655
1.50394
1.50307
1.52224
1.56408
1.58465
1.6329
3.9577
21.211
1.0683
1.06435
1.07328
1.10986
1.14236
1.16038
1.17588
1.18261
1.1768
1.16853
1.16801
1.17488
1.18575
1.19422
1.19684
1.19239
1.17354
1.15295
1.14613
1.14775
1.15189
1.17026
1.23556
1.28106
1.29568
1.30013
1.28306
1.2553
1.23301
1.21499
1.21081
1.22018
1.2389
1.25125
1.25653
1.25693
1.26238
1.28431
1.30637
1.32318
1.34657
1.37421
1.3873
1.38915
1.37451
1.33574
1.29793
1.28312
1.28332
1.28872
1.29599
1.31252
1.36165
1.41705
1.44153
1.45019
1.45466
1.459
1.46357
1.45799
1.43047
1.39886
1.38153
1.37673
1.37729
1.38121
1.38709
1.40629
1.45694
1.50162
1.52371
1.5356
1.54391
1.54929
1.54761
1.51848
1.48092
1.45546
1.44569
1.44462
1.44993
1.47454
1.52983
1.57254
1.59561
1.60876
1.61622
1.62264
1.62362
1.60028
1.54909
1.50634
1.48984
1.48735
1.51069
1.55223
1.61047
4.04005
21.2233
1.0735
1.08048
1.12023
1.15032
1.15895
1.15747
1.14374
1.13575
1.14272
1.15769
1.17355
1.1886
1.20368
1.21302
1.21654
1.20921
1.1803
1.15625
1.15005
1.15162
1.15689
1.17892
1.22443
1.26613
1.28228
1.27882
1.25909
1.25096
1.25022
1.24775
1.24911
1.25427
1.25858
1.26104
1.25129
1.23363
1.23079
1.24384
1.27634
1.3227
1.37103
1.39825
1.4064
1.40798
1.39958
1.35998
1.30924
1.28953
1.29007
1.29767
1.31026
1.32339
1.33369
1.35736
1.40012
1.433
1.45037
1.45905
1.46503
1.46914
1.46697
1.44392
1.40846
1.38757
1.38082
1.37926
1.38038
1.38549
1.40528
1.46125
1.5096
1.52963
1.53804
1.54525
1.55003
1.54996
1.52715
1.48998
1.46248
1.44957
1.44596
1.44996
1.47067
1.52498
1.5731
1.59998
1.61344
1.62137
1.62618
1.62449
1.59831
1.54305
1.49477
1.47563
1.4754
1.50262
1.57215
4.10528
21.245
1.10123
1.13554
1.15795
1.16424
1.16136
1.13353
1.10656
1.10229
1.11207
1.1441
1.18354
1.21287
1.22829
1.23543
1.23754
1.22407
1.18843
1.16106
1.15497
1.15746
1.16901
1.18733
1.20795
1.23387
1.25233
1.25612
1.25574
1.25887
1.26608
1.28451
1.29475
1.29167
1.28057
1.26346
1.23482
1.21734
1.21674
1.22301
1.24266
1.30717
1.37857
1.40264
1.40949
1.4064
1.38698
1.36454
1.34154
1.32074
1.3144
1.3169
1.32178
1.32386
1.32187
1.32323
1.33626
1.38196
1.43006
1.45319
1.46281
1.47057
1.47616
1.47851
1.45938
1.41914
1.39099
1.37925
1.37826
1.38471
1.39335
1.41478
1.46745
1.51005
1.52778
1.5373
1.54828
1.55841
1.55847
1.53625
1.49514
1.46348
1.44736
1.4427
1.44534
1.46491
1.52416
1.58053
1.60706
1.61705
1.62389
1.62635
1.61796
1.59026
1.53512
1.48383
1.46284
1.46257
1.52458
4.13023
21.2779
1.15611
1.18414
1.18645
1.17664
1.13751
1.09713
1.08436
1.08538
1.09133
1.12312
1.19085
1.23368
1.24852
1.25449
1.25218
1.23002
1.19103
1.16894
1.16323
1.16865
1.1848
1.19588
1.20095
1.20221
1.20737
1.22589
1.24875
1.2686
1.294
1.31701
1.32485
1.32234
1.30218
1.26002
1.22418
1.21424
1.21712
1.22353
1.24378
1.29426
1.35469
1.38625
1.3929
1.38562
1.37498
1.37199
1.37353
1.37004
1.35602
1.34171
1.33119
1.32129
1.31153
1.30689
1.30855
1.32041
1.37432
1.43606
1.46508
1.47686
1.48373
1.48508
1.48391
1.46439
1.41956
1.39162
1.38519
1.39052
1.39582
1.39986
1.41718
1.47119
1.51457
1.53547
1.55081
1.56153
1.56524
1.56218
1.53671
1.4934
1.45963
1.44408
1.44114
1.44408
1.46538
1.5313
1.58666
1.60961
1.61764
1.62179
1.61812
1.60466
1.57841
1.52522
1.47621
1.44223
1.47988
4.10164
21.3284
1.19687
1.20944
1.2036
1.16858
1.10917
1.08327
1.08
1.08275
1.0905
1.12041
1.19233
1.23949
1.25385
1.25674
1.24178
1.21805
1.2013
1.18805
1.18513
1.19314
1.20343
1.20712
1.19448
1.17563
1.17386
1.1885
1.22444
1.27304
1.3174
1.34108
1.34831
1.34779
1.32971
1.26974
1.22858
1.2205
1.22482
1.24241
1.269
1.29045
1.31147
1.33491
1.35231
1.36279
1.37185
1.3865
1.39861
1.40443
1.40164
1.38197
1.34988
1.32099
1.30499
1.29991
1.30103
1.30648
1.32588
1.38547
1.44781
1.47419
1.48241
1.47977
1.47613
1.4752
1.46186
1.43098
1.4114
1.40392
1.40046
1.40108
1.40611
1.42321
1.47729
1.52289
1.54477
1.55649
1.56202
1.56272
1.55873
1.53285
1.4943
1.46229
1.4464
1.44477
1.44765
1.46891
1.53163
1.58266
1.60526
1.61264
1.61316
1.60271
1.59079
1.56548
1.52126
1.46737
1.45431
4.02152
21.39
1.22039
1.23025
1.19451
1.1343
1.09755
1.08567
1.08426
1.09041
1.11827
1.1529
1.18479
1.21911
1.23425
1.22913
1.21384
1.21031
1.21488
1.22314
1.23024
1.23067
1.22712
1.21201
1.17766
1.15852
1.15787
1.1641
1.1891
1.25966
1.32126
1.34348
1.35146
1.34987
1.32052
1.28318
1.25386
1.24529
1.2524
1.26847
1.28023
1.2867
1.28483
1.2822
1.29519
1.32793
1.36685
1.39687
1.41449
1.42288
1.42821
1.42295
1.38497
1.33519
1.30865
1.30263
1.30413
1.31359
1.33191
1.34884
1.38733
1.43778
1.46084
1.46558
1.46728
1.47345
1.48169
1.48416
1.46042
1.43229
1.41407
1.40438
1.40046
1.4029
1.42331
1.47803
1.52001
1.53932
1.54997
1.55349
1.55514
1.55297
1.53671
1.50509
1.47024
1.45008
1.44459
1.44395
1.46079
1.51926
1.57299
1.59667
1.60444
1.59958
1.58934
1.57951
1.55861
1.51492
1.47215
3.91551
21.469
1.22008
1.22107
1.16492
1.12436
1.10294
1.09546
1.10151
1.13336
1.16173
1.16999
1.17085
1.16694
1.17587
1.19329
1.20476
1.21902
1.24204
1.26467
1.27184
1.26531
1.24256
1.19836
1.16012
1.15038
1.15239
1.1581
1.17283
1.23113
1.30939
1.33841
1.34426
1.33415
1.31693
1.30289
1.29393
1.28911
1.28836
1.28966
1.28866
1.27555
1.25868
1.25512
1.26033
1.2778
1.33395
1.39469
1.41884
1.42672
1.43174
1.42957
1.41237
1.37461
1.33663
1.32031
1.31929
1.32881
1.33876
1.34182
1.34404
1.36068
1.40859
1.44508
1.46211
1.47487
1.49513
1.5094
1.50705
1.47574
1.43526
1.40692
1.39633
1.39619
1.4017
1.42376
1.47608
1.51713
1.53689
1.54875
1.55452
1.55825
1.55752
1.54574
1.51341
1.47014
1.44286
1.43411
1.43263
1.44917
1.50619
1.56353
1.58974
1.59574
1.5875
1.57865
1.57152
1.54741
1.51992
3.85601
21.5545
1.19111
1.16936
1.14144
1.13021
1.12347
1.1287
1.15271
1.17319
1.17751
1.16901
1.13856
1.12111
1.12351
1.14944
1.19598
1.24376
1.28452
1.30106
1.30443
1.29422
1.25739
1.19285
1.1591
1.1523
1.15471
1.16719
1.19713
1.23235
1.27414
1.30938
1.32022
1.31886
1.31974
1.32337
1.3317
1.33428
1.32671
1.31369
1.29367
1.26498
1.24726
1.24566
1.24966
1.25574
1.2851
1.3616
1.41061
1.42485
1.4289
1.41877
1.40663
1.40223
1.38764
1.36253
1.34885
1.34554
1.34327
1.33343
1.31884
1.3175
1.33767
1.39823
1.45061
1.48379
1.50751
1.51974
1.52484
1.51646
1.47346
1.42628
1.40308
1.39825
1.40184
1.40827
1.42683
1.47287
1.51354
1.53832
1.55112
1.55774
1.56231
1.56125
1.54938
1.51533
1.46462
1.43416
1.42397
1.4263
1.44085
1.49319
1.55482
1.58223
1.58372
1.57374
1.56875
1.55579
1.56429
3.85137
21.6315
1.1411
1.14214
1.14603
1.14827
1.16708
1.19028
1.19984
1.19866
1.17874
1.13369
1.10545
1.10081
1.10498
1.11781
1.1683
1.26509
1.30761
1.31829
1.31881
1.29889
1.2487
1.20315
1.17477
1.16794
1.17707
1.20411
1.22788
1.23926
1.24414
1.25089
1.26756
1.29073
1.31495
1.33943
1.3586
1.36538
1.3641
1.34898
1.31077
1.2673
1.24777
1.24644
1.25061
1.26195
1.28686
1.31607
1.36109
1.39527
1.40707
1.4077
1.4072
1.41216
1.4182
1.41461
1.39368
1.36746
1.34526
1.32344
1.30666
1.30321
1.30765
1.33509
1.41582
1.48113
1.50632
1.51649
1.52098
1.51575
1.50004
1.46916
1.43576
1.41893
1.41384
1.41323
1.41572
1.42566
1.46246
1.50873
1.5392
1.55387
1.56022
1.56207
1.55581
1.54568
1.51283
1.46067
1.42952
1.41919
1.42298
1.43004
1.48246
1.545
1.57025
1.56773
1.561
1.54995
1.588
3.90615
21.6981
1.09836
1.13002
1.16431
1.20415
1.22775
1.23231
1.22633
1.20289
1.14628
1.1037
1.09221
1.09318
1.09922
1.12269
1.19648
1.27123
1.30615
1.31654
1.3038
1.26454
1.23719
1.22118
1.20833
1.20719
1.22034
1.23355
1.24068
1.23999
1.22079
1.20696
1.21154
1.23665
1.2878
1.33929
1.36542
1.37505
1.37896
1.37748
1.34467
1.28866
1.2618
1.2582
1.26322
1.2772
1.2918
1.29787
1.30381
1.32586
1.36277
1.38992
1.40543
1.4173
1.42992
1.4391
1.43899
1.40896
1.36227
1.32448
1.30633
1.30402
1.30937
1.32215
1.36391
1.44674
1.491
1.50216
1.50501
1.50481
1.50528
1.50506
1.48657
1.45577
1.43068
1.4159
1.40928
1.40966
1.41757
1.4585
1.51582
1.5463
1.55601
1.55924
1.55438
1.54816
1.54307
1.51147
1.46082
1.42804
1.41559
1.41364
1.41834
1.47076
1.53409
1.55649
1.55363
1.54364
1.59422
3.99239
21.7574
1.06172
1.11911
1.20818
1.256
1.26862
1.26925
1.24497
1.17793
1.11903
1.09714
1.09377
1.09655
1.1211
1.1745
1.21641
1.248
1.27056
1.26981
1.25195
1.24236
1.23977
1.238
1.24974
1.2671
1.27073
1.26457
1.2503
1.22219
1.19326
1.18378
1.18662
1.19408
1.22933
1.31226
1.36115
1.37337
1.37727
1.36802
1.34701
1.32421
1.29885
1.28637
1.28563
1.2909
1.29545
1.28947
1.27504
1.2736
1.29265
1.34603
1.39261
1.4174
1.43341
1.44385
1.45056
1.44768
1.40198
1.34557
1.32019
1.31794
1.32958
1.34183
1.35372
1.38603
1.44234
1.47339
1.48669
1.49964
1.51311
1.52062
1.52201
1.50679
1.4689
1.42996
1.41009
1.40823
1.41086
1.41943
1.45986
1.51426
1.54462
1.5536
1.55456
1.54709
1.54281
1.53948
1.50914
1.46306
1.42887
1.4075
1.4018
1.40589
1.45944
1.52413
1.54464
1.53556
1.59144
4.09027
21.8169
1.05186
1.12042
1.22733
1.26439
1.27448
1.27133
1.22437
1.15843
1.1203
1.10486
1.10415
1.13216
1.18342
1.20979
1.21727
1.21735
1.1991
1.1929
1.20478
1.22341
1.24414
1.27496
1.30466
1.31375
1.31035
1.29214
1.24855
1.19789
1.1758
1.17482
1.17973
1.18701
1.20672
1.26034
1.32428
1.35143
1.35693
1.35344
1.35119
1.35318
1.35068
1.3365
1.32248
1.31317
1.30043
1.27545
1.25633
1.25192
1.25443
1.28042
1.35479
1.4127
1.43681
1.44882
1.45234