/*--------------------------------*- C++ -*----------------------------------*\
  =========                 |
  \\      /  F ield         | OpenFOAM: The Open Source CFD Toolbox
   \\    /   O peration     | Website:  https://openfoam.org
    \\  /    A nd           | Version:  12
     \\/     M anipulation  |
\*---------------------------------------------------------------------------*/
FoamFile
{
    format      ascii;
    class       volScalarField;
    location    "1.7";
    object      p;
}
// * * * * * * * * * * * * * * * * * * * * * * * * * * * * * * * * * * * * * //

dimensions      [1 -1 -2 0 0 0 0];

internalField   nonuniform List<scalar> 
46253
(
0.93933
1
1
1
1
1
0.896988
1.07553
1
1
0.940065
0.797971
1
1
1
1
1
1
1
1
1
1
1
0.91505
0.894423
1
1
1
1
1.07421
1.08484
1
1
1
1
1
1
1
1.07512
1
0.910961
0.796334
1
1
0.758227
1
1
1
1
1
1
1
1
1.03382
1
0.85122
1
1
1.22723
0.821564
1
1.09526
1
1
1
1
1
1
0.853739
0.760702
0.892846
1
1
1.11421
1
0.914449
1
1
1
1
1
1
1
1
0.885337
1
1.11662
1.11541
1.03647
1
1
0.909541
1
1
1
1
1
1
1.2244
1
1
1
1
1.08096
0.999999
0.886195
0.798293
1.2103
1.21025
0.816244
1.07462
1
1
1
1
1.02969
0.771895
0.793813
1.43044
0.86123
1
1
1
1
1
1.44245
1
0.836047
0.999801
0.999987
1.18827
1.18748
1
0.898113
0.99991
1
0.999178
0.995406
0.8583
1
0.999999
1.17761
1.17658
1.0686
0.999999
1.00002
1.03843
1.09948
1.07907
1
0.8133
1
1.00059
1.0006
1.028
0.762897
0.83537
1
1.13505
1
1.12832
0.799677
0.848417
1
0.893774
0.996829
0.8974
0.992894
1.69306
1
1.2266
1.22402
1
0.902743
1
0.760277
1.06969
1
1.1295
0.773854
1
1.02637
1.21353
1.21121
1
1.10918
1.10417
0.757601
1
1
1
1
1.03944
1
1
1
1.07663
1
1.11077
1.10893
1
1
1.18432
1.22564
1
0.767582
1.0224
1.20044
1.19886
1
1
1.43211
0.904538
1
1.05608
1
1.06467
0.87526
1.19377
1
1
1.1921
0.758294
1.22017
1.22044
0.875188
1
1
1.09214
1.09092
1.15756
1
1
1
1
1
1
1
1.15388
1.18007
1
1
1
1
1
1
1
1.02066
1
1.18086
1.17986
1.17569
1.0728
1
1.07199
1.20588
1.20517
0.870738
0.87733
1
0.897421
0.941848
0.813267
1.07157
1.03289
1
1
1
1.19648
1.16833
1.19555
1
1
1
1.16761
1
0.999992
1
1.03096
0.888244
1.05628
1.05455
1
1
1
1.03046
1.13724
0.862194
1.05364
1
1.216
1.21321
0.871861
1
1.20429
1.12128
1
1.1186
0.893753
1.16152
1.4206
1.16071
0.840431
1.41298
1
1.18466
1.18331
1
1.07162
1
1
1.12313
1
1.15301
1
1.15285
0.851604
1.20079
1
1.026
0.838069
1
0.899152
0.894826
1.07087
1.04892
1
1
1.14586
1.14482
1.023
1.02191
1
1
1
1.09117
0.867756
1.17336
1.17093
1
1
1
1
1.42306
1
1.13765
1.1368
1
0.860263
1
1.07854
1
0.768984
1
0.806372
1
1.16554
1
1.16481
1
0.807518
1
1
1
1
1
1
1
1.13
1
1
1
1
1.12939
1
1.19216
0.856271
1
1
1
0.880104
1.04591
0.838568
1.15693
1.0638
1.15544
1
1
1.12216
1.50356
1
1.05749
1.12096
1.10276
1
1.0892
1.00601
1.00636
1
1.01619
1
0.984311
0.982136
1.18814
1
1
1
1
1
1
1
1
1.38323
1
1.01964
1
1.06416
1
1
0.870827
1
1
1.11511
1
1.15029
1
1
1.11439
1.14885
1
1.10844
1
1
1
1
0.978836
0.998229
1
1
1.04262
0.840831
1
1.07646
1
0.985008
1.03227
1
1
0.859914
1
0.891121
1.02009
1
1.07806
1
0.997415
1.0849
0.999999
1.14163
0.979872
1
0.980988
0.98267
1.14028
1
0.98089
1
1
1
1
1
1.06118
1
1.08069
0.841405
1.10294
0.878889
1.0154
1.10248
1.04989
0.959265
0.958151
1
1
1
1
0.999772
1
0.895682
0.874801
0.78317
0.897844
0.976259
0.824479
0.987165
1
1
1.13376
1.0167
0.812238
1.13262
1.09503
1.09406
0.95035
0.888766
1
0.949337
1.07694
1
1
1
0.92821
1
1.05577
1.0819
1
1
0.997769
1
1
1.09165
0.748789
1.01299
1
1
1.01404
1
1.01365
1.02824
1.01491
1
1.03947
1.03584
1
0.97751
1.01262
1
1
1.12665
1
0.89951
0.875473
1
1
1.12526
1
1
1
1
0.776447
1
1
1.08344
0.87938
1.08211
0.820265
1
1
1
1
1
1
1
0.975361
0.78446
1
1
1
1
1
1
0.898044
1.06243
1
1.04652
1
1
0.838653
1
1
1
1.11839
1
1
1.11747
1.04265
1.10857
1
1.11244
1.11359
1.11841
1.02906
1
1.0768
1.07576
1.0568
1.04599
1
1
1.10573
1
1.42403
1.11909
1
1.41804
1
1
1.07014
1.07897
1
1
1.04252
0.988713
1
1
0.994856
1
1
1
1
1.00013
1.00003
1.10524
1.07394
0.754729
0.985441
1.21084
1.06586
1.21143
1.20368
1
0.89886
0.92201
1.20602
1
1.19302
1
1.19476
1
0.992336
1.18159
1
1.18362
1.32054
1
1.17106
1
1.1729
1
0.780105
1
0.882347
0.920401
1
1
1.16091
1.16234
1
1.00616
1.1497
1.15167
0.992787
1
1
1.13505
1.06484
1.13622
1
1.10642
1.12483
0.84839
1.12687
1.06371
1.10563
1
1
1
1.11621
1.11714
1.02592
1
1
1.10734
0.901279
1.10842
0.839603
1
1.09412
1.09467
1
1
1
1.08811
1
1.01288
1.01226
1.08787
1
1.08078
1
1.0815
1
1
1.01764
1.01778
1.07173
1.07233
0.980513
1.02598
1.06219
1.02699
1.06393
1
1.00752
1.05236
1.05287
1
0.86634
1.04114
1.04159
1.56686
1
1
1
1.03631
0.981576
1.03759
0.740959
1.04479
0.973618
0.814624
1.02575
1.02574
1.01347
1.02107
1.02309
0.860833
0.855931
1
1.08478
1.46135
1.05799
1
0.822206
1.05773
0.849934
1.04534
0.901442
1
1
1
1.09915
1
1
1
1
1
1.09772
1
1
1
0.873834
0.872746
1
1.00224
0.754919
0.935958
1
1
1
1
1
1.06062
1
0.98448
1
1.10408
1.0911
1.10845
0.858044
1
1.07464
0.907045
1.11721
1
1
1
1
1
1.11302
1.10901
1.06471
0.90682
0.906862
1
0.883427
1
1
1.11309
1.01053
1
1.06725
1
1
1.0058
1.01309
1
1.11697
0.836897
0.97462
1
0.984774
1.04707
1
1
0.981869
0.996506
1
1.04621
0.753803
1
1
1.14391
1.14595
0.984299
1
0.7561
0.752387
0.894913
1.08474
1
1.01611
1.08332
0.838957
1.30973
1
1
1
1.10214
1.10405
1
0.999998
1
1.08778
1.08934
1
1
1.09109
1.08619
0.979001
0.975348
1
0.981795
1.01646
0.822913
0.979983
0.840224
1.05834
1
1
1.05894
1
1
0.99093
0.983293
1
1.03942
0.878026
1.00573
0.860082
0.865455
1.03841
0.869336
0.863101
0.836206
0.833373
1
1
1.03146
1
1
0.98637
0.892829
0.875835
1
1
1.01934
1
1.01916
1.01834
1
0.996816
1.04154
1
1
1
1
0.987182
1.02507
1.03994
0.756461
1
1.07981
1
0.9976
0.99634
1.07915
1
0.98733
0.98556
0.987147
1
1
1
1
0.985732
1.01614
1
0.988328
1
0.866861
1
0.865672
0.92964
0.896706
1
1.03354
1.03287
0.812205
1.36959
1
0.873991
1.0668
1.06557
0.875653
1
1
0.976807
0.739566
1
1
1.02192
0.775097
1.03445
0.973703
1
1
1
1
1
1
1.51023
1
0.935961
0.854538
0.856006
1.0332
0.762872
0.737723
0.754809
0.868339
1.04306
0.931776
0.755013
1.17665
1.18701
1.19699
1.16597
1.17842
1
1.11323
1.18932
1.20803
1.16759
0.976222
1.19915
1.13266
1.15541
1.20963
1
1.23209
1.15712
1.24131
1
1.13925
1.22133
0.996087
0.99799
1.14057
0.999999
1.25118
1.13034
1
1
1
1.1319
1
1.1202
1
1
1
1.02568
1.12138
1
1
1
1.11163
1.11965
1
1
1
1.11295
1.02449
0.760862
1.0974
1
0.939403
1.09836
1.0845
1.08548
0.852192
1.07549
1.07715
1.06799
1
0.916548
1.06879
1
1.05594
0.898475
1
1
1.0559
0.889008
0.763632
1.04524
1.04798
1.04043
1.06989
1.03942
0.751979
1.0289
1
1.00622
1.06892
1.03141
0.995894
0.976037
0.986828
1.02613
1.00176
1.00159
0.896428
1.02487
1.01463
1.0159
0.934882
0.776165
0.750965
1
0.777049
1
0.780925
0.775354
0.765577
1
1.44036
1.03623
1
1.02378
1.01512
1.05547
1.06311
1
1.0445
1.11907
1.12822
1.02711
1.03728
1.11481
1.1212
1.11624
1.10744
1.08952
0.858132
1.0149
0.978295
1
0.950925
0.885319
0.847946
0.981176
1
1.16935
1.10875
0.798752
1
1.01478
0.911839
0.955427
1.01327
1
0.999985
1
0.912694
0.981398
1.04043
1.11231
0.993719
1.00026
0.814323
1.06045
0.960259
1.0598
1.00428
0.878618
0.797768
0.869949
0.797186
0.944615
1.12549
1.01154
1
1.1245
1.20509
0.916458
0.972692
1
1
1
1.0014
1.00003
1
1
0.768233
0.976722
0.838508
1
0.887623
1
1.00055
0.917811
1
1
0.745045
0.843288
1.24713
0.850829
1.02835
1.02934
1.00001
1.12996
1.01956
1
1.00421
1
0.990345
1.00731
1.02295
0.887289
1
1
0.949251
1.01482
1.00045
0.986711
1.01688
1.01765
1
1.00677
1.0002
0.980459
0.982809
0.835864
0.993568
1
0.922146
0.852887
0.990894
0.819656
0.992957
1.10968
1
1
1
0.890731
0.987257
1
0.981501
0.985357
1.03926
1.04626
0.874915
0.982599
0.735663
0.895609
1.16241
1
1
0.931092
1.17946
1
1
1
0.977916
1
0.981752
0.774339
1.02815
1.0122
1
1
1.01283
1
1.14789
0.988484
1.25542
1.07211
1
1.09096
1.25805
0.99353
1.0143
1.15758
1
0.904139
1.23503
1.19785
0.933414
1
1.14872
1.23852
1.21247
1
1.00923
0.755869
1
1
0.874778
1.21597
1
1.17488
1.04895
1
1
0.883191
1.19162
1.00049
1.04227
1.2162
1.05103
0.835499
1
1.19393
1.19486
1.03832
0.999799
1
1.05147
1.04965
1.05892
1.11278
1
1.1728
1
1
1
1.17171
1
1
0.899723
1.03185
1
0.902548
1.1755
1.02395
0.98775
1
1.02849
1
1.02259
1
1
1
1
1
1.03476
1
1
1
1
1
1
1.08323
0.750265
1
0.974537
1
1
1
1.0419
0.886995
0.792561
1
0.782737
1.0484
1
1
1
1.04668
1
1.11594
1
1.21105
0.861062
0.815174
1
1
1
1
1
1
1.23935
1.22916
1.0174
1.20845
1
1
1
1
0.870924
0.999999
1
0.999999
1.10304
1
0.999912
1
0.988087
0.989234
0.874852
1.15555
0.868789
0.982234
1
0.999907
0.99691
0.997818
1.10704
1.11392
0.819491
1.1151
1.10619
0.986494
1.11194
1.11293
0.99312
1.14636
1.09459
1.07982
1.11427
1.11022
1.12576
1.08198
1.11162
0.991729
1.11663
1
1.00965
1.11554
1.12684
1.10972
0.870854
1.02361
1.1143
1.12544
1.04368
1.1279
0.826391
1.12957
0.890168
1
1.00698
0.8425
1.04207
1.01423
1.12677
1.11796
1.04335
1
1.04283
1.1903
1
1
0.751208
1
1
1.04272
0.856862
1
1.11852
1.11381
1.11995
1
0.856155
1.07812
1.11374
1.1127
0.816036
1.11431
1.04164
1.01912
1.15838
0.866176
1.16835
1.10787
1.14143
1.10903
1.0999
1
0.864163
1
1.0429
1
0.753586
1.09292
1.10135
1.11688
1.04598
1.11859
1.01608
1.08307
1.10497
1.02358
0.879148
1.16625
1
1.09178
1.09269
1
1
1
1
1
1
1
0.904574
1
0.987653
0.755449
0.854619
1.18271
0.766726
0.853982
1.08369
0.834378
1
0.767301
0.987285
0.882958
1
1.03434
0.990774
1
1
1.22298
0.751725
0.873644
0.869175
1.05286
1
1
0.736048
0.970277
0.975059
1.15415
0.741776
1
1
1
1.11497
1
1.07779
1.07854
1.04046
0.758966
1.0677
1.07187
1
1.08482
1.07313
1.11137
1.01696
1
1.22116
1
1
1.03398
1.06815
1.04847
1.20178
0.756569
1.21555
1.22637
1.15078
1
1
1.10188
1.04333
1
1.03581
1
0.794998
1
1
1.07771
0.774276
1
1.0575
1.07767
1.06023
1
1
1.03545
1.1658
0.774756
0.859047
0.7763
0.997447
0.979987
0.987614
0.758945
1.01328
0.952488
1.01029
1
1.05334
0.759783
0.769452
0.997414
1.14253
1.04901
0.89133
1
1
1.01077
1.00805
0.89318
1
1.12668
0.918921
1.12955
1.02985
1.13384
0.992121
1.02797
1.00092
0.746035
1.00065
0.747849
0.992334
1.12685
0.993446
1.04335
0.754944
0.890821
1.10841
1
0.895386
1.04885
0.842095
1.23772
0.875157
1.10878
1.04046
1.23805
0.764314
1.11646
1.00179
1
1.03928
1.11631
1.15967
1.18581
1
1.01584
1
1.04321
0.88757
1.01283
0.815321
0.771549
1
0.771618
0.814026
1.10935
1
0.763308
1.0418
1.00172
1.12316
1.04763
0.771788
0.894733
1.002
1.06802
1.12463
0.776955
1.09112
1.09982
1
1.09947
1
0.975112
1.22411
1.0926
0.847299
1.19501
1.00074
1
0.779775
1.1057
1.01567
1
0.806281
1.10603
1.13722
1.29485
1.0485
1
1.07389
1.06886
1.08211
1
1.0963
1.08298
1
1.13497
1.09764
1.0411
1.31288
1.0886
1.07518
0.911483
1
1
1.09001
0.795233
1
0.801448
1.00178
1.13859
1.14556
0.805357
1.04696
0.873644
1
0.815765
1.28578
1
1
1.16046
1.2795
0.803468
0.976757
1.06301
0.804967
0.796013
1.06976
0.908542
1.06443
1.05746
1.06903
1.19524
0.994976
1.0589
1.02835
0.976734
0.997853
0.989272
1.03054
1.04516
0.798915
1
1.0432
1.29119
1.04879
1.16466
1.28617
0.862311
1
1.0504
1.02857
1.04052
0.881183
1
1
1.00896
1.01025
0.869737
1.01694
1
1
1.01791
1.02732
1.02907
1
1
1.08968
1.03486
1.03759
1.23314
1.01132
0.821052
1.07251
1.0282
1
0.81954
1.02778
0.85527
0.810939
1.08135
1.11177
1.35795
1.06638
0.980884
1.06182
0.936627
1.06042
1.06622
0.898063
1.05413
1.02772
1
1.13671
1
1
0.933683
0.921904
0.942664
0.923947
1.23551
1.01773
1
1
0.938102
1.12075
0.830195
0.862443
1.00812
0.828002
1.05458
1.00603
1.07641
0.834068
0.799703
1.0053
1.31387
0.850852
1
0.975092
1.08827
0.832413
1.29465
1.01257
0.97592
1
1
0.981376
0.964442
1.03015
1
1
0.961841
1
1.12197
0.85562
0.838425
0.885929
1.00646
1.12389
0.980554
1
0.8374
0.890098
1
0.838091
0.795011
0.983983
0.984572
1.00854
1
1
1.05326
0.982884
1.05567
0.843096
0.843811
1.28796
0.885394
1
1
1.10534
1
1
1.10524
0.9729
1.04644
1.1063
1
0.770295
1.06303
0.902984
1.00001
0.895948
1.18975
0.988654
1
1
1
0.87317
0.980801
1.0567
0.898024
1
1
0.788936
0.893516
0.852277
0.851032
1.0885
1.07789
0.900895
1
1.14108
1
1.08874
1
1
1
0.892938
1
1.03647
1
1
1
1
1
1
1
1.00001
1
1
0.992401
1
1.0468
0.99985
1
0.994101
1.06156
1.12661
1
1
0.970331
0.840888
0.90907
1.05857
0.993355
1.14295
0.991535
1.04941
0.997261
1
1
1
1
1.01038
1.072
1.12907
1.0744
1.01257
0.903755
1.07188
0.969289
0.896785
0.976063
1.1159
0.801205
1.12798
0.988214
1.13102
0.99375
1
1
0.793298
1.10443
1
1
1.07316
0.796638
0.920323
0.978905
0.773364
1.12136
1
0.881672
1
1.0104
0.922366
0.76556
1.03914
0.87276
0.913894
0.972389
1.11684
1.0038
1.12276
1.05465
1
1.03696
1.00936
0.877504
1.10337
1.22385
1.00819
1
1
1.05599
1.11114
1.04221
1.08535
1.28432
1.00869
0.837355
1.00855
1
1.04046
1.02909
1
1.1121
0.953145
0.834479
1.104
1.05216
1.01415
1.02491
1.09397
1.02105
1.01529
1
1.02843
1.01923
1.09476
1.01206
1
1.02856
1.03377
1.02284
1.01898
1.08652
1.02471
1.01044
1
1.0273
1
1.01329
0.800052
1
1
1.27995
0.987888
1.15374
0.801266
1
1
1.0695
0.995283
1.01755
0.801563
1
0.943155
1
1.00504
1.25169
0.952272
1.05976
0.765515
0.972214
1
1.0751
1.03999
1.14062
0.903069
1.00653
1.07516
1.02907
0.966506
1
1.08037
0.986808
1.10861
1
1.07618
1.07018
1
1.02564
0.860539
0.980991
1.07941
1.08132
0.762606
1.00128
1.03127
1.05459
1
1.06279
0.995657
1.12981
1.40209
1.13698
1
1
1
0.976479
1.15548
1.0643
1.13804
1.05618
1.05968
1
1
1.28918
1.13456
1.12743
0.896716
1
1.05174
1
1.0717
1.11998
0.999644
1.13551
1.26772
1.04661
1.06369
1.0348
1.12141
1.12544
1.01105
1
0.933198
0.758459
1.02767
1
1.11226
0.96466
1
1
1.01475
1
1
0.963507
0.871015
1.06587
1.11759
1.13876
1
0.999393
1
1.00814
1
0.909888
0.96327
0.901395
1.11798
0.794279
0.791062
1.11359
0.869944
1
0.841147
0.923676
1.10594
0.866169
1.09636
1
1.08345
0.999994
1.08087
1.10147
1
1
1.04118
1
1.05862
1
1.07921
1.10223
1.09767
1.05515
1.03722
0.999925
0.863494
1
1.16564
1.0569
0.99208
1.05894
0.999899
0.993932
1.05615
1.07829
1
1.06313
1.08541
0.992053
1.01721
1.09517
0.964169
0.824973
0.999044
0.903551
1.03948
1.09271
1.0862
1.05206
0.937476
1.07974
0.963448
1
0.998091
1.01988
1.01922
0.930623
1.0119
0.989416
1.00481
0.963286
0.864123
1.04473
1.02572
0.872599
1
1.09864
1.05983
0.936396
1.07784
0.945521
1.10271
1
1.06781
1.06099
1
1
1
1
1.09214
1.17693
1.05273
0.99995
0.924903
1
1.06961
1.01757
1.08715
1.07233
1.06112
1.04004
1.04243
1.07446
0.922018
1
1
0.961901
1.12865
1
1
1.00844
1.10082
1.05444
1.11579
1.0571
1.0975
1
1.06113
1.06111
1.06055
1.10993
1.11989
1.06561
1
1.04583
0.909576
1
1.11763
0.959077
1.11421
1.01935
1.11635
1.04693
0.899514
0.865471
1.20165
0.8417
1.13594
1.12305
1
1.06122
1.09617
1.13208
1.03541
1
1
1.06289
1.03137
0.905816
0.800207
1.08374
1
1.11616
0.995632
1.15138
0.871122
1.03025
1.14294
1.14677
1.04478
0.804074
1.11781
1.13849
0.868367
1.02607
1.01612
0.865131
1.21392
1.01637
0.782054
1.01595
1
0.974196
1.06225
1.05173
0.920782
1.00187
1.15993
1.32295
0.890781
1.05759
1.09945
1.05965
0.878704
1.03776
0.880328
1.1566
1.00466
0.986729
1.05814
0.97511
1.14455
1.06395
1.07135
1.05705
1.15421
0.988161
1.06686
0.97723
0.862349
0.876028
1.06551
0.876953
1.10421
1
1.06635
1
0.903876
1.10437
1
1
0.902447
0.999721
1
1.00194
1.03263
1.2957
0.976962
1
0.802607
1
0.96838
0.881805
1.09982
0.879313
1.05907
1.09745
1.05992
1.01317
1.01995
1
0.881116
1
1.19699
1.11629
0.999948
0.976935
0.962929
1.15983
1.15673
1.16064
1
0.961422
0.797499
1.18894
1
1.17767
1.02546
0.968512
1.19057
0.987059
1.05217
1
0.967034
1
0.881675
1.28435
0.973666
0.803599
1
1.1814
0.805982
0.969342
0.78149
1.02353
1.18314
1.07331
1.01532
1
1.04736
1.05067
0.999999
1.17503
1
1.17396
1.0054
1.09629
1.17094
1
0.999999
1.17447
1.02273
0.889379
1.18413
1
1
1.17865
1.16231
1.19248
0.804194
1.18785
1.16402
1
0.928541
1.02259
1.14226
1.15627
1.00945
0.919085
0.917767
1.21387
1.15909
1.16923
1.0492
1
1
1
0.890782
1.14689
1
1.03485
0.893277
1.19605
1.06279
1.01602
1.05228
0.914956
1.14713
1.07171
1.03099
1.04539
0.760966
1.04392
1.02821
1
1.16594
1.03485
0.988444
1.10417
1.1109
1.10543
1.20137
1.04277
1.21851
1.2136
1
0.913212
0.775823
1.13898
1
1
1.05158
1
1.20968
0.83346
1.14112
1.08079
1
1.04301
1.02545
1.0488
1.11854
1.06068
1.16028
1.13145
0.991739
1.00003
1.20491
1
0.930015
1.0025
1.05913
1.11934
1.13288
1
0.981583
0.824127
1.01295
1.22307
1.05513
1.04821
1.22803
1.01422
1
1.00077
1.06936
1.06969
1.51501
1.06948
1.31882
1.1243
1.02587
0.83205
1.16417
1
1
1.00502
1.06569
1.12552
1.01164
1.00112
1.07467
1.04123
1.11276
1.00472
1
0.753634
1
0.800582
1.07443
1.11591
1.1167
0.897209
1
1
1.23309
1.10849
1
1
1.08546
0.896103
1.03766
1.2423
1.08259
0.992936
1.10408
1.08729
1.10804
0.899361
1
0.993033
1.10614
0.92693
0.899509
0.809291
1.08493
1.01529
1
1.03109
1
1
1.3151
0.893758
0.958858
1.1016
1.09898
1.29135
0.8949
1
1
1.10021
1.30438
0.995295
0.77867
1.04891
1
1.1024
1.05022
1.0447
1
1
1
1
1.02229
1
1.01117
1.08796
0.98848
1.05478
1.08814
1
1.02134
1
1
1
1.03455
1.07788
1.07966
1
1.08562
1.03153
0.887186
1
1
0.883402
1.01045
1
0.885102
1.03788
1
1
1
1
1
1.06711
1
0.943519
1.03692
1
1.13949
1.01009
1
1.07027
0.788298
1
0.877367
1.09982
1
1
1.1365
1.15666
1
1
1
0.88415
0.864498
0.93909
1.04821
0.809854
1.13543
1
1
0.883293
1.13568
1
0.856318
1.04615
1
0.950566
1
1.05841
1
0.946935
1
0.845766
1
1
0.954177
0.790515
1.13382
1
1
1.0569
1
0.911562
0.890154
1.05674
0.802911
1
0.766715
1
0.807383
0.899149
0.997689
0.915688
1
1.05292
1.054
0.961552
0.965631
0.953788
1
1.00112
0.958652
1
1
0.865942
0.878651
1.05524
0.775445
1.06295
1.00001
1
1
1.06077
1.30375
0.895993
1.06995
1.00039
0.979999
0.971285
0.892585
0.889726
1.16087
1.00001
1.02063
1.06825
0.968268
1.07123
1.07354
0.847096
0.962744
0.989804
0.89431
0.853729
1
1.11302
1
1
0.805291
1.07609
1.00048
1.05163
1
1
0.965518
1.1611
1
1.12352
1
1.07756
1.11394
1
0.722612
1
1.0752
1
0.998015
0.803928
1
0.994297
0.911195
1.07571
1
0.796909
1
0.774271
0.983884
1.00014
1.08295
0.980201
0.795895
1.08501
1.09308
0.882469
1.18686
1.11715
1.12519
0.997268
1.0796
1.08332
0.799493
1.09593
1.10309
0.887005
1
1.14483
1
1.28756
0.899173
1.08918
1.08917
0.794479
1.02192
1.04899
1
1.01448
1.09653
1.01183
0.957532
0.907464
1.11844
1.00122
0.914577
1
1.07606
1.08718
1
1
1
1.0882
0.915414
1.0732
1.07606
1.00015
1
1.09695
1.11647
1.05194
1.095
1.06337
1
1.2875
0.796298
1.09513
1.10542
1.06458
1.04805
1
1
0.903607
1.09248
0.90089
1.11297
1.09812
1.00701
1.01088
1.00477
1.3494
1.1067
1.01149
0.825957
1
1.04219
1.10178
1.07435
1
1.10488
1
1.185
1.06686
0.900933
1.20534
1.15475
1.03727
0.915952
1.03568
1.05953
1.16574
1
1.03187
0.997076
0.956158
1.04767
1.10252
1
1.10032
1.10027
1.19351
0.9987
0.906164
1
1.22827
1.05741
1.31848
1
1.15429
0.887246
1.04707
1.18794
0.913347
1.0966
1.18519
0.979481
1.16878
1.20869
0.995715
1.10702
1.13094
1
1.04042
1.06916
1.19647
1.17581
1.14152
0.836511
1.2505
1.11407
1.23184
1.02513
1.01916
1.11441
1
1.10514
1.18602
1.06706
1.1684
1
1.1119
0.900031
1
1.32702
1.17772
1.16089
1.07346
1
1.25327
0.930602
1
1.17152
1.12207
1.14941
1
1
1.0714
1.16038
1
1.11979
1
1.14425
1.11254
0.888368
1
1.1521
1
1.1351
0.804238
1
1.0239
1.12766
1.14551
1.12752
1
1
1
1.08426
1.12554
0.930786
1.13654
1.07697
1.11946
1.12298
0.867824
1.0357
1.14923
1
1
1.14223
1.09373
1.03661
1
1.0827
1.15176
1
1.12902
0.941755
0.95531
0.94432
1.13528
1.00006
1.10933
1.12088
1.09794
0.929534
1.12147
1.04262
1.03763
0.883814
1.00938
1.09262
1
1.31889
1.13302
0.89964
1.1015
1.22159
1.11375
1.01456
0.89992
0.872441
1
1.11103
1.12958
1.05574
1.09013
1.12815
1
1.12045
1.08917
1.05904
1.14269
1.10191
1
1
1.12812
1.08336
1.05254
1
0.79884
1
1
1.12467
1.13963
1
1.09039
1.19649
1.07752
1
0.907396
1.06553
1.13595
1.07331
1
1.086
1.1475
0.915377
0.982444
1.18148
0.974823
1.10401
1
1.15093
1.06628
0.773028
1
1
1.06148
0.902472
1.07484
1
1.10127
1.13392
1.14779
1
1.0436
1.06433
1
1.03253
1.06187
1.05044
0.897083
1.14184
1
0.890852
1
1.1434
1.02118
1
1
1.03346
1.04616
1.07817
1.04853
0.801807
1
1
0.947719
0.883343
1.1163
1.01805
0.999993
0.955753
1.14108
0.964597
1.17572
1
1.11388
1
1.15724
1
1
1.16378
1
1.14899
0.969251
1
0.733478
1.12365
1.04781
0.829239
0.999985
1.02297
1
1.1216
1.1319
1
1.1473
1
1
1.04559
1.12156
0.89946
1.10554
1
1.07672
1.03851
1.40099
1.18124
0.801604
1
0.900618
0.801522
1.00046
0.895957
1
1
0.913826
1.09079
1
0.766077
1.0096
1.13219
1.08149
1.15295
0.803359
0.994006
0.953798
0.986918
1.02437
1.03342
1.03473
1.00323
1.12958
1.06408
0.906328
0.924132
0.999999
1
1.15481
0.984368
1
1
0.891567
1
1
1.05726
1.06392
1
1.14044
0.999968
1.0568
0.90222
0.867634
1
1.15594
1.05509
1.28034
0.782223
1.13824
1.05727
1.06081
0.9576
1.0669
0.806972
0.799181
0.798086
1.00248
0.801544
1.16629
1.15482
1
1.0431
1
0.82735
0.87864
1.2316
1.21598
1
1.11701
0.808705
0.89405
0.896798
1.14835
1.07618
0.805685
1
1.07068
0.901988
1.19265
1.11022
1.04347
1
1
1
1
1.0548
1.05261
1.14617
0.825418
1.11551
0.806016
1
0.928167
1.21963
1.0641
1.23502
1.04286
1.06392
0.904788
1
1
0.797765
1
1.05615
0.931561
0.835584
1.00152
1.05011
0.956978
1.06384
1
1.06531
1
1
0.979479
1.15609
1.06165
1.19574
0.901445
1.05389
1.00217
1.30952
0.970035
0.832691
1.08686
1
0.903173
1.15386
1.00208
1.0564
1.06463
1.05651
0.838776
1.0603
1
1.0587
1.05649
0.83955
1
1.07259
0.96694
1.04411
0.892808
1
0.771992
0.879643
1.04331
1
0.905973
1
1
1.00429
1
1
1.06122
1.11475
0.869045
0.917314
0.83658
1.07037
1.04336
1.16474
1
1
0.833272
0.903652
1.06454
1.0445
1.08124
1
1.04124
0.800202
1.0599
0.907293
0.894577
0.800086
1
1.11023
1.06335
1.04922
1.16189
1.02685
1
1
1.31082
1.03487
1.1711
1.04412
1.07573
1.07825
1.04349
0.998852
1
1.07413
0.985688
1.16724
1
1.05922
0.912137
0.798617
1
1.02644
1.07244
0.829607
0.994646
0.845817
1.07906
1.15099
1
1.11142
1.03745
1
1.05658
1.05239
0.94322
0.799379
1.07223
1.07529
1.05533
0.852353
1.0832
1
1.09029
1
0.857949
1
1
1.07728
0.801843
1
1.04525
1.17399
0.99627
1
1.1485
0.985136
1
0.991708
0.85033
1.08576
0.990168
1.08908
0.994272
0.796165
1.16993
1.03265
1.04292
0.831555
0.959357
1
1.08646
0.935889
0.946545
1.00407
0.908281
1
0.803766
1.09188
0.925607
1
1.104
0.865742
1
1.06442
1.03761
1.09589
1.06706
0.955281
0.906105
0.965746
0.994422
1.06333
1
0.917543
1.03976
1.06426
0.957521
0.867884
1
0.864028
1.02203
1
1.04953
1
0.891793
1.03599
1
1.09387
1.05776
1
1.0272
1
0.944585
0.983539
1.03786
1.10008
1
0.801031
1
1.0498
1.34163
1.02926
1
1.05299
1.16889
1.06514
1.09846
1.04841
0.816461
0.931365
1.04839
1
1.24424
0.867102
1
0.905557
1.10738
0.943759
1.03054
1.21368
0.800272
1.19988
0.965396
1
1.10078
1.17559
1.04879
1.05828
0.95293
1
1.05898
1
0.865542
1
1.18163
1.0684
0.897207
0.999993
1.06909
1.10527
1.1721
1
1.14478
1.335
1.00081
1.02707
0.861488
1.05732
0.871091
1.05382
1.22177
1
1
0.987089
0.966948
1.13124
1.09174
1.16579
0.991
0.902287
1.14815
0.943096
1
0.975137
0.90224
1.17833
1
0.869886
0.864739
0.796682
1.05608
1.07279
1
1
0.904567
0.800931
1.13475
1.05766
1.10471
1.04071
1.05127
0.797184
1.00276
0.994799
1
1.22216
0.890353
0.931301
1
0.972953
1.31104
1.07104
1
0.967954
0.96292
0.778617
1.14456
1.0908
1.11089
1.03746
1.01389
0.938739
1.04507
1.00001
0.932588
1.09105
1.08719
0.989514
1.09938
1.07827
1.10432
1
0.980356
1.07485
1.06382
1
0.98209
1.04098
1.04472
0.99768
0.994262
1.11968
0.802534
1.04825
1.03999
1
1.05196
1.11109
1
1.12678
0.994269
0.964022
0.912253
1.04314
1
0.91064
0.96024
1.06081
1.05831
0.977159
1.08131
1.13264
1.03868
1.03625
1
1.24739
0.955411
0.995967
1.05283
0.989272
1.06306
1.13923
1.30135
1
1.06317
1.15302
1.08933
1
1.08492
1.09698
0.901501
1.0763
1
1.07292
1.10275
1.04531
1
1.1403
0.988545
1.09918
1.10886
1.05157
1.11377
0.809449
1.07761
1.14622
1
1
1.19938
1.16878
1.11807
0.957614
1.1007
0.952364
0.851593
1.01197
0.972517
0.990346
0.890136
0.896263
1.06971
1.09368
1.12458
0.952222
0.943652
0.902402
1.12175
0.984507
1.02338
1.09776
1.13072
1
0.96362
1.03609
1.04947
1
1.15325
0.962114
1.05856
0.990829
1
1.13744
1.0032
1.10928
1
1.03191
0.990247
0.970597
0.790334
0.987824
1
0.82668
1.07439
1.10865
1.08515
0.800578
1.03357
1.20534
1.08552
1.14473
0.952288
1.29597
1.02809
0.886203
1.09855
0.890479
1
1.10716
1.16324
1.01185
1.30625
1.02628
1
1
0.957925
1.04552
1.02614
1
0.889854
0.767534
1.10137
1.10156
0.99307
0.932066
1.09628
1.15037
1.09698
1.10949
1
0.974664
1.02665
1.08481
1.26266
1
1
1.01188
1.00258
1
1.20997
1.09934
1
1.02964
1.20955
1
1
1.02434
0.88187
0.958684
0.84249
0.900384
0.958249
1.03029
1.15372
1
1.0113
1.12508
1
0.809995
0.902125
1.11503
1.01971
1
0.81194
0.810017
0.903922
0.974214
0.764187
1.08345
1.06517
0.988514
1.05072
1.03204
0.948012
0.885556
1.08719
1
0.999526
1.04167
1.08829
1.14208
0.945985
0.954959
0.882336
0.917713
1
1.03326
1
1.11783
1.16373
0.761839
0.947584
0.951
0.94953
1
0.907628
1
1.09063
0.811353
0.978184
0.93534
1.01322
0.947212
1
1.03466
1.33896
1
0.975345
0.928385
0.842722
0.926597
1.20641
1.19879
1
1.09205
0.936019
1.27233
1
0.908142
1
1.17734
0.913475
1.02874
1.0578
1
0.760322
0.910017
0.928784
1.0902
1
1
1
1.01268
1.06936
1.12062
1.14615
1.00068
1.15866
1.20301
1.15799
1.05201
0.788953
0.840322
1.16031
1.17576
1
1
0.893194
0.898599
0.996627
1
0.933448
1
0.993783
1
1.05692
0.994476
0.944314
0.910402
0.879521
0.751063
1.15399
1
1
0.8968
1
0.927094
1.07142
1.05705
1
0.940987
1.01542
1
1
0.951817
1.07236
0.934946
1.04626
1.0734
0.767742
0.966119
1.11664
0.878452
0.93712
1
1.30054
1
1.06494
1.04697
1.01307
1
1.3503
0.891676
1.15175
1.0708
1
1.06965
1.16227
0.977052
1.24696
1.08202
1
0.919653
1
1
1.07651
1.05529
0.903632
1.13527
1
1.07676
0.903639
1
0.886918
1.10484
1
1
1.10484
0.987142
0.753044
1.23789
1
1.08812
0.924365
1.04373
1
1.19915
0.920706
1.09745
1.05622
0.92134
1
1.0242
0.89448
1.10419
1.07374
1
1.09945
1.20769
0.911068
1.06119
1.04024
1.14079
0.914323
0.876338
1.00681
0.867691
1.10801
1.08787
1
1
1.23689
1.31439
1.0697
1
1.01707
1.00065
1.15922
0.935083
1
1.17957
0.940018
1
0.94036
0.875362
1.05493
1
1.11199
1.08006
1
0.77834
1
1.04127
0.990232
1
1.08612
0.906507
1.08534
0.983451
1
1.10193
0.975985
1.03231
0.905642
0.878806
1.00409
1
1.0289
1.11129
1.10408
1.21864
1
0.918357
1
1.097
1.12011
1.35434
1
0.845235
1
1.09682
1
0.926622
1.03637
1.08752
1.0342
1
1.13011
0.794312
1.01175
1.00001
1.12763
1.19377
1
1.0944
0.900454
1
1
1.00303
1.10887
1.06194
1.04324
1
1.12047
1.11019
0.992918
0.987322
1.01377
1.00001
1
1.10834
1
0.896957
1.20834
1.18378
1
1.17929
0.944832
1.13653
1.00001
1.11777
1.12208
1
1.13656
1.12646
0.916083
0.905774
1.03551
0.8494
1.13787
0.914836
1
1.10495
0.999912
1
1.06563
1
1.12529
1.14441
1.23312
1.11373
0.99275
0.989825
0.989166
1
0.911272
0.915837
0.751689
1.1137
1.18769
1.21169
0.89014
1
0.912747
1
0.773051
1.06222
1.02448
1.0863
1.13428
1.16205
0.989768
0.806488
1.04103
1
1.11248
1.11405
0.984572
1.15264
1
1
1.11912
0.89951
1
1.19704
1
0.90348
1.123
1.01498
1
0.92678
1.12827
1.12466
1.07755
1.14225
0.92324
1.0692
1
0.862509
0.910091
0.987351
0.818495
1
1.0543
0.918924
1.07506
1
0.932588
1.15985
1.02099
1.12095
0.997243
1.03281
0.920152
0.799088
0.799308
1
1.03055
0.924753
1.13047
1.03821
1.15016
1.34085
1.08417
1
0.941828
1.12692
0.803628
1.00086
1.06972
1.00916
1.11471
0.931513
1.07445
0.90455
0.923009
1.03341
0.884395
1.0588
1.14053
0.999853
1.16207
1.14868
1
1.35536
1
1.06742
1
1
1
1
1.10742
1.12809
1.16869
1.08171
1.00005
1.00234
1.05217
1.0393
1
1
1.0845
1.04663
1.15751
1
0.913284
1.04008
1.04716
1.13904
1
1.03562
1
0.93765
1.04426
0.999126
0.997099
1
1.10046
0.912077
1.14936
0.788735
1
1.17046
1.14338
0.939118
1.00063
1.13614
1.10961
1.14744
0.925437
1.0329
1.16668
0.796853
0.909777
0.909509
0.931755
1.14588
1
1.14364
0.824553
1.03449
1.18055
1
1.11213
1.11365
1.02479
1.145
0.927998
0.835092
1
1.23928
0.931716
0.917215
0.985146
1.13708
1.13094
1.13963
1
1.14925
1
1.13254
1
1.1415
1.01697
0.901613
0.84705
1
1
1
1.13716
1.33056
1.1238
1
1
1.12202
1.02515
1
1.33764
0.873191
1
0.992678
0.902065
0.995686
1.07893
1.00538
1.15396
1.14231
1
1.31228
0.859936
1.0931
1
0.896681
1
0.916595
1.14188
0.920113
0.913554
1.15095
1.05997
1.14437
1
1.03338
0.867709
1.17894
1.05252
1
0.885492
1.13403
1
1.20943
1.01237
0.837732
1.14488
1.25518
0.89612
0.839857
1.22562
0.86782
1
1.152
1
1.04164
1.09622
1
1
1
1.03971
0.909504
0.832096
1.2138
0.998301
1.16091
0.895447
0.987133
0.88763
1.16323
1
0.892491
0.937747
1.15512
0.820249
1.05827
1.01386
1.13888
1.1302
0.903478
0.99458
0.88538
1.05027
0.996432
1
1.02889
1.04095
0.8867
0.857873
1.15109
0.844686
1
1
1.15383
1.05111
0.866639
0.911531
1.06794
1.14695
1
1.06124
1.06331
0.904563
1.01766
1.00887
1.15849
1
0.866634
1.12918
1.03888
0.916327
0.897177
1.15615
1.1571
1.26554
1
1
1.14021
1
1
1.05581
1
1.13388
1.12376
0.91452
1
0.905593
1
0.912358
0.834321
1
0.914632
0.885389
1.00943
1.21582
0.920082
1.12771
1.01383
1.16663
0.983513
1.16304
1.13198
1
1.18481
0.902854
0.990943
1.07417
1
1.19217
1.05974
1.00619
1.00903
1.07299
0.919954
0.838444
0.885966
1.00985
0.918644
1.02434
1
0.987103
1
1.00814
0.829816
1
1
1
0.858179
1
0.998935
0.920778
0.982834
0.920834
1.22074
0.906012
0.959474
1
1.12851
1.16051
0.890276
1
1.17726
1.11818
1
1
1
1
0.994653
1.01705
1
1
0.905153
1
0.81934
1
1
0.913079
1.02454
0.885059
1
1.14591
1
1
1
1.03765
0.999999
0.788155
1
1.2651
1.2441
1
0.902598
1.18809
1.01384
1.062
1
1.1218
0.918867
1.08024
1.05188
0.902679
1.00002
1.08949
1
1
0.999994
1.03222
1.05221
1
1.05365
1.15176
1.11092
1
1.34629
1.06411
1
1
1.11381
1.15028
0.925219
1.20543
1
1.23691
1.14868
0.999534
0.928782
1.10744
0.811997
1.06947
1
1
0.861286
1.10898
0.867545
0.914188
0.920996
0.92636
0.929772
0.921166
1.04891
1.05621
1.11623
1.03567
0.819689
0.930033
0.813347
1.07594
1
1.10544
1.1459
1.14265
1
1
0.933917
1.11097
1.09897
0.926151
1.05967
0.912701
1
1
1.08205
0.996587
0.851294
1.11207
1.20261
1
0.979779
1.30513
0.957552
1.14081
0.931197
0.921851
0.930476
1.05504
0.988368
1.13701
1.10895
1.17343
0.96694
0.933235
1.08724
0.904911
0.87171
0.907681
1
1.14954
0.911152
1.04912
1
0.791687
1.18483
1.3558
1.1068
1.07211
1.17489
1.13565
0.792528
0.916503
0.89897
0.931551
1.20215
1.01064
1
1
1.13004
1.18078
1.19483
0.989858
1.09171
1.12004
1.0002
1.18446
1
1.29527
1.0962
1
1.10521
0.901714
1
1.27769
1.01809
1.10386
0.891006
1.09891
0.999993
1
1.01539
1.04685
1.09878
1.17211
1.06069
1.21708
1.04038
0.766525
1.26095
1.06508
1.20615
1.15998
1.11858
1
1.16819
1
0.917819
1.14125
1.12538
1
1.0925
0.912009
1
0.948773
1.18681
1
1.1633
0.753867
1.23237
1.12097
0.762296
1
1.25439
1
1.17483
1
1.13021
1.09994
1.16769