/*--------------------------------*- C++ -*----------------------------------*\
  =========                 |
  \\      /  F ield         | OpenFOAM: The Open Source CFD Toolbox
   \\    /   O peration     | Website:  https://openfoam.org
    \\  /    A nd           | Version:  12
     \\/     M anipulation  |
\*---------------------------------------------------------------------------*/
FoamFile
{
    format      ascii;
    class       volScalarField;
    location    "6.19";
    object      p;
}
// * * * * * * * * * * * * * * * * * * * * * * * * * * * * * * * * * * * * * //

dimensions      [1 -1 -2 0 0 0 0];

internalField   nonuniform List<scalar> 
22702
(
1
1
0.869631
1
1.06239
1
1.47216
1
1
0.615703
1.47235
1.47053
1
1.4712
0.887563
1
1
1
1.47099
1
1.47174
1
1.47071
0.66539
1.47052
0.669733
1
1.4681
0.630732
0.66145
1
1.46998
1
1
1
1.43502
1.47083
1.47164
1
1
0.608785
1
1.22692
1
1.46736
1
1
1
1
0.665168
1
0.668285
1
1.47249
1
1.47081
1
1
1
1
0.676702
1
1
0.658921
1
0.668208
1
1
1
0.627812
1
1.46889
1.2844
1
1.47042
1.49699
0.666851
1.46777
0.662275
1
1.47225
0.657355
1.47538
1.46672
1
1
1
1
0.930252
0.629318
1.48247
1
1
0.633497
1
1.47214
0.632549
1
1
1
1
1.22468
1.47226
0.662092
1
1
1.11223
1
0.661498
1
1.47062
1.47161
1
1
0.647732
0.649121
0.631599
1
1
1
1
1
0.910915
1
1.40058
1.04675
1.47191
1
1.47712
1.47047
1.47095
1.47165
1
0.649382
1
0.680396
1
1
1
1
1.4712
1
1
1
1
1.4735
1
1.02612
1
1
1
1
0.655407
1
1.01081
1
0.653615
1
1
1
1.47975
1
1.46927
0.649992
0.65758
1.46922
1.46745
1
1.07397
1.26862
1
1.47255
0.667001
1.43619
1
1
1
1
1.47164
1.36893
1
1.47183
0.687315
1.47213
1
0.649452
1
0.664773
0.667925
0.999781
1
1
1.47149
1
1
1.47049
1
1.47782
1.47172
0.651513
1
1
0.649026
1.47057
1
1
1
1.47091
1
0.652186
1
1
1.47145
1.47152
1.47547
1
1.00004
1
1
1
1.47167
1
0.684868
1.48667
1.47034
1.47047
1
1
1
0.65031
1.4717
1.22032
1
1.47324
0.674831
0.672319
1.47346
1.47364
1
1.48124
0.644942
1.41488
1
1
1
1
1.47111
1
1.26915
1.04236
1
1
1.47111
0.678854
0.777926
1
1.47387
0.625123
1.47696
1
1
1
1
1
1
1
0.666937
0.773308
0.683062
1.47117
1
1
1
1
1.42239
1
0.668529
1
0.631836
0.65582
1.47217
0.674209
1.4717
1
1
1
0.997435
0.648788
0.641773
0.999999
1
0.632815
1
1.47059
0.657946
1
1
1.47146
0.642207
1
1.47011
0.660272
1.47116
1
0.639119
0.997685
1
1
1
0.666723
1
1
0.999999
1.00001
1.01519
1.28434
1
0.669395
1
1
1
1
1
1
1
1.47153
1
1.46984
1
1
1
0.646529
1
1.47281
0.666745
1
1.36959
1
1
1.47247
1
1
1
1.46874
1
1
1.45834
1.47227
1
1.08829
1
1
0.680099
1
1
1
0.649394
1
1
1
1
0.655906
1
1
1
1
1
0.630169
1.00006
1.46821
1
0.999981
1.46749
1.46887
1
1
0.65431
0.822315
1.4731
1
1
1
1.47101
0.623963
1
1.46976
1
1
0.727686
0.73343
1
0.645851
0.650002
1
1
1
1
1
1
1
1.46389
1.11892
1.43774
0.635861
0.886759
1.47049
1
1.47271
1.47251
0.691801
0.784575
1
0.65872
1
1.4815
1
1
1
1
1.47052
1
1
1
1
1
1
1
1.16784
1.47767
1
1.47128
1
1
0.658065
1
1
1
1
1.47102
1.35305
1
1
0.648211
1.47092
1.4717
1
1.47183
1.47083
1.47148
1
0.834703
1
1.47116
0.992737
1.47136
1
0.691751
0.998822
1.47193
1
1
1
1
0.665022
1.47236
1.42634
1
1.47401
1.47112
1.47289
1
1.22179
1.47091
1
1
1.32427
1.06293
1.47136
0.935247
1.47131
1
1.47145
1.47144
1.4715
1.47129
1
1.4663
0.909852
0.899387
1
0.999999
1
1
1.46658
1
1
1
1
1
1.47229
1
1
0.995854
1.47162
1.41649
1
1.38691
1.00004
1
1
1.47157
1
0.99712
1.00468
1
1.47149
1
1.47033
1
1
1.346
1
1.47085
1.00002
1
1.47255
1
1.47101
1
1
1
1.47061
1
1.4705
1.00001
1.47089
1.47002
1.47109
1.46345
1
1.47314
1.46997
1
0.650668
1.4404
1.33325
1
1.47027
1
0.677374
0.665432
1
1
1
1
1
0.63437
1
1.47115
1.11909
1.47169
1
1
1
1
1
1.47162
1
1.47435
1.27279
0.783147
1
1.00001
1.13378
1.11713
1
1
1.1604
1
0.659169
1.47155
1.47135
1
1
1
1.47003
1
1.00003
1.47173
1.4721
0.944741
1
1
0.667608
1.42683
1
1
1
1
1
1.47131
1.473
1
1.47293
1.46972
1.47113
1
1
1
1
0.663405
1.47134
1
1
1.42706
1.47083
1
1.44233
1.47905
1
1
1
1
1
1.47133
1
1
1
1
1.46688
1
1.46696
0.665636
1
0.674814
1
1
1
0.996883
0.655098
0.999093
1
1
1
1.06473
1
1
0.857863
1
1
1
1
1
1
1
0.999997
0.928414
0.999999
1
0.997435
1
0.665248
1
1
1
1
1.34694
1
1
1
1
0.647518
1
1
1.44315
1.4707
0.999999
1
1
0.90558
1
1
1
1
1
1
0.934633
1.00791
1.4716
1
1
1
1.4687
0.897411
1
1
1
1.47001
1.46668
1
1.00001
1
1
1
1
1
1
1
0.650308
1
1
1.471
0.657333
1
1.4701
1
0.648817
1
1
0.654725
1
1
1
1
1
1
1
1.46276
1.47132
1
1
1
1
1.42839
1
1.14474
0.645653
1
1
1
1
1
1
1
1.02692
1
1
1.23307
1
1
1
1.3869
1
1
1
1
0.644183
1
1
0.635536
0.649976
1
1
1.47114
1
0.976804
1
1
1
1.32548
0.668171
1
0.667203
1
0.800983
1
1
1
1.47266
1
1
1.47155
1
1
1
1.47115
1
1
1.47141
1
1
0.69436
1
1.14447
1
1
1.47123
1.47047
1.31169
1.42046
1
0.688006
1
1
1.45014
1
0.646623
1
1
1
1.4721
1
1
1
1
1.27774
1
1.45784
1.47479
0.62844
1
1
0.670532
0.670273
1
1
1
1.33163
1.35088
1
1
1
1
1
1
1
1.2004
1.46429
1.00095
1
1.46575
0.659411
1
1
1
1.2489
1
1.08848
1
1.42828
1.46917
1
0.691135
1
1.47181
1
1
1.47233
1.43994
1
1.47809
1
0.654004
1
1
1
1.47379
1.46245
1.41308
1
1.4738
1.47163
1
1.4724
1
1.46939
1
0.624853
0.983495
0.642821
1
1
1
1
1
1.47176
1
1.47137
1
1
1
1.44752
1
0.673754
1.47192
1
0.639552
0.699865
0.683351
1
1.22722
1.04178
1.47296
1.47197
1
0.999999
1
1
1.47135
1
1
1.47137
1.47151
1
1.15561
1.00013
1
0.996732
1.47947
0.838065
1
0.80525
0.663388
0.657063
0.936964
1.46791
1.46455
1.09201
1.47211
1.47212
1
1
1.46405
1.47058
1.47177
1.4752
1
1.47138
0.656116
1.47172
1.47368
1.46914
1.47413
0.874279
0.874167
0.915495
1.47161
0.962621
1.47259
1
1
1.47314
1.47069
1
0.657046
1.47183
1.47141
1
1.47196
1.47194
1
1.47113
0.643726
1.46959
1.46092
1.4716
1.47569
1
1
1
1.47121
1.30117
0.677963
1.47089
0.636845
1.4713
1
1
1
1
1.47128
1.47119
1
1
1.4712
0.640693
1.47174
0.664897
1
1.46846
1
0.608126
1.47381
0.742215
1
1.47197
1.47435
1.47248
1
1
1.20347
1.47317
0.64926
1.47114
1
1.47159
0.852667
1.47243
0.654586
1
1.47115
0.711159
1.47324
0.646996
1
1.47228
1
1.47675
1
1.27268
1.45344
1.36563
0.65953
1
1.47166
1
1.47132
1
1.47182
1
1
1.47316
0.983927
1.47397
0.596184
1.43828
1
1.33161
1
1.47343
1.47165
1.47304
1
1.42215
1.47162
1.43427
1.28146
1.46901
1
1.31031
1
1.4734
1
1.06439
1
1.43487
1
1.47159
1.44923
1.44848
1
1.4616
0.667502
1
0.675325
1
1
1
1.47228
1
1.47208
1
1
1
1.47225
1.46606
1.38
1.47355
1.47039
0.672763
1.47992
1.48039
1
1.40397
1.47168
1.44464
1
1.47243
1.47078
1
1.48067
1.46991
1.47205
1.4737
1
1
1
1.47209
0.653436
1
1.47139
1
1
0.66673
1
1
1.4713
1.47122
1
1.47144
1.47745
1.47191
0.985343
1.47205
1
1.47206
1.47123
1.37615
1
1
1
1.46801
1.47163
1.47132
0.955533
1
1.47677
1.47184
1.47016
1
1.47168
1.47297
1.47135
1.47696
1
1.47229
1.46943
1.40327
1.47057
1.47511
1
1.47145
1.4664
1.47131
1.47202
1.47305
0.665609
1.47247
1.46893
1
1.47117
1.47135
1.47142
1.47206
1
1.47125
1.47101
1
1.47126
1.39551
1
1
1
1.46935
1.47815
1
1
1.2488
1
1.47145
1
1
1.47184
1.47323
1.47127
1.47196
1
1
1
1.32522
1
1.47213
1
1
1.47551
1.46028
1
1.47129
0.624669
1.47107
1.46897
0.730711
1
0.642971
1.40622
1.47596
1.47303
1.4727
0.664963
1.47203
1.47242
0.666868
0.635318
1
1.47232
1.47221
1
1
1.47151
1
1.47842
1
1.41082
1
1.21646
1.47255
1.47468
1.32577
1.41883
1.47868
1.47115
1.43771
1
0.648089
1.47427
1.47096
1.47691
1.00001
1
1
1.47536
1
1.471
1.47099
0.781045
1
1.47172
0.999941
1
1.00003
1.00005
1.47069
1.47211
0.998462
1
1
1.47147
1.47325
1.47129
1.4718
1.47429
0.681433
1.39361
1
1.46857
1.47205
1.47184
1.46296
1
1.47145
1.45841
1.47265
1
1.47155
1.47129
0.862762
1.47136
1.47084
1
1.47169
0.848207
1.47096
0.861634
1.47127
1
1.47177
1.48217
1.47149
1.47186
1.4717
1.46745
1.47216
1.46944
1
0.928094
1.47131
1.47166
0.849007
1.47175
0.967002
1.27956
1.47132
1.46956
1.46883
1
1.47378
1.3048
1.47056
0.917276
1.47372
1.47119
1
0.866283
1
1.4677
1
1.32053
1
1.4551
0.85421
1
1.46892
1.46791
1
1.47345
1.47343
1.46799
1.4614
1.46603
1
1.47058
1
1
1
0.886156
1.4705
1.47103
1.47323
1.47141
1.47653
1.47139
1.47639
1.47206
0.893858
1.03008
1
1
1.47856
1.47157
1.47195
1.47181
1.00003
1.23931
1
1.48013
1.42258
1
1
0.723117
1.47128
1
1
0.64457
1.47179
1
1.4735
1.47166
1.47964
1.45244
1.47158
1
0.662267
1.11189
1.47276
1.47175
1
1.47098
1.47123
1.22487
1.01077
1.10065
1
1.47673
1.47166
1
1
0.670838
1
1
1.47158
1.47138
1.47099
1.47145
1.47099
1.46927
1.47248
1.47228
1.4713
1
0.996191
1.47158
1.47202
0.996821
1.47134
1.47124
0.673156
0.622318
1.46951
1.47964
1
1
1.00145
1.47177
1.47239
1.47169
1
1.47129
1
0.855058
1.47889
1.4733
1
1.21015
1.47136
1
1.47172
1
1.47222
1.30912
1.47272
1
1.47118
1.47097
0.669076
1.47138
1
1.4699
1.46411
1
0.670536
1.4677
1.38745
0.997483
1.45833
1.47131
1
1.00106
1.47604
0.997402
1.47128
1
1
1.47071
1
1.46981
1.4713
0.996359
1.37426
1
1.4713
1
1
1
1
1.47164
1
1
1.46232
1
1.47147
1
1.29265
1.47293
1.47047
1
1
1.00455
1
1.46982
1.47155
1.47018
1.47109
1.47109
1.47195
1.47149
1
1.47213
1.47151
1
1.47189
1.47205
1
1.47202
0.920521
1.05789
1.47203
1.47127
1.47212
1
1.47116
1
1.47155
1.47132
1
1.47085
1
1
1
1
1.47186
0.66958
0.997815
1
1.47191
1.46742
1
1.47172
1
1.00456
0.645804
1.47169
0.999632
1
1.47088
0.998372
1.47158
1
0.999754
1
1.47082
1.46764
1.47211
1.47506
0.655613
1.47126
1.47022
1.47191
1.1143
1
1
1.19923
1.47088
0.653521
0.662399
1
1.4702
1.47125
1.47201
1
1
1.46952
1.4721
0.999894
1
1.33072
0.625855
1
1.08003
1.47105
1.47148
0.998241
1.47145
1.4787
1
0.998998
1
1.47437
1.47794
1.18317
1
1.46144
1
1.00192
1.47042
0.623669
1.46993
1.4713
0.996904
0.999912
1.41488
1
0.999688
1
1.47394
1
1.00001
0.627507
1.47159
1.00001
1
1
1
1.47577
1.26537
1
1
0.642035
1.47133
1.26636
1
1
1
1.44873
1.46981
1.47046
1
1
1.47455
1
1.47123
1.4713
1
1
1.47291
1.47114
1.44568
1
1
1.47302
1.47438
1
1
1
1.47489
1
1
1
1.47262
1.4764
1.47465
1
1.47618
1.00003
0.685839
1.47049
1.4717
1
1.4718
1.44498
1.46661
1
1
1.47687
1
1.24015
1.47283
1
0.67381
1
1.47375
1
1
1.46914
1
1
1
1.1404
1.47229
0.669847
1.00001
1.47323
1
1
1.47086
1
1.47603
1
1
1.47203
1.47193
1
1.00005
1
1
1
1
1
1
1.47953
1.47155
1
1.47368
0.658736
1.4803
1
1.47206
1.46745
1.47197
1.4612
1.47798
1
1
1.4676
1
1.29144
1.47509
1.4715
1
1.47499
1.46246
1
1.42132
1
1.47203
1.29678
1.46916
0.997548
1.45891
1.43088
1.47191
1.47266
1.03511
1.47181
1.47513
1
1.47176
1
1.47153
1
1
1
1
0.996545
1.47157
1.47112
1.38466
1
1.47671
1
1
1
0.646645
1
1.46085
1
1.42578
1.45018
1
1
1
1.44666
1.47461
1
1
1.47181
0.654023
1.07323
1
1.47538
1.47206
1.42863
1.46112
1.47092
1
1.47088
1
1
1
1
1.47188
1.47197
1
1.45787
1.05675
1.47082
1.43945
1
1
1.44007
1
1
0.689983
1.32583
1
1
1.47642
1
1.47554
1.42948
1
1.42858
0.65247
1.47173
1.47166
1.47229
1
0.669974
1
1
1
1.4721
1.38021
1
1.47491
1.47044
1
1.47167
1
1
1
1
1.47029
0.999412
1
1.4734
1
1
1.47064
1.47136
1
1.47785
1.08993
1.00002
1
1.47154
1
1.4712
1
1.01445
1.47172
1
1.47152
1
1
1.13385
1.47232
1
1
1
1
1
0.995853
0.672781
0.661399
1.02
1
1.02906
1
1.02801
1
1.47194
1
1.27981
1
1.47206
1
1
1
1.47189
1
1.38033
1.47128
1
1.24214
1.47241
1
1
1.47358
1.47175
1
1
1.04986
0.662543
1
1.4724
1
1
1
1
1.07608
1.47152
1
1
1
0.652487
1
1.47206
1.47139
1.4858
1
1
1
1
1.23151
1.47276
1
1
1
1.47204
1.47128
1.05304
1
1
1
1.47126
1.471
1
0.670838
1.47177
1.47171
1.47282
1.47325
1.47563
1
1
1.47437
1.47413
1.47115
0.651833
1.04032
1.47152
1
1
1
1
1
1.47031
0.660568
1
1
1.47133
1.21179
1
1.47462
1
1
1
0.65037
1
1
1.12038
1.47189
1.47164
1
1.47749
1.47202
1
1.07615
1
1.47877
1
1.47219
0.6563
1
1
1
1
1.47167
1.00007
1
1
1
1.44578
1
1
1
1
1.47128
0.652682
1.36962
1.47373
1
1.47217
1
1
1
0.997069
1
1.46768
1
0.818383
1
1
1.00003
1.47241
0.643095
1
1.47527
1
1.47467
1.47157
0.623004
1
1
1.45323
1
1
0.648426
1
1.48191
1
1.45006
0.999259
1.47072
1
1
1
1
1.47113
1
1
1.47126
1
1
1
1
1
1
1
1
1.3062
1
1.14392
1.47046
1
1
1
0.66457
1
1
1
1
1.46997
1.47157
1.05869
1
1
1.4733
1
1
1.47352
1
1.00002
1
1
1
1.00001
1.47019
0.790123
1.47142
1.47347
0.996979
1
1
1
1.27567
1
1
1.47073
1.47117
1
1
1
1
0.617816
1
1
1
1.29599
1
1.47179
1.47554
1
1.47253
1
1
1
1.24953
1
1.47163
1
1.47107
1
1
0.996377
1.47148
1
1
1
1
1
1.47293
1.00002
1
0.68707
1.4765
0.71548
1
1.47006
1
0.996094
1
1.47318
1.46709
1
1.4759
0.883223
1.47177
1.47491
1.00003
1
1
0.657488
1
1
1
1.47111
1.26156
1.47505
1
1
1
1
0.996957
1.47007
1
0.654511
1
1
1
1
1
1
1
1.47849
1.47255
1.47048
1
1
0.996986
1
0.978481
1
1
1
0.634589
0.97751
1
0.655039
0.662086
1
1.47231
1.47206
1
1.46795
1.47113
0.654867
1.31893
1
1
1
0.653834
1.47082
1
0.64968
1
1.46932
1.07449
1
1
1
1
1.47122
1.4699
1
1
1.4716
1
1
1.4742
1.47175
1
1.42278
1.47177
1.47384
0.962048
1.47132
1.00828
0.651896
1.35576
1.47211
1
1
1
0.616278
1
0.672609
1.47007
0.960405
1.47143
0.952119
1
1.47052
1.21127
1
1
1.47037
1
1.1938
1.47257
1
1
1.46791
1.47957
0.649689
1.2816
0.99989
1
1.27738
1
1.48031
0.937717
1.48435
1.47919
1
1
1
1
1.46939
1
1
1.47261
0.999627
1.46982
1.38725
1.46937
0.650341
1
1
1
1
1.47106
1.00004
1.47175
1
1.47054
1.47315
1.0578
1.48048
1.13359
1.4712
1
1.31935
0.686573
1.47811
1.47144
1.37392
1.07425
1.47001
1.47155
1.47115
1.47161
1
0.901318
1.06713
1
1.47138
1.21913
1.47019
1.00003
1
1
0.702848
1.47329
1.47108
1.3783
1
1.1764
1
1.47107
1.47126
1
1.46999
1.47175
1
1
1
1.46965
1
1.17925
1.47615
1.32385
1
1.46983
1
1
1
1
1
1
1
1
1
1
0.670786
1
1.44322
0.659228
1.27498
0.998595
1.47546
1
1.24121
1.00001
1.29433
1.39816
1
1.00215
1.46639
0.888817
1
1.4703
1.46992
0.935744
1
1.47267
1.47074
1.47469
1
1.47135
1.46886
1.47017
1
1.21457
1
1.00006
1.47029
1
1.4709
1.06674
1.47034
1
1
1.47492
1.46954
0.710947
1
1.47234
1.34725
1.47066
1
1
1.47174
1.47135
0.998228
1
1.41268
0.996822
1.47141
1.00006
1
1
1
1
1.21165
1
1.35987
1.46878
1.34557
1.47261
1
1.0041
1
1
1.47473
1
1.46951
1
1
1
1
0.999999
1
1.05298
1.23976
1
1
0.670524
1
1.47625
0.665845
1.46907
1
1.23292
0.99974
1.47167
1.29383
0.663154
1.255
1.00003
1.47191
1.46867
1
1.28197
1.47131
1.47023
0.998419
1.47998
1.45858
0.658793
1
1
0.997205
1
1.46507
1
0.669547
1.47394
1
1
1.40952
1
1.46928
1
1.47101
1
0.687233
1
1
1.46894
1.47935
1.476
1
1.4736
1.47174
1.46819
1
1
1.45784
0.999999
0.730095
1
1
1
1.47064
1
1.47178
1.30609
1.47159
1
1.4715
0.999364
1
1
1
1
1
1
0.703245
1
1
1.47119
1
1.47055
1.47576
1
0.681259
0.650751
1
1.47306
1.07524
0.654764
0.637151
1
1.46984
1
1.47151
0.651939
1.00119
1
1
0.999511
1
1
1
0.999914
1.19197
1.47135
1
1
1.47312
1.26779
1
1.43256
1.47272
1.47573
1.19033
1.46879
1
1.47147
1
1.47102
1
1.47308
1.47261
0.997216
1.47116
1.47113
1
1
1
1
1
0.933556
1.46961
1.00004
1.00003
0.608405
0.999982
0.678257
0.652214
1
1.46691
1.47204
1.46996
1
1.47212
1
0.650993
1
1
1.46916
0.834816
1.47303
1
1.46997
1
0.977037
1.4725
1
1
1
1.47226
1
1.47541
0.650914
1
1
1.26796
1
1
1.2541
1
1
1.47174
1
1
1
1
1
1.47797
1.47135
1
1.47296
1.46975
0.670469
1.21107
1.47293
1
1
1.42193
0.99891
1
1
1.47147
1.46956
1.29793
1
1.46601
0.682757
1.43809
1.0001
1
1.4716
1.00003
1.47183
1.39772
1.35262
1
1
1.47149
0.709994
0.633027
1
1.47193
1
1.47222
1
1.27858
1
1
1.47063
1.29833
0.6536
1
0.998297
1
1
1.02531
1.19269
1.47168
1
1.46985
1
1
1
1
1
1
1.06548
0.652003
1
1
1.03882
1
1
1
1
1
1.47045
1
1
1.47222
1.47208
1.33323
1
1
1
0.827963
1.47051
1.3263
1
1
1
1
1.47337
1
1
1
1.47618
1
1
1.34044
1.4839
1.02783
0.743752
1.47533
1.3302
1.47413
1
1.2298
1
1
1
0.642284
1.00284
0.571177
1
0.641605
0.654737
1
0.664276
1
1
1
1.20723
1
1.47034
1.47069
1.00053
1.22163
1.4007
0.639026
0.756153
0.893366
1
1.47182
1.47168
1.4718
1.47136
1.40346
0.881465
1
1.40491
1
1.46277
1
1
0.996288
1.00838
1
1
1
1.47327
1
0.672193
1
1.47233
0.690825
1
1
1.47142
1
1.47137
0.999687
1
1
1.47245
1.40986
1
1.48995
1
1
1.01442
1
1.20743
1
1
0.669807
1
1
1.47399
0.999999
1.47169
1
1.00003
0.67959
1
1
0.715285
1.00089
1
1.47209
0.698336
1.47546
0.646704
1.47243
1
1
1
1
1
1
1
1
1
1
1
1.4515
1
1.4737
1.47092
0.659484
1
1
1
1
1
1
1.45817
1
1
0.655597
1
1
1.472
1
1
1.17594
1.39443
0.642144
0.674151
0.697921
0.717865
1
0.99644
0.628328
1.00028
1.44721
0.996801
1
1
1.4695
1
1
1
0.776489
1.00001
1.16084
1
1
1.1812
1.47216
1
0.647063
1
1
1
0.996611
1.00001
1.4705
1.47133
1
0.653108
1
1.25105
0.664858
1
0.895658
1
0.996295
0.652219
1
1
1
0.995782
0.619919
1
0.639172
0.998395
1.24301
1.43213
0.659194
0.64654
1
0.99085
1
0.998614
1
1.47211
1.47222
1
1.00668
1.46937
1.471
1
1
1.47135
1
1
1.00005
1
1.4701
1
1
1.01862
1
0.998598
0.681061
1
1
1
1
1
1.47578
1.03788
1.00005
1
1
1
1
1
1.00003
1
0.667444
1.10038
0.998672
1.4605
1.46805
1
1.01543
1.469
1.40753
1
1
0.652487
1.47177
1
1.47132
1
1.4734
1.33106
0.663061
1
0.664
1.42995
0.999675
1
0.653299
0.655676
1
1
1.39589
1
0.999998
0.658818
1
1
1
1.1469
1
0.662058
1.47179
1
1
1
1
1.47206
1
1
1.46908
1.4206
1
1
1
1.46902
0.658753
1
1.47206
1.4714
1
1.37468
0.999999
1.00003
1
1
1.43846
1.00718
1
0.677601
1.2555
1
1
0.997351
1
1
1.47106
1
1
1.00003
1
1.47037
1
1
1
1
1
1
1.00002
1.20555
1
1.46964
1
1
1.47318
1
1
1
1.47156
1.47208
1.04711
1
0.997578
1
1
1
1
1.4712
1
1
1.47242
0.649822
1
1
1
1
1
1
1.37764
1
1
1.4686
1.47199
1
1
1
1.47202
1.47391
1
0.999667
1.46603
1
1
1
1.00002
0.681048
1.03025
0.996202
0.996203
1
1
0.646848
1.47262
1
0.653643
1
1.46871
1.45152
0.644578
0.999406
1.47144
1.47106
1.47102
1
1
0.928843
1.42008
1.39412
0.656139
1
1
1
1.46965
1.47169
0.65693
0.997337
1
1.4717
0.696787
1
1.47263
0.661493
0.966714
1.00617
1
1.47835
1
1
1
1
1
1
1.00012
1.4384
1
1
1.47785
1
1
1
1.47156
1
0.664015
1
1
1
1.16028
1
1
1
1
1
0.776379
1
0.706152
1
1.47165
1.00007
0.857154
0.865268
1.00002
1.00472
1.24389
1
1
0.673987
1.47193
1.47154
1.47161
1
0.623619
0.655109
1
1.47199
1
1
1
1
1
1.00003
1
0.664843
1.30473
1
1
0.651241
0.994067
1.00001
1
1
1
0.64544
1
0.709942
1
1
1.46625
1
1
0.650688
1
1.47265
1
0.639649
1
0.661097
1
1.008
1.47096
1.48677
1
1
1.47066
1
1
1.10079
0.996662
1
0.998263
1
1.47359
1
0.618008
1.00002
1.47202
0.998957
1
1
0.812513
1
0.999058
0.638054
1.46982
1.16654
1
1.00001
0.905794
1
1
1
0.806364
1
1
1
1.47147
1
0.663778
0.999999
1
1
1
0.643121
1.47291
1.4338
0.642812
1
1.48019
1
1
1.47137
1.47191
1.39552
0.659492
0.997679
0.99922
1
1.47122
1
1
1
1
1.47312
1.00004
1
1
1.46997
1
1
1.47154
0.677914
1
1
1
0.65483
1
0.999999
0.999999
0.998649
1
1
1
1
1.38142
1
1.47266
1.47314
1.48323
1.47069
1.47219
1.47168
1
1.47016
1
1.4715
1.47126
1
0.998906
0.66479
1.40249
0.999905
1
1
1
1
0.995945
1
1.0732
1
1
1
0.841293
1.47179
1.47263
1.47567
1.40619
0.999877
1
1.02274
1.47079
0.997868
1.05994
0.997357
0.656048
1
1.00002
1
1
1
1
1
1.47184
0.657434
1.47208
1.47186
0.99521
0.669138
1
1
1
1.47124
0.685317
1.4146
0.647438
1.47181
1.4762
0.660492
1.47234
1.02302
1
1.47414
0.796235
1
0.998792
0.672606
1
0.697247
1
1.47157
1.47169
0.762672
1
1.47231
0.658367
1
0.654142
1
1.47267
1
1
1.4676
1
0.83352
1
0.999643
0.693256
1.47554
0.999498
1
0.685245
1
1
1
1
1.24525
1
1.47244
1
1
1.47645
1
1
1.47086
1
0.695446
1
0.645177
1.00001
1
1
1
1
1.45109
1.26702
1.4715
1
1.47127
1.43661
0.644215
0.652385
1
1
1.47108
1
0.695677
1
0.990501
1
1
1.47255
1
1.47205
0.673638
1.47523
1
0.662626
1
1
1.46984
1.46982
1
1.00004
1
1.46583
1
1
0.652094
0.999367
0.667067
1
1
1
1.47303
1.47805
1.47117
1
1
0.653863
1
1.475
1
1
1
1.44872
1.47159
1.4714
0.664611
1.4737
1.47173
0.656511
1.47173
1.00004
0.662147
1.01813
1
1
1.47068
0.6596
1.293
0.661359
1.47188
0.997458
0.63191
1.474
1
1
1
1
1.4711
1.47094
0.657697
1
1.00002
0.656027
1.00004
1
0.645824
0.634533
1.32725
1.47183
0.998466
1.47253
1
1.46771
0.822283
0.651562
1.47169
1.48514
1
1.47165
1
1
1.47062
1
1.35955
1.47158
1
1
1
1
1.47179
1.46627
1.47266
1
1
1.47003
1.46471
1.47043
1
1.47214
1
1
1
1
1
0.668452
0.836172
0.65379
1
1
1.46987
1
1
1.4685
0.640133
1
1.47081
1.46652
1.4491
0.641731
1
0.653752
1
1.00003
1.47049
1.22136
1.4709
1.42792
1
0.655923
1
1.46979
1.33338
0.630862
1
1
1
0.802017
1
1
1.47605
1
0.6506
1.4713
1
1
1
1
1
1.37369
1.10468
1
1.47282
1
1.47016
1
0.996758
1
1.47297
1.46989
1.4727
1.47469
0.999601
1.47125
1
1.47169
1.4736
1.39716
1
1
0.640928
1.46906
1
1
1.47902
1.47161
1.47122
1
1.47196
1
1
1.00003
1.46844
1.4741
1.13143
1.09887
1.47154
1.47131
0.724111
1
1
1
1
1.00002
1.16338
1
1
1.40212
0.679169
0.999969
1
1.47269
0.999879
0.99982
1.06766
1.41536
1.46954
0.912949
1
0.669794
1
0.996619
1.47148
1.47475
1.46949
0.998995
1
1
0.659788
1
1
1.47115
1.04921
1
1
1
1
1
1
1
0.999936
1.47223
1.00002
1
1
1
1
1.30782
1
1.2121
1
1
1.47166
1.4748
0.646546
0.998771
1
0.999999
1
0.654676
1.47244
1.47139
1
1
1
1
1
1
1
1
1.4706
1.47587
0.639588
1.05143
0.662897
1
0.64562
1
1.47164
1.11618
1
1
0.717487
1
1.45023
0.804503
0.99667
0.64022
1
1
1.47093
1.00004
0.997063
0.640258
1.47198
1.4789
1
1
1
1
1.43912
1
1
1.47147
0.998921
1.47138
1.00004
1
1
0.679941
1
1
1.47148
0.649775
0.77008
0.663022
1.4711
0.999346
1
1.47375
0.650511
0.642332
1.01919
1
1
1.47137
1.00004
1.20994
1
1
1.47113
0.658469
1
1
1.00013
1.47183
1.00013
1.45603
1
1.00003
1
1
0.730782
1
0.797468
1.00001
1
1.47104
0.680578
1
0.79806
0.794109
1
1
1.47213
1
1
1
1.47149
1.47117
1.00005
1.44732
1.47179
0.786316
1.47141
1.46051
1
1
1.46441
0.999999
1
1
1
1
1.47914
1.47188
1
1
1
1.47256
1.00023
1
0.65526
0.732865
1
1.00003
1.1742
1
1
0.897049
0.621059
1
1
1
1.47571
1.42998
1.47142
1
1
1
1
0.688705
1
1.46981
1
1.46484
0.678745
1.48222
1
1
1
0.6543
1
1.47261
1.00003
1
0.62692
1.1665
1
0.999662
1.47345
0.639354
0.650133
1
1.47177
0.64297
0.652488
1
0.669014
1.00001
1
1
1
0.654235
1
1
1
1
1.47161
1
1.35614
0.687905
1
1
1
0.649456
1.47164
1
1
0.996938
1.47023
1
1.4717
1.47176
1
1
0.715132
0.645885
1
1
0.640821
1.14011
1.21164
1
1
1.47088
0.997353
1
0.997476
1.47143
1
1
1
1
1
1
1.47334
1
1.15416
1.14773
0.687298
1.41284
1
1.47097
1.47187
1
1
1
0.903237
0.697119
1
1.22388
0.999635
1.41111
1
1
1
0.999999
1
1.00774
1.20708
1.47284
1.47129
1
1.47125
1
0.582454
1
0.997551
0.99978
1
0.668503
1
0.673067
1.00002
1.47478
1.47179
0.653642
1.47428
0.657231
0.996005
1.36835
0.678915
1.35243
1
1
0.99845
1
1
1
1.00006
1
0.700883
1
1
1
1
0.999603
1.47047
0.82229
1
1
1
1.0377
1
1
1
1.26143
0.751562
1
1
1
1.04561
1.4693
1
0.664088
1
1.4731
0.898264
0.621197
1
0.653068
1
1
1.44479
0.998199
1.43054
1
1.00906
1
1
1.47146
1
1
1
1
1.09178
1
1.47146
1.47296
1.4697
0.684595
1.47081
0.997095
1.38515
1
1
0.651598
1
1
0.637475
1.47809
1
1
0.999966
1
1
1
0.637344
0.672679
1
1.47251
1
1.21839
1.47132
0.655422
1.38481
1
1
0.658842
1
1
1.47133
1.47145
1.167
1
1
1.00252
1.47077
0.685243
0.655105
1.47258
1.47184
1.32422
1.18517
1
0.899805
1
1
1
1.44538
1.4703
1.46994
1
1
1.47411
0.642773
1.4132
0.645251
1
0.671846
1
0.665208
1.47119
0.648452
1
0.980468
0.687448
1
1
1
0.857267
1.42394
1.4716
1.47087
1.46989
1
1
1.4715
1
1
1.47242
1
0.652743
1
0.677439
1
1.47253
1
1
1.01771
1.36114
1
0.999139
0.645725
1.4718
1.00001
0.669589
1.08708
1
1
1.36669
1.47196
1.47186
1
1.47048
1.12518
1
1.02294
1.47178
1
1
1
1
1.47164
1
0.675681
1.47085
0.645855
0.679959
0.823822
1.47015
1.16067
1.47267
1
1.47213
0.997213
1.00003
1.472
1.47142
1
1.46899
1
1.47237
1
1.47152
1
1.00004
0.999998
1.47088
0.656573
0.669294
0.997925
0.999999
1
1
0.670132
1
1.30509
1
0.63972
1
1.17947
1.47153
1.47453
1
1
1.00003
0.999423
1
1.47201
1.47182
1
1.19113
1.46968
0.861473
1.47148
1.00092
0.639507
1.09416
0.654157
1
1
1.07595
1.47167
1
1
1.03588
0.998582
1
0.673427
1
0.783279
1
1.47255
1
1
0.675041
1.10824
1.06618
0.99847
1.47016
1.47153
0.792943
0.998013
0.669927
0.653495
0.655423
1
1
1
0.999063
0.747747
0.647
1
1.47169
0.999743
1.47115
1.47051
1.47136
1.47168
1
0.674669
1.47192
0.658116
1
1.47229
1.47009
0.996454
0.825131
1.47214
1.33282
1
0.672499
1
1
1.48219
1
1.02683
1.47308
1
0.664018
0.676191
1
1
0.643064
0.644754
1.47237
1.00004
1
0.665506
0.63124
1.47856
1.45888
1.43881
1.47215
1.11666
0.979107
1.19187
1.47476
1.35475
1
1.23371
1
0.665615
0.868483
1
0.649041
1.47186
1.02268
1.47334
1
1.47125
1.47044
1
1.47057
1.47152
0.665787
1.47582
1
1.4768
1
0.742867
0.658462
1.47171
1
1
1
0.659055
1.47212
1.47273
1
0.665996
1
1
0.678183
1.00004
0.651916
1.47148
1
0.830992
0.638905
1
1
1.2617
1
1
1
1.08044
0.663766
1
1.00001
1
1.46921
0.648555
1
1.47214
0.673349
0.654209
1
1
1.47753
1
1.47375
1.00001
1.47183
0.65757
1
1
0.655408
0.814281
0.67264
1
1
1
1
1.47323
0.650273
1
0.64906
1
1.47752
1
1
0.928175
1
1
0.836662
0.999703
1.00005
1
0.64723
0.667051
1
1
1
1
0.808975
1.46985
1.47168
1
0.645485
0.657554
0.913351
0.666285
1
0.821698
1
0.680692
0.985305
1
1
0.651312
1
1.47014
1.46065
0.66431
1
1
1
1.47568
1
1.04521
0.836379
1.14287
0.668856
1.18799
0.672629
1
1
0.739256
0.915658
1
1.03262
1
1
0.655297
1
0.937576
1.04153
0.648862
1
1.37394
0.775426
0.886989
1
1
1
0.654646
1
0.657759
0.636185
1
0.832321
0.64932
1.06271
0.767421
0.671031
1.47134
1
1.47192
1.25985
0.73117
1.47116
0.640134
0.999001
1.47138
0.999999
1
1.47089
1
0.713111
1
1.06299
1
1
1.47165
1
0.753225
0.794905
1.47162
0.937473
1
0.751331
1.47238
1.47305
0.911832
1
1.47267
1.12428
0.844299
1
1.01359
1
0.665685
1.19759
0.780419
0.753747
1
1
0.658507
1.47214
0.965375
0.660544
0.663263
0.868132
1
1.01408
1.47166
1.47212
1
1
0.999999
0.664551
1.2197
0.999988
1.47025
1.42508
0.643
1.00003
1.09512
0.876033
1.29016
1.40378
1
1.04021
1
1.00005
0.645357
0.827631
1
1
0.795731
0.653346
1.0396
1
1.00002
0.67226
1.20899
1
1.46492
1
1.03989
1.25106
1
1.45714
1
1
1.46867
1
0.642803
1.47079
0.698575
1.12177
1
0.659795
0.999917
1
1.00003
1
0.783189
1.02663
0.65736
1.34574
1.47179
0.632824
1
1
1
1
1
0.961752
0.65483
1.05277
0.66073
0.662057
1.06319
1
0.999793
1.11654
1
1
0.675342
0.99339
1
1
1.13097
1
1.47278
1
1.47179
1.09435
1.01814
0.662206
1
1
0.668217
1
1
1
1
1.47238
1.04417
0.998072
1
0.64428
1.05389
1
1
1.30153
1
0.644589
1.4729
1
1.00001
1
1.4725
0.642793
0.864368
0.637845
1.35167
1.47445
1
1
1.47147
1
0.632252
1
1
1
1
1
0.76672
1
1.47091
1
1
1.15562
1.47265
0.675252
0.866747
1
1.47196
1
1
1
1
1
1.47292
1.47206
0.65337
1.47147
0.635037
1
1
1.47131
1
1.47198
1.00507
1.02831
1.06435
1.47063
1.07179
1.32168
0.643091
1
0.635909
0.984008
1
1.47191
1
1
0.645836
1.48179
1
1.47227
1
1
1
1
1
1.00001
0.619106
1.4708
0.84151
1.47102
1
0.657274
0.667981
0.723555
1.47499
1.47167
0.965075
1
0.77635
1
1.17648
1
1.47222
0.641961
0.663252
0.844619
1
1.4715
1
1.06247
0.681723
1
1.47082
1.41356
0.998868
1
1.47277
0.653701
1.48002
1.47103
1.46942
0.648634
1.09507
1
1
0.645588
1
0.799952
0.811079
1
1.00002
1.47125
1
1.47737
1.08127
1
1.04643
1.4805
1
0.642203
1
0.777604
1
1
1.3846
1
0.806396
1
0.652253
1.03745
0.951994
0.633148
1.47053
1.3781
1.47187
0.65557
0.689176
0.995834
0.999999
1
0.713819
1.44394
0.665849
0.999972
1
1.47167
1.4727
0.904807
1
0.666113
0.741144
1.30502
0.982222
0.638475
0.999999
0.643328
1.12119
0.657248
1
1.00005
0.826116
1.47172
1.47052
0.843354
0.999598
1
1
0.725456
1
0.658779
1
0.650786
0.666859
1
1
1.00003
0.654089
1.47131
1
1
1.00006
1.00004
0.657758
1.4712
1.47105
0.999999
0.660214
1.47208
1
1.09555
1
1
1.46986
0.658574
1
1
0.686504
0.747047
0.660728
0.681379
1
0.715975
0.9971
1.09132
0.640156
1
1
1.12979
1
1.41377
1
1
1.32122
0.711561
1
0.647484
1.12686
1.47184
1
1
0.659679
0.656821
0.635038
0.744415
0.656976
1.35047
0.999429
1
1
1
1
1.47152
0.674141
1
0.918483
0.99968
0.99832
0.999947
0.780612
1.12836
1
1.47137
1.47124
1
1
1.44831
1.00004
0.999999
1.47145
0.652084
1.47338
1
0.644932
1.47196
1.00005
1
0.830977
1
0.648489
1
1.47096
1
1
1.47529
1
1
1.47847
1
1
1
1.4704
1
0.767497
0.737832
1
0.638834
1.47119
1
1
0.968526
1
1.47731
1.26552
1.37734
1
1
0.658178
1
0.678069
1.47109
1.47135
1.47065
1
1.47121
0.666489
1
0.675247
1.37615
1.42895
1.46886
1.47218
0.770427
0.652314
1
1.30422
1.47269
1.47162
1.47138
0.734841
1.16731
1
1.35542
0.747012
1
1.00002
1
1.00002
0.873776
1
1.47729
1
1
1
1
1
1
1.00006
1.46994
1
1.47655
1.34752
0.671434
1.47122
1.0341
1.22168
1
1.47118
1
0.653899
1
1
1
1
1.40127
1
0.643197
1.47073
0.634448
1.4713
1.37176
1.24266
1
1.08582
1.21751
0.99579
0.654816
0.755216
1.00002
0.999999
0.912176
1
0.652064
1.47267
0.668576
0.932098
0.847584
1
1
1
1.01345
1
1
0.695975
0.996925
1.47103
1
1.47168
1
0.658604
1
1
1.47127
1.47273
0.656216
1
1.47059
1
0.793069
0.672376
1.47117
1.42227
1
1.07545
1.4728
0.998682
1
1.18844
1.41332
1.47343
0.996131
1
0.999998
1.40072
1
1
1
1.47131
0.998462
1
1
1.47191
1
1
0.663151
1
1
1
1.47107
1
1
0.834543
1.14425
1.43048
0.760461
1
1.4712
1
1.16279
1
1.4711
0.997221
1.47222
1
0.66471
1
1.3177
1
1
1.43957
1.00001
1.47163
1
1.47612
0.714479
0.65372
1.4703
1
1.38731
1
1.47219
1
1
1.00005
1.46911
1.46918
1.11871
1.47184
0.995286
0.664855
1.47104
0.871903
1
1.46969
1
1.47211
1
1.47343
1.47241
0.996111
0.652242
1
1.47149
1
1.03578
1
1
0.997939
0.748908
1.42037
1
1.42393
1
0.852354
0.63916
1.47226
1.47316
0.704946
1
1.47235
1.47222
1.47227
0.686027
1.47205
0.67353
1.47195
1.47623
1
1
1.47193
1
1
1
1
0.658326
1
1
1.47162
1.4716
1
1.47165
1
1.47255
1.47196
1
1.38984
1
0.639246
1.47149
1.35752
1.1319
0.643278
1.47129
1
1
0.643012
1
1
1.47141
1
1
0.766012
1
1.47182
1.00008
1.47181
0.640509
1.47239
1
1.47321
1.45311
0.881986
1
1.4726
0.759663
1.46924
1.3249
1.47216
1.4707
0.997492
1.47137
1.47139
1.47216
1.47089
1.00072
1
0.652585
1
1.47097
0.851786
1.43213
1
1.46275
1
1
1
1
1
1.46845
0.639271
0.667696
1.47174
1.47136
1
1
1
1
1
1.46776
1.43485
1.47177
1.01552
1
1
1
1.00003
1.47014
1.47176
1
1.47172
1.47225
0.658371
1.3274
1
1.47089
1.47285
1.4681
0.997816
1.47144
1.47215
1
1.43897
1
1
1
1
1
1
1.47161
1.47144
1.43732
1.47117
0.646854
0.703879
1.47163
1.47221
1
0.67252
0.945855
1
1.22582
0.631035
1
0.999462
0.998257
0.66898
1
1.47198
1
1
1
1.47056
0.943116
1
1.47206
1.47173
1
1.47104
1
1
1.47138
1
0.671194
1
1.47768
1
1
0.65055
1
1.47105
1
0.640422
0.638977
1
1.4605
1
0.639436
0.868076
1
1.47177
1
1
1
1.47298
1
0.649133
1.06695
1.47182
1.4729
1.4716
1.04692
1.47306
1.47157
1
1.00002
1
1
1.00001
1.47113
1
0.999309
1.47696
1
0.656348
1
1.47113
1.21636
1.04307
1.21534
1.0641
1.47631
0.691063
1.47145
1
0.660477
0.997059
1.47103
0.948582
1.47104
1.46977
1.45423
1
1.47228
1.47109
1.47158
1
1.00004
1
1
1.47173
1.33201
1
1
0.638699
0.996683
1
1.47188
1
1.47188
1.47122
1.4749
0.906006
1.47126
1.47517
1.00351
1.22706
1.47181
1.46965
1
1.43415
0.813735
1.44595
0.984963
1.47182
1
1.47149
1.47117
1
0.660809
0.937186
0.711928
1
1.07442
0.996731
1.46834
1
1
0.996674
1
1.2219
1.45807
1
1
1.47076
1
1
1.3374
1.47087
1.45276
1.47001
1.47127
1
1.47198
0.711216
1.47333
1
0.992622
0.672985
1
1
0.747456
1
1.14576
1
1.47314
1
1.46216
1.29153
0.67147
1
1
1
1
1
1.47251
1.01183
1
1.47606
1
1.47069
1.47152
0.999999
1