/*--------------------------------*- C++ -*----------------------------------*\
  =========                 |
  \\      /  F ield         | OpenFOAM: The Open Source CFD Toolbox
   \\    /   O peration     | Website:  https://openfoam.org
    \\  /    A nd           | Version:  12
     \\/     M anipulation  |
\*---------------------------------------------------------------------------*/
FoamFile
{
    format      ascii;
    class       volScalarField;
    location    "6.88";
    object      p;
}
// * * * * * * * * * * * * * * * * * * * * * * * * * * * * * * * * * * * * * //

dimensions      [1 -1 -2 0 0 0 0];

internalField   nonuniform List<scalar> 
22702
(
1
1
0.865076
1
1.04912
1
1.47067
1
1
0.646868
1.47031
1.46961
1
1.47131
0.884454
1
1
1
1.46898
1
1.47193
1
1.46804
0.659728
1.4706
0.665666
1
1.46902
0.659175
0.648679
1
1.47035
1
1
1
1.43525
1.47099
1.4682
1
1
0.662367
1
1.22945
1
1.46714
1
1
1
1
0.65837
1
0.665323
1
1.4738
1
1.47286
1
1
1
1
0.643933
1
1
0.655882
1
0.666582
1
1
1
0.6624
1
1.47115
1.2828
1
1.47191
1.49949
0.667065
1.4701
0.656716
1
1.47126
0.659533
1.46933
1.46749
1
1
1
1
0.931281
0.657244
1.47347
1
1
0.651765
1
1.47234
0.653659
1
1
1
1
1.22856
1.47127
0.672121
1
1
1.11268
1
0.657679
1
1.47041
1.47177
1
1
0.640428
0.641269
0.651408
1
1
1
1
1
0.914405
1
1.40258
1.03839
1.4753
1
1.47673
1.46842
1.47092
1.47279
1
0.669169
1
0.661812
1
1
1
1
1.47115
1
1
1
1
1.47229
1
1.02419
1
1
1
1
0.657743
1
1.01025
1
0.657575
1
1
1
1.47198
1
1.46926
0.624528
0.667528
1.47308
1.4709
1
1.07787
1.26457
1
1.47425
0.656691
1.43623
1
1
1
1
1.47168
1.38679
1
1.47183
0.654923
1.4742
1
0.658048
1
0.658123
0.663394
0.999774
1
1
1.47089
1
1
1.47196
1
1.47073
1.47064
0.658326
1
1
0.660387
1.47201
1
1
1
1.4721
1
0.645897
1
1
1.47174
1.47196
1.47072
1
1.00004
1
1
1
1.47165
1
0.65664
1.49144
1.47161
1.47052
1
1
1
0.645599
1.47046
1.21903
1
1.47343
0.661216
0.654617
1.47368
1.46721
1
1.47864
0.67046
1.41473
1
1
1
1
1.47219
1
1.2668
1.04387
1
1
1.472
0.659079
0.758499
1
1.46808
0.643255
1.47783
1
1
1
1
1
1
1
0.654639
0.759016
0.661135
1.47177
1
1
1
1
1.42275
1
0.656479
1
0.639515
0.660558
1.47117
0.665231
1.47204
1
1
1
0.99749
0.661852
0.666955
0.999999
1
0.638261
1
1.46966
0.668945
1
1
1.47173
0.640604
1
1.46952
0.665975
1.47201
1
0.641956
0.997637
1
1
1
0.668106
1
1
0.999999
1.00001
1.01666
1.28328
1
0.662142
1
1
1
1
1
1
1
1.47242
1
1.47249
1
1
1
0.651919
1
1.47199
0.666475
1
1.36718
1
1
1.47227
1
1
1
1.45819
1
1
1.45344
1.47277
1
1.09972
1
1
0.659065
1
1
1
0.65006
1
1
1
1
0.64656
1
1
1
1
1
0.664243
1.00006
1.46963
1
0.999993
1.47136
1.47326
1
1
0.662416
0.818793
1.47096
1
1
1
1.47169
0.664597
1
1.46972
1
1
0.72489
0.724082
1
0.65221
0.653825
1
1
1
1
1
1
1
1.47131
1.11361
1.4394
0.662866
0.891061
1.46805
1
1.47273
1.47111
0.666844
0.778154
1
0.645664
1
1.48181
1
1
1
1
1.47209
1
1
1
1
1
1
1
1.1704
1.46984
1
1.47198
1
1
0.661858
1
1
1
1
1.47178
1.35598
1
1
0.655712
1.47053
1.47132
1
1.4713
1.47113
1.47211
1
0.84006
1
1.47099
0.981531
1.47201
1
0.663854
0.998795
1.46948
1
1
1
1
0.657869
1.47054
1.42545
1
1.47375
1.47157
1.47098
1
1.22403
1.47058
1
1
1.31929
1.0669
1.47159
0.930098
1.47165
1
1.47159
1.47142
1.4717
1.47031
1
1.46376
0.90073
0.889401
1
0.999999
1
1
1.46733
1
1
1
1
1
1.47157
1
1
0.99647
1.47105
1.42304
1
1.38337
1.00004
1
1
1.47056
1
0.996742
1.00425
1
1.4717
1
1.47226
1
1
1.34877
1
1.47322
1.00002
1
1.47291
1
1.47134
1
1
1
1.47215
1
1.47266
1.00001
1.47215
1.47104
1.47151
1.46754
1
1.47795
1.46074
1
0.645167
1.44069
1.33435
1
1.47213
1
0.65964
0.659451
1
1
1
1
1
0.657991
1
1.47186
1.11906
1.47032
1
1
1
1
1
1.47134
1
1.4741
1.27841
0.78402
1
1.00001
1.13304
1.1173
1
1
1.17085
1
0.658757
1.47216
1.47244
1
1
1
1.47437
1
1.00003
1.47178
1.4707
0.948614
1
1
0.659207
1.42722
1
1
1
1
1
1.47126
1.47764
1
1.47386
1.4718
1.47195
1
1
1
1
0.66838
1.47125
1
1
1.42537
1.47079
1
1.44146
1.47369
1
1
1
1
1
1.47198
1
1
1
1
1.46894
1
1.46849
0.638563
1
0.677818
1
1
1
0.997031
0.648663
0.998981
1
1
1
1.06287
1
1
0.8574
1
1
1
1
1
1
1
0.999997
0.932684
0.999999
1
0.997584
1
0.66022
1
1
1
1
1.34961
1
1
1
1
0.662033
1
1
1.44292
1.47111
1
1
1
0.899124
1
1
1
1
1
1
0.944745
1.01578
1.47167
1
1
1
1.47546
0.894667
1
1
1
1.46732
1.4704
1
1.00001
1
1
1
1
1
1
1
0.65616
1
1
1.47129
0.648585
1
1.4706
1
0.658105
1
1
0.657823
1
1
1
1
1
1
1
1.46263
1.47127
1
1
1
1
1.42718
1
1.13863
0.646989
1
1
1
1
1
1
1
1.02801
1
1
1.2375
1
1
1
1.38113
1
1
1
1
0.63571
1
1
0.637914
0.638729
1
1
1.47154
1
1.00599
1
1
1
1.32218
0.661696
1
0.656365
1
0.794363
1
1
1
1.47095
1
1
1.47112
1
1
1
1.47116
1
1
1.47058
1
1
0.667328
1
1.13586
1
1
1.47158
1.46639
1.30981
1.42029
1
0.654908
1
1
1.45015
1
0.648829
1
1
1
1.4727
1
1
1
1
1.27913
1
1.4576
1.47531
0.649455
1
1
0.668178
0.656942
1
1
1
1.32628
1.35519
1
1
1
1
1
1
1
1.19953
1.46645
1.00474
1
1.46581
0.667418
1
1
1
1.25386
1
1.08978
1
1.42956
1.46967
1
0.665485
1
1.47403
1
1
1.47253
1.44081
1
1.47716
1
0.654993
1
1
1
1.46076
1.46252
1.41292
1
1.46782
1.47156
1
1.47348
1
1.46963
1
0.640099
0.980149
0.646681
1
1
1
1
1
1.47142
1
1.47176
1
1
1
1.44712
1
0.659249
1.47175
1
0.646862
0.692399
0.675279
1
1.22317
1.03302
1.47337
1.47181
1
0.999999
1
1
1.47144
1
1
1.47142
1.47093
1
1.15897
0.999884
1
0.996701
1.47658
0.836424
1
0.809065
0.662452
0.656507
0.92516
1.46813
1.4647
1.098
1.47212
1.47126
1
1
1.47428
1.47123
1.4719
1.47155
1
1.47174
0.658283
1.4743
1.46898
1.47113
1.46987
0.869404
0.888842
0.925937
1.47083
0.956666
1.47002
1
1
1.47329
1.4718
1
0.650807
1.47114
1.4707
1
1.47269
1.47312
1
1.4713
0.652976
1.47339
1.46823
1.47267
1.46781
1
1
1
1.47045
1.3013
0.681456
1.47117
0.638311
1.47057
1
1
1
1
1.47655
1.47146
1
1
1.47175
0.642534
1.47195
0.659081
1
1.46845
1
0.648713
1.47255
0.737556
1
1.47177
1.47384
1.46953
1
1
1.20111
1.47341
0.649664
1.47097
1
1.47035
0.856177
1.47296
0.658007
1
1.47271
0.702684
1.47334
0.656989
1
1.47185
1
1.47101
1
1.26765
1.45362
1.36906
0.660323
1
1.47143
1
1.47223
1
1.47213
1
1
1.47182
0.976648
1.47435
0.650177
1.43801
1
1.32961
1
1.47162
1.47159
1.47035
1
1.42263
1.47125
1.43554
1.28652
1.47068
1
1.30763
1
1.47224
1
1.06562
1
1.43598
1
1.47037
1.44866
1.44858
1
1.46488
0.659554
1
0.640686
1
1
1
1.47106
1
1.47275
1
1
1
1.47301
1.45393
1.38483
1.4739
1.47301
0.678013
1.46923
1.4706
1
1.40516
1.47061
1.44627
1
1.47421
1.47228
1
1.47717
1.47246
1.4713
1.47259
1
1
1
1.47116
0.648912
1
1.47219
1
1
0.649312
1
1
1.47076
1.472
1
1.47156
1.47444
1.47188
0.987055
1.47165
1
1.47186
1.47076
1.3772
1
1
1
1.47401
1.47194
1.47138
0.945952
1
1.479
1.47192
1.47244
1
1.4718
1.47221
1.47152
1.48073
1
1.47251
1.47012
1.406
1.47325
1.47963
1
1.47956
1.46649
1.4713
1.47671
1.4715
0.657544
1.47224
1.47345
1
1.47164
1.47178
1.47177
1.47214
1
1.47115
1.47124
1
1.47047
1.39289
1
1
1
1.47474
1.46921
1
1
1.2469
1
1.47136
1
1
1.47117
1.47299
1.47156
1.47116
1
1
1
1.32716
1
1.47094
1
1
1.47736
1.46789
1
1.47046
0.63014
1.47141
1.47177
0.736039
1
0.663691
1.40749
1.47075
1.46951
1.46969
0.656644
1.4718
1.47225
0.660139
0.638209
1
1.46959
1.47083
1
1
1.47114
1
1.47132
1
1.41153
1
1.20962
1.47112
1.47372
1.3279
1.44548
1.47185
1.4737
1.45342
1
0.667288
1.46851
1.47154
1.47614
1.00001
1
1
1.47521
1
1.47203
1.47177
0.771983
1
1.47139
0.999938
1
1.00003
1.00004
1.47148
1.47044
0.998513
1
1
1.47248
1.47377
1.47249
1.47285
1.47155
0.685397
1.39845
1
1.46849
1.4717
1.47166
1.46394
1
1.47147
1.45808
1.47338
1
1.47078
1.47527
0.865938
1.47119
1.47118
1
1.47181
0.846432
1.47174
0.864157
1.47155
1
1.47121
1.47994
1.47173
1.47218
1.47138
1.47207
1.47262
1.46943
1
0.929619
1.47154
1.47083
0.849728
1.47085
0.978942
1.30173
1.47156
1.47224
1.47699
1
1.47432
1.30197
1.47412
0.92056
1.47413
1.47969
1
0.868599
1
1.47647
1
1.32045
1
1.44121
0.868017
1
1.47526
1.47632
1
1.47572
1.4734
1.48141
1.46167
1.46817
1
1.47058
1
1
1
0.888799
1.4705
1.47126
1.47385
1.47039
1.46864
1.4742
1.47099
1.47274
0.896081
1.0304
1
1
1.47844
1.47227
1.47071
1.47129
1.00003
1.2361
1
1.47617
1.42407
1
1
0.726601
1.47105
1
1
0.64927
1.47158
1
1.46707
1.47155
1.47227
1.45268
1.47077
1
0.666992
1.10888
1.47194
1.47071
1
1.47014
1.47106
1.22499
1.01105
1.10433
1
1.46974
1.4723
1
1
0.662087
1
1
1.47082
1.47159
1.46965
1.47264
1.46959
1.4757
1.47247
1.47561
1.47167
1
0.99604
1.47224
1.47164
0.99704
1.47126
1.47132
0.669756
0.652333
1.47288
1.47414
1
1
1.00178
1.47179
1.46955
1.47125
1
1.47062
1
0.854713
1.47686
1.46484
1
1.20676
1.47055
1
1.47257
1
1.47251
1.30715
1.47054
1
1.4726
1.46611
0.664053
1.471
1
1.47409
1.46657
1
0.669733
1.46834
1.38889
0.997637
1.45901
1.47174
1
1.00278
1.47724
0.997871
1.47149
1
1
1.47382
1
1.47625
1.47134
0.996454
1.36236
1
1.47164
1
1
1
1
1.47134
1
1
1.46367
1
1.47097
1
1.29833
1.47979
1.47172
1
1
1.00533
1
1.47213
1.47146
1.47182
1.47179
1.4727
1.47177
1.47132
1
1.47217
1.47277
1
1.47126
1.47233
1
1.46975
0.926519
1.05688
1.47196
1.47196
1.47383
1
1.47135
1
1.47143
1.47203
1
1.47105
1
1
1
1
1.472
0.67765
0.997878
1
1.47241
1.47455
1
1.47086
1
1.0055
0.65229
1.47141
0.999585
1
1.47296
0.998315
1.47093
1
0.999752
1
1.47144
1.47665
1.47311
1.46893
0.648197
1.4727
1.47617
1.47163
1.11547
1
1
1.20144
1.46967
0.670883
0.651027
1
1.4727
1.47067
1.47428
1
1
1.47488
1.47156
0.999873
1
1.33719
0.62928
1
1.08345
1.46943
1.47039
0.998255
1.47119
1.47988
1
0.999263
1
1.46988
1.47563
1.1904
1
1.44454
1
1.00168
1.47032
0.663765
1.47238
1.47143
0.996974
0.999913
1.40299
1
0.999702
1
1.4727
1
1.00001
0.653223
1.4722
1.00001
1
1
1
1.47164
1.25855
1
1
0.645926
1.47108
1.26069
1
1
1
1.44932
1.47045
1.47168
1
1
1.46936
1
1.47137
1.47172
1
1
1.47315
1.4703
1.44872
1
1
1.47334
1.47253
1
1
1
1.47196
1
1
1
1.47035
1.47149
1.47312
1
1.47476
1.00003
0.690088
1.47216
1.47145
1
1.4742
1.4443
1.4703
1
1
1.47381
1
1.24222
1.47052
1
0.666713
1
1.47346
1
1
1.47489
1
1
1
1.14025
1.47062
0.667252
1.00001
1.47276
1
1
1.47149
1
1.47401
1
1
1.47084
1.47157
1
1.00005
1
1
1
1
1
1
1.47916
1.47165
1
1.46806
0.664159
1.47852
1
1.47235
1.476
1.47025
1.46281
1.47449
1
1
1.4697
1
1.28953
1.4773
1.47084
1
1.47603
1.46404
1
1.4294
1
1.47205
1.30418
1.46712
0.997462
1.45384
1.4294
1.47476
1.47157
1.03685
1.4711
1.47541
1
1.47055
1
1.47156
1
1
1
1
0.996699
1.47136
1.47197
1.40676
1
1.47364
1
1
1
0.658072
1
1.45912
1
1.42795
1.44506
1
1
1
1.4508
1.47713
1
1
1.47073
0.64964
1.0737
1
1.47535
1.47095
1.42804
1.46045
1.471
1
1.47316
1
1
1
1
1.47312
1.47194
1
1.45958
1.04633
1.47178
1.43969
1
1
1.44056
1
1
0.659904
1.31922
1
1
1.47844
1
1.47642
1.42561
1
1.42477
0.64894
1.47111
1.47263
1.4728
1
0.654713
1
1
1
1.47153
1.38056
1
1.47511
1.47061
1
1.47005
1
1
1
1
1.47075
0.999361
1
1.47335
1
1
1.46419
1.47129
1
1.47573
1.08956
1.00002
1
1.47136
1
1.47134
1
1.01434
1.47161
1
1.47045
1
1
1.13171
1.47054
1
1
1
1
1
0.9958
0.659851
0.668236
1.02122
1
1.02742
1
1.0282
1
1.47159
1
1.2773
1
1.47047
1
1
1
1.47027
1
1.38018
1.47256
1
1.23702
1.47282
1
1
1.47076
1.47272
1
1
1.04445
0.660614
1
1.47179
1
1
1
1
1.07482
1.47205
1
1
1
0.648242
1
1.47105
1.47204
1.47818
1
1
1
1
1.23338
1.47145
1
1
1
1.47677
1.47131
1.04552
1
1
1
1.47066
1.47132
1
0.6674
1.47205
1.47167
1.4707
1.47032
1.4694
1
1
1.47791
1.4679
1.47227
0.654097
1.04129
1.47036
1
1
1
1
1
1.47177
0.650061
1
1
1.47219
1.20758
1
1.47676
1
1
1
0.661522
1
1
1.12209
1.47196
1.47107
1
1.46788
1.48022
1
1.07626
1
1.47999
1
1.47179
0.64953
1
1
1
1
1.47035
1.00007
1
1
1
1.45526
1
1
1
1
1.47191
0.663229
1.37294
1.47465
1
1.47292
1
1
1
0.997194
1
1.47722
1
0.815949
1
1
1.00003
1.47237
0.650561
1
1.47637
1
1.47357
1.47186
0.646307
1
1
1.45292
1
1
0.658724
1
1.46922
1
1.45125
0.999309
1.4707
1
1
1
1
1.4719
1
1
1.47151
1
1
1
1
1
1
1
1
1.30707
1
1.15304
1.47215
1
1
1
0.664672
1
1
1
1
1.47718
1.47172
1.04861
1
1
1.47255
1
1
1.47052
1
1.00002
1
1
1
1.00001
1.47264
0.787528
1.47137
1.4733
0.997111
1
1
1
1.26908
1
1
1.47029
1.46928
1
1
1
1
0.647992
1
1
1
1.30128
1
1.47018
1.47438
1
1.4728
1
1
1
1.25028
1
1.47192
1
1.4715
1
1
0.996329
1.47112
1
1
1
1
1
1.47349
1.00002
1
0.655427
1.47754
0.657007
1
1.47228
1
0.996159
1
1.47216
1.47882
1
1.46182
0.882782
1.47169
1.46848
1.00003
1
1
0.664056
1
1
1
1.47246
1.27101
1.4738
1
1
1
1
0.996758
1.46931
1
0.652134
1
1
1
1
1
1
1
1.47898
1.4718
1.47804
1
1
0.996891
1
0.98265
1
1
1
0.664383
0.982272
1
0.66766
0.665391
1
1.4726
1.47093
1
1.46832
1.47103
0.660896
1.31261
1
1
1
0.652698
1.47111
1
0.654757
1
1.47804
1.0816
1
1
1
1
1.47137
1.47341
1
1
1.47144
1
1
1.47124
1.4717
1
1.44726
1.4711
1.47136
0.95344
1.47642
1.00835
0.653765
1.35837
1.47309
1
1
1
0.648667
1
0.662939
1.47808
0.954347
1.47181
0.952787
1
1.47078
1.20401
1
1
1.47427
1
1.18673
1.47298
1
1
1.47133
1.47937
0.666605
1.28984
0.999888
1
1.28237
1
1.47366
0.941029
1.48183
1.47852
1
1
1
1
1.4715
1
1
1.47152
0.999636
1.47243
1.38578
1.46935
0.663432
1
1
1
1
1.47227
1.00004
1.47042
1
1.47143
1.46984
1.05929
1.47882
1.13837
1.47025
1
1.31892
0.687247
1.47808
1.47163
1.38747
1.07944
1.47346
1.4714
1.47057
1.47243
1
0.909486
1.0664
1
1.47152
1.21691
1.4722
1.00003
1
1
0.684625
1.47342
1.47235
1.37937
1
1.17684
1
1.47096
1.47096
1
1.46898
1.47207
1
1
1
1.46903
1
1.18107
1.4755
1.32013
1
1.47284
1
1
1
1
1
1
1
1
1
1
0.670333
1
1.42931
0.657316
1.268
0.998589
1.47531
1
1.2345
1.00001
1.29892
1.40006
1
1.00301
1.47751
0.908527
1
1.47043
1.45916
0.938112
1
1.47081
1.4718
1.4743
1
1.47178
1.47098
1.46949
1
1.20893
1
1.00006
1.47247
1
1.47152
1.06557
1.4688
1
1
1.47028
1.46949
0.697563
1
1.47054
1.34992
1.47045
1
1
1.47113
1.4726
0.998238
1
1.41689
0.996803
1.47029
1.00003
1
1
1
1
1.20958
1
1.36659
1.47295
1.34576
1.47322
1
1.00358
1
1
1.47136
1
1.46879
1
1
1
1
0.999999
1
1.05517
1.23525
1
1
0.671008
1
1.47646
0.680287
1.47866
1
1.23121
0.999747
1.47176
1.29747
0.664119
1.25468
1.00003
1.47251
1.47446
1
1.28077
1.4773
1.46968
0.998404
1.46609
1.45876
0.677112
1
1
0.997658
1
1.46843
1
0.657316
1.47511
1
1
1.4178
1
1.47227
1
1.47069
1
0.693688
1
1
1.4706
1.47998
1.47632
1
1.47305
1.47074
1.46269
1
1
1.46892
0.999999
0.743674
1
1
1
1.47114
1
1.47043
1.3036
1.47175
1
1.4714
0.999385
1
1
1
1
1
1
0.719501
1
1
1.47113
1
1.47464
1.47543
1
0.654932
0.664268
1
1.47333
1.07607
0.648696
0.630805
1
1.46905
1
1.4768
0.654208
1.00102
1
1
0.999501
1
1
1
0.999914
1.18883
1.4693
1
1
1.47288
1.27657
1
1.41795
1.47262
1.47451
1.19054
1.47016
1
1.4717
1
1.45692
1
1.47845
1.4724
0.997105
1.47439
1.47162
1
1
1
1
1
0.924682
1.47227
1.00004
1.00003
0.665853
0.999992
0.670734
0.679146
1
1.47033
1.47261
1.4724
1
1.47178
1
0.665687
1
1
1.4688
0.841643
1.47417
1
1.47013
1
0.98451
1.4707
1
1
1
1.47347
1
1.4715
0.668704
1
1
1.27085
1
1
1.25292
1
1
1.47118
1
1
1
1
1
1.47852
1.47122
1
1.47111
1.46927
0.668353
1.20863
1.47267
1
1
1.42301
0.998985
1
1
1.47192
1.46953
1.32215
1
1.47121
0.658118
1.4369
0.999166
1
1.47274
1.00004
1.47217
1.4052
1.35561
1
1
1.47084
0.707625
0.660754
1
1.47071
1
1.47006
1
1.27117
1
1
1.47101
1.30009
0.659859
1
0.998151
1
1
1.02588
1.18624
1.47164
1
1.47303
1
1
1
1
1
1
1.06767
0.64256
1
1
1.03554
1
1
1
1
1
1.47131
1
1
1.47163
1.47254
1.32953
1
1
1
0.845544
1.47598
1.32107
1
1
1
1
1.47072
1
1
1
1.47003
1
1
1.33903
1.48639
1.02806
0.749723
1.47478
1.32702
1.46916
1
1.2347
1
1
1
0.67339
1.00235
0.659466
1
0.654544
0.640407
1
0.669906
1
1
1
1.20019
1
1.47324
1.47257
1.00139
1.23081
1.3997
0.659668
0.762918
0.891199
1
1.47145
1.46891
1.47128
1.47163
1.4045
0.879828
1
1.40559
1
1.4511
1
1
0.996266
1.00939
1
1
1
1.47134
1
0.671811
1
1.47323
0.661527
1
1
1.47123
1
1.47181
0.999468
1
1
1.47196
1.42411
1
1.48855
1
1
1.01365
1
1.21177
1
1
0.667562
1
1
1.47379
1
1.47131
1
1.00003
0.668268
1
1
0.661076
1.00089
1
1.46997
0.670133
1.47088
0.655168
1.47078
1
1
1
1
1
1
1
1
1
1
1
1.45162
1
1.47346
1.46979
0.645994
1
1
1
1
1
1
1.45804
1
1
0.665813
1
1
1.47024
1
1
1.16857
1.3942
0.657503
0.665871
0.716356
0.748034
1
0.996527
0.664115
1.00036
1.44494
0.996991
1
1
1.46996
1
1
1
0.777692
1.00001
1.16461
1
1
1.19238
1.47233
1
0.659984
1
1
1
0.996829
1.00001
1.47373
1.47214
1
0.665862
1
1.25197
0.653154
1
0.890827
1
0.996381
0.641439
1
1
1
0.995919
0.644063
1
0.655477
0.998441
1.24163
1.41605
0.649608
0.65446
1
0.990647
1
0.998633
1
1.47315
1.47189
1
1.01701
1.47105
1.47075
1
1
1.47152
1
1
1.00004
1
1.47784
1
1
1.01811
1
0.998569
0.701004
1
1
1
1
1
1.47594
1.03329
1.00005
1
1
1
1
1
1.00003
1
0.656125
1.1048
0.998612
1.45521
1.47233
1
1.01601
1.47206
1.41089
1
1
0.679531
1.47208
1
1.46984
1
1.47289
1.31863
0.656245
1
0.650179
1.42836
0.999683
1
0.645594
0.689741
1
1
1.39438
1
0.999998
0.647162
1
1
1
1.14192
1
0.64819
1.47226
1
1
1
1
1.4725
1
1
1.46942
1.42037
1
1
1
1.46832
0.656008
1
1.47134
1.47097
1
1.37501
0.999999
1.00003
1
1
1.43548
1.01753
1
0.666546
1.24819
1
1
0.997767
1
1
1.47114
1
1
1.00003
1
1.47259
1
1
1
1
1
1
1.00001
1.20592
1
1.4701
1
1
1.47291
1
1
1
1.47133
1.47203
1.04345
1
0.997568
1
1
1
1
1.47205
1
1
1.47063
0.662978
1
1
1
1
1
1
1.37852
1
1
1.47684
1.47191
1
1
1
1.4713
1.4742
1
0.999631
1.47019
1
1
1
1.00002
0.664345
1.03073
0.996117
0.995728
1
1
0.669321
1.46997
1
0.673714
1
1.47045
1.45221
0.655553
0.999412
1.46946
1.4719
1.4717
1
1
0.9306
1.41873
1.39401
0.693776
1
1
1
1.46952
1.47101
0.665788
0.997308
1
1.47154
0.670922
1
1.47283
0.657151
0.974257
1.00647
1
1.47762
1
1
1
1
1
1
1.00011
1.43744
1
1
1.4773
1
1
1
1.47254
1
0.654023
1
1
1
1.15517
1
1
1
1
1
0.789347
1
0.666789
1
1.47244
1.00006
0.863256
0.869145
1.00002
1.00345
1.23772
1
1
0.654717
1.47257
1.47254
1.47233
1
0.643418
0.663701
1
1.47222
1
1
1
1
1
1.00003
1
0.656812
1.29897
1
1
0.663247
0.992406
1.00001
1
1
1
0.644445
1
0.710266
1
1
1.48142
1
1
0.649146
1
1.47076
1
0.655965
1
0.654414
1
1.00819
1.47109
1.48814
1
1
1.47398
1
1
1.10528
0.996855
1
0.998183
1
1.4747
1
0.654202
1.00002
1.47051
0.998923
1
1
0.806714
1
0.998962
0.651053
1.46964
1.17071
1
1.00001
0.904152
1
1
1
0.801939
1
1
1
1.47116
1
0.657313
0.999999
1
1
1
0.650285
1.47094
1.42643
0.657368
1
1.46734
1
1
1.47173
1.47533
1.39663
0.649152
0.997681
0.999214
1
1.47096
1
1
1
1
1.47168
1.00004
1
1
1.47253
1
1
1.47206
0.673727
1
1
1
0.658492
1
0.999999
0.999999
0.998653
1
1
1
1
1.38118
1
1.4716
1.47128
1.48069
1.47204
1.47255
1.47185
1
1.46914
1
1.47206
1.47151
1
0.998878
0.670797
1.40153
0.999907
1
1
1
1
1.00253
1
1.07161
1
1
1
0.838888
1.47168
1.46976
1.47237
1.40746
0.999879
1
1.02269
1.47249
0.997849
1.05617
0.99711
0.652449
1
1.00002
1
1
1
1
1
1.46895
0.649518
1.46903
1.47188
0.995039
0.639945
1
1
1
1.47219
0.630626
1.41525
0.645875
1.47144
1.47279
0.653235
1.47264
1.02472
1
1.4758
0.795608
1
0.998787
0.659183
1
0.667648
1
1.47149
1.47195
0.768819
1
1.47216
0.648473
1
0.663589
1
1.47142
1
1
1.47085
1
0.831064
1
0.999683
0.663568
1.47591
0.999476
1
0.656438
1
1
1
1
1.25206
1
1.47176
1
1
1.48158
1
1
1.47135
1
0.669306
1
0.650729
1.00001
1
1
1
1
1.45034
1.27192
1.47127
1
1.47104
1.43849
0.643533
0.659893
1
1
1.47328
1
0.673915
1
0.991575
1
1
1.47095
1
1.47203
0.657394
1.47311
1
0.65715
1
1
1.47502
1.46995
1
1.00004
1
1.46621
1
1
0.658626
0.99937
0.665363
1
1
1
1.47305
1.47468
1.47063
1
1
0.679039
1
1.47605
1
1
1
1.44667
1.47139
1.47197
0.63336
1.47356
1.47162
0.651822
1.47097
1.00004
0.653566
1.01615
1
1
1.47021
0.630331
1.29675
0.634397
1.47206
0.997298
0.655401
1.47482
1
1
1
1
1.47088
1.47503
0.653801
1
1.00002
0.662176
1.00004
1
0.667134
0.661212
1.32577
1.47183
0.998489
1.47132
1
1.46955
0.818218
0.652792
1.47188
1.48067
1
1.4695
1
1
1.47086
1
1.35998
1.47077
1
1
1
1
1.47176
1.46619
1.47578
1
1
1.47189
1.47398
1.47075
1
1.4722
1
1
1
1
1
0.666608
0.83527
0.657272
1
1
1.47294
1
1
1.473
0.64224
1
1.47178
1.46639
1.45036
0.656738
1
0.638997
1
1.00003
1.47311
1.22257
1.47043
1.42963
1
0.687702
1
1.47019
1.33365
0.645695
1
1
1
0.806095
1
1
1.48185
1
0.648154
1.47175
1
1
1
1
1
1.37495
1.10648
1
1.47138
1
1.47011
1
0.997307
1
1.47121
1.46884
1.47351
1.47698
0.999597
1.4706
1
1.47203
1.46988
1.39598
1
1
0.669797
1.47022
1
1
1.47003
1.46866
1.47093
1
1.4711
1
1
1.00003
1.46776
1.47378
1.13397
1.09487
1.47103
1.47047
0.704978
1
1
1
1
1.00002
1.16126
1
1
1.38561
0.66422
0.99997
1
1.47073
0.999878
0.999809
1.06806
1.41447
1.47114
0.914791
1
0.661317
1
1.0011
1.47229
1.47324
1.4687
0.999003
1
1
0.665934
1
1
1.47221
1.04987
1
1
1
1
1
1
1
0.999933
1.47505
1.00002
1
1
1
1
1.28939
1
1.21759
1
1
1.47177
1.47796
0.657915
0.998781
1
1
1
0.659735
1.47042
1.47181
1
1
1
1
1
1
1
1
1.47063
1.47451
0.662146
1.04954
0.655808
1
0.66707
1
1.472
1.13444
1
1
0.713453
1
1.44946
0.807764
0.996683
0.654417
1
1
1.47172
1.00004
0.997101
0.637545
1.47129
1.48198
1
1
1
1
1.43866
1
1
1.47111
0.998922
1.46996
1.00006
1
1
0.657863
1
1
1.47258
0.656761
0.783362
0.648484
1.47163
0.999296
1
1.47599
0.645507
0.639478
1.01519
1
1
1.47202
1.00004
1.20267
1
1
1.47258
0.658245
1
1
1.00013
1.46951
1.00013
1.47146
1
1.00003
1
1
0.734613
1
0.78898
1.00001
1
1.47329
0.65957
1
0.78539
0.804495
1
1
1.47198
1
1
1
1.46954
1.47189
1.00005
1.4701
1.47181
0.77634
1.47152
1.44412
1
1
1.4743
0.999999
1
1
1
1
1.47215
1.47226
1
1
1
1.47187
1.00022
1
0.639828
0.732691
1
1.00003
1.16889
1
1
0.895004
0.651099
1
1
1
1.47744
1.4305
1.4712
1
1
1
1
0.673447
1
1.4548
1
1.45381
0.674546
1.46994
1
1
1
0.663457
1
1.47192
1.00003
1
0.642888
1.17041
1
0.999661
1.47031
0.651549
0.655868
1
1.47142
0.641439
0.641252
1
0.660682
1.00001
1
1
1
0.631265
1
1
1
1
1.4709
1
1.35699
0.642044
1
1
1
0.65221
1.47108
1
1
0.996444
1.46169
1
1.47067
1.47072
1
1
0.72496
0.644843
1
1
0.650692
1.13512
1.21321
1
1
1.47263
0.997343
1
0.997698
1.47109
1
1
1
1
1
1
1.47257
1
1.16228
1.14879
0.697965
1.41778
1
1.47066
1.4709
1
1
1
0.913143
0.662216
1
1.22194
0.999634
1.41443
1
1
1
0.999999
1
1.00673
1.21459
1.47291
1.46976
1
1.47013
1
0.658509
1
0.997664
0.999778
1
0.669892
1
0.666717
1.00002
1.47516
1.47155
0.668853
1.47765
0.693768
0.996132
1.34594
0.670907
1.3336
1
1
0.998449
1
1
1
1.00006
1
0.67458
1
1
1
1
0.999609
1.47324
0.803365
1
1
1
1.03667
1
1
1
1.25596
0.759624
1
1
1
1.04696
1.47023
1
0.629109
1
1.47336
0.893644
0.645517
1
0.661745
1
1
1.44463
0.998247
1.44763
1
1.00888
1
1
1.47112
1
1
1
1
1.0947
1
1.4717
1.47312
1.47178
0.645841
1.47003
0.997231
1.38085
1
1
0.664554
1
1
0.649618
1.46998
1
1
0.999964
1
1
1
0.645102
0.631833
1
1.47399
1
1.21836
1.47215
0.668133
1.39405
1
1
0.684111
1
1
1.47094
1.47173
1.17284
1
1
1.00085
1.47039
0.641063
0.659531
1.47196
1.4714
1.32022
1.17803
1
0.896334
1
1
1
1.44864
1.4754
1.47331
1
1
1.46846
0.656759
1.42347
0.640517
1
0.662116
1
0.664798
1.47143
0.640378
1
0.982985
0.676485
1
1
1
0.846036
1.44556
1.47295
1.47044
1.47165
1
1
1.47089
1
1
1.47479
1
0.64303
1
0.655879
1
1.47058
1
1
1.01348
1.35474
1
0.998585
0.653326
1.47235
1.00001
0.640038
1.08651
1
1
1.3496
1.47125
1.47106
1
1.46923
1.11993
1
1.02472
1.47124
1
1
1
1
1.47192
1
0.669614
1.47273
0.650089
0.658804
0.833103
1.46957
1.15083
1.47246
1
1.47376
0.997334
1.00003
1.47109
1.47098
1
1.47152
1
1.47014
1
1.46958
1
1.00004
1.00001
1.47164
0.655293
0.651033
0.997961
0.999999
1
1
0.65698
1
1.30852
1
0.653244
1
1.18403
1.46995
1.4673
1
1
1.00003
0.999414
1
1.47116
1.47176
1
1.19553
1.47141
0.849734
1.4715
1.00008
0.653019
1.09885
0.637648
1
1
1.0773
1.4744
1
1
1.03002
0.998576
1
0.671295
1
0.785012
1
1.4738
1
1
0.635838
1.10653
1.06612
0.998513
1.47192
1.47139
0.781279
0.998119
0.671924
0.66147
0.657642
1
1
1
0.999064
0.738352
0.665165
1
1.47142
0.999731
1.47074
1.46991
1.4711
1.47176
1
0.667867
1.47219
0.650377
1
1.47002
1.47667
0.996806
0.811966
1.46984
1.33832
1
0.653251
1
1
1.47232
1
1.02599
1.47009
1
0.659494
0.674629
1
1
0.642043
0.636411
1.47261
1.00005
1
0.650159
0.641311
1.46713
1.45311
1.44064
1.47186
1.12818
0.981738
1.18507
1.47476
1.3616
1
1.24281
1
0.648435
0.866829
1
0.673183
1.47197
1.02265
1.47304
1
1.47237
1.47267
1
1.47146
1.47192
0.652421
1.47632
1
1.483
1
0.75669
0.668526
1.47165
1
1
1
0.668548
1.4723
1.47284
1
0.670052
1
1
0.673751
1.00004
0.636048
1.47158
1
0.82664
0.638981
1
1
1.27168
1
1
1
1.07672
0.664758
1
1.00001
1
1.47072
0.641208
1
1.47057
0.63458
0.630733
1
1
1.47329
1
1.47426
1.00001
1.47225
0.658116
1
1
0.643724
0.809175
0.657162
1
1
1
1
1.47963
0.663568
1
0.65659
1
1.47716
1
1
0.928834
1
1
0.830296
0.999665
1.00005
1
0.639504
0.661591
1
1
1
1
0.796054
1.47002
1.47206
1
0.662968
0.654585
0.912696
0.670027
1
0.818947
1
0.655064
0.984098
1
1
0.656189
1
1.47424
1.45707
0.667505
1
1
1
1.47048
1
1.04054
0.83955
1.15063
0.665181
1.18989
0.65466
1
1
0.737826
0.914333
1
1.03175
1
1
0.653312
1
0.938054
1.04168
0.654815
1
1.38122
0.770369
0.87803
1
1
1
0.643149
1
0.66991
0.652399
1
0.845641
0.664317
1.06592
0.751136
0.640439
1.47202
1
1.47194
1.25558
0.714406
1.47101
0.659325
0.999009
1.47135
0.999999
1
1.4727
1
0.709378
1
1.06287
1
1
1.47157
1
0.755579
0.808515
1.47166
0.939024
1
0.765763
1.47058
1.47042
0.912546
1
1.47088
1.12347
0.844271
1
1.01608
1
0.662223
1.20068
0.754878
0.740825
1
1
0.670872
1.47041
0.957028
0.662814
0.661565
0.866031
1
1.0103
1.47175
1.47033
1
1
0.999999
0.667172
1.21371
1
1.47015
1.4304
0.654762
0.999992
1.09504
0.872205
1.27156
1.40178
1
1.04285
1
1.00005
0.646912
0.833129
1
1
0.807998
0.651533
1.03768
1
1.00001
0.623277
1.20757
1
1.47269
1
1.03268
1.25426
1
1.46947
1
1
1.47261
1
0.640914
1.47196
0.701597
1.12193
1
0.67303
0.999905
1
1.00003
1
0.790537
1.02772
0.65262
1.34335
1.47203
0.636915
1
1
1
1
1
0.957872
0.684175
1.04819
0.65845
0.660709
1.07236
1
0.999799
1.12047
1
1
0.653251
0.989549
1
1
1.12762
1
1.47141
1
1.47138
1.095
1.02309
0.67036
1
1
0.636732
1
1
1
1
1.47241
1.04273
0.998056
1
0.640834
1.05298
0.999999
1
1.30536
1
0.655015
1.47409
1
1.00001
1
1.47274
0.648453
0.87293
0.653258
1.35259
1.47053
1
1
1.47123
1
0.638318
1
1
1
1
1
0.765393
1
1.47247
1
1
1.16011
1.47424
0.666346
0.859684
1
1.47148
1
1
1
1
1
1.47109
1.47112
0.637142
1.47206
0.640532
1
1
1.47155
1
1.47116
1.00794
1.028
1.06068
1.47004
1.07501
1.31611
0.649673
1
0.651671
0.983508
1
1.47095
1
1
0.646787
1.47215
1
1.47071
1
1
1
1
1
1.00001
0.645482
1.47295
0.842411
1.47177
1
0.660812
0.657425
0.712216
1.47965
1.47112
0.963953
1
0.788042
1
1.18158
1
1.47251
0.6364
0.641966
0.855228
1
1.47119
1
1.06954
0.682578
1
1.47061
1.42682
0.998821
1
1.47086
0.669806
1.47625
1.47032
1.47825
0.643935
1.09734
1
1
0.641648
1
0.79583
0.81429
1
1.00002
1.46959
1
1.47621
1.08954
1
1.03696
1.47315
1
0.64875
1
0.771201
1
1
1.38126
1
0.796571
1
0.655069
1.03737
0.945413
0.641182
1.46908
1.37763
1.47147
0.656271
0.690183
0.995804
0.999999
1
0.697658
1.44373
0.657737
0.999968
1
1.47193
1.47043
0.910837
1
0.671549
0.71534
1.31207
0.985508
0.643546
0.999999
0.635511
1.11716
0.654144
1
1.00005
0.816523
1.47143
1.47158
0.845652
0.999582
1
1
0.737752
1
0.646699
1
0.644861
0.663465
1
1
1.00003
0.655371
1.47048
1
1
1.00007
1.00004
0.646929
1.47123
1.47191
1
0.653325
1.47377
1
1.09958
1
1
1.47008
0.646134
1
1
0.634673
0.752579
0.653431
0.654967
1
0.715935
0.997195
1.09904
0.63831
1
1
1.13364
1
1.41645
1
1
1.34243
0.678612
1
0.65048
1.11663
1.47156
1
1
0.662434
0.682929
0.646755
0.750948
0.666054
1.3525
0.999401
1
1
1
1
1.47171
0.639275
1
0.930968
0.999676
0.998843
0.99994
0.769861
1.1213
1
1.47134
1.47168
1
1
1.45129
1.00004
0.999999
1.47163
0.670511
1.47512
0.999999
0.640681
1.4716
1.00005
1
0.821207
1
0.647527
1
1.47142
1
1
1.47363
1
1
1.47672
1
1
1
1.47493
1
0.740172
0.726863
1
0.635782
1.47065
1
1
0.978165
1
1.47336
1.2694
1.37544
1
1
0.656391
1
0.664072
1.47123
1.47293
1.47161
1
1.47269
0.670632
1
0.659572
1.37719
1.44672
1.47169
1.4724
0.771092
0.649421
1
1.31903
1.47126
1.47351
1.47132
0.734342
1.17237
1
1.35337
0.745655
1
1.00002
1
1.00002
0.889277
1
1.47244
1
1
1
1
1
1
1.00006
1.46751
1
1.4756
1.34493
0.655401
1.47369
1.03261
1.23059
1
1.47234
1
0.662391
1
1
1
1
1.40118
1
0.640211
1.47291
0.645844
1.47176
1.37532
1.24039
1
1.08595
1.21343
0.995961
0.648266
0.769656
1.00002
0.999999
0.916745
1
0.636396
1.47159
0.644333
0.932531
0.854976
1
1
1
1.01453
1
1
0.660895
0.996254
1.47141
1
1.47189
1
0.647943
1
1
1.47139
1.47132
0.637876
1
1.47051
1
0.798388
0.646205
1.47286
1.42105
1
1.07392
1.47101
0.998709
1
1.19574
1.41183
1.4739
0.995692
1
0.999998
1.39854
1
1
1
1.47044
0.998463
1
1
1.47156
1
1
0.661083
1
1
1
1.47165
1
1
0.850478
1.13454
1.42491
0.76058
1
1.47173
1
1.1565
1
1.47301
0.99731
1.47145
1
0.67757
1
1.32001
1
1
1.43948
1.00002
1.4716
1
1.46819
0.706065
0.664256
1.47063
1
1.39425
1
1.47341
1
1
1.00005
1.47273
1.47651
1.12039
1.471
0.995403
0.641024
1.47054
0.86549
1
1.46526
1
1.47113
1
1.47401
1.47354
0.996156
0.653089
1
1.47158
1
1.03056
1
1
0.997944
0.752195
1.41921
1
1.42426
1
0.859267
0.656059
1.47098
1.47142
0.705639
1
1.47237
1.47421
1.47286
0.687188
1.47081
0.668804
1.47267
1.47981
1
1
1.47243
1
1
1
1
0.650553
1
1
1.47259
1.47147
1
1.47163
1
1.47443
1.47334
1
1.38916
1
0.635059
1.47253
1.3483
1.13661
0.639488
1.47059
1
1
0.655078
1
1
1.47184
1
1
0.770412
1
1.47161
1.00009
1.47164
0.658151
1.47178
1
1.47088
1.45291
0.894722
1
1.47328
0.765633
1.47754
1.33094
1.47255
1.46921
0.997338
1.47082
1.47113
1.47152
1.47029
1.00096
1
0.677267
1
1.4737
0.84041
1.42694
1
1.46243
1
1
1
1
1
1.46844
0.647202
0.661344
1.4706
1.47171
1
1
1
1
1
1.46691
1.42466
1.4711
1.01888
1
1
1
1.00003
1.47025
1.47191
1
1.47324
1.47221
0.664793
1.32637
1
1.47254
1.47658
1.46688
0.99776
1.47209
1.4723
1
1.41917
1
1
1
1
1
1
1.47122
1.47208
1.43878
1.47124
0.651132
0.692362
1.47107
1.47139
1
0.662011
0.939597
1
1.21846
0.63979
1
0.999461
0.998306
0.656495
1
1.47054
1
1
1
1.47064
0.945684
1
1.4707
1.47256
1
1.47271
1
1
1.47114
1
0.656433
1
1.47122
1
1
0.668271
1
1.47198
1
0.63688
0.654086
1
1.45284
1
0.643292
0.869405
1
1.4713
1
1
1
1.47688
1
0.655899
1.06296
1.47201
1.47312
1.47146
1.03873
1.47353
1.4714
1
1.00002
1
1
1.00001
1.47146
1
0.999321
1.47673
1
0.63353
1
1.47202
1.21309
1.05229
1.20884
1.05867
1.46949
0.689613
1.47062
1
0.656744
0.997062
1.47151
0.951539
1.47151
1.47169
1.44989
1
1.47045
1.47122
1.47084
1
1.00003
1
1
1.47307
1.33385
1
1
0.642098
0.996704
1
1.47082
1
1.47115
1.47194
1.4701
0.908548
1.47217
1.47213
1.00676
1.2293
1.47209
1.47037
1
1.43298
0.832456
1.4603
0.987483
1.47037
1
1.47124
1.4708
1
0.671573
0.93344
0.708409
1
1.08427
0.996731
1.47069
1
1
0.996856
1
1.22277
1.4359
1
1
1.47054
1
1
1.33599
1.47095
1.45168
1.47074
1.4708
1
1.47024
0.726507
1.47134
1
0.993668
0.66629
1
1
0.760746
1
1.1391
1
1.47237
1
1.46184
1.29419
0.672345
1
1
1
1
1
1.47135
1.01161
1
1.46988
1
1.47197
1.47078
0.999999
1
0.96644