/*--------------------------------*- C++ -*----------------------------------*\
  =========                 |
  \\      /  F ield         | OpenFOAM: The Open Source CFD Toolbox
   \\    /   O peration     | Website:  https://openfoam.org
    \\  /    A nd           | Version:  12
     \\/     M anipulation  |
\*---------------------------------------------------------------------------*/
FoamFile
{
    format      ascii;
    class       volScalarField;
    location    "3.6";
    object      T;
}
// * * * * * * * * * * * * * * * * * * * * * * * * * * * * * * * * * * * * * //

dimensions      [0 0 0 1 0 0 0];

internalField   nonuniform List<scalar> 
22702
(
1
1
0.961303
1
1.01875
1
1.12055
1
1
0.890589
1.12056
1.12067
1
1.11865
0.968022
1
1
1
1.12036
1
1.11871
1
1.11909
0.897548
1.11835
0.888829
1
1.11982
0.897403
0.897498
1
1.12055
1
1
1
1.11064
1.11868
1.11927
1
1
0.890579
1
1.06245
1
1.11981
1
1
1
1
0.897946
1
0.896706
1
1.12053
1
1.1207
1
1
1
1
0.88884
1
1
0.896966
1
0.896991
1
1
1
0.889405
1
1.11864
1.07602
1
1.11864
1.12529
0.897408
1.11961
0.899015
1
1.12081
0.897488
1.11977
1.11964
1
1
1
1
0.981956
0.889727
1.12099
1
1
0.889329
1
1.11873
0.889185
1
1
1
1
1.0623
1.12061
0.888951
1
1
1.03239
1
0.897332
1
1.11974
1.12058
1
1
0.884798
0.886201
0.889884
1
1
1
1
1
0.976615
1
1.10301
1.0135
1.11967
1
1.11983
1.12051
1.11857
1.121
1
0.889465
1
0.889475
1
1
1
1
1.12067
1
1
1
1
1.11874
1
1.00734
1
1
1
1
0.897761
1
1.00302
1
0.899823
1
1
1
1.12065
1
1.11867
0.884573
0.888882
1.11872
1.11869
1
1.02302
1.07189
1
1.12069
0.898986
1.1108
1
1
1
1
1.11863
1.09981
1
1.12059
0.897789
1.12061
1
0.89876
1
0.897972
0.888563
0.999935
1
1
1.11981
1
1
1.11851
1
1.11971
1.12057
0.897658
1
1
0.897155
1.11847
1
1
1
1.11849
1
0.891058
1
1
1.11851
1.11854
1.11962
1
1.00001
1
1
1
1.11851
1
0.897134
1.12368
1.11852
1.11862
1
1
1
0.892444
1.1186
1.05914
1
1.11894
0.89466
0.893586
1.11896
1.11898
1
1.11877
0.884865
1.1061
1
1
1
1
1.11855
1
1.07198
1.01228
1
1
1.11852
0.889145
0.931446
1
1.11873
0.889735
1.11829
1
1
1
1
1
1
1
0.895465
0.928661
0.891841
1.11857
1
1
1
1
1.10874
1
0.89701
1
0.889416
0.898624
1.11844
0.896785
1.1187
1
1
1
0.999344
0.897587
0.88468
1
1
0.887339
1
1.1204
0.888888
1
1
1.12089
0.884675
1
1.11918
0.888847
1.11852
1
0.892952
0.999354
1
1
1
0.896669
1
1
1
1
1.00557
1.07611
1
0.891933
1
1
1
1
1
1
1
1.12093
1
1.12069
1
1
1
0.889272
1
1.11876
0.896976
1
1.09403
1
1
1.12104
1
1
1
1.11846
1
1
1.11686
1.12103
1
1.02771
1
1
0.889347
1
1
1
0.889636
1
1
1
1
0.890589
1
1
1
1
1
0.888856
1.00002
1.11863
1
0.999997
1.11863
1.11888
1
1
0.900419
0.945395
1.12063
1
1
1
1.11848
0.889198
1
1.11868
1
1
0.910142
0.908596
1
0.897282
0.889173
1
1
1
1
1
1
1
1.11975
1.03313
1.11233
0.889417
0.973904
1.12087
1
1.11867
1.12055
0.889638
0.933838
1
0.889733
1
1.1248
1
1
1
1
1.11849
1
1
1
1
1
1
1
1.04685
1.12015
1
1.11854
1
1
0.898536
1
1
1
1
1.11849
1.09279
1
1
0.897931
1.11852
1.1185
1
1.11851
1.11852
1.11853
1
0.952046
1
1.1185
0.999433
1.11854
1
0.890038
0.999674
1.12066
1
1
1
1
0.895248
1.11852
1.1086
1
1.11847
1.11849
1.12048
1
1.05998
1.11839
1
1
1.08493
1.01845
1.11851
0.982685
1.11851
1
1.11855
1.1186
1.11854
1.11855
1
1.11247
0.975524
0.967932
1
1
1
1
1.11975
1
1
1
1
1
1.12059
1
1
0.99889
1.1185
1.10424
1
1.102
1.00001
1
1
1.11864
1
0.999146
1.00131
1
1.11859
1
1.11853
1
1
1.09084
1
1.11846
1.00001
1
1.11836
1
1.11849
1
1
1
1.11855
1
1.11905
1
1.11851
1.12066
1.11854
1.11957
1
1.12084
1.11868
1
0.897966
1.1119
1.08778
1
1.11852
1
0.889166
0.888769
1
1
1
1
1
0.889064
1
1.11855
1.03436
1.11858
1
1
1
1
1
1.11862
1
1.11891
1.07392
0.934816
1
1
1.03626
1.0311
1
1
1.04624
1
0.9001
1.11842
1.11843
1
1
1
1.12065
1
1.00001
1.11918
1.11853
0.986879
1
1
0.897393
1.1089
1
1
1
1
1
1.11849
1.12088
1
1.11843
1.1187
1.11854
1
1
1
1
0.88874
1.12062
1
1
1.10898
1.11829
1
1.11224
1.12014
1
1
1
1
1
1.11855
1
1
1
1
1.11989
1
1.11637
0.889104
1
0.888829
1
1
1
0.999097
0.897251
0.999724
1
1
1
1.01826
1
1
0.960155
1
1
1
1
1
1
1
0.999999
0.981972
1
1
0.999315
1
0.89548
1
1
1
1
1.09115
1
1
1
1
0.897501
1
1
1.11229
1.12053
1
1
1
0.968388
1
1
1
1
1
1
0.986779
1.00578
1.11852
1
1
1
1.11889
0.971382
1
1
1
1.11974
1.1192
1
1
1
1
1
1
1
1
1
0.889584
1
1
1.11973
0.890316
1
1.11945
1
0.898462
1
1
0.889586
1
1
1
1
1
1
1
1.11651
1.11837
1
1
1
1
1.10923
1
1.0413
0.896979
1
1
1
1
1
1
1
1.01235
1
1
1.06555
1
1
1
1.09979
1
1
1
1
0.889175
1
1
0.883883
0.889288
1
1
1.11848
1
1.00594
1
1
1
1.08562
0.888957
1
0.884815
1
0.933468
1
1
1
1.11877
1
1
1.11859
1
1
1
1.11861
1
1
1.11853
1
1
0.889978
1
1.04099
1
1
1.12094
1.12075
1.08212
1.10721
1
0.889539
1
1
1.11383
1
0.889016
1
1
1
1.11866
1
1
1
1
1.07429
1
1.11524
1.11882
0.889659
1
1
0.888776
0.888738
1
1
1
1.08705
1.09237
1
1
1
1
1
1
1
1.05404
1.1205
1.00485
1
1.11725
0.889065
1
1
1
1.06882
1
1.0257
1
1.10928
1.11804
1
0.89032
1
1.12089
1
1
1.11868
1.11192
1
1.12175
1
0.894994
1
1
1
1.11983
1.11649
1.10564
1
1.11899
1.11857
1
1.11878
1
1.11805
1
0.889493
0.993418
0.888851
1
1
1
1
1
1.11856
1
1.11852
1
1
1
1.11319
1
0.89764
1.11859
1
0.897124
0.892739
0.890678
1
1.06213
1.01186
1.11892
1.1186
1
1
1
1
1.11858
1
1
1.11856
1.11856
1
1.04469
0.999979
1
0.99907
1.12057
0.955437
1
0.947793
0.900379
0.8998
0.987545
1.11893
1.11703
1.02636
1.11865
1.11865
1
1
1.12079
1.11988
1.11859
1.12083
1
1.11855
0.896516
1.11918
1.11873
1.11962
1.11888
0.959674
0.971238
0.981628
1.11855
0.988049
1.11865
1
1
1.11897
1.1186
1
0.889941
1.11881
1.11858
1
1.11856
1.11854
1
1.11856
0.897001
1.11954
1.12066
1.12092
1.11935
1
1
1
1.11855
1.07995
0.892718
1.1186
0.886597
1.11854
1
1
1
1
1.11884
1.11863
1
1
1.1186
0.888725
1.11875
0.897533
1
1.1178
1
0.891321
1.11889
0.919732
1
1.1186
1.11916
1.11855
1
1
1.05775
1.11899
0.898402
1.1185
1
1.11854
0.965078
1.11831
0.889561
1
1.11844
0.89704
1.11896
0.897335
1
1.11864
1
1.11942
1
1.0727
1.11462
1.09542
0.885084
1
1.11867
1
1.1186
1
1.11857
1
1
1.11879
0.996952
1.11917
0.894038
1.11022
1
1.08704
1
1.1187
1.11855
1.11861
1
1.10774
1.1187
1.1106
1.07564
1.11709
1
1.08127
1
1.11888
1
1.01887
1
1.11073
1
1.11854
1.11351
1.11339
1
1.11628
0.888546
1
0.889094
1
1
1
1.12043
1
1.11867
1
1
1
1.11878
1.11572
1.10065
1.11909
1.11891
0.889094
1.11965
1.1207
1
1.10509
1.11856
1.11286
1
1.12085
1.12093
1
1.12001
1.11874
1.11874
1.11887
1
1
1
1.11858
0.888494
1
1.1186
1
1
0.888862
1
1
1.11857
1.11846
1
1.11851
1.11917
1.1187
0.993535
1.11857
1
1.11857
1.1186
1.09806
1
1
1
1.11896
1.11866
1.11856
0.984761
1
1.12052
1.11867
1.11851
1
1.11864
1.11887
1.11858
1.1207
1
1.11863
1.11868
1.10523
1.11849
1.12033
1
1.11964
1.11739
1.11858
1.1192
1.1184
0.88896
1.11869
1.11858
1
1.11862
1.11859
1.11858
1.11859
1
1.11853
1.11859
1
1.11854
1.10116
1
1
1
1.11907
1.1186
1
1
1.06807
1
1.11856
1
1
1.11864
1.11896
1.11852
1.11862
1
1
1
1.08737
1
1.11841
1
1
1.12076
1.1208
1
1.1186
0.885008
1.11855
1.11903
0.914272
1
0.885661
1.10557
1.11902
1.11827
1.11828
0.888698
1.11873
1.1188
0.888738
0.884509
1
1.11835
1.11865
1
1
1.11852
1
1.11856
1
1.10525
1
1.0594
1.11858
1.11912
1.08769
1.10903
1.12057
1.11885
1.11218
1
0.888856
1.11825
1.11866
1.1198
1
1
1
1.11944
1
1.11855
1.11859
0.925532
1
1.11854
0.999981
1
1.00001
1.00001
1.11866
1.11852
0.999561
1
1
1.11861
1.11902
1.11859
1.11852
1.11897
0.892377
1.10241
1
1.11779
1.11848
1.11856
1.11745
1
1.11851
1.11559
1.11885
1
1.11872
1.11888
0.960019
1.11849
1.11876
1
1.11863
0.953202
1.11866
0.959638
1.11855
1
1.11862
1.12297
1.11855
1.11859
1.1186
1.11921
1.11868
1.11934
1
0.981528
1.1187
1.11849
0.953471
1.11858
0.995612
1.07516
1.11864
1.11862
1.11891
1
1.11915
1.08124
1.11828
0.97909
1.11906
1.12185
1
0.961695
1
1.11916
1
1.08398
1
1.11184
0.962442
1
1.11909
1.11725
1
1.11883
1.11897
1.11759
1.11639
1.11726
1
1.12066
1
1
1
0.971229
1.11853
1.11874
1.11949
1.11859
1.11816
1.11968
1.11891
1.11866
0.971313
1.00902
1
1
1.1236
1.11862
1.11856
1.11856
1.00001
1.06397
1
1.11988
1.1044
1
1
0.920678
1.11859
1
1
0.897344
1.11856
1
1.12068
1.11854
1.12071
1.1144
1.11857
1
0.888129
1.03144
1.11869
1.11861
1
1.11854
1.11857
1.06189
1.00263
1.02902
1
1.1196
1.11851
1
1
0.889096
1
1
1.11857
1.11861
1.11882
1.1186
1.11861
1.12089
1.11867
1.11892
1.11854
1
0.998897
1.11877
1.11857
0.999154
1.1186
1.11859
0.888888
0.889486
1.11874
1.11906
1
1
1.00042
1.1186
1.11876
1.11857
1
1.11859
1
0.958626
1.11999
1.11816
1
1.05689
1.11862
1
1.12009
1
1.11862
1.08313
1.1189
1
1.11853
1.11956
0.888748
1.11851
1
1.11867
1.12021
1
0.889397
1.11801
1.0997
0.999337
1.11649
1.11859
1
1.00108
1.11925
0.999461
1.11853
1
1
1.11897
1
1.11912
1.11858
0.998981
1.09592
1
1.11857
1
1
1
1
1.11857
1
1
1.11696
1
1.11858
1
1.07918
1.11915
1.1187
1
1
1.00109
1
1.11872
1.11856
1.1187
1.11862
1.1187
1.11858
1.11854
1
1.1186
1.11862
1
1.11853
1.11861
1
1.11874
0.980777
1.01639
1.11861
1.11863
1.11849
1
1.11858
1
1.11858
1.11862
1
1.1186
1
1
1
1
1.1186
0.885742
0.99939
1
1.11858
1.11904
1
1.1185
1
1.00143
0.892442
1.11859
0.999885
1
1.1187
0.999513
1.11855
1
0.999934
1
1.11866
1.11982
1.11848
1.11916
0.895115
1.11836
1.11829
1.1188
1.03155
1
1
1.05457
1.11859
0.884468
0.893789
1
1.11871
1.11853
1.11826
1
1
1.11854
1.11841
0.999965
1
1.08985
0.886391
1
1.02264
1.12058
1.11631
0.999504
1.11858
1.12085
1
0.999742
1
1.11901
1.12031
1.05025
1
1.11331
1
1.00058
1.11876
0.890031
1.11855
1.11858
0.99914
0.999975
1.105
1
0.999912
1
1.11885
1
1
0.884786
1.11852
1
1
1
1
1.11967
1.07016
1
1
0.888887
1.11856
1.0704
1
1
1
1.11371
1.11871
1.11951
1
1
1.11875
1
1.11856
1.11864
1
1
1.11899
1.11855
1.11424
1
1
1.11903
1.11895
1
1
1
1.11894
1
1
1
1.11866
1.1191
1.11916
1
1.11957
1.00001
0.905871
1.11859
1.11859
1
1.12064
1.11229
1.12053
1
1
1.11946
1
1.06586
1.11852
1
0.889418
1
1.11906
1
1
1.11829
1
1
1
1.03869
1.11846
0.899244
1
1.1189
1
1
1.11872
1
1.11945
1
1
1.11861
1.11858
1
1.00001
1
1
1
1
1
1
1.11943
1.11853
1
1.12059
0.889866
1.11964
1
1.1184
1.11905
1.11854
1.12026
1.12164
1
1
1.11838
1
1.07897
1.11962
1.11859
1
1.11915
1.11915
1
1.10729
1
1.11841
1.0802
1.11838
0.999281
1.11585
1.1102
1.11883
1.11873
1.01063
1.11851
1.1193
1
1.11854
1
1.11859
1
1
1
1
0.998963
1.11858
1.11855
1.10228
1
1.11926
1
1
1
0.884784
1
1.11604
1
1.10878
1.11526
1
1
1
1.11227
1.12067
1
1
1.11845
0.88996
1.0227
1
1.11959
1.11851
1.10917
1.1159
1.11848
1
1.11832
1
1
1
1
1.11846
1.11865
1
1.11661
1.01635
1.11859
1.11133
1
1
1.11173
1
1
0.892537
1.08497
1
1
1.11982
1
1.11939
1.1091
1
1.10884
0.89062
1.11868
1.11857
1.11873
1
0.896205
1
1
1
1.11854
1.10073
1
1.11809
1.11852
1
1.11856
1
1
1
1
1.1185
0.99981
1
1.11904
1
1
1.11796
1.11851
1
1.1196
1.025
1.00001
1
1.11855
1
1.11857
1
1.00377
1.11854
1
1.11853
1
1
1.04031
1.11868
1
1
1
1
1
0.998912
0.890109
0.888588
1.00577
1
1.00941
1
1.00977
1
1.11855
1
1.07416
1
1.11861
1
1
1
1.11861
1
1.09857
1.11856
1
1.06639
1.11865
1
1
1.12014
1.11853
1
1
1.01575
0.884518
1
1.1188
1
1
1
1
1.02179
1.11854
1
1
1
0.891734
1
1.11863
1.11844
1.12076
1
1
1
1
1.06283
1.1196
1
1
1
1.11848
1.11856
1.01559
1
1
1
1.11866
1.11852
1
0.889427
1.11843
1.1186
1.11877
1.11846
1.11926
1
1
1.1188
1.11897
1.11859
0.895123
1.01145
1.11857
1
1
1
1
1
1.1185
0.892042
1
1
1.11857
1.05662
1
1.11887
1
1
1
0.892909
1
1
1.03449
1.11842
1.11849
1
1.11973
1.11901
1
1.02218
1
1.11932
1
1.11875
0.890121
1
1
1
1
1.11857
1.00002
1
1
1
1.11701
1
1
1
1
1.11858
0.891221
1.09626
1.11918
1
1.11865
1
1
1
0.999177
1
1.11942
1
0.943525
1
1
1.00001
1.11853
0.891999
1
1.11906
1
1.11869
1.11855
0.892119
1
1
1.11394
1
1
0.896555
1
1.11852
1
1.11388
0.999809
1.11844
1
1
1
1
1.12029
1
1
1.1186
1
1
1
1
1
1
1
1
1.08052
1
1.04084
1.11848
1
1
1
0.89028
1
1
1
1
1.11859
1.11854
1.0165
1
1
1.11889
1
1
1.11869
1
1
1
1
1
1
1.11858
0.936014
1.11855
1.11904
0.999193
1
1
1
1.0734
1
1
1.11873
1.11863
1
1
1
1
0.89128
1
1
1
1.07847
1
1.11852
1.11933
1
1.11885
1
1
1
1.06784
1
1.12073
1
1.11853
1
1
0.99894
1.11854
1
1
1
1
1
1.11836
1.00001
1
0.894314
1.11847
0.894437
1
1.11856
1
0.998881
1
1.11882
1.11939
1
1.11849
0.966901
1.11854
1.11729
1.00001
1
1
0.890019
1
1
1
1.11859
1.07233
1.11937
1
1
1
1
0.999091
1.11838
1
0.890259
1
1
1
1
1
1
1
1.12025
1.11836
1.11971
1
1
0.999121
1
0.994934
1
1
1
0.889695
0.99458
1
0.888222
0.891196
1
1.11873
1.11858
1
1.1181
1.11854
0.889882
1.08548
1
1
1
0.890392
1.1187
1
0.889057
1
1.1198
1.02444
1
1
1
1
1.11855
1.11994
1
1
1.11851
1
1
1.12022
1.11862
1
1.10939
1.11851
1.12027
0.991042
1.11888
1.00254
0.889878
1.09338
1.11866
1
1
1
0.889838
1
0.890347
1.11872
0.990075
1.11862
0.987454
1
1.11841
1.05807
1
1
1.11886
1
1.05226
1.11854
1
1
1.11868
1.11985
0.889607
1.07618
0.99997
1
1.07447
1
1.11895
0.985382
1.12126
1.11977
1
1
1
1
1.117
1
1
1.11842
0.999897
1.11873
1.09922
1.1185
0.894257
1
1
1
1
1.11873
1.00001
1.11856
1
1.11881
1.11892
1.01666
1.11965
1.03981
1.11872
1
1.08374
0.898602
1.11834
1.11855
1.09853
1.02388
1.11956
1.11854
1.11847
1.11833
1
0.976513
1.01855
1
1.11858
1.05985
1.11865
1.00001
1
1
0.899964
1.11974
1.11942
1.0982
1
1.04931
1
1.11862
1.11829
1
1.11839
1.11909
1
1
1
1.11837
1
1.04916
1.11935
1.0849
1
1.11843
1
1
1
1
1
1
1
1
1
1
0.896749
1
1.11123
0.888959
1.07307
0.999594
1.11876
1
1.0663
1
1.0795
1.10186
1
1.00058
1.11882
0.975796
1
1.11829
1.11524
0.985186
1
1.11886
1.11872
1.11907
1
1.11857
1.11866
1.11824
1
1.05729
1
1.00002
1.1187
1
1.11885
1.01925
1.11848
1
1
1.11908
1.11861
0.897953
1
1.11874
1.09159
1.11839
1
1
1.12002
1.11869
0.999499
1
1.1058
0.999099
1.11855
1.00001
1
1
1
1
1.05719
1
1.092
1.11857
1.09126
1.1185
1
1.00066
1
1
1.12007
1
1.11836
1
1
1
1
1
1
1.01555
1.06551
1
1
0.890732
1
1.11912
0.898619
1.1182
1
1.06492
0.999928
1.1188
1.07873
0.895497
1.06865
1.00001
1.1186
1.1191
1
1.07533
1.11862
1.11838
0.999547
1.11999
1.11559
0.888527
1
1
0.999172
1
1.11879
1
0.894996
1.11862
1
1
1.10647
1
1.11862
1
1.11866
1
0.900834
1
1
1.11859
1.12009
1.11813
1
1.11812
1.11852
1.11731
1
1
1.11526
1
0.920768
1
1
1
1.11875
1
1.11852
1.08005
1.11826
1
1.11855
0.999822
1
1
1
1
1
1
0.91253
1
1
1.11852
1
1.11882
1.11969
1
0.887751
0.890254
1
1.11895
1.02063
0.891703
0.886231
1
1.11839
1
1.11868
0.889246
1.00046
1
1
0.999859
1
1
1
0.999976
1.05214
1.11857
1
1
1.11881
1.07359
1
1.10717
1.11823
1.11872
1.05239
1.11847
1
1.11859
1
1.11539
1
1.11942
1.11877
0.999132
1.11829
1.11975
1
1
1
1
1
0.977793
1.12016
1.00001
1.00001
0.892301
0.999994
0.889767
0.886409
1
1.11864
1.11875
1.11869
1
1.11848
1
0.892715
1
1
1.11826
0.950345
1.11882
1
1.11863
1
0.995336
1.11874
1
1
1
1.11837
1
1.11871
0.889754
1
1
1.07268
1
1
1.06849
1
1
1.11867
1
1
1
1
1
1.11796
1.11848
1
1.11877
1.11839
0.890786
1.05811
1.11811
1
1
1.10785
0.999718
1
1
1.11858
1.11864
1.08458
1
1.11866
0.891146
1.11204
0.999851
1
1.11862
1.00001
1.11828
1.09888
1.09304
1
1
1.11863
0.911997
0.891523
1
1.11856
1
1.1187
1
1.07404
1
1
1.11837
1.07895
0.890419
1
0.999518
1
1
1.00724
1.05198
1.11863
1
1.11821
1
1
1
1
1
1
1.01917
0.89022
1
1
1.01191
1
1
1
1
1
1.11866
1
1
1.11847
1.11849
1.08678
1
1
1
0.953091
1.11901
1.08562
1
1
1
1
1.11873
1
1
1
1.11919
1
1
1.08818
1.1226
1.01223
0.926143
1.1187
1.08668
1.1187
1
1.06322
1
1
1
0.888438
1.0006
0.895368
1
0.889187
0.884781
1
0.890295
1
1
1
1.05642
1
1.11867
1.11856
1.00027
1.06133
1.10331
0.889895
0.929148
0.966639
1
1.11858
1.11978
1.11859
1.11861
1.1035
0.966152
1
1.10404
1
1.11394
1
1
0.998988
1.00274
1
1
1
1.11898
1
0.88993
1
1.11883
0.895555
1
1
1.1186
1
1.11859
0.999774
1
1
1.11878
1.10786
1
1.12274
1
1
1.00419
1
1.05692
1
1
0.890402
1
1
1.11821
1
1.11848
1
1.00001
0.893046
1
1
0.896592
1.00031
1
1.11937
0.889666
1.1195
0.889296
1.11874
1
1
1
1
1
1
1
1
1
1
1
1.1141
1
1.11904
1.12011
0.890283
1
1
1
1
1
1
1.11566
1
1
0.89184
1
1
1.11966
1
1
1.04746
1.10085
0.889955
0.88871
0.905868
0.920319
1
0.999034
0.895387
1.00013
1.11199
0.999118
1
1
1.11866
1
1
1
0.930585
1
1.04484
1
1
1.05039
1.11846
1
0.889157
1
1
1
0.999063
1
1.1189
1.11858
1
0.889388
1
1.06791
0.889554
1
0.967107
1
0.998736
0.884383
1
1
1
0.998809
0.89034
1
0.889215
0.999547
1.06603
1.1082
0.888743
0.893175
1
0.997334
1
0.999604
1
1.11874
1.11852
1
1.00656
1.11866
1.11851
1
1
1.11858
1
1
1.00001
1
1.11863
1
1
1.00526
1
0.999595
0.903861
1
1
1
1
1
1.11839
1.01215
1.00001
1
1
1
1
1
1.00001
1
0.890614
1.02958
0.999603
1.11488
1.11742
1
1.00462
1.1187
1.10537
1
1
0.887474
1.11875
1
1.1198
1
1.1184
1.08562
0.8905
1
0.88996
1.10901
0.999908
1
0.890547
0.88834
1
1
1.10192
1
1
0.886693
1
1
1
1.04002
1
0.889788
1.11849
1
1
1
1
1.11864
1
1
1.11951
1.10756
1
1
1
1.11883
0.888707
1
1.1186
1.1186
1
1.09681
1
1.00001
1
1
1.11031
1.00695
1
0.89478
1.06901
1
1
0.9993
1
1
1.11785
1
1
1.00001
1
1.11892
1
1
1
1
1
1
1
1.05603
1
1.11825
1
1
1.1189
1
1
1
1.11854
1.11933
1.01324
1
0.999311
1
1
1
1
1.12014
1
1
1.11858
0.889566
1
1
1
1
1
1
1.09774
1
1
1.11894
1.11891
1
1
1
1.11869
1.11888
1
0.999913
1.11957
1
1
1
1
0.893616
1.00862
0.998939
0.998901
1
1
0.886395
1.11875
1
0.88883
1
1.11888
1.11418
0.890501
0.999832
1.11863
1.11873
1.11859
1
1
0.97931
1.10654
1.1001
0.888661
1
1
1
1.11845
1.11862
0.887995
0.999227
1
1.1186
0.890912
1
1.11788
0.890205
0.992885
1.00192
1
1.11944
1
1
1
1
1
1
1.00003
1.11133
1
1
1.11924
1
1
1
1.11857
1
0.890326
1
1
1
1.0431
1
1
1
1
1
0.934786
1
0.892443
1
1.11855
1.00001
0.961787
0.962622
1
1.00104
1.06571
1
1
0.890028
1.11849
1.11854
1.11858
1
0.885037
0.885754
1
1.11851
1
1
1
1
1
1.00001
1
0.893208
1.07931
1
1
0.889967
0.997697
1
1
1
1
0.884352
1
0.901433
1
1
1.11905
1
1
0.888633
1
1.11855
1
0.889631
1
0.891238
1
1.00214
1.11845
1.1225
1
1
1.1201
1
1
1.03004
0.999081
1
0.999465
1
1.1191
1
0.894274
1
1.12042
0.999697
1
1
0.939267
1
0.999722
0.888684
1.1183
1.04664
1
1
0.973352
1
1
1
0.938183
1
1
1
1.11858
1
0.891346
1
1
1
1
0.889989
1.11856
1.11202
0.88913
1
1.11894
1
1
1.11858
1.11967
1.10155
0.888045
0.999349
0.999783
1
1.11858
1
1
1
1
1.11881
1.00001
1
1
1.11872
1
1
1.11862
0.889214
1
1
1
0.894102
1
1
1
0.99961
1
1
1
1
1.09507
1
1.11983
1.11874
1.1212
1.11862
1.11892
1.11854
1
1.11838
1
1.11857
1.11862
1
0.999674
0.889336
1.10286
0.999968
1
1
1
1
1.00082
1
1.02006
1
1
1
0.957415
1.11863
1.11877
1.11922
1.10465
0.999965
1
1.00633
1.11885
0.999403
1.01728
0.999148
0.889961
1
1.00001
1
1
1
1
1
1.11868
0.890394
1.11863
1.1186
0.998512
0.888508
1
1
1
1.11852
0.888801
1.106
0.888976
1.11856
1.11942
0.892153
1.1187
1.00707
1
1.11926
0.942146
1
0.999641
0.88872
1
0.890231
1
1.11853
1.11858
0.920456
1
1.11932
0.890059
1
0.891522
1
1.11861
1
1
1.11656
1
0.952626
1
0.999913
0.890646
1.11901
0.999853
1
0.889091
1
1
1
1
1.06913
1
1.11838
1
1
1.1228
1
1
1.11854
1
0.892091
1
0.895032
1
1
1
1
1
1.11395
1.0733
1.11856
1
1.1185
1.11107
0.884199
0.888761
1
1
1.11834
1
0.890914
1
0.997092
1
1
1.11873
1
1.11825
0.888695
1.12237
1
0.888696
1
1
1.11912
1.11816
1
1.00001
1
1.11875
1
1
0.886516
0.999818
0.891341
1
1
1
1.11894
1.11793
1.11962
1
1
0.888527
1
1.11898
1
1
1
1.1136
1.11858
1.11864
0.888858
1.11905
1.11856
0.892551
1.11959
1.00001
0.891904
1.00597
1
1
1.11876
0.888553
1.07844
0.888503
1.11856
0.999265
0.888428
1.11901
1
1
1
1
1.11847
1.11986
0.891483
1
1.00001
0.890182
1.00001
1
0.888627
0.89307
1.08596
1.11845
0.999567
1.11856
1
1.11801
0.94794
0.890154
1.11861
1.12204
1
1.11848
1
1
1.11855
1
1.09351
1.11977
1
1
1
1
1.11865
1.11736
1.11882
1
1
1.11836
1.1206
1.11883
1
1.11861
1
1
1
1
1
0.88977
0.955381
0.888577
1
1
1.11877
1
1
1.1188
0.884946
1
1.11856
1.11741
1.1139
0.883934
1
0.888701
1
1.00001
1.11971
1.06233
1.12004
1.1094
1
0.889076
1
1.11883
1.08765
0.89298
1
1
1
0.94075
1
1
1.12177
1
0.894108
1.11854
1
1
1
1
1
1.09732
1.02942
1
1.11867
1
1.11846
1
0.999238
1
1.11878
1.11951
1.11877
1.11946
0.999882
1.11992
1
1.11852
1.11887
1.10223
1
1
0.889496
1.11965
1
1
1.11907
1.11841
1.11811
1
1.11873
1
1
1.00001
1.11948
1.11826
1.03718
1.0286
1.1186
1.11839
0.902767
1
1
1
1
1.00001
1.04566
1
1
1.10015
0.893698
0.999988
1
1.11854
0.99997
0.999946
1.0181
1.10717
1.12016
0.975421
1
0.889716
1
1.00096
1.11865
1.11921
1.11863
0.999723
1
1
0.88977
1
1
1.11864
1.014
1
1
1
1
1
1
1
0.999983
1.11965
1
1
1
1
1
1.07743
1
1.05869
1
1
1.11856
1.11986
0.89243
0.999656
1
1
1
0.89172
1.11965
1.11859
1
1
1
1
1
1
1
1
1.11872
1.11952
0.891097
1.01436
0.893608
1
0.885202
1
1.11859
1.03712
1
1
0.911227
1
1.11403
0.943937
0.999083
0.888044
1
1
1.11943
1.00001
0.999192
0.884345
1.11971
1.12066
1
1
1
1
1.11157
1
1
1.1185
0.999701
1.11898
1.00003
1
1
0.889069
1
1
1.11878
0.887949
0.933265
0.89537
1.11853
0.999806
1
1.11872
0.888849
0.889015
1.00585
1
1
1.11998
1.00001
1.05645
1
1
1.11998
0.892169
1
1
1.00004
1.1192
1.00004
1.11691
1
1.00001
1
1
0.91375
1
0.939861
1.00001
1
1.11828
0.889243
1
0.932043
0.941672
1
1
1.1188
1
1
1
1.11868
1.11861
1.00001
1.11709
1.12016
0.93245
1.11857
1.11571
1
1
1.11874
1
1
1
1
1
1.11984
1.11859
1
1
1
1.11876
1.00006
1
0.889527
0.912596
1
1.00001
1.0465
1
1
0.971202
0.893952
1
1
1
1.1198
1.10975
1.11858
1
1
1
1
0.889686
1
1.11616
1
1.1186
0.888834
1.11879
1
1
1
0.888795
1
1.1191
1.00001
1
0.891328
1.04697
1
0.999902
1.11915
0.886569
0.888561
1
1.11962
0.885656
0.889578
1
0.889122
1
1
1
1
0.888624
1
1
1
1
1.11936
1
1.09332
0.888843
1
1
1
0.890094
1.11861
1
1
0.999041
1.11635
1
1.11864
1.11932
1
1
0.915338
0.888796
1
1
0.890645
1.04029
1.05773
1
1
1.11959
0.999247
1
0.999283
1.12033
1
1
1
1
1
1
1.11882
1
1.04469
1.04149
0.902467
1.10627
1
1.11846
1.11855
1
1
1
0.975998
0.890343
1
1.06524
0.999902
1.10551
1
1
1
1
1
1.00172
1.05629
1.1188
1.11875
1
1.11848
1
0.896996
1
0.999302
0.999936
1
0.887723
1
0.893711
1.00001
1.11933
1.11995
0.888879
1.11987
0.888806
0.998919
1.09184
0.889123
1.08739
1
1
0.999545
1
1
1
1.00002
1
0.889967
1
1
1
1
0.999884
1.11867
0.941366
1
1
1
1.01068
1
1
1
1.06885
0.924789
1
1
1
1.01375
1.11998
1
0.888739
1
1.11894
0.971116
0.889881
1
0.889483
1
1
1.11277
0.999497
1.11413
1
1.00248
1
1
1.11862
1
1
1
1
1.02555
1
1.1186
1.1189
1.11951
0.889218
1.11847
0.999161
1.09893
1
1
0.884441
1
1
0.890518
1.11868
1
1
0.999988
1
1
1
0.883639
0.888874
1
1.12009
1
1.05918
1.11851
0.890346
1.10394
1
1
0.894479
1
1
1.11858
1.11855
1.04739
1
1
1.00047
1.11941
0.889003
0.891737
1.11971
1.11851
1.08331
1.05023
1
0.971317
1
1
1
1.11358
1.11964
1.11883
1
1
1.11854
0.88891
1.10738
0.88487
1
0.894945
1
0.889167
1.11861
0.885634
1
0.997416
0.89885
1
1
1
0.955112
1.11187
1.11863
1.11888
1.11958
1
1
1.12011
1
1
1.1188
1
0.88886
1
0.88887
1
1.12024
1
1
1.00784
1.09314
1
0.999686
0.888626
1.11858
1
0.888689
1.02529
1
1
1.09361
1.11839
1.11845
1
1.11844
1.03447
1
1.00685
1.11854
1
1
1
1
1.11851
1
0.886151
1.11886
0.890309
0.888835
0.949579
1.11848
1.0436
1.11847
1
1.11973
0.999271
1.00001
1.11855
1.12
1
1.11928
1
1.11857
1
1.11969
1
1.00001
1.00001
1.119
0.887194
0.894018
0.999403
1
1
1
0.88911
1
1.08111
1
0.8849
1
1.05002
1.11867
1.11782
1
1
1.00001
0.99982
1
1.11975
1.11857
1
1.05363
1.11867
0.957004
1.1186
1.00009
0.887601
1.0269
0.888899
1
1
1.02198
1.12042
1
1
1.01301
0.999592
1
0.88898
1
0.934831
1
1.11886
1
1
0.888859
1.02986
1.01895
0.999574
1.11853
1.11855
0.930849
0.999452
0.888956
0.888686
0.88893
1
1
1
0.999728
0.914528
0.894586
1
1.11854
0.999928
1.11857
1.11864
1.12009
1.11857
1
0.889148
1.11862
0.889433
1
1.11849
1.11926
0.999051
0.944465
1.11835
1.08694
1
0.888654
1
1
1.11904
1
1.0077
1.11866
1
0.888913
0.889318
1
1
0.88412
0.884911
1.1186
1.00001
1
0.885409
0.88532
1.11861
1.11506
1.1115
1.11983
1.03711
0.996774
1.05204
1.11996
1.09357
1
1.06393
1
0.88598
0.959491
1
0.889212
1.1186
1.00638
1.11889
1
1.11858
1.11953
1
1.11853
1.11863
0.89039
1.1193
1
1.12258
1
0.919089
0.889984
1.11858
1
1
1
0.889937
1.11861
1.11878
1
0.892838
1
1
0.890684
1.00001
0.882813
1.11993
1
0.948571
0.886392
1
1
1.07091
1
1
1
1.02212
0.89032
1
1
1
1.11835
0.889799
1
1.11851
0.88867
0.88873
1
1
1.11982
1
1.11885
1
1.11857
0.894983
1
1
0.888882
0.943253
0.888908
1
1
1
1
1.11834
0.886858
1
0.889774
1
1.11923
1
1
0.981455
1
1
0.94664
0.99991
1.00001
1
0.890176
0.893944
1
1
1
1
0.939247
1.11815
1.11961
1
0.889484
0.888945
0.974335
0.89423
1
0.949251
1
0.889272
0.996709
1
1
0.892853
1
1.11852
1.11474
0.890071
1
1
1
1.11822
1
1.01438
0.953047
1.04135
0.894053
1.05101
0.888549
1
1
0.911648
0.97513
1
1.01371
1
1
0.888937
1
0.983878
1.01523
0.890006
1
1.09791
0.924736
0.964741
1
1
1
0.894226
1
0.889903
0.889848
1
0.955851
0.889727
1.02023
0.921265
0.885457
1.11858
1
1.11856
1.06874
0.915253
1.11856
0.889181
0.99972
1.11959
1
1
1.11831
1
0.914497
1
1.02011
1
1
1.1186
1
0.929171
0.947076
1.12051
0.983618
1
0.927092
1.11853
1.11952
0.974718
1
1.11854
1.03482
0.957045
1
1.00623
1
0.894263
1.05352
0.930095
0.920857
1
1
0.894956
1.1185
0.990273
0.890863
0.886413
0.960891
1
1.00591
1.11963
1.11865
1
1
1
0.89132
1.05971
0.999998
1.11827
1.11089
0.888775
1
1.02784
0.96385
1.07236
1.10278
1
1.01374
1
1.00002
0.885145
0.955687
1
1
0.945503
0.885164
1.01264
1
1
0.885323
1.05766
1
1.11929
1
1.01235
1.06758
1
1.1185
1
1
1.11875
1
0.885128
1.11965
0.904547
1.03306
1
0.892611
0.999975
1
1.00001
1
0.936206
1.00774
0.890647
1.09155
1.11999
0.883089
1
1
1
1
1
0.990548
0.888882
1.0137
0.890508
0.890018
1.02289
1
0.999944
1.03365
1
1
0.888142
0.999453
1
1
1.03766
1
1.11965
1
1.11948
1.02665
1.00817
0.890833
1
1
0.888814
1
1
1
1
1.11845
1.01251
0.999446
1
0.884711
1.01511
1
1
1.08068
1
0.888588
1.11872
1
1
1
1.11883
0.888859
0.968291
0.88493
1.09226
1.11844
1
1
1.11858
1
0.885029
1
1
1
1
1
0.929539
1
1.11876
1
1
1.0451
1.11956
0.889431
0.962472
1
1.11859
1
1
1
1
1
1.11857
1.11965
0.885634
1.11862
0.883135
1
1
1.11858
1
1.11977
1.00262
1.00788
1.01942
1.11864
1.02041
1.08371
0.884627
1
0.885512
0.996806
1
1.11848
1
1
0.885525
1.1189
1
1.1195
1
1
1
1
1
1
0.890805
1.11961
0.955704
1.11858
1
0.889355
0.888593
0.913878
1.12
1.11852
0.99292
1
0.938714
1
1.0495
1
1.11874
0.88478
0.890229
0.95623
1
1.11861
1
1.02312
0.894178
1
1.12025
1.1099
0.999673
1
1.11865
0.889622
1.11904
1.1185
1.11949
0.891899
1.02585
1
1
0.884031
1
0.942398
0.949986
1
1.00001
1.11862
1
1.11922
1.026
1
1.01256
1.1203
1
0.888981
1
0.928639
1
1
1.09951
1
0.941181
1
0.896838
1.01079
0.987689
0.885982
1.11838
1.0971
1.1198
0.891117
0.905269
0.998786
1
1
0.900795
1.11251
0.890322
0.999991
1
1.11859
1.11921
0.973162
1
0.889929
0.909633
1.08245
0.996061
0.88429
1
0.889381
1.03375
0.893375
1
1.00002
0.944817
1.11992
1.11856
0.953817
0.999884
1
1
0.912459
1
0.889496
1
0.887725
0.890137
1
1
1.00001
0.894447
1.11858
1
1
1.00002
1.00001
0.89077
1.11866
1.11861
1
0.890325
1.12019
1
1.02842
1
1
1.11822
0.887169
1
1
0.888836
0.921831
0.890301
0.88907
1
0.902259
0.999205
1.02928
0.885224
1
1
1.03697
1
1.10631
1
1
1.08578
0.898395
1
0.889025
1.03585
1.11869
1
1
0.894399
0.889112
0.88343
0.917941
0.888851
1.09129
0.99983
1
1
1
1
1.11874
0.888732
1
0.981609
0.999907
0.999588
0.999983
0.92551
1.03634
1
1.11856
1.11866
1
1
1.11459
1.00001
1
1.11856
0.891849
1.11708
1
0.88448
1.11864
1.00002
1
0.948999
1
0.885076
1
1.11935
1
1
1.11934
1
1
1.11908
1
1
1
1.12043
1
0.9224
0.911907
1
0.883619
1.11851
1
1
0.995056
1
1.11919
1.07193
1.09766
1
1
0.890113
1
0.888816
1.11868
1.12006
1.11869
1
1.11974
0.890179
1
0.889065
1.0976
1.11074
1.11874
1.11889
0.927374
0.886754
1
1.08346
1.11938
1.11949
1.11856
0.923346
1.0466
1
1.09227
0.92339
1
1
1
1.00001
0.970209
1
1.11848
1
1
1
1
1
1
1.00002
1.11805
1
1.11949
1.09064
0.889472
1.12005
1.00889
1.06314
1
1.11856
1
0.88993
1
1
1
1
1.10281
1
0.884853
1.11855
0.882221
1.11853
1.09712
1.06528
1
1.02425
1.05929
0.998798
0.889701
0.931383
1.00001
1
0.977793
1
0.885936
1.11925
0.885215
0.979975
0.95698
1
1
1
1.00379
1
1
0.889796
0.99891
1.11989
1
1.1186
1
0.890727
1
1
1.11857
1.11834
0.885727
1
1.11911
1
0.943487
0.886545
1.119
1.10762
1
1.02199
1.11863
0.999619
1
1.05346
1.10557
1.11881
0.998854
1
0.999999
1.10232
1
1
1
1.11859
0.999574
1
1
1.11861
1
1
0.89178
1
1
1
1.11904
1
1
0.958804
1.04024
1.10892
0.930879
1
1.11854
1
1.04321
1
1.11914
0.999205
1.11865
1
0.889363
1
1.0872
1
1
1.1114
1
1.11864
1
1.11908
0.904195
0.892215
1.1192
1
1.10201
1
1.11943
1
1
1.00001
1.11878
1.1189
1.03519
1.11841
0.998838
0.888951
1.11869
0.962578
1
1.11657
1
1.11859
1
1.11907
1.11951
0.998959
0.888302
1
1.11857
1
1.00896
1
1
0.999412
0.920496
1.10705
1
1.10895
1
0.96345
0.884893
1.11835
1.11868
0.902962
1
1.11864
1.11951
1.11885
0.898153
1.11854
0.894887
1.11909
1.11797
1
1
1.11858
1
1
1
1
0.89005
1
1
1.11954
1.11858
1
1.11862
1
1.12024
1.11994
1
1.10068
1
0.883598
1.1186
1.09086
1.03828
0.882144
1.11859
1
1
0.887413
1
1
1.11849
1
1
0.93306
1
1.11864
1.00003
1.11846
0.886294
1.11988
1
1.11856
1.11444
0.970393
1
1.11879
0.926951
1.11934
1.0863
1.11854
1.11857
0.999206
1.12001
1.11859
1.11864
1.11859
1.00019
1
0.888778
1
1.11986
0.950672
1.10925
1
1.11664
1
1
1
1
1
1.11797
0.88656
0.889279
1.11892
1.11852
1
1
1
1
1
1.11781
1.10822
1.11866
1.00558
1
1
1
1.00001
1.1183
1.11851
1
1.11913
1.11964
0.894407
1.08612
1
1.11861
1.11957
1.11779
0.999374
1.11867
1.11855
1
1.11004
1
1
1
1
1
1
1.11853
1.12014
1.11119
1.11861
0.887859
0.905413
1.11852
1.11866
1
0.887299
0.983706
1
1.06081
0.885395
1
0.999845
0.999509
0.88951
1
1.11873
1
1
1
1.11928
0.98697
1
1.11854
1.11856
1
1.11884
1
1
1.11856
1
0.888761
1
1.11842
1
1
0.892957
1
1.11843
1
0.885047
0.886646
1
1.11402
1
0.884298
0.969111
1
1.11864
1
1
1
1.11963
1
0.890935
1.01792
1.11916
1.11889
1.11859
1.0131
1.11898
1.11848
1
1
1
1
1
1.11859
1
0.999804
1.11847
1
0.883095
1
1.11855
1.05895
1.01882
1.05876
1.01922
1.11902
0.907338
1.11857
1
0.890668
0.999183
1.11854
0.982175
1.11859
1.11861
1.11443
1
1.11928
1.11858
1.11857
1
1.00001
1
1
1.11922
1.08737
1
1
0.889584
0.999062
1
1.11872
1
1.1185
1.11865
1.11856
0.972855
1.11868
1.11873
1.00304
1.06093
1.11972
1.11865
1
1.11049
0.950191
1.11545
0.997139
1.11871
1
1.11851
1.11861
1
0.89286
0.982344
0.905963
1
1.02498
0.999078
1.1192
1
1
0.999064
1
1.06251
1.1133
1
1
1.11849
1
1
1.08725
1.11866
1.11427
1.11861
1.11859
1
1.11871
0.917036
1.11881
1
0.999532
0.892208
1
1
0.922372
1
1.04015
1
1.11897
1
1.11658
1.07815
0.8895
1
1
1
1
1
1.11861
1.00334
1
1.11921
1
1.11862
1.11859
1
1
0.993201
0.999956
0.884188
0.885108
0.914917
1.02546
1
0.999551
0.889887
1.00001
1
1.11854
0.98166
1.11139
1.10528
1
1
1
1
1
1.11854
1.1187
1
1.11864
1
1.12003
1.08266
0.998917
1
1
1
1.07174
1
0.988243
1
1.11832
1
1
1.11849
1
1
1
1
1
1.11883
0.885259
0.998832
1.10752
1.11851
1
1.11856
1
1
1
1
0.90047
1
1.11865
1.11857
1.11857
1.12008
0.988285
1
1.10215
1.03187
1.1197
1.11924