/*--------------------------------*- C++ -*----------------------------------*\
  =========                 |
  \\      /  F ield         | OpenFOAM: The Open Source CFD Toolbox
   \\    /   O peration     | Website:  https://openfoam.org
    \\  /    A nd           | Version:  12
     \\/     M anipulation  |
\*---------------------------------------------------------------------------*/
FoamFile
{
    format      ascii;
    class       surfaceScalarField;
    location    "1.42";
    object      phi;
}
// * * * * * * * * * * * * * * * * * * * * * * * * * * * * * * * * * * * * * //

dimensions      [1 0 -1 0 0 0 0];

internalField   nonuniform List<scalar> 
33852
(
0.000251329
2.24281e-05
-0.000273757
-0.000246121
1.32441e-05
0.000232877
-0.000174703
-7.08876e-05
0.000246289
0.000304053
-0.000163969
-0.000140085
0.000288146
-4.34817e-05
-0.000244516
2.72441e-05
-0.000260681
0.000233437
0.000315097
1.48173e-05
-0.000330074
0.000304277
-9.59564e-05
-0.000208321
0.000286413
-3.50841e-05
0.000200509
1.50462e-06
-0.000206544
0.000289418
-0.000366443
7.7013e-05
0.000360861
-4.57712e-05
-4.39602e-05
0.000263285
-0.000219325
-4.38691e-05
0.000318369
-0.000274283
6.01735e-05
-0.000238333
0.000252057
1.2236e-05
-0.000264293
0.000264853
-1.2796e-05
-0.000278433
3.23121e-05
0.000340775
-5.1173e-05
0.000158593
0.000112308
-0.000270901
-2.4274e-05
0.000303376
-0.000279151
0.000271377
-0.000276165
4.78802e-06
-1.77786e-05
0.000275439
-0.000257736
-0.000220326
1.43135e-05
0.000205865
-0.000153083
-0.000183467
0.000337154
-0.000148942
-7.2992e-05
0.000219985
3.72401e-05
0.000267037
-6.14013e-05
-0.000263654
0.000324327
-0.000214325
1.85305e-06
0.000209722
-0.000203086
-1.90023e-05
0.000142045
0.000137388
-0.000279433
0.00034157
1.9386e-05
0.000142618
0.000128347
-0.000270965
-0.000101136
0.000259729
-0.000250489
-3.78001e-06
0.000254269
0.000330697
-5.96259e-05
-0.000271051
-0.000356658
0.000203424
-0.00022785
0.000210026
0.000231645
3.32081e-05
-5.65602e-06
0.000237301
-7.99321e-06
0.00020489
-0.000232625
0.000259869
0.000311564
-5.57705e-05
-0.000255663
-0.000309093
5.51042e-05
0.000253989
0.000240436
-0.000302335
0.000273589
-0.000306321
3.27321e-05
-0.000180237
-5.49362e-05
0.000235173
0.000272133
-0.000272133
0.000148429
-0.000297473
0.000149045
-0.000210139
0.000217477
-7.14561e-06
-0.000268241
0.000237301
3.09401e-05
-0.000199216
0.000245157
-4.72428e-05
-9.16164e-05
-0.000217477
-0.000114461
-0.000251966
-0.000280169
0.000266113
1.40561e-05
0.000330012
1.18934e-05
-0.000250433
7.01963e-05
0.000117908
0.000145909
-0.000263817
1.34681e-05
-0.000267457
0.000253989
-0.000134569
0.000282997
-0.000144278
-4.827e-05
0.000185094
-0.000274681
0.000245113
2.95681e-05
0.000237553
-0.000268437
3.08841e-05
-0.000189073
-2.41512e-05
0.000151665
0.000115565
-0.00026723
-0.000189322
-2.84553e-05
0.00021757
0.000263985
2.24281e-05
0.000275941
-2.35201e-06
0.000265329
-0.000250741
-1.45881e-05
0.000223234
-6.53734e-05
-0.000170659
-1.82001e-06
0.000239373
0.000366792
-0.000312842
-5.39409e-05
-2.75683e-05
0.000304866
-0.000274533
-0.000101584
0.000219493
0.00034257
2.422e-05
-0.000371947
0.000353894
1.82451e-05
-0.000211559
2.24379e-05
0.000308372
-0.000320293
1.21947e-05
-0.000207548
0.000271169
-6.37728e-05
-4.45202e-06
1.70126e-05
-0.000318547
0.000301617
0.000234171
-0.000199153
-3.50582e-05
0.000270299
-0.000340843
7.0279e-05
0.000332536
-6.35013e-05
-0.000268941
0.000236573
3.23681e-05
-0.000129388
-0.000132609
0.000261997
-1.86761e-05
-0.000249565
-1.022e-05
-0.000258721
2.33331e-05
0.000206737
-0.000232785
3.14516e-05
-0.000230497
0.000189983
-2.50949e-05
0.000328716
-0.000302874
-0.000279329
0.000273701
5.62802e-06
0.000156129
-0.000296857
0.000140729
-6.19243e-05
-0.000153931
0.00022092
0.000143277
0.0001218
-0.000265077
-0.000250075
0.00022559
-0.0002166
0.00016323
-0.000168813
0.000327181
-0.000158369
0.000185389
7.16523e-05
-0.000257041
0.000255193
2.07481e-05
-0.000192277
0.000148317
5.01637e-05
0.000265997
0.000306661
-0.000289471
9.48897e-05
-0.000243958
0.000135241
0.000117096
-0.000281065
-1.86313e-06
0.000250024
-0.000247408
0.000166489
0.000122836
-0.000289325
0.000144043
8.98438e-05
-3.92002e-06
0.000259113
0.000304025
5.48915e-06
-0.000324438
0.000315298
8.90763e-06
-3.99002e-05
0.000236293
-0.000196393
4.08802e-06
-0.000284257
-2.5509e-05
0.000166356
-0.000141718
-0.000159505
0.000133236
0.000208693
-0.000184565
-0.000269921
0.000264965
4.95602e-06
2.64041e-05
0.000174721
-0.000201125
2.87841e-05
-0.000257265
0.000228481
0.000276137
-0.000262669
0.000115108
0.000212073
0.000212113
-0.000192141
-0.000175813
0.000202217
1.36313e-05
0.000283285
-0.00029672
0.000269169
2.25315e-05
0.000270893
-0.000282946
1.22997e-05
3.86402e-06
0.000267513
-1.79883e-05
0.000289538
0.000331134
9.91522e-06
0.000213981
-0.000257833
0.000315993
-0.000316538
-6.63603e-06
-0.000272693
2.7218e-05
0.000188407
0.000187993
3.98722e-05
-0.000227865
-5.44392e-05
0.000223772
-0.000158902
0.000153609
-0.000270285
0.000116676
0.000279441
-0.000329701
5.02602e-05
-6.38122e-05
0.000249201
-0.000166909
0.000315897
-0.000148989
-0.000314442
-1.0026e-05
-0.000214929
0.000175029
2.78601e-05
-0.000278349
0.000276221
-1.88441e-05
-0.000248613
1.71743e-05
-0.000302496
0.000285303
0.000344989
-0.000158593
-0.000186397
-1.67878e-05
-0.000240266
0.000257624
-0.000266617
-3.30401e-06
0.000224001
2.45841e-05
-0.000248585
0.000284509
-0.000128381
0.000140197
0.000138853
-0.000279049
-0.00019923
-1.08239e-05
0.000258169
-0.000115551
0.000225936
-0.000242548
-6.38122e-05
0.000251805
-0.000207792
0.000249481
-5.60002e-07
-0.000248921
0.000255109
-0.000237441
-0.000324895
0.00030057
-3.08841e-05
0.000203169
-0.000172285
0.000291881
1.2481e-06
-0.000293139
7.34948e-05
0.000126915
-0.000204524
4.48703e-05
-0.000208091
-0.000289082
-4.57257e-06
0.000293685
-1.60102e-06
-0.000287581
0.000146973
-0.000273925
0.000126952
-0.000258719
0.000217843
-0.000290424
0.000265189
0.000279441
-0.00031317
-1.24053e-05
0.000325305
0.000110321
0.000160826
-2.14046e-05
0.000352216
0.000140141
0.000139833
-0.000279973
0.000245029
-0.000250349
5.32002e-06
-0.000210953
0.000180069
0.000279133
-5.43202e-06
0.000351141
-3.25608e-05
-0.000301283
0.000305186
-1.68493e-06
0.000270985
-0.000270985
-0.000364543
0.000225847
0.000138731
-0.000204604
1.98506e-05
1.6899e-05
0.000275157
-0.000278461
3.30401e-06
-5.2882e-06
0.000173165
-0.000169336
-0.000197345
0.000254801
-5.74562e-05
-0.000205454
4.7515e-06
-0.00025102
0.000164784
8.33209e-05
-0.000180264
0.000261399
-8.11347e-05
0.000256285
-0.000287113
3.08281e-05
-0.000249229
5.18842e-05
-2.34679e-05
0.000276331
-0.000252765
-0.000253547
1.35801e-06
0.000252189
0.000231281
-7.28003e-06
-0.000294356
7.58714e-06
0.000286753
-0.000266085
0.000266085
-0.000285336
-5.53834e-05
-0.000170667
-0.000193881
-0.000170985
0.000218638
-4.57613e-05
-1.232e-05
-0.000239177
0.000251497
3.10801e-06
0.000210113
-0.000213221
-0.000185902
-2.27642e-05
0.00020945
7.59483e-06
0.000294508
-0.00030216
-0.000236153
-1.34401e-05
0.000249593
1.50361e-05
-0.000251189
-0.000241025
0.000256061
-0.000301422
0.000309002
0.000256117
7.16803e-06
-0.000173133
-3.25466e-05
0.00020786
-0.000145237
-0.000134765
-0.000244329
0.000240549
0.000298622
-3.97917e-07
-0.000298242
-0.000298846
6.33867e-07
0.000298318
1.93647e-05
0.000181217
0.000163773
7.70044e-05
-0.000257269
-0.000159242
0.000310908
0.000250721
-0.000108677
-0.000235145
-1.83681e-05
0.000253513
-0.000204548
-0.000126833
0.000331312
-6.10402e-06
-0.000229125
0.000235229
-2.17403e-05
-0.000179445
-0.000286381
-8.55451e-05
6.31443e-06
-0.00030066
-0.000212597
0.00032821
-0.000116069
0.000281597
0.000288205
-5.16322e-05
0.000271993
-1.57081e-05
-0.000188024
-1.43022e-05
0.00020216
0.000297799
2.73479e-07
-0.000298034
-0.000269038
-3.3206e-05
-0.000218821
0.000247605
-2.52397e-05
0.000310571
-0.000285285
0.000178853
7.94005e-06
-0.000186473
-3.43529e-05
0.000216512
-0.000301163
0.000275973
0.000291903
5.48278e-06
-0.000298197
0.000157445
0.00011886
-0.000276305
0.000289519
4.67845e-06
-0.000293777
-0.000249507
0.000120421
0.000130909
-0.000281831
0.000295432
0.000302513
-0.000156857
-0.000145657
0.000207005
-0.000203897
-0.000232009
-0.000121156
-0.000155009
-4.06217e-06
-0.000294009
0.000298065
-1.0136e-05
0.000276249
0.000292016
-2.04587e-05
-0.000270481
-0.000262976
2.90539e-05
0.000233904
0.000271433
-0.000267569
0.000249621
2.95121e-05
0.000314807
-9.74104e-06
-0.000305201
4.88705e-05
0.000157664
-0.000196577
-9.547e-05
0.000188547
-9.26739e-05
0.000252617
-2.91201e-05
-0.000223497
2.30749e-07
0.000291302
-0.000183413
-3.1785e-05
0.000215158
-1.79855e-06
0.000291677
-9.33244e-05
0.000246933
-0.000255417
-5.26402e-06
0.000121184
0.000181329
1.34121e-05
0.000241557
-0.000254969
0.000236097
1.34961e-05
-0.000249593
0.000249509
-0.000242929
0.000256425
6.30664e-05
-0.000200251
0.000137372
-0.000208409
0.000111393
-0.000203859
0.000297272
1.38379e-06
-0.000298731
0.000253849
2.22881e-05
0.000268493
-0.000216441
-5.20522e-05
0.000225518
-0.000246849
2.13305e-05
0.000257909
1.40841e-05
5.84887e-05
0.000295573
0.000267186
-3.89594e-05
-0.000228226
0.000173992
1.274e-05
0.000240297
-0.000253037
0.000194723
-0.000114011
-8.02841e-05
-0.000206767
2.1614e-05
-1.38104e-06
-0.000298167
0.000299242
0.000223383
-0.000168745
-5.29658e-05
0.000344727
-4.13948e-05
0.000275969
-0.000135829
2.31561e-05
0.000238337
-0.000261493
-0.000231141
0.000254297
-2.66808e-05
-0.000229736
0.000256432
0.000158371
-0.000164822
-7.52884e-05
-0.000167447
-0.000261723
4.14346e-05
0.000220288
-3.17521e-05
-0.00022997
7.01973e-06
0.000261717
-3.25193e-05
-0.000229198
1.6758e-05
0.000128723
-0.000199378
0.000308785
-0.000171397
0.000262319
-3.57923e-05
-0.000226526
-0.000318604
0.000170958
-9.73069e-05
-0.000228453
-6.90203e-05
-1.02955e-06
-0.000297443
0.000297865
-2.83264e-05
0.000177583
-0.000163922
0.000307915
6.83755e-06
0.000250097
-0.000248249
-1.84801e-06
-0.00017515
6.16962e-05
0.000260269
-3.07274e-05
-0.000229532
0.000197345
-0.000250769
5.34242e-05
0.000254205
-0.000231206
-2.29992e-05
-0.000252337
0.000240017
0.000144061
0.000101135
-0.000101864
-0.000170269
0.000132496
-0.000261885
-0.000290249
0.0002422
4.80483e-05
0.000216809
3.12474e-05
-0.000248056
-0.000235716
-9.18654e-06
0.000248527
0.000328884
-2.2698e-05
0.000263996
-3.42721e-05
-0.000229724
0.000141969
-0.00023279
9.03761e-05
3.63259e-05
-0.000265637
0.000229311
-0.000253905
0.000121296
0.000249817
-5.24722e-05
0.000294673
-0.000154253
-0.000140421
0.000122248
-0.000289157
1.53441e-05
0.000237665
-0.000253009
-0.000262031
3.54705e-05
0.00022656
-2.82106e-06
-3.77917e-05
-0.000224239
0.000249143
-0.000272711
-0.000264649
3.44737e-05
0.000230175
0.000193257
0.000101416
-0.000149941
0.000290137
-0.000174643
-3.82081e-05
0.00020971
-1.81721e-05
0.000263201
-0.000292945
0.000310077
0.00011856
0.000104831
0.000261325
-0.000261325
0.000310326
-2.13885e-05
-0.00029037
5.32002e-07
0.000248949
0.000254857
1.65761e-05
0.000309331
-0.000276265
-3.32299e-05
-2.26336e-05
0.000266577
-0.000243943
3.00077e-05
-0.000260519
0.000230511
-0.000252139
0.000229506
0.000329072
3.11501e-05
-0.000260598
0.000229447
0.000276809
-3.16961e-05
-5.12231e-06
-0.000297663
0.000301794
0.000270619
3.86678e-05
0.000230245
-0.000266617
3.63721e-05
0.000204684
-0.000205134
-0.000258301
0.000238533
1.97681e-05
0.000169762
-0.000257245
8.74835e-05
-0.000198387
0.000163241
-0.000249145
8.59043e-05
-0.000266169
0.000224813
4.13562e-05
0.000253073
-2.78797e-05
-0.000225194
0.000183181
4.42271e-05
-0.000234837
-2.29601e-05
0.000257797
-0.000236377
-2.28761e-05
0.000259253
-1.94265e-05
0.000255969
-0.000236542
-0.000259345
0.000239919
-3.32346e-05
0.000174617
-0.000235929
-2.24001e-05
0.000258329
-0.00025484
0.000229192
2.56481e-05
2.94001e-06
0.000211289
-0.000214229
-0.000267031
3.79849e-05
0.000229046
0.000270677
4.48002e-06
4.31208e-05
0.000171765
-0.00020765
-3.31197e-05
0.000249928
-2.09586e-05
0.000218597
9.73004e-05
0.000248202
-0.000216954
0.000277473
-0.000279097
0.000277248
-0.000281859
-1.84997e-05
0.000258601
-0.000240101
-0.000261644
0.000243145
2.99244e-05
-0.000200699
-2.92064e-05
-0.000202649
0.000238596
0.000315592
-0.000287663
-2.74996e-05
0.000261297
-3.11081e-05
-0.000230189
3.28739e-05
-0.000262362
0.000229488
-0.000229853
0.000259645
-2.97921e-05
0.000325568
-1.76427e-05
0.000147149
-0.000225291
0.000256929
-0.000109956
-0.000286334
0.000287647
0.000241977
-6.41202e-06
-0.000235565
0.000228537
-0.000180818
-3.72395e-05
0.000221636
2.84438e-05
-0.000206097
-0.000239989
0.000260317
-2.03281e-05
-0.000104568
0.00019175
-8.63714e-05
3.04066e-05
-0.000205021
0.000240169
-0.000263424
2.32552e-05
-0.000115584
0.000258861
-0.000243993
0.000265721
-2.17281e-05
-0.000238953
0.000232541
0.000258626
-0.000245105
-1.35213e-05
0.000264349
-2.46681e-05
-0.000246317
-0.000272654
-1.04465e-05
0.000300451
-5.36357e-05
-9.48471e-06
0.000291654
-0.00028253
-0.000167789
0.000216592
0.000228279
1.80555e-05
-0.000245826
0.000329427
-0.000329244
0.000260955
-0.000245018
-1.59377e-05
-0.000301778
-6.61825e-07
0.000305958
9.74436e-06
3.74908e-05
0.000170787
-0.000206008
0.000214709
-3.46723e-05
-0.000174149
0.000278054
-0.000255789
-2.22648e-05
-0.000213062
3.18878e-05
3.15421e-05
-0.000261891
0.000230348
0.000285146
-0.000291212
2.44721e-05
-0.000259617
-0.000257965
1.87881e-05
0.000266057
-1.64361e-05
0.000151173
-0.000267625
0.000116452
0.000298925
-4.45082e-06
0.000238617
-7.53763e-05
2.12521e-05
0.000177045
-0.000198297
-0.000183877
0.000205129
-0.000236275
0.000257219
-2.09441e-05
0.000261462
-3.31689e-05
-0.000228293
-0.000197009
-5.21362e-05
0.000251581
-1.48401e-06
8.60222e-06
-0.000266752
0.000256618
-0.000343546
0.000236931
0.000106758
0.000266371
-0.000236811
-2.95597e-05
0.000306799
-0.000314673
7.84522e-06
-2.57041e-05
-0.000229097
0.000254801
0.000261493
-7.64403e-06
9.92816e-06
-0.000208701
0.000262411
-3.19033e-05
-0.000230508
-6.90483e-05
-0.000260653
-0.000194685
0.000248025
-5.33402e-05
-0.000266533
0.000249985
1.65481e-05
-0.000318122
1.67039e-05
-1.72957e-05
0.000299525
-0.000277985
-0.000276221
1.65481e-05
0.000249537
-0.000167076
6.46174e-05
0.00027388
1.47899e-05
-0.000288658
-0.000316112
0.000307889
8.23509e-06
3.46641e-05
-0.000263649
0.000228985
-1.7495e-05
0.000281464
-0.000315208
1.63929e-05
-0.000176541
-7.42283e-05
-0.000232036
0.00020749
-2.16721e-05
-0.000216469
0.000238141
-0.000314755
0.000295905
1.88717e-05
-0.000130953
0.000278196
-0.000141147
-8.40313e-06
3.31521e-05
-0.000263453
0.000230301
-0.00020186
2.48769e-05
0.000182792
0.000221525
0.000279987
-0.00028022
2.85678e-07
-0.000236993
-2.20921e-05
0.000224813
-0.000202721
0.000139273
0.000143753
-0.000278517
0.000200236
-5.6599e-05
0.000308336
-1.05851e-05
0.000209312
-0.000268879
2.92853e-05
0.00022306
-0.000252345
-0.000321051
0.000138739
0.000296444
2.92093e-05
1.94755e-05
-0.000224355
-2.77845e-05
-0.000137762
-0.00013274
-0.000326587
0.000113377
0.000242873
2.56201e-05
0.000218765
-0.000224869
1.0946e-05
-0.000291637
0.00027439
-0.00024259
0.000269891
-2.73436e-05
0.000281452
-0.000281878
0.000283657
-7.65899e-05
-8.88699e-06
0.000290313
-1.87881e-05
0.000247101
-0.000228313
0.000281544
-0.000290409
-5.64515e-06
-0.000284057
0.000289633
0.000282202
-0.000269874
0.000284724
0.000226314
2.67597e-05
-0.000309003
0.000317083
-9.13855e-06
0.000249788
-2.10573e-05
0.00022738
2.43949e-05
-0.000268913
0.000246057
-2.05381e-05
-0.000259401
3.02849e-05
0.000229116
0.000178305
7.64963e-05
1.03261e-05
0.000281665
-0.000290893
-0.000238141
-2.88401e-05
0.000266981
2.51441e-05
-0.000263285
0.000284117
-0.000162317
-0.000232177
0.000261129
-2.89521e-05
-0.000234697
0.000260709
-2.60121e-05
1.40155e-06
0.00027881
2.45001e-05
-0.000259197
2.38001e-05
-0.000255977
0.000274242
-0.000242895
-3.13623e-05
0.000317932
-9.99116e-06
-0.000309375
-1.78279e-06
-0.000255753
1.1816e-05
0.000243937
-1.54752e-05
-0.000261185
0.000228065
-0.000245337
0.000270145
-2.48081e-05
-0.000263229
1.49801e-05
-2.36207e-05
0.000286096
-0.000262381
2.13641e-05
-0.000266701
-0.000241653
-2.13378e-05
3.26659e-05
-9.0432e-05
0.000260194
0.000280844
-0.000286497
5.05122e-05
0.000237693
0.000281994
-0.000281276
-0.000243181
-2.39401e-05
0.000267121
-0.000260894
7.34723e-06
-0.000292818
1.81451e-05
0.000270789
-0.000268717
2.55361e-05
-7.99239e-06
0.000290512
-0.000268326
0.000243549
2.47773e-05
-0.000232513
0.000210841
0.000279431
-0.00028741
-6.16002e-07
0.000260289
-0.000259673
-0.000302
-1.61237e-05
-0.000264573
2.35481e-05
-0.00024417
-2.41556e-05
-3.43281e-05
-0.000298003
0.000293964
0.000286674
-0.000158327
0.000296658
-0.000290882
2.30152e-05
4.89688e-06
0.000262501
-0.000255314
-7.15033e-06
0.000307635
-2.02548e-05
-0.000287377
5.92839e-05
-0.000246765
-2.19521e-05
-0.00035617
0.000241711
0.000283683
-0.000278246
2.33801e-05
-0.000190175
-1.62262e-05
-0.000305919
2.5902e-05
0.000282459
-0.000197424
0.000311198
-0.00011391
0.000259841
-0.000238533
-2.13081e-05
-0.000291675
2.94001e-05
0.000222097
-0.000251497
-0.000156602
0.000131737
-0.000172331
0.000251441
-0.000238029
-1.34121e-05
-0.000263873
3.40201e-05
-2.23161e-05
-0.000269837
0.000251469
0.000230427
3.12901e-05
-4.83899e-05
0.000215538
0.000232619
-0.000260499
-1.74398e-05
-3.01326e-06
0.000245146
-0.000244125
-0.000293353
-0.000237049
0.000265189
-2.81401e-05
0.000230096
3.22225e-05
-0.000268521
2.55921e-05
-0.000239905
-2.86161e-05
0.000228954
-0.000260706
-0.0002827
4.73202e-05
-0.000242005
0.000294426
-0.000283895
-0.000291772
1.36512e-05
0.000279913
-4.34774e-06
0.000221703
0.000228551
-0.00026107
0.000296885
-0.0001309
-0.000165985
0.000240836
-0.000262059
0.000269041
-0.000226213
-1.76681e-05
-0.000163204
0.000302513
-0.000141163
2.49649e-05
0.000222662
-0.000247627
-0.000193013
0.000193546
-0.000283622
0.000282216
6.87204e-06
-0.000290512
-0.000302485
0.000146693
0.000155793
0.000259995
-0.000239359
-2.06361e-05
-0.000215741
0.000193649
0.00026207
3.59521e-07
0.000257293
0.000232526
2.16797e-05
-0.000294952
-6.25424e-05
1.02231e-05
0.000234007
-0.000252508
1.72296e-05
-0.000230917
-2.37161e-05
0.000254633
-0.000242295
0.000263191
-2.08965e-05
8.27415e-05
0.000134613
1.95863e-05
-0.000302283
0.000283628
0.000256565
-1.80041e-05
-0.000238561
0.000243881
-0.000254017
1.0136e-05
-0.000226745
0.000207957
0.000223131
-0.000258923
-0.000244693
4.76842e-05
1.59501e-05
-0.000137671
-0.000218498
1.57921e-05
0.000245701
0.000279684
0.000294974
0.000305877
1.72393e-06
0.000249817
-0.000220417
2.51749e-05
0.000225009
-0.000250184
-0.000243178
0.000268865
-2.56873e-05
2.28201e-05
-0.000262725
-0.000120244
0.000296777
9.14402e-06
2.08181e-05
0.000261675
-0.000235103
-2.65721e-05
1.33765e-05
-0.000304263
0.000292605
0.000321728
-3.06068e-05
-0.000290126
0.000249733
1.63241e-05
0.000307704
-0.0002935
-0.000230526
-0.000112446
9.63204e-06
0.000250657
-4.9129e-05
-0.00020239
0.000251519
2.20333e-05
0.000246832
-0.000241686
-2.29629e-05
0.000260737
-2.24001e-05
0.000287787
-0.000268023
2.63369e-05
2.68241e-05
-0.000257965
0.000210617
-0.000207677
2.58161e-05
-0.000262865
0.000281144
0.000121744
-0.000256173
0.000134429
1.86071e-05
3.88638e-05
0.000164729
-0.000206583
-0.000239485
-2.85377e-05
3.91278e-05
0.000163333
-0.000195204
-0.000246691
0.000271066
-2.43747e-05
0.000209866
-0.000248826
1.98857e-05
1.73409e-05
-0.000174936
-3.03143e-05
0.000226688
-0.000257414
-2.88401e-05
0.000244245
-0.000215405
-2.16161e-05
0.000242985
-0.000221369
0.000201657
-0.000250786
-0.000273646
-0.000232905
-2.55081e-05
0.000258413
0.000241234
2.98318e-05
-0.000213521
-2.40503e-05
0.000237424
-2.18821e-05
-0.000224967
-0.000239345
6.28042e-05
0.000259004
-0.000229718
4.75106e-05
-0.000249901
-3.43393e-05
0.000257694
-0.000223354
0.000205675
-0.000240014
0.000261689
-1.1956e-05
-6.06763e-05
-0.000229572
-0.000220296
-1.7934e-05
0.000239556
0.000247109
5.3175e-05
0.000212448
-0.000265623
-0.000261092
0.000177353
-0.000231757
5.44042e-05
6.42798e-05
0.000135992
0.000259457
-0.000240915
-2.47224e-05
-0.000265385
0.000227165
3.82201e-05
-2.87813e-05
-0.000222158
0.00025094
-0.000287922
0.000264161
0.000234501
3.61761e-05
2.18821e-05
0.000234087
-0.000307217
0.000151089
0.000156129
0.000169963
-5.35841e-05
0.000254045
-0.000115192
2.56901e-05
0.000217446
-0.000243136
-0.000284277
0.000287034
9.20642e-06
0.000257377
-0.000245953
0.000208937
3.70161e-05
0.000254832
0.000247966
-1.93029e-05
-0.000246815
-2.02161e-05
-0.000263019
2.0724e-05
-0.000269215
2.24001e-05
2.79601e-05
0.000220024
-0.000247984
0.000242481
-0.000274597
1.32721e-05
0.000245039
-1.41119e-05
1.33653e-05
-0.000246254
-0.000328515
0.000123976
-0.000233135
-2.62109e-05
-0.000252113
0.000252113
0.000259782
-0.000144217
-1.85249e-05
-0.000279586
0.000297276
0.000271907
0.000258749
-0.000135913
0.000224113
2.39205e-05
0.00023468
7.8486e-05
-0.000342276
3.77551e-05
0.000258962
1.76364e-05
-0.000248843
-3.00917e-05
0.000207453
-3.01001e-05
0.000259701
2.95429e-05
0.000218353
-0.000247896
-3.05014e-05
-4.09782e-05
-0.000217818
0.000258797
-0.000233423
-2.14173e-05
3.71606e-05
-0.000200473
0.000163196
-3.30877e-05
0.000221671
-0.000255943
-0.00028174
-8.57739e-06
0.000290306
-0.00019927
0.000168929
0.000166349
8.16763e-05
1.28097e-05
-0.000294805
0.000235075
2.59446e-05
-0.000261019
-0.000197954
-1.35119e-06
0.000232743
-0.000264287
3.15449e-05
-8.42803e-06
-0.000217029
0.000225457
-0.000166369
0.000204623
-0.000249985
-3.46025e-05
0.000256274
0.000218076
-0.000252679
-0.000246289
0.000272245
-2.59561e-05
0.000253547
2.78321e-05
-0.000232062
-2.95821e-05
-0.000298979
0.000316956
-1.82896e-05
2.32967e-05
0.000212462
-0.000250254
-0.000267233
2.09441e-05
-2.12801e-05
-0.000245953
-3.61481e-05
0.00024861
-0.000288597
-1.32657e-05
0.00022082
-0.000256968
0.000248058
-0.000252289
1.71101e-06
2.80002e-06
0.000181413
-0.000184213
0.000255294
0.000234529
2.67681e-05
-2.62361e-05
0.000245001
-0.000218765
3.36001e-05
0.000216609
-0.000250209
0.000244861
2.73841e-05
0.000306545
-0.000143949
-0.000162597
1.54253e-05
0.000237867
-0.000256937
0.000271013
-0.000113568
0.000225569
-0.000256677
-0.000241235
0.000104715
-0.000265469
7.16803e-06
-0.000241635
-2.75801e-05
-0.000241361
-2.48081e-05
0.000310686
-2.75231e-05
-7.67483e-05
0.000243097
-1.1452e-05
-0.000215601
0.000224281
-8.68003e-06
0.000255193
-7.68883e-05
3.40783e-05
-0.000198847
0.000162083
-0.000265245
-1.40001e-07
-4.14962e-05
3.95836e-05
0.000159634
-0.0002028
0.000199429
-0.00016582
0.000257041
-7.05603e-06
0.000251151
-0.000218277
-1.82037e-05
-2.1128e-05
0.000265941
-9.48529e-05
-0.00017853
-1.42801e-05
-0.000191913
0.000206193
0.000258665
-1.53553e-05
-0.00024331
1.98101e-05
0.000238855
-0.000284464
-8.81805e-06
3.76048e-05
-0.000196014
0.000161882
1.36921e-05
0.000247997
-0.000160228
0.000200704
-1.95189e-05
0.000248711
3.25433e-05
0.000190753
-0.000219973
-4.17202e-06
-2.49389e-05
0.000265108
-0.000231955
-3.14693e-05
0.000297083
-0.000281838
-1.52485e-05
1.63717e-05
-0.000237659
0.000221288
-0.00010514
0.000226885
1.92705e-05
-0.000305174
0.000285981
2.52001e-05
-2.79441e-05
2.69165e-05
0.000309201
-0.00028969
0.000238891
1.97345e-05
2.15601e-06
0.000231617
-0.000233773
-0.000310409
2.56388e-05
0.00028478
-0.000162177
-0.000144145
0.000209178
-0.000250156
-0.000161525
0.000241924
1.90317e-05
0.0002555
-4.13534e-05
0.000250531
0.000214498
-0.000255851
0.000319417
-0.000318913
-1.05419e-05
0.000283761
-0.000273937
-0.000300917
1.86422e-05
0.000280421
4.20842e-05
-0.000286413
-3.86904e-05
0.000252483
2.62921e-05
-2.25206e-05
0.00030844
-0.000287363
2.43321e-05
3.89734e-05
0.000156617
-0.00019972
0.000249294
-0.000219751
2.83277e-05
-0.000261633
4.36802e-06
-1.99797e-05
0.000306505
-0.000286633
-0.000250987
-0.000266673
3.07441e-05
0.000252141
-0.000236741
-1.54001e-05
1.2264e-05
0.000239877
-0.000274985
-1.27659e-05
0.000255697
-6.76397e-06
0.000316004
-1.21644e-05
0.000297885
-0.000285219
-4.95324e-05
0.000247437
-0.000235621
0.000257601
-1.99361e-05
0.000134412
8.70724e-05
-0.000227717
0.00022224
3.03493e-05
0.000226759
-0.000258662
3.71393e-05
0.000274326
-0.000287673
1.74639e-05
0.000251273
-0.000239093
-1.31321e-05
0.000252225
-2.91201e-05
-0.000257265
2.56481e-05
0.000231617
-0.000228005
-2.92601e-05
0.000259765
-0.000233571
-2.61941e-05
0.000258721
-0.000268737
2.86012e-06
0.000289277
1.23075e-06
-0.000291863
0.000247324
-0.00023314
-1.85921e-05
0.000308811
-0.000300806
-7.99979e-06
0.000232769
-9.74974e-05
-0.000266897
2.56761e-05
0.000241221
-3.48881e-05
-0.000232009
-0.000266393
2.51161e-05
0.000241277
-1.21849e-05
-0.000264769
0.000278827
-3.45241e-05
-0.000231869
-0.000261778
1.92172e-05
-0.000266281
2.43881e-05
0.000241893
-0.000282479
-2.0666e-05
-0.000306375
2.73539e-05
0.000278231
-3.34041e-05
-0.000232877
-0.000169062
-0.000258133
2.94001e-05
0.000228733
0.000309617
-0.000309521
-0.000195805
0.000209049
-3.29281e-05
-0.000225205
0.000197344
-0.000278955
8.15726e-05
0.000285109
2.24548e-05
-0.000301953
1.76961e-05
0.000285589
-0.000280735
-4.85369e-06
-0.000257125
0.000231617
2.55081e-05
0.000173016
2.84397e-05
-0.000200959
-0.000266953
2.81681e-05
0.000238785
-0.000227361
-2.97641e-05
-3.67361e-05
-0.000230217
0.000276336
0.000296825
1.86399e-05
-0.000278473
-3.17088e-05
0.000305201
-0.000258679
-1.08305e-05
0.000297798
-0.000286921
1.49222e-05
-0.000301909
0.000286943
-0.000230609
-0.000307257
0.000287186
0.000263005
-2.54945e-05
-0.000281149
1.36081e-05
0.00016663
0.000231804
1.87283e-05
-0.000250092
-0.00020208
0.000159877
0.000236738
1.31517e-05
-0.00024989
-0.00025833
2.66093e-05
0.000231721
-1.09228e-05
0.000247661
5.74002e-06
0.000246877
-3.19817e-05
-0.000226348
0.000299595
-0.000285796
-1.38784e-05
0.000228024
-0.000226666
0.0002897
0.000237685
1.98521e-05
-0.000257537
-1.24236e-05
0.000250108
0.000246636
1.50389e-05
-0.000302817
1.45913e-05
0.00024448
2.18905e-05
3.20039e-05
-0.000196657
-0.000287461
-1.76589e-05
-0.000182869
0.000295177
-0.000150079
0.000182817
-3.29734e-05
3.0573e-05
-0.000198411
0.000171439
-0.00016326
0.000259149
-0.000239236
-1.99137e-05
0.000262139
-0.00027262
-0.00023939
0.000230801
-2.20053e-05
0.000301349
-0.000279863
0.000307842
-0.000292934
0.000242117
1.77241e-05
-0.000224975
0.00024443
-1.94545e-05
1.61001e-05
-0.000241075
-7.00003e-06
0.000260989
-0.000297101
4.85946e-06
0.00029224
-0.000174497
0.000160217
-1.74105e-05
-6.22758e-06
-0.000290862
-1.67601e-05
-0.000285196
4.28402e-06
-0.000303805
0.000135445
-0.000257469
2.37182e-05
0.000233635
0.000238197
1.32441e-05
-3.08112e-05
-0.000226671
-3.2994e-05
-0.00029055
2.15546e-05
-0.000226421
0.000203519
0.000254969
-0.000233465
-2.15041e-05
-0.000196395
0.000213024
-0.000185228
-7.33859e-06
0.000204236
0.000132805
0.000133394
3.97913e-06
0.000271173
0.000280688
-0.000305938
2.79484e-06
0.000241684
-1.9877e-05
0.000299368
-0.000278693
-0.000302145
0.000287367
1.47729e-05
-0.000258301
0.000230077
2.82241e-05
-2.64041e-05
-0.000231897
0.000299954
-0.000300156
0.000267836
-1.98685e-05
0.000303602
-0.000283985
0.00028616
-4.24963e-07
-0.000256873
0.000256873
-0.000268238
0.000294994
-0.000143946
-6.65034e-05
-7.29245e-06
0.000294384
-0.000287323
-0.00029762
0.000290554
0.000292624
-0.000280215
0.000291576
-0.000306553
1.46971e-05
3.47224e-05
-0.000238893
0.000214346
2.27409e-05
-1.45124e-05
-0.000245397
0.000230907
-1.43162e-05
0.000298653
-0.000284282
0.000263481
-1.96001e-05
0.000254224
-0.000235464
-1.87601e-05
-3.09786e-05
-0.000274097
0.000304512
1.44117e-05
-0.000297275
0.000282784
-1.45881e-05
0.000233465
-0.000218877
0.000216453
-0.000295625
0.000283778
-1.92032e-05
0.000304685
-0.00028539
0.00025102
-2.69393e-05
0.000297141
-0.000270054
-0.000295926
0.000269255
1.07156e-05
0.000244749
-0.000255465
0.000305314
-0.000312051
6.79566e-06
1.78774e-05
1.47652e-05
0.000286139
-0.000301254
6.36391e-06
0.000281962
2.32775e-06
-0.000319272
-0.000290053
0.000304782
-0.000242481
0.000243657
8.45603e-06
-0.0002264
0.000242772
-0.000293461
0.000274284
0.000289551
-0.000150032
-8.20934e-05
0.00029472
1.45127e-05
3.15914e-05
-0.00019897
0.000165108
-0.000274546
0.000257293
-0.000219535
0.00024982
0.000243411
1.92865e-05
-0.000262697
0.000236019
2.31309e-05
-0.000300714
0.000281998
0.000312725
-1.8031e-05
0.000237945
-0.000257069
1.91241e-05
-0.000222494
0.000247459
0.000294445
1.80894e-05
-0.00017122
-1.45977e-05
0.000298438
-0.000283817
-0.000142251
-0.000266415
0.000159993
0.000106423
-0.000307475
0.000293938
1.3079e-05
-0.000258699
0.000241826
1.68729e-05
-0.000156833
0.000155236
-0.000306211
0.000288594
1.77733e-05
-0.000219984
0.000185338
-9.69084e-06
0.000253101
2.04484e-05
1.75784e-05
-0.000304458
0.000286981
-0.000300874
-7.26596e-06
0.000307512
-0.000249229
0.000220109
-0.000201153
-8.52603e-05
-0.000272249
0.000252186
0.000304281
-0.000286521
-0.000191962
1.80694e-05
1.50504e-05
0.000284156
-0.00029927
-8.80603e-05
0.000239233
-0.000303937
1.95123e-05
0.000284298
-0.000208563
-2.78317e-06
-0.000298337
-0.000169606
2.05297e-05
0.000302493
-0.000287651
-1.45567e-05
-0.000168247
-0.000299664
-0.000176095
-2.27753e-05
0.000243528
0.00028937
1.71234e-05
0.000252869
5.76409e-05
-0.000285351
-0.000247213
-0.000268341
-2.23281e-05
-0.000274511
0.000301719
-0.000261405
0.000277814
-0.000159657
-4.04856e-05
0.000201789
0.000197569
1.56521e-05
-0.000213221
-1.24979e-05
-0.000285613
0.000298202
1.83597e-05
1.85729e-05
-0.000305198
0.000286969
0.000253345
-1.71361e-05
-0.000236209
1.90072e-05
-0.000305351
0.000285292
2.03561e-05
0.000232989
0.000216385
-2.46121e-05
-0.000191773
1.57493e-05
0.000282367
-0.000297993
-0.000245844
0.000116558
-0.000304103
1.87385e-05
0.000284802
0.000224211
-5.23188e-05
-0.000299246
1.38795e-05
0.00028644
0.000255837
-2.19801e-05
-0.000233857
-0.000304067
0.0001065
0.000234529
1.70521e-05
-0.000251581
0.000280254
1.70457e-05
0.000303914
-0.000285884
1.79956e-05
-0.000299733
0.000233512
1.84916e-05
-0.000252004
-1.89468e-05
-1.41882e-05
0.000298198
-0.000283904
-0.000278828
0.000297162
-0.000275744
0.000292054
-0.000302974
1.15163e-05
0.000249741
-1.62291e-05
1.10957e-05
0.000250041
-1.55121e-05
0.000298376
-0.000282484
3.95922e-05