/*--------------------------------*- C++ -*----------------------------------*\
  =========                 |
  \\      /  F ield         | OpenFOAM: The Open Source CFD Toolbox
   \\    /   O peration     | Website:  https://openfoam.org
    \\  /    A nd           | Version:  12
     \\/     M anipulation  |
\*---------------------------------------------------------------------------*/
FoamFile
{
    format      ascii;
    class       volVectorField;
    location    "2.1";
    object      U;
}
// * * * * * * * * * * * * * * * * * * * * * * * * * * * * * * * * * * * * * //

dimensions      [0 1 -1 0 0 0 0];

internalField   nonuniform List<vector> 
22702
(
(2 -2.07608e-13 0)
(2 1.20354e-14 0)
(2.01285 -0.0868703 0)
(2 -1.14439e-09 0)
(1.95655 0.0262153 0)
(2 -4.6836e-14 0)
(1.8302 0.229128 0)
(2 4.96359e-14 0)
(2 -1.32377e-13 0)
(2.13407 -0.257501 0)
(1.8297 0.228425 0)
(1.83205 0.229455 0)
(2 -9.87041e-14 0)
(1.83183 0.228954 0)
(2.00333 -0.0756079 0)
(2 -1.59701e-14 0)
(2 1.34179e-14 0)
(2 1.02303e-13 0)
(1.82923 0.228464 0)
(2 2.07699e-15 0)
(1.83153 0.229403 0)
(2 2.23987e-14 0)
(1.82808 0.228314 0)
(2.12552 -0.266464 0)
(1.83164 0.227662 0)
(2.08365 -0.273496 0)
(2 -1.66501e-14 0)
(1.83071 0.22884 0)
(2.10577 -0.262788 0)
(2.12025 -0.261637 0)
(2 -3.28499e-14 0)
(1.83228 0.229069 0)
(2 7.1181e-14 0)
(2 6.55433e-14 0)
(2 -1.18139e-13 0)
(1.8474 0.213636 0)
(1.83116 0.22865 0)
(1.82775 0.228316 0)
(2 3.30648e-14 0)
(2 -1.09509e-13 0)
(2.13161 -0.253446 0)
(2 -3.81343e-14 0)
(1.91156 0.120394 0)
(2 -4.97486e-14 0)
(1.8301 0.227877 0)
(2 -2.65387e-13 0)
(2 -1.93275e-13 0)
(2 -4.91721e-14 0)
(2 1.3078e-13 0)
(2.11462 -0.26397 0)
(2 6.49806e-14 0)
(2.12092 -0.267785 0)
(2 -4.21002e-14 0)
(1.82994 0.228429 0)
(2 3.18141e-14 0)
(1.832 0.228622 0)
(2 -7.39686e-14 0)
(2 1.43197e-09 0)
(2 1.06469e-13 0)
(2 1.09464e-13 0)
(2.07381 -0.277569 0)
(2 -2.70883e-14 0)
(2 1.74016e-15 0)
(2.10693 -0.263083 0)
(2 -1.64885e-14 0)
(2.11561 -0.264463 0)
(2 -4.41569e-14 0)
(2 -2.07337e-13 0)
(2 -4.24123e-14 0)
(2.14149 -0.260653 0)
(2 -5.31076e-14 0)
(1.83199 0.229196 0)
(1.88639 0.146145 0)
(2 1.3372e-09 0)
(1.83188 0.229039 0)
(1.82311 0.238323 0)
(2.10942 -0.261686 0)
(1.83025 0.22915 0)
(2.10468 -0.264389 0)
(2 4.22784e-14 0)
(1.82968 0.228496 0)
(2.11313 -0.265118 0)
(1.82851 0.228284 0)
(1.82875 0.22791 0)
(2 -2.47854e-14 0)
(2 9.46679e-07 0)
(2 1.4803e-14 0)
(2 -1.4414e-14 0)
(1.98371 -0.0503833 0)
(2.14441 -0.256948 0)
(1.82766 0.228047 0)
(2 1.32306e-13 0)
(2 -6.25539e-11 0)
(2.13278 -0.262599 0)
(2 -3.59453e-14 0)
(1.83131 0.229766 0)
(2.1297 -0.260837 0)
(2 2.35909e-08 0)
(2 3.07285e-14 0)
(2 -2.31084e-13 0)
(2 -1.93927e-13 0)
(1.90305 0.120579 0)
(1.82965 0.228458 0)
(2.12052 -0.271896 0)
(2 -8.84442e-10 0)
(2 -1.28236e-09 0)
(1.96283 0.0658488 0)
(2 9.5251e-09 0)
(2.11276 -0.265145 0)
(2 -1.18415e-13 0)
(1.83054 0.229123 0)
(1.83043 0.228741 0)
(2 4.18051e-09 0)
(2 1.37796e-13 0)
(2.10355 -0.275419 0)
(2.09556 -0.276575 0)
(2.13949 -0.257891 0)
(2 3.81379e-14 0)
(2 -1.35669e-07 0)
(2 -8.01135e-14 0)
(2 3.90052e-14 0)
(2 1.20223e-07 0)
(1.98751 -0.0573464 0)
(2 -1.12826e-07 0)
(1.8511 0.198077 0)
(1.95496 0.0240513 0)
(1.83212 0.228833 0)
(2 9.34098e-14 0)
(1.83139 0.228476 0)
(1.82944 0.228591 0)
(1.83161 0.228857 0)
(1.83064 0.228715 0)
(2 1.22193e-13 0)
(2.10447 -0.270053 0)
(2 4.81974e-14 0)
(2.10492 -0.267937 0)
(2 4.1482e-14 0)
(2 9.67253e-15 0)
(2 -3.69831e-14 0)
(2 -3.49469e-14 0)
(1.83051 0.228733 0)
(2 3.0838e-09 0)
(2 -8.42239e-14 0)
(2 -1.26597e-15 0)
(2 6.8839e-14 0)
(1.82998 0.229138 0)
(2 -3.41032e-14 0)
(1.99438 0.014312 0)
(2 9.16558e-15 0)
(2 -1.30807e-13 0)
(2 -7.88573e-11 0)
(2 1.60222e-14 0)
(2.11077 -0.26212 0)
(2 2.4925e-14 0)
(1.99496 0.0099464 0)
(2 5.87337e-14 0)
(2.10377 -0.262771 0)
(2 2.70088e-13 0)
(2 -1.18427e-14 0)
(2 -7.34575e-14 0)
(1.82744 0.228456 0)
(2 -4.42252e-14 0)
(1.83069 0.228655 0)
(2.09011 -0.282319 0)
(2.07395 -0.280235 0)
(1.83195 0.229437 0)
(1.83182 0.229325 0)
(2 -2.45078e-14 0)
(1.94895 0.0366704 0)
(1.89437 0.136239 0)
(2 -1.79579e-14 0)
(1.82876 0.228102 0)
(2.10625 -0.264244 0)
(1.8432 0.213458 0)
(2 -1.23134e-14 0)
(2 1.25438e-13 0)
(2 1.36089e-14 0)
(2 1.45989e-13 0)
(1.83182 0.229092 0)
(1.85664 0.201458 0)
(2 2.40642e-14 0)
(1.83026 0.228591 0)
(2.10845 -0.264892 0)
(1.82987 0.22835 0)
(2 -1.32282e-13 0)
(2.10012 -0.260182 0)
(2 -1.3487e-13 0)
(2.11605 -0.264027 0)
(2.07342 -0.284937 0)
(2.00007 -0.000128181 0)
(2 -2.00665e-13 0)
(2 -7.29995e-14 0)
(1.8299 0.228328 0)
(2 4.57123e-14 0)
(2 -1.70692e-13 0)
(1.83187 0.229013 0)
(2 -1.12546e-14 0)
(1.82927 0.228442 0)
(1.83013 0.22829 0)
(2.11959 -0.270852 0)
(2 7.53268e-15 0)
(2 -3.59136e-14 0)
(2.10891 -0.262375 0)
(1.83157 0.229017 0)
(2 7.0851e-14 0)
(2 1.27984e-13 0)
(2 3.5464e-14 0)
(1.83158 0.228838 0)
(2 4.8472e-14 0)
(2.11355 -0.265778 0)
(2 -7.12982e-11 0)
(2 2.12541e-14 0)
(1.8309 0.229088 0)
(1.83117 0.229372 0)
(1.83011 0.228859 0)
(2 4.67383e-15 0)
(1.99999 2.30791e-05 0)
(2 -2.04379e-14 0)
(2 -1.27204e-13 0)
(2 -1.1469e-13 0)
(1.83106 0.229085 0)
(2 9.84689e-15 0)
(2.11201 -0.265857 0)
(1.82581 0.236043 0)
(1.83218 0.229284 0)
(1.83176 0.228897 0)
(2 1.98752e-07 0)
(2 4.26239e-14 0)
(2 -2.54956e-13 0)
(2.10681 -0.273211 0)
(1.83235 0.228987 0)
(1.92372 0.108737 0)
(2 -3.98784e-14 0)
(1.83093 0.229565 0)
(2.11591 -0.264162 0)
(2.11429 -0.263828 0)
(1.83087 0.229588 0)
(1.83237 0.228085 0)
(2 2.15575e-14 0)
(1.83238 0.229209 0)
(2.15421 -0.261648 0)
(1.84908 0.203458 0)
(2 -8.96328e-14 0)
(2 -5.13195e-14 0)
(2 -9.84745e-14 0)
(2 5.6298e-14 0)
(1.83158 0.229123 0)
(2 7.17569e-14 0)
(1.90285 0.149566 0)
(1.9821 0.0285123 0)
(2 8.50664e-14 0)
(2 6.29967e-14 0)
(1.83115 0.228586 0)
(2.1233 -0.2631 0)
(2.05749 -0.169807 0)
(2 6.96162e-14 0)
(1.83245 0.227057 0)
(2.11834 -0.26744 0)
(1.82989 0.231025 0)
(2 2.67776e-14 0)
(2 6.85469e-14 0)
(2 -8.64829e-14 0)
(2 1.54678e-13 0)
(2 -3.39502e-15 0)
(2 6.93403e-14 0)
(2 -1.40859e-13 0)
(2.11347 -0.265378 0)
(2.08906 -0.163062 0)
(2.11474 -0.264732 0)
(1.83128 0.228503 0)
(2 5.45113e-14 0)
(2 2.01348e-13 0)
(2 -1.46641e-07 0)
(2 -2.61528e-13 0)
(1.8458 0.208902 0)
(2 -1.64754e-07 0)
(2.1115 -0.266257 0)
(2 -1.28657e-13 0)
(2.11632 -0.28085 0)
(2.10842 -0.263572 0)
(1.83177 0.228561 0)
(2.12605 -0.265841 0)
(1.83117 0.229191 0)
(2 1.49942e-14 0)
(2 -3.33813e-14 0)
(2 5.36028e-14 0)
(2.00087 -0.00145131 0)
(2.10178 -0.263214 0)
(2.1483 -0.264332 0)
(2 -2.8225e-07 0)
(2 -1.46946e-07 0)
(2.1128 -0.282997 0)
(2 2.26288e-09 0)
(1.82977 0.228558 0)
(2.13984 -0.25986 0)
(2 5.24338e-14 0)
(2 -2.76104e-11 0)
(1.82966 0.228556 0)
(2.10098 -0.274658 0)
(2 1.05757e-13 0)
(1.82889 0.232107 0)
(2.06389 -0.274593 0)
(1.83076 0.228473 0)
(2 -4.36618e-14 0)
(2.11226 -0.283601 0)
(2.00083 -0.00147662 0)
(2 -3.76954e-14 0)
(2 2.65138e-06 0)
(2 6.78066e-14 0)
(2.11881 -0.268919 0)
(2 6.33541e-17 0)
(2 -1.57355e-07 0)
(2 4.12224e-07 0)
(1.99999 1.45152e-05 0)
(1.99042 0.00184597 0)
(1.88736 0.14653 0)
(2 -2.74627e-11 0)
(2.1044 -0.264642 0)
(2 -1.32909e-11 0)
(2 1.5843e-06 0)
(2 -3.39865e-14 0)
(2 6.59137e-14 0)
(2 -1.19686e-13 0)
(2 -3.47868e-14 0)
(2 -7.02308e-13 0)
(1.82987 0.228575 0)
(2 1.55608e-13 0)
(1.83002 0.228432 0)
(2 1.241e-13 0)
(2 1.34996e-13 0)
(2 -3.30764e-14 0)
(2.11388 -0.267145 0)
(2 6.40483e-14 0)
(1.83013 0.228916 0)
(2.13208 -0.269354 0)
(2 1.21542e-13 0)
(1.8691 0.195013 0)
(2 2.28379e-13 0)
(2 3.9752e-14 0)
(1.82906 0.22892 0)
(2 1.43536e-13 0)
(2 -7.84111e-09 0)
(2 9.13188e-14 0)
(1.82684 0.227722 0)
(2 3.95045e-10 0)
(2 9.94692e-14 0)
(1.83728 0.219117 0)
(1.82903 0.229207 0)
(2 5.11486e-14 0)
(1.96419 0.0561491 0)
(2 -2.34387e-14 0)
(2 4.1623e-14 0)
(2.10343 -0.264281 0)
(2 -9.57566e-14 0)
(2 -6.06913e-14 0)
(2 6.39606e-14 0)
(2.12587 -0.262168 0)
(2 1.13588e-14 0)
(2 -1.41505e-13 0)
(2 5.91505e-14 0)
(2 2.59582e-13 0)
(2.10014 -0.268166 0)
(2 -1.94594e-14 0)
(2 -5.44372e-14 0)
(2 -2.13436e-13 0)
(2 8.25592e-14 0)
(2 -1.3517e-13 0)
(2.14122 -0.260506 0)
(1.99998 3.9708e-05 0)
(1.83159 0.229279 0)
(2 -1.26777e-14 0)
(2.00002 -2.53435e-05 0)
(1.83196 0.229238 0)
(1.83183 0.229618 0)
(2 1.20665e-13 0)
(2 4.55154e-14 0)
(2.10706 -0.275645 0)
(2.04076 -0.126546 0)
(1.83018 0.228895 0)
(2 -1.03094e-13 0)
(2 1.75498e-13 0)
(2 2.88099e-13 0)
(1.83099 0.228343 0)
(2.13806 -0.261817 0)
(2 1.71297e-13 0)
(1.83121 0.228911 0)
(2 5.43907e-14 0)
(2 1.72156e-14 0)
(2.11757 -0.212046 0)
(2.10837 -0.211465 0)
(2 1.29975e-13 0)
(2.0939 -0.264042 0)
(2.12501 -0.261821 0)
(2 1.48238e-13 0)
(2 -1.5927e-13 0)
(2 -2.36065e-13 0)
(2 1.13136e-13 0)
(2 -9.67691e-11 0)
(2 2.40636e-15 0)
(2 1.1194e-14 0)
(1.83231 0.229003 0)
(1.9757 0.068028 0)
(1.83206 0.224567 0)
(2.13737 -0.258904 0)
(2.01451 -0.0632059 0)
(1.83065 0.228695 0)
(2 -6.97937e-13 0)
(1.83105 0.228991 0)
(1.83002 0.228831 0)
(2.11661 -0.265007 0)
(2.04786 -0.159249 0)
(2 3.90527e-13 0)
(2.11359 -0.265973 0)
(2 -1.59849e-13 0)
(1.82189 0.233908 0)
(2 -1.05634e-13 0)
(2 -8.30911e-14 0)
(2 -8.29758e-14 0)
(2 -2.46539e-14 0)
(1.83176 0.229176 0)
(2 2.41649e-14 0)
(2 -3.8832e-14 0)
(2 -1.05062e-13 0)
(2 1.52368e-09 0)
(2 1.937e-13 0)
(2 -2.1293e-14 0)
(2 -9.84393e-15 0)
(1.93739 0.0904385 0)
(1.82691 0.22805 0)
(2 2.29343e-13 0)
(1.83151 0.229011 0)
(2 -7.23415e-15 0)
(2 1.3742e-13 0)
(2.10982 -0.265467 0)
(2 -4.98442e-15 0)
(2 2.49806e-14 0)
(2 -1.51995e-13 0)
(2 5.7937e-14 0)
(1.83141 0.22871 0)
(1.87232 0.180211 0)
(2 -2.35788e-14 0)
(2 4.20318e-14 0)
(2.09539 -0.265278 0)
(1.83235 0.229215 0)
(1.83113 0.229059 0)
(2 1.4627e-14 0)
(1.83109 0.229039 0)
(1.83196 0.229154 0)
(1.83137 0.229322 0)
(2 -4.66374e-14 0)
(2.03956 -0.110771 0)
(2 1.02143e-13 0)
(1.83224 0.228845 0)
(1.9938 -0.00792696 0)
(1.83146 0.229252 0)
(2 -5.04233e-14 0)
(2.11449 -0.26493 0)
(2.00039 -0.000664364 0)
(1.8297 0.228433 0)
(2 -3.12679e-14 0)
(2 8.84949e-14 0)
(2 -7.16991e-11 0)
(2 -2.36177e-11 0)
(2.11242 -0.263733 0)
(1.83222 0.228464 0)
(1.8515 0.210484 0)
(2 1.58014e-13 0)
(1.8318 0.22933 0)
(1.83127 0.228237 0)
(1.82988 0.22867 0)
(2 2.85999e-14 0)
(1.9177 0.118684 0)
(1.83219 0.228879 0)
(2 4.62011e-14 0)
(2 1.10522e-13 0)
(1.88253 0.169513 0)
(1.97837 0.0394115 0)
(1.83099 0.22921 0)
(1.98278 -0.0493965 0)
(1.83114 0.229292 0)
(2 -7.73549e-14 0)
(1.8312 0.229426 0)
(1.83163 0.22884 0)
(1.83115 0.229423 0)
(1.83232 0.229151 0)
(2 -1.37887e-14 0)
(1.84018 0.228956 0)
(2.02686 -0.0578659 0)
(2.04507 -0.0735781 0)
(2 -3.01303e-14 0)
(2 -3.73681e-07 0)
(2 -1.43896e-13 0)
(2 -1.98272e-13 0)
(1.83139 0.228841 0)
(2 8.95014e-14 0)
(2 1.47512e-13 0)
(2 -1.23577e-13 0)
(2 1.33624e-13 0)
(2 -3.7288e-14 0)
(1.82969 0.228528 0)
(2 -4.53836e-14 0)
(2 1.33035e-13 0)
(2.00153 -0.00261425 0)
(1.83112 0.229001 0)
(1.86486 0.197678 0)
(2 8.61156e-14 0)
(1.86223 0.182445 0)
(1.99998 2.39942e-05 0)
(2 1.61049e-13 0)
(2 6.01195e-14 0)
(1.83206 0.229065 0)
(2 1.70744e-13 0)
(2.00219 -0.00252689 0)
(1.99847 0.00498751 0)
(2 -2.26585e-14 0)
(1.83159 0.229158 0)
(2 1.11885e-13 0)
(1.83236 0.229903 0)
(2 2.58624e-13 0)
(2 9.41922e-14 0)
(1.8749 0.177247 0)
(2 1.44285e-13 0)
(1.83203 0.229775 0)
(1.99999 1.26812e-05 0)
(2 1.21903e-13 0)
(1.83315 0.228199 0)
(2 -2.34692e-13 0)
(1.83127 0.228763 0)
(2 6.74706e-14 0)
(2 2.92897e-06 0)
(2 7.5907e-14 0)
(1.83167 0.229117 0)
(2 6.60761e-14 0)
(1.8298 0.230291 0)
(2 4.45579e-06 0)
(1.83177 0.229211 0)
(1.83038 0.228699 0)
(1.83203 0.228753 0)
(1.83046 0.228596 0)
(2 2.16181e-13 0)
(1.83066 0.228233 0)
(1.83662 0.223413 0)
(2 1.86621e-13 0)
(2.09986 -0.259719 0)
(1.84157 0.219103 0)
(1.8855 0.172955 0)
(2 9.53649e-14 0)
(1.83202 0.229258 0)
(2 -4.73959e-14 0)
(2.11309 -0.264019 0)
(2.06106 -0.277829 0)
(2 1.01435e-13 0)
(2 2.86941e-13 0)
(2 2.1447e-13 0)
(2 3.23964e-14 0)
(2 1.84742e-09 0)
(2.13569 -0.257886 0)
(2 -2.55755e-14 0)
(1.83128 0.228694 0)
(1.95451 0.0644987 0)
(1.83223 0.229199 0)
(2 8.09892e-14 0)
(2 6.82217e-11 0)
(2 -9.84604e-14 0)
(2 -8.41368e-14 0)
(2 -5.13616e-08 0)
(1.8313 0.228472 0)
(2 -1.55532e-13 0)
(1.83205 0.228652 0)
(1.89981 0.143583 0)
(2.04839 -0.157289 0)
(2 1.29538e-09 0)
(1.99999 6.91548e-06 0)
(1.95378 0.0730905 0)
(1.95777 0.0620257 0)
(2 6.4026e-14 0)
(2 -5.19395e-14 0)
(1.9473 0.0935142 0)
(2 1.08692e-13 0)
(2.10716 -0.262989 0)
(1.83156 0.229198 0)
(1.83208 0.229216 0)
(2 -6.90236e-11 0)
(2 -1.22778e-13 0)
(2 -1.76977e-14 0)
(1.83065 0.228723 0)
(2 -2.29219e-13 0)
(1.99999 1.49299e-05 0)
(1.83074 0.231086 0)
(1.83208 0.228827 0)
(2.02134 -0.0350612 0)
(2 3.50219e-14 0)
(2 1.81992e-10 0)
(2.11749 -0.263833 0)
(1.84826 0.212629 0)
(2 2.19825e-13 0)
(2 1.45463e-13 0)
(2 1.58099e-14 0)
(2 -2.55545e-11 0)
(2 5.85999e-14 0)
(1.83116 0.228878 0)
(1.83088 0.228402 0)
(2 1.65287e-13 0)
(1.83237 0.227858 0)
(1.82969 0.230882 0)
(1.83166 0.228566 0)
(2 3.20019e-14 0)
(2 -7.26831e-14 0)
(2 -6.30382e-11 0)
(2 -8.52544e-14 0)
(2.11804 -0.276305 0)
(1.82993 0.228563 0)
(2 -4.88824e-11 0)
(2 9.08871e-15 0)
(1.85187 0.214418 0)
(1.83722 0.228338 0)
(2 -1.12212e-13 0)
(1.84795 0.219855 0)
(1.8278 0.228029 0)
(2 -1.10391e-13 0)
(2 -2.15e-07 0)
(2 1.18202e-10 0)
(2 -3.57895e-14 0)
(2 -1.4479e-14 0)
(1.83163 0.229572 0)
(2 -4.22134e-14 0)
(2 1.20861e-13 0)
(2 -8.89578e-14 0)
(2 6.53937e-14 0)
(1.83126 0.229892 0)
(2 9.32358e-14 0)
(1.83084 0.236908 0)
(2.10833 -0.263314 0)
(2 -8.41532e-14 0)
(2.12328 -0.266636 0)
(2 1.70628e-14 0)
(2 -1.22087e-07 0)
(2 5.01606e-14 0)
(2.00109 -0.00201366 0)
(2.10493 -0.26435 0)
(2.0003 -0.00053351 0)
(2 -1.09141e-13 0)
(2 1.41056e-14 0)
(2 -1.17046e-07 0)
(1.97235 0.0407412 0)
(2 -2.78057e-14 0)
(2 1.03455e-13 0)
(2.05379 -0.0922254 0)
(2 -2.00784e-07 0)
(2 -1.2304e-13 0)
(2 8.5828e-14 0)
(2 -2.10234e-07 0)
(2 2.39448e-07 0)
(2 -1.9158e-07 0)
(2 -1.87664e-13 0)
(2 -1.71414e-06 0)
(2.01793 -0.0494589 0)
(2 -4.69794e-07 0)
(2 -4.30721e-08 0)
(2.0009 -0.00124856 0)
(2 -2.61371e-14 0)
(2.11064 -0.262449 0)
(2 -2.61152e-11 0)
(2 -4.76285e-12 0)
(2 -7.63214e-11 0)
(2 2.19564e-13 0)
(1.87434 0.178783 0)
(2 -1.35271e-13 0)
(2 -2.0393e-13 0)
(2 1.2394e-13 0)
(2 -1.70794e-07 0)
(2.13309 -0.270746 0)
(2 2.24867e-14 0)
(2 1.55439e-09 0)
(1.84402 0.21861 0)
(1.82962 0.228254 0)
(2 -3.08466e-07 0)
(2 -1.22289e-13 0)
(2 -1.12172e-07 0)
(2.04779 -0.0791282 0)
(2 -5.28502e-14 0)
(2 4.72096e-10 0)
(2 -5.51982e-14 0)
(2 -1.30436e-14 0)
(2 1.6356e-13 0)
(2 4.30495e-14 0)
(2.023 -0.0391197 0)
(1.99163 -0.00180558 0)
(1.83103 0.228988 0)
(2 3.20531e-13 0)
(2 -1.58938e-14 0)
(2 -1.64006e-13 0)
(1.83157 0.227713 0)
(1.99124 -0.0752809 0)
(2 -4.90148e-09 0)
(2 -5.09129e-14 0)
(2 7.31732e-14 0)
(1.82783 0.22811 0)
(1.83192 0.228526 0)
(2 -2.83123e-08 0)
(2 5.29508e-06 0)
(2 3.64959e-09 0)
(2 -9.78407e-14 0)
(2 1.20051e-09 0)
(2 1.06189e-14 0)
(2 -2.13808e-11 0)
(2 3.03061e-13 0)
(2 -5.2034e-14 0)
(2.11913 -0.26436 0)
(2 -9.41237e-14 0)
(2 -1.66509e-11 0)
(1.82971 0.228505 0)
(2.11352 -0.264861 0)
(2 -1.20407e-13 0)
(1.82965 0.227908 0)
(2 5.78951e-11 0)
(2.10607 -0.261741 0)
(2 -6.16527e-14 0)
(2 -6.32279e-14 0)
(2.12134 -0.261421 0)
(2 6.32305e-14 0)
(2 -1.21527e-11 0)
(2 -5.14021e-12 0)
(2 1.74551e-13 0)
(2 -2.96252e-12 0)
(2 8.95632e-14 0)
(2 -1.29578e-14 0)
(1.83133 0.224626 0)
(1.83425 0.229762 0)
(2 1.99919e-13 0)
(2 1.17748e-13 0)
(2 1.75284e-13 0)
(2 2.47658e-13 0)
(1.85115 0.214059 0)
(2 1.42428e-13 0)
(1.94567 0.0835392 0)
(2.09411 -0.262014 0)
(2 -3.08091e-08 0)
(2 1.78442e-13 0)
(2 -1.89563e-14 0)
(2 -1.3794e-13 0)
(2 -8.7652e-14 0)
(2 1.65429e-14 0)
(2 2.02422e-14 0)
(1.98329 0.0256017 0)
(2 -4.16614e-14 0)
(2 -2.01971e-13 0)
(1.90849 0.128151 0)
(2 -5.43769e-14 0)
(2 5.09765e-15 0)
(2 -1.00448e-13 0)
(1.86135 0.196148 0)
(2 -9.0459e-14 0)
(2 -2.03335e-13 0)
(2 -1.01715e-13 0)
(2 -8.75976e-14 0)
(2.10992 -0.264436 0)
(2 8.75502e-12 0)
(2 8.23444e-15 0)
(2.11586 -0.27676 0)
(2.1121 -0.267147 0)
(2 1.83226e-13 0)
(2 4.63517e-14 0)
(1.83164 0.228478 0)
(2 1.47807e-13 0)
(1.96617 -0.00894085 0)
(2 -3.4226e-15 0)
(2 -4.88177e-14 0)
(2 1.8247e-14 0)
(1.88337 0.168698 0)
(2.13937 -0.265354 0)
(2 -1.40381e-13 0)
(2.1391 -0.274344 0)
(2 -8.71285e-14 0)
(2.08427 -0.150369 0)
(2 1.38018e-13 0)
(2 1.33538e-13 0)
(2 2.16185e-13 0)
(1.8305 0.228078 0)
(2 -4.32666e-08 0)
(2 7.57719e-14 0)
(1.83196 0.228673 0)
(2 1.03346e-13 0)
(2 -2.8606e-11 0)
(2 1.59547e-09 0)
(1.83199 0.228586 0)
(2 2.6592e-10 0)
(2 -1.8228e-13 0)
(1.83199 0.229343 0)
(2 -2.86677e-13 0)
(2 1.54951e-13 0)
(2.11691 -0.264366 0)
(2 -1.78912e-11 0)
(1.94117 0.0857913 0)
(2 8.06986e-14 0)
(2 -3.98312e-14 0)
(1.83108 0.22863 0)
(1.82961 0.228968 0)
(1.88612 0.163226 0)
(1.84296 0.207391 0)
(2 3.67344e-14 0)
(2.1129 -0.265721 0)
(2 -1.23696e-13 0)
(2 1.12654e-13 0)
(1.83791 0.220498 0)
(2 -2.58814e-14 0)
(2.11183 -0.2646 0)
(2 3.71956e-16 0)
(2 1.69124e-13 0)
(2 -9.22052e-14 0)
(1.83161 0.229319 0)
(2 2.24494e-13 0)
(2 3.65554e-14 0)
(2 1.55655e-14 0)
(2 1.17365e-13 0)
(1.89883 0.144068 0)
(2 -9.59135e-14 0)
(1.83707 0.231917 0)
(1.82831 0.229621 0)
(2.14634 -0.259478 0)
(2 -1.08456e-13 0)
(2 -1.47842e-13 0)
(2.09573 -0.276201 0)
(2.07217 -0.271082 0)
(2 -8.35976e-14 0)
(2 -3.82414e-14 0)
(2 -6.46604e-12 0)
(1.8788 0.174237 0)
(1.87331 0.179859 0)
(2 1.22454e-13 0)
(2 1.39193e-13 0)
(2 7.16916e-14 0)
(2 -1.16696e-14 0)
(2 -1.79766e-14 0)
(2 1.31274e-13 0)
(2 -1.72259e-13 0)
(1.92721 0.103494 0)
(1.82918 0.228761 0)
(1.99887 -0.00113147 0)
(2 7.7016e-15 0)
(1.83343 0.225623 0)
(2.09232 -0.2716 0)
(2 1.43563e-13 0)
(2 1.7925e-13 0)
(2 1.21479e-13 0)
(1.90843 0.135074 0)
(2 1.36243e-13 0)
(1.96423 0.0525863 0)
(2 -1.0128e-13 0)
(1.84795 0.212352 0)
(1.83106 0.227242 0)
(2 -1.86783e-13 0)
(2.11471 -0.264559 0)
(2 1.53192e-14 0)
(1.83131 0.228611 0)
(2 -3.76877e-15 0)
(2 8.58573e-15 0)
(1.83144 0.228758 0)
(1.84181 0.219715 0)
(2 2.72627e-13 0)
(1.82482 0.230486 0)
(2 -6.5141e-14 0)
(2.09944 -0.265197 0)
(2 6.72299e-14 0)
(2 4.29775e-14 0)
(2 1.32226e-13 0)
(1.83195 0.226454 0)
(1.82907 0.224539 0)
(1.85256 0.205799 0)
(2 5.19178e-14 0)
(1.83023 0.229845 0)
(1.83166 0.229002 0)
(2 1.04771e-13 0)
(1.83138 0.229474 0)
(2 -8.94735e-09 0)
(1.83935 0.227757 0)
(2 -1.0642e-13 0)
(2.11807 -0.267032 0)
(2.00922 -0.00786679 0)
(2.1092 -0.271459 0)
(2 -3.27087e-11 0)
(2 -2.25699e-11 0)
(2 -3.34943e-11 0)
(2 1.24019e-13 0)
(2 -1.45187e-11 0)
(1.83178 0.229082 0)
(2 -2.91325e-14 0)
(1.83138 0.228948 0)
(2 -2.68962e-11 0)
(2 -9.49099e-11 0)
(2 -8.84311e-14 0)
(1.84176 0.218456 0)
(2 -2.42139e-14 0)
(2.10475 -0.260932 0)
(1.83201 0.228901 0)
(2 -1.57667e-14 0)
(2.09929 -0.262696 0)
(2.1281 -0.244032 0)
(2.12783 -0.261694 0)
(2 -7.3444e-14 0)
(1.91562 0.125852 0)
(1.97981 0.0250374 0)
(1.83662 0.230627 0)
(1.83166 0.228996 0)
(2 3.80759e-14 0)
(2 -3.804e-07 0)
(2 -6.5378e-08 0)
(2 -1.39312e-13 0)
(1.83181 0.229405 0)
(2 1.58079e-13 0)
(2 -9.50336e-14 0)
(1.83146 0.229469 0)
(1.83183 0.229185 0)
(2 5.58005e-14 0)
(1.95822 0.0957242 0)
(1.9998 0.000422028 0)
(2 8.5142e-14 0)
(2.00122 -0.00197791 0)
(1.82942 0.22826 0)
(2.03818 -0.0946594 0)
(2 -1.2232e-07 0)
(2.04746 -0.129854 0)
(2.10277 -0.260449 0)
(2.10925 -0.266779 0)
(1.99119 -0.0729383 0)
(1.82985 0.228502 0)
(1.84069 0.22815 0)
(1.96334 0.0447194 0)
(1.82904 0.229386 0)
(1.83207 0.229203 0)
(2 8.028e-14 0)
(2 1.70351e-13 0)
(1.83452 0.229053 0)
(1.83 0.228432 0)
(1.82954 0.228769 0)
(1.82769 0.229026 0)
(2 -2.20589e-14 0)
(1.82895 0.226276 0)
(2.09623 -0.261968 0)
(1.83125 0.23076 0)
(1.8312 0.23016 0)
(1.83036 0.227774 0)
(1.83075 0.230097 0)
(2.05667 -0.0921206 0)
(2.0385 -0.0647459 0)
(2.02634 -0.0579646 0)
(1.83198 0.229187 0)
(2.00723 -0.0265839 0)
(1.83106 0.228727 0)
(2 2.13149e-13 0)
(2 -8.48873e-14 0)
(1.83316 0.228858 0)
(1.83118 0.2287 0)
(2 -1.09943e-13 0)
(2.11423 -0.265748 0)
(1.82971 0.227994 0)
(1.83248 0.229387 0)
(2 3.19067e-14 0)
(1.83208 0.228949 0)
(1.83165 0.229237 0)
(2 -3.03031e-14 0)
(1.83198 0.228967 0)
(2.11824 -0.269892 0)
(1.8292 0.230804 0)
(1.83243 0.229202 0)
(1.83129 0.228705 0)
(1.83246 0.229291 0)
(2 -2.81234e-14 0)
(2 -1.13973e-13 0)
(2 -1.07971e-07 0)
(1.83247 0.229321 0)
(1.88923 0.159649 0)
(2.11707 -0.243576 0)
(1.83149 0.228392 0)
(2.11068 -0.275557 0)
(1.83244 0.22923 0)
(2 5.58408e-14 0)
(2 -1.12934e-13 0)
(2 -1.85954e-13 0)
(2 -1.27315e-14 0)
(1.8304 0.229218 0)
(1.83095 0.228539 0)
(2 -5.06545e-14 0)
(2 -1.08247e-14 0)
(1.83105 0.228634 0)
(2.11395 -0.268542 0)
(1.83123 0.228617 0)
(2.10835 -0.264984 0)
(2 -1.42429e-14 0)
(1.82847 0.226168 0)
(2 -6.86379e-14 0)
(2.12983 -0.263326 0)
(1.83057 0.229389 0)
(2.10856 -0.186348 0)
(2 7.12616e-14 0)
(1.83184 0.228808 0)
(1.83084 0.230222 0)
(1.83124 0.229931 0)
(2 1.67567e-13 0)
(2 1.72507e-14 0)
(1.91764 0.124229 0)
(1.83117 0.230087 0)
(2.09814 -0.261971 0)
(1.83222 0.229175 0)
(2 -5.76806e-14 0)
(1.83216 0.229038 0)
(2.0226 -0.0903884 0)
(1.83145 0.228056 0)
(2.12665 -0.260509 0)
(2 6.02498e-14 0)
(1.83265 0.227685 0)
(2.11526 -0.232056 0)
(1.83505 0.230572 0)
(2.10626 -0.262011 0)
(2 -1.9859e-14 0)
(1.83139 0.229222 0)
(2 1.2385e-13 0)
(1.82763 0.228581 0)
(2 -3.13378e-13 0)
(1.90397 0.141499 0)
(1.83881 0.222107 0)
(1.86721 0.187643 0)
(2.13178 -0.272977 0)
(2 8.41421e-14 0)
(1.83052 0.228311 0)
(2 -6.47923e-14 0)
(1.82992 0.227712 0)
(2 -1.18145e-07 0)
(1.83159 0.22913 0)
(2 -2.50052e-07 0)
(2 5.45458e-14 0)
(1.83116 0.228768 0)
(1.97112 -0.0173648 0)
(1.83088 0.230021 0)
(2.12171 -0.262865 0)
(1.84918 0.196525 0)
(2 -1.02329e-13 0)
(1.87594 0.172416 0)
(2 -1.16993e-13 0)
(1.83078 0.228643 0)
(1.83165 0.228899 0)
(1.8311 0.229131 0)
(2 -1.96212e-14 0)
(1.84353 0.208378 0)
(1.831 0.228848 0)
(1.8379 0.213778 0)
(1.89777 0.146405 0)
(1.83348 0.228765 0)
(2 8.79181e-14 0)
(1.8888 0.161285 0)
(2 -1.83128e-13 0)
(1.83084 0.22925 0)
(2 -3.26502e-14 0)
(1.9699 0.0435711 0)
(2 9.34366e-14 0)
(1.84383 0.215009 0)
(2 1.81637e-13 0)
(1.82952 0.228044 0)
(1.8401 0.219561 0)
(1.83553 0.219359 0)
(2 3.64003e-14 0)
(1.82629 0.229273 0)
(2.05951 -0.273285 0)
(2 -3.13986e-14 0)
(2.10852 -0.264398 0)
(2 1.31508e-13 0)
(2 1.47521e-13 0)
(2 5.58728e-14 0)
(1.83055 0.22897 0)
(2 -5.56896e-14 0)
(1.83123 0.229057 0)
(2 1.12044e-13 0)
(2 1.62654e-13 0)
(2 2.29848e-13 0)
(1.83096 0.229295 0)
(1.83587 0.229939 0)
(1.86708 0.186966 0)
(1.83079 0.229844 0)
(1.8319 0.227937 0)
(2.12233 -0.266005 0)
(1.83623 0.230184 0)
(1.82808 0.228737 0)
(2 2.5172e-13 0)
(1.85823 0.187508 0)
(1.83147 0.228803 0)
(1.84223 0.222168 0)
(2 -1.67096e-14 0)
(1.82943 0.228446 0)
(1.8323 0.22928 0)
(2 1.13787e-13 0)
(1.82882 0.231232 0)
(1.83142 0.228459 0)
(1.83098 0.228245 0)
(1.83079 0.229337 0)
(2 2.09413e-13 0)
(2 9.16673e-14 0)
(2 1.65451e-13 0)
(1.8339 0.229672 0)
(2.12581 -0.259965 0)
(2 -6.8867e-14 0)
(1.83135 0.228929 0)
(2 -5.39213e-15 0)
(2 1.67382e-13 0)
(2.0627 -0.281663 0)
(2 -5.3924e-14 0)
(2 5.33356e-14 0)
(1.83151 0.228811 0)
(1.83197 0.228747 0)
(2 -1.33491e-14 0)
(1.83193 0.229 0)
(1.835 0.233563 0)
(1.83109 0.228994 0)
(2.0097 -0.010085 0)
(1.83109 0.228884 0)
(2 1.14494e-14 0)
(1.83095 0.228563 0)
(1.83171 0.228976 0)
(1.86134 0.175307 0)
(2 3.07677e-14 0)
(2 -1.40409e-14 0)
(2 -5.44341e-14 0)
(1.83142 0.228519 0)
(1.83095 0.22914 0)
(1.83092 0.229191 0)
(2.02307 -0.0351606 0)
(2 5.96401e-14 0)
(1.82768 0.232265 0)
(1.83133 0.229036 0)
(1.83066 0.228721 0)
(2 -5.44093e-14 0)
(1.83199 0.228534 0)
(1.83084 0.229079 0)
(1.83123 0.229189 0)
(1.8285 0.232627 0)
(2 -9.69555e-14 0)
(1.83108 0.229192 0)
(1.83208 0.226776 0)
(1.85327 0.203495 0)
(1.83277 0.227911 0)
(1.82933 0.231988 0)
(2 -6.18239e-14 0)
(1.83062 0.228812 0)
(1.83757 0.227125 0)
(1.83105 0.229296 0)
(1.83019 0.230119 0)
(1.83282 0.227945 0)
(2.09229 -0.268913 0)
(1.83134 0.228732 0)
(1.83247 0.228717 0)
(2 -4.88378e-14 0)
(1.82978 0.228358 0)
(1.83104 0.229327 0)
(1.82956 0.228359 0)
(1.8326 0.229035 0)
(2 -5.66821e-08 0)
(1.83093 0.229295 0)
(1.83366 0.229307 0)
(2 -1.55171e-07 0)
(1.83222 0.229392 0)
(1.85943 0.19832 0)
(2 6.2968e-14 0)
(2 5.28061e-14 0)
(2 2.38778e-09 0)
(1.82952 0.230916 0)
(1.83496 0.22835 0)
(2 -1.05602e-13 0)
(2 2.45873e-14 0)
(1.90685 0.138283 0)
(2 2.06242e-13 0)
(1.8309 0.228991 0)
(2 6.87544e-14 0)
(2 7.78497e-14 0)
(1.83229 0.229223 0)
(1.83103 0.229636 0)
(1.83225 0.228064 0)
(1.83195 0.229087 0)
(2 -1.30553e-14 0)
(2 1.79964e-13 0)
(2 3.62727e-14 0)
(1.88374 0.164626 0)
(2 1.90331e-13 0)
(1.82895 0.227843 0)
(2 1.66323e-14 0)
(2 -6.49715e-14 0)
(1.8338 0.22906 0)
(1.83308 0.228928 0)
(2 3.92723e-14 0)
(1.83138 0.228901 0)
(2.11021 -0.278123 0)
(1.83204 0.228791 0)
(1.8311 0.23019 0)
(2.11248 -0.193843 0)
(2 -3.35904e-15 0)
(2.133 -0.272164 0)
(1.84999 0.205498 0)
(1.83033 0.230565 0)
(1.83004 0.229258 0)
(1.83639 0.231524 0)
(2.11898 -0.2642 0)
(1.83084 0.228941 0)
(1.8312 0.229807 0)
(2.12018 -0.263471 0)
(2.12117 -0.27323 0)
(2 -2.77815e-07 0)
(1.83113 0.229774 0)
(1.83143 0.229323 0)
(2 -8.67381e-14 0)
(2 1.8219e-14 0)
(1.82991 0.228839 0)
(2 -1.23086e-13 0)
(1.83276 0.228016 0)
(2 2.50637e-06 0)
(1.85386 0.205129 0)
(2 1.44234e-13 0)
(1.92439 0.115963 0)
(1.83137 0.229359 0)
(1.8302 0.229858 0)
(1.8777 0.171407 0)
(1.84833 0.19436 0)
(1.8298 0.228652 0)
(1.83004 0.229152 0)
(1.84734 0.214744 0)
(2 -4.53678e-14 0)
(2.08882 -0.280396 0)
(1.83516 0.232272 0)
(1.83228 0.228411 0)
(1.82847 0.230236 0)
(2 7.62712e-06 0)
(2 4.08141e-10 0)
(2 1.54297e-09 0)
(1.82979 0.229927 0)
(2 -1.70835e-13 0)
(1.83241 0.228375 0)
(1.8314 0.229071 0)
(2.09729 -0.176929 0)
(2 7.30398e-14 0)
(1.83343 0.229297 0)
(2.00002 -4.06532e-05 0)
(2 6.29062e-14 0)
(1.99999 1.90154e-05 0)
(1.99998 2.46422e-05 0)
(1.83235 0.228665 0)
(1.8313 0.228757 0)
(2.00056 -0.000867756 0)
(2 -5.86392e-14 0)
(2 2.93514e-14 0)
(1.83003 0.227941 0)
(1.83131 0.2301 0)
(1.83316 0.229714 0)
(1.83184 0.227872 0)
(1.83075 0.230234 0)
(2.12751 -0.241703 0)
(1.85488 0.199418 0)
(2 1.03175e-13 0)
(1.82664 0.22659 0)
(1.83245 0.228169 0)
(1.83177 0.229123 0)
(1.83976 0.223021 0)
(2 3.80497e-13 0)
(1.83207 0.229007 0)
(1.8383 0.223237 0)
(1.83139 0.229664 0)
(2 -1.74615e-13 0)
(1.83073 0.228266 0)
(1.8313 0.22983 0)
(2.04984 -0.0928735 0)
(1.83217 0.229105 0)
(1.83053 0.228396 0)
(2 -4.66006e-14 0)
(1.83177 0.229244 0)
(2.06297 -0.10125 0)
(1.83105 0.228578 0)
(2.04755 -0.0997423 0)
(1.83213 0.229362 0)
(2 -1.23655e-07 0)
(1.83336 0.228767 0)
(1.82392 0.235728 0)
(1.83153 0.228792 0)
(1.8317 0.229198 0)
(1.83487 0.229762 0)
(1.83188 0.229078 0)
(1.83161 0.229449 0)
(1.83063 0.227432 0)
(2 -9.16279e-14 0)
(2.02069 -0.0424898 0)
(1.83083 0.228346 0)
(1.83122 0.228973 0)
(2.05467 -0.104323 0)
(1.83143 0.228855 0)
(2.00864 -0.0124979 0)
(1.89349 0.152379 0)
(1.83058 0.22876 0)
(1.83199 0.22919 0)
(1.82945 0.22881 0)
(2 -4.80907e-14 0)
(1.83102 0.230053 0)
(1.8957 0.148307 0)
(1.83147 0.229104 0)
(2.02717 -0.0485203 0)
(1.83093 0.229808 0)
(1.82702 0.230401 0)
(2 -2.25395e-13 0)
(2.04323 -0.0979728 0)
(2 -5.81083e-09 0)
(1.83032 0.223162 0)
(2 -2.08008e-14 0)
(1.87527 0.164434 0)
(2 4.65029e-09 0)
(1.84476 0.229105 0)
(2.03373 -0.0934171 0)
(2 -3.55919e-14 0)
(1.83109 0.227287 0)
(1.83089 0.234016 0)
(2 -1.01856e-13 0)
(1.82965 0.228658 0)
(1.83727 0.23141 0)
(1.8297 0.23137 0)
(1.8384 0.225389 0)
(1.83393 0.230054 0)
(2 -1.35278e-13 0)
(1.82965 0.228274 0)
(2 2.88645e-14 0)
(2 5.00371e-14 0)
(2 -2.03572e-15 0)
(2.02574 -0.0747445 0)
(1.83201 0.229296 0)
(1.83165 0.228241 0)
(1.83018 0.226175 0)
(1.83139 0.228911 0)
(1.83295 0.227356 0)
(1.82977 0.227854 0)
(1.83684 0.231068 0)
(1.83128 0.229009 0)
(2.02985 -0.0719298 0)
(1.98678 0.0234074 0)
(2 3.45345e-09 0)
(2 5.84412e-14 0)
(1.8254 0.231799 0)
(1.83135 0.228917 0)
(1.83137 0.229062 0)
(1.83115 0.229234 0)
(1.99999 1.65425e-05 0)
(1.92124 0.119039 0)
(2 -1.70082e-07 0)
(1.8289 0.230632 0)
(1.85741 0.20472 0)
(2 -4.09349e-12 0)
(2 -5.62424e-11 0)
(2.06921 -0.193522 0)
(1.83172 0.229115 0)
(2 1.2395e-13 0)
(2 2.02421e-14 0)
(2.09322 -0.260967 0)
(1.83139 0.229136 0)
(2 1.69147e-13 0)
(1.82769 0.228748 0)
(1.83442 0.229413 0)
(1.82955 0.22891 0)
(1.83758 0.220463 0)
(1.83339 0.229671 0)
(2 -1.28128e-10 0)
(2.13003 -0.26832 0)
(1.95769 0.0672958 0)
(1.83131 0.228426 0)
(1.83421 0.230013 0)
(2 6.263e-14 0)
(1.83376 0.230154 0)
(1.83138 0.228915 0)
(1.9109 0.130354 0)
(2.00004 0.00492904 0)
(1.96371 0.059355 0)
(2 -5.29438e-15 0)
(1.82754 0.228046 0)
(1.83146 0.228945 0)
(2 -1.17523e-07 0)
(2 -2.16411e-10 0)
(2.11658 -0.265099 0)
(2 -2.36357e-10 0)
(2 1.33912e-14 0)
(1.83139 0.228788 0)
(1.83132 0.228958 0)
(1.83033 0.22972 0)
(1.83321 0.229761 0)
(1.83183 0.22898 0)
(1.82947 0.23021 0)
(1.82753 0.228387 0)
(1.83467 0.231073 0)
(1.83159 0.228906 0)
(2 4.40989e-14 0)
(2.00155 -0.00267428 0)
(1.83053 0.228925 0)
(1.83172 0.229225 0)
(2.00105 -0.00188194 0)
(1.83132 0.228997 0)
(1.83161 0.228929 0)
(2.12417 -0.265278 0)
(2.15012 -0.260347 0)
(1.83473 0.230132 0)
(1.82927 0.22864 0)
(2 1.56099e-13 0)
(2 1.95311e-13 0)
(1.9991 0.00235079 0)
(1.83067 0.22865 0)
(1.83092 0.230107 0)
(1.83142 0.229053 0)
(2 1.01397e-09 0)
(1.83137 0.22894 0)
(2 -1.21071e-13 0)
(2.0209 -0.100832 0)
(1.82835 0.230826 0)
(1.82735 0.229765 0)
(2 1.39332e-13 0)
(1.92625 0.116375 0)
(1.83185 0.229288 0)
(2 -1.43685e-14 0)
(1.82724 0.22863 0)
(2 -9.95563e-11 0)
(1.83055 0.229078 0)
(1.87715 0.167836 0)
(1.83117 0.229861 0)
(2 1.19835e-11 0)
(1.83175 0.228357 0)
(1.83187 0.230048 0)
(2.11834 -0.264684 0)
(1.83073 0.228975 0)
(2 -1.26765e-07 0)
(1.83181 0.228805 0)
(1.82901 0.229116 0)
(2 7.15122e-09 0)
(2.12142 -0.264096 0)
(1.8327 0.228716 0)
(1.85737 0.202063 0)
(2.00097 -0.00123738 0)
(1.82543 0.220445 0)
(1.83132 0.229282 0)
(2 -5.85523e-12 0)
(1.99752 0.00274307 0)
(1.82903 0.23179 0)
(2.00265 -0.00170326 0)
(1.82989 0.228729 0)
(2 -3.15897e-12 0)
(2 1.38668e-13 0)
(1.83158 0.229914 0)
(2 1.71553e-15 0)
(1.83027 0.229117 0)
(1.8313 0.229046 0)
(2.00126 -0.00220748 0)
(1.87332 0.176946 0)
(2 3.15929e-09 0)
(1.83138 0.229196 0)
(2 1.67682e-09 0)
(2 -7.52481e-13 0)
(2 1.08782e-11 0)
(2 6.78566e-12 0)
(1.83113 0.229164 0)
(2 7.00026e-09 0)
(2 5.36339e-14 0)
(1.83183 0.224091 0)
(2 1.01442e-13 0)
(1.83052 0.228665 0)
(2 2.80489e-10 0)
(1.90249 0.160764 0)
(1.83285 0.228406 0)
(1.83162 0.227966 0)
(2 6.92889e-10 0)
(2 7.63065e-14 0)
(1.9982 0.00431561 0)
(2 2.66944e-12 0)
(1.83147 0.228379 0)