/*--------------------------------*- C++ -*----------------------------------*\
  =========                 |
  \\      /  F ield         | OpenFOAM: The Open Source CFD Toolbox
   \\    /   O peration     | Website:  https://openfoam.org
    \\  /    A nd           | Version:  12
     \\/     M anipulation  |
\*---------------------------------------------------------------------------*/
FoamFile
{
    format      ascii;
    class       volScalarField;
    location    "4.5";
    object      p;
}
// * * * * * * * * * * * * * * * * * * * * * * * * * * * * * * * * * * * * * //

dimensions      [1 -1 -2 0 0 0 0];

internalField   nonuniform List<scalar> 
46253
(
0.861485
1
1
1
1
1
0.826368
1.07298
1
1
0.865611
0.808109
1
1
1
1
1
1
1
1
1
1
1
0.82351
0.820293
1
1
1
1
1.07242
1.13402
0.991682
0.976837
1
1
1
1
1
1.05955
1
0.792611
0.808341
1.00006
1.00065
0.755108
1
1
1
1.56726
1.54227
1.5011
1.5009
1
1.0685
1.00005
0.87701
1.4567
1.45393
1.26832
0.786398
1
0.772254
1
1
1
0.999998
0.999994
1
0.880561
0.756072
0.816437
1.44002
1.43935
1.04666
1
0.823734
1.36766
1.36394
1
1.38835
1.50535
1.40857
1
1.40687
0.79573
1
1.30712
1.30569
1.06633
1
1
0.782712
1
1.48444
1
1.47792
1
1
1.26552
1
1
1
1
1.12938
0.999986
0.80187
0.811627
1.25512
1.25302
0.831086
1.06301
1.42485
1.4212
1
1
1.06684
0.772617
0.785732
1.47744
0.889678
1
1
1.39636
1.3939
1
1.48613
1
0.856667
0.98795
1.35155
1.21988
1.21769
1
0.815116
1.34789
1
1.33247
1.33028
0.886387
1
1.37496
1.20041
1.19855
1.11901
1.37731
1.00115
1.31556
1.31337
1.05923
1
0.828715
1
1.34185
1.33883
1.07628
0.760578
0.855748
1
1.29159
1.00001
1.2897
0.810967
0.874332
1
0.830737
1.32312
0.815163
1.32217
1.69539
1
1.27638
1.27456
1
0.806631
1
0.792135
1.05229
1
1.04357
0.774257
0.999998
1.07355
1.26186
1.2601
1
1.29968
1.29679
0.754177
1
1
1
1
0.768425
1
1
1
1.06166
1
1.09906
1.09677
1
1
1.28413
1.28277
1
0.763864
1.06875
1.24011
1.23859
1
1
1.47779
0.79732
1
1.05706
1
1.11441
0.782122
1.22654
1
1
1.2246
0.775637
1.26877
1.26731
0.780144
1
1
1.07098
1.06873
1.20526
1
1
1
1
1
1
1
1.20271
1.2247
1
1
1
1
1
1
1
1.06721
1
1.20544
1.20427
1.22102
1.0437
1
1.04201
1.24766
1.24503
0.900837
0.807855
1
0.807335
0.782331
0.828001
1.12183
1.04344
1
1
1
1.23355
1.1873
1.23191
1
1
1
1.18559
1
1.00051
1
1.06866
0.919595
1.0178
1.01643
1
1
1
0.773557
0.76959
0.8911
1.10288
1
1.25673
1.25405
0.780819
1
1.24617
1.16914
1
1.16575
0.784647
1.17494
1.46013
1.17362
0.861535
1.45995
1
1.21273
1.21023
1
1.12149
1
1
1.0475
1
1.16309
1
1.16154
0.879733
1.2436
1
1.06856
0.857783
1
0.828468
0.820194
1.05778
1.09837
1
1
1.15125
1.14983
0.972511
0.969742
1
1
1
0.826222
0.897577
1.19415
1.19169
1
1
1
1
1.49704
1
1.13962
1.13813
1
0.88782
1
1.06019
1
0.76897
1
0.814413
1
1.18069
1
1.17927
1
0.815231
1
1
1
1
1
1
1
1.12815
1
1
1
1
1.1266
1
1.23581
0.884442
1
1
1
0.786095
0.995766
0.858399
1.16909
1.07103
1.16744
1
1
1.11664
1.51183
1
1.10568
1.11508
0.764217
1
1.074
1.05408
1.05576
1
1.13082
1
0.918595
0.916811
1.23212
1
1.00011
1
1
1
1
1
1
1.4188
1
1.12276
1
0.770331
1
1
0.901178
1
1
1.10504
1
1.15679
1
1
1.10376
1.15532
1
1.04971
1
1
1
1
1.08304
1.06598
1
1
1.06906
0.860239
1
0.769376
1
1.08761
1.08096
1
1
0.889744
1
0.921856
1.1344
1
0.770809
1
1.3644
1.07111
0.997392
1.14523
1.09248
1
1.09182
1.09304
1.14368
1
1.0907
1
1
1
1
1
1.04498
1
1.07106
0.861384
1.0875
0.910279
1.06342
1.08634
1.0527
0.891864
0.89184
1
1
1
1
0.988038
1
0.927541
0.78202
0.786767
0.930284
1.09183
0.780355
1.08826
1
1
1.13371
1.1167
0.827903
1.13226
1.07649
1.07523
0.872903
0.806967
1
0.871784
1.12595
1
1
1
0.792877
1
1.07037
0.767423
1
1
1.10013
1
1
0.974974
0.86414
1.1287
1
1
1.12982
1
1.12756
1.1345
1.12864
1
1.06038
1.05947
1
1.09077
1.11478
1
1
1.12163
1
0.804204
0.905965
1
1
1.12031
1
1
1
1
0.78023
1
1
1.06057
0.91193
1.05969
0.791749
1
1
1
1
1
0.999999
1
1.08978
0.790326
1
1
1
1
1
1
0.808566
1.11062
1
1.09477
1
1
0.860011
1
1
1
1.11078
1
1
1.10945
1.08966
1.15704
1
1.16057
1.16135
1.16554
1.07782
1
1.0501
1.04829
1.1059
1.07709
1
1
1.04733
1
1.45645
1.04612
1
1.46249
1.05329
1
1.12039
1.12809
1
1
1.07278
1.09692
1
1
1.0431
1.00003
1
1.12407
1.0678
1.27653
1.27863
1.27099
1.27219
0.747783
1.08702
1.26093
0.787805
1.26284
1.25046
1
0.808492
0.839444
1.25277
1
1.2387
1
1.24021
1
1.09573
1.22983
1
1.2312
1.35679
1
1.21939
1
1.22099
1
0.784474
1
0.915343
0.83485
1
1
1.20803
1.21025
1
1.12076
1.19597
1.19835
1.04253
1
1
1.18157
1.0343
1.18279
1
1.09307
1.17166
0.866515
1.17363
1.03343
1.09147
1
1
1
1.16207
1.16384
1.06913
1
1
1.15148
0.937304
1.15322
0.859133
1
1.13427
1.13627
1
1
1
0.791036
1
1.11574
1.15196
1.13735
1
1.11983
1
1.12061
1
1
1.11854
1.11954
1.11029
1.11137
1.08108
1.12936
1.10055
1.13401
1.10256
1
1.05694
1.08563
1.08728
1
0.895536
1.07723
1.07896
1.64968
1
1
1
1.06737
1.07995
1.06911
0.949382
1.08663
1.09055
0.830564
1.16757
1.08932
1.15227
1.15842
1.16663
0.888709
0.883349
1
1.07247
1.47485
1.0229
1
0.839607
1.02119
0.870225
1.08171
0.802545
1
1
1
1.08224
1
1
1
1
1
1.08077
1
1
1
0.904104
0.896027
1
1.05006
0.748562
0.851502
1
1
1
1
1
0.874988
1
1.08692
1
1.15175
1.0297
1.15536
0.876687
1
0.765909
0.784869
1.16445
1
1
1
1
1
1.1588
1.15549
0.983961
0.813258
0.806731
1
0.915998
1
1
1.15903
1.14564
0.997607
1.07403
1.10098
1.00008
1.05473
1.0614
1
1.16232
0.859426
1.08641
1
1.08703
1.0102
1
0.999998
1.09126
1.09878
1
1.00929
0.832762
1
1
1.19084
1.19239
1.08567
1
0.823709
0.820195
0.783697
1.02072
1
1.12018
1.07257
0.862383
1.34741
1
1
1
1.14554
1.14725
1
1.01519
1
1.06528
1.1295
1
1.05085
1.13081
1.06407
1.08935
1.08384
1
1.0833
1.13135
0.839484
1.08411
0.858707
1.09594
1
1
1.09665
1
1
1.09439
1.08675
1
0.997284
0.898372
1.11937
0.889098
0.895411
0.995743
0.885213
0.881518
0.854983
0.852458
1
1
1.07544
1
1
1.09408
0.913442
0.895054
1
1
1.13366
1
1.12202
1.13334
1.2128
1.35294
1.09126
1.0106
1
0.999815
1
1.0905
1.1287
1.07484
0.81668
1
1.05615
1
1.1262
1.12512
1.05515
1
1.11617
1.10308
1.11403
1
1
1
1
1.10371
1.12571
1
1.03719
1
0.882959
1
0.883541
0.846625
0.821959
1
0.989117
0.988765
0.782336
1.40854
1
0.893478
1.06456
1.06545
0.893793
1
1
1.0884
1.06937
1
1
1.12325
0.776997
1.07567
1.09299
1
1
1
1
1
1
1.51781
1
0.85281
0.88221
0.874088
1.06993
0.80739
0.794502
0.816473
0.89881
1.0911
0.848445
0.835153
1.22463
1.23435
1.24385
1.21436
1.22646
1
1.04592
1.23572
1.25621
1.21603
1.08572
1.24661
1.17831
1.20218
1.25772
1
1.26547
1.20426
1.26712
1
1.18646
1.26281
1.27376
1.27503
1.18767
1.30392
1.28542
1.17742
1.31464
1
0.996136
1.17848
1
1.16737
0.999788
1
1
0.980763
1.16818
1
1
1
1.15683
1.16643
1
1
1
1.15818
0.978077
0.82822
1.14025
1
0.982313
1.14185
1.12412
1.12589
0.879948
1.11543
1.11674
1.1064
1
0.825394
1.10721
1
1.09175
0.810162
1
1
1.09284
0.922543
0.825672
1.08217
1.08257
1.07239
1.03867
1.07303
0.798241
1.07312
1
1.14159
1.03755
1.06456
1.04495
1.02353
1.08621
1.17288
1.13633
1.13715
0.805967
1.17088
1.15524
1.15361
0.851796
0.833173
0.813292
1
0.836204
1
0.8306
0.836387
0.825746
1
1.48038
1.08478
1
0.980105
0.973139
1.10434
1.11279
1
1.07065
1.16413
1.17363
1.07838
1.07594
1.15944
1.16574
1.16137
1.15657
1.04839
0.886261
1.13033
1.08964
1
0.984374
0.904153
0.867286
1.02965
1
1.21578
1.15778
0.805032
1
0.964423
0.806436
0.999939
0.964464
1
1.30901
1
0.947792
1.02918
1.0695
1.1558
1.04281
1.04835
0.873706
1.03002
1.00347
1.02826
1.14115
0.782975
0.807639
0.890581
0.849681
0.985815
1.17059
1.14816
1
1.16919
1.25155
0.952122
1.01835
1
1
1
1.11369
1.10417
1
1
0.820842
1.02165
0.8565
1
0.809595
1
1.11114
0.956806
1
1
0.86314
0.86217
1.28125
0.868733
1.13082
1.13113
1.00007
1.17515
1.11953
1
0.959885
1
1.03544
0.95473
0.980061
0.909563
1
1
0.982638
0.973051
1.1304
1.09598
1.11409
1.11471
1
0.951838
1.13253
1.08352
1.08264
0.854292
1.03875
1
0.961555
0.924062
1.12035
0.834482
1.12133
1.15889
1
1
1
0.911245
1.10746
1
1.08287
1.10921
1.08767
1.08209
0.891754
1.08111
0.988261
0.80441
1.20887
1
1
0.96928
1.22729
1
1
1
1.09805
1
1.09958
0.776653
1.03118
0.9726
1
1
0.971638
1
1.303
1.09169
1.29639
1.30491
1
1.11547
1.29863
1.09442
0.973369
1.20612
1
0.806175
1.27689
1.24553
0.972114
1
1.19739
1.28002
1.25848
0.999842
1.12187
0.812461
1.00012
1
0.895269
1.26123
1
1.22137
1.13551
1
1
0.795412
1.23969
0.943588
1.09224
1.26103
1.0138
0.851278
1.27479
1.24062
1.24186
1.08157
0.942919
1
1.13634
1.01312
1.137
1.15661
1
1.21855
1
1
1
1.2181
1
1
0.935152
1.02363
1
0.940252
1.22054
1.1313
1.09529
1
1.03336
1
1.12408
1
1
1
1
1
1.03036
1
1
1
1
1
1
0.757283
1.0073
1
1.0214
1
1
1
1.06127
0.920075
0.84757
1
0.842998
1.13548
1
1
1
1.12648
1.00048
1.16329
1.00016
1.25572
0.884449
0.875915
1
1.2408
1
1
1.24906
1
1.27659
1.27265
1.11719
1.25315
1
1
1.22499
1.22487
0.890506
1.21799
1
1.21932
1.1506
1
1.20976
1
0.941505
0.94649
0.898183
1.20197
0.887274
0.935842
1
1.21105
0.958425
0.958591
1.15419
1.15923
0.835496
1.15984
1.15286
1.0354
1.15619
1.15735
0.936857
1.19409
1.2056
1.05737
1.31153
1.1566
1.38189
1.20185
1.15781
0.935985
1.1614
1
0.963352
1.16049
1.34172
1.30041
0.888277
1.12402
1.15997
1.35158
1.00576
1.35899
0.886744
1.35988
0.921902
1
1.14674
0.86153
1.0035
1.10534
1.3536
1.16324
1.09255
1
1.08643
1.23747
1
1
0.816206
1
1
1.0922
0.922914
1
1.33061
1.31617
1.33329
1
0.8776
1.13176
1.15836
1.15762
0.936843
1.31881
1.09089
1.14974
1.20562
0.942234
1.21447
1.29971
1.18858
1.3031
1.27952
1
0.932678
1
1.04898
1
0.816764
1.05226
1.28227
1.16487
1.09455
1.16757
1.11575
1.23709
1.15146
1.06886
0.902865
1.21262
1
1.2597
1.26182
1
1.21565
1
1
1
1
1
0.930478
1
0.922793
0.819624
0.876476
1.23094
0.819543
0.874945
1.24015
0.853908
1
0.807349
0.921288
0.949991
1
1.05843
1.14614
1
1
1.27084
0.815192
0.904074
0.899481
1.13717
1
1
0.805969
1.0159
1.092
1.20287
0.80184
1
1
1
1.31085
1
1.2256
1.22812
1.08679
0.820186
1.19905
1.20997
1
1.05876
1.21239
1.30029
1.14632
1
1.26434
1
1
1.14405
1.20176
1.09634
1.24897
0.822575
1.25625
1.2682
1.19928
1
1
1.14582
1.0066
0.990004
0.992235
1
0.849471
0.994825
1
1.16969
0.821413
1
1.17885
0.767554
1.18159
1
1
0.990904
1.21188
0.823112
0.881863
0.779418
0.957651
0.934177
0.9463
0.824993
1.12813
0.989815
0.966265
1
1.17159
0.826522
0.824514
0.959143
1.18968
1.17901
0.92479
1
1
0.965587
0.962304
0.808874
1
1.13977
0.825725
1.15028
1.14224
1.15166
0.947608
1.13975
1.20696
1.03298
1.20797
0.798608
0.928538
1.14237
0.949173
1.06115
0.802226
0.923107
1.15347
1
0.931826
1.09792
0.86109
1.28065
0.896021
1.10895
1.16049
1.28041
0.826023
1.12219
0.958298
1
1.15792
1.12345
1.20723
1.23375
1
0.973919
1
1.07023
0.919758
1.14671
0.829523
0.828177
1
0.826707
0.874051
1.11224
1
0.824199
1.09033
1.13408
1.34533
1.09676
0.82302
0.916528
0.957946
1.13997
1.34754
0.838698
1.08105
1.09426
1
1.09612
1
1.08828
1.26777
1.08289
0.867112
1.24289
1.11233
1
0.827934
1.29337
1.15241
1
0.818294
1.29538
1.18568
1.52776
1.09757
1
1.05404
1.28733
1.06352
1
1.27267
1.06588
1
1.1828
1.27534
1.08283
1.32975
1.25334
1.05683
0.940589
1
1
1.256
0.847791
1
0.864366
1.10353
1.18691
1.19305
0.868857
1.09744
0.939755
1
0.8753
1.32305
1
1
1.2082
1.31889
0.867156
0.91372
1.04048
0.813175
0.808714
1.14215
0.938406
1.04142
1.02535
1.14242
1.24338
1.15005
1.02853
1.12819
0.913852
1.10916
1.11484
1.06993
1.07048
0.862864
1
1.13985
1.32601
1.02022
1.21108
1.32303
0.879336
1
1.02102
0.991
1.08172
0.899145
1
1
1.154
1.15101
0.950685
1.11071
1
1
1.11741
1.12524
0.985145
1
1
0.955252
0.997875
1.00011
1.27388
1.10046
0.880857
1.03973
0.993414
1
0.879467
0.985264
0.921676
0.869801
1.13651
1.15523
1.39578
1.19214
1.0939
1.20586
0.966184
1.20526
1.1947
0.806224
1.05765
1.07768
1
1.06174
1
1
0.963669
0.952117
0.977664
0.954639
1.27401
1.15163
1
1
0.971895
1.16227
0.899589
0.929141
0.963963
0.897109
1.10516
1.13481
1.16589
0.903429
0.853754
0.952103
1.3299
0.873382
1
1.02281
1.13075
0.900548
1.33153
0.969513
1.09081
1
1
1.09066
1.00446
1.28742
1
1.00003
1.00086
1
1.13214
0.925234
0.907464
0.906199
0.95749
1.13551
0.927339
1
0.904984
0.912043
1
0.856594
1.14472
0.925972
1.08737
1.09869
1
1
1.13718
0.934914
1.10256
0.910193
0.912163
1.32172
0.905367
1.20798
1
1.10356
1
1
1.13066
1.08688
1.09908
1.10556
1
1.05555
1.12952
0.925567
1.21385
0.918514
1.23693
0.941762
1.22355
1
1
0.89272
0.932968
1.13759
0.92008
0.999994
1
1.11151
0.91615
0.873622
0.918507
1.07587
1.1132
0.976386
1
1.29517
0.999998
1.0779
1
1.22127
1.16362
0.805168
1
1.05789
1
1
1
1
1
1
1.22433
1.21547
1
1.22258
1.20351
1
1.10164
1.28748
1
1.03669
1.10644
1.35792
1
1
0.899309
0.86651
0.933145
1.13499
1.20485
1.22558
1.03238
1.10536
1.15407
1
1
1
1
1.14828
1.04696
1.36732
1.13191
1.15132
0.927805
1.04988
0.897368
0.932685
1.01685
1.32333
0.81779
1.35665
1.09133
1.37543
1.09584
1
1.10741
0.813196
1.14942
1
1
1.13377
0.814294
0.947116
1.02069
0.795928
1.33815
1
0.905322
1
1.0542
0.812123
0.796384
1.15591
0.893171
0.94194
1.08532
1.3263
1.1167
1.34066
1.06275
1
1.15211
1.12306
0.897145
1.28707
1.27072
1.04915
1
1
1.11395
1.3084
1.16649
1.24492
1.32317
1.14765
0.853625
1.15315
1
1.16263
1.14511
1
1.31161
0.986813
0.851567
1.2896
1.10655
1.15281
1.0673
1.26558
1.06419
0.97123
1
0.983567
0.977915
1.26828
1.06181
1
0.986746
1.08277
1.12661
1.15136
1.24878
1.13221
0.962364
1
1.1211
1
0.965473
0.820283
1
1
1.31906
0.793097
1.2021
0.820703
1
1
1.20539
1.14909
1.1505
0.821405
1
1.1639
1
0.949443
1.29426
1.12859
1.10938
0.809166
1.01275
1
1.21694
1.08256
1.12113
0.996518
0.947286
1.12742
1.07905
1.00756
1
1.23165
1.02842
1.28711
1
1.22088
1.20671
1
1.15806
0.928191
1.02399
0.783031
1.23335
1.12557
1.04431
1.12772
1.17427
0.993941
1.18554
1.04008
0.791024
1.43347
0.789467
1
1
0.996936
1.01628
0.786708
1.18836
1.05276
1.17571
1.12682
1.23621
0.997264
1.33002
1.18124
1.1458
0.927579
1.24379
1.10076
0.9978
1.11787
1.05601
1.08337
1.1549
1.30387
1.09757
1.11703
1.13759
1.15756
1.14761
1.14654
1.25399
1.16682
1.10843
1.07539
1.21897
1.1167
1.16493
1
1
1.15077
1
1
1.00866
0.887271
1.11519
1.1263
1.18849
1.2794
1.28713
1
1.04749
1.2934
0.938511
1.15913
0.937078
1.12858
0.818366
0.8629
1.11908
0.889286
1.42688
0.867185
0.95218
1.15523
0.935935
1.0868
1.43192
1.13333
1.31645
1.11583
1.09911
1
1
1.08684
1
1.10535
1
1.12831
1.10085
1.09012
1.10187
1.08373
1.40127
0.940757
1
1.21182
1.12578
1.17164
1.12224
1.40543
1.22421
1.13461
1.05952
1
1.11336
1.07002
1.03151
1.0625
1.1418
0.891232
0.852984
1.3826
1.15267
1.13685
1.13947
1.0724
1.13673
0.969285
1.06048
1.00837
1
1.38584
1.15466
0.967055
0.961698
1.05822
1.0296
1.04531
0.892454
0.934885
1.09493
1.06975
0.951475
1
1.14691
1.10831
0.96644
1.12388
0.97987
1.36324
1
1.04302
1.03326
1
1
1
1
1.3662
1.22416
1.02211
1.23045
0.956343
1
1.04417
0.966107
1.1362
1.11233
1.03723
1.08682
1.08933
1.11964
0.949277
1
1
1.00042
1.17508
1
1
0.963862
1.15085
1.02289
1.34563
1.07101
1.14075
1
1.12071
1.11631
1.12077
1.1576
1.16925
1.07132
1
1.01526
0.935552
1
1.34983
0.997638
1.16122
1.14481
1.16409
1.01761
0.928587
1.04245
1.24834
0.972976
1.18099
1.17188
1
1.11991
1.13971
1.17693
1.08229
1
1
1.12026
0.995984
0.934013
0.806811
1.13569
1
1.3189
1.17042
1.19655
0.938798
0.995608
1.18961
1.19273
1.06128
0.811382
1.3222
1.18485
0.933739
0.981026
0.968059
0.935001
1.2581
0.975403
0.805591
0.969031
1
1.01415
1.11563
1.05063
1.02186
0.949873
1.20653
1.33001
0.925229
1.05631
1.12189
1.05685
0.897639
1.08707
0.948617
1.20241
0.947024
0.923276
1.02723
0.919235
1.11568
1.11968
1.11644
1.11322
1.19997
0.922806
1.10971
0.924362
0.878849
0.961196
1.11075
0.962937
1.2682
1
1.0581
1
0.939798
1.27177
1
1
0.936108
1.22371
1
0.959334
1.11665
1.33147
1.08822
0.999995
0.808857
1
0.918007
0.965953
1.24606
0.954087
1.04709
1.24905
1.04751
1.15038
1.1539
1
0.782051
1
1.23333
1.11029
1.22982
1.02466
0.90976
1.20603
1.23641
1.2072
1
0.906289
0.799359
1.21965
1.42917
1.22447
1.12502
1.01447
1.22245
1.03458
1.11286
1.32265
0.916344
1
0.967825
1.32311
0.931338
0.809968
0.998732
1.20848
0.859919
0.927193
0.841357
0.983477
1.21106
1.12658
1.10701
1
1.03322
1.03307
1.42369
1.22284
1
1.19542
1.13687
1.13547
1.21879
1
1.42259
1.1981
1.15761
0.972179
1.23087
1
1
1.22626
1.18284
1.23951
0.813972
1.23514
1.18516
1
1.03768
1.06948
1.05447
1.16933
0.966383
0.831
0.823987
1.25831
1.17307
1.21587
1.1337
1
1
1
0.970015
1.15771
1
1.00471
0.818631
1.24272
1.10547
1.15056
1.11459
0.949838
1.15916
1.1401
1.00408
1.1743
0.994796
1.01498
1.13806
1
0.795627
1.14854
0.9406
0.783424
1.15505
1.15063
1.24669
1.01053
1.26188
1.25769
1
0.946073
0.828404
1.14517
1
1
1.02962
0.999999
1.25466
0.856502
1.1488
1.13588
1
1.17021
1.15906
1.02766
1.33632
1.04395
0.79278
1.13275
1.15015
0.957743
1.25023
1
0.964928
0.958633
1.03772
1.34081
1.13399
1
0.931533
0.886005
1.14801
1.26595
1.11327
1.13308
1.27081
1.14753
1
1.04883
1.05456
1.12714
1.53684
1.22058
1.32721
1.12267
1.12051
1.14686
1.21112
1
1
1.13633
1.05141
1.12616
1.14669
0.958091
1.07156
1.11511
1.30782
0.961583
1
0.849841
1
0.798919
1.06924
1.11092
1.112
0.991874
1
1
1.27549
1.29667
1
1
1.08529
0.989824
1.10511
1.28529
1.08072
1.06931
1.09389
1.09516
1.1513
0.965532
1
1.07129
1.09641
0.96173
0.966263
0.858603
1.09239
1.15167
1
1.14447
1
1
1.32921
0.962652
1.00388
1.26084
1.08271
1.32592
0.963364
1
1
1.08547
1.33254
1.17459
0.80872
1.11179
1
1.26406
1.08268
1.10894
1
1
1
1
1.12499
1
0.961273
1.06695
1.15022
1.10269
1.07095
1.00012
1.12196
1
1
1
1.13463
1.05593
1.05748
1
1.12857
1.13081
0.886738
1
1
0.867476
0.960368
1
0.911321
1.14786
1
1
1
1
1
1.03793
1
0.979612
1.14472
1
1.18754
1.14537
1
1.04139
0.856657
1
0.897987
1.14298
1
1
1.18511
1.20347
1
1.00016
1
0.868944
0.866071
0.976863
1.16509
0.817841
1.18548
1
1
0.985111
1.18349
1.16842
0.866613
1.16207
1
0.990835
1
1.19816
1.21507
0.985996
1
0.865124
1.00003
1
0.876715
0.864216
1.18057
1.01771
1
1.19577
1
0.96857
0.910053
1.18338
0.80018
1.11192
0.811664
1
0.855945
0.930805
1.17605
0.957662
1.44243
1.1067
1.18105
1.00219
1.00986
0.875033
1.21642
1.1438
0.997173
1
1
0.88802
0.868378
1.11303
0.826143
1.20304
1.41352
1.43716
1
1.20025
1.33221
0.925297
1.21468
1.39113
1.14999
1.01483
0.927834
0.991232
1.20782
1.41804
1.12604
1.21046
1.01163
1.10684
1.10847
0.868181
1.0392
1.37174
0.920759
0.875881
1
1.10637
1
1
0.865131
1.23473
1.39385
1.04389
1
1
1.04097
1.10482
1
1.35504
1
1.23499
1.1089
1
0.84415
1
1.2325
1
1.12893
0.858661
1
1.37607
0.806103
1.23
1
0.872026
1
0.974068
1.02897
1.00112
1.25061
1.02559
0.836549
1.24671
1.07815
0.902852
1.23497
1.32724
1.35918
1.04275
1.24612
1.24327
0.851221
1.07971
1.15211
0.910707
1
1.19095
1
1.32214
0.969443
1.26121
1.26213
0.83448
0.986504
1.02575
1
1.05934
1.13966
0.967971
1.00129
0.944439
1.33099
1.04565
1.01402
1
1.05322
1.25828
0.999999
1
1
1.2567
1.01534
1.11373
1.05459
1.14489
1
1.2723
1.31416
1.20055
1.27438
1.03327
1
1.32678
0.849803
1.26784
1.27571
1.03509
1.19879
1.00439
1
0.937797
1.27261
0.963037
1.30385
1.25338
0.961677
0.964613
0.96088
1.38539
1.27914
0.96574
0.853815
1
1.18779
1.28714
1.12424
1
1.29245
1
1.23237
1.12146
0.935309
1.25127
1.24002
1.09689
0.953017
1.18052
1.219
1.21296
1
1.09517
0.95693
0.90149
1.09529
1.28785
1
1.25671
1.2804
1.22616
0.95725
0.960483
1
1.27108
1.21702
1.35673
1
1.20201
0.906311
1.18841
1.23606
0.950443
1.24249
1.21435
1.05629
1.21533
1.25456
1.12688
1.29517
1.17884
1
1.12228
1.23044
1.22931
1.20162
1.19035
0.866438
1.29189
1.3123
1.27369
1.1197
1.06226
1.3132
1
1.2941
1.21662
1.22624
1.18863
1
1.30763
0.969388
1
1.36467
1.20477
1.17708
1.23762
1
1.29392
0.973601
1
1.19169
1.32007
1.16243
1
1
1.23301
1.17955
1
1.31734
1
1.15236
1.30743
0.988982
1
1.16514
1
1.13725
0.862564
1.00018
1.07291
1.34356
1.15496
1.12932
1
1
1
1.20574
1.33738
0.968003
1.14036
1.12252
1.11483
1.16978
0.85612
1.01722
1.19809
1.00009
1
1.11617
1.12243
1.01847
1
1.225
1.20082
1
1.13105
1.04648
0.893103
1.04777
1.19311
1.16217
1.09985
1.17077
1.14093
0.965242
1.11778
1.08646
1.08148
0.886734
1.14733
1.13203
1
1.3569
1.21022
0.968284
1.08889
1.26761
0.790028
1.15052
0.96569
0.937771
1
1.10326
1.17625
1.19457
1.12957
1.17777
1
0.790844
1.07417
1.10344
1.18857
1.091
1
1
1.17383
1.05994
1.1911
1
0.824291
1
1
0.794415
1.18601
1
1.07585
1.24171
1.11938
1
0.94569
1.11126
1.1849
1.04606
1
1.06237
0.779663
0.96095
1.13121
1.22946
1.16153
1.1469
1
1.19583
1.21666
0.811921
1
1
1.03055
0.805089
1.05018
1.23712
1.14455
1.1821
1.19375
1
1.13821
1.21394
1
0.786395
1.03141
1.0136
0.918696
0.778105
1
0.960324
1
1.19411
1.15439
1
1
1.11718
1.09299
1.12193
1.1999
0.804896
1
1
0.925863
0.791642
1.16022
1.08487
1.31093
0.865871
1.19161
0.902618
1.2068
1
1.15811
1
1.20457
1
1
0.7927
1
1.20385
1.01406
1
0.847192
1.16911
1.11685
0.862586
1.32648
1.15598
1
1.10597
1.17985
1
1.20172
1
1.16997
1.19621
1.16694
0.952122
1.14999
1
1.10846
1.1244
1.43264
1.2286
0.821075
1
0.946844
0.821456
1.22046
0.949067
1
1
0.96935
1.13424
1
0.826015
1.14117
1.17805
1.13635
1.21143
0.80632
1.21814
0.997102
1.03271
1.07513
0.999852
1.00058
0.947673
1.1755
1.06854
0.932777
0.959563
1.19649
1
1.20914
1.02967
1
1
0.911895
1
1.22903
1.22209
1.11574
1
1.18718
1.22703
1.093
0.925454
0.851764
1
1.21982
1.21835
1.31874
0.784891
1.18424
1.09452
1.10646
0.929824
1.10182
0.852684
0.804951
0.806633
0.946205
0.808638
1.21772
1.20058
1
1.11266
1
0.878929
0.978583
1.27423
1.26002
1
1.3142
0.816714
0.963751
0.798555
1.19558
1.12531
0.809086
1
1.12584
0.973971
1.23501
1.15383
1.1894
1.24339
1
1
1
1.10409
1.09583
1.19269
0.877929
1.31226
0.859016
1.23599
1.01915
1.26362
1.10211
1.27734
1.18408
1.1273
0.958678
1
1
0.799231
1
1.20665
1.02136
0.892094
1.0863
1.05496
0.995878
1.10729
1
1.11786
1
1
1.13187
1.20475
1.06251
1.23887
0.938822
1.20206
1.13542
1.34857
0.93019
0.890834
0.789788
1
0.967006
1.20177
1.04658
1.05096
1.10677
1.04764
1.0563
1.04856
1
1.10743
1.1048
0.902534
0.999978
1.11054
0.93105
1.01065
0.962009
1
0.831344
1.09473
1.07867
1.01233
0.967556
1
1
1.05024
1
1
1.10396
1.16208
0.959576
0.923814
0.900585
1.10808
1.07974
1.21557
1
1
0.864248
0.927796
1.05253
1.02373
1.11967
1
1.09241
0.809229
1.05058
0.951945
0.918283
0.805058
1
1.15753
1.10666
1.09479
1.21274
0.998349
1
1
1.32815
1.08236
1.2163
1.08719
1.12106
1.24735
1.01988
0.992229
1
1.07217
1.0587
1.21372
1
1.04774
0.943451
0.857429
1
0.991625
1.12052
0.814493
0.954393
0.864919
1.11768
1.19782
1
1.15895
1.08314
1.25789
1.1124
1.03134
0.812498
0.802741
1.07134
1.24227
1.11105
0.916369
1.10111
1
1.13385
1
0.852518
1
1.23787
1.12269
0.806799
1
1.03479
1.22548
0.950244
1
1.19458
0.93788
1
0.947508
0.913707
1.09732
0.936097
1.12963
1.18314
0.855519
1.22299
1.07936
1.09538
0.851025
0.93093
1
1.12662
0.975141
0.983456
0.962328
0.96658
1
0.806934
1.13634
1.01076
0.996188
1.06906
0.925218
1
1.12037
1.12058
1.13647
1.11098
0.92635
0.938933
0.92947
1.15365
1.10852
1.12826
0.954512
1.15387
1.11869
0.995393
0.888222
1
0.92332
1.15706
1
1.08646
1
0.914369
1.0096
1
1.13391
1.10847
1
1.16135
1
0.980139
1.14749
1.15035
1.14692
1
0.803553
1
1.17306
1.37902
1.06445
1
1.08929
1.21653
1.10968
1.1408
1.00716
0.870485
0.969956
1.00734
1
1.28596
0.935697
1
0.925888
1.15129
0.869209
1.06605
1.25979
0.839717
1.2372
0.931947
1
1.14354
1.22279
1.16844
1.09736
0.992241
1.00003
1.18976
0.999937
0.934691
1
1.23484
1.11279
0.917933
1.00019
1.11895
1.14834
1.21932
1
1.19345
1.37261
1.22682
1.07099
0.953847
1.18587
0.946939
1.09637
1.26704
1
1
0.939971
1.01013
1.17787
1.13633
1.21329
0.943844
0.922668
1.19556
0.86923
1
0.926178
0.994348
1.22534
1
0.946047
0.955924
0.862212
1.09964
1.22084
1
1
0.963983
0.81509
1.18087
0.771473
1.15537
1.12412
1.18737
0.841595
1.29774
1.14834
1.2327
1.26708
0.827224
1.02976
1
0.92312
1.34932
1.21762
1
0.91922
1.00552
0.836844
1.19169
1.13816
1.15786
1.07238
1.15089
0.871188
1.08973
1.25097
0.975727
1.27061
1.25483
1.14789
1.27766
1.24151
1.29516
1
0.930846
1.23092
1.21104
1
0.932369
1.08839
1.08191
1.24647
1.07476
1.20588
0.808319
1.09915
1.07481
1
1.10049
1.29855
1
1.1724
1.07626
0.933476
0.967729
1.08687
1
0.968683
0.913335
1.11377
1.09943
1.02275
1.13266
1.18005
1.08633
1.08538
1
1.28969
0.911129
1.1831
1.10436
1.02199
1.11596
1.18949
1.3407
1
1.10778
1.20022
1.26551
1
1.25262
1.27389
0.963249
1.23679
1
1.22684
1.29125
1.08908
1
1.18782
1.02204
1.27986
1.29425
1.20133
1.15957
0.886786
1.12853
1.19949
1
1
1.24402
1.21537
1.23841
0.924239
1.14448
0.908522
0.869774
1.04228
1.01717
1.02371
0.989598
0.962622
1.11151
1.14145
1.17013
0.909015
0.890619
0.962512
1.17317
1.01849
1.05487
1.27574
1.17759
1
1.00769
1.07958
1.19717
1.28103
1.20728
0.92521
1.20067
1.02262
1.26765
1.18714
1.10951
1.30034
1
1.17195
1.06393
0.924687
0.85275
1.02032
1
0.865161
1.0691
1.15308
1.06781
0.862001
1.06866
1.25029
1.13361
1.19673
0.908878
1.33431
1.06923
0.983348
1.14504
0.82837
1
1.29649
1.21593
1.14718
1.34643
1.05805
1
1
0.907968
1.08273
1.13314
1
0.914053
0.801637
1.14813
1.14491
1.02368
0.924349
1.1403
1.2052
1.14762
1.15801
1
0.926315
1.05991
1.13433
1.30028
1
1
1.04306
1.10606
0.999413
1.25257
1.15113
1.03015
1.07113
1.25188
1
0.999998
0.998788
0.986358
0.903574
1.15865
0.982108
0.898663
1.0749
1.21355
1
1.14695
1.17607
1
0.817923
0.983074
1.16324
1.05197
1
0.868779
0.814957
0.981549
1.04972
0.826507
1.12987
1.12514
1.03514
1.09502
1.07738
0.882174
0.985584
1.09362
1
1.11018
1.09097
1.13635
1.22163
0.880253
0.893096
0.98157
1.0071
1
1.0837
0.999998
1.16782
1.21086
0.819478
0.882381
0.882048
0.891562
1
0.983249
1
1.1304
0.866795
1.0128
0.877512
1.14427
0.879665
1.23711
1.06933
1.37479
1
1.05443
0.876643
0.907146
0.87555
1.254
1.24652
1
1.13306
0.878386
1.29509
1
1.01536
1
1.22914
0.982454
1.06948
1.02792
1
0.825742
0.962704
0.878129
1.13086
1
1
1.19995
1.05409
1.11157
1.11249
1.1184
1.22797
1.20652
1.25018
1.1033
1.0966
0.860425
0.904893
1.20732
1.22697
0.999756
1
0.913097
0.91913
1.02823
1.23862
0.871208
0.999995
1.04076
1
1.02527
1.02676
1.04526
0.949457
0.967637
0.820221
1.19908
1.00007
1
0.807324
1
0.876808
1.048
1.21567
1
1.04882
1.05612
1
1
0.866068
1.12303
0.871215
1.19776
1.12057
0.834508
0.931904
1.16181
0.971218
1.03824
1.26899
1.33557
0.999999
1.22276
1.17631
1.04503
1
1.38205
0.826294
1.19693
1.23448
1
1.04512
1.20919
1.10359
1.27742
1.25833
1
0.987735
1
1
1.122
1.06231
0.924219
1.18159
0.997058
1.05496
0.941053
1
0.990008
1.15446
1
1
1.24088
1.18565
0.820556
1.28426
1
1.13107
0.981373
1.19355
1
1.24274
1.02019
1.21172
1.21092
0.986304
1
1.05548
0.832288
1.15275
1.05179
1
1.14255
1.23863
0.930355
1.21881
1.09761
1.18727
0.973554
0.952862
1.03388
0.953149
1.37525
1.07442
1
1
1.28426
1.34909
1.23237
1
1.04985
1.03795
1.20798
1.03723
1
1.20924
0.878497
1
1.0408
0.951767
1.11266
1
1.15653
1.25513
1
0.813702
1
1.10059
0.936394
1
1.07247
0.967561
1.13573
1.01544
1
1.14455
0.798271
1.07691
0.965383
0.896005
1.04035
1
1.07194
1.15444
1.14714
1.26359
1
0.801017
1.00007
1.08139
1.1652
1.38877
1
0.871125
1
1.13886
1
0.992723
1.10815
1.1315
0.799056
1
1.18012
0.869657
0.972697
1.2545
1.17325
1.24086
1.15368
1.07854
0.932221
1
1
1.03061
1.15374
1.15628
1.19331
1
1.32619
1.1551
1.02751
0.927259
1.04598
1.25418
1
1.10012
1
0.967867
1.25161
1.2282
1.2345
1.29796
0.889
1.1819
1.37231
1.16209
1.33033
1.23303
1.18398
1.17058
0.988575
0.969248
1.01668
0.869594
1.18527
0.966233
0.998477
1.09815
1.13221
1
1.12814
1.23066
1.1704
1.19116
1.27731
1.10992
1.0275
0.936941
1.11822
1.22667
0.951176
0.989263
0.850777
1.30863
1.23083
1.25537
0.959679
1
0.831621
1.26438
0.841174
1.12826
1.07037
1.13209
1.17934
1.2103
1.11928
0.855059
1.10051
1
1.10638
1.3132
1.10751
1.19959
1
1
1.16388
0.823832
1.21686
1.24263
1.2534
0.828573
1.12369
1.08314
1.23228
1.03509
1.17265
1.17204
1.11622
1.18887
0.853825
1.10652
1
0.945122
0.915631
0.92715
1.14733
1.24848
1.20997
0.986723
1.12428
1
0.976291
1.21013
1.06248
1.12095
1.12939
1.17432
1.02936
0.84292
0.859542
1.22329
1.09209
1.01966
1.13251
1.07846
1.19707
1.37536
1.12402
1
1.04149
1.17448
0.878385
1.20692
1.12157
1.0381
0.793455
1.02096
1.1128
0.912989
1.03128
1.07846
1.15913
1.1773
1.06016
1.21039
0.79862
1.19548
1
1.38959
1
1.10366
1
1
0.999992
1.00001
1.28338
1.12942
1.2206
1.12093
1.21441
1.08836
1.20538
1.08181
1
1
1.11622
1.10489
1.20738
1
0.954833
1.18914
1.10473
1.14709
1
0.787216
1.00014
0.857306
0.787906
1.21114
0.939884
1
1.14368
0.918993
1.19705
0.831358
1
1.21722
1.19562
0.875847
1.10286
1.14324
0.800068
1.1996
0.839995
1.00079
1.21797
0.841453
0.844468
0.91808
0.849157
1.20462
1
1.15653
0.862032
1.07999
1.23275
1
1.15761
1.15881
1.06198
1.19217
0.850058
0.864726
1
1.28179
0.851496
0.840278
1.10929
1.18474
1.17592
1.2435
1
1.2009
1
1.17869
1
1.1546
1.05906
0.80305
0.911855
1
1
1
1.18374
1.36986
1.16814
1
1
1.1668
1.06406
1
1.34594
0.85796
1.20629
1.12321
0.934638
0.939548
1.13614
1.05317
1.17048
1.18907
1
1.34866
0.920658
1.13471
1
0.923282
1
0.852634
1.1884
0.85384
0.981079
1.19905
1.02884
1.19369
1
1.00174
0.930321
1.23052
1.04587
1
0.958113
1.35547
1
1.25685
0.978356
0.897717
1.19123
1.28736
0.922747
0.857406
1.27052
0.941178
1
1.16563
1
1.00671
1.13845
1
1
1
1.09557
0.945227
0.885588
1.25674
1.24413
1.18097
0.965822
1.11307
0.883236
1.20972
1
0.962355
0.871392
1.20165
0.873506
1.10733
0.98009
1.28913
1.17895
0.923716
1.12611
0.891545
1.02822
1.1288
1
1.07742
1.09729
0.881359
0.91831
1.19799
0.909234
1
1
1.20224
1.10079
0.928822
0.833536
1.10984
1.19444
1
1.11286
1.10878
0.960295
0.984893
1.04658
1.20523
1
0.94038
1.17895
1.0184
0.851129
0.917505
1.20398
1.17867
1.30728
1.00006
1
1.18664
1
1
1.13769
1
1.1829
1.33371
1.0049
1
0.960814
1
0.923798
0.895967
1
1.00437
0.956697
0.97512
1.35582
0.976181
1.34066
1.05119
1.21343
1.03072
1.19589
1.34841
1
1.23307
0.923851
1.3455
1.11716
1
1.23549
1.24215
0.962333
1.04864
1.12287
1.00881
0.804888
0.888024
0.976506
1.02578
1.16117
1
1.11431
1
0.976044
0.884507
1
1
1
0.95369
1
0.960169
0.854308
1.01658
1.11852
1.2638
0.967094
1.0788
0.996745
1.33927
1.19116
0.991652
1
1.22344
1.32001
1
1
1
1.25538
1.35003
1.15049
1
1
0.966241
1.00001
0.871855
1.08239
1.23025
1.00072
1.07141
1.15502
1.26179
1.20777
1.23456
1
1
1.14008
1.22111
0.82844
1
1.30715
1.28609
1.22861
0.828263
1.23193
1.05334
1.10944
1
1.32869
0.997812
1.12552
1.01847
0.922965
1.2132
1.13784
1
1
1.21916
0.802384
1.13437
1
1.13419
1.09014
1.30725
1
1.34413
1.10776
1
1.00002
1.09106
1.20477
0.982792
1.2477
1
1.27979
1.20302
1.20841
1.01566
1.29389
0.861067
1.11377
1
1.25616
0.862296
1.30024
0.894864
0.986636
0.993501
0.862028
0.98869
1.0075
1.09934
1.09998
1.31624
1.08555
0.894259
0.986664
0.862449
1.12526
1
1.29426