/*--------------------------------*- C++ -*----------------------------------*\
  =========                 |
  \\      /  F ield         | OpenFOAM: The Open Source CFD Toolbox
   \\    /   O peration     | Website:  https://openfoam.org
    \\  /    A nd           | Version:  12
     \\/     M anipulation  |
\*---------------------------------------------------------------------------*/
FoamFile
{
    format      ascii;
    class       volScalarField;
    location    "7.46";
    object      rho;
}
// * * * * * * * * * * * * * * * * * * * * * * * * * * * * * * * * * * * * * //

dimensions      [1 -3 0 0 0 0 0];

internalField   nonuniform List<scalar> 
22702
(
1.40001
1.40001
1.25701
1.40001
1.45
1.40001
1.84041
1.40001
1.40001
1.017
1.83833
1.84065
1.40001
1.842
1.27973
1.40001
1.40001
1.40001
1.83914
1.40001
1.84198
1.40001
1.84018
1.03955
1.84451
1.0489
1.40001
1.83857
1.03266
1.04048
1.40001
1.84009
1.40001
1.40001
1.40001
1.80897
1.83885
1.83982
1.40001
1.40001
1.03373
1.40001
1.62198
1.40001
1.83797
1.40001
1.40001
1.40001
1.40001
1.02713
1.40001
1.02473
1.40001
1.83722
1.40001
1.83851
1.40001
1.40001
1.40001
1.40001
1.04065
1.40001
1.40001
1.03189
1.40001
1.04023
1.40001
1.40001
1.40001
1.03747
1.40001
1.84121
1.67129
1.40001
1.84155
1.86117
1.04568
1.84134
1.03325
1.40001
1.83848
1.03092
1.83866
1.83855
1.40001
1.40001
1.40001
1.40001
1.32342
1.02855
1.83855
1.40001
1.40001
1.02944
1.40001
1.84298
1.02955
1.40001
1.40001
1.40001
1.40001
1.62073
1.8387
1.04555
1.40001
1.40001
1.50754
1.40001
1.03359
1.40001
1.84133
1.83859
1.40001
1.40001
1.03339
1.03791
1.02192
1.40001
1.40001
1.40001
1.40001
1.40001
1.30312
1.40001
1.77769
1.4395
1.84206
1.40001
1.842
1.8389
1.84155
1.83736
1.40001
1.0447
1.40001
1.03339
1.40001
1.40001
1.40001
1.40001
1.8383
1.40001
1.40001
1.40001
1.40001
1.84337
1.40001
1.42791
1.40001
1.40001
1.40001
1.40001
1.02671
1.40001
1.41126
1.40001
1.03069
1.40001
1.40001
1.40001
1.83801
1.40001
1.84099
1.03017
1.04211
1.83929
1.83949
1.40001
1.47479
1.65029
1.40001
1.83622
1.03243
1.8097
1.40001
1.40001
1.40001
1.40001
1.8418
1.76652
1.40001
1.83977
1.02216
1.83729
1.40001
1.01
1.40001
1.026
1.04933
1.3998
1.40001
1.40001
1.83998
1.40001
1.40001
1.84078
1.40001
1.83936
1.83993
1.02496
1.40001
1.40001
1.02202
1.84173
1.40001
1.40001
1.40001
1.84174
1.40001
1.03474
1.40001
1.40001
1.84167
1.84191
1.84062
1.40001
1.40004
1.40001
1.40001
1.40001
1.84196
1.40001
1.01781
1.85369
1.84108
1.84007
1.40001
1.40001
1.40001
1.0159
1.84195
1.61885
1.40001
1.84292
1.01405
1.01468
1.84301
1.84356
1.40001
1.84982
1.02562
1.79091
1.40001
1.40001
1.40001
1.40001
1.84215
1.40001
1.65951
1.44184
1.40001
1.40001
1.84068
1.03119
1.15992
1.40001
1.84391
1.04935
1.84534
1.40001
1.40001
1.40001
1.40001
1.40001
1.40001
1.40001
1.03008
1.16134
1.01275
1.84162
1.40001
1.40001
1.40001
1.40001
1.79141
1.40001
1.02818
1.40001
1.00897
1.01977
1.84217
1.03525
1.84187
1.40001
1.40001
1.40001
1.39747
1.01016
1.02532
1.4
1.40001
1.00912
1.40001
1.83884
1.03939
1.40001
1.40001
1.8377
1.02232
1.40001
1.8418
1.04349
1.8407
1.40001
1.0121
1.39772
1.40001
1.40001
1.40001
1.02334
1.40001
1.40001
1.4
1.40002
1.41357
1.67369
1.40001
1.05742
1.40001
1.40001
1.40001
1.40001
1.40001
1.40001
1.40001
1.8377
1.40001
1.83881
1.40001
1.40001
1.40001
1.03189
1.40001
1.84317
1.02452
1.40001
1.75508
1.40001
1.40001
1.83661
1.40001
1.40001
1.40001
1.82824
1.40001
1.40001
1.83581
1.83629
1.40001
1.49706
1.40001
1.40001
1.03243
1.40001
1.40001
1.40001
1.02897
1.40001
1.40001
1.40001
1.40001
1.04421
1.40001
1.40001
1.40001
1.40001
1.40001
1.02344
1.40007
1.84076
1.40001
1.39999
1.8398
1.83896
1.40001
1.40001
1.03217
1.20553
1.8391
1.40001
1.40001
1.40001
1.84037
1.03739
1.40001
1.84145
1.40001
1.40001
1.09755
1.11363
1.40001
1.02252
1.02054
1.40001
1.40001
1.40001
1.40001
1.40001
1.40001
1.40001
1.84077
1.50782
1.80857
1.02741
1.30856
1.83824
1.40001
1.84222
1.8391
1.01822
1.17142
1.40001
1.03276
1.40001
1.84571
1.40001
1.40001
1.40001
1.40001
1.84171
1.40001
1.40001
1.40001
1.40001
1.40001
1.40001
1.40001
1.5559
1.8389
1.40001
1.84177
1.40001
1.40001
1.02833
1.40001
1.40001
1.40001
1.40001
1.84178
1.73814
1.40001
1.40001
1.01842
1.84111
1.84174
1.40001
1.84182
1.84081
1.84188
1.40001
1.23181
1.40001
1.84197
1.38403
1.84186
1.40001
1.01663
1.39883
1.83798
1.40001
1.40001
1.40001
1.40001
1.03557
1.84233
1.80142
1.40001
1.84478
1.84092
1.83906
1.40001
1.59971
1.84196
1.40001
1.40001
1.70572
1.46114
1.84151
1.33064
1.84151
1.40001
1.84178
1.84188
1.84179
1.84138
1.40001
1.84033
1.313
1.2895
1.40001
1.4
1.40001
1.40001
1.8404
1.40001
1.40001
1.40001
1.40001
1.40001
1.83873
1.40001
1.40001
1.39582
1.84177
1.78516
1.40001
1.76546
1.40005
1.40001
1.40001
1.84201
1.40001
1.39711
1.40474
1.40001
1.84189
1.40001
1.8406
1.40001
1.40001
1.72712
1.40001
1.84052
1.40003
1.40001
1.84123
1.40001
1.84177
1.40001
1.40001
1.40001
1.84164
1.40001
1.84189
1.40001
1.84193
1.83719
1.84132
1.83929
1.40001
1.83606
1.8405
1.40001
1.03838
1.81412
1.7177
1.40001
1.84144
1.40001
1.03152
1.04391
1.40001
1.40001
1.40001
1.40001
1.40001
1.02991
1.40001
1.84167
1.51772
1.84188
1.40001
1.40001
1.40001
1.40001
1.40001
1.84188
1.40001
1.84423
1.66399
1.17136
1.40001
1.40001
1.53009
1.51485
1.40001
1.40001
1.56358
1.40001
1.02546
1.84179
1.84164
1.40001
1.40001
1.40001
1.83652
1.40001
1.40003
1.83737
1.8421
1.34047
1.40001
1.40001
1.02775
1.80225
1.40001
1.40001
1.40001
1.40001
1.40001
1.84177
1.83625
1.40001
1.84227
1.84068
1.84103
1.40001
1.40001
1.40001
1.40001
1.04707
1.83808
1.40001
1.40001
1.80194
1.84045
1.40001
1.81506
1.83981
1.40001
1.40001
1.40001
1.40001
1.40001
1.84174
1.40001
1.40001
1.40001
1.40001
1.83946
1.40001
1.84008
1.0289
1.40001
1.02935
1.40001
1.40001
1.40001
1.39679
1.02637
1.3991
1.40001
1.40001
1.40001
1.46119
1.40001
1.40001
1.25316
1.40001
1.40001
1.40001
1.40001
1.40001
1.40001
1.40001
1.4
1.32945
1.4
1.40001
1.39741
1.40001
1.03472
1.40001
1.40001
1.40001
1.40001
1.73145
1.40001
1.40001
1.40001
1.40001
1.01051
1.40001
1.40001
1.8158
1.83787
1.4
1.40001
1.40001
1.2899
1.40001
1.40001
1.40001
1.40001
1.40001
1.40001
1.34296
1.41182
1.84211
1.40001
1.40001
1.40001
1.83904
1.28765
1.40001
1.40001
1.40001
1.83892
1.8367
1.40001
1.40001
1.40001
1.40001
1.40001
1.40001
1.40001
1.40001
1.40001
1.02739
1.40001
1.40001
1.83836
1.03555
1.40001
1.8374
1.40001
1.02527
1.40001
1.40001
1.02685
1.40001
1.40001
1.40001
1.40001
1.40001
1.40001
1.40001
1.83315
1.84102
1.40001
1.40001
1.40001
1.40001
1.80266
1.40001
1.53938
1.02998
1.40001
1.40001
1.40001
1.40001
1.40001
1.40001
1.40001
1.43724
1.40001
1.40001
1.64147
1.40001
1.40001
1.40001
1.76523
1.40001
1.40001
1.40001
1.40001
1.03634
1.40001
1.40001
1.00277
1.03282
1.40001
1.40001
1.8412
1.40001
1.38228
1.40001
1.40001
1.40001
1.7069
1.03636
1.40001
1.03988
1.40001
1.17268
1.40001
1.40001
1.40001
1.84201
1.40001
1.40001
1.84197
1.40001
1.40001
1.40001
1.84217
1.40001
1.40001
1.84257
1.40001
1.40001
1.01694
1.40001
1.53782
1.40001
1.40001
1.83788
1.83885
1.69569
1.79527
1.40001
1.017
1.40001
1.40001
1.82186
1.40001
1.04407
1.40001
1.40001
1.40001
1.84153
1.40001
1.40001
1.40001
1.40001
1.6659
1.40001
1.80163
1.84205
1.02777
1.40001
1.40001
1.05165
1.04971
1.40001
1.40001
1.40001
1.71321
1.73596
1.40001
1.40001
1.40001
1.40001
1.40001
1.40001
1.40001
1.59061
1.83756
1.40948
1.40001
1.83656
1.04716
1.40001
1.40001
1.40001
1.64035
1.40001
1.48545
1.40001
1.803
1.8396
1.40001
1.01478
1.40001
1.83681
1.40001
1.40001
1.84174
1.81405
1.40001
1.84108
1.40001
1.01973
1.40001
1.40001
1.40001
1.84065
1.833
1.7888
1.40001
1.84365
1.84094
1.40001
1.84203
1.40001
1.83973
1.40001
1.0476
1.36996
1.03145
1.40001
1.40001
1.40001
1.40001
1.40001
1.84184
1.40001
1.84108
1.40001
1.40001
1.40001
1.81932
1.40001
1.04181
1.84149
1.40001
1.00498
1.0643
1.05814
1.40001
1.61954
1.43938
1.84341
1.84096
1.40001
1.4
1.40001
1.40001
1.84164
1.40001
1.40001
1.84157
1.84095
1.40001
1.55275
1.39999
1.40001
1.39678
1.83882
1.25561
1.40001
1.21814
1.02599
1.02617
1.3412
1.83957
1.83538
1.48612
1.84211
1.84116
1.40001
1.40001
1.83896
1.83949
1.84217
1.83909
1.40001
1.84172
1.04198
1.8396
1.84245
1.83772
1.84277
1.25576
1.28775
1.32487
1.8425
1.35218
1.84304
1.40001
1.40001
1.84361
1.84041
1.40001
1.03624
1.84258
1.84201
1.40001
1.84175
1.84177
1.40001
1.84152
1.00934
1.84119
1.83839
1.8373
1.84757
1.40001
1.40001
1.40001
1.84226
1.68854
1.05419
1.84208
1.00581
1.84233
1.40001
1.40001
1.40001
1.40001
1.83857
1.84227
1.40001
1.40001
1.84156
1.01012
1.84104
1.02683
1.40001
1.83869
1.40001
1.01788
1.84345
1.11767
1.40001
1.84122
1.84454
1.84248
1.40001
1.40001
1.62276
1.8437
1.02803
1.8414
1.40001
1.84191
1.27889
1.8425
1.02646
1.40001
1.84215
1.08808
1.84358
1.02416
1.40001
1.84155
1.40001
1.84107
1.40001
1.6549
1.82473
1.74747
1.02138
1.40001
1.84191
1.40001
1.84175
1.40001
1.84219
1.40001
1.40001
1.84242
1.38062
1.84429
1.01091
1.79167
1.40001
1.71243
1.40001
1.84177
1.84191
1.84201
1.40001
1.79727
1.84231
1.809
1.66731
1.84149
1.40001
1.69311
1.40001
1.84196
1.40001
1.45626
1.40001
1.80954
1.40001
1.84199
1.82079
1.82011
1.40001
1.83301
1.0494
1.40001
1.02424
1.40001
1.40001
1.40001
1.84024
1.40001
1.84182
1.40001
1.40001
1.40001
1.84213
1.83319
1.76372
1.83977
1.83959
1.03467
1.84969
1.83838
1.40001
1.78331
1.84174
1.82186
1.40001
1.83562
1.83942
1.40001
1.84628
1.84095
1.84168
1.84284
1.40001
1.40001
1.40001
1.8422
1.03736
1.40001
1.84178
1.40001
1.40001
1.03802
1.40001
1.40001
1.84165
1.84197
1.40001
1.84164
1.84888
1.84227
1.36837
1.84161
1.40001
1.84176
1.84169
1.75518
1.40001
1.40001
1.40001
1.84047
1.84136
1.8415
1.33906
1.40001
1.84838
1.84128
1.84052
1.40001
1.84146
1.84183
1.84153
1.84859
1.40001
1.84215
1.83978
1.78274
1.84161
1.84749
1.40001
1.83334
1.83659
1.84159
1.84046
1.84278
1.04369
1.84213
1.84026
1.40001
1.8416
1.84155
1.84187
1.84206
1.40001
1.84155
1.84149
1.40001
1.84234
1.77065
1.40001
1.40001
1.40001
1.8413
1.85015
1.40001
1.40001
1.63921
1.40001
1.84182
1.40001
1.40001
1.8419
1.84265
1.8422
1.84099
1.40001
1.40001
1.40001
1.71298
1.40001
1.84228
1.40001
1.40001
1.83877
1.83863
1.40001
1.84155
1.0331
1.84142
1.83981
1.09614
1.40001
1.0243
1.7843
1.84353
1.84287
1.84191
1.02842
1.8424
1.84372
1.02941
1.00003
1.40001
1.84322
1.84219
1.40001
1.40001
1.84171
1.40001
1.8462
1.40001
1.78516
1.40001
1.60423
1.84208
1.84448
1.71181
1.79372
1.83956
1.84203
1.81343
1.40001
1.03882
1.84552
1.84155
1.84536
1.40002
1.40001
1.40001
1.8461
1.40001
1.84148
1.84213
1.15643
1.40001
1.84222
1.39995
1.40001
1.40003
1.40005
1.84183
1.84102
1.39849
1.40001
1.40001
1.84184
1.84376
1.84192
1.84256
1.84296
1.03718
1.77277
1.40001
1.83872
1.84234
1.84173
1.83083
1.40001
1.84158
1.82941
1.8429
1.40001
1.84062
1.84015
1.25603
1.84157
1.83992
1.40001
1.84178
1.21981
1.84052
1.25953
1.84155
1.40001
1.84176
1.8429
1.84151
1.84217
1.84167
1.83748
1.84228
1.83869
1.40001
1.32904
1.84087
1.84175
1.2231
1.84186
1.37447
1.66834
1.84163
1.84066
1.84001
1.40001
1.84421
1.68951
1.84049
1.31584
1.84391
1.83993
1.40001
1.25737
1.40001
1.83466
1.40001
1.70671
1.40001
1.83446
1.266
1.40001
1.83969
1.83654
1.40001
1.8408
1.84378
1.83815
1.83281
1.83227
1.40001
1.83758
1.40001
1.40001
1.40001
1.29541
1.84194
1.84224
1.84546
1.84151
1.84561
1.84323
1.84518
1.8418
1.3071
1.43031
1.40001
1.40001
1.84092
1.84161
1.84168
1.84163
1.40003
1.63433
1.40001
1.84598
1.80041
1.40001
1.40001
1.14824
1.84163
1.40001
1.40001
1.01815
1.84181
1.40001
1.83759
1.84216
1.83949
1.82439
1.8421
1.40001
1.02622
1.5098
1.84231
1.84191
1.40001
1.8411
1.84159
1.61735
1.41051
1.50091
1.40001
1.84014
1.84172
1.40001
1.40001
1.02792
1.40001
1.40001
1.8414
1.8417
1.84082
1.84188
1.84153
1.83768
1.84244
1.84065
1.84185
1.40001
1.39622
1.84118
1.84213
1.39682
1.84172
1.84153
1.03173
1.02957
1.83974
1.84962
1.40001
1.40001
1.40141
1.84234
1.84135
1.84174
1.40001
1.84165
1.40001
1.25656
1.8462
1.84585
1.40001
1.60233
1.84114
1.40001
1.8398
1.40001
1.8423
1.70396
1.84321
1.40001
1.84184
1.84401
1.02769
1.84146
1.40001
1.84118
1.83795
1.40001
1.03753
1.83862
1.76993
1.39768
1.82587
1.84158
1.40001
1.39219
1.8404
1.39763
1.84138
1.40001
1.40001
1.84054
1.40001
1.83968
1.84159
1.39637
1.74957
1.40001
1.84143
1.40001
1.40001
1.40001
1.40001
1.84155
1.40001
1.40001
1.83526
1.40001
1.84154
1.40001
1.68425
1.8422
1.84171
1.40001
1.40001
1.39229
1.40001
1.84071
1.84167
1.84101
1.84165
1.84115
1.84211
1.8417
1.40001
1.84216
1.84092
1.40001
1.84193
1.84214
1.40001
1.84284
1.32985
1.45939
1.84199
1.84208
1.84219
1.40001
1.84159
1.40001
1.84181
1.84192
1.40001
1.84067
1.40001
1.40001
1.40001
1.40001
1.84226
1.02325
1.39785
1.40001
1.84144
1.84358
1.40001
1.84185
1.40001
1.40559
1.05016
1.84161
1.39963
1.40001
1.84108
1.39845
1.8417
1.40001
1.39977
1.40001
1.84065
1.84005
1.84239
1.84361
1.02907
1.84078
1.84058
1.84213
1.50564
1.40001
1.40001
1.59091
1.8415
1.02181
1.02438
1.40001
1.84072
1.84164
1.84348
1.40001
1.40001
1.83982
1.84239
1.3999
1.40001
1.71682
1.03384
1.40001
1.47859
1.83789
1.84174
1.39826
1.8415
1.84933
1.40001
1.39898
1.40001
1.84414
1.83987
1.57885
1.40001
1.82534
1.40001
1.40176
1.84235
1.03179
1.84107
1.84164
1.39694
1.39992
1.78553
1.40001
1.3997
1.40001
1.84225
1.40001
1.40002
1.03135
1.84196
1.40001
1.40001
1.40001
1.40001
1.8444
1.65035
1.40001
1.40001
1.04159
1.84205
1.65049
1.40001
1.40001
1.40001
1.82101
1.82983
1.84222
1.40001
1.40001
1.84697
1.40001
1.84184
1.84127
1.40001
1.40001
1.84317
1.8416
1.81994
1.40001
1.40001
1.84326
1.84445
1.40001
1.40001
1.40001
1.84439
1.40001
1.40001
1.40001
1.84306
1.84535
1.84495
1.40001
1.84397
1.40004
1.10667
1.84191
1.84219
1.40001
1.84083
1.82976
1.83989
1.40001
1.40001
1.84583
1.40001
1.63205
1.84107
1.40001
1.03279
1.40001
1.84376
1.40001
1.40001
1.839
1.40001
1.40001
1.40001
1.5418
1.84074
1.08465
1.40002
1.843
1.40001
1.40001
1.84114
1.40001
1.84497
1.40001
1.40001
1.84211
1.84199
1.40001
1.40005
1.40001
1.40001
1.40001
1.40001
1.40001
1.40001
1.84855
1.84182
1.40001
1.83758
1.03129
1.85052
1.40001
1.84169
1.84755
1.84209
1.83603
1.83931
1.40001
1.40001
1.83839
1.40001
1.67222
1.84484
1.84114
1.40001
1.84339
1.83749
1.40001
1.79305
1.40001
1.84192
1.68966
1.83921
1.39759
1.83818
1.80141
1.84158
1.84269
1.43486
1.84177
1.84391
1.40001
1.8416
1.40001
1.84158
1.40001
1.40001
1.40001
1.40001
1.39643
1.84161
1.84194
1.75654
1.40001
1.84412
1.40001
1.40001
1.40001
1.02811
1.40001
1.83288
1.40001
1.80245
1.82561
1.40001
1.40001
1.40001
1.81302
1.83933
1.40001
1.40001
1.84213
1.04019
1.47148
1.40001
1.84495
1.8418
1.80287
1.83096
1.8417
1.40001
1.84019
1.40001
1.40001
1.40001
1.40001
1.84015
1.84198
1.40001
1.8281
1.44669
1.84086
1.8122
1.40001
1.40001
1.81341
1.40001
1.40001
1.02756
1.70485
1.40001
1.40001
1.84488
1.40001
1.84414
1.80412
1.40001
1.80343
1.04043
1.8423
1.84205
1.84243
1.40001
1.01351
1.40001
1.40001
1.40001
1.84177
1.7628
1.40001
1.8447
1.84137
1.4
1.84195
1.40001
1.40001
1.40001
1.40001
1.84182
1.39942
1.40001
1.84353
1.40001
1.40001
1.84315
1.84187
1.40001
1.84465
1.48853
1.40003
1.40001
1.84189
1.40001
1.84189
1.40001
1.4144
1.84158
1.40001
1.84182
1.40001
1.40001
1.53643
1.84233
1.40001
1.40001
1.40001
1.40001
1.40001
1.39653
1.03547
1.03467
1.42057
1.40001
1.41908
1.40001
1.42364
1.40001
1.84157
1.40001
1.68284
1.40001
1.84196
1.40001
1.40001
1.40001
1.84192
1.40001
1.76645
1.84178
1.40001
1.63657
1.84073
1.40001
1.40001
1.84061
1.84198
1.40001
1.40001
1.4484
1.02133
1.40001
1.84404
1.40001
1.40001
1.40001
1.40001
1.47553
1.84133
1.40001
1.40001
1.40001
1.04169
1.40001
1.84208
1.8417
1.84975
1.40001
1.40001
1.40001
1.40001
1.62278
1.84305
1.40001
1.40001
1.40001
1.84341
1.84185
1.44697
1.40001
1.40001
1.40001
1.84158
1.8419
1.40001
1.03064
1.84175
1.84165
1.84234
1.84236
1.84512
1.40001
1.40001
1.84512
1.84366
1.84113
1.03598
1.4403
1.8411
1.40001
1.40001
1.40001
1.40001
1.40001
1.84171
1.02763
1.40001
1.40001
1.84106
1.60386
1.40001
1.84365
1.40001
1.40001
1.40001
1.0163
1.40001
1.40001
1.51624
1.84199
1.84216
1.40001
1.84658
1.8429
1.40001
1.46842
1.40001
1.84786
1.40001
1.84205
1.03745
1.40001
1.40001
1.40001
1.40001
1.8418
1.40008
1.40001
1.40001
1.40001
1.81923
1.40001
1.40001
1.40001
1.40001
1.84208
1.01717
1.75066
1.84451
1.40001
1.84115
1.40001
1.40001
1.40001
1.39714
1.40001
1.84356
1.40001
1.20291
1.40001
1.40001
1.40004
1.84238
1.04295
1.40001
1.84489
1.40001
1.84276
1.84116
1.04323
1.40001
1.40001
1.82229
1.40001
1.40001
1.02267
1.40001
1.84185
1.40001
1.82212
1.39929
1.84064
1.40001
1.40001
1.40001
1.40001
1.83752
1.40001
1.40001
1.84227
1.40001
1.40001
1.40001
1.40001
1.40001
1.40001
1.40001
1.40001
1.68956
1.40001
1.54327
1.84059
1.40001
1.40001
1.40001
1.02207
1.40001
1.40001
1.40001
1.40001
1.84159
1.84188
1.4437
1.40001
1.40001
1.84304
1.40001
1.40001
1.84181
1.40001
1.40002
1.40001
1.40001
1.40001
1.40002
1.84183
1.18361
1.84181
1.84359
1.39665
1.40001
1.40001
1.40001
1.66153
1.40001
1.40001
1.84217
1.84166
1.40001
1.40001
1.40001
1.40001
1.04361
1.40001
1.40001
1.40001
1.68062
1.40001
1.84193
1.84492
1.40001
1.84283
1.40001
1.40001
1.40001
1.6383
1.40001
1.83819
1.40001
1.84183
1.40001
1.40001
1.39617
1.84182
1.40001
1.40001
1.40001
1.40001
1.40001
1.84284
1.40003
1.40001
1.0268
1.84617
1.02836
1.40001
1.84104
1.40001
1.39616
1.40001
1.84328
1.83947
1.40001
1.84506
1.2816
1.84195
1.84851
1.40004
1.40001
1.40001
1.03318
1.40001
1.40001
1.40001
1.84187
1.65148
1.84608
1.40001
1.40001
1.40001
1.40001
1.39688
1.84033
1.40001
1.0362
1.40001
1.40001
1.40001
1.40001
1.40001
1.40001
1.40001
1.84712
1.84158
1.83769
1.40001
1.40001
1.39696
1.40001
1.37359
1.40001
1.40001
1.40001
1.03894
1.37303
1.40001
1.03591
1.01996
1.40001
1.84237
1.84143
1.40001
1.83904
1.84176
1.03396
1.69373
1.40001
1.40001
1.40001
1.0381
1.84218
1.40001
1.03947
1.40001
1.84187
1.47594
1.40001
1.40001
1.40001
1.40001
1.84194
1.83736
1.40001
1.40001
1.84188
1.40001
1.40001
1.8405
1.84163
1.40001
1.79713
1.84225
1.83919
1.3571
1.83967
1.40857
1.03953
1.73768
1.84092
1.40001
1.40001
1.40001
1.05156
1.40001
1.03295
1.8403
1.35279
1.84207
1.34878
1.40001
1.84062
1.60579
1.40001
1.40001
1.84085
1.40001
1.58128
1.84287
1.40001
1.40001
1.83656
1.84894
1.0291
1.65226
1.3999
1.40001
1.66921
1.40001
1.84817
1.34493
1.85116
1.84205
1.40001
1.40001
1.40001
1.40001
1.8271
1.40001
1.40001
1.84126
1.39964
1.84204
1.75493
1.84633
1.03252
1.40001
1.40001
1.40001
1.40001
1.8425
1.40005
1.842
1.40001
1.84113
1.84337
1.45627
1.84643
1.53735
1.84121
1.40001
1.70503
1.06795
1.83851
1.84192
1.7511
1.47497
1.83734
1.84202
1.84145
1.84125
1.40001
1.29611
1.46751
1.40001
1.84193
1.61654
1.8412
1.40004
1.40001
1.40001
1.0811
1.84057
1.83761
1.75907
1.40001
1.57233
1.40001
1.84002
1.83993
1.40001
1.84035
1.83814
1.40001
1.40001
1.40001
1.84015
1.40001
1.57548
1.84554
1.70964
1.40001
1.84008
1.40001
1.40001
1.40001
1.40001
1.40001
1.40001
1.40001
1.40001
1.40001
1.40001
1.07755
1.40001
1.82962
1.04241
1.65816
1.39855
1.83954
1.40001
1.63442
1.40002
1.68495
1.77971
1.40001
1.40187
1.84212
1.30506
1.40001
1.84407
1.84352
1.34706
1.40001
1.84153
1.84237
1.84304
1.40001
1.84163
1.84092
1.84084
1.40001
1.60884
1.40001
1.40006
1.8421
1.40001
1.84104
1.46578
1.84138
1.40001
1.40001
1.84505
1.8429
1.05925
1.40001
1.8424
1.73269
1.84098
1.40001
1.40001
1.83819
1.84283
1.39824
1.40001
1.79244
1.39709
1.84209
1.40008
1.40001
1.40001
1.40001
1.40001
1.60409
1.40001
1.74045
1.84022
1.7297
1.84259
1.40001
1.40262
1.40001
1.40001
1.84045
1.40001
1.84026
1.40001
1.40001
1.40001
1.40001
1.4
1.40001
1.45618
1.62833
1.40001
1.40001
1.03389
1.40001
1.84531
1.07637
1.84406
1.40001
1.62219
1.39976
1.84074
1.68477
1.03595
1.64042
1.40004
1.84128
1.8401
1.40001
1.66594
1.84138
1.84025
1.39838
1.84889
1.82965
1.03106
1.40001
1.40001
1.39816
1.40001
1.84202
1.40001
1.05403
1.84296
1.40001
1.40001
1.78666
1.40001
1.84057
1.40001
1.8426
1.40001
1.06647
1.40001
1.40001
1.84036
1.84407
1.83745
1.40001
1.84352
1.84158
1.84607
1.40001
1.40001
1.82814
1.4
1.12002
1.40001
1.40001
1.40001
1.84102
1.40001
1.84165
1.68845
1.84384
1.40001
1.84167
1.39937
1.40001
1.40001
1.40001
1.40001
1.40001
1.40001
1.10253
1.40001
1.40001
1.84221
1.40001
1.84472
1.84103
1.40001
1.04057
1.03108
1.40001
1.84312
1.4719
1.03822
1.00276
1.40001
1.83995
1.40001
1.84134
1.03394
1.40128
1.40001
1.40001
1.39952
1.40001
1.40001
1.40001
1.39992
1.58147
1.84195
1.40001
1.40001
1.84259
1.65578
1.40001
1.81173
1.84242
1.84185
1.58307
1.84266
1.40001
1.84063
1.40001
1.84547
1.40001
1.84236
1.84328
1.39698
1.841
1.84121
1.40001
1.40001
1.40001
1.40001
1.40001
1.31407
1.83689
1.40005
1.40003
1.0458
1.39999
1.02554
1.02122
1.40001
1.84232
1.84199
1.84133
1.40001
1.84176
1.40001
1.03659
1.40001
1.40001
1.83919
1.23628
1.84302
1.40001
1.84168
1.40001
1.37307
1.84148
1.40001
1.40001
1.40001
1.8413
1.40001
1.84096
1.02515
1.40001
1.40001
1.65264
1.40001
1.40001
1.63972
1.40001
1.40001
1.84229
1.40001
1.40001
1.40001
1.40001
1.40001
1.83691
1.84154
1.40001
1.84059
1.83968
1.02892
1.60346
1.84434
1.40001
1.40001
1.79777
1.39894
1.40001
1.40001
1.84181
1.84667
1.68724
1.40001
1.84231
1.03712
1.81876
1.39968
1.40001
1.84111
1.40004
1.8439
1.77153
1.73667
1.40001
1.40001
1.84166
1.11926
1.03689
1.40001
1.84196
1.40001
1.84272
1.40001
1.66449
1.40001
1.40001
1.84106
1.6852
1.03923
1.40001
1.39849
1.40001
1.40001
1.42447
1.57701
1.8418
1.40001
1.84255
1.40001
1.40001
1.40001
1.40001
1.40001
1.40001
1.46593
1.04148
1.40001
1.40001
1.42487
1.40001
1.40001
1.40001
1.40001
1.40001
1.84216
1.40001
1.40001
1.84189
1.84227
1.71712
1.40001
1.40001
1.40001
1.21939
1.84067
1.71056
1.40001
1.40001
1.40001
1.40001
1.84226
1.40001
1.40001
1.40001
1.8458
1.40001
1.40001
1.71674
1.85533
1.43773
1.14291
1.83903
1.71472
1.84272
1.40001
1.62362
1.40001
1.40001
1.40001
1.04286
1.4025
1.01618
1.40001
1.03668
1.01866
1.40001
1.02645
1.40001
1.40001
1.40001
1.59104
1.40001
1.84202
1.84156
1.40088
1.60915
1.77132
1.03992
1.17098
1.27347
1.40001
1.8417
1.83958
1.84184
1.84197
1.77759
1.26509
1.40001
1.7808
1.40001
1.83732
1.40001
1.40001
1.3965
1.40962
1.40001
1.40001
1.40001
1.83992
1.40001
1.03558
1.40001
1.84285
1.01594
1.40001
1.40001
1.84214
1.40001
1.84177
1.39974
1.40001
1.40001
1.84238
1.79283
1.40001
1.85475
1.40001
1.40001
1.41405
1.40001
1.59848
1.40001
1.40001
1.02809
1.40001
1.40001
1.84299
1.4
1.84308
1.40001
1.40004
1.01647
1.40001
1.40001
1.05447
1.40082
1.40001
1.84001
1.0234
1.84549
1.04831
1.84267
1.40001
1.40001
1.40001
1.40001
1.4
1.40001
1.40001
1.40001
1.40001
1.40001
1.40001
1.8234
1.40001
1.84367
1.8392
1.03808
1.40001
1.40001
1.40001
1.40001
1.40001
1.40001
1.82986
1.40001
1.40001
1.03653
1.40001
1.40001
1.83981
1.40001
1.40001
1.57059
1.76947
1.02462
1.02709
1.08895
1.14527
1.40001
1.39683
1.04559
1.40029
1.81531
1.39685
1.40001
1.40001
1.84214
1.40001
1.40001
1.40001
1.15754
1.40002
1.56156
1.40001
1.40001
1.57548
1.84234
1.40001
1.03947
1.40001
1.40001
1.40001
1.39654
1.40001
1.84271
1.84189
1.40001
1.05736
1.40001
1.63821
1.04204
1.40001
1.27895
1.40001
1.39647
1.02092
1.40001
1.40001
1.40001
1.3961
1.04419
1.40001
1.03847
1.39841
1.62774
1.80899
1.03847
1.02249
1.40001
1.39014
1.40001
1.39862
1.40001
1.84044
1.84253
1.40001
1.41198
1.84234
1.84129
1.40001
1.40001
1.84194
1.40001
1.40001
1.40005
1.40001
1.8405
1.40001
1.40001
1.41872
1.40001
1.39857
1.09457
1.40001
1.40001
1.40001
1.40001
1.40001
1.84622
1.42617
1.40005
1.40001
1.40001
1.40001
1.40001
1.40001
1.40004
1.40001
1.03402
1.49548
1.39864
1.83899
1.83996
1.40001
1.41403
1.84217
1.78673
1.40001
1.40001
1.0161
1.84169
1.40001
1.84032
1.40001
1.84264
1.71159
1.02533
1.40001
1.04537
1.81749
1.39969
1.40001
1.03877
1.01582
1.40001
1.40001
1.77227
1.40001
1.4
1.02502
1.40001
1.40001
1.40001
1.5437
1.40001
1.04192
1.84051
1.40001
1.40001
1.40001
1.40001
1.84241
1.40001
1.40001
1.84077
1.79577
1.40001
1.40001
1.40001
1.84663
1.02823
1.40001
1.83963
1.8416
1.40001
1.75136
1.4
1.40004
1.40001
1.40001
1.82442
1.41541
1.40001
1.01722
1.6462
1.40001
1.40001
1.39765
1.40001
1.40001
1.83995
1.40001
1.40001
1.40004
1.40001
1.83839
1.40001
1.40001
1.40001
1.40001
1.40001
1.40001
1.40002
1.59614
1.40001
1.84215
1.40001
1.40001
1.84333
1.40001
1.40001
1.40001
1.84144
1.84005
1.44597
1.40001
1.39765
1.40001
1.40001
1.40001
1.40001
1.83954
1.40001
1.40001
1.84226
1.03286
1.40001
1.40001
1.40001
1.40001
1.40001
1.40001
1.75879
1.40001
1.40001
1.84047
1.84135
1.40001
1.40001
1.40001
1.83937
1.84383
1.40001
1.39973
1.83904
1.40001
1.40001
1.40001
1.40002
1.0317
1.42939
1.39632
1.39592
1.40001
1.40001
1.0306
1.84265
1.40001
1.02619
1.40001
1.84031
1.82419
1.02481
1.3994
1.8417
1.83906
1.84244
1.40001
1.40001
1.32682
1.81154
1.77047
1.02272
1.40001
1.40001
1.40001
1.844
1.84244
1.02235
1.39725
1.40001
1.84162
1.03228
1.40001
1.83195
1.04242
1.37161
1.40617
1.40001
1.84282
1.40001
1.40001
1.40001
1.40001
1.40001
1.40001
1.40012
1.81243
1.40001
1.40001
1.84836
1.40001
1.40001
1.40001
1.84191
1.40001
1.03461
1.40001
1.40001
1.40001
1.55535
1.40001
1.40001
1.40001
1.40001
1.40001
1.1813
1.40001
1.03203
1.40001
1.84136
1.40007
1.25564
1.25986
1.40002
1.40426
1.62617
1.40001
1.40001
1.04495
1.84178
1.8414
1.84198
1.40001
1.0156
1.03287
1.40001
1.84225
1.40001
1.40001
1.40001
1.40001
1.40001
1.40004
1.40001
1.03538
1.68492
1.40001
1.40001
1.02066
1.37323
1.40001
1.40001
1.40001
1.40001
1.01997
1.40001
1.07073
1.40001
1.40001
1.83867
1.40001
1.40001
1.0383
1.40001
1.8421
1.40001
1.03782
1.40001
1.04287
1.40001
1.40792
1.84278
1.85105
1.40001
1.40001
1.839
1.40001
1.40001
1.49701
1.39682
1.40001
1.39831
1.40001
1.84273
1.40001
1.03652
1.40002
1.8375
1.39885
1.40001
1.40001
1.17879
1.40001
1.39909
1.03465
1.83985
1.56222
1.40001
1.40001
1.29888
1.40001
1.40001
1.40001
1.1759
1.40001
1.40001
1.40001
1.84149
1.40001
1.02368
1.4
1.40001
1.40001
1.40001
1.0231
1.84188
1.80571
1.03338
1.40001
1.84924
1.40001
1.40001
1.841
1.83924
1.77188
1.03855
1.39775
1.39925
1.40001
1.84158
1.40001
1.40001
1.40001
1.40001
1.84287
1.40005
1.40001
1.40001
1.83781
1.40001
1.40001
1.84181
1.03283
1.40001
1.40001
1.40001
1.02814
1.40001
1.4
1.4
1.39868
1.40001
1.40001
1.40001
1.40001
1.73736
1.40001
1.84044
1.84182
1.85101
1.84129
1.84053
1.84196
1.40001
1.84055
1.40001
1.84151
1.8424
1.40001
1.3989
1.05259
1.77929
1.39991
1.40001
1.40001
1.40001
1.40001
1.40154
1.40001
1.47608
1.40001
1.40001
1.40001
1.2251
1.84159
1.84268
1.84177
1.77664
1.39988
1.40001
1.42262
1.84024
1.3979
1.44647
1.39721
1.0393
1.40001
1.40003
1.40001
1.40001
1.40001
1.40001
1.40001
1.842
1.03314
1.84262
1.84205
1.39493
1.04519
1.40001
1.40001
1.40001
1.84131
1.03931
1.79071
1.02078
1.84147
1.84313
1.04119
1.83907
1.42391
1.40001
1.84404
1.18878
1.40001
1.39872
1.03783
1.40001
1.02555
1.40001
1.84195
1.84079
1.16202
1.40001
1.84023
1.03884
1.40001
1.02823
1.40001
1.8418
1.40001
1.40001
1.83897
1.40001
1.22546
1.40001
1.39964
1.02699
1.8439
1.3995
1.40001
1.04745
1.40001
1.40001
1.40001
1.40001
1.63288
1.40001
1.84253
1.40001
1.40001
1.84637
1.40001
1.40001
1.83939
1.40001
1.01549
1.40001
1.01791
1.40002
1.40001
1.40001
1.40001
1.40001
1.82335
1.65652
1.8418
1.40001
1.84214
1.81126
1.01907
1.0387
1.40001
1.40001
1.84284
1.40001
1.0155
1.40001
1.37943
1.40001
1.40001
1.84257
1.40001
1.84461
1.04109
1.84646
1.40001
1.04429
1.40001
1.40001
1.84097
1.84042
1.40001
1.40005
1.40001
1.84676
1.40001
1.40001
1.02279
1.39943
1.05568
1.40001
1.40001
1.40001
1.84384
1.84771
1.8404
1.40001
1.40001
1.01424
1.40001
1.84622
1.40001
1.40001
1.40001
1.82914
1.84184
1.84139
1.02974
1.84277
1.84175
1.03005
1.83969
1.40005
1.03879
1.4101
1.40001
1.40001
1.84058
1.02512
1.68379
1.02847
1.84186
1.39729
1.01575
1.84294
1.40001
1.40001
1.40001
1.40001
1.84128
1.83802
1.04357
1.40001
1.40003
1.03915
1.40004
1.40001
1.03364
1.0325
1.70841
1.83893
1.39844
1.84196
1.40001
1.84275
1.20048
1.04178
1.8421
1.84958
1.40001
1.84207
1.40001
1.40001
1.84176
1.40001
1.73563
1.83999
1.40001
1.40001
1.40001
1.40001
1.84177
1.83705
1.84019
1.40001
1.40001
1.83959
1.83962
1.84121
1.40001
1.84203
1.40001
1.40001
1.40001
1.40001
1.40001
1.03328
1.23481
1.04041
1.40001
1.40001
1.84051
1.40001
1.40001
1.84179
1.03518
1.40001
1.84144
1.83726
1.82348
1.03483
1.40001
1.0257
1.40001
1.40003
1.83977
1.6052
1.83843
1.80487
1.40001
1.0392
1.40001
1.84094
1.7153
1.04694
1.40001
1.40001
1.40001
1.19256
1.40001
1.40001
1.84235
1.40001
1.03189
1.84153
1.40001
1.40001
1.40001
1.40001
1.40001
1.75709
1.50086
1.40001
1.84208
1.40001
1.84393
1.40001
1.39686
1.40001
1.84267
1.84199
1.8416
1.84395
1.3996
1.83947
1.40001
1.84195
1.84338
1.773
1.40001
1.40001
1.03849
1.84061
1.40001
1.40001
1.84855
1.84188
1.84445
1.40001
1.84083
1.40001
1.40001
1.40004
1.84048
1.84189
1.52311
1.49931
1.84192
1.84248
1.06822
1.40001
1.40001
1.40001
1.40001
1.40001
1.56082
1.40001
1.40001
1.77926
1.05242
1.39998
1.40001
1.84199
1.39991
1.39981
1.47078
1.80349
1.83945
1.30184
1.40001
1.04708
1.40001
1.40443
1.84177
1.84529
1.84358
1.39898
1.40001
1.40001
1.03319
1.40001
1.40001
1.84188
1.44634
1.40001
1.40001
1.40001
1.40001
1.40001
1.40001
1.40001
1.39995
1.83956
1.40002
1.40001
1.40001
1.40001
1.40001
1.6843
1.40001
1.60545
1.40001
1.40001
1.8418
1.84715
1.03401
1.3988
1.40001
1.4
1.40001
1.03389
1.84086
1.84093
1.40001
1.40001
1.40001
1.40001
1.40001
1.40001
1.40001
1.40001
1.84156
1.83887
1.03267
1.44983
1.03372
1.40001
1.04329
1.40001
1.84146
1.5275
1.40001
1.40001
1.10458
1.40001
1.82421
1.19538
1.39696
1.03121
1.40001
1.40001
1.83947
1.40005
1.39734
1.01594
1.84206
1.84372
1.40001
1.40001
1.40001
1.40001
1.81305
1.40001
1.40001
1.84184
1.39894
1.84026
1.40007
1.40001
1.40001
1.03572
1.40001
1.40001
1.841
1.03923
1.1731
1.03611
1.8421
1.39936
1.40001
1.84729
1.04323
1.04119
1.41173
1.40001
1.40001
1.84001
1.40005
1.60447
1.40001
1.40001
1.83967
1.03942
1.40001
1.40001
1.40014
1.8401
1.40016
1.83363
1.40001
1.40004
1.40001
1.40001
1.1132
1.40001
1.17561
1.40001
1.40001
1.84083
1.03722
1.40001
1.171
1.17389
1.40001
1.40001
1.84153
1.40001
1.40001
1.40001
1.84082
1.84073
1.40006
1.8237
1.83973
1.18418
1.84173
1.82642
1.40001
1.40001
1.84266
1.4
1.40001
1.40001
1.40001
1.40001
1.85048
1.84157
1.40001
1.40001
1.40001
1.84192
1.40022
1.40001
1.04939
1.11107
1.40001
1.40003