/*--------------------------------*- C++ -*----------------------------------*\
  =========                 |
  \\      /  F ield         | OpenFOAM: The Open Source CFD Toolbox
   \\    /   O peration     | Website:  https://openfoam.org
    \\  /    A nd           | Version:  12
     \\/     M anipulation  |
\*---------------------------------------------------------------------------*/
FoamFile
{
    format      ascii;
    class       volVectorField;
    location    "7.46";
    object      U;
}
// * * * * * * * * * * * * * * * * * * * * * * * * * * * * * * * * * * * * * //

dimensions      [0 1 -1 0 0 0 0];

internalField   nonuniform List<vector> 
22702
(
(2 -1.96697e-13 0)
(2 3.2566e-14 0)
(2.04061 -0.0919492 0)
(2 -1.12243e-09 0)
(1.9771 0.0356036 0)
(2 1.00968e-14 0)
(1.83056 0.229217 0)
(2 4.19512e-14 0)
(2 -6.85299e-14 0)
(2.10178 -0.26499 0)
(1.82954 0.22879 0)
(1.83112 0.229029 0)
(2 -7.42303e-15 0)
(1.83179 0.229616 0)
(2.03598 -0.0762576 0)
(2 -1.04628e-13 0)
(2 -6.68296e-14 0)
(2 -1.36002e-14 0)
(1.82978 0.228558 0)
(2 8.67436e-15 0)
(1.83167 0.229387 0)
(2 -2.82437e-13 0)
(1.82966 0.228299 0)
(2.11796 -0.269533 0)
(1.83199 0.228114 0)
(2.12967 -0.262642 0)
(2 1.77302e-14 0)
(1.82893 0.228641 0)
(2.11496 -0.263938 0)
(2.11903 -0.267243 0)
(2 2.0357e-14 0)
(1.83088 0.228591 0)
(2 -1.40727e-14 0)
(2 4.46701e-14 0)
(2 -1.29006e-13 0)
(1.84402 0.215268 0)
(1.82987 0.230458 0)
(1.82942 0.228471 0)
(2 -7.93527e-14 0)
(2 -1.90288e-13 0)
(2.11585 -0.2662 0)
(2 -4.43978e-14 0)
(1.916 0.121953 0)
(2 -2.19431e-13 0)
(1.82905 0.228481 0)
(2 -7.28893e-14 0)
(2 7.5815e-14 0)
(2 -2.15655e-13 0)
(2 -3.48595e-13 0)
(2.11002 -0.264662 0)
(2 -1.19445e-13 0)
(2.10698 -0.26583 0)
(2 -1.2206e-13 0)
(1.82881 0.228699 0)
(2 -1.05053e-13 0)
(1.83029 0.228246 0)
(2 1.02394e-13 0)
(2 1.48111e-09 0)
(2 1.05691e-13 0)
(2 -4.42705e-13 0)
(2.12163 -0.260786 0)
(2 -6.11374e-14 0)
(2 -3.2803e-13 0)
(2.11486 -0.264918 0)
(2 9.79108e-15 0)
(2.12025 -0.262877 0)
(2 -1.67478e-13 0)
(2 -2.33738e-13 0)
(2 -6.4471e-14 0)
(2.11943 -0.265693 0)
(2 -2.46696e-13 0)
(1.8306 0.229017 0)
(1.89814 0.148514 0)
(2 1.22322e-09 0)
(1.83073 0.22922 0)
(1.82126 0.236897 0)
(2.1248 -0.262132 0)
(1.83061 0.229078 0)
(2.11163 -0.263698 0)
(2 -2.45794e-13 0)
(1.83049 0.228848 0)
(2.11119 -0.265479 0)
(1.82881 0.228364 0)
(1.82877 0.228209 0)
(2 1.35464e-14 0)
(2 9.86347e-07 0)
(2 -7.0711e-14 0)
(2 -6.53179e-14 0)
(2.02287 -0.0520437 0)
(2.11279 -0.264446 0)
(1.82992 0.22866 0)
(2 -8.37191e-14 0)
(2 -7.95595e-11 0)
(2.11427 -0.267829 0)
(2 1.40305e-13 0)
(1.83183 0.229131 0)
(2.11375 -0.26628 0)
(2 2.59999e-08 0)
(2 -1.9939e-14 0)
(2 -2.72529e-13 0)
(2 -3.15786e-14 0)
(1.91599 0.121751 0)
(1.8301 0.2289 0)
(2.12676 -0.261673 0)
(2 -5.5362e-11 0)
(2 -7.65663e-10 0)
(1.95725 0.063562 0)
(2 9.18895e-09 0)
(2.11297 -0.266198 0)
(2 -2.34167e-13 0)
(1.83068 0.229011 0)
(1.82996 0.228738 0)
(2 3.94756e-09 0)
(2 -7.10223e-14 0)
(2.12208 -0.280813 0)
(2.12231 -0.272307 0)
(2.10807 -0.261318 0)
(2 1.2765e-13 0)
(2 -1.55438e-07 0)
(2 -1.11345e-14 0)
(2 5.33201e-14 0)
(2 9.72508e-08 0)
(2.0253 -0.0552677 0)
(2 -1.02821e-07 0)
(1.85505 0.203 0)
(1.98156 0.0228017 0)
(1.83098 0.228789 0)
(2 -3.41896e-13 0)
(1.83112 0.228677 0)
(1.83025 0.228528 0)
(1.83155 0.22943 0)
(1.82994 0.228894 0)
(2 -5.96228e-14 0)
(2.12562 -0.26144 0)
(2 -2.90475e-14 0)
(2.11707 -0.267928 0)
(2 2.46693e-14 0)
(2 3.18829e-15 0)
(2 -3.15172e-14 0)
(2 -1.04571e-13 0)
(1.83019 0.228638 0)
(2 2.75199e-09 0)
(2 -1.39898e-13 0)
(2 -1.21688e-13 0)
(2 1.67163e-14 0)
(1.83157 0.229399 0)
(2 9.15592e-14 0)
(1.99362 0.0161157 0)
(2 6.30864e-14 0)
(2 -2.62129e-13 0)
(2 -7.0507e-11 0)
(2 5.13905e-14 0)
(2.11112 -0.26125 0)
(2 -1.09184e-13 0)
(1.99556 0.010015 0)
(2 2.00834e-14 0)
(2.10944 -0.262155 0)
(2 -1.82961e-13 0)
(2 -9.59817e-14 0)
(2 -3.05166e-14 0)
(1.82974 0.229045 0)
(2 2.67249e-14 0)
(1.8308 0.22862 0)
(2.12505 -0.280541 0)
(2.12191 -0.260247 0)
(1.82926 0.228425 0)
(1.82962 0.228345 0)
(2 2.29326e-14 0)
(1.97193 0.0467811 0)
(1.90303 0.143374 0)
(2 1.1547e-13 0)
(1.8289 0.228455 0)
(2.11192 -0.264368 0)
(1.8441 0.214957 0)
(2 1.71302e-14 0)
(2 1.41848e-13 0)
(2 3.86025e-14 0)
(2 -8.13679e-14 0)
(1.83169 0.229178 0)
(1.8586 0.20002 0)
(2 -2.71061e-14 0)
(1.83046 0.228859 0)
(2.10557 -0.263199 0)
(1.82931 0.228368 0)
(2 2.22873e-14 0)
(2.09399 -0.263038 0)
(2 -2.93495e-13 0)
(2.10853 -0.263396 0)
(2.13071 -0.261629 0)
(2.00008 -0.00012336 0)
(2 -3.04895e-13 0)
(2 -1.53703e-13 0)
(1.82945 0.227963 0)
(2 -4.59046e-14 0)
(2 -1.87093e-13 0)
(1.83141 0.228826 0)
(2 -2.29323e-13 0)
(1.82946 0.228269 0)
(1.83062 0.229 0)
(2.10657 -0.27097 0)
(2 -7.48005e-14 0)
(2 -3.45081e-13 0)
(2.10521 -0.260125 0)
(1.83175 0.228889 0)
(2 -4.32668e-14 0)
(2 -1.12362e-13 0)
(2 -7.22349e-14 0)
(1.83171 0.229035 0)
(2 -5.70616e-14 0)
(2.11799 -0.266057 0)
(2 -5.8706e-11 0)
(2 -1.22797e-13 0)
(1.83174 0.229108 0)
(1.83134 0.228913 0)
(1.83006 0.228666 0)
(2 1.46283e-13 0)
(1.99998 2.42006e-05 0)
(2 7.93247e-14 0)
(2 1.20815e-16 0)
(2 -2.97946e-13 0)
(1.83155 0.229022 0)
(2 -1.74601e-13 0)
(2.10184 -0.263387 0)
(1.82337 0.234937 0)
(1.83151 0.228739 0)
(1.8318 0.229552 0)
(2 2.02456e-07 0)
(2 -3.09392e-14 0)
(2 -3.3434e-13 0)
(2.11468 -0.273534 0)
(1.83226 0.228841 0)
(1.92759 0.107184 0)
(2 2.29961e-14 0)
(1.83078 0.229905 0)
(2.09813 -0.265601 0)
(2.09934 -0.267238 0)
(1.83088 0.229797 0)
(1.83163 0.228953 0)
(2 -6.69447e-14 0)
(1.83008 0.228493 0)
(2.11957 -0.279497 0)
(1.85165 0.20628 0)
(2 -2.95592e-13 0)
(2 -4.38481e-13 0)
(2 -3.66375e-13 0)
(2 -3.27161e-13 0)
(1.83193 0.228912 0)
(2 -1.68317e-13 0)
(1.8978 0.151023 0)
(1.98454 0.0288932 0)
(2 -3.73751e-13 0)
(2 -4.10257e-14 0)
(1.83141 0.228659 0)
(2.11471 -0.26605 0)
(2.07927 -0.161816 0)
(2 -1.61219e-13 0)
(1.83167 0.228084 0)
(2.13079 -0.263288 0)
(1.83117 0.228456 0)
(2 1.31569e-14 0)
(2 -6.56659e-15 0)
(2 -3.43586e-13 0)
(2 -2.34406e-13 0)
(2 -2.11651e-13 0)
(2 -2.23641e-13 0)
(2 -5.64765e-14 0)
(2.11238 -0.268247 0)
(2.08174 -0.168502 0)
(2.09765 -0.265657 0)
(1.83126 0.22895 0)
(2 6.55252e-14 0)
(2 2.004e-13 0)
(2 -1.69904e-07 0)
(2 -3.95052e-13 0)
(1.84604 0.212517 0)
(2 -1.3108e-07 0)
(2.10951 -0.266468 0)
(2 -2.07539e-14 0)
(2.12048 -0.281696 0)
(2.10458 -0.260746 0)
(1.8322 0.228826 0)
(2.11595 -0.267063 0)
(1.83159 0.229338 0)
(2 5.63712e-14 0)
(2 -1.61454e-13 0)
(2 -1.49912e-13 0)
(2.00077 -0.00163182 0)
(2.09629 -0.259828 0)
(2.11889 -0.280375 0)
(2 -3.08786e-07 0)
(2 -1.38993e-07 0)
(2.1212 -0.282505 0)
(2 2.40675e-09 0)
(1.8302 0.228308 0)
(2.12177 -0.262186 0)
(2 -6.16957e-14 0)
(2 -3.52422e-11 0)
(1.8301 0.228707 0)
(2.12033 -0.276769 0)
(2 -3.84096e-13 0)
(1.8341 0.231722 0)
(2.12325 -0.262073 0)
(1.83136 0.228652 0)
(2 -2.67346e-13 0)
(2.11473 -0.28734 0)
(2.00084 -0.00141141 0)
(2 -2.53516e-14 0)
(2 2.84573e-06 0)
(2 -3.64532e-14 0)
(2.10633 -0.265226 0)
(2 -2.21054e-13 0)
(2 -1.7437e-07 0)
(2 -3.75375e-07 0)
(1.99999 1.35007e-05 0)
(1.99356 0.00932906 0)
(1.89565 0.151153 0)
(2 -2.72137e-11 0)
(2.1153 -0.251842 0)
(2 -1.57596e-11 0)
(2 1.55284e-06 0)
(2 -6.53946e-14 0)
(2 -7.55075e-14 0)
(2 -3.84172e-14 0)
(2 1.41389e-13 0)
(2 -1.14757e-12 0)
(1.82981 0.228804 0)
(2 2.02801e-13 0)
(1.82878 0.229349 0)
(2 -1.08294e-13 0)
(2 -6.56452e-14 0)
(2 -1.12228e-14 0)
(2.11182 -0.269603 0)
(2 4.31752e-14 0)
(1.83154 0.229292 0)
(2.10664 -0.266435 0)
(2 -1.48354e-14 0)
(1.87017 0.187545 0)
(2 -1.06257e-13 0)
(2 -3.47078e-13 0)
(1.82882 0.229218 0)
(2 2.75872e-14 0)
(2 -9.38956e-09 0)
(2 -4.00152e-14 0)
(1.82997 0.227603 0)
(2 4.68735e-10 0)
(2 6.03564e-14 0)
(1.83458 0.217272 0)
(1.82906 0.228922 0)
(2 3.33615e-14 0)
(1.9648 0.0532897 0)
(2 -6.31941e-14 0)
(2 6.78651e-15 0)
(2.11631 -0.267261 0)
(2 -2.12327e-13 0)
(2 -2.13511e-14 0)
(2 4.07543e-14 0)
(2.11371 -0.267275 0)
(2 6.90033e-15 0)
(2 8.60964e-14 0)
(2 7.42214e-14 0)
(2 1.47874e-14 0)
(2.12223 -0.259439 0)
(2 -5.54554e-14 0)
(2 -2.97783e-14 0)
(2 -2.08934e-13 0)
(2 -2.32107e-14 0)
(2 4.29727e-14 0)
(2.11 -0.267341 0)
(1.99998 3.59006e-05 0)
(1.83047 0.228575 0)
(2 -2.94592e-14 0)
(2.00002 -3.04813e-05 0)
(1.82983 0.228546 0)
(1.82904 0.228313 0)
(2 -2.20466e-14 0)
(2 -5.66899e-14 0)
(2.09931 -0.277728 0)
(2.06238 -0.125929 0)
(1.83045 0.229039 0)
(2 -1.69694e-13 0)
(2 7.01429e-14 0)
(2 -4.17998e-14 0)
(1.83135 0.228548 0)
(2.11927 -0.264188 0)
(2 5.13083e-14 0)
(1.831 0.228965 0)
(2 -2.52859e-14 0)
(2 -5.26878e-14 0)
(2.09684 -0.212863 0)
(2.11248 -0.21154 0)
(2 6.87838e-15 0)
(2.10611 -0.259865 0)
(2.10154 -0.269868 0)
(2 -2.05203e-14 0)
(2 8.4631e-15 0)
(2 7.7119e-14 0)
(2 8.70016e-15 0)
(2 -9.46622e-11 0)
(2 -1.91723e-14 0)
(2 -5.17516e-14 0)
(1.83006 0.228891 0)
(1.95669 0.0619893 0)
(1.83817 0.230726 0)
(2.11116 -0.267017 0)
(2.03334 -0.054228 0)
(1.83091 0.228612 0)
(2 -6.33866e-13 0)
(1.8309 0.229384 0)
(1.83027 0.228881 0)
(2.10226 -0.266356 0)
(2.07596 -0.1534 0)
(2 5.15954e-13 0)
(2.11634 -0.262904 0)
(2 7.82578e-14 0)
(1.82149 0.235063 0)
(2 -3.33298e-13 0)
(2 4.83594e-14 0)
(2 9.06335e-15 0)
(2 -1.03384e-14 0)
(1.83171 0.228801 0)
(2 -1.22067e-13 0)
(2 -5.96613e-14 0)
(2 -4.59325e-14 0)
(2 1.50789e-09 0)
(2 -1.17503e-14 0)
(2 -2.01077e-13 0)
(2 -2.5479e-13 0)
(1.9362 0.0975828 0)
(1.82957 0.228969 0)
(2 -2.64014e-14 0)
(1.83131 0.228903 0)
(2 -2.56967e-14 0)
(2 -1.51446e-14 0)
(2.10891 -0.266122 0)
(2 -3.6287e-14 0)
(2 2.8794e-14 0)
(2 -1.54389e-13 0)
(2 -1.20895e-13 0)
(1.83171 0.229047 0)
(1.87234 0.181655 0)
(2 -2.78106e-13 0)
(2 -1.97662e-13 0)
(2.10203 -0.268476 0)
(1.83137 0.228823 0)
(1.83177 0.229058 0)
(2 -1.64816e-13 0)
(1.83179 0.228996 0)
(1.83136 0.228792 0)
(1.83134 0.228898 0)
(2 -7.75458e-14 0)
(2.05713 -0.116165 0)
(2 -3.76395e-13 0)
(1.832 0.229127 0)
(2.00598 -0.0119668 0)
(1.83134 0.22889 0)
(2 1.33987e-13 0)
(2.10024 -0.264787 0)
(2.00034 -0.000699807 0)
(1.82937 0.228804 0)
(2 7.7183e-14 0)
(2 -1.64168e-13 0)
(2 -5.89947e-11 0)
(2 -1.84644e-11 0)
(2.11459 -0.264823 0)
(1.83228 0.228729 0)
(1.84793 0.210162 0)
(2 -2.7123e-14 0)
(1.83321 0.227412 0)
(1.83155 0.228751 0)
(1.83021 0.228866 0)
(2 -4.07476e-14 0)
(1.91855 0.118952 0)
(1.83127 0.228447 0)
(2 1.78403e-14 0)
(2 -2.65251e-13 0)
(1.88369 0.1685 0)
(1.97737 0.0386503 0)
(1.83161 0.229163 0)
(2.01959 -0.0454461 0)
(1.8315 0.229118 0)
(2 -6.18161e-14 0)
(1.83147 0.228978 0)
(1.83131 0.228854 0)
(1.83139 0.228967 0)
(1.83141 0.228877 0)
(2 4.6119e-14 0)
(1.84386 0.213526 0)
(2.03158 -0.0561358 0)
(2.04131 -0.0798451 0)
(2 -2.40418e-14 0)
(2 -3.97043e-07 0)
(2 2.4422e-14 0)
(2 -2.3664e-13 0)
(1.82893 0.231398 0)
(2 1.95647e-14 0)
(2 1.61618e-13 0)
(2 9.02654e-14 0)
(2 -2.3356e-14 0)
(2 8.10069e-14 0)
(1.82979 0.228902 0)
(2 2.76446e-14 0)
(2 -5.64544e-14 0)
(2.00162 -0.0027158 0)
(1.83177 0.228984 0)
(1.86051 0.196406 0)
(2 -3.11428e-13 0)
(1.85322 0.204461 0)
(1.99998 2.39318e-05 0)
(2 9.07322e-14 0)
(2 -2.7208e-13 0)
(1.83159 0.228919 0)
(2 -7.37442e-14 0)
(2.00141 -0.00187335 0)
(1.99862 0.00328457 0)
(2 4.39686e-14 0)
(1.83147 0.228935 0)
(2 2.59216e-14 0)
(1.83197 0.229377 0)
(2 5.63579e-14 0)
(2 6.1148e-14 0)
(1.8734 0.180426 0)
(2 5.11587e-14 0)
(1.83212 0.229589 0)
(1.99999 1.29775e-05 0)
(2 -3.94518e-13 0)
(1.83204 0.229271 0)
(2 -2.12538e-13 0)
(1.83173 0.229002 0)
(2 -1.62293e-14 0)
(2 2.84424e-06 0)
(2 -4.87571e-14 0)
(1.83173 0.228783 0)
(2 3.54793e-14 0)
(1.82982 0.231005 0)
(2 4.79359e-06 0)
(1.83176 0.228845 0)
(1.82926 0.22861 0)
(1.83159 0.228634 0)
(1.82907 0.228456 0)
(2 3.25e-14 0)
(1.82924 0.229071 0)
(1.8333 0.22371 0)
(2 6.09186e-14 0)
(2.11923 -0.261845 0)
(1.84208 0.216648 0)
(1.87956 0.172368 0)
(2 -2.22532e-13 0)
(1.83166 0.228643 0)
(2 1.67341e-14 0)
(2.11564 -0.265788 0)
(2.12403 -0.262939 0)
(2 -7.45074e-14 0)
(2 -2.34265e-14 0)
(2 -2.24336e-13 0)
(2 -3.45021e-13 0)
(2 1.54088e-09 0)
(2.11359 -0.265898 0)
(2 -4.32183e-14 0)
(1.8313 0.228943 0)
(1.95635 0.0624784 0)
(1.83162 0.228927 0)
(2 6.45192e-14 0)
(2 9.43491e-11 0)
(2 -1.3201e-13 0)
(2 -1.22917e-13 0)
(2 -5.28174e-08 0)
(1.83131 0.228843 0)
(2 -3.11597e-13 0)
(1.83071 0.229759 0)
(1.8978 0.149691 0)
(2.07528 -0.150665 0)
(2 1.31505e-09 0)
(2 6.28735e-06 0)
(1.95175 0.0755039 0)
(1.96356 0.0614832 0)
(2 1.76044e-14 0)
(2 -1.24117e-13 0)
(1.93941 0.0894214 0)
(2 1.31071e-13 0)
(2.10418 -0.262762 0)
(1.83186 0.229054 0)
(1.83181 0.229141 0)
(2 -6.09141e-11 0)
(2 1.86205e-14 0)
(2 -8.86471e-14 0)
(1.82875 0.22861 0)
(2 -3.41214e-13 0)
(1.99999 1.57731e-05 0)
(1.82937 0.231192 0)
(1.83227 0.228881 0)
(2.01306 -0.0315721 0)
(2 2.46866e-14 0)
(2 1.28845e-10 0)
(2.11059 -0.266744 0)
(1.84689 0.211132 0)
(2 -1.8295e-13 0)
(2 -1.06291e-13 0)
(2 -4.62129e-14 0)
(2 -2.95463e-11 0)
(2 -2.20363e-13 0)
(1.83173 0.229012 0)
(1.82937 0.228798 0)
(2 -6.07081e-15 0)
(1.83176 0.228674 0)
(1.83027 0.23004 0)
(1.83146 0.228651 0)
(2 -7.26596e-14 0)
(2 1.49891e-13 0)
(2 -6.06089e-11 0)
(2 -1.67921e-13 0)
(2.12893 -0.260709 0)
(1.8297 0.228657 0)
(2 -4.46329e-11 0)
(2 7.75174e-14 0)
(1.84666 0.211823 0)
(1.832 0.228372 0)
(2 2.72739e-14 0)
(1.8413 0.217883 0)
(1.8304 0.228971 0)
(2 -1.48437e-13 0)
(2 -2.13976e-07 0)
(2 8.24953e-11 0)
(2 -1.74237e-13 0)
(2 -1.59921e-13 0)
(1.83159 0.229024 0)
(2 -1.98492e-13 0)
(2 -9.14037e-14 0)
(2 -2.79363e-13 0)
(2 -7.65323e-14 0)
(1.82988 0.233047 0)
(2 -2.32707e-13 0)
(1.84054 0.225045 0)
(2.11187 -0.26623 0)
(2 -1.4995e-13 0)
(2.11186 -0.268513 0)
(2 1.10113e-13 0)
(2 -1.62069e-07 0)
(2 6.34263e-14 0)
(2.00124 -0.00178414 0)
(2.11036 -0.261099 0)
(2.00029 -0.000534965 0)
(2 1.40977e-13 0)
(2 -5.75319e-14 0)
(2 -1.20442e-07 0)
(1.97218 0.0402797 0)
(2 -8.00336e-14 0)
(2 7.22634e-14 0)
(2.03788 -0.0835674 0)
(2 -2.14778e-07 0)
(2 -6.16593e-14 0)
(2 -1.35913e-14 0)
(2 -2.06394e-07 0)
(2 2.74774e-07 0)
(2 -1.50813e-07 0)
(2 -9.09849e-14 0)
(2 -1.7228e-06 0)
(2.02396 -0.0480445 0)
(2 -4.74029e-07 0)
(2 -4.48718e-08 0)
(2.00099 -0.00142352 0)
(2 -1.45527e-13 0)
(2.11453 -0.264879 0)
(2 -2.91745e-11 0)
(2 -4.53167e-12 0)
(2 -3.74062e-11 0)
(2 -3.66635e-14 0)
(1.87488 0.178997 0)
(2 4.26837e-15 0)
(2 3.53361e-14 0)
(2 4.00073e-14 0)
(2 -1.66854e-07 0)
(2.09485 -0.264036 0)
(2 6.12685e-14 0)
(2 1.48358e-09 0)
(1.84077 0.218202 0)
(1.82914 0.228502 0)
(2 -3.17115e-07 0)
(2 1.34287e-13 0)
(2 -1.10057e-07 0)
(2.0407 -0.0807666 0)
(2 4.29591e-14 0)
(2 4.36754e-10 0)
(2 -6.77544e-14 0)
(2 -7.05632e-14 0)
(2 -3.37708e-14 0)
(2 -8.20504e-15 0)
(2.01376 -0.0334916 0)
(1.99456 0.00237174 0)
(1.83175 0.228886 0)
(2 2.26837e-14 0)
(2 -4.90866e-14 0)
(2 -7.44805e-14 0)
(1.82929 0.230273 0)
(2.02995 -0.0674918 0)
(2 -5.02351e-09 0)
(2 -3.50661e-14 0)
(2 -3.31945e-14 0)
(1.82904 0.228745 0)
(1.82929 0.227754 0)
(2 -2.82211e-08 0)
(2 5.42045e-06 0)
(2 3.47488e-09 0)
(2 -1.59779e-13 0)
(2 1.30573e-09 0)
(2 4.24942e-14 0)
(2 -1.63399e-11 0)
(2 -2.88329e-14 0)
(2 -1.72314e-13 0)
(2.10814 -0.267984 0)
(2 -2.57595e-14 0)
(2 -1.33613e-11 0)
(1.82869 0.228468 0)
(2.11821 -0.262684 0)
(2 -1.30644e-13 0)
(1.82893 0.228484 0)
(2 6.3089e-11 0)
(2.10999 -0.260155 0)
(2 -1.34397e-14 0)
(2 -5.69747e-14 0)
(2.10838 -0.267613 0)
(2 -1.76955e-13 0)
(2 -1.17938e-11 0)
(2 -5.62763e-12 0)
(2 9.2089e-14 0)
(2 -2.10166e-12 0)
(2 -1.63507e-13 0)
(2 -1.00082e-13 0)
(1.83498 0.22534 0)
(1.83205 0.228731 0)
(2 1.76266e-13 0)
(2 7.71182e-14 0)
(2 1.02838e-13 0)
(2 1.84888e-13 0)
(1.84627 0.211722 0)
(2 7.53604e-14 0)
(1.9455 0.0800909 0)
(2.11316 -0.257196 0)
(2 -2.96014e-08 0)
(2 -7.69348e-15 0)
(2 -2.36549e-13 0)
(2 -2.41897e-13 0)
(2 -1.63704e-13 0)
(2 -1.58455e-14 0)
(2 -1.00334e-13 0)
(1.98562 0.015116 0)
(2 -5.22828e-14 0)
(2 -7.2132e-14 0)
(1.9018 0.136047 0)
(2 -6.13537e-14 0)
(2 7.27236e-15 0)
(2 -2.97493e-14 0)
(1.86091 0.193914 0)
(2 -1.87379e-13 0)
(2 1.69816e-13 0)
(2 -2.08878e-13 0)
(2 -1.60389e-13 0)
(2.11864 -0.262759 0)
(2 2.53924e-12 0)
(2 1.72074e-13 0)
(2.10556 -0.283386 0)
(2.11617 -0.264948 0)
(2 -1.93457e-13 0)
(2 -5.95788e-15 0)
(1.83174 0.228846 0)
(2 9.84755e-14 0)
(1.97791 -0.0586194 0)
(2 -2.93555e-14 0)
(2 1.70022e-13 0)
(2 2.31619e-13 0)
(1.88165 0.170326 0)
(2.12564 -0.269626 0)
(2 -6.90639e-14 0)
(2.13408 -0.274406 0)
(2 -1.15771e-13 0)
(2.074 -0.155538 0)
(2 -3.19929e-13 0)
(2 8.57187e-15 0)
(2 2.48574e-14 0)
(1.8306 0.228275 0)
(2 -4.21038e-08 0)
(2 -3.40903e-13 0)
(1.83152 0.228925 0)
(2 6.58997e-14 0)
(2 -2.32234e-11 0)
(2 1.69234e-09 0)
(1.83165 0.228997 0)
(2 2.15814e-10 0)
(2 -1.94252e-13 0)
(1.83201 0.229384 0)
(2 -9.99866e-14 0)
(2 3.16329e-14 0)
(2.10074 -0.265825 0)
(2 -1.7485e-11 0)
(1.94742 0.0776372 0)
(2 -4.88726e-14 0)
(2 -8.86888e-14 0)
(1.83057 0.228816 0)
(1.8308 0.2286 0)
(1.88787 0.160886 0)
(1.84903 0.209781 0)
(2 -7.20315e-15 0)
(2.1017 -0.26622 0)
(2 -9.0671e-15 0)
(2 -2.89907e-14 0)
(1.8383 0.220738 0)
(2 4.44617e-14 0)
(2.12496 -0.259665 0)
(2 -7.00862e-14 0)
(2 3.59279e-14 0)
(2 8.48644e-16 0)
(1.83095 0.22897 0)
(2 -1.20285e-13 0)
(2 2.63645e-14 0)
(2 3.20864e-14 0)
(2 1.6757e-14 0)
(1.8999 0.146263 0)
(2 -7.31667e-14 0)
(1.83917 0.232651 0)
(1.83029 0.229756 0)
(2.11253 -0.265906 0)
(2 -2.95747e-13 0)
(2 4.20748e-14 0)
(2.1306 -0.259133 0)
(2.12956 -0.263446 0)
(2 -2.1212e-14 0)
(2 -1.2219e-13 0)
(2 -6.7668e-12 0)
(1.87998 0.174161 0)
(1.87216 0.183021 0)
(2 -6.62094e-14 0)
(2 -1.66008e-13 0)
(2 -2.37469e-13 0)
(2 2.87318e-14 0)
(2 1.19095e-13 0)
(2 -1.09027e-14 0)
(2 -6.47641e-14 0)
(1.9273 0.111047 0)
(1.82916 0.228531 0)
(1.995 0.00402997 0)
(2 1.32122e-13 0)
(1.83386 0.226903 0)
(2.1278 -0.264551 0)
(2 1.34656e-14 0)
(2 -3.23457e-14 0)
(2 9.8134e-15 0)
(1.90553 0.137484 0)
(2 5.34081e-14 0)
(1.96826 0.0546221 0)
(2 -2.63228e-14 0)
(1.84627 0.211274 0)
(1.83242 0.228156 0)
(2 7.57606e-14 0)
(2.09842 -0.266775 0)
(2 -3.33108e-14 0)
(1.8298 0.228515 0)
(2 4.54266e-14 0)
(2 -6.10085e-14 0)
(1.83145 0.229067 0)
(1.84242 0.216657 0)
(2 -1.19997e-13 0)
(1.82667 0.230586 0)
(2 -1.80411e-13 0)
(2.10126 -0.271193 0)
(2 -8.43823e-14 0)
(2 -1.98035e-13 0)
(2 -5.01354e-14 0)
(1.8362 0.229665 0)
(1.83492 0.225392 0)
(1.8518 0.20563 0)
(2 -5.43614e-14 0)
(1.83017 0.227735 0)
(1.8314 0.228636 0)
(2 -6.26424e-14 0)
(1.83075 0.229081 0)
(2 -1.0166e-08 0)
(1.8324 0.2282 0)
(2 -2.7714e-14 0)
(2.12923 -0.262329 0)
(2.01039 -0.0168708 0)
(2.11473 -0.26825 0)
(2 -3.37575e-11 0)
(2 -2.47101e-11 0)
(2 -3.6433e-11 0)
(2 -1.38775e-13 0)
(2 -1.51448e-11 0)
(1.83209 0.229121 0)
(2 -6.15878e-15 0)
(1.8317 0.22877 0)
(2 -3.31864e-11 0)
(2 -9.14284e-11 0)
(2 7.32201e-14 0)
(1.84001 0.219651 0)
(2 6.48808e-15 0)
(2.12231 -0.265024 0)
(1.83131 0.228867 0)
(2 -4.80109e-14 0)
(2.09178 -0.260951 0)
(2.1216 -0.245077 0)
(2.13477 -0.252328 0)
(2 -4.10097e-14 0)
(1.91655 0.119019 0)
(1.98387 0.0160735 0)
(1.83087 0.229477 0)
(1.83128 0.228634 0)
(2 -1.96007e-13 0)
(2 -3.54831e-07 0)
(2 -5.1439e-08 0)
(2 -1.51241e-13 0)
(1.83122 0.22878 0)
(2 4.02873e-14 0)
(2 4.35096e-14 0)
(1.83127 0.228776 0)
(1.83141 0.228686 0)
(2 -3.11979e-13 0)
(1.94178 0.0867299 0)
(1.99976 0.000861055 0)
(2 -4.19615e-14 0)
(2.0011 -0.00196362 0)
(1.83041 0.228814 0)
(2.05696 -0.0999838 0)
(2 -1.20974e-07 0)
(2.06354 -0.117219 0)
(2.10524 -0.26147 0)
(2.10502 -0.266184 0)
(1.98997 -0.0447416 0)
(1.82938 0.22842 0)
(1.83397 0.2264 0)
(1.96781 0.0535156 0)
(1.83141 0.229035 0)
(1.83115 0.228711 0)
(2 9.30023e-14 0)
(2 1.12086e-13 0)
(1.83071 0.228721 0)
(1.82926 0.228065 0)
(1.83168 0.228866 0)
(1.82814 0.228733 0)
(2 -8.4282e-14 0)
(1.83152 0.229027 0)
(2.1233 -0.263339 0)
(1.83006 0.230241 0)
(1.83168 0.228335 0)
(1.8288 0.228906 0)
(1.83018 0.229088 0)
(2.04509 -0.0903717 0)
(2.03158 -0.0701891 0)
(2.02299 -0.0513902 0)
(1.83199 0.229373 0)
(2.01343 -0.0266268 0)
(1.83152 0.229089 0)
(2 -4.79361e-14 0)
(2 3.0776e-14 0)
(1.83091 0.229697 0)
(1.83051 0.228503 0)
(2 -2.64286e-13 0)
(2.11824 -0.265685 0)
(1.83123 0.228019 0)
(1.83181 0.229104 0)
(2 -3.31505e-13 0)
(1.83186 0.228913 0)
(1.83169 0.228909 0)
(2 -5.64109e-14 0)
(1.8314 0.228675 0)
(2.09466 -0.261668 0)
(1.83043 0.230167 0)
(1.82974 0.22869 0)
(1.83011 0.228951 0)
(1.83106 0.228729 0)
(2 -2.43472e-14 0)
(2 -6.51176e-14 0)
(2 -1.07257e-07 0)
(1.83202 0.229284 0)
(1.89186 0.157877 0)
(2.11008 -0.252782 0)
(1.83164 0.228977 0)
(2.1046 -0.275112 0)
(1.83206 0.229298 0)
(2 -8.81256e-15 0)
(2 -4.70305e-14 0)
(2 1.52228e-13 0)
(2 1.23406e-14 0)
(1.82931 0.229576 0)
(1.83148 0.229121 0)
(2 9.9344e-14 0)
(2 2.38913e-13 0)
(1.83123 0.228888 0)
(2.10131 -0.275855 0)
(1.83093 0.229552 0)
(2.10957 -0.265717 0)
(2 5.06705e-14 0)
(1.83293 0.227684 0)
(2 -4.05357e-14 0)
(2.10117 -0.26612 0)
(1.83096 0.229726 0)
(2.08663 -0.196428 0)
(2 1.47511e-13 0)
(1.83136 0.228665 0)
(1.83062 0.230108 0)
(1.83198 0.228555 0)
(2 -1.87584e-13 0)
(2 1.52964e-14 0)
(1.91721 0.122336 0)
(1.83086 0.22981 0)
(2.11092 -0.261483 0)
(1.83193 0.228948 0)
(2 5.8816e-14 0)
(1.83222 0.228835 0)
(2.04686 -0.0882888 0)
(1.83218 0.228624 0)
(2.10538 -0.268191 0)
(2 1.07988e-13 0)
(1.83199 0.228865 0)
(2.12112 -0.230352 0)
(1.83097 0.229786 0)
(2.10919 -0.260567 0)
(2 1.88936e-13 0)
(1.831 0.229015 0)
(2 8.90834e-14 0)
(1.83025 0.228209 0)
(2 -5.56387e-14 0)
(1.89927 0.14672 0)
(1.83739 0.221957 0)
(1.868 0.184655 0)
(2.116 -0.276444 0)
(2 -2.88605e-13 0)
(1.83117 0.229002 0)
(2 9.6903e-14 0)
(1.83201 0.228945 0)
(2 -1.20907e-07 0)
(1.832 0.229293 0)
(2 -2.3216e-07 0)
(2 -2.66562e-13 0)
(1.83119 0.228514 0)
(2.00287 -0.00918441 0)
(1.83054 0.230017 0)
(2.09531 -0.270234 0)
(1.84528 0.225178 0)
(2 6.85402e-14 0)
(1.88209 0.169579 0)
(2 -2.76438e-14 0)
(1.8301 0.227686 0)
(1.83208 0.229039 0)
(1.83125 0.228566 0)
(2 1.38574e-13 0)
(1.84858 0.209735 0)
(1.83141 0.229331 0)
(1.84458 0.214357 0)
(1.89305 0.153457 0)
(1.83887 0.226375 0)
(2 5.16337e-14 0)
(1.88973 0.15841 0)
(2 -1.39091e-13 0)
(1.83106 0.228966 0)
(2 -9.04679e-14 0)
(1.97328 0.0397539 0)
(2 1.2564e-14 0)
(1.84418 0.213999 0)
(2 -8.34319e-14 0)
(1.83223 0.228796 0)
(1.83924 0.220313 0)
(1.83927 0.22011 0)
(2 5.02841e-14 0)
(1.83798 0.224033 0)
(2.13003 -0.264466 0)
(2 -8.58315e-15 0)
(2.10805 -0.266831 0)
(2 -4.08531e-13 0)
(2 1.00318e-13 0)
(2 -2.03442e-14 0)
(1.83076 0.229072 0)
(2 1.22002e-13 0)
(1.83142 0.229015 0)
(2 2.77327e-14 0)
(2 -5.01777e-14 0)
(2 -2.27873e-13 0)
(1.83084 0.229044 0)
(1.84543 0.219263 0)
(1.8572 0.205388 0)
(1.83037 0.229613 0)
(1.83014 0.230415 0)
(2.11569 -0.266256 0)
(1.83115 0.228972 0)
(1.83023 0.228689 0)
(2 -1.29816e-13 0)
(1.86513 0.189592 0)
(1.83192 0.228779 0)
(1.83005 0.225346 0)
(2 -2.36254e-13 0)
(1.82889 0.228578 0)
(1.83086 0.228835 0)
(2 -2.68573e-13 0)
(1.82835 0.231172 0)
(1.8306 0.228803 0)
(1.83099 0.229344 0)
(1.8306 0.229599 0)
(2 -1.07773e-13 0)
(2 -1.48055e-13 0)
(2 -1.02084e-13 0)
(1.83204 0.22887 0)
(2.11854 -0.267883 0)
(2 2.9428e-14 0)
(1.83145 0.228982 0)
(2 1.146e-13 0)
(2 3.27135e-15 0)
(2.11836 -0.261666 0)
(2 -2.77676e-14 0)
(2 1.0187e-13 0)
(1.83132 0.228991 0)
(1.83187 0.229099 0)
(2 -6.51578e-14 0)
(1.83208 0.228975 0)
(1.83057 0.229257 0)
(1.83124 0.229158 0)
(2.00554 -0.011847 0)
(1.83112 0.228916 0)
(2 2.25083e-14 0)
(1.83122 0.22888 0)
(1.83151 0.228916 0)
(1.85698 0.201463 0)
(2 -1.24052e-14 0)
(2 -1.62064e-13 0)
(2 -2.97908e-14 0)
(1.83096 0.230248 0)
(1.831 0.228579 0)
(1.83168 0.228963 0)
(2.01785 -0.0348755 0)
(2 1.94852e-13 0)
(1.82809 0.231539 0)
(1.83108 0.228954 0)
(1.83126 0.22881 0)
(2 6.79129e-14 0)
(1.83119 0.22882 0)
(1.83121 0.229192 0)
(1.83139 0.229005 0)
(1.82759 0.232073 0)
(2 2.37007e-14 0)
(1.83205 0.228713 0)
(1.82953 0.232039 0)
(1.85265 0.20216 0)
(1.83207 0.229295 0)
(1.82819 0.231114 0)
(2 -6.96089e-14 0)
(1.8292 0.233396 0)
(1.83344 0.226782 0)
(1.83164 0.228919 0)
(1.83034 0.230312 0)
(1.83205 0.228555 0)
(2.126 -0.264319 0)
(1.83156 0.229008 0)
(1.83151 0.229918 0)
(2 -9.58498e-14 0)
(1.83144 0.229026 0)
(1.83152 0.228862 0)
(1.83148 0.228794 0)
(1.8321 0.228955 0)
(2 -5.67819e-08 0)
(1.83176 0.228961 0)
(1.83132 0.228971 0)
(2 -1.68852e-07 0)
(1.83205 0.229261 0)
(1.85868 0.198449 0)
(2 -1.24109e-13 0)
(2 -5.61094e-14 0)
(2 1.31571e-09 0)
(1.83132 0.230105 0)
(1.83033 0.229339 0)
(2 -3.32233e-14 0)
(2 6.66851e-14 0)
(1.90869 0.135386 0)
(2 -6.90861e-14 0)
(1.8314 0.229043 0)
(2 -8.90865e-14 0)
(2 1.41851e-13 0)
(1.83148 0.228929 0)
(1.83059 0.229882 0)
(1.83165 0.228696 0)
(1.83124 0.228643 0)
(2 -2.35455e-14 0)
(2 4.99291e-14 0)
(2 -6.62615e-14 0)
(1.88379 0.167886 0)
(2 8.15628e-14 0)
(1.83182 0.22883 0)
(2 -7.37659e-14 0)
(2 -7.80159e-14 0)
(1.8308 0.228822 0)
(1.83006 0.228647 0)
(2 -5.17819e-14 0)
(1.83148 0.228824 0)
(2.13025 -0.268789 0)
(1.83139 0.228617 0)
(1.83096 0.230214 0)
(2.08352 -0.207773 0)
(2 -6.3828e-14 0)
(2.1197 -0.274312 0)
(1.85137 0.203584 0)
(1.8316 0.230079 0)
(1.83246 0.228378 0)
(1.83233 0.228911 0)
(2.10872 -0.26406 0)
(1.83146 0.229239 0)
(1.8316 0.229657 0)
(2.11101 -0.266504 0)
(2.10381 -0.279312 0)
(2 -2.5397e-07 0)
(1.83192 0.228054 0)
(1.83185 0.229098 0)
(2 -1.64164e-13 0)
(2 -5.01667e-14 0)
(1.8317 0.228939 0)
(2 -4.13738e-13 0)
(1.83182 0.228253 0)
(2 2.32658e-06 0)
(1.85118 0.206094 0)
(2 -1.41062e-14 0)
(1.92144 0.122401 0)
(1.8318 0.22901 0)
(1.83068 0.230106 0)
(1.88177 0.171567 0)
(1.83926 0.222084 0)
(1.83061 0.228968 0)
(1.83048 0.229085 0)
(1.83853 0.215491 0)
(2 -1.735e-13 0)
(2.12076 -0.26108 0)
(1.83157 0.227773 0)
(1.83168 0.229305 0)
(1.82854 0.230638 0)
(2 6.86877e-06 0)
(2 4.4636e-10 0)
(2 1.49306e-09 0)
(1.82927 0.229446 0)
(2 -1.4646e-13 0)
(1.83171 0.229026 0)
(1.83216 0.229276 0)
(2.09334 -0.178416 0)
(2 3.29744e-14 0)
(1.83177 0.228932 0)
(2.00002 -3.7069e-05 0)
(2 5.50836e-14 0)
(1.99999 1.84603e-05 0)
(1.99998 2.8511e-05 0)
(1.83175 0.22926 0)
(1.83112 0.228667 0)
(2.00052 -0.000889427 0)
(2 8.51597e-14 0)
(2 1.88489e-14 0)
(1.83191 0.228972 0)
(1.83087 0.229694 0)
(1.83164 0.228929 0)
(1.82925 0.229548 0)
(1.83118 0.228364 0)
(2.10251 -0.254441 0)
(1.84982 0.215089 0)
(2 -1.94385e-13 0)
(1.83295 0.227632 0)
(1.83178 0.228925 0)
(1.83177 0.228744 0)
(1.83389 0.234398 0)
(2 -1.65089e-13 0)
(1.83201 0.228989 0)
(1.83625 0.223792 0)
(1.83106 0.229581 0)
(2 -2.62558e-13 0)
(1.83025 0.228805 0)
(1.83072 0.229566 0)
(2.04877 -0.0990344 0)
(1.83205 0.228831 0)
(1.83003 0.228831 0)
(2 -1.73671e-13 0)
(1.83147 0.228966 0)
(2.04945 -0.111434 0)
(1.83053 0.228666 0)
(2.05311 -0.101 0)
(1.83178 0.22907 0)
(2 -1.10414e-07 0)
(1.83137 0.228836 0)
(1.82526 0.234013 0)
(1.8318 0.228928 0)
(1.83195 0.229288 0)
(1.83136 0.228864 0)
(1.829 0.228051 0)
(1.83147 0.229381 0)
(1.82922 0.228254 0)
(2 -3.32135e-13 0)
(2.02865 -0.0507501 0)
(1.83068 0.22881 0)
(1.83182 0.229007 0)
(2.04584 -0.106848 0)
(1.83176 0.228679 0)
(2.00526 -0.00818345 0)
(1.8955 0.151575 0)
(1.83104 0.228843 0)
(1.83026 0.228853 0)
(1.83054 0.230262 0)
(2 1.12577e-13 0)
(1.83054 0.229937 0)
(1.8893 0.154064 0)
(1.83044 0.229884 0)
(2.02375 -0.0587097 0)
(1.83076 0.229816 0)
(1.82657 0.229101 0)
(2 -8.81494e-14 0)
(2.03951 -0.0872279 0)
(2 -7.05709e-09 0)
(1.82923 0.234757 0)
(2 3.4847e-14 0)
(1.88475 0.164782 0)
(2 3.90665e-09 0)
(1.84548 0.209865 0)
(2.04398 -0.0851408 0)
(2 1.32904e-14 0)
(1.83009 0.23048 0)
(1.82788 0.22829 0)
(2 -4.75886e-14 0)
(1.83032 0.230156 0)
(1.83095 0.229684 0)
(1.83249 0.232201 0)
(1.82691 0.232361 0)
(1.82959 0.233661 0)
(2 -2.94872e-13 0)
(1.82887 0.228507 0)
(2 -5.37894e-14 0)
(2 -7.33738e-14 0)
(2 2.48513e-13 0)
(2.03771 -0.0724148 0)
(1.83192 0.228878 0)
(1.83188 0.228995 0)
(1.83191 0.231373 0)
(1.83156 0.228774 0)
(1.83409 0.227283 0)
(1.82951 0.230006 0)
(1.83647 0.225784 0)
(1.83153 0.229052 0)
(2.03597 -0.0647426 0)
(1.98891 0.022629 0)
(2 3.55734e-09 0)
(2 -4.26377e-14 0)
(1.8254 0.233226 0)
(1.83146 0.228964 0)
(1.83146 0.229159 0)
(1.8317 0.229061 0)
(1.99999 1.65174e-05 0)
(1.91636 0.126677 0)
(2 -1.71303e-07 0)
(1.82861 0.230719 0)
(1.86182 0.197961 0)
(2 -2.77597e-12 0)
(2 -5.65506e-11 0)
(2.10265 -0.184915 0)
(1.83153 0.228901 0)
(2 -3.29219e-14 0)
(2 -5.19767e-14 0)
(2.10354 -0.264255 0)
(1.83148 0.22896 0)
(2 -5.53402e-15 0)
(1.82965 0.228683 0)
(1.83166 0.228857 0)
(1.83072 0.22896 0)
(1.8378 0.221888 0)
(1.8315 0.228762 0)
(2 -2.01456e-10 0)
(2.11573 -0.272993 0)
(1.95622 0.0677684 0)
(1.83118 0.228637 0)
(1.83138 0.228797 0)
(2 -1.09924e-13 0)
(1.83195 0.229105 0)
(1.83132 0.229016 0)
(1.9148 0.125542 0)
(1.99916 0.00535841 0)
(1.96728 0.0549221 0)
(2 -1.4017e-13 0)
(1.82966 0.228584 0)
(1.83152 0.229012 0)
(2 -1.17684e-07 0)
(2 -2.23297e-10 0)
(2.10888 -0.261812 0)
(2 -2.42353e-10 0)
(2 -6.83859e-14 0)
(1.83171 0.228826 0)
(1.83146 0.228967 0)
(1.83089 0.229302 0)
(1.83169 0.228961 0)
(1.83114 0.229054 0)
(1.82868 0.229366 0)
(1.83144 0.229116 0)
(1.83126 0.229834 0)
(1.8313 0.228878 0)
(2 3.98769e-14 0)
(2.00146 -0.00250311 0)
(1.8309 0.228848 0)
(1.83208 0.228895 0)
(2.00098 -0.00187305 0)
(1.8314 0.228991 0)
(1.83138 0.228932 0)
(2.11179 -0.271168 0)
(2.11341 -0.268432 0)
(1.83107 0.229758 0)
(1.8305 0.229181 0)
(2 -1.69124e-13 0)
(2 2.49137e-13 0)
(1.99962 0.00180748 0)
(1.83167 0.22885 0)
(1.83104 0.228756 0)
(1.83153 0.228988 0)
(2 9.87044e-10 0)
(1.83139 0.228904 0)
(2 -3.04871e-14 0)
(2.05152 -0.100785 0)
(1.82825 0.23103 0)
(1.83581 0.229114 0)
(2 -1.67936e-13 0)
(1.92204 0.110076 0)
(1.83105 0.22895 0)
(2 -4.968e-14 0)
(1.83001 0.229311 0)
(2 -1.00772e-10 0)
(1.83215 0.228826 0)
(1.88335 0.169834 0)
(1.83213 0.228489 0)
(2 1.49939e-11 0)
(1.83179 0.229203 0)
(1.82938 0.230168 0)
(2.10844 -0.263774 0)
(1.83163 0.229026 0)
(2 -1.23956e-07 0)
(1.83093 0.230155 0)
(1.82877 0.228542 0)
(2 7.23357e-09 0)
(2.11536 -0.268693 0)
(1.83041 0.230364 0)
(1.86317 0.193351 0)
(2.00078 -0.00112844 0)
(1.84009 0.228508 0)
(1.83148 0.228893 0)
(2 -4.85966e-12 0)
(1.99798 0.000932109 0)
(1.82917 0.230218 0)
(2.00164 -0.0017704 0)
(1.83139 0.228988 0)
(2 -3.38984e-12 0)
(2 -1.8986e-13 0)
(1.83093 0.229986 0)
(2 -1.45485e-15 0)
(1.83066 0.230229 0)
(1.83134 0.229041 0)
(2.0014 -0.00223852 0)
(1.85875 0.193864 0)
(2 3.02328e-09 0)
(1.8314 0.228967 0)
(2 3.17604e-10 0)
(2 -9.43349e-13 0)
(2 1.10693e-11 0)
(2 6.49808e-12 0)
(1.83174 0.229071 0)
(2 7.21137e-09 0)
(2 -1.42064e-13 0)
(1.82888 0.235243 0)
(2 3.93237e-14 0)
(1.83141 0.229168 0)
(2 3.0962e-10 0)
(1.89155 0.158519 0)
(1.82917 0.229156 0)
(1.83184 0.229197 0)
(2 8.87433e-10 0)
(2 -3.0783e-15 0)