/*--------------------------------*- C++ -*----------------------------------*\
  =========                 |
  \\      /  F ield         | OpenFOAM: The Open Source CFD Toolbox
   \\    /   O peration     | Website:  https://openfoam.org
    \\  /    A nd           | Version:  12
     \\/     M anipulation  |
\*---------------------------------------------------------------------------*/
FoamFile
{
    format      ascii;
    class       volScalarField;
    location    "1.46";
    object      p;
}
// * * * * * * * * * * * * * * * * * * * * * * * * * * * * * * * * * * * * * //

dimensions      [1 -1 -2 0 0 0 0];

internalField   nonuniform List<scalar> 
22702
(
1
1
0.929506
1
1.07189
1
1.46898
1
1
0.652963
1.47215
1.47017
1
1.47221
0.896533
1
1
1
1.47252
1
1.47122
1
1.47067
0.648544
1.47531
0.631028
1
1.47147
0.666697
0.656618
1
1.47141
1
1
1
1.434
1.46969
1.47033
1
1
0.653731
1
1.22524
1
1.4708
1
1
1
1
0.653815
1
0.653231
1
1.47125
1
1.47135
1
1
1
1
0.623818
1
1
0.664714
1
0.6588
1
1
1
0.648849
1
1.47142
1.29926
1
1.47172
1.49634
0.66169
1.47383
0.655134
1
1.47153
0.660712
1.46947
1.47068
1
1
1
1
0.952831
0.651
1.47072
1
1
0.693584
1
1.47164
0.695691
1
1
1
1
1.24515
1.47162
0.650865
1
1
1.11508
1
0.657693
1
1.4734
1.47101
1
1
0.635053
0.637235
0.651584
1
1
1
1
1
0.926395
1
1.40288
1.08359
1.47265
1
1.47083
1.47165
1.47136
1.47272
1
0.636897
1
0.681131
1
1
1
1
1.47058
1
1
1
1
1.47281
1
1.02447
1
1
1
1
0.653632
1
1.01048
1
0.655936
1
1
1
1.46976
1
1.47084
0.641442
0.633767
1.47179
1.47166
1
1.09907
1.27577
1
1.47055
0.655756
1.43649
1
1
1
1
1.47254
1.38137
1
1.47025
0.656222
1.47093
1
0.663547
1
0.659843
0.630927
0.999786
1
1
1.4711
1
1
1.47208
1
1.4694
1.47082
0.659996
1
1
0.660431
1.47165
1
1
1
1.47166
1
0.665777
1
1
1.47114
1.47203
1.4709
1
1.00004
1
1
1
1.4718
1
0.649924
1.48884
1.47207
1.46818
1
1
1
0.641055
1.47103
1.21998
1
1.47431
0.654823
0.659658
1.47402
1.46671
1
1.47657
0.651378
1.41485
1
1
1
1
1.47218
1
1.28011
1.04445
1
1
1.4718
0.674335
0.729237
1
1.4689
0.660175
1.47605
1
1
1
1
1
1
1
0.652649
0.756408
0.663394
1.47184
1
1
1
1
1.42301
1
0.655284
1
0.638577
0.657657
1.47052
0.657984
1.47117
1
1
1
0.997678
0.663824
0.666916
0.999999
1
0.632716
1
1.47083
0.655314
1
1
1.4725
0.665559
1
1.47769
0.641979
1.47179
1
0.648362
0.997921
1
1
1
0.65038
1
1
0.999999
1.00001
1.02096
1.30141
1
0.655611
1
1
1
1
1
1
1
1.47292
1
1.47248
1
1
1
0.659533
1
1.47251
0.659983
1
1.36117
1
1
1.47393
1
1
1
1.45961
1
1
1.46256
1.47286
1
1.10673
1
1
0.680897
1
1
1
0.68261
1
1
1
1
0.639818
1
1
1
1
1
0.676572
1.00007
1.47125
1
0.999961
1.47156
1.47194
1
1
0.662209
0.763209
1.47072
1
1
1
1.47166
0.658773
1
1.47116
1
1
0.707227
0.702403
1
0.662738
0.659506
1
1
1
1
1
1
1
1.47389
1.08964
1.44025
0.677254
0.914292
1.47047
1
1.47243
1.47119
0.659459
0.732111
1
0.666772
1
1.48238
1
1
1
1
1.47196
1
1
1
1
1
1
1
1.17109
1.46937
1
1.4721
1
1
0.660946
1
1
1
1
1.47162
1.35961
1
1
0.659385
1.47154
1.47141
1
1.47118
1.47197
1.47211
1
0.774877
1
1.47104
1.03677
1.47206
1
0.668161
0.998938
1.47211
1
1
1
1
0.65509
1.47114
1.42293
1
1.47556
1.47157
1.47112
1
1.22344
1.47035
1
1
1.31823
1.06655
1.47153
0.996319
1.47173
1
1.47201
1.47217
1.47203
1.47099
1
1.44398
0.917573
0.891229
1
0.999999
1
1
1.47534
1
1
1
1
1
1.47199
1
1
0.995929
1.47152
1.40558
1
1.38901
1.00005
1
1
1.4702
1
0.997087
1.00482
1
1.47226
1
1.47248
1
1
1.34746
1
1.47338
1.00002
1
1.47412
1
1.47161
1
1
1
1.47224
1
1.46867
1.00001
1.47206
1.47383
1.4715
1.47338
1
1.47093
1.46607
1
0.666619
1.44833
1.31759
1
1.47221
1
0.682556
0.637975
1
1
1
1
1
0.699068
1
1.47189
1.12053
1.47032
1
1
1
1
1
1.47189
1
1.47157
1.26902
0.731707
1
1.00001
1.13195
1.11205
1
1
1.14637
1
0.659283
1.47174
1.47222
1
1
1
1.47514
1
1.00003
1.4676
1.47024
0.941378
1
1
0.654821
1.43438
1
1
1
1
1
1.47162
1.47073
1
1.47419
1.46884
1.47168
1
1
1
1
0.642928
1.47167
1
1
1.42873
1.47091
1
1.44037
1.46935
1
1
1
1
1
1.47226
1
1
1
1
1.47956
1
1.45812
0.658807
1
0.656017
1
1
1
0.996937
0.663137
0.999138
1
1
1
1.06318
1
1
0.851587
1
1
1
1
1
1
1
0.999997
0.935984
0.999999
1
0.997533
1
0.655082
1
1
1
1
1.34224
1
1
1
1
0.658581
1
1
1.44883
1.47191
0.999999
1
1
0.89416
1
1
1
1
1
1
0.93919
1.01295
1.47215
1
1
1
1.47468
0.953365
1
1
1
1.47112
1.46991
1
1.00001
1
1
1
1
1
1
1
0.660052
1
1
1.47284
0.668299
1
1.47072
1
0.657788
1
1
0.661086
1
1
1
1
1
1
1
1.45865
1.46898
1
1
1
1
1.43242
1
1.14073
0.666391
1
1
1
1
1
1
1
1.03348
1
1
1.23706
1
1
1
1.37752
1
1
1
1
0.66296
1
1
0.649844
0.664055
1
1
1.47144
1
0.971101
1
1
1
1.31752
0.652126
1
0.643077
1
0.789641
1
1
1
1.47027
1
1
1.47168
1
1
1
1.47211
1
1
1.47109
1
1
0.660915
1
1.14187
1
1
1.47053
1.47123
1.31549
1.42381
1
0.66529
1
1
1.44247
1
0.659685
1
1
1
1.47099
1
1
1
1
1.27808
1
1.4368
1.47367
0.66891
1
1
0.636459
0.633231
1
1
1
1.33284
1.34952
1
1
1
1
1
1
1
1.19518
1.47216
1.0068
1
1.46564
0.628828
1
1
1
1.25556
1
1.0924
1
1.43016
1.46465
1
0.668217
1
1.47074
1
1
1.47112
1.43743
1
1.47627
1
0.668589
1
1
1
1.47745
1.45816
1.40585
1
1.47139
1.47157
1
1.4717
1
1.46347
1
0.659411
0.967031
0.657246
1
1
1
1
1
1.47115
1
1.4718
1
1
1
1.44776
1
0.657868
1.4719
1
0.6522
0.667993
0.654385
1
1.22539
1.04193
1.46945
1.4718
1
0.999999
1
1
1.47174
1
1
1.47179
1.47158
1
1.13696
0.999774
1
0.996752
1.46977
0.845032
1
0.826057
0.659994
0.658941
0.950583
1.47177
1.45928
1.09653
1.47579
1.47122
1
1
1.47303
1.47315
1.47011
1.47203
1
1.46834
0.660059
1.4763
1.47169
1.47121
1.47054
0.858983
0.884618
0.929471
1.47108
0.957159
1.46953
1
1
1.46941
1.47245
1
0.668803
1.46941
1.47131
1
1.4729
1.47277
1
1.4715
0.654856
1.47525
1.47359
1.47197
1.46844
1
1
1
1.47111
1.29457
0.668499
1.47202
0.653505
1.47099
1
1
1
1
1.47421
1.47139
1
1
1.47054
0.656725
1.47212
0.65576
1
1.46623
1
0.653414
1.47271
0.728863
1
1.47191
1.47466
1.47425
1
1
1.21046
1.47337
0.659224
1.47163
1
1.47118
0.884265
1.47428
0.657409
1
1.47155
0.678438
1.46901
0.663464
1
1.47103
1
1.46947
1
1.26366
1.45636
1.36922
0.661134
1
1.47203
1
1.47385
1
1.47167
1
1
1.47057
1.03782
1.47444
0.656304
1.43921
1
1.32565
1
1.47011
1.47152
1.47059
1
1.42036
1.47107
1.43871
1.28907
1.46934
1
1.31398
1
1.47166
1
1.06179
1
1.42798
1
1.47537
1.4421
1.447
1
1.45134
0.630683
1
0.661116
1
1
1
1.47284
1
1.47239
1
1
1
1.47147
1.43806
1.36663
1.47361
1.47518
0.655922
1.46601
1.46964
1
1.40388
1.47091
1.42904
1
1.47054
1.47129
1
1.48295
1.47173
1.47099
1.4725
1
1
1
1.46927
0.637819
1
1.47165
1
1
0.634011
1
1
1.47097
1.47226
1
1.47144
1.46269
1.47199
0.9709
1.47209
1
1.47214
1.47437
1.39496
1
1
1
1.47398
1.4724
1.4665
0.946773
1
1.47493
1.47231
1.47165
1
1.47203
1.47146
1.47193
1.4753
1
1.46599
1.47482
1.40302
1.47294
1.47349
1
1.48081
1.46853
1.46702
1.47743
1.4711
0.652992
1.47091
1.47285
1
1.46732
1.46771
1.46479
1.47829
1
1.46599
1.47492
1
1.47121
1.38588
1
1
1
1.47507
1.46637
1
1
1.24857
1
1.47137
1
1
1.47121
1.47365
1.47158
1.47159
1
1
1
1.32765
1
1.4742
1
1
1.47103
1.47356
1
1.47121
0.645538
1.47145
1.47236
0.726734
1
0.653875
1.40506
1.47341
1.46686
1.46111
0.65764
1.47102
1.4725
0.654978
0.652227
1
1.47478
1.47055
1
1
1.46827
1
1.47159
1
1.4111
1
1.20131
1.47062
1.47441
1.3292
1.43685
1.47034
1.47276
1.45131
1
0.636829
1.46516
1.4724
1.47972
1.00001
1
1
1.47509
1
1.47252
1.46992
0.756872
1
1.47712
0.999934
1
1.00003
1.00004
1.47193
1.47393
0.998432
1
1
1.47329
1.47363
1.47089
1.47362
1.47154
0.669927
1.39579
1
1.46514
1.4716
1.4719
1.46591
1
1.4715
1.45793
1.4727
1
1.47189
1.47387
0.846507
1.47141
1.47301
1
1.46959
0.823554
1.47247
0.857047
1.47179
1
1.46864
1.47869
1.47157
1.47177
1.46806
1.47095
1.47208
1.47177
1
0.930858
1.47233
1.47138
0.828491
1.47104
0.971898
1.29852
1.47205
1.47181
1.47695
1
1.47463
1.30243
1.47177
0.917797
1.47372
1.48197
1
0.859062
1
1.48165
1
1.33789
1
1.43505
0.869821
1
1.46636
1.46776
1
1.47255
1.47013
1.4795
1.47915
1.47766
1
1.47216
1
1
1
0.902394
1.47211
1.47322
1.47676
1.47096
1.46696
1.47587
1.47286
1.47237
0.905608
1.03037
1
1
1.47817
1.47195
1.4711
1.471
1.00003
1.23698
1
1.4823
1.42559
1
1
0.741989
1.47434
1
1
0.654674
1.47163
1
1.46995
1.47236
1.47064
1.44859
1.47031
1
0.660156
1.10936
1.47052
1.47029
1
1.46899
1.47235
1.23672
1.01058
1.10328
1
1.46923
1.47217
1
1
0.661258
1
1
1.47123
1.47154
1.47225
1.47073
1.46974
1.47683
1.4756
1.46497
1.47223
1
0.99639
1.47172
1.47124
0.99712
1.47183
1.47374
0.667384
0.678476
1.46557
1.48064
1
1
1.00181
1.47589
1.47174
1.47129
1
1.47143
1
0.868351
1.48145
1.48068
1
1.21081
1.47171
1
1.47141
1
1.46599
1.32351
1.47019
1
1.47232
1.47447
0.662119
1.46583
1
1.47238
1.47201
1
0.66794
1.47486
1.40777
0.9974
1.47621
1.4708
1
0.999703
1.47853
0.997452
1.46439
1
1
1.47324
1
1.47708
1.47245
0.996455
1.36974
1
1.47279
1
1
1
1
1.47067
1
1
1.45353
1
1.47016
1
1.277
1.47897
1.47362
1
1
1.00063
1
1.47193
1.46583
1.47386
1.46562
1.47182
1.46931
1.46958
1
1.47249
1.4713
1
1.46774
1.47827
1
1.47046
0.928683
1.05779
1.46623
1.47612
1.47281
1
1.46885
1
1.47125
1.46546
1
1.47411
1
1
1
1
1.46653
0.66439
0.997898
1
1.47168
1.48525
1
1.47093
1
1.00513
0.653501
1.46775
0.999588
1
1.46441
0.99832
1.47195
1
0.99978
1
1.46394
1.47689
1.46655
1.47197
0.665727
1.47026
1.47043
1.4705
1.11413
1
1
1.19681
1.46953
0.659958
0.665419
1
1.47232
1.47131
1.47205
1
1
1.46794
1.4733
0.999872
1
1.34419
0.641761
1
1.07829
1.47223
1.4838
0.998233
1.4713
1.47686
1
0.999212
1
1.47078
1.47009
1.18958
1
1.437
1
1.00294
1.47268
0.651718
1.46999
1.47108
0.996893
0.999912
1.40738
1
0.999692
1
1.47603
1
1.00001
0.648472
1.47224
1.00001
1
1
1
1.47734
1.28469
1
1
0.658204
1.47154
1.27843
1
1
1
1.44246
1.46968
1.47151
1
1
1.46875
1
1.46998
1.47219
1
1
1.47461
1.47259
1.44432
1
1
1.47669
1.47217
1
1
1
1.47291
1
1
1
1.46971
1.47449
1.47417
1
1.47395
1.00003
0.718154
1.47024
1.46984
1
1.47504
1.47238
1.47444
1
1
1.47575
1
1.24444
1.47376
1
0.667174
1
1.46883
1
1
1.47691
1
1
1
1.13861
1.47443
0.685396
1.00001
1.47034
1
1
1.47167
1
1.47589
1
1
1.47238
1.4707
1
1.00005
1
1
1
1
1
1
1.48297
1.47208
1
1.46997
0.65477
1.48409
1
1.47245
1.47569
1.4728
1.4795
1.4726
1
1
1.47014
1
1.28715
1.47636
1.47165
1
1.47415
1.47704
1
1.42745
1
1.47223
1.31785
1.46754
0.997541
1.47435
1.43089
1.47262
1.47177
1.03593
1.47121
1.47539
1
1.47159
1
1.47202
1
1
1
1
0.996912
1.47088
1.47203
1.40479
1
1.47886
1
1
1
0.634342
1
1.45989
1
1.43093
1.44905
1
1
1
1.43828
1.47149
1
1
1.46959
0.666347
1.06796
1
1.47619
1.47138
1.42804
1.45983
1.47152
1
1.47269
1
1
1
1
1.47378
1.47219
1
1.4578
1.05611
1.47162
1.44157
1
1
1.44351
1
1
0.673054
1.32213
1
1
1.48803
1
1.47577
1.42817
1
1.42627
0.666298
1.47103
1.46831
1.47216
1
0.653577
1
1
1
1.47151
1.37277
1
1.47653
1.47208
1
1.47178
1
1
1
1
1.4721
0.999367
1
1.47036
1
1
1.46301
1.47292
1
1.47947
1.08619
1.00002
1
1.46731
1
1.46678
1
1.01416
1.47192
1
1.46888
1
1
1.14849
1.47033
1
1
1
1
1
0.995951
0.648867
0.665126
1.02042
1
1.02277
1
1.01719
1
1.47189
1
1.28053
1
1.47112
1
1
1
1.47093
1
1.39601
1.47278
1
1.24615
1.47263
1
1
1.4722
1.47244
1
1
1.0408
0.661966
1
1.47218
1
1
1
1
1.07207
1.47261
1
1
1
0.676608
1
1.47157
1.47242
1.47751
1
1
1
1
1.2368
1.47117
1
1
1
1.47276
1.47033
1.03731
1
1
1
1.47046
1.47215
1
0.664251
1.47186
1.47157
1.47208
1.47246
1.47056
1
1
1.47932
1.46774
1.47133
0.669553
1.04059
1.47237
1
1
1
1
1
1.47213
0.665527
1
1
1.47067
1.19985
1
1.47894
1
1
1
0.663662
1
1
1.11687
1.47168
1.47414
1
1.46749
1.47614
1
1.0611
1
1.47823
1
1.47188
0.66769
1
1
1
1
1.47122
1.00006
1
1
1
1.44965
1
1
1
1
1.4704
0.665119
1.37207
1.47402
1
1.47
1
1
1
0.997035
1
1.47511
1
0.814939
1
1
1.00004
1.47611
0.656332
1
1.4663
1
1.46754
1.47239
0.661752
1
1
1.43462
1
1
0.666707
1
1.46651
1
1.4496
0.999333
1.46881
1
1
1
1
1.47117
1
1
1.47236
1
1
1
1
1
1
1
1
1.30231
1
1.15213
1.4723
1
1
1
0.66187
1
1
1
1
1.46147
1.47129
1.06616
1
1
1.46967
1
1
1.47028
1
1.00002
1
1
1
1.00001
1.47337
0.798202
1.46987
1.4698
0.997203
1
1
1
1.26332
1
1
1.47211
1.4703
1
1
1
1
0.639273
1
1
1
1.30177
1
1.47329
1.47532
1
1.47658
1
1
1
1.25117
1
1.47175
1
1.47225
1
1
0.996253
1.46937
1
1
1
1
1
1.46988
1.00002
1
0.66724
1.47077
0.674618
1
1.4709
1
0.99611
1
1.47267
1.47867
1
1.46191
0.87927
1.47385
1.46666
1.00003
1
1
0.651931
1
1
1
1.47166
1.26713
1.47363
1
1
1
1
0.996779
1.47255
1
0.66882
1
1
1
1
1
1
1
1.47809
1.4743
1.47813
1
1
0.996902
1
0.969642
1
1
1
0.64325
0.970361
1
0.653349
0.662583
1
1.47179
1.47114
1
1.47437
1.46979
0.663178
1.31906
1
1
1
0.668915
1.47043
1
0.664116
1
1.48009
1.09722
1
1
1
1
1.4725
1.47306
1
1
1.47291
1
1
1.46868
1.47073
1
1.4475
1.47535
1.47354
0.967588
1.47501
1.00832
0.665756
1.36068
1.4753
1
1
1
0.648071
1
0.649755
1.46971
0.958846
1.47199
0.949778
1
1.46982
1.23039
1
1
1.47487
1
1.21113
1.46966
1
1
1.46944
1.48753
0.645367
1.26971
0.999893
1
1.29255
1
1.47291
0.938658
1.48248
1.48183
1
1
1
1
1.45497
1
1
1.475
0.999646
1.47126
1.37671
1.47503
0.664205
1
1
1
1
1.47091
1.00004
1.47153
1
1.47186
1.47062
1.05856
1.47866
1.14476
1.47245
1
1.32892
0.686881
1.47402
1.47209
1.3806
1.0852
1.47392
1.47235
1.46889
1.46985
1
0.925927
1.06576
1
1.47194
1.21923
1.4719
1.00003
1
1
0.701848
1.46866
1.47502
1.37884
1
1.17971
1
1.46983
1.46753
1
1.46668
1.47472
1
1
1
1.46556
1
1.17796
1.46766
1.32193
1
1.47166
1
1
1
1
1
1
1
1
1
1
0.689679
1
1.43096
0.653424
1.25312
0.998581
1.46891
1
1.24506
1.00001
1.28752
1.39557
1
1.0032
1.47788
0.916354
1
1.47921
1.45411
0.947466
1
1.47416
1.4707
1.47446
1
1.47028
1.47426
1.48076
1
1.20574
1
1.00006
1.47165
1
1.47193
1.06521
1.4708
1
1
1.47005
1.47731
0.695691
1
1.47104
1.34856
1.46684
1
1
1.47563
1.47
0.998242
1
1.40844
0.996857
1.47033
1.00006
1
1
1
1
1.20035
1
1.35702
1.47422
1.34406
1.46764
1
1.00225
1
1
1.47011
1
1.47056
1
1
1
1
0.999999
1
1.05693
1.2404
1
1
0.643502
1
1.47087
0.681519
1.4791
1
1.23488
0.999745
1.47199
1.31412
0.683008
1.26872
1.00003
1.47186
1.47475
1
1.30121
1.47619
1.46909
0.998398
1.46721
1.45811
0.658605
1
1
0.997512
1
1.46418
1
0.68653
1.46554
1
1
1.42132
1
1.47426
1
1.47013
1
0.696794
1
1
1.47102
1.47293
1.47741
1
1.4724
1.47211
1.46294
1
1
1.46099
0.999999
0.747045
1
1
1
1.47242
1
1.47142
1.30204
1.47363
1
1.47013
0.999385
1
1
1
1
1
1
0.726941
1
1
1.4698
1
1.47297
1.46718
1
0.664104
0.66166
1
1.47274
1.07317
0.666427
0.650412
1
1.46676
1
1.47439
0.656206
1.00167
1
1
0.9995
1
1
1
0.999918
1.19251
1.47106
1
1
1.47287
1.27423
1
1.41611
1.47084
1.47197
1.17777
1.48046
1
1.47066
1
1.45418
1
1.47265
1.466
0.997086
1.47344
1.4717
1
1
1
1
1
0.922427
1.47564
1.00004
1.00003
0.655593
0.999982
0.643563
0.651633
1
1.47175
1.4715
1.47196
1
1.4714
1
0.665749
1
1
1.46747
0.833405
1.46833
1
1.47201
1
0.977958
1.47218
1
1
1
1.47377
1
1.47031
0.645938
1
1
1.27078
1
1
1.248
1
1
1.47086
1
1
1
1
1
1.46736
1.47246
1
1.47314
1.47362
0.65617
1.21729
1.47274
1
1
1.42335
0.999023
1
1
1.47027
1.4756
1.32229
1
1.47264
0.656213
1.43469
0.99935
1
1.46608
1.00003
1.47346
1.3822
1.35845
1
1
1.4707
0.730214
0.635626
1
1.4711
1
1.47119
1
1.29353
1
1
1.46776
1.29965
0.667161
1
0.998248
1
1
1.02594
1.19183
1.47088
1
1.47481
1
1
1
1
1
1
1.06898
0.669431
1
1
1.0502
1
1
1
1
1
1.47092
1
1
1.47105
1.47376
1.32904
1
1
1
0.821708
1.4774
1.32594
1
1
1
1
1.47034
1
1
1
1.47103
1
1
1.33393
1.48338
1.03349
0.743902
1.46961
1.33361
1.47007
1
1.25197
1
1
1
0.655943
1.00251
0.653228
1
0.650995
0.639912
1
0.654338
1
1
1
1.22332
1
1.47248
1.47154
1.00149
1.22999
1.40764
0.631549
0.766374
0.878218
1
1.47181
1.47057
1.4698
1.47267
1.40581
0.882816
1
1.4158
1
1.45135
1
1
0.996571
1.00939
1
1
1
1.47399
1
0.638544
1
1.47255
0.654842
1
1
1.47303
1
1.47175
0.999314
1
1
1.47133
1.42636
1
1.4882
1
1
1.01416
1
1.20502
1
1
0.654655
1
1
1.47023
0.999999
1.46737
1
1.00003
0.648125
1
1
0.656089
1.00089
1
1.47064
0.656262
1.47143
0.658929
1.47045
1
1
1
1
1
1
1
1
1
1
1
1.45008
1
1.46897
1.47147
0.668329
1
1
1
1
1
1
1.45174
1
1
0.665273
1
1
1.47014
1
1
1.16779
1.38979
0.666768
0.652196
0.69071
0.754063
1
0.996753
0.655753
1.0003
1.43127
0.996998
1
1
1.47059
1
1
1
0.768556
1.00001
1.16609
1
1
1.19271
1.47107
1
0.646048
1
1
1
0.996616
1.00001
1.47333
1.47363
1
0.658308
1
1.2348
0.664188
1
0.894093
1
0.995449
0.639299
1
1
1
0.995656
0.640772
1
0.648995
0.998438
1.25002
1.41842
0.64935
0.660664
1
0.991147
1
0.998646
1
1.46933
1.46829
1
1.01288
1.47096
1.47305
1
1
1.47292
1
1
1.00005
1
1.47711
1
1
1.01846
1
0.998591
0.693128
1
1
1
1
1
1.48635
1.04789
1.00005
1
1
1
1
1
1.00003
1
0.663191
1.12405
0.998598
1.4486
1.47121
1
1.01613
1.47137
1.41612
1
1
0.676361
1.47167
1
1.47124
1
1.47468
1.32151
0.658798
1
0.664539
1.43304
0.999689
1
0.670225
0.676538
1
1
1.38843
1
0.999998
0.645417
1
1
1
1.14363
1
0.662734
1.47262
1
1
1
1
1.47268
1
1
1.47512
1.42208
1
1
1
1.4834
0.643777
1
1.47336
1.4755
1
1.37204
0.999999
1.00003
1
1
1.42776
0.996428
1
0.652419
1.25863
1
1
0.99782
1
1
1.47824
1
1
1.00003
1
1.47379
1
1
1
1
1
1
1.00001
1.20518
1
1.46463
1
1
1.47312
1
1
1
1.47317
1.46892
1.04477
1
0.997516
1
1
1
1
1.47209
1
1
1.47103
0.663024
1
1
1
1
1
1
1.36878
1
1
1.48229
1.471
1
1
1
1.47344
1.47434
1
0.999668
1.48609
1
1
1
1.00002
0.649258
1.03077
0.995936
0.995998
1
1
0.642097
1.47083
1
0.687094
1
1.46728
1.45129
0.66508
0.999404
1.47068
1.47316
1.46977
1
1
0.913632
1.44711
1.39247
0.68688
1
1
1
1.47374
1.47132
0.649544
0.997361
1
1.47207
0.66742
1
1.44424
0.661251
0.963873
1.00684
1
1.47088
1
1
1
1
1
1
1.00011
1.43003
1
1
1.48482
1
1
1
1.47393
1
0.662507
1
1
1
1.15692
1
1
1
1
1
0.789991
1
0.669071
1
1.4702
1.00007
0.87544
0.885409
1.00002
1.00401
1.24511
1
1
0.646195
1.47353
1.47131
1.47034
1
0.654779
0.642667
1
1.47462
1
1
1
1
1
1.00003
1
0.654394
1.29868
1
1
0.666942
0.986632
1.00001
1
1
1
0.637196
1
0.686052
1
1
1.48211
1
1
0.664455
1
1.47169
1
0.63171
1
0.654325
1
1.0077
1.47256
1.48641
1
1
1.47037
1
1
1.12205
0.996834
1
0.998118
1
1.47467
1
0.644849
1.00002
1.47052
0.9989
1
1
0.804981
1
0.999014
0.666754
1.4647
1.1872
1
1.00001
0.912677
1
1
1
0.802007
1
1
1
1.46722
1
0.659778
0.999999
1
1
1
0.656981
1.47104
1.42951
0.670054
1
1.48298
1
1
1.47324
1.47314
1.39375
0.654551
0.997691
0.999309
1
1.47246
1
1
1
1
1.47032
1.00004
1
1
1.47059
1
1
1.47312
0.661565
1
1
1
0.661642
1
0.999999
0.999999
0.998664
1
1
1
1
1.35608
1
1.47073
1.47162
1.4815
1.47173
1.4732
1.47082
1
1.47195
1
1.47157
1.47051
1
0.998895
0.660479
1.40131
0.999903
1
1
1
1
0.975879
1
1.07043
1
1
1
0.831615
1.4726
1.4703
1.46594
1.40205
0.999885
1
1.02309
1.47344
0.997922
1.07654
0.997139
0.681321
1
1.00002
1
1
1
1
1
1.47158
0.663913
1.46983
1.47143
0.995212
0.62587
1
1
1
1.47079
0.628599
1.41156
0.654174
1.47149
1.46928
0.653966
1.47258
1.02424
1
1.47461
0.803806
1
0.998732
0.640707
1
0.678077
1
1.46748
1.47134
0.761107
1
1.47054
0.68234
1
0.662396
1
1.47115
1
1
1.47278
1
0.846764
1
0.999707
0.677761
1.48014
0.999478
1
0.627588
1
1
1
1
1.2489
1
1.46862
1
1
1.48462
1
1
1.47313
1
0.662538
1
0.655822
1.00001
1
1
1
1
1.44744
1.27167
1.47097
1
1.46958
1.43732
0.636563
0.639962
1
1
1.48053
1
0.662303
1
0.990351
1
1
1.47035
1
1.47144
0.644547
1.48292
1
0.649182
1
1
1.47938
1.47026
1
1.00004
1
1.47713
1
1
0.642503
0.99937
0.655688
1
1
1
1.47286
1.47433
1.47233
1
1
0.684431
1
1.47536
1
1
1
1.45351
1.47179
1.47153
0.659395
1.47441
1.47168
0.676424
1.47259
1.00004
0.680007
1.01379
1
1
1.4737
0.655
1.30764
0.641225
1.47193
0.997437
0.657046
1.47409
1
1
1
1
1.47191
1.47218
0.650108
1
1.00002
0.664513
1.00004
1
0.652351
0.638141
1.30814
1.47294
0.99849
1.47146
1
1.47009
0.829124
0.66503
1.47204
1.48069
1
1.47073
1
1
1.47147
1
1.36065
1.47266
1
1
1
1
1.47397
1.46381
1.46348
1
1
1.46302
1.47354
1.47048
1
1.47446
1
1
1
1
1
0.65516
0.843435
0.646001
1
1
1.4723
1
1
1.46974
0.657286
1
1.47148
1.4641
1.44817
0.64605
1
0.679432
1
1.00003
1.47224
1.21524
1.47286
1.4303
1
0.686346
1
1.46966
1.32289
0.660235
1
1
1
0.875181
1
1
1.48064
1
0.661673
1.47161
1
1
1
1
1
1.36741
1.10498
1
1.47203
1
1.4735
1
0.99736
1
1.47091
1.47474
1.46911
1.47603
0.999592
1.47211
1
1.47148
1.4702
1.40162
1
1
0.64542
1.47123
1
1
1.47117
1.46772
1.47415
1
1.47331
1
1
1.00003
1.47594
1.46994
1.13409
1.09614
1.4722
1.47256
0.699324
1
1
1
1
1.00002
1.15991
1
1
1.39131
0.655966
0.999972
1
1.47165
0.999905
0.999812
1.07451
1.41577
1.47149
0.917012
1
0.652655
1
0.985561
1.47289
1.47431
1.45219
0.998972
1
1
0.642943
1
1
1.47281
1.04961
1
1
1
1
1
1
1
0.999938
1.47282
1.00002
1
1
1
1
1.28779
1
1.21964
1
1
1.47156
1.47428
0.660385
0.998784
1
1
1
0.653537
1.47113
1.47385
1
1
1
1
1
1
1
1
1.47009
1.47396
0.644621
1.04927
0.657965
1
0.649723
1
1.47127
1.11875
1
1
0.689248
1
1.44949
0.86384
0.996812
0.655776
1
1
1.46996
1.00004
0.99734
0.648414
1.47104
1.48229
1
1
1
1
1.43621
1
1
1.47283
0.999004
1.47251
1.00009
1
1
0.65499
1
1
1.47374
0.655591
0.83541
0.659656
1.4713
0.999361
1
1.47712
0.649954
0.663063
1.01513
1
1
1.47129
1.00004
1.20694
1
1
1.47238
0.661621
1
1
1.00013
1.47191
1.00012
1.4699
1
1.00003
1
1
0.712047
1
0.786622
1.00002
1
1.46845
0.65172
1
0.786209
0.808598
1
1
1.47218
1
1
1
1.4703
1.47563
1.00005
1.4651
1.47087
0.788884
1.4704
1.44222
1
1
1.4763
0.999999
1
1
1
1
1.47166
1.46896
1
1
1
1.47224
1.00021
1
0.66321
0.753513
1
1.00003
1.16572
1
1
0.882879
0.660802
1
1
1
1.47482
1.42851
1.47117
1
1
1
1
0.663825
1
1.4522
1
1.46305
0.657141
1.4692
1
1
1
0.685017
1
1.47081
1.00003
1
0.660748
1.16783
1
0.999669
1.46852
0.639151
0.648955
1
1.47222
0.648818
0.6623
1
0.64499
0.999997
1
1
1
0.67358
1
1
1
1
1.46987
1
1.34617
0.623055
1
1
1
0.674319
1.47123
1
1
0.996427
1.46026
1
1.46946
1.47206
1
1
0.728106
0.651624
1
1
0.657969
1.14044
1.21605
1
1
1.47151
0.997409
1
0.997762
1.47363
1
1
1
1
1
1
1.47391
1
1.15914
1.14356
0.700706
1.41431
1
1.47518
1.47182
1
1
1
0.918842
0.678139
1
1.22402
0.999663
1.40114
1
1
1
0.999999
1
1.00711
1.19564
1.47373
1.47531
1
1.4671
1
0.656553
1
0.997562
0.9998
1
0.655367
1
0.655155
1.00002
1.47532
1.47053
0.655433
1.47635
0.675192
0.996131
1.34664
0.661968
1.33229
1
1
0.998434
1
1
1
1.00006
1
0.657287
1
1
1
1
0.99962
1.47099
0.831316
1
1
1
1.03692
1
1
1
1.25964
0.806092
1
1
1
1.04791
1.47124
1
0.630537
1
1.47248
0.907138
0.674554
1
0.649918
1
1
1.44643
0.998254
1.45095
1
1.00901
1
1
1.47093
1
1
1
1
1.08718
1
1.47434
1.47377
1.47135
0.638002
1.46739
0.997135
1.38076
1
1
0.652504
1
1
0.649746
1.46975
1
1
0.999953
1
1
1
0.653705
0.637679
1
1.47069
1
1.21704
1.4716
0.660114
1.39306
1
1
0.660245
1
1
1.47138
1.47018
1.16819
1
1
1.00134
1.47132
0.634314
0.650368
1.47086
1.4705
1.32166
1.1805
1
0.953159
1
1
1
1.45037
1.47598
1.47472
1
1
1.47081
0.648235
1.4258
0.64045
1
0.652042
1
0.660495
1.47125
0.640859
1
0.982724
0.694831
1
1
1
0.854665
1.40647
1.47208
1.47292
1.47172
1
1
1.47219
1
1
1.47207
1
0.680474
1
0.649852
1
1.47195
1
1
1.01576
1.35374
1
0.998709
0.653794
1.47411
1.00001
0.627398
1.08624
1
1
1.35389
1.47048
1.47096
1
1.46666
1.12919
1
1.02353
1.47113
1
1
1
1
1.4715
1
0.644255
1.47382
0.666139
0.64559
0.823257
1.46763
1.15648
1.47083
1
1.47064
0.997263
1.00003
1.47156
1.47048
1
1.47223
1
1.47147
1
1.47089
1
1.00004
1.00001
1.47286
0.644003
0.650949
0.997924
0.999999
1
1
0.659669
1
1.31796
1
0.651303
1
1.17962
1.46903
1.46786
1
1
1.00003
0.999409
1
1.47225
1.4714
1
1.19031
1.47188
0.837897
1.47244
1.0003
0.651224
1.09448
0.667885
1
1
1.0768
1.47096
1
1
1.03765
0.998622
1
0.632884
1
0.840242
1
1.46876
1
1
0.649403
1.12072
1.05892
0.998474
1.47209
1.47051
0.777005
0.998128
0.655406
0.684586
0.659444
1
1
1
0.999087
0.732223
0.667401
1
1.47129
0.999747
1.47064
1.47172
1.47137
1.47189
1
0.661628
1.47336
0.658754
1
1.4707
1.47404
0.996756
0.813216
1.47269
1.33994
1
0.665943
1
1
1.46991
1
1.02613
1.4697
1
0.64698
0.64555
1
1
0.647005
0.656238
1.47192
1.00003
1
0.629464
0.633008
1.47121
1.45687
1.43997
1.47135
1.11924
0.992891
1.20549
1.48024
1.35981
1
1.24398
1
0.662133
0.854672
1
0.648347
1.47324
1.02309
1.47375
1
1.47149
1.47105
1
1.47089
1.47243
0.662085
1.47534
1
1.48488
1
0.754346
0.646837
1.47015
1
1
1
0.64722
1.47337
1.47358
1
0.64974
1
1
0.645832
1.00004
0.648019
1.47306
1
0.827725
0.646831
1
1
1.26848
1
1
1
1.07517
0.650314
1
1.00001
1
1.47117
0.664477
1
1.47128
0.630129
0.654839
1
1
1.47739
1
1.47208
1.00001
1.47313
0.66131
1
1
0.655342
0.809846
0.65212
1
1
1
1
1.48124
0.653875
1
0.65371
1
1.47702
1
1
0.977569
1
1
0.833758
0.999672
1.00005
1
0.666568
0.648631
1
1
1
1
0.791293
1.46921
1.47254
1
0.658387
0.656529
0.908035
0.647844
1
0.823773
1
0.660415
1.01106
1
1
0.664187
1
1.47022
1.45684
0.648491
1
1
1
1.46937
1
1.04045
0.841437
1.14792
0.656118
1.18661
0.66097
1
1
0.72561
0.919458
1
1.03963
1
1
0.677029
1
0.933185
1.04381
0.660079
1
1.37897
0.750546
0.888797
1
1
1
0.668232
1
0.648819
0.660058
1
0.856742
0.651962
1.06563
0.759996
0.643135
1.47112
1
1.47166
1.25192
0.731251
1.47063
0.660827
0.999016
1.4721
0.999999
1
1.47301
1
0.718205
1
1.06867
1
1
1.47185
1
0.762621
0.806407
1.4723
0.936522
1
0.739384
1.47164
1.47226
0.919649
1
1.47141
1.1225
0.84351
1
1.00057
1
0.657748
1.1996
0.79662
0.744115
1
1
0.648984
1.47128
0.952988
0.664896
0.644221
0.860643
1
1.00455
1.47206
1.47103
1
1
0.999999
0.652683
1.2246
0.99998
1.47517
1.43578
0.654849
0.999988
1.09732
0.879067
1.26955
1.40094
1
1.00781
1
1.00005
0.631267
0.831987
1
1
0.806503
0.63356
1.01541
1
1.00002
0.620266
1.20782
1
1.47408
1
1.03696
1.25533
1
1.46905
1
1
1.47336
1
0.65599
1.47041
0.675696
1.11906
1
0.65383
0.999906
1
1.00003
1
0.784208
1.02746
0.661198
1.34142
1.47205
0.647271
1
1
1
1
1
0.955453
0.680552
1.04412
0.665536
0.659365
1.07845
1
0.999812
1.12113
1
1
0.673948
0.993263
1
1
1.11151
1
1.47312
1
1.46977
1.08725
1.02352
0.64856
1
1
0.631902
1
1
1
1
1.47104
1.0428
0.998068
1
0.645486
1.05094
0.999999
1
1.31677
1
0.648875
1.46886
1
1.00001
1
1.47399
0.660037
0.875024
0.637563
1.35497
1.47094
1
1
1.4712
1
0.642236
1
1
1
1
1
0.754333
1
1.47389
1
1
1.16439
1.47347
0.650673
0.884779
1
1.47023
1
1
1
1
1
1.47107
1.46983
0.656412
1.47003
0.651561
1
1
1.47055
1
1.47097
0.995036
1.0286
1.05434
1.47178
1.06441
1.31304
0.650811
1
0.642877
0.990063
1
1.47094
1
1
0.654151
1.47591
1
1.46992
1
1
1
1
1
1.00001
0.648698
1.47273
0.848723
1.47145
1
0.660876
0.659244
0.727334
1.47997
1.47658
0.964781
1
0.796879
1
1.18455
1
1.47167
0.654416
0.664571
0.850847
1
1.471
1
1.07789
0.681034
1
1.47193
1.42997
0.998817
1
1.47194
0.651889
1.47548
1.46757
1.4753
0.667823
1.09832
1
1
0.638534
1
0.810719
0.835955
1
1.00002
1.46933
1
1.48137
1.12172
1
1.01282
1.47438
1
0.66655
1
0.7672
1
1
1.38217
1
0.802782
1
0.656075
1.0383
0.941728
0.634254
1.46802
1.37818
1.47086
0.664642
0.704841
0.99589
0.999999
1
0.688435
1.44989
0.662354
0.999972
1
1.46769
1.47165
0.888152
1
0.651551
0.727787
1.32167
0.978366
0.65579
0.999999
0.662363
1.11984
0.650037
1
1.00006
0.811202
1.4728
1.47205
0.843215
0.999581
1
1
0.714169
1
0.644633
1
0.655227
0.652134
1
1
1.00003
0.657099
1.46998
1
1
1.00007
1.00004
0.679208
1.47014
1.47307
0.999999
0.663005
1.47134
1
1.09927
1
1
1.46941
0.645166
1
1
0.641535
0.714282
0.656328
0.653248
1
0.70339
0.997229
1.09805
0.656237
1
1
1.13002
1
1.41738
1
1
1.34019
0.685893
1
0.665829
1.10637
1.47322
1
1
0.655603
0.665638
0.647742
0.733191
0.649545
1.34541
0.9994
1
1
1
1
1.4701
0.630807
1
0.930953
0.999701
0.998765
0.999938
0.755674
1.16147
1
1.47127
1.47118
1
1
1.44788
1.00004
0.999999
1.47134
0.650767
1.47691
0.999999
0.648997
1.4714
1.00005
1
0.829447
1
0.640072
1
1.47124
1
1
1.47492
1
1
1.47109
1
1
1
1.47467
1
0.76973
0.731458
1
0.64134
1.47654
1
1
0.972131
1
1.47917
1.27491
1.37432
1
1
0.667297
1
0.657048
1.47222
1.47313
1.47275
1
1.47283
0.650428
1
0.660678
1.37601
1.43783
1.47397
1.47286
0.757022
0.654319
1
1.31924
1.47211
1.47226
1.47071
0.745352
1.15236
1
1.35117
0.707318
1
1.00002
1
1.00002
0.904262
1
1.47062
1
1
1
1
1
1
1.00006
1.46861
1
1.47555
1.34454
0.653291
1.47263
1.03106
1.23398
1
1.46694
1
0.666593
1
1
1
1
1.39883
1
0.633091
1.47133
0.636779
1.47175
1.37376
1.23125
1
1.08113
1.21494
0.995611
0.679508
0.757642
1.00002
0.999999
0.927812
1
0.644591
1.47214
0.638165
0.920928
0.859449
1
1
1
1.01446
1
1
0.672138
0.996773
1.47336
1
1.47224
1
0.652533
1
1
1.47789
1.47389
0.636142
1
1.47198
1
0.822594
0.659537
1.47235
1.42085
1
1.07313
1.47224
0.998661
1
1.18863
1.41292
1.46712
0.99563
1
0.999998
1.39702
1
1
1
1.46857
0.998477
1
1
1.47109
1
1
0.652679
1
1
1
1.47297
1
1
0.847999
1.14344
1.42542
0.779594
1
1.47249
1
1.1592
1
1.4711
0.997276
1.47097
1
0.651423
1
1.32246
1
1
1.43955
1.00001
1.47153
1
1.4686
0.687875
0.666671
1.47176
1
1.39653
1
1.4712
1
1
1.00005
1.47401
1.4762
1.11995
1.47101
0.99564
0.664086
1.47006
0.864316
1
1.46517
1
1.47075
1
1.47109
1.47064
0.996441
0.649338
1
1.47172
1
1.02832
1
1
0.997991
0.744726
1.41973
1
1.43794
1
0.885945
0.655261
1.47209
1.4719
0.702247
1
1.47111
1.47064
1.47108
0.690979
1.47035
0.660762
1.471
1.47648
1
1
1.47198
1
1
1
1
0.662188
1
1
1.47123
1.47158
1
1.46897
1
1.4708
1.47087
1
1.39026
1
0.638541
1.46887
1.34627
1.13379
0.634597
1.47083
1
1
0.655031
1
1
1.47158
1
1
0.794429
1
1.47131
1.00009
1.47272
0.643938
1.46867
1
1.47109
1.4528
0.906623
1
1.47593
0.765156
1.47998
1.32896
1.47142
1.46998
0.997294
1.46896
1.47093
1.47173
1.47138
1.00058
1
0.681255
1
1.47358
0.828709
1.4279
1
1.46134
1
1
1
1
1
1.46653
0.649813
0.674574
1.47154
1.47179
1
1
1
1
1
1.46394
1.42527
1.47036
1.01719
1
1
1
1.00003
1.4724
1.47143
1
1.47091
1.47135
0.661436
1.31518
1
1.47221
1.47414
1.46785
0.997819
1.46987
1.47131
1
1.42106
1
1
1
1
1
1
1.47125
1.47221
1.43771
1.47231
0.646282
0.692381
1.47177
1.47107
1
0.652817
0.963998
1
1.21633
0.650032
1
0.999458
0.998303
0.65572
1
1.47202
1
1
1
1.47224
0.940009
1
1.47169
1.47136
1
1.47162
1
1
1.47098
1
0.654992
1
1.47061
1
1
0.665381
1
1.47178
1
0.644696
0.632806
1
1.47062
1
0.632229
0.883379
1
1.47123
1
1
1
1.47378
1
0.648328
1.05995
1.47074
1.47381
1.47134
1.05502
1.47376
1.47104
1
1.00002
1
1
1.00001
1.47198
1
0.999318
1.48088
1
0.637135
1
1.47074
1.21254
1.04151
1.21615
1.03075
1.46185
0.710418
1.4726
1
0.661076
0.997305
1.47108
0.936506
1.47298
1.47211
1.45122
1
1.47024
1.47227
1.47228
1
1.00004
1
1
1.47124
1.33233
1
1
0.664341
0.996631
1
1.47056
1
1.47185
1.47186
1.47039
0.907936
1.47103
1.47072
1.0032
1.23339
1.47182
1.47183
1
1.4238
0.831936
1.4644
0.996895
1.47104
1
1.47073
1.47036
1
0.647891
0.923855
0.740933
1
1.08304
0.996942
1.4734
1
1
0.996814
1
1.23319
1.43415
1
1
1.47312
1
1
1.33013
1.47216
1.4512
1.47081
1.46994
1
1.47008
0.729105
1.47034
1
0.99494
0.652281
1
1
0.733631
1
1.14968
1
1.47267
1
1.46078
1.30365
0.651169
1
1
1
1
1
1.47316