/*--------------------------------*- C++ -*----------------------------------*\
  =========                 |
  \\      /  F ield         | OpenFOAM: The Open Source CFD Toolbox
   \\    /   O peration     | Website:  https://openfoam.org
    \\  /    A nd           | Version:  12
     \\/     M anipulation  |
\*---------------------------------------------------------------------------*/
FoamFile
{
    format      ascii;
    class       volVectorField;
    location    "9.06";
    object      U;
}
// * * * * * * * * * * * * * * * * * * * * * * * * * * * * * * * * * * * * * //

dimensions      [0 1 -1 0 0 0 0];

internalField   nonuniform List<vector> 
22702
(
(2 1.55584e-13 0)
(2 -4.29544e-14 0)
(2.04327 -0.0960003 0)
(2 -1.1477e-09 0)
(1.97804 0.0312865 0)
(2 3.23628e-14 0)
(1.83091 0.228686 0)
(2 5.00183e-15 0)
(2 6.40285e-14 0)
(2.12806 -0.266237 0)
(1.82999 0.228821 0)
(1.83244 0.228741 0)
(2 3.15939e-14 0)
(1.83194 0.228464 0)
(2.03588 -0.0776258 0)
(2 -4.58249e-13 0)
(2 -2.4166e-13 0)
(2 -5.59338e-15 0)
(1.82975 0.228873 0)
(2 2.02929e-14 0)
(1.8315 0.229313 0)
(2 -1.40624e-13 0)
(1.8296 0.228588 0)
(2.10614 -0.266506 0)
(1.8318 0.229157 0)
(2.11378 -0.270047 0)
(2 -4.36532e-14 0)
(1.83113 0.228707 0)
(2.11948 -0.271051 0)
(2.10397 -0.265623 0)
(2 7.82388e-14 0)
(1.83243 0.228414 0)
(2 5.88326e-14 0)
(2 -4.1996e-14 0)
(2 1.85749e-13 0)
(1.84462 0.214695 0)
(1.82929 0.23155 0)
(1.82942 0.228442 0)
(2 -2.97806e-13 0)
(2 -3.01816e-13 0)
(2.13808 -0.261208 0)
(2 -5.17842e-14 0)
(1.917 0.124666 0)
(2 -1.74025e-13 0)
(1.831 0.228433 0)
(2 -1.06399e-13 0)
(2 9.33117e-14 0)
(2 -2.31046e-13 0)
(2 -1.71218e-13 0)
(2.10941 -0.261782 0)
(2 -4.39103e-14 0)
(2.11394 -0.259219 0)
(2 -1.54832e-13 0)
(1.8299 0.228764 0)
(2 -2.01634e-13 0)
(1.83158 0.228018 0)
(2 1.71869e-14 0)
(2 1.12159e-09 0)
(2 6.56051e-14 0)
(2 -2.07946e-13 0)
(2.10422 -0.272524 0)
(2 -9.72805e-14 0)
(2 4.3316e-14 0)
(2.11777 -0.267336 0)
(2 1.79442e-14 0)
(2.11303 -0.260446 0)
(2 2.09158e-14 0)
(2 -5.19084e-14 0)
(2 -1.04556e-13 0)
(2.1251 -0.259371 0)
(2 3.52419e-14 0)
(1.83151 0.229139 0)
(1.89651 0.152582 0)
(2 3.7552e-10 0)
(1.83158 0.228998 0)
(1.82232 0.237799 0)
(2.11732 -0.263072 0)
(1.83019 0.229124 0)
(2.10389 -0.267058 0)
(2 4.70385e-14 0)
(1.82934 0.228379 0)
(2.10246 -0.263173 0)
(1.82946 0.228571 0)
(1.82946 0.228642 0)
(2 -9.1273e-14 0)
(2 9.71168e-07 0)
(2 -4.02985e-14 0)
(2 -1.21935e-13 0)
(2.02099 -0.0482908 0)
(2.12784 -0.259757 0)
(1.82841 0.228269 0)
(2 -1.92564e-13 0)
(2 -5.07617e-11 0)
(2.1266 -0.264124 0)
(2 -2.64352e-14 0)
(1.83117 0.229472 0)
(2.12942 -0.26091 0)
(2 2.64342e-08 0)
(2 -3.78866e-14 0)
(2 -1.17973e-13 0)
(2 2.82181e-14 0)
(1.9172 0.127439 0)
(1.82918 0.228435 0)
(2.11388 -0.270078 0)
(2 3.19321e-10 0)
(2 -8.42598e-10 0)
(1.95909 0.06065 0)
(2 9.06811e-09 0)
(2.10672 -0.262512 0)
(2 -2.64415e-13 0)
(1.83042 0.229037 0)
(1.8299 0.228486 0)
(2 4.40597e-09 0)
(2 -1.78299e-13 0)
(2.11733 -0.27913 0)
(2.11766 -0.273587 0)
(2.12621 -0.261682 0)
(2 8.28937e-14 0)
(2 -1.32617e-07 0)
(2 -6.03847e-15 0)
(2 -4.20414e-14 0)
(2 9.95859e-08 0)
(2.02219 -0.0547612 0)
(2 -9.41806e-08 0)
(1.85592 0.200646 0)
(1.98439 0.0208921 0)
(1.83008 0.228466 0)
(2 -6.98733e-14 0)
(1.82958 0.228258 0)
(1.83002 0.228838 0)
(1.83147 0.229066 0)
(1.83038 0.22875 0)
(2 8.99057e-14 0)
(2.12108 -0.263213 0)
(2 -3.72942e-14 0)
(2.1149 -0.268643 0)
(2 8.8132e-15 0)
(2 -1.582e-13 0)
(2 9.03754e-14 0)
(2 1.93078e-14 0)
(1.83019 0.228595 0)
(2 3.05829e-09 0)
(2 1.75923e-13 0)
(2 -2.68614e-13 0)
(2 1.54505e-13 0)
(1.83076 0.228773 0)
(2 4.2083e-14 0)
(1.99258 0.0126881 0)
(2 -3.74281e-14 0)
(2 -3.38248e-13 0)
(2 -7.36803e-11 0)
(2 1.17587e-14 0)
(2.10864 -0.261447 0)
(2 3.6294e-14 0)
(1.99511 0.00848512 0)
(2 3.09959e-14 0)
(2.10063 -0.264701 0)
(2 -3.08528e-13 0)
(2 -6.53657e-14 0)
(2 -8.03027e-14 0)
(1.82838 0.228565 0)
(2 1.63949e-14 0)
(1.83107 0.229063 0)
(2.12588 -0.274755 0)
(2.10905 -0.267865 0)
(1.83145 0.228761 0)
(1.83147 0.228835 0)
(2 -4.41641e-14 0)
(1.97008 0.0442305 0)
(1.90476 0.14174 0)
(2 -5.97586e-14 0)
(1.8281 0.228391 0)
(2.10769 -0.265917 0)
(1.84436 0.214764 0)
(2 1.86188e-14 0)
(2 -3.86366e-14 0)
(2 3.88707e-14 0)
(2 -2.14986e-13 0)
(1.83206 0.228638 0)
(1.8529 0.18787 0)
(2 1.95999e-14 0)
(1.82877 0.22833 0)
(2.10919 -0.260359 0)
(1.82894 0.228312 0)
(2 -5.91601e-14 0)
(2.10764 -0.26122 0)
(2 -2.31123e-13 0)
(2.10966 -0.262079 0)
(2.11063 -0.275935 0)
(2.00008 -0.000142443 0)
(2 -1.88292e-13 0)
(2 -5.85423e-14 0)
(1.83002 0.228202 0)
(2 -3.86146e-15 0)
(2 -3.29929e-13 0)
(1.8318 0.229024 0)
(2 -2.89606e-13 0)
(1.82971 0.228661 0)
(1.82896 0.228027 0)
(2.106 -0.280429 0)
(2 -7.00589e-14 0)
(2 -4.41082e-14 0)
(2.10764 -0.263081 0)
(1.83175 0.229106 0)
(2 5.01201e-14 0)
(2 -6.48652e-14 0)
(2 -2.45833e-13 0)
(1.83166 0.229076 0)
(2 3.29354e-14 0)
(2.11004 -0.265024 0)
(2 -6.97379e-11 0)
(2 1.5469e-14 0)
(1.83134 0.228967 0)
(1.83125 0.228872 0)
(1.8302 0.228983 0)
(2 1.68088e-14 0)
(1.99999 2.41021e-05 0)
(2 6.88094e-14 0)
(2 -1.56933e-14 0)
(2 -1.84576e-13 0)
(1.83166 0.229094 0)
(2 -9.48629e-14 0)
(2.09927 -0.257935 0)
(1.82559 0.235677 0)
(1.83184 0.229065 0)
(1.83136 0.229897 0)
(2 1.92774e-07 0)
(2 -5.18201e-14 0)
(2 -1.68231e-13 0)
(2.11476 -0.270767 0)
(1.83193 0.228972 0)
(1.9273 0.119633 0)
(2 -3.45498e-14 0)
(1.83062 0.229647 0)
(2.1015 -0.262002 0)
(2.102 -0.262776 0)
(1.8306 0.229656 0)
(1.83096 0.227532 0)
(2 -4.26227e-14 0)
(1.82921 0.233324 0)
(2.12275 -0.276303 0)
(1.85057 0.207552 0)
(2 -1.26915e-13 0)
(2 -5.14119e-14 0)
(2 -1.10826e-13 0)
(2 -2.07866e-13 0)
(1.83181 0.229118 0)
(2 -2.44842e-13 0)
(1.90676 0.137002 0)
(1.98349 0.0289361 0)
(2 -1.15963e-13 0)
(2 -2.54051e-13 0)
(1.83157 0.229058 0)
(2.11742 -0.262657 0)
(2.07267 -0.162592 0)
(2 -2.24761e-13 0)
(1.83146 0.229297 0)
(2.11849 -0.263482 0)
(1.82912 0.231815 0)
(2 1.12828e-14 0)
(2 5.55267e-14 0)
(2 -1.57016e-13 0)
(2 -4.48728e-14 0)
(2 -2.54927e-14 0)
(2 5.11925e-15 0)
(2 6.35584e-14 0)
(2.11606 -0.265342 0)
(2.07573 -0.167946 0)
(2.10367 -0.263654 0)
(1.83144 0.228794 0)
(2 -3.09801e-14 0)
(2 1.44859e-13 0)
(2 -1.48985e-07 0)
(2 -1.66667e-13 0)
(1.84586 0.209773 0)
(2 -1.39358e-07 0)
(2.11447 -0.26607 0)
(2 2.04993e-15 0)
(2.11923 -0.284345 0)
(2.11399 -0.263126 0)
(1.83186 0.229011 0)
(2.11413 -0.267181 0)
(1.83159 0.229245 0)
(2 -1.81747e-14 0)
(2 -8.84019e-14 0)
(2 -7.50334e-14 0)
(2.00088 -0.0016386 0)
(2.11195 -0.262528 0)
(2.12731 -0.276979 0)
(2 -2.8781e-07 0)
(2 -1.50149e-07 0)
(2.12167 -0.282549 0)
(2 2.41279e-09 0)
(1.82992 0.228684 0)
(2.12183 -0.268556 0)
(2 3.3226e-14 0)
(2 -3.50843e-11 0)
(1.82959 0.228547 0)
(2.12981 -0.274674 0)
(2 -1.79544e-13 0)
(1.82965 0.228849 0)
(2.10315 -0.26791 0)
(1.83164 0.229101 0)
(2 -1.22346e-13 0)
(2.11416 -0.285923 0)
(2.00089 -0.00150688 0)
(2 4.76096e-14 0)
(2 2.82269e-06 0)
(2 -1.66082e-13 0)
(2.11363 -0.258719 0)
(2 -2.61077e-13 0)
(2 -1.7022e-07 0)
(2 -3.81437e-07 0)
(1.99999 9.31499e-06 0)
(1.99517 0.0064743 0)
(1.89543 0.152501 0)
(2 -2.40271e-11 0)
(2.11392 -0.255422 0)
(2 -1.64872e-11 0)
(2 1.61214e-06 0)
(2 -9.67036e-14 0)
(2 -2.96062e-13 0)
(2 1.7748e-14 0)
(2 -1.39398e-14 0)
(2 -8.65067e-13 0)
(1.82994 0.2287 0)
(2 1.25574e-13 0)
(1.83016 0.228311 0)
(2 1.2209e-14 0)
(2 -1.66161e-13 0)
(2 4.47152e-14 0)
(2.11331 -0.264112 0)
(2 -1.17278e-13 0)
(1.83077 0.228626 0)
(2.11344 -0.267821 0)
(2 2.75922e-14 0)
(1.8784 0.1753 0)
(2 -2.40062e-13 0)
(2 -1.57602e-13 0)
(1.82964 0.229622 0)
(2 -2.01609e-14 0)
(2 -9.70184e-09 0)
(2 -1.40645e-14 0)
(1.82879 0.227802 0)
(2 5.31942e-10 0)
(2 -9.16864e-14 0)
(1.83821 0.224323 0)
(1.83001 0.230038 0)
(2 -7.56167e-14 0)
(1.96174 0.0582111 0)
(2 3.3593e-14 0)
(2 -4.68912e-14 0)
(2.1146 -0.266297 0)
(2 -2.19569e-13 0)
(2 -2.74087e-14 0)
(2 1.54153e-14 0)
(2.11954 -0.265493 0)
(2 8.15673e-14 0)
(2 -7.22861e-14 0)
(2 2.01593e-14 0)
(2 -5.07803e-14 0)
(2.12082 -0.26473 0)
(2 1.08498e-13 0)
(2 -1.45245e-13 0)
(2 -1.80651e-13 0)
(2 -1.14968e-14 0)
(2 -6.0777e-14 0)
(2.11645 -0.263483 0)
(1.99998 3.881e-05 0)
(1.83118 0.229181 0)
(2 1.56419e-13 0)
(1.99998 -2.16548e-05 0)
(1.8314 0.228971 0)
(1.83138 0.228836 0)
(2 -1.05269e-13 0)
(2 -2.99453e-14 0)
(2.10057 -0.27863 0)
(2.06652 -0.127881 0)
(1.83 0.228831 0)
(2 -6.00555e-14 0)
(2 -4.28236e-14 0)
(2 -6.82873e-14 0)
(1.83195 0.229022 0)
(2.12735 -0.260105 0)
(2 -1.86542e-15 0)
(1.83141 0.229176 0)
(2 7.88705e-14 0)
(2 7.1006e-14 0)
(2.09758 -0.210658 0)
(2.10317 -0.217767 0)
(2 -7.99795e-14 0)
(2.10935 -0.262016 0)
(2.11463 -0.265542 0)
(2 -1.1788e-13 0)
(2 -5.61502e-14 0)
(2 1.068e-13 0)
(2 3.59146e-14 0)
(2 -9.59272e-11 0)
(2 1.11957e-13 0)
(2 4.01755e-14 0)
(1.83025 0.228543 0)
(1.95796 0.0639502 0)
(1.83739 0.214438 0)
(2.11749 -0.262777 0)
(2.03313 -0.0582676 0)
(1.83069 0.228711 0)
(2 -2.85796e-13 0)
(1.8313 0.228687 0)
(1.83039 0.228783 0)
(2.11841 -0.265788 0)
(2.07686 -0.157119 0)
(2 5.32951e-13 0)
(2.11713 -0.263093 0)
(2 -2.35382e-13 0)
(1.81982 0.235549 0)
(2 -2.35409e-13 0)
(2 6.3378e-15 0)
(2 -1.574e-13 0)
(2 -3.1971e-14 0)
(1.8318 0.229127 0)
(2 -3.05498e-13 0)
(2 -1.39794e-13 0)
(2 -1.09192e-13 0)
(2 1.53303e-09 0)
(2 -3.31505e-14 0)
(2 -2.58932e-13 0)
(2 -1.76212e-13 0)
(1.9369 0.0906634 0)
(1.82822 0.228579 0)
(2 -1.83518e-13 0)
(1.83134 0.228807 0)
(2 1.34566e-13 0)
(2 -4.19882e-14 0)
(2.10201 -0.262168 0)
(2 1.15253e-13 0)
(2 -2.03883e-13 0)
(2 -1.81358e-13 0)
(2 -3.05344e-13 0)
(1.83157 0.229082 0)
(1.87248 0.180409 0)
(2 -3.10424e-13 0)
(2 -3.38088e-13 0)
(2.11272 -0.258167 0)
(1.83174 0.228985 0)
(1.83139 0.229096 0)
(2 2.11518e-14 0)
(1.83135 0.229012 0)
(1.83173 0.228993 0)
(1.83127 0.228845 0)
(2 -7.68677e-16 0)
(2.06232 -0.109283 0)
(2 -2.65909e-14 0)
(1.83172 0.22875 0)
(2.00221 -0.0109956 0)
(1.83127 0.228839 0)
(2 8.56961e-14 0)
(2.1134 -0.265414 0)
(2.00039 -0.000587766 0)
(1.82941 0.228496 0)
(2 -2.01177e-13 0)
(2 -1.3005e-14 0)
(2 -6.80669e-11 0)
(2 -2.02369e-11 0)
(2.1163 -0.262329 0)
(1.83183 0.229075 0)
(1.84726 0.212597 0)
(2 -1.01499e-13 0)
(1.8332 0.227552 0)
(1.83195 0.22898 0)
(1.82906 0.228603 0)
(2 -1.98109e-15 0)
(1.92452 0.127575 0)
(1.8308 0.229867 0)
(2 5.49265e-14 0)
(2 3.16063e-14 0)
(1.8831 0.169341 0)
(1.97923 0.0358943 0)
(1.83132 0.228947 0)
(2.02537 -0.0431699 0)
(1.83134 0.228983 0)
(2 3.82159e-14 0)
(1.83127 0.228969 0)
(1.83142 0.228888 0)
(1.83128 0.228908 0)
(1.83167 0.228956 0)
(2 1.14461e-14 0)
(1.83462 0.234761 0)
(2.03168 -0.0579158 0)
(2.03686 -0.0712934 0)
(2 -1.24525e-13 0)
(2 -3.50961e-07 0)
(2 4.95263e-15 0)
(2 -2.92347e-13 0)
(1.83113 0.227212 0)
(2 1.03742e-14 0)
(2 -4.00354e-14 0)
(2 -7.25662e-14 0)
(2 -5.45429e-14 0)
(2 -7.30123e-14 0)
(1.82922 0.228532 0)
(2 2.13638e-14 0)
(2 -1.25231e-14 0)
(2.00161 -0.00256891 0)
(1.83152 0.229159 0)
(1.85133 0.213406 0)
(2 -9.76926e-14 0)
(1.86981 0.185566 0)
(1.99998 2.83707e-05 0)
(2 -1.21374e-13 0)
(2 -9.21391e-14 0)
(1.83125 0.228697 0)
(2 -1.05346e-13 0)
(2.00231 -0.00282384 0)
(1.99776 0.00472004 0)
(2 -5.50658e-14 0)
(1.83146 0.228882 0)
(2 -5.7768e-14 0)
(1.83202 0.228549 0)
(2 -1.84385e-13 0)
(2 9.00777e-14 0)
(1.87514 0.17793 0)
(2 -1.15333e-13 0)
(1.83202 0.228586 0)
(1.99999 1.26872e-05 0)
(2 -2.93e-14 0)
(1.83139 0.229474 0)
(2 -1.03948e-13 0)
(1.8316 0.2291 0)
(2 -1.78387e-13 0)
(2 3.0458e-06 0)
(2 -1.85709e-13 0)
(1.83183 0.229099 0)
(2 3.51213e-14 0)
(1.83136 0.227338 0)
(2 4.44337e-06 0)
(1.83177 0.229097 0)
(1.83043 0.229069 0)
(1.83159 0.228951 0)
(1.82985 0.228687 0)
(2 -1.3386e-13 0)
(1.82994 0.228644 0)
(1.83442 0.230883 0)
(2 -1.5609e-13 0)
(2.10229 -0.265346 0)
(1.84191 0.217433 0)
(1.8771 0.172792 0)
(2 -2.7324e-13 0)
(1.83182 0.22911 0)
(2 5.09449e-14 0)
(2.11715 -0.265728 0)
(2.10147 -0.268163 0)
(2 -1.35439e-14 0)
(2 -6.46794e-14 0)
(2 -1.12303e-13 0)
(2 -1.77253e-13 0)
(2 1.67987e-09 0)
(2.13274 -0.261421 0)
(2 4.32123e-15 0)
(1.83138 0.228768 0)
(1.95147 0.0735774 0)
(1.83147 0.228862 0)
(2 -3.9307e-14 0)
(2 6.93709e-11 0)
(2 5.454e-14 0)
(2 1.3185e-13 0)
(2 -4.99811e-08 0)
(1.83142 0.228931 0)
(2 -2.49696e-13 0)
(1.82946 0.228879 0)
(1.90029 0.144765 0)
(2.07881 -0.154557 0)
(2 1.31265e-09 0)
(2 6.00875e-06 0)
(1.94963 0.0781228 0)
(1.95635 0.0702812 0)
(2 -3.62172e-14 0)
(2 -6.1162e-14 0)
(1.93667 0.0915021 0)
(2 4.84222e-14 0)
(2.10303 -0.261702 0)
(1.83169 0.228863 0)
(1.8316 0.22885 0)
(2 -7.36472e-11 0)
(2 5.3303e-14 0)
(2 -9.84801e-14 0)
(1.82995 0.228933 0)
(2 -1.38133e-13 0)
(1.99999 1.61987e-05 0)
(1.82933 0.231391 0)
(1.83184 0.22893 0)
(2.01216 -0.0311435 0)
(2 4.88123e-14 0)
(2 1.54512e-10 0)
(2.11141 -0.263584 0)
(1.84722 0.209914 0)
(2 2.39691e-15 0)
(2 -1.29762e-13 0)
(2 4.35133e-14 0)
(2 -2.86626e-11 0)
(2 -3.71856e-13 0)
(1.8315 0.229128 0)
(1.82953 0.228266 0)
(2 -2.92438e-14 0)
(1.83162 0.22946 0)
(1.83173 0.227953 0)
(1.83157 0.229007 0)
(2 3.1524e-14 0)
(2 -6.06439e-14 0)
(2 -6.05066e-11 0)
(2 1.06423e-13 0)
(2.12099 -0.272461 0)
(1.83071 0.228803 0)
(2 -4.24905e-11 0)
(2 4.72493e-14 0)
(1.84723 0.21083 0)
(1.83199 0.228647 0)
(2 -1.4911e-13 0)
(1.84127 0.218138 0)
(1.82839 0.228351 0)
(2 -2.70355e-13 0)
(2 -2.18901e-07 0)
(2 7.85546e-11 0)
(2 -7.95618e-14 0)
(2 -1.39397e-13 0)
(1.83149 0.228823 0)
(2 -6.86191e-14 0)
(2 -7.27267e-14 0)
(2 -1.00391e-13 0)
(2 -3.11846e-14 0)
(1.83138 0.228973 0)
(2 -2.24492e-13 0)
(1.82784 0.232697 0)
(2.12128 -0.263715 0)
(2 -2.40041e-13 0)
(2.11369 -0.265236 0)
(2 -1.13647e-14 0)
(2 -1.55069e-07 0)
(2 2.49064e-14 0)
(2.00118 -0.00183251 0)
(2.10686 -0.267321 0)
(2.00034 -0.000550844 0)
(2 2.31199e-13 0)
(2 -2.07872e-14 0)
(2 -1.18192e-07 0)
(1.97539 0.0381863 0)
(2 -1.31885e-13 0)
(2 1.66532e-14 0)
(2.04276 -0.0838134 0)
(2 -2.1429e-07 0)
(2 -1.11449e-13 0)
(2 -2.76676e-13 0)
(2 -2.19097e-07 0)
(2 1.30698e-07 0)
(2 -1.65011e-07 0)
(2 -1.71408e-13 0)
(2 -1.62374e-06 0)
(2.02634 -0.0510487 0)
(2 -4.72035e-07 0)
(2 -3.88532e-08 0)
(2.00088 -0.00137859 0)
(2 5.65822e-14 0)
(2.11888 -0.260518 0)
(2 -2.9609e-11 0)
(2 -4.3819e-12 0)
(2 -3.08142e-11 0)
(2 2.60775e-13 0)
(1.87453 0.177756 0)
(2 -1.08226e-13 0)
(2 -1.14031e-13 0)
(2 6.64643e-14 0)
(2 -1.58097e-07 0)
(2.10683 -0.266753 0)
(2 7.47425e-14 0)
(2 1.56377e-09 0)
(1.84062 0.218032 0)
(1.83062 0.228776 0)
(2 -3.01642e-07 0)
(2 -3.46012e-14 0)
(2 -1.11166e-07 0)
(2.03284 -0.0689814 0)
(2 -1.25276e-15 0)
(2 4.21277e-10 0)
(2 5.48066e-14 0)
(2 -1.45394e-13 0)
(2 5.13222e-14 0)
(2 4.83875e-14 0)
(2.01097 -0.0268427 0)
(1.99192 0.0101691 0)
(1.83197 0.228753 0)
(2 9.26855e-15 0)
(2 -4.00932e-13 0)
(2 -2.13686e-14 0)
(1.83227 0.227647 0)
(2.03204 -0.068652 0)
(2 -4.80075e-09 0)
(2 8.3056e-14 0)
(2 -1.53891e-13 0)
(1.82978 0.228384 0)
(1.83156 0.228489 0)
(2 -2.89286e-08 0)
(2 4.79041e-06 0)
(2 3.10238e-09 0)
(2 2.74733e-14 0)
(2 1.25624e-09 0)
(2 8.05241e-15 0)
(2 -6.61846e-12 0)
(2 -8.69578e-14 0)
(2 -2.05481e-13 0)
(2.11297 -0.263404 0)
(2 -2.52157e-14 0)
(2 -1.49399e-11 0)
(1.8292 0.229013 0)
(2.11123 -0.263155 0)
(2 -2.79744e-13 0)
(1.8295 0.228688 0)
(2 7.01506e-11 0)
(2.10678 -0.259852 0)
(2 1.18269e-14 0)
(2 6.22089e-15 0)
(2.11296 -0.264064 0)
(2 -3.05394e-13 0)
(2 -1.12694e-11 0)
(2 -4.82574e-12 0)
(2 -5.82486e-14 0)
(2 -2.943e-12 0)
(2 -1.70869e-13 0)
(2 1.01263e-13 0)
(1.83474 0.225131 0)
(1.8319 0.228733 0)
(2 2.92823e-13 0)
(2 -1.56273e-13 0)
(2 -3.86216e-14 0)
(2 4.51397e-13 0)
(1.84642 0.212434 0)
(2 2.72767e-13 0)
(1.94721 0.0769653 0)
(2.10557 -0.265741 0)
(2 -2.69401e-08 0)
(2 2.82855e-13 0)
(2 -6.31508e-14 0)
(2 -7.57722e-14 0)
(2 6.73158e-14 0)
(2 -1.04804e-13 0)
(2 5.50939e-14 0)
(1.98592 0.020488 0)
(2 -1.39918e-14 0)
(2 -3.21224e-14 0)
(1.90361 0.126032 0)
(2 -1.09354e-13 0)
(2 4.79641e-14 0)
(2 -4.912e-14 0)
(1.8615 0.194838 0)
(2 -1.5694e-13 0)
(2 -1.30685e-13 0)
(2 -2.83717e-13 0)
(2 -2.25753e-13 0)
(2.1197 -0.262623 0)
(2 2.00934e-12 0)
(2 -2.83121e-14 0)
(2.11718 -0.272716 0)
(2.1187 -0.262596 0)
(2 -2.84727e-13 0)
(2 -1.47582e-13 0)
(1.83201 0.228901 0)
(2 3.01515e-14 0)
(1.9729 0.00223622 0)
(2 -6.51617e-14 0)
(2 8.66016e-14 0)
(2 -1.87553e-14 0)
(1.88259 0.169099 0)
(2.12302 -0.268038 0)
(2 -1.15878e-13 0)
(2.12507 -0.27239 0)
(2 -1.40712e-13 0)
(2.08116 -0.152533 0)
(2 -3.01522e-14 0)
(2 -5.68487e-14 0)
(2 -1.12464e-13 0)
(1.83086 0.229004 0)
(2 -4.25124e-08 0)
(2 -2.32448e-13 0)
(1.83124 0.228685 0)
(2 -1.04376e-13 0)
(2 -1.80675e-11 0)
(2 1.6686e-09 0)
(1.83134 0.228794 0)
(2 2.38083e-10 0)
(2 -2.92601e-13 0)
(1.83135 0.228914 0)
(2 -1.19974e-13 0)
(2 -2.35352e-14 0)
(2.11737 -0.266031 0)
(2 -1.75378e-11 0)
(1.94715 0.0800411 0)
(2 -6.23447e-14 0)
(2 1.47192e-14 0)
(1.83065 0.228639 0)
(1.83037 0.22902 0)
(1.88687 0.165063 0)
(1.84967 0.20777 0)
(2 -8.28994e-14 0)
(2.11764 -0.26357 0)
(2 2.75708e-14 0)
(2 -3.256e-14 0)
(1.83863 0.220384 0)
(2 -5.82916e-14 0)
(2.12225 -0.265008 0)
(2 1.23838e-14 0)
(2 3.31025e-14 0)
(2 1.99041e-15 0)
(1.83122 0.228972 0)
(2 -7.66899e-14 0)
(2 1.49873e-15 0)
(2 -2.1013e-13 0)
(2 -1.98079e-13 0)
(1.89904 0.147226 0)
(2 8.75054e-14 0)
(1.84363 0.229365 0)
(1.82972 0.230293 0)
(2.12526 -0.263559 0)
(2 -1.53917e-13 0)
(2 3.66262e-14 0)
(2.109 -0.266745 0)
(2.10978 -0.270003 0)
(2 5.32954e-14 0)
(2 1.45191e-13 0)
(2 -6.31592e-12 0)
(1.88013 0.173204 0)
(1.8735 0.179191 0)
(2 5.00581e-14 0)
(2 -2.69629e-13 0)
(2 -1.13269e-14 0)
(2 1.68119e-13 0)
(2 1.45063e-13 0)
(2 -1.33601e-13 0)
(2 4.66476e-14 0)
(1.92567 0.110932 0)
(1.82969 0.228618 0)
(1.99472 0.00437526 0)
(2 -2.12953e-15 0)
(1.83341 0.22653 0)
(2.11143 -0.266232 0)
(2 -1.75871e-15 0)
(2 -7.86199e-14 0)
(2 2.22628e-14 0)
(1.90767 0.133119 0)
(2 -4.88411e-14 0)
(1.96447 0.0554779 0)
(2 -1.20542e-13 0)
(1.84605 0.211775 0)
(1.83263 0.228203 0)
(2 -5.73568e-14 0)
(2.10945 -0.264847 0)
(2 -6.16244e-14 0)
(1.83006 0.22842 0)
(2 5.95201e-14 0)
(2 -9.90784e-15 0)
(1.83121 0.228596 0)
(1.84244 0.217711 0)
(2 -9.78833e-14 0)
(1.828 0.22723 0)
(2 2.27764e-14 0)
(2.11293 -0.266583 0)
(2 -4.54696e-14 0)
(2 -4.27517e-15 0)
(2 -4.18789e-15 0)
(1.82788 0.230965 0)
(1.83484 0.22512 0)
(1.8522 0.204467 0)
(2 1.62031e-13 0)
(1.82998 0.229115 0)
(1.83156 0.228762 0)
(2 3.88142e-14 0)
(1.83109 0.229295 0)
(2 -9.64925e-09 0)
(1.83255 0.228212 0)
(2 4.63903e-14 0)
(2.11862 -0.262378 0)
(2.00905 -0.0230281 0)
(2.11528 -0.267465 0)
(2 -3.47268e-11 0)
(2 -2.20454e-11 0)
(2 -3.27484e-11 0)
(2 -2.15249e-13 0)
(2 -1.43766e-11 0)
(1.8316 0.228928 0)
(2 -1.36521e-14 0)
(1.83157 0.22895 0)
(2 -4.25833e-11 0)
(2 -9.71125e-11 0)
(2 5.64263e-14 0)
(1.83967 0.220108 0)
(2 -1.25348e-13 0)
(2.11106 -0.265012 0)
(1.83116 0.228738 0)
(2 2.32071e-14 0)
(2.10419 -0.264365 0)
(2.11833 -0.247302 0)
(2.12416 -0.264971 0)
(2 -9.45645e-14 0)
(1.91602 0.1281 0)
(1.98801 0.02142 0)
(1.83066 0.229502 0)
(1.83142 0.228749 0)
(2 -2.54441e-13 0)
(2 -3.34367e-07 0)
(2 -9.85669e-08 0)
(2 -1.01079e-13 0)
(1.83146 0.22872 0)
(2 1.76931e-14 0)
(2 -1.45907e-13 0)
(1.83146 0.228826 0)
(1.83168 0.228892 0)
(2 -1.00027e-13 0)
(1.93847 0.0931017 0)
(2.00012 0.000797235 0)
(2 -8.85793e-14 0)
(2.00123 -0.00193431 0)
(1.82847 0.22834 0)
(2.05407 -0.0994201 0)
(2 -1.20611e-07 0)
(2.05709 -0.123353 0)
(2.10572 -0.261427 0)
(2.10165 -0.261376 0)
(1.99199 -0.0502206 0)
(1.83074 0.228662 0)
(1.83434 0.226374 0)
(1.96397 0.0534965 0)
(1.8312 0.228924 0)
(1.83143 0.228935 0)
(2 -6.29696e-15 0)
(2 1.62035e-14 0)
(1.83096 0.228805 0)
(1.82979 0.22859 0)
(1.83142 0.229034 0)
(1.8307 0.226974 0)
(2 -2.04207e-13 0)
(1.83177 0.228997 0)
(2.11865 -0.264186 0)
(1.83087 0.229029 0)
(1.83068 0.229477 0)
(1.83036 0.227946 0)
(1.83181 0.230266 0)
(2.04297 -0.0850129 0)
(2.03576 -0.0741649 0)
(2.02409 -0.0501308 0)
(1.83133 0.228897 0)
(2.01203 -0.0250889 0)
(1.83093 0.229215 0)
(2 -5.84421e-14 0)
(2 -1.05596e-13 0)
(1.83095 0.229679 0)
(1.83129 0.22901 0)
(2 -1.39241e-13 0)
(2.11506 -0.264306 0)
(1.83087 0.228347 0)
(1.83154 0.228838 0)
(2 -1.61945e-13 0)
(1.83199 0.229027 0)
(1.83178 0.229069 0)
(2 -7.64129e-14 0)
(1.83158 0.228872 0)
(2.10557 -0.264059 0)
(1.8319 0.229259 0)
(1.83043 0.228768 0)
(1.8305 0.228588 0)
(1.83128 0.230496 0)
(2 -3.6806e-13 0)
(2 -3.59076e-13 0)
(2 -1.04807e-07 0)
(1.83157 0.228783 0)
(1.88962 0.159943 0)
(2.11056 -0.251947 0)
(1.83162 0.228827 0)
(2.11858 -0.27286 0)
(1.83159 0.228752 0)
(2 -5.16108e-14 0)
(2 1.0063e-13 0)
(2 -1.11649e-14 0)
(2 -9.31869e-14 0)
(1.83099 0.229489 0)
(1.83174 0.229115 0)
(2 1.8147e-13 0)
(2 5.6731e-14 0)
(1.83173 0.229096 0)
(2.11781 -0.269694 0)
(1.83152 0.22872 0)
(2.11822 -0.261072 0)
(2 -4.0387e-14 0)
(1.83268 0.227704 0)
(2 -1.51623e-13 0)
(2.12829 -0.268557 0)
(1.8309 0.229554 0)
(2.08947 -0.195242 0)
(2 1.08003e-14 0)
(1.83124 0.228686 0)
(1.8304 0.230326 0)
(1.83192 0.229359 0)
(2 -2.3967e-13 0)
(2 -1.01716e-14 0)
(1.91288 0.126457 0)
(1.83088 0.230131 0)
(2.10141 -0.269551 0)
(1.8322 0.229089 0)
(2 -9.42259e-14 0)
(1.83155 0.229427 0)
(2.03555 -0.0765055 0)
(1.83203 0.228994 0)
(2.11325 -0.263712 0)
(2 -1.75858e-13 0)
(1.83222 0.228846 0)
(2.115 -0.244616 0)
(1.83101 0.229679 0)
(2.10825 -0.259357 0)
(2 2.19704e-14 0)
(1.83122 0.228969 0)
(2 -5.28108e-14 0)
(1.82888 0.228581 0)
(2 4.03159e-14 0)
(1.90211 0.144324 0)
(1.83774 0.221895 0)
(1.86763 0.186351 0)
(2.11742 -0.27856 0)
(2 -2.63312e-13 0)
(1.83102 0.228841 0)
(2 1.01573e-13 0)
(1.83185 0.228854 0)
(2 -1.16362e-07 0)
(1.83167 0.228839 0)
(2 -2.33294e-07 0)
(2 -9.66525e-14 0)
(1.83047 0.22868 0)
(2.00733 -0.0144356 0)
(1.8307 0.230495 0)
(2.11526 -0.268024 0)
(1.85511 0.203029 0)
(2 3.98949e-14 0)
(1.87899 0.172663 0)
(2 -8.38057e-14 0)
(1.83088 0.229705 0)
(1.83165 0.228834 0)
(1.8309 0.229627 0)
(2 1.04339e-13 0)
(1.84889 0.208859 0)
(1.83089 0.228801 0)
(1.84389 0.215097 0)
(1.8981 0.14956 0)
(1.83027 0.236381 0)
(2 2.10725e-13 0)
(1.88672 0.16374 0)
(2 -3.54003e-14 0)
(1.83056 0.228945 0)
(2 -2.73552e-13 0)
(1.97534 0.0316821 0)
(2 7.20343e-14 0)
(1.84441 0.214362 0)
(2 1.59171e-13 0)
(1.83157 0.229403 0)
(1.83899 0.220222 0)
(1.83943 0.22002 0)
(2 1.71105e-14 0)
(1.82715 0.230829 0)
(2.10474 -0.270521 0)
(2 1.39012e-13 0)
(2.12096 -0.263643 0)
(2 -8.67763e-14 0)
(2 -5.30148e-14 0)
(2 -4.30578e-14 0)
(1.83073 0.228552 0)
(2 1.37381e-13 0)
(1.83178 0.229264 0)
(2 -1.6361e-14 0)
(2 -1.50367e-13 0)
(2 -2.6181e-13 0)
(1.83139 0.229379 0)
(1.83943 0.220963 0)
(1.86998 0.184153 0)
(1.8305 0.2281 0)
(1.83187 0.227225 0)
(2.11329 -0.265922 0)
(1.83139 0.231963 0)
(1.82955 0.228715 0)
(2 4.50611e-14 0)
(1.86533 0.193282 0)
(1.83152 0.228866 0)
(1.83523 0.233131 0)
(2 -1.61315e-13 0)
(1.82848 0.22839 0)
(1.83201 0.228948 0)
(2 -2.11796e-13 0)
(1.82814 0.230575 0)
(1.83113 0.228585 0)
(1.83032 0.228758 0)
(1.83085 0.229357 0)
(2 -3.095e-13 0)
(2 1.85334e-14 0)
(2 -3.01553e-14 0)
(1.83178 0.228911 0)
(2.12018 -0.26943 0)
(2 -4.84975e-14 0)
(1.83183 0.228995 0)
(2 -6.86049e-14 0)
(2 4.62213e-14 0)
(2.10316 -0.26984 0)
(2 1.89867e-14 0)
(2 5.96946e-14 0)
(1.83151 0.228911 0)
(1.83189 0.228847 0)
(2 -1.68601e-14 0)
(1.83184 0.228741 0)
(1.83375 0.229947 0)
(1.83135 0.228882 0)
(2.00692 -0.0208022 0)
(1.83138 0.2288 0)
(2 -3.36931e-14 0)
(1.83141 0.228938 0)
(1.83167 0.228899 0)
(1.87101 0.186996 0)
(2 -8.79864e-14 0)
(2 -1.81878e-13 0)
(2 -1.13903e-13 0)
(1.83139 0.228389 0)
(1.83122 0.229038 0)
(1.83187 0.228742 0)
(2.01762 -0.0308121 0)
(2 7.77825e-14 0)
(1.82799 0.231638 0)
(1.83147 0.228725 0)
(1.83177 0.228831 0)
(2 -5.09184e-14 0)
(1.83168 0.22869 0)
(1.83085 0.228942 0)
(1.83162 0.228816 0)
(1.82822 0.232365 0)
(2 -1.20997e-13 0)
(1.83176 0.229286 0)
(1.83108 0.227356 0)
(1.8534 0.202231 0)
(1.83222 0.228595 0)
(1.82916 0.231407 0)
(2 3.04578e-15 0)
(1.83023 0.229719 0)
(1.83343 0.226842 0)
(1.83181 0.228792 0)
(1.83189 0.228168 0)
(1.83238 0.228604 0)
(2.11001 -0.267187 0)
(1.83103 0.228591 0)
(1.83203 0.228911 0)
(2 -1.94099e-14 0)
(1.83144 0.22887 0)
(1.83171 0.228787 0)
(1.8314 0.229088 0)
(1.83173 0.229194 0)
(2 -5.04652e-08 0)
(1.83204 0.228895 0)
(1.83132 0.228721 0)
(2 -1.60773e-07 0)
(1.8315 0.228926 0)
(1.85832 0.19866 0)
(2 -1.79981e-13 0)
(2 3.47748e-14 0)
(2 8.97333e-10 0)
(1.83201 0.228821 0)
(1.83093 0.230463 0)
(2 1.56872e-13 0)
(2 4.11548e-15 0)
(1.90839 0.133188 0)
(2 -9.44228e-14 0)
(1.83131 0.229046 0)
(2 -5.22744e-14 0)
(2 -2.62784e-14 0)
(1.83141 0.228913 0)
(1.8306 0.229637 0)
(1.83168 0.22877 0)
(1.83155 0.228902 0)
(2 3.25542e-14 0)
(2 -6.11591e-14 0)
(2 1.22266e-14 0)
(1.881 0.167648 0)
(2 -5.6003e-14 0)
(1.83137 0.229125 0)
(2 -1.75656e-13 0)
(2 -2.09026e-13 0)
(1.83018 0.228762 0)
(1.83059 0.228784 0)
(2 2.58747e-14 0)
(1.83161 0.228891 0)
(2.12413 -0.268025 0)
(1.83155 0.228876 0)
(1.83197 0.230209 0)
(2.08681 -0.201029 0)
(2 9.01558e-14 0)
(2.12074 -0.278069 0)
(1.85046 0.204497 0)
(1.83171 0.229479 0)
(1.83211 0.229606 0)
(1.83195 0.229306 0)
(2.12266 -0.266395 0)
(1.83081 0.22872 0)
(1.83145 0.229736 0)
(2.12163 -0.266192 0)
(2.11958 -0.273537 0)
(2 -2.5854e-07 0)
(1.83119 0.229599 0)
(1.83118 0.229844 0)
(2 -2.83425e-14 0)
(2 -3.64709e-14 0)
(1.83165 0.228946 0)
(2 -4.35924e-14 0)
(1.83061 0.227949 0)
(2 2.30211e-06 0)
(1.85229 0.205135 0)
(2 -6.76753e-14 0)
(1.91989 0.119476 0)
(1.8315 0.229145 0)
(1.83041 0.229929 0)
(1.87988 0.171312 0)
(1.85774 0.197142 0)
(1.83022 0.228441 0)
(1.83071 0.229723 0)
(1.84204 0.225228 0)
(2 8.86125e-14 0)
(2.11464 -0.266861 0)
(1.82973 0.230634 0)
(1.83133 0.229219 0)
(1.82879 0.231064 0)
(2 6.93983e-06 0)
(2 3.57314e-10 0)
(2 1.36158e-09 0)
(1.82992 0.230087 0)
(2 -6.55817e-14 0)
(1.83167 0.228675 0)
(1.832 0.228826 0)
(2.0824 -0.168042 0)
(2 -4.27699e-14 0)
(1.83122 0.228941 0)
(2.00002 -4.45161e-05 0)
(2 7.94975e-15 0)
(1.99999 1.90716e-05 0)
(1.99998 2.47009e-05 0)
(1.83117 0.229513 0)
(1.83175 0.228758 0)
(2.00055 -0.000875195 0)
(2 -1.098e-13 0)
(2 -3.18532e-14 0)
(1.83172 0.228777 0)
(1.83088 0.230527 0)
(1.83158 0.228947 0)
(1.83156 0.229452 0)
(1.83021 0.229506 0)
(2.11144 -0.258511 0)
(1.85106 0.222088 0)
(2 -5.83211e-14 0)
(1.83252 0.227717 0)
(1.83178 0.228755 0)
(1.83185 0.228647 0)
(1.83351 0.22602 0)
(2 -1.75558e-13 0)
(1.83187 0.228829 0)
(1.83635 0.223847 0)
(1.83146 0.22979 0)
(2 -2.13396e-13 0)
(1.83 0.228833 0)
(1.83074 0.228916 0)
(2.0502 -0.10331 0)
(1.8322 0.22911 0)
(1.83031 0.228801 0)
(2 -7.22011e-14 0)
(1.83131 0.22891 0)
(2.05403 -0.120871 0)
(1.83121 0.228876 0)
(2.05115 -0.0999851 0)
(1.8321 0.229069 0)
(2 -8.75247e-08 0)
(1.83145 0.228743 0)
(1.824 0.233706 0)
(1.8317 0.228823 0)
(1.83164 0.228837 0)
(1.83151 0.228902 0)
(1.83149 0.228545 0)
(1.83163 0.229199 0)
(1.82979 0.227986 0)
(2 -3.68333e-14 0)
(2.02553 -0.0486333 0)
(1.83108 0.228809 0)
(1.83171 0.229098 0)
(2.04857 -0.107035 0)
(1.83142 0.228945 0)
(2.0065 -0.0182092 0)
(1.89161 0.152164 0)
(1.83102 0.228909 0)
(1.83157 0.22883 0)
(1.82963 0.228513 0)
(2 7.84904e-14 0)
(1.83076 0.230614 0)
(1.89117 0.163405 0)
(1.8317 0.227737 0)
(2.02905 -0.0601426 0)
(1.8308 0.230155 0)
(1.82663 0.228541 0)
(2 -4.50562e-14 0)
(2.04476 -0.090105 0)
(2 -3.49945e-09 0)
(1.83765 0.224671 0)
(2 3.32167e-14 0)
(1.88372 0.166233 0)
(2 4.191e-09 0)
(1.83367 0.221912 0)
(2.04799 -0.0918172 0)
(2 1.2553e-13 0)
(1.83227 0.227715 0)
(1.83741 0.225088 0)
(2 -8.86504e-14 0)
(1.82984 0.229445 0)
(1.83069 0.229642 0)
(1.83004 0.23032 0)
(1.84047 0.222304 0)
(1.83224 0.228327 0)
(2 -2.07964e-13 0)
(1.83035 0.228741 0)
(2 -7.0372e-14 0)
(2 5.72046e-14 0)
(2 1.50694e-14 0)
(2.03219 -0.0645656 0)
(1.83184 0.229107 0)
(1.83138 0.229442 0)
(1.82987 0.230593 0)
(1.83152 0.228977 0)
(1.82714 0.232923 0)
(1.83164 0.230933 0)
(1.83612 0.22693 0)
(1.83169 0.229197 0)
(2.03178 -0.0620038 0)
(1.9874 0.022491 0)
(2 3.55517e-09 0)
(2 -6.43576e-14 0)
(1.82438 0.234051 0)
(1.83189 0.229078 0)
(1.83152 0.228996 0)
(1.83173 0.228996 0)
(1.99999 1.60744e-05 0)
(1.91593 0.12863 0)
(2 -1.71355e-07 0)
(1.82813 0.230723 0)
(1.85336 0.208273 0)
(2 -3.83945e-12 0)
(2 -6.11977e-11 0)
(2.09761 -0.184906 0)
(1.83171 0.228854 0)
(2 -1.4188e-14 0)
(2 -1.08359e-13 0)
(2.10904 -0.264947 0)
(1.83144 0.228962 0)
(2 -1.08353e-14 0)
(1.82941 0.228672 0)
(1.83121 0.228939 0)
(1.83005 0.228604 0)
(1.83851 0.221714 0)
(1.83138 0.228933 0)
(2 -9.82257e-11 0)
(2.11802 -0.274825 0)
(1.95971 0.0650854 0)
(1.83037 0.228546 0)
(1.83145 0.228826 0)
(2 -1.70025e-13 0)
(1.83159 0.229678 0)
(1.83162 0.228882 0)
(1.91599 0.125449 0)
(1.99887 0.00552916 0)
(1.96375 0.0590501 0)
(2 -1.34833e-13 0)
(1.82872 0.22824 0)
(1.83152 0.228952 0)
(2 -1.17747e-07 0)
(2 -2.10602e-10 0)
(2.1175 -0.263896 0)
(2 -2.40987e-10 0)
(2 -1.22474e-13 0)
(1.83161 0.228926 0)
(1.83182 0.229 0)
(1.83049 0.231061 0)
(1.83176 0.228823 0)
(1.8314 0.228789 0)
(1.82785 0.228459 0)
(1.83109 0.229049 0)
(1.83175 0.22738 0)
(1.83136 0.228833 0)
(2 -1.59479e-14 0)
(2.0015 -0.00282452 0)
(1.83115 0.228723 0)
(1.83183 0.229058 0)
(2.0012 -0.00199654 0)
(1.83176 0.228935 0)
(1.83163 0.228885 0)
(2.11327 -0.264469 0)
(2.1283 -0.260324 0)
(1.83109 0.22854 0)
(1.82812 0.230909 0)
(2 -1.2655e-13 0)
(2 2.5649e-13 0)
(1.99904 0.00227837 0)
(1.83122 0.228939 0)
(1.83047 0.23095 0)
(1.83159 0.228957 0)
(2 1.08147e-09 0)
(1.83161 0.228874 0)
(2 1.52434e-14 0)
(2.04747 -0.102618 0)
(1.82858 0.230869 0)
(1.82613 0.231637 0)
(2 -1.31729e-13 0)
(1.92686 0.109597 0)
(1.83156 0.229047 0)
(2 3.87021e-14 0)
(1.8279 0.229032 0)
(2 -1.04915e-10 0)
(1.83164 0.229281 0)
(1.88092 0.165178 0)
(1.83137 0.229612 0)
(2 1.08518e-11 0)
(1.83194 0.228377 0)
(1.8345 0.228823 0)
(2.11782 -0.267351 0)
(1.83188 0.228858 0)
(2 -1.2163e-07 0)
(1.83064 0.228596 0)
(1.82968 0.228711 0)
(2 7.0872e-09 0)
(2.11181 -0.260073 0)
(1.83203 0.227174 0)
(1.85214 0.220841 0)
(2.00088 -0.00122347 0)
(1.84795 0.219604 0)
(1.83166 0.22881 0)
(2 -5.4845e-12 0)
(1.99832 -0.00236295 0)
(1.8315 0.229998 0)
(2.00197 -0.00150439 0)
(1.83162 0.228952 0)
(2 -3.50303e-12 0)
(2 -1.48246e-13 0)
(1.83121 0.228853 0)
(2 -6.18393e-14 0)
(1.83132 0.227656 0)
(1.83166 0.228864 0)
(2.00133 -0.00234675 0)
(1.87685 0.174829 0)
(2 3.28914e-09 0)
(1.83159 0.228794 0)
(2 -3.4964e-10 0)
(2 -9.53295e-13 0)
(2 9.33141e-12 0)
(2 6.86546e-12 0)
(1.8318 0.228965 0)
(2 6.93916e-09 0)
(2 -1.64139e-13 0)
(1.83715 0.223595 0)
(2 -1.03457e-13 0)
(1.83152 0.228707 0)
(2 3.2869e-10 0)
(1.89143 0.158361 0)
(1.82981 0.231034 0)
(1.83125 0.229172 0)
(2 5.08936e-10 0)