/*--------------------------------*- C++ -*----------------------------------*\
  =========                 |
  \\      /  F ield         | OpenFOAM: The Open Source CFD Toolbox
   \\    /   O peration     | Website:  https://openfoam.org
    \\  /    A nd           | Version:  12
     \\/     M anipulation  |
\*---------------------------------------------------------------------------*/
FoamFile
{
    format      ascii;
    class       volScalarField;
    location    "1.7";
    object      rho;
}
// * * * * * * * * * * * * * * * * * * * * * * * * * * * * * * * * * * * * * //

dimensions      [1 -3 0 0 0 0 0];

internalField   nonuniform List<scalar> 
22702
(
1.40001
1.40001
1.26599
1.40001
1.45729
1.40001
1.83221
1.40001
1.40001
1.0123
1.83735
1.83108
1.40001
1.84197
1.28726
1.40001
1.40001
1.40001
1.83931
1.40001
1.84036
1.40001
1.84527
1.03376
1.8499
1.06221
1.40001
1.84544
1.03087
1.02715
1.40001
1.83607
1.40001
1.40001
1.40001
1.81098
1.85007
1.84398
1.40001
1.40001
1.03376
1.40001
1.61852
1.40001
1.84483
1.40001
1.40001
1.40001
1.40001
1.03416
1.40001
1.03687
1.40001
1.83775
1.40001
1.84287
1.40001
1.40001
1.40001
1.40001
1.08117
1.40001
1.40001
1.02449
1.40001
1.03324
1.40001
1.40001
1.40001
1.04999
1.40001
1.84108
1.67042
1.40001
1.83675
1.85452
1.03604
1.8371
1.02942
1.40001
1.83891
1.03358
1.84106
1.8418
1.40001
1.40001
1.40001
1.40001
1.32287
1.03242
1.839
1.40001
1.40001
0.98152
1.40001
1.84147
0.980594
1.40001
1.40001
1.40001
1.40001
1.61973
1.83906
1.05278
1.40001
1.40001
1.50549
1.40001
1.03424
1.40001
1.83687
1.83771
1.40001
1.40001
1.02714
1.03244
1.02456
1.40001
1.40001
1.40001
1.40001
1.40001
1.30952
1.40001
1.78148
1.44367
1.83794
1.40001
1.83627
1.84006
1.84252
1.83684
1.40001
1.08084
1.40001
1.00992
1.40001
1.40001
1.40001
1.40001
1.83908
1.40001
1.40001
1.40001
1.40001
1.83942
1.40001
1.42596
1.40001
1.40001
1.40001
1.40001
1.03415
1.40001
1.41077
1.40001
1.02805
1.40001
1.40001
1.40001
1.8375
1.40001
1.84467
1.01365
1.07117
1.83653
1.84376
1.40001
1.47213
1.65479
1.40001
1.84521
1.02956
1.81189
1.40001
1.40001
1.40001
1.40001
1.8397
1.76583
1.40001
1.83804
1.01805
1.84524
1.40001
1.01351
1.40001
1.03167
1.06424
1.39981
1.40001
1.40001
1.8367
1.40001
1.40001
1.84139
1.40001
1.8401
1.83718
1.01932
1.40001
1.40001
1.02016
1.84166
1.40001
1.40001
1.40001
1.84176
1.40001
1.02434
1.40001
1.40001
1.84137
1.84188
1.83847
1.40001
1.40004
1.40001
1.40001
1.40001
1.84411
1.40001
1.02085
1.84851
1.841
1.84246
1.40001
1.40001
1.40001
1.01385
1.84236
1.60678
1.40001
1.8442
1.02311
1.02132
1.8434
1.84309
1.40001
1.83952
1.03385
1.79242
1.40001
1.40001
1.40001
1.40001
1.84194
1.40001
1.6589
1.44403
1.40001
1.40001
1.8422
0.995395
1.17796
1.40001
1.8419
1.03281
1.83935
1.40001
1.40001
1.40001
1.40001
1.40001
1.40001
1.40001
1.03319
1.1654
1.02236
1.84149
1.40001
1.40001
1.40001
1.40001
1.79048
1.40001
1.02931
1.40001
1.01086
1.01931
1.84166
1.0433
1.84027
1.40001
1.40001
1.40001
1.3977
1.01674
1.02859
1.4
1.40001
1.00682
1.40001
1.84077
1.05508
1.40001
1.40001
1.83896
1.01438
1.40001
1.83577
1.05493
1.84234
1.40001
1.0137
1.39775
1.40001
1.40001
1.40001
1.03749
1.40001
1.40001
1.4
1.40002
1.40813
1.67242
1.40001
1.06244
1.40001
1.40001
1.40001
1.40001
1.40001
1.40001
1.40001
1.83855
1.40001
1.83675
1.40001
1.40001
1.40001
1.03136
1.40001
1.84137
1.03114
1.40001
1.73066
1.40001
1.40001
1.84094
1.40001
1.40001
1.40001
1.83352
1.40001
1.40001
1.82857
1.83974
1.40001
1.494
1.40001
1.40001
1.00164
1.40001
1.40001
1.40001
0.994044
1.40001
1.40001
1.40001
1.40001
1.05311
1.40001
1.40001
1.40001
1.40001
1.40001
1.03372
1.40007
1.84505
1.40001
1.40001
1.84238
1.83763
1.40001
1.40001
1.0326
1.20425
1.83745
1.40001
1.40001
1.40001
1.84227
1.05285
1.40001
1.84443
1.40001
1.40001
1.10447
1.10545
1.40001
1.01852
1.03756
1.40001
1.40001
1.40001
1.40001
1.40001
1.40001
1.40001
1.84035
1.50386
1.81883
1.03413
1.29543
1.83933
1.40001
1.83493
1.83761
1.02622
1.16839
1.40001
1.02109
1.40001
1.84982
1.40001
1.40001
1.40001
1.40001
1.8415
1.40001
1.40001
1.40001
1.40001
1.40001
1.40001
1.40001
1.56803
1.83967
1.40001
1.84184
1.40001
1.40001
1.03087
1.40001
1.40001
1.40001
1.40001
1.84181
1.73835
1.40001
1.40001
1.01882
1.84078
1.84138
1.40001
1.84127
1.84106
1.84184
1.40001
1.21928
1.40001
1.84163
1.38103
1.84189
1.40001
1.01992
1.39887
1.83864
1.40001
1.40001
1.40001
1.40001
1.03639
1.84171
1.8026
1.40001
1.84819
1.84219
1.8385
1.40001
1.6065
1.83595
1.40001
1.40001
1.70701
1.46525
1.84138
1.32469
1.84145
1.40001
1.84158
1.84182
1.84172
1.84079
1.40001
1.81655
1.30434
1.28196
1.40001
1.4
1.40001
1.40001
1.84861
1.40001
1.40001
1.40001
1.40001
1.40001
1.83871
1.40001
1.40001
1.39633
1.84146
1.79517
1.40001
1.7731
1.40005
1.40001
1.40001
1.84323
1.40001
1.39623
1.40404
1.40001
1.84226
1.40001
1.84212
1.40001
1.40001
1.72954
1.40001
1.84127
1.40003
1.40001
1.83965
1.40001
1.84169
1.40001
1.40001
1.40001
1.84172
1.40001
1.84381
1.40001
1.84166
1.83797
1.84187
1.84203
1.40001
1.83734
1.84343
1.40001
1.0208
1.81419
1.71684
1.40001
1.84127
1.40001
0.994313
1.05288
1.40001
1.40001
1.40001
1.40001
1.40001
0.982491
1.40001
1.84189
1.50379
1.84237
1.40001
1.40001
1.40001
1.40001
1.40001
1.84157
1.40001
1.84665
1.66618
1.16399
1.40001
1.40002
1.52656
1.51042
1.40001
1.40001
1.55551
1.40001
1.02735
1.84172
1.84196
1.40001
1.40001
1.40001
1.83907
1.40001
1.40003
1.84555
1.84211
1.35228
1.40001
1.40001
1.03082
1.8012
1.40001
1.40001
1.40001
1.40001
1.40001
1.84171
1.83855
1.40001
1.84
1.84308
1.84221
1.40001
1.40001
1.40001
1.40001
1.06426
1.8376
1.40001
1.40001
1.80122
1.84
1.40001
1.81573
1.83614
1.40001
1.40001
1.40001
1.40001
1.40001
1.84219
1.40001
1.40001
1.40001
1.40001
1.84736
1.40001
1.83318
1.02816
1.40001
1.03913
1.40001
1.40001
1.40001
1.39665
1.02609
1.39903
1.40001
1.40001
1.40001
1.46012
1.40001
1.40001
1.26352
1.40001
1.40001
1.40001
1.40001
1.40001
1.40001
1.40001
1.4
1.31454
1.4
1.40001
1.39765
1.40001
1.0317
1.40001
1.40001
1.40001
1.40001
1.73093
1.40001
1.40001
1.40001
1.40001
1.01416
1.40001
1.40001
1.81645
1.83878
1.4
1.40001
1.40001
1.28603
1.40001
1.40001
1.40001
1.40001
1.40001
1.40001
1.34943
1.40168
1.84001
1.40001
1.40001
1.40001
1.843
1.29875
1.40001
1.40001
1.40001
1.84566
1.83558
1.40001
1.40001
1.40001
1.40001
1.40001
1.40001
1.40001
1.40001
1.40001
1.02228
1.40001
1.40001
1.83917
1.02368
1.40001
1.8382
1.40001
1.02736
1.40001
1.40001
1.02213
1.40001
1.40001
1.40001
1.40001
1.40001
1.40001
1.40001
1.83286
1.84004
1.40001
1.40001
1.40001
1.40001
1.80309
1.40001
1.53825
1.01843
1.40001
1.40001
1.40001
1.40001
1.40001
1.40001
1.40001
1.42872
1.40001
1.40001
1.62478
1.40001
1.40001
1.40001
1.76499
1.40001
1.40001
1.40001
1.40001
1.03114
1.40001
1.40001
1.0137
1.02564
1.40001
1.40001
1.84207
1.40001
1.3879
1.40001
1.40001
1.40001
1.70889
1.03589
1.40001
1.03093
1.40001
1.17912
1.40001
1.40001
1.40001
1.83954
1.40001
1.40001
1.84212
1.40001
1.40001
1.40001
1.84179
1.40001
1.40001
1.84132
1.40001
1.40001
1.02635
1.40001
1.53942
1.40001
1.40001
1.83836
1.83925
1.69264
1.79558
1.40001
1.01957
1.40001
1.40001
1.82267
1.40001
1.04239
1.40001
1.40001
1.40001
1.84194
1.40001
1.40001
1.40001
1.40001
1.66804
1.40001
1.80747
1.8439
1.00004
1.40001
1.40001
1.05819
1.05507
1.40001
1.40001
1.40001
1.71513
1.73486
1.40001
1.40001
1.40001
1.40001
1.40001
1.40001
1.40001
1.5883
1.84119
1.39834
1.40001
1.83968
1.08378
1.40001
1.40001
1.40001
1.64447
1.40001
1.48803
1.40001
1.803
1.83948
1.40001
1.02054
1.40001
1.84448
1.40001
1.40001
1.84233
1.81408
1.40001
1.84039
1.40001
1.02293
1.40001
1.40001
1.40001
1.85026
1.83268
1.78829
1.40001
1.84034
1.84134
1.40001
1.84226
1.40001
1.8397
1.40001
1.03205
1.37824
1.03115
1.40001
1.40001
1.40001
1.40001
1.40001
1.84053
1.40001
1.84182
1.40001
1.40001
1.40001
1.82042
1.40001
1.04221
1.84211
1.40001
1.0105
1.04801
1.04214
1.40001
1.61069
1.431
1.84315
1.84155
1.40001
1.4
1.40001
1.40001
1.84201
1.40001
1.40001
1.84198
1.84125
1.40001
1.5586
1.39925
1.40001
1.39676
1.83444
1.24518
1.40001
1.21513
1.02381
1.03055
1.3086
1.84706
1.83546
1.48992
1.84169
1.84183
1.40001
1.40001
1.83638
1.8383
1.84127
1.83642
1.40001
1.84133
1.03713
1.84548
1.83918
1.84075
1.84735
1.26311
1.28182
1.31354
1.84165
1.35176
1.84086
1.40001
1.40001
1.84296
1.84179
1.40001
1.02136
1.83959
1.84136
1.40001
1.84203
1.84162
1.40001
1.84188
1.01123
1.83677
1.83973
1.83617
1.83918
1.40001
1.40001
1.40001
1.84122
1.68652
1.06897
1.84125
1.01811
1.8414
1.40001
1.40001
1.40001
1.40001
1.84509
1.84135
1.40001
1.40001
1.84129
1.02689
1.84196
1.02297
1.40001
1.8384
1.40001
1.0133
1.84383
1.12842
1.40001
1.84179
1.84442
1.84052
1.40001
1.40001
1.59363
1.84371
1.023
1.84168
1.40001
1.84308
1.26913
1.84101
1.0336
1.40001
1.84394
1.07293
1.8431
1.0223
1.40001
1.84242
1.40001
1.8388
1.40001
1.65794
1.82493
1.74742
1.0313
1.40001
1.84335
1.40001
1.84207
1.40001
1.84239
1.40001
1.40001
1.84273
1.38078
1.84451
1.01021
1.79418
1.40001
1.71177
1.40001
1.83978
1.84224
1.84045
1.40001
1.79679
1.84178
1.80904
1.67119
1.84808
1.40001
1.691
1.40001
1.84281
1.40001
1.46224
1.40001
1.80866
1.40001
1.84085
1.82209
1.82073
1.40001
1.84091
1.06374
1.40001
1.02991
1.40001
1.40001
1.40001
1.83617
1.40001
1.84302
1.40001
1.40001
1.40001
1.84207
1.83374
1.76272
1.84026
1.83994
1.03907
1.83292
1.84087
1.40001
1.78138
1.84179
1.84101
1.40001
1.8448
1.84104
1.40001
1.85292
1.84292
1.84214
1.84371
1.40001
1.40001
1.40001
1.84034
1.0588
1.40001
1.84173
1.40001
1.40001
1.05981
1.40001
1.40001
1.84208
1.84086
1.40001
1.84173
1.84335
1.83735
1.37967
1.84208
1.40001
1.84208
1.84186
1.75888
1.40001
1.40001
1.40001
1.84403
1.84045
1.84262
1.3465
1.40001
1.8474
1.84013
1.84423
1.40001
1.84118
1.84143
1.84223
1.84019
1.40001
1.84125
1.84832
1.78016
1.84119
1.83829
1.40001
1.8478
1.83622
1.84256
1.84199
1.84117
1.04277
1.84359
1.84425
1.40001
1.84215
1.8429
1.84186
1.841
1.40001
1.8434
1.84223
1.40001
1.8413
1.77098
1.40001
1.40001
1.40001
1.83713
1.84555
1.40001
1.40001
1.64324
1.40001
1.84256
1.40001
1.40001
1.84176
1.84619
1.84117
1.84159
1.40001
1.40001
1.40001
1.71129
1.40001
1.84151
1.40001
1.40001
1.83363
1.83981
1.40001
1.84176
1.01075
1.84213
1.84201
1.12177
1.40001
1.02699
1.78516
1.84628
1.8409
1.84052
1.03157
1.84157
1.8425
1.03436
1.01329
1.40001
1.84392
1.84147
1.40001
1.40001
1.8425
1.40001
1.84139
1.40001
1.78716
1.40001
1.60744
1.84221
1.84452
1.71247
1.81905
1.83878
1.84825
1.82288
1.40001
1.08048
1.84599
1.84237
1.8538
1.40002
1.40001
1.40001
1.84629
1.40001
1.84256
1.83978
1.14831
1.40001
1.8418
1.39994
1.40001
1.40003
1.40005
1.84171
1.83953
1.39842
1.40001
1.40001
1.84014
1.8437
1.84124
1.84829
1.83949
1.05791
1.79193
1.40001
1.83805
1.84049
1.84135
1.83913
1.40001
1.84171
1.82967
1.84328
1.40001
1.84227
1.84401
1.26428
1.84158
1.84175
1.40001
1.84015
1.24012
1.84161
1.2581
1.84198
1.40001
1.84148
1.84995
1.84234
1.84221
1.84176
1.83723
1.84257
1.84034
1.40001
1.32544
1.84318
1.84154
1.24021
1.84177
1.37032
1.67305
1.84177
1.83647
1.84686
1.40001
1.8443
1.6891
1.84345
1.3214
1.84415
1.84681
1.40001
1.26833
1.40001
1.83707
1.40001
1.70368
1.40001
1.82671
1.2667
1.40001
1.84365
1.84599
1.40001
1.84325
1.84332
1.84705
1.83313
1.84376
1.40001
1.83902
1.40001
1.40001
1.40001
1.29489
1.84193
1.84127
1.83918
1.84178
1.84867
1.84076
1.8386
1.84303
1.29584
1.42956
1.40001
1.40001
1.84695
1.84252
1.84225
1.84192
1.40003
1.634
1.40001
1.85337
1.79058
1.40001
1.40001
1.12503
1.84269
1.40001
1.40001
1.02546
1.84197
1.40001
1.841
1.84187
1.83948
1.82442
1.84087
1.40001
1.04257
1.50736
1.8418
1.84141
1.40001
1.84122
1.8426
1.62502
1.41008
1.50153
1.40001
1.84008
1.84218
1.40001
1.40001
1.03237
1.40001
1.40001
1.84209
1.84193
1.84494
1.84158
1.84242
1.84404
1.84243
1.83956
1.8417
1.40001
1.39625
1.84455
1.83941
1.39725
1.84184
1.84301
1.04487
0.996302
1.83849
1.83516
1.40001
1.40001
1.40145
1.84127
1.8409
1.84196
1.40001
1.84203
1.40001
1.25298
1.85466
1.83057
1.40001
1.60023
1.83944
1.40001
1.84125
1.40001
1.84112
1.68928
1.84332
1.40001
1.84125
1.84234
1.03186
1.84278
1.40001
1.84449
1.8413
1.40001
1.04481
1.83888
1.79385
1.39785
1.83
1.84296
1.40001
1.39806
1.84641
1.39847
1.84225
1.40001
1.40001
1.84584
1.40001
1.84399
1.84239
1.39654
1.7398
1.40001
1.84298
1.40001
1.40001
1.40001
1.40001
1.84184
1.40001
1.40001
1.83485
1.40001
1.84049
1.40001
1.6848
1.84637
1.84064
1.40001
1.40001
1.39981
1.40001
1.84264
1.8414
1.8452
1.84181
1.84162
1.8409
1.8428
1.40001
1.84094
1.8415
1.40001
1.84244
1.84128
1.40001
1.84275
1.32166
1.45828
1.84078
1.84136
1.84152
1.40001
1.84211
1.40001
1.84169
1.84151
1.40001
1.84017
1.40001
1.40001
1.40001
1.40001
1.84272
1.03391
1.39791
1.40001
1.84229
1.84629
1.40001
1.8416
1.40001
1.40535
1.04159
1.84118
1.39959
1.40001
1.84242
1.3983
1.83992
1.40001
1.3998
1.40001
1.84012
1.84431
1.84483
1.84126
1.02238
1.8423
1.84338
1.84284
1.51374
1.40001
1.40001
1.58698
1.84232
1.0226
1.03415
1.40001
1.84113
1.84123
1.84489
1.40001
1.40001
1.84346
1.84397
1.39988
1.40001
1.71599
1.01219
1.40001
1.48306
1.83907
1.83997
1.39824
1.84179
1.8498
1.40001
1.39891
1.40001
1.84027
1.83576
1.58397
1.40001
1.82863
1.40001
1.40147
1.8402
1.05164
1.84218
1.84198
1.3969
1.39992
1.77648
1.40001
1.3997
1.40001
1.84937
1.40001
1.40002
1.01242
1.8419
1.40001
1.40001
1.40001
1.40001
1.84821
1.64935
1.40001
1.40001
1.03864
1.84105
1.65101
1.40001
1.40001
1.40001
1.82134
1.83712
1.84073
1.40001
1.40001
1.83879
1.40001
1.84131
1.84035
1.40001
1.40001
1.84288
1.84176
1.8132
1.40001
1.40001
1.84278
1.84071
1.40001
1.40001
1.40001
1.84161
1.40001
1.40001
1.40001
1.84022
1.8434
1.84488
1.40001
1.84991
1.40004
1.07076
1.84098
1.83943
1.40001
1.84359
1.83338
1.83483
1.40001
1.40001
1.84477
1.40001
1.634
1.83827
1.40001
1.03873
1.40001
1.84381
1.40001
1.40001
1.84203
1.40001
1.40001
1.40001
1.54445
1.84472
1.05813
1.40002
1.84318
1.40001
1.40001
1.83945
1.40001
1.84582
1.40001
1.40001
1.84099
1.84049
1.40001
1.40006
1.40001
1.40001
1.40001
1.40001
1.40001
1.40001
1.84704
1.84221
1.40001
1.841
1.03506
1.8475
1.40001
1.84183
1.8431
1.84157
1.84899
1.84095
1.40001
1.40001
1.84423
1.40001
1.66739
1.84635
1.84134
1.40001
1.84379
1.84666
1.40001
1.80848
1.40001
1.8418
1.68865
1.84525
1.39744
1.83644
1.80656
1.84273
1.84295
1.43652
1.84139
1.84528
1.40001
1.84197
1.40001
1.8428
1.40001
1.40001
1.40001
1.40001
1.39669
1.84186
1.84285
1.76604
1.40001
1.85089
1.40001
1.40001
1.40001
1.04086
1.40001
1.83096
1.40001
1.80175
1.81404
1.40001
1.40001
1.40001
1.80906
1.83445
1.40001
1.40001
1.84342
1.03248
1.47825
1.40001
1.84641
1.84121
1.80334
1.83046
1.84169
1.40001
1.84238
1.40001
1.40001
1.40001
1.40001
1.84035
1.84186
1.40001
1.8328
1.45115
1.84046
1.81117
1.40001
1.40001
1.81358
1.40001
1.40001
1.02308
1.70548
1.40001
1.40001
1.84025
1.40001
1.8452
1.80402
1.40001
1.80418
1.02542
1.84176
1.84344
1.84268
1.40001
1.01799
1.40001
1.40001
1.40001
1.84042
1.76933
1.40001
1.83597
1.84122
1.4
1.84193
1.40001
1.40001
1.40001
1.40001
1.84166
1.39931
1.40001
1.84367
1.40001
1.40001
1.83513
1.84192
1.40001
1.84238
1.4837
1.40003
1.40001
1.84268
1.40001
1.84408
1.40001
1.41269
1.84208
1.40001
1.84026
1.40001
1.40001
1.52851
1.84089
1.40001
1.40001
1.40001
1.40001
1.40001
1.39609
1.04735
1.04456
1.42223
1.40001
1.41956
1.40001
1.41992
1.40001
1.8421
1.40001
1.66625
1.40001
1.84185
1.40001
1.40001
1.40001
1.84204
1.40001
1.75701
1.84147
1.40001
1.63036
1.84228
1.40001
1.40001
1.83674
1.84327
1.40001
1.40001
1.44696
1.0246
1.40001
1.84245
1.40001
1.40001
1.40001
1.40001
1.47497
1.84213
1.40001
1.40001
1.40001
1.02436
1.40001
1.84133
1.84141
1.84684
1.40001
1.40001
1.40001
1.40001
1.62214
1.84351
1.40001
1.40001
1.40001
1.84403
1.84111
1.44049
1.40001
1.40001
1.40001
1.84084
1.84241
1.40001
1.03755
1.84242
1.84
1.84105
1.84039
1.8425
1.40001
1.40001
1.83906
1.84421
1.84125
1.02681
1.44076
1.84004
1.40001
1.40001
1.40001
1.40001
1.40001
1.84134
1.03344
1.40001
1.40001
1.84131
1.59762
1.40001
1.84014
1.40001
1.40001
1.40001
1.01345
1.40001
1.40001
1.51862
1.84218
1.84163
1.40001
1.84145
1.84112
1.40001
1.47425
1.40001
1.84027
1.40001
1.839
1.03067
1.40001
1.40001
1.40001
1.40001
1.84236
1.40006
1.40001
1.40001
1.40001
1.83198
1.40001
1.40001
1.40001
1.40001
1.84215
1.01544
1.74319
1.8437
1.40001
1.84071
1.40001
1.40001
1.40001
1.39713
1.40001
1.84395
1.40001
1.20179
1.40001
1.40001
1.40004
1.8435
1.03073
1.40001
1.8416
1.40001
1.84475
1.84081
1.03218
1.40001
1.40001
1.82654
1.40001
1.40001
1.02285
1.40001
1.83281
1.40001
1.82209
1.39938
1.84195
1.40001
1.40001
1.40001
1.40001
1.84121
1.40001
1.40001
1.84388
1.40001
1.40001
1.40001
1.40001
1.40001
1.40001
1.40001
1.40001
1.69016
1.40001
1.54862
1.84517
1.40001
1.40001
1.40001
1.03254
1.40001
1.40001
1.40001
1.40001
1.84648
1.84229
1.4463
1.40001
1.40001
1.84299
1.40001
1.40001
1.84066
1.40001
1.40002
1.40001
1.40001
1.40001
1.40001
1.84149
1.17455
1.84095
1.84364
1.3971
1.40001
1.40001
1.40001
1.65803
1.40001
1.40001
1.84036
1.84169
1.40001
1.40001
1.40001
1.40001
1.04049
1.40001
1.40001
1.40001
1.68122
1.40001
1.84124
1.84555
1.40001
1.84346
1.40001
1.40001
1.40001
1.64192
1.40001
1.83671
1.40001
1.84338
1.40001
1.40001
1.39625
1.84061
1.40001
1.40001
1.40001
1.40001
1.40001
1.83865
1.40003
1.40001
1.02253
1.84017
1.03066
1.40001
1.84448
1.40001
1.39577
1.40001
1.84361
1.83964
1.40001
1.8278
1.27954
1.84198
1.8479
1.40004
1.40001
1.40001
1.0349
1.40001
1.40001
1.40001
1.84124
1.65964
1.8391
1.40001
1.40001
1.40001
1.40001
1.39677
1.84278
1.40001
1.02402
1.40001
1.40001
1.40001
1.40001
1.40001
1.40001
1.40001
1.83891
1.83924
1.83434
1.40001
1.40001
1.39687
1.40001
1.37676
1.40001
1.40001
1.40001
1.04797
1.37712
1.40001
1.03338
1.02554
1.40001
1.84343
1.84222
1.40001
1.84064
1.84238
1.02582
1.70281
1.40001
1.40001
1.40001
1.02638
1.84187
1.40001
1.0296
1.40001
1.8351
1.47956
1.40001
1.40001
1.40001
1.40001
1.84076
1.83597
1.40001
1.40001
1.84285
1.40001
1.40001
1.83888
1.84032
1.40001
1.80433
1.8421
1.84489
1.35563
1.84555
1.4088
1.02312
1.74103
1.84067
1.40001
1.40001
1.40001
1.04694
1.40001
1.04892
1.84998
1.3542
1.84325
1.34379
1.40001
1.84204
1.59569
1.40001
1.40001
1.84124
1.40001
1.57738
1.84135
1.40001
1.40001
1.83091
1.83918
1.03793
1.66331
1.39991
1.40001
1.67007
1.40001
1.84946
1.33803
1.85128
1.84102
1.40001
1.40001
1.40001
1.40001
1.83622
1.40001
1.40001
1.83911
1.39965
1.84269
1.76316
1.83636
1.02467
1.40001
1.40001
1.40001
1.40001
1.84161
1.40005
1.8407
1.40001
1.84041
1.84128
1.458
1.85215
1.52894
1.84034
1.40001
1.70113
1.04461
1.83788
1.84173
1.76328
1.47538
1.83728
1.84151
1.84095
1.84282
1.40001
1.30804
1.46874
1.40001
1.84202
1.60756
1.84312
1.40004
1.40001
1.40001
1.07738
1.84041
1.83928
1.75602
1.40001
1.56914
1.40001
1.8521
1.85047
1.40001
1.84213
1.8405
1.40001
1.40001
1.40001
1.84332
1.40001
1.57424
1.84473
1.70681
1.40001
1.83979
1.40001
1.40001
1.40001
1.40001
1.40001
1.40001
1.40001
1.40001
1.40001
1.40001
1.06111
1.40001
1.80813
1.04389
1.65851
1.39859
1.84672
1.40001
1.62848
1.40002
1.68497
1.7696
1.40001
1.40232
1.84422
1.30639
1.40001
1.84051
1.84574
1.33659
1.40001
1.84019
1.8419
1.84464
1.40001
1.84168
1.84451
1.84556
1.40001
1.605
1.40001
1.40006
1.84225
1.40001
1.83906
1.46527
1.845
1.40001
1.40001
1.84254
1.84815
1.08291
1.40001
1.84114
1.73345
1.84104
1.40001
1.40001
1.842
1.84463
1.39824
1.40001
1.79987
1.39675
1.84171
1.40009
1.40001
1.40001
1.40001
1.40001
1.60189
1.40001
1.75122
1.84234
1.73178
1.84045
1.40001
1.40336
1.40001
1.40001
1.84465
1.40001
1.84508
1.40001
1.40001
1.40001
1.40001
1.4
1.40001
1.45576
1.62417
1.40001
1.40001
1.04592
1.40001
1.84163
1.07295
1.84858
1.40001
1.62392
1.39975
1.84263
1.68302
1.06109
1.64327
1.40004
1.84193
1.83807
1.40001
1.66643
1.84354
1.84265
1.39842
1.8499
1.83313
1.03637
1.40001
1.40001
1.39783
1.40001
1.83456
1.40001
1.06919
1.83966
1.40001
1.40001
1.78916
1.40001
1.84309
1.40001
1.84062
1.40001
1.04474
1.40001
1.40001
1.84667
1.83754
1.83826
1.40001
1.83826
1.84139
1.83469
1.40001
1.40001
1.84074
1.4
1.12512
1.40001
1.40001
1.40001
1.84015
1.40001
1.84162
1.68694
1.84303
1.40001
1.84113
1.39939
1.40001
1.40001
1.40001
1.40001
1.40001
1.40001
1.09349
1.40001
1.40001
1.841
1.40001
1.84219
1.83479
1.40001
1.05181
1.02471
1.40001
1.84397
1.47448
1.02266
1.01383
1.40001
1.8394
1.40001
1.84235
1.03018
1.40169
1.40001
1.40001
1.39952
1.40001
1.40001
1.40001
1.39992
1.57969
1.84142
1.40001
1.40001
1.84351
1.66032
1.40001
1.81895
1.83951
1.83953
1.57988
1.83183
1.40001
1.84258
1.40001
1.82604
1.40001
1.84758
1.84429
1.39702
1.841
1.84006
1.40001
1.40001
1.40001
1.40001
1.40001
1.32079
1.83742
1.40005
1.40003
1.04716
1.39999
1.0466
1.0436
1.40001
1.84304
1.84146
1.84297
1.40001
1.841
1.40001
1.02584
1.40001
1.40001
1.84301
1.22244
1.84098
1.40001
1.84015
1.40001
1.37244
1.8413
1.40001
1.40001
1.40001
1.84102
1.40001
1.83912
1.03798
1.40001
1.40001
1.65813
1.40001
1.40001
1.64264
1.40001
1.40001
1.84071
1.40001
1.40001
1.40001
1.40001
1.40001
1.84219
1.84277
1.40001
1.84305
1.84109
1.04233
1.59939
1.83587
1.40001
1.40001
1.79726
1.399
1.40001
1.40001
1.84196
1.83855
1.69963
1.40001
1.84333
1.05756
1.79351
1.3996
1.40001
1.83933
1.40004
1.84442
1.75927
1.74059
1.40001
1.40001
1.84215
1.09509
1.04231
1.40001
1.84101
1.40001
1.84137
1.40001
1.66104
1.40001
1.40001
1.84099
1.68387
1.02921
1.40001
1.39839
1.40001
1.40001
1.42519
1.57823
1.84206
1.40001
1.84916
1.40001
1.40001
1.40001
1.40001
1.40001
1.40001
1.46751
1.02848
1.40001
1.40001
1.42685
1.40001
1.40001
1.40001
1.40001
1.40001
1.8429
1.40001
1.40001
1.84183
1.84252
1.7307
1.40001
1.40001
1.40001
1.23213
1.84191
1.71182
1.40001
1.40001
1.40001
1.40001
1.8405
1.40001
1.40001
1.40001
1.84429
1.40001
1.40001
1.72077
1.85598
1.42027
1.13466
1.84897
1.71375
1.83802
1.40001
1.62354
1.40001
1.40001
1.40001
1.04622
1.40217
1.01573
1.40001
1.03367
1.03148
1.40001
1.03578
1.40001
1.40001
1.40001
1.59561
1.40001
1.84232
1.84247
1.40143
1.61628
1.76587
1.05241
1.14869
1.28289
1.40001
1.84161
1.84008
1.84089
1.84196
1.78075
1.2641
1.40001
1.78203
1.40001
1.82258
1.40001
1.40001
1.39638
1.41017
1.40001
1.40001
1.40001
1.84299
1.40001
1.05305
1.40001
1.84322
1.0238
1.40001
1.40001
1.84193
1.40001
1.84397
1.3998
1.40001
1.40001
1.8417
1.80499
1.40001
1.85484
1.40001
1.40001
1.41462
1.40001
1.59558
1.40001
1.40001
1.03973
1.40001
1.40001
1.84568
1.4
1.83837
1.40001
1.40004
1.03258
1.40001
1.40001
1.06246
1.40082
1.40001
1.83959
1.03574
1.848
1.0297
1.84091
1.40001
1.40001
1.40001
1.40001
1.40001
1.40001
1.40001
1.40001
1.40001
1.40001
1.40001
1.82372
1.40001
1.84377
1.839
1.03013
1.40001
1.40001
1.40001
1.40001
1.40001
1.40001
1.82978
1.40001
1.40001
1.02793
1.40001
1.40001
1.83965
1.40001
1.40001
1.5607
1.76924
1.01792
1.03245
1.10112
1.13046
1.40001
1.39655
1.05598
1.40029
1.81225
1.39706
1.40001
1.40001
1.84177
1.40001
1.40001
1.40001
1.16781
1.40002
1.56225
1.40001
1.40001
1.58298
1.84135
1.40001
1.03971
1.40001
1.40001
1.40001
1.39682
1.40001
1.84248
1.84259
1.40001
1.03565
1.40001
1.64109
1.03245
1.40001
1.28779
1.40001
1.39519
1.02192
1.40001
1.40001
1.40001
1.39627
1.04089
1.40001
1.03271
1.39839
1.63258
1.79333
1.03046
1.01514
1.40001
1.39217
1.40001
1.39867
1.40001
1.84011
1.84121
1.40001
1.4174
1.84255
1.84202
1.40001
1.40001
1.84242
1.40001
1.40001
1.40005
1.40001
1.84558
1.40001
1.40001
1.41822
1.40001
1.39857
1.09625
1.40001
1.40001
1.40001
1.40001
1.40001
1.8387
1.42484
1.40005
1.40001
1.40001
1.40001
1.40001
1.40001
1.40004
1.40001
1.03732
1.4969
1.3986
1.82953
1.84026
1.40001
1.41763
1.84317
1.79403
1.40001
1.40001
1.03872
1.83855
1.40001
1.83944
1.40001
1.8396
1.6961
1.04388
1.40001
1.02985
1.79476
1.39968
1.40001
1.02855
1.05277
1.40001
1.40001
1.77113
1.40001
1.4
1.03606
1.40001
1.40001
1.40001
1.54317
1.40001
1.03266
1.84013
1.40001
1.40001
1.40001
1.40001
1.84221
1.40001
1.40001
1.8513
1.79588
1.40001
1.40001
1.40001
1.84269
1.04123
1.40001
1.84255
1.8412
1.40001
1.75228
1.4
1.40003
1.40001
1.40001
1.83091
1.41658
1.40001
1.03116
1.64418
1.40001
1.40001
1.39719
1.40001
1.40001
1.83321
1.40001
1.40001
1.40003
1.40001
1.83963
1.40001
1.40001
1.40001
1.40001
1.40001
1.40001
1.40001
1.58929
1.40001
1.84093
1.40001
1.40001
1.84332
1.40001
1.40001
1.40001
1.84198
1.83482
1.44511
1.40001
1.39764
1.40001
1.40001
1.40001
1.40001
1.83787
1.40001
1.40001
1.84021
1.02059
1.40001
1.40001
1.40001
1.40001
1.40001
1.40001
1.75776
1.40001
1.40001
1.84809
1.83996
1.40001
1.40001
1.40001
1.8418
1.83927
1.40001
1.39972
1.83671
1.40001
1.40001
1.40001
1.40002
1.03498
1.43016
1.39627
1.39583
1.40001
1.40001
1.04156
1.84006
1.40001
1.01369
1.40001
1.8441
1.82422
1.01616
1.39941
1.84183
1.84083
1.83942
1.40001
1.40001
1.32099
1.791
1.76641
1.03511
1.40001
1.40001
1.40001
1.84311
1.84167
1.03048
1.39725
1.40001
1.84242
1.04063
1.40001
1.82941
1.03837
1.36931
1.40629
1.40001
1.83521
1.40001
1.40001
1.40001
1.40001
1.40001
1.40001
1.40012
1.81072
1.40001
1.40001
1.83723
1.40001
1.40001
1.40001
1.84302
1.40001
1.04423
1.40001
1.40001
1.40001
1.54774
1.40001
1.40001
1.40001
1.40001
1.40001
1.17769
1.40001
1.03521
1.40001
1.84368
1.40007
1.24435
1.25852
1.40002
1.40357
1.63366
1.40001
1.40001
1.04792
1.84349
1.84316
1.84297
1.40001
1.01832
1.04666
1.40001
1.84292
1.40001
1.40001
1.40001
1.40001
1.40001
1.40004
1.40001
1.03855
1.68461
1.40001
1.40001
1.01948
1.39376
1.40001
1.40001
1.40001
1.40001
1.01685
1.40001
1.08657
1.40001
1.40001
1.84604
1.40001
1.40001
1.03287
1.40001
1.84121
1.40001
1.05781
1.40001
1.04302
1.40001
1.40815
1.83805
1.84393
1.40001
1.40001
1.83906
1.40001
1.40001
1.4977
1.39697
1.40001
1.39814
1.40001
1.84518
1.40001
1.03484
1.40002
1.83654
1.39891
1.40001
1.40001
1.19995
1.40001
1.399
1.02329
1.84273
1.5579
1.40001
1.40001
1.3002
1.40001
1.40001
1.40001
1.19496
1.40001
1.40001
1.40001
1.84065
1.40001
1.04067
1.4
1.40001
1.40001
1.40001
1.02124
1.84075
1.821
1.02824
1.40001
1.83457
1.40001
1.40001
1.84007
1.84245
1.77079
1.02881
1.39771
1.39925
1.40001
1.8421
1.40001
1.40001
1.40001
1.40001
1.84277
1.40004
1.40001
1.40001
1.83143
1.40001
1.40001
1.8417
1.03897
1.40001
1.40001
1.40001
1.03071
1.40001
1.4
1.4
1.3986
1.40001
1.40001
1.40001
1.40001
1.73889
1.40001
1.84013
1.84342
1.85713
1.84287
1.84187
1.84299
1.40001
1.84363
1.40001
1.84194
1.83912
1.40001
1.39884
1.03826
1.77687
1.3999
1.40001
1.40001
1.40001
1.40001
1.39719
1.40001
1.46883
1.40001
1.40001
1.40001
1.23118
1.84193
1.84257
1.8424
1.79161
1.39988
1.40001
1.42205
1.84112
1.39787
1.45656
1.39705
1.01539
1.40001
1.40003
1.40001
1.40001
1.40001
1.40001
1.40001
1.841
1.04021
1.84099
1.84226
1.39476
1.04862
1.40001
1.40001
1.40001
1.84194
1.0386
1.7902
1.02429
1.84191
1.84078
1.04346
1.83576
1.42409
1.40001
1.84372
1.17046
1.40001
1.39879
1.03529
1.40001
1.01848
1.40001
1.84315
1.84486
1.16185
1.40001
1.83939
1.01613
1.40001
1.03818
1.40001
1.84065
1.40001
1.40001
1.83004
1.40001
1.22718
1.40001
1.39969
1.0199
1.84124
1.39949
1.40001
1.07678
1.40001
1.40001
1.40001
1.40001
1.63821
1.40001
1.84436
1.40001
1.40001
1.8575
1.40001
1.40001
1.84252
1.40001
1.02491
1.40001
1.01565
1.40002
1.40001
1.40001
1.40001
1.40001
1.82372
1.65267
1.84168
1.40001
1.84089
1.81122
1.035
1.03733
1.40001
1.40001
1.84602
1.40001
1.0256
1.40001
1.39267
1.40001
1.40001
1.84079
1.40001
1.83563
1.04818
1.85314
1.40001
1.046
1.40001
1.40001
1.84347
1.84081
1.40001
1.40004
1.40001
1.8288
1.40001
1.40001
1.04973
1.39936
1.06391
1.40001
1.40001
1.40001
1.84486
1.85182
1.84018
1.40001
1.40001
1.02868
1.40001
1.83962
1.40001
1.40001
1.40001
1.82828
1.83999
1.84186
1.00833
1.84497
1.84186
1.04268
1.84072
1.40005
1.04764
1.41037
1.40001
1.40001
1.842
1.00294
1.67855
1.01589
1.84174
1.39743
1.02204
1.84395
1.40001
1.40001
1.40001
1.40001
1.84088
1.84065
1.04285
1.40001
1.40003
1.02884
1.40004
1.40001
1.04329
1.03787
1.71115
1.83833
1.39848
1.84151
1.40001
1.84708
1.20616
1.02181
1.84217
1.84082
1.40001
1.8401
1.40001
1.40001
1.84213
1.40001
1.74345
1.83998
1.40001
1.40001
1.40001
1.40001
1.84248
1.83761
1.84445
1.40001
1.40001
1.84093
1.83747
1.83764
1.40001
1.84229
1.40001
1.40001
1.40001
1.40001
1.40001
1.03564
1.22649
1.04808
1.40001
1.40001
1.8424
1.40001
1.40001
1.84156
1.01979
1.40001
1.84235
1.83748
1.82284
1.02312
1.40001
1.00262
1.40001
1.40003
1.83972
1.60561
1.84116
1.80339
1.40001
1.04314
1.40001
1.83484
1.71657
1.0335
1.40001
1.40001
1.40001
1.19993
1.40001
1.40001
1.84701
1.40001
1.02461
1.84193
1.40001
1.40001
1.40001
1.40001
1.40001
1.75372
1.50202
1.40001
1.84285
1.40001
1.83787
1.40001
1.39703
1.40001
1.84015
1.84234
1.83919
1.84604
1.39963
1.84183
1.40001
1.84201
1.84195
1.77415
1.40001
1.40001
1.0436
1.83476
1.40001
1.40001
1.84374
1.83952
1.84623
1.40001
1.84218
1.40001
1.40001
1.40003
1.84402
1.83765
1.52834
1.49003
1.84165
1.84193
1.07583
1.40001
1.40001
1.40001
1.40001
1.40003
1.55706
1.40001
1.40001
1.76307
1.06043
1.39998
1.40001
1.8411
1.3999
1.39987
1.47153
1.79578
1.8387
1.30967
1.40001
1.06568
1.40001
1.40044
1.8415
1.84454
1.84317
1.39901
1.40001
1.40001
1.04031
1.40001
1.40001
1.84143
1.44819
1.40001
1.40001
1.40001
1.40001
1.40001
1.40001
1.40001
1.39994
1.84343
1.40002
1.40001
1.40001
1.40001
1.40001
1.68246
1.40001
1.6109
1.40001
1.40001
1.8417
1.84108
1.03153
1.39878
1.40001
1.4
1.40001
1.04206
1.84183
1.84109
1.40001
1.40001
1.40001
1.40001
1.40001
1.40001
1.40001
1.40001
1.83948
1.82903
1.04389
1.45027
1.03806
1.40001
1.04059
1.40001
1.84475
1.52293
1.40001
1.40001
1.10058
1.40001
1.82355
1.20421
1.39682
1.02845
1.40001
1.40001
1.83939
1.40005
1.3972
1.01364
1.83836
1.85269
1.40001
1.40001
1.40001
1.40001
1.81243
1.40001
1.40001
1.84156
1.39892
1.84056
1.40009
1.40001
1.40001
1.03247
1.40001
1.40001
1.84357
1.02775
1.17131
1.02411
1.84157
1.3993
1.40001
1.83509
1.03416
1.03404
1.41043
1.40001
1.40001
1.83827
1.40004
1.59928
1.40001
1.40001
1.83892
1.03948
1.40001
1.40001
1.40014
1.84064
1.40015
1.82573
1.40001
1.40004
1.40001
1.40001
1.09851
1.40001
1.15582
1.40002
1.40001
1.83901
1.03988
1.40001
1.17894
1.18681
1.40001
1.40001
1.84023
1.40001
1.40001
1.40001
1.84254
1.84136
1.40005
1.84159
1.83852
1.17741
1.84197
1.82272
1.40001
1.40001
1.83837
1.4
1.40001
1.40001
1.40001
1.40001
1.83925
1.84289
1.40001
1.40001
1.40001
1.84124
1.40021
1.40001
1.03728
1.09031
1.40001
1.40004