/*--------------------------------*- C++ -*----------------------------------*\
  =========                 |
  \\      /  F ield         | OpenFOAM: The Open Source CFD Toolbox
   \\    /   O peration     | Website:  https://openfoam.org
    \\  /    A nd           | Version:  12
     \\/     M anipulation  |
\*---------------------------------------------------------------------------*/
FoamFile
{
    format      ascii;
    class       volScalarField;
    location    "4.725";
    object      p;
}
// * * * * * * * * * * * * * * * * * * * * * * * * * * * * * * * * * * * * * //

dimensions      [1 -1 -2 0 0 0 0];

internalField   nonuniform List<scalar> 
46253
(
1.00771
1.04748
1.21214
1.04687
1.20782
1.20474
0.818203
0.790899
1.04359
1.04296
0.999501
0.760355
1.02181
1.02227
1.05922
1.0407
1.0399
1.02952
1.03002
1.03593
1.03535
1.19921
0.999996
0.991236
0.835439
1.0455
1.03794
1.03779
1.04531
0.819125
1.00545
1.01362
1.01244
1.0331
1.03229
1.07582
1.0252
1.0245
0.946811
0.999997
0.88038
0.757758
1.01711
1.01647
0.916751
1.02779
1.02737
0.999994
1.00875
1.0086
1.00632
1.0055
1.18927
0.928254
1.22131
0.823935
0.998987
0.998209
1.0976
0.98241
1.07977
0.946396
1.07293
0.999991
1.05918
1.01984
1.01954
1.19478
0.827417
0.796903
0.921533
0.996674
0.996322
0.913685
1.18512
0.988414
0.980466
0.979578
1.02131
1.01009
1.01001
0.990904
1.19035
0.990038
0.854246
1.18182
0.961205
0.960332
0.796963
1.07422
0.999999
0.935643
1.18112
1.00277
0.999993
1.00143
1.18022
1.06842
1.0954
1.07744
1
1.17988
1.18351
1.00362
1.21982
0.809476
0.759858
0.948879
0.947586
0.78017
0.917844
0.994077
0.993206
1.06808
1.02792
0.785664
0.725311
0.946643
1.22281
0.819397
1
1.20203
0.987775
0.986869
1.18498
1.22937
1.07888
0.808539
1.23949
0.97544
0.942307
0.944793
1.20187
0.856177
0.974508
1.03511
0.969832
0.968786
0.813205
1.04449
0.982502
0.940307
0.940646
0.994246
0.983143
1.2319
0.962531
0.962953
0.948534
1.07445
0.774812
1.18811
0.972786
0.97197
0.968667
0.718535
0.805725
1.04468
0.953581
1.21717
0.95318
0.760962
0.82426
1.04906
0.774317
0.965752
0.863406
0.964839
1.3328
1.07558
0.948665
0.94879
1.19627
0.919013
1.21509
1.04481
0.920262
1.17954
0.90252
0.723497
1.216
0.966833
0.94694
0.949864
1.12017
0.957529
0.955704
1.03077
1.11949
1.11908
1.18644
1.11012
0.954932
1.1102
1.12607
1.12605
0.934842
1.18672
0.888378
0.88739
1.06465
1.07683
0.95153
0.950711
1.07847
0.733642
0.96147
0.945785
0.945928
1.07301
1.03076
1.22394
0.857852
1.18277
0.871417
1.17096
0.990501
0.888004
0.943965
1.19666
1.19243
0.94244
1.0488
0.94813
0.946834
0.905038
1.19083
1.18067
0.874425
0.877182
1.05522
1
1.07709
1.07803
1.18934
0.999992
1.12369
1.00106
1.05166
1.07001
1.1892
1.17971
1.11053
1.12397
1.03989
1.18428
1.02974
0.957501
1.10436
0.943657
0.942134
1.06808
0.863669
1.10188
0.858647
0.947216
0.946244
0.841145
0.905566
1.0983
0.91451
0.983353
0.770813
0.997122
0.936998
1.02888
1.06482
1.00204
0.944813
0.936551
0.945128
1.18064
1.07773
1
0.936002
1.19207
1.22781
1.07101
0.90619
0.853311
0.8409
0.839785
1.18419
1.18291
1.003
0.943999
0.996444
0.825756
0.985639
1.07791
1.08969
1.08917
0.963208
1.00006
1.08288
1.0291
1.18002
1.02696
0.864227
0.930801
1.21487
0.929787
0.806245
1.2103
1.11923
0.944555
0.945536
1.07277
0.997265
1.11944
1.11913
0.944674
1.01121
0.924407
1.09452
0.923981
0.810658
1.08053
1.07835
0.913398
0.801928
1.09391
0.785658
0.844875
0.947167
0.982
1.0934
1.13104
0.918592
0.917637
1.09968
1.10367
1.11976
1.02501
1.09277
0.957647
0.840448
0.938964
0.938385
1.04841
1.18944
1.18656
1.01948
1.22585
1.09025
0.912283
0.911652
1.00026
0.822308
1.17971
0.980689
1.07569
0.733931
1.06302
0.76838
1.08768
0.933719
1.07468
0.933354
1.07359
0.770043
1.11782
1.12563
1.11815
1.11897
1.11673
1.10851
1.11167
0.905453
1.0897
1.08687
1.08744
1.08736
0.904597
1.10143
1.07445
0.810355
1.1819
1.08948
1.07419
0.837429
0.944549
0.804095
0.927041
0.889671
0.926218
1.09084
0.999993
0.900439
1.25012
1.12053
0.987374
0.899942
0.983054
1.0896
0.786936
0.954327
0.947768
1.09758
0.893605
0.99999
1.02896
1.02569
1.07273
1.18188
1.1309
1.12531
1.07679
1
1.09223
1.09566
1.11983
1.19438
1.12009
0.889464
1.13031
0.945564
1.11851
1.09176
0.835141
1.13117
0.999998
0.891941
1.09052
0.922019
1.09068
1.07064
0.890802
0.921542
1.1152
0.939642
1.07155
0.999989
1.12714
1.12744
0.866188
0.953058
1.1186
1.1253
0.915366
0.806937
1.13685
1.00002
1.11561
0.870405
0.970871
1.11044
1.09695
0.834225
1.0431
0.853434
0.898186
1.06174
0.944109
1
1.12779
0.88011
1.1275
0.914896
0.88833
1.0957
0.877234
0.876278
0.914176
1.08914
0.867984
1.17966
1.11946
1.13097
1.08798
1.11997
0.952516
1.06821
0.883589
0.80815
0.886559
0.83849
0.95241
0.885966
0.927109
1.01567
1.00246
1.0746
1.19151
1.19073
1.07696
1.24311
1.03513
0.853197
0.893556
0.736635
0.854984
0.88074
0.958965
0.874644
0.999996
1.08819
0.909459
0.891411
0.771808
0.908777
0.874331
0.873461
1.01544
0.900682
1.11783
1.02198
1.00109
1.07751
1
1.09628
0.963281
1.1326
0.908975
0.94896
1.07961
1.11988
0.878282
1.09511
1.04361
0.950665
1.12908
0.894637
1.09953
1.0976
0.894737
1.09286
0.892744
0.894064
0.892265
1.01388
0.924305
0.913674
1.0249
0.889495
0.892764
1.09011
1.0752
0.902233
1.00862
0.964073
0.832079
1.09114
1.10673
0.901406
1.07841
1.0747
1.1074
1.10786
0.738719
1.10717
1.10727
0.865023
0.845396
0.862496
0.946445
1.1068
1.10822
1.10342
1.10498
1.09966
1.13579
1.07765
0.880779
0.738031
1.11614
1.12353
1.07889
1.12944
1.11554
1.12495
0.929282
0.989162
1.05238
0.978807
1.12003
1.10572
0.807018
1.03917
1.11832
1.1165
0.897679
1.11293
1.12309
0.89701
0.974679
1.01048
1.10672
1.01428
1.01519
1.02008
0.858104
1.12155
0.864622
0.865896
0.987519
0.973701
1.11544
1.11101
0.909404
1.09168
1.21514
0.896301
1.13
1.21257
1.13303
1.08949
0.995037
1.0027
1.08828
1.10343
0.896906
0.877366
1.08935
1.09007
0.944117
1.09571
1.09719
1.0892
1.08974
1.08356
1.08597
1.07944
1.07981
1.01707
0.874509
1.07082
0.953558
1.07248
1.06739
1.08976
0.966921
0.982695
1.06851
1.11343
1.05774
1.09057
1.05886
1.06737
0.878639
1.05419
1.08171
1.05548
1.15577
1.13531
1.0449
1.12784
1.04557
1.12823
0.745739
1.08191
0.853343
0.970298
1.11722
1.11782
1.03995
1.04185
1.10827
0.894311
1.0329
1.03215
0.936188
1.15225
1.11733
1.02021
0.84836
1.0208
1.13542
0.887536
1.01509
0.80243
1.01796
0.850887
0.889394
1.1196
1.11739
1.11706
1.00886
1.0075
0.90738
1.09158
1.08696
0.998457
0.862355
1.00148
0.802423
1.10487
0.989984
0.992725
1.11873
1.12139
1.1191
0.938349
1.1218
0.893265
0.9193
1.00702
1.19214
0.980803
1.10427
0.981987
1.10367
1.09282
0.895707
0.89576
0.970351
0.969918
0.86701
0.891963
0.965204
0.8928
0.969199
1.15372
0.952085
0.958839
0.959252
1.12064
0.836672
0.942497
0.942511
1.30302
1.08698
1.08683
1.11986
0.941369
0.87135
0.945546
0.969251
0.917405
0.891306
0.775945
0.933164
0.929128
0.921554
0.922657
0.928101
0.818718
0.825542
1.11022
0.805652
1.22801
0.847357
1.07701
0.785198
0.844268
0.79849
0.942633
0.980919
1.0995
1.1102
1.10135
0.879705
1.10439
1.10873
1.10364
0.999953
1.10935
0.875842
0.999995
1.11086
1.10942
0.83228
0.827601
1.09509
0.951798
1.02286
0.996088
1.01286
1.07437
1.09221
1.13588
0.999996
0.953727
1.10579
0.869059
1.1315
1.00923
0.961717
1.01091
0.807726
1.12032
0.987492
0.879519
1.01805
1.1338
1.06529
1.11113
0.999997
1.10492
1.01249
1.01173
0.952555
0.971414
0.985268
1.08848
0.85438
1.09165
1.08875
1.01282
0.915749
1.13025
0.765556
1.1298
1.13162
0.952616
0.950379
1.09179
1.0139
0.809901
0.876139
1.14277
0.875406
0.836348
1.1423
1.13347
0.869098
0.877547
1.13293
0.835482
1.10749
1.1373
1.05255
1.03083
1.03181
0.873649
1.10716
1.10611
1.09324
0.87257
0.971263
1.11898
0.890122
0.832765
0.801364
1.14798
1.09637
1.0952
1.13985
0.995977
0.99578
1.09795
1.13623
1.07421
0.874852
0.984256
1.0626
1.13691
0.985848
0.872065
0.880588
0.880777
1.07475
0.8656
0.894433
0.790474
0.867946
0.788082
0.956337
1.11914
1.11854
0.959147
1.03078
1.1211
0.877417
0.871265
1.11999
0.828926
0.824824
0.894471
0.824001
0.841544
0.828891
0.817061
0.819728
0.786313
0.78624
1.06171
1.15505
0.959904
1.15599
1.061
0.872282
0.829955
0.825353
1.13554
1.11939
0.897147
1.1524
0.89025
0.896668
1.12861
1.12798
0.932805
1.12806
1.02091
1.1284
1.09
0.87578
0.89124
0.984855
1.08815
1.08755
0.860589
1.08901
0.903661
0.898041
0.861829
1.13489
0.893107
0.87755
0.89862
1.09038
1.09045
1.08996
1.09017
0.885464
0.890576
1.1318
0.932133
1.13149
0.817897
1.13146
0.819194
0.975915
0.799595
1.13568
0.825287
0.820995
0.953145
1.18669
1.09821
0.823142
0.931006
0.924562
0.821711
1.10588
1.10632
0.875282
0.984339
1.13554
1.13573
0.894164
0.720986
0.865071
0.885396
1.08219
1.1088
1.1951
1.11008
1.10559
1.10643
1.25576
1.1074
1.00885
0.821934
0.806962
0.978085
1.12777
1.07443
1.03301
0.826303
0.943036
0.97899
1.11019
1.04833
1.05756
1.06182
1.04427
1.05112
1.03781
0.921354
1.0572
1.06999
1.04428
0.880333
1.06463
1.01874
1.03394
1.06965
1.10021
1.07537
1.03605
1.07762
1.11768
1.02388
1.0943
1.08034
1.08137
1.02727
1.08799
1.09044
1.02061
1.08899
1.11843
1.09138
1.02016
1.13635
1.00879
1.09377
1.04029
1.0867
0.931741
1.01081
1.11825
1.12562
1.12041
1.00587
1.02066
1.12156
1.12094
1.12658
1.00727
0.97735
0.989769
0.995536
1.09765
0.900853
0.99557
0.983945
0.982793
0.822628
0.972825
0.976356
0.972205
1.09112
0.981574
0.970866
1.09307
0.959379
0.906181
1.0932
1.08989
0.955388
0.854148
0.951279
0.946418
0.952857
0.94819
0.85134
0.944836
1.10783
0.930602
1.09092
0.909935
0.848866
0.934022
0.940466
0.932911
0.869879
0.933359
0.907652
0.905182
0.957088
0.933662
0.918491
0.918758
1.00038
0.984124
1.1052
1.09101
0.9935
1.08875
1.02735
0.978141
1.09932
1.04679
1.22768
0.953794
1.05393
0.925248
0.854738
0.986749
0.989609
1.09041
0.955266
1.01235
1.01944
0.900606
0.854298
1.00543
1.01628
1.00738
1.00985
0.931277
0.816239
0.895016
0.869204
1.09098
0.894808
0.82437
0.795946
0.931876
1.07182
1.04685
1.01169
0.760359
0.999999
1.05531
0.900029
0.913032
1.05475
0.999991
1.09299
1.09574
0.866161
0.935263
1.00041
1.00473
0.93734
0.951996
1.00331
0.851492
0.91768
0.851719
0.907134
0.866147
0.76041
0.821451
1.02718
0.901238
1.01898
0.919152
1.09554
1.01871
1.06911
0.867826
0.918306
1.16955
1.09572
1.06403
0.888975
1.13411
1.09002
1.06003
1.12864
0.925717
0.78772
1.16426
0.821969
1.0574
0.883576
0.882772
1.0817
1.16222
1.13188
0.789395
1.08812
0.803412
0.893575
0.894521
1.22577
1.01797
0.893085
1.13201
0.917553
1.05322
0.9331
1.04354
0.920223
0.838397
1.07532
1.07617
0.894058
0.856798
0.908071
0.877751
0.883768
0.884727
1.07532
1.0429
0.907918
0.874874
0.867241
0.783572
0.934212
1.12984
0.886209
0.95059
0.891538
0.787002
0.89273
1.01265
1.45317
1.09828
1.09922
0.829727
0.895296
1.08183
0.871814
0.898022
0.921699
0.938819
0.820383
0.871575
1.0423
0.956902
1.04407
1.07964
1.08224
0.88111
1.05466
1.09294
1.10097
1.12431
0.877481
1.09534
0.873466
0.72321
0.957542
0.879888
1.10206
1.12665
0.87888
1.00374
1.10825
0.877176
1.09864
1.10908
1.07408
0.939847
1.10189
0.875467
0.890744
1.04143
1.11587
0.896495
1.08838
1.065
0.885498
0.999993
1.03208
1.09178
1.07796
1.14009
0.893038
1.10448
1.14255
1.15113
0.829789
1.08075
1.14982
1.05109
0.975683
1.0066
1.15524
0.820259
1.0675
1.04471
0.933828
1.0755
0.838141
0.798636
1.09261
1.06156
1.06945
0.979917
1.04569
1.12522
0.948681
0.838367
0.957018
1.00447
1.0651
1.05431
1.06593
1.12057
1.08219
1.04881
1.0605
1.10579
0.859354
0.959134
1.06166
0.867695
1.05544
0.889672
0.873462
1.05528
0.955719
1.15525
0.894195
1.06396
1.05665
1.1078
1.11662
1.12403
0.947432
1.04527
1.05117
1.05243
1.1179
1.11614
1.17991
0.960329
0.9755
1.05996
0.928616
1.11712
1.04627
1.0574
0.898178
0.845414
1.03527
1.04072
1.00571
0.977968
1.04234
1.08904
1.11961
0.937609
1.03561
1.01688
1.0359
1.07138
0.814899
0.988035
1.12125
1.02639
1.05325
1.07274
1.02742
1.11352
1.08514
1.08069
0.892112
1.07065
1.09038
1.12281
1.02172
1.02318
0.826365
1.01573
1.13615
1.01666
1.0089
1.09381
1.01209
1.13619
0.900636
0.893748
0.830585
1.04811
0.817219
0.930636
1.1355
1.0131
0.925244
0.925794
1.01051
1.01237
0.788218
1.01295
1.01067
0.930493
1.00606
1.00622
1.0312
1.02958
1.0132
0.972769
0.977416
1.01195
1.00919
1.01355
1.01212
1.02946
1.01414
1.07089
0.914348
1.01376
1.01162
0.972225
0.819595
0.892424
1.01298
0.998356
0.832024
1.00579
1.00978
1.00638
0.848527
1.08898
1.06922
0.807312
0.830813
0.881883
1.00015
1.01407
1.01986
1.135
0.970099
1.06
1.13569
1.07542
1.07021
1.0909
1.08704
0.92747
0.99409
1.11707
0.989359
0.984874
0.991593
1.08852
0.813594
0.975097
1.01001
1.00924
0.983516
0.98558
0.980352
1.04233
1.04951
0.751191
1.06404
0.977517
1.02983
0.978999
0.967919
1.08702
0.986638
1.10522
0.926974
1.09271
1.03712
0.881808
0.969651
1.02127
1.02228
1.02301
0.893698
0.949476
1.01033
0.811369
0.826921
1.04514
1.10207
0.958973
0.960457
1.10268
1.09509
1.09078
1.08445
1.09143
1.08524
1.12101
0.842287
1.08662
1.03611
1.07328
0.806139
1.05653
1.13164
0.812512
0.950991
0.791996
1.08933
1.07123
1.03599
0.74266
1.11545
0.897434
0.952218
1.19568
1.18758
1.08079
1.04526
0.829872
0.834671
0.961672
1.13293
1.12058
1.07116
0.922455
0.891631
1.03907
1.06105
1.19211
1.13265
1.1289
0.977767
1.08518
0.943285
0.944809
0.972594
1.12168
0.929404
0.93697
1.08781
0.952389
0.937734
0.972886
1.07832
1.0694
1.07822
1.12972
1.07068
0.985954
0.93246
0.993511
1.06715
1.06438
1.09127
1.09655
1.03534
1.12161
1.12252
0.998209
0.836787
1.03336
0.828147
1.0848
1.02986
1.03456
1.1085
0.913931
1.08241
1.10935
0.921632
0.959683
0.923921
1.13066
1.11133
0.828529
1.05285
0.99756
0.811832
0.731442
0.925383
0.934227
0.893013
0.997202
0.892543
0.896338
0.906454
1.12932
0.912941
1.05765
0.953552
0.930318
1.02816
0.918744
0.853889
1.13382
1.13136
0.912
0.918218
0.859834
1.13008
0.903051
0.974432
0.899665
0.904786
0.90242
0.896247
0.9001
1.01194
0.945554
1.01317
1.08124
1.05565
0.902989
1.00462
0.872297
1.11474
0.853987
1.00604
1.118
0.861394
0.935564
0.787352
1.09552
0.823615
0.880411
0.909016
1.09564
0.958877
0.8883
0.898542
1.07621
0.906276
0.884509
1.04319
1.0583
1.13427
0.895126
1.11398
0.979333
0.846935
0.913091
0.779272
0.973743
1.11457
0.963446
0.990693
0.887777
1.07726
1.11073
0.974272
0.966784
0.996456
0.980589
1.11138
0.839595
0.937227
0.986376
0.996753
0.983051
0.861547
0.877959
1.05561
0.878147
1.13132
0.873468
1.08019
0.862722
0.808933
1.0631
0.915673
1.08798
1.02137
0.975032
0.921525
1.13423
1.11725
0.975903
1.02821
1.22937
0.899198
1.11738
0.855086
1.09164
0.861837
1.08023
0.965687
0.863924
1.12393
1.02445
0.966491
0.982213
1.13007
0.95621
0.853705
0.857102
1.06572
1.05047
0.957393
1.03122
1.07264
1.00419
0.877873
1.02963
1.02905
0.997594
0.900485
0.873761
1.08754
1.00061
1.1241
1.07764
1
1.04322
1.12071
0.997337
1.02698
0.848974
0.769993
0.757542
0.981121
0.849716
0.856857
0.849317
0.979615
1.06318
0.945567
0.837648
0.894057
1.02766
0.917267
0.97791
0.989977
0.96229
1.00362
1.11504
0.977017
1.12629
0.836939
1.0613
1.12395
0.814712
1.11995
0.854819
0.858375
0.951236
0.822135
1.12203
1.12236
0.96781
0.973763
0.761696
0.883448
1.12347
1.13084
0.885861
0.94457
0.815641
1.1302
1.07372
0.957688
0.843272
0.853416
1.08234
0.877994
0.99365
0.961106
0.826
1.14076
0.995319
0.812256
0.995884
0.99609
0.980986
1.00426
1.17761
0.925678
0.872679
0.932308
0.881807
0.932015
0.926922
0.93529
0.962723
0.905412
1.1294
0.982735
1.11465
1.07302
0.878115
0.868241
0.887213
0.870159
1.08199
0.915063
1.11256
1.11689
0.884549
0.914817
0.961058
0.932356
0.946267
0.963832
0.972688
0.968598
0.914518
0.949139
1.0213
0.98568
1.12449
0.804272
1.12831
0.930937
0.93028
0.950787
1.12415
0.877973
0.875273
1
1.08952
0.879922
0.913926
1.09152
1.08248
1.10241
0.909573
1.08344
0.893692
0.953879
0.956281
0.827896
0.992215
0.899703
1.02606
1.11853
0.959362
0.838424
1.14015
0.783615
1.07262
1.0264
0.873162
0.875407
1.14267
1.1203
0.956343
0.929895
0.895392
0.984138
0.982424
1.12251
0.827179
1.02937
1.10087
0.871416
1.2958
1.28895
0.98802
0.888267
0.939592
0.873636
1.10838
1.07646
0.971607
0.84001
1.01342
0.849798
1.05983
0.899608
1.02483
1.0581
1.04373
0.827544
0.932456
0.964464
0.8457
1.03709
1.04787
1.11873
0.847157
0.805137
0.993328
0.864316
0.916506
0.808397
1.05337
1.0129
1.03856
0.860299
1.07775
1.01823
1.03136
0.887592
1.0496
0.89414
1.04456
1.08094
1.10837
1.05413
1.06279
1.09608
1.02558
1.01459
1.05944
1.01965
1.01206
1.08432
1.01785
1.09182
1.08615
0.928788
0.904379
1.00273
1.06704
1.06391
1.01542
0.796645
0.858745
0.949599
1.01349
1.0142
0.924659
1.04698
1.02712
1.1298
1.06812
1.13149
1.09114
0.910514
0.860927
1.00656
0.965826
0.913769
0.860778
0.856724
1.01336
0.864222
0.9154
0.986302
0.940849
1.00458
0.874647
1.00769
0.875909
1.09651
1.10019
0.858307
1.00284
1.13107
1.10343
0.946634
0.847856
0.870043
0.924313
0.924797
0.993897
1.09734
0.826107
1.13124
0.941975
1.09232
1.04867
0.906154
0.826737
0.863987
0.879438
0.987266
0.893119
0.995202
0.853491
1.13123
0.90794
0.893684
0.831199
0.971675
1.08087
0.943697
1.13016
1.08038
1.02302
0.981309
0.918313
0.953232
1.12488
0.909791
0.799505
1.03766
1.08393
0.912422
0.990411
1.10627
0.983192
0.898504
0.78672
0.973214
1.03666
0.914347
0.960205
0.962604
0.954503
0.899599
1.04294
0.953892
0.875949
0.963964
0.951551
1.04342
0.92739
0.961088
0.88957
0.915125
0.954545
0.890341
1.02526
1.03781
0.945186
1.03736
1.05643
1.05033
1.12728
1.03877
1.1204
1.06076
1.03919
1.06488
1.13175
1.03226
0.934737
0.950307
0.914871
1.06339
1.03355
1.02244
1.03458
1.0276
1.10582
0.965568
0.990671
0.951871
0.911913
1.13205
0.93971
0.991998
1.01591
0.827584
1.08327
0.95609
0.959985
0.913973
1.02725
0.946293
0.931588
0.964409
1.0861
0.941246
0.935864
1.02807
0.91743
0.930236
0.928677
0.980933
0.947647
0.985781
0.943315
0.935558
0.914455
1.02101
0.925577
0.934727
0.976062
1.20426
0.97509
1.10446
1.13129
1.0227
0.911679
0.973108
0.924843
0.982741
0.917705
0.988085
1.01651
1.10096
1.12596
1.02093
0.901817
0.854282
1.01771
0.978964
1.09899
0.994475
0.976835
0.865993
0.906881
1.11257
0.978195
0.861232
0.980885
0.91172
0.899193
0.916128
1.0094
1.00892
0.981229
0.962366
1.01064
0.89143
1.02341
1.08569
1.09694
0.921248
1.13148
1.13129
0.912871
0.817281
0.991103
0.885278
1.04449
1.09277
1.09137
1.07541
0.947451
1.09117
0.848937
1.03374
0.866518
0.888087
1.11584
0.761788
0.891297
0.81927
0.99981
0.797466
0.870648
1.01363
0.800381
0.868265
1.00185
0.999055
1.09307
0.990219
0.875923
1.11563
1.12974
0.968001
1.10768
0.98009
0.999999
0.995828
0.870891
0.874301
0.977934
0.962877
0.992052
0.756173
1.08863
1.04468
0.955973
1.06841
0.893226
0.994648
1.03952
0.948646
0.856083
1.1031
0.987374
0.866299
0.925638
0.948532
1.01034
1.02216
0.954434
0.987304
0.937891
0.99466
1.00771
0.865407
0.988035
0.884462
0.856911
0.912465
1.08868
0.987947
0.914407
1.06205
0.875079
0.943103
0.929162
0.946169
1.02259
0.806217
0.976559
0.961668
0.756456
0.999999
1.01265
0.982296
0.882904
0.995789
0.889115
0.980319
1.13278
0.861644
0.837358
1.07633
1.12986
1.06259
1.07532
0.982231
1.05271
0.860949
1.04237
0.871179
1.12453
0.861616
1.05462
1.00258
0.913163
0.839862
0.97159
0.972525
0.995732
0.870563
1.08164
1.05939
0.904105
1.02972
1.06299
1.07051
0.944072
1.01241
0.858029
0.979373
0.859582
0.992973
1.11629
0.941849
0.995739
0.938502
1.01563
1.02754
0.860845
1.05599
0.815356
0.850775
1.11929
0.97985
0.898068
1.02031
0.956567
1.02416
0.821835
0.848191
0.977979
1.06731
1.00431
1.03417
1.02909
1.13018
0.937126
0.992858
1.03069
0.970408
1.12932
1.10105
0.946347
0.818163
0.858149
0.762367
0.967535
1.05244
0.975202
1.06398
1.04629
0.778707
0.805194
1.04225
1.04471
0.904497
0.753929
0.9767
1.03799
0.905304
0.949287
1.02743
0.991382
1.07298
0.856605
1.11574
0.968662
1.13203
0.908959
0.926783
0.851507
0.817438
1.08128
1.05016
1.12439
0.851717
0.853465
1.02033
0.853597
0.825419
0.928876
0.747481
1.04806
1.10089
1.04071
0.846646
1.03782
0.954444
0.940706
0.944785
0.928792
1.04688
1.06435
0.954395
1.0329
0.817726
0.820791
0.930671
0.821378
0.959578
1.07766
0.854321
1.08262
0.863682
0.965363
1.12916
1.12929
0.858112
1.0396
1.09201
0.920085
1.02334
1.12455
0.867639
1.09837
0.765451
1.03548
1.01781
0.834205
0.953945
0.755288
0.84517
0.956065
0.847015
0.91775
0.914118
1.08908
0.866147
1.17958
0.944181
1.02674
1.0423
0.931424
1.03805
1.04975
0.944078
1.04991
1.08809
1.04216
0.731258
0.937796
1.00866
1.05282
0.893561
0.919375
0.941663
0.932985
0.940392
1.00904
1.01906
1.12981
0.835628
1.12485
0.942886
0.742706
1.10188
0.933042
0.896804
0.963157
1.00022
0.944323
0.932725
0.957154
0.882224
1.12701
0.84579
0.8472
0.998649
1.06168
1.12471
0.92713
0.965773
0.95679
1.05897
1.1334
0.998424
0.929304
0.915507
0.832245
1.06497
1.13336
1.07131
1.06326
0.916919
1.07143
1.11345
1.0676
0.918406
1.13791
0.830278
0.957189
0.982112
0.921059
0.926033
0.968388
0.985212
1.07316
0.920543
1.05578
0.938274
1.13716
1.10568
1.12854
0.831449
0.908314
1.13028
0.801418
0.847198
1.07479
0.981652
0.913911
1.01842
0.868007
0.907559
0.984746
0.819522
0.922839
0.990789
0.846572
0.896963
1.08442
0.971812
0.908759
0.910191
0.976706
1.00651
1.00326
1.07753
0.826176
1.08642
1.08269
1.12153
0.861313
1.0271
0.917618
1.11655
1.08525
0.826869
1.09917
1.08
0.940266
0.917601
0.960612
1.11951
0.921592
0.917515
0.817374
0.980313
0.843904
0.972781
0.902747
1.00567
0.91874
1.07909
1.13525
0.877539
0.89484
0.850413
0.981676
0.901678
1.13163
0.931118
1.00845
0.911615
1.09035
0.851698
0.9367
1.09326
0.913664
1.07465
0.948467
0.857404
0.966609
1.25454
0.944687
1.1219
0.906073
0.961706
0.943208
1.04288
1.12864
1.07828
0.967812
0.855104
0.910982
0.99388
0.931373
0.854829
0.925631
0.976955
0.95149
1.10663
1.11394
1.13128
0.73466
0.852226
0.89338
0.888235
0.833781
1.07136
1.12954
1.09527
0.967341
1.12908
1.07055
0.867688
0.834033
0.775296
1.0979
0.866394
0.856913
0.873787
0.874301
1.00471
0.766245
1.12408
0.860797
0.878944
0.873607
0.770168
0.925369
0.872058
0.911447
1.12945
0.907545
1.11093
1.06518
1.12663
0.80543
0.911447
0.953492
0.896548
1.12578
0.803959
1.01375
1.12964
0.893939
1.13023
1.06509
1.10648
0.883057
1.1835
0.955158
0.866074
0.881714
1.06108
1.12233
1.09117
1.127
0.892242
1.05862
1.05003
0.877295
1.09965
0.873259
0.860855
1.09929
0.890346
1.08205
1.04453
1.12763
0.896431
0.854887
0.872387
1.04048
0.985063
0.894178
0.940525
1.13301
1.12827
0.984383
1.04799
1.03496
0.837146
0.905486
1.04587
1.1291
1.1304
1.12928
1.12969
0.862775
1.13002
0.889418
0.904528
1.02926
1.02988
0.908025
1.04175
0.866947
0.697608
1.07163
0.827277
0.993907
1.13292
1.05451
1.02814
1.04078
1.12947
1.0246
1.03599
0.981069
1.02595
0.887739
0.915954
1.04256
1.04351
1.13007
1.03062
0.822083
1.02442
1.01858
1.02478
0.912793
1.12971
0.906436
1.131
0.930599
1.01265
0.903132
1.12989
0.812377
1.02595
1.13244
1.00208
0.720072
1.02045
1.09715
1.13925
0.934047
1.12906
0.942948
0.830852
0.922833
0.733015
1.01944
0.976322
1.13942
0.89618
0.854102
1.06002
0.906946
1.00497
0.88141
0.921103
0.907437
0.914852
1.00655
1.0148
0.916177
0.902646
1.13144
1.12916
0.818383
0.927385
0.941652
1.02723
0.933735
0.996949
1.00722
1.0458
0.933353
1.12588
0.843869
0.941126
0.988734
0.995968
0.921006
0.853748
0.820259
1.04129
0.99824
0.94408
0.93731
0.921082
1.10125
1.19989
0.803079
0.839302
0.984188
0.846498
0.804863
1.13008
0.904191
1.09786
1.13002
1.00199
0.956883
0.989936
0.833731
1.10987
1.13736
0.844492
0.983992
1.14355
0.978672
1.09905
0.948064
0.901348
1.13011
1.13278
1.09781
0.952976
1.07708
0.904045
0.892957
1.13117
0.985822
0.871606
0.945803
1.13004
0.725557
1.12727
1.01708
0.927899
1.23373
0.956483
0.920226
1.01067
0.958696
0.874225
0.828031
1.05819
0.977697
0.979693
0.934936
0.955853
0.957556
0.985438
0.891257
1.00776
0.827054
1.14374
1.02915
1.10806
1.12282
0.826715
0.968203
0.961411
1.01592
0.893333
0.819515
1.17021
0.956234
0.993806
0.879552
0.914581
0.864701
0.980797
0.936258
0.816138
1.12894
0.847906
0.958563
1.10059
1.1292
1.12923
0.9658
0.815724
0.978886
0.84826
0.915956
1.1948
0.971447
0.976556
0.940059
0.971113
0.846575
1.13214
1.12448
0.984525
0.970648
0.967822
0.852956
0.938036
1.0992
1.12894
0.863044
0.969701
0.939161
0.976567
0.95649
0.885732
0.882642
0.889726
1.17366
0.968533
0.881956
0.948102
1.07923
0.932779
0.980139
0.950978
1.13154
0.981015
1.13005
1.05929
0.948361
0.862334
1.07106
0.946117
1.13446
0.877322
0.930976
0.949403
1.04923
1.12894
0.931028
0.915524
1.05952
0.976432
0.977512
1.13164
0.954263
0.978223
0.943915
0.922676
0.943458
1.13257
1.08357
0.94756
1.15568
1.09899
1.04002
0.825007
0.930347
1.06356
0.873346
0.949466
0.933641
0.852313
1.05179
1.07383
0.903075
0.984366
1.02495
1.07397
1.00543
0.957146
0.944879
0.930996
1.03459
0.905749
1.09599
0.987295
1.08552
0.957161
0.958594
0.99255
1.13188
0.982595
0.935157
0.954748
0.921394
1.0885
0.984251
0.792111
1.10852
1.15845
0.932303
0.918797
0.962985
1.12965
1.0969
0.893252
1.12955
0.924301
0.995068
0.912817
1.12883
1.13158
0.961007
0.915963
1.12965
0.995094
1.12947
0.916388
0.990879
0.812938
1.12951
0.91787
1.1314
0.905426
1.00426
1.11814
0.958167
1.00117
0.909745
0.911615
1.08329
1.07509
1.07376
0.973484
0.997549
0.888129
0.911439
0.964519
0.890572
1.00182
1.00337
0.832614
1.03273
1.11878
1.12992
0.96644
1.01883
0.834194
1.13069
0.97185
1.03601
1.08027
0.907572
0.829641
0.989083
0.829802
1.00492
1.13095
0.891498
0.999419
0.994104
0.881298
0.896047
0.974909
0.98599
0.934873
0.911786
0.979815
1.11318
1.15743
1.00548
0.84476
0.883131
1.08014
0.977093
0.910947
0.88775
0.870491
1.09383
0.90152
1.00649
0.934992
0.97793
1.02419
1.09583
0.976658
0.856397
0.97841
1.01423
0.873185
1.07133
1.13045
1.00572
0.884948
0.932914
1.1315
1.09825
1.12589
1.1295
0.976209
1.01107
1.00491
0.860184
1.06491
0.980433
1.10156
0.865897
0.979281
1.01388
0.866754
1.08347
0.885653
0.974693
0.91174
0.952974
1.05742
1.05569
0.989626
1.12904
1.01669
0.947246
0.961102
1.06822
1.17553
0.844935
0.985118
0.857574
1.04373
0.987809
1.01167
1.01598
1.10911
0.978035
0.944235
1.17637
0.99486
0.844755
0.838516
0.838832
0.97586
1.12899
0.933371
1.07722
1.01807
0.916855
1.04915
1.06893
1.02755
0.975908
0.979384
0.941492
0.757601
1.05045
1.13196
0.926049
0.832482
0.999
0.86939
1.09137
1.01172
1.01788
0.955058
1.0273
1.12936
0.997787
1.10735
1.02712
1.12796
1.12812
0.971611
1.11152
1.02589
0.919415
1.12929
1.12588
1.00777
1.03292
0.926591
1.09915
0.91739
1.09067
1.00797
1.03576
1.10919
1.0233
1.10694
1.10053
0.941078
1.00595
0.942517
1.00428
1.13002
0.912933
0.943403
1.20399
1.0571
0.920622
1.12968
0.924299
1.01595
1.03537
0.934964
1.12886
1.1328
0.865828
0.98736
1.13248
1.10855
0.996458
1.01215
0.984477
1.02963
0.755726
1.03462
0.915333
0.938774
0.861293
0.799493
0.79765
1.0435
1.00975
0.859197
0.926822
0.875212
1.11648
1.07068
1.02909
0.934064
1.0878
1.10864
0.832773
1.13533
1.03415
0.952642
0.942476
1.08307
1.01943
1.03525
0.966525
0.929217
1.03781
1.09723
1.03817
0.952817
1.1214
0.746426
1.01864
0.966673
0.977344
0.92445
0.962346
0.891617
0.759708
0.770531
1.04662
0.757175
1.03633
1.04756
1.07698
0.921564
1.12904
1.00462
0.805758
1.09294
1.08197
1.12955
0.994095
1.12149
0.874401
0.981295
1.02611
0.997462
0.752715
1.07536
0.941989
0.808574
1.06843
1.00617
0.931782
1.03377
1.07467
1.07198
1.07727
0.891726
0.973374
1.02331
1.00297
0.993399
0.89428
1.03435
0.846706
1.08478
0.958097
1.09365
0.930178
0.946502
0.897604
1.07307
1.13226
0.742193
1.12976
0.943233
0.848416
0.97251
0.86571
0.852593
0.896825
1.13035
1.07095
0.9415
1.1294
1.07684
0.968879
1.03176
0.850899
1.06953
0.92564
0.941286
0.968274
1.15155
0.922407
0.975414
0.9608
1.13137
0.756263
1.0308
0.938453
0.852271
0.982013
0.837915
0.938426
0.851719
1.12948
1.02306
0.984059
0.950093
1.04266
0.965096
0.922963
0.819598
0.842033
1.06618
1.12315
0.946235
0.953789
1.04147
0.923412
1.13095
1.12918
0.944095
1.06584
1.12922
0.966276
1.01438
0.812634
0.928677
0.951069
0.964304
0.949895
1.03813
1.12961
1.13012
1.03247
0.837375
0.855527
0.842244
0.976283
1.12961
0.976099
0.774253
0.836616
0.928051
0.851463
0.787767
1.12915
1.01099
0.969214
0.968133
1.03594
0.849958
1.12921
1.12912
1.12255
0.965173
1.05336
0.963704
0.988022
0.966878
0.848013
1.24242
1.12915
0.862019
0.852169
1.05138
1.12906
0.835975
0.860233
0.992071
1.08128
0.847725
0.993444
0.988676
0.902865
0.813986
0.973574
1.04001
1.12923
1.01131
0.971424
1.04451
0.912841
0.841842
0.994304
0.727979
0.857769
0.964534
0.932957
1.00516
0.878604
1.05094
0.991809
1.10064
1.01349
1.10554
1.04548
0.991456
0.741592
1.0493
0.84549
1.04389
1.02787
1.13038
1.037
0.920209
1.08058
0.894834
1.00384
0.876559
1.02319
0.979995
1.07163
0.992054
1.0432
0.966142
0.975518
0.789614
0.922345
1.13282
0.977931
0.890987
0.898979
0.941165
0.944817
1.07228
0.724494
0.993004
0.825707
1.04419
0.963927
0.913316
1.13262
0.947359
0.998594
0.98399
0.980651
0.925716
0.859083
0.924328
1.02498
0.980653
1.04514
0.876898
0.904977
0.930361
0.902524
0.820871
1.13277
0.916652
0.915345
1.06466
0.957842
1.1318
0.849863
0.825404
1.05786
0.981526
0.987014
1.09099
0.918023
1.08499
0.891358
0.967589
0.904551
1.00684
1.05619
0.720789
1.12139
0.918858
1.16443
0.936041
1.06631
0.963196
1.04946
0.979737
0.990321
0.839694
0.917078
0.890275
0.838855
1.001
1.09811
0.903129
1.05063
0.834147
0.994159
0.98537
0.9351
1.07577
0.790272
1.05333
0.923689
1.06095
0.991294
1.05469
0.91737
0.965515
0.904697
1.04871
0.927173
1.13199
0.907052
1.13484
1.05221
0.981745
0.831604
1.22654
0.992529
0.991477
1.05249
1.06178
1.03721
1.16011
1.03949
0.958024
0.805463
0.924496
1.00716
0.969249
1.08131
1.06431
1.11957
0.913887
0.919967
1.03303
0.98585
1.04533
0.897155
0.83351
1.04074
0.982116
1.05404
0.928613
0.828474
1.05635
1.06307
1.00554
0.803622
0.722316
0.972568
0.945946
1.05297
1.05328
0.895388
1.11429
1.03381
0.95436
1.02047
0.940962
0.927798
0.764563
1.10075
0.960744
1.04344
1.08127
0.772701
0.81973
1.07939
0.947075
1.15114
0.943968
1.05336
0.974832
0.913272
1.11236
1.02917
1.00965
1.01777
0.952792
0.912876
1.01979
0.965197
1.0622
0.895372
0.969638
0.96231
0.959555
0.975965
0.957524
0.981904
1.08151
0.932265
0.947341
0.937998
1.06117
0.930964
0.972945
0.949895
1.0606
0.865491
0.997304
0.769671
0.97713
0.954277
1.05976
0.979218
0.989109
1.09842
1.00492
0.867522
0.916901
0.870655
0.965782
1.04446
0.849995
0.993584
0.990542
0.963928
0.91761
1.00587
1.0097
0.973827
0.970324
1.13111
1.10204
1.00023
1.07276
0.877307
0.912383
0.991396
1.01704
1.13325
1.04576
1.11198
1.04109
0.969061
1.06444
0.958691
0.973188
0.942277