/*--------------------------------*- C++ -*----------------------------------*\
  =========                 |
  \\      /  F ield         | OpenFOAM: The Open Source CFD Toolbox
   \\    /   O peration     | Website:  https://openfoam.org
    \\  /    A nd           | Version:  12
     \\/     M anipulation  |
\*---------------------------------------------------------------------------*/
FoamFile
{
    format      ascii;
    class       surfaceScalarField;
    location    "1.07";
    object      phi;
}
// * * * * * * * * * * * * * * * * * * * * * * * * * * * * * * * * * * * * * //

dimensions      [1 0 -1 0 0 0 0];

internalField   nonuniform List<scalar> 
33852
(
0.000251329
2.24281e-05
-0.000273757
-0.000246121
1.32441e-05
0.000232877
-0.00017394
-7.24146e-05
0.000247225
0.000304053
-0.000163969
-0.000140085
0.000288985
-4.22796e-05
-0.000248881
2.72441e-05
-0.000260681
0.000233437
0.000314919
1.47253e-05
-0.000329613
0.000304277
-9.59564e-05
-0.000208321
0.000286413
-3.50841e-05
0.000200806
1.72093e-06
-0.000197918
0.000289478
-0.000366482
7.70121e-05
0.000360669
-4.56879e-05
-4.39602e-05
0.000263285
-0.000219325
-4.15428e-05
0.000314181
-0.000272745
6.11136e-05
-0.000234989
0.000252057
1.2236e-05
-0.000264293
0.000264853
-1.2796e-05
-0.000278433
3.23121e-05
0.000340775
-5.11837e-05
0.000158593
0.000112308
-0.000270901
-2.17782e-05
0.000298601
-0.000277066
0.000271377
-0.000276165
4.78802e-06
-1.76671e-05
0.000274209
-0.000254977
-0.000224563
1.45435e-05
0.000207752
-0.000155182
-0.000180537
0.000335324
-0.000150136
-7.28933e-05
0.000220028
3.72401e-05
0.000267037
-6.15976e-05
-0.000264069
0.000326757
-0.000197467
1.20611e-06
0.000197459
-0.000206474
-1.91047e-05
0.000142045
0.000137388
-0.000279433
0.000341422
1.93431e-05
0.000142618
0.000128347
-0.000270965
-0.000101136
0.000259729
-0.000250489
-3.78001e-06
0.000254269
0.000328429
-5.88776e-05
-0.000269682
-0.000355777
0.000201131
-0.000225367
0.000209139
0.000231645
3.32081e-05
-5.65602e-06
0.000237301
-7.76155e-06
0.000210199
-0.000232625
0.000259869
0.000314171
-5.6997e-05
-0.000256748
-0.000309093
5.51042e-05
0.000253989
0.000241756
-0.000301611
0.000273589
-0.000306321
3.27321e-05
-0.000180237
-5.49362e-05
0.000235173
0.000272133
-0.000272133
0.000148429
-0.000297473
0.000149045
-0.00021397
0.000215198
-7.50375e-06
-0.000268241
0.000237301
3.09401e-05
-0.000200463
0.000243558
-4.73614e-05
-9.16164e-05
-0.000217477
-0.000114452
-0.000252021
-0.000280169
0.000266113
1.40561e-05
0.000329637
1.18778e-05
-0.000250433
7.01963e-05
0.000117908
0.000145909
-0.000263817
1.34681e-05
-0.000267457
0.000253989
-0.000134569
0.000282997
-0.000150592
-5.11885e-05
0.000200649
-0.000274681
0.000245113
2.95681e-05
0.000237553
-0.000268437
3.08841e-05
-0.000178001
-2.23552e-05
0.000151665
0.000115565
-0.00026723
-0.000193196
-2.86157e-05
0.000218948
0.000263985
2.24281e-05
0.000275941
-2.35201e-06
0.000265329
-0.000250741
-1.45881e-05
0.000227683
-6.40658e-05
-0.000161393
-1.82001e-06
0.000239373
0.000368546
-0.000314041
-5.40259e-05
-2.86307e-05
0.000302864
-0.00027365
-0.000101584
0.000219493
0.000343581
2.43861e-05
-0.000373242
0.000353487
1.84317e-05
-0.000215614
2.23707e-05
0.000310091
-0.000322191
1.23062e-05
-0.000209821
0.000271167
-6.48872e-05
-4.45202e-06
1.70064e-05
-0.000318738
0.000301776
0.000235543
-0.000199658
-3.55669e-05
0.000268284
-0.000338149
6.96487e-05
0.00033239
-6.30301e-05
-0.000268941
0.000236573
3.23681e-05
-0.000129388
-0.000132609
0.000261997
-1.86761e-05
-0.000249565
-1.022e-05
-0.000258721
2.25079e-05
0.000210834
-0.000233583
3.1233e-05
-0.000220331
0.000191675
-2.48108e-05
0.000325732
-0.000301358
-0.000279329
0.000273701
5.62802e-06
0.000156129
-0.000296857
0.000140729
-5.85601e-05
-0.000149437
0.000207381
0.000143277
0.0001218
-0.000265077
-0.000246831
0.000224829
-0.000210803
0.000151626
-0.000168813
0.000327181
-0.000158369
0.000185389
7.16523e-05
-0.000257041
0.000255193
2.07481e-05
-0.000192277
0.000148317
5.041e-05
0.000264563
0.000306845
-0.000289709
9.59107e-05
-0.000245469
0.000135241
0.000117096
-0.000281065
-1.99535e-06
0.000243654
-0.000242537
0.000166489
0.000122836
-0.000289325
0.000144198
8.99352e-05
-3.92002e-06
0.000259113
0.000304513
5.48139e-06
-0.000324428
0.000315383
8.85588e-06
-3.99002e-05
0.000236293
-0.000196393
4.08802e-06
-0.000284257
-2.41908e-05
0.000165085
-0.000148345
-0.000164103
0.000131834
0.000208986
-0.000175511
-0.000269921
0.000264965
4.95602e-06
2.64041e-05
0.000174721
-0.000201125
2.87841e-05
-0.000257265
0.000228481
0.000276137
-0.000262669
0.000115108
0.000212073
0.000213245
-0.000191729
-0.000175813
0.000202217
1.35658e-05
0.000281631
-0.000295203
0.000266878
2.09646e-05
0.000272211
-0.000285773
1.24457e-05
3.86402e-06
0.000267513
-1.83118e-05
0.000288369
0.000331068
9.92819e-06
0.000213081
-0.000254702
0.000316091
-0.000316641
-6.63603e-06
-0.000272693
2.80418e-05
0.000200149
0.000187993
3.98722e-05
-0.000227865
-5.43681e-05
0.000215818
-0.000166489
0.000153609
-0.000270285
0.000116676
0.000279441
-0.000329701
5.02602e-05
-6.38122e-05
0.000249201
-0.000166909
0.000315897
-0.000148989
-0.000314402
-1.0008e-05
-0.000214929
0.000175029
2.78601e-05
-0.000278349
0.000276221
-1.88441e-05
-0.000248613
1.69998e-05
-0.000301623
0.00028338
0.000344989
-0.000158593
-0.000186397
-1.69278e-05
-0.000240325
0.000257008
-0.000266617
-3.30401e-06
0.000224001
2.45841e-05
-0.000248585
0.000284509
-0.000128381
0.000140197
0.000138853
-0.000279049
-0.000204449
-1.10247e-05
0.000258169
-0.000115551
0.000225744
-0.000242523
-6.38122e-05
0.000251805
-0.000211722
0.000249481
-5.60002e-07
-0.000248921
0.000255109
-0.000237441
-0.000322818
0.00029768
-3.08841e-05
0.000203169
-0.000172285
0.000291682
1.35525e-06
-0.000292311
7.08472e-05
0.00012611
-0.000201242
4.5685e-05
-0.000197154
-0.00029166
-4.79891e-06
0.000295879
-1.49043e-06
-0.000289684
0.000146973
-0.000273925
0.000126952
-0.000261742
0.000218856
-0.00029314
0.000264662
0.000279441
-0.000312714
-1.24349e-05
0.000325112
0.000109256
0.000159234
-2.17737e-05
0.000350143
0.000140141
0.000139833
-0.000279973
0.000245029
-0.000250349
5.32002e-06
-0.000210953
0.000180069
0.000279133
-5.43202e-06
0.000348044
-3.40137e-05
-0.000302116
0.000303071
-1.57757e-06
0.000270985
-0.000270985
-0.000364652
0.000225892
0.000138808
-0.000208283
1.86684e-05
1.69193e-05
0.000275157
-0.000278461
3.30401e-06
-5.09293e-06
0.000169974
-0.000164156
-0.000197345
0.000254801
-5.74562e-05
-0.000208694
4.87643e-06
-0.000249126
0.000161142
8.23041e-05
-0.000180264
0.000261406
-8.11436e-05
0.000256285
-0.000287113
3.08281e-05
-0.000249229
5.18842e-05
-2.35698e-05
0.000276481
-0.000252509
-0.000253547
1.35801e-06
0.000252189
0.000231281
-7.28003e-06
-0.000294704
7.48573e-06
0.000287129
-0.000266085
0.000266085
-0.000284078
-5.49937e-05
-0.000170717
-0.000193914
-0.000172479
0.000217383
-4.39631e-05
-1.232e-05
-0.000239177
0.000251497
3.10801e-06
0.000210113
-0.000213221
-0.000185708
-2.25972e-05
0.000210651
7.60649e-06
0.000294469
-0.000302068
-0.000236153
-1.34401e-05
0.000249593
1.50361e-05
-0.000251189
-0.000241025
0.000256061
-0.000301377
0.000308957
0.000256117
7.16803e-06
-0.000166451
-3.20883e-05
0.000199723
-0.000145237
-0.000134765
-0.000244329
0.000240549
0.00029863
-5.03186e-07
-0.000298025
-0.000298841
6.22415e-07
0.000298228
1.92774e-05
0.000181217
0.000163773
7.70037e-05
-0.000257268
-0.000159242
0.000310908
0.000250721
-0.000108677
-0.000235145
-1.83681e-05
0.000253513
-0.000200782
-0.000127586
0.000327884
-6.10402e-06
-0.000229125
0.000235229
-2.31474e-05
-0.000194089
-0.000288175
-8.61628e-05
6.39846e-06
-0.000300934
-0.000209363
0.000325444
-0.000115874
0.000281597
0.000288205
-5.16322e-05
0.000271993
-1.57081e-05
-0.000188238
-1.42484e-05
0.000202248
0.000297643
3.27103e-07
-0.000298053
-0.000270419
-3.27848e-05
-0.000218821
0.000247605
-2.32142e-05
0.000306504
-0.000283421
0.000175493
8.02755e-06
-0.000185593
-3.37194e-05
0.000208352
-0.000297504
0.000274266
0.000292278
5.51135e-06
-0.000297645
0.000157445
0.00011886
-0.000276305
0.000288429
5.78255e-06
-0.000293737
-0.000249642
0.000125875
0.000132127
-0.000280599
0.000294115
0.000302513
-0.000156857
-0.000145657
0.000207005
-0.000203897
-0.000232009
-0.000121156
-0.000155009
-4.09154e-06
-0.000294049
0.00029792
-1.0136e-05
0.000276249
0.000292933
-2.15929e-05
-0.000270572
-0.000263029
2.87342e-05
0.000234175
0.000271433
-0.000267569
0.000249621
2.95121e-05
0.000315008
-9.8017e-06
-0.000305176
4.88423e-05
0.000155582
-0.00020729
-0.000102507
0.000196258
-9.69072e-05
0.000252617
-2.91201e-05
-0.000223497
4.33349e-07
0.000291608
-0.000175715
-3.15909e-05
0.000210115
-2.11293e-06
0.000290854
-9.33244e-05
0.000246933
-0.000255417
-5.26402e-06
0.000121184
0.000181329
1.34121e-05
0.000241557
-0.000254969
0.000236097
1.34961e-05
-0.000249593
0.000249509
-0.000242929
0.000256425
6.2285e-05
-0.000202101
0.000136276
-0.000218754
0.000116857
-0.000200666
0.000297188
1.46269e-06
-0.000298612
0.000253849
2.22881e-05
0.000268493
-0.000216441
-5.20522e-05
0.000225518
-0.000246849
2.13305e-05
0.000257909
1.40841e-05
5.8811e-05
0.000293394
0.000267186
-3.89594e-05
-0.000228226
0.000170848
1.274e-05
0.000240297
-0.000253037
0.000194442
-0.000113921
-8.00466e-05
-0.000205194
2.13774e-05
-1.30055e-06
-0.000297751
0.000299088
0.000216423
-0.000168845
-5.20043e-05
0.000341376
-4.29487e-05
0.000275969
-0.000135829
2.31561e-05
0.000238337
-0.000261493
-0.000231141
0.000254297
-2.66677e-05
-0.000229751
0.00025641
0.000155297
-0.000159751
-7.30221e-05
-0.000164084
-0.000261723
4.14346e-05
0.000220288
-3.17521e-05
-0.00022997
6.7654e-06
0.000261717
-3.25193e-05
-0.000229198
1.67684e-05
0.000129408
-0.000201676
0.000308785
-0.000171397
0.000262319
-3.57923e-05
-0.000226526
-0.000318778
0.00016631
-9.57143e-05
-0.000228453
-6.90203e-05
-4.83455e-07
-0.000296638
0.000298306
-2.68989e-05
0.000177024
-0.000152573
0.00030819
6.89625e-06
0.000250097
-0.000248249
-1.84801e-06
-0.000175941
6.17558e-05
0.000260254
-3.07261e-05
-0.000229538
0.000197345
-0.000250769
5.34242e-05
0.000254206
-0.000231206
-2.29991e-05
-0.000252337
0.000240017
0.00014232
0.00010049
-0.000101864
-0.000170269
0.000132496
-0.000261885
-0.000290249
0.000242201
4.80483e-05
0.000216809
3.12479e-05
-0.000248056
-0.000238711
-9.73689e-06
0.000248295
0.00032576
-2.26417e-05
0.000263996
-3.42721e-05
-0.000229724
0.00014533
-0.000242561
9.33786e-05
3.63259e-05
-0.000265637
0.000229311
-0.000253905
0.000121296
0.000249817
-5.24722e-05
0.000294673
-0.000154253
-0.000140421
0.000122248
-0.000289157
1.53441e-05
0.000237665
-0.000253009
-0.000262031
3.54705e-05
0.00022656
-2.86035e-06
-3.77917e-05
-0.000224239
0.000249309
-0.000272713
-0.000264649
3.44737e-05
0.000230175
0.000193257
0.000101416
-0.000149941
0.000290137
-0.000171514
-3.84468e-05
0.00021297
-1.81721e-05
0.000263201
-0.00029244
0.000308439
0.000114703
0.000100807
0.000261325
-0.000261325
0.000305547
-2.15068e-05
-0.000287556
5.32002e-07
0.000248949
0.000254857
1.65761e-05
0.000309543
-0.000276645
-3.33046e-05
-2.26336e-05
0.000266577
-0.000243943
3.00077e-05
-0.000260519
0.000230511
-0.000252139
0.000229506
0.000326595
3.11501e-05
-0.000260598
0.000229447
0.000276809
-3.16961e-05
-5.53333e-06
-0.00029631
0.000303383
0.000270501
3.86959e-05
0.000230245
-0.000266617
3.63721e-05
0.000200163
-0.00020101
-0.000258301
0.000238533
1.97681e-05
0.000169762
-0.000257245
8.74835e-05
-0.000207844
0.000163241
-0.000249145
8.59043e-05
-0.000266169
0.000224813
4.13562e-05
0.000253073
-2.78797e-05
-0.000225194
0.000172336
4.21226e-05
-0.000234837
-2.29601e-05
0.000257797
-0.000236377
-2.28761e-05
0.000259253
-1.94265e-05
0.000255969
-0.000236542
-0.000259345
0.000239919
-3.69752e-05
0.000173656
-0.000235929
-2.24001e-05
0.000258329
-0.00025484
0.000229192
2.56481e-05
2.94001e-06
0.000211289
-0.000214229
-0.000267031
3.79849e-05
0.000229046
0.000270677
4.48002e-06
4.12943e-05
0.000163725
-0.000198355
-3.31195e-05
0.000249929
-2.12053e-05
0.000218597
9.73004e-05
0.000248201
-0.000216952
0.000279638
-0.000280604
0.000279369
-0.000284633
-1.84997e-05
0.000258601
-0.000240101
-0.000261644
0.000243145
3.09533e-05
-0.000202694
-2.93369e-05
-0.000202662
0.000231558
0.000315419
-0.000287705
-2.74962e-05
0.000261297
-3.11081e-05
-0.000230189
3.28739e-05
-0.000262362
0.000229488
-0.000229853
0.000259645
-2.97921e-05
0.000326062
-1.77548e-05
0.000148033
-0.000209786
0.000256929
-0.000109956
-0.000285942
0.000287606
0.000241977
-6.41202e-06
-0.000235565
0.000228537
-0.000179948
-3.68492e-05
0.000215927
2.91038e-05
-0.000209824
-0.000239989
0.000260317
-2.03281e-05
-0.000102894
0.000191117
-8.54264e-05
3.09453e-05
-0.000198726
0.000240169
-0.000263424
2.32552e-05
-0.000115584
0.000258861
-0.000243993
0.000265721
-2.17281e-05
-0.000238953
0.000232541
0.000258626
-0.000245105
-1.35213e-05
0.000264349
-2.46681e-05
-0.000246317
-0.000274705
-1.05822e-05
0.000295937
-5.29202e-05
-8.55965e-06
0.000293375
-0.000282758
-0.00016031
0.000205158
0.00023151
1.78528e-05
-0.000248362
0.000329382
-0.000329253
0.000260955
-0.000245018
-1.59377e-05
-0.000303548
-6.81722e-07
0.000305682
9.73119e-06
3.74478e-05
0.00016696
-0.000204403
0.000206891
-3.36562e-05
-0.000175588
0.000278054
-0.000255789
-2.22648e-05
-0.000205962
3.11566e-05
3.15421e-05
-0.000261891
0.000230348
0.000285976
-0.000291837
2.44721e-05
-0.000259617
-0.000257965
1.87881e-05
0.000266057
-1.64361e-05
0.000151173
-0.000267625
0.000116452
0.000299022
-4.49532e-06
0.000238617
-7.53763e-05
2.12521e-05
0.000177045
-0.000198297
-0.000183877
0.000205129
-0.000236275
0.000257219
-2.09441e-05
0.000261462
-3.31689e-05
-0.000228293
-0.000197009
-5.21362e-05
0.000251581
-1.48401e-06
9.08045e-06
-0.000264372
0.000255909
-0.000340074
0.000234287
0.000105501
0.000266371
-0.000236811
-2.95597e-05
0.000306804
-0.000314623
7.87484e-06
-2.57041e-05
-0.000229097
0.000254801
0.000261493
-7.64403e-06
1.03865e-05
-0.000209173
0.000262411
-3.19033e-05
-0.000230508
-6.90483e-05
-0.000260653
-0.000194685
0.000248025
-5.33402e-05
-0.000266533
0.000249985
1.65481e-05
-0.000318096
1.66602e-05
-1.72151e-05
0.000296725
-0.000279223
-0.000276221
1.65481e-05
0.000249537
-0.00016538
6.43518e-05
0.000274346
1.47119e-05
-0.000288682
-0.000316232
0.000308039
8.21709e-06
3.46641e-05
-0.000263649
0.000228985
-1.74272e-05
0.000281835
-0.000315221
1.63968e-05
-0.000176541
-7.42283e-05
-0.000229674
0.000203087
-2.16721e-05
-0.000216469
0.000238141
-0.000314918
0.000295618
1.87816e-05
-0.000132962
0.000272026
-0.000140412
-8.38575e-06
3.31521e-05
-0.000263453
0.000230301
-0.000198401
2.50048e-05
0.000173821
0.000221516
0.000280176
-0.000280506
3.07747e-07
-0.000236993
-2.20921e-05
0.000224813
-0.000202721
0.000139273
0.000143753
-0.000278517
0.00019928
-5.70185e-05
0.000308088
-1.06361e-05
0.000208245
-0.000267282
2.92853e-05
0.00022306
-0.000252345
-0.000319789
0.000138097
0.000296812
2.92801e-05
1.94195e-05
-0.000224355
-2.77845e-05
-0.00013735
-0.000132723
-0.000323616
0.000114103
0.000242873
2.56201e-05
0.000218765
-0.000224869
1.11141e-05
-0.000287867
0.000276682
-0.000242967
0.000270187
-2.7337e-05
0.000281476
-0.000281794
0.000287048
-7.66265e-05
-8.89203e-06
0.000290435
-1.87881e-05
0.000247101
-0.000228313
0.000281548
-0.000290404
-5.54349e-06
-0.000283952
0.000289486
0.000282127
-0.000269826
0.000285118
0.000226314
2.67597e-05
-0.000305221
0.000314586
-9.2492e-06
0.000252884
-2.08706e-05
0.000227295
2.40558e-05
-0.000268913
0.000246057
-2.05381e-05
-0.000259401
3.02849e-05
0.000229116
0.000178305
7.64963e-05
1.05697e-05
0.000281604
-0.000292364
-0.000238141
-2.88401e-05
0.000266981
2.51441e-05
-0.000263285
0.000284117
-0.000162317
-0.000232177
0.000261129
-2.89521e-05
-0.000234697
0.000260709
-2.60121e-05
1.33626e-06
0.000278895
2.45001e-05
-0.000259197
2.38001e-05
-0.000255977
0.000274292
-0.000242959
-3.13522e-05
0.000318039
-1.00085e-05
-0.000306687
-8.83039e-07
-0.000255753
1.1816e-05
0.000243937
-1.42798e-05
-0.000261185
0.000228066
-0.000245337
0.000270145
-2.48081e-05
-0.000263229
1.49801e-05
-2.3554e-05
0.00028608
-0.000261762
2.13641e-05
-0.000266701
-0.000241475
-2.14231e-05
3.27026e-05
-9.0432e-05
0.000260194
0.000280766
-0.000286507
5.05122e-05
0.000237693
0.000282226
-0.000281919
-0.000243181
-2.39401e-05
0.000267121
-0.000260894
7.34723e-06
-0.000295612
1.93955e-05
0.000276283
-0.000268717
2.55361e-05
-8.51568e-06
0.000290817
-0.000268326
0.000243549
2.47773e-05
-0.000232513
0.000210841
0.000280118
-0.000287998
-6.16002e-07
0.000260289
-0.000259673
-0.000302055
-1.6137e-05
-0.000264573
2.35481e-05
-0.00024417
-2.41555e-05
-3.43281e-05
-0.000298318
0.00029409
0.000286674
-0.000158327
0.000296624
-0.000291052
2.30152e-05
4.91507e-06
0.000263189
-0.00025528
-7.16719e-06
0.000307596
-2.02283e-05
-0.000287391
5.97196e-05
-0.000246765
-2.19521e-05
-0.000356203
0.000241711
0.000284655
-0.00027971
2.33801e-05
-0.000190355
-1.59813e-05
-0.000306451
2.56589e-05
0.000280465
-0.000196185
0.000309233
-0.000113245
0.000259841
-0.000238533
-2.13081e-05
-0.000291825
2.94001e-05
0.000222097
-0.000251497
-0.000165539
0.000132678
-0.000162628
0.000251441
-0.000238029
-1.34121e-05
-0.000263873
3.40201e-05
-2.23161e-05
-0.000269837
0.000251469
0.000230427
3.12901e-05
-4.55771e-05
0.000200459
0.000232619
-0.000260499
-1.73783e-05
-3.21962e-06
0.000245567
-0.000244428
-0.000292723
-0.000237049
0.000265189
-2.81401e-05
0.000230096
3.22225e-05
-0.000268521
2.55921e-05
-0.000239905
-2.86161e-05
0.000228954
-0.000260706
-0.000282422
4.73202e-05
-0.000242005
0.000292956
-0.000283303
-0.000288303
1.31977e-05
0.000275555
-4.90388e-06
0.000212232
0.000228551
-0.00026107
0.000296885
-0.0001309
-0.000165985
0.000240789
-0.000261838
0.00026957
-0.000226213
-1.76681e-05
-0.000164767
0.000306073
-0.000141396
2.49649e-05
0.000222662
-0.000247627
-0.000193905
0.000194217
-0.000283568
0.000282273
6.95712e-06
-0.000290665
-0.000302485
0.000146693
0.000155793
0.000259995
-0.000239359
-2.06361e-05
-0.000215741
0.000193649
0.000262962
4.11132e-07
0.000257293
0.000232526
2.16795e-05
-0.000292921
-6.18729e-05
1.02044e-05
0.000232356
-0.00024845
1.81615e-05
-0.000230917
-2.37161e-05
0.000254633
-0.000242295
0.000263191
-2.08965e-05
8.09086e-05
0.000131224
2.01381e-05
-0.000305432
0.000285339
0.000256565
-1.80041e-05
-0.000238561
0.000243881
-0.000254017
1.0136e-05
-0.000226745
0.000207957
0.000223131
-0.000258923
-0.000244693
4.76842e-05
1.59381e-05
-0.000137723
-0.000218529
1.57921e-05
0.000245701
0.000280711
0.000294619
0.000305861
1.6926e-06
0.000249817
-0.000220417
2.51749e-05
0.000225009
-0.000250184
-0.000243178
0.000268865
-2.56873e-05
2.28201e-05
-0.000262725
-0.000119201
0.000296469
9.14781e-06
2.08181e-05
0.000261675
-0.000235103
-2.65721e-05
1.30432e-05
-0.000303412
0.000290199
0.000321637
-3.0943e-05
-0.000290697
0.000249733
1.63241e-05
0.000305983
-0.000293083
-0.000229063
-0.000111458
9.63204e-06
0.000250657
-4.9129e-05
-0.00020239
0.000251519
2.20333e-05
0.000246832
-0.000241686
-2.29629e-05
0.000260737
-2.24001e-05
0.000287622
-0.000268023
2.63369e-05
2.68241e-05
-0.000257965
0.000210617
-0.000207677
2.58161e-05
-0.000262865
0.000281521
0.000121744
-0.000256173
0.000134429
1.72593e-05
3.84925e-05
0.000161942
-0.000197912
-0.000239485
-2.85377e-05
3.95549e-05
0.000158039
-0.000199769
-0.000246691
0.000271066
-2.43747e-05
0.000209866
-0.000248826
1.98857e-05
1.73562e-05
-0.000177823
-3.08979e-05
0.000226683
-0.000257413
-2.88401e-05
0.000244245
-0.000215405
-2.16161e-05
0.000242985
-0.000221369
0.000201657
-0.000250786
-0.000273669
-0.000232905
-2.55081e-05
0.000258413
0.000241234
2.98318e-05
-0.000208704
-2.41617e-05
0.00023315
-2.18821e-05
-0.000224967
-0.000239345
6.28042e-05
0.000259004
-0.000229718
4.75106e-05
-0.000249901
-3.43393e-05
0.000257694
-0.000223354
0.000205675
-0.000240014
0.000261689
-1.1956e-05
-6.06764e-05
-0.000229572
-0.00022649
-1.67183e-05
0.00024368
0.000247109
5.3175e-05
0.000212448
-0.000265623
-0.000261096
0.000177353
-0.000231757
5.44042e-05
6.37553e-05
0.000135054
0.000259457
-0.000240915
-2.47224e-05
-0.000265385
0.000227165
3.82201e-05
-2.87813e-05
-0.000222158
0.00025094
-0.00028438
0.000264161
0.000234501
3.61761e-05
2.18821e-05
0.000234087
-0.000307217
0.000151089
0.000156129
0.00016609
-5.16788e-05
0.000254045
-0.000115192
2.56901e-05
0.000217446
-0.000243136
-0.000286334
0.000286987
9.25011e-06
0.000257377
-0.000245953
0.000208937
3.70161e-05
0.000254832
0.000244229
-2.00116e-05
-0.000246815
-2.02161e-05
-0.000263019
2.0724e-05
-0.000269215
2.24001e-05
2.79601e-05
0.000220024
-0.000247984
0.000242481
-0.000274597
1.32721e-05
0.00024855
-1.40885e-05
1.24181e-05
-0.000250962
-0.000325252
0.000124276
-0.000233135
-2.62109e-05
-0.000252113
0.000252113
0.000259782
-0.000144217
-1.84184e-05
-0.000279176
0.000297044
0.000273878
0.000258749
-0.000135913
0.000224113
2.39205e-05
0.00023468
7.8267e-05
-0.000339039
3.82944e-05
0.000258962
1.76364e-05
-0.000248843
-3.00917e-05
0.000207453
-3.01001e-05
0.000259701
2.95429e-05
0.000218353
-0.000247896
-3.05014e-05
-4.09782e-05
-0.000217818
0.000258797
-0.000233423
-2.14173e-05
3.7508e-05
-0.000196909
0.000162194
-3.30877e-05
0.000221671
-0.000255943
-0.00028201
-8.61945e-06
0.000290428
-0.000191349
0.00016123
0.000166349
8.16763e-05
1.27511e-05
-0.000294742
0.000235075
2.59446e-05
-0.000261019
-0.00020282
-1.13257e-06
0.000232743
-0.000264287
3.15449e-05
-8.42803e-06
-0.000217029
0.000225457
-0.000159528
0.000198934
-0.000249985
-3.46025e-05
0.000256274
0.000218076
-0.000252679
-0.000246289
0.000272245
-2.59561e-05
0.000253547
2.78321e-05
-0.000232062
-2.95821e-05
-0.000298299
0.000316464
-1.81539e-05
2.33543e-05
0.000212462
-0.000250254
-0.000267233
2.09441e-05
-2.12801e-05
-0.000245953
-3.61481e-05
0.00024861
-0.000290113
-1.36984e-05
0.00022082
-0.000256968
0.000248151
-0.000252029
1.83792e-06
2.80002e-06
0.000181413
-0.000184213
0.000255294
0.000234529
2.67681e-05
-2.62361e-05
0.000245001
-0.000218765
3.36001e-05
0.000216609
-0.000250209
0.000244861
2.73841e-05
0.000306545
-0.000143949
-0.000162597
1.56302e-05
0.000239699
-0.000254294
0.000271013
-0.000113568
0.000225569
-0.000256677
-0.000240926
0.00010484
-0.000265469
7.16803e-06
-0.000241635
-2.75801e-05
-0.000241361
-2.48081e-05
0.000309504
-2.75616e-05
-7.67483e-05
0.000243097
-1.1452e-05
-0.000215601
0.000224281
-8.68003e-06
0.000255193
-7.68883e-05
3.43832e-05
-0.000195617
0.00016234
-0.000265245
-1.40001e-07
-4.14962e-05
3.96198e-05
0.000159289
-0.000196496
0.00019582
-0.000160865
0.000257041
-7.05603e-06
0.000251151
-0.000218277
-1.8292e-05
-2.1128e-05
0.000278221
-9.36376e-05
-0.000183678
-1.42801e-05
-0.000191913
0.000206193
0.000258665
-1.53553e-05
-0.00024331
1.98101e-05
0.000238855
-0.00028
-7.87807e-06
3.66898e-05
-0.000192485
0.000155618
1.36921e-05
0.000247997
-0.000160162
0.000195649
-1.95189e-05
0.000248711
3.29669e-05
0.000186498
-0.000221551
-4.17202e-06
-2.49389e-05
0.000265108
-0.000231955
-3.14693e-05
0.000297077
-0.000281849
-1.52383e-05
1.63717e-05
-0.000237659
0.000221288
-0.00010514
0.000226885
1.93099e-05
-0.000305361
0.000285858
2.52001e-05
-2.79441e-05
2.69165e-05
0.000308799
-0.000289655
0.000238891
1.97345e-05
2.15601e-06
0.000231617
-0.000233773
-0.00030985
2.55125e-05
0.000284362
-0.000162177
-0.000144145
0.000209178
-0.000250156
-0.000161073
0.000241924
1.90317e-05
0.00025687
-4.13534e-05
0.000250531
0.000214498
-0.000255851
0.000319409
-0.000319022
-1.0908e-05
0.000287506
-0.000277039
-0.000302024
1.93673e-05
0.000282134
4.20842e-05
-0.000286413
-3.88207e-05
0.000252483
2.62921e-05
-2.20977e-05
0.000307428
-0.000285294
2.43321e-05
3.98948e-05
0.000163996
-0.000203527
0.000249294
-0.000219751
2.83277e-05
-0.000261633
4.36802e-06
-1.99972e-05
0.000306576
-0.000286577
-0.000250987
-0.000266673
3.07441e-05
0.000252141
-0.000236741
-1.54001e-05
1.2264e-05
0.000239877
-0.000274846
-1.28227e-05
0.000255697
-5.01275e-06
0.000310816
-1.22434e-05
0.000297587
-0.000285123
-4.70893e-05
0.000247437
-0.000235621
0.000257601
-1.99361e-05
0.000135951
9.00175e-05
-0.000226407
0.000229028
3.03493e-05
0.000226759
-0.000258662
3.71393e-05
0.000271558
-0.000288845
1.67896e-05
0.000251273
-0.000239093
-1.31321e-05
0.000252225
-2.91201e-05
-0.000257265
2.56481e-05
0.000231617
-0.000228005
-2.92601e-05
0.000259765
-0.000233571
-2.61941e-05
0.000258721
-0.000266185
2.48561e-06
0.000289904
1.23751e-06
-0.000289834
0.000247788
-0.000230864
-1.85921e-05
0.000306871
-0.000297459
-9.38361e-06
0.000249576
-0.000101028
-0.000266897
2.56761e-05
0.000241221
-3.48881e-05
-0.000232009
-0.000266393
2.51161e-05
0.000241277
-1.24934e-05
-0.000267963
0.000280106
-3.45241e-05
-0.000231869
-0.000261918
1.85494e-05
-0.000266281
2.43881e-05
0.000241893
-0.000284129
-2.15325e-05
-0.000306179
2.75388e-05
0.000278488
-3.34041e-05
-0.000232877
-0.000166096
-0.000258133
2.94001e-05
0.000228733
0.000308993
-0.000308994
-0.000195805
0.000209049
-3.29281e-05
-0.000225205
0.000197089
-0.00027904
8.14939e-05
0.000283646
2.22786e-05
-0.000301953
1.76961e-05
0.000285482
-0.00028051
-4.95482e-06
-0.000257125
0.000231617
2.55081e-05
0.000164482
2.79232e-05
-0.000193537
-0.000266953
2.81681e-05
0.000238785
-0.000227361
-2.97641e-05
-3.67361e-05
-0.000230217
0.000275939
0.000297389
1.90624e-05
-0.000276062
-3.19763e-05
0.000308007
-0.000258679
-1.08812e-05
0.000297813
-0.000286853
1.5076e-05
-0.000302078
0.000287125
-0.000230609
-0.000307305
0.000287312
0.000263005
-2.54855e-05
-0.000280735
1.36081e-05
0.000166148
0.000228761
1.90207e-05
-0.000249547
-0.000200899
0.000164867
0.000236738
1.31517e-05
-0.00024989
-0.00025833
2.66093e-05
0.000231721
-1.09228e-05
0.000247661
5.74002e-06
0.000246877
-3.19817e-05
-0.000226348
0.000299551
-0.000285676
-1.38421e-05
0.000228024
-0.000226666
0.000289792
0.000237685
1.98521e-05
-0.000257537
-1.24236e-05
0.000250108
0.000246636
1.50389e-05
-0.000305498
1.53903e-05
0.00024448
2.18905e-05
3.25363e-05
-0.000204597
-0.000287691
-1.78225e-05
-0.000182869
0.000295177
-0.000150136
0.000186061
-3.31035e-05
3.09057e-05
-0.000199822
0.000167632
-0.000164927
0.000259149
-0.000239236
-1.99137e-05
0.000261159
-0.000274367
-0.000242689
0.000232505
-2.18906e-05
0.00030124
-0.000279373
0.000308295
-0.000293197
0.000242117
1.77241e-05
-0.000224975
0.00024443
-1.94545e-05
1.61001e-05
-0.000241075
-7.00003e-06
0.000260989
-0.000297222
4.86975e-06
0.000292314
-0.000174497
0.000160217
-1.74105e-05
-6.25906e-06
-0.000290949
-1.67436e-05
-0.00028491
4.28402e-06
-0.0002982
0.00013477
-0.000257468
2.37622e-05
0.000233724
0.000238197
1.32441e-05
-3.08153e-05
-0.000226668
-3.29458e-05
-0.000291597
2.04179e-05
-0.000227183
0.000207152
0.000254969
-0.000233465
-2.15041e-05
-0.000198593
0.000219849
-0.00018615
-7.41625e-06
0.000204412
0.00013981
0.000137106
4.15428e-06
0.000272918
0.000279906
-0.000305494
3.22371e-06
0.00024342
-1.98324e-05
0.000298688
-0.000278766
-0.000301982
0.000287228
1.47696e-05
-0.000258301
0.000230077
2.82241e-05
-2.64041e-05
-0.000231897
0.000303052
-0.000302884
0.000267976
-1.98993e-05
0.000304492
-0.000284597
0.000286148
-4.94078e-07
-0.000256873
0.000256873
-0.000268157
0.000295526
-0.000147148
-6.76914e-05
-7.32052e-06
0.000294794
-0.000288603
-0.000297853
0.000290537
0.00029278
-0.000280005
0.000291389
-0.000306258
1.49684e-05
3.49036e-05
-0.000237672
0.000215464
2.25195e-05
-1.4404e-05
-0.000247171
0.000230729
-1.43203e-05
0.00029836
-0.000283976
0.000263481
-1.96001e-05
0.000254224
-0.000235464
-1.87601e-05
-3.09772e-05
-0.000273809
0.000304691
1.44281e-05
-0.000297731
0.000283082
-1.45881e-05
0.000233465
-0.000218877
0.00020664
-0.000295333
0.000283568
-1.91327e-05
0.000304234
-0.000285121
0.00025102
-2.69238e-05
0.000297426
-0.000270584
-0.000295783
0.00026882
1.07156e-05
0.000244749
-0.000255465
0.000305306
-0.000312144
6.80953e-06
1.78909e-05
1.49853e-05
0.000285637
-0.000301067
6.34273e-06
0.000284725
2.24969e-06
-0.000319271
-0.000287483
0.000302332
-0.000242481
0.000243657
8.45603e-06
-0.0002264
0.000242772
-0.000293005
0.000273847
0.000283958
-0.000157907
-8.35293e-05
0.0002943
1.4476e-05
3.14104e-05
-0.000196435
0.000168931
-0.000274516
0.000257293
-0.000219535
0.00024982
0.000243411
1.92865e-05
-0.000262697
0.000236019
2.31309e-05
-0.000300572
0.000281963
0.000312256
-1.79623e-05
0.000237945
-0.000257069
1.91241e-05
-0.000222494
0.000247459
0.000294209
1.8053e-05
-0.000164968
-1.44349e-05
0.000298644
-0.000284165
-0.000141423
-0.000266415
0.000159993
0.000106423
-0.000309116
0.000295549
1.36707e-05
-0.000258699
0.000241826
1.68729e-05
-0.000149832
0.000154515
-0.000306401
0.000288544
1.78604e-05
-0.000216593
0.000177
-9.69084e-06
0.000253101
2.05563e-05
1.75658e-05
-0.000304264
0.000286677
-0.000300518
-7.25605e-06
0.000307767
-0.000249229
0.000220109
-0.000201153
-8.52603e-05
-0.000272963
0.000248488
0.000303871
-0.000286302
-0.00019462
1.83121e-05
1.50694e-05
0.000284454
-0.000299533
-8.80603e-05
0.000239233
-0.000303209
1.96225e-05
0.000283718
-0.000208375
-2.89917e-06
-0.000297747
-0.000164252
2.05297e-05
0.00030225
-0.000288768
-1.44633e-05
-0.000173386
-0.000299221
-0.000176522
-2.31603e-05
0.000243528
0.000289438
1.71502e-05
0.000252869
5.70318e-05
-0.000282521
-0.000247213
-0.000269778
-2.35254e-05
-0.000274678
0.000300177
-0.000262888
0.000282048
-0.00017123
-4.11681e-05
0.000207011
0.000197569
1.56521e-05
-0.000213221
-1.24436e-05
-0.000285697
0.00029782
1.83597e-05
1.86862e-05
-0.000305378
0.00028697
0.000253345
-1.71361e-05
-0.000236209
1.89376e-05
-0.000304774
0.00028587
2.03561e-05
0.000232989
0.000216385
-2.46121e-05
-0.000191773
1.5736e-05
0.000282139
-0.000297862
-0.000250948
0.000116717
-0.000303841
1.8654e-05
0.000285198
0.000215512
-4.9998e-05
-0.000296187
1.61601e-05
0.000280626
0.000255837
-2.19801e-05
-0.000233857
-0.00030236
0.000105698
0.000234529
1.70521e-05
-0.000251581
0.000280205
1.69599e-05
0.000304179
-0.000285211
1.81134e-05
-0.00029983
0.000233512
1.84916e-05
-0.000252004
-1.89358e-05
-1.41708e-05
0.00029768
-0.000283508
-0.00027986
0.00029889
-0.000278147
0.000291547
-0.000304924
1.26242e-05
0.000249741
-1.62291e-05
1.1492e-05
0.000250041
-1.55121e-05
0.000298334
-0.000282537