/*--------------------------------*- C++ -*----------------------------------*\
  =========                 |
  \\      /  F ield         | OpenFOAM: The Open Source CFD Toolbox
   \\    /   O peration     | Website:  https://openfoam.org
    \\  /    A nd           | Version:  12
     \\/     M anipulation  |
\*---------------------------------------------------------------------------*/
FoamFile
{
    format      ascii;
    class       volScalarField;
    location    "1.07";
    object      rho;
}
// * * * * * * * * * * * * * * * * * * * * * * * * * * * * * * * * * * * * * //

dimensions      [1 -3 0 0 0 0 0];

internalField   nonuniform List<scalar> 
22702
(
1.40001
1.40001
1.25053
1.40001
1.44168
1.40001
1.83778
1.40001
1.40001
1.01755
1.83791
1.8376
1.40001
1.80989
1.26615
1.40001
1.40001
1.40001
1.83832
1.40001
1.80263
1.40001
1.83146
1.03051
1.81838
1.06074
1.40001
1.8468
0.983465
1.03533
1.40001
1.83821
1.40001
1.40001
1.40001
1.78049
1.822
1.83208
1.40001
1.40001
1.03143
1.40001
1.59633
1.40001
1.84341
1.40001
1.40001
1.40001
1.40001
1.03646
1.40001
1.02603
1.40001
1.83803
1.40001
1.83856
1.40001
1.40001
1.40001
1.40001
1.02553
1.40001
1.40001
0.991956
1.40001
1.03843
1.40001
1.40001
1.40001
1.02833
1.40001
1.8463
1.65127
1.40001
1.84754
1.86359
1.0388
1.8433
1.03161
1.40001
1.83621
1.03427
1.83498
1.83433
1.40001
1.40001
1.40001
1.40001
1.31662
1.02474
1.83306
1.40001
1.40001
1.02194
1.40001
1.80236
1.02207
1.40001
1.40001
1.40001
1.40001
1.59691
1.83703
1.0562
1.40001
1.40001
1.48761
1.40001
1.03203
1.40001
1.84374
1.83984
1.40001
1.40001
1.04034
1.03934
1.02175
1.40001
1.40001
1.40001
1.40001
1.40001
1.29742
1.40001
1.75442
1.41357
1.84618
1.40001
1.84188
1.83872
1.8096
1.83791
1.40001
1.03396
1.40001
1.03529
1.40001
1.40001
1.40001
1.40001
1.84
1.40001
1.40001
1.40001
1.40001
1.83684
1.40001
1.42471
1.40001
1.40001
1.40001
1.40001
1.04744
1.40001
1.40991
1.40001
1.03423
1.40001
1.40001
1.40001
1.83219
1.40001
1.8388
0.988094
1.02431
1.85184
1.85038
1.40001
1.45841
1.63631
1.40001
1.83862
1.02263
1.7808
1.40001
1.40001
1.40001
1.40001
1.80836
1.75929
1.40001
1.83836
1.01848
1.83893
1.40001
1.01528
1.40001
1.03718
1.04748
1.39982
1.40001
1.40001
1.84038
1.40001
1.40001
1.84372
1.40001
1.83706
1.83823
1.03062
1.40001
1.40001
1.02948
1.8416
1.40001
1.40001
1.40001
1.84179
1.40001
1.01899
1.40001
1.40001
1.84152
1.84184
1.84156
1.40001
1.40004
1.40001
1.40001
1.40001
1.8025
1.40001
1.06104
1.86071
1.84308
1.81173
1.40001
1.40001
1.40001
1.01633
1.84254
1.61858
1.40001
1.80522
1.01724
1.01431
1.80435
1.8426
1.40001
1.84136
1.03478
1.76631
1.40001
1.40001
1.40001
1.40001
1.8416
1.40001
1.65794
1.44412
1.40001
1.40001
1.84194
1.03296
1.17003
1.40001
1.84183
1.02632
1.84265
1.40001
1.40001
1.40001
1.40001
1.40001
1.40001
1.40001
1.0231
1.16458
1.01782
1.84131
1.40001
1.40001
1.40001
1.40001
1.78799
1.40001
1.01433
1.40001
1.00386
1.0218
1.8414
1.02666
1.80074
1.40001
1.40001
1.40001
1.39773
1.01579
0.996898
1.4
1.40001
1.00612
1.40001
1.83963
1.0553
1.40001
1.40001
1.83601
0.973322
1.40001
1.83771
1.01598
1.84207
1.40001
1.00703
1.39771
1.40001
1.40001
1.40001
1.01691
1.40001
1.40001
1.4
1.40002
1.41062
1.65205
1.40001
1.07399
1.40001
1.40001
1.40001
1.40001
1.40001
1.40001
1.40001
1.83664
1.40001
1.84098
1.40001
1.40001
1.40001
1.04658
1.40001
1.83717
1.01416
1.40001
1.72107
1.40001
1.40001
1.84038
1.40001
1.40001
1.40001
1.82236
1.40001
1.40001
1.84537
1.83817
1.40001
1.4699
1.40001
1.40001
1.03397
1.40001
1.40001
1.40001
1.02082
1.40001
1.40001
1.40001
1.40001
1.0614
1.40001
1.40001
1.40001
1.40001
1.40001
1.01448
1.40007
1.84304
1.40001
1.40001
1.84937
1.85181
1.40001
1.40001
1.04065
1.19192
1.83973
1.40001
1.40001
1.40001
1.84251
1.029
1.40001
1.84031
1.40001
1.40001
1.09648
1.09479
1.40001
1.02193
1.02806
1.40001
1.40001
1.40001
1.40001
1.40001
1.40001
1.40001
1.84657
1.48662
1.82434
1.01499
1.30758
1.84017
1.40001
1.84472
1.84078
1.02027
1.14475
1.40001
1.02157
1.40001
1.85554
1.40001
1.40001
1.40001
1.40001
1.84184
1.40001
1.40001
1.40001
1.40001
1.40001
1.40001
1.40001
1.56387
1.83112
1.40001
1.84155
1.40001
1.40001
1.03011
1.40001
1.40001
1.40001
1.40001
1.84195
1.73735
1.40001
1.40001
1.0154
1.84335
1.84238
1.40001
1.84186
1.84394
1.84174
1.40001
1.2107
1.40001
1.84143
1.36981
1.84177
1.40001
1.01881
1.39889
1.83685
1.40001
1.40001
1.40001
1.40001
1.02935
1.84204
1.77406
1.40001
1.81547
1.84274
1.83849
1.40001
1.6149
1.81349
1.40001
1.40001
1.70915
1.46609
1.84177
1.3208
1.84232
1.40001
1.84225
1.84142
1.84213
1.8427
1.40001
1.81579
1.31782
1.28729
1.40001
1.4
1.40001
1.40001
1.84831
1.40001
1.40001
1.40001
1.40001
1.40001
1.83718
1.40001
1.40001
1.39641
1.84243
1.78898
1.40001
1.7741
1.40005
1.40001
1.40001
1.83881
1.40001
1.39626
1.40383
1.40001
1.84171
1.40001
1.84214
1.40001
1.40001
1.72831
1.40001
1.84206
1.40003
1.40001
1.84079
1.40001
1.84213
1.40001
1.40001
1.40001
1.84246
1.40001
1.84642
1.40001
1.84179
1.83982
1.84202
1.84044
1.40001
1.83759
1.83745
1.40001
1.03509
1.8146
1.69559
1.40001
1.8427
1.40001
1.03286
1.01301
1.40001
1.40001
1.40001
1.40001
1.40001
1.02511
1.40001
1.84146
1.51171
1.83957
1.40001
1.40001
1.40001
1.40001
1.40001
1.84129
1.40001
1.84356
1.66196
1.13972
1.40001
1.40001
1.52719
1.50954
1.40001
1.40001
1.53558
1.40001
1.0276
1.84108
1.8412
1.40001
1.40001
1.40001
1.84288
1.40001
1.40003
1.82038
1.84173
1.33811
1.40001
1.40001
1.01818
1.80004
1.40001
1.40001
1.40001
1.40001
1.40001
1.84238
1.83785
1.40001
1.84141
1.84567
1.84202
1.40001
1.40001
1.40001
1.40001
1.05604
1.84063
1.40001
1.40001
1.79823
1.84043
1.40001
1.81358
1.83151
1.40001
1.40001
1.40001
1.40001
1.40001
1.84097
1.40001
1.40001
1.40001
1.40001
1.84746
1.40001
1.83039
1.0273
1.40001
1.02409
1.40001
1.40001
1.40001
1.39679
1.04529
1.39901
1.40001
1.40001
1.40001
1.4595
1.40001
1.40001
1.25163
1.40001
1.40001
1.40001
1.40001
1.40001
1.40001
1.40001
1.4
1.33207
1.4
1.40001
1.39762
1.40001
1.02284
1.40001
1.40001
1.40001
1.40001
1.73141
1.40001
1.40001
1.40001
1.40001
1.01398
1.40001
1.40001
1.81592
1.83984
1.4
1.40001
1.40001
1.28269
1.40001
1.40001
1.40001
1.40001
1.40001
1.40001
1.3448
1.41206
1.80386
1.40001
1.40001
1.40001
1.84282
1.27876
1.40001
1.40001
1.40001
1.83602
1.84683
1.40001
1.40001
1.40001
1.40001
1.40001
1.40001
1.40001
1.40001
1.40001
1.03484
1.40001
1.40001
1.83962
1.02075
1.40001
1.83911
1.40001
1.04565
1.40001
1.40001
1.02979
1.40001
1.40001
1.40001
1.40001
1.40001
1.40001
1.40001
1.83315
1.84073
1.40001
1.40001
1.40001
1.40001
1.80194
1.40001
1.54345
1.0314
1.40001
1.40001
1.40001
1.40001
1.40001
1.40001
1.40001
1.42949
1.40001
1.40001
1.63022
1.40001
1.40001
1.40001
1.74208
1.40001
1.40001
1.40001
1.40001
1.03119
1.40001
1.40001
1.01764
1.02664
1.40001
1.40001
1.84295
1.40001
1.39173
1.40001
1.40001
1.40001
1.70945
1.0182
1.40001
1.01538
1.40001
1.17614
1.40001
1.40001
1.40001
1.84217
1.40001
1.40001
1.84192
1.40001
1.40001
1.40001
1.84153
1.40001
1.40001
1.83994
1.40001
1.40001
1.01976
1.40001
1.54252
1.40001
1.40001
1.84031
1.83849
1.69798
1.7853
1.40001
1.02121
1.40001
1.40001
1.82227
1.40001
1.04746
1.40001
1.40001
1.40001
1.84179
1.40001
1.40001
1.40001
1.40001
1.66335
1.40001
1.77766
1.83818
1.01994
1.40001
1.40001
1.06086
1.06174
1.40001
1.40001
1.40001
1.71675
1.73478
1.40001
1.40001
1.40001
1.40001
1.40001
1.40001
1.40001
1.58229
1.83586
1.39808
1.40001
1.79911
1.03438
1.40001
1.40001
1.40001
1.64575
1.40001
1.48921
1.40001
1.80305
1.83693
1.40001
1.01876
1.40001
1.83832
1.40001
1.40001
1.84063
1.81112
1.40001
1.83917
1.40001
1.00605
1.40001
1.40001
1.40001
1.84871
1.83263
1.78951
1.40001
1.84226
1.8425
1.40001
1.84245
1.40001
1.83827
1.40001
1.02908
1.36948
1.04608
1.40001
1.40001
1.40001
1.40001
1.40001
1.8414
1.40001
1.84166
1.40001
1.40001
1.40001
1.81987
1.40001
1.04086
1.84287
1.40001
1.02385
1.05112
1.03568
1.40001
1.62035
1.43937
1.84285
1.84285
1.40001
1.4
1.40001
1.40001
1.84219
1.40001
1.40001
1.84225
1.84116
1.40001
1.5366
1.39996
1.40001
1.3968
1.83554
1.25477
1.40001
1.22822
1.02659
1.02887
1.34816
1.84191
1.83415
1.48375
1.84134
1.84092
1.40001
1.40001
1.84314
1.84069
1.84242
1.83625
1.40001
1.83913
1.03741
1.84283
1.84087
1.84288
1.84513
1.25123
1.28149
1.3289
1.84028
1.35604
1.84217
1.40001
1.40001
1.8425
1.84339
1.40001
1.02055
1.84011
1.84008
1.40001
1.84218
1.84169
1.40001
1.84213
1.01487
1.83904
1.84143
1.83963
1.83603
1.40001
1.40001
1.40001
1.83996
1.6851
1.08054
1.84124
1.02854
1.84064
1.40001
1.40001
1.40001
1.40001
1.8386
1.84142
1.40001
1.40001
1.84139
1.02675
1.84303
1.01863
1.40001
1.83866
1.40001
1.01613
1.84313
1.12249
1.40001
1.84294
1.84401
1.84099
1.40001
1.40001
1.60095
1.84335
1.03835
1.84138
1.40001
1.83985
1.27319
1.8414
1.02765
1.40001
1.84247
1.0743
1.84247
1.03683
1.40001
1.84182
1.40001
1.82981
1.40001
1.63922
1.82523
1.746
1.04208
1.40001
1.84111
1.40001
1.84165
1.40001
1.84185
1.40001
1.40001
1.84002
1.36399
1.84439
1.002
1.7928
1.40001
1.69449
1.40001
1.84108
1.8417
1.84102
1.40001
1.79112
1.8392
1.79976
1.66941
1.84697
1.40001
1.69238
1.40001
1.84035
1.40001
1.46723
1.40001
1.80839
1.40001
1.84019
1.82206
1.82001
1.40001
1.83654
1.02334
1.40001
1.0277
1.40001
1.40001
1.40001
1.84139
1.40001
1.84244
1.40001
1.40001
1.40001
1.84234
1.82489
1.76799
1.84286
1.84577
1.02729
1.83436
1.83536
1.40001
1.78099
1.84151
1.8285
1.40001
1.83836
1.83836
1.40001
1.84685
1.84058
1.84137
1.84296
1.40001
1.40001
1.40001
1.84075
1.06333
1.40001
1.84205
1.40001
1.40001
1.01275
1.40001
1.40001
1.84192
1.84099
1.40001
1.84125
1.84848
1.8433
1.36487
1.84249
1.40001
1.84243
1.84175
1.76332
1.40001
1.40001
1.40001
1.84183
1.84281
1.84187
1.34401
1.40001
1.84936
1.84166
1.84048
1.40001
1.84042
1.84129
1.84184
1.85267
1.40001
1.84086
1.84542
1.78318
1.83981
1.85174
1.40001
1.8436
1.83702
1.84175
1.84199
1.83971
1.03284
1.83853
1.84521
1.40001
1.84204
1.84143
1.84247
1.8425
1.40001
1.84042
1.84117
1.40001
1.83984
1.77405
1.40001
1.40001
1.40001
1.83902
1.83947
1.40001
1.40001
1.6426
1.40001
1.80476
1.40001
1.40001
1.84091
1.80449
1.84051
1.8409
1.40001
1.40001
1.40001
1.70779
1.40001
1.8412
1.40001
1.40001
1.84278
1.84047
1.40001
1.84172
1.0231
1.84201
1.84373
1.10975
1.40001
1.05175
1.78015
1.84175
1.84031
1.8404
1.01826
1.83928
1.84232
1.02368
1.01435
1.40001
1.84006
1.84102
1.40001
1.40001
1.84138
1.40001
1.84482
1.40001
1.78646
1.40001
1.59131
1.84172
1.84407
1.7045
1.81589
1.83893
1.84196
1.81882
1.40001
1.02852
1.83804
1.84269
1.84501
1.40002
1.40001
1.40001
1.84153
1.40001
1.84326
1.84051
1.15261
1.40001
1.8419
1.39994
1.40001
1.40003
1.40005
1.8414
1.84321
1.39851
1.40001
1.40001
1.84152
1.84347
1.84226
1.84822
1.84108
1.08117
1.7879
1.40001
1.8382
1.84089
1.8435
1.83309
1.40001
1.84126
1.82965
1.8429
1.40001
1.84112
1.8419
1.26299
1.84137
1.84142
1.40001
1.84271
1.23543
1.84329
1.25801
1.84157
1.40001
1.84161
1.84317
1.84177
1.84166
1.84169
1.84963
1.8421
1.84285
1.40001
1.33665
1.84126
1.84235
1.22098
1.84154
1.37483
1.68561
1.84285
1.84967
1.84165
1.40001
1.84421
1.67472
1.84589
1.30985
1.84382
1.84947
1.40001
1.24146
1.40001
1.84319
1.40001
1.68579
1.40001
1.81435
1.24682
1.40001
1.84403
1.83424
1.40001
1.84122
1.8431
1.84731
1.84222
1.84813
1.40001
1.83852
1.40001
1.40001
1.40001
1.28736
1.84076
1.84235
1.84938
1.84166
1.84471
1.84674
1.8408
1.84238
1.30127
1.43291
1.40001
1.40001
1.84672
1.84218
1.84143
1.84191
1.40003
1.62828
1.40001
1.84576
1.78443
1.40001
1.40001
1.11621
1.84164
1.40001
1.40001
1.03104
1.84192
1.40001
1.83368
1.84185
1.83911
1.82181
1.8415
1.40001
1.05838
1.50684
1.84029
1.84184
1.40001
1.83991
1.84202
1.61526
1.41037
1.50003
1.40001
1.82904
1.84203
1.40001
1.40001
1.02026
1.40001
1.40001
1.84164
1.842
1.84249
1.84226
1.84226
1.84351
1.84156
1.84531
1.8414
1.40001
1.39629
1.83983
1.84048
1.39699
1.84199
1.84187
1.06106
1.02107
1.84395
1.83768
1.40001
1.40001
1.40155
1.84222
1.8404
1.84208
1.40001
1.84185
1.40001
1.23859
1.84579
1.84152
1.40001
1.59073
1.84486
1.40001
1.83735
1.40001
1.84051
1.69872
1.84055
1.40001
1.84102
1.84509
1.02532
1.84213
1.40001
1.84165
1.83557
1.40001
1.065
1.84536
1.77202
1.39759
1.82976
1.84148
1.40001
1.39755
1.83844
1.39766
1.84147
1.40001
1.40001
1.84103
1.40001
1.84234
1.84205
1.39653
1.74764
1.40001
1.84173
1.40001
1.40001
1.40001
1.40001
1.84188
1.40001
1.40001
1.84473
1.40001
1.84193
1.40001
1.66724
1.84242
1.84092
1.40001
1.40001
1.3962
1.40001
1.84167
1.84212
1.84091
1.8422
1.84042
1.84244
1.84144
1.40001
1.84177
1.84362
1.40001
1.84177
1.84061
1.40001
1.84322
1.33061
1.45993
1.8419
1.84201
1.84131
1.40001
1.84136
1.40001
1.84196
1.8427
1.40001
1.84217
1.40001
1.40001
1.40001
1.40001
1.83989
1.05506
1.39791
1.40001
1.84301
1.84507
1.40001
1.84132
1.40001
1.40512
1.04762
1.84124
1.39961
1.40001
1.84335
1.39831
1.84164
1.40001
1.39979
1.40001
1.84168
1.84838
1.84358
1.83975
1.04826
1.8389
1.84334
1.83995
1.51004
1.40001
1.40001
1.5854
1.84248
1.05141
1.04985
1.40001
1.84161
1.84053
1.84382
1.40001
1.40001
1.84327
1.84236
1.39989
1.40001
1.7208
1.01901
1.40001
1.48003
1.83747
1.84299
1.39823
1.84161
1.84843
1.40001
1.39906
1.40001
1.84313
1.8363
1.58212
1.40001
1.80768
1.40001
1.40136
1.84038
1.02831
1.84043
1.84143
1.39695
1.39992
1.78071
1.40001
1.3997
1.40001
1.84171
1.40001
1.40002
1.04387
1.84186
1.40001
1.40001
1.40001
1.40001
1.84725
1.63354
1.40001
1.40001
1.04769
1.84188
1.63662
1.40001
1.40001
1.40001
1.79925
1.82409
1.84348
1.40001
1.40001
1.83725
1.40001
1.84173
1.84357
1.40001
1.40001
1.83755
1.84198
1.82453
1.40001
1.40001
1.84032
1.84203
1.40001
1.40001
1.40001
1.84122
1.40001
1.40001
1.40001
1.84224
1.84304
1.84454
1.40001
1.84961
1.40004
1.08858
1.84045
1.84076
1.40001
1.84269
1.82463
1.84099
1.40001
1.40001
1.84267
1.40001
1.63786
1.84316
1.40001
1.04108
1.40001
1.83356
1.40001
1.40001
1.84629
1.40001
1.40001
1.40001
1.54332
1.84063
1.06088
1.40002
1.83567
1.40001
1.40001
1.84339
1.40001
1.84384
1.40001
1.40001
1.84101
1.84157
1.40001
1.40005
1.40001
1.40001
1.40001
1.40001
1.40001
1.40001
1.83678
1.84198
1.40001
1.83374
1.01109
1.83877
1.40001
1.84234
1.85107
1.8412
1.84975
1.83621
1.40001
1.40001
1.84626
1.40001
1.66445
1.84889
1.84036
1.40001
1.84606
1.84616
1.40001
1.78609
1.40001
1.84218
1.67229
1.84639
1.39763
1.83181
1.79328
1.84628
1.84236
1.43816
1.84137
1.84549
1.40001
1.84146
1.40001
1.84187
1.40001
1.40001
1.40001
1.40001
1.39635
1.84195
1.84146
1.759
1.40001
1.84326
1.40001
1.40001
1.40001
1.05664
1.40001
1.82972
1.40001
1.78154
1.82299
1.40001
1.40001
1.40001
1.81339
1.84303
1.40001
1.40001
1.84289
1.05717
1.47033
1.40001
1.84684
1.84233
1.78296
1.83006
1.84201
1.40001
1.84355
1.40001
1.40001
1.40001
1.40001
1.83694
1.84239
1.40001
1.83691
1.44835
1.84365
1.79124
1.40001
1.40001
1.79277
1.40001
1.40001
1.02523
1.71799
1.40001
1.40001
1.84607
1.40001
1.84581
1.802
1.40001
1.80161
1.05603
1.83958
1.84127
1.82336
1.40001
1.01549
1.40001
1.40001
1.40001
1.84229
1.76625
1.40001
1.84763
1.84179
1.4
1.84157
1.40001
1.40001
1.40001
1.40001
1.84128
1.39933
1.40001
1.83533
1.40001
1.40001
1.83859
1.82764
1.40001
1.84709
1.48869
1.40003
1.40001
1.84138
1.40001
1.84154
1.40001
1.41385
1.84237
1.40001
1.8415
1.40001
1.40001
1.52634
1.84223
1.40001
1.40001
1.40001
1.40001
1.40001
1.39687
1.01503
1.06291
1.41953
1.40001
1.413
1.40001
1.41298
1.40001
1.84239
1.40001
1.66904
1.40001
1.84121
1.40001
1.40001
1.40001
1.84139
1.40001
1.74334
1.84097
1.40001
1.62733
1.84294
1.40001
1.40001
1.84205
1.84125
1.40001
1.40001
1.44692
1.03384
1.40001
1.84112
1.40001
1.40001
1.40001
1.40001
1.47635
1.84357
1.40001
1.40001
1.40001
1.00485
1.40001
1.84112
1.84193
1.84303
1.40001
1.40001
1.40001
1.40001
1.6189
1.84422
1.40001
1.40001
1.40001
1.84884
1.83021
1.44791
1.40001
1.40001
1.40001
1.8428
1.82578
1.40001
1.04406
1.84165
1.83943
1.84128
1.83924
1.83722
1.40001
1.40001
1.84662
1.83998
1.84139
0.998684
1.44067
1.84444
1.40001
1.40001
1.40001
1.40001
1.40001
1.84179
1.05264
1.40001
1.40001
1.84125
1.60036
1.40001
1.84389
1.40001
1.40001
1.40001
1.01367
1.40001
1.40001
1.51151
1.84209
1.84184
1.40001
1.83601
1.84607
1.40001
1.47245
1.40001
1.84153
1.40001
1.84138
1.0567
1.40001
1.40001
1.40001
1.40001
1.84163
1.40007
1.40001
1.40001
1.40001
1.8262
1.40001
1.40001
1.40001
1.40001
1.84223
1.01567
1.74543
1.84462
1.40001
1.84259
1.40001
1.40001
1.40001
1.39715
1.40001
1.84255
1.40001
1.2157
1.40001
1.40001
1.40004
1.84331
1.0448
1.40001
1.84297
1.40001
1.84266
1.8356
1.00165
1.40001
1.40001
1.82841
1.40001
1.40001
1.00293
1.40001
1.84164
1.40001
1.79947
1.39937
1.84096
1.40001
1.40001
1.40001
1.40001
1.83879
1.40001
1.40001
1.83095
1.40001
1.40001
1.40001
1.40001
1.40001
1.40001
1.40001
1.40001
1.69266
1.40001
1.54632
1.8403
1.40001
1.40001
1.40001
1.01565
1.40001
1.40001
1.40001
1.40001
1.84534
1.8421
1.45179
1.40001
1.40001
1.8375
1.40001
1.40001
1.84173
1.40001
1.40002
1.40001
1.40001
1.40001
1.40002
1.84173
1.18895
1.82611
1.83589
1.39726
1.40001
1.40001
1.40001
1.64529
1.40001
1.40001
1.8403
1.84183
1.40001
1.40001
1.40001
1.40001
1.01507
1.40001
1.40001
1.40001
1.67451
1.40001
1.84121
1.84548
1.40001
1.84358
1.40001
1.40001
1.40001
1.62578
1.40001
1.83911
1.40001
1.82321
1.40001
1.40001
1.39642
1.83322
1.40001
1.40001
1.40001
1.40001
1.40001
1.83974
1.40002
1.40001
1.0194
1.83957
1.02117
1.40001
1.84456
1.40001
1.39558
1.40001
1.84347
1.84043
1.40001
1.82553
1.27789
1.83396
1.83965
1.40004
1.40001
1.40001
1.00868
1.40001
1.40001
1.40001
1.84234
1.65795
1.84621
1.40001
1.40001
1.40001
1.40001
1.39662
1.84104
1.40001
1.0483
1.40001
1.40001
1.40001
1.40001
1.40001
1.40001
1.40001
1.85115
1.84362
1.84224
1.40001
1.40001
1.39681
1.40001
1.37271
1.40001
1.40001
1.40001
1.05446
1.3718
1.40001
1.0146
1.01337
1.40001
1.82615
1.84148
1.40001
1.84456
1.84258
1.02176
1.69149
1.40001
1.40001
1.40001
1.05796
1.84184
1.40001
1.04529
1.40001
1.84452
1.47207
1.40001
1.40001
1.40001
1.40001
1.83514
1.84402
1.40001
1.40001
1.82999
1.40001
1.40001
1.83854
1.84042
1.40001
1.79581
1.84149
1.83814
1.35282
1.83936
1.40892
1.04279
1.73958
1.8425
1.40001
1.40001
1.40001
1.03971
1.40001
1.01975
1.84852
1.34596
1.82874
1.35593
1.40001
1.84078
1.58528
1.40001
1.40001
1.84463
1.40001
1.56359
1.84387
1.40001
1.40001
1.84288
1.84858
1.01485
1.6646
1.39991
1.40001
1.67796
1.40001
1.84825
1.33148
1.84065
1.84392
1.40001
1.40001
1.40001
1.40001
1.82445
1.40001
1.40001
1.84354
1.39967
1.84401
1.76677
1.83956
1.03757
1.40001
1.40001
1.40001
1.40001
1.84406
1.40005
1.84123
1.40001
1.84036
1.84578
1.45661
1.84859
1.52912
1.8418
1.40001
1.68319
1.04317
1.84626
1.84117
1.76554
1.47411
1.84396
1.83194
1.84196
1.84033
1.40001
1.31532
1.4695
1.40001
1.84087
1.60417
1.84459
1.40004
1.40001
1.40001
1.05274
1.84134
1.84094
1.76071
1.40001
1.56987
1.40001
1.84572
1.84585
1.40001
1.84375
1.84097
1.40001
1.40001
1.40001
1.84213
1.40001
1.58012
1.84563
1.70681
1.40001
1.84194
1.40001
1.40001
1.40001
1.40001
1.40001
1.40001
1.40001
1.40001
1.40001
1.40001
1.03228
1.40001
1.8165
1.02878
1.64317
1.39853
1.84002
1.40001
1.62753
1.40002
1.66879
1.79875
1.40001
1.403
1.8482
1.3056
1.40001
1.84681
1.84174
1.33188
1.40001
1.83711
1.84334
1.84466
1.40001
1.84139
1.8412
1.84059
1.40001
1.59905
1.40001
1.40006
1.84448
1.40001
1.84233
1.46319
1.84017
1.40001
1.40001
1.84078
1.84546
1.07309
1.40001
1.83951
1.73346
1.81464
1.40001
1.40001
1.83893
1.84839
1.39822
1.40001
1.79864
1.39685
1.84179
1.40004
1.40001
1.40001
1.40001
1.40001
1.60395
1.40001
1.74331
1.84405
1.73172
1.84325
1.40001
1.4028
1.40001
1.40001
1.83826
1.40001
1.84004
1.40001
1.40001
1.40001
1.40001
1.4
1.40001
1.455
1.62918
1.40001
1.40001
1.05213
1.40001
1.84175
1.0418
1.84867
1.40001
1.62733
1.39979
1.84053
1.67267
1.04957
1.63132
1.40004
1.84306
1.84167
1.40001
1.65491
1.84498
1.84058
1.39838
1.8372
1.7947
1.06707
1.40001
1.40001
1.39782
1.40001
1.83935
1.40001
1.05057
1.84441
1.40001
1.40001
1.7887
1.40001
1.84373
1.40001
1.84239
1.40001
1.06808
1.40001
1.40001
1.84423
1.84687
1.84377
1.40001
1.83885
1.84136
1.83713
1.40001
1.40001
1.83498
1.4
1.12951
1.40001
1.40001
1.40001
1.84203
1.40001
1.84119
1.68906
1.83703
1.40001
1.82814
1.39941
1.40001
1.40001
1.40001
1.40001
1.40001
1.40001
1.11776
1.40001
1.40001
1.82739
1.40001
1.84637
1.84272
1.40001
1.06281
1.02221
1.40001
1.84368
1.47027
1.05248
0.999666
1.40001
1.84459
1.40001
1.84748
1.00913
1.40146
1.40001
1.40001
1.39954
1.40001
1.40001
1.40001
1.39992
1.56855
1.84168
1.40001
1.40001
1.84383
1.66435
1.40001
1.81878
1.8359
1.84693
1.57084
1.83474
1.40001
1.82871
1.40001
1.83698
1.40001
1.84395
1.83942
1.39693
1.84351
1.84001
1.40001
1.40001
1.40001
1.40001
1.40001
1.31314
1.84165
1.40004
1.40003
1.03171
1.4
1.0606
1.05285
1.40001
1.83883
1.84005
1.84443
1.40001
1.84076
1.40001
1.03886
1.40001
1.40001
1.84465
1.23332
1.84087
1.40001
1.84261
1.40001
1.38186
1.84004
1.40001
1.40001
1.40001
1.84187
1.40001
1.84052
1.01693
1.40001
1.40001
1.65923
1.40001
1.40001
1.62945
1.40001
1.40001
1.84139
1.40001
1.40001
1.40001
1.40001
1.40001
1.83899
1.8419
1.40001
1.84043
1.84094
1.0349
1.59264
1.83952
1.40001
1.40001
1.79876
1.39901
1.40001
1.40001
1.84131
1.838
1.70429
1.40001
1.84155
1.046
1.81943
1.39958
1.40001
1.84433
1.40004
1.83675
1.76035
1.73794
1.40001
1.40001
1.84172
1.08833
1.0391
1.40001
1.8436
1.40001
1.84239
1.40001
1.64672
1.40001
1.40001
1.8147
1.68109
1.04247
1.40001
1.39812
1.40001
1.40001
1.42571
1.56375
1.84155
1.40001
1.84761
1.40001
1.40001
1.40001
1.40001
1.40001
1.40001
1.46411
1.04438
1.40001
1.40001
1.41387
1.40001
1.40001
1.40001
1.40001
1.40001
1.84354
1.40001
1.40001
1.84064
1.8405
1.71764
1.40001
1.40001
1.40001
1.23069
1.84405
1.7095
1.40001
1.40001
1.40001
1.40001
1.84298
1.40001
1.40001
1.40001
1.8408
1.40001
1.40001
1.72001
1.85512
1.43493
1.14536
1.83951
1.71183
1.84193
1.40001
1.613
1.40001
1.40001
1.40001
1.04373
1.40279
1.02376
1.40001
1.01571
1.00625
1.40001
1.01856
1.40001
1.40001
1.40001
1.58494
1.40001
1.8452
1.84238
1.40168
1.60926
1.769
1.04111
1.17576
1.28101
1.40001
1.83744
1.83657
1.83645
1.84185
1.77935
1.26862
1.40001
1.78137
1.40001
1.82643
1.40001
1.40001
1.39644
1.40994
1.40001
1.40001
1.40001
1.83968
1.40001
1.05263
1.40001
1.84289
1.05424
1.40001
1.40001
1.84184
1.40001
1.8242
1.4005
1.40001
1.40001
1.83642
1.80563
1.40001
1.84848
1.40001
1.40001
1.41472
1.40001
1.59058
1.40001
1.40001
1.02844
1.40001
1.40001
1.838
1.40001
1.84276
1.40001
1.40004
1.05879
1.40001
1.40001
1.02684
1.40083
1.40001
1.83844
1.05646
1.84079
1.05241
1.84179
1.40001
1.40001
1.40001
1.40001
1.40001
1.40001
1.40001
1.40001
1.40001
1.40001
1.40001
1.818
1.40001
1.83427
1.83829
1.04944
1.40001
1.40001
1.40001
1.40001
1.40001
1.40001
1.80572
1.40001
1.40001
1.02707
1.40001
1.40001
1.8375
1.40001
1.40001
1.57172
1.77075
1.04183
1.01754
1.0982
1.12046
1.40001
1.39637
1.02974
1.40025
1.80184
1.39692
1.40001
1.40001
1.83902
1.40001
1.40001
1.40001
1.18759
1.40002
1.56111
1.40001
1.40001
1.58553
1.84145
1.40001
1.0395
1.40001
1.40001
1.40001
1.39684
1.40001
1.84364
1.84197
1.40001
1.05416
1.40001
1.62702
1.0567
1.40001
1.28467
1.40001
1.39591
1.00452
1.40001
1.40001
1.40001
1.39611
1.01335
1.40001
1.01761
1.39845
1.63539
1.80668
1.02207
1.0311
1.40001
1.39098
1.40001
1.39866
1.40001
1.84093
1.84343
1.40001
1.40055
1.84075
1.8405
1.40001
1.40001
1.84192
1.40001
1.40001
1.40005
1.40001
1.84467
1.40001
1.40001
1.41808
1.40001
1.39858
1.0678
1.40001
1.40001
1.40001
1.40001
1.40001
1.84671
1.41912
1.40005
1.40001
1.40001
1.40001
1.40001
1.40001
1.40004
1.40001
1.05601
1.48286
1.39862
1.82144
1.84535
1.40001
1.41587
1.84168
1.78572
1.40001
1.40001
1.00703
1.84433
1.40001
1.83878
1.40001
1.83954
1.68802
1.04711
1.40001
1.05417
1.81502
1.39967
1.40001
1.04452
1.03726
1.40001
1.40001
1.75046
1.40001
1.4
1.02364
1.40001
1.40001
1.40001
1.54423
1.40001
1.05032
1.8403
1.40001
1.40001
1.40001
1.40001
1.82501
1.40001
1.40001
1.83969
1.79736
1.40001
1.40001
1.40001
1.84593
1.01268
1.40001
1.8418
1.84207
1.40001
1.75231
1.4
1.40003
1.40001
1.40001
1.8315
1.40048
1.40001
1.06182
1.63714
1.40001
1.40001
1.39725
1.40001
1.40001
1.83678
1.40001
1.40001
1.40004
1.40001
1.84368
1.40001
1.40001
1.40001
1.40001
1.40001
1.40001
1.40001
1.5878
1.40001
1.84204
1.40001
1.40001
1.84342
1.40001
1.40001
1.40001
1.82878
1.83841
1.44304
1.40001
1.3976
1.40001
1.40001
1.40001
1.40001
1.83789
1.40001
1.40001
1.84288
1.03628
1.40001
1.40001
1.40001
1.40001
1.40001
1.40001
1.75809
1.40001
1.40001
1.8465
1.8418
1.40001
1.40001
1.40001
1.84168
1.84316
1.40001
1.39964
1.84475
1.40001
1.40001
1.40001
1.40002
1.05279
1.43061
1.39618
1.39624
1.40001
1.40001
1.04771
1.84154
1.40001
0.988409
1.40001
1.84035
1.82422
1.03637
1.39941
1.84162
1.84297
1.84107
1.40001
1.40001
1.31455
1.79695
1.75773
1.01043
1.40001
1.40001
1.40001
1.84007
1.84089
1.01135
1.39731
1.40001
1.84367
1.05087
1.40001
1.83398
1.05118
1.37469
1.40668
1.40001
1.84658
1.40001
1.40001
1.40001
1.40001
1.40001
1.40001
1.40011
1.78534
1.40001
1.40001
1.84732
1.40001
1.40001
1.40001
1.8418
1.40001
1.05642
1.40001
1.40001
1.40001
1.54385
1.40001
1.40001
1.40001
1.40001
1.40001
1.17043
1.40001
1.04947
1.40001
1.84214
1.40007
1.23504
1.258
1.40002
1.4038
1.63522
1.40001
1.40001
1.02503
1.84132
1.84227
1.84172
1.40001
1.03134
1.0127
1.40001
1.84061
1.40001
1.40001
1.40001
1.40001
1.40001
1.40004
1.40001
1.03712
1.68906
1.40001
1.40001
1.02621
1.38946
1.40001
1.40001
1.40001
1.40001
1.00341
1.40001
1.09902
1.40001
1.40001
1.84971
1.40001
1.40001
1.05949
1.40001
1.83855
1.40001
1.04124
1.40001
1.04947
1.40001
1.40807
1.84316
1.85152
1.40001
1.40001
1.84072
1.40001
1.40001
1.48276
1.39674
1.40001
1.39818
1.40001
1.8462
1.40001
1.01285
1.40002
1.83594
1.39868
1.40001
1.40001
1.20675
1.40001
1.39896
1.04098
1.84451
1.55167
1.40001
1.40001
1.27659
1.40001
1.40001
1.40001
1.21294
1.40001
1.40001
1.40001
1.8413
1.40001
1.0438
1.4
1.40001
1.40001
1.40001
1.02604
1.84051
1.80885
1.04253
1.40001
1.835
1.40001
1.40001
1.84025
1.84005
1.77448
1.04673
1.39774
1.39922
1.40001
1.84194
1.40001
1.40001
1.40001
1.40001
1.84089
1.40005
1.40001
1.40001
1.84558
1.40001
1.40001
1.84201
1.03834
1.40001
1.40001
1.40001
1.03447
1.40001
1.4
1.4
1.39864
1.40001
1.40001
1.40001
1.40001
1.74277
1.40001
1.83882
1.84005
1.8411
1.84126
1.84166
1.84172
1.40001
1.84374
1.40001
1.84408
1.82139
1.40001
1.39884
1.05052
1.77914
1.3999
1.40001
1.40001
1.40001
1.40001
1.3856
1.40001
1.46806
1.40001
1.40001
1.40001
1.23329
1.84203
1.84425
1.83994
1.77436
1.39988
1.40001
1.42413
1.84349
1.39795
1.44989
1.39717
1.00457
1.40001
1.40003
1.40001
1.40001
1.40001
1.40001
1.40001
1.84132
1.05819
1.84127
1.84183
1.39572
1.00961
1.40001
1.40001
1.40001
1.84218
1.01771
1.79071
1.0323
1.84391
1.8381
1.04886
1.84162
1.4246
1.40001
1.8453
1.18609
1.40001
1.39874
1.04248
1.40001
1.02782
1.40001
1.8415
1.83414
1.1458
1.40001
1.84001
1.00466
1.40001
1.02032
1.40001
1.83785
1.40001
1.40001
1.83826
1.40001
1.23843
1.40001
1.39968
1.02763
1.8433
1.39949
1.40001
1.03045
1.40001
1.40001
1.40001
1.40001
1.64535
1.40001
1.84231
1.40001
1.40001
1.85511
1.40001
1.40001
1.84249
1.40001
1.05153
1.40001
1.02904
1.40002
1.40001
1.40001
1.40001
1.40001
1.8233
1.65406
1.84163
1.40001
1.83181
1.81108
1.00358
1.04168
1.40001
1.40001
1.84429
1.40001
1.05213
1.40001
1.3866
1.40001
1.40001
1.84324
1.40001
1.8396
1.04944
1.85937
1.40001
1.04193
1.40001
1.40001
1.84436
1.80654
1.40001
1.40004
1.40001
1.84267
1.40001
1.40001
1.06072
1.39937
1.02903
1.40001
1.40001
1.40001
1.8176
1.84627
1.84081
1.40001
1.40001
0.994507
1.40001
1.83947
1.40001
1.40001
1.40001
1.81805
1.83988
1.83823
1.00093
1.84425
1.84163
1.03444
1.84229
1.40005
1.04079
1.40571
1.40001
1.40001
1.84249
0.990311
1.67264
0.99038
1.84142
1.39753
1.02562
1.84468
1.40001
1.40001
1.40001
1.40001
1.84024
1.84049
1.03138
1.40001
1.40003
1.05009
1.40004
1.40001
1.02523
1.04248
1.69011
1.84274
1.39848
1.83821
1.40001
1.84559
1.1862
1.04448
1.84186
1.85118
1.40001
1.84179
1.40001
1.40001
1.84414
1.40001
1.74456
1.84188
1.40001
1.40001
1.40001
1.40001
1.84205
1.80544
1.84055
1.40001
1.40001
1.84052
1.84456
1.84133
1.40001
1.84199
1.40001
1.40001
1.40001
1.40001
1.40001
1.04459
1.25933
1.04561
1.40001
1.40001
1.84033
1.40001
1.40001
1.84243
1.03931
1.40001
1.84414
1.80699
1.82282
1.04336
1.40001
0.995404
1.40001
1.40003
1.83884
1.61629
1.83901
1.80285
1.40001
1.0454
1.40001
1.83353
1.7169
1.01706
1.40001
1.40001
1.40001
1.18913
1.40001
1.40001
1.84974
1.40001
1.01024
1.84144
1.40001
1.40001
1.40001
1.40001
1.40001
1.75482
1.5011
1.40001
1.84
1.40001
1.83876
1.40001
1.39698
1.40001
1.84246
1.84458
1.84168
1.84825
1.39959
1.83926
1.40001
1.84172
1.84141
1.75309
1.40001
1.40001
1.05031
1.84102
1.40001
1.40001
1.8379
1.8413
1.84202
1.40001
1.83944
1.40001
1.40001
1.40004
1.8444
1.84059
1.52931
1.4951
1.8419
1.84247
1.09817
1.40001
1.40001
1.40001
1.40001
1.40002
1.55654
1.40001
1.40001
1.77204
1.02772
1.39998
1.40001
1.83937
1.39987
1.39982
1.4646
1.81674
1.83901
1.30075
1.40001
1.02182
1.40001
1.38758
1.84203
1.84443
1.84361
1.39899
1.40001
1.40001
1.01654
1.40001
1.40001
1.84219
1.44949
1.40001
1.40001
1.40001
1.40001
1.40001
1.40001
1.40001
1.39994
1.84056
1.40002
1.40001
1.40001
1.40001
1.40001
1.68512
1.40001
1.60969
1.40001
1.40001
1.84152
1.84638
1.02578
1.39877
1.40001
1.4
1.40001
1.01884
1.83899
1.84115
1.40001
1.40001
1.40001
1.40001
1.40001
1.40001
1.40001
1.40001
1.84084
1.82971
1.0509
1.45123
1.04009
1.40001
1.02236
1.40001
1.8406
1.52157
1.40001
1.40001
1.07316
1.40001
1.82309
1.19031
1.39651
1.02165
1.40001
1.40001
1.83716
1.40005
1.39727
1.0254
1.83925
1.84038
1.40001
1.40001
1.40001
1.40001
1.78789
1.40001
1.40001
1.83684
1.39895
1.84007
1.40012
1.40001
1.40001
1.04172
1.40001
1.40001
1.84231
1.02016
1.15997
1.03662
1.84278
1.39925
1.40001
1.83626
1.02324
1.04324
1.40064
1.40001
1.40001
1.83846
1.40005
1.59361
1.40001
1.40001
1.83802
1.05131
1.40001
1.40001
1.40014
1.83886
1.40012
1.82721
1.40001
1.40004
1.40001
1.40001
1.07744
1.40001
1.18107
1.40002
1.40001
1.83988
1.048
1.40001
1.15713
1.19061
1.40001
1.40001
1.84254
1.40001
1.40001
1.40001
1.83777
1.84065
1.40006
1.83868
1.83918
1.14557
1.84168
1.81007
1.40001
1.40001
1.83864
1.4
1.40001
1.40001
1.40001
1.40001
1.8449
1.84183
1.40001
1.40001
1.40001
1.84217
1.40023
1.40001