/*--------------------------------*- C++ -*----------------------------------*\
  =========                 |
  \\      /  F ield         | OpenFOAM: The Open Source CFD Toolbox
   \\    /   O peration     | Website:  https://openfoam.org
    \\  /    A nd           | Version:  12
     \\/     M anipulation  |
\*---------------------------------------------------------------------------*/
FoamFile
{
    format      ascii;
    class       surfaceScalarField;
    location    "24.8";
    object      phi;
}
// * * * * * * * * * * * * * * * * * * * * * * * * * * * * * * * * * * * * * //

dimensions      [1 0 -1 0 0 0 0];

internalField   nonuniform List<scalar> 
19404
(
-0.000141002
5.66902e-07
-0.000140905
1.99646e-07
-0.00014177
-4.68409e-07
-0.000147119
-1.1996e-06
-0.000153407
-1.21261e-06
-0.000155434
-5.25024e-07
-0.00015579
-1.69132e-07
-0.000155765
1.83755e-08
-0.000154985
6.23704e-07
-0.00015053
1.59453e-06
-0.000146236
1.13961e-06
-0.000145443
6.27496e-07
-0.000145377
7.71895e-08
-0.000145756
-6.08322e-07
-0.000146626
-1.08769e-06
-0.000148109
-1.05438e-06
-0.00015096
-4.35023e-07
-0.000153721
6.2909e-08
-0.000154739
4.26871e-07
-0.000154855
8.44185e-07
-0.000154673
1.2377e-06
-0.000154366
7.67338e-07
-0.0001537
4.77669e-07
-0.000152306
2.62511e-08
-0.000151326
-3.93103e-07
-0.000150559
-7.64927e-07
-0.000149782
-5.10483e-07
-0.000149268
-1.00053e-07
-0.000149134
6.77266e-08
-0.000149755
1.31238e-07
-0.000153307
4.82147e-07
-0.000156318
6.46198e-07
-0.000157682
4.37154e-07
-0.000158261
1.99725e-07
-0.000158469
3.97301e-08
-0.000158426
-1.19695e-07
-0.000157174
-2.78385e-07
-0.000152549
-1.58899e-07
-0.000150595
-1.53434e-07
-0.000150268
-2.07902e-07
-0.000150214
-3.64077e-07
-0.000150614
-4.98727e-07
-0.00015467
-5.84345e-07
-0.000160156
-4.32385e-07
-0.000162274
-3.298e-07
-0.000162803
-2.0917e-07
-0.000162918
-1.07871e-07
-0.000162825
1.03426e-08
-0.000161345
9.05072e-08
-0.000156343
2.45017e-08
-0.000153368
-1.97793e-07
-0.00015284
-4.64967e-07
-0.000152846
-6.36015e-07
-0.000153054
-8.90157e-07
-0.000155688
-8.57578e-07
-0.000161854
-4.52448e-07
-0.000165371
-1.14171e-07
-0.000166336
3.34372e-08
-0.000166593
2.41874e-07
-0.000166598
3.54788e-07
-0.000166248
3.51698e-07
-0.000162026
2.54201e-07
-0.000156504
1.01552e-07
-0.000154797
-9.959e-08
-0.00015468
-1.73266e-07
-0.000154827
-4.09994e-07
-0.000157386
-4.31579e-07
-0.000164816
-8.3761e-08
-0.00016965
1.78438e-07
-0.000171158
3.8164e-07
-0.000171576
5.05232e-07
-0.000171682
5.59307e-07
-0.000171378
5.4135e-07
-0.000166989
2.99245e-07
-0.000157866
-6.03093e-08
-0.000153499
-3.01617e-07
-0.000152923
-3.85192e-07
-0.000153021
-6.54007e-07
-0.000155923
-7.96108e-07
-0.000165398
-3.71244e-07
-0.00017201
-8.06949e-08
-0.000174381
2.21153e-07
-0.000175186
4.20868e-07
-0.000175445
5.05846e-07
-0.00017485
3.62857e-07
-0.000165851
-1.41095e-07
-0.000152113
-6.50919e-07
-0.00014572
-1.03159e-06
-0.0001451
-1.55213e-06
-0.000145945
-2.14722e-06
-0.000157093
-2.40486e-06
-0.000171118
-1.95983e-06
-0.000176333
-9.45203e-07
-0.000177621
-3.99544e-07
-0.000177744
-1.06927e-06
-0.000169741
-1.5012e-06
-0.000145864
-5.83217e-06
-9.24804e-05
-5.11001e-05
3.09871e-05
-0.000143381
5.13745e-07
-0.000143331
-4.48045e-07
-0.000144248
-1.27529e-06
-0.000148197
-1.71639e-06
-0.000153086
-1.56762e-06
-0.000154848
-7.99345e-07
-0.000155006
-9.45259e-08
-0.000154164
1.10738e-06
-0.000152443
2.19431e-06
-0.00015113
2.11086e-06
-0.000149131
1.57338e-06
-0.000147976
5.43795e-07
-0.000147617
-3.82793e-07
-0.000147512
-9.59986e-07
-0.000147424
-1.28522e-06
-0.000147716
-1.2961e-06
-0.000149927
-7.90477e-07
-0.000152329
3.22122e-07
-0.000153335
1.32462e-06
-0.00015412
1.92919e-06
-0.000155057
1.36431e-06
-0.000155241
8.79689e-07
-0.00015518
3.87983e-07
-0.000154664
-3.99019e-08
-0.000152612
-5.57709e-07
-0.000150618
-9.69736e-07
-0.000149411
-3.92435e-07
-0.000148841
7.23212e-08
-0.000148677
3.52845e-07
-0.000149186
5.05692e-07
-0.000153422
7.95075e-07
-0.000157245
6.40226e-07
-0.000158642
3.17895e-07
-0.000159064
8.27028e-08
-0.000159154
-1.16222e-07
-0.000159086
-3.17774e-07
-0.000157498
-3.53642e-07
-0.000152893
-1.67167e-07
-0.00015107
-1.62686e-07
-0.000150804
-2.87776e-07
-0.000150783
-5.63865e-07
-0.000151187
-8.23715e-07
-0.000154987
-8.99792e-07
-0.00016018
-7.17557e-07
-0.000162247
-4.86309e-07
-0.000162798
-2.40625e-07
-0.000162904
-4.53279e-08
-0.000162795
1.21649e-07
-0.000161785
1.76497e-07
-0.000157822
7.86907e-08
-0.000154766
-5.34722e-07
-0.000153757
-7.9106e-07
-0.000153513
-9.06126e-07
-0.000153559
-1.00922e-06
-0.000155477
-1.1682e-06
-0.000161374
-7.9121e-07
-0.000164839
-7.16341e-08
-0.000165979
3.88184e-07
-0.000166345
6.59704e-07
-0.000166419
7.21778e-07
-0.000166211
6.7263e-07
-0.000162648
4.66805e-07
-0.000156995
8.97667e-08
-0.000154871
-2.26217e-07
-0.000154433
-4.06609e-07
-0.000154489
-5.02868e-07
-0.000155909
-6.93607e-07
-0.000162591
-2.14991e-07
-0.000167946
6.38935e-07
-0.000169997
1.06377e-06
-0.000170739
1.13725e-06
-0.000171001
1.1135e-06
-0.000171018
9.18696e-07
-0.000167506
6.92487e-07
-0.000158298
1.34929e-07
-0.000153399
-3.71381e-07
-0.000152172
-8.16746e-07
-0.000152212
-1.11816e-06
-0.000153509
-1.43522e-06
-0.000161734
-1.17661e-06
-0.000169706
-1.40574e-07
-0.000173005
4.5027e-07
-0.000174188
5.34526e-07
-0.00017461
4.97726e-07
-0.000174343
3.49905e-07
-0.000166569
2.19831e-07
-0.000152646
-5.76392e-07
-0.000145173
-1.60264e-06
-0.000143537
-3.11729e-06
-0.000143521
-4.15028e-06
-0.000148851
-5.25005e-06
-0.000159919
-4.70447e-06
-0.000165463
-2.98034e-06
-0.000166725
-3.25007e-06
-0.00016649
-4.71852e-06
-0.000158215
-6.44689e-06
-0.000136936
-1.28807e-05
-0.000115116
-6.49122e-05
4.39198e-05
-0.000145491
-1.3518e-07
-0.000145578
-9.57076e-07
-0.000145856
-1.53145e-06
-0.000147783
-1.7569e-06
-0.0001501
-1.26381e-06
-0.000151127
-1.16946e-07
-0.000151122
1.25912e-06
-0.000151095
2.33593e-06
-0.000151304
2.0207e-06
-0.000151514
1.75069e-06
-0.000151419
1.04094e-06
-0.00015067
3.22697e-07
-0.000149385
-4.97194e-07
-0.000148161
-9.39989e-07
-0.000146947
-1.00495e-06
-0.000146257
-5.19268e-07
-0.000146234
-4.37921e-08
-0.000148199
7.11403e-07
-0.000151651
1.57875e-06
-0.000154196
1.81242e-06
-0.000155362
1.15718e-06
-0.000155659
6.15732e-07
-0.000155605
1.915e-07
-0.000155411
-1.523e-07
-0.00015269
-3.68711e-07
-0.000148434
6.86402e-08
-0.000147115
5.09317e-07
-0.000146861
5.67692e-07
-0.000146866
5.50462e-07
-0.000147974
5.08415e-07
-0.000153349
4.64899e-07
-0.000157527
-6.6458e-09
-0.000158748
5.26686e-08
-0.000158979
-1.58131e-07
-0.000158958
-2.99274e-07
-0.000158786
-2.83223e-07
-0.00015622
7.68428e-08
-0.00015209
3.20919e-07
-0.00015078
9.16141e-08
-0.000150608
-2.67917e-07
-0.000150581
-6.51106e-07
-0.000150838
-9.92556e-07
-0.000153978
-1.11522e-06
-0.000158477
-7.25803e-07
-0.000160489
-1.52225e-07
-0.000161209
2.53422e-07
-0.000161435
3.932e-07
-0.000161453
4.22594e-07
-0.000161188
3.29657e-07
-0.000158205
1.51757e-07
-0.000154749
-5.77048e-07
-0.000153384
-1.07292e-06
-0.000152826
-1.04467e-06
-0.000152688
-8.22681e-07
-0.000153167
-7.15333e-07
-0.000157527
-2.6728e-07
-0.000161745
7.11828e-07
-0.000163596
1.17425e-06
-0.000164356
1.14761e-06
-0.000164575
9.72209e-07
-0.000164572
7.78121e-07
-0.000162469
5.71193e-07
-0.000156709
9.21287e-08
-0.000153242
-4.19345e-07
-0.000152003
-4.70444e-07
-0.000151808
-3.95519e-07
-0.000152186
-5.17367e-07
-0.000157197
-4.95813e-07
-0.000164099
4.80647e-07
-0.000166957
1.28961e-06
-0.000167828
1.48086e-06
-0.000168023
1.42844e-06
-0.00016808
1.31414e-06
-0.000165953
1.18144e-06
-0.000157325
5.7304e-07
-0.000150952
-5.12681e-07
-0.000148907
-1.28117e-06
-0.000148677
-1.72522e-06
-0.000149034
-2.00922e-06
-0.000155369
-2.23594e-06
-0.000165505
-1.05485e-06
-0.000169373
2.83912e-07
-0.000170062
7.95586e-07
-0.000170293
9.63407e-07
-0.000169955
9.44116e-07
-0.000164097
8.55078e-07
-0.00015179
-3.451e-08
-0.000142623
-2.10321e-06
-0.000138696
-4.54169e-06
-0.00013819
-6.26384e-06
-0.000139451
-7.58434e-06
-0.000148594
-8.1122e-06
-0.000156382
-6.82622e-06
-0.000158531
-7.18359e-06
-0.000158655
-9.39979e-06
-0.000152772
-1.18259e-05
-0.000137045
-1.71461e-05
-0.000116209
-7.05013e-05
5.69913e-05
-0.000146853
-8.36939e-07
-0.000146486
-1.06085e-06
-0.000146101
-1.37399e-06
-0.000145603
-8.05801e-07
-0.000145726
5.63589e-08
-0.000146385
1.2748e-06
-0.000147094
2.29484e-06
-0.000149456
1.96943e-06
-0.000151574
1.35491e-06
-0.000151902
1.01823e-06
-0.000151858
5.81951e-07
-0.000151485
8.3845e-08
-0.000149955
-5.472e-07
-0.000146798
-4.85078e-07
-0.00014425
3.17904e-07
-0.000143399
7.06525e-07
-0.000143261
9.19166e-07
-0.000144851
1.2154e-06
-0.000151274
1.03291e-06
-0.000154645
7.51814e-07
-0.000155425
7.63279e-07
-0.000155526
3.20759e-07
-0.000155431
-6.33463e-08
-0.000154569
-2.47303e-09
-0.000149306
9.65427e-07
-0.000145556
1.50022e-06
-0.000145072
1.24726e-06
-0.000145016
8.56607e-07
-0.000145202
4.63997e-07
-0.000147488
9.9582e-08
-0.000153627
-1.60553e-07
-0.000157241
-2.4894e-07
-0.00015782
-1.98807e-07
-0.000157804
-9.07238e-09
-0.000157394
4.34689e-07
-0.000156225
8.3907e-07
-0.000153505
9.89627e-07
-0.000150711
8.38001e-07
-0.000149707
3.40709e-07
-0.000149433
-1.37582e-07
-0.000149356
-4.71653e-07
-0.000149347
-6.5629e-07
-0.000150696
-7.59935e-07
-0.000154709
-2.8383e-07
-0.000157243
5.09468e-07
-0.000158382
9.27723e-07
-0.000158975
9.46262e-07
-0.00015916
8.20448e-07
-0.000159139
6.24537e-07
-0.000157898
4.00676e-07
-0.00015367
-1.68764e-07
-0.000150894
-5.69639e-07
-0.00014961
-4.29173e-07
-0.000149171
-1.45525e-07
-0.000149229
8.28651e-09
-0.000152154
1.42078e-07
-0.000157806
8.42266e-07
-0.000160531
1.35103e-06
-0.000161464
1.27283e-06
-0.000161737
1.04308e-06
-0.000161767
7.77953e-07
-0.000160767
5.52407e-07
-0.000154597
3.52636e-07
-0.000149665
-9.30129e-08
-0.000148179
-5.01634e-07
-0.00014793
-6.79425e-07
-0.000148015
-7.66331e-07
-0.000150783
-9.09725e-07
-0.000158595
-2.98966e-07
-0.000162445
8.49201e-07
-0.000163366
1.47004e-06
-0.000163603
1.65744e-06
-0.000163684
1.71578e-06
-0.000162726
1.63386e-06
-0.00015561
1.20445e-06
-0.000147589
-5.78629e-08
-0.000144728
-1.91375e-06
-0.000144423
-2.63132e-06
-0.000144469
-2.94973e-06
-0.000147144
-3.227e-06
-0.000156472
-2.51063e-06
-0.000161903
-3.87074e-07
-0.000163048
1.0647e-06
-0.000163281
1.55698e-06
-0.00016327
1.46764e-06
-0.000159996
1.22219e-06
-0.000150437
2.14908e-07
-0.00014089
-2.22583e-06
-0.000134627
-5.32497e-06
-0.000132359
-8.07366e-06
-0.000132195
-1.01391e-05
-0.000134946
-1.12696e-05
-0.000141074
-1.14244e-05
-0.000143493
-1.19584e-05
-0.000143699
-1.47829e-05
-0.000141056
-1.74326e-05
-0.000135175
-1.97756e-05
-0.000121344
-6.49267e-05
6.48751e-05
-0.000146754
-1.23932e-06
-0.000145478
-1.00693e-06
-0.000142709
1.35618e-07
-0.000141485
9.05908e-07
-0.000141314
1.36396e-06
-0.000142588
2.08707e-06
-0.000146254
1.97696e-06
-0.000149598
1.14895e-06
-0.000151143
7.11863e-07
-0.000151499
2.43258e-07
-0.000151422
-8.30805e-08
-0.000151007
-2.93183e-07
-0.000146873
3.93563e-07
-0.000142483
1.40581e-06
-0.000141291
1.60049e-06
-0.000141104
1.51803e-06
-0.000141215
1.45002e-06
-0.000144624
1.05901e-06
-0.000151033
4.0908e-07
-0.000153871
1.24524e-07
-0.00015422
1.75972e-07
-0.000154156
2.03985e-07
-0.000153447
5.13537e-07
-0.000149796
1.51743e-06
-0.000145622
2.10342e-06
-0.000144038
1.95502e-06
-0.000143711
1.45036e-06
-0.000143616
8.52176e-07
-0.000143885
2.67179e-07
-0.000146823
-2.77104e-07
-0.000152004
-4.69596e-07
-0.000154096
-1.54818e-07
-0.000154428
4.04101e-07
-0.000154133
1.10743e-06
-0.000153503
1.6102e-06
-0.000152948
1.61735e-06
-0.000151573
1.39561e-06
-0.000149368
9.02642e-07
-0.000148186
3.22978e-07
-0.000147492
-1.01924e-07
-0.000146869
-2.02433e-07
-0.000146592
-3.85359e-08
-0.000146849
2.94083e-08
-0.000149983
2.87617e-07
-0.000153468
1.12708e-06
-0.000155095
1.48421e-06
-0.000155844
1.39717e-06
-0.00015608
1.17903e-06
-0.000156089
9.56521e-07
-0.000155566
6.92373e-07
-0.000151131
3.71702e-07
-0.000146928
1.28288e-07
-0.000145463
1.95481e-07
-0.000145149
2.98192e-07
-0.000145145
2.85579e-07
-0.000147069
3.07259e-07
-0.000153645
5.56709e-07
-0.00015722
9.98532e-07
-0.000157982
1.14278e-06
-0.000158056
1.07183e-06
-0.000158078
9.47208e-07
-0.000157313
9.16712e-07
-0.000151797
8.79192e-07
-0.000145959
4.34714e-07
-0.000144204
-7.48954e-07
-0.000143971
-1.19658e-06
-0.00014399
-1.35771e-06
-0.000145084
-1.45936e-06
-0.000151683
-1.0976e-06
-0.00015687
2.91593e-07
-0.000158156
1.44831e-06
-0.000158477
1.94895e-06
-0.000158566
2.10174e-06
-0.000158408
2.05336e-06
-0.000154456
1.69078e-06
-0.00014594
2.28202e-07
-0.000140931
-2.02495e-06
-0.000139918
-3.3252e-06
-0.000139885
-3.92067e-06
-0.000140298
-4.10565e-06
-0.000145965
-3.89715e-06
-0.000153891
-1.8947e-06
-0.000156671
5.1069e-07
-0.000157006
1.65937e-06
-0.000157211
1.9325e-06
-0.000155837
1.6484e-06
-0.000149739
8.23119e-07
-0.000140898
-2.08166e-06
-0.000133195
-5.35471e-06
-0.000128762
-8.56167e-06
-0.000127713
-1.13232e-05
-0.000127956
-1.36903e-05
-0.000131641
-1.47047e-05
-0.000135952
-1.56249e-05
-0.000137188
-1.8807e-05
-0.000136538
-2.23025e-05
-0.000135311
-2.3414e-05
-0.000122586
-6.00247e-05
7.02431e-05
-0.000144411
-9.81178e-07
-0.000140228
8.50369e-07
-0.000138388
1.49659e-06
-0.000138018
1.85573e-06
-0.000138179
2.12583e-06
-0.000141979
1.78536e-06
-0.000147245
9.62083e-07
-0.000149348
6.03508e-07
-0.000150013
1.80611e-07
-0.000150073
-2.14149e-07
-0.000149818
-4.14657e-07
-0.000146589
6.14505e-07
-0.000141256
2.02917e-06
-0.00013925
2.3576e-06
-0.000138964
2.20019e-06
-0.000138873
1.94015e-06
-0.000139743
1.66088e-06
-0.000145281
7.1403e-07
-0.000149997
2.5893e-07
-0.000151219
1.53459e-07
-0.000151372
3.18949e-07
-0.000150975
9.01686e-07
-0.000148381
2.02015e-06
-0.000145225
2.58395e-06
-0.000143649
2.31407e-06
-0.000142935
1.83945e-06
-0.000142587
1.29206e-06
-0.000142467
6.82483e-07
-0.000142627
1.00623e-07
-0.000144686
-3.22019e-07
-0.000147899
-7.12801e-08
-0.000149373
6.09773e-07
-0.000149968
1.48344e-06
-0.000150129
2.0496e-06
-0.000150218
2.06738e-06
-0.000150174
1.83515e-06
-0.000149866
1.55497e-06
-0.000148051
1.04063e-06
-0.000146316
3.67249e-07
-0.000144847
6.74059e-09
-0.000143582
2.94473e-07
-0.000142995
6.96313e-07
-0.000142999
9.13459e-07
-0.000145125
1.02936e-06
-0.000149836
1.48657e-06
-0.000152125
1.72994e-06
-0.000152884
1.60682e-06
-0.000153106
1.38352e-06
-0.000153137
1.17601e-06
-0.00015277
8.91084e-07
-0.000147965
8.29341e-07
-0.000142962
9.48406e-07
-0.00014174
5.65041e-07
-0.000141577
3.29308e-07
-0.000141618
1.89978e-07
-0.000143067
9.40748e-08
-0.000149515
1.27676e-07
-0.000153777
5.64664e-07
-0.000154597
9.97098e-07
-0.000154706
1.20888e-06
-0.000154599
1.36337e-06
-0.000153968
1.57199e-06
-0.000150396
1.55726e-06
-0.00014423
6.16502e-07
-0.000140973
-5.24117e-07
-0.000140561
-1.46922e-06
-0.000140509
-1.91914e-06
-0.000140766
-1.95095e-06
-0.000144738
-1.71225e-06
-0.000151229
-3.34911e-07
-0.000153572
1.36303e-06
-0.000154075
2.26732e-06
-0.000154327
2.4707e-06
-0.000154449
2.14106e-06
-0.000153561
1.66577e-06
-0.00014686
7.77047e-07
-0.000139886
-1.58801e-06
-0.000136428
-3.43153e-06
-0.000135601
-4.41194e-06
-0.000135579
-4.69185e-06
-0.000136963
-4.84326e-06
-0.000143983
-4.14303e-06
-0.000149993
-1.59134e-06
-0.00015216
6.32152e-07
-0.000152743
1.39536e-06
-0.000152884
1.32776e-06
-0.000150213
1.07731e-06
-0.000142838
-9.88183e-07
-0.000135042
-4.36091e-06
-0.000129151
-8.12474e-06
-0.000125533
-1.13864e-05
-0.000124773
-1.39592e-05
-0.000125495
-1.66816e-05
-0.000130046
-1.77833e-05
-0.000133404
-2.04741e-05
-0.000134346
-2.44602e-05
-0.000134852
-2.59684e-05
-0.000124644
-5.83081e-05
7.23507e-05
-0.000137842
6.99627e-07
-0.000135887
1.96721e-06
-0.000135516
2.10053e-06
-0.000135421
2.22118e-06
-0.00013719
1.83495e-06
-0.000143661
1.19474e-06
-0.000147521
2.81907e-07
-0.000148533
1.27986e-07
-0.000148518
-1.20024e-07
-0.000148229
-2.14958e-07
-0.000145054
8.04049e-07
-0.000140037
2.27572e-06
-0.000138031
2.53192e-06
-0.000137635
2.37413e-06
-0.000137539
2.17002e-06
-0.000137561
1.78004e-06
-0.000139844
1.42324e-06
-0.000145406
6.86925e-07
-0.000147808
4.0781e-07
-0.000148103
7.52594e-07
-0.000147864
1.47972e-06
-0.000146287
2.51036e-06
-0.000144396
2.93283e-06
-0.000143083
2.6383e-06
-0.000142353
2.06567e-06
-0.000142018
1.41968e-06
-0.000141784
8.66702e-07
-0.00014158
4.26481e-07
-0.000141411
1.27035e-07
-0.000141648
2.25359e-07
-0.000143502
6.74899e-07
-0.000144919
1.6217e-06
-0.000145922
2.47597e-06
-0.000147324
2.54376e-06
-0.000148342
2.15215e-06
-0.000148532
1.87783e-06
-0.00014847
1.60459e-06
-0.000147278
1.27614e-06
-0.000143963
6.57803e-07
-0.000141396
5.53705e-07
-0.000140153
8.20657e-07
-0.000139744
1.12912e-06
-0.000139706
1.32013e-06
-0.000141541
1.4356e-06
-0.000147371
1.57308e-06
-0.000150205
1.72483e-06
-0.000150784
1.68325e-06
-0.000150858
1.5216e-06
-0.000150843
1.33213e-06
-0.000150231
1.29241e-06
-0.000145215
1.54858e-06
-0.000140013
1.32132e-06
-0.000138761
6.12303e-07
-0.000138781
6.21261e-08
-0.00013888
-3.31661e-07
-0.00014023
-5.52962e-07
-0.000145801
-4.44946e-07
-0.000150216
3.05765e-07
-0.000151293
1.17067e-06
-0.000151476
1.65536e-06
-0.000151332
1.98853e-06
-0.000151066
2.13684e-06
-0.000149891
1.96189e-06
-0.000144765
1.21756e-06
-0.000139979
-4.75752e-07
-0.000138024
-1.59981e-06
-0.000137543
-2.08578e-06
-0.000137484
-2.08679e-06
-0.000138535
-1.98589e-06
-0.000144848
-1.21194e-06
-0.000150051
8.4792e-07
-0.000151566
2.30076e-06
-0.000152051
2.67823e-06
-0.000152384
2.44945e-06
-0.000152386
1.95018e-06
-0.000149118
1.20993e-06
-0.000141125
-2.11513e-07
-0.000135349
-2.89154e-06
-0.000132436
-4.12397e-06
-0.00013202
-4.92457e-06
-0.000132093
-5.64784e-06
-0.000134874
-5.89795e-06
-0.000142302
-4.72584e-06
-0.00014785
-2.07398e-06
-0.000150142
-1.62484e-07
-0.000150822
3.79348e-07
-0.000150617
3.22579e-07
-0.000146681
-3.35626e-07
-0.000139679
-2.76027e-06
-0.000132536
-6.50336e-06
-0.000127084
-1.04574e-05
-0.000123837
-1.40784e-05
-0.000123325
-1.66557e-05
-0.000124934
-1.9326e-05
-0.000130001
-2.13453e-05
-0.000132749
-2.533e-05
-0.000134346
-2.725e-05
-0.0001263
-5.74165e-05
7.21488e-05
-0.000133724
2.117e-06
-0.000133344
2.44647e-06
-0.000133209
2.32118e-06
-0.000133662
2.09769e-06
-0.000138712
1.35159e-06
-0.000145061
2.35865e-07
-0.000147084
1.39484e-07
-0.000147176
7.27793e-10
-0.000146915
2.64176e-08
-0.00014406
1.12634e-06
-0.000139052
2.66623e-06
-0.000136768
2.85376e-06
-0.000136295
2.54654e-06
-0.000136208
2.19044e-06
-0.000136216
1.62123e-06
-0.000136999
1.24106e-06
-0.000140349
4.59336e-07
-0.000143892
6.472e-07
-0.000144772
1.04581e-06
-0.000144794
2.06961e-06
-0.000143825
3.16349e-06
-0.000143268
3.68992e-06
-0.000143136
3.30715e-06
-0.00014272
2.51868e-06
-0.000141847
1.81829e-06
-0.000141381
1.0194e-06
-0.00014123
1.27576e-07
-0.000140791
1.26716e-07
-0.000139473
4.60494e-07
-0.000139061
1.02171e-06
-0.000139633
1.34355e-06
-0.000142365
2.06868e-06
-0.000144815
2.79196e-06
-0.000146468
2.62936e-06
-0.000147204
2.28853e-06
-0.000147384
1.9519e-06
-0.000147354
1.65612e-06
-0.000146591
1.32284e-06
-0.000141702
1.18066e-06
-0.000138314
1.20798e-06
-0.000137581
1.06801e-06
-0.000137461
1.03262e-06
-0.000137557
1.03611e-06
-0.0001396
1.13356e-06
-0.000145762
1.34551e-06
-0.000148819
1.66419e-06
-0.000149228
1.79383e-06
-0.000149248
1.7822e-06
-0.000149114
1.81156e-06
-0.000148137
2.12237e-06
-0.000144462
2.26108e-06
-0.000139552
1.36681e-06
-0.000137393
5.86391e-07
-0.000137154
-2.09942e-07
-0.000137194
-8.16587e-07
-0.000137953
-1.13248e-06
-0.000141866
-9.65388e-07
-0.000146716
1.93776e-07
-0.000148564
1.52286e-06
-0.000149004
2.28876e-06
-0.000149125
2.60023e-06
-0.000149244
2.39574e-06
-0.000149225
2.09544e-06
-0.000146793
1.68194e-06
-0.000140742
4.01576e-07
-0.000136674
-1.49867e-06
-0.000135069
-1.77675e-06
-0.000134717
-2.0855e-06
-0.000134799
-2.14767e-06
-0.000137996
-2.03783e-06
-0.000145761
-6.84436e-07
-0.000150143
1.63249e-06
-0.000151519
2.7342e-06
-0.000151765
2.81223e-06
-0.000151862
2.62098e-06
-0.000150488
2.21913e-06
-0.000143324
1.44511e-06
-0.000135944
-1.38055e-06
-0.000132003
-3.71577e-06
-0.000130217
-5.0497e-06
-0.000129901
-6.32176e-06
-0.000130106
-6.80236e-06
-0.000133571
-7.1356e-06
-0.000140499
-5.84552e-06
-0.000145422
-3.24657e-06
-0.000147854
-1.53772e-06
-0.000148551
-1.13206e-06
-0.000148026
-1.03037e-06
-0.000144441
-2.31902e-06
-0.000138214
-4.89465e-06
-0.00013114
-8.49386e-06
-0.000125549
-1.2851e-05
-0.0001224
-1.69088e-05
-0.000122133
-1.94431e-05
-0.000125695
-2.25367e-05
-0.000130613
-2.60562e-05
-0.000133267
-2.85524e-05
-0.000127981
-5.55985e-05
7.07557e-05
-0.000132264
2.88254e-06
-0.00013214
2.72054e-06
-0.000132203
2.2045e-06
-0.000134469
1.60495e-06
-0.000141062
1.12858e-07
-0.00014508
6.75104e-08
-0.000145736
1.52831e-07
-0.000145529
4.08897e-07
-0.000143459
1.57497e-06
-0.000139292
3.08426e-06
-0.00013722
3.49574e-06
-0.000136421
2.80027e-06
-0.000136146
2.44463e-06
-0.000136043
1.89937e-06
-0.000136499
8.91586e-07
-0.000137336
-2.26896e-07
-0.000138697
-7.35734e-09
-0.000140458
5.99458e-07
-0.000141605
2.00099e-06
-0.000141963
3.33412e-06
-0.000142045
4.39997e-06
-0.000142786
3.69884e-06
-0.000143294
3.20983e-06
-0.000143395
2.35889e-06
-0.000143035
1.48653e-06
-0.000142271
5.08264e-07
-0.000140877
-1.58045e-07
-0.000138574
2.44146e-08
-0.000136916
7.8598e-07
-0.000136503
1.28489e-06
-0.000136801
1.55196e-06
-0.000140727
1.95141e-06
-0.000145007
2.67599e-06
-0.000146606
2.72667e-06
-0.000146978
2.34015e-06
-0.00014698
1.98072e-06
-0.000146929
1.67216e-06
-0.000145851
1.60866e-06
-0.000140351
1.77706e-06
-0.000136476
1.38814e-06
-0.000135809
1.03855e-06
-0.000135796
6.18532e-07
-0.000136044
2.47449e-07
-0.000138337
2.41085e-07
-0.000144344
7.30809e-07
-0.000147644
1.51981e-06
-0.000148139
2.0812e-06
-0.000148108
2.34576e-06
-0.00014768
2.73885e-06
-0.000146945
2.87341e-06
-0.000144728
2.364e-06
-0.000140484
1.73828e-06
-0.000137763
5.2091e-07
-0.000136573
-6.0361e-07
-0.000136123
-1.00181e-06
-0.000136136
-9.86227e-07
-0.000137008
-8.92724e-07
-0.000141968
-2.0885e-07
-0.000146033
1.45119e-06
-0.000147497
2.5255e-06
-0.000148307
2.93618e-06
-0.00014872
2.52466e-06
-0.000148775
2.25326e-06
-0.000148141
1.95753e-06
-0.000142454
1.4819e-06
-0.000136383
-3.00545e-07
-0.000133356
-1.66666e-06
-0.000132695
-1.94385e-06
-0.000132706
-2.41352e-06
-0.000133464
-2.69311e-06
-0.000139754
-2.54742e-06
-0.000147869
-4.08545e-07
-0.000150803
2.03809e-06
-0.000151197
2.87798e-06
-0.000151262
3.04842e-06
-0.000150913
3.03586e-06
-0.000147318
2.74204e-06
-0.000139391
7.7776e-07
-0.000133597
-2.63088e-06
-0.000130334
-5.13012e-06
-0.000128728
-6.54683e-06
-0.000128583
-7.62655e-06
-0.000128878
-8.45668e-06
-0.000132619
-8.5161e-06
-0.000139096
-6.87603e-06
-0.000143791
-4.49569e-06
-0.000146444
-3.29676e-06
-0.000146822
-3.34724e-06
-0.000145985
-3.31298e-06
-0.000142458
-5.06801e-06
-0.000136908
-7.61004e-06
-0.000129876
-1.09921e-05
-0.000123879
-1.59919e-05
-0.000120804
-1.99426e-05
-0.000121482
-2.23456e-05
-0.00012696
-2.69133e-05
-0.00013084
-3.08009e-05
-0.000130375
-5.28456e-05
6.82192e-05
-0.000132008
2.94376e-06
-0.000131948
2.63479e-06
-0.000133241
1.60243e-06
-0.000137556
1.81004e-08
-0.000141704
-4.17703e-07
-0.000143476
8.631e-09
-0.000143568
6.73756e-07
-0.00014227
2.00805e-06
-0.000139238
3.51681e-06
-0.000137889
4.07301e-06
-0.000137378
3.47712e-06
-0.00013709
2.9879e-06
-0.000137104
1.94387e-06
-0.000137976
8.00726e-07
-0.000138063
-3.9727e-07
-0.00013749
-2.95195e-07
-0.000136095
2.5981e-07
-0.000135785
1.21876e-06
-0.000137153
2.00906e-06
-0.000139562
3.3039e-06
-0.000141778
4.2384e-06
-0.000143751
3.8361e-06
-0.00014482
2.6466e-06
-0.000145063
1.83376e-06
-0.00014492
1.1584e-06
-0.000143205
4.9069e-07
-0.000138928
-6.42624e-08
-0.000135693
6.10666e-07
-0.000134766
9.3396e-07
-0.000134595
1.04801e-06
-0.000134932
1.24248e-06
-0.000139383
1.48983e-06
-0.000145213
2.21971e-06
-0.000146913
2.49652e-06
-0.000147045
2.19261e-06
-0.000146997
2.03765e-06
-0.000146822
1.8604e-06
-0.000145243
2.11951e-06
-0.000140503
2.18959e-06
-0.000136479
1.59758e-06
-0.000135354
8.54806e-07
-0.000135267
1.68448e-07
-0.000135313
-4.80138e-07
-0.000136816
-5.3738e-07
-0.000142048
-7.88927e-08
-0.000145861
1.30352e-06
-0.0001467
2.41568e-06
-0.000146768
3.09841e-06
-0.000146593
3.38922e-06
-0.000146563
3.09952e-06
-0.000146098
2.84867e-06
-0.000143058
2.25486e-06
-0.000139179
8.89473e-07
-0.000136292
-5.41429e-07
-0.000134421
-5.70648e-07
-0.000133812
-5.6089e-07
-0.000133876
-6.57285e-07
-0.000136295
-6.73822e-07
-0.00014295
3.20431e-07
-0.000147024
2.07926e-06
-0.000148395
2.88494e-06
-0.000148617
2.56181e-06
-0.000148667
2.44522e-06
-0.00014854
2.26085e-06
-0.000145107
2.39514e-06
-0.000137317
1.34989e-06
-0.000133147
-9.02262e-07
-0.000131709
-1.9665e-06
-0.000131653
-2.78406e-06
-0.000131711
-3.46988e-06
-0.000133867
-4.03309e-06
-0.000142525
-3.46015e-06
-0.000148765
-2.38301e-07
-0.000150297
2.29641e-06
-0.000150563
3.21367e-06
-0.000150699
3.34653e-06
-0.000150041
3.13595e-06
-0.000144662
2.58425e-06
-0.000137191
-4.12806e-07
-0.000132426
-4.24477e-06
-0.000129628
-6.83359e-06
-0.000127931
-8.32278e-06
-0.000127413
-9.10507e-06
-0.000127685
-9.2087e-06
-0.000131292
-9.08715e-06
-0.000137625
-7.71678e-06
-0.000142141
-6.10153e-06
-0.000144688
-5.81205e-06
-0.000145022
-6.36557e-06
-0.00014387
-6.29151e-06
-0.000140309
-7.93286e-06
-0.000135226
-1.05285e-05
-0.000128346
-1.40991e-05
-0.00012217
-1.90883e-05
-0.00011972
-2.24876e-05
-0.000122724
-2.53637e-05
-0.000128257
-3.43394e-05
-0.000133926
-5.06825e-05
6.43296e-05
-0.000132691
2.95517e-06
-0.000134184
1.2166e-06
-0.000136998
-3.67342e-07
-0.000138688
-1.07133e-06
-0.000140071
-5.28073e-07
-0.000140496
5.38088e-07
-0.000139812
2.15892e-06
-0.000137845
3.70305e-06
-0.000137536
4.74065e-06
-0.000137777
4.03365e-06
-0.000138659
3.48795e-06
-0.000139472
2.25682e-06
-0.000139794
1.12925e-06
-0.000139614
7.93859e-08
-0.000138808
-5.54815e-07
-0.000135272
1.80708e-07
-0.000132893
1.23335e-06
-0.000132502
1.70532e-06
-0.000133035
1.9004e-06
-0.000137547
2.32184e-06
-0.000143384
3.34288e-06
-0.000146056
2.55197e-06
-0.000146551
1.9235e-06
-0.000146525
1.41958e-06
-0.000146302
1.03406e-06
-0.000143428
7.17908e-07
-0.000136539
1.21072e-06
-0.000133566
1.37972e-06
-0.000133165
1.13821e-06
-0.000133113
9.3669e-07
-0.000133507
7.00223e-07
-0.000137911
5.81831e-07
-0.00014509
1.1497e-06
-0.000146999
1.91453e-06
-0.000147052
2.09903e-06
-0.000146901
2.06496e-06
-0.000146192
2.27651e-06
-0.000144664
2.45319e-06
-0.000141485
2.17536e-06
-0.000137926
1.50004e-06
-0.000136442
5.01554e-07
-0.000135813
-4.13438e-07
-0.000135366
-5.67567e-07
-0.000135396
-5.83464e-07
-0.000137384
-5.02515e-07
-0.000142339
6.74527e-07
-0.000145053
2.45708e-06
-0.000146058
3.35579e-06
-0.000146542
3.4113e-06
-0.000146708
3.12902e-06
-0.000146712
2.79983e-06
-0.000145696
2.54672e-06
-0.000140669
1.99827e-06
-0.000135514
4.9806e-07
-0.000132821
-1.82957e-07
-0.000132198
-3.17622e-07
-0.000132225
-7.01251e-07
-0.000132848
-1.02604e-06
-0.000138838
-8.90261e-07
-0.000146212
5.85276e-07
-0.000148401
2.26302e-06
-0.000148707
2.62809e-06
-0.00014873
2.6412e-06
-0.000148497
2.8952e-06
-0.000146897
3.12398e-06
-0.000140469
2.72968e-06
-0.000134374
4.27064e-07
-0.000132031
-1.91808e-06
-0.000131336
-3.27177e-06
-0.000131281
-4.50499e-06
-0.00013145
-5.16915e-06
-0.000134987
-5.4777e-06
-0.00014361
-3.77611e-06
-0.000148446
2.37561e-07
-0.000149651
2.60131e-06
-0.000149843
3.31664e-06
-0.000149964
3.29132e-06
-0.000148808
2.72148e-06
-0.000143399
1.1907e-06
-0.000136848
-2.06991e-06
-0.000131914
-5.6162e-06
-0.000128348
-8.03816e-06
-0.00012608
-9.13221e-06
-0.000125683
-9.18206e-06
-0.000126194
-9.72033e-06
-0.000131032
-9.8096e-06
-0.000137535
-8.89979e-06
-0.000141338
-8.47578e-06
-0.000142884
-9.01008e-06
-0.000143116
-9.52357e-06
-0.000141328
-9.40191e-06
-0.000137921
-1.08469e-05
-0.000133543
-1.33144e-05
-0.000127309
-1.69184e-05
-0.000120976
-2.11632e-05
-0.000119039
-2.4091e-05
-0.00012569
-3.37644e-05
-0.000136513
-4.96677e-05
6.12241e-05
-0.000136722
1.41716e-06
-0.00013865
-5.05742e-07
-0.000138501
-1.37247e-06
-0.00013798
-1.13294e-06
-0.000136781
2.07342e-07
-0.000135921
1.76696e-06
-0.000135954
3.18933e-06
-0.000136109
4.55951e-06
-0.000136945
4.65917e-06
-0.000139717
3.85051e-06
-0.000141792
2.44778e-06
-0.000142321
1.50306e-06
-0.000142241
7.57318e-07
-0.000141194
3.41702e-07
-0.000136379
2.10788e-07
-0.00013216
1.41746e-06
-0.000131056
1.79089e-06
-0.000130879
1.83537e-06
-0.000131119
1.8298e-06
-0.00013675
1.84494e-06
-0.000145829
1.15746e-06
-0.000147744
1.04223e-06
-0.000147668
1.11252e-06
-0.000147506
9.82131e-07
-0.000146559
1.09203e-06
-0.000141966
1.63264e-06
-0.000135613
2.40428e-06
-0.000133188
1.7932e-06
-0.000132871
1.33367e-06
-0.00013282
9.43809e-07
-0.00013295
4.61929e-07
-0.000136041
-2.47972e-07
-0.000143047
-3.01741e-07
-0.00014596
9.53749e-07
-0.000146253
1.82702e-06
-0.000146002
2.22842e-06
-0.000145314
2.42327e-06
-0.000144717
2.46489e-06
-0.000143395
2.16789e-06
-0.000140463
1.65135e-06
-0.000137605
5.54707e-07
-0.000135759
-4.54858e-07
-0.000134366
-5.36656e-07
-0.000133635
-3.49583e-07
-0.000133772
-2.22208e-07
-0.000137157
-4.74601e-09
-0.000142966
1.31508e-06
-0.000145726
2.84273e-06
-0.000146764
3.17884e-06
-0.000146918
2.93327e-06
-0.000146911
2.68915e-06
-0.000146666
2.61036e-06
-0.000142929
2.82076e-06
-0.000135933
2.00412e-06
-0.000132692
3.79415e-07
-0.000131714
-3.12569e-07
-0.000131626
-8.2108e-07
-0.000131729
-1.34543e-06
-0.000134407
-1.97303e-06
-0.000142657
-1.53574e-06
-0.000147412
8.44404e-07
-0.000148222
2.4355e-06
-0.000148229
2.93887e-06
-0.000147853
3.40202e-06
-0.000147432
3.41017e-06
-0.000144824
3.37117e-06
-0.000138036
2.00502e-06
-0.000133729
-9.98757e-07
-0.000132108
-3.29509e-06
-0.000131384
-4.66625e-06
-0.000130909
-5.46656e-06
-0.000131023
-5.85934e-06
-0.00013428
-6.0761e-06
-0.000142483
-4.25009e-06
-0.000146949
-1.62737e-07
-0.000148395
2.24427e-06
-0.000149197
2.75497e-06
-0.000149449
2.18649e-06
-0.000148306
1.49579e-06
-0.000142803
2.09868e-07