/*--------------------------------*- C++ -*----------------------------------*\
  =========                 |
  \\      /  F ield         | OpenFOAM: The Open Source CFD Toolbox
   \\    /   O peration     | Website:  https://openfoam.org
    \\  /    A nd           | Version:  12
     \\/     M anipulation  |
\*---------------------------------------------------------------------------*/
FoamFile
{
    format      ascii;
    class       surfaceScalarField;
    location    "3.88";
    object      phi;
}
// * * * * * * * * * * * * * * * * * * * * * * * * * * * * * * * * * * * * * //

dimensions      [1 0 -1 0 0 0 0];

internalField   nonuniform List<scalar> 
33852
(
0.000251329
2.24281e-05
-0.000273757
-0.000246121
1.32441e-05
0.000232877
-0.000174489
-7.10355e-05
0.000248519
0.000304053
-0.000163969
-0.000140085
0.000295967
-4.31683e-05
-0.000249083
2.72441e-05
-0.000260681
0.000233437
0.00031506
1.48003e-05
-0.000330722
0.000304277
-9.59564e-05
-0.000208321
0.000286413
-3.50841e-05
0.000204465
1.81616e-06
-0.000203488
0.000289786
-0.000367061
7.7098e-05
0.000359664
-4.563e-05
-4.39602e-05
0.000263285
-0.000219325
-4.39303e-05
0.000318161
-0.000274264
6.04587e-05
-0.000233844
0.000252057
1.2236e-05
-0.000264293
0.000264853
-1.2796e-05
-0.000278433
3.23121e-05
0.000340452
-5.12149e-05
0.000158593
0.000112308
-0.000270901
-2.43466e-05
0.000303292
-0.000278806
0.000271377
-0.000276165
4.78802e-06
-1.76783e-05
0.0002747
-0.000256693
-0.000220779
1.39177e-05
0.000207868
-0.000153275
-0.000183646
0.000337297
-0.000146761
-6.93892e-05
0.000215646
3.72401e-05
0.000267037
-6.1257e-05
-0.000263224
0.000324981
-0.000211596
1.98606e-06
0.000208576
-0.000202231
-1.85109e-05
0.000142045
0.000137388
-0.000279433
0.000340239
1.93171e-05
0.000142618
0.000128347
-0.000270965
-0.000101136
0.000259729
-0.000250489
-3.78001e-06
0.000254269
0.000330776
-5.9631e-05
-0.000271022
-0.000356835
0.000203449
-0.000226767
0.000209412
0.000231645
3.32081e-05
-5.65602e-06
0.000237301
-8.11724e-06
0.000213243
-0.000232625
0.000259869
0.00031792
-5.66578e-05
-0.000257124
-0.000309093
5.51042e-05
0.000253989
0.000240603
-0.000301341
0.000273589
-0.000306321
3.27321e-05
-0.000180237
-5.49362e-05
0.000235173
0.000272133
-0.000272133
0.000148429
-0.000297473
0.000149045
-0.000212634
0.000216698
-7.09978e-06
-0.000268241
0.000237301
3.09401e-05
-0.000198812
0.000246432
-4.7052e-05
-9.16164e-05
-0.000217477
-0.000114779
-0.000252278
-0.000280169
0.000266113
1.40561e-05
0.000329173
1.18188e-05
-0.000250433
7.01963e-05
0.000117908
0.000145909
-0.000263817
1.34681e-05
-0.000267457
0.000253989
-0.000134569
0.000282997
-0.000153607
-5.10687e-05
0.000204083
-0.000274681
0.000245113
2.95681e-05
0.000237553
-0.000268437
3.08841e-05
-0.000187351
-2.38389e-05
0.000151665
0.000115565
-0.00026723
-0.000183518
-2.72704e-05
0.00021275
0.000263985
2.24281e-05
0.000275941
-2.35201e-06
0.000265329
-0.000250741
-1.45881e-05
0.000232295
-6.55106e-05
-0.0001647
-1.82001e-06
0.000239373
0.0003671
-0.000313019
-5.39477e-05
-2.8512e-05
0.000305812
-0.000276645
-0.000101584
0.000219493
0.000342771
2.42515e-05
-0.000372718
0.000354021
1.83458e-05
-0.000204704
2.14024e-05
0.000307995
-0.000321012
1.21918e-05
-0.000207582
0.000271013
-6.37054e-05
-4.45202e-06
1.71704e-05
-0.000319482
0.000302199
0.00023511
-0.000199262
-3.54609e-05
0.000269934
-0.000338649
7.0064e-05
0.000334137
-6.35626e-05
-0.000268941
0.000236573
3.23681e-05
-0.000129388
-0.000132609
0.000261997
-1.86761e-05
-0.000249565
-1.022e-05
-0.000258721
2.32511e-05
0.000210239
-0.000232305
3.18813e-05
-0.000225144
0.000196064
-2.49882e-05
0.000326931
-0.000302057
-0.000279329
0.000273701
5.62802e-06
0.000156129
-0.000296857
0.000140729
-5.98627e-05
-0.000150818
0.00021081
0.000143277
0.0001218
-0.000265077
-0.000250212
0.000225899
-0.000213685
0.000153973
-0.000168813
0.000327181
-0.000158369
0.000185389
7.16523e-05
-0.000257041
0.000255193
2.07481e-05
-0.000192277
0.000148317
5.14038e-05
0.000268831
0.000307019
-0.000290047
9.14832e-05
-0.000237025
0.000135241
0.000117096
-0.000281065
-1.50175e-06
0.000243612
-0.000247091
0.000166489
0.000122836
-0.000289325
0.000144261
8.99429e-05
-3.92002e-06
0.000259113
0.000302359
5.44874e-06
-0.000323705
0.000314908
8.97989e-06
-3.99002e-05
0.000236293
-0.000196393
4.08802e-06
-0.000284257
-2.57643e-05
0.000161256
-0.000137202
-0.000153654
0.000127364
0.000214023
-0.000179378
-0.000269921
0.000264965
4.95602e-06
2.64041e-05
0.000174721
-0.000201125
2.87841e-05
-0.000257265
0.000228481
0.000276137
-0.000262669
0.000115108
0.000212073
0.000213166
-0.000189526
-0.000175813
0.000202217
1.35826e-05
0.000283425
-0.000296831
0.000274743
2.20184e-05
0.00027148
-0.000284763
1.23474e-05
3.86402e-06
0.000267513
-1.81146e-05
0.000288978
0.000330349
9.92844e-06
0.000213609
-0.000257499
0.000316713
-0.000316647
-6.63603e-06
-0.000272693
2.85858e-05
0.000203457
0.000187993
3.98722e-05
-0.000227865
-5.50735e-05
0.000218274
-0.000163502
0.000153609
-0.000270285
0.000116676
0.000279441
-0.000329701
5.02602e-05
-6.38122e-05
0.000249201
-0.000166909
0.000315897
-0.000148989
-0.000313581
-1.00551e-05
-0.000214929
0.000175029
2.78601e-05
-0.000278349
0.000276221
-1.88441e-05
-0.000248613
1.71302e-05
-0.000302424
0.000285008
0.000344989
-0.000158593
-0.000186397
-1.69327e-05
-0.000240838
0.000257129
-0.000266617
-3.30401e-06
0.000224001
2.45841e-05
-0.000248585
0.000284509
-0.000128381
0.000140197
0.000138853
-0.000279049
-0.000201997
-1.11159e-05
0.000258169
-0.000115551
0.000225551
-0.000242545
-6.38122e-05
0.000251805
-0.000208492
0.000249481
-5.60002e-07
-0.000248921
0.000255109
-0.000237441
-0.000323833
0.000298839
-3.08841e-05
0.000203169
-0.000172285
0.000291699
1.24889e-06
-0.000292722
7.68833e-05
0.000132185
-0.000206464
4.56662e-05
-0.00019908
-0.000289766
-4.64473e-06
0.000294378
-1.55672e-06
-0.000288012
0.000146973
-0.000273925
0.000126952
-0.000263075
0.000223909
-0.000294292
0.000267829
0.000279441
-0.000313521
-1.24731e-05
0.000326694
0.000110316
0.000160696
-2.14033e-05
0.000352374
0.000140141
0.000139833
-0.000279973
0.000245029
-0.000250349
5.32002e-06
-0.000210953
0.000180069
0.000279133
-5.43202e-06
0.000350836
-3.27682e-05
-0.000301435
0.000306374
-1.99459e-06
0.000270985
-0.000270985
-0.000364529
0.000225813
0.00013867
-0.000206232
1.99559e-05
1.69693e-05
0.000275157
-0.000278461
3.30401e-06
-5.32479e-06
0.000176014
-0.000170454
-0.000197345
0.000254801
-5.74562e-05
-0.000204138
4.74111e-06
-0.000240571
0.00015754
7.99219e-05
-0.000180265
0.000261399
-8.1132e-05
0.000256285
-0.000287113
3.08281e-05
-0.000249229
5.18842e-05
-2.34557e-05
0.000276078
-0.000252566
-0.000253547
1.35801e-06
0.000252189
0.000231281
-7.28003e-06
-0.000294332
7.57745e-06
0.000286714
-0.000266085
0.000266085
-0.000283335
-5.47514e-05
-0.000170688
-0.000193921
-0.000172192
0.000217189
-4.39922e-05
-1.232e-05
-0.000239177
0.000251497
3.10801e-06
0.000210113
-0.000213221
-0.000186175
-2.27903e-05
0.000209908
7.5708e-06
0.000294547
-0.000302155
-0.000236153
-1.34401e-05
0.000249593
1.50361e-05
-0.000251189
-0.000241025
0.000256061
-0.000301421
0.000308955
0.000256117
7.16803e-06
-0.000172838
-3.22753e-05
0.000205605
-0.000145237
-0.000134765
-0.000244329
0.000240549
0.000298541
-4.52634e-07
-0.000298117
-0.000298865
6.14324e-07
0.000298251
1.91008e-05
0.000181217
0.000163773
7.70045e-05
-0.000257269
-0.000159242
0.000310908
0.000250721
-0.000108677
-0.000235145
-1.83681e-05
0.000253513
-0.000204639
-0.000126845
0.000331528
-6.10402e-06
-0.000229125
0.000235229
-2.17288e-05
-0.000182935
-0.000287135
-8.57602e-05
6.29608e-06
-0.000300633
-0.000212594
0.000327762
-0.000115185
0.000281597
0.000288205
-5.16322e-05
0.000271993
-1.57081e-05
-0.00018594
-1.40598e-05
0.000200723
0.000297558
6.10163e-07
-0.000297837
-0.000269515
-3.24605e-05
-0.000218821
0.000247605
-2.52535e-05
0.000310569
-0.000285324
0.00018051
7.5193e-06
-0.000184117
-3.44523e-05
0.000217478
-0.000301261
0.000276002
0.000293253
5.58841e-06
-0.000298549
0.000157445
0.00011886
-0.000276305
0.000288154
4.70896e-06
-0.000294011
-0.000252861
0.00011951
0.000130442
-0.000281769
0.000295415
0.000302513
-0.000156857
-0.000145657
0.000207005
-0.000203897
-0.000232009
-0.000121156
-0.000155009
-4.04188e-06
-0.000294026
0.00029807
-1.0136e-05
0.000276249
0.000288472
-1.92263e-05
-0.000270335
-0.000262909
2.91444e-05
0.000234015
0.000271433
-0.000267569
0.000249621
2.95121e-05
0.000315003
-9.77649e-06
-0.000305201
4.96056e-05
0.000156747
-0.000206317
-0.000100084
0.000197721
-9.73387e-05
0.000252617
-2.91201e-05
-0.000223497
7.51966e-07
0.000292258
-0.000180507
-3.17051e-05
0.000211569
-2.4739e-06
0.000290423
-9.33244e-05
0.000246933
-0.000255417
-5.26402e-06
0.000121184
0.000181329
1.34121e-05
0.000241557
-0.000254969
0.000236097
1.34961e-05
-0.000249593
0.000249509
-0.000242929
0.000256425
6.30372e-05
-0.000200901
0.000137649
-0.000215136
0.000116433
-0.000203604
0.000297312
1.35822e-06
-0.000298724
0.000253849
2.22881e-05
0.000268493
-0.000216441
-5.20522e-05
0.000225518
-0.000246849
2.13305e-05
0.000257909
1.40841e-05
5.77412e-05
0.000295004
0.000267186
-3.89594e-05
-0.000228226
0.000173335
1.274e-05
0.000240297
-0.000253037
0.000193322
-0.00011501
-7.99976e-05
-0.000205865
2.15009e-05
-1.11016e-06
-0.000298335
0.000299457
0.000214425
-0.000161527
-5.05516e-05
0.000344673
-4.12948e-05
0.000275969
-0.000135829
2.31561e-05
0.000238337
-0.000261493
-0.000231141
0.000254297
-2.66894e-05
-0.000229719
0.000256425
0.000159965
-0.000165285
-7.97563e-05
-0.000172619
-0.000261723
4.14346e-05
0.000220288
-3.17521e-05
-0.00022997
6.72399e-06
0.000261717
-3.25193e-05
-0.000229198
1.67441e-05
0.000126727
-0.000196247
0.000308785
-0.000171397
0.000262319
-3.57923e-05
-0.000226526
-0.000319452
0.000181556
-0.000100588
-0.000228453
-6.90203e-05
-8.35294e-07
-0.000299039
0.000299699
-2.77165e-05
0.000180991
-0.000152917
0.000308126
6.85617e-06
0.000250097
-0.000248249
-1.84801e-06
-0.000176554
6.12371e-05
0.000260293
-3.07285e-05
-0.000229524
0.000197345
-0.000250769
5.34242e-05
0.000254206
-0.000231206
-2.29991e-05
-0.000252337
0.000240017
0.000145553
0.000102631
-0.000101864
-0.000170269
0.000132496
-0.000261885
-0.000290249
0.000242201
4.80484e-05
0.000216808
3.12477e-05
-0.000248056
-0.000238623
-1.00161e-05
0.000247116
0.000327788
-2.27905e-05
0.000263996
-3.42721e-05
-0.000229724
0.000137182
-0.000228056
8.65947e-05
3.63259e-05
-0.000265637
0.000229311
-0.000253905
0.000121296
0.000249817
-5.24722e-05
0.000294673
-0.000154253
-0.000140421
0.000122248
-0.000289157
1.53441e-05
0.000237665
-0.000253009
-0.000262031
3.54705e-05
0.00022656
-2.69559e-06
-3.77917e-05
-0.000224239
0.00024915
-0.000272554
-0.000264649
3.44737e-05
0.000230175
0.000193257
0.000101416
-0.000149941
0.000290137
-0.000176321
-3.86206e-05
0.000215003
-1.81721e-05
0.000263201
-0.000292917
0.00030986
0.000116822
0.000103448
0.000261325
-0.000261325
0.000315377
-2.3217e-05
-0.000289502
5.32002e-07
0.000248949
0.000254857
1.65761e-05
0.000309337
-0.000275932
-3.30615e-05
-2.26336e-05
0.000266577
-0.000243943
3.00077e-05
-0.000260519
0.000230511
-0.000252139
0.000229506
0.000327354
3.11501e-05
-0.000260598
0.000229447
0.000276809
-3.16961e-05
-7.22785e-06
-0.000293072
0.000299605
0.000271089
3.87173e-05
0.000230245
-0.000266617
3.63721e-05
0.000201691
-0.000206353
-0.000258301
0.000238533
1.97681e-05
0.000169762
-0.000257245
8.74835e-05
-0.00020585
0.000163241
-0.000249145
8.59043e-05
-0.000266169
0.000224813
4.13562e-05
0.000253073
-2.78797e-05
-0.000225194
0.000175021
4.30919e-05
-0.000234837
-2.29601e-05
0.000257797
-0.000236377
-2.28761e-05
0.000259253
-1.94265e-05
0.000255969
-0.000236542
-0.000259345
0.000239919
-3.14343e-05
0.000168048
-0.000235929
-2.24001e-05
0.000258329
-0.00025484
0.000229192
2.56481e-05
2.94001e-06
0.000211289
-0.000214229
-0.000267031
3.79849e-05
0.000229046
0.000270677
4.48002e-06
4.25267e-05
0.000161994
-0.0002075
-3.31196e-05
0.000249929
-2.10313e-05
0.000218597
9.73004e-05
0.000248198
-0.000216953
0.000277965
-0.0002794
0.000278021
-0.000282683
-1.84997e-05
0.000258601
-0.000240101
-0.000261644
0.000243145
3.08563e-05
-0.000202227
-2.92333e-05
-0.000206826
0.000235507
0.000314564
-0.000287242
-2.74035e-05
0.000261297
-3.11081e-05
-0.000230189
3.28739e-05
-0.000262362
0.000229488
-0.000229853
0.000259645
-2.97921e-05
0.000325726
-1.76922e-05
0.000150165
-0.000214127
0.000256929
-0.000109956
-0.000286021
0.000287475
0.000241977
-6.41202e-06
-0.000235565
0.000228537
-0.000178065
-3.77655e-05
0.00021958
2.92647e-05
-0.00020398
-0.000239989
0.000260317
-2.03281e-05
-0.000103711
0.000190044
-8.75285e-05
3.09562e-05
-0.00020505
0.000240169
-0.000263424
2.32552e-05
-0.000115584
0.000258861
-0.000243993
0.000265721
-2.17281e-05
-0.000238953
0.000232541
0.000258626
-0.000245105
-1.35213e-05
0.000264349
-2.46681e-05
-0.000246317
-0.000274421
-1.05469e-05
0.000293993
-5.33795e-05
-7.83731e-06
0.000292555
-0.000282437
-0.000167503
0.000205708
0.000228338
1.82618e-05
-0.000250091
0.000328258
-0.000328307
0.000260955
-0.000245018
-1.59377e-05
-0.000302196
-6.70124e-07
0.000304905
9.7209e-06
3.77435e-05
0.00017109
-0.00020545
0.000213847
-3.47146e-05
-0.00017965
0.000278054
-0.000255789
-2.22648e-05
-0.000211694
3.13465e-05
3.15421e-05
-0.000261891
0.000230348
0.000285042
-0.00029227
2.44721e-05
-0.000259617
-0.000257965
1.87881e-05
0.000266057
-1.64361e-05
0.000151173
-0.000267625
0.000116452
0.000298916
-4.43064e-06
0.000238617
-7.53763e-05
2.12521e-05
0.000177045
-0.000198297
-0.000183877
0.000205129
-0.000236275
0.000257219
-2.09441e-05
0.000261462
-3.31689e-05
-0.000228293
-0.000197009
-5.21362e-05
0.000251581
-1.48401e-06
9.13682e-06
-0.00026368
0.000254181
-0.000341779
0.000235634
0.000106113
0.000266371
-0.000236811
-2.95597e-05
0.000306838
-0.000314665
7.79185e-06
-2.57041e-05
-0.000229097
0.000254801
0.000261493
-7.64403e-06
1.03613e-05
-0.00020852
0.000262411
-3.19033e-05
-0.000230508
-6.90483e-05
-0.000260653
-0.000194685
0.000248025
-5.33402e-05
-0.000266533
0.000249985
1.65481e-05
-0.000318105
1.66708e-05
-1.71783e-05
0.000298481
-0.000279869
-0.000276221
1.65481e-05
0.000249537
-0.000169075
6.47946e-05
0.000273782
1.47788e-05
-0.00028852
-0.000316007
0.000307805
8.21389e-06
3.46641e-05
-0.000263649
0.000228985
-1.74504e-05
0.000281356
-0.000315237
1.63577e-05
-0.000176541
-7.42283e-05
-0.000234734
0.000203713
-2.16721e-05
-0.000216469
0.000238141
-0.000314477
0.000295698
1.87824e-05
-0.000133554
0.000272632
-0.000142489
-8.40086e-06
3.31521e-05
-0.000263453
0.000230301
-0.000201621
2.45382e-05
0.000179283
0.000221516
0.00028087
-0.000281318
2.59186e-07
-0.000236993
-2.20921e-05
0.000224813
-0.000202721
0.000139273
0.000143753
-0.000278517
0.000199685
-5.6831e-05
0.000308326
-1.056e-05
0.000209188
-0.000268855
2.92853e-05
0.00022306
-0.000252345
-0.000322562
0.00013883
0.000296414
2.91599e-05
1.94862e-05
-0.000224355
-2.77845e-05
-0.000136647
-0.00013279
-0.000326042
0.000113697
0.000242873
2.56201e-05
0.000218765
-0.000224869
1.07249e-05
-0.000287602
0.00027451
-0.000242938
0.000270147
-2.73202e-05
0.000281412
-0.000281886
0.000288449
-7.69587e-05
-8.89325e-06
0.0002903
-1.87881e-05
0.000247101
-0.000228313
0.000281504
-0.000290366
-5.60709e-06
-0.000284042
0.000289705
0.000282132
-0.000269702
0.000284594
0.000226314
2.67597e-05
-0.000310888
0.000317915
-7.79778e-06
0.000247133
-2.22801e-05
0.000220793
2.51573e-05
-0.000268913
0.000246057
-2.05381e-05
-0.000259401
3.02849e-05
0.000229116
0.000178305
7.64963e-05
9.74638e-06
0.000280611
-0.000290218
-0.000238141
-2.88401e-05
0.000266981
2.51441e-05
-0.000263285
0.000284117
-0.000162317
-0.000232177
0.000261129
-2.89521e-05
-0.000234697
0.000260709
-2.60121e-05
1.39786e-06
0.00027903
2.45001e-05
-0.000259197
2.38001e-05
-0.000255977
0.000274268
-0.000242994
-3.13666e-05
0.000317883
-9.96498e-06
-0.000305474
-3.13766e-06
-0.000255753
1.1816e-05
0.000243937
-1.72349e-05
-0.000261185
0.000228065
-0.000245337
0.000270145
-2.48081e-05
-0.000263229
1.49801e-05
-2.35596e-05
0.000286222
-0.000262477
2.13641e-05
-0.000266701
-0.000241641
-2.13046e-05
3.26824e-05
-9.0432e-05
0.000260194
0.000280816
-0.000286414
5.05122e-05
0.000237693
0.000281674
-0.000281239
-0.000243181
-2.39401e-05
0.000267121
-0.000260894
7.34723e-06
-0.000292427
1.87046e-05
0.000273884
-0.000268717
2.55361e-05
-8.03866e-06
0.000289598
-0.000268326
0.000243549
2.47774e-05
-0.000232513
0.000210841
0.000279787
-0.000289005
-6.16002e-07
0.000260289
-0.000259673
-0.000301991
-1.61089e-05
-0.000264573
2.35481e-05
-0.00024417
-2.41556e-05
-3.43281e-05
-0.000298014
0.000293964
0.000286674
-0.000158327
0.00029574
-0.000288995
2.30153e-05
4.88075e-06
0.000262659
-0.000255565
-7.16882e-06
0.000307614
-2.02522e-05
-0.000287361
5.97863e-05
-0.000246765
-2.19521e-05
-0.000356812
0.000242216
0.000285043
-0.000281129
2.33801e-05
-0.000186846
-1.59904e-05
-0.000307232
2.6005e-05
0.000282555
-0.000196314
0.000309478
-0.000114027
0.000259841
-0.000238533
-2.13081e-05
-0.000291739
2.94001e-05
0.000222097
-0.000251497
-0.00016396
0.000135893
-0.00016378
0.000251441
-0.000238029
-1.34121e-05
-0.000263873
3.40201e-05
-2.23161e-05
-0.000269837
0.000251469
0.000230427
3.12901e-05
-4.62618e-05
0.000203101
0.000232619
-0.000260499
-1.74148e-05
-3.39073e-06
0.000246969
-0.000243474
-0.000293187
-0.000237049
0.000265189
-2.81401e-05
0.000230096
3.22225e-05
-0.000268521
2.55921e-05
-0.000239905
-2.86161e-05
0.000228954
-0.000260706
-0.000282631
4.73202e-05
-0.000242005
0.000294073
-0.000283058
-0.000289368
1.33574e-05
0.000275272
-4.58885e-06
0.000216989
0.000228551
-0.00026107
0.000296884
-0.0001309
-0.000165985
0.000242066
-0.00026192
0.000270935
-0.000226213
-1.76681e-05
-0.000162026
0.0003058
-0.000141056
2.49649e-05
0.000222662
-0.000247627
-0.000193607
0.00019357
-0.00028386
0.000282347
6.96988e-06
-0.000291058
-0.000302485
0.000146693
0.000155793
0.000259995
-0.000239359
-2.06361e-05
-0.000215741
0.000193649
0.000261892
3.51522e-07
0.000257293
0.000232526
2.16799e-05
-0.000295048
-6.21349e-05
1.04199e-05
0.000236046
-0.000251291
1.6859e-05
-0.000230917
-2.37161e-05
0.000254633
-0.000242295
0.000263191
-2.08965e-05
8.20722e-05
0.000132717
2.01982e-05
-0.000303851
0.000286079
0.000256565
-1.80041e-05
-0.000238561
0.000243881
-0.000254017
1.0136e-05
-0.000226745
0.000207957
0.000223131
-0.000258923
-0.000244693
4.76842e-05
1.59448e-05
-0.000137666
-0.00021887
1.57921e-05
0.000245701
0.000279773
0.000294571
0.000305894
1.72188e-06
0.000249817
-0.000220417
2.51749e-05
0.000225009
-0.000250184
-0.000243178
0.000268865
-2.56873e-05
2.28201e-05
-0.000262725
-0.000115023
0.00029619
9.15093e-06
2.08181e-05
0.000261675
-0.000235103
-2.65721e-05
1.34089e-05
-0.000304508
0.000291913
0.000322348
-3.09347e-05
-0.000290447
0.000249733
1.63241e-05
0.000307124
-0.000293357
-0.000229779
-0.000112041
9.63204e-06
0.000250657
-4.9129e-05
-0.00020239
0.000251519
2.20333e-05
0.000246832
-0.000241686
-2.29629e-05
0.000260737
-2.24001e-05
0.000287733
-0.000268023
2.63369e-05
2.68241e-05
-0.000257965
0.000210617
-0.000207677
2.58161e-05
-0.000262865
0.000280432
0.000121744
-0.000256173
0.000134429
1.90498e-05
3.8277e-05
0.000163648
-0.000201797
-0.000239485
-2.85377e-05
3.95046e-05
0.000160428
-0.000198842
-0.000246691
0.000271066
-2.43747e-05
0.000209866
-0.000248826
1.98857e-05
1.7286e-05
-0.000174534
-3.02432e-05
0.000226699
-0.000257412
-2.88401e-05
0.000244245
-0.000215405
-2.16161e-05
0.000242985
-0.000221369
0.000201657
-0.000250786
-0.000273664
-0.000232905
-2.55081e-05
0.000258413
0.000241234
2.98318e-05
-0.000213198
-2.32144e-05
0.000237541
-2.18821e-05
-0.000224967
-0.000239345
6.28042e-05
0.000259004
-0.000229718
4.75106e-05
-0.000249901
-3.43393e-05
0.000257694
-0.000223354
0.000205675
-0.000240014
0.000261689
-1.1956e-05
-6.06764e-05
-0.000229573
-0.000225588
-1.72703e-05
0.000241771
0.000247109
5.3175e-05
0.000212448
-0.000265623
-0.000261099
0.000177353
-0.000231757
5.44042e-05
6.37082e-05
0.000135673
0.000259457
-0.000240915
-2.47224e-05
-0.000265385
0.000227165
3.82201e-05
-2.87813e-05
-0.000222158
0.00025094
-0.000284587
0.000264161
0.000234501
3.61761e-05
2.18821e-05
0.000234087
-0.000307217
0.000151089
0.000156129
0.00017636
-5.38587e-05
0.000254045
-0.000115192
2.56901e-05
0.000217446
-0.000243136
-0.000285424
0.000287412
9.24915e-06
0.000257377
-0.000245953
0.000208937
3.70161e-05
0.000254832
0.000243611
-2.0162e-05
-0.000246815
-2.02161e-05
-0.000263019
2.0724e-05
-0.000269215
2.24001e-05
2.79601e-05
0.000220024
-0.000247984
0.000242481
-0.000274597
1.32721e-05
0.000249925
-1.35717e-05
1.27114e-05
-0.000252396
-0.000328789
0.00012414
-0.000233135
-2.62109e-05
-0.000252113
0.000252113
0.000259782
-0.000144217
-1.81676e-05
-0.000279501
0.000297916
0.000275907
0.000258749
-0.000135913
0.000224113
2.39205e-05
0.00023468
7.81313e-05
-0.0003405
3.79702e-05
0.000258962
1.76363e-05
-0.000248843
-3.00917e-05
0.000207453
-3.01001e-05
0.000259701
2.95429e-05
0.000218353
-0.000247896
-3.05014e-05
-4.09782e-05
-0.000217818
0.000258797
-0.000233423
-2.14173e-05
3.75029e-05
-0.000202871
0.000165598
-3.30877e-05
0.000221671
-0.000255943
-0.000282165
-8.36579e-06
0.000290547
-0.000196383
0.000165065
0.000166349
8.16763e-05
1.27019e-05
-0.000294771
0.000235075
2.59446e-05
-0.000261019
-0.000200524
-1.24329e-06
0.000232743
-0.000264287
3.15449e-05
-8.42803e-06
-0.000217029
0.000225457
-0.000164282
0.000203523
-0.000249985
-3.46025e-05
0.000256274
0.000218076
-0.000252679
-0.000246289
0.000272245
-2.59561e-05
0.000253547
2.78321e-05
-0.000232062
-2.95821e-05
-0.000299236
0.000316983
-1.84101e-05
2.33801e-05
0.000212462
-0.000250254
-0.000267233
2.09441e-05
-2.12801e-05
-0.000245953
-3.61481e-05
0.00024861
-0.000289381
-1.3778e-05
0.00022082
-0.000256968
0.000245886
-0.000248976
1.65861e-06
2.80002e-06
0.000181413
-0.000184213
0.000255294
0.000234529
2.67681e-05
-2.62361e-05
0.000245001
-0.000218765
3.36001e-05
0.000216609
-0.000250209
0.000244861
2.73841e-05
0.000306545
-0.000143949
-0.000162597
1.57531e-05
0.000240855
-0.00025582
0.000271013
-0.000113568
0.000225569
-0.000256677
-0.000240988
0.00010448
-0.000265469
7.16803e-06
-0.000241635
-2.75801e-05
-0.000241361
-2.48081e-05
0.000310598
-2.75026e-05
-7.67483e-05
0.000243097
-1.1452e-05
-0.000215601
0.000224281
-8.68003e-06
0.000255193
-7.68883e-05
3.43816e-05
-0.000198109
0.000163499
-0.000265245
-1.40001e-07
-4.14962e-05
3.95169e-05
0.000165193
-0.000203175
0.000199475
-0.000165072
0.000257041
-7.05603e-06
0.000251151
-0.000218277
-1.81199e-05
-2.1128e-05
0.000271717
-9.32205e-05
-0.000176204
-1.42801e-05
-0.000191913
0.000206193
0.000258665
-1.53553e-05
-0.00024331
1.98101e-05
0.000238855
-0.000281173
-8.3128e-06
3.75048e-05
-0.000191482
0.000156257
1.36921e-05
0.000247997
-0.00015582
0.000194126
-1.95189e-05
0.000248711
3.23577e-05
0.000187406
-0.000217471
-4.17202e-06
-2.49389e-05
0.000265108
-0.000231955
-3.14693e-05
0.000296877
-0.000281274
-1.52791e-05
1.63717e-05
-0.000237659
0.000221288
-0.00010514
0.000226885
1.92984e-05
-0.000305114
0.000285952
2.52001e-05
-2.79441e-05
2.69165e-05
0.000308829
-0.000289474
0.000238891
1.97345e-05
2.15601e-06
0.000231617
-0.000233773
-0.000310225
2.56235e-05
0.000284739
-0.000162177
-0.000144145
0.000209178
-0.000250156
-0.000161678
0.000241924
1.90317e-05
0.000255597
-4.13534e-05
0.000250531
0.000214498
-0.000255851
0.000318252
-0.000318709
-1.09699e-05
0.000287079
-0.00027529
-0.000301721
1.9179e-05
0.000282487
4.20842e-05
-0.000286413
-3.91727e-05
0.000252483
2.62921e-05
-2.22708e-05
0.000306916
-0.000286295
2.43321e-05
3.92632e-05
0.000158461
-0.000201382
0.000249294
-0.000219751
2.83277e-05
-0.000261633
4.36802e-06
-1.9972e-05
0.000306753
-0.000286661
-0.000250987
-0.000266673
3.07441e-05
0.000252141
-0.000236741
-1.54001e-05
1.2264e-05
0.000239877
-0.000276663
-1.27588e-05
0.000255697
-6.11703e-06
0.00031996
-1.21554e-05
0.000298166
-0.000286869
-4.80808e-05
0.000247437
-0.000235621
0.000257601
-1.99361e-05
0.000131651
8.48033e-05
-0.000215185
0.00022411
3.03493e-05
0.000226759
-0.000258662
3.71393e-05
0.000272396
-0.000288646
1.73406e-05
0.000251273
-0.000239093
-1.31321e-05
0.000252225
-2.91201e-05
-0.000257265
2.56481e-05
0.000231617
-0.000228005
-2.92601e-05
0.000259765
-0.000233571
-2.61941e-05
0.000258721
-0.000266498
2.01059e-06
0.000290765
1.24612e-06
-0.000291704
0.000250419
-0.000233898
-1.85921e-05
0.000308808
-0.000300814
-7.99562e-06
0.000253319
-0.000103174
-0.000266897
2.56761e-05
0.000241221
-3.48881e-05
-0.000232009
-0.000266393
2.51161e-05
0.000241277
-1.22448e-05
-0.000267501
0.000279717
-3.45241e-05
-0.000231869
-0.000261802
1.92081e-05
-0.000266281
2.43881e-05
0.000241893
-0.000282248
-2.08962e-05
-0.000306083
2.74838e-05
0.000278446
-3.34041e-05
-0.000232877
-0.000168742
-0.000258133
2.94001e-05
0.000228733
0.000309572
-0.000308181
-0.000195805
0.000209049
-3.29281e-05
-0.000225205
0.000197305
-0.000279019
8.16316e-05
0.000284264
2.24335e-05
-0.000301953
1.76961e-05
0.000285728
-0.000280919
-4.57795e-06
-0.000257125
0.000231617
2.55081e-05
0.000171396
2.85579e-05
-0.000199769
-0.000266953
2.81681e-05
0.000238785
-0.000227361
-2.97641e-05
-3.67361e-05
-0.000230217
0.000276373
0.000296804
1.88715e-05
-0.000276128
-3.11625e-05
0.000304795
-0.000258679
-1.12215e-05
0.000297296
-0.000286021
1.50293e-05
-0.000302053
0.000286986
-0.000230609
-0.000307535
0.000287548
0.000263005
-2.55162e-05
-0.000280767
1.36081e-05
0.000166889
0.000230014
1.8921e-05
-0.000247579
-0.000204445
0.000164775
0.000236738
1.31517e-05
-0.00024989
-0.00025833
2.66093e-05
0.000231721
-1.09228e-05
0.000247661
5.74002e-06
0.000246877
-3.19817e-05
-0.000226348
0.000299596
-0.000285662
-1.38333e-05
0.000228024
-0.000226666
0.00028992
0.000237685
1.98521e-05
-0.000257537
-1.24236e-05
0.000250108
0.000246636
1.50389e-05
-0.000303779
1.50812e-05
0.00024448
2.18905e-05
3.07017e-05
-0.000193179
-0.000287323
-1.77164e-05
-0.000182869
0.000295177
-0.00015915
0.000193085
-3.4544e-05
3.09854e-05
-0.000195027
0.000166905
-0.000159119
0.000259149
-0.000239236
-1.99137e-05
0.000262341
-0.000275009
-0.000240435
0.000230687
-2.18893e-05
0.000301177
-0.000279504
0.000307831
-0.000292885
0.000242117
1.77241e-05
-0.000224975
0.00024443
-1.94545e-05
1.61001e-05
-0.000241075
-7.00003e-06
0.000260989
-0.000297108
4.88864e-06
0.000292199
-0.000174497
0.000160217
-1.74105e-05
-6.29416e-06
-0.000290867
-1.68392e-05
-0.000285203
4.28402e-06
-0.000295832
0.000132959
-0.000257467
2.36635e-05
0.000233726
0.000238197
1.32441e-05
-3.08129e-05
-0.000226636
-3.30404e-05
-0.000290972
2.11773e-05
-0.000224145
0.000199796
0.000254969
-0.000233465
-2.15041e-05
-0.000199569
0.000218281
-0.000186065
-7.34711e-06
0.00020395
0.000137411
0.000137607
4.00474e-06
0.000271408
0.000280183
-0.000305637
3.07655e-06
0.000242839
-1.98384e-05
0.000298866
-0.000278768
-0.000302446
0.000287609
1.47936e-05
-0.000258301
0.000230077
2.82241e-05
-2.64041e-05
-0.000231897
0.000301922
-0.000302666
0.000267745
-1.98893e-05
0.000303681
-0.000283887
0.000286312
-5.76863e-07
-0.000256873
0.000256873
-0.000268039
0.000295497
-0.000144828
-6.67354e-05
-6.89165e-06
0.00029523
-0.00028866
-0.000297231
0.000290073
0.000291866
-0.000278962
0.000291142
-0.000305771
1.52245e-05
3.37082e-05
-0.000243817
0.00022018
2.25202e-05
-1.44576e-05
-0.000246691
0.000227216
-1.43774e-05
0.00029796
-0.00028356
0.000263481
-1.96001e-05
0.000254224
-0.000235464
-1.87601e-05
-3.09674e-05
-0.000273788
0.000304581
1.44226e-05
-0.000297276
0.000282845
-1.45881e-05
0.000233465
-0.000218877
0.000211071
-0.000295135
0.000282943
-1.92396e-05
0.000304803
-0.000285436
0.00025102
-2.69788e-05
0.000297116
-0.000270215
-0.000295495
0.000268546
1.07156e-05
0.000244749
-0.000255465
0.000305276
-0.00031209
6.80936e-06
1.84498e-05
1.5049e-05
0.000287447
-0.000302323
6.37829e-06
0.00028436
2.37707e-06
-0.000318754
-0.000288085
0.000303926
-0.000242481
0.000243657
8.45603e-06
-0.0002264
0.000242772
-0.00029328
0.00027424
0.000285661
-0.000153197
-8.33851e-05
0.000294341
1.45243e-05
3.11323e-05
-0.000203447
0.000171963
-0.000274417
0.000257293
-0.000219535
0.00024982
0.000243411
1.92865e-05
-0.000262697
0.000236019
2.31309e-05
-0.000300762
0.000282941
0.000312394
-1.79489e-05
0.000237945
-0.000257069
1.91241e-05
-0.000222494
0.000247459
0.000294456
1.80785e-05
-0.000172293
-1.44172e-05
0.000298382
-0.000283943
-0.000141739
-0.000266415
0.000159993
0.000106423
-0.000308237
0.000294692
1.3387e-05
-0.000258699
0.000241826
1.68729e-05
-0.000154408
0.000157581
-0.000306478
0.000288581
1.777e-05
-0.00021499
0.000182655
-9.69084e-06
0.000253101
2.0506e-05
1.74948e-05
-0.000304176
0.000286617
-0.000300118
-7.34522e-06
0.000307466
-0.000249229
0.000220109
-0.000201153
-8.52603e-05
-0.000272385
0.000251559
0.000303883
-0.00028639
-0.000192546
1.81562e-05
1.50553e-05
0.000284409
-0.000299468
-8.80603e-05
0.000239233
-0.00030365
1.94912e-05
0.000284081
-0.000209753
-2.75019e-06
-0.000297614
-0.000168045
2.05297e-05
0.000302533
-0.000288108
-1.46072e-05
-0.000166626
-0.000299198
-0.000176104
-2.28703e-05
0.000243528
0.00028967
1.71427e-05
0.000252869
5.74428e-05
-0.000284227
-0.000247213
-0.000268783
-2.24555e-05
-0.000275156
0.000301893
-0.000260445
0.000279336
-0.000164568
-4.07211e-05
0.000206098
0.000197569
1.56521e-05
-0.000213221
-1.25203e-05
-0.000285665
0.000298152
1.83597e-05
1.86033e-05
-0.000305378
0.000286827
0.000253345
-1.71361e-05
-0.000236209
1.89981e-05
-0.000304777
0.000285795
2.03561e-05
0.000232989
0.000216385
-2.46121e-05
-0.000191773
1.57819e-05
0.000282255
-0.000298142
-0.000253027
0.00011881
-0.000303831
1.86597e-05
0.00028516
0.000223931
-5.14714e-05
-0.00029501
1.33583e-05
0.000281528
0.000255837
-2.19801e-05
-0.000233857
-0.000304293
0.000106467
0.000234529
1.70521e-05
-0.000251581
0.000280216
1.69254e-05
0.000304129
-0.000285161
1.78742e-05
-0.00029916
0.000233512
1.84916e-05
-0.000252004
-1.89003e-05
-1.42162e-05
0.000298201
-0.000283975
-0.00027989
0.000299433
-0.000278185
0.000289082
-0.000301345
1.16145e-05
0.000249741
-1.62291e-05
1.13534e-05
0.000250041
-1.55121e-05
0.000298341
-0.000282772
3.95922e-05