/*--------------------------------*- C++ -*----------------------------------*\
  =========                 |
  \\      /  F ield         | OpenFOAM: The Open Source CFD Toolbox
   \\    /   O peration     | Website:  https://openfoam.org
    \\  /    A nd           | Version:  12
     \\/     M anipulation  |
\*---------------------------------------------------------------------------*/
FoamFile
{
    format      ascii;
    class       volScalarField;
    location    "5.33";
    object      p;
}
// * * * * * * * * * * * * * * * * * * * * * * * * * * * * * * * * * * * * * //

dimensions      [1 -1 -2 0 0 0 0];

internalField   nonuniform List<scalar> 
22702
(
1
1
0.85968
1
1.05114
1
1.47111
1
1
0.616678
1.46934
1.47339
1
1.47008
0.879806
1
1
1
1.47224
1
1.47135
1
1.47672
0.669525
1.47202
0.705777
1
1.4777
0.635683
0.668581
1
1.47436
1
1
1
1.4352
1.47672
1.47546
1
1
0.620872
1
1.23038
1
1.47987
1
1
1
1
0.6586
1
0.66355
1
1.46965
1
1.47402
1
1
1
1
0.692614
1
1
0.655199
1
0.668429
1
1
1
0.618871
1
1.46971
1.28495
1
1.4663
1.48666
0.656153
1.47416
0.656222
1
1.4717
0.658292
1.47039
1.47061
1
1
1
1
0.934095
0.615432
1.47103
1
1
0.631596
1
1.47249
0.633464
1
1
1
1
1.23251
1.4719
0.636363
1
1
1.10658
1
0.659625
1
1.47468
1.47154
1
1
0.656991
0.663988
0.616757
1
1
1
1
1
0.913852
1
1.40275
1.0445
1.46986
1
1.46746
1.47425
1.47139
1.4685
1
0.649424
1
0.676581
1
1
1
1
1.47373
1
1
1
1
1.47166
1
1.02911
1
1
1
1
0.656657
1
1.01104
1
0.6569
1
1
1
1.46826
1
1.47436
0.68826
0.692641
1.46446
1.47218
1
1.07912
1.26459
1
1.46871
0.6578
1.43598
1
1
1
1
1.47003
1.38718
1
1.47247
0.679033
1.47131
1
0.652244
1
0.66154
0.705977
0.999769
1
1
1.47194
1
1
1.47091
1
1.47109
1.4724
0.657278
1
1
0.658785
1.47112
1
1
1
1.47115
1
0.65411
1
1
1.47124
1.47167
1.47319
1
1.00004
1
1
1
1.47171
1
0.681244
1.48016
1.47061
1.4735
1
1
1
0.64625
1.47207
1.22926
1
1.47281
0.668087
0.661331
1.47305
1.47436
1
1.47843
0.622074
1.41568
1
1
1
1
1.47154
1
1.26979
1.04372
1
1
1.47067
0.658895
0.780435
1
1.47389
0.657726
1.47038
1
1
1
1
1
1
1
0.660019
0.756487
0.660893
1.47148
1
1
1
1
1.42122
1
0.661231
1
0.635916
0.659404
1.47245
0.669835
1.4712
1
1
1
0.997696
0.650014
0.621793
0.999999
1
0.63455
1
1.47483
0.623859
1
1
1.47098
0.661825
1
1.46797
0.704595
1.47068
1
0.642186
0.997762
1
1
1
0.661513
1
1
0.999999
1.00001
1.01232
1.28641
1
0.686531
1
1
1
1
1
1
1
1.46939
1
1.47057
1
1
1
0.658248
1
1.47347
0.670318
1
1.35574
1
1
1.4717
1
1
1
1.46693
1
1
1.46357
1.47151
1
1.09651
1
1
0.671198
1
1
1
0.640747
1
1
1
1
0.681803
1
1
1
1
1
0.593518
1.00007
1.47416
1
0.999972
1.47016
1.4657
1
1
0.665732
0.822562
1.47079
1
1
1
1.47031
0.621455
1
1.47375
1
1
0.720843
0.721944
1
0.646115
0.659452
1
1
1
1
1
1
1
1.47176
1.1084
1.43759
0.605445
0.89994
1.47591
1
1.46498
1.47006
0.655247
0.79341
1
0.64981
1
1.48298
1
1
1
1
1.47109
1
1
1
1
1
1
1
1.16897
1.47015
1
1.47171
1
1
0.658357
1
1
1
1
1.47125
1.35713
1
1
0.647499
1.47036
1.47127
1
1.47133
1.47064
1.4717
1
0.845727
1
1.47183
0.984132
1.47179
1
0.652625
0.998968
1.47302
1
1
1
1
0.661909
1.47247
1.42596
1
1.46869
1.47047
1.47195
1
1.20473
1.47381
1
1
1.32139
1.06677
1.47129
0.936711
1.47109
1
1.47151
1.47161
1.47137
1.47037
1
1.45739
0.917945
0.893196
1
0.999999
1
1
1.47227
1
1
1
1
1
1.47326
1
1
0.995935
1.47136
1.42764
1
1.38621
1.00004
1
1
1.47266
1
0.996667
1.00483
1
1.47154
1
1.47026
1
1
1.34286
1
1.47016
1.00002
1
1.47025
1
1.47122
1
1
1
1.47131
1
1.47115
1.00001
1.4713
1.47486
1.47118
1.47143
1
1.46769
1.47858
1
0.660096
1.44152
1.33622
1
1.47092
1
0.669226
0.712745
1
1
1
1
1
0.641138
1
1.47162
1.11736
1.47174
1
1
1
1
1
1.47158
1
1.47879
1.27868
0.789702
1
1.00001
1.1315
1.11583
1
1
1.15976
1
0.659061
1.47166
1.47147
1
1
1
1.47137
1
1.00003
1.4776
1.47257
0.94426
1
1
0.658312
1.42685
1
1
1
1
1
1.47127
1.46991
1
1.47097
1.46836
1.47101
1
1
1
1
0.655745
1.46992
1
1
1.42621
1.47005
1
1.44286
1.46647
1
1
1
1
1
1.47152
1
1
1
1
1.47323
1
1.46666
0.641418
1
0.670869
1
1
1
0.996638
0.658819
0.999108
1
1
1
1.06412
1
1
0.866098
1
1
1
1
1
1
1
0.999997
0.933388
0.999999
1
0.997458
1
0.662985
1
1
1
1
1.34877
1
1
1
1
0.670425
1
1
1.44322
1.46995
1
1
1
0.895364
1
1
1
1
1
1
0.938796
1.01102
1.47181
1
1
1
1.46716
0.893923
1
1
1
1.47833
1.46507
1
1.00001
1
1
1
1
1
1
1
0.651699
1
1
1.4701
0.65387
1
1.4686
1
0.654909
1
1
0.652468
1
1
1
1
1
1
1
1.46235
1.47059
1
1
1
1
1.42833
1
1.13655
0.648254
1
1
1
1
1
1
1
1.02642
1
1
1.2487
1
1
1
1.38811
1
1
1
1
0.643488
1
1
0.640521
0.646163
1
1
1.47059
1
0.967346
1
1
1
1.32284
0.661163
1
0.657009
1
0.793883
1
1
1
1.47357
1
1
1.47146
1
1
1
1.4719
1
1
1.47316
1
1
0.654782
1
1.13464
1
1
1.47453
1.47536
1.31209
1.41945
1
0.648958
1
1
1.44953
1
0.652279
1
1
1
1.47175
1
1
1
1
1.27921
1
1.44522
1.47392
0.614735
1
1
0.659819
0.712479
1
1
1
1.32889
1.35364
1
1
1
1
1
1
1
1.19991
1.4717
1.00397
1
1.46579
0.655829
1
1
1
1.25072
1
1.09095
1
1.42897
1.46964
1
0.656025
1
1.47196
1
1
1.47287
1.44148
1
1.47461
1
0.643336
1
1
1
1.47875
1.46228
1.41137
1
1.4749
1.47025
1
1.47255
1
1.46984
1
0.655642
0.982508
0.65603
1
1
1
1
1
1.47073
1
1.47073
1
1
1
1.44783
1
0.66427
1.47089
1
0.643831
0.677666
0.669902
1
1.22398
1.03173
1.47372
1.4704
1
0.999999
1
1
1.4715
1
1
1.47145
1.47056
1
1.16432
1.00008
1
0.99679
1.46528
0.852724
1
0.819647
0.658896
0.659684
0.933178
1.47788
1.46485
1.0943
1.47177
1.47107
1
1
1.47275
1.4715
1.47141
1.47161
1
1.4718
0.640207
1.46883
1.47319
1.46837
1.47275
0.874308
0.884225
0.921974
1.473
0.958053
1.47242
1
1
1.47378
1.47074
1
0.652945
1.47163
1.47217
1
1.47134
1.47117
1
1.47139
0.654389
1.47089
1.47315
1.46892
1.47793
1
1
1
1.47245
1.30374
0.667876
1.47183
0.646899
1.47245
1
1
1
1
1.46828
1.472
1
1
1.47156
0.65428
1.47049
0.660109
1
1.46846
1
0.620092
1.47305
0.747726
1
1.47068
1.47408
1.47096
1
1
1.205
1.47353
0.65893
1.47126
1
1.47357
0.858296
1.47238
0.655995
1
1.47239
0.692005
1.47377
0.654193
1
1.47188
1
1.46954
1
1.27088
1.45347
1.36697
0.669015
1
1.47147
1
1.47113
1
1.47184
1
1
1.47164
0.979644
1.47428
0.614085
1.41839
1
1.32895
1
1.4738
1.47155
1.47311
1
1.42116
1.47143
1.43535
1.28624
1.46966
1
1.30958
1
1.47138
1
1.0587
1
1.43594
1
1.47274
1.44858
1.44823
1
1.46049
0.725492
1
0.643996
1
1
1
1.4737
1
1.47253
1
1
1
1.47256
1.46033
1.39788
1.47029
1.46956
0.668122
1.47873
1.47172
1
1.41858
1.47131
1.44999
1
1.46907
1.47426
1
1.47866
1.47088
1.47146
1.47302
1
1
1
1.47103
0.66385
1
1.47147
1
1
0.702943
1
1
1.47099
1.47145
1
1.47141
1.47038
1.46807
0.979816
1.47159
1
1.47159
1.47067
1.37765
1
1
1
1.46996
1.47142
1.47091
0.950988
1
1.48022
1.47129
1.4715
1
1.47146
1.47105
1.47176
1.47608
1
1.47124
1.47359
1.40634
1.47179
1.47355
1
1.46664
1.46611
1.47089
1.47235
1.47323
0.702963
1.47415
1.47009
1
1.4712
1.47085
1.47155
1.47194
1
1.4707
1.47156
1
1.47274
1.39383
1
1
1
1.47081
1.48105
1
1
1.24449
1
1.47136
1
1
1.47188
1.47271
1.47172
1.47065
1
1
1
1.3324
1
1.47228
1
1
1.46702
1.47358
1
1.47105
0.626474
1.47131
1.46996
0.700298
1
0.644273
1.41089
1.47152
1.47414
1.47379
0.662791
1.47122
1.47327
0.668656
0.641154
1
1.47278
1.47207
1
1
1.47156
1
1.47532
1
1.40916
1
1.21686
1.47161
1.47398
1.33373
1.41473
1.47278
1.47357
1.43326
1
0.673251
1.47613
1.47095
1.47781
1.00001
1
1
1.47807
1
1.47127
1.47044
0.772197
1
1.47201
0.999943
1
1.00003
1.00004
1.47133
1.47026
0.998451
1
1
1.47075
1.47365
1.4708
1.47082
1.47328
0.661153
1.41936
1
1.46831
1.47207
1.47186
1.46575
1
1.4714
1.4586
1.47307
1
1.47181
1.47005
0.862979
1.47141
1.47062
1
1.47123
0.84317
1.47062
0.861268
1.47149
1
1.4707
1.47885
1.47147
1.47184
1.47095
1.46587
1.47238
1.46925
1
0.91936
1.47072
1.47168
0.851948
1.47155
0.972576
1.28432
1.47136
1.46528
1.46925
1
1.4741
1.3062
1.47041
0.922402
1.47409
1.47314
1
0.874778
1
1.46322
1
1.31815
1
1.44694
0.878495
1
1.4688
1.47014
1
1.47189
1.47388
1.46876
1.4722
1.47904
1
1.47044
1
1
1
0.897642
1.47163
1.47101
1.47094
1.47113
1.47561
1.47226
1.46573
1.47222
0.899659
1.032
1
1
1.47819
1.47186
1.47181
1.47179
1.00003
1.23916
1
1.47851
1.41336
1
1
0.74538
1.47084
1
1
0.638695
1.47185
1
1.4712
1.47198
1.47291
1.45276
1.47135
1
0.665881
1.1097
1.47133
1.47093
1
1.47387
1.47101
1.22618
1.01038
1.09829
1
1.47052
1.47146
1
1
0.68731
1
1
1.47129
1.47133
1.47202
1.47076
1.47174
1.46983
1.47211
1.46847
1.47165
1
0.996609
1.47109
1.47113
0.996848
1.47132
1.47058
0.682521
0.613456
1.4709
1.46771
1
1
1.00124
1.47173
1.47296
1.47162
1
1.47121
1
0.858056
1.47874
1.47217
1
1.19925
1.46955
1
1.47153
1
1.47119
1.31599
1.47393
1
1.47054
1.4626
0.687088
1.4716
1
1.47006
1.47126
1
0.679699
1.47538
1.41105
0.997724
1.45523
1.47086
1
1.0021
1.47336
0.998131
1.47171
1
1
1.47009
1
1.47015
1.47141
0.9964
1.38117
1
1.47138
1
1
1
1
1.47156
1
1
1.4778
1
1.47144
1
1.29733
1.47331
1.4703
1
1
0.99818
1
1.47068
1.47168
1.46965
1.47159
1.47075
1.47149
1.47168
1
1.47168
1.47022
1
1.47196
1.47129
1
1.47297
0.923086
1.06079
1.47189
1.4713
1.47271
1
1.47185
1
1.47166
1.4716
1
1.47254
1
1
1
1
1.47065
0.66816
0.997836
1
1.4706
1.47722
1
1.47144
1
1.00554
0.656657
1.47097
0.99963
1
1.46954
0.998374
1.47112
1
0.999768
1
1.47015
1.46805
1.47143
1.47528
0.655971
1.47149
1.47299
1.47157
1.11385
1
1
1.20184
1.47139
0.655032
0.661722
1
1.47171
1.47163
1.47361
1
1
1.47134
1.47208
0.999892
1
1.3397
0.629591
1
1.08
1.47165
1.47281
0.998229
1.47126
1.48211
1
0.998869
1
1.47281
1.46664
1.18604
1
1.44935
1
1.00245
1.47158
0.628741
1.4707
1.47193
0.996932
0.999911
1.40423
1
0.9997
1
1.47399
1
1.00001
0.627522
1.47218
1.00001
1
1
1
1.47957
1.25908
1
1
0.654163
1.47155
1.25959
1
1
1
1.44883
1.45619
1.47206
1
1
1.47609
1
1.47133
1.47127
1
1
1.47304
1.47113
1.44565
1
1
1.47325
1.47359
1
1
1
1.47462
1
1
1
1.47162
1.4764
1.47467
1
1.47872
1.00003
0.699091
1.47076
1.47043
1
1.47216
1.44545
1.47349
1
1
1.47708
1
1.25597
1.46957
1
0.690081
1
1.47383
1
1
1.47702
1
1
1
1.1456
1.47173
0.681016
1.00001
1.47348
1
1
1.4707
1
1.47594
1
1
1.47115
1.47081
1
1.00005
1
1
1
1
1
1
1.46718
1.47254
1
1.47104
0.660202
1.46951
1
1.47138
1.47365
1.47227
1.47437
1.47536
1
1
1.47687
1
1.2846
1.47344
1.4713
1
1.47216
1.47395
1
1.42099
1
1.47156
1.30034
1.47727
0.997766
1.45677
1.43773
1.46925
1.47248
1.03834
1.47136
1.47354
1
1.47138
1
1.4717
1
1
1
1
0.99614
1.47136
1.4719
1.38445
1
1.47594
1
1
1
0.641386
1
1.46183
1
1.42622
1.45911
1
1
1
1.43676
1.46729
1
1
1.47294
0.652173
1.06824
1
1.47478
1.47145
1.42757
1.45885
1.47148
1
1.47075
1
1
1
1
1.47027
1.47121
1
1.45122
1.04575
1.47174
1.43937
1
1
1.44063
1
1
0.671362
1.32412
1
1
1.47008
1
1.47392
1.43081
1
1.42917
0.652148
1.47196
1.47086
1.47307
1
0.67118
1
1
1
1.47196
1.37984
1
1.48014
1.47069
1
1.47234
1
1
1
1
1.47128
0.999367
1
1.47328
1
1
1.47502
1.47215
1
1.47398
1.09012
1.00002
1
1.47003
1
1.4702
1
1.01354
1.47156
1
1.47115
1
1
1.1345
1.4726
1
1
1
1
1
0.996042
0.661399
0.660849
1.0224
1
1.021
1
1.02399
1
1.47158
1
1.29733
1
1.47166
1
1
1
1.47154
1
1.36019
1.47057
1
1.2429
1.47033
1
1
1.47395
1.47068
1
1
1.04785
0.674525
1
1.47463
1
1
1
1
1.07764
1.4711
1
1
1
0.65406
1
1.47126
1.47137
1.48306
1
1
1
1
1.22838
1.48
1
1
1
1.47274
1.47189
1.04965
1
1
1
1.47006
1.4716
1
0.688264
1.47192
1.47109
1.47263
1.4725
1.47588
1
1
1.47377
1.47508
1.47101
0.651644
1.04213
1.47009
1
1
1
1
1
1.471
0.660636
1
1
1.47095
1.21241
1
1.47273
1
1
1
0.649405
1
1
1.1129
1.4722
1.47082
1
1.47789
1.47139
1
1.07323
1
1.4739
1
1.47063
0.654741
1
1
1
1
1.47255
1.00006
1
1
1
1.45243
1
1
1
1
1.4718
0.647928
1.36617
1.47373
1
1.46933
1
1
1
0.997125
1
1.47321
1
0.810423
1
1
1.00003
1.46999
0.650666
1
1.47079
1
1.47037
1.47122
0.639821
1
1
1.45954
1
1
0.648853
1
1.46493
1
1.45019
0.999268
1.47256
1
1
1
1
1.46806
1
1
1.47197
1
1
1
1
1
1
1
1
1.30628
1
1.14652
1.4715
1
1
1
0.652799
1
1
1
1
1.47032
1.4722
1.04732
1
1
1.47309
1
1
1.47239
1
1.00002
1
1
1
1.00001
1.47018
0.7787
1.47255
1.47329
0.996876
1
1
1
1.27275
1
1
1.47132
1.47131
1
1
1
1
0.637301
1
1
1
1.28893
1
1.47212
1.47495
1
1.47284
1
1
1
1.25191
1
1.47001
1
1.47116
1
1
0.996255
1.47184
1
1
1
1
1
1.4708
1.00002
1
0.673437
1.47711
0.679091
1
1.47221
1
0.996025
1
1.47261
1.46791
1
1.47361
0.874978
1.47181
1.47712
1.00003
1
1
0.657825
1
1
1
1.4707
1.26388
1.47783
1
1
1
1
0.996938
1.47232
1
0.65295
1
1
1
1
1
1
1
1.47437
1.47406
1.46888
1
1
0.996918
1
0.980793
1
1
1
0.66756
0.972591
1
0.663318
0.652223
1
1.47261
1.47171
1
1.47497
1.47204
0.650873
1.30752
1
1
1
0.65664
1.47086
1
0.653112
1
1.4675
1.07104
1
1
1
1
1.47201
1.46947
1
1
1.47206
1
1
1.47047
1.47121
1
1.42821
1.47125
1.47171
0.965907
1.46956
1.00862
0.648443
1.35814
1.46961
1
1
1
0.663853
1
0.661562
1.47711
0.965878
1.47204
0.942226
1
1.473
1.20883
1
1
1.46965
1
1.19172
1.47171
1
1
1.46006
1.46821
0.658675
1.27287
0.999899
1
1.27144
1
1.47651
0.925999
1.48537
1.47155
1
1
1
1
1.45635
1
1
1.47376
0.999648
1.47176
1.37269
1.47519
0.657533
1
1
1
1
1.47225
1.00004
1.47092
1
1.47089
1.47201
1.05667
1.47471
1.13391
1.47097
1
1.3151
0.684382
1.46642
1.47176
1.36403
1.07338
1.46913
1.47256
1.47258
1.47243
1
0.916091
1.0658
1
1.47186
1.2253
1.4705
1.00003
1
1
0.721777
1.47027
1.4698
1.38433
1
1.17521
1
1.46745
1.46511
1
1.47233
1.46985
1
1
1
1.473
1
1.18264
1.47552
1.32364
1
1.46946
1
1
1
1
1
1
1
1
1
1
0.696163
1
1.45087
0.695196
1.27167
0.99855
1.46964
1
1.24118
1.00001
1.2986
1.39749
1
1.00197
1.46908
0.915237
1
1.47336
1.47141
0.929227
1
1.47202
1.47242
1.47269
1
1.47155
1.46867
1.47533
1
1.21485
1
1.00006
1.47119
1
1.47074
1.06752
1.47102
1
1
1.47536
1.47256
0.713545
1
1.47295
1.35026
1.47111
1
1
1.47125
1.47264
0.998225
1
1.42412
0.997001
1.4713
1.00007
1
1
1
1
1.21121
1
1.36444
1.47097
1.34456
1.47272
1
1.00236
1
1
1.47146
1
1.47606
1
1
1
1
0.999999
1
1.05324
1.23732
1
1
0.67784
1
1.47015
0.666776
1.47204
1
1.22438
0.999753
1.47159
1.29458
0.661433
1.25446
1.00003
1.47044
1.47088
1
1.28219
1.47121
1.47282
0.998374
1.48007
1.45832
0.646722
1
1
0.997884
1
1.47393
1
0.669631
1.47457
1
1
1.41436
1
1.47117
1
1.47073
1
0.677173
1
1
1.46991
1.46376
1.46619
1
1.47296
1.47108
1.47369
1
1
1.45851
0.999999
0.739871
1
1
1
1.47058
1
1.4711
1.30542
1.47241
1
1.4728
0.999367
1
1
1
1
1
1
0.719347
1
1
1.47216
1
1.47107
1.47158
1
0.667956
0.660469
1
1.47273
1.07929
0.653236
0.634574
1
1.47428
1
1.46994
0.644843
1.00141
1
1
0.999519
1
1
1
0.99992
1.19285
1.47125
1
1
1.47175
1.26939
1
1.43385
1.47225
1.47024
1.19287
1.47397
1
1.46924
1
1.4741
1
1.47356
1.46974
0.996939
1.47122
1.47117
1
1
1
1
1
0.925668
1.46983
1.00004
1.00003
0.643087
0.999981
0.664338
0.621578
1
1.47177
1.47096
1.47069
1
1.47192
1
0.657334
1
1
1.47546
0.837976
1.47166
1
1.47129
1
0.979319
1.47281
1
1
1
1.47214
1
1.47067
0.654055
1
1
1.26946
1
1
1.25401
1
1
1.47241
1
1
1
1
1
1.46382
1.47265
1
1.47109
1.47316
0.663914
1.20948
1.47373
1
1
1.4226
0.998924
1
1
1.47186
1.47584
1.29989
1
1.4718
0.670689
1.45041
0.999671
1
1.47407
1.00003
1.47187
1.38183
1.35346
1
1
1.47152
0.731637
0.651915
1
1.47149
1
1.47255
1
1.27599
1
1
1.4708
1.29927
0.657634
1
0.998425
1
1
1.02543
1.18908
1.47143
1
1.4715
1
1
1
1
1
1
1.06689
0.652606
1
1
1.04155
1
1
1
1
1
1.47292
1
1
1.47211
1.47004
1.33463
1
1
1
0.8324
1.47139
1.3251
1
1
1
1
1.47304
1
1
1
1.47638
1
1
1.33789
1.48976
1.02793
0.745964
1.46949
1.32972
1.47425
1
1.22884
1
1
1
0.582636
1.00262
0.607001
1
0.61835
0.651201
1
0.652153
1
1
1
1.1981
1
1.47149
1.47216
1.00082
1.2223
1.40962
0.652059
0.750357
0.885864
1
1.4718
1.47188
1.47194
1.4723
1.40354
0.864154
1
1.40488
1
1.46356
1
1
0.996497
1.00949
1
1
1
1.47119
1
0.678074
1
1.47273
0.678458
1
1
1.47222
1
1.47123
0.999359
1
1
1.47316
1.41862
1
1.48861
1
1
1.01426
1
1.20986
1
1
0.662902
1
1
1.47057
0.999998
1.47002
1
1.00003
0.669655
1
1
0.70739
1.00089
1
1.47071
0.655168
1.47725
0.653083
1.47298
1
1
1
1
1
1
1
1
1
1
1
1.4516
1
1.4738
1.47117
0.658325
1
1
1
1
1
1
1.45853
1
1
0.662222
1
1
1.46979
1
1
1.18017
1.39223
0.648693
0.667395
0.670257
0.759156
1
0.996826
0.661533
1.00031
1.44778
0.996838
1
1
1.47176
1
1
1
0.756238
1.00001
1.16871
1
1
1.18259
1.47155
1
0.622693
1
1
1
0.996549
1.00001
1.46923
1.47258
1
0.653334
1
1.25283
0.656352
1
0.90054
1
0.996346
0.648761
1
1
1
0.996142
0.639521
1
0.615502
0.998372
1.23806
1.42519
0.645272
0.647699
1
0.990202
1
0.99865
1
1.47333
1.46902
1
1.02313
1.47215
1.47218
1
1
1.4725
1
1
1.00004
1
1.47027
1
1
1.01818
1
0.998593
0.673397
1
1
1
1
1
1.47488
1.03454
1.00005
1
1
1
1
1
1.00003
1
0.665282
1.10757
0.998649
1.47463
1.464
1
1.01397
1.47191
1.40663
1
1
0.614847
1.46878
1
1.4723
1
1.47084
1.32206
0.667452
1
0.656757
1.44147
0.999684
1
0.64724
0.611946
1
1
1.3977
1
0.999998
0.649264
1
1
1
1.14803
1
0.662174
1.47011
1
1
1
1
1.47177
1
1
1.47049
1.41894
1
1
1
1.47333
0.663291
1
1.46977
1.47164
1
1.37386
0.999999
1.00003
1
1
1.44631
1.01588
1
0.670954
1.26445
1
1
0.997591
1
1
1.46859
1
1
1.00003
1
1.4694
1
1
1
1
1
1
1.00001
1.20676
1
1.46847
1
1
1.47286
1
1
1
1.47289
1.47071
1.0469
1
0.997645
1
1
1
1
1.47074
1
1
1.47163
0.655281
1
1
1
1
1
1
1.37945
1
1
1.46824
1.47282
1
1
1
1.46991
1.47059
1
0.999739
1.46721
1
1
1
1.00002
0.681361
1.02926
0.996335
0.995775
1
1
0.618167
1.47233
1
0.605559
1
1.47039
1.45173
0.648336
0.999401
1.47141
1.46952
1.47058
1
1
0.915947
1.43918
1.39466
0.607286
1
1
1
1.47431
1.47239
0.644163
0.99729
1
1.4718
0.687886
1
1.46459
0.651238
0.97816
1.00716
1
1.47153
1
1
1
1
1
1
1.00011
1.438
1
1
1.47487
1
1
1
1.4718
1
0.661795
1
1
1
1.16161
1
1
1
1
1
0.791141
1
0.689387
1
1.47265
1.00007
0.867497
0.87307
1.00002
1.0042
1.23542
1
1
0.663295
1.47199
1.47284
1.47157
1
0.637103
0.667115
1
1.46966
1
1
1
1
1
1.00003
1
0.661942
1.29404
1
1
0.648731
0.992538
1.00001
1
1
1
0.649756
1
0.661303
1
1
1.46781
1
1
0.656394
1
1.47196
1
0.651834
1
0.659477
1
1.00837
1.47072
1.47609
1
1
1.47167
1
1
1.10238
0.996696
1
0.998249
1
1.47225
1
0.636806
1.00002
1.47087
0.998987
1
1
0.798096
1
0.999074
0.648885
1.47543
1.16727
1
1.00001
0.90611
1
1
1
0.780676
1
1
1
1.47108
1
0.666441
0.999999
1
1
1
0.651242
1.47167
1.43723
0.657484
1
1.48055
1
1
1.47171
1.47164
1.39512
0.645715
0.997722
0.999267
1
1.47054
1
1
1
1
1.47304
1.00004
1
1
1.46043
1
1
1.47126
0.665771
1
1
1
0.656544
1
0.999999
0.999999
0.998675
1
1
1
1
1.35616
1
1.47318
1.47165
1.48853
1.47086
1.47033
1.47045
1
1.47181
1
1.47041
1.47192
1
0.998829
0.655628
1.40186
0.999883
1
1
1
1
0.981602
1
1.07636
1
1
1
0.845158
1.47134
1.47197
1.47428
1.40844
0.99987
1
1.02303
1.46977
0.997894
1.05658
0.997404
0.651311
1
1.00002
1
1
1
1
1
1.47028
0.662388
1.47051
1.47167
0.995283
0.730018
1
1
1
1.47191
0.687684
1.41274
0.646773
1.47062
1.47679
0.661072
1.46932
1.02375
1
1.47314
0.798008
1
0.998705
0.679889
1
0.661897
1
1.47039
1.46976
0.744399
1
1.47009
0.654725
1
0.664477
1
1.47171
1
1
1.45882
1
0.829206
1
0.999638
0.666454
1.47676
0.999498
1
0.698085
1
1
1
1
1.24548
1
1.47236
1
1
1.48321
1
1
1.4694
1
0.673392
1
0.647155
1.00001
1
1
1
1
1.45061
1.27022
1.47158
1
1.47181
1.43782
0.656206
0.627114
1
1
1.47227
1
0.668553
1
0.987787
1
1
1.47301
1
1.47248
0.696938
1.48189
1
0.680811
1
1
1.47011
1.47011
1
1.00004
1
1.47507
1
1
0.652871
0.999386
0.691751
1
1
1
1.47296
1.47628
1.47154
1
1
0.61773
1
1.47538
1
1
1
1.45559
1.47075
1.47127
0.656585
1.47304
1.47198
0.672878
1.47105
1.00004
0.676371
1.01611
1
1
1.47035
0.678794
1.28985
0.707755
1.47201
0.997399
0.634191
1.47214
1
1
1
1
1.47208
1.47104
0.664712
1
1.00002
0.652476
1.00003
1
0.63067
0.654271
1.32311
1.46857
0.998457
1.47181
1
1.46473
0.815004
0.648483
1.4714
1.48609
1
1.47119
1
1
1.47117
1
1.35662
1.47097
1
1
1
1
1.47225
1.46651
1.47278
1
1
1.47029
1.4724
1.47299
1
1.47217
1
1
1
1
1
0.659772
0.831676
0.639527
1
1
1.47075
1
1
1.47097
0.64478
1
1.47061
1.46668
1.45072
0.641907
1
0.613972
1
1.00003
1.47095
1.21299
1.47192
1.42975
1
0.606237
1
1.47068
1.33249
0.644963
1
1
1
0.796388
1
1
1.47571
1
0.648739
1.47152
1
1
1
1
1
1.37608
1.10076
1
1.47171
1
1.47373
1
0.997078
1
1.47155
1.46968
1.47314
1.47287
0.999581
1.47362
1
1.47144
1.47277
1.39776
1
1
0.671251
1.47459
1
1
1.47733
1.47155
1.47511
1
1.4717
1
1
1.00003
1.46965
1.47333
1.12294
1.1013
1.4706
1.47035
0.696011
1
1
1
1
1.00001
1.16657
1
1
1.39444
0.693866
0.999965
1
1.47176
0.99988
0.999816
1.07272
1.43077
1.47481
0.923853
1
0.699291
1
0.984642
1.47118
1.47524
1.47487
0.998975
1
1
0.663693
1
1
1.47123
1.04839
1
1
1
1
1
1
1
0.999936
1.47165
1.00002
1
1
1
1
1.31256
1
1.21326
1
1
1.47188
1.47561
0.644015
0.998799
1
0.999999
1
0.666357
1.47406
1.47184
1
1
1
1
1
1
1
1
1.47297
1.47195
0.655259
1.04987
0.657743
1
0.665487
1
1.47068
1.13074
1
1
0.733672
1
1.45162
0.801823
0.996538
0.641804
1
1
1.47024
1.00005
0.99693
0.636435
1.47233
1.47737
1
1
1
1
1.43883
1
1
1.47107
0.998917
1.47335
1.00004
1
1
0.715673
1
1
1.47153
0.651468
0.781509
0.669907
1.47233
0.999348
1
1.47678
0.646289
0.636348
1.01454
1
1
1.47088
1.00004
1.21668
1
1
1.47119
0.653397
1
1
1.00014
1.47271
1.00012
1.46344
1
1.00003
1
1
0.726906
1
0.788667
1
1
1.46912
0.714134
1
0.798006
0.800208
1
1
1.47105
1
1
1
1.47338
1.47186
1.00005
1.45858
1.47143
0.802915
1.47195
1.46169
1
1
1.47302
0.999999
1
1
1
1
1.47752
1.47113
1
1
1
1.47217
1.00022
1
0.66459
0.710941
1
1.00003
1.17495
1
1
0.897108
0.636508
1
1
1
1.4758
1.43116
1.47159
1
1
1
1
0.688773
1
1.46649
1
1.4672
0.667998
1.47908
1
1
1
0.621624
1
1.47073
1.00003
1
0.648386
1.16725
1
0.999659
1.47311
0.656786
0.633178
1
1.47098
0.64856
0.661132
1
0.668119
0.999997
1
1
1
0.638637
1
1
1
1
1.47008
1
1.3573
0.684053
1
1
1
0.651998
1.47244
1
1
0.996915
1.47308
1
1.47018
1.47121
1
1
0.711605
0.633942
1
1
0.653336
1.1357
1.2177
1
1
1.47208
0.997385
1
0.997676
1.47246
1
1
1
1
1
1
1.47068
1
1.16437
1.14852
0.696081
1.41746
1
1.47255
1.47192
1
1
1
0.923683
0.682282
1
1.22437
0.999651
1.42465
1
1
1
0.999999
1
1.00644
1.208
1.4732
1.46975
1
1.4711
1
0.612144
1
0.997462
0.999773
1
0.658878
1
0.666749
1.00002
1.4759
1.47316
0.656092
1.47679
0.616966
0.996212
1.35829
0.67117
1.33932
1
1
0.99844
1
1
1
1.00006
1
0.660519
1
1
1
1
0.999597
1.47203
0.823404
1
1
1
1.03588
1
1
1
1.27154
0.755621
1
1
1
1.03845
1.47446
1
0.735419
1
1.47311
0.897693
0.649018
1
0.661044
1
1
1.445
0.998228
1.43114
1
1.00906
1
1
1.47214
1
1
1
1
1.09264
1
1.47088
1.47274
1.47457
0.703576
1.47117
0.997103
1.38576
1
1
0.645981
1
1
0.660732
1.47656
1
1
0.999957
1
1
1
0.634971
0.679419
1
1.46819
1
1.21965
1.47127
0.649186
1.39056
1
1
0.637085
1
1
1.4712
1.47224
1.16322
1
1
1.00199
1.47221
0.691605
0.662427
1.47282
1.4715
1.31967
1.18531
1
0.893534
1
1
1
1.43405
1.46921
1.46948
1
1
1.47357
0.615044
1.41423
0.638777
1
0.667259
1
0.664239
1.4714
0.644175
1
0.990094
0.689257
1
1
1
0.853451
1.42186
1.47077
1.47344
1.46846
1
1
1.47046
1
1
1.4722
1
0.615434
1
0.719625
1
1.47112
1
1
1.01532
1.35795
1
0.998939
0.620647
1.4698
1.00001
0.727987
1.09025
1
1
1.35758
1.47147
1.47191
1
1.47375
1.12272
1
1.02515
1.47196
1
1
1
1
1.47143
1
0.639042
1.46953
0.653438
0.709301
0.824394
1.4738
1.16378
1.47111
1
1.46764
0.99734
1.00003
1.47102
1.47249
1
1.46923
1
1.47227
1
1.47266
1
1.00004
0.999959
1.4709
0.656842
0.66604
0.997939
0.999999
1
1
0.710754
1
1.30289
1
0.647321
1
1.17621
1.47053
1.47343
1
1
1.00003
0.999416
1
1.47133
1.47103
1
1.19644
1.47111
0.855224
1.47043
1.00059
0.648481
1.09456
0.662667
1
1
1.07709
1.47075
1
1
1.03279
0.998598
1
0.655889
1
0.782947
1
1.47068
1
1
0.653954
1.10729
1.065
0.99853
1.47059
1.47193
0.790442
0.99803
0.661419
0.604064
0.661714
1
1
1
0.999031
0.711669
0.646027
1
1.47202
0.999737
1.47144
1.47075
1.47423
1.47145
1
0.673316
1.46915
0.664878
1
1.47119
1.4737
0.996506
0.811916
1.47306
1.33214
1
0.672207
1
1
1.47567
1
1.02604
1.47324
1
0.657531
0.667445
1
1
0.643031
0.656865
1.47128
1.00005
1
0.644272
0.605627
1.48012
1.4556
1.43912
1.47186
1.13298
0.979197
1.18754
1.46844
1.3564
1
1.22815
1
0.678887
0.854837
1
0.679111
1.47083
1.02203
1.47272
1
1.47042
1.47092
1
1.47108
1.47153
0.665374
1.4747
1
1.47245
1
0.748091
0.658546
1.47234
1
1
1
0.659658
1.46898
1.47286
1
0.665574
1
1
0.662558
1.00004
0.635304
1.47056
1
0.827404
0.631301
1
1
1.26789
1
1
1
1.08154
0.668024
1
1.00001
1
1.47276
0.658918
1
1.47217
0.724476
0.685242
1
1
1.47377
1
1.47611
1.00001
1.47157
0.655956
1
1
0.635878
0.80892
0.713012
1
1
1
1
1.47263
0.649322
1
0.652137
1
1.47302
1
1
0.929284
1
1
0.819733
0.999697
1.00005
1
0.662667
0.670707
1
1
1
1
0.798786
1.46996
1.47139
1
0.654992
0.653076
0.895833
0.658804
1
0.833426
1
0.727162
0.989457
1
1
0.650382
1
1.47209
1.46473
0.665883
1
1
1
1.47183
1
1.0409
0.819533
1.13965
0.663299
1.18687
0.668306
1
1
0.733546
0.908369
1
1.03448
1
1
0.613818
1
0.935929
1.04208
0.651268
1
1.37835
0.754176
0.879102
1
1
1
0.661899
1
0.653661
0.656121
1
0.856084
0.657561
1.06535
0.743497
0.694846
1.47085
1
1.47153
1.25248
0.720394
1.47157
0.678248
0.999032
1.47034
0.999999
1
1.47367
1
0.721156
1
1.06236
1
1
1.47221
1
0.78048
0.804078
1.47177
0.937552
1
0.732826
1.47185
1.47219
0.909137
1
1.47139
1.12334
0.847472
1
1.01552
1
0.665078
1.19687
0.79781
0.772271
1
1
0.656209
1.47156
0.961511
0.648097
0.650797
0.860745
1
1.01034
1.47083
1.47178
1
1
0.999999
0.666794
1.21842
1.00001
1.46854
1.41819
0.653852
1.00003
1.09685
0.875684
1.29151
1.40181
1
1.04308
1
1.00006
0.609953
0.837213
1
1
0.812206
0.61658
1.03208
1
1
0.695014
1.20427
1
1.46148
1
1.03297
1.25739
1
1.45659
1
1
1.46923
1
0.640774
1.47108
0.716703
1.12054
1
0.646012
0.999917
1
1.00003
1
0.804082
1.02637
0.654867
1.35398
1.47193
0.634112
1
1
1
1
1
0.9629
0.61131
1.04031
0.648039
0.654137
1.07883
1
0.999792
1.11577
1
1
0.709017
0.992193
1
1
1.12587
1
1.47102
1
1.4724
1.09588
1.02503
0.658792
1
1
0.730712
1
1
1
1
1.47088
1.04342
0.998051
1
0.647676
1.05577
1
1
1.30234
1
0.616197
1.46955
1
1.00001
1
1.47168
0.634936
0.872426
0.613138
1.3529
1.47728
1
1
1.47202
1
0.621188
1
1
1
1
1
0.765587
1
1.4702
1
1
1.15909
1.47131
0.671495
0.888491
1
1.47036
1
1
1
1
1
1.47187
1.47379
0.663977
1.47176
0.639071
1
1
1.47193
1
1.47292
1.00648
1.02878
1.06202
1.4707
1.06757
1.31573
0.641413
1
0.651697
0.984773
1
1.47211
1
1
0.639388
1.47989
1
1.47442
1
1
1
1
1
1.00001
0.650618
1.47121
0.865824
1.47139
1
0.653657
0.661142
0.706083
1.46927
1.47016
0.955228
1
0.810764
1
1.1733
1
1.47053
0.640514
0.667952
0.842682
1
1.472
1
1.08089
0.678821
1
1.47017
1.40746
0.998867
1
1.47098
0.653111
1.47712
1.47257
1.4738
0.648037
1.09597
1
1
0.647522
1
0.822982
0.834197
1
1.00002
1.47152
1
1.47067
1.08718
1
1.03147
1.47848
1
0.656
1
0.782674
1
1
1.38779
1
0.807194
1
0.65458
1.03625
0.959895
0.606987
1.47409
1.37993
1.47257
0.648362
0.699687
0.995753
0.999999
1
0.698204
1.44379
0.661264
0.999966
1
1.47081
1.47209
0.888358
1
0.655232
0.72606
1.31117
0.971381
0.643468
0.999999
0.669278
1.11798
0.663342
1
1.00006
0.813293
1.47212
1.46966
0.830725
0.9996
1
1
0.692316
1
0.656412
1
0.648768
0.663016
1
1
1.00003
0.656702
1.47206
1
1
1.00007
1.00004
0.65607
1.47284
1.47125
1
0.654451
1.47146
1
1.10108
1
1
1.47161
0.647512
1
1
0.673674
0.758631
0.665723
0.725108
1
0.70365
0.99711
1.10462
0.642539
1
1
1.12753
1
1.41431
1
1
1.31928
0.718187
1
0.625534
1.12373
1.47018
1
1
0.655912
0.638864
0.640784
0.729552
0.659101
1.34887
0.99943
1
1
1
1
1.47371
0.716614
1
0.934617
0.99967
0.998631
0.999939
0.776025
1.12331
1
1.47174
1.47122
1
1
1.44609
1.00004
0.999999
1.47111
0.647849
1.46902
0.999999
0.650958
1.47187
1.00005
1
0.839503
1
0.650738
1
1.47204
1
1
1.47594
1
1
1.47759
1
1
1
1.46809
1
0.771727
0.751613
1
0.634807
1.46997
1
1
0.969286
1
1.47523
1.26631
1.37396
1
1
0.680431
1
0.668672
1.47126
1.46816
1.46961
1
1.47136
0.658454
1
0.671052
1.37617
1.43052
1.47086
1.4706
0.741059
0.641583
1
1.30501
1.47227
1.46882
1.47182
0.77138
1.16968
1
1.3554
0.77059
1
1.00002
1
1.00002
0.888405
1
1.47752
1
1
1
1
1
1
1.00006
1.47171
1
1.47703
1.34697
0.659667
1.47066
1.02099
1.2322
1
1.47284
1
0.654352
1
1
1
1
1.40084
1
0.648647
1.47127
0.642608
1.47175
1.37162
1.23529
1
1.08617
1.21863
0.995949
0.644057
0.761496
1.00002
0.999999
0.900849
1
0.66428
1.47283
0.688996
0.930909
0.849453
1
1
1
1.01405
1
1
0.649113
0.995813
1.4731
1
1.47087
1
0.652224
1
1
1.47101
1.47333
0.644811
1
1.47131
1
0.796913
0.701994
1.4705
1.42136
1
1.07624
1.47073
0.998679
1
1.19589
1.41283
1.46963
0.995933
1
0.999998
1.39922
1
1
1
1.47192
0.998493
1
1
1.47149
1
1
0.663811
1
1
1
1.47251
1
1
0.841102
1.1362
1.42845
0.799511
1
1.47141
1
1.16637
1
1.46796
0.997373
1.47075
1
0.651012
1
1.31075
1
1
1.43949
1.00002
1.4721
1
1.47692
0.701051
0.653156
1.47157
1
1.40421
1
1.4708
1
1
1.00005
1.47078
1.46678
1.12246
1.47231
0.996191
0.628173
1.47243
0.876208
1
1.47124
1
1.47316
1
1.47391
1.47009
0.996398
0.657082
1
1.4716
1
1.0225
1
1
0.997958
0.760483
1.41921
1
1.4149
1
0.878826
0.641799
1.47351
1.47295
0.698625
1
1.46973
1.46852
1.46857
0.71461
1.47092
0.693532
1.47087
1.47669
1
1
1.47132
1
1
1
1
0.662731
1
1
1.47185
1.47179
1
1.47197
1
1.47003
1.47071
1
1.39184
1
0.634348
1.47289
1.35147
1.12989
0.63973
1.47121
1
1
0.647045
1
1
1.47117
1
1
0.775725
1
1.47194
1.00009
1.47328
0.654453
1.47318
1
1.47134
1.45371
0.878506
1
1.47651
0.758567
1.47088
1.32515
1.47126
1.47484
0.997285
1.47066
1.47185
1.47065
1.47177
1.00064
1
0.608379
1
1.47034
0.845187
1.42971
1
1.46291
1
1
1
1
1
1.46847
0.648857
0.661505
1.47233
1.47143
1
1
1
1
1
1.46785
1.43057
1.47173
1.01038
1
1
1
1.00003
1.47061
1.47139
1
1.47108
1.47046
0.656819
1.32677
1
1.47118
1.47535
1.46788
0.998095
1.4715
1.47103
1
1.44444
1
1
1
1
1
1
1.47211
1.47208
1.43792
1.47105
0.653695
0.71129
1.47173
1.47138
1
0.662797
0.947795
1
1.22116
0.634395
1
0.999458
0.998253
0.665255
1
1.47257
1
1
1
1.47145
0.942081
1
1.47195
1.47072
1
1.47007
1
1
1.47176
1
0.664375
1
1.47663
1
1
0.644484
1
1.47371
1
0.636354
0.605728
1
1.46892
1
0.635112
0.877418
1
1.47211
1
1
1
1.47491
1
0.662652
1.06657
1.46967
1.47277
1.47152
1.04261
1.4732
1.47168
1
1.00002
1
1
1.00001
1.47143
1
0.999307
1.47412
1
0.636359
1
1.47163
1.21805
1.05249
1.21753
1.0565
1.47944
0.714138
1.47097
1
0.656876
0.997233
1.47088
0.947683
1.47096
1.47156
1.45048
1
1.4723
1.47151
1.47109
1
1.00004
1
1
1.46913
1.33084
1
1
0.653474
0.996906
1
1.47278
1
1.47126
1.47141
1.47393
0.910371
1.47175
1.47049
1.01297
1.22349
1.46866
1.4722
1
1.4339
0.834383
1.43889
0.976809
1.47199
1
1.47173
1.47349
1
0.659531
0.943862
0.6972
1
1.07853
0.996925
1.47301
1
1
0.99667
1
1.22887
1.44828
1
1
1.47243
1
1
1.33796
1.47166
1.45297
1.47058
1.47226
1
1.47285
0.731277
1.47166
1
0.998188
0.66488
1
1
0.722485
1
1.13722
1
1.47416
1
1.46251
1.29501
0.660026
1
1
1
1
1
1.47098
1.01134
1
1.47053
1
1.47054