/*--------------------------------*- C++ -*----------------------------------*\
  =========                 |
  \\      /  F ield         | OpenFOAM: The Open Source CFD Toolbox
   \\    /   O peration     | Website:  https://openfoam.org
    \\  /    A nd           | Version:  12
     \\/     M anipulation  |
\*---------------------------------------------------------------------------*/
FoamFile
{
    format      ascii;
    class       surfaceScalarField;
    location    "2.35";
    object      phi;
}
// * * * * * * * * * * * * * * * * * * * * * * * * * * * * * * * * * * * * * //

dimensions      [1 0 -1 0 0 0 0];

internalField   nonuniform List<scalar> 
275392
(
-6.92384e-05
1.90808e-05
5.01713e-05
9.73725e-06
4.90965e-05
-5.53092e-05
3.5111e-05
2.96499e-05
-6.47609e-05
6.50353e-05
-5.92833e-05
-5.66721e-06
5.77027e-05
-7.20639e-05
1.43613e-05
6.54268e-05
-6.73428e-05
1.92285e-06
-3.86302e-05
-3.18375e-05
7.16166e-05
-6.96307e-05
6.96538e-05
2.58074e-05
1.2676e-05
-3.289e-05
2.76558e-05
-5.87456e-05
-6.50202e-05
-5.83646e-06
7.08178e-05
6.03118e-05
1.59106e-07
-6.04304e-05
-6.4718e-05
-3.41627e-07
6.13277e-05
-6.51517e-05
3.85337e-06
-5.78392e-05
5.98414e-05
-2.00303e-06
-6.38068e-05
5.9672e-06
-6.08496e-05
-2.95769e-06
6.62619e-05
-5.91926e-05
-7.18964e-06
7.74993e-05
-4.62394e-05
-3.12599e-05
-6.24407e-05
1.58927e-06
-6.58463e-05
6.44601e-05
1.38593e-06
-6.9583e-05
1.73411e-05
5.22362e-05
-6.7645e-06
-6.24703e-05
6.74851e-05
-6.05638e-05
-6.91826e-06
3.77772e-05
2.95082e-05
-6.72854e-05
6.48407e-05
-6.26614e-05
-2.10645e-06
-2.1909e-05
5.96862e-05
-2.82057e-05
6.12582e-05
-2.17515e-05
3.64505e-05
2.26302e-05
-5.90808e-05
6.66474e-05
8.55296e-07
4.81025e-05
-4.32955e-06
-4.38825e-05
6.66863e-05
-1.0416e-08
-6.44152e-05
-3.38557e-07
-6.53369e-05
6.66021e-05
-1.26509e-06
-6.39549e-05
-4.41596e-07
6.32901e-05
-2.98432e-06
4.03918e-05
2.38023e-05
-6.41942e-05
6.11057e-05
-6.27669e-05
1.66591e-06
-4.03532e-05
7.10077e-05
-3.06545e-05
-2.0724e-05
6.11158e-05
1.12335e-06
6.11122e-05
-5.47931e-05
6.93562e-05
-7.0707e-05
1.34886e-06
-6.05973e-05
6.09843e-05
-3.89511e-07
6.59665e-05
-6.79122e-05
1.96527e-06
6.44407e-05
-6.44411e-05
9.15092e-06
6.01953e-05
6.52006e-05
-6.18858e-05
-1.2625e-06
-2.0435e-06
4.89466e-05
-4.54147e-05
2.68175e-06
4.80373e-05
6.85119e-05
-5.93674e-05
6.85051e-05
-6.99253e-05
1.80464e-05
5.18712e-05
4.88615e-06
-6.10938e-05
5.62094e-05
-2.77436e-05
6.28546e-05
2.62371e-06
-6.31967e-05
-6.51747e-06
-6.30916e-05
6.37019e-05
-4.34591e-06
-5.87562e-05
6.27676e-05
-6.24263e-05
-3.13786e-07
7.36551e-05
-7.502e-05
1.36183e-06
-1.14065e-06
-6.44683e-05
6.62509e-05
-1.7838e-06
4.24863e-06
7.22861e-05
-4.99783e-05
-4.99266e-05
2.81368e-05
6.75554e-05
-6.29955e-05
-4.86436e-06
7.77317e-05
-1.16475e-05
-5.58724e-05
-6.26978e-05
2.2998e-06
6.03991e-05
6.42266e-05
-6.42293e-05
6.25566e-05
-6.25284e-05
-6.40138e-06
5.38901e-05
-4.74887e-05
-4.68963e-05
4.04949e-05
6.63758e-05
-6.49541e-05
-1.42204e-06
-5.85347e-05
5.75274e-05
9.99815e-07
-5.99319e-05
1.37885e-06
-3.34881e-06
-5.2834e-05
5.61828e-05
6.50531e-05
-6.29127e-05
-2.16376e-06
-6.34883e-05
8.25323e-07
6.05362e-06
5.83595e-05
-6.44131e-05
5.07705e-06
6.21794e-05
6.0204e-05
-6.7509e-05
7.26376e-06
-6.23708e-05
6.18122e-05
5.59163e-07
-6.12779e-05
-1.10968e-06
-6.01354e-05
6.36046e-05
-3.47196e-06
-7.10226e-05
1.985e-05
5.11687e-05
-7.24384e-06
-6.26815e-05
6.76249e-05
-2.1822e-06
-6.28121e-05
2.68162e-06
-6.11802e-06
6.38207e-05
-8.70333e-05
0.000100525
-1.71897e-05
5.13724e-06
6.39604e-05
-5.95879e-05
-1.69713e-06
-5.7291e-05
6.87158e-05
-1.13471e-05
-6.65857e-05
9.31603e-06
4.92578e-05
-1.18059e-05
6.79938e-05
-6.49541e-05
-3.03969e-06
-6.31638e-05
1.06518e-05
5.2512e-05
6.90757e-05
-3.26252e-05
6.29579e-05
-6.29625e-05
6.36169e-05
-2.26643e-06
-1.9618e-05
-4.54486e-05
6.51803e-05
-4.33231e-05
5.51194e-05
-6.28698e-05
2.46239e-06
6.04092e-05
9.76793e-07
-6.68297e-05
-5.28245e-05
6.50579e-05
-1.15425e-05
-6.111e-05
6.39066e-05
-2.90939e-06
6.30875e-05
-5.81229e-05
7.53741e-05
-7.53296e-05
-6.34729e-05
6.09757e-07
-6.31936e-05
1.15049e-05
6.15837e-05
-6.14204e-05
-9.3301e-08
6.69575e-05
-6.70898e-05
-1.87841e-06
-6.05652e-05
3.99843e-06
9.31372e-05
-7.75145e-05
5.53842e-07
-5.66336e-05
5.60797e-05
-1.63144e-06
-7.78101e-05
8.79225e-05
6.49023e-05
-6.49006e-05
6.74741e-05
-2.09733e-05
-4.65008e-05
7.1577e-05
-4.09109e-05
-3.06661e-05
5.40562e-05
-3.73087e-05
-2.24735e-05
6.61591e-05
-6.41043e-05
6.64459e-05
-2.34305e-06
6.00011e-05
-6.00039e-05
-1.14086e-05
-5.96149e-05
-6.36861e-05
6.3088e-05
7.64592e-07
-5.53355e-05
6.52544e-05
-9.8805e-06
-6.82507e-05
1.29294e-05
5.77268e-05
-6.50966e-05
7.27728e-06
-6.07552e-05
2.35705e-06
5.83981e-05
-7.94475e-05
8.85924e-05
3.82537e-05
-6.28418e-05
2.4588e-05
6.38548e-05
-5.92759e-06
-5.79174e-05
6.40796e-05
-6.19605e-05
-2.11461e-06
-6.16053e-05
6.7002e-05
-5.39674e-06
2.52589e-07
-6.08523e-05
-4.08329e-05
-2.83896e-05
6.25018e-05
-6.346e-05
1.85473e-06
-6.66569e-05
6.53098e-05
1.56589e-06
-6.34949e-05
3.15097e-06
6.0339e-05
-6.0781e-05
-2.67905e-06
6.9949e-05
-6.52905e-05
-5.77004e-06
-6.30092e-05
2.22825e-06
-6.10362e-05
1.55878e-05
-5.39169e-05
6.61984e-05
-1.22913e-05
-6.74228e-05
1.35434e-05
5.6444e-05
-5.65822e-05
2.29211e-08
5.53331e-05
9.89852e-07
5.85679e-05
-5.941e-05
7.90057e-07
-6.3458e-05
-3.46971e-08
6.84317e-05
-2.59147e-05
-4.2517e-05
-6.95023e-05
4.57409e-05
2.37565e-05
6.61388e-05
-1.69959e-06
3.83053e-05
2.44721e-05
-6.27774e-05
-5.31226e-05
6.56488e-05
-1.2571e-05
-6.62157e-05
1.31396e-05
5.20536e-06
6.11717e-05
7.0753e-05
-7.07512e-05
1.01424e-06
6.45809e-05
5.42963e-05
4.22804e-06
5.7986e-05
-5.74321e-05
-4.08044e-05
6.23846e-05
2.40471e-05
7.3764e-05
-7.3764e-05
6.14765e-05
-6.31766e-05
1.70017e-06
3.73779e-05
-6.19402e-05
2.45623e-05
-4.46945e-05
-2.46976e-05
7.75433e-06
5.97194e-05
-6.05878e-05
6.28289e-05
-2.24113e-06
-6.37459e-06
5.39559e-05
-4.75819e-05
-6.15409e-05
6.50056e-05
-3.46473e-06
6.07401e-05
1.0896e-06
-1.66304e-06
6.20095e-05
-6.37567e-05
1.52384e-06
6.07043e-05
7.18142e-06
6.61137e-05
-6.73357e-05
5.50824e-05
-5.42619e-05
-8.61723e-07
6.30839e-05
-6.273e-05
5.6173e-05
-1.08867e-06
3.62058e-05
2.68034e-05
-6.30092e-05
6.35425e-05
-6.29443e-05
-5.98013e-07
6.51676e-05
-6.72251e-05
2.06438e-06
-6.18629e-05
9.26076e-06
5.26021e-05
-5.85801e-05
7.68561e-05
-1.33699e-06
-9.77054e-05
9.03952e-05
3.67339e-05
2.54252e-05
-6.21591e-05
6.63791e-05
-2.15506e-06
-6.38893e-05
-5.70552e-06
6.38485e-05
-6.37521e-05
-9.75522e-08
-5.94894e-05
-3.08412e-06
5.75609e-05
-5.15073e-05
-2.83361e-06
-5.05413e-05
5.33749e-05
6.07996e-05
-5.83682e-07
6.44565e-06
-9.27478e-05
-5.71359e-05
1.0948e-06
5.60411e-05
6.48382e-05
-6.48382e-05
5.74421e-05
-2.01794e-06
-5.54266e-05
6.20528e-05
-2.85415e-06
-5.91986e-05
2.86161e-05
3.68212e-05
-4.31134e-05
-2.10769e-05
6.41903e-05
-4.55954e-06
-5.86042e-05
1.9091e-05
-6.28128e-05
-2.49853e-06
-5.08542e-05
5.3352e-05
-5.63162e-05
-1.72249e-06
5.80139e-05
6.20536e-05
6.03474e-05
-5.07751e-07
6.1038e-05
-6.60167e-05
4.97885e-06
1.43271e-05
6.51224e-05
5.54797e-05
-5.58468e-05
4.69713e-07
6.32438e-05
3.20541e-08
5.70427e-05
-1.36714e-06
6.40253e-05
-2.98005e-06
6.36792e-05
-6.63881e-05
2.66976e-06
-6.02914e-05
6.63322e-07
-5.2991e-05
5.57148e-05
-2.02321e-06
-4.64805e-06
-5.8151e-05
3.54459e-05
2.76792e-05
-6.31251e-05
-1.39105e-06
-5.54357e-05
5.68268e-05
-5.48254e-05
2.61415e-06
6.17212e-05
-2.44721e-07
-6.15948e-05
6.16249e-05
-1.36166e-07
1.13344e-06
-3.45844e-05
6.87324e-05
-1.72154e-05
-2.78319e-06
6.23241e-05
-4.78514e-05
4.40886e-05
2.26081e-05
5.62477e-05
-5.64118e-05
1.18125e-07
5.71426e-05
-9.5158e-07
-4.06447e-05
-2.00905e-05
6.07326e-05
6.49026e-05
-8.87435e-06
-5.60282e-05
-6.49541e-05
6.51988e-05
-2.44721e-07
5.90393e-05
6.95086e-06
6.1917e-05
-6.32573e-05
1.53369e-06
4.56788e-05
-5.20537e-05
3.80659e-06
-3.06006e-06
-5.03813e-05
5.34324e-05
-2.18249e-06
-6.31555e-05
-6.07072e-05
6.36825e-05
-2.97452e-06
6.40505e-05
-3.64669e-07
-2.25014e-05
6.07552e-05
6.32255e-05
-6.09221e-05
-2.22053e-06
-3.17663e-05
-3.16899e-05
7.63713e-05
-9.06893e-06
5.82461e-05
-4.07201e-05
1.00928e-05
-6.54711e-05
5.53767e-05
7.32625e-05
-8.10078e-05
-3.51515e-05
6.92375e-05
-3.39814e-05
3.61672e-05
2.24886e-05
-5.86557e-05
-5.25506e-05
-8.20459e-06
6.30994e-05
1.80321e-06
-3.37586e-05
-3.83053e-05
-3.25941e-05
-2.46499e-05
5.65025e-05
4.7459e-06
6.03289e-05
5.21127e-05
2.53866e-05
6.95808e-05
-5.94897e-05
6.23182e-05
-6.22933e-05
5.90989e-05
-5.77427e-05
-1.35927e-06
6.38017e-05
-6.38033e-05
5.84669e-05
6.34062e-07
-5.54625e-05
-2.57625e-05
8.64543e-05
-5.91885e-05
-7.38137e-06
6.55816e-05
9.80379e-06
-5.93696e-05
1.38241e-07
-6.0275e-05
-1.34062e-06
6.20447e-05
-3.67472e-07
-6.57302e-05
6.57891e-05
4.46201e-06
-6.67657e-05
6.62013e-05
-1.34004e-06
-6.31295e-05
6.07858e-05
-6.04317e-05
-4.00626e-07
6.06393e-05
-6.15538e-05
9.14484e-07
5.90293e-05
-1.35722e-06
5.8504e-05
2.23836e-06
6.06306e-05
-6.05559e-05
-6.67081e-05
2.60608e-05
-6.01241e-05
6.17856e-05
-1.66153e-06
5.39803e-05
-5.53713e-05
6.77128e-05
-5.17576e-05
-1.0965e-05
6.59072e-05
-6.59072e-05
6.60466e-05
-6.67967e-05
7.67309e-07
-5.86226e-05
-2.6693e-06
2.85857e-05
3.75271e-05
-1.08942e-06
6.75538e-06
5.7288e-05
6.28322e-05
-6.28332e-05
1.90863e-05
3.22499e-05
-4.29421e-05
2.9856e-05
3.85758e-05
6.40637e-05
-6.22446e-05
-1.829e-06
-6.06779e-05
6.1953e-05
-1.27512e-06
-6.02821e-05
6.02558e-05
9.53124e-07
5.22544e-05
-5.32075e-05
3.40549e-05
2.96756e-05
-6.37305e-05
-2.10508e-05
3.5987e-05
-1.28562e-05
4.50828e-05
2.2896e-05
6.27224e-05
1.39615e-06
6.48253e-05
-6.48253e-05
-4.10781e-05
-2.39825e-05
8.95515e-05
6.92609e-06
5.6672e-05
-2.09172e-05
5.82951e-05
6.32797e-05
-6.32797e-05
7.71938e-05
-5.31414e-05
-2.40213e-05
1.29174e-06
-6.40007e-05
-6.12318e-05
5.1649e-05
9.58276e-06
6.82845e-05
-6.86822e-05
3.90298e-07
5.98224e-06
5.77005e-05
-1.26392e-05
8.93521e-05
-6.7e-05
3.6399e-05
2.10074e-05
-5.74064e-05
6.77543e-05
-6.17726e-05
3.39338e-05
3.20005e-05
-6.59343e-05
-6.23809e-05
-3.09271e-06
6.25034e-05
-5.76292e-05
6.43675e-05
-6.43496e-05
3.31449e-09
-6.10615e-05
6.06868e-05
3.008e-07
4.60848e-05
-6.57011e-05
6.16568e-05
4.04434e-06
6.59017e-05
-9.55439e-06
-5.62869e-05
-6.35128e-05
2.03994e-05
1.54312e-05
-4.24865e-05
-4.78261e-05
-2.25711e-05
6.03852e-05
-6.36746e-05
3.29345e-06
-1.93201e-07
-5.1327e-05
5.15202e-05
3.81765e-05
-6.05362e-05
2.23598e-05
-5.87557e-05
-9.43179e-06
4.18473e-05
-4.46809e-05
6.37363e-05
6.16144e-07
-5.93421e-05
6.09719e-07
1.44792e-06
-6.06246e-05
2.80588e-06
-6.3955e-05
-2.81962e-06
6.38015e-05
5.83328e-05
2.5153e-06
3.32048e-05
2.47426e-05
-5.79473e-05
-5.98536e-05
6.25326e-05
-2.67905e-06
-6.14362e-05
2.62766e-05
3.84043e-05
5.15202e-07
2.15741e-05
-5.75246e-05
-2.34417e-06
-6.3357e-05
-6.60247e-05
9.23272e-07
4.6621e-05
3.05826e-05
6.12614e-05
-6.127e-05
6.142e-05
-6.13079e-05
-1.14903e-07
-6.01885e-05
6.01937e-05
6.41216e-05
-1.3885e-08
-1.71899e-07
8.17153e-06
5.78981e-05
2.16402e-06
5.92533e-05
6.2494e-05
2.27737e-06
6.25816e-05
6.61364e-05
6.60203e-05
-5.78332e-05
3.42481e-05
2.65973e-05
-6.08454e-05
4.75688e-05
-5.00706e-05
6.374e-05
-5.31337e-08
-3.27153e-06
5.41606e-05
-5.08891e-05
-6.46724e-05
4.42261e-06
-3.65793e-06
5.44826e-05
-5.08247e-05
-6.46674e-05
2.45257e-06
6.22236e-05
1.44003e-06
-4.66312e-06
5.35194e-05
-4.88511e-05
6.18276e-05
-6.26399e-05
8.04209e-07
-5.37452e-05
4.91031e-05
6.10514e-05
-6.03521e-05
-6.43199e-07
7.46576e-05
-5.28505e-05
-2.17998e-05
-6.37031e-05
7.31553e-05
-1.62554e-05
4.39074e-05
3.0767e-05
-5.77033e-05
-2.24556e-06
-2.03081e-05
5.31988e-05
-1.56823e-05
1.10371e-05
2.31568e-06
8.0569e-05
-6.98279e-05
-4.70327e-05
2.76268e-05
2.35904e-05
6.25251e-05
-6.00664e-05
-2.35242e-06
-6.66124e-05
6.66004e-05
-6.48382e-05
4.16026e-06
-7.76179e-06
-5.63456e-05
-5.9541e-05
-1.56291e-06
-5.7182e-05
-8.50634e-07
6.14651e-05
-5.1649e-06
-4.1023e-05
4.61879e-05
-2.1324e-05
4.73811e-05
-1.50619e-05
-3.85899e-05
7.21102e-05
-3.35203e-05
6.63768e-05
-4.52067e-08
5.77919e-05
-5.72951e-05
-6.43874e-05
1.76457e-06
6.26228e-05
-3.01393e-06
-5.2074e-05
5.5088e-05
1.30796e-06
-6.4169e-05
-3.29364e-06
5.58066e-05
-7.38868e-06
-5.51169e-05
3.9386e-05
6.15735e-05
-3.68433e-07
-6.11965e-05
1.08016e-05
-2.93401e-05
-4.2633e-06
-5.87459e-05
-5.82155e-05
-9.22992e-06
6.81097e-05
-6.81097e-05
-5.93511e-05
1.14327e-06
3.62831e-05
-5.9699e-05
2.34159e-05
4.17571e-05
-4.6922e-05
-8.71979e-06
-5.62343e-05
6.06462e-05
-5.74437e-05
-2.2236e-06
6.07681e-05
5.53842e-07
-6.13219e-05
-6.80839e-05
5.93642e-05
3.70806e-06
4.00546e-05
-4.31911e-05
-6.06779e-05
6.1309e-06
5.4547e-05
2.49138e-05
-6.66027e-05
5.97092e-05
-6.06246e-05
9.16231e-07
-4.85731e-05
5.4131e-05
-5.99755e-06
4.69053e-05
-6.79822e-05
6.42972e-05
-6.42972e-05
-3.9413e-06
5.43667e-05
-5.04254e-05
5.94541e-05
-6.02143e-05
7.59991e-07
-6.72955e-05
3.669e-06
5.81235e-05
6.15804e-05
-6.15212e-05
-5.75719e-08
-4.52739e-05
-2.98096e-05
6.44003e-08
-5.58479e-05
5.57835e-05
-6.29919e-05
-6.21457e-05
-4.95626e-06
8.3906e-05
1.10791e-06
-1.9799e-05
-1.91349e-05
4.50766e-05
1.81609e-05
2.95647e-06
3.21579e-05
-3.8532e-05
-2.73641e-05
-3.38567e-05
-6.88756e-05
2.69534e-05
4.19067e-05
-6.21205e-05
6.21205e-05
4.37247e-07
5.90111e-05
1.30089e-06
-6.28418e-05
-5.50576e-05
4.16188e-06
5.64283e-05
-7.36577e-06
-5.55951e-05
7.98781e-06
-6.43132e-05
-3.54607e-05
7.38484e-05
2.28074e-06
6.19148e-05
4.91373e-05
2.04429e-05
4.80339e-05
-5.10971e-05
-2.26946e-05
5.94286e-05
-6.23652e-05
6.23652e-05
3.56431e-18
-5.43177e-06
-4.45912e-05
5.35552e-05
4.62394e-06
6.23781e-05
7.39374e-05
-1.79519e-05
-5.59828e-05
-6.26641e-05
6.26475e-05
-4.11253e-07
-6.42354e-05
4.79736e-05
2.5963e-05
-5.77913e-05
-8.33564e-06
-1.95409e-05
-1.2792e-05
3.43414e-05
-5.84038e-05
7.01807e-07
-6.0627e-05
5.98005e-05
7.56917e-07
-4.5853e-06
-5.98021e-05
5.57577e-05
-5.56933e-05
-6.62679e-05
3.90266e-06
-6.75945e-05
1.32665e-06
5.83514e-05
-5.55579e-05
-3.92845e-06
6.13219e-05
5.92982e-05
-6.26879e-05
3.35162e-06
-3.91738e-06
4.74131e-05
-3.94927e-05
-7.07117e-06
-5.95444e-05
-5.96157e-05
-5.3125e-06
-5.65825e-05
-4.41599e-06
6.22754e-05
-3.34907e-06
-6.39068e-05
-5.79296e-05
-3.10485e-05
7.90921e-05
-2.324e-05
3.90723e-05
1.41681e-07
-5.72776e-05
-6.16827e-05
-2.35705e-05
5.97377e-05
-1.86092e-05
-4.50554e-05
5.94875e-05
-5.9389e-05
-4.77791e-08
1.84114e-06
-6.33206e-05
6.14809e-05
-1.63297e-05
-5.89565e-05
-4.8768e-05
5.04984e-05
-1.8277e-06
-3.70945e-06
6.51859e-05
-6.14765e-05
-1.45617e-06
-5.80996e-05
2.89999e-05
-5.26189e-05
2.94822e-05
-5.80544e-05
9.29465e-06
7.03782e-05
-1.86901e-05
1.76966e-06
-6.40513e-05
6.29322e-05
1.35023e-06
5.76561e-05
-3.92413e-06
-6.09728e-05
-2.1046e-05
5.93513e-05
-6.29835e-05
6.30188e-05
5.49649e-05
-5.50668e-05
-6.08148e-05
2.49229e-05
3.75067e-05
-6.24296e-05
1.83975e-05
4.16076e-05
-6.0005e-05
5.95702e-05
-4.82617e-05
5.87973e-05
-1.03627e-05
-5.40006e-05
5.74831e-06
3.72653e-06
5.78889e-05
6.62601e-05
-6.59145e-05
-4.64492e-06
6.0969e-05
1.80269e-06
6.58477e-06
6.12469e-05
7.1922e-06
6.05711e-05
4.58591e-05
-4.82155e-05
-4.8825e-05
5.10451e-05
-2.22427e-06
-4.71013e-05
-1.72806e-06
5.69562e-05
-5.72946e-05
3.76729e-07
3.5013e-07
1.06625e-06
6.40207e-05
1.44386e-05
-2.97867e-05
5.39578e-05
-1.19126e-05
-6.06635e-05
2.82962e-06
4.90604e-05
-4.71951e-05
-1.86918e-06
5.12817e-05
-2.22585e-06
6.09735e-05
-4.09061e-06
-5.59113e-05
-1.86374e-05
5.68139e-05
-6.38643e-05
4.32833e-06
3.21745e-05
-5.12275e-05
1.90541e-05
5.16795e-05
-1.95027e-05
2.61736e-05
-5.12894e-05
-2.44463e-05
6.06522e-05
-4.54045e-07
5.78942e-05
6.07681e-05
-5.93088e-05
6.00163e-05
-7.52049e-07
6.36661e-05
-6.36661e-05
-3.78673e-06
-5.80761e-05
-5.28181e-07
-6.13477e-05
5.28468e-05
8.50083e-06
-3.6928e-05
-1.98145e-05
5.6994e-05
-2.82073e-06
5.38901e-05
-5.10694e-05
-9.68982e-05
3.58497e-05
3.53436e-05
6.20589e-05
-1.74906e-06
5.19537e-05
-4.58989e-05
-6.04707e-06
4.94696e-05
2.48875e-06
-5.68525e-05
5.40318e-05
-7.29006e-05
4.19957e-05
3.08965e-05
-3.75196e-05
6.95008e-05
-3.19812e-05
-1.92723e-05
-1.14231e-05
5.08409e-05
-3.04261e-06
-6.29935e-05
5.83814e-05
-3.48936e-06
-6.90595e-05
5.70757e-05
-5.75301e-05
2.84344e-07
-5.34522e-06
5.64533e-05
-5.1108e-05
6.49026e-05
-1.13873e-05
-3.78488e-05
2.61432e-06
5.54732e-05
3.57767e-06
6.04018e-05
-6.46148e-05
6.42056e-05
4.10668e-07
5.1546e-05
-5.68912e-05
-2.27977e-06
4.51446e-05
-4.28648e-05
-2.03414e-06
3.8395e-05
-0.000109623
-6.5611e-05
5.67366e-05
-5.8928e-05
5.45711e-05
-6.04859e-05
5.90882e-05
-6.35263e-05
4.85594e-06
6.42556e-05
-5.77018e-05
-3.36619e-06
3.61414e-05
2.13551e-05
-5.74965e-05
-7.89547e-06
-6.01885e-05
5.2577e-05
-4.66481e-05
-5.92824e-06
4.95786e-05
3.00765e-06
6.10524e-05
-1.57946e-06
-1.93335e-05
3.40762e-05
-1.3628e-05
-4.39888e-05
-2.6717e-05
5.28597e-05
-5.19066e-05
2.82236e-06
6.37804e-05
4.95109e-05
5.5614e-05
9.62616e-06
4.338e-05
-4.56598e-05
3.31017e-05
2.55283e-05
-5.863e-05
-6.16185e-05
6.05867e-05
-6.16286e-05
9.81777e-07
-3.82745e-06
-5.88396e-05
-1.8971e-06
-4.34022e-05
5.7368e-05
-1.39452e-05
3.68719e-05
-5.15514e-05
1.46742e-05
5.47074e-05
-1.78354e-05
-3.56119e-05
-3.73397e-05
-7.72803e-07
-6.48382e-05
-2.25662e-06
6.55756e-05
5.30254e-05
-4.69422e-05
-6.07847e-06
4.9887e-05
3.14272e-06
-6.3035e-05
6.3035e-05
5.66336e-05
-2.44721e-07
-5.63889e-05
6.41427e-05
-4.15124e-05
4.29916e-06
5.90055e-05
5.93441e-05
-5.2353e-05
7.94724e-05
-2.20885e-05
-5.74291e-05
6.20277e-05
-5.9131e-05
-2.80411e-06
-2.34675e-05
5.98665e-05
-5.57153e-05
1.24053e-05
6.53848e-05
-6.08012e-05
-4.49108e-06
4.68634e-06
6.13632e-05
-4.43992e-05
-2.08022e-05
-1.88431e-05
-1.41282e-05
3.9038e-05
4.96115e-05
-4.79424e-05
-1.65904e-06
5.16833e-05
-2.06597e-06
-1.90693e-06
1.44376e-06
-6.00741e-05
5.84549e-05
5.78057e-05
1.58425e-06
-5.93899e-05
-5.28468e-05
1.28801e-08
7.45693e-06
8.45624e-05
-8.88372e-05
6.58828e-05
-4.70238e-05
5.75909e-05
-1.05183e-05
1.86386e-06
6.17589e-05
-5.36288e-05
6.69921e-06
3.6843e-05
-5.13649e-05
1.45198e-05
5.47863e-05
-1.79461e-05
8.01139e-06
6.57527e-05
-1.03427e-05
-6.34214e-05
-6.16813e-07
6.17792e-05
5.22929e-05
-4.66859e-05
-5.60426e-06
6.66274e-05
5.03853e-05
1.91068e-06
4.27102e-05
-4.66515e-05
5.94746e-05
-6.33117e-05
3.82881e-06
1.30089e-06
-5.66465e-05
5.53456e-05
9.40726e-06
5.3573e-05
-6.58826e-05
6.32283e-05
-6.1623e-05
-6.2014e-05
4.09643e-05
3.64453e-05
6.67781e-05
6.75478e-07
-6.27032e-05
3.11794e-05
-5.00616e-05
1.88942e-05
5.11303e-05
-1.99476e-05
6.28758e-05
-3.32774e-06
6.01773e-05
-6.13155e-05
1.08151e-06
1.08736e-05
5.26698e-05
-5.77388e-05
-2.73596e-05
6.4967e-05
-1.86409e-05
6.21772e-05
9.1211e-07
8.03715e-05
-5.08633e-05
2.74306e-06
6.35057e-05
-6.14889e-05
-6.22106e-06
6.64482e-05
-6.02271e-05
-3.78673e-06
-5.7767e-05
2.92094e-05
4.23676e-05
4.94082e-05
3.00457e-05
6.14681e-05
8.63747e-07
5.80761e-05
9.15942e-06
8.08847e-05
1.82075e-05
-5.33233e-05
6.25142e-06
5.7595e-05
-5.59974e-05
3.52656e-05
-6.12189e-05
2.59533e-05
2.16897e-05
-5.62961e-05
-5.94554e-05
8.6021e-07
5.83112e-05
-1.26754e-05
-5.62568e-05
-1.68405e-06
6.20487e-05
-6.36289e-05
6.1884e-05
1.71116e-05
-5.50419e-05
6.24559e-05
-6.41897e-05
5.59767e-05
1.82897e-06
-1.83051e-05
-1.52431e-05
4.46678e-05
6.34199e-05
-6.31124e-05
-3.6886e-07
6.24452e-05
-5.85214e-05
-3.81189e-06
-6.35541e-05
6.35691e-05
-3.61929e-06
-5.03352e-05
5.39545e-05
5.83853e-05
6.80067e-06
6.20801e-05
-6.1153e-05
-9.39068e-07
3.66538e-05
-5.10563e-05
1.44082e-05
5.49659e-05
-1.83103e-05
-3.74681e-05
7.07501e-05
-3.3282e-05
-4.74184e-05
5.64668e-05
-7.43179e-06
6.57398e-05
-5.8308e-05
6.99387e-06
5.49592e-05
-2.12521e-06
-5.91066e-05
-4.34761e-05
-2.40672e-05
5.17886e-05
-4.75016e-05
-4.29094e-06
7.01507e-05
-2.85426e-05
2.35908e-06
5.96739e-05
-0.000109233
4.38009e-05
6.03393e-05
-6.1612e-05
6.15955e-05
-6.63849e-05
5.94262e-05
-6.31485e-05
6.30625e-05
1.70199e-06
5.00841e-05
-4.50108e-05
5.54854e-05
-1.05302e-05
-6.0859e-05
5.46629e-05
-5.3e-05
7.96398e-06
6.06908e-05
-2.52449e-05
3.65981e-05
-5.08521e-05
1.42588e-05
5.50198e-05
-1.84186e-05
1.19996e-05
-2.98492e-05
-6.42972e-05
6.83931e-06
5.74579e-05
-3.91274e-07
6.27355e-05
-8.59885e-07
5.4683e-05
-5.38295e-05
-6.03559e-05
6.03559e-05
4.79395e-05
-6.86764e-05
2.07369e-05
-3.28441e-05
6.60489e-05
5.81381e-05
3.73714e-07
4.66129e-05
7.43179e-05
-3.55747e-05
-3.87432e-05
3.05006e-05
-4.93966e-05
1.89076e-05
5.0609e-05
-2.01034e-05
-3.54956e-05
7.15506e-05
-1.96774e-05
5.73257e-05
-3.87596e-06
-5.25234e-05
5.80285e-05
7.15537e-08
-5.81065e-05
4.11013e-06
5.37768e-05
-6.27915e-05
5.3648e-05
9.14355e-06
3.09141e-07
-4.99283e-05
5.29926e-05
1.26085e-05
7.41908e-05
-5.49926e-05
6.33231e-05
-6.09003e-05
-1.20017e-06
-7.52991e-06
-5.98096e-05
1.79033e-06
-6.16439e-05
-2.14365e-05
-2.40694e-05
-6.31741e-05
4.30361e-06
5.95828e-05
-5.98665e-05
2.53091e-07
-5.90156e-05
4.74997e-05
-2.84944e-06
-3.53237e-05
1.18478e-06
-5.2797e-05
5.1601e-05
-3.655e-06
-6.10202e-05
5.85031e-05
-5.98121e-05
1.8729e-06
3.1891e-05
3.2316e-05
-6.42071e-05
-4.05331e-06
-5.92585e-05
6.21141e-05
-6.20938e-05
-6.46063e-05
5.71745e-05
5.575e-05
-8.84473e-06
1.84138e-06
-6.04567e-05
5.84505e-05
-6.27448e-05
6.12932e-05
-3.23903e-05
3.30396e-05
-6.01814e-05
6.12521e-05
-6.1343e-05
5.65558e-07
6.21884e-05
5.46026e-05
1.15497e-05
-9.5548e-06
-5.55808e-05
-7.70274e-05
9.12127e-05
6.15231e-05
-5.8693e-05
-2.96415e-06
5.6774e-05
-5.51023e-05
-4.78042e-06
-4.43169e-05
4.54795e-05
5.94233e-05
-1.0889e-06
6.16184e-05
-6.66251e-05
3.87124e-05
-5.72851e-05
1.85388e-05
3.6414e-05
-5.05371e-05
1.41363e-05
5.52098e-05
-1.87721e-05
-1.18253e-06
-5.88791e-05
-3.96033e-05
3.65172e-05
-1.78938e-06
6.15095e-05
-5.69427e-05
5.7342e-05
-3.99282e-07
3.19048e-05
-8.71831e-05
6.57655e-05
-5.87717e-05
-6.19384e-05
2.78642e-06
6.30123e-05
4.23461e-06
5.83259e-05
-6.84775e-05
4.65774e-05
2.19003e-05
-4.35879e-05
5.42627e-05
-1.06674e-05
-5.23623e-05
8.84565e-06
6.07423e-05
-6.07938e-05
5.15202e-08
6.28917e-05
-6.49123e-05
3.63387e-05
-5.03586e-05
1.40151e-05
5.52278e-05
-1.88863e-05
-6.18272e-05
7.37145e-07
-6.42576e-05
4.29893e-05
5.52476e-05
-1.65684e-05
1.35774e-05
6.43722e-05
-6.1685e-05
-6.09226e-06
5.40318e-05
4.42011e-05
-4.47845e-05
2.193e-06
-3.34369e-05
3.49565e-05
-6.07552e-05
2.57987e-05
-6.24509e-05
5.92594e-06
5.6508e-05
4.92147e-05
-5.24862e-05
3.48663e-05
-6.33698e-05
2.85036e-05
4.88669e-05
-5.25248e-05
-2.20893e-05
5.83724e-05
-7.6403e-05
5.84564e-05
-6.06395e-05
-4.26716e-05
3.63019e-05
-5.02646e-05
1.39629e-05
5.53076e-05
-1.9011e-05
6.60747e-05
-3.29729e-05
1.23029e-06
-5.05928e-06
-4.08645e-05
4.59238e-05
-5.863e-05
3.96706e-06
5.46629e-05
6.1491e-05
-7.56762e-06
-5.52685e-05
-6.10358e-05
6.10027e-05
1.14752e-06
-6.06251e-05
5.95887e-05
6.21959e-05
-5.52271e-07
-4.87093e-05
4.71979e-05
6.41427e-06
6.00339e-05
-2.78701e-05
5.10995e-05
-1.84319e-05
5.98927e-05
3.47869e-06
6.98743e-05
-3.22001e-05
-3.76741e-05
-5.76855e-05
-1.07983e-05
-1.73827e-05
3.53843e-05
-1.68084e-05
5.91404e-05
-5.78942e-05
1.01771e-06
-6.19322e-05
7.91458e-05
-7.72651e-05
6.38464e-05
-6.34471e-05
-3.99282e-07
3.62322e-05
-5.01071e-05
1.38877e-05
5.53574e-05
-1.91179e-05
-5.87073e-05
5.98021e-05
-1.79076e-06
-5.84923e-05
-1.86159e-06
6.21003e-05
-1.2236e-06
5.13993e-05
5.85441e-05
-6.08311e-05
2.27725e-06
-1.74325e-05
-4.87774e-05
6.63548e-05
7.04668e-05
-3.44928e-05
-3.5974e-05
-6.27594e-05
6.20061e-05
7.74656e-07
-6.08969e-05
-2.13809e-06
6.46063e-05
-8.23035e-06
-5.6376e-05
6.10386e-05
-2.67905e-06
-6.21462e-05
-5.86181e-05
2.56454e-06
5.27589e-05
-2.89429e-05
6.85996e-06
3.43814e-05
-5.15553e-05
1.71923e-05
3.03373e-05
-4.81093e-05
1.77775e-05
-2.0177e-05
5.05224e-05
7.4816e-05
-4.18758e-05
-6.02689e-05
-4.55052e-05
4.5312e-05
5.97381e-05
-6.1004e-05
1.63173e-06
4.81913e-05
-6.17633e-05
4.93242e-05
-1.49298e-05
-3.2743e-05
7.09081e-05
-2.98271e-05
-4.08646e-06
-5.98283e-05
3.49049e-06
5.88747e-05
-6.12045e-05
-1.93355e-06
1.05258e-05
5.59239e-05
3.10409e-06
-5.91066e-05
5.60025e-05
3.84354e-05
2.08348e-05
-5.92701e-05
-4.89777e-05
-4.93105e-05
-6.03999e-05
5.96618e-05
5.92454e-07
1.94618e-05
5.1546e-05
5.79107e-05
-3.6986e-05
-5.45922e-06
-3.22761e-05
5.22141e-05
-1.99309e-05
3.16513e-06
5.68231e-05
5.63893e-05
-8.2089e-07
6.20174e-05
3.74809e-06
-8.46913e-07
6.19459e-05
-4.46612e-05
5.31296e-05
-8.5386e-06
5.14437e-05
-5.35646e-05
2.20217e-06
9.41389e-06
-5.40739e-05
6.05413e-05
1.81995e-05
-5.04643e-05
8.92861e-05
6.01606e-06
4.80878e-05
-4.87445e-05
1.60621e-06
6.5527e-05
5.96089e-05
-2.5554e-05
1.32617e-05
5.64031e-05
3.46473e-05
-6.28546e-05
2.82073e-05
2.83083e-06
-6.00564e-05
5.62567e-05
2.12242e-06
2.20957e-05
-6.30066e-05
-6.08969e-05
-6.36882e-05
-6.01859e-05
6.01962e-05
2.46009e-06
6.03688e-05
6.04265e-05
-5.88053e-05
-7.58635e-06
-5.55903e-05
5.43468e-05
1.12495e-05
4.92533e-05
-5.22672e-05
6.13142e-06
5.42239e-05
-6.22735e-05
-6.96247e-07
-6.27904e-05
4.23844e-05
-4.74437e-05
-5.89603e-05
-1.25825e-06
6.78515e-05
-1.07639e-05
-5.7098e-05
4.01567e-05
-2.43602e-05
-1.55264e-05
-1.79513e-06
-5.84447e-05
6.23667e-05
7.79008e-05
-5.31017e-05
-1.041e-05
-5.01863e-06
6.40255e-05
-2.96011e-07
-6.09743e-05
5.30971e-05
-4.81881e-05
-4.91368e-06
-7.15906e-06
-5.81865e-05
5.83388e-05
1.35057e-07
-2.9504e-05
4.70703e-05
-1.757e-05
-3.74835e-05
6.95136e-05
-3.20301e-05
3.31659e-05
1.58514e-05
-4.90186e-05
5.25549e-05
-1.93904e-05
2.09348e-05
-5.04432e-05
-5.60606e-05
6.03152e-05
-2.6478e-06
7.82272e-05
-1.24704e-05
-3.57177e-05
2.03138e-05
4.25165e-05
2.51335e-05
6.33827e-05
-3.86402e-05
1.90662e-06
-3.06169e-06
-4.22694e-05
7.84019e-06
-6.21795e-05
5.44866e-05
6.73155e-05
-5.85501e-05
-3.2836e-06
-2.56957e-05
5.99438e-05
8.42522e-05
-5.65834e-05
6.10378e-05
-5.80469e-05
-2.85208e-06
1.37342e-05
-5.80975e-06
3.91425e-05
1.32407e-05
-5.23832e-05
-6.9972e-05
3.78606e-05
3.21207e-05
-1.96734e-06
-5.50359e-05
5.6994e-05
-3.51334e-05
-3.48279e-05
-6.03265e-05
6.0343e-05
4.13578e-05
2.32099e-05
-6.45677e-05
-5.80584e-05
5.78874e-05
-3.8716e-06
-5.95463e-05
5.77016e-05
-6.0732e-07
-6.40437e-05
5.08117e-05
2.28639e-06
3.65021e-05
-5.9493e-05
2.29909e-05
-6.14409e-05
1.34403e-06
-5.88016e-05
5.85655e-05
-1.04294e-09
-7.61422e-05
5.40089e-05
-6.2597e-05
-2.00929e-06
7.41891e-06
-5.77155e-05
5.02966e-05
6.5978e-05
-6.01637e-05
-2.22266e-06
5.94018e-05
-5.71498e-05
-5.6895e-05
-5.89649e-06
-1.8184e-06
-5.66269e-05
5.81818e-05
1.85781e-06
3.41193e-05
3.0281e-05
5.93311e-05
5.55876e-07
-1.77337e-05
5.26573e-05
-4.91319e-05
-3.58689e-06
-5.51781e-05
-3.20255e-05
1.6549e-05
6.03273e-05
-5.99649e-05
5.78725e-05
5.1639e-05
9.58367e-07
5.58157e-05
-5.02739e-07
-2.82073e-06
-5.80761e-05
0.000110709
-2.41752e-05
5.52683e-05
-5.31946e-05
-2.07369e-06
5.67282e-05
-5.88815e-05
5.37098e-05
-4.90601e-05
-4.6497e-06
-2.33258e-05
5.94672e-05
4.00808e-05
-3.62759e-05
5.50493e-05
2.18961e-07
-4.88269e-05
-3.14136e-05
7.54748e-05
5.10436e-05
-4.96655e-05
-1.37817e-06
5.1649e-05
2.0608e-06
5.28984e-05
-1.85473e-06
-4.68415e-09
6.15262e-05
5.66078e-05
5.13806e-07
5.48561e-05
-4.74372e-05
4.37136e-06
5.76586e-05
2.00493e-05
-4.3287e-05
4.30451e-05
-4.66644e-05
5.98536e-05
6.16838e-05
6.38464e-05
-6.57527e-05
-2.56552e-06
-3.38124e-05
2.00938e-05
-6.0343e-05
5.42508e-05
6.16027e-05
5.10175e-05
-2.18144e-05
-6.9928e-05
4.11075e-05
2.8822e-05
-6.24344e-05
6.27133e-05
-2.6846e-07
-2.93665e-06
-6.19015e-05
-3.83124e-05
-3.16143e-05
4.71113e-05
1.71484e-05
5.83949e-05
-6.06868e-05
2.31236e-06
-6.00858e-05
6.05719e-05
4.75318e-07
-5.77284e-05
-3.61929e-06
1.58572e-05
-3.88344e-05
-6.13769e-05
5.44972e-05
-5.30984e-05
-1.44686e-06
5.5238e-05
-9.41344e-07
5.83187e-05
6.17165e-05
-4.19115e-07
2.08657e-06
5.58994e-05
-6.23781e-05
5.42765e-05
-5.02451e-05
-4.03146e-06
-9.27382e-07
5.19066e-05
-5.31431e-05
1.23648e-06
5.2512e-05
-5.10694e-05
-1.44257e-06
5.22544e-05
-5.30787e-05
8.24323e-07
-3.64079e-07
5.26665e-05
1.61001e-06
5.4122e-05
-1.61001e-06
-2.00929e-06
5.42637e-05
5.43023e-05
-2.39569e-06
-7.78755e-06
5.64475e-05
-5.44179e-05
5.60783e-05
2.60174e-07
5.86171e-05
-1.72593e-05
5.61539e-05
-5.85631e-06
-5.02818e-05
-1.50314e-05
-5.21859e-05
6.1384e-05
-3.05734e-06
-5.85733e-05
-4.61946e-05
5.71735e-05
-1.41702e-06
-5.53225e-05
5.7566e-05
-5.95907e-05
2.64155e-06
6.00446e-05
-5.65448e-05
5.16619e-05
-5.04125e-05
-1.24936e-06
-5.7551e-05
5.65702e-05
9.80727e-07
-1.57137e-06
5.32332e-05
2.56785e-06
5.78409e-05
-5.5698e-05
-5.95484e-05
5.77706e-05
1.73885e-06
-4.49817e-05
-3.14134e-05
-6.75527e-05
3.52885e-05
3.23252e-05
-5.95351e-05
-6.98027e-05
3.91938e-05
3.06224e-05
-1.04852e-06
-2.59811e-05
-2.83371e-05
2.82091e-05
2.34258e-05
-5.19063e-05
-6.03302e-05
-2.57515e-05
-3.65354e-05
5.85744e-05
-6.0246e-05
1.68846e-06
-2.71791e-05
5.55455e-05
-4.3921e-06
-5.99051e-05
-5.87036e-05
5.72331e-05
-1.03966e-06
-5.64265e-05
3.4771e-07
1.39347e-06
5.75963e-05
4.85634e-05
-4.66223e-05
-5.3497e-06
-6.15323e-05
5.19747e-06
6.31766e-05
3.73521e-07
-6.2494e-05
6.34214e-05
-5.92325e-05
-1.25691e-06
3.30323e-07
5.98156e-05
6.11944e-05
-6.0313e-05
-8.8332e-07
-6.27688e-05
-6.02709e-07
6.33692e-05
-2.96152e-05
1.21263e-05
5.96819e-05
-6.07242e-05
1.00582e-06
6.2597e-06
5.94801e-05
8.75843e-07
-5.74193e-05
5.65434e-05
5.72647e-05
-5.63889e-05
2.68807e-05
1.3273e-06
-6.13578e-05
-6.2734e-05
-3.50686e-05
-3.46791e-05
5.65085e-05
2.88447e-06
-5.8257e-05
5.93856e-05
-1.12889e-06
5.56805e-05
-5.35939e-05
5.66207e-05
-5.62343e-05
-3.86402e-07
-5.56176e-05
-4.25394e-06
3.50763e-05
-5.97492e-05
5.71359e-05
-2.35705e-06
-5.47789e-05
5.62729e-05
-1.77745e-06
-5.44955e-05
5.28994e-07
5.39717e-05
2.15716e-05
4.7734e-05
7.13768e-06
4.90314e-05
8.47254e-07
7.2489e-05
1.34512e-06
6.01767e-05
6.09751e-05
1.74e-06
-6.88742e-05
4.16453e-05
2.72296e-05
3.41579e-05
-6.40782e-05
2.99204e-05
-1.0304e-07
5.67366e-05
6.06226e-05
-6.06243e-05
-2.32745e-06
5.10165e-05
-4.87238e-05
-6.29113e-05
2.43214e-05
1.72593e-06
6.00597e-05
-4.73419e-05
5.96257e-05
-6.00326e-05
4.23847e-07
-5.89122e-06
5.15443e-05
-5.28964e-05
6.15241e-05
-5.98681e-05
2.72285e-06
6.05578e-05
5.76125e-05
-6.92358e-05
3.70102e-05
3.22295e-05
-2.1824e-05
6.02593e-05
-5.98358e-05
5.49137e-05
8.29599e-06
5.86944e-05
-3.05257e-06
-5.56418e-05
-3.9324e-05