/*--------------------------------*- C++ -*----------------------------------*\
  =========                 |
  \\      /  F ield         | OpenFOAM: The Open Source CFD Toolbox
   \\    /   O peration     | Website:  https://openfoam.org
    \\  /    A nd           | Version:  12
     \\/     M anipulation  |
\*---------------------------------------------------------------------------*/
FoamFile
{
    format      ascii;
    class       volScalarField;
    location    "2";
    object      p;
}
// * * * * * * * * * * * * * * * * * * * * * * * * * * * * * * * * * * * * * //

dimensions      [1 -1 -2 0 0 0 0];

internalField   nonuniform List<scalar> 
9801
(
0.767631
0.768157
0.773442
0.780808
0.784568
0.78623
0.786897
0.785424
0.784654
0.784824
0.785943
0.78783
0.792313
0.800548
0.806566
0.808483
0.808933
0.808683
0.808633
0.808844
0.809931
0.811489
0.816084
0.824733
0.829317
0.830815
0.831486
0.831598
0.831788
0.832319
0.8337
0.836816
0.844504
0.851694
0.854194
0.855231
0.855919
0.856172
0.85655
0.858723
0.860934
0.86705
0.875452
0.879871
0.880576
0.881224
0.882024
0.882715
0.884781
0.887174
0.892769
0.902642
0.907369
0.90933
0.910355
0.909858
0.911088
0.913049
0.91557
0.920417
0.932544
0.939541
0.941866
0.942537
0.942293
0.942735
0.944519
0.94722
0.95203
0.964397
0.976256
0.980849
0.98173
0.979137
0.978991
0.980947
0.984548
0.990195
1.00305
1.01965
1.02777
1.03199
1.02933
1.02387
1.02527
1.03052
1.0386
1.05786
1.0834
1.099
1.10918
1.11547
1.11128
1.11068
1.12776
1.16377
1.23019
1.72764
4.00227
0.771621
0.771906
0.774222
0.779644
0.78829
0.79316
0.794736
0.794901
0.791699
0.78995
0.791023
0.792641
0.79511
0.801735
0.809866
0.813721
0.815615
0.815667
0.812874
0.812518
0.814049
0.815997
0.820485
0.828316
0.833441
0.83616
0.837631
0.835928
0.834896
0.836008
0.838128
0.84186
0.848879
0.854989
0.858261
0.86036
0.859955
0.858529
0.859542
0.862504
0.865559
0.87199
0.878941
0.883504
0.885321
0.885228
0.883922
0.88493
0.887859
0.890983
0.897188
0.905838
0.910695
0.913745
0.914625
0.911615
0.912658
0.91555
0.918738
0.923823
0.934559
0.942023
0.945769
0.94748
0.944204
0.943661
0.946533
0.95003
0.954617
0.965935
0.977615
0.983478
0.986588
0.982915
0.979261
0.981681
0.98613
0.991517
1.00428
1.02085
1.03022
1.0354
1.035
1.02609
1.02551
1.03213
1.04094
1.0584
1.07967
1.09458
1.10677
1.11729
1.11518
1.10966
1.11699
1.14162
1.18149
1.65658
3.98722
0.775229
0.775209
0.776427
0.77958
0.78781
0.793591
0.795909
0.796852
0.795456
0.794111
0.794885
0.796114
0.797854
0.803098
0.810838
0.815087
0.817216
0.817435
0.815321
0.814863
0.816247
0.818374
0.823005
0.830394
0.835399
0.838289
0.839706
0.838202
0.836932
0.837966
0.840338
0.844494
0.851635
0.857296
0.860468
0.862681
0.862299
0.860515
0.861448
0.864417
0.867739
0.874487
0.881367
0.885665
0.887686
0.888006
0.886407
0.887093
0.889842
0.892997
0.89916
0.907842
0.912793
0.916105
0.917446
0.914541
0.915081
0.917698
0.920927
0.92583
0.936205
0.943805
0.947961
0.950245
0.947355
0.945727
0.94814
0.952028
0.957265
0.9679
0.979101
0.985286
0.988993
0.987244
0.982107
0.982945
0.987348
0.992907
1.00421
1.02062
1.03072
1.03693
1.03962
1.03188
1.02755
1.03326
1.04145
1.05489
1.07565
1.09388
1.10764
1.12043
1.12121
1.1135
1.1207
1.14353
1.16936
1.6277
3.96282
0.780031
0.778159
0.778538
0.779823
0.785553
0.793489
0.797713
0.799869
0.800895
0.80019
0.799464
0.79992
0.801248
0.804671
0.811175
0.815861
0.818542
0.820095
0.819688
0.818815
0.819741
0.821617
0.825885
0.832451
0.837134
0.840067
0.8419
0.841559
0.840291
0.841126
0.843372
0.847755
0.854741
0.859805
0.862732
0.864973
0.865111
0.863335
0.864078
0.866724
0.870225
0.877397
0.884169
0.88823
0.890319
0.891189
0.889329
0.889373
0.891706
0.894895
0.901423
0.910283
0.915408
0.918755
0.920759
0.917983
0.917217
0.919198
0.922402
0.927738
0.93808
0.945808
0.950147
0.953281
0.951851
0.948385
0.949464
0.952864
0.958118
0.968711
0.980392
0.987022
0.99132
0.992665
0.986599
0.984428
0.988011
0.993497
1.00316
1.01989
1.03219
1.03932
1.04456
1.04043
1.03209
1.03408
1.04183
1.05234
1.07081
1.09004
1.10461
1.11793
1.12666
1.12145
1.11795
1.1302
1.14642
1.61238
3.9372
0.783607
0.780852
0.781196
0.782467
0.78665
0.794079
0.799176
0.802215
0.804232
0.804781
0.803297
0.803273
0.804593
0.807595
0.812761
0.816858
0.819967
0.822357
0.823352
0.822624
0.823292
0.82492
0.828503
0.834212
0.838386
0.841413
0.843721
0.844505
0.843682
0.844461
0.84653
0.850433
0.857046
0.861732
0.864614
0.867046
0.867886
0.866429
0.867034
0.869398
0.872446
0.879516
0.886334
0.890389
0.89267
0.894179
0.892461
0.891944
0.894008
0.896918
0.903231
0.912173
0.917568
0.921083
0.923671
0.921683
0.919533
0.921004
0.924032
0.929404
0.939878
0.947944
0.952539
0.956033
0.956503
0.951824
0.950968
0.953927
0.958576
0.968592
0.981832
0.989605
0.994139
0.997115
0.992657
0.987492
0.989192
0.994068
1.00132
1.0164
1.03176
1.04071
1.04698
1.04894
1.04013
1.03626
1.04156
1.05037
1.06584
1.08567
1.10136
1.11459
1.12735
1.12906
1.12222
1.12418
1.12802
1.59291
3.90905
0.786076
0.783568
0.784288
0.786073
0.791107
0.797162
0.801074
0.80392
0.806269
0.807244
0.805673
0.805806
0.807481
0.811737
0.816629
0.819934
0.822497
0.824586
0.82549
0.825113
0.825793
0.827504
0.83135
0.837323
0.841189
0.843957
0.846182
0.847154
0.846438
0.847055
0.849018
0.852542
0.859268
0.864251
0.867186
0.869704
0.871043
0.86955
0.869553
0.8716
0.874293
0.881118
0.888587
0.892881
0.895351
0.897452
0.896159
0.894481
0.895982
0.898675
0.904338
0.913729
0.919792
0.923553
0.926547
0.926226
0.922912
0.922801
0.925455
0.929851
0.940147
0.949859
0.955078
0.958705
0.960685
0.956664
0.953487
0.955293
0.959226
0.966416
0.980713
0.99158
0.997127
1.00104
0.999626
0.992553
0.991137
0.994836
1.00029
1.01114
1.02882
1.04127
1.04881
1.05437
1.051
1.04156
1.04208
1.04923
1.06014
1.07834
1.09519
1.10882
1.12132
1.13148
1.12963
1.12368
1.11586
1.56939
3.87845
0.787431
0.785742
0.786993
0.789505
0.795813
0.801216
0.80445
0.80689
0.808656
0.807819
0.806272
0.806986
0.80913
0.814937
0.821405
0.824248
0.826214
0.827983
0.827889
0.826508
0.826939
0.828754
0.833105
0.840375
0.84499
0.847643
0.849687
0.850418
0.848875
0.848719
0.850418
0.853672
0.86094
0.867051
0.870329
0.872874
0.874446
0.872817
0.871698
0.873236
0.875708
0.882185
0.890696
0.895614
0.898305
0.900698
0.900165
0.897392
0.897783
0.900144
0.904883
0.91473
0.92212
0.926239
0.929364
0.930461
0.927047
0.925281
0.927108
0.930514
0.938915
0.950982
0.957875
0.96177
0.964536
0.962112
0.95741
0.957414
0.960597
0.965243
0.976783
0.991664
0.999689
1.00433
1.0064
0.999923
0.994717
0.996121
1.0008
1.00757
1.0227
1.03898
1.04886
1.05565
1.05936
1.05201
1.0458
1.04912
1.05683
1.07059
1.08913
1.10367
1.1155
1.1267
1.13187
1.12693
1.1115
1.54569
3.84735
0.789506
0.788488
0.789971
0.792617
0.799483
0.805757
0.808715
0.810443
0.810887
0.808711
0.807464
0.80846
0.810612
0.816439
0.824344
0.828577
0.830872
0.832159
0.830807
0.828424
0.828585
0.830311
0.834418
0.842481
0.848201
0.851273
0.85332
0.853941
0.85163
0.850569
0.851957
0.854824
0.862135
0.869518
0.873401
0.876047
0.877763
0.876349
0.874421
0.875318
0.877443
0.882922
0.892265
0.898119
0.901103
0.90364
0.903952
0.900739
0.900158
0.902003
0.905476
0.914592
0.924061
0.929037
0.932245
0.934119
0.931453
0.928463
0.929204
0.931949
0.937218
0.949638
0.959979
0.964886
0.968053
0.967802
0.962341
0.960309
0.962132
0.965823
0.972561
0.988031
1.00054
1.00666
1.01088
1.0094
1.00073
0.998776
1.00206
1.00726
1.01653
1.0336
1.04704
1.0554
1.06189
1.06368
1.05467
1.05094
1.05596
1.06456
1.08035
1.09683
1.1093
1.11987
1.12859
1.12916
1.11525
1.52776
3.81683
0.792732
0.792043
0.793557
0.795787
0.801913
0.808131
0.811284
0.812969
0.813248
0.811344
0.810285
0.811293
0.81326
0.818173
0.826043
0.830959
0.833478
0.834874
0.834094
0.831491
0.831369
0.832954
0.836382
0.844164
0.850486
0.853909
0.856109
0.857047
0.854645
0.85303
0.854195
0.856586
0.863004
0.87133
0.875946
0.878819
0.880818
0.880053
0.877625
0.878031
0.879769
0.883465
0.892634
0.900103
0.90367
0.906346
0.907502
0.904559
0.903073
0.904416
0.907021
0.913471
0.924762
0.931544
0.935095
0.93745
0.936299
0.932151
0.931712
0.933802
0.937216
0.946103
0.959967
0.967492
0.971389
0.973438
0.969126
0.963981
0.964177
0.96703
0.971268
0.981951
0.998413
1.00793
1.01298
1.01617
1.011
1.00381
1.00419
1.00804
1.01372
1.02628
1.0431
1.05429
1.06182
1.06762
1.06646
1.05777
1.05673
1.06242
1.07203
1.08835
1.10281
1.11333
1.12168
1.12635
1.12067
1.51708
3.78615
0.79664
0.796955
0.797936
0.799587
0.803941
0.809379
0.812593
0.814406
0.81533
0.814708
0.814069
0.814968
0.816692
0.820805
0.82767
0.832216
0.834827
0.836501
0.836608
0.834752
0.834672
0.836171
0.839026
0.846093
0.852465
0.856038
0.85837
0.859659
0.857679
0.8559
0.856838
0.858852
0.863697
0.87264
0.878351
0.881561
0.883848
0.884021
0.881312
0.880759
0.881944
0.884357
0.891731
0.901333
0.906189
0.909221
0.911235
0.909255
0.906467
0.906929
0.908971
0.912658
0.923221
0.933206
0.937891
0.940708
0.941606
0.937108
0.93461
0.935774
0.938531
0.943254
0.956459
0.968623
0.974142
0.977593
0.977223
0.970002
0.967049
0.968812
0.972192
0.977643
0.992099
1.00686
1.01419
1.01886
1.02088
1.01289
1.00734
1.0094
1.01406
1.02111
1.036
1.05077
1.06022
1.0672
1.07241
1.0699
1.06174
1.06218
1.06795
1.07822
1.09384
1.10629
1.11464
1.12011
1.12251
1.51554
3.75447
0.799795
0.801674
0.802229
0.803638
0.80626
0.810601
0.813598
0.815739
0.817371
0.817833
0.817662
0.818671
0.820393
0.824037
0.829675
0.833736
0.836301
0.838164
0.838912
0.837663
0.837757
0.839261
0.841643
0.848023
0.854822
0.858382
0.860724
0.862155
0.860734
0.858889
0.859539
0.861337
0.864701
0.873519
0.880913
0.884552
0.887017
0.887989
0.885114
0.883052
0.883629
0.885782
0.891023
0.901898
0.908827
0.912364
0.914875
0.914469
0.910391
0.909178
0.91055
0.913203
0.920439
0.933346
0.94048
0.94403
0.946342
0.943578
0.938429
0.937935
0.93995
0.943099
0.951195
0.966618
0.975861
0.980304
0.983241
0.979502
0.972192
0.971247
0.973711
0.977424
0.985423
1.00213
1.01428
1.02042
1.02455
1.02366
1.0152
1.01225
1.01522
1.02011
1.02878
1.04463
1.0577
1.06623
1.07294
1.07683
1.07258
1.06566
1.06691
1.07238
1.08271
1.09709
1.10753
1.11326
1.11931
1.5187
3.72146
0.802328
0.804766
0.80516
0.807137
0.810011
0.81268
0.815581
0.818011
0.819866
0.820826
0.820823
0.821713
0.823441
0.826676
0.8322
0.835931
0.83842
0.840384
0.841485
0.840641
0.840684
0.842056
0.844068
0.849101
0.856932
0.861235
0.863373
0.864852
0.864075
0.861868
0.862073
0.863854
0.866615
0.874074
0.882988
0.887565
0.889998
0.891063
0.888421
0.885277
0.885712
0.887918
0.891603
0.901582
0.911008
0.915571
0.918154
0.91898
0.914658
0.911504
0.912452
0.914909
0.919032
0.930965
0.942224
0.947144
0.950028
0.950184
0.944024
0.940616
0.941797
0.94449
0.948581
0.960717
0.975261
0.982141
0.986118
0.987949
0.98099
0.97504
0.975846
0.979056
0.983291
0.993959
1.01034
1.02001
1.02523
1.02943
1.0272
1.0186
1.01714
1.02078
1.02618
1.03659
1.0521
1.06341
1.07116
1.07757
1.08085
1.07587
1.06949
1.07076
1.07559
1.08552
1.09816
1.1059
1.11363
1.52412
3.68689
0.8049
0.806431
0.806079
0.808048
0.812648
0.816407
0.818689
0.820888
0.822785
0.823912
0.823337
0.823606
0.824978
0.8276
0.833909
0.839114
0.84145
0.84332
0.844664
0.843979
0.843384
0.8443
0.846072
0.849581
0.857669
0.863598
0.866218
0.867791
0.867721
0.865324
0.865072
0.866764
0.86911
0.874163
0.883618
0.88951
0.892199
0.893686
0.892266
0.888686
0.888537
0.890636
0.893466
0.900203
0.91138
0.917686
0.920756
0.922499
0.919877
0.915112
0.914915
0.917101
0.919947
0.926991
0.940817
0.949039
0.952962
0.955199
0.952098
0.94546
0.944357
0.946368
0.949319
0.955268
0.970242
0.982367
0.98785
0.991422
0.991065
0.983118
0.979413
0.981079
0.984238
0.989195
1.00255
1.01793
1.02625
1.03128
1.03411
1.02972
1.02264
1.02259
1.02647
1.03213
1.04371
1.05846
1.06874
1.07597
1.08195
1.08433
1.07911
1.07282
1.07351
1.07741
1.08661
1.09648
1.10572
1.52898
3.6513
0.807284
0.806841
0.80669
0.808504
0.813807
0.820311
0.823239
0.824928
0.826452
0.826853
0.825605
0.825395
0.826249
0.828015
0.83356
0.841403
0.845376
0.847259
0.848688
0.848011
0.846391
0.84667
0.84799
0.850009
0.856247
0.864522
0.868712
0.870986
0.872361
0.870576
0.869085
0.869933
0.871616
0.874097
0.881586
0.889748
0.893698
0.896176
0.897334
0.894339
0.892646
0.893826
0.895875
0.899002
0.908619
0.91838
0.922781
0.925302
0.925922
0.921139
0.91854
0.919606
0.921768
0.924939
0.935213
0.948633
0.954976
0.958517
0.959769
0.95379
0.948425
0.948808
0.951282
0.95443
0.962512
0.978383
0.988265
0.992858
0.99642
0.994198
0.985719
0.983523
0.986096
0.989833
0.996175
1.01077
1.02399
1.03091
1.03564
1.03873
1.03386
1.02724
1.02779
1.03183
1.03779
1.04983
1.06369
1.07311
1.07988
1.0853
1.0875
1.08245
1.07549
1.07482
1.07787
1.08515
1.0964
1.5314
3.61468
0.809505
0.807852
0.807668
0.80925
0.813372
0.822398
0.827867
0.829899
0.831088
0.830946
0.828541
0.826976
0.827196
0.828653
0.832454
0.842054
0.848876
0.851746
0.853408
0.853378
0.850521
0.848955
0.849091
0.850476
0.854474
0.8644
0.871414
0.874598
0.876652
0.876777
0.873742
0.872363
0.872641
0.874143
0.878742
0.889253
0.896134
0.899358
0.901591
0.90103
0.897234
0.896249
0.897192
0.899278
0.904666
0.91708
0.925007
0.928556
0.930731
0.928783
0.923235
0.921893
0.923287
0.925672
0.930364
0.943802
0.955615
0.960718
0.963971
0.963743
0.956377
0.952505
0.95347
0.955931
0.959535
0.970326
0.985801
0.994017
0.998264
1.00081
0.996944
0.99
0.989255
0.991873
0.995377
1.00256
1.01768
1.02976
1.03641
1.04104
1.04288
1.03765
1.0322
1.03302
1.03694
1.0428
1.05477
1.06803
1.07694
1.08325
1.08811
1.09007
1.08565
1.0774
1.07464
1.07606
1.08586
1.52589
3.57635
0.812979
0.809898
0.809776
0.811212
0.813438
0.821699
0.830571
0.834356
0.835868
0.835852
0.832345
0.828976
0.828958
0.830388
0.833059
0.84141
0.850886
0.855186
0.857319
0.858201
0.855037
0.850753
0.850267
0.851748
0.854688
0.863651
0.873411
0.877918
0.880327
0.881792
0.878838
0.874448
0.873666
0.874975
0.877923
0.88753
0.898111
0.902863
0.905383
0.906735
0.90284
0.898887
0.898876
0.900535
0.903279
0.912622
0.925458
0.931472
0.934435
0.935716
0.930653
0.925566
0.925511
0.927531
0.930106
0.936738
0.952023
0.961943
0.966278
0.969423
0.967175
0.958836
0.956201
0.957995
0.960854
0.965033
0.977648
0.99196
0.998834
1.00306
1.00612
1.00097
0.994039
0.993623
0.99639
1.00022
1.00854
1.02381
1.03473
1.04069
1.04532
1.04797
1.04273
1.03703
1.0377
1.04152
1.04722
1.05882
1.07163
1.08011
1.08589
1.09014
1.0919
1.08826
1.07934
1.07222
1.07598
1.51123
3.53731
0.818528
0.813757
0.812695
0.813783
0.815375
0.820128
0.830391
0.836509
0.839137
0.840395
0.838502
0.833315
0.831928
0.833107
0.835139
0.840953
0.851204
0.85713
0.859912
0.861553
0.859869
0.854204
0.852724
0.854096
0.856476
0.863157
0.874207
0.88034
0.883361
0.885106
0.883379
0.87741
0.875504
0.876759
0.879118
0.885613
0.898188
0.905502
0.908932
0.910954
0.909209
0.903012
0.901028
0.902108
0.904138
0.908586
0.92188
0.933035
0.937677
0.940496
0.939697
0.932482
0.92886
0.929476
0.931424
0.934546
0.944733
0.960208
0.96803
0.971776
0.974101
0.969404
0.962003
0.96071
0.962467
0.965279
0.970929
0.985997
0.99911
1.0051
1.00865
1.00993
1.00349
0.997441
0.997921
1.00123
1.00554
1.01505
1.03007
1.04033
1.04618
1.05035
1.05187
1.04685
1.04165
1.04218
1.04582
1.05117
1.06221
1.07454
1.08253
1.08773
1.0913
1.09276
1.09011
1.07956
1.07131
1.48795
3.49821
0.824436
0.821301
0.817247
0.817044
0.818149
0.820431
0.827704
0.836365
0.84017
0.842023
0.843063
0.840341
0.836972
0.837209
0.83866
0.841489
0.849646
0.857274
0.86062
0.862428
0.863002
0.859365
0.856731
0.857697
0.85968
0.863442
0.873388
0.881703
0.885258
0.887236
0.886909
0.881462
0.878383
0.879367
0.881531
0.8853
0.896335
0.907198
0.911817
0.914397
0.914434
0.90834
0.903572
0.903722
0.905776
0.908647
0.9168
0.9319
0.940131
0.943589
0.945934
0.941599
0.933202
0.931323
0.933281
0.936018
0.940596
0.953597
0.966886
0.972841
0.976138
0.97801
0.971365
0.964487
0.964556
0.967474
0.97108
0.978489
0.993286
1.00384
1.00887
1.01256
1.01373
1.0071
1.00224
1.00347
1.00685
1.01128
1.02094
1.03502
1.04429
1.04968
1.05396
1.05613
1.05187
1.04664
1.04668
1.04993
1.05468
1.06474
1.07644
1.08406
1.08869
1.09163
1.09294
1.08951
1.07854
1.46585
3.4594
0.828279
0.82912
0.824443
0.821195
0.821029
0.822025
0.82537
0.834338
0.841012
0.844
0.845882
0.846417
0.843367
0.841547
0.841935
0.843151
0.847568
0.856415
0.86151
0.863892
0.865531
0.86486
0.86174
0.861617
0.863144
0.86522
0.871303
0.881237
0.886356
0.888526
0.889478
0.886932
0.882908
0.883125
0.885238
0.887821
0.893479
0.90537
0.91299
0.916151
0.917618
0.915206
0.9083
0.906748
0.90879
0.911698
0.915665
0.926136
0.938899
0.944754
0.947552
0.948542
0.942515
0.936241
0.936329
0.93873
0.941498
0.946986
0.960691
0.971976
0.977136
0.980132
0.980606
0.974275
0.969945
0.971009
0.973547
0.976558
0.983775
0.99826
1.00836
1.01358
1.01727
1.0182
1.01197
1.00781
1.00889
1.01187
1.0159
1.02508
1.03897
1.04836
1.05396
1.05814
1.06034
1.05724
1.05186
1.05098
1.0535
1.0574
1.06597
1.07728
1.08479
1.08894
1.09156
1.09166
1.09002
1.45625
3.42094
0.830743
0.833043
0.83179
0.826581
0.824189
0.824592
0.826105
0.832351
0.841365
0.846026
0.848399
0.84998
0.849351
0.846056
0.845029
0.845787
0.847606
0.854612
0.86248
0.866079
0.868165
0.869501
0.867446
0.865641
0.866326
0.867872
0.87014
0.877571
0.886072
0.889907
0.892038
0.893035
0.889638
0.887871
0.88909
0.890928
0.893
0.89896
0.910303
0.91649
0.919362
0.92132
0.918063
0.913295
0.913482
0.915258
0.917162
0.9203
0.931262
0.942955
0.948237
0.951459
0.952621
0.946404
0.941621
0.9419
0.943816
0.94624
0.951765
0.965591
0.976182
0.981025
0.984873
0.985888
0.979334
0.974745
0.975067
0.977465
0.980851
0.988832
1.00332
1.01316
1.01839
1.02206
1.02324
1.01732
1.01242
1.0131
1.01638
1.02065
1.02939
1.04263
1.05206
1.0577
1.06193
1.06447
1.06269
1.05689
1.05456
1.05623
1.05946
1.0665
1.07739
1.08484
1.08904
1.09022
1.09459
1.45633
3.38251
0.832451
0.835671
0.836262
0.832349
0.828051
0.827685
0.828805
0.832325
0.841503
0.848034
0.850999
0.852873
0.853786
0.850858
0.848239
0.848159
0.849133
0.852815
0.86254
0.868986
0.871718
0.873617
0.873875
0.870899
0.869568
0.869638
0.870284
0.873133
0.883174
0.891975
0.895927
0.898093
0.89809
0.894272
0.892714
0.892628
0.892973
0.894905
0.903124
0.915877
0.922496
0.925967
0.927592
0.923175
0.918337
0.917188
0.917302
0.91887
0.923203
0.936629
0.948715
0.953898
0.957178
0.957767
0.951116
0.946236
0.945693
0.946865
0.949771
0.957231
0.972481
0.982687
0.987116
0.99018
0.990008
0.982797
0.978439
0.979272
0.982027
0.985695
0.994191
1.00823
1.01772
1.02288
1.02644
1.02717
1.02217
1.01783
1.01833
1.02111
1.02503
1.03297
1.04593
1.05563
1.06132
1.06545
1.06804
1.06724
1.0617
1.05809
1.05869
1.06113
1.06657
1.07667
1.08443
1.08769
1.09415
1.46257
3.34408
0.83377
0.837461
0.838369
0.836759
0.832152
0.830767
0.831646
0.833784
0.841822
0.850333
0.854015
0.856101
0.857481
0.855565
0.851151
0.849672
0.850457
0.852683
0.861355
0.871542
0.876063
0.878078
0.879534
0.877164
0.872308
0.869977
0.870193
0.872096
0.878889
0.892424
0.899858
0.903117
0.904939
0.902544
0.896389
0.893298
0.892936
0.894464
0.898205
0.911253
0.924387
0.929721
0.932826
0.933191
0.926125
0.9197
0.918604
0.919869
0.922372
0.928916
0.94454
0.955304
0.959637
0.962618
0.961727
0.952924
0.948264
0.949229
0.951774
0.95529
0.964212
0.978782
0.987176
0.991314
0.994425
0.99376
0.986577
0.982942
0.984149
0.986879
0.990399
0.998824
1.01266
1.0217
1.02639
1.03016
1.03239
1.02808
1.02276
1.02259
1.02543
1.02925
1.03637
1.0487
1.05851
1.06422
1.06817
1.07102
1.07161
1.06687
1.06171
1.06079
1.06243
1.06618
1.07535
1.08211
1.09048
1.47054
3.30466
0.834982
0.83931
0.840289
0.839979
0.835575
0.83331
0.834133
0.836058
0.842459
0.852424
0.857481
0.859574
0.860915
0.85948
0.853765
0.851527
0.852398
0.854296
0.860149
0.872607
0.87958
0.882421
0.883875
0.882599
0.875429
0.871339
0.871619
0.873439
0.877093
0.889455
0.90208
0.907028
0.909628
0.909791
0.902192
0.89525
0.894469
0.895998
0.898489
0.905431
0.92158
0.931574
0.935561
0.938144
0.936258
0.926061
0.921151
0.921847
0.924089
0.927509
0.93743
0.952768
0.960661
0.964224
0.966246
0.963498
0.955898
0.953459
0.954955
0.957284
0.960585
0.969764
0.983489
0.991414
0.995499
0.998633
0.997927
0.990859
0.987464
0.988761
0.991687
0.995498
1.00391
1.01719
1.02625
1.03119
1.03447
1.03604
1.03278
1.02798
1.0274
1.02991
1.03343
1.03928
1.05057
1.06088
1.06697
1.07096
1.07382
1.07522
1.07213
1.06574
1.06266
1.0631
1.06567
1.07257
1.08305
1.47539
3.26347
0.836468
0.84106
0.842064
0.842181
0.838645
0.83619
0.837023
0.838813
0.842965
0.853038
0.860071
0.862889
0.864056
0.862944
0.857423
0.854418
0.855188
0.857014
0.860356
0.870959
0.881435
0.885713
0.887571
0.887364
0.88059
0.874421
0.874264
0.876073
0.878674
0.885758
0.900251
0.909012
0.912551
0.914442
0.91049
0.900418
0.897259
0.898649
0.901048
0.904778
0.915275
0.929463
0.936193
0.939097
0.940536
0.936362
0.927551
0.925612
0.927596
0.930221
0.934078
0.944538
0.957508
0.963867
0.967033
0.969812
0.967233
0.959888
0.957629
0.959029
0.961556
0.965331
0.975023
0.988171
0.995833
0.999987
1.00284
1.00232
0.996103
0.992942
0.994276
0.997013
1.00041
1.00778
1.02016
1.02895
1.03379
1.0375
1.04062
1.03911
1.03399
1.0323
1.0341
1.0373
1.04211
1.0521
1.0627
1.06924
1.07325
1.07616
1.07808
1.07684
1.07039
1.06467
1.06334
1.06405
1.07371
1.47074
3.22027
0.837971
0.843164
0.844185
0.844817
0.842541
0.839969
0.840422
0.841922
0.843964
0.850918
0.860305
0.864504
0.866369
0.86704
0.863429
0.8592
0.859165
0.860579
0.862441
0.867421
0.879369
0.886595
0.88933
0.890727
0.887794
0.880415
0.878405
0.879773
0.881733
0.884606
0.894209
0.907009
0.912641
0.91486
0.915905
0.910586
0.90344
0.902949
0.90499
0.907349
0.910882
0.921434
0.933348
0.938899
0.941631
0.943469
0.939363
0.932847
0.931793
0.93316
0.935049
0.938572
0.949373
0.961937
0.968367
0.971709
0.973526
0.970737
0.964508
0.962618
0.964234
0.966882
0.970659
0.979252
0.991522
0.999384
1.00376
1.00699
1.00707
1.00152
0.998145
0.998826
1.00127
1.00442
1.01055
1.02273
1.03278
1.03847
1.04219
1.04488
1.04473
1.04013
1.03733
1.03823
1.04093
1.04468
1.05268
1.06365
1.07108
1.07528
1.07817
1.0802
1.08047
1.07531
1.06771
1.06292
1.06556
1.45475
3.17589
0.838642
0.845703
0.847126
0.84817
0.847601
0.844605
0.843629
0.844239
0.845358
0.848285
0.857915
0.866091
0.869321
0.870789
0.87007
0.865252
0.863037
0.863506
0.864793
0.866839
0.874274
0.885621
0.891025
0.893114
0.893605
0.889111
0.883863
0.883536
0.885023
0.886909
0.889945
0.899564
0.910413
0.915418
0.917838
0.919044
0.91434
0.909237
0.9088
0.909996
0.911595
0.914594
0.924869
0.937066
0.943186
0.946323
0.948435
0.94421
0.937463
0.935765
0.937137
0.939409
0.94323
0.95356
0.965467
0.971572
0.97504
0.978167
0.976029
0.969808
0.968081
0.969373
0.971218
0.974312
0.982395
0.995155
1.00352
1.00789
1.01102
1.01241
1.00777
1.00311
1.00295
1.00551
1.00898
1.01465
1.0256
1.03571
1.04165
1.04564
1.04874
1.04981
1.04628
1.04225
1.04181
1.04403
1.04721
1.05357
1.06422
1.07247
1.07703
1.07984
1.08181
1.08276
1.07993
1.07053
1.0639
1.42903
3.13167
0.838031
0.84734
0.850602
0.851791
0.852488
0.850183
0.846822
0.846383
0.847495
0.849064
0.85396
0.864801
0.871282
0.873803
0.875044
0.872921
0.868238
0.867094
0.868017
0.869389
0.871432
0.879378
0.890134
0.895197
0.897558
0.898122
0.893375
0.889383
0.889024
0.889556
0.890109
0.892376
0.902344
0.914405
0.920284
0.923573
0.924818
0.919784
0.914277
0.912713
0.912664
0.914129
0.917957
0.930002
0.942641
0.948539
0.951432
0.953008
0.947917
0.941332
0.940077
0.941192
0.94325
0.947218
0.958265
0.970571
0.976952
0.980203
0.982525
0.980544
0.974174
0.971466
0.972856
0.975501
0.978952
0.986445
0.99874
1.00744
1.0122
1.01533
1.01673
1.01305
1.00873
1.00857
1.01067
1.01328
1.01737
1.02716
1.0381
1.04483
1.04895
1.05219
1.05413
1.05201
1.0475
1.04596
1.04745
1.05005
1.05453
1.06399
1.07309
1.07827
1.08112
1.08296
1.08424
1.08231
1.07331
1.40761
3.08913
0.836819
0.84592
0.852844
0.855407
0.856466
0.856412
0.852288
0.849674
0.849825
0.850749
0.85232
0.859306
0.870859
0.876473
0.87901
0.880101
0.876601
0.872376
0.871368
0.871366
0.871803
0.874165
0.884324
0.896149
0.901252
0.903898
0.904027
0.898415
0.893188
0.890877
0.890458
0.891884
0.895784
0.908818
0.921374
0.926524
0.929259
0.929781
0.923035
0.91616
0.914936
0.916323
0.918488
0.923045
0.93592
0.947645
0.952767
0.955664
0.956862
0.951574
0.945061
0.943899
0.945651
0.948189
0.952241
0.962578
0.974227
0.980345
0.983889
0.986938
0.985404
0.979043
0.976773
0.978059
0.980154
0.982959
0.989486
1.0017
1.01073
1.01542
1.01871
1.0213
1.01944
1.01416
1.01225
1.01404
1.01714
1.02115
1.02966
1.04049
1.04779
1.05218
1.05539
1.05777
1.05772
1.05352
1.05033
1.05054
1.05266
1.05581
1.0632
1.07276
1.0789
1.08202
1.084
1.08477
1.08564
1.40048
3.04757
0.837043
0.842073
0.853201
0.858403
0.860203
0.86127
0.859394
0.85421
0.851966
0.851982
0.853145
0.855974
0.866514
0.877946
0.882503
0.884551
0.884839
0.879399
0.874
0.872567
0.873175
0.874676
0.878916
0.89255
0.903634
0.907632
0.909762
0.908646
0.900219
0.893809
0.892872
0.894041
0.896068
0.901825
0.9167
0.927119
0.931262
0.933734
0.933208
0.925474
0.919721
0.91933
0.920614
0.922674
0.927814
0.941255
0.951981
0.956582
0.959516
0.961199
0.955734
0.949768
0.949148
0.950423
0.952354
0.956166
0.966956
0.979072
0.985448
0.988766
0.991199
0.990429
0.984124
0.980563
0.981434
0.984024
0.987263
0.993467
1.00501
1.0143
1.01949
1.02281
1.02476
1.02392
1.01989
1.01793
1.0192
1.02175
1.02503
1.03173
1.04207
1.05012
1.05506
1.05854
1.06114
1.06225
1.05942
1.05512
1.05375
1.055
1.05733
1.06252
1.07183
1.07904
1.08304
1.08462
1.08925
1.40209
3.00645
0.838817
0.840339
0.849902
0.859808
0.863368
0.864745
0.865221
0.860496
0.855085
0.854266
0.855378
0.857051
0.86168
0.874848
0.884325
0.887883
0.889379
0.888
0.880064
0.875312
0.875289
0.876762
0.878813
0.885602
0.900505
0.909224
0.912606
0.914354
0.911188
0.90169
0.897318
0.897501
0.898888
0.901049
0.908477
0.922959
0.931421
0.93487
0.937379
0.936833
0.928254
0.922711
0.922637
0.924468
0.927036
0.933203
0.946795
0.956841
0.961328
0.963846
0.964817
0.959143
0.952993
0.952447
0.954572
0.957336
0.961648
0.971429
0.982509
0.98874
0.992363
0.994656
0.994199
0.989203
0.985988
0.986774
0.989121
0.992004
0.9969
1.00702
1.01639
1.02171
1.02507
1.0285
1.03012
1.0269
1.02351
1.02354
1.02574
1.02861
1.03309
1.04233
1.05163
1.05741
1.06101
1.06393
1.06609
1.06519
1.06046
1.05723
1.05729
1.05899
1.0624
1.07069
1.07885
1.08301
1.08905
1.40887
2.96526
0.841038
0.84135
0.845515
0.857431
0.864989
0.867823
0.869098
0.86788
0.861043
0.857713
0.858036
0.859278
0.861109
0.868048
0.882104
0.889566
0.892591
0.893938
0.889933
0.881401
0.878723
0.879388
0.880775
0.883006
0.891951
0.906631
0.913614
0.916377
0.918207
0.913963
0.904582
0.901297
0.901765
0.903158
0.905669
0.91431
0.928213
0.935704
0.938963
0.940759
0.939368
0.931816
0.927401
0.927698
0.929502
0.932164
0.938439
0.950836
0.95977
0.963933
0.966626
0.967933
0.963581
0.95883
0.958598
0.96016
0.962018
0.965208
0.973785
0.984866
0.991406
0.994827
0.998137
0.999856
0.995794
0.991667
0.991493
0.993375
0.996031
0.999861
1.00859
1.01909
1.02588
1.02973
1.0325
1.03443
1.03288
1.02902
1.0275
1.02893
1.03184
1.03565
1.04333
1.05303
1.05984
1.06391
1.06683
1.06915
1.06988
1.06624
1.0613
1.05964
1.06064
1.06288
1.06992
1.07757
1.08544
1.41462
2.92277
0.843937
0.843159
0.844524
0.851712
0.864304
0.870249
0.872476
0.873397
0.869154
0.862338
0.860626
0.861119
0.862325
0.865034
0.875191
0.888949
0.894915
0.897454
0.898189
0.891474
0.883334
0.88162
0.882777
0.884502
0.887745
0.898646
0.912
0.918004
0.920521
0.921673
0.916867
0.908665
0.905945
0.906509
0.907929
0.910713
0.919329
0.931998
0.938802
0.941895
0.944651
0.943847
0.936272
0.932241
0.932551
0.933851
0.93608
0.941528
0.953742
0.963246
0.967812
0.970782
0.972931
0.96936
0.963311
0.961714
0.963365
0.965815
0.9692
0.97686
0.988107
0.995796
0.999789
1.00249
1.00418
1.00142
0.996796
0.995545
0.997243
1.00005
1.00375
1.01125
1.02134
1.02825
1.03243
1.03566
1.03841
1.0385
1.03502
1.03279
1.03346
1.03555
1.03849
1.04404
1.05353
1.06146
1.06615
1.06921
1.07173
1.0734
1.07162
1.0661
1.0624
1.06217
1.06389
1.06916
1.07885
1.41457
2.87852
0.847834
0.845831
0.846567
0.849029
0.858841
0.8703
0.87491
0.876771
0.876548
0.869817
0.864118
0.863668
0.865001
0.866602
0.870236
0.882288
0.894286
0.898986
0.901109
0.900974
0.893635
0.887151
0.886332
0.887399
0.889004
0.892477
0.903765
0.915973
0.921359
0.923987
0.925835
0.92108
0.91334
0.910952
0.911108
0.911889
0.914629
0.923878
0.9369
0.943859
0.946812
0.948657
0.947206
0.940066
0.935715
0.935898
0.93774
0.940502
0.946349
0.958533
0.967962
0.972372
0.974741
0.97606
0.973514
0.968441
0.966868
0.968122
0.970296
0.973426
0.980146
0.990539
0.998157
1.00256
1.00571
1.00817
1.00674
1.00249
1.00092
1.00235
1.0049
1.00774
1.01276
1.02227
1.03074
1.03592
1.03927
1.04202
1.04395
1.04201
1.03828
1.03724
1.0388
1.0414
1.04524
1.05327
1.06232
1.06806
1.07142
1.07396
1.07607
1.0763
1.07166
1.066
1.06409
1.06448
1.07143
1.4056
2.8331
0.853603
0.849399
0.849598
0.850193
0.853194
0.864788
0.87512
0.879075
0.881152
0.879668
0.87176
0.867824
0.868006
0.868979
0.870313
0.874573
0.88786
0.89866
0.902821
0.905267
0.905091
0.897084
0.891105
0.890221
0.890872
0.89246
0.896643
0.909146
0.921271
0.926474
0.928702
0.929729
0.924216
0.916237
0.913973
0.915047
0.916733
0.920112
0.929055
0.9406
0.946746
0.949664
0.952091
0.951372
0.944136
0.940096
0.940685
0.942726
0.94553
0.951234
0.961986
0.970266
0.974474
0.97729
0.980129
0.979292
0.97387
0.971406
0.972527
0.974822
0.97751
0.982248
0.991868
1.00086
1.00615
1.00928
1.01185
1.0128
1.00947
1.00628
1.00627
1.00848
1.01148
1.01579
1.02397
1.03284
1.03883
1.04274
1.04556
1.04772
1.04738
1.04394
1.04167
1.04211
1.04412
1.04706
1.05326
1.06266
1.06961
1.07361
1.0763
1.07839
1.07951
1.07698
1.07077
1.06605
1.06676
1.38652
2.78757
0.86049
0.853307
0.852014
0.852063
0.853055
0.857928
0.871216
0.88067
0.884122
0.885685
0.882416
0.874024
0.870417
0.870654
0.872009
0.874011
0.880035
0.893957
0.903523
0.907323
0.909197
0.907875
0.899785
0.894277
0.89399
0.89554
0.89768
0.902393
0.914386
0.924976
0.929571
0.93188
0.932778
0.927499
0.921101
0.919814
0.920659
0.92188
0.924348
0.932429
0.944045