/*--------------------------------*- C++ -*----------------------------------*\
  =========                 |
  \\      /  F ield         | OpenFOAM: The Open Source CFD Toolbox
   \\    /   O peration     | Website:  https://openfoam.org
    \\  /    A nd           | Version:  12
     \\/     M anipulation  |
\*---------------------------------------------------------------------------*/
FoamFile
{
    format      ascii;
    class       volScalarField;
    location    "2";
    object      p;
}
// * * * * * * * * * * * * * * * * * * * * * * * * * * * * * * * * * * * * * //

dimensions      [1 -1 -2 0 0 0 0];

internalField   nonuniform List<scalar> 
9801
(
0.757538
0.75826
0.762724
0.769989
0.77501
0.778085
0.780109
0.779218
0.774315
0.773335
0.775027
0.779085
0.788006
0.796217
0.801183
0.804266
0.80607
0.802442
0.796693
0.796414
0.798265
0.803595
0.814502
0.822503
0.826852
0.829985
0.831166
0.826165
0.823041
0.82382
0.826511
0.834647
0.843968
0.849446
0.852998
0.855878
0.855408
0.85233
0.852569
0.855113
0.860393
0.868681
0.874651
0.878947
0.881975
0.883316
0.881772
0.882562
0.885376
0.890828
0.898898
0.904735
0.90845
0.911729
0.912285
0.911325
0.91396
0.917054
0.922706
0.932417
0.940158
0.943856
0.947521
0.947604
0.945075
0.946817
0.951204
0.957667
0.969704
0.979703
0.985403
0.990015
0.990353
0.985261
0.986019
0.990623
0.99815
1.01243
1.02638
1.03542
1.04192
1.04577
1.03951
1.03594
1.04153
1.05156
1.0716
1.09262
1.1067
1.11829
1.12912
1.13011
1.1236
1.13522
1.1615
1.21688
1.28077
1.75548
3.98112
0.762743
0.763557
0.767335
0.774988
0.780214
0.78297
0.784404
0.783317
0.780556
0.780744
0.782484
0.785427
0.793188
0.801254
0.805547
0.807765
0.807371
0.804255
0.802913
0.804024
0.806188
0.811404
0.820929
0.827617
0.831068
0.833008
0.831467
0.828575
0.828663
0.830463
0.83401
0.842348
0.850076
0.854647
0.85767
0.85938
0.857452
0.855917
0.857199
0.860136
0.866812
0.87515
0.880636
0.884341
0.886808
0.886711
0.88514
0.886149
0.888877
0.89481
0.903845
0.910061
0.913995
0.917175
0.917424
0.916061
0.917873
0.920397
0.925647
0.936071
0.944281
0.94825
0.951981
0.952686
0.950238
0.951336
0.95502
0.960412
0.97222
0.982823
0.988845
0.993527
0.995004
0.990942
0.990922
0.994876
1.00101
1.01439
1.02878
1.03788
1.0444
1.04892
1.04454
1.04074
1.04546
1.05374
1.07017
1.09123
1.10613
1.11819
1.13006
1.13349
1.12618
1.13103
1.15155
1.18757
1.23131
1.68326
3.95654
0.765108
0.766111
0.76959
0.776483
0.781309
0.783819
0.784847
0.784998
0.785324
0.786124
0.787705
0.78973
0.795487
0.802255
0.80547
0.806171
0.805783
0.80665
0.808245
0.810254
0.812525
0.817225
0.823642
0.828594
0.831013
0.830789
0.829875
0.830915
0.833045
0.835653
0.840487
0.847314
0.852713
0.856755
0.859104
0.858227
0.856546
0.85749
0.859907
0.863921
0.871984
0.879112
0.883505
0.886753
0.888534
0.886886
0.885772
0.887402
0.890453
0.897257
0.907135
0.913581
0.917591
0.920581
0.920124
0.917814
0.919153
0.921625
0.926781
0.937681
0.946457
0.950753
0.95472
0.95654
0.953625
0.953657
0.957024
0.961683
0.972568
0.984071
0.990655
0.995591
0.998568
0.995403
0.994048
0.997428
1.00266
1.01275
1.02822
1.03885
1.04586
1.05157
1.04977
1.04448
1.04784
1.05552
1.06679
1.08779
1.10624
1.11962
1.13192
1.13843
1.13195
1.13674
1.15495
1.18543
1.21366
1.66195
3.92707
0.769164
0.770129
0.772205
0.777142
0.78214
0.785177
0.786818
0.78832
0.790165
0.792058
0.793936
0.796002
0.798765
0.801927
0.8041
0.805829
0.807881
0.810159
0.81298
0.816335
0.82027
0.823959
0.827227
0.828843
0.829131
0.829952
0.831763
0.834101
0.837155
0.840859
0.847388
0.853511
0.856862
0.858643
0.858805
0.8577
0.858191
0.860367
0.863395
0.868127
0.876548
0.883341
0.88702
0.889615
0.890354
0.88808
0.887726
0.88989
0.893146
0.900327
0.910507
0.916756
0.920569
0.923351
0.922651
0.919864
0.92107
0.923691
0.928502
0.939609
0.949371
0.954032
0.958055
0.96041
0.957126
0.955816
0.958768
0.963034
0.972667
0.985752
0.993484
0.998624
1.00251
1.00062
0.996896
0.999123
1.00414
1.01195
1.02782
1.04123
1.04888
1.05487
1.05611
1.04956
1.04964
1.05676
1.06594
1.08279
1.10308
1.11794
1.13058
1.14196
1.14009
1.13586
1.1462
1.1704
1.19212
1.65224
3.89321
0.773012
0.774567
0.775952
0.778831
0.782747
0.786259
0.78907
0.791661
0.794014
0.796778
0.799874
0.801724
0.801225
0.801462
0.804159
0.807752
0.810993
0.813938
0.816936
0.820622
0.825184
0.828396
0.828899
0.828687
0.830319
0.833038
0.835346
0.83752
0.840518
0.84518
0.851409
0.856219
0.858397
0.859368
0.860009
0.860863
0.861632
0.863522
0.866446
0.871182
0.879446
0.885927
0.889571
0.891886
0.892613
0.891031
0.890783
0.892898
0.89604
0.902452
0.912718
0.919303
0.923087
0.925775
0.925523
0.92281
0.923656
0.92625
0.930479
0.940699
0.951449
0.956685
0.960765
0.96368
0.960974
0.958232
0.960594
0.964722
0.972445
0.986233
0.995831
1.00137
1.00565
1.00567
1.00088
1.00108
1.00572
1.0119
1.02467
1.04094
1.05088
1.05753
1.062
1.05702
1.05272
1.0572
1.06557
1.07854
1.0987
1.11567
1.12909
1.14199
1.14783
1.1419
1.14305
1.15625
1.17248
1.63979
3.859
0.777219
0.779895
0.780997
0.7819
0.784034
0.787762
0.791549
0.794658
0.797236
0.799651
0.801591
0.803133
0.80433
0.805329
0.80726
0.810931
0.814712
0.817878
0.820592
0.822995
0.825407
0.828281
0.830458
0.832355
0.83467
0.83713
0.839578
0.841925
0.84447
0.847423
0.851985
0.856583
0.85937
0.861276
0.863702
0.865537
0.865937
0.867365
0.869877
0.873309
0.880353
0.887389
0.891225
0.893659
0.895473
0.895446
0.894859
0.896365
0.899155
0.903984
0.913672
0.921092
0.925137
0.927965
0.928944
0.927067
0.926911
0.92911
0.932757
0.941097
0.952718
0.959052
0.963322
0.966732
0.965602
0.962072
0.963054
0.966831
0.972601
0.985084
0.997416
1.00413
1.00872
1.01079
1.00617
1.00391
1.00715
1.01259
1.02123
1.03809
1.05184
1.05995
1.0662
1.06623
1.0585
1.05859
1.06557
1.07525
1.09229
1.11049
1.12473
1.1375
1.14956
1.15075
1.14428
1.14702
1.1547
1.62116
3.82263
0.779486
0.783255
0.785399
0.786267
0.787517
0.790619
0.794385
0.797435
0.799892
0.800865
0.801378
0.804189
0.80869
0.811195
0.813013
0.815462
0.818616
0.821351
0.823105
0.822909
0.823778
0.827551
0.83379
0.837937
0.840454
0.84268
0.844816
0.846462
0.847525
0.847848
0.849403
0.854551
0.86141
0.865672
0.868262
0.870535
0.871124
0.871799
0.873474
0.875553
0.879119
0.886764
0.892566
0.896005
0.898857
0.900389
0.899411
0.900261
0.902528
0.905672
0.913054
0.921906
0.926978
0.930289
0.932621
0.931776
0.930793
0.932296
0.935391
0.940893
0.952342
0.960871
0.965816
0.969545
0.970154
0.966544
0.966473
0.969462
0.973853
0.982401
0.996828
1.00628
1.01155
1.01516
1.01246
1.00793
1.00911
1.0138
1.02
1.033
1.0498
1.06048
1.06764
1.07274
1.06847
1.0628
1.06603
1.07377
1.08613
1.1049
1.1206
1.13316
1.14498
1.15326
1.15118
1.14472
1.1412
1.5988
3.7844
0.780744
0.784787
0.789649
0.791855
0.793121
0.794626
0.797454
0.800028
0.801116
0.80067
0.80165
0.804902
0.812348
0.817447
0.819475
0.821187
0.822878
0.823965
0.822749
0.822041
0.8234
0.82721
0.83648
0.843468
0.846515
0.84867
0.850472
0.850453
0.848003
0.8469
0.848286
0.852742
0.862802
0.869846
0.87323
0.875739
0.877195
0.876538
0.87616
0.87651
0.878451
0.884741
0.894039
0.899448
0.902821
0.90531
0.904884
0.904279
0.905362
0.90744
0.911788
0.921545
0.929085
0.933256
0.936441
0.937324
0.935371
0.93554
0.937777
0.941365
0.950024
0.961463
0.968142
0.972345
0.974933
0.972365
0.970406
0.97198
0.975581
0.980736
0.993269
1.00684
1.01398
1.0187
1.01998
1.01407
1.01226
1.01547
1.02074
1.0287
1.04469
1.05903
1.06796
1.07479
1.07837
1.07167
1.06832
1.07352
1.08211
1.09708
1.11446
1.12797
1.1397
1.15042
1.1548
1.14891
1.13645
1.57467
3.74643
0.781998
0.785078
0.791807
0.797359
0.799252
0.800445
0.801377
0.80209
0.801366
0.801272
0.8027
0.805579
0.813858
0.82211
0.825611
0.827251
0.828126
0.826317
0.823108
0.822716
0.82442
0.827768
0.837328
0.847287
0.851801
0.854122
0.855555
0.853404
0.848336
0.847591
0.849444
0.853368
0.863712
0.873278
0.877881
0.880708
0.882782
0.881129
0.877106
0.876637
0.878769
0.884356
0.895396
0.9029
0.906895
0.909871
0.910787
0.90818
0.907077
0.908286
0.911469
0.920406
0.931141
0.936752
0.940148
0.94256
0.940627
0.938578
0.93961
0.942448
0.947853
0.960163
0.970302
0.97551
0.979014
0.978979
0.974893
0.974529
0.977187
0.98116
0.988902
1.00434
1.01522
1.02106
1.02539
1.02365
1.01766
1.01797
1.02185
1.02742
1.03845
1.0553
1.06731
1.07526
1.08164
1.08249
1.07539
1.07482
1.08087
1.0904
1.10666
1.12228
1.13415
1.14421
1.15225
1.1521
1.14
1.55541
3.7087
0.78383
0.785969
0.791098
0.800439
0.804851
0.806285
0.806786
0.80522
0.80355
0.803511
0.804856
0.807032
0.81352
0.82437
0.829933
0.832549
0.833509
0.829988
0.825639
0.825383
0.827094
0.830017
0.83827
0.849454
0.854975
0.857896
0.859378
0.855725
0.850642
0.850345
0.852256
0.855885
0.865618
0.876232
0.881471
0.884759
0.886821
0.883425
0.878042
0.878214
0.880652
0.885714
0.897013
0.906465
0.911167
0.914257
0.915621
0.911634
0.90807
0.909154
0.912212
0.919696
0.932413
0.940049
0.943977
0.947046
0.946245
0.941808
0.941371
0.943697
0.94753
0.957254
0.971123
0.978486
0.982643
0.985113
0.981367
0.977756
0.978998
0.982216
0.986893
0.998837
1.01437
1.02285
1.02812
1.03173
1.02672
1.02153
1.02353
1.02826
1.0349
1.04871
1.06418
1.07428
1.08161
1.08772
1.08722
1.08014
1.08114
1.08747
1.09771
1.11386
1.12762
1.13776
1.14594
1.14985
1.14567
1.54351
3.67046
0.786427
0.787906
0.7903
0.799292
0.807672
0.811256
0.812407
0.811323
0.80756
0.806497
0.807646
0.809616
0.813574
0.823483
0.830961
0.83403
0.835631
0.835043
0.830666
0.829783
0.831491
0.833925
0.839744
0.849841
0.855973
0.858674
0.859698
0.857672
0.854381
0.854475
0.856596
0.859733
0.86807
0.878614
0.88425
0.887108
0.887684
0.883805
0.880611
0.881263
0.883724
0.888117
0.89917
0.909391
0.914503
0.917724
0.918308
0.913312
0.90999
0.911388
0.914433
0.919993
0.932813
0.94261
0.947365
0.950573
0.950902
0.945501
0.943445
0.945584
0.949032
0.954995
0.969396
0.980536
0.985836
0.989519
0.989047
0.98279
0.981173
0.983677
0.987491
0.994312
1.01
1.02336
1.03021
1.035
1.03613
1.02934
1.02648
1.02967
1.03474
1.04286
1.05847
1.07243
1.08154
1.0886
1.09347
1.09074
1.08484
1.08692
1.09314
1.1038
1.11905
1.13091
1.13898
1.14386
1.14769
1.54089
3.63101
0.789513
0.789958
0.79131
0.796284
0.807272
0.813642
0.816571
0.817822
0.815166
0.811443
0.811274
0.812483
0.81453
0.820796
0.830087
0.834896
0.837385
0.838904
0.837436
0.83577
0.836752
0.838546
0.841412
0.848776
0.855575
0.858836
0.860537
0.860843
0.859328
0.859935
0.862221
0.864878
0.870482
0.879499
0.884837
0.8872
0.888051
0.886438
0.88426
0.885736
0.88865
0.892438
0.90097
0.911005
0.916333
0.918848
0.91946
0.916143
0.913378
0.914912
0.918077
0.922348
0.931789
0.943445
0.949585
0.953124
0.954866
0.950581
0.946749
0.948104
0.95145
0.955376
0.965651
0.980214
0.988038
0.99241
0.995279
0.990596
0.984906
0.985813
0.989445
0.993922
1.00385
1.02004
1.03034
1.03603
1.04066
1.04007
1.03278
1.03177
1.03583
1.0415
1.05162
1.06739
1.07937
1.08749
1.09423
1.0986
1.09493
1.08971
1.09222
1.09806
1.10844
1.12207
1.13196
1.13703
1.14454
1.54253
3.59006
0.793215
0.792027
0.793215
0.796155
0.805232
0.81477
0.818996
0.821399
0.822273
0.818301
0.815102
0.815233
0.816601
0.820298
0.828592
0.835768
0.839392
0.8417
0.842746
0.841729
0.841591
0.842481
0.843813
0.847469
0.854637
0.859541
0.86242
0.864458
0.864724
0.865263
0.867125
0.869329
0.872067
0.877933
0.883946
0.887142
0.889614
0.890809
0.890115
0.891521
0.894182
0.896854
0.900652
0.908929
0.915305
0.918483
0.920971
0.921418
0.919395
0.920177
0.922701
0.925516
0.929852
0.94071
0.949584
0.95395
0.957015
0.957371
0.952894
0.952062
0.954686
0.958041
0.962871
0.975493
0.987601
0.99344
0.997175
0.998693
0.993234
0.990169
0.992438
0.996203
1.00096
1.01284
1.02787
1.03654
1.042
1.0458
1.0435
1.03772
1.03826
1.04255
1.04843
1.05965
1.07473
1.08562
1.0933
1.09981
1.10323
1.09922
1.09452
1.09671
1.10178
1.11133
1.12304
1.12979
1.13881
1.54611
3.54804
0.798329
0.795251
0.79622
0.798163
0.804501
0.814578
0.820392
0.823149
0.824797
0.824469
0.82068
0.819426
0.820313
0.822005
0.828133
0.836367
0.841258
0.844053
0.845975
0.846612
0.845993
0.84597
0.84684
0.84837
0.854089
0.861218
0.865188
0.867773
0.869814
0.870404
0.871038
0.872061
0.872986
0.875608
0.882986
0.889377
0.892645
0.895221
0.896654
0.896744
0.89762
0.898795
0.900252
0.904684
0.914209
0.920736
0.92412
0.926852
0.926869
0.925065
0.925457
0.927152
0.929672
0.9357
0.947959
0.955929
0.960126
0.962975
0.96145
0.957393
0.957729
0.960001
0.963031
0.968878
0.98291
0.993708
0.999148
1.00343
1.00404
0.997922
0.99591
0.998204
1.00175
1.00719
1.02054
1.03437
1.04203
1.0473
1.05168
1.04878
1.04318
1.04417
1.04857
1.05462
1.06627
1.08069
1.09092
1.09832
1.10452
1.10781
1.10374
1.09868
1.09992
1.10392
1.11235
1.12095
1.13124
1.54909
3.50514
0.80449
0.800776
0.801039
0.802397
0.805605
0.813632
0.820446
0.82385
0.8258
0.826784
0.825953
0.824387
0.824827
0.826188
0.829593
0.837444
0.843088
0.846167
0.848367
0.850068
0.849273
0.847834
0.848368
0.850274
0.855389
0.863773
0.868805
0.871773
0.874199
0.875529
0.874021
0.872291
0.872559
0.874851
0.882128
0.892123
0.897252
0.90017
0.902606
0.902519
0.900112
0.89868
0.899513
0.902573
0.911925
0.923236
0.928667
0.931738
0.933846
0.931137
0.928093
0.928146
0.929883
0.93322
0.943235
0.956611
0.9634
0.9672
0.969538
0.965876
0.961759
0.961567
0.963445
0.966865
0.975572
0.991387
1.00119
1.00607
1.00997
1.00855
1.00196
1.00055
1.00311
1.0069
1.01357
1.02855
1.04173
1.04897
1.05392
1.057
1.0533
1.04849
1.04978
1.0542
1.06023
1.07195
1.0861
1.09601
1.10312
1.10884
1.11165
1.10777
1.10184
1.10144
1.10455
1.11051
1.12251
1.54873
3.46063
0.808893
0.808019
0.80686
0.807526
0.808763
0.813054
0.819802
0.824149
0.826748
0.828603
0.829594
0.828928
0.829051
0.830404
0.832609
0.839105
0.844971
0.848349
0.850747
0.852615
0.852045
0.849836
0.850187
0.852065
0.856854
0.866436
0.872761
0.87589
0.878256
0.879593
0.876222
0.872578
0.873195
0.875608
0.882044
0.894127
0.901754
0.905099
0.907605
0.90798
0.902533
0.89911
0.900161
0.903063
0.910022
0.923692
0.932224
0.93642
0.938986
0.938113
0.932019
0.929528
0.930842
0.933738
0.939439
0.953724
0.965433
0.970612
0.974345
0.97466
0.967745
0.963812
0.965284
0.968393
0.972817
0.984891
1
1.00776
1.01225
1.01548
1.01172
1.00516
1.00519
1.00866
1.01299
1.0211
1.03636
1.04789
1.05431
1.05938
1.06271
1.05854
1.05364
1.0551
1.0596
1.0657
1.07745
1.09103
1.10039
1.10695
1.11207
1.11446
1.11124
1.10417
1.10164
1.10251
1.11292
1.54031
3.41478
0.811496
0.813504
0.812583
0.812282
0.812826
0.814321
0.820203
0.825542
0.828626
0.83077
0.832447
0.832687
0.832341
0.833431
0.835496
0.841165
0.84768
0.851149
0.853547
0.855433
0.854935
0.85227
0.852456
0.854282
0.858221
0.868194
0.876106
0.87966
0.881746
0.882165
0.877807
0.874593
0.875451
0.877741
0.882618
0.895268
0.904799
0.909057
0.911681
0.911234
0.904864
0.901346
0.902539
0.905142
0.909835
0.922477
0.934427
0.939578
0.942795
0.943875
0.937313
0.932186
0.933115
0.93587
0.939541
0.949062
0.964298
0.972676
0.976826
0.979709
0.976938
0.969396
0.968278
0.971067
0.974701
0.980367
0.993747
1.00654
1.01301
1.01719
1.0194
1.01497
1.0103
1.01139
1.01489
1.01918
1.02821
1.04341
1.05401
1.06031
1.06503
1.06721
1.06288
1.05893
1.06076
1.06529
1.07122
1.08241
1.095
1.10363
1.1096
1.11412
1.11631
1.11412
1.10669
1.09999
1.10448
1.52382
3.36862
0.813765
0.81675
0.816937
0.816207
0.816502
0.817885
0.822155
0.827775
0.831049
0.833376
0.83533
0.835838
0.834747
0.835302
0.837144
0.842288
0.850351
0.854645
0.85696
0.858751
0.858172
0.855142
0.855124
0.856955
0.85995
0.86853
0.87815
0.88275
0.885018
0.88514
0.880916
0.877933
0.879122
0.881644
0.885419
0.894686
0.905811
0.911205
0.913426
0.913468
0.909283
0.9055
0.906597
0.909439
0.91294
0.920268
0.932757
0.940287
0.943664
0.945148
0.94396
0.938251
0.937132
0.939656
0.942869
0.947198
0.958453
0.971056
0.977296
0.980903
0.983574
0.979445
0.974055
0.974551
0.977313
0.980559
0.986652
1.0006
1.01201
1.01773
1.02185
1.02446
1.01951
1.01515
1.01669
1.02057
1.02534
1.03494
1.04899
1.05858
1.06441
1.06911
1.07202
1.06888
1.06532
1.06674
1.0708
1.07607
1.08579
1.09759
1.10586
1.1114
1.11539
1.11738
1.11645
1.10756
1.10149
1.49934
3.32234
0.816155
0.819473
0.819595
0.818496
0.818763
0.820767
0.826217
0.831353
0.834411
0.836604
0.838389
0.838433
0.836705
0.837099
0.838808
0.842742
0.851735
0.857944
0.860574
0.862196
0.861866
0.859019
0.858688
0.860313
0.862461
0.867391
0.877143
0.883081
0.88576
0.887629
0.886958
0.883942
0.884332
0.88641
0.888657
0.892449
0.902024
0.909779
0.913338
0.915756
0.916646
0.913436
0.912291
0.913996
0.91631
0.919056
0.926336
0.937661
0.944002
0.947483
0.949807
0.947669
0.943431
0.943696
0.94594
0.948656
0.953121
0.964884
0.97636
0.982152
0.985703
0.987917
0.983631
0.979071
0.979654
0.982628
0.986317
0.993398
1.00716
1.0176
1.02325
1.02702
1.02862
1.02471
1.02163
1.02327
1.02683
1.03124
1.03988
1.05324
1.06313
1.06944
1.07431
1.07753
1.07561
1.07161
1.07185
1.0752
1.07979
1.08809
1.09933
1.10755
1.11276
1.1162
1.11803
1.11611
1.10944
1.4789
3.27657
0.81888
0.822065
0.821632
0.820202
0.82058
0.822462
0.828383
0.835403
0.838455
0.84035
0.841852
0.841408
0.839244
0.839334
0.840865
0.843451
0.851307
0.859728
0.863574
0.865532
0.866475
0.864391
0.862726
0.863256
0.864586
0.866646
0.87367
0.883413
0.888283
0.890861
0.892725
0.89125
0.889265
0.889595
0.890616
0.892095
0.896455
0.907123
0.915207
0.919376
0.922049
0.922489
0.919014
0.917608
0.918227
0.919597
0.922259
0.930926
0.943196
0.949915
0.953642
0.956034
0.953302
0.949104
0.948874
0.950714
0.953276
0.957847
0.970086
0.981359
0.987167
0.99102
0.993323
0.989041
0.985109
0.985962
0.988491
0.991631
0.998274
1.01185
1.02199
1.02744
1.03229
1.03535
1.03161
1.02778
1.02862
1.03156
1.03568
1.04367
1.05732
1.06797
1.07448
1.07942
1.08268
1.08158
1.07709
1.07616
1.07887
1.08286
1.08983
1.10062
1.10889
1.11367
1.11663
1.11673
1.1186
1.47048
3.23084
0.82205
0.824953
0.824049
0.822255
0.822608
0.82425
0.828958
0.837723
0.842567
0.844476
0.845847
0.845497
0.842717
0.84197
0.843077
0.844943
0.849867
0.859959
0.866143
0.869003
0.870721
0.870377
0.867015
0.865561
0.866289
0.867976
0.871415
0.881458
0.890489
0.894541
0.896823
0.898016
0.895245
0.892369
0.891891
0.89287
0.895068
0.902213
0.915217
0.922562
0.92625
0.928652
0.927855
0.923029
0.920519
0.920503
0.922081
0.925641
0.937303
0.950242
0.956648
0.960651
0.962869
0.959038
0.953989
0.953
0.953864
0.956404
0.962287
0.976468
0.987781
0.993436
0.997674
0.999451
0.994025
0.989438
0.989554
0.99188
0.995724
1.00384
1.01862
1.02901
1.03428
1.03826
1.04069
1.03658
1.0318
1.03262
1.03636
1.04091
1.04906
1.06261
1.07294
1.07912
1.08374
1.08667
1.08614
1.08197
1.08026
1.08229
1.08569
1.09155
1.10149
1.10933
1.11383
1.11488
1.1209
1.47017
3.18498
0.825951
0.8284
0.826908
0.824848
0.825009
0.826461
0.829317
0.837987
0.845374
0.848484
0.849999
0.850451
0.847444
0.845056
0.845442
0.846948
0.849672
0.85816
0.867672
0.872026
0.874169
0.875098
0.872523
0.869016
0.868783
0.870274
0.872394
0.878009
0.889836
0.897082
0.90047
0.902511
0.902182
0.897053
0.894084
0.894614
0.896534
0.900045
0.911356
0.923861
0.929463
0.932769
0.934525
0.930407
0.923633
0.921992
0.923461
0.926129
0.931999
0.947009
0.958607
0.963482
0.967025
0.968038
0.960776
0.954997
0.955483
0.958021
0.961628
0.970128
0.985701
0.995159
0.999619
1.00278
1.00313
0.996204
0.992357
0.994128
0.997574
1.00212
1.01126
1.02513
1.03405
1.03918
1.04307
1.04478
1.04074
1.03716
1.0387
1.04262
1.04714
1.0545
1.06662
1.0763
1.0823
1.08663
1.08984
1.09067
1.08752
1.08507
1.08603
1.08872
1.09279
1.10106
1.10859
1.11178
1.11942
1.47396
3.13907
0.830272
0.832524
0.830884
0.828137
0.827718
0.828824
0.830669
0.836666
0.846631
0.851676
0.853874
0.854839
0.853206
0.849356
0.848509
0.84971
0.851563
0.855991
0.866242
0.873424
0.876563
0.8783
0.878851
0.875142
0.87262
0.87318
0.874836
0.877302
0.885558
0.897338
0.90311
0.905905
0.907402
0.904153
0.898209
0.897367
0.899149
0.901677
0.907474
0.921205
0.931043
0.935464
0.938139
0.93788
0.930022
0.925153
0.926133
0.928785
0.932537
0.941801
0.956644
0.96484
0.96865
0.970669
0.969115
0.961646
0.959194
0.961453
0.964827
0.96983
0.979457
0.991915
0.998972
1.00289
1.00547
1.00537
1.00069
0.999009
1.00129
1.00463
1.00864
1.01662
1.02906
1.03771
1.04276
1.04665
1.04955
1.04736
1.04424
1.0451
1.04839
1.05251
1.05819
1.06859
1.07858
1.08503
1.08952
1.09316
1.09563
1.09409
1.09033
1.08927
1.09088
1.09329
1.09975
1.1058
1.115
1.47791
3.09202
0.834421
0.8369
0.835855
0.832186
0.830685
0.831506
0.833074
0.836163
0.845226
0.85323
0.856579
0.858137
0.859003
0.856343
0.853312
0.853263
0.854363
0.85598
0.861573
0.872557
0.878875
0.881912
0.883786
0.883093
0.878299
0.876491
0.877189
0.87868
0.881993
0.893195
0.90388
0.908487
0.911005
0.911516
0.905937
0.902069
0.902767
0.904755
0.907359
0.914933
0.928198
0.935471
0.938765
0.94108
0.939564
0.932794
0.931177
0.933346
0.93622
0.939844
0.949073
0.960934
0.967073
0.970291
0.973006
0.972561
0.9679
0.967074
0.969278
0.971958
0.975132
0.982758
0.994395
1.00202
1.00637
1.01036
1.01172
1.00738
1.00509
1.00656
1.00955
1.01344
1.02018
1.03206
1.04172
1.04768
1.05181
1.05494
1.05453
1.05134
1.05075
1.05293
1.05654
1.0613
1.07007
1.08073
1.08825
1.09308
1.09674
1.09964
1.09965
1.0955
1.09202
1.09185
1.09363
1.09761
1.10814
1.47661
3.04276
0.837058
0.840833
0.841216
0.838339
0.835135
0.834973
0.835997
0.837507
0.841759
0.852192
0.858876
0.861988
0.863685
0.864071
0.860164
0.856879
0.856291
0.857125
0.859408
0.868374
0.880003
0.885282
0.887782
0.88931
0.886069
0.880555
0.879413
0.880636
0.882634
0.88822
0.901379
0.910153
0.913945
0.916085
0.915034
0.908902
0.906455
0.907384
0.909336
0.912417
0.921066
0.932973
0.939548
0.942916
0.945449
0.944058
0.938994
0.937991
0.93934
0.941077
0.943703
0.95146
0.963544
0.97127
0.97577
0.979367
0.979682
0.975148
0.972663
0.973085
0.975077
0.978231
0.985724
0.99874
1.00777
1.01235
1.01573
1.01705
1.01333
1.01051
1.01142
1.0144
1.01835
1.02447
1.03572
1.04597
1.05226
1.05655
1.05997
1.061
1.05782
1.05572
1.05717
1.06044
1.06474
1.07216
1.08286
1.09095
1.09594
1.09968
1.10268
1.10369
1.10059
1.09519
1.09294
1.09291
1.10125
1.46606
2.99164
0.838076
0.844434
0.845819
0.84586
0.841852
0.838771
0.838288
0.83903
0.840894
0.848436
0.859938
0.865387
0.867868
0.86938
0.867939
0.861861
0.858974
0.859396
0.86088
0.86498
0.877437
0.887258
0.891248
0.893297
0.893426
0.887228
0.882928
0.883102
0.884705
0.887304
0.89555
0.90881
0.9158
0.91913
0.920964
0.918377
0.912688
0.911144
0.91202
0.913571
0.916407
0.925094
0.937518
0.944761
0.948846
0.951676
0.95053
0.945191
0.942252
0.941841
0.94321
0.946297
0.955655
0.969872
0.978239
0.982472
0.985939
0.985708
0.979684
0.97586
0.976368
0.978908
0.982741
0.991062
1.0042
1.01251
1.01707
1.0205
1.02239
1.01914
1.01592
1.0168
1.01985
1.02348
1.02873
1.03958
1.0501
1.05648
1.06076
1.06435
1.06602
1.06359
1.0614
1.06225
1.06475
1.06811
1.07352
1.08371
1.09288
1.09838
1.10218
1.10511
1.10697
1.10544
1.09962
1.09397
1.09674
1.44585
2.93975
0.837035
0.847086
0.849618
0.851094
0.849948
0.84422
0.841201
0.841468
0.842809
0.846211
0.857558
0.867425
0.871315
0.873172
0.873882
0.868953
0.863126
0.862307
0.863465
0.865508
0.873034
0.886492
0.893463
0.896565
0.898071
0.89544
0.888524
0.886275
0.887175
0.888926
0.892372
0.903063
0.915504
0.921211
0.924205
0.925704
0.922303
0.916685
0.914853
0.915322
0.91694
0.920295
0.930839
0.944433
0.951369
0.954911
0.957621
0.955244
0.947389
0.943873
0.944892
0.947451
0.951763
0.963742
0.977599
0.984329
0.987868
0.990535
0.989412
0.982041
0.97921
0.981118
0.984336
0.988775
0.997139
1.00902
1.01707
1.02174
1.02497
1.02719
1.02491
1.02141
1.02182
1.02498
1.02885
1.03351
1.04267
1.05312
1.05984
1.06422
1.06806
1.07108
1.07028
1.06748
1.06666
1.06827
1.07116
1.07537
1.0845
1.09458
1.10091
1.1048
1.10736
1.10891
1.10889
1.10305
1.09815
1.42186
2.88907
0.834119
0.847779
0.852283
0.85443
0.855614
0.852135
0.845958
0.844547
0.845461
0.84719
0.853645
0.866542
0.873505
0.876406
0.877844
0.876326
0.869272
0.866075
0.866616
0.868117
0.87124
0.881926
0.893644
0.898619
0.901171
0.901977
0.896902
0.890954
0.890265
0.891814
0.893845
0.898017
0.909881
0.921156
0.926279
0.929239
0.930424
0.926036
0.919618
0.917928
0.919224
0.921501
0.926059
0.93886
0.951136
0.956696
0.959786
0.96164
0.95688
0.949151
0.948293
0.95062
0.953914
0.959848
0.971981
0.982797
0.98806
0.991053
0.992455
0.991417
0.986913
0.985658
0.987775
0.990924
0.994585
1.00133
1.01241
1.02051
1.02519
1.02861
1.03134
1.03057
1.02808
1.02838
1.03097
1.03419
1.03815
1.04556
1.0557
1.06321
1.06822
1.07223
1.07497
1.07551
1.0739
1.072
1.07229
1.07424
1.0774
1.08491
1.09566
1.10283
1.10677
1.10909
1.11056
1.10965
1.10749
1.40758
2.8402
0.831871
0.844819
0.853506
0.856942
0.858811
0.858991
0.853054
0.848454
0.8484
0.849675
0.852398
0.862286
0.873989
0.878922
0.881263
0.881926
0.877142
0.871256
0.870457
0.871626
0.873252
0.877505
0.889338
0.898965
0.902912
0.905156
0.905396
0.899816
0.895376
0.895218
0.89627
0.897915
0.902631
0.915972
0.926725
0.931388
0.934365
0.935268
0.928823
0.92265
0.922421
0.924319
0.926893
0.932557
0.945518
0.95551
0.959836
0.962335
0.963607
0.959716
0.955288
0.955602
0.958024
0.960912
0.965376
0.975217
0.984853
0.990154
0.993422
0.99678
0.997738
0.994169
0.992239
0.993507
0.996234
0.999639
1.00474
1.01408
1.02273
1.02829
1.03221
1.03631
1.03839
1.03672
1.03561
1.03669
1.03874
1.04164
1.04698
1.05694
1.06557
1.07112
1.07549
1.07903
1.08098
1.08034
1.07729
1.07561
1.07691
1.07965
1.08573
1.09648
1.10454
1.10853
1.11057
1.11098
1.11367
1.40183
2.79218
0.832389
0.839845
0.852531
0.85867
0.861395
0.862867
0.860708
0.854173
0.852063
0.852936
0.854494
0.858814
0.870599
0.879819
0.883384
0.885099
0.884943
0.879558
0.875703
0.875536
0.876455
0.87786
0.88265
0.895122
0.90412
0.907966
0.910274
0.909939
0.903267
0.898502
0.898338
0.899967
0.902278
0.908631
0.922848
0.932366
0.936446
0.93895
0.938707
0.931767
0.927165
0.9275
0.929396
0.932002
0.93794
0.949755
0.958697
0.963148
0.966019
0.968434
0.96618
0.962186
0.961377
0.962631
0.96501
0.968651
0.976985
0.987693
0.994856
0.998811
1.00212
1.00399
1.00155
0.999042
0.999247
1.00049
1.00266
1.00662
1.01555
1.02635
1.03386
1.03848
1.04262
1.04548
1.04362
1.04007
1.0395
1.0419
1.0453
1.05002
1.05943
1.06914
1.07544
1.07958
1.08188
1.08392
1.08503
1.08256
1.07951
1.07999
1.0826
1.08748
1.09747
1.10573
1.10981
1.111
1.11497
1.40157
2.74454
0.834966
0.838245
0.8483
0.858753
0.86297
0.865025
0.866102
0.86229
0.857391
0.856833
0.857891
0.859466
0.864773
0.876926
0.884822
0.888168
0.889999
0.889079
0.883197
0.879701
0.87937
0.88031
0.882093
0.888148
0.901359
0.909781
0.913322
0.915302
0.913905
0.906415
0.902368
0.902659
0.904193
0.906906
0.915061
0.928806
0.936566
0.940029
0.942717
0.94264
0.936167
0.932185
0.932386
0.934072
0.936761
0.94206
0.953182
0.96292
0.968262
0.971427
0.973928
0.972336
0.967819
0.965823
0.966433
0.968578
0.972149
0.980294
0.99201
0.999722
1.00407
1.00768
1.01018
1.00763
1.00265
1.00158
1.00375
1.00692
1.01114
1.01996
1.03176
1.03924
1.04372
1.04701
1.04872
1.04767
1.04487
1.04431
1.04665
1.05014
1.05477
1.06285
1.0714
1.07741
1.08122
1.08389
1.08663
1.08904
1.08853
1.08505
1.08433
1.08647
1.08976
1.09695
1.10533
1.10925
1.11426
1.40394
2.69655
0.838504
0.839832
0.844002
0.855612
0.86421
0.867667
0.869474
0.86958
0.864483
0.86095
0.860723
0.861708
0.863715
0.870649
0.883207
0.890361
0.893446
0.894955
0.893136
0.886737
0.883519
0.883439
0.884416
0.886403
0.893742
0.907444
0.914999
0.918321
0.920574
0.917822
0.909325
0.905955
0.906743
0.908542
0.911895
0.920954
0.933896
0.941099
0.944564
0.946741
0.946338
0.941154
0.937396
0.937149
0.938539
0.941103
0.946117
0.957624
0.967914
0.973207
0.97638
0.979007
0.977577
0.971777
0.96917
0.970535
0.973254
0.977355
0.985891
0.997628
1.00506
1.00912
1.01191
1.01325
1.01039
1.00657
1.00681
1.00961
1.01314
1.01753
1.02519
1.035
1.04155
1.04565
1.04875
1.05174
1.05323
1.05176
1.05088
1.05273
1.05596
1.05929
1.06372
1.07078
1.07804
1.08302
1.08661
1.09027
1.09364
1.09504
1.09145
1.08863
1.08896
1.09109
1.09582
1.1041
1.1118
1.40637
2.64739
0.842465
0.842646
0.844236
0.850662
0.862729
0.869517
0.872269
0.873712
0.872443
0.866891
0.864428
0.864804
0.865969
0.86821
0.876274
0.889153
0.895711
0.898854
0.900395
0.897105
0.889845
0.886923
0.886914
0.887948
0.890724
0.900757
0.914285
0.920566
0.923197
0.924558
0.920622
0.913034
0.910736
0.91183
0.913818
0.917494
0.926143
0.937543
0.944255
0.947747
0.950727
0.951613
0.946603
0.941802
0.941306
0.943093
0.945858
0.951191
0.962647
0.972359
0.977367
0.980438
0.982817
0.981409
0.976248
0.974837
0.976808
0.979763
0.983678
0.990786
1.00059
1.00708
1.01073
1.0134
1.01602
1.01601
1.01413
1.01429
1.0164
1.01942
1.02264
1.02701
1.03462
1.04269
1.04875
1.05297
1.05651
1.05947
1.05949
1.05742
1.05727
1.05912
1.06182
1.06536
1.0711
1.07913
1.08597
1.09089
1.09464
1.09791
1.10006
1.09673
1.09145
1.09037
1.09254
1.09723
1.10619
1.40253
2.59643
0.847272
0.845843
0.846832
0.848955
0.856947
0.868798
0.874468
0.877113
0.878492
0.875566
0.870016
0.868187
0.868313
0.869305
0.872341
0.883006
0.896014
0.901709
0.904308
0.905005
0.899282
0.891716
0.890206
0.891486
0.893312
0.896715
0.907173
0.918719
0.923873
0.926392
0.928295
0.925091
0.918633
0.916709
0.917514
0.918904
0.921537
0.92909
0.941118
0.948885
0.952827
0.955458
0.956165
0.951358
0.946703
0.946533
0.948335
0.950886
0.955633
0.966229
0.975661
0.980604
0.983567
0.986138
0.986296
0.983181
0.981892
0.983164
0.985555
0.988559
0.992944
1.00053
1.00812
1.01381
1.01784
1.02124
1.02337
1.02294
1.02177
1.02151
1.02247
1.02483
1.02836
1.0353
1.04533
1.05307
1.05792
1.06158
1.06479
1.06546
1.06238
1.06087
1.06229
1.06484
1.06801
1.07294
1.08126
1.0892
1.09442
1.09801
1.10111
1.10262
1.10047
1.09566
1.09377
1.09542
1.10175
1.38914
2.54396
0.853128
0.849374
0.84933
0.850143
0.853154
0.863746
0.87549
0.88032
0.882473
0.883039
0.877611
0.871711
0.870878
0.872165
0.873829
0.87779
0.890122
0.901504
0.906133
0.908651
0.908613
0.901913
0.89646
0.896024
0.896794
0.897838
0.900919
0.91163
0.923203
0.928733
0.931302
0.932909
0.930247
0.9237
0.920643
0.92114
0.922942
0.92587
0.932937
0.944941
0.952737
0.956678
0.959805
0.96125
0.956599
0.951553
0.950993
0.952773
0.955568
0.960299
0.969314
0.978183
0.983941
0.987737
0.990888
0.992656
0.991024