/*--------------------------------*- C++ -*----------------------------------*\
  =========                 |
  \\      /  F ield         | OpenFOAM: The Open Source CFD Toolbox
   \\    /   O peration     | Website:  https://openfoam.org
    \\  /    A nd           | Version:  12
     \\/     M anipulation  |
\*---------------------------------------------------------------------------*/
FoamFile
{
    format      ascii;
    class       volScalarField;
    location    "2";
    object      T;
}
// * * * * * * * * * * * * * * * * * * * * * * * * * * * * * * * * * * * * * //

dimensions      [0 0 0 1 0 0 0];

internalField   nonuniform List<scalar> 
9801
(
0.91933
0.919441
0.92119
0.923696
0.924892
0.925255
0.925329
0.924676
0.924298
0.924321
0.924637
0.925195
0.926622
0.929323
0.931209
0.931665
0.9317
0.931477
0.931381
0.931397
0.931677
0.932125
0.933564
0.936381
0.937821
0.938165
0.938235
0.938181
0.938204
0.938313
0.938682
0.939633
0.942051
0.944289
0.944964
0.945141
0.945249
0.945286
0.945361
0.945999
0.946618
0.948428
0.950968
0.952241
0.952347
0.952442
0.952644
0.952824
0.953422
0.954062
0.955648
0.958564
0.959896
0.960355
0.96058
0.960382
0.960711
0.961251
0.961914
0.963239
0.966777
0.96876
0.969265
0.969328
0.969176
0.969267
0.969704
0.970376
0.971656
0.975171
0.978493
0.979621
0.979719
0.978797
0.978687
0.979166
0.980071
0.98153
0.985038
0.989562
0.991577
0.992498
0.991523
0.989775
0.990073
0.991355
0.993368
0.998353
1.0049
1.00882
1.01123
1.01246
1.01089
1.0103
1.01379
1.02179
1.03604
1.12977
1.39935
0.920956
0.920974
0.921677
0.923453
0.926329
0.927874
0.928269
0.928252
0.927063
0.92638
0.926671
0.927122
0.927862
0.929985
0.9326
0.933772
0.934287
0.934246
0.93321
0.933023
0.933441
0.934013
0.935417
0.937925
0.939522
0.940291
0.94068
0.940039
0.939643
0.939931
0.940547
0.941691
0.943875
0.945739
0.946669
0.947207
0.947009
0.94648
0.946751
0.947626
0.948526
0.950455
0.952532
0.953848
0.954308
0.954208
0.953722
0.953974
0.954802
0.955692
0.957511
0.960072
0.961448
0.962251
0.962438
0.96144
0.961678
0.962474
0.963367
0.964806
0.967923
0.970033
0.971006
0.971411
0.970334
0.970089
0.970838
0.971773
0.973027
0.976225
0.979466
0.98098
0.981744
0.98059
0.979412
0.98001
0.981163
0.982573
0.986047
0.990545
0.992969
0.994204
0.993989
0.991329
0.991042
0.992733
0.994989
0.999556
1.00504
1.00874
1.01174
1.01425
1.0135
1.01169
1.01302
1.019
1.02927
1.12263
1.4046
0.922822
0.922732
0.92305
0.924
0.926763
0.928698
0.929409
0.929682
0.929121
0.928543
0.928719
0.929043
0.929546
0.931187
0.933691
0.935063
0.93572
0.935767
0.934972
0.93473
0.935111
0.935748
0.9372
0.939528
0.941074
0.941942
0.94235
0.941804
0.941303
0.941581
0.942282
0.943559
0.945765
0.947469
0.948391
0.949017
0.948849
0.948197
0.948428
0.949308
0.950311
0.952363
0.954425
0.955677
0.956233
0.956283
0.955677
0.955817
0.956585
0.957511
0.959364
0.961956
0.963368
0.96428
0.96463
0.963625
0.963707
0.964402
0.965325
0.966751
0.969778
0.971929
0.973085
0.973719
0.972762
0.972156
0.972776
0.973854
0.975317
0.97831
0.981424
0.983115
0.984141
0.983618
0.981995
0.982151
0.983322
0.984828
0.987921
0.992413
0.995146
0.996824
0.99758
0.995377
0.994049
0.995552
0.997752
1.00139
1.00694
1.01159
1.01505
1.01849
1.01886
1.01687
1.01864
1.02495
1.03289
1.12382
1.40945
0.925229
0.924511
0.9246
0.924978
0.926794
0.929364
0.930759
0.931457
0.931758
0.931455
0.931155
0.931267
0.931653
0.932731
0.934815
0.936294
0.937127
0.937594
0.937434
0.937101
0.937363
0.937925
0.939264
0.941331
0.942767
0.943651
0.944182
0.944045
0.94359
0.943818
0.94448
0.945823
0.947993
0.949539
0.950398
0.951044
0.951052
0.950441
0.950628
0.951405
0.952458
0.95466
0.956726
0.957923
0.958507
0.958741
0.958104
0.958073
0.95873
0.959654
0.96161
0.964266
0.965766
0.966713
0.967278
0.966392
0.966101
0.966639
0.967543
0.969098
0.972152
0.974385
0.975611
0.9765
0.976061
0.974974
0.97524
0.976185
0.977663
0.980693
0.984045
0.985929
0.987147
0.987536
0.985789
0.985107
0.986106
0.987645
0.990367
0.995046
0.998472
1.00046
1.00195
1.00087
0.998569
0.999074
1.00127
1.00426
1.00941
1.01457
1.01835
1.02198
1.0246
1.02363
1.02284
1.02634
1.03106
1.12445
1.41111
0.927284
0.926285
0.926382
0.926785
0.928084
0.930481
0.932186
0.933184
0.933822
0.933979
0.933454
0.933419
0.933818
0.934784
0.936476
0.937781
0.938746
0.939466
0.939757
0.939501
0.939697
0.940182
0.941302
0.94312
0.944429
0.94535
0.946039
0.946258
0.945965
0.946192
0.946806
0.948003
0.950078
0.951531
0.952399
0.953114
0.953348
0.952859
0.953022
0.953731
0.954651
0.956838
0.958933
0.960144
0.960797
0.961233
0.960673
0.960488
0.961089
0.961941
0.963839
0.966533
0.968141
0.96917
0.969928
0.969319
0.968645
0.969055
0.96994
0.971522
0.974622
0.977011
0.978342
0.979339
0.979479
0.978106
0.977835
0.978681
0.980041
0.982947
0.986794
0.989054
0.990354
0.991213
0.989976
0.988494
0.988948
0.99036
0.992456
0.99673
1.00102
1.00357
1.00535
1.00595
1.00362
1.00255
1.00401
1.00658
1.01095
1.01633
1.02049
1.02408
1.02765
1.02827
1.02655
1.027
1.02811
1.12237
1.41055
0.928969
0.928069
0.928286
0.928856
0.930543
0.932558
0.933842
0.934752
0.93549
0.93579
0.93524
0.935258
0.935783
0.93717
0.938786
0.939874
0.940684
0.941314
0.941572
0.941433
0.941626
0.942145
0.943358
0.945268
0.946505
0.94737
0.948046
0.948321
0.948066
0.94824
0.948832
0.949921
0.952035
0.953592
0.954501
0.955267
0.955667
0.955176
0.95516
0.955775
0.956592
0.958703
0.961008
0.962318
0.963056
0.963682
0.963273
0.962744
0.963183
0.963983
0.965694
0.968541
0.970379
0.971506
0.972391
0.972291
0.971298
0.971247
0.972016
0.973309
0.976369
0.979291
0.980832
0.981883
0.982458
0.981295
0.980361
0.980872
0.982017
0.984134
0.988249
0.991382
0.993032
0.994172
0.99379
0.991826
0.991409
0.992444
0.994018
0.997148
1.00208
1.0055
1.00763
1.00922
1.00834
1.00584
1.00597
1.00794
1.011
1.01594
1.02042
1.02409
1.02747
1.03004
1.02952
1.02767
1.02556
1.11848
1.40891
0.93019
0.92958
0.929971
0.930784
0.932895
0.934713
0.93579
0.936577
0.937129
0.936811
0.936261
0.936491
0.93719
0.939086
0.941191
0.942112
0.942747
0.943315
0.943274
0.942796
0.942924
0.943494
0.944873
0.947184
0.94865
0.949491
0.950128
0.950347
0.949826
0.949758
0.950278
0.951288
0.953563
0.955484
0.956513
0.957304
0.957788
0.957265
0.956902
0.957367
0.958121
0.960112
0.96275
0.964268
0.965089
0.965807
0.965634
0.964774
0.964889
0.965599
0.967021
0.970011
0.972271
0.973511
0.974434
0.974748
0.973722
0.973198
0.97373
0.974728
0.977218
0.980765
0.982839
0.983988
0.984791
0.984083
0.982726
0.98273
0.983639
0.984985
0.988332
0.992544
0.994856
0.996223
0.996821
0.995026
0.993591
0.993971
0.995277
0.997195
1.00149
1.00595
1.00863
1.01049
1.01151
1.00956
1.00792
1.00878
1.01086
1.01461
1.01957
1.02342
1.02656
1.02941
1.03058
1.02907
1.02484
1.11419
1.40677
0.931457
0.931094
0.931573
0.932439
0.934728
0.936812
0.937783
0.938334
0.938464
0.93772
0.937294
0.937626
0.938336
0.940242
0.942803
0.944157
0.944888
0.9453
0.94486
0.944075
0.944123
0.94468
0.94599
0.948554
0.950359
0.951321
0.951955
0.952143
0.951392
0.951041
0.951475
0.952376
0.95467
0.956985
0.958196
0.959018
0.959547
0.959098
0.958486
0.958764
0.959422
0.961103
0.96399
0.965791
0.966691
0.96745
0.967534
0.966539
0.96636
0.966931
0.967979
0.970721
0.973569
0.975075
0.97603
0.976577
0.97577
0.974874
0.975106
0.975927
0.977472
0.981092
0.9841
0.985576
0.986507
0.986433
0.984852
0.984269
0.984811
0.985864
0.987812
0.992265
0.995748
0.9975
0.998698
0.998279
0.995855
0.995329
0.996246
0.997663
1.00027
1.00507
1.00872
1.01094
1.01266
1.01314
1.0107
1.00968
1.01098
1.01329
1.01751
1.02184
1.0251
1.02791
1.03013
1.03015
1.0263
1.11097
1.40462
0.932889
0.932644
0.933147
0.933886
0.935923
0.937971
0.938993
0.939528
0.939609
0.938977
0.938634
0.938968
0.939615
0.941228
0.943783
0.945356
0.946149
0.946581
0.946321
0.94547
0.945429
0.945941
0.947044
0.949532
0.951525
0.95259
0.953266
0.953551
0.952775
0.952249
0.952618
0.953378
0.955405
0.958006
0.959438
0.960323
0.960933
0.960688
0.959919
0.960042
0.960581
0.961724
0.96453
0.966814
0.967894
0.968697
0.969039
0.968131
0.96767
0.968081
0.968884
0.970819
0.974179
0.976215
0.977274
0.977967
0.97762
0.976373
0.976239
0.976869
0.977882
0.980513
0.98452
0.986711
0.98785
0.988441
0.987186
0.985686
0.985746
0.986581
0.987777
0.99089
0.995574
0.998208
0.99962
1.0005
0.999035
0.99701
0.997121
0.998191
0.99973
1.00325
1.00793
1.01096
1.01295
1.01447
1.01412
1.01172
1.01142
1.01292
1.01551
1.01983
1.0236
1.02641
1.02869
1.02987
1.02819
1.10915
1.40253
0.934398
0.934482
0.934803
0.935349
0.936791
0.938578
0.939623
0.940206
0.940502
0.940292
0.94008
0.940374
0.940934
0.94228
0.944521
0.945986
0.946814
0.947335
0.947357
0.946741
0.946708
0.947183
0.948093
0.950358
0.95238
0.953499
0.954217
0.954612
0.953969
0.953391
0.953684
0.954319
0.955849
0.958649
0.960427
0.961416
0.96211
0.962155
0.961298
0.961114
0.961474
0.962216
0.964474
0.967401
0.968881
0.969794
0.970397
0.969788
0.968927
0.969061
0.969678
0.970798
0.97397
0.976925
0.978321
0.979148
0.979409
0.978063
0.977308
0.977649
0.978469
0.979856
0.983763
0.987267
0.988864
0.989845
0.989728
0.987623
0.986753
0.987264
0.988237
0.989786
0.993967
0.998124
1.00015
1.00146
1.00199
0.999723
0.998139
0.998716
0.999997
1.00195
1.00609
1.01017
1.01273
1.01455
1.01593
1.01525
1.013
1.0131
1.01467
1.01743
1.02155
1.02483
1.02712
1.02864
1.02916
1.10925
1.40043
0.935573
0.936168
0.936337
0.93679
0.93765
0.939082
0.940064
0.940763
0.941291
0.941434
0.94137
0.941691
0.942243
0.943424
0.945259
0.946577
0.947401
0.947985
0.948213
0.94779
0.947809
0.948279
0.94903
0.951067
0.953231
0.954353
0.955078
0.955515
0.955054
0.954455
0.954652
0.955213
0.956273
0.959041
0.961344
0.962465
0.963212
0.963501
0.962596
0.961937
0.962108
0.962765
0.964379
0.96771
0.969816
0.970877
0.971625
0.971495
0.970243
0.969863
0.97027
0.971072
0.973259
0.977109
0.979221
0.980264
0.980936
0.980109
0.978564
0.978408
0.978998
0.97992
0.982318
0.986833
0.989491
0.990767
0.991596
0.990506
0.988369
0.988083
0.988786
0.989839
0.992143
0.996924
1.00033
1.00203
1.00316
1.0029
1.0005
0.99966
1.00048
1.00183
1.00425
1.00863
1.01222
1.01453
1.01631
1.01735
1.01621
1.01433
1.01465
1.01615
1.0189
1.02268
1.02548
1.02711
1.02881
1.11038
1.39823
0.936484
0.93726
0.937371
0.938007
0.938948
0.939826
0.94078
0.941577
0.942177
0.942475
0.94246
0.942741
0.943296
0.944338
0.946131
0.947336
0.948134
0.948751
0.949091
0.948801
0.948803
0.949228
0.949861
0.951463
0.953955
0.95531
0.955972
0.956426
0.956173
0.955459
0.955517
0.95607
0.956939
0.959282
0.962056
0.963469
0.964202
0.96452
0.96369
0.962697
0.962825
0.963499
0.96463
0.967693
0.970559
0.971941
0.972706
0.972946
0.971624
0.970653
0.970931
0.971667
0.972904
0.976494
0.97983
0.981285
0.982122
0.98216
0.980324
0.9793
0.979642
0.980432
0.981631
0.985214
0.989425
0.991402
0.992548
0.993061
0.991041
0.989302
0.989529
0.990448
0.991653
0.994727
0.999374
1.00205
1.00351
1.0047
1.00406
1.00162
1.0012
1.00221
1.00371
1.00663
1.0109
1.014
1.01609
1.01778
1.01867
1.01735
1.01561
1.01595
1.01725
1.01986
1.02322
1.02539
1.02765
1.11196
1.39586
0.937364
0.937847
0.937716
0.938347
0.939861
0.941092
0.941838
0.942555
0.943163
0.943516
0.943315
0.943395
0.943832
0.944676
0.94672
0.9484
0.949142
0.949727
0.950143
0.949908
0.949702
0.949984
0.95054
0.951653
0.954225
0.956097
0.956914
0.957398
0.95737
0.956602
0.956515
0.957041
0.957774
0.959356
0.962299
0.964117
0.964938
0.965388
0.96494
0.963818
0.963764
0.964406
0.965272
0.967334
0.97074
0.972652
0.973573
0.974089
0.97329
0.971831
0.971761
0.972414
0.973261
0.975383
0.979504
0.981931
0.98309
0.983737
0.982817
0.98084
0.980505
0.981095
0.981958
0.983709
0.988097
0.991585
0.993158
0.994185
0.994081
0.991786
0.990708
0.991182
0.992079
0.9935
0.99733
1.00166
1.00397
1.00536
1.00615
1.00492
1.00294
1.00293
1.004
1.00557
1.0088
1.01286
1.01567
1.0176
1.01917
1.01981
1.01844
1.01673
1.0169
1.01793
1.02035
1.02306
1.02579
1.11339
1.39331
0.938179
0.938006
0.937946
0.938532
0.940276
0.94241
0.943363
0.943905
0.944387
0.944508
0.944086
0.944008
0.944278
0.944843
0.946638
0.94917
0.950437
0.951024
0.951468
0.951239
0.950702
0.950783
0.951195
0.951833
0.953818
0.956434
0.95775
0.958456
0.958881
0.958312
0.957835
0.958096
0.958618
0.95939
0.961725
0.964243
0.965461
0.966217
0.966567
0.965635
0.965104
0.965462
0.966089
0.967046
0.96999
0.972938
0.974269
0.97502
0.975201
0.973748
0.97295
0.973264
0.973908
0.974857
0.977944
0.981913
0.983778
0.984821
0.985184
0.98342
0.981827
0.981938
0.982665
0.983582
0.985969
0.990586
0.993406
0.994733
0.995758
0.995118
0.992678
0.992046
0.992784
0.993841
0.995658
0.999818
1.00351
1.00541
1.00674
1.00762
1.00626
1.00442
1.00457
1.00567
1.00733
1.01067
1.01447
1.01703
1.01883
1.02025
1.02084
1.01953
1.01763
1.01743
1.01822
1.02017
1.02346
1.11429
1.39058
0.938951
0.938372
0.938303
0.938818
0.940169
0.943133
0.944917
0.945565
0.945937
0.945882
0.945084
0.944558
0.944624
0.94509
0.946318
0.949417
0.951602
0.952505
0.95302
0.953001
0.952075
0.951561
0.951599
0.952035
0.953305
0.956454
0.958659
0.959652
0.960287
0.960323
0.959363
0.958922
0.959005
0.959468
0.960902
0.964165
0.966285
0.967268
0.967945
0.967769
0.966594
0.966286
0.966574
0.967214
0.968865
0.972638
0.975024
0.976092
0.976738
0.976147
0.974466
0.974053
0.974468
0.975179
0.97659
0.980604
0.984075
0.985576
0.986528
0.986461
0.984296
0.983154
0.983437
0.98416
0.985213
0.988386
0.992855
0.995193
0.996406
0.997135
0.996037
0.994054
0.993843
0.994591
0.995573
0.99763
1.00191
1.00529
1.00712
1.0084
1.0089
1.00745
1.00596
1.00619
1.00725
1.00888
1.01217
1.0158
1.01821
1.01987
1.02115
1.02169
1.02056
1.0183
1.0175
1.01786
1.02071
1.1136
1.38756
0.940151
0.939098
0.939051
0.939518
0.940244
0.942952
0.945844
0.94707
0.947541
0.947526
0.946375
0.945262
0.945247
0.945704
0.946561
0.949252
0.952289
0.953658
0.954319
0.95459
0.953574
0.952196
0.952035
0.952503
0.953432
0.956276
0.959351
0.96076
0.961506
0.961958
0.96103
0.959644
0.959392
0.959797
0.960711
0.963706
0.966964
0.968419
0.969184
0.969594
0.968399
0.967179
0.967173
0.96768
0.968516
0.971379
0.97525
0.977055
0.977937
0.978316
0.976796
0.97526
0.975241
0.975847
0.976611
0.978602
0.98314
0.986039
0.987311
0.988228
0.987573
0.985129
0.984357
0.984887
0.985721
0.986943
0.990632
0.994732
0.996678
0.9979
0.998774
0.997307
0.99533
0.995214
0.996001
0.997079
0.999449
1.00376
1.00678
1.0084
1.0097
1.01044
1.009
1.00743
1.00761
1.00865
1.01021
1.0134
1.01689
1.01918
1.0207
1.02183
1.02234
1.0214
1.01894
1.01695
1.01804
1.11093
1.38427
0.942044
0.94044
0.94008
0.940431
0.940948
0.9425
0.945844
0.947823
0.948664
0.949057
0.948435
0.946737
0.946273
0.946645
0.947295
0.94916
0.952438
0.954324
0.955204
0.955716
0.955177
0.953365
0.952886
0.953319
0.954073
0.956183
0.959661
0.961583
0.96252
0.963057
0.962515
0.960642
0.960035
0.960424
0.961156
0.963173
0.967054
0.969296
0.970343
0.970956
0.970424
0.968522
0.967909
0.968238
0.968857
0.970217
0.974261
0.977599
0.978988
0.979824
0.979586
0.977428
0.976337
0.97652
0.977103
0.978032
0.981077
0.985634
0.987911
0.989006
0.989683
0.988319
0.98616
0.985783
0.986296
0.987108
0.98876
0.993131
0.996872
0.998568
0.999574
0.999939
0.998116
0.996399
0.99654
0.997475
0.998687
1.00138
1.0056
1.00844
1.01004
1.01119
1.01162
1.01024
1.00881
1.00895
1.00993
1.0114
1.01444
1.01779
1.01993
1.02131
1.02227
1.0227
1.02201
1.01907
1.01678
1.10632
1.38086
0.944052
0.942993
0.941647
0.941572
0.941926
0.942667
0.94504
0.947839
0.949063
0.949645
0.949967
0.949073
0.947965
0.948032
0.948489
0.949393
0.952003
0.954422
0.955486
0.956054
0.956231
0.955069
0.954225
0.954527
0.955152
0.956342
0.959469
0.962063
0.963173
0.963779
0.963672
0.961969
0.960999
0.9613
0.961972
0.963137
0.966551
0.969874
0.971286
0.972072
0.972078
0.970216
0.968753
0.968797
0.969426
0.970298
0.972783
0.97733
0.979782
0.980815
0.981511
0.980221
0.97771
0.977147
0.977735
0.978551
0.979917
0.983779
0.987661
0.989387
0.990352
0.9909
0.988971
0.986964
0.986985
0.987837
0.988876
0.991029
0.995296
0.998282
0.999698
1.00076
1.00109
0.99922
0.997848
0.9982
0.999152
1.00039
1.00312
1.00705
1.00961
1.01108
1.01226
1.01288
1.01172
1.01027
1.01027
1.01114
1.01245
1.01522
1.0184
1.02043
1.02167
1.02249
1.02287
1.02191
1.01882
1.10192
1.37749
0.945373
0.945618
0.944075
0.942996
0.942934
0.943253
0.944337
0.947255
0.949397
0.950342
0.950925
0.951084
0.950084
0.949483
0.949597
0.949978
0.95139
0.95421
0.955822
0.956572
0.957082
0.956865
0.955868
0.955824
0.956302
0.956956
0.958871
0.961971
0.96356
0.96423
0.96452
0.963724
0.962463
0.962525
0.963178
0.963978
0.965724
0.969375
0.971694
0.972651
0.973096
0.972364
0.970257
0.969781
0.970403
0.971288
0.972487
0.975657
0.979472
0.981211
0.982041
0.982334
0.980548
0.97868
0.978707
0.979425
0.980247
0.981879
0.985925
0.989208
0.990701
0.99157
0.991708
0.989876
0.988618
0.988928
0.989663
0.990526
0.992617
0.996773
0.999633
1.0011
1.00215
1.00242
1.00067
0.999498
0.999807
1.00063
1.00176
1.00434
1.00821
1.01081
1.01234
1.0135
1.01411
1.01326
1.01178
1.01153
1.0122
1.01329
1.01565
1.0187
1.0207
1.02184
1.0226
1.02265
1.02207
1.10011
1.37423
0.946248
0.946955
0.946535
0.944822
0.944026
0.944152
0.944636
0.946663
0.94957
0.95105
0.951791
0.952275
0.952061
0.950983
0.950641
0.950875
0.951449
0.953688
0.95618
0.957314
0.957964
0.958378
0.957722
0.957143
0.957354
0.957836
0.958546
0.96088
0.963516
0.964702
0.965355
0.965657
0.9646
0.964044
0.964418
0.964984
0.965622
0.967464
0.970931
0.972803
0.973675
0.974264
0.973276
0.971821
0.971874
0.972411
0.972987
0.973939
0.977249
0.980725
0.982286
0.983244
0.98359
0.981751
0.980331
0.980416
0.980987
0.981703
0.983344
0.987417
0.990482
0.991878
0.992992
0.993283
0.99139
0.990059
0.990153
0.990846
0.991819
0.994125
0.998267
1.00104
1.00252
1.00356
1.0039
1.00224
1.00086
1.00105
1.00196
1.00316
1.00561
1.0093
1.01191
1.01345
1.01461
1.0153
1.01482
1.01323
1.01258
1.01303
1.01394
1.01587
1.01879
1.02078
1.02197
1.02235
1.02351
1.10039
1.37103
0.946877
0.947872
0.948051
0.946769
0.945349
0.945221
0.945576
0.946706
0.949664
0.951749
0.95268
0.953253
0.953528
0.952576
0.951719
0.951686
0.951989
0.953161
0.956251
0.958281
0.959131
0.959716
0.95979
0.958844
0.958415
0.958433
0.95863
0.959527
0.962664
0.965382
0.966597
0.967255
0.967249
0.966065
0.965577
0.965548
0.965651
0.966254
0.968789
0.972672
0.974668
0.975707
0.976189
0.97485
0.973379
0.973028
0.973063
0.97354
0.974854
0.978893
0.982476
0.984007
0.984972
0.985145
0.983185
0.98174
0.981581
0.981931
0.982792
0.985
0.989462
0.992408
0.993676
0.994558
0.994509
0.992432
0.991173
0.991415
0.992208
0.993262
0.995708
0.999707
1.00238
1.00383
1.00484
1.00505
1.00365
1.00243
1.00258
1.00335
1.00444
1.00667
1.01027
1.01294
1.0145
1.01563
1.01633
1.01611
1.01459
1.0136
1.01378
1.01446
1.01594
1.01864
1.02075
1.02171
1.02358
1.10205
1.3678
0.947382
0.948525
0.948802
0.948267
0.946749
0.946285
0.946558
0.947238
0.949823
0.952545
0.953699
0.954336
0.954755
0.954132
0.952703
0.952218
0.952463
0.953165
0.955923
0.959129
0.960541
0.961158
0.961602
0.960852
0.959315
0.958571
0.958633
0.959227
0.961357
0.965557
0.967841
0.968833
0.969386
0.968649
0.966748
0.965788
0.965674
0.966144
0.967298
0.9713
0.975268
0.976866
0.977789
0.977893
0.975764
0.97382
0.973489
0.973871
0.974627
0.976607
0.981279
0.984453
0.985725
0.986601
0.98634
0.98375
0.982377
0.982666
0.983421
0.984455
0.987082
0.991315
0.993726
0.994912
0.995808
0.995619
0.993559
0.992513
0.992863
0.993646
0.994655
0.997072
1.001
1.00354
1.00485
1.00592
1.00655
1.00535
1.00386
1.00381
1.0046
1.00567
1.00766
1.01108
1.01378
1.01534
1.01641
1.01718
1.01734
1.01605
1.01465
1.01441
1.01487
1.01587
1.01834
1.02022
1.02272
1.10407
1.36442
0.94786
0.949203
0.949492
0.949377
0.947926
0.947171
0.947425
0.948033
0.950088
0.953271
0.954861
0.955495
0.9559
0.955432
0.953594
0.952864
0.953133
0.953729
0.955581
0.959505
0.961685
0.962558
0.962993
0.962588
0.960335
0.959036
0.959117
0.959679
0.96082
0.964673
0.968553
0.970065
0.970853
0.970897
0.968566
0.966423
0.966179
0.966643
0.967405
0.96954
0.974447
0.977443
0.978631
0.979401
0.978836
0.975772
0.974291
0.974502
0.97518
0.976209
0.97919
0.983735
0.98605
0.987091
0.987684
0.986885
0.984659
0.983944
0.984388
0.985074
0.98604
0.988728
0.992701
0.994969
0.996139
0.997042
0.996843
0.994822
0.99385
0.994225
0.995062
0.996152
0.998557
1.00232
1.00486
1.00624
1.00716
1.0076
1.00669
1.00536
1.0052
1.00589
1.00687
1.00851
1.01163
1.01447
1.01614
1.01721
1.01798
1.01835
1.01752
1.01581
1.01498
1.01509
1.01576
1.01765
1.02074
1.1054
1.36079
0.948427
0.949851
0.950138
0.950156
0.948989
0.94817
0.948424
0.948984
0.950307
0.953518
0.955735
0.956606
0.956955
0.956587
0.954818
0.953843
0.954076
0.954647
0.955696
0.95904
0.962303
0.963624
0.964186
0.964113
0.961994
0.960048
0.959991
0.96055
0.961354
0.963558
0.968028
0.970699
0.971769
0.97234
0.971135
0.968043
0.967068
0.967493
0.968225
0.969363
0.972564
0.976837
0.978843
0.979705
0.980133
0.978891
0.976249
0.975667
0.976266
0.977055
0.978209
0.98133
0.985152
0.987009
0.987937
0.988754
0.988006
0.985857
0.985195
0.985609
0.986348
0.987452
0.990277
0.994071
0.996262
0.99745
0.99827
0.998124
0.996354
0.995452
0.995836
0.996617
0.997585
0.999685
1.00318
1.00564
1.00699
1.00803
1.0089
1.00848
1.00706
1.0066
1.00709
1.00799
1.00932
1.01208
1.015
1.0168
1.01787
1.01864
1.01916
1.01884
1.01712
1.01557
1.01518
1.01536
1.01816
1.10476
1.35682
0.949001
0.950611
0.950899
0.951077
0.950321
0.949458
0.949589
0.950052
0.950691
0.952902
0.955866
0.957181
0.957746
0.957942
0.956786
0.955421
0.955398
0.955833
0.956411
0.957975
0.96171
0.963943
0.964781
0.965201
0.964281
0.961968
0.96133
0.961747
0.962351
0.963235
0.966209
0.970123
0.971825
0.972495
0.972809
0.971188
0.968997
0.968842
0.969463
0.970179
0.971251
0.974451
0.978021
0.979671
0.980485
0.981034
0.979815
0.977866
0.97755
0.97796
0.978522
0.979574
0.982784
0.986475
0.988352
0.989327
0.989859
0.989052
0.987235
0.986681
0.987154
0.987925
0.989025
0.991524
0.995058
0.997302
0.998552
0.999476
0.999499
0.997925
0.996965
0.99716
0.997854
0.998751
1.00049
1.00393
1.00674
1.00832
1.00936
1.0101
1.01007
1.00879
1.00802
1.00827
1.00902
1.01006
1.01227
1.01529
1.01733
1.01845
1.0192
1.01976
1.01986
1.01851
1.01642
1.01508
1.01586
1.10169
1.35251
0.949296
0.951511
0.951933
0.952228
0.952026
0.951029
0.950692
0.950866
0.951208
0.952125
0.955179
0.957744
0.958746
0.959184
0.958946
0.957403
0.95668
0.956817
0.95721
0.95784
0.960173
0.963694
0.96535
0.965982
0.966123
0.964721
0.963074
0.962963
0.963415
0.963992
0.964921
0.967885
0.97119
0.972701
0.973431
0.973792
0.97236
0.970795
0.970656
0.971015
0.971493
0.972399
0.975512
0.979159
0.980978
0.981911
0.982537
0.981286
0.979272
0.978762
0.97917
0.979844
0.980979
0.984042
0.987531
0.989307
0.99032
0.991231
0.990611
0.988799
0.988295
0.988671
0.989206
0.990105
0.992452
0.99612
0.998503
0.999745
1.00064
1.00103
0.99972
0.998397
0.998352
0.99908
1.00006
1.00167
1.00476
1.00758
1.00923
1.01033
1.01119
1.01148
1.01052
1.00941
1.00929
1.0099
1.01079
1.01254
1.01548
1.01773
1.01894
1.01968
1.02023
1.02053
1.01979
1.01719
1.01534
1.09639
1.34812
0.949183
0.952124
0.953142
0.953476
0.953672
0.952905
0.951794
0.951631
0.951968
0.952447
0.953989
0.957409
0.959432
0.960201
0.960572
0.959889
0.958389
0.958013
0.958285
0.958703
0.959329
0.961809
0.965127
0.966673
0.967389
0.967554
0.966078
0.964824
0.964702
0.964856
0.965012
0.965704
0.968776
0.972443
0.974212
0.975202
0.975569
0.974041
0.972356
0.971868
0.971847
0.972284
0.973444
0.977079
0.980845
0.982593
0.98345
0.983915
0.982408
0.980445
0.980069
0.980397
0.981005
0.982183
0.985446
0.989042
0.990894
0.991835
0.992506
0.991934
0.990085
0.989296
0.989701
0.990468
0.991469
0.993638
0.997164
0.999636
1.00099
1.00187
1.00226
1.00123
1.00001
0.999965
1.00056
1.0013
1.00246
1.00521
1.00826
1.01013
1.01126
1.01215
1.01269
1.01211
1.01088
1.01046
1.01087
1.01158
1.01283
1.01544
1.01791
1.01928
1.02004
1.02058
1.02097
1.02045
1.01791
1.09193
1.34388
0.948887
0.951762
0.953947
0.954727
0.955024
0.954984
0.953639
0.952765
0.952795
0.953066
0.953541
0.955752
0.959373
0.961116
0.961883
0.962206
0.961092
0.959741
0.959398
0.959385
0.959502
0.960223
0.96339
0.967022
0.968581
0.969381
0.969411
0.967674
0.966042
0.965308
0.965167
0.965595
0.966795
0.97079
0.974583
0.976126
0.976942
0.97709
0.975046
0.972949
0.97257
0.972984
0.973631
0.975008
0.978876
0.982354
0.983867
0.984721
0.985071
0.98351
0.981573
0.981224
0.981741
0.982489
0.983687
0.986732
0.990122
0.991891
0.992915
0.993792
0.993349
0.991511
0.990854
0.991228
0.991833
0.992645
0.99453
0.998026
1.00058
1.0019
1.00283
1.00357
1.00305
1.00156
1.00102
1.00153
1.0024
1.00354
1.00592
1.00894
1.01096
1.01216
1.01304
1.0137
1.0137
1.01255
1.01168
1.01173
1.01232
1.0132
1.01524
1.01782
1.01946
1.02031
1.0209
1.02117
1.02134
1.09057
1.33979
0.949057
0.950623
0.954151
0.955778
0.956309
0.956616
0.955998
0.954314
0.953559
0.953544
0.953889
0.954767
0.958092
0.961652
0.96305
0.963661
0.963735
0.962016
0.960296
0.959822
0.959995
0.960442
0.961754
0.965977
0.969366
0.970581
0.971218
0.970868
0.968266
0.966268
0.965965
0.966311
0.966918
0.96868
0.973211
0.976339
0.977573
0.978305
0.978143
0.975809
0.974057
0.97393
0.974312
0.974925
0.976474
0.980497
0.983663
0.985014
0.985876
0.986367
0.984752
0.982982
0.982795
0.98317
0.983737
0.984862
0.988027
0.991543
0.993378
0.994329
0.995028
0.994809
0.992994
0.991967
0.992221
0.992969
0.993901
0.995683
0.998976
1.0016
1.00306
1.004
1.00455
1.00432
1.00319
1.00264
1.003
1.00371
1.00463
1.00651
1.00939
1.01161
1.01297
1.01392
1.01464
1.01495
1.01418
1.013
1.01263
1.01298
1.01363
1.01507
1.01758
1.0195
1.02062
1.02112
1.02243
1.09116
1.33576
0.949738
0.950163
0.953204
0.956321
0.957416
0.957812
0.957938
0.956417
0.954653
0.954364
0.954695
0.955195
0.956638
0.960763
0.963694
0.964778
0.965213
0.964773
0.962276
0.960755
0.960729
0.961169
0.961785
0.963888
0.968472
0.971119
0.972137
0.972656
0.971685
0.968758
0.967386
0.967428
0.967838
0.968481
0.97075
0.975134
0.977659
0.978685
0.979432
0.979261
0.976674
0.97499
0.974962
0.975507
0.976273
0.978123
0.982168
0.985123
0.986432
0.98716
0.98744
0.985769
0.983951
0.983788
0.984414
0.985224
0.986489
0.989346
0.992548
0.994335
0.995373
0.99603
0.995902
0.994473
0.99355
0.993777
0.994449
0.995272
0.996672
0.999553
1.0022
1.0037
1.00464
1.00561
1.00607
1.00517
1.00421
1.00422
1.00483
1.00564
1.0069
1.00947
1.01204
1.01363
1.01461
1.01541
1.016
1.01576
1.01447
1.0136
1.01363
1.01411
1.01504
1.01726
1.01946
1.02066
1.02246
1.09294
1.33166
0.950556
0.950609
0.951894
0.955674
0.95803
0.958895
0.959257
0.958856
0.956658
0.955557
0.955638
0.955999
0.956544
0.958714
0.963092
0.96538
0.966295
0.96669
0.965428
0.962744
0.961878
0.962063
0.962473
0.963143
0.965907
0.970392
0.972499
0.97333
0.973873
0.972569
0.969678
0.968644
0.968774
0.969183
0.969936
0.972563
0.976752
0.978984
0.979944
0.980469
0.980051
0.97778
0.97644
0.976523
0.977057
0.977844
0.97972
0.983397
0.986007
0.987214
0.987995
0.988369
0.98709
0.985692
0.985622
0.986077
0.986617
0.987548
0.990046
0.993241
0.995112
0.99609
0.997042
0.997538
0.996381
0.995197
0.995145
0.995678
0.99643
0.997521
1
1.00297
1.00489
1.00597
1.00674
1.00727
1.00683
1.00575
1.00532
1.00573
1.00655
1.00763
1.00977
1.01244
1.0143
1.0154
1.0162
1.01683
1.01704
1.01606
1.01474
1.01431
1.01458
1.01516
1.01703
1.01915
1.0215
1.09446
1.32735
0.951602
0.951297
0.951685
0.95396
0.957922
0.95976
0.960433
0.960693
0.95933
0.957134
0.95655
0.956677
0.957029
0.957849
0.961031
0.96528
0.967097
0.967859
0.968065
0.965967
0.963398
0.962834
0.963174
0.963681
0.964665
0.968022
0.97208
0.973883
0.974628
0.974965
0.973494
0.970968
0.970108
0.970267
0.970681
0.971515
0.974131
0.977935
0.979949
0.980866
0.981677
0.981426
0.97915
0.977927
0.978012
0.978393
0.97905
0.980668
0.984282
0.987054
0.98837
0.98923
0.989851
0.988804
0.987029
0.98656
0.987041
0.98775
0.98873
0.990951
0.994186
0.996384
0.997524
0.9983
0.998786
0.998003
0.996677
0.996311
0.996787
0.99758
0.998633
1.00077
1.00362
1.00557
1.00673
1.00763
1.00838
1.00839
1.00741
1.0068
1.007
1.00761
1.00844
1.00999
1.01259
1.01473
1.016
1.01683
1.01753
1.018
1.01755
1.01609
1.01508
1.01498
1.0154
1.01682
1.01967
1.09474
1.32274
0.952975
0.95226
0.952464
0.953203
0.956308
0.959882
0.961299
0.96185
0.961759
0.959611
0.957757
0.957582
0.957974
0.958444
0.959556
0.963317
0.966995
0.968417
0.969047
0.968983
0.966694
0.96464
0.964357
0.96466
0.965131
0.966178
0.969649
0.973338
0.974948
0.975733
0.976273
0.974812
0.972433
0.971677
0.971712
0.971932
0.972755
0.975552
0.97945
0.981509
0.982365
0.982896
0.982457
0.980315
0.979
0.979048
0.979586
0.980398
0.982129
0.985715
0.988453
0.989723
0.9904
0.990777
0.990038
0.988559
0.988097
0.988456
0.989076
0.989975
0.991912
0.994897
0.997071
0.998333
0.999235
0.999938
0.99953
0.998308
0.99785
0.998245
0.998963
0.999776
1.00121
1.00391
1.00629
1.00772
1.00863
1.00937
1.00988
1.00935
1.00834
1.00808
1.00855
1.00928
1.01033
1.01251
1.01494
1.01649
1.01742
1.01815
1.01877
1.01887
1.01764
1.01606
1.01545
1.01552
1.01754
1.09312
1.31783
0.954953
0.953509
0.953547
0.953693
0.954608
0.958273
0.961474
0.962685
0.963299
0.96281
0.960286
0.958992
0.959021
0.959293
0.959671
0.960985
0.96512
0.968412
0.969657
0.97039
0.97031
0.967805
0.965912
0.965609
0.965786
0.966247
0.967522
0.971346
0.975003
0.976546
0.977195
0.977487
0.975799
0.973352
0.972644
0.972959
0.973455
0.974464
0.977162
0.980597
0.982395
0.983244
0.983947
0.98372
0.981557
0.980341
0.98051
0.981108
0.981924
0.983602
0.986756
0.989145
0.99035
0.991165
0.991991
0.991749
0.990169
0.989445
0.989761
0.990408
0.99117
0.992528
0.995293
0.997865
0.999377
1.00027
1.001
1.00126
1.0003
0.999371
0.999359
0.999989
1.00085
1.00209
1.00441
1.00689
1.00853
1.00958
1.01033
1.01092
1.01084
1.00994
1.00936
1.0095
1.01005
1.01082
1.01247
1.015
1.01689
1.01802
1.01882
1.01946
1.0198
1.0191
1.0173
1.0159
1.01613
1.08916
1.31273
0.95727
0.954887
0.954416
0.954406
0.95468
0.956201
0.960377
0.963294
0.964325
0.964785
0.963733
0.961059
0.959873
0.959921
0.960312
0.960902
0.962767
0.96707
0.969974
0.971099
0.971633
0.971208
0.968687
0.966946
0.966834
0.967288
0.967915
0.969347
0.973006