/*--------------------------------*- C++ -*----------------------------------*\
  =========                 |
  \\      /  F ield         | OpenFOAM: The Open Source CFD Toolbox
   \\    /   O peration     | Website:  https://openfoam.org
    \\  /    A nd           | Version:  12
     \\/     M anipulation  |
\*---------------------------------------------------------------------------*/
FoamFile
{
    format      ascii;
    class       volScalarField;
    location    "2";
    object      T;
}
// * * * * * * * * * * * * * * * * * * * * * * * * * * * * * * * * * * * * * //

dimensions      [0 0 0 1 0 0 0];

internalField   nonuniform List<scalar> 
46253
(
0.992639
1.0288
1.04652
1.02871
1.04525
1.04423
0.993813
0.97901
1.02818
1.02813
0.993102
0.936463
1.02465
1.02475
1
1.02782
1.02771
1.02605
1.02615
1.02698
1.02689
1.04226
1
0.996118
1.00147
1.0284
1.0274
1.02729
1.02844
0.978327
0.996154
1.02317
1.02306
1.02656
1.02648
1
1.02525
1.02513
0.933735
1
0.99836
0.935953
1.02374
1.02362
1.00482
1.02571
1.02562
1
1.02213
1.02199
1.02158
1.02148
1.03835
1.00529
1.04953
0.952478
1.02046
1.0203
1.01844
0.989147
1
0.995215
1
1
1
1.02425
1.02414
1.04055
0.954604
0.972165
0.992585
1.01985
1.0197
0.995059
1.0365
0.99591
1.01655
1.01637
1
1.02266
1.02251
1.01867
1.03887
1.01856
0.996961
1.03433
1.01235
1.01213
0.992125
1
1
0.999436
1.03382
1.02104
1
1.02088
1.03329
1
1.01835
1
1
1.03281
1.0354
0.995024
1.04896
0.998186
0.938637
1.00758
1.00735
0.946632
0.952678
1.01924
1.01908
1
1
1.00977
0.944913
0.98801
1.05153
0.954234
1
1.04327
1.01811
1.01794
1.0305
1.05349
1
0.948669
1.05485
1.01554
1.00405
1.00381
1.04319
0.996357
1.01528
1
1.01429
1.01414
0.953684
1
1.01696
1.00182
1.00159
0.992868
1.0171
1.05253
1.01298
1.0128
0.930124
1
0.946346
1.03781
1.0149
1.01472
0.986006
0.925535
0.948814
1
1.01096
1.0484
1.01079
0.94329
0.951493
1
1.00156
1.01364
0.995582
1.01348
1.07974
1
1.00959
1.00942
1.04119
0.991947
1.04759
1.01348
0.971075
1.03268
0.989392
0.945928
1.0477
0.985561
1.0082
1.00805
1
1.01163
1.0114
1.01872
1
1
1.03713
1
0.992944
1
1
1
0.946027
1.02827
0.989382
0.989036
1
1
1.01027
1.01011
1
0.934436
0.984933
1.00607
1.00587
1
1
1.0518
0.992863
1.03485
0.975284
1.02772
0.992776
0.998522
1.00469
1.04124
1.03972
1.00455
1.0135
1.0089
1.00872
0.999752
1.02903
1.03136
0.98575
0.985293
1.00783
1
1
1
1.03002
1
1
1
1.00745
1.01173
1.03001
1.03229
1.02573
1
1
1.03595
1
0.98496
1.02588
1.00248
1.00231
1.01092
0.981907
1.02506
0.981535
1.00682
1.00654
0.958443
0.997065
1.01224
0.99718
0.99842
0.943029
0.992998
0.996472
1
1
1
1.00534
1.00037
1.00519
1.03139
1
1
1.00016
1.02951
1.05116
1
1.00653
0.959716
0.97833
0.977755
1.03597
1.03487
1
0.993198
0.985252
0.954696
0.990366
1
1.01698
1.01643
0.998584
1
1.01483
1.00178
1.03177
1.00182
0.997445
0.998825
1.04933
0.998615
0.949277
1.04831
1
1.00328
1.00299
1
0.9931
1
1
0.981061
1
0.99742
0.999996
0.997277
0.954333
1.01413
1
1.00547
0.951177
0.999999
0.997309
1.00151
0.955029
0.989226
1
1.02615
0.99588
0.995652
0.971585
0.971246
1
1
1
0.995036
0.957904
1.00109
1.00084
1
1.03838
1.03715
1
1.05153
1
0.994467
0.994272
1
0.95596
1.03218
0.964087
1
0.943737
1
0.946729
1
0.999607
1
0.999402
1
0.945925
1
1.00666
1
1
1.00016
0.999997
0.99999
0.993003
1
1
1
1
0.992808
1.00001
1.01287
0.953437
1.03095
1
1
0.997194
0.988876
0.949975
0.998087
0.990869
0.997937
1
1
0.991388
1.05903
1
0.99147
0.991216
0.985267
1
0.991141
0.982309
0.983049
1.00484
0.992756
1
0.963549
0.963323
1.01277
1.03094
1.02713
1
1
1
1
0.999995
1
1.04351
1
0.992099
1.02663
0.993175
1.02567
1
0.957132
1.02681
1
0.98999
1
0.996729
1
1
0.989841
0.99652
1
0.976256
1
1
1
1
0.985791
1.00925
1
1
1.00426
0.951861
1.02825
0.984235
1
0.987072
0.987058
1
1.00106
0.95625
1
0.960052
0.993728
1
0.993527
1
1.02622
0.992571
1.02641
0.99513
0.987441
0.999991
0.987042
0.987257
0.994971
1
0.987294
1.03273
1
1.02661
1
1
0.992511
1
0.993853
0.949316
0.987644
0.958345
0.984379
0.987409
0.994344
0.987907
0.989413
1
1.02949
1.02864
1
1.05597
1
0.960557
0.998444
0.930263
0.961098
0.987374
0.986265
0.988017
1
1
0.993747
0.991543
0.94278
0.993557
0.986268
0.986218
0.989461
0.996929
1.00168
0.989348
0.994003
1
1
1.00011
0.997923
1.02715
0.990081
0.99425
1
1
0.988823
0.999993
1
0.995446
1.04336
0.992796
1.0204
1.00488
0.992944
1
0.992512
0.993195
0.99263
1
0.949549
0.958132
1
0.987272
0.991499
1
1
0.992173
1
0.995088
0.956626
1
1
0.991941
1
1
1.02364
1.0238
0.926702
1.02326
1.02342
0.983805
0.960086
0.983719
0.990449
1.02182
1.02197
1.0209
1.02104
1.02063
1.02779
1
0.987235
0.927883
1
1
1
1.02645
1
1
0.995448
0.992417
1
0.988863
1
1
0.949438
1
1
1.00009
0.990721
1.01953
1
0.990567
0.9888
1.00013
1.00027
1.00083
1.00089
1.00173
1.02886
1
0.982638
0.982447
0.991798
0.984696
1.00507
1
0.996682
1
1.04918
0.984644
1.02668
1.04897
1.02756
1
0.99286
0.994648
1
0.999995
1.00051
0.988064
1
1
0.980845
1.01951
1.01966
1.01832
1.01857
1.01727
1.01744
1.01592
1.01619
1.01926
0.986782
1.01486
0.989295
1.01512
1.01353
1
0.99363
0.994817
1.01356
1.00019
1.012
1
1.01232
1
0.988174
1.01085
1.01679
1.01111
1.03352
1.00888
1.00949
1
1.00954
1
0.938755
1.01702
0.961167
0.994943
1
1
1.0079
1.00813
1.00241
0.992012
1.00647
1.00679
0.980752
1.02696
1.02568
1.00432
0.980073
1.0047
0.999981
0.988369
1.00323
0.953098
1.00329
0.979805
0.988086
1
1
1
1.00133
1.00163
1.00662
1
1
1.00049
0.963564
1.00066
0.952239
0.999991
0.998536
0.998472
1
1
1
0.99298
1
0.991676
0.994464
0.996801
1.02864
0.99633
1
0.99615
1
1
0.992149
0.992313
0.994173
0.994404
0.986968
0.992721
0.993258
0.993121
0.993519
1.02693
0.982914
0.998171
0.995648
1
0.956833
1.0001
0.99945
1.07175
1.01661
1.01665
1
0.997926
0.986406
0.997928
1.02097
1.03255
0.987769
0.944579
0.997253
0.997724
0.99429
0.996635
0.996159
0.955522
0.954599
1.02232
0.967164
1.05147
0.978882
1
0.945479
0.978907
0.950488
1.01143
0.995434
1.02048
1.02264
1.02077
0.986932
1
1.02295
1
1
1.02315
0.986866
1
1.02215
1.02202
0.956666
0.954788
0.999999
0.981499
1.02087
0.992759
1
1
1
1.02784
1
0.990116
1
0.986985
1.02698
0.999486
0.996524
1.00017
0.954478
1
0.985664
0.998899
1.00143
1.02736
1
1.00225
1
1
1.00087
0.999953
0.991732
0.996764
0.996764
1
0.960713
1
1
1.0006
0.994799
1.02697
0.975092
1.02691
1.02708
0.982515
0.984166
1
1.0013
0.949678
0.986358
1
0.9878
0.976344
1
1.02735
0.987524
0.988784
1.02718
0.976183
1.04229
1.02847
1
1.00585
1.00596
0.98652
1
1.03993
1.03654
0.998548
0.997475
1
0.991814
0.992156
0.951356
1.03212
1.0001
0.999993
1
0.99921
0.99971
1.01984
1.02839
1
0.984448
0.997343
1
1.0286
0.997887
0.984189
0.987403
0.986561
1
0.986573
0.992991
0.94547
0.985932
0.948544
0.993146
1
1
0.992478
1
1
0.988051
0.986516
1
0.97505
0.956824
0.991969
0.954639
0.958083
0.975057
0.959597
0.956768
0.948317
0.947939
1.03017
1.031
0.986882
1.03122
1.03006
0.988138
0.960302
0.9576
1.00214
1
0.993464
1.02695
0.992068
0.993554
1.02657
1.02637
1.02667
1.0266
1
1.02652
1
0.987258
0.992654
0.978826
1.03558
1
0.983361
1.01657
0.992371
0.992285
0.983327
1.02779
0.989804
0.988465
0.990194
1
1
1
1
0.988928
0.992317
1
0.979885
1.02675
0.95923
1
0.95749
0.99492
0.995837
1.00264
0.973381
0.973063
0.986041
1.04185
1.02015
0.957494
0.931232
0.931316
0.960548
1.02121
1.02156
0.986544
1.02124
1.00495
1.00608
0.992471
0.941303
1.02364
0.987969
1
1.02281
1.02863
1.0229
1
1.02339
1.05983
1.02357
0.992299
0.955016
0.954234
0.988181
1.02477
1.02869
1.02632
0.955266
1.01188
0.994701
1.04247
1.00993
1.01153
1.01292
1.00875
1.01023
1
0.989943
1.01159
1.01398
1.00904
0.986819
1.01318
1.00403
1.00735
1.01432
1
1.01551
1.00753
1.0156
1.00001
1.0053
1.01779
1.01665
1.01693
1.00548
1.01778
1.01797
1.00359
1.01804
1
1.01893
1.00372
1.02616
1.00235
1.0192
1
1
0.972061
1.00269
1
1
1
1.00108
1.00171
1
1
1
1.00095
0.971847
1.02348
0.998628
0.999995
0.971439
0.998578
0.996368
0.99651
0.955134
0.995242
0.995732
0.994068
1
0.996151
0.993908
0.999999
0.995753
0.994719
0.999999
1.0166
0.993239
0.961607
1.02062
0.99927
0.997766
0.99878
0.98085
0.999336
1.02822
0.998354
1
0.994386
0.980533
0.997947
0.980973
0.976668
0.987709
0.996233
0.992133
0.992593
0.996982
0.996259
0.995517
0.996027
0.992747
1.02592
1.02999
1
1.02627
1
1.02304
1.02838
1.02105
1
1.05258
1.01343
1
0.972434
0.970957
0.991282
0.992729
1
0.981657
1.00223
1.00315
1.01303
1.02601
1.00102
1.00252
1.00158
0.999951
0.992308
0.955154
0.993063
0.987773
1
0.972442
0.96084
0.950172
0.978065
1
1.00905
1.00019
0.939873
1
0.969816
0.999208
0.973457
0.969338
1
1.01917
0.999993
0.96382
0.977696
0.977554
1.00037
0.980965
0.981297
1.00489
0.97938
0.97477
0.97954
0.993949
0.997455
0.945237
0.955263
1.01185
0.97215
1.00288
0.994177
0.999991
1.00281
1.01371
0.964481
0.976183
1.02772
0.999988
1.02972
0.990797
1.02776
1
1.02922
1.02225
0.97735
0.948384
1
0.99827
1.02927
0.990197
0.967716
1
1
1.03692
0.949498
1.01762
0.953545
0.993078
0.993194
1.05079
1.00342
0.992032
1.027
0.973421
1.02916
0.979403
0.968232
0.972298
0.958854
1.01878
1.01671
0.971884
0.971064
0.992544
0.98784
0.991064
0.991123
1.0177
0.968299
0.991722
0.987172
0.987206
0.947442
0.980486
1.0266
0.968425
0.992684
0.990333
0.947365
0.991049
1.00039
1
1.00067
1.00033
0.95995
0.989893
1
0.985918
0.989996
1.03085
1.01158
0.960453
0.986554
1.0216
0.997183
1.00826
1.01692
1.01662
0.967475
1.01056
1.01592
1.00001
1.0251
0.988295
1.01135
0.987991
0.928588
0.99778
0.971312
0.999996
1.0255
0.97126
1
1.02161
0.987446
1.02009
1.02206
1.01706
0.997716
1.02067
0.988551
0.971261
1.00756
1.00289
0.993666
1.01765
1.01275
0.968409
1
1.00635
1.01807
1.0151
1.0291
0.991848
1.03394
1.02964
1.03134
0.957029
1.01552
1.03082
1.00998
1.00832
1
1.02966
0.997331
1.01238
0.966913
1.02686
1.01496
0.976859
0.950155
1.01901
1.0122
1.01274
0.990274
0.9665
1
1.0104
0.976658
1.01253
1.00058
1.01649
1.00961
1.01658
1
1
1.00941
1.0174
1
0.96272
0.997492
1.0165
0.964829
1.01
0.992806
0.988351
1.02617
0.996811
1.02978
0.992653
1.02973
1.02245
1
1
1
0.99659
1.02667
1.02754
1.02745
1
1
1.03182
0.992205
1.02071
1.02913
0.977751
1.00004
1.02675
1.02926
0.962998
0.958812
1.01852
1.02627
1.02762
1.00862
1.02628
1
1
1.02244
1.02558
1.00126
1.02566
1.01438
0.952298
1.0023
1
1.02439
1.0291
1
1.02445
1.01941
1.01722
1.01647
0.99168
1.01409
1
1
1.02352
1.02379
0.959096
1.02279
1.02509
1.02293
0.999327
1
1.02162
1.0247
0.990916
0.99097
0.955201
1.00745
0.956244
0.992627
1.01031
1.02165
0.989593
0.98942
0.999916
1.00118
0.945806
1.00142
0.999581
0.979768
1.00065
1.0009
0.965334
1.00583
1.02003
0.955535
1.01254
1.00011
1.01883
1.02005
1.00065
0.965105
1.0015
1
0.971169
1.00129
1.01923
1.01171
0.958763
0.992516
1.00085
1.01655
0.975878
1.01787
1.00693
1.01809
0.959117
1
1.02023
0.952889
0.975711
0.990088
1.01663
1.00148
1.00306
1
0.991411
1.01173
0.999992
1.01664
1.03018
1
1
1.02749
0.996621
1
1.01466
1.01322
1.01475
1
0.951767
1.01598
1.00124
1.00098
1.02495
1.01354
1.01388
1.01682
1.00762
0.967777
1.00962
1.01212
1.00492
1.01244
1.00999
1
0.973416
1
0.994868
1
1.02603
0.978877
1.01033
1.00148
1.00072
1.00166
0.991746
1.00579
0.999424
1.01664
0.960376
1.00871
1
1.00789
1.00828
1
1.01944
1.01624
1.01664
1.01607
1.01676
1.02436
0.962702
1
0.963886
1.0263
0.951234
1.01091
1.02293
0.951478
1.00613
0.950055
1
1.02252
0.963983
0.966526
1.02343
1.00924
1.02203
1.02901
1.02825
1.01622
1.02683
0.956346
0.957007
1.00733
1
1.02406
1.02906
0.977393
0.988006
1.00708
1.02791
1.03965
1
1.02549
1.0125
1
1.00449
1.00485
0.988708
1.0248
1.00156
1.00313
1.01667
0.927338
1.00333
1.01166
1.01984
1.01679
1.01546
1.0261
1.01695
1.02282
1.00177
1.00537
1.01324
1.02538
1.01683
1.01826
1.00657
1.02437
1.00727
0.999642
0.976273
1.02534
0.974517
1
1.01742
1.02544
1.02326
0.998097
1.02159
1.02323
0.999408
0.993575
0.999709
1
1.02264
0.974119
1.00837
1.02203
0.951991
0.924138
0.989705
0.993334
0.991491
1.02408
0.992331
0.973821
0.970553
1.02556
0.998278
1.02308
1.02125
0.989324
1.00512
0.999536
0.961675
1.02647
1.02649
0.970779
0.971482
0.997338
1.02617
0.994211
0.996087
0.995949
0.995249
0.996056
0.989964
0.994568
1.0213
1.02147
1.02146
1.02859
0.983936
0.994483
0.981803
0.969099
1.02739
0.96106
1.0003
1.02385
0.964234
1.01388
0.94833
1.01941
0.956552
0.990606
0.997224
1.01941
1.02193
0.991955
0.973679
1.01653
0.996664
0.992195
1.0079
1.01123
1.02749
0.971459
1.01915
0.976441
0.958801
0.993973
0.947245
1.02385
1.0184
1.02301
1.00352
0.990899
1.0163
1.02174
0.988419
1.02132
1.01601
0.989087
1.02106
0.960551
0.983902
1.01648
1.01626
1.02953
0.986743
0.988148
1
0.988366
1
0.987487
1.01586
0.987189
0.950076
1.01244
1.02125
1
1.02341
1.01127
0.995302
1.02728
1.01434
1.01158
1.00479
1.05351
1.01705
1
0.983445
1.01818
0.984313
1.01648
1.00933
0.984872
1
1.00451
1.00953
0.984233
1.02717
1.00727
0.983319
0.964673
1
1
1.00743
1.01337
1.0284
1.03697
0.989386
1.00472
1.00571
1.03557
1.01461
0.964631
1
1.00314
1.02489
1
1
1.00797
1.02436
1.03471
0.96821
0.980688
0.946367
0.94265
1.01506
0.963875
0.980825
0.979192
1.01495
1.01253
1.0195
0.979853
0.993359
0.970541
1.01947
1.02845
0.987662
0.980314
1.03591
1.02324
1.0164
1.02559
0.977982
1.00888
1.0249
0.957872
1
0.978134
0.973239
1.00748
0.96153
1
1
1.01628
1.01831
0.968342
0.990961
1
1
0.991242
1.02148
0.972474
1.0266
1.01754
0.994917
0.975478
0.97576
1.01679
0.989094
0.998322
0.99669
0.973448
1.02773
0.999294
0.9724
1.00083
1.00675
1.01653
1.00038
1.03972
1.00094
0.988176
1.00214
0.970293
1.00205
1.00123
0.996071
0.964073
1.01209
1.02602
0.993787
1.02311
1
0.969471
0.967036
0.970704
0.967144
1.01678
0.994904
1.02275
1
0.97035
0.997195
1.02918
0.976345
0.971579
1.02956
1.01718
1.0191
0.997628
1.01382
1.0153
0.969228
1.02588
0.952152
1.02664
0.977114
1.01601
1.01169
1.02541
0.971108
0.987548
1
1
0.987656
0.976532
1.01819
1.01621
1.02103
0.974657
1.01607
0.993726
0.988713
0.999156
0.958653
0.96943
0.993893
0.984068
1.02579
0.998662
0.959276
1.02567
0.947676
1.01952
0.984319
0.986649
0.98903
1.02563
1
1.00721
0.992878
1.01701
1.00024
1.00092
1.02463
0.961314
1.02481
1
0.989893
1
1
1.0111
0.986829
1.01069
0.990209
1.02198
1.02014
1.02042
0.963554
1.02204
0.962626
1.01172
0.99052
1.02413
1.02111
1.02646
0.959332
0.993539
1.00921
0.96317
1.02593
1.027
1.0206
0.960889
0.950915
1.0113
0.986152
1.01569
0.969494
1.02753
1.01969
1.02608
0.986312
1
1.02313
1.02507
0.997809
1.02726
1.01273
1.02649
1
0.999992
1.02648
1.01641
0.999999
1.02426
1.02237
1.0181
1.02317
1.02046
1
1.00697
1.01878
1.0167
0.980571
1.00309
1.01704
1.01663
1.01641
0.979801
0.95258
0.965155
1.01323
1.02084
1.01987
0.979873
1.00769
1.02372
1.02715
1.01671
1.02329
1
0.994556
0.98257
1.01832
1.02042
0.995738
0.964193
0.983064
0.979866
0.964358
0.976616
1.01403
0.984661
1.01739
0.987616
1.0184
0.988581
1.00406
1.02004
0.987424
1.00008
1.02521
1
1.01247
1.01126
0.967141
0.977905
1.03485
1.01515
1.0024
0.960466
1.02508
0.983605
1.02001
1.03771
0.996128
0.956933
0.965593
0.986803
1.01432
0.991614
1.01549
0.983924
1.02475
0.995611
0.991944
0.960139
1.01076
1.01619
0.982909
1
1
1.00773
1.01283
0.997618
1.00666
1.0253
0.99451
0.950375
1.01874
1
0.997422
1.02218
1
1.01289
0.973796
0.947583
1.01091
1.01197
0.995774
0.985589
1.00878
0.985234
0.97058
1.02763
0.973185
0.972027
1.009
0.983908
1.02781
0.973213
0.988084
0.992396
0.995445
1.00692
0.992903
0.969547
1
1.02161
1.02707
0.96955
0.99381
1.02658
1.02723
1.02442
0.986594
1.00696
0.994911
1.02453
1.02625
1.00226
1.02144
0.995037
1.0193
1.02635
1.02261
1
0.969383
1.0205
1.01218
1.01899
0.980299
0.977149
1.02674
1.00368
0.981675
1.00744
0.971246
0.969534
1.02121
0.987209
0.976925
1.02523
1.00525
0.979725
1.01062
1
1.00397
1.00267
1.02541
0.99685
0.979787
0.978805
0.997997
1.00537
1.02049
0.982025
1.01993
0.998659
1.02437
1.00014
0.981079
0.998558
1.04641
0.998598
1
1.02583
1.02464
0.9764
0.996025
1.00045
0.991657
0.998921
1.00806
1.02346
1.02029
1.02604
1.00446
0.995042
0.961006
1.02365
0.991268
1.01992
0.994257
0.995331
0.987276
0.99639
1.02315
0.990366
1.00753
1.01726
0.996654
0.995482
0.995026
1.02233
1.02115
1.0196
0.986491
1.02254
0.991382
1.02084
1
1.00111
0.99494
1.0054
1.0103
0.974135
0.959521
0.993297
0.992725
1.00505
1.01899
1.01838
1.0176
0.982906
1.01861
0.964381
1.02218
0.963899
0.993219
0.989862
0.929224
0.991662
0.956541
1.02076
0.951608
0.967684
0.999333
0.968875
0.987685
1.02091
0.995823
1.01912
1.00261
0.98885
1.02335
1
0.988389
1.0217
0.99153
1
0.99499
0.989323
0.98792
0.991383
0.988206
1.01888
0.967546
1.01701
1.00862
1.01811
1.0321
0.996981
1.01916
1.02184
1.0135
0.983575
1.02115
0.992494
0.98551
0.979992
0.984977
0.99775
0.986502
1.02471
1.0178
1.01965
1.00749
0.997444
0.985813
1.0085
0.970591
0.983803
0.976313
1
1.01794
0.996259
0.970664
0.968569
0.984114
0.979887
0.982402
0.98655
0.969662
0.989513
0.985647
0.968867
1
0.998117
0.991629
0.970313
0.99483
0.970947
1.01639
1.02337
0.981297
0.980422
1.01653
1.02725
1.02941
1.0168
1.0167
1.01027
0.97838
1.02299
0.967378
1.0257
0.981837
0.97032
0.996555
1.01162
0.980543
0.988351
0.988537
0.994553
0.967384
1.01928
1.02941
0.973624
1.00312
1
1.01708
0.970999
0.998466
0.978608
1.01517
0.985398
0.998338
1.02362
1.02174
1.01477
1.02196
0.999959
1.0016
0.985413
1.02914
0.976982
0.964893
1.02388
1.0155
0.972794
1.00066
1.01486
1.00091
0.977473
0.96285
1.02276
1.01324
1.01428
1.00383
1.00225
1
1.00685
0.998096
1.0035
0.987944
1
1.02081
1.00728
0.97467
0.963397
0.946998
1.01212
1.02909
1.01321
1.03192
1.00679
0.967817
0.974024
1.00501
1.00587
0.957252
0.941627
1.01364
1.00415
0.967948
0.972754
0.969891
0.970158
1.01458
0.971567
1.01911
0.970116
1.01496
0.976242
1.01712
0.982735
0.980209
0.974567
1.00775
1.02564
0.961969
0.983458
1.00748
0.983496
0.961278
1.03043
0.967016
1.00757
0.972194
0.984605
0.978122
0.984644
1.00832
1.00245
1.0222
1.02436
1.0073
0.985064
1.01142
0.984401
0.957882
0.969509
1.00794
0.97019
1.00889
1
0.983466
1
0.962146
1.00911
1
1
0.962546
1.02187
1
0.974873
1.02826
1.02564
0.987631
1.0198
0.946857
1
0.994161
0.968148
1.00681
0.969259
0.981776
1.00709
0.981823
0.995729
0.996221
1.00044
0.998415
1.03225
1.0054
1.01441
1.02291
0.97726
0.993976
1.00785
1.00564
1.00795
1.00174
0.994166
0.948764
1.00391
1.02177
1.01036
0.992993
0.977415
1.00443
0.97907
1.00055
1.02204
0.994446
1.00042
0.968873
1.02526
0.993912
0.940404
1.02073
1.00246
1.02334
0.994081
1.02769
0.972324
1.00271
1.02057
0.990472
1.02528
0.979556
0.979671
1.02013
1.01051
1.02499
1.00123
1.01973
1.01567
1.00956
1
1.02044
1.00161
0.996552
0.968258
1.01168
1
1
1.01109
0.999456
1.01242
0.990722
1.01189
0.999792
1.02732
0.981443
0.985956
0.992151
0.998441
0.970033
0.995127
0.996348
1.01462
0.998691
1.00887
1.01468
1.02748
1.02128
1.02708
0.967859
0.996491
1
0.975774
0.993976
1.01308
0.992017
0.994693
1.00086
0.965481
0.996942
1.01604
0.97544
0.998374
1.02148
0.977733
0.993849
1.01587
0.997962
0.995505
0.990506
0.996809
1.00029
1.00018
1.01408
0.977283
1.0161
1.01573
1.02443
0.964247
1.02159
0.995401
1.02368
1.01595
0.980095
1.02029
1.01547
1.02202
0.995423
1.01663
1.02397
0.99781
0.996963
0.97954
1.01451
0.980995
0.996336
0.993631
1.01982
0.980273
1.01486
1.0274
0.967766
0.972535
0.980533
1.01477
0.994214
1.02742
0.993751
1.00697
0.994069
1.01685
1.02201
1.0153
1.01787
0.994276
1.02245
0.98141
0.98323
1.01842
1.05902
1.00415
1.02488
0.992033
1.02335
1.02096
1.00815
1.02573
1.01626
1.01962
0.98286
0.992326
1.00998
0.98558
0.985434
1.02052
1.01235
0.976953
1.02154
1.04431
1.02613
0.947634
0.984883
0.991173
0.991542
0.96951
1.01745
0.999998
1.01871
1.01132
0.999999
1.0171
0.987402
0.969386
1.00207
1.01969
0.986692
0.985027
0.988352
0.988706
0.999827
0.966805
1.02482
0.985231
0.988527
0.966412
0.967017
1.00142
0.988329
0.995443
1
0.9954
1.02123
1.02957
1.02671
0.967774
0.973125
1.00833
0.987373
1.02558
0.968276
1
1
0.987889
1.02725
1.03569
0.989696
0.991006
1.03538
1.00863
0.986868
0.990442
1.02917
1.02456
1
1.02664
0.992376
1.02934
0.968734
0.984621
1.0221
1.0143
0.984672
1.02004
0.99197
1.01956
1.02809
1.02544
0.994033
0.983598
0.984252
1.02743
0.997284
0.993721
1.00401
1.02723
1.02682
1.00173
0.968702
1.02655
0.958486
0.995564
1.0282
1
1.02659
1
1.0259
0.981218
1
0.969438
0.994891
1.02575
1.00484
0.994619
1.02744
0.98092
0.946262
1
0.96054
0.998803
1.02628
1.02904
1.00466
1.00711
1.02625
1.02494
1.02674
1.00121
0.998174
0.968649
0.997672
1.0348
1.00427
1
1.02599
0.958617
1.00466
1.02384
0.998734
0.997086
1.02667
0.974
1
1.00181
1.02286
0.973287
1.02643
0.951455
1.02506
1.02116
0.990414
0.935412
1.0043
1.0197
1.02751
1.00139
1.0001
0.97084
0.962748
0.999949
0.947248
1.02403
1.02434
1.02766
1.02495
0.961412
1.03619
0.983221
1.02115
1.00543
0.999429
0.973637
0.975288
0.989868
1.02314
0.990928
0.972715
1.01756
1
0.95369
1.01068
1.01909
1.02333
1.00211
1.01949
1.0214
1.02856
1.00158
1.02654
0.962866
1.00337
1.01823
1.02043
0.97718
0.962215
0.959873
1.00764
1.01975
1.02083
1.00292
0.976545
1.01653
1.02258
0.950042
0.980476
1.01713
0.962293
0.95232
1.02588
0.989807
1.02009
1.00261
1.00426
1.00587
1.0185
0.981742
1.02243
1.02722
0.981366
0.994879
1.0259
1.01587
1.02036
1.00559
0.990558
1.00764
1.05027
1.0201
1.00548
1.0186
0.9925
1.01552
1.02541
1.01747
0.993949
1.00505
1
0.937632
1.02569
1.0225
0.978256
1.05332
1.00724
0.977163
1.01505
1.00679
0.985906
0.961245
1.01136
1.01405
1.01607
0.980314
1.00659
1.00642
1.03752
0.986639
0.999247
0.961211
1.02578
1.00552
1.02178
1.02465
0.972453
1.00825
1.0083
1.01663
0.973613
0.979288
1.03409
0.983441
0.998513
0.970878
0.973549
0.962553
1.01428
0.981213
0.980319
1
0.981982
1.00794
1.02074
1.02655
1
1.00795
0.980238
0.994761
0.98276
0.990573
1.02901
1.0098
1.0128
1.00164
1.01003
0.981057
1.02324
1.02519
1.03608
1.00928
1.00953
0.981334
1.00115
1.01995
1.00062
0.964618
1.00963
0.972605
1.01202
1.00747
0.970988
0.970883
0.971082
1.03855
1.00989
0.970915
1.02425
1.01899
0.999838
1.01112
1.01964
1.02378
1.01176
1.02714
1.01123
1.03234
0.963907
1.01397
1.00607
1.01612
0.967272
0.999408
1.00366
1.00845
1.02701
1.0189
0.989116
0.992328
0.989422
1.01125
1.02322
1.00786
1.01056
1.00488
0.988886
0.975626
1.0232
1.0167
1.00321
1.03303
1.02033
1.00679
0.961074
1.0006
1.01176
0.966403
1.00641
1.00309
0.983154
1.00892
1.01452
0.99224
1.01227
1.0034
1.01758
1.01724
1.00519
1.00515
1.002
1.00523
1.0169
1.01931
1.01373
1.01716
1.02271
0.984366
1.01375
1.024
1.01205
1.00345
1.00484
1.00025
1
1.01321
0.971538
1.02218
1.03436
1.00218
0.998921
1.00655
0.999999
1.01964
0.968967
1
1.00074
1.0147
0.997499
1.00004
1.00145
1.00595
0.999069
1
1.01428
0.999999
0.995742
1.01334
0.960909
1
0.998002
1.00019
0.99477
1.00503
1.02397
0.986201
1.01604
0.996036
0.992736
1.01666
1.01706
1.01755
1.00853
1.01579
0.970433
0.995129
1.0316
0.991787
1.0156
1.00681
0.97747
1.00648
1.02448
1
1.01146
1.00681
0.97746
1
1.00787
1.00687
1.01695
0.993148
0.982823
0.990796
0.982813
1.01738
1.02708
0.988917
1.01522
0.998769
0.969113
0.991756
0.988372
0.988805
1.00562
0.995202
1.00929
1.01412
1.03334
1.01694
0.972744
0.988249
1.01588
0.997437
0.995486
0.97049
0.965809
1.01605
0.989312
1.01661
1.00089
1.00892
1.00316
1.00888
0.997795
0.985052
0.991941
1.0183
0.988243
1.01748
1.02598
1.01614
0.984648
1.00013
1.02558
1.00872
1
1
0.996616
1.01787
1
0.985424
1.0125
0.994958
1
0.962956
0.99305
1.01759
0.981192
1
0.984655
0.995349
0.976325
1.01619
1.01086
1.02148
1.01107
1
1.01931
1.00366
0.980762
1.02978
1.03439
0.979442
0.994845
0.981518
1.02319
1.0108
1.01729
1.01915
1.01846
1.01527
1.0031
1.03463
1.00011
0.9805
0.977265
0.960863
0.99506
1
0.97124
1.01632
1.01871
0.995578
1.0285
1.02883
1.03137
0.989249
0.995418
1.00148
0.948026
1.02861
1.02332
0.998641
0.997566
1.01253
0.987167
1.01867
0.989362
1.0185
1.03404
1.02087
1
1.01216
1.02183
1.0207
1.02677
1.02622
0.997246
1.02114
1.01976
0.976921
1
1.04898
1.01385
1.03695
1.01339
1.01986
0.995884
1
0.991005
1.00323
1
1.01946
1.02158
1.02006
1.00061
1.01371
0.998713
0.999953
1
1.00329
1.02189
1.04604
1.01081
1.0295
1
0.99834
1.03174
1.02228
0.998266
1
1.02317
0.967879
1.01641
1.0233
1.03031
1.0112
1.01387
1.01682
1.02063
0.950076
1.02203
0.973938
0.97996
0.985928
0.975774
0.975745
0.967951
1.01377
0.984921
0.99869
0.96654
1.02358
1.01733
1.02027
0.979053
1.00939
1.02226
0.962883
1.02618
1.02309
1.00359
1.01854
1
1.00774
1.02282
0.992061
0.998924
0.993621
1.01995
1.02136
1.00263
1.02476
0.949433
1.00778
0.991959
0.992239
0.997755
1.00399
1.01443
0.931917
0.931786
0.96783
0.942105
1.02092
1.00731
1
1.01899
1
1.02569
0.959556
1.01802
1.01579
1
1.0141
1.01659
0.972407
0.995235
1.00685
0.994652
0.948483
1.0176
1.00583
0.9692
1.01225
1.00016
1.00052
1.02423
1.01796
1.01699
1.01859
1.00634
0.990599
1.00664
1.02664
1.01386
1.02407
1.02387
0.97526
1.016
1.00367
1.01876
0.999937
1.00258
0.968158
1.01707
1.02107
0.938343
1.00193
1.00254
0.975374
1.02836
0.987649
0.983144
0.973505
1.02081
1
1.00675
1
1
1.02092
1.00808
0.984202
1.01259
0.999122
1.00197
1.01911
1.03187
0.997414
1.03011
0.994064
1.00107
0.967676
1.00761
0.981918
0.982755
0.992328
0.981947
1.01928
0.982068
1
1.02392
0.991298
1.00443
1.02163
1.00586
0.997787
0.976478
0.971075
1
1.02549
1.02294
0.98979
1.02236
0.970428
1
1
0.982852
1
1
0.993194
1.00126
0.960027
0.998982
1.003
1.00552
0.989949
1.00915
1
1
1.00076
0.962717
0.982642
0.97818
1.00666
1
0.98894
0.938511
0.982211
1.00077
0.961864
0.933095
1
1.00065
0.993797
0.990441
1.00883
0.974914
1
1
1.025
0.987521
1.00906
0.98921
0.994705
1.00702
0.97791
1.05575
1
0.98565
0.98363
1.00885
1
0.981514
0.964204
1.0379
1.01948
0.974236
0.994308
0.99667
0.990196
0.953422
1.0058
1.00637
1
1.0009
0.987705
1.01377
1.02352
0.979467
0.996094
0.948461
0.985588
1.00676
1.02449
1.01089
0.989486
1.01481
0.997357
1
1.00813
1
1.01396
0.99519
0.939877
1.01476
0.98012
1.01028
0.980705
1
1.00583
0.992058
1.01943
0.990197
1.01256
0.989025
0.984059
1.00744
1.03761
1.03737
1.01006
0.986871
0.989202
0.949145
0.996865
1
1.0073
0.96966
0.972514
0.976296
0.971572
1.01753
0.948291
0.99726
0.976954
1.01385
1.00113
1.0101
1
1.00238
1.0141
1.01021
0.993305
0.997077
0.964199
0.997518
1.02226
0.993107
1.01365
0.966792
0.99627
1.00445
0.972971
0.956277
1.02725
1.01125
0.99651
1.01653
0.99102
1.02705
0.960243
0.976923
1.01578
1.00953
0.991355
1
0.997346
1
0.970285
1.02372
0.995954
0.998713
1.01566
0.950467
1.00161
0.998399
1.0362
0.987418
1.01671
0.991483
1.00901
0.993059
1.00431
0.977356
1.01338
0.970282
0.977685
1
1.0196
1.00471
1.01471
0.963026
1.01182
0.993423
0.987648
1.01484
0.93314
1.0118
0.997857
1.01605
1.00418
1.00978
0.998043
0.992142
0.973368
1.01447
1.00044
1.02726
1.00468
1.02764
1.01162
0.99352
0.961351
1.05103
0.993873
1.0112
1.00928
1.01619
1.00543
1.0352
1.02214
0.986042
0.95676
1.00019
0.970818
0.990772
1.01601
1.01669
1
0.990787
0.976079
1.00326
1.01993
1.00858
0.989917
0.964257
1.0057
0.993833
1.01541
0.99551
0.971122
1.01024
1.01658
0.971277
0.959409
0.947573
0.991307
1.00415
1.01777
1.01524
0.967064
0.989341
1.0038
0.993565
0.998991
1.02227
0.999758
0.938361
1.02014
1.02314
1.02317
1.01603
1.00037
0.980894
1.01909
0.996195
1.0317
1.00373
1.01613
0.996229
0.974504
1.02158
1.00543
0.997502
1.00031
0.98867
0.994977
0.990783
0.989567
1.01338
0.969646
1.0092
1.00802
1.02259
1.01029
1.00625
1.01195
1.01933
0.994073
1.00511
1.00265
1.01615
0.99347
0.988893
0.990262
1.01326
0.985616
1.01487
0.939661
0.989974
0.98914
1.01599
0.990517
1.01299
1
1.01593
0.985916
0.996789
0.967728
0.989871
1.02639
0.97017
0.996428
0.992007
0.992343
0.976932
0.99526
1.01723
0.988176
0.987891
1
1.01992
0.996033
1.03807
1.00596
0.980412
0.992651
1.01833
1.02846
1.02583
1.0221
1.00671
1.00857
1.01674
1.00764
1.01003
0.97226
1.0059
1
1.00453
1.01153
0.990057
1
1.00479
0.980295
1.01035
1.0125
1.00205
1.00052
0.948437
0.994459
1.01919
1.01246
1.01658
1.01296
1.00896
1.01435
0.996552
0.999471
0.996027
1.014
0.990951
0.976759
0.980235
0.960009
0.965856
0.99324
0.998129
1.01569
0.995836
0.995981
0.972998
1.00262
0.979872
0.98615
1.01008
1.01689
1
0.975059
0.987908
1.0018
1.01497
1.02009
0.996124
1.00176
0.980032
1.01485
1.01785
0.990021
1.01231
1
0.99791
0.984389
0.995723
0.950495
0.980248
1
1.01798
1.00697
1.00125
1.00324
1.02556
0.987976
1.0138
0.996222
1.01881
0.99625
1.02932
0.987496
0.959575
0.998054
0.999509
1
1.01205
1.02074
0.995192
1.02884
0.986402
1.02235
1
0.996347
0.990335
1.01326
1
0.95952
1.01927
0.998516
0.999432
0.980144
0.998686
0.998001
1.01978
0.998706
0.999547
1.01856
0.995472
0.986785
0.996105
1.02245
1.02672
1.01868
0.988373
0.98967
1.01602
1.0146
0.998479
1.01571
0.987188
1.01452
1.01959
1.02712
0.974267
0.958887
0.996561
1.02118
0.970903
0.996219
0.986847
1.02056
1.01964
0.994561
1.00292
1.00011
1.03518
0.971084
1.00082
0.985846
1
0.999234
1.01849
0.972295
0.982812
1.02942
1.02654
1.01947
0.980041
0.990538
0.987988
0.993792
0.958989
1.0003
1
1.02057
1.01563
0.996802
1.02167
0.992561
0.996081
0.959588
0.978563
1.01673
0.987245
1.01652
1.00172
1.00846
1.01534
0.994342
0.993253
0.99574
1.01991
0.972843
1.02285
1.01325
0.999203
0.978979
0.992019
1.01954
0.992314
1.01605
0.988042
1.03537
1.01625
0.983034
0.992176
1.00332
0.99222
1.01394
1.01288
1.02436
1.00828
0.991985
1.01957
1.01719
0.964776
1
1.01086
0.973661
0.986412
0.979614
1.02713
1.02219
0.973368
0.992257
1.00748
1.0284
1.02877
1.01352
0.98449
0.993459
1.0134
1.00468
1.02247
1.00787
1.01364
0.992941
0.990832
0.934349
1.00211
1.00755
1.01048
1.01967
1
0.9621
0.963198
0.98089
1.01665
0.991516
1.02997
0.980224
1.02166
0.979404
0.980665
0.982788
0.965435
0.958655
1.03552
1.01989
1.01425
1.03771
0.997165
1.03451
0.992012
0.982104
1.00313
1
0.981413
0.983987
1.01799
1.01779
0.990456
1.0301
0.991337
1.00103
0.994543
1.02502
0.99757
1.00217
0.957366
0.977343
1.01337
1.02807
1.03045
1.00456
0.998963
0.98887
1.017
1.03647
0.999015
1.01946
1.00567
1
0.981496
1.00802
0.98844
1.01719
1.00752
1.02245
0.973963
1.01511
1
0.994577
0.983945
0.962606
1.00495
1.01403
0.983223
0.964768
1
0.959487
0.999429
1.01752
1.01952
1.01247
1.03883
1.03165
1.01838
1.01924
1.00897
0.972202
1.00074
1.01578
1.01296
0.980352
1.02138
1.00279
0.9742
1.03025
0.985855
0.998212
0.99947
0.982916
1
1.01085
1.01204
0.964627
1.00394
1.01225
1.00502
0.971115
0.967099
0.993114
0.962038
1.05633
0.98574
1.01578
1
1.01836
1.02908
1.00523
1.01492
0.987114
0.981328
1.00803
0.977734
1.0213
1.02101
0.995266
1.03091
0.978815
0.967137
1.02603
1.02221
1.01228
1.00707
1.01591
1.01251
1
1.01256
0.966645
1
0.985299
0.970591
1.00873