/*--------------------------------*- C++ -*----------------------------------*\
  =========                 |
  \\      /  F ield         | OpenFOAM: The Open Source CFD Toolbox
   \\    /   O peration     | Website:  https://openfoam.org
    \\  /    A nd           | Version:  12
     \\/     M anipulation  |
\*---------------------------------------------------------------------------*/
FoamFile
{
    format      ascii;
    class       surfaceScalarField;
    location    "1.325";
    object      phi;
}
// * * * * * * * * * * * * * * * * * * * * * * * * * * * * * * * * * * * * * //

dimensions      [1 0 -1 0 0 0 0];

internalField   nonuniform List<scalar> 
69079
(
-0.000155467
9.03234e-05
6.52868e-05
0.000127268
9.04692e-13
-0.000127268
-0.000133592
0.000133541
0.000128736
-1.46829e-06
-0.000132051
-1.53066e-06
-0.000132026
7.94716e-05
-0.000145604
6.59707e-05
-1.6216e-08
9.88597e-05
-9.43595e-05
0.000130025
-0.000130024
-3.68208e-10
0.000129367
6.58201e-07
-9.72585e-05
-5.83309e-05
-0.000119456
0.000130604
-8.66542e-06
-0.000125698
0.000126153
-5.27626e-07
-0.000128068
2.26665e-06
3.5111e-06
-0.000112319
0.000108808
0.000129394
-2.69621e-08
0.000128748
6.46048e-07
-0.000128308
0.00012823
-4.09276e-07
-0.000128109
-6.63828e-07
0.000129133
-0.000128426
-7.22478e-07
0.000128179
8.60581e-07
0.0001272
-0.000129655
2.42297e-06
-0.000139066
1.33437e-05
0.000125722
0.000146474
-9.61955e-05
-5.02008e-05
0.00012204
-1.49297e-05
-0.000107191
-0.000128749
-1.27468e-06
0.000128724
2.395e-08
2.94676e-07
-1.29039e-08
0.000103307
-9.70046e-05
0.000120736
-0.000125652
5.10154e-06
0.00012505
-0.000134267
8.6569e-06
0.000144952
-2.0354e-05
0.000127172
8.14057e-07
-1.31598e-06
-0.000128672
2.38281e-05
0.000104844
0.000125138
-0.000128255
2.95683e-06
-2.97989e-06
-6.67112e-06
0.00012096
-0.000114762
-1.13988e-05
-0.000127667
0.000104583
2.54955e-05
-0.000130099
-0.00013303
1.6584e-05
0.000126065
-0.00012774
1.28786e-06
-8.61883e-06
-0.000115043
0.000140121
-2.4638e-05
0.000124408
3.40526e-06
-4.10778e-06
-7.45111e-05
0.000142299
-6.77877e-05
0.000125705
-0.000126016
2.07448e-07
0.000144533
-1.89252e-05
0.000122721
2.17833e-05
0.000143755
-2.10127e-05
0.000120411
-3.76708e-06
-0.000116665
-0.000114912
0.000146251
-2.41123e-05
-0.000131058
0.000132245
-1.18122e-06
-0.000131759
5.69678e-05
7.52723e-05
0.000124946
-0.000125161
1.97156e-07
0.000143381
-1.84696e-05
0.000120589
8.12597e-08
-0.000120712
-7.23566e-05
-4.5621e-05
0.000118265
7.62885e-05
5.11724e-05
-0.000127461
0.000136921
-7.05436e-05
-6.64032e-05
-1.4387e-05
-0.000114285
5.00648e-05
-0.000124576
-0.00010722
0.000110731
0.000122695
3.17439e-06
-5.28291e-06
0.000147339
-0.000147294
-1.52087e-05
-0.000115622
-0.000122605
1.02006e-05
-4.9063e-05
0.000128536
0.000120871
2.24703e-05
0.000142421
-2.16143e-05
0.000124177
-1.4641e-05
-0.000108546
0.000128182
-0.000125893
-2.30851e-06
9.328e-05
5.33975e-05
0.000116598
-0.000119912
3.3231e-06
-2.81189e-06
0.000119412
-0.000123172
1.13344e-05
0.000111837
0.000123858
2.08541e-05
-2.41242e-06
0.000119604
-0.000142009
2.24167e-05
0.000102261
1.813e-05
0.000133269
-1.3627e-05
-7.90748e-05
-4.85342e-05
0.000127923
-0.000118343
0.000119593
-1.27623e-06
0.000118728
-0.000134494
1.57991e-05
0.00011975
-1.01968e-06
-7.95221e-05
-4.04389e-05
-6.33698e-06
-0.000102332
0.000108669
-7.06728e-05
0.000138937
-6.82643e-05
0.000146865
-4.23436e-05
-0.000128044
9.66455e-06
0.000122285
2.15158e-05
6.93591e-05
5.25892e-05
-0.000121948
-2.8702e-06
-0.000117245
-1.08043e-05
3.12985e-07
-0.000105998
0.000105685
0.000124136
-3.67733e-06
6.78907e-05
5.99309e-05
-0.000127822
5.42637e-05
-0.000124936
-0.000118151
9.30808e-07
0.000126953
-0.000126986
0.000129518
-8.71409e-06
2.08411e-05
-0.000135718
0.000114881
4.29479e-05
-0.000121709
-0.000122626
-1.02234e-05
0.00011645
-0.000135921
1.94914e-05
0.000119224
-2.76039e-06
7.23675e-06
0.000106991
-0.000115074
-5.54373e-06
0.000118015
-0.000104478
0.000120409
2.19798e-05
-2.1624e-05
-0.000104951
0.000105263
7.50907e-06
-0.000120995
0.000113486
-0.000138337
3.40108e-05
-7.92428e-06
0.000117348
-0.000113464
4.74206e-05
-0.000119337
-0.000109733
-3.39336e-06
0.000113231
0.000119306
-0.000122581
2.85893e-06
-0.000123584
0.000106557
1.70274e-05
-3.97085e-06
-0.000128084
0.000116056
1.72051e-05
-5.51245e-06
0.000121561
-0.000132881
0.000132744
-0.000112885
3.308e-06
-3.61028e-05
0.000112391
0.000148605
-8.85613e-05
-5.98228e-05
-0.000132498
5.28272e-05
7.96366e-05
0.000125406
-7.04791e-07
-0.000124698
0.00011445
-0.000133771
1.93537e-05
0.000118487
-4.01902e-06
0.000123213
-2.54547e-07
0.000111285
-0.000111036
0.000118186
7.2162e-06
7.79758e-05
-0.000123726
4.57499e-05
0.000115351
-0.000139142
2.3851e-05
0.000138086
-2.27398e-05
-1.61499e-06
0.000120534
-7.74477e-05
0.000146176
-6.87279e-05
-9.84922e-05
-2.14048e-05
0.000111195
-0.000132353
2.12065e-05
0.00011597
-4.71818e-06
0.000118796
-0.000127205
8.45905e-06
-0.000124269
2.57723e-05
-3.07754e-05
-0.000101716
0.000114051
-0.000137543
2.3517e-05
-2.03591e-05
-0.000120221
0.000113752
8.53561e-05
-9.16931e-05
-0.000103667
0.000110212
0.000134553
-0.000134574
0.000117963
2.26008e-07
-2.11332e-05
0.000120167
-0.000127412
7.50701e-06
-0.000122375
3.91995e-06
7.13128e-05
7.72868e-05
-0.000128981
2.04664e-05
0.000108514
0.000112101
-0.000136228
2.41489e-05
-0.000110223
0.000135641
-2.35013e-05
-0.000122056
-1.82794e-06
0.000104865
-4.78023e-05
-4.07654e-05
0.000118741
-1.88868e-05
0.000140911
0.000113938
2.41487e-05
-0.000110071
0.000109819
-2.35966e-05
0.000114767
-0.000114779
6.9694e-05
-0.000121472
5.17778e-05
0.00011089
-0.000135147
2.42825e-05
0.000134677
-2.37589e-05
-1.91906e-05
-0.000110468
0.000118674
8.72634e-06
-0.000126653
-2.17081e-05
-0.00011404
1.38908e-05
-0.000105971
9.52168e-05
-7.8603e-05
0.000126273
-4.75718e-05
-0.000114244
3.82155e-06
0.000110471
5.82454e-06
0.000118553
-0.000115595
0.000103355
0.000111794
0.000123671
-3.50008e-06
0.000109522
-0.000134114
2.46231e-05
-2.6359e-05
7.08403e-07
-0.000112623
0.000111915
0.000112981
6.75841e-06
-2.32454e-05
5.06401e-05
8.79049e-05
0.000110665
4.89442e-07
-0.000111155
1.14632e-06
0.000109519
8.42281e-06
0.000119766
-4.74372e-05
-6.04976e-05
0.000107935
-0.000143575
8.63857e-05
5.72143e-05
7.39959e-05
-0.000121433
3.73521e-07
0.000112494
-0.000112868
-0.000112533
0.000112907
0.000111182
-0.000110559
-0.000118999
0.000123752
-4.75273e-06
0.000103323
-0.000124484
2.11493e-05
0.000112256
-8.89153e-06
-1.01997e-05
-9.90038e-05
0.000109204
6.70149e-05
4.77592e-05
-0.000114774
0.000110639
2.50647e-05
-2.44724e-05
1.68857e-05
-0.000117955
0.00010107
-0.00011564
-6.21316e-06
0.000119898
3.60474e-06
0.000107659
-0.000133082
2.55191e-05
0.000132233
-2.45282e-05
7.52581e-05
-0.000120329
4.50712e-05
0.000113757
-0.000106248
0.00011733
-0.000120795
0.000113821
4.9371e-06
-5.28066e-07
0.000120105
3.33336e-05
-0.00011173
-0.00011717
-1.82897e-06
0.000123043
-4.19902e-06
-7.11025e-05
-4.32971e-05
0.000114369
0.000106319
-0.000131644
2.5363e-05
0.000128145
-1.65772e-05
-0.000130691
-2.74067e-05
0.00010013
-8.33089e-05
0.000109291
2.54204e-05
-2.47938e-05
-7.92075e-05
-5.32013e-05
0.000131745
0.000128131
-0.000126392
-1.73885e-06
-1.49606e-05
0.000127659
-0.000113056
0.000101234
-0.000122097
2.09282e-05
0.000111203
-9.98438e-06
0.00010583
-0.000106433
4.78799e-07
-4.67546e-06
-0.000118909
-0.000132033
2.02474e-05
0.000111786
-2.36864e-05
-0.000108347
-1.65879e-05
-0.000116319
-4.73986e-05
0.000116758
-0.000146111
7.8388e-05
6.77233e-05
-0.000122142
0.000105719
1.64221e-05
0.00010535
4.47026e-07
0.000114905
-0.000109124
-5.83393e-06
-0.000138639
0.000122026
-0.000118288
9.72409e-08
-0.000117453
0.000119372
-1.91913e-06
-7.14972e-05
-7.46141e-05
6.97841e-05
-0.000124885
5.51009e-05
-8.04201e-07
-0.000125122
-4.22466e-06
-0.000124756
0.000120286
-6.01691e-07
-0.000122811
5.3581e-06
0.000104261
-0.000130728
2.65109e-05
-2.80322e-05
0.000111788
3.28282e-06
9.91195e-05
-0.000119723
2.07536e-05
-0.000125439
2.62753e-06
0.000110153
-1.07799e-05
0.000109889
9.34943e-06
-2.31466e-05
0.000126521
-0.000121197
-5.07444e-06
-5.14133e-06
0.000116913
-0.000111594
0.00012522
-0.00012522
-0.000154266
7.09778e-05
8.31735e-05
-6.91587e-05
0.000124303
-5.49821e-05
-0.000112064
-4.02704e-06
0.000118075
-0.00012452
-2.76336e-06
-7.2954e-05
-4.51693e-05
0.000118202
6.89211e-05
4.26587e-05
-0.00011158
8.4336e-05
-9.45357e-05
3.97994e-06
0.000119604
-0.000123584
0.000105935
2.63377e-05
0.000102255
-0.000129348
2.71359e-05
-2.56726e-05
-0.000132025
0.000116689
-0.000118857
0.000118857
8.10026e-05
4.77979e-05
0.000128097
-2.57702e-05
-2.09817e-05
-0.00011766
0.000101476
7.4086e-05
-0.000121679
4.75931e-05
-4.0087e-06
-0.000131206
0.000139916
-1.18895e-06
0.000117449
-0.000116274
9.66704e-05
-0.000117771
2.11623e-05
0.000108881
-1.2212e-05
0.000126127
-0.000127546
-0.000107703
0.000111683
-7.65724e-05
-6.70009e-05
-7.16188e-05
0.000123503
-5.27482e-05
-0.000125552
2.88601e-06
0.000120988
-0.000125107
4.20941e-06
-6.45935e-05
0.000131608
0.00012277
1.22872e-06
0.000122389
4.77268e-07
-0.000148584
7.3323e-05
7.52866e-05
3.6296e-05
0.000106003
0.000122266
3.45732e-07
7.30081e-05
-0.00010646
3.35261e-05
0.000122782
4.56893e-06
0.000109235
-3.6278e-05
3.45059e-05
0.000100938
-0.000127498
2.66119e-05
0.000117224
0.000127076
-2.6092e-05
0.000130962
-2.15178e-05
-0.000108477
-0.00010862
-1.41358e-06
0.000110107
-0.000140341
8.15951e-05
5.87459e-05
0.000107674
1.08095e-05
-2.30498e-05
-4.30194e-05
0.000118278
0.000129815
-0.000129877
-0.000107381
0.00010787
0.000112572
-0.000111425
-7.29624e-05
0.00012311
-5.00957e-05
-2.09945e-06
-0.000121072
9.96214e-05
-0.000126442
2.68934e-05
-0.00011565
0.000118522
-2.87225e-06
0.000125988
-2.63323e-05
-0.000125571
0.000125701
0.000118992
3.30902e-06
2.85937e-06
-0.000114607
0.000111747
-0.000127484
0.000126607
-0.000102822
-8.73886e-06
0.000110681
-0.000120506
4.85578e-06
-0.000104638
-4.14605e-05
0.000100637
-0.000115515
0.000131387
-1.42217e-05
0.000121528
-3.94075e-07
-0.000118316
-2.18961e-06
0.00012182
-0.00012182
9.81982e-05
-0.000125336
2.72198e-05
0.000124984
-2.66735e-05
9.1972e-05
-0.000112485
2.05692e-05
0.000105682
-1.34472e-05
-7.05054e-05
-6.98356e-05
-0.000124473
4.70251e-05
-0.000116732
-1.58425e-06
6.577e-05
7.11817e-05
0.000121381
5.42417e-06
0.000106352
9.67017e-06
-2.29503e-05
-0.000117105
0.00010742
9.6858e-06
0.000130721
-0.000126133
-0.000102899
0.000114233
0.000105981
-0.000113562
7.68835e-06
0.000112919
-4.66258e-06
-0.000108257
9.68914e-05
-0.000124441
2.75321e-05
0.000123902
-2.70474e-05
-4.21178e-06
-0.00011793
-0.00011809
0.000122844
-4.71332e-06
1.11393e-06
-0.000115383
0.000148043
-2.70993e-05
-5.52683e-05
0.000123159
3.52823e-07
-0.000134294
2.19747e-05
-0.000111849
-1.25254e-05
0.000114323
-5.2293e-06
-0.000109094
0.000100459
2.7695e-05
0.000119604
-4.99102e-05
-2.69895e-05
-0.000121034
0.000109893
1.11412e-05
5.83076e-06
-0.000118691
-0.000154818
9.04051e-05
6.44131e-05
-0.000114568
3.79961e-06
0.000110768
-7.01705e-05
-8.46477e-05
4.2633e-06
0.000108708
-0.000112971
-0.000115199
5.33234e-06
0.000109867
-7.99851e-06
-0.000107201
-0.000119836
0.000111837
9.54828e-05
-0.00012315
2.7761e-05
-0.000115508
2.96241e-06
0.000112546
0.000115199
-4.93306e-06
-0.000110266
-3.92842e-06
0.00011462
-0.000110691
0.000111271
0.000122781
-2.722e-05
0.000116449
-5.04898e-06
-0.0001114
0.000119606
-7.29305e-07
-0.000127517
-1.29665e-05
-0.000119391
-5.13914e-06
0.000116191
-0.000111052
6.72081e-05
4.47195e-05
-0.000111928
-0.000118562
4.75778e-05
-6.05246e-05
-6.805e-05
-0.000134588
3.15198e-05
9.90328e-05
2.80767e-05
4.55645e-06
-0.000104125
-2.73413e-05
5.66722e-06
0.000107252
-0.000108437
8.05003e-06
0.000100387
9.40884e-05
-0.000122157
2.81591e-05
-5.9353e-06
0.000120768
0.000115315
-4.55954e-06
-0.000110756
-0.000118997
-6.13142e-06
0.000121736
-2.75288e-05
-7.22276e-05
0.000119594
-4.74144e-05
0.000128041
-1.14632e-05
-0.000116577
0.00013436
-2.04811e-05
-0.000121318
0.000118471
2.84194e-06
0.000121338
-0.000121009
-0.000124408
7.36739e-06
0.000117041
-2.10094e-06
0.000112277
-0.000110126
-6.56754e-05
0.000118265
8.68357e-05
-0.000107116
2.03243e-05
-1.57653e-05
0.00010279
1.02981e-05
0.000119458
1.2011e-06
0.000111218
-0.000112344
-1.11541e-05
9.93052e-05
-8.81511e-05
0.000135601
-8.01783e-05
-5.54229e-05
2.53737e-06
-0.00011498
0.000112443
2.46009e-06
-0.000119192
0.000118329
-0.000118329
-0.000111451
0.000112868
-1.41681e-06
0.000111546
-0.000114796
3.29647e-06
-0.000102989
0.000103697
-1.86152e-06
0.000113961
-0.000111916
-3.08446e-06
-0.000111708
0.000114715
5.83512e-05
6.96589e-05
-0.000128024
-1.27512e-06
0.000120647
-0.000116667
-1.49409e-06
0.000118162
-0.00012103
-1.26362e-07
0.000111008
-0.000114181
0.000105372
3.35654e-05
9.27843e-05
-0.000121173
2.84093e-05
-5.06444e-05
-5.66593e-05
0.000107304
9.76233e-05
2.83994e-05
-0.000134558
8.39135e-05
0.000115016
-4.09302e-05
-3.17257e-05
-2.76599e-05
-0.000141745
8.08867e-05
6.08582e-05
-6.6918e-05
0.000126728
-5.97176e-05
6.48987e-05
6.23807e-05
-0.000127279
-7.11494e-05
0.000121214
-0.000117131
0.000111374
5.75738e-06
-0.000118097
9.66004e-07
-0.00011362
5.09383e-07
0.000113156
5.40809e-06
0.000139299
-0.000108978
-3.09121e-06
0.000112069
-0.000101649
9.04952e-05
9.07013e-05
-0.000108242
0.000109716
-0.000119514
-4.28774e-06
0.000113104
-0.000108794
4.79643e-05
-0.000121256
-7.48073e-05
-6.69376e-05
1.28051e-06
0.000111873
-0.000113079
-0.000120878
-6.31405e-06
-0.000144179
8.36817e-05
-2.92377e-06
-0.000121485
0.000125459
-0.000125449
-0.000100387
0.000120854
-0.00011493
0.000113675
-2.39887e-06
0.000114321
-0.00011185
-2.45623e-05
-9.42948e-05
7.24122e-05
-0.000143004
-3.45057e-05
0.000115508
-0.000110721
-2.07364e-06
0.000112778
5.87249e-07
9.77476e-05
-8.57355e-05
-4.94341e-07
-0.000112421
0.000112887
9.63923e-05
2.86964e-05
0.000111357
6.08265e-07
-0.000112023
0.000114697
-6.18242e-07
-0.000114079
-8.04603e-07
0.000112202
0.00011097
-0.00011171
-2.80051e-05
-0.000112868
-2.64041e-06
-1.24343e-06
0.000112247
-0.000122886
0.000126723
-0.000112791
0.000113628
-8.37203e-07
-8.99079e-07
0.000111894
0.000110163
4.4565e-06
-0.000113138
3.47761e-07
-6.21414e-05
-4.87882e-05
0.000110333
-0.000135295
2.9297e-05
9.80948e-05
-8.4552e-05
-3.17608e-06
8.98691e-05
-0.000120579
3.08092e-05
0.000125416
-0.000120844
-4.55663e-06
-2.03482e-06
0.000122305
0.000118562
-2.86222e-05
4.24896e-05
-0.000115458
8.72261e-05
-0.000103402
1.61181e-05
-1.7279e-05
0.000104525
-0.000117415
0.000108154
9.26076e-06
0.000107148
-9.46684e-06
-0.000116925
0.00012133
-6.13992e-05
-4.01209e-05
9.29283e-05
-0.000116899
0.000112675
-3.33916e-06
-0.000111745
-7.25598e-05
-7.6264e-05
-9.8605e-05
1.10158e-06
9.88162e-05
-0.000113685
0.000110208
2.26955e-06
0.000111968
-0.000114239
-9.4928e-06
-0.000109304
0.000119146
1.81068e-06
0.000111959
-0.000113756
0.000136825
-6.68861e-05
-6.99387e-05
5.84754e-06
0.000108476
9.48105e-05
2.90552e-05
-0.000117091
5.06375e-06
0.00011213
-0.000115393
4.91218e-06
-2.83027e-05
8.90702e-05
-0.00011811
2.91728e-05
-3.29329e-05
8.61195e-05
-0.000102136
1.59669e-05
-0.00011152
0.000106553
-0.000109455
-5.11338e-06
-1.784e-05
0.000103889
4.89023e-06
5.15073e-05
8.40938e-05
0.000122592
-0.000120055
0.000115792
-1.0948e-06
-0.000120873
5.17925e-05
0.00011146
8.78749e-07
-0.000112238
-0.000110413
0.000130768
0.000106466
-8.95807e-05
1.08192e-06
-0.000108463
1.59722e-06
-0.00011248
0.000110666
-3.10409e-06
0.000121626
6.60489e-05
6.18114e-05
-0.00012786
7.7456e-05
6.70657e-05
-0.000144551
-0.000102045
-2.3887e-06
0.000104497
2.85043e-07
-0.00011294
0.000112721
7.48331e-06
0.000117737
-0.000117852
0.000113076
-0.000112824
0.000116436
-0.000118033
1.59713e-06
-1.71859e-08
0.000112979
-1.30683e-06
0.000113628
-0.00011234
0.000113928
-0.000114017
-0.000123095
-7.01044e-05
0.000124759
-5.57239e-05
-6.97899e-05
0.000126585
-5.7221e-05
-0.000138293
3.7906e-05
0.000112645
-0.000112154
1.1072e-06
-0.00011344
0.000112145
-1.29445e-05
0.000124511
-0.000111567
0.000127319
-7.95601e-05
9.34635e-05
2.94098e-05
-0.000110704
3.43897e-06
0.000107265
7.8162e-05
-0.000134119
5.57891e-05
0.000119485
5.86352e-06
-0.000116667
-0.000137456
7.9895e-05
5.75609e-05
-2.86135e-05
0.000110446
-0.000107587
-0.000116655
-1.30089e-06
-0.000111474
0.000111426
-6.79076e-08
-6.69689e-07
-0.000110831
-0.000110269
0.000101655
1.14608e-05
-0.000118782
0.000115353
3.49374e-06
-0.000113137
-5.53451e-06
8.74897e-05
-0.000118561
3.10923e-05
-0.000120655
-1.47375e-07
0.000116517
-2.90376e-05
-0.00012926
8.37305e-05
-0.000120836
0.000112878
7.98033e-06
-0.000117315
-3.58276e-06
-0.000117623
0.000113322
4.18454e-06
-0.000113474
-4.17557e-06
-0.000117955
-0.000113328
0.000114449
-1.19676e-06
-0.000117221
8.82283e-06
0.000108399
0.000114496
-0.000112186
-9.55124e-05
-1.82651e-07
-0.000117067
4.44362e-06
0.000112623
-0.000110073
-3.00105e-06
0.000113074
9.09074e-05
-2.31579e-06
0.000110888
-0.000108632
-0.000112971
-2.44721e-06
0.000115418
-0.000114542
2.40857e-06
0.000112134
-6.53246e-05
-8.91506e-05
4.00307e-06
0.000119823
-5.0039e-05
0.000116997
4.52212e-06
0.000110137
1.71305e-06
-0.00011185
9.01604e-07
0.00011301
-0.000113911
-0.000109325
0.000118329
-4.94079e-05
0.000116461
-5.51266e-06
-0.000110949
-0.000115663
1.70017e-06
0.000113963
9.21627e-05
2.96655e-05
-0.000114003
5.66722e-07
0.000113436
0.000108862
1.88049e-06
-0.000110743
-2.89377e-05
0.000118739
-1.86876e-06
-0.000112867
-4.56341e-07
0.00011337
6.99387e-06
1.56026e-06
-0.000114148
-0.000111112
0.000112908
1.56922e-06
-0.000112474
-0.000138376
0.000108472
0.000115431
-3.77385e-06
-0.000111657
8.64421e-05
-0.000116116
2.97956e-05
-3.3125e-05
0.000122872
-0.000122845
-9.5815e-05
0.000107562
2.17802e-06
-0.000114066
2.17673e-06
0.000111889
-6.81226e-05
-7.60567e-05
-0.000109669
9.58835e-05
0.00011471
-0.000114001
-7.08403e-07
-0.000113012
4.29241e-06
-0.000119163
4.65276e-05
-0.000112815
1.0102e-06
-0.000109856
0.000108593
-1.60399e-06
0.000109692
-0.000108017
-0.000115869
4.28906e-06
0.00011158
0.00012702
-0.000138598
0.000121098
-0.000115251
0.00011149
-0.000116539
-9.31477e-05
9.18502e-05
2.04268e-07
0.000113759
-1.7676e-06
-0.000112043
0.000113035
-0.000118174
0.000115096
0.000118387
-0.000118452
-0.000119211
0.000115124
3.98476e-06
-0.000113239
-5.98432e-06
-0.000121538
0.000115306
6.29167e-06
-0.000115753
-5.66615e-06
-0.000121493
0.000115211
6.27486e-06
-0.000115917
-5.68223e-06
-0.000121762
0.000115415
6.31519e-06
-0.000116051
-5.7059e-06
0.000140586
-9.38782e-05
-1.08292e-06
-0.000110109
0.000111164
-0.000121672
0.000115528
6.25311e-06
-0.000128491
7.09317e-05
5.75631e-05
-0.000115996
-5.64115e-06
-0.000121751
0.000115535
6.15592e-06
0.000115998
0.000121167
-0.000108429
-1.30287e-05
8.90596e-05
1.38314e-05
-0.000102743
-0.000116223
-5.58829e-06
0.000116822
-0.000121841
0.000115738
6.1011e-06
0.000119359
5.15202e-06
-0.000116293
-5.48445e-06
-0.000135919
3.09688e-05
-0.000110915
1.17669e-06
0.000109591
-0.00012167
0.000115772
5.96041e-06
-6.78779e-05
-5.24604e-05
0.000120338
-0.000116339
-5.34447e-06
0.000100195
-0.00010257
2.53146e-06
4.30194e-06
-0.000110859
0.000106557
-0.000121751
0.00011586
5.82809e-06
-0.000112301
-5.79602e-06
-0.000116524
-5.25553e-06
1.05616e-06
-0.000113357
-0.000101138
-9.18562e-06
5.3478e-05
-0.000121356
-0.000115288
-5.25572e-06
0.00010045
-1.14451e-05
-0.000110987
0.000116114
-5.12626e-06
-0.00011328
2.29265e-06
-0.000121739
0.000116031
5.72569e-06
-0.00011656
-5.10682e-06
-4.7785e-06
0.000112404
-0.000107626
4.99776e-07
0.000110764
-0.000111091
-0.000121028
0.000115502
5.5737e-06
-0.000116658
-4.36853e-06
0.000115972
-0.000118446
2.7133e-06
-2.62753e-06
0.000124447
-0.000123095
-0.000121523
0.000116223
5.2892e-06
8.71399e-05
-0.000117859
3.0673e-05
-0.000116818
-4.74309e-06
3.14273e-06
-0.000110743
0.0001076
9.80267e-05
1.42695e-05
-0.000121566
0.000116446
5.13583e-06
0.000114211
-8.03297e-06
-0.000106376
-0.00011692
-4.54562e-06
0.00011559
-2.84792e-05
-2.24863e-05
2.67905e-06
-0.000110717
0.000108038
0.000112546
-0.000115611
3.06545e-06
-1.28801e-08
0.000112559
-0.000121197
0.000116338
4.90077e-06
-0.000116922
-4.31921e-06
-0.000141989
0.000123566
2.02254e-05
3.81249e-06
-0.00011091
0.000107098
4.59818e-06
-0.000111786
0.000107188
-0.00012086
0.000115975
4.74671e-06
2.47734e-06
-0.000112898
0.000110482
-0.000117272
-3.56968e-06
-7.22189e-06
0.000115902
-0.00011632
-3.51625e-06
-0.000120693
0.000116204
4.43758e-06
-0.000117377
-3.22997e-06
-0.000114066
0.000114735
-6.69763e-07
-0.000113847
0.000115998
-2.15097e-06
-4.37922e-07
5.63302e-05
-0.000122811
-3.22001e-07
-0.000113525
-0.000110446
0.000111436
0.000115981
-0.000117145
1.34799e-06
-6.24427e-05
-6.31859e-05
0.000114285
-0.000121028
0.000116965
4.05279e-06
7.08403e-07
0.000111541
-0.00011225
-0.000117426
-3.45708e-06
-3.73521e-07
-0.00011185
0.000112224
-4.43074e-06
0.000111103
-0.000106673
2.10054e-06
-0.000112749
-0.000111044
0.000112966
-0.000120392
0.000116874
3.73373e-06
-0.000117252
-3.14276e-06
-0.000112845
-1.09757e-07
0.000113021
-0.000110692
-2.23289e-06
0.000112775
-0.000119904
0.000116237
3.47011e-06
-0.000111999
-0.000117696
-2.35885e-06
-0.000118149
0.000120068
-1.91913e-06
-1.27382e-06
-0.000119747
-0.000120128
0.000116921
3.05467e-06
-0.00011776
-2.50535e-06
-0.000114877
2.25401e-06
-4.08961e-06
-0.000120129
0.000117258
2.85638e-06
-0.000117741
-2.25426e-06
-4.81839e-05
-6.66118e-05
6.44003e-08
0.000112147
-0.000112211
-0.000113061
0.000113125
0.000111941
-0.000110859
-0.000119568
0.000117261
2.57419e-06
-0.000112302
-3.60919e-07
0.000112613
-0.000117579
-1.95762e-06
1.52002e-06
0.00011614
-0.000118566
-0.000111731
9.87791e-05
-0.000114549
1.08076e-06
0.000113569
-8.34196e-06
-0.000119416
0.000117184
2.24109e-06
-0.000117898
-1.67494e-06
0.000114011
2.10593e-06
-0.000119335
0.000117263
1.96371e-06
-0.000117948
-1.3914e-06
4.68575e-07
-0.000118853
0.00010827
-0.000119596
0.0001174
2.23902e-06
-7.33297e-05
-3.9252e-05
0.000130473
-7.25027e-06
8.48819e-05
-0.000115111
3.02984e-05
5.8089e-06
-0.00012303
0.00010477
-2.13887e-06
-0.000101545
-3.28218e-05
-0.000112483
6.66807e-06
0.000106537
-4.89656e-06
-9.22565e-05
-6.55665e-05
-6.46526e-05
0.000129891
-0.000118776
0.000114995
3.80438e-06
-0.000116038
-3.44035e-06
-5.52345e-06
8.79393e-05
3.07243e-05
0.000112301
-0.000111593
-0.000119339
0.000116043
3.16653e-06
0.000111928
9.45267e-05
3.07833e-06
-9.7605e-05
-4.01167e-06
-3.00307e-05
0.000102384
-7.85683e-06
0.000120906
-3.53637e-06
3.45624e-06
-1.6606e-06
0.000114232
-4.98277e-06
-0.000109034
0.00011802
-1.58425e-06
-1.49426e-06
0.00011976
6.2573e-05
7.49067e-05
-0.000132241
7.80565e-05
5.43737e-05
-8.55107e-05
-5.27824e-05
-1.45673e-05
0.00011717
3.62231e-07
-0.000113656
-0.000119836
-0.000131538
7.10312e-05
-0.000110047
0.000110949
0.000111493
-0.000110051
-1.36093e-06
-0.000111468
-9.95066e-07
0.000112586
0.000128421
-5.09776e-05
-0.000111752
-1.99818e-07
0.000112005
6.92478e-06
-0.000113971
0.000106964
-0.000112675
1.2236e-06
-0.000119547
4.72027e-05
0.000121934
-9.65596e-05
-3.13672e-06
0.000112635
-0.000109317
-2.59309e-06
-0.000111017
0.000113505
7.24632e-05
-0.0001237
5.12368e-05
0.000108592
-0.00011337
0.000115959
-0.000102615
-0.000151147
8.93489e-05
6.17985e-05
-0.000112186
-5.32836e-07
0.00011267
2.04837e-07
-0.000111424
-0.000132888
6.48966e-05
9.82488e-05
4.59359e-06
-0.00010268
0.000106511
-8.12114e-06
-5.70586e-06
2.23179e-06
-0.000120686
8.23035e-06
1.57037e-06
-0.000113077
0.000114288
-0.00011453
6.29973e-08
0.000111276
-0.000109994
3.32787e-05
-0.000102084
0.000112923
-1.70675e-06
-0.000115171
0.000117613
-2.41136e-06
0.000120224
-0.000122994
-0.000116938
-1.0948e-06
4.56158e-07
-0.000112516
-6.53727e-05
0.00010113
-3.47234e-05
-6.38581e-07
-0.000112541
0.000113036
9.25432e-05
1.31763e-05
-0.000105719
0.000112212
-0.000110417
8.23789e-05
-0.000114185
3.19274e-05
0.000103646
-1.11026e-05
-7.78264e-07
-0.000110539
0.000109252
-0.000109562
0.000108635
-0.000111307
0.000111832
-2.93347e-05
-4.13936e-06
-0.000104934
0.000109363
-0.000113739
0.000109453
-6.69763e-05
0.000130733
-6.37562e-05
-0.000120451
0.000116994
3.48077e-06
-4.88437e-06
0.000109602
-0.00011082
-6.86378e-05
-6.88181e-05
0.000106296
-0.000110162
-4.24957e-06
0.000111707
0.000117588
-8.33471e-05
-6.8381e-05
0.00012431
-5.60118e-05
0.000112134
-0.000118215
1.20216e-06
0.000126613
-7.46535e-06
-9.95589e-05
3.43685e-05
-1.29184e-06
0.000101542
4.76562e-07
0.000117852
-0.000121433
5.6801e-06
0.000114465
-0.000120145
-0.000119754
0.000117175
2.57424e-06
-3.9446e-06
-0.000116893
3.70924e-06
-3.50574e-06
0.000108378
-0.000104944
-0.000116899
9.61831e-05
1.49829e-05
-0.000119604
0.000117287
2.21811e-06
-0.000135649
2.84288e-05
0.000107777
-0.000111321
-3.61411e-06
-2.23989e-05
0.000113744
-1.95018e-06
-1.31747e-06
-0.000111823
0.000113078
0.000117427
-5.02193e-05
-0.000114525
1.08285e-06
-0.000108871
0.00010685
0.000108219
-2.5143e-06
0.000111996
6.50952e-06
-0.000115618
0.000110027
-0.00011889
0.00011774
1.34884e-06
-0.000109725
7.47043e-07
0.00010948
-2.66747e-06
0.000125413
-8.27543e-05
-0.000109725
-5.15202e-06
0.000110294
-0.000109331
0.000113141
-1.38673e-06
0.000117453
-2.13809e-06
8.01638e-05
-0.000110785
3.07194e-05
5.82702e-06
0.000107756
-0.000114147
-0.000111067
0.000111717
0.000128168
-0.000119852
0.000110836
-3.0626e-05
4.67215e-06
-0.000114291
0.000109266
-5.81409e-06
0.000115295
-0.000109867
7.6449e-06
0.000106105
-0.000113132
-0.000106899
0.000115308
0.000140779
-0.000111451
-2.93279e-05
4.46769e-06
-0.000108907
0.000104382
-0.000133227
0.000142575
-6.72884e-07
0.000108517
-0.000104131
5.04254e-05
9.03536e-05
0.00011466
-9.25699e-07
4.89296e-06
-0.000114518
0.000109119
5.5274e-06
-0.000114775
0.0001098
9.41532e-06
0.000104367
-0.000113782
1.0304e-06
0.000111837
-0.000111235
-0.000119797
0.000105656
-0.000107361
0.000115506
-1.01598e-06
2.14492e-06
0.000109538
-0.000111637
0.000110364
-0.000136921
0.000110749
-0.000118368
1.46833e-06
5.26316e-06
0.000116461
-2.70481e-07
6.6655e-07
-0.000110956
0.000108378
-0.000110716
-3.01354e-06
0.000106442
-0.000109792
-0.000111915
0.000106685
8.58475e-05
3.07238e-05
-0.000114916
0.000114156
7.59923e-07
0.00011763
-0.000117293
-3.38267e-07
0.000117578
-1.47932e-07
-3.01951e-05
0.000110661
2.55553e-06
0.000116967
-0.000116968
5.37697e-08
-0.000116961
0.000117473
-6.99381e-07
0.000117593
-4.06617e-07
1.02139e-05
0.000107767
-0.000117981
-9.84551e-05
0.000108669
1.18754e-05
-0.000110331
-0.000108721
0.000104058
-0.000117342
2.75827e-07
-4.21051e-06
8.90527e-05
-0.000102796
1.3743e-05
-2.80711e-07
0.000116438
0.000107734
-0.000109711
0.000113782
9.41145e-05
-5.06186e-06
-0.000116006
-7.92783e-05
0.000101116
-2.2101e-05
0.000120744
-9.46969e-06
0.000111915
-0.000102499
7.88069e-05
-0.000109336
3.05947e-05
0.000109539
-3.06856e-05
9.35527e-05
-0.00010211
0.000118029
-6.34376e-06
-1.77276e-06
-0.000108028
0.000114254
-6.14266e-06
-0.00011208
0.000110193
-0.000113167
5.38965e-06
-0.000112772
-0.0001164
2.97534e-06
-3.40514e-06
0.000111951
-0.000118004
0.000118444
4.9073e-06
0.000104753
-0.000109661
0.000109274
2.01081e-06
-0.000113219
-0.000110389
-7.25004e-06
-3.4143e-06
-0.000105198
-0.000117481
3.14364e-06
7.08403e-07
0.000110884
-0.000111593
-0.000116091
8.76392e-08
0.000119695
-0.000119694
-1.1655e-07
-6.91401e-05
-8.20073e-05
-0.000115622
2.48254e-06
-0.000118888
-4.27836e-06
-5.65586e-05
-7.54285e-05
5.55082e-06
-0.000120901
-0.000105649
-0.000121736
-1.97476e-06
0.000102146
-0.00010607
2.95948e-06
-0.000109876
-2.32192e-06
0.000110704
0.000110844
2.83089e-06
-0.000112209
-0.000119544
0.000119638
-9.37267e-05
9.33947e-05
-6.73999e-07
1.36356e-05
-9.31416e-05
-0.000112374
7.19492e-06
-0.000118328
1.80961e-06
-0.000118247
1.84239e-06
-0.000118093
1.89054e-06
-0.000118211
1.70485e-06
-2.47295e-06
-0.000118484
1.37817e-06
-0.000120777
5.85354e-05
-2.54778e-06
-0.000118147
1.91404e-06
-2.35977e-06
0.000113067
-2.55654e-06
0.000112714
-0.000117001
4.26938e-06
-0.000118253
1.54815e-06
-2.58666e-06
-0.000139787
7.82978e-05
6.14894e-05
-0.000117883
1.85424e-06
-2.25303e-06
-2.56752e-06
-0.000112314
0.000115444
-3.12985e-06
-0.0001182
1.35116e-06
0.000114181
-0.00012279
8.46199e-06
-0.000117809
1.84237e-06
-2.51049e-06
-1.21798e-06
-0.000117767
1.78343e-06
0.000117158
-0.000113857
-3.13909e-06
-0.000118028
1.20529e-06
-2.46769e-06
-4.57242e-06
-0.0001174
1.66368e-06
-1.7882e-06
-0.000117299
-8.50083e-07
-0.000118052
9.93473e-07
-2.35097e-06
-0.00012634
5.93642e-05
0.000105372
-0.000110305
7.59623e-05
-0.000108071
3.20778e-05
-1.65585e-06
2.42145e-06
0.000114697
-2.20249e-06
-0.000112778
-3.60641e-07
-0.000117944
8.0559e-07
0.00011144
-0.000109617
2.94953e-06
-0.000112675
3.22001e-06
-1.1592e-06
-1.41983e-06
-3.65399e-05
3.44512e-06
0.000110346
-0.000113595
-0.000117612
4.93152e-07
1.70017e-06
-0.000108839
-9.07652e-07
0.000109901
-3.27135e-07
-0.000117295
1.48988e-07
2.90856e-08
0.000131685
-0.000117295
-1.40842e-07
-5.08149e-07
-0.000117341
-3.5704e-07
1.32665e-06
-0.000115328
9.68713e-06
-0.000105894
-2.83333e-07
5.4869e-06
-0.000110949
0.000105462
-0.000117023
-7.38395e-07
0.000122955
-2.04769e-06
-0.000105333
0.00011082
-0.00011404
-8.75843e-07
8.93865e-07
-1.67166e-06
-0.000111296
0.000113183
-0.00011435
-1.55423e-06
0.000117347
-0.000116483
-1.04398e-06
4.48749e-07
-0.000116363
-1.31545e-06
9.5457e-05
1.48332e-05
7.1538e-07
-0.00010637
-1.9592e-06
0.000104428
-0.00011639
-1.55923e-06
0.000113435
0.000114951
-8.23875e-07
-2.23354e-05
9.95461e-07
-1.19217e-06
-0.000117231
-0.000115275
0.00011515
-2.44556e-06
-0.000115987
-1.87411e-06
-0.00011618
0.000117576
-1.24878e-06
-0.000116965
8.2387e-07
1.50595e-05
-0.000105595
9.06899e-05
1.32409e-06
-0.000115607
-1.46774e-06
1.64672e-06
-5.43776e-05
-7.50632e-05
0.000130019
-2.08967e-06
-0.000105776
0.000113597
0.00010696
-0.000109923
3.28157e-06
-0.000117196
2.57601e-07
0.000110004
-0.00010708
-5.02322e-06
0.000111786
-0.000106763
1.61688e-06
-0.000106552
-2.33406e-06
0.000116207
2.09013e-06
0.000107636
-0.000112827
-7.0544e-05
0.000136593
-0.00010655
-0.000135885
0.000134061
-2.04064e-06
4.17314e-06
0.000109583
4.94342e-06
0.000111159
-0.000116137
4.40495e-06
0.000111649
-0.000115838