/*--------------------------------*- C++ -*----------------------------------*\
  =========                 |
  \\      /  F ield         | OpenFOAM: The Open Source CFD Toolbox
   \\    /   O peration     | Website:  https://openfoam.org
    \\  /    A nd           | Version:  12
     \\/     M anipulation  |
\*---------------------------------------------------------------------------*/
FoamFile
{
    format      ascii;
    class       surfaceScalarField;
    location    "1.9";
    object      phi;
}
// * * * * * * * * * * * * * * * * * * * * * * * * * * * * * * * * * * * * * //

dimensions      [1 0 -1 0 0 0 0];

internalField   nonuniform List<scalar> 
19404
(
-0.00013091
-4.56448e-08
-0.000130768
-6.91295e-08
-0.000130569
5.68658e-08
-0.000130411
1.47261e-07
-0.000130446
1.77945e-07
-0.000130919
1.16998e-07
-0.00013128
6.19271e-08
-0.000131466
2.21536e-08
-0.000131547
-2.04059e-09
-0.00013152
-8.5916e-08
-0.00013133
3.82508e-08
-0.000130808
2.44394e-07
-0.000130485
3.13048e-07
-0.000130408
2.89393e-07
-0.000130845
9.97886e-08
-0.000131517
-6.39154e-08
-0.000131876
-6.54312e-08
-0.000132047
-5.64537e-08
-0.000132088
-1.51269e-07
-0.000131986
-2.28839e-08
-0.000131563
2.69099e-07
-0.000131111
3.8519e-07
-0.000130973
4.08833e-07
-0.000131146
2.89159e-07
-0.000131713
9.75266e-08
-0.000132123
-5.805e-08
-0.000132361
-1.03776e-07
-0.000132459
-1.79104e-07
-0.000132465
-2.29228e-07
-0.000132313
3.37797e-08
-0.00013214
1.93794e-07
-0.000132111
2.71518e-07
-0.000132282
4.00288e-07
-0.000132468
4.02083e-07
-0.000132585
2.71238e-07
-0.000132619
9.91626e-08
-0.000132605
-5.54328e-08
-0.000132573
-1.58825e-07
-0.000132517
-2.41189e-07
-0.000132615
-1.10677e-07
-0.000133002
3.21818e-08
-0.000133533
2.38134e-07
-0.000133784
3.12924e-07
-0.000133845
3.92933e-07
-0.000133657
3.20387e-07
-0.000133045
2.1488e-07
-0.000132819
1.13058e-07
-0.000132775
-6.76349e-08
-0.000132828
-1.41948e-07
-0.000133349
-1.11183e-07
-0.000134359
6.21266e-08
-0.00013494
1.74736e-07
-0.000135125
2.23909e-07
-0.000135117
2.37907e-07
-0.00013441
2.30037e-07
-0.00013347
2.27853e-07
-0.000133285
1.30523e-07
-0.00013327
-6.76667e-09
-0.000133532
-7.36902e-08
-0.00013474
-2.17963e-08
-0.000135864
1.26718e-07
-0.000136256
1.33084e-07
-0.00013636
1.74211e-07
-0.000136019
1.54499e-07
-0.000134527
1.95787e-07
-0.000133896
1.70164e-07
-0.000133852
6.63314e-08
-0.000133983
-1.57375e-08
-0.000135087
-1.90692e-08
-0.00013668
8.93953e-08
-0.000137377
1.47531e-07
-0.000137579
1.78697e-07
-0.000137456
1.31885e-07
-0.000135742
1.75726e-07
-0.000134392
1.80982e-07
-0.000134252
6.39247e-08
-0.000134372
-4.58475e-08
-0.000135458
-6.53571e-08
-0.000137539
8.07624e-08
-0.000138596
1.32575e-07
-0.000138924
1.39278e-07
-0.000138981
1.47973e-07
-0.000137516
1.27757e-07
-0.000134741
1.50789e-07
-0.000134056
6.30295e-10
-0.000134171
-1.07925e-07
-0.000135553
-2.23759e-07
-0.000138402
-7.2346e-08
-0.000139738
4.82218e-08
-0.000140158
1.76619e-07
-0.000140326
2.31014e-07
-0.000139384
1.09228e-07
-0.000135084
6.09781e-08
-0.000132209
1.13804e-08
-0.000132352
2.41009e-07
-0.000135217
-4.12687e-07
-0.000135739
-2.59137e-06
-0.000125479
-9.13884e-06
7.64981e-06
-0.000131327
-4.64187e-08
-0.000131111
1.44267e-08
-0.000130913
1.50585e-07
-0.000130844
2.50942e-07
-0.000131139
2.87166e-07
-0.000131592
1.96138e-07
-0.000131791
8.71852e-08
-0.000131873
7.20843e-08
-0.000131887
-8.40306e-09
-0.000131795
-4.94586e-08
-0.000131489
2.52391e-07
-0.000131196
3.80128e-07
-0.000131096
4.78402e-07
-0.000131267
3.63873e-07
-0.000131697
1.66091e-07
-0.00013208
-6.25804e-08
-0.000132268
-2.51591e-08
-0.000132324
-1.18011e-07
-0.000132252
-1.53001e-07
-0.000131853
2.09766e-07
-0.000131508
4.67654e-07
-0.000131454
5.07161e-07
-0.000131722
6.04231e-07
-0.000132182
4.00515e-07
-0.000132496
1.54875e-07
-0.000132718
-4.24318e-08
-0.000132783
-1.03646e-07
-0.000132753
-2.4328e-07
-0.000132494
-1.8163e-07
-0.00013217
1.69488e-07
-0.000132093
3.50481e-07
-0.000132404
4.54591e-07
-0.000132946
6.98618e-07
-0.000133274
5.58317e-07
-0.00013336
3.67561e-07
-0.000133349
1.54601e-07
-0.000133229
-2.71697e-08
-0.000132894
-1.98156e-07
-0.000132672
-2.38626e-07
-0.000132637
-4.52545e-08
-0.000133033
1.35217e-07
-0.000133775
4.13299e-07
-0.000134193
5.84485e-07
-0.000134323
6.29351e-07
-0.000134306
4.73695e-07
-0.000133944
3.12962e-07
-0.000133382
1.19049e-07
-0.000133124
-6.96633e-08
-0.000133073
-1.25281e-07
-0.000133398
-7.94364e-08
-0.000134472
1.48925e-07
-0.000135178
3.60086e-07
-0.000135419
4.31548e-07
-0.000135442
4.21469e-07
-0.00013506
3.94497e-07
-0.000134106
3.07246e-07
-0.000133671
1.91011e-07
-0.000133591
3.11838e-08
-0.000133726
-3.34246e-08
-0.000134865
2.17633e-08
-0.000136058
2.27564e-07
-0.000136509
2.95917e-07
-0.000136605
3.377e-07
-0.000136368
3.05733e-07
-0.000135056
3.28524e-07
-0.000134255
2.3445e-07
-0.000134109
1.26329e-07
-0.000134179
4.698e-08
-0.00013511
1.42544e-08
-0.000136792
1.62117e-07
-0.000137548
2.74726e-07
-0.000137767
3.41034e-07
-0.000137722
2.92694e-07
-0.000136304
2.79409e-07
-0.000134791
2.24641e-07
-0.000134445
8.97569e-08
-0.000134519
6.31279e-09
-0.000135342
-7.36246e-08
-0.000137427
8.83697e-08
-0.000138531
2.40597e-07
-0.000138912
3.48468e-07
-0.00013901
3.47067e-07
-0.000137899
2.59543e-07
-0.000135154
1.81368e-07
-0.000134163
-3.27538e-08
-0.000134235
-1.86097e-07
-0.000134918
-3.77415e-07
-0.000137317
-3.68548e-07
-0.000138807
-5.84492e-08
-0.000139326
1.83957e-07
-0.00013949
1.70399e-07
-0.000138765
-2.24743e-08
-0.000134794
-3.49734e-07
-0.00013098
-5.74494e-07
-0.000129672
-7.08415e-07
-0.000129853
-1.71402e-06
-0.00013143
-4.95932e-06
-0.000130958
-8.56137e-06
9.96166e-06
-0.000131098
-1.21326e-08
-0.00013073
2.24799e-07
-0.000130632
2.33575e-07
-0.000130949
3.08856e-07
-0.000131515
3.46067e-07
-0.000131734
2.7157e-07
-0.000131818
1.4155e-07
-0.000131795
6.16459e-08
-0.000131655
1.57669e-08
-0.000131236
2.06483e-07
-0.000130961
3.44336e-07
-0.00013099
3.87948e-07
-0.000131495
4.32648e-07
-0.000131929
4.76145e-07
-0.000132019
2.76189e-07
-0.000132124
7.92036e-08
-0.000132213
-6.94291e-08
-0.00013213
-1.28076e-07
-0.000131496
1.94523e-07
-0.000131047
3.46032e-07
-0.000130973
3.90964e-07
-0.000131489
5.00769e-07
-0.0001325
5.38559e-07
-0.000132817
5.57722e-07
-0.000132847
3.45294e-07
-0.000132822
1.00922e-07
-0.000132776
-8.73768e-08
-0.000132442
-1.76031e-07
-0.00013157
1.43828e-07
-0.000131265
3.08837e-07
-0.000131346
3.38735e-07
-0.000132311
4.92245e-07
-0.000133407
6.40496e-07
-0.000133734
6.16227e-07
-0.000133757
4.83736e-07
-0.000133731
2.75643e-07
-0.000133428
3.24404e-08
-0.000132619
-9.36028e-08
-0.000132102
3.03735e-08
-0.00013197
2.17086e-07
-0.000132362
2.70038e-07
-0.000133526
5.19826e-07
-0.000134266
6.56637e-07
-0.000134497
6.05258e-07
-0.000134522
4.88449e-07
-0.000134402
3.53961e-07
-0.000133539
1.62471e-07
-0.000132971
2.08273e-08
-0.000132796
6.30842e-08
-0.000132907
1.02756e-07
-0.000133945
2.56715e-07
-0.000134908
5.17512e-07
-0.000135286
5.89833e-07
-0.000135359
5.07812e-07
-0.00013526
4.19799e-07
-0.000134363
2.92726e-07
-0.000133616
2.0044e-07
-0.000133432
1.11293e-07
-0.000133478
9.25183e-08
-0.000134377
9.87269e-08
-0.000135682
3.47421e-07
-0.000136226
4.91593e-07
-0.000136376
5.11846e-07
-0.000136301
4.27993e-07
-0.000135229
3.46559e-07
-0.000134191
2.59844e-07
-0.000133934
1.62535e-07
-0.000133947
1.01797e-07
-0.000134567
4.91475e-08
-0.000136261
2.03784e-07
-0.000137176
4.3686e-07
-0.00013742
4.90309e-07
-0.000137457
4.46572e-07
-0.000136477
3.68783e-07
-0.00013473
2.37193e-07
-0.000134183
7.31326e-08
-0.000134177
3.31626e-08
-0.000134451
-7.69246e-08
-0.000136259
-7.1328e-09
-0.000137809
3.33873e-07
-0.000138292
5.00902e-07
-0.000138394
4.58087e-07
-0.00013778
3.49775e-07
-0.000135071
2.04525e-07
-0.000133664
-1.54854e-07
-0.000133534
-3.24152e-07
-0.000133711
-4.98917e-07
-0.000135306
-6.65522e-07
-0.000137379
-3.58539e-07
-0.000138202
-2.96438e-08
-0.000138405
5.58519e-08
-0.000138148
-1.12954e-07
-0.000134701
-4.59613e-07
-0.000131156
-1.12258e-06
-0.000129846
-2.00778e-06
-0.000130095
-3.22447e-06
-0.000131482
-5.90437e-06
-0.000132565
-7.13539e-06
1.10343e-05
-0.000130898
4.64443e-08
-0.00013052
3.57331e-07
-0.000130482
3.11076e-07
-0.000131245
3.3961e-07
-0.000131955
4.18618e-07
-0.000132078
3.55925e-07
-0.000132048
2.44773e-07
-0.000131906
1.2525e-07
-0.000131292
1.39761e-07
-0.000130685
2.57482e-07
-0.000130515
2.9636e-07
-0.000130692
2.6213e-07
-0.000131933
4.00269e-07
-0.000132547
5.50792e-07
-0.000132577
5.29596e-07
-0.000132496
2.85412e-07
-0.000132373
9.0656e-08
-0.000131557
1.35537e-07
-0.000130711
3.36979e-07
-0.000130461
3.44759e-07
-0.000130453
2.76009e-07
-0.0001314
2.58277e-07
-0.000132949
4.93976e-07
-0.000133413
5.74633e-07
-0.000133369
5.2901e-07
-0.000133316
3.42083e-07
-0.000133061
1.02846e-07
-0.000131696
2.18308e-07
-0.000130772
4.53956e-07
-0.000130605
4.17654e-07
-0.000130678
3.08149e-07
-0.000132035
3.06411e-07
-0.000133545
5.3147e-07
-0.000134052
5.948e-07
-0.000134093
4.99226e-07
-0.000134064
3.37744e-07
-0.000133754
1.16374e-07
-0.000132213
2.29749e-07
-0.000131352
4.67123e-07
-0.000131229
4.66481e-07
-0.000131522
3.77077e-07
-0.000133125
4.299e-07
-0.00013425
6.23972e-07
-0.000134543
5.99371e-07
-0.000134596
4.76321e-07
-0.000134547
3.32552e-07
-0.00013378
1.89695e-07
-0.000132619
2.15776e-07
-0.000132244
3.48402e-07
-0.00013225
3.36935e-07
-0.000133164
3.55998e-07
-0.000134574
5.37783e-07
-0.000135083
6.31279e-07
-0.000135203
5.66276e-07
-0.000135187
4.49421e-07
-0.000134468
3.30146e-07
-0.000133428
2.49125e-07
-0.000133052
2.25221e-07
-0.000133004
2.29441e-07
-0.000133523
2.2174e-07
-0.000135013
3.99261e-07
-0.000135745
5.93083e-07
-0.000135944
6.35853e-07
-0.000135969
5.48247e-07
-0.000135275
4.36123e-07
-0.000133965
3.03188e-07
-0.000133473
1.7132e-07
-0.0001334
1.33428e-07
-0.000133674
1.02729e-07
-0.000135275
1.80632e-07
-0.000136459
4.95627e-07
-0.000136789
6.27366e-07
-0.000136873
5.89423e-07
-0.000136362
4.54431e-07
-0.000134493
3.37366e-07
-0.000133538
6.91996e-08
-0.00013338
-1.97667e-08
-0.000133478
-1.08068e-07
-0.000134724
-1.50795e-07
-0.000136694
1.78179e-07
-0.000137356
5.23307e-07
-0.000137497
5.9011e-07
-0.000137295
4.99973e-07
-0.000135088
3.34219e-07
-0.000132989
-1.29641e-07
-0.000132569
-5.5666e-07
-0.000132629
-6.76386e-07
-0.000133314
-8.48669e-07
-0.000135254
-8.073e-07
-0.000136343
-4.37314e-07
-0.000136685
-2.68155e-07
-0.000136824
-3.60738e-07
-0.000135212
-4.90217e-07
-0.000131365
-1.35967e-06
-0.000128898
-2.40467e-06
-0.000129004
-3.73059e-06
-0.000130613
-6.7834e-06
-0.000133274
-5.91311e-06
1.16596e-05
-0.000130691
1.28689e-07
-0.000130432
3.53681e-07
-0.000130458
3.06657e-07
-0.000131374
3.77466e-07
-0.000132
5.12976e-07
-0.000132079
4.62904e-07
-0.000132005
3.71301e-07
-0.000131767
2.6139e-07
-0.000131003
2.72772e-07
-0.000130511
2.79924e-07
-0.000130318
2.38137e-07
-0.000130407
1.68112e-07
-0.000131802
2.21271e-07
-0.000132911
5.20917e-07
-0.000132982
6.06065e-07
-0.000132878
6.36091e-07
-0.000132248
6.01495e-07
-0.000131217
4.01946e-07
-0.000130617
3.54523e-07
-0.000130407
3.3016e-07
-0.000130312
2.11576e-07
-0.000130893
7.01779e-08
-0.00013276
2.4348e-07
-0.00013361
5.28237e-07
-0.000133699
5.64154e-07
-0.000133621
5.01635e-07
-0.000132788
5.72148e-07
-0.000131255
7.03639e-07
-0.000130654
5.84098e-07
-0.000130512
4.99289e-07
-0.00013051
3.23585e-07
-0.000131475
2.08462e-07
-0.00013336
3.02392e-07
-0.000134002
4.90432e-07
-0.000134091
4.57848e-07
-0.000134042
3.94694e-07
-0.000133288
4.78503e-07
-0.000131643
6.97961e-07
-0.000131061
7.12401e-07
-0.000130983
5.9197e-07
-0.000131116
4.33878e-07
-0.000132623
3.4766e-07
-0.000134058
5.00671e-07
-0.000134416
5.38322e-07
-0.000134479
4.66045e-07
-0.000134388
3.39667e-07
-0.00013335
3.90452e-07
-0.000132034
5.47511e-07
-0.000131697
5.61807e-07
-0.000131692
4.73297e-07
-0.00013242
3.97649e-07
-0.000134073
4.89412e-07
-0.000134735
5.96207e-07
-0.00013489
6.09139e-07
-0.000134878
5.0577e-07
-0.000134301
4.34485e-07
-0.000133004
3.93606e-07
-0.00013243
3.51301e-07
-0.00013235
3.49356e-07
-0.000132628
3.13618e-07
-0.000134176
3.96512e-07
-0.000135196
6.26857e-07
-0.000135442
7.03561e-07
-0.000135495
6.49932e-07
-0.000135115
5.3756e-07
-0.000133645
3.96308e-07
-0.000132839
2.40079e-07
-0.000132685
1.50762e-07
-0.000132759
1.23501e-07
-0.000133984
1.42994e-07
-0.000135593
4.32156e-07
-0.000136092
7.145e-07
-0.0001362
7.33144e-07
-0.000136031
5.92142e-07
-0.000134395
4.66828e-07
-0.000132973
1.36811e-07
-0.000132629
-9.8719e-08
-0.000132646
-1.56896e-07
-0.000133146
-2.39053e-07
-0.000135134
-9.1975e-08
-0.00013637
3.87166e-07
-0.00013665
6.24205e-07
-0.000136727
6.35993e-07
-0.000135526
4.63947e-07
-0.000132883
7.6462e-08
-0.000131781
-5.54412e-07
-0.00013177
-8.50779e-07
-0.00013203
-1.03501e-06
-0.000133635
-1.11324e-06
-0.000135084
-8.54494e-07
-0.00013567
-6.60877e-07
-0.000135896
-7.11884e-07
-0.000135616
-9.42149e-07
-0.000132839
-1.45544e-06
-0.000129689
-2.61862e-06
-0.000128639
-3.87857e-06
-0.000130259
-6.96197e-06
-0.000133434
-5.33571e-06
1.1993e-05
-0.000130461
1.8804e-07
-0.000130235
3.4919e-07
-0.000130302
2.72636e-07
-0.00013149
3.78975e-07
-0.000132236
5.38045e-07
-0.000132293
6.5858e-07
-0.000132198
5.77064e-07
-0.000131817
4.54147e-07
-0.000130955
3.5085e-07
-0.000130484
2.7954e-07
-0.000130289
1.98226e-07
-0.000130235
1.11888e-07
-0.000131221
1.35863e-07
-0.000132538
4.70366e-07
-0.000132788
7.38253e-07
-0.000132727
8.77306e-07
-0.000132409
8.72523e-07
-0.000131382
7.52687e-07
-0.000130697
4.55372e-07
-0.000130475
3.07606e-07
-0.00013038
1.53389e-07
-0.000130559
1.8801e-08
-0.000132118
1.2083e-08
-0.00013322
4.11345e-07
-0.000133367
6.84361e-07
-0.000133248
8.33458e-07
-0.000132526
9.06312e-07
-0.000131341
9.20833e-07
-0.000130778
7.56361e-07
-0.000130628
5.61257e-07
-0.000130586
3.71534e-07
-0.00013111
1.6444e-07
-0.000132966
1.26475e-07
-0.00013377
3.42396e-07
-0.000133875
5.09968e-07
-0.000133687
6.38735e-07
-0.000132586
8.25281e-07
-0.000131417
9.16821e-07
-0.000131016
8.24639e-07
-0.00013096
6.64919e-07
-0.000131024
4.62727e-07
-0.000132262
3.19639e-07
-0.000133774
3.46453e-07
-0.000134174
4.38961e-07
-0.000134208
4.85539e-07
-0.000133987
5.2915e-07
-0.000132664
6.87938e-07
-0.000131573
7.56721e-07
-0.000131337
7.00805e-07
-0.000131335
5.52036e-07
-0.000131891
3.8473e-07
-0.000133563
4.43482e-07
-0.000134364
5.76604e-07
-0.00013453
6.33801e-07
-0.000134557
5.97633e-07
-0.000134024
5.67278e-07
-0.000132518
5.81392e-07
-0.000131816
5.20427e-07
-0.000131722
4.39628e-07
-0.000131873
3.3984e-07
-0.000133307
3.47215e-07
-0.000134667
6.07133e-07
-0.000135036
7.58627e-07
-0.000135114
7.52523e-07
-0.000134943
6.27765e-07
-0.000133586
5.41863e-07
-0.000132355
3.51874e-07
-0.000132056
2.21309e-07
-0.000132069
1.54087e-07
-0.000132685
8.56006e-08
-0.000134648
2.74713e-07
-0.000135605
7.07731e-07
-0.000135742
8.14914e-07
-0.000135742
7.61405e-07
-0.000134617
5.78097e-07
-0.000132804
3.01836e-07
-0.000132083
-4.20738e-08
-0.000131973
-2.29609e-07
-0.000132097
-2.82762e-07
-0.000133458
-3.04869e-07
-0.000135408
6.60029e-08
-0.000136111
4.93258e-07
-0.00013624
6.30255e-07
-0.000136003
5.66464e-07
-0.000133629
3.6382e-07
-0.000131573
-2.95923e-07
-0.00013121
-8.49732e-07
-0.000131297
-1.22211e-06
-0.000132153
-1.38813e-06
-0.000133728
-1.28534e-06
-0.000134596
-1.05833e-06
-0.000134985
-1.07896e-06
-0.000135164
-1.37129e-06
-0.000134439
-1.48516e-06
-0.00013171
-2.40213e-06
-0.00012945
-3.68804e-06
-0.00012987
-6.76903e-06
-0.000133504
-5.11814e-06
1.21496e-05
-0.000130326
2.62067e-07
-0.000130094
3.7245e-07
-0.000130084
2.72721e-07
-0.000131183
3.10978e-07
-0.000132224
5.54577e-07
-0.000132337
7.36711e-07
-0.000132255
7.23425e-07
-0.000131995
6.41241e-07
-0.000131148
5.09409e-07
-0.000130607
3.62933e-07
-0.000130345
2.4894e-07
-0.000130202
1.95703e-07
-0.000130383
1.54143e-07
-0.000131739
3.0046e-07
-0.000132536
7.30405e-07
-0.000132643
9.23838e-07
-0.000132546
9.6564e-07
-0.000131957
8.91194e-07
-0.000131065
6.86809e-07
-0.000130722
3.99721e-07
-0.000130579
2.18396e-07
-0.000130494
5.00212e-08
-0.000131069
3.23688e-08
-0.000132292
3.35034e-07
-0.000132692
7.63371e-07
-0.000132677
9.74125e-07
-0.000132416
1.04885e-06
-0.000131651
9.8126e-07
-0.000131065
8.1238e-07
-0.000130913
6.02895e-07
-0.00013086
3.93664e-07
-0.000131047
1.85849e-07
-0.000132239
9.29364e-08
-0.000133016
3.91311e-07
-0.000133138
7.23832e-07
-0.000132947
9.17786e-07
-0.000132307
1.00242e-06
-0.00013148
9.68096e-07
-0.000131091
8.44938e-07
-0.000131037
6.63468e-07
-0.000131071
4.34635e-07
-0.000132013
2.6253e-07
-0.000133273
2.92258e-07
-0.000133678
5.18011e-07
-0.000133714
6.91416e-07
-0.00013338
8.21875e-07
-0.00013234
9.20191e-07
-0.000131491
8.17018e-07
-0.000131231
7.25216e-07
-0.000131226
5.62741e-07
-0.000131598
3.70162e-07
-0.000133139
3.54005e-07
-0.00013402
5.78265e-07
-0.000134212
7.00238e-07
-0.00013422
7.62713e-07
-0.000133734
7.71625e-07
-0.000132337
7.91839e-07
-0.000131538
6.46554e-07
-0.000131406
5.20687e-07
-0.000131463
3.50805e-07
-0.000132485
2.21272e-07
-0.000134179
4.70378e-07
-0.000134761
8.06158e-07
-0.000134857
8.59897e-07
-0.000134801
7.95685e-07
-0.000133647
6.94649e-07
-0.000132244
5.44736e-07
-0.000131709
3.32381e-07
-0.000131653
2.03579e-07
-0.000131815
7.16241e-08
-0.000133431
9.28536e-08
-0.0001351
5.12643e-07
-0.000135545
8.64363e-07
-0.000135607
8.77901e-07
-0.000135095
8.03467e-07
-0.000133104
5.71821e-07
-0.000131864
1.02446e-07
-0.000131603
-1.58236e-07
-0.000131622
-3.39401e-07
-0.000132141
-4.2134e-07
-0.00013414
-2.95363e-07
-0.00013549
2.04631e-07
-0.000135882
5.3073e-07
-0.000135973
5.95611e-07
-0.000135096
5.09591e-07
-0.000132398
1.28724e-07
-0.000131061
-7.24182e-07
-0.000130976
-1.19157e-06
-0.000131222
-1.53952e-06
-0.000132638
-1.67173e-06
-0.000133931
-1.44736e-06
-0.000134482
-1.39619e-06
-0.000134775
-1.62052e-06
-0.000134818
-1.99877e-06
-0.000133586
-2.44741e-06
-0.000131216
-3.37946e-06
-0.000130189
-6.04e-06
-0.000133462
-4.91369e-06
1.24036e-05
-0.00013032
3.49392e-07
-0.000130077
4.06458e-07
-0.000129967
2.7899e-07
-0.000130631
2.5496e-07
-0.00013204
4.31372e-07
-0.000132486
7.15054e-07
-0.000132439
8.39272e-07
-0.000132261
7.9865e-07
-0.00013156
7.3369e-07
-0.00013068
5.71958e-07
-0.00013024
4.05356e-07
-0.000130046
3.1936e-07
-0.000129971
2.07145e-07
-0.000130728
2.10815e-07
-0.000132072
4.75148e-07
-0.000132497
8.32115e-07
-0.00013248
9.3137e-07
-0.000132312
9.38864e-07
-0.000131615
8.62082e-07
-0.000130995
6.25406e-07
-0.000130656
4.04654e-07
-0.000130465
3.0411e-07
-0.000130412
2.51941e-07
-0.000131091
3.6917e-07
-0.00013195
6.80427e-07
-0.000132265
9.54844e-07
-0.000132255
1.00516e-06
-0.000132011
9.65645e-07
-0.000131504
8.2539e-07
-0.000131288
6.09497e-07
-0.000131164
4.07824e-07
-0.000131101
1.84081e-07
-0.000131467
2.89734e-07
-0.000132089
6.42421e-07
-0.000132341
9.62564e-07
-0.000132379
1.0773e-06
-0.000132254
1.02757e-06
-0.000131643
9.52842e-07
-0.000131346
7.84732e-07
-0.000131295
5.58357e-07
-0.000131273
3.55639e-07
-0.000131711
2.04552e-07
-0.000132662
4.27685e-07
-0.000133066
7.77847e-07
-0.000133127
9.99728e-07
-0.000133011
1.09507e-06
-0.000132372
9.74968e-07
-0.000131544
8.63661e-07
-0.000131336
6.79763e-07
-0.000131316
4.77335e-07
-0.000131421
3.1899e-07
-0.000132541
2.75698e-07
-0.000133635
6.0509e-07
-0.000133919
8.63188e-07
-0.000133939
1.01767e-06
-0.000133635
1.03164e-06
-0.000132417
9.16426e-07
-0.000131556
7.35001e-07
-0.000131375
5.53674e-07
-0.000131394
3.66477e-07
-0.000131781
1.83292e-07
-0.00013352
2.85394e-07
-0.000134522
7.65333e-07
-0.000134718
9.78829e-07
-0.000134718
1.01493e-06
-0.000133946
9.48245e-07
-0.000132357
7.38056e-07
-0.000131625
4.46443e-07
-0.000131468
2.65932e-07
-0.000131508
8.42375e-08
-0.000132218
-6.20574e-08
-0.000134283
1.86858e-07
-0.000135281
7.66026e-07
-0.000135467
9.76178e-07
-0.000135448
9.76169e-07
-0.000134013
9.11148e-07
-0.000132084
4.57645e-07
-0.000131457
-5.97121e-08
-0.000131435
-2.67411e-07
-0.000131544
-4.69285e-07
-0.000132702
-5.40607e-07
-0.00013455
-2.1302e-07
-0.00013538
2.85579e-07
-0.000135611
4.9599e-07
-0.000135642
5.20213e-07
-0.000134176
2.53323e-07
-0.000131653
-1.76073e-07
-0.000130783
-1.09917e-06
-0.000130864
-1.49843e-06
-0.000131418
-1.8759e-06
-0.000132902
-1.94783e-06
-0.000133819
-1.75947e-06
-0.000134314
-1.86876e-06
-0.00013453
-2.29732e-06
-0.000134413
-2.63842e-06
-0.000133002
-3.35743e-06
-0.000131343
-5.24463e-06
-0.000133356
-4.67058e-06
1.2786e-05
-0.000130429
4.52949e-07
-0.000130161
4.43411e-07
-0.000130025
3.07759e-07
-0.000130189
1.61516e-07
-0.000131551
2.39354e-07
-0.000132407
6.18769e-07
-0.000132495
8.21554e-07
-0.000132372
9.36972e-07
-0.000131924
9.4601e-07
-0.000130938
8.23912e-07
-0.000130319
5.84752e-07
-0.000130039
4.14035e-07
-0.000129916
3.15578e-07
-0.000130078
1.94144e-07
-0.000131397
3.12181e-07
-0.000132283
6.70242e-07
-0.000132456
8.77995e-07
-0.000132384
9.06849e-07
-0.000132106
8.92682e-07
-0.000131412
8.22612e-07
-0.000130804
6.55659e-07
-0.000130412
5.75722e-07
-0.00013025
5.52235e-07
-0.000130443
5.02677e-07
-0.000131569
6.625e-07
-0.000132179
8.62298e-07
-0.000132276
9.28117e-07
-0.000132205
8.72038e-07
-0.000131998
7.74708e-07
-0.000131644
5.69381e-07
-0.000131264
3.7428e-07
-0.000130908
4.63517e-07
-0.000130849
6.32503e-07
-0.000131403
8.06588e-07
-0.000132117
1.08454e-06
-0.000132361
1.12648e-06
-0.000132319
1.03541e-06
-0.000132057
9.10547e-07
-0.000131752
6.89181e-07
-0.00013156
4.80831e-07
-0.000131374
3.20872e-07
-0.000131314
4.09279e-07
-0.000131819
6.09449e-07
-0.000132515
9.88479e-07
-0.000132845
1.24434e-06
-0.000132875
1.16906e-06
-0.000132676
1.06083e-06
-0.000131966
8.71212e-07
-0.000131614
6.15795e-07
-0.00013142
3.93152e-07
-0.000131358
3.40849e-07
-0.00013169
3.56875e-07
-0.000132943
6.2398e-07
-0.000133556
1.05009e-06
-0.000133692
1.24897e-06
-0.000133651
1.17342e-06
-0.000132876
1.06087e-06
-0.000131888
7.82165e-07
-0.000131541
5.21772e-07
-0.000131408
3.12653e-07
-0.000131457
2.69952e-07
-0.000132427
2.36719e-07
-0.000134031
6.18693e-07
-0.000134533
1.06012e-06
-0.000134605
1.21021e-06
-0.000134388
1.18131e-06
-0.000132924
9.81245e-07
-0.000131789
5.72416e-07
-0.000131461
2.44802e-07
-0.000131437
5.88653e-08
-0.000131566
-8.04279e-08
-0.00013302
-7.08118e-08
-0.000134743
4.62092e-07
-0.000135278
9.84351e-07
-0.000135365
1.0827e-06
-0.000135055
1.06988e-06
-0.000133074
8.81691e-07
-0.000131661
2.31368e-07
-0.000131328
-2.27945e-07
-0.00013136
-4.37168e-07
-0.000131674
-5.95509e-07
-0.000133341
-5.62128e-07
-0.000134772
-1.03551e-07
-0.000135309
2.99994e-07
-0.000135446
4.3855e-07
-0.000135263
3.89132e-07
-0.00013329
1.23971e-07
-0.000131245
-6.20683e-07
-0.000130739
-1.51107e-06
-0.000130829
-1.93427e-06
-0.000131669
-2.33038e-06
-0.000133078
-2.2874e-06
-0.000133808
-2.22779e-06
-0.000134198
-2.54713e-06
-0.000134373
-3.05239e-06
-0.000134098
-3.42906e-06
-0.000132682
-4.52593e-06
-0.000133341
-3.94076e-06
1.31746e-05
-0.000130679
5.92201e-07
-0.000130319
4.65228e-07
-0.000130133
3.09421e-07
-0.000130058
1.90768e-07
-0.000130773
1.61589e-07
-0.000131972
4.75177e-07
-0.000132376
8.22604e-07
-0.000132357
9.9445e-07
-0.000132181
1.05507e-06
-0.000131549
1.00192e-06
-0.00013064
7.80333e-07
-0.000130208
5.43276e-07
-0.000129997
4.11347e-07
-0.00012995
3.34416e-07
-0.000130751
3.09623e-07
-0.000131923
5.6622e-07
-0.000132306
8.03375e-07
-0.00013235
8.87204e-07
-0.000132251
8.75268e-07
-0.000131794
8.52944e-07
-0.000130823
8.1851e-07
-0.000130282
7.52372e-07
-0.000130141
7.5544e-07
-0.000130298
6.98197e-07
-0.000131441
7.23288e-07
-0.000132185
8.11581e-07
-0.000132368
8.51214e-07
-0.000132359
7.81741e-07
-0.000132292
6.89022e-07
-0.000131845
5.61242e-07
-0.000130869
6.04013e-07
-0.000130441
7.87531e-07
-0.000130365
8.14832e-07
-0.000131103
8.97302e-07
-0.000132156
1.08183e-06
-0.000132461
1.13486e-06
-0.0001325
1.01849e-06
-0.000132466
8.57694e-07
-0.000132219
6.51367e-07
-0.000131602
4.7649e-07
-0.000131042
4.85513e-07
-0.00013081
6.82565e-07
-0.000131016
7.71459e-07
-0.000132235
1.00544e-06
-0.000132894
1.29375e-06
-0.000133008
1.25946e-06
-0.000132981
1.08907e-06
-0.000132606
9.09776e-07
-0.000131906
6.46504e-07
-0.000131417
4.02103e-07
-0.000131124
4.19176e-07
-0.000131093
5.13138e-07
-0.000131982
6.40069e-07
-0.000133312
1.02945e-06
-0.000133709
1.30629e-06
-0.000133749
1.306e-06
-0.000133535
1.16154e-06
-0.000132493
9.34376e-07
-0.000131728
5.63061e-07
-0.000131386
3.43999e-07
-0.000131256
3.32762e-07
-0.000131418
3.10759e-07
-0.000133007
4.56277e-07
-0.000134288
9.97141e-07
-0.000134598
1.31736e-06
-0.000134598
1.32628e-06
-0.000133955
1.21377e-06
-0.000132379
8.38505e-07
-0.00013163
3.20076e-07
-0.000131372
7.90443e-08
-0.000131343
-3.58334e-08
-0.000131701
-8.08366e-08
-0.000133599
9.5502e-08
-0.00013488
7.40308e-07
-0.000135217
1.12432e-06
-0.00013528
1.12523e-06
-0.000134572
1.03981e-06
-0.000132418
7.41329e-07
-0.000131393
5.25803e-09
-0.000131254
-3.55121e-07
-0.000131332
-5.94676e-07
-0.000131962
-7.22526e-07
-0.000133693
-5.30561e-07
-0.000134705
-1.98876e-08
-0.000135061
2.76782e-07
-0.000135174
3.12611e-07
-0.000134854
2.32821e-07
-0.000132706
-1.99263e-07
-0.000131014
-1.05088e-06
-0.000130667
-1.9471e-06
-0.000130806
-2.38562e-06
-0.000131834
-2.75522e-06
-0.000133086
-2.74107e-06
-0.000133765
-2.82831e-06
-0.000134068
-3.28605e-06
-0.000134188
-3.77637e-06
-0.00013367
-4.28681e-06
-0.000133343
-2.88792e-06
1.34353e-05
-0.000131275
7.99611e-07
-0.000130643
5.58041e-07
-0.000130323
3.67787e-07
-0.000130132
2.85937e-07
-0.000130127
1.99377e-07
-0.000131151
3.3687e-07
-0.000132066
7.28603e-07
-0.000132299
9.57812e-07
-0.000132262
1.04936e-06
-0.000132073
1.02033e-06
-0.000131255
9.23576e-07
-0.000130498
7.25482e-07
-0.000130181
5.71646e-07
-0.000130042
5.1484e-07
-0.000130348
4.23497e-07
-0.000131523
5.82433e-07
-0.000132138
7.85957e-07
-0.000132247
8.35599e-07
-0.000132205
8.45629e-07
-0.00013197
8.20212e-07
-0.00013097
8.168e-07
-0.000130303
9.09905e-07
-0.000130155
8.79748e-07
-0.000130291
8.06321e-07
-0.000131459
8.07974e-07
-0.0001323
8.42376e-07
-0.000132512
8.21661e-07
-0.000132527
7.53829e-07
-0.000132414
6.4861e-07
-0.000131554
6.6124e-07
-0.000130368
8.89057e-07
-0.000130076
9.45922e-07
-0.000130067
8.89062e-07
-0.000130961
8.74256e-07
-0.000132398
1.05515e-06
-0.000132808
1.05988e-06
-0.000132857
9.98337e-07
-0.000132822
8.38282e-07
-0.000132521
6.80897e-07
-0.000131265
6.09935e-07
-0.000130469
8.04443e-07
-0.000130294
8.46271e-07
-0.00013044
8.06037e-07
-0.000131917
9.23191e-07
-0.000133094
1.23084e-06
-0.000133313
1.26279e-06
-0.000133307
1.1276e-06
-0.000133164
9.73627e-07
-0.000132146
7.77641e-07
-0.00013118
5.75256e-07
-0.000130751
6.00313e-07
-0.000130656
6.23004e-07
-0.000131089
6.42237e-07
-0.000132916
8.76888e-07
-0.000133824
1.27848e-06
-0.000133961
1.36706e-06
-0.000133959
1.2657e-06
-0.000133269
1.10482e-06
-0.000131975
7.9382e-07
-0.000131284
4.76405e-07
-0.000130994
4.1627e-07
-0.000130983
3.85597e-07
-0.000131715
3.48962e-07
-0.000133738
6.96232e-07
-0.000134555
1.24718e-06
-0.000134705
1.36118e-06
-0.000134659
1.33226e-06
-0.000133458
1.14462e-06
-0.000131953
6.8315e-07
-0.00013131
2.0621e-07
-0.000131104
5.91729e-08
-0.000131133
-1.03035e-08
-0.000132044
-7.16892e-08
-0.000134128
2.83361e-07
-0.000135029
9.42933e-07
-0.000135199
1.13168e-06
-0.000135199
1.12871e-06
-0.000133993
9.84743e-07
-0.000132033
4.85459e-07
-0.000131263
-2.06027e-07
-0.000131146
-5.11556e-07
-0.000131282
-6.66986e-07
-0.00013225
-7.80099e-07
-0.000133876
-5.00749e-07
-0.000134693
-2.27252e-08
-0.000134979
1.53464e-07
-0.000135083
1.52828e-07
-0.000134474
-3.03443e-08
-0.00013228
-5.0918e-07
-0.000130883
-1.50767e-06
-0.000130644
-2.33946e-06
-0.000130838
-2.81197e-06
-0.000131955
-3.23134e-06
-0.000133119
-3.25792e-06
-0.000133805
-3.49555e-06
-0.000134061
-3.97768e-06
-0.000134169
-4.28531e-06
-0.000133385
-1.854e-06
1.3519e-05
-0.000132051
9.23824e-07
-0.000131215
8.03604e-07
-0.000130444
5.62728e-07
-0.000130073
4.35001e-07
-0.00012994
3.82992e-07
-0.00013039
3.28902e-07
-0.000131634
5.59158e-07
-0.00013221
8.45103e-07
-0.000132292
9.51954e-07
-0.000132192
9.07345e-07
-0.000131818
9.08747e-07
-0.000130864
8.72491e-07
-0.000130316
7.77469e-07
-0.000130156
7.3594e-07
-0.000130265
6.20051e-07
-0.000131354
6.53907e-07
-0.000132031
7.93172e-07
-0.000132194
8.34031e-07
-0.000132168
8.35973e-07
-0.000131895
7.91713e-07
-0.0001309
8.75069e-07
-0.000130298
9.55246e-07
-0.000130177
9.36054e-07
-0.000130319
8.36199e-07
-0.000131595
8.44383e-07
-0.000132441
9.0145e-07
-0.000132643
8.78991e-07
-0.000132632
8.22033e-07
-0.000132376
8.02294e-07
-0.00013112
9.40817e-07
-0.000130222
1.00282e-06
-0.000130015
9.88665e-07
-0.000129997
8.82018e-07
-0.000130875
8.13631e-07
-0.0001326
8.99724e-07
-0.000133161
9.82868e-07
-0.000133169
1.01503e-06
-0.000133128
9.24717e-07
-0.000132459
8.61286e-07
-0.000130834
1.05922e-06
-0.000130181
1.02886e-06
-0.000130084
9.41791e-07
-0.000130188
8.22628e-07
-0.000131549
7.7335e-07
-0.000133198
1.02571e-06
-0.000133632
1.12662e-06
-0.000133657
1.19657e-06
-0.000133555
1.06868e-06
-0.000132444
9.96647e-07
-0.000130974
9.06569e-07
-0.000130488
8.23001e-07
-0.000130421
7.42851e-07
-0.000130581
6.64138e-07
-0.000132221
6.5634e-07
-0.000133808
1.10232e-06
-0.000134168
1.35309e-06
-0.000134193
1.36034e-06
-0.000133952
1.2536e-06
-0.00013243
1.10141e-06
-0.000131249
7.33718e-07
-0.000130849
5.09193e-07
-0.000130757
4.57374e-07
-0.000130926
3.70361e-07
-0.000132637
3.72355e-07
-0.00013437
9.26745e-07
-0.000134787
1.35294e-06
-0.000134846
1.34155e-06
-0.000134539
1.32325e-06
-0.00013268
1.14336e-06
-0.000131369
5.71588e-07
-0.000131036
2.13938e-07
-0.000130979
8.4989e-08
-0.000131109
-4.8732e-08
-0.000132651
-6.75864e-08
-0.00013444
4.46958e-07
-0.000135009
9.95593e-07
-0.000135107
1.11339e-06
-0.000135037
1.01796e-06
-0.000133426
8.69718e-07
-0.000131607
3.44468e-07
-0.000131074
-3.39718e-07
-0.000131078
-5.79251e-07
-0.000131259
-7.94008e-07
-0.000132546
-8.76065e-07
-0.000133977
-5.1987e-07
-0.000134575
-1.44873e-07
-0.000134773
-2.92138e-08
-0.000134862
-7.33241e-08
-0.000134139
-3.41005e-07
-0.000132038
-8.38917e-07
-0.000130829