/*--------------------------------*- C++ -*----------------------------------*\
  =========                 |
  \\      /  F ield         | OpenFOAM: The Open Source CFD Toolbox
   \\    /   O peration     | Website:  https://openfoam.org
    \\  /    A nd           | Version:  12
     \\/     M anipulation  |
\*---------------------------------------------------------------------------*/
FoamFile
{
    format      ascii;
    class       volScalarField;
    location    "1.9";
    object      rho;
}
// * * * * * * * * * * * * * * * * * * * * * * * * * * * * * * * * * * * * * //

dimensions      [1 -3 0 0 0 0 0];

internalField   nonuniform List<scalar> 
9801
(
1.1733
1.17199
1.17405
1.18037
1.18877
1.19377
1.19646
1.19833
1.19818
1.19546
1.19525
1.19616
1.19802
1.2024
1.21198
1.21833
1.22093
1.22248
1.22272
1.22185
1.22176
1.22248
1.224
1.22897
1.2384
1.24348
1.24551
1.24659
1.24759
1.24777
1.24864
1.25053
1.25374
1.26255
1.26845
1.27038
1.27175
1.27274
1.27292
1.27484
1.27663
1.27954
1.28792
1.2958
1.29776
1.29894
1.30024
1.30083
1.30258
1.30477
1.30795
1.31685
1.32477
1.32818
1.33002
1.32974
1.33082
1.33254
1.33487
1.33812
1.34812
1.35834
1.36246
1.36433
1.36439
1.36448
1.366
1.36841
1.37236
1.38113
1.39539
1.40284
1.40567
1.40414
1.40287
1.4043
1.40752
1.41245
1.42179
1.43887
1.45095
1.45635
1.45769
1.45178
1.45084
1.45474
1.4627
1.47676
1.50325
1.52259
1.53425
1.5436
1.54454
1.54198
1.55516
1.58652
1.65153
2.12479
3.92995
1.17845
1.17692
1.17873
1.18138
1.18881
1.19926
1.20378
1.20554
1.20514
1.20096
1.19996
1.2011
1.20285
1.2058
1.21465
1.22281
1.22654
1.22861
1.22783
1.22485
1.22495
1.22657
1.22901
1.23481
1.2426
1.24762
1.25061
1.25202
1.25041
1.24963
1.25127
1.25405
1.25893
1.26656
1.27176
1.27493
1.27704
1.27579
1.27499
1.27749
1.27999
1.28399
1.29172
1.29852
1.30146
1.30361
1.30283
1.30226
1.30467
1.3076
1.31156
1.3201
1.32719
1.33136
1.33427
1.33222
1.33168
1.33407
1.33724
1.34092
1.34991
1.35971
1.36501
1.36839
1.36708
1.36471
1.3668
1.37031
1.37439
1.38232
1.39573
1.40404
1.40846
1.40832
1.40318
1.40378
1.40802
1.41311
1.42191
1.43947
1.45167
1.45827
1.46158
1.45466
1.44992
1.45566
1.46306
1.47703
1.49884
1.51628
1.52913
1.54162
1.54471
1.53946
1.54293
1.56359
1.59609
2.05085
3.89974
1.18126
1.18045
1.18225
1.18404
1.18957
1.19952
1.20446
1.20603
1.20528
1.20256
1.20209
1.20324
1.20514
1.20822
1.21635
1.22428
1.22805
1.22976
1.22795
1.2248
1.22498
1.22694
1.23024
1.23681
1.24458
1.24956
1.25271
1.25385
1.25125
1.24964
1.25106
1.25405
1.25969
1.26769
1.2729
1.27643
1.27872
1.27725
1.27582
1.27778
1.28018
1.28454
1.29267
1.29924
1.30236
1.30494
1.30449
1.3034
1.30528
1.308
1.31186
1.32028
1.32752
1.33185
1.33506
1.33382
1.33284
1.33474
1.33778
1.3414
1.34976
1.35955
1.36515
1.36878
1.36832
1.36537
1.36655
1.37013
1.37479
1.38271
1.39513
1.40346
1.40809
1.40958
1.40461
1.4031
1.40672
1.41198
1.42003
1.43608
1.44897
1.45625
1.46126
1.45751
1.45008
1.45293
1.46071
1.4714
1.49012
1.50988
1.525
1.53816
1.54491
1.53733
1.53897
1.55699
1.57766
2.01252
3.86248
1.18635
1.18504
1.18591
1.18708
1.18924
1.19668
1.20377
1.207
1.20844
1.20732
1.20579
1.20651
1.20832
1.2112
1.21761
1.22433
1.22821
1.23024
1.22965
1.22741
1.2274
1.22907
1.23229
1.2393
1.24665
1.25123
1.25408
1.25505
1.25249
1.25081
1.25216
1.25502
1.26137
1.26933
1.27421
1.27754
1.27977
1.27847
1.27668
1.2783
1.28065
1.28568
1.29421
1.30042
1.30343
1.30609
1.30592
1.304
1.30518
1.30774
1.31193
1.32069
1.32816
1.33253
1.33585
1.33554
1.33337
1.33417
1.33688
1.3408
1.34926
1.35901
1.3648
1.36865
1.37004
1.36641
1.36566
1.36835
1.3728
1.38063
1.39313
1.40186
1.40683
1.41034
1.40692
1.40208
1.40411
1.40904
1.41615
1.4307
1.44552
1.45411
1.46015
1.46094
1.45193
1.45004
1.45664
1.4655
1.48041
1.49986
1.51555
1.52875
1.54013
1.53851
1.53327
1.53996
1.55016
1.98949
3.83208
1.18999
1.18878
1.18893
1.18976
1.19098
1.1944
1.20224
1.20772
1.21031
1.21128
1.21027
1.21048
1.21189
1.21373
1.21782
1.22299
1.22686
1.2293
1.23069
1.23098
1.23119
1.23268
1.23532
1.24137
1.24705
1.25081
1.25333
1.25442
1.25315
1.25281
1.25455
1.25721
1.26327
1.27023
1.27435
1.27738
1.27954
1.27861
1.27747
1.27926
1.28158
1.28672
1.2952
1.30097
1.3039
1.30651
1.30659
1.30438
1.3053
1.30777
1.31186
1.3207
1.32829
1.33279
1.33612
1.3368
1.33398
1.33361
1.33608
1.33987
1.34838
1.35844
1.36448
1.36848
1.37112
1.36819
1.36499
1.36675
1.37066
1.37753
1.39057
1.40094
1.40638
1.41039
1.40969
1.40319
1.40231
1.40651
1.41223
1.42359
1.44008
1.4511
1.4579
1.46269
1.45759
1.45029
1.45271
1.46046
1.47233
1.49112
1.50773
1.52102
1.53348
1.54006
1.53467
1.53345
1.53226
1.9674
3.80434
1.19345
1.19286
1.1916
1.19162
1.19266
1.19496
1.20094
1.20704
1.21091
1.21331
1.21476
1.215
1.21498
1.21596
1.21852
1.22248
1.22572
1.22834
1.2311
1.23324
1.2344
1.23645
1.23952
1.24381
1.24756
1.25032
1.25239
1.2536
1.25354
1.2544
1.2566
1.25967
1.26585
1.27173
1.27508
1.2778
1.27988
1.27921
1.27829
1.28006
1.28245
1.28748
1.29599
1.30175
1.3047
1.30739
1.30806
1.30545
1.30548
1.30774
1.31154
1.3202
1.32848
1.33325
1.33668
1.33855
1.33625
1.33388
1.33549
1.3388
1.34608
1.35737
1.36457
1.36878
1.37198
1.37106
1.36639
1.36614
1.36948
1.37438
1.38583
1.39938
1.40664
1.41107
1.41297
1.40701
1.40294
1.40508
1.41002
1.41749
1.43312
1.448
1.45678
1.46309
1.4646
1.45547
1.45205
1.45751
1.46635
1.4819
1.49927
1.51308
1.5252
1.53686
1.53925
1.53396
1.52267
1.9441
3.77745
1.19591
1.19734
1.19447
1.19368
1.19488
1.19748
1.20244
1.20729
1.21108
1.21425
1.21679
1.21792
1.21795
1.21877
1.22042
1.22398
1.22706
1.22968
1.23211
1.23407
1.23599
1.23851
1.24216
1.24653
1.24922
1.25139
1.25348
1.25496
1.25472
1.25539
1.2576
1.26068
1.26699
1.27357
1.2771
1.27971
1.28182
1.28145
1.2798
1.28079
1.28291
1.2872
1.29608
1.30292
1.30624
1.30899
1.31039
1.30782
1.30646
1.308
1.31112
1.31893
1.32877
1.33443
1.33799
1.34051
1.33943
1.33581
1.33586
1.33862
1.34378
1.35537
1.36534
1.37028
1.37369
1.37456
1.36965
1.36742
1.36946
1.37336
1.38075
1.39585
1.40694
1.41242
1.41616
1.41368
1.40651
1.40561
1.40939
1.41491
1.42593
1.44287
1.45475
1.46223
1.46794
1.46552
1.45681
1.45718
1.4637
1.47435
1.49176
1.50708
1.51892
1.52956
1.53762
1.5362
1.52146
1.92356
3.75142
1.1971
1.19919
1.19782
1.19732
1.19835
1.20082
1.20565
1.20962
1.21249
1.21501
1.21713
1.21753
1.21833
1.22111
1.22504
1.22778
1.23032
1.23271
1.23492
1.23568
1.23653
1.23838
1.24164
1.24753
1.25224
1.25469
1.25669
1.25803
1.25748
1.25727
1.25859
1.26092
1.26618
1.27456
1.27969
1.28258
1.28466
1.28449
1.2823
1.28228
1.28379
1.28687
1.29526
1.304
1.30828
1.31122
1.31311
1.31093
1.30853
1.30916
1.31165
1.31741
1.32852
1.33602
1.34002
1.34279
1.3429
1.33869
1.33754
1.3394
1.34302
1.35193
1.36518
1.3723
1.3761
1.37823
1.37461
1.37021
1.37052
1.37352
1.37818
1.38982
1.40523
1.41358
1.41835
1.4207
1.41381
1.40849
1.41021
1.4149
1.4216
1.43586
1.45108
1.46081
1.46781
1.47245
1.46754
1.46049
1.46314
1.47034
1.48289
1.49959
1.51259
1.52301
1.53192
1.53531
1.52512
1.90914
3.72587
1.19725
1.19954
1.19934
1.20097
1.20315
1.20641
1.20979
1.21277
1.21512
1.21698
1.21649
1.2161
1.21794
1.22256
1.22959
1.2334
1.23535
1.23721
1.23855
1.23802
1.23712
1.2378
1.23999
1.24645
1.25453
1.25889
1.261
1.26246
1.2614
1.25985
1.26026
1.26198
1.26551
1.27432
1.2816
1.28535
1.2877
1.28831
1.28556
1.28444
1.2855
1.28793
1.2944
1.30465
1.31032
1.31358
1.31583
1.31469
1.3113
1.31133
1.31344
1.31716
1.32718
1.33732
1.34227
1.34521
1.3465
1.34267
1.33994
1.34112
1.34406
1.34926
1.36241
1.37361
1.37869
1.38183
1.38105
1.37472
1.37263
1.37462
1.37834
1.38502
1.40037
1.41335
1.41973
1.42398
1.42339
1.41523
1.41271
1.41564
1.42066
1.42947
1.44552
1.45858
1.46702
1.47359
1.47621
1.46965
1.4651
1.46908
1.47658
1.49023
1.50548
1.5164
1.52442
1.53002
1.52829
1.90236
3.69976
1.19761
1.19925
1.20024
1.2035
1.2085
1.21222
1.21433
1.21633
1.21828
1.21877
1.21666
1.21652
1.21818
1.22233
1.23164
1.23815
1.24079
1.24238
1.2429
1.24049
1.2383
1.23851
1.24023
1.24494
1.25514
1.26189
1.26501
1.26683
1.26628
1.26312
1.26263
1.264
1.26637
1.27339
1.28245
1.28735
1.29016
1.2918
1.28976
1.28733
1.28797
1.29009
1.29422
1.30425
1.31193
1.31585
1.31846
1.31883
1.31521
1.31407
1.31582
1.31854
1.32501
1.33709
1.34418
1.34767
1.35012
1.34808
1.34365
1.34353
1.34581
1.34908
1.35766
1.37234
1.38054
1.38471
1.387
1.38241
1.37657
1.37684
1.37971
1.3838
1.39337
1.40973
1.41989
1.42518
1.42915
1.4259
1.41777
1.41731
1.42126
1.42695
1.43818
1.45374
1.4646
1.47214
1.47844
1.48002
1.47281
1.4697
1.47408
1.48151
1.49531
1.50868
1.51742
1.52273
1.52693
1.9019
3.67247
1.19938
1.20042
1.20147
1.20486
1.21159
1.21692
1.21914
1.22048
1.22139
1.22059
1.21885
1.21883
1.22035
1.22302
1.23133
1.24063
1.24489
1.24713
1.24769
1.24397
1.24054
1.24063
1.24223
1.24556
1.2547
1.26362
1.26779
1.27026
1.27097
1.26758
1.26553
1.2663
1.26817
1.27291
1.28267
1.28915
1.29254
1.29481
1.29446
1.29127
1.29076
1.29233
1.29498
1.30281
1.31286
1.31816
1.32122
1.32306
1.32052
1.3176
1.3181
1.32011
1.32367
1.33448
1.34549
1.35058
1.35356
1.3543
1.34929
1.34647
1.34752
1.35004
1.35445
1.36733
1.38068
1.38675
1.39062
1.39121
1.38415
1.38016
1.38148
1.38456
1.38944
1.40262
1.41799
1.42614
1.43101
1.43345
1.42774
1.42166
1.42285
1.42703
1.43325
1.44627
1.46077
1.47048
1.47758
1.4831
1.48292
1.47572
1.47369
1.47801
1.48528
1.49839
1.50955
1.51582
1.52198
1.90429
3.64394
1.20218
1.20317
1.20392
1.20599
1.21118
1.21906
1.22334
1.22485
1.22513
1.22365
1.22179
1.22187
1.22337
1.22549
1.23093
1.24087
1.24646
1.24893
1.25019
1.24853
1.24441
1.24378
1.24525
1.24774
1.25486
1.26447
1.26965
1.27234
1.27391
1.27215
1.26877
1.26869
1.27043
1.27383
1.28286
1.29114
1.29517
1.29768
1.29872
1.29552
1.29332
1.29417
1.29648
1.30175
1.31302
1.32054
1.3242
1.32667
1.32602
1.32131
1.3199
1.32143
1.3242
1.33132
1.34499
1.35307
1.35697
1.35926
1.35627
1.35021
1.34931
1.35142
1.35454
1.36168
1.37726
1.38785
1.39263
1.39619
1.39404
1.38579
1.38369
1.38618
1.38985
1.39638
1.41154
1.42457
1.43116
1.43575
1.43774
1.43067
1.4257
1.42779
1.43241
1.43964
1.4536
1.4666
1.4752
1.4819
1.48683
1.48597
1.47891
1.47714
1.48093
1.4875
1.49934
1.50771
1.51509
1.90764
3.61422
1.20621
1.2061
1.20632
1.20757
1.20987
1.21758
1.22476
1.22805
1.22939
1.2292
1.22684
1.226
1.22697
1.22866
1.23161
1.23946
1.24664
1.24985
1.25164
1.25239
1.24977
1.24807
1.24914
1.25114
1.25598
1.26503
1.27095
1.2739
1.2757
1.27558
1.27226
1.27153
1.27321
1.27593
1.28319
1.29277
1.29775
1.30037
1.30185
1.29947
1.29597
1.29643
1.29869
1.30219
1.31188
1.32226
1.32708
1.32971
1.33046
1.32577
1.32244
1.32352
1.32611
1.32995
1.34109
1.35366
1.35943
1.3626
1.36316
1.35678
1.35242
1.35337
1.35614
1.35989
1.37038
1.38573
1.39384
1.398
1.40053
1.39577
1.38889
1.3886
1.3914
1.39524
1.40377
1.41974
1.43088
1.43686
1.44094
1.44073
1.43346
1.43029
1.43301
1.43776
1.44577
1.45989
1.47174
1.4797
1.48604
1.49026
1.48894
1.48187
1.47955
1.48239
1.48818
1.49778
1.50668
1.9099
3.58398
1.21143
1.20919
1.20831
1.20912
1.21042
1.21464
1.22433
1.23058
1.2333
1.23461
1.23363
1.23086
1.2304
1.23144
1.23309
1.23774
1.24582
1.25079
1.25348
1.25538
1.25512
1.25295
1.25323
1.25483
1.25757
1.26494
1.27194
1.27535
1.27749
1.27859
1.27646
1.27519
1.27655
1.27873
1.28319
1.29281
1.29948
1.30256
1.30453
1.30386
1.29994
1.29944
1.30136
1.30397
1.30968
1.32145
1.32868
1.33199
1.33406
1.33196
1.32698
1.3266
1.32859
1.33106
1.33611
1.34977
1.36021
1.3648
1.36772
1.36608
1.35879
1.35654
1.35835
1.3611
1.36543
1.37835
1.39234
1.39888
1.40278
1.40481
1.39814
1.39236
1.39323
1.39655
1.40092
1.41121
1.42633
1.43565
1.44088
1.44512
1.44485
1.43746
1.43499
1.43795
1.44279
1.45133
1.46512
1.47607
1.48344
1.48936
1.49298
1.49171
1.4845
1.48083
1.48246
1.48676
1.49718
1.90884
3.55297
1.21768
1.21455
1.21114
1.21078
1.21162
1.21376
1.2216
1.2315
1.23614
1.23843
1.23973
1.23782
1.235
1.23451
1.23516
1.23715
1.24446
1.25214
1.25596
1.25827
1.25969
1.25815
1.25706
1.25785
1.25936
1.26388
1.27242
1.27747
1.28015
1.28209
1.28154
1.27939
1.2796
1.28111
1.28338
1.2907
1.30011
1.30483
1.30745
1.30894
1.30595
1.30346
1.30411
1.30587
1.30852
1.31748
1.32914
1.33461
1.33752
1.33855
1.33392
1.33024
1.33042
1.3321
1.33494
1.34315
1.35816
1.36652
1.37038
1.37289
1.36875
1.36164
1.36051
1.36256
1.36556
1.37153
1.38655
1.39883
1.4045
1.40797
1.40794
1.40084
1.39691
1.39845
1.40164
1.40627
1.41797
1.43249
1.44101
1.44623
1.44969
1.44812
1.44152
1.43981
1.44286
1.44761
1.45617
1.46941
1.47967
1.48653
1.49189
1.49495
1.49416
1.48701
1.4811
1.47997
1.48688
1.89938
3.52125
1.22301
1.22207
1.21563
1.21288
1.21325
1.21491
1.22001
1.23104
1.23809
1.24124
1.24336
1.24386
1.23985
1.23665
1.2368
1.23853
1.24458
1.25386
1.2589
1.26155
1.26347
1.26304
1.26015
1.25932
1.26046
1.26358
1.2725
1.28003
1.28349
1.2857
1.28659
1.28371
1.28177
1.2822
1.28406
1.28861
1.29956
1.30726
1.31082
1.31304
1.31242
1.30785
1.30616
1.30716
1.30933
1.31405
1.32666
1.33654
1.34069
1.34306
1.34179
1.3351
1.33255
1.33402
1.33655
1.34035
1.35181
1.36566
1.37214
1.37562
1.37708
1.37065
1.36455
1.3648
1.36757
1.37093
1.37852
1.39374
1.4039
1.4086
1.41234
1.4119
1.40413
1.40099
1.40309
1.40669
1.41207
1.4244
1.43759
1.44516
1.45001
1.45382
1.45284
1.44635
1.4446
1.44747
1.45194
1.46002
1.47271
1.48254
1.48891
1.49369
1.49625
1.49595
1.48935
1.48052
1.47863
1.88232
3.48956
1.22615
1.22789
1.22272
1.21667
1.21598
1.21735
1.22094
1.23063
1.23937
1.24339
1.2457
1.24705
1.24423
1.23953
1.2393
1.24097
1.24581
1.25563
1.26187
1.2647
1.26662
1.26675
1.26291
1.26121
1.2623
1.26457
1.27188
1.28188
1.28681
1.28917
1.29071
1.28843
1.2845
1.28427
1.28593
1.2886
1.29711
1.30845
1.31375
1.31629
1.31755
1.31356
1.30922
1.30936
1.31136
1.31395
1.32112
1.33478
1.34245
1.34605
1.34791
1.34411
1.33785
1.33722
1.33914
1.34153
1.34593
1.35922
1.37137
1.37666
1.38001
1.38055
1.37371
1.36945
1.37034
1.37268
1.37593
1.38508
1.40034
1.40934
1.41393
1.41676
1.41491
1.40825
1.40625
1.40846
1.4118
1.4173
1.42993
1.44258
1.44997
1.45488
1.45809
1.45692
1.45097
1.44903
1.45164
1.4558
1.46334
1.47537
1.48479
1.49067
1.49469
1.49676
1.49677
1.4896
1.47908
1.86006
3.45775
1.22741
1.22957
1.2281
1.22238
1.22031
1.22136
1.22348
1.23103
1.23998
1.24453
1.24679
1.24794
1.24603
1.24262
1.24248
1.24409
1.24762
1.25679
1.26402
1.26737
1.26931
1.26975
1.26637
1.26389
1.26465
1.26653
1.27095
1.28168
1.28892
1.29217
1.29414
1.29367
1.28886
1.28704
1.28817
1.2902
1.29437
1.30619
1.31534
1.31932
1.32141
1.32062
1.31482
1.31259
1.3135
1.31522
1.31805
1.32826
1.34194
1.34823
1.35179
1.35312
1.34715
1.34159
1.34114
1.34243
1.34496
1.3513
1.36641
1.37712
1.38174
1.3852
1.3847
1.3767
1.37289
1.37415
1.37701
1.38096
1.39166
1.40589
1.41353
1.4177
1.42142
1.41956
1.41239
1.41047
1.41289
1.41659
1.42243
1.43491
1.44683
1.45375
1.45844
1.46191
1.46133
1.45588
1.45356
1.4557
1.45934
1.4659
1.47714
1.48621
1.49162
1.49491
1.49672
1.49569
1.48896
1.84471
3.42603
1.22777
1.23057
1.23044
1.22749
1.22544
1.22618
1.22765
1.23223
1.2405
1.24524
1.24766
1.24925
1.24857
1.24593
1.24591
1.24742
1.24958
1.25665
1.26549
1.26969
1.27184
1.27316
1.27095
1.26745
1.2673
1.26879
1.27124
1.27949
1.28999
1.29483
1.29725
1.2984
1.29473
1.29056
1.29041
1.29187
1.29421
1.30153
1.31484
1.32175
1.3249
1.32643
1.32248
1.31632
1.31494
1.31629
1.31868
1.32347
1.33743
1.34949
1.35443
1.35735
1.35693
1.34847
1.34348
1.34422
1.34665
1.34995
1.35889
1.37412
1.38294
1.38708
1.38964
1.38719
1.37955
1.37704
1.3788
1.38172
1.3862
1.39819
1.41184
1.41901
1.42296
1.42529
1.42274
1.4166
1.41526
1.41781
1.42152
1.4273
1.43922
1.45078
1.45767
1.46232
1.46565
1.46589
1.46106
1.45794
1.45919
1.46235
1.46765
1.47795
1.48684
1.49189
1.49472
1.49535
1.49669
1.83902
3.39411
1.22835
1.23175
1.23256
1.23144
1.22985
1.23034
1.23168
1.2343
1.24154
1.2469
1.2496
1.25146
1.25203
1.24988
1.24902
1.24997
1.25167
1.2557
1.26556
1.27192
1.2747
1.27635
1.2759
1.27167
1.27001
1.27101
1.27297
1.27752
1.28886
1.29682
1.30014
1.30182
1.30068
1.29505
1.29284
1.29402
1.29618
1.29962
1.31044
1.32239
1.32758
1.33013
1.33006
1.32299
1.3181
1.31876
1.32127
1.32427
1.33104
1.34547
1.35457
1.35845
1.36079
1.35882
1.35065
1.34784
1.34957
1.35229
1.35587
1.36572
1.37962
1.38691
1.39063
1.39366
1.39061
1.38318
1.38155
1.38389
1.38716
1.39194
1.40358
1.41584
1.42219
1.42615
1.42962
1.42791
1.42178
1.42031
1.42268
1.42625
1.43178
1.44304
1.45432
1.46122
1.46582
1.46913
1.47003
1.46615
1.46215
1.46219
1.4647
1.46879
1.47792
1.48659
1.49167
1.49346
1.49822
1.84085
3.36202
1.23016
1.23391
1.23494
1.23495
1.23322
1.23308
1.23427
1.23611
1.24203
1.24943
1.2527
1.25463
1.25601
1.25441
1.25188
1.25192
1.25336
1.25573
1.26365
1.27316
1.27737
1.27926
1.28032
1.27712
1.27366
1.27393
1.27558
1.27774
1.28456
1.29603
1.30169
1.30426
1.30579
1.30236
1.29749
1.2974
1.29914
1.30116
1.30521
1.31755
1.32761
1.33174
1.3342
1.33313
1.3262
1.32366
1.32482
1.32669
1.32902
1.33651
1.35073
1.35879
1.36248
1.36535
1.36249
1.35506
1.35333
1.35472
1.35683
1.36057
1.37171
1.38511
1.39204
1.39565
1.39792
1.3943
1.38816
1.38732
1.3892
1.39173
1.3963
1.40821
1.42058
1.42734
1.43139
1.43409
1.43247
1.42692
1.42528
1.42743
1.4309
1.43584
1.44607
1.45722
1.46422
1.46873
1.47216
1.47393
1.47131
1.46641
1.46493
1.46645
1.46942
1.47696
1.48577
1.4902
1.49658
1.84649
3.32963
1.23315
1.23695
1.23799
1.23859
1.23647
1.23516
1.23566
1.23713
1.24131
1.25076
1.25654
1.25873
1.26028
1.25968
1.25581
1.25442
1.25516
1.25668
1.2608
1.27182
1.27925
1.28249
1.28432
1.2839
1.27936
1.27739
1.2777
1.2787
1.28125
1.29137
1.30276
1.30768
1.31015
1.31052
1.30506
1.30154
1.30141
1.30222
1.30407
1.30991
1.32414
1.33338
1.33734
1.33991
1.33749
1.33022
1.32745
1.32784
1.32944
1.33254
1.34259
1.35692
1.36431
1.36774
1.36991
1.36585
1.35853
1.357
1.35902
1.36176
1.36588
1.37718
1.38979
1.39616
1.39976
1.40246
1.39899
1.39224
1.39094
1.39337
1.39663
1.40151
1.41268
1.42439
1.43091
1.43501
1.43828
1.43794
1.4327
1.43031
1.43183
1.43504
1.4393
1.44831
1.45968
1.46716
1.47176
1.47517
1.47739
1.47618
1.47066
1.46726
1.46762
1.46969
1.47602
1.48354
1.49166
1.85156
3.29635
1.23567
1.24102
1.24198
1.24268
1.24044
1.23747
1.23717
1.23837
1.24093
1.2499
1.25896
1.26277
1.26448
1.26498
1.2611
1.25721
1.25679
1.25798
1.26037
1.26864
1.28028
1.28559
1.28804
1.28934
1.28589
1.28021
1.27868
1.27973
1.28181
1.2872
1.3009
1.31038
1.31399
1.31595
1.31382
1.30626
1.3029
1.30347
1.30522
1.30802
1.31733
1.33213
1.33969
1.34299
1.34484
1.34061
1.3327
1.33036
1.33156
1.33373
1.3374
1.34887
1.3623
1.36861
1.37203
1.37408
1.36963
1.36334
1.36241
1.36374
1.3658
1.37002
1.38219
1.39458
1.40078
1.40437
1.40628
1.40286
1.39741
1.39663
1.39854
1.40107
1.40539
1.41624
1.42812
1.43513
1.43947
1.44253
1.44274
1.43803
1.43488
1.43581
1.43889
1.44289
1.45101
1.46217
1.46992
1.47453
1.47779
1.47998
1.47995
1.475
1.46983
1.4686
1.46996
1.47424
1.48402
1.8516
3.26159
1.23672
1.24452
1.24617
1.24682
1.24508
1.24055
1.23931
1.24045
1.24239
1.24813
1.25926
1.26544
1.26806
1.26922
1.26702
1.26128
1.2594
1.26043
1.26225
1.2667
1.27851
1.2876
1.29119
1.29284
1.29182
1.28503
1.28134
1.28206
1.28401
1.28678
1.29563
1.30938
1.3162
1.3193
1.32031
1.31509
1.3074
1.30585
1.30728
1.30948
1.31337
1.32539
1.33864
1.34448
1.34763
1.34909
1.34264
1.33535
1.33414
1.33528
1.33754
1.3425
1.35595
1.36826
1.37368
1.37683
1.37873
1.37297
1.36574
1.36478
1.36697
1.36988
1.37523
1.38812
1.39932
1.40467
1.40797
1.41066
1.4078
1.40141
1.39992
1.40225
1.40546
1.40994
1.42027
1.43184
1.43874
1.44292
1.44606
1.4471
1.44349
1.44009
1.44051
1.44317
1.44661
1.45308
1.46363
1.47171
1.47642
1.47963
1.48204
1.48315
1.47984
1.47338
1.46982
1.46897
1.47563
1.84224
3.22583
1.23642
1.24611
1.24936
1.25064
1.25032
1.24604
1.24306
1.24356
1.24508
1.24769
1.25636
1.26572
1.26957
1.27144
1.2722
1.26809
1.26391
1.26401
1.26549
1.26751
1.27407
1.28606
1.29247
1.29525
1.29639
1.2928
1.28672
1.28582
1.28723
1.2891
1.29226
1.30317
1.31549
1.32074
1.32355
1.32415
1.31641
1.31031
1.31016
1.31178
1.31396
1.31911
1.33322
1.34466
1.34934
1.3517
1.35185
1.34375
1.3375
1.33781
1.34009
1.34309
1.34984
1.36361
1.37366
1.37824
1.38057
1.38067
1.37473
1.36931
1.36959
1.37217
1.37555
1.38165
1.39374
1.40382
1.40903
1.41198
1.41346
1.41145
1.40672
1.40563
1.40783
1.41098
1.41517
1.42368
1.4344
1.44162
1.44603
1.4494
1.4515
1.44974
1.44598
1.44505
1.44688
1.44984
1.45451
1.46387
1.47284
1.47822
1.48156
1.48395
1.48557
1.4843
1.47797
1.47085
1.46994
1.82334
3.18969
1.23604
1.24476
1.25042
1.25269
1.25394
1.2532
1.24895
1.24734
1.24786
1.24902
1.25265
1.26326
1.27106
1.27422
1.27587
1.27528
1.2702
1.26793
1.26833
1.26941
1.27172
1.28056
1.29235
1.2976
1.29995
1.30014
1.29446
1.29004
1.28992
1.29114
1.29302
1.29763
1.31039
1.32097
1.32523
1.32721
1.32637
1.31849
1.31397
1.3147
1.31693
1.31987
1.32653
1.33935
1.34788
1.35144
1.35331
1.35291
1.34675
1.3434
1.34471
1.34718
1.34982
1.3555
1.36714
1.37576
1.37983
1.38276
1.38446
1.38002
1.37581
1.3763
1.37865
1.38127
1.38566
1.39592
1.40564
1.41093
1.41451
1.41818
1.41811
1.4135
1.41174
1.41311
1.41517
1.41824
1.42499
1.43608
1.44451
1.44952
1.45314
1.45579
1.45564
1.4517
1.44922
1.44998
1.45256
1.45622
1.46417
1.47367
1.47986
1.48336
1.48565
1.48717
1.48729
1.48137
1.47212
1.79986
3.15402
1.23687
1.24181
1.25089
1.25507
1.25684
1.25809
1.25603
1.25164
1.25043
1.2512
1.2529
1.25906
1.27048
1.27649
1.27891
1.28019
1.27774
1.27248
1.271
1.27188
1.27341
1.2767
1.2873
1.29786
1.30223
1.30417
1.30334
1.29696
1.29357
1.29424
1.29609
1.29807
1.30256
1.31485
1.32424
1.32817
1.33062
1.32997
1.32337
1.3205
1.32145
1.32303
1.32478
1.32946
1.3412
1.35025
1.35465
1.35798
1.35863
1.35331
1.35001
1.35015
1.35087
1.35273
1.35753
1.36924
1.3794
1.38471
1.38791
1.3901
1.38662
1.38188
1.38091
1.38189
1.38398
1.38792
1.3981
1.40964
1.41627
1.41989
1.42291
1.42373
1.41921
1.41552
1.416
1.41867
1.42206
1.42809
1.43889
1.44787
1.45315
1.4568
1.45945
1.46031
1.45706
1.45355
1.45343
1.45548
1.45834
1.46433
1.47386
1.48092
1.48468
1.4868
1.48838
1.48858
1.48417
1.78628
3.11954
1.23901
1.24092
1.24971
1.25694
1.2596
1.26118
1.26173
1.25755
1.2541
1.254
1.25499
1.25709
1.26579
1.27693
1.28168
1.28378
1.28452
1.27997
1.2755
1.27498
1.27579
1.27687
1.28044
1.29271
1.30295
1.30719
1.3096
1.30797
1.30135
1.29877
1.29876
1.2989
1.30021
1.30533
1.31909
1.32915
1.3335
1.33641
1.33554
1.3291
1.3251
1.3239
1.32411
1.3261
1.33199
1.34584
1.35631
1.36077
1.36381
1.36443
1.35852
1.3532
1.35237
1.35373
1.35606
1.36087
1.37324
1.38436
1.38985
1.39312
1.39546
1.39199
1.38563
1.38373
1.38543
1.38828
1.39247
1.40217
1.41352
1.42008
1.42407
1.42709
1.42789
1.42373
1.42032
1.42086
1.4234
1.42649
1.4314
1.44133
1.45043
1.45596
1.45963
1.46239
1.46402
1.4624
1.45853
1.45701
1.45832
1.46069
1.46488
1.47342
1.48116
1.48543
1.48781
1.48883
1.49188
1.78297
3.08528
1.24136
1.24192
1.24699
1.25733
1.26228
1.26437
1.26578
1.26424
1.25892
1.25684
1.25697
1.2581
1.26167
1.27372
1.28385
1.28758
1.28932
1.28851
1.28222
1.2782
1.27717
1.27764
1.2795
1.28545
1.30018
1.30974
1.31324
1.31524
1.31216
1.30384
1.2997
1.29957
1.30092
1.30341
1.3114
1.32671
1.33563
1.33913
1.3415
1.33998
1.33188
1.32656
1.32615
1.32772
1.33043
1.33768
1.35247
1.36179
1.36583
1.36868
1.3688
1.3614
1.3558
1.35542
1.35717
1.36003
1.36605
1.37956
1.3899
1.39471
1.39757
1.39923
1.39515
1.38905
1.38826
1.39051
1.39343
1.3973
1.40591
1.41679
1.42348
1.42726
1.42999
1.4319
1.4299
1.42617
1.42563
1.42777
1.43088
1.43468
1.44241
1.45171
1.45805
1.46201
1.46501
1.46736
1.46753
1.46416
1.46134
1.46133
1.463
1.46569
1.47228
1.48059
1.48594
1.48842
1.49299
1.78579
3.05109
1.24365
1.24342
1.24535
1.25509
1.26429
1.26778
1.26932
1.26972
1.26455
1.25971
1.25928
1.2605
1.26232
1.26865
1.28256
1.29038
1.29322
1.2943
1.29069
1.28259
1.27949
1.28001
1.28151
1.28397
1.29298
1.30797
1.31528
1.31828
1.31967
1.31442
1.30482
1.30194
1.30307
1.30516
1.30854
1.31886
1.33318
1.34021
1.3435
1.34574
1.34247
1.33327
1.3295
1.33018
1.33219
1.3356
1.34509
1.35923
1.36672
1.37018
1.37226
1.37117
1.36316
1.35881
1.35984
1.36242
1.36607
1.37281
1.38472
1.39337
1.39759
1.40015
1.40164
1.39899
1.39448
1.39362
1.39552
1.39841
1.40213
1.40898
1.4186
1.42586
1.43046
1.43371
1.43586
1.43536
1.43237
1.43099
1.43203
1.43447
1.43772
1.44366
1.45264
1.46
1.46461
1.46778
1.47044
1.47228
1.47048
1.46614
1.46409
1.46478
1.46671
1.47148
1.47993
1.48565
1.49163
1.79065
3.0163
1.24598
1.2452
1.24621
1.25132
1.26334
1.27021
1.2727
1.27383
1.27151
1.2647
1.2624
1.26318
1.2647
1.26706
1.27617
1.28952
1.29547
1.29803
1.2982
1.29165
1.28459
1.28353
1.28467
1.28636
1.28935
1.30029
1.31345
1.31903
1.32158
1.323
1.3162
1.30797
1.30679
1.30812
1.30998
1.31361
1.32528
1.33843
1.34424
1.34685
1.34836
1.34403
1.33564
1.33381
1.33551
1.3379
1.34193
1.35156
1.3632
1.36915
1.37198
1.37362
1.37307
1.368
1.36546
1.36661
1.36899
1.3717
1.37656
1.38624
1.39466
1.39956
1.40266
1.4054
1.40488
1.40126
1.39999
1.40118
1.40321
1.40576
1.41039
1.41946
1.42794
1.43315
1.43656
1.43967
1.44134
1.43913
1.43638
1.43628
1.43806
1.44068
1.44474
1.45275
1.46144
1.46719
1.47074
1.47342
1.47552
1.47524
1.471
1.4672
1.46661
1.46795
1.47165
1.47912
1.48687
1.79298
2.98023
1.2491
1.24725
1.24803
1.24985
1.25812
1.27021
1.27542
1.27752
1.27792
1.27237
1.26666
1.26596
1.26686
1.26819
1.27138
1.28304
1.29544
1.30029
1.30256
1.3019
1.29375
1.28808
1.2877
1.28871
1.29017
1.29407
1.30661
1.31839
1.3232
1.3252
1.32581
1.31861
1.31161
1.3108
1.31246
1.31476
1.31973
1.33147
1.34201
1.34667
1.34889
1.34976
1.3464
1.34119
1.34026
1.34181
1.344
1.34707
1.35402
1.36401
1.37071
1.37443
1.3774
1.37882
1.37509
1.37185
1.37168
1.37291
1.37494
1.37839
1.3868
1.39677
1.40333
1.40707
1.40983
1.41109
1.40814
1.40481
1.40454
1.40663
1.40947
1.41337
1.42104
1.43027
1.43673
1.4407
1.44354
1.4457
1.44517
1.44195
1.44016
1.44107
1.44353
1.44688
1.45356
1.46269
1.46917
1.47288
1.4756
1.47802
1.47926
1.47634
1.47116
1.46884
1.46956
1.47191
1.48051
1.7882
2.94304
1.25375
1.24981
1.25005
1.25087
1.25369
1.26513
1.2761
1.28039
1.28205
1.2809
1.27365
1.26912
1.26911
1.27061
1.2724
1.27667
1.28953
1.30044
1.30468
1.30664
1.30504
1.29681
1.29179
1.29168
1.29324
1.29513
1.29954
1.31154
1.32169
1.32596
1.32802
1.32831
1.32249
1.31723
1.31692
1.31847
1.32045
1.32392
1.33318
1.34315
1.34862
1.35173
1.35443
1.35288
1.34808
1.34628
1.34641
1.34691
1.34899
1.35476
1.36597
1.37491
1.37951
1.38234
1.38417
1.38146
1.37693
1.37522
1.3763
1.37872
1.3821
1.38942
1.39983
1.40702
1.41105
1.41361
1.41502
1.41347
1.4104
1.40967
1.41113
1.41337
1.41646
1.42279
1.43217
1.43916
1.44347
1.44671
1.44942
1.45027
1.44749
1.44489
1.44504
1.44689
1.44955
1.45412
1.46278
1.47057
1.47517
1.47809
1.48038
1.48196
1.48099
1.47605
1.47205
1.4711
1.47444
1.77526
2.90564
1.26041
1.25327
1.25248
1.25306
1.25406
1.25809
1.27092
1.28083
1.28469
1.28659
1.28432
1.27658
1.27323
1.27356
1.27474
1.27623
1.28055
1.29393
1.30432
1.30831
1.31082
1.30954
1.30153
1.29723
1.29713
1.29772
1.29875
1.3026
1.31456
1.32504
1.32972
1.33254
1.33354
1.32831
1.32289
1.32142
1.32146
1.32265
1.32567
1.33497
1.34702
1.35403
1.35728
1.35973
1.35873
1.35307
1.34902
1.3487
1.3503
1.3529
1.35821
1.36955
1.37885
1.38365
1.38663
1.38885
1.38667
1.38132
1.37947
1.38082
1.3832
1.38629
1.39221
1.40199
1.40932
1.41338
1.41637
1.41935
1.41971
1.41619
1.41388
1.41473
1.4172
1.42005
1.42447
1.43314
1.4414
1.44652
1.44985
1.45253
1.45463
1.45364
1.45014
1.44864
1.44974
1.45216
1.4557
1.4631
1.47147
1.4768
1.47996
1.48235
1.48426
1.48484
1.48147
1.47563
1.47301
1.75513
2.86849
1.26838
1.25982
1.25604
1.25546
1.25542
1.25665
1.26223
1.2768
1.28636
1.28988
1.29154
1.28811
1.27989
1.27629
1.27604
1.27687
1.27881
1.28478
1.29949
1.30981
1.31364
1.31563
1.31387
1.30564
1.30017
1.29936
1.30043
1.30214
1.30666
1.31945
1.33039
1.33506
1.33737
1.33794
1.33306
1.3266
1.3241
1.32468
1.32656
1.32968
1.33893
1.35161
1.35846
1.36186
1.3643
1.36341
1.35659
1.35241
1.35258
1.35433
1.357
1.36225
1.37347
1.38285
1.38758
1.39038
1.39245
1.39135
1.38638
1.38402
1.38494
1.3872
1.39022
1.39498
1.40411
1.41255
1.41749
1.42047
1.42261
1.42352
1.42149
1.41912
1.41907
1.42099
1.4238
1.42769
1.43493
1.44318
1.44897
1.45285
1.4558
1.45806
1.45839
1.45564
1.45327
1.4534
1.45508
1.45766
1.46282
1.47143
1.47811
1.48193
1.48446
1.48638
1.48775
1.48568
1.47836
1.73611
2.83232
1.27448
1.27019
1.26124
1.25783
1.2577
1.2586
1.26045
1.2677
1.28286
1.29137
1.29463
1.29582
1.29142
1.28272
1.27912
1.27945
1.28095
1.28324
1.28989
1.3047
1.31399
1.31773
1.31972
1.3179
1.30956
1.30403
1.30336
1.30439
1.30615
1.31107
1.32402
1.33428
1.33875
1.34146
1.34267
1.33738
1.33013
1.32803
1.32877
1.33054
1.33392
1.34383
1.35608
1.36229
1.3654
1.36757
1.36695
1.36046
1.35641
1.35674
1.35879
1.36163
1.36669
1.3767
1.38553
1.39044
1.39351
1.39574
1.39568
1.39162
1.38896
1.38947
1.39167
1.39463
1.39885
1.40619
1.41405
1.41915
1.42244
1.42541
1.42831
1.42821
1.42537
1.42447
1.42591
1.42787
1.43026
1.43494
1.44325
1.45059
1.45513
1.45823
1.46111
1.4631
1.46164
1.45795
1.45632
1.45737
1.45966
1.46358
1.47165
1.4793
1.48375
1.48641
1.48848
1.48993
1.48839
1.72709
2.79706
1.27782
1.27889
1.27183
1.26345
1.26098
1.26105
1.26178
1.26381
1.2727
1.28807
1.29559
1.29869
1.30033
1.29527
1.28642
1.28363
1.28385
1.2846
1.28658
1.29409
1.30932
1.3181
1.32153
1.32392
1.32247
1.3135
1.30786
1.30723
1.30797
1.30971
1.31503
1.32872
1.33926
1.34361
1.3458
1.34672
1.34082
1.33321
1.33146
1.33272
1.33478
1.33847
1.3478
1.35903
1.36511
1.36826
1.37051
1.37064
1.36542
1.36186
1.36215
1.36396
1.36628
1.36999
1.37834
1.38746
1.39306
1.39632
1.39871
1.40017
1.39787
1.39494
1.39498
1.39681
1.39881
1.4014
1.4066
1.41506
1.42224
1.42676
1.42973
1.4323
1.43353
1.43152
1.42897
1.42862
1.43042
1.43314
1.43719
1.44465
1.45272
1.45822
1.4617
1.46423
1.46614
1.46612
1.4629
1.46018
1.46032
1.46213
1.46501
1.47189
1.48025
1.48539
1.48832
1.49043
1.49314
1.72378
2.76187
1.27943
1.28334
1.28242
1.27385
1.26546
1.26308
1.26326
1.26441
1.2674
1.27873
1.29398
1.30082
1.30344
1.30451
1.29824
1.28887
1.28576
1.28638
1.28788
1.29062
1.29984
1.31492
1.32286
1.326
1.32783
1.32576
1.3164
1.31075
1.31057
1.3121
1.31445
1.32061
1.33379
1.34315
1.34707
1.34914
1.34973
1.34423
1.33778
1.33628
1.33719
1.33911
1.34273
1.35119
1.36159
1.36802
1.37154
1.3739
1.37506
1.37143
1.36712
1.36618
1.36767
1.37018