/*--------------------------------*- C++ -*----------------------------------*\
  =========                 |
  \\      /  F ield         | OpenFOAM: The Open Source CFD Toolbox
   \\    /   O peration     | Website:  https://openfoam.org
    \\  /    A nd           | Version:  12
     \\/     M anipulation  |
\*---------------------------------------------------------------------------*/
FoamFile
{
    format      ascii;
    class       volScalarField;
    location    "2.2";
    object      p;
}
// * * * * * * * * * * * * * * * * * * * * * * * * * * * * * * * * * * * * * //

dimensions      [1 -1 -2 0 0 0 0];

internalField   nonuniform List<scalar> 
46253
(
0.897823
1
1
1
1
1
0.849346
1.11605
1
1
0.900328
0.791779
1
1
1
1
1
1
1
1
1
1
1
0.877112
0.853577
1
1
1
1
1.10272
1.10046
1
1
1
1
1
1
1
1.08233
1
0.839623
0.788794
1
1
0.7544
1
1
1
1
1
1
1
1
1.01829
1
0.855137
1
1
1.242
0.84114
1
1.09056
1
1
1
1
1
1
0.855667
0.756282
0.847848
1
1
1.08932
1
0.873157
1.09144
1.07794
1
1
1
1.00006
1
1
0.850182
1
1.27578
1.27512
1.09753
1
1
0.844996
1
1
1
1
1
1
1.23916
1
1
1
1
1.09661
0.999999
0.847129
0.790418
1.23105
1.23044
0.80789
1.05333
0.999997
0.999981
1
1
1.09011
0.757925
0.837
1.45159
0.863373
1
1
1.00023
0.999424
1
1.45468
1
0.837799
0.999438
1.1604
1.20111
1.19972
1
0.849634
1.23004
1
1.30764
1.3056
0.856162
1
0.989403
1.18473
1.1832
1.08309
0.992921
1.00005
1.28476
1.28205
1.07697
1
0.805623
1
1.28965
1.32134
1.0403
0.755738
0.836325
1
1.26232
1
1.26034
0.792063
0.853376
1
0.853817
1.28965
0.849296
1.28548
1.70583
1
1.25081
1.24888
1
0.838654
1
0.741185
1.07228
1
1.07384
0.760093
1
1.03887
1.23641
1.23461
1
1.26838
1.26835
0.750091
1
1
1
1
1.07986
1
1
1
1.05342
1
1.09931
1.0974
1
1
1.25533
1.25536
1
0.75641
1.03483
1.21949
1.2176
1
1
1.45262
0.839611
1
1.07671
1
1.07858
0.848768
1.20711
1
1
1.20533
0.739278
1.24265
1.24086
0.851449
1
1
1.07644
1.07482
1.17363
1
1
1
1
1
1
1
1.17084
1.19532
1
1
1
1
1
1
1
1.03253
1
1.18993
1.18867
1.1912
1.05492
1
1.0524
1.22621
1.2242
0.870991
0.837566
1
0.853536
0.831621
0.810923
1.08706
1.04023
1
1
1
1.21291
1.17314
1.21175
1
1
1
1.17182
1
1.00003
1
0.993186
0.889498
1.03379
1.03182
1
1
1
1.077
0.817133
0.868316
1.06696
1
1.23026
1.22731
0.847517
1
1.21868
1.13865
1
1.13567
0.846615
1.16258
1.43638
1.16161
0.841839
1.42734
1
1.19597
1.19427
1
1.08798
1
1
1.05991
1
1.15226
1
1.1506
0.848348
1.21561
1
0.981846
0.834173
1
0.852282
0.854974
1.09301
1.06142
1
1
1.14242
1.14131
0.994993
0.994481
1
1
1
1.09396
0.870425
1.17939
1.17723
1
1
1
1
1.4573
1
1.13219
1.13075
1
0.856806
1
1.03534
1
0.755821
1
0.801202
1
1.16793
1
1.1666
1
0.805453
1
1
1
1
1
1
1
1.12281
1
1
1
1
1.12124
1
1.20712
0.853622
1
1
1
0.847682
1.04321
0.838365
1.15771
1.01468
1.15602
1
1
1.11302
1.5032
1
1.07077
1.11195
1.04778
1
1.09477
1.01931
1.01901
1
1.00943
1
0.953324
0.949345
1.20327
1
0.99999
1
1
1
1
1
1
1.3937
1
1.10751
1
1.08142
1
1
0.870531
1
1
1.10336
1
1.1465
1
1
1.10224
1.14552
1
1.06319
1
1
1
1
0.97249
1.02166
1
1
1.02933
0.837779
1
0.826698
1
0.976642
1.04473
1
1
0.865361
1
0.891489
1.0151
1
1.07435
1
1.04298
1.04307
1
1.13689
0.977336
1
0.975579
0.976856
1.13534
1
0.973123
1
1
1
1
1
1.06279
1
1.04979
0.843598
1.08912
0.884301
1.02732
1.08809
1.04993
0.926362
0.927084
1
1
1
1
0.998882
1
0.895163
0.848794
0.77435
0.89747
0.978809
0.834311
0.980877
1
1
1.12722
1.10008
0.805715
1.12613
1.08085
1.07949
0.911464
0.837049
1
0.910593
1.09237
1
1
1
0.833883
1
0.99922
1.08972
1
1
0.984517
1
1
1.08879
0.72579
1.00977
1
1
1.01007
1
1.00702
1.11983
1.00928
1
1.09381
1.08577
1
0.97552
1.09915
1
1
1.11705
1
0.855469
0.877176
1
1
1.11602
1
1
1
1
0.770845
1
1
1.06707
0.886305
1.06579
0.840812
1
1
1
1
1
1
1
0.976688
0.77701
1
1
1
1
1
1
0.852746
1.07594
1
1.05897
1
1
0.839673
1
1
1
1.10788
1
1
1.10659
1.05453
1.12423
1
1.12869
1.12977
1.1344
1.03332
1
1.05915
1.0582
1.07023
1.07164
1
1
1.08672
1
1.43364
1.06126
1
1.43174
1.00017
1
1.0859
1.09541
1
1
1.11144
0.981537
1
1
1.00714
1
1
0.999974
0.999997
0.987935
0.994524
1.25042
1.25559
0.742003
0.979577
1.22905
1.05751
1.23081
1.21771
1
0.853978
0.88021
1.21964
1
1.20712
1
1.2087
1
0.981912
1.19698
1
1.19847
1.33284
1
1.18542
1
1.1874
1
0.772255
1
0.888928
0.879816
1
1
1.17467
1.17641
1
1.00427
1.16411
1.16578
1.00596
1
1
1.1492
1.04582
1.15104
1
1.09396
1.13925
0.839673
1.14052
1.0448
1.09235
1
1
1
1.12886
1.12998
0.963734
1
1
1.11761
0.907502
1.11961
0.832927
1
1.1023
1.10357
1
1
1
1.06179
1
1.1001
1.0152
1.10444
1
1.08854
1
1.08923
1
1
1.10357
1.10404
1.07827
1.08038
0.974074
1.11672
1.0703
1.12041
1.07141
1
1.02054
1.05767
1.05925
1
0.871883
1.04778
1.04799
1.60577
1
1
1
1.03947
0.977685
1.04197
0.733361
1.09451
0.973861
0.807315
1.03174
1.032
1.01479
1.02413
1.02551
0.857084
0.856629
1
1.06159
1.46308
1.03712
1
0.818879
1.03604
0.842578
1.0968
0.858461
1
1
1
1.08487
1
1
1
1
1
1.08411
1
1
1
0.873724
0.873694
1
1.01525
0.740542
0.894261
1
1
1
1
1
1.06777
1
0.9756
1
1.11971
1.09821
1.12219
0.848085
1
1.03731
0.844287
1.13294
1
1
1
1
1
1.12446
1.12365
1.07534
0.865961
0.865587
1
0.887551
1
1
1.12657
1.01143
1
1.13128
0.999924
1
1.0187
1.0253
1
1.12886
0.837725
0.970924
1
0.979738
1.02462
1
1
0.974075
0.983577
1
1.02368
0.742418
1
1
1.15891
1.16072
0.978307
1
0.741628
0.74611
0.847608
1.09622
1
1.06761
1.0616
0.836357
1.32326
1
1
1
1.11304
1.11416
1
1.00013
1
1.07168
1.09799
1
1.0001
1.09892
1.07035
0.97927
0.975292
1
0.972972
1.0103
0.822603
0.973449
0.841572
1.0658
1
1
1.06678
1
1
0.981222
0.976755
1
1.0163
0.880061
1.00287
0.865675
0.869123
1.01489
0.865548
0.866897
0.83059
0.828826
1
1
0.981993
1
1
0.978043
0.888749
0.871804
1
1
1.01373
1
1.10294
1.01478
0.999093
1.09151
1.06921
1.00001
1
1
1
0.979426
1.1169
1.01103
0.747377
1
1.06259
1
0.994334
0.9948
1.06202
1
0.991153
0.980873
0.988343
1
1
1
1
0.980951
1.06613
1
1.00171
1
0.864679
1
0.868615
0.894153
0.848784
1
1.00938
1.00847
0.834767
1.38255
1
0.868987
1.07765
1.07681
0.868969
1
1
0.972507
0.72782
1
1
1.11043
0.764198
1.0951
0.974048
1
1
1
1
1
1
1.50756
1
0.894416
0.852495
0.84654
0.958373
0.738536
0.725502
0.750816
0.867935
1.07925
0.894421
0.734376
1.19132
1.20235
1.21264
1.17995
1.19309
1
1.06705
1.20379
1.22294
1.18172
0.976083
1.21449
1.14702
1.16914
1.22502
1
1.22958
1.17085
1.23208
1
1.15432
1.23537
1.21339
1.18707
1.15561
1.00071
1.25829
1.14383
1.00027
1
1
1.14543
1
1.13388
1
1
1
0.998683
1.13575
1
1
1
1.12377
1.13538
1
1
1
1.12529
0.997613
0.756191
1.10749
1
0.950192
1.10944
1.09278
1.0942
0.850185
1.08418
1.08544
1.07433
1
0.879535
1.07497
1
1.06249
0.852059
1
1
1.06287
0.894933
0.758336
1.05137
1.05356
1.04571
1.04966
1.04586
0.732168
1.035
1
1.00925
1.04859
1.03573
1.00787
0.988425
0.977166
1.02861
1.00397
1.00567
0.853752
1.02904
1.01816
1.01971
0.894899
0.776637
0.729719
1
0.778584
1
0.775674
0.768354
0.744152
1
1.44954
1.01016
1
0.996104
0.992257
1.06875
1.07731
1
1.08659
1.13148
1.1417
0.977179
1.10091
1.12589
1.13325
1.1281
1.12313
1.06664
0.854502
1.01169
0.973895
1
0.954506
0.881116
0.840783
0.994676
1
1.18465
1.12471
0.793745
1
0.988738
0.836387
0.967268
0.986169
1
0.998387
1
0.913953
0.994343
0.997656
1.12232
1.00603
1.0131
0.802347
1.04066
0.970646
1.03982
1.00873
0.849086
0.792378
0.873691
0.792247
0.952526
1.13777
1.01215
1
1.13674
1.22067
0.916824
0.984198
1
1
1
1.00406
1.00001
1
1
0.742139
0.988663
0.839674
1
0.849365
1
1.0018
0.929154
1
1
0.72174
0.836169
1.25364
0.841312
1.11783
1.11743
1.00001
1.14399
1.10498
1
0.98412
1
1.00159
0.978703
0.995211
0.889102
1
1
0.951326
0.991951
0.997455
0.980275
1.10326
1.10342
1
0.978298
0.999249
0.976843
0.974696
0.83371
1.00631
1
0.932733
0.836639
0.994841
0.820153
0.994205
1.12613
1
1
1
0.888294
0.983058
1
0.976148
0.98359
1.05138
1.10114
0.866928
0.979309
0.722978
0.853619
1.17814
1
1
0.934478
1.19541
1
1
1
0.977038
1
0.978053
0.766663
1.05708
0.991416
1
1
0.991513
1
1.29908
0.97934
1.27134
1.30468
1
0.767994
1.27364
0.984882
0.993571
1.17293
1
0.836607
1.24805
1.2139
0.939338
1
1.16423
1.25205
1.22801
0.999995
1.00177
0.730662
0.999999
1
0.866711
1.23039
1
1.1902
1.0067
1
1
0.846568
1.20936
0.972981
1.08015
1.23291
1.02869
0.83593
1.00009
1.20871
1.21178
1.00373
0.971695
1
1.00152
1.02747
0.983582
1.1231
1
1.1888
1
1
1
1.18711
1
1
0.904725
1.05269
1
0.912881
1.19222
1.1172
0.979517
1
1.04982
1
1.11037
1
1
1
1
1
1.04458
1
1
1
1
1
1
1.08337
0.739378
1
0.986901
1
1
1
1.09368
0.889355
0.775297
1
0.782714
1.00843
1
1
1
0.98659
1
1.13203
1
1.22808
0.860256
0.798814
1
1
1
1
1
1
1.24976
1.24545
1.10025
1.22423
1
1
0.99999
0.99999
0.866354
0.993839
1
0.99491
1.11885
1
1.18575
1
0.964298
0.966025
0.876656
1.17293
0.860757
0.956252
1
1.19051
0.975574
0.976112
1.12157
1.12495
0.82082
1.12617
1.12118
0.99979
1.12311
1.12435
0.962094
1.16111
1.16394
1.04194
1.12722
1.1246
1.15668
1.1651
1.12379
0.961537
1.1277
1
0.986171
1.12656
1.15796
1.27126
0.873063
1.10829
1.12715
1.1422
1.02116
1.14967
0.810055
1.15081
0.890815
1
0.966284
0.835735
1.02
1.09577
1.14366
1.12966
1.02629
1
1.05458
1.20494
1
1
0.748152
1
1
1.08425
0.840138
1
1.13165
1.12496
1.13295
1
0.859453
0.970584
1.12524
1.12382
0.755006
1.12606
1.03546
0.9643
1.17651
0.85224
1.18426
1.11796
1.15562
1.11922
1.10918
1
0.85528
1
1.04671
1
0.743337
1.06834
1.11023
1.13217
1.02874
1.13408
1.09925
1.16075
1.11979
1.01798
0.88436
1.18162
1
1.09915
1.09958
1
1.00001
1
1
1
1
1
0.904012
1
0.956854
0.739836
0.853831
1.19865
0.741068
0.85729
1.09393
0.828537
1
0.74765
0.956642
0.867241
1
1.09609
0.988667
1
1
1.24416
0.747086
0.875015
0.868416
1.00569
1
1
0.730872
0.982799
0.975887
1.17017
0.730478
1
1
1
1.1247
1
1.1978
1.2067
1.05274
0.73853
1.17574
1.19003
1
1.06946
1.1876
1.26989
0.963233
1
1.23573
1
1
0.964357
1.17872
1.04477
1.21746
0.741649
1.22916
1.24183
1.16657
1
1
1.1117
1.02165
1
1.01203
1
0.781113
1
1
1.1497
0.753859
1
1.16029
1.08677
1.16334
1
1
1.01171
1.18295
0.76397
0.857772
0.770669
0.974137
0.95134
0.965081
0.752606
1.00661
0.956396
0.985504
1
1.15203
0.745091
0.764051
0.976962
1.15714
1.04723
0.896218
1
1
0.986147
0.98619
0.850121
1
1.12424
0.883054
1.13663
1.1249
1.13749
0.96861
1.12242
1.16774
0.739472
1.16794
0.732255
0.960287
1.12548
0.96754
1.08405
0.735443
0.893078
1.11999
1
0.904801
1.06292
0.838801
1.2515
0.878452
1.10533
1.14349
1.2516
0.759723
1.11062
0.980272
1
1.14289
1.11317
1.17512
1.20114
1
0.994507
1
1.00757
0.888479
1.01405
0.810487
0.771012
1
0.768588
0.797476
1.10531
1
0.742725
1.05334
0.986694
1.13862
1.05988
0.745642
0.895021
0.975671
0.990864
1.13999
0.768058
1.08051
1.09015
1
1.09073
1
0.973666
1.23887
1.08176
0.849888
1.21218
1.04003
1
0.772658
1.11519
1.01762
1
0.851996
1.1162
1.15117
1.39026
1.06607
1
1.06121
1.277
1.06604
1
1.10555
1.06831
1
1.14896
1.10674
1.01924
1.34075
1.096
1.06209
0.918305
1
1
1.09735
0.790352
1
0.781115
0.986252
1.15294
1.16024
0.786575
1.06331
0.861354
1
0.801601
1.29703
1
1
1.17533
1.29351
0.784407
0.942532
1.04521
0.802839
0.788605
0.980303
0.913849
1.04577
1.03894
0.964543
1.21251
0.982331
1.04089
1.11454
0.942667
1.07809
1.105
0.956016
1.0871
0.778436
1
0.983583
1.30339
1.02677
1.18036
1.29722
0.854925
1
1.02848
1.00539
1.07842
0.874891
1
1
0.972089
0.971794
0.861091
1.10156
1
1
1.10338
0.938987
1.00457
1
1
1.09397
1.01308
1.01482
1.24764
1.08962
0.804543
1.07285
1.00744
1
0.803897
1.00177
0.837855
0.793979
0.976045
1.1222
1.37076
1.17099
0.978068
1.06394
0.934715
1.06326
1.17203
0.85389
1.09672
0.98102
1
1.09251
1
1
0.933802
0.923082
0.949777
0.929966
1.24727
1.0194
1
1
0.944635
1.1444
0.822411
0.843735
0.983539
0.82052
1.057
0.993739
1.14656
0.826832
0.789293
0.977837
1.32102
0.846901
1
0.987317
0.987562
0.824526
1.30228
0.991198
0.975598
1
1
0.980916
0.969876
1.2857
1
1
0.967759
1
1.12179
0.837838
0.831086
0.885334
0.980363
1.12183
0.951321
1
0.828019
0.89104
1
0.835037
0.743723
0.953812
0.977773
1.08912
1
1
1.00557
0.956888
1.06042
0.831016
0.834392
1.3001
0.882018
1
1
1.09847
1
1
0.844066
0.971454
1.05098
1.102
1
0.740541
0.825338
0.89675
1.11481
0.896727
1.20477
0.964438
1
1
1
0.867663
0.952245
0.987412
0.894353
1
1
0.74756
0.895774
0.851968
0.833346
1.07785
0.992464
0.889922
1
1.15966
1
1.0785
1
1.00041
1
0.850809
1
1.10205
1
1
1
1
1
1
1
1.08723
1
1.00023
1.16681
1
1.04186
1.06623
1
1.00454
1.04468
1.14608
1
1
0.938953
0.836444
0.90302
1.01174
1.16761
1.16079
1.00206
1.04357
0.961968
1
1
1
1
1.01273
1.05463
1.15272
1.0136
1.01488
0.901457
1.05803
0.935433
0.904846
0.985072
1.12824
0.822227
1.14745
0.9816
1.15428
0.985561
1
0.999996
0.822831
1.1151
1
1
0.99758
0.835546
0.918317
0.987011
0.840658
1.13526
1
0.885702
1
1.02159
0.820878
0.841807
1.13602
0.864956
0.918308
0.973294
1.12946
0.999364
1.13641
1.05791
1
1.13286
1.00309
0.872168
1.11241
1.244
1.01892
1
1
1.0559
1.12133
1.11638
1.09211
1.29607
1.01154
0.837978
0.970712
1
1.11735
0.967518
1
1.12292
0.955595
0.835156
1.11326
1.04802
1.01614
1.03492
1.10175
1.03101
0.98932
1
0.999759
0.995162
1.10287
1.0248
1
1.00243
1.04703
1.11389
1.01925
1.09342
1.11866
0.982515
1
0.865577
1
0.983532
0.82897
1
1
1.29334
0.809681
1.16957
0.828912
1
1
1.18363
0.983584
1.01829
0.839302
1
0.918277
1
0.975208
1.26691
0.772572
1.05804
0.818731
0.976385
1
1.19009
1.01164
1.0066
0.903035
0.972607
0.979293
1.04258
0.970972
1
1.21316
0.992138
1.25975
1
1.19416
1.18656
1
1.02389
0.841958
0.987799
1.03069
1.17576
0.736605
1.00957
0.99975
1.15509
1
1.1665
1.0054
0.972148
1.411
1.04328
1
1
1
0.984209
1.07937
1.16836
1.0947
1.15724
1.01206
1
1
1.30459
1.14879
1.12954
0.895544
1
1.06585
1
1.0838
1.10052
1.07702
1.14004
1.28063
1.0621
1.04669
0.997034
1.14133
1.13258
1.01311
1
0.894333
0.737915
1.03996
1
1.10688
0.948357
1
1
1.01605
1
1
0.975133
0.861701
1.08095
1.11788
1.15621
1.00004
1.14694
1
1.0174
1.00012
0.909176
0.929667
0.907244
1.11966
0.825869
0.776515
1.10735
0.862863
1.00135
0.837283
0.920523
1.12109
0.847813
1.08515
1.00094
1.09894
0.998817
0.771311
1.09293
1
1
1.05231
1
1.07091
1
1.0946
1.09422
1.08742
1.06753
1.04921
1.15227
0.851194
1
1.18143
0.932269
0.965378
1.04866
1.15365
1.18496
1.01138
1.06305
1
1.07892
1.07294
1.00073
1.02807
1.10731
0.926425
0.883592
1.1484
0.839114
1.01069
1.10435
1.07524
1.00225
0.940147
1.06326
0.976015
1
1.14994
1.02023
0.992852
0.935418
1.02332
0.995672
1.01285
0.925698
0.846315
1.05905
1.03647
0.862949
1
1.11293
1.07398
0.935296
1.09043
0.95044
1.14106
1
1.04851
1.0434
1
1
1
1
1.1424
1.19256
1.0319
1.14652
0.932826
1
1.05039
0.992831
1.10134
0.99858
1.04346
1.05293
1.05431
1.08599
0.917046
1
1
0.968555
1.14416
1
1
0.982955
1.11683
1.03499
1.13691
1.06832
1.10704
1
1.03581
1.05976
1.03384
1.12322
1.13698
1.0698
1
1.02382
0.90366
1
1.13792
0.965747
1.12721
1.00067
1.131
1.02452
0.904448
0.748296
1.21711
0.754951
1.15203
1.14019
1
1.05835
1.1063
1.14683
1.04758
1
1
1.06078
1.01081
0.902093
0.791589
0.983431
1
1.12784
0.969428
1.16779
0.85235
1.00973
1.16119
1.1639
1.09532
0.799744
1.1292
1.15645
0.851956
0.996846
0.985139
0.857826
1.23007
0.993329
0.835327
0.986548
1
0.980068
1.05074
1.0493
0.918495
0.970118
1.17773
1.32315
0.896865
1.05443
1.02232
1.05773
0.873978
1.04764
0.863886
1.17384
0.971137
0.955715
1.03621
0.947015
0.987341
1.06696
1.04184
1.04692
1.171
0.956767
1.05777
0.948557
0.861051
0.872304
1.06243
0.873565
1.24528
1
1.06195
1
0.907292
1.24838
1
1
0.902879
1.18589
1
0.982589
1.12399
1.30322
0.972389
1
0.794458
1
0.949148
0.878372
1.22401
0.868097
1.0524
1.22723
1.05271
1.01527
1.01924
1
0.849864
1
1.2086
1.12421
1.17717
0.988938
0.925693
1.17715
1.21126
1.17806
1
0.92462
0.79006
1.1972
1.00001
1.19296
1.11011
0.981173
1.20191
1.00065
1.05106
1
0.944799
1
0.879425
1.29621
0.944912
0.796281
1
1.18885
0.900346
0.942409
0.782555
0.999569
1.18985
0.978389
1.0974
1
1.03618
1.0386
0.991571
1.19212
1
1.1759
0.996629
0.972096
1.18841
1
0.996186
1.17786
1.02433
0.884939
1.20055
1
1
1.19548
1.16752
1.20832
0.823229
1.20416
1.17109
1
0.931518
1.03618
1.09558
1.15777
0.986253
0.88348
0.881124
1.23008
1.15953
1.18639
0.994446
1
1
1
0.884052
1.14761
1
1.02096
0.848838
1.21202
1.07175
1.01803
1.05176
0.916799
1.14947
0.987197
1.01735
1.04984
0.741513
1.02586
1.12177
1
1.00027
1.13085
0.961504
1.05141
1.12182
1.11651
1.21724
1.02435
1.23341
1.22873
1
0.910404
0.775382
1.13859
1
1
1.04111
1
1.22557
0.879498
1.14145
0.971962
1
1.04289
1.02489
1.03773
1.13417
1.0502
1.02826
1.12923
0.968802
0.979254
1.22099
1
0.92976
0.98178
1.04856
1.13567
1.12924
1
0.958269
0.809881
1.01472
1.23751
1.03208
0.992017
1.2423
1.01543
1
1.01258
1.0649
0.896113
1.52616
1.07195
1.31224
1.11754
1.0086
0.784672
1.18002
1
1
0.997397
1.05906
1.12144
0.994833
0.975789
1.0684
0.995776
1.17187
0.980078
1
0.736163
1
0.792046
1.06664
1.1102
1.11158
0.898075
1
1
1.24679
1.27059
1
1
1.08503
0.897393
1.06871
1.25646
1.08236
1.05935
1.09459
1.09251
1.1177
0.883277
1
1.0604
1.0975
0.926238
0.885336
0.870829
1.08927
1.01585
1
1.12642
1
1
1.32502
0.884969
0.970132
1.23437
1.08552
1.30377
0.887027
1
1
1.08707
1.33296
0.960452
0.823628
1.1069
1
1.24015
1.077
1.10354
1
1
1
1
1.11448
1
0.981548
1.07167
0.930912
1.05768
1.0732
1
1.11125
1
1
1
1.12208
1.06167
1.06609
1
1.0952
1.11911
0.895156
1
1
0.867966
0.980541
1
0.887389
1.13132
1
1
1
1
1
1.05095
1
0.945989
1.12843
1
1.15342
1.01041
1
1.05331
0.777535
1
0.877569
1.10893
1
1
1.15042
1.17245
1
1
1
0.870309
0.88285
0.944049
1.14668
0.854528
1.15356
1
1
0.879195
1.14995
1
0.89014
1.14328
1
0.961045
1
1.06058
1
0.956635
1
0.847258
1
1
0.915569
0.777383
1.14794
1
1
1.05825
1
0.967973
0.88582
1.16824
0.795109
1
0.749513
1
0.896281
0.897652
0.967593
0.969079
0.999877
1.05313
1.16118
0.967758
0.977722
0.914245
1
1.00159
0.963933
1
1
0.859557
0.869216
1.05517
0.772744
1.06292
1.14534
0.999927
1
1.06121
1.30467
0.901519
1.07098
1.14647
0.937585
0.981037
0.899762
0.885566
1.17694
1.1381
0.901669
1.06793
0.97865
1.07265
1.04686
0.84781
1.02895
1.14353
0.894064
0.848899
1
1.10462
1
1
0.79181
1.08189
1.14748
1.04388
1
1
1.03104
1.11701
1
1.13919
1
1.07999
1.10739
1
0.714381
1
1.07947
1
0.996324
0.893808
1
1.14666
0.835147
1.07825
1
0.784321
1
0.737978
0.992968
1.00024
1.08572
0.987356
0.770072
1.09049
1.08165
0.881213
1.20247
1.13089
1.14008
1.00517
1.08361
1.08647
0.772219
1.08367
1.11856
0.889517
1
1.15895
1
1.29993
0.885828
1.09557
1.09443
0.765368
1.00507
1.03437
1
1.0247
1.10657
0.988442
0.968016
0.910352
1.13254
1.01075
0.912109
1
1.05611
1.09302
1
1
1
1.09321
0.914623
1.08012
1.05766
1.00102
1
1.10339
1.12605
1.05206
1.10066
1.04441
1
1.3034
0.77036
1.09996
1.25154
1.04697
1.04938
1
1
0.910294
1.09865
0.95684
1.19319
1.22943
0.986799
0.988635
0.985009
1.36101
1.25064
0.988543
0.881189
1
1.04231
1.11009
1.02719
1
1.11374
1
1.20299
1.01904
0.908759
1.22138
1.21442
1.10281
0.926093
1.03955
1.06569
1.18212
1
1.11317
0.974841
0.923996
1.0624
1.11177
1
1.23064
1.10717
1.20527
0.974974
0.966017
1
1.24029
1.06392
1.33162
1
1.1686
0.881223
1.05127
1.20574
0.921399
1.21951
1.19124
1.0558
1.18466
1.22426
0.994384
1.11724
1.14502
1
1.02
1.07318
1.20808
1.18164
1.15719
0.888519
1.26598
1.12499
1.24378
1.01157
1.03052
1.12583
1
1.1153
1.19382
1.06986
1.17338
1
1.12302
0.889295
1
1.34102
1.18596
1.16177
1.08238
1
1.27031
0.941921
1
1.17423
1.13164
1.15262
1
1
1.07996
1.1641
1
1.12946
1
1.14391
1.12327
0.883709
1
1.15518
1
1.13175
0.791631
1
1.03793
1.13882
1.14556
1.12516
1
1
1
1.09291
1.13673
0.939606
1.13411
1.02074
1.11297
1.13696
0.855129
1.02481
1.16488
1
1
0.98794
1.02397
1.02535
1
1.09064
1.16799
1
1.12764
0.941375
0.9288
0.942115
1.14582
0.999625
1.1002
1.13464
1.10779
0.932633
1.11476
1.05341
1.00004
0.894309
1.01245
1.10286
1
1.33274
1.1437
0.892066
1.08955
1.24019
0.81833
1.01462
0.889005
0.858008
1
1.10205
1.14415
1.05659
1.10045
1.14462
1
0.805065
1.07562
1.06917
1.15264
1.09134
1
1
1.14204
1.06954
1.05373
1
0.856725
1
1
0.813427
1.15047
1
1.07878
1.2111
1.08663
1
0.912808
1.07711
1.15199
1.05486
1
1.07041
1.09911
0.969008
0.772896
1.1991
0.961796
1.1141
1
1.16102
1.07127
0.817806
1
1
1.03998
0.856301
1.05445
1.0005
1.11146
1.14999
1.15905
1
0.983655
1.06933
1
0.837925
1.04192
1.03097
0.895844
1.09919
1
0.879932
1
1.15945
1.02246
1
1
1.12232
1.06022
1.08898
1.05172
0.796335
1
1
0.945832
0.84726
1.12672
1.07787
0.997907
0.897282
1.15716
0.813149
1.1727
1
1.12395
1
1.17003
1
1
1.05912
1
1.16709
0.981591
1
0.724839
1.13457
1.11149
0.893103
0.999742
1.02348
1
1.00614
1.14456
1
1.16502
1
1
1.04901
1.13226
0.954809
1.11567
1
0.892705
0.992605
1.41011
1.19861
0.831712
1
0.958414
0.843747
1.19377
0.953816
1
1
0.966166
0.976464
1
0.746877
0.99834
1.14523
0.983954
1.17534
0.7964
1.17886
0.964423
0.998627
1.07019
1.01344
1.01513
0.975563
1.14239
1.06508
0.948878
0.926779
0.999919
1
1.17347
0.995437
1
1
0.888101
1
0.996769
1.06359
1.05333
1
1.1539
1.14172
1.06346
0.945337
0.846355
1
1.18485
1.06087
1.29227
0.772163
1.15114
1.0639
1.07245
0.942647
1.07156
0.878791
0.790772
0.789279
0.974859
0.797228
1.18172
1.17186
1
0.991131
1
0.80903
0.874934
1.24697
1.23209
1
1.12885
0.847591
0.88151
0.827497
1.16323
1.09283
0.800741
1
1.02579
0.888684
1.20771
1.12084
1.04725
1
1
1
1
1.07724
1.06111
1.16032
0.809535
1.12693
0.899591
0.999988
0.918681
1.23561
1.0677
1.24991
1.04421
1.01952
0.941851
1
1
0.789987
1
1.05903
0.919788
0.81988
1.08015
1.04949
0.96313
1.03192
1
1.06427
1
1
0.911425
1.17267
1.06162
1.2113
0.950335
1.0546
0.946
1.32373
0.949143
0.819692
1.09547
1
0.885768
1.17016
1.01324
1.05231
1.07318
1.04885
0.75686
1.05393
1
1.04661
1.07273
0.830132
1
1.07905
0.94364
1.02268
0.885054
1
0.750061
0.749749
1.0474
1
0.964448
1
1
1.01671
1
1
1.07242
1.12997
0.862572
0.944568
0.829069
1.07734
1.04853
1.18101
1
1
0.901956
0.897822
1.05935
1.02981
1.09002
1
1.05718
0.791578
1.04893
0.95814
0.88989
0.787921
1
1.12452
1.07425
1.06129
1.17865
1.0087
1
1
1.31086
1.04824
1.18627
1.05297
1.08806
1.08595
1.02704
0.99812
1
1.07373
1.05623
1.18241
1
1.04829
0.909387
0.778517
1
1.00645
1.0893
0.899898
0.971755
0.843975
1.08627
1.1668
1
1.12633
1.05196
1
1.04749
1.03939
0.791551
0.792773
1.06996
1.08353
1.05071
0.842475
1.09762
1
1.09896
1
0.851907
1
0.999991
1.08971
0.794544
1
1.03621
1.19014
0.968466
1
1.16277
0.960767
1
0.968086
0.839086
1.0946
0.961102
1.09826
0.959607
0.776982
1.18741
1.04669
1.05922
0.826296
0.949365
1
1.09539
0.944799
0.952707
0.983173
0.966603
1
0.798241
1.10085
0.914082
1
1.09946
0.849541
1
1.06631
1.02262
1.10591
1.07699
0.952001
0.907868
0.952951
0.96486
1.07342
1
0.926464
1.1338
1.06113
0.963294
0.859823
1
0.846486
1.02315
1
1.05982
1
0.885453
1.01991
1
1.10397
1.07439
1
1.0276
1
0.94724
0.950536
1.13156
1.11525
1
0.795117
1
1.14744
1.35522
1.0339
1
1.06118
1.18493
1.07575
1.10781
1.02651
0.903893
0.941968
1.02602
1
1.25811
0.857325
1
0.897333
1.11825
0.908983
1.03596
1.22971
0.788666
1.20423
0.941603
1
1.11069
1.19223
1.14647
1.06678
0.961802
1
1.14606
1
0.855066
1
1.20182
1.07902
0.891505
1.00001
1.08663
1.11581
1.18823
1
1.15939
1.34943
1.20003
1.03925
0.85231
1.15031
0.865615
1.06498
1.23907
1
1
0.961163
0.976972
1.14559
0.983092
1.18167
0.965319
0.897449
1.16277
0.908311
1
0.942373
0.902152
1.19537
1
0.864001
0.855355
0.790704
1.06695
1.0772
1
1
0.920507
0.825498
1.14882
1.08744
1.12315
0.991881
1.05176
0.78919
1.23275
0.976791
0.996582
1.2401
0.851826
0.928116
1
0.937674
1.32339
1.07421
1
0.936774
0.97123
0.755563
1.15891
1.10793
1.12527
1.04585
1.0163
0.910229
1.05695
1.1562
0.944298
1.09806
1.09073
0.987866
1.10473
1.08333
1.11405
1
0.953366
1.0768
1.06749
1
0.957447
1.05255
1.05259
1.23742
1.06471
1.13305
0.791243
1.06473
1.04526
1
1.06822
1.12103
1
1.14057
1.07018
0.946509
0.961208
1.05177
1
0.95358
0.937121
1.07796
1.0686
0.984646
1.10031
1.14819
1.05395
1.05006
1
1.26219
0.942916
0.964013
1.0786
0.992106
1.08094
1.15528
1.31788
1
1.03253
1.16915
1.09655
1
1.08733
1.10191
0.958756
1.08246
1
1.07318
1.11176
1.0532
1
1.15472
0.992224
1.10776
1.11837
1.05392
1.12767
0.802587
1.09507
1.16322
1
1
1.21417
1.18252
1.13068
0.952964
1.11031
0.944122
0.885308
1.01131
0.981287
0.993919
0.883313
0.880113
1.07938
1.10977
1.13849
0.941897
0.927512
0.961732
1.13708
0.988546
1.02788
1.10548
1.14587
1
0.975417
1.04338
1.05214
1
1.17159
0.95407
1.06108
0.995822
1.00001
1.15341
0.998672
1.11731
1
1.03264
1.05723
0.950476
0.783998
0.990905
1
0.893702
1.12282
1.12132
1.11136
0.785108
1.04112
1.22135
1.09853
1.16117
0.934231
1.30821
1.03758
0.877845
1.11155
0.816949
1
1.11513
1.17969
1.01167
1.32454
1.03064
1
1
0.924633
1.05583
0.806909
1
0.886236
0.833913
1.11538
1.11075
0.997609
0.947076
1.10565
1.16895
1.11404
1.12541
1
0.949797
1.03111
1.10363
1.27591
1
1
1.0123
0.994438
1
1.22414
1.11792
1
1.03978
1.22414
1
1
1.00814
0.879016
0.91999
0.779698
0.89533
0.920085
1.04304
1.17718
1
1.01172
1.1401
1
0.850623
0.896837
1.1291
1.02512
1
0.798125
0.83829
0.8977
1.04032
0.741326
0.999776
0.967471
0.999219
1.0606
1.04434
0.902179
0.880525
1.12428
1
1.05443
1.03696
1.10049
1.18663
0.898527
0.92299
0.87616
0.914208
1
1.0468
1
1.13175
1.17884
0.744862
0.915043
0.901774
0.930937
1
0.900169
1
0.79374
0.798459
0.983489
0.90317
0.969541
0.898629
0.999984
1.04334
1.35275
1
1.04476
0.91673
0.834408
0.921091
1.22381
1.21594
1
1.10355
0.905072
1.26093
1
0.902142
1
1.19368
0.902654
1.03736
1.04131
1
0.749334
0.966912
0.918557
1.10048
1
1
1
1.02472
1.07869
1.1274
1.00093
1.20522
1.17408
1.2203
1.11847
1.06242
0.7751
0.832787
1.17618
1.19196
1
1
0.886281
0.892465
0.999191
1.00035
0.915065
1
1.00254
1
1.03983
0.997382
0.939298
0.918389
0.870548
0.749821
1.16507
1
1
0.855815
1
0.920962
1.05434
1.06314
1
0.940727
1.02478
1
1
0.901014
1.01866
0.91364
1.04896
1.08457
0.746693
0.942635
1.12973
0.87047
0.929179
1
1.31238
1
1.06826
1.04529
1.01615
1
1.36201
0.828318
1.16253
1.07879
1
1.05158
1.17906
0.980813
1.24944
1.08955
1
0.906774
1
1
1.08587
1.05691
0.895756
1.14819
1
1.06447
0.913645
1
0.88386
1.1205
1
1
1.20652
0.957198
0.749525
1.25752
1
1.09824
0.981483
1.04774
1
1.21251
0.916157
1.17745
1.06076
0.904823
1
1.0286
0.823883
1.11958
1.0616
1
1.10981
1.20616
0.904088
1.0662
1.08767
1.15576
0.974933
0.870061
1.00963
0.858191
1.18244
1.07668
1
1
1.25806
1.32497
1.0759
1
1.02333
1.00809
1.17442
0.93001
1
1.17466
0.907635
1
0.931665
0.868826
1.04769
1
1.12216
1.08719
1
0.81357
1
1.05657
0.959949
1
1.07374
0.936674
1.09481
0.986611
1
1.11327
0.831041
1.04491
0.959029
0.877945
1.0074
1
1.0405
1.1212
1.11689
1.23492
1
0.882254
1
1.08561
1.13094
1.3641
1
0.844
1
1.10738
1
0.90622
1.04501
0.976668
0.834178
1
1.14638
0.782375
0.98612
0.996723
1.13996
1.20897
1
1.0831
0.942375
1
1
1.0086
1.11983
1.06621
1.04681
1
1.22161
1.12263
0.997067
0.953965
1.0189
1.0958
1
1.09854
1
0.886799
1.22445
1.19891
1.00045
1.28765
0.931321
1.1493
1.16545
1.12863
1.14334
1
1.15098
1.13827
0.921051
0.889323
1.02375
0.852272
1.15314
0.969353
1
1.09619
0.998643
1
1.00101
0.994497
1.1366
1.15828
1.24846
1.11075
0.998114
0.960443
0.989321
1.00045
0.920739
0.938603
0.726605
1.28317
1.20285
1.22749
0.882284
1
0.876072
1
0.752308
1.01086
1.03615
0.976344
1.14684
1.17769
0.993291
0.884946
1.05096
1
1.10751
1.29145
0.981018
1.16785
1
1
1.13208
0.858263
1.15501
1.21167
1
0.848284
1.11813
1.07565
0.999987
0.929358
1.14012
1.13914
1.08339
1.15571
0.894344
1.07676
1
0.856718
0.903554
0.953627
0.77234
1
1.05859
0.982549
1.02911
1
0.943643
1.17675
1.02815
1.11557
0.99766
1.0353
0.916514
0.768173
0.784325
0.993963
1.12124
0.920705
1.12795
1.04708
1.16527
1.3512
1.09415
1
0.933219
1.14114
0.794403
1.17144
1.01889
1.00872
0.808154
0.919929
1.08027
0.897215
0.920063
1.04317
0.827662
1.06441
1.09248
1.17207
0.803723
1.16276
1
1.36865
1
1.07393
1
1
1
1
1.25512
1.12524
1.18536
1.09168
1.1933
1.00822
1.05507
1.04841
1
1
1.03681
1.03236
1.17444
1
0.966158
1.04315
1.0328
1.13818
1
0.847252
1
0.89668
0.817977
1.17271
0.967457
1
1.10999
0.90914
1.16247
0.775142
1
1.1845
1.16087
0.917956
1.00459
1.13575
0.818095
1.16337
0.895328
1.01447
1.18303
0.764973
0.877826
0.908711
0.887216
1.16943
1
1.14901
0.902106
1.04493
1.19928
1
1.1249
1.1267
1.02913
1.15786
0.865418
0.88889
1
1.25386
0.876615
0.852665
0.979467
1.15247
1.14343
1.1531
1
1.16488
1
1.14574
1
1.14523
1.02756
0.875883
0.838438
1
1
1
1.14998
1.34465
1.13618
1
1
1.13471
1.03207
1
1.34482
0.855026
1.00001
0.997109
0.949752
0.965274
0.975889
1.01775
1.15713
1.15476
1
1.32288
0.846057
1.10479
1
0.941979
1
0.892674
1.15593
0.858547
0.97149
1.16485
1.03759
1.15861
1
1.01374
0.853327
1.19547
1.04521
1
0.874828
1.14575
1
1.22642
0.992202
0.825327
1.15884
1.25717
0.942157
0.874931
1.24312
0.861393
1
1.15469
1
1.01885
1.10661
1
1
1
1.11425
0.91509
0.814301
1.2281
1.2279
1.16965
0.882465
0.982277
0.88847
1.17791
1
0.879968
0.912513
1.16965
0.803779
1.07392
0.995809
1.15104
1.14672
0.900167
0.997127
0.901711
1.03719
0.995077
1
1.04274
1.09914
0.887267
0.842665
1.16559
0.836031
1
1
1.16868
1.06637
0.850683
0.872865
1.07682
1.15996
1
1.0606
1.05668
0.920163
0.997953
1.0171
1.17321
1
0.85946
1.14748
1.02588
0.891939
0.89065
1.17121
1.16647
1.27761
1
1
1.15255
1
1
0.990917
1
1.15053
1.13501
0.909501
1
0.9519
1
0.914767
0.824766
1
0.907875
0.873934
0.993374
1.33051
0.978492
1.1385
1.02051
1.18062
0.996454
1.17717
1.14368
1
1.20176
0.905368
1.13661
1.08588
1
1.20532
1.20762
0.983346
1.021
1.08817
0.916496
0.833343
0.898555
0.993205
0.913237
1.02605
1
0.983757
1
0.992448
0.814517
1
1
1
0.852094
1
0.979305
0.858913
0.987059
0.756425
1.23612
0.963077
0.957575
1
1.13987
1.17418
0.882563
1
1.19156
1.12864
1
1
1
1
1.14054
1.0161
1
1
0.963696
1
0.804366
1
0.999987
0.905693
1.03803
0.828123
1.00001
1.18952
1
1
1
0.991132
0.993491
0.771333
1
1.27771
1.26003
1.00031
0.852092
1.20115
1.02312
1.07728
1
1.13294
0.907062
1.09289
1.0318
0.905544
1.18832
1.10304
1
1
1.12395
0.819045
1.01048
1
1.01102
1.14223
1.12102
1
1.3455
1.07505
1
1
1.14133
1.18713
0.98247
1.22016
1
1.25168
1.16769
1.17305
0.915518
1.26451
0.791932
1.08103
1
0.99758
0.869073
1.276
0.914787
0.961755
0.907376
0.872803
0.990875
0.914507
1.03609
1.06535
1.12651
1.04967
0.810573
0.991172
0.797154
1.09125
1
1.115
1.16179
1.15656
1
1
0.894699
1.28035
1.24604
0.874454
1.06975
0.876977
1
1
1.09473
0.972672
0.87342
1.12889
1.2179
1
0.983347
1.30348
0.895623
1.15431
0.885764
0.908215
0.884702
1.06513
0.993584
1.14943
1.11892
1.18728
0.958384
0.906575
1.09625
0.828291
0.87036
0.903063
1
1.16473
0.901686
1.05667
1
0.826845
1.19824
1.36515
1.26039
1.08401
1.23259
1.14717
0.778407
0.97824
0.892581