/*--------------------------------*- C++ -*----------------------------------*\
  =========                 |
  \\      /  F ield         | OpenFOAM: The Open Source CFD Toolbox
   \\    /   O peration     | Website:  https://openfoam.org
    \\  /    A nd           | Version:  12
     \\/     M anipulation  |
\*---------------------------------------------------------------------------*/
FoamFile
{
    format      ascii;
    class       volScalarField;
    location    "5.08";
    object      rho;
}
// * * * * * * * * * * * * * * * * * * * * * * * * * * * * * * * * * * * * * //

dimensions      [1 -3 0 0 0 0 0];

internalField   nonuniform List<scalar> 
22702
(
1.40001
1.40001
1.26575
1.40001
1.45186
1.40001
1.83611
1.40001
1.40001
1.04226
1.83858
1.83525
1.40001
1.84102
1.28077
1.40001
1.40001
1.40001
1.839
1.40001
1.84226
1.40001
1.83866
1.03721
1.84796
1.04606
1.40001
1.84451
1.0197
1.03738
1.40001
1.83687
1.40001
1.40001
1.40001
1.80926
1.84536
1.83877
1.40001
1.40001
1.08766
1.40001
1.61988
1.40001
1.84296
1.40001
1.40001
1.40001
1.40001
1.01923
1.40001
1.02492
1.40001
1.83838
1.40001
1.83993
1.40001
1.40001
1.40001
1.40001
1.07229
1.40001
1.40001
0.981319
1.40001
1.04884
1.40001
1.40001
1.40001
1.04386
1.40001
1.84401
1.67179
1.40001
1.84182
1.86002
1.05165
1.83832
1.02033
1.40001
1.83761
1.02483
1.84085
1.83907
1.40001
1.40001
1.40001
1.40001
1.32431
1.0472
1.83603
1.40001
1.40001
0.985257
1.40001
1.84268
0.994571
1.40001
1.40001
1.40001
1.40001
1.61984
1.83824
1.04274
1.40001
1.40001
1.50317
1.40001
1.02497
1.40001
1.84038
1.83897
1.40001
1.40001
1.0361
1.04094
1.04473
1.40001
1.40001
1.40001
1.40001
1.40001
1.30881
1.40001
1.77787
1.43877
1.84008
1.40001
1.84029
1.83898
1.84228
1.83659
1.40001
1.0679
1.40001
0.980961
1.40001
1.40001
1.40001
1.40001
1.83879
1.40001
1.40001
1.40001
1.40001
1.8363
1.40001
1.42701
1.40001
1.40001
1.40001
1.40001
1.02013
1.40001
1.41025
1.40001
1.01878
1.40001
1.40001
1.40001
1.83604
1.40001
1.8423
1.02081
1.06237
1.84532
1.84565
1.40001
1.47534
1.65138
1.40001
1.84088
1.02321
1.81056
1.40001
1.40001
1.40001
1.40001
1.84187
1.75534
1.40001
1.83935
0.972921
1.84125
1.40001
1.0075
1.40001
1.0258
1.04566
1.39978
1.40001
1.40001
1.84036
1.40001
1.40001
1.8408
1.40001
1.84258
1.83933
1.04043
1.40001
1.40001
1.02856
1.84135
1.40001
1.40001
1.40001
1.84135
1.40001
1.01102
1.40001
1.40001
1.84217
1.84191
1.84238
1.40001
1.40004
1.40001
1.40001
1.40001
1.84182
1.40001
1.00582
1.85748
1.84161
1.84247
1.40001
1.40001
1.40001
1.01135
1.84346
1.62137
1.40001
1.843
1.01915
1.01036
1.84317
1.84348
1.40001
1.83938
1.0279
1.79004
1.40001
1.40001
1.40001
1.40001
1.84106
1.40001
1.66943
1.44134
1.40001
1.40001
1.84245
0.995908
1.16565
1.40001
1.83958
1.02404
1.84255
1.40001
1.40001
1.40001
1.40001
1.40001
1.40001
1.40001
1.02988
1.14857
1.01267
1.8418
1.40001
1.40001
1.40001
1.40001
1.78551
1.40001
1.03002
1.40001
1.0012
1.03011
1.84133
1.04298
1.84195
1.40001
1.40001
1.40001
1.39769
1.01045
1.01988
1.4
1.40001
1.00186
1.40001
1.83923
1.04542
1.40001
1.40001
1.83698
1.01908
1.40001
1.84746
1.05001
1.84201
1.40001
1.01016
1.39773
1.40001
1.40001
1.40001
1.02058
1.40001
1.40001
1.4
1.40002
1.40857
1.67285
1.40001
1.06811
1.40001
1.40001
1.40001
1.40001
1.40001
1.40001
1.40001
1.83697
1.40001
1.84028
1.40001
1.40001
1.40001
1.02857
1.40001
1.83701
1.02966
1.40001
1.76628
1.40001
1.40001
1.83764
1.40001
1.40001
1.40001
1.82408
1.40001
1.40001
1.82799
1.83634
1.40001
1.49398
1.40001
1.40001
0.995175
1.40001
1.40001
1.40001
0.967061
1.40001
1.40001
1.40001
1.40001
1.06073
1.40001
1.40001
1.40001
1.40001
1.40001
1.03791
1.40007
1.84381
1.40001
1.39999
1.84558
1.84588
1.40001
1.40001
1.04652
1.22097
1.83838
1.40001
1.40001
1.40001
1.84141
1.05294
1.40001
1.84254
1.40001
1.40001
1.11553
1.11154
1.40001
1.02285
1.03369
1.40001
1.40001
1.40001
1.40001
1.40001
1.40001
1.40001
1.8392
1.50459
1.83192
1.04148
1.30641
1.83812
1.40001
1.83794
1.83818
1.02448
1.18198
1.40001
1.00426
1.40001
1.84699
1.40001
1.40001
1.40001
1.40001
1.8412
1.40001
1.40001
1.40001
1.40001
1.40001
1.40001
1.40001
1.56612
1.83699
1.40001
1.84173
1.40001
1.40001
1.02651
1.40001
1.40001
1.40001
1.40001
1.84156
1.73709
1.40001
1.40001
1.01868
1.843
1.84217
1.40001
1.84223
1.84153
1.8417
1.40001
1.235
1.40001
1.84105
1.39611
1.84182
1.40001
1.00933
1.39886
1.83897
1.40001
1.40001
1.40001
1.40001
1.02961
1.84269
1.80129
1.40001
1.84109
1.84115
1.83873
1.40001
1.61279
1.83835
1.40001
1.40001
1.70356
1.4609
1.84189
1.33071
1.8419
1.40001
1.8419
1.84255
1.84193
1.84343
1.40001
1.825
1.31281
1.28244
1.40001
1.4
1.40001
1.40001
1.84623
1.40001
1.40001
1.40001
1.40001
1.40001
1.83618
1.40001
1.40001
1.39598
1.84207
1.7776
1.40001
1.76496
1.40005
1.40001
1.40001
1.84396
1.40001
1.39751
1.40456
1.40001
1.84287
1.40001
1.84255
1.40001
1.40001
1.73062
1.40001
1.84286
1.40003
1.40001
1.83906
1.40001
1.84159
1.40001
1.40001
1.40001
1.84081
1.40001
1.84783
1.40001
1.84116
1.83779
1.84214
1.83891
1.40001
1.83628
1.83321
1.40001
1.03508
1.81345
1.71753
1.40001
1.84106
1.40001
1.00389
1.04714
1.40001
1.40001
1.40001
1.40001
1.40001
0.993345
1.40001
1.84187
1.50908
1.84393
1.40001
1.40001
1.40001
1.40001
1.40001
1.84239
1.40001
1.8407
1.66513
1.18204
1.40001
1.40001
1.53165
1.51417
1.40001
1.40001
1.5636
1.40001
1.02236
1.84107
1.84139
1.40001
1.40001
1.40001
1.83581
1.40001
1.40003
1.83736
1.84289
1.34475
1.40001
1.40001
1.02055
1.8014
1.40001
1.40001
1.40001
1.40001
1.40001
1.84192
1.83591
1.40001
1.83901
1.84683
1.84219
1.40001
1.40001
1.40001
1.40001
1.04546
1.83764
1.40001
1.40001
1.80253
1.84048
1.40001
1.81666
1.83774
1.40001
1.40001
1.40001
1.40001
1.40001
1.84256
1.40001
1.40001
1.40001
1.40001
1.84784
1.40001
1.83959
1.02637
1.40001
1.0404
1.40001
1.40001
1.40001
1.39703
1.03127
1.39906
1.40001
1.40001
1.40001
1.46253
1.40001
1.40001
1.26309
1.40001
1.40001
1.40001
1.40001
1.40001
1.40001
1.40001
1.4
1.32631
1.4
1.40001
1.3976
1.40001
1.03411
1.40001
1.40001
1.40001
1.40001
1.73094
1.40001
1.40001
1.40001
1.40001
1.00888
1.40001
1.40001
1.81567
1.83885
1.4
1.40001
1.40001
1.2852
1.40001
1.40001
1.40001
1.40001
1.40001
1.40001
1.34475
1.40529
1.84156
1.40001
1.40001
1.40001
1.84131
1.29742
1.40001
1.40001
1.40001
1.83828
1.84392
1.40001
1.40001
1.40001
1.40001
1.40001
1.40001
1.40001
1.40001
1.40001
1.02754
1.40001
1.40001
1.83888
1.01038
1.40001
1.83791
1.40001
1.02144
1.40001
1.40001
1.02893
1.40001
1.40001
1.40001
1.40001
1.40001
1.40001
1.40001
1.83294
1.8405
1.40001
1.40001
1.40001
1.40001
1.80406
1.40001
1.539
1.02757
1.40001
1.40001
1.40001
1.40001
1.40001
1.40001
1.40001
1.42724
1.40001
1.40001
1.62717
1.40001
1.40001
1.40001
1.76559
1.40001
1.40001
1.40001
1.40001
1.02212
1.40001
1.40001
1.01066
1.01034
1.40001
1.40001
1.84096
1.40001
1.40462
1.40001
1.40001
1.40001
1.70789
1.04782
1.40001
1.03796
1.40001
1.1739
1.40001
1.40001
1.40001
1.84179
1.40001
1.40001
1.84142
1.40001
1.40001
1.40001
1.84124
1.40001
1.40001
1.84171
1.40001
1.40001
1.02603
1.40001
1.5343
1.40001
1.40001
1.83807
1.83895
1.69169
1.79488
1.40001
1.00592
1.40001
1.40001
1.82277
1.40001
1.03632
1.40001
1.40001
1.40001
1.84239
1.40001
1.40001
1.40001
1.40001
1.66746
1.40001
1.79986
1.83918
0.988605
1.40001
1.40001
1.04209
1.04318
1.40001
1.40001
1.40001
1.71196
1.7361
1.40001
1.40001
1.40001
1.40001
1.40001
1.40001
1.40001
1.58967
1.83771
1.40367
1.40001
1.83686
1.07167
1.40001
1.40001
1.40001
1.64383
1.40001
1.48483
1.40001
1.80385
1.84035
1.40001
1.01124
1.40001
1.84072
1.40001
1.40001
1.84094
1.81591
1.40001
1.83936
1.40001
0.993699
1.40001
1.40001
1.40001
1.84235
1.83253
1.78881
1.40001
1.84404
1.84142
1.40001
1.8433
1.40001
1.84027
1.40001
1.02507
1.37542
1.02557
1.40001
1.40001
1.40001
1.40001
1.40001
1.84271
1.40001
1.84264
1.40001
1.40001
1.40001
1.82065
1.40001
1.04419
1.8415
1.40001
1.0019
1.07185
1.05659
1.40001
1.61057
1.43153
1.84367
1.8413
1.40001
1.4
1.40001
1.40001
1.84161
1.40001
1.40001
1.84164
1.84158
1.40001
1.5539
1.39998
1.40001
1.39684
1.8387
1.24627
1.40001
1.21104
1.02522
1.02282
1.34657
1.84251
1.83582
1.49101
1.84255
1.84138
1.40001
1.40001
1.83951
1.84094
1.84131
1.83709
1.40001
1.84235
1.04383
1.83929
1.84194
1.83909
1.84714
1.26503
1.28424
1.31908
1.84135
1.35722
1.84223
1.40001
1.40001
1.84408
1.8411
1.40001
1.00646
1.84038
1.84157
1.40001
1.84122
1.84194
1.40001
1.84197
1.00624
1.84048
1.83792
1.8369
1.84573
1.40001
1.40001
1.40001
1.8415
1.68427
1.06596
1.84106
1.01596
1.8413
1.40001
1.40001
1.40001
1.40001
1.83854
1.84153
1.40001
1.40001
1.84168
1.02346
1.8421
1.03225
1.40001
1.83834
1.40001
1.04735
1.84335
1.13734
1.40001
1.84128
1.84437
1.843
1.40001
1.40001
1.6152
1.84411
1.03233
1.84183
1.40001
1.84153
1.26807
1.84185
1.03871
1.40001
1.84006
1.08205
1.84406
1.02787
1.40001
1.84242
1.40001
1.83828
1.40001
1.65474
1.82482
1.74857
1.01041
1.40001
1.84109
1.40001
1.84264
1.40001
1.8424
1.40001
1.40001
1.84185
1.38481
1.84451
1.01511
1.79842
1.40001
1.71307
1.40001
1.84181
1.84211
1.84183
1.40001
1.79791
1.84249
1.80951
1.67237
1.84167
1.40001
1.69086
1.40001
1.84111
1.40001
1.46376
1.40001
1.80972
1.40001
1.8416
1.82149
1.82048
1.40001
1.82641
1.04969
1.40001
1.02402
1.40001
1.40001
1.40001
1.84018
1.40001
1.84211
1.40001
1.40001
1.40001
1.8432
1.82894
1.76846
1.83953
1.84086
1.04347
1.84618
1.84038
1.40001
1.77706
1.84194
1.822
1.40001
1.84069
1.83905
1.40001
1.84345
1.84143
1.84087
1.84322
1.40001
1.40001
1.40001
1.84155
1.04953
1.40001
1.84157
1.40001
1.40001
1.05653
1.40001
1.40001
1.84147
1.84118
1.40001
1.84186
1.84967
1.83834
1.37389
1.84211
1.40001
1.84218
1.84214
1.76005
1.40001
1.40001
1.40001
1.84167
1.84152
1.84192
1.34259
1.40001
1.85313
1.84151
1.84046
1.40001
1.84187
1.84164
1.84119
1.85284
1.40001
1.84176
1.83901
1.78861
1.83992
1.85116
1.40001
1.83789
1.83633
1.84205
1.84051
1.84169
1.0512
1.84088
1.84018
1.40001
1.84066
1.84172
1.84157
1.84064
1.40001
1.84252
1.84166
1.40001
1.84168
1.76975
1.40001
1.40001
1.40001
1.83959
1.84623
1.40001
1.40001
1.6423
1.40001
1.84183
1.40001
1.40001
1.84136
1.84286
1.8418
1.84133
1.40001
1.40001
1.40001
1.71502
1.40001
1.84179
1.40001
1.40001
1.84072
1.83783
1.40001
1.84171
1.04058
1.8419
1.8428
1.1009
1.40001
1.03964
1.78793
1.8464
1.83905
1.83803
1.01552
1.84168
1.84327
1.02312
1.01288
1.40001
1.84124
1.84187
1.40001
1.40001
1.84195
1.40001
1.84817
1.40001
1.78769
1.40001
1.60051
1.84131
1.84401
1.70677
1.81556
1.84124
1.8435
1.81668
1.40001
1.07028
1.83973
1.84142
1.84719
1.40002
1.40001
1.40001
1.84414
1.40001
1.84141
1.84182
1.1572
1.40001
1.84117
1.39994
1.40001
1.40004
1.40005
1.84165
1.83959
1.39851
1.40001
1.40001
1.84267
1.84408
1.84207
1.84634
1.83992
1.06188
1.78428
1.40001
1.8382
1.84169
1.84226
1.84331
1.40001
1.84182
1.82976
1.84319
1.40001
1.84284
1.84089
1.26407
1.8417
1.84274
1.40001
1.84127
1.23494
1.84094
1.25909
1.84183
1.40001
1.84264
1.84021
1.84207
1.84239
1.84251
1.84524
1.84241
1.8392
1.40001
1.33599
1.84088
1.84182
1.22562
1.84195
1.37562
1.66938
1.84127
1.84324
1.83834
1.40001
1.84474
1.69241
1.83924
1.31624
1.84397
1.84723
1.40001
1.25582
1.40001
1.84438
1.40001
1.70591
1.40001
1.81481
1.26017
1.40001
1.84581
1.8365
1.40001
1.84016
1.84409
1.83651
1.83479
1.83927
1.40001
1.84015
1.40001
1.40001
1.40001
1.28449
1.84222
1.84186
1.84682
1.84188
1.8457
1.84531
1.84531
1.84253
1.29283
1.43088
1.40001
1.40001
1.84289
1.84175
1.84215
1.84145
1.40003
1.63018
1.40001
1.84407
1.79
1.40001
1.40001
1.13456
1.84214
1.40001
1.40001
1.01855
1.84153
1.40001
1.83856
1.84117
1.8408
1.82542
1.84147
1.40001
1.03531
1.50907
1.84214
1.84238
1.40001
1.84058
1.84128
1.61917
1.41047
1.50433
1.40001
1.83826
1.84232
1.40001
1.40001
1.0085
1.40001
1.40001
1.84196
1.84162
1.84366
1.84238
1.84131
1.84226
1.84276
1.84263
1.84182
1.40001
1.39658
1.84089
1.84194
1.39725
1.84154
1.84152
1.02981
0.996449
1.83906
1.85034
1.40001
1.40001
1.40104
1.84083
1.84354
1.84164
1.40001
1.84147
1.40001
1.24723
1.84723
1.84912
1.40001
1.60771
1.84243
1.40001
1.83977
1.40001
1.84128
1.69752
1.84404
1.40001
1.84057
1.84889
1.0127
1.84169
1.40001
1.84003
1.83803
1.40001
1.04073
1.83957
1.76411
1.39748
1.83564
1.84179
1.40001
1.40104
1.83724
1.39759
1.84295
1.40001
1.40001
1.84143
1.40001
1.84101
1.84127
1.39656
1.74844
1.40001
1.84109
1.40001
1.40001
1.40001
1.40001
1.84148
1.40001
1.40001
1.83133
1.40001
1.84067
1.40001
1.68229
1.83853
1.84154
1.40001
1.40001
1.40507
1.40001
1.84103
1.84131
1.83949
1.84049
1.84146
1.84203
1.84117
1.40001
1.84057
1.843
1.40001
1.84191
1.8413
1.40001
1.84331
1.32429
1.46097
1.84114
1.84044
1.84121
1.40001
1.84084
1.40001
1.84168
1.84048
1.40001
1.84097
1.40001
1.40001
1.40001
1.40001
1.84227
1.02513
1.39792
1.40001
1.84161
1.84372
1.40001
1.84211
1.40001
1.40524
1.04272
1.84219
1.3996
1.40001
1.84269
1.39844
1.84063
1.40001
1.3998
1.40001
1.83789
1.84358
1.84352
1.84162
1.03095
1.84066
1.83959
1.84135
1.50564
1.40001
1.40001
1.59105
1.84155
1.0285
1.03218
1.40001
1.8406
1.8417
1.84212
1.40001
1.40001
1.84028
1.84413
1.39989
1.40001
1.71814
1.03616
1.40001
1.47975
1.8407
1.84214
1.39829
1.84163
1.85386
1.40001
1.39934
1.40001
1.84469
1.83895
1.58518
1.40001
1.81418
1.40001
1.40287
1.84372
1.0914
1.84103
1.84153
1.39708
1.39991
1.79273
1.40001
1.39968
1.40001
1.84254
1.40001
1.40002
1.0449
1.8414
1.40001
1.40001
1.40001
1.40001
1.84288
1.6518
1.40001
1.40001
1.03097
1.84121
1.65183
1.40001
1.40001
1.40001
1.82049
1.82377
1.84327
1.40001
1.40001
1.84712
1.40001
1.84171
1.8414
1.40001
1.40001
1.84376
1.84114
1.82556
1.40001
1.40001
1.84375
1.84324
1.40001
1.40001
1.40001
1.8434
1.40001
1.40001
1.40001
1.84186
1.84612
1.84368
1.40001
1.83896
1.40004
1.10574
1.84101
1.84229
1.40001
1.84283
1.82608
1.83686
1.40001
1.40001
1.84535
1.40001
1.6313
1.8397
1.40001
1.01493
1.40001
1.84381
1.40001
1.40001
1.83795
1.40001
1.40001
1.40001
1.53865
1.83967
1.07497
1.40002
1.8433
1.40001
1.40001
1.84243
1.40001
1.84589
1.40001
1.40001
1.84292
1.84262
1.40001
1.40005
1.40001
1.40001
1.40001
1.40001
1.40001
1.40001
1.84717
1.84107
1.40001
1.8387
1.04515
1.84906
1.40001
1.84125
1.84773
1.84219
1.84731
1.83805
1.40001
1.40001
1.83639
1.40001
1.65677
1.84634
1.84157
1.40001
1.84373
1.83831
1.40001
1.79013
1.40001
1.84118
1.68732
1.83827
1.39769
1.83588
1.7945
1.84295
1.84291
1.43668
1.84165
1.84386
1.40001
1.8422
1.40001
1.84216
1.40001
1.40001
1.40001
1.40001
1.39657
1.84175
1.84176
1.75953
1.40001
1.84358
1.40001
1.40001
1.40001
1.04011
1.40001
1.83055
1.40001
1.8022
1.83589
1.40001
1.40001
1.40001
1.80591
1.84045
1.40001
1.40001
1.8424
1.03202
1.47896
1.40001
1.84648
1.84195
1.80301
1.83002
1.8417
1.40001
1.8392
1.40001
1.40001
1.40001
1.40001
1.84009
1.84233
1.40001
1.83349
1.4475
1.84224
1.81175
1.40001
1.40001
1.81348
1.40001
1.40001
0.987913
1.71295
1.40001
1.40001
1.84587
1.40001
1.84433
1.80274
1.40001
1.80299
1.02859
1.84281
1.84101
1.84176
1.40001
1.01359
1.40001
1.40001
1.40001
1.84243
1.77568
1.40001
1.83133
1.84248
1.40001
1.84142
1.40001
1.40001
1.40001
1.40001
1.84212
1.39936
1.40001
1.84387
1.40001
1.40001
1.8428
1.84142
1.40001
1.842
1.48755
1.40002
1.40001
1.84326
1.40001
1.8434
1.40001
1.41296
1.8415
1.40001
1.84243
1.40001
1.40001
1.53347
1.84181
1.40001
1.40001
1.40001
1.40001
1.40001
1.39667
1.04946
1.04674
1.4183
1.40001
1.42058
1.40001
1.41784
1.40001
1.8417
1.40001
1.6716
1.40001
1.84238
1.40001
1.40001
1.40001
1.84207
1.40001
1.75788
1.84039
1.40001
1.63419
1.8411
1.40001
1.40001
1.8411
1.84127
1.40001
1.40001
1.44138
1.00439
1.40001
1.84314
1.40001
1.40001
1.40001
1.40001
1.47521
1.84133
1.40001
1.40001
1.40001
0.985323
1.40001
1.84273
1.84131
1.84607
1.40001
1.40001
1.40001
1.40001
1.61974
1.84444
1.40001
1.40001
1.40001
1.84203
1.84251
1.44029
1.40001
1.40001
1.40001
1.8442
1.84268
1.40001
1.01542
1.84144
1.84277
1.84232
1.83857
1.84572
1.40001
1.40001
1.84302
1.84332
1.8412
0.989182
1.43954
1.84177
1.40001
1.40001
1.40001
1.40001
1.40001
1.84166
1.02948
1.40001
1.40001
1.84141
1.5991
1.40001
1.84012
1.40001
1.40001
1.40001
1.01545
1.40001
1.40001
1.5166
1.84161
1.84344
1.40001
1.84476
1.8471
1.40001
1.47429
1.40001
1.83996
1.40001
1.83823
1.03761
1.40001
1.40001
1.40001
1.40001
1.84142
1.40007
1.40001
1.40001
1.40001
1.82678
1.40001
1.40001
1.40001
1.40001
1.84092
1.01802
1.74422
1.84476
1.40001
1.84352
1.40001
1.40001
1.40001
1.39713
1.40001
1.84073
1.40001
1.21127
1.40001
1.40001
1.40004
1.84335
1.02876
1.40001
1.84055
1.40001
1.84355
1.84279
1.02461
1.40001
1.40001
1.8279
1.40001
1.40001
0.998978
1.40001
1.84095
1.40001
1.8218
1.39937
1.84182
1.40001
1.40001
1.40001
1.40001
1.83849
1.40001
1.40001
1.84246
1.40001
1.40001
1.40001
1.40001
1.40001
1.40001
1.40001
1.40001
1.69179
1.40001
1.54069
1.84069
1.40001
1.40001
1.40001
1.02949
1.40001
1.40001
1.40001
1.40001
1.84469
1.84151
1.44326
1.40001
1.40001
1.84319
1.40001
1.40001
1.84225
1.40001
1.40002
1.40001
1.40001
1.40001
1.40002
1.84116
1.18556
1.84201
1.84378
1.39682
1.40001
1.40001
1.40001
1.65688
1.40001
1.40001
1.84374
1.84199
1.40001
1.40001
1.40001
1.40001
1.07643
1.40001
1.40001
1.40001
1.68877
1.40001
1.84196
1.84393
1.40001
1.84288
1.40001
1.40001
1.40001
1.64101
1.40001
1.83843
1.40001
1.84238
1.40001
1.40001
1.39602
1.84208
1.40001
1.40001
1.40001
1.40001
1.40001
1.8447
1.40003
1.40001
0.984239
1.84135
0.986544
1.40001
1.84165
1.40001
1.39574
1.40001
1.84249
1.83823
1.40001
1.84607
1.26695
1.84156
1.84821
1.40004
1.40001
1.40001
1.04367
1.40001
1.40001
1.40001
1.84219
1.65927
1.84114
1.40001
1.40001
1.40001
1.40001
1.39696
1.84339
1.40001
1.04248
1.40001
1.40001
1.40001
1.40001
1.40001
1.40001
1.40001
1.84752
1.84012
1.8415
1.40001
1.40001
1.39698
1.40001
1.36761
1.40001
1.40001
1.40001
1.08086
1.37261
1.40001
1.04973
1.02902
1.40001
1.84163
1.84208
1.40001
1.83834
1.84152
1.04556
1.70608
1.40001
1.40001
1.40001
1.04012
1.84129
1.40001
1.03762
1.40001
1.84486
1.48081
1.40001
1.40001
1.40001
1.40001
1.84252
1.83807
1.40001
1.40001
1.8411
1.40001
1.40001
1.84008
1.8428
1.40001
1.80336
1.84343
1.84138
1.35924
1.83796
1.40835
1.03844
1.74023
1.84342
1.40001
1.40001
1.40001
1.06552
1.40001
1.0488
1.83853
1.35035
1.84197
1.35632
1.40001
1.84136
1.59525
1.40001
1.40001
1.84046
1.40001
1.58082
1.83773
1.40001
1.40001
1.83868
1.84684
1.03202
1.65821
1.3999
1.40001
1.67031
1.40001
1.84636
1.35203
1.84092
1.84592
1.40001
1.40001
1.40001
1.40001
1.83099
1.40001
1.40001
1.84002
1.39964
1.84135
1.7529
1.84189
1.03317
1.40001
1.40001
1.40001
1.40001
1.84143
1.40005
1.84261
1.40001
1.8413
1.84388
1.45533
1.84142
1.53472
1.84299
1.40001
1.70533
1.06876
1.84727
1.8419
1.74597
1.47707
1.83834
1.84176
1.84075
1.84063
1.40001
1.29819
1.46936
1.40001
1.84262
1.61412
1.84196
1.40004
1.40001
1.40001
1.051
1.84114
1.83918
1.75801
1.40001
1.56764
1.40001
1.84949
1.84707
1.40001
1.84294
1.84037
1.40001
1.40001
1.40001
1.84221
1.40001
1.57176
1.84364
1.704
1.40001
1.8406
1.40001
1.40001
1.40001
1.40001
1.40001
1.40001
1.40001
1.40001
1.40001
1.40001
1.05174
1.40001
1.82658
1.0565
1.65655
1.39854
1.84509
1.40001
1.6322
1.40002
1.68528
1.77553
1.40001
1.40179
1.84632
1.29756
1.40001
1.84744
1.83757
1.34618
1.40001
1.84134
1.84141
1.84278
1.40001
1.84144
1.84162
1.84475
1.40001
1.60302
1.40001
1.40007
1.84145
1.40001
1.84157
1.46572
1.84345
1.40001
1.40001
1.84603
1.84821
1.04581
1.40001
1.84165
1.73305
1.84058
1.40001
1.40001
1.83964
1.84227
1.39827
1.40001
1.79698
1.39704
1.84273
1.40007
1.40001
1.40001
1.40001
1.40001
1.60284
1.40001
1.74508
1.84037
1.73119
1.83863
1.40001
1.40346
1.40001
1.40001
1.84183
1.40001
1.8451
1.40001
1.40001
1.40001
1.40001
1.4
1.40001
1.45576
1.62679
1.40001
1.40001
1.08299
1.40001
1.83978
1.08238
1.84481
1.40001
1.62375
1.39975
1.84129
1.68379
1.05177
1.64556
1.40004
1.84169
1.84018
1.40001
1.66543
1.83927
1.8412
1.39839
1.84887
1.82979
1.05732
1.40001
1.40001
1.39761
1.40001
1.83832
1.40001
1.04447
1.83908
1.40001
1.40001
1.78625
1.40001
1.84091
1.40001
1.8414
1.40001
1.07009
1.40001
1.40001
1.8439
1.84736
1.84724
1.40001
1.84449
1.84167
1.84729
1.40001
1.40001
1.83495
1.4
1.11362
1.40001
1.40001
1.40001
1.84296
1.40001
1.8421
1.68838
1.8409
1.40001
1.84174
1.39938
1.40001
1.40001
1.40001
1.40001
1.40001
1.40001
1.10132
1.40001
1.40001
1.84273
1.40001
1.84461
1.83984
1.40001
1.03289
1.03831
1.40001
1.84318
1.47599
1.02883
1.00762
1.40001
1.84067
1.40001
1.84013
1.01702
1.40133
1.40001
1.40001
1.39952
1.40001
1.40001
1.40001
1.39992
1.58065
1.84216
1.40001
1.40001
1.84256
1.66445
1.40001
1.79603
1.84386
1.84092
1.58175
1.83396
1.40001
1.84243
1.40001
1.84494
1.40001
1.83777
1.84343
1.39688
1.84003
1.84045
1.40001
1.40001
1.40001
1.40001
1.40001
1.31511
1.8378
1.40005
1.40003
1.0754
1.39999
1.07616
1.04164
1.40001
1.84054
1.84059
1.84167
1.40001
1.84196
1.40001
1.03683
1.40001
1.40001
1.83961
1.23026
1.84025
1.40001
1.84215
1.40001
1.37866
1.84171
1.40001
1.40001
1.40001
1.84064
1.40001
1.84143
1.03242
1.40001
1.40001
1.65901
1.40001
1.40001
1.64336
1.40001
1.40001
1.84281
1.40001
1.40001
1.40001
1.40001
1.40001
1.84798
1.84014
1.40001
1.84181
1.84196
1.03778
1.59841
1.845
1.40001
1.40001
1.79812
1.39901
1.40001
1.40001
1.8414
1.84033
1.68115
1.40001
1.84025
1.05053
1.81558
1.39964
1.40001
1.8396
1.40004
1.84129
1.76538
1.73863
1.40001
1.40001
1.84141
1.10257
1.08763
1.40001
1.84228
1.40001
1.84337
1.40001
1.66054
1.40001
1.40001
1.84052
1.68532
1.04186
1.40001
1.39839
1.40001
1.40001
1.4256
1.58064
1.8417
1.40001
1.84648
1.40001
1.40001
1.40001
1.40001
1.40001
1.40001
1.46329
1.0368
1.40001
1.40001
1.42753
1.40001
1.40001
1.40001
1.40001
1.40001
1.8437
1.40001
1.40001
1.84212
1.84296
1.72997
1.40001
1.40001
1.40001
1.23873
1.84158
1.70537
1.40001
1.40001
1.40001
1.40001
1.84202
1.40001
1.40001
1.40001
1.84784
1.40001
1.40001
1.72022
1.8544
1.42723
1.13528
1.84452
1.71008
1.84187
1.40001
1.62605
1.40001
1.40001
1.40001
1.04093
1.40308
1.07162
1.40001
1.05032
1.01904
1.40001
1.03815
1.40001
1.40001
1.40001
1.58905
1.40001
1.84058
1.84302
1.40074
1.60606
1.77702
1.1025
1.17484
1.27831
1.40001
1.84159
1.84319
1.84152
1.84139
1.78112
1.26808
1.40001
1.78201
1.40001
1.83174
1.40001
1.40001
1.39655
1.40936
1.40001
1.40001
1.40001
1.84166
1.40001
1.09518
1.40001
1.84309
1.00691
1.40001
1.40001
1.84149
1.40001
1.84196
1.40002
1.40001
1.40001
1.84286
1.78293
1.40001
1.84693
1.40001
1.40001
1.41554
1.40001
1.59426
1.40001
1.40001
1.03434
1.40001
1.40001
1.84463
1.4
1.84268
1.40001
1.40004
1.04868
1.40001
1.40001
1.04697
1.40082
1.40001
1.8437
1.03171
1.84911
1.0296
1.84165
1.40001
1.40001
1.40001
1.40001
1.4
1.40001
1.40001
1.40001
1.40001
1.40001
1.40001
1.82455
1.40001
1.84369
1.84096
1.03889
1.40001
1.40001
1.40001
1.40001
1.40001
1.40001
1.8294
1.40001
1.40001
1.03918
1.40001
1.40001
1.84351
1.40001
1.40001
1.57082
1.77029
1.01504
1.03053
1.10841
1.13056
1.40001
1.39667
1.06985
1.4002
1.80503
1.3968
1.40001
1.40001
1.84136
1.40001
1.40001
1.40001
1.17661
1.40002
1.55672
1.40001
1.40001
1.58353
1.8416
1.40001
1.05944
1.40001
1.40001
1.40001
1.39655
1.40001
1.8394
1.84107
1.40001
1.0381
1.40001
1.64258
1.03777
1.40001
1.2812
1.40001
1.39658
1.01846
1.40001
1.40001
1.40001
1.39598
1.07112
1.40001
1.05169
1.3984
1.6335
1.79379
1.03158
1.01497
1.40001
1.39
1.40001
1.39865
1.40001
1.84167
1.84386
1.40001
1.41096
1.84109
1.84206
1.40001
1.40001
1.84118
1.40001
1.40001
1.40005
1.40001
1.84712
1.40001
1.40001
1.418
1.40001
1.39861
1.10698
1.40001
1.40001
1.40001
1.40001
1.40001
1.84479
1.42812
1.40005
1.40001
1.40001
1.40001
1.40001
1.40001
1.40004
1.40001
1.03578
1.49687
1.39862
1.83347
1.83861
1.40001
1.41356
1.84105
1.79754
1.40001
1.40001
1.03015
1.84008
1.40001
1.84066
1.40001
1.84325
1.6948
1.02998
1.40001
1.03517
1.8169
1.39969
1.40001
1.03746
1.04853
1.40001
1.40001
1.77013
1.40001
1.4
1.02641
1.40001
1.40001
1.40001
1.54624
1.40001
1.03788
1.84051
1.40001
1.40001
1.40001
1.40001
1.84202
1.40001
1.40001
1.83897
1.79622
1.40001
1.40001
1.40001
1.84601
1.04733
1.40001
1.8415
1.84186
1.40001
1.75472
1.4
1.40004
1.40001
1.40001
1.81622
1.41515
1.40001
1.04864
1.63509
1.40001
1.40001
1.39702
1.40001
1.40001
1.84497
1.40001
1.40001
1.40004
1.40001
1.83995
1.40001
1.40001
1.40001
1.40001
1.40001
1.40001
1.40001
1.59515
1.40001
1.84209
1.40001
1.40001
1.84351
1.40001
1.40001
1.40001
1.84111
1.84229
1.44594
1.40001
1.39767
1.40001
1.40001
1.40001
1.40001
1.8391
1.40001
1.40001
1.84246
1.03391
1.40001
1.40001
1.40001
1.40001
1.40001
1.40001
1.75739
1.40001
1.40001
1.84694
1.84235
1.40001
1.40001
1.40001
1.84147
1.84064
1.40001
1.3997
1.83371
1.40001
1.40001
1.40001
1.40002
1.05689
1.42964
1.39639
1.39605
1.40001
1.40001
1.05576
1.84309
1.40001
1.03138
1.40001
1.84383
1.82323
1.01682
1.3994
1.84179
1.84092
1.84194
1.40001
1.40001
1.32109
1.79439
1.76738
1.0409
1.40001
1.40001
1.40001
1.8404
1.84138
1.03466
1.39734
1.40001
1.84231
1.02858
1.40001
1.82733
1.03133
1.37215
1.40689
1.40001
1.83655
1.40001
1.40001
1.40001
1.40001
1.40001
1.40001
1.40012
1.81209
1.40001
1.40001
1.84296
1.40001
1.40001
1.40001
1.84156
1.40001
1.03533
1.40001
1.40001
1.40001
1.55635
1.40001
1.40001
1.40001
1.40001
1.40001
1.17992
1.40001
1.01512
1.40001
1.84117
1.40008
1.2665
1.2657
1.40002
1.40395
1.63263
1.40001
1.40001
1.0581
1.84074
1.84114
1.84182
1.40001
1.01684
1.02857
1.40001
1.84327
1.40001
1.40001
1.40001
1.40001
1.40001
1.40004
1.40001
1.03035
1.68024
1.40001
1.40001
1.0152
1.38881
1.40001
1.40001
1.40001
1.40001
1.01898
1.40001
1.08182
1.40001
1.40001
1.84809
1.40001
1.40001
1.02955
1.40001
1.84225
1.40001
1.10549
1.40001
1.0366
1.40001
1.40799
1.84303
1.84773
1.40001
1.40001
1.84071
1.40001
1.40001
1.49886
1.39683
1.40001
1.39827
1.40001
1.84446
1.40001
1.07006
1.40002
1.8373
1.39889
1.40001
1.40001
1.1815
1.40001
1.39907
1.02461
1.83975
1.56375
1.40001
1.40001
1.30388
1.40001
1.40001
1.40001
1.19925
1.40001
1.40001
1.40001
1.84188
1.40001
1.0331
1.4
1.40001
1.40001
1.40001
1.02902
1.8421
1.80761
1.0297
1.40001
1.84143
1.40001
1.40001
1.84191
1.84011
1.77139
1.02239
1.39778
1.39925
1.40001
1.84164
1.40001
1.40001
1.40001
1.40001
1.84338
1.40004
1.40001
1.40001
1.83953
1.40001
1.40001
1.84123
1.04225
1.40001
1.40001
1.40001
1.03314
1.40001
1.4
1.4
1.39863
1.40001
1.40001
1.40001
1.40001
1.76032
1.40001
1.83975
1.84162
1.84565
1.84222
1.8405
1.84278
1.40001
1.8431
1.40001
1.84133
1.841
1.40001
1.39888
1.04254
1.77798
1.3999
1.40001
1.40001
1.40001
1.40001
1.39529
1.40001
1.47045
1.40001
1.40001
1.40001
1.24849
1.84121
1.84341
1.83955
1.78617
1.39988
1.40001
1.42332
1.8405
1.39794
1.45132
1.39708
0.968677
1.40001
1.40003
1.40001
1.40001
1.40001
1.40001
1.40001
1.84296
1.02819
1.8431
1.84167
1.39482
1.04309
1.40001
1.40001
1.40001
1.8406
1.04958
1.7911
1.02134
1.84138
1.83999
1.03462
1.84004
1.42488
1.40001
1.84474
1.16963
1.40001
1.39876
1.04294
1.40001
0.980936
1.40001
1.84282
1.84282
1.15077
1.40001
1.84295
0.969652
1.40001
1.04116
1.40001
1.84247
1.40001
1.40001
1.82869
1.40001
1.22964
1.40001
1.39967
0.983192
1.82949
1.3995
1.40001
1.065
1.40001
1.40001
1.40001
1.40001
1.63712
1.40001
1.84367
1.40001
1.40001
1.84366
1.40001
1.40001
1.84145
1.40001
1.0092
1.40001
1.01109
1.40002
1.40001
1.40001
1.40001
1.40001
1.82256
1.65805
1.84201
1.40001
1.84268
1.81077
1.018
1.05478
1.40001
1.40001
1.84291
1.40001
1.01695
1.40001
1.38315
1.40001
1.40001
1.84167
1.40001
1.84748
1.05046
1.84572
1.40001
1.04953
1.40001
1.40001
1.84753
1.84064
1.40001
1.40005
1.40001
1.83464
1.40001
1.40001
1.04789
1.39943
1.06262
1.40001
1.40001
1.40001
1.84362
1.8452
1.83966
1.40001
1.40001
1.03433
1.40001
1.84383
1.40001
1.40001
1.40001
1.81956
1.84275
1.84246
1.02694
1.84464
1.84148
1.03507
1.83922
1.40005
1.03353
1.41406
1.40001
1.40001
1.84197
1.03112
1.68008
1.03592
1.84172
1.39739
1.02247
1.84342
1.40001
1.40001
1.40001
1.40001
1.8414
1.8405
1.04052
1.40001
1.40003
1.03175
1.40004
1.40001
1.06216
1.08318
1.70828
1.84331
1.39844
1.84215
1.40001
1.84707
1.2112
1.03295
1.84186
1.85212
1.40001
1.84291
1.40001
1.40001
1.84205
1.40001
1.7389
1.83904
1.40001
1.40001
1.40001
1.40001
1.84079
1.83714
1.84105
1.40001
1.40001
1.83981
1.83942
1.83986
1.40001
1.84108
1.40001
1.40001
1.40001
1.40001
1.40001
1.04283
1.23323
1.05872
1.40001
1.40001
1.8413
1.40001
1.40001
1.84396
1.03417
1.40001
1.84142
1.8372
1.82331
1.03387
1.40001
1.02458
1.40001
1.40003
1.8394
1.61254
1.83952
1.80439
1.40001
1.04964
1.40001
1.8398
1.71779
1.03099
1.40001
1.40001
1.40001
1.20698
1.40001
1.40001
1.84897
1.40001
1.01019
1.84177
1.40001
1.40001
1.40001
1.40001
1.40001
1.75408
1.50114
1.40001
1.84122
1.40001
1.84012
1.40001
1.39753
1.40001
1.84097
1.84617
1.8422
1.84535
1.39961
1.84008
1.40001
1.84164
1.84359
1.77235
1.40001
1.40001
1.07249
1.83789
1.40001
1.40001
1.84714
1.84254
1.84478
1.40001
1.84123
1.40001
1.40001
1.40003
1.84572
1.84628
1.52855
1.49641
1.842
1.84355
1.0684
1.40001
1.40001
1.40001
1.40001
1.40002
1.55559
1.40001
1.40001
1.7696
1.05641
1.39999
1.40001
1.84199
1.39988
1.39983
1.46838
1.80433
1.83841
1.29998
1.40001
1.074
1.40001
1.39758
1.84145
1.84446
1.83757
1.39908
1.40001
1.40001
1.03954
1.40001
1.40001
1.84158
1.44836
1.40001
1.40001
1.40001
1.40001
1.40001
1.40001
1.40001
1.39995
1.84016
1.40002
1.40001
1.40001
1.40001
1.40001
1.68054
1.40001
1.60864
1.40001
1.40001
1.84179
1.84611
1.02597
1.39879
1.40001
1.4
1.40001
1.04
1.84087
1.84174
1.40001
1.40001
1.40001
1.40001
1.40001
1.40001
1.40001
1.40001
1.84101
1.83513
1.06668
1.4497
1.02679
1.40001
1.03807
1.40001
1.84178
1.53168
1.40001
1.40001
1.11388
1.40001
1.82387
1.19972
1.39665
1.03693
1.40001
1.40001
1.83923
1.40005
1.39712
1.01028
1.84189
1.84223
1.40001
1.40001
1.40001
1.40001
1.81272
1.40001
1.40001
1.84184
1.39903
1.84241
1.40006
1.40001
1.40001
1.03116
1.40001
1.40001
1.83994
1.04001
1.16511
1.03549
1.8416
1.39931
1.40001
1.84052
1.03324
1.03848
1.41125
1.40001
1.40001
1.83967
1.40004
1.59932
1.40001
1.40001
1.83902
1.03163
1.40001
1.40001
1.40014
1.84283
1.40013
1.8258
1.40001
1.40004
1.40001
1.40001
1.11117
1.40001
1.1706
1.40002
1.40001
1.8454
1.04472
1.40001
1.14758
1.18252
1.40001
1.40001
1.84028
1.40001
1.40001
1.40001
1.84123
1.84185
1.40006
1.82127
1.83978
1.15399
1.84177
1.82147
1.40001
1.40001
1.83715
1.4
1.40001
1.40001
1.40001
1.40001
1.84788
1.84226
1.40001
1.40001
1.40001
1.84023
1.40021
1.40001