/*--------------------------------*- C++ -*----------------------------------*\
  =========                 |
  \\      /  F ield         | OpenFOAM: The Open Source CFD Toolbox
   \\    /   O peration     | Website:  https://openfoam.org
    \\  /    A nd           | Version:  12
     \\/     M anipulation  |
\*---------------------------------------------------------------------------*/
FoamFile
{
    format      ascii;
    class       volVectorField;
    location    "7.8";
    object      U;
}
// * * * * * * * * * * * * * * * * * * * * * * * * * * * * * * * * * * * * * //

dimensions      [0 1 -1 0 0 0 0];

internalField   nonuniform List<vector> 
9801
(
(1.14671 -0.0687406 0)
(1.14511 -0.0653943 0)
(1.1504 -0.0621522 0)
(1.15306 -0.0594203 0)
(1.15221 -0.0567757 0)
(1.14955 -0.0542543 0)
(1.14559 -0.0519779 0)
(1.14119 -0.0494117 0)
(1.13746 -0.0466687 0)
(1.13432 -0.0442682 0)
(1.13134 -0.0423248 0)
(1.12871 -0.0405025 0)
(1.12918 -0.0382239 0)
(1.13393 -0.0357465 0)
(1.13625 -0.0329835 0)
(1.13497 -0.0305617 0)
(1.13187 -0.0283983 0)
(1.12728 -0.0263172 0)
(1.12255 -0.023954 0)
(1.11882 -0.0213368 0)
(1.11561 -0.0191935 0)
(1.11253 -0.0176572 0)
(1.10984 -0.0160309 0)
(1.11109 -0.0139144 0)
(1.11583 -0.0116068 0)
(1.11706 -0.00924277 0)
(1.11498 -0.00733479 0)
(1.11104 -0.00560522 0)
(1.1054 -0.00371118 0)
(1.10042 -0.00136126 0)
(1.09668 0.00109214 0)
(1.09337 0.00285864 0)
(1.09013 0.00404788 0)
(1.0878 0.00550935 0)
(1.09082 0.00740242 0)
(1.09516 0.00949674 0)
(1.09482 0.0113084 0)
(1.09172 0.0125867 0)
(1.08641 0.0139146 0)
(1.07953 0.0155407 0)
(1.07418 0.0178541 0)
(1.07027 0.0200466 0)
(1.06671 0.0213787 0)
(1.06308 0.0222766 0)
(1.0618 0.0234224 0)
(1.06705 0.0253007 0)
(1.07006 0.0270749 0)
(1.06794 0.0283261 0)
(1.06323 0.0291368 0)
(1.05553 0.029935 0)
(1.04765 0.0313901 0)
(1.04207 0.0334418 0)
(1.03775 0.0350082 0)
(1.03364 0.0359284 0)
(1.02993 0.0365017 0)
(1.03197 0.0377009 0)
(1.03882 0.0395568 0)
(1.03943 0.0408794 0)
(1.03559 0.0414385 0)
(1.02819 0.0420067 0)
(1.01633 0.042296 0)
(1.00749 0.0434275 0)
(1.00144 0.0450051 0)
(0.996515 0.0462297 0)
(0.992249 0.0468083 0)
(0.990783 0.0476324 0)
(0.997693 0.0487635 0)
(1.00178 0.049418 0)
(0.99902 0.0497366 0)
(0.993438 0.0499454 0)
(0.981042 0.0501952 0)
(0.96557 0.0507778 0)
(0.956028 0.0525952 0)
(0.949494 0.0548072 0)
(0.943904 0.0560308 0)
(0.940111 0.0567823 0)
(0.945655 0.057108 0)
(0.952967 0.0567982 0)
(0.952046 0.0585354 0)
(0.94629 0.0594907 0)
(0.934812 0.0614323 0)
(0.913002 0.0628606 0)
(0.893945 0.0648765 0)
(0.882136 0.0658048 0)
(0.874068 0.0658376 0)
(0.869506 0.0646595 0)
(0.879252 0.063508 0)
(0.885134 0.0645717 0)
(0.879541 0.0673303 0)
(0.869711 0.07015 0)
(0.855259 0.0719161 0)
(0.827337 0.0710661 0)
(0.790618 0.0672603 0)
(0.761451 0.0635404 0)
(0.742343 0.0604213 0)
(0.734493 0.0424338 0)
(0.719913 0.0238 0)
(0.356228 -0.0500527 0)
(-0.618076 -0.0351214 0)
(1.22387 -0.118205 0)
(1.22333 -0.114747 0)
(1.22755 -0.111747 0)
(1.22664 -0.108653 0)
(1.2237 -0.105537 0)
(1.2199 -0.103099 0)
(1.21555 -0.10082 0)
(1.20866 -0.0978464 0)
(1.20224 -0.0948451 0)
(1.19751 -0.09224 0)
(1.19362 -0.0901498 0)
(1.19052 -0.0881681 0)
(1.19179 -0.0854988 0)
(1.19512 -0.0827784 0)
(1.19413 -0.0796384 0)
(1.19094 -0.0768496 0)
(1.187 -0.0747698 0)
(1.18229 -0.0726162 0)
(1.17462 -0.0696581 0)
(1.16818 -0.0666978 0)
(1.16339 -0.0642 0)
(1.15951 -0.0623125 0)
(1.15647 -0.0603878 0)
(1.15792 -0.0577069 0)
(1.16075 -0.0548262 0)
(1.15931 -0.0518523 0)
(1.15583 -0.0494253 0)
(1.15187 -0.0476912 0)
(1.14598 -0.0455414 0)
(1.13748 -0.0427129 0)
(1.13125 -0.0399265 0)
(1.12655 -0.0376409 0)
(1.12265 -0.0360019 0)
(1.11989 -0.0341614 0)
(1.12227 -0.0314171 0)
(1.12449 -0.0283606 0)
(1.12241 -0.025692 0)
(1.11874 -0.0238433 0)
(1.11448 -0.0223454 0)
(1.10598 -0.0200306 0)
(1.09718 -0.0171891 0)
(1.09123 -0.0146289 0)
(1.08654 -0.0127116 0)
(1.0825 -0.0113296 0)
(1.08089 -0.00949181 0)
(1.08471 -0.00637111 0)
(1.08599 -0.00320425 0)
(1.08326 -0.000851376 0)
(1.07932 0.000253824 0)
(1.07334 0.00145449 0)
(1.06245 0.00356998 0)
(1.05406 0.00623889 0)
(1.04841 0.00853035 0)
(1.04374 0.0102115 0)
(1.0398 0.0113746 0)
(1.0407 0.0134741 0)
(1.04551 0.0168413 0)
(1.04509 0.0196868 0)
(1.04137 0.0213765 0)
(1.03657 0.0223212 0)
(1.02576 0.0233295 0)
(1.01397 0.0251608 0)
(1.00636 0.0275789 0)
(1.00083 0.0294621 0)
(0.996162 0.0304466 0)
(0.993522 0.0317036 0)
(0.999258 0.0347727 0)
(1.00249 0.0379613 0)
(0.999169 0.0404797 0)
(0.99447 0.0415242 0)
(0.985852 0.0425809 0)
(0.969907 0.0429108 0)
(0.958259 0.0437242 0)
(0.950804 0.04492 0)
(0.944874 0.045527 0)
(0.940813 0.0465806 0)
(0.945973 0.0497326 0)
(0.951478 0.05397 0)
(0.949522 0.0568799 0)
(0.944301 0.0588271 0)
(0.936582 0.0597123 0)
(0.918431 0.0578593 0)
(0.896772 0.0554959 0)
(0.883831 0.0561615 0)
(0.875326 0.0560597 0)
(0.869319 0.0566633 0)
(0.873466 0.0605467 0)
(0.878186 0.0684011 0)
(0.874433 0.0737585 0)
(0.865563 0.0748443 0)
(0.852916 0.0737816 0)
(0.826177 0.069289 0)
(0.788001 0.0629436 0)
(0.755069 0.0595884 0)
(0.732992 0.058811 0)
(0.717753 0.0475058 0)
(0.709808 0.0305952 0)
(0.355527 -0.0339696 0)
(-0.624544 -0.0368314 0)
(1.21947 -0.115339 0)
(1.21838 -0.111187 0)
(1.22223 -0.108065 0)
(1.22157 -0.105592 0)
(1.21889 -0.102942 0)
(1.21515 -0.100349 0)
(1.21072 -0.0977738 0)
(1.20413 -0.0950397 0)
(1.19784 -0.0926596 0)
(1.19311 -0.0902572 0)
(1.18915 -0.0878954 0)
(1.18602 -0.0855829 0)
(1.1871 -0.0825975 0)
(1.19018 -0.0798405 0)
(1.18947 -0.0773017 0)
(1.18651 -0.0747789 0)
(1.18256 -0.0724008 0)
(1.17781 -0.0699336 0)
(1.17048 -0.0674551 0)
(1.16419 -0.0652362 0)
(1.15933 -0.0628455 0)
(1.1553 -0.0605404 0)
(1.15214 -0.058261 0)
(1.1534 -0.0553119 0)
(1.15628 -0.0525438 0)
(1.15517 -0.0500384 0)
(1.15188 -0.0477018 0)
(1.1478 -0.0456524 0)
(1.14206 -0.0433773 0)
(1.1339 -0.0413417 0)
(1.12777 -0.0393869 0)
(1.12289 -0.0371279 0)
(1.11879 -0.0349727 0)
(1.11577 -0.0327416 0)
(1.11797 -0.0296274 0)
(1.1206 -0.0266591 0)
(1.11887 -0.0242336 0)
(1.11524 -0.0222617 0)
(1.11083 -0.0204556 0)
(1.10273 -0.0185085 0)
(1.09449 -0.0170876 0)
(1.08857 -0.0153924 0)
(1.08357 -0.0132405 0)
(1.07931 -0.0111869 0)
(1.077 -0.00868725 0)
(1.08083 -0.00486644 0)
(1.08287 -0.00180143 0)
(1.08039 0.000443371 0)
(1.07638 0.00188697 0)
(1.07042 0.00338957 0)
(1.05997 0.00433476 0)
(1.05181 0.00539884 0)
(1.04593 0.00704726 0)
(1.04099 0.009067 0)
(1.03685 0.0108678 0)
(1.037 0.0136946 0)
(1.0421 0.0175747 0)
(1.04242 0.0206329 0)
(1.03893 0.022797 0)
(1.03414 0.0243162 0)
(1.02404 0.0252243 0)
(1.01191 0.0249205 0)
(1.00372 0.0258674 0)
(0.997701 0.0275531 0)
(0.992904 0.02918 0)
(0.99019 0.0311799 0)
(0.995323 0.0350112 0)
(0.999241 0.039177 0)
(0.996759 0.042169 0)
(0.992276 0.0435602 0)
(0.984934 0.044523 0)
(0.968854 0.042932 0)
(0.955111 0.0418136 0)
(0.946745 0.0428285 0)
(0.940529 0.0441926 0)
(0.935993 0.0457807 0)
(0.939576 0.0502474 0)
(0.945791 0.0561248 0)
(0.944791 0.0597078 0)
(0.939638 0.0609765 0)
(0.933106 0.0608857 0)
(0.916927 0.0581633 0)
(0.893379 0.0537378 0)
(0.878958 0.0522838 0)
(0.869918 0.0531322 0)
(0.862557 0.0536943 0)
(0.861963 0.0572888 0)
(0.867217 0.0625456 0)
(0.866155 0.0643789 0)
(0.858515 0.0647964 0)
(0.847641 0.0649301 0)
(0.82408 0.0623329 0)
(0.789957 0.0548807 0)
(0.759031 0.0466518 0)
(0.733527 0.0397164 0)
(0.713745 0.022765 0)
(0.713589 0.00163783 0)
(0.355986 -0.0353597 0)
(-0.626045 -0.0278933 0)
(1.21045 -0.113456 0)
(1.20948 -0.108955 0)
(1.21291 -0.105728 0)
(1.2119 -0.103252 0)
(1.20923 -0.100928 0)
(1.2057 -0.0986086 0)
(1.20156 -0.0962469 0)
(1.19563 -0.0934742 0)
(1.1891 -0.090972 0)
(1.1844 -0.0887851 0)
(1.18053 -0.0866905 0)
(1.17753 -0.0843077 0)
(1.17864 -0.0811239 0)
(1.18127 -0.0782359 0)
(1.18043 -0.0757948 0)
(1.17771 -0.0734799 0)
(1.17409 -0.0712059 0)
(1.16971 -0.0688692 0)
(1.16273 -0.0663125 0)
(1.15607 -0.0640993 0)
(1.15139 -0.0619278 0)
(1.14748 -0.0597137 0)
(1.14449 -0.0571993 0)
(1.14582 -0.0540412 0)
(1.14839 -0.0512655 0)
(1.14729 -0.0489581 0)
(1.14427 -0.0468548 0)
(1.14041 -0.044914 0)
(1.13523 -0.0427332 0)
(1.1269 -0.0405511 0)
(1.12052 -0.038408 0)
(1.11586 -0.0361218 0)
(1.1119 -0.0338531 0)
(1.10907 -0.0313377 0)
(1.11124 -0.0281961 0)
(1.11381 -0.025486 0)
(1.1122 -0.0234065 0)
(1.10877 -0.0216709 0)
(1.1046 -0.0200649 0)
(1.09711 -0.0181655 0)
(1.08823 -0.0163917 0)
(1.08222 -0.0142448 0)
(1.07748 -0.0118276 0)
(1.07339 -0.00960831 0)
(1.07108 -0.00706722 0)
(1.07475 -0.00380274 0)
(1.077 -0.00116148 0)
(1.07476 0.000799439 0)
(1.07094 0.00218138 0)
(1.06574 0.00353497 0)
(1.05536 0.00436386 0)
(1.04616 0.00560839 0)
(1.04013 0.00766699 0)
(1.03523 0.0100459 0)
(1.03112 0.012252 0)
(1.03085 0.0153519 0)
(1.03593 0.0189724 0)
(1.03691 0.0216039 0)
(1.03381 0.0235066 0)
(1.02941 0.0244496 0)
(1.02132 0.0250341 0)
(1.00802 0.0240683 0)
(0.99831 0.0247922 0)
(0.991988 0.0268299 0)
(0.987012 0.0290011 0)
(0.983592 0.0314542 0)
(0.987599 0.0356502 0)
(0.99246 0.0396531 0)
(0.990913 0.0420271 0)
(0.986786 0.0432329 0)
(0.981346 0.0439333 0)
(0.967246 0.0426962 0)
(0.950404 0.0404489 0)
(0.940355 0.041011 0)
(0.933741 0.0425706 0)
(0.928406 0.043995 0)
(0.928846 0.0477204 0)
(0.93567 0.0536501 0)
(0.936577 0.0571592 0)
(0.932178 0.0589671 0)
(0.926124 0.0600291 0)
(0.91446 0.060242 0)
(0.891518 0.0542438 0)
(0.872925 0.0488708 0)
(0.862137 0.0482315 0)
(0.85426 0.0488165 0)
(0.84945 0.0507754 0)
(0.85219 0.0570816 0)
(0.852215 0.0639692 0)
(0.845933 0.067648 0)
(0.836739 0.067908 0)
(0.820615 0.0650218 0)
(0.791082 0.0522222 0)
(0.758588 0.0387005 0)
(0.732029 0.02904 0)
(0.713348 0.0128569 0)
(0.717045 -0.00863812 0)
(0.361526 -0.0273025 0)
(-0.627873 -0.023733 0)
(1.20061 -0.110107 0)
(1.19987 -0.105812 0)
(1.20336 -0.102525 0)
(1.20227 -0.0999489 0)
(1.19954 -0.097631 0)
(1.1961 -0.0953267 0)
(1.19211 -0.0930444 0)
(1.18677 -0.0903928 0)
(1.18009 -0.0878424 0)
(1.17518 -0.0856594 0)
(1.17136 -0.0837652 0)
(1.16834 -0.0816559 0)
(1.1696 -0.078318 0)
(1.17233 -0.0751671 0)
(1.17146 -0.0726721 0)
(1.16877 -0.0704541 0)
(1.16531 -0.06839 0)
(1.1612 -0.0662675 0)
(1.15484 -0.0637022 0)
(1.14774 -0.0613778 0)
(1.14289 -0.0593729 0)
(1.139 -0.0575568 0)
(1.13596 -0.055429 0)
(1.13747 -0.052084 0)
(1.14022 -0.048939 0)
(1.1392 -0.0465347 0)
(1.13633 -0.0444718 0)
(1.13267 -0.0426177 0)
(1.12798 -0.0405533 0)
(1.11983 -0.0382825 0)
(1.11286 -0.0363159 0)
(1.10808 -0.0344657 0)
(1.1041 -0.0327472 0)
(1.10125 -0.0306189 0)
(1.1035 -0.0273647 0)
(1.10628 -0.024253 0)
(1.10496 -0.0218409 0)
(1.10178 -0.0198637 0)
(1.09789 -0.0181746 0)
(1.09137 -0.0164081 0)
(1.08159 -0.0153063 0)
(1.07491 -0.0136224 0)
(1.07014 -0.0116686 0)
(1.06609 -0.00979332 0)
(1.06383 -0.00734476 0)
(1.06736 -0.00395746 0)
(1.0699 -0.000865959 0)
(1.06809 0.00156783 0)
(1.06461 0.00340385 0)
(1.06022 0.00496657 0)
(1.05088 0.00572711 0)
(1.03993 0.00571554 0)
(1.03311 0.00737157 0)
(1.0281 0.0095802 0)
(1.02396 0.0116526 0)
(1.02327 0.0147336 0)
(1.0283 0.0186727 0)
(1.02996 0.0216816 0)
(1.02739 0.0239281 0)
(1.02333 0.0254602 0)
(1.01763 0.026537 0)
(1.0048 0.0253838 0)
(0.992078 0.0242629 0)
(0.984949 0.0257584 0)
(0.979854 0.0278097 0)
(0.975819 0.0300932 0)
(0.978068 0.0345508 0)
(0.983792 0.0398065 0)
(0.983399 0.0427838 0)
(0.979681 0.0442994 0)
(0.975043 0.0450422 0)
(0.965234 0.044752 0)
(0.94731 0.040869 0)
(0.934122 0.0387519 0)
(0.92656 0.0396083 0)
(0.920726 0.0409406 0)
(0.917638 0.043847 0)
(0.922984 0.0511299 0)
(0.926752 0.0576766 0)
(0.923948 0.0602399 0)
(0.918488 0.060657 0)
(0.910811 0.0603367 0)
(0.892592 0.0553614 0)
(0.869684 0.0476658 0)
(0.855449 0.0438897 0)
(0.846738 0.0438289 0)
(0.84004 0.0446619 0)
(0.839621 0.048966 0)
(0.841559 0.0557288 0)
(0.837673 0.0596137 0)
(0.829638 0.0601721 0)
(0.819201 0.0591599 0)
(0.797601 0.0519839 0)
(0.767758 0.037235 0)
(0.740346 0.0230284 0)
(0.720074 0.0047739 0)
(0.725403 -0.0194236 0)
(0.362891 -0.0191218 0)
(-0.629966 -0.0204698 0)
(1.19197 -0.107618 0)
(1.191 -0.103541 0)
(1.19481 -0.100064 0)
(1.1939 -0.0973683 0)
(1.19125 -0.095132 0)
(1.18792 -0.0929292 0)
(1.18407 -0.0907755 0)
(1.17898 -0.0882931 0)
(1.1722 -0.0857202 0)
(1.16717 -0.0834943 0)
(1.16336 -0.0815555 0)
(1.16026 -0.0795773 0)
(1.16143 -0.0763673 0)
(1.16452 -0.0731842 0)
(1.16383 -0.0707224 0)
(1.1612 -0.0685218 0)
(1.15782 -0.0664832 0)
(1.15388 -0.0645366 0)
(1.1479 -0.0622348 0)
(1.14046 -0.0599946 0)
(1.13536 -0.0578676 0)
(1.1314 -0.0558782 0)
(1.12828 -0.0537821 0)
(1.12969 -0.0504119 0)
(1.13295 -0.0471248 0)
(1.13223 -0.0447357 0)
(1.12951 -0.0427164 0)
(1.12596 -0.0409655 0)
(1.12168 -0.039266 0)
(1.11378 -0.0376114 0)
(1.10595 -0.0360024 0)
(1.10092 -0.033887 0)
(1.09689 -0.0317326 0)
(1.09395 -0.029302 0)
(1.0961 -0.0256394 0)
(1.09939 -0.0223015 0)
(1.09848 -0.0199533 0)
(1.09557 -0.0180081 0)
(1.09188 -0.0164578 0)
(1.08661 -0.0150593 0)
(1.07657 -0.0144952 0)
(1.06832 -0.013614 0)
(1.06322 -0.0116928 0)
(1.0591 -0.00958779 0)
(1.05665 -0.00672345 0)
(1.05999 -0.00254426 0)
(1.06308 0.000935776 0)
(1.06181 0.00335974 0)
(1.05868 0.00537284 0)
(1.05474 0.00678958 0)
(1.0477 0.00763696 0)
(1.03537 0.00674693 0)
(1.02644 0.00699935 0)
(1.02117 0.0087873 0)
(1.01695 0.010869 0)
(1.0155 0.0142553 0)
(1.02051 0.0193039 0)
(1.02325 0.0229073 0)
(1.02108 0.0247715 0)
(1.01726 0.0259773 0)
(1.0128 0.0267814 0)
(1.0026 0.0265653 0)
(0.987604 0.02496 0)
(0.978396 0.0247418 0)
(0.973056 0.0259732 0)
(0.968516 0.0276453 0)
(0.968322 0.0317081 0)
(0.974724 0.038724 0)
(0.97646 0.043243 0)
(0.973318 0.044812 0)
(0.96888 0.0452135 0)
(0.962223 0.0453099 0)
(0.946558 0.0420144 0)
(0.930047 0.0383834 0)
(0.920352 0.0374469 0)
(0.914074 0.0384447 0)
(0.909014 0.0400911 0)
(0.910496 0.045638 0)
(0.916911 0.0544095 0)
(0.91704 0.0593472 0)
(0.912439 0.0608876 0)
(0.906348 0.0611724 0)
(0.894435 0.0594324 0)
(0.871723 0.0504661 0)
(0.852909 0.043173 0)
(0.84199 0.0399816 0)
(0.83443 0.0394398 0)
(0.83011 0.0412524 0)
(0.83146 0.047218 0)
(0.830122 0.0528322 0)
(0.823906 0.0552701 0)
(0.815437 0.0549312 0)
(0.803834 0.0517428 0)
(0.783307 0.0398851 0)
(0.756932 0.0240731 0)
(0.73159 0.00814628 0)
(0.732963 -0.0269616 0)
(0.359948 -0.0146034 0)
(-0.632045 -0.0178892 0)
(1.18593 -0.104724 0)
(1.18418 -0.100912 0)
(1.18819 -0.0975049 0)
(1.18756 -0.0948158 0)
(1.18511 -0.0924993 0)
(1.18195 -0.0902703 0)
(1.17826 -0.0882372 0)
(1.1735 -0.0859296 0)
(1.16656 -0.0833991 0)
(1.1612 -0.0812933 0)
(1.15722 -0.0795111 0)
(1.15398 -0.0777042 0)
(1.15491 -0.0743685 0)
(1.15848 -0.0707425 0)
(1.15807 -0.0682135 0)
(1.1555 -0.0661749 0)
(1.15218 -0.0642939 0)
(1.14837 -0.0625168 0)
(1.14289 -0.0604374 0)
(1.1351 -0.0583499 0)
(1.12951 -0.0564065 0)
(1.12543 -0.0544596 0)
(1.12221 -0.052371 0)
(1.12327 -0.0487541 0)
(1.12705 -0.0449531 0)
(1.12676 -0.0424923 0)
(1.1241 -0.0407078 0)
(1.12067 -0.0391331 0)
(1.11672 -0.0376234 0)
(1.10977 -0.0360867 0)
(1.10094 -0.034848 0)
(1.09515 -0.0332092 0)
(1.09098 -0.0312795 0)
(1.08784 -0.0289797 0)
(1.08947 -0.0249046 0)
(1.09338 -0.0207606 0)
(1.09303 -0.0182204 0)
(1.09027 -0.0164838 0)
(1.08667 -0.0151113 0)
(1.08245 -0.0138435 0)
(1.0738 -0.0131725 0)
(1.06371 -0.012758 0)
(1.05756 -0.0114623 0)
(1.05326 -0.009765 0)
(1.05025 -0.0074121 0)
(1.05289 -0.00270965 0)
(1.0569 0.00191388 0)
(1.05621 0.00441107 0)
(1.05321 0.00591901 0)
(1.04941 0.00710464 0)
(1.04441 0.00823442 0)
(1.03326 0.00810586 0)
(1.02203 0.00779581 0)
(1.01566 0.00857728 0)
(1.01125 0.00966291 0)
(1.00837 0.0117967 0)
(1.01246 0.0174047 0)
(1.01706 0.0232098 0)
(1.01583 0.0260554 0)
(1.01216 0.02734 0)
(1.00797 0.028084 0)
(1.00048 0.028421 0)
(0.985834 0.0263636 0)
(0.974357 0.025034 0)
(0.967674 0.0252798 0)
(0.962816 0.0261567 0)
(0.959665 0.0283018 0)
(0.96463 0.0351883 0)
(0.969868 0.0426326 0)
(0.96854 0.0457468 0)
(0.964404 0.0465376 0)
(0.959231 0.0468008 0)
(0.94774 0.0449314 0)
(0.929603 0.0392813 0)
(0.916887 0.0365119 0)
(0.90941 0.0361208 0)
(0.903784 0.0367219 0)
(0.900765 0.0391851 0)
(0.906233 0.0473345 0)
(0.910527 0.055344 0)
(0.908056 0.0592611 0)
(0.902569 0.0605683 0)
(0.89531 0.0607023 0)
(0.878974 0.0557225 0)
(0.856552 0.0441902 0)
(0.841087 0.0377359 0)
(0.83188 0.0355459 0)
(0.825239 0.0352299 0)
(0.823676 0.0382648 0)
(0.824696 0.0438297 0)
(0.821664 0.0466003 0)
(0.815454 0.0465625 0)
(0.80728 0.0456151 0)
(0.794409 0.0395959 0)
(0.775637 0.0273442 0)
(0.750794 0.0127479 0)
(0.738818 -0.0247703 0)
(0.354927 -0.0164317 0)
(-0.633854 -0.0161459 0)
(1.18153 -0.10248 0)
(1.17911 -0.0986679 0)
(1.18347 -0.0946788 0)
(1.1833 -0.091846 0)
(1.18101 -0.0896414 0)
(1.17792 -0.0875911 0)
(1.17433 -0.0857199 0)
(1.16987 -0.0836833 0)
(1.16283 -0.0814675 0)
(1.15712 -0.079454 0)
(1.153 -0.0775704 0)
(1.14958 -0.0758689 0)
(1.14962 -0.0727439 0)
(1.15364 -0.0686323 0)
(1.15384 -0.0657549 0)
(1.15145 -0.0636513 0)
(1.14826 -0.061793 0)
(1.14459 -0.0601266 0)
(1.13974 -0.0583783 0)
(1.13173 -0.0566773 0)
(1.12541 -0.0548776 0)
(1.12113 -0.0531017 0)
(1.11758 -0.0514654 0)
(1.11755 -0.0481738 0)
(1.12195 -0.0435694 0)
(1.12253 -0.040521 0)
(1.12015 -0.0385314 0)
(1.11687 -0.0368724 0)
(1.11314 -0.0354253 0)
(1.10747 -0.0340759 0)
(1.09811 -0.0332384 0)
(1.09107 -0.0318825 0)
(1.08655 -0.0302589 0)
(1.08287 -0.0287137 0)
(1.08307 -0.0251405 0)
(1.08791 -0.0198775 0)
(1.08872 -0.0165978 0)
(1.08631 -0.0147173 0)
(1.08289 -0.013207 0)
(1.07903 -0.0120289 0)
(1.07209 -0.0112695 0)
(1.06124 -0.0114391 0)
(1.05352 -0.0104847 0)
(1.04867 -0.00898982 0)
(1.04485 -0.00754966 0)
(1.04542 -0.00358703 0)
(1.05091 0.00255558 0)
(1.05193 0.00615362 0)
(1.04936 0.00785034 0)
(1.04571 0.00899992 0)
(1.04151 0.00984904 0)
(1.03217 0.0097614 0)
(1.01992 0.00846775 0)
(1.01202 0.00870827 0)
(1.00679 0.00988055 0)
(1.00273 0.0112113 0)
(1.00343 0.0153812 0)
(1.01005 0.0228366 0)
(1.01134 0.0272334 0)
(1.00831 0.0287633 0)
(1.00433 0.0295199 0)
(0.999051 0.0298878 0)
(0.986262 0.0276392 0)
(0.972674 0.0245048 0)
(0.964374 0.0241887 0)
(0.958585 0.0251208 0)
(0.954012 0.0263312 0)
(0.954302 0.0306755 0)
(0.961788 0.0396027 0)
(0.964105 0.0454771 0)
(0.961116 0.0476774 0)
(0.9566 0.0483611 0)
(0.949485 0.0481554 0)
(0.93304 0.0427204 0)
(0.916656 0.036287 0)
(0.90695 0.0344454 0)
(0.900485 0.0344272 0)
(0.895188 0.0351207 0)
(0.895096 0.0399298 0)
(0.901582 0.0501363 0)
(0.903052 0.0568588 0)
(0.899199 0.059839 0)
(0.893381 0.0607103 0)
(0.884648 0.0597151 0)
(0.865787 0.0512752 0)
(0.844832 0.0393232 0)
(0.83174 0.0336257 0)
(0.82381 0.0315167 0)
(0.818319 0.0314096 0)
(0.818356 0.035515 0)
(0.817919 0.0401453 0)
(0.813803 0.0412299 0)
(0.808121 0.0393614 0)
(0.800572 0.0359482 0)
(0.788575 0.0272048 0)
(0.770668 0.0146487 0)
(0.751343 -0.0186269 0)
(0.34877 -0.0185962 0)
(-0.63521 -0.0139189 0)
(1.17819 -0.100236 0)
(1.17498 -0.0965935 0)
(1.17972 -0.0921026 0)
(1.1802 -0.0890554 0)
(1.17803 -0.086918 0)
(1.17499 -0.0849774 0)
(1.17147 -0.0832096 0)
(1.16722 -0.0813599 0)
(1.16032 -0.0794078 0)
(1.15418 -0.0776917 0)
(1.14988 -0.0759972 0)
(1.14629 -0.0744262 0)
(1.14503 -0.0715381 0)
(1.14922 -0.0668229 0)
(1.15054 -0.0633727 0)
(1.1485 -0.06121 0)
(1.14542 -0.0594207 0)
(1.14183 -0.0578593 0)
(1.13742 -0.0562637 0)
(1.12956 -0.0547964 0)
(1.12253 -0.05341 0)
(1.1179 -0.0517977 0)
(1.11416 -0.050297 0)
(1.11255 -0.047619 0)
(1.11693 -0.0426565 0)
(1.11893 -0.0388204 0)
(1.11703 -0.0366325 0)
(1.11388 -0.0349311 0)
(1.11023 -0.0334684 0)
(1.10542 -0.0320574 0)
(1.09628 -0.0313889 0)
(1.08827 -0.0306184 0)
(1.08322 -0.0291701 0)
(1.07929 -0.027727 0)
(1.07741 -0.025189 0)
(1.08212 -0.0198646 0)
(1.08482 -0.0155911 0)
(1.08306 -0.0134334 0)
(1.07986 -0.0119346 0)
(1.07609 -0.010704 0)
(1.07067 -0.00958867 0)
(1.0598 -0.00979627 0)
(1.05079 -0.0095981 0)
(1.04524 -0.00827476 0)
(1.04107 -0.00690594 0)
(1.03891 -0.0046264 0)
(1.04409 0.00131758 0)
(1.04781 0.0065491 0)
(1.0462 0.00876384 0)
(1.04278 0.00996401 0)
(1.03886 0.010826 0)
(1.03201 0.0111944 0)
(1.01919 0.009425 0)
(1.00945 0.00869507 0)
(1.00334 0.00973094 0)
(0.998755 0.0109539 0)
(0.995995 0.013058 0)
(1.00138 0.020109 0)
(1.00661 0.0272073 0)
(1.00545 0.0300786 0)
(1.0017 0.0306731 0)
(0.997318 0.0310969 0)
(0.988303 0.0299596 0)
(0.973078 0.0255799 0)
(0.962354 0.0235637 0)
(0.955716 0.0241491 0)
(0.950595 0.0251995 0)
(0.947031 0.0270837 0)
(0.951528 0.0344576 0)
(0.958192 0.0437022 0)
(0.957809 0.0480721 0)
(0.953861 0.0493976 0)
(0.948905 0.0496426 0)
(0.938913 0.0474032 0)
(0.920697 0.0387385 0)
(0.906673 0.0330337 0)
(0.898203 0.0323817 0)
(0.892363 0.0328833 0)
(0.888049 0.0342272 0)
(0.891193 0.041079 0)
(0.896764 0.0509538 0)
(0.896203 0.0559481 0)
(0.891654 0.0578966 0)
(0.885363 0.0584726 0)
(0.874412 0.0567041 0)
(0.854325 0.0462302 0)
(0.835659 0.0343261 0)
(0.823921 0.0291306 0)
(0.816803 0.0273129 0)
(0.812715 0.0278239 0)
(0.813777 0.0319665 0)
(0.812837 0.034449 0)
(0.808838 0.0336764 0)
(0.8039 0.0304222 0)
(0.796705 0.0249183 0)
(0.786072 0.0161877 0)
(0.766247 -0.00867701 0)
(0.345031 -0.020874 0)
(-0.636347 -0.0113832 0)
(1.17519 -0.0979684 0)
(1.17117 -0.0949101 0)
(1.17583 -0.0901029 0)
(1.17732 -0.0865768 0)
(1.17543 -0.0843261 0)
(1.17244 -0.0824557 0)
(1.16896 -0.0807859 0)
(1.16491 -0.0791285 0)
(1.15825 -0.0774174 0)
(1.15154 -0.0758553 0)
(1.14693 -0.0741906 0)
(1.14327 -0.0725992 0)
(1.14093 -0.0703151 0)
(1.14448 -0.0656447 0)
(1.1473 -0.0614814 0)
(1.14581 -0.059086 0)
(1.14285 -0.057291 0)
(1.13933 -0.0557462 0)
(1.13526 -0.0542603 0)
(1.12785 -0.0529554 0)
(1.12002 -0.0518374 0)
(1.115 -0.0504107 0)
(1.11117 -0.0489873 0)
(1.10836 -0.0470785 0)
(1.11143 -0.0424638 0)
(1.11514 -0.0376501 0)
(1.11405 -0.0349535 0)
(1.11111 -0.0331474 0)
(1.10756 -0.0316593 0)
(1.10342 -0.0302957 0)
(1.09514 -0.0295251 0)
(1.08599 -0.0292144 0)
(1.08039 -0.0281446 0)
(1.0763 -0.0268943 0)
(1.0731 -0.0252916 0)
(1.07572 -0.0206567 0)
(1.08054 -0.0149241 0)
(1.08 -0.0119666 0)
(1.07703 -0.0103908 0)
(1.07339 -0.00915798 0)
(1.06895 -0.00799986 0)
(1.05927 -0.00786222 0)
(1.04877 -0.00842961 0)
(1.0426 -0.00778421 0)
(1.03819 -0.00667282 0)
(1.03457 -0.0053259 0)
(1.0365 -0.000815901 0)
(1.04279 0.00619596 0)
(1.04322 0.00997986 0)
(1.04018 0.0114426 0)
(1.03642 0.012357 0)
(1.03149 0.0130995 0)
(1.02002 0.0117179 0)
(1.00789 0.00980873 0)
(1.0008 0.00999521 0)
(0.995838 0.0111525 0)
(0.99174 0.012311 0)
(0.992388 0.0160827 0)
(1.0001 0.0245345 0)
(1.00237 0.0297532 0)
(0.999713 0.0319686 0)
(0.995767 0.0326345 0)
(0.989897 0.0328878 0)
(0.976229 0.0293268 0)
(0.962119 0.0247584 0)
(0.953793 0.0236988 0)
(0.947927 0.0244324 0)
(0.943151 0.0252708 0)
(0.941773 0.0285522 0)
(0.949335 0.0384555 0)
(0.953563 0.0464455 0)
(0.951353 0.0495275 0)
(0.946949 0.050168 0)
(0.941331 0.0500522 0)
(0.927918 0.0457486 0)
(0.909223 0.0368849 0)
(0.897598 0.0327184 0)
(0.89067 0.031993 0)
(0.885202 0.0318115 0)
(0.882154 0.0337703 0)
(0.886977 0.0424325 0)
(0.89059 0.0515339 0)
(0.888289 0.0558188 0)
(0.882973 0.0574029 0)
(0.876439 0.0571201 0)
(0.864654 0.0533074 0)
(0.844546 0.0411003 0)
(0.827372 0.0297495 0)
(0.816741 0.0247131 0)
(0.810501 0.022802 0)
(0.808177 0.0238627 0)
(0.809822 0.0281734 0)
(0.8088 0.0295145 0)
(0.805986 0.0267096 0)
(0.802016 0.0215801 0)
(0.796535 0.0157851 0)
(0.78113 -0.000226633 0)
(0.344296 -0.0201626 0)
(-0.637393 -0.00852419 0)
(1.17221 -0.0957246 0)
(1.16756 -0.0932961 0)
(1.17139 -0.0885713 0)
(1.17413 -0.0845189 0)
(1.17277 -0.0820129 0)
(1.16991 -0.0801448 0)
(1.1665 -0.0785264 0)
(1.16263 -0.0770036 0)
(1.15654 -0.0755086 0)
(1.14916 -0.0740877 0)
(1.1441 -0.0723489 0)
(1.14028 -0.0706232 0)
(1.13732 -0.0688225 0)
(1.13946 -0.0647664 0)
(1.14371 -0.0601014 0)
(1.14306 -0.0572832 0)
(1.14029 -0.0553718 0)
(1.13686 -0.0537446 0)
(1.133 -0.0522757 0)
(1.12654 -0.0510244 0)
(1.11793 -0.0502328 0)
(1.11224 -0.0489514 0)
(1.10816 -0.0474594 0)
(1.10483 -0.0460409 0)
(1.10562 -0.0423769 0)
(1.11072 -0.0368132 0)
(1.11103 -0.0334369 0)
(1.10842 -0.0315097 0)
(1.10503 -0.0299844 0)
(1.10123 -0.0286911 0)
(1.09452 -0.0277683 0)
(1.0845 -0.027822 0)
(1.07785 -0.0271128 0)
(1.07338 -0.0258139 0)
(1.06974 -0.0246381 0)
(1.06925 -0.0215253 0)
(1.07513 -0.0151771 0)
(1.0768 -0.0108683 0)
(1.07436 -0.00887044 0)
(1.07089 -0.00754525 0)
(1.06701 -0.00645523 0)
(1.05955 -0.00608554 0)
(1.04801 -0.00730948 0)
(1.04037 -0.00734095 0)
(1.03546 -0.0062897 0)
(1.03152 -0.00521837 0)
(1.02968 -0.00277282 0)
(1.03585 0.00445241 0)
(1.0397 0.0104667 0)
(1.03787 0.0130036 0)
(1.03434 0.0141201 0)
(1.03039 0.0149086 0)
(1.02197 0.0143297 0)
(1.00826 0.0111801 0)
(0.999132 0.00993788 0)
(0.993704 0.0103325 0)
(0.98918 0.0111993 0)
(0.985812 0.0130026 0)
(0.990625 0.0202585 0)
(0.99725 0.0291879 0)
(0.997005 0.0328539 0)
(0.993433 0.0341387 0)
(0.98913 0.0350198 0)
(0.98113 0.0338153 0)
(0.965482 0.0272759 0)
(0.953158 0.0232138 0)
(0.946011 0.0231316 0)
(0.940849 0.0239342 0)
(0.936419 0.0248624 0)
(0.938357 0.0300004 0)
(0.946802 0.0409509 0)
(0.948634 0.0469533 0)
(0.945281 0.0491717 0)
(0.940353 0.0507448 0)
(0.933067 0.0514429 0)
(0.917383 0.04465 0)
(0.90049 0.0345233 0)
(0.890272 0.0304653 0)
(0.883661 0.0301156 0)
(0.87838 0.0301883 0)
(0.877011 0.0332172 0)
(0.882342 0.0425669 0)
(0.884323 0.0500188 0)
(0.88132 0.0529959 0)
(0.875879 0.0540391 0)
(0.868757 0.053568 0)
(0.855753 0.0487903 0)
(0.836055 0.0355759 0)
(0.820278 0.0243903 0)
(0.810637 0.0191499 0)
(0.805339 0.0173575 0)
(0.804938 0.0191083 0)
(0.807634 0.0234059 0)
(0.807666 0.0233253 0)
(0.805946 0.018672 0)
(0.803581 0.01412 0)
(0.793371 0.00541122 0)
(0.347517 -0.0177952 0)
(-0.638522 -0.00553339 0)
(1.16923 -0.0935224 0)
(1.16422 -0.0915676 0)
(1.16646 -0.0872593 0)
(1.17045 -0.0827084 0)
(1.16995 -0.0798915 0)
(1.16731 -0.0779943 0)
(1.16401 -0.0763703 0)
(1.16027 -0.074873 0)
(1.15491 -0.073353 0)
(1.14701 -0.0720188 0)
(1.14145 -0.0704618 0)
(1.13747 -0.0688075 0)
(1.13416 -0.0672937 0)
(1.1345 -0.0640844 0)
(1.13944 -0.0590708 0)
(1.14007 -0.0555903 0)
(1.13766 -0.0534262 0)
(1.1344 -0.0516996 0)
(1.13068 -0.0502558 0)
(1.12538 -0.0489872 0)
(1.11649 -0.0484309 0)
(1.1098 -0.047494 0)
(1.10538 -0.0460535 0)
(1.10177 -0.0447269 0)
(1.10032 -0.0421638 0)
(1.10534 -0.0365866 0)
(1.10781 -0.032113 0)
(1.10584 -0.0298715 0)
(1.10265 -0.0283266 0)
(1.09901 -0.0270782 0)
(1.0939 -0.0260554 0)
(1.08397 -0.0262883 0)
(1.0758 -0.0261598 0)
(1.07073 -0.0249587 0)
(1.06676 -0.0235998 0)
(1.06404 -0.0216806 0)
(1.06826 -0.0160679 0)
(1.07292 -0.0101328 0)
(1.07185 -0.00735218 0)
(1.06868 -0.00591238 0)
(1.06504 -0.00487913 0)
(1.05987 -0.00425218 0)
(1.04878 -0.00574411 0)
(1.03897 -0.00690449 0)
(1.03309 -0.00616748 0)
(1.02864 -0.00479349 0)
(1.02505 -0.00337963 0)
(1.02722 0.00157483 0)
(1.03436 0.0100346 0)
(1.03529 0.0143333 0)
(1.03232 0.0158245 0)
(1.0286 0.0165436 0)
(1.02342 0.0166993 0)
(1.01114 0.0134289 0)
(0.999021 0.00975477 0)
(0.991734 0.00933442 0)
(0.986485 0.0105263 0)
(0.982106 0.0116687 0)
(0.981058 0.0151508 0)
(0.989033 0.0253184 0)
(0.993163 0.0329456 0)
(0.991547 0.035747 0)
(0.987756 0.0364394 0)
(0.983067 0.0368029 0)
(0.971335 0.0335405 0)
(0.955156 0.0259795 0)
(0.945198 0.0223845 0)
(0.939134 0.0220474 0)
(0.933968 0.0226377 0)
(0.930195 0.0244006 0)
(0.934808 0.033181 0)
(0.941975 0.0453162 0)
(0.941915 0.0508766 0)
(0.938356 0.0524157 0)
(0.933665 0.052415 0)
(0.925468 0.0507602 0)
(0.908165 0.0418081 0)
(0.89222 0.0324489 0)
(0.882955 0.029041 0)
(0.876919 0.0283716 0)
(0.871842 0.0285089 0)
(0.871878 0.0330788 0)
(0.876778 0.0429201 0)
(0.877368 0.0492983 0)
(0.87379 0.0517045 0)
(0.868297 0.052189 0)
(0.861227 0.0505396 0)
(0.848099 0.0439167 0)
(0.829005 0.029751 0)
(0.814354 0.0186416 0)
(0.80578 0.0127023 0)
(0.801522 0.011063 0)
(0.80307 0.0140749 0)
(0.807155 0.0183825 0)
(0.808706 0.0164151 0)
(0.808795 0.0116033 0)
(0.801977 0.00789712 0)
(0.354173 -0.0118188 0)
(-0.639534 -0.00233799 0)
(1.16651 -0.0914624 0)
(1.16119 -0.0894562 0)
(1.16153 -0.0859357 0)
(1.16628 -0.0811152 0)
(1.16697 -0.0778981 0)
(1.16464 -0.0759047 0)
(1.1615 -0.0742191 0)
(1.15788 -0.0726944 0)
(1.15321 -0.071132 0)
(1.14533 -0.0698557 0)
(1.13908 -0.0686168 0)
(1.1349 -0.0671925 0)
(1.13139 -0.0658295 0)
(1.12979 -0.0633536 0)
(1.1343 -0.0581245 0)
(1.13675 -0.0537889 0)
(1.13496 -0.0513842 0)
(1.1319 -0.0496505 0)
(1.12831 -0.0482596 0)
(1.12402 -0.0470289 0)
(1.11571 -0.046546 0)
(1.10778 -0.0460701 0)
(1.10286 -0.0448161 0)
(1.09903 -0.0434006 0)
(1.09613 -0.0416752 0)
(1.09912 -0.0368337 0)
(1.10392 -0.03117 0)
(1.10323 -0.0282446 0)
(1.10031 -0.0266143 0)
(1.09682 -0.0253522 0)
(1.09278 -0.0242897 0)
(1.08419 -0.0243237 0)
(1.07437 -0.0249054 0)
(1.0684 -0.024145 0)
(1.06406 -0.0227965 0)
(1.06048 -0.0215018 0)
(1.06099 -0.0176944 0)
(1.06759 -0.0104003 0)
(1.06911 -0.00604117 0)
(1.06651 -0.00429511 0)
(1.06304 -0.00319473 0)
(1.05916 -0.00237725 0)
(1.05055 -0.00316738 0)
(1.03869 -0.00551406 0)
(1.03118 -0.00571671 0)
(1.02618 -0.0045675 0)
(1.02208 -0.00326635 0)
(1.01985 -0.00084476 0)
(1.02628 0.00692146 0)
(1.03151 0.0142308 0)
(1.03033 0.0170997 0)
(1.02677 0.0179346 0)
(1.02289 0.0185218 0)
(1.01501 0.0172831 0)
(1.00086 0.012291 0)
(0.990545 0.00991902 0)
(0.984362 0.0103905 0)
(0.979646 0.0116262 0)
(0.975735 0.0129485 0)
(0.978406 0.0183898 0)
(0.986995 0.0292311 0)
(0.98873 0.0349213 0)
(0.985769 0.0371523 0)
(0.981675 0.0381596 0)
(0.975863 0.0382396 0)
(0.961904 0.0318243 0)
(0.94687 0.0235883 0)
(0.93777 0.0211566 0)
(0.931488 0.0219816 0)
(0.9268 0.0228291 0)
(0.924665 0.0250778 0)
(0.931915 0.0353571 0)
(0.937693 0.0459516 0)
(0.936429 0.0497743 0)
(0.932123 0.0510399 0)
(0.926654 0.0517219 0)
(0.916824 0.0495836 0)
(0.899532 0.0389692 0)
(0.885005 0.0295612 0)
(0.876021 0.0266403 0)
(0.870059 0.0264427 0)
(0.865572 0.0271809 0)
(0.867308 0.0329668 0)
(0.871814 0.0420071 0)
(0.871502 0.0467503 0)
(0.867686 0.0482273 0)
(0.862181 0.0484958 0)
(0.854931 0.046452 0)
(0.841819 0.0387212 0)
(0.823538 0.0234266 0)
(0.809767 0.012019 0)
(0.802252 0.00575497 0)
(0.799129 0.00461892 0)
(0.802925 0.008491 0)
(0.808641 0.0116542 0)
(0.812356 0.00898106 0)
(0.807896 0.00689538 0)
(0.362555 -0.00267926 0)
(-0.640378 0.000951505 0)
(1.16402 -0.0892567 0)
(1.15841 -0.08718 0)