/*--------------------------------*- C++ -*----------------------------------*\
  =========                 |
  \\      /  F ield         | OpenFOAM: The Open Source CFD Toolbox
   \\    /   O peration     | Website:  https://openfoam.org
    \\  /    A nd           | Version:  12
     \\/     M anipulation  |
\*---------------------------------------------------------------------------*/
FoamFile
{
    format      ascii;
    class       volVectorField;
    location    "8.86";
    object      U;
}
// * * * * * * * * * * * * * * * * * * * * * * * * * * * * * * * * * * * * * //

dimensions      [0 1 -1 0 0 0 0];

internalField   nonuniform List<vector> 
22702
(
(2 -2.98673e-13 0)
(2 1.41895e-13 0)
(2.04528 -0.0943654 0)
(2 -1.18006e-09 0)
(1.97626 0.0309551 0)
(2 -3.61307e-14 0)
(1.82928 0.228705 0)
(2 8.44404e-14 0)
(2 -2.65505e-13 0)
(2.1407 -0.263432 0)
(1.83047 0.229175 0)
(1.82942 0.228794 0)
(2 -1.0639e-13 0)
(1.8315 0.228599 0)
(2.03859 -0.0735756 0)
(2 -2.73799e-13 0)
(2 -2.15236e-13 0)
(2 -6.6424e-14 0)
(1.83061 0.229085 0)
(2 7.32043e-14 0)
(1.83173 0.229146 0)
(2 -3.17693e-13 0)
(1.82849 0.227983 0)
(2.11638 -0.26569 0)
(1.83081 0.23063 0)
(2.10884 -0.265874 0)
(2 3.25703e-14 0)
(1.8294 0.228529 0)
(2.11024 -0.259704 0)
(2.11702 -0.266729 0)
(2 -6.1539e-14 0)
(1.8294 0.228812 0)
(2 2.43707e-15 0)
(2 -9.14433e-14 0)
(2 3.74394e-14 0)
(1.84379 0.2151 0)
(1.83067 0.229287 0)
(1.82828 0.228244 0)
(2 -2.43105e-14 0)
(2 4.75306e-14 0)
(2.14656 -0.26504 0)
(2 -1.1626e-13 0)
(1.91545 0.122616 0)
(2 -2.56754e-13 0)
(1.82903 0.227777 0)
(2 -7.04691e-14 0)
(2 1.00403e-13 0)
(2 -3.42453e-13 0)
(2 -2.40106e-13 0)
(2.10842 -0.261987 0)
(2 7.21424e-14 0)
(2.11234 -0.26153 0)
(2 -1.33718e-13 0)
(1.82953 0.228637 0)
(2 -4.24152e-13 0)
(1.82907 0.229025 0)
(2 -6.43228e-14 0)
(2 1.31599e-09 0)
(2 -5.13632e-14 0)
(2 -1.41265e-13 0)
(2.11732 -0.274517 0)
(2 -1.88934e-13 0)
(2 -2.78224e-13 0)
(2.10274 -0.26169 0)
(2 4.86565e-14 0)
(2.10311 -0.262409 0)
(2 -2.55822e-13 0)
(2 -1.59389e-13 0)
(2 1.12553e-13 0)
(2.12894 -0.262334 0)
(2 -1.65606e-13 0)
(1.83152 0.229381 0)
(1.8964 0.152042 0)
(2 1.13032e-09 0)
(1.83167 0.229349 0)
(1.82342 0.238294 0)
(2.11401 -0.259789 0)
(1.83135 0.228787 0)
(2.10693 -0.265941 0)
(2 -3.16323e-13 0)
(1.83108 0.229031 0)
(2.11148 -0.262033 0)
(1.82744 0.22845 0)
(1.82885 0.228334 0)
(2 -2.78906e-14 0)
(2 9.05416e-07 0)
(2 -4.87788e-14 0)
(2 3.28616e-14 0)
(2.02522 -0.0491828 0)
(2.12939 -0.260588 0)
(1.82874 0.228298 0)
(2 -1.85556e-13 0)
(2 -4.10324e-11 0)
(2.1231 -0.265861 0)
(2 1.85326e-14 0)
(1.83126 0.229615 0)
(2.12324 -0.265315 0)
(2 2.53339e-08 0)
(2 -2.411e-14 0)
(2 -1.51633e-13 0)
(2 -1.36868e-13 0)
(1.91577 0.124313 0)
(1.83068 0.228721 0)
(2.11219 -0.26483 0)
(2 -5.58837e-10 0)
(2 -1.06982e-09 0)
(1.95877 0.0580106 0)
(2 6.57887e-09 0)
(2.11073 -0.261473 0)
(2 -7.63035e-14 0)
(1.83026 0.228281 0)
(1.82856 0.228391 0)
(2 4.11551e-09 0)
(2 -3.97232e-13 0)
(2.1169 -0.278768 0)
(2.1112 -0.277962 0)
(2.13061 -0.261509 0)
(2 1.00151e-13 0)
(2 -1.46093e-07 0)
(2 -1.0199e-13 0)
(2 -2.19077e-13 0)
(2 1.17869e-07 0)
(2.02401 -0.0505165 0)
(2 -1.06561e-07 0)
(1.85493 0.202307 0)
(1.98386 0.0229606 0)
(1.83164 0.228766 0)
(2 -1.41762e-13 0)
(1.83087 0.228336 0)
(1.83082 0.228944 0)
(1.83146 0.228605 0)
(1.83055 0.228808 0)
(2 -1.2465e-13 0)
(2.1273 -0.263407 0)
(2 -2.41428e-15 0)
(2.10964 -0.268429 0)
(2 -1.22879e-14 0)
(2 -8.76024e-14 0)
(2 -3.10382e-14 0)
(2 1.34926e-14 0)
(1.82898 0.228353 0)
(2 2.93671e-09 0)
(2 -1.88863e-14 0)
(2 -4.3967e-13 0)
(2 7.13465e-14 0)
(1.83114 0.229107 0)
(2 6.84199e-14 0)
(1.99455 0.0143607 0)
(2 3.69873e-14 0)
(2 -3.61504e-14 0)
(2 -6.33508e-11 0)
(2 -2.68029e-14 0)
(2.11092 -0.263568 0)
(2 -9.03139e-14 0)
(1.99525 0.00926345 0)
(2 -1.98678e-14 0)
(2.1037 -0.264437 0)
(2 -1.75763e-13 0)
(2 6.46683e-14 0)
(2 -1.71313e-13 0)
(1.8283 0.228635 0)
(2 -5.02909e-14 0)
(1.83118 0.229138 0)
(2.10264 -0.278075 0)
(2.12008 -0.266572 0)
(1.8318 0.229559 0)
(1.83132 0.22942 0)
(2 -1.79814e-14 0)
(1.96813 0.047154 0)
(1.9034 0.141515 0)
(2 -1.87172e-13 0)
(1.82896 0.229223 0)
(2.10859 -0.265623 0)
(1.84358 0.21512 0)
(2 -2.7597e-14 0)
(2 3.74486e-14 0)
(2 1.2177e-16 0)
(2 -1.72052e-13 0)
(1.83153 0.228825 0)
(1.86854 0.186597 0)
(2 -4.96378e-14 0)
(1.82972 0.228075 0)
(2.09907 -0.260405 0)
(1.8288 0.229214 0)
(2 -1.85317e-13 0)
(2.09665 -0.263248 0)
(2 -1.39225e-13 0)
(2.10842 -0.261917 0)
(2.11526 -0.270164 0)
(2.00007 -0.000139501 0)
(2 -3.30965e-13 0)
(2 -3.16423e-13 0)
(1.82985 0.229632 0)
(2 -5.50448e-14 0)
(2 -5.01141e-14 0)
(1.8319 0.229078 0)
(2 -4.06195e-13 0)
(1.82745 0.228482 0)
(1.8296 0.228588 0)
(2.10948 -0.282357 0)
(2 -4.37244e-14 0)
(2 -1.66787e-13 0)
(2.10589 -0.261822 0)
(1.83173 0.229126 0)
(2 3.06028e-14 0)
(2 4.76122e-14 0)
(2 9.64173e-14 0)
(1.83168 0.229058 0)
(2 -2.01405e-13 0)
(2.12543 -0.263425 0)
(2 -6.88274e-11 0)
(2 -3.49662e-14 0)
(1.83158 0.22912 0)
(1.83126 0.229017 0)
(1.82834 0.228285 0)
(2 6.23207e-14 0)
(1.99999 2.28853e-05 0)
(2 -1.44333e-14 0)
(2 -6.91792e-14 0)
(2 -3.36077e-13 0)
(1.8313 0.228906 0)
(2 -1.55635e-13 0)
(2.10348 -0.262834 0)
(1.82576 0.235521 0)
(1.83188 0.229145 0)
(1.83151 0.228244 0)
(2 1.79162e-07 0)
(2 -8.22244e-14 0)
(2 -2.82705e-13 0)
(2.12346 -0.273205 0)
(1.83235 0.228848 0)
(1.92133 0.127974 0)
(2 -6.46805e-14 0)
(1.83071 0.22971 0)
(2.09859 -0.264893 0)
(2.10757 -0.268332 0)
(1.83049 0.229773 0)
(1.8311 0.227379 0)
(2 6.19511e-15 0)
(1.82963 0.232456 0)
(2.13393 -0.270634 0)
(1.85125 0.206034 0)
(2 -3.43384e-13 0)
(2 -2.04322e-13 0)
(2 -2.95164e-13 0)
(2 -2.54198e-13 0)
(1.83185 0.229027 0)
(2 -4.06049e-13 0)
(1.9042 0.145268 0)
(1.98438 0.027368 0)
(2 -3.41768e-13 0)
(2 -1.82614e-13 0)
(1.83136 0.22889 0)
(2.11423 -0.265191 0)
(2.07411 -0.166923 0)
(2 -3.84254e-13 0)
(1.83162 0.228532 0)
(2.13748 -0.259386 0)
(1.82892 0.232656 0)
(2 7.83552e-15 0)
(2 -2.20868e-14 0)
(2 -2.48141e-13 0)
(2 -1.02478e-13 0)
(2 -3.64698e-14 0)
(2 -1.08919e-13 0)
(2 6.95559e-14 0)
(2.11465 -0.265687 0)
(2.08358 -0.161224 0)
(2.10879 -0.266585 0)
(1.83139 0.228964 0)
(2 -2.29498e-13 0)
(2 2.44997e-13 0)
(2 -1.51677e-07 0)
(2 -2.61517e-13 0)
(1.84888 0.210827 0)
(2 -1.1955e-07 0)
(2.11221 -0.265482 0)
(2 -1.60104e-13 0)
(2.11263 -0.286185 0)
(2.10734 -0.261945 0)
(1.83206 0.229172 0)
(2.09905 -0.265262 0)
(1.83175 0.229001 0)
(2 -2.0919e-14 0)
(2 -1.71479e-13 0)
(2 -1.55725e-13 0)
(2.00087 -0.00159511 0)
(2.097 -0.260545 0)
(2.13009 -0.268916 0)
(2 -2.89683e-07 0)
(2 -1.39688e-07 0)
(2.12464 -0.286112 0)
(2 2.4541e-09 0)
(1.82979 0.228772 0)
(2.11607 -0.26103 0)
(2 -8.27732e-14 0)
(2 -3.38109e-11 0)
(1.83158 0.229115 0)
(2.11822 -0.279996 0)
(2 -2.02389e-13 0)
(1.828 0.231779 0)
(2.11288 -0.267284 0)
(1.8315 0.228989 0)
(2 -2.12571e-13 0)
(2.10719 -0.288131 0)
(2.00089 -0.00147163 0)
(2 1.0175e-13 0)
(2 2.61606e-06 0)
(2 -3.52289e-15 0)
(2.11263 -0.261966 0)
(2 -4.00575e-13 0)
(2 -1.69245e-07 0)
(2 -1.27839e-06 0)
(1.99999 1.27637e-05 0)
(1.9967 0.00651609 0)
(1.89443 0.152713 0)
(2 -2.51822e-11 0)
(2.09726 -0.255161 0)
(2 -1.60841e-11 0)
(2 1.71218e-06 0)
(2 1.97108e-14 0)
(2 -7.52733e-14 0)
(2 9.51581e-15 0)
(2 -1.71035e-13 0)
(2 -8.69677e-13 0)
(1.83128 0.229019 0)
(2 1.8054e-13 0)
(1.83028 0.228667 0)
(2 1.32576e-13 0)
(2 -9.43819e-14 0)
(2 1.60135e-14 0)
(2.1288 -0.263197 0)
(2 2.37127e-15 0)
(1.8308 0.228757 0)
(2.0947 -0.265687 0)
(2 -9.23864e-14 0)
(1.87306 0.176496 0)
(2 -1.864e-13 0)
(2 -2.92099e-13 0)
(1.83004 0.228904 0)
(2 1.33911e-13 0)
(2 -8.53686e-09 0)
(2 1.06722e-13 0)
(1.82827 0.227461 0)
(2 4.74238e-10 0)
(2 -1.57724e-13 0)
(1.83239 0.226269 0)
(1.8302 0.229008 0)
(2 1.15192e-14 0)
(1.96497 0.0576094 0)
(2 6.35496e-14 0)
(2 4.10579e-15 0)
(2.11077 -0.267204 0)
(2 -1.19825e-13 0)
(2 -2.77529e-14 0)
(2 -3.38389e-14 0)
(2.11945 -0.263931 0)
(2 2.42112e-14 0)
(2 -1.42096e-14 0)
(2 -3.79021e-14 0)
(2 6.88602e-14 0)
(2.09935 -0.268581 0)
(2 3.71806e-14 0)
(2 7.99957e-14 0)
(2 -3.05515e-13 0)
(2 7.78745e-15 0)
(2 -1.85537e-13 0)
(2.1413 -0.261261 0)
(1.99998 3.8181e-05 0)
(1.83139 0.229432 0)
(2 -6.74441e-14 0)
(1.99999 -2.93796e-05 0)
(1.83156 0.229581 0)
(1.83165 0.229478 0)
(2 -5.70738e-14 0)
(2 -3.43771e-14 0)
(2.09631 -0.269357 0)
(2.05989 -0.129529 0)
(1.82931 0.228255 0)
(2 -2.97575e-14 0)
(2 -4.62581e-14 0)
(2 -5.05639e-14 0)
(1.83206 0.229147 0)
(2.12923 -0.26292 0)
(2 1.5758e-15 0)
(1.83144 0.229109 0)
(2 -4.48802e-15 0)
(2 -6.19345e-14 0)
(2.0861 -0.220427 0)
(2.10956 -0.218791 0)
(2 -7.10423e-15 0)
(2.10788 -0.263697 0)
(2.10417 -0.267619 0)
(2 -5.80624e-14 0)
(2 2.62277e-14 0)
(2 -1.41323e-13 0)
(2 -4.85396e-14 0)
(2 -9.42222e-11 0)
(2 -9.98679e-14 0)
(2 -2.20093e-14 0)
(1.83217 0.229217 0)
(1.95445 0.0587373 0)
(1.83344 0.220882 0)
(2.13741 -0.26117 0)
(2.03377 -0.0549421 0)
(1.83091 0.228812 0)
(2 -5.59893e-13 0)
(1.83176 0.229392 0)
(1.82912 0.22832 0)
(2.10639 -0.264996 0)
(2.06763 -0.156325 0)
(2 4.2374e-13 0)
(2.13755 -0.260259 0)
(2 -1.89961e-14 0)
(1.82151 0.23547 0)
(2 -3.20396e-13 0)
(2 -2.14761e-13 0)
(2 -2.48021e-13 0)
(2 5.05112e-15 0)
(1.83176 0.229137 0)
(2 -3.36807e-13 0)
(2 -5.90286e-14 0)
(2 -1.59432e-14 0)
(2 1.54845e-09 0)
(2 4.80334e-14 0)
(2 -1.67084e-13 0)
(2 -1.9315e-13 0)
(1.93903 0.0917634 0)
(1.82787 0.22818 0)
(2 -4.21573e-15 0)
(1.8314 0.228921 0)
(2 5.22834e-14 0)
(2 -2.39432e-13 0)
(2.11142 -0.26311 0)
(2 9.5154e-14 0)
(2 -1.35182e-13 0)
(2 -7.51542e-14 0)
(2 -5.05379e-13 0)
(1.83167 0.229033 0)
(1.87227 0.179369 0)
(2 -4.37906e-13 0)
(2 -4.87265e-13 0)
(2.1091 -0.264951 0)
(1.83177 0.229153 0)
(1.83162 0.229119 0)
(2 5.19209e-14 0)
(1.83166 0.229143 0)
(1.83181 0.229084 0)
(1.83133 0.228946 0)
(2 4.25518e-14 0)
(2.05231 -0.107086 0)
(2 -4.62805e-14 0)
(1.83212 0.22872 0)
(2.00608 -0.00943638 0)
(1.83135 0.22894 0)
(2 -6.95641e-14 0)
(2.12134 -0.262564 0)
(2.00038 -0.00057109 0)
(1.83023 0.228479 0)
(2 -1.1148e-13 0)
(2 -2.8574e-13 0)
(2 -3.7672e-11 0)
(2 -2.3392e-11 0)
(2.11241 -0.261811 0)
(1.83219 0.229074 0)
(1.84772 0.210214 0)
(2 -6.83673e-14 0)
(1.82899 0.230372 0)
(1.83228 0.229085 0)
(1.8297 0.228444 0)
(2 4.61691e-14 0)
(1.91503 0.127227 0)
(1.83184 0.229691 0)
(2 7.93264e-14 0)
(2 -8.31281e-14 0)
(1.88071 0.171402 0)
(1.97834 0.035592 0)
(1.83141 0.229123 0)
(2.02593 -0.0427875 0)
(1.83135 0.229159 0)
(2 1.03245e-13 0)
(1.83124 0.229127 0)
(1.83146 0.228896 0)
(1.83123 0.229103 0)
(1.83163 0.229108 0)
(2 1.86783e-15 0)
(1.83672 0.234308 0)
(2.03951 -0.0571602 0)
(2.04917 -0.0747717 0)
(2 1.22622e-13 0)
(2 -3.63581e-07 0)
(2 -1.73547e-13 0)
(2 -1.7702e-13 0)
(1.83159 0.228034 0)
(2 9.86003e-14 0)
(2 2.41539e-13 0)
(2 3.01456e-14 0)
(2 3.97781e-14 0)
(2 5.53488e-14 0)
(1.82995 0.228302 0)
(2 1.42499e-13 0)
(2 6.68305e-14 0)
(2.00165 -0.00270509 0)
(1.83172 0.229095 0)
(1.85764 0.201308 0)
(2 -3.5607e-14 0)
(1.87163 0.183169 0)
(1.99998 2.73295e-05 0)
(2 -5.64763e-14 0)
(2 -1.78484e-13 0)
(1.83119 0.228974 0)
(2 5.10805e-14 0)
(2.00194 -0.00236111 0)
(1.9979 0.0047265 0)
(2 -4.64858e-14 0)
(1.83164 0.228845 0)
(2 -4.7295e-14 0)
(1.83241 0.22872 0)
(2 1.31111e-14 0)
(2 -6.45175e-14 0)
(1.87553 0.176092 0)
(2 -4.82405e-14 0)
(1.83234 0.229019 0)
(1.99999 1.27857e-05 0)
(2 -1.38203e-13 0)
(1.83159 0.229636 0)
(2 -2.58664e-13 0)
(1.83172 0.22905 0)
(2 1.2709e-13 0)
(2 2.9744e-06 0)
(2 1.25934e-13 0)
(1.83196 0.22906 0)
(2 1.18763e-13 0)
(1.8306 0.228327 0)
(2 4.49604e-06 0)
(1.8317 0.229067 0)
(1.83054 0.229118 0)
(1.83155 0.228827 0)
(1.83117 0.229224 0)
(2 -1.25187e-14 0)
(1.82919 0.229187 0)
(1.83735 0.224872 0)
(2 -1.30151e-14 0)
(2.11217 -0.263648 0)
(1.84159 0.217687 0)
(1.87824 0.174144 0)
(2 -1.98521e-14 0)
(1.83187 0.229171 0)
(2 7.9952e-14 0)
(2.11251 -0.266709 0)
(2.11071 -0.272512 0)
(2 -9.42762e-15 0)
(2 -7.19098e-14 0)
(2 -1.00161e-13 0)
(2 -1.9323e-13 0)
(2 1.65456e-09 0)
(2.12437 -0.264356 0)
(2 6.94174e-14 0)
(1.83138 0.228936 0)
(1.95934 0.0641287 0)
(1.83143 0.229093 0)
(2 -2.50595e-14 0)
(2 8.91275e-11 0)
(2 1.52503e-14 0)
(2 2.75494e-14 0)
(2 -5.88384e-08 0)
(1.83139 0.228982 0)
(2 -1.56305e-13 0)
(1.83122 0.228185 0)
(1.90044 0.143944 0)
(2.07041 -0.158032 0)
(2 1.36668e-09 0)
(1.99999 7.65802e-06 0)
(1.95248 0.0744756 0)
(1.95617 0.0700814 0)
(2 -8.91709e-14 0)
(2 -1.60444e-13 0)
(1.94028 0.0897372 0)
(2 6.13941e-15 0)
(2.10767 -0.263833 0)
(1.83193 0.229177 0)
(1.83181 0.229082 0)
(2 -7.12786e-11 0)
(2 -3.95924e-15 0)
(2 -1.5254e-13 0)
(1.83019 0.22892 0)
(2 -2.71951e-13 0)
(1.99999 1.64018e-05 0)
(1.83138 0.227708 0)
(1.83218 0.228955 0)
(2.00533 -0.0385666 0)
(2 7.66856e-14 0)
(2 1.78088e-10 0)
(2.10815 -0.262401 0)
(1.84721 0.211967 0)
(2 -1.18968e-13 0)
(2 -1.58156e-13 0)
(2 -6.77493e-15 0)
(2 -2.96824e-11 0)
(2 -1.54025e-13 0)
(1.83168 0.229047 0)
(1.82923 0.22843 0)
(2 -1.94953e-13 0)
(1.83165 0.22948 0)
(1.83078 0.229295 0)
(1.83146 0.22886 0)
(2 6.18503e-14 0)
(2 -1.61876e-13 0)
(2 -5.95558e-11 0)
(2 -1.63612e-14 0)
(2.11904 -0.265286 0)
(1.82939 0.228541 0)
(2 -4.43736e-11 0)
(2 3.52677e-14 0)
(1.84711 0.21136 0)
(1.8322 0.228272 0)
(2 -1.22263e-13 0)
(1.84137 0.218321 0)
(1.82828 0.228413 0)
(2 -1.8675e-13 0)
(2 -2.17698e-07 0)
(2 7.88776e-11 0)
(2 -1.56263e-14 0)
(2 -1.97421e-13 0)
(1.83171 0.228903 0)
(2 4.87713e-14 0)
(2 -2.42545e-14 0)
(2 -3.23825e-13 0)
(2 -1.14714e-15 0)
(1.83134 0.229428 0)
(2 -2.6875e-13 0)
(1.83045 0.234639 0)
(2.13358 -0.260662 0)
(2 -3.8403e-14 0)
(2.09726 -0.266961 0)
(2 4.60607e-14 0)
(2 -1.58483e-07 0)
(2 -5.54645e-15 0)
(2.00122 -0.00200354 0)
(2.10808 -0.263517 0)
(2.00033 -0.000508974 0)
(2 2.63102e-14 0)
(2 2.10976e-15 0)
(2 -1.18182e-07 0)
(1.9756 0.0378559 0)
(2 -1.59897e-13 0)
(2 4.94975e-14 0)
(2.02929 -0.0951068 0)
(2 -2.11884e-07 0)
(2 -7.339e-14 0)
(2 -1.5498e-13 0)
(2 -2.16992e-07 0)
(2 4.43437e-07 0)
(2 -1.89934e-07 0)
(2 -8.02866e-14 0)
(2 -1.54487e-06 0)
(2.02999 -0.0447878 0)
(2 -4.95602e-07 0)
(2 -4.32383e-08 0)
(2.00089 -0.0013715 0)
(2 7.82726e-14 0)
(2.11253 -0.260663 0)
(2 -2.9363e-11 0)
(2 -4.30139e-12 0)
(2 -1.74023e-10 0)
(2 2.65685e-14 0)
(1.87477 0.176302 0)
(2 1.71515e-14 0)
(2 -1.41103e-13 0)
(2 6.53252e-14 0)
(2 -1.61282e-07 0)
(2.09471 -0.262712 0)
(2 5.83162e-14 0)
(2 1.54306e-09 0)
(1.84166 0.217798 0)
(1.82972 0.228678 0)
(2 -3.00058e-07 0)
(2 -8.69845e-15 0)
(2 -1.06453e-07 0)
(2.03376 -0.0771926 0)
(2 -1.44542e-14 0)
(2 4.71975e-10 0)
(2 -1.87593e-14 0)
(2 -3.84014e-14 0)
(2 -4.57251e-14 0)
(2 -8.81037e-14 0)
(2.00991 -0.0277206 0)
(1.99547 0.0090507 0)
(1.83117 0.229155 0)
(2 2.02829e-15 0)
(2 -1.97136e-13 0)
(2 6.41567e-14 0)
(1.82948 0.228317 0)
(2.03375 -0.0620159 0)
(2 -3.39468e-09 0)
(2 5.11348e-14 0)
(2 -1.25671e-13 0)
(1.82793 0.228071 0)
(1.83143 0.227792 0)
(2 -3.08036e-08 0)
(2 4.97194e-06 0)
(2 3.71604e-09 0)
(2 -1.73188e-13 0)
(2 1.32751e-09 0)
(2 2.05256e-14 0)
(2 -3.14332e-11 0)
(2 -1.02057e-14 0)
(2 -5.85023e-14 0)
(2.11957 -0.26404 0)
(2 -1.38472e-13 0)
(2 -1.3764e-11 0)
(1.82958 0.229166 0)
(2.13022 -0.261179 0)
(2 -2.05279e-13 0)
(1.82931 0.22848 0)
(2 6.22395e-11 0)
(2.10996 -0.263325 0)
(2 1.06163e-14 0)
(2 -8.80494e-14 0)
(2.11532 -0.269945 0)
(2 -4.49924e-13 0)
(2 -1.13086e-11 0)
(2 -4.73536e-12 0)
(2 -5.09222e-14 0)
(2 -2.30552e-12 0)
(2 -1.97615e-13 0)
(2 7.09585e-15 0)
(1.83485 0.224967 0)
(1.83211 0.228315 0)
(2 4.66937e-13 0)
(2 -8.07056e-14 0)
(2 -9.63284e-14 0)
(2 4.14875e-13 0)
(1.84641 0.211717 0)
(2 2.78645e-13 0)
(1.94571 0.0840299 0)
(2.10971 -0.263255 0)
(2 -3.23549e-08 0)
(2 4.14878e-13 0)
(2 -5.77574e-14 0)
(2 -1.31254e-13 0)
(2 5.95151e-14 0)
(2 -1.42733e-13 0)
(2 -7.87274e-14 0)
(1.98388 0.0181695 0)
(2 -6.06337e-14 0)
(2 -8.60543e-14 0)
(1.90647 0.121942 0)
(2 6.21168e-14 0)
(2 -1.21207e-14 0)
(2 -1.64561e-15 0)
(1.86052 0.195049 0)
(2 -1.83609e-13 0)
(2 -1.84169e-13 0)
(2 -2.52368e-13 0)
(2 -1.55413e-13 0)
(2.13741 -0.262049 0)
(2 1.71378e-11 0)
(2 -1.27049e-13 0)
(2.10935 -0.281652 0)
(2.13747 -0.261218 0)
(2 -4.59842e-13 0)
(2 -6.67239e-15 0)
(1.83256 0.229096 0)
(2 3.52614e-14 0)
(1.96107 0.0107339 0)
(2 1.63566e-14 0)
(2 7.09577e-14 0)
(2 5.97016e-14 0)
(1.88323 0.169467 0)
(2.09463 -0.27138 0)
(2 -1.16809e-13 0)
(2.10245 -0.279646 0)
(2 3.71846e-14 0)
(2.07146 -0.15682 0)
(2 -1.38435e-13 0)
(2 3.1199e-14 0)
(2 1.02855e-13 0)
(1.82975 0.229831 0)
(2 -4.36245e-08 0)
(2 -4.14701e-13 0)
(1.83164 0.228845 0)
(2 -5.02158e-14 0)
(2 -3.14338e-11 0)
(2 1.64492e-09 0)
(1.83127 0.228567 0)
(2 2.46725e-10 0)
(2 -2.5107e-13 0)
(1.83113 0.228484 0)
(2 1.34878e-14 0)
(2 -8.64107e-14 0)
(2.10536 -0.267411 0)
(2 -1.72264e-11 0)
(1.94543 0.0856811 0)
(2 -9.85487e-14 0)
(2 -1.87945e-13 0)
(1.82894 0.228847 0)
(1.83177 0.228543 0)
(1.88662 0.163912 0)
(1.84971 0.207926 0)
(2 -7.16148e-14 0)
(2.12617 -0.263512 0)
(2 -7.9566e-14 0)
(2 8.23094e-14 0)
(1.83892 0.220816 0)
(2 5.15755e-14 0)
(2.13934 -0.260638 0)
(2 -6.65041e-16 0)
(2 3.81229e-14 0)
(2 -8.13454e-14 0)
(1.83156 0.229276 0)
(2 -7.80851e-15 0)
(2 -7.41102e-15 0)
(2 1.01256e-13 0)
(2 1.18231e-13 0)
(1.89989 0.146125 0)
(2 1.01459e-13 0)
(1.8476 0.204923 0)
(1.83149 0.22855 0)
(2.12648 -0.264479 0)
(2 -4.55624e-14 0)
(2 -2.14982e-13 0)
(2.1047 -0.267225 0)
(2.10241 -0.26769 0)
(2 2.80415e-14 0)
(2 1.92385e-13 0)
(2 -6.08203e-12 0)
(1.87881 0.174116 0)
(1.87322 0.178899 0)
(2 -2.3522e-14 0)
(2 -2.3351e-13 0)
(2 5.6802e-14 0)
(2 1.05766e-13 0)
(2 8.39836e-14 0)
(2 2.79178e-14 0)
(2 -9.73251e-14 0)
(1.92889 0.105576 0)
(1.82972 0.228742 0)
(1.9923 0.00376055 0)
(2 -1.13311e-13 0)
(1.83348 0.226989 0)
(2.12987 -0.261948 0)
(2 -1.01873e-14 0)
(2 -1.42858e-13 0)
(2 8.93201e-14 0)
(1.9071 0.136374 0)
(2 5.06122e-14 0)
(1.96686 0.0531725 0)
(2 -1.07948e-13 0)
(1.8459 0.21279 0)
(1.83228 0.228147 0)
(2 -1.11747e-13 0)
(2.11666 -0.266093 0)
(2 -3.98814e-14 0)
(1.82858 0.228981 0)
(2 1.19922e-13 0)
(2 -9.73386e-14 0)
(1.83123 0.228873 0)
(1.84227 0.21744 0)
(2 -3.02098e-13 0)
(1.82584 0.228385 0)
(2 -7.99152e-14 0)
(2.09756 -0.268654 0)
(2 -4.42898e-14 0)
(2 -1.26607e-13 0)
(2 -4.31279e-14 0)
(1.82919 0.230224 0)
(1.83475 0.225208 0)
(1.85237 0.204537 0)
(2 1.03308e-13 0)
(1.82959 0.230753 0)
(1.83196 0.229154 0)
(2 -1.04886e-13 0)
(1.83112 0.229491 0)
(2 -8.7182e-09 0)
(1.83222 0.22812 0)
(2 -1.70433e-13 0)
(2.13668 -0.262926 0)
(2.00557 -0.0243139 0)
(2.13473 -0.262397 0)
(2 -3.3702e-11 0)
(2 -2.4151e-11 0)
(2 -3.24347e-11 0)
(2 -3.57795e-13 0)
(2 -1.60288e-11 0)
(1.83146 0.228809 0)
(2 -8.6686e-14 0)
(1.83135 0.228825 0)
(2 -3.90482e-11 0)
(2 -1.01094e-10 0)
(2 8.52906e-14 0)
(1.83998 0.219481 0)
(2 6.10003e-15 0)
(2.11286 -0.263867 0)
(1.83207 0.229334 0)
(2 9.39019e-14 0)
(2.11989 -0.26534 0)
(2.09795 -0.25043 0)
(2.10446 -0.261419 0)
(2 -1.15407e-13 0)
(1.91819 0.122025 0)
(1.98592 0.0234097 0)
(1.83092 0.229647 0)
(1.83206 0.229335 0)
(2 5.11629e-15 0)
(2 -3.88139e-07 0)
(2 -1.3082e-07 0)
(2 -3.06675e-13 0)
(1.83137 0.228855 0)
(2 4.88243e-14 0)
(2 4.97312e-14 0)
(1.83137 0.228843 0)
(1.83152 0.228903 0)
(2 -2.0413e-13 0)
(1.9426 0.0893149 0)
(2.00005 0.00079903 0)
(2 -3.04806e-14 0)
(2.0012 -0.00201178 0)
(1.8296 0.228705 0)
(2.06071 -0.0983108 0)
(2 -1.1646e-07 0)
(2.06917 -0.121002 0)
(2.10801 -0.263122 0)
(2.10822 -0.262712 0)
(2.01924 -0.0163642 0)
(1.82949 0.228309 0)
(1.83405 0.226246 0)
(1.96778 0.0514486 0)
(1.8315 0.22907 0)
(1.8313 0.228873 0)
(2 -6.8112e-14 0)
(2 -2.61947e-14 0)
(1.83305 0.22909 0)
(1.82998 0.229417 0)
(1.8314 0.228667 0)
(1.82907 0.227314 0)
(2 -2.4366e-13 0)
(1.83141 0.22898 0)
(2.12602 -0.259421 0)
(1.83217 0.227863 0)
(1.83097 0.228307 0)
(1.82967 0.229255 0)
(1.83054 0.230066 0)
(2.0289 -0.0975897 0)
(2.02948 -0.0764151 0)
(2.02577 -0.0412201 0)
(1.83128 0.22855 0)
(2.01967 -0.0255154 0)
(1.83093 0.228957 0)
(2 -1.47933e-13 0)
(2 -1.62031e-13 0)
(1.83074 0.229786 0)
(1.8314 0.229369 0)
(2 -3.9943e-13 0)
(2.13536 -0.260891 0)
(1.82943 0.228778 0)
(1.83131 0.228586 0)
(2 -8.40619e-14 0)
(1.83197 0.228966 0)
(1.83177 0.229099 0)
(2 3.46527e-14 0)
(1.83147 0.228819 0)
(2.10851 -0.261589 0)
(1.83137 0.231271 0)
(1.83211 0.229229 0)
(1.8289 0.228483 0)
(1.83006 0.231352 0)
(2 -1.73082e-13 0)
(2 -7.44184e-14 0)
(2 -1.08666e-07 0)
(1.83139 0.228469 0)
(1.89014 0.159174 0)
(2.11208 -0.243698 0)
(1.83126 0.228587 0)
(2.12209 -0.271212 0)
(1.83174 0.228484 0)
(2 -4.95983e-14 0)
(2 -8.2113e-14 0)
(2 4.80293e-14 0)
(2 -6.80095e-14 0)
(1.83106 0.228043 0)
(1.83109 0.228691 0)
(2 -1.90398e-14 0)
(2 2.88198e-14 0)
(1.83115 0.228727 0)
(2.115 -0.271171 0)
(1.8311 0.229382 0)
(2.11139 -0.261787 0)
(2 2.29696e-15 0)
(1.83292 0.227552 0)
(2 -7.40392e-14 0)
(2.1442 -0.267622 0)
(1.83095 0.229757 0)
(2.07065 -0.199207 0)
(2 1.10749e-13 0)
(1.83203 0.229289 0)
(1.83029 0.230151 0)
(1.83186 0.229493 0)
(2 -3.9448e-13 0)
(2 2.04694e-14 0)
(1.92478 0.1122 0)
(1.83063 0.229623 0)
(2.10668 -0.265587 0)
(1.83182 0.228862 0)
(2 2.86537e-14 0)
(1.83089 0.229979 0)
(2.04497 -0.0795402 0)
(1.83191 0.228928 0)
(2.10209 -0.271182 0)
(2 -1.25203e-13 0)
(1.83224 0.228234 0)
(2.12298 -0.240927 0)
(1.83078 0.229761 0)
(2.10791 -0.263529 0)
(2 3.33716e-14 0)
(1.83158 0.229281 0)
(2 7.67259e-14 0)
(1.82824 0.228183 0)
(2 -1.04852e-13 0)
(1.90043 0.145481 0)
(1.83793 0.221514 0)
(1.8674 0.187947 0)
(2.1058 -0.279186 0)
(2 -1.91489e-13 0)
(1.83162 0.229477 0)
(2 -1.08329e-13 0)
(1.83118 0.229478 0)
(2 -1.19266e-07 0)
(1.83181 0.229252 0)
(2 -2.33415e-07 0)
(2 -3.0858e-13 0)
(1.83123 0.228817 0)
(2.00521 -0.00599242 0)
(1.83017 0.229916 0)
(2.13149 -0.263071 0)
(1.84798 0.202512 0)
(2 5.63824e-14 0)
(1.87826 0.172839 0)
(2 6.78005e-14 0)
(1.8301 0.229766 0)
(1.83185 0.229173 0)
(1.83067 0.229687 0)
(2 -8.42384e-14 0)
(1.84882 0.208742 0)
(1.83084 0.228852 0)
(1.84356 0.215408 0)
(1.896 0.150035 0)
(1.83222 0.231594 0)
(2 -2.66936e-14 0)
(1.88886 0.163046 0)
(2 1.2496e-13 0)
(1.83158 0.22862 0)
(2 -1.73465e-13 0)
(1.97692 0.0382702 0)
(2 1.00057e-13 0)
(1.84409 0.215604 0)
(2 2.55693e-14 0)
(1.83094 0.230153 0)
(1.83898 0.220669 0)
(1.83956 0.219684 0)
(2 2.83699e-14 0)
(1.83612 0.226985 0)
(2.11082 -0.272317 0)
(2 6.11751e-14 0)
(2.13017 -0.262838 0)
(2 -1.90758e-13 0)
(2 -1.2891e-13 0)
(2 -5.57334e-14 0)
(1.82961 0.228829 0)
(2 2.99453e-14 0)
(1.83181 0.229332 0)
(2 -6.20744e-15 0)
(2 -1.53701e-13 0)
(2 -2.16945e-13 0)
(1.83092 0.229194 0)
(1.82901 0.234092 0)
(1.85536 0.201688 0)
(1.83149 0.227885 0)
(1.83029 0.229347 0)
(2.09987 -0.266478 0)
(1.82853 0.231241 0)
(1.82634 0.228502 0)
(2 -1.89765e-13 0)
(1.84989 0.211639 0)
(1.8317 0.229076 0)
(1.84479 0.217922 0)
(2 -7.51649e-14 0)
(1.82872 0.228924 0)
(1.82899 0.228933 0)
(2 -7.78597e-14 0)
(1.8277 0.230883 0)
(1.83099 0.229058 0)
(1.83109 0.228935 0)
(1.83111 0.229755 0)
(2 -4.70953e-13 0)
(2 -1.62026e-13 0)
(2 -2.88035e-14 0)
(1.83127 0.22978 0)
(2.11301 -0.271627 0)
(2 1.04092e-13 0)
(1.83152 0.228827 0)
(2 5.98183e-14 0)
(2 7.60726e-14 0)
(2.11184 -0.269182 0)
(2 -8.50201e-14 0)
(2 6.09676e-14 0)
(1.83119 0.228719 0)
(1.83217 0.228999 0)
(2 -1.23749e-14 0)
(1.83184 0.229037 0)
(1.83228 0.231158 0)
(1.83143 0.229131 0)
(1.99696 -0.0264805 0)
(1.83111 0.228927 0)
(2 -1.07228e-14 0)
(1.83116 0.228965 0)
(1.83176 0.22909 0)
(1.86474 0.186776 0)
(2 -1.42407e-13 0)
(2 -1.42436e-13 0)
(2 -1.16655e-13 0)
(1.83155 0.229252 0)
(1.83147 0.229413 0)
(1.83178 0.229011 0)
(2.02028 -0.0345671 0)
(2 -3.11021e-14 0)
(1.82699 0.231597 0)
(1.83169 0.229325 0)
(1.8316 0.228859 0)
(2 -1.26833e-13 0)
(1.8317 0.229297 0)
(1.83143 0.228652 0)
(1.83161 0.228918 0)
(1.82821 0.232308 0)
(2 -9.20188e-14 0)
(1.83187 0.228955 0)
(1.83013 0.226658 0)
(1.85403 0.201419 0)
(1.83214 0.228503 0)
(1.8293 0.231778 0)
(2 3.35461e-14 0)
(1.83128 0.230702 0)
(1.83368 0.226877 0)
(1.83205 0.229028 0)
(1.83089 0.228474 0)
(1.83206 0.228682 0)
(2.11359 -0.269047 0)
(1.83102 0.228916 0)
(1.83231 0.228275 0)
(2 3.51487e-15 0)
(1.83153 0.228978 0)
(1.83163 0.229155 0)
(1.8315 0.228816 0)
(1.83198 0.228697 0)
(2 -4.95051e-08 0)
(1.8313 0.229236 0)
(1.83166 0.229087 0)
(2 -1.6803e-07 0)
(1.83116 0.228532 0)
(1.85724 0.200332 0)
(2 -7.07095e-14 0)
(2 -3.24296e-14 0)
(2 9.73888e-10 0)
(1.83137 0.228903 0)
(1.83075 0.23016 0)
(2 -2.31096e-14 0)
(2 -4.79461e-14 0)
(1.90668 0.138899 0)
(2 -1.39337e-13 0)
(1.83131 0.228721 0)
(2 -9.23293e-14 0)
(2 6.18761e-14 0)
(1.83127 0.228772 0)
(1.83084 0.229654 0)
(1.83203 0.229265 0)
(1.83146 0.228974 0)
(2 3.79221e-14 0)
(2 -2.20556e-14 0)
(2 5.60037e-14 0)
(1.87997 0.165771 0)
(2 -3.92626e-14 0)
(1.83224 0.228334 0)
(2 -2.39364e-13 0)
(2 -2.24573e-13 0)
(1.83248 0.229206 0)
(1.83242 0.229092 0)
(2 -6.17046e-14 0)
(1.83138 0.228779 0)
(2.13701 -0.269174 0)
(1.83146 0.228831 0)
(1.8314 0.229889 0)
(2.10833 -0.198827 0)
(2 -3.24302e-14 0)
(2.11951 -0.27427 0)
(1.8489 0.20424 0)
(1.82996 0.231526 0)
(1.83115 0.228182 0)
(1.83201 0.228938 0)
(2.12002 -0.263436 0)
(1.83107 0.228777 0)
(1.83076 0.22911 0)
(2.11538 -0.26769 0)
(2.10581 -0.282869 0)
(2 -2.61636e-07 0)
(1.83124 0.229797 0)
(1.83216 0.228933 0)
(2 -4.33403e-14 0)
(2 -2.02707e-14 0)
(1.83141 0.228761 0)
(2 -1.28233e-13 0)
(1.82628 0.231158 0)
(2 2.53848e-06 0)
(1.85341 0.203464 0)
(2 -7.90497e-14 0)
(1.91933 0.1225 0)
(1.83206 0.228604 0)
(1.83044 0.230142 0)
(1.87723 0.170039 0)
(1.84161 0.206097 0)
(1.82733 0.22832 0)
(1.83035 0.229433 0)
(1.85554 0.209624 0)
(2 -7.44038e-14 0)
(2.12826 -0.264835 0)
(1.83047 0.23068 0)
(1.83181 0.229311 0)
(1.82803 0.230665 0)
(2 6.75253e-06 0)
(2 2.98663e-10 0)
(2 1.51888e-09 0)
(1.82966 0.230187 0)
(2 2.78027e-14 0)
(1.83182 0.229056 0)
(1.83221 0.22902 0)
(2.08172 -0.175886 0)
(2 -1.37116e-13 0)
(1.83144 0.22873 0)
(2.00002 -5.03552e-05 0)
(2 6.63952e-14 0)
(1.99999 1.81639e-05 0)
(1.99998 2.48037e-05 0)
(1.83178 0.229306 0)
(1.83161 0.228397 0)
(2.00056 -0.000865194 0)
(2 1.20323e-13 0)
(2 -2.61823e-14 0)
(1.83093 0.22954 0)
(1.83054 0.229696 0)
(1.83171 0.228388 0)
(1.82923 0.230414 0)
(1.83144 0.227847 0)
(2.10949 -0.253909 0)
(1.86169 0.187871 0)
(2 -5.46002e-15 0)
(1.83271 0.227378 0)
(1.83202 0.229191 0)
(1.83175 0.228948 0)
(1.82976 0.233463 0)
(2 -1.90781e-13 0)
(1.83183 0.22902 0)
(1.83637 0.223729 0)
(1.831 0.22938 0)
(2 -3.28954e-13 0)
(1.83143 0.229077 0)
(1.8312 0.228087 0)
(2.05115 -0.0969773 0)
(1.8319 0.228924 0)
(1.83126 0.229018 0)
(2 4.2563e-14 0)
(1.83169 0.229089 0)
(2.03991 -0.117572 0)
(1.8315 0.229562 0)
(2.06092 -0.0903311 0)
(1.83159 0.228901 0)
(2 -1.06071e-07 0)
(1.83134 0.229098 0)
(1.82472 0.23298 0)
(1.8319 0.22908 0)
(1.8317 0.229254 0)
(1.83154 0.228802 0)
(1.83152 0.228557 0)
(1.83135 0.229178 0)
(1.82969 0.229685 0)
(2 -9.62694e-14 0)
(2.03043 -0.0472707 0)
(1.83148 0.229605 0)
(1.83187 0.229052 0)
(2.03613 -0.11943 0)
(1.83151 0.228969 0)
(2.00851 -0.0160192 0)
(1.89048 0.150347 0)
(1.83171 0.229507 0)
(1.83168 0.229428 0)
(1.83167 0.229009 0)
(2 9.79398e-14 0)
(1.83025 0.229901 0)
(1.88722 0.165693 0)
(1.8315 0.227721 0)
(2.01456 -0.0585367 0)
(1.83045 0.229698 0)
(1.82685 0.233809 0)
(2 2.43849e-13 0)
(2.03351 -0.0956941 0)
(2 -7.99114e-09 0)
(1.836 0.22388 0)
(2 1.34317e-13 0)
(1.88447 0.163827 0)
(2 4.23327e-09 0)
(1.84078 0.224832 0)
(2.04242 -0.089962 0)
(2 8.0801e-14 0)
(1.82891 0.231014 0)
(1.83722 0.225357 0)
(2 2.49986e-14 0)
(1.8305 0.228085 0)
(1.83076 0.229799 0)
(1.8335 0.229279 0)
(1.83778 0.225169 0)
(1.82928 0.229397 0)
(2 -2.79623e-13 0)
(1.83005 0.228747 0)
(2 -8.26071e-15 0)
(2 -9.14604e-14 0)
(2 1.44796e-14 0)
(2.03193 -0.0682652 0)
(1.83176 0.229264 0)
(1.83086 0.229753 0)
(1.82921 0.232622 0)
(1.83144 0.228851 0)
(1.82978 0.233095 0)
(1.8292 0.231259 0)
(1.83179 0.232199 0)
(1.83182 0.229374 0)
(2.03842 -0.0659867 0)
(1.98698 0.0242544 0)
(2 3.62698e-09 0)
(2 1.36282e-13 0)
(1.82353 0.233815 0)
(1.83175 0.22909 0)
(1.83171 0.228952 0)
(1.8318 0.228967 0)
(1.99999 1.62473e-05 0)
(1.90937 0.136653 0)
(2 -1.67342e-07 0)
(1.82754 0.230617 0)
(1.84523 0.217714 0)
(2 -3.3724e-12 0)
(2 -6.33775e-11 0)
(2.09123 -0.180529 0)
(1.83186 0.229198 0)
(2 -2.08638e-13 0)
(2 6.24776e-14 0)
(2.12262 -0.262871 0)
(1.8316 0.229003 0)
(2 -3.66502e-13 0)
(1.827 0.228529 0)
(1.83148 0.228771 0)
(1.82707 0.22863 0)
(1.83822 0.221432 0)
(1.83164 0.228986 0)
(2 -1.49996e-10 0)
(2.10704 -0.275723 0)
(1.95912 0.0649526 0)
(1.83094 0.228975 0)
(1.83136 0.229153 0)
(2 1.49286e-14 0)
(1.83133 0.229468 0)
(1.83136 0.228773 0)
(1.91613 0.120143 0)
(1.99714 0.00647981 0)
(1.96375 0.0597773 0)
(2 -1.86421e-14 0)
(1.8282 0.2282 0)
(1.83163 0.228873 0)
(2 -1.1584e-07 0)
(2 -1.98523e-10 0)
(2.10732 -0.267468 0)
(2 -2.26446e-10 0)
(2 -9.1186e-15 0)
(1.83179 0.229112 0)
(1.83148 0.228877 0)
(1.83101 0.230138 0)
(1.83182 0.229023 0)
(1.83151 0.228798 0)
(1.82871 0.230482 0)
(1.83146 0.229143 0)
(1.83107 0.228833 0)
(1.83144 0.228956 0)
(2 2.33933e-14 0)
(2.00149 -0.00239808 0)
(1.83155 0.228594 0)
(1.83083 0.229856 0)
(2.00109 -0.00182122 0)
(1.83143 0.228795 0)
(1.83165 0.229077 0)
(2.09897 -0.273428 0)
(2.12778 -0.263158 0)
(1.83202 0.227372 0)
(1.82874 0.232506 0)
(2 -3.08712e-14 0)
(2 -2.60625e-14 0)
(1.99944 0.00156435 0)
(1.83146 0.228733 0)
(1.83102 0.230078 0)
(1.83163 0.229 0)
(2 9.64917e-10 0)
(1.83128 0.228704 0)
(2 9.93587e-15 0)
(2.05053 -0.0936466 0)
(1.82788 0.230932 0)
(1.82893 0.232015 0)
(2 -6.08302e-14 0)
(1.92576 0.113251 0)
(1.83152 0.229046 0)
(2 -9.62854e-15 0)
(1.82854 0.22588 0)
(2 -1.01633e-10 0)
(1.83189 0.228968 0)
(1.89591 0.147666 0)
(1.8319 0.228993 0)
(2 1.27496e-11 0)
(1.8319 0.228482 0)
(1.83472 0.230808 0)
(2.10636 -0.271086 0)
(1.83157 0.228738 0)
(2 -1.12226e-07 0)
(1.83139 0.228152 0)
(1.82975 0.229342 0)
(2 7.31182e-09 0)
(2.09985 -0.269486 0)
(1.83254 0.227731 0)
(1.86097 0.193023 0)
(2.00076 -0.000947344 0)
(1.83047 0.224899 0)
(1.83173 0.229144 0)
(2 -5.41865e-12 0)
(2.00097 -0.00563433 0)
(1.83165 0.229407 0)
(2.00227 -0.00155765 0)
(1.83133 0.228895 0)
(2 -3.53011e-12 0)
(2 6.23912e-14 0)
(1.83147 0.22841 0)
(2 -6.85631e-14 0)
(1.83109 0.228992 0)
(1.83152 0.228872 0)
(2.00142 -0.00242482 0)
(1.86 0.196792 0)
(2 3.02629e-09 0)
(1.83165 0.228957 0)
(2 7.58289e-10 0)
(2 -8.86218e-13 0)
(2 9.05936e-12 0)
(2 6.28145e-12 0)
(1.83186 0.22896 0)
(2 7.31975e-09 0)
(2 -2.74045e-13 0)
(1.83838 0.224919 0)
(2 -4.7675e-14 0)
(1.83167 0.229299 0)
(2 3.11449e-10 0)
(1.89056 0.159582 0)
(1.83187 0.229616 0)