/*--------------------------------*- C++ -*----------------------------------*\
  =========                 |
  \\      /  F ield         | OpenFOAM: The Open Source CFD Toolbox
   \\    /   O peration     | Website:  https://openfoam.org
    \\  /    A nd           | Version:  12
     \\/     M anipulation  |
\*---------------------------------------------------------------------------*/
FoamFile
{
    format      ascii;
    class       volScalarField;
    location    "0.45";
    object      rho;
}
// * * * * * * * * * * * * * * * * * * * * * * * * * * * * * * * * * * * * * //

dimensions      [1 -3 0 0 0 0 0];

internalField   nonuniform List<scalar> 
46253
(
1.40001
1.40001
1.51902
1.40001
1.48384
1.43817
1.40001
1.389
1.40001
1.40001
1.40001
1.29468
1.40001
1.40001
1.40001
1.40001
1.40001
1.40001
1.40001
1.40001
1.40001
1.40096
1.40001
1.40001
1.40001
1.40001
1.40001
1.40001
1.40001
1.3894
1.41916
1.40001
1.40001
1.40001
1.40001
1.40001
1.40001
1.40001
1.38207
1.40001
1.40001
1.30204
1.40001
1.40001
1.27134
1.40001
1.40001
1.40001
1.40001
1.40001
1.40001
1.40001
1.40001
1.38659
1.54376
1.3311
1.40001
1.40001
1.46649
1.40001
1.40001
1.40001
1.40001
1.40001
1.40001
1.40001
1.40001
1.39996
1.33476
1.27835
1.40001
1.40001
1.40001
1.35673
1.40001
1.40001
1.40001
1.40001
1.40001
1.40001
1.40001
1.40001
1.4
1.40001
1.40001
1.40001
1.40001
1.40001
1.39161
1.40001
1.40001
1.40001
1.40001
1.40001
1.40001
1.40001
1.40001
1.40001
1.46693
1.40001
1.40001
1.40001
1.40001
1.41738
1.54139
1.40001
1.32343
1.40001
1.40001
1.31485
1.38711
1.40001
1.40001
1.40001
1.40001
1.39062
1.31529
1.40001
1.56548
1.33476
1.40001
1.40901
1.40001
1.40001
1.40001
1.57349
1.40001
1.32584
1.57132
1.40001
1.40001
1.40001
1.40881
1.40001
1.40001
1.40001
1.40001
1.40001
1.33604
1.40001
1.40001
1.40001
1.40001
1.4124
1.40001
1.55759
1.40001
1.40001
1.383
1.40001
1.31386
1.40001
1.40001
1.40001
1.39975
1.29224
1.32566
1.40001
1.40001
1.54004
1.40001
1.33288
1.3287
1.40001
1.40001
1.40001
1.40001
1.40001
1.6795
1.40001
1.40001
1.40001
1.39997
1.40001
1.53666
1.3112
1.3748
1.40001
1.3553
1.31935
1.53675
1.39951
1.40001
1.40001
1.40001
1.40001
1.40001
1.27211
1.40001
1.40001
1.40001
1.40001
1.40001
1.40001
1.40001
1.40001
1.38698
1.40001
1.40001
1.40001
1.40001
1.40001
1.40001
1.40001
1.40001
1.31357
1.39605
1.40001
1.40001
1.40001
1.40001
1.56755
1.40001
1.40001
1.37508
1.40001
1.41068
1.40001
1.40001
1.39996
1.39998
1.40001
1.31026
1.40001
1.40001
1.40001
1.40001
1.40001
1.40001
1.40001
1.44314
1.40001
1.40001
1.40001
1.40001
1.40001
1.40001
1.40001
1.44357
1.45213
1.40001
1.40001
1.40001
1.40001
1.40001
1.40001
1.40001
1.39417
1.40001
1.40001
1.40001
1.44997
1.40001
1.40001
1.40001
1.40001
1.40001
1.34529
1.40001
1.40001
1.40001
1.40001
1.3019
1.41276
1.40001
1.40001
1.40001
1.40001
1.40001
1.40001
1.40001
1.40001
1.40001
1.40001
1.40001
1.40001
1.5521
1.40001
1.38654
1.34713
1.40001
1.40001
1.40001
1.40001
1.40001
1.40001
1.40001
1.33415
1.40815
1.40001
1.46402
1.46317
1.40001
1.40001
1.45876
1.43064
1.40001
1.42775
1.40001
1.40001
1.55906
1.40001
1.32857
1.55646
1.40001
1.40001
1.40001
1.40001
1.41185
1.40001
1.40001
1.36833
1.40001
1.40001
1.40001
1.40001
1.33574
1.45722
1.40001
1.38609
1.32734
1.40001
1.40001
1.40001
1.38081
1.40602
1.40001
1.40001
1.40001
1.40001
1.40001
1.40001
1.40001
1.40001
1.40001
1.40001
1.34227
1.40001
1.40001
1.40001
1.40001
1.40001
1.40001
1.566
1.40001
1.40001
1.40001
1.40001
1.3418
1.40001
1.38806
1.40001
1.31842
1.40001
1.33464
1.40001
1.40001
1.40001
1.40001
1.40001
1.32474
1.40001
1.40001
1.40001
1.40001
1.40001
1.40001
1.40001
1.40001
1.40001
1.40001
1.40001
1.40001
1.40001
1.40001
1.45407
1.33549
1.40001
1.40001
1.40001
1.40001
1.40001
1.32735
1.40001
1.38705
1.40001
1.40001
1.40001
1.40001
1.5957
1.40001
1.40836
1.40001
1.40001
1.40001
1.38662
1.39433
1.38798
1.40001
1.40001
1.40001
1.40001
1.40001
1.45484
1.40001
1.46705
1.40001
1.40001
1.40001
1.40001
1.40001
1.40001
1.53993
1.40001
1.40001
1.4
1.40001
1.40001
1.40001
1.34294
1.4
1.40001
1.40001
1.40001
1.40001
1.40001
1.40001
1.40001
1.40001
1.40001
1.37141
1.40001
1.40001
1.40001
1.40001
1.40001
1.38728
1.40001
1.40001
1.38692
1.32892
1.4
1.40001
1.40001
1.40001
1.40143
1.40001
1.40001
1.33362
1.40001
1.34844
1.40001
1.40001
1.40001
1.40001
1.46982
1.38662
1.45946
1.40001
1.42152
1.40001
1.41138
1.40255
1.40001
1.40001
1.40034
1.40001
1.40001
1.40005
1.40001
1.40001
1.36924
1.40001
1.38615
1.32909
1.40001
1.34283
1.39159
1.40001
1.40001
1.40001
1.40001
1.40001
1.40001
1.40001
1.40001
1.57739
1.40001
1.34848
1.40001
1.31377
1.3495
1.40001
1.40001
1.40001
1.40001
1.40001
1.40001
1.40001
1.30091
1.40001
1.40001
1.40001
1.40001
1.40001
1.40001
1.40001
1.41558
1.40001
1.40001
1.40001
1.40001
1.4
1.38679
1.40001
1.40001
1.40001
1.40001
1.40001
1.40001
1.40001
1.52269
1.40001
1.40001
1.40001
1.40001
1.40001
1.40001
1.40001
1.40001
1.40001
1.38042
1.37675
1.40001
1.43596
1.40001
1.40001
1.40001
1.40001
1.40001
1.40001
1.33992
1.40001
1.40001
1.40001
1.40001
1.40001
1.40001
1.40001
1.29442
1.40001
1.40001
1.40001
1.34551
1.40001
1.40001
1.40001
1.40001
1.40001
1.40001
1.40001
1.40913
1.40001
1.40001
1.31475
1.40001
1.40001
1.40001
1.40001
1.40001
1.40001
1.40001
1.41036
1.40001
1.40504
1.40001
1.40001
1.32702
1.40001
1.40001
1.40001
1.40001
1.40001
1.40001
1.40001
1.40257
1.44627
1.40001
1.44746
1.44788
1.4487
1.3839
1.40001
1.40001
1.40001
1.40621
1.40394
1.40001
1.40001
1.35687
1.40001
1.55953
1.36762
1.4
1.55939
1.47163
1.40001
1.41131
1.41574
1.40001
1.40001
1.39375
1.40001
1.40001
1.40001
1.38616
1.40001
1.40001
1.40001
1.40001
1.40001
1.40001
1.40001
1.40001
1.27378
1.40001
1.40001
1.40001
1.40001
1.40001
1.40001
1.40001
1.40001
1.40001
1.40001
1.4
1.40001
1.4
1.40001
1.40001
1.39996
1.40001
1.39995
1.50733
1.40001
1.39992
1.40001
1.39992
1.40001
1.30024
1.40001
1.34902
1.40001
1.40001
1.40001
1.39993
1.4008
1.40001
1.40001
1.40355
1.40832
1.38446
1.40001
1.40001
1.42504
1.40001
1.43272
1.40001
1.40001
1.44206
1.33654
1.4475
1.40001
1.40001
1.40001
1.40001
1.40001
1.45453
1.45734
1.38585
1.40001
1.40001
1.46229
1.35335
1.46298
1.32898
1.40001
1.46862
1.46715
1.40001
1.40001
1.40001
1.40001
1.40001
1.40001
1.465
1.41886
1.40001
1.47211
1.40001
1.47078
1.40001
1.40001
1.40001
1.40001
1.47472
1.47277
1.40001
1.40001
1.4769
1.40001
1.47427
1.40001
1.39211
1.48112
1.4779
1.40001
1.33835
1.48345
1.48087
1.64755
1.40001
1.40001
1.40001
1.48351
1.40001
1.48228
1.44453
1.40027
1.44133
1.3055
1.4809
1.48046
1.46461
1.47331
1.47499
1.34145
1.33651
1.40001
1.38721
1.56761
1.40001
1.40001
1.32222
1.40001
1.34115
1.4058
1.40001
1.40001
1.40001
1.40001
1.40001
1.40001
1.40001
1.40001
1.40001
1.40001
1.40001
1.40001
1.40001
1.40001
1.34155
1.3503
1.40001
1.39252
1.28205
1.40001
1.40001
1.40001
1.40001
1.402
1.40001
1.40001
1.40001
1.40001
1.4
1.44822
1.40001
1.45045
1.34248
1.40001
1.40001
1.40001
1.44981
1.4012
1.40001
1.40001
1.40001
1.40001
1.45203
1.44924
1.40001
1.40001
1.40001
1.40001
1.34785
1.40001
1.40001
1.45148
1.46369
1.46303
1.38564
1.46999
1.43449
1.39078
1.38988
1.40001
1.45311
1.32531
1.44078
1.40001
1.40001
1.40001
1.40001
1.41488
1.40001
1.40001
1.40018
1.40001
1.48189
1.40006
1.40001
1.40897
1.41602
1.40001
1.40001
1.47382
1.47447
1.40001
1.40001
1.40001
1.40001
1.38692
1.32808
1.50249
1.40001
1.40001
1.40001
1.46523
1.46492
1.40001
1.47327
1.40001
1.40001
1.47009
1.40001
1.47438
1.46879
1.40001
1.40001
1.40001
1.40001
1.40001
1.40001
1.32494
1.40001
1.33967
1.47873
1.40001
1.40001
1.47522
1.40001
1.40001
1.40001
1.40001
1.40001
1.40001
1.35259
1.40001
1.33282
1.3412
1.40001
1.34737
1.34526
1.33094
1.32977
1.40001
1.40001
1.38141
1.40001
1.40001
1.40001
1.36329
1.3578
1.40001
1.40001
1.40001
1.40001
1.40001
1.40001
1.46933
1.4711
1.38453
1.46439
1.40001
1.44224
1.40001
1.40001
1.40001
1.39164
1.46658
1.40001
1.40001
1.40001
1.45508
1.45494
1.40001
1.40002
1.45194
1.44621
1.45235
1.40001
1.40001
1.40001
1.40001
1.44768
1.40001
1.40001
1.38274
1.40053
1.34609
1.40001
1.34624
1.40001
1.40001
1.40001
1.40001
1.40001
1.40001
1.53322
1.40001
1.35734
1.38458
1.38477
1.3567
1.40001
1.40001
1.43725
1.44634
1.40001
1.40001
1.40001
1.30788
1.39135
1.44109
1.40001
1.40001
1.40001
1.40001
1.40001
1.40001
1.60033
1.40001
1.40001
1.3377
1.34136
1.38609
1.43494
1.48275
1.47277
1.33764
1.40676
1.40001
1.48613
1.39994
1.39999
1.40001
1.39989
1.39992
1.40001
1.36123
1.39998
1.40001
1.40001
1.40001
1.4
1.45879
1.40071
1.40001
1.40001
1.40001
1.40345
1.40001
1.40001
1.41633
1.46623
1.40001
1.40001
1.42455
1.40001
1.39999
1.43413
1.40001
1.40001
1.40001
1.44119
1.40001
1.44953
1.40001
1.40001
1.40001
1.40001
1.4535
1.40001
1.40001
1.40001
1.45921
1.44909
1.40001
1.40001
1.40001
1.46097
1.40001
1.45749
1.46729
1.40001
1.37043
1.46646
1.47181
1.47014
1.33671
1.47426
1.47204
1.47662
1.40001
1.40001
1.47389
1.40001
1.48068
1.40001
1.40001
1.40001
1.47682
1.35371
1.43538
1.48317
1.47967
1.48442
1.40001
1.48241
1.45435
1.4831
1.40001
1.46212
1.40001
1.48232
1.38593
1.38213
1.40001
1.47875
1.46101
1.46083
1.40001
1.47877
1.46795
1.47051
1.40001
1.41987
1.49999
1.40001
1.42096
1.40001
1.41045
1.42659
1.43073
1.40001
1.57316
1.37456
1.40001
1.40001
1.40001
1.4068
1.40842
1.40001
1.39354
1.45829
1.45947
1.37962
1.3914
1.45782
1.45826
1.45781
1.44568
1.38288
1.33996
1.40001
1.40001
1.40001
1.3836
1.35922
1.33978
1.38244
1.40001
1.45572
1.44521
1.2931
1.40001
1.40001
1.40001
1.37614
1.40001
1.40001
1.40001
1.40001
1.35999
1.38512
1.3898
1.45738
1.3836
1.39117
1.32792
1.40001
1.37493
1.40001
1.46296
1.40001
1.33033
1.34882
1.39744
1.37147
1.45913
1.4632
1.40001
1.45843
1.42076
1.35845
1.38508
1.40001
1.40001
1.40001
1.40001
1.47272
1.40001
1.40001
1.42451
1.38456
1.33935
1.40001
1.40001
1.40001
1.40001
1.36399
1.40001
1.40001
1.52057
1.33582
1.4
1.33802
1.40001
1.40001
1.54716
1.45893
1.40001
1.40001
1.40001
1.40001
1.39168
1.40001
1.40001
1.35909
1.40001
1.40001
1.38304
1.40001
1.45776
1.40001
1.40001
1.40001
1.40001
1.40001
1.45858
1.40001
1.40001
1.33468
1.39332
1.4
1.36763
1.34918
1.45376
1.3278
1.45352
1.44612
1.40001
1.40001
1.40001
1.36122
1.45035
1.40001
1.40001
1.45067
1.38275
1.40628
1.35495
1.40001
1.4456
1.40001
1.45706
1.40001
1.40001
1.36573
1.45562
1.40001
1.40001
1.4
1.44279
1.40001
1.44404
1.29423
1.39991
1.40001
1.40001
1.4
1.40001
1.40001
1.45917
1.40001
1.46109
1.45897
1.40001
1.39121
1.4611
1.40001
1.40001
1.4567
1.40001
1.40001
1.46322
1.45361
1.36715
1.40001
1.4575
1.46376
1.46321
1.47318
1.40001
1.48788
1.47342
1.40314
1.34859
1.46329
1.40625
1.4559
1.40904
1.40001
1.40001
1.40001
1.46189
1.40001
1.39916
1.42323
1.40001
1.33717
1.40001
1.44725
1.46238
1.37714
1.40001
1.40001
1.40642
1.40001
1.40466
1.45696
1.40001
1.45901
1.40001
1.40001
1.40001
1.45585
1.40001
1.40001
1.35231
1.40001
1.40001
1.35851
1.45939
1.40001
1.40001
1.40001
1.39999
1.40001
1.40001
1.40001
1.40001
1.40001
1.40001
1.40001
1.40001
1.40001
1.40001
1.40001
1.40001
1.40001
1.40001
1.40001
1.43878
1.40001
1.37892
1.40001
1.40001
1.40001
1.38039
1.34394
1.3945
1.40001
1.41846
1.40976
1.40001
1.40001
1.40001
1.40442
1.40001
1.44891
1.40001
1.40758
1.34224
1.32057
1.40001
1.40001
1.40001
1.40001
1.40001
1.40001
1.40007
1.39999
1.40001
1.42291
1.40001
1.40001
1.40001
1.40001
1.34732
1.40001
1.40001
1.40001
1.44767
1.40001
1.40001
1.40001
1.40001
1.40001
1.35132
1.45215
1.35243
1.40001
1.40001
1.40001
1.40001
1.40001
1.44976
1.45394
1.32496
1.45486
1.4482
1.3813
1.45593
1.45659
1.40001
1.45787
1.40001
1.38702
1.40001
1.44996
1.40001
1.40001
1.45157
1.40001
1.4538
1.40001
1.40001
1.45324
1.40001
1.40001
1.34872
1.40001
1.45206
1.40001
1.40001
1.40001
1.32737
1.40001
1.34557
1.40001
1.4277
1.33014
1.40001
1.40001
1.40001
1.45362
1.38287
1.40001
1.4064
1.45298
1.40001
1.40001
1.47462
1.40001
1.40001
1.39953
1.35525
1.40001
1.40001
1.40001
1.40001
1.40001
1.33957
1.40317
1.45595
1.4552
1.39468
1.40001
1.37896
1.41778
1.45164
1.36303
1.4457
1.40001
1.4576
1.40001
1.40001
1.40001
1.35489
1.40001
1.40001
1.40001
1.47221
1.37183
1.40001
1.44636
1.39407
1.44664
1.40001
1.40001
1.44769
1.38712
1.35403
1.45603
1.40001
1.40001
1.40001
1.40001
1.40001
1.40001
1.40001
1.40001
1.40001
1.40001
1.37098
1.40001
1.40001
1.46281
1.33693
1.45576
1.42649
1.33749
1.40001
1.3278
1.40001
1.42638
1.40001
1.36654
1.40001
1.38216
1.41862
1.40001
1.40001
1.40008
1.47628
1.33895
1.34258
1.40573
1.40001
1.40001
1.48597
1.37595
1.43871
1.45698
1.48032
1.39999
1.40001
1.40001
1.40001
1.40001
1.40001
1.40001
1.40207
1.44613
1.40001
1.40001
1.40001
1.38468
1.40001
1.40001
1.42206
1.40001
1.40764
1.40001
1.40001
1.42637
1.40001
1.402
1.4373
1.46029
1.46424
1.46698
1.45731
1.40001
1.40001
1.45713
1.40001
1.40001
1.40001
1.40001
1.39324
1.40001
1.40001
1.40001
1.41707
1.40001
1.40001
1.40001
1.40001
1.40001
1.40001
1.40001
1.45564
1.41543
1.34019
1.29254
1.40001
1.40001
1.40001
1.46032
1.40001
1.38495
1.40001
1.40001
1.40001
1.45199
1.426
1.40001
1.45757
1.40001
1.355
1.40001
1.40001
1.40001
1.40001
1.40001
1.40001
1.40001
1.40001
1.40001
1.40001
1.40001
1.40001
1.40001
1.40001
1.42104
1.40001
1.47088
1.40001
1.40001
1.40001
1.37593
1.45346
1.35257
1.45949
1.40001
1.35577
1.40207
1.33917
1.47338
1.35119
1.40001
1.40001
1.47311
1.43412
1.40001
1.40001
1.40001
1.40001
1.40001
1.45729
1.45583
1.40001
1.40001
1.40001
1.38979
1.34432
1.40001
1.3236
1.42234
1.40001
1.422
1.3205
1.40001
1.40001
1.43435
1.40073
1.40925
1.40001
1.40426
1.41862
1.36329
1.40001
1.40317
1.40001
1.42548
1.40001
1.40001
1.40001
1.40001
1.40001
1.40001
1.40889
1.40001
1.33372
1.45361
1.39274
1.40001
1.41074
1.40001
1.4451
1.40001
1.37264
1.40001
1.4577
1.57256
1.39685
1.40001
1.40001
1.4
1.40001
1.40001
1.40001
1.40001
1.40001
1.45786
1.40001
1.39133
1.47943
1.40001
1.40001
1.37004
1.40001
1.40001
1.40001
1.39668
1.40001
1.36975
1.40001
1.45728
1.45763
1.33093
1.3896
1.3592
1.40001
1.32492
1.48304
1.40001
1.40001
1.457
1.48266
1.34086
1.40001
1.40001
1.32498
1.3337
1.4023
1.37034
1.40001
1.40001
1.40251
1.44722
1.41641
1.40001
1.40001
1.40001
1.39187
1.39218
1.38609
1.39352
1.37897
1.40001
1.40261
1.48283
1.40001
1.44472
1.48264
1.34356
1.40001
1.40001
1.40001
1.40389
1.35897
1.40001
1.40001
1.41553
1.4152
1.3644
1.40001
1.40001
1.40001
1.40001
1.3962
1.40001
1.40001
1.40001
1.40001
1.40001
1.40001
1.39998
1.40001
1.32362
1.40001
1.40001
1.40001
1.32364
1.40001
1.35394
1.32192
1.40667
1.45653
1.52629
1.40001
1.40001
1.40001
1.37952
1.40001
1.40001
1.40001
1.38094
1.37994
1.40001
1.37278
1.40001
1.40001
1.37595
1.37495
1.37966
1.37483
1.39999
1.40001
1.40001
1.40001
1.37854
1.40001
1.34218
1.358
1.40001
1.3418
1.39957
1.40774
1.40001
1.34499
1.39118
1.40001
1.47691
1.33545
1.40001
1.38021
1.41489
1.34431
1.47749
1.40001
1.40001
1.40001
1.40001
1.40001
1.39091
1.4
1.40001
1.40001
1.38949
1.40001
1.40001
1.35245
1.34756
1.35796
1.40001
1.40001
1.40001
1.40001
1.34664
1.36022
1.40001
1.33548
1.42478
1.40001
1.40001
1.40001
1.40001
1.40001
1.40593
1.40001
1.39665
1.34893
1.35009
1.48027
1.35693
1.40001
1.40001
1.40001
1.40001
1.40001
1.39624
1.44047
1.38857
1.40001
1.40001
1.42394
1.39665
1.36677
1.40001
1.36376
1.45497
1.40001
1.40001
1.40001
1.40001
1.348
1.40001
1.40458
1.36425
1.40001
1.40001
1.43275
1.36239
1.336
1.3496
1.40001
1.39362
1.38047
1.40001
1.40001
1.40001
1.40001
1.40001
1.40001
1.40001
1.40001
1.40001
1.38174
1.40001
1.40001
1.40001
1.40001
1.40001
1.40001
1.40001
1.40001
1.40001
1.40001
1.40001
1.40001
1.39131
1.4
1.40001
1.40162
1.39172
1.40001
1.40001
1.40001
1.40001
1.3317
1.36546
1.41069
1.40001
1.40001
1.39833
1.39707
1.43655
1.40001
1.40001
1.40001
1.40001
1.40906
1.40001
1.40001
1.41164
1.40233
1.36347
1.40001
1.40001
1.35469
1.39511
1.40001
1.38459
1.40001
1.40001
1.40001
1.40001
1.40001
1.40001
1.38536
1.45741
1.40001
1.40001
1.41341
1.38344
1.37037
1.39686
1.38248
1.40001
1.40001
1.35569
1.40001
1.40502
1.38332
1.38192
1.40001
1.34702
1.36864
1.40001
1.40001
1.40001
1.40001
1.40001
1.40001
1.40001
1.40001
1.35061
1.40001
1.40092
1.40289
1.40001
1.40001
1.40048
1.40001
1.40001
1.40001
1.48508
1.42862
1.3376
1.43134
1.40001
1.40001
1.42615
1.40001
1.40001
1.38664
1.33576
1.40001
1.40039
1.40011
1.40916
1.40001
1.40896
1.40001
1.40001
1.40001
1.40001
1.40001
1.39213
1.40001
1.40001
1.41416
1.40001
1.40001
1.40001
1.40001
1.40001
1.40001
1.39593
1.40001
1.40001
1.38495
1.40001
1.40001
1.48334
1.3841
1.45725
1.3846
1.40001
1.40001
1.40001
1.41645
1.40001
1.38445
1.40001
1.45123
1.40001
1.40001
1.47608
1.40066
1.4
1.37821
1.39009
1.40001
1.40001
1.39072
1.39648
1.3901
1.40001
1.40387
1.4114
1.38959
1.40001
1.40001
1.39539
1.40001
1.40001
1.40001
1.40001
1.40001
1.40001
1.35678
1.39557
1.40001
1.40001
1.44132
1.40331
1.40308
1.40001
1.40001
1.40001
1.40233
1.40001
1.54816
1.40001
1.40001
1.40001
1.40001
1.39327
1.40001
1.40001
1.3498
1.40001
1.40121
1.40001
1.40001
1.48099
1.45866
1.40001
1.35123
1.40001
1.41878
1.40001
1.42435
1.34307
1.40001
1.40001
1.47938
1.41651
1.40068
1.40558
1.40001
1.40001
1.46192
1.40001
1.44702
1.42121
1.41031
1.40001
1.40001
1.44994
1.40001
1.40001
1.46143
1.40001
1.40001
1.38128
1.35046
1.42278
1.40001
1.43527
1.40001
1.4
1.40001
1.40287
1.40001
1.37058
1.44545
1.3537
1.40001
1.37092
1.29636
1.40001
1.35438
1.40001
1.33113
1.37486
1.43632
1.36064
1.40001
1.40001
1.43033
1.40001
1.3922
1.40001
1.40001
1.40001
1.41589
1.40001
1.42262
1.40001
1.42883
1.40001
1.40001
1.4205
1.41494
1.40001
1.3622
1.40001
1.45632
1.40092
1.45488
1.40116
1.40001
1.40001
1.41088
1.40001
1.40001
1.42317
1.40001
1.39678
1.40903
1.43145
1.40001
1.33889
1.40001
1.42674
1.40512
1.4311
1.40001
1.40534
1.3808
1.40001
1.3736
1.40001
1.40001
1.40001
1.40001
1.37491
1.40676
1.39494
1.40212
1.40001
1.35952
1.41619
1.4086
1.36409
1.40001
1.43329
1.42266
1.38027
1.42759
1.37981
1.40001
1.40001
1.40001
1.40001
1.40001
1.40001
1.40001
1.40001
1.40001
1.45581
1.40001
1.40001
1.3733
1.40001
1.40001
1.40001
1.43015
1.393
1.40001
1.4038
1.4151
1.42508
1.37163
1.40001
1.40001
1.38802
1.44289
1.40001
1.40001
1.40001
1.43448
1.40001
1.40001
1.40001
1.45683
1.40001
1.40057
1.40087
1.4006
1.43694
1.44007
1.40001
1.40001
1.40001
1.36759
1.40001
1.40001
1.38524
1.43809
1.41496
1.4385
1.40001
1.35989
1.39523
1.44909
1.39355
1.4447
1.44103
1.40001
1.40081
1.45621
1.44355
1.40056
1.40001
1.40001
1.40075
1.40001
1.36449
1.31444
1.40879
1.40001
1.40001
1.45515
1.44973
1.36044
1.40001
1.44696
1.44811
1.38037
1.29815
1.40001
1.44524
1.35665
1.40001
1.40001
1.35611
1.42188
1.40001
1.3822
1.40001
1.40001
1.39023
1.40126
1.40001
1.39998
1.40001
1.45232
1.47559
1.35035
1.40001
1.39568
1.40001
1.35976
1.38232
1.36407
1.45187
1.40001
1.40001
1.40001
1.40001
1.3951
1.4017
1.40211
1.3999
1.45032
1.40001
1.39895
1.40001
1.34361
1.36939
1.40027
1.37037
1.40001
1.40001
1.40001
1.40001
1.35035
1.40001
1.40001
1.40001
1.35293
1.40001
1.40001
1.40001
1.39139
1.47866
1.40001
1.40001
1.31751
1.40001
1.40001
1.37235
1.40001
1.36761
1.40001
1.40001
1.40001
1.43133
1.40001
1.40001
1.40001
1.40001
1.40001
1.38888
1.40001
1.38208
1.40001
1.45382
1.40001
1.45428
1.40001
1.40001
1.32456
1.40001
1.40001
1.45558
1.40001
1.37461
1.40001
1.38617
1.39751
1.40001
1.40001
1.40001
1.37372
1.48465
1.40001
1.3291
1.40001
1.40001
1.32969
1.40001
1.4182
1.40001
1.40001
1.40352
1.40001
1.40001
1.40001
1.40001
1.40001
1.45786
1.40001
1.40001
1.41068
1.41566
1.45623
1.40001
1.40001
1.40001
1.40001
1.37713
1.46035
1.40001
1.40001
1.45903
1.40001
1.46209
1.37656
1.46092
1.40001
1.40001
1.40598
1.40499
1.36366
1.40001
1.40001
1.40001
1.40001
1.40921
1.40001
1.45618
1.40722
1.40001
1.40001
1.40001
1.3755
1.40001
1.40001
1.40001
1.40001
1.46319
1.42656
1.40001
1.40006
1.36176
1.40001
1.40303
1.40001
1.40001
1.42009
1.40001
1.40001
1.40001
1.40001
1.40001
1.40001
1.40001
1.45881
1.4585
1.4648
1.40001
1.46859
1.46733
1.40001
1.36289
1.40954
1.40001
1.40001
1.40001
1.40001
1.40001
1.46679
1.32832
1.40001
1.41947
1.40001
1.40001
1.40001
1.40001
1.40001
1.40001
1.40001
1.40001
1.4289
1.40001
1.46594
1.40001
1.36892
1.40001
1.40001
1.40001
1.40001
1.40001
1.40001
1.32845
1.4001
1.47011
1.39823
1.40796
1.47141
1.40001
1.40001
1.39087
1.40001
1.39693
1.59734
1.40001
1.47393
1.40001
1.39424
1.42583
1.45852
1.40001
1.40001
1.41022
1.40001
1.40001
1.41332
1.40001
1.40001
1.39343
1.40001
1.40001
1.40001
1.4983
1.40001
1.31516
1.40001
1.40001
1.40001
1.38722
1.40001
1.40001
1.47267
1.40001
1.40001
1.40001
1.40001
1.38522
1.39774
1.4738
1.40001
1.40001
1.40001
1.40001
1.45687
1.37761
1.40001
1.40001
1.40001
1.37031
1.37981
1.3319
1.40001
1.40001
1.40001
1.40001
1.40001
1.40001
1.47885
1.38034
1.37895
1.40001
1.40001
1.48215
1.3812
1.40001
1.40001
1.40001
1.48089
1.46682
1.38068
1.40001
1.40001
1.40001
1.40001
1.40001
1.40001
1.40001
1.40001
1.40001
1.40001
1.40001
1.40001
1.40001
1.43592
1.39483
1.40001
1.40001
1.40001
1.40001
1.40001
1.40001
1.40001
1.40001
1.40001
1.40001
1.45657
1.40001
1.36712
1.40001
1.40001
1.33503
1.40001
1.40001
1.35381
1.40001
1.40001
1.40001
1.40001
1.40001
1.40001
1.40001
1.40001
1.37645
1.40001
1.40001
1.45729
1.40001
1.40001
1.40001
1.33087
1.40001
1.35206
1.45875
1.40001
1.40001
1.45753
1.45761
1.40001
1.40001
1.40001
1.33476
1.33489
1.37518
1.40001
1.38013
1.43497
1.40001
1.40001
1.37476
1.45795
1.40001
1.33491
1.40001
1.40001
1.37847
1.40001
1.40001
1.40001
1.37607
1.40001
1.33248
1.40001
1.40001
1.40001
1.30984
1.45815
1.40001
1.40001
1.40001
1.40001
1.40001
1.36666
1.40001
1.31576
1.40001
1.41718
1.40001
1.33934
1.35272
1.4671
1.40001
1.40001
1.39508
1.40001
1.38109
1.37861
1.40001
1.40001
1.45266
1.37875
1.40001
1.40001
1.3435
1.33725
1.3992
1.40913
1.40001
1.40001
1.40001
1.40001
1.40001
1.48069
1.36136
1.40001
1.40001
1.42812
1.38489
1.35161
1.37782
1.45824
1.40001
1.39677
1.40001
1.38644
1.3943
1.39492
1.33321
1.40001
1.40001
1.36054
1.33691
1.40001
1.40001
1.40001
1.40001
1.37172
1.40001
1.40001
1.40001
1.40001
1.40001
1.40001
1.38966
1.40001
1.40001
1.40001
1.40001
1.40001
1.40001
1.52032
1.40001
1.40001
1.40001
1.45452
1.33306
1.40001
1.40001
1.40001
1.40001
1.40001
1.30895
1.40001
1.41076
1.39153
1.55965
1.40001
1.38677
1.40088
1.40001
1.40001
1.35542
1.45363
1.40001
1.40001
1.39138
1.40001
1.40001
1.39537
1.40001
1.44331
1.35941
1.40001
1.45662
1.40001
1.48109
1.38493
1.40001
1.40001
1.40197
1.40001
1.40001
1.40001
1.39754
1.45531
1.40001
1.3759
1.3523
1.40001
1.39423
1.39543
1.40001
1.40001
1.40001
1.40001
1.40001
1.40001
1.40001
1.39673
1.45425
1.40001
1.44375
1.40001
1.40001
1.40001
1.40001
1.40001
1.40001
1.40001
1.48012
1.40072
1.40001
1.40001
1.40001
1.40001
1.40001
1.40001
1.36119
1.40001
1.38504
1.40001
1.40001
1.40001
1.40001
1.40001
1.52237
1.40001
1.40001
1.33213
1.40001
1.40001
1.40001
1.40662
1.40001
1.40001
1.40001
1.46111
1.40129
1.35719
1.46313
1.40001
1.39273
1.36448
1.40001
1.40001
1.45844
1.40001
1.39204
1.40001
1.40001
1.40751
1.40001
1.40001
1.40001
1.40001
1.40001
1.40001
1.39985
1.40001
1.46348
1.40001
1.50841
1.40001
1.45696
1.36128
1.40001
1.46165
1.36117
1.40001
1.40001
1.40001
1.45846
1.46326
1.45408
1.40001
1.45207
1.40001
1.39495
1.40001
1.40001
1.40001
1.45442
1.33884
1.46169
1.40001
1.46375
1.39437
1.39928
1.40001
1.40001
1.40001
1.40001
1.40001
1.40001
1.40001
1.40001
1.37902
1.40001
1.51229
1.40001
1.40001
1.40001
1.40001
1.46196
1.36648
1.40001
1.40001
1.40001
1.40001
1.40001
1.40001
1.40001
1.40001
1.40001
1.40001
1.40001
1.40001
1.40001
1.37303
1.40001
1.40001
1.40001
1.40001
1.38389
1.4001
1.40729
1.40001
1.40001
1.40001
1.40001
1.40001
1.40001
1.40001
1.40001
1.36868
1.40001
1.40405
1.40001
1.40001
1.3282
1.40001
1.45755
1.40002
1.40001
1.39583
1.39604
1.40001
1.40001
1.40001
1.45687
1.40001
1.40001
1.41334
1.40001
1.41294
1.40001
1.47111
1.40001
1.40001
1.45612
1.36674
1.40001
1.40652
1.37613
1.36123
1.44261
1.40001
1.40001
1.50866
1.40001
1.38349
1.40001
1.39997
1.40001
1.40001
1.38281
1.35778
1.40001
1.40001
1.40001
1.40001
1.40001
1.44963
1.40001
1.40001
1.40001
1.42934
1.40001
1.40001
1.40001
1.40001
1.40001
1.40001
1.40001
1.40001
1.36678
1.40001
1.40001
1.40001
1.40001
1.40001
1.40001
1.457
1.45477
1.40001
1.35413
1.4318
1.40001
1.40001
1.40001
1.40001
1.4
1.40001
1.39797
1.45921
1.45747
1.40001
1.40001
1.40001
1.40001
1.37554
1.40001
1.40001
1.40001
1.40001
1.40001
1.40001
1.40001
1.40001
1.40001
1.40001
1.41951
1.40001
1.40001
1.40001
1.40001
1.40001
1.36572
1.39992
1.40001
1.3769
1.40001
1.40001
1.40001
1.40001
1.40001
1.39029
1.40629
1.45442
1.40001
1.2966
1.40001
1.40001
1.40001
1.40001
1.40001
1.40001
1.40001
1.40001
1.40001
1.38747
1.40001
1.40001
1.40001
1.40001
1.40001
1.40001
1.40001
1.40001
1.40001
1.40001
1.37733
1.40001
1.50793
1.40001
1.38741
1.33073
1.4
1.40001
1.40001
1.38803
1.43875
1.40001
1.40001
1.40001
1.40001
1.40001
1.40001
1.40001
1.45694
1.40001
1.39187
1.40119
1.54782
1.45936
1.38542
1.40001
1.40001
1.38369
1.40001
1.40001
1.40001
1.40001
1.38397
1.4128
1.40001
1.43291
1.41702
1.40001
1.41792
1.40001
1.30517
1.40001
1.37007
1.39454
1.40001
1.40001
1.40001
1.40001
1.40001
1.40001
1.40001
1.37137
1.4261
1.40001
1.40001
1.39306
1.40001
1.40001
1.3667
1.40001
1.40001
1.40001
1.4012
1.40001
1.40001
1.40001
1.4488
1.40001
1.32763
1.40001
1.40001
1.40001
1.48499
1.30719
1.40001
1.44825
1.43026
1.40001
1.40001
1.35533
1.32537
1.32362
1.40001
1.29675
1.40001
1.45171
1.40001
1.39321
1.40001
1.33532
1.37414
1.47066
1.46725
1.40001
1.40001
1.37464
1.38206
1.40001
1.40001
1.42301
1.30089
1.40001
1.40672
1.37877
1.46168
1.45761
1.40001
1.40001
1.40001
1.40001
1.40001
1.39559
1.42546
1.40001
1.3347
1.40001
1.3311
1.40001
1.40071
1.46839
1.40001
1.47164
1.40001
1.40344
1.37758
1.40001
1.40001
1.32462
1.40001
1.40001
1.40175
1.34072
1.40001
1.40001
1.38523
1.39584
1.40001
1.40196
1.40001
1.40001
1.40602
1.40001
1.40001
1.46277
1.40001
1.40001
1.40327
1.50389
1.40001
1.33973
1.40001
1.40001
1.37632
1.40001
1.39715
1.40001
1.4274
1.40001
1.39456
1.40001
1.40001
1.39506
1.41675
1.34581
1.40001
1.40001
1.40001
1.40001
1.38019
1.40001
1.41894
1.39533
1.44822
1.40001
1.399
1.40001
1.40001
1.40084
1.40001
1.40001
1.45045
1.44977
1.36486
1.40001
1.34497
1.40001
1.44629
1.40001
1.40001
1.40001
1.33534
1.36874
1.40001
1.40001
1.40001
1.40001
1.40837
1.32268
1.40001
1.4
1.35924
1.30604
1.40001
1.44834
1.45011
1.42735
1.40001
1.40001
1.40001
1.40001
1.47524
1.40961
1.45717
1.42471
1.43634
1.40001
1.40001
1.57538
1.40001
1.40001
1.40001
1.45635
1.40001
1.40001
1.36556
1.39552
1.40001
1.40001
1.42034
1.40001
1.40001
1.33234
1.40001
1.45706
1.40001
1.44851
1.40694
1.40001
1.39992
1.40001
1.40001
1.32609
1.40001
1.40001
1.39922
1.35287
1.40001
1.40001
1.45664
1.40001
1.32757
1.40001
1.40001
1.43671
1.3285
1.40001
1.40001
1.40001
1.40001
1.40001
1.45686
1.40001
1.40001
1.40001
1.35277
1.40001
1.40001
1.40001
1.48278
1.40032
1.40001
1.40775
1.41009
1.32637
1.40001
1.40001
1.40001
1.37394
1.376
1.40001
1.40001
1.40001
1.32891
1.45669
1.39658
1.40001
1.34177
1.35712
1.40001
1.40162
1.39518
1.40001
1.43121
1.40001
1.36373
1.40001
1.43626
1.43403
1.40001
1.36802
1.40001
1.40185
1.37923
1.34366
1.4
1.35786
1.40001
1.40001
1.44826
1.4
1.35552
1.40001
1.40001
1.40001
1.41591
1.40001
1.40001
1.40001
1.37522
1.41542
1.40001
1.44583
1.40001
1.32256
1.40001
1.40001
1.51473
1.44768
1.40001
1.44713
1.45858
1.4344
1.40001
1.40001
1.33984
1.36998
1.40001
1.40001
1.47275
1.36151
1.40001
1.37272
1.40001
1.40001
1.44714
1.45741
1.30906
1.40001
1.40001
1.40001
1.40001
1.45932
1.40001
1.44972
1.37869
1.40001
1.40001
1.44617
1.36261
1.40044
1.40001
1.43215
1.36778
1.54863
1.41864
1.40001
1.45905
1.40001
1.45068
1.51367
1.40001
1.40512
1.36375
1.40001
1.36485
1.4301
1.45796
1.40001
1.40001
1.40001
1.38756
1.44738
1.40378
1.45851
1.40001
1.37011
1.45165
1.40001
1.40001
1.40001
1.38784
1.45961
1.40001
1.36657
1.36466
1.33329
1.43072
1.40001
1.40001
1.40001
1.38108
1.37393
1.44762
1.40001
1.43139
1.40247
1.40001
1.31936
1.40496
1.41524
1.40001
1.45729
1.40001
1.40662
1.40001
1.40001
1.50461
1.40001
1.40001
1.40001
1.38435
1.40987
1.45783
1.42623
1.44202
1.4486
1.40001
1.40001
1.42569
1.40001
1.36751
1.40001
1.40001
1.41844
1.40001
1.40001
1.40001
1.40001
1.40001
1.40001
1.40001
1.40001
1.40001
1.40075
1.44807
1.40001
1.40001
1.40001
1.31089
1.41388
1.44655
1.40001
1.41524
1.40001
1.40001
1.40001
1.40001
1.40001
1.38015
1.42745
1.40001
1.38045
1.40001
1.41619
1.44909
1.38512
1.42447
1.40001
1.40617
1.41262
1.40001
1.47496
1.40001
1.48148
1.39506
1.41449
1.41633
1.40001
1.48917
1.40001
1.39582
1.45721
1.40001
1.40001
1.40001
1.40001
1.39205
1.40001
1.40001
1.40001
1.40001
1.42789
1.40001
1.45734
1.4153
1.40001
1.40001
1.40001
1.44225
1.33549
1.4236
1.40001
1.40001
1.40001
1.45703
1.45376
1.40001
1.40001
1.45661
1.40001
1.3396
1.43798
1.38285
1.41632
1.37643
1.37292
1.42985
1.42751
1.40001
1.40001
1.40001
1.39901
1.43792
1.41243
1.4456
1.40001
1.40001
1.40001
1.37804
1.42083
1.40001
1.40001
1.40001
1.40001
1.40001
1.41664
1.40001
1.40001
1.40001
1.40001
1.40001
1.40001
1.40001
1.40001
1.3353
1.41262
1.40001
1.33815
1.33448
1.40001
1.34199
1.39516
1.4485
1.45662
1.43436
1.40001
1.40001
1.49636
1.42382
1.3739
1.43758
1.40001
1.40001
1.40001
1.40001
1.40001
1.49079
1.44661
1.40001
1.40001
1.40001
1.4466
1.40136
1.40001
1.35499
1.38256
1.43799
1.45831
1.41798
1.40001
1.45795
1.40001
1.42986
1.43188
1.40001
1.40001
1.44611
1.4243
1.47919
1.40001
1.40001
1.43927
1.40001
1.40001
1.46492
1.43038
1.40001
1.4237
1.46474
1.40001
1.40705
1.40001
1.37254
1.40001
1.43295
1.38531
1.40001
1.40654
1.40001
1.40001
1.40001
1.43745
1.40001
1.38062
1.38577
1.4347
1.44405
1.40001
1.33984
1.38
1.38601
1.40001
1.4379
1.41117
1.40195
1.39202
1.4258
1.42252
1.40001
1.37535
1.38883
1.40001
1.39253
1.37967
1.43519
1.40001
1.40001
1.40001
1.37401
1.40078
1.40001
1.40499
1.40001
1.43618
1.45662
1.30049
1.40001
1.40001
1.40001
1.40001
1.38971
1.40001
1.39566
1.34829
1.40776
1.40001
1.42703
1.40001
1.40001
1.44718
1.51117
1.40001
1.40001
1.40001
1.34827
1.40001
1.4582
1.43567
1.40001
1.40001
1.40001
1.44787
1.40001
1.38738
1.40001
1.40001
1.39168
1.42076
1.40001
1.40001
1.29738
1.4
1.40001
1.40001
1.40001
1.40001
1.40001
1.41791
1.43088
1.39087
1.39523
1.40001
1.40001
1.45918
1.38897
1.42719
1.31321
1.34758
1.45815
1.40001