/*--------------------------------*- C++ -*----------------------------------*\
  =========                 |
  \\      /  F ield         | OpenFOAM: The Open Source CFD Toolbox
   \\    /   O peration     | Website:  https://openfoam.org
    \\  /    A nd           | Version:  12
     \\/     M anipulation  |
\*---------------------------------------------------------------------------*/
FoamFile
{
    format      ascii;
    class       volScalarField;
    location    "28.4";
    object      rho;
}
// * * * * * * * * * * * * * * * * * * * * * * * * * * * * * * * * * * * * * //

dimensions      [1 -3 0 0 0 0 0];

internalField   nonuniform List<scalar> 
9801
(
1.13004
1.18032
1.19713
1.20206
1.20067
1.18715
1.17775
1.17595
1.1765
1.17848
1.19842
1.25644
1.28268
1.28687
1.28885
1.28431
1.26048
1.24199
1.24146
1.2453
1.25097
1.26147
1.28589
1.31195
1.32141
1.32394
1.32199
1.313
1.31044
1.31419
1.31998
1.32413
1.32634
1.32873
1.33187
1.338
1.35521
1.3748
1.38745
1.39659
1.40281
1.40475
1.4015
1.40106
1.40105
1.40354
1.40827
1.41548
1.43215
1.46926
1.50541
1.52331
1.53311
1.54091
1.54501
1.53099
1.51374
1.51021
1.51462
1.52194
1.53246
1.56213
1.60396
1.62775
1.6402
1.64962
1.65851
1.65696
1.64192
1.63637
1.64152
1.65113
1.66524
1.7063
1.7553
1.78101
1.79586
1.80755
1.81841
1.81443
1.7804
1.76773
1.77768
1.79692
1.83905
1.92994
1.99827
2.03728
2.06712
2.09334
2.09671
2.06596
2.03641
2.03572
2.08376
2.19019
2.40549
5.17241
23.9558
1.13402
1.15368
1.18203
1.19251
1.19414
1.18987
1.18412
1.18302
1.18532
1.19854
1.22028
1.24098
1.2684
1.28332
1.2895
1.2853
1.26738
1.2579
1.25769
1.26023
1.26413
1.26953
1.28386
1.30943
1.32657
1.33408
1.33752
1.33897
1.33341
1.32384
1.32223
1.324
1.3264
1.32964
1.33434
1.34204
1.36594
1.39321
1.40594
1.41255
1.41802
1.4223
1.41202
1.39566
1.39493
1.40131
1.40861
1.4158
1.43158
1.47043
1.50557
1.5237
1.53386
1.54173
1.54545
1.53111
1.51337
1.51076
1.5156
1.52281
1.53334
1.56277
1.60357
1.62713
1.63982
1.64961
1.65877
1.6562
1.64046
1.63558
1.64065
1.65076
1.66338
1.6963
1.74157
1.76933
1.78679
1.80246
1.81752
1.81276
1.77932
1.76434
1.77588
1.79564
1.82785
1.89696
1.96452
2.009
2.04478
2.07853
2.09067
2.06498
2.04031
2.03598
2.05976
2.12766
2.25185
4.81176
23.9489
1.16323
1.16462
1.16915
1.17356
1.17284
1.1711
1.17182
1.17518
1.18652
1.21602
1.23641
1.2453
1.25632
1.26939
1.27394
1.26402
1.2544
1.25408
1.25764
1.26247
1.26729
1.27119
1.27743
1.29696
1.31634
1.32805
1.33527
1.34037
1.34426
1.33809
1.32501
1.31823
1.3169
1.31924
1.32384
1.33294
1.36195
1.39408
1.40961
1.41749
1.42355
1.42773
1.41469
1.39396
1.39183
1.39792
1.40549
1.41331
1.42767
1.46463
1.49744
1.5129
1.52156
1.52807
1.53074
1.51637
1.4985
1.49581
1.50159
1.51005
1.52066
1.5479
1.58785
1.61178
1.62458
1.63421
1.64352
1.64362
1.62543
1.61422
1.61571
1.62394
1.63531
1.65955
1.70959
1.7467
1.76686
1.78146
1.79506
1.79521
1.766
1.74583
1.7496
1.76695
1.78885
1.83759
1.91801
1.97535
2.01054
2.04179
2.05788
2.03906
2.01742
2.01434
2.02828
2.08031
2.12555
4.51282
23.5174
1.19115
1.18967
1.15839
1.13763
1.13612
1.14433
1.158
1.17567
1.20351
1.22805
1.23976
1.24532
1.24377
1.23281
1.23038
1.23698
1.24475
1.25241
1.25792
1.26167
1.26242
1.2626
1.2658
1.27797
1.30447
1.32403
1.33426
1.34023
1.34473
1.33798
1.31456
1.30207
1.30209
1.3068
1.31363
1.32605
1.35971
1.39345
1.40837
1.41567
1.42105
1.42275
1.40829
1.38854
1.38528
1.39009
1.39678
1.40475
1.41726
1.44723
1.47735
1.49235
1.50082
1.5072
1.51123
1.50036
1.48277
1.4799
1.48567
1.49378
1.50298
1.52502
1.56366
1.58826
1.60033
1.60913
1.61737
1.61997
1.5994
1.57813
1.57558
1.58365
1.59556
1.61539
1.66404
1.70893
1.7316
1.7466
1.7607
1.77103
1.75088
1.71542
1.7046
1.7172
1.7381
1.76857
1.83192
1.89661
1.93865
1.97183
2.00052
2.00007
1.97833
1.96111
1.95846
1.99596
2.00609
4.28544
23.0289
1.19216
1.18206
1.13527
1.12015
1.12149
1.12706
1.14508
1.17927
1.20892
1.2254
1.23247
1.23002
1.21091
1.19943
1.20108
1.2129
1.23134
1.24285
1.24943
1.252
1.24797
1.24684
1.25025
1.26069
1.28869
1.3089
1.31777
1.32261
1.32604
1.31807
1.29404
1.28555
1.2888
1.2946
1.30277
1.31718
1.34919
1.38061
1.39424
1.40072
1.40514
1.40688
1.39854
1.38323
1.37755
1.38064
1.3862
1.39219
1.39928
1.42048
1.44994
1.46707
1.47701
1.48435
1.49039
1.48633
1.46825
1.45997
1.46145
1.46641
1.47359
1.4876
1.52491
1.55572
1.57004
1.57915
1.58704
1.59235
1.5758
1.54377
1.53427
1.54181
1.55411
1.57094
1.612
1.6669
1.69837
1.71572
1.72962
1.74141
1.73176
1.69322
1.66685
1.66611
1.68471
1.70885
1.75209
1.82039
1.87868
1.92047
1.9562
1.97947
1.97098
1.95095
1.93189
1.93608
1.9126
4.128
22.6397
1.1783
1.14671
1.1205
1.11771
1.12079
1.12747
1.14283
1.17416
1.20163
1.21033
1.20834
1.19352
1.18194
1.18132
1.18804
1.19679
1.20764
1.22116
1.23082
1.23526
1.23298
1.23233
1.23567
1.2455
1.27081
1.2874
1.29524
1.30055
1.30449
1.29593
1.2786
1.27532
1.27934
1.28521
1.29323
1.30829
1.33567
1.3621
1.37602
1.38301
1.3875
1.39065
1.38944
1.37897
1.37007
1.3699
1.37259
1.37607
1.38083
1.39322
1.42274
1.44546
1.45831
1.46703
1.47402
1.47616
1.45784
1.43889
1.43417
1.43773
1.44484
1.45619
1.49116
1.52944
1.54696
1.5562
1.56344
1.56915
1.56041
1.52734
1.50674
1.50886
1.52086
1.53634
1.56754
1.62668
1.67155
1.69265
1.70621
1.71855
1.71826
1.68736
1.65784
1.64665
1.65052
1.66752
1.69393
1.74432
1.80934
1.86409
1.90743
1.94506
1.96502
1.95899
1.93376
1.91331
1.8466
4.0147
22.4689
1.13867
1.12292
1.11947
1.12049
1.12617
1.13966
1.15383
1.16246
1.17119
1.17452
1.1719
1.1701
1.17125
1.17844
1.18813
1.19535
1.20005
1.20351
1.20668
1.20881
1.21021
1.21206
1.21566
1.22852
1.25494
1.27012
1.27755
1.28314
1.28704
1.27858
1.26661
1.26603
1.27065
1.27662
1.28333
1.29465
1.31643
1.33951
1.35429
1.3636
1.37074
1.37677
1.38157
1.37655
1.36479
1.35896
1.35817
1.3599
1.3641
1.37239
1.40024
1.4295
1.4449
1.45401
1.46104
1.46524
1.44821
1.41971
1.41157
1.41652
1.42518
1.43781
1.46842
1.50886
1.52957
1.53904
1.54555
1.5512
1.55091
1.52748
1.50156
1.49488
1.50273
1.51455
1.53302
1.58163
1.6418
1.67452
1.69123
1.7052
1.71481
1.69882
1.66666
1.64698
1.64136
1.64777
1.66393
1.69092
1.74323
1.80665
1.86194
1.90688
1.94189
1.95197
1.93949
1.9107
1.81713
3.91245
22.4111
1.10945
1.11309
1.12214
1.13614
1.1482
1.15397
1.15658
1.14903
1.13287
1.12897
1.13533
1.14959
1.17047
1.18782
1.19811
1.20342
1.20543
1.1988
1.18456
1.17592
1.17665
1.18256
1.19111
1.21227
1.24495
1.26348
1.27161
1.2773
1.28134
1.27489
1.26333
1.26035
1.26339
1.26846
1.27371
1.27961
1.29381
1.31685
1.33558
1.34859
1.35897
1.36689
1.37323
1.37597
1.36347
1.349
1.34396
1.34576
1.35084
1.35943
1.38692
1.41863
1.43409
1.44233
1.44819
1.44994
1.43681
1.41196
1.40236
1.40595
1.41493
1.42741
1.45102
1.49015
1.51718
1.52857
1.53531
1.54236
1.54949
1.53992
1.51228
1.49772
1.49647
1.50433
1.5153
1.53959
1.59905
1.6519
1.67888
1.69633
1.71215
1.71721
1.69332
1.66279
1.64647
1.64288
1.6493
1.66456
1.69372
1.75045
1.81187
1.85981
1.89636
1.92182
1.92149
1.90507
1.83433
3.84326
22.4525
1.0962
1.11203
1.13926
1.15637
1.16391
1.16526
1.15042
1.1199
1.10408
1.10336
1.10914
1.1324
1.17403
1.20264
1.21248
1.21681
1.2163
1.19814
1.16447
1.14899
1.14956
1.1556
1.16742
1.19521
1.2357
1.26031
1.27055
1.27682
1.28109
1.27816
1.26804
1.26289
1.26236
1.26336
1.2656
1.26976
1.27582
1.29391
1.32042
1.33863
1.34968
1.35702
1.36281
1.36795
1.36095
1.33957
1.33162
1.33474
1.34104
1.35156
1.37958
1.40988
1.42423
1.4313
1.43386
1.43413
1.43022
1.41458
1.40305
1.40503
1.41237
1.42083
1.43247
1.46235
1.49953
1.51987
1.53065
1.54124
1.55175
1.55587
1.53403
1.50746
1.49753
1.49799
1.50663
1.51862
1.55332
1.61694
1.66374
1.68948
1.70766
1.72196
1.718
1.69408
1.66715
1.64934
1.64433
1.65103
1.66709
1.70321
1.76352
1.81583
1.85076
1.87456
1.88435
1.88435
1.85598
3.83052
22.5307
1.09991
1.1349
1.15681
1.16538
1.16919
1.16062
1.12487
1.0974
1.09134
1.09337
1.10029
1.13358
1.18678
1.21017
1.21765
1.22215
1.22107
1.18942
1.1478
1.13765
1.13974
1.1446
1.15506
1.17943
1.22492
1.25652
1.26908
1.27519
1.27822
1.27856
1.27351
1.26482
1.26124
1.26073
1.26231
1.26573
1.2703
1.27972
1.30717
1.33168
1.34369
1.35062
1.35566
1.35986
1.35522
1.33448
1.32427
1.32704
1.33354
1.34396
1.36927
1.39846
1.41329
1.42012
1.42362
1.42895
1.43393
1.4254
1.41271
1.4096
1.41065
1.41231
1.41755
1.43005
1.46783
1.50823
1.53118
1.54569
1.55606
1.56477
1.55823
1.52598
1.50339
1.49874
1.50357
1.51392
1.52872
1.57029
1.63073
1.67172
1.69564
1.71338
1.72435
1.72146
1.70268
1.67524
1.65393
1.64717
1.65342
1.67168
1.71334
1.76978
1.81028
1.83473
1.84675
1.85513
1.86121
3.8584
22.5999
1.12245
1.15796
1.16665
1.17085
1.16355
1.12688
1.09637
1.08838
1.08952
1.09289
1.10725
1.15473
1.19562
1.21147
1.21892
1.22264
1.20749
1.16858
1.14443
1.13932
1.14145
1.14755
1.16183
1.18539
1.21495
1.24378
1.25926
1.26581
1.26823
1.27192
1.27572
1.27203
1.26438
1.26203
1.26272
1.26409
1.26703
1.27228
1.2927
1.32293
1.3377
1.34525
1.35101
1.35592
1.35456
1.33574
1.32292
1.32278
1.32761
1.33439
1.35089
1.38166
1.40309
1.41356
1.42173
1.43172
1.43906
1.44111
1.42712
1.41209
1.40441
1.40152
1.40527
1.41376
1.43531
1.48727
1.52977
1.54992
1.56125
1.57018
1.57535
1.55511
1.52106
1.50695
1.50738
1.51403
1.52477
1.54149
1.58247
1.63449
1.67302
1.69863
1.71699
1.72623
1.72418
1.71142
1.68425
1.65866
1.64946
1.65547
1.67444
1.7162
1.76663
1.79857
1.8145
1.82347
1.84573
3.90828
22.629
1.14952
1.16706
1.17101
1.16798
1.12945
1.09322
1.08453
1.08635
1.0902
1.09997
1.1387
1.18267
1.20174
1.21156
1.21615
1.20385
1.17511
1.15653
1.14909
1.14735
1.15175
1.16695
1.18292
1.19107
1.20128
1.22056
1.23894
1.25006
1.25936
1.26941
1.27683
1.28216
1.27685
1.26781
1.26261
1.25883
1.25851
1.2621
1.27673
1.31235
1.33446
1.34443
1.35124
1.35701
1.3585
1.34263
1.32502
1.31982
1.32128
1.32653
1.33496
1.35865
1.39234
1.41369
1.42646
1.43554
1.44242
1.44762
1.44244
1.41934
1.40239
1.39641
1.3984
1.40608
1.41773
1.45312
1.51259
1.54834
1.5642
1.57479
1.58347
1.58082
1.54894
1.52374
1.51806
1.52193
1.52807
1.53543
1.54719
1.57736
1.62722
1.66981
1.69805
1.71771
1.72884
1.72877
1.7169
1.68758
1.65896
1.64927
1.65609
1.67363
1.71293
1.75631
1.78035
1.79046
1.81346
3.96611
22.6372
1.16615
1.17749
1.16868
1.1339
1.09294
1.0796
1.08109
1.08499
1.09414
1.12699
1.1712
1.19606
1.20682
1.20875
1.19442
1.17149
1.16143
1.15958
1.1593
1.16487
1.17987
1.19274
1.19619
1.19275
1.18958
1.19642
1.22033
1.24471
1.26195
1.27546
1.28574
1.29312
1.29397
1.27573
1.25648
1.24707
1.24766
1.25252
1.26646
1.30377
1.33392
1.34704
1.35489
1.36078
1.36313
1.35362
1.33025
1.31826
1.31736
1.32165
1.32858
1.34022
1.3739
1.41023
1.42849
1.4366
1.44142
1.44814
1.454
1.44203
1.41352
1.39905
1.3968
1.40263
1.41092
1.42383
1.47096
1.53091
1.55925
1.57078
1.57924
1.58632
1.58051
1.55728
1.53949
1.5324
1.5296
1.52912
1.53358
1.54438
1.5729
1.62402
1.6698
1.69963
1.71997
1.73069
1.72861
1.71409
1.68399
1.65695
1.64916
1.65482
1.66917
1.70538
1.73936
1.75446
1.77856
4.03704
22.6508
1.17093
1.18012
1.1461
1.10244
1.08437
1.08119
1.08318
1.09427
1.1269
1.15827
1.17773
1.19184
1.19527
1.18403
1.16603
1.16146
1.16561
1.16977
1.18199
1.1974
1.20691
1.20906
1.19817
1.18408
1.18288
1.18703
1.20687
1.24586
1.27468
1.2898
1.29759
1.30291
1.30374
1.28097
1.24696
1.23854
1.24107
1.24656
1.26027
1.2986
1.33538
1.35117
1.3585
1.36148
1.36094
1.3553
1.33872
1.32292
1.31891
1.32132
1.32692
1.33343
1.34728
1.38737
1.421
1.4362
1.4461
1.45514
1.46324
1.46617
1.44182
1.41179
1.40047
1.3989
1.40286
1.41076
1.42843
1.48441
1.53803
1.56144
1.57502
1.5876
1.59688
1.59156
1.56863
1.54673
1.53315
1.52774
1.52876
1.53383
1.54376
1.57338
1.62749
1.67183
1.6993
1.7188
1.72809
1.72275
1.70677
1.67871
1.65423
1.64567
1.64806
1.65959
1.69106
1.71634
1.74409
4.11971
22.6707
1.16272
1.14681
1.1114
1.0956
1.09017
1.09221
1.10699
1.13835
1.15914
1.16527
1.16719
1.16258
1.15856
1.16066
1.16385
1.16733
1.1778
1.20206
1.2196
1.22718
1.22584
1.20927
1.1892
1.18345
1.18538
1.18951
1.20496
1.2531
1.28923
1.3011
1.30728
1.30973
1.30325
1.27534
1.24799
1.24074
1.24339
1.24974
1.26456
1.2946
1.33084
1.34992
1.35672
1.35575
1.3551
1.35776
1.35437
1.33803
1.32821
1.32693
1.32684
1.32747
1.33247
1.35042
1.39707
1.43321
1.45107
1.4639
1.47221
1.47767
1.46956
1.43226
1.40405
1.39696
1.39958
1.40643
1.41566
1.43577
1.49065
1.54165
1.56939
1.58432
1.5946
1.60156
1.60006
1.5831
1.55666
1.53523
1.52605
1.52582
1.53129
1.54498
1.58391
1.63717
1.67498
1.69799
1.71429
1.71947
1.71424
1.69973
1.67527
1.65011
1.63577
1.63364
1.64405
1.67258
1.70772
4.20447
22.7024
1.12558
1.10653
1.10149
1.10465
1.11092
1.132
1.15613
1.16894
1.17246
1.16243
1.13464
1.12152
1.1249
1.14253
1.16509
1.19075
1.22111
1.23973
1.24772
1.24896
1.23141
1.19903
1.18535
1.18551
1.18888
1.19506
1.22049
1.26647
1.29397
1.30528
1.30974
1.30309
1.28934
1.2752
1.25881
1.25192
1.2558
1.268
1.27832
1.28613
1.30926
1.33306
1.34313
1.34668
1.35071
1.35768
1.36369
1.35939
1.34163
1.33048
1.32426
1.32133
1.32479
1.33243
1.36068
1.41727
1.45412
1.46873
1.47667
1.48246
1.48504
1.46428
1.42582
1.40765
1.40788
1.41518
1.42064
1.42507
1.43755
1.48185
1.53446
1.56642
1.58558
1.59979
1.61056
1.61244
1.59111
1.55634
1.52995
1.52165
1.52513
1.53536
1.55588
1.59739
1.64556
1.67594
1.69293
1.70311
1.70927
1.70723
1.69782
1.67576
1.64463
1.62244
1.61405
1.62339
1.66246
4.27724
22.7573
1.09372
1.09689
1.10372
1.12533
1.16279
1.18297
1.18894
1.18748
1.17168
1.13241
1.10574
1.10127
1.10519
1.12169
1.16978
1.22999
1.25802
1.26708
1.27069
1.26333
1.23058
1.19842
1.18963
1.19047
1.1959
1.21355
1.23903
1.26713
1.28964
1.29881
1.29532
1.28519
1.28421
1.2841
1.27912
1.27601
1.27896
1.28465
1.28401
1.27956
1.28124
1.30017
1.32783
1.34294
1.35249
1.3611
1.36893
1.37394
1.36331
1.33894
1.32437
1.32017
1.32349
1.33085
1.34067
1.37856
1.438
1.46617
1.47494
1.48026
1.48671
1.49119
1.47112
1.44013
1.42626
1.42198
1.41911
1.41908
1.42342
1.43463
1.47415
1.53642
1.57816
1.59583
1.60623
1.61185
1.61062
1.59285
1.558
1.53164
1.52503
1.53086
1.54591
1.56631
1.60369
1.64529
1.66956
1.68286
1.69365
1.70402
1.70791
1.69971
1.67349
1.63368
1.60605
1.58722
1.6018
4.31038
22.8334
1.07013
1.09196
1.12847
1.1757
1.20249
1.21128
1.21404
1.19899
1.14731
1.10485
1.09357
1.09473
1.09892
1.11532
1.18559
1.25048
1.26898
1.27675
1.27658
1.25717
1.22515
1.2054
1.19903
1.202
1.21599
1.23072
1.24089
1.25369
1.26489
1.27024
1.27056
1.27382
1.28339
1.29631
1.30595
1.30457
1.29481
1.28686
1.27514
1.26325
1.26145
1.26982
1.30452
1.33943
1.35722
1.36908
1.3776
1.38329
1.38363
1.36106
1.33548
1.328
1.33081
1.33667
1.34289
1.35281
1.39214
1.44611
1.47101
1.48419
1.49595
1.50299
1.5049
1.48393
1.4483
1.4261
1.4197
1.42008
1.42262
1.42691
1.43605
1.46892
1.53287
1.57497
1.59244
1.603
1.60991
1.60992
1.59534
1.56219
1.53864
1.53385
1.54303
1.55576
1.5689
1.60112
1.63812
1.66229
1.67847
1.69387
1.70717
1.70474
1.69283
1.6581
1.61523
1.57997
1.54954
4.27759
22.9149
1.05582
1.10541
1.17535
1.20482
1.2139
1.2181
1.21551
1.17802
1.1232
1.09872
1.09535
1.09698
1.10469
1.1456
1.21166
1.2503
1.26771
1.27413
1.26192
1.23657
1.22275
1.21655
1.21578
1.22201
1.23194
1.23658
1.23439
1.22673
1.23039
1.24852
1.26569
1.27964
1.2972
1.31496
1.32383
1.32509
1.30529
1.27437
1.25285
1.24742
1.25072
1.25797
1.28047
1.32976
1.36525
1.381
1.38845
1.39185
1.39482
1.38646
1.35715
1.33851
1.33591
1.33886
1.3433
1.3499
1.36123
1.40463
1.46259
1.49098
1.50082
1.50688
1.51248
1.51315
1.4889
1.45494
1.43723
1.4313
1.42853
1.42717
1.42983
1.43747
1.4686
1.53304
1.5773
1.59663
1.60685
1.60909
1.60812
1.59786
1.57079
1.54971
1.54436
1.54831
1.55596
1.56621
1.59465
1.63423
1.66136
1.68032
1.69412
1.69761
1.69175
1.67292
1.63524
1.58733
1.53658
4.18071
22.9957
1.05522
1.13832
1.19747
1.21211
1.21867
1.21884
1.18853
1.13768
1.1103
1.10217
1.1015
1.10782
1.14216
1.18815
1.21889
1.23983
1.2492
1.24212
1.22416
1.22111
1.22602
1.2304
1.23313
1.2349
1.237
1.2287
1.21032
1.20515
1.20938
1.22941
1.26646
1.29678
1.31535
1.32436
1.33008
1.3323
1.30654
1.25943
1.2422
1.24221
1.2476
1.25658
1.27338
1.31652
1.36681
1.38689
1.39334
1.39698
1.39979
1.40162
1.38842
1.36196
1.34943
1.34947
1.35574
1.3635
1.36885
1.37686
1.41327
1.46877
1.49418
1.50368
1.50917
1.51309
1.51429
1.50078
1.47491
1.45251
1.43849
1.43263
1.43226
1.43515
1.4417
1.47092
1.53249
1.57486
1.59437
1.60407
1.60878
1.61092
1.60414
1.58095
1.55951
1.54864
1.54642
1.54978
1.55956
1.5911
1.63272
1.66062
1.67705
1.68354
1.67902
1.67265
1.65214
1.60943
1.54711
4.05685
23.0842
1.08068
1.15883
1.1974
1.21212
1.21639
1.19654
1.14717
1.11562
1.10731
1.10773
1.11597
1.15344
1.18753
1.20029
1.20971
1.21555
1.21096
1.20443
1.20499
1.21312
1.23002
1.24125
1.24522
1.24087
1.22554
1.20509
1.19568
1.19744
1.20244
1.21728
1.26686
1.30818
1.32278
1.32985
1.32954
1.3123
1.28374
1.25817
1.24546
1.24538
1.25518
1.27639
1.2944
1.30952
1.34129
1.37368
1.38641
1.38994
1.39093
1.39975
1.40995
1.40851
1.38675
1.37161
1.36697
1.36553
1.36637
1.3691
1.37493
1.40574
1.45599
1.4845
1.50064
1.5144
1.52551
1.5317
1.52302
1.49439
1.46297
1.44305
1.43506
1.43288
1.43519
1.44383
1.47537
1.53143
1.57254
1.59378
1.60423
1.61139
1.61546
1.61094
1.59109
1.56716
1.54932
1.53932
1.53972
1.55142
1.58856
1.63136
1.65704
1.67019
1.66783
1.66416
1.65852
1.63447
1.58957
3.93825
23.1831
1.10804
1.15683
1.18125
1.18885
1.17977
1.15239
1.12951
1.11691
1.11493
1.12595
1.1651
1.19745
1.20725
1.20513
1.18759
1.1725
1.17213
1.18343
1.20025
1.21917
1.23513
1.24439
1.24962
1.24677
1.21938
1.19712
1.19259
1.19505
1.20032
1.22132
1.26864
1.30711
1.32222
1.325
1.30767
1.29102
1.28139
1.26911
1.26183
1.26711
1.28369
1.29839
1.30537
1.30369
1.30344
1.32285
1.35589
1.37465
1.38949
1.40892
1.42808
1.43813
1.4302
1.40027
1.3765
1.36503
1.35802
1.35528
1.35762
1.36498
1.39226
1.44637
1.49395
1.51892
1.52984
1.53789
1.54407
1.5351
1.50353
1.46344
1.43633
1.42926
1.43136
1.43906
1.45036
1.47727
1.52962
1.57286
1.59548
1.60656
1.6142
1.62002
1.6199
1.60005
1.57052
1.5416
1.52948
1.53253
1.54657
1.58697
1.62989
1.65322
1.65931
1.65467
1.65447
1.64641
1.63363
3.87588
23.2887
1.11493
1.1364
1.14498
1.14587
1.13988
1.13143
1.13034
1.1341
1.14782
1.17935
1.20226
1.20932
1.20867
1.1872
1.15457
1.14335
1.14636
1.16633
1.20088
1.22581
1.23722
1.24335
1.24815
1.24561
1.22412
1.20257
1.19706
1.20093
1.21424
1.23063
1.25521
1.28492
1.29788
1.29438
1.2826
1.28359
1.28898
1.29508
1.30454
1.30799
1.30753
1.30775
1.30117
1.28445
1.27376
1.27842
1.30762
1.35525
1.3956
1.42754
1.44731
1.45589
1.45804
1.438
1.39355
1.36101
1.34787
1.34581
1.34984
1.35609
1.36436
1.3904
1.44953
1.50033
1.52341
1.53389
1.53944
1.53895
1.5343
1.5082
1.465
1.43929
1.4332
1.4369
1.44683
1.45573
1.47804
1.52921
1.57486
1.59846
1.61009
1.61826
1.62765
1.62539
1.60707
1.56885
1.53795
1.528
1.52922
1.54227
1.58456
1.62568
1.64531
1.64656
1.64566
1.64175
1.65598
3.87659
23.3962
1.11229
1.10432
1.0994
1.10815
1.12268
1.13107
1.1384
1.16775
1.2055
1.22314
1.22805
1.22089
1.18819
1.14625
1.12816
1.12684
1.13114
1.14974
1.19577
1.22834
1.24069
1.24677
1.25072
1.2491
1.23524
1.2208
1.2164
1.22052
1.22606
1.22934
1.23106
1.2376
1.25933
1.27663
1.28393
1.28957
1.30342
1.33282
1.35002
1.35055
1.33447
1.31099
1.2814
1.25899
1.25426
1.25932
1.27188
1.31635
1.39155
1.4371
1.45339
1.46095
1.46457
1.45537
1.42131
1.37648
1.35321
1.34792
1.35088
1.35721
1.36507
1.37564
1.39415
1.4387
1.48818
1.51422
1.52544
1.53245
1.53371
1.53133
1.5108
1.47179
1.44802
1.44202
1.44585
1.452
1.45822
1.47696
1.52966
1.57933
1.60368
1.61662
1.62715
1.63267
1.62989
1.6095
1.56492
1.53517
1.52527
1.52436
1.53723
1.58316
1.62087
1.63309
1.63324
1.62817
1.66071
3.92395
23.5074
1.09859
1.07842
1.07548
1.0829
1.10549
1.13762
1.18105
1.22217
1.23929
1.2445
1.24372
1.21689
1.15577
1.12033
1.11313
1.11452
1.11824
1.13338
1.18159
1.22711
1.24604
1.2551
1.2615
1.26502
1.25806
1.2459
1.23642
1.23256
1.22861
1.21634
1.20559
1.20574
1.22054
1.25662
1.28734
1.31231
1.34411
1.3673
1.37579
1.37563
1.35769
1.31251
1.26909
1.25168
1.25053
1.25531
1.26453
1.29069
1.36403
1.42961
1.44891
1.45179
1.44089
1.42774
1.42058
1.40949
1.38705
1.37076
1.36595
1.36802
1.37143
1.37395
1.37718
1.38487
1.42242
1.48051
1.51305
1.52638
1.53068
1.53218
1.53224
1.5147
1.48073
1.45888
1.45169
1.45179
1.45305
1.45746
1.47751
1.53778
1.58774
1.61176
1.625
1.63333
1.63345
1.62984
1.60305
1.55832
1.53015
1.51969
1.51858
1.53606
1.58095
1.61028
1.61707
1.61286
1.65462
3.99259
23.6045
1.08758
1.07045
1.07074
1.07403
1.08796
1.15177
1.22748
1.25274
1.26098
1.26098
1.23961
1.18223
1.13424
1.11405
1.10954
1.11044
1.11653
1.13028
1.16556
1.22443
1.25638
1.26911
1.27685
1.27795
1.27559
1.26652
1.25054
1.23211
1.21355
1.20013
1.1937
1.19452
1.1993
1.22177
1.27968
1.33812
1.37437
1.38846
1.39293
1.39161
1.37095
1.32228
1.27716
1.25926
1.25995
1.27209
1.29405
1.31735
1.34091
1.37725
1.40529
1.41426
1.41758
1.42206
1.4285
1.43373
1.43349
1.41718
1.39681
1.38296
1.37494
1.3688
1.36641
1.36877
1.37787
1.41951
1.47973
1.51352
1.5281
1.53216
1.53291
1.53205
1.51692
1.49078
1.47351
1.4648
1.45955
1.45781
1.46106
1.48237
1.54332
1.59153
1.615
1.62833
1.6322
1.63188
1.62645
1.59657
1.55618
1.52612
1.5141
1.51354
1.53181
1.57137
1.59408
1.59736
1.646
4.06573
23.6767
1.08547
1.07212
1.07377
1.07723
1.10258
1.18488
1.23919
1.25717
1.26502
1.25754
1.20621
1.15415
1.12787
1.1165
1.11228
1.11374
1.12425
1.14624
1.1753
1.21755
1.25772
1.27425
1.27931
1.28062
1.28203
1.28071
1.2643
1.23394
1.21446
1.20311
1.19743
1.19967
1.20859
1.22425
1.26345
1.3376
1.37858
1.39069
1.39053
1.37513
1.356
1.33724
1.31134
1.29612
1.29804
1.30814
1.31759
1.32302
1.3232
1.32013
1.32959
1.35823
1.39429
1.42155
1.43864
1.45199
1.46084
1.46414
1.44512
1.4079
1.3784
1.3653
1.36231
1.36323
1.37052
1.38746
1.42778
1.48135
1.51105
1.5221
1.52413
1.52903
1.53231
1.52865
1.5139
1.49289
1.47198
1.4558
1.44919
1.45321
1.48219
1.54404
1.58894
1.61092
1.62269
1.62581
1.62833
1.62274
1.598
1.55716
1.52132
1.50682
1.50561
1.52098
1.55752
1.57726
1.63288
4.13823
23.6892
1.08877
1.07779
1.07943
1.09552
1.14702
1.20033
1.23551
1.25055
1.24637
1.20673
1.1665
1.14315
1.13006
1.12341
1.12284
1.13161
1.15637
1.18049
1.19468
1.20351
1.22807
1.25501
1.2653
1.26794
1.2665
1.26599
1.26427
1.25172
1.22894
1.21584
1.21415
1.22114
1.23304
1.24527
1.26262
1.30135
1.34627
1.36444
1.36507
1.36217
1.35987
1.35664
1.35701
1.3534
1.34383
1.33554
1.32853
1.3149
1.29436
1.28611
1.28943
1.30281
1.34364
1.4066
1.44898
1.46686
1.47626
1.48102
1.47413
1.44636
1.40083
1.37154
1.36316
1.36393
1.37411
1.39117
1.40354
1.42808
1.47097
1.49924
1.5127
1.52275
1.53695
1.54954
1.54723
1.52663
1.49333
1.46103
1.44484
1.44205
1.44836
1.4781
1.53756
1.58267
1.60607
1.61689
1.62134
1.62581
1.62385
1.60394
1.5601
1.51748
1.49764
1.49163
1.50539
1.54153
1.6083
4.21218
23.66
1.09505
1.08863
1.10247
1.14507
1.17318
1.19046
1.2056
1.20301
1.18047
1.16055
1.14957
1.14376
1.13925
1.13804
1.14688
1.17238
1.19723
1.20922
1.21059
1.19882
1.19001
1.20027
1.23131
1.2513
1.25955
1.26408
1.26888
1.27392
1.26844
1.24885
1.2384
1.23911
1.24494
1.2518
1.25834
1.26712
1.28651
1.31816
1.34269
1.35721
1.37001
1.38732
1.39654
1.39601
1.38496
1.36242
1.33043
1.29533
1.27549
1.272
1.27607
1.2821
1.29915
1.36407
1.44087
1.46983
1.47815
1.47803
1.46646
1.45158
1.4338
1.40192
1.38164
1.37867
1.38822
1.39718
1.39799
1.39971
1.41513
1.45889
1.49796
1.52146
1.53854
1.55146
1.55948
1.55335
1.52951
1.48792
1.45388
1.44054
1.43961
1.44529
1.46928
1.52622
1.57501
1.60353
1.61617
1.62308
1.62629
1.62559
1.60645
1.5608
1.50844
1.48153
1.47425
1.48722
1.56464
4.27692
23.633
1.10493
1.11059
1.15242
1.18011
1.18679
1.18159
1.15284
1.13149
1.13082
1.14024
1.14662
1.14912
1.1539
1.17015
1.19834
1.21905
1.22747
1.22744
1.20955
1.17441
1.15704
1.1583
1.183
1.22951
1.2555
1.2683
1.28234
1.29566
1.30098
1.28874
1.26461
1.25358
1.25342
1.2566
1.25554
1.25041
1.25263
1.26834
1.3036
1.34497
1.38095
1.40398
1.4161
1.41946
1.4173
1.39808
1.3439
1.29605
1.27733
1.27488
1.27935
1.28977
1.31632
1.34506
1.38342
1.42954
1.45047
1.4544
1.44932
1.44516
1.44912
1.45114
1.43727
1.42134
1.4119
1.40409
1.39504
1.3876
1.39049
1.40862
1.46094
1.50946
1.53418
1.54727
1.55591
1.55863
1.55467
1.53032
1.48341
1.45245
1.44081
1.43904
1.44396
1.4625
1.51733
1.57281
1.60194
1.61567
1.62325
1.62676
1.62173
1.60243
1.55459
1.49603
1.46387
1.45087
1.5063
4.30616
23.6328
1.12408
1.15591
1.18616
1.19332
1.18769
1.14376
1.09877
1.0874
1.09599
1.12121
1.14356
1.16065
1.18788
1.22926
1.25519
1.26164
1.25552
1.22807
1.17998
1.1519
1.14659
1.14963
1.15804
1.19111
1.24305
1.28009
1.30377
1.31617
1.32125
1.31926
1.30142
1.28045
1.27001
1.264
1.25367
1.2446
1.244
1.24931
1.2622
1.30092
1.36427
1.40362
1.41464
1.41657
1.40936
1.38761
1.35808
1.3251
1.30268
1.29813
1.30347
1.31721
1.33275
1.33695
1.33816
1.34791
1.38486
1.42211
1.43994
1.44964
1.4652
1.48485
1.49433
1.48149
1.44604
1.41528
1.39599
1.38588
1.38359
1.38883
1.41463
1.47658
1.5219
1.54183
1.55312
1.56097
1.56166
1.55484
1.5265
1.48752
1.45871
1.44372
1.43983
1.44225
1.45647
1.50906
1.56893
1.60082
1.61498
1.62223
1.62204
1.60857
1.58831
1.54028
1.48459
1.43849
1.46479
4.2702
23.6626
1.16938
1.20411
1.20866
1.19809
1.14662
1.08818
1.06361
1.06092
1.06749
1.09204
1.13426
1.18785
1.2516
1.28813
1.29684
1.29164
1.26299
1.20038
1.15477
1.14109
1.14148
1.14587
1.15327
1.16927
1.21861
1.28235
1.31073
1.32171
1.32852
1.33338
1.33358
1.32089
1.30023
1.27843
1.25754
1.24541
1.24121
1.24286
1.24822
1.25915
1.30336
1.36232
1.38558
1.39066
1.38997
1.38042
1.37421
1.3694
1.35791
1.34503
1.33899
1.33891
1.33929
1.32722
1.30809
1.30378
1.31516
1.36633
1.43025
1.47066
1.49733
1.51378
1.52176
1.52117
1.49201
1.44142
1.40574
1.39014
1.38849
1.39403
1.40207
1.43159
1.49714
1.53585
1.55032
1.5576
1.55928
1.55867
1.55158
1.52926
1.497
1.46411
1.44323
1.43615
1.43552
1.44568
1.50603
1.57023
1.60191
1.61311
1.61641
1.60376
1.59146
1.57162
1.53011
1.47319
1.45027
4.18257
23.726
1.22103
1.2362
1.22302
1.1667
1.0955
1.06015
1.0511
1.05157
1.05543
1.06644
1.112
1.2304
1.3102
1.32987
1.33453
1.31583
1.25002
1.18336
1.15364
1.14479
1.14485
1.15266
1.17081
1.1885
1.20752
1.24759
1.29393
1.31635
1.32767
1.33882
1.34973
1.35324
1.34124
1.30603
1.26562
1.23956
1.23097
1.23267
1.23823
1.24525
1.26033
1.29636
1.33902
1.36564
1.37797
1.38316
1.39215
1.40151
1.40668
1.40063
1.38178
1.35809
1.3321
1.30655
1.29006
1.28703
1.29104
1.30988
1.38883
1.47472
1.50962
1.5221
1.52579
1.52568
1.51761
1.48133
1.43489
1.41128
1.40633
1.41
1.41668
1.42504
1.45358
1.50603
1.53546
1.54851
1.55657
1.56016
1.5598
1.55241
1.53551
1.50575
1.46605
1.43769
1.42752
1.42568
1.44138
1.50106
1.56292
1.59327
1.60389
1.59715
1.58433
1.57643
1.5597
1.52194
1.48611
4.08493
23.8117
1.25663
1.26165
1.20626
1.12064
1.06704
1.04909
1.04629
1.04765
1.05141
1.06362
1.14392
1.27288
1.32451
1.33897
1.34023
1.30372
1.23847
1.19171
1.16526
1.15761
1.16262
1.17805
1.19077
1.19745
1.2033
1.21147
1.2414
1.28805
1.32212
1.3464
1.36118
1.36649
1.36595
1.33867
1.27796
1.23905
1.23033
1.23254
1.23746
1.24382
1.25316
1.26215
1.27757
1.31226
1.35453
1.38711
1.40761
1.42364
1.4322
1.43652
1.42484
1.38416
1.33467
1.30291
1.28962
1.28766
1.29817
1.32555
1.36005
1.4287
1.49026
1.51237
1.51474
1.5068
1.50167
1.49629
1.48272
1.46049
1.44102
1.43091
1.42384
1.41983
1.42435
1.44976
1.49556
1.52759
1.54761
1.55837
1.56229
1.56263
1.55479
1.54035
1.51243
1.46532
1.43219
1.41869
1.41622
1.43151
1.48398
1.5479
1.5807
1.58961
1.57978
1.57171
1.56756
1.5513
1.53978
4.0399
23.8977
1.27713
1.26857
1.16769
1.09339
1.06027
1.04937
1.04743
1.04905
1.06045
1.11494
1.19991
1.26962
1.31365
1.3274
1.30942
1.26477
1.23564
1.2142
1.19646
1.18858
1.19037
1.19468
1.19735
1.19849
1.19847
1.20183
1.21032
1.24147
1.30935
1.35088
1.36241
1.36377
1.34573
1.31853
1.29291
1.26202
1.24268
1.23943
1.2431
1.24888
1.25529
1.26
1.25961
1.26545
1.29652
1.36146
1.4087
1.4274
1.43723
1.44473
1.44356
1.41938
1.36372
1.31938
1.30399
1.30724
1.33193
1.35085
1.35603
1.3648
1.40694
1.45539
1.47377
1.48011
1.48769
1.5049
1.51955
1.51365
1.4859
1.45291
1.42754
1.41306
1.40977
1.41581
1.43816
1.48445
1.52578
1.55066
1.56117
1.56465
1.56198
1.5509
1.5395
1.5141
1.46164
1.4239
1.40862
1.4099
1.41935
1.4674
1.53698
1.57237
1.57734
1.56947
1.56666
1.55651
1.57669
4.05574
23.9825
1.27323
1.22728
1.13507
1.08857
1.06426
1.05442
1.05355
1.06535
1.12257
1.18396
1.21589
1.24158
1.26364
1.26739
1.25591
1.25032
1.24703
1.24171
1.23543
1.22675
1.21633
1.20527
1.1956
1.19116
1.19352
1.20007
1.21007
1.23095
1.27264
1.32067
1.33602
1.32876
1.31655
1.30922
1.3036
1.29735
1.28267
1.26987
1.26704
1.26962
1.27105
1.26673
1.26023
1.25853
1.26227
1.29684
1.37531
1.41927
1.43213
1.43428
1.42179
1.41252
1.3999
1.37131
1.35348
1.35462
1.36061
1.3616
1.35056
1.33232
1.33333
1.37546
1.43276
1.46541
1.49053
1.52176
1.53982
1.54254
1.52707
1.48303
1.43446
1.40811
1.40294
1.40741
1.41384
1.43473
1.48665
1.53115
1.5529
1.56059
1.56054
1.54801
1.53905
1.53664
1.51416
1.45907
1.42003
1.40527
1.40634
1.41084
1.45968
1.53263
1.56581
1.56265
1.55784
1.54909
1.59446
4.12498
24.0698
1.22239
1.1679
1.12818
1.09683
1.07814
1.07243
1.07911
1.1257
1.18134
1.20062
1.20685
1.21142
1.20331
1.20312
1.22026
1.24467
1.25884
1.26771
1.272
1.2659
1.24722
1.21968
1.19714
1.191
1.19469
1.20918
1.23866
1.25936
1.26417
1.26039
1.26263
1.27461
1.29191
1.30775
1.31835
1.32596
1.33211
1.32948
1.31669
1.30235
1.28705
1.2725
1.26342
1.25884
1.25888
1.26553
1.30217
1.36886
1.40497
1.41481
1.4144
1.41654
1.42545
1.43211
1.42327
1.40427
1.38098
1.35342
1.32609
1.30923
1.30828
1.31956
1.36776
1.44145
1.49919
1.53057
1.54407
1.5473
1.53887
1.50847
1.45845
1.42089
1.40561
1.40489
1.41086
1.42149
1.44901
1.48789
1.52075
1.54005
1.54525
1.54064
1.5349
1.5365
1.53853
1.51759
1.46513
1.42412
1.40582
1.40213
1.4058
1.45581
1.52587
1.54837
1.54375
1.53587
1.59359
4.22892
24.1609
1.15201
1.13462
1.13472
1.12311
1.10736
1.10458
1.13113
1.18225
1.20349
1.20561
1.19745
1.17168
1.15725
1.16262
1.18509
1.22756
1.26515
1.28187
1.2886
1.28978
1.27974
1.24823
1.21907
1.21248
1.22576
1.25008
1.26716
1.26948
1.24141
1.20328
1.19185
1.20103
1.2385
1.28792
1.32619
1.35766
1.37594
1.38419
1.38179
1.35644
1.31236
1.27778
1.26128
1.2559
1.25533
1.26253
1.27035
1.29212
1.35334
1.40194
1.42381
1.43962
1.45905
1.47282
1.47073
1.44242
1.40056