/*--------------------------------*- C++ -*----------------------------------*\
  =========                 |
  \\      /  F ield         | OpenFOAM: The Open Source CFD Toolbox
   \\    /   O peration     | Website:  https://openfoam.org
    \\  /    A nd           | Version:  12
     \\/     M anipulation  |
\*---------------------------------------------------------------------------*/
FoamFile
{
    format      ascii;
    class       volScalarField;
    location    "4.6";
    object      T;
}
// * * * * * * * * * * * * * * * * * * * * * * * * * * * * * * * * * * * * * //

dimensions      [0 0 0 1 0 0 0];

internalField   nonuniform List<scalar> 
22702
(
1
1
0.960225
1
1.01877
1
1.12037
1
1
0.906663
1.12114
1.12022
1
1.11887
0.968918
1
1
1
1.12079
1
1.11867
1
1.11863
0.89783
1.11955
0.85866
1
1.11976
0.906202
0.893605
1
1.11999
1
1
1
1.11073
1.11864
1.11877
1
1
0.912914
1
1.06272
1
1.11982
1
1
1
1
0.894805
1
0.899326
1
1.12104
1
1.11995
1
1
1
1
0.881463
1
1
0.90317
1
0.891298
1
1
1
0.897373
1
1.11867
1.07574
1
1.11879
1.12523
0.891254
1.12082
0.897958
1
1.12137
0.894849
1.11834
1.11972
1
1
1
1
0.97722
0.902344
1.12021
1
1
0.886872
1
1.11882
0.889499
1
1
1
1
1.06208
1.12084
0.890654
1
1
1.0326
1
0.895494
1
1.12018
1.11984
1
1
0.881908
0.879226
0.904341
1
1
1
1
1
0.973904
1
1.10311
1.01328
1.12063
1
1.11978
1.12082
1.11871
1.12196
1
0.899883
1
0.883372
1
1
1
1
1.11996
1
1
1
1
1.11885
1
1.00746
1
1
1
1
0.891294
1
1.00291
1
0.89862
1
1
1
1.11983
1
1.11829
0.868135
0.872502
1.11915
1.11887
1
1.02281
1.07213
1
1.12002
0.898655
1.11089
1
1
1
1
1.11891
1.09769
1
1.12023
0.898889
1.11981
1
0.896657
1
0.898046
0.858911
0.99994
1
1
1.11962
1
1
1.11856
1
1.11781
1.12022
0.901907
1
1
0.898469
1.11845
1
1
1
1.11846
1
0.895183
1
1
1.11869
1.11866
1.11846
1
1.00001
1
1
1
1.11875
1
0.890411
1.12372
1.11853
1.11801
1
1
1
0.894507
1.11842
1.05885
1
1.1189
0.901138
0.902138
1.11896
1.1185
1
1.12056
0.898922
1.10644
1
1
1
1
1.11862
1
1.0747
1.01187
1
1
1.11841
0.89319
0.93678
1
1.11939
0.878101
1.1195
1
1
1
1
1
1
1
0.895205
0.935292
0.902728
1.11861
1
1
1
1
1.10828
1
0.898261
1
0.891907
0.899273
1.1187
0.892772
1.1187
1
1
1
0.999303
0.898308
0.894087
1
1
0.891291
1
1.12013
0.893412
1
1
1.12208
0.869016
1
1.12071
0.865503
1.11844
1
0.890421
0.999403
1
1
1
0.899564
1
1
1
1
1.0087
1.07579
1
0.899993
1
1
1
1
1
1
1
1.12211
1
1.12054
1
1
1
0.895494
1
1.11881
0.895992
1
1.09605
1
1
1.12103
1
1
1
1.11783
1
1
1.1163
1.12106
1
1.02686
1
1
0.884984
1
1
1
0.882954
1
1
1
1
0.8839
1
1
1
1
1
0.905124
1.00002
1.11847
1
0.999995
1.11884
1.11926
1
1
0.901657
0.942773
1.12006
1
1
1
1.11845
0.893959
1
1.11829
1
1
0.90294
0.901093
1
0.89408
0.897918
1
1
1
1
1
1
1
1.12154
1.034
1.11249
0.904149
0.976407
1.12057
1
1.11895
1.12012
0.900274
0.931636
1
0.89415
1
1.12359
1
1
1
1
1.11846
1
1
1
1
1
1
1
1.04601
1.11938
1
1.11876
1
1
0.897304
1
1
1
1
1.11848
1.09344
1
1
0.895916
1.11855
1.11867
1
1.11868
1.11855
1.11874
1
0.948179
1
1.11885
0.997694
1.11877
1
0.90247
0.999668
1.12058
1
1
1
1
0.894239
1.11851
1.10884
1
1.11935
1.11857
1.12009
1
1.0597
1.11851
1
1
1.08362
1.01885
1.11861
0.977418
1.1186
1
1.11856
1.11858
1.11857
1.11858
1
1.11019
0.976853
0.963324
1
1
1
1
1.11844
1
1
1
1
1
1.12039
1
1
0.998795
1.11864
1.10267
1
1.10208
1.00001
1
1
1.11867
1
0.999319
1.00135
1
1.1187
1
1.11895
1
1
1.09396
1
1.1191
1.00001
1
1.11946
1
1.11852
1
1
1
1.11862
1
1.11834
1
1.11854
1.12044
1.11843
1.12115
1
1.1211
1.12067
1
0.89245
1.1114
1.08768
1
1.11852
1
0.889045
0.862768
1
1
1
1
1
0.892479
1
1.11872
1.03344
1.11865
1
1
1
1
1
1.11852
1
1.11804
1.06964
0.929414
1
1
1.03707
1.03268
1
1
1.04586
1
0.899606
1.11896
1.119
1
1
1
1.11972
1
1.00001
1.11768
1.11847
0.984531
1
1
0.899062
1.11248
1
1
1
1
1
1.11859
1.12087
1
1.1196
1.11838
1.11845
1
1
1
1
0.87454
1.12056
1
1
1.1075
1.11789
1
1.11026
1.11939
1
1
1
1
1
1.11883
1
1
1
1
1.12085
1
1.11532
0.895284
1
0.89107
1
1
1
0.99908
0.893179
0.999743
1
1
1
1.01841
1
1
0.96239
1
1
1
1
1
1
1
0.999999
0.985905
1
1
0.999274
1
0.896598
1
1
1
1
1.08975
1
1
1
1
0.899626
1
1
1.11452
1.12076
1
1
1
0.960891
1
1
1
1
1
1
0.98975
1.00976
1.11871
1
1
1
1.11846
0.969403
1
1
1
1.11922
1.11942
1
1
1
1
1
1
1
1
1
0.896107
1
1
1.11964
0.894498
1
1.11952
1
0.892429
1
1
0.894118
1
1
1
1
1
1
1
1.11403
1.11646
1
1
1
1
1.11045
1
1.04052
0.891989
1
1
1
1
1
1
1
1.01074
1
1
1.06571
1
1
1
1.09942
1
1
1
1
0.893136
1
1
0.893971
0.89382
1
1
1.11878
1
1.00994
1
1
1
1.08081
0.879038
1
0.875915
1
0.926835
1
1
1
1.1193
1
1
1.11907
1
1
1
1.11888
1
1
1.11836
1
1
0.900711
1
1.04092
1
1
1.11999
1.12123
1.08532
1.10927
1
0.903036
1
1
1.1115
1
0.88312
1
1
1
1.11888
1
1
1
1
1.07446
1
1.11064
1.11924
0.892603
1
1
0.8838
0.860725
1
1
1
1.08792
1.08814
1
1
1
1
1
1
1
1.05102
1.12143
1.00123
1
1.11743
0.891842
1
1
1
1.07075
1
1.02575
1
1.11245
1.11747
1
0.902415
1
1.11997
1
1
1.11865
1.10994
1
1.12238
1
0.894172
1
1
1
1.12054
1.1153
1.10557
1
1.11911
1.11811
1
1.11901
1
1.1167
1
0.878676
0.988552
0.893288
1
1
1
1
1
1.1184
1
1.11837
1
1
1
1.11498
1
0.893507
1.1191
1
0.899671
0.887346
0.881705
1
1.06301
1.0137
1.11854
1.11836
1
1
1
1
1.11862
1
1
1.11867
1.11805
1
1.04366
1.00008
1
0.999026
1.11985
0.959383
1
0.95165
0.901806
0.898139
1.00275
1.11868
1.11554
1.02695
1.1189
1.11852
1
1
1.12229
1.11968
1.11942
1.12153
1
1.11827
0.891357
1.11906
1.11888
1.11952
1.11825
0.955722
0.973608
0.986367
1.11893
0.993043
1.1184
1
1
1.11845
1.11851
1
0.89287
1.11887
1.11852
1
1.11847
1.11824
1
1.11846
0.899829
1.11868
1.12237
1.12074
1.1173
1
1
1
1.11859
1.07527
0.909376
1.11835
0.894876
1.11877
1
1
1
1
1.11916
1.11813
1
1
1.11812
0.895888
1.11849
0.898705
1
1.11831
1
0.906096
1.11852
0.913232
1
1.11872
1.1188
1.11819
1
1
1.06178
1.11889
0.894154
1.11857
1
1.11847
0.966129
1.1179
0.896869
1
1.11948
0.894572
1.11816
0.89381
1
1.11887
1
1.11883
1
1.07282
1.1129
1.09924
0.881773
1
1.11867
1
1.11855
1
1.11875
1
1
1.11866
0.994059
1.11949
0.90448
1.10845
1
1.08768
1
1.11911
1.11858
1.11918
1
1.10771
1.11881
1.11253
1.07801
1.11904
1
1.08543
1
1.11876
1
1.02303
1
1.10796
1
1.1185
1.11394
1.11431
1
1.11762
0.853449
1
0.898513
1
1
1
1.12018
1
1.11938
1
1
1
1.11859
1.11416
1.09832
1.11904
1.11819
0.887682
1.12046
1.11841
1
1.1073
1.11847
1.11225
1
1.12011
1.12003
1
1.11909
1.1187
1.11848
1.11895
1
1
1
1.11865
0.895962
1
1.11773
1
1
0.874802
1
1
1.11831
1.11898
1
1.11817
1.11894
1.11878
0.98858
1.11857
1
1.11851
1.1186
1.09934
1
1
1
1.11826
1.11869
1.11852
0.979985
1
1.12109
1.11863
1.11836
1
1.11836
1.11876
1.11877
1.12155
1
1.11793
1.11713
1.10576
1.11926
1.1211
1
1.12005
1.1178
1.11818
1.11919
1.11801
0.86481
1.11866
1.11981
1
1.11917
1.1184
1.11912
1.11909
1
1.11821
1.11809
1
1.11823
1.10036
1
1
1
1.1191
1.11869
1
1
1.06738
1
1.11852
1
1
1.1186
1.11879
1.11842
1.11836
1
1
1
1.08783
1
1.11858
1
1
1.12108
1.1225
1
1.11924
0.877694
1.11842
1.11944
0.917351
1
0.875906
1.10586
1.11796
1.11886
1.11912
0.901665
1.11895
1.1179
0.899739
0.8933
1
1.11841
1.11878
1
1
1.11944
1
1.11879
1
1.10819
1
1.05802
1.11861
1.11861
1.08713
1.10355
1.11871
1.11865
1.11098
1
0.882108
1.11819
1.11882
1.11909
1
1
1
1.12031
1
1.11811
1.11874
0.917924
1
1.11825
0.999983
1
1.00001
1.00001
1.11874
1.11846
0.999581
1
1
1.1186
1.11918
1.11846
1.11804
1.11916
0.889426
1.10184
1
1.11709
1.11852
1.11792
1.11662
1
1.11853
1.1168
1.11895
1
1.11888
1.11869
0.9523
1.11867
1.11918
1
1.11879
0.950152
1.11852
0.952267
1.11871
1
1.11867
1.12361
1.11941
1.11829
1.11853
1.11944
1.11863
1.11921
1
0.973257
1.11859
1.11862
0.958619
1.1185
0.999152
1.07627
1.11875
1.11887
1.11864
1
1.1195
1.0783
1.11781
0.974209
1.11921
1.12074
1
0.969391
1
1.12046
1
1.08608
1
1.11144
0.970811
1
1.11932
1.11737
1
1.11878
1.11848
1.11732
1.11435
1.11583
1
1.12093
1
1
1
0.977855
1.1185
1.11827
1.11937
1.11961
1.11904
1.11995
1.11822
1.1198
0.971024
1.00905
1
1
1.12286
1.11934
1.11843
1.11834
1.00001
1.06336
1
1.11883
1.10976
1
1
0.920735
1.11852
1
1
0.896925
1.11831
1
1.11956
1.11795
1.11864
1.11336
1.11855
1
0.881552
1.03108
1.1185
1.11847
1
1.11839
1.11817
1.05933
1.00297
1.02748
1
1.11889
1.11875
1
1
0.897499
1
1
1.11938
1.11821
1.11949
1.11844
1.11831
1.12064
1.11911
1.1188
1.11862
1
0.998868
1.1188
1.11866
0.999056
1.11786
1.11847
0.892184
0.894119
1.118
1.11573
1
1
1.00051
1.11907
1.11925
1.11834
1
1.11829
1
0.959982
1.11909
1.11635
1
1.05605
1.11872
1
1.12044
1
1.11906
1.08207
1.11907
1
1.11812
1.11819
0.894345
1.11871
1
1.11842
1.12103
1
0.885466
1.11739
1.10085
0.999277
1.11898
1.1185
1
0.995311
1.11987
0.999269
1.11879
1
1
1.11876
1
1.1186
1.11827
0.998923
1.09788
1
1.11874
1
1
1
1
1.11836
1
1
1.12105
1
1.1189
1
1.07742
1.11781
1.11822
1
1
0.996526
1
1.11877
1.11868
1.11869
1.11889
1.11861
1.11894
1.11912
1
1.11937
1.11873
1
1.11899
1.11898
1
1.11886
0.97678
1.01702
1.11797
1.11815
1.11873
1
1.11832
1
1.11875
1.11846
1
1.11842
1
1
1
1
1.11933
0.885413
0.999373
1
1.11923
1.11866
1
1.11826
1
1.00142
0.883171
1.11878
0.999889
1
1.11889
0.999519
1.11882
1
0.99993
1
1.11876
1.11888
1.11864
1.11928
0.89062
1.11869
1.11756
1.11879
1.03217
1
1
1.05294
1.11838
0.881124
0.89128
1
1.11859
1.11793
1.11813
1
1
1.11787
1.11868
0.999966
1
1.09057
0.880169
1
1.02238
1.12069
1.11587
0.999493
1.11871
1.12135
1
0.99974
1
1.11854
1.11983
1.049
1
1.1143
1
1.00051
1.11922
0.911579
1.11864
1.11875
0.999106
0.999976
1.10461
1
0.999916
1
1.11833
1
1
0.875481
1.11848
1
1
1
1
1.12092
1.07292
1
1
0.885521
1.11837
1.07493
1
1
1
1.11332
1.11878
1.11969
1
1
1.11918
1
1.11822
1.11871
1
1
1.11913
1.11827
1.11523
1
1
1.11938
1.11908
1
1
1
1.11832
1
1
1
1.11851
1.12028
1.11883
1
1.12097
1.00001
0.901759
1.11874
1.11874
1
1.12037
1.1143
1.12169
1
1
1.11847
1
1.06885
1.11862
1
0.893012
1
1.11861
1
1
1.11733
1
1
1
1.03953
1.11801
0.900696
1
1.11889
1
1
1.11852
1
1.11879
1
1
1.11876
1.11851
1
1.00001
1
1
1
1
1
1
1.11697
1.11858
1
1.11947
0.89321
1.11823
1
1.11867
1.11803
1.11897
1.12087
1.12238
1
1
1.11993
1
1.07731
1.12076
1.11831
1
1.11969
1.11794
1
1.11204
1
1.11884
1.0828
1.12001
0.999282
1.11577
1.10915
1.12031
1.11846
1.01041
1.11838
1.12047
1
1.11833
1
1.1184
1
1
1
1
0.998783
1.11852
1.11804
1.1016
1
1.11844
1
1
1
0.895355
1
1.11464
1
1.10937
1.11571
1
1
1
1.10877
1.12096
1
1
1.11872
0.885851
1.01896
1
1.11981
1.11864
1.10937
1.11497
1.11854
1
1.11802
1
1
1
1
1.11813
1.118
1
1.11278
1.01568
1.1185
1.11132
1
1
1.112
1
1
0.897587
1.08544
1
1
1.1205
1
1.12075
1.1078
1
1.10835
0.888088
1.11875
1.11789
1.11877
1
0.902142
1
1
1
1.118
1.10419
1
1.12066
1.11852
1
1.11847
1
1
1
1
1.11847
0.999816
1
1.11866
1
1
1.11905
1.11848
1
1.11961
1.0241
1.00001
1
1.11796
1
1.119
1
1.00348
1.11869
1
1.11804
1
1
1.03923
1.1182
1
1
1
1
1
0.998856
0.884514
0.88178
1.00596
1
1.00728
1
1.00642
1
1.11859
1
1.07294
1
1.11844
1
1
1
1.11828
1
1.09073
1.11791
1
1.06516
1.11932
1
1
1.11965
1.11785
1
1
1.0155
0.885002
1
1.11806
1
1
1
1
1.02042
1.11803
1
1
1
0.896303
1
1.11869
1.11916
1.12114
1
1
1
1
1.05999
1.11945
1
1
1
1.11859
1.11845
1.01555
1
1
1
1.11876
1.11846
1
0.888028
1.11885
1.11876
1.11833
1.11905
1.11969
1
1
1.11732
1.11808
1.11819
0.900373
1.01126
1.1186
1
1
1
1
1
1.11845
0.889345
1
1
1.11841
1.05696
1
1.11855
1
1
1
0.901973
1
1
1.03321
1.11888
1.11846
1
1.11967
1.11807
1
1.02033
1
1.11923
1
1.11872
0.885772
1
1
1
1
1.11827
1.00002
1
1
1
1.11674
1
1
1
1
1.11798
0.902507
1.09919
1.11861
1
1.11881
1
1
1
0.999182
1
1.1199
1
0.935071
1
1
1.00001
1.11879
0.888871
1
1.11942
1
1.11906
1.11841
0.895096
1
1
1.11765
1
1
0.897656
1
1.11946
1
1.1137
0.999804
1.11838
1
1
1
1
1.1204
1
1
1.11854
1
1
1
1
1
1
1
1
1.08006
1
1.04233
1.11815
1
1
1
0.896744
1
1
1
1
1.11908
1.11826
1.01907
1
1
1.11872
1
1
1.11802
1
1
1
1
1
1
1.11845
0.926476
1.11862
1.11862
0.999173
1
1
1
1.06874
1
1
1.11905
1.11842
1
1
1
1
0.892188
1
1
1
1.07806
1
1.11872
1.11939
1
1.11877
1
1
1
1.07104
1
1.12071
1
1.11845
1
1
0.99892
1.1185
1
1
1
1
1
1.1178
1.00001
1
0.898062
1.11797
0.885047
1
1.11938
1
0.99888
1
1.11947
1.11901
1
1.12071
0.969728
1.11866
1.11777
1.00001
1
1
0.894859
1
1
1
1.11851
1.07249
1.12034
1
1
1
1
0.999071
1.11915
1
0.886541
1
1
1
1
1
1
1
1.12089
1.11832
1.12006
1
1
0.99912
1
0.997046
1
1
1
0.879703
0.994274
1
0.891543
0.898638
1
1.11882
1.11864
1
1.11865
1.1183
0.89054
1.08244
1
1
1
0.886468
1.11871
1
0.888963
1
1.12013
1.0263
1
1
1
1
1.11849
1.1193
1
1
1.11849
1
1
1.12033
1.11866
1
1.10972
1.1185
1.12049
0.994749
1.11924
1.0025
0.887702
1.09309
1.11877
1
1
1
0.874839
1
0.884667
1.12084
0.993699
1.1185
0.98055
1
1.11829
1.06456
1
1
1.11944
1
1.05709
1.11928
1
1
1.11897
1.12117
0.893145
1.07604
0.99997
1
1.07396
1
1.11935
0.98101
1.12109
1.11995
1
1
1
1
1.11593
1
1
1.11775
0.999901
1.1186
1.09808
1.11924
0.895536
1
1
1
1
1.11844
1.00001
1.11821
1
1.11864
1.11857
1.01656
1.12002
1.03904
1.11917
1
1.08377
0.903088
1.11683
1.11864
1.09545
1.02462
1.11915
1.11865
1.1179
1.11872
1
0.978215
1.01798
1
1.11868
1.06031
1.11881
1.00001
1
1
0.902367
1.11842
1.11943
1.10006
1
1.04947
1
1.1185
1.11697
1
1.1194
1.11938
1
1
1
1.11961
1
1.04911
1.11978
1.08616
1
1.12004
1
1
1
1
1
1
1
1
1
1
0.898632
1
1.11088
0.867057
1.0684
0.999584
1.1187
1
1.06508
1
1.0768
1.10379
1
1.00063
1.11806
0.977169
1
1.11878
1.11521
0.985057
1
1.11855
1.11849
1.11959
1
1.1186
1.11844
1.11824
1
1.05853
1
1.00002
1.11864
1
1.1187
1.01859
1.11762
1
1
1.11927
1.11943
0.902998
1
1.11867
1.09268
1.11831
1
1
1.11997
1.1193
0.999506
1
1.10992
0.999148
1.11859
1.00001
1
1
1
1
1.05805
1
1.09194
1.1191
1.09033
1.11932
1
1.00106
1
1
1.12039
1
1.11993
1
1
1
1
1
1
1.01593
1.06445
1
1
0.889323
1
1.11787
0.90098
1.118
1
1.06472
0.999926
1.11876
1.08422
0.890809
1.0705
1.00001
1.1187
1.11832
1
1.07474
1.11765
1.11864
0.999542
1.11992
1.11586
0.88339
1
1
0.9994
1
1.1189
1
0.899037
1.11968
1
1
1.10291
1
1.11909
1
1.11859
1
0.903693
1
1
1.11806
1.11999
1.11725
1
1.11882
1.11837
1.11749
1
1
1.11863
1
0.923565
1
1
1
1.11903
1
1.11833
1.08003
1.11904
1
1.11862
0.999824
1
1
1
1
1
1
0.916625
1
1
1.11858
1
1.11878
1.11775
1
0.886027
0.890419
1
1.11928
1.02224
0.888432
0.882109
1
1.11859
1
1.11787
0.898731
1.0003
1
1
0.999862
1
1
1
0.999975
1.05328
1.11848
1
1
1.11986
1.07302
1
1.1087
1.11856
1.1195
1.04813
1.11963
1
1.11814
1
1.11491
1
1.11988
1.11866
0.999166
1.11921
1.11807
1
1
1
1
1
0.969977
1.11952
1.00001
1.00001
0.904082
0.999994
0.893655
0.904022
1
1.11894
1.11898
1.1188
1
1.11812
1
0.893824
1
1
1.11803
0.945038
1.1183
1
1.11795
1
1.00173
1.11894
1
1
1
1.1184
1
1.11842
0.893341
1
1
1.07311
1
1
1.06442
1
1
1.1187
1
1
1
1
1
1.11579
1.11805
1
1.1192
1.11789
0.890634
1.06084
1.11856
1
1
1.10936
0.99972
1
1
1.1187
1.11945
1.08338
1
1.11956
0.888106
1.11315
0.99994
1
1.11925
1.00001
1.11909
1.1018
1.09335
1
1
1.11839
0.91652
0.890837
1
1.11855
1
1.11813
1
1.07948
1
1
1.11828
1.07986
0.890414
1
0.999501
1
1
1.00779
1.04995
1.11843
1
1.11746
1
1
1
1
1
1
1.01973
0.886706
1
1
1.01167
1
1
1
1
1
1.11937
1
1
1.11841
1.11939
1.08745
1
1
1
0.955676
1.11916
1.08685
1
1
1
1
1.11833
1
1
1
1.11742
1
1
1.08842
1.12243
1.01509
0.928042
1.11827
1.08682
1.11881
1
1.06717
1
1
1
0.91071
1.00065
0.911768
1
0.89744
0.881279
1
0.891423
1
1
1
1.06049
1
1.11955
1.11919
1.0003
1.06175
1.10315
0.890107
0.919974
0.965735
1
1.11858
1.12029
1.11859
1.11866
1.09994
0.967583
1
1.10421
1
1.11368
1
1
0.998993
1.00299
1
1
1
1.11938
1
0.8899
1
1.11898
0.894115
1
1
1.11872
1
1.11845
0.999697
1
1
1.11889
1.10627
1
1.12269
1
1
1.00419
1
1.05736
1
1
0.890928
1
1
1.11892
1
1.11889
1
1.00001
0.891067
1
1
0.878457
1.00031
1
1.11982
0.900592
1.11824
0.887648
1.11846
1
1
1
1
1
1
1
1
1
1
1
1.11466
1
1.11877
1.1202
0.886557
1
1
1
1
1
1
1.11549
1
1
0.892967
1
1
1.12011
1
1
1.04823
1.09881
0.901282
0.896777
0.910214
0.926575
1
0.999093
0.898051
1.00013
1.11331
0.999105
1
1
1.11818
1
1
1
0.922924
1
1.04677
1
1
1.05303
1.1181
1
0.88795
1
1
1
0.999001
1
1.11934
1.1188
1
0.880488
1
1.066
0.886586
1
0.969298
1
0.998932
0.8862
1
1
1
0.998728
0.89048
1
0.894579
0.999543
1.07171
1.10626
0.8937
0.900039
1
0.997299
1
0.999619
1
1.11883
1.11877
1
1.00327
1.11854
1.11838
1
1
1.11855
1
1
1.00001
1
1.12048
1
1
1.00552
1
0.999592
0.906458
1
1
1
1
1
1.11699
1.01308
1.00001
1
1
1
1
1
1.00001
1
0.887285
1.03306
0.999605
1.11595
1.11852
1
1.00427
1.11882
1.10339
1
1
0.902803
1.11866
1
1.11965
1
1.11828
1.08381
0.891492
1
0.887917
1.11074
0.99991
1
0.887569
0.908765
1
1
1.10106
1
0.999999
0.881606
1
1
1
1.03877
1
0.885882
1.11805
1
1
1
1
1.11876
1
1
1.11878
1.10763
1
1
1
1.11948
0.887076
1
1.11894
1.1184
1
1.09652
1
1.00001
1
1
1.10914
1.00316
1
0.889957
1.07043
1
1
0.999165
1
1
1.11825
1
1
1.00001
1
1.11895
1
1
1
1
1
1
1
1.05681
1
1.11848
1
1
1.11876
1
1
1
1.11852
1.11771
1.01282
1
0.999364
1
1
1
1
1.12086
1
1
1.11837
0.890333
1
1
1
1
1
1
1.09398
1
1
1.1185
1.1189
1
1
1
1.11907
1.11726
1
0.999909
1.11659
1
1
1
1
0.887628
1.009
0.998958
0.998838
1
1
0.893443
1.11889
1
0.912572
1
1.11981
1.11214
0.901159
0.99983
1.11838
1.11897
1.11899
1
1
0.975807
1.11346
1.10002
0.912741
1
1
1
1.11864
1.11869
0.889743
0.999229
1
1.11825
0.886166
1
1.11471
0.889358
0.988705
1.0018
1
1.11734
1
1
1
1
1
1
1.00003
1.11094
1
1
1.11801
1
1
1
1.11838
1
0.887083
1
1
1
1.04247
1
1
1
1
1
0.936239
1
0.885144
1
1.11805
1.00002
0.961704
0.962435
1
1.00129
1.06916
1
1
0.881732
1.11925
1.11821
1.11813
1
0.890314
0.891994
1
1.11859
1
1
1
1
1
1.00001
1
0.890892
1.07781
1
1
0.901825
0.99249
1
1
1
1
0.888877
1
0.907196
1
1
1.11981
1
1
0.886464
1
1.11836
1
0.889214
1
0.889406
1
1.00223
1.11874
1.12264
1
1
1.11997
1
1
1.03286
0.999049
1
0.999481
1
1.11957
1
0.895177
1
1.12106
0.999731
1
1
0.941356
1
0.999729
0.889143
1.11915
1.0518
1
1
0.971957
1
1
1
0.931893
1
1
1
1.11864
1
0.891312
1
1
1
1
0.889466
1.11858
1.11013
0.890812
1
1.12134
1
1
1.11883
1.11953
1.09948
0.885697
0.9994
0.999792
1
1.11834
1
1
1
1
1.11905
1.00001
1
1
1.11909
1
1
1.1185
0.887704
1
1
1
0.892698
1
1
1
0.999621
1
1
1
1
1.09234
1
1.11985
1.11902
1.12103
1.11876
1.11889
1.1179
1
1.11945
1
1.11846
1.11885
1
0.999683
0.879884
1.10473
0.99997
1
1
1
1
0.999606
1
1.01914
1
1
1
0.956499
1.11858
1.11876
1.12057
1.10821
0.999963
1
1.00627
1.11877
0.999401
1.01969
0.99919
0.892268
1
1.00001
1
1
1
1
1
1.1189
0.888417
1.11874
1.11856
0.998518
0.852465
1
1
1
1.11871
0.895515
1.10399
0.886365
1.11854
1.12097
0.890104
1.1177
1.00673
1
1.11976
0.935369
1
0.999631
0.878795
1
0.897019
1
1.11819
1.11823
0.920194
1
1.11962
0.892069
1
0.891882
1
1.11862
1
1
1.11748
1
0.950295
1
0.99991
0.896044
1.12049
0.999855
1
0.889593
1
1
1
1
1.06996
1
1.11885
1
1
1.1216
1
1
1.11881
1
0.895767
1
0.89913
1
1
1
1
1
1.11188
1.07345
1.11866
1
1.11855
1.10902
0.885554
0.885326
1
1
1.11803
1
0.896212
1
0.994171
1
1
1.11838
1
1.11904
0.867285
1.11711
1
0.866617
1
1
1.11885
1.11835
1
1.00001
1
1.11831
1
1
0.894592
0.99982
0.878566
1
1
1
1.11895
1.11823
1.11957
1
1
0.901941
1
1.11907
1
1
1
1.1142
1.11874
1.11874
0.90489
1.11889
1.11846
0.897125
1.11953
1.00001
0.904081
1.00231
1
1
1.11857
0.891088
1.0797
0.870924
1.11865
0.99927
0.89162
1.12014
1
1
1
1
1.11846
1.11994
0.889637
1
1.00001
0.890066
1.00001
1
0.895479
0.890525
1.08571
1.11782
0.999548
1.11854
1
1.1182
0.948058
0.889118
1.11866
1.12061
1
1.11755
1
1
1.11857
1
1.0915
1.11983
1
1
1
1
1.11901
1.11743
1.11899
1
1
1.11871
1.12204
1.11884
1
1.11899
1
1
1
1
1
0.88785
0.952342
0.881503
1
1
1.11876
1
1
1.12018
0.888811
1
1.1186
1.11743
1.11502
0.873171
1
0.912868
1
1.00001
1.12013
1.0574
1.12015
1.11211
1
0.914397
1
1.1178
1.08588
0.888525
1
1
1
0.943984
1
1
1.12002
1
0.898182
1.11861
1
1
1
1
1
1.09649
1.02961
1
1.11883
1
1.11848
1
0.999212
1
1.1188
1.11946
1.11903
1.12054
0.999886
1.11957
1
1.11853
1.1185
1.10155
1
1
0.878286
1.11954
1
1
1.11733
1.11757
1.11888
1
1.11914
1
1
1.00001
1.11774
1.11822
1.03501
1.02833
1.11799
1.11843
0.906028
1
1
1
1
1.00001
1.04696
1
1
1.09963
0.882277
0.999987
1
1.11837
0.999971
0.999948
1.01984
1.1079
1.11973
0.976263
1
0.873778
1
1.00144
1.11842
1.11841
1.11755
0.999705
1
1
0.891514
1
1
1.11849
1.01357
1
1
1
1
1
1
1
0.999981
1.11929
1
1
1
1
1
1.08
1
1.06132
1
1
1.11869
1.12093
0.892523
0.999658
1
1
1
0.891705
1.11935
1.11879
1
1
1
1
1
1
1
1
1.11876
1.12046
0.884767
1.0145
0.89
1
0.896895
1
1.11857
1.0348
1
1
0.903832
1
1.114
0.946696
0.999216
0.887952
1
1
1.11996
1.00001
0.999251
0.884538
1.11943
1.12141
1
1
1
1
1.11122
1
1
1.1185
0.999699
1.11909
1.00001
1
1
0.873436
1
1
1.11839
0.890498
0.937421
0.890684
1.11862
0.999788
1
1.11946
0.892078
0.884077
1.00527
1
1
1.11992
1.00001
1.05713
1
1
1.12076
0.891369
1
1
1.00004
1.11955
1.00004
1.11956
1
1.00001
1
1
0.906933
1
0.935184
1
1
1.1179
0.87168
1
0.941358
0.940483
1
1
1.1187
1
1
1
1.11834
1.11847
1.00001
1.11665
1.11953
0.941485
1.11832
1.11291
1
1
1.11921
1
1
1
1
1
1.11941
1.1178
1
1
1
1.11855
1.00005
1
0.885645
0.911705
1
1.00001
1.04631
1
1
0.971504
0.898746
1
1
1
1.12074
1.10997
1.11808
1
1
1
1
0.886475
1
1.11912
1
1.11825
0.889986
1.1202
1
1
1
0.899723
1
1.11925
1.00001
1
0.885997
1.04237
1
0.999905
1.12064
0.888802
0.881095
1
1.11948
0.89734
0.885674
1
0.878961
0.999998
1
1
1
0.902858
1
1
1
1
1.1198
1
1.0887
0.888715
1
1
1
0.894081
1.11872
1
1
0.999078
1.11753
1
1.11802
1.11926
1
1
0.914323
0.886831
1
1
0.889933
1.03722
1.05768
1
1
1.11945
0.999273
1
0.999402
1.12025
1
1
1
1
1
1
1.11915
1
1.04495
1.03997
0.90253
1.10798
1
1.11846
1.11858
1
1
1
0.976354
0.881916
1
1.06389
0.999902
1.10347
1
1
1
1
1
1.00203
1.05565
1.11892
1.11864
1
1.11821
1
0.907088
1
0.99919
0.999928
1
0.879489
1
0.894006
1.00001
1.11915
1.11915
0.878104
1.12032
0.910739
0.998876
1.09726
0.897444
1.08413
1
1
0.999547
1
1
1
1.00002
1
0.898517
1
1
1
1
0.999882
1.11874
0.946769
1
1
1
1.01056
1
1
1
1.06919
0.927873
1
1
1
1.01363
1.11974
1
0.852416
1
1.11883
0.974288
0.886959
1
0.890364
1
1
1.11565
0.999498
1.1156
1
1.00258
1
1
1.11866
1
1
1
1
1.02569
1
1.11822
1.11896
1.1193
0.881553
1.11919
0.999157
1.10005
1
1
0.872904
1
1
0.87939
1.11831
1
1
0.999984
1
1
1
0.882884
0.899113
1
1.11971
1
1.06095
1.11849
0.891825
1.09826
1
1
0.899266
1
1
1.11967
1.11866
1.04357
1
1
1.00024
1.1191
0.8863
0.881282
1.11962
1.1183
1.08314
1.04834
1
0.965962
1
1
1
1.11695
1.11889
1.11874
1
1
1.11902
0.893511
1.1076
0.884299
1
0.888256
1
0.884027
1.11841
0.887065
1
0.998649
0.911065
1
1
1
0.958223
1.10813
1.11866
1.11879
1.1202
1
1
1.12014
1
1
1.11867
1
0.905674
1
0.862538
1
1.12046
1
1
1.00861
1.09299
1
0.999626
0.903407
1.11862
1
0.853611
1.02429
1
1
1.09551
1.11862
1.11877
1
1.11804
1.03541
1
1.00671
1.11846
1
1
1
1
1.11852
1
0.891968
1.1188
0.890412
0.869766
0.948324
1.11807
1.0451
1.11869
1
1.11951
0.999267
1.00001
1.11849
1.11956
1
1.12021
1
1.11865
1
1.11941
1
1.00001
1
1.11957
0.891296
0.887174
0.999435
1
1
1
0.868867
1
1.08665
1
0.894333
1
1.05095
1.11834
1.11774
1
1
1.00001
0.999819
1
1.11958
1.11876
1
1.05528
1.11809
0.950948
1.11855
1.00027
0.876665
1.02679
0.88231
1
1
1.02172
1.12076
1
1
1.01263
0.999597
1
0.888982
1
0.935677
1
1.11846
1
1
0.901144
1.0328
1.01826
0.999577
1.11828
1.11827
0.926747
0.999443
0.879727
0.915234
0.884235
1
1
1
0.999713
0.919463
0.899013
1
1.11865
0.999924
1.11842
1.11891
1.11943
1.11873
1
0.894267
1.11896
0.900589
1
1.11771
1.12004
0.999012
0.94382
1.11878
1.09102
1
0.88542
1
1
1.11972
1
1.00766
1.1186
1
0.881462
0.892877
1
1
0.890725
0.88952
1.11861
1.00001
1
0.881337
0.886886
1.11889
1.11239
1.11107
1.11999
1.03517
0.996208
1.04985
1.1212
1.09341
1
1.06309
1
0.89012
0.958849
1
0.877869
1.11951
1.00643
1.11967
1
1.11848
1.11981
1
1.1185
1.11851
0.888242
1.11972
1
1.12012
1
0.9164
0.892541
1.11866
1
1
1
0.894046
1.11888
1.11888
1
0.896319
1
1
0.8925
1.00001
0.881671
1.12016
1
0.95145
0.893167
1
1
1.07167
1
1
1
1.02244
0.893441
1
1
1
1.11782
0.887298
1
1.11853
0.857233
0.876196
1
1
1.12046
1
1.11948
1
1.11883
0.891595
1
1
0.890527
0.940915
0.862387
1
1
1
1
1.12054
0.874204
1
0.891214
1
1.12073
1
1
0.976648
1
1
0.949832
0.999909
1.00001
1
0.888345
0.891199
1
1
1
1
0.94264
1.11836
1.11929
1
0.893815
0.900931
0.968445
0.894859
1
0.956365
1
0.867775
0.996529
1
1
0.88879
1
1.11934
1.11456
0.893982
1
1
1
1.11765
1
1.01516
0.942607
1.04167
0.891894
1.05031
0.881606
1
1
0.917468
0.968539
1
1.01368
1
1
0.91059
1
0.978107
1.01435
0.891227
1
1.09756
0.924254
0.967141
1
1
1
0.889527
1
0.894531
0.890091
1
0.958016
0.894333
1.01956
0.925892
0.876699
1.11853
1
1.11868
1.06849
0.924085
1.11852
0.876178
0.999725
1.11961
1
1
1.11921
1
0.921503
1
1.02004
1
1
1.11828
1
0.927759
0.950121
1.12131
0.975818
1
0.923371
1.11844
1.11954
0.973506
1
1.11849
1.03442
0.962837
1
1.00816
1
0.895991
1.05364
0.931547
0.926592
1
1
0.898447
1.118
0.988593
0.892638
0.888243
0.957848
1
1.00666
1.11934
1.11836
1
1
1
0.893626
1.06464
1
1.11791
1.10776
0.8819
1.00001
1.02521
0.972014
1.07655
1.10159
1
1.01534
1
1.00001
0.883668
0.960945
1
1
0.94294
0.885924
1.01055
1
1
0.870239
1.054
1
1.11923
1
1.00972
1.06755
1
1.11742
1
1
1.11816
1
0.881148
1.11948
0.896821
1.03434
1
0.897068
0.999975
1
1.00001
1
0.938291
1.00763
0.886902
1.08979
1.11981
0.883792
1
1
1
1
1
0.994629
0.911214
1.01344
0.889703
0.892915
1.02412
1
0.999944
1.03344
1
1
0.88305
1.00302
1
1
1.03699
1
1.1197
1
1.11895
1.02622
1.0042
0.893303
1
1
0.855549
1
1
1
1
1.11866
1.01256
0.999448
1
0.882273
1.01474
1
1
1.0836
1
0.897815
1.11775
1
1
1
1.11876
0.879741
0.961723
0.890077
1.0953
1.1184
1
1
1.11873
1
0.889122
1
1
1
1
1
0.931546
1
1.11866
1
1
1.04361
1.1195
0.890094
0.965883
1
1.11785
1
1
1
1
1
1.11859
1.11893
0.891752
1.11798
0.883625
1
1
1.11858
1
1.11957
1.0017
1.00739
1.01947
1.11862
1.01966
1.08301
0.887811
1
0.888721
0.998633
1
1.11864
1
1
0.88454
1.12041
1
1.11905
1
1
1
1
1
1
0.881696
1.11961
0.963446
1.11851
1
0.881132
0.884963
0.916323
1.11982
1.11787
0.990586
1
0.933474
1
1.05049
1
1.11863
0.87944
0.88739
0.957069
1
1.11876
1
1.02335
0.892703
1
1.12049
1.10948
0.999669
1
1.11901
0.893038
1.11958
1.11935
1.11934
0.889677
1.02628
1
1
0.887554
1
0.948886
0.952995
1
1.00001
1.11842
1
1.12085
1.02495
1
1.01082
1.11975
1
0.879133
1
0.92699
1
1
1.09868
1
0.947854
1
0.895962
1.01094
0.987903
0.889425
1.11768
1.09677
1.11952
0.888522
0.91201
0.998734
1
1
0.900024
1.1159
0.888133
0.99999
1
1.11896
1.11909
0.967449
1
0.890768
0.912633
1.08622
0.993136
0.883016
1
0.88638
1.03287
0.890663
1
1.00002
0.939815
1.12001
1.11867
0.948574
0.999882
1
1
0.916748
1
0.887404
1
0.895669
0.892292
1
1
1.00001
0.889257
1.1185
1
1
1.00002
1.00001
0.894434
1.11872
1.11867
1
0.88758
1.12004
1
1.02693
1
1
1.11808
0.886042
1
1
0.8948
0.916588
0.888383
0.866844
1
0.907404
0.999191
1.02976
0.880945
1
1
1.03669
1
1.10608
1
1
1.08679
0.893587
1
0.894229
1.03629
1.11898
1
1
0.898233
0.901716
0.88747
0.914896
0.891895
1.09163
0.999833
1
1
1
1
1.11879
0.860538
1
0.980869
0.99991
0.99963
0.999983
0.931491
1.03945
1
1.11861
1.11874
1
1
1.11527
1.00001
1
1.11861
0.894239
1.12113
1
0.87992
1.11869
1.00002
1
0.956277
1
0.888717
1
1.11917
1
1
1.11846
1
1
1.11973
1
1
1
1.11936
1
0.925699
0.919393
1
0.881553
1.119
1
1
0.991886
1
1.11865
1.07433
1.09701
1
1
0.893237
1
0.898841
1.11808
1.11958
1.11857
1
1.11936
0.89442
1
0.900289
1.09823
1.11232
1.11809
1.11879
0.928298
0.885248
1
1.07601
1.11906
1.1191
1.11831
0.922552
1.04153
1
1.09403
0.92151
1
1
1
1.00001
0.967786
1
1.11843
1
1
1
1
1
1
1.00002
1.11633
1
1.11843
1.09144
0.88427
1.12034
1.0119
1.06402
1
1.11854
1
0.888016
1
1
1
1
1.10341
1
0.885178
1.11845
0.884424
1.1184
1.09764
1.05945
1
1.02376
1.05566
0.998699
0.892815
0.925902
1.00001
1
0.974355
1
0.877081
1.11902
0.877485
0.979844
0.950444
1
1
1
1.00409
1
1
0.900216
0.998976
1.11971
1
1.11928
1
0.887467
1
1
1.11924
1.11808
0.883954
1
1.11909
1
0.936252
0.879703
1.11882
1.10745
1
1.0218
1.11906
0.999639
1
1.04977
1.10487
1.11844
0.998782
1
0.999999
1.10225
1
1
1
1.11852
0.999564
1
1
1.11885
1
1
0.891305
1
1
1
1.11884
1
1
0.955125
1.03631
1.10861
0.92781
1
1.11863
1
1.04434
1
1.11929
0.999226
1.11841
1
0.891081
1
1.08431
1
1
1.11145
1
1.11864
1
1.11885
0.907254
0.892118
1.11899
1
1.10532
1
1.11948
1
1
1.00001
1.11955
1.11911
1.03258
1.11849
0.99892
0.90759
1.1187
0.965618
1
1.12043
1
1.11866
1
1.11855
1.1197
0.998948
0.889469
1
1.11863
1
1.013
1
1
0.999433
0.925549
1.10687
1
1.10805
1
0.964274
0.884145
1.11895
1.11823
0.896297
1
1.11865
1.11909
1.11879
0.900178
1.11834
0.886913
1.11916
1.11879
1
1
1.1186
1
1
1
1
0.887863
1
1
1.11948
1.1184
1
1.11852
1
1.11959
1.11981
1
1.1018
1
0.881834
1.11935
1.08872
1.03578
0.884532
1.1184
1
1
0.888954
1
1
1.11853
1
1
0.932577
1
1.11873
1.00003
1.11883
0.886311
1.1199
1
1.11896
1.11415
0.967669
1
1.11919
0.925586
1.11858
1.08655
1.11867
1.11836
0.999344
1.11999
1.11878
1.11833
1.11833
1.00016
1
0.91231
1
1.11927
0.943853
1.10814
1
1.1156
1
1
1
1
1
1.1167
0.889301
0.884912
1.11902
1.11846
1
1
1
1
1
1.11755
1.10644
1.11883
1.00562
1
1
1
1.00001
1.11804
1.1185
1
1.11893
1.11969
0.899047
1.08558
1
1.1184
1.12021
1.11785
0.999415
1.11824
1.11868
1
1.10791
1
1
1
1
1
1
1.11845
1.12065
1.11081
1.11842
0.891923
0.909065
1.11876
1.11867
1
0.891647
0.983458
1
1.0575
0.884199
1
0.999847
0.99951
0.885995
1
1.1188
1
1
1
1.11913
0.990818
1
1.11836
1.11857
1
1.11913
1
1
1.11841
1
0.881095
1
1.11778
1
1
0.898168
1
1.1182
1
0.882812
0.886799
1
1.11637
1
0.885487
0.968465
1
1.11866
1
1
1
1.12061
1
0.878864
1.01889
1.11951
1.11901
1.11863
1.0145
1.11999
1.11864
1
1
1
1
1
1.11894
1
0.999806
1.11728
1
0.881939
1
1.11875
1.05338
1.0199
1.06254
1.01743
1.12042
0.905908
1.11895
1
0.888308
0.999224
1.11867
0.981806
1.11859
1.1186
1.11276
1
1.11979
1.11887
1.11887
1
1.00001
1
1
1.11914
1.08977
1
1
0.888136
0.99912
1
1.11851
1
1.11877
1.11837
1.11879
0.979217
1.11864
1.11858
1.00264
1.06303
1.11963
1.11857
1
1.11024
0.947997
1.11223
0.998202
1.11847
1
1.11824
1.1188
1
0.896635
0.983569
0.908484
1
1.02504
0.999121
1.12037
1
1
0.999086
1
1.06274
1.10929
1
1
1.11937
1
1
1.09
1.11815
1.11354
1.11825
1.11858
1
1.11896
0.915281
1.11897
1
1.0034
0.89092
1
1
0.925337
1
1.04345
1
1.11834
1
1.11567
1.08394
0.887678
1
1
1
1
1
1.11883
1.00343
1
1.11761
1
1.11878
1.11837
1
1
0.992609
0.999956
0.880084
0.889588
0.919441
1.02526
1
0.999533
0.892946
1.00001
1
1.11861
0.978961
1.11144
1.1018
1
1
1
1
1
1.11836
1.11889
1
1.11817
1
1.12057
1.08407
0.998954
1
1
1
1.06789
1
0.98856
1
1.11816
1
1
1.11825
1
1
1
1
1
1.11718
0.880956
0.998791
1.10404
1.11872
1
1.11833
1
1
1
1
0.909279
1
1.11854
1.11856
1.11854
1.11955
0.989019
1
1.1024
1.03031
1.1193
1.12096
1.02575
1.1195
1
1
1