/*--------------------------------*- C++ -*----------------------------------*\
  =========                 |
  \\      /  F ield         | OpenFOAM: The Open Source CFD Toolbox
   \\    /   O peration     | Website:  https://openfoam.org
    \\  /    A nd           | Version:  12
     \\/     M anipulation  |
\*---------------------------------------------------------------------------*/
FoamFile
{
    format      ascii;
    class       volScalarField;
    location    "26.9";
    object      p;
}
// * * * * * * * * * * * * * * * * * * * * * * * * * * * * * * * * * * * * * //

dimensions      [1 -1 -2 0 0 0 0];

internalField   nonuniform List<scalar> 
9801
(
0.692598
0.708492
0.710717
0.694573
0.670794
0.662478
0.663299
0.666715
0.69054
0.763259
0.818452
0.835814
0.842855
0.845318
0.825562
0.764517
0.716221
0.70405
0.704954
0.710703
0.724207
0.753485
0.815526
0.875937
0.900827
0.909
0.912286
0.904388
0.866157
0.81416
0.78645
0.782165
0.785863
0.790783
0.7972
0.805839
0.822371
0.868111
0.923581
0.951145
0.961781
0.968207
0.971846
0.946124
0.899776
0.88297
0.884508
0.889456
0.896666
0.918504
0.956613
0.983965
0.998663
1.00952
1.01875
1.02698
1.03348
1.02633
1.02039
1.02078
1.02383
1.02806
1.03646
1.05319
1.06579
1.07578
1.08519
1.09422
1.10349
1.10514
1.10678
1.1154
1.12777
1.15567
1.18343
1.19329
1.19904
1.20696
1.21625
1.2163
1.19423
1.18849
1.20654
1.23503
1.28487
1.37189
1.46047
1.51344
1.54645
1.57068
1.5828
1.56433
1.52335
1.49112
1.49261
1.55773
1.76218
4.79086
30.6362
0.699537
0.70576
0.695368
0.678066
0.670885
0.671407
0.675525
0.693493
0.729718
0.774475
0.811229
0.827246
0.830451
0.818201
0.792898
0.762732
0.735148
0.724854
0.728201
0.736594
0.746747
0.763007
0.807823
0.86375
0.887682
0.89377
0.892487
0.885702
0.87146
0.839882
0.810905
0.800643
0.79958
0.801057
0.804455
0.809185
0.82244
0.868579
0.925799
0.954228
0.965408
0.972324
0.976233
0.959349
0.919764
0.89804
0.895484
0.897974
0.902387
0.915582
0.94875
0.980867
1.00264
1.01698
1.02768
1.03683
1.04445
1.03736
1.02416
1.02113
1.02318
1.02717
1.03529
1.05425
1.07223
1.08655
1.1012
1.11309
1.12242
1.11731
1.11087
1.11506
1.12376
1.14192
1.1772
1.20653
1.22433
1.23599
1.24671
1.24916
1.2244
1.21156
1.2223
1.24554
1.27677
1.33597
1.41157
1.46784
1.50609
1.53948
1.57152
1.57121
1.53345
1.50243
1.49647
1.53739
1.60469
4.35477
30.9709
0.694693
0.677811
0.670379
0.672354
0.676106
0.684269
0.707334
0.731141
0.749856
0.770662
0.787005
0.793901
0.790267
0.780961
0.776781
0.773383
0.764272
0.754694
0.752008
0.754534
0.759387
0.76742
0.791903
0.83408
0.862761
0.874719
0.879068
0.881084
0.879843
0.869396
0.843309
0.814608
0.801854
0.801789
0.805211
0.810899
0.823539
0.866708
0.926356
0.957989
0.971185
0.979099
0.984388
0.975822
0.937633
0.906423
0.894605
0.894417
0.897523
0.904467
0.937054
0.9836
1.01229
1.02889
1.04053
1.05026
1.05732
1.04671
1.02289
1.00993
1.00835
1.0118
1.02054
1.04659
1.07684
1.09979
1.11748
1.13091
1.14007
1.13015
1.11315
1.10852
1.11419
1.12985
1.17551
1.22092
1.24169
1.25269
1.26278
1.27239
1.26196
1.23944
1.23504
1.24539
1.26507
1.29364
1.35798
1.43623
1.48961
1.52781
1.56522
1.58545
1.55508
1.5228
1.5157
1.54693
1.55473
4.10749
31.0789
0.678863
0.656554
0.657999
0.666016
0.686921
0.721663
0.744643
0.754746
0.760584
0.760412
0.756379
0.756247
0.759736
0.766923
0.776445
0.7845
0.787537
0.783443
0.77758
0.775355
0.777359
0.781217
0.786462
0.805847
0.833037
0.853434
0.867214
0.875852
0.880496
0.881901
0.86763
0.834211
0.811631
0.809421
0.813391
0.820417
0.834474
0.874268
0.929353
0.960722
0.974372
0.981603
0.98351
0.9684
0.92871
0.899469
0.891932
0.894259
0.898613
0.906359
0.943568
1.00119
1.02874
1.04182
1.05174
1.05825
1.05316
1.02536
0.997734
0.99005
0.993167
1.00103
1.01736
1.0528
1.09329
1.12201
1.1412
1.1553
1.16309
1.14455
1.11402
1.10391
1.11019
1.12453
1.16394
1.21818
1.24958
1.26795
1.28449
1.30113
1.30605
1.281
1.25283
1.24128
1.24815
1.26682
1.30094
1.37361
1.44334
1.49199
1.53424
1.57298
1.56685
1.53927
1.51713
1.52895
1.5141
3.94838
31.2102
0.674942
0.659013
0.66209
0.679057
0.72004
0.7491
0.759716
0.765552
0.755049
0.736006
0.728884
0.731524
0.743805
0.766218
0.783839
0.793859
0.800955
0.801507
0.795635
0.790426
0.786935
0.784518
0.785728
0.791546
0.810977
0.833541
0.85075
0.862294
0.868962
0.872479
0.865857
0.845226
0.831306
0.827826
0.831217
0.840188
0.859883
0.893329
0.926613
0.948162
0.959141
0.962962
0.957423
0.93731
0.916706
0.906036
0.903653
0.905887
0.910605
0.925537
0.970663
1.01229
1.03375
1.04478
1.05095
1.04616
1.02642
0.999176
0.983968
0.983162
0.988398
0.997866
1.02061
1.0642
1.10934
1.13997
1.15986
1.17484
1.18379
1.16024
1.11419
1.09744
1.10327
1.11664
1.14633
1.20344
1.25133
1.28092
1.30476
1.32529
1.3408
1.32512
1.2797
1.24554
1.23358
1.24384
1.26469
1.31041
1.3899
1.4578
1.50901
1.55598
1.57657
1.5609
1.5381
1.52505
1.47155
3.86324
31.3181
0.683594
0.674075
0.684152
0.72241
0.752404
0.763895
0.768275
0.750335
0.725077
0.715927
0.716469
0.724192
0.747189
0.773077
0.791327
0.802089
0.80956
0.815505
0.80977
0.796989
0.787035
0.783737
0.785383
0.789752
0.80369
0.82155
0.834946
0.845147
0.852545
0.857298
0.860308
0.857126
0.852346
0.852858
0.858839
0.871911
0.888549
0.908075
0.921635
0.929642
0.933495
0.934169
0.929122
0.918004
0.913428
0.914206
0.915889
0.919366
0.927984
0.959424
0.997017
1.01864
1.03061
1.03889
1.03773
1.0275
1.01049
0.990996
0.981173
0.982087
0.987765
0.996232
1.02123
1.07597
1.12754
1.15767
1.17633
1.19054
1.19591
1.16347
1.11161
1.0925
1.09819
1.11065
1.1315
1.17957
1.2422
1.287
1.31603
1.33694
1.35318
1.35291
1.31305
1.2681
1.24084
1.23503
1.24736
1.27157
1.33059
1.4038
1.46225
1.51069
1.54879
1.55815
1.55343
1.53869
1.46375
3.73907
31.47
0.706489
0.715345
0.742632
0.761762
0.769708
0.771366
0.74707
0.715552
0.704314
0.704253
0.708643
0.725777
0.761256
0.789114
0.803361
0.81144
0.817323
0.821983
0.811072
0.791085
0.783324
0.783131
0.786129
0.790283
0.801625
0.816336
0.825752
0.832954
0.840137
0.847869
0.85631
0.865065
0.873158
0.881725
0.891734
0.90059
0.907962
0.910769
0.911923
0.911513
0.911571
0.914225
0.914731
0.910463
0.913086
0.919725
0.926487
0.932851
0.953815
0.989382
1.01207
1.02094
1.02626
1.02411
1.01791
1.01438
1.00674
0.99081
0.97979
0.981978
0.990047
1.00008
1.02582
1.08981
1.14592
1.17124
1.18466
1.19399
1.18628
1.15035
1.11114
1.09167
1.0908
1.1014
1.11687
1.14942
1.21478
1.28108
1.31928
1.34046
1.35678
1.36586
1.34724
1.30314
1.2662
1.24621
1.24626
1.26294
1.29604
1.35846
1.42075
1.46985
1.51068
1.53612
1.54644
1.54703
1.48669
3.64393
31.6273
0.74182
0.776617
0.785813
0.787478
0.781078
0.746914
0.709115
0.695541
0.695502
0.699777
0.70829
0.737171
0.781817
0.807894
0.81783
0.823499
0.82797
0.822838
0.798711
0.782534
0.779314
0.781384
0.785437
0.790031
0.799746
0.816297
0.826213
0.831482
0.836655
0.844972
0.856115
0.871861
0.892412
0.905952
0.911597
0.913088
0.909104
0.903125
0.900659
0.902247
0.907757
0.913917
0.917048
0.913102
0.916986
0.925967
0.937184
0.955628
0.982215
1.00554
1.0151
1.01949
1.01741
1.01184
1.01216
1.01593
1.01639
0.999127
0.98389
0.984353
0.993386
1.00562
1.03448
1.10153
1.15633
1.17657
1.18516
1.18716
1.1732
1.14619
1.11651
1.09517
1.08887
1.09265
1.10471
1.12483
1.16796
1.24344
1.30492
1.33645
1.35634
1.37264
1.37412
1.34014
1.29249
1.2628
1.25446
1.26381
1.28567
1.3257
1.38824
1.44131
1.47889
1.50453
1.52168
1.53278
1.51429
3.59865
31.8212
0.789237
0.816517
0.816279
0.808392
0.77013
0.711965
0.686031
0.683545
0.687163
0.694219
0.710501
0.754826
0.805193
0.824314
0.830326
0.834218
0.832283
0.814037
0.792275
0.781421
0.77791
0.778441
0.781462
0.785697
0.793591
0.812516
0.829199
0.837908
0.846018
0.859227
0.87985
0.897735
0.908438
0.915927
0.916286
0.905135
0.894884
0.892406
0.895053
0.904044
0.91618
0.923259
0.927835
0.925983
0.927829
0.936207
0.948241
0.966337
0.989253
1.00434
1.01065
1.01105
1.00758
1.00844
1.01301
1.01912
1.02474
1.01456
0.994475
0.990609
0.997795
1.01206
1.03906
1.09368
1.14838
1.16987
1.1767
1.17708
1.16924
1.15172
1.12567
1.10326
1.09261
1.09225
1.09918
1.11211
1.13314
1.18063
1.26018
1.31871
1.34769
1.36611
1.37912
1.37224
1.32882
1.28729
1.2683
1.26879
1.28394
1.31135
1.3656
1.42633
1.46474
1.48602
1.49905
1.50716
1.50351
3.60675
32.0048
0.814921
0.837581
0.838928
0.821855
0.752017
0.697381
0.683769
0.684304
0.687856
0.695228
0.716773
0.772775
0.817031
0.833887
0.83993
0.84057
0.828724
0.811579
0.798023
0.787731
0.78355
0.782386
0.782029
0.783943
0.788068
0.801253
0.8257
0.846191
0.866625
0.889259
0.904996
0.913861
0.920201
0.916936
0.896758
0.882701
0.880967
0.885156
0.897304
0.914971
0.927159
0.935454
0.941958
0.944324
0.942546
0.946631
0.953394
0.963869
0.97897
0.990092
0.997553
1.0034
1.00945
1.01456
1.01915
1.02558
1.03214
1.02997
1.01349
1.00815
1.01387
1.02335
1.03429
1.0594
1.11243
1.152
1.16716
1.17438
1.17566
1.16212
1.13907
1.11637
1.10181
1.0975
1.10117
1.11081
1.12385
1.1404
1.18718
1.26848
1.3223
1.34832
1.36634
1.37791
1.3654
1.32234
1.29299
1.2872
1.29899
1.31967
1.35379
1.41396
1.45526
1.47297
1.48042
1.48215
1.47877
3.62514
32.1171
0.821256
0.842644
0.838663
0.792775
0.732527
0.701356
0.691168
0.691504
0.695756
0.71037
0.74169
0.783707
0.819407
0.832807
0.834613
0.828872
0.82333
0.820028
0.812692
0.803338
0.795294
0.789623
0.786175
0.786901
0.790141
0.795122
0.813387
0.855351
0.896015
0.916678
0.924365
0.928489
0.92685
0.903512
0.876671
0.870084
0.873059
0.880122
0.899804
0.926319
0.942477
0.950811
0.957008
0.960295
0.955922
0.953433
0.954614
0.958306
0.964274
0.972694
0.983025
0.996364
1.01289
1.02541
1.03254
1.03738
1.04172
1.04421
1.03556
1.02546
1.0231
1.02557
1.03138
1.03836
1.0647
1.12027
1.15739
1.17239
1.1789
1.17424
1.15746
1.1351
1.11805
1.11081
1.11198
1.11835
1.12499
1.134
1.14872
1.19711
1.27496
1.32315
1.34838
1.3664
1.3701
1.35274
1.32697
1.31666
1.32291
1.34041
1.36305
1.39629
1.4351
1.45492
1.46044
1.45607
1.456
3.6746
32.1743
0.81845
0.830264
0.801202
0.758546
0.732393
0.714935
0.70984
0.713642
0.728082
0.747324
0.760793
0.776773
0.800452
0.81613
0.821504
0.823803
0.827482
0.831981
0.834329
0.828008
0.81354
0.799484
0.792835
0.792567
0.795401
0.799105
0.808587
0.85684
0.911643
0.929592
0.936777
0.940753
0.926664
0.88977
0.869746
0.868204
0.871963
0.878361
0.900359
0.934908
0.952681
0.959915
0.965477
0.968684
0.964981
0.957881
0.95635
0.957227
0.95782
0.961707
0.969251
0.981728
1.00476
1.02699
1.03783
1.04375
1.05063
1.05853
1.06012
1.04669
1.0349
1.0312
1.03259
1.03688
1.04505
1.07492
1.12395
1.15507
1.16993
1.17588
1.17456
1.16648
1.15261
1.1429
1.13951
1.13755
1.1333
1.13299
1.1423
1.15836
1.20612
1.27255
1.31418
1.33932
1.3579
1.36134
1.3571
1.35625
1.3595
1.36458
1.37009
1.37747
1.39091
1.41215
1.42632
1.42729
1.44386
3.78217
32.2241
0.795263
0.790067
0.760852
0.744913
0.738214
0.737945
0.741798
0.751803
0.762333
0.766572
0.766209
0.762931
0.767667
0.791272
0.815215
0.829027
0.837821
0.844515
0.850473
0.854271
0.843834
0.816353
0.801656
0.80125
0.804837
0.810077
0.824092
0.866963
0.913617
0.933225
0.94
0.939576
0.919881
0.890189
0.8745
0.87418
0.880185
0.889633
0.907812
0.936906
0.955334
0.96223
0.964196
0.963006
0.966062
0.967826
0.964704
0.963032
0.961922
0.960534
0.960454
0.96379
0.97579
1.00596
1.03254
1.04891
1.06234
1.07344
1.08169
1.07491
1.05489
1.04421
1.04372
1.04774
1.05206
1.05652
1.07206
1.11025
1.14637
1.16931
1.18211
1.19149
1.19583
1.19258
1.18322
1.16779
1.15029
1.1397
1.13946
1.14788
1.1652
1.20673
1.26188
1.30143
1.3286
1.35019
1.36945
1.38468
1.39516
1.39636
1.38382
1.36259
1.34998
1.35227
1.36613
1.38941
1.42546
3.9633
32.3033
0.764548
0.753698
0.747434
0.74975
0.753714
0.763227
0.776845
0.78616
0.788409
0.775821
0.756069
0.747798
0.748478
0.761224
0.799296
0.832688
0.849601
0.858931
0.865326
0.870992
0.868838
0.83981
0.81653
0.814367
0.81838
0.824921
0.838303
0.869816
0.901827
0.917937
0.924418
0.926915
0.919692
0.898181
0.888236
0.891347
0.897153
0.901687
0.907947
0.924723
0.939236
0.945704
0.949064
0.958888
0.972153
0.982305
0.989663
0.989405
0.982889
0.968044
0.951402
0.945042
0.948507
0.967011
1.01148
1.05146
1.07558
1.09196
1.10294
1.10809
1.09258
1.07117
1.06142
1.05819
1.05411
1.04687
1.04793
1.06165
1.09942
1.14776
1.18397
1.20928
1.23134
1.24269
1.24476
1.22895
1.19603
1.16327
1.14716
1.14673
1.15488
1.16989
1.19953
1.24398
1.28548
1.3246
1.35966
1.38676
1.40577
1.41437
1.40485
1.3713
1.33251
1.30986
1.30571
1.32533
1.37694
4.15137
32.4254
0.735747
0.740715
0.752431
0.766547
0.782367
0.792087
0.796934
0.798919
0.790221
0.764338
0.744954
0.740381
0.741515
0.747183
0.780168
0.832415
0.859307
0.868819
0.875258
0.879324
0.87574
0.857578
0.837416
0.831004
0.83237
0.836514
0.844288
0.861704
0.882797
0.900119
0.913645
0.921837
0.926016
0.919274
0.910239
0.90715
0.904023
0.900965
0.897809
0.898558
0.908628
0.927526
0.94802
0.968634
0.989239
1.00463
1.01419
1.01913
1.00514
0.969514
0.939157
0.928652
0.931219
0.938687
0.967899
1.03452
1.08622
1.11264
1.12755
1.13679
1.13341
1.10457
1.07612
1.05959
1.05006
1.0433
1.04014
1.04581
1.05956
1.09474
1.15673
1.21364
1.24988
1.27418
1.28743
1.29278
1.26987
1.21719
1.17627
1.1602
1.15847
1.16321
1.1722
1.18996
1.22809
1.28201
1.33404
1.37018
1.39374
1.40866
1.40898
1.3864
1.34165
1.29668
1.27515
1.27529
1.3101
4.25606
32.5613
0.706416
0.737337
0.771144
0.796282
0.80813
0.813571
0.813555
0.799897
0.768099
0.744508
0.737175
0.737598
0.739754
0.74938
0.786224
0.835636
0.861029
0.871747
0.87829
0.881144
0.877567
0.865795
0.852781
0.844226
0.842046
0.842518
0.844399
0.85209
0.874181
0.89662
0.912648
0.923057
0.930314
0.934589
0.926564
0.911636
0.896047
0.881855
0.876511
0.878776
0.885817
0.909333
0.953393
0.993246
1.01396
1.02251
1.02828
1.03206
1.01854
0.970497
0.93224
0.920975
0.922373
0.927404
0.938143
0.991515
1.07971
1.12551
1.14376
1.15531
1.15776
1.14016
1.10023
1.06997
1.05577
1.04977
1.04608
1.0446
1.04696
1.05677
1.09295
1.17929
1.25298
1.28859
1.30544
1.31631
1.31103
1.27324
1.2216
1.18683
1.17213
1.16721
1.16794
1.17326
1.18782
1.23607
1.30421
1.34972
1.37485
1.39177
1.3951
1.38202
1.35332
1.30401
1.26215
1.24307
1.26645
4.25991
32.6855
0.687608
0.742129
0.794172
0.815628
0.82339
0.827327
0.820204
0.782465
0.746394
0.735629
0.736069
0.73818
0.743837
0.764394
0.810424
0.843017
0.858201
0.86777
0.873321
0.872956
0.869439
0.865777
0.858326
0.8467
0.839955
0.840668
0.844138
0.85218
0.877526
0.90328
0.918363
0.927222
0.933473
0.938751
0.932572
0.90069
0.874305
0.865281
0.866284
0.870916
0.876765
0.894499
0.955305
1.0085
1.02654
1.03432
1.03874
1.0331
1.00881
0.971419
0.936114
0.922951
0.923633
0.928423
0.937058
0.965862
1.04914
1.12248
1.14809
1.15871
1.15719
1.14636
1.13486
1.10409
1.07646
1.06141
1.05081
1.04103
1.04143
1.04986
1.06363
1.11934
1.23033
1.29071
1.31151
1.32303
1.32017
1.29303
1.25593
1.21986
1.19173
1.17504
1.16831
1.16898
1.17422
1.20781
1.28231
1.33246
1.35586
1.37079
1.37613
1.36455
1.34629
1.31208
1.27139
1.23796
1.24376
4.17654
32.8314
0.677081
0.753574
0.809578
0.823332
0.829666
0.829575
0.803078
0.757419
0.737412
0.736154
0.738433
0.743531
0.763945
0.804973
0.83431
0.848172
0.856133
0.860555
0.859692
0.855465
0.854059
0.856556
0.855845
0.844985
0.83962
0.841665
0.846511
0.856897
0.886202
0.913985
0.926468
0.932031
0.935951
0.933642
0.911389
0.882337
0.867448
0.865152
0.868025
0.872875
0.883062
0.912394
0.962346
1.0086
1.02985
1.03654
1.03265
1.02223
1.00941
0.982123
0.948842
0.931909
0.930534
0.935033
0.948853
0.979867
1.02098
1.08194
1.12689
1.14259
1.14146
1.13525
1.1388
1.14507
1.1215
1.08195
1.0557
1.04409
1.0444
1.05208
1.06721
1.10128
1.17764
1.25622
1.28838
1.30029
1.30196
1.28635
1.2621
1.23971
1.21741
1.1971
1.18485
1.185
1.19154
1.20991
1.26203
1.31434
1.3382
1.35008
1.35463
1.34163
1.32628
1.3087
1.28129
1.24633
1.23187
4.10165
32.9699
0.685069
0.771386
0.813053
0.82495
0.829837
0.81464
0.770786
0.744498
0.738936
0.740061
0.74574
0.773274
0.816174
0.8392
0.846067
0.848615
0.848842
0.844636
0.839052
0.837037
0.841436
0.849318
0.853822
0.846241
0.842451
0.849064
0.859028
0.870426
0.893389
0.918464
0.927816
0.929781
0.923449
0.906083
0.890841
0.88072
0.872538
0.87157
0.877563
0.894261
0.921692
0.941418
0.954421
0.981994
1.0063
1.01483
1.01604
1.01551
1.01873
1.00981
0.978167
0.954747
0.950964
0.956316
0.975345
1.00124
1.01525
1.03145
1.06911
1.10505
1.12327
1.1338
1.14466
1.15219
1.15129
1.12574
1.08264
1.05914
1.05668
1.06771
1.0903
1.1141
1.14359
1.18872
1.22699
1.24592
1.25602
1.25811
1.24798
1.24295
1.24497
1.24364
1.23048
1.21841
1.21535
1.21907
1.23209
1.27888
1.31667
1.3303
1.33567
1.3232
1.30813
1.29853
1.28522
1.26011
1.24586
4.02254
33.0916
0.715116
0.782465
0.807605
0.814206
0.804536
0.773388
0.750161
0.744393
0.745703
0.755507
0.792885
0.832728
0.851711
0.856624
0.848254
0.833709
0.824183
0.820924
0.821026
0.826684
0.841797
0.851081
0.857958
0.862493
0.864674
0.871164
0.871312
0.873523
0.888357
0.908196
0.913278
0.909614
0.898573
0.888055
0.886053
0.887355
0.891365
0.90119
0.918779
0.939199
0.951635
0.952766
0.945727
0.944238
0.960821
0.993444
1.01464
1.02503
1.03156
1.03548
1.02024
0.995223
0.984168
0.985717
0.997622
1.0127
1.01682
1.01183
1.01411
1.04093
1.09125
1.12976
1.14913
1.15804
1.16557
1.16726
1.13909
1.10062
1.08592
1.09046
1.1037
1.11547
1.12566
1.13475
1.15252
1.17363
1.19159
1.20774
1.22399
1.24463
1.26585
1.28055
1.28226
1.25755
1.22752
1.21307
1.21307
1.23086
1.27576
1.30607
1.31743
1.31173
1.29972
1.29394
1.28954
1.28145
1.26684
3.94689
33.1729
0.748909
0.777103
0.785427
0.778913
0.764221
0.754423
0.753977
0.755357
0.770813
0.814557
0.848804
0.863768
0.868997
0.855008
0.823066
0.801401
0.794995
0.797453
0.80897
0.831046
0.850087
0.869069
0.884739
0.894937
0.891356
0.875791
0.868883
0.865662
0.864048
0.872701
0.886439
0.891047
0.891142
0.890838
0.893851
0.905892
0.930242
0.950154
0.960359
0.965026
0.963065
0.944304
0.922384
0.916301
0.921522
0.956419
1.00868
1.03424
1.04691
1.05652
1.06268
1.0483
1.02429
1.01259
1.01119
1.01164
1.00938
0.998085
0.989906
0.997368
1.02808
1.09202
1.14147
1.16294
1.17097
1.17716
1.18067
1.1597
1.1273
1.11414
1.11365
1.11567
1.11239
1.10497
1.10449
1.11298
1.12841
1.15352
1.19618
1.24181
1.27371
1.29306
1.30527
1.29014
1.24466
1.21475
1.20974
1.21416
1.23306
1.2639
1.28992
1.2996
1.29217
1.28751
1.28806
1.28606
1.28266
3.94073
33.1986
0.769017
0.768608
0.748181
0.738051
0.737649
0.74099
0.7522
0.787096
0.837769
0.86449
0.873461
0.876959
0.864488
0.818864
0.781067
0.769747
0.770356
0.778611
0.808575
0.849654
0.884133
0.904319
0.914761
0.92078
0.905089
0.870917
0.846215
0.835296
0.832786
0.836514
0.856103
0.879809
0.894659
0.908392
0.927821
0.950587
0.968609
0.979154
0.984911
0.982641
0.954247
0.917107
0.902323
0.902502
0.907196
0.924454
0.981941
1.03815
1.06494
1.08016
1.08927
1.08763
1.06869
1.04087
1.0215
1.01264
1.00904
1.00182
0.988751
0.985086
0.992537
1.02025
1.09137
1.15043
1.17309
1.17968
1.18415
1.18613
1.17066
1.14951
1.13567
1.12442
1.11101
1.09772
1.08589
1.08262
1.09001
1.10984
1.16516
1.23009
1.26667
1.28749
1.30443
1.30811
1.27264
1.23128
1.21274
1.21169
1.22293
1.22851
1.24328
1.26838
1.28335
1.28663
1.28874
1.2868
1.31544
4.00716
33.225
0.772651
0.737637
0.722139
0.722365
0.72899
0.741214
0.779712
0.845049
0.877804
0.887561
0.891635
0.881627
0.825127
0.767876
0.749383
0.749412
0.755138
0.771528
0.8253
0.891543
0.919667
0.927476
0.930107
0.92525
0.892445
0.843982
0.819487
0.814119
0.816733
0.822348
0.833801
0.862127
0.901095
0.939024
0.970356
0.987078
0.993078
0.995849
0.997516
0.985629
0.937546
0.901203
0.892645
0.894982
0.90115
0.915504
0.952356
1.02314
1.06922
1.08603
1.09169
1.09164
1.09202
1.08254
1.05136
1.02766
1.01815
1.01126
1.0007
0.996422
0.996334
0.99909
1.01566
1.08111
1.14261
1.16609
1.17464
1.18246
1.18633
1.18183
1.17237
1.15371
1.12785
1.10237
1.08347
1.07621
1.07835
1.08627
1.12819
1.20395
1.25158
1.27532
1.29385
1.30519
1.29445
1.26304
1.23222
1.21557
1.21183
1.21195
1.20446
1.21123
1.24621
1.27988
1.2977
1.29956
1.3385
4.10183
33.3153
0.746925
0.71041
0.707718
0.710791
0.72219
0.765769
0.841389
0.879219
0.889085
0.894195
0.895369
0.852179
0.776356
0.740301
0.734152
0.736647
0.742294
0.769821
0.860199
0.92523
0.940621
0.945966
0.942945
0.911593
0.855369
0.818275
0.806757
0.807162
0.810984
0.817677
0.828419
0.851761
0.899972
0.951996
0.983596
1.00189
1.01002
1.01333
1.00464
0.975282
0.936118
0.90558
0.896322
0.898
0.908109
0.934594
0.958733
0.983632
1.03037
1.06266
1.0735
1.07565
1.0766
1.08054
1.08343
1.07133
1.05238
1.03499
1.01716
1.0023
0.994506
0.992643
0.993931
1.00629
1.05831
1.11602
1.14904
1.17152
1.1898
1.19963
1.20282
1.19464
1.16644
1.12766
1.09644
1.08083
1.07759
1.08142
1.09656
1.1576
1.2249
1.26063
1.28056
1.29406
1.29325
1.28135
1.25967
1.23422
1.21441
1.19596
1.17425
1.16566
1.18225
1.24314
1.30211
1.31899
1.36756
4.20847
33.4968
0.724074
0.705769
0.708093
0.711251
0.731473
0.814324
0.877407
0.893236
0.899164
0.899342
0.864863
0.797594
0.750751
0.735419
0.734466
0.737422
0.745715
0.798441
0.889652
0.931959
0.944872
0.948942
0.929371
0.878542
0.838852
0.817457
0.808041
0.808972
0.813701
0.827625
0.858367
0.886108
0.903207
0.931491
0.973951
0.997215
1.00395
0.999273
0.991893
0.981988
0.952091
0.92406
0.914961
0.917843
0.933495
0.954934
0.9632
0.966005
0.971662
0.993651
1.02787
1.05461
1.0712
1.08864
1.10595
1.11552
1.10596
1.07231
1.03397
1.00585
0.99244
0.98475
0.979378
0.981978
0.997216
1.03976
1.10575
1.16367
1.19875
1.21188
1.21674
1.22094
1.20936
1.17197
1.12465
1.09274
1.08048
1.07949
1.0855
1.1187
1.18841
1.24738
1.27675
1.28887
1.28576
1.28245
1.27471
1.25475
1.23403
1.20293
1.15692
1.13626
1.13826
1.17899
1.26937
1.3237
1.38437
4.31082
33.7391
0.710496
0.704665
0.708458
0.721675
0.781367
0.853826
0.884994
0.896152
0.89609
0.865999
0.815454
0.778409
0.753476
0.740128
0.741496
0.752426
0.791689
0.847987
0.893555
0.922734
0.929289
0.916666
0.882056
0.851621
0.838366
0.82972
0.826324
0.831933
0.848527
0.876225
0.898247
0.905286
0.900639
0.901912
0.918599
0.958591
0.982359
0.99227
0.998145
0.995818
0.981998
0.96485
0.954417
0.952429
0.95655
0.963267
0.964997
0.954977
0.938175
0.938412
0.962839
1.01772
1.06993
1.10284
1.12462
1.13895
1.14525
1.12905
1.08098
1.02877
0.991597
0.969931
0.966573
0.974495
0.988634
1.00689
1.05072
1.13187
1.18884
1.21239
1.21939
1.22412
1.22818
1.21351
1.16693
1.11346
1.08676
1.08318
1.09014
1.11603
1.15621
1.20841
1.2543
1.27311
1.26988
1.26152
1.26593
1.26876
1.25725
1.22428
1.16626
1.12771
1.1248
1.13779
1.20427
1.28718
1.36896
4.38424
33.9576
0.708859
0.707435
0.719403
0.771438
0.831738
0.862704
0.874356
0.872036
0.847605
0.814256
0.78792
0.773951
0.766243
0.76748
0.780001
0.814171
0.847612
0.866268
0.877855
0.883487
0.877129
0.867025
0.860087
0.853986
0.849388
0.853773
0.868307
0.887565
0.902333
0.910765
0.913899
0.905167
0.887954
0.875416
0.874914
0.89644
0.953355
0.991798
1.00601
1.01636
1.02138
1.01715
1.0023
0.985217
0.973776
0.965168
0.954228
0.935113
0.918959
0.91694
0.924579
0.953497
1.03015
1.10408
1.1399
1.15289
1.15797
1.15444
1.13091
1.06465
0.993359
0.969805
0.970694
0.980527
1.00134
1.03514
1.07051
1.09771
1.13973
1.18436
1.20631
1.21383
1.21874
1.21799
1.19021
1.14926
1.1167
1.10563
1.11326
1.14509
1.16917
1.1757
1.20257
1.23416
1.24189
1.23973
1.2436
1.2493
1.25096
1.23728
1.19909
1.15118
1.1264
1.12986
1.14864
1.21414
1.31391
4.41325
34.1365
0.71408
0.725398
0.777848
0.821323
0.840006
0.848436
0.842005
0.819541
0.805817
0.799392
0.791077
0.784086
0.789675
0.811603
0.840893
0.859219
0.865794
0.868684
0.855298
0.831389
0.824213
0.831009
0.846279
0.860099
0.876148
0.903008
0.926482
0.937487
0.941329
0.936663
0.917408
0.884937
0.862024
0.854627
0.855564
0.861785
0.898677
0.97141
1.01872
1.04046
1.05404
1.0584
1.04554
1.02065
0.992121
0.968024
0.946503
0.928483
0.919512
0.919128
0.926507
0.942426
0.975018
1.06572
1.13432
1.15195
1.1533
1.13894
1.10423
1.0585
1.01796
0.996619
0.999486
1.0223
1.05431
1.07947
1.09014
1.08442
1.08852
1.11812
1.16844
1.19088
1.19763
1.19719
1.18319
1.17208
1.16408
1.15959
1.16701
1.17902
1.17704
1.1657
1.15949
1.1737
1.20439
1.22067
1.22634
1.23152
1.23573
1.23161
1.2173
1.19219
1.1529
1.13467
1.13752
1.15851
1.23958
4.37514
34.283
0.74486
0.790489
0.823699
0.835353
0.836323
0.812653
0.783482
0.774968
0.77858
0.7892
0.800391
0.816701
0.841366
0.863019
0.875162
0.879703
0.877678
0.848773
0.8118
0.796552
0.796816
0.8045
0.82588
0.86626
0.916628
0.955529
0.970523
0.973416
0.968944
0.950627
0.907987
0.864512
0.844602
0.841964
0.844379
0.852938
0.871805
0.92572
1.01065
1.05149
1.06497
1.06451
1.05678
1.04836
1.02897
0.985984
0.948383
0.932938
0.929511
0.93962
0.960014
0.975992
0.987299
1.00772
1.06735
1.10448
1.10639
1.09171
1.07405
1.0583
1.0498
1.05517
1.07853
1.10042
1.11209
1.11279
1.09113
1.06551
1.05399
1.05726
1.09957
1.15078
1.17378
1.18505
1.18572
1.19935
1.21737
1.22977
1.22777
1.21155
1.18227
1.15574
1.13857
1.13138
1.14906
1.18727
1.20804
1.21568
1.221
1.22952
1.23101
1.22264
1.19954
1.16756
1.1504
1.12882
1.16812
4.29355
34.3298
0.796577
0.8265
0.831038
0.833235
0.806284
0.763355
0.748984
0.750946
0.760224
0.783188
0.824051
0.864518
0.881897
0.886121
0.887669
0.884695
0.855641
0.81744
0.794152
0.78756
0.789122
0.793236
0.810273
0.865359
0.932152
0.96842
0.985205
0.992388
0.992278
0.971924
0.91537
0.864121
0.844806
0.842353
0.845971
0.862462
0.895576
0.925741
0.964016
1.0203
1.04923
1.05295
1.03625
1.01719
1.00711
0.997203
0.978687
0.965976
0.968357
0.977404
0.985731
0.991639
0.99162
0.988019
0.990101
1.01256
1.0355
1.04652
1.05283
1.06005
1.08966
1.13809
1.16243
1.1672
1.16059
1.12819
1.07444
1.03685
1.02275
1.02145
1.03864
1.09964
1.15525
1.18783
1.21255
1.23781
1.25901
1.26768
1.26133
1.23597
1.19898
1.15992
1.12425
1.1002
1.09836
1.12872
1.17413
1.20072
1.21667
1.23919
1.24946
1.24262
1.23373
1.21028
1.17866
1.13492
1.1061
4.20517
34.3048
0.833343
0.848597
0.845154
0.81238
0.755318
0.729878
0.727734
0.731577
0.743536
0.788372
0.861182
0.895663
0.904789
0.906787
0.894419
0.854861
0.823062
0.808556
0.798283
0.79171
0.794399
0.815952
0.852216
0.876463
0.909342
0.953157
0.973826
0.977295
0.96934
0.959258
0.933728
0.886939
0.861011
0.856435
0.863668
0.893201
0.924265
0.9367
0.941067
0.952237
0.970523
0.981651
0.988059
0.994267
0.99966
1.00959
1.03031
1.04182
1.0327
1.016
1.00405
0.994203
0.975518
0.957872
0.946319
0.947907
0.967042
0.996224
1.02688
1.0761
1.15519
1.20401
1.21763
1.21643
1.19794
1.13955
1.06411
1.01826
1.00374
1.00212
1.01022
1.04772
1.11495
1.17816
1.22365
1.25184
1.27042
1.27732
1.27073
1.25201
1.21924
1.17357
1.11958
1.085
1.07383
1.08341
1.11892
1.17745
1.22838
1.25916
1.27225
1.26002
1.24661
1.23558
1.21483
1.16561
1.09979
4.07666
34.2981
0.844596
0.855636
0.843988
0.781461
0.733818
0.723295
0.724633
0.72755
0.739101
0.801811
0.873032
0.89737
0.905544
0.905915
0.87147
0.829645
0.815947
0.813975
0.814564
0.82126
0.843903
0.868919
0.874134
0.869062
0.866828
0.88326
0.927317
0.952863
0.962219
0.966561
0.956604
0.927354
0.901763
0.894434
0.902499
0.923827
0.938927
0.942664
0.938499
0.907339
0.88085
0.887374
0.926726
0.967713
0.996526
1.03863
1.08825
1.1092
1.10149
1.06419
1.01623
0.9766
0.951631
0.935892
0.926687
0.925417
0.932281
0.947649
0.987015
1.0855
1.17885
1.21661
1.22758
1.23211
1.21545
1.14825
1.06819
1.02009
1.00344
1.00159
1.01155
1.04206
1.07713
1.12243
1.18529
1.23435
1.25886
1.26582
1.26443
1.26238
1.24898
1.21034
1.14762
1.09793
1.07459
1.06886
1.08026
1.12696
1.21451
1.26701
1.28006
1.27177
1.25161
1.23904
1.22389
1.18
1.11442
4.00893
34.3615
0.844339
0.846406
0.804179
0.759578
0.737061
0.728277
0.729564
0.736666
0.768677
0.822544
0.868269
0.888846
0.891567
0.872044
0.837256
0.823383
0.822665
0.829572
0.857239
0.887784
0.901699
0.898592
0.875715
0.843845
0.829476
0.829733
0.861505
0.927235
0.959747
0.968945
0.974139
0.974619
0.964026
0.952894
0.94854
0.948271
0.947201
0.942407
0.912267
0.860467
0.837311
0.839199
0.860035
0.912477
0.994904
1.08639
1.13821
1.15243
1.14881
1.11663
1.05012
0.98327
0.94913
0.934887
0.92837
0.927664
0.935113
0.950716
0.989629
1.05967
1.15196
1.20275
1.21224
1.2062
1.17628
1.1351
1.09217
1.05086
1.02863
1.0249
1.04033
1.07072
1.08021
1.08149
1.09519
1.15139
1.20605
1.2284
1.23763
1.24853
1.26211
1.25344
1.20152
1.13288
1.09284
1.08147
1.08298
1.09529
1.17291
1.25432
1.27189
1.26671
1.25225
1.23848
1.22536
1.18894
1.14485
3.96037
34.4774
0.84828
0.826855
0.773001
0.746779
0.739862
0.742911
0.751405
0.777954
0.804662
0.822742
0.838209
0.846916
0.846115
0.840546
0.836613
0.837795
0.857577
0.896918
0.924931
0.936178
0.933441
0.898107
0.84352
0.817218
0.810553
0.8105
0.82189
0.876373
0.943592
0.977693
1.00015
1.0165
1.02535
1.02102
0.997985
0.972505
0.951341
0.920589
0.868913
0.829755
0.817924
0.820155
0.828693
0.853428
0.966728
1.11038
1.15169
1.1606
1.14423
1.08497
1.02875
0.999404
0.97853
0.963447
0.95769
0.963276
0.977651
1.00339
1.02316
1.03339
1.06747
1.12636
1.15782
1.16429
1.15969
1.13839
1.11804
1.09978
1.082
1.07262
1.07688
1.08605
1.08168
1.0595
1.04951
1.06244
1.13673
1.19993
1.22756
1.25002
1.26624
1.26972
1.24039
1.17559
1.12131
1.09906
1.09666
1.10187
1.13819
1.21434
1.24987
1.25316
1.24533
1.23635
1.2298
1.20355
1.18246
3.91485
34.5775
0.833221
0.814889
0.773961
0.753085
0.755452
0.766456
0.78784
0.806375
0.815646
0.815993
0.805397
0.799179
0.805565
0.822959
0.851136
0.897806
0.933832
0.946869
0.951353
0.952605
0.925776
0.856826
0.813025
0.800334
0.798808
0.801938
0.814758
0.842182
0.909467
0.98494
1.02359
1.04412
1.05622
1.05873
1.04963
1.02231
0.972603
0.908958
0.856234
0.828242
0.820917
0.823359
0.834514
0.885489
0.988271
1.08042
1.12657
1.13189
1.09482
1.05321
1.03236
1.02291
1.02248
1.02684
1.02719
1.02481
1.02545
1.02586
1.0229
1.01905
1.01712
1.03484
1.09441
1.13608
1.15215
1.15877
1.14912
1.13981
1.13023
1.11909
1.11077
1.0964
1.06912
1.04546
1.03191
1.03009
1.06456
1.16204
1.22821
1.25428
1.26912
1.26642
1.23505
1.19406
1.14997
1.12534
1.11884
1.1179
1.12714
1.16078
1.20045
1.21946
1.23227
1.23564
1.23354
1.21888
1.22544
3.92673
34.7093
0.823346
0.821227
0.795931
0.783593
0.787233
0.796027
0.801847
0.806107
0.805547
0.792349
0.777918
0.776035
0.781551
0.80011
0.872314
0.948008
0.975073
0.982658
0.978179
0.949095
0.883718
0.823962