/*--------------------------------*- C++ -*----------------------------------*\
  =========                 |
  \\      /  F ield         | OpenFOAM: The Open Source CFD Toolbox
   \\    /   O peration     | Website:  https://openfoam.org
    \\  /    A nd           | Version:  12
     \\/     M anipulation  |
\*---------------------------------------------------------------------------*/
FoamFile
{
    format      ascii;
    class       volScalarField;
    location    "8";
    object      p;
}
// * * * * * * * * * * * * * * * * * * * * * * * * * * * * * * * * * * * * * //

dimensions      [1 -1 -2 0 0 0 0];

internalField   nonuniform List<scalar> 
1800
(
1
1
1
1
1
1
1
1
1
1
1
1
1
1
1
1
1
1
1
1
1
1.00002
1.00052
1.01577
1.16179
1.66111
2.42167
3.37785
4.1434
4.32494
4.23493
4.15015
4.10941
4.05715
4.04554
4.04998
4.05502
4.07215
4.10525
4.12473
4.12583
4.12197
4.11077
4.09443
4.08865
4.08916
4.09333
4.10568
4.1134
4.11197
4.10819
4.10052
4.09063
4.0879
4.08889
4.09294
4.10182
4.11176
4.11484
4.11437
1
1
1
1
1
1
1
1
1
1
1
1
1
1
1
1
1
1
1
1
1.00001
1.00039
1.00654
1.0791
1.44707
1.84024
2.19079
2.70785
3.2868
3.78746
4.08069
4.16907
4.15037
4.09006
4.0694
4.06049
4.06009
4.07325
4.10306
4.12011
4.1212
4.1187
4.10985
4.09711
4.09281
4.09284
4.09537
4.10576
4.1133
4.11254
4.10928
4.10094
4.09077
4.08865
4.08918
4.09259
4.10161
4.11145
4.11408
4.11354
1
1
1
1
1
1
1
1
1
1
1
1
1
1
1
1
1
1
1
1.00001
1.00028
1.00659
1.05365
1.29762
1.81382
2.02304
2.06432
2.21223
2.64651
3.36022
3.87855
4.17486
4.15104
4.10707
4.09488
4.0647
4.0592
4.07366
4.10261
4.11758
4.11898
4.11835
4.10987
4.09787
4.0943
4.09396
4.09707
4.10764
4.11414
4.11398
4.11106
4.10163
4.09132
4.08923
4.08955
4.09263
4.10195
4.1114
4.11368
4.11298
1
1
1
1
1
1
1
1
1
1
1
1
1
1
1
1
1
1
1
1.00018
1.00499
1.06074
1.24243
1.71981
2.00218
2.10304
2.11114
2.12355
2.21987
2.57208
3.23389
3.97108
4.01347
4.09576
4.11126
4.08355
4.07466
4.08291
4.10098
4.11345
4.11471
4.11432
4.10845
4.09816
4.09483
4.09438
4.09901
4.10819
4.11155
4.11175
4.11014
4.10267
4.093
4.09086
4.09127
4.09473
4.10369
4.1114
4.11288
4.11171
1
1
1
1
1
1
1
1
1
1
1
1
1
1
1
1
1
1
1.00008
1.00273
1.04767
1.2684
1.60822
2.02634
2.09406
2.12592
2.12945
2.12349
2.13153
2.19383
2.51301
3.23955
3.77405
4.13292
4.10291
4.07179
4.08585
4.0932
4.09961
4.1055
4.10778
4.10659
4.10065
4.09464
4.09212
4.09244
4.09954
4.10825
4.11024
4.1106
4.10871
4.10208
4.0947
4.09327
4.09389
4.09734
4.10572
4.11089
4.11202
4.1105
1
1
1
1
1
1
1
1
1
1
1
1
1
1
1
1
1
1.00005
1.00176
1.02587
1.24563
1.61705
1.92897
2.12188
2.14464
2.15194
2.13941
2.1318
2.13053
2.13177
2.17555
2.42534
3.09775
3.8443
3.92521
4.05172
4.10711
4.1004
4.09776
4.09926
4.09997
4.09846
4.09441
4.09244
4.09055
4.09329
4.10186
4.10623
4.10769
4.10865
4.10669
4.10024
4.0957
4.09564
4.09682
4.10096
4.10764
4.10972
4.11033
4.10806
1
1
1
1
1
1
1
1
1
1
1
1
1
1
1
1
1.00006
1.00166
1.0223
1.15708
1.62329
1.93511
2.09635
2.15025
2.14759
2.14198
2.1379
2.13367
2.13347
2.13292
2.13482
2.16563
2.39122
2.99976
3.62019
4.06891
4.08592
4.08639
4.10578
4.10506
4.09788
4.09336
4.09206
4.09125
4.09149
4.09692
4.10352
4.1051
4.10627
4.10713
4.10432
4.09931
4.09761
4.09793
4.09975
4.10541
4.10943
4.10924
4.10844
4.10435
1
1
1
1
1
1
1
1
1
1
1
1
1
1
1
1.00004
1.00127
1.02238
1.13362
1.52567
1.95031
2.08151
2.13089
2.13648
2.13659
2.12976
2.13395
2.13998
2.13543
2.13121
2.1303
2.13484
2.16006
2.33141
2.93997
3.69826
3.90923
4.05098
4.12694
4.11532
4.10013
4.09189
4.08612
4.08616
4.09117
4.10009
4.10557
4.10652
4.10697
4.10552
4.10184
4.09996
4.09961
4.10026
4.10455
4.11059
4.11135
4.10957
4.10683
4.10106
1
1
1
1
1
1
1
1
1
1
1
1
1
1
1.00001
1.00056
1.01275
1.13402
1.42495
1.91921
2.07383
2.1096
2.13391
2.13016
2.12851
2.13964
2.14685
2.14799
2.13891
2.12771
2.12748
2.13116
2.13721
2.15587
2.32723
2.87206
3.55447
4.02018
4.08625
4.0932
4.09654
4.08691
4.07381
4.07831
4.08932
4.10212
4.10779
4.10859
4.10887
4.10562
4.10208
4.10117
4.1008
4.10318
4.11025
4.11365
4.11215
4.10878
4.10353
4.0961
1
1
1
1
1
1
1
1
1
1
1
1
1
1
1.00022
1.00531
1.08269
1.40752
1.80278
2.07683
2.13425
2.14293
2.13762
2.13953
2.13863
2.14843
2.15205
2.14534
2.13496
2.12513
2.12537
2.13316
2.13779
2.14071
2.15675
2.29226
2.81689
3.55447
3.8426
4.03492
4.11381
4.07334
4.0631
4.07584
4.08979
4.10154
4.10693
4.10741
4.10675
4.10277
4.09959
4.09953
4.10052
4.10601
4.11309
4.11376
4.1113
4.10703
4.1007
4.0946
1
1
1
1
1
1
1
1
1
1
1
1
1
1.00013
1.00372
1.04319
1.32129
1.763
2.05951
2.13208
2.13328
2.13123
2.12329
2.12791
2.13726
2.14216
2.14859
2.14126
2.13371
2.1317
2.13261
2.13766
2.13941
2.13901
2.13983
2.1512
2.26995
2.70286
3.40325
3.9055
4.065
4.02747
4.06316
4.08771
4.09328
4.10419
4.10994
4.10921
4.10569
4.09992
4.09787
4.09902
4.102
4.10893
4.11418
4.11363
4.11053
4.10601
4.10009
4.09483
1
1
1
1
1
1
1
1
1
1
1
1
1.00012
1.00366
1.04024
1.23763
1.7331
2.0063
2.12065
2.14968
2.14081
2.12858
2.12142
2.11785
2.13056
2.13996
2.14118
2.14456
2.13883
2.13699
2.13906
2.13687
2.1383
2.13905
2.13906
2.14062
2.15001
2.23509
2.6399
3.27553
3.76489
3.95073
4.1084
4.10404
4.0899
4.105
4.11092
4.10882
4.10212
4.09522
4.09515
4.09735
4.1024
4.11048
4.11386
4.1129
4.11023
4.10523
4.09945
4.09669
1
1
1
1
1
1
1
1
1
1
1
1.00011
1.00304
1.04538
1.22361
1.65496
2.04066
2.08987
2.1213
2.15575
2.15677
2.13678
2.12638
2.12012
2.12576
2.14016
2.14418
2.14728
2.14383
2.13694
2.13483
2.1348
2.13759
2.14015
2.14173
2.1426
2.14032
2.14367
2.21146
2.51483
3.19398
3.78516
4.05792
4.0468
4.07525
4.11653
4.11531
4.10621
4.09729
4.09341
4.09551
4.09878
4.1039
4.11061
4.11201
4.11175
4.11085
4.10572
4.0985
4.09777
1
1
1
1
1
1
1
1
1
1
1.00004
1.00172
1.03102
1.24288
1.59416
2.0018
2.15691
2.13792
2.1368
2.15048
2.1637
2.14127
2.12079
2.11969
2.12575
2.14116
2.14673
2.1462
2.14222
2.13376
2.13063
2.13361
2.13932
2.14239
2.14421
2.14418
2.1402
2.13504
2.13622
2.18405
2.4627
3.1076
3.73688
3.92823
4.08309
4.1331
4.11803
4.10363
4.09107
4.08829
4.09372
4.10041
4.10631
4.1096
4.10984
4.1107
4.10892
4.10385
4.10036
4.10114
1
1
1
1
1
1
1
1
1
1.00001
1.00068
1.01492
1.16546
1.60665
1.94513
2.13547
2.15954
2.13986
2.12889
2.13242
2.14186
2.1333
2.11961
2.12184
2.13394
2.14387
2.14734
2.14185
2.13768
2.13478
2.13364
2.13792
2.14432
2.1453
2.14488
2.14208
2.13993
2.13689
2.13401
2.13511
2.17523
2.43146
3.05421
3.68876
4.07477
4.08073
4.09346
4.09916
4.08571
4.08196
4.08867
4.09898
4.10738
4.10932
4.10998
4.10984
4.10523
4.10168
4.10217
4.10436
1
1
1
1
1
1
1
1
1.00001
1.00032
1.00802
1.08732
1.50774
1.91951
2.07967
2.15444
2.15858
2.14184
2.1296
2.12742
2.13414
2.13647
2.12972
2.1271
2.13485
2.14076
2.14316
2.14213
2.14167
2.14153
2.14039
2.14173
2.14442
2.14426
2.14211
2.13917
2.13826
2.13677
2.13459
2.13537
2.13863
2.17159
2.37359
2.94491
3.68121
3.88498
4.036
4.09774
4.07639
4.07813
4.0893
4.10043
4.10945
4.11157
4.11203
4.10816
4.10201
4.10071
4.10181
4.10553
1
1
1
1
1
1
1
1
1.00023
1.00597
1.06281
1.34479
1.89292
2.07869
2.14164
2.17356
2.15938
2.14003
2.13899
2.14087
2.13689
2.13721
2.1377
2.13562
2.1376
2.14221
2.1434
2.143
2.14328
2.14333
2.14264
2.14206
2.14289
2.14246
2.14009
2.13731
2.13708
2.13699
2.13683
2.13776
2.13972
2.14192
2.16228
2.32839
2.84825
3.52059
3.96798
4.04214
4.04724
4.08543
4.09691
4.10407
4.11063
4.11336
4.11137
4.10434
4.09882
4.0999
4.10051
4.10513
1
1
1
1
1
1
1
1.00017
1.00522
1.06418
1.27529
1.80292
2.11198
2.13005
2.15608
2.18003
2.15872
2.12642
2.12484
2.13332
2.13912
2.1368
2.13503
2.13431
2.13639
2.1422
2.14382
2.14234
2.14002
2.14041
2.13963
2.13785
2.13876
2.13956
2.13851
2.13827
2.13846
2.13848
2.13879
2.14002
2.14118
2.14067
2.1409
2.15451
2.27509
2.75783
3.48368
3.79311
3.98263
4.10494
4.10444
4.10235
4.11361
4.11328
4.10598
4.09621
4.09499
4.09909
4.10035
4.10595
1
1
1
1
1
1
1.00008
1.0031
1.05446
1.30837
1.67199
2.11095
2.16315
2.13776
2.14225
2.1599
2.1437
2.1246
2.1259
2.13773
2.13938
2.13642
2.13617
2.13433
2.13626
2.13916
2.14261
2.14175
2.13884
2.1386
2.13901
2.13857
2.13926
2.1399
2.13925
2.13834
2.13798
2.13817
2.13923
2.14087
2.14122
2.14054
2.13935
2.13855
2.14658
2.25207
2.65188
3.34736
3.85733
4.06003
4.06194
4.09937
4.12308
4.11317
4.09691
4.08948
4.09332
4.0977
4.10109
4.10906
1
1
1
1
1
1.00003
1.00152
1.02847
1.27482
1.6993
2.01099
2.18047
2.18929
2.16367
2.14071
2.14038
2.13324
2.12379
2.12663
2.13662
2.13889
2.13364
2.13571
2.13689
2.13523
2.13717
2.13865
2.13782
2.13772
2.1387
2.13999
2.14086
2.14062
2.13976
2.13874
2.13793
2.13774
2.13828
2.13997
2.14117
2.14107
2.14043
2.13904
2.1375
2.13741
2.1446
2.22138
2.59513
3.24994
3.77445
3.98763
4.13203
4.12827
4.10587
4.09565
4.0937
4.09363
4.09554
4.10123
4.11326
1
1
1
1
1.00001
1.00074
1.0168
1.16005
1.68175
2.00452
2.16036
2.19036
2.17467
2.16152
2.14062
2.13075
2.12689
2.12338
2.12506
2.13352
2.13819
2.13578
2.13612
2.13806
2.13807
2.13786
2.13752
2.13778
2.13903
2.14009
2.14053
2.14032
2.13983
2.13893
2.13824
2.13813
2.1387
2.13987
2.1408
2.141
2.14073
2.13995
2.13853
2.13754
2.13748
2.13803
2.14358
2.20988
2.52742
3.19516
3.79153
4.09674
4.08451
4.09112
4.09515
4.09366
4.09067
4.09331
4.10456
4.115
1
1
1
1.00001
1.00043
1.01126
1.10526
1.54296
2.0113
2.1343
2.19551
2.18594
2.15171
2.13205
2.12505
2.12724
2.13101
2.1307
2.12718
2.13216
2.13955
2.1396
2.13882
2.13901
2.13944
2.13921
2.13802
2.13764
2.13797
2.13884
2.13922
2.13911
2.13878
2.1386
2.13856
2.139
2.14017
2.14074
2.14079
2.14068
2.14029
2.13936
2.13856
2.1384
2.13858
2.13905
2.13964
2.14394
2.19126
2.45711
3.05434
3.7277
3.92422
4.06618
4.095
4.09267
4.08491
4.09293
4.104
4.11696
1
1
1
1.00024
1.00746
1.08942
1.38469
1.99592
2.14943
2.17432
2.18884
2.18427
2.1463
2.12638
2.12542
2.12766
2.13434
2.13644
2.13537
2.13518
2.13793
2.13999
2.14025
2.14047
2.14018
2.13879
2.13758
2.13733
2.13753
2.13804
2.13821
2.13837
2.13849
2.13872
2.13932
2.14007
2.14052
2.14069
2.14066
2.14047
2.1399
2.13931
2.13923
2.13946
2.14
2.14024
2.14006
2.13987
2.14199
2.17279
2.38222
2.95354
3.61886
4.02098
4.03583
4.07955
4.08956
4.10371
4.11083
4.11879
1
1
1.00009
1.00392
1.07008
1.34809
1.83702
2.18773
2.20943
2.19576
2.18261
2.17092
2.13859
2.12328
2.12174
2.12919
2.1342
2.13523
2.13597
2.13748
2.13856
2.13861
2.13839
2.13849
2.13873
2.13841
2.13796
2.13797
2.13811
2.13838
2.13856
2.13876
2.13921
2.13959
2.13987
2.14024
2.14033
2.14018
2.14001
2.13988
2.13976
2.13975
2.13995
2.14035
2.14067
2.14065
2.14038
2.13976
2.13941
2.14054
2.16219
2.32078
2.8632
3.59499
3.82399
4.04941
4.08359
4.1154
4.11726
4.12915
1
1.00004
1.00177
1.03721
1.32274
1.74823
2.15131
2.22306
2.21255
2.18658
2.15597
2.1449
2.12999
2.12456
2.12379
2.13206
2.1376
2.13766
2.13749
2.13758
2.13784
2.13823
2.13835
2.13824
2.1385
2.13867
2.13869
2.13889
2.13919
2.13937
2.13948
2.13955
2.13958
2.13953
2.13955
2.13954
2.13943
2.13935
2.13936
2.13959
2.13997
2.1403
2.14051
2.14061
2.14066
2.1406
2.14034
2.13968
2.13941
2.13947
2.1404
2.15523
2.29824
2.77406
3.46822
3.98316
4.02823
4.10091
4.10907
4.14043
1
1.00123
1.02061
1.21633
1.74312
2.07199
2.22677
2.22552
2.20221
2.16752
2.13908
2.13166
2.1301
2.12861
2.12959
2.13494
2.13745
2.13808
2.13752
2.13708
2.13759
2.1384
2.13906
2.13897
2.13908
2.13943
2.1394
2.13933
2.13941
2.1395
2.13951
2.13939
2.13925
2.1391
2.13892
2.13883
2.13885
2.13894
2.13916
2.13958
2.14008
2.14036
2.14053
2.14062
2.14056
2.14033
2.13993
2.13952
2.13947
2.13963
2.13991
2.14059
2.1528
2.25887
2.72287
3.44862
3.77588
4.06391
4.07491
4.17189
1.00006
1.01685
1.13858
1.65544
2.05545
2.18947
2.21561
2.21107
2.18406
2.14673
2.13011
2.12888
2.13047
2.12933
2.13035
2.13486
2.13772
2.13866
2.13808
2.13744
2.13802
2.13866
2.1394
2.13957
2.13951
2.13947
2.13924
2.13888
2.13872
2.13863
2.13864
2.1388
2.13889
2.13887
2.13878
2.13871
2.13876
2.1389
2.13912
2.1395
2.14
2.14028
2.14032
2.14025
2.13993
2.13955
2.13939
2.13944
2.13959
2.13997
2.14012
2.14012
2.14047
2.14816
2.24438
2.62407
3.31271
3.95405
3.98602
4.25492
1.00357
1.11785
1.50388
2.05515
2.22472
2.23937
2.22136
2.19582
2.16241
2.1298
2.12261
2.12503
2.12833
2.12997
2.13228
2.1361
2.13818
2.13857
2.13812
2.13821
2.1388
2.13919
2.13956
2.13961
2.13944
2.1392
2.13877
2.13831
2.13811
2.13808
2.13825
2.13873
2.13894
2.13895
2.13893
2.13879
2.13873
2.13882
2.13901
2.13925
2.13959
2.13972
2.13967
2.13951
2.13931
2.1393
2.13939
2.13951
2.13974
2.14007
2.14021
2.14016
2.14009
2.14026
2.1465
2.21135
2.56197
3.27206
3.65409
4.39467
1.0642
1.43065
1.98733
2.15202
2.17964
2.17797
2.16221
2.15538
2.13385
2.105
2.10687
2.12352
2.13205
2.13401
2.13497
2.13707
2.13827
2.13844
2.13813
2.13811
2.13859
2.13909
2.13949
2.13949
2.13926
2.13893
2.13851
2.13813
2.13802
2.13809
2.13836
2.13881
2.13902
2.13905
2.13897
2.13875
2.13861
2.13862
2.13871
2.13892
2.1392
2.13935
2.13933
2.13928
2.13921
2.13924
2.13939
2.1396
2.13983
2.14004
2.14015
2.14014
2.14012
2.14017
2.14033
2.14393
2.19984
2.485
3.16217
4.48926
1.38993
1.96666
2.47734
2.4391
2.34918
2.24637
2.16811
2.13236
2.11144
2.10417
2.11348
2.12826
2.13527
2.13604
2.13645
2.13789
2.13851
2.13769
2.13731
2.13743
2.13796
2.13881
2.13947
2.13949
2.1393
2.13896
2.13857
2.13834
2.13835
2.13848
2.13872
2.13895
2.13907
2.13903
2.13865
2.13826
2.1382
2.13827
2.1385
2.13888
2.13922
2.13934
2.13933
2.13929
2.13926
2.13928
2.13938
2.1396
2.13985
2.14003
2.14007
2.14008
2.14008
2.1401
2.14022
2.1404
2.14368
2.18082
2.5047
4.02789
)
;

boundaryField
{
    top
    {
        type            zeroGradient;
    }
    inlet
    {
        type            fixedValue;
        value           uniform 1;
    }
    outlet
    {
        type            zeroGradient;
    }
    bottom
    {
        type            symmetryPlane;
    }
    frontAndBack
    {
        type            empty;
    }
}


// ************************************************************************* //
