/*--------------------------------*- C++ -*----------------------------------*\
  =========                 |
  \\      /  F ield         | OpenFOAM: The Open Source CFD Toolbox
   \\    /   O peration     | Website:  https://openfoam.org
    \\  /    A nd           | Version:  12
     \\/     M anipulation  |
\*---------------------------------------------------------------------------*/
FoamFile
{
    format      ascii;
    class       volScalarField;
    location    "8";
    object      T;
}
// * * * * * * * * * * * * * * * * * * * * * * * * * * * * * * * * * * * * * //

dimensions      [0 0 0 1 0 0 0];

internalField   nonuniform List<scalar> 
1800
(
1
1
1
1
1
1
1
1
1
1
1
1
1
1
1
1
1
1
1
1
1
1
1.00015
1.00455
1.04697
1.16626
1.29986
1.43092
1.52502
1.54802
1.53812
1.52784
1.52247
1.51755
1.51727
1.51786
1.51854
1.52058
1.52453
1.52686
1.527
1.5266
1.52547
1.52391
1.52345
1.52365
1.52429
1.52558
1.52634
1.5262
1.52589
1.52523
1.52424
1.52394
1.52405
1.5245
1.52553
1.5267
1.52708
1.52705
1
1
1
1
1
1
1
1
1
1
1
1
1
1
1
1
1
1
1
1
1
1.00011
1.00188
1.02263
1.12163
1.20695
1.26757
1.34542
1.4223
1.48474
1.51949
1.53141
1.52947
1.52331
1.52078
1.5199
1.51997
1.52169
1.52522
1.52702
1.5271
1.52681
1.52591
1.52475
1.52443
1.52452
1.5249
1.52597
1.52672
1.52665
1.52637
1.5256
1.52459
1.52436
1.52442
1.52479
1.5258
1.52693
1.52725
1.52721
1
1
1
1
1
1
1
1
1
1
1
1
1
1
1
1
1
1
1
1
1.00008
1.0019
1.01538
1.08085
1.20079
1.24405
1.24849
1.27147
1.33791
1.43508
1.49932
1.53545
1.53339
1.5282
1.52575
1.52235
1.52197
1.52378
1.5271
1.52844
1.52846
1.52837
1.5275
1.52631
1.52596
1.52592
1.52624
1.52732
1.52797
1.52794
1.52762
1.52667
1.52563
1.52541
1.52543
1.52572
1.52669
1.52773
1.52801
1.52795
1
1
1
1
1
1
1
1
1
1
1
1
1
1
1
1
1
1
1
1.00005
1.00144
1.01757
1.06658
1.17402
1.23309
1.25615
1.25728
1.25865
1.2739
1.32949
1.42296
1.51656
1.52116
1.52898
1.52973
1.5268
1.52602
1.5269
1.52874
1.52998
1.53018
1.53017
1.52955
1.52831
1.52773
1.52764
1.52813
1.52916
1.52944
1.52941
1.52914
1.52829
1.52731
1.52708
1.5271
1.52737
1.52824
1.52905
1.52925
1.52913
1
1
1
1
1
1
1
1
1
1
1
1
1
1
1
1
1
1
1.00002
1.00078
1.0139
1.0749
1.15324
1.23091
1.24735
1.25736
1.26013
1.25959
1.26073
1.27055
1.32191
1.42742
1.49416
1.53421
1.53125
1.52842
1.52981
1.52969
1.5298
1.53051
1.53119
1.53128
1.53068
1.52961
1.52892
1.5289
1.52978
1.53091
1.53103
1.53098
1.5306
1.52979
1.52908
1.52894
1.52897
1.52923
1.53
1.53051
1.53067
1.53052
1
1
1
1
1
1
1
1
1
1
1
1
1
1
1
1
1
1.00002
1.0005
1.00751
1.0693
1.15998
1.22138
1.25003
1.25555
1.26036
1.2607
1.26127
1.26116
1.26055
1.26718
1.3081
1.40784
1.50097
1.51268
1.5292
1.53324
1.53144
1.53021
1.53058
1.53135
1.53164
1.53118
1.53045
1.52978
1.52998
1.5312
1.53199
1.53212
1.53209
1.53167
1.53089
1.53052
1.53056
1.5307
1.53105
1.53164
1.53181
1.5319
1.5317
1
1
1
1
1
1
1
1
1
1
1
1
1
1
1
1
1.00002
1.00047
1.00645
1.04438
1.16009
1.22831
1.25602
1.2586
1.25717
1.2572
1.2588
1.26082
1.26158
1.26115
1.26107
1.26537
1.3023
1.39322
1.47497
1.53175
1.53145
1.53001
1.53164
1.53164
1.53163
1.53173
1.53155
1.53109
1.53068
1.53111
1.53228
1.53279
1.53297
1.53296
1.53245
1.53186
1.53178
1.53191
1.5322
1.53275
1.53307
1.53302
1.53293
1.53258
1
1
1
1
1
1
1
1
1
1
1
1
1
1
1
1.00001
1.00036
1.00645
1.03806
1.13389
1.2234
1.25581
1.26267
1.2602
1.25722
1.25548
1.25706
1.2602
1.26112
1.26132
1.26099
1.26093
1.26423
1.29235
1.386
1.48758
1.51336
1.52768
1.53445
1.53302
1.53248
1.5322
1.53168
1.53134
1.5315
1.53228
1.53334
1.53376
1.53393
1.53374
1.53317
1.53291
1.53292
1.53311
1.53371
1.5343
1.53433
1.53409
1.5338
1.53327
1
1
1
1
1
1
1
1
1
1
1
1
1
1
1
1.00016
1.00365
1.03833
1.11293
1.21192
1.24552
1.25922
1.26357
1.26144
1.25839
1.25864
1.25954
1.26077
1.26087
1.26069
1.26097
1.26107
1.26114
1.26374
1.29265
1.37783
1.47045
1.52806
1.5313
1.53149
1.53306
1.53249
1.53126
1.53151
1.53225
1.53355
1.53451
1.53486
1.53501
1.53466
1.53412
1.53394
1.53391
1.53426
1.5351
1.53542
1.53523
1.53481
1.53423
1.53344
1
1
1
1
1
1
1
1
1
1
1
1
1
1
1.00006
1.00152
1.02366
1.11138
1.19614
1.24151
1.25612
1.26347
1.26408
1.26386
1.26178
1.26137
1.26116
1.26021
1.25994
1.26001
1.26081
1.26247
1.26231
1.26239
1.26514
1.28844
1.37212
1.47435
1.50683
1.52667
1.53591
1.53205
1.53094
1.53213
1.53336
1.53458
1.53535
1.53554
1.5355
1.53501
1.53451
1.53444
1.53454
1.53517
1.53589
1.53594
1.53563
1.53511
1.53439
1.53366
1
1
1
1
1
1
1
1
1
1
1
1
1
1.00004
1.00107
1.01251
1.08831
1.19427
1.246
1.2542
1.25658
1.25904
1.2601
1.26197
1.26263
1.26174
1.26175
1.26009
1.25965
1.26048
1.26199
1.26383
1.26409
1.26375
1.26373
1.26576
1.28648
1.35701
1.455
1.51476
1.53198
1.52804
1.53176
1.53413
1.53449
1.53564
1.53625
1.53615
1.53574
1.535
1.53463
1.53469
1.53496
1.53567
1.53616
1.53608
1.53571
1.53518
1.53447
1.53385
1
1
1
1
1
1
1
1
1
1
1
1
1.00003
1.00105
1.01175
1.06605
1.18397
1.24348
1.25821
1.25985
1.25802
1.25699
1.25811
1.25918
1.26214
1.2627
1.26192
1.26205
1.26121
1.26164
1.26311
1.26403
1.26518
1.26528
1.26494
1.26504
1.26657
1.28136
1.34833
1.43798
1.49814
1.51956
1.53683
1.53612
1.53434
1.53593
1.5364
1.5361
1.5352
1.53424
1.53417
1.53433
1.53485
1.53563
1.53594
1.53581
1.53548
1.53493
1.53425
1.5339
1
1
1
1
1
1
1
1
1
1
1
1.00003
1.00087
1.01327
1.06285
1.16266
1.24439
1.25756
1.26063
1.26257
1.26191
1.25797
1.25813
1.25883
1.261
1.26407
1.26405
1.26413
1.26326
1.26263
1.26303
1.26401
1.26563
1.26638
1.26637
1.26619
1.26516
1.26531
1.27687
1.32702
1.42562
1.49991
1.53028
1.52873
1.53159
1.53591
1.53595
1.53507
1.53376
1.5331
1.53326
1.53361
1.53425
1.53494
1.53503
1.53494
1.53476
1.5342
1.53344
1.53333
1
1
1
1
1
1
1
1
1
1
1.00001
1.00049
1.00897
1.06906
1.15067
1.22959
1.26485
1.26375
1.2638
1.26412
1.26411
1.25969
1.2575
1.25818
1.26084
1.26529
1.2663
1.26611
1.26499
1.2632
1.26302
1.2642
1.26597
1.26671
1.26696
1.26669
1.2652
1.2629
1.2624
1.27013
1.31632
1.41161
1.49056
1.51244
1.52946
1.53567
1.53437
1.53301
1.5315
1.53097
1.53137
1.53207
1.5329
1.53333
1.53334
1.53334
1.53305
1.5325
1.53221
1.53231
1
1
1
1
1
1
1
1
1
1
1.00019
1.00428
1.04745
1.15975
1.22086
1.25363
1.26397
1.26235
1.26215
1.26241
1.26234
1.26015
1.25819
1.25899
1.26243
1.26626
1.26761
1.26676
1.26574
1.26468
1.26424
1.26503
1.26646
1.26664
1.26641
1.26547
1.26408
1.26208
1.26016
1.25991
1.26627
1.3088
1.40116
1.48213
1.52554
1.52716
1.52886
1.53031
1.52907
1.52828
1.52879
1.52982
1.53093
1.53131
1.53147
1.53141
1.53079
1.53043
1.53052
1.53087
1
1
1
1
1
1
1
1
1
1.00009
1.00231
1.025
1.13671
1.22583
1.24587
1.25875
1.26266
1.26189
1.26233
1.26247
1.2632
1.26314
1.26172
1.26136
1.26316
1.26595
1.26744
1.26736
1.26699
1.26631
1.26526
1.26506
1.26498
1.26471
1.264
1.2629
1.26189
1.26038
1.25877
1.25846
1.25873
1.26416
1.2981
1.38504
1.4799
1.50295
1.51965
1.52804
1.52617
1.52641
1.5273
1.52828
1.52932
1.52979
1.53003
1.52968
1.52888
1.52868
1.52882
1.52937
1
1
1
1
1
1
1
1
1.00007
1.00172
1.01812
1.09331
1.22133
1.25433
1.26001
1.26501
1.26261
1.2616
1.26351
1.26577
1.2657
1.26559
1.2652
1.26446
1.26481
1.26628
1.26738
1.26741
1.26721
1.26651
1.26522
1.26363
1.26252
1.26184
1.26104
1.26022
1.2597
1.25894
1.25825
1.25811
1.25831
1.25867
1.26218
1.29042
1.37107
1.46021
1.51158
1.52051
1.52184
1.52654
1.5272
1.52763
1.5284
1.52895
1.52889
1.52823
1.5275
1.52756
1.52764
1.52828
1
1
1
1
1
1
1
1.00005
1.00151
1.01874
1.07547
1.19501
1.26127
1.26331
1.26529
1.26794
1.26395
1.26047
1.26149
1.26509
1.26734
1.26702
1.26627
1.26549
1.26536
1.26606
1.26627
1.26591
1.26508
1.26444
1.26305
1.26096
1.25976
1.2593
1.25885
1.25872
1.25864
1.2584
1.25822
1.25827
1.25844
1.2584
1.25853
1.26097
1.28159
1.35844
1.45577
1.49184
1.51428
1.52795
1.52768
1.52707
1.52834
1.52845
1.52784
1.52679
1.52659
1.52697
1.52716
1.52789
1
1
1
1
1
1
1.00002
1.00089
1.01598
1.08567
1.1655
1.25195
1.26866
1.26533
1.26574
1.26752
1.26421
1.26212
1.26291
1.26638
1.26768
1.26741
1.2669
1.26579
1.265
1.26412
1.26366
1.26297
1.26197
1.26138
1.26056
1.25929
1.25853
1.25833
1.25814
1.25803
1.25803
1.25808
1.25821
1.25846
1.25853
1.25847
1.25838
1.25838
1.25977
1.27789
1.34221
1.43837
1.5009
1.5234
1.52311
1.52672
1.52928
1.52837
1.52682
1.52597
1.52632
1.5267
1.5271
1.52806
1
1
1
1
1
1.00001
1.00043
1.00822
1.07816
1.17651
1.23105
1.26691
1.27246
1.27011
1.26752
1.26727
1.26563
1.26369
1.26419
1.26627
1.26707
1.2662
1.26608
1.26524
1.26318
1.26141
1.26014
1.25938
1.25908
1.25902
1.25891
1.25866
1.25827
1.25797
1.25786
1.25784
1.25788
1.25807
1.25845
1.25869
1.25869
1.25863
1.25846
1.25828
1.25828
1.25954
1.27267
1.33357
1.42632
1.49108
1.51479
1.53017
1.52984
1.52774
1.52685
1.52657
1.52646
1.52657
1.52721
1.52857
1
1
1
1
1
1.00021
1.00484
1.04553
1.17749
1.23754
1.26191
1.27188
1.27036
1.27064
1.26937
1.26765
1.26635
1.26443
1.26417
1.26482
1.26483
1.26393
1.26323
1.2624
1.26083
1.25907
1.25797
1.25782
1.25797
1.25817
1.25825
1.25821
1.25808
1.25791
1.25787
1.25797
1.25822
1.25855
1.25877
1.25883
1.2588
1.25869
1.25847
1.25836
1.25837
1.25848
1.25942
1.27075
1.32282
1.41919
1.49311
1.52711
1.52566
1.52648
1.527
1.52678
1.52632
1.52653
1.52778
1.52895
1
1
1
1
1.00012
1.00324
1.03014
1.14213
1.24351
1.26334
1.27412
1.2729
1.26788
1.267
1.26731
1.26753
1.26715
1.2654
1.26281
1.2619
1.26146
1.26066
1.25989
1.25934
1.25871
1.25796
1.25739
1.25735
1.2575
1.25784
1.25806
1.25811
1.25813
1.25816
1.25821
1.25836
1.25868
1.25885
1.25889
1.25888
1.25882
1.25865
1.25852
1.2585
1.25856
1.25866
1.25876
1.25949
1.26756
1.31191
1.40037
1.48572
1.50775
1.52391
1.52719
1.52684
1.52589
1.52668
1.52791
1.52939
1
1
1
1.00007
1.00214
1.02569
1.10352
1.23752
1.26925
1.27396
1.27612
1.27505
1.26893
1.26596
1.26544
1.26535
1.26513
1.26362
1.26104
1.25876
1.258
1.25789
1.25788
1.25791
1.25786
1.25754
1.2573
1.25733
1.25751
1.25784
1.25809
1.25826
1.25836
1.25846
1.25858
1.25872
1.25883
1.25892
1.25893
1.25891
1.25878
1.25865
1.25862
1.25866
1.25877
1.25883
1.25882
1.2588
1.25915
1.26441
1.2997
1.38627
1.47248
1.51944
1.52129
1.52607
1.5267
1.528
1.52889
1.52991
1
1
1.00003
1.00112
1.02028
1.09507
1.20458
1.27494
1.28147
1.27914
1.27697
1.27465
1.26841
1.26267
1.26054
1.2607
1.26019
1.25908
1.25781
1.25702
1.25678
1.25684
1.257
1.25727
1.25755
1.25768
1.25777
1.2579
1.25805
1.25826
1.25844
1.25856
1.25866
1.25871
1.25874
1.25882
1.25884
1.25884
1.25883
1.25881
1.25877
1.25874
1.25875
1.25879
1.25887
1.25887
1.25885
1.25877
1.25871
1.25889
1.26257
1.2894
1.37371
1.47003
1.49714
1.52347
1.52647
1.52939
1.52978
1.53134
1
1.00001
1.0005
1.01075
1.08985
1.18897
1.26779
1.28371
1.28227
1.2781
1.27174
1.26772
1.26288
1.25801
1.25591
1.25642
1.25687
1.25683
1.2567
1.25656
1.25662
1.25689
1.25724
1.25759
1.25796
1.25824
1.25839
1.2585
1.25859
1.25866
1.25873
1.25877
1.25878
1.25874
1.2587
1.25868
1.25866
1.25866
1.25868
1.25875
1.25882
1.25886
1.25887
1.25885
1.25883
1.25882
1.25878
1.2587
1.25869
1.2587
1.25884
1.26134
1.28566
1.36024
1.45425
1.51685
1.52111
1.528
1.52899
1.53281
1
1.00034
1.00589
1.06157
1.19175
1.25801
1.28447
1.28428
1.27988
1.27236
1.26447
1.25967
1.25681
1.25434
1.254
1.25479
1.25576
1.25634
1.25663
1.25698
1.25745
1.25793
1.25827
1.25842
1.25859
1.25875
1.25875
1.25873
1.25874
1.25876
1.25876
1.25874
1.25871
1.25866
1.25858
1.25853
1.25853
1.25854
1.25861
1.25873
1.25885
1.25889
1.25889
1.25888
1.25883
1.25875
1.25867
1.25862
1.25863
1.25868
1.25873
1.25883
1.26089
1.27892
1.35325
1.45283
1.49197
1.52393
1.52537
1.53683
1.00002
1.00475
1.04023
1.17347
1.25943
1.28094
1.28065
1.2784
1.27058
1.26049
1.25537
1.25383
1.25358
1.25321
1.2536
1.25487
1.25644
1.25734
1.25772
1.25802
1.25839
1.25868
1.25885
1.25889
1.25888
1.25888
1.25881
1.25866
1.25857
1.25854
1.25853
1.25858
1.25862
1.25861
1.25857
1.25852
1.25851
1.25852
1.25856
1.25867
1.25881
1.25887
1.25887
1.25884
1.25873
1.25861
1.25856
1.25856
1.25858
1.25867
1.25871
1.25871
1.25876
1.26006
1.27655
1.33798
1.43475
1.51248
1.51622
1.54664
1.00083
1.03462
1.14171
1.26238
1.28997
1.28579
1.27758
1.26734
1.2566
1.24925
1.24981
1.2514
1.25316
1.2546
1.25603
1.25746
1.25827
1.25851
1.25856
1.25866
1.25883
1.25888
1.25892
1.25892
1.25888
1.25881
1.25868
1.2585
1.2584
1.25838
1.2584
1.25851
1.25861
1.25864
1.25864
1.2586
1.25855
1.25853
1.25853
1.25856
1.25865
1.2587
1.25869
1.25867
1.25861
1.25857
1.25855
1.25855
1.25856
1.25862
1.25866
1.25866
1.25864
1.25866
1.25971
1.27078
1.32853
1.42986
1.47914
1.55778
1.01576
1.13289
1.25723
1.27804
1.27315
1.26493
1.25693
1.25268
1.24782
1.24609
1.24859
1.25405
1.25674
1.2579
1.25861
1.25919
1.25911
1.25896
1.25881
1.25878
1.25878
1.2587
1.25869
1.25869
1.25866
1.25863
1.25855
1.25843
1.25836
1.25835
1.25839
1.25849
1.2586
1.25867
1.2587
1.25867
1.25861
1.25856
1.2585
1.25849
1.25852
1.25855
1.25856
1.25856
1.25855
1.25855
1.25855
1.25855
1.25856
1.25858
1.2586
1.2586
1.2586
1.25859
1.2586
1.25918
1.26877
1.31615
1.4201
1.55598
1.14591
1.28679
1.31798
1.29901
1.27581
1.26001
1.25107
1.24785
1.24948
1.25352
1.25693
1.25883
1.259
1.25913
1.25929
1.25935
1.25916
1.25877
1.2586
1.25859
1.25858
1.25854
1.25854
1.25854
1.25854
1.25853
1.25852
1.25849
1.25847
1.25847
1.25849
1.25852
1.25857
1.25861
1.25861
1.25858
1.25855
1.25854
1.25851
1.2585
1.2585
1.25852
1.25852
1.25853
1.25853
1.25853
1.25854
1.25855
1.25855
1.25855
1.25855
1.25855
1.25855
1.25854
1.25854
1.25854
1.25886
1.26274
1.29927
1.40553
)
;

boundaryField
{
    top
    {
        type            fixedValue;
        value           uniform 1.25853;
    }
    inlet
    {
        type            fixedValue;
        value           uniform 1;
    }
    outlet
    {
        type            zeroGradient;
    }
    bottom
    {
        type            symmetryPlane;
    }
    frontAndBack
    {
        type            empty;
    }
}


// ************************************************************************* //
