/*--------------------------------*- C++ -*----------------------------------*\
  =========                 |
  \\      /  F ield         | OpenFOAM: The Open Source CFD Toolbox
   \\    /   O peration     | Website:  https://openfoam.org
    \\  /    A nd           | Version:  12
     \\/     M anipulation  |
\*---------------------------------------------------------------------------*/
FoamFile
{
    format      ascii;
    class       volVectorField;
    location    "8";
    object      U;
}
// * * * * * * * * * * * * * * * * * * * * * * * * * * * * * * * * * * * * * //

dimensions      [0 1 -1 0 0 0 0];

internalField   nonuniform List<vector> 
1800
(
(2.9 1.41604e-14 0)
(2.9 3.54181e-14 0)
(2.9 6.21602e-14 0)
(2.9 7.35335e-14 0)
(2.9 8.40076e-14 0)
(2.9 7.26324e-14 0)
(2.9 1.94056e-15 0)
(2.9 -7.17865e-15 0)
(2.9 -3.26218e-14 0)
(2.9 -3.46034e-14 0)
(2.9 5.34484e-15 0)
(2.9 -4.63292e-14 0)
(2.9 -1.68717e-14 0)
(2.9 -5.94472e-14 0)
(2.9 -1.19027e-14 0)
(2.9 1.17932e-13 0)
(2.9 2.10765e-13 0)
(2.9 7.88044e-14 0)
(2.9 -5.04438e-12 0)
(2.9 -5.8907e-10 0)
(2.9 -5.81439e-08 0)
(2.89999 -5.70101e-06 0)
(2.89979 -0.000196884 0)
(2.89345 -0.0047445 0)
(2.84301 -0.0534302 0)
(2.73268 -0.184702 0)
(2.63939 -0.186162 0)
(2.51615 -0.217264 0)
(2.42768 -0.138938 0)
(2.36563 -0.0556104 0)
(2.36927 -0.00826016 0)
(2.38935 0.00528182 0)
(2.39212 0.00558072 0)
(2.38781 0.00318283 0)
(2.38387 -0.00192851 0)
(2.38411 -0.0038358 0)
(2.38749 -0.00386486 0)
(2.39205 -0.0011443 0)
(2.39706 0.000357013 0)
(2.40059 -6.49314e-05 0)
(2.40135 -0.000614043 0)
(2.40184 -0.000937787 0)
(2.40059 -0.000906583 0)
(2.39701 -0.000735178 0)
(2.39541 -0.000488938 0)
(2.39541 -0.000247423 0)
(2.39664 0.00017162 0)
(2.40025 0.000409865 0)
(2.40294 0.000483597 0)
(2.40357 0.000485762 0)
(2.40393 0.000383444 0)
(2.40285 7.99375e-05 0)
(2.40092 -0.00027124 0)
(2.40032 -0.00038204 0)
(2.4002 -0.000390758 0)
(2.40013 -0.000333484 0)
(2.40103 -0.000240399 0)
(2.40265 -0.000155393 0)
(2.40287 -0.00017447 0)
(2.4023 -0.000165672 0)
(2.9 -9.29747e-15 0)
(2.9 5.77833e-14 0)
(2.9 4.94638e-14 0)
(2.9 1.10345e-13 0)
(2.9 7.98386e-14 0)
(2.9 3.29614e-14 0)
(2.9 1.88009e-15 0)
(2.9 3.33908e-14 0)
(2.9 -4.5884e-15 0)
(2.9 3.2517e-14 0)
(2.9 7.27464e-14 0)
(2.9 -4.08254e-14 0)
(2.9 -6.87385e-14 0)
(2.9 -1.27653e-13 0)
(2.9 -7.86206e-14 0)
(2.9 9.32794e-14 0)
(2.9 -6.03185e-14 0)
(2.9 -1.41487e-11 0)
(2.9 -1.12425e-09 0)
(2.9 -9.90983e-08 0)
(2.9 -5.3235e-06 0)
(2.89988 -0.000278704 0)
(2.89833 -0.00373344 0)
(2.87369 -0.0509023 0)
(2.78286 -0.213633 0)
(2.70261 -0.442176 0)
(2.65737 -0.450724 0)
(2.57989 -0.295464 0)
(2.47227 -0.0572102 0)
(2.40557 0.00793517 0)
(2.38573 0.0231237 0)
(2.40132 0.00650487 0)
(2.40411 0.00495411 0)
(2.40445 0.00318592 0)
(2.39889 -0.006493 0)
(2.3969 -0.00925151 0)
(2.39775 -0.0079627 0)
(2.39938 -0.00228086 0)
(2.40245 0.00161951 0)
(2.40443 0.00111426 0)
(2.40472 0.000243952 0)
(2.40456 -0.000448444 0)
(2.40271 -0.00130872 0)
(2.39943 -0.00188913 0)
(2.39809 -0.00154407 0)
(2.39802 -0.000950344 0)
(2.39903 0.000243571 0)
(2.40194 0.00140842 0)
(2.40415 0.0013759 0)
(2.40465 0.00114165 0)
(2.40486 0.000824842 0)
(2.40359 0.000144484 0)
(2.40161 -0.000812915 0)
(2.40119 -0.00105745 0)
(2.40115 -0.00103426 0)
(2.40117 -0.000801154 0)
(2.40198 -0.000369188 0)
(2.40328 -0.000110445 0)
(2.40331 -9.52134e-05 0)
(2.40274 -7.44777e-05 0)
(2.9 -2.78848e-14 0)
(2.9 7.75806e-15 0)
(2.9 -3.63809e-14 0)
(2.9 -1.94039e-14 0)
(2.9 1.05134e-15 0)
(2.9 -6.60781e-14 0)
(2.9 -3.90525e-14 0)
(2.9 -2.98947e-14 0)
(2.9 -2.63582e-14 0)
(2.9 -8.29306e-14 0)
(2.9 -1.02672e-13 0)
(2.9 -5.70675e-14 0)
(2.9 -5.63457e-14 0)
(2.9 -2.75813e-14 0)
(2.9 -4.51692e-14 0)
(2.9 -2.01338e-13 0)
(2.9 -6.25421e-12 0)
(2.9 -6.42231e-10 0)
(2.9 -6.01952e-08 0)
(2.9 -4.82988e-06 0)
(2.89992 -0.000187028 0)
(2.8983 -0.00421176 0)
(2.88543 -0.035502 0)
(2.82689 -0.151698 0)
(2.6818 -0.377319 0)
(2.61896 -0.531123 0)
(2.62665 -0.509053 0)
(2.62207 -0.460883 0)
(2.59796 -0.343522 0)
(2.56718 -0.199129 0)
(2.48899 -0.0523316 0)
(2.42847 -0.0111912 0)
(2.42564 0.00223776 0)
(2.41875 0.00970079 0)
(2.41376 -0.00230566 0)
(2.41042 -0.00676515 0)
(2.41013 -0.00514213 0)
(2.40962 -0.00159689 0)
(2.41053 0.00154275 0)
(2.41083 0.000471336 0)
(2.41029 -0.000445144 0)
(2.40912 -0.00135416 0)
(2.40617 -0.00201429 0)
(2.40303 -0.0023543 0)
(2.40226 -0.00193201 0)
(2.40241 -0.00125919 0)
(2.40342 0.000235482 0)
(2.40544 0.00191241 0)
(2.40676 0.00214409 0)
(2.40691 0.00184511 0)
(2.40674 0.00120083 0)
(2.40524 9.51593e-05 0)
(2.40321 -0.00109363 0)
(2.40279 -0.0014663 0)
(2.40282 -0.00142716 0)
(2.40302 -0.000930338 0)
(2.40384 -0.00032903 0)
(2.40479 -0.000258313 0)
(2.40467 -0.000378588 0)
(2.40411 -0.000328294 0)
(2.9 -8.28986e-16 0)
(2.9 5.93562e-15 0)
(2.9 -1.7198e-14 0)
(2.9 -3.77579e-14 0)
(2.9 3.28831e-14 0)
(2.9 -1.61999e-15 0)
(2.9 -2.42706e-14 0)
(2.9 -1.09765e-13 0)
(2.9 -1.0345e-13 0)
(2.9 -6.56012e-14 0)
(2.9 -5.2603e-14 0)
(2.9 -2.10309e-14 0)
(2.9 -1.32173e-14 0)
(2.9 2.20133e-14 0)
(2.9 -8.08688e-15 0)
(2.9 -9.26041e-13 0)
(2.9 -1.13478e-10 0)
(2.9 -1.65296e-08 0)
(2.9 -1.91451e-06 0)
(2.89995 -0.000116953 0)
(2.89869 -0.00332137 0)
(2.88455 -0.0377979 0)
(2.83968 -0.152079 0)
(2.77191 -0.301345 0)
(2.63488 -0.503938 0)
(2.59322 -0.537416 0)
(2.59751 -0.520619 0)
(2.60865 -0.499906 0)
(2.61499 -0.46263 0)
(2.60817 -0.3573 0)
(2.52848 -0.128538 0)
(2.45568 -0.0435951 0)
(2.43572 0.0260565 0)
(2.41503 0.0151945 0)
(2.40902 -0.000939845 0)
(2.41277 -0.00230706 0)
(2.4139 -0.00145015 0)
(2.41384 -0.000402681 0)
(2.41465 0.00082445 0)
(2.41542 -0.000442531 0)
(2.41501 -0.000683682 0)
(2.41325 -0.000878946 0)
(2.40927 -0.00187503 0)
(2.40582 -0.00234163 0)
(2.40529 -0.00164141 0)
(2.40578 -0.00076044 0)
(2.40715 0.000965313 0)
(2.40876 0.00264649 0)
(2.40908 0.00282913 0)
(2.40894 0.00254577 0)
(2.40844 0.00157309 0)
(2.40681 -0.000136115 0)
(2.40479 -0.00155054 0)
(2.4043 -0.00189042 0)
(2.40431 -0.00172905 0)
(2.40468 -0.00100959 0)
(2.40579 -0.000269462 0)
(2.40633 -0.000367655 0)
(2.40601 -0.000477359 0)
(2.40545 -0.000323416 0)
(2.9 2.55872e-14 0)
(2.9 2.93802e-14 0)
(2.9 5.66753e-14 0)
(2.9 8.23923e-14 0)
(2.9 1.09802e-13 0)
(2.9 1.04879e-13 0)
(2.9 1.83726e-14 0)
(2.9 -4.85458e-14 0)
(2.9 -5.9656e-14 0)
(2.9 9.81624e-16 0)
(2.9 3.11414e-14 0)
(2.9 3.43001e-14 0)
(2.9 3.2814e-14 0)
(2.9 4.9728e-14 0)
(2.9 -2.58442e-14 0)
(2.9 -3.17164e-11 0)
(2.9 -4.77592e-09 0)
(2.9 -6.88628e-07 0)
(2.89998 -4.76425e-05 0)
(2.89914 -0.0018217 0)
(2.88867 -0.0288033 0)
(2.82839 -0.165944 0)
(2.76364 -0.314158 0)
(2.71194 -0.417962 0)
(2.65669 -0.509099 0)
(2.60331 -0.529771 0)
(2.58918 -0.521278 0)
(2.59726 -0.504483 0)
(2.60712 -0.498248 0)
(2.61178 -0.479808 0)
(2.59009 -0.395139 0)
(2.52465 -0.213035 0)
(2.44507 -0.0270573 0)
(2.41273 -0.0219489 0)
(2.41274 -0.0108236 0)
(2.41062 0.00219116 0)
(2.40887 0.000419651 0)
(2.41047 0.000109212 0)
(2.413 -0.000286186 0)
(2.41436 -0.000892302 0)
(2.41416 -0.00064628 0)
(2.41224 -0.000195885 0)
(2.40842 -0.00126961 0)
(2.40592 -0.00160565 0)
(2.40588 -0.00108576 0)
(2.40663 -0.000279991 0)
(2.40813 0.00147725 0)
(2.40905 0.00268244 0)
(2.40856 0.0025771 0)
(2.40834 0.00219593 0)
(2.40786 0.00139836 0)
(2.40643 -0.000260451 0)
(2.40469 -0.00162742 0)
(2.40425 -0.00181186 0)
(2.4043 -0.00160258 0)
(2.40498 -0.000903638 0)
(2.40641 -0.000186843 0)
(2.40644 -0.00032107 0)
(2.40602 -0.000427683 0)
(2.40537 -0.000283505 0)
(2.9 1.53027e-14 0)
(2.9 1.98055e-14 0)
(2.9 5.8055e-14 0)
(2.9 3.72251e-14 0)
(2.9 1.32709e-14 0)
(2.9 1.4638e-14 0)
(2.9 -4.18814e-14 0)
(2.9 -3.64729e-14 0)
(2.9 -5.46691e-14 0)
(2.9 -5.22789e-14 0)
(2.9 5.22618e-14 0)
(2.9 7.5677e-14 0)
(2.9 1.05336e-13 0)
(2.9 -3.12914e-13 0)
(2.9 -7.31817e-11 0)
(2.9 -8.73816e-09 0)
(2.9 -6.72753e-07 0)
(2.89999 -3.61837e-05 0)
(2.89954 -0.00109699 0)
(2.89226 -0.0184709 0)
(2.84856 -0.112642 0)
(2.71634 -0.381638 0)
(2.67586 -0.434719 0)
(2.66856 -0.469464 0)
(2.65396 -0.497166 0)
(2.63148 -0.511958 0)
(2.60502 -0.510747 0)
(2.60184 -0.503065 0)
(2.6045 -0.501342 0)
(2.60715 -0.504685 0)
(2.60778 -0.493616 0)
(2.58577 -0.414173 0)
(2.50326 -0.217241 0)
(2.44002 -0.0943006 0)
(2.42346 0.0144573 0)
(2.39875 0.000879145 0)
(2.39915 -0.00250601 0)
(2.40516 0.00204769 0)
(2.40625 0.00150903 0)
(2.40688 -0.00112236 0)
(2.40661 -0.00229175 0)
(2.40445 -0.00234913 0)
(2.40209 -0.0022717 0)
(2.40157 -0.00180915 0)
(2.40213 -0.0011129 0)
(2.40379 0.000124441 0)
(2.40518 0.00192387 0)
(2.40512 0.00263448 0)
(2.40465 0.00249993 0)
(2.40432 0.00191997 0)
(2.40387 0.00105051 0)
(2.40277 -0.000420686 0)
(2.40172 -0.0012768 0)
(2.40157 -0.00134058 0)
(2.40176 -0.00132733 0)
(2.40293 -0.000844255 0)
(2.40438 -0.00010124 0)
(2.40418 2.05075e-05 0)
(2.40389 -5.07492e-05 0)
(2.40313 -0.000124328 0)
(2.9 1.7234e-14 0)
(2.9 1.69615e-14 0)
(2.9 -1.8442e-14 0)
(2.9 -5.22396e-15 0)
(2.9 -8.41135e-15 0)
(2.9 -3.58443e-14 0)
(2.9 -2.05344e-14 0)
(2.9 -9.55679e-14 0)
(2.9 -8.93232e-14 0)
(2.9 8.35863e-16 0)
(2.9 5.44737e-14 0)
(2.9 1.1398e-13 0)
(2.9 -3.67095e-13 0)
(2.9 -8.37318e-11 0)
(2.9 -1.01044e-08 0)
(2.9 -8.36227e-07 0)
(2.89998 -4.07642e-05 0)
(2.89961 -0.0011069 0)
(2.8941 -0.0147831 0)
(2.87117 -0.088463 0)
(2.73705 -0.318451 0)
(2.63542 -0.490165 0)
(2.61619 -0.466262 0)
(2.63813 -0.491044 0)
(2.64563 -0.504603 0)
(2.64044 -0.508553 0)
(2.62594 -0.50685 0)
(2.61103 -0.500359 0)
(2.60554 -0.501271 0)
(2.60527 -0.505994 0)
(2.60921 -0.511645 0)
(2.60914 -0.501128 0)
(2.58383 -0.426088 0)
(2.5181 -0.249235 0)
(2.43601 -0.0528248 0)
(2.40627 -0.0490126 0)
(2.40486 -0.0113016 0)
(2.40124 0.00709199 0)
(2.39872 0.00250568 0)
(2.39911 -0.000440871 0)
(2.39871 -0.00131234 0)
(2.39614 -0.002575 0)
(2.39526 -0.00244294 0)
(2.3953 -0.0020688 0)
(2.39634 -0.00160309 0)
(2.3986 0.000161282 0)
(2.39966 0.00230431 0)
(2.39952 0.00270442 0)
(2.39914 0.00258016 0)
(2.39862 0.00166294 0)
(2.39794 0.000391731 0)
(2.39727 -0.000478569 0)
(2.397 -0.000702238 0)
(2.39704 -0.00084713 0)
(2.39758 -0.000986087 0)
(2.39904 -0.00053398 0)
(2.40008 0.000131323 0)
(2.40019 0.000255473 0)
(2.40017 0.000195484 0)
(2.39945 -0.00010366 0)
(2.9 2.11325e-14 0)
(2.9 -1.96629e-15 0)
(2.9 -2.95967e-14 0)
(2.9 1.86901e-14 0)
(2.9 8.77057e-15 0)
(2.9 -5.68563e-14 0)
(2.9 -5.64378e-14 0)
(2.9 -8.31876e-14 0)
(2.9 -5.7745e-15 0)
(2.9 7.44173e-14 0)
(2.9 5.19317e-14 0)
(2.9 6.29972e-15 0)
(2.9 -2.46396e-11 0)
(2.9 -4.37166e-09 0)
(2.9 -3.81563e-07 0)
(2.89999 -2.56005e-05 0)
(2.89965 -0.000871005 0)
(2.89496 -0.0131053 0)
(2.86229 -0.0959931 0)
(2.8321 -0.229607 0)
(2.68068 -0.446487 0)
(2.59047 -0.532831 0)
(2.56782 -0.506683 0)
(2.59953 -0.504262 0)
(2.62798 -0.508086 0)
(2.63537 -0.508331 0)
(2.633 -0.501336 0)
(2.62452 -0.494741 0)
(2.61354 -0.495853 0)
(2.60904 -0.507081 0)
(2.61026 -0.514854 0)
(2.61088 -0.514519 0)
(2.60898 -0.499943 0)
(2.59332 -0.441535 0)
(2.51535 -0.262349 0)
(2.45549 -0.121643 0)
(2.41476 0.0126141 0)
(2.40131 0.00522622 0)
(2.39495 -0.00235723 0)
(2.39531 -0.00286193 0)
(2.39381 -0.00220869 0)
(2.39166 -0.00288927 0)
(2.39119 -0.00162228 0)
(2.39116 -0.00154857 0)
(2.39182 -0.00186477 0)
(2.39406 -6.89674e-05 0)
(2.3956 0.00231835 0)
(2.39555 0.0028461 0)
(2.39493 0.00253012 0)
(2.39386 0.000992044 0)
(2.39307 -0.000488525 0)
(2.39285 -0.000662732 0)
(2.39295 -0.000529862 0)
(2.39325 -0.00065366 0)
(2.39423 -0.000698904 0)
(2.39554 -0.000124592 0)
(2.39608 0.000271916 0)
(2.39645 0.000471865 0)
(2.39667 0.000550689 0)
(2.39607 -6.11538e-05 0)
(2.9 -2.20909e-14 0)
(2.9 -5.61123e-14 0)
(2.9 -1.112e-14 0)
(2.9 -6.63999e-15 0)
(2.9 -4.85801e-14 0)
(2.9 -3.44576e-14 0)
(2.9 -6.96107e-14 0)
(2.9 -8.39839e-14 0)
(2.9 -4.28386e-14 0)
(2.9 6.99968e-14 0)
(2.9 1.07382e-13 0)
(2.9 -3.08004e-12 0)
(2.9 -7.32406e-10 0)
(2.9 -9.66624e-08 0)
(2.9 -8.3525e-06 0)
(2.89983 -0.000331036 0)
(2.89634 -0.00868149 0)
(2.86331 -0.0779666 0)
(2.79266 -0.253273 0)
(2.75852 -0.383998 0)
(2.65202 -0.502066 0)
(2.6013 -0.519453 0)
(2.58191 -0.515232 0)
(2.58758 -0.513322 0)
(2.6056 -0.515162 0)
(2.62698 -0.508729 0)
(2.63106 -0.496761 0)
(2.62883 -0.491742 0)
(2.62416 -0.493678 0)
(2.61556 -0.506502 0)
(2.61195 -0.515303 0)
(2.61018 -0.515744 0)
(2.60983 -0.510676 0)
(2.61151 -0.498619 0)
(2.59556 -0.444629 0)
(2.53494 -0.27661 0)
(2.44806 -0.0832372 0)
(2.43831 -0.0492416 0)
(2.40813 -0.0139709 0)
(2.39142 -0.00161373 0)
(2.39054 -0.00386539 0)
(2.39062 -0.00240619 0)
(2.39078 0.000285356 0)
(2.39016 -0.000669332 0)
(2.39037 -0.00219753 0)
(2.39269 -0.000581809 0)
(2.39443 0.00197018 0)
(2.39437 0.00253228 0)
(2.39339 0.00205399 0)
(2.39173 0.000290154 0)
(2.39085 -0.000793235 0)
(2.39086 -0.000680733 0)
(2.39112 -0.000509163 0)
(2.39177 -0.000493704 0)
(2.3931 -0.000144155 0)
(2.39392 0.000243788 0)
(2.39429 0.000347207 0)
(2.39481 0.000406367 0)
(2.39503 -3.58195e-05 0)
(2.39436 -0.00108167 0)
(2.9 -1.46942e-14 0)
(2.9 -6.0816e-15 0)
(2.9 -7.06036e-15 0)
(2.9 -3.71949e-14 0)
(2.9 -5.57882e-14 0)
(2.9 2.45013e-14 0)
(2.9 4.31229e-14 0)
(2.9 -3.55733e-14 0)
(2.9 3.02995e-14 0)
(2.9 1.21693e-13 0)
(2.9 -1.12496e-13 0)
(2.9 -1.28303e-10 0)
(2.9 -1.64228e-08 0)
(2.9 -2.81445e-06 0)
(2.89994 -0.000120477 0)
(2.89815 -0.00403573 0)
(2.8807 -0.0381215 0)
(2.76476 -0.248065 0)
(2.70099 -0.409445 0)
(2.68703 -0.469639 0)
(2.64831 -0.483556 0)
(2.63143 -0.491644 0)
(2.60397 -0.506835 0)
(2.59709 -0.514967 0)
(2.59909 -0.517387 0)
(2.6095 -0.512576 0)
(2.62163 -0.499204 0)
(2.62409 -0.493536 0)
(2.62727 -0.494662 0)
(2.62355 -0.502509 0)
(2.61541 -0.511835 0)
(2.61092 -0.512795 0)
(2.60922 -0.511273 0)
(2.61219 -0.506966 0)
(2.61459 -0.498661 0)
(2.60327 -0.456765 0)
(2.53289 -0.296767 0)
(2.48699 -0.145593 0)
(2.4274 0.00874325 0)
(2.3899 -0.00323744 0)
(2.38878 -0.0099133 0)
(2.39309 -0.00227658 0)
(2.39236 0.00167482 0)
(2.39062 -0.000782978 0)
(2.39111 -0.00317312 0)
(2.39394 -0.00174998 0)
(2.39531 0.000470793 0)
(2.39513 0.001059 0)
(2.39404 0.000794958 0)
(2.39222 -0.00086262 0)
(2.39107 -0.0015248 0)
(2.3909 -0.00143113 0)
(2.391 -0.00107849 0)
(2.39182 -0.000558596 0)
(2.39332 -9.06212e-05 0)
(2.3939 0.000153345 0)
(2.39444 0.000333784 0)
(2.39507 0.000219287 0)
(2.39505 -0.000393715 0)
(2.39402 -0.00129453 0)
(2.9 -1.89536e-14 0)
(2.9 -1.05868e-14 0)
(2.9 -2.14328e-14 0)
(2.9 -7.94591e-14 0)
(2.9 -7.49611e-14 0)
(2.9 -2.25885e-14 0)
(2.9 1.14351e-13 0)
(2.9 1.35275e-13 0)
(2.9 1.45427e-13 0)
(2.9 -3.64581e-14 0)
(2.9 -7.95432e-11 0)
(2.9 -1.53313e-08 0)
(2.9 -1.36225e-06 0)
(2.89997 -8.64112e-05 0)
(2.89897 -0.00244097 0)
(2.88871 -0.0269754 0)
(2.8108 -0.161499 0)
(2.65585 -0.41395 0)
(2.63508 -0.467398 0)
(2.63842 -0.496258 0)
(2.64206 -0.493124 0)
(2.63968 -0.488288 0)
(2.62318 -0.49338 0)
(2.61182 -0.509265 0)
(2.60637 -0.518554 0)
(2.60503 -0.517051 0)
(2.61322 -0.508116 0)
(2.61857 -0.498631 0)
(2.62444 -0.49787 0)
(2.62627 -0.501815 0)
(2.62006 -0.50737 0)
(2.61312 -0.509765 0)
(2.61074 -0.508846 0)
(2.61152 -0.508471 0)
(2.61427 -0.506461 0)
(2.61616 -0.501191 0)
(2.6037 -0.46421 0)
(2.55143 -0.322468 0)
(2.47084 -0.133332 0)
(2.4539 -0.0774513 0)
(2.41 -0.0264055 0)
(2.39761 0.00376837 0)
(2.39262 0.00240377 0)
(2.39252 -0.00360277 0)
(2.39549 -0.00325488 0)
(2.39741 -0.00240922 0)
(2.39741 -0.000527905 0)
(2.39697 0.000442452 0)
(2.39554 0.000527481 0)
(2.39378 -0.00122691 0)
(2.39268 -0.00182702 0)
(2.39229 -0.00171468 0)
(2.39224 -0.00135446 0)
(2.39335 -0.000648286 0)
(2.39465 2.84464e-05 0)
(2.39496 0.00014633 0)
(2.39551 0.00034508 0)
(2.39591 0.000184189 0)
(2.39551 -0.000465544 0)
(2.39449 -0.00108009 0)
(2.9 -2.92132e-14 0)
(2.9 -6.54832e-14 0)
(2.9 -1.80682e-14 0)
(2.9 -5.14499e-14 0)
(2.9 -3.20316e-14 0)
(2.9 -3.49261e-14 0)
(2.9 5.4305e-14 0)
(2.9 1.89995e-13 0)
(2.9 -1.63428e-13 0)
(2.9 -9.13772e-11 0)
(2.9 -1.76561e-08 0)
(2.9 -1.8414e-06 0)
(2.89997 -8.59578e-05 0)
(2.89918 -0.00226175 0)
(2.88893 -0.0282709 0)
(2.85067 -0.129345 0)
(2.72662 -0.3194 0)
(2.59312 -0.511012 0)
(2.57987 -0.5299 0)
(2.61458 -0.510598 0)
(2.63036 -0.496649 0)
(2.6374 -0.488606 0)
(2.63654 -0.488675 0)
(2.6213 -0.502113 0)
(2.61578 -0.514475 0)
(2.60789 -0.517192 0)
(2.60706 -0.513271 0)
(2.61662 -0.504111 0)
(2.62134 -0.499699 0)
(2.62455 -0.500386 0)
(2.62219 -0.50333 0)
(2.61517 -0.506669 0)
(2.61225 -0.508165 0)
(2.61184 -0.508222 0)
(2.61338 -0.507694 0)
(2.61563 -0.505911 0)
(2.6162 -0.501073 0)
(2.60628 -0.47351 0)
(2.55291 -0.351014 0)
(2.5038 -0.179905 0)
(2.42375 -0.0262749 0)
(2.39926 0.00928181 0)
(2.39284 -0.0050424 0)
(2.39928 -0.00139245 0)
(2.40354 0.000101837 0)
(2.40177 -0.000862383 0)
(2.40014 -0.000652169 0)
(2.39933 0.000796529 0)
(2.39741 0.000821333 0)
(2.39564 -0.00101007 0)
(2.39505 -0.00156943 0)
(2.39458 -0.00167574 0)
(2.39474 -0.00159252 0)
(2.3961 -0.000561292 0)
(2.39699 0.00023947 0)
(2.3972 0.000460538 0)
(2.39735 0.000745387 0)
(2.397 0.000672023 0)
(2.39612 -0.00058033 0)
(2.39571 -0.00155575 0)
(2.9 1.62846e-14 0)
(2.9 2.94693e-15 0)
(2.9 -3.25178e-14 0)
(2.9 -3.54774e-14 0)
(2.9 -1.30844e-14 0)
(2.9 4.05421e-14 0)
(2.9 1.06699e-13 0)
(2.9 5.17988e-14 0)
(2.9 -3.39722e-11 0)
(2.9 -9.60058e-09 0)
(2.9 -1.06509e-06 0)
(2.89997 -7.30799e-05 0)
(2.89924 -0.00199727 0)
(2.88905 -0.0290487 0)
(2.84468 -0.13916 0)
(2.78443 -0.302452 0)
(2.64929 -0.457973 0)
(2.58886 -0.538261 0)
(2.57811 -0.539872 0)
(2.59524 -0.526002 0)
(2.62137 -0.500437 0)
(2.63085 -0.485496 0)
(2.63824 -0.486199 0)
(2.63042 -0.495123 0)
(2.61902 -0.509725 0)
(2.6101 -0.514222 0)
(2.60581 -0.5118 0)
(2.61126 -0.50691 0)
(2.61718 -0.502727 0)
(2.62191 -0.501256 0)
(2.62162 -0.502423 0)
(2.61654 -0.505171 0)
(2.61386 -0.50625 0)
(2.61269 -0.506425 0)
(2.61305 -0.506512 0)
(2.61486 -0.505733 0)
(2.61565 -0.505127 0)
(2.61516 -0.502151 0)
(2.60594 -0.478952 0)
(2.5681 -0.379897 0)
(2.49649 -0.216082 0)
(2.44584 -0.0922544 0)
(2.41848 -0.0269106 0)
(2.41056 0.0060678 0)
(2.40869 0.00600841 0)
(2.40181 -0.00116115 0)
(2.40119 -0.00103476 0)
(2.40048 0.000845173 0)
(2.39876 0.000206694 0)
(2.39761 -0.00135319 0)
(2.39724 -0.00194116 0)
(2.39703 -0.00231691 0)
(2.39742 -0.00139969 0)
(2.39877 0.000387924 0)
(2.39927 0.000986842 0)
(2.39933 0.00108268 0)
(2.3992 0.000999349 0)
(2.39852 0.000559489 0)
(2.39759 -0.000511928 0)
(2.39732 -0.000986686 0)
(2.9 1.35143e-14 0)
(2.9 1.36511e-14 0)
(2.9 -5.68455e-14 0)
(2.9 -2.56835e-14 0)
(2.9 4.45972e-14 0)
(2.9 1.31922e-13 0)
(2.9 1.50703e-13 0)
(2.9 -5.11998e-12 0)
(2.9 -2.18564e-09 0)
(2.9 -3.56991e-07 0)
(2.89999 -2.89619e-05 0)
(2.89949 -0.0010763 0)
(2.89148 -0.020331 0)
(2.8421 -0.132774 0)
(2.75341 -0.354245 0)
(2.70649 -0.430508 0)
(2.64148 -0.470386 0)
(2.61749 -0.500574 0)
(2.59623 -0.534407 0)
(2.58901 -0.531125 0)
(2.60271 -0.512302 0)
(2.61679 -0.493402 0)
(2.63293 -0.488594 0)
(2.63392 -0.492971 0)
(2.62739 -0.503024 0)
(2.61597 -0.509954 0)
(2.60971 -0.509708 0)
(2.61043 -0.507391 0)
(2.61348 -0.50517 0)
(2.61695 -0.504138 0)
(2.61851 -0.503737 0)
(2.61766 -0.503939 0)
(2.61618 -0.504085 0)
(2.61512 -0.504403 0)
(2.61441 -0.505101 0)
(2.61419 -0.505746 0)
(2.61484 -0.506033 0)
(2.61502 -0.505307 0)
(2.61448 -0.503712 0)
(2.60779 -0.487856 0)
(2.57512 -0.405847 0)
(2.49121 -0.197976 0)
(2.43986 -0.0606502 0)
(2.41908 0.0179015 0)
(2.4123 0.00402158 0)
(2.4014 -0.00371362 0)
(2.40166 -0.00180655 0)
(2.40099 -0.000538551 0)
(2.39924 -0.00108824 0)
(2.39838 -0.00179351 0)
(2.39785 -0.00290273 0)
(2.39811 -0.00355118 0)
(2.39937 -0.0012723 0)
(2.4006 0.00123601 0)
(2.40037 0.00186982 0)
(2.39998 0.00164351 0)
(2.39951 0.00105404 0)
(2.39906 2.6592e-05 0)
(2.39856 -0.000870994 0)
(2.3983 -0.00109589 0)
(2.9 6.95252e-15 0)
(2.9 8.87084e-15 0)
(2.9 4.0793e-14 0)
(2.9 1.9372e-14 0)
(2.9 6.77228e-14 0)
(2.9 6.78614e-14 0)
(2.9 -7.43735e-13 0)
(2.9 -3.68125e-10 0)
(2.9 -7.87185e-08 0)
(2.9 -1.02704e-05 0)
(2.8998 -0.000402183 0)
(2.89502 -0.0100639 0)
(2.85866 -0.0868656 0)
(2.72571 -0.345177 0)
(2.69183 -0.451922 0)
(2.65333 -0.47496 0)
(2.64284 -0.481926 0)
(2.63803 -0.49647 0)
(2.60859 -0.526983 0)
(2.59833 -0.531347 0)
(2.59625 -0.521789 0)
(2.60537 -0.503605 0)
(2.62507 -0.492431 0)
(2.63185 -0.493464 0)
(2.62847 -0.499209 0)
(2.62103 -0.505289 0)
(2.6148 -0.50911 0)
(2.61041 -0.50939 0)
(2.61223 -0.509131 0)
(2.61387 -0.506977 0)
(2.61571 -0.50364 0)
(2.61715 -0.502178 0)
(2.61701 -0.502251 0)
(2.61664 -0.502815 0)
(2.61581 -0.503947 0)
(2.61426 -0.505569 0)
(2.61345 -0.507034 0)
(2.61316 -0.507079 0)
(2.61329 -0.506355 0)
(2.61404 -0.505224 0)
(2.61004 -0.490787 0)
(2.58198 -0.417363 0)
(2.51071 -0.238468 0)
(2.46157 -0.0972258 0)
(2.42676 -0.0373777 0)
(2.41821 -0.0083986 0)
(2.40294 -0.000494333 0)
(2.40019 -0.00361152 0)
(2.399 -0.00221637 0)
(2.39782 -0.00208292 0)
(2.39678 -0.0039754 0)
(2.39739 -0.0039956 0)
(2.40022 -0.000492866 0)
(2.401 0.00194346 0)
(2.40033 0.0024322 0)
(2.3992 0.00189627 0)
(2.39818 0.000656535 0)
(2.39808 -0.000495609 0)
(2.39806 -0.0010084 0)
(2.39809 -0.00125992 0)
(2.9 2.06955e-14 0)
(2.9 6.52617e-14 0)
(2.9 8.78921e-14 0)
(2.9 8.03597e-14 0)
(2.9 3.72003e-14 0)
(2.9 -3.48645e-13 0)
(2.9 -1.41834e-10 0)
(2.9 -3.11224e-08 0)
(2.9 -3.7238e-06 0)
(2.89991 -0.000209269 0)
(2.89764 -0.005072 0)
(2.87315 -0.0559127 0)
(2.77835 -0.21523 0)
(2.62568 -0.49909 0)
(2.61468 -0.537048 0)
(2.62894 -0.492315 0)
(2.63713 -0.481727 0)
(2.64584 -0.488777 0)
(2.63493 -0.510901 0)
(2.60651 -0.522673 0)
(2.60011 -0.520045 0)
(2.60265 -0.511411 0)
(2.61352 -0.499065 0)
(2.62458 -0.494235 0)
(2.62559 -0.49762 0)
(2.62219 -0.50167 0)
(2.61713 -0.506464 0)
(2.61203 -0.508628 0)
(2.61164 -0.50911 0)
(2.61196 -0.507755 0)
(2.61345 -0.503921 0)
(2.61588 -0.501626 0)
(2.61695 -0.501858 0)
(2.6171 -0.502369 0)
(2.61634 -0.503719 0)
(2.61466 -0.506501 0)
(2.61373 -0.50713 0)
(2.61301 -0.507108 0)
(2.61345 -0.506466 0)
(2.6149 -0.506295 0)
(2.61608 -0.505115 0)
(2.61306 -0.492871 0)
(2.59179 -0.434605 0)
(2.51266 -0.242381 0)
(2.45768 -0.108016 0)
(2.43137 0.0118718 0)
(2.40244 -0.000273906 0)
(2.39576 -0.00771311 0)
(2.39826 -0.00354751 0)
(2.39671 -0.00302535 0)
(2.39429 -0.00479758 0)
(2.39608 -0.0028061 0)
(2.4001 0.000739169 0)
(2.40051 0.00219189 0)
(2.39979 0.00244049 0)
(2.39818 0.00173473 0)
(2.39695 -4.53995e-05 0)
(2.39679 -0.000617728 0)
(2.3969 -0.000974389 0)
(2.39747 -0.000964574 0)
(2.9 2.08065e-14 0)
(2.9 5.53516e-14 0)
(2.9 7.27948e-14 0)
(2.9 8.23812e-14 0)
(2.9 -1.32079e-13 0)
(2.9 -8.65926e-11 0)
(2.9 -2.38404e-08 0)
(2.9 -2.62201e-06 0)
(2.89994 -0.00015535 0)
(2.89848 -0.00387402 0)
(2.88225 -0.0399494 0)
(2.82065 -0.175944 0)
(2.65872 -0.39935 0)
(2.5916 -0.550486 0)
(2.58879 -0.539029 0)
(2.62002 -0.500485 0)
(2.6302 -0.484318 0)
(2.6453 -0.486066 0)
(2.64389 -0.500475 0)
(2.62311 -0.51444 0)
(2.6061 -0.514769 0)
(2.60477 -0.512755 0)
(2.60905 -0.507413 0)
(2.61702 -0.500171 0)
(2.62162 -0.499666 0)
(2.62018 -0.501423 0)
(2.61854 -0.503352 0)
(2.61435 -0.506119 0)
(2.61268 -0.507844 0)
(2.61183 -0.507457 0)
(2.61224 -0.50524 0)
(2.61428 -0.503019 0)
(2.61627 -0.503155 0)
(2.61686 -0.504001 0)
(2.61664 -0.504849 0)
(2.61553 -0.505904 0)
(2.61482 -0.506197 0)
(2.61434 -0.506444 0)
(2.61469 -0.506373 0)
(2.61597 -0.505631 0)
(2.61725 -0.505194 0)
(2.6179 -0.50444 0)
(2.61579 -0.496942 0)
(2.59628 -0.449362 0)
(2.53293 -0.287577 0)
(2.46119 -0.113967 0)
(2.44649 -0.0499461 0)
(2.41119 -0.0229651 0)
(2.40021 -0.00255301 0)
(2.39301 -0.00567325 0)
(2.39344 -0.00424859 0)
(2.39745 -0.00104942 0)
(2.40014 0.000488201 0)
(2.40015 0.00162886 0)
(2.39936 0.00220144 0)
(2.39766 0.00122274 0)
(2.39623 -0.000562943 0)
(2.39593 -0.00130672 0)
(2.39631 -0.00154825 0)
(2.39752 -0.000708291 0)
(2.9 2.00249e-14 0)
(2.9 9.22397e-14 0)
(2.9 1.23894e-13 0)
(2.9 -1.83237e-15 0)
(2.9 -2.89359e-11 0)
(2.9 -9.83455e-09 0)
(2.9 -1.63678e-06 0)
(2.89996 -0.000111785 0)
(2.89868 -0.00356821 0)
(2.88582 -0.0373062 0)
(2.82181 -0.18173 0)
(2.74112 -0.320621 0)
(2.62373 -0.479703 0)
(2.59054 -0.555876 0)
(2.5766 -0.548301 0)
(2.59986 -0.516809 0)
(2.61497 -0.492189 0)
(2.63755 -0.487701 0)
(2.64049 -0.493963 0)
(2.63035 -0.505051 0)
(2.61463 -0.512275 0)
(2.60656 -0.511965 0)
(2.60722 -0.509702 0)
(2.611 -0.504262 0)
(2.61701 -0.500598 0)
(2.61857 -0.501372 0)
(2.6181 -0.502178 0)
(2.61682 -0.503244 0)
(2.61435 -0.506116 0)
(2.61295 -0.506584 0)
(2.61177 -0.505738 0)
(2.61249 -0.504699 0)
(2.61461 -0.504859 0)
(2.61608 -0.505515 0)
(2.61628 -0.505632 0)
(2.61619 -0.505585 0)
(2.61604 -0.505604 0)
(2.61602 -0.505804 0)
(2.61627 -0.505653 0)
(2.61713 -0.505176 0)
(2.61805 -0.504886 0)
(2.61859 -0.505046 0)
(2.61889 -0.505217 0)
(2.61695 -0.500223 0)
(2.60262 -0.463815 0)
(2.53208 -0.309122 0)
(2.49826 -0.158876 0)
(2.42473 -0.00963478 0)
(2.40049 -0.00448043 0)
(2.39347 -0.00585499 0)
(2.39776 -0.000212667 0)
(2.40081 0.00114024 0)
(2.40056 3.30254e-05 0)
(2.40049 0.000761502 0)
(2.39972 0.00272205 0)
(2.39799 0.0013513 0)
(2.39673 -0.000725014 0)
(2.39659 -0.00219088 0)
(2.39709 -0.0018548 0)
(2.39886 -0.000370653 0)
(2.9 -6.40609e-15 0)
(2.9 1.75389e-14 0)
(2.9 4.27341e-14 0)
(2.9 -4.64713e-12 0)
(2.9 -2.79745e-09 0)
(2.9 -5.45288e-07 0)
(2.89998 -5.36947e-05 0)
(2.89911 -0.00200803 0)
(2.88691 -0.0343439 0)
(2.8247 -0.179633 0)
(2.73859 -0.353743 0)
(2.66111 -0.434368 0)
(2.63201 -0.511112 0)
(2.59832 -0.545016 0)
(2.5892 -0.544317 0)
(2.5933 -0.524997 0)
(2.60318 -0.501798 0)
(2.62801 -0.492366 0)
(2.63282 -0.49339 0)
(2.62875 -0.499943 0)
(2.62024 -0.505566 0)
(2.61077 -0.510647 0)
(2.60914 -0.510363 0)
(2.61 -0.506999 0)
(2.61354 -0.502476 0)
(2.61672 -0.500974 0)
(2.61783 -0.502737 0)
(2.61798 -0.504021 0)
(2.6164 -0.505484 0)
(2.61475 -0.506349 0)
(2.61326 -0.506438 0)
(2.61343 -0.506137 0)
(2.6151 -0.505391 0)
(2.61626 -0.505096 0)
(2.61653 -0.505101 0)
(2.61685 -0.505473 0)
(2.61693 -0.506014 0)
(2.61703 -0.506138 0)
(2.61736 -0.50584 0)
(2.61807 -0.505279 0)
(2.61856 -0.505117 0)
(2.61898 -0.505335 0)
(2.6194 -0.505956 0)
(2.61899 -0.506308 0)
(2.6177 -0.503301 0)
(2.60374 -0.471503 0)
(2.55481 -0.335024 0)
(2.48568 -0.17475 0)
(2.45214 -0.0854871 0)
(2.42014 -0.0146912 0)
(2.41048 0.00915666 0)
(2.40452 0.00376274 0)
(2.40111 -0.00196163 0)
(2.40166 0.000368553 0)
(2.40149 0.00228086 0)
(2.39951 -6.28576e-05 0)
(2.39835 -0.00150801 0)
(2.39818 -0.00336996 0)
(2.39907 -0.00265374 0)
(2.40119 -0.000196565 0)
(2.9 -2.748e-14 0)
(2.9 -1.08855e-13 0)
(2.9 -1.56234e-12 0)
(2.9 -6.81217e-10 0)
(2.9 -1.81529e-07 0)
(2.89999 -2.07885e-05 0)
(2.89958 -0.000917903 0)
(2.8912 -0.0198979 0)
(2.84007 -0.131773 0)
(2.70639 -0.411183 0)
(2.65906 -0.460583 0)
(2.64115 -0.477477 0)
(2.63733 -0.498421 0)
(2.62136 -0.52514 0)
(2.60109 -0.530825 0)
(2.5977 -0.520533 0)
(2.6018 -0.501633 0)
(2.61691 -0.493459 0)
(2.62539 -0.493742 0)
(2.62428 -0.49934 0)
(2.62041 -0.502491 0)
(2.61428 -0.507381 0)
(2.61173 -0.508666 0)
(2.60991 -0.507522 0)
(2.61146 -0.504137 0)
(2.614 -0.50279 0)
(2.61586 -0.504277 0)
(2.61644 -0.506518 0)
(2.61649 -0.507222 0)
(2.61584 -0.506775 0)
(2.61539 -0.50589 0)
(2.6158 -0.505354 0)
(2.6163 -0.505554 0)
(2.61652 -0.505662 0)
(2.61684 -0.505902 0)
(2.61737 -0.505982 0)
(2.61772 -0.505906 0)
(2.61794 -0.505859 0)
(2.61834 -0.505609 0)
(2.61881 -0.505339 0)
(2.61904 -0.505392 0)
(2.61936 -0.505626 0)
(2.61942 -0.506134 0)
(2.61907 -0.506643 0)
(2.61888 -0.506688 0)
(2.61794 -0.504116 0)
(2.60812 -0.479386 0)
(2.56204 -0.369025 0)
(2.49058 -0.169548 0)
(2.43814 -0.0247013 0)
(2.42278 0.013051 0)
(2.40659 -0.0026291 0)
(2.40482 -0.00362857 0)
(2.40509 0.00066145 0)
(2.40358 -0.000511101 0)
(2.4022 -0.0015768 0)
(2.40092 -0.0030927 0)
(2.4004 -0.00355217 0)
(2.4013 -0.00185272 0)
(2.40323 0.000533127 0)
(2.9 1.20838e-14 0)
(2.9 -5.68594e-13 0)
(2.9 -3.64427e-10 0)
(2.9 -7.40929e-08 0)
(2.9 -9.4742e-06 0)
(2.8998 -0.000484047 0)
(2.89502 -0.0108894 0)
(2.86169 -0.0895247 0)
(2.72363 -0.33338 0)
(2.62801 -0.52405 0)
(2.61879 -0.490372 0)
(2.6361 -0.491166 0)
(2.6395 -0.492398 0)
(2.63487 -0.512722 0)
(2.6167 -0.524304 0)
(2.60342 -0.515797 0)
(2.60527 -0.504995 0)
(2.61211 -0.497608 0)
(2.61912 -0.496523 0)
(2.62176 -0.500113 0)
(2.61908 -0.503871 0)
(2.61663 -0.505408 0)
(2.61395 -0.506595 0)
(2.61133 -0.507207 0)
(2.61102 -0.506515 0)
(2.6131 -0.505305 0)
(2.61535 -0.505163 0)
(2.61631 -0.505478 0)
(2.61656 -0.505421 0)
(2.61651 -0.505284 0)
(2.61669 -0.505489 0)
(2.61689 -0.505852 0)
(2.61711 -0.506155 0)
(2.61729 -0.506253 0)
(2.61758 -0.506239 0)
(2.61794 -0.506203 0)
(2.61838 -0.506019 0)
(2.61883 -0.505659 0)
(2.61909 -0.505478 0)
(2.61929 -0.50555 0)
(2.61942 -0.505688 0)
(2.61946 -0.505976 0)
(2.61928 -0.506394 0)
(2.61907 -0.50661 0)
(2.61906 -0.506587 0)
(2.61908 -0.506489 0)
(2.61857 -0.504718 0)
(2.60962 -0.481375 0)
(2.57484 -0.38972 0)
(2.50039 -0.199295 0)
(2.46587 -0.0909209 0)
(2.42637 -0.0269508 0)
(2.41906 -0.00626219 0)
(2.40658 -0.00265425 0)
(2.40494 -0.00375956 0)
(2.40381 -0.00423393 0)
(2.40267 -0.00292165 0)
(2.40183 -0.00184023 0)
(2.40265 0.000301492 0)
(2.40408 0.000452414 0)
(2.9 7.33077e-14 0)
(2.9 -7.1084e-11 0)
(2.9 -3.87757e-08 0)
(2.9 -4.89726e-06 0)
(2.89988 -0.000297452 0)
(2.89718 -0.00667975 0)
(2.86788 -0.0728723 0)
(2.79801 -0.230747 0)
(2.63666 -0.492647 0)
(2.58718 -0.559513 0)
(2.59626 -0.52594 0)
(2.61672 -0.497055 0)
(2.63051 -0.490307 0)
(2.63965 -0.501078 0)
(2.62583 -0.512076 0)
(2.61031 -0.509295 0)
(2.60698 -0.507005 0)
(2.60917 -0.503395 0)
(2.61345 -0.500586 0)
(2.61693 -0.500797 0)
(2.61737 -0.504453 0)
(2.61663 -0.505943 0)
(2.6155 -0.506002 0)
(2.61431 -0.505639 0)
(2.61371 -0.504963 0)
(2.6151 -0.504869 0)
(2.61602 -0.505863 0)
(2.61661 -0.50612 0)
(2.61694 -0.505948 0)
(2.61742 -0.505795 0)
(2.61792 -0.505996 0)
(2.61812 -0.506229 0)
(2.61823 -0.506552 0)
(2.61823 -0.506644 0)
(2.61834 -0.50643 0)
(2.61863 -0.505942 0)
(2.61901 -0.505504 0)
(2.61929 -0.505425 0)
(2.61944 -0.505518 0)
(2.61951 -0.505677 0)
(2.61948 -0.505914 0)
(2.61932 -0.506227 0)
(2.61911 -0.506424 0)
(2.61906 -0.506412 0)
(2.6191 -0.506302 0)
(2.61923 -0.5061 0)
(2.61935 -0.506014 0)
(2.61895 -0.504754 0)
(2.61267 -0.487358 0)
(2.58455 -0.412854 0)
(2.50584 -0.207454 0)
(2.45336 -0.079128 0)
(2.4372 0.0136997 0)
(2.39695 -0.00205289 0)
(2.40069 -0.00832239 0)