/*--------------------------------*- C++ -*----------------------------------*\
  =========                 |
  \\      /  F ield         | OpenFOAM: The Open Source CFD Toolbox
   \\    /   O peration     | Website:  https://openfoam.org
    \\  /    A nd           | Version:  12
     \\/     M anipulation  |
\*---------------------------------------------------------------------------*/
FoamFile
{
    format      ascii;
    class       surfaceScalarField;
    location    "4.025";
    object      phi;
}
// * * * * * * * * * * * * * * * * * * * * * * * * * * * * * * * * * * * * * //

dimensions      [1 0 -1 0 0 0 0];

internalField   nonuniform List<scalar> 
69079
(
-0.000158875
9.19139e-05
6.71147e-05
0.000127497
2.68409e-08
-0.000127427
-0.00013281
0.000132789
0.000129067
-1.52331e-06
-0.000131253
-1.51759e-06
-0.00013123
7.74728e-05
-0.000148823
6.85182e-05
1.19488e-06
0.000113486
-0.000115523
0.000130272
-0.000130358
5.23031e-08
0.000129681
5.79581e-07
-9.89605e-05
-5.97381e-05
-0.00011631
0.000124947
-8.46528e-06
-0.000128297
0.000125575
2.70893e-06
-0.000127633
-6.24572e-07
3.5111e-06
-0.000112319
0.000108808
0.000129696
1.77726e-08
0.00012917
5.86587e-07
-0.000129752
0.000128075
1.66288e-06
-0.000128362
-1.3899e-06
0.000129551
-0.000128867
-6.88402e-07
0.00012862
9.47199e-07
0.000126372
-0.000128855
2.40797e-06
-0.000139066
1.33437e-05
0.000125722
0.000150167
-9.83907e-05
-5.13962e-05
0.000127314
-1.8408e-05
-0.000111437
-0.000129033
-1.35061e-06
0.000129109
6.6451e-08
2.26843e-07
2.86151e-08
0.000115024
-0.000115287
0.000120915
-0.00012626
5.17158e-06
0.000123018
-0.000133081
1.02225e-05
0.000143645
-2.05213e-05
0.00012791
7.49259e-07
-4.43755e-07
-0.000128672
2.38284e-05
0.000104844
0.000127757
-0.000127726
3.82586e-08
2.43533e-07
-5.45225e-06
0.000131595
-0.000128567
-1.13988e-05
-0.000127667
0.000101158
2.41019e-05
-0.000126992
-0.000134096
1.63817e-05
0.000126875
-0.000126953
3.75537e-08
-6.17978e-06
-0.000111943
0.000134586
-2.39795e-05
0.000126583
1.46507e-06
-1.14727e-06
-7.45111e-05
0.000142299
-6.77877e-05
0.000124532
-0.000124636
3.16892e-08
0.000142782
-1.83215e-05
0.000121012
2.17479e-05
0.000142085
-2.09778e-05
0.000119595
-3.73962e-06
-0.000115833
-0.000104463
0.000123742
-2.01127e-05
-0.000130333
0.000131597
-1.20047e-06
-0.000130072
5.59419e-05
7.4559e-05
0.000123787
-0.000123802
2.61405e-08
0.000141838
-1.80635e-05
0.000120106
4.89934e-08
-0.000120054
-7.33597e-05
-4.50518e-05
0.000118656
7.62877e-05
5.11715e-05
-0.000127461
0.000139858
-7.28625e-05
-6.76654e-05
-1.43871e-05
-0.000114285
5.00648e-05
-0.000124576
-0.00010722
0.000110731
0.000124843
6.93292e-07
-2.20626e-06
0.000146323
-0.000146355
-1.52674e-05
-0.00011502
-0.000123177
1.03027e-05
-5.25762e-05
0.000128291
0.000119232
2.25519e-05
0.00014071
-2.156e-05
0.000115625
-1.32915e-05
-9.82285e-05
0.000127281
-0.000125003
-2.29198e-06
9.60214e-05
5.46427e-05
0.000115101
-0.000118422
3.2968e-06
-2.79054e-06
0.000117877
-0.000123172
1.13344e-05
0.000111837
0.000123045
2.06041e-05
-1.61182e-06
0.000118024
-0.000140186
2.23235e-05
0.000101609
1.80254e-05
0.000131685
-1.35868e-05
-6.91745e-05
-4.70614e-05
0.000115988
-0.000117428
0.000118691
-1.2515e-06
0.000117009
-0.000132499
1.5538e-05
0.000118212
-9.79865e-07
-8.61369e-05
-4.20096e-05
-6.33613e-06
-0.000102237
0.000108406
-7.06728e-05
0.000138937
-6.82643e-05
0.000142561
-4.04941e-05
-0.000126994
9.57745e-06
0.000121149
2.10605e-05
6.93591e-05
5.25892e-05
-0.000121948
-2.61937e-06
-0.000116291
-1.06946e-05
3.12985e-07
-0.000105998
0.000105685
0.000124137
-3.73226e-06
6.7888e-05
5.99306e-05
-0.000127821
5.42637e-05
-0.000124936
-0.000117211
9.15859e-07
0.000126043
-0.00012603
0.000129639
-8.81684e-06
2.0685e-05
-0.00013496
0.000114363
4.06046e-05
-0.000111945
-0.000127418
-1.0235e-05
0.0001148
-0.000133976
1.91493e-05
0.000117489
-2.6648e-06
7.00228e-06
0.000110347
-0.000118886
-6.04409e-06
0.000122286
-0.00011709
0.000119125
2.15533e-05
-2.1049e-05
-0.000104951
0.000105263
7.50907e-06
-0.000120995
0.000113486
-0.000120311
3.42083e-05
-8.05485e-06
0.000119561
-0.000109775
4.63672e-05
-0.000118569
-0.000109479
-3.10121e-06
0.000112307
0.000121892
-0.000124141
2.96877e-06
-0.000123584
0.000106557
1.70274e-05
-3.92414e-06
-0.000127262
0.000114772
1.69298e-05
-5.34721e-06
0.000120117
-0.000130735
0.000130744
-0.000112067
2.42592e-06
-3.61045e-05
0.000112391
0.000147101
-8.68137e-05
-5.85192e-05
-0.00013188
5.25817e-05
7.90448e-05
0.000123777
-5.98155e-07
-0.000123088
0.000112939
-0.000131866
1.89438e-05
0.000116772
-3.81451e-06
0.000122405
-3.09727e-06
0.000117761
-0.000113052
0.000116801
7.03464e-06
7.7976e-05
-0.000123726
4.57498e-05
0.000113898
-0.00013745
2.35508e-05
0.000136374
-2.2466e-05
-1.51844e-06
0.000123194
-7.74477e-05
0.000146176
-6.87284e-05
-9.73001e-05
-2.11555e-05
0.000109775
-0.000130527
2.07639e-05
0.000114315
-4.52906e-06
0.000119539
-0.000127754
8.31386e-06
-0.000122796
2.54735e-05
-3.08777e-05
-0.000101089
0.000112416
-0.000135738
2.32143e-05
-2.00869e-05
-0.00013484
0.000126676
8.51274e-05
-9.15915e-05
-0.000107773
0.0001134
0.000133589
-0.000133587
0.000116504
3.16926e-07
-2.09365e-05
0.000120318
-0.000127834
7.32622e-06
-0.000127195
3.92235e-06
7.19283e-05
7.81668e-05
-0.000128981
2.04664e-05
0.000108514
0.000110708
-0.000134625
2.38668e-05
-0.000109544
0.000133796
-2.32725e-05
-0.000126666
-1.98435e-06
0.000103772
-4.68036e-05
-4.07654e-05
0.000118741
-1.66234e-05
0.000137315
0.00011254
2.38451e-05
-0.00011492
0.000114108
-2.328e-05
0.000113776
-0.00011413
6.96944e-05
-0.000121472
5.17775e-05
0.000109276
-0.000133139
2.40045e-05
0.000132973
-2.35089e-05
-1.90484e-05
-0.000109821
0.000119964
8.64434e-06
-0.000132227
-2.1562e-05
-0.000113326
1.41484e-05
-0.000109545
9.653e-05
-9.10096e-05
0.00014911
-5.46234e-05
-0.000113367
3.7748e-06
0.000109597
5.75648e-06
0.000127538
-0.000113235
0.000106993
0.000111184
0.000123715
-3.38307e-06
0.000108009
-0.000132481
2.43517e-05
-2.60963e-05
8.99404e-07
-0.00011154
0.00011064
0.000111671
6.63701e-06
-2.29433e-05
4.83987e-05
8.54597e-05
0.000109415
6.66485e-07
-0.000110076
9.23777e-07
0.000108495
8.35811e-06
0.000118931
-4.69767e-05
-6.00007e-05
0.000106978
-0.000148802
9.1876e-05
6.04219e-05
7.3363e-05
-0.000120341
1.64258e-07
0.000111267
-0.00011143
-0.000111333
0.000111502
0.000117435
-0.000123286
-0.000117217
0.000121971
-4.7514e-06
0.000101833
-0.000122571
2.06475e-05
0.000110438
-8.59413e-06
-1.01997e-05
-9.90038e-05
0.000109204
6.70143e-05
4.77594e-05
-0.000114774
0.000109061
2.46579e-05
-2.40705e-05
1.68857e-05
-0.000117954
0.000101054
-0.000120357
-6.27077e-06
0.000120451
3.59884e-06
0.000106059
-0.000131304
2.52673e-05
0.000130435
-2.43696e-05
7.52583e-05
-0.000120329
4.50711e-05
0.000113757
-0.000106248
0.000116291
-0.000119726
0.000107982
4.21287e-06
-5.35762e-07
0.000119224
3.59881e-05
-0.000114258
-0.00011554
-1.67139e-06
0.000123619
-4.11315e-06
-6.44215e-05
-3.86161e-05
0.000103838
0.000104675
-0.000129792
2.51177e-05
0.000127239
-1.65032e-05
-0.000129862
-2.71771e-05
0.000101196
-8.59005e-05
0.000108047
2.49878e-05
-2.44213e-05
-7.25754e-05
-4.99538e-05
0.000123009
0.000126026
-0.000124544
-1.48111e-06
-1.48551e-05
0.000126339
-0.000111479
9.9557e-05
-0.000119968
2.03978e-05
0.000109238
-9.65807e-06
0.000106025
-0.000106583
5.05674e-07
-4.67546e-06
-0.000118909
-0.000131187
2.01089e-05
0.000111028
-2.35081e-05
-0.000107773
-1.62373e-05
-0.000114495
-4.73986e-05
0.000116758
-0.000144452
7.74799e-05
6.69866e-05
-0.000122142
0.000105719
1.64221e-05
0.000105537
3.95224e-07
0.000114939
-0.000109123
-5.79421e-06
-0.000136381
0.000120149
-0.000117346
1.19681e-07
-0.000115932
0.000117704
-1.77123e-06
-7.07189e-05
-7.37222e-05
6.97841e-05
-0.000124885
5.51009e-05
-8.17056e-07
-0.0001242
-4.22466e-06
-0.000124756
0.000121516
-6.90909e-07
-0.000121159
5.22876e-06
0.000102696
-0.000128944
2.62628e-05
-2.78209e-05
0.000111888
3.18933e-06
9.72874e-05
-0.00011753
2.01411e-05
-0.000123867
2.70972e-06
0.000107797
-1.05131e-05
0.000108491
9.10854e-06
-2.27417e-05
0.000125243
-0.000120904
-5.13324e-06
-4.74722e-06
0.000114808
-0.000111133
0.000123644
-0.000123641
-0.00016005
7.60218e-05
8.41719e-05
-6.86409e-05
0.000123841
-5.35942e-05
-0.000109656
-3.99596e-06
0.000113621
-0.000124899
-2.61727e-06
-7.73863e-05
-4.73785e-05
0.000121534
6.89211e-05
4.26587e-05
-0.00011158
8.4336e-05
-9.45357e-05
3.97994e-06
0.000119604
-0.000123584
0.000104596
2.58282e-05
0.000100678
-0.000127506
2.6848e-05
-2.52271e-05
-0.000130351
0.000115496
-0.000118857
0.000118857
8.10026e-05
4.77979e-05
0.000126281
-2.55704e-05
-2.04907e-05
-0.000115895
0.000100852
7.4086e-05
-0.000121679
4.75931e-05
-4.45306e-06
-0.000114944
0.000118957
-1.29463e-06
0.000116485
-0.000116146
9.37793e-05
-0.000114546
2.05043e-05
0.0001056
-1.18396e-05
0.000125233
-0.000126559
-0.000107703
0.000111683
-7.64419e-05
-6.61863e-05
-7.51872e-05
0.000119787
-5.04383e-05
-0.000124974
2.73014e-06
0.000121165
-0.000125534
4.27861e-06
-6.45944e-05
0.000131608
0.00012281
1.49184e-06
0.000122567
2.07677e-07
-0.000139982
7.11051e-05
7.56903e-05
3.6296e-05
0.000106003
0.000122113
3.64698e-07
7.31196e-05
-0.000106796
3.36325e-05
0.000121787
4.55714e-06
0.00010931
-3.63031e-05
3.37455e-05
9.94125e-05
-0.000125734
2.63693e-05
0.000116234
0.000125355
-2.59109e-05
0.000129266
-2.15408e-05
-0.000107771
-0.000108425
-4.17717e-07
0.000108809
-0.000138859
8.07429e-05
5.81394e-05
0.000106308
1.04763e-05
-2.26246e-05
-4.30193e-05
0.000118278
0.0001305
-0.000130242
-0.000106175
0.000106847
0.000111305
-0.000110379
-8.74537e-05
0.000148052
-5.80607e-05
-2.09945e-06
-0.000121072
9.79155e-05
-0.00012454
2.66213e-05
-0.000114368
0.000117129
-2.75358e-06
0.00012412
-2.61637e-05
-0.000129415
0.000127185
0.000118732
3.25433e-06
2.85558e-06
-0.000114606
0.000111744
-0.000110003
0.000105444
-0.00010406
-8.84589e-06
0.000113033
-0.000119123
4.7621e-06
-0.000109673
-4.01172e-05
0.000101013
-0.000120779
0.000122456
-1.69095e-05
0.000121802
-4.72431e-07
-0.000117035
-2.08622e-06
0.000120107
-0.000120104
9.66415e-05
-0.000123571
2.69524e-05
0.000123189
-2.65234e-05
9.03999e-05
-0.000109592
1.96482e-05
0.000104427
-1.28108e-05
-6.97686e-05
-6.90659e-05
-0.000124473
4.70252e-05
-0.000115432
-1.60628e-06
6.55036e-05
7.20855e-05
0.000120012
5.11459e-06
0.000104978
9.33328e-06
-2.25288e-05
-0.000117105
0.00010742
9.6858e-06
0.00012986
-0.000125229
-0.000102899
0.000114233
0.000105687
-0.000112544
6.46763e-06
0.000111639
-4.36401e-06
-0.000107273
9.52826e-05
-0.000122509
2.72381e-05
0.000122079
-2.67745e-05
-4.21178e-06
-0.00011793
-0.000119227
0.000123215
-4.99261e-06
1.11596e-06
-0.000114465
0.000130049
-2.88641e-05
-5.52704e-05
0.000123156
5.66218e-07
-0.000134294
2.19747e-05
-0.000113474
-1.26381e-05
0.000112923
-4.55127e-06
-0.000108371
9.91575e-05
2.71544e-05
0.000119604
-4.99101e-05
-2.65241e-05
-0.000120959
0.000109623
1.11627e-05
5.78574e-06
-0.000116825
-0.000153213
8.94662e-05
6.37397e-05
-0.000112863
3.16447e-06
0.00010971
-6.94541e-05
-8.37628e-05
4.04868e-06
0.00010768
-0.000111719
-0.000113542
4.62076e-06
0.000108927
-7.21937e-06
-0.000106311
-0.000118083
0.000110874
9.39229e-05
-0.0001215
2.75632e-05
-0.000114034
2.30402e-06
0.000111723
0.000113738
-4.12489e-06
-0.000109607
-3.16118e-06
0.000113158
-0.000109999
0.00011058
0.000120999
-2.7122e-05
0.000114764
-4.39143e-06
-0.000110383
0.000119462
-8.42706e-07
-0.000130901
-1.28359e-05
-0.000117507
-4.48769e-06
0.0001147
-0.000110213
6.72083e-05
4.47195e-05
-0.000111928
-0.000108716
4.29389e-05
-5.95064e-05
-6.73884e-05
-0.000134078
3.16715e-05
9.78324e-05
2.74698e-05
4.16078e-06
-0.000111339
-2.68253e-05
5.38116e-06
0.000106262
-0.000108437
8.05003e-06
0.000100387
9.25384e-05
-0.000120288
2.78163e-05
-6.42863e-06
0.000120026
0.000114202
-4.69697e-06
-0.000109496
-0.00011953
-6.17767e-06
0.000119951
-2.7319e-05
-7.81318e-05
0.000120482
-5.06463e-05
0.000126708
-1.12329e-05
-0.000115474
0.000131983
-2.46098e-05
-0.000121604
0.000118529
2.80359e-06
0.000121972
-0.000122489
-0.000122845
7.22282e-06
0.000115623
-2.54024e-06
0.000113429
-0.000110599
-6.56754e-05
0.000118265
8.71542e-05
-0.000106817
1.96698e-05
-1.52e-05
0.00010297
1.02789e-05
0.000117914
-1.06424e-06
0.00011178
-0.000110634
-1.1044e-05
9.81056e-05
-8.70488e-05
0.000135408
-8.01158e-05
-5.54183e-05
2.53737e-06
-0.00011498
0.000112443
2.51407e-06
-0.000117952
0.000116933
-0.000116934
-0.00011037
0.000111628
-1.26498e-06
0.000110884
-0.000113889
2.77904e-06
-0.000101804
0.000102704
-1.45264e-06
0.000114069
-0.000112612
-8.15756e-07
-0.000112336
0.000113192
6.04756e-05
7.26722e-05
-0.00013136
-1.31987e-06
0.000119022
-0.000115453
-1.4363e-06
0.00011689
-0.000122817
5.4663e-08
0.000111715
-0.00011249
0.000105372
3.35654e-05
9.12233e-05
-0.000119454
2.81494e-05
-5.03802e-05
-5.63301e-05
0.000106713
9.63924e-05
2.77775e-05
-0.000133809
8.34224e-05
0.000115016
-4.09302e-05
-3.15102e-05
-2.71294e-05
-0.000140341
8.0109e-05
6.02414e-05
-7.83898e-05
0.00015155
-7.03842e-05
6.48988e-05
6.23806e-05
-0.000127279
-7.11494e-05
0.000121214
-0.000115878
0.000109962
5.933e-06
-0.000116584
7.22577e-07
-0.00011473
5.93585e-07
0.00011389
3.51214e-06
0.00012022
-0.000107948
-2.86522e-06
0.000110822
-0.000100452
8.94177e-05
7.88699e-05
-0.000100836
0.000111385
-0.000119912
-2.18538e-06
0.000111368
-0.000109229
4.85891e-05
-0.000124806
-7.40801e-05
-6.62527e-05
1.27214e-06
0.000112985
-0.000114212
-0.000121612
-6.43437e-06
-0.000142917
8.29215e-05
-2.78754e-06
-0.000120059
0.000124677
-0.000123219
-0.000100387
0.000120854
-0.000115184
0.000113283
-1.96721e-06
0.000114725
-0.000112678
-2.45624e-05
-9.42949e-05
7.45836e-05
-0.000146403
-3.45057e-05
0.000115508
-0.000111421
1.69545e-07
0.000111175
2.40679e-07
8.67877e-05
-9.26621e-05
1.81914e-06
-0.000112974
0.000111285
9.50555e-05
2.81404e-05
0.000111949
7.02447e-07
-0.000112966
0.000113393
-7.02742e-07
-0.000112685
-8.68372e-07
0.000112805
0.000111433
-0.000112321
-2.7467e-05
-0.000112058
-1.97529e-06
-1.35393e-06
0.000113055
-0.000121898
0.000125652
-0.000111787
0.0001123
-5.02127e-07
1.43087e-06
0.000110257
0.00010946
3.68734e-06
-0.000111784
-5.03354e-09
-7.07794e-05
-5.42907e-05
0.000126192
-0.000135295
2.9297e-05
8.57584e-05
-9.10064e-05
-3.08591e-06
8.83371e-05
-0.000118844
3.05515e-05
0.000128069
-0.000122464
-4.61786e-06
-1.83401e-06
0.000123396
0.000116939
-2.85687e-05
4.55383e-05
-0.000121672
8.88127e-05
-0.000104336
1.57467e-05
-1.69862e-05
0.000106345
-0.000117415
0.000108154
9.26062e-06
0.000105532
-9.46399e-06
-0.000115081
0.000121329
-6.14003e-05
-3.99015e-05
9.23511e-05
-0.000116899
0.000112675
-3.47723e-06
-0.00011287
-6.92988e-05
-7.08315e-05
-9.52523e-05
1.1638e-06
9.45751e-05
-0.00011467
0.000110463
2.32054e-06
0.000112485
-0.000115055
-5.88289e-06
-0.000108818
0.000116844
1.80522e-06
0.000112915
-0.000114445
0.000136825
-6.68861e-05
-6.99387e-05
5.17652e-06
0.000107752
9.37196e-05
2.84121e-05
-0.000117308
4.71982e-06
0.000112745
-0.000115931
5.01374e-06
-2.77439e-05
8.74311e-05
-0.000116363
2.88227e-05
-3.26425e-05
8.75419e-05
-0.000103111
1.56228e-05
-0.000111803
0.00010547
-0.000108423
-4.43671e-06
-1.76118e-05
0.000105471
4.85328e-06
5.14249e-05
8.37883e-05
0.000122592
-0.000120055
0.000114328
-9.32621e-07
-0.000119493
5.11769e-05
0.000111818
-1.34957e-06
-0.000110531
-0.000112466
0.000135403
0.000106448
-8.95762e-05
1.23527e-06
-0.000107405
1.63465e-06
-0.000113851
0.000112284
-3.11176e-06
0.000120245
6.60491e-05
6.18113e-05
-0.00012786
7.617e-05
6.67912e-05
-0.000145359
-0.000104646
-2.41124e-06
0.000107405
-1.75669e-07
-0.000113858
0.000114053
7.44439e-06
0.000116203
-0.000116415
0.00011395
-0.000114133
0.000115435
-0.000116436
9.89613e-07
-3.91905e-07
0.000114004
-6.92118e-07
0.000113802
-0.000112922
0.000114552
-0.000115336
-0.000123095
-7.85792e-05
0.00014434
-6.24656e-05
-8.04597e-05
0.000148912
-6.50972e-05
-0.000138293
3.7906e-05
0.00011333
-0.000113033
8.55671e-07
-0.000114186
0.00011335
-1.27396e-05
0.000123221
-0.000110482
0.000127319
-7.95602e-05
9.22053e-05
2.87503e-05
-0.000110704
3.43897e-06
0.000107265
8.1487e-05
-0.000136415
5.54189e-05
0.000122055
6.11557e-06
-0.000115449
-0.00013632
7.92351e-05
5.71095e-05
-2.80729e-05
0.000110436
-0.000107587
-0.000116655
-1.30006e-06
-0.000109374
0.000111548
-2.13096e-06
1.37135e-06
-0.000110767
-0.000113971
0.000100926
1.12409e-05
-0.000116527
0.000115204
1.30769e-06
-0.000113353
-3.20892e-06
8.60308e-05
-0.000116721
3.09239e-05
-0.000120199
-2.79768e-07
0.00011516
-2.88785e-05
-0.000128237
8.4108e-05
-0.000118704
0.000113351
5.31582e-06
-0.000117493
-1.21177e-06
-0.000115423
0.0001138
1.68018e-06
-0.000113806
-1.55364e-06
-0.00011642
-0.000113902
0.000112943
9.43913e-07
-0.000116506
8.70639e-06
0.000107732
0.000115139
-0.000113076
-9.52695e-05
-1.665e-07
-0.000115989
4.53655e-06
0.000111459
-0.000108888
-2.83752e-06
0.000111732
9.09054e-05
-3.97172e-09
0.000108941
-0.000108953
-0.000111994
-2.19611e-06
0.000114206
-0.000113285
2.50785e-06
0.000110778
-6.83946e-05
-9.07308e-05
3.94227e-06
0.000119823
-5.00392e-05
0.000117545
4.56466e-06
0.000108862
1.92603e-06
-0.000110789
6.81406e-07
0.000112236
-0.00011292
-0.000108341
0.000118329
-4.94079e-05
0.000115111
-5.21216e-06
-0.000109895
-0.000114715
2.08533e-06
0.000112655
9.10557e-05
2.89929e-05
-0.000113221
1.15225e-06
0.000112077
0.000107533
2.10035e-06
-0.000109632
-2.83647e-05
0.000119486
-1.76684e-06
-0.000113591
4.85622e-07
0.000112944
6.34144e-06
5.8304e-07
-0.000114367
-0.000112265
0.000112692
5.17604e-07
-0.000112771
-0.000117358
0.000118197
0.000114043
-3.48658e-06
-0.000110555
8.50766e-05
-0.000114878
2.94839e-05
-3.2991e-05
0.000123141
-0.000123358
-0.000117346
0.000114977
1.70837e-06
-0.000113184
2.60183e-06
0.000110578
-6.75521e-05
-7.53605e-05
-9.73658e-05
8.74928e-05
0.000113433
-0.000112852
-5.84122e-07
-0.000111706
3.05343e-06
-0.000126382
5.14723e-05
-0.00011095
-1.2781e-06
-0.00010873
0.00010847
6.15171e-07
0.000107999
-0.000108533
-0.000114334
3.49053e-06
0.000110841
0.000127893
-0.000138774
0.000119592
-0.000114411
0.0001105
-0.000114897
-0.000115945
0.000116131
-1.73546e-07
0.000114351
-1.65316e-06
-0.000112636
0.000112199
-0.000116691
0.000113971
0.000119178
-0.000118479
-0.000116973
0.000115673
1.3784e-06
-0.000113681
-3.18198e-06
-0.000119212
0.00011566
3.54115e-06
-0.000116303
-2.99879e-06
-0.000119478
0.000115894
3.52981e-06
-0.000116514
-2.96963e-06
-0.000119489
0.00011611
3.49727e-06
-0.000116464
-2.91167e-06
0.000139309
-9.11234e-05
-1.20637e-06
-0.000111042
0.000111914
-0.000119523
0.000116078
3.42265e-06
-0.000128852
6.93381e-05
5.62187e-05
-0.000116748
-2.86319e-06
-0.000119761
0.000116387
3.34737e-06
0.000114497
0.000126837
-0.000108732
-1.53824e-05
9.13372e-05
1.34801e-05
-0.000105029
-0.000116976
-2.77182e-06
0.000115116
-0.000119698
0.000116585
3.23355e-06
0.000118161
5.05945e-06
-0.000116947
-2.66455e-06
-0.000135919
3.09688e-05
-0.000112318
1.13727e-06
0.000111009
-0.000119691
0.000116559
3.06869e-06
-6.75811e-05
-5.23437e-05
0.00011993
-0.000117256
-2.5418e-06
9.9837e-05
-0.000102335
2.36487e-06
2.83822e-06
-0.000108934
0.000106111
-0.000119823
0.000116813
2.96884e-06
-0.000111081
-5.47805e-06
-0.000117407
-2.40502e-06
7.47967e-07
-0.000111831
-0.000106373
-9.14282e-06
5.33504e-05
-0.000120903
-0.000114108
-5.16096e-06
0.000102387
-1.12727e-05
-0.00010996
0.000114905
-4.94316e-06
-0.000112069
2.11755e-06
-0.000119746
0.000117018
2.84695e-06
-0.000117379
-2.27112e-06
-4.19866e-06
0.000110779
-0.000106585
7.88112e-07
0.000111787
-0.000112622
-0.000119149
0.0001164
2.70096e-06
-0.000117658
-1.58715e-06
0.000117101
-0.00011948
2.59935e-06
-2.52466e-06
0.000122636
-0.000121426
-0.000119632
0.000117211
2.43487e-06
8.57749e-05
-0.000115419
3.04392e-05
-0.000117792
-1.91243e-06
1.92773e-06
-0.000109034
0.000107095
9.67347e-05
1.37779e-05
-0.000119781
0.000117393
2.27693e-06
0.000116739
-8.09974e-06
-0.000108372
-0.000118038
-1.72978e-06
0.000114728
-2.81544e-05
-2.19698e-05
1.66332e-06
-0.000109182
0.000107516
0.000111262
-0.000114522
3.27632e-06
-2.7726e-07
0.000111547
-0.000119643
0.000117625
2.14652e-06
-0.000117876
-1.6369e-06
-0.00011723
0.000100379
1.72654e-05
2.90521e-06
-0.000109441
0.000106538
3.74105e-06
-0.000110345
0.000106607
-0.00011939
0.000116886
2.32183e-06
2.5515e-06
-0.000113985
0.000111179
-0.000118182
-1.44369e-06
-7.40079e-06
0.000118414
-0.00011529
-2.79402e-06
-0.000119988
0.000116922
2.90051e-06
-0.000118409
-1.8995e-06
-0.000113119
0.00011342
-2.96033e-07
-0.00011279
0.000114631
-1.82473e-06
-8.02452e-07
5.77862e-05
-0.000125769
-6.37769e-07
-0.000112146
-0.000111607
0.000112426
0.000116067
-0.00011828
1.88135e-06
-6.27444e-05
-6.35782e-05
0.000112504
-0.000120655
0.000117664
2.82029e-06
5.0677e-07
0.000110805
-0.000111287
-0.0001186
-2.27916e-06
-1.44372e-07
-0.000111119
0.000111277
-4.04582e-06
0.000109722
-0.000105672
1.77151e-06
-0.00011326
-0.000112212
0.000114016
-0.000120867
0.000118223
2.67214e-06
-0.000118563
-2.07466e-06
-0.00011375
-1.91766e-08
0.000114099
-0.000111439
-1.6652e-06
0.000113504
-0.000119666
0.000117321
2.46667e-06
-0.00011193
-0.000118424
-1.32537e-06
-0.000116543
0.000118246
-1.69695e-06
-1.237e-06
-0.000120671
-0.000119986
0.00011777
2.1676e-06
-0.000118688
-1.62857e-06
-0.000113578
2.04033e-06
-3.85858e-06
-0.000120643
0.000118517
1.99649e-06
-0.000119126
-1.40398e-06
-4.80908e-05
-6.61907e-05
-2.8718e-07
0.000111826
-0.000111519
-0.000112708
0.000112437
0.000110861
-0.000109623
-0.000119684
0.000118374
1.78187e-06
-0.000113069
-2.01894e-07
0.000113215
-0.000118444
-1.21355e-06
9.89728e-07
0.000108846
-0.000110084
-0.000121028
0.000121063
-0.000115742
1.0142e-06
0.000114603
-8.50576e-06
-0.000120153
0.000118044
1.57289e-06
-0.000119417
-1.0192e-06
0.000114557
1.46977e-06
-0.000119938
0.000118884
1.32548e-06
-0.000118643
-7.7678e-07
6.05586e-07
-0.000121066
0.000107666
-0.000117138
0.000117308
-1.73537e-07
-8.70838e-05
-4.74863e-05
0.000135171
-6.42007e-06
8.31447e-05
-0.000114412
3.00744e-05
5.88298e-06
-0.000122588
0.000102053
-2.12652e-06
-0.000100619
-3.27796e-05
-0.000114921
6.60885e-06
0.000108284
-5.47553e-06
-0.000112012
-6.78075e-05
-6.372e-05
0.00013247
-0.000116645
0.000115429
1.15665e-06
-0.00011614
-1.03008e-06
-2.86019e-06
8.69636e-05
3.00226e-05
0.000111346
-0.000110823
-0.000116903
0.000116107
8.62211e-07
0.000111216
9.45267e-05
3.07833e-06
-9.7605e-05
-1.67834e-06
-2.94538e-05
0.000102384
-7.85683e-06
0.000118419
-1.06607e-06
9.94236e-07
-1.83587e-06
0.000115491
-5.09638e-06
-0.000110067
0.000116353
-9.31171e-07
-1.59882e-06
0.000120044
6.37713e-05
7.55752e-05
-0.000134753
7.89285e-05
5.56654e-05
-8.55107e-05
-5.27824e-05
-1.45871e-05
0.000115939
-1.88384e-06
-0.000111933
-0.000119836
-0.000130721
6.99477e-05
-0.000109296
0.000109969
0.000112499
-0.000111168
8.79171e-07
-0.000112659
5.00949e-08
0.000112609
0.000125606
-4.95915e-05
-0.000112808
9.5251e-07
0.000111896
6.92545e-06
-0.000115446
0.000109239
-0.000111434
1.06931e-06
-0.000127932
4.89215e-05
0.000114461
-9.21833e-05
-2.07881e-06
0.000112375
-0.000110395
-4.94739e-06
-0.000109209
0.000114163
7.24632e-05
-0.0001237
5.12368e-05
0.000107554
-0.000111748
0.000115959
-0.000102615
-0.000149975
8.86593e-05
6.1314e-05
-0.000113187
6.45023e-07
0.000112617
-9.21719e-07
-0.000111524
-0.000131132
6.37354e-05
9.85686e-05
6.37544e-06
-0.000104991
0.000107977
-9.30697e-06
-4.88293e-06
2.09835e-06
-0.000119392
7.53467e-06
4.44107e-07
-0.000112999
0.000115645
-0.000114837
-4.49461e-07
0.000109483
-0.000110486
3.88782e-05
-0.000124396
0.000111288
5.87e-07
-0.000115861
0.00011601
-2.20068e-07
0.000120151
-0.000124356
-0.000115953
-4.82436e-07
-7.26542e-07
-0.000112213
-6.50268e-05
9.89847e-05
-3.43179e-05
-6.906e-07
-0.000113085
0.000113617
9.25432e-05
1.31763e-05
-0.000105719
0.000113108
-0.000111144
8.23612e-05
-0.000114038
3.21532e-05
0.000103646
-1.11026e-05
-3.02634e-06
-0.00011112
0.000110128
-0.00011059
0.000106921
-0.000111838
0.000112451
-2.99682e-05
-3.97177e-06
-0.000105689
0.000108203
-0.000112079
0.000109874
-6.69763e-05
0.000130733
-6.37562e-05
-0.000118457
0.000118006
5.62466e-07
-1.96284e-06
0.000110242
-0.000111827
-6.80857e-05
-6.82206e-05
0.000106455
-0.000111215
-3.88943e-06
0.000110393
0.000110229
-7.83997e-05
-6.50973e-05
0.000119107
-5.42625e-05
0.000110908
-0.000118886
1.53507e-06
0.000117843
-8.1399e-06
-0.00010075
3.41882e-05
-1.35191e-06
0.000101092
5.17571e-07
0.000116414
-0.000120043
5.6801e-06
0.000114465
-0.000120145
-0.000119053
0.000118565
5.981e-07
-2.14946e-06
-0.000114579
9.0897e-07
-1.33714e-06
0.000106706
-0.00010537
-0.000116893
9.47136e-05
1.4535e-05
-0.0001193
0.000118654
9.22375e-07
-0.000135649
2.84288e-05
0.00010829
-0.00010961
-2.29396e-06
-2.18856e-05
0.000114433
-1.98129e-06
-1.33209e-06
-0.00011249
0.000113684
0.000117428
-5.02193e-05
-0.000115673
1.00413e-06
-0.000109711
0.000107571
0.000104753
-2.50796e-06
0.000112806
6.17379e-06
-0.000114802
0.000108459
-0.000119367
0.00011921
3.43121e-07
-0.00010848
5.39381e-07
0.000108446
-1.68756e-06
0.000125413
-8.27543e-05
-0.000108657
-4.91711e-06
0.000111592
-0.000110557
0.000114002
-1.34177e-06
0.000116152
-1.95091e-06
7.71678e-05
-0.000107279
2.97144e-05
5.86838e-06
0.0001099
-0.000115904
-0.000112332
0.000113092
0.00013011
-0.000118124
0.000106629
-2.95611e-05
4.3541e-06
-0.00011434
0.000109691
-5.66085e-06
0.000114589
-0.000109429
7.74638e-06
0.000106731
-0.000115104
-0.000108012
0.000114959
0.000140764
-0.000111449
-2.93168e-05
6.21964e-06
-0.000108761
0.000102617
-0.000117162
0.000117452
-3.39403e-07
0.000108574
-0.000102286
5.04037e-05
9.03618e-05
0.000115681
-9.61979e-07
4.92004e-06
-0.000116398
0.000111708
5.24578e-06
-0.000113431
0.000108769
7.97898e-06
0.000103935
-0.000111923
8.57816e-07
0.000110765
-0.000111626
-0.00011806
0.000106193
-0.000107648
0.000116631
-1.48782e-06
-1.52632e-07
0.000110128
-0.000110057
0.000116418
-0.000114448
0.000111437
-0.000118368
1.46833e-06
3.09485e-06
0.0001155
-7.96857e-07
7.79772e-07
-0.000112265
0.000109456
-0.000110725
-2.82842e-06
0.000106742
-0.000110401
-0.000110564
0.000106011
8.5245e-05
2.99722e-05
-0.000114521
0.000113446
1.06752e-06
0.000118329
-0.0001183
3.77905e-08
0.000118618
-4.36061e-07
-2.96177e-05
0.000111007
4.12575e-07
0.000117945
-0.00011801
2.44949e-07
-0.000117396
0.000118238
-8.55494e-07
0.000118772
-6.64801e-07
9.919e-06
0.000106755
-0.000116669
-9.75478e-05
0.000107466
1.15961e-05
-0.000109148
-0.000107505
0.000103141
-0.000118113
4.81875e-07
-4.63415e-06
8.82994e-05
-0.000102448
1.35623e-05
-2.45071e-07
0.000117261
0.000108275
-0.000109669
0.000113871
9.22917e-05
-4.72561e-06
-0.000116109
-8.10678e-05
0.000103274
-2.21615e-05
0.000125159
-7.64179e-06
0.000110054
-0.000102079
7.83883e-05
-0.000108753
3.08881e-05
0.000109716
-3.12329e-05
9.50328e-05
-9.9441e-05
0.000116967
-6.18322e-06
8.05239e-07
-0.000107301
0.000113397
-6.07333e-06
-0.000118474
0.000125924
-0.000119801
5.04923e-06
-0.000112476
-0.000114235
4.32391e-07
-9.1296e-07
0.000112554
-0.000110049
0.000110498
3.49316e-06
0.000104334
-0.000107838
0.000107421
1.56474e-06
-0.000113522
-0.000104662
-7.40606e-06
-3.46789e-06
-0.000112009
-0.000118809
3.21371e-06
6.32402e-07
0.000110066
-0.0001107
-0.000113879
-2.29972e-06
0.000117898
-0.000117898
2.24634e-06
-6.8613e-05
-8.13593e-05
-0.000113687
3.32301e-07
-0.000118396
-2.08667e-06
-5.72855e-05
-7.75067e-05
5.71226e-06
-0.000122353
-0.000107503
-0.000114781
-2.34637e-06
0.000109622
-0.000111438
2.87788e-06
-0.000108778
-1.74093e-06
0.00011038
0.000107796
2.15962e-06
-0.000111071
-0.000122576
0.000121567
-0.000113623
0.000114614
-9.54686e-07
1.33388e-05
-9.44041e-05
-0.000114313
7.23137e-06
-0.000116147
-1.15123e-06
-0.000116209
-1.06887e-06
-0.000115961
-1.04032e-06
-0.000116148
-1.2509e-06
4.76721e-07
-0.000118484
1.37817e-06
-0.000129794
6.64475e-05
3.9981e-07
-0.000115848
-1.00129e-06
5.92143e-07
0.000113718
3.5295e-07
0.00011401
-0.000115522
1.38561e-06
-0.000116338
-1.35907e-06
3.36414e-07
-0.000138841
7.77355e-05
6.11006e-05
-0.000115786
-1.00812e-06
7.02932e-07
3.31992e-07
-0.000111404
0.000114101
-2.69775e-06
-0.000116287
-1.57322e-06
0.000114377
-0.000122355
8.3358e-06
-0.000115457
-1.01531e-06
3.39774e-07
1.73574e-06
-0.000115388
-1.03814e-06
0.000115546
-0.000114948
-4.94487e-07
-0.000116186
-1.75734e-06
3.63051e-07
-4.37382e-06
-0.000115272
-1.08701e-06
1.15473e-06
-0.000115574
-9.63877e-07
-0.000115981
-1.90811e-06
3.92111e-07
-0.00012634
5.93641e-05
0.00010482
-0.00010894
7.38306e-05
-0.000105441
3.14924e-05
1.25501e-06
2.01244e-06
0.00011329
-2.02281e-06
-0.00011176
-3.06936e-08
-0.00011642
-1.95255e-06
0.000111519
-0.000110991
2.73309e-06
-0.000111384
2.87327e-06
-1.36149e-06
1.14979e-06
-3.57584e-05
2.60963e-06
0.000107144
-0.00011077
-0.00011735
-1.20622e-06
1.05839e-06
-0.000109549
-7.74211e-07
0.000110681
1.18492e-06
-0.000117512
-1.12006e-06
1.23535e-06
0.000130355
-0.000117015
-1.26535e-06
6.48762e-07
-0.0001172
-1.5191e-06
1.23245e-06
-0.000114086
1.00527e-05
-0.000108399
8.79472e-07
5.04042e-06
-0.000109545
0.000104509
-0.000117297
-1.74034e-06
0.00012844
-2.08769e-07
-0.000104365
0.000109411
-0.000113318
-1.21384e-06
1.89232e-06
-1.58405e-06
-0.000111289
0.000113224
-0.00010939
-6.92518e-07
0.000110045
-0.000116717
-1.99215e-06
1.32616e-06
-0.00011652
-2.15125e-06
9.34577e-05
1.43987e-05
1.56038e-06
-0.000107287
-2.09234e-06
0.000110105
-0.000117002
-2.37398e-06
0.000112141
0.000116089
-3.83886e-07
-2.17705e-05
1.8115e-06
-1.14315e-06
-0.000117807
-0.000115246
0.000115323
-2.42199e-06
-0.000115896
-2.54215e-06
-0.000116827
0.000118469
-1.67778e-06
-0.000118301
1.19656e-06
1.59782e-05
-0.000105967
8.9813e-05
1.97864e-06
-0.00011662
-2.0692e-06
2.27124e-06
-5.59672e-05
-7.63814e-05
0.000132166
-1.52226e-06
-0.000109684
0.000110438
0.000108644
-0.000110689
2.85213e-06
-0.000115654
-2.95027e-07
0.000108759
-0.000111087
-4.25468e-06
0.000110335
-0.000106077
1.32363e-06
-0.000111807
-1.18467e-06
0.000109856
1.22197e-06
0.000110387
-0.000110104
-7.05442e-05
0.000136594
-0.000106298
-0.000113811
0.000116508
-2.44321e-06
4.17314e-06
0.000109583
-3.49146e-06
0.000116818
-0.000115154
-4.25071e-06
0.000113017
-0.000108833