/*--------------------------------*- C++ -*----------------------------------*\
  =========                 |
  \\      /  F ield         | OpenFOAM: The Open Source CFD Toolbox
   \\    /   O peration     | Website:  https://openfoam.org
    \\  /    A nd           | Version:  12
     \\/     M anipulation  |
\*---------------------------------------------------------------------------*/
FoamFile
{
    format      ascii;
    class       volScalarField;
    location    "6.4";
    object      T;
}
// * * * * * * * * * * * * * * * * * * * * * * * * * * * * * * * * * * * * * //

dimensions      [0 0 0 1 0 0 0];

internalField   nonuniform List<scalar> 
22702
(
1
1
0.967244
1
1.01648
1
1.12086
1
1
0.890177
1.12055
1.12083
1
1.11855
0.972309
1
1
1
1.1202
1
1.11867
1
1.1185
0.895778
1.11894
0.89906
1
1.11925
0.888805
0.893202
1
1.12045
1
1
1
1.11053
1.11942
1.11869
1
1
0.894853
1
1.06348
1
1.119
1
1
1
1
0.893858
1
0.895612
1
1.12049
1
1.12058
1
1
1
1
0.8848
1
1
0.894851
1
0.899605
1
1
1
0.889195
1
1.11902
1.07582
1
1.11928
1.12595
0.898328
1.11922
0.897423
1
1.12012
0.894936
1.11996
1.11966
1
1
1
1
0.985059
0.889697
1.12098
1
1
0.888698
1
1.11864
0.889227
1
1
1
1
1.06322
1.1202
0.898325
1
1
1.03098
1
0.895873
1
1.11946
1.12071
1
1
0.894558
0.893648
0.889502
1
1
1
1
1
0.979787
1
1.103
1.01085
1.11988
1
1.12028
1.1203
1.11862
1.12158
1
0.88879
1
0.888254
1
1
1
1
1.1206
1
1
1
1
1.11863
1
1.00791
1
1
1
1
0.893687
1
1.00306
1
0.898513
1
1
1
1.12055
1
1.11823
0.876476
0.89105
1.11977
1.11898
1
1.02316
1.0706
1
1.12066
0.897252
1.1107
1
1
1
1
1.11847
1.1009
1
1.12052
0.902804
1.1206
1
0.899716
1
0.895493
0.895988
0.999941
1
1
1.12056
1
1
1.11851
1
1.11995
1.12034
0.897118
1
1
0.898754
1.11835
1
1
1
1.11835
1
0.893352
1
1
1.11849
1.11847
1.11973
1
1.00001
1
1
1
1.11858
1
0.9037
1.12482
1.11857
1.11884
1
1
1
0.893217
1.11863
1.05994
1
1.11893
0.896146
0.89514
1.11892
1.11788
1
1.11838
0.894169
1.10602
1
1
1
1
1.11843
1
1.07218
1.01239
1
1
1.11853
0.888035
0.939072
1
1.1178
0.890357
1.1187
1
1
1
1
1
1
1
0.892858
0.931387
0.893932
1.11868
1
1
1
1
1.1082
1
0.89509
1
0.890416
0.89935
1.11836
0.898791
1.11864
1
1
1
0.999351
0.899549
0.878437
1
1
0.889323
1
1.12019
0.896697
1
1
1.1205
0.868735
1
1.11732
0.891181
1.11851
1
0.891504
0.999357
1
1
1
0.897521
1
1
1
1
1.00376
1.07607
1
0.909257
1
1
1
1
1
1
1
1.12129
1
1.12118
1
1
1
0.8875
1
1.11836
0.899635
1
1.09541
1
1
1.1206
1
1
1
1.11748
1
1
1.1174
1.12073
1
1.02873
1
1
0.88917
1
1
1
0.886373
1
1
1
1
0.903862
1
1
1
1
1
0.879259
1.00002
1.11853
1
0.999998
1.1191
1.11992
1
1
0.90126
0.944797
1.12079
1
1
1
1.11845
0.889892
1
1.11833
1
1
0.911827
0.907733
1
0.897176
0.890345
1
1
1
1
1
1
1
1.11957
1.03129
1.11264
0.880116
0.972521
1.12084
1
1.11943
1.12112
0.890098
0.938763
1
0.890194
1
1.12475
1
1
1
1
1.11835
1
1
1
1
1
1
1
1.04657
1.11983
1
1.11869
1
1
0.897102
1
1
1
1
1.11844
1.09297
1
1
0.899783
1.11869
1.11844
1
1.11847
1.11859
1.11853
1
0.946268
1
1.11839
0.99529
1.11863
1
0.891161
0.999685
1.12016
1
1
1
1
0.895105
1.11847
1.10854
1
1.11825
1.11841
1.1202
1
1.05755
1.11878
1
1
1.08458
1.01872
1.11849
0.982486
1.11846
1
1.11847
1.11858
1.11844
1.11873
1
1.11278
0.972167
0.965402
1
1
1
1
1.12032
1
1
1
1
1
1.12039
1
1
0.998892
1.11844
1.10492
1
1.10097
1.00001
1
1
1.11864
1
0.99904
1.00118
1
1.11854
1
1.11907
1
1
1.09079
1
1.11914
1.00001
1
1.11896
1
1.11846
1
1
1
1.11846
1
1.11902
1
1.11836
1.12054
1.11835
1.11944
1
1.1209
1.11761
1
0.893187
1.11192
1.0875
1
1.11845
1
0.888877
0.8902
1
1
1
1
1
0.889073
1
1.1187
1.03585
1.11874
1
1
1
1
1
1.11861
1
1.11917
1.07435
0.932603
1
1
1.03645
1.03063
1
1
1.04669
1
0.899078
1.11848
1.11851
1
1
1
1.12056
1
1.00001
1.11916
1.1184
0.987957
1
1
0.89411
1.10889
1
1
1
1
1
1.11847
1.12084
1
1.11868
1.11843
1.11838
1
1
1
1
0.896785
1.12125
1
1
1.10902
1.11828
1
1.11221
1.12042
1
1
1
1
1
1.11852
1
1
1
1
1.11992
1
1.11578
0.889453
1
0.888416
1
1
1
0.99907
0.895045
0.999724
1
1
1
1.01754
1
1
0.962759
1
1
1
1
1
1
1
0.999999
0.98025
1
1
0.999307
1
0.896166
1
1
1
1
1.09141
1
1
1
1
0.900887
1
1
1.11235
1.12085
1
1
1
0.967737
1
1
1
1
1
1
0.987855
1.00559
1.11856
1
1
1
1.1183
0.976259
1
1
1
1.11885
1.11989
1
1
1
1
1
1
1
1
1
0.888542
1
1
1.11938
0.892271
1
1.11904
1
0.897058
1
1
0.889449
1
1
1
1
1
1
1
1.11652
1.11836
1
1
1
1
1.10916
1
1.04116
0.894386
1
1
1
1
1
1
1
1.0131
1
1
1.06797
1
1
1
1.0987
1
1
1
1
0.890559
1
1
0.884159
0.890171
1
1
1.11834
1
1.01025
1
1
1
1.08494
0.892619
1
0.885134
1
0.935472
1
1
1
1.11926
1
1
1.11839
1
1
1
1.11848
1
1
1.11868
1
1
0.890337
1
1.03934
1
1
1.12088
1.12074
1.08271
1.10749
1
0.889937
1
1
1.11364
1
0.890095
1
1
1
1.11864
1
1
1
1
1.07442
1
1.11245
1.11959
0.887417
1
1
0.900937
0.900051
1
1
1
1.08631
1.0926
1
1
1
1
1
1
1
1.05524
1.12028
1.00423
1
1.11732
0.88783
1
1
1
1.06774
1
1.02557
1
1.10909
1.11825
1
0.892178
1
1.12074
1
1
1.11863
1.11194
1
1.12129
1
0.891062
1
1
1
1.11946
1.11649
1.10561
1
1.1194
1.11856
1
1.11883
1
1.11824
1
0.89043
0.991882
0.887916
1
1
1
1
1
1.11865
1
1.11861
1
1
1
1.1131
1
0.896094
1.11839
1
0.89378
0.899959
0.892408
1
1.06256
1.01074
1.11896
1.11847
1
1
1
1
1.1186
1
1
1.11865
1.1187
1
1.04592
0.999915
1
0.999084
1.12108
0.955486
1
0.941974
0.900294
0.898028
0.998893
1.11839
1.11718
1.02706
1.11858
1.1188
1
1
1.12066
1.12028
1.11843
1.12067
1
1.1188
0.893181
1.11821
1.11847
1.11931
1.11912
0.961986
0.972066
0.980022
1.11855
0.989392
1.11867
1
1
1.11914
1.11847
1
0.89101
1.1195
1.11873
1
1.11863
1.11869
1
1.11842
0.897195
1.11996
1.12023
1.12148
1.11975
1
1
1
1.11866
1.08028
0.909813
1.11852
0.887599
1.11856
1
1
1
1
1.11792
1.11861
1
1
1.11865
0.889778
1.11883
0.898683
1
1.11776
1
0.889831
1.1188
0.921056
1
1.11843
1.11919
1.11826
1
1
1.06139
1.11908
0.897878
1.11852
1
1.11854
0.965048
1.11825
0.890077
1
1.1184
0.89859
1.11916
0.899095
1
1.11856
1
1.11947
1
1.07188
1.11458
1.09536
0.887555
1
1.11833
1
1.11858
1
1.11855
1
1
1.11827
0.992594
1.11923
0.887285
1.10616
1
1.08622
1
1.119
1.11851
1.11904
1
1.1077
1.11888
1.11069
1.077
1.11657
1
1.08162
1
1.11836
1
1.02004
1
1.11064
1
1.11849
1.11341
1.11328
1
1.1161
0.894442
1
0.89017
1
1
1
1.12017
1
1.11877
1
1
1
1.11889
1.11655
1.09934
1.11854
1.11935
0.888766
1.11687
1.12074
1
1.10237
1.11841
1.11728
1
1.12073
1.12074
1
1.11936
1.11865
1.1188
1.11879
1
1
1
1.1184
0.904477
1
1.11863
1
1
0.885668
1
1
1.11861
1.11853
1
1.1185
1.11895
1.11891
0.99457
1.11868
1
1.11862
1.11862
1.09646
1
1
1
1.11877
1.11854
1.11856
0.983285
1
1.12123
1.11851
1.11812
1
1.11862
1.11845
1.11861
1.12223
1
1.11838
1.11971
1.10606
1.11849
1.12187
1
1.11987
1.11742
1.11856
1.11909
1.11833
0.891103
1.11855
1.11883
1
1.11857
1.11853
1.11852
1.11842
1
1.11861
1.11855
1
1.11868
1.1011
1
1
1
1.11933
1.11709
1
1
1.06633
1
1.11865
1
1
1.11882
1.11893
1.11851
1.11874
1
1
1
1.08706
1
1.11842
1
1
1.12123
1.12033
1
1.11864
0.886091
1.11836
1.11938
0.909088
1
0.892211
1.10559
1.11954
1.11836
1.11843
0.884876
1.11881
1.1191
0.886993
0.886962
1
1.11847
1.11858
1
1
1.11856
1
1.11932
1
1.10481
1
1.05919
1.11845
1.11905
1.08663
1.10891
1.12052
1.11823
1.1119
1
0.889927
1.11814
1.11866
1.11874
1
1
1
1.12046
1
1.1185
1.11863
0.927833
1
1.11843
0.999984
1
1.00001
1.00001
1.11865
1.11891
0.999556
1
1
1.11857
1.11915
1.11858
1.11961
1.11824
0.903043
1.10623
1
1.11775
1.11846
1.11841
1.11954
1
1.11854
1.1156
1.11895
1
1.11871
1.11885
0.955283
1.11849
1.11883
1
1.11854
0.952635
1.11835
0.955707
1.11861
1
1.11859
1.12242
1.11857
1.11858
1.11858
1.12004
1.11875
1.11901
1
0.980907
1.11829
1.11846
0.954171
1.1184
0.997382
1.08058
1.11839
1.11939
1.11858
1
1.11928
1.07914
1.11887
0.977403
1.11908
1.12195
1
0.961414
1
1.1191
1
1.0841
1
1.11241
0.962048
1
1.11951
1.11678
1
1.11906
1.119
1.12068
1.12073
1.12012
1
1.12049
1
1
1
0.971165
1.11852
1.11868
1.12019
1.1186
1.11683
1.11945
1.11834
1.11875
0.973937
1.00929
1
1
1.12337
1.11871
1.11852
1.11862
1.00001
1.06255
1
1.11896
1.10397
1
1
0.917022
1.11862
1
1
0.893398
1.11865
1
1.12068
1.11845
1.12066
1.11458
1.11859
1
0.892217
1.03019
1.1185
1.1186
1
1.11865
1.11861
1.06426
1.00269
1.02751
1
1.1194
1.11855
1
1
0.884509
1
1
1.11853
1.11867
1.11902
1.11852
1.11866
1.12011
1.11857
1.11834
1.11863
1
0.998806
1.11847
1.1184
0.998999
1.11863
1.11861
0.891113
0.888952
1.11883
1.11897
1
1
1.00031
1.11839
1.11871
1.11865
1
1.11862
1
0.959682
1.11891
1.12053
1
1.05472
1.11888
1
1.11904
1
1.11838
1.07956
1.11826
1
1.11844
1.12013
0.886089
1.1186
1
1.11883
1.12001
1
0.892442
1.11937
1.10269
0.999315
1.11195
1.11858
1
1.00219
1.11897
0.999433
1.11863
1
1
1.11873
1
1.11928
1.11861
0.999007
1.09681
1
1.11861
1
1
1
1
1.11862
1
1
1.12081
1
1.11861
1
1.07961
1.11854
1.11869
1
1
1.00262
1
1.11883
1.11852
1.11866
1.11855
1.11865
1.11847
1.11854
1
1.1184
1.11859
1
1.11849
1.11845
1
1.11856
0.980438
1.01652
1.11846
1.11845
1.1184
1
1.11855
1
1.1186
1.11849
1
1.11869
1
1
1
1
1.11846
0.892432
0.999404
1
1.11838
1.12052
1
1.11851
1
1.00157
0.891521
1.11856
0.999883
1
1.11876
0.999543
1.11854
1
0.999933
1
1.11874
1.11903
1.11853
1.11902
0.895191
1.11847
1.11885
1.11828
1.03071
1
1
1.0556
1.11867
0.891649
0.892062
1
1.11849
1.1187
1.11831
1
1
1.11903
1.1184
0.999965
1
1.09088
0.885751
1
1.02275
1.12007
1.11507
0.999497
1.11866
1.12105
1
0.999636
1
1.11833
1.12067
1.04988
1
1.11112
1
1.00042
1.11847
0.893593
1.11828
1.11862
0.999153
0.999976
1.10441
1
0.999912
1
1.11825
1
1
0.890774
1.1186
1
1
1
1
1.11934
1.06938
1
1
0.889383
1.11859
1.07002
1
1
1
1.11345
1.11352
1.12024
1
1
1.12017
1
1.11837
1.11842
1
1
1.11913
1.1187
1.11578
1
1
1.1192
1.11929
1
1
1
1.11919
1
1
1
1.11877
1.11985
1.1189
1
1.12012
1.00001
0.907826
1.11843
1.11876
1
1.11984
1.11374
1.12012
1
1
1.11947
1
1.06978
1.11929
1
0.8876
1
1.11899
1
1
1.11942
1
1
1
1.04044
1.1182
0.899032
1
1.11878
1
1
1.11883
1
1.11932
1
1
1.11853
1.11864
1
1.00001
1
1
1
1
1
1
1.11779
1.11864
1
1.1206
0.891483
1.11901
1
1.11857
1.1207
1.11852
1.12004
1.12177
1
1
1.11926
1
1.07806
1.11938
1.11873
1
1.11907
1.12009
1
1.10665
1
1.1185
1.08047
1.11914
0.999278
1.11769
1.1087
1.11875
1.11865
1.01062
1.11846
1.11907
1
1.11855
1
1.1185
1
1
1
1
0.998724
1.11865
1.11848
1.10051
1
1.11836
1
1
1
0.902921
1
1.116
1
1.10872
1.11438
1
1
1
1.10981
1.12101
1
1
1.11856
0.89142
1.02127
1
1.1193
1.11845
1.10922
1.11602
1.11844
1
1.11855
1
1
1
1
1.11851
1.1189
1
1.11737
1.01677
1.11881
1.11111
1
1
1.11146
1
1
0.892967
1.084
1
1
1.11924
1
1.11934
1.10874
1
1.10856
0.89277
1.11888
1.11853
1.11863
1
0.898005
1
1
1
1.1184
1.09858
1
1.121
1.1186
1
1.11861
1
1
1
1
1.11846
0.999809
1
1.11907
1
1
1.12044
1.11866
1
1.12033
1.02389
1.00001
1
1.11866
1
1.11863
1
1.00388
1.11868
1
1.11852
1
1
1.03946
1.11875
1
1
1
1
1
0.999
0.892944
0.892879
1.0059
1
1.00904
1
1.00919
1
1.11864
1
1.07924
1
1.1186
1
1
1
1.11863
1
1.09511
1.11853
1
1.06632
1.11865
1
1
1.11997
1.1185
1
1
1.01434
0.884743
1
1.11905
1
1
1
1
1.02073
1.11846
1
1
1
0.890871
1
1.11858
1.1186
1.12124
1
1
1
1
1.06132
1.12198
1
1
1
1.11954
1.11842
1.01419
1
1
1
1.11885
1.11844
1
0.888574
1.11851
1.11855
1.11841
1.11838
1.1177
1
1
1.12022
1.11788
1.11871
0.892985
1.01155
1.11879
1
1
1
1
1
1.11842
0.891844
1
1
1.11864
1.05854
1
1.1196
1
1
1
0.894797
1
1
1.03252
1.11847
1.11854
1
1.11658
1.12003
1
1.02134
1
1.11933
1
1.11861
0.891717
1
1
1
1
1.11863
1.00002
1
1
1
1.11593
1
1
1
1
1.11871
0.893002
1.09703
1.1195
1
1.11841
1
1
1
0.999163
1
1.12077
1
0.942805
1
1
1.00001
1.11848
0.891992
1
1.1179
1
1.11787
1.11852
0.890472
1
1
1.11229
1
1
0.892784
1
1.11593
1
1.11374
0.999808
1.11866
1
1
1
1
1.12017
1
1
1.11854
1
1
1
1
1
1
1
1
1.08121
1
1.04195
1.11807
1
1
1
0.891556
1
1
1
1
1.11894
1.11862
1.01717
1
1
1.11876
1
1
1.11883
1
1
1
1
1
1
1.11845
0.934816
1.1185
1.11903
0.99913
1
1
1
1.07335
1
1
1.11854
1.11863
1
1
1
1
0.891509
1
1
1
1.07748
1
1.11851
1.11907
1
1.11896
1
1
1
1.06611
1
1.12118
1
1.11849
1
1
0.998893
1.11843
1
1
1
1
1
1.11796
1.00001
1
0.896102
1.11792
0.896236
1
1.11829
1
0.998827
1
1.1186
1.11936
1
1.11661
0.964307
1.11849
1.12035
1.00001
1
1
0.891082
1
1
1
1.11861
1.071
1.11818
1
1
1
1
0.999042
1.11904
1
0.895264
1
1
1
1
1
1
1
1.12166
1.11877
1.11919
1
1
0.999091
1
0.993308
1
1
1
0.890128
0.99501
1
0.888611
0.892527
1
1.11863
1.11858
1
1.11906
1.11862
0.894057
1.08059
1
1
1
0.895275
1.11882
1
0.894387
1
1.12003
1.02233
1
1
1
1
1.11855
1.11989
1
1
1.11862
1
1
1.12062
1.11858
1
1.1107
1.11851
1.11881
0.990321
1.11823
1.00249
0.894383
1.09264
1.11844
1
1
1
0.890585
1
0.892048
1.11977
0.987334
1.11846
0.989811
1
1.11871
1.05855
1
1
1.11911
1
1.05284
1.11824
1
1
1.11988
1.11563
0.894018
1.07214
0.999972
1
1.07373
1
1.11745
0.985514
1.12047
1.11963
1
1
1
1
1.11393
1
1
1.11861
0.999903
1.11859
1.09472
1.119
0.896143
1
1
1
1
1.1186
1.00001
1.1185
1
1.11869
1.11822
1.01642
1.11793
1.04013
1.11873
1
1.08402
0.901937
1.11933
1.11854
1.09961
1.02356
1.11926
1.11848
1.11857
1.11839
1
0.97533
1.0181
1
1.11845
1.06005
1.11856
1.00001
1
1
0.896332
1.11816
1.11842
1.09862
1
1.04854
1
1.11946
1.11975
1
1.11902
1.11832
1
1
1
1.11902
1
1.0491
1.11771
1.08546
1
1.1187
1
1
1
1
1
1
1
1
1
1
0.889872
1
1.11018
0.89112
1.07327
0.999585
1.11781
1
1.06569
1
1.07982
1.10598
1
1.00086
1.12032
0.974611
1
1.11972
1.11543
0.984723
1
1.11826
1.11865
1.11892
1
1.11855
1.11859
1.11895
1
1.05905
1
1.00002
1.11856
1
1.11869
1.01839
1.11855
1
1
1.11815
1.11937
0.901368
1
1.11863
1.09095
1.11841
1
1
1.11856
1.11836
0.999492
1
1.10591
0.999108
1.11866
1.00001
1
1
1
1
1.058
1
1.09288
1.11899
1.09058
1.11825
1
1.00072
1
1
1.11967
1
1.11922
1
1
1
1
1
1
1.01518
1.06609
1
1
0.894366
1
1.11802
0.895334
1.121
1
1.0637
0.999931
1.11889
1.07931
0.893629
1.06786
1.00001
1.11852
1.1187
1
1.07521
1.11941
1.11893
0.999544
1.11688
1.11568
0.898717
1
1
0.999418
1
1.11734
1
0.893818
1.11806
1
1
1.10528
1
1.11896
1
1.11896
1
0.905919
1
1
1.11911
1.12036
1.11927
1
1.11784
1.1185
1.11707
1
1
1.11802
1
0.920298
1
1
1
1.11887
1
1.11854
1.08101
1.11833
1
1.1185
0.999825
1
1
1
1
1
1
0.916327
1
1
1.11846
1
1.11966
1.11877
1
0.8911
0.892143
1
1.11896
1.02098
0.89365
0.883229
1
1.1191
1
1.11923
0.881985
1.00032
1
1
0.999856
1
1
1
0.999975
1.05358
1.11857
1
1
1.11858
1.07222
1
1.1061
1.11819
1.119
1.05349
1.11792
1
1.11862
1
1.11715
1
1.11898
1.11813
0.999088
1.11923
1.12032
1
1
1
1
1
0.976864
1.11902
1.00001
1.00001
0.896731
0.999995
0.889561
0.902459
1
1.1187
1.11864
1.11855
1
1.11839
1
0.894606
1
1
1.11906
0.94918
1.11826
1
1.11889
1
0.997518
1.11856
1
1
1
1.11889
1
1.11844
0.893158
1
1
1.07155
1
1
1.06674
1
1
1.11893
1
1
1
1
1
1.12006
1.11854
1
1.11824
1.11904
0.885328
1.05888
1.11792
1
1
1.10791
0.99972
1
1
1.11861
1.11924
1.0816
1
1.11872
0.88854
1.11211
0.99992
1
1.11875
1.00001
1.11831
1.09959
1.09224
1
1
1.11865
0.908369
0.894129
1
1.11858
1
1.11843
1
1.07436
1
1
1.11834
1.07971
0.895345
1
0.999565
1
1
1.00744
1.05287
1.11865
1
1.12019
1
1
1
1
1
1
1.01843
0.888734
1
1
1.01199
1
1
1
1
1
1.11874
1
1
1.1184
1.11844
1.08565
1
1
1
0.950792
1.11971
1.08617
1
1
1
1
1.11871
1
1
1
1.11812
1
1
1.08774
1.12342
1.01412
0.92291
1.1184
1.08724
1.11894
1
1.06241
1
1
1
0.892272
1.00067
0.89113
1
0.886673
0.880519
1
0.88709
1
1
1
1.05722
1
1.11875
1.11889
1.00051
1.05979
1.10198
0.89253
0.932169
0.968506
1
1.11842
1.11957
1.11841
1.11851
1.10277
0.965331
1
1.10373
1
1.11349
1
1
0.999028
1.00289
1
1
1
1.1182
1
0.893421
1
1.11894
0.899322
1
1
1.11853
1
1.11847
1.00004
1
1
1.11869
1.10582
1
1.12247
1
1
1.00411
1
1.05773
1
1
0.885717
1
1
1.11821
1
1.11861
1
1.00001
0.893764
1
1
0.90327
1.00031
1
1.11946
0.88863
1.1182
0.887505
1.11866
1
1
1
1
1
1
1
1
1
1
1
1.11418
1
1.11893
1.1198
0.885009
1
1
1
1
1
1
1.11559
1
1
0.893927
1
1
1.11972
1
1
1.05051
1.10065
0.890499
0.887264
0.911751
0.925141
1
0.999008
0.899749
1.00013
1.1111
0.999121
1
1
1.11884
1
1
1
0.934831
1
1.04698
1
1
1.05296
1.11839
1
0.895359
1
1
1
0.999108
1
1.11833
1.11858
1
0.887876
1
1.06688
0.887287
1
0.970437
1
0.998954
0.880968
1
1
1
0.998878
0.891312
1
0.887578
0.999546
1.06569
1.10762
0.887335
0.894188
1
0.997089
1
0.999612
1
1.11845
1.1183
1
1.00702
1.11866
1.11869
1
1
1.11855
1
1
1.00001
1
1.12078
1
1
1.00528
1
0.999577
0.905424
1
1
1
1
1
1.11774
1.01198
1.00001
1
1
1
1
1
1.00001
1
0.886445
1.03059
0.999587
1.12079
1.11984
1
1.00401
1.11861
1.10527
1
1
0.885669
1.11903
1
1.11964
1
1.11827
1.08245
0.887661
1
0.888303
1.11292
0.999906
1
0.888741
0.899846
1
1
1.10106
1
0.999999
0.88299
1
1
1
1.04128
1
0.884921
1.11855
1
1
1
1
1.1186
1
1
1.12038
1.10728
1
1
1
1.11952
0.883946
1
1.11826
1.11859
1
1.09681
1
1.00001
1
1
1.1106
1.00709
1
0.896823
1.06868
1
1
0.99934
1
1
1.12057
1
1
1.00001
1
1.11878
1
1
1
1
1
1
1
1.05588
1
1.11885
1
1
1.11896
1
1
1
1.11863
1.11885
1.01246
1
0.999308
1
1
1
1
1.12045
1
1
1.1186
0.891954
1
1
1
1
1
1
1.09792
1
1
1.11933
1.11918
1
1
1
1.11827
1.11804
1
0.999911
1.119
1
1
1
1.00001
0.897368
1.00851
0.998887
0.998816
1
1
0.895062
1.11932
1
0.878743
1
1.11889
1.11395
0.8919
0.999831
1.11863
1.11859
1.11882
1
1
0.980041
1.10969
1.1
0.889513
1
1
1
1.11893
1.11878
0.886634
0.999183
1
1.11848
0.893619
1
1.11609
0.890307
0.995877
1.00183
1
1.11848
1
1
1
1
1
1
1.00003
1.11097
1
1
1.11789
1
1
1
1.11851
1
0.886641
1
1
1
1.04386
1
1
1
1
1
0.939693
1
0.895431
1
1.11868
1.00002
0.963394
0.966539
1
1.00149
1.06446
1
1
0.893442
1.11851
1.1187
1.11849
1
0.885609
0.884636
1
1.11845
1
1
1
1
1
1.00001
1
0.891557
1.07977
1
1
0.890519
0.99684
1
1
1
1
0.881499
1
0.911003
1
1
1.12088
1
1
0.89249
1
1.11858
1
0.891929
1
0.889311
1
1.00236
1.11869
1.12316
1
1
1.11982
1
1
1.03071
0.999095
1
0.999493
1
1.119
1
0.890446
1
1.12022
0.999694
1
1
0.942019
1
0.999705
0.886356
1.11894
1.04575
1
1
0.973653
1
1
1
0.942075
1
1
1
1.11856
1
0.889287
1
1
1
1
0.890402
1.11856
1.11057
0.888884
1
1.11865
1
1
1.11857
1.11909
1.1014
0.887398
0.999342
0.999794
1
1.11859
1
1
1
1
1.11888
1.00001
1
1
1.12001
1
1
1.11856
0.890119
1
1
1
0.893824
1
1
1
0.999619
1
1
1
1
1.09455
1
1.12006
1.11873
1.11997
1.11859
1.11843
1.11848
1
1.11899
1
1.1186
1.11861
1
0.999688
0.88949
1.10316
0.99998
1
1
1
1
1.00067
1
1.0205
1
1
1
0.953843
1.11853
1.1185
1.11964
1.10609
0.999963
1
1.00646
1.11904
0.99942
1.01705
0.999209
0.889242
1
1.00001
1
1
1
1
1
1.11848
0.888558
1.11846
1.11844
0.998634
0.888449
1
1
1
1.11857
0.882987
1.10523
0.887439
1.11855
1.12029
0.889706
1.1185
1.00685
1
1.11948
0.941475
1
0.99964
0.895558
1
0.889677
1
1.1185
1.11852
0.926029
1
1.11948
0.889532
1
0.893212
1
1.11862
1
1
1.11781
1
0.951817
1
0.999906
0.89052
1.11904
0.999847
1
0.886477
1
1
1
1
1.0686
1
1.11842
1
1
1.1217
1
1
1.11841
1
0.892991
1
0.893861
1
1
1
1
1
1.11363
1.07189
1.11855
1
1.11847
1.1107
0.881021
0.895312
1
1
1.11854
1
0.891063
1
0.996212
1
1
1.11869
1
1.11827
0.89456
1.12126
1
0.892866
1
1
1.11929
1.11822
1
1.00001
1
1.1205
1
1
0.903628
0.999833
0.895672
1
1
1
1.11899
1.11889
1.11996
1
1
0.880011
1
1.11913
1
1
1
1.11437
1.11853
1.11864
0.879448
1.11903
1.11864
0.897798
1.11987
1.00001
0.895061
1.0039
1
1
1.11889
0.878349
1.07896
0.880721
1.1186
0.999217
0.88882
1.11886
1
1
1
1
1.11857
1.1195
0.888475
1
1.00001
0.892022
1.00001
1
0.887353
0.893888
1.08531
1.11858
0.999566
1.11856
1
1.11976
0.947459
0.894433
1.11848
1.1223
1
1.11856
1
1
1.11858
1
1.09597
1.12025
1
1
1
1
1.11886
1.11734
1.11837
1
1
1.11896
1.12036
1.11905
1
1.11879
1
1
1
1
1
0.884461
0.950425
0.894331
1
1
1.11867
1
1
1.11886
0.892933
1
1.11856
1.11739
1.11425
0.885583
1
0.87866
1
1.00001
1.11964
1.06112
1.1196
1.10968
1
0.899207
1
1.11916
1.08725
0.893232
1
1
1
0.947187
1
1
1.1215
1
0.894341
1.1186
1
1
1
1
1
1.09737
1.02845
1
1.11886
1
1.11869
1
0.999223
1
1.11874
1.11959
1.11835
1.11927
0.999885
1.11966
1
1.11835
1.11859
1.10181
1
1
0.889903
1.11965
1
1
1.11939
1.11856
1.11885
1
1.11842
1
1
1.00001
1.11985
1.1181
1.03495
1.02787
1.11866
1.11845
0.911529
1
1
1
1
1
1.04494
1
1
1.10058
0.898832
0.999987
1
1.11858
0.999969
0.999946
1.0186
1.11267
1.12001
0.976558
1
0.891783
1
0.999593
1.11858
1.11909
1.11945
0.999731
1
1
0.893902
1
1
1.11862
1.01367
1
1
1
1
1
1
1
0.999983
1.11891
1
1
1
1
1
1.07966
1
1.0587
1
1
1.11856
1.12045
0.893765
0.999641
1
1
1
0.889712
1.11968
1.11862
1
1
1
1
1
1
1
1
1.11886
1.1171
0.890584
1.01453
0.890882
1
0.891066
1
1.11863
1.04017
1
1
0.914075
1
1.11416
0.942004
0.999101
0.888142
1
1
1.11917
1.00001
0.999226
0.883588
1.11971
1.12043
1
1
1
1
1.11132
1
1
1.11849
0.999711
1.11916
1.00001
1
1
0.893253
1
1
1.11866
0.891368
0.931162
0.892884
1.11874
0.999803
1
1.11867
0.888331
0.891295
1.00544
1
1
1.12021
1.00001
1.05576
1
1
1.12014
0.892495
1
1
1.00004
1.11927
1.00004
1.11515
1
1.00001
1
1
0.905152
1
0.93767
1.00001
1
1.11805
0.895849
1
0.930539
0.945115
1
1
1.11875
1
1
1
1.11824
1.11868
1.00002
1.11705
1.12027
0.928954
1.11857
1.11271
1
1
1.11948
1
1
1
1
1
1.12143
1.11859
1
1
1
1.11843
1.00006
1
0.889946
0.901229
1
1.00001
1.04609
1
1
0.973265
0.890197
1
1
1
1.12032
1.10973
1.11858
1
1
1
1
0.891684
1
1.11517
1
1.11954
0.88889
1.11769
1
1
1
0.875074
1
1.11926
1.00001
1
0.892987
1.04734
1
0.99991
1.12194
0.885593
0.892392
1
1.11955
0.885139
0.888857
1
0.897923
1
1
1
1
0.875929
1
1
1
1
1.11907
1
1.09352
0.884903
1
1
1
0.886476
1.11873
1
1
0.999028
1.11588
1
1.1185
1.1194
1
1
0.917937
0.887722
1
1
0.891567
1.03929
1.05803
1
1
1.12052
0.999234
1
0.999403
1.12045
1
1
1
1
1
1
1.11901
1
1.04578
1.04201
0.907102
1.10716
1
1.1186
1.11851
1
1
1
0.97706
0.888257
1
1.06512
0.999906
1.10736
1
1
1
1
1
1.00201
1.05558
1.11881
1.11874
1
1.11866
1
0.885549
1
0.999332
0.999938
1
0.888112
1
0.894711
1.00001
1.11945
1.11987
0.887826
1.11922
0.90619
0.998916
1.09218
0.890174
1.08719
1
1
0.999538
1
1
1
1.00002
1
0.889165
1
1
1
1
0.999878
1.11828
0.945233
1
1
1
1.01077
1
1
1
1.07163
0.92623
1
1
1
1.01549
1.12004
1
0.880148
1
1.119
0.97195
0.889428
1
0.889575
1
1
1.113
0.999502
1.11184
1
1.00248
1
1
1.11885
1
1
1
1
1.02547
1
1.11848
1.119
1.11939
0.887982
1.11874
0.999152
1.09877
1
1
0.88707
1
1
0.890278
1.11823
1
1
0.999989
1
1
1
0.886096
0.881782
1
1.12016
1
1.05729
1.11832
0.891292
1.10179
1
1
0.897126
1
1
1.11862
1.11851
1.0464
1
1
1.0007
1.11945
0.88634
0.890855
1.11982
1.11847
1.08272
1.0488
1
0.972099
1
1
1
1.11011
1.11868
1.11918
1
1
1.11927
0.893781
1.10962
0.885965
1
0.89471
1
0.89108
1.11859
0.884861
1
0.995295
0.898088
1
1
1
0.95686
1.11223
1.11857
1.11905
1.11945
1
1
1.12067
1
1
1.11882
1
0.874824
1
0.889599
1
1.11951
1
1
1.00996
1.09256
1
0.999683
0.884856
1.11847
1
0.891722
1.0238
1
1
1.09077
1.1185
1.11843
1
1.11877
1.03681
1
1.00683
1.11858
1
1
1
1
1.11848
1
0.899747
1.11926
0.892551
0.896269
0.94976
1.11875
1.04429
1.11844
1
1.11981
0.999286
1.00001
1.11864
1.1199
1
1.1192
1
1.11844
1
1.11936
1
1.00001
0.999991
1.1192
0.883663
0.891423
0.999376
1
1
1
0.885584
1
1.08107
1
0.892281
1
1.05297
1.11861
1.11958
1
1
1.00001
0.999852
1
1.11971
1.1185
1
1.05487
1.11895
0.955393
1.11854
1.00011
0.887747
1.02661
0.874738
1
1
1.02069
1.12034
1
1
1.01326
0.999583
1
0.902354
1
0.939566
1
1.11815
1
1
0.884343
1.03095
1.01726
0.999564
1.11868
1.11854
0.932094
0.999456
0.888536
0.880121
0.890811
1
1
1
0.999748
0.921402
0.896958
1
1.11861
0.999928
1.11856
1.1187
1.1198
1.11845
1
0.890724
1.1184
0.889518
1
1.11835
1.11938
0.99905
0.945941
1.11831
1.09243
1
0.887252
1
1
1.12038
1
1.00764
1.11836
1
0.897396
0.887989
1
1
0.884073
0.875895
1.1185
1.00002
1
0.895472
0.885255
1.11959
1.11369
1.11167
1.11986
1.03735
0.994355
1.05203
1.11774
1.09513
1
1.06537
1
0.881446
0.960748
1
0.889317
1.11847
1.00608
1.11888
1
1.11858
1.11968
1
1.11911
1.11848
0.886282
1.11926
1
1.12147
1
0.922128
0.894536
1.1187
1
1
1
0.89125
1.11851
1.11885
1
0.89196
1
1
0.890157
1.00001
0.883908
1.11951
1
0.94519
0.877623
1
1
1.07376
1
1
1
1.02213
0.887978
1
1
1
1.11912
0.894205
1
1.11867
0.893486
0.876269
1
1
1.11879
1
1.11832
1
1.11874
0.893176
1
1
0.887697
0.939498
0.890145
1
1
1
1
1.11933
0.887688
1
0.894341
1
1.11752
1
1
0.974796
1
1
0.949702
0.999904
1.00002
1
0.892706
0.89395
1
1
1
1
0.938901
1.11824
1.11921
1
0.890279
0.883057
0.975193
0.896283
1
0.946649
1
0.887355
0.997757
1
1
0.895254
1
1.11877
1.11508
0.887097
1
1
1
1.11768
1
1.01347
0.953294
1.04039
0.895441
1.04946
0.885244
1
1
0.914399
0.973896
1
1.01349
1
1
0.883543
1
0.981284
1.01503
0.894333
1
1.09677
0.927921
0.967263
1
1
1
0.892064
1
0.891439
0.889959
1
0.955363
0.895386
1.01976
0.927578
0.88885
1.11859
1
1.11855
1.06783
0.915583
1.11855
0.893262
0.99973
1.11948
1
1
1.11847
1
0.913693
1
1.01952
1
1
1.11853
1
0.924189
0.947462
1.1205
0.979785
1
0.927509
1.11865
1.11921
0.974384
1
1.11855
1.03321
0.954728
1
1.00711
1
0.892149
1.05539
0.931548
0.91341
1
1
0.896621
1.1184
0.990338
0.893906
0.88483
0.959336
1
1.00642
1.11933
1.11855
1
1
1
0.889991
1.06024
0.999999
1.1189
1.10973
0.887371
1
1.02907
0.966506
1.07328
1.10727
1
1.01319
1
1.00002
0.893586
0.954182
1
1
0.945828
0.895384
1.01288
1
1.00001
0.894368
1.05838
1
1.11548
1
1.0104
1.06758
1
1.1154
1
1
1.11887
1
0.88823
1.11987
0.903832
1.03299
1
0.895074
0.999974
1
1.00001
1
0.932024
1.00777
0.891501
1.08896
1.11971
0.883825
1
1
1
1
1
0.991886
0.894486
1.01402
0.892687
0.890532
1.02305
1
0.999947
1.03289
1
1
0.886794
0.999993
1
1
1.0362
1
1.11911
1
1.11983
1.02699
1.00819
0.891576
1
1
0.890553
1
1
1
1
1.1185
1.01237
0.99945
1
0.88426
1.01476
1
1
1.08081
1
0.891464
1.11832
1
1
1
1.11893
0.889304
0.968646
0.889364
1.09198
1.11889
1
1
1.11855
1
0.877382
1
1
1
1
1
0.92857
1
1.11934
1
1
1.04578
1.11897
0.885011
0.964523
1
1.11855
1
1
1
1
1
1.11856
1.11992
0.877109
1.11845
0.887079
1
1
1.11861
1
1.11995
1.00107
1.00777
1.01784
1.11876
1.02007
1.08342
0.888945
1
0.887335
0.997688
1
1.11863
1
1
0.88881
1.11993
1
1.11985
1
1
1
1
1
1
0.891038
1.11923
0.950084
1.11864
1
0.890804
0.885678
0.915765
1.12055
1.11857
0.992788
1
0.932715
1
1.05164
1
1.1188
0.884508
0.890843
0.960366
1
1.11877
1
1.02061
0.901853
1
1.12051
1.1037
0.99968
1
1.11866
0.894839
1.11938
1.11879
1.12001
0.890562
1.02588
1
1
0.88464
1
0.939056
0.94644
1
1.00001
1.11843
1
1.11831
1.02364
1
1.01207
1.12097
1
0.893091
1
0.927233
1
1
1.09866
1
0.937786
1
0.89753
1.01068
0.986841
0.883484
1.1188
1.09818
1.11962
0.894113
0.904855
0.99884
1
1
0.895479
1.1127
0.88523
0.999991
1
1.11849
1.11889
0.973716
1
0.889732
0.915505
1.0824
0.998053
0.887829
1
0.88874
1.033
0.889197
1
1.00002
0.945256
1.11997
1.11883
0.952788
0.999886
1
1
0.919608
1
0.886386
1
0.879291
0.885434
1
1
1.00001
0.892487
1.11855
1
1
1.00002
1.00001
0.890384
1.11873
1.11866
1
0.891248
1.12035
1
1.02985
1
1
1.11893
0.883942
1
1
0.88487
0.919242
0.888821
0.888034
1
0.912048
0.999202
1.02419
0.888338
1
1
1.03717
1
1.10657
1
1
1.08618
0.901275
1
0.887217
1.03719
1.11839
1
1
0.896938
0.904965
0.885451
0.921166
0.904481
1.09156
0.999823
1
1
1
1
1.1195
0.897461
1
0.98211
0.999905
0.99965
0.99998
0.922854
1.03742
1
1.1186
1.11875
1
1
1.11614
1.00001
1
1.11845
0.893938
1.11936
1
0.882188
1.11876
1.00002
1
0.94411
1
0.884997
1
1.11931
1
1
1.11933
1
1
1.11804
1
1
1
1.12005
1
0.925621
0.910574
1
0.884002
1.11863
1
1
0.996461
1
1.11883
1.07195
1.09733
1
1
0.888972
1
0.887695
1.11871
1.11954
1.11946
1
1.11929
0.886892
1
0.889006
1.09684
1.10904
1.11922
1.11852
0.931114
0.887142
1
1.08048
1.11886
1.11938
1.11856
0.91498
1.04567
1
1.09207
0.929887
1
1
1
1.00001
0.968611
1
1.11792
1
1
1
1
1
1
1.00002
1.1179
1
1.11939
1.09028
0.892032
1.11975
1.00924
1.06394
1
1.11859
1
0.893911
1
1
1
1
1.10316
1
0.881892
1.11884
0.882523
1.11874
1.09637
1.06418
1
1.02392
1.0597
0.998784
0.889216
0.929613
1.00001
1
0.973209
1
0.887716
1.11872
0.890502
0.980892
0.958559
1
1
1
1.00412
1
1
0.8888
0.999052
1.1197
1
1.11849
1
0.888164
1
1
1.11857
1.11837
0.882497
1
1.11957
1
0.943933
0.887448
1.11902
1.10789
1
1.02156
1.1187
0.999618
1
1.05416
1.10554
1.11803
0.998674
1
0.999999
1.10292
1
1
1
1.11855
0.999568
1
1
1.11862
1
1
0.891331
1
1
1
1.1191
1
1
0.952707
1.0391
1.10896
0.926485
1
1.11866
1
1.0446
1
1.11927
0.999214
1.11854
1
0.888544
1
1.08838
1
1
1.11144
1.00001
1.11882
1
1.11766
0.901843
0.893624
1.11952
1
1.10231
1
1.11944
1
1
1.00001
1.11906
1.11927
1.03546
1.11864
0.998851
0.883093
1.11912
0.955648
1
1.11877
1
1.11867
1
1.11923
1.11966
0.998977
0.889027
1
1.11861
1
1.00777
1
1
0.999413
0.919762
1.10727
1
1.10451
1
0.962345
0.890129
1.11853
1.1189
0.891338
1
1.11882
1.11969
1.11908
0.895541
1.11875
0.889233
1.11912
1.11808
1
1
1.11853
1
1
1
1
0.887688
1
1
1.11941
1.11855
1
1.1186
1
1.12033
1.12006
1
1.10118
1
0.88289
1.11857
1.08983
1.03865
0.881712
1.11855
1
1
0.889885
1
1
1.11858
1
1
0.933854
1
1.11874
1.00002
1.11858
0.886382
1.12057
1
1.1186
1.11434
0.96652
1
1.11836
0.930327
1.12006
1.08734
1.11853
1.11832
0.999148
1.12061
1.11874
1.11861
1.11857
1.00007
1
0.888726
1
1.11975
0.947013
1.10902
1
1.11667
1
1
1
1
1
1.11808
0.888917
0.8764
1.11914
1.11852
1
1
1
1
1
1.11797
1.10992
1.11851
1.0095
1
1
1
1.00001
1.11808
1.11857
1
1.11912
1.1194
0.896235
1.08536
1
1.11865
1.11923
1.11787
0.999388
1.11872
1.11861
1
1.10652
1
1
1
1
1
1
1.11874
1.12008
1.11092
1.11848
0.889771
0.906536
1.11854
1.11854
1
0.886311
0.983998
1
1.06046
0.885992
1
0.999841
0.999499
0.886041
1
1.11857
1
1
1
1.11971
0.989509
1
1.11867
1.11851
1
1.11887
1
1
1.11855
1
0.890052
1
1.11802
1
1
0.894322
1
1.11866
1
0.885367
0.891436
1
1.11399
1
0.885797
0.969315
1
1.11879
1
1
1
1.11985
1
0.89027
1.01824
1.11908
1.11902
1.11853
1.01316
1.11895
1.11859
1
1
1
1
1
1.11866
1
0.999802
1.11815
1
0.881422
1
1.11847
1.05951
1.01935
1.0594
1.01729
1.11715
0.902468
1.11864
1
0.890248
0.999175
1.11842
0.982835
1.11855
1.11862
1.11807
1
1.11925
1.11868
1.11863
1
1.00001
1
1
1.11914
1.0861
1
1
0.890345
0.998988
1
1.11865
1
1.1185
1.11871
1.11838
0.97414
1.11858
1.11855
1.0021
1.05944
1.11943
1.11854
1
1.11035
0.944701
1.11668
0.99885
1.11848
1
1.11849
1.11924
1
0.894071
0.983137
0.897509
1
1.02311
0.999047
1.11895
1
1
0.999121
1
1.06104
1.11009
1
1
1.11878
1
1
1.08741
1.11874
1.11421
1.1192
1.11879
1
1.1185
0.913901
1.11946
1
0.999279
0.892379
1
1
0.922223
1
1.03914
1
1.11906
1
1.1166
1.07853
0.885402
1
1
1
1
1
1.11835
1.00323
1
1.11962
1
1.11854
1.11858
1
1
0.992414
0.999954
0.885842
0.882657
0.912118
1.02506
1
0.999544
0.891373
1.00001
1
1.11854
0.979701
1.11118
1.10173
1
1
1
1
1
1.1187
1.11851
1
1.11915
1
1.11959
1.08257
0.99877
1
1
1
1.0718
1
0.984064
1
1.1189
1
1
1.11849
1
1
1
1
1
1.1187
0.883689
0.998826
1.10738
1.11855
1
1.11855
1
1
1
1
0.899554
1
1.11916
1.11853
1.11858
1.12085
0.987589
1
1.10165
1.032
1.11921