/*--------------------------------*- C++ -*----------------------------------*\
  =========                 |
  \\      /  F ield         | OpenFOAM: The Open Source CFD Toolbox
   \\    /   O peration     | Website:  https://openfoam.org
    \\  /    A nd           | Version:  12
     \\/     M anipulation  |
\*---------------------------------------------------------------------------*/
FoamFile
{
    format      ascii;
    class       volScalarField;
    location    "3.5";
    object      rho;
}
// * * * * * * * * * * * * * * * * * * * * * * * * * * * * * * * * * * * * * //

dimensions      [1 -3 0 0 0 0 0];

internalField   nonuniform List<scalar> 
22702
(
1.40001
1.40001
1.25287
1.40001
1.4581
1.40001
1.83904
1.40001
1.40001
1.03058
1.83821
1.83995
1.40001
1.84128
1.26953
1.40001
1.40001
1.40001
1.83781
1.40001
1.84276
1.40001
1.84357
1.02604
1.84487
1.01357
1.40001
1.83638
1.04256
1.0249
1.40001
1.84059
1.40001
1.40001
1.40001
1.8096
1.84517
1.84371
1.40001
1.40001
1.032
1.40001
1.62358
1.40001
1.83588
1.40001
1.40001
1.40001
1.40001
1.02549
1.40001
1.02443
1.40001
1.8387
1.40001
1.84165
1.40001
1.40001
1.40001
1.40001
1.01923
1.40001
1.40001
1.0217
1.40001
1.03175
1.40001
1.40001
1.40001
1.0289
1.40001
1.84007
1.67148
1.40001
1.84036
1.86167
1.01792
1.83502
1.02996
1.40001
1.83707
1.04101
1.84612
1.83774
1.40001
1.40001
1.40001
1.40001
1.32906
1.03442
1.84773
1.40001
1.40001
1.0321
1.40001
1.84315
1.03627
1.40001
1.40001
1.40001
1.40001
1.62199
1.83811
1.01242
1.40001
1.40001
1.50811
1.40001
1.0399
1.40001
1.83859
1.84012
1.40001
1.40001
1.01532
1.02414
1.03349
1.40001
1.40001
1.40001
1.40001
1.40001
1.30732
1.40001
1.78099
1.44252
1.83705
1.40001
1.84371
1.83743
1.84236
1.83792
1.40001
1.03069
1.40001
1.03389
1.40001
1.40001
1.40001
1.40001
1.83933
1.40001
1.40001
1.40001
1.40001
1.84221
1.40001
1.42704
1.40001
1.40001
1.40001
1.40001
1.0294
1.40001
1.41051
1.40001
1.03073
1.40001
1.40001
1.40001
1.84671
1.40001
1.84142
1.0441
1.02182
1.83803
1.83841
1.40001
1.47277
1.65205
1.40001
1.83938
1.0289
1.8104
1.40001
1.40001
1.40001
1.40001
1.84145
1.75883
1.40001
1.83792
1.00561
1.84153
1.40001
1.03124
1.40001
1.02512
1.02359
1.39979
1.40001
1.40001
1.83917
1.40001
1.40001
1.84171
1.40001
1.84798
1.8378
1.0305
1.40001
1.40001
1.01977
1.84178
1.40001
1.40001
1.40001
1.84179
1.40001
1.03034
1.40001
1.40001
1.84179
1.84202
1.84468
1.40001
1.40004
1.40001
1.40001
1.40001
1.84229
1.40001
1.00769
1.85265
1.84188
1.84193
1.40001
1.40001
1.40001
1.00685
1.84169
1.62802
1.40001
1.84343
1.03747
1.03298
1.84341
1.8414
1.40001
1.85008
0.998003
1.79223
1.40001
1.40001
1.40001
1.40001
1.84187
1.40001
1.66465
1.44133
1.40001
1.40001
1.84207
1.04282
1.15122
1.40001
1.84283
1.02948
1.84734
1.40001
1.40001
1.40001
1.40001
1.40001
1.40001
1.40001
1.03001
1.13292
1.0346
1.84171
1.40001
1.40001
1.40001
1.40001
1.79173
1.40001
1.02977
1.40001
1.00656
1.017
1.84213
1.04626
1.84254
1.40001
1.40001
1.40001
1.39765
1.03359
1.01605
1.4
1.40001
1.0004
1.40001
1.83826
1.01637
1.40001
1.40001
1.83454
1.0525
1.40001
1.84643
1.02808
1.84194
1.40001
1.01459
1.39765
1.40001
1.40001
1.40001
1.02468
1.40001
1.40001
1.40001
1.40002
1.39996
1.673
1.40001
1.03428
1.40001
1.40001
1.40001
1.40001
1.40001
1.40001
1.40001
1.83521
1.40001
1.83649
1.40001
1.40001
1.40001
1.02843
1.40001
1.84209
1.05626
1.40001
1.74657
1.40001
1.40001
1.8391
1.40001
1.40001
1.40001
1.83565
1.40001
1.40001
1.83577
1.83929
1.40001
1.48547
1.40001
1.40001
1.03493
1.40001
1.40001
1.40001
1.03304
1.40001
1.40001
1.40001
1.40001
1.03456
1.40001
1.40001
1.40001
1.40001
1.40001
1.01961
1.40007
1.84016
1.40001
1.40001
1.83894
1.83745
1.40001
1.40001
1.04504
1.22642
1.84224
1.40001
1.40001
1.40001
1.84137
1.0259
1.40001
1.84094
1.40001
1.40001
1.10963
1.08396
1.40001
1.0297
1.05066
1.40001
1.40001
1.40001
1.40001
1.40001
1.40001
1.40001
1.82998
1.51169
1.81627
1.02629
1.30559
1.83818
1.40001
1.84065
1.84171
1.05292
1.18944
1.40001
1.02961
1.40001
1.8464
1.40001
1.40001
1.40001
1.40001
1.84187
1.40001
1.40001
1.40001
1.40001
1.40001
1.40001
1.40001
1.55513
1.84727
1.40001
1.84175
1.40001
1.40001
1.03719
1.40001
1.40001
1.40001
1.40001
1.84177
1.738
1.40001
1.40001
1.02819
1.8415
1.84188
1.40001
1.84184
1.84152
1.84189
1.40001
1.24822
1.40001
1.84142
1.39386
1.84182
1.40001
1.03544
1.39883
1.83791
1.40001
1.40001
1.40001
1.40001
1.03801
1.84227
1.79901
1.40001
1.84144
1.84114
1.84152
1.40001
1.59714
1.84332
1.40001
1.40001
1.70441
1.46691
1.84183
1.33446
1.84195
1.40001
1.84207
1.84186
1.8421
1.84138
1.40001
1.83273
1.29397
1.26315
1.40001
1.4
1.40001
1.40001
1.84441
1.40001
1.40001
1.40001
1.40001
1.40001
1.83954
1.40001
1.40001
1.39601
1.84191
1.77701
1.40001
1.7653
1.40005
1.40001
1.40001
1.84173
1.40001
1.3972
1.40464
1.40001
1.84174
1.40001
1.84098
1.40001
1.40001
1.72946
1.40001
1.84138
1.40003
1.40001
1.84238
1.40001
1.84183
1.40001
1.40001
1.40001
1.84188
1.40001
1.8414
1.40001
1.84188
1.83684
1.84169
1.83157
1.40001
1.83891
1.83454
1.40001
1.0248
1.81425
1.7172
1.40001
1.84193
1.40001
1.04097
1.03065
1.40001
1.40001
1.40001
1.40001
1.40001
1.04302
1.40001
1.84167
1.51312
1.84165
1.40001
1.40001
1.40001
1.40001
1.40001
1.84195
1.40001
1.84273
1.66518
1.19847
1.40001
1.40001
1.52955
1.51429
1.40001
1.40001
1.56271
1.40001
1.02739
1.84186
1.8418
1.40001
1.40001
1.40001
1.83929
1.40001
1.40003
1.84053
1.84208
1.35748
1.40001
1.40001
1.02265
1.80197
1.40001
1.40001
1.40001
1.40001
1.40001
1.84188
1.83911
1.40001
1.84291
1.8424
1.8419
1.40001
1.40001
1.40001
1.40001
1.01936
1.83885
1.40001
1.40001
1.80205
1.84041
1.40001
1.81561
1.84744
1.40001
1.40001
1.40001
1.40001
1.40001
1.84172
1.40001
1.40001
1.40001
1.40001
1.84163
1.40001
1.84228
1.0383
1.40001
1.04959
1.40001
1.40001
1.40001
1.3969
1.03123
1.39904
1.40001
1.40001
1.40001
1.46528
1.40001
1.40001
1.27558
1.40001
1.40001
1.40001
1.40001
1.40001
1.40001
1.40001
1.4
1.31708
1.4
1.40001
1.3976
1.40001
1.02781
1.40001
1.40001
1.40001
1.40001
1.73069
1.40001
1.40001
1.40001
1.40001
1.05328
1.40001
1.40001
1.81587
1.83681
1.4
1.40001
1.40001
1.27834
1.40001
1.40001
1.40001
1.40001
1.40001
1.40001
1.35533
1.40169
1.84163
1.40001
1.40001
1.40001
1.84159
1.29297
1.40001
1.40001
1.40001
1.84007
1.83474
1.40001
1.40001
1.40001
1.40001
1.40001
1.40001
1.40001
1.40001
1.40001
1.04537
1.40001
1.40001
1.83895
1.02963
1.40001
1.83812
1.40001
1.02762
1.40001
1.40001
1.0535
1.40001
1.40001
1.40001
1.40001
1.40001
1.40001
1.40001
1.83311
1.84075
1.40001
1.40001
1.40001
1.40001
1.80376
1.40001
1.53227
1.02786
1.40001
1.40001
1.40001
1.40001
1.40001
1.40001
1.40001
1.44316
1.40001
1.40001
1.63074
1.40001
1.40001
1.40001
1.76468
1.40001
1.40001
1.40001
1.40001
1.03688
1.40001
1.40001
1.03047
1.0364
1.40001
1.40001
1.84089
1.40001
1.40019
1.40001
1.40001
1.40001
1.70715
1.04943
1.40001
1.02928
1.40001
1.17881
1.40001
1.40001
1.40001
1.84191
1.40001
1.40001
1.84247
1.40001
1.40001
1.40001
1.84236
1.40001
1.40001
1.84254
1.40001
1.40001
1.05059
1.40001
1.52907
1.40001
1.40001
1.84021
1.83692
1.69565
1.79562
1.40001
1.03997
1.40001
1.40001
1.82246
1.40001
1.0087
1.40001
1.40001
1.40001
1.8421
1.40001
1.40001
1.40001
1.40001
1.66509
1.40001
1.80146
1.84305
1.03246
1.40001
1.40001
1.0158
1.02199
1.40001
1.40001
1.40001
1.71236
1.73725
1.40001
1.40001
1.40001
1.40001
1.40001
1.40001
1.40001
1.58716
1.83164
1.41486
1.40001
1.83682
1.02074
1.40001
1.40001
1.40001
1.64051
1.40001
1.48682
1.40001
1.80372
1.83953
1.40001
1.03449
1.40001
1.84162
1.40001
1.40001
1.84206
1.81353
1.40001
1.84227
1.40001
1.03174
1.40001
1.40001
1.40001
1.83208
1.83329
1.78885
1.40001
1.84462
1.84053
1.40001
1.84256
1.40001
1.83964
1.40001
1.03174
1.36455
1.01222
1.40001
1.40001
1.40001
1.40001
1.40001
1.84192
1.40001
1.84208
1.40001
1.40001
1.40001
1.81974
1.40001
1.01784
1.84182
1.40001
1.01919
1.05763
1.03545
1.40001
1.61895
1.4279
1.84337
1.84083
1.40001
1.4
1.40001
1.40001
1.84175
1.40001
1.40001
1.84165
1.84075
1.40001
1.551
1.39962
1.40001
1.39686
1.84632
1.23081
1.40001
1.20528
1.02077
1.03327
1.35146
1.83919
1.83542
1.47571
1.8419
1.84197
1.40001
1.40001
1.82728
1.83833
1.84164
1.83934
1.40001
1.84178
1.00863
1.84267
1.84251
1.83793
1.84617
1.26986
1.30228
1.32129
1.84258
1.33909
1.84174
1.40001
1.40001
1.8435
1.84193
1.40001
1.0288
1.84187
1.84197
1.40001
1.84181
1.84183
1.40001
1.84164
1.03722
1.84052
1.82648
1.84073
1.84495
1.40001
1.40001
1.40001
1.842
1.68817
1.02918
1.84218
1.01468
1.84186
1.40001
1.40001
1.40001
1.40001
1.84028
1.84233
1.40001
1.40001
1.84179
1.02811
1.84224
1.01849
1.40001
1.83875
1.40001
1.03055
1.84345
1.1407
1.40001
1.84119
1.84562
1.84338
1.40001
1.40001
1.62424
1.84483
1.03145
1.84183
1.40001
1.84166
1.27492
1.84264
1.05448
1.40001
1.84063
1.05531
1.84344
1.02642
1.40001
1.84215
1.40001
1.84713
1.40001
1.6588
1.82547
1.74745
1.02674
1.40001
1.84106
1.40001
1.84229
1.40001
1.84217
1.40001
1.40001
1.84122
1.38074
1.84404
1.03633
1.80641
1.40001
1.71082
1.40001
1.84339
1.84206
1.84127
1.40001
1.7971
1.84103
1.80832
1.66843
1.84451
1.40001
1.69238
1.40001
1.84132
1.40001
1.44449
1.40001
1.80937
1.40001
1.84194
1.82093
1.82108
1.40001
1.83541
1.02495
1.40001
1.04274
1.40001
1.40001
1.40001
1.84039
1.40001
1.84249
1.40001
1.40001
1.40001
1.84242
1.82958
1.77039
1.84335
1.84734
1.04354
1.84962
1.85027
1.40001
1.77775
1.84213
1.82481
1.40001
1.83993
1.84175
1.40001
1.8498
1.84062
1.84114
1.84308
1.40001
1.40001
1.40001
1.84248
1.00846
1.40001
1.84145
1.40001
1.40001
1.02819
1.40001
1.40001
1.84136
1.84151
1.40001
1.84155
1.83675
1.84144
1.37327
1.84196
1.40001
1.84197
1.84154
1.75097
1.40001
1.40001
1.40001
1.83979
1.84226
1.84166
1.32933
1.40001
1.84739
1.84242
1.84135
1.40001
1.84247
1.84199
1.84132
1.84637
1.40001
1.84111
1.83969
1.7789
1.84057
1.84476
1.40001
1.83758
1.83669
1.8417
1.83895
1.84177
1.04327
1.84211
1.84061
1.40001
1.842
1.8411
1.84151
1.8412
1.40001
1.84222
1.84153
1.40001
1.84203
1.76931
1.40001
1.40001
1.40001
1.83888
1.84686
1.40001
1.40001
1.6374
1.40001
1.84235
1.40001
1.40001
1.84206
1.8435
1.84236
1.8415
1.40001
1.40001
1.40001
1.709
1.40001
1.84203
1.40001
1.40001
1.83805
1.82593
1.40001
1.8421
1.01314
1.84169
1.84412
1.08887
1.40001
1.02261
1.78127
1.84408
1.84197
1.84286
1.03437
1.84035
1.84146
1.0323
1.0395
1.40001
1.84034
1.84162
1.40001
1.40001
1.84201
1.40001
1.84821
1.40001
1.78755
1.40001
1.6095
1.84117
1.84486
1.71005
1.79677
1.84802
1.84362
1.80852
1.40001
1.01531
1.83958
1.8418
1.8484
1.40002
1.40001
1.40001
1.84499
1.40001
1.84151
1.84057
1.14029
1.40001
1.84138
1.39995
1.40001
1.40003
1.40005
1.84178
1.84076
1.39849
1.40001
1.40001
1.84243
1.84429
1.84195
1.8434
1.84412
1.05222
1.78132
1.40001
1.83865
1.84201
1.84209
1.82617
1.40001
1.84137
1.82982
1.84223
1.40001
1.8405
1.84189
1.25807
1.84144
1.83973
1.40001
1.84156
1.24864
1.84163
1.23803
1.84166
1.40001
1.84191
1.84426
1.84199
1.84189
1.84169
1.83565
1.84171
1.83882
1.40001
1.32001
1.84107
1.84186
1.25517
1.84223
1.37493
1.66944
1.84145
1.83954
1.84033
1.40001
1.84462
1.68588
1.84004
1.33018
1.84312
1.84086
1.40001
1.27665
1.40001
1.84531
1.40001
1.70144
1.40001
1.81428
1.26946
1.40001
1.84638
1.8346
1.40001
1.84189
1.8435
1.84026
1.84361
1.84821
1.40001
1.83608
1.40001
1.40001
1.40001
1.29215
1.84199
1.84253
1.84817
1.84215
1.84862
1.84818
1.83757
1.84256
1.27908
1.43101
1.40001
1.40001
1.84195
1.84212
1.84225
1.84185
1.40003
1.63635
1.40001
1.84951
1.79154
1.40001
1.40001
1.13181
1.84146
1.40001
1.40001
1.01026
1.84206
1.40001
1.84293
1.84126
1.84928
1.82455
1.84198
1.40001
1.03652
1.50772
1.84239
1.84193
1.40001
1.84126
1.84115
1.63272
1.40977
1.49706
1.40001
1.84771
1.84157
1.40001
1.40001
1.03798
1.40001
1.40001
1.84207
1.84194
1.84435
1.84221
1.84151
1.83806
1.84212
1.84456
1.84189
1.40001
1.39589
1.84096
1.84237
1.39664
1.84172
1.84093
1.0366
1.03124
1.84226
1.84792
1.40001
1.40001
1.40125
1.84136
1.84424
1.84201
1.40001
1.84179
1.40001
1.23838
1.84964
1.85035
1.40001
1.60414
1.84123
1.40001
1.8397
1.40001
1.84105
1.6886
1.84102
1.40001
1.84038
1.84991
1.03726
1.84221
1.40001
1.8385
1.83212
1.40001
1.03397
1.84376
1.76092
1.39777
1.83305
1.84099
1.40001
1.39359
1.84071
1.39806
1.84191
1.40001
1.40001
1.83903
1.40001
1.83721
1.84135
1.3964
1.76537
1.40001
1.84092
1.40001
1.40001
1.40001
1.40001
1.84184
1.40001
1.40001
1.83874
1.40001
1.84258
1.40001
1.6837
1.83853
1.8421
1.40001
1.40001
1.39908
1.40001
1.84052
1.8418
1.83884
1.84158
1.84233
1.84156
1.84223
1.40001
1.84119
1.84205
1.40001
1.84178
1.84116
1.40001
1.84319
1.31056
1.45766
1.84158
1.84119
1.84176
1.40001
1.84154
1.40001
1.84218
1.84132
1.40001
1.84179
1.40001
1.40001
1.40001
1.40001
1.84136
1.04092
1.39786
1.40001
1.84143
1.84267
1.40001
1.84214
1.40001
1.40483
1.01674
1.84172
1.3996
1.40001
1.84173
1.39841
1.84256
1.40001
1.39975
1.40001
1.84319
1.8397
1.8404
1.84533
1.03149
1.84074
1.8402
1.8407
1.51163
1.40001
1.40001
1.58741
1.84151
1.02748
1.03127
1.40001
1.84089
1.84079
1.83953
1.40001
1.40001
1.83994
1.84113
1.39988
1.40001
1.72135
1.01708
1.40001
1.47971
1.8367
1.83745
1.39823
1.84199
1.84835
1.40001
1.39903
1.40001
1.84464
1.84563
1.58205
1.40001
1.80719
1.40001
1.40239
1.84312
1.03493
1.84051
1.84184
1.39696
1.39992
1.79135
1.40001
1.3997
1.40001
1.8448
1.40001
1.40002
1.01379
1.84148
1.40001
1.40001
1.40001
1.40001
1.83776
1.65124
1.40001
1.40001
1.00919
1.84176
1.65203
1.40001
1.40001
1.40001
1.82167
1.83532
1.8393
1.40001
1.40001
1.84719
1.40001
1.8414
1.842
1.40001
1.40001
1.84343
1.8411
1.81771
1.40001
1.40001
1.84361
1.84328
1.40001
1.40001
1.40001
1.84505
1.40001
1.40001
1.40001
1.84159
1.84685
1.84535
1.40001
1.83688
1.40003
1.07626
1.84066
1.84078
1.40001
1.84007
1.8132
1.83207
1.40001
1.40001
1.84791
1.40001
1.64346
1.84075
1.40001
1.03538
1.40001
1.84294
1.40001
1.40001
1.83916
1.40001
1.40001
1.40001
1.54071
1.84195
1.05613
1.40002
1.8421
1.40001
1.40001
1.84359
1.40001
1.84635
1.40001
1.40001
1.84206
1.84175
1.40001
1.40006
1.40001
1.40001
1.40001
1.40001
1.40001
1.40001
1.84543
1.84105
1.40001
1.84305
1.03764
1.84959
1.40001
1.8418
1.83986
1.8423
1.84104
1.84191
1.40001
1.40001
1.8415
1.40001
1.66513
1.84223
1.84161
1.40001
1.84529
1.83683
1.40001
1.79591
1.40001
1.8421
1.68642
1.84081
1.39742
1.82939
1.80314
1.83955
1.84333
1.43616
1.84232
1.84489
1.40001
1.84241
1.40001
1.84191
1.40001
1.40001
1.40001
1.40001
1.39598
1.84205
1.84154
1.76136
1.40001
1.84668
1.40001
1.40001
1.40001
0.989613
1.40001
1.83541
1.40001
1.80081
1.83073
1.40001
1.40001
1.40001
1.80705
1.83914
1.40001
1.40001
1.84183
1.0318
1.46755
1.40001
1.84314
1.8419
1.80222
1.83453
1.84178
1.40001
1.84011
1.40001
1.40001
1.40001
1.40001
1.84184
1.84077
1.40001
1.82892
1.44517
1.8422
1.81094
1.40001
1.40001
1.81271
1.40001
1.40001
1.02003
1.71293
1.40001
1.40001
1.84822
1.40001
1.84502
1.80661
1.40001
1.80081
1.03143
1.84161
1.84069
1.84235
1.40001
1.03471
1.40001
1.40001
1.40001
1.84247
1.76545
1.40001
1.84543
1.84192
1.40001
1.84221
1.40001
1.40001
1.40001
1.40001
1.84199
1.39938
1.40001
1.84327
1.40001
1.40001
1.84219
1.84123
1.40001
1.845
1.47921
1.40002
1.40001
1.8424
1.40001
1.8423
1.40001
1.415
1.84173
1.40001
1.84304
1.40001
1.40001
1.53035
1.84305
1.40001
1.40001
1.40001
1.40001
1.40001
1.39653
1.06047
1.03703
1.42027
1.40001
1.42346
1.40001
1.42857
1.40001
1.84178
1.40001
1.67123
1.40001
1.84273
1.40001
1.40001
1.40001
1.84274
1.40001
1.74934
1.84042
1.40001
1.63009
1.84232
1.40001
1.40001
1.84217
1.84045
1.40001
1.40001
1.44596
1.02729
1.40001
1.84296
1.40001
1.40001
1.40001
1.40001
1.47394
1.84172
1.40001
1.40001
1.40001
1.02438
1.40001
1.84222
1.84152
1.85265
1.40001
1.40001
1.40001
1.40001
1.62496
1.84492
1.40001
1.40001
1.40001
1.84217
1.84201
1.44613
1.40001
1.40001
1.40001
1.84142
1.84193
1.40001
1.03816
1.84176
1.8416
1.84241
1.84242
1.84491
1.40001
1.40001
1.84583
1.84091
1.84154
1.02411
1.44095
1.84139
1.40001
1.40001
1.40001
1.40001
1.40001
1.84194
1.03136
1.40001
1.40001
1.8415
1.60081
1.40001
1.84633
1.40001
1.40001
1.40001
1.03162
1.40001
1.40001
1.51701
1.84159
1.84111
1.40001
1.84734
1.84412
1.40001
1.4716
1.40001
1.84941
1.40001
1.84181
1.03376
1.40001
1.40001
1.40001
1.40001
1.84251
1.40007
1.40001
1.40001
1.40001
1.82758
1.40001
1.40001
1.40001
1.40001
1.84141
1.03519
1.74436
1.84223
1.40001
1.84241
1.40001
1.40001
1.40001
1.39716
1.40001
1.83818
1.40001
1.19659
1.40001
1.40001
1.40004
1.84177
1.00301
1.40001
1.83895
1.40001
1.84376
1.84208
1.035
1.40001
1.40001
1.82012
1.40001
1.40001
1.03806
1.40001
1.84897
1.40001
1.82213
1.39932
1.84223
1.40001
1.40001
1.40001
1.40001
1.83586
1.40001
1.40001
1.84162
1.40001
1.40001
1.40001
1.40001
1.40001
1.40001
1.40001
1.40001
1.69332
1.40001
1.53749
1.84175
1.40001
1.40001
1.40001
1.06536
1.40001
1.40001
1.40001
1.40001
1.8406
1.84184
1.44517
1.40001
1.40001
1.84221
1.40001
1.40001
1.84369
1.40001
1.40002
1.40001
1.40001
1.40001
1.40002
1.84149
1.16552
1.84174
1.84326
1.39679
1.40001
1.40001
1.40001
1.6634
1.40001
1.40001
1.84324
1.84218
1.40001
1.40001
1.40001
1.40001
1.04021
1.40001
1.40001
1.40001
1.67863
1.40001
1.84272
1.84558
1.40001
1.84312
1.40001
1.40001
1.40001
1.63668
1.40001
1.83991
1.40001
1.84192
1.40001
1.40001
1.39637
1.84205
1.40001
1.40001
1.40001
1.40001
1.40001
1.84356
1.40003
1.40001
1.01349
1.84321
1.02016
1.40001
1.84012
1.40001
1.3959
1.40001
1.84388
1.84028
1.40001
1.84578
1.27691
1.84136
1.83442
1.40004
1.40001
1.40001
1.03625
1.40001
1.40001
1.40001
1.84205
1.65863
1.84072
1.40001
1.40001
1.40001
1.40001
1.39675
1.84432
1.40001
1.04044
1.40001
1.40001
1.40001
1.40001
1.40001
1.40001
1.40001
1.84522
1.84183
1.846
1.40001
1.40001
1.39694
1.40001
1.38029
1.40001
1.40001
1.40001
1.03039
1.38168
1.40001
1.04043
1.06641
1.40001
1.84278
1.84216
1.40001
1.84438
1.84155
1.03885
1.70139
1.40001
1.40001
1.40001
1.04225
1.84072
1.40001
1.04171
1.40001
1.84835
1.46877
1.40001
1.40001
1.40001
1.40001
1.84174
1.84152
1.40001
1.40001
1.84118
1.40001
1.40001
1.83871
1.84143
1.40001
1.79827
1.84123
1.83857
1.35978
1.83994
1.40805
1.03563
1.73912
1.84244
1.40001
1.40001
1.40001
1.02965
1.40001
1.06454
1.83898
1.35904
1.84168
1.34775
1.40001
1.84197
1.60325
1.40001
1.40001
1.83947
1.40001
1.58507
1.83985
1.40001
1.40001
1.83544
1.84499
1.05346
1.66879
1.3999
1.40001
1.66746
1.40001
1.8506
1.33441
1.85108
1.84796
1.40001
1.40001
1.40001
1.40001
1.8408
1.40001
1.40001
1.84167
1.39964
1.84146
1.76421
1.83886
1.02882
1.40001
1.40001
1.40001
1.40001
1.84184
1.40005
1.84282
1.40001
1.84275
1.84399
1.45594
1.83528
1.53254
1.84103
1.40001
1.69918
1.04833
1.84937
1.84192
1.74602
1.47272
1.84206
1.84146
1.84289
1.84032
1.40001
1.30262
1.46325
1.40001
1.8418
1.61477
1.84096
1.40004
1.40001
1.40001
1.08146
1.84438
1.84054
1.75544
1.40001
1.57078
1.40001
1.84787
1.84693
1.40001
1.84362
1.84022
1.40001
1.40001
1.40001
1.84452
1.40001
1.5725
1.84279
1.70914
1.40001
1.83996
1.40001
1.40001
1.40001
1.40001
1.40001
1.40001
1.40001
1.40001
1.40001
1.40001
1.0522
1.40001
1.83184
1.041
1.66259
1.3986
1.84696
1.40001
1.6294
1.40002
1.68401
1.78209
1.40001
1.40233
1.8473
1.30838
1.40001
1.84101
1.82533
1.33162
1.40001
1.84281
1.8421
1.84443
1.40001
1.84166
1.83876
1.84522
1.40001
1.60243
1.40001
1.40006
1.84153
1.40001
1.84359
1.46401
1.844
1.40001
1.40001
1.84369
1.84104
1.08439
1.40001
1.84211
1.73444
1.84111
1.40001
1.40001
1.83926
1.84144
1.39826
1.40001
1.78615
1.39685
1.84188
1.40008
1.40001
1.40001
1.40001
1.40001
1.60383
1.40001
1.73479
1.84097
1.7318
1.83982
1.40001
1.40303
1.40001
1.40001
1.83864
1.40001
1.84486
1.40001
1.40001
1.40001
1.40001
1.4
1.40001
1.45436
1.62624
1.40001
1.40001
1.03928
1.40001
1.83874
1.05118
1.84015
1.40001
1.63164
1.39974
1.84069
1.68295
1.06125
1.64294
1.40004
1.84071
1.84356
1.40001
1.6702
1.83981
1.84281
1.39842
1.84649
1.82943
1.03888
1.40001
1.40001
1.3977
1.40001
1.83672
1.40001
1.05966
1.83893
1.40001
1.40001
1.78875
1.40001
1.8417
1.40001
1.84114
1.40001
1.05667
1.40001
1.40001
1.84224
1.84837
1.84676
1.40001
1.84376
1.84239
1.84808
1.40001
1.40001
1.82607
1.4
1.1302
1.40001
1.40001
1.40001
1.8409
1.40001
1.84232
1.6879
1.84084
1.40001
1.8417
1.39939
1.40001
1.40001
1.40001
1.40001
1.40001
1.40001
1.10304
1.40001
1.40001
1.84161
1.40001
1.84245
1.84586
1.40001
1.05059
1.02562
1.40001
1.84302
1.47235
1.0314
1.01297
1.40001
1.84274
1.40001
1.84103
1.03363
1.40125
1.40001
1.40001
1.39951
1.40001
1.40001
1.40001
1.39991
1.58521
1.84241
1.40001
1.40001
1.84326
1.66479
1.40001
1.80428
1.84439
1.84168
1.58556
1.83955
1.40001
1.84216
1.40001
1.84194
1.40001
1.83763
1.84161
1.39718
1.84121
1.84029
1.40001
1.40001
1.40001
1.40001
1.40001
1.31675
1.84072
1.40004
1.40003
1.02935
1.39999
1.03237
0.991901
1.40001
1.83932
1.8403
1.84107
1.40001
1.84236
1.40001
1.03255
1.40001
1.40001
1.84288
1.20551
1.83923
1.40001
1.84495
1.40001
1.36261
1.84225
1.40001
1.40001
1.40001
1.84252
1.40001
1.84465
1.05322
1.40001
1.40001
1.65745
1.40001
1.40001
1.6411
1.40001
1.40001
1.84184
1.40001
1.40001
1.40001
1.40001
1.40001
1.84879
1.84157
1.40001
1.83961
1.84347
1.03747
1.60378
1.84374
1.40001
1.40001
1.79812
1.39891
1.40001
1.40001
1.84179
1.83845
1.69851
1.40001
1.83736
1.0502
1.81028
1.39995
1.40001
1.83975
1.40004
1.84136
1.7803
1.7384
1.40001
1.40001
1.84193
1.11877
1.04072
1.40001
1.84238
1.40001
1.84203
1.40001
1.66654
1.40001
1.40001
1.84077
1.68176
1.04289
1.40001
1.39848
1.40001
1.40001
1.42536
1.58514
1.84212
1.40001
1.83761
1.40001
1.40001
1.40001
1.40001
1.40001
1.40001
1.46447
1.02854
1.40001
1.40001
1.43691
1.40001
1.40001
1.40001
1.40001
1.40001
1.8405
1.40001
1.40001
1.84236
1.8408
1.72105
1.40001
1.40001
1.40001
1.2109
1.84656
1.71031
1.40001
1.40001
1.40001
1.40001
1.84297
1.40001
1.40001
1.40001
1.84469
1.40001
1.40001
1.71847
1.85293
1.43977
1.12476
1.84626
1.71141
1.84262
1.40001
1.61733
1.40001
1.40001
1.40001
1.01027
1.4027
1.02928
1.40001
1.03298
1.01771
1.40001
1.04078
1.40001
1.40001
1.40001
1.60054
1.40001
1.83813
1.84062
1.40079
1.61521
1.772
1.03696
1.13279
1.28854
1.40001
1.84213
1.83891
1.84206
1.84222
1.77991
1.25952
1.40001
1.78268
1.40001
1.8276
1.40001
1.40001
1.3966
1.40891
1.40001
1.40001
1.40001
1.83941
1.40001
1.03787
1.40001
1.84248
1.014
1.40001
1.40001
1.84224
1.40001
1.84197
1.40058
1.40001
1.40001
1.84191
1.78854
1.40001
1.85523
1.40001
1.40001
1.41503
1.40001
1.59993
1.40001
1.40001
1.03853
1.40001
1.40001
1.84476
1.4
1.83979
1.40001
1.40004
1.02986
1.40001
1.40001
1.01082
1.40082
1.40001
1.83987
1.03418
1.84375
1.01794
1.84225
1.40001
1.40001
1.40001
1.40001
1.40001
1.40001
1.40001
1.40001
1.40001
1.40001
1.40001
1.82369
1.40001
1.84272
1.83747
1.02397
1.40001
1.40001
1.40001
1.40001
1.40001
1.40001
1.82982
1.40001
1.40001
1.02929
1.40001
1.40001
1.8396
1.40001
1.40001
1.57378
1.76966
1.00828
1.05423
1.0813
1.12309
1.40001
1.39659
1.01708
1.40026
1.81244
1.3967
1.40001
1.40001
1.84209
1.40001
1.40001
1.40001
1.14351
1.40002
1.55891
1.40001
1.40001
1.57755
1.84191
1.40001
1.03614
1.40001
1.40001
1.40001
1.39655
1.40001
1.8406
1.84151
1.40001
1.01708
1.40001
1.63962
1.01384
1.40001
1.29254
1.40001
1.39659
1.01098
1.40001
1.40001
1.40001
1.39577
1.03423
1.40001
1.0311
1.39844
1.62976
1.8105
1.04749
1.00641
1.40001
1.39011
1.40001
1.3986
1.40001
1.84273
1.84138
1.40001
1.41564
1.8415
1.84139
1.40001
1.40001
1.84158
1.40001
1.40001
1.40005
1.40001
1.84095
1.40001
1.40001
1.41801
1.40001
1.39858
1.06837
1.40001
1.40001
1.40001
1.40001
1.40001
1.83983
1.43281
1.40006
1.40001
1.40001
1.40001
1.40001
1.40001
1.40004
1.40001
1.03599
1.50325
1.39864
1.8336
1.84231
1.40001
1.41428
1.84102
1.78229
1.40001
1.40001
1.02164
1.84106
1.40001
1.83892
1.40001
1.84275
1.71397
1.03396
1.40001
1.01131
1.80633
1.39968
1.40001
1.02554
1.00608
1.40001
1.40001
1.77153
1.40001
1.4
1.02777
1.40001
1.40001
1.40001
1.53665
1.40001
1.02426
1.84305
1.40001
1.40001
1.40001
1.40001
1.84166
1.40001
1.40001
1.83863
1.79728
1.40001
1.40001
1.40001
1.84037
1.04175
1.40001
1.83995
1.842
1.40001
1.75266
1.4
1.40004
1.40001
1.40001
1.80865
1.41355
1.40001
1.02603
1.63979
1.40001
1.40001
1.39773
1.40001
1.40001
1.84529
1.40001
1.40001
1.40004
1.40001
1.84211
1.40001
1.40001
1.40001
1.40001
1.40001
1.40001
1.40002
1.59572
1.40001
1.84022
1.40001
1.40001
1.84355
1.40001
1.40001
1.40001
1.84159
1.8426
1.44543
1.40001
1.39759
1.40001
1.40001
1.40001
1.40001
1.83743
1.40001
1.40001
1.84274
1.02645
1.40001
1.40001
1.40001
1.40001
1.40001
1.40001
1.75708
1.40001
1.40001
1.84136
1.84274
1.40001
1.40001
1.40001
1.84018
1.84027
1.40001
1.39972
1.84153
1.40001
1.40001
1.40001
1.40002
1.03218
1.4322
1.39622
1.39603
1.40001
1.40001
1.04154
1.84264
1.40001
1.07346
1.40001
1.8437
1.8236
1.00604
1.39941
1.84227
1.84164
1.84025
1.40001
1.40001
1.3248
1.79247
1.75786
1.04174
1.40001
1.40001
1.40001
1.83867
1.84213
1.03827
1.39729
1.40001
1.84207
1.03492
1.40001
1.83649
1.04035
1.35881
1.40668
1.40001
1.84658
1.40001
1.40001
1.40001
1.40001
1.40001
1.40001
1.40012
1.8106
1.40001
1.40001
1.83913
1.40001
1.40001
1.40001
1.84082
1.40001
1.03309
1.40001
1.40001
1.40001
1.55176
1.40001
1.40001
1.40001
1.40001
1.40001
1.17563
1.40001
1.02665
1.40001
1.84073
1.40007
1.25829
1.26333
1.40002
1.40605
1.62564
1.40001
1.40001
1.04255
1.83995
1.84084
1.84092
1.40001
1.02805
1.02587
1.40001
1.84115
1.40001
1.40001
1.40001
1.40001
1.40001
1.40004
1.40001
1.04046
1.68063
1.40001
1.40001
1.03794
1.38591
1.40001
1.40001
1.40001
1.40001
1.0107
1.40001
1.07816
1.40001
1.40001
1.84259
1.40001
1.40001
1.03787
1.40001
1.84186
1.40001
1.03369
1.40001
1.04126
1.40001
1.40829
1.84008
1.85161
1.40001
1.40001
1.83864
1.40001
1.40001
1.49891
1.39662
1.40001
1.3983
1.40001
1.84181
1.40001
1.04414
1.40002
1.8376
1.39892
1.40001
1.40001
1.1985
1.40001
1.39908
1.0213
1.84261
1.56016
1.40001
1.40001
1.31161
1.40001
1.40001
1.40001
1.17707
1.40001
1.40001
1.40001
1.84174
1.40001
1.03573
1.4
1.40001
1.40001
1.40001
1.02994
1.84214
1.80475
1.03207
1.40001
1.84717
1.40001
1.40001
1.84205
1.84122
1.77294
1.0275
1.39772
1.39926
1.40001
1.84093
1.40001
1.40001
1.40001
1.40001
1.84151
1.40004
1.40001
1.40001
1.83661
1.40001
1.40001
1.84137
1.04241
1.40001
1.40001
1.40001
1.04071
1.40001
1.4
1.4
1.39864
1.40001
1.40001
1.40001
1.40001
1.76103
1.40001
1.83987
1.84018
1.85062
1.84098
1.8417
1.84137
1.40001
1.84395
1.40001
1.84148
1.84158
1.40001
1.39891
1.02343
1.77829
1.39991
1.40001
1.40001
1.40001
1.40001
1.39162
1.40001
1.47466
1.40001
1.40001
1.40001
1.22758
1.84151
1.84247
1.84753
1.78433
1.39988
1.40001
1.42384
1.84208
1.39796
1.45133
1.39742
1.03656
1.40001
1.40003
1.40001
1.40001
1.40001
1.40001
1.40001
1.84279
1.03067
1.84321
1.84142
1.39524
1.04495
1.40001
1.40001
1.40001
1.84117
1.04523
1.79102
1.03099
1.84148
1.8462
1.04248
1.84207
1.42319
1.40001
1.84239
1.20569
1.40001
1.39878
1.04424
1.40001
1.03374
1.40001
1.84156
1.84207
1.15309
1.40001
1.84055
1.03286
1.40001
1.03837
1.40001
1.84185
1.40001
1.40001
1.84604
1.40001
1.23717
1.40001
1.39964
1.0276
1.84505
1.39949
1.40001
1.03176
1.40001
1.40001
1.40001
1.40001
1.6313
1.40001
1.84099
1.40001
1.40001
1.84951
1.40001
1.40001
1.84094
1.40001
1.02334
1.40001
1.01102
1.40002
1.40001
1.40001
1.40001
1.40001
1.82288
1.66299
1.84182
1.40001
1.84169
1.81142
1.01589
1.03589
1.40001
1.40001
1.83898
1.40001
1.03064
1.40001
1.37539
1.40001
1.40001
1.84266
1.40001
1.84504
1.04141
1.85249
1.40001
1.03669
1.40001
1.40001
1.84622
1.84044
1.40001
1.40005
1.40001
1.83039
1.40001
1.40001
0.99011
1.3994
1.03212
1.40001
1.40001
1.40001
1.84341
1.84054
1.83923
1.40001
1.40001
1.05346
1.40001
1.84125
1.40001
1.40001
1.40001
1.82112
1.84173
1.8411
1.06683
1.84355
1.84192
1.0737
1.8413
1.40005
1.04963
1.42192
1.40001
1.40001
1.84139
1.06603
1.6821
1.06125
1.84209
1.39745
1.0423
1.84335
1.40001
1.40001
1.40001
1.40001
1.84155
1.83956
1.04004
1.40001
1.40003
1.03922
1.40004
1.40001
1.0376
1.0427
1.70634
1.84323
1.39848
1.8416
1.40001
1.84711
1.20151
1.03401
1.84147
1.85337
1.40001
1.84395
1.40001
1.40001
1.84179
1.40001
1.72961
1.83959
1.40001
1.40001
1.40001
1.40001
1.84121
1.8368
1.84549
1.40001
1.40001
1.84396
1.82864
1.84214
1.40001
1.8412
1.40001
1.40001
1.40001
1.40001
1.40001
1.03062
1.24238
1.03753
1.40001
1.40001
1.84104
1.40001
1.40001
1.83859
1.03421
1.40001
1.84115
1.83716
1.81955
1.00585
1.40001
1.07199
1.40001
1.40003
1.83751
1.60985
1.83873
1.805
1.40001
1.01066
1.40001
1.8423
1.71787
1.03194
1.40001
1.40001
1.40001
1.17658
1.40001
1.40001
1.84498
1.40001
1.03142
1.84135
1.40001
1.40001
1.40001
1.40001
1.40001
1.75583
1.49922
1.40001
1.84076
1.40001
1.83927
1.40001
1.3973
1.40001
1.8419
1.84406
1.84177
1.84264
1.3996
1.83928
1.40001
1.8418
1.84317
1.77466
1.40001
1.40001
1.03212
1.8418
1.40001
1.40001
1.84487
1.84392
1.84115
1.40001
1.84212
1.40001
1.40001
1.40004
1.8446
1.84526
1.52556
1.49925
1.84198
1.84108
1.08682
1.40001
1.40001
1.40001
1.40001
1.40002
1.55523
1.40001
1.40001
1.77543
1.02269
1.39998
1.40001
1.84185
1.39987
1.39982
1.46779
1.79335
1.84105
1.31104
1.40001
1.037
1.40001
1.39562
1.84145
1.84562
1.83719
1.39904
1.40001
1.40001
1.05257
1.40001
1.40001
1.84142
1.44874
1.40001
1.40001
1.40001
1.40001
1.40001
1.40001
1.40001
1.39994
1.84168
1.40002
1.40001
1.40001
1.40001
1.40001
1.69747
1.40001
1.60911
1.40001
1.40001
1.84187
1.84252
1.03231
1.39881
1.40001
1.4
1.40001
1.03839
1.84034
1.84206
1.40001
1.40001
1.40001
1.40001
1.40001
1.40001
1.40001
1.40001
1.84211
1.84129
1.03581
1.44995
1.04091
1.40001
1.02536
1.40001
1.84184
1.52064
1.40001
1.40001
1.12654
1.40001
1.82102
1.18827
1.39647
1.03573
1.40001
1.40001
1.83848
1.40005
1.39693
1.02524
1.84087
1.8458
1.40001
1.40001
1.40001
1.40001
1.81275
1.40001
1.40001
1.84188
1.39899
1.84091
1.40005
1.40001
1.40001
1.04815
1.40001
1.40001
1.84288
1.03856
1.15561
1.02453
1.84164
1.39936
1.40001
1.84139
1.04437
1.03131
1.42842
1.40001
1.40001
1.83951
1.40004
1.59727
1.40001
1.40001
1.83693
1.04187
1.40001
1.40001
1.40014
1.84012
1.40012
1.82302
1.40001
1.40004
1.40001
1.40001
1.14225
1.40001
1.18801
1.40003
1.40001
1.84443
1.04743
1.40001
1.18477
1.19901
1.40001
1.40001
1.84212
1.40001
1.40001
1.40001
1.84381
1.84198
1.40006
1.81986
1.84028
1.1793
1.84172
1.81822
1.40001
1.40001
1.83357
1.4
1.40001
1.40001
1.40001
1.40001
1.84656
1.84081
1.40001
1.40001
1.40001
1.84271
1.40022
1.40001