/*--------------------------------*- C++ -*----------------------------------*\
  =========                 |
  \\      /  F ield         | OpenFOAM: The Open Source CFD Toolbox
   \\    /   O peration     | Website:  https://openfoam.org
    \\  /    A nd           | Version:  12
     \\/     M anipulation  |
\*---------------------------------------------------------------------------*/
FoamFile
{
    format      ascii;
    class       volScalarField;
    location    "14.2";
    object      p;
}
// * * * * * * * * * * * * * * * * * * * * * * * * * * * * * * * * * * * * * //

dimensions      [1 -1 -2 0 0 0 0];

internalField   nonuniform List<scalar> 
9801
(
0.646865
0.655248
0.665652
0.672396
0.676966
0.680904
0.684378
0.68742
0.687448
0.686874
0.689032
0.692323
0.697838
0.70893
0.719765
0.726295
0.730959
0.734984
0.73855
0.739911
0.736991
0.737418
0.740371
0.744554
0.752783
0.766929
0.777628
0.78395
0.788736
0.792822
0.795847
0.792869
0.790647
0.793065
0.797005
0.802955
0.816538
0.832091
0.841343
0.847514
0.852288
0.856356
0.854472
0.849041
0.849941
0.85418
0.859821
0.871384
0.890723
0.904318
0.912159
0.918136
0.923303
0.922805
0.914049
0.913147
0.918158
0.92448
0.936711
0.959826
0.978611
0.988663
0.996127
1.00256
1.00178
0.988479
0.985157
0.990932
0.999871
1.01661
1.04766
1.0714
1.0843
1.09399
1.10272
1.10086
1.08076
1.07438
1.08263
1.09655
1.12849
1.17286
1.20228
1.22066
1.23539
1.24796
1.23361
1.20245
1.20015
1.22036
1.25719
1.3344
1.4097
1.46712
1.52496
1.57858
1.56418
2.52176
11.4731
0.652439
0.661505
0.673124
0.680042
0.684528
0.688168
0.691294
0.693792
0.693642
0.693292
0.695267
0.698275
0.703377
0.715347
0.72687
0.733474
0.737986
0.741678
0.744865
0.745738
0.743137
0.74369
0.746538
0.750321
0.758382
0.773387
0.784399
0.790663
0.795219
0.799065
0.801709
0.798832
0.796707
0.798871
0.802552
0.807938
0.821667
0.837964
0.847464
0.853468
0.858105
0.861997
0.860292
0.854952
0.855593
0.859424
0.864422
0.875338
0.895463
0.909754
0.917854
0.92385
0.928985
0.928789
0.920302
0.918727
0.922917
0.928561
0.939422
0.963015
0.982398
0.993066
1.00087
1.00746
1.00797
0.995447
0.99098
0.995735
1.00372
1.01812
1.04787
1.0733
1.08782
1.09835
1.1074
1.10729
1.08802
1.08024
1.0873
1.09913
1.12369
1.16719
1.19978
1.22024
1.23696
1.2523
1.24585
1.21545
1.20756
1.22543
1.25503
1.31591
1.38153
1.43362
1.48501
1.52587
1.48944
2.4093
11.6585
0.654464
0.664046
0.676095
0.682909
0.68718
0.690674
0.69371
0.696072
0.695777
0.695644
0.697721
0.700745
0.705643
0.717793
0.729522
0.735972
0.740327
0.7439
0.747049
0.74784
0.745646
0.746516
0.749467
0.75318
0.760751
0.775771
0.786857
0.79303
0.79752
0.801387
0.804197
0.8015
0.799323
0.801456
0.805176
0.810274
0.82331
0.839795
0.849434
0.855418
0.860121
0.86433
0.863439
0.85783
0.858079
0.86185
0.866746
0.8767
0.896759
0.911714
0.920021
0.926106
0.93148
0.93262
0.924284
0.92144
0.924979
0.930395
0.9393
0.961448
0.982965
0.994761
1.00302
1.00993
1.01259
1.00174
0.995147
0.998455
1.0059
1.01615
1.0423
1.07215
1.08889
1.09964
1.10881
1.11226
1.09628
1.08486
1.08913
1.1003
1.11701
1.15868
1.20072
1.22451
1.24111
1.25667
1.25738
1.22834
1.21355
1.22641
1.25248
1.29752
1.36514
1.42178
1.47156
1.51484
1.48413
2.39551
11.6754
0.657746
0.667432
0.679787
0.686804
0.691082
0.694544
0.697581
0.69973
0.69906
0.699143
0.701312
0.704356
0.708951
0.720755
0.732846
0.739473
0.743884
0.747529
0.750791
0.751487
0.749456
0.750418
0.753324
0.756945
0.763623
0.778354
0.790106
0.796545
0.801155
0.805172
0.808148
0.80547
0.802994
0.804976
0.80868
0.813387
0.824866
0.842102
0.852731
0.858989
0.863895
0.868382
0.868237
0.861943
0.861459
0.865157
0.870051
0.878342
0.897853
0.914766
0.923761
0.929973
0.935459
0.937827
0.929504
0.924516
0.927522
0.933116
0.940667
0.960353
0.98524
0.998807
1.00723
1.01411
1.01844
1.0096
0.998772
1.00017
1.00753
1.01647
1.03715
1.07069
1.09121
1.10304
1.11283
1.12038
1.10987
1.09096
1.09003
1.10081
1.11454
1.14404
1.19068
1.22152
1.24017
1.25651
1.26654
1.24798
1.2245
1.22487
1.24715
1.27809
1.3303
1.38647
1.43372
1.47739
1.47733
2.43565
11.7195
0.661017
0.670389
0.683022
0.690342
0.694695
0.698202
0.701274
0.703302
0.702469
0.702483
0.704575
0.707575
0.711718
0.722699
0.735542
0.742653
0.747213
0.751001
0.754397
0.755256
0.753089
0.75374
0.756471
0.759991
0.765584
0.779751
0.792919
0.799853
0.804552
0.808621
0.811677
0.809371
0.80644
0.807997
0.811486
0.815799
0.825121
0.843337
0.855811
0.862433
0.867373
0.871813
0.872298
0.86599
0.864634
0.867923
0.872601
0.879124
0.896612
0.916115
0.926483
0.93299
0.938526
0.942086
0.935403
0.928194
0.929878
0.935108
0.941868
0.957029
0.983486
1.00023
1.00961
1.01682
1.02286
1.01878
1.00437
1.00131
1.00766
1.01638
1.03137
1.06468
1.09169
1.10571
1.11597
1.12548
1.12365
1.102
1.09103
1.09789
1.11119
1.13056
1.17331
1.21605
1.24135
1.2593
1.27508
1.27162
1.24565
1.23159
1.24029
1.2654
1.30336
1.35748
1.4019
1.43905
1.45503
2.47762
11.7598
0.6644
0.673259
0.686264
0.694089
0.698489
0.701943
0.704958
0.707057
0.706271
0.706001
0.707935
0.710886
0.714617
0.724388
0.738385
0.746382
0.751064
0.754821
0.758186
0.759401
0.75707
0.757225
0.759807
0.763299
0.768014
0.780889
0.795711
0.803503
0.808334
0.81234
0.815516
0.813923
0.810245
0.81123
0.81464
0.818914
0.826404
0.844231
0.858648
0.865983
0.871097
0.875542
0.877294
0.871257
0.867764
0.870264
0.874821
0.880671
0.895483
0.916964
0.929363
0.936528
0.942346
0.947214
0.944019
0.933436
0.931437
0.935883
0.94253
0.954421
0.980746
1.00204
1.01296
1.0205
1.02732
1.02909
1.01477
1.00441
1.00752
1.01587
1.02721
1.05508
1.08975
1.10906
1.12013
1.12979
1.13432
1.11693
1.09864
1.09759
1.10832
1.12261
1.15129
1.19831
1.23381
1.25669
1.27578
1.28754
1.27292
1.24849
1.24175
1.25408
1.27986
1.32198
1.36835
1.40366
1.42288
2.52516
11.8017
0.667592
0.675607
0.688748
0.697333
0.70201
0.705564
0.708656
0.711059
0.710278
0.709293
0.710928
0.713829
0.717384
0.725774
0.740327
0.749497
0.754597
0.75849
0.761976
0.763951
0.761218
0.760094
0.762285
0.765789
0.770327
0.781826
0.797413
0.806274
0.811548
0.815766
0.819526
0.819669
0.814345
0.813476
0.816517
0.820933
0.827917
0.844623
0.86043
0.868733
0.874297
0.879109
0.882897
0.879024
0.871612
0.871559
0.875644
0.88132
0.893694
0.916236
0.931433
0.939456
0.945519
0.951102
0.952421
0.941281
0.934223
0.93668
0.942898
0.951959
0.974835
1.00168
1.01584
1.02376
1.03065
1.03576
1.02607
1.01112
1.00953
1.01618
1.02509
1.04245
1.07928
1.10857
1.12353
1.13391
1.1427
1.13691
1.1135
1.10223
1.10587
1.11782
1.13512
1.1728
1.21822
1.24984
1.27161
1.29045
1.29495
1.27503
1.25476
1.25224
1.26537
1.29206
1.33538
1.37399
1.39526
2.55996
11.8457
0.670759
0.678208
0.691277
0.700418
0.705336
0.709044
0.712261
0.714956
0.714547
0.712556
0.713678
0.716473
0.720105
0.727925
0.742491
0.752543
0.757995
0.762091
0.765744
0.76853
0.766494
0.763362
0.764596
0.767809
0.772213
0.782885
0.799088
0.809009
0.814665
0.819166
0.823271
0.825538
0.820526
0.816684
0.818549
0.822537
0.828611
0.844125
0.861953
0.871548
0.877402
0.882402
0.887031
0.886758
0.877441
0.87413
0.877173
0.882261
0.891409
0.913465
0.93315
0.942791
0.949028
0.954682
0.958652
0.950522
0.939521
0.939087
0.944305
0.951181
0.966366
0.996606
1.01766
1.02769
1.03482
1.04143
1.03887
1.02175
1.01357
1.01605
1.02372
1.03412
1.06104
1.10061
1.12453
1.13779
1.14833
1.15458
1.13687
1.11294
1.10798
1.11537
1.12831
1.14959
1.1916
1.23205
1.25989
1.2811
1.29906
1.29995
1.28015
1.26057
1.25858
1.27059
1.29814
1.3401
1.36808
2.59862
11.8896
0.673625
0.680296
0.693266
0.703273
0.708594
0.71246
0.715732
0.718649
0.719053
0.716261
0.716484
0.719013
0.722436
0.729276
0.743945
0.755281
0.761328
0.765657
0.769368
0.772618
0.771881
0.767376
0.767242
0.770002
0.773863
0.78249
0.79962
0.81161
0.81796
0.822658
0.826824
0.830141
0.826804
0.821016
0.821311
0.824781
0.829487
0.841329
0.861769
0.874446
0.881031
0.886031
0.890645
0.892481
0.884325
0.878315
0.879779
0.884332
0.890423
0.907404
0.932147
0.945747
0.952845
0.958496
0.963443
0.960277
0.947147
0.942797
0.946111
0.952092
0.960555
0.985111
1.01547
1.03093
1.03922
1.04624
1.04986
1.03667
1.01975
1.0166
1.02203
1.03074
1.04517
1.08204
1.11924
1.13893
1.15068
1.16053
1.1613
1.13773
1.11821
1.11666
1.12481
1.13808
1.16407
1.20713
1.24367
1.26941
1.28982
1.30458
1.30196
1.28304
1.26301
1.25877
1.26865
1.29937
1.33562
2.63398
11.9324
0.676643
0.682325
0.694572
0.705997
0.711851
0.715842
0.719205
0.722267
0.723561
0.720461
0.719782
0.721979
0.7252
0.730528
0.744448
0.757804
0.764671
0.769138
0.772921
0.776349
0.777091
0.772002
0.77047
0.772711
0.776311
0.782436
0.798673
0.8139
0.821449
0.826296
0.830499
0.834327
0.833377
0.826131
0.824721
0.827383
0.831593
0.839046
0.858793
0.876243
0.884556
0.889845
0.894495
0.898039
0.892644
0.883676
0.882925
0.886495
0.891651
0.901409
0.926418
0.94689
0.956352
0.962433
0.967935
0.970034
0.958104
0.947828
0.947828
0.952716
0.95933
0.973135
1.00594
1.0314
1.04323
1.05075
1.0573
1.05478
1.03371
1.02159
1.02281
1.03004
1.03897
1.05814
1.10005
1.13292
1.14995
1.16169
1.17204
1.16914
1.14153
1.12385
1.12449
1.13415
1.14877
1.17845
1.21954
1.2519
1.27569
1.2955
1.30659
1.30253
1.28272
1.2602
1.2525
1.26136
1.29443
2.65751
11.974
0.679597
0.684441
0.695093
0.708326
0.715125
0.719265
0.722679
0.725801
0.72781
0.725131
0.723388
0.725155
0.7282
0.73235
0.74413
0.759637
0.767859
0.772552
0.776336
0.779788
0.781701
0.777315
0.77412
0.775718
0.779015
0.783493
0.7963
0.81473
0.824594
0.829902
0.834166
0.838137
0.839469
0.832532
0.828515
0.830214
0.833856
0.838797
0.853175
0.875363
0.887339
0.893467
0.898298
0.902714
0.901835
0.891203
0.886641
0.888564
0.893087
0.899138
0.916941
0.944433
0.959154
0.966408
0.972114
0.976815
0.971366
0.955631
0.950536
0.953626
0.959696
0.967272
0.989302
1.02434
1.04402
1.05342
1.06077
1.06693
1.05814
1.03575
1.02735
1.02916
1.03603
1.04588
1.07193
1.11632
1.14648
1.16247
1.17377
1.18166
1.17306
1.1466
1.13194
1.13357
1.14326
1.15911
1.19191
1.23091
1.25977
1.28086
1.29865
1.30624
1.30075
1.27902
1.25273
1.23983
1.24733
2.6511
12.0182
0.682495
0.686747
0.69496
0.709681
0.71818
0.722721
0.726233
0.729387
0.731927
0.730157
0.72724
0.728425
0.731282
0.73479
0.74322
0.759884
0.770487
0.77578
0.779694
0.783214
0.786025
0.78328
0.778374
0.778913
0.781791
0.785514
0.79363
0.812948
0.826975
0.833486
0.837933
0.84197
0.845
0.840382
0.833257
0.833031
0.835869
0.840053
0.848417
0.870739
0.888937
0.8971
0.902277
0.906876
0.909735
0.901336
0.891466
0.890968
0.894499
0.899699
0.909076
0.935594
0.959447
0.970063
0.976298
0.981635
0.983773
0.9702
0.957176
0.955868
0.959667
0.965831
0.975866
1.00629
1.03964
1.056
1.0654
1.07329
1.07757
1.0596
1.03669
1.03123
1.03556
1.04381
1.05465
1.08473
1.12859
1.15557
1.17026
1.1819
1.1905
1.18111
1.15367
1.1393
1.1414
1.15149
1.16904
1.20415
1.24043
1.26628
1.2856
1.30099
1.3053
1.29694
1.27192
1.24026
1.21402
2.61236
12.0599
0.68537
0.689306
0.695002
0.709806
0.720858
0.726158
0.729801
0.733006
0.73588
0.735508
0.731683
0.731836
0.734336
0.737549
0.742808
0.758013
0.772311
0.778988
0.783163
0.786791
0.790117
0.789705
0.783624
0.782195
0.784453
0.787913
0.792877
0.80857
0.827694
0.83678
0.84177
0.845862
0.849592
0.848589
0.839444
0.835952
0.837957
0.841815
0.847039
0.863148
0.887412
0.89987
0.906032
0.910749
0.914986
0.912738
0.899708
0.894463
0.89654
0.901034
0.906701
0.922503
0.953167
0.97142
0.97954
0.985508
0.990952
0.988559
0.970169
0.959613
0.95978
0.964544
0.97145
0.986434
1.02419
1.05441
1.06764
1.07527
1.08182
1.08389
1.06338
1.0429
1.03887
1.04224
1.04968
1.0621
1.09696
1.14037
1.16639
1.18121
1.19271
1.19806
1.18602
1.1599
1.14608
1.14801
1.15799
1.17752
1.21521
1.24993
1.27292
1.2894
1.30053
1.30196
1.29088
1.25572
1.20645
2.54778
12.1024
0.688389
0.692057
0.695939
0.708585
0.722652
0.729451
0.733419
0.73674
0.739819
0.741056
0.737066
0.735436
0.737198
0.740099
0.743772
0.754695
0.772448
0.781927
0.786775
0.790562
0.794061
0.795816
0.790163
0.785856
0.787105
0.790277
0.794252
0.803996
0.825337
0.839142
0.845391
0.849666
0.853543
0.855663
0.848091
0.840339
0.840673
0.843937
0.848263
0.856626
0.88051
0.900704
0.909314
0.914512
0.91918
0.922284
0.912942
0.900904
0.899145
0.901801
0.906707
0.914181
0.938671
0.968533
0.982764
0.990315
0.996311
1.00095
0.990722
0.970145
0.963322
0.965591
0.971212
0.978211
0.997486
1.03795
1.06417
1.07632
1.08559
1.09373
1.09254
1.06665
1.0465
1.04378
1.04925
1.05797
1.07172
1.10832
1.14949
1.17328
1.18757
1.19899
1.20421
1.19162
1.16513
1.15128
1.15282
1.16282
1.18465
1.22379
1.25635
1.27684
1.29103
1.29769
1.29761
1.27642
1.22396
2.48332
12.1473
0.691662
0.694876
0.69786
0.706755
0.722975
0.732377
0.737056
0.740577
0.743744
0.746153
0.743367
0.739321
0.739901
0.742417
0.745714
0.752313
0.770088
0.784148
0.79041
0.79437
0.79788
0.80083
0.797856
0.790793
0.79019
0.792923
0.796557
0.801853
0.81919
0.839273
0.848357
0.853319
0.857337
0.86092
0.858439
0.84773
0.84424
0.846235
0.84994
0.854834
0.869893
0.896954
0.911777
0.918577
0.923455
0.927986
0.926893
0.911692
0.902524
0.903205
0.907296
0.912756
0.924098
0.95565
0.981716
0.99247
0.998664
1.00446
1.00842
0.993797
0.97421
0.969118
0.970576
0.975655
0.98363
1.00957
1.05257
1.07724
1.08792
1.09519
1.10168
1.09834
1.07284
1.05479
1.05254
1.0568
1.0646
1.08021
1.11929
1.15801
1.18014
1.19394
1.20504
1.20889
1.19654
1.17031
1.15556
1.15597
1.16514
1.18854
1.22884
1.26007
1.2783
1.28913
1.29359
1.28736
1.25512
2.44379
12.1939
0.695093
0.697706
0.700428
0.705946
0.721451
0.734619
0.740591
0.744312
0.747518
0.750421
0.74996
0.744208
0.742854
0.744927
0.748037
0.752189
0.765486
0.784227
0.793328
0.797985
0.801649
0.80506
0.805674
0.798156
0.794181
0.795691
0.798769
0.802614
0.812345
0.83515
0.850129
0.856644
0.861034
0.865051
0.867363
0.858775
0.84926
0.848638
0.8515
0.85581
0.863053
0.886303
0.911077
0.922005
0.928012
0.932617
0.936327
0.928483
0.91195
0.906946
0.908739
0.913049
0.918801
0.935213
0.970338
0.992589
1.00248
1.00951
1.01578
1.01614
0.995017
0.976154
0.973107
0.977006
0.983053
0.991118
1.01944
1.06172
1.08378
1.09489
1.10433
1.11209
1.10661
1.07845
1.05971
1.05775
1.06355
1.07254
1.08988
1.12917
1.16502
1.18587
1.19978
1.2109
1.21524
1.2015
1.17288
1.15685
1.15651
1.16493
1.18934
1.23061
1.26068
1.27696
1.28551
1.28609
1.27938
2.44419
12.2431
0.698789
0.700662
0.703315
0.707051
0.718604
0.735256
0.74355
0.7478
0.751118
0.754173
0.75583
0.750788
0.746628
0.747745
0.75051
0.753844
0.761233
0.78071
0.795103
0.801365
0.805393
0.809001
0.811931
0.807759
0.799582
0.798428
0.800741
0.804277
0.809392
0.826673
0.849161
0.859451
0.864679
0.868786
0.872638
0.870896
0.857894
0.852114
0.853875
0.85767
0.862301
0.87359
0.902172
0.922246
0.930378
0.935817
0.940813
0.94353
0.930282
0.914376
0.911084
0.913309
0.917939
0.92487
0.948521
0.985132
1.00408
1.01213
1.0173
1.02319
1.02253
1
0.983135
0.980235
0.982073
0.987377
0.99711
1.03064
1.07401
1.09604
1.10598
1.11324
1.11868
1.11205
1.08593
1.06825
1.06578
1.07023
1.07861
1.09853
1.1399
1.1739
1.19299
1.20544
1.21527
1.21893
1.20463
1.17452
1.15699
1.15555
1.16303
1.18822
1.2305
1.25963
1.2743
1.27785
1.29114
2.47837
12.2977
0.703145
0.703892
0.706319
0.709373
0.716066
0.733103
0.745493
0.751006
0.754639
0.757835
0.760596
0.758531
0.751846
0.750834
0.752997
0.756122
0.760325
0.774426
0.79461
0.804218
0.809044
0.812738
0.816207
0.816871
0.807779
0.802024
0.803189
0.806345
0.810181
0.818535
0.84217
0.860496
0.867963
0.872403
0.876526
0.879729
0.871856
0.859457
0.857179
0.859177
0.862905
0.868197
0.885854
0.916207
0.932514
0.940065
0.945734
0.950703
0.949505
0.930428
0.916692
0.915888
0.919626
0.924742
0.932031
0.959373
0.994845
1.01161
1.02065
1.02784
1.03396
1.02879
1.00225
0.985518
0.984422
0.989468
0.996151
1.00566
1.03878
1.08031
1.10059
1.11087
1.11979
1.12718
1.12088
1.09315
1.07383
1.07095
1.07635
1.0858
1.10786
1.14871
1.17992
1.19772
1.2102
1.21999
1.22393
1.20767
1.1754
1.15627
1.1536
1.1598
1.18599
1.22834
1.2564
1.26652
1.28981
2.53991
12.3592
0.70832
0.707269
0.709127
0.711918
0.715768
0.728694
0.745938
0.753975
0.758141
0.7614
0.76442
0.765583
0.759076
0.754591
0.755781
0.758703
0.762134
0.769304
0.789591
0.805594
0.812247
0.816269
0.819832
0.822981
0.818903
0.808594
0.806403
0.808553
0.811842
0.816137
0.830423
0.856493
0.870294
0.876534
0.880828
0.884959
0.885524
0.872062
0.861409
0.860946
0.863992
0.868368
0.875279
0.899732
0.928896
0.941785
0.947901
0.952609
0.957776
0.954735
0.934226
0.922777
0.921977
0.924373
0.929155
0.938629
0.971677
1.00732
1.02276
1.02975
1.03445
1.04003
1.0349
1.00972
0.995111
0.993405
0.995421
1.00054
1.011
1.04709
1.08933
1.11035
1.12029
1.12789
1.13311
1.12693
1.10126
1.08173
1.07772
1.08137
1.08955
1.11371
1.15669
1.18764
1.20455
1.21563
1.22423
1.22786
1.21132
1.17654
1.15457
1.15045
1.15521
1.18206
1.22425
1.24765
1.27922
2.61387
12.4236
0.714046
0.710633
0.711717
0.714453
0.71763
0.724945
0.743156
0.755934
0.76138
0.764852
0.767988
0.770789
0.768074
0.760364
0.759174
0.76143
0.764548
0.768326
0.781133
0.803348
0.81458
0.819774
0.823569
0.827204
0.828843
0.819468
0.810985
0.810774
0.813425
0.81712
0.823313
0.844817
0.869316
0.879979
0.885538
0.889529
0.893244
0.888799
0.872231
0.865226
0.866454
0.869723
0.874069
0.882802
0.91187
0.938771
0.950167
0.956944
0.962725
0.967201
0.959022
0.936049
0.925683
0.926836
0.931376
0.936509
0.945843
0.979606
1.01314
1.0277
1.03683
1.04441
1.05015
1.04229
1.01513
0.998585
0.996868
1.00152
1.00828
1.01912
1.05404
1.09428
1.11415
1.12465
1.13372
1.14069
1.13539
1.10815
1.08589
1.08041
1.08453
1.09379
1.1197
1.16228
1.1922
1.20886
1.22046
1.22888
1.23176
1.214
1.17675
1.15141
1.14537
1.14885
1.17776
1.21525
1.25698
2.68863
12.4788
0.720177
0.715245
0.714839
0.717271
0.720175
0.72393
0.736959
0.755404
0.763991
0.768322
0.771764
0.775001
0.776396
0.769096
0.763412
0.764005
0.76652
0.769834
0.775717
0.795558
0.815139
0.823113
0.827427
0.831039
0.834513
0.831984
0.819033
0.813942
0.815753
0.819224
0.823179
0.83222
0.858903
0.879757
0.888037
0.893168
0.897429
0.900937
0.892168
0.875264
0.870023
0.871106
0.874251
0.879003
0.891437
0.92479
0.949689
0.959614
0.964781
0.96936
0.974221
0.965008
0.942407
0.933605
0.9333
0.935506
0.940447
0.952168
0.989833
1.02449
1.0389
1.04569
1.05064
1.05591
1.04998
1.02423
1.00802
1.00552
1.00767
1.01282
1.02415
1.06205
1.10283
1.12248
1.13209
1.1398
1.14593
1.14207
1.11562
1.09176
1.08512
1.08741
1.09503
1.12152
1.16682
1.19815
1.21444
1.22434
1.23128
1.23318
1.21577
1.17677
1.14728
1.13804
1.14166
1.16963
1.22287
2.74623
12.519
0.726325
0.722149
0.718648
0.719935
0.722337
0.725329
0.731831
0.750853
0.765825
0.772047
0.775668
0.77883
0.781734
0.77923
0.769631
0.766925
0.768943
0.772134
0.775737
0.785751
0.809745
0.82482
0.830979
0.834723
0.838317
0.840967
0.832706
0.820793
0.819067
0.821236
0.824358
0.828589
0.842054
0.871444
0.889229
0.896954
0.902383
0.90693
0.908591
0.893993
0.877132
0.873797
0.876636
0.880662
0.88531
0.899404
0.934106
0.956929
0.966659
0.973725
0.979595
0.983194
0.969795
0.945694
0.936335
0.937891
0.94261
0.947949
0.958817
0.995343
1.02842
1.04269
1.05184
1.05954
1.06526
1.05885
1.03224
1.01308
1.0092
1.01318
1.01988
1.03202
1.06879
1.10666
1.12548
1.13681
1.14644
1.15316
1.14885
1.12047
1.09435
1.08632
1.08897
1.09737
1.12425
1.16931
1.2004
1.21627
1.22602
1.23256
1.23357
1.21653
1.17698
1.14229
1.12926
1.12988
1.17959
2.77021
12.548
0.731318
0.730716
0.723246
0.722518
0.724718
0.727692
0.731383
0.743413
0.764136
0.774483
0.779084
0.782356
0.785501
0.787425
0.779949
0.771905
0.771898
0.774462
0.777611
0.781761
0.79749
0.82215
0.833572
0.838839
0.842488
0.846123
0.846329
0.833194
0.823326
0.822949
0.825791
0.829459
0.834558
0.853378
0.883241
0.898092
0.904445
0.908875
0.91341
0.914605
0.898129
0.882946
0.880404
0.881707
0.885085
0.890359
0.908457
0.945493
0.967735
0.976275
0.980891
0.985555
0.989968
0.977258
0.953652
0.944964
0.944474
0.946386
0.95128
0.963979
1.00363
1.03885
1.05335
1.06018
1.06549
1.0713
1.0679
1.04204
1.02153
1.01681
1.01846
1.02342
1.03611
1.07646
1.11608
1.13449
1.14335
1.15052
1.1575
1.15585
1.1282
1.1002
1.09064
1.0914
1.09749
1.12286
1.16954
1.20215
1.21795
1.22667
1.23225
1.23249
1.21685
1.17679
1.13853
1.11603
1.12986
2.74315
12.5695
0.735161
0.738346
0.730748
0.72634
0.727547
0.730238
0.733248
0.738371
0.756343
0.774672
0.78213
0.786099
0.78938
0.79255
0.79157
0.780704
0.77556
0.776617
0.779361
0.782771
0.78889
0.810565
0.833176
0.842411
0.847062
0.850503
0.853983
0.849863
0.833767
0.826966
0.828292
0.831547
0.835183
0.840869
0.863547
0.892676
0.905765
0.91236
0.917783
0.922438
0.920639
0.90053
0.885451
0.884058
0.887617
0.892074
0.897173
0.915629
0.952139
0.97277
0.982111
0.989395
0.995312
0.998316
0.983331
0.957832
0.947365
0.94843
0.953259
0.959134
0.971027
1.00855
1.04207
1.05675
1.06586
1.07351
1.0795
1.0756
1.04926
1.02626
1.01992
1.02314
1.0298
1.04331
1.08202
1.11847
1.13619
1.14816
1.1585
1.16531
1.16237
1.13309
1.10233
1.0905
1.09115
1.09766
1.12233
1.16877
1.20186
1.21763
1.22611
1.23104
1.23059
1.21554
1.17574
1.12707
1.10225
2.66942
12.5904
0.738836
0.743831
0.741052
0.732724
0.730951
0.732614
0.735211
0.738415
0.747189
0.769537
0.784078
0.789863
0.793251
0.796416
0.799128
0.793393
0.781888
0.779472
0.781741
0.785071
0.788573
0.796933
0.822641
0.842434
0.850256
0.85493
0.858612
0.86151
0.853353
0.837308
0.832467
0.833636
0.836285
0.840247
0.847785
0.874667
0.902681
0.914487
0.919981
0.923672
0.928305
0.92672
0.906514
0.893068
0.891498
0.892796
0.896238
0.901898
0.923483
0.962108
0.983317
0.991385
0.995664
1.00006
1.00435
0.991756
0.966993
0.956875
0.956359
0.958241
0.962814
0.975362
1.01513
1.05104
1.06589
1.07276
1.07796
1.08442
1.08408
1.05939
1.03489
1.02733
1.02767
1.0319
1.04477
1.0866
1.12783
1.14712
1.15595
1.16269
1.16878
1.16722
1.13984
1.10736
1.09356
1.09261
1.09749
1.11984
1.16664
1.20119
1.21701
1.2246
1.22852
1.22696
1.21266
1.16463
1.10839
2.56745
12.6242
0.742633
0.747975
0.749442
0.742242
0.735042
0.735069
0.737566
0.7406
0.744485
0.758397
0.781243
0.792074
0.796909
0.800191
0.803469
0.804835
0.794472
0.785058
0.784767
0.78705
0.789941
0.793668
0.805693
0.833796
0.851277
0.858634
0.863483
0.867399
0.869253
0.856312
0.839717
0.836216
0.838922
0.842685
0.846472
0.854454
0.883161
0.909773
0.920645
0.927132
0.932647
0.937192
0.933027
0.910676
0.896131
0.895011
0.898715
0.903409
0.908805
0.929136
0.966281
0.98647
0.995815
1.0032
1.00917
1.01264
1.00004
0.974099
0.960516
0.959697
0.964022
0.969897
0.98172
1.01858
1.0524
1.06788
1.07823
1.08652
1.09246
1.09059
1.06541
1.03837
1.02884
1.03073
1.03696
1.05055
1.09011
1.129
1.14746
1.15829
1.16791
1.17517
1.17423
1.14639
1.11106
1.09439
1.09227
1.0966
1.11724
1.16335
1.19851
1.2144
1.22175
1.22445
1.22307
1.20106
1.15066
2.48806
12.6754
0.746034
0.751675
0.754248
0.752972
0.742899
0.738796
0.740207
0.742835
0.745697
0.750686
0.769854
0.791475
0.800294
0.804658
0.807873
0.811055
0.809172
0.795355
0.788035
0.788646
0.791537
0.79497
0.799391
0.815306
0.844019
0.859268
0.865584
0.86999
0.87389
0.875479
0.861328
0.846133
0.84333
0.844523
0.847157
0.851292
0.861505
0.892893
0.919217
0.929637
0.934629
0.938212
0.943055
0.940396
0.918772
0.904922
0.903024
0.903896
0.906911
0.91254
0.934889
0.974471
0.996495
1.00487
1.00933
1.01404
1.01912
1.01056
0.984428
0.969759
0.967396
0.968741
0.972983
0.984863
1.02483
1.06234
1.07806
1.08498
1.08977
1.09601
1.0976
1.07513
1.04769
1.03705
1.03585
1.03893
1.04946
1.08877
1.13365
1.15678
1.16666
1.17342
1.17897
1.17834
1.15336
1.11615
1.09606
1.09203
1.09481
1.11223
1.15839
1.19494
1.21108
1.21745
1.22034
1.2135
1.19764
2.46318
12.7352
0.748591
0.755435
0.758087
0.760409
0.75475
0.744809
0.743014
0.744716
0.747424
0.750753
0.758598
0.782247
0.801387
0.808687
0.812412
0.815351
0.81811
0.811678
0.796602
0.792126
0.793985
0.797181
0.800473
0.805108
0.823763
0.852584
0.866544
0.872961
0.87797
0.882399
0.882296
0.865001
0.849154
0.846701
0.849704
0.853587
0.857584
0.867486
0.899108
0.924325
0.934662
0.941581
0.947267
0.951869
0.947762
0.925057
0.908496
0.905848
0.909001
0.913793
0.919199
0.938975
0.976733
0.99859
1.00879
1.01687
1.02306
1.02752
1.01969
0.993097
0.974413
0.970768
0.974415
0.980356
0.991382
1.0276
1.06247
1.07837
1.08914
1.09851
1.10505
1.10592
1.08335
1.05205
1.03762
1.03686
1.04197
1.05279
1.08883
1.13342
1.15697
1.16811
1.17648
1.18312
1.1837
1.15988
1.11965
1.09551
1.08944
1.09163
1.10789
1.15317
1.19023
1.20628
1.21349
1.21091
1.225
2.49108
12.7966
0.750084
0.759201
0.761787
0.764582
0.765197
0.755094
0.747136
0.747328
0.750014
0.753191
0.756868
0.767671
0.793324
0.809559
0.816071
0.819983
0.823176
0.824935
0.814428
0.800558
0.797648
0.799112
0.801775
0.805399
0.811224
0.833162
0.861445
0.874338
0.880027
0.883775
0.887786
0.888334
0.871422
0.856663
0.85414
0.855024
0.8575
0.861748
0.873645
0.90745
0.933749
0.943968
0.948843
0.952527
0.95755
0.956169
0.934558
0.917586
0.913994
0.914376
0.916701
0.922022
0.942744
0.983862
1.00875
1.01817
1.02305
1.02793
1.03369
1.03018
1.00442
0.984174
0.978821
0.978327
0.981583
0.992041
1.03026
1.07145
1.09089
1.09911
1.10477
1.10992
1.11199
1.09289
1.06107
1.04508
1.04206
1.04402
1.05104
1.08423
1.13327
1.16192
1.17406
1.1807
1.18549
1.18622
1.16579
1.12428
1.09604
1.08779
1.08836
1.10216
1.14695
1.18411
1.2019
1.20328
1.2342
2.55674
12.8607
0.748118
0.762121
0.765191
0.768085
0.770921
0.768469
0.756199
0.751585
0.753122
0.755897
0.75886
0.762643
0.776068
0.802664
0.817473
0.823894
0.828016
0.831333
0.83191
0.817502
0.803377
0.801502
0.80442
0.808072
0.811448
0.817162
0.840759
0.868535
0.880487
0.886635
0.891855
0.89635
0.895206
0.87615
0.859783
0.857047
0.859963
0.864064
0.868247
0.87899
0.911814
0.937348
0.948112
0.955477
0.961364
0.966102
0.964038
0.942265
0.92194
0.91624
0.918627
0.923357
0.929097
0.947239
0.985697
1.01007
1.02149
1.03027
1.03684
1.04178
1.03786
1.01084
0.986162
0.978991
0.981469
0.987352
0.998468
1.03428
1.07388
1.09241
1.10183
1.10987
1.11685
1.12047
1.10255
1.0672
1.04648
1.04218
1.04565
1.05339
1.08343
1.13179
1.1617
1.17458
1.18211
1.18768
1.18967
1.17137
1.12759
1.09478
1.08388
1.08373
1.0965
1.14036
1.17806
1.19078
1.23181
2.64161
12.9262
0.740097
0.7631
0.768891
0.772331
0.775197
0.777469
0.770562
0.758714
0.756244
0.75802
0.760793
0.763857
0.768276
0.784386
0.811042
0.824528
0.8303
0.834368
0.837814
0.837731
0.822918
0.810303
0.808648
0.809969
0.812498
0.816206
0.82351
0.849609
0.877069
0.888713
0.893979
0.897124
0.901227
0.901667
0.884032
0.868131
0.865031
0.865657
0.86777
0.871962
0.883952
0.918879
0.946771
0.95758
0.962527
0.965794
0.97067
0.971885
0.952829
0.931535
0.925177
0.925238
0.927133
0.931859
0.949642
0.991234
1.01991
1.03088
1.03587
1.03961
1.04505
1.04469
1.02083
0.996639
0.988989
0.988599
0.991061
0.998554
1.03122
1.07547
1.10004
1.11042
1.11679
1.12226
1.12594
1.11258
1.07729
1.05387
1.04763
1.04825
1.05287
1.07828
1.12876
1.16305
1.17767
1.18424
1.18839
1.18982
1.17479
1.13177
1.09436
1.08002
1.07845
1.09041
1.13481
1.16532
1.21698
2.72984
12.984
0.729338
0.756906
0.770862
0.776495
0.779369
0.782223
0.783569
0.773178
0.762403
0.761229
0.763419
0.766271
0.769063
0.773408
0.791503
0.818426
0.831295
0.837226
0.841746
0.845629
0.844689
0.827602
0.813728
0.812155
0.815164
0.818886
0.822418
0.829205
0.85555
0.882304
0.893378
0.899701
0.90508
0.909619
0.909177
0.890631
0.872215
0.867658
0.870117
0.874422
0.878904
0.889292
0.921857
0.948903
0.960315
0.967861
0.97403
0.978897
0.979805
0.962269
0.93808
0.928061
0.928794
0.933204
0.938857
0.954148
0.992216
1.01976
1.03173
1.04105
1.04854
1.05424
1.05416
1.03161
1.00275
0.989762
0.988741
0.992713
1.00035
1.03169
1.07793
1.10325
1.11414
1.12227
1.12922
1.1332
1.12037
1.08383
1.05617
1.04712
1.0483
1.0538
1.07661
1.12596
1.1617
1.17646
1.18347
1.18836
1.19066
1.17821
1.1357
1.09346
1.07527
1.07189
1.08534
1.12324
1.1874
2.80617
13.0257
0.725852
0.740769
0.765538
0.778242
0.783896
0.787442
0.790625
0.789965
0.776402
0.766993
0.766248
0.767736
0.770341
0.77373
0.779152
0.799337
0.8258
0.838063
0.843478
0.847203
0.85079
0.85062
0.834558
0.821582
0.819791
0.820757
0.822962
0.826658
0.834651
0.862615
0.8902
0.901761
0.906913
0.910055
0.914407
0.916224
0.900265
0.881602
0.876549
0.876799
0.878201
0.882066
0.892508
0.926479
0.957065
0.969609
0.975028
0.978455
0.98352
0.987186
0.973897
0.948771
0.93761
0.936133
0.93698
0.940797
0.954707
0.995226
1.02909
1.04349
1.05047
1.05585
1.06101
1.06193
1.04114
1.01081
0.99679
0.995706
0.999489
1.00587
1.03084
1.07713
1.10807
1.12076
1.12672
1.13101
1.13595
1.12944
1.09478
1.06343
1.05204
1.0511
1.05445
1.07332
1.12175
1.1603
1.17728
1.18422
1.18794
1.18946
1.17951
1.14001
1.09373
1.0695
1.06494
1.07395
1.14577
2.85303
13.0546
0.726934
0.732388
0.749148
0.774496
0.786688
0.792099
0.795558
0.798408
0.795391
0.779264
0.769829
0.769991
0.772908
0.77619
0.779167
0.784197
0.8056
0.83227
0.844162
0.849933
0.854742
0.858803
0.857686
0.840054
0.825105
0.822665
0.825356
0.828994
0.832566
0.83944
0.86636
0.893694
0.905385
0.912372
0.918122
0.9228
0.924161
0.908987
0.8876
0.879196
0.880166
0.88401
0.888613
0.897236
0.927671
0.957812
0.971345
0.979889
0.986908
0.992058
0.995234
0.983756
0.956951
0.940862
0.938494
0.942092
0.947591
0.959438
0.996154
1.03067
1.04593
1.05351
1.05938
1.0654
1.06944
1.05442
1.02207
1.00362
0.999469
1.00014
1.00444
1.02549
1.07281
1.10574
1.1199
1.13022
1.13814
1.14293
1.13669
1.10218
1.06761
1.05277
1.05113
1.05412
1.06869
1.11552
1.1569
1.17488
1.18231
1.18657
1.18803
1.17981
1.1438
1.09469
1.0652
1.04816
1.09488
2.84244
13.0688
0.728928
0.733267
0.738694
0.758527
0.782704
0.793595
0.798837
0.802547
0.80524
0.800499
0.78428
0.776296
0.776154
0.777473
0.780029
0.783633
0.790229
0.81348
0.839971
0.851694
0.856946
0.860225
0.863829
0.864278
0.848263
0.833353
0.830268
0.830648
0.832311
0.83592
0.843737
0.872011
0.901693
0.914392
0.919843
0.923177
0.927634
0.931183
0.919896
0.897657
0.888238
0.887236
0.887839
0.890971
0.899062
0.929982
0.965279
0.981414
0.987968
0.991736
0.996462
1.0014
0.994848
0.968164
0.950551
0.946672
0.94651
0.949159
0.958358
0.993261
1.03126
1.05015
1.06027
1.06881
1.07472
1.07794
1.06412
1.02992
1.00647
1.00016
1.00262
1.00835
1.02605
1.07208
1.11208
1.1289
1.13567
1.1401
1.14472
1.14291