/*--------------------------------*- C++ -*----------------------------------*\
  =========                 |
  \\      /  F ield         | OpenFOAM: The Open Source CFD Toolbox
   \\    /   O peration     | Website:  https://openfoam.org
    \\  /    A nd           | Version:  12
     \\/     M anipulation  |
\*---------------------------------------------------------------------------*/
FoamFile
{
    format      ascii;
    class       volScalarField;
    location    "2.425";
    object      rho;
}
// * * * * * * * * * * * * * * * * * * * * * * * * * * * * * * * * * * * * * //

dimensions      [1 -3 0 0 0 0 0];

internalField   nonuniform List<scalar> 
183995
(
1.58085
1.21209
1.40001
1.21534
1.40162
1.38543
1.34218
1.37621
1.00171
1.42603
1.2584
1.52377
1.25686
1.3832
1.50726
1.50655
1.50587
1.33327
1.40001
1.5052
1.53332
1.55433
1.57807
1.39329
1.39999
1.33501
1.39999
1.45738
1.40001
1.39256
1.28563
1.39199
1.25763
1.50132
1.25756
1.52227
1.40001
1.4837
1.40001
1.40001
1.36594
1.38822
1.49879
1.34942
1.50271
1.38753
1.19029
1.47977
1.38035
1.38759
1.38687
1.53799
1.34597
1.40001
1.39386
1.55264
1.34428
1.25907
1.2538
1.259
1.49491
1.64243
1.39807
1.57938
1.2665
1.57422
1.49633
1.57533
1.40001
1.40001
1.51407
1.26696
1.26592
1.40001
1.34196
1.57097
1.40001
1.28889
1.47775
1.26297
1.2631
1.48741
1.52284
1.53672
1.38478
1.48636
1.40676
1.45248
1.56689
1.48504
1.2675
1.26995
0.996828
1.4
1.40001
1.40001
1.55105
1.38254
1.24996
1.21619
1.55035
1.5323
1.25123
1.48458
1.38074
1.39663
1.54874
1.20364
1.43403
1.48343
1.50456
1.25977
1.40001
1.48782
1.53547
1.5112
1.40001
1.25124
1.16962
1.36867
1.53141
1.52166
1.33091
1.27195
1.27342
1.62667
1.40001
1.50884
1.40001
1.37986
1.3439
1.40001
1.49818
1.50764
1.40001
1.33619
1.53109
1.40001
1.57651
1.40001
1.25172
1.28051
1.28142
1.28981
1.28986
1.51258
1.53014
1.40001
1.65544
1.50332
1.40001
1.28365
1.28506
1.51465
1.5209
1.21791
1.51163
1.40001
1.61191
1.40001
1.40001
1.40001
1.40001
1.64285
1.5119
1.40001
1.50021
1.40001
1.26124
1.26081
1.3403
1.57643
1.24651
1.29699
1.22024
1.2957
1.40001
1.51537
1.375
1.40001
1.30279
1.49967
1.40001
1.49692
1.3772
1.51263
1.16376
1.40001
1.40001
1.47508
1.46891
1.40001
1.40001
1.5072
1.51554
1.21124
1.40001
1.40001
1.39135
1.51607
1.39128
1.51617
1.50796
1.38067
1.24452
1.30058
1.51775
1.30027
1.37987
1.32802
1.15271
1.22187
1.48297
1.40001
1.40001
1.21722
1.40001
1.34878
1.40001
1.27767
1.34956
1.39124
1.30466
1.30387
1.48965
1.40001
1.40001
1.34888
1.34388
1.50031
1.51653
1.51888
1.50068
1.3747
1.32751
1.40001
1.35012
1.07461
1.37346
1.50922
1.53325
1.25175
1.40001
1.40001
1.40001
1.40011
1.51345
1.33523
1.40001
1.50938
1.35733
1.30844
1.50012
1.30873
1.19626
1.27277
1.39591
1.27309
1.34944
1.43283
1.35228
1.37515
1.20963
1.49425
1.31428
1.40001
1.62383
1.31464
1.20928
1.48933
1.40001
1.40001
1.42523
1.40001
1.36377
1.26554
1.3315
1.26569
1.37869
1.49367
1.47606
1.40001
1.3205
1.40001
1.34608
1.40001
1.40001
0.930757
1.58678
1.31983
1.40001
1.08061
1.4881
1.40001
1.40001
1.39527
1.33677
1.40001
1.48869
1.37392
1.49288
1.40001
1.37397
1.40001
1.50857
1.34605
1.32333
1.35476
1.39999
1.40001
1.33562
1.40001
1.31297
0.994413
1.35706
1.40001
1.40001
1.27465
1.40001
1.32427
1.27644
1.33487
1.47612
1.49943
1.47288
1.40001
1.40001
1.25215
1.40001
1.20252
1.40001
1.56959
1.3941
1.45545
1.49279
1.38868
1.32522
1.32476
1.36218
1.49346
1.40001
1.34102
1.50401
1.36217
1.40001
1.51609
1.32274
1.40001
1.35037
1.40001
1.36837
1.32316
1.51908
1.35124
1.51899
1.38756
1.42577
1.58486
1.42516
1.26614
1.30149
1.26564
1.31246
1.40128
1.35713
1.35083
1.40001
1.36955
1.35558
1.20019
1.40001
1.30844
1.40001
1.4976
1.33167
1.40001
1.40001
1.34316
1.57408
1.57797
1.57231
1.32897
1.35495
0.984007
1.40001
1.28136
1.40001
1.28137
1.40001
1.40001
1.40001
1.29143
1.40001
1.40001
1.46454
1.40001
1.08355
1.34375
1.22681
1.40001
1.40001
1.40001
1.42363
1.61727
1.35096
1.3152
1.25326
1.40001
1.35087
1.55319
1.57805
1.31605
1.32848
1.40001
1.34128
1.2393
1.34102
1.40001
1.45161
1.40001
1.24333
1.55246
1.54942
1.39157
1.32503
1.34329
1.51014
1.51885
1.40001
1.40001
1.48129
1.4
1.41375
1.34142
1.36871
1.41305
1.28681
0.884688
1.28661
1.3615
1.40001
1.40001
1.40001
1.40001
1.30441
1.40001
1.33586
1.17894
1.2075
1.55483
1.15414
1.48304
1.48517
1.0067
1.00202
1.40001
1.33538
1.40001
1.33286
1.30982
1.34236
1.39735
1.28072
1.40001
1.21535
1.47461
1.28132
1.26824
1.30972
1.33683
1.53658
1.53444
1.40001
1.31935
1.24614
1.34244
1.40001
1.51974
1.40001
1.28858
1.29084
1.35331
1.26543
1.31717
1.37848
1.37078
1.3726
1.48091
1.4885
1.48894
1.29116
1.29128
1.19363
1.1238
1.31929
1.17772
1.49189
1.49155
1.53237
1.53035
1.40001
1.35669
1.48581
1.48553
1.05895
1.40001
1.50786
1.40001
1.32066
1.40001
1.40001
1.3165
1.40001
1.2156
1.40001
1.05766
1.2313
1.49842
1.49821
1.40001
1.3502
1.40001
0.979026
1.38103
1.25886
1.29839
1.40001
1.07646
1.29861
1.6051
1.48517
1.38102
1.40001
1.40001
1.34768
1.23455
1.40001
1.18896
1.37976
1.33256
1.5046
1.20075
1.40001
1.40001
1.50404
1.50361
1.33191
0.895608
1.38912
1.40001
1.50202
1.40001
1.27193
1.40001
1.40001
1.50202
1.31878
1.27438
1.36192
1.19076
1.47855
1.47835
1.35146
1.40001
1.20651
1.39521
1.5086
1.50822
1.40001
1.40001
1.40001
1.3497
1.52165
1.51991
1.39992
1.36266
1.40001
1.19814
1.33684
1.36148
1.63992
0.924187
1.51121
1.51084
1.21656
1.28074
1.40001
1.40001
1.39809
1.33423
1.28878
1.38178
1.29151
1.47515
1.47499
1.40001
1.40001
1.33102
1.51491
1.4982
1.51467
1.40001
1.32749
1.40001
1.25736
1.21856
1.33757
1.34185
1.22194
1.33538
1.34602
1.47179
1.4716
1.3268
1.38201
1.51611
1.51462
1.20247
1.32641
1.39998
1.49563
1.49567
1.40001
1.40001
1.40001
1.39925
1.32578
1.40001
1.09061
1.2537
1.51332
1.51191
1.40001
1.4758
1.32925
1.34269
1.35783
1.21566
1.2219
1.39086
1.40001
0.988752
1.4292
1.24287
1.37075
1.40001
1.40001
1.32211
1.46387
1.46363
1.40001
1.30375
1.40001
1.40001
1.40001
1.48016
1.51844
1.5201
1.321
1.22828
1.38196
1.2081
1.3198
1.51829
1.29563
1.32098
1.40001
1.29689
1.40001
1.46021
1.46008
0.931549
1.40001
1.35667
1.25346
1.40001
1.40001
1.40001
1.31271
1.39996
1.40001
1.45653
1.4563
1.39807
1.54457
1.36829
1.27757
1.40001
1.5174
1.51293
1.34363
1.34388
1.31189
1.38611
1.40001
1.43798
1.36236
1.39438
1.27825
1.05019
1.33714
1.21432
1.30296
1.40001
1.34308
1.36262
1.40001
1.40001
1.31352
1.57533
1.33756
1.57458
1.31401
1.39378
1.2796
1.38398
1.26335
1.36901
1.31385
1.28008
1.33705
1.47091
1.50071
1.49948
1.49711
1.44793
1.44786
1.21301
1.38912
1.3431
1.40001
1.10176
1.40001
1.35335
1.35169
1.35668
1.3632
1.3017
1.30258
1.40001
1.50727
1.44386
1.44381
1.31369
1.18079
1.49616
1.65186
1.40001
1.48716
1.5038
1.40001
1.33894
1.40001
1.40001
1.40001
1.40001
1.41388
1.55055
1.40001
1.44015
1.43988
1.40001
1.31972
1.40001
1.40001
1.49428
1.49296
1.35776
1.30264
1.34674
1.44626
1.40001
1.25943
1.42849
1.40001
1.36411
0.899346
1.30277
1.35197
1.4897
1.40001
1.43643
1.43612
1.40001
1.3479
1.34466
1.42919
1.36882
1.24496
1.40001
1.30694
1.40001
1.40001
1.40001
1.40001
1.22177
1.01822
1.44252
1.43256
1.43234
1.46053
1.35042
1.40001
1.29012
1.48942
1.48807
1.44243
1.41543
1.33744
1.40001
1.43059
1.36642
1.40001
1.40001
1.09262
1.30625
1.40001
1.19758
1.43024
1.32039
1.59833
1.40001
1.38506
1.30668
1.50169
1.30657
1.53441
1.4305
1.47315
1.48684
1.5625
1.40001
1.37554
1.40001
1.27933
1.38878
1.40001
1.40001
1.53109
1.37462
1.40001
1.27842
1.40001
1.2829
1.40001
1.24747
1.33307
1.40001
1.30117
1.27873
1.59119
1.39079
1.38795
1.52741
1.28269
1.47646
1.42778
1.51933
1.20891
1.30729
1.42698
1.40001
1.4225
1.42231
1.4272
1.21236
1.33872
1.31996
1.27932
1.40001
1.30686
1.51168
1.56778
1.14934
1.40001
1.68387
1.37274
1.4832
1.4999
1.40001
1.41921
1.32269
1.41987
1.34321
1.40001
1.32415
1.32794
1.30223
1.35671
1.51934
1.40001
1.37695
1.28704
1.40016
1.40001
1.40001
1.25908
1.26846
1.40001
1.28567
1.30207
1.40001
1.42585
1.32472
1.51939
1.40001
0.961871
1.33162
1.33069
1.52041
1.28831
1.40001
1.22015
1.40001
1.28544
1.40013
1.40001
1.46165
1.40001
1.0474
1.40001
1.40046
1.40001
1.32513
1.29856
1.40001
1.36208
1.30376
1.40001
1.40001
1.35287
1.40001
1.40001
1.28835
1.03125
1.40001
1.28289
1.20492
1.41564
1.33822
1.40001
1.41629
1.25594
1.37043
1.31453
1.40001
1.18809
1.37787
1.41779
1.50811
1.51551
1.28392
1.40001
1.40001
1.40001
1.29894
1.40001
1.40001
1.40001
1.54078
1.40001
1.40001
1.40001
1.40001
1.56135
1.29311
1.40001
1.40332
1.37506
1.3116
1.25331
1.24956
1.28209
1.25671
1.40001
1.32314
1.40001
1.22788
1.37759
1.41452
1.3316
1.3569
1.3435
1.29257
1.13557
1.52816
1.4
1.35877
1.3697
1.51618
1.40001
1.51335
1.33476
1.30152
1.33523
1.12745
1.28761
1.40001
1.40001
1.40001
1.27483
1.3809
1.53413
1.36371
0.937498
1.37495
1.40001
1.40001
1.40001
1.40001
1.35886
1.38168
1.34431
1.42408
1.35664
1.40001
1.40001
1.39513
1.47269
1.40001
1.40001
1.41636
1.24834
1.40272
1.43045
1.57253
1.31219
1.38619
1.50536
1.25423
1.40001
1.40001
1.51351
1.35142
1.40001
1.40001
1.52066
1.34341
1.27566
1.21457
1.32065
1.31669
1.40001
1.40962
1.40001
1.35174
1.33029
1.40001
1.41014
1.31677
1.39459
1.38399
1.32855
1.32319
1.40001
1.32259
1.38201
1.48398
1.31222
1.40001
1.40001
1.3226
1.32109
1.40001
1.40001
1.40001
1.37849
1.33475
1.36514
1.40001
1.4063
1.2879
1.30725
1.43222
1.40001
1.30305
1.40001
1.33068
1.30512
1.35141
1.19042
1.32406
1.25286
1.2854
1.35966
1.28387
1.40001
1.40001
1.25018
1.30711
1.34458
1.27719
1.48932
1.40001
1.32997
1.31108
1.34982
1.25374
1.32304
1.36867
1.22102
1.40001
1.36829
1.37765
1.36944
1.40001
1.20895
1.40001
1.47496
1.3859
1.40001
1.40001
1.3328
1.40241
1.3624
1.50652
1.40001
1.5039
1.19015
1.03001
1.30547
1.21756
1.37766
1.51745
1.62767
1.55508
1.40284
1.40001
1.40001
1.37513
1.54622
1.24118
1.40001
1.40001
1.29013
1.34185
1.55968
1.34414
1.25371
1.32776
1.40001
1.40001
1.329
1.28824
1.49751
1.40001
1.20308
1.40001
1.36891
1.40001
1.49346
1.29271
1.30737
1.51863
1.2417
1.40001
1.28747
1.40001
1.37258
1.36956
1.37888
1.4755
1.40001
1.27665
1.1991
1.36829
1.40098
1.3982
1.40001
1.4766
1.40001
1.23019
1.38406
1.38195
1.40001
1.3926
1.32498
1.35031
1.64348
1.40001
1.31087
1.29064
1.47498
1.59983
1.32936
1.40001
1.40001
1.28064
1.29905
1.55254
1.40001
1.40001
1.22966
1.28046
1.33588
1.40001
1.31106
1.36873
1.30194
1.36969
1.36917
1.40001
1.3018
1.24554
1.32426
1.24565
1.40001
1.29232
1.40001
1.25447
1.16323
1.36661
1.46224
1.36669
1.38493
1.36425
1.36143
1.57876
1.46985
1.33759
1.57967
1.63758
1.22951
1.31762
1.10743
1.58122
1.57611
1.28827
1.27287
1.40001
1.40001
1.38396
1.22438
1.56488
1.2947
1.2761
1.19912
1.40001
1.22896
1.31849
1.59186
1.30944
1.50678
1.18798
1.45234
1.48555
1.28163
1.41544
1.3781
1.40001
1.40001
1.2984
1.17299
1.45307
1.58995
1.40001
1.48378
1.3296
1.32392
1.40001
1.40001
1.04551
1.25998
1.34636
1.40001
1.3084
1.38312
1.5662
1.33999
1.33019
1.32782
1.38293
1.37036
1.28263
1.28155
1.35799
1.35677
1.45292
1.32489
1.40001
1.40001
1.31843
1.28407
1.3643
1.37178
1.43133
1.30424
1.27856
1.40001
1.2349
1.2
1.40001
1.29607
1.40001
1.40001
1.23942
1.40001
1.36618
1.36953
1.33078
1.37085
1.40001
1.26002
1.37395
1.40001
1.30723
1.30569
1.38018
1.23291
1.40001
1.39823
1.43869
1.33473
1.30259
1.24464
1.3254
1.26962
1.40001
1.40001
0.93484
1.36943
1.38112
1.38083
1.45868
1.47431
1.47413
1.4743
1.27549
1.40001
1.30672
1.25816
1.36098
1.39456
1.27126
1.40001
1.40001
1.26627
1.25225
1.27492
1.26505
1.33645
1.40001
1.40001
1.3745
1.28076
1.40001
1.47451
1.33333
1.40001
1.20863
1.81657
1.47568
1.40001
1.29165
1.40001
1.28246
1.25009
1.35833
1.40001
1.40001
1.24812
1.4758
1.2691
1.40001
1.29786
1.25122
1.36678
1.40001
1.40001
1.21427
1.20977
1.47467
1.08859
1.40001
1.36751
1.40001
1.21545
1.40001
1.36633
1.40001
1.24581
1.40001
1.37319
1.30603
1.24367
1.33915
1.51683
1.37378
1.29392
1.41693
1.27158
1.56729
1.29451
1.34308
1.34349
1.29123
1.23855
1.21009
1.37797
1.40001
1.2468
1.40001
1.40001
1.2737
1.42137
1.34721
1.27511
1.31657
1.30099
1.45538
1.22655
1.32686
1.33377
1.27968
1.3505
1.24085
1.31089
1.22322
1.40001
1.40001
1.50003
1.40001
1.50869
1.29501
1.32143
1.24314
1.32509
1.28916
1.33051
1.3665
1.61826
1.20417
1.27389
1.29688
1.51671
1.51964
1.33889
1.32427
1.34776
1.40001
1.15009
1.44556
1.40001
1.46624
1.29612
1.32031
1.36943
1.37151
1.32593
1.3847
1.40001
1.32761
1.40977
1.30174
1.29994
1.49883
1.45238
1.25756
1.30286
1.30243
1.30061
1.33323
1.30309
1.49726
1.21401
1.33129
1.2983
1.29365
1.29846
1.33747
1.40001
1.35961
1.36772
1.37446
1.33659
1.36188
1.36174
1.54865
1.3834
1.21906
1.39585
1.40001
1.36094
1.28429
1.53119
1.50073
1.49669
1.55331
1.84815
1.52154
1.49782
1.51873
1.49943
1.39902
1.49885
1.40001
1.34742
1.74209
1.35281
1.25678
1.50014
1.25738
1.30296
1.30229
1.53535
1.53321
1.34292
1.29422
1.25031
1.49968
1.40001
1.40001
1.3191
1.33633
1.40001
1.40001
1.74597
1.20878
1.51988
1.5788
1.40001
1.40001
1.22303
1.40001
1.28861
1.40001
1.56762
1.34497
1.72094
1.44148
1.4994
1.27247
1.24545
1.71121
1.72737
1.40001
1.56211
1.40001
1.49969
1.40001
1.40001
1.49938
1.58304
1.23905
1.34109
1.40001
1.40001
1.28816
1.59832
1.23538
1.29825
1.3624
1.50881
1.69247
1.10494
1.50064
1.38141
1.38612
1.37101
1.41524
1.63685
1.40001
1.28336
1.40001
1.3755
1.44646
1.67354
1.40069
1.22527
1.47668
1.36011
1.48763
1.47516
1.40001
1.52704
1.47565
1.51411
1.51263
1.36082
1.20702
1.3192
1.45196
1.25847
1.35252
1.36233
1.33403
1.40001
1.47082
1.46822
1.47509
1.40807
1.40001
1.30537
1.3349
1.19067
1.40001
1.87057
1.2183
1.40001
1.40001
1.40001
1.87547
1.40001
1.27439
1.63856
1.40001
1.40001
1.67562
1.32785
1.32937
1.35755
1.19737
1.5688
1.34011
1.40001
1.27537
1.34014
1.30477
1.30521
1.33575
1.20758
1.40001
1.32837
1.46935
1.40001
1.50313
1.20672
1.40001
1.55273
1.40001
1.4752
1.47841
1.31321
1.40001
1.33373
1.10414
1.33063
1.13371
1.40001
1.37596
1.40001
1.50717
1.23842
1.34339
1.32466
1.40001
1.41954
1.22006
1.21712
1.30281
1.40001
1.29638
1.43045
1.43376
1.22905
1.34051
1.40001
1.40001
1.40001
1.40001
1.37525
1.23733
1.23428
1.40001
1.32915
1.40001
1.40001
1.40001
1.32514
1.32307
1.40001
1.28447
1.32904
1.37859
1.28302
1.47448
1.32888
1.40001
1.49647
1.50209
1.40001
1.50027
1.28743
1.47384
1.34066
1.87308
1.16297
1.19521
1.2848
1.22632
1.28634
1.18273
1.49808
1.54395
1.4204
1.22144
1.22218
1.23588
1.45792
1.40001
1.40001
1.87302
1.51721
1.30705
1.27692
1.40001
1.27253
1.31079
1.78823
1.26062
1.27193
1.3854
1.33406
1.40001
1.37553
1.48455
1.40001
1.24828
1.45384
1.43651
1.82072
1.35489
1.32427
1.40001
1.30035
1.12409
1.40001
1.29166
1.27664
1.27694
1.31646
1.27698
1.67639
1.40001
1.23918
1.40106
1.40001
1.58712
1.40001
1.58442
1.37695
1.31891
1.55036
1.17769
1.55444
1.40001
1.79715
1.37373
1.19804
1.23833
1.29899
1.56853
1.27554
1.24349
1.55122
1.35427
1.236
1.48808
1.22084
1.36165
1.25834
1.39424
1.56071
1.51977
1.85723
1.56201
1.25528
1.40001
1.25343
1.40001
1.25294
1.29268
1.72814
1.38549
1.30762
1.40001
1.40001
1.40001
1.26142
1.40001
1.40001
1.40001
1.40001
1.42057
1.31335
1.59167
1.40001
1.45992
1.40001
1.67413
1.22854
1.28596
1.23094
1.24568
1.66179
1.65251
1.22139
1.36609
1.56871
1.54145
1.47434
1.50189
1.23484
1.39231
1.22734
1.30119
1.40001
1.77012
1.67407
1.33514
1.20689
1.28375
1.65804
1.29156
1.57356
1.29891
1.60286
1.37125
1.24188
1.45733
1.22458
1.36912
1.40001
1.26842
1.26395
1.28125
1.36444
1.36643
1.36136
1.29925
1.31779
1.24077
1.49758
1.88536
1.40001
1.24978
1.34533
1.40001
1.28994
1.40001
1.40001
1.40001
1.40001
1.32521
1.46977
1.49721
1.35115
1.39579
1.54751
1.31775
1.40001
1.36259
1.40001
1.40001
1.32407
1.21611
1.33237
1.30445
1.32403
1.34559
1.3492
1.34576
1.40001
1.34885
1.40001
1.40001
1.11518
1.51902
1.40714
1.30346
1.40001
1.50064
1.49634
1.40001
1.49798
1.25351
1.41966
1.30056
1.31201
1.31149
1.4745
1.50146
1.36556
1.27195
1.40001
1.54815
1.49731
1.40001
1.40001
1.40001
1.26187
1.35069
1.36477
0.988889
1.23007
1.49853
1.17823
1.50331
1.34521
1.41484
1.40001
1.40001
1.40001
1.40001
1.21053
1.40001
1.31365
1.46266
1.22303
1.40001
1.28132
1.36978
1.52496
1.39674
1.40001
1.40001
1.40001
1.40001
1.40001
1.40001
1.40001
1.40001
1.37641
1.37324
1.48442
1.47095
1.46796
1.22797
1.40001
1.40001
1.46339
1.36355
1.43107
1.40001
1.31697
1.49765
1.34779
1.40001
1.32878
1.46278
1.29668
1.40001
1.40001
1.40001
1.40001
1.27083
1.40001
1.50226
1.40001
1.35309
1.37624
1.0257
1.45412
1.31478
1.46317
1.23054
1.4957
1.23179
1.16331
1.41608
1.28309
1.29586
1.4969
1.09112
1.40001
1.66711
1.43223
1.3417
1.29322
1.3079
1.31233
1.45771
1.58778
1.40001
1.12151
1.681
1.32136
1.40001
1.34716
1.45458
1.40001
1.26219
1.16416
1.20286
1.40001
1.31388
1.40001
1.46293
1.21876
1.40001
1.40003
1.33893
1.3021
0.96465
1.24637
1.40001
1.24864
1.40001
1.40001
1.30736
1.31009
1.45089
1.26068
1.28956
1.25229
1.26801
1.08
1.25185
1.30377
1.30448
1.34127
1.51787
1.69103
1.87726
1.31373
1.31441
1.88221
1.24839
1.8235
1.4528
1.40001
1.40001
1.47308
1.4741
1.47297
1.47413
1.47501
1.47504
1.3266
1.26148
1.47549
1.47559
1.2817
1.317
1.31573
1.42667
1.33209
1.18872
1.33781
1.23265
1.03099
1.87016
0.957389
1.20713
1.21094
1.3548
1.21242
1.57725
1.30039
1.39969
1.31907
1.32757
1.23241
1.19501
1.31391
1.49883
1.31811
1.39145
1.30707
1.30676
1.38123
1.21534
1.21301
1.3632
1.3636
1.55997
1.24292
1.50618
1.53698
1.50204
1.3523
1.34076
1.27855
1.37788
1.37816
1.47931
1.47755
1.47954
1.478
1.47191
1.47317
1.46947
1.38427
1.56284
1.47376
1.38464
1.46795
1.47241
1.47005
1.46527
1.46836
1.36555
1.46347
1.32491
1.4658
1.46138
1.46379
1.34149
1.45849
1.46188
1.24896
1.45635
1.4589
1.45434
1.45696
1.22493
1.45102
1.45494
1.44886
1.45165
1.44654
1.44933
1.28079
1.44696
1.44312
1.57775
1.44353
1.44058
1.39228
1.28443
1.3044
1.44112
1.35954
1.40001
1.43807
1.27478
1.43859
1.36629
1.22182
1.45286
1.44359
1.23827
1.46792
1.29557
1.46822
1.31474
1.46346
1.25528
1.47507
1.40001
1.46404
1.66972
1.62387
1.40001
1.25495
1.24272
1.46106
1.40866
1.46117
1.40922
1.28983
1.5119
1.33828
1.45797
1.40001
1.50249
1.39406
1.45808
1.31836
1.75757
1.59245
1.28739
1.45484
1.45514
1.45197
1.21837
1.45207
1.21705
1.62567
1.44928
1.44991
1.40001
1.40001
1.44597
1.42028
1.28215
1.48787
1.44658
1.40001
1.40001
1.44259
1.42556
1.44307
1.42592
1.30656
1.40001
1.2942
1.16853
1.36359
1.3222
1.33811
1.46606
1.52587
1.44298
1.47039
1.40001
1.40001
1.44319
1.35872
1.37635
1.47192
1.38296
1.51717
1.33383
1.46091
1.2426
1.46076
1.24301
1.50173
1.49699
1.57249
1.27384
1.31554
1.49833
1.40582
1.46921
1.27928
1.38566
1.46904
1.38206
1.22165
1.49783
1.55989
1.30778
1.25068
1.24993
1.49732
1.38144
1.42109
1.26112
1.30887
1.40001
1.23246
1.26825
1.33769
1.29898
1.76245
1.1408
1.15077
1.33041
1.40001
1.15069
1.45143
1.34435
1.32415
1.34407
1.22594
1.68199
1.32744
1.43852
1.40001
1.31873
1.33716
1.00325
1.29353
1.28221
1.49369
1.52929
1.49367
1.23263
1.2446
1.23675
1.67216
1.2508
1.21378
1.40001
1.24329
1.51264
1.2758
1.45683
1.2821
1.28467
1.40153
1.66574
1.40544
1.50149
1.33466
1.50158
1.28264
1.40001
1.46473
1.27077
1.34271
1.30162
1.30615
1.33222
1.32497
1.49918
1.14098
1.14746
1.32861
1.21882
1.22881
1.13068
1.1201
1.2438
1.21492
1.39779
1.32691
1.16574
1.27957
1.31554
1.49408
1.18153
1.22121
1.14995
1.20658
1.22238
1.4285
1.1571
1.28239
1.31124
1.40585
1.33218
1.26252
1.24933
1.22951
1.33374
1.52145
1.29038
1.50547
1.51909
1.32051
1.46776
1.33434
1.23153
1.33393
1.33436
1.31074
1.60336
1.43656
1.20912
1.35004
1.48833
1.34074
1.51846
1.28833
1.46201
1.49834
1.29254
1.30487
1.22436
1.45138
1.25577
1.34533
1.24201
1.34432
1.22883
1.28906
1.57973
1.49697
1.3763
1.49641
1.26229
1.40964
1.3328
1.41074
1.40001
1.3284
1.27944
1.4963
1.2708
1.67471
1.49694
1.27716
1.19301
1.40768
1.27271
1.60387
1.34265
1.36147
1.35293
1.36911
1.1797
1.40001
1.36951
1.33627
1.25277
1.36377
1.33541
1.49658
1.33362
1.41192
1.24483
1.35194
1.36051
1.29961
1.3514
1.36215
1.23281
1.39122
1.61097
1.38869
1.36317
1.36206
1.33174
1.58488
1.32712
1.33157
1.5159
1.4342
1.40885
1.35315
1.48506
1.50154
1.53936
1.38973
1.33838
1.50792
1.34901
1.47786
1.88021
1.51319
1.57841
1.35645
1.63355
1.34128
1.34955
1.23717
1.40521
1.50048
1.40001
1.33941
1.23008
1.38834
1.3526
1.21758
1.49348
1.36253
1.50125
1.33217
1.35656
1.25922
1.27697
1.50885
1.49312
1.40001
1.84074
1.29363
1.46333
1.41728
1.37108
1.40001
1.50622
1.50599
1.40001
1.67515
1.32374
1.4074
1.40803
1.33161
1.51778
1.16882
1.15068
1.51744
1.40001
1.52658
1.28866
1.3096
1.49915
1.4991
1.52622
1.28911
1.21198
1.40716
1.27909
1.34453
1.67288
1.12293
1.46285
1.65349
1.58513
1.11711
1.49846
1.75193
1.1758
1.40001
1.33626
1.24953
1.3367
1.48636
1.50046
1.27654
1.35698
1.45204
1.31147
1.57228
1.49966
1.28692
1.40542
1.84772
1.69855
1.23522
1.33385
1.33801
1.34044
1.30697
1.49387
1.36202
1.49967
1.77357
1.40778
1.21291
1.2181
1.29778
1.38944
1.22384
1.22339
1.21753
1.49641
1.46321
1.34734
1.49652
1.29382
1.27814
1.28674
1.49993
1.25031
1.47541
1.40623
1.49919
1.38107
1.36733
1.46738
1.18041
1.31255
1.45595
1.41148
1.36154
1.46188
1.82382
1.25746
1.39967
1.28237
1.22143
1.40001
1.55156
1.19861
1.49406
1.30072
1.28707
1.50161
1.35129
1.2984
1.24221
1.88352
1.41339
1.41438
1.39218
1.40001
1.40001
1.32534
1.35532
1.49752
1.3769
1.22496
1.20933
1.37835
1.49642
1.40001
1.44224
1.4937
1.24683
1.29113
1.29568
1.49914
1.49849
1.37395
1.28359
1.48383
1.22996
1.30523
1.29545
1.50086
1.29252
1.48259
1.29944
1.4108
1.30066
1.3254
1.34568
1.30586
1.47559
1.30368
1.4833
1.33255
1.30773
1.36771
1.31475
1.3682
1.31741
1.40001
1.37526
1.31218
1.36451
1.32015
1.3759
1.35965
1.36541
1.32534
1.36657
1.35687
1.35674
1.52718
1.32528
1.36592
1.34465
1.26677
1.49931
1.36428
1.33281
1.34894
1.34523
1.35242
1.35299
1.33495
1.20697
1.33515
1.75856
1.21862
1.49945
1.41292
1.36113
1.34592
1.40001
1.3736
1.3406
1.34146
1.50349
1.258
1.35391
1.34627
1.35194
1.36022
1.35978
1.35109
1.35732
1.34786
1.41735
1.36045
1.34207
1.36519
1.36266
1.23459
1.39843
1.26087
1.37049
1.37453
1.35243
1.40001
1.35247
1.33415
1.37649
1.38024
1.33036
1.5491
1.3888
1.34892
1.26849
1.3832
1.38604
1.39062
1.26962
1.33559
1.51984
1.40001
1.28018
1.28646
1.25445
1.39448
1.35854
1.25048
1.39937
1.56206
1.40402
1.32178
1.46314
1.0666
1.35859
1.25847
1.40678
1.41103
1.38681
1.4978
1.25795
1.4142
1.3627
1.32839
1.23078
1.58099
1.30068
1.48715
1.48676
1.3849
1.42029
1.40001
1.44947
1.27443
1.28246
1.27894
1.42326
1.42755
1.40001
1.40001
1.43096
1.32967
1.35454
1.36966
1.40001
1.33072
1.36633
1.40001
1.36681
1.33514
1.3299
1.50165
1.35323
1.56466
1.43665
1.49749
1.48264
1.28495
1.42065
1.44123
1.44434
1.30624
1.29336
1.45972
1.46053
1.49555
1.46085
1.4493
1.35568
1.27408
1.23418
1.36235
1.3006
1.20959
1.45368
1.2288
1.36676
1.22147
1.44607
1.47117
1.49709
1.45056
1.2671
1.30263
1.28387
1.3249
1.27056
1.20682
1.45982
1.46148
1.38157
1.47278
1.21484
1.49568
1.2405
1.41714
1.39776
1.42225
1.40826
1.33086
1.33019
1.35048
1.20559
1.40001
1.32928
1.32845
1.33338
1.49714
1.46784
1.46959
1.4991
1.36398
1.51725
1.64563
1.49883
1.58821
1.38913
1.47612
1.24185
1.33724
1.28349
1.46117
1.50044
1.46136
1.53944
1.35735
1.33209
1.33067
1.51622
1.57991
1.46215
1.48004
1.31545
1.31929
1.32256
1.32913
1.23408
1.86788
1.40899
1.33075
1.58483
1.32179
1.40128
1.48061
1.49995
1.87666
1.48688
1.41131
1.30613
1.24321
1.34012
1.40001
1.2353
1.40001
1.40864
1.47224
1.32816
1.40001
1.49198
1.49029
1.51853
1.33156
1.35433
1.49499
1.24951
1.24898
1.82255
1.45456
1.34053
1.3298
1.35115
1.4113
1.49988
1.24807
1.33345
1.27797
1.2558
1.33823
1.34033
1.50295
1.25271
1.33533
1.36218
1.33676
1.32714
1.21521
1.39629
1.21619
1.21437
1.25756
1.40549
1.40572
1.50636
1.34179
1.22875
1.53023
1.33589
1.32357
1.41005
1.25512
1.40001
1.51182
1.40001
1.26313
1.40114
1.22922
1.50455
1.33402
1.2117
1.26507
1.40009
1.70215
1.19745
1.87323
1.32846
1.4125
1.46314
1.46348
1.77719
1.40089
1.49926
1.26347
1.23199
1.34342
1.29244
1.2713
1.29259
1.25787
1.50178
1.51803
1.3851
1.27286
1.33341
1.40001
1.40001
1.36578
1.26749
1.37294
1.27344
1.51847
1.31253
1.40001
1.45447
1.40429
1.51305
1.47878
1.23201
1.35622
1.39641
1.27499
1.40699
1.25158
1.21819
1.40001
1.21013
1.34569
1.24822
1.24394
1.40802
1.55824
1.52219
1.24291
1.58026
1.55665
1.2409
1.16909
1.34627
1.33868
1.58394
1.50644
1.27607
1.27693
1.40833
1.49742
1.40419
1.40803
1.25185
1.23283
1.33032
1.52378
1.43625
1.23813
1.49894
1.23973
1.53632
1.25602
1.44879
1.33608
1.41064
1.4975
1.30248
1.5355
1.42943
1.33623
1.41718
1.43138
1.34259
1.35868
1.50127
1.52778
1.45269
1.23522
1.40001
1.40001
1.22838
1.35329
1.40001
1.4386
1.40001
1.40781
1.34685
1.40001
1.36932
1.50104
1.40645
1.50105
1.39747
1.52871
1.30464
1.23214
1.36425
1.46203
1.24697
1.26577
1.69986
1.40001
1.4109
1.33248
1.27005
1.41334
1.3705
1.23867
1.2058
1.41443
1.52896
1.24845
1.2503
1.2511
1.248
1.3574
1.40001
1.23705
1.43453
1.23712
1.33649
1.35097
1.53064
1.31559
1.20309
1.71037
1.26369
1.28362
1.31371
1.45082
1.24366
1.40048
1.40245
1.431
1.25044
1.25108
1.46334
1.28834
1.25302
1.48461
1.26287
1.263
1.28954
1.40001
1.34869
1.40432
1.52931
1.34012
1.40001
1.27563
1.23581
1.36134
1.45419
1.47919
1.40001
1.54389
1.23191
1.40593
1.25052
1.25158
1.26107
1.40001
1.40001
1.28897
1.24564
1.32044
1.39182
1.3269
1.33576
1.40001
1.33321
1.28202
1.52859
1.32031
1.32553
1.30135
1.29517
1.40001
1.40001
1.32318
1.26693
1.40001
1.2896
1.26612
1.52938
1.50301
1.29982
1.40001
1.29785
1.3158
1.38163
1.27753
1.27591
1.47809
1.46287
1.40001
1.30765
1.52832
1.3405
1.40001
1.23233
1.31205
1.40001
1.39978
1.35793
1.20785
1.56719
1.50166
1.28329
1.22901
1.3038
1.40001
1.26428
1.31978
1.25548
1.51628
1.45985
1.26558
1.5811
1.32381
1.48042
1.34428
1.32526
1.32365
0.948827
1.20501
1.28245
1.52705
1.28075
1.15429
1.28894
1.33313
1.35673
1.39242
1.28749
1.47955
1.23243
1.32975
1.25126
1.27783
1.29158
1.47869
1.26137
1.47809
1.16728
1.47746
1.47598
1.48019
1.33877
1.29629
1.28805
1.28678
1.26804
1.32444
1.34039
1.29694
1.52598
1.26869
1.33559
1.40001
1.34213
1.20358
1.58215
1.40001
1.40305
1.3499
1.40098
1.30651
1.40001
1.34954
1.27082
1.30772
1.2354
1.4745
1.35652
1.42819
1.35805
1.26973
1.52317
1.40001
1.40899
1.27079
1.31881
1.40914
1.47576
1.47552
1.4754
1.32045
1.36969
1.32504
1.81652
1.82331
1.81585
1.40001
1.45189
1.32819
1.3727
1.32915
1.522
1.40001
1.40001
1.40004
1.33928
1.40001
1.22517
1.3026
1.33342
1.4633
1.46344
1.85646
1.31495
1.34705
1.46674
1.52022
1.34221
1.38966
1.35558
1.55426
1.40001
1.35168
1.3655
1.51838
1.393
1.4709
1.28424
1.36448
1.46316
1.49224
1.40001
1.35266
1.39876
1.42081
1.35665
1.51692
1.40001
1.49783
1.42097
1.40219
1.73582
1.21065
1.7784
1.36208
1.32281
1.32197
1.51445
1.49409
1.36675
1.51259
1.41641
1.2771
1.27822
1.37537
1.37045
1.51051
1.19665
1.25721
1.32541
1.32493
1.41273
1.38147
1.21099
1.47213
1.50834
1.3873
1.355
1.41623
1.41916
1.40221
1.405
1.47492
1.47469
1.41231
1.21228
1.41163
1.38725
1.27215
1.27169
1.46302
1.40498
1.3912
1.42936
1.20054
1.40077
1.39603
1.35782
1.40001
1.43568
1.1721
1.39949
1.341
1.40623
1.24958
1.42031
1.40001
1.38027
1.40324
1.35423
1.41199
1.34861
1.34825
1.5395
1.44717
1.33068
1.27851
1.41576
1.5569
1.4629
1.3305
1.27193
1.5131
1.5611
1.4563
1.45298
1.45285
1.34415
1.43717
1.2779
1.34329
1.49926
1.49508
1.51274
1.21751
1.40001
1.35992
1.42836
1.33957
1.51259
1.43264
1.29424
1.39651
1.31737
1.27872
1.50795
1.29444
1.54059
1.46218
1.36877
1.36807
1.45497
1.61773
1.78717
1.44475
1.38875
1.50533
1.4744
1.40001
1.45079
1.48022
1.46282
1.42712
1.32812
1.47898
1.40089
1.41025
1.34667
1.40001
1.28433
1.35251
1.40001
1.38398
1.38466
1.38382
1.34775
1.48567
1.33047
1.26759
1.23536
1.33152
1.25054
1.31857
1.33614
1.50631
1.47066
1.34259
1.45934
1.49845
1.37084
1.27566
1.20711
1.27397
1.26739
1.22775
1.46399
1.47752
1.48457
1.23974
1.25998
1.32233
1.3611
1.30345
1.35452
1.48782
1.48206
1.3702
1.46235
1.40355
1.44805
1.40393
1.2115
1.31975
1.2488
1.40644
1.4782
1.46026
1.23123
1.23418
1.24718
1.27179
1.40506
1.07615
1.3157
1.50088
1.25034
1.45883
1.50542
1.49612
1.31086
1.37248
1.25273
1.31138
1.34898
1.40964
1.31369
1.41791
1.41826
1.40001
1.4113
1.24401
1.46082
1.51177
1.46272
1.4156
1.41214
1.33986
1.38781
1.19667
1.24274
1.26398
1.26437
1.42032
1.40893
1.44886
1.5042
1.40001
1.42942
1.42963
1.30717
1.46145
1.56813
1.50891
1.49394
1.47638
1.41019
1.39991
1.31912
1.39994
1.45255
1.30307
1.38154
1.30336
1.49682
1.38924
1.39235
1.30666
1.42634
1.40001
1.45056
1.46285
1.46608
1.231
1.46479
1.46011
1.44467
1.44488
1.45655
1.43788
1.51265
1.4627
1.46683
1.46058
1.45591
1.45712
1.43754
1.44813
1.43941
1.27751
1.44419
1.4207
1.40001
1.43938
1.44543
1.44838
1.40001
1.39981
1.44476
1.22968
1.44599
1.25666
1.4962
1.23702
1.86916
1.46582
1.22909
1.42713
1.45311
1.50346
1.26042
1.35445
1.35399
1.52096
1.343
1.45369
1.34395
1.30825
1.43544
1.33094
1.33426
1.33882
1.33158
1.45766
1.50287
1.45796
1.32572
1.4606
1.4757
1.46102
1.5241
1.40476
1.28086
1.48146
1.42296
1.40008
1.32
1.40718
1.41195
1.46688
1.31211
1.33287
1.3137
1.31946
1.44765
1.46751
1.42803
1.51903
1.52798
1.40614
1.60988
1.31977
1.48383
1.47094
1.4715
1.47473
1.47469
1.33067
1.40825
1.52391
1.42241
1.42634
1.52816
1.40001
1.47457
1.40001
1.25389
1.21981
1.40001
1.36011
1.40001
1.46396
1.52517
1.27868
1.2543
1.49864
1.27202
1.52995
1.40516
1.32555
1.47853
1.37423
1.47906
1.32175
1.58138
1.33257
1.47566
1.40001
1.50033
1.37453
1.52801
1.39536
1.22737
1.42525
1.28218
1.40001
1.47552
1.4805
1.48082
1.33865
1.53102
1.47541
1.48092
1.48077
1.36502
1.40001
1.47531
1.21851
1.32453
1.33484
1.55815
1.43004
1.48937
1.32675
1.48948
1.53023
1.32866
1.40738
1.47797
1.52946
1.51824
1.42418
1.34775
1.52943
1.47085
1.40515
1.34176
1.46646
1.47652
1.52977
1.34062
1.31549
1.27317
1.53058
1.47247
1.31395
1.46592
1.29033
1.42819
1.27322
1.52838
1.46106
1.26503
1.46083
1.28268
1.47551
1.34015
1.53026
1.46004
1.47233
1.48252
1.333
1.47966
1.48713
1.48527
1.45189
1.50787
1.26614
1.48901
1.49144
1.47667
1.46291
1.47684
1.4858
1.48298
1.48306
1.48073
1.50728
1.49578
1.49435
1.48817
1.47326
1.23174
1.4898
1.46324
1.53803
1.4917
1.49314
1.41468
1.47415
1.3904
1.49386
1.46554
1.49517
1.32723
1.49651
1.5284
1.46896
1.46979
1.49129
1.29104
1.46022
1.49663
1.49724
1.33696
1.29212
1.39788
1.46593
1.4545
1.41056
1.50004
1.46234
1.52414
1.50008
1.21935
1.49996
1.46328
1.50055
1.50028
1.413
1.50033
1.45918
1.52293
1.46018
1.34471
1.45595
1.50076
1.50092
1.34402
1.50052
1.42671