/*--------------------------------*- C++ -*----------------------------------*\
  =========                 |
  \\      /  F ield         | OpenFOAM: The Open Source CFD Toolbox
   \\    /   O peration     | Website:  https://openfoam.org
    \\  /    A nd           | Version:  12
     \\/     M anipulation  |
\*---------------------------------------------------------------------------*/
FoamFile
{
    format      ascii;
    class       surfaceScalarField;
    location    "20.8";
    object      phi;
}
// * * * * * * * * * * * * * * * * * * * * * * * * * * * * * * * * * * * * * //

dimensions      [1 0 -1 0 0 0 0];

internalField   nonuniform List<scalar> 
19404
(
-0.000127317
-7.70004e-08
-0.000132809
-1.23781e-07
-0.000134075
3.52348e-07
-0.000133959
6.72202e-07
-0.000133565
6.73779e-07
-0.000132288
5.60184e-07
-0.000129722
4.42328e-07
-0.000128048
4.35614e-07
-0.000127676
3.79493e-07
-0.000127532
1.70419e-07
-0.000127523
-4.7706e-08
-0.00012793
-2.55128e-07
-0.000130348
-3.22401e-07
-0.00013496
1.10437e-09
-0.00013706
5.36362e-07
-0.00013727
8.5283e-07
-0.0001371
8.53895e-07
-0.000135661
6.9761e-07
-0.000132789
4.30436e-07
-0.00013179
3.96745e-07
-0.00013166
2.5848e-07
-0.000131586
-6.93292e-08
-0.000131617
-3.05993e-07
-0.000132039
-4.02626e-07
-0.000134019
-2.56574e-07
-0.000137916
1.51451e-07
-0.000140139
7.04111e-07
-0.000140548
9.89183e-07
-0.000140412
9.73171e-07
-0.000138966
7.56836e-07
-0.000136161
3.64147e-07
-0.000135325
3.34538e-07
-0.000135246
1.0755e-07
-0.000135217
-2.13876e-07
-0.000135283
-3.71021e-07
-0.000135773
-3.81945e-07
-0.000137903
-2.21447e-07
-0.000141486
3.60751e-07
-0.000143445
7.7539e-07
-0.000143938
9.58373e-07
-0.000143874
8.74091e-07
-0.000142561
6.66637e-07
-0.000139753
2.8189e-07
-0.000138632
2.74056e-07
-0.000138363
7.99861e-08
-0.000138303
5.45768e-08
-0.000138312
-1.92237e-08
-0.000138519
-1.36954e-07
-0.000140506
-1.24667e-07
-0.000144728
3.29172e-07
-0.000147018
6.38508e-07
-0.000147614
7.21275e-07
-0.000147576
6.50608e-07
-0.000146079
4.3773e-07
-0.000142534
1.36993e-07
-0.000140709
1.1279e-07
-0.000140273
1.76386e-07
-0.000140154
9.50932e-08
-0.000140187
1.97373e-09
-0.000140555
-1.74518e-07
-0.000144226
1.35432e-07
-0.000148935
6.83726e-08
-0.000150739
3.83616e-07
-0.000151175
8.30809e-07
-0.000151102
4.19506e-07
-0.000148682
3.33223e-07
-0.00014362
1.48465e-07
-0.000141113
4.90054e-08
-0.000140525
2.05298e-08
-0.000140497
-3.02502e-08
-0.000140625
-2.05829e-07
-0.000143253
-1.40971e-07
-0.000150078
1.74175e-07
-0.00015388
3.20274e-07
-0.000154827
3.39039e-07
-0.000154963
5.03391e-07
-0.00015377
6.09004e-07
-0.000148129
2.88186e-07
-0.000141329
-3.05785e-07
-0.000138496
-3.73917e-07
-0.000138159
2.95476e-07
-0.000138317
-9.17234e-07
-0.000142783
-3.82216e-07
-0.000151991
-4.46399e-07
-0.000155726
-9.3849e-08
-0.000156652
4.81843e-07
-0.000156883
7.23295e-07
-0.000155835
6.54485e-07
-0.000148314
3.47236e-07
-0.000136956
-7.55396e-07
-0.000130173
-1.56812e-06
-0.000129398
-1.07451e-06
-0.000130644
-1.76865e-06
-0.000141811
-2.28916e-06
-0.000150773
-2.93241e-06
-0.000151446
-5.34669e-06
-0.000147924
-6.12168e-06
-9.3842e-05
-2.88033e-05
2.74142e-05
-0.000135113
-2.75564e-08
-0.000137856
-4.76859e-07
-0.000139367
-1.11677e-07
-0.000139793
5.07484e-07
-0.000139784
7.80191e-07
-0.000139475
9.41535e-07
-0.00013759
1.02808e-06
-0.000136063
1.02673e-06
-0.000135667
7.43209e-07
-0.000135505
4.16518e-07
-0.000135411
1.13131e-07
-0.000135367
-1.98706e-07
-0.000136455
-3.88374e-07
-0.000139438
-2.39716e-07
-0.000141224
2.42691e-07
-0.000141713
7.76545e-07
-0.000141726
1.01276e-06
-0.00014142
1.09818e-06
-0.00013954
1.05687e-06
-0.000137964
9.20081e-07
-0.000137489
4.92783e-07
-0.000137327
-5.74742e-09
-0.000137222
-1.84852e-07
-0.000137167
-3.07367e-07
-0.000137744
-3.75538e-07
-0.000140606
-8.19112e-08
-0.000142816
5.72535e-07
-0.000143511
1.04582e-06
-0.000143587
1.1919e-06
-0.000143371
1.16168e-06
-0.00014148
1.02619e-06
-0.000139666
7.99062e-07
-0.000139067
1.50578e-07
-0.000138843
-1.8249e-07
-0.000138713
-2.96956e-07
-0.000138662
-3.68174e-07
-0.000139325
-3.99857e-07
-0.000142569
6.83696e-08
-0.000144934
8.30916e-07
-0.000145574
1.1956e-06
-0.000145624
1.19929e-06
-0.000145341
1.1145e-06
-0.0001431
9.256e-07
-0.000141222
5.4573e-07
-0.000140518
1.02449e-07
-0.000140068
6.82503e-09
-0.000139861
-4.00346e-09
-0.000139857
-9.99473e-08
-0.000141045
-1.71477e-07
-0.00014522
2.48164e-07
-0.000147561
8.31164e-07
-0.000148098
1.03128e-06
-0.000148157
1.03772e-06
-0.00014767
9.14514e-07
-0.000144443
7.33426e-07
-0.000141889
2.31467e-07
-0.000140983
1.13507e-08
-0.000140629
-5.86923e-08
-0.000140547
-6.00693e-08
-0.000140824
-1.70172e-07
-0.000144428
-7.52977e-08
-0.000149204
2.64313e-07
-0.000150868
6.08005e-07
-0.000151184
8.72679e-07
-0.000151193
9.14002e-07
-0.000149447
8.02601e-07
-0.000144345
6.28396e-07
-0.000141465
1.55067e-07
-0.000140731
-1.67538e-07
-0.000140624
-2.35189e-07
-0.000140754
-3.88687e-07
-0.00014345
-4.5061e-07
-0.00014975
-9.0119e-08
-0.000152906
4.04743e-07
-0.000153893
7.84218e-07
-0.000154074
9.64508e-07
-0.000153837
9.16474e-07
-0.000149
6.95757e-07
-0.000141861
-5.75158e-08
-0.000138825
-6.00209e-07
-0.000138364
-8.19005e-07
-0.000138453
-9.01552e-07
-0.00014111
-1.11448e-06
-0.000148771
-8.8145e-07
-0.000153595
2.9174e-08
-0.000155186
6.3491e-07
-0.000155617
6.99138e-07
-0.000155382
5.91558e-07
-0.000149361
5.85105e-07
-0.000138191
-5.44914e-07
-0.000130489
-2.29895e-06
-0.000127828
-3.57286e-06
-0.000127812
-4.28812e-06
-0.000132973
-5.12249e-06
-0.000139271
-6.64939e-06
-0.000139904
-1.01658e-05
-0.000137658
-1.13501e-05
-0.000108177
-3.63982e-05
4.00847e-05
-0.00013488
6.52262e-08
-0.000136572
-7.72149e-08
-0.000137788
9.73099e-08
-0.000138429
5.11542e-07
-0.000138529
8.91701e-07
-0.000138282
1.13571e-06
-0.000137284
1.22798e-06
-0.000136118
1.09778e-06
-0.000135671
6.19714e-07
-0.000135516
4.21187e-07
-0.000135355
1.99896e-07
-0.000135257
3.63466e-08
-0.000135762
-9.72271e-08
-0.000137964
9.56243e-08
-0.000139621
5.44357e-07
-0.000140392
8.46124e-07
-0.000140579
1.01481e-06
-0.000140454
1.13647e-06
-0.000139595
1.17061e-06
-0.000138325
7.61256e-07
-0.000137583
2.89331e-07
-0.00013711
9.07987e-08
-0.00013671
9.36578e-08
-0.000136534
1.77574e-07
-0.000136669
1.1897e-07
-0.000138759
2.86286e-07
-0.000141292
7.87061e-07
-0.000142467
9.45905e-07
-0.000142734
9.997e-07
-0.000142664
1.05051e-06
-0.000141767
1.0709e-06
-0.000140211
5.20088e-07
-0.000139177
1.3674e-07
-0.000138506
-8.47299e-08
-0.000137961
7.30885e-08
-0.00013777
2.1157e-07
-0.000137945
2.08085e-07
-0.00014061
4.29643e-07
-0.000143558
9.18591e-07
-0.000144635
1.11138e-06
-0.000144845
1.10257e-06
-0.000144754
1.05322e-06
-0.00014339
9.90564e-07
-0.000141167
3.33343e-07
-0.000140089
1.18225e-08
-0.000139524
6.43872e-09
-0.000139105
1.69588e-07
-0.000139013
3.36663e-07
-0.0001396
3.33586e-07
-0.000143418
5.84574e-07
-0.000146268
9.98796e-07
-0.00014713
1.14134e-06
-0.000147272
1.13805e-06
-0.0001471
9.81641e-07
-0.00014462
8.45578e-07
-0.000141554
2.31906e-07
-0.000140283
-1.46788e-07
-0.000139811
-1.41449e-07
-0.000139689
-2.73717e-08
-0.000139821
-1.5164e-08
-0.000142554
6.55618e-08
-0.000147251
5.32001e-07
-0.000149336
9.79648e-07
-0.000149848
1.15505e-06
-0.00014991
1.16437e-06
-0.00014902
1.05399e-06
-0.000144336
7.68248e-07
-0.000140678
-4.5763e-08
-0.000139523
-4.08464e-07
-0.000139272
-5.06975e-07
-0.000139358
-5.24413e-07
-0.000140917
-6.27336e-07
-0.000146566
-2.18739e-07
-0.00015042
6.12233e-07
-0.000151726
1.06567e-06
-0.000152071
1.17446e-06
-0.000152072
1.08327e-06
-0.000148551
9.02134e-07
-0.000140962
1.22488e-07
-0.000137214
-1.02484e-06
-0.000136262
-1.51538e-06
-0.000136267
-1.63385e-06
-0.000137043
-1.78254e-06
-0.000143263
-1.67724e-06
-0.000150123
-4.90798e-07
-0.000152463
4.12864e-07
-0.000152855
7.002e-07
-0.000152774
6.63032e-07
-0.000148185
5.20782e-07
-0.000137947
-4.47136e-07
-0.000129753
-2.58016e-06
-0.000125307
-5.11391e-06
-0.000124784
-6.65944e-06
-0.000126332
-7.67624e-06
-0.000131751
-1.01679e-05
-0.000133498
-1.46271e-05
-0.000132857
-1.6337e-05
-0.000114694
-3.80188e-05
4.72332e-05
-0.000134306
3.45578e-07
-0.000134758
6.68686e-07
-0.000135152
7.26636e-07
-0.00013579
8.41499e-07
-0.000136457
8.78488e-07
-0.000136725
9.65868e-07
-0.000136638
9.75005e-07
-0.000136261
8.62637e-07
-0.000135674
5.43454e-07
-0.000135179
3.87528e-07
-0.000134706
4.48759e-07
-0.00013436
4.62976e-07
-0.000134334
4.73037e-07
-0.000135444
6.91525e-07
-0.000137101
1.04316e-06
-0.000138324
9.47472e-07
-0.000139084
8.41775e-07
-0.000139321
7.98074e-07
-0.000139221
7.53562e-07
-0.000138699
6.27711e-07
-0.000137438
2.65177e-07
-0.000136182
3.44219e-07
-0.000135281
5.92891e-07
-0.000134868
7.69704e-07
-0.000134806
7.9993e-07
-0.000136313
8.36725e-07
-0.000139298
8.40269e-07
-0.000140864
7.51151e-07
-0.000141549
6.6887e-07
-0.000141701
6.40173e-07
-0.000141597
5.49745e-07
-0.000140491
4.26355e-07
-0.000138482
2.25624e-07
-0.000136909
4.56409e-07
-0.00013605
6.74455e-07
-0.000135769
8.14908e-07
-0.000135818
8.05196e-07
-0.000138167
7.9478e-07
-0.000141854
7.81204e-07
-0.000143361
7.94039e-07
-0.00014378
7.66516e-07
-0.00014381
6.87552e-07
-0.000143486
6.10046e-07
-0.000140916
4.31312e-07
-0.000138497
2.72784e-07
-0.000137409
4.37103e-07
-0.000136995
5.57015e-07
-0.000136913
6.48757e-07
-0.000137328
6.40894e-07
-0.000141026
6.92099e-07
-0.000144597
8.726e-07
-0.000145801
9.71735e-07
-0.000146022
9.33914e-07
-0.000146026
8.08433e-07
-0.000144687
7.10799e-07
-0.000140625
3.78078e-07
-0.000138414
1.68156e-07
-0.000137684
8.4455e-08
-0.000137454
1.14385e-07
-0.000137505
1.6123e-07
-0.000139265
1.84861e-07
-0.000144207
5.11258e-07
-0.000146962
1.00058e-06
-0.000147751
1.17053e-06
-0.000147884
1.17486e-06
-0.000147711
1.05733e-06
-0.000144112
8.23254e-07
-0.000139095
9.13683e-08
-0.000137144
-5.08637e-07
-0.000136589
-7.44174e-07
-0.000136542
-6.95915e-07
-0.000137083
-7.13751e-07
-0.000141833
-4.75677e-07
-0.000146679
3.86682e-07
-0.000148324
1.05383e-06
-0.000148746
1.2357e-06
-0.000148849
1.15673e-06
-0.000147393
9.4198e-07
-0.000140458
2.85368e-07
-0.000134632
-1.06807e-06
-0.00013283
-2.17827e-06
-0.000132621
-2.42885e-06
-0.00013275
-2.56534e-06
-0.000135842
-2.68252e-06
-0.000142642
-1.9434e-06
-0.000146163
-5.16446e-07
-0.000147055
2.85655e-07
-0.000147342
3.9391e-07
-0.000145334
2.23656e-07
-0.000137079
-6.48092e-07
-0.000128297
-3.0164e-06
-0.000122464
-5.86713e-06
-0.000119746
-8.65672e-06
-0.000119488
-1.03164e-05
-0.000122565
-1.27709e-05
-0.000125619
-1.75097e-05
-0.000127162
-1.96335e-05
-0.000119981
-3.50889e-05
4.90089e-05
-0.000132896
7.69599e-07
-0.000133328
1.40633e-06
-0.000133726
1.27412e-06
-0.000134263
1.10783e-06
-0.000134762
9.11725e-07
-0.000135072
7.62404e-07
-0.00013521
6.27189e-07
-0.000135095
4.37248e-07
-0.00013461
4.17193e-07
-0.00013353
5.49878e-07
-0.000132783
7.51484e-07
-0.000132475
9.46693e-07
-0.000132472
9.95829e-07
-0.000133992
1.18906e-06
-0.000135925
1.09581e-06
-0.000136999
9.1817e-07
-0.000137566
6.77628e-07
-0.00013783
5.32993e-07
-0.000137896
3.83623e-07
-0.000137625
2.79325e-07
-0.000135499
5.97368e-07
-0.000133811
9.1987e-07
-0.00013322
1.03458e-06
-0.000133051
1.09181e-06
-0.000133123
1.08248e-06
-0.000135353
1.02156e-06
-0.000138327
7.86634e-07
-0.000139504
6.06637e-07
-0.000139929
5.04732e-07
-0.000140039
3.89838e-07
-0.000140015
2.55347e-07
-0.00013884
4.06335e-07
-0.000135705
9.05808e-07
-0.000134335
1.05189e-06
-0.000133949
1.01503e-06
-0.000133864
9.81784e-07
-0.000134043
9.39628e-07
-0.000136742
8.36499e-07
-0.000140456
6.69477e-07
-0.000141739
5.97973e-07
-0.000141997
6.02952e-07
-0.000142031
5.8623e-07
-0.000141794
5.44756e-07
-0.000138937
7.2768e-07
-0.000135827
8.25969e-07
-0.000134877
6.71482e-07
-0.000134673
6.20904e-07
-0.00013466
5.70548e-07
-0.000135153
5.29617e-07
-0.000138887
5.47815e-07
-0.000142628
6.73953e-07
-0.000143706
8.29744e-07
-0.000143886
9.02584e-07
-0.000143918
9.26629e-07
-0.000142996
9.06447e-07
-0.000138629
9.19077e-07
-0.000135693
5.82161e-07
-0.000134923
1.05597e-07
-0.000134751
6.97373e-09
-0.00013477
-1.71187e-08
-0.000135911
-3.60492e-08
-0.000140726
1.85749e-07
-0.000143993
7.23816e-07
-0.000144903
1.08066e-06
-0.0001451
1.19189e-06
-0.000145107
1.15351e-06
-0.000143298
1.07189e-06
-0.000137543
5.31964e-07
-0.000134096
-2.23764e-07
-0.000133269
-8.86928e-07
-0.000133112
-1.03424e-06
-0.000133264
-1.04104e-06
-0.000136249
-9.80867e-07
-0.000142123
-2.56946e-07
-0.000144758
7.73763e-07
-0.000145387
1.18599e-06
-0.000145495
1.183e-06
-0.00014528
1.0037e-06
-0.000140718
6.67878e-07
-0.000132967
-8.32817e-07
-0.00012909
-1.9285e-06
-0.000128596
-3.07539e-06
-0.000128591
-3.65494e-06
-0.000129625
-3.85353e-06
-0.000135146
-3.63901e-06
-0.000140486
-2.33524e-06
-0.000142398
-1.00648e-06
-0.000142762
-4.11563e-07
-0.000142513
-2.97401e-07
-0.00013766
-6.7525e-07
-0.000129273
-2.76982e-06
-0.000121954
-6.1158e-06
-0.000117452
-9.28669e-06
-0.000116501
-1.16547e-05
-0.00011846
-1.46768e-05
-0.000122598
-1.88917e-05
-0.0001252
-2.16279e-05
-0.000121887
-3.28134e-05
4.91462e-05
-0.000131234
1.15593e-06
-0.000132041
1.98673e-06
-0.000132818
1.62834e-06
-0.000133383
1.28337e-06
-0.000133675
9.88596e-07
-0.000133775
6.99072e-07
-0.000133763
4.13791e-07
-0.00013352
8.50812e-08
-0.000132179
3.70752e-07
-0.000131006
7.80307e-07
-0.00013046
1.05243e-06
-0.000130284
1.24547e-06
-0.000130521
1.34183e-06
-0.000133106
1.48304e-06
-0.000135313
1.06124e-06
-0.000136112
9.23e-07
-0.000136419
7.23223e-07
-0.000136481
4.77843e-07
-0.000136363
1.84536e-07
-0.000134937
3.86814e-07
-0.000132282
1.04997e-06
-0.000131373
1.22232e-06
-0.000131146
1.14172e-06
-0.000131085
1.07729e-06
-0.00013158
1.06444e-06
-0.000134665
1.03484e-06
-0.000137507
8.29787e-07
-0.000138266
6.73288e-07
-0.000138398
6.17265e-07
-0.00013838
4.84523e-07
-0.00013799
5.03218e-07
-0.000135317
9.82589e-07
-0.000132859
1.2047e-06
-0.000132172
1.06206e-06
-0.000132059
9.53059e-07
-0.00013204
8.33833e-07
-0.000132563
7.66921e-07
-0.000135664
7.37376e-07
-0.000138854
7.00656e-07
-0.000139806
7.19263e-07
-0.000139987
7.94083e-07
-0.000139976
8.55338e-07
-0.000139478
9.55183e-07
-0.000136459
1.12853e-06
-0.000133485
8.75431e-07
-0.000132713
5.96437e-07
-0.000132584
3.85555e-07
-0.000132576
2.48415e-07
-0.000133198
2.019e-07
-0.000136786
3.01918e-07
-0.000140297
6.26448e-07
-0.000141303
1.00194e-06
-0.000141485
1.22062e-06
-0.000141461
1.38554e-06
-0.000140826
1.4692e-06
-0.000137119
1.39706e-06
-0.000133358
6.78449e-07
-0.00013233
3.40016e-08
-0.000132228
-3.48656e-07
-0.000132266
-5.1844e-07
-0.00013312
-5.70429e-07
-0.000137424
-3.02854e-07
-0.000141226
4.67127e-07
-0.000142316
1.1361e-06
-0.000142534
1.39035e-06
-0.000142599
1.46826e-06
-0.000141973
1.44979e-06
-0.000137326
1.23428e-06
-0.000132096
-6.39395e-08
-0.000130364
-7.3683e-07
-0.000130286
-1.3514e-06
-0.000130331
-1.63926e-06
-0.000131661
-1.71551e-06
-0.000137312
-1.24723e-06
-0.000141631
1.37217e-07
-0.00014276
1.10902e-06
-0.000142941
1.40728e-06
-0.000142972
1.35586e-06
-0.000140707
1.18391e-06
-0.000133504
1.38443e-07
-0.000127924
-1.88042e-06
-0.000125758
-3.28591e-06
-0.000125545
-4.44046e-06
-0.000125722
-4.98228e-06
-0.00012847
-5.22422e-06
-0.000134076
-4.55675e-06
-0.000137479
-3.04636e-06
-0.00013867
-1.93216e-06
-0.000138972
-1.52701e-06
-0.00013775
-1.32871e-06
-0.000131997
-2.51743e-06
-0.000124671
-5.3546e-06
-0.000118851
-9.19952e-06
-0.000115528
-1.23671e-05
-0.000115899
-1.46423e-05
-0.000120069
-1.9446e-05
-0.000123489
-2.30794e-05
-0.000123595
-3.06508e-05
4.83114e-05
-0.00013019
1.21439e-06
-0.000131911
2.17715e-06
-0.000132821
1.93665e-06
-0.000133225
1.44287e-06
-0.000133337
1.08431e-06
-0.000133266
7.33702e-07
-0.000133031
4.18117e-07
-0.000131025
3.4742e-07
-0.000128972
8.02871e-07
-0.000128375
9.76052e-07
-0.000128234
1.01424e-06
-0.000128295
1.12102e-06
-0.00012962
1.24436e-06
-0.000133234
1.4826e-06
-0.000135181
1.28065e-06
-0.00013559
1.06336e-06
-0.00013556
9.0103e-07
-0.00013546
6.41392e-07
-0.000134615
6.30613e-07
-0.00013139
1.19365e-06
-0.000129618
1.19194e-06
-0.000129247
1.04637e-06
-0.000129164
8.97514e-07
-0.000129274
7.45164e-07
-0.000130571
6.9442e-07
-0.000134371
9.06421e-07
-0.000136787
9.686e-07
-0.000137174
9.93653e-07
-0.000137144
1.00658e-06
-0.000136952
1.09767e-06
-0.000135633
1.41474e-06
-0.000132657
1.49556e-06
-0.000130672
1.17532e-06
-0.000130255
8.31317e-07
-0.000130187
5.74903e-07
-0.000130267
3.97636e-07
-0.000131206
2.84098e-07
-0.000134586
4.86539e-07
-0.000137336
8.08744e-07
-0.000138055
1.12636e-06
-0.000138161
1.32616e-06
-0.000138073
1.50616e-06
-0.000137566
1.6036e-06
-0.000135208
1.49203e-06
-0.000132029
7.80823e-07
-0.000130926
3.68771e-07
-0.000130838
1.40791e-08
-0.000130847
-1.95667e-07
-0.000131416
-2.82466e-07
-0.000134547
-1.7405e-08
-0.000137888
6.59271e-07
-0.000138962
1.36686e-06
-0.000139226
1.79541e-06
-0.000139226
1.98129e-06
-0.000139072
1.86344e-06
-0.000137113
1.58639e-06
-0.000132832
7.97251e-07
-0.000130713
-3.63549e-08
-0.000130405
-7.23019e-07
-0.000130437
-9.55174e-07
-0.000130793
-1.0478e-06
-0.000133875
-8.49628e-07
-0.000138403
2.13556e-07
-0.000140108
1.29562e-06
-0.000140448
1.80753e-06
-0.000140501
1.96289e-06
-0.000140401
1.85483e-06
-0.000137823
1.53772e-06
-0.000132199
4.8807e-07
-0.000129093
-8.41549e-07
-0.000128461
-1.8914e-06
-0.000128473
-2.18586e-06
-0.000128708
-2.31701e-06
-0.000132063
-2.21746e-06
-0.000137984
-9.30777e-07
-0.00014064
7.57175e-07
-0.000141126
1.53189e-06
-0.000141273
1.74711e-06
-0.000140733
1.66214e-06
-0.000136179
1.24965e-06
-0.000129466
-8.45909e-07
-0.000125257
-3.29366e-06
-0.000123788
-4.60806e-06
-0.000123791
-5.75917e-06
-0.000124294
-6.28343e-06
-0.000128029
-6.38511e-06
-0.000132759
-5.27638e-06
-0.000135483
-3.87189e-06
-0.000136613
-3.0848e-06
-0.000136905
-2.95947e-06
-0.000134878
-2.54286e-06
-0.000129498
-4.85532e-06
-0.000123067
-8.13638e-06
-0.000117377
-1.23847e-05
-0.000115189
-1.52756e-05
-0.000117696
-1.81514e-05
-0.000121841
-2.52758e-05
-0.00012568
-2.88169e-05
4.8015e-05
-0.000128973
9.01856e-07
-0.000132379
1.93659e-06
-0.000133393
1.84517e-06
-0.000133486
1.61981e-06
-0.000133377
1.29227e-06
-0.000133247
9.4116e-07
-0.000132088
7.01003e-07
-0.000128196
1.27886e-06
-0.000126541
1.26441e-06
-0.000126287
1.08729e-06
-0.000126204
9.08785e-07
-0.000126534
7.69987e-07
-0.000128976
7.3869e-07
-0.000133401
1.11126e-06
-0.000135184
1.25027e-06
-0.000135269
1.25608e-06
-0.000135175
1.20957e-06
-0.000134711
1.29354e-06
-0.000132435
1.72576e-06
-0.000129495
1.73004e-06
-0.000128124
1.21037e-06
-0.000127887
9.63573e-07
-0.000127814
6.15243e-07
-0.000127932
2.6395e-07
-0.000129678
1.75862e-09
-0.000133718
4.25335e-07
-0.00013569
9.79718e-07
-0.000135963
1.4357e-06
-0.000135878
1.74747e-06
-0.000135379
2.11066e-06
-0.000134416
2.162e-06
-0.000132394
1.62237e-06
-0.000130012
1.13951e-06
-0.000129174
7.10347e-07
-0.000129103
2.55763e-07
-0.000129079
-4.57327e-08
-0.000129699
-2.1339e-07
-0.000132772
4.33491e-08
-0.000135632
9.19895e-07
-0.000136478
1.61555e-06
-0.000136656
2.02558e-06
-0.000136636
2.15556e-06
-0.000136537
2.00035e-06
-0.000135313
1.73788e-06
-0.000132053
1.02071e-06
-0.000130215
2.06057e-07
-0.000129758
-3.90509e-07
-0.00012963
-5.03724e-07
-0.000129673
-4.57913e-07
-0.000131434
-2.81497e-07
-0.00013522
6.05891e-07
-0.000137093
1.66206e-06
-0.000137616
2.21156e-06
-0.000137865
2.29367e-06
-0.000137926
1.97669e-06
-0.000137517
1.62871e-06
-0.000133913
1.1223e-06
-0.000130617
-1.27942e-07
-0.000129451
-9.06353e-07
-0.00012908
-1.2063e-06
-0.000129028
-1.09139e-06
-0.000129952
-9.65436e-07
-0.000134652
-2.67214e-07
-0.00013815
1.18824e-06
-0.000139053
2.05344e-06
-0.000139256
2.29075e-06
-0.000139313
2.02648e-06
-0.000138786
1.63319e-06
-0.000134218
1.01713e-06
-0.000129601
-7.26936e-07
-0.000127498
-1.99297e-06
-0.000126931
-2.61247e-06
-0.000126912
-2.64419e-06
-0.000127619
-2.7196e-06
-0.000132659
-2.27257e-06
-0.000137751
-4.39985e-07
-0.000139662
1.21533e-06
-0.000140134
1.80379e-06
-0.000140288
1.80741e-06
-0.000139165
1.59335e-06
-0.000133166
7.34585e-07
-0.000127055
-1.92091e-06
-0.000123801
-4.48584e-06
-0.000122578
-5.85907e-06
-0.000122577
-6.77159e-06
-0.000123383
-7.28209e-06
-0.000127245
-7.12336e-06
-0.000131075
-6.02805e-06
-0.00013332
-5.00796e-06
-0.000134475
-4.70429e-06
-0.000134583
-4.86144e-06
-0.000132607
-4.82869e-06
-0.000128326
-7.86659e-06
-0.000122352
-1.12091e-05
-0.000116166
-1.5103e-05
-0.000115173
-1.77555e-05
-0.000119968
-2.54284e-05
-0.000127247
-2.80249e-05
4.84225e-05
-0.000127347
6.20186e-07
-0.000132534
1.09329e-06
-0.000133832
1.65032e-06
-0.000133832
1.54099e-06
-0.000133711
1.35094e-06
-0.000133222
1.28873e-06
-0.000130254
1.84502e-06
-0.000126958
1.99175e-06
-0.000125931
1.44203e-06
-0.000125772
1.13012e-06
-0.00012568
8.54061e-07
-0.00012579
5.98652e-07
-0.000128109
2.70428e-07
-0.00013279
3.66671e-07
-0.00013449
1.04262e-06
-0.000134595
1.44129e-06
-0.000134344
1.81185e-06
-0.000133285
2.31956e-06
-0.000131675
2.47545e-06
-0.000129494
1.8254e-06
-0.000128133
1.39788e-06
-0.000127749
8.65877e-07
-0.000127631
4.1298e-07
-0.000127582
-1.19337e-07
-0.000128199
-2.52479e-07
-0.000131314
-8.48962e-08
-0.0001338
1.02404e-06
-0.000134482
1.94103e-06
-0.000134545
2.46811e-06
-0.000134425
2.58574e-06
-0.000134304
2.41081e-06
-0.000132969
2.07903e-06
-0.000130579
1.2548e-06
-0.000129337
4.44717e-07
-0.000128805
-1.84053e-07
-0.000128546
-2.73976e-07
-0.00012849
-2.29154e-07
-0.000129616
-2.77634e-08
-0.000133124
7.79489e-07
-0.000135077
1.88486e-06
-0.000135708
2.37356e-06
-0.000136063
2.37249e-06
-0.000136147
1.99676e-06
-0.000135938
1.79505e-06
-0.00013349
1.3869e-06
-0.00013071
3.17535e-07
-0.00012925
-4.54019e-07
-0.000128399
-5.21343e-07
-0.000128082
-2.75973e-07
-0.000128328
-9.95974e-08
-0.000131623
2.73075e-07
-0.000135416
1.40497e-06
-0.000137038
2.19954e-06
-0.000137683
2.2958e-06
-0.000137861
1.9561e-06
-0.000137833
1.62821e-06
-0.000136012
1.29144e-06
-0.000131674
3.80495e-07
-0.000128944
-8.14158e-07
-0.000127585
-9.48019e-07
-0.000127156
-8.85108e-07
-0.000127228
-8.47886e-07
-0.000129859
-7.39933e-07
-0.00013544
3.05462e-07
-0.000138181
1.74544e-06
-0.000139011
2.2786e-06
-0.000139254
2.01943e-06
-0.000139267
1.70241e-06
-0.000137192
1.34229e-06
-0.000131346
2.86767e-07
-0.000127379
-1.62608e-06
-0.000125618
-2.61722e-06
-0.000125284
-2.77287e-06
-0.000125351
-3.04306e-06
-0.000127157
-3.16655e-06
-0.00013318
-2.29364e-06
-0.000137671
-9.94109e-08
-0.000139318
1.28242e-06
-0.000139746
1.62614e-06
-0.000139793
1.55642e-06
-0.000137725
1.15799e-06
-0.000131321
-1.45962e-07
-0.00012562
-2.9402e-06
-0.000122539
-5.4775e-06
-0.000121385
-6.79557e-06
-0.000121389
-7.42496e-06
-0.000122617
-8.12248e-06
-0.000126712
-8.01667e-06
-0.000130223
-7.14509e-06
-0.000132264
-6.66172e-06
-0.000133207
-6.82555e-06
-0.000133013
-7.04452e-06
-0.00013096
-8.02597e-06
-0.000127278
-1.10046e-05
-0.000121671
-1.39998e-05
-0.000116408
-1.7214e-05
-0.000116543
-2.55115e-05
-0.000128512
-2.81296e-05
4.96055e-05
-0.000126263
4.09213e-07
-0.000131697
3.24103e-07
-0.000133382
1.03472e-06
-0.000133437
1.46478e-06
-0.000133145
1.78232e-06
-0.000131728
2.28487e-06
-0.000129534
2.65253e-06
-0.000127216
2.15046e-06
-0.000126203
1.75008e-06
-0.000125995
1.22131e-06
-0.000125934
7.21458e-07
-0.000126294
9.52775e-08
-0.000127695
-2.86674e-07
-0.000130729
4.76258e-08
-0.000132566
9.10131e-07
-0.00013297
1.79858e-06
-0.000132719
2.52739e-06
-0.000132475
2.72475e-06
-0.000132055
2.58265e-06
-0.000130471
2.23282e-06
-0.00012896
1.44369e-06
-0.000128375
6.82382e-07
-0.000128113
7.32684e-08
-0.0001278
-1.51336e-07
-0.000127546
-1.48007e-08
-0.000127982
3.25204e-07
-0.000130792
1.01249e-06
-0.000132679
2.08353e-06
-0.000133671
2.69805e-06
-0.000134256
2.51412e-06
-0.000134332
2.28818e-06
-0.000134172
1.93364e-06
-0.000132435
1.48453e-06
-0.000130255
5.64702e-07
-0.000128797
-2.55493e-07
-0.000127624
-8.82454e-08
-0.000127042
2.46916e-07
-0.000127099
4.46841e-07
-0.000129659
6.67492e-07
-0.000133661
1.51047e-06
-0.000135488
2.25098e-06
-0.000136103
2.29804e-06
-0.000136202
2.0116e-06
-0.000136168
1.69654e-06
-0.000135298
1.43081e-06
-0.000131667
9.22928e-07
-0.000128587
-7.51527e-09
-0.000127032
-4.06403e-08
-0.000126577
7.48607e-09
-0.000126559
-3.97342e-08
-0.000128222
-3.21251e-08
-0.00013352
5.35158e-07
-0.000136824
1.67096e-06
-0.000137828
2.02546e-06
-0.000137961
1.84876e-06
-0.000137985
1.61705e-06
-0.000137402
1.35017e-06
-0.00013308
1.23368e-06
-0.000128378
1.61636e-07
-0.00012622
-5.00543e-07
-0.000125736
-6.41524e-07
-0.0001257
-9.24024e-07
-0.000126477
-1.10797e-06
-0.000131823
-8.0022e-07
-0.000137291
5.57648e-07
-0.000139085
1.81463e-06
-0.000139358
1.94924e-06
-0.00013942
1.7199e-06
-0.000138948
1.51937e-06
-0.000134223
1.53607e-06
-0.000128139
-1.50871e-07
-0.000125318
-2.08666e-06
-0.000124288
-2.79566e-06
-0.000124102
-3.32571e-06
-0.000124262
-3.54832e-06
-0.000127163
-3.66734e-06
-0.000133704
-2.68529e-06
-0.000137611
-4.41848e-07
-0.000138892
8.1601e-07
-0.000139188
1.07541e-06
-0.000139115
1.10292e-06
-0.000136387
4.02841e-07
-0.000129558
-6.82094e-07
-0.000123952
-3.49177e-06
-0.0001212
-6.17845e-06
-0.000120423
-7.50425e-06
-0.000120491
-8.59771e-06
-0.00012233
-9.27853e-06
-0.000126555
-9.18088e-06
-0.000129643
-8.53103e-06
-0.000131281
-8.40892e-06
-0.000131832
-8.7947e-06
-0.000131468
-9.31786e-06
-0.00012964
-1.12999e-05
-0.00012622
-1.36154e-05
-0.000120745
-1.64899e-05
-0.000116794
-2.34789e-05
-0.000128485
-2.93915e-05
5.17242e-05
-0.000126208
2.75319e-07
-0.00012948
9.50072e-08
-0.000131116
7.08343e-07
-0.00013146
1.63129e-06
-0.000131089
2.33755e-06
-0.000130534
2.61571e-06
-0.000129806
2.60809e-06
-0.000128522
2.40556e-06
-0.000127704
1.77832e-06
-0.000127363
1.06972e-06
-0.000127292
3.62832e-07
-0.00012714
3.91192e-08
-0.000127045
-1.50438e-07
-0.000127806
3.97644e-07
-0.000129549
1.21942e-06
-0.000130579
2.16339e-06
-0.000131481
2.67114e-06
-0.000132149
2.55307e-06
-0.000132234
2.3415e-06
-0.000132086
1.98193e-06
-0.000131077
1.53632e-06
-0.000129781
7.59893e-07
-0.000128534
2.33267e-07
-0.000127003
2.60119e-07
-0.000126199
7.70009e-07
-0.000126083
1.01202e-06
-0.000127472
1.1893e-06
-0.000131147
1.73963e-06
-0.000133533
2.37127e-06
-0.000134605
2.24991e-06
-0.000134797
1.89815e-06
-0.000134756
1.6172e-06
-0.000134313
1.34436e-06
-0.000131295
1.09161e-06
-0.000127912
5.05994e-07
-0.000126314
6.47394e-07
-0.000125939
6.81795e-07
-0.000125885
6.2611e-07
-0.00012708
5.98444e-07
-0.000132115
9.67721e-07
-0.000135506
1.67106e-06
-0.000136267
1.97521e-06
-0.000136296
1.85673e-06
-0.000136281
1.63781e-06
-0.000136035
1.47448e-06
-0.000132734
1.39055e-06
-0.000127884
1.11553e-06
-0.00012599
4.16054e-07
-0.000125693
1.78008e-07
-0.000125693
-1.23976e-07
-0.000126335
-3.69325e-07
-0.000131219
-4.30411e-07
-0.000136434
7.18041e-07
-0.000137817
1.69338e-06
-0.000137961
1.84653e-06
-0.000137974
1.77697e-06
-0.00013769
1.90306e-06
-0.000134548
2.06527e-06
-0.000128674
1.47259e-06
-0.000125936
-1.61453e-10
-0.000125123
-6.18104e-07
-0.000125103
-1.00005e-06
-0.000125223
-1.47122e-06
-0.000127987
-1.86866e-06
-0.000134881
-1.21753e-06
-0.000138471
8.114e-07
-0.000139107
1.79064e-06
-0.000139184
1.99864e-06
-0.000139102
2.19219e-06
-0.000137471
2.17443e-06
-0.000131386
1.89979e-06
-0.000126347
-5.74107e-07
-0.000124082
-2.63616e-06
-0.000123264
-3.42391e-06
-0.000123285
-3.89164e-06
-0.000123663
-4.52398e-06
-0.000127913
-4.84999e-06
-0.000134459
-3.21955e-06
-0.00013772
-8.03593e-07
-0.000138537
3.05422e-07
-0.000138649
6.50626e-07
-0.000138045
8.49306e-07
-0.000134466
3.39248e-07
-0.000128131
-1.32351e-06
-0.000123114
-4.41853e-06
-0.000120512
-7.18763e-06
-0.000119784
-8.70213e-06
-0.000119957
-9.94835e-06
-0.000122405
-1.05955e-05
-0.000126671
-1.03206e-05
-0.000129283
-9.76127e-06
-0.000130443
-9.80546e-06
-0.000130835
-1.03992e-05
-0.000130376
-1.1764e-05
-0.000128891
-1.38065e-05
-0.000125166
-1.59179e-05
-0.000119618
-2.10468e-05
-0.000127246
-3.03763e-05
5.38066e-05
-0.000126175
5.85275e-07
-0.000127378
5.50206e-07
-0.000128371
1.29506e-06
-0.000128921
2.09102e-06
-0.00012945
2.39578e-06
-0.000129951
2.38262e-06
-0.000129986
2.28753e-06
-0.000129918
1.94039e-06
-0.000129608
1.48873e-06
-0.000129115
8.37251e-07
-0.000128516
4.39619e-07
-0.000126975
3.13193e-07
-0.000125966
9.37376e-07
-0.000125817
1.2511e-06
-0.000126774
1.55423e-06
-0.000129143
2.08587e-06
-0.000131242
2.52024e-06
-0.000132541
2.28172e-06
-0.000132945
1.8766e-06
-0.000132913
1.54848e-06
-0.000132764
1.23775e-06
-0.000131065
1.02348e-06
-0.000127475
7.55593e-07
-0.000125586
1.27196e-06
-0.000125161
1.3168e-06
-0.000125072
1.29908e-06
-0.000125779
1.30061e-06
-0.000130313
1.31635e-06
-0.000134153
1.55681e-06
-0.000134971
1.71179e-06
-0.000134961
1.5996e-06
-0.0001349
1.47662e-06
-0.000134642
1.3047e-06
-0.000131681
1.43618e-06
-0.000126833
1.79788e-06
-0.00012547
1.25937e-06
-0.000125367
8.92738e-07
-0.000125351
5.95606e-07
-0.000126029
4.74404e-07
-0.000130552
2.53389e-07
-0.000135067
9.16128e-07
-0.000136161
1.59962e-06
-0.000136245
1.75929e-06
-0.000136197
1.7744e-06
-0.000135772
2.08014e-06
-0.000133213
2.28471e-06
-0.000128199
1.88556e-06
-0.000126029
8.88063e-07
-0.000125697
2.33258e-07
-0.000125689
-2.64808e-07
-0.000125858
-8.74999e-07
-0.000128544
-1.07586e-06
-0.000134638
-3.5548e-07
-0.00013711
1.24859e-06
-0.000137399
2.05339e-06
-0.00013729
2.50121e-06
-0.000136945
2.76231e-06
-0.00013572
2.75671e-06
-0.00013091
2.23994e-06
-0.000126734
6.46106e-07
-0.000125561
-7.55112e-07
-0.000125422
-1.60846e-06
-0.000125499
-2.33559e-06
-0.00012575
-2.52333e-06
-0.000129821
-2.60499e-06
-0.000135656
-6.90505e-07
-0.000137825
1.58174e-06
-0.00013826
2.48292e-06
-0.000138332
2.83289e-06
-0.000138254
2.87449e-06
-0.00013595
2.75823e-06
-0.000129504
1.33835e-06
-0.000125165
-1.60668e-06
-0.000123671
-3.44997e-06
-0.000123266
-4.46316e-06
-0.000123177
-5.12008e-06
-0.000123546
-5.33042e-06
-0.000127813
-5.27305e-06
-0.00013353
-3.42536e-06
-0.00013616
-1.06907e-06
-0.000136892
3.10937e-08
-0.000137022
2.66278e-07
-0.000136477
3.54337e-07
-0.000133355
-8.29358e-07
-0.000127605