/*--------------------------------*- C++ -*----------------------------------*\
  =========                 |
  \\      /  F ield         | OpenFOAM: The Open Source CFD Toolbox
   \\    /   O peration     | Website:  https://openfoam.org
    \\  /    A nd           | Version:  12
     \\/     M anipulation  |
\*---------------------------------------------------------------------------*/
FoamFile
{
    format      ascii;
    class       volScalarField;
    location    "4.7";
    object      T;
}
// * * * * * * * * * * * * * * * * * * * * * * * * * * * * * * * * * * * * * //

dimensions      [0 0 0 1 0 0 0];

internalField   nonuniform List<scalar> 
45568
(
1.40605
1.16503
1.35878
1.3097
1.04351
1.15918
1.24111
1
0.963032
1.31817
1.15485
1.4361
1.33885
1
0.968536
0.779747
1
1
1.0947
1.30632
1
1.36001
1.26708
1
1
1.16326
1
1
0.796179
1.3131
1.07106
1
0.99712
1.3136
1.26175
1.24873
1.04496
1
1.31298
1
1
0.78421
1
1.43901
1
1.57281
0.780936
1.4985
1.2891
1
1.50562
1.35457
1
1.27974
1.43931
1.35402
1.44162
1.3808
1.36583
1.11156
1
1.36867
1
1
1.41297
1.08057
1
1.09689
1.23622
1.51231
0.993186
0.883963
1.49909
1.32676
1.44533
1
1
1.18631
1.11378
1
1.36618
1.27581
0.879566
1.503
1.39063
1.00001
1.40672
1.13926
1.23666
0.960964
1.23637
1
1.31884
1.50454
1
1
1.51021
1.31749
1.10256
1.31309
1.02347
1.39122
1.60081
1
1
1
1
1.35694
1
1.49985
1
0.977469
1.29025
1
1.50374
1
1
1.59751
1.41841
1.28992
1
1.339
1.35403
1.35712
1
1.33793
1.52677
1.40002
1.57697
1
1.42345
1.46021
1.54912
1
0.787655
1
1
1
1.39043
1.39206
1
1.25282
1.34032
1
0.757248
1
1
1
1
1
1.18834
1
0.817879
1.10605
0.809124
1
1
1.10048
0.772991
1.41258
0.768031
1
1.38153
0.786288
0.900732
0.96497
1.24741
1
1.41163
1
0.779678
1
1.15829
1
1.42923
0.77523
0.769686
1.39841
1.41182
1.44238
1.42076
1.28094
0.782836
0.779322
1.17755
1.23291
1
0.969956
1.23894
0.785312
0.783731
1.31326
1.23823
1.17622
1.3127
1.02055
0.784129
1.12992
0.899829
0.78174
1.07445
1.29261
1.35984
1.6262
1.57867
1.36483
1.23558
1.25116
1.07047
1.41021
1.09728
1
1.38983
1
1.36065
0.783074
0.780301
1
1.30623
1.3645
1.34368
1.11815
1.32404
1.20268
1.43767
1.28339
0.78185
0.77941
1
1.23728
0.949972
1.30988
0.831146
1.4196
1.29599
1.13287
0.968741
1.16447
1
1.43063
0.75766
1.16645
1.42922
1.00001
1.16684
1.20106
1.36192
1.16985
1.18126
1.20116
1
1.1636
1.18568
1.54536
0.781183
1.1282
0.781484
0.778856
0.778364
1.16631
1
1.12963
1.1852
1
1.4785
1.12602
1.20559
1.24838
1.37782
0.782069
1.16849
0.780268
1
1.40365
1.62931
1.27108
1
1.21357
1
1
1
1.67625
1
0.895118
1.44974
1.31458
1.11581
1.08524
1.29761
1.11911
1.08075
1.44914
1.42764
1.31798
1
1
1.41061
1.31922
1.31746
1.29203
1.15684
1.27541
1
1.36305
1.3105
1.07042
1.10521
1.46167
1
1.26089
1.36065
1
1.37218
0.962248
0.970183
1.32232
1.376
1.16058
0.849941
1.39286
1.35917
1.44034
1.35882
1
1
1.30826
1.23809
1.28905
1.31727
1
1
1.40557
0.851165
1.27193
1
1.56961
1.67544
1.23434
1.40914
1.44288
1.66305
1.39522
1.36056
1.20877
1
1
1
1.02544
1
1.00035
1.28512
1.29491
1
0.934982
1.27087
1.35119
0.962506
1
1.35677
1.36636
1.64217
0.932471
1.30513
1.08624
1.07667
1.2824
1
1.31568
1.07434
1.44231
1.42153
1.37908
1.15274
1
1.26684
1.10295
1
1.34293
1.34654
0.984812
1.25876
1.2564
1
1.50126
0.780904
1
1.24232
1.30232
1
1.18391
1.30669
1
0.955513
1
0.788164
1
1.47602
1
1
1.13695
1
1
1.28474
1
1
1.42637
1
1
1.314
1
1
1
1.43144
1
0.962773
1.30524
1
1.33492
1.34211
1.45566
1.25571
1
1
1
0.958826
1
1.33763
1.32474
1.41437
1
1.57226
1
1
1
1
1.2986
1.08864
1
1
1.27542
0.78289
1.28043
1
1.3246
1.17134
1.23212
1
1
1.47042
1.34715
1.13885
1.24786
0.999997
0.983392
1.15925
1
1.08682
1.52628
1.32049
1.28902
1
1
1.26857
1
1
1.17299
1.37257
0.923859
0.792411
0.783546
1.09003
1.20107
1
0.878757
1
1.46456
1.36005
1.45768
1.4387
1.29732
1.35994
0.957831
1.00254
1.04196
1
1.35171
1.32876
1
1.2728
1.40641
1
1
1.28032
1
0.772169
1.2149
0.767021
1
1.29314
1.34021
1
1.31314
1.38755
1
1
1.3121
1.34286
1.3789
1.32935
1
1.30407
1.08839
1.32319
1
0.899001
1
1
0.795984
1
1
1
1
1.39407
1.24548
0.929041
1
1
0.984297
1.22658
1
1
1.35853
1.2295
1.34827
1.24535
1
1.24772
0.785801
1
1.17783
1
1.38722
1
1.24335
1.40802
1
1
0.943571
1.15844
1
1
1
0.785434
0.783643
1
1.64444
1
1
1.08943
1
1.3362
0.787279
1.08674
1.29719
1.24284
1
1
1.2577
1
1
1
0.99081
0.974018
1
1.27337
1.11685
0.948076
1.45804
1
0.757491
1.03892
1.27576
0.873679
1.19816
1.39752
1.26322
1.48259
1.04977
0.974455
1.13084
1.09096
1
1.42586
1.12948
1
1.49805
1.07477
1.24355
1.23147
1.4418
0.7838
0.929058
1
1
1.52109
0.781855
0.77934
1.50582
1.24137
1.42012
1
1.22307
1
0.956665
1.23055
1.12058
1.4056
1.08177
1.27247
1
1.24144
1
1.5702
1.33207
1.23572
1.47942
0.786247
1
1.16039
1.25735
1
1.31798
1.13849
1.26896
0.958167
1.35917
1.42737
1.32001
1
1.37735
1.66642
1.20245
1.25576
0.779797
1
1.60401
1
1.37243
1
1
1.22081
1.42726
1.50013
1
1.29316
1.12972
1.64694
1.34946
1.19938
1.32702
0.930927
1.08778
1.19279
1.1904
1.25554
1.6473
1.39258
1.19743
0.996798
1.07474
1
1.06843
0.994963
1.48483
1.239
1.45607
0.980417
1
1.6066
1
1.24814
1.23918
1.2834
1.15177
1.66508
1.17565
1
1
1.37624
1.17902
0.782256
1.32745
1.40142
1
1.40105
0.780041
1.17045
1.39028
1.11207
1.13168
1.43661
1
1
1
1.31314
1
1.31891
1
1
1
1.00001
1.38356
1.27936
1.1225
1
1
0.987782
1.27832
1.66882
0.986164
1.31363
1.24538
1.18885
1.43886
1.43002
1.47431
1.34479
1.00048
1.38713
1
1
1.25701
1.20752
1.31524
1.23747
1.04616
1.33548
1.16079
1.43692
1.36082
1.3365
1.15919
1.3918
1.24762
1.27551
1
1.12319
1.17075
1.43578
1.16868
1.12528
1.3499
1.10987
1.3659
1
1.37441
1.34141
1
1.10823
1.08543
1
1.29179
1.16034
1.48756
1.06062
1
1
1.07622
0.927566
1.27905
1.11336
1.1592
1.15847
1.23154
1.35896
1.32675
1.00849
0.889553
0.981868
1.22519
1.16032
1.04333
1.08615
1.23554
1.28036
1.17876
1.26232
1.43078
1.37071
1.30862
1.19468
1.54889
1.16997
1.0911
1.2613
1.38347
1.30793
1.24816
1.23641
1.18251
1.34923
1.44288
0.855191
1.32591
0.867007
1.48494
1.4114
1.22826
1.33124
1.11029
0.921321
1.16432
1.13033
1.2786
1
0.978725
1
1.04362
1.14195
1.26106
1
1.21097
1
1.63495
1.23813
1.35032
1.42212
1.35932
1.16991
1.15944
1.40448
1.27609
1.34804
1.56368
1
1.08736
1
1.36012
1
1
1.42475
1.23106
1.33421
1.34957
1.06066
1.17629
1.28057
1.11739
1.37226
1.34995
1.39473
1
1.31165
1.36575
1.17238
0.962815
0.962435
1
0.770436
1.28896
0.777369
1.36062
1.14104
1
1.20161
1.16595
1.40906
1.39211
1
1.19849
1.29811
1.13126
1.19724
1.23231
1.16531
1.1583
1.38667
1.24938
1.23075
1.2207
1.25372
1.33634
1.28635
1.16218
1.2671
1.16268
1.38681
1.36091
1
1
1.42224
1
1.33962
1.49257
0.901936
1.17308
0.767194
1.17037
1.25169
0.772321
1.22605
1.34139
1.10465
1.5511
1.6375
1.19099
1.10368
1.10772
1
0.950593
1.18035
1.10212
1.34489
1.26762
1.26394
1.0948
1
1.09362
1.34428
1.27653
1.25428
0.980165
1.28327
0.970936
1
1.02848
1.27971
1.24804
0.995041
1.05929
0.774423
0.778363
0.977978
1.17266
1.25212
0.957682
0.999785
1.27311
1.28334
0.978652
1.3252
1
1.15473
0.933111
0.772394
1.16722
1.195
1.31135
1
1
1.17952
1
1.24991
1.31469
1.16848
0.781834
0.784657
1.67345
1.35299
1
0.881301
1.28864
1.3353
0.967275
1.10468
1.04632
1
1.28683
0.994521
1.2528
1.01032
1
1.02195
0.994389
0.76168
1.01743
1.3403
1
1.17117
0.999999
1
1
0.997977
1.37029
1.16881
1
1
1.22685
1.03562
1.03906
1.31786
1.31054
1.30539
1.13609
1.13649
0.788524
1
1
1.27739
1.18704
0.782878
0.784852
1.1042
1.27784
1.27831
1.26557
1.11979
1
1
1.28145
1
0.7673
1.223
1
0.924287
1.2849
1
1.17391
1.20289
1.24417
1.16832
0.979721
1
1.60153
0.784286
1.36842
0.96594
1.41054
1
1.01387
1
1
0.948477
0.959666
1.54376
1.33355
1.21201
1
1.20173
1.10776
1.10429
1.27131
0.781288
0.786955
1.26131
1.11777
0.783483
1.22422
0.993966
1.21629
0.781331
1.12444
1.06738
1
1.25511
1.29803
1.09363
1.1086
1.24541
1.10275
1.09837
0.779386
1.40419
1.16126
0.996331
1.35153
1.08534
1.09054
1.11298
1.1414
0.782095
1.17403
1.29609
1
1
1.16817
1.32098
1.60321
1
1.24448
1.1613
1.34823
1.46872
1.30734
1.42658
1
1.12474
0.983913
1.14273
1.31974
1
1.00383
1.09295
0.976862
1.26583
1.23057
1
1.41349
1.02711
1.41213
1.34626
1.03902
1.24485
0.921318
1.03416
1.28243
1
0.999996
1.31334
1.10297
1.10588
1.07189
1.29074
1.26385
1.0694
1.31825
1.28337
1.09162
1
1.26204
1.38521
1.26824
1.16969
1.17326
1.11808
1.20309
0.970665
1
1.40349
0.943512
1.36273
1
1.10193
0.778637
1.42735
1.42152
1.19554
1.37148
1.03821
1.2478
1.32768
1.03672
1.31149
1.14015
1.10129
1
1
1.25523
1.37829
1
1.42344
1.3398
1.02643
1.08575
1
1.32266
1.02579
1.12083
1.25558
1.24374
1
1.11056
1
1.34557
1
0.974251
1.21647
1.25392
1.30075
1.20938
0.99315
1
1.02372
1.02617
0.781313
1.36042
1.21731
1.36959
1.47693
1.36892
1
1.37438
0.779196
1.37514
1.32038
1.27323
1.3621
1.29652
1.38355
1.38609
0.781081
0.961994
1
1.28848
1.26978
1.38226
1.28878
1.42943
1.38048
0.999976
1.16508
1.1471
1.37875
1.37996
1.23776
1
1.15352
1.13587
1.13217
1.1201
1.38236
1
1.3761
1
1
1.36772
1.17208
1.18565
1.14076
1.13759
1
1
1.30787
1.33154
1.09044
1.00516
1.27293
1.01197
1.01913
1.04131
0.950792
1.31702
1.04711
1.03382
1
0.984843
1.30917
1.32497
0.958596
0.778716
1.24355
1.04656
0.780432
1
1.06606
1.38326
1.11741
1.22062
1.29259
1
1.33765
1
1.22501
1.29171
1.14422
1.21263
1
0.997945
1.14079
1.00303
1.36083
1.13603
0.936332
1.20075
1.23672
1.35928
1
1.14702
1.1505
1.15987
1.15566
1.16519
1.16263
1.14045
1.25505
1
1.17212
1
1.16893
1.32843
1.29092
1.2139
1.28443
0.799216
1.38761
1.29605
1.29135
1.18086
1.1789
1.36267
1.26549
1.10584
0.782047
0.765841
1.1882
1.18696
1.20046
1
1
1.29206
1.13039
1.06139
1.1139
1.29009
1.36077
1.19924
1
1
0.926138
1.13046
1
1
1.40323
1
1.21033
1.20924
1.22305
1.22192
1.14383
1.11696
1.27637
1.36327
1.15793
1.18741
1.23703
1.23459
1.36061
1.15887
1.18301
0.77958
1.1609
1.05368
1
1.01842
1.07111
0.778949
1.34899
0.855883
0.782351
1.24115
1.35877
1
0.991169
1
1.32675
1.11284
1.35003
1.25905
0.941056
1.15508
1.30495
1.08214
1.36127
1.3967
1.31968
1.15958
1.32238
0.776149
1.36018
1.17773
1.23278
1.42455
1.34311
1.23679
1.35829
1.00016
1.20671
1.36073
1.11488
1.20893
1.3594
1.21008
1.54599
1.41239
1.36125
0.931469
1.12472
1.44565
1.2035
1.35937
1.26124
0.999983
1.3612
1.11958
1.20825
1
1.15743
1.13642
1.28986
1.46715
1.23893
1.11245
1.39651
1.2777
1
1.4757
1.03154
1.55464
1.36105
1.35979
1.47931
1.56735
0.940269
1.38932
1.36239
0.939166
1.33652
1.14199
1.49496
1.30894
1.16217
1.16278
1.36473
1
1
1.15501
1.29102
1.28759
1.36293
1.25421
1.36948
1.03412
1.46401
1.37135
1.24069
1.22372
1
1.5637
1.2588
1.5604
1.56265
1.28587
1.5593
1.6658
1.59913
1.11863
1.10446
1.61712
1
1
1.00001
1.39034
1
1
1
1.39457
1
1.22704
1.12133
1.31212
1.32611
1.30289
0.94584
1.26136
0.781266
1.58704
1.366
0.995833
0.990917
1.04908
1.23316
1.31632
1.01068
1.16668
1.23188
1
1.41449
0.979242
1.10267
1.16107
1
1
1.10355
1.16136
1.40124
1.35493
1.40904
1.4071
1.2391
1
1.39725
1.41863
1
1
1.41066
1.20092
0.981341
0.981659
1.09561
1.57648
1.10836
1.06221
1.24268
1
1
1.25912
1.32112
0.989086
1.11954
1
1.11972
1.26577
1.13763
1.41621
1.13715
1.1691
1.39183
1.12672
1.3284
1.22427
1.59666
1.23744
1
1.31522
1.36321
1
1
1.27477
1.35973
0.781817
1.44056
1.24944
1.26716
1.30536
1.18815
1.16912
1.30856
1.28092
1.3799
1.13808
1
1.19819
1.13368
1.35982
1.35572
1.25366
1.64356
1.64483
1.31673
1
1.35807
1.1987
1
1.09609
0.771585
1.164
1.23602
1.02376
1.24011
1.10273
1.28255
1.34727
0.938731
1.04963
1.35996
1.29155
1.03155
1.0298
0.8773
1
1.59911
1.13191
1.16313
1.23664
1.55214
0.769965
1.64334
1.28637
1.55424
1.10005
1.33966
1.34379
1.56198
0.990917
0.999998
1.22803
1.29026
0.871329
1.27292
1.25798
1.2299
1.1194
1.12053
1
1.16179
1.11169
1.28042
1.56792
1
1.57156
1.05772
1.3586
1.16558
1.26799
0.962704
1.18345
1
1
1.36196
1.32263
1.0157
1.15626
1.22668
1.15078
1.30963
1.42228
1.19441
1
1
1.19622
1.09607
1.24853
1.13741
1.08658
1.37285
1
1.12798
1.36903
1.36672
1.36473
1.11849
1.22883
1.47112
1
1
1.00616
1.25536
1.12938
1
1.15637
0.985451
1
1
1.70916
0.995861
1.15769
1.23928
1.37245
1
1
1.66371
1
1
1.22561
1
1.19789
1.1203
1
1.34652
1.19634
1
1
1
0.954651
1.40132
1.20311
1.3044
1
1.23303
1.308
1.35948
1.36404
1
1
0.985947
0.911227
1.13729
1.1552
1.45939
1.13099
1.0943
1.15658
1.40645
0.999806
1.33305
1
1.34544
1.33261
0.956724
1.33531
1.36474
1.34977
1.30196
1.33253
1.40778
1.28271
1
1.02396
1.39699
1.29458
1.41443
1.05215
1.15026
1.35902
1.425
0.800268
1
1.29617
1.21227
1.34952
1.05112
1
1.31318
1.47212
1.32578
1
1.12201
1.10277
1
1.28653
1.00001
0.78507
1.42143
1.34718
1.09961
1.35534
1.30572
1
1.10596
1.32118
1.14851
0.946703
1.34946
1.42477
1.25338
0.966095
1.2901
1.35975
1.12988
0.999268
1.10921
1.04704
1.36218
1
0.880271
1.11579
0.960979
1
1.29822
1.34224
1.10372
1.10362
1.1972
0.999976
1.15599
1.34545
1.49344
1.36164
1.12181
1.16503
1.28532
1.36308
1.26102
1.129
1.4533
1.39289
1.38055
1.06217
1.3613
1.27579
1.41064
1.3486
1
1
1.36255
1.39475
1.28733
1.03878
0.941318
1
1.28708
1
1.17409
1
1.17033
1
1.29241
1.14864
1.43472
1.41158
1
1
1.69262
1
0.992848
1.27566
1.6965
1.60594
1.37614
1
1.019
1.34816
1.02078
1
1.09708
1
1.27552
1
1.01472
1.35946
1.36347
1.33568
1.11051
1
1.29454
1.30035
0.999998
1
1.08499
1.22242
1
0.997677
1.34938
1.09378
1.26725
1.33717
1.34661
1.50461
1.05027
1
0.964217
1.12656
1
1.10889
1.36186
1.34992
0.966166
1.06799
1.12672
1.36223
1.27718
1.17591
1.03887
1.2474
1.55752
1.41763
0.999999
1.25132
1.35928
1
1.08482
1.08462
1.13916
1.15221
1.26985
1.31881
1.40525
1.44916
1.40898
1.08819
1.27198
1.31091
1.17122
1.03532
1.40942
1.4556
1
1
1.27277
0.964121
1
1.22685
1.38281
1.13088
1.24652
1
1.24867
1
1
1
1.23922
1.19643
1
1.05804
1.23552
1.21334
0.964538
1.41638
1.21617
1.37189
0.999992
1.49533
1.17142
1
0.971366
1
1.31239
1.17548
0.977349
1.46491
1.20146
1.35441
1.24334
1.19464
1.18085
1.07445
1.19912
1.18933
1.17214
1.19017
1.18493
1.35195
1.18885
1.27625
1.06488
1
1.34029
1.33449
1.28765
1.08664
1.34684
1.17443
1.17952
1.3519
1.33107
1.26868
1.33337
1
1.36467
1.00001
1.06025
1.34768
1.17596
1.17891
0.772581
1.36135
1.40117
1.35685
1.10143
1
1.09425
1.28658
1.34978
1.51573
1
1.35449
1.3579
1.35747
1.1226
1.63751
1.22139
1
1.351
1.09125
1.33923
1.23073
1.12006
1.35146
1
1.35229
1
1.26416
0.998245
1
1.26303
1.11181
1
1.36208
1.29372
1.45123
1.40249
1.64371
1.00002
1.142
1.20394
0.999999
1.40555
1.23173
1.23393
1.20482
1.34983
1.44337
1.36014
1.2156
1.20439
1.00044
1.67969
1.22193
0.931871
1.31366
1.17391
1.49298
1.26279
0.933927
1.15275
1.17149
1.0788
1
1.70143
1.50079
0.979176
1.28608
1.00003
1
1.17327
1.41178
1.13495
1.29619
1.37401
1.0482
1
1.12857
1.38468
0.800805
1.67244
1.29512
1.03549
1.00008
1.17009
1.56928
1.371
1.16268
1.03668
0.96514
1.1636
1.16401
1.51703
1
1.35911
0.920222
0.946166
1.09996
1.35011
1.43308
1.52235
1
1.24929
1
1
1
1.22918
1
1.11854
1.13383
1.01453
1.234
0.957849
1.13682
1.3962
1.15032
1
1.44295
0.994785
1
1.00352
1.17567
1
1
1
1.32326
1.5108
1.11633
1.41583
1.11698
1.22922
1.65404
1
1.35482
1
1.414
1.54427
1.09715
1.35155
1.2294
1.35017
1.09947
1.09861
1.32609
1
1.35042
1
1.40861
1
1
1
1.36166
1.36089
1
1
1.3953
1.19389
1.37787
1.41215
1.24904
1.29782
1.42154
1.03127
1
1.32944
1
1.02543
1.34816
1.0276
1.4143
1.38162
1.24698
1.19985
1.38101
1.19283
0.775125
1.35998
1.36402
1.18427
1.20509
1
1.1818
1.36265
1.58448
1.60185
1.3527
1.00325
1
1.18642
1.64917
1.24884
1.32191
1.33174
1.18908
1.00668
1
1.19306
1
1.35803
1
1.27777
1.34358
1
1.34444
1.17182
1.10816
1.34904
1.27935
1.36162
1
0.991654
0.996507
1.23117
1.31637
1.27131
1.27005
1.359
1.35938
1.1814
1.21521
1.12552
1.18359
1.33037
1.35944
1
1
1.18982
1
1.35106
1.21813
1.24903
1.21723
1
1
1.19008
1.19974
0.99632
1.13266
1.15327
1.19294
1.1873
1.25024
1.35934
1.33116
1
1.2109
1.13498
1.32747
1.21267
1.25175
1.36021
1.04079
1.17316
1.21482
1.24643
1.33253
0.941831
1.36158
1.27664
1.27709
1.1007
1.35692
1.35957
1
1.36094
1.24945
0.957219
1.30599
1.3111
1.31864
1.31509
1.18874
1.14518
1.30978
1.36653
1.32308
1.34999
0.789616
1.34729
1.2684
1.25865
1.27188
1.07477
0.972051
1.33613
1.45499
1.40924
1
1.39093
1.27268
1.27707
1.25217
1.1276
1.15781
1.16841
1.36213
1.1217
1.36373
1.3639
0.96588
1.17607
1.36257
1
1.07877
0.963218
0.955947
1
1.33519
0.954629
1.37266
1.37165
1.35514
1.33873
1.39344
1.00011
1.37939
1.37549
1.35244
0.972241
1.25469
0.948263
1.36032
1.38574
1.38429
1.36184
1.09919
1.09646
1.2435
0.974553
1.36149
1.16282
1.41835
1.28569
1.3646
1
1
1.37945
1.38326
0.77141
1.36125
0.898594
0.94943
1.56193
1.26205
1.22705
1.22503
1.13122
1.25814
1.36159
1.12011
1.11624
1.38604
0.997912
1.07118
1.26712
1.24071
1.13067
1.09043
1.35138
1.12819
1
0.999998
1
1
1.35557
1.06377
1.09452
1.24655
1
1.27236
1
1.34802
1
1.13964
1.1362
1.33078
1
1.34906
1.59729
1.00105
1.15674
1.08309
1.20123
1.19725
1.23152
1.001
1.15403
1
1
0.991683
1.14548
1.23842
1
0.988036
0.934568
1.53732
1.13129
1.16806
1.26236
1.07746
1
0.936192
1.11157
0.987482
1.51668
1.43005
1.31964
1.43315
1.12049
1.00011
1.1567
1.15784
1.26232
1.02037
1
1.14895
1
1
1.28708
1.01381
1.65315
1.15946
1
1.11249
1.17343
1.1206
1.29069
1
1
1
1.2924
1.69721
1.35641
1.01096
1
1.27517
1.18004
1.25724
1.32183
1.28618
1.19412
1.21134
1.19007
1.09919
1.00409
1.66339
1.1979
1.16347
1.35279
1.12773
1.26926
1.03985
1.27184
1.06537
1.34751
1.14781
1.28552
1.38437
1.00008
1
1.14603
1.34795
1
1.32102
1
1.1919
1.19049
1.23625
1.34047
1
1.05785
1.22593
1.10121
1
0.898004
0.997885
0.984295
0.994759
1.29504
1.51359
1
0.978754
1.08064
1.30568
0.972034
1.36176
1.27815
1.0262
1
1
1.50527
1.17162
1.27775
1.17024
1.22725
1.22675
1.33454
1
1.67824
1.2764
1.08992
0.948511
0.960278
1
1.49429
1
1.2756
0.897934
1
1.24513
1.27532
1.34687
1
1.3516
1.208
1.26592
1.17819
1.35121
0.999993
1.26188
1.34377
1.04641
1.22703
0.999999
1.19999
1.09255
1.03922
1.19776
1.2369
0.99998
1.24844
1
1
1
1.3491
1
1.25291
1.25094
1.10796
1.60797
1.40122
1.14459
1.3073
1.20653
1
1.25371
1.34911
1.34884
0.918221
1.33659
1.25427
1.67607
1.20119
1.34973
1.13538
1.06335
1.25187
1.34883
1.14058
0.999999
1.12201
1.34688
1.51833
1.07036
1.12089
1.12516
1.19223
1
1.33241
1.54754
1.28583
1.27748
1
1
1.30004
1
1.00009
1.35007
1.06495
1.00002
1
1.34845
1.13196
1.29202
1
1.31737
1
1.18037
1.18034
1
1.1812
1.17761
1.30973
1.08957
1.00005
1.48532
1.32201
1
1
1.18914
0.943979
1.13694
1
1.19463
1.19083
1.12983
1.68037
1.27823
1.13678
1.27733
1.11145
1.13083
1.38899
1.37585
1.25749
1.12407
1.23059
1.34501
1.27056
1.19064
1.09663
1.12645
1.2178
1.19286
0.897687
1.26548
1.42099
1.00021
1.34993
1.20101
1.35915
0.990967
1.20465
1
1.18008
1.17213
1.24153
1
1.2259
1.35361
0.998434
1.47588
1
1.16116
1.08143
1.30639
1.23773
1.36269
1
1.31391
1.14043
1
1.27869
0.981354
1.20777
1.66371
1.26122
1
1.21388
1.1994
1.21445
1.23541
1
0.990979
0.977563
1.4937
1.21717
0.781973
1.42615
1.55905
1.41113
1.35332
1.41565
1
1.00001
1.1819
1.43666
1.25358
1.20985
0.993881
0.987816
1.23062
1.17255
1.34793
1.41266
1.21925
1.00049
1.14311
1.00003
1.34708
1.30809
1.1411
1.00131
1.20002
1.34496
1.28669
1.22498
1.3407
0.99665
1.61988
1.19685
1.67513
1.24751
1.34641
1.18198
1.25579
1.34899
1.14544
1.29566
1.18602
1.18436
1.31261
1.02174
1.46985
1.19626
1.04054
1.21785
1.34748
1.20376
1.199
0.935742
1.28737
1.46169
0.98049
1.1176
1.09168
1.25623
1.17924
0.99996
1.16508
1.28934
0.998839
1.16364
0.988175
1.13571
1
1.09193
1
1.29099
1
0.990362
1.46399
0.983764
1
1.25777
1.24999
1.04537
1.22714
0.982769
1.10185
1.40134
0.986744
1.242
1.24467
1.0331
1
1
1.37589
1.24294
1.66871
1.22009
0.95476
1
1
0.986549
1.39613
1.16768
1.07848
1.33294
1.01177
1.46699
1.35315
1.06667
1.35414
1.34897
1.29963
1.28722
0.998607
1.27274
0.999999
1.27976
0.97154
1
1
1.14776
1.00001
1.28605
1.3108
1.33837
1
1.34101
1
1
1
0.999998
1.31848
1
1.08416
0.965074
1.09126
1.08709
1
0.997321
1.34456
1.12167
1.31256
0.974012
1.30324
1.34928
1.67788
1.00305
1
1.15786
1.2722
1.27464
1.01437
1
1
1.25494
1
1.48458
1.66822
1.34534
1.348
1.14284
1
1
1
1.34202
1.29508
1.43497
1.67269
1
1.30971
1.03928
1.23671
1.52574
1.33696
0.983373
1
1.04675
1.13219
1.34961
1.00951
1.29643
1.07233
1.21921
1.12278
1.35494
1
1.06387
1.00264
1.3492
1.07198
1.14885
0.983508
1.29339
1
1.06582
1.05838
1.52681
1.3017
1
1
1.02276
1
1.34056
1
1
1.13291
1.03516
1.1111
1.3536
1.16858
1.5194
1.17433
1.35138
1
1.0832
1
1
1.16013
1.66445
1
1.18914
1.0138
1.0588
1.66638
0.999908
1
1
0.769285
1.2026
1.30616
1
1.28236
1.05967
1.22381
1.17978
1.30983
1
1.35128
1.15349
1
1.14536
1.09779
1.18465
1
1.35085
1.10202
1
1.21079
1
1.32112
1.35004
1.33381
0.985727
1.24051
1.35038
0.958675
1.29874
1.23038
1.1685
1.00001
1.17593
1
1.23548
1.02963
1.09936
1.55879
1.32626
1.3125
1.06862
1
1.40431
0.960168
1
1.00002
1.04671
1.40973
1.00066
1
1.42213
1
1
0.944277
1.07485
1.53677
1.03835
1
1.36678
1
1.00003
0.968507
1.1567
1.66592
1.66241
1
1
1.00001
1.26892
1.05487
1.11339
1.2614
1.26446
1
1.14732
1
1
1.40783
1.14765
1.47944
1
1.31702
1
0.978201
1.00022
1.28352
1
1.34757
1.23989
1.13661
1
1
1
1.06653
1.11231
1
1.34914
1.13186
1.04395
1.0339
1.1903
1
1
0.999732
1.0141
1.12315
1
1.34885
1
1
1
1.46287
0.999999
1.27287
1.34528
1.26788
1.12782
1
1.61145
1.05307
1.32709
1.06821
1.00308
1.31263
1.39013
1.08014
1.34979
1.44814
1.46775
1
1.46026
0.981541
1.35176
1.19435
1
1.34883
1.4683
1
1.11271
1.47438
1
1.26208
1.24497
1.26173
1.04835
1
0.999565
1
1
1.00002
1.28377
1.59914
1.24529
1.14312
1.28384
1.36229
0.992116
1.14895
1.57555
1
1.47278
1
1.39024
1.0943
1.39305
1
1
1
1
0.997224
1.47886
1
1.03817
1
1
1
1.65065
1.21282
1.61091
1.58366
1.42924
1.00033
1.61277
1.39759
1.041
1.34985
1.40116
1.30109
1.16395
1.05383
1
1.38927
1.29672
0.878259
1.26708
1.33942
0.999995
1.40987
0.94639
1.36455
1.00005
1.64742
1.20218
1.3244
1.41414
1.34997
0.761222
1.38786
1
0.902752
1
1
1.33931
1.08488
1.22012
0.971101
1
1.40791
1.64618
1
1
1.25776
1.16129
1.31058
0.999902
1.00725
1.31741
1.35037
1
1.31886
1.21793
1
1.38295
0.994614
1
1.26155
0.905542
0.997252
1.2148
1.12869
1.52643
1
1.00712
1.35068
1.6729
1.12099
1
1.19162
1.34928
0.960402
1
1.53095
1.2904
1.13609
1.6291
0.998705
1
0.896554
1
1.35017
1.09424
1.08644
0.980765
1.36928
1.02532
1.03185
1
1
1.31631
1
1.34655
1.09576
0.954008
1.20094
1
0.897058
1
1.214
1.36142
1.17165
1.09417
0.767139
1.34995
1.29393
1
1
1.23287
1.21972
1
1.16684
1.64963
1.18118
1.39492
1
1
1
0.993806
1.34725
1.19475
1.1177
1.11513
1.25484
1.13106
1.37754
1
1
1
1.25849
0.977741
1.03233
1.34908
1.03981
1.04006
1.37795
1
1.26154
1.12693
1
1
1
1.68744
1.61703
1.29199
1.10511
1.30933
1.12942
1.34354
1.12704
1.65612
1
1
1
1.34754
1.13654
1
1.3774
1
1.28077
1.28814
1.35181
1.34927
1.34723
1.30121
1
1.35096
1.35526
1.31486
1
1.26772
1
1
1.56215
1.33655
1
1
1.09435
1.21458
1.37721
1.01412
1.34357
1.16884
1
1
1
1.25738
1
0.970532
1.57279
1.43029
1.28463
1.29008
1.34943
1.21947
1.2345
1
1
1.14337
1.34419
1
1.18297
1.19864
1.22772
1.34811
1.24353
1.25611
1.05742
1.16021
1.25582
1.21909
1.68822
1.36356
1.23822
1.2791
1.34976
1.34984
1.15185
1.1815
1
1
1.3498
1.29745
1.049
1.29155
1.35581
1.12609
1.2853
1.00001
1.17224
1.3283
1.34933
1
1.16634
1.16334
1.25423
1.14862
1.3494
1.66998
1.34917
1.67903
1.3499
1.29612
1.26561
1.23969
1.34917
1
1.16601
1.27529
1.35263
1.05571
1
1.35015
1.01136
0.755043
0.879718
1
1.00861
1.11479
1.3495
1.25683
1.12797
1.11547
1.3514
1
0.998924
1.57954
0.972679
1.15242
1
1.16214
1.22784
1
1.34928
1.31775
1.57803
1.18451
1.17254
1.20184
0.999996
1.25997
1
1.41404
1.34954
1.26157
1.04768
1.15442
1.24658
1.33527
1.17405
1.32795
1
1.28541
1
1.24848
1.23246
0.991516
1.22981
1.14758
1
1.16875
1.17299
1.1642
1
1
0.9952
1.31039
1.34974
1
1
1.13412
1
1.18769
1.33278
0.997717
1
1.10731
1
1.43849
1.14369
1.35292
1.19533
1.19597
1
1.12496
1.20508
1.1782
1.18507
1
1.08695
1.35115
1
1.12538
1.13872
0.979393
1.18069
1.13307
1.17909
1.35004
1.14484
1
1
1.00002
1.17808
1
1.20593
1.1634
1
1
1
1.00006
1.34751
1.06131
0.742912
1.34732
0.972273
1.59806
1.15961
0.956908
1.00724
1.07504
1.18692
1
1.14611
1.34901
1.23108
0.899181
1.34853
1.25612
1
1.29214
1.55467
1.34624
1
1.17327
1.17312
1.1797
1.14374
1.18709
1.14027
1.38071
1.35028
1.18894
1.31577
1.47043
1.35093
1.16176
1.38395
1
1.25046
1.21793
1
1
1
0.938331
1
1
1.16776
1
1
1.34974
1
1.14977
1.34985
1
1
0.998439
1
1.3766
1.34963
1.17462
0.958295
1.34998
1.322
1.39163
1
1
1.31751
1.34
1
0.969144
1.08514
1.1673
0.965378
0.959725
1.12035
0.961862
0.999136
1.06301
1.34959
1.34952
0.989657
0.959377
1.34994
1
1
1.27426
1
1.15179
1
1.35005
1.15794
1.15769
1
1
1.12408
1.35453
1.42402
1.3495
1.00033
1.33833
1.19875
1
1.15056
1
1.3503
1
1.00711
0.963976
1
1
1
1.30279
1.24019
1
1
1.12012
0.995743
1.32692
1.12044
1
1.16643
0.938619
0.973771
0.999999
1
1.34879
1.32766
1.26963
1
1.12779
1.3257
1.4109
1.34992
1.21643
1.35424
1
1.03738
1
1.65645
1.20156
1.34968
1.28881
1.34843
0.964735
1
1
0.946172
0.999999
1
1.35059
0.960829
0.950662
1.26904
1
1.00063
1
1.33563
1.30395
1
1
1.21991
1
1.13201
0.908063
1.1448
0.93493
1.41961
1.62882
1.053
1.34486
1.07175
1
1.66035
1
1.34858
1.34906
0.947835
1
1
1.34634
1.23363
1.0071
1
0.748233
1.28252
1.2092
1.00195
1.34355
1.30585
1
1.12897
1.24332
0.990493
1.39226
1.28073
1
1
1.00131
1.15944
1.42043
1.3494
1.35156
1.34073
1.01961
1.25867
1.3501
1.28595
1.33522
1.27251
1
1.00033
1
0.999997
1.02516
0.912319
1.36401
1.19916
1
1.31056
1.22993
1.15942
1.16041
1.16786
1
1.22159
1.58754
1
1
1.07301
1.34915
1.31942
1
1
1
1
1.69343
1.11152
1.3463
1.39674
1.27877
1
0.999999
1.34915
1.34951
1.2246
1.07704
1.347
1
1.37422
1
1
1.00008
1
1.05516
1.39608
1
1.19797
1
1.35141
1.23343
1.33882
1.00075
1.00007
1
0.898772
1.05237
1
1.37131
1.34779
1
1.22604
1.20595
1.52323
1
1.33676
1
1.00003
1.13148
1.13201
0.997918
1.24852
1
0.992168
0.999061
1.35147
1.32792
1
1.35138
1.02453
1
0.755542
1.33006
1.04017
0.884375
1.37342
1
1.23891
1
1
1
1.3485
1.46519
1
0.999658
1.0714
1.39724
1.27302
1
0.904493
1.34977
1
0.994686
1.50963
1.26665
1
1.26267
1.17649
1
1
1
1
1.37234
1.15669
0.901083
0.999819
1.46706
1.07658
1.35478
1.5118
1
1
1
1.23959
1
1.4325
1.40298
1.34531
1.23341
0.76466
0.835517
1.11164
0.923405
0.761186
1
1.57598
1.53486
1.30733
1
1
1.26078
1.35078
1.0322
1.32592
1.36831
1.3344
1.36077
1.32508
1.35112
1.03046
1.12808
1
1
1
1.33104
0.995977
1
1.13427
0.988205
1.03
1.30313
1
1.33042
0.995366
1.48412
1
1
0.839979
1.11193
0.935491
1
1.34929
1.34689
0.926653
1.34925
1.34728
1.30662
1.34701
1.34902
1
1
1
1
0.795186
1
1.18539
1.00822
0.750315
1.34929
0.970717
1.14783
1.30064
1.06111
1.13469
1
1.02077
1
0.985576
1.35012
1.35183
1.50955
0.914922
1
1
1
0.899558
1.39558
1
1
1
1
1.36809
1
1
0.765311
1
1
1
1
0.858339
1
1.43086
1.24818
1.04885
1
1
1
1.08941
1.32227
1
1
1.40071
1.46767
1
0.775111
0.748595
1
1
1
1.17262
1.41889
1.14155
1.00704
1
1
1
1.19865
0.980571
1.19758
1.34969
1.34938
1
1
1.37792
1
1.09566
1.3515
0.98799
1.35066
1.53608
1.09843
1.3525
1.46234
1
0.951608
0.815342
1
0.983631
1
1.34422
1.05844
1
0.905206
0.888393
1
1
1
0.998542
1.00431
1.34765
1
1
1
0.982922
1
1.05752
1
1
0.781138
1
1
1
1.43649
1.26417
1
0.754825
1.19617
0.758795
1
1.3521
1.32274
1.49293
1.02506
1.26475
1.19387
1.01425
0.900853
0.996366
0.767598
1.33237
1.43528
1.54924
0.765106
1.37671
1
1
1
1.49782
1.34376
1
1
0.940744
1.26265
1.06005
1.30542
1.18806
1.18342
1.30495
1
0.778605
1.34997
1.07143
1.28431
0.938647
1.52903
0.992221
1.35456
1.45633
1
1.35235
1
1.34923
1.35048
1.12999
1.30932
1.31601
1
1.34821
1
1
1
0.985678
1
1.34952
1
1.01394
1
1.20564
1
1.00134
1
1.3359
1
1
1
1.00005
1.56342
1
1.28887
1.35003
1.35403
1
1.36502
1
1
1.24732
1.34789
1.64698
0.765775
0.745456
1
1.18755
1
1.42293
0.899274
1.34922
0.767966
1.33036
1.23418
1.18632
1.34985
1.29231
1.00024
0.994205
1.21765
1.00219
0.818193
1.02069
1
1
1.44763
0.97933
1
1.32154
0.733795
1
1
1
1.34361
1.5947
1.35037
1.24379
1
1.34819
1.23219
0.997965
1.35176
0.992801
1.07483
1.02374
1.05516
1
1.71207
1.00213
1.15689
0.993179
1
1
1.00004
1.34907
1
1.34945
1.03623
0.95133
0.770005
1.20751
1.01634
0.760366
1.02443
1
1.05681
1.05297
1.45015
1.05369
1
1.34941
1.22458
1.38756
1.19741
1.01743
0.822372
1.35587
1
1
1.05667
1.1644
1.11065
1.65136
1
1
0.998055
0.769699
1.18294
1
1.34878
1.10575
1.34924
1
1.49225
1
1
0.864553
1
1
1.34845
1
1
1
1.11698
1
1.26119
1.27041
1.1637
1.29867
1.14587
1.30292
1.34985
1.35154
1.44271
1.01024
1.16074
1.22347
1.20321
1
1.22281
1.04971
1.3436
1.34992
1.18163
1.05168
1.15326
0.764594
0.97806
1.34969
1
0.748546
1.26421
0.99448
1
1
1
0.751645
1.28532
1.03008
1
1.21541
1.22119
1.32017
1
1.14924
1.22393
1.35007
1.05449
1.15796
1.21447
1.22923
1.26434
1.35296
1.35054
1.20731
0.775982
1.22935
1
1
1.34943
1
0.978206
1
1
1.34553
1.34955
1.26514
1
1
1.377
1.0043
0.989922
1
1.01578
1.29746
1
1.01743
1.00806
1.02318
1.29359
1.38719
1
1
1
1.01265
1.34946
1.37814
0.97633
1.67958
1.41422
1.24604
0.969565
0.881109
1
0.913401
1.1522
1.11734
0.765562
1.48455
1.43591
1
1.16734
1.26882
0.856533
1.34808
0.893141
1.34948
1.15997
0.741408
1
1.34928
0.895724
1.67924
1.37058
1.01816
1
1.50224
1.285
1.16045
1
1
1.35407
1.01302
1.10182
1.34418
1.37416
1.51068
1.1484
1.18204
1.01002
1.42073
1.00014
0.941536
1.34952
1
1
1.26859
1.24454
1.66643
1
0.750142
1.15367
1.25067
1
1.35035
1.66578
1
1.33834
0.835203
1.18731
0.814414
1.67728
1
1
1
1
1
1.66795
1
1.18733
1
1.23234
0.74235
0.742139
1.47663
1.24659
0.758151
1.25912
1.16733
1.1616
1
1.40624
1.15462
1.02098
1.68066
1
1.34945
1.21236
0.754185
0.795608
1
1
1.01835
1.18663
1.67627
0.778735
1.02178
1.16786
1
1.46661
0.756388
1
1.34977
1.17947
1
1
1.42472
1
1.34773
1
0.767943
1
1
1.16121
0.985067
1
0.995461
1.34855
1
1
1.03297
1
1
1.33733
0.946541
1.31482
1
1.27012
1.0067
1.34853
1.35028
1
1.35464
1.34295
1.16198
1
1
1.20497
1.50393
0.75457
0.995777
1.39419
1.08823
1.34958
0.992313
0.75336
0.981739
1
1
1.12376
1.33326
1.64413
1.0766
0.894823
1.60581
0.762562
0.771661
1
0.984603
0.758788
1.34834
1.39402
1.06258
1
1
1.25271
1
1.33289
0.982712
1
1
0.750498
1.01833
1
1.34825
1
1.15379
0.758731
1
1.18081
1
1
0.829618
1.34877
0.885215
1.34066
0.755081
1.34938
1.35815
1.19276
1.13912
1.34933
1
1.35692
1
0.942552
1.02759
1
0.995957
1.18685
0.747136
1.03959
1.35165
1.2428
0.885116
1
0.75809
1.34773
0.7715
1.13522
1.35268
0.988449
1.18697
1.04263
0.989216
0.74253
0.984012
1.35139
1
1.34906
0.744166
1.00001
0.979714
1.37123
1.27887
1.35354
1.12519
1.53478
1.26292
0.89235
1
1
1
0.905438
1.15006
1
0.991297
0.759582
1.16274
0.949409
1.35306
1
1
1
1
0.847047
1.24305