/*--------------------------------*- C++ -*----------------------------------*\
  =========                 |
  \\      /  F ield         | OpenFOAM: The Open Source CFD Toolbox
   \\    /   O peration     | Website:  https://openfoam.org
    \\  /    A nd           | Version:  12
     \\/     M anipulation  |
\*---------------------------------------------------------------------------*/
FoamFile
{
    format      ascii;
    class       surfaceScalarField;
    location    "21.1";
    object      phi;
}
// * * * * * * * * * * * * * * * * * * * * * * * * * * * * * * * * * * * * * //

dimensions      [1 0 -1 0 0 0 0];

internalField   nonuniform List<scalar> 
19404
(
-0.000134553
4.13495e-07
-0.0001343
1.45364e-06
-0.000133499
1.41063e-06
-0.00013068
1.23512e-06
-0.000126864
7.28772e-07
-0.000126285
3.6962e-07
-0.00012632
-1.15732e-07
-0.000127322
-1.00703e-06
-0.000128941
-1.04759e-06
-0.000131334
-5.7437e-07
-0.000134304
-2.30791e-07
-0.000135251
6.53539e-07
-0.00013504
1.45089e-06
-0.000134318
1.53425e-06
-0.000132107
1.37884e-06
-0.000130504
9.78815e-07
-0.000130417
4.06179e-07
-0.000130745
-5.20421e-07
-0.000133398
-1.30209e-06
-0.0001359
-8.76742e-07
-0.000136397
-4.78023e-08
-0.00013623
1.84449e-07
-0.000135626
6.98398e-07
-0.000135119
1.11798e-06
-0.000134698
1.29471e-06
-0.000134373
1.21923e-06
-0.000134307
9.5063e-07
-0.000134386
3.38792e-07
-0.000135261
-5.22296e-07
-0.000137414
-1.04623e-06
-0.000139868
-1.04019e-06
-0.000140019
-2.59591e-07
-0.000139458
4.73711e-07
-0.000137805
6.30798e-07
-0.00013678
1.05395e-06
-0.000136531
1.14009e-06
-0.000136494
1.06324e-06
-0.000137418
7.69825e-07
-0.000139374
4.71216e-07
-0.000140496
2.20442e-07
-0.000141178
-2.38882e-07
-0.000141852
-5.45612e-07
-0.000142276
-8.38515e-07
-0.000141657
-4.28157e-07
-0.000140059
2.62973e-07
-0.000139194
5.29811e-07
-0.000138942
7.19765e-07
-0.000138948
7.32565e-07
-0.000139839
5.89552e-07
-0.000143722
5.10494e-07
-0.000145997
5.35901e-07
-0.000146631
4.50886e-07
-0.000146555
2.25749e-07
-0.000145652
-1.18799e-07
-0.000144223
-6.01311e-07
-0.000142395
-5.8013e-07
-0.000141151
4.57012e-09
-0.00014064
3.13688e-07
-0.00014056
4.67487e-07
-0.000140688
3.96448e-07
-0.000143563
3.56411e-07
-0.000148455
3.84281e-07
-0.000150517
5.10536e-07
-0.00015101
5.2708e-07
-0.000150883
3.22782e-07
-0.000148676
-1.10017e-07
-0.000145033
-7.1346e-07
-0.000142206
-5.87727e-07
-0.000141108
-2.12947e-07
-0.00014095
4.54301e-08
-0.000141029
-1.00495e-07
-0.000142991
-1.19131e-07
-0.00014978
4.15169e-07
-0.000153671
4.1408e-07
-0.000154655
4.97889e-07
-0.000154805
5.78172e-07
-0.000153891
6.30352e-07
-0.000149097
-7.13338e-08
-0.000142359
-6.02924e-07
-0.000139074
-4.10974e-07
-0.000138637
2.3088e-07
-0.000138732
-1.24747e-07
-0.000142636
-3.48832e-07
-0.000151861
-3.53299e-07
-0.000155781
1.04507e-09
-0.000156742
5.98188e-07
-0.000156975
8.03288e-07
-0.000156134
6.87241e-07
-0.000149385
2.39445e-07
-0.000138062
-8.69116e-07
-0.000130708
-1.61848e-06
-0.000129488
-1.03186e-06
-0.000130378
-1.7824e-06
-0.000140861
-2.33566e-06
-0.000150493
-2.90822e-06
-0.000151618
-5.44688e-06
-0.000148325
-6.33011e-06
-9.33733e-05
-2.91925e-05
2.78969e-05
-0.000138407
-7.41408e-07
-0.000139923
1.44317e-06
-0.000139967
1.9618e-06
-0.000139695
2.60817e-06
-0.000139063
2.27398e-06
-0.000136593
1.81102e-06
-0.000134537
3.63003e-07
-0.000134291
-1.04915e-06
-0.000134283
-1.71559e-06
-0.000134763
-2.07087e-06
-0.000135777
-1.34063e-06
-0.000137449
-1.35089e-07
-0.000139562
1.5087e-06
-0.00014042
2.31951e-06
-0.000140514
2.92358e-06
-0.000140487
2.35441e-06
-0.000140144
1.76614e-06
-0.000138475
4.00048e-07
-0.00013821
-1.38235e-06
-0.000138041
-1.83111e-06
-0.000138236
-1.76432e-06
-0.000138233
-5.83478e-07
-0.000137973
4.7715e-07
-0.000137914
1.21236e-06
-0.000138849
1.72345e-06
-0.000140966
2.45738e-06
-0.000142296
2.34348e-06
-0.000142851
1.52383e-06
-0.000142813
4.63162e-07
-0.000142572
-7.37978e-07
-0.000141623
-1.65549e-06
-0.000140682
-1.55373e-06
-0.000139864
-7.94565e-07
-0.000139075
4.8877e-07
-0.000138638
1.26592e-06
-0.000138545
1.51817e-06
-0.000139328
1.65917e-06
-0.000143059
1.7194e-06
-0.000145324
1.41165e-06
-0.000145853
8.57871e-07
-0.000145958
1.67881e-07
-0.000145842
-3.44522e-07
-0.000144239
-1.01463e-06
-0.000142122
-9.55518e-07
-0.000140646
1.0789e-08
-0.000139899
5.45986e-07
-0.000139669
8.23711e-07
-0.000139656
9.47968e-07
-0.000141001
9.40844e-07
-0.000145424
1.0062e-06
-0.000147935
9.95777e-07
-0.000148567
7.85212e-07
-0.000148631
5.45866e-07
-0.000148454
2.28906e-07
-0.000145753
-2.88545e-07
-0.000142841
-7.02362e-07
-0.000141481
-2.00187e-07
-0.000140907
1.97967e-07
-0.000140747
5.07913e-07
-0.000140893
5.56104e-07
-0.000143795
5.82056e-07
-0.000148782
6.89086e-07
-0.000150855
8.01949e-07
-0.000151344
8.13662e-07
-0.000151389
6.40606e-07
-0.000150766
3.35211e-07
-0.000146117
-1.77639e-07
-0.000142651
-5.87898e-07
-0.000141408
-2.91309e-07
-0.000141073
-5.15541e-08
-0.000141151
3.88543e-08
-0.000143036
9.84779e-08
-0.000149106
4.10444e-07
-0.00015285
7.05726e-07
-0.000154077
8.80457e-07
-0.000154333
8.3857e-07
-0.00015423
7.19673e-07
-0.000150183
3.35547e-07
-0.000142847
-3.97354e-07
-0.000139436
-8.00833e-07
-0.000138715
-8.03673e-07
-0.000138777
-8.42486e-07
-0.000140914
-9.92233e-07
-0.000148393
-7.60712e-07
-0.000153606
1.61102e-07
-0.00015539
7.46954e-07
-0.000155893
7.47536e-07
-0.00015579
5.73439e-07
-0.000150434
5.02219e-07
-0.000139206
-5.54642e-07
-0.000131062
-2.29276e-06
-0.000127887
-3.62805e-06
-0.000127716
-4.35098e-06
-0.000132115
-5.14592e-06
-0.000138843
-6.65571e-06
-0.000139896
-1.0351e-05
-0.000137825
-1.16745e-05
-0.000107868
-3.69545e-05
4.07079e-05
-0.000135135
-9.89142e-07
-0.00013785
8.29882e-07
-0.000138684
2.24934e-06
-0.000138702
2.66445e-06
-0.000138762
2.216e-06
-0.000138618
1.65177e-06
-0.000137104
9.42418e-07
-0.000135376
-3.3707e-07
-0.000134877
-1.40064e-06
-0.000134429
-1.78516e-06
-0.000133966
-9.48305e-07
-0.000134444
-1.38408e-07
-0.000136826
9.24886e-07
-0.000138929
2.279e-06
-0.000140288
2.99248e-06
-0.000141226
2.25282e-06
-0.000141455
1.51054e-06
-0.000140897
8.00163e-07
-0.000138856
-2.54352e-07
-0.000137385
-1.57127e-06
-0.000136338
-1.61836e-06
-0.00013575
-5.30214e-07
-0.000135702
3.82441e-07
-0.000135966
1.07249e-06
-0.000137432
1.61428e-06
-0.000140917
2.31416e-06
-0.000143551
1.90148e-06
-0.000144188
1.3359e-06
-0.000144192
7.36614e-07
-0.00014346
1.86886e-07
-0.000141281
-5.67275e-07
-0.000138397
-1.0044e-06
-0.000136996
-5.37392e-08
-0.000136673
3.55087e-07
-0.000136878
8.5712e-07
-0.000137149
1.24233e-06
-0.00013871
1.46549e-06
-0.000143411
1.42718e-06
-0.000146041
1.06593e-06
-0.000146359
8.73515e-07
-0.000146336
5.34071e-07
-0.000146054
5.4046e-08
-0.000143376
-2.19056e-07
-0.000139822
1.49684e-07
-0.000138679
3.42489e-07
-0.000138353
4.93355e-07
-0.000138355
6.27844e-07
-0.000138507
7.80204e-07
-0.000140173
8.41994e-07
-0.000145071
9.39181e-07
-0.000147776
9.61631e-07
-0.000148377
7.82695e-07
-0.000148428
6.05081e-07
-0.000148255
3.85737e-07
-0.00014514
2.94456e-07
-0.000141057
2.481e-07
-0.000139703
1.46324e-07
-0.000139334
1.59282e-07
-0.000139323
2.79038e-07
-0.000139578
3.49055e-07
-0.000142527
4.26517e-07
-0.000147847
6.03549e-07
-0.000150169
8.09404e-07
-0.000150678
8.36501e-07
-0.000150722
7.52415e-07
-0.000150246
6.21087e-07
-0.000145436
4.7691e-07
-0.000140773
1.00485e-07
-0.000139429
-2.2623e-07
-0.000139119
-2.81556e-07
-0.000139151
-2.45808e-07
-0.000140485
-2.60701e-07
-0.000146188
7.00375e-09
-0.000150826
6.00673e-07
-0.000152479
8.93339e-07
-0.000152892
9.2648e-07
-0.000152909
8.20989e-07
-0.000149596
6.96656e-07
-0.000141602
3.91166e-08
-0.000137434
-8.76418e-07
-0.000136412
-1.39478e-06
-0.000136354
-1.51531e-06
-0.000136909
-1.65244e-06
-0.000142726
-1.65944e-06
-0.000150192
-5.74642e-07
-0.000152901
3.5522e-07
-0.000153327
6.53902e-07
-0.000153312
6.4424e-07
-0.000149093
5.21263e-07
-0.000138786
-3.79101e-07
-0.000130226
-2.40417e-06
-0.000125327
-5.04811e-06
-0.000124524
-6.71299e-06
-0.000125724
-7.73812e-06
-0.000131247
-1.02635e-05
-0.000133348
-1.49504e-05
-0.000132877
-1.67968e-05
-0.000114579
-3.8596e-05
4.7855e-05
-0.000129864
3.03989e-07
-0.000132182
6.05795e-07
-0.000137036
1.12123e-06
-0.000139318
1.85971e-06
-0.000139738
1.57958e-06
-0.000139682
1.12355e-06
-0.000139376
7.43989e-07
-0.000137859
3.00106e-07
-0.000134303
-5.47494e-07
-0.000130884
1.95209e-07
-0.000129984
5.8839e-07
-0.000129867
5.59764e-07
-0.000131614
6.27252e-07
-0.000137613
8.69428e-07
-0.000141656
1.78796e-06
-0.000142591
1.38609e-06
-0.000142637
9.92228e-07
-0.000142481
5.99559e-07
-0.00014093
1.54957e-07
-0.000135425
-2.25642e-07
-0.000131889
5.06893e-07
-0.000131392
5.18646e-07
-0.000131465
3.66955e-07
-0.000132371
3.18733e-07
-0.000135998
5.97338e-07
-0.000141908
1.20612e-06
-0.000144384
1.28657e-06
-0.000144683
1.04467e-06
-0.000144665
6.52637e-07
-0.000144317
3.57862e-07
-0.000139821
6.56156e-07
-0.000134298
1.28269e-06
-0.000133289
1.00031e-06
-0.000133336
5.21136e-07
-0.00013384
1.38394e-07
-0.000135027
1.15612e-07
-0.000138503
3.54714e-07
-0.000143681
8.28169e-07
-0.000145998
8.06928e-07
-0.000146226
7.89983e-07
-0.000146194
7.37766e-07
-0.000145343
9.09986e-07
-0.000141047
1.25802e-06
-0.000136912
1.39802e-06
-0.000136013
9.04446e-07
-0.000135993
4.40321e-07
-0.00013614
1.64212e-07
-0.000136622
4.42058e-08
-0.000139055
1.04687e-07
-0.000144561
4.17088e-07
-0.000147184
7.41889e-07
-0.000147465
8.75322e-07
-0.000147475
9.53516e-07
-0.000146967
1.09187e-06
-0.000143447
1.24539e-06
-0.000138635
1.13928e-06
-0.000137014
4.62561e-07
-0.000136884
4.30471e-08
-0.000136905
-1.69406e-07
-0.00013734
-2.86577e-07
-0.000140535
-2.00119e-07
-0.000146157
1.95233e-07
-0.000148543
7.05721e-07
-0.000148942
9.79286e-07
-0.000149023
1.11847e-06
-0.00014849
1.18242e-06
-0.000143998
1.17432e-06
-0.000138159
8.51493e-07
-0.000136204
-9.38453e-08
-0.000136007
-5.91645e-07
-0.000136066
-7.56534e-07
-0.000137001
-8.94185e-07
-0.000142355
-7.34393e-07
-0.000147578
2.30056e-08
-0.000149136
7.07136e-07
-0.000149463
1.06465e-06
-0.000149532
1.17784e-06
-0.000147975
1.07687e-06
-0.000140752
5.44346e-07
-0.000134515
-7.128e-07
-0.0001327
-1.97829e-06
-0.000132598
-2.52366e-06
-0.000132713
-2.69028e-06
-0.000135641
-2.85609e-06
-0.000142619
-2.27628e-06
-0.000146407
-7.69623e-07
-0.000147359
2.10672e-07
-0.000147665
4.45887e-07
-0.000145906
3.36561e-07
-0.000137852
-4.09836e-07
-0.000128798
-2.76057e-06
-0.000122649
-5.61526e-06
-0.000119721
-8.69763e-06
-0.000119214
-1.06089e-05
-0.000122046
-1.29474e-05
-0.000125317
-1.78796e-05
-0.000127044
-2.01663e-05
-0.000119975
-3.56752e-05
4.9479e-05
-0.000128006
1.38051e-06
-0.000128826
7.13629e-07
-0.00013473
3.94469e-07
-0.000139233
4.76318e-07
-0.000139743
8.34484e-07
-0.000139617
6.85224e-07
-0.00013944
4.99665e-07
-0.000137269
6.17707e-07
-0.000131511
1.46363e-06
-0.000128928
1.76455e-06
-0.000128614
1.46591e-06
-0.000128529
1.19452e-06
-0.000129124
6.4467e-07
-0.000135389
2.07695e-07
-0.000141658
-8.46119e-08
-0.000142586
5.87279e-07
-0.000142471
5.36952e-07
-0.000142276
5.32188e-07
-0.000139425
1.09641e-06
-0.000132576
1.9325e-06
-0.000129706
1.89515e-06
-0.000129461
1.18905e-06
-0.000129434
6.82729e-07
-0.000129921
1.62439e-07
-0.000133856
-4.30418e-07
-0.000141301
-2.75511e-07
-0.000143968
4.70176e-07
-0.000143996
6.81428e-07
-0.000143818
9.26077e-07
-0.000141928
1.62028e-06
-0.000137158
2.21863e-06
-0.000133525
2.26584e-06
-0.00013244
1.21719e-06
-0.000132217
5.92991e-07
-0.000132217
1.05685e-08
-0.000132839
-5.55836e-07
-0.000136442
-7.90209e-07
-0.000141802
-2.23198e-07
-0.000143677
6.29776e-07
-0.000143846
1.18503e-06
-0.000143573
1.64901e-06
-0.000142458
2.00734e-06
-0.000139637
2.02336e-06
-0.000136136
1.81956e-06
-0.000134687
9.27167e-07
-0.000134472
2.90588e-07
-0.000134483
-9.65247e-08
-0.000134693
-3.78411e-07
-0.000136539
-5.05445e-07
-0.000141258
-8.3733e-08
-0.000143966
7.24431e-07
-0.000144495
1.32798e-06
-0.000144514
1.62377e-06
-0.00014422
1.82805e-06
-0.000142101
1.73939e-06
-0.000137537
1.43377e-06
-0.00013514
4.84935e-07
-0.000134773
-2.35249e-07
-0.000134791
-5.28363e-07
-0.000134905
-6.94232e-07
-0.00013691
-7.51703e-07
-0.000142048
-2.13854e-07
-0.000144794
7.13203e-07
-0.000145458
1.33257e-06
-0.000145582
1.59965e-06
-0.000145457
1.7175e-06
-0.000143106
1.66423e-06
-0.000137101
1.22778e-06
-0.000133684
-3.91796e-08
-0.000133244
-9.3968e-07
-0.000133274
-1.37872e-06
-0.00013355
-1.54945e-06
-0.000136965
-1.52947e-06
-0.000142766
-6.4811e-07
-0.00014511
5.96007e-07
-0.000145591
1.27513e-06
-0.000145712
1.48038e-06
-0.000145406
1.40257e-06
-0.000140823
1.10566e-06
-0.000133178
-5.20197e-07
-0.000129278
-2.22236e-06
-0.000128772
-3.326e-06
-0.000128768
-4.00725e-06
-0.000129714
-4.27523e-06
-0.000134883
-4.0054e-06
-0.000140303
-2.57262e-06
-0.000142364
-1.06032e-06
-0.000142799
-3.15162e-07
-0.000142674
-1.49932e-07
-0.00013829
-4.64415e-07
-0.000129963
-2.46418e-06
-0.000122479
-5.95346e-06
-0.000117573
-9.27374e-06
-0.000116313
-1.17057e-05
-0.000117942
-1.49396e-05
-0.000122129
-1.91486e-05
-0.000124898
-2.20924e-05
-0.000121968
-3.34098e-05
4.9523e-05
-0.000127947
1.77529e-06
-0.00012927
9.91406e-07
-0.000132879
-1.57854e-07
-0.000136864
-6.33478e-07
-0.000138172
-1.55539e-07
-0.000138172
2.32443e-07
-0.000137479
7.12627e-07
-0.000133361
1.81247e-06
-0.000129219
2.5039e-06
-0.000128303
2.39765e-06
-0.000128202
1.81608e-06
-0.000128224
1.29957e-06
-0.000129649
6.45354e-07
-0.000134216
-5.46764e-07
-0.00013875
-8.95721e-07
-0.000140168
-3.13585e-07
-0.000140236
4.79286e-07
-0.000139185
1.40785e-06
-0.000135658
2.38577e-06
-0.000131889
2.91707e-06
-0.000130062
2.45164e-06
-0.000129605
1.62616e-06
-0.000129497
7.92817e-07
-0.000129767
-1.03215e-08
-0.000132174
-7.37944e-07
-0.000137431
-1.04442e-06
-0.000139988
-3.41241e-07
-0.000140347
8.15499e-07
-0.000139816
1.92658e-06
-0.00013857
2.51342e-06
-0.000136641
2.55418e-06
-0.00013406
2.23095e-06
-0.000132657
1.41983e-06
-0.000132226
5.88704e-07
-0.000132122
-9.91602e-08
-0.000132123
-6.32608e-07
-0.000133275
-8.81285e-07
-0.000136952
-5.26829e-07
-0.000139198
6.85758e-07
-0.000139898
1.64078e-06
-0.000139988
2.08891e-06
-0.00013989
2.18612e-06
-0.000139024
2.14663e-06
-0.000136239
1.77062e-06
-0.000134135
8.23443e-07
-0.000133482
6.05151e-08
-0.000133229
-2.73768e-07
-0.00013317
-3.77605e-07
-0.000133477
-3.78342e-07
-0.000136549
-1.43621e-07
-0.000139812
7.90174e-07
-0.000141102
1.6226e-06
-0.000141534
1.93568e-06
-0.00014156
1.96516e-06
-0.000141147
1.87471e-06
-0.000137695
1.52837e-06
-0.000134074
4.42375e-07
-0.000133004
-3.79872e-07
-0.000132773
-7.89671e-07
-0.000132738
-8.41537e-07
-0.000133253
-8.23951e-07
-0.000137266
-4.38552e-07
-0.000140926
6.51759e-07
-0.000142081
1.52979e-06
-0.000142437
1.89064e-06
-0.000142526
1.93861e-06
-0.000142072
1.72366e-06
-0.000137573
1.27884e-06
-0.000132676
-1.53981e-07
-0.000131069
-1.30209e-06
-0.000130851
-1.88825e-06
-0.000130896
-1.98455e-06
-0.000131955
-1.99528e-06
-0.000137182
-1.38363e-06
-0.000141337
2.31996e-07
-0.000142554
1.39358e-06
-0.0001428
1.79117e-06
-0.000142864
1.74153e-06
-0.000141023
1.46523e-06
-0.00013431
2.04628e-07
-0.000128642
-2.11586e-06
-0.000126217
-3.63658e-06
-0.000125784
-4.92186e-06
-0.00012586
-5.22915e-06
-0.000127946
-5.36059e-06
-0.000133357
-4.62811e-06
-0.000137063
-3.02916e-06
-0.000138535
-1.83981e-06
-0.000138822
-1.46258e-06
-0.000138065
-1.38376e-06
-0.000132873
-2.3226e-06
-0.000125513
-5.29486e-06
-0.000119307
-9.21263e-06
-0.000115502
-1.24967e-05
-0.00011554
-1.48312e-05
-0.000119485
-1.94454e-05
-0.000123071
-2.3353e-05
-0.000123829
-3.12806e-05
4.85279e-05
-0.000129396
1.83924e-06
-0.000131611
8.36702e-07
-0.000132964
-5.13613e-08
-0.00013407
-7.26317e-07
-0.000134806
-6.8285e-07
-0.000134653
3.10148e-08
-0.000132656
1.50349e-06
-0.000130379
2.21016e-06
-0.000129312
2.6204e-06
-0.000128671
2.63599e-06
-0.000128466
2.20267e-06
-0.000128962
1.22407e-06
-0.000131417
1.54205e-07
-0.000133577
-5.4543e-07
-0.00013486
-7.02645e-07
-0.000135542
-2.79444e-07
-0.000135495
1.00024e-06
-0.00013443
1.94115e-06
-0.000133196
2.33177e-06
-0.000132137
2.71397e-06
-0.000131182
2.49366e-06
-0.000130606
1.53091e-06
-0.000130441
6.92655e-07
-0.000130586
1.07598e-07
-0.000131643
-5.84135e-07
-0.000133227
-4.97904e-07
-0.00013461
2.39208e-07
-0.000135436
1.43323e-06
-0.000135836
1.96906e-06
-0.000135943
2.10363e-06
-0.000135833
2.05173e-06
-0.00013474
2.01146e-06
-0.000133432
1.25248e-06
-0.000132626
3.65192e-07
-0.000132125
-5.04295e-08
-0.000131693
-2.18766e-07
-0.000131543
-2.60431e-09
-0.000132271
2.67451e-07
-0.00013443
1.06064e-06
-0.000136123
1.8263e-06
-0.000137465
1.89146e-06
-0.000138014
1.73137e-06
-0.000137976
1.606e-06
-0.000136829
1.53105e-06
-0.000134236
7.01971e-07
-0.00013283
-6.96098e-08
-0.000131955
-2.95642e-07
-0.000131345
-7.95005e-08
-0.000131249
2.0436e-07
-0.000132369
3.64499e-07
-0.000136046
9.77149e-07
-0.000138262
1.67368e-06
-0.000139289
1.86524e-06
-0.000139702
1.74136e-06
-0.000139706
1.55806e-06
-0.000138353
1.36155e-06
-0.000134249
6.21228e-07
-0.000131835
-4.43133e-07
-0.000130917
-8.21125e-07
-0.000130503
-7.15848e-07
-0.000130527
-5.38587e-07
-0.000132491
-4.01596e-07
-0.000137281
4.50607e-07
-0.000139646
1.54451e-06
-0.00014039
1.98456e-06
-0.000140636
1.84954e-06
-0.000140681
1.51054e-06
-0.00013893
1.15067e-06
-0.000133559
1.34201e-07
-0.000130144
-1.42596e-06
-0.000128933
-2.05402e-06
-0.000128519
-2.10134e-06
-0.000128599
-2.01291e-06
-0.000131116
-1.86553e-06
-0.00013706
-7.12777e-07
-0.000140201
9.58648e-07
-0.000141074
1.7146e-06
-0.000141327
1.75034e-06
-0.000141182
1.41523e-06
-0.000137536
8.9289e-07
-0.000130671
-1.0193e-06
-0.000125846
-3.56013e-06
-0.00012362
-4.96874e-06
-0.000123401
-5.44011e-06
-0.000123712
-6.09272e-06
-0.000127015
-6.21682e-06
-0.000132058
-5.2911e-06
-0.000135302
-3.97948e-06
-0.000136794
-3.29734e-06
-0.000137164
-3.28825e-06
-0.000135501
-2.89084e-06
-0.000130311
-5.12239e-06
-0.000123743
-8.06868e-06
-0.000117536
-1.23686e-05
-0.00011482
-1.52975e-05
-0.000117015
-1.82296e-05
-0.000121406
-2.56115e-05
-0.000126045
-2.97191e-05
4.82062e-05
-0.000132575
1.49871e-06
-0.00013345
1.17255e-06
-0.000133329
4.52186e-07
-0.000133149
-6.91531e-08
-0.000131716
2.18317e-08
-0.000129066
1.20677e-06
-0.000128113
1.5153e-06
-0.000127953
1.63403e-06
-0.000128161
1.83234e-06
-0.000128331
1.96386e-06
-0.000129278
1.86501e-06
-0.000131403
8.08068e-07
-0.000132899
6.2947e-07
-0.000132929
1.52874e-07
-0.000132679
2.83359e-07
-0.000131661
1.24543e-06
-0.000131035
1.73361e-06
-0.000130945
1.86379e-06
-0.00013135
1.69424e-06
-0.000132022
1.42165e-06
-0.000131951
1.38383e-06
-0.000131863
9.78756e-07
-0.00013146
4.98878e-07
-0.000131132
3.38031e-07
-0.000130834
4.58341e-07
-0.00013079
8.39376e-07
-0.000131051
1.52288e-06
-0.00013207
2.08376e-06
-0.000133815
1.749e-06
-0.000134626
1.68298e-06
-0.000134837
1.39973e-06
-0.000134768
1.00819e-06
-0.000134231
5.52222e-07
-0.000132998
3.22581e-07
-0.000131411
2.62126e-07
-0.000129968
6.27377e-07
-0.00012951
1.02376e-06
-0.000129683
1.16896e-06
-0.000131974
1.52716e-06
-0.000134794
1.89096e-06
-0.000136425
1.73342e-06
-0.000137135
1.44868e-06
-0.000137265
1.08071e-06
-0.00013709
8.60012e-07
-0.000134804
5.74695e-07
-0.000131811
5.10728e-08
-0.00013001
1.90353e-07
-0.000129245
4.07855e-07
-0.000129098
5.85974e-07
-0.000129584
7.05466e-07
-0.000133312
1.01231e-06
-0.000136738
1.52568e-06
-0.000138196
1.72664e-06
-0.000138703
1.50856e-06
-0.000138802
1.30343e-06
-0.000138614
1.09357e-06
-0.000135406
8.61782e-07
-0.000131172
-6.28266e-08
-0.000129048
-2.6983e-07
-0.000128402
-3.69336e-07
-0.000128309
-4.01465e-07
-0.000128948
-4.13983e-07
-0.000133556
-7.82017e-08
-0.000137945
1.03584e-06
-0.000139529
1.74732e-06
-0.000140022
1.65119e-06
-0.000140096
1.34737e-06
-0.000139741
1.08995e-06
-0.000135487
6.99014e-07
-0.000130166
-6.30212e-07
-0.000127196
-1.85011e-06
-0.000126307
-1.94621e-06
-0.000126225
-2.18476e-06
-0.000126826
-2.29897e-06
-0.000131754
-2.01982e-06
-0.000137577
-5.63925e-07
-0.000139972
9.2064e-07
-0.000140666
1.33395e-06
-0.00014084
1.16652e-06
-0.000140074
1.06017e-06
-0.000134089
5.36938e-07
-0.000126992
-1.68027e-06
-0.000123351
-4.2557e-06
-0.000121984
-5.46812e-06
-0.000121983
-6.37914e-06
-0.000122699
-7.03718e-06
-0.000126805
-7.23193e-06
-0.000131217
-6.43691e-06
-0.000133763
-5.54448e-06
-0.000134963
-5.27212e-06
-0.000135096
-5.35533e-06
-0.000133011
-5.10417e-06
-0.000128687
-7.83513e-06
-0.000122658
-1.10315e-05
-0.000116184
-1.4903e-05
-0.000114229
-1.74544e-05
-0.000119242
-2.53938e-05
-0.000127493
-2.90271e-05
4.85891e-05
-0.000134479
1.19381e-06
-0.000134746
1.2687e-06
-0.000134602
9.38349e-07
-0.00013314
1.23475e-06
-0.000128759
2.20559e-06
-0.000126756
2.03828e-06
-0.000126367
1.51754e-06
-0.000126246
1.35155e-06
-0.000126463
1.14045e-06
-0.000128122
5.29131e-07
-0.000130489
1.37098e-07
-0.00013216
5.95267e-07
-0.000132435
6.86944e-07
-0.000132224
1.11205e-06
-0.000130724
1.99707e-06
-0.000130084
2.624e-06
-0.000130207
2.2546e-06
-0.000130437
1.78097e-06
-0.000130685
1.42657e-06
-0.000131589
8.83997e-07
-0.000132144
1.06438e-07
-0.000132034
2.35614e-07
-0.000131407
3.76296e-07
-0.000130008
8.53504e-07
-0.000129246
1.36741e-06
-0.000129198
1.74174e-06
-0.000130038
2.18847e-06
-0.000131927
2.12463e-06
-0.000133784
1.82744e-06
-0.000134854
1.34879e-06
-0.000135112
8.9237e-07
-0.000135028
5.33311e-07
-0.000134154
3.17393e-07
-0.000131545
3.35339e-07
-0.000129128
7.88076e-07
-0.000128121
1.05213e-06
-0.000127931
1.2286e-06
-0.00012819
1.30879e-06
-0.000131282
1.50873e-06
-0.000135059
1.78727e-06
-0.000136644
1.57433e-06
-0.000137006
1.33202e-06
-0.00013704
1.01081e-06
-0.000136979
7.0701e-07
-0.000134857
6.80767e-07
-0.000129962
9.45703e-07
-0.000127823
8.31987e-07
-0.000127412
6.14051e-07
-0.000127384
4.80552e-07
-0.000127943
4.77435e-07
-0.00013165
5.88685e-07
-0.000136174
1.11625e-06
-0.000137966
1.49929e-06
-0.00013842
1.48185e-06
-0.000138479
1.32576e-06
-0.000138444
1.19212e-06
-0.000136339
1.17193e-06
-0.000130674
1.03844e-06
-0.000127509
2.16424e-07
-0.000126762
-5.79596e-08
-0.000126741
-4.67436e-07
-0.000126957
-7.8171e-07
-0.000130047
-8.80941e-07
-0.000136224
-1.52027e-07
-0.000139257
1.1299e-06
-0.000139923
1.50422e-06
-0.000139972
1.38504e-06
-0.000139917
1.25128e-06
-0.000137314
1.26316e-06
-0.00013068
9.12479e-07
-0.000126535
-1.08452e-06
-0.000124926
-1.92602e-06
-0.000124829
-2.44016e-06
-0.000124924
-2.93278e-06
-0.00012702
-3.35093e-06
-0.000133901
-2.81848e-06
-0.000138932
-7.24079e-07
-0.00014025
6.59002e-07
-0.000140454
1.02313e-06
-0.000140406
1.18698e-06
-0.000138038
1.05636e-06
-0.00013108
3.58623e-07
-0.000125049
-2.38069e-06
-0.000122063
-5.02564e-06
-0.00012107
-6.4638e-06
-0.000121135
-7.59082e-06
-0.000122643
-8.4943e-06
-0.000127061
-8.56305e-06
-0.000130704
-7.71201e-06
-0.000132497
-7.14002e-06
-0.000133245
-7.13306e-06
-0.000133029
-7.22613e-06
-0.000130902
-7.91888e-06
-0.000127371
-1.08251e-05
-0.000121922
-1.38218e-05
-0.000116437
-1.70381e-05
-0.000116079
-2.53546e-05
-0.000128688
-2.93281e-05
4.96996e-05
-0.000134233
5.85513e-07
-0.000134101
1.305e-06
-0.000133294
2.30487e-06
-0.000130974
3.31433e-06
-0.000128601
3.15518e-06
-0.00012697
2.5246e-06
-0.000126743
1.77755e-06
-0.000126848
9.34948e-07
-0.000127901
-3.69166e-08
-0.000128877
-7.74076e-07
-0.000129799
-5.39114e-07
-0.000130474
-6.46702e-08
-0.000130637
1.06724e-06
-0.000130173
2.16858e-06
-0.000129876
3.10974e-06
-0.000130054
3.20544e-06
-0.00013069
2.62715e-06
-0.000131313
1.92277e-06
-0.000131662
1.19169e-06
-0.000131596
4.51208e-07
-0.00013149
-1.78409e-07
-0.000130819
-1.53269e-07
-0.000128972
4.98696e-07
-0.000127644
1.07678e-06
-0.000127305
1.42556e-06
-0.000127585
1.67693e-06
-0.000130202
2.12501e-06
-0.000133155
2.24074e-06
-0.00013468
1.93276e-06
-0.000135252
1.40603e-06
-0.000135278
8.96735e-07
-0.000135161
5.81774e-07
-0.000132799
6.84177e-07
-0.000128479
9.49084e-07
-0.000126746
9.52826e-07
-0.000126426
8.74526e-07
-0.000126388
7.70285e-07
-0.00012702
7.37219e-07
-0.000131192
1.01159e-06
-0.000135726
1.34489e-06
-0.000136948
1.38407e-06
-0.000136974
1.44251e-06
-0.000136952
1.28878e-06
-0.000136627
1.26579e-06
-0.000133815
1.74263e-06
-0.000129061
1.59769e-06
-0.000126834
9.3557e-07
-0.000126479
5.88829e-07
-0.000126491
3.22193e-07
-0.000126935
-2.00538e-07
-0.000130394
-5.10785e-07
-0.00013587
3.25651e-07
-0.000137942
1.22932e-06
-0.000138222
1.57918e-06
-0.000138234
1.71027e-06
-0.000137966
1.97011e-06
-0.000136129
2.17254e-06
-0.000131138
1.72407e-06
-0.000127447
7.78918e-07
-0.000126239
-7.99921e-08
-0.000126124
-6.68754e-07
-0.000126185
-1.31211e-06
-0.000127559
-1.82582e-06
-0.000133492
-1.51741e-06
-0.000138224
1.82223e-07
-0.000139269
1.37727e-06
-0.000139426
1.88488e-06
-0.000139264
2.23599e-06
-0.000138272
2.3176e-06
-0.000133191
2.03249e-06
-0.000127406
1.52387e-07
-0.000125094
-1.74924e-06
-0.000124465
-2.81014e-06
-0.000124452
-3.93071e-06
-0.00012468
-4.32428e-06
-0.000128174
-4.5305e-06
-0.000134707
-3.14538e-06
-0.000138006
-6.43633e-07
-0.000138901
7.75639e-07
-0.000139064
1.27299e-06
-0.000138915
1.37841e-06
-0.000135892
9.74388e-07
-0.000129286
-2.507e-07
-0.000124174
-3.40074e-06
-0.000121633
-6.23006e-06
-0.000120768
-7.91268e-06
-0.000120867
-9.18267e-06
-0.000122598
-9.80625e-06
-0.0001266
-9.56029e-06
-0.000129408
-8.75731e-06
-0.00013087
-8.46744e-06
-0.000131453
-8.73815e-06
-0.000131239
-9.26829e-06
-0.000129638
-1.12083e-05
-0.00012649
-1.36255e-05
-0.000121138
-1.65415e-05
-0.000116978
-2.3446e-05
-0.00012838
-3.05798e-05
5.19199e-05
-0.000130284
3.13484e-08
-0.000131109
1.83592e-06
-0.000130832
3.20614e-06
-0.00013058
4.12055e-06
-0.000130124
3.6034e-06
-0.000129388
2.78332e-06
-0.00012887
1.61596e-06
-0.000128757
4.76385e-07
-0.000128723
-4.2921e-07
-0.000128596
-1.00776e-06
-0.000128025
-6.13414e-07
-0.000127046
3.71707e-07
-0.000126841
1.09888e-06
-0.000127666
1.88639e-06
-0.000129563
2.96758e-06
-0.000131529
3.18938e-06
-0.000132698
2.83637e-06
-0.000133052
2.15609e-06
-0.000133016
1.50823e-06
-0.000132558
8.11758e-07
-0.000130653
-6.80018e-10
-0.000127793
2.71078e-07
-0.000126004
5.692e-07
-0.000125495
7.94389e-07
-0.000125402
9.23564e-07
-0.000126093
1.09006e-06
-0.000130519
1.56724e-06
-0.00013486
2.10791e-06
-0.000135782
1.79677e-06
-0.000135732
1.77076e-06
-0.000135582
1.54747e-06
-0.000134719
1.30875e-06
-0.000131096
1.47817e-06
-0.000127128
1.46646e-06
-0.000125752
1.02619e-06
-0.000125528
7.58187e-07
-0.000125516
5.13756e-07
-0.000126185
4.17287e-08
-0.000130829
-3.37363e-07
-0.000135604
6.41449e-07
-0.000136898
1.32007e-06
-0.000137049
1.72825e-06
-0.000136824
2.12507e-06
-0.000135872
2.65364e-06
-0.000133567
2.64525e-06
-0.000129489
1.98568e-06
-0.000127119
1.16351e-06
-0.000126645
3.30251e-07
-0.000126579
-4.51349e-07
-0.000126662
-1.15709e-06
-0.000128208
-1.28683e-06
-0.000133564
-7.0676e-07
-0.00013686
9.72778e-07
-0.000137334
1.9783e-06
-0.000137239
2.57015e-06
-0.000136848
2.94206e-06
-0.000136201
2.85758e-06
-0.000133209
2.37873e-06
-0.000128794
1.12636e-06
-0.000127051
-3.36034e-07
-0.000126754
-1.31829e-06
-0.000126669
-2.11094e-06
-0.000126718
-2.08667e-06
-0.00012897
-2.27251e-06
-0.000134795
-1.04733e-06
-0.000137529
1.23927e-06
-0.000137994
2.38509e-06
-0.000138029
2.92411e-06
-0.000138065
2.7176e-06
-0.000136845
2.38278e-06
-0.000131497
1.46948e-06
-0.000127028
-9.69958e-07
-0.00012497
-3.02848e-06
-0.000124216
-4.08422e-06
-0.000124132
-4.62346e-06
-0.000124395
-4.87201e-06
-0.000128007
-4.81423e-06
-0.000133767
-3.03795e-06
-0.000136665
-5.25354e-07
-0.000137627
7.11586e-07
-0.000137787
1.02234e-06
-0.000137547
1.10421e-06
-0.000134593
1.38219e-07
-0.000128945
-1.68746e-06
-0.000124048
-4.64694e-06
-0.000121139
-7.5137e-06
-0.000120076
-9.21602e-06
-0.000120138
-9.97196e-06
-0.000122039
-1.07366e-05
-0.000125978
-1.03838e-05
-0.000128608
-9.78789e-06
-0.000129965
-9.76347e-06
-0.000130569
-1.04087e-05
-0.000130374
-1.18591e-05
-0.000129155
-1.40318e-05
-0.00012566
-1.61654e-05
-0.000120048
-2.11833e-05
-0.000126995
-3.13549e-05
5.42138e-05
-0.000125451
3.96842e-07
-0.000126765
1.00339e-06
-0.000129023
2.56147e-06
-0.00013092
3.781e-06
-0.000131992
3.3673e-06
-0.000132224
2.80541e-06
-0.000131779
2.08756e-06
-0.000130848
1.11863e-06
-0.000129735
7.45645e-08
-0.000127368
-6.14104e-07
-0.000124628
1.0664e-07
-0.000123678
6.19932e-07
-0.00012354
8.8849e-07
-0.000124729
1.14733e-06
-0.00012949
1.96052e-06
-0.000133577
2.91676e-06
-0.00013483
2.58639e-06
-0.000134889
2.32865e-06
-0.000134737
2.00378e-06
-0.000133459
1.60126e-06
-0.000129408
1.02799e-06
-0.00012559
8.49155e-07
-0.000124467
9.08419e-07
-0.000124252
7.15945e-07
-0.000124223
6.12535e-07
-0.000124888
4.67912e-07
-0.000129991
3.07986e-07
-0.000135
1.19517e-06
-0.000136324
1.7472e-06
-0.000136391
1.93883e-06
-0.000136232
2.12149e-06
-0.000134738
2.70029e-06
-0.000131026
2.67392e-06
-0.000127309
1.84502e-06
-0.00012605
1.16572e-06
-0.000125901
4.7562e-07
-0.000125978
-2.19767e-07
-0.00012638
-7.66885e-07
-0.00012877
-7.17266e-07
-0.000133414
6.27872e-08
-0.000135377
1.49322e-06
-0.000135596
2.40369e-06
-0.000135275
3.15692e-06
-0.000134999
3.20584e-06
-0.000134441
2.82572e-06
-0.000131915
2.36946e-06
-0.000129003
1.13717e-06
-0.000127857
-7.83775e-08
-0.000127407
-8.95771e-07
-0.000127001
-1.17166e-06
-0.000127031
-1.12695e-06
-0.000128908
-9.41218e-07
-0.000133585
2.59415e-07
-0.000135686
2.13634e-06
-0.000136202
3.02074e-06
-0.000136422
3.22227e-06
-0.000136437
2.88025e-06
-0.000135983
2.47917e-06
-0.000132309
1.73425e-06
-0.00012877
-4.21319e-08
-0.000127094
-1.55165e-06
-0.000126188
-2.27016e-06
-0.000125617
-2.26842e-06
-0.000125748
-2.11019e-06
-0.000128829
-1.90299e-06
-0.000134328
-1.77563e-07
-0.000136882
2.03402e-06
-0.00013787
2.99579e-06
-0.000138276
2.7268e-06
-0.000138304
2.43044e-06
-0.000136453
2.13726e-06
-0.000130715
8.63098e-07
-0.000126443
-1.87669e-06
-0.000124351
-3.78438e-06
-0.000123157
-4.6585e-06
-0.000122792
-4.78515e-06
-0.000123089
-4.97888e-06
-0.000126875
-4.94607e-06
-0.000132616
-3.32125e-06
-0.000135617
-1.04642e-06
-0.000136811
-8.28063e-08
-0.000136989