/*--------------------------------*- C++ -*----------------------------------*\
  =========                 |
  \\      /  F ield         | OpenFOAM: The Open Source CFD Toolbox
   \\    /   O peration     | Website:  https://openfoam.org
    \\  /    A nd           | Version:  12
     \\/     M anipulation  |
\*---------------------------------------------------------------------------*/
FoamFile
{
    format      ascii;
    class       volVectorField;
    location    "5.15";
    object      U;
}
// * * * * * * * * * * * * * * * * * * * * * * * * * * * * * * * * * * * * * //

dimensions      [0 1 -1 0 0 0 0];

internalField   nonuniform List<vector> 
46253
(
(0.948421 0.00398249 0)
(0.894809 6.61234e-05 0)
(0.776327 0.00101966 0)
(0.89567 0.000106096 0)
(0.779237 0.00188607 0)
(0.782052 0.000700061 0)
(0.823205 -0.033853 0)
(0.930945 -0.0262099 0)
(0.898694 -5.70196e-05 0)
(0.899005 2.29104e-05 0)
(0.931787 0.000466368 0)
(1.09333 -0.0638669 0)
(0.9094 0.00700024 0)
(0.90898 0.00626899 0)
(0.914363 0.0130208 0)
(0.900477 1.70911e-05 0)
(0.901076 9.08845e-05 0)
(0.90717 0.00267128 0)
(0.907085 0.00153837 0)
(0.904427 -5.96295e-05 0)
(0.904478 0.000141881 0)
(0.785635 0.00329898 0)
(0.822412 0.00190598 0)
(0.959784 0.00486027 0)
(1.10159 0.00704325 0)
(0.89749 -4.37531e-05 0)
(0.902758 -0.000125219 0)
(0.903282 -8.62148e-05 0)
(0.897025 -7.8615e-05 0)
(0.938452 -0.0281969 0)
(0.932906 0.0412886 0)
(0.911892 0.00577728 0)
(0.911449 0.00451822 0)
(0.905478 0.000452764 0)
(0.905647 0.00122062 0)
(0.867217 0.00254611 0)
(0.908311 0.00461645 0)
(0.907856 0.00587789 0)
(1.11517 -0.0161578 0)
(0.824444 0.00344577 0)
(0.955938 -0.00802979 0)
(1.12477 -0.0662701 0)
(0.911286 0.00585596 0)
(0.911805 0.00636708 0)
(1.1008 -0.074937 0)
(0.908236 0.00299026 0)
(0.907631 0.00413607 0)
(0.83592 0.00375292 0)
(0.913358 0.00194925 0)
(0.914165 0.00195218 0)
(0.914737 0.00153097 0)
(0.914895 0.00119663 0)
(0.794896 0.00170977 0)
(0.934203 -0.021951 0)
(0.765905 0.011018 0)
(1.07862 -0.0400635 0)
(0.918137 0.00038843 0)
(0.918685 0.000407985 0)
(0.862591 0.0625821 0)
(1.01679 -0.0219855 0)
(0.860771 0.00495896 0)
(0.979608 -0.0192153 0)
(0.871169 8.10193e-05 0)
(0.837144 0.00573427 0)
(0.913711 -0.0018413 0)
(0.910648 0.00640482 0)
(0.910821 0.0068682 0)
(0.791029 0.000553495 0)
(1.08152 -0.0385897 0)
(1.07554 -0.0892598 0)
(0.795003 -0.0194955 0)
(0.920053 0.000713335 0)
(0.920684 0.000615477 0)
(0.708744 -0.0199451 0)
(0.797924 0.00184102 0)
(0.961775 0.00433069 0)
(0.931682 0.000382496 0)
(0.932033 0.000162058 0)
(0.895136 0.0023735 0)
(0.912354 0.00298292 0)
(0.913319 0.00340065 0)
(0.924131 0.000379142 0)
(0.793111 0.00209618 0)
(0.924473 0.000273736 0)
(0.869529 0.00383164 0)
(0.801995 0.00134059 0)
(0.945863 0.000323269 0)
(0.946708 0.000234022 0)
(1.07121 -0.000711927 0)
(0.865059 -0.0010961 0)
(0.815396 0.00415539 0)
(0.946292 -0.0167951 0)
(0.803322 0.00103026 0)
(0.916347 0.000658688 0)
(0.830039 0.00446736 0)
(0.91695 0.000715786 0)
(0.803345 0.00121598 0)
(0.91179 0.00233266 0)
(0.863811 0.0615752 0)
(0.866101 0.00437628 0)
(0.814531 0.00399695 0)
(0.804586 0.0009296 0)
(0.801591 0.000354538 0)
(0.935578 0.0411083 0)
(0.76853 0.00654727 0)
(0.90454 0.00406874 0)
(1.14928 -0.0657219 0)
(0.962132 0.000228773 0)
(0.961867 -7.85887e-06 0)
(1.11706 -0.0610636 0)
(1.06136 -0.0476503 0)
(0.92226 0.000345631 0)
(0.922834 0.000357592 0)
(0.910436 0.0146806 0)
(0.897442 0.0118111 0)
(0.945541 -0.00295017 0)
(1.19645 -0.0909543 0)
(1.00161 -0.0213521 0)
(0.762215 0.0619452 0)
(1.05617 -0.0301699 0)
(0.810983 0.0002338 0)
(0.784355 0.001563 0)
(0.92629 0.000130208 0)
(0.926998 0.000228413 0)
(0.808982 0.000340597 0)
(0.755083 0.056704 0)
(0.860559 0.0043112 0)
(1.10053 -0.0479434 0)
(0.752073 0.0100559 0)
(0.934613 0.000286326 0)
(0.972027 -0.000622567 0)
(0.972681 -0.000481057 0)
(0.783557 0.00265242 0)
(1.07162 -0.0174019 0)
(0.935515 0.000165564 0)
(0.923067 -0.00836929 0)
(0.939731 0.000322783 0)
(0.940373 0.000272039 0)
(1.06697 -0.031125 0)
(0.911798 -0.00212872 0)
(0.930521 0.000322153 0)
(0.981501 -0.000421912 0)
(0.980679 -0.000447958 0)
(0.939372 0.0386584 0)
(0.930113 0.000412528 0)
(0.758412 0.00852981 0)
(0.943602 4.61332e-05 0)
(0.944109 -5.44372e-05 0)
(1.11999 -0.036311 0)
(0.863113 -0.00186378 0)
(1.11515 -0.0476194 0)
(0.797317 0.000429866 0)
(0.937114 0.000394413 0)
(0.938332 0.000519349 0)
(0.962159 0.0296871 0)
(1.06839 -0.0838186 0)
(1.10435 -0.0470335 0)
(0.830215 0.00248323 0)
(0.95048 -3.4905e-05 0)
(0.76873 0.00827282 0)
(0.951044 -7.22523e-05 0)
(1.15096 -0.0653939 0)
(1.07349 -0.0381621 0)
(0.911855 0.0121071 0)
(1.00421 -0.00781514 0)
(0.941809 0.000307264 0)
(1.06057 -0.0108085 0)
(0.942091 0.000236624 0)
(0.694791 0.0400805 0)
(0.863445 0.0045094 0)
(0.954721 0.000102009 0)
(0.955147 -6.39805e-05 0)
(0.788551 0.002549 0)
(1.00664 -0.00361582 0)
(0.772423 0.00414568 0)
(0.850198 -0.0855743 0)
(1.13229 0.00568751 0)
(0.801679 0.00221894 0)
(0.730469 -0.0477509 0)
(1.19601 -0.0924974 0)
(0.773042 0.00234059 0)
(0.962363 0.0291953 0)
(0.960279 0.000183234 0)
(0.960956 0.000143888 0)
(0.843293 0.00106053 0)
(0.948513 0.000247197 0)
(0.949239 0.000375605 0)
(1.1669 -0.109411 0)
(0.843831 0.00102483 0)
(0.844152 0.00110477 0)
(0.797378 0.00157247 0)
(0.850313 0.000584252 0)
(0.992708 -0.0108153 0)
(0.850158 0.000586348 0)
(0.83945 0.000428867 0)
(0.839478 0.000460842 0)
(1.05883 -0.0387317 0)
(0.809452 0.000818645 0)
(1.02019 -0.00191241 0)
(1.02094 -0.00155969 0)
(0.905879 0.00326311 0)
(0.855293 0.00389874 0)
(0.952348 -4.91239e-05 0)
(0.952847 6.22982e-05 0)
(0.860274 -0.00226296 0)
(1.08504 -0.0884365 0)
(0.965339 0.0283198 0)
(0.966301 -0.000208164 0)
(0.96766 -0.000140023 0)
(0.862161 0.005414 0)
(0.896803 0.00164667 0)
(0.761321 0.0678012 0)
(0.959643 -0.0060588 0)
(0.801608 0.00119439 0)
(0.992714 0.0101158 0)
(0.808624 0.00088745 0)
(0.942775 0.0379744 0)
(0.89374 0.0100985 0)
(0.971657 -0.000328524 0)
(0.789307 0.00127228 0)
(0.79237 0.00108518 0)
(0.971327 -0.000493192 0)
(0.839982 -0.0604227 0)
(0.95752 0.000443717 0)
(0.958536 0.000458017 0)
(0.910077 -0.00568327 0)
(0.805602 0.00123438 0)
(0.804527 0.00157183 0)
(1.03248 -0.00135675 0)
(1.03654 -0.000531265 0)
(0.894419 0.0550414 0)
(0.815001 -0.00132567 0)
(0.870477 0.00175183 0)
(0.863967 0.00136319 0)
(0.809187 0.00052648 0)
(0.827682 0.00174165 0)
(0.841018 1.54002e-05 0)
(0.865002 0.00167605 0)
(0.896091 0.0544134 0)
(0.883281 0.0576842 0)
(0.807818 0.000954571 0)
(0.804766 0.00114523 0)
(0.809215 0.000765202 0)
(0.840727 4.49666e-05 0)
(0.920369 0.0091245 0)
(0.799385 0.00136443 0)
(0.830193 0.00236887 0)
(0.967733 0.0267607 0)
(0.810282 0.000594974 0)
(0.979551 -0.000297652 0)
(0.980421 -0.000474069 0)
(0.884851 0.05721 0)
(1.04815 -0.000766053 0)
(0.809003 0.000862175 0)
(1.04715 -0.000405504 0)
(0.963022 -0.000481328 0)
(0.9638 -0.000161931 0)
(1.07254 -0.0295462 0)
(0.99557 -0.00588036 0)
(0.811852 0.000235462 0)
(0.964183 -0.024802 0)
(0.989832 -0.0179126 0)
(1.0688 -0.0608348 0)
(0.938146 0.0394565 0)
(1.0402 -0.0246257 0)
(0.829504 0.00273544 0)
(0.906654 0.0125366 0)
(0.869156 0.00939273 0)
(0.970126 0.000477985 0)
(0.984845 -6.99432e-05 0)
(0.970784 0.000267893 0)
(0.806159 0.0011231 0)
(0.885666 0.0077133 0)
(0.871625 -0.000909116 0)
(0.986079 -4.51209e-05 0)
(0.807546 0.00105942 0)
(0.760486 0.0119581 0)
(0.863385 0.00664741 0)
(0.909039 -0.0276542 0)
(1.05683 -0.0198732 0)
(1.05556 -0.0020016 0)
(1.05612 -0.00158727 0)
(0.800234 0.000706439 0)
(0.80252 0.000640451 0)
(0.8697 0.0021454 0)
(1.01142 -0.0193401 0)
(0.936811 -0.0165508 0)
(1.05558 -0.0302813 0)
(0.949377 0.035408 0)
(0.856398 0.00201338 0)
(0.867256 0.0613376 0)
(0.868066 0.0606707 0)
(0.940273 -0.00684002 0)
(0.826736 0.00356806 0)
(0.871973 0.0604532 0)
(0.912671 0.0490767 0)
(0.803478 0.00163421 0)
(0.913729 0.0489642 0)
(0.919609 -0.00900676 0)
(0.990502 -0.000892356 0)
(0.769638 0.0701599 0)
(0.990799 -0.00106767 0)
(1.09482 -0.050812 0)
(0.76962 0.0523968 0)
(0.843826 0.000227896 0)
(0.975539 -0.000330137 0)
(0.977661 -1.07666e-05 0)
(0.863396 0.0052827 0)
(0.939372 0.0411304 0)
(0.843902 0.0010356 0)
(0.844104 0.00114879 0)
(1.10817 -0.0129644 0)
(0.891062 -0.00535412 0)
(0.994727 -0.00026749 0)
(0.804132 0.00143911 0)
(0.995088 -0.000489914 0)
(1.08317 -0.036784 0)
(0.873906 0.0594931 0)
(0.86207 -0.000810463 0)
(0.902204 -0.0149857 0)
(1.09406 -0.0458914 0)
(0.803076 0.000879137 0)
(0.985685 -0.0221649 0)
(1.11286 0.0121399 0)
(1.211 -0.00969645 0)
(0.950281 0.0347396 0)
(0.798388 0.000950078 0)
(0.811895 0.000250711 0)
(1.00064 -0.000705931 0)
(1.00161 -0.00100408 0)
(0.903909 0.00036561 0)
(0.900689 -0.00125291 0)
(0.843512 0.000258005 0)
(0.938631 0.00593109 0)
(0.797404 0.000659809 0)
(0.983715 -0.0231245 0)
(1.06903 -0.0325277 0)
(0.98139 -0.000870275 0)
(0.98242 -0.000136861 0)
(0.830842 0.00249684 0)
(0.795661 0.000895096 0)
(0.798292 0.000718893 0)
(0.892526 0.0126209 0)
(0.760295 0.0396511 0)
(0.825599 -0.00664632 0)
(1.00235 -0.000589933 0)
(1.00272 -0.00102341 0)
(0.865316 -0.00211478 0)
(1.0761 -0.0369586 0)
(0.801985 0.00222007 0)
(1.07647 -0.0370924 0)
(0.864464 0.00152466 0)
(1.14423 -0.100988 0)
(0.909051 0.0231541 0)
(1.13883 -0.0667953 0)
(0.831514 -0.00485172 0)
(0.988611 0.000127616 0)
(0.865332 0.00312734 0)
(0.989042 -0.000146563 0)
(0.867985 -0.00143291 0)
(1.12073 -0.0636326 0)
(0.844736 8.50919e-05 0)
(0.806815 0.0027866 0)
(0.844411 0.000109526 0)
(0.844285 0.00100047 0)
(0.80335 0.00321369 0)
(0.803048 0.00309351 0)
(0.803296 0.00315813 0)
(1.01159 -0.000917117 0)
(0.829831 -0.00499006 0)
(0.833394 -0.00396381 0)
(0.833159 -0.00420243 0)
(0.833231 -0.00401666 0)
(1.0122 -0.00106483 0)
(0.802631 0.00295813 0)
(0.878796 0.0590822 0)
(1.0672 -0.0336762 0)
(0.807065 0.00094154 0)
(0.828837 -0.00525252 0)
(0.857614 0.00412028 0)
(0.898285 0.0188399 0)
(0.954508 -0.0300642 0)
(1.1024 -0.0503489 0)
(0.991847 -0.00108406 0)
(0.926567 -0.0306789 0)
(0.992456 -0.000788685 0)
(0.818737 -0.0054976 0)
(0.824029 0.00321687 0)
(1.01299 -0.000775156 0)
(0.73817 0.0585899 0)
(0.842993 0.000985947 0)
(0.948561 0.0360232 0)
(1.01357 -0.00128246 0)
(0.906557 -0.01432 0)
(0.840486 -0.00230636 0)
(0.937872 -0.0252709 0)
(0.972947 0.0237737 0)
(0.976024 0.025359 0)
(0.809465 0.000570552 0)
(1.01531 -0.00392166 0)
(0.831123 0.00380554 0)
(0.919329 -0.00317397 0)
(0.916845 -0.0035759 0)
(0.880283 0.0580858 0)
(0.808343 0.00040644 0)
(0.835356 0.0303542 0)
(0.839608 -0.000134284 0)
(0.86005 -0.0012273 0)
(0.810439 -0.000141232 0)
(0.796469 -0.000506473 0)
(0.811702 5.85378e-05 0)
(0.843702 0.000943182 0)
(0.785361 0.0653215 0)
(0.843316 0.00104877 0)
(1.01195 -0.00351129 0)
(0.836197 0.0262591 0)
(0.979457 -0.0125417 0)
(0.810223 0.000608546 0)
(0.802553 -0.000835065 0)
(1.071 -0.0283818 0)
(0.835657 0.0264106 0)
(0.81817 0.00341392 0)
(1.01918 -0.00101042 0)
(0.863606 0.00059212 0)
(0.997889 7.08471e-05 0)
(0.863634 0.000643539 0)
(0.864651 0.00752613 0)
(1.01943 -0.00122119 0)
(0.998824 0.000107484 0)
(0.846839 0.000320987 0)
(1.12877 -0.00599521 0)
(0.865292 0.00584837 0)
(0.833778 0.00390529 0)
(0.838771 0.000442695 0)
(0.838532 0.000521896 0)
(1.02802 -0.0121729 0)
(0.950897 -0.00114234 0)
(0.844506 0.00120969 0)
(0.839575 -0.000138166 0)
(0.941018 -0.0236345 0)
(1.09741 -0.0481311 0)
(0.831011 0.0259355 0)
(0.948507 -0.0245395 0)
(0.846484 0.00032127 0)
(1.02557 -0.0108749 0)
(0.961338 0.0303645 0)
(0.850024 0.000555437 0)
(0.808027 0.000713365 0)
(1.05979 -0.0305095 0)
(0.829608 0.00262048 0)
(1.05537 -0.0194666 0)
(1.01092 -0.00291019 0)
(0.919999 -0.0183232 0)
(0.97049 -0.016178 0)
(0.850759 -0.00461121 0)
(0.838686 0.0318829 0)
(0.985547 -0.0122349 0)
(0.837239 0.0298793 0)
(1.00165 -0.00113583 0)
(1.02938 -0.0114541 0)
(0.804239 0.000521413 0)
(1.02721 -0.0115292 0)
(1.02668 -0.0120217 0)
(1.0007 -0.000827744 0)
(0.830439 -0.00491545 0)
(1.02466 -0.0118192 0)
(0.80229 0.00180264 0)
(0.843431 0.00229428 0)
(0.836938 0.027109 0)
(0.832876 -0.00422347 0)
(0.843016 0.00225495 0)
(1.09069 -0.00355044 0)
(0.90639 -0.00629612 0)
(0.981659 -0.0156115 0)
(1.10062 -0.0471147 0)
(1.02824 -0.00092295 0)
(1.04443 -0.0223262 0)
(0.971672 0.0257742 0)
(1.02901 -0.000674739 0)
(0.901651 -0.0359902 0)
(0.94 0.00819672 0)
(0.935704 0.00450245 0)
(0.866454 0.00853099 0)
(0.805755 0.00116324 0)
(0.806463 0.00111956 0)
(0.866395 0.00361899 0)
(0.747916 0.00736588 0)
(0.830422 0.00282671 0)
(1.0451 -0.0180782 0)
(0.892495 -0.00210653 0)
(1.17673 -0.0823071 0)
(1.04373 -0.0161934 0)
(1.03156 -0.011098 0)
(0.998453 -0.032332 0)
(1.03291 -0.0111667 0)
(0.8205 0.0080441 0)
(0.831278 -0.00495971 0)
(1.00715 -0.000192119 0)
(1.01404 -0.00454692 0)
(1.07131 -0.0615312 0)
(1.0096 -0.000175736 0)
(1.02825 -0.00129775 0)
(1.02874 -0.00209866 0)
(0.936738 0.00496383 0)
(0.995709 0.00150308 0)
(0.805294 0.00302712 0)
(0.948439 0.00506587 0)
(0.936617 0.040177 0)
(0.858551 -0.00145752 0)
(0.81065 0.0025968 0)
(0.804103 0.000775362 0)
(1.02973 -0.00585831 0)
(0.833844 0.0246333 0)
(0.925849 -0.0194666 0)
(0.976787 -0.0204144 0)
(0.860079 8.86132e-05 0)
(0.843576 0.000981479 0)
(1.02435 -0.00871424 0)
(0.807795 0.000677286 0)
(0.91753 0.0141963 0)
(0.999779 -0.0332852 0)
(0.771167 -0.0529061 0)
(1.01515 -0.00403724 0)
(0.811746 0.000476569 0)
(0.811425 0.000378335 0)
(1.0151 -0.00374107 0)
(0.815504 -0.00131975 0)
(1.01636 -0.0033657 0)
(1.00589 -0.00796511 0)
(1.01697 -0.00308689 0)
(0.891278 0.0196264 0)
(1.11314 0.00181624 0)
(1.14015 0.00316749 0)
(0.829242 0.00249689 0)
(1.02997 -0.0112154 0)
(1.01767 -0.00754181 0)
(0.837965 -0.00228821 0)
(0.863168 0.00123826 0)
(1.01145 -0.00149633 0)
(0.828728 0.001912 0)
(0.989191 -0.00172423 0)
(1.04851 -0.0226968 0)
(0.813738 0.000152084 0)
(0.852721 0.000542022 0)
(1.01108 -0.000995337 0)
(0.860031 0.00227792 0)
(0.864065 -0.00516626 0)
(0.842238 0.0171805 0)
(0.841278 0.0170375 0)
(1.08467 -0.0821338 0)
(0.84444 0.0180602 0)
(0.843315 0.017933 0)
(1.03708 -0.00146251 0)
(1.04791 -0.0240478 0)
(1.03595 -0.00200248 0)
(1.00856 -0.0265785 0)
(0.852555 0.0207601 0)
(0.852143 0.0206151 0)
(0.856992 0.0212817 0)
(0.855658 0.021303 0)
(0.809948 0.000530146 0)
(0.832521 0.0280296 0)
(0.857315 -0.000525985 0)
(1.03197 -0.0117719 0)
(1.18386 -0.0803712 0)
(0.84604 0.00118511 0)
(0.841213 0.000645284 0)
(0.859608 -0.00144226 0)
(0.835749 0.0245236 0)
(0.84652 0.00164198 0)
(0.840408 0.000523045 0)
(1.00242 -0.015889 0)
(0.945575 0.036492 0)
(0.910439 -0.00968836 0)
(0.951037 0.0341256 0)
(0.84339 0.00138772 0)
(0.853427 0.00172516 0)
(1.09701 -0.0500215 0)
(0.829815 0.00262777 0)
(0.844507 0.00151706 0)
(0.84557 0.00274314 0)
(1.01676 -0.000202007 0)
(0.848193 0.00405995 0)
(0.841129 0.00122255 0)
(1.0176 -0.000344554 0)
(0.954427 0.0331334 0)
(0.927175 0.0256907 0)
(0.803963 0.00293082 0)
(0.925048 0.0261154 0)
(0.924807 0.0259813 0)
(0.922746 0.0260686 0)
(0.891908 0.00677678 0)
(0.842038 0.00136372 0)
(1.04458 -0.00125292 0)
(1.04622 -0.00129646 0)
(0.948224 0.0376434 0)
(1.01391 0.0024153 0)
(0.846611 0.00309366 0)
(0.849583 0.000545704 0)
(0.698956 0.0155195 0)
(0.797405 -0.0018345 0)
(0.767319 0.0482631 0)
(0.939925 0.00111325 0)
(0.83529 0.025653 0)
(0.766181 0.0553787 0)
(0.834292 0.0310838 0)
(0.832364 -0.00416376 0)
(0.939512 0.0399087 0)
(0.93656 0.0417373 0)
(0.830674 -0.00504314 0)
(0.802433 0.00306169 0)
(1.05114 0.00026227 0)
(1.02476 -0.0108205 0)
(0.829298 -0.0052476 0)
(0.832859 -0.00338907 0)
(0.98073 0.0223413 0)
(0.862764 0.0224313 0)
(0.861616 0.0223732 0)
(0.866956 0.0228888 0)
(0.865835 0.0230373 0)
(0.871186 0.0233272 0)
(0.870213 0.0233921 0)
(0.876264 0.0234286 0)
(0.875364 0.0235143 0)
(1.2232 -0.103653 0)
(1.03356 -0.00993192 0)
(0.881108 0.023418 0)
(0.951227 -0.0285768 0)
(0.879626 0.0236007 0)
(0.885441 0.0234414 0)
(0.829196 -0.0050064 0)
(1.02672 -0.00410522 0)
(0.944263 -0.00461679 0)
(0.884862 0.0236068 0)
(0.803526 0.00310934 0)
(0.891301 0.023297 0)
(0.8265 -0.00192071 0)
(0.890177 0.0234646 0)
(0.905705 0.0237691 0)
(1.0251 -0.00906811 0)
(0.895362 0.0228493 0)
(0.870093 0.000780097 0)
(0.894349 0.0230519 0)
(0.815956 0.0675843 0)
(0.815335 0.00557883 0)
(0.901257 0.0224537 0)
(0.838189 0.000525388 0)
(0.90062 0.0226987 0)
(0.837943 0.000529299 0)
(1.06831 -0.0835533 0)
(0.869948 0.000799832 0)
(1.05566 -0.0214829 0)
(0.93816 -0.00326397 0)
(0.845382 0.00108144 0)
(0.844976 0.00104271 0)
(0.906785 0.0218642 0)
(0.905186 0.0220294 0)
(0.806977 0.00244594 0)
(1.01517 -0.0051985 0)
(0.91092 0.0211808 0)
(0.910685 0.0215119 0)
(0.984845 0.0193507 0)
(0.811224 0.000437791 0)
(0.811871 0.000371706 0)
(0.920036 0.0203706 0)
(1.04835 -0.00141902 0)
(0.919887 0.0206272 0)
(0.822704 0.000479801 0)
(1.02336 -0.00145497 0)
(0.925335 0.0186434 0)
(1.05094 -0.0445208 0)
(0.922813 0.0193164 0)
(1.05057 -0.00167261 0)
(1.02594 -0.00062421 0)
(0.829274 -0.00297962 0)
(0.845279 0.00163124 0)
(0.845559 0.00173646 0)
(0.929708 0.0182183 0)
(0.930459 0.0183005 0)
(0.865138 -0.0076087 0)
(0.82978 -0.00335254 0)
(0.831376 -0.0036098 0)
(0.937178 0.0165341 0)
(1.03559 -0.0142877 0)
(0.934751 0.0171341 0)
(1.07558 -0.0428521 0)
(0.804501 0.00243028 0)
(0.942789 0.014534 0)
(0.940887 0.0151633 0)
(0.844108 0.00250168 0)
(0.842196 0.00197276 0)
(0.843741 0.00245321 0)
(0.962427 -0.0151809 0)
(0.841807 0.00192043 0)
(1.01761 -0.00552443 0)
(0.995567 -0.00161816 0)
(0.930047 0.0425675 0)
(0.808412 0.000936224 0)
(0.948919 0.0126866 0)
(0.854605 0.00161899 0)
(0.949022 0.0129329 0)
(0.855186 0.00178588 0)
(0.802984 0.000495444 0)
(1.00989 -0.0070106 0)
(1.00887 -0.00639902 0)
(0.961011 0.0117514 0)
(0.959957 0.0119871 0)
(1.02979 -0.0118896 0)
(1.00206 -0.0076362 0)
(0.959478 0.00947737 0)
(1.00721 -0.00574877 0)
(0.958303 0.00984428 0)
(0.80611 0.00127437 0)
(0.973554 0.0240574 0)
(0.968324 0.00735505 0)
(0.968944 0.00735194 0)
(0.842985 0.00102598 0)
(1.05876 -0.0295619 0)
(0.978348 0.00622002 0)
(0.977569 0.00640319 0)
(0.68984 0.026266 0)
(0.866956 0.00253955 0)
(0.866934 0.00267595 0)
(0.843625 0.000995818 0)
(0.980367 0.00422333 0)
(1.03919 -0.0115061 0)
(0.979144 0.00422234 0)
(0.902864 -0.0157007 0)
(0.986971 0.00249537 0)
(1.02932 -0.0111469 0)
(1.08535 -0.0569872 0)
(0.987132 0.00236538 0)
(0.987604 0.00272077 0)
(0.99625 -0.00166223 0)
(0.993069 0.00112351 0)
(0.991684 0.00135528 0)
(1.07181 -0.0325372 0)
(1.07845 -0.0396435 0)
(0.849025 0.0195239 0)
(1.01549 -0.0255606 0)
(0.760585 0.0450258 0)
(1.05625 -0.00122064 0)
(0.858185 -0.00117948 0)
(1.07121 -0.05385 0)
(1.05483 -0.00156967 0)
(1.04558 -0.0447195 0)
(1.01907 0.004666 0)
(0.985663 0.00531229 0)
(0.858397 0.0217466 0)
(0.847913 0.0195121 0)
(0.857704 0.0216298 0)
(1.02921 -0.000886162 0)
(0.854625 0.00161226 0)
(0.846557 0.0189127 0)
(0.855217 0.00170881 0)
(0.825643 0.000566738 0)
(0.8455 0.0187949 0)
(1.02687 -0.0011686 0)
(0.825984 0.000457758 0)
(0.850375 0.0201373 0)
(0.851572 0.0202409 0)
(1.05894 -0.0257054 0)
(1.08231 -0.0356534 0)
(0.810763 -0.000127531 0)
(0.975094 0.0229885 0)
(1.06944 -0.0993396 0)
(0.94577 -0.00293339 0)
(0.829584 0.00285041 0)
(0.867316 -0.00221076 0)
(0.793659 0.000456618 0)
(0.831674 0.0273498 0)
(0.825059 0.00303727 0)
(0.95635 -0.0305597 0)
(0.853386 0.00176937 0)
(1.02568 -0.0108405 0)
(0.834139 0.0253063 0)
(0.93239 0.0221979 0)
(1.01445 -0.0351778 0)
(0.930536 0.0220624 0)
(1.04297 -0.0438258 0)
(0.843288 0.000955978 0)
(0.914808 -0.015799 0)
(0.935663 -0.0049907 0)
(0.923654 0.0252977 0)
(0.834048 0.0273079 0)
(0.866005 0.00781815 0)
(0.806379 0.00257358 0)
(0.82206 0.00203454 0)
(0.853931 0.000234111 0)
(0.928706 0.0217955 0)
(0.928952 0.0226702 0)
(0.968552 -0.0341913 0)
(0.948867 -0.00702403 0)
(0.972883 -0.00283992 0)
(0.832711 -0.00412698 0)
(1.06114 -0.0218859 0)
(0.800507 0.000137971 0)
(0.830313 -0.00511466 0)
(0.927047 0.0225323 0)
(1.00183 -0.00188987 0)
(0.835755 0.0299207 0)
(0.989079 -0.0237289 0)
(0.835678 0.0309371 0)
(0.835742 0.0289794 0)
(0.974479 0.0243454 0)
(0.973284 0.0254937 0)
(0.821673 -0.00312999 0)
(0.925719 0.0221648 0)
(1.09445 -0.0454744 0)
(1.02996 -0.0121207 0)
(0.831823 0.000274411 0)
(1.0332 -0.0106952 0)
(1.06334 -0.00238053 0)
(0.832123 0.000336716 0)
(0.834788 0.0283355 0)
(1.02441 -0.0117872 0)
(1.02414 -0.00857478 0)
(0.834495 0.0271689 0)
(1.06336 -0.00239076 0)
(0.831624 -0.0356931 0)
(0.830466 0.02624 0)
(0.908614 0.00990571 0)
(0.913734 0.0206521 0)
(0.912335 0.0209304 0)
(1.03321 -0.010791 0)
(0.852355 0.000556705 0)
(0.833687 -0.0290455 0)
(0.850224 -0.0325464 0)
(0.916179 -0.00941503 0)
(1.06612 -0.0290519 0)
(0.844257 0.00104991 0)
(1.01512 -0.00359678 0)
(0.936428 -0.0293783 0)
(1.08166 -0.0414133 0)
(0.820565 0.0678577 0)
(0.811412 0.000336398 0)
(0.810469 0.000526254 0)
(0.833011 0.000261185 0)
(0.940073 0.0165042 0)
(0.939482 0.0165873 0)
(0.860208 0.0219796 0)
(0.832296 0.0314765 0)
(0.865545 -0.00110739 0)
(1.03913 -0.000335256 0)
(0.948979 0.0141948 0)
(0.906302 -0.0135229 0)
(0.831828 0.0317372 0)
(0.94708 0.0146155 0)
(1.03902 -0.000185973 0)
(1.03415 -0.0114293 0)
(1.03596 -0.0122295 0)
(0.857841 0.00616854 0)
(1.02685 -0.0118094 0)
(1.01435 -0.00396844 0)
(1.08477 -0.0581439 0)
(1.02787 -0.0113574 0)
(1.09769 -0.0466627 0)
(0.96833 0.00909567 0)
(0.844116 0.00118797 0)
(0.844533 0.00117624 0)
(0.964938 0.00959829 0)
(0.829228 0.00261116 0)
(0.842688 0.000990133 0)
(1.02481 -0.00921903 0)
(1.02729 -0.0111846 0)
(0.843375 0.00103081 0)
(1.0674 -0.00100488 0)
(1.10596 -0.0325883 0)
(1.01483 -0.00527104 0)
(1.05378 -0.0297176 0)
(1.07077 -0.0302307 0)
(1.06798 -0.00109408 0)
(1.08559 -0.0422898 0)
(1.11528 -0.0358588 0)
(1.05623 -0.0472432 0)
(1.05736 -0.0495025 0)
(0.884905 0.000248863 0)
(0.816955 0.0188626 0)
(0.898277 -0.00633853 0)
(0.816336 0.0189476 0)
(0.885703 7.13902e-05 0)
(1.02321 -0.0104578 0)
(1.09257 -0.0297727 0)
(1.03954 -0.0368497 0)
(0.815299 0.00438695 0)
(0.84401 0.00097002 0)
(1.01213 -0.00322527 0)
(0.809842 0.000769729 0)
(1.01275 -0.00310357 0)
(1.01247 -0.00381003 0)
(0.837148 0.0311994 0)
(0.838163 0.0321178 0)
(0.933101 0.00317924 0)
(0.836773 0.0303055 0)
(0.829109 0.00266262 0)
(0.83703 0.0292202 0)
(0.828084 -0.00523266 0)
(1.02738 -0.0100791 0)
(1.00346 -0.00654586 0)
(0.954487 -0.0147747 0)
(0.849592 -0.0317785 0)
(0.832039 -0.00481145 0)
(1.03735 -0.00265788 0)
(0.865171 0.00255178 0)
(1.01164 -0.00528941 0)
(1.01265 -0.00521957 0)
(1.0394 -0.00175494 0)
(0.831851 0.026378 0)
(1.01401 -0.007598 0)
(1.01997 -0.00951708 0)
(1.01534 -0.00795334 0)
(0.82218 -0.00641936 0)
(0.819898 -0.0066632 0)
(0.82892 -0.00560542 0)
(0.827136 -0.00692589 0)
(1.02135 -0.009461 0)
(1.01613 -0.0023329 0)
(0.836432 -0.000223809 0)
(0.986559 0.0182166 0)
(0.836545 0.0273789 0)
(1.08877 -0.0358919 0)
(0.836702 -0.000226007 0)
(1.11521 -0.0377345 0)
(0.930267 -0.00304341 0)
(0.937609 -0.0498156 0)
(0.813616 0.00440442 0)
(1.06945 -0.00247543 0)
(1.07069 -0.00220682 0)
(0.993624 -0.0294774 0)
(0.791412 0.0670523 0)
(0.859137 0.0220494 0)
(1.03953 -0.0403988 0)
(0.92103 -0.00633071 0)
(0.921104 -0.0495967 0)
(1.0421 -0.0405021 0)
(0.854281 0.0208896 0)
(0.853144 0.020941 0)
(1.02917 -0.012844 0)
(0.896258 -0.0147957 0)
(0.815174 0.0050163 0)
(0.813904 0.00501371 0)
(1.00506 -0.00642013 0)
(1.20925 -0.087372 0)
(0.987243 0.0111222 0)
(1.02609 -0.0111016 0)
(0.857516 0.000642229 0)
(0.847339 0.0193134 0)
(0.810939 0.000287593 0)
(0.846954 0.0192708 0)
(0.85356 0.000266055 0)
(0.843017 0.0176251 0)
(0.740177 0.0501256 0)
(0.842552 0.0174827 0)
(0.958988 -0.00182604 0)
(1.08311 -0.0368517 0)
(1.04458 -0.0438972 0)
(0.902356 -0.0191133 0)
(0.857281 -0.0163666 0)
(0.847443 -0.0199533 0)
(0.868811 -0.0327731 0)
(1.06297 -0.0262363 0)
(0.979531 0.000288871 0)
(0.92659 -0.00654018 0)
(0.804444 -0.0354345 0)
(0.898972 0.022722 0)
(0.893112 0.0232387 0)
(0.88813 0.0232609 0)
(0.903247 0.0220232 0)
(0.89759 0.0230337 0)
(0.830919 0.00255283 0)
(0.928927 -0.0436203 0)
(0.892536 0.0233364 0)
(0.883672 0.0235534 0)
(0.902368 0.0221161 0)
(1.03535 -0.0121833 0)
(0.886786 0.0235376 0)
(0.920971 0.0207185 0)
(0.909527 0.0218377 0)
(0.882708 0.0236891 0)
(0.856899 0.000588849 0)
(0.878092 0.0234492 0)
(0.908691 0.0220356 0)
(0.877207 0.0235135 0)
(0.844772 0.0026605 0)
(0.918173 0.0205725 0)
(0.864424 0.0595513 0)
(0.873984 0.0233707 0)
(0.872685 0.0235521 0)
(0.916655 0.020815 0)
(0.869063 0.0231946 0)
(0.867882 0.0262656 0)
(0.920566 0.019436 0)
(0.868164 0.0231869 0)
(0.844633 0.00102213 0)
(0.864569 0.0228089 0)
(0.920318 0.0197745 0)
(0.806906 0.00103193 0)
(0.929554 0.0186276 0)
(0.863752 0.0228002 0)
(0.930911 -0.000675344 0)
(0.832964 -0.00382221 0)
(0.882398 -0.00314031 0)
(0.928418 0.0188858 0)
(0.84442 0.00263112 0)
(0.839773 0.000444918 0)
(0.842756 0.00215813 0)
(0.931196 0.0172266 0)
(0.922573 0.0259053 0)
(0.842421 0.000979131 0)
(0.842451 0.00210878 0)
(0.839162 0.000457227 0)
(0.930273 0.0175033 0)
(0.886794 0.000310328 0)
(0.914228 -0.0311276 0)
(0.939388 0.0156125 0)
(0.80578 0.00190864 0)
(1.01546 -0.000729486 0)
(0.939912 0.0157366 0)
(0.949772 0.0141761 0)
(0.950658 0.014093 0)
(1.0859 -0.0389312 0)
(0.955798 0.0117131 0)
(0.951867 0.0124794 0)
(0.957999 0.0109177 0)
(0.807166 -0.00243246 0)
(0.955541 0.000211535 0)
(0.96055 0.0108254 0)
(0.803201 0.00165793 0)
(0.970054 0.00889426 0)
(1.02291 -0.0292281 0)
(0.802789 0.00130761 0)
(0.864582 0.00256847 0)
(0.97075 0.00889628 0)
(1.05355 -0.0204284 0)
(0.938631 -0.0192293 0)
(0.97364 0.0064838 0)
(0.970602 0.00694718 0)
(0.977899 0.0051329 0)
(1.04601 -0.00202069 0)
(0.978972 0.00511813 0)
(0.862351 -0.0121834 0)
(0.985701 0.00347466 0)
(0.81547 -0.00551702 0)
(1.00464 -0.00217312 0)
(1.04582 -0.00162299 0)
(0.984375 0.00385084 0)
(0.982835 0.0204618 0)
(0.988757 0.0170768 0)
(1.02825 -0.0105885 0)
(0.988855 0.00144414 0)
(1.0032 -0.00445733 0)
(1.00407 -0.00413249 0)
(0.943964 -0.00781601 0)
(0.987984 0.00133262 0)
(0.994741 -9.58228e-05 0)
(0.995327 0.000403845 0)
(0.951081 -8.10044e-05 0)
(0.898805 -0.028536 0)
(0.815941 -0.0547697 0)
(0.824467 -0.00439796 0)
(0.890684 -0.0148583 0)
(0.831866 -0.00451886 0)
(0.833632 -0.0128381 0)
(0.95948 -0.024049 0)
(0.897215 -0.0237709 0)
(0.909109 0.00146416 0)
(0.757227 0.0529905 0)
(0.892358 -0.00371858 0)
(0.860944 0.0103647 0)
(1.0096 -0.000838217 0)
(0.92265 -0.00885313 0)
(0.949613 0.0364572 0)
(0.943968 0.0380279 0)
(0.827283 -0.0046997 0)
(1.06923 -0.00303637 0)
(0.928001 0.019298 0)
(0.921472 0.0203098 0)
(0.870664 0.00156844 0)
(0.981297 -0.00420832 0)
(0.931772 0.0190719 0)
(0.925257 0.020067 0)
(0.930644 0.0192555 0)
(0.927582 0.0257771 0)
(0.945458 0.0164835 0)
(1.07555 -0.0355029 0)
(1.01409 -0.00420634 0)
(1.02462 -0.0111274 0)
(0.826735 -0.00420833 0)
(1.02262 -0.00534266 0)
(1.09103 -0.0303985 0)
(1.04715 -0.047007 0)
(0.986944 0.0179884 0)
(0.828494 0.000500227 0)
(0.901144 0.0244226 0)
(0.926595 0.0261932 0)
(1.07673 -0.0746095 0)
(0.814669 0.00160454 0)
(0.90773 0.000512997 0)
(1.01104 -0.0155796 0)
(1.0053 0.00539984 0)
(0.910767 1.08604e-05 0)
(0.834137 0.00716998 0)
(0.864061 0.0252252 0)
(0.807117 0.000833573 0)
(1.04066 -0.0127316 0)
(0.985416 0.0173059 0)
(1.01882 -0.00871334 0)
(0.931985 0.0186936 0)
(0.984521 0.0199841 0)
(0.975442 0.0231027 0)
(0.824038 -0.0228217 0)
(1.05438 -0.00100371 0)
(1.00472 0.00696039 0)
(1.05577 -0.000634509 0)
(1.00429 -0.00239371 0)
(0.904457 -0.000175515 0)
(1.14705 -0.0680067 0)
(1.10978 -0.0345185 0)
(0.808646 -0.0188296 0)
(1.0158 0.000767593 0)
(0.922601 0.0200301 0)
(0.998963 -0.00188313 0)
(0.803388 0.00221258 0)
(0.922933 0.0202639 0)
(0.883913 0.0258298 0)
(1.03626 -0.0110924 0)
(0.994563 0.0108513 0)
(0.806704 0.00117346 0)
(0.802951 0.00235757 0)
(0.883221 0.00229247 0)
(1.01924 -0.00543018 0)
(0.833915 0.0316416 0)
(0.828338 -0.00502785 0)
(0.886518 0.00205626 0)
(0.845526 -0.0180459 0)
(0.994217 0.0119339 0)
(1.09707 -0.0514163 0)
(0.83027 0.000245412 0)
(0.900142 0.0128444 0)
(0.888482 0.00182383 0)
(1.02353 -0.00587116 0)
(1.0251 -0.00771911 0)
(0.858766 0.000998448 0)
(0.830479 0.000248074 0)
(0.785236 -0.0652232 0)
(1.04968 -0.0462947 0)
(0.869685 0.0260223 0)
(1.04833 -0.045424 0)
(0.999062 -0.00833627 0)
(0.998654 -0.00898755 0)
(0.763757 0.00568874 0)
(0.921655 0.0204436 0)
(1.00983 -0.00476801 0)
(0.834316 0.0244581 0)
(0.948894 -0.0158306 0)
(0.891575 0.00181185 0)
(0.983612 0.0168959 0)
(0.906719 -0.00161971 0)
(1.00691 0.00179511 0)
(1.08309 -0.029949 0)
(0.875322 0.00176063 0)
(0.874283 0.00190341 0)
(1.02309 -0.00568016 0)
(0.923797 -0.0133906 0)
(1.00781 -0.00541632 0)
(1.02518 -0.0104185 0)
(1.01923 -0.010596 0)
(1.01854 -0.0120787 0)
(0.875347 0.00183198 0)
(0.905188 -0.00220796 0)
(1.0051 -0.00515495 0)
(1.03422 -0.0124827 0)
(1.02939 -0.0124351 0)
(1.0678 -0.0511189 0)
(0.982385 0.0176509 0)
(0.835266 0.0247947 0)
(1.02585 -0.00625708 0)
(1.19223 -0.0569045 0)
(1.01248 -0.00663452 0)
(1.13115 -0.0546676 0)
(1.01357 -0.00640507 0)
(0.926036 0.026357 0)
(0.441385 0.00394868 0)
(0.858728 0.00199108 0)
(0.858007 0.0020213 0)
(1.09372 -0.0283665 0)
(1.02012 -0.00848187 0)
(0.864757 0.000476815 0)
(1.03423 -0.0107963 0)
(1.01891 -0.0083066 0)
(0.919115 -0.000960838 0)
(1.02471 -0.00336895 0)
(1.04317 -0.0393209 0)
(1.03874 -0.0115048 0)
(0.902915 -0.00886465 0)
(0.950917 -0.0146901 0)
(0.903452 0.0248332 0)
(0.872139 0.00281572 0)
(0.869794 0.0026073 0)
(1.02506 -0.00436263 0)
(0.894385 0.0257696 0)
(0.862637 0.00227618 0)
(0.85702 0.00172051 0)
(0.841345 0.0259697 0)
(1.02172 -0.0109343 0)
(0.860613 0.00210914 0)
(1.02083 -0.0109505 0)
(1.19055 -0.0867634 0)
(1.19315 -0.0277207 0)
(1.01445 -0.00963036 0)
(0.809724 0.00101745 0)
(0.840062 0.0258961 0)
(1.01903 -0.00368458 0)
(0.828588 0.00233909 0)
(0.854179 0.0297952 0)
(1.02772 -0.00925017 0)
(0.859412 0.0305762 0)
(0.852894 0.0296974 0)
(0.876063 0.00339569 0)
(1.04727 0.0212968 0)
(0.858035 0.0306808 0)
(1.02477 -0.00933505 0)
(1.03559 -0.00259945 0)
(0.904854 0.0241508 0)
(0.846205 0.00301681 0)
(0.991398 0.0062299 0)
(0.868157 0.0310859 0)
(0.886266 0.026465 0)
(1.01918 -0.00272248 0)
(0.824997 0.00311905 0)
(0.911204 0.0235757 0)
(0.867072 0.0312969 0)
(0.877741 0.0310141 0)
(0.827972 0.0303642 0)
(1.01542 -0.00547218 0)