/*--------------------------------*- C++ -*----------------------------------*\
  =========                 |
  \\      /  F ield         | OpenFOAM: The Open Source CFD Toolbox
   \\    /   O peration     | Website:  https://openfoam.org
    \\  /    A nd           | Version:  12
     \\/     M anipulation  |
\*---------------------------------------------------------------------------*/
FoamFile
{
    format      ascii;
    class       volVectorField;
    location    "5.6";
    object      U;
}
// * * * * * * * * * * * * * * * * * * * * * * * * * * * * * * * * * * * * * //

dimensions      [0 1 -1 0 0 0 0];

internalField   nonuniform List<vector> 
9801
(
(1.12885 -0.0678094 0)
(1.13088 -0.0634666 0)
(1.12913 -0.0613627 0)
(1.12599 -0.0589493 0)
(1.12216 -0.056377 0)
(1.11886 -0.0534561 0)
(1.11603 -0.0508979 0)
(1.11343 -0.0488706 0)
(1.11094 -0.0471655 0)
(1.11053 -0.0451703 0)
(1.11478 -0.0427259 0)
(1.11719 -0.0401406 0)
(1.11625 -0.0376564 0)
(1.1135 -0.0353621 0)
(1.10948 -0.0330147 0)
(1.10543 -0.0304472 0)
(1.10229 -0.0277964 0)
(1.09947 -0.0256918 0)
(1.09678 -0.0241079 0)
(1.09487 -0.0223559 0)
(1.09736 -0.0202939 0)
(1.10129 -0.0180006 0)
(1.10136 -0.015602 0)
(1.09893 -0.0136302 0)
(1.09472 -0.0116351 0)
(1.08987 -0.00941236 0)
(1.08609 -0.00685487 0)
(1.08297 -0.00471665 0)
(1.07996 -0.00324681 0)
(1.07725 -0.00198159 0)
(1.07765 -0.00024053 0)
(1.08212 0.00189551 0)
(1.08355 0.0040821 0)
(1.08154 0.00581751 0)
(1.07745 0.00737086 0)
(1.07159 0.00917509 0)
(1.06683 0.0115683 0)
(1.06343 0.013793 0)
(1.06044 0.0152517 0)
(1.05727 0.0163609 0)
(1.05598 0.0175963 0)
(1.0601 0.0192177 0)
(1.06291 0.0210346 0)
(1.06114 0.0224739 0)
(1.05706 0.0235764 0)
(1.05047 0.0249081 0)
(1.04419 0.0268082 0)
(1.03978 0.0290669 0)
(1.03616 0.0306736 0)
(1.03285 0.0315345 0)
(1.03024 0.0322913 0)
(1.03343 0.033689 0)
(1.03803 0.0353057 0)
(1.03678 0.0366668 0)
(1.03251 0.0373566 0)
(1.0252 0.0380893 0)
(1.01706 0.0392633 0)
(1.01138 0.0409905 0)
(1.00721 0.042493 0)
(1.00343 0.043372 0)
(0.999862 0.0439248 0)
(1.00223 0.0450727 0)
(1.00821 0.0466237 0)
(1.00788 0.0478109 0)
(1.00398 0.0481117 0)
(0.995402 0.0482847 0)
(0.983569 0.0485151 0)
(0.975762 0.0496773 0)
(0.970078 0.0511988 0)
(0.965463 0.0523324 0)
(0.961812 0.0529472 0)
(0.963798 0.0537282 0)
(0.970777 0.0543016 0)
(0.971224 0.0540879 0)
(0.967154 0.0542041 0)
(0.959234 0.0547346 0)
(0.9431 0.0558905 0)
(0.929555 0.0586563 0)
(0.921406 0.0608793 0)
(0.915327 0.0620941 0)
(0.910443 0.0626089 0)
(0.914795 0.0621683 0)
(0.923227 0.0624258 0)
(0.922141 0.0642333 0)
(0.915961 0.0659064 0)
(0.904755 0.0685253 0)
(0.882741 0.0696155 0)
(0.85981 0.0701969 0)
(0.844969 0.0690595 0)
(0.835494 0.0673288 0)
(0.833085 0.0646477 0)
(0.841126 0.0642424 0)
(0.839189 0.0657483 0)
(0.827371 0.0655473 0)
(0.808044 0.0629472 0)
(0.768559 0.0578258 0)
(0.711878 0.0308158 0)
(0.368005 -0.0482026 0)
(-0.507148 -0.030345 0)
(1.20408 -0.11521 0)
(1.20294 -0.111197 0)
(1.20003 -0.108751 0)
(1.19646 -0.106591 0)
(1.19095 -0.10386 0)
(1.18458 -0.100724 0)
(1.18003 -0.0980228 0)
(1.17652 -0.0958087 0)
(1.17378 -0.0937831 0)
(1.17491 -0.0914094 0)
(1.17795 -0.0889965 0)
(1.17728 -0.0860111 0)
(1.17451 -0.0830838 0)
(1.17107 -0.0809113 0)
(1.16657 -0.0786047 0)
(1.15955 -0.0756957 0)
(1.15398 -0.0729115 0)
(1.14989 -0.0705604 0)
(1.14657 -0.0687596 0)
(1.14489 -0.0665996 0)
(1.14765 -0.0640112 0)
(1.1489 -0.0611939 0)
(1.14674 -0.0582516 0)
(1.14332 -0.0560441 0)
(1.1394 -0.0541591 0)
(1.13242 -0.0517023 0)
(1.12566 -0.0490637 0)
(1.12089 -0.0466517 0)
(1.11715 -0.0446857 0)
(1.11416 -0.0430126 0)
(1.11465 -0.0405883 0)
(1.11723 -0.0376263 0)
(1.11629 -0.034609 0)
(1.11317 -0.0321822 0)
(1.10952 -0.0304846 0)
(1.10308 -0.0283193 0)
(1.09499 -0.0258378 0)
(1.08943 -0.0235347 0)
(1.0853 -0.0216704 0)
(1.08172 -0.0202129 0)
(1.0803 -0.0184259 0)
(1.08348 -0.0156764 0)
(1.08418 -0.0125692 0)
(1.08151 -0.0100455 0)
(1.07805 -0.00856873 0)
(1.07203 -0.00674032 0)
(1.0625 -0.0042135 0)
(1.0557 -0.00157812 0)
(1.05093 0.000585922 0)
(1.04708 0.00202209 0)
(1.04417 0.00330858 0)
(1.04649 0.00564519 0)
(1.04937 0.00859595 0)
(1.0474 0.0111737 0)
(1.04384 0.0123596 0)
(1.03859 0.01345 0)
(1.02796 0.0153327 0)
(1.01965 0.0178724 0)
(1.0143 0.0202047 0)
(1.00996 0.0219413 0)
(1.00607 0.0230449 0)
(1.00744 0.0250901 0)
(1.01184 0.0283404 0)
(1.01072 0.0310356 0)
(1.0073 0.0323326 0)
(1.00212 0.0332119 0)
(0.990253 0.0338604 0)
(0.9797 0.0355096 0)
(0.972915 0.0377471 0)
(0.967795 0.0391901 0)
(0.963621 0.0399002 0)
(0.964745 0.0421713 0)
(0.971278 0.045387 0)
(0.971046 0.048854 0)
(0.966846 0.050355 0)
(0.960815 0.0515941 0)
(0.946591 0.0516258 0)
(0.931569 0.0510956 0)
(0.922643 0.0519185 0)
(0.916305 0.0525884 0)
(0.911387 0.0530802 0)
(0.914384 0.0563066 0)
(0.919871 0.0603637 0)
(0.918656 0.064945 0)
(0.913436 0.0678673 0)
(0.90547 0.068104 0)
(0.887934 0.0648104 0)
(0.862628 0.060718 0)
(0.846046 0.0604465 0)
(0.835255 0.0592223 0)
(0.828214 0.0586128 0)
(0.82988 0.0651543 0)
(0.827012 0.072467 0)
(0.816016 0.0727412 0)
(0.79924 0.0707703 0)
(0.763149 0.0659939 0)
(0.713871 0.0413601 0)
(0.371256 -0.0414539 0)
(-0.511626 -0.0282088 0)
(1.19985 -0.112235 0)
(1.19851 -0.10844 0)
(1.19559 -0.10606 0)
(1.19184 -0.103502 0)
(1.18639 -0.100761 0)
(1.18025 -0.0982662 0)
(1.17582 -0.0960018 0)
(1.17223 -0.0937439 0)
(1.16947 -0.0914141 0)
(1.17041 -0.0885606 0)
(1.17307 -0.0860437 0)
(1.17264 -0.0836652 0)
(1.17015 -0.0811104 0)
(1.1667 -0.0787009 0)
(1.16217 -0.0761447 0)
(1.15538 -0.0736359 0)
(1.14992 -0.0714422 0)
(1.1458 -0.0691554 0)
(1.1424 -0.0669711 0)
(1.14056 -0.0644247 0)
(1.14305 -0.061527 0)
(1.14441 -0.0590643 0)
(1.14258 -0.0566843 0)
(1.13931 -0.0544402 0)
(1.13528 -0.0522711 0)
(1.12862 -0.0499594 0)
(1.12196 -0.0479741 0)
(1.11719 -0.0458619 0)
(1.11327 -0.0436696 0)
(1.11004 -0.0416191 0)
(1.11004 -0.0386832 0)
(1.11287 -0.0356938 0)
(1.11242 -0.0332538 0)
(1.10958 -0.0309901 0)
(1.10584 -0.0290496 0)
(1.09982 -0.0269214 0)
(1.09208 -0.0252757 0)
(1.08651 -0.023588 0)
(1.08198 -0.0215613 0)
(1.07816 -0.0196168 0)
(1.0761 -0.0173433 0)
(1.07909 -0.0139203 0)
(1.08045 -0.0110592 0)
(1.0782 -0.00875394 0)
(1.07469 -0.00702923 0)
(1.06889 -0.0051342 0)
(1.05998 -0.00385796 0)
(1.05346 -0.00260152 0)
(1.04839 -0.000904786 0)
(1.04423 0.00100646 0)
(1.04095 0.00300114 0)
(1.04268 0.00616065 0)
(1.04604 0.00953301 0)
(1.04459 0.0120849 0)
(1.04109 0.013621 0)
(1.03582 0.0151419 0)
(1.02557 0.0161054 0)
(1.01739 0.0169922 0)
(1.01167 0.0186625 0)
(1.00699 0.0206301 0)
(1.00317 0.0224521 0)
(1.00405 0.0250174 0)
(1.00865 0.028579 0)
(1.00826 0.0315119 0)
(1.00505 0.0333473 0)
(1.00015 0.0347723 0)
(0.988741 0.0350014 0)
(0.977125 0.0345969 0)
(0.969642 0.035762 0)
(0.964165 0.0374764 0)
(0.959933 0.0390291 0)
(0.9605 0.0418678 0)
(0.966969 0.0463527 0)
(0.967775 0.0501323 0)
(0.96408 0.0523627 0)
(0.958761 0.0534105 0)
(0.945936 0.0525196 0)
(0.928888 0.049508 0)
(0.918387 0.049206 0)
(0.911597 0.0504714 0)
(0.90616 0.051487 0)
(0.906572 0.0553931 0)
(0.912161 0.0620802 0)
(0.912446 0.0652072 0)
(0.907823 0.0651983 0)
(0.901069 0.064908 0)
(0.88569 0.0636666 0)
(0.859492 0.0591955 0)
(0.840888 0.0552426 0)
(0.829286 0.0547419 0)
(0.820244 0.0539535 0)
(0.818253 0.0546266 0)
(0.817125 0.0561188 0)
(0.809088 0.0545996 0)
(0.795848 0.0523886 0)
(0.767696 0.0494716 0)
(0.727938 0.0262096 0)
(0.375421 -0.0454084 0)
(-0.511783 -0.0176987 0)
(1.19123 -0.110618 0)
(1.18953 -0.106793 0)
(1.18677 -0.104281 0)
(1.18313 -0.101667 0)
(1.17824 -0.0989556 0)
(1.17194 -0.0964513 0)
(1.16742 -0.0943736 0)
(1.1639 -0.092401 0)
(1.16131 -0.0900881 0)
(1.16264 -0.0868967 0)
(1.16488 -0.0840344 0)
(1.16408 -0.0816123 0)
(1.16164 -0.0792733 0)
(1.15835 -0.0770462 0)
(1.15423 -0.0747179 0)
(1.14774 -0.0722112 0)
(1.14203 -0.0700219 0)
(1.13794 -0.0679669 0)
(1.13456 -0.0659529 0)
(1.13288 -0.0632692 0)
(1.13533 -0.0601483 0)
(1.13641 -0.0575992 0)
(1.1346 -0.0554236 0)
(1.1316 -0.0534165 0)
(1.12788 -0.0515278 0)
(1.12202 -0.0492395 0)
(1.11492 -0.0470076 0)
(1.11001 -0.0448141 0)
(1.10613 -0.0424561 0)
(1.10297 -0.0400866 0)
(1.1031 -0.0369954 0)
(1.10591 -0.0341602 0)
(1.10541 -0.0320573 0)
(1.10273 -0.0302675 0)
(1.09921 -0.0287652 0)
(1.09405 -0.0269889 0)
(1.0861 -0.0250338 0)
(1.08017 -0.0228628 0)
(1.07572 -0.0203173 0)
(1.07201 -0.0178972 0)
(1.06993 -0.0152814 0)
(1.07279 -0.0119791 0)
(1.0743 -0.00940805 0)
(1.07221 -0.00764528 0)
(1.06878 -0.00647625 0)
(1.06383 -0.00520832 0)
(1.05503 -0.00418624 0)
(1.04774 -0.00268906 0)
(1.04262 -0.000444017 0)
(1.03847 0.00196216 0)
(1.03521 0.00446491 0)
(1.0367 0.00786561 0)
(1.04018 0.0109929 0)
(1.03914 0.0131706 0)
(1.03591 0.0145166 0)
(1.03144 0.01565 0)
(1.02175 0.0161315 0)
(1.01218 0.016417 0)
(1.00609 0.0181487 0)
(1.00128 0.0204505 0)
(0.997414 0.0227509 0)
(0.99785 0.0258185 0)
(1.00243 0.0293542 0)
(1.0028 0.0319343 0)
(0.999994 0.0337078 0)
(0.995928 0.0347235 0)
(0.986482 0.0349665 0)
(0.972914 0.0338831 0)
(0.964089 0.0346137 0)
(0.958369 0.0364237 0)
(0.953792 0.0381882 0)
(0.952671 0.0411609 0)
(0.958598 0.0459764 0)
(0.960735 0.0494971 0)
(0.95782 0.0512212 0)
(0.953302 0.0519458 0)
(0.944276 0.0519072 0)
(0.926152 0.048777 0)
(0.912383 0.0469529 0)
(0.904526 0.0481039 0)
(0.89862 0.0492616 0)
(0.895793 0.0516684 0)
(0.900639 0.0577015 0)
(0.902812 0.0630911 0)
(0.898935 0.0661901 0)
(0.89274 0.0673511 0)
(0.882529 0.0672786 0)
(0.859683 0.0601471 0)
(0.836683 0.0518216 0)
(0.822685 0.0484243 0)
(0.812783 0.0482815 0)
(0.805848 0.050439 0)
(0.803148 0.0545516 0)
(0.796799 0.0534317 0)
(0.785931 0.0500269 0)
(0.766784 0.0459928 0)
(0.746064 0.0244617 0)
(0.381723 -0.039615 0)
(-0.510909 -0.0121562 0)
(1.18204 -0.107376 0)
(1.18018 -0.103526 0)
(1.17749 -0.101199 0)
(1.17398 -0.0988199 0)
(1.16962 -0.0963163 0)
(1.16342 -0.0936111 0)
(1.1586 -0.0913602 0)
(1.15508 -0.0894287 0)
(1.15239 -0.0874209 0)
(1.15381 -0.0842468 0)
(1.15619 -0.0813278 0)
(1.15528 -0.079002 0)
(1.1528 -0.0768348 0)
(1.14958 -0.0748107 0)
(1.14577 -0.0727374 0)
(1.13977 -0.0702004 0)
(1.13363 -0.0677964 0)
(1.12941 -0.0656376 0)
(1.12603 -0.0637701 0)
(1.12442 -0.0612082 0)
(1.12725 -0.0579526 0)
(1.12841 -0.0553743 0)
(1.12657 -0.0532836 0)
(1.12363 -0.0513889 0)
(1.12007 -0.0495908 0)
(1.11473 -0.0473804 0)
(1.10719 -0.0451026 0)
(1.102 -0.0429908 0)
(1.09816 -0.0410267 0)
(1.09507 -0.0389977 0)
(1.09555 -0.0359973 0)
(1.09863 -0.0330569 0)
(1.09818 -0.0307717 0)
(1.09556 -0.0288996 0)
(1.09218 -0.0272522 0)
(1.08745 -0.0253276 0)
(1.07913 -0.0234589 0)
(1.07254 -0.0215383 0)
(1.06822 -0.0194698 0)
(1.06461 -0.0175229 0)
(1.06269 -0.0151334 0)
(1.0657 -0.0120293 0)
(1.06755 -0.00932009 0)
(1.06571 -0.00723569 0)
(1.06246 -0.00557181 0)
(1.05831 -0.00401865 0)
(1.05002 -0.00290224 0)
(1.04105 -0.00191298 0)
(1.03554 1.08446e-05 0)
(1.03137 0.00201979 0)
(1.0281 0.00415748 0)
(1.02939 0.00739218 0)
(1.03313 0.0107619 0)
(1.0327 0.0133225 0)
(1.02987 0.0153074 0)
(1.02606 0.0167402 0)
(1.01847 0.0175785 0)
(1.00711 0.0169393 0)
(0.999435 0.0176926 0)
(0.994511 0.0195129 0)
(0.990576 0.021398 0)
(0.990265 0.024599 0)
(0.994693 0.0290869 0)
(0.995814 0.0322137 0)
(0.993545 0.0342514 0)
(0.989949 0.0356363 0)
(0.98346 0.0365257 0)
(0.969882 0.0346506 0)
(0.958248 0.0334356 0)
(0.951717 0.0345179 0)
(0.946904 0.0361218 0)
(0.943992 0.0387552 0)
(0.948369 0.0444594 0)
(0.952249 0.0498256 0)
(0.950343 0.0521676 0)
(0.94616 0.0528656 0)
(0.940171 0.0531958 0)
(0.925274 0.0501788 0)
(0.908033 0.0461441 0)
(0.897902 0.044996 0)
(0.891587 0.0458147 0)
(0.8866 0.04726 0)
(0.888007 0.0524549 0)
(0.892428 0.0599829 0)
(0.890848 0.0641064 0)
(0.885176 0.0653408 0)
(0.877907 0.0653333 0)
(0.862125 0.061644 0)
(0.837393 0.0510291 0)
(0.819017 0.0436229 0)
(0.808474 0.0410984 0)
(0.800372 0.0409085 0)
(0.797299 0.0425463 0)
(0.794331 0.0410133 0)
(0.787304 0.0366513 0)
(0.775178 0.0334635 0)
(0.763057 0.0240275 0)
(0.389714 -0.0280986 0)
(-0.510738 -0.00804562 0)
(1.17385 -0.104763 0)
(1.17193 -0.101201 0)
(1.1694 -0.0992259 0)
(1.16604 -0.0969895 0)
(1.16194 -0.0945402 0)
(1.15585 -0.091647 0)
(1.15083 -0.0892378 0)
(1.14722 -0.0872705 0)
(1.14441 -0.085288 0)
(1.14569 -0.0819321 0)
(1.1486 -0.0786909 0)
(1.14791 -0.0764943 0)
(1.14548 -0.0746335 0)
(1.14238 -0.0727982 0)
(1.13871 -0.0708744 0)
(1.1328 -0.0684809 0)
(1.12622 -0.0662011 0)
(1.12188 -0.0641561 0)
(1.11852 -0.0622686 0)
(1.11686 -0.0596983 0)
(1.11997 -0.0560891 0)
(1.1216 -0.0532089 0)
(1.11992 -0.051085 0)
(1.11699 -0.049273 0)
(1.11347 -0.0476451 0)
(1.10837 -0.0457654 0)
(1.10056 -0.0438912 0)
(1.09489 -0.042051 0)
(1.09103 -0.0400829 0)
(1.08795 -0.0380569 0)
(1.08841 -0.0347818 0)
(1.09193 -0.0312711 0)
(1.09186 -0.0287219 0)
(1.08941 -0.02672 0)
(1.0861 -0.0250795 0)
(1.08181 -0.023495 0)
(1.07363 -0.0221731 0)
(1.06602 -0.0210286 0)
(1.06133 -0.0194882 0)
(1.05773 -0.017733 0)
(1.05581 -0.0150706 0)
(1.05891 -0.0111502 0)
(1.06122 -0.00790348 0)
(1.05971 -0.00558419 0)
(1.05664 -0.00377383 0)
(1.0529 -0.00238198 0)
(1.04579 -0.00141344 0)
(1.03557 -0.00122577 0)
(1.02891 -0.000147261 0)
(1.02464 0.00174386 0)
(1.02135 0.00404115 0)
(1.02222 0.00788272 0)
(1.02643 0.0119605 0)
(1.02659 0.0144224 0)
(1.02397 0.0159787 0)
(1.02035 0.016981 0)
(1.01497 0.0177748 0)
(1.00367 0.017288 0)
(0.993762 0.017352 0)
(0.988066 0.0187073 0)
(0.983957 0.0204442 0)
(0.982225 0.0233777 0)
(0.986542 0.0289942 0)
(0.989334 0.033255 0)
(0.987561 0.0350473 0)
(0.984026 0.035735 0)
(0.979326 0.0362126 0)
(0.968196 0.0353181 0)
(0.954096 0.0334307 0)
(0.945698 0.0332985 0)
(0.940584 0.0344236 0)
(0.936496 0.0360414 0)
(0.938008 0.0408196 0)
(0.943867 0.0482795 0)
(0.944092 0.0523545 0)
(0.940355 0.0535603 0)
(0.93552 0.0538701 0)
(0.925227 0.0525485 0)
(0.90727 0.0468284 0)
(0.893942 0.0436346 0)
(0.88616 0.0430477 0)
(0.880417 0.0436448 0)
(0.87766 0.0464121 0)
(0.881901 0.0538077 0)
(0.883497 0.0602819 0)
(0.879466 0.0636666 0)
(0.873036 0.0647704 0)
(0.863825 0.0641756 0)
(0.84406 0.0561441 0)
(0.82149 0.0438947 0)
(0.80683 0.0371131 0)
(0.798045 0.0347451 0)
(0.792455 0.0349374 0)
(0.791262 0.0357717 0)
(0.788727 0.0310388 0)
(0.781515 0.0257432 0)
(0.774949 0.0212673 0)
(0.398831 -0.0194298 0)
(-0.510803 -0.00496557 0)
(1.16781 -0.10189 0)
(1.16598 -0.0983579 0)
(1.16359 -0.0965771 0)
(1.16036 -0.0944885 0)
(1.15638 -0.0921618 0)
(1.15025 -0.089349 0)
(1.14517 -0.0869714 0)
(1.14153 -0.085044 0)
(1.13861 -0.083236 0)
(1.13942 -0.080223 0)
(1.14276 -0.0768642 0)
(1.14241 -0.0743478 0)
(1.14007 -0.072325 0)
(1.13705 -0.0704903 0)
(1.13347 -0.0686044 0)
(1.12774 -0.0663268 0)
(1.12093 -0.0641471 0)
(1.11643 -0.0622328 0)
(1.11301 -0.0605941 0)
(1.1109 -0.0584782 0)
(1.11379 -0.0549639 0)
(1.11598 -0.0517735 0)
(1.11454 -0.0495362 0)
(1.11175 -0.0476426 0)
(1.10837 -0.0459191 0)
(1.10392 -0.0440974 0)
(1.09618 -0.0424397 0)
(1.08973 -0.0407173 0)
(1.08557 -0.0389494 0)
(1.08227 -0.0372873 0)
(1.08212 -0.0342103 0)
(1.08592 -0.0301859 0)
(1.08641 -0.0273898 0)
(1.08418 -0.0254578 0)
(1.08103 -0.0237655 0)
(1.07735 -0.0222675 0)
(1.07051 -0.0211293 0)
(1.06178 -0.02035 0)
(1.05625 -0.0188594 0)
(1.05246 -0.0173128 0)
(1.04993 -0.0152372 0)
(1.0525 -0.0110619 0)
(1.05543 -0.00716243 0)
(1.05435 -0.0047418 0)
(1.05143 -0.00292351 0)
(1.04791 -0.00145357 0)
(1.0427 -0.000146941 0)
(1.03263 -3.82527e-05 0)
(1.02432 0.000560477 0)
(1.01953 0.00178735 0)
(1.01585 0.00296023 0)
(1.01548 0.00600087 0)
(1.02014 0.0112074 0)
(1.02135 0.0147862 0)
(1.01904 0.016747 0)
(1.01556 0.0181117 0)
(1.01136 0.0191866 0)
(1.00187 0.0189829 0)
(0.990294 0.0180703 0)
(0.983092 0.0186599 0)
(0.978541 0.0197525 0)
(0.975371 0.0214803 0)
(0.977869 0.0266745 0)
(0.983121 0.0332046 0)
(0.98297 0.0362674 0)
(0.979699 0.0372378 0)
(0.97559 0.0376182 0)
(0.967096 0.0371185 0)
(0.95253 0.0343266 0)
(0.942094 0.0329594 0)
(0.935895 0.0332504 0)
(0.931293 0.0340905 0)
(0.929005 0.0366082 0)
(0.934451 0.043981 0)
(0.93831 0.0508102 0)
(0.936152 0.0537739 0)
(0.931787 0.0546282 0)
(0.925419 0.0547566 0)
(0.910627 0.0500313 0)
(0.893677 0.0431221 0)
(0.883174 0.0410155 0)
(0.876674 0.0409943 0)
(0.871623 0.0418011 0)
(0.872202 0.0464522 0)
(0.876237 0.0541785 0)
(0.875429 0.0587577 0)
(0.870655 0.0608061 0)
(0.863936 0.0615373 0)
(0.851912 0.059714 0)
(0.830648 0.0490342 0)
(0.811186 0.0368116 0)
(0.79898 0.0306487 0)
(0.791765 0.0285062 0)
(0.789276 0.0278297 0)
(0.790215 0.0252081 0)
(0.78773 0.0198738 0)
(0.783696 0.0170321 0)
(0.406105 -0.00950568 0)
(-0.510938 -0.00177195 0)
(1.16338 -0.0993853 0)
(1.16178 -0.0955976 0)
(1.15944 -0.0938302 0)
(1.15626 -0.0918345 0)
(1.15241 -0.0897325 0)
(1.14636 -0.0873376 0)
(1.14117 -0.0852944 0)
(1.13751 -0.0835632 0)
(1.13452 -0.0819452 0)
(1.13468 -0.0789181 0)
(1.13815 -0.0751224 0)
(1.13819 -0.072323 0)
(1.13597 -0.0701356 0)
(1.13303 -0.068125 0)
(1.12962 -0.066228 0)
(1.12449 -0.0641897 0)
(1.11753 -0.062362 0)
(1.11272 -0.0606859 0)
(1.10921 -0.0591713 0)
(1.10663 -0.0572943 0)
(1.1087 -0.0536999 0)
(1.1115 -0.0501127 0)
(1.11051 -0.0476907 0)
(1.10793 -0.0457285 0)
(1.10472 -0.0440006 0)
(1.10081 -0.0423348 0)
(1.09354 -0.0407967 0)
(1.08623 -0.0394124 0)
(1.08164 -0.0376655 0)
(1.07815 -0.0360757 0)
(1.07675 -0.033557 0)
(1.08058 -0.0291476 0)
(1.08222 -0.0257781 0)
(1.08043 -0.0237246 0)
(1.07749 -0.0221583 0)
(1.07405 -0.0209035 0)
(1.06847 -0.0197207 0)
(1.05933 -0.0191779 0)
(1.05261 -0.0179772 0)
(1.0483 -0.0162522 0)
(1.04498 -0.014671 0)
(1.04592 -0.0108088 0)
(1.05021 -0.00567867 0)
(1.0503 -0.0029075 0)
(1.04778 -0.00128203 0)
(1.04446 -3.41485e-05 0)
(1.04034 0.000867402 0)
(1.03111 0.000962648 0)
(1.02166 0.000815523 0)
(1.01582 0.00186015 0)
(1.01163 0.00329282 0)
(1.00909 0.00539422 0)
(1.01296 0.0109476 0)
(1.01659 0.0161934 0)
(1.01526 0.0183683 0)
(1.012 0.0194635 0)
(1.00835 0.0201959 0)
(1.00096 0.0203551 0)
(0.988553 0.0188228 0)
(0.980008 0.0185536 0)
(0.9747 0.019597 0)
(0.970751 0.0205437 0)
(0.969581 0.0233873 0)
(0.9758 0.0304938 0)
(0.978773 0.0359778 0)
(0.976578 0.0381088 0)
(0.972808 0.0388221 0)
(0.967116 0.0391259 0)
(0.953922 0.0360467 0)
(0.94091 0.0323451 0)
(0.933065 0.0318842 0)
(0.927564 0.0326601 0)
(0.923353 0.0338222 0)
(0.924324 0.0386912 0)
(0.93093 0.0477548 0)
(0.932149 0.0531998 0)
(0.928837 0.0553321 0)
(0.924213 0.0558369 0)
(0.915296 0.0545708 0)
(0.897429 0.0470983 0)
(0.882967 0.040951 0)
(0.874691 0.0394407 0)
(0.868935 0.0390743 0)
(0.865138 0.0403933 0)
(0.867768 0.0470039 0)
(0.869766 0.0542897 0)
(0.866946 0.0581412 0)
(0.861377 0.0596858 0)
(0.854205 0.0594785 0)
(0.84126 0.0548503 0)
(0.820829 0.0418867 0)
(0.803775 0.029972 0)
(0.793575 0.024063 0)
(0.787941 0.0219516 0)
(0.788973 0.0202175 0)
(0.791033 0.0162019 0)
(0.789455 0.0135611 0)
(0.413838 -0.00081152 0)
(-0.510947 0.00136835 0)
(1.1598 -0.0970571 0)
(1.15856 -0.0929274 0)
(1.15629 -0.091088 0)
(1.15315 -0.0891618 0)
(1.1495 -0.0872753 0)
(1.14368 -0.0851764 0)
(1.13819 -0.0833554 0)
(1.13439 -0.0817564 0)
(1.13128 -0.0803651 0)
(1.13042 -0.0777169 0)
(1.1339 -0.0734 0)
(1.13469 -0.0701315 0)
(1.1328 -0.0678142 0)
(1.13003 -0.0658547 0)
(1.12674 -0.0641533 0)
(1.12221 -0.0623517 0)
(1.11519 -0.0606373 0)
(1.10992 -0.0591561 0)
(1.10622 -0.0577733 0)
(1.1032 -0.0563881 0)
(1.10394 -0.0530504 0)
(1.10741 -0.0487113 0)
(1.10711 -0.0459507 0)
(1.10475 -0.0439761 0)
(1.10169 -0.0422674 0)
(1.0981 -0.0406914 0)
(1.09158 -0.0391257 0)
(1.08365 -0.0379182 0)
(1.07861 -0.0365299 0)
(1.07497 -0.0351328 0)
(1.07246 -0.0331929 0)
(1.07536 -0.0290146 0)
(1.07839 -0.0249934 0)
(1.0772 -0.0227799 0)
(1.07446 -0.0211041 0)
(1.07116 -0.0196735 0)
(1.06669 -0.0182665 0)
(1.0577 -0.0176067 0)
(1.04971 -0.0167486 0)
(1.04488 -0.0151348 0)
(1.04123 -0.01363 0)
(1.03992 -0.0111317 0)
(1.04472 -0.00612184 0)
(1.04676 -0.0023062 0)
(1.04481 -0.000549436 0)
(1.04171 0.000570465 0)
(1.03805 0.00153598 0)
(1.03051 0.0020509 0)
(1.01984 0.0014378 0)
(1.01275 0.00205958 0)
(1.00804 0.00352052 0)
(1.00439 0.00494545 0)
(1.00519 0.00890482 0)
(1.01114 0.0156983 0)
(1.01202 0.0195153 0)
(1.00926 0.0207851 0)
(1.00582 0.0214044 0)
(1.00053 0.0218518 0)
(0.988693 0.0200723 0)
(0.978217 0.0183781 0)
(0.972146 0.0187297 0)
(0.967553 0.0199483 0)
(0.963837 0.0215308 0)
(0.966639 0.0270471 0)
(0.973132 0.0350261 0)
(0.973375 0.0389609 0)
(0.970115 0.0401535 0)
(0.965965 0.0407244 0)
(0.957336 0.0392481 0)
(0.942304 0.0337335 0)
(0.931518 0.030994 0)
(0.925085 0.0313831 0)
(0.920303 0.0320886 0)
(0.917128 0.0337652 0)
(0.921723 0.0409045 0)
(0.927222 0.0496442 0)
(0.92626 0.0536406 0)
(0.922183 0.0551975 0)
(0.916669 0.0559871 0)
(0.904875 0.0531895 0)
(0.887081 0.0437028 0)
(0.874875 0.0379538 0)
(0.867437 0.0370392 0)
(0.862022 0.0370297 0)
(0.860026 0.0395185 0)
(0.863205 0.0467552 0)
(0.86355 0.0522764 0)
(0.860002 0.0545817 0)
(0.854233 0.0553096 0)
(0.846385 0.0543397 0)
(0.832499 0.0482239 0)
(0.813243 0.0343615 0)
(0.798186 0.0226173 0)
(0.789817 0.0170463 0)
(0.787157 0.0141566 0)
(0.791728 0.0109345 0)
(0.792627 0.00932027 0)
(0.421154 0.00830516 0)
(-0.510434 0.0040096 0)
(1.15641 -0.0948381 0)
(1.15588 -0.0902941 0)
(1.15373 -0.0885367 0)
(1.15067 -0.086742 0)
(1.14718 -0.0850717 0)
(1.1417 -0.0832576 0)
(1.13581 -0.0815779 0)
(1.13164 -0.0798781 0)
(1.1284 -0.0782714 0)
(1.12636 -0.0761004 0)
(1.12935 -0.0716946 0)
(1.13148 -0.0678935 0)
(1.13004 -0.0657039 0)
(1.12741 -0.0639318 0)
(1.12423 -0.0623711 0)
(1.12021 -0.0607713 0)
(1.11336 -0.0592547 0)
(1.10746 -0.05784 0)
(1.10338 -0.0562602 0)
(1.10011 -0.05487 0)
(1.09912 -0.0521981 0)
(1.10304 -0.0474224 0)
(1.10398 -0.0440463 0)
(1.10193 -0.0420844 0)
(1.099 -0.040449 0)
(1.09559 -0.0390089 0)
(1.09002 -0.0375673 0)
(1.08166 -0.0365827 0)
(1.07593 -0.0353949 0)
(1.07207 -0.0341286 0)
(1.06897 -0.0328883 0)
(1.07 -0.0293112 0)
(1.07437 -0.0241723 0)
(1.07426 -0.0211391 0)
(1.07171 -0.0194222 0)
(1.06851 -0.017958 0)
(1.06466 -0.0165634 0)
(1.05655 -0.0156432 0)
(1.04756 -0.0153301 0)
(1.04232 -0.0144088 0)
(1.03855 -0.0133683 0)
(1.03569 -0.0117256 0)
(1.03866 -0.0070936 0)
(1.04292 -0.00188281 0)
(1.04203 0.000653663 0)
(1.03905 0.00185831 0)
(1.03569 0.00294758 0)
(1.03015 0.00385467 0)
(1.01919 0.00313877 0)
(1.01046 0.00297121 0)
(1.0052 0.00401199 0)
(1.00126 0.00521815 0)
(0.998995 0.00738565 0)
(1.00414 0.0135085 0)
(1.00845 0.0193688 0)
(1.00702 0.0218752 0)
(1.00378 0.0227081 0)
(0.999933 0.0233306 0)
(0.990758 0.0221633 0)
(0.978138 0.0190825 0)
(0.970079 0.0182775 0)
(0.96488 0.0192494 0)
(0.960522 0.0203717 0)
(0.958705 0.0229364 0)
(0.965213 0.0312224 0)
(0.969508 0.038337 0)
(0.967953 0.0412182 0)
(0.964331 0.0418868 0)
(0.959257 0.0420813 0)
(0.946725 0.038414 0)
(0.9321 0.0324291 0)
(0.923704 0.0304684 0)
(0.918303 0.0307968 0)
(0.91368 0.0313421 0)
(0.912231 0.0344967 0)
(0.918609 0.0442667 0)
(0.921774 0.052274 0)
(0.919347 0.0555414 0)
(0.915079 0.0563794 0)
(0.90908 0.056096 0)
(0.895344 0.0507212 0)
(0.877959 0.0410292 0)
(0.867265 0.0364417 0)
(0.860755 0.0354462 0)
(0.855742 0.0353809 0)
(0.855274 0.0390079 0)
(0.857775 0.0461627 0)
(0.856691 0.0504786 0)
(0.852676 0.0517317 0)
(0.846933 0.0517018 0)
(0.839085 0.0490883 0)
(0.825694 0.0411291 0)
(0.807999 0.025999 0)
(0.794593 0.0145221 0)
(0.788067 0.00894602 0)
(0.790012 0.00432243 0)
(0.79281 0.00318026 0)
(0.427246 0.0168465 0)
(-0.509779 0.00569891 0)
(1.15276 -0.0929309 0)
(1.1532 -0.0878843 0)
(1.15126 -0.0862285 0)
(1.14833 -0.0845762 0)
(1.14503 -0.0830686 0)
(1.14012 -0.0814966 0)
(1.13367 -0.0799214 0)
(1.12899 -0.0780288 0)
(1.12551 -0.0761576 0)
(1.12283 -0.0743467 0)
(1.12458 -0.0704883 0)
(1.12814 -0.066263 0)
(1.12743 -0.0638433 0)
(1.12494 -0.0621268 0)
(1.12187 -0.0606111 0)
(1.11828 -0.0591369 0)
(1.11186 -0.0578144 0)
(1.10513 -0.056577 0)
(1.10056 -0.0548842 0)
(1.09704 -0.0532611 0)
(1.09477 -0.0512087 0)
(1.09799 -0.0466992 0)
(1.10076 -0.0425339 0)
(1.09933 -0.0402979 0)
(1.09658 -0.0387014 0)
(1.09331 -0.03734 0)
(1.08861 -0.0360103 0)
(1.08022 -0.0352999 0)
(1.07366 -0.0344755 0)
(1.06938 -0.0332049 0)
(1.06597 -0.0320219 0)
(1.06471 -0.0295655 0)
(1.06931 -0.0240352 0)
(1.07116 -0.0197429 0)
(1.0692 -0.0175176 0)
(1.06621 -0.0160569 0)
(1.06269 -0.0148558 0)
(1.05579 -0.0140055 0)
(1.04613 -0.0142225 0)
(1.04014 -0.0139896 0)
(1.03609 -0.0133232 0)
(1.03264 -0.0125956 0)
(1.03247 -0.00943534 0)
(1.03793 -0.00258662 0)
(1.03927 0.00179763 0)
(1.03697 0.0038532 0)
(1.03385 0.00500954 0)
(1.02954 0.00599884 0)
(1.01974 0.00540079 0)
(1.00925 0.00402439 0)
(1.00323 0.00414795 0)
(0.998963 0.00480156 0)
(0.995364 0.00581815 0)
(0.996268 0.0100308 0)
(1.00306 0.0180994 0)
(1.00461 0.022575 0)
(1.00209 0.0242378 0)
(0.998749 0.0249354 0)
(0.992943 0.0250098 0)
(0.980289 0.0216485 0)
(0.969105 0.0188949 0)
(0.962796 0.0189097 0)
(0.958189 0.0198404 0)
(0.954317 0.0209312 0)
(0.955901 0.0253582 0)
(0.963532 0.0348674 0)
(0.965231 0.0402442 0)
(0.962453 0.0424845 0)
(0.958446 0.0436591 0)
(0.951595 0.0434348 0)
(0.936983 0.0368577 0)
(0.924087 0.0306975 0)
(0.916684 0.029433 0)
(0.911579 0.0302146 0)
(0.907418 0.0309632 0)
(0.908548 0.0354505 0)
(0.915331 0.045742 0)
(0.916718 0.0519694 0)
(0.913514 0.0541662 0)
(0.908676 0.0550511 0)
(0.901138 0.0551943 0)
(0.886039 0.0484429 0)
(0.870237 0.0384294 0)
(0.860528 0.0341836 0)
(0.85442 0.0333215 0)
(0.850034 0.0335985 0)
(0.850915 0.0381034 0)
(0.852813 0.044082 0)
(0.851062 0.0467177 0)
(0.846959 0.0471022 0)
(0.841312 0.0469121 0)
(0.833525 0.0433799 0)
(0.821322 0.0337764 0)
(0.805248 0.018012 0)
(0.79248 0.00707992 0)
(0.788972 -0.00126776 0)
(0.790757 -0.0053906 0)
(0.430392 0.0228494 0)
(-0.509212 0.00631627 0)
(1.14891 -0.0913431 0)
(1.15051 -0.0857943 0)
(1.14884 -0.0840949 0)
(1.14599 -0.0824282 0)
(1.14275 -0.0808709 0)
(1.13833 -0.0792651 0)
(1.13141 -0.0777423 0)
(1.12617 -0.0761387 0)
(1.12254 -0.0744627 0)
(1.11957 -0.0729106 0)
(1.11994 -0.069834 0)
(1.12441 -0.0651703 0)
(1.12484 -0.0620436 0)
(1.12262 -0.0601902 0)
(1.11968 -0.0586128 0)
(1.11626 -0.0571402 0)
(1.11046 -0.0557889 0)
(1.10289 -0.054784 0)
(1.09782 -0.0534445 0)
(1.09413 -0.0519242 0)
(1.09119 -0.0503272 0)
(1.09265 -0.0465297 0)
(1.09696 -0.0415449 0)
(1.09668 -0.0386293 0)
(1.09416 -0.0369502 0)
(1.09101 -0.0355869 0)
(1.08714 -0.0343522 0)
(1.07951 -0.0338445 0)
(1.07183 -0.0335698 0)
(1.06697 -0.0323926 0)
(1.06323 -0.0307813 0)
(1.06044 -0.0289535 0)
(1.06306 -0.0241137 0)
(1.06735 -0.0185436 0)
(1.06664 -0.015896 0)
(1.0639 -0.014424 0)
(1.06066 -0.0134828 0)
(1.05576 -0.0129782 0)
(1.04626 -0.0139918 0)
(1.03852 -0.0144041 0)
(1.03348 -0.0132268 0)
(1.02958 -0.0115234 0)
(1.02685 -0.00964323 0)
(1.0307 -0.00371914 0)
(1.03541 0.00283537 0)
(1.03467 0.00557053 0)
(1.03175 0.00692545 0)
(1.02833 0.0075985 0)
(1.02152 0.00717962 0)
(1.00989 0.00442602 0)
(1.00179 0.00334633 0)
(0.996713 0.00418729 0)
(0.992715 0.0053767 0)
(0.990103 0.00724634 0)
(0.995046 0.0143923 0)
(1.0006 0.0223734 0)
(1.00016 0.0256622 0)
(0.997136 0.026879 0)
(0.993283 0.0275053 0)
(0.984095 0.0256786 0)
(0.970373 0.0205855 0)
(0.961651 0.0183564 0)
(0.956349 0.018558 0)
(0.951979 0.0193658 0)
(0.948866 0.0211377 0)
(0.953673 0.028977 0)
(0.96005 0.0390635 0)
(0.959842 0.0433299 0)
(0.95661 0.0447597 0)
(0.952374 0.0449788 0)
(0.94351 0.0431776 0)
(0.927587 0.0355286 0)
(0.91634 0.0305495 0)
(0.910185 0.0296639 0)
(0.905627 0.0298271 0)
(0.901829 0.0307984 0)
(0.904675 0.0373233 0)
(0.910352 0.0479386 0)
(0.90998 0.0535728 0)
(0.906205 0.055611 0)
(0.901496 0.0557108 0)
(0.893669 0.0540885 0)
(0.878024 0.0454922 0)
(0.863058 0.035896 0)
(0.854172 0.0320722 0)
(0.848566 0.03104 0)
(0.844972 0.0316749 0)
(0.84672 0.0369997 0)
(0.847908 0.0421728 0)
(0.845874 0.0437798 0)
(0.842086 0.0433517 0)
(0.836893 0.0424405 0)
(0.830069 0.0373417 0)
(0.819479 0.0266918 0)
(0.804443 0.0116731 0)
(0.792803 0.000165251 0)
(0.788678 -0.0151927 0)
(0.429117 0.0247266 0)
(-0.50883 0.00624093 0)
(1.1448 -0.0900539 0)
(1.14748 -0.0841802 0)
(1.14641 -0.0820013 0)
(1.14371 -0.0802457 0)
(1.14055 -0.0786558 0)
(1.13655 -0.0771079 0)
(1.12967 -0.0757353 0)
(1.12374 -0.0744381 0)
(1.11986 -0.0729676 0)
(1.11672 -0.0715641 0)
(1.11551 -0.0690868 0)
(1.1198 -0.0643156 0)
(1.12185 -0.0603558 0)
(1.12018 -0.0580403 0)
(1.11739 -0.0564148 0)
(1.11412 -0.0550515 0)
(1.1093 -0.0537898 0)
(1.10138 -0.0531071 0)
(1.09548 -0.0521008 0)
(1.09153 -0.0507211 0)
(1.08828 -0.0493664 0)
(1.08754 -0.0465286 0)
(1.09225 -0.04111 0)
(1.09383 -0.0372125 0)
(1.09182 -0.0351824 0)
(1.08886 -0.0337761 0)
(1.08546 -0.0326254 0)
(1.0794 -0.032006 0)
(1.07064 -0.0322138 0)
(1.06461 -0.0313254 0)
(1.0605 -0.029721 0)
(1.05721 -0.0282039 0)
(1.05694 -0.0249058 0)
(1.06251 -0.0187155 0)
(1.06415 -0.0147148 0)
(1.06189 -0.0131775 0)
(1.05881 -0.0121824 0)
(1.05524 -0.01146 0)
(1.04736 -0.0120494 0)
(1.0377 -0.0132089 0)
(1.03129 -0.0124283 0)
(1.02689 -0.0106543 0)
(1.02338 -0.0091041 0)
(1.02315 -0.00569322 0)
(1.02984 0.00171739 0)
(1.0322 0.00645828 0)
(1.03002 0.00796421 0)
(1.02679 0.00859448 0)
(1.0225 0.00895468 0)
(1.01219 0.00683215 0)
(1.00136 0.00414827 0)
(0.994821 0.00423419 0)
(0.990194 0.0057208 0)
(0.986568 0.00697526 0)
(0.986274 0.0102686 0)
(0.993771 0.0194737 0)
(0.996984 0.0258656 0)
(0.995123 0.028243 0)
(0.991527 0.0288869 0)
(0.986704 0.0290635 0)
(0.975078 0.0246518 0)
(0.962428 0.0190022 0)
(0.954768 0.0178101 0)
(0.949605 0.0189597 0)
(0.945732 0.0200199 0)
(0.944562 0.022623 0)
(0.951794 0.03224 0)
(0.956134 0.040768 0)
(0.954428 0.0436845 0)
(0.950595 0.0450632 0)
(0.945666 0.0461298 0)
(0.935251 0.0427707 0)
(0.920133 0.0335881 0)
(0.910206 0.0287695 0)
(0.904036 0.0284053 0)
(0.89948 0.0290127 0)
(0.896575 0.0305874 0)
(0.900943 0.0384655 0)
(0.905546 0.0480114 0)
(0.904437 0.0520719 0)
(0.900447 0.053464 0)
(0.895278 0.0538835 0)
(0.886326 0.0520768 0)
(0.870726 0.0426163 0)
(0.856955 0.0329129 0)
(0.84838 0.0292366 0)
(0.843095 0.0282268 0)
(0.840491 0.0295327 0)
(0.843022 0.0352748 0)
(0.844082 0.0395083 0)
(0.842188 0.0402674 0)
(0.838748 0.0395618 0)
(0.834346 0.0375774 0)
(0.828751 0.0314216 0)
(0.81919 0.0209634 0)
(0.80527 0.00581208 0)
(0.79064 -0.0160629 0)
(0.422105 0.0203259 0)
(-0.508515 0.00618648 0)