/*--------------------------------*- C++ -*----------------------------------*\
  =========                 |
  \\      /  F ield         | OpenFOAM: The Open Source CFD Toolbox
   \\    /   O peration     | Website:  https://openfoam.org
    \\  /    A nd           | Version:  12
     \\/     M anipulation  |
\*---------------------------------------------------------------------------*/
FoamFile
{
    format      ascii;
    class       volVectorField;
    location    "5.6";
    object      U;
}
// * * * * * * * * * * * * * * * * * * * * * * * * * * * * * * * * * * * * * //

dimensions      [0 1 -1 0 0 0 0];

internalField   nonuniform List<vector> 
9801
(
(1.21018 -0.115013 0)
(1.20392 -0.110616 0)
(1.20048 -0.108871 0)
(1.19753 -0.106483 0)
(1.1983 -0.103336 0)
(1.20069 -0.100305 0)
(1.20048 -0.0979783 0)
(1.19844 -0.0957566 0)
(1.19553 -0.093615 0)
(1.19195 -0.091316 0)
(1.1873 -0.0884064 0)
(1.18098 -0.0851936 0)
(1.17642 -0.0828153 0)
(1.17291 -0.080915 0)
(1.17069 -0.0782901 0)
(1.17254 -0.0750359 0)
(1.17416 -0.0722521 0)
(1.17302 -0.0700617 0)
(1.1705 -0.0680137 0)
(1.1671 -0.0660273 0)
(1.16307 -0.0639012 0)
(1.15675 -0.0607625 0)
(1.15063 -0.0580534 0)
(1.14648 -0.0560374 0)
(1.14316 -0.05411 0)
(1.14277 -0.0511549 0)
(1.14529 -0.0481419 0)
(1.14543 -0.0457961 0)
(1.14328 -0.0437232 0)
(1.14018 -0.0417812 0)
(1.1363 -0.0398136 0)
(1.13017 -0.0369266 0)
(1.12267 -0.0340964 0)
(1.11792 -0.0320894 0)
(1.11424 -0.0304754 0)
(1.11221 -0.0281375 0)
(1.11443 -0.0251221 0)
(1.11584 -0.0226038 0)
(1.11434 -0.0204508 0)
(1.11116 -0.0184972 0)
(1.10746 -0.0167333 0)
(1.10149 -0.0140972 0)
(1.09276 -0.011313 0)
(1.08711 -0.00931941 0)
(1.08325 -0.00784451 0)
(1.08013 -0.00594477 0)
(1.08141 -0.00319077 0)
(1.08422 -0.000546946 0)
(1.0834 0.00160814 0)
(1.08062 0.00349615 0)
(1.07685 0.00514458 0)
(1.07057 0.00745448 0)
(1.06048 0.00995963 0)
(1.05382 0.0117487 0)
(1.0494 0.013126 0)
(1.04593 0.0145659 0)
(1.04624 0.0171739 0)
(1.05001 0.019965 0)
(1.05016 0.0223894 0)
(1.04741 0.0244332 0)
(1.04338 0.0259476 0)
(1.03686 0.0280825 0)
(1.02465 0.0303091 0)
(1.01647 0.031635 0)
(1.01175 0.0326147 0)
(1.00768 0.0336124 0)
(1.00787 0.0358713 0)
(1.01278 0.0388276 0)
(1.01324 0.0412774 0)
(1.01058 0.0433936 0)
(1.00665 0.0450822 0)
(0.999155 0.047182 0)
(0.984021 0.0490208 0)
(0.972444 0.0498081 0)
(0.966244 0.0502835 0)
(0.961603 0.0507697 0)
(0.962897 0.0527399 0)
(0.969306 0.055644 0)
(0.969936 0.0583498 0)
(0.96603 0.0606331 0)
(0.960604 0.0621351 0)
(0.951365 0.063684 0)
(0.930748 0.0642929 0)
(0.913219 0.0636888 0)
(0.903897 0.0635236 0)
(0.897552 0.0638647 0)
(0.900999 0.0651409 0)
(0.906835 0.0672695 0)
(0.903699 0.0694834 0)
(0.895691 0.0717417 0)
(0.885725 0.0726008 0)
(0.867243 0.0732681 0)
(0.832905 0.0716497 0)
(0.799675 0.0682577 0)
(0.776813 0.06511 0)
(0.762615 0.0490536 0)
(0.747142 0.0275404 0)
(0.420489 -0.0405495 0)
(-0.485686 -0.0265738 0)
(1.2101 -0.116622 0)
(1.20356 -0.112241 0)
(1.19992 -0.110481 0)
(1.19692 -0.108295 0)
(1.19788 -0.105089 0)
(1.20065 -0.102045 0)
(1.20024 -0.0997507 0)
(1.19803 -0.0975624 0)
(1.19511 -0.0953715 0)
(1.19158 -0.0930557 0)
(1.18698 -0.0901474 0)
(1.18079 -0.0869531 0)
(1.17609 -0.08443 0)
(1.17255 -0.0824728 0)
(1.17027 -0.0799526 0)
(1.17254 -0.0766115 0)
(1.17423 -0.0739885 0)
(1.17284 -0.0719803 0)
(1.17014 -0.0700058 0)
(1.16675 -0.0680162 0)
(1.16271 -0.0657899 0)
(1.1565 -0.0627008 0)
(1.15031 -0.0598345 0)
(1.14615 -0.0576367 0)
(1.14284 -0.0557719 0)
(1.1425 -0.0527843 0)
(1.14539 -0.0497272 0)
(1.14543 -0.0474509 0)
(1.14314 -0.0454523 0)
(1.13997 -0.043578 0)
(1.13608 -0.0415686 0)
(1.12999 -0.0387284 0)
(1.12256 -0.036006 0)
(1.11762 -0.0339425 0)
(1.11389 -0.0323204 0)
(1.11172 -0.0300143 0)
(1.1143 -0.0268112 0)
(1.11582 -0.0242309 0)
(1.11414 -0.022069 0)
(1.11097 -0.0200868 0)
(1.10727 -0.0182738 0)
(1.10131 -0.0156937 0)
(1.09272 -0.0130607 0)
(1.0869 -0.0111586 0)
(1.08287 -0.00967986 0)
(1.07965 -0.007882 0)
(1.08116 -0.00499289 0)
(1.08424 -0.00229712 0)
(1.08333 -0.000139959 0)
(1.08045 0.00174016 0)
(1.07666 0.00343307 0)
(1.07048 0.00571036 0)
(1.06049 0.00800661 0)
(1.05346 0.0097486 0)
(1.0489 0.0112497 0)
(1.04529 0.0126396 0)
(1.04547 0.0154719 0)
(1.04982 0.0185329 0)
(1.05009 0.0209587 0)
(1.04725 0.0229414 0)
(1.04327 0.0244347 0)
(1.03709 0.026263 0)
(1.02497 0.0278855 0)
(1.01615 0.0290549 0)
(1.01109 0.0303299 0)
(1.00695 0.0313545 0)
(1.00662 0.0337348 0)
(1.01162 0.0370191 0)
(1.01253 0.0400906 0)
(1.01009 0.0424159 0)
(1.00622 0.0439976 0)
(0.999469 0.0456232 0)
(0.984839 0.0464634 0)
(0.972194 0.0468102 0)
(0.96541 0.0475056 0)
(0.960641 0.0479838 0)
(0.960261 0.0497438 0)
(0.966186 0.053987 0)
(0.967859 0.0575031 0)
(0.964571 0.0596375 0)
(0.959266 0.0605583 0)
(0.951162 0.0614149 0)
(0.931529 0.0610694 0)
(0.912659 0.0595545 0)
(0.90248 0.0589221 0)
(0.895349 0.0584414 0)
(0.894514 0.0609744 0)
(0.899688 0.067982 0)
(0.898369 0.0731113 0)
(0.891178 0.0755577 0)
(0.881413 0.0755208 0)
(0.864452 0.0743918 0)
(0.831145 0.0695501 0)
(0.795668 0.0657232 0)
(0.769346 0.0639316 0)
(0.749886 0.05509 0)
(0.74046 0.0335828 0)
(0.426767 -0.0222761 0)
(-0.482045 -0.0220615 0)
(1.20946 -0.114259 0)
(1.20294 -0.10988 0)
(1.19914 -0.108188 0)
(1.19599 -0.106318 0)
(1.19675 -0.103364 0)
(1.19992 -0.0998894 0)
(1.1996 -0.0973999 0)
(1.19729 -0.0951879 0)
(1.19429 -0.0929801 0)
(1.19073 -0.0906594 0)
(1.18616 -0.0876889 0)
(1.18012 -0.0844008 0)
(1.17548 -0.0819966 0)
(1.1719 -0.0802467 0)
(1.16946 -0.0780943 0)
(1.17184 -0.0749432 0)
(1.17378 -0.0722533 0)
(1.17225 -0.0701856 0)
(1.16946 -0.0681706 0)
(1.16607 -0.0661543 0)
(1.162 -0.063762 0)
(1.15568 -0.0603424 0)
(1.14965 -0.0574363 0)
(1.14548 -0.0554414 0)
(1.14208 -0.0537867 0)
(1.14158 -0.051015 0)
(1.14485 -0.0477938 0)
(1.14499 -0.0455126 0)
(1.14259 -0.0436355 0)
(1.13934 -0.0418583 0)
(1.13543 -0.0399753 0)
(1.12943 -0.0373038 0)
(1.12201 -0.0345515 0)
(1.11692 -0.0323633 0)
(1.11308 -0.0306574 0)
(1.11058 -0.0284972 0)
(1.11307 -0.0250294 0)
(1.11496 -0.0221375 0)
(1.11335 -0.0200225 0)
(1.11024 -0.0181703 0)
(1.10657 -0.0165347 0)
(1.10083 -0.0143788 0)
(1.0922 -0.0121784 0)
(1.0861 -0.01029 0)
(1.08183 -0.0086774 0)
(1.07838 -0.00703151 0)
(1.07946 -0.00403006 0)
(1.0828 -0.000765502 0)
(1.08218 0.00166387 0)
(1.07943 0.00363241 0)
(1.07572 0.00527202 0)
(1.07002 0.00714869 0)
(1.06 0.00881522 0)
(1.05237 0.010409 0)
(1.04748 0.0119936 0)
(1.04358 0.0132712 0)
(1.04297 0.015981 0)
(1.04752 0.0197388 0)
(1.04836 0.0225839 0)
(1.04575 0.024623 0)
(1.04192 0.0260542 0)
(1.03656 0.0273876 0)
(1.02485 0.0281564 0)
(1.01488 0.0289217 0)
(1.00909 0.0303356 0)
(1.00458 0.0315136 0)
(1.00246 0.033915 0)
(1.00717 0.0388379 0)
(1.00957 0.0425336 0)
(1.00762 0.0444806 0)
(1.00379 0.0456158 0)
(0.998029 0.0464354 0)
(0.984807 0.0461303 0)
(0.970688 0.0454366 0)
(0.962502 0.0462358 0)
(0.957097 0.047188 0)
(0.953517 0.0491473 0)
(0.958253 0.0548052 0)
(0.962023 0.0593054 0)
(0.959479 0.0609483 0)
(0.954411 0.0614356 0)
(0.947665 0.0617253 0)
(0.930723 0.060208 0)
(0.9101 0.0574561 0)
(0.897699 0.0569957 0)
(0.889669 0.0572426 0)
(0.884614 0.057904 0)
(0.888271 0.0627354 0)
(0.889785 0.0666165 0)
(0.884129 0.0675203 0)
(0.875089 0.0673765 0)
(0.861015 0.0665381 0)
(0.831814 0.062307 0)
(0.799335 0.0552869 0)
(0.772033 0.0484403 0)
(0.749505 0.034648 0)
(0.746541 0.0101629 0)
(0.427304 -0.0208194 0)
(-0.483028 -0.0149178 0)
(1.20878 -0.111929 0)
(1.20217 -0.108035 0)
(1.19827 -0.106306 0)
(1.19501 -0.104487 0)
(1.19447 -0.101588 0)
(1.19745 -0.0980152 0)
(1.19729 -0.0952952 0)
(1.19494 -0.0929053 0)
(1.19183 -0.0905738 0)
(1.18813 -0.0881419 0)
(1.18322 -0.0851449 0)
(1.17748 -0.0821901 0)
(1.17308 -0.0801301 0)
(1.16947 -0.0786568 0)
(1.1668 -0.0768584 0)
(1.16909 -0.0738777 0)
(1.17143 -0.0708323 0)
(1.16998 -0.0683542 0)
(1.16712 -0.0661489 0)
(1.16362 -0.0639743 0)
(1.1592 -0.0612966 0)
(1.15265 -0.0580978 0)
(1.14695 -0.0556794 0)
(1.14276 -0.0539222 0)
(1.13924 -0.0524801 0)
(1.1384 -0.0500732 0)
(1.14185 -0.0469941 0)
(1.14221 -0.0444962 0)
(1.13983 -0.042415 0)
(1.13654 -0.040563 0)
(1.13265 -0.0387191 0)
(1.12668 -0.0362161 0)
(1.11928 -0.0336676 0)
(1.11408 -0.0315996 0)
(1.11013 -0.0298707 0)
(1.10723 -0.0278935 0)
(1.10934 -0.0243851 0)
(1.11182 -0.0211295 0)
(1.11038 -0.0189759 0)
(1.10732 -0.017326 0)
(1.10368 -0.0159656 0)
(1.09834 -0.0142531 0)
(1.08977 -0.0124848 0)
(1.08326 -0.0107003 0)
(1.07869 -0.00882867 0)
(1.07494 -0.00711827 0)
(1.07493 -0.00386194 0)
(1.07864 0.000328641 0)
(1.0786 0.00297112 0)
(1.07598 0.00465481 0)
(1.07238 0.00591374 0)
(1.06739 0.00730089 0)
(1.05778 0.00836754 0)
(1.0494 0.00948019 0)
(1.044 0.0111265 0)
(1.03973 0.0126384 0)
(1.03776 0.0151465 0)
(1.04197 0.0195957 0)
(1.04366 0.0230039 0)
(1.04134 0.0249424 0)
(1.03774 0.0262329 0)
(1.03319 0.0274107 0)
(1.02277 0.0280331 0)
(1.01148 0.0281804 0)
(1.00472 0.0295342 0)
(0.999727 0.0310808 0)
(0.996161 0.0328311 0)
(0.999531 0.037092 0)
(1.00328 0.0412089 0)
(1.0018 0.0431941 0)
(0.998214 0.0445024 0)
(0.993353 0.045594 0)
(0.982531 0.0457653 0)
(0.966723 0.044419 0)
(0.956872 0.0447595 0)
(0.950843 0.0461084 0)
(0.946005 0.0471967 0)
(0.947724 0.0510904 0)
(0.953205 0.0571794 0)
(0.951943 0.060426 0)
(0.9472 0.0617627 0)
(0.94133 0.0624089 0)
(0.928842 0.0614851 0)
(0.907655 0.0564816 0)
(0.892526 0.0532847 0)
(0.883398 0.0531728 0)
(0.876315 0.0532528 0)
(0.875025 0.0566785 0)
(0.877266 0.063895 0)
(0.873211 0.0689351 0)
(0.864975 0.0702015 0)
(0.854512 0.0693118 0)
(0.833047 0.0624377 0)
(0.802086 0.0491399 0)
(0.773179 0.0382871 0)
(0.751433 0.0251466 0)
(0.751538 0.00112111 0)
(0.432161 -0.0121931 0)
(-0.483862 -0.0108484 0)
(1.20547 -0.109612 0)
(1.1987 -0.105643 0)
(1.1948 -0.103859 0)
(1.19148 -0.102083 0)
(1.19068 -0.0994011 0)
(1.19361 -0.0957686 0)
(1.19353 -0.0928337 0)
(1.19121 -0.0902873 0)
(1.1881 -0.0878681 0)
(1.1844 -0.0855 0)
(1.17948 -0.0828562 0)
(1.17392 -0.0805014 0)
(1.16945 -0.0786929 0)
(1.16572 -0.077208 0)
(1.16288 -0.0754115 0)
(1.16468 -0.0721904 0)
(1.16698 -0.0688596 0)
(1.16568 -0.0661481 0)
(1.16292 -0.0636819 0)
(1.15939 -0.0614036 0)
(1.1548 -0.0590538 0)
(1.14844 -0.0566756 0)
(1.1429 -0.0546365 0)
(1.13864 -0.0528857 0)
(1.13504 -0.0514376 0)
(1.13369 -0.0490571 0)
(1.13708 -0.0454458 0)
(1.13783 -0.0425089 0)
(1.13557 -0.0403966 0)
(1.13233 -0.0385259 0)
(1.12849 -0.0365991 0)
(1.12254 -0.03432 0)
(1.11487 -0.0321447 0)
(1.10958 -0.0301306 0)
(1.10556 -0.028326 0)
(1.10235 -0.0265341 0)
(1.10376 -0.0233835 0)
(1.10693 -0.0200515 0)
(1.10589 -0.017811 0)
(1.10295 -0.0161069 0)
(1.09938 -0.0145546 0)
(1.09449 -0.0127733 0)
(1.08574 -0.0110386 0)
(1.07832 -0.00919552 0)
(1.0735 -0.00715189 0)
(1.06962 -0.00541134 0)
(1.06843 -0.00272866 0)
(1.07247 0.0013577 0)
(1.07346 0.0042296 0)
(1.0711 0.00603615 0)
(1.0676 0.0074809 0)
(1.06334 0.00871278 0)
(1.05456 0.00936266 0)
(1.04458 0.00979858 0)
(1.03842 0.0114762 0)
(1.03389 0.0133479 0)
(1.03083 0.0155372 0)
(1.034 0.0200098 0)
(1.03713 0.0242974 0)
(1.03554 0.0266611 0)
(1.0322 0.0282553 0)
(1.02816 0.0292174 0)
(1.01983 0.029404 0)
(1.00718 0.028095 0)
(0.998735 0.0285099 0)
(0.993361 0.0301989 0)
(0.989048 0.0318315 0)
(0.989898 0.035849 0)
(0.994993 0.0417935 0)
(0.9949 0.044978 0)
(0.991576 0.046285 0)
(0.987177 0.0468407 0)
(0.979168 0.0468217 0)
(0.963457 0.0444372 0)
(0.951313 0.0428529 0)
(0.944434 0.0435241 0)
(0.939075 0.0445663 0)
(0.936896 0.0473959 0)
(0.942411 0.0547371 0)
(0.944243 0.060406 0)
(0.940487 0.0622551 0)
(0.935068 0.0624537 0)
(0.926509 0.0618715 0)
(0.907767 0.0568266 0)
(0.888792 0.0512725 0)
(0.877672 0.0492973 0)
(0.8701 0.0494478 0)
(0.865418 0.0508254 0)
(0.867142 0.0562334 0)
(0.865947 0.0611915 0)
(0.859425 0.0629179 0)
(0.850611 0.0624539 0)
(0.83705 0.0599873 0)
(0.811404 0.0498029 0)
(0.782943 0.036369 0)
(0.759447 0.0200106 0)
(0.760293 -0.00760415 0)
(0.432786 -0.00542361 0)
(-0.484405 -0.00750829 0)
(1.20129 -0.107619 0)
(1.19417 -0.103584 0)
(1.19012 -0.101628 0)
(1.1867 -0.0997429 0)
(1.18562 -0.096888 0)
(1.18858 -0.0929608 0)
(1.1889 -0.0898215 0)
(1.18677 -0.0873048 0)
(1.18373 -0.0851255 0)
(1.18017 -0.0832285 0)
(1.17561 -0.0813561 0)
(1.16994 -0.0796523 0)
(1.16513 -0.0777602 0)
(1.16126 -0.0757512 0)
(1.15816 -0.0737583 0)
(1.15888 -0.0700264 0)
(1.16138 -0.0658603 0)
(1.16052 -0.0629326 0)
(1.15792 -0.0606854 0)
(1.1546 -0.0587584 0)
(1.15055 -0.05697 0)
(1.14457 -0.05548 0)
(1.13851 -0.0539987 0)
(1.13391 -0.052101 0)
(1.1302 -0.0503476 0)
(1.12811 -0.0480317 0)
(1.13104 -0.0442185 0)
(1.1324 -0.0408587 0)
(1.13053 -0.0382519 0)
(1.12741 -0.0360928 0)
(1.12365 -0.0343743 0)
(1.11809 -0.0326244 0)
(1.11016 -0.0311118 0)
(1.10438 -0.0295946 0)
(1.1002 -0.0279951 0)
(1.09684 -0.0262974 0)
(1.09749 -0.0231388 0)
(1.10104 -0.019357 0)
(1.10054 -0.0165846 0)
(1.09781 -0.0144582 0)
(1.09427 -0.0127971 0)
(1.08972 -0.0112617 0)
(1.08108 -0.0100443 0)
(1.07268 -0.00881923 0)
(1.06747 -0.00711434 0)
(1.0636 -0.00526974 0)
(1.0618 -0.00257097 0)
(1.06568 0.00166614 0)
(1.06771 0.00490508 0)
(1.06559 0.00666824 0)
(1.06217 0.00782829 0)
(1.05827 0.00879072 0)
(1.05086 0.00969677 0)
(1.03965 0.0101861 0)
(1.03221 0.011433 0)
(1.02752 0.0134157 0)
(1.02404 0.0155565 0)
(1.02568 0.0197051 0)
(1.0302 0.0244815 0)
(1.02967 0.0267184 0)
(1.02652 0.027632 0)
(1.02269 0.0282055 0)
(1.01665 0.0288406 0)
(1.00401 0.0282436 0)
(0.993296 0.0281173 0)
(0.987153 0.0292727 0)
(0.982564 0.0307305 0)
(0.980803 0.0336745 0)
(0.986185 0.0402652 0)
(0.988701 0.0451263 0)
(0.986019 0.0467472 0)
(0.981754 0.0470597 0)
(0.9759 0.0472759 0)
(0.962413 0.0451341 0)
(0.947937 0.0422441 0)
(0.93923 0.0416251 0)
(0.933356 0.0425088 0)
(0.928821 0.0440124 0)
(0.931061 0.0496573 0)
(0.936263 0.0576664 0)
(0.935012 0.0618155 0)
(0.930164 0.0631156 0)
(0.923981 0.0634264 0)
(0.910447 0.0605425 0)
(0.889524 0.0522943 0)
(0.874757 0.0473939 0)
(0.86622 0.0456715 0)
(0.85952 0.0456722 0)
(0.857954 0.0490667 0)
(0.858285 0.0551188 0)
(0.853917 0.0585622 0)
(0.846589 0.0586937 0)
(0.837701 0.0572945 0)
(0.822683 0.0506453 0)
(0.799768 0.0377942 0)
(0.773845 0.0229232 0)
(0.767871 -0.0115964 0)
(0.429483 -0.0026783 0)
(-0.484494 -0.00495811 0)
(1.1972 -0.105381 0)
(1.18984 -0.101477 0)
(1.18561 -0.0994469 0)
(1.18206 -0.0975152 0)
(1.18031 -0.094685 0)
(1.18311 -0.0902781 0)
(1.18419 -0.0869317 0)
(1.18237 -0.084712 0)
(1.17949 -0.082851 0)
(1.17609 -0.0811714 0)
(1.17208 -0.0795262 0)
(1.16634 -0.0778489 0)
(1.16074 -0.075912 0)
(1.15657 -0.0736624 0)
(1.15322 -0.0715615 0)
(1.15291 -0.0679328 0)
(1.15596 -0.0633976 0)
(1.15574 -0.0606071 0)
(1.15334 -0.058735 0)
(1.15018 -0.0571632 0)
(1.14652 -0.0558121 0)
(1.14126 -0.0543411 0)
(1.1343 -0.052831 0)
(1.12928 -0.0508792 0)
(1.12546 -0.0488599 0)
(1.12286 -0.046465 0)
(1.12511 -0.0422372 0)
(1.12716 -0.0385444 0)
(1.12557 -0.0363414 0)
(1.12259 -0.0345394 0)
(1.11901 -0.0329269 0)
(1.11452 -0.0313743 0)
(1.1067 -0.0301908 0)
(1.10002 -0.0287752 0)
(1.09557 -0.0270366 0)
(1.09198 -0.0254672 0)
(1.09154 -0.0223795 0)
(1.09512 -0.0180251 0)
(1.09525 -0.0150619 0)
(1.09272 -0.0130731 0)
(1.08931 -0.0112645 0)
(1.08537 -0.00960715 0)
(1.07809 -0.00833392 0)
(1.06868 -0.00768203 0)
(1.06278 -0.00638296 0)
(1.05875 -0.00521393 0)
(1.05602 -0.0035508 0)
(1.05902 0.000631384 0)
(1.0622 0.00493624 0)
(1.06073 0.00747537 0)
(1.0575 0.00930683 0)
(1.05376 0.0107438 0)
(1.04781 0.0119626 0)
(1.03661 0.0118834 0)
(1.02768 0.0122906 0)
(1.02255 0.0133395 0)
(1.0186 0.0142545 0)
(1.01803 0.0170263 0)
(1.02348 0.0230013 0)
(1.02491 0.0271875 0)
(1.02222 0.0289697 0)
(1.01847 0.0296513 0)
(1.01338 0.0302729 0)
(1.00217 0.0297481 0)
(0.990058 0.028764 0)
(0.982555 0.0291709 0)
(0.97753 0.0301213 0)
(0.973893 0.0316772 0)
(0.976714 0.0370373 0)
(0.982455 0.0442092 0)
(0.981956 0.0475921 0)
(0.978132 0.0484312 0)
(0.973506 0.0485416 0)
(0.96354 0.0469667 0)
(0.947555 0.0421708 0)
(0.936129 0.0401868 0)
(0.92923 0.0405725 0)
(0.92409 0.0413516 0)
(0.921848 0.0441338 0)
(0.927176 0.0521386 0)
(0.929819 0.0588561 0)
(0.926618 0.0618759 0)
(0.921184 0.0627931 0)
(0.913297 0.0626793 0)
(0.895908 0.0563866 0)
(0.8767 0.0467473 0)
(0.864596 0.0428323 0)
(0.857103 0.0417703 0)
(0.852083 0.0424134 0)
(0.852398 0.0470163 0)
(0.851207 0.050957 0)
(0.846205 0.0516312 0)
(0.839203 0.0503518 0)
(0.829693 0.0480204 0)
(0.81457 0.0394092 0)
(0.79311 0.0265904 0)
(0.776908 -0.00599372 0)
(0.42496 -0.00463053 0)
(-0.484221 -0.00289021 0)
(1.19372 -0.10274 0)
(1.18614 -0.0992193 0)
(1.18153 -0.0972548 0)
(1.1779 -0.0953478 0)
(1.17553 -0.092868 0)
(1.17779 -0.0886197 0)
(1.17983 -0.0850316 0)
(1.17846 -0.0827292 0)
(1.17575 -0.0808763 0)
(1.17248 -0.0791757 0)
(1.16869 -0.0774692 0)
(1.16319 -0.0754437 0)
(1.15679 -0.0732527 0)
(1.15244 -0.0710636 0)
(1.14906 -0.069066 0)
(1.1478 -0.066175 0)
(1.15104 -0.062332 0)
(1.15179 -0.0595111 0)
(1.14965 -0.0576225 0)
(1.14654 -0.0560157 0)
(1.14293 -0.0544937 0)
(1.13824 -0.0526268 0)
(1.13094 -0.0506506 0)
(1.12527 -0.0486888 0)
(1.12134 -0.0467178 0)
(1.11828 -0.044745 0)
(1.11944 -0.0411187 0)
(1.12245 -0.0371267 0)
(1.12156 -0.0346089 0)
(1.11886 -0.0328923 0)
(1.11549 -0.0314639 0)
(1.11153 -0.0300849 0)
(1.10428 -0.0288377 0)
(1.09658 -0.0277447 0)
(1.09162 -0.0261786 0)
(1.08779 -0.0245789 0)
(1.08583 -0.0220282 0)
(1.08934 -0.0169331 0)
(1.09089 -0.0130264 0)
(1.0889 -0.0108935 0)
(1.08572 -0.00931867 0)
(1.08205 -0.00815759 0)
(1.076 -0.00718215 0)
(1.06636 -0.00694811 0)
(1.05961 -0.00625353 0)
(1.05514 -0.00506324 0)
(1.05155 -0.00377513 0)
(1.05223 4.32737e-06 0)
(1.05668 0.00596112 0)
(1.05661 0.00937462 0)
(1.05368 0.011042 0)
(1.05004 0.0122277 0)
(1.04522 0.0132973 0)
(1.03493 0.0132019 0)
(1.02519 0.0126712 0)
(1.01938 0.0131529 0)
(1.01503 0.0141101 0)
(1.01204 0.0158858 0)
(1.01592 0.0213078 0)
(1.02004 0.0269889 0)
(1.01863 0.0294572 0)
(1.01516 0.030749 0)
(1.01091 0.0318371 0)
(1.00191 0.0315543 0)
(0.988787 0.0294051 0)
(0.979929 0.0288667 0)
(0.974243 0.0296871 0)
(0.969817 0.0304201 0)
(0.968377 0.0330008 0)
(0.97479 0.0405667 0)
(0.977924 0.0466017 0)
(0.975452 0.0490941 0)
(0.971322 0.0498547 0)
(0.964851 0.0498375 0)
(0.950078 0.0456743 0)
(0.935424 0.0407951 0)
(0.926915 0.0397058 0)
(0.92121 0.0398847 0)
(0.916501 0.0406788 0)
(0.917406 0.0455229 0)
(0.922779 0.0545263 0)
(0.922665 0.0598942 0)
(0.918312 0.0622956 0)
(0.912575 0.0628039 0)
(0.90285 0.061244 0)
(0.88365 0.0521135 0)
(0.866484 0.0429754 0)
(0.856284 0.0395715 0)
(0.84964 0.0384144 0)
(0.846525 0.0399223 0)
(0.846898 0.0448084 0)
(0.844253 0.0471526 0)
(0.839315 0.045911 0)
(0.833252 0.042968 0)
(0.824145 0.0378309 0)
(0.810158 0.0282335 0)
(0.790899 0.000673618 0)
(0.421004 -0.00631312 0)
(-0.4839 -0.000617362 0)
(1.19067 -0.100109 0)
(1.18317 -0.096847 0)
(1.17801 -0.0948087 0)
(1.17433 -0.0929058 0)
(1.1716 -0.0908604 0)
(1.17318 -0.0869917 0)
(1.17605 -0.0832395 0)
(1.1751 -0.0808054 0)
(1.17249 -0.0788764 0)
(1.16928 -0.0770622 0)
(1.16557 -0.0752475 0)
(1.16015 -0.073016 0)
(1.15344 -0.0707506 0)
(1.14901 -0.0689137 0)
(1.14562 -0.0674256 0)
(1.14377 -0.0650938 0)
(1.14684 -0.0612457 0)
(1.14831 -0.0581642 0)
(1.1464 -0.0560163 0)
(1.14341 -0.0541872 0)
(1.1399 -0.0524061 0)
(1.13546 -0.0504525 0)
(1.12816 -0.048427 0)
(1.12192 -0.046683 0)
(1.11785 -0.0450591 0)
(1.11452 -0.0434554 0)
(1.1144 -0.0401353 0)
(1.11812 -0.0358741 0)
(1.11811 -0.0332769 0)
(1.1156 -0.0315511 0)
(1.11236 -0.0300783 0)
(1.10863 -0.0286797 0)
(1.10224 -0.027254 0)
(1.09379 -0.0262211 0)
(1.08811 -0.0247796 0)
(1.08411 -0.0231341 0)
(1.08105 -0.0212132 0)
(1.08317 -0.0168805 0)
(1.08671 -0.0121275 0)
(1.08567 -0.00975358 0)
(1.08273 -0.00831533 0)
(1.07919 -0.00721378 0)
(1.07423 -0.00614471 0)
(1.0648 -0.00602232 0)
(1.05691 -0.00579417 0)
(1.05179 -0.00459685 0)
(1.04785 -0.00322023 0)
(1.04569 -0.000888053 0)
(1.05014 0.00516963 0)
(1.0526 0.010239 0)
(1.05055 0.012365 0)
(1.04714 0.0134691 0)
(1.04317 0.0142825 0)
(1.03469 0.0141438 0)
(1.02372 0.0126821 0)
(1.01688 0.0125809 0)
(1.01216 0.0134497 0)
(1.00824 0.0145247 0)
(1.00798 0.0183457 0)
(1.0138 0.0261496 0)
(1.01509 0.0309726 0)
(1.01234 0.0325865 0)
(1.00852 0.0333102 0)
(1.0026 0.0334717 0)
(0.989853 0.0306262 0)
(0.978707 0.0282639 0)
(0.972311 0.0282395 0)
(0.967317 0.0289849 0)
(0.963228 0.0302308 0)
(0.96551 0.0355054 0)
(0.971987 0.0442733 0)
(0.972225 0.0487189 0)
(0.968745 0.0504064 0)
(0.96415 0.0514869 0)
(0.955098 0.0505047 0)
(0.938705 0.0435311 0)
(0.926491 0.0388377 0)
(0.919318 0.0383846 0)
(0.914026 0.0386651 0)
(0.910398 0.0400498 0)
(0.91403 0.0469146 0)
(0.917913 0.0551528 0)
(0.916107 0.0589186 0)
(0.911213 0.0604522 0)
(0.904855 0.0608768 0)
(0.892724 0.0583577 0)
(0.873358 0.0476006 0)
(0.858367 0.0387823 0)
(0.849332 0.0356891 0)
(0.843429 0.0348018 0)
(0.84217 0.0370402 0)
(0.842543 0.040708 0)
(0.839731 0.0409809 0)
(0.835472 0.0382266 0)
(0.82998 0.0344628 0)
(0.822176 0.0285612 0)
(0.80541 0.00953454 0)
(0.419579 -0.00666626 0)
(-0.483365 0.00201523 0)
(1.18796 -0.0977193 0)
(1.1807 -0.0946926 0)
(1.17498 -0.0923539 0)
(1.17122 -0.0903907 0)
(1.16826 -0.0885784 0)
(1.16904 -0.0852344 0)
(1.17234 -0.0814511 0)
(1.17183 -0.0787575 0)
(1.16941 -0.076626 0)
(1.16631 -0.0747571 0)
(1.1627 -0.0729923 0)
(1.15749 -0.0708565 0)
(1.15074 -0.0687336 0)
(1.14609 -0.0670948 0)
(1.14256 -0.0658705 0)
(1.14002 -0.0642364 0)
(1.14253 -0.0604444 0)
(1.14475 -0.0564804 0)
(1.14312 -0.05392 0)
(1.14028 -0.0517972 0)
(1.13691 -0.0499685 0)
(1.13286 -0.0481985 0)
(1.12591 -0.0463951 0)
(1.11933 -0.0449913 0)
(1.11501 -0.0437279 0)
(1.11148 -0.0426593 0)
(1.10987 -0.0404298 0)
(1.1135 -0.0356601 0)
(1.11482 -0.0318559 0)
(1.11258 -0.0298736 0)
(1.10945 -0.0282706 0)
(1.1059 -0.0268445 0)
(1.10058 -0.0254238 0)
(1.0918 -0.0245696 0)
(1.08528 -0.0234366 0)
(1.08102 -0.0220958 0)
(1.07755 -0.0208977 0)
(1.07728 -0.0176224 0)
(1.08205 -0.0120321 0)
(1.08269 -0.00856857 0)
(1.08002 -0.00707447 0)
(1.07662 -0.00597132 0)
(1.07263 -0.0049475 0)
(1.06439 -0.00480153 0)
(1.05488 -0.0050176 0)
(1.04868 -0.00380231 0)
(1.04439 -0.00223372 0)
(1.04101 -0.000605805 0)
(1.04278 0.00375872 0)
(1.04811 0.0099596 0)
(1.04792 0.0131492 0)
(1.0448 0.0143737 0)
(1.04114 0.015046 0)
(1.03525 0.01523 0)
(1.02403 0.0133797 0)
(1.01486 0.0125238 0)
(1.00903 0.0136524 0)
(1.00472 0.015095 0)
(1.00157 0.0168845 0)
(1.00565 0.0232514 0)
(1.01092 0.0306654 0)
(1.01007 0.0338463 0)
(1.00657 0.0346235 0)
(1.0025 0.0350611 0)
(0.993119 0.0331352 0)
(0.97972 0.0284582 0)
(0.970791 0.0266457 0)
(0.964997 0.0273654 0)
(0.960193 0.0285382 0)
(0.957461 0.0309545 0)
(0.962886 0.0397626 0)
(0.96751 0.04844 0)
(0.966126 0.0518631 0)
(0.962312 0.0526373 0)
(0.957279 0.0527282 0)
(0.945455 0.0491634 0)
(0.928896 0.0411463 0)
(0.918631 0.0374461 0)
(0.912457 0.0371484 0)
(0.907308 0.0373212 0)
(0.905213 0.0400589 0)
(0.909843 0.0488476 0)
(0.911547 0.0562625 0)
(0.908367 0.0595705 0)
(0.903071 0.0606194 0)
(0.896503 0.0599304 0)
(0.883552 0.0547621 0)
(0.864638 0.0427544 0)
(0.851072 0.034656 0)
(0.843197 0.0316372 0)
(0.838243 0.0308201 0)
(0.83852 0.0338281 0)
(0.838991 0.0367549 0)
(0.83701 0.0353706 0)
(0.833912 0.0309432 0)
(0.830246 0.0268503 0)
(0.818345 0.0160397 0)
(0.421838 -0.00396149 0)
(-0.482756 0.00496356 0)
(1.1855 -0.0956265 0)
(1.17831 -0.0926687 0)
(1.17223 -0.0899782 0)
(1.16836 -0.0880473 0)
(1.1652 -0.0863644 0)
(1.16498 -0.0832568 0)
(1.16871 -0.0790341 0)
(1.16889 -0.0761868 0)
(1.16667 -0.0741307 0)
(1.16366 -0.0723944 0)
(1.16017 -0.0708386 0)
(1.15535 -0.0690464 0)
(1.14867 -0.0673145 0)
(1.14366 -0.0658604 0)
(1.13974 -0.0645146 0)
(1.13651 -0.0630907 0)
(1.13726 -0.0593262 0)
(1.14081 -0.054236 0)
(1.14027 -0.0511338 0)
(1.13775 -0.0491311 0)
(1.13453 -0.0475924 0)
(1.13076 -0.0462132 0)
(1.12436 -0.0449414 0)
(1.11731 -0.0440061 0)
(1.11254 -0.0429243 0)
(1.1087 -0.0418296 0)
(1.1057 -0.0403457 0)
(1.10794 -0.0358027 0)
(1.1112 -0.030634 0)
(1.10995 -0.0277831 0)
(1.10706 -0.026109 0)
(1.10361 -0.024765 0)
(1.09897 -0.0234703 0)
(1.09041 -0.0227783 0)
(1.08316 -0.0222409 0)
(1.07863 -0.0213053 0)
(1.07492 -0.0203805 0)
(1.07259 -0.0186298 0)
(1.07649 -0.0132917 0)
(1.07946 -0.00819799 0)
(1.07762 -0.00568224 0)
(1.07437 -0.00435107 0)
(1.07068 -0.0031133 0)
(1.06405 -0.00227308 0)
(1.05359 -0.00276891 0)
(1.04659 -0.00255501 0)
(1.04209 -0.00161447 0)
(1.03836 -0.000733911 0)
(1.03686 0.00181619 0)
(1.04233 0.00818317 0)
(1.04498 0.0130703 0)
(1.04274 0.0152519 0)
(1.03922 0.0161823 0)
(1.03499 0.0170858 0)
(1.02538 0.0161395 0)
(1.01395 0.0142368 0)
(1.00699 0.0143508 0)
(1.00215 0.0155112 0)
(0.998114 0.0166737 0)
(0.997496 0.0197295 0)
(1.00458 0.027804 0)
(1.00734 0.0334435 0)
(1.00486 0.0356498 0)
(1.00105 0.0361696 0)
(0.995647 0.0362202 0)
(0.98318 0.0320954 0)
(0.970432 0.027725 0)
(0.962712 0.0271675 0)
(0.957426 0.0283251 0)
(0.953318 0.0292265 0)
(0.95335 0.0328097 0)
(0.960919 0.0427306 0)
(0.963416 0.0493572 0)
(0.960599 0.0518258 0)
(0.956185 0.0528228 0)
(0.949733 0.0529995 0)
(0.935734 0.04709 0)
(0.920587 0.0385299 0)
(0.911461 0.0355866 0)
(0.905478 0.0358184 0)
(0.900789 0.0363703 0)
(0.900733 0.0405657 0)
(0.90531 0.049513 0)
(0.905567 0.0550745 0)
(0.901915 0.0570551 0)
(0.896499 0.0576388 0)
(0.889139 0.0567301 0)
(0.875116 0.0503389 0)
(0.85723 0.0377212 0)
(0.844933 0.0299472 0)
(0.838054 0.0267101 0)
(0.834403 0.0261913 0)
(0.836292 0.0297493 0)
(0.837781 0.0315608 0)
(0.837081 0.0284354 0)
(0.835771 0.0243981 0)
(0.827823 0.0195235 0)
(0.427795 0.00119669 0)
(-0.48213 0.00814021 0)
(1.18323 -0.0936997 0)
(1.1758 -0.0904828 0)
(1.16953 -0.0876788 0)
(1.16551 -0.0859208 0)
(1.16222 -0.0843405 0)
(1.16075 -0.0816879 0)
(1.16467 -0.0769784 0)
(1.16622 -0.073618 0)
(1.16435 -0.0717372 0)
(1.16146 -0.070259 0)
(1.15808 -0.0690214 0)
(1.15385 -0.0677655 0)
(1.14722 -0.0666614 0)
(1.14151 -0.0652284 0)
(1.13704 -0.0629177 0)
(1.13356 -0.0608305 0)
(1.13188 -0.057894 0)
(1.1359 -0.0523549 0)
(1.13747 -0.0486824 0)
(1.13545 -0.0469584 0)
(1.1324 -0.045729 0)
(1.12891 -0.0448212 0)
(1.12366 -0.044212 0)
(1.11598 -0.0439865 0)
(1.11029 -0.0428628 0)
(1.10594 -0.040855 0)
(1.10251 -0.0390266 0)
(1.10178 -0.0356694 0)
(1.10639 -0.0295747 0)
(1.10719 -0.0258413 0)
(1.10473 -0.0240055 0)
(1.10148 -0.0228032 0)
(1.09773 -0.0218821 0)
(1.09025 -0.0216964 0)
(1.08179 -0.0219041 0)
(1.07648 -0.0211137 0)
(1.07246 -0.0198436 0)
(1.0691 -0.0185195 0)
(1.06987 -0.0146568 0)
(1.07496 -0.00803155 0)
(1.07523 -0.00420989 0)
(1.07251 -0.00224169 0)
(1.06913 -0.00101855 0)
(1.06414 -0.000144964 0)
(1.0539 -0.00107705 0)
(1.04524 -0.00200893 0)
(1.04031 -0.00162002 0)
(1.0363 -0.000932955 0)
(1.03292 2.42738e-05 0)
(1.03516 0.00490346 0)
(1.04065 0.0125411 0)
(1.04056 0.0163361 0)
(1.03758 0.0183004 0)
(1.03402 0.019411 0)
(1.0273 0.0194521 0)
(1.01492 0.0163991 0)
(1.00577 0.0146641 0)
(1.00041 0.0150559 0)
(0.996154 0.0157972 0)
(0.992635 0.0172074 0)
(0.995907 0.0229172 0)
(1.00241 0.0315968 0)
(1.0026 0.0356296 0)
(0.999528 0.037703 0)
(0.9955 0.0387561 0)
(0.987334 0.0381599 0)
(0.972353 0.0323979 0)
(0.961673 0.0286075 0)
(0.95588 0.0281507 0)
(0.951558 0.0284531 0)
(0.94777 0.0295692 0)
(0.950536 0.0351811 0)
(0.957303 0.0455765 0)
(0.957417 0.0511713 0)
(0.953911 0.0531541 0)
(0.94938 0.0534243 0)
(0.94198 0.052488 0)
(0.926401 0.0453732 0)
(0.912274 0.0380613 0)
(0.904414 0.0358628 0)
(0.89918 0.0354343 0)
(0.894964 0.035865 0)
(0.89656 0.041108 0)
(0.900183 0.0495367 0)
(0.899076 0.0541346 0)
(0.894911 0.0557033 0)
(0.889518 0.0557746 0)
(0.882193 0.0537573 0)
(0.868072 0.0457849 0)
(0.851131 0.0327434 0)
(0.840023 0.0248382 0)
(0.834157 0.0211789 0)
(0.832053 0.0210101 0)
(0.835682 0.0250232 0)
(0.838447 0.0256331 0)
(0.840073 0.0219886 0)
(0.834331 0.019589 0)
(0.435835 0.00899128 0)
(-0.481141 0.0111704 0)
(1.18097 -0.0914065 0)
(1.17341 -0.0880509 0)
(1.16705 -0.0855053 0)
(1.16283 -0.0839369 0)
(1.15944 -0.0824173 0)
(1.15696 -0.0804093 0)
(1.16007 -0.075988 0)
(1.16361 -0.0717308 0)
(1.16234 -0.0696825 0)
(1.15951 -0.068394 0)
(1.15625 -0.0672516 0)
(1.15254 -0.066038 0)
(1.14603 -0.064919 0)
(1.13898 -0.0633122 0)
(1.13422 -0.0611467 0)
(1.13058 -0.0590295 0)
(1.12796 -0.0567374 0)
(1.13089 -0.0520871 0)
(1.13471 -0.0475865 0)
(1.13349 -0.0455553 0)
(1.13056 -0.0444133 0)
(1.12715 -0.0434786 0)
(1.12298 -0.0426104 0)
(1.11527 -0.0423911 0)
(1.10813 -0.0414946 0)
(1.10332 -0.0395341 0)
(1.09957 -0.0374958 0)
(1.09705 -0.0350306 0)
(1.10059 -0.0296323 0)
(1.10411 -0.0245545 0)
(1.10266 -0.0223999 0)
(1.09962 -0.021235 0)
(1.09615 -0.0203986 0)
(1.09066 -0.020075 0)
(1.08151 -0.0210169 0)
(1.07474 -0.0207886 0)
(1.07 -0.0191906 0)
(1.06621 -0.0174733 0)
(1.064 -0.0149814 0)
(1.06857 -0.00852401 0)
(1.07181 -0.00296744 0)
(1.07017 -0.000673209 0)
(1.06697 0.000660697 0)
(1.06336 0.00137748 0)
(1.05585 0.000636416 0)
(1.0455 -0.00184559 0)
(1.03877 -0.00229336 0)
(1.03389 -0.000968106 0)
(1.02986 0.000656927 0)
(1.02783 0.00329222 0)
(1.03345 0.0111555 0)
(1.03696 0.017678 0)
(1.0354 0.0200169 0)
(1.03203 0.0210843 0)
(1.02797 0.0215256 0)
(1.01839 0.0192548 0)
(1.00639 0.0149814 0)
(0.999224 0.0139121 0)
(0.994444 0.0146849 0)
(0.990446 0.0156256 0)
(0.988276 0.0181191 0)
(0.994044 0.0271031 0)
(0.998223 0.0355693 0)
(0.996966 0.0385697 0)
(0.993494 0.0397671 0)
(0.989065 0.0406441 0)
(0.978973 0.0378242 0)
(0.964572 0.0302467 0)
(0.955547 0.0267706 0)
(0.950123 0.0268731 0)
(0.945942 0.0273988 0)
(0.942915 0.0292154 0)
(0.947693 0.0371014 0)
(0.952843 0.0467084 0)
(0.95168 0.0504388 0)
(0.947719 0.0521012 0)
(0.942656 0.053771 0)
(0.933923 0.0529736 0)
(0.918383 0.0442055 0)
(0.905893 0.0363434 0)
(0.898436 0.0341191 0)
(0.893327 0.0337892 0)
(0.889799 0.0347248 0)
(0.892455 0.0410895 0)
(0.895111 0.0485056 0)
(0.893394 0.0517797 0)
(0.889269 0.0527743 0)
(0.883969 0.0527637 0)
(0.876422 0.0503685 0)
(0.86248 0.0411547 0)
(0.846633 0.0273355 0)
(0.836586 0.0189493 0)
(0.831708 0.0152124 0)
(0.83143 0.0156932 0)
(0.836736 0.0190517 0)
(0.841815 0.0185519 0)
(0.837997 0.0171438 0)
(0.444839 0.0188253 0)
(-0.479943 0.0138922 0)
(1.17905 -0.0885699 0)
(1.1718 -0.0856644 0)
(1.16499 -0.0836049 0)
(1.16041 -0.0821742 0)