/*--------------------------------*- C++ -*----------------------------------*\
  =========                 |
  \\      /  F ield         | OpenFOAM: The Open Source CFD Toolbox
   \\    /   O peration     | Website:  https://openfoam.org
    \\  /    A nd           | Version:  12
     \\/     M anipulation  |
\*---------------------------------------------------------------------------*/
FoamFile
{
    format      ascii;
    class       volVectorField;
    location    "6.36";
    object      U;
}
// * * * * * * * * * * * * * * * * * * * * * * * * * * * * * * * * * * * * * //

dimensions      [0 1 -1 0 0 0 0];

internalField   nonuniform List<vector> 
22702
(
(2 1.07623e-13 0)
(2 3.45292e-14 0)
(2.04392 -0.0930968 0)
(2 -1.11838e-09 0)
(1.97891 0.0335652 0)
(2 1.21923e-14 0)
(1.83069 0.229034 0)
(2 -1.13246e-13 0)
(2 -2.98043e-14 0)
(2.10347 -0.26957 0)
(1.83003 0.228892 0)
(1.83192 0.228968 0)
(2 -6.3482e-14 0)
(1.83138 0.228693 0)
(2.04136 -0.077371 0)
(2 -1.51778e-13 0)
(2 -1.81568e-13 0)
(2 1.30853e-14 0)
(1.82971 0.228597 0)
(2 -2.55772e-14 0)
(1.8315 0.229201 0)
(2 2.75629e-15 0)
(1.82964 0.22804 0)
(2.11658 -0.271469 0)
(1.83249 0.230015 0)
(2.14392 -0.260307 0)
(2 -6.36422e-15 0)
(1.82879 0.228412 0)
(2.11663 -0.258929 0)
(2.11604 -0.266794 0)
(2 4.63852e-15 0)
(1.83135 0.228512 0)
(2 5.55704e-14 0)
(2 -2.32823e-14 0)
(2 -1.15216e-14 0)
(1.84393 0.215493 0)
(1.83134 0.229886 0)
(1.82966 0.228292 0)
(2 -1.7597e-13 0)
(2 -2.17432e-13 0)
(2.1209 -0.265762 0)
(2 -8.4404e-14 0)
(1.9169 0.124431 0)
(2 -3.02221e-14 0)
(1.82852 0.228081 0)
(2 -1.99309e-14 0)
(2 -1.94675e-14 0)
(2 -3.42359e-13 0)
(2 -3.69913e-13 0)
(2.11241 -0.265234 0)
(2 6.18342e-14 0)
(2.11473 -0.267587 0)
(2 -4.78703e-14 0)
(1.83038 0.228463 0)
(2 -1.54123e-13 0)
(1.82931 0.228155 0)
(2 5.22916e-14 0)
(2 1.36133e-09 0)
(2 2.31394e-13 0)
(2 -4.14024e-13 0)
(2.12951 -0.263098 0)
(2 9.64965e-14 0)
(2 8.60169e-14 0)
(2.1077 -0.256901 0)
(2 2.41462e-14 0)
(2.12304 -0.265232 0)
(2 -3.28434e-14 0)
(2 -1.6982e-13 0)
(2 -2.46026e-15 0)
(2.12256 -0.263671 0)
(2 1.74278e-13 0)
(1.83117 0.228723 0)
(1.8975 0.150684 0)
(2 1.02011e-09 0)
(1.83125 0.228733 0)
(1.8225 0.238525 0)
(2.12623 -0.264499 0)
(1.83313 0.229808 0)
(2.10846 -0.262895 0)
(2 4.11663e-14 0)
(1.83159 0.22935 0)
(2.10973 -0.258374 0)
(1.82729 0.227921 0)
(1.82738 0.227595 0)
(2 9.61644e-14 0)
(2 1.09208e-06 0)
(2 -2.28526e-14 0)
(2 1.296e-13 0)
(2.01891 -0.0484959 0)
(2.1146 -0.265561 0)
(1.83058 0.228634 0)
(2 -1.05434e-13 0)
(2 -7.62073e-11 0)
(2.10477 -0.270009 0)
(2 -3.08393e-14 0)
(1.83121 0.229192 0)
(2.106 -0.271422 0)
(2 2.31534e-08 0)
(2 -9.96956e-14 0)
(2 -3.99295e-14 0)
(2 -1.68484e-13 0)
(1.91745 0.123359 0)
(1.83143 0.229352 0)
(2.15048 -0.25758 0)
(2 7.28118e-10 0)
(2 -1.1119e-09 0)
(1.95806 0.066882 0)
(2 9.65109e-09 0)
(2.10951 -0.260114 0)
(2 -7.24436e-14 0)
(1.83304 0.229303 0)
(1.82906 0.22883 0)
(2 4.46372e-09 0)
(2 -1.98643e-13 0)
(2.11692 -0.277256 0)
(2.11281 -0.277236 0)
(2.11039 -0.267532 0)
(2 1.94309e-14 0)
(2 -1.56353e-07 0)
(2 -5.92584e-14 0)
(2 9.41049e-14 0)
(2 1.25839e-07 0)
(2.02603 -0.0573992 0)
(2 -1.10075e-07 0)
(1.85479 0.203344 0)
(1.986 0.0271804 0)
(1.8319 0.229006 0)
(2 -9.20676e-14 0)
(1.83193 0.228997 0)
(1.82971 0.228784 0)
(1.83109 0.229033 0)
(1.82934 0.228655 0)
(2 9.5498e-15 0)
(2.13597 -0.260982 0)
(2 -2.02286e-14 0)
(2.11692 -0.266534 0)
(2 2.40645e-14 0)
(2 1.93307e-13 0)
(2 -4.26781e-14 0)
(2 1.38845e-14 0)
(1.82939 0.229058 0)
(2 3.05544e-09 0)
(2 -3.43577e-14 0)
(2 -4.08268e-13 0)
(2 1.32622e-13 0)
(1.82991 0.228859 0)
(2 1.2063e-13 0)
(1.99409 0.0138038 0)
(2 -7.32259e-14 0)
(2 -1.12096e-13 0)
(2 -6.91108e-11 0)
(2 3.05943e-14 0)
(2.10603 -0.264281 0)
(2 -1.58624e-14 0)
(1.99603 0.00820185 0)
(2 2.57187e-14 0)
(2.10568 -0.263713 0)
(2 1.50297e-14 0)
(2 1.7918e-14 0)
(2 8.92636e-14 0)
(1.83066 0.22903 0)
(2 3.67119e-14 0)
(1.83068 0.228576 0)
(2.1009 -0.278523 0)
(2.1332 -0.259916 0)
(1.83089 0.229007 0)
(1.8304 0.228476 0)
(2 8.20342e-14 0)
(1.97027 0.0431429 0)
(1.90388 0.14153 0)
(2 2.06606e-13 0)
(1.82669 0.228718 0)
(2.11113 -0.26421 0)
(1.84381 0.215482 0)
(2 1.10707e-14 0)
(2 1.90388e-15 0)
(2 1.40112e-14 0)
(2 -2.47164e-14 0)
(1.83148 0.228649 0)
(1.86142 0.192004 0)
(2 -5.02275e-14 0)
(1.8298 0.228701 0)
(2.0977 -0.258043 0)
(1.8272 0.228513 0)
(2 2.25546e-13 0)
(2.0915 -0.259949 0)
(2 -9.49563e-14 0)
(2.11134 -0.265766 0)
(2.13905 -0.264823 0)
(2.00009 -0.000144204 0)
(2 1.77654e-14 0)
(2 3.29008e-14 0)
(1.82958 0.228895 0)
(2 1.48005e-14 0)
(2 -7.80363e-14 0)
(1.8314 0.228794 0)
(2 -3.75624e-13 0)
(1.82798 0.227962 0)
(1.82951 0.229114 0)
(2.1078 -0.281493 0)
(2 -1.2968e-13 0)
(2 -9.2793e-14 0)
(2.10932 -0.264088 0)
(1.83163 0.2288 0)
(2 -1.15614e-13 0)
(2 -1.04666e-13 0)
(2 -1.23019e-14 0)
(1.83163 0.228924 0)
(2 -1.73558e-14 0)
(2.11627 -0.265381 0)
(2 -6.07514e-11 0)
(2 -1.27255e-13 0)
(1.83187 0.229166 0)
(1.83121 0.22892 0)
(1.83003 0.228532 0)
(2 1.20661e-13 0)
(1.99998 2.58201e-05 0)
(2 4.73316e-14 0)
(2 -4.39005e-14 0)
(2 4.26996e-14 0)
(1.83202 0.22899 0)
(2 -6.9541e-14 0)
(2.10052 -0.261975 0)
(1.82462 0.235458 0)
(1.83142 0.228851 0)
(1.83159 0.229065 0)
(2 1.90282e-07 0)
(2 -7.35862e-14 0)
(2 7.92888e-15 0)
(2.11619 -0.27315 0)
(1.83207 0.229042 0)
(1.91914 0.131365 0)
(2 -5.23065e-14 0)
(1.83081 0.22966 0)
(2.11192 -0.267961 0)
(2.1109 -0.265301 0)
(1.831 0.229694 0)
(1.83286 0.229468 0)
(2 -5.22148e-14 0)
(1.82984 0.230015 0)
(2.1329 -0.272174 0)
(1.85154 0.205751 0)
(2 -6.99853e-14 0)
(2 3.0896e-14 0)
(2 2.90815e-14 0)
(2 -2.7239e-14 0)
(1.83168 0.228867 0)
(2 -2.18738e-13 0)
(1.89992 0.147843 0)
(1.98352 0.0305824 0)
(2 1.5622e-14 0)
(2 -3.45628e-14 0)
(1.83173 0.228818 0)
(2.10406 -0.271375 0)
(2.07279 -0.160769 0)
(2 -1.94528e-13 0)
(1.83238 0.229181 0)
(2.11654 -0.263327 0)
(1.83079 0.228552 0)
(2 6.73494e-14 0)
(2 8.6233e-14 0)
(2 -4.11794e-14 0)
(2 2.9322e-14 0)
(2 9.61164e-14 0)
(2 -1.11017e-13 0)
(2 -4.04654e-14 0)
(2.11192 -0.262264 0)
(2.09323 -0.163771 0)
(2.11366 -0.266711 0)
(1.83131 0.229065 0)
(2 2.27955e-14 0)
(2 2.95824e-14 0)
(2 -1.73684e-07 0)
(2 -7.64144e-14 0)
(1.84566 0.210746 0)
(2 -2.11403e-07 0)
(2.11336 -0.263065 0)
(2 -1.29299e-13 0)
(2.1158 -0.281347 0)
(2.10935 -0.265033 0)
(1.83177 0.228996 0)
(2.1186 -0.270434 0)
(1.83157 0.229184 0)
(2 6.66146e-15 0)
(2 -1.80108e-13 0)
(2 -8.06041e-14 0)
(2.00081 -0.0016316 0)
(2.09617 -0.257397 0)
(2.13119 -0.273118 0)
(2 -2.98045e-07 0)
(2 -1.46863e-07 0)
(2.11618 -0.283286 0)
(2 2.53728e-09 0)
(1.82941 0.22876 0)
(2.14725 -0.253461 0)
(2 -3.20526e-15 0)
(2 -3.73601e-11 0)
(1.83118 0.228996 0)
(2.10938 -0.274484 0)
(2 -3.64997e-13 0)
(1.83497 0.228448 0)
(2.12658 -0.261091 0)
(1.83168 0.228849 0)
(2 4.64722e-14 0)
(2.11186 -0.287146 0)
(2.00083 -0.00145583 0)
(2 -3.21281e-14 0)
(2 3.03088e-06 0)
(2 3.12233e-14 0)
(2.11431 -0.265375 0)
(2 -2.56286e-13 0)
(2 -1.7742e-07 0)
(2 1.75908e-07 0)
(1.99999 1.44931e-05 0)
(1.99418 0.00187469 0)
(1.897 0.150412 0)
(2 -2.48266e-11 0)
(2.10072 -0.251302 0)
(2 -1.59267e-11 0)
(2 1.5209e-06 0)
(2 -4.93003e-14 0)
(2 -2.41709e-13 0)
(2 -3.70932e-14 0)
(2 5.43724e-14 0)
(2 -1.11942e-12 0)
(1.82996 0.228611 0)
(2 4.41161e-13 0)
(1.82921 0.229812 0)
(2 -4.7501e-14 0)
(2 -2.22337e-13 0)
(2 9.08145e-14 0)
(2.12159 -0.264146 0)
(2 2.06039e-14 0)
(1.82976 0.228693 0)
(2.11112 -0.267896 0)
(2 1.17131e-13 0)
(1.86443 0.199259 0)
(2 8.81537e-14 0)
(2 8.18362e-14 0)
(1.82935 0.229003 0)
(2 -4.11278e-14 0)
(2 -8.26849e-09 0)
(2 -6.71913e-14 0)
(1.82991 0.227364 0)
(2 4.42743e-10 0)
(2 8.40402e-14 0)
(1.83315 0.229218 0)
(1.83014 0.228636 0)
(2 -5.8574e-14 0)
(1.96226 0.0580858 0)
(2 3.61244e-14 0)
(2 -3.62065e-14 0)
(2.11358 -0.268173 0)
(2 -2.2062e-13 0)
(2 -3.98682e-14 0)
(2 -1.86496e-14 0)
(2.10274 -0.26894 0)
(2 5.96991e-14 0)
(2 1.0114e-13 0)
(2 2.18492e-14 0)
(2 6.55042e-14 0)
(2.10554 -0.263822 0)
(2 -6.37684e-14 0)
(2 1.35773e-14 0)
(2 -2.56791e-13 0)
(2 -4.69457e-14 0)
(2 8.08883e-14 0)
(2.13757 -0.257702 0)
(1.99998 3.58933e-05 0)
(1.8308 0.228666 0)
(2 4.91417e-14 0)
(2.00002 -7.4405e-06 0)
(1.83077 0.228738 0)
(1.83056 0.228857 0)
(2 -3.50996e-14 0)
(2 -6.3477e-14 0)
(2.10483 -0.276721 0)
(2.05098 -0.128301 0)
(1.8304 0.22885 0)
(2 -1.49466e-13 0)
(2 4.2176e-15 0)
(2 1.98603e-15 0)
(1.83175 0.22881 0)
(2.12723 -0.262089 0)
(2 -5.01388e-14 0)
(1.83075 0.22874 0)
(2 -5.53355e-14 0)
(2 -1.41247e-13 0)
(2.0987 -0.215746 0)
(2.1116 -0.208275 0)
(2 -9.57667e-14 0)
(2.10371 -0.260178 0)
(2.11098 -0.267991 0)
(2 7.34257e-14 0)
(2 -4.0019e-14 0)
(2 -6.79314e-14 0)
(2 -8.44716e-14 0)
(2 -8.79622e-11 0)
(2 -8.25442e-15 0)
(2 -1.54947e-14 0)
(1.83087 0.229158 0)
(1.95349 0.0670609 0)
(1.84199 0.216904 0)
(2.12475 -0.261866 0)
(2.02775 -0.0567493 0)
(1.83028 0.228789 0)
(2 -7.7905e-13 0)
(1.83094 0.228916 0)
(1.82853 0.228607 0)
(2.11704 -0.264218 0)
(2.0605 -0.156584 0)
(2 6.62177e-13 0)
(2.11686 -0.26295 0)
(2 2.16644e-14 0)
(1.82292 0.23587 0)
(2 1.5284e-14 0)
(2 -1.61485e-13 0)
(2 -4.77099e-15 0)
(2 3.59245e-14 0)
(1.83156 0.228777 0)
(2 -2.69428e-13 0)
(2 -2.56732e-14 0)
(2 -2.85089e-14 0)
(2 1.53837e-09 0)
(2 1.76938e-13 0)
(2 -1.63446e-13 0)
(2 2.63834e-14 0)
(1.9387 0.0892388 0)
(1.8302 0.228417 0)
(2 6.58283e-14 0)
(1.83125 0.229061 0)
(2 7.22654e-14 0)
(2 5.916e-14 0)
(2.10924 -0.259267 0)
(2 -1.03314e-13 0)
(2 1.36402e-13 0)
(2 -1.06313e-13 0)
(2 -2.12481e-13 0)
(1.83172 0.228832 0)
(1.87233 0.180031 0)
(2 -3.60981e-13 0)
(2 -3.38789e-13 0)
(2.10321 -0.263359 0)
(1.83156 0.229051 0)
(1.83185 0.228969 0)
(2 -4.96226e-14 0)
(1.83195 0.229051 0)
(1.83149 0.228747 0)
(1.8312 0.228946 0)
(2 3.05982e-15 0)
(2.05365 -0.111045 0)
(2 1.61747e-13 0)
(1.83183 0.229077 0)
(2.00394 -0.00957516 0)
(1.83124 0.228991 0)
(2 1.00153e-13 0)
(2.11637 -0.263871 0)
(2.00037 -0.000751694 0)
(1.83164 0.229632 0)
(2 -1.64927e-15 0)
(2 -9.76217e-14 0)
(2 -5.08916e-11 0)
(2 -1.95419e-11 0)
(2.11081 -0.261829 0)
(1.83192 0.228843 0)
(1.84817 0.209974 0)
(2 -1.6755e-13 0)
(1.83196 0.228454 0)
(1.83183 0.228968 0)
(1.83122 0.229275 0)
(2 -2.26633e-14 0)
(1.92326 0.120082 0)
(1.83126 0.229637 0)
(2 -2.81415e-13 0)
(2 -6.30855e-14 0)
(1.8823 0.169804 0)
(1.97902 0.0396453 0)
(1.83179 0.229016 0)
(2.02044 -0.0462148 0)
(1.83154 0.228922 0)
(2 -3.02423e-14 0)
(1.83148 0.228821 0)
(1.83136 0.229087 0)
(1.83137 0.22887 0)
(1.83175 0.229165 0)
(2 1.11335e-13 0)
(1.84318 0.214685 0)
(2.03242 -0.0550345 0)
(2.04374 -0.0758165 0)
(2 3.51962e-14 0)
(2 -3.78386e-07 0)
(2 7.46939e-14 0)
(2 -1.41846e-13 0)
(1.83042 0.230889 0)
(2 2.84231e-14 0)
(2 2.24794e-14 0)
(2 -4.1188e-14 0)
(2 3.51226e-14 0)
(2 6.20126e-14 0)
(1.83148 0.229721 0)
(2 1.08535e-13 0)
(2 7.55251e-14 0)
(2.00159 -0.00246169 0)
(1.83182 0.228829 0)
(1.85156 0.207535 0)
(2 9.57679e-14 0)
(1.8544 0.210247 0)
(1.99998 2.41051e-05 0)
(2 -7.22676e-14 0)
(2 9.88967e-14 0)
(1.83179 0.229357 0)
(2 -1.73079e-14 0)
(2.00147 -0.00237006 0)
(1.99887 0.00318546 0)
(2 4.2466e-14 0)
(1.83144 0.22925 0)
(2 -5.97995e-14 0)
(1.83158 0.229606 0)
(2 -1.33817e-13 0)
(2 4.9164e-15 0)
(1.87539 0.178836 0)
(2 1.96266e-14 0)
(1.83166 0.229661 0)
(1.99999 1.28239e-05 0)
(2 6.82107e-14 0)
(1.8318 0.229507 0)
(2 -3.18383e-14 0)
(1.83174 0.228779 0)
(2 -1.78869e-14 0)
(2 3.00119e-06 0)
(2 -2.86425e-14 0)
(1.83159 0.228717 0)
(2 3.99604e-14 0)
(1.83256 0.229878 0)
(2 4.80206e-06 0)
(1.83155 0.228824 0)
(1.82945 0.228474 0)
(1.83161 0.228911 0)
(1.82857 0.228268 0)
(2 -1.39215e-13 0)
(1.83097 0.228979 0)
(1.82588 0.230342 0)
(2 -7.55303e-14 0)
(2.11186 -0.259639 0)
(1.84188 0.216934 0)
(1.87879 0.172672 0)
(2 -2.43828e-13 0)
(1.83149 0.22868 0)
(2 -1.04305e-13 0)
(2.10899 -0.268417 0)
(2.12227 -0.266207 0)
(2 -2.33964e-14 0)
(2 -4.34095e-14 0)
(2 -2.59994e-14 0)
(2 1.12317e-13 0)
(2 1.22348e-09 0)
(2.10562 -0.272174 0)
(2 -1.52714e-15 0)
(1.83131 0.229094 0)
(1.95461 0.0715567 0)
(1.83182 0.229408 0)
(2 -8.49268e-14 0)
(2 8.68618e-11 0)
(2 -7.71489e-14 0)
(2 1.12319e-13 0)
(2 -5.46153e-08 0)
(1.83137 0.229023 0)
(2 -1.36651e-13 0)
(1.8308 0.231461 0)
(1.90077 0.143239 0)
(2.06359 -0.156923 0)
(2 1.32533e-09 0)
(1.99999 8.08216e-06 0)
(1.94908 0.0768254 0)
(1.96459 0.0599661 0)
(2 -1.59117e-13 0)
(2 -1.06549e-13 0)
(1.93826 0.0926003 0)
(2 -1.62009e-13 0)
(2.10577 -0.261655 0)
(1.8314 0.229196 0)
(1.83144 0.229271 0)
(2 -6.61268e-11 0)
(2 6.24517e-14 0)
(2 1.99279e-14 0)
(1.82952 0.228669 0)
(2 -8.64179e-14 0)
(1.99999 1.52913e-05 0)
(1.83067 0.228882 0)
(1.83194 0.228986 0)
(2.01555 -0.0374836 0)
(2 7.10107e-14 0)
(2 1.56618e-10 0)
(2.11665 -0.263539 0)
(1.84712 0.210469 0)
(2 -9.25203e-14 0)
(2 -8.75032e-14 0)
(2 6.6337e-14 0)
(2 -2.87618e-11 0)
(2 -8.62674e-14 0)
(1.83174 0.228787 0)
(1.83073 0.228921 0)
(2 -5.36332e-15 0)
(1.83177 0.229225 0)
(1.83242 0.229379 0)
(1.83163 0.228912 0)
(2 -9.33806e-14 0)
(2 -3.92931e-14 0)
(2 -6.62044e-11 0)
(2 -6.17166e-14 0)
(2.14832 -0.255512 0)
(1.828 0.228262 0)
(2 -4.52147e-11 0)
(2 2.31034e-14 0)
(1.8469 0.211047 0)
(1.83191 0.228246 0)
(2 1.06227e-14 0)
(1.84089 0.218258 0)
(1.83153 0.228764 0)
(2 3.32915e-14 0)
(2 -2.13441e-07 0)
(2 8.25965e-11 0)
(2 -1.14486e-13 0)
(2 -9.6923e-14 0)
(1.83139 0.229271 0)
(2 -2.02583e-13 0)
(2 -2.57999e-14 0)
(2 -2.23829e-13 0)
(2 -6.4961e-14 0)
(1.82962 0.232534 0)
(2 -1.43006e-13 0)
(1.84135 0.221536 0)
(2.12552 -0.263181 0)
(2 -1.58638e-13 0)
(2.11309 -0.265043 0)
(2 -3.57656e-14 0)
(2 -1.24691e-07 0)
(2 -1.25588e-13 0)
(2.00116 -0.00176185 0)
(2.10846 -0.264316 0)
(2.0003 -0.00058329 0)
(2 2.70072e-14 0)
(2 8.20862e-14 0)
(2 -1.20708e-07 0)
(1.9772 0.0339786 0)
(2 -8.07581e-14 0)
(2 -5.50257e-14 0)
(2.04256 -0.0937233 0)
(2 -2.14325e-07 0)
(2 -5.26978e-14 0)
(2 3.74734e-15 0)
(2 -2.10426e-07 0)
(2 3.06232e-07 0)
(2 -1.77842e-07 0)
(2 -8.97194e-15 0)
(2 -1.66863e-06 0)
(2.01941 -0.0478052 0)
(2 -5.19395e-07 0)
(2 -3.99597e-08 0)
(2.00103 -0.00134891 0)
(2 5.22758e-14 0)
(2.11254 -0.263929 0)
(2 -2.91567e-11 0)
(2 -4.47103e-12 0)
(2 -5.82324e-11 0)
(2 6.00066e-14 0)
(1.87526 0.177409 0)
(2 2.88724e-14 0)
(2 -7.9265e-14 0)
(2 -5.21809e-14 0)
(2 -1.75559e-07 0)
(2.09465 -0.263483 0)
(2 7.10521e-15 0)
(2 1.37273e-09 0)
(1.84043 0.21798 0)
(1.82794 0.228275 0)
(2 -3.01716e-07 0)
(2 -4.74983e-14 0)
(2 -1.15387e-07 0)
(2.04373 -0.0775543 0)
(2 2.17396e-14 0)
(2 4.34718e-10 0)
(2 -2.60132e-14 0)
(2 -2.16309e-13 0)
(2 1.11773e-13 0)
(2 5.54508e-14 0)
(2.01274 -0.0342244 0)
(1.99422 0.0027815 0)
(1.8321 0.22889 0)
(2 1.18399e-13 0)
(2 3.00079e-14 0)
(2 -1.63979e-14 0)
(1.83105 0.230218 0)
(2.03182 -0.0692562 0)
(2 -4.91654e-09 0)
(2 -1.16707e-16 0)
(2 -3.5038e-14 0)
(1.82887 0.228286 0)
(1.83019 0.22767 0)
(2 -3.11209e-08 0)
(2 5.27822e-06 0)
(2 3.31955e-09 0)
(2 -1.37043e-13 0)
(2 1.38647e-09 0)
(2 -7.06047e-14 0)
(2 -5.45688e-13 0)
(2 1.72342e-13 0)
(2 -6.3604e-15 0)
(2.11492 -0.264021 0)
(2 6.93177e-14 0)
(2 -1.46117e-11 0)
(1.82917 0.228344 0)
(2.11782 -0.264759 0)
(2 -1.98912e-14 0)
(1.82981 0.228332 0)
(2 6.90582e-11 0)
(2.10103 -0.263452 0)
(2 -3.11847e-14 0)
(2 -2.03363e-13 0)
(2.11449 -0.266292 0)
(2 -2.52488e-13 0)
(2 -1.21139e-11 0)
(2 -5.42727e-12 0)
(2 -1.36226e-13 0)
(2 -2.40906e-12 0)
(2 -2.6599e-14 0)
(2 -6.85644e-15 0)
(1.83487 0.225267 0)
(1.83186 0.228564 0)
(2 3.40601e-13 0)
(2 -1.23341e-13 0)
(2 -6.04652e-14 0)
(2 3.5176e-13 0)
(1.846 0.211726 0)
(2 1.09616e-13 0)
(1.94734 0.0846712 0)
(2.10556 -0.256946 0)
(2 -3.31828e-08 0)
(2 1.4532e-13 0)
(2 -1.02202e-13 0)
(2 2.18185e-13 0)
(2 -8.43024e-14 0)
(2 -1.68451e-13 0)
(2 -5.8093e-14 0)
(1.98233 0.0238845 0)
(2 -1.8892e-14 0)
(2 -8.78401e-14 0)
(1.90498 0.123451 0)
(2 1.14099e-15 0)
(2 8.00019e-14 0)
(2 3.91912e-14 0)
(1.85985 0.196635 0)
(2 -1.18676e-13 0)
(2 -8.31981e-14 0)
(2 -1.85642e-13 0)
(2 -1.89864e-13 0)
(2.11978 -0.262476 0)
(2 6.27793e-12 0)
(2 1.50129e-14 0)
(2.11246 -0.27896 0)
(2.11742 -0.261383 0)
(2 -2.87552e-13 0)
(2 1.86238e-14 0)
(1.83188 0.229023 0)
(2 -6.00863e-15 0)
(1.97203 -0.0367868 0)
(2 -5.58235e-14 0)
(2 1.31638e-13 0)
(2 1.48858e-13 0)
(1.88233 0.170875 0)
(2.11171 -0.271748 0)
(2 -9.7952e-14 0)
(2.11898 -0.276896 0)
(2 -1.63868e-14 0)
(2.07815 -0.157046 0)
(2 4.21809e-14 0)
(2 -3.07017e-15 0)
(2 8.87359e-14 0)
(1.83021 0.228824 0)
(2 -3.90592e-08 0)
(2 -1.35632e-13 0)
(1.83173 0.229118 0)
(2 -8.10613e-14 0)
(2 -3.04858e-11 0)
(2 1.70421e-09 0)
(1.83168 0.229113 0)
(2 2.17109e-10 0)
(2 -3.3155e-14 0)
(1.83159 0.22912 0)
(2 -1.24375e-13 0)
(2 1.35937e-13 0)
(2.11582 -0.264419 0)
(2 -1.77432e-11 0)
(1.94454 0.0870334 0)
(2 1.22193e-13 0)
(2 -1.01253e-14 0)
(1.83 0.228975 0)
(1.83004 0.228799 0)
(1.88541 0.163738 0)
(1.84947 0.208882 0)
(2 -1.07659e-13 0)
(2.11715 -0.26316 0)
(2 -6.37717e-14 0)
(2 4.49327e-14 0)
(1.83853 0.220907 0)
(2 4.57324e-14 0)
(2.12351 -0.260556 0)
(2 -1.65138e-14 0)
(2 1.22883e-13 0)
(2 -9.1297e-14 0)
(1.83159 0.228982 0)
(2 1.55054e-14 0)
(2 -9.56567e-15 0)
(2 9.00855e-14 0)
(2 2.72096e-14 0)
(1.89941 0.144535 0)
(2 -1.24715e-13 0)
(1.84204 0.211394 0)
(1.83188 0.227204 0)
(2.10146 -0.269336 0)
(2 4.96195e-14 0)
(2 2.57972e-14 0)
(2.14603 -0.259081 0)
(2.13489 -0.261335 0)
(2 -4.33023e-14 0)
(2 -7.83513e-14 0)
(2 -6.39997e-12 0)
(1.87811 0.173865 0)
(1.87313 0.180728 0)
(2 7.04051e-15 0)
(2 -1.48083e-14 0)
(2 -5.60944e-16 0)
(2 -1.23132e-13 0)
(2 -1.27009e-13 0)
(2 -1.6847e-13 0)
(2 -2.2135e-14 0)
(1.92909 0.104788 0)
(1.8277 0.228138 0)
(1.99137 0.00438528 0)
(2 7.59439e-14 0)
(1.83382 0.227097 0)
(2.13709 -0.258841 0)
(2 -2.2356e-14 0)
(2 -2.25665e-14 0)
(2 3.26354e-14 0)
(1.90687 0.134246 0)
(2 -1.36923e-13 0)
(1.96853 0.0556744 0)
(2 2.95786e-14 0)
(1.84628 0.211676 0)
(1.83237 0.228276 0)
(2 3.40214e-14 0)
(2.1162 -0.26576 0)
(2 -2.39497e-13 0)
(1.82779 0.228385 0)
(2 -1.44279e-14 0)
(2 -2.53567e-13 0)
(1.8313 0.229254 0)
(1.84214 0.217524 0)
(2 -2.51582e-13 0)
(1.82725 0.229336 0)
(2 1.10336e-13 0)
(2.10294 -0.264342 0)
(2 -5.80279e-14 0)
(2 7.78248e-14 0)
(2 -9.35031e-14 0)
(1.82945 0.233451 0)
(1.83518 0.225229 0)
(1.85236 0.205312 0)
(2 4.96824e-14 0)
(1.83087 0.228819 0)
(1.83124 0.228984 0)
(2 -4.24045e-16 0)
(1.83125 0.229084 0)
(2 -8.6254e-09 0)
(1.83241 0.228252 0)
(2 2.71405e-14 0)
(2.11591 -0.26216 0)
(2.00884 -0.015159 0)
(2.12573 -0.264189 0)
(2 -3.3192e-11 0)
(2 -2.4487e-11 0)
(2 -3.51958e-11 0)
(2 -1.21139e-13 0)
(2 -1.4267e-11 0)
(1.83204 0.228949 0)
(2 1.36098e-13 0)
(1.83181 0.22881 0)
(2 -3.44382e-11 0)
(2 -9.07508e-11 0)
(2 7.24443e-14 0)
(1.83951 0.219952 0)
(2 -1.20359e-14 0)
(2.12175 -0.266087 0)
(1.83158 0.229271 0)
(2 -1.44096e-15 0)
(2.08988 -0.258648 0)
(2.11629 -0.242973 0)
(2.12556 -0.255181 0)
(2 -7.00939e-14 0)
(1.91224 0.126764 0)
(1.9839 0.0251169 0)
(1.83084 0.229412 0)
(1.8313 0.229049 0)
(2 -2.37497e-13 0)
(2 -3.1748e-07 0)
(2 -4.49212e-08 0)
(2 1.08907e-15 0)
(1.83124 0.228826 0)
(2 9.9181e-15 0)
(2 -1.58793e-14 0)
(1.83132 0.228792 0)
(1.83123 0.228959 0)
(2 -1.72604e-14 0)
(1.93924 0.0901776 0)
(1.99979 0.000836074 0)
(2 -2.04483e-14 0)
(2.00117 -0.00206231 0)
(1.83148 0.22885 0)
(2.05421 -0.101664 0)
(2 -1.24718e-07 0)
(2.06236 -0.118902 0)
(2.10616 -0.26134 0)
(2.10597 -0.260209 0)
(1.99495 -0.0101541 0)
(1.82963 0.228079 0)
(1.83407 0.226356 0)
(1.96654 0.047827 0)
(1.83133 0.229125 0)
(1.83138 0.228708 0)
(2 -6.22419e-14 0)
(2 -1.10587e-13 0)
(1.83103 0.228892 0)
(1.8289 0.228861 0)
(1.83165 0.228813 0)
(1.82777 0.228702 0)
(2 1.55171e-14 0)
(1.83157 0.228919 0)
(2.12308 -0.26347 0)
(1.83103 0.228559 0)
(1.83151 0.228028 0)
(1.82947 0.229211 0)
(1.83 0.22931 0)
(2.04749 -0.0957478 0)
(2.03066 -0.0700917 0)
(2.02057 -0.0477166 0)
(1.83172 0.229292 0)
(2.01128 -0.0267724 0)
(1.83116 0.228569 0)
(2 2.46572e-14 0)
(2 -1.06171e-13 0)
(1.83085 0.22966 0)
(1.83125 0.228973 0)
(2 -6.51574e-14 0)
(2.11771 -0.264027 0)
(1.8301 0.228684 0)
(1.83142 0.228787 0)
(2 -2.14428e-13 0)
(1.83154 0.229186 0)
(1.83158 0.228871 0)
(2 -1.29328e-14 0)
(1.83141 0.228864 0)
(2.09383 -0.259396 0)
(1.8303 0.230238 0)
(1.82963 0.228624 0)
(1.82929 0.22881 0)
(1.83145 0.228507 0)
(2 3.65136e-14 0)
(2 -2.58658e-14 0)
(2 -1.05367e-07 0)
(1.83152 0.228932 0)
(1.89063 0.158891 0)
(2.11407 -0.238638 0)
(1.83171 0.228879 0)
(2.11966 -0.273158 0)
(1.83184 0.229005 0)
(2 -2.39885e-14 0)
(2 1.44409e-13 0)
(2 8.12803e-14 0)
(2 2.32512e-14 0)
(1.83162 0.2289 0)
(1.83154 0.22891 0)
(2 -2.38337e-14 0)
(2 -2.55644e-13 0)
(1.83164 0.228761 0)
(2.11514 -0.27311 0)
(1.83081 0.228867 0)
(2.11037 -0.266316 0)
(2 2.66285e-14 0)
(1.83303 0.227707 0)
(2 4.23357e-15 0)
(2.10404 -0.266133 0)
(1.83119 0.229477 0)
(2.07964 -0.198219 0)
(2 6.04243e-14 0)
(1.83141 0.229141 0)
(1.83041 0.23 0)
(1.83211 0.228663 0)
(2 -2.54285e-13 0)
(2 -5.03332e-14 0)
(1.92461 0.11016 0)
(1.83075 0.22951 0)
(2.10572 -0.26165 0)
(1.83155 0.228831 0)
(2 9.16698e-15 0)
(1.83212 0.229019 0)
(2.03899 -0.0843855 0)
(1.83229 0.228948 0)
(2.11041 -0.266009 0)
(2 -1.12442e-13 0)
(1.83187 0.22859 0)
(2.1238 -0.22691 0)
(1.83098 0.229725 0)
(2.1034 -0.263274 0)
(2 -3.60731e-14 0)
(1.83165 0.228973 0)
(2 2.7981e-14 0)
(1.83094 0.228215 0)
(2 -9.42029e-14 0)
(1.90128 0.144874 0)
(1.83762 0.221701 0)
(1.86831 0.186177 0)
(2.0905 -0.287224 0)
(2 4.16469e-15 0)
(1.83119 0.228729 0)
(2 4.32337e-14 0)
(1.83202 0.228802 0)
(2 -1.21094e-07 0)
(1.83188 0.229515 0)
(2 -2.44928e-07 0)
(2 -2.36559e-13 0)
(1.83148 0.229151 0)
(2.0092 -0.00902903 0)
(1.83075 0.230153 0)
(2.09986 -0.264474 0)
(1.86307 0.196575 0)
(2 2.97899e-14 0)
(1.88103 0.17189 0)
(2 9.82623e-14 0)
(1.8309 0.228535 0)
(1.8319 0.229226 0)
(1.83023 0.228426 0)
(2 1.24301e-13 0)
(1.84881 0.208726 0)
(1.83109 0.229048 0)
(1.84384 0.215611 0)
(1.89678 0.146502 0)
(1.83954 0.226553 0)
(2 8.80151e-14 0)
(1.88718 0.161969 0)
(2 -6.8257e-15 0)
(1.83139 0.228855 0)
(2 -1.02529e-13 0)
(1.97272 0.0421881 0)
(2 7.47186e-14 0)
(1.84467 0.21442 0)
(2 6.70432e-14 0)
(1.8321 0.228865 0)
(1.83925 0.220408 0)
(1.8395 0.220146 0)
(2 -6.11494e-14 0)
(1.82804 0.234448 0)
(2.12042 -0.269253 0)
(2 -1.56691e-13 0)
(2.12305 -0.263359 0)
(2 -3.76543e-13 0)
(2 -3.28011e-14 0)
(2 -5.61694e-14 0)
(1.83248 0.22948 0)
(2 -7.79149e-14 0)
(1.83136 0.229079 0)
(2 -2.81243e-14 0)
(2 -4.75916e-14 0)
(2 -1.81989e-13 0)
(1.83126 0.229032 0)
(1.84219 0.220076 0)
(1.86765 0.185766 0)
(1.83126 0.229726 0)
(1.83034 0.230467 0)
(2.11564 -0.26443 0)
(1.8296 0.229905 0)
(1.82725 0.228452 0)
(2 -8.04809e-14 0)
(1.85694 0.196384 0)
(1.83177 0.228804 0)
(1.836 0.234065 0)
(2 -6.43239e-14 0)
(1.82682 0.228383 0)
(1.83042 0.229106 0)
(2 -2.04535e-14 0)
(1.82713 0.230337 0)
(1.83099 0.229373 0)
(1.83093 0.229298 0)
(1.8312 0.229471 0)
(2 -1.59197e-13 0)
(2 7.27592e-14 0)
(2 1.39168e-14 0)
(1.83203 0.228777 0)
(2.11153 -0.270498 0)
(2 -5.94938e-15 0)
(1.83154 0.228823 0)
(2 -1.37753e-14 0)
(2 5.26486e-14 0)
(2.12065 -0.262711 0)
(2 -3.89681e-14 0)
(2 3.11653e-14 0)
(1.83153 0.228829 0)
(1.83171 0.229065 0)
(2 -3.51693e-14 0)
(1.83196 0.229293 0)
(1.8347 0.230575 0)
(1.83087 0.228819 0)
(2.00781 -0.0179318 0)
(1.83136 0.228929 0)
(2 -2.0831e-14 0)
(1.83135 0.228984 0)
(1.83156 0.228934 0)
(1.86148 0.191755 0)
(2 -6.83381e-14 0)
(2 -3.41818e-14 0)
(2 -5.99084e-14 0)
(1.83122 0.230403 0)
(1.83134 0.22905 0)
(1.83161 0.228904 0)
(2.0196 -0.0359797 0)
(2 -9.56954e-14 0)
(1.82915 0.232126 0)
(1.83144 0.229118 0)
(1.83112 0.228722 0)
(2 -1.10723e-13 0)
(1.83156 0.229102 0)
(1.83112 0.228851 0)
(1.83141 0.228861 0)
(1.8297 0.233133 0)
(2 -3.3489e-14 0)
(1.83183 0.228678 0)
(1.82992 0.231228 0)
(1.85486 0.201739 0)
(1.83208 0.229254 0)
(1.83059 0.232196 0)
(2 -1.5036e-14 0)
(1.83054 0.233408 0)
(1.83341 0.226592 0)
(1.83155 0.228895 0)
(1.83029 0.229601 0)
(1.83189 0.228582 0)
(2.11217 -0.260484 0)
(1.83115 0.229018 0)
(1.83123 0.229728 0)
(2 -7.63947e-14 0)
(1.83128 0.228906 0)
(1.83148 0.228902 0)
(1.83135 0.228792 0)
(1.83209 0.228957 0)
(2 -5.54805e-08 0)
(1.83156 0.228985 0)
(1.83126 0.22898 0)
(2 -1.76123e-07 0)
(1.83137 0.228995 0)
(1.85866 0.199017 0)
(2 -3.08608e-13 0)
(2 3.16445e-14 0)
(2 8.60946e-10 0)
(1.83095 0.230284 0)
(1.83112 0.229007 0)
(2 1.14072e-13 0)
(2 4.62911e-14 0)
(1.9075 0.13698 0)
(2 -1.10926e-13 0)
(1.83179 0.229097 0)
(2 -6.35257e-15 0)
(2 -1.03546e-13 0)
(1.83138 0.228735 0)
(1.83073 0.229555 0)
(1.83182 0.228816 0)
(1.8313 0.228765 0)
(2 -4.94727e-14 0)
(2 4.2826e-15 0)
(2 -3.70119e-14 0)
(1.88439 0.164819 0)
(2 -8.30485e-14 0)
(1.83176 0.22878 0)
(2 4.69816e-14 0)
(2 -1.21903e-13 0)
(1.8315 0.228794 0)
(1.8299 0.228453 0)
(2 3.55547e-14 0)
(1.83158 0.228742 0)
(2.14923 -0.265922 0)
(1.83146 0.228914 0)
(1.83088 0.229883 0)
(2.11289 -0.198788 0)
(2 -1.83733e-14 0)
(2.1153 -0.279308 0)
(1.84966 0.205093 0)
(1.83156 0.229801 0)
(1.83233 0.22852 0)
(1.83245 0.228584 0)
(2.11169 -0.267926 0)
(1.8312 0.229115 0)
(1.83099 0.229555 0)
(2.11151 -0.273969 0)
(2.11208 -0.279368 0)
(2 -2.64201e-07 0)
(1.83132 0.228938 0)
(1.83162 0.228916 0)
(2 -2.54934e-13 0)
(2 2.26561e-14 0)
(1.83167 0.228865 0)
(2 1.58649e-13 0)
(1.83318 0.228636 0)
(2 2.13772e-06 0)
(1.85241 0.205535 0)
(2 1.0354e-13 0)
(1.92351 0.117024 0)
(1.83163 0.228894 0)
(1.83064 0.22984 0)
(1.87911 0.169468 0)
(1.84464 0.219399 0)
(1.8293 0.228636 0)
(1.83042 0.228955 0)
(1.8337 0.231037 0)
(2 -1.11271e-13 0)
(2.1366 -0.258689 0)
(1.83007 0.229839 0)
(1.83152 0.229285 0)
(1.82818 0.230684 0)
(2 6.82878e-06 0)
(2 3.44458e-10 0)
(2 1.50283e-09 0)
(1.82848 0.229578 0)
(2 -1.47006e-14 0)
(1.83162 0.229224 0)
(1.83226 0.229144 0)
(2.08339 -0.163257 0)
(2 -2.19821e-13 0)
(1.83175 0.228907 0)
(2.00002 -4.85995e-05 0)
(2 -4.56146e-14 0)
(1.99999 1.95211e-05 0)
(1.99998 2.88463e-05 0)
(1.83148 0.229223 0)
(1.83067 0.228346 0)
(2.00054 -0.000922325 0)
(2 9.88074e-15 0)
(2 3.8685e-14 0)
(1.83199 0.228769 0)
(1.83063 0.229542 0)
(1.83163 0.228857 0)
(1.82903 0.229608 0)
(1.83203 0.228649 0)
(2.10338 -0.254181 0)
(1.84903 0.220293 0)
(2 1.52925e-13 0)
(1.83289 0.227752 0)
(1.83183 0.228827 0)
(1.83172 0.228944 0)
(1.83272 0.233328 0)
(2 8.52876e-14 0)
(1.83176 0.22923 0)
(1.83627 0.223587 0)
(1.83106 0.229771 0)
(2 -1.18684e-13 0)
(1.83117 0.229533 0)
(1.83094 0.229303 0)
(2.05577 -0.0932308 0)
(1.83155 0.228817 0)
(1.83118 0.229491 0)
(2 1.84226e-14 0)
(1.8312 0.229046 0)
(2.05147 -0.113767 0)
(1.8312 0.22893 0)
(2.05644 -0.0925366 0)
(1.83139 0.229024 0)
(2 -1.2809e-07 0)
(1.83131 0.228883 0)
(1.82394 0.231985 0)
(1.8317 0.228989 0)
(1.83188 0.229582 0)
(1.83125 0.228845 0)
(1.83019 0.228308 0)
(1.83148 0.229666 0)
(1.82965 0.229382 0)
(2 2.56899e-13 0)
(2.0363 -0.0473901 0)
(1.83118 0.2288 0)
(1.83198 0.229039 0)
(2.03861 -0.117785 0)
(1.83165 0.228717 0)
(1.99972 -0.00741803 0)
(1.89513 0.150786 0)
(1.83123 0.228859 0)
(1.83118 0.22888 0)
(1.83149 0.228582 0)
(2 6.91821e-14 0)
(1.83045 0.229849 0)
(1.89369 0.15062 0)
(1.83135 0.229575 0)
(2.0196 -0.0452765 0)
(1.83102 0.230093 0)
(1.82851 0.231494 0)
(2 2.36211e-13 0)
(2.02961 -0.0960285 0)
(2 -3.24767e-09 0)
(1.83606 0.226546 0)
(2 1.71929e-13 0)
(1.88384 0.167205 0)
(2 4.6718e-09 0)
(1.83356 0.219323 0)
(2.03209 -0.0922195 0)
(2 -5.66358e-14 0)
(1.8307 0.230015 0)
(1.82905 0.23136 0)
(2 -1.37056e-15 0)
(1.83271 0.227729 0)
(1.83087 0.229653 0)
(1.8319 0.230819 0)
(1.8285 0.235712 0)
(1.82757 0.232844 0)
(2 -4.08753e-14 0)
(1.82931 0.228884 0)
(2 -8.4727e-14 0)
(2 5.90341e-14 0)
(2 -3.91361e-14 0)
(2.02523 -0.0663328 0)
(1.83189 0.229024 0)
(1.83144 0.229304 0)
(1.83016 0.229182 0)
(1.83163 0.228728 0)
(1.83525 0.227605 0)
(1.82955 0.228272 0)
(1.83415 0.22693 0)
(1.8314 0.229152 0)
(2.03901 -0.0679906 0)
(1.98672 0.0235567 0)
(2 3.55528e-09 0)
(2 1.19259e-13 0)
(1.82464 0.233461 0)
(1.83149 0.228966 0)
(1.83173 0.228907 0)
(1.83152 0.22909 0)
(1.99999 1.65694e-05 0)
(1.91401 0.128569 0)
(2 -1.67177e-07 0)
(1.82689 0.230266 0)
(1.86062 0.206861 0)
(2 -2.86789e-12 0)
(2 -4.88095e-11 0)
(2.09377 -0.183521 0)
(1.83154 0.228967 0)
(2 -2.89541e-14 0)
(2 8.50534e-15 0)
(2.10492 -0.261765 0)
(1.8314 0.228993 0)
(2 1.93966e-14 0)
(1.82696 0.228276 0)
(1.8317 0.228898 0)
(1.82932 0.228924 0)
(1.83806 0.221867 0)
(1.83142 0.228818 0)
(2 -2.05279e-10 0)
(2.09776 -0.279954 0)
(1.95478 0.0672211 0)
(1.83149 0.229196 0)
(1.83131 0.228829 0)
(2 8.05872e-14 0)
(1.83195 0.229254 0)
(1.83148 0.228849 0)
(1.91849 0.126885 0)
(1.99909 0.00495967 0)
(1.96446 0.0569646 0)
(2 -6.46876e-14 0)
(1.83041 0.228799 0)
(1.83149 0.229308 0)
(2 -1.17024e-07 0)
(2 -2.15258e-10 0)
(2.08868 -0.268137 0)
(2 -2.35904e-10 0)
(2 8.33052e-14 0)
(1.83164 0.228839 0)
(1.83155 0.228841 0)
(1.83152 0.228947 0)
(1.83177 0.228838 0)
(1.8312 0.229045 0)
(1.82981 0.230672 0)
(1.83135 0.229151 0)
(1.8314 0.228491 0)
(1.83126 0.229061 0)
(2 4.4568e-14 0)
(2.00146 -0.00280276 0)
(1.83122 0.229299 0)
(1.83206 0.228813 0)
(2.00116 -0.00183885 0)
(1.83152 0.228828 0)
(1.83145 0.228895 0)
(2.08753 -0.27312 0)
(2.10455 -0.269141 0)
(1.83093 0.229721 0)
(1.83138 0.228818 0)
(2 -2.03764e-14 0)
(2 1.63779e-13 0)
(1.99959 0.00157 0)
(1.83168 0.228852 0)
(1.832 0.228529 0)
(1.83142 0.22904 0)
(2 1.08933e-09 0)
(1.83154 0.228784 0)
(2 -4.65745e-14 0)
(2.05278 -0.0954144 0)
(1.82766 0.230621 0)
(1.83758 0.230136 0)
(2 1.52086e-14 0)
(1.91989 0.111786 0)
(1.83215 0.229287 0)
(2 -1.90798e-14 0)
(1.82958 0.228021 0)
(2 -9.83977e-11 0)
(1.83187 0.228754 0)
(1.88577 0.158848 0)
(1.83129 0.229288 0)
(2 1.47335e-11 0)
(1.83132 0.229372 0)
(1.82952 0.230043 0)
(2.09206 -0.275918 0)
(1.83159 0.228897 0)
(2 -1.35399e-07 0)
(1.83063 0.229857 0)
(1.8273 0.228493 0)
(2 7.16923e-09 0)
(2.08953 -0.265297 0)
(1.83015 0.23045 0)
(1.85282 0.219981 0)
(2.00082 -0.00120066 0)
(1.8492 0.214928 0)
(1.83146 0.228916 0)
(2 -5.18226e-12 0)
(2.00454 0.00532708 0)
(1.83013 0.229384 0)
(2.00169 -0.00118036 0)
(1.83148 0.228885 0)
(2 -3.40926e-12 0)
(2 8.32666e-14 0)
(1.83126 0.229954 0)
(2 8.63434e-14 0)
(1.83088 0.229957 0)
(1.83144 0.228875 0)
(2.00147 -0.00224255 0)
(1.86139 0.196484 0)
(2 3.01983e-09 0)
(1.8314 0.228877 0)
(2 1.57409e-09 0)
(2 -6.45308e-13 0)
(2 1.09278e-11 0)
(2 6.57531e-12 0)
(1.83154 0.22912 0)
(2 7.08178e-09 0)
(2 -3.54595e-13 0)
(1.83353 0.234757 0)
(2 -5.04969e-14 0)
(1.83134 0.229059 0)
(2 2.97183e-10 0)
(1.89293 0.15414 0)
(1.83075 0.227204 0)
(1.8314 0.229523 0)
(2 9.12076e-10 0)
(2 -1.36769e-13 0)