/*--------------------------------*- C++ -*----------------------------------*\
  =========                 |
  \\      /  F ield         | OpenFOAM: The Open Source CFD Toolbox
   \\    /   O peration     | Website:  https://openfoam.org
    \\  /    A nd           | Version:  12
     \\/     M anipulation  |
\*---------------------------------------------------------------------------*/
FoamFile
{
    format      ascii;
    class       volVectorField;
    location    "6.6";
    object      U;
}
// * * * * * * * * * * * * * * * * * * * * * * * * * * * * * * * * * * * * * //

dimensions      [0 1 -1 0 0 0 0];

internalField   nonuniform List<vector> 
46253
(
(0.96082 -0.000195424 0)
(0.88317 0.00123665 0)
(0.796824 0.00175225 0)
(0.880911 0.00213982 0)
(0.804154 0.00322153 0)
(0.813256 0.00117755 0)
(0.984461 -0.00165689 0)
(0.835293 0.00474313 0)
(0.899528 -0.0010498 0)
(0.898627 -0.000853645 0)
(0.960089 -0.000681285 0)
(1.10052 -0.0674715 0)
(0.909308 0.000285145 0)
(0.909955 -2.51125e-05 0)
(1.03666 0.0260464 0)
(0.901673 -0.00155599 0)
(0.896748 -0.00120252 0)
(0.903501 0.000466655 0)
(0.90473 -6.11373e-05 0)
(0.898396 3.37395e-05 0)
(0.898363 0.00029333 0)
(0.806707 0.00343177 0)
(1.31527 0.00885161 0)
(0.969987 7.8987e-05 0)
(0.983718 -0.00319325 0)
(0.890187 0.0024721 0)
(0.897042 6.65481e-05 0)
(0.894944 0.000710836 0)
(0.88666 0.00185345 0)
(0.826466 0.0302476 0)
(0.954897 0.0424635 0)
(0.91559 0.000263935 0)
(0.917154 0.000208896 0)
(0.902931 -0.0004634 0)
(0.901959 -6.83788e-05 0)
(0.820977 -0.0117413 0)
(0.908986 -0.000527041 0)
(0.907663 -0.000100752 0)
(1.03548 0.0110084 0)
(1.10955 -0.0267528 0)
(0.981795 -0.00835204 0)
(1.14004 -0.0633237 0)
(0.91514 -0.000335839 0)
(0.914088 -0.000258006 0)
(1.17716 -0.0982546 0)
(0.906888 -0.000207786 0)
(0.906051 -0.000139511 0)
(1.267 -0.0125871 0)
(0.921194 -0.000334948 0)
(0.919959 -0.000185213 0)
(0.921152 0.000145311 0)
(0.922475 0.000411426 0)
(0.819782 0.00229339 0)
(1.0533 0.0291808 0)
(0.77793 0.0119128 0)
(1.07482 -0.0291254 0)
(0.929147 -0.000911975 0)
(0.928589 -0.000869365 0)
(0.880476 0.0652677 0)
(1.01788 -0.00899623 0)
(0.803894 0.00819601 0)
(0.985924 -0.0195108 0)
(0.834092 -0.021108 0)
(1.14932 0.00672106 0)
(1.03767 -0.0358403 0)
(0.912559 -0.000301652 0)
(0.912468 -0.000362969 0)
(0.813147 0.000981124 0)
(1.03856 -0.0408058 0)
(1.16947 -0.0953302 0)
(0.988384 -0.000320069 0)
(0.929003 0.000321035 0)
(0.929021 0.000429876 0)
(0.943876 0.000497527 0)
(0.8202 0.0022539 0)
(0.971424 0.000119845 0)
(0.940615 -0.000222368 0)
(0.942353 -0.000378281 0)
(1.39926 -0.0449434 0)
(0.919331 -0.000577485 0)
(0.919011 -0.000406414 0)
(0.933619 0.000136528 0)
(0.811204 0.00389029 0)
(0.935478 5.5809e-05 0)
(0.992342 -0.00557368 0)
(0.820948 0.00204856 0)
(0.958431 -0.000374042 0)
(0.959171 -0.000460319 0)
(1.09253 0.0138715 0)
(0.817462 -0.00351043 0)
(1.3036 -0.0518141 0)
(0.98477 -0.0114144 0)
(0.831179 0.00144812 0)
(0.925355 -0.000330254 0)
(1.15432 -0.0197026 0)
(0.926107 -0.000325086 0)
(0.829441 0.00182244 0)
(1.23624 -0.0243531 0)
(0.878273 0.0650977 0)
(0.817346 0.00454434 0)
(1.1649 -0.0502634 0)
(0.835723 0.00145078 0)
(0.828185 0.0012533 0)
(0.962261 0.0419813 0)
(0.783742 0.00666328 0)
(0.98709 -0.00633695 0)
(1.16562 -0.0601443 0)
(0.975729 -0.000106017 0)
(0.975766 -0.000108351 0)
(1.15038 -0.0544746 0)
(1.09739 -0.010894 0)
(0.930369 0.000406419 0)
(0.930472 0.000283457 0)
(1.22809 0.0277369 0)
(1.37006 -0.00141298 0)
(1.19775 0.0285765 0)
(1.11953 -0.0893251 0)
(1.00031 -0.0101746 0)
(0.778014 0.0644702 0)
(1.11264 -0.0357909 0)
(1.32645 0.0541513 0)
(0.815107 0.00168285 0)
(0.937848 -0.000547235 0)
(0.93764 -0.000591739 0)
(0.84608 0.00155845 0)
(0.774464 0.060532 0)
(0.803352 0.00775257 0)
(1.07364 -0.0424355 0)
(0.77367 0.00917713 0)
(0.947435 0.000109984 0)
(0.985342 -0.000570588 0)
(0.986578 -0.000475913 0)
(0.809789 0.00349107 0)
(0.978497 0.000869304 0)
(0.948941 9.08315e-05 0)
(1.04803 -0.0207149 0)
(0.947721 2.89035e-05 0)
(0.947497 0.000102045 0)
(1.08934 -0.0379678 0)
(0.98194 -0.0205936 0)
(0.939494 2.55105e-05 0)
(0.992549 -0.000664689 0)
(0.993255 -0.000529147 0)
(0.947718 0.0394131 0)
(0.939239 0.000267021 0)
(0.779932 0.0095136 0)
(0.956169 -0.000553199 0)
(0.956764 -0.000776344 0)
(1.04841 -0.00754007 0)
(0.812417 -0.00700346 0)
(1.1489 -0.0512457 0)
(0.832574 0.000948428 0)
(0.94881 0.000233027 0)
(0.948412 0.000627894 0)
(0.96912 0.0308679 0)
(1.15051 -0.0900355 0)
(1.11688 -0.0463772 0)
(0.843801 0.00315619 0)
(0.962077 6.56622e-05 0)
(0.779161 0.00963613 0)
(0.962468 7.60608e-05 0)
(1.15769 -0.0657545 0)
(1.10496 -0.043834 0)
(1.04271 0.0610204 0)
(0.985245 -0.00434493 0)
(0.94974 -0.000125043 0)
(0.979227 0.000928776 0)
(0.952186 -0.000445093 0)
(0.711036 0.0412449 0)
(0.81793 0.00913256 0)
(0.964543 -0.000109216 0)
(0.964694 -0.000353514 0)
(0.809277 0.00486469 0)
(0.996247 -0.0110595 0)
(0.786541 0.00552636 0)
(1.14426 -0.102169 0)
(0.859266 -0.00411032 0)
(0.807124 0.00326404 0)
(0.906221 0.00705413 0)
(1.1166 -0.0900557 0)
(0.790201 0.00313659 0)
(0.980827 0.0287231 0)
(0.973332 -0.000677756 0)
(0.974146 -0.000822221 0)
(0.832934 0.0060709 0)
(0.959739 -9.71216e-05 0)
(0.960595 0.000196058 0)
(1.17999 -0.0992427 0)
(0.83255 0.00260781 0)
(0.83338 0.00331028 0)
(0.825851 0.00230728 0)
(0.836034 0.000187984 0)
(0.973927 -0.0179206 0)
(0.842954 0.00199222 0)
(0.844774 0.00213559 0)
(0.846273 0.00363182 0)
(1.09043 0.0152546 0)
(0.836077 0.00303762 0)
(1.03631 -0.00106772 0)
(1.03705 -0.000972791 0)
(1.25732 -0.00208258 0)
(0.770303 0.00161267 0)
(0.963909 0.000382215 0)
(0.964029 0.000402817 0)
(0.787797 -0.00570219 0)
(1.12714 -0.0895692 0)
(0.99264 0.0296941 0)
(0.978232 -0.000264264 0)
(0.97895 -0.000338789 0)
(0.801682 -0.00145809 0)
(1.36313 -0.047732 0)
(0.777887 0.0702477 0)
(0.977707 -0.00876276 0)
(0.821313 0.00184356 0)
(0.856929 -0.0106931 0)
(0.827603 0.00213031 0)
(0.945385 0.0382908 0)
(0.981962 -0.00582099 0)
(0.983171 -0.000419292 0)
(0.814982 0.00134135 0)
(0.814008 0.00120802 0)
(0.983485 -0.000648554 0)
(1.14266 -0.101878 0)
(0.966963 -0.000620472 0)
(0.969236 -0.000551339 0)
(0.974371 -0.0103852 0)
(0.81585 0.00246828 0)
(0.812354 0.00242074 0)
(1.04943 -0.00119927 0)
(1.05043 -0.000910789 0)
(0.906341 0.056303 0)
(1.09071 0.07564 0)
(0.826184 0.00954001 0)
(0.791263 0.00380376 0)
(0.847996 0.00145434 0)
(1.23276 -0.0244416 0)
(0.831631 -0.00313177 0)
(1.30305 -0.0686067 0)
(0.913706 0.0555186 0)
(0.901903 0.058798 0)
(0.836996 0.00115268 0)
(0.829026 0.00156012 0)
(0.836993 0.000393586 0)
(0.830545 -0.00144503 0)
(1.03245 0.0363184 0)
(0.822034 0.00324832 0)
(0.804758 -0.028286 0)
(0.994942 0.0289439 0)
(0.843602 0.00182211 0)
(0.991759 -0.0005821 0)
(0.991812 -0.000883765 0)
(0.897906 0.0579595 0)
(1.06281 -0.0011612 0)
(0.833097 0.00290539 0)
(1.06385 -0.000751708 0)
(0.97584 -0.000166998 0)
(0.976645 -1.30887e-05 0)
(1.05185 -0.0303908 0)
(1.00161 -0.00489974 0)
(0.859598 0.00153184 0)
(0.988505 0.00205657 0)
(1.01383 -0.0108631 0)
(1.07391 -0.0651583 0)
(0.959293 0.0393883 0)
(1.03736 0.0146535 0)
(0.873685 0.0119356 0)
(1.27869 0.0354791 0)
(1.33479 0.00977372 0)
(0.980778 -0.000312067 0)
(0.999122 -0.000544803 0)
(0.981444 -0.0003301 0)
(0.824446 0.00300908 0)
(0.896296 -0.0141398 0)
(-0.311137 0.059305 0)
(0.999932 -0.000657234 0)
(0.834921 0.00166372 0)
(0.777144 0.0135849 0)
(0.799399 0.00284747 0)
(1.07418 0.0233479 0)
(1.06305 -0.022193 0)
(1.07603 -0.00131116 0)
(1.07561 -0.00108174 0)
(0.829054 0.00101143 0)
(0.828531 0.00142999 0)
(1.37172 -0.0412332 0)
(0.950111 -0.0130325 0)
(1.02933 -0.00674368 0)
(1.11184 -0.0364833 0)
(0.968853 0.0364496 0)
(0.778705 -0.00581586 0)
(0.880365 0.0632074 0)
(0.879578 0.0613139 0)
(1.00715 -0.00476519 0)
(1.1274 -0.00644149 0)
(0.887595 0.0617551 0)
(0.926256 0.0511704 0)
(0.809213 0.00273934 0)
(0.934192 0.0497998 0)
(0.970098 -0.0121008 0)
(1.00271 -0.000489758 0)
(0.782536 0.0717038 0)
(1.00337 -0.00071234 0)
(1.0525 -0.0508833 0)
(0.776941 0.0530114 0)
(0.859883 -0.000659571 0)
(0.989111 -0.000517265 0)
(0.990232 -0.000226884 0)
(0.806302 -0.00210747 0)
(0.967245 0.0420952 0)
(0.832681 0.0016849 0)
(0.83343 0.00260445 0)
(0.869878 0.00700364 0)
(1.06372 -0.0697145 0)
(1.0089 -0.000752052 0)
(0.836091 0.00310958 0)
(1.00964 -0.000814515 0)
(1.05269 -0.0359192 0)
(0.891415 0.0600119 0)
(0.799853 -0.00832198 0)
(1.06904 0.0129756 0)
(1.14025 -0.0452962 0)
(0.848425 0.00318633 0)
(0.97946 -0.00170859 0)
(0.982765 -0.00346089 0)
(1.14753 -0.00381457 0)
(0.979152 0.0355398 0)
(0.835093 0.00165827 0)
(0.857567 0.00083643 0)
(1.01353 -0.000604865 0)
(1.01369 -0.00079355 0)
(1.09956 -0.00121556 0)
(1.10293 0.00128154 0)
(0.857746 -0.001537 0)
(1.05691 0.00299825 0)
(0.846976 0.00157249 0)
(0.999313 -0.0250895 0)
(1.06662 -0.0299496 0)
(0.995458 -0.000550874 0)
(0.99705 -0.000227056 0)
(0.86148 -0.0106334 0)
(0.82656 0.00178773 0)
(0.832713 0.000847811 0)
(1.42883 0.028771 0)
(0.766918 0.0402668 0)
(0.822568 0.000261127 0)
(1.01844 -0.000837064 0)
(1.01961 -0.00109096 0)
(1.08573 -0.0847179 0)
(1.03089 -0.0359079 0)
(0.803511 0.00283382 0)
(1.16661 -0.000154007 0)
(0.805291 -0.00546017 0)
(1.11732 -0.0900298 0)
(1.0226 0.0673235 0)
(1.13159 -0.0731639 0)
(0.825979 0.0019623 0)
(1.00139 -0.000489865 0)
(0.815835 -0.0031333 0)
(1.00139 -0.00032692 0)
(0.820019 -0.00282566 0)
(1.09649 -0.0670994 0)
(0.875028 -0.0010872 0)
(0.818371 0.00313552 0)
(0.875699 -0.00109019 0)
(0.834529 0.002029 0)
(0.816458 0.00336137 0)
(0.816916 0.00333865 0)
(0.817219 0.00328092 0)
(1.02467 -0.000852618 0)
(0.823299 0.00318371 0)
(0.839282 0.00406942 0)
(0.838394 0.00392842 0)
(0.839121 0.00390899 0)
(1.02416 -0.00107075 0)
(0.818935 0.00331857 0)
(0.899048 0.0612848 0)
(1.09161 -0.0356829 0)
(0.829634 0.00187721 0)
(0.817255 0.00262224 0)
(0.77745 -0.00194531 0)
(0.980099 -0.00294819 0)
(1.01633 -0.0308295 0)
(1.12848 -0.0439897 0)
(1.00558 -0.000740274 0)
(0.901689 0.037618 0)
(1.00655 -0.000526821 0)
(0.818988 -0.000286354 0)
(1.42792 0.0729299 0)
(1.02817 -0.000771841 0)
(0.760876 0.0613592 0)
(0.83665 0.00407457 0)
(0.955566 0.0383113 0)
(1.02971 -0.00111762 0)
(1.02886 -0.0194291 0)
(0.804112 -0.000470053 0)
(0.929767 0.0238506 0)
(0.978181 0.0230833 0)
(0.990574 0.0250208 0)
(0.844278 0.000405749 0)
(1.02625 -0.0120332 0)
(1.19691 -0.00356884 0)
(0.954465 -0.000687805 0)
(0.954262 -0.000533613 0)
(0.899402 0.0601883 0)
(0.83902 0.00210824 0)
(0.839335 0.0317175 0)
(0.858812 -0.00122588 0)
(0.771206 0.00366938 0)
(1.44902 0.0409099 0)
(0.837201 0.000692931 0)
(0.868592 -0.000982128 0)
(0.836618 0.000735885 0)
(0.79739 0.0667405 0)
(0.833079 0.00486312 0)
(1.02366 -0.0117582 0)
(0.845848 0.0270531 0)
(0.972385 -0.0197591 0)
(0.844401 0.000255216 0)
(0.873139 0.00135195 0)
(1.05304 -0.0288613 0)
(0.845125 0.0272695 0)
(1.29259 -0.0605967 0)
(1.0347 -0.00106639 0)
(0.865549 -0.00130009 0)
(1.01167 -0.00051243 0)
(0.862542 0.00135893 0)
(0.802878 0.0071069 0)
(1.03519 -0.00146671 0)
(1.01246 -0.000214883 0)
(0.85596 -0.000867527 0)
(0.866615 -0.00324481 0)
(0.810284 0.00455442 0)
(1.22133 -0.0227159 0)
(0.849341 0.00552188 0)
(0.84977 0.00599556 0)
(1.03096 -0.0196613 0)
(1.13858 0.00879554 0)
(0.83511 0.0037657 0)
(0.841394 0.00104212 0)
(1.04731 0.0458481 0)
(1.13805 -0.0451184 0)
(0.834286 0.0272246 0)
(1.02278 -0.00292639 0)
(0.857039 -0.00197933 0)
(1.05151 -0.0217485 0)
(0.962904 0.0303393 0)
(0.830498 0.000270183 0)
(0.836404 0.000362386 0)
(1.09478 -0.0323468 0)
(0.855522 -0.00860755 0)
(1.06089 -0.0224169 0)
(1.02099 -0.0108652 0)
(1.03229 -0.187252 0)
(0.970023 -0.0186396 0)
(0.13823 0.195856 0)
(0.842901 0.0325295 0)
(1.06193 0.0290637 0)
(0.840997 0.0307249 0)
(1.01549 -0.000944596 0)
(1.04616 -0.0221931 0)
(0.814659 0.00152134 0)
(1.04686 -0.0198437 0)
(1.04995 -0.0197646 0)
(1.01614 -0.000644841 0)
(0.824073 0.00311014 0)
(1.03867 -0.0155215 0)
(0.813994 0.00272087 0)
(0.840609 0.0101416 0)
(0.846073 0.0277297 0)
(0.837601 0.00361678 0)
(0.84101 0.00943905 0)
(0.949715 0.0163173 0)
(1.07069 -0.058603 0)
(1.05711 0.025234 0)
(1.08823 -0.048197 0)
(1.04196 -0.000983598 0)
(1.07733 -0.0279288 0)
(0.995515 0.0272364 0)
(1.04272 -0.00117322 0)
(1.01005 0.0160118 0)
(0.957325 -0.000303088 0)
(0.957086 -0.000298454 0)
(0.809323 0.00519684 0)
(0.819571 0.00173841 0)
(0.818351 0.00343899 0)
(0.817962 0.00345972 0)
(0.769901 0.00821376 0)
(0.801443 0.00631612 0)
(1.05784 -0.0206626 0)
(0.977941 -0.00614202 0)
(1.1305 -0.0819957 0)
(1.05586 -0.0208239 0)
(1.01314 -0.0215227 0)
(0.993599 -0.00926358 0)
(1.06274 -0.0166061 0)
(0.242894 -0.0508084 0)
(0.825381 0.00203366 0)
(1.02209 -0.000782027 0)
(1.02757 -0.0126265 0)
(1.10429 -0.0610841 0)
(1.02324 -0.000536839 0)
(1.04718 -0.00131117 0)
(1.04764 -0.00153879 0)
(0.958018 2.91486e-05 0)
(1.00257 -0.00332192 0)
(0.818365 0.00367355 0)
(0.958659 0.000137691 0)
(0.962812 0.0412277 0)
(0.775035 -0.00533779 0)
(1.44223 -0.0443555 0)
(0.811565 0.00136189 0)
(1.01762 -0.00950237 0)
(0.835941 0.0253215 0)
(0.893069 0.00944001 0)
(0.984819 -0.017933 0)
(0.791704 0.00238569 0)
(0.833632 0.00204392 0)
(1.04013 -0.0189903 0)
(0.847757 0.00280407 0)
(1.04799 0.0438604 0)
(1.00132 -0.0266639 0)
(0.80152 -0.053317 0)
(1.02357 -0.0121218 0)
(0.85612 0.00193457 0)
(0.859319 0.00192278 0)
(1.02265 -0.0131203 0)
(0.815585 0.00305263 0)
(1.01964 -0.0127607 0)
(1.0218 -0.00969722 0)
(1.01937 -0.0131974 0)
(1.08242 0.0219255 0)
(0.840023 0.00700263 0)
(0.840738 0.0160953 0)
(0.844486 -0.0136014 0)
(1.04503 -0.0240785 0)
(1.02966 -0.0123406 0)
(0.833068 0.00224203 0)
(0.801001 0.0037533 0)
(1.02552 -0.00104437 0)
(0.885712 0.0289751 0)
(0.984622 0.00142803 0)
(1.07393 -0.0293228 0)
(0.879784 7.54798e-05 0)
(0.864274 -0.00241659 0)
(1.02606 -0.000734959 0)
(0.790138 0.00601356 0)
(0.803274 -0.015395 0)
(0.853115 0.0182656 0)
(0.850649 0.0178633 0)
(1.1833 -0.0861213 0)
(0.855555 0.0201616 0)
(0.85509 0.0199067 0)
(1.05423 -0.00116893 0)
(1.07717 -0.0264426 0)
(1.05503 -0.00145353 0)
(1.006 -0.00811546 0)
(0.860884 0.019969 0)
(0.860107 0.0205927 0)
(0.864941 0.0200945 0)
(0.864168 0.0204121 0)
(0.841972 0.00364221 0)
(0.84158 0.0288301 0)
(0.783695 -0.00465354 0)
(1.01573 -0.0245798 0)
(1.16682 -0.0719524 0)
(0.838229 0.0013523 0)
(0.848989 0.00451483 0)
(0.78378 -0.0165508 0)
(0.838026 0.0252717 0)
(0.837954 0.00573779 0)
(0.845372 0.00365799 0)
(0.985869 0.00192992 0)
(0.946413 0.0375822 0)
(1.02665 -0.0351711 0)
(0.980621 0.0348745 0)
(0.845316 0.008507 0)
(0.847759 0.00212261 0)
(1.05013 -0.0434109 0)
(0.869299 0.00962079 0)
(0.848063 0.00854047 0)
(0.845283 0.0107824 0)
(1.0321 -0.000956565 0)
(0.841184 0.0124961 0)
(0.839417 0.0103873 0)
(1.03293 -0.000768943 0)
(0.979176 0.0325701 0)
(0.929598 0.0215047 0)
(0.820613 0.00340898 0)
(0.932162 0.0228617 0)
(0.931233 0.0216039 0)
(0.934233 0.0226683 0)
(1.12327 -0.0120398 0)
(0.841096 0.0102947 0)
(1.05995 -0.00139902 0)
(1.06079 -0.00159491 0)
(0.948647 0.0394994 0)
(0.763779 -0.0015725 0)
(0.838634 0.0111023 0)
(0.830098 0.00112281 0)
(0.96062 0.0033673 0)
(0.808735 0.00133266 0)
(0.777844 0.0482912 0)
(0.872526 0.0202266 0)
(0.84268 0.0258528 0)
(0.777021 0.0580048 0)
(0.839119 0.0329021 0)
(0.836585 0.00273528 0)
(0.961882 0.0420217 0)
(0.962537 0.0432471 0)
(0.822349 0.00241259 0)
(0.817364 0.0036478 0)
(0.781222 0.0126891 0)
(1.05678 -0.0170984 0)
(0.818615 0.0027797 0)
(0.80817 0.0018138 0)
(0.997204 0.0231962 0)
(0.868863 0.0195745 0)
(0.866624 0.0195781 0)
(0.872332 0.0202874 0)
(0.872188 0.0203451 0)
(0.877702 0.0191317 0)
(0.875318 0.019763 0)
(0.881448 0.0206995 0)
(0.882109 0.0203014 0)
(1.18199 -0.101204 0)
(1.01831 -0.0228775 0)
(0.886826 0.0183805 0)
(1.03199 -0.026491 0)
(0.883867 0.0193798 0)
(0.890571 0.0206188 0)
(0.820555 0.00285193 0)
(0.983158 0.002068 0)
(0.966299 0.000135369 0)
(0.891408 0.0203235 0)
(0.816763 0.00369011 0)
(0.897993 0.0175133 0)
(0.848965 0.00348662 0)
(0.895143 0.0183217 0)
(1.08568 0.0632303 0)
(1.03121 -0.021547 0)
(0.899557 0.0194551 0)
(0.851185 0.000401553 0)
(0.90056 0.0194939 0)
(0.824996 0.0689448 0)
(0.824388 0.00638664 0)
(0.909114 0.0163063 0)
(0.849913 0.00525007 0)
(0.906515 0.01675 0)
(0.84849 0.00502601 0)
(1.15186 -0.0897927 0)
(0.851505 0.00238067 0)
(1.07135 -0.0253882 0)
(0.966677 0.000287487 0)
(0.841505 0.00155021 0)
(0.840137 0.00187557 0)
(0.909413 0.0179288 0)
(0.9101 0.0182059 0)
(0.827922 0.00249399 0)
(1.02273 -0.0153278 0)
(0.920578 0.0150901 0)
(0.918504 0.0153915 0)
(1.0101 0.0212236 0)
(0.849136 0.00213913 0)
(0.857642 0.000546615 0)
(0.925803 0.0132753 0)
(1.06636 -0.00139737 0)
(0.922525 0.0146429 0)
(0.819757 0.00488994 0)
(1.039 -0.00117474 0)
(0.931021 0.0146653 0)
(1.07524 -0.0481794 0)
(0.932721 0.014127 0)
(1.06697 -0.00193346 0)
(1.03997 -0.000834042 0)
(0.8184 0.0045831 0)
(0.84366 0.00934547 0)
(0.84201 0.00951744 0)
(0.938924 0.0109063 0)
(0.934338 0.012129 0)
(1.06821 0.00450097 0)
(0.822644 0.00433938 0)
(0.830399 0.00366496 0)
(0.938797 0.0119866 0)
(1.0519 -0.0194626 0)
(0.943498 0.0117156 0)
(1.13072 -0.0435354 0)
(0.817384 0.00312282 0)
(0.962177 0.010196 0)
(0.960288 0.00981702 0)
(0.839823 0.00949357 0)
(0.840193 0.00869947 0)
(0.837729 0.00982112 0)
(0.972718 -0.0185671 0)
(0.835912 0.00906343 0)
(1.02896 -0.0130758 0)
(1.02146 -0.00694232 0)
(0.943146 0.0433161 0)
(0.832907 0.0020906 0)
(0.965501 0.00438944 0)
(0.849175 0.00282341 0)
(0.953922 0.00539875 0)
(0.845559 0.00344939 0)
(0.829634 0.00184167 0)
(1.02829 -0.011738 0)
(1.0279 -0.0116423 0)
(0.958194 0.00665181 0)
(0.969336 0.00656349 0)
(1.06722 -0.0186111 0)
(1.02423 -0.0103967 0)
(0.97655 0.00074062 0)
(1.02155 -0.0100307 0)
(0.963479 0.00184482 0)
(0.810953 0.00124408 0)
(0.979554 0.0238276 0)
(0.962845 -0.00193919 0)
(0.963773 -0.000285222 0)
(0.836525 0.00576023 0)
(1.09348 -0.0369835 0)
(1.00066 0.00121115 0)
(0.997477 0.000115854 0)
(0.703831 0.0274516 0)
(0.864721 0.00230251 0)
(0.863993 0.00294616 0)
(0.833453 0.00131087 0)
(0.97273 -0.00567702 0)
(1.01827 -0.0241093 0)
(0.974684 -0.00373679 0)
(0.872957 -0.00900082 0)
(1.07009 -0.0166423 0)
(1.04054 -0.0248001 0)
(1.13887 -0.051627 0)
(1.01321 -0.00219223 0)
(1.00889 -0.00347277 0)
(1.02599 -0.0057266 0)
(0.981405 -0.00991198 0)
(0.984246 -0.00761436 0)
(1.04711 -0.0390336 0)
(1.03585 -0.0334255 0)
(0.860291 0.0213777 0)
(1.06334 0.014601 0)
(0.771852 0.0472725 0)
(1.07331 -0.00137941 0)
(0.794394 -0.00494232 0)
(1.07069 -0.0559575 0)
(1.07426 -0.0016547 0)
(1.04867 -0.0516244 0)
(0.860158 -0.0157866 0)
(0.982839 0.000711005 0)
(0.864903 0.0199753 0)
(0.859311 0.0211712 0)
(0.865215 0.0203003 0)
(1.04467 -0.00113163 0)
(0.84789 0.00327718 0)
(0.855933 0.0196812 0)
(0.846733 0.00349282 0)
(0.784644 0.0074251 0)
(0.854924 0.0198781 0)
(1.04524 -0.000960661 0)
(0.828379 -0.0258987 0)
(0.860147 0.0215349 0)
(0.860308 0.0210153 0)
(1.05942 -0.0280389 0)
(1.07059 -0.0465261 0)
(0.816139 0.00322108 0)
(0.983983 0.0231494 0)
(1.17594 -0.10624 0)
(0.962079 -0.000321286 0)
(0.837409 -0.0134637 0)
(0.8176 -0.00431364 0)
(0.814189 0.00132164 0)
(0.839446 0.0279653 0)
(1.08563 0.0820547 0)
(1.02824 -0.0292767 0)
(0.846369 0.0031913 0)
(1.05457 -0.0186582 0)
(0.83762 0.0259518 0)
(0.941192 0.0180102 0)
(1.0108 -0.030358 0)
(0.939352 0.0182003 0)
(1.05854 -0.0499603 0)
(0.835824 0.00122795 0)
(1.02322 -0.0202651 0)
(0.976118 -0.00975021 0)
(0.93023 0.0208586 0)
(0.843233 0.0280942 0)
(0.970078 0.00880345 0)
(0.824778 0.00278256 0)
(1.36418 0.0589441 0)
(0.875508 0.00162991 0)
(0.937944 0.0184488 0)
(0.935211 0.0177721 0)
(1.02453 -0.0262253 0)
(0.978712 0.00030341 0)
(0.98019 0.00046583 0)
(0.837977 0.00325241 0)
(1.06738 -0.022912 0)
(0.850929 0.000616007 0)
(0.821718 0.00270887 0)
(0.933372 0.0182405 0)
(1.00285 -0.00624689 0)
(0.839833 0.0306845 0)
(0.915657 0.000926968 0)
(0.839301 0.0318932 0)
(0.84264 0.0291925 0)
(0.980931 0.0248885 0)
(0.997097 0.0272867 0)
(0.816435 0.00306326 0)
(0.934407 0.0185445 0)
(1.04388 -0.0469117 0)
(1.04011 -0.0220645 0)
(0.815539 0.00514812 0)
(1.06216 -0.018065 0)
(1.0792 -0.00163897 0)
(0.825287 0.00372466 0)
(0.843527 0.0287211 0)
(1.04088 -0.0183765 0)
(1.04259 -0.0162467 0)
(0.843693 0.0280103 0)
(1.08033 -0.00210183 0)
(0.823314 -0.0285573 0)
(0.833327 0.027469 0)
(1.01626 0.0136831 0)
(0.921183 0.0165242 0)
(0.921733 0.0156607 0)
(1.0176 -0.0215801 0)
(0.86269 -0.00349294 0)
(0.830148 -0.0271918 0)
(0.831744 -0.0251279 0)
(0.97034 -0.0100677 0)
(1.02702 -0.0116163 0)
(0.834522 0.00131911 0)
(1.02261 -0.0126497 0)
(0.908243 0.044188 0)
(1.04937 -0.0443199 0)
(0.83059 0.0696575 0)
(0.86457 0.000289633 0)
(0.867136 0.000347939 0)
(0.863514 -0.00362467 0)
(0.936958 0.00915969 0)
(0.936838 0.0101774 0)
(0.865153 0.0194164 0)
(0.838908 0.0334502 0)
(0.815812 -0.000211861 0)
(1.05213 -0.00104647 0)
(0.94743 0.00958033 0)
(1.01075 -0.0832317 0)
(0.83891 0.0340268 0)
(0.956892 0.00921679 0)
(1.05277 -0.000797124 0)
(1.03749 -0.0237491 0)
(1.03943 -0.0268328 0)
(0.776215 0.00613243 0)
(1.05946 -0.0203996 0)
(1.02615 -0.0114522 0)
(1.06557 -0.0567134 0)
(1.02888 -0.0244319 0)
(1.07758 -0.0494978 0)
(0.988609 0.00448527 0)
(0.831981 0.00509506 0)
(0.835977 0.00467502 0)
(0.986176 0.00381583 0)
(0.87454 0.0105867 0)
(0.840993 0.00658654 0)
(1.0344 -0.0189788 0)
(1.02669 -0.021133 0)
(0.833785 0.00404951 0)
(1.08562 -0.00169757 0)
(1.1044 -0.0414877 0)
(1.02399 -0.0141425 0)
(1.11225 -0.0362344 0)
(1.06612 -0.0324949 0)
(1.08545 -0.00212466 0)
(1.12171 -0.0460755 0)
(1.12086 -0.043384 0)
(1.0628 -0.0552727 0)
(1.0656 -0.0540458 0)
(0.899019 0.000267823 0)
(0.822299 0.0197359 0)
(0.928128 -0.0130176 0)
(0.822682 0.01922 0)
(0.896683 -0.00319284 0)
(1.03921 -0.014134 0)
(1.08333 -0.0330669 0)
(1.06197 -0.0488837 0)
(0.820824 0.00610703 0)
(0.835541 0.00130147 0)
(1.02061 -0.0118208 0)
(0.837313 0.00174286 0)
(1.02309 -0.0121353 0)
(1.02453 -0.0112013 0)
(0.840917 0.0318382 0)
(0.843141 0.0326088 0)
(1.1046 -0.00718778 0)
(0.840328 0.0309603 0)
(0.79612 0.0283995 0)
(0.841921 0.029933 0)
(0.817375 0.00278845 0)
(1.02343 -0.0213177 0)
(1.02418 -0.0104634 0)
(0.784137 0.00285275 0)
(0.834062 -0.0245998 0)
(0.828003 0.00195383 0)
(1.05695 -0.00154979 0)
(0.860888 0.00231062 0)
(1.02932 -0.00972941 0)
(1.01407 -0.00889701 0)
(1.05766 -0.00123522 0)
(0.836635 0.0272149 0)
(1.0167 -0.0202169 0)
(1.02634 -0.0132449 0)
(1.02939 -0.0217233 0)
(0.812858 0.000101091 0)
(0.807248 0.00128964 0)
(0.805949 0.000310599 0)
(0.826061 -0.000421216 0)
(1.03361 -0.0140093 0)
(1.01992 -0.0128029 0)
(0.839975 0.00216155 0)
(1.01055 0.0194956 0)
(0.845651 0.0282437 0)
(1.12034 -0.0421316 0)
(0.847176 0.00153279 0)
(1.12297 -0.0438331 0)
(0.962078 -0.000338584 0)
(0.979279 0.000545191 0)
(0.819168 0.0062515 0)
(1.0891 -0.00168499 0)
(1.09026 -0.00225952 0)
(0.995381 -0.00955194 0)
(0.810656 0.0693685 0)
(0.864529 0.0195201 0)
(1.05924 -0.0448458 0)
(0.851859 0.0245088 0)
(0.854937 -0.00619569 0)
(1.0871 -0.0524521 0)
(0.863143 0.0197345 0)
(0.861532 0.0201203 0)
(1.04233 -0.0230205 0)
(0.872736 -0.014262 0)
(0.822794 0.00620213 0)
(0.821072 0.00640124 0)
(1.02623 -0.0109485 0)
(1.13363 -0.0858006 0)
(0.994356 -0.0198117 0)
(1.03568 -0.0228246 0)
(0.790686 0.00103553 0)
(0.858511 0.0203277 0)
(0.854775 7.38563e-05 0)
(0.856366 0.0199086 0)
(0.875547 -0.00081906 0)
(0.85569 0.0197002 0)
(0.760047 0.0529517 0)
(0.853844 0.019051 0)
(0.961755 -9.74076e-05 0)
(1.03493 -0.0381577 0)
(1.06283 -0.0481585 0)
(0.870452 0.0200229 0)
(0.874818 -0.0124957 0)
(0.860608 -0.0221 0)
(0.846471 -0.0237395 0)
(1.06475 -0.0281146 0)
(0.782866 0.0122652 0)
(0.961996 -0.000359278 0)
(0.820004 -0.0323763 0)
(0.902165 0.0172508 0)
(0.901341 0.0189685 0)
(0.891537 0.0189214 0)
(0.9113 0.0180908 0)
(0.900819 0.0184855 0)
(0.863037 -0.0108867 0)
(0.918716 0.00899222 0)
(0.900011 0.0184211 0)
(0.891289 0.0195494 0)
(0.910721 0.0172689 0)
(1.03688 -0.0219933 0)
(0.890926 0.0197396 0)
(0.927181 0.0153227 0)
(0.913916 0.0155613 0)
(0.889373 0.0192644 0)
(0.852497 -0.0025745 0)
(0.881292 0.0197129 0)
(0.91151 0.0170502 0)
(0.880886 0.0202162 0)
(0.8446 0.0104231 0)
(0.919605 0.0153497 0)
(0.872425 0.0616434 0)
(0.881675 0.0197412 0)
(0.879971 0.019712 0)
(0.920004 0.0159607 0)
(0.873168 0.0198221 0)
(0.877878 0.0244297 0)
(0.93215 0.0136698 0)
(0.872379 0.0201282 0)
(0.837929 0.00148079 0)
(0.87163 0.0199774 0)
(0.930063 0.0136744 0)
(0.818205 0.00116017 0)
(0.929939 0.0126039 0)
(0.870477 0.0199773 0)
(1.09131 -0.00612052 0)
(0.837668 0.003752 0)
(1.09543 -0.00186451 0)
(0.93004 0.0135287 0)
(0.84077 0.010327 0)
(0.843495 0.00148008 0)
(0.843555 0.00989551 0)
(0.94529 0.0118262 0)
(0.933726 0.0220073 0)
(0.842748 0.00716814 0)
(0.841007 0.00969279 0)
(0.847617 0.00517769 0)
(0.943553 0.0118068 0)
(1.0957 -0.00266724 0)
(0.893434 -0.0205433 0)
(0.953758 0.00777515 0)
(0.815919 0.00326374 0)
(1.0383 0.000258265 0)
(0.944799 0.00892525 0)
(0.944009 0.00536696 0)
(0.94385 0.00671246 0)
(1.0367 -0.0284103 0)
(0.975332 0.00779437 0)
(0.973492 0.00717042 0)
(0.953414 0.00165358 0)
(0.813856 0.00296495 0)
(0.968979 -6.25485e-05 0)
(0.953362 0.00314622 0)
(0.829355 0.00152124 0)
(0.969977 0.00344368 0)
(0.984599 0.00190191 0)
(0.829146 0.00156693 0)
(0.856668 0.00380104 0)
(0.982797 0.00328152 0)
(1.06748 -0.0258187 0)
(0.885857 -0.0106352 0)
(0.986275 -0.00298099 0)
(0.971992 -0.00158105 0)
(0.982933 0.000161632 0)
(1.06501 -0.00126724 0)
(0.99639 -0.000213537 0)
(0.887186 -0.010371 0)
(0.99598 -0.00709625 0)
(0.814008 0.000403529 0)
(0.994052 -0.011731 0)
(1.06486 -0.0010803 0)
(0.980811 -0.00547046 0)
(1.00726 0.022161 0)
(0.994597 0.0173099 0)
(1.06764 -0.0169199 0)
(0.994251 -0.00299023 0)
(1.01993 -0.0168458 0)
(1.00208 -0.0146446 0)
(0.994809 0.00102839 0)
(1.00919 -0.00344738 0)
(1.00731 -0.011959 0)
(0.990256 -0.00983792 0)
(0.96195 2.52013e-05 0)
(0.863884 -0.0153167 0)
(0.841933 -0.0565289 0)
(0.816586 0.0026263 0)
(0.869175 -0.0089741 0)
(0.831555 0.00371297 0)
(0.839367 -0.0178918 0)
(0.895732 -0.00970717 0)
(0.938859 -0.0186983 0)
(1.01901 0.000385269 0)
(0.774563 0.0559262 0)
(1.05082 -0.00450707 0)
(1.09187 0.0415283 0)
(1.09336 -0.0184395 0)
(1.09771 -0.0173349 0)
(0.955524 0.0364943 0)
(0.946842 0.0392931 0)
(0.817892 0.00272629 0)
(0.718016 0.000138173 0)
(0.93043 0.0146489 0)
(0.932571 0.0142977 0)
(1.09295 -0.00875004 0)
(0.996856 0.016455 0)
(0.934906 0.0137132 0)
(0.931408 0.0141785 0)
(0.931963 0.0145578 0)
(0.93053 0.0223511 0)
(0.942695 0.023339 0)
(1.04915 -0.0333429 0)
(1.0266 -0.0119959 0)
(1.02198 -0.0196451 0)
(0.82012 0.00307922 0)
(1.02714 -0.00878324 0)
(1.10436 -0.0414656 0)
(1.05109 -0.0528641 0)
(1.00446 0.0175664 0)
(0.790986 0.0119838 0)
(0.911075 0.02019 0)
(0.934753 0.0242092 0)
(1.07793 -0.0776146 0)
(1.30419 0.0208199 0)
(0.944995 -0.00235587 0)
(1.00634 -0.00732571 0)
(1.03187 0.00510877 0)
(0.942075 -0.00120055 0)
(1.18526 -0.01876 0)
(0.871061 0.0244382 0)
(0.83575 0.00149762 0)
(1.04852 -0.0148011 0)
(0.994254 0.0173833 0)
(0.735464 0.00699956 0)
(0.941082 0.0138704 0)
(1.00791 0.0211096 0)
(0.984226 0.0225437 0)
(1.11391 -0.0752461 0)
(1.06909 -0.00198861 0)
(1.02869 0.00676537 0)
(1.07071 -0.00143374 0)
(0.991626 -0.0131735 0)
(0.97715 -0.0116402 0)
(1.13958 -0.0670054 0)
(1.10802 -0.0419526 0)
(0.860458 -0.0169735 0)
(1.02634 0.0011387 0)
(0.93303 0.0138535 0)
(1.02068 -0.0079253 0)
(0.829872 0.00197446 0)
(0.933413 0.0145466 0)
(0.889156 0.0221884 0)
(1.04613 -0.0136909 0)
(1.0039 0.00987826 0)
(0.813642 0.00165474 0)
(0.828647 0.00272072 0)
(0.874049 0.0040152 0)
(1.01992 -0.0154059 0)
(0.839304 0.0338932 0)
(0.80217 0.00020133 0)
(0.888263 0.00239016 0)
(0.885926 -0.0188923 0)
(1.0129 0.0128161 0)
(1.0757 -0.0569258 0)
(0.807715 0.00470811 0)
(0.990536 -0.00407029 0)
(0.880287 0.00186762 0)
(1.02405 -0.0142667 0)
(1.04754 -0.00884436 0)
(0.789761 0.00016398 0)
(0.804976 0.0074094 0)
(0.821184 -0.0638086 0)
(1.05499 -0.0531361 0)
(0.878644 0.0238807 0)
(1.07022 -0.0526872 0)
(1.02333 -0.00979134 0)
(1.02309 -0.00974579 0)
(0.786752 0.00707172 0)
(0.931251 0.0148816 0)
(1.02715 -0.0115626 0)
(0.835712 0.0246833 0)
(1.11356 -0.0272176 0)
(0.881853 0.00343763 0)
(0.986773 0.0174076 0)
(0.955492 -0.000662869 0)
(1.09393 -0.0186363 0)
(1.06093 -0.036466 0)
(0.86677 0.00115463 0)
(0.870595 0.00126663 0)
(1.02566 -0.00883364 0)
(1.09719 -0.0181963 0)
(1.0352 -0.00954494 0)
(1.05384 -0.0163262 0)
(1.02901 -0.011609 0)
(1.02932 -0.0109774 0)
(0.866013 0.00285025 0)
(0.955258 -0.00125435 0)
(1.03148 -0.0114729 0)
(1.06038 -0.0193336 0)
(1.06894 -0.0184742 0)
(1.05713 -0.0554068 0)
(0.985009 0.0179719 0)
(0.838022 0.0248238 0)
(1.04162 -0.00757778 0)
(1.02766 -0.0793797 0)
(1.00693 -0.0181711 0)
(1.1082 -0.0647444 0)
(1.00872 -0.0155285 0)
(0.934398 0.0232119 0)
(-0.145774 0.0056418 0)
(0.853092 0.00380705 0)
(0.85666 0.00190315 0)
(1.08594 -0.0373429 0)
(1.03851 -0.0147899 0)
(0.822369 -0.000343406 0)
(1.01558 -0.0243483 0)
(1.03588 -0.0173335 0)
(1.12575 -0.00271917 0)
(0.855615 0.0150555 0)
(1.0878 -0.0441461 0)
(1.01957 -0.0202703 0)
(0.892784 -0.00811161 0)
(0.994815 0.000681312 0)
(0.914052 0.0206554 0)
(0.870437 0.00287733 0)
(0.86015 0.00370052 0)
(1.03015 -0.00465227 0)
(0.899418 0.021655 0)
(0.860599 0.00334175 0)
(0.858243 0.00104189 0)
(0.845225 0.0278414 0)
(1.02683 -0.0201859 0)
(0.856522 0.00198955 0)
(1.02654 -0.0171908 0)
(1.17351 -0.0900258 0)
(1.03423 0.0388909 0)
(1.09859 -0.0219472 0)
(0.819631 0.00316571 0)
(0.848239 0.0272262 0)
(1.09878 -0.0220721 0)
(0.870865 0.012882 0)
(0.860414 0.031227 0)
(1.02255 -0.0231113 0)
(0.868075 0.0322103 0)
(0.857777 0.0308799 0)
(0.868934 0.00391372 0)
(0.921446 0.00818324 0)
(0.866727 0.0326797 0)
(1.05272 -0.0164758 0)
(1.09639 -0.0227856 0)
(0.908285 0.0195191 0)
(0.837272 0.0110855 0)
(1.0017 7.61841e-05 0)
(0.875133 0.0318991 0)
(0.890526 0.0227086 0)
(1.03448 -0.00299401 0)
(1.42323 0.0420683 0)
(0.920312 0.0188828 0)
(0.870455 0.0320232 0)
(0.880925 0.0324848 0)
(0.836744 0.0311827 0)
(1.03204 -0.0138195 0)
(0.840205 -0.0485309 0)
(0.836012 0.0303925 0)
(0.829415 0.027577 0)
(1.044 -0.0424589 0)
(0.881363 0.0329762 0)
(0.829115 0.0286792 0)
(0.901008 0.0205916 0)
(0.83605 -0.000518927 0)
(1.09512 -0.0156663 0)
(0.819913 0.0151138 0)