/*--------------------------------*- C++ -*----------------------------------*\
  =========                 |
  \\      /  F ield         | OpenFOAM: The Open Source CFD Toolbox
   \\    /   O peration     | Website:  https://openfoam.org
    \\  /    A nd           | Version:  12
     \\/     M anipulation  |
\*---------------------------------------------------------------------------*/
FoamFile
{
    format      ascii;
    class       surfaceScalarField;
    location    "11.5";
    object      phi;
}
// * * * * * * * * * * * * * * * * * * * * * * * * * * * * * * * * * * * * * //

dimensions      [1 0 -1 0 0 0 0];

internalField   nonuniform List<scalar> 
19404
(
-0.00012091
-3.10316e-08
-0.000123167
9.59175e-08
-0.000124188
3.30752e-07
-0.000124385
3.92856e-07
-0.000124281
3.45297e-07
-0.000123974
2.48564e-07
-0.000123443
2.80422e-07
-0.000123024
3.64162e-07
-0.000122817
3.51715e-07
-0.000122703
2.71923e-07
-0.000122676
1.65468e-07
-0.000123236
9.22081e-08
-0.000125316
8.58856e-08
-0.000126903
2.42369e-07
-0.000127356
3.73778e-07
-0.000127364
3.61696e-07
-0.000127114
2.59271e-07
-0.000126513
2.22018e-07
-0.000126003
3.46221e-07
-0.000125747
3.65407e-07
-0.00012565
3.23976e-07
-0.000125587
2.02859e-07
-0.000125892
1.02052e-07
-0.000127832
1.02778e-07
-0.000129798
2.34787e-07
-0.000130427
3.5819e-07
-0.00013049
3.68396e-07
-0.00013019
2.3721e-07
-0.000129435
1.53404e-07
-0.000128828
3.07574e-07
-0.000128545
3.85429e-07
-0.000128443
3.33064e-07
-0.000128406
2.41332e-07
-0.000128622
1.10359e-07
-0.000130571
1.10947e-07
-0.000132806
2.43085e-07
-0.000133569
3.58438e-07
-0.000133669
3.54277e-07
-0.000133314
1.85268e-07
-0.000132272
8.31314e-08
-0.00013139
2.41092e-07
-0.000131
3.8095e-07
-0.00013087
3.2914e-07
-0.000130872
2.46983e-07
-0.000131011
9.00179e-08
-0.00013317
9.18452e-08
-0.000135974
2.82237e-07
-0.000136869
3.99405e-07
-0.000136931
3.61327e-07
-0.000136313
1.69835e-07
-0.000134734
-4.97581e-08
-0.000133541
1.0898e-07
-0.000132995
2.85788e-07
-0.000132832
3.46766e-07
-0.000132841
2.58855e-07
-0.000133037
9.25743e-08
-0.000135733
1.05419e-07
-0.000139041
2.33527e-07
-0.000140094
3.83036e-07
-0.000140167
3.68818e-07
-0.000139247
1.91219e-07
-0.000136606
-1.30044e-07
-0.00013489
4.80333e-09
-0.000134271
1.66886e-07
-0.000134137
2.53396e-07
-0.000134186
1.69846e-07
-0.000134786
-2.28174e-08
-0.000138574
9.35625e-08
-0.00014185
1.6642e-07
-0.000142816
4.71487e-07
-0.000142898
3.42186e-07
-0.000141649
2.04994e-07
-0.000137555
-3.59501e-08
-0.00013492
-8.48952e-08
-0.000134182
-4.7899e-08
-0.000134132
-7.53144e-09
-0.000134282
-1.56315e-07
-0.000136872
-3.79003e-07
-0.000142424
2.44193e-07
-0.000144973
2.63474e-07
-0.00014545
3.30758e-07
-0.000145229
4.0609e-07
-0.000142027
3.5146e-07
-0.000135989
-4.49751e-07
-0.000131921
-6.4805e-07
-0.000131308
-5.66578e-07
-0.000131364
-6.1633e-07
-0.000134856
-3.73711e-07
-0.000142724
-6.64889e-07
-0.000145976
-3.69792e-07
-0.000146706
2.82085e-07
-0.000146817
4.73141e-07
-0.000144032
2.29838e-07
-0.000136067
-3.99834e-08
-0.000127651
-2.66708e-07
-0.000122607
7.12562e-10
-0.000121152
-4.84608e-06
-0.000113476
-2.20443e-05
1.56099e-05
-0.000130414
1.33518e-07
-0.000132068
3.23292e-07
-0.000132595
3.98648e-07
-0.000132668
4.46876e-07
-0.000132573
4.5501e-07
-0.00013222
4.00212e-07
-0.000131139
3.8437e-07
-0.000130428
4.15302e-07
-0.000130118
4.11047e-07
-0.000129964
3.60769e-07
-0.000129931
3.04656e-07
-0.000130847
2.47486e-07
-0.000132865
3.12534e-07
-0.00013383
3.73907e-07
-0.00013407
4.41446e-07
-0.000134038
4.57905e-07
-0.000133839
4.02545e-07
-0.000132788
3.55801e-07
-0.000131803
3.69127e-07
-0.000131413
4.00458e-07
-0.00013124
3.76657e-07
-0.000131169
3.11233e-07
-0.000131566
2.46297e-07
-0.000133625
2.94479e-07
-0.000135087
3.75812e-07
-0.000135507
4.6786e-07
-0.00013553
4.87927e-07
-0.000135393
4.06196e-07
-0.000134248
3.43681e-07
-0.000133002
3.27217e-07
-0.000132516
3.55006e-07
-0.000132342
3.47022e-07
-0.000132279
3.11818e-07
-0.000132472
2.24044e-07
-0.000134419
2.47543e-07
-0.000136452
3.92992e-07
-0.000137052
5.12068e-07
-0.000137112
5.17276e-07
-0.000137018
4.09083e-07
-0.000135662
3.2391e-07
-0.000134049
2.60169e-07
-0.00013344
3.08943e-07
-0.000133256
3.1639e-07
-0.000133217
2.96173e-07
-0.000133345
1.81508e-07
-0.000135274
1.89103e-07
-0.000137923
3.788e-07
-0.000138781
5.28259e-07
-0.00013888
5.58978e-07
-0.000138778
4.33851e-07
-0.000137058
2.92849e-07
-0.000134984
1.95798e-07
-0.000134254
2.13324e-07
-0.000134037
2.86485e-07
-0.000133996
2.94696e-07
-0.000134154
1.65203e-07
-0.00013656
1.56656e-07
-0.000139718
2.99346e-07
-0.000140698
4.96034e-07
-0.000140808
5.58561e-07
-0.000140631
4.74665e-07
-0.000138181
3.04812e-07
-0.000135567
1.30293e-07
-0.00013475
8.89468e-08
-0.000134505
1.17235e-07
-0.000134508
1.40103e-07
-0.000135023
2.16621e-08
-0.000138837
9.79768e-08
-0.000142069
3.01391e-07
-0.00014288
5.14889e-07
-0.000142963
6.42305e-07
-0.000142395
5.62917e-07
-0.000138534
3.8276e-07
-0.000135285
1.41044e-08
-0.000134406
-2.41773e-07
-0.000134255
-2.53341e-07
-0.00013441
-3.52092e-07
-0.00013702
-3.11803e-07
-0.00014193
4.87313e-08
-0.000144145
3.86465e-07
-0.000144777
6.39271e-07
-0.000144887
6.53601e-07
-0.000143356
5.91699e-07
-0.000136661
-7.29384e-08
-0.000132489
-7.87246e-07
-0.000131466
-9.14884e-07
-0.000131506
-1.10724e-06
-0.000133348
-1.30763e-06
-0.000139113
-1.36403e-06
-0.000142858
-7.01975e-07
-0.000143919
-1.06869e-07
-0.000144168
-5.57301e-08
-0.000142054
-2.9189e-07
-0.000133875
-1.22243e-06
-0.000124749
-2.06963e-06
-0.000118333
-2.42001e-06
-0.000115428
-1.00081e-05
-0.000124083
-2.52855e-05
2.15403e-05
-0.000129826
2.5572e-07
-0.000131411
5.25034e-07
-0.000131916
5.53945e-07
-0.000132025
5.43482e-07
-0.000131945
5.51495e-07
-0.000131636
5.26849e-07
-0.000130633
5.17176e-07
-0.00012989
4.97116e-07
-0.000129543
4.50423e-07
-0.000129402
4.38428e-07
-0.000129344
3.95596e-07
-0.000130252
3.93052e-07
-0.00013223
4.80841e-07
-0.000133174
5.63094e-07
-0.000133414
5.49933e-07
-0.000133403
5.50982e-07
-0.000133227
5.14971e-07
-0.000132277
4.96495e-07
-0.000131307
4.68908e-07
-0.000130871
4.28071e-07
-0.00013068
4.08879e-07
-0.000130618
4.05232e-07
-0.000130954
3.69691e-07
-0.000132939
4.43601e-07
-0.000134432
5.77841e-07
-0.000134848
5.99893e-07
-0.000134893
6.00812e-07
-0.000134802
5.61855e-07
-0.00013377
4.83364e-07
-0.00013256
4.28775e-07
-0.000132071
3.63067e-07
-0.000131861
3.45364e-07
-0.000131774
3.55287e-07
-0.000131885
3.28849e-07
-0.000133685
3.91175e-07
-0.000135779
5.84268e-07
-0.000136419
6.79529e-07
-0.000136506
6.663e-07
-0.000136423
5.86408e-07
-0.000135193
5.04289e-07
-0.000133675
3.70875e-07
-0.0001331
2.93158e-07
-0.000132853
2.72273e-07
-0.00013274
2.98165e-07
-0.000132795
2.85718e-07
-0.00013447
3.2626e-07
-0.000137198
5.10506e-07
-0.000138161
6.77201e-07
-0.00013831
7.13334e-07
-0.000138233
6.43207e-07
-0.00013667
5.46558e-07
-0.000134551
3.73831e-07
-0.000133795
2.29023e-07
-0.000133533
1.67419e-07
-0.000133478
2.01821e-07
-0.000133622
2.04349e-07
-0.000135702
2.40525e-07
-0.000138855
4.3678e-07
-0.000139966
6.58141e-07
-0.000140153
7.39102e-07
-0.000140061
7.11396e-07
-0.000138033
6.05439e-07
-0.000135144
3.09448e-07
-0.000134034
3.66364e-08
-0.00013373
-4.46599e-08
-0.000133717
3.76436e-09
-0.000134138
-4.229e-09
-0.000137488
8.738e-08
-0.000140829
4.36061e-07
-0.000141887
7.09768e-07
-0.000142045
8.50091e-07
-0.000141821
7.74998e-07
-0.000138651
6.55371e-07
-0.000134628
5.21535e-08
-0.000133194
-3.9967e-07
-0.00013295
-5.2558e-07
-0.000133043
-5.56207e-07
-0.000134652
-6.17573e-07
-0.000139365
-2.37506e-07
-0.000142308
4.29633e-07
-0.000143269
7.54787e-07
-0.000143405
7.81074e-07
-0.000142696
6.89646e-07
-0.000136606
3.2828e-07
-0.0001311
-7.51794e-07
-0.000129601
-1.61127e-06
-0.000129565
-1.93509e-06
-0.000130048
-2.19658e-06
-0.000134273
-2.30642e-06
-0.000139102
-1.65292e-06
-0.000141008
-9.32328e-07
-0.00014129
-7.83555e-07
-0.000140214
-1.09948e-06
-0.000133169
-1.99703e-06
-0.000124505
-4.0173e-06
-0.000117597
-6.12144e-06
-0.000114591
-1.53272e-05
-0.000126404
-2.3453e-05
2.46099e-05
-0.000128877
3.38624e-07
-0.000130363
6.79141e-07
-0.000130814
7.20601e-07
-0.000130907
6.91959e-07
-0.000130832
6.69828e-07
-0.000130605
6.37551e-07
-0.000129684
6.36901e-07
-0.00012885
6.1081e-07
-0.000128503
5.53741e-07
-0.000128336
4.94086e-07
-0.000128333
4.65053e-07
-0.000129316
4.66215e-07
-0.000131231
6.16823e-07
-0.000132082
7.1867e-07
-0.000132331
7.30083e-07
-0.000132318
6.77256e-07
-0.0001322
6.45174e-07
-0.000131361
6.04159e-07
-0.000130249
5.81632e-07
-0.000129788
5.27969e-07
-0.000129608
4.82211e-07
-0.000129545
4.46706e-07
-0.000129949
4.33725e-07
-0.000131923
5.6417e-07
-0.00013335
7.23666e-07
-0.000133791
7.78144e-07
-0.000133854
7.40612e-07
-0.000133776
6.81813e-07
-0.000132966
6.09352e-07
-0.000131554
5.64153e-07
-0.000130944
4.5637e-07
-0.000130711
4.17637e-07
-0.000130641
3.98441e-07
-0.000130791
3.84506e-07
-0.000132522
4.71376e-07
-0.00013468
7.08771e-07
-0.000135383
8.23552e-07
-0.000135508
8.18851e-07
-0.00013547
7.37536e-07
-0.000134505
6.42051e-07
-0.00013272
5.47126e-07
-0.000131946
3.89131e-07
-0.000131648
3.23783e-07
-0.000131554
3.15416e-07
-0.000131625
3.12109e-07
-0.000133173
3.81149e-07
-0.000135983
5.92261e-07
-0.000137056
7.86015e-07
-0.000137243
8.39918e-07
-0.000137224
8.16634e-07
-0.000136123
7.47268e-07
-0.000133661
5.87637e-07
-0.0001326
3.00903e-07
-0.000132256
1.39594e-07
-0.000132162
1.43983e-07
-0.000132265
1.60987e-07
-0.000134072
2.49551e-07
-0.000137282
5.33783e-07
-0.000138596
8.03627e-07
-0.000138901
9.15611e-07
-0.000138899
8.90524e-07
-0.000137669
7.76042e-07
-0.000134265
4.96489e-07
-0.000132594
8.90702e-08
-0.000132157
-1.54604e-07
-0.000132084
-1.60717e-07
-0.000132317
-1.58614e-07
-0.000135052
-4.34509e-08
-0.000138735
4.32208e-07
-0.000140135
8.27787e-07
-0.000140425
9.99715e-07
-0.000140451
9.6819e-07
-0.000138632
8.51343e-07
-0.000133663
2.93981e-07
-0.000131223
-3.71235e-07
-0.000130791
-8.12448e-07
-0.0001308
-8.96188e-07
-0.00013151
-9.73907e-07
-0.000135706
-7.57519e-07
-0.000139418
6.38908e-08
-0.000140537
6.90721e-07
-0.000140757
9.18152e-07
-0.000140634
8.47697e-07
-0.000136991
6.62166e-07
-0.000130338
-5.54549e-07
-0.000127117
-1.87823e-06
-0.000126737
-2.73105e-06
-0.000126816
-3.12028e-06
-0.000128677
-3.38093e-06
-0.000132876
-3.08235e-06
-0.000135173
-2.30489e-06
-0.000135944
-2.03661e-06
-0.000135853
-2.43317e-06
-0.000131778
-2.9318e-06
-0.000124714
-4.72345e-06
-0.000118125
-7.08974e-06
-0.000115495
-1.54869e-05
-0.000126813
-2.20158e-05
2.72191e-05
-0.000127849
4.3897e-07
-0.000129259
8.22344e-07
-0.000129636
8.68478e-07
-0.000129707
8.50254e-07
-0.000129634
8.0785e-07
-0.000129434
7.56436e-07
-0.000128608
7.26899e-07
-0.000127688
6.90443e-07
-0.000127287
6.44634e-07
-0.000127111
5.77551e-07
-0.000127062
5.13274e-07
-0.000128166
5.32639e-07
-0.000130115
7.29074e-07
-0.000130936
8.85775e-07
-0.000131123
8.85428e-07
-0.000131127
8.42886e-07
-0.000130995
7.66843e-07
-0.000130302
7.2886e-07
-0.000129102
6.82216e-07
-0.000128552
6.00418e-07
-0.000128311
5.40047e-07
-0.000128218
5.05833e-07
-0.000128612
4.81806e-07
-0.000130681
6.40727e-07
-0.000132188
8.56815e-07
-0.000132602
9.33342e-07
-0.000132653
8.9314e-07
-0.000132587
8.27209e-07
-0.000131975
7.56318e-07
-0.000130413
6.8992e-07
-0.000129672
5.43294e-07
-0.000129376
4.73266e-07
-0.000129261
4.48975e-07
-0.000129345
4.33926e-07
-0.000130992
5.08907e-07
-0.000133322
7.73113e-07
-0.000134145
9.47097e-07
-0.000134275
9.59015e-07
-0.000134258
9.12138e-07
-0.000133633
8.17966e-07
-0.000131597
7.11493e-07
-0.000130563
4.86151e-07
-0.000130214
3.25103e-07
-0.000130093
3.0687e-07
-0.000130153
3.31978e-07
-0.000131488
3.77977e-07
-0.000134265
6.52363e-07
-0.000135513
9.07667e-07
-0.000135801
9.98892e-07
-0.000135824
1.00396e-06
-0.0001353
9.34446e-07
-0.000132796
7.50008e-07
-0.000131129
3.82738e-07
-0.000130645
1.35416e-07
-0.000130485
7.99463e-08
-0.000130546
1.24649e-07
-0.00013199
1.88762e-07
-0.000135217
5.06528e-07
-0.0001368
9.02399e-07
-0.000137213
1.06894e-06
-0.000137273
1.05698e-06
-0.000136879
9.62913e-07
-0.000133755
7.23263e-07
-0.000130983
2.05179e-07
-0.000130256
-1.94545e-07
-0.000130124
-3.58628e-07
-0.000130227
-3.75772e-07
-0.000132107
-3.11422e-07
-0.000136024
1.95151e-07
-0.000137845
8.47893e-07
-0.000138255
1.1375e-06
-0.000138349
1.15537e-06
-0.000137802
1.00779e-06
-0.000133591
6.72219e-07
-0.000129635
-3.57658e-07
-0.000128576
-9.8577e-07
-0.000128517
-1.2975e-06
-0.00012868
-1.40225e-06
-0.000131197
-1.36469e-06
-0.000135776
-6.23363e-07
-0.000137852
3.98087e-07
-0.000138294
8.60187e-07
-0.00013845
9.37785e-07
-0.000137208
7.89388e-07
-0.000131189
2.19505e-07
-0.000125864
-1.86709e-06
-0.000124148
-2.99427e-06
-0.000124158
-3.83807e-06
-0.000124805
-4.34084e-06
-0.000128226
-4.42958e-06
-0.000131363
-3.90196e-06
-0.000132799
-3.4982e-06
-0.000133101
-3.84551e-06
-0.000132238
-4.39862e-06
-0.000127303
-5.50477e-06
-0.00012082
-7.62183e-06
-0.000116633
-1.46169e-05
-0.000126669
-2.04587e-05
2.98062e-05
-0.00012678
5.18547e-07
-0.000128261
9.39211e-07
-0.000128619
1.01387e-06
-0.000128661
1.01214e-06
-0.000128576
9.66403e-07
-0.000128388
8.99673e-07
-0.000127657
8.35686e-07
-0.00012665
7.64086e-07
-0.000126166
7.0545e-07
-0.000125962
6.46051e-07
-0.000125889
5.89951e-07
-0.000126881
5.83692e-07
-0.000129023
8.04186e-07
-0.000129898
1.00652e-06
-0.000130077
1.04242e-06
-0.00013005
1.01125e-06
-0.000129945
9.47288e-07
-0.000129363
8.6654e-07
-0.000128058
7.69458e-07
-0.000127388
6.77823e-07
-0.000127107
5.83382e-07
-0.000127007
5.76528e-07
-0.00012725
5.35826e-07
-0.000129313
6.56796e-07
-0.000131039
9.3059e-07
-0.000131509
1.06013e-06
-0.000131576
1.06401e-06
-0.000131511
1.00897e-06
-0.000131087
9.39423e-07
-0.000129468
8.17082e-07
-0.000128455
6.33992e-07
-0.000128078
5.09014e-07
-0.000127947
4.8404e-07
-0.000127972
4.70975e-07
-0.000129406
5.39965e-07
-0.000131899
7.87096e-07
-0.000132893
1.02404e-06
-0.000133096
1.08614e-06
-0.000133099
1.09347e-06
-0.000132823
1.01462e-06
-0.00013095
8.8173e-07
-0.000129276
6.05763e-07
-0.000128773
3.87771e-07
-0.000128614
2.92532e-07
-0.000128622
3.06907e-07
-0.000129742
3.64837e-07
-0.000132526
6.50522e-07
-0.000133995
9.88594e-07
-0.000134439
1.15323e-06
-0.00013452
1.1539e-06
-0.000134411
1.07262e-06
-0.000132652
9.44164e-07
-0.000129942
4.79859e-07
-0.000128987
2.26012e-07
-0.000128793
7.68467e-08
-0.0001288
2.42209e-08
-0.000129807
3.3973e-08
-0.000133135
3.59184e-07
-0.000135138
9.14783e-07
-0.000135676
1.19981e-06
-0.000135797
1.23118e-06
-0.000135769
1.14586e-06
-0.000133889
9.58721e-07
-0.000130144
3.53601e-07
-0.000128531
-1.14391e-07
-0.000128324
-4.26155e-07
-0.000128331
-5.86258e-07
-0.000129245
-6.17559e-07
-0.000133133
-2.37681e-07
-0.00013593
6.52135e-07
-0.000136624
1.19945e-06
-0.000136737
1.33233e-06
-0.000136687
1.21059e-06
-0.000134217
9.21422e-07
-0.000129424
4.6013e-08
-0.000127045
-9.93776e-07
-0.000126597
-1.57668e-06
-0.000126631
-1.77704e-06
-0.000127441
-1.88602e-06
-0.000131613
-1.59519e-06
-0.00013523
-4.33455e-07
-0.00013643
4.65449e-07
-0.000136673
7.68183e-07
-0.000136594
7.67731e-07
-0.000133286
6.01649e-07
-0.000126859
-7.63845e-07
-0.000123146
-2.9629e-06
-0.000122468
-4.04144e-06
-0.000122514
-5.05321e-06
-0.000124219
-5.50601e-06
-0.000127501
-5.41482e-06
-0.00012942
-5.02839e-06
-0.00013038
-5.21352e-06
-0.000130711
-6.05491e-06
-0.000129238
-6.7323e-06
-0.000124893
-8.44768e-06
-0.00012025
-1.31364e-05
-0.000125561
-1.96931e-05
3.26361e-05
-0.000125704
6.12232e-07
-0.000127403
1.00417e-06
-0.000127874
1.13871e-06
-0.00012793
1.1392e-06
-0.000127851
1.10539e-06
-0.000127671
1.02421e-06
-0.000127021
9.57814e-07
-0.000125864
8.83306e-07
-0.000125284
7.85878e-07
-0.000125055
7.36042e-07
-0.000124967
6.754e-07
-0.00012574
6.4143e-07
-0.000127964
8.22266e-07
-0.000129055
1.09641e-06
-0.000129313
1.18952e-06
-0.000129314
1.17076e-06
-0.000129214
1.10056e-06
-0.000128798
1.00862e-06
-0.000127354
8.85098e-07
-0.000126417
7.5997e-07
-0.000126105
6.74098e-07
-0.000125971
6.14361e-07
-0.000126163
5.76418e-07
-0.000128077
6.70645e-07
-0.000130001
9.76615e-07
-0.000130614
1.17915e-06
-0.000130736
1.22414e-06
-0.000130706
1.18102e-06
-0.000130496
1.09731e-06
-0.000129045
9.61584e-07
-0.000127453
7.34141e-07
-0.000126946
5.94469e-07
-0.000126788
5.23704e-07
-0.000126835
4.79767e-07
-0.000128079
5.03341e-07
-0.000130586
7.86819e-07
-0.000131753
1.10292e-06
-0.000132097
1.24883e-06
-0.000132134
1.22415e-06
-0.000132067
1.16402e-06
-0.000130931
1.04136e-06
-0.000128573
7.23549e-07
-0.000127564
5.20586e-07
-0.000127357
3.77726e-07
-0.000127334
2.94142e-07
-0.000128153
2.78242e-07
-0.000130982
5.52568e-07
-0.00013277
1.02419e-06
-0.000133281
1.27123e-06
-0.000133416
1.29672e-06
-0.000133433
1.21385e-06
-0.000132649
1.07946e-06
-0.00012965
8.11341e-07
-0.000127819
3.07568e-07
-0.000127474
1.05592e-07
-0.000127435
-4.51876e-08
-0.000127913
-1.22791e-07
-0.000130963
7.97339e-08
-0.00013378
7.93471e-07
-0.000134589
1.30811e-06
-0.000134741
1.43767e-06
-0.000134746
1.32748e-06
-0.000133912
1.16266e-06
-0.000130309
7.58153e-07
-0.000127765
-8.91507e-08
-0.000127015
-5.08022e-07
-0.000126976
-6.67349e-07
-0.000127153
-7.79888e-07
-0.000129752
-7.14835e-07
-0.000133896
1.00444e-07
-0.000135526
1.08237e-06
-0.000135793
1.42061e-06
-0.000135867
1.41819e-06
-0.000135046
1.18406e-06
-0.000130633
7.38181e-07
-0.000126746
-7.0096e-07
-0.000125318
-1.6198e-06
-0.00012521
-2.05693e-06
-0.000125338
-2.30699e-06
-0.000127516
-2.40952e-06
-0.000132129
-1.67931e-06
-0.000134729
-3.70007e-07
-0.000135515
3.59942e-07
-0.000135707
5.59619e-07
-0.000135039
6.63864e-07
-0.000130109
4.63139e-08
-0.000124638
-1.90143e-06
-0.000121913
-4.10409e-06
-0.000121554
-5.19859e-06
-0.00012187
-6.18128e-06
-0.000124418
-6.55345e-06
-0.00012721
-6.36435e-06
-0.000128628
-6.33969e-06
-0.000129327
-7.07817e-06
-0.000129349
-8.35576e-06
-0.000127549
-9.53625e-06
-0.000123521
-1.2176e-05
-0.000124728
-1.91773e-05
3.52209e-05
-0.000124808
7.0674e-07
-0.000126629
1.06159e-06
-0.000127198
1.20301e-06
-0.00012732
1.22811e-06
-0.000127263
1.20077e-06
-0.000127143
1.15381e-06
-0.000126696
1.07792e-06
-0.000125429
1.00145e-06
-0.000124703
8.98503e-07
-0.000124422
8.28322e-07
-0.000124307
7.70717e-07
-0.000124831
7.2004e-07
-0.000127028
8.53407e-07
-0.000128319
1.17135e-06
-0.000128643
1.26942e-06
-0.000128679
1.26948e-06
-0.000128602
1.21632e-06
-0.000128392
1.14576e-06
-0.000127143
1.04497e-06
-0.000125821
8.55092e-07
-0.000125362
7.62029e-07
-0.000125228
6.95763e-07
-0.000125293
6.19746e-07
-0.000126999
6.86817e-07
-0.000129114
9.88895e-07
-0.000129865
1.27831e-06
-0.000130039
1.33228e-06
-0.00013004
1.30895e-06
-0.000129954
1.23667e-06
-0.000129066
1.13474e-06
-0.000127063
9.03757e-07
-0.000126179
7.05818e-07
-0.000125969
5.98269e-07
-0.000125926
5.12581e-07
-0.00012686
4.74413e-07
-0.000129484
7.30363e-07
-0.000130909
1.16274e-06
-0.0001313
1.3646e-06
-0.000131402
1.3535e-06
-0.000131386
1.28838e-06
-0.000130934
1.17508e-06
-0.000128594
1.01997e-06
-0.000126908
5.29011e-07
-0.000126467
4.47883e-07
-0.00012641
3.32936e-07
-0.000126746
2.55507e-07
-0.000129357
3.62327e-07
-0.000131849
9.57667e-07
-0.000132601
1.37951e-06
-0.000132757
1.45945e-06
-0.000132775
1.38418e-06
-0.000132467
1.24966e-06
-0.000129917
1.05159e-06
-0.000127504
4.60181e-07
-0.000126679
8.90798e-08
-0.000126564
-6.73676e-08
-0.000126645
-1.46572e-07
-0.000128438
-1.71988e-07
-0.000132223
4.28008e-07
-0.000133838
1.27049e-06
-0.000134123
1.5788e-06
-0.000134181
1.54564e-06
-0.000133973
1.37388e-06
-0.000131283
1.14663e-06
-0.000127837
3.1302e-07
-0.000126351
-4.89845e-07
-0.000125997
-8.04155e-07
-0.000126034
-8.89967e-07
-0.000126853
-1.01804e-06
-0.000131026
-6.99109e-07
-0.000134313
5.22855e-07
-0.000135233
1.36659e-06
-0.000135391
1.56426e-06
-0.000135362
1.46337e-06
-0.000132913
1.35776e-06
-0.000127762
2.84726e-07
-0.000125092
-1.38652e-06
-0.000124377
-2.12481e-06
-0.000124412
-2.64253e-06
-0.000124775
-2.81392e-06
-0.000128075
-2.75771e-06
-0.000132092
-1.6931e-06
-0.000133965
-4.80126e-07
-0.000134559
5.83386e-08
-0.000134722
1.53153e-07
-0.000133503
1.80051e-07
-0.000128166
-8.37682e-07
-0.00012328
-2.96002e-06
-0.000121161
-5.22103e-06
-0.000121093
-6.25293e-06
-0.000121714
-7.36857e-06
-0.000124634
-7.6046e-06
-0.000126968
-7.40422e-06
-0.000128151
-7.80424e-06
-0.000128625
-9.18087e-06
-0.000128404
-1.04643e-05
-0.000126187
-1.18115e-05
-0.000124224
-1.81201e-05
3.75825e-05
-0.000124257
7.85146e-07
-0.000126142
1.12396e-06
-0.000126821
1.30637e-06
-0.000126976
1.31959e-06
-0.000126957
1.31088e-06
-0.000126845
1.26312e-06
-0.000126536
1.18184e-06
-0.000125327
1.10991e-06
-0.000124456
1.01249e-06
-0.000124132
9.24e-07
-0.000123998
8.62646e-07
-0.00012425
7.79701e-07
-0.000126284
9.08805e-07
-0.000127792
1.22266e-06
-0.00012824
1.36533e-06
-0.000128325
1.37377e-06
-0.000128282
1.34311e-06
-0.00012814
1.26211e-06
-0.000127187
1.16582e-06
-0.000125637
9.96718e-07
-0.00012502
8.60569e-07
-0.000124813
7.63735e-07
-0.000124768
6.86243e-07
-0.000125958
6.79356e-07
-0.000128392
9.83268e-07
-0.000129403
1.34659e-06
-0.000129655
1.43777e-06
-0.000129677
1.42892e-06
-0.000129621
1.3743e-06
-0.000129112
1.26468e-06
-0.000127136
1.12156e-06
-0.000125875
7.69138e-07
-0.000125513
6.69055e-07
-0.000125421
5.56979e-07
-0.000125773
4.80313e-07
-0.000128313
6.27428e-07
-0.000130322
1.14537e-06
-0.000130885
1.46499e-06
-0.000131003
1.49532e-06
-0.000131015
1.45325e-06
-0.000130834
1.33282e-06
-0.000128925
1.20757e-06
-0.000126808
8.02496e-07
-0.000126039
4.6784e-07
-0.000125873
3.42359e-07
-0.000125894
2.56532e-07
-0.000127494
2.39921e-07
-0.000130795
7.04985e-07
-0.000132142
1.40033e-06
-0.000132404
1.6072e-06
-0.000132443
1.58477e-06
-0.000132383
1.46462e-06
-0.000130711
1.29369e-06
-0.000127764
7.79637e-07
-0.000126398
1.36972e-07
-0.000125983
-1.12436e-07
-0.000125943
-1.74195e-07
-0.000126399
-2.59946e-07
-0.000129895
-6.11152e-08
-0.000132999
9.06143e-07
-0.000133835
1.64012e-06
-0.000133916
1.69526e-06
-0.000133927
1.60404e-06
-0.000132726
1.49537e-06
-0.000128735
9.28364e-07
-0.00012622
-2.11083e-07
-0.000125449
-8.34592e-07
-0.000125345
-1.12104e-06
-0.000125444
-1.21733e-06
-0.00012755
-1.26313e-06
-0.000132214
-4.43057e-07
-0.000134499
9.65926e-07
-0.000134983
1.58051e-06
-0.00013507
1.66606e-06
-0.000134646
1.5197e-06
-0.000130839
1.19642e-06
-0.00012626
-3.61827e-07
-0.000124186
-2.0089e-06
-0.000123676
-2.68413e-06
-0.000123714
-3.01069e-06
-0.000124666
-3.2775e-06
-0.000128691
-3.05387e-06
-0.000132081
-1.79673e-06
-0.000133556
-7.71268e-07
-0.000134056
-3.97343e-07
-0.000134073
-3.27388e-07
-0.000132075
-5.60569e-07
-0.000126742
-1.82633e-06
-0.000122384
-4.15933e-06
-0.000120565
-6.35918e-06
-0.000120625
-7.41494e-06
-0.000121815
-8.59283e-06
-0.00012505
-8.66622e-06
-0.000127167
-8.56565e-06
-0.00012805
-9.55568e-06
-0.000128221
-1.10045e-05
-0.000127663
-1.19895e-05
-0.000123958
-1.65908e-05
3.97597e-05
-0.000123869
8.5004e-07
-0.000125907
1.1585e-06
-0.000126667
1.43041e-06
-0.000126852
1.4634e-06
-0.000126843
1.43197e-06
-0.000126726
1.35933e-06
-0.000126498
1.29136e-06
-0.000125393
1.19919e-06
-0.000124358
1.09773e-06
-0.000123972
1.01823e-06
-0.000123816
9.46521e-07
-0.000123887
8.5971e-07
-0.000125621
8.99718e-07
-0.000127484
1.25699e-06
-0.000128059
1.48758e-06
-0.000128185
1.51182e-06
-0.000128135
1.45206e-06
-0.000128037
1.3917e-06
-0.000127383
1.28744e-06
-0.00012569
1.13332e-06
-0.00012486
9.4016e-07
-0.000124578
8.39408e-07
-0.000124493
7.59559e-07
-0.000125067
6.81059e-07
-0.00012761
8.91938e-07
-0.000129081
1.37254e-06
-0.000129456
1.58259e-06
-0.000129515
1.57002e-06
-0.000129476
1.51943e-06
-0.000129231
1.40068e-06
-0.000127488
1.29356e-06
-0.000125856
9.52535e-07
-0.000125261
7.02957e-07
-0.000125119
6.15285e-07
-0.000125135
4.96403e-07
-0.000126865
5.19729e-07
-0.000129667
9.93241e-07
-0.000130653
1.54139e-06
-0.000130849
1.66264e-06
-0.000130851
1.62257e-06
-0.000130791
1.51936e-06
-0.000129547
1.38634e-06
-0.000127017
1.04511e-06
-0.000125885
5.53022e-07
-0.000125536
3.63331e-07
-0.000125492
2.69753e-07
-0.000125926
1.87166e-07
-0.000129139
3.86971e-07
-0.000131645
1.22328e-06
-0.000132246
1.72271e-06
-0.000132327
1.77683e-06
-0.000132324
1.66248e-06
-0.00013165
1.52383e-06
-0.000128551
1.1823e-06
-0.00012636
3.96974e-07
-0.000125598
-7.1154e-08
-0.000125408
-2.47653e-07
-0.000125475
-3.14477e-07
-0.000127138
-3.8054e-07
-0.00013142
2.21834e-07
-0.000133435
1.39477e-06
-0.000133833
1.82936e-06
-0.000133886
1.87155e-06
-0.000133679
1.7436e-06
-0.000130825
1.58145e-06
-0.000126943
4.39375e-07
-0.00012534
-7.1121e-07
-0.000124852
-1.19724e-06
-0.000124817
-1.40594e-06
-0.000125115
-1.47199e-06
-0.000128606
-1.38778e-06
-0.000132862
-1.16814e-07
-0.000134406
1.21695e-06
-0.000134751
1.6842e-06
-0.000134854
1.60784e-06
-0.000133992
1.40252e-06
-0.000129055
9.91014e-07
-0.000124898
-8.85072e-07
-0.000123411
-2.5042e-06
-0.000123209
-3.03892e-06
-0.000123286
-3.53715e-06
-0.000124868
-3.76999e-06
-0.000128959
-3.26772e-06
-0.000131687
-2.02206e-06
-0.00013282
-1.21984e-06
-0.000133185
-1.03352e-06
-0.000133094
-9.47184e-07
-0.000130809
-1.67918e-06
-0.000125559
-2.97531e-06
-0.000121534
-5.40489e-06
-0.000120005
-7.58781e-06
-0.000120125
-8.94593e-06
-0.000121925
-9.94005e-06
-0.000125396
-9.80112e-06
-0.000127476
-1.00835e-05
-0.000128251
-1.13354e-05
-0.00012862
-1.20257e-05
-0.000124067
-1.46678e-05
4.18066e-05
-0.000123413
8.96073e-07
-0.000125611
1.148e-06
-0.000126593
1.4924e-06
-0.000126813
1.6172e-06
-0.000126804
1.5641e-06
-0.00012672
1.50051e-06
-0.000126529
1.41041e-06
-0.000125559
1.30974e-06
-0.000124367
1.19667e-06
-0.000123882
1.08817e-06
-0.000123686
1.01259e-06
-0.000123625
9.26174e-07
-0.000124856
8.78287e-07
-0.000127134
1.22016e-06
-0.000127936
1.55835e-06
-0.000128095
1.65876e-06
-0.00012809
1.60724e-06
-0.000127982
1.51499e-06
-0.000127585
1.43129e-06
-0.000125934
1.30637e-06
-0.00012481
1.03826e-06
-0.000124436
9.14501e-07
-0.000124303
8.14335e-07
-0.000124429
7.28195e-07
-0.000126588
7.97726e-07
-0.000128763
1.31053e-06
-0.000129336
1.66155e-06
-0.000129441
1.7332e-06
-0.000129389
1.65264e-06
-0.00012929
1.56567e-06
-0.000128061
1.45132e-06
-0.000126
1.15636e-06
-0.000125173
7.7867e-07
-0.000124885
6.57006e-07
-0.000124836
5.68491e-07
-0.000125474
4.70828e-07
-0.000128589
7.56322e-07
-0.000130389
1.46987e-06
-0.000130759
1.76474e-06
-0.000130803
1.80443e-06
-0.000130772
1.70674e-06
-0.000130241
1.59149e-06
-0.000127703
1.32698e-06
-0.000125937
7.42141e-07
-0.000125313
3.80185e-07
-0.000125131
2.76131e-07
-0.000125164
1.78362e-07
-0.000126963
1.78949e-07
-0.000130654
7.64162e-07
-0.000132075
1.68699e-06
-0.000132292
1.89475e-06
-0.000132308
1.88138e-06
-0.000132169
1.77489e-06
-0.000130007
1.62638e-06
-0.00012676
8.71567e-07
-0.000125472
5.6706e-08
-0.000125113
-2.50096e-07
-0.000125064
-4.26625e-07
-0.000125339
-5.0626e-07
-0.000128648
-3.95062e-07
-0.000132431
7.28253e-07
-0.000133584
1.78492e-06
-0.000133718
1.99242e-06
-0.000133766
1.99837e-06
-0.000133045
1.8686e-06
-0.000129128
1.39988e-06
-0.000125805
-1.92833e-08
-0.000124492
-1.15983e-06
-0.000124175
-1.41549e-06
-0.000124207
-1.65272e-06
-0.000125189
-1.82614e-06
-0.000129853
-1.48372e-06
-0.000133505
1.98787e-07
-0.000134539
1.34353e-06
-0.000134667
1.5926e-06
-0.000134626
1.59657e-06
-0.000132845
1.45838e-06
-0.000127729
5.66551e-07
-0.000124245
-1.5168e-06
-0.000122942
-3.03588e-06
-0.000122744
-3.56158e-06
-0.000122931
-3.96098e-06
-0.000125156
-4.20102e-06
-0.000129073
-3.54286e-06
-0.000131343
-2.39561e-06
-0.000132346
-1.83885e-06
-0.000132535
-1.78303e-06
-0.000132279
-1.72975e-06
-0.000129661
-2.71042e-06
-0.000124543
-4.22906e-06
-0.000120719
-6.82321e-06
-0.000119406
-9.01307e-06
-0.000119638
-1.04722e-05
-0.000122312
-1.13119e-05
-0.000125964
-1.1206e-05
-0.000127888
-1.19617e-05
-0.000129061
-1.25581e-05
-0.000124363
-1.22063e-05
4.37515e-05
-0.000122965
9.48638e-07
-0.000125104
1.08025e-06
-0.000126602
1.54778e-06
-0.000126886
1.75168e-06
-0.000126894
1.72346e-06
-0.000126801
1.65247e-06
-0.00012662
1.54163e-06
-0.000125813
1.45383e-06
-0.000124451
1.313e-06
-0.000123822
1.13387e-06
-0.000123571
1.05736e-06
-0.000123455
9.79024e-07
-0.000124036
9.01186e-07
-0.000126581
1.13146e-06
-0.000127892
1.5917e-06
-0.000128127
1.7994e-06
-0.000128122
1.77515e-06
-0.000128047
1.68705e-06
-0.000127808
1.59346e-06
-0.000126343
1.45935e-06
-0.000124888
1.18767e-06
-0.000124343
9.45103e-07
-0.000124149
8.6722e-07
-0.000124089
7.83434e-07
-0.000125299
7.38012e-07
-0.000128149
1.12491e-06
-0.000129265
1.70782e-06
-0.000129435
1.86475e-06
-0.000129429
1.82989e-06
-0.00012936
1.73969e-06
-0.00012871
1.61557e-06
-0.000126475
1.3854e-06
-0.000125188
9.26195e-07
-0.000124731
6.7222e-07
-0.000124596
6.07656e-07
-0.000124682
5.18207e-07
-0.000126887
5.46294e-07
-0.000129843
1.19867e-06
-0.000130719
1.82667e-06
-0.000130834
1.95728e-06
-0.000130821
1.90714e-06
-0.000130662
1.78614e-06
-0.000128803
1.64318e-06
-0.000126206
1.06346e-06
-0.000125217
4.84689e-07
-0.000124892
2.98783e-07
-0.000124848
1.76313e-07
-0.000125264
8.34107e-08
-0.000128703
2.76089e-07
-0.000131583
1.3e-06
-0.000132311
1.98095e-06
-0.000132405
2.06666e-06
-0.000132398
2.04507e-06
-0.000131585
1.9363e-06
-0.000128126
1.51109e-06
-0.000125753
4.1614e-07
-0.000124929
-2.53262e-07
-0.000124652
-5.14931e-07
-0.000124662
-5.76037e-07
-0.000125665
-6.60495e-07
-0.000130112
-2.54544e-07
-0.000132941
1.18151e-06
-0.000133699
2.03855e-06
-0.00013382
2.11189e-06
-0.000133815
2.00083e-06
-0.000132031
2.01094e-06
-0.000127264
1.21288e-06
-0.00012469
-5.32255e-07
-0.000123987
-1.40688e-06
-0.00012385
-1.87285e-06
-0.000123911
-1.97476e-06
-0.000125526
-2.10243e-06
-0.000130489
-1.44453e-06
-0.000133302
3.50365e-07
-0.000134039
1.36744e-06
-0.000134194
1.58374e-06
-0.000134183
1.43804e-06
-0.000132005
1.07212e-06
-0.000126654
1.70487e-07
-0.000123471
-2.02371e-06
-0.000122424
-3.52429e-06
-0.000122365
-4.00541e-06
-0.000122686
-4.54174e-06
-0.000125453
-4.64218e-06
-0.00012897
-3.81761e-06
-0.000130831
-2.88209e-06
-0.000131679
-2.53079e-06
-0.000131849