/*--------------------------------*- C++ -*----------------------------------*\
  =========                 |
  \\      /  F ield         | OpenFOAM: The Open Source CFD Toolbox
   \\    /   O peration     | Website:  https://openfoam.org
    \\  /    A nd           | Version:  12
     \\/     M anipulation  |
\*---------------------------------------------------------------------------*/
FoamFile
{
    format      ascii;
    class       volScalarField;
    location    "25.4";
    object      p;
}
// * * * * * * * * * * * * * * * * * * * * * * * * * * * * * * * * * * * * * //

dimensions      [1 -1 -2 0 0 0 0];

internalField   nonuniform List<scalar> 
9801
(
0.670232
0.669263
0.650425
0.63759
0.637262
0.640503
0.64731
0.658957
0.677457
0.693806
0.701575
0.705674
0.708442
0.709291
0.708681
0.709319
0.710697
0.712955
0.715899
0.71905
0.722075
0.725285
0.729706
0.739527
0.754418
0.765823
0.772941
0.777586
0.780706
0.776101
0.767391
0.767341
0.769944
0.773686
0.779023
0.796017
0.827104
0.843498
0.848689
0.851616
0.8492
0.835094
0.826039
0.827236
0.830918
0.836349
0.844438
0.864856
0.896166
0.913368
0.920373
0.924618
0.924825
0.910693
0.898643
0.898846
0.903531
0.909689
0.9175
0.936145
0.971077
0.994412
1.00578
1.0129
1.01702
1.0075
0.989079
0.98366
0.988123
0.995161
1.00572
1.03504
1.0825
1.11104
1.12503
1.13409
1.14032
1.13001
1.10279
1.09087
1.09771
1.11111
1.14276
1.21035
1.26254
1.29051
1.31004
1.32918
1.33236
1.29743
1.26457
1.26418
1.29449
1.36376
1.50716
1.65374
1.76621
3.39865
20.2493
0.672594
0.675666
0.663845
0.656685
0.654003
0.65438
0.656785
0.660935
0.669596
0.688745
0.706923
0.713864
0.716453
0.717554
0.716737
0.714198
0.71507
0.717666
0.720246
0.722749
0.725879
0.729964
0.74077
0.756017
0.764651
0.770874
0.776208
0.780858
0.783482
0.777512
0.773227
0.77404
0.77687
0.78064
0.786247
0.804546
0.827049
0.840614
0.848372
0.853451
0.85312
0.839945
0.831964
0.833559
0.837523
0.842374
0.848776
0.866521
0.895613
0.914021
0.922672
0.928059
0.929849
0.918665
0.905044
0.903349
0.907575
0.913402
0.920531
0.939554
0.97444
0.997814
1.00937
1.01696
1.02254
1.01627
0.995439
0.98709
0.99159
1.00017
1.00982
1.03794
1.08066
1.10767
1.12254
1.13343
1.14415
1.13837
1.10771
1.09609
1.10315
1.11693
1.13959
1.19375
1.24905
1.28357
1.30903
1.33262
1.34493
1.31306
1.2773
1.2751
1.30392
1.35306
1.4481
1.56591
1.65001
3.22856
20.6
0.663066
0.663985
0.660768
0.661524
0.664697
0.668396
0.671955
0.675086
0.6776
0.68674
0.703297
0.710532
0.712487
0.715241
0.718744
0.719546
0.720231
0.722213
0.723056
0.723558
0.725674
0.729547
0.742569
0.76177
0.771619
0.776647
0.781084
0.785555
0.786233
0.77846
0.776022
0.778182
0.781941
0.786379
0.79386
0.813232
0.830695
0.839894
0.846032
0.850393
0.850735
0.841755
0.836913
0.839637
0.844551
0.849748
0.855314
0.869446
0.893229
0.909401
0.918483
0.924503
0.928969
0.924579
0.913099
0.910058
0.913342
0.918354
0.924402
0.937976
0.969229
0.993659
1.00704
1.01593
1.02345
1.02353
1.00511
0.993283
0.99523
1.00251
1.01174
1.03173
1.07273
1.10559
1.12402
1.13669
1.14805
1.14717
1.1185
1.10114
1.10485
1.11824
1.13525
1.17687
1.24545
1.29109
1.31731
1.3401
1.35428
1.33212
1.29949
1.2893
1.30652
1.34745
1.41852
1.52742
1.59363
3.21099
20.6941
0.64725
0.658852
0.66801
0.674143
0.678226
0.68147
0.683638
0.682799
0.679904
0.680303
0.688969
0.705172
0.715957
0.722067
0.726763
0.730163
0.728367
0.723345
0.720746
0.722
0.725498
0.731008
0.747728
0.76894
0.778853
0.78359
0.78756
0.790839
0.785951
0.779261
0.779654
0.783046
0.787432
0.792379
0.801505
0.817301
0.830137
0.838267
0.844235
0.849216
0.853113
0.849858
0.846584
0.848007
0.85073
0.853751
0.857757
0.865644
0.887141
0.907021
0.918986
0.927291
0.934009
0.937321
0.92514
0.916154
0.916174
0.919906
0.925708
0.935427
0.964252
0.995022
1.01176
1.02173
1.02971
1.03403
1.01742
0.998067
0.996256
1.00299
1.01228
1.027
1.06577
1.10536
1.12608
1.13912
1.15067
1.15702
1.13572
1.10814
1.10462
1.11736
1.13468
1.16244
1.22309
1.27891
1.3111
1.33524
1.35629
1.34971
1.32084
1.30204
1.30537
1.33165
1.3774
1.46111
1.51125
3.26015
20.7904
0.641866
0.66219
0.67731
0.683364
0.687933
0.69115
0.689119
0.679359
0.674534
0.675366
0.681942
0.706067
0.724329
0.73161
0.7362
0.739982
0.735882
0.722762
0.718501
0.72075
0.725218
0.732409
0.750652
0.773194
0.783931
0.788998
0.79325
0.795028
0.787373
0.780615
0.781639
0.785215
0.789385
0.794015
0.802619
0.818056
0.831681
0.841291
0.848538
0.854235
0.859115
0.858111
0.852017
0.850377
0.851495
0.854321
0.858758
0.865587
0.886893
0.911451
0.924779
0.932769
0.939222
0.943874
0.933106
0.918441
0.916806
0.921239
0.928014
0.936977
0.962024
0.99529
1.0137
1.02365
1.03108
1.03648
1.02552
1.00235
0.996558
1.0033
1.01316
1.02582
1.05737
1.10167
1.12729
1.14151
1.15343
1.16314
1.15158
1.11963
1.1041
1.11183
1.12983
1.15241
1.19742
1.26083
1.30551
1.33411
1.35861
1.3687
1.34756
1.3225
1.30859
1.31453
1.3443
1.40481
1.44737
3.26115
20.8423
0.650132
0.668675
0.682628
0.690274
0.695411
0.695235
0.681908
0.672516
0.672324
0.675161
0.685067
0.712102
0.731382
0.738882
0.743562
0.746943
0.739922
0.722923
0.718475
0.721233
0.725698
0.733184
0.751287
0.775896
0.788758
0.79432
0.798382
0.799432
0.792126
0.783116
0.782352
0.785872
0.790451
0.795312
0.802849
0.82013
0.83783
0.84817
0.854622
0.859836
0.864784
0.865634
0.856087
0.851004
0.852489
0.85657
0.861853
0.868577
0.888533
0.915561
0.929784
0.937395
0.943474
0.948002
0.93974
0.922145
0.918352
0.923147
0.9305
0.939693
0.960973
0.993506
1.01345
1.0239
1.0317
1.03865
1.03649
1.01454
1.00078
1.0041
1.01426
1.026
1.04828
1.09144
1.12516
1.142
1.15382
1.16466
1.16461
1.1394
1.11704
1.11293
1.12492
1.14317
1.17118
1.22477
1.27945
1.31682
1.34539
1.37017
1.3703
1.34899
1.32741
1.31761
1.32241
1.3568
1.39577
3.25742
20.8881
0.664191
0.680225
0.687895
0.694053
0.695595
0.684435
0.674079
0.672046
0.674153
0.678323
0.694326
0.719913
0.735887
0.743477
0.748264
0.748698
0.737357
0.725201
0.723439
0.726083
0.729936
0.735505
0.749904
0.774567
0.789948
0.796576
0.799927
0.800774
0.798169
0.790374
0.785588
0.786741
0.791138
0.796507
0.802737
0.817219
0.840158
0.854136
0.860705
0.865455
0.870213
0.872677
0.862917
0.852152
0.851808
0.856508
0.862885
0.870646
0.889338
0.917445
0.933086
0.940792
0.946704
0.951614
0.948276
0.931176
0.921067
0.923197
0.930029
0.938385
0.955165
0.986999
1.0115
1.02362
1.03208
1.0402
1.04614
1.0326
1.01206
1.00775
1.01451
1.02419
1.03718
1.0703
1.11472
1.14122
1.15601
1.16835
1.17762
1.16734
1.14141
1.12586
1.12376
1.13469
1.15303
1.18691
1.24198
1.29165
1.32789
1.35692
1.37876
1.37383
1.35605
1.33186
1.31371
1.32374
1.33965
3.2423
20.9403
0.680138
0.690056
0.693993
0.693735
0.680275
0.672646
0.673561
0.676938
0.680977
0.690222
0.710346
0.728167
0.738119
0.744026
0.746043
0.741497
0.735461
0.732936
0.733252
0.735783
0.739916
0.745144
0.75334
0.771346
0.786907
0.794357
0.797979
0.801021
0.80447
0.802029
0.793912
0.791539
0.79378
0.797651
0.802055
0.810252
0.834053
0.85603
0.865723
0.87109
0.875926
0.879796
0.873924
0.859475
0.853879
0.856388
0.86157
0.868735
0.885649
0.914745
0.933789
0.942813
0.949123
0.954686
0.956627
0.942999
0.928206
0.925207
0.929582
0.936478
0.946892
0.974401
1.0077
1.02595
1.03591
1.0443
1.0524
1.05175
1.02968
1.01496
1.01276
1.01932
1.0294
1.04806
1.0922
1.13509
1.15897
1.17459
1.18793
1.19426
1.17261
1.14287
1.13039
1.1324
1.14428
1.16329
1.20097
1.2537
1.29827
1.33276
1.3617
1.37828
1.37476
1.35852
1.32822
1.30473
1.2815
3.20461
21.0285
0.693119
0.699259
0.696499
0.680056
0.668497
0.669031
0.672763
0.678862
0.689247
0.708376
0.726343
0.735353
0.739427
0.740094
0.736706
0.735908
0.737107
0.738707
0.74164
0.745704
0.751285
0.755305
0.758892
0.76711
0.781217
0.78993
0.796658
0.803967
0.809722
0.813536
0.80753
0.799961
0.79822
0.799126
0.80163
0.806063
0.82232
0.851872
0.86849
0.87604
0.881378
0.886145
0.885598
0.86994
0.858616
0.857263
0.860982
0.866643
0.878555
0.906685
0.931431
0.943353
0.950361
0.956115
0.96105
0.957176
0.938706
0.929479
0.93017
0.936015
0.94371
0.960576
0.997555
1.02709
1.04161
1.05057
1.05852
1.06363
1.04903
1.0238
1.01362
1.01533
1.02389
1.0355
1.06335
1.11562
1.15707
1.17921
1.19357
1.20514
1.20245
1.17477
1.14801
1.13824
1.14124
1.15402
1.17529
1.21556
1.26498
1.30477
1.33567
1.36143
1.37208
1.36799
1.35089
1.3149
1.25052
3.13935
21.1209
0.704734
0.710774
0.691858
0.671698
0.668584
0.671085
0.674789
0.681331
0.697405
0.718174
0.731683
0.737136
0.737199
0.733329
0.734811
0.739384
0.743311
0.746079
0.750914
0.757455
0.759939
0.758458
0.757647
0.760398
0.773119
0.789011
0.801334
0.810326
0.816488
0.821643
0.822997
0.811183
0.801434
0.79868
0.800907
0.805302
0.815886
0.845197
0.868993
0.879323
0.885376
0.890353
0.893085
0.881753
0.863602
0.859533
0.862202
0.867611
0.875309
0.896505
0.926427
0.943122
0.951112
0.956817
0.962655
0.966756
0.954371
0.937497
0.934127
0.93839
0.944958
0.953233
0.979035
1.01988
1.04368
1.05491
1.06302
1.07068
1.06982
1.04444
1.0231
1.01821
1.02247
1.03148
1.04405
1.07937
1.135
1.17206
1.19124
1.20472
1.21544
1.20997
1.18131
1.15615
1.14806
1.15259
1.16599
1.18777
1.22733
1.27178
1.30613
1.33304
1.35435
1.36061
1.35772
1.33083
1.26377
3.06682
21.2583
0.707349
0.706973
0.68537
0.675432
0.67394
0.677169
0.685292
0.697056
0.707722
0.718346
0.72684
0.729803
0.729707
0.732022
0.739906
0.747057
0.753795
0.758791
0.761793
0.762646
0.758744
0.75199
0.750668
0.753562
0.766324
0.791302
0.808342
0.818377
0.824766
0.829871
0.83312
0.820616
0.801093
0.79763
0.800889
0.80607
0.81663
0.843508
0.870017
0.881875
0.887832
0.891841
0.893877
0.88816
0.87182
0.86422
0.866398
0.871473
0.877126
0.887615
0.915494
0.939986
0.951545
0.959247
0.967135
0.973949
0.97346
0.954792
0.943356
0.941694
0.944362
0.949971
0.961246
0.998414
1.0378
1.05674
1.0674
1.07644
1.08433
1.07484
1.04449
1.02707
1.02377
1.0278
1.03689
1.0524
1.09352
1.14735
1.18172
1.20086
1.21476
1.22376
1.21776
1.19371
1.17038
1.16028
1.16236
1.17394
1.19506
1.23461
1.27679
1.30831
1.33192
1.34574
1.35118
1.33936
1.29
3.01711
21.3985
0.698577
0.696176
0.689015
0.686198
0.688312
0.69426
0.701899
0.707188
0.70967
0.708383
0.709815
0.717854
0.72832
0.739573
0.751191
0.761603
0.768129
0.772432
0.771065
0.760072
0.746678
0.743277
0.745955
0.750751
0.765184
0.796344
0.818461
0.826985
0.831815
0.836094
0.836231
0.819279
0.803144
0.801235
0.804746
0.80956
0.819307
0.843712
0.869808
0.882238
0.887672
0.890123
0.893044
0.894907
0.885836
0.875074
0.874066
0.876259
0.87866
0.88347
0.898302
0.930694
0.952969
0.96527
0.974051
0.981551
0.987221
0.976914
0.953346
0.941991
0.940401
0.9454
0.953263
0.974313
1.02218
1.05719
1.07286
1.08279
1.09157
1.09513
1.07356
1.04163
1.02851
1.02898
1.03477
1.04359
1.05762
1.09787
1.1523
1.18767
1.20798
1.22352
1.23433
1.23161
1.20725
1.17954
1.16546
1.16649
1.17781
1.19944
1.24196
1.28429
1.31314
1.33068
1.33835
1.33645
1.3092
2.99407
21.4999
0.688492
0.694464
0.698647
0.704876
0.709194
0.710549
0.712095
0.710787
0.700429
0.695458
0.697757
0.7073
0.7296
0.752804
0.767766
0.774669
0.778862
0.782017
0.775973
0.750315
0.73808
0.738804
0.742602
0.748937
0.766572
0.803309
0.82417
0.831711
0.836275
0.837041
0.830288
0.818927
0.808258
0.806495
0.810646
0.817856
0.824598
0.837865
0.861455
0.876588
0.883325
0.889113
0.896542
0.902099
0.90307
0.890481
0.880359
0.876526
0.876296
0.879804
0.887387
0.91535
0.952653
0.972287
0.982471
0.989233
0.995496
0.993233
0.965426
0.943275
0.939768
0.943698
0.950449
0.961483
0.994792
1.04473
1.07262
1.08446
1.09101
1.09601
1.09782
1.07739
1.04954
1.0376
1.03542
1.03735
1.04536
1.0615
1.10549
1.1625
1.1997
1.22043
1.23508
1.24097
1.23575
1.21302
1.18439
1.16892
1.16913
1.18023
1.20435
1.25035
1.29032
1.3134
1.32327
1.32504
1.31915
3.00283
21.576
0.676813
0.69727
0.713128
0.721122
0.725012
0.724982
0.718868
0.703347
0.692272
0.692019
0.695395
0.703176
0.73018
0.765055
0.779136
0.784612
0.787596
0.78677
0.767919
0.746359
0.740606
0.742228
0.745791
0.753593
0.776906
0.806898
0.825503
0.832745
0.833494
0.82919
0.828004
0.825178
0.819044
0.81829
0.822293
0.825698
0.826512
0.829309
0.842667
0.867791
0.884029
0.894483
0.902823
0.91002
0.915243
0.909203
0.887827
0.874863
0.872599
0.876726
0.88335
0.901291
0.944673
0.976204
0.987729
0.994268
0.998714
0.998396
0.98275
0.955127
0.945132
0.947801
0.954543
0.961302
0.971278
1.00669
1.05278
1.07663
1.08924
1.0999
1.1097
1.11187
1.08618
1.05464
1.04012
1.03898
1.04421
1.05395
1.07078
1.11538
1.17088
1.20453
1.2228
1.23582
1.2416
1.23727
1.2164
1.18866
1.17322
1.17257
1.18173
1.20726
1.25355
1.28802
1.30441
1.30885
1.32031
3.04506
21.6521
0.67605
0.705648
0.720687
0.726658
0.730834
0.733387
0.720729
0.698038
0.69315
0.695351
0.698699
0.70632
0.738364
0.770733
0.783151
0.788656
0.790779
0.779492
0.762305
0.75096
0.747065
0.750065
0.75738
0.76912
0.782935
0.802623
0.816423
0.82168
0.82236
0.825849
0.831873
0.836972
0.836823
0.831589
0.828515
0.825112
0.821186
0.821849
0.827978
0.853422
0.884965
0.902435
0.912363
0.918547
0.923806
0.923018
0.898023
0.876294
0.873578
0.877676
0.8835
0.893497
0.927342
0.969347
0.9864
0.992304
0.994699
0.99836
0.999949
0.983624
0.962919
0.956783
0.956982
0.95903
0.964129
0.974849
1.01276
1.06253
1.09089
1.10448
1.11449
1.12277
1.12255
1.09638
1.06411
1.04975
1.04827
1.05253
1.06195
1.08011
1.12477
1.17471
1.20458
1.22199
1.2346
1.24195
1.24033
1.22138
1.19295
1.17513
1.17301
1.17983
1.20541
1.24986
1.2792
1.28937
1.3111
3.11328
21.7391
0.683947
0.712304
0.723301
0.729033
0.732618
0.730544
0.713581
0.700769
0.698148
0.70054
0.705345
0.718749
0.746013
0.771285
0.781862
0.78446
0.778283
0.771937
0.766935
0.76188
0.762637
0.767561
0.774903
0.779164
0.781198
0.785394
0.800144
0.813378
0.822567
0.832278
0.842124
0.849741
0.854087
0.847683
0.83129
0.817902
0.814523
0.817797
0.823802
0.841745
0.882623
0.90985
0.919929
0.925456
0.929485
0.927025
0.908066
0.88431
0.878874
0.883252
0.890705
0.898523
0.910494
0.943946
0.975306
0.988792
0.996232
1.00337
1.01017
1.0115
0.991968
0.97004
0.960837
0.959259
0.960961
0.966145
0.977617
1.02022
1.07464
1.10309
1.1165
1.12727
1.13547
1.13319
1.10426
1.07042
1.05544
1.05495
1.06137
1.07151
1.08839
1.13055
1.17639
1.20479
1.22354
1.23805
1.24521
1.24412
1.22406
1.19233
1.17204
1.16849
1.17374
1.20101
1.24399
1.26669
1.2967
3.19756
21.8481
0.695909
0.718367
0.724542
0.728618
0.729494
0.721484
0.71007
0.705125
0.706556
0.711181
0.719218
0.72897
0.74484
0.760583
0.767933
0.768919
0.76865
0.772638
0.777277
0.780635
0.780556
0.78176
0.782702
0.777406
0.771368
0.772615
0.782367
0.806499
0.828864
0.845008
0.853711
0.858745
0.863491
0.860239
0.833836
0.815264
0.814178
0.818144
0.823749
0.838095
0.878421
0.91224
0.923515
0.927291
0.925164
0.923072
0.919746
0.905537
0.894434
0.894375
0.898149
0.901437
0.904877
0.914214
0.948137
0.982828
1.00028
1.01005
1.01811
1.02583
1.0257
1.00053
0.974281
0.96361
0.96144
0.963992
0.970002
0.984788
1.0312
1.08606
1.1146
1.12747
1.13391
1.13766
1.13677
1.11391
1.08416
1.06888
1.06569
1.06867
1.07763
1.09483
1.13673
1.18034
1.20837
1.22717
1.24028
1.24643
1.24441
1.22253
1.18835
1.16603
1.16118
1.1652
1.1974
1.23538
1.27518
3.28657
21.9704
0.702326
0.724568
0.727949
0.728463
0.725878
0.721087
0.714636
0.714065
0.718206
0.724042
0.727864
0.730582
0.733054
0.744285
0.757994
0.76608
0.773073
0.782138
0.791254
0.796881
0.797516
0.791002
0.779451
0.768476
0.766636
0.770028
0.776596
0.799622
0.836237
0.854533
0.861348
0.865694
0.865664
0.855024
0.835598
0.820694
0.819289
0.824862
0.836096
0.849442
0.868209
0.897724
0.913421
0.917489
0.918935
0.923861
0.930437
0.933406
0.920963
0.908306
0.903257
0.900243
0.899111
0.902491
0.915515
0.956679
0.995509
1.01443
1.02612
1.03503
1.04159
1.03412
1.00139
0.974424
0.96624
0.968034
0.974317
0.981819
0.992949
1.03223
1.08534
1.11399
1.12631
1.13567
1.14448
1.14752
1.12796
1.09681
1.07772
1.07201
1.07433
1.08272
1.0994
1.14156
1.18453
1.2116
1.22913
1.24099
1.24679
1.24326
1.21974
1.18298
1.15802
1.15051
1.15527
1.19135
1.24435
3.36556
22.0751
0.698427
0.719484
0.72347
0.727035
0.730512
0.729879
0.726421
0.725479
0.727358
0.729653
0.728065
0.723888
0.72481
0.730581
0.748248
0.768517
0.784121
0.794603
0.800495
0.805052
0.807598
0.79866
0.776584
0.766853
0.76728
0.770948
0.778238
0.801971
0.838083
0.857489
0.86415
0.863685
0.857681
0.853943
0.846659
0.837834
0.83768
0.844345
0.852148
0.854984
0.856347
0.865396
0.891102
0.909673
0.921107
0.932363
0.943487
0.951296
0.950824
0.931632
0.910998
0.898318
0.89343
0.895904
0.901362
0.920074
0.97202
1.01386
1.03032
1.03858
1.0434
1.04479
1.03765
1.00855
0.983824
0.976936
0.97804
0.980612
0.986119
0.996816
1.03242
1.08611
1.11967
1.13538
1.14448
1.15175
1.15478
1.1395
1.10911
1.0859
1.07588
1.07549
1.08257
1.10119
1.14733
1.19085
1.2167
1.23246
1.24272
1.24602
1.23993
1.21529
1.17591
1.1463
1.1357
1.14214
1.20251
3.41772
22.1468
0.686608
0.713677
0.726372
0.733781
0.738216
0.741929
0.74187
0.73702
0.732382
0.726456
0.720969
0.720182
0.722892
0.727173
0.739232
0.767752
0.790318
0.799948
0.804623
0.805426
0.802205
0.795451
0.781278
0.771768
0.773442
0.78098
0.791491
0.801906
0.825102
0.845118
0.851505
0.851
0.852853
0.859064
0.865364
0.867041
0.86136
0.858363
0.855721
0.848481
0.842844
0.844992
0.860858
0.896334
0.926512
0.946509
0.957819
0.963868
0.967378
0.955212
0.920648
0.897334
0.892945
0.895973
0.900876
0.907748
0.933419
0.987376
1.02234
1.03564
1.0428
1.0485
1.05219
1.04662
1.01901
0.993587
0.984126
0.984639
0.988974
0.993125
1.00003
1.02791
1.08229
1.11913
1.13647
1.14864
1.15932
1.16419
1.14864
1.11363
1.0849
1.07436
1.07605
1.08394
1.10638
1.15662
1.19896
1.22107
1.23208
1.2399
1.24173
1.2359
1.21177
1.16887
1.13319
1.11407
1.14733
3.42456
22.1943
0.678109
0.707727
0.732258
0.740892
0.745654
0.74932
0.751539
0.748566
0.738306
0.728514
0.723947
0.724211
0.727853
0.734205
0.741727
0.761405
0.788205
0.799753
0.802179
0.800681
0.801483
0.801002
0.794212
0.788611
0.790606
0.796197
0.798378
0.797394
0.799241
0.816743
0.838084
0.84944
0.860062
0.872709
0.884365
0.89049
0.887162
0.870038
0.849124
0.834701
0.832338
0.83617
0.843852
0.874149
0.92623
0.954433
0.96458
0.970829
0.974442
0.96835
0.942581
0.910351
0.89887
0.90008
0.905777
0.915268
0.924551
0.942832
0.987799
1.0222
1.03761
1.0452
1.05045
1.0587
1.0623
1.04031
1.01157
0.998267
0.992302
0.987697
0.990857
0.999452
1.03089
1.08942
1.13034
1.14926
1.15912
1.1655
1.1651
1.14738
1.11493
1.09031
1.08205
1.08331
1.08995
1.11118
1.1586
1.19745
1.21774
1.22863
1.23615
1.23978
1.23521
1.21026
1.1623
1.11487
1.09578
3.37353
22.2249
0.680687
0.702233
0.729274
0.743339
0.748705
0.749158
0.746059
0.746232
0.746855
0.740191
0.73378
0.73483
0.739978
0.741647
0.74257
0.747403
0.768856
0.787076
0.793593
0.800074
0.808083
0.814964
0.818669
0.813173
0.806143
0.800876
0.791062
0.783921
0.784857
0.792876
0.820766
0.85325
0.877028
0.891626
0.898085
0.901798
0.902043
0.881745
0.846085
0.832263
0.832363
0.836503
0.843483
0.861439
0.908143
0.95074
0.964731
0.96821
0.96231
0.959687
0.959538
0.946632
0.926918
0.919192
0.92054
0.923426
0.922889
0.923546
0.933522
0.973705
1.01608
1.03934
1.05709
1.07048
1.07843
1.07852
1.05249
1.01313
0.991586
0.988319
0.992368
1.00055
1.01183
1.0444
1.09951
1.13373
1.14802
1.15592
1.1623
1.16517
1.15473
1.12608
1.09968
1.08628
1.08262
1.08606
1.10462
1.15302
1.1961
1.218
1.22935
1.23731
1.23942
1.23307
1.20471
1.14214
1.0773
3.27397
22.2544
0.696311
0.703023
0.712911
0.730281
0.737476
0.738408
0.741091
0.749065
0.755746
0.760444
0.756359
0.749611
0.745148
0.739409
0.734071
0.734022
0.743502
0.772101
0.794918
0.810854
0.824047
0.832223
0.836556
0.834039
0.817218
0.793318
0.778556
0.776528
0.780059
0.785208
0.801025
0.849616
0.886364
0.899271
0.90533
0.908044
0.899319
0.879935
0.855373
0.839762
0.840229
0.84836
0.861687
0.870598
0.882879
0.913689
0.939935
0.950254
0.955985
0.964119
0.973727
0.982035
0.97504
0.95168
0.935404
0.925264
0.914259
0.910736
0.913739
0.926637
0.978115
1.03745
1.06444
1.07489
1.08033
1.08429
1.08223
1.05247
1.01631
1.00334
1.00551
1.01316
1.02095
1.02652
1.04897
1.09623
1.12801
1.14552
1.15996
1.17085
1.17609
1.16575
1.13204
1.09752
1.0795
1.07581
1.07847
1.09894
1.15453
1.20024
1.22006
1.22861
1.23363
1.23316
1.22581
1.18434
1.10807
3.15797
22.3173
0.706902
0.700459
0.695873
0.702903
0.721257
0.735423
0.747068
0.759087
0.771057
0.778337
0.780025
0.763492
0.739425
0.725734
0.723966
0.726946
0.732862
0.75565
0.800155
0.829275
0.840946
0.845887
0.847685
0.84536
0.823868
0.792023
0.779653
0.779482
0.783006
0.791722
0.808785
0.840745
0.882198
0.898788
0.902244
0.89563
0.890962
0.88992
0.881562
0.869592
0.865014
0.867266
0.869832
0.869116
0.86672
0.870584
0.896003
0.933052
0.961099
0.981845
0.995442
1.00311
1.00628
0.989703
0.950552
0.921292
0.911067
0.910406
0.914407
0.923133
0.942749
0.994253
1.04639
1.06802
1.07534
1.07601
1.07766
1.0799
1.0656
1.04081
1.02668
1.02162
1.01808
1.0165
1.02286
1.04813
1.09716
1.13518
1.15673
1.16813
1.17506
1.17807
1.16463
1.12822
1.09192
1.07467
1.07075
1.07483
1.0995
1.15357
1.19734
1.21621
1.22379
1.22501
1.22601
1.20987
1.16403
3.09194
22.4127
0.704569
0.684902
0.681436
0.683734
0.701223
0.736958
0.764132
0.778706
0.784726
0.788175
0.788716
0.76886
0.733092
0.721251
0.722577
0.72644
0.73225
0.750453
0.800352
0.835501
0.845373
0.84989
0.848755
0.836294
0.820106
0.801028
0.789413
0.791078
0.800542
0.813472
0.819631
0.825851
0.848437
0.873601
0.882879
0.887029
0.894395
0.903285
0.911168
0.909636
0.89483
0.878841
0.864865
0.853402
0.850942
0.853894
0.862257
0.900165
0.958592
0.990266
1.0022
1.00924
1.01324
1.00871
0.983299
0.940032
0.918765
0.916307
0.923334
0.93853
0.948743
0.957236
0.987882
1.03235
1.0569
1.06754
1.07663
1.08964
1.09788
1.08883
1.06063
1.03345
1.01691
1.01239
1.01523
1.02303
1.05126
1.10598
1.14309
1.15951
1.16801
1.17389
1.17423
1.1619
1.1291
1.09299
1.07466
1.06975
1.07183
1.09199
1.14627
1.19134
1.20968
1.21512
1.2185
1.21502
1.20774
3.09646
22.5191
0.689247
0.672979
0.675976
0.680808
0.694637
0.740811
0.781049
0.792604
0.797209
0.796885
0.783455
0.754385
0.73278
0.725326
0.726393
0.732042
0.748395
0.77018
0.797397
0.827206
0.83915
0.839225
0.830299
0.827066
0.827699
0.823051
0.81654
0.815103
0.818556
0.820841
0.817926
0.812903
0.813728
0.832302
0.864717
0.891271
0.912486
0.925607
0.931915
0.934178
0.921879
0.887818
0.858668
0.848253
0.84897
0.852966
0.860918
0.881984
0.929389
0.979293
0.999921
1.00698
1.0014
0.992815
0.990034
0.977894
0.953204
0.94148
0.942441
0.946854
0.947844
0.9429
0.945901
0.971103
1.02221
1.05947
1.07977
1.09233
1.10171
1.1078
1.1012
1.06915
1.03333
1.01653
1.01408
1.01794
1.02662
1.05865
1.11069
1.14276
1.15728
1.16571
1.17225
1.17433
1.16735
1.13529
1.09417
1.06994
1.06223
1.06345
1.08249
1.13939
1.18603
1.20431
1.21098
1.2089
1.23156
3.16051
22.6506
0.67772
0.669366
0.67239
0.679581
0.705414
0.757871
0.786876
0.796605
0.800161
0.791103
0.770689
0.75343
0.740116
0.737236
0.743024
0.760013
0.775258
0.780952
0.784327
0.793524
0.810873
0.819767
0.823685
0.830434
0.840019
0.850071
0.852472
0.843043
0.829247
0.814361
0.800756
0.797155
0.799766
0.807043
0.838188
0.892568
0.923412
0.934003
0.940045
0.94273
0.934079
0.906774
0.870152
0.853784
0.853548
0.860554
0.880409
0.897099
0.907188
0.930595
0.962578
0.979215
0.98559
0.990906
0.997249
1.00477
1.00576
0.987021
0.965539
0.951305
0.940854
0.932007
0.930039
0.936502
0.963441
1.023
1.06884
1.08978
1.10052
1.10793
1.11186
1.10337
1.06901
1.03452
1.02019
1.01875
1.02276
1.03037
1.05989
1.11146
1.14575
1.16165
1.17116
1.17808
1.17871
1.17207
1.13813
1.09128
1.06283
1.05455
1.05611
1.07552
1.13286
1.17868
1.19831
1.19926
1.2368
3.26601
22.7996
0.675797
0.671621
0.675586
0.694502
0.728222
0.760798
0.783374
0.790827
0.78432
0.769434
0.76371
0.762498
0.760035
0.762837
0.770869
0.77819
0.781947
0.777952
0.765695
0.762311
0.773394
0.800945
0.82609
0.84754
0.863421
0.870751
0.873315
0.865322
0.836225
0.80391
0.792039
0.792864
0.796979
0.803899
0.824869
0.875254
0.919924
0.934596
0.938196
0.928329
0.916144
0.911549
0.90095
0.88548
0.881606
0.887412
0.895268
0.899419
0.895729
0.890824
0.902526
0.941047
0.977125
0.99781
1.01366
1.02849
1.03664
1.03416
1.00563
0.96855
0.941816
0.930502
0.929699
0.934859
0.943117
0.971318
1.03706
1.08232
1.0982
1.10413
1.10771
1.11056
1.10471
1.07657
1.04652
1.03013
1.02509
1.02643
1.03318
1.06031
1.11248
1.14817
1.16356
1.17156
1.17562
1.17823
1.173
1.13801
1.08988
1.06069
1.05054
1.04848
1.06584
1.12444
1.16949
1.18177
1.2289
3.38672
22.9453
0.680992
0.681865
0.702194
0.726643
0.740223
0.749791
0.758133
0.76141
0.762274
0.764563
0.768574
0.776006
0.789488
0.796883
0.796984
0.79153
0.776417
0.754738
0.746692
0.74862
0.754974
0.777642
0.826573
0.863915
0.87792
0.883517
0.884858
0.87602
0.8441
0.808461
0.795365
0.796404
0.803424
0.823181
0.844377
0.859646
0.882598
0.903044
0.910108
0.91205
0.915806
0.920698
0.930076
0.936638
0.929381
0.915646
0.90377
0.889235
0.874327
0.869096
0.872652
0.890537
0.943487
0.997539
1.0277
1.04156
1.04861
1.05142
1.04513
1.00772
0.961896
0.94124
0.939527
0.947188
0.957055
0.967315
0.988244
1.04087
1.07849
1.09289
1.10081
1.10817
1.11601
1.1171
1.09492
1.06057
1.03688
1.02888
1.0284
1.03166
1.05618
1.10967
1.1466
1.16304
1.17326
1.1774
1.17895
1.17336
1.13892
1.08953
1.05425
1.04047
1.03859
1.05779
1.11719
1.15323
1.2112
3.50519
23.074
0.701739
0.713941
0.730417
0.737477
0.739355
0.731036
0.722442
0.726713
0.743038
0.763751
0.784679
0.804934
0.815353
0.817898
0.814907
0.798291
0.758928
0.739178
0.738203
0.741966
0.748636
0.766728
0.821583
0.867207
0.880691
0.884413
0.875143
0.856811
0.844097
0.830678
0.82024
0.822166
0.8327
0.844018
0.849174
0.847142
0.840231
0.846559
0.87285
0.902047
0.92407
0.946284
0.962725
0.971088
0.970761
0.947171
0.908978
0.879141
0.865847
0.86474
0.868756
0.876663
0.901888
0.968928
1.02435
1.04293
1.0474
1.04469
1.03882
1.0306
1.00899
0.981821
0.968303
0.96588
0.965961
0.964567
0.965636
0.980566
1.02853
1.06979
1.09279
1.11036
1.12329
1.13117
1.13132
1.10397
1.06009
1.03222
1.02255
1.02165
1.02609
1.05646
1.11466
1.15347
1.16901
1.17441
1.17616
1.17775
1.17021
1.13635
1.0892
1.05197
1.03404
1.02956
1.05157
1.10386
1.17597
3.61372
23.1717
0.734165
0.745359
0.74789
0.743567
0.721973
0.703796
0.701639
0.707315
0.722873
0.760306
0.805433
0.827951
0.834846
0.835344
0.825529
0.787302
0.753379
0.741273
0.741091
0.745411
0.76083
0.787694
0.816285
0.847052
0.862679
0.8621
0.854089
0.850072
0.853016
0.859519
0.866804
0.867386
0.863208
0.856974
0.842509
0.822133
0.813982
0.816857
0.830833
0.875252
0.931996
0.967386
0.982855
0.990018
0.990838
0.977074
0.932232
0.886501
0.869712
0.868309
0.877253
0.897871
0.914869
0.932742
0.975407
1.01252
1.02545
1.02922
1.03362
1.03989
1.0466
1.03772
1.01056
0.986604
0.97033
0.958252
0.953576
0.957048
0.972564
1.02567
1.08377
1.11272
1.12314
1.13018
1.1338
1.12626
1.09883
1.0557
1.02735
1.01963
1.02358
1.03443
1.06042
1.11319
1.1501
1.1644
1.16691
1.16822
1.17003
1.16267
1.14016
1.09502
1.04917
1.02506
1.01997
1.03512
1.1225
3.68843
23.232
0.761211
0.764686
0.75941
0.735375
0.703859
0.693536
0.694568
0.698503
0.709421
0.755135
0.812697
0.832068
0.838408
0.836275
0.812359
0.785384
0.763958
0.754189
0.756803
0.769994
0.791175
0.803038
0.807347
0.809779
0.816614
0.829351
0.841288
0.854023
0.874908
0.894352
0.903325
0.904502
0.89337
0.863534
0.825517
0.804844
0.80209
0.805159
0.81235
0.840614
0.915525
0.969706
0.986654
0.991526
0.981368
0.961909
0.944436
0.91962
0.898954
0.895694
0.904715
0.913621
0.918137
0.917007
0.91895
0.949205
0.993588
1.02021
1.03737
1.05408
1.06521
1.06936
1.05745
1.02114
0.980966
0.958153
0.953526
0.956298
0.961494
0.978301
1.03984
1.09396
1.11387
1.12167
1.12268
1.12093
1.12052
1.10466
1.06589
1.03887
1.03067
1.0314
1.0321
1.05106
1.1011
1.13843
1.15341
1.15967
1.16547
1.17088
1.16197
1.141
1.09529
1.04453
1.01577
0.996848
1.05287
3.70184
23.2646
0.780001
0.780335
0.75464
0.720339
0.698147
0.694815
0.696841
0.701754
0.722371
0.761966
0.801858
0.82286
0.825552
0.811219
0.796146
0.79223
0.789107
0.788555
0.793049
0.799564
0.80478
0.805756
0.793082
0.77849
0.777803
0.790652
0.821464
0.864243
0.902481
0.92189
0.928836
0.931384
0.921358
0.87635
0.824014
0.80524
0.803263
0.807243
0.825343
0.85508
0.886644
0.931225
0.959421
0.965363
0.960521
0.95755
0.959216
0.95967
0.953146
0.941478
0.931426
0.922952
0.911779
0.898772
0.895896
0.902994
0.936012
0.993017
1.03662
1.05813
1.06734
1.07213
1.07229
1.05631
1.01387
0.977019
0.962741
0.962615
0.967641
0.975132
0.992067
1.03674
1.08133
1.10361
1.11366
1.12082
1.12615
1.13224
1.12156
1.08045
1.04322
1.02553
1.02372
1.02518
1.04134
1.09265
1.13749
1.15624
1.16275
1.16763
1.16686
1.15576
1.13782
1.09158
1.04015
0.998198
0.991404
3.62937
23.283
0.790835
0.79519
0.758295
0.718121
0.701542
0.699785
0.705289
0.725336
0.747799
0.761571
0.773775
0.785772
0.792975
0.796076
0.799136
0.803672
0.817606
0.832035
0.836538
0.831379
0.816371
0.79213
0.768001
0.758871
0.760462
0.766145
0.790084
0.858025
0.910777
0.928425
0.935259
0.93814
0.921515
0.882795
0.845029
0.822419
0.818756
0.828628
0.850614
0.862721
0.867289
0.872943
0.893841
0.924609
0.945624
0.957939
0.973491
0.991094
0.998902
0.990445
0.964396
0.933321
0.905505
0.892804
0.892945
0.898213
0.907197
0.9434
1.01265
1.05048
1.06128
1.06399
1.05934
1.05321
1.04502
1.02062
0.99284
0.978834
0.974446
0.972911
0.973806
0.982298
1.02209
1.07671
1.11079
1.12619
1.13616
1.14383
1.14714
1.13327
1.08565
1.04198
1.02365
1.02
1.02205
1.03964
1.09212
1.13671
1.15501
1.16053
1.16213
1.15457
1.14895
1.13304
1.08676
1.02384
0.979666
3.49191
23.3119
0.784703
0.778605
0.750711
0.729861
0.718642
0.72056
0.733107
0.748575
0.755969
0.757456
0.7473
0.741787
0.751346
0.776446
0.802564
0.828165
0.852306
0.863593
0.866338
0.859894
0.825878
0.777821
0.753767
0.750562
0.753284
0.759362
0.778565
0.83563
0.901128
0.925931
0.932593
0.921194
0.897706
0.887995
0.877993
0.863316
0.856035
0.859321
0.865077
0.866601
0.853792
0.840712
0.843505
0.868633
0.917258
0.961029
0.991898
1.01155
1.02008
1.02241
1.00848
0.962345
0.916317
0.898812
0.898688
0.906003
0.918529
0.93521
0.966237
1.01295
1.03776
1.04575
1.05
1.05548
1.06027
1.06062
1.04485
1.01459
0.987327
0.973132
0.969403
0.970075
0.976086
1.01415
1.07947
1.12126
1.13799