/*--------------------------------*- C++ -*----------------------------------*\
  =========                 |
  \\      /  F ield         | OpenFOAM: The Open Source CFD Toolbox
   \\    /   O peration     | Website:  https://openfoam.org
    \\  /    A nd           | Version:  12
     \\/     M anipulation  |
\*---------------------------------------------------------------------------*/
FoamFile
{
    format      ascii;
    class       volScalarField;
    location    "25.4";
    object      p;
}
// * * * * * * * * * * * * * * * * * * * * * * * * * * * * * * * * * * * * * //

dimensions      [1 -1 -2 0 0 0 0];

internalField   nonuniform List<scalar> 
9801
(
0.671896
0.690676
0.697042
0.701948
0.704171
0.702206
0.698224
0.698678
0.701404
0.705463
0.715472
0.736658
0.755346
0.765047
0.770908
0.774283
0.77567
0.771913
0.764494
0.764214
0.76784
0.773322
0.781095
0.792925
0.815061
0.838624
0.850714
0.856607
0.860385
0.861829
0.851873
0.828691
0.817601
0.818477
0.822286
0.827393
0.836268
0.858525
0.889796
0.90932
0.918708
0.924654
0.929389
0.932512
0.920334
0.897713
0.890658
0.893396
0.898583
0.905382
0.923472
0.957615
0.981567
0.993996
1.00202
1.00824
1.01443
1.00657
0.984994
0.97872
0.982809
0.989673
1.00294
1.03558
1.06826
1.08833
1.10226
1.11313
1.12345
1.12501
1.1018
1.09153
1.09788
1.10979
1.13166
1.17834
1.22179
1.24685
1.26352
1.27791
1.29089
1.283
1.243
1.22737
1.23987
1.26311
1.32104
1.4078
1.46788
1.50715
1.54195
1.57102
1.5706
1.5395
1.52144
1.53725
1.61717
4.3621
26.7621
0.686154
0.698955
0.703822
0.705342
0.702437
0.701298
0.703474
0.706727
0.711612
0.719689
0.732124
0.748518
0.762321
0.769724
0.773635
0.774402
0.773574
0.773904
0.774237
0.77659
0.781079
0.786307
0.791952
0.799324
0.818866
0.841768
0.853012
0.858227
0.860586
0.860317
0.855127
0.840026
0.828661
0.829062
0.833102
0.837791
0.845148
0.866152
0.897695
0.916576
0.925159
0.93046
0.934346
0.935328
0.921252
0.902238
0.89784
0.90124
0.906403
0.912707
0.931029
0.966932
0.991828
1.00435
1.01224
1.01849
1.02399
1.01492
0.992863
0.985797
0.989232
0.995809
1.00821
1.04305
1.0801
1.10076
1.11374
1.12376
1.13315
1.13293
1.10911
1.09664
1.10137
1.11206
1.12799
1.16913
1.21594
1.24484
1.26434
1.28091
1.2957
1.28926
1.2493
1.23196
1.24189
1.2629
1.30372
1.38124
1.44685
1.49151
1.53019
1.56648
1.57234
1.54414
1.51785
1.51804
1.50126
3.9485
27.0325
0.694597
0.699655
0.700142
0.69656
0.698186
0.702304
0.707374
0.714608
0.723045
0.732141
0.743291
0.754606
0.761534
0.764779
0.765151
0.767684
0.773375
0.778695
0.783589
0.787265
0.79033
0.793502
0.797563
0.802487
0.8147
0.832597
0.843135
0.849043
0.853428
0.857388
0.859991
0.851925
0.839883
0.838196
0.841643
0.846656
0.852977
0.87057
0.899435
0.915752
0.92246
0.926268
0.928988
0.929542
0.92003
0.907132
0.904311
0.908138
0.913929
0.920593
0.938558
0.974723
0.99989
1.01204
1.01976
1.02634
1.03201
1.02214
0.999035
0.991612
0.995373
1.00249
1.01407
1.04919
1.09157
1.11266
1.12344
1.1316
1.13906
1.13822
1.11486
1.09813
1.09952
1.10951
1.12276
1.15778
1.21248
1.24639
1.26487
1.27938
1.29318
1.29426
1.26136
1.23615
1.23838
1.25807
1.28597
1.3514
1.43722
1.49499
1.53497
1.57367
1.58825
1.5668
1.54488
1.54554
1.50707
3.74041
27.0974
0.711583
0.705432
0.695963
0.697404
0.701183
0.707461
0.718195
0.727894
0.734539
0.741214
0.748896
0.753722
0.755299
0.75663
0.762351
0.772741
0.782388
0.789238
0.794414
0.797943
0.799236
0.798808
0.797193
0.797886
0.803406
0.821684
0.838551
0.847933
0.854494
0.859892
0.863984
0.858679
0.846895
0.845635
0.849222
0.85417
0.859635
0.871162
0.894682
0.911374
0.91952
0.925157
0.93007
0.934105
0.930153
0.920053
0.916819
0.91968
0.925052
0.931232
0.94474
0.98018
1.0089
1.02248
1.03084
1.03819
1.0437
1.03206
1.00759
1.00053
1.00561
1.01354
1.02459
1.05469
1.09716
1.11933
1.13005
1.13822
1.14599
1.14764
1.12642
1.10433
1.10224
1.11112
1.12329
1.14568
1.19939
1.24248
1.26432
1.28065
1.29672
1.3081
1.28565
1.24776
1.23466
1.24888
1.2749
1.31661
1.3935
1.46485
1.51397
1.55679
1.58891
1.58323
1.55876
1.54246
1.48029
3.59295
27.1887
0.710649
0.704407
0.704008
0.706876
0.71197
0.721246
0.731096
0.737353
0.742617
0.743607
0.742026
0.743735
0.749917
0.759785
0.771848
0.783636
0.792859
0.799554
0.805199
0.808363
0.801352
0.792747
0.791215
0.793824
0.799073
0.81657
0.837729
0.848823
0.855226
0.859719
0.863268
0.863905
0.858099
0.856943
0.859772
0.863367
0.867001
0.871897
0.888655
0.910394
0.922878
0.93101
0.937743
0.944022
0.94557
0.933299
0.924359
0.92528
0.93042
0.936813
0.947331
0.980307
1.01514
1.03124
1.0399
1.04712
1.05078
1.03919
1.01571
1.00801
1.01289
1.02103
1.03057
1.05238
1.09381
1.12164
1.13491
1.14415
1.15264
1.15819
1.14373
1.11328
1.10097
1.10617
1.11757
1.1341
1.18005
1.23754
1.2685
1.28662
1.30269
1.3164
1.30598
1.26807
1.24234
1.23986
1.26092
1.29218
1.3482
1.42697
1.49235
1.54218
1.58681
1.60927
1.59328
1.56493
1.46136
3.50951
27.2974
0.709914
0.712213
0.720795
0.729365
0.735704
0.739638
0.742809
0.742251
0.734784
0.730101
0.73162
0.737988
0.754137
0.773388
0.787543
0.796657
0.803416
0.80866
0.812482
0.805998
0.79235
0.787853
0.789744
0.79397
0.799972
0.814934
0.83592
0.848368
0.855508
0.860807
0.865682
0.870414
0.87001
0.867546
0.86773
0.86833
0.870088
0.873918
0.883939
0.909679
0.929994
0.940802
0.94797
0.954229
0.957923
0.94616
0.931393
0.931317
0.937317
0.944365
0.953751
0.981395
1.01879
1.037
1.04541
1.05066
1.05332
1.0473
1.02774
1.01574
1.01868
1.02678
1.03594
1.04946
1.08481
1.11921
1.13622
1.147
1.15683
1.16603
1.1644
1.1327
1.10498
1.10081
1.11108
1.1257
1.15852
1.22256
1.2702
1.29392
1.31022
1.32518
1.32307
1.29029
1.26158
1.25214
1.2581
1.27822
1.31142
1.37039
1.44029
1.49817
1.54626
1.5876
1.59887
1.58226
1.4888
3.42781
27.4343
0.710567
0.730445
0.743692
0.752422
0.7573
0.758853
0.75256
0.733072
0.720787
0.721152
0.726286
0.736991
0.761858
0.789592
0.804005
0.810481
0.814744
0.817119
0.811264
0.796248
0.787791
0.788379
0.792001
0.796787
0.803127
0.815541
0.833888
0.847258
0.856497
0.864267
0.870658
0.876104
0.878469
0.874073
0.871348
0.871432
0.873672
0.877898
0.884426
0.90664
0.933716
0.947193
0.954517
0.960117
0.963849
0.957959
0.943512
0.940158
0.945732
0.953168
0.961436
0.979707
1.01149
1.03146
1.04075
1.04707
1.05308
1.05573
1.04318
1.02632
1.02123
1.02613
1.03417
1.04371
1.06817
1.10955
1.13492
1.14781
1.15788
1.16728
1.17376
1.15327
1.11741
1.10418
1.10871
1.12083
1.14027
1.19231
1.2576
1.294
1.31369
1.32989
1.33828
1.3219
1.2912
1.27164
1.26579
1.27355
1.29281
1.32634
1.3846
1.4472
1.49848
1.54129
1.56907
1.57046
1.51801
3.41063
27.6053
0.715499
0.754958
0.76668
0.772197
0.775507
0.77475
0.752598
0.723989
0.717543
0.719751
0.723761
0.73425
0.766759
0.801091
0.814603
0.820144
0.822226
0.817823
0.8075
0.795883
0.78863
0.788382
0.792293
0.7972
0.803413
0.814467
0.832639
0.848144
0.858617
0.867027
0.873716
0.879142
0.883311
0.878144
0.87183
0.872468
0.876115
0.881089
0.88715
0.904414
0.932956
0.948392
0.955959
0.961433
0.966968
0.969374
0.958138
0.950838
0.953896
0.960168
0.966527
0.974318
0.996514
1.02083
1.03426
1.0439
1.05243
1.05966
1.05931
1.03859
1.0248
1.02292
1.02959
1.03849
1.05335
1.09323
1.13152
1.14931
1.15903
1.1677
1.17549
1.16833
1.13547
1.1155
1.11367
1.12227
1.13502
1.16086
1.22248
1.27887
1.30921
1.32911
1.3468
1.35251
1.33317
1.30322
1.28373
1.2777
1.28422
1.30207
1.33712
1.39638
1.45343
1.49663
1.52405
1.5392
1.52922
3.45448
27.7702
0.720011
0.768907
0.778939
0.784273
0.786543
0.774265
0.74445
0.727402
0.725349
0.727687
0.731714
0.740648
0.768635
0.803373
0.817156
0.821411
0.820053
0.815561
0.811349
0.804564
0.796086
0.792603
0.793184
0.795857
0.799777
0.807819
0.828816
0.85175
0.865256
0.873396
0.879097
0.883788
0.888046
0.884425
0.873465
0.871804
0.875601
0.880881
0.88678
0.899963
0.927002
0.945185
0.95433
0.961968
0.969781
0.976323
0.974147
0.962615
0.95907
0.959993
0.962132
0.966443
0.978615
1.00789
1.02991
1.04219
1.05092
1.05788
1.06345
1.05349
1.03053
1.02324
1.02683
1.03534
1.0461
1.07247
1.11901
1.14741
1.15971
1.1683
1.1768
1.17943
1.1585
1.13236
1.12378
1.12622
1.13556
1.14936
1.18154
1.24244
1.29374
1.32583
1.34726
1.36382
1.36402
1.34749
1.32023
1.29582
1.2845
1.2897
1.30851
1.34894
1.40977
1.45967
1.49024
1.50732
1.52028
3.52485
27.885
0.732513
0.77471
0.784619
0.789852
0.785134
0.761364
0.743188
0.736596
0.735564
0.738404
0.744602
0.754766
0.771888
0.79546
0.809345
0.81414
0.815218
0.816857
0.819093
0.816396
0.806984
0.799055
0.795503
0.795697
0.798661
0.803456
0.820284
0.851996
0.871726
0.880314
0.885869
0.890488
0.894769
0.892161
0.878729
0.87257
0.87393
0.877352
0.882143
0.891343
0.917045
0.941945
0.956015
0.966223
0.974581
0.981194
0.985199
0.974054
0.959635
0.953433
0.954149
0.95909
0.967794
0.995103
1.02625
1.04143
1.04925
1.05507
1.06129
1.06441
1.04603
1.02947
1.0278
1.03499
1.04363
1.0549
1.0899
1.13414
1.157
1.16849
1.1779
1.18705
1.18446
1.1575
1.13864
1.13591
1.14103
1.14902
1.16131
1.19145
1.24945
1.30104
1.3349
1.35778
1.37399
1.37578
1.36346
1.33378
1.30231
1.28831
1.29482
1.31591
1.36059
1.4185
1.45703
1.47784
1.49849
3.60086
27.9778
0.743453
0.773737
0.780737
0.780597
0.766184
0.753912
0.749403
0.748044
0.750075
0.754708
0.760964
0.765333
0.769446
0.781191
0.79684
0.806669
0.813672
0.819496
0.824005
0.827542
0.821065
0.805426
0.797153
0.796123
0.798568
0.80255
0.811727
0.84406
0.874563
0.886795
0.892859
0.897829
0.902479
0.902831
0.888592
0.875413
0.870193
0.87079
0.875203
0.882694
0.905175
0.93943
0.961294
0.973834
0.981458
0.98696
0.991763
0.984791
0.960861
0.94772
0.947033
0.952585
0.960618
0.980776
1.01727
1.03899
1.04834
1.05564
1.06457
1.07211
1.06895
1.04661
1.03568
1.03387
1.03612
1.04195
1.05644
1.10198
1.14663
1.16886
1.18198
1.19344
1.20438
1.1958
1.16734
1.15087
1.1467
1.14784
1.15467
1.16795
1.19913
1.25489
1.30768
1.3436
1.36685
1.38072
1.37899
1.36803
1.33921
1.30801
1.29586
1.30151
1.32037
1.36361
1.41195
1.44022
1.46706
3.68815
28.082
0.750178
0.766589
0.768733
0.76077
0.754582
0.755158
0.75741
0.760478
0.764527
0.768869
0.770894
0.766923
0.764217
0.767989
0.783798
0.802554
0.81505
0.822809
0.827792
0.831984
0.832449
0.816047
0.800647
0.796861
0.798145
0.801626
0.806991
0.831451
0.873022
0.893174
0.901834
0.907718
0.912811
0.914389
0.899971
0.875948
0.864881
0.865538
0.870375
0.87759
0.895543
0.936279
0.96809
0.980939
0.987289
0.991908
0.995075
0.991316
0.968556
0.949812
0.945582
0.948516
0.953774
0.963571
0.996124
1.03183
1.04977
1.06118
1.07175
1.08067
1.08643
1.07087
1.04405
1.03055
1.02521
1.02901
1.03824
1.06384
1.12062
1.16405
1.18664
1.20283
1.21571
1.22373
1.20538
1.17385
1.15627
1.15268
1.15692
1.16475
1.17675
1.20221
1.25374
1.30612
1.34186
1.36507
1.37983
1.37882
1.36914
1.34435
1.31576
1.30135
1.30269
1.31539
1.35362
1.3918
1.42725
3.78659
28.1844
0.751153
0.758879
0.752908
0.750147
0.753805
0.759887
0.76578
0.770861
0.774612
0.777034
0.771117
0.759767
0.758134
0.761482
0.776784
0.802577
0.818564
0.826696
0.832145
0.836636
0.840176
0.828518
0.804951
0.796329
0.797433
0.800882
0.805999
0.824811
0.870745
0.900774
0.911221
0.917289
0.921264
0.922333
0.908054
0.878207
0.866398
0.867709
0.872345
0.879153
0.892216
0.928443
0.968218
0.98451
0.991207
0.994826
0.997637
0.998008
0.982988
0.959453
0.948677
0.944551
0.945333
0.951285
0.969401
1.01486
1.05131
1.07011
1.08176
1.08976
1.09613
1.09139
1.05672
1.0295
1.02172
1.02297
1.03039
1.04171
1.07591
1.13901
1.18266
1.20275
1.21478
1.22672
1.23339
1.21832
1.19025
1.17173
1.16527
1.16438
1.16762
1.17813
1.20329
1.255
1.30554
1.34005
1.36401
1.38102
1.38249
1.37296
1.34719
1.31518
1.29474
1.29101
1.29997
1.33508
1.38304
3.88797
28.2852
0.744822
0.747163
0.742707
0.746594
0.757886
0.767305
0.774157
0.77867
0.780906
0.775891
0.761134
0.753439
0.754371
0.758283
0.774051
0.804996
0.823481
0.832199
0.837983
0.843052
0.84722
0.836176
0.80669
0.797124
0.799007
0.803249
0.810516
0.828647
0.871082
0.904756
0.916846
0.921884
0.920609
0.914567
0.90608
0.888372
0.874277
0.874371
0.881217
0.8907
0.897823
0.915468
0.955995
0.981183
0.99024
0.995244
0.999382
1.00318
0.999911
0.971937
0.946905
0.937832
0.9395
0.946003
0.955609
0.989338
1.04504
1.07706
1.0901
1.097
1.10059
1.10078
1.08174
1.04486
1.02783
1.02646
1.0312
1.03809
1.04818
1.08464
1.14986
1.19121
1.21236
1.22981
1.24414
1.25036
1.23427
1.20111
1.17452
1.16242
1.1623
1.16845
1.18087
1.2121
1.26514
1.3124
1.34495
1.3682
1.38333
1.38271
1.36981
1.34372
1.30692
1.27905
1.27127
1.28092
1.33023
3.97788
28.3963
0.73283
0.737194
0.741333
0.751786
0.764851
0.775199
0.780781
0.784536
0.783264
0.766847
0.753131
0.751715
0.754841
0.759472
0.776336
0.810206
0.831935
0.841042
0.846659
0.851053
0.850955
0.832799
0.809988
0.80238
0.804246
0.810279
0.824503
0.845571
0.873484
0.900926
0.913467
0.914972
0.909434
0.910328
0.914014
0.908311
0.894574
0.890818
0.894631
0.898671
0.902069
0.907587
0.933954
0.972154
0.988922
0.996053
1.00056
1.00371
1.00277
0.98298
0.95007
0.939858
0.942419
0.948787
0.95765
0.973352
1.0221
1.07168
1.08971
1.09587
1.10046
1.10754
1.11008
1.08497
1.05295
1.03993
1.0366
1.03792
1.04368
1.05342
1.09307
1.16416
1.21241
1.23323
1.24556
1.25429
1.25512
1.23998
1.20737
1.17703
1.16396
1.16472
1.17472
1.19214
1.22785
1.28185
1.32447
1.34983
1.36672
1.37698
1.37609
1.36679
1.3386
1.29426
1.26286
1.24733
1.26342
4.02011
28.5049
0.715815
0.725763
0.745988
0.763699
0.775341
0.782041
0.786607
0.790486
0.783924
0.759314
0.749178
0.750429
0.754038
0.760469
0.781714
0.820733
0.842137
0.850138
0.854588
0.85454
0.844091
0.830415
0.818814
0.814918
0.819039
0.83324
0.847482
0.854267
0.864975
0.883042
0.895371
0.900017
0.903582
0.912951
0.9234
0.930229
0.924448
0.907956
0.901435
0.899711
0.900516
0.9046
0.916767
0.956084
0.985899
0.99634
1.00059
1.00122
1.00042
0.993314
0.968339
0.95153
0.952489
0.961092
0.97122
0.979372
0.994479
1.04178
1.08091
1.0974
1.10853
1.11791
1.12578
1.12463
1.09293
1.05851
1.04443
1.04455
1.0507
1.05826
1.06857
1.10212
1.16861
1.21617
1.23742
1.24954
1.25662
1.25686
1.2456
1.2154
1.18547
1.17315
1.17585
1.1867
1.20419
1.24168
1.29345
1.32908
1.34913
1.36283
1.37319
1.37234
1.3634
1.32808
1.27833
1.23963
1.20609
3.9933
28.6061
0.702371
0.71295
0.747404
0.775181
0.787259
0.792841
0.797058
0.798507
0.781536
0.756812
0.751065
0.752863
0.756116
0.764256
0.792067
0.82843
0.847551
0.854927
0.855133
0.844455
0.838685
0.837318
0.834924
0.836906
0.845397
0.856116
0.861442
0.858247
0.8535
0.857912
0.87872
0.898752
0.912149
0.92609
0.940361
0.948556
0.950628
0.929391
0.90528
0.897097
0.898103
0.902782
0.910434
0.936255
0.975131
0.992908
0.998119
0.99801
1.00002
1.00381
0.998973
0.980831
0.972955
0.97537
0.979242
0.981798
0.986297
1.00171
1.05065
1.09559
1.11714
1.12852
1.13738
1.14369
1.13505
1.09663
1.06628
1.05758
1.05855
1.06223
1.06737
1.07789
1.1072
1.16553
1.21351
1.23782
1.25074
1.25664
1.26146
1.25925
1.23394
1.20222
1.18614
1.18633
1.1952
1.21082
1.24916
1.29763
1.32875
1.34693
1.36148
1.36809
1.36657
1.35322
1.30887
1.24909
1.18639
3.89448
28.6931
0.694428
0.702724
0.744618
0.784333
0.798753
0.804723
0.808125
0.802864
0.777986
0.759982
0.755589
0.758364
0.768067
0.786405
0.804404
0.823662
0.839215
0.844283
0.839656
0.835626
0.839569
0.846949
0.859389
0.868815
0.870108
0.867951
0.861481
0.848659
0.84237
0.845475
0.861899
0.899638
0.929283
0.947155
0.955894
0.96098
0.964142
0.949373
0.912587
0.898685
0.900172
0.905925
0.912997
0.923826
0.952736
0.983638
0.996813
1.00223
1.0066
1.01401
1.02226
1.01924
0.999631
0.987486
0.983084
0.980837
0.982807
0.989111
1.01008
1.06858
1.11678
1.13563
1.14328
1.14981
1.15279
1.13646
1.10409
1.08195
1.07455
1.07587
1.08124
1.08397
1.08664
1.10064
1.15164
1.20857
1.24062
1.25896
1.27153
1.27742
1.27354
1.24636
1.20943
1.1912
1.19202
1.20084
1.21475
1.2516
1.2976
1.32643
1.3435
1.35507
1.3571
1.35589
1.3352
1.27756
1.19459
3.75471
28.7723
0.692762
0.701485
0.742532
0.788991
0.804451
0.809806
0.809334
0.794627
0.779609
0.770222
0.769833
0.77711
0.792725
0.802416
0.805449
0.805498
0.808806
0.82242
0.833049
0.839572
0.848838
0.870279
0.888946
0.896725
0.894579
0.873227
0.848647
0.837374
0.837745
0.842774
0.853831
0.895937
0.94343
0.960426
0.966985
0.969291
0.964565
0.949539
0.924619
0.907923
0.907241
0.913545
0.920861
0.924536
0.930887
0.957448
0.990289
1.00701
1.01725
1.02849
1.0372
1.04179
1.03162
1.00704
0.990268
0.983372
0.985754
0.994465
1.00308
1.02378
1.08178
1.12393
1.13869
1.14548
1.14929
1.15447
1.15353
1.13759
1.11707
1.10327
1.0937
1.08322
1.07728
1.08038
1.09738
1.15618
1.21967
1.25271
1.26912
1.27741
1.28017
1.27465
1.2477
1.2171
1.20229
1.1989
1.2026
1.21387
1.24756
1.29051
1.31873
1.33772
1.34497
1.34666
1.34354
1.30667
1.23246
3.62122
28.8669
0.696613
0.7146
0.754649
0.786591
0.801736
0.805487
0.795864
0.788559
0.788845
0.78944
0.793142
0.800432
0.807245
0.809202
0.796782
0.7825
0.781875
0.795216
0.825147
0.851831
0.878174
0.897315
0.906011
0.910548
0.907507
0.875034
0.841379
0.834593
0.836915
0.842365
0.857814
0.90033
0.944609
0.96367
0.969167
0.963805
0.956586
0.954025
0.945794
0.930949
0.924786
0.926497
0.927417
0.924401
0.924423
0.932554
0.965752
1.00343
1.02523
1.03838
1.04634
1.05288
1.05682
1.04031
1.0112
0.99871
1.0002
1.00378
1.00428
1.00765
1.02272
1.07006
1.11083
1.13213
1.1504
1.16925
1.18113
1.185
1.16892
1.13383
1.10058
1.08309
1.07854
1.08085
1.08838
1.11006
1.16887
1.22534
1.25336
1.26576
1.27325
1.2782
1.27595
1.25958
1.23289
1.20895
1.19665
1.19357
1.20374
1.23824
1.28327
1.31521
1.33302
1.33512
1.33791
1.32119
1.28269
3.54526
28.9854
0.714389
0.739797
0.755193
0.770809
0.780839
0.783712
0.783871
0.788353
0.800477
0.816551
0.824557
0.823685
0.816504
0.799445
0.77823
0.770362
0.772421
0.779246
0.809763
0.867841
0.903899
0.915321
0.920557
0.91953
0.901265
0.866069
0.84385
0.838033
0.840809
0.853801
0.872237
0.891972
0.92385
0.945942
0.952205
0.950793
0.9523
0.95907
0.966042
0.965207
0.949855
0.937849
0.930036
0.923657
0.920695
0.922259
0.932532
0.973226
1.01666
1.03847
1.05237
1.06486
1.07493
1.07626
1.0511
1.02314
1.01144
1.00472
0.999635
0.99935
1.00335
1.01538
1.05682
1.11523
1.15631
1.17566
1.18832
1.19916
1.2037
1.18409
1.13974
1.10162
1.08615
1.08427
1.08982
1.0984
1.11813
1.17148
1.22218
1.24864
1.26272
1.27406
1.28719
1.29002
1.27417
1.23961
1.20216
1.18319
1.18104
1.19215
1.22997
1.28122
1.31259
1.32131
1.32357
1.31823
1.31621
3.54144
29.1298
0.739753
0.751209
0.751447
0.747199
0.751651
0.767369
0.783652
0.802876
0.826065
0.840611
0.846889
0.845531
0.817426
0.777865
0.76281
0.762851
0.766564
0.774527
0.807907
0.876771
0.910098
0.920371
0.923608
0.910716
0.886899
0.867329
0.852711
0.848937
0.855981
0.870549
0.87769
0.881763
0.885957
0.908478
0.934669
0.948081
0.958142
0.96928
0.981216
0.987689
0.980659
0.956287
0.935806
0.922472
0.913242
0.911751
0.916353
0.932528
0.982893
1.03168
1.06041
1.07968
1.08891
1.09407
1.08845
1.05528
1.01912
1.00199
0.998918
0.999466
1.00127
1.0056
1.01507
1.05887
1.12811
1.16975
1.18867
1.19984
1.20662
1.20689
1.18944
1.14318
1.10371
1.08837
1.08724
1.09305
1.1014
1.1212
1.17365
1.2268
1.25601
1.2744
1.28916
1.29762
1.29558
1.28193
1.23652
1.19073
1.17233
1.17153
1.1824
1.22782
1.27849
1.30204
1.30781
1.30675
1.32903
3.5966
29.2927
0.75882
0.756429
0.735893
0.730011
0.733509
0.752442
0.793337
0.828903
0.845595
0.851721
0.855503
0.850724
0.809089
0.771332
0.762439
0.763754
0.769255
0.78999
0.830411
0.872682
0.902107
0.912079
0.903723
0.884188
0.876948
0.875888
0.872141
0.869667
0.872217
0.876745
0.876329
0.865509
0.862453
0.871861
0.907916
0.945338
0.967106
0.98362
0.9945
1.00031
1.00016
0.979183
0.942075
0.914811
0.904997
0.905905
0.910734
0.917662
0.9392
1.0081
1.06487
1.0842
1.09188
1.09677
1.09861
1.08908
1.05482
1.02219
1.00837
1.00423
1.00494
1.00841
1.01485
1.0277
1.06665
1.13259
1.17597
1.19399
1.204
1.20709
1.20644
1.18967
1.143
1.10631
1.09144
1.09131
1.09797
1.10558
1.12546
1.18212
1.23705
1.26739
1.28407
1.29447
1.29853
1.29846
1.27991
1.22274
1.18027
1.16772
1.16635
1.17909
1.23068
1.27352
1.28738
1.28746
1.32464
3.6742
29.4571
0.768937
0.744669
0.727616
0.726994
0.730421
0.74491
0.800292
0.843706
0.855386
0.860644
0.857333
0.828046
0.795474
0.776787
0.769806
0.772294
0.793125
0.821698
0.837496
0.852611
0.868186
0.874942
0.873918
0.873775
0.877043
0.885146
0.895924
0.898399
0.889434
0.876944
0.862463
0.852389
0.852822
0.858285
0.876037
0.926016
0.971386
0.992474
1.00196
1.00749
1.00933
0.99644
0.952859
0.916576
0.907229
0.909594
0.917678
0.929623
0.943533
0.96833
1.02906
1.06938
1.0812
1.08466
1.08505
1.08821
1.08937
1.07169
1.04241
1.02305
1.01708
1.01767
1.02059
1.0258
1.03582
1.07105
1.13852
1.18175
1.1982
1.20082
1.19751
1.19527
1.17958
1.14071
1.11323
1.10406
1.10505
1.10905
1.11595
1.13178
1.18726
1.24187
1.26955
1.28417
1.29206
1.29472
1.29441
1.26312
1.21037
1.1772
1.16562
1.16375
1.18313
1.23054
1.25882
1.2642
1.31027
3.76105
29.6143
0.765528
0.733374
0.727767
0.729884
0.733329
0.756001
0.813214
0.846596
0.85814
0.859853
0.835619
0.811376
0.799399
0.790119
0.789816
0.804164
0.829432
0.840564
0.842013
0.831354
0.823043
0.831044
0.852932
0.871879
0.887223
0.902168
0.913369
0.917779
0.909453
0.881347
0.855808
0.848256
0.850626
0.855196
0.862949
0.89744
0.962664
0.99312
1.00178
1.00105
0.989515
0.977623
0.964582
0.941197
0.926831
0.928349
0.936466
0.945323
0.951475
0.954119
0.966616
1.01153
1.05078
1.06992
1.08333
1.09568
1.10458
1.10914
1.09356
1.06075
1.03563
1.02598
1.02536
1.02834
1.03683
1.04782
1.07299
1.12633
1.16341
1.17817
1.18185
1.18488
1.1875
1.17877
1.15642
1.1357
1.12146
1.11251
1.10703
1.1082
1.12846
1.18787
1.24144
1.2683
1.2822
1.28647
1.28969
1.28271
1.25233
1.21102
1.17776
1.16596
1.16414
1.18408
1.21815
1.23438
1.29111
3.84863
29.7448
0.757655
0.734131
0.732093
0.734999
0.747506
0.777731
0.813303
0.837956
0.844513
0.831039
0.810722
0.808348
0.810437
0.813838
0.826906
0.841519
0.847211
0.847535
0.830474
0.804651
0.796562
0.801822
0.827063
0.868436
0.900546
0.919265
0.928345
0.932419
0.925838
0.8928
0.861618
0.852922
0.854801
0.861249
0.874316
0.894252
0.931599
0.968443
0.978956
0.974546
0.968394
0.968412
0.976862
0.984672
0.977555
0.96257
0.95611
0.953549
0.948479
0.942325
0.941308
0.950837
0.989926
1.04656
1.08523
1.10126
1.10989
1.11821
1.12197
1.10882
1.07701
1.04889
1.03643
1.03496
1.03932
1.0402
1.04166
1.05936
1.1102
1.15187
1.16978
1.17782
1.18766
1.19549
1.19506
1.17448
1.14768
1.12133
1.1026
1.09639
1.10046
1.12468
1.18734
1.24002
1.26589
1.27748
1.28069
1.28307
1.27667
1.25697
1.2197
1.18311
1.16549
1.15735
1.17053
1.19986
1.27138
3.93261
29.7731
0.757716
0.741197
0.741602
0.753437
0.772211
0.784095
0.795984
0.80616
0.810906
0.811852
0.812751
0.814368
0.825609
0.853599
0.870908
0.874392
0.863787
0.83612
0.801807
0.78394
0.783083
0.78869
0.806688
0.858951
0.911493
0.935637
0.944614
0.948955
0.942458
0.910016
0.876034
0.864686
0.866573
0.876568
0.887211
0.894034
0.901009
0.915032
0.936479
0.952093
0.962409
0.978566
1.0023
1.02237
1.02776
1.01188
0.982595
0.957234
0.936017
0.926803
0.928161
0.932602
0.9431
0.987763
1.05725
1.09643
1.11186
1.12068
1.12563
1.12728
1.12416
1.09908
1.06587
1.04448
1.03112
1.02468
1.02434
1.03036
1.05147
1.10464
1.14901
1.17098
1.18409
1.1955
1.205
1.20363
1.18559
1.15062
1.11337
1.09472
1.0908
1.09775
1.12319
1.18472
1.23625
1.26272
1.27305
1.27821
1.28205
1.28076
1.27118
1.23419
1.18703
1.15688
1.14323
1.14981
1.24021
4.01708
29.7621
0.766926
0.757588
0.761889
0.776106
0.782871
0.784152
0.771574
0.766462
0.776456
0.79896
0.818949
0.840324
0.866575
0.883529
0.890504
0.893275
0.881797
0.829293
0.784973
0.775051
0.776877
0.782082
0.794397
0.843865
0.917597
0.945008
0.953071
0.953409
0.94334
0.92405
0.899922
0.885857
0.884326
0.889928
0.895295
0.894667
0.879877
0.874014
0.885594
0.917265
0.95795
1.00442
1.04044
1.05458
1.05915
1.05257
1.01391
0.960949
0.933877
0.926932
0.929149
0.933495
0.941724
0.960325
0.999572
1.05793
1.09737
1.11482
1.12403
1.13128
1.13744
1.13859
1.11157
1.06524
1.03514
1.02424
1.02392
1.02939
1.03592
1.05438
1.10301
1.14941
1.17599
1.19317
1.20566
1.21212
1.20901
1.19382
1.15147
1.11237
1.09758
1.09668
1.10242
1.12101
1.17528
1.22907
1.25901
1.27242
1.2818
1.28752
1.29304
1.28285
1.24238
1.18285
1.13971
1.11119
1.16872
4.08858
29.7479
0.787927
0.780682
0.781902
0.786616
0.785933
0.76639
0.75272
0.75239
0.758293
0.779224
0.824975
0.874601
0.898778
0.904733
0.903472
0.891342
0.860072
0.813609
0.785132
0.77771
0.779319
0.786765
0.809546
0.855233
0.911453
0.944029
0.953349
0.947503
0.936901
0.93343
0.928278
0.918023
0.909747
0.90575
0.900755
0.881928
0.86229
0.859064
0.864547
0.882256
0.944916
1.02513
1.05739
1.06641
1.06979
1.06322
1.03676
0.992536
0.952788
0.938288
0.938743
0.944748
0.959352
0.973468
0.978806
0.99126
1.03872
1.09086
1.11721
1.12917
1.13342
1.13307
1.13257
1.1108
1.06664
1.04039
1.03374
1.03493
1.0388
1.04516
1.05873
1.10458
1.15575
1.18412
1.19821
1.20966
1.21826
1.22075
1.20316
1.15435
1.11741
1.10208
1.09779
1.0999
1.11191
1.16277
1.22466
1.26128
1.2784
1.28881
1.29683
1.2953
1.28305
1.23771
1.16715
1.10661
1.10392
4.0728
29.774
0.808373
0.801719
0.795154
0.785485
0.765303
0.751024
0.747255
0.749671
0.754078
0.768411
0.82272
0.881555
0.904647
0.912623
0.912955
0.887713
0.84418
0.813083
0.794378
0.788417
0.793404
0.815909
0.842591
0.862763
0.884907
0.911582
0.925762
0.928574
0.930902
0.938085
0.950529
0.953868
0.944485
0.927315
0.90012
0.868419
0.854678
0.855121
0.861004
0.877801
0.936513
1.01949
1.0578
1.06712
1.06071
1.03548
1.01879
1.01305
1.0006
0.983082
0.975606
0.977736
0.981471
0.978109
0.968327
0.965176
0.972555
1.01973
1.08469
1.11585
1.1265
1.13052
1.13357
1.13661
1.12078
1.08599
1.06246
1.05136
1.04755
1.04552
1.04583
1.05798
1.10592
1.16023
1.19173
1.2133
1.22536
1.22881
1.22684
1.19986
1.15243
1.11558
1.09681
1.09335
1.09529
1.10532
1.1626
1.23316
1.26895
1.28176
1.29062
1.29117
1.28416
1.2677
1.21765
1.13786
1.09054
3.96318
29.8389
0.819405
0.819804
0.80322
0.780172
0.763061
0.753595
0.751278
0.755857
0.768473
0.785116
0.81442
0.864966
0.890405
0.893985
0.881044
0.861448
0.84334
0.82523
0.814934
0.815798
0.831902
0.852403
0.862596
0.865883
0.86058
0.858662
0.875328
0.903223
0.92744
0.950172
0.969272
0.97709
0.975674
0.956345
0.909755
0.871184
0.862002
0.867773
0.890096
0.928996
0.960354
0.985822
1.01152
1.02085
1.01848
1.01841
1.02285
1.02998
1.04472
1.05349
1.04585
1.02437
1.00002
0.977452
0.958753
0.950736
0.950566
0.960833
1.01646
1.0908
1.12669
1.13797
1.14082
1.1466
1.14987
1.13934
1.1069
1.07514
1.05557
1.04363
1.03869
1.04222
1.0606
1.126
1.18979
1.21734
1.22764
1.22921
1.22752
1.21489
1.18883
1.15369
1.11845
1.09854
1.09182
1.09137
1.10824
1.16529
1.23364
1.26672
1.27934
1.28198
1.27386
1.26706
1.24661
1.18946
1.1311
3.8155
29.9475
0.809109
0.804774
0.798462
0.789718
0.774863
0.76675
0.768492
0.777127
0.78451
0.788337
0.7948
0.81732
0.847254
0.860505
0.86336
0.862037
0.854349
0.849022
0.852408
0.865184
0.876403
0.879965
0.876426
0.857175
0.833762
0.829107
0.837728
0.865315
0.914647
0.9578
0.977986
0.986351
0.989678
0.977665
0.937085
0.904144
0.900047
0.913528
0.937534
0.955092
0.960311
0.956704
0.941908
0.944364
0.968099
1.00387
1.0347
1.06513
1.08821
1.10002
1.10235
1.07523
1.02105
0.975339
0.952316
0.945195
0.946468
0.957241
0.976502
1.02939
1.09951
1.13389
1.14481
1.14964
1.15574
1.16086
1.15009
1.11202
1.07463
1.05077
1.04582
1.05357
1.06595
1.09198
1.1578
1.205
1.21928
1.22208
1.2184
1.2108
1.20354
1.19352
1.17035
1.13333
1.10676
1.09523
1.09117
1.10004
1.158
1.22745
1.25915
1.26931
1.26289
1.25635
1.25199
1.21988
1.20252
3.72826
30.0907
0.791828
0.798156
0.804491
0.809901
0.808298
0.79893
0.792817
0.790672
0.789619
0.782641
0.774544
0.775424
0.796229
0.832213
0.854037
0.863029
0.870975
0.890229
0.907859
0.911712
0.907247
0.898106
0.87481
0.838248
0.82
0.818629
0.823194
0.83479
0.879805
0.947599
0.977006
0.98326
0.980003
0.971688
0.968543
0.96637
0.965249
0.964114
0.964262
0.964004
0.945886
0.912183
0.896873
0.899378
0.91329
0.964212
1.04207
1.09312
1.11511
1.12509
1.12529
1.10924
1.05807
0.990555
0.958422
0.950976
0.956615
0.976844
0.992873
1.00225
1.03027
1.0879
1.12783
1.14518
1.15397
1.15831
1.16175
1.15518
1.12377
1.08709
1.07089
1.06993
1.07478
1.08234
1.10624
1.15749
1.18963
1.20314
1.20886
1.211
1.21103
1.21203
1.21203
1.19456
1.14689
1.10684
1.08606
1.0817
1.09181
1.14607
1.21524
1.24812
1.25383
1.24599
1.24664
1.23063
1.23789
3.74816
30.2506
0.780146
0.807796
0.825802
0.841665
0.847356
0.832949
0.809589
0.794063
0.778317
0.76715
0.76298
0.764584
0.771687
0.796456
0.833022
0.86758
0.908631
0.93906
0.949848
0.946862
0.929272
0.899554
0.862338
0.833214
0.821809
0.821916
0.82668
0.836424
0.853963
0.89931
0.947183
0.965189
0.970383
0.979713
1.00262
1.01823
1.0176
1.00473
0.980996
0.945059
0.904981
0.881103
0.877098
0.88054
0.888872
0.923077
1.01777
1.09327
1.11792
1.12546
1.11484
1.0865
1.06039
1.02959
0.994138
0.980721
0.986556
0.996857
0.999325
0.993016
0.989857
1.00707
1.06762
1.11732
1.13797
1.15149
1.16686
1.17894
1.17715
1.1452
1.10505
1.08509
1.07904
1.07882
1.08202
1.09737
1.13523
1.17291
1.19939
1.21279
1.22015
1.22558
1.22992
1.22685
1.20578
1.14754
1.09841
1.07715
1.07659
1.08533
1.13407
1.20337
1.23665
1.23553
1.23256
1.22307
1.2583
3.83792
30.4176
0.776626
0.842656
0.86421
0.872893
0.873437
0.85312
0.813977
0.784057
0.76805
0.760568
0.759974
0.762343
0.766032
0.775005
0.808284
0.873813
0.931889
0.958506
0.967698
0.969632
0.95531
0.914879
0.868058
0.839981
0.831124
0.834571
0.843269
0.84887
0.852123
0.857799
0.88298
0.924751
0.964486
1.00452
1.03314
1.04395
1.0472
1.03929
1.00148
0.936887
0.894658
0.878674
0.876924
0.88106
0.904689
0.945271
0.980362
1.0338
1.07374
1.08456
1.07682
1.06314
1.06348
1.06703
1.05913
1.04183
1.02792
1.0151
1.00002
0.982121
0.968971
0.968861
0.992681
1.06152
1.12016
1.15386
1.17887
1.1928
1.19659
1.1889
1.154
1.11239
1.0866
1.07485
1.07411
1.07679
1.08501
1.12011
1.17028
1.205
1.22038
1.22855
1.23684
1.23346
1.22888
1.20209
1.13792
1.08992
1.07463
1.07783
1.08049
1.12467
1.18864
1.2155
1.21443
1.20758
1.26312
3.97255
30.5739
0.77271
0.864658
0.881135
0.885816
0.880689
0.860009
0.823068
0.786949
0.769452
0.763432
0.763329
0.767794
0.777464
0.789988
0.807203
0.857012
0.929552
0.959756
0.966111
0.958593
0.937071
0.918245
0.895593