/*--------------------------------*- C++ -*----------------------------------*\
  =========                 |
  \\      /  F ield         | OpenFOAM: The Open Source CFD Toolbox
   \\    /   O peration     | Website:  https://openfoam.org
    \\  /    A nd           | Version:  12
     \\/     M anipulation  |
\*---------------------------------------------------------------------------*/
FoamFile
{
    format      ascii;
    class       volScalarField;
    location    "25.4";
    object      T;
}
// * * * * * * * * * * * * * * * * * * * * * * * * * * * * * * * * * * * * * //

dimensions      [0 0 0 1 0 0 0];

internalField   nonuniform List<scalar> 
9801
(
0.806629
0.806525
0.800409
0.795434
0.794987
0.795808
0.797903
0.801621
0.807789
0.813213
0.815637
0.816734
0.817347
0.817428
0.817042
0.817103
0.817468
0.818161
0.819078
0.820101
0.821111
0.822159
0.82346
0.826195
0.830532
0.83393
0.836019
0.837299
0.838155
0.836728
0.833884
0.833734
0.834386
0.835409
0.83695
0.842042
0.851203
0.855914
0.857272
0.858009
0.857254
0.853033
0.850047
0.850223
0.851028
0.852373
0.854524
0.860222
0.868853
0.873511
0.875365
0.876349
0.87625
0.872075
0.868299
0.868156
0.869203
0.870649
0.872521
0.877272
0.88623
0.891985
0.894591
0.896008
0.896749
0.89398
0.888745
0.887008
0.887873
0.889342
0.891705
0.898772
0.909938
0.916142
0.918791
0.920179
0.921107
0.918337
0.911397
0.907909
0.908983
0.911466
0.918059
0.932714
0.943468
0.948374
0.950982
0.953421
0.95344
0.945553
0.936586
0.934732
0.938373
0.949648
0.977183
1.00282
1.01483
1.12326
1.52788
0.808589
0.809781
0.806139
0.803474
0.802128
0.802051
0.802485
0.803483
0.806145
0.812601
0.818621
0.820743
0.821397
0.821664
0.821274
0.820221
0.820405
0.821174
0.821957
0.822681
0.823622
0.824895
0.828324
0.833062
0.835605
0.837357
0.838785
0.839986
0.840678
0.838706
0.837217
0.837394
0.838166
0.839254
0.840903
0.846399
0.85306
0.85685
0.858852
0.860086
0.859899
0.855926
0.853371
0.853703
0.854709
0.855986
0.857707
0.86264
0.870635
0.875528
0.877712
0.878948
0.87928
0.876014
0.871938
0.871268
0.872209
0.873593
0.875324
0.880212
0.889174
0.894944
0.897627
0.899221
0.90034
0.89855
0.89288
0.890403
0.891277
0.893187
0.895382
0.902195
0.912379
0.918389
0.921358
0.923325
0.925295
0.923733
0.916087
0.912801
0.914053
0.916781
0.921548
0.933497
0.945173
0.951768
0.955921
0.959557
0.961542
0.954679
0.945978
0.944267
0.948311
0.95598
0.974031
0.997599
1.01109
1.12623
1.55152
0.809149
0.809292
0.807888
0.808164
0.80914
0.810207
0.811351
0.812478
0.813209
0.815991
0.821421
0.823703
0.824181
0.824906
0.826
0.826202
0.826321
0.826873
0.827043
0.827078
0.827631
0.828776
0.832986
0.839356
0.84253
0.84396
0.845104
0.846264
0.846363
0.843724
0.842836
0.843476
0.844601
0.845947
0.848258
0.854164
0.859246
0.861726
0.863267
0.864237
0.86417
0.861369
0.859912
0.86072
0.862169
0.863654
0.865209
0.869175
0.875789
0.880088
0.882303
0.88364
0.88468
0.883461
0.880234
0.879242
0.880012
0.881281
0.882882
0.886518
0.894754
0.90092
0.904148
0.906224
0.907982
0.908008
0.90329
0.899993
0.900401
0.902161
0.904463
0.909474
0.919635
0.927435
0.931546
0.93424
0.936665
0.936377
0.929534
0.925263
0.926089
0.929146
0.933128
0.94283
0.958121
0.967708
0.972719
0.976891
0.97963
0.975294
0.968747
0.966477
0.969523
0.976618
0.990161
1.01477
1.03024
1.15336
1.58474
0.80981
0.813642
0.81607
0.817961
0.81941
0.820731
0.821895
0.821813
0.820819
0.820824
0.823504
0.828786
0.832155
0.833926
0.835349
0.836497
0.835951
0.834234
0.833321
0.833707
0.834806
0.836538
0.84191
0.84873
0.851947
0.853469
0.854731
0.855748
0.854222
0.852079
0.852148
0.853134
0.854441
0.855915
0.858683
0.863499
0.867319
0.86973
0.871434
0.872784
0.873836
0.872805
0.871857
0.872339
0.873232
0.874206
0.87546
0.877851
0.884067
0.889594
0.892762
0.89487
0.896585
0.897476
0.89416
0.891803
0.891887
0.893037
0.89481
0.897708
0.905723
0.913873
0.918152
0.920658
0.922697
0.923835
0.919674
0.91486
0.914548
0.916463
0.91905
0.923041
0.933071
0.942962
0.948034
0.951176
0.954011
0.955623
0.950774
0.944481
0.943888
0.947204
0.951669
0.958718
0.973289
0.986182
0.993347
0.998392
1.003
1.00191
0.996605
0.993171
0.994074
0.999149
1.00836
1.02823
1.04144
1.18583
1.62049
0.815143
0.821968
0.827199
0.829261
0.831069
0.832689
0.832182
0.828827
0.827132
0.827475
0.829851
0.838106
0.844083
0.84637
0.847767
0.848986
0.847706
0.843404
0.842044
0.842852
0.844411
0.846851
0.852875
0.86008
0.863484
0.86517
0.866665
0.86732
0.865041
0.863043
0.86342
0.864575
0.865878
0.86729
0.869875
0.874544
0.878741
0.881712
0.883968
0.885774
0.887361
0.887137
0.885507
0.885149
0.885638
0.886685
0.888184
0.890394
0.896756
0.903769
0.907483
0.909714
0.911563
0.912901
0.909966
0.906222
0.905995
0.907486
0.909669
0.91248
0.919736
0.928948
0.933949
0.93662
0.938633
0.940107
0.937365
0.931617
0.930405
0.932434
0.935331
0.938975
0.947514
0.959044
0.965671
0.969297
0.972345
0.97488
0.972295
0.964754
0.961179
0.963526
0.968451
0.974476
0.985881
1.00114
1.01147
1.01774
1.02291
1.0252
1.02126
1.01634
1.01311
1.01395
1.01991
1.03403
1.04503
1.20433
1.64541
0.826652
0.833044
0.838085
0.840993
0.84332
0.843537
0.83894
0.835761
0.835781
0.836913
0.84044
0.849775
0.856365
0.858907
0.860535
0.861737
0.859418
0.853807
0.85243
0.853483
0.855134
0.857806
0.86396
0.871953
0.876127
0.878039
0.879511
0.879946
0.87776
0.875067
0.87494
0.876158
0.877688
0.879292
0.881704
0.887067
0.892511
0.8957
0.897741
0.89949
0.901229
0.901628
0.899067
0.897829
0.898427
0.899846
0.901619
0.903824
0.909919
0.917823
0.921899
0.924107
0.925962
0.927369
0.92519
0.920474
0.919627
0.921206
0.923557
0.926422
0.932697
0.941957
0.947586
0.950487
0.952631
0.954595
0.95411
0.948386
0.944794
0.945934
0.94902
0.952492
0.958732
0.970191
0.978991
0.983298
0.986228
0.988967
0.989043
0.983021
0.977695
0.976849
0.980188
0.985074
0.992325
1.00539
1.01794
1.02604
1.03214
1.03751
1.03781
1.0336
1.02851
1.02522
1.02528
1.03318
1.04358
1.2142
1.65922
0.84079
0.846598
0.849385
0.852054
0.852917
0.849026
0.845421
0.844803
0.84565
0.847165
0.852826
0.861692
0.867285
0.870093
0.871991
0.872249
0.86849
0.864374
0.863785
0.864692
0.866045
0.86803
0.873072
0.881422
0.886621
0.888924
0.890154
0.890536
0.889828
0.887381
0.885845
0.886293
0.887907
0.889761
0.891854
0.8965
0.903636
0.907975
0.910028
0.911607
0.913297
0.914211
0.911441
0.908361
0.908453
0.910089
0.912178
0.91466
0.920398
0.928759
0.93334
0.935607
0.937408
0.938957
0.93812
0.933336
0.930498
0.931248
0.93342
0.936014
0.940994
0.950099
0.957057
0.960395
0.96271
0.964964
0.966608
0.963031
0.957534
0.956436
0.95848
0.961328
0.965086
0.974
0.985302
0.991933
0.995642
0.99867
1.00102
0.998731
0.992686
0.988721
0.988073
0.990895
0.995589
1.00398
1.01705
1.02826
1.03608
1.04201
1.0464
1.04546
1.04175
1.03521
1.02937
1.03109
1.03669
1.21865
1.66673
0.854426
0.858181
0.859926
0.860183
0.855544
0.852837
0.853203
0.854429
0.85584
0.859045
0.866181
0.872568
0.876269
0.878601
0.879435
0.878059
0.876056
0.875025
0.875005
0.875725
0.877083
0.878941
0.882009
0.88838
0.893683
0.896122
0.897377
0.898459
0.899601
0.898839
0.896248
0.89549
0.896297
0.897701
0.89925
0.90198
0.909491
0.916279
0.919315
0.921067
0.922741
0.924088
0.922407
0.918085
0.916462
0.917342
0.919034
0.921307
0.926496
0.935171
0.940791
0.943454
0.945347
0.947053
0.947685
0.943905
0.939616
0.938716
0.940098
0.942206
0.945326
0.953213
0.962356
0.967431
0.970133
0.972393
0.974581
0.974475
0.968789
0.964728
0.9641
0.966058
0.968903
0.974001
0.985435
0.996063
1.00193
1.00596
1.00924
1.01082
1.00562
0.9984
0.995061
0.99537
0.998184
1.00289
1.01216
1.02473
1.03468
1.04189
1.04757
1.05081
1.05002
1.04608
1.03745
1.03037
1.0268
1.2189
1.67157
0.865093
0.867816
0.86728
0.861546
0.857187
0.857313
0.858581
0.860676
0.864306
0.871198
0.877795
0.881312
0.882955
0.883256
0.882163
0.881829
0.882175
0.882633
0.883555
0.884916
0.886899
0.88857
0.889986
0.892803
0.897379
0.900166
0.902334
0.904653
0.906527
0.907824
0.906111
0.903732
0.903171
0.903544
0.904425
0.905917
0.911188
0.920373
0.925466
0.927861
0.929612
0.93119
0.931135
0.926531
0.922994
0.922535
0.923708
0.925482
0.929155
0.937521
0.944723
0.948255
0.950326
0.95206
0.95354
0.952505
0.947349
0.944556
0.944688
0.946407
0.94873
0.953606
0.963762
0.971697
0.975779
0.97821
0.98028
0.981657
0.977878
0.97123
0.968386
0.968789
0.971136
0.974293
0.98183
0.995335
1.00548
1.01071
1.01417
1.01692
1.0163
1.00962
1.00308
1.00035
1.0008
1.00369
1.009
1.01884
1.03046
1.03929
1.04583
1.05102
1.05305
1.0519
1.04701
1.03647
1.02215
1.21521
1.67437
0.873548
0.876041
0.869467
0.862081
0.860817
0.861616
0.862991
0.86546
0.871375
0.878988
0.883782
0.885583
0.885654
0.884489
0.88498
0.88647
0.887838
0.888947
0.890737
0.893099
0.894157
0.893612
0.893239
0.894112
0.898365
0.903582
0.90746
0.910262
0.912256
0.913983
0.914498
0.910966
0.907962
0.907094
0.907826
0.909258
0.912673
0.921915
0.929246
0.932461
0.934357
0.935906
0.936763
0.933449
0.927918
0.926553
0.927306
0.928923
0.931293
0.937736
0.946409
0.951202
0.953583
0.955248
0.956909
0.958105
0.954727
0.950003
0.948967
0.950167
0.952068
0.954384
0.961654
0.972707
0.979045
0.982131
0.984307
0.986342
0.986153
0.979597
0.973914
0.97243
0.973447
0.975816
0.979188
0.988679
1.00292
1.01173
1.01611
1.01929
1.02206
1.02082
1.01382
1.00751
1.00523
1.00602
1.00914
1.01464
1.02426
1.03452
1.042
1.04792
1.05261
1.05367
1.05243
1.04401
1.02781
1.20992
1.67747
0.87676
0.876752
0.86911
0.865585
0.865153
0.866572
0.869794
0.874261
0.878401
0.882173
0.884822
0.885491
0.885328
0.886177
0.88893
0.891554
0.89407
0.896012
0.897248
0.89771
0.896444
0.893928
0.89337
0.894367
0.898805
0.907056
0.912445
0.915558
0.91756
0.919263
0.920458
0.916717
0.910399
0.9092
0.91024
0.911897
0.915245
0.923815
0.932128
0.935799
0.93761
0.938761
0.939346
0.937653
0.932717
0.930379
0.93099
0.932462
0.934171
0.937368
0.945639
0.952639
0.955944
0.958123
0.960353
0.962361
0.96229
0.957155
0.953988
0.953471
0.95412
0.955639
0.958822
0.969377
0.979836
0.984743
0.98766
0.990064
0.992253
0.989885
0.981885
0.977131
0.97601
0.976894
0.979249
0.983401
0.994332
1.00815
1.01647
1.02095
1.02417
1.0264
1.02498
1.01904
1.01323
1.01042
1.01065
1.01354
1.01893
1.02848
1.03795
1.04478
1.05031
1.05352
1.05435
1.04953
1.03662
1.20629
1.68085
0.875564
0.8748
0.872485
0.871638
0.872625
0.875039
0.878008
0.880134
0.881131
0.880536
0.880985
0.883732
0.887238
0.890876
0.894851
0.898448
0.900835
0.902537
0.902286
0.898837
0.894311
0.893268
0.89421
0.895739
0.900435
0.910614
0.917679
0.92039
0.921991
0.923505
0.923579
0.918318
0.912986
0.912281
0.91335
0.914895
0.918037
0.925783
0.933732
0.937405
0.939086
0.93991
0.940756
0.941334
0.938678
0.935505
0.935225
0.935874
0.936551
0.93794
0.942477
0.95202
0.958282
0.961772
0.964303
0.966474
0.968126
0.965307
0.958715
0.955354
0.954817
0.956212
0.95849
0.964639
0.977833
0.986871
0.990908
0.993756
0.996195
0.997122
0.991411
0.982835
0.97919
0.979188
0.980548
0.98293
0.986805
0.997436
1.01143
1.02015
1.02486
1.02847
1.03123
1.03066
1.02455
1.01749
1.01373
1.0138
1.01684
1.02235
1.03233
1.04161
1.04814
1.05266
1.05429
1.05228
1.04365
1.2048
1.68366
0.874449
0.876584
0.877976
0.880312
0.881956
0.882543
0.883276
0.88295
0.879251
0.877571
0.878406
0.881848
0.88963
0.897342
0.902191
0.904504
0.906111
0.907438
0.905631
0.897157
0.892956
0.893182
0.894432
0.89649
0.902289
0.914297
0.921131
0.923652
0.925117
0.925336
0.923169
0.919489
0.91616
0.91566
0.917016
0.919316
0.92156
0.925667
0.93275
0.937098
0.93902
0.940835
0.943151
0.944927
0.94528
0.941576
0.938611
0.937516
0.937449
0.938528
0.940875
0.949254
0.959996
0.965612
0.968528
0.970439
0.972356
0.971841
0.96401
0.957506
0.956341
0.957344
0.959182
0.962306
0.971684
0.985226
0.992471
0.995621
0.997397
0.998796
0.999383
0.994044
0.986702
0.983442
0.982634
0.982989
0.98516
0.989643
1.0013
1.01586
1.02506
1.03002
1.03344
1.0348
1.03349
1.02772
1.02038
1.01633
1.01637
1.01942
1.02541
1.03588
1.04473
1.05058
1.05337
1.05305
1.04831
1.20618
1.68597
0.871846
0.879086
0.884707
0.887569
0.889035
0.889111
0.88722
0.88173
0.877684
0.87754
0.87872
0.881466
0.890903
0.902674
0.907438
0.909472
0.910712
0.910521
0.904325
0.897038
0.894976
0.895417
0.896531
0.899133
0.906981
0.916855
0.922714
0.924999
0.925218
0.92391
0.923585
0.922666
0.920893
0.92076
0.922149
0.923332
0.923575
0.924398
0.928583
0.936271
0.941001
0.943982
0.946496
0.948697
0.950338
0.948666
0.942429
0.938515
0.937787
0.939016
0.940997
0.946555
0.959335
0.968145
0.97135
0.973261
0.974652
0.974702
0.970335
0.962474
0.959495
0.960127
0.961866
0.963582
0.966428
0.976438
0.988944
0.994968
0.998243
1.00136
1.00416
1.00486
0.998235
0.989852
0.985811
0.985309
0.986481
0.98913
0.993819
1.00551
1.01964
1.02805
1.03245
1.03533
1.03658
1.03536
1.02993
1.02291
1.01901
1.01898
1.02157
1.02761
1.03802
1.04612
1.05079
1.05214
1.05141
1.21089
1.6883
0.872501
0.88307
0.888466
0.890719
0.89244
0.893492
0.889144
0.881047
0.879209
0.879842
0.880904
0.883485
0.894636
0.905852
0.910138
0.912053
0.912836
0.909132
0.90347
0.899621
0.898375
0.899469
0.901954
0.905883
0.91057
0.916874
0.920949
0.922437
0.922702
0.923903
0.925814
0.927561
0.927587
0.92603
0.925209
0.924288
0.923066
0.923364
0.925435
0.933501
0.943077
0.948132
0.950949
0.952776
0.954527
0.954487
0.94724
0.940577
0.939601
0.940734
0.942423
0.945435
0.955596
0.967495
0.972121
0.973764
0.974448
0.975532
0.976114
0.971721
0.965985
0.964247
0.964247
0.964653
0.966064
0.969182
0.979801
0.993282
1.00067
1.00422
1.00708
1.00944
1.00948
1.00268
0.994074
0.990025
0.989375
0.990228
0.992726
0.997735
1.00944
1.02218
1.02977
1.03412
1.03683
1.03813
1.03753
1.03252
1.02547
1.02123
1.02085
1.02275
1.02846
1.03865
1.04618
1.04931
1.05288
1.21823
1.69092
0.876487
0.886725
0.890626
0.892786
0.894253
0.893629
0.887783
0.883179
0.882164
0.883051
0.8847
0.889362
0.898862
0.907297
0.910712
0.911477
0.909451
0.907512
0.905892
0.904361
0.904731
0.906554
0.90911
0.910684
0.911283
0.91246
0.917151
0.921301
0.924172
0.927082
0.930209
0.932713
0.934218
0.932393
0.92742
0.923253
0.922315
0.923412
0.925364
0.931181
0.943768
0.951759
0.954716
0.95637
0.957601
0.956948
0.951517
0.944463
0.942818
0.944103
0.946254
0.948391
0.95189
0.96166
0.970446
0.974044
0.976161
0.97815
0.980252
0.980795
0.975544
0.969479
0.966877
0.966347
0.966687
0.968148
0.971524
0.983611
0.998197
1.00547
1.009
1.01209
1.01441
1.01388
1.0063
0.997081
0.992783
0.992487
0.993986
0.996761
1.0015
1.01251
1.02423
1.0315
1.03615
1.03916
1.04019
1.0396
1.0345
1.02696
1.02221
1.02138
1.02259
1.02858
1.0391
1.04549
1.05291
1.22717
1.69411
0.8823
0.890187
0.892356
0.893871
0.894223
0.891502
0.88757
0.885855
0.886417
0.888104
0.890969
0.89447
0.899898
0.904867
0.907069
0.907331
0.907193
0.908532
0.910171
0.911535
0.911709
0.912335
0.912782
0.91113
0.909082
0.909571
0.912869
0.920739
0.927675
0.932598
0.935225
0.936882
0.938674
0.937793
0.929711
0.923769
0.923433
0.924633
0.926362
0.930912
0.943436
0.953465
0.956704
0.95781
0.957184
0.956655
0.95583
0.951874
0.948764
0.948836
0.94995
0.950795
0.951627
0.954309
0.96422
0.974012
0.978759
0.981591
0.983979
0.986414
0.986558
0.979693
0.972372
0.969168
0.968278
0.968796
0.970444
0.974617
0.987616
1.00248
1.00998
1.01348
1.01529
1.01633
1.01608
1.00989
1.00177
0.997547
0.996607
0.99731
0.999858
1.00465
1.01564
1.02682
1.03398
1.03842
1.04074
1.04146
1.04068
1.03542
1.02769
1.02236
1.02088
1.02154
1.02913
1.03938
1.0508
1.23662
1.69761
0.885537
0.893106
0.894319
0.894575
0.89374
0.892129
0.889925
0.889881
0.891552
0.893781
0.8953
0.896229
0.896904
0.900647
0.905098
0.907646
0.909758
0.912617
0.915764
0.917925
0.918398
0.916606
0.912967
0.909316
0.908745
0.909918
0.912149
0.919758
0.931451
0.936984
0.939019
0.940412
0.940455
0.937327
0.931399
0.926791
0.926348
0.928155
0.931658
0.935718
0.941408
0.950236
0.954641
0.955717
0.956215
0.95784
0.960015
0.961126
0.957754
0.954203
0.952749
0.951715
0.951219
0.95219
0.956025
0.968018
0.97885
0.984094
0.987637
0.99048
0.992554
0.990629
0.981574
0.973829
0.971184
0.971422
0.972794
0.974678
0.977969
0.989126
1.00355
1.01122
1.01455
1.01702
1.0193
1.01998
1.01459
1.00611
1.00096
0.999478
1.0001
1.00261
1.00722
1.01833
1.02939
1.03617
1.03993
1.04169
1.04238
1.04143
1.0363
1.02816
1.02179
1.01921
1.02007
1.02968
1.04575
1.24521
1.70049
0.88501
0.892069
0.893356
0.894606
0.895921
0.895772
0.894871
0.894746
0.895688
0.896765
0.89637
0.894848
0.895169
0.897166
0.903173
0.909769
0.914771
0.918019
0.920023
0.921852
0.922884
0.920286
0.913093
0.90986
0.909984
0.911183
0.913575
0.921335
0.932832
0.938712
0.940692
0.94054
0.938765
0.937809
0.935795
0.933414
0.933498
0.935713
0.9382
0.938924
0.939108
0.941698
0.949371
0.954777
0.958131
0.961482
0.965046
0.967686
0.96779
0.96246
0.956447
0.952462
0.950754
0.951302
0.952742
0.958321
0.973476
0.985075
0.989781
0.992326
0.994044
0.994707
0.992879
0.984769
0.977561
0.975187
0.9752
0.975584
0.977027
0.980131
0.990296
1.00512
1.01421
1.01839
1.02066
1.02227
1.02272
1.0184
1.01023
1.00421
1.0017
1.00168
1.00391
1.00908
1.02112
1.03232
1.03844
1.0413
1.0427
1.04313
1.04192
1.03703
1.0281
1.01974
1.01619
1.01811
1.03698
1.25115
1.70204
0.881932
0.891246
0.895578
0.897978
0.899534
0.901004
0.901201
0.899857
0.8985
0.896576
0.894553
0.894283
0.895231
0.896731
0.900879
0.910479
0.917784
0.920939
0.922535
0.922903
0.922026
0.91999
0.915568
0.912499
0.913149
0.915728
0.919194
0.92247
0.929599
0.935637
0.937482
0.937334
0.938051
0.940182
0.94253
0.943338
0.941853
0.941102
0.940392
0.937976
0.936041
0.936647
0.941461
0.952145
0.96106
0.967033
0.970499
0.972607
0.973959
0.970768
0.960756
0.953556
0.951844
0.952384
0.953489
0.955381
0.963011
0.978676
0.988478
0.992306
0.99452
0.99644
0.997706
0.996215
0.98846
0.980999
0.977977
0.977928
0.978902
0.980082
0.98238
0.990539
1.00555
1.01551
1.01991
1.02266
1.02495
1.02584
1.02163
1.01238
1.00501
1.00245
1.00305
1.00533
1.01155
1.02474
1.03541
1.0401
1.04157
1.0427
1.04321
1.04268
1.0381
1.02737
1.01671
1.01153
1.0233
1.25262
1.70214
0.879531
0.890098
0.898651
0.90155
0.903209
0.904616
0.905525
0.904712
0.901434
0.898184
0.89653
0.896575
0.89778
0.899908
0.902506
0.909155
0.917899
0.921632
0.92237
0.92198
0.922443
0.922474
0.920752
0.919198
0.920028
0.92195
0.922576
0.922095
0.922483
0.927878
0.934513
0.938004
0.941279
0.945364
0.949284
0.951556
0.950766
0.94581
0.939333
0.93475
0.933857
0.934886
0.937136
0.94655
0.962047
0.97021
0.973367
0.975569
0.976905
0.975391
0.968161
0.958596
0.954793
0.954915
0.956245
0.958666
0.961292
0.966733
0.979868
0.9898
0.994292
0.996544
0.998105
1.00038
1.00123
0.995047
0.986797
0.982801
0.980928
0.979629
0.980603
0.983272
0.992572
1.00876
1.01955
1.02417
1.02614
1.02714
1.02671
1.02189
1.01362
1.00756
1.00561
1.00607
1.00808
1.01384
1.02631
1.03578
1.03956
1.04101
1.04268
1.04441
1.04443
1.03934
1.0258
1.01218
1.00895
1.24795
1.70062
0.88127
0.888885
0.898348
0.903071
0.90492
0.905134
0.90424
0.904454
0.904867
0.902955
0.901026
0.90148
0.903276
0.903727
0.903822
0.905284
0.912413
0.918135
0.920164
0.922344
0.925138
0.927828
0.929384
0.927945
0.925901
0.924337
0.921063
0.918551
0.918822
0.92136
0.930277
0.940341
0.94766
0.952184
0.954429
0.955998
0.956322
0.950441
0.939384
0.934819
0.934683
0.935735
0.937697
0.94318
0.957364
0.969753
0.974064
0.975371
0.973966
0.973425
0.973549
0.969976
0.964086
0.961499
0.9617
0.96218
0.961811
0.961937
0.96503
0.977054
0.989351
0.996052
1.00105
1.00472
1.00666
1.00649
0.999141
0.987826
0.981543
0.980597
0.981802
0.984323
0.987888
0.997336
1.01236
1.02132
1.02459
1.02586
1.02676
1.02731
1.02474
1.01769
1.01134
1.00801
1.00701
1.00812
1.01318
1.0258
1.03578
1.03965
1.0416
1.04437
1.04616
1.04581
1.03859
1.01973
1.00297
1.23831
1.69842
0.888048
0.890197
0.893432
0.899246
0.901523
0.901838
0.902958
0.905937
0.908549
0.910493
0.90943
0.90741
0.906001
0.903925
0.901738
0.901624
0.904779
0.914228
0.921585
0.926661
0.93109
0.934092
0.935944
0.935373
0.930329
0.922668
0.917718
0.916902
0.917935
0.919499
0.924557
0.940029
0.951197
0.955196
0.957319
0.95842
0.956149
0.950487
0.943094
0.937972
0.937969
0.940322
0.944176
0.94669
0.95025
0.959563
0.967386
0.970663
0.972708
0.975407
0.978422
0.980895
0.978862
0.971876
0.966783
0.963489
0.960031
0.958931
0.959806
0.963812
0.979283
0.996263
1.0039
1.00674
1.00797
1.00862
1.00778
0.999339
0.989156
0.985578
0.986333
0.988758
0.991143
0.992971
0.99955
1.01243
1.02055
1.02442
1.02728
1.02959
1.03095
1.02874
1.02061
1.01196
1.0072
1.00617
1.00702
1.01257
1.02666
1.03672
1.04021
1.04247
1.04539
1.04663
1.04541
1.03212
1.0105
1.22639
1.69691
0.892678
0.890055
0.888112
0.89039
0.896662
0.901538
0.90557
0.909857
0.914284
0.917209
0.918042
0.912908
0.904779
0.899929
0.899251
0.900136
0.902025
0.90972
0.924358
0.933606
0.937375
0.939253
0.940192
0.939688
0.933189
0.92296
0.918774
0.918586
0.91956
0.922225
0.927595
0.93778
0.950478
0.955594
0.956803
0.955039
0.953983
0.954011
0.951817
0.948161
0.946559
0.947074
0.947539
0.947062
0.946056
0.947181
0.955038
0.966247
0.974769
0.981222
0.985509
0.987817
0.988704
0.983912
0.972292
0.963179
0.95974
0.959414
0.960534
0.963233
0.969353
0.984715
0.999543
1.00559
1.00733
1.00711
1.00713
1.00749
1.00346
0.996674
0.99293
0.99184
0.991233
0.991077
0.993203
1.00034
1.01343
1.02288
1.02762
1.0298
1.0314
1.03245
1.02952
1.02068
1.01139
1.00665
1.00557
1.0067
1.01327
1.02653
1.03587
1.03984
1.04313
1.04556
1.04673
1.04101
1.02552
1.21911
1.69692
0.892504
0.884984
0.883562
0.884306
0.890575
0.90302
0.912162
0.917156
0.919514
0.921155
0.921617
0.915358
0.903214
0.898993
0.899414
0.900583
0.902394
0.908508
0.925062
0.936147
0.939282
0.940977
0.94085
0.937244
0.932364
0.926433
0.922694
0.923257
0.926265
0.930254
0.932028
0.933681
0.940652
0.948356
0.951348
0.952886
0.955528
0.958626
0.961332
0.961006
0.956521
0.95145
0.946863
0.942909
0.941971
0.942775
0.945355
0.957182
0.974686
0.984161
0.987946
0.990186
0.991354
0.990011
0.982634
0.969623
0.962738
0.96178
0.963845
0.96843
0.971647
0.974467
0.98378
0.99659
1.00339
1.00599
1.00808
1.01121
1.01315
1.0106
1.00294
0.995721
0.991591
0.99067
0.991683
0.994121
1.00195
1.01634
1.02534
1.02872
1.0304
1.03199
1.03241
1.02993
1.0219
1.01243
1.00729
1.00593
1.00658
1.01171
1.02466
1.03452
1.03948
1.04317
1.04606
1.04543
1.03803
1.21884
1.69852
0.887647
0.88145
0.882478
0.884137
0.889022
0.905165
0.918631
0.922576
0.92441
0.9245
0.920368
0.910787
0.903499
0.90088
0.901224
0.903099
0.908586
0.915696
0.924545
0.933995
0.937788
0.937888
0.935317
0.934693
0.935226
0.934152
0.932263
0.931811
0.932852
0.933397
0.932219
0.930188
0.93029
0.936111
0.946295
0.954677
0.961535
0.965943
0.968208
0.969103
0.965583
0.955184
0.94575
0.941967
0.941931
0.942964
0.945355
0.951952
0.966564
0.981431
0.987763
0.990059
0.988642
0.986132
0.985087
0.981319
0.973765
0.969989
0.970155
0.971523
0.972048
0.970912
0.972124
0.979926
0.994699
1.00498
1.01007
1.01288
1.01487
1.0162
1.01443
1.00604
0.996642
0.992341
0.991884
0.993165
0.995731
1.00447
1.01795
1.02549
1.0285
1.03049
1.03263
1.03378
1.03248
1.02435
1.01334
1.00672
1.00461
1.00493
1.00946
1.02278
1.03371
1.03988
1.04433
1.04609
1.04707
1.2251
1.70168
0.884193
0.880768
0.881738
0.884193
0.893396
0.911522
0.921075
0.924347
0.925712
0.922903
0.916352
0.910827
0.906488
0.905634
0.907744
0.913579
0.918551
0.920242
0.92101
0.923726
0.929268
0.932204
0.933662
0.936167
0.939635
0.94329
0.944325
0.941487
0.937083
0.932146
0.927316
0.925862
0.926525
0.928701
0.938702
0.955654
0.965234
0.968912
0.971209
0.97222
0.969822
0.961683
0.950101
0.944381
0.943981
0.945855
0.951843
0.957004
0.960295
0.967757
0.977619
0.982811
0.984854
0.986438
0.987985
0.989743
0.989707
0.984018
0.977615
0.973446
0.970492
0.968349
0.968103
0.970415
0.978816
0.995981
1.0082
1.01305
1.01514
1.01665
1.01768
1.01561
1.00677
0.997778
0.994213
0.993936
0.995156
0.997344
1.00532
1.01836
1.02637
1.03004
1.03281
1.03534
1.03593
1.03443
1.02561
1.01316
1.00552
1.00315
1.00328
1.00747
1.02105
1.03302
1.04083
1.04424
1.05217
1.23591
1.70575
0.883941
0.882098
0.883435
0.890236
0.902064
0.913076
0.920422
0.922835
0.920702
0.915839
0.914288
0.914283
0.913792
0.915002
0.917893
0.920342
0.92155
0.920002
0.915445
0.914052
0.917644
0.926707
0.934946
0.94201
0.947433
0.950286
0.951478
0.949277
0.940236
0.929506
0.925075
0.925044
0.926085
0.928099
0.934794
0.950772
0.96455
0.969504
0.970996
0.968436
0.964938
0.96351
0.960183
0.955082
0.953552
0.954945
0.957085
0.958371
0.95741
0.956211
0.960267
0.97228
0.983162
0.989179
0.993661
0.997384
0.999129
0.998205
0.989927
0.979132
0.97135
0.968419
0.968501
0.970419
0.973229
0.981738
1.00031
1.01216
1.01559
1.01649
1.01712
1.01797
1.01672
1.00968
1.00201
0.997883
0.996549
0.996916
0.998642
1.00568
1.01869
1.02719
1.03124
1.03402
1.03572
1.03662
1.03526
1.02605
1.01342
1.00571
1.00247
1.00126
1.00471
1.01938
1.03311
1.03971
1.05386
1.24807
1.71
0.886207
0.88651
0.894001
0.902534
0.907028
0.909973
0.912554
0.913481
0.913692
0.91456
0.916177
0.919104
0.924103
0.926989
0.927184
0.925528
0.920487
0.91278
0.90969
0.910142
0.912082
0.919598
0.935577
0.947519
0.952402
0.954783
0.955552
0.953157
0.943361
0.931654
0.926814
0.926851
0.928779
0.934837
0.941437
0.946315
0.953699
0.960329
0.962941
0.96397
0.965448
0.966982
0.969665
0.971325
0.968859
0.964319
0.960389
0.955777
0.951347
0.950054
0.951505
0.957637
0.974111
0.989964
0.998396
1.00194
1.00326
1.00349
1.00144
0.990829
0.977718
0.972017
0.971853
0.974546
0.977753
0.980944
0.987114
1.00172
1.01132
1.01445
1.01604
1.01786
1.02028
1.02098
1.01565
1.00697
1.00077
0.998315
0.997987
0.998582
1.00462
1.01799
1.02725
1.03211
1.03569
1.03713
1.03747
1.03588
1.02693
1.0141
1.00463
0.999837
0.998279
1.0025
1.01911
1.03209
1.05235
1.25971
1.7137
0.894166
0.898798
0.904594
0.906897
0.907411
0.904144
0.90076
0.902081
0.907653
0.914752
0.921935
0.928975
0.933018
0.934329
0.933669
0.928576
0.915307
0.908053
0.907389
0.908331
0.910305
0.916254
0.934296
0.948832
0.953622
0.955278
0.952878
0.947478
0.943619
0.93941
0.935777
0.936153
0.939142
0.94229
0.943684
0.942969
0.94089
0.943214
0.9519
0.961348
0.9684
0.975376
0.980173
0.982267
0.981954
0.974702
0.962748
0.953188
0.949074
0.94895
0.950596
0.953562
0.961937
0.982378
0.998159
1.00296
1.00362
1.00224
1.0001
0.997588
0.991547
0.984065
0.980713
0.980545
0.980998
0.980864
0.981254
0.985433
0.998474
1.0091
1.01463
1.01898
1.02262
1.0253
1.02584
1.01927
1.00787
1.00027
0.997097
0.996426
0.997301
1.00488
1.01947
1.02971
1.03489
1.03716
1.03766
1.03782
1.03556
1.02666
1.01461
1.00433
0.997844
0.995523
1.00152
1.01853
1.04516
1.27024
1.71615
0.906104
0.910332
0.911241
0.909766
0.901921
0.895023
0.894005
0.895846
0.90118
0.914063
0.929119
0.936859
0.939804
0.940378
0.937669
0.925431
0.913878
0.909308
0.908949
0.910064
0.914976
0.92367
0.932902
0.942869
0.948278
0.948479
0.946535
0.945674
0.946872
0.949124
0.951286
0.951269
0.949588
0.947165
0.942165
0.935392
0.932837
0.933974
0.938897
0.953517
0.971211
0.982072
0.986797
0.988634
0.988571
0.984144
0.970415
0.955969
0.950664
0.950382
0.953534
0.960365
0.96605
0.9719
0.984817
0.995206
0.998246
0.998736
0.999375
1.00067
1.00248
1.00024
0.993132
0.986968
0.982884
0.979655
0.978335
0.979268
0.983522
0.998017
1.01297
1.02011
1.02292
1.02534
1.02691
1.02547
1.01871
1.00737
0.999332
0.996664
0.997264
0.999508
1.00577
1.01947
1.03008
1.03525
1.03634
1.03629
1.0363
1.03392
1.02823
1.01692
1.00345
0.994844
0.993157
0.999131
1.03175
1.27763
1.71713
0.915853
0.917361
0.915829
0.907602
0.896112
0.891881
0.892012
0.893093
0.896753
0.912632
0.931726
0.938437
0.941184
0.940904
0.93368
0.925068
0.917864
0.914342
0.91511
0.919272
0.925939
0.929474
0.930642
0.931404
0.933837
0.938341
0.942637
0.947201
0.954229
0.960547
0.963238
0.963431
0.959693
0.949994
0.937226
0.930151
0.929189
0.93033
0.933032
0.942815
0.966699
0.983152
0.988302
0.98965
0.986408
0.980168
0.974469
0.966617
0.960206
0.959279
0.962249
0.96546
0.967462
0.96751
0.968367
0.977605
0.990154
0.997099
1.00118
1.00525
1.00819
1.0095
1.00669
0.997227
0.986435
0.980215
0.978911
0.979594
0.980826
0.985149
1.00173
1.01567
1.02085
1.02349
1.02437
1.0245
1.02481
1.02097
1.01069
1.00288
0.999696
0.999131
0.998824
1.00355
1.01739
1.02869
1.03371
1.03521
1.03592
1.03676
1.03429
1.02936
1.0174
1.00137
0.992023
0.987852
1.01169
1.27923
1.71626
0.922663
0.923114
0.914744
0.902791
0.894485
0.892916
0.893295
0.894688
0.90172
0.915185
0.928488
0.935792
0.937094
0.932932
0.928574
0.927691
0.926836
0.926617
0.927939
0.92973
0.930997
0.931054
0.926475
0.921483
0.92132
0.925903
0.936448
0.950615
0.963091
0.9695
0.971672
0.972305
0.969038
0.954753
0.937297
0.930717
0.929929
0.931303
0.937538
0.947515
0.958
0.972163
0.980768
0.982465
0.980839
0.979501
0.979455
0.979169
0.976879
0.973352
0.970585
0.968506
0.965729
0.962373
0.961802
0.964192
0.974221
0.990401
1.00185
1.007
1.00917
1.01067
1.01099
1.00719
0.996028
0.986095
0.982125
0.981984
0.983026
0.984606
0.988884
1.0009
1.01269
1.01894
1.02234
1.025
1.02693
1.02864
1.02586
1.01478
1.00407
0.998238
0.997059
0.997137
1.00167
1.01651
1.02993
1.03535
1.03625
1.03651
1.03598
1.0333
1.02938
1.01605
0.998695
0.988398
0.991105
1.27218
1.71343
0.926513
0.928363
0.916338
0.902314
0.89609
0.895235
0.897014
0.903817
0.911255
0.91571
0.91971
0.923885
0.926614
0.928101
0.929671
0.931726
0.936745
0.94146
0.942762
0.940849
0.935573
0.927103
0.918537
0.915264
0.91581
0.917907
0.926412
0.948994
0.96588
0.97174
0.973926
0.974709
0.969552
0.957174
0.944637
0.936856
0.935519
0.938714
0.945959
0.950233
0.952149
0.954494
0.96155
0.971013
0.977059
0.980296
0.98436
0.98878
0.990617
0.988068
0.980663
0.971826
0.963996
0.960771
0.961154
0.963013
0.965823
0.976562
0.995931
1.00554
1.008
1.0087
1.00768
1.00645
1.00479
0.998644
0.991206
0.987242
0.985543
0.984455
0.984348
0.986311
0.99713
1.01203
1.02172
1.0266
1.02989
1.0321
1.03284
1.02907
1.01626
1.0038
0.997741
0.99615
0.99655
1.002
1.01784
1.03108
1.03543
1.03556
1.03522
1.0332
1.03245
1.02874
1.01331
0.993719
0.984451
1.25905
1.7101
0.924472
0.922864
0.913743
0.906681
0.902713
0.903334
0.907535
0.912503
0.914686
0.914983
0.911191
0.90926
0.912762
0.92168
0.930903
0.939865
0.948205
0.952035
0.952861
0.950763
0.939599
0.922993
0.914117