/*--------------------------------*- C++ -*----------------------------------*\
  =========                 |
  \\      /  F ield         | OpenFOAM: The Open Source CFD Toolbox
   \\    /   O peration     | Website:  https://openfoam.org
    \\  /    A nd           | Version:  12
     \\/     M anipulation  |
\*---------------------------------------------------------------------------*/
FoamFile
{
    format      ascii;
    class       volVectorField;
    location    "25.4";
    object      U;
}
// * * * * * * * * * * * * * * * * * * * * * * * * * * * * * * * * * * * * * //

dimensions      [0 1 -1 0 0 0 0];

internalField   nonuniform List<vector> 
9801
(
(1.21084 -0.112461 0)
(1.21474 -0.114258 0)
(1.21097 -0.112262 0)
(1.2062 -0.109635 0)
(1.20167 -0.105334 0)
(1.19435 -0.0995059 0)
(1.18605 -0.0945668 0)
(1.18072 -0.0914081 0)
(1.17704 -0.0891165 0)
(1.17373 -0.0876438 0)
(1.17399 -0.0870386 0)
(1.18278 -0.0876833 0)
(1.18832 -0.0871336 0)
(1.18671 -0.0848659 0)
(1.18263 -0.081702 0)
(1.17819 -0.0775525 0)
(1.17348 -0.0731897 0)
(1.16527 -0.0679653 0)
(1.15344 -0.0637082 0)
(1.14683 -0.0616635 0)
(1.1424 -0.0609678 0)
(1.13816 -0.0606763 0)
(1.13487 -0.0604008 0)
(1.13453 -0.0594014 0)
(1.14288 -0.0568806 0)
(1.15311 -0.0533449 0)
(1.15512 -0.0498153 0)
(1.15282 -0.04652 0)
(1.1493 -0.0431856 0)
(1.14528 -0.0397011 0)
(1.1331 -0.034911 0)
(1.10971 -0.0309265 0)
(1.09506 -0.0282982 0)
(1.08953 -0.0269705 0)
(1.0855 -0.0264347 0)
(1.08157 -0.0257835 0)
(1.07945 -0.0249541 0)
(1.08719 -0.0236052 0)
(1.10188 -0.02154 0)
(1.10735 -0.0192469 0)
(1.10591 -0.0170062 0)
(1.10236 -0.0145298 0)
(1.09792 -0.012087 0)
(1.09285 -0.00935 0)
(1.07781 -0.00515469 0)
(1.05559 -0.00146674 0)
(1.04332 0.00055014 0)
(1.03774 0.00159348 0)
(1.03308 0.00228469 0)
(1.02909 0.00336467 0)
(1.03273 0.0055653 0)
(1.04759 0.00849901 0)
(1.05535 0.0109942 0)
(1.05484 0.0130427 0)
(1.05151 0.0148344 0)
(1.04709 0.0165425 0)
(1.04176 0.0175049 0)
(1.02731 0.019425 0)
(1.00351 0.021448 0)
(0.989411 0.0230946 0)
(0.981848 0.0248929 0)
(0.976502 0.0260918 0)
(0.974438 0.0286199 0)
(0.985866 0.0324743 0)
(0.996821 0.035107 0)
(0.998905 0.0371267 0)
(0.996031 0.0387783 0)
(0.990729 0.0400954 0)
(0.983829 0.0406428 0)
(0.971702 0.0417162 0)
(0.944746 0.0429441 0)
(0.924687 0.0433977 0)
(0.91465 0.0439993 0)
(0.9071 0.0442383 0)
(0.905027 0.0451052 0)
(0.917393 0.0475925 0)
(0.927059 0.0506111 0)
(0.926428 0.0532136 0)
(0.921164 0.0550268 0)
(0.913829 0.0561978 0)
(0.905076 0.0570234 0)
(0.884056 0.0570703 0)
(0.844432 0.0556867 0)
(0.817721 0.0542869 0)
(0.80419 0.0535289 0)
(0.795462 0.0528676 0)
(0.803085 0.0524981 0)
(0.821571 0.0537167 0)
(0.823583 0.0566393 0)
(0.814052 0.0606937 0)
(0.80111 0.0638764 0)
(0.782273 0.0656886 0)
(0.746235 0.064619 0)
(0.69035 0.0593999 0)
(0.631012 0.0530693 0)
(0.573817 0.0509844 0)
(0.525399 -0.0267037 0)
(-0.0559213 -0.15636 0)
(-1.44055 -0.123995 0)
(1.20973 -0.125647 0)
(1.21083 -0.122395 0)
(1.20817 -0.117122 0)
(1.20358 -0.110935 0)
(1.19571 -0.102244 0)
(1.18902 -0.0953485 0)
(1.1848 -0.0923217 0)
(1.18102 -0.0920048 0)
(1.17714 -0.0928656 0)
(1.17505 -0.0948659 0)
(1.17664 -0.0972304 0)
(1.18221 -0.0974 0)
(1.18579 -0.0935452 0)
(1.18424 -0.0888796 0)
(1.18059 -0.0832764 0)
(1.17559 -0.076164 0)
(1.16945 -0.069329 0)
(1.16331 -0.0651712 0)
(1.15624 -0.064658 0)
(1.14982 -0.0664132 0)
(1.14473 -0.0670915 0)
(1.14009 -0.0670488 0)
(1.13572 -0.0663684 0)
(1.1332 -0.0647351 0)
(1.14055 -0.0611792 0)
(1.15057 -0.0562732 0)
(1.15202 -0.0514104 0)
(1.14969 -0.0466467 0)
(1.14598 -0.0411136 0)
(1.14055 -0.0351785 0)
(1.13062 -0.0298727 0)
(1.11436 -0.0286022 0)
(1.09898 -0.0310552 0)
(1.09155 -0.0315425 0)
(1.08684 -0.0312464 0)
(1.08245 -0.0310167 0)
(1.07943 -0.030391 0)
(1.08642 -0.0285026 0)
(1.10128 -0.0257522 0)
(1.10655 -0.022775 0)
(1.10502 -0.0197938 0)
(1.1015 -0.0165156 0)
(1.09711 -0.0132688 0)
(1.0912 -0.00941456 0)
(1.07478 -0.00402759 0)
(1.05407 -0.000495626 0)
(1.04305 -0.000300649 0)
(1.03744 -0.000525846 0)
(1.03284 -0.000484461 0)
(1.02871 2.3115e-05 0)
(1.0325 0.00193257 0)
(1.04806 0.00479311 0)
(1.05564 0.00721675 0)
(1.05469 0.00925233 0)
(1.05108 0.0110386 0)
(1.04656 0.0125488 0)
(1.04134 0.0136617 0)
(1.02662 0.0154143 0)
(1.00265 0.0173853 0)
(0.988099 0.0193 0)
(0.980392 0.0213957 0)
(0.97495 0.0227919 0)
(0.971948 0.0246502 0)
(0.983147 0.0284522 0)
(0.996513 0.0326712 0)
(0.999012 0.0347152 0)
(0.995503 0.0354219 0)
(0.9899 0.0361789 0)
(0.983189 0.0368247 0)
(0.971014 0.0381747 0)
(0.944425 0.0391829 0)
(0.923484 0.0393035 0)
(0.912365 0.03985 0)
(0.904602 0.0407072 0)
(0.899819 0.0424529 0)
(0.909789 0.0492164 0)
(0.922822 0.055555 0)
(0.924932 0.0573422 0)
(0.92067 0.056769 0)
(0.913666 0.0550439 0)
(0.904809 0.0536145 0)
(0.884658 0.051943 0)
(0.846179 0.048981 0)
(0.817801 0.0442022 0)
(0.801794 0.0411952 0)
(0.791218 0.0396244 0)
(0.789078 0.0422108 0)
(0.803167 0.0553818 0)
(0.81031 0.0669067 0)
(0.804405 0.0719539 0)
(0.791945 0.0730127 0)
(0.774676 0.0721795 0)
(0.739882 0.067768 0)
(0.684692 0.0581616 0)
(0.622826 0.0491224 0)
(0.560107 0.0479135 0)
(0.513353 -0.0331833 0)
(-0.0755969 -0.138493 0)
(-1.44944 -0.127893 0)
(1.21216 -0.11891 0)
(1.20735 -0.11794 0)
(1.20377 -0.11113 0)
(1.19692 -0.100879 0)
(1.19235 -0.0950352 0)
(1.18826 -0.0918984 0)
(1.18445 -0.0910319 0)
(1.18172 -0.0924337 0)
(1.17956 -0.0947856 0)
(1.17817 -0.0964213 0)
(1.17944 -0.0968421 0)
(1.18133 -0.0954088 0)
(1.18101 -0.0908211 0)
(1.17949 -0.0825216 0)
(1.17635 -0.0723213 0)
(1.1733 -0.0660407 0)
(1.17022 -0.0639138 0)
(1.16574 -0.0641883 0)
(1.16074 -0.0652599 0)
(1.1547 -0.067199 0)
(1.14778 -0.0690026 0)
(1.14163 -0.0695688 0)
(1.13648 -0.0686108 0)
(1.13202 -0.0661155 0)
(1.13448 -0.0592842 0)
(1.14284 -0.0492337 0)
(1.14619 -0.041286 0)
(1.14583 -0.0348509 0)
(1.14353 -0.0290921 0)
(1.13963 -0.0251992 0)
(1.13418 -0.0233061 0)
(1.11937 -0.0244467 0)
(1.10216 -0.0263467 0)
(1.0932 -0.0276003 0)
(1.08832 -0.0285291 0)
(1.0838 -0.0292593 0)
(1.08031 -0.0300923 0)
(1.08507 -0.0291558 0)
(1.09816 -0.0243872 0)
(1.10285 -0.0183758 0)
(1.10181 -0.0128257 0)
(1.09871 -0.0077676 0)
(1.09458 -0.00351993 0)
(1.08872 0.000594859 0)
(1.07418 0.00397478 0)
(1.05517 0.00324924 0)
(1.04367 0.000968109 0)
(1.03741 -4.05834e-06 0)
(1.03235 -0.000361263 0)
(1.02778 -0.000617209 0)
(1.03065 0.000520262 0)
(1.04612 0.00463227 0)
(1.05421 0.00849839 0)
(1.05343 0.0112086 0)
(1.0498 0.0131606 0)
(1.04517 0.0143474 0)
(1.03987 0.0150805 0)
(1.0245 0.0163113 0)
(0.99972 0.0181217 0)
(0.98468 0.0201109 0)
(0.976859 0.0220336 0)
(0.971063 0.0233156 0)
(0.966974 0.0251208 0)
(0.977489 0.0293044 0)
(0.993156 0.0326187 0)
(0.995232 0.0340189 0)
(0.991202 0.0357379 0)
(0.986 0.0376253 0)
(0.97979 0.0394206 0)
(0.968531 0.0413092 0)
(0.942795 0.0413048 0)
(0.91913 0.0409556 0)
(0.905967 0.0420971 0)
(0.897707 0.0433484 0)
(0.891382 0.0439582 0)
(0.896926 0.0478497 0)
(0.912896 0.0542314 0)
(0.917493 0.0559523 0)
(0.913724 0.0560645 0)
(0.907203 0.0565732 0)
(0.89944 0.0567127 0)
(0.883921 0.0554298 0)
(0.848464 0.0468023 0)
(0.813815 0.0382387 0)
(0.792232 0.0351141 0)
(0.779315 0.0346707 0)
(0.770584 0.034055 0)
(0.777489 0.0394237 0)
(0.790565 0.047582 0)
(0.788999 0.0506738 0)
(0.777565 0.0520754 0)
(0.762381 0.0526161 0)
(0.732583 0.0490324 0)
(0.684755 0.0375623 0)
(0.629242 0.0223951 0)
(0.565573 0.00955844 0)
(0.531658 -0.0988067 0)
(-0.0913243 -0.154336 0)
(-1.46714 -0.124035 0)
(1.21664 -0.109525 0)
(1.20582 -0.106955 0)
(1.1976 -0.100005 0)
(1.19472 -0.0971032 0)
(1.19142 -0.0961792 0)
(1.1889 -0.096306 0)
(1.18772 -0.0981049 0)
(1.18487 -0.0997593 0)
(1.1808 -0.100757 0)
(1.17767 -0.100937 0)
(1.17597 -0.0981063 0)
(1.175 -0.090777 0)
(1.17386 -0.0806898 0)
(1.17266 -0.0720206 0)
(1.1725 -0.0669935 0)
(1.17318 -0.0658418 0)
(1.17212 -0.067211 0)
(1.16834 -0.0686684 0)
(1.1632 -0.0699377 0)
(1.15722 -0.0719886 0)
(1.14931 -0.0730235 0)
(1.14034 -0.0708512 0)
(1.13269 -0.0653555 0)
(1.12842 -0.0600045 0)
(1.127 -0.0535505 0)
(1.13483 -0.0421178 0)
(1.14114 -0.0341922 0)
(1.14127 -0.0305213 0)
(1.13867 -0.0282905 0)
(1.13495 -0.0263568 0)
(1.13089 -0.0243248 0)
(1.11966 -0.021547 0)
(1.10369 -0.0217656 0)
(1.09507 -0.0234142 0)
(1.08983 -0.0249431 0)
(1.08519 -0.0261891 0)
(1.08097 -0.0270295 0)
(1.08167 -0.026254 0)
(1.09143 -0.019411 0)
(1.09649 -0.0120926 0)
(1.0957 -0.00725315 0)
(1.09287 -0.00340135 0)
(1.08903 -0.000701574 0)
(1.0844 0.00093208 0)
(1.07304 0.000539894 0)
(1.0563 -0.00222353 0)
(1.04386 -0.00429323 0)
(1.03643 -0.00516484 0)
(1.03078 -0.00529688 0)
(1.0258 -0.00520288 0)
(1.0257 -0.00356017 0)
(1.0405 0.00222896 0)
(1.05036 0.00694922 0)
(1.05003 0.00935316 0)
(1.04629 0.0109824 0)
(1.04152 0.0118986 0)
(1.03582 0.0126526 0)
(1.01936 0.0141531 0)
(0.993951 0.0154238 0)
(0.978938 0.0160951 0)
(0.971582 0.016393 0)
(0.965984 0.0163938 0)
(0.9616 0.0167465 0)
(0.969312 0.020654 0)
(0.984333 0.0290886 0)
(0.987203 0.0352898 0)
(0.983549 0.0385119 0)
(0.978605 0.0402721 0)
(0.973036 0.0412734 0)
(0.963662 0.0415107 0)
(0.940018 0.0381868 0)
(0.913685 0.0345157 0)
(0.898108 0.0342486 0)
(0.888446 0.0356981 0)
(0.881215 0.0366576 0)
(0.880029 0.0398413 0)
(0.895562 0.0506394 0)
(0.904912 0.0583691 0)
(0.903092 0.0599588 0)
(0.897367 0.0593733 0)
(0.890122 0.058108 0)
(0.878862 0.0554305 0)
(0.849482 0.0458855 0)
(0.810356 0.0330204 0)
(0.782895 0.024945 0)
(0.766214 0.0229507 0)
(0.755305 0.0226089 0)
(0.75057 0.0242817 0)
(0.75851 0.0375117 0)
(0.760604 0.0529381 0)
(0.751915 0.060661 0)
(0.738977 0.0612589 0)
(0.717819 0.0563705 0)
(0.680432 0.0363739 0)
(0.632791 0.00877293 0)
(0.574802 -0.011179 0)
(0.563977 -0.119499 0)
(-0.102075 -0.162657 0)
(-1.48701 -0.126112 0)
(1.2138 -0.0951395 0)
(1.20529 -0.0862927 0)
(1.20271 -0.0863479 0)
(1.19874 -0.0901246 0)
(1.1954 -0.095645 0)
(1.19338 -0.102153 0)
(1.19094 -0.107208 0)
(1.18553 -0.108186 0)
(1.17938 -0.106422 0)
(1.17276 -0.0994354 0)
(1.16735 -0.0882984 0)
(1.1657 -0.0765614 0)
(1.16685 -0.0673922 0)
(1.16957 -0.0648049 0)
(1.17257 -0.0679279 0)
(1.17429 -0.071323 0)
(1.17302 -0.0728863 0)
(1.16897 -0.0736759 0)
(1.16362 -0.074083 0)
(1.15758 -0.0744 0)
(1.14528 -0.0707637 0)
(1.13404 -0.0633324 0)
(1.12755 -0.0566064 0)
(1.12366 -0.0516781 0)
(1.12121 -0.0477982 0)
(1.12728 -0.0415375 0)
(1.13504 -0.0352285 0)
(1.13506 -0.031415 0)
(1.13208 -0.0281595 0)
(1.12825 -0.0241105 0)
(1.12389 -0.0201076 0)
(1.1174 -0.0172118 0)
(1.10495 -0.0188185 0)
(1.09555 -0.0222581 0)
(1.08933 -0.024784 0)
(1.08382 -0.0259767 0)
(1.07894 -0.0253556 0)
(1.07553 -0.0235236 0)
(1.08051 -0.0156021 0)
(1.08862 -0.00575828 0)
(1.09005 -0.00099509 0)
(1.08789 0.000907425 0)
(1.08408 0.00188532 0)
(1.07948 0.0021677 0)
(1.07184 0.000977966 0)
(1.0543 -0.00310447 0)
(1.0392 -0.00468725 0)
(1.03086 -0.00381107 0)
(1.02525 -0.0028989 0)
(1.0203 -0.00239776 0)
(1.01788 -0.00122945 0)
(1.03041 0.00412997 0)
(1.04342 0.0103079 0)
(1.04396 0.0130316 0)
(1.03988 0.0142517 0)
(1.03496 0.0151887 0)
(1.02858 0.0169045 0)
(1.01269 0.0185796 0)
(0.987992 0.0177916 0)
(0.971833 0.0167124 0)
(0.963819 0.0169426 0)
(0.957984 0.0173225 0)
(0.952644 0.017789 0)
(0.955355 0.0210714 0)
(0.970109 0.0297603 0)
(0.976178 0.0364291 0)
(0.973783 0.0396683 0)
(0.969294 0.0416744 0)
(0.964229 0.0428584 0)
(0.957354 0.0433814 0)
(0.938372 0.0391741 0)
(0.908938 0.0301878 0)
(0.888671 0.0267402 0)
(0.876729 0.0289653 0)
(0.868583 0.0324747 0)
(0.863452 0.0361507 0)
(0.874415 0.0459741 0)
(0.890562 0.0570352 0)
(0.892449 0.0595888 0)
(0.887463 0.0577239 0)
(0.880604 0.0552961 0)
(0.87114 0.0527807 0)
(0.848316 0.0468357 0)
(0.81014 0.0357384 0)
(0.777258 0.024017 0)
(0.756102 0.0152854 0)
(0.743201 0.0114746 0)
(0.73364 0.0102175 0)
(0.733728 0.0145358 0)
(0.739569 0.0276009 0)
(0.736309 0.0384181 0)
(0.725166 0.0419346 0)
(0.711419 0.0402947 0)
(0.688697 0.0267065 0)
(0.651652 0.00405262 0)
(0.598987 -0.0162884 0)
(0.582103 -0.114676 0)
(-0.108478 -0.166897 0)
(-1.50356 -0.124266 0)
(1.20902 -0.0797564 0)
(1.20528 -0.0766749 0)
(1.20589 -0.0825807 0)
(1.20533 -0.0919906 0)
(1.20174 -0.101472 0)
(1.1965 -0.109513 0)
(1.1909 -0.113074 0)
(1.1814 -0.112347 0)
(1.16874 -0.102002 0)
(1.16033 -0.0883415 0)
(1.15645 -0.0785453 0)
(1.15502 -0.0710565 0)
(1.16114 -0.0649846 0)
(1.16945 -0.0649752 0)
(1.1729 -0.0689888 0)
(1.17275 -0.0729762 0)
(1.17056 -0.0755259 0)
(1.16666 -0.0767475 0)
(1.16202 -0.0764033 0)
(1.15027 -0.0706898 0)
(1.13494 -0.0610039 0)
(1.12577 -0.055769 0)
(1.12086 -0.0534029 0)
(1.11672 -0.0510729 0)
(1.11368 -0.0484848 0)
(1.11782 -0.0441659 0)
(1.12615 -0.0371732 0)
(1.12743 -0.0309089 0)
(1.12497 -0.026049 0)
(1.12139 -0.0225326 0)
(1.11719 -0.0208886 0)
(1.11258 -0.0206337 0)
(1.10408 -0.0223486 0)
(1.09377 -0.0248655 0)
(1.0856 -0.0255394 0)
(1.07828 -0.0243346 0)
(1.07242 -0.0219636 0)
(1.06835 -0.020305 0)
(1.06802 -0.0167417 0)
(1.07806 -0.00777571 0)
(1.08341 -0.00184611 0)
(1.08199 -0.000211747 0)
(1.07809 0.000128665 0)
(1.07357 0.000320806 0)
(1.06785 0.000831303 0)
(1.05174 -0.000405524 0)
(1.03374 -0.00297774 0)
(1.02469 -0.00366436 0)
(1.01918 -0.00378777 0)
(1.01398 -0.00400337 0)
(1.01019 -0.00409915 0)
(1.01865 -0.00110446 0)
(1.03285 0.00572704 0)
(1.03446 0.0109014 0)
(1.03061 0.0145425 0)
(1.02544 0.018354 0)
(1.01919 0.0218255 0)
(1.0071 0.0231187 0)
(0.985038 0.0189566 0)
(0.967213 0.014383 0)
(0.957627 0.0130807 0)
(0.951067 0.0134428 0)
(0.945056 0.0139077 0)
(0.942442 0.0158013 0)
(0.953444 0.0246413 0)
(0.963343 0.034339 0)
(0.963318 0.0387091 0)
(0.959815 0.0409808 0)
(0.95519 0.0425282 0)
(0.949934 0.0428275 0)
(0.938178 0.0406751 0)
(0.908926 0.0311314 0)
(0.880973 0.0227163 0)
(0.866325 0.0214886 0)
(0.857849 0.0235693 0)
(0.85142 0.0263073 0)
(0.854537 0.033753 0)
(0.873302 0.0493556 0)
(0.882676 0.0596123 0)
(0.879851 0.0615549 0)
(0.873078 0.0608828 0)
(0.864676 0.0598067 0)
(0.846833 0.0558813 0)
(0.812731 0.0446543 0)
(0.779219 0.0310794 0)
(0.754388 0.0172161 0)
(0.73622 0.00554151 0)
(0.725199 0.000100925 0)
(0.717365 -0.00140967 0)
(0.718591 0.00520695 0)
(0.72022 0.0171057 0)
(0.714512 0.0243225 0)
(0.705367 0.024147 0)
(0.693574 0.0162227 0)
(0.672196 -0.00257399 0)
(0.636795 -0.0229447 0)
(0.613647 -0.100772 0)
(-0.113165 -0.170284 0)
(-1.51445 -0.120892 0)
(1.20313 -0.0763882 0)
(1.20824 -0.0724722 0)
(1.21173 -0.0860157 0)
(1.2096 -0.0955022 0)
(1.20559 -0.1017 0)
(1.20049 -0.106711 0)
(1.18764 -0.110654 0)
(1.16689 -0.104031 0)
(1.15381 -0.091704 0)
(1.14837 -0.083908 0)
(1.1447 -0.0778908 0)
(1.14475 -0.0711564 0)
(1.15656 -0.065455 0)
(1.17048 -0.0661184 0)
(1.17355 -0.0694644 0)
(1.17117 -0.0721331 0)
(1.16744 -0.0738277 0)
(1.16343 -0.0740234 0)
(1.15401 -0.0702739 0)
(1.1382 -0.0622186 0)
(1.12451 -0.0562926 0)
(1.11705 -0.0535606 0)
(1.11236 -0.0517702 0)
(1.10836 -0.0493952 0)
(1.1054 -0.0464209 0)
(1.10769 -0.0422234 0)
(1.115 -0.0365633 0)
(1.1182 -0.031345 0)
(1.11774 -0.0268595 0)
(1.11544 -0.0233429 0)
(1.11152 -0.0215755 0)
(1.10677 -0.0209884 0)
(1.10046 -0.0213261 0)
(1.08915 -0.0234056 0)
(1.07914 -0.0233055 0)
(1.0714 -0.0214539 0)
(1.06534 -0.0192665 0)
(1.06066 -0.0175655 0)
(1.05747 -0.0158423 0)
(1.06509 -0.00982466 0)
(1.07502 -0.00295755 0)
(1.075 0.000239696 0)
(1.07125 0.00209877 0)
(1.06689 0.00393229 0)
(1.06182 0.00593888 0)
(1.04997 0.00563143 0)
(1.03135 0.000434836 0)
(1.01999 -0.00350814 0)
(1.0142 -0.00437761 0)
(1.00892 -0.0045187 0)
(1.00415 -0.00481761 0)
(1.00638 -0.00273645 0)
(1.01783 0.00631778 0)
(1.02187 0.0149273 0)
(1.01965 0.021149 0)
(1.0155 0.0260918 0)
(1.01091 0.0286626 0)
(1.00395 0.0294624 0)
(0.986784 0.0245161 0)
(0.965779 0.0161168 0)
(0.95228 0.011807 0)
(0.944131 0.0118237 0)
(0.937629 0.0134207 0)
(0.932375 0.0149933 0)
(0.936544 0.0214313 0)
(0.950064 0.0334735 0)
(0.954066 0.0396119 0)
(0.951496 0.0407365 0)
(0.94717 0.0406659 0)
(0.942252 0.0404429 0)
(0.935278 0.0399891 0)
(0.912591 0.0341262 0)
(0.880347 0.0246312 0)
(0.8607 0.0189533 0)
(0.850411 0.0173329 0)
(0.843423 0.0180605 0)
(0.839707 0.0210128 0)
(0.852389 0.0336331 0)
(0.869893 0.0510221 0)
(0.872261 0.0595045 0)
(0.866081 0.0611287 0)
(0.857732 0.0612207 0)
(0.844416 0.0607631 0)
(0.819905 0.0526386 0)
(0.787982 0.0356303 0)
(0.760093 0.0196888 0)
(0.738463 0.00696149 0)
(0.722492 -0.00449924 0)
(0.712758 -0.0106489 0)
(0.706699 -0.0123948 0)
(0.708656 -0.00616537 0)
(0.709284 0.00177693 0)
(0.704837 0.00314498 0)
(0.698479 -0.00504934 0)
(0.685959 -0.0194413 0)
(0.665134 -0.0356817 0)
(0.643377 -0.0811296 0)
(-0.112993 -0.169985 0)
(-1.52202 -0.115788 0)
(1.20058 -0.0828336 0)
(1.21704 -0.0803984 0)
(1.21689 -0.0885423 0)
(1.2125 -0.0939992 0)
(1.20771 -0.0979703 0)
(1.2 -0.101033 0)
(1.17743 -0.0977166 0)
(1.1522 -0.0890497 0)
(1.14235 -0.0864773 0)
(1.13886 -0.0856984 0)
(1.13575 -0.0841733 0)
(1.13663 -0.0814281 0)
(1.15424 -0.0766137 0)
(1.1723 -0.0730193 0)
(1.17368 -0.071528 0)
(1.16952 -0.0706238 0)
(1.16499 -0.0691375 0)
(1.15705 -0.0651054 0)
(1.1455 -0.060383 0)
(1.13068 -0.0586824 0)
(1.11736 -0.0586312 0)
(1.10947 -0.0579792 0)
(1.10441 -0.0562625 0)
(1.10004 -0.0536391 0)
(1.09679 -0.0497141 0)
(1.09759 -0.0431121 0)
(1.10455 -0.0346005 0)
(1.10968 -0.0293716 0)
(1.11072 -0.0276916 0)
(1.10962 -0.0273323 0)
(1.10675 -0.0267971 0)
(1.10245 -0.0260457 0)
(1.09751 -0.0255849 0)
(1.08568 -0.0266365 0)
(1.07288 -0.026685 0)
(1.06479 -0.0241254 0)
(1.05885 -0.0214943 0)
(1.05375 -0.0192608 0)
(1.0494 -0.0173068 0)
(1.05326 -0.0126944 0)
(1.06494 -0.00552838 0)
(1.06704 -0.000597468 0)
(1.06405 0.00277602 0)
(1.0599 0.00595074 0)
(1.05534 0.0079443 0)
(1.0483 0.00840005 0)
(1.03183 0.00313927 0)
(1.01781 -0.00280052 0)
(1.01052 -0.00595224 0)
(1.00501 -0.00667216 0)
(0.999562 -0.00614826 0)
(0.995598 -0.00366615 0)
(1.00155 0.00683967 0)
(1.00871 0.0190186 0)
(1.00922 0.0252178 0)
(1.00697 0.0287568 0)
(1.00358 0.0311478 0)
(0.999073 0.0319258 0)
(0.989479 0.0298451 0)
(0.968238 0.0205899 0)
(0.94979 0.0132647 0)
(0.9389 0.0112397 0)
(0.93175 0.0119875 0)
(0.925808 0.0132301 0)
(0.923479 0.0163826 0)
(0.935364 0.0274721 0)
(0.945664 0.0382721 0)
(0.944984 0.0414246 0)
(0.940479 0.0414182 0)
(0.935544 0.0409951 0)
(0.929845 0.0404633 0)
(0.915058 0.037477 0)
(0.8853 0.0276533 0)
(0.861605 0.0193406 0)
(0.847799 0.0148307 0)
(0.839028 0.012951 0)
(0.832177 0.0131953 0)
(0.832018 0.0181766 0)
(0.847757 0.035638 0)
(0.85859 0.0522219 0)
(0.856758 0.0602363 0)
(0.849671 0.0630235 0)
(0.840822 0.0630253 0)
(0.825835 0.0598199 0)
(0.800736 0.0475346 0)
(0.772085 0.0286374 0)
(0.747788 0.0107392 0)
(0.727851 -0.00340108 0)
(0.713076 -0.0151788 0)
(0.704378 -0.021297 0)
(0.700066 -0.0230426 0)
(0.703361 -0.0174343 0)
(0.704128 -0.0139396 0)
(0.701012 -0.0210117 0)
(0.693971 -0.0366761 0)
(0.681345 -0.0496 0)
(0.665707 -0.0717473 0)
(-0.108796 -0.168351 0)
(-1.52777 -0.110827 0)
(1.20068 -0.0942442 0)
(1.22325 -0.0939813 0)
(1.21985 -0.0946173 0)
(1.21434 -0.0955615 0)
(1.2081 -0.0960641 0)
(1.19236 -0.0914366 0)
(1.16564 -0.0801399 0)
(1.14722 -0.0762043 0)
(1.1394 -0.0769952 0)
(1.13574 -0.0784443 0)
(1.13274 -0.0802804 0)
(1.13258 -0.0826658 0)
(1.14725 -0.0838914 0)
(1.16607 -0.0780941 0)
(1.16831 -0.0714581 0)
(1.16493 -0.0663932 0)
(1.15897 -0.05959 0)
(1.15131 -0.0539148 0)
(1.14263 -0.0517315 0)
(1.1305 -0.0522244 0)
(1.11656 -0.0550539 0)
(1.10542 -0.056892 0)
(1.09772 -0.0565722 0)
(1.0921 -0.0542525 0)
(1.08772 -0.0510928 0)
(1.08625 -0.0455128 0)
(1.09438 -0.0353493 0)
(1.10404 -0.0277311 0)
(1.10683 -0.0256875 0)
(1.10549 -0.0255003 0)
(1.10251 -0.0256819 0)
(1.09867 -0.0258166 0)
(1.09457 -0.025789 0)
(1.08424 -0.0264918 0)
(1.0681 -0.0278722 0)
(1.05845 -0.0270959 0)
(1.05241 -0.0247526 0)
(1.04711 -0.0219258 0)
(1.04238 -0.0191478 0)
(1.04307 -0.0138571 0)
(1.05402 -0.0048135 0)
(1.05876 0.0017663 0)
(1.05728 0.00541197 0)
(1.0541 0.00739619 0)
(1.05041 0.007536 0)
(1.04591 0.00699797 0)
(1.03582 0.00323208 0)
(1.01951 -0.00478161 0)
(1.00814 -0.00808207 0)
(0.999697 -0.00739631 0)
(0.992314 -0.00379707 0)
(0.9869 -0.000143354 0)
(0.986396 0.00644418 0)
(0.996385 0.0193337 0)
(1.00145 0.0273703 0)
(1.0006 0.0301927 0)
(0.997654 0.0313029 0)
(0.993638 0.0320509 0)
(0.988638 0.0327072 0)
(0.973779 0.0281877 0)
(0.95146 0.0180803 0)
(0.937048 0.0120654 0)
(0.928325 0.0100102 0)
(0.921932 0.0104492 0)
(0.916059 0.011328 0)
(0.919248 0.0181743 0)
(0.933414 0.033116 0)
(0.938058 0.0425115 0)
(0.934849 0.0450602 0)
(0.929986 0.0452436 0)
(0.924985 0.0450278 0)
(0.916322 0.0433466 0)
(0.894273 0.0337274 0)
(0.867832 0.0201414 0)
(0.849435 0.0121977 0)
(0.837014 0.00937069 0)
(0.829115 0.00827563 0)
(0.82274 0.00793423 0)
(0.825052 0.0141911 0)
(0.838316 0.0326607 0)
(0.845335 0.0472246 0)
(0.843737 0.0534081 0)
(0.837081 0.0563808 0)
(0.827106 0.0576954 0)
(0.810414 0.0552552 0)
(0.787626 0.0433245 0)
(0.762263 0.023236 0)
(0.738651 0.0028561 0)
(0.718771 -0.0129637 0)
(0.704916 -0.0259441 0)
(0.697391 -0.0329413 0)
(0.695704 -0.0345951 0)
(0.700487 -0.029523 0)
(0.701699 -0.0312126 0)
(0.699452 -0.0461252 0)
(0.692114 -0.0580949 0)
(0.681412 -0.0675712 0)
(-0.103473 -0.163784 0)
(-1.53239 -0.107774 0)
(1.20056 -0.103522 0)
(1.22008 -0.106378 0)
(1.21698 -0.102576 0)
(1.21204 -0.0995527 0)
(1.20156 -0.0911538 0)
(1.17969 -0.0764198 0)
(1.16053 -0.0683985 0)
(1.14814 -0.0683421 0)
(1.14119 -0.0717486 0)
(1.13687 -0.0754837 0)
(1.13392 -0.0810489 0)
(1.13342 -0.0871188 0)
(1.13946 -0.0884115 0)
(1.15176 -0.0792881 0)
(1.15655 -0.0675297 0)
(1.15527 -0.058134 0)
(1.15152 -0.0502516 0)
(1.1471 -0.0465048 0)
(1.14227 -0.0454931 0)
(1.13354 -0.0481428 0)
(1.11913 -0.0536371 0)
(1.10484 -0.0568609 0)
(1.0937 -0.055981 0)
(1.08625 -0.0530889 0)
(1.08112 -0.04998 0)
(1.0773 -0.0471234 0)
(1.08224 -0.0394823 0)
(1.098 -0.0280823 0)
(1.10486 -0.0231994 0)
(1.10396 -0.0226624 0)
(1.10069 -0.022918 0)
(1.09685 -0.0232534 0)
(1.09299 -0.0234425 0)
(1.08431 -0.0249872 0)
(1.06679 -0.0281791 0)
(1.05387 -0.029567 0)
(1.04627 -0.0282336 0)
(1.04011 -0.0248083 0)
(1.03496 -0.0209159 0)
(1.03287 -0.0155729 0)
(1.04242 -0.00506038 0)
(1.05118 0.00352754 0)
(1.05239 0.00643078 0)
(1.05101 0.00654545 0)
(1.04844 0.00570513 0)
(1.04437 0.00490931 0)
(1.03882 0.00328281 0)
(1.02375 -0.00351589 0)
(1.00608 -0.00868625 0)
(0.99351 -0.00726947 0)
(0.985007 -0.00276911 0)
(0.979049 0.0015922 0)
(0.975453 0.00585465 0)
(0.983733 0.0155934 0)
(0.994344 0.0255971 0)
(0.995275 0.0299774 0)
(0.99224 0.0321245 0)
(0.988435 0.0336161 0)
(0.984373 0.0336394 0)
(0.9779 0.0317071 0)
(0.958613 0.0216914 0)
(0.938971 0.0115059 0)
(0.92751 0.00688024 0)
(0.919285 0.00472747 0)
(0.911923 0.00583451 0)
(0.90648 0.00940257 0)
(0.913986 0.024926 0)
(0.926209 0.043788 0)
(0.928465 0.0516493 0)
(0.925311 0.0526581 0)
(0.920752 0.0519163 0)
(0.915538 0.0507069 0)
(0.903347 0.0444053 0)
(0.87752 0.0289862 0)
(0.854617 0.0157679 0)
(0.83953 0.00865495 0)
(0.828424 0.00504346 0)
(0.819718 0.00323912 0)
(0.813031 0.00340743 0)
(0.813929 0.0107569 0)
(0.8246 0.0290187 0)
(0.830338 0.0435121 0)
(0.828608 0.0504512 0)
(0.82188 0.0540297 0)
(0.812301 0.0541428 0)
(0.797843 0.04949 0)
(0.778572 0.0389109 0)
(0.753508 0.019498 0)
(0.728793 -0.00342282 0)
(0.709788 -0.02295 0)
(0.697673 -0.0399133 0)
(0.691504 -0.0479395 0)
(0.69309 -0.0477398 0)
(0.699594 -0.0434812 0)
(0.703231 -0.0506004 0)
(0.701692 -0.0623954 0)
(0.69451 -0.0661091 0)
(-0.0979212 -0.158944 0)
(-1.53691 -0.105406 0)
(1.19773 -0.110641 0)
(1.20873 -0.110439 0)
(1.20697 -0.102811 0)
(1.20159 -0.0931098 0)
(1.18753 -0.0756664 0)
(1.17272 -0.0644312 0)
(1.16088 -0.0629302 0)
(1.15208 -0.0658595 0)
(1.14565 -0.0706906 0)
(1.14084 -0.0778591 0)
(1.13735 -0.0851652 0)
(1.1332 -0.0866228 0)
(1.13025 -0.0836007 0)
(1.13503 -0.073147 0)
(1.14264 -0.0590838 0)
(1.14535 -0.0495518 0)
(1.14493 -0.04454 0)
(1.14232 -0.0430263 0)
(1.13832 -0.0426561 0)
(1.13415 -0.0428772 0)
(1.12285 -0.046957 0)
(1.10447 -0.0523758 0)
(1.09061 -0.0530786 0)
(1.08197 -0.0512476 0)
(1.0763 -0.0483754 0)
(1.07198 -0.0458851 0)
(1.07143 -0.041873 0)
(1.08827 -0.0306316 0)
(1.10258 -0.0218071 0)
(1.1034 -0.0201001 0)
(1.10006 -0.0203571 0)
(1.09615 -0.0208777 0)
(1.09218 -0.0215199 0)
(1.08544 -0.0234438 0)
(1.06775 -0.0281787 0)
(1.05043 -0.0309043 0)
(1.03925 -0.0290396 0)
(1.03219 -0.0249248 0)
(1.02722 -0.0210951 0)
(1.02367 -0.0172321 0)
(1.03019 -0.00918735 0)
(1.04437 0.000936599 0)
(1.04993 0.00498643 0)
(1.04979 0.00494783 0)
(1.04701 0.00433213 0)
(1.04322 0.00357537 0)
(1.03881 0.00309442 0)
(1.02679 0.000359193 0)
(1.00446 -0.00576194 0)
(0.987974 -0.00813713 0)
(0.979102 -0.00696295 0)
(0.973143 -0.00423597 0)
(0.968127 -0.000666671 0)
(0.970975 0.0079226 0)
(0.984308 0.0224114 0)
(0.989187 0.0312849 0)
(0.987225 0.0344244 0)
(0.984252 0.0353297 0)
(0.981873 0.034671 0)
(0.977948 0.0332347 0)
(0.967571 0.0265465 0)
(0.946015 0.0108471 0)
(0.928753 0.00130531 0)
(0.916541 -0.000280227 0)
(0.905664 0.00284587 0)
(0.897176 0.00800574 0)
(0.893736 0.0160781 0)
(0.906602 0.0373351 0)
(0.918665 0.0550332 0)
(0.920306 0.0602984 0)
(0.917297 0.0593536 0)
(0.912739 0.0567039 0)
(0.906633 0.0529051 0)
(0.891333 0.0409359 0)
(0.865918 0.0221614 0)
(0.845505 0.00990509 0)
(0.830254 0.00447944 0)
(0.817427 0.00240919 0)
(0.808545 0.000559418 0)
(0.802622 -0.000515022 0)
(0.803669 0.0031585 0)
(0.81334 0.0174159 0)
(0.819755 0.0312328 0)
(0.819109 0.0391592 0)
(0.812556 0.0439494 0)
(0.802054 0.045501 0)
(0.78751 0.0420233 0)
(0.769063 0.0321572 0)
(0.744642 0.0122092 0)
(0.720921 -0.0150058 0)
(0.703879 -0.0403098 0)
(0.693231 -0.0583876 0)
(0.688155 -0.063475 0)
(0.693175 -0.0605063 0)
(0.703754 -0.0587176 0)
(0.710287 -0.0657544 0)
(0.707047 -0.0685385 0)
(-0.091669 -0.154869 0)
(-1.5418 -0.104359 0)
(1.19364 -0.109015 0)
(1.19607 -0.10536 0)
(1.1937 -0.0953476 0)
(1.18455 -0.0781847 0)
(1.17546 -0.0663248 0)
(1.16872 -0.0629565 0)
(1.16262 -0.0633472 0)
(1.15649 -0.0664577 0)
(1.15083 -0.0716184 0)
(1.14575 -0.0776055 0)
(1.14007 -0.0806876 0)
(1.1301 -0.0781848 0)
(1.12438 -0.0726946 0)
(1.1226 -0.0662005 0)
(1.12968 -0.0539814 0)
(1.13835 -0.0448862 0)
(1.1408 -0.0418471 0)
(1.13904 -0.0406833 0)
(1.13536 -0.0400209 0)
(1.13126 -0.0395711 0)
(1.12502 -0.0399985 0)
(1.10597 -0.044952 0)
(1.08703 -0.0485902 0)
(1.07703 -0.0474901 0)
(1.07187 -0.0449702 0)
(1.06794 -0.0427431 0)
(1.06479 -0.0403545 0)
(1.07583 -0.0332872 0)
(1.09842 -0.0226389 0)
(1.10381 -0.0195446 0)
(1.10079 -0.0196661 0)
(1.09629 -0.0201599 0)
(1.09171 -0.0207228 0)
(1.08572 -0.0217072 0)
(1.06924 -0.0246856 0)
(1.04625 -0.0273575 0)
(1.032 -0.0262809 0)
(1.02569 -0.0246453 0)
(1.0214 -0.0233957 0)
(1.01749 -0.0216538 0)
(1.02014 -0.0173577 0)
(1.03798 -0.00733206 0)
(1.04953 8.0756e-05 0)
(1.04891 0.00309783 0)
(1.04476 0.00401654 0)
(1.04065 0.00448798 0)
(1.03652 0.00503316 0)
(1.02767 0.00466727 0)
(1.0058 -0.000624275 0)
(0.986014 -0.00635203 0)
(0.974904 -0.00906599 0)
(0.967796 -0.00875985 0)
(0.961871 -0.00594589 0)
(0.958592 7.3763e-05 0)
(0.968817 0.0161929 0)
(0.980653 0.0319313 0)
(0.983152 0.0379434 0)
(0.98209 0.0385491 0)
(0.980754 0.0363623 0)
(0.978121 0.0329653 0)
(0.972941 0.0292864 0)
(0.955949 0.0175907 0)
(0.932017 0.00438274 0)
(0.913467 0.000325511 0)
(0.899481 0.00280615 0)
(0.889523 0.00772857 0)
(0.882707 0.0129365 0)
(0.884614 0.0244483 0)
(0.901915 0.0468977 0)
(0.912488 0.0606536 0)
(0.913751 0.0634599 0)
(0.911567 0.0604957 0)
(0.906701 0.0571408 0)
(0.898295 0.0533289 0)
(0.878636 0.0412833 0)
(0.852263 0.024458 0)
(0.832022 0.0134026 0)
(0.818243 0.00679863 0)
(0.808018 0.00098071 0)
(0.800063 -0.00534936 0)
(0.794032 -0.00797146 0)
(0.793522 -0.00506012 0)
(0.802293 0.00857328 0)
(0.809022 0.0233506 0)
(0.807951 0.0327304 0)
(0.801033 0.037976 0)
(0.791244 0.0383189 0)
(0.777669 0.0325966 0)
(0.760433 0.0201557 0)
(0.738695 -0.00395955 0)
(0.717835 -0.03638 0)
(0.701373 -0.0616266 0)
(0.691927 -0.0739511 0)
(0.688547 -0.0747619 0)
(0.698014 -0.0706263 0)
(0.712702 -0.0711519 0)
(0.714926 -0.072547 0)
(-0.0848875 -0.150408 0)
(-1.54623 -0.102762 0)
(1.18768 -0.102312 0)
(1.18459 -0.0970016 0)
(1.17802 -0.0797994 0)
(1.17205 -0.0672411 0)
(1.16895 -0.0631432 0)
(1.16671 -0.0624363 0)
(1.164 -0.0647169 0)
(1.15997 -0.0688277 0)
(1.15493 -0.073007 0)
(1.1493 -0.0753107 0)
(1.13686 -0.073177 0)
(1.12385 -0.0664399 0)
(1.11815 -0.0605476 0)
(1.11598 -0.0563811 0)
(1.12228 -0.048462 0)
(1.13557 -0.0414391 0)
(1.13963 -0.0391427 0)
(1.13768 -0.038247 0)
(1.13386 -0.037461 0)
(1.12959 -0.0369095 0)
(1.12502 -0.0367993 0)
(1.10847 -0.0396473 0)
(1.08371 -0.0428906 0)
(1.07169 -0.0412996 0)
(1.06725 -0.0399201 0)
(1.06377 -0.0389893 0)
(1.06084 -0.0379689 0)
(1.06789 -0.0358926 0)
(1.09284 -0.0295707 0)
(1.10364 -0.023923 0)
(1.10059 -0.0220592 0)
(1.09531 -0.0212369 0)
(1.09013 -0.0193028 0)
(1.08406 -0.0158219 0)
(1.06882 -0.0120509 0)
(1.0434 -0.0148096 0)
(1.02906 -0.0187291 0)
(1.02331 -0.0211182 0)
(1.01909 -0.0226493 0)
(1.01527 -0.0245006 0)
(1.01461 -0.0260345 0)
(1.02887 -0.0195945 0)
(1.04526 -0.0074881 0)
(1.04688 -0.000275272 0)
(1.04299 0.00408251 0)
(1.03828 0.00711042 0)
(1.0338 0.00864652 0)
(1.02769 0.00873428 0)
(1.011 0.00329649 0)
(0.988333 -0.0066687 0)
(0.972974 -0.0107785 0)
(0.96258 -0.0098988 0)
(0.955096 -0.00611828 0)
(0.949827 -0.00249651 0)
(0.950986 0.00618752 0)
(0.967429 0.025609 0)
(0.978861 0.0379013 0)
(0.981355 0.0401431 0)
(0.980042 0.0381733 0)
(0.977282 0.0354779 0)
(0.973441 0.0335514 0)
(0.963669 0.0290383 0)
(0.937217 0.0164753 0)
(0.912338 0.00749701 0)
(0.896666 0.00475889 0)
(0.885877 0.00553054 0)
(0.878546 0.00769418 0)
(0.873271 0.0109318 0)
(0.879915 0.0238977 0)
(0.899472 0.0481023 0)
(0.9099 0.0604099 0)
(0.90962 0.0612717 0)
(0.904719 0.0592491 0)
(0.898779 0.0566066 0)
(0.88858 0.0515856 0)
(0.869494 0.0387407 0)
(0.845656 0.0199101 0)
(0.826117 0.00586769 0)
(0.811393 -0.00149958 0)
(0.799357 -0.00584044 0)
(0.790609 -0.0097512 0)
(0.785352 -0.0125151 0)
(0.785829 -0.0110534 0)
(0.795232 0.000428318 0)
(0.801021 0.0134736 0)
(0.798528 0.0220538 0)
(0.791018 0.0263274 0)
(0.781833 0.0256439 0)
(0.769933 0.0179976 0)
(0.755303 0.00181835 0)
(0.736968 -0.026691 0)
(0.717788 -0.0581039 0)