/*--------------------------------*- C++ -*----------------------------------*\
  =========                 |
  \\      /  F ield         | OpenFOAM: The Open Source CFD Toolbox
   \\    /   O peration     | Website:  https://openfoam.org
    \\  /    A nd           | Version:  12
     \\/     M anipulation  |
\*---------------------------------------------------------------------------*/
FoamFile
{
    format      ascii;
    class       volScalarField;
    location    "20";
    object      T;
}
// * * * * * * * * * * * * * * * * * * * * * * * * * * * * * * * * * * * * * //

dimensions      [0 0 0 1 0 0 0];

internalField   nonuniform List<scalar> 
9801
(
0.809251
0.807124
0.807553
0.808599
0.810507
0.816326
0.824418
0.827854
0.828788
0.828784
0.826834
0.824196
0.824101
0.824912
0.826165
0.82799
0.830925
0.835725
0.84055
0.843087
0.844089
0.844585
0.843317
0.841911
0.842414
0.843536
0.84496
0.846498
0.848201
0.850957
0.855569
0.859375
0.861314
0.862338
0.862727
0.861307
0.860446
0.861082
0.862035
0.863232
0.86459
0.867197
0.872945
0.878461
0.880832
0.881894
0.882178
0.879922
0.878243
0.878581
0.879598
0.880959
0.88265
0.886599
0.893667
0.898656
0.900872
0.901949
0.901632
0.898198
0.896741
0.897402
0.898779
0.900462
0.902824
0.909515
0.917246
0.921149
0.923013
0.92404
0.921638
0.917287
0.916047
0.917122
0.919076
0.921942
0.929627
0.940429
0.946085
0.948883
0.950463
0.950076
0.944766
0.939265
0.938825
0.94185
0.947047
0.961353
0.975019
0.982371
0.98769
0.991699
0.991252
0.983302
0.977271
0.978441
0.993993
1.16858
1.54855
0.815084
0.812975
0.813101
0.813644
0.814496
0.816397
0.821908
0.828169
0.831378
0.83277
0.833248
0.831737
0.829486
0.829316
0.830013
0.831137
0.832472
0.834611
0.839678
0.845027
0.847571
0.848722
0.849375
0.848326
0.846485
0.846792
0.847901
0.849105
0.850312
0.851862
0.856006
0.861293
0.864127
0.865613
0.866666
0.866507
0.86445
0.864187
0.865052
0.866219
0.867393
0.869131
0.874156
0.879947
0.882935
0.88452
0.885549
0.884077
0.881546
0.881562
0.882515
0.883763
0.885243
0.888356
0.895549
0.900748
0.903208
0.904573
0.905104
0.902049
0.899432
0.899742
0.901141
0.902907
0.905335
0.912003
0.919843
0.923814
0.925945
0.927416
0.926649
0.921364
0.91879
0.920011
0.922323
0.925192
0.932818
0.942534
0.948048
0.951143
0.953611
0.955142
0.949854
0.943422
0.943624
0.946803
0.951721
0.962459
0.974808
0.982851
0.989219
0.995261
0.996602
0.990189
0.982693
0.982191
0.986059
1.16136
1.56808
0.818507
0.81851
0.819093
0.820032
0.821069
0.822441
0.825723
0.830013
0.833245
0.835105
0.836313
0.836784
0.835881
0.835742
0.836393
0.837118
0.837579
0.838263
0.84146
0.84713
0.850736
0.85256
0.853907
0.854685
0.854104
0.853632
0.853698
0.85393
0.854538
0.855505
0.858683
0.86442
0.868025
0.869967
0.87143
0.872351
0.871459
0.870736
0.871011
0.871691
0.872553
0.873756
0.8777
0.883541
0.886947
0.888882
0.890294
0.890252
0.888319
0.887819
0.888584
0.889781
0.891135
0.893425
0.899624
0.905106
0.907888
0.909573
0.910927
0.909566
0.906716
0.906331
0.907472
0.909181
0.91129
0.917029
0.924858
0.929425
0.932126
0.934242
0.935247
0.931309
0.927491
0.927976
0.930182
0.932914
0.938724
0.948823
0.956342
0.960652
0.963784
0.966211
0.962423
0.955353
0.954339
0.957727
0.962589
0.970764
0.98467
0.995765
1.00308
1.01027
1.01405
1.01023
1.00504
1.00447
1.00429
1.17013
1.59309
0.824264
0.826313
0.827301
0.828419
0.82945
0.830189
0.83071
0.832388
0.836316
0.840247
0.842462
0.843861
0.844852
0.844836
0.844565
0.843811
0.843761
0.844309
0.845733
0.850992
0.856516
0.859536
0.861273
0.862681
0.863233
0.861827
0.860053
0.859722
0.860443
0.86166
0.864625
0.871035
0.875587
0.877952
0.879562
0.881005
0.880755
0.878447
0.877552
0.877995
0.879122
0.880663
0.884723
0.891267
0.895299
0.897526
0.899146
0.900359
0.898477
0.896415
0.896414
0.89743
0.898948
0.901184
0.907261
0.914024
0.917613
0.919694
0.921504
0.921632
0.91799
0.916257
0.917173
0.918991
0.921146
0.925908
0.934722
0.94076
0.944094
0.946544
0.948422
0.945769
0.940565
0.939893
0.942037
0.944967
0.949553
0.959726
0.969286
0.974482
0.977914
0.980945
0.980558
0.973937
0.969795
0.971985
0.977294
0.984044
0.995894
1.00893
1.01799
1.02581
1.03277
1.03235
1.02757
1.02375
1.01706
1.18013
1.61771
0.831746
0.834795
0.83599
0.836297
0.83649
0.837156
0.838278
0.840181
0.843009
0.846589
0.849753
0.851868
0.853558
0.853924
0.8517
0.850567
0.851174
0.852383
0.8547
0.859898
0.864582
0.867582
0.869527
0.871029
0.871775
0.86905
0.867182
0.867659
0.868945
0.870715
0.874751
0.881102
0.885192
0.887382
0.888906
0.890081
0.889095
0.886287
0.885937
0.88709
0.88873
0.890822
0.895508
0.902108
0.906023
0.908171
0.909743
0.910825
0.908906
0.906127
0.906183
0.907639
0.909532
0.911951
0.91785
0.925206
0.929237
0.931509
0.933371
0.934228
0.930833
0.927877
0.928436
0.930381
0.93274
0.936732
0.94549
0.952837
0.956684
0.95929
0.961588
0.961346
0.955874
0.952777
0.954299
0.957377
0.961278
0.969577
0.981022
0.988169
0.992261
0.995805
0.997991
0.993646
0.987128
0.985498
0.98917
0.995312
1.00454
1.0177
1.02861
1.03709
1.04497
1.04887
1.04575
1.03953
1.02503
1.1856
1.63374
0.83887
0.841562
0.842654
0.843172
0.844009
0.845408
0.848233
0.851203
0.853236
0.855042
0.857142
0.8593
0.860855
0.860203
0.858975
0.859262
0.860556
0.862141
0.865802
0.871397
0.874584
0.876456
0.87802
0.879328
0.878573
0.876629
0.876564
0.877651
0.879111
0.881241
0.886305
0.891994
0.895055
0.896785
0.89811
0.89883
0.897321
0.895705
0.896088
0.8975
0.899263
0.901676
0.906786
0.91283
0.916165
0.91806
0.919525
0.920578
0.919208
0.916471
0.916439
0.917996
0.919979
0.92249
0.928026
0.935383
0.939668
0.942093
0.944099
0.945693
0.94387
0.939378
0.938358
0.940114
0.942554
0.946077
0.954031
0.962786
0.967439
0.970189
0.972595
0.974139
0.970231
0.96494
0.964233
0.966929
0.970452
0.976134
0.987164
0.996815
1.00258
1.00654
1.00989
1.00923
1.00256
0.997965
0.998162
1.00248
1.00873
1.01876
1.03
1.03902
1.04678
1.05317
1.05414
1.04984
1.03476
1.18448
1.64317
0.846975
0.847204
0.847941
0.849372
0.851011
0.853911
0.858899
0.862135
0.863711
0.86496
0.866326
0.867365
0.866091
0.865102
0.866035
0.867564
0.869346
0.871993
0.877166
0.881863
0.883902
0.885104
0.886242
0.886378
0.884464
0.883491
0.884365
0.885944
0.887692
0.890357
0.895899
0.901064
0.903504
0.904866
0.905963
0.906676
0.905596
0.903905
0.904154
0.905773
0.907632
0.910047
0.915011
0.920872
0.924141
0.925984
0.927513
0.929011
0.929011
0.926155
0.92479
0.925916
0.927808
0.930088
0.934993
0.942607
0.947535
0.950102
0.952132
0.954013
0.954146
0.949598
0.946804
0.947448
0.949652
0.952429
0.958495
0.96817
0.974601
0.977891
0.980263
0.982374
0.981273
0.975349
0.972195
0.973161
0.976217
0.97999
0.987786
0.999464
1.00764
1.01248
1.01626
1.01888
1.01586
1.00942
1.00627
1.00697
1.01095
1.01739
1.02769
1.03758
1.04549
1.05207
1.05552
1.05441
1.04381
1.18435
1.64974
0.854461
0.852207
0.852132
0.853417
0.855317
0.859515
0.866546
0.871048
0.87294
0.874081
0.874884
0.873895
0.870833
0.869844
0.870798
0.872375
0.874501
0.878513
0.884802
0.889314
0.891166
0.89226
0.893025
0.892951
0.891806
0.890503
0.890743
0.892178
0.893874
0.896254
0.901474
0.906939
0.909781
0.911255
0.912502
0.913778
0.914006
0.911894
0.911114
0.912086
0.913515
0.915153
0.918754
0.925172
0.929665
0.932052
0.933879
0.935606
0.936915
0.934917
0.932076
0.931878
0.933132
0.934923
0.938235
0.945925
0.952599
0.955919
0.957957
0.959798
0.961196
0.958461
0.953982
0.953038
0.954548
0.956812
0.960352
0.969047
0.978119
0.982862
0.985593
0.98788
0.989024
0.984882
0.979429
0.977898
0.979409
0.982402
0.98657
0.996378
1.00775
1.01486
1.01946
1.02336
1.02538
1.02106
1.01424
1.01144
1.01266
1.01664
1.02342
1.03339
1.04209
1.04901
1.05378
1.05524
1.05014
1.18675
1.65456
0.86094
0.857184
0.857157
0.858261
0.859685
0.862735
0.87041
0.876445
0.87872
0.880032
0.880484
0.879191
0.877035
0.875944
0.876522
0.877735
0.879148
0.881641
0.887707
0.893233
0.895929
0.897331
0.898377
0.899143
0.898504
0.897054
0.896837
0.897653
0.89887
0.900235
0.903026
0.909143
0.913824
0.916316
0.918056
0.919646
0.920985
0.919805
0.917522
0.916728
0.917117
0.918238
0.920247
0.926256
0.933287
0.9372
0.939446
0.941182
0.94281
0.942388
0.938423
0.936148
0.936314
0.937812
0.940078
0.946281
0.955064
0.960043
0.962562
0.964411
0.96615
0.965555
0.960526
0.957632
0.957798
0.959551
0.961891
0.967174
0.977809
0.985526
0.989474
0.992098
0.99436
0.993892
0.987488
0.982628
0.981697
0.983265
0.98629
0.991788
1.00344
1.01462
1.02135
1.02558
1.02891
1.02919
1.02413
1.01801
1.0156
1.01698
1.02112
1.02828
1.03791
1.04567
1.05116
1.05412
1.05325
1.19145
1.65837
0.865199
0.862334
0.862308
0.863328
0.864545
0.866691
0.872478
0.879108
0.882032
0.883342
0.884047
0.884311
0.883033
0.881523
0.881708
0.882759
0.883971
0.885267
0.888139
0.894173
0.898492
0.900851
0.902568
0.904016
0.904983
0.903678
0.902212
0.901991
0.902237
0.90296
0.904237
0.908659
0.915889
0.920239
0.92258
0.924231
0.925709
0.926021
0.922634
0.91968
0.919136
0.920116
0.921824
0.926298
0.935035
0.940978
0.943716
0.945426
0.946967
0.94763
0.94356
0.939269
0.938646
0.939747
0.941605
0.945344
0.954585
0.962347
0.966017
0.968157
0.969897
0.97093
0.967239
0.961869
0.960312
0.961123
0.963201
0.966076
0.974225
0.985621
0.991972
0.995287
0.997857
0.999868
0.996746
0.98871
0.984827
0.985098
0.987306
0.990548
0.996922
1.00901
1.0192
1.02514
1.02906
1.03209
1.03216
1.02738
1.02162
1.01933
1.02069
1.02463
1.03193
1.0412
1.0481
1.05218
1.05482
1.19778
1.66171
0.868624
0.867475
0.867436
0.868308
0.869482
0.870792
0.873942
0.879372
0.883082
0.885025
0.886517
0.887824
0.888613
0.887356
0.886457
0.886871
0.887621
0.888201
0.889178
0.892915
0.899347
0.903497
0.905866
0.907478
0.908839
0.909423
0.907021
0.904718
0.904204
0.904834
0.906054
0.90868
0.9163
0.922893
0.925894
0.927634
0.929045
0.93004
0.927511
0.922514
0.921407
0.922314
0.923794
0.926716
0.934903
0.942855
0.946412
0.948238
0.949542
0.95027
0.948066
0.942996
0.941229
0.941983
0.94361
0.945703
0.951871
0.962151
0.968032
0.970792
0.972664
0.974206
0.973447
0.967332
0.963027
0.962683
0.964298
0.966603
0.970595
0.981344
0.991913
0.996894
0.999616
1.00185
1.00324
0.998898
0.991659
0.988769
0.989069
0.991042
0.994376
1.00155
1.01341
1.02278
1.02856
1.03251
1.03512
1.03482
1.03062
1.02497
1.02223
1.02317
1.02652
1.03416
1.04336
1.04955
1.05485
1.2052
1.66488
0.871178
0.871905
0.872076
0.872753
0.873511
0.874446
0.875465
0.878855
0.883427
0.886572
0.888828
0.890413
0.891739
0.892449
0.891188
0.890026
0.8896
0.889797
0.890702
0.892727
0.899162
0.905235
0.908329
0.910169
0.911582
0.912808
0.911669
0.907454
0.906027
0.906702
0.907981
0.910094
0.91647
0.92427
0.928035
0.929838
0.931109
0.931878
0.930555
0.926082
0.924182
0.924981
0.926448
0.928212
0.933485
0.942599
0.947552
0.949703
0.951066
0.952212
0.952385
0.948371
0.944717
0.944659
0.945979
0.947609
0.950156
0.958645
0.968069
0.972384
0.974677
0.976383
0.977752
0.974968
0.968304
0.965677
0.966141
0.967863
0.9701
0.974909
0.986737
0.996257
1.00055
1.00358
1.0064
1.00766
1.00203
0.994431
0.991746
0.992399
0.994646
0.998138
1.00571
1.017
1.0257
1.03136
1.03529
1.03765
1.03738
1.03319
1.02698
1.02352
1.02397
1.02677
1.03536
1.04475
1.05295
1.21356
1.66805
0.87356
0.875275
0.875636
0.875918
0.875812
0.875849
0.876643
0.879053
0.88456
0.888802
0.891222
0.892949
0.894385
0.895722
0.895478
0.892384
0.89071
0.891219
0.89245
0.894449
0.900247
0.906971
0.910446
0.912383
0.91387
0.915058
0.914583
0.910368
0.908322
0.909028
0.910304
0.912
0.916949
0.924833
0.929139
0.931117
0.932366
0.933368
0.933513
0.930518
0.927908
0.92817
0.929404
0.930748
0.932789
0.940018
0.947577
0.950872
0.952752
0.954343
0.955825
0.954738
0.949605
0.947313
0.94771
0.949028
0.950686
0.954431
0.96475
0.972802
0.976223
0.97836
0.98024
0.981436
0.977004
0.970654
0.968592
0.968779
0.970209
0.972612
0.978834
0.991812
1.00129
1.0056
1.00813
1.01031
1.0105
1.00471
0.997929
0.995339
0.995794
0.997948
1.00161
1.00976
1.02076
1.0289
1.0341
1.03763
1.03946
1.03891
1.03443
1.02763
1.02348
1.02337
1.02674
1.03696
1.0487
1.22189
1.67111
0.876537
0.878386
0.878339
0.877082
0.876385
0.876774
0.87777
0.88013
0.886442
0.891441
0.893906
0.895543
0.896955
0.898316
0.897821
0.893612
0.892193
0.892928
0.894151
0.896304
0.902256
0.909148
0.912594
0.914379
0.915623
0.916306
0.915706
0.912902
0.91103
0.911567
0.912835
0.914351
0.917249
0.924159
0.929656
0.932134
0.933688
0.93516
0.936509
0.935608
0.932213
0.93093
0.931323
0.93226
0.933525
0.936772
0.945661
0.952182
0.955117
0.956908
0.958475
0.95962
0.956392
0.951102
0.949481
0.949844
0.951251
0.953334
0.959309
0.970584
0.977448
0.980676
0.982991
0.984891
0.985044
0.978691
0.972382
0.970756
0.971519
0.973248
0.975767
0.98247
0.995688
1.00448
1.00833
1.01112
1.01387
1.01439
1.00828
1.00113
0.998379
0.998945
1.00128
1.00523
1.0139
1.02442
1.03168
1.03616
1.03919
1.04066
1.03987
1.0351
1.02768
1.02277
1.02236
1.02713
1.04138
1.22843
1.67343
0.879708
0.881454
0.879965
0.876896
0.876481
0.87734
0.878657
0.881321
0.888372
0.894218
0.896635
0.898049
0.899377
0.899968
0.89807
0.895082
0.894366
0.895183
0.89636
0.898299
0.903665
0.910599
0.914076
0.915663
0.91654
0.917118
0.917397
0.915955
0.9144
0.914581
0.915541
0.916604
0.917901
0.921828
0.929256
0.933622
0.935847
0.937486
0.939029
0.940095
0.937561
0.933886
0.932786
0.933055
0.934136
0.935868
0.941824
0.951783
0.957035
0.959474
0.961076
0.962556
0.962497
0.956935
0.952064
0.951164
0.95203
0.953806
0.956365
0.964577
0.976251
0.982136
0.984706
0.986426
0.988279
0.98811
0.98126
0.975358
0.973804
0.973975
0.975443
0.978047
0.985927
0.999568
1.00862
1.01278
1.01536
1.01729
1.01686
1.01121
1.00459
1.00174
1.0021
1.00422
1.00836
1.01769
1.02769
1.03399
1.03777
1.04045
1.04183
1.04092
1.03581
1.02708
1.02105
1.02045
1.03053
1.23128
1.67457
0.882857
0.88406
0.880655
0.877842
0.877811
0.878741
0.879994
0.882493
0.889644
0.896295
0.899153
0.900721
0.901565
0.901093
0.899458
0.8973
0.89701
0.898078
0.899616
0.901275
0.90395
0.909822
0.914238
0.916147
0.917399
0.918959
0.920288
0.920424
0.918455
0.917251
0.917238
0.917699
0.918546
0.920277
0.926703
0.934475
0.938242
0.940246
0.941755
0.943227
0.943087
0.938313
0.934689
0.934067
0.934795
0.936279
0.939128
0.948339
0.95757
0.961409
0.963479
0.965047
0.966341
0.96438
0.957506
0.953909
0.953818
0.954947
0.956688
0.959663
0.969469
0.980498
0.985501
0.98839
0.990741
0.992606
0.991157
0.982909
0.976892
0.975815
0.976948
0.978963
0.981695
0.989191
1.00234
1.01099
1.01499
1.01754
1.01971
1.01983
1.0145
1.00757
1.00429
1.00444
1.00653
1.01103
1.02087
1.03036
1.03598
1.03939
1.04202
1.0431
1.04183
1.03569
1.02541
1.01818
1.01764
1.22872
1.67448
0.885854
0.886438
0.882327
0.879961
0.88009
0.881139
0.882617
0.885113
0.890354
0.896842
0.899956
0.901115
0.901402
0.902159
0.90255
0.901346
0.900755
0.9015
0.902528
0.903211
0.903958
0.906425
0.912829
0.917377
0.919939
0.921723
0.923297
0.924601
0.923753
0.920472
0.918553
0.91811
0.918848
0.920264
0.923956
0.933389
0.94007
0.942781
0.944353
0.945638
0.94651
0.943494
0.937645
0.935651
0.936224
0.937564
0.939271
0.943947
0.954751
0.961968
0.964778
0.966508
0.968
0.969316
0.966124
0.959294
0.956512
0.956411
0.957301
0.958973
0.962707
0.974185
0.985281
0.989945
0.992016
0.993349
0.994986
0.993764
0.986231
0.980927
0.979835
0.980155
0.981515
0.984101
0.992048
1.00498
1.0135
1.01764
1.02023
1.02207
1.0219
1.01712
1.01023
1.00645
1.00623
1.00821
1.01306
1.02349
1.03282
1.03788
1.04081
1.043
1.04371
1.04214
1.03428
1.02123
1.01117
1.22074
1.67344
0.886234
0.88706
0.885683
0.883714
0.883535
0.884605
0.885962
0.887195
0.889178
0.894506
0.899238
0.901426
0.902969
0.904466
0.905895
0.906665
0.905293
0.904144
0.903749
0.903315
0.903525
0.904805
0.909657
0.917968
0.922776
0.925213
0.926708
0.928057
0.928638
0.924899
0.920229
0.919053
0.919718
0.921042
0.923077
0.930198
0.939976
0.944431
0.946388
0.947601
0.948497
0.948248
0.943227
0.93886
0.938516
0.93962
0.940952
0.942613
0.948488
0.959438
0.965504
0.968231
0.970275
0.971928
0.972609
0.967821
0.960894
0.958532
0.959079
0.960479
0.962079
0.965612
0.977032
0.987307
0.991632
0.994566
0.997149
0.999068
0.997374
0.989337
0.983261
0.98178
0.982681
0.984522
0.987148
0.994514
1.00692
1.01519
1.01933
1.02196
1.02408
1.02447
1.01978
1.01234
1.00802
1.00751
1.00935
1.01453
1.02536
1.03429
1.03878
1.04165
1.04376
1.04412
1.04157
1.02947
1.01287
1.20951
1.6723
0.886548
0.888581
0.889532
0.888829
0.887553
0.887626
0.888053
0.888315
0.888862
0.89096
0.897109
0.902641
0.905804
0.907811
0.909332
0.910651
0.910814
0.907606
0.904125
0.902769
0.903291
0.904542
0.907352
0.916364
0.924646
0.927941
0.929714
0.930863
0.931442
0.928893
0.923025
0.920843
0.921497
0.922791
0.92433
0.927385
0.9364
0.944183
0.947066
0.948662
0.949948
0.951284
0.950444
0.944761
0.941362
0.941167
0.941967
0.943277
0.945335
0.952814
0.963909
0.969291
0.971506
0.97293
0.97471
0.975668
0.970621
0.964021
0.961869
0.96161
0.962118
0.963735
0.967739
0.979896
0.991245
0.996133
0.998364
1.0001
1.00186
1.00065
0.993075
0.986951
0.985128
0.985113
0.986292
0.988984
0.9973
1.00975
1.0177
1.02175
1.02441
1.0264
1.02677
1.02212
1.0139
1.00896
1.00822
1.00992
1.0153
1.02649
1.03516
1.03945
1.04243
1.04419
1.04428
1.03792
1.0225
1.19997
1.67188
0.888211
0.890865
0.892208
0.893386
0.892699
0.890818
0.889487
0.888684
0.889099
0.890282
0.894161
0.902631
0.908319
0.910981
0.912439
0.913708
0.914679
0.911943
0.905627
0.903886
0.90459
0.905758
0.907618
0.914405
0.924722
0.929489
0.931293
0.932416
0.932823
0.932093
0.927987
0.924163
0.923983
0.925168
0.926519
0.92772
0.931194
0.940709
0.947447
0.950265
0.952046
0.953452
0.954732
0.952603
0.946303
0.943371
0.943403
0.944264
0.945533
0.947818
0.956389
0.967064
0.971975
0.974785
0.977053
0.978815
0.979154
0.973103
0.96582
0.963249
0.963525
0.964594
0.966275
0.970015
0.981999
0.993135
0.997946
1.00087
1.00345
1.0053
1.00383
0.995751
0.988626
0.986375
0.987035
0.988984
0.992121
1.00072
1.01271
1.02011
1.02397
1.02659
1.02856
1.02871
1.0234
1.01451
1.00936
1.00858
1.01026
1.01578
1.02704
1.03546
1.03989
1.04295
1.04442
1.04233
1.03375
1.19589
1.67265
0.890159
0.893649
0.894813
0.896103
0.896813
0.894218
0.890362
0.889203
0.889825
0.890984
0.893355
0.901269
0.909731
0.913212
0.914981
0.91617
0.916507
0.913866
0.908628
0.906416
0.907029
0.9084
0.91043
0.913764
0.921619
0.928457
0.930907
0.932059
0.933107
0.93457
0.934396
0.930184
0.927367
0.927205
0.927749
0.928506
0.929815
0.934478
0.94485
0.951109
0.953702
0.955445
0.956999
0.958248
0.955065
0.948475
0.945721
0.945201
0.94567
0.947111
0.949875
0.959823
0.971255
0.976375
0.978486
0.979959
0.981711
0.98231
0.9762
0.968726
0.966123
0.96571
0.966304
0.967993
0.972062
0.984819
0.996892
1.00202
1.00423
1.0057
1.00702
1.006
0.998951
0.992157
0.98981
0.989946
0.991382
0.994572
1.00375
1.01542
1.02227
1.02572
1.02804
1.02977
1.02998
1.02464
1.01547
1.01004
1.00903
1.0105
1.01588
1.02694
1.03537
1.04007
1.04332
1.0438
1.04145
1.19847
1.67475
0.891978
0.896153
0.897163
0.898326
0.899229
0.897175
0.891901
0.8906
0.891354
0.892535
0.894156
0.900049
0.909854
0.914564
0.916435
0.917557
0.917724
0.916274
0.912703
0.910308
0.910577
0.911796
0.913002
0.914057
0.916792
0.924783
0.930874
0.933494
0.935251
0.936791
0.938293
0.937656
0.932733
0.929506
0.928782
0.928986
0.929923
0.93166
0.938384
0.949352
0.955008
0.957607
0.959514
0.96103
0.961676
0.956626
0.949348
0.946766
0.947035
0.948065
0.94952
0.952379
0.962972
0.974059
0.978761
0.981424
0.983586
0.985294
0.985101
0.977949
0.969965
0.967305
0.967858
0.969624
0.971637
0.975018
0.986315
0.99786
1.00284
1.00539
1.00778
1.00975
1.00926
1.0024
0.994937
0.991777
0.991725
0.99329
0.996435
1.00575
1.01703
1.02344
1.02691
1.02953
1.03153
1.03199
1.02636
1.01661
1.01065
1.00934
1.01029
1.01509
1.02608
1.03488
1.04037
1.04245
1.04657
1.20651
1.6779
0.893393
0.898296
0.899339
0.900383
0.900856
0.898601
0.894167
0.892798
0.893492
0.894634
0.896266
0.899814
0.908094
0.914266
0.916336
0.917384
0.918262
0.91917
0.918081
0.914968
0.91349
0.913468
0.913563
0.914083
0.91542
0.919576
0.928902
0.935127
0.937901
0.939629
0.940938
0.942062
0.939942
0.933716
0.930287
0.929877
0.930648
0.931979
0.934322
0.94305
0.954076
0.958998
0.960964
0.962158
0.96342
0.963952
0.958496
0.951585
0.949447
0.949433
0.950195
0.951646
0.955086
0.96651
0.977906
0.982554
0.984392
0.985154
0.986496
0.987114
0.981251
0.974068
0.971734
0.971589
0.971832
0.973082
0.97639
0.987896
1.00034
1.00613
1.00853
1.01035
1.01195
1.01175
1.0057
0.997719
0.993738
0.993126
0.994377
0.997426
1.00715
1.01903
1.02598
1.02961
1.03188
1.03341
1.03367
1.0281
1.01765
1.01078
1.00886
1.00924
1.01348
1.02479
1.03465
1.03954
1.04851
1.21727
1.68161
0.893795
0.900115
0.901597
0.902586
0.902755
0.900563
0.896834
0.895401
0.896036
0.897252
0.89859
0.900177
0.904565
0.912253
0.916733
0.918551
0.91982
0.921041
0.922074
0.920649
0.91702
0.914983
0.914557
0.914932
0.915914
0.917533
0.923501
0.933925
0.939455
0.941701
0.942972
0.944187
0.944872
0.940505
0.933689
0.931646
0.932316
0.933643
0.934921
0.937368
0.947026
0.957335
0.961432
0.963542
0.965332
0.966846
0.966749
0.960345
0.953281
0.951236
0.95202
0.953638
0.955049
0.95771
0.967851
0.978507
0.983083
0.985769
0.988203
0.990162
0.990682
0.985379
0.977557
0.973527
0.972922
0.973867
0.975571
0.978645
0.989296
1.00148
1.00722
1.01007
1.01249
1.01443
1.01436
1.00803
0.999388
0.99491
0.994238
0.995521
0.998756
1.00848
1.02046
1.02762
1.0314
1.03361
1.03472
1.03463
1.02908
1.01833
1.01063
1.00773
1.00755
1.01175
1.02416
1.03379
1.04749
1.22865
1.68517
0.892942
0.900651
0.902262
0.903142
0.903755
0.90378
0.901261
0.898654
0.898353
0.899171
0.900213
0.901286
0.90258
0.907255
0.915211
0.919466
0.921392
0.92281
0.924336
0.925487
0.9236
0.918859
0.916551
0.91628
0.916772
0.917738
0.919667
0.927994
0.93832
0.942621
0.944639
0.945943
0.946938
0.946752
0.941209
0.935608
0.934483
0.935025
0.936
0.937299
0.940304
0.950652
0.960626
0.964549
0.966262
0.967243
0.968889
0.969562
0.963968
0.957278
0.955329
0.95505
0.954998
0.955998
0.958658
0.968933
0.981284
0.987133
0.989477
0.991094
0.992934
0.994174
0.98983
0.981149
0.976444
0.975395
0.975579
0.976814
0.979986
0.991328
1.00415
1.01025
1.01276
1.01442
1.01589
1.01624
1.0109
1.00181
0.996733
0.99574
0.996586
0.99924
1.00892
1.02162
1.0292
1.03273
1.03438
1.03522
1.03507
1.02994
1.01932
1.01049
1.00637
1.00541
1.01061
1.0233
1.04199
1.23901
1.68772
0.890261
0.899689
0.902934
0.904275
0.905116
0.906117
0.906581
0.904072
0.901657
0.901352
0.901734
0.901948
0.902309
0.903669
0.909629
0.918288
0.922845
0.925558
0.927296
0.928761
0.929483
0.925376
0.919472
0.917436
0.917486
0.918381
0.919649
0.922738
0.933192
0.942398
0.945749
0.947437
0.948829
0.949945
0.949172
0.942865
0.937483
0.936531
0.937499
0.938794
0.939913
0.942526
0.95244
0.961962
0.966014
0.968746
0.970989
0.972608
0.972979
0.967294
0.95967
0.95634
0.956079
0.956815
0.958115
0.960612
0.970316
0.982725
0.988792
0.99198
0.994553
0.996273
0.99686
0.992253
0.983109
0.977557
0.976457
0.977496
0.979449
0.982842
0.9934
1.00523
1.01098
1.01386
1.01619
1.01802
1.0185
1.01323
1.00388
0.998083
0.996541
0.997322
0.999766
1.00898
1.02185
1.02966
1.0331
1.03463
1.03553
1.03568
1.03128
1.0207
1.01013
1.00426
1.00324
1.00909
1.0319
1.24624
1.68898
0.88803
0.895098
0.902153
0.905303
0.907014
0.908537
0.909938
0.910543
0.907885
0.904756
0.903108
0.901938
0.90193
0.90288
0.905099
0.913991
0.923905
0.928269
0.930513
0.93179
0.932629
0.931028
0.923671
0.918835
0.918654
0.919737
0.921069
0.922808
0.92708
0.937556
0.945236
0.948093
0.949528
0.950698
0.952273
0.952145
0.946
0.940854
0.939707
0.939467
0.939754
0.940991
0.943936
0.954441
0.965401
0.970232
0.972245
0.973584
0.975115
0.975958
0.970773
0.962429
0.958775
0.958105
0.958398
0.959719
0.96225
0.972523
0.986306
0.992825
0.995135
0.996025
0.996732
0.997817
0.995294
0.987076
0.981412
0.98
0.980087
0.981076
0.983908
0.994356
1.00694
1.01336
1.01601
1.01763
1.01932
1.02077
1.01678
1.00667
0.999774
0.997576
0.99776
0.999423
1.00807
1.02184
1.03043
1.03388
1.03519
1.03606
1.03628
1.03264
1.02201
1.00929
1.00169
0.999337
1.01718
1.24846
1.68873
0.887924
0.89036
0.897796
0.905394
0.909194
0.911538
0.912989
0.914278
0.914301
0.90959
0.904074
0.902078
0.902363
0.903445
0.904896
0.909395
0.921874
0.929666
0.932097
0.933375
0.933789
0.933305
0.930039
0.923625
0.92134
0.92212
0.923804
0.925093
0.926103
0.929352
0.939374
0.946996
0.950262
0.952626
0.954429
0.955845
0.955161
0.94827
0.942156
0.940517
0.940885
0.941754
0.943035
0.9458
0.95633
0.967381
0.972161
0.974748
0.976748
0.978308
0.978529
0.972895
0.964085
0.959983
0.959876
0.961267
0.963447
0.965872
0.974155
0.986416
0.992458
0.994998
0.997139
0.99914
1.00063
0.999199
0.991537
0.984298
0.981213
0.981057
0.982293
0.985028
0.995098
1.00743
1.01387
1.01751
1.02044
1.0222
1.02303
1.01851
1.00798
1.00032
0.997502
0.997637
0.999341
1.00775
1.02197
1.03092
1.0342
1.03541
1.03638
1.03645
1.03341
1.02238
1.00743
0.998057
1.00064
1.24337
1.68661
0.888123
0.889446
0.89265
0.902741
0.910704
0.913819
0.915551
0.916703
0.917304
0.914344
0.906735
0.903392
0.903758
0.904947
0.906983
0.910155
0.916824
0.926628
0.931012
0.932263
0.932608
0.933813
0.935195
0.933336
0.927928
0.925818
0.925765
0.925669
0.925917
0.926964
0.930639
0.941786
0.950627
0.954077
0.955691
0.956849
0.958279
0.957916
0.950928
0.944641
0.94291
0.942824
0.943433
0.944796
0.947881
0.958921
0.970673
0.975607
0.977365
0.977763
0.978877
0.980174
0.976544
0.968508
0.964667
0.964224
0.964235
0.964531
0.966236
0.973575
0.986642
0.994597
0.997826
0.999687
1.00161
1.00355
1.00319
0.995397
0.986469
0.982631
0.982086
0.983048
0.98553
0.995943
1.01021
1.01768
1.02035
1.02178
1.02301
1.02395
1.02045
1.01012
1.00149
0.998142
0.997864
0.999252
1.00731
1.02203
1.03106
1.0339
1.03511
1.03625
1.03631
1.03334
1.02117
1.00288
0.993439
1.23148
1.68382
0.889217
0.890256
0.891821
0.898148
0.909637
0.915041
0.916964
0.918185
0.918492
0.917217
0.91233
0.907529
0.907109
0.908475
0.910357
0.911715
0.913024
0.917873
0.92657
0.931428
0.933991
0.936424
0.938376
0.939638
0.937425
0.930861
0.926906
0.926065
0.926347
0.927162
0.928443
0.932788
0.944746
0.953155
0.956343
0.958397
0.960088
0.961442
0.960471
0.952953
0.946153
0.944319
0.945038
0.946651
0.948052
0.950222
0.95936
0.970462
0.975336
0.978025
0.980649
0.982538
0.983812
0.981162
0.973228
0.967255
0.964839
0.964609
0.965296
0.966875
0.973418
0.986778
0.995648
0.99993
1.00291
1.00472
1.0058
1.00467
0.997131
0.987983
0.983719
0.983363
0.984681
0.987524
0.997403
1.0107
1.0176
1.02062
1.02281
1.02462
1.0257
1.02223
1.01175
1.00258
0.998616
0.998144
0.999437
1.00705
1.02137
1.02997
1.03273
1.03438
1.03594
1.03611
1.03245
1.01584
0.997317
1.21676
1.68188
0.890913
0.891902
0.893423
0.896565
0.905283
0.913766
0.916597
0.917442
0.917695
0.918885
0.919261
0.915398
0.911808
0.911415
0.911942
0.911779
0.911688
0.912913
0.918364
0.928801
0.935843
0.939247
0.941424
0.942753
0.943417
0.939316
0.931293
0.927475
0.927108
0.927951
0.929184
0.930859
0.935777
0.947907
0.956422
0.959474
0.960773
0.961451
0.962869
0.96311
0.956887
0.9503
0.948467
0.948241
0.947831
0.948432
0.950381
0.959115
0.972145
0.979255
0.982041
0.983741
0.985424
0.986959
0.985438
0.97699
0.968909
0.965656
0.965315
0.966334
0.968039
0.975084
0.99032
0.999776
1.00295
1.00416
1.0048
1.00619
1.00655
1.00037
0.991087
0.986564
0.985685
0.986147
0.987906
0.996486
1.0109
1.01961
1.02278
1.02412
1.02536
1.02684
1.02501
1.01513
1.00442
0.999267
0.998317
0.999154
1.00576
1.01968
1.02832
1.03158
1.03408
1.03586
1.0361
1.02796
1.01174
1.20529
1.68126
0.893787
0.894734
0.896235
0.897634
0.900136
0.907728
0.914632
0.917573
0.919412
0.921144
0.922732
0.923145
0.919174
0.914693
0.912538
0.911447
0.911291
0.912169
0.913784
0.921123
0.933734
0.940359
0.942902
0.944408
0.945478
0.94565
0.940186
0.932131
0.929265
0.929712
0.931122
0.932402
0.933635
0.937577
0.948938
0.957087
0.960307
0.962718
0.964719
0.96624
0.96639
0.960691
0.953037
0.949317
0.948643
0.949128
0.950305
0.952213
0.959937
0.973447
0.981222
0.984573
0.986681
0.988274
0.989216
0.987239
0.978743
0.970399
0.967475
0.968042
0.970036
0.972591
0.978298
0.990732
0.998957
1.00236
1.00476
1.00687
1.00846
1.00903
1.00388
0.994292
0.988163
0.986294
0.986815
0.988603
0.995794
1.0098
1.01876
1.02256
1.02553
1.0279
1.02908
1.027
1.01685
1.0048
0.998706
0.997597
0.998588
1.00449
1.01786
1.02692
1.03125
1.03435
1.03619
1.03369
1.02573
1.20162
1.68225
0.897545
0.897094
0.897909
0.898335
0.898882
0.900965
0.908808
0.917119
0.921457
0.923982
0.925587
0.926709
0.926463
0.921067
0.914799
0.912087
0.912036
0.912979
0.914312
0.916656
0.925433
0.937289
0.942399
0.944159
0.94521
0.946278
0.947222
0.943035
0.935668
0.932893
0.932727
0.932839
0.933561
0.934953
0.938757
0.950122
0.959913
0.964
0.965777
0.966963
0.968431
0.969346
0.964873
0.956241
0.951734
0.950721
0.950946
0.951936
0.953739
0.961532
0.976084
0.984305
0.986965
0.987577
0.987903
0.989322
0.989611
0.98343
0.975617
0.972616
0.972161
0.972006
0.973023
0.977668
0.990359
1.00071
1.00518
1.00709
1.00858
1.01064
1.01197
1.00785
0.997242
0.989806
0.987289
0.986952
0.988046
0.994291
1.00954
1.02113
1.0255
1.02725
1.02861
1.02937
1.02794
1.01843
1.00541
0.998706
0.997403
0.998004
1.00315
1.01607
1.02577
1.03097
1.03457
1.035
1.0353
1.20576
1.68473
0.902795
0.899225
0.89854
0.898159
0.898473
0.899502
0.902173
0.911728
0.921343
0.925697
0.92781
0.929162
0.930187
0.928835
0.920879
0.914845
0.913943
0.914874
0.916187
0.917374
0.919193
0.927516
0.938882
0.944145
0.946353
0.948055
0.949535
0.950287
0.946177
0.938263
0.934238
0.933807
0.934585
0.93569
0.936921
0.939898
0.950623
0.960895
0.965361
0.967958
0.970009
0.971488
0.972052
0.967828
0.958813
0.953368
0.952338
0.953318
0.95512
0.957009
0.962532
0.974978
0.982874
0.985931
0.988531
0.990849
0.992438
0.992978
0.988069
0.979382
0.973735
0.972058
0.972549
0.973987
0.977895
0.98962
1.00041
1.00572
1.00932
1.01189
1.01346
1.01417
1.00971
0.998439
0.989922
0.987176
0.987609
0.989294
0.995009
1.00931
1.02051
1.02499
1.02735
1.02914
1.03007
1.02873
1.01925
1.00614
0.998962
0.997259
0.997335
1.00161
1.01407
1.02423
1.03083
1.03311
1.04105
1.21564
1.68805
0.908887
0.90317
0.899634
0.898702
0.899112
0.900121
0.901409
0.904922
0.916002