/*--------------------------------*- C++ -*----------------------------------*\
  =========                 |
  \\      /  F ield         | OpenFOAM: The Open Source CFD Toolbox
   \\    /   O peration     | Website:  https://openfoam.org
    \\  /    A nd           | Version:  12
     \\/     M anipulation  |
\*---------------------------------------------------------------------------*/
FoamFile
{
    format      ascii;
    class       volScalarField;
    location    "18.2";
    object      rho;
}
// * * * * * * * * * * * * * * * * * * * * * * * * * * * * * * * * * * * * * //

dimensions      [1 -3 0 0 0 0 0];

internalField   nonuniform List<scalar> 
9801
(
1.06214
1.0769
1.09306
1.10093
1.1044
1.10712
1.10823
1.10789
1.10848
1.11032
1.11332
1.11705
1.12382
1.13965
1.15524
1.1624
1.16612
1.16891
1.16971
1.16984
1.17062
1.17265
1.17582
1.18004
1.18848
1.20561
1.21972
1.22717
1.23201
1.23582
1.23731
1.23655
1.23671
1.23891
1.24229
1.24674
1.25681
1.27687
1.29207
1.30014
1.30526
1.3084
1.3067
1.30453
1.30521
1.30846
1.31309
1.31947
1.33743
1.36273
1.37644
1.38327
1.38752
1.38488
1.37957
1.37897
1.3827
1.38778
1.39446
1.40923
1.43945
1.46151
1.4724
1.47965
1.48011
1.4682
1.46222
1.46519
1.47254
1.48173
1.49767
1.53449
1.56605
1.5835
1.59406
1.59821
1.58463
1.56903
1.56792
1.57664
1.59075
1.62031
1.67789
1.71705
1.73818
1.75478
1.7651
1.75005
1.72272
1.71876
1.73747
1.77679
1.86846
1.96172
2.03243
2.11717
2.16766
3.19663
11.5279
1.06862
1.08442
1.09703
1.10463
1.10963
1.11354
1.11531
1.11265
1.11253
1.11516
1.1188
1.1227
1.1292
1.14479
1.15934
1.16712
1.17208
1.17598
1.17584
1.17182
1.17273
1.17614
1.18032
1.18474
1.19234
1.21045
1.22527
1.2325
1.23745
1.24142
1.23974
1.23571
1.23738
1.24147
1.24612
1.25108
1.26122
1.28195
1.2964
1.30394
1.30928
1.31284
1.30769
1.30326
1.3056
1.31064
1.31624
1.32269
1.3396
1.36395
1.37801
1.38578
1.39155
1.39021
1.37951
1.37758
1.38246
1.38862
1.39546
1.4092
1.43958
1.46177
1.47354
1.48109
1.48382
1.47112
1.46137
1.46406
1.47215
1.48143
1.49748
1.53379
1.56491
1.58092
1.59166
1.59994
1.5905
1.56822
1.56532
1.57624
1.58978
1.617
1.66614
1.7048
1.72815
1.74784
1.76542
1.75577
1.72253
1.71482
1.7364
1.77007
1.83475
1.91159
1.97053
2.03667
2.06062
3.05436
11.554
1.06749
1.08381
1.09561
1.10257
1.1075
1.11141
1.11337
1.11133
1.11101
1.11358
1.1173
1.12137
1.12788
1.14306
1.15709
1.16474
1.16982
1.17373
1.17416
1.1705
1.17099
1.17428
1.1785
1.18294
1.19019
1.20787
1.22289
1.2303
1.23533
1.23935
1.23766
1.23331
1.2347
1.23873
1.24349
1.2486
1.2586
1.27932
1.29383
1.3012
1.30648
1.30995
1.30456
1.30003
1.30253
1.30773
1.31353
1.31999
1.33593
1.35946
1.37329
1.3811
1.38698
1.38708
1.37691
1.37373
1.37792
1.38431
1.39149
1.40373
1.43133
1.45358
1.46557
1.47365
1.47864
1.46971
1.45793
1.45809
1.46513
1.47401
1.48728
1.51941
1.55066
1.56832
1.58067
1.59111
1.58797
1.56428
1.55628
1.56476
1.57829
1.59682
1.63911
1.68665
1.71574
1.73516
1.75261
1.75009
1.71807
1.70118
1.71394
1.74369
1.79055
1.8633
1.92203
1.97818
1.99787
3.00374
11.3873
1.06673
1.08314
1.09349
1.09965
1.10417
1.10801
1.11092
1.11036
1.10957
1.11164
1.11508
1.11922
1.12588
1.14012
1.15329
1.16084
1.166
1.1702
1.1725
1.1695
1.16824
1.17051
1.17432
1.17892
1.1863
1.20329
1.21857
1.22641
1.23163
1.23592
1.23492
1.229
1.22876
1.23211
1.23706
1.243
1.2539
1.27425
1.28881
1.29618
1.30143
1.30511
1.29989
1.29382
1.29526
1.29985
1.30564
1.3127
1.32826
1.35097
1.365
1.37297
1.37909
1.38185
1.37258
1.3661
1.3684
1.37369
1.38056
1.39136
1.41692
1.44137
1.45488
1.46337
1.47006
1.46659
1.4503
1.44541
1.45085
1.4592
1.46995
1.49707
1.53207
1.55276
1.56533
1.57566
1.57952
1.55946
1.54204
1.545
1.55737
1.57248
1.60329
1.65222
1.68633
1.7068
1.72446
1.73387
1.71327
1.68875
1.68552
1.70629
1.73916
1.79113
1.84865
1.89823
1.92206
3.0168
11.2549
1.06356
1.08029
1.08957
1.09507
1.09907
1.10262
1.10582
1.10668
1.10571
1.10734
1.11046
1.11432
1.12084
1.13493
1.14785
1.15505
1.15993
1.16405
1.16744
1.16617
1.16317
1.16445
1.16779
1.17209
1.17912
1.19561
1.21164
1.21982
1.22494
1.22921
1.22998
1.22372
1.22159
1.2243
1.22863
1.23397
1.24415
1.26424
1.27997
1.28786
1.29321
1.29752
1.29457
1.28666
1.28652
1.29043
1.29547
1.30158
1.31544
1.33839
1.35367
1.36204
1.36826
1.37288
1.36665
1.35621
1.35596
1.36051
1.367
1.37618
1.39913
1.42598
1.44112
1.45003
1.45702
1.45929
1.44389
1.43131
1.4335
1.44151
1.45143
1.47201
1.50858
1.534
1.54759
1.55816
1.56731
1.55822
1.53321
1.52488
1.53418
1.54861
1.56987
1.61319
1.65706
1.68414
1.70362
1.72022
1.7156
1.68973
1.67379
1.67805
1.70225
1.73949
1.79168
1.83623
1.85808
3.02845
11.1843
1.05955
1.07594
1.085
1.09079
1.09509
1.0988
1.10221
1.10344
1.10169
1.10285
1.10576
1.10938
1.11497
1.12868
1.14223
1.14989
1.15493
1.159
1.16263
1.16262
1.1583
1.15849
1.16145
1.16539
1.17128
1.18663
1.20404
1.21325
1.21855
1.22267
1.22511
1.22047
1.21577
1.21711
1.22078
1.22535
1.23288
1.25203
1.27063
1.28007
1.2858
1.29047
1.29111
1.28279
1.27804
1.28001
1.28437
1.2899
1.30131
1.3253
1.34363
1.35311
1.35959
1.36504
1.36377
1.35075
1.34428
1.34737
1.35395
1.36273
1.38292
1.41197
1.42946
1.43889
1.44616
1.45203
1.44389
1.42541
1.42047
1.4269
1.43634
1.45124
1.48476
1.51823
1.53573
1.54667
1.5565
1.55726
1.53422
1.5173
1.51838
1.53019
1.54576
1.57601
1.62299
1.65963
1.68395
1.70423
1.71633
1.70223
1.67899
1.67033
1.67853
1.70253
1.74217
1.78688
1.80945
3.04744
11.16
1.0562
1.07206
1.0803
1.08607
1.09087
1.09503
1.09888
1.09989
1.09745
1.09866
1.10155
1.10509
1.11053
1.12341
1.13597
1.14375
1.14939
1.15395
1.15801
1.15881
1.15428
1.15424
1.15706
1.16083
1.16583
1.17921
1.19597
1.20587
1.21208
1.21687
1.22086
1.21942
1.21263
1.21177
1.21477
1.21902
1.225
1.24115
1.26132
1.27276
1.27959
1.28485
1.28874
1.28355
1.27339
1.27156
1.27517
1.28079
1.29034
1.31335
1.33494
1.34591
1.35283
1.35865
1.36197
1.35131
1.3393
1.33864
1.34445
1.35218
1.36788
1.39797
1.42041
1.43134
1.43881
1.44579
1.44577
1.42748
1.41659
1.41893
1.42693
1.43701
1.46001
1.49944
1.52628
1.54025
1.55082
1.55894
1.54826
1.52375
1.51366
1.51791
1.53042
1.54893
1.58715
1.63231
1.66518
1.68872
1.70925
1.71441
1.69719
1.67767
1.67192
1.68152
1.70415
1.74555
1.7719
3.06044
11.1606
1.05246
1.07059
1.07985
1.08529
1.08951
1.0933
1.09685
1.09604
1.09315
1.09426
1.09739
1.10141
1.10807
1.1221
1.13399
1.14095
1.14598
1.15034
1.15441
1.15482
1.15015
1.15015
1.15317
1.15732
1.16299
1.1764
1.19174
1.20086
1.20712
1.21233
1.21691
1.2185
1.21117
1.20775
1.21011
1.21443
1.22033
1.23476
1.25507
1.2674
1.27469
1.28048
1.28557
1.28575
1.27347
1.26751
1.26998
1.27514
1.28291
1.30299
1.32818
1.34171
1.34912
1.35517
1.36048
1.35612
1.34057
1.33589
1.33954
1.346
1.35537
1.38092
1.41157
1.42747
1.43603
1.44339
1.44899
1.43832
1.42029
1.41544
1.41983
1.42831
1.44107
1.47428
1.51375
1.53617
1.54929
1.56015
1.56477
1.54321
1.51916
1.51445
1.52174
1.5351
1.5571
1.59839
1.63896
1.6685
1.69179
1.7116
1.71329
1.69753
1.6781
1.67088
1.67728
1.70142
1.73275
3.07604
11.1734
1.04788
1.06681
1.08116
1.08669
1.09025
1.09394
1.09699
1.09579
1.09194
1.09155
1.09409
1.09784
1.10423
1.12025
1.13511
1.14171
1.14637
1.15059
1.15436
1.1543
1.14887
1.14728
1.14991
1.15397
1.1598
1.17391
1.19106
1.20058
1.20655
1.21147
1.21584
1.21823
1.21167
1.20606
1.2075
1.21167
1.2171
1.22998
1.25176
1.2658
1.27313
1.27862
1.28363
1.28625
1.27697
1.2681
1.2688
1.27336
1.2792
1.29309
1.32061
1.33924
1.3481
1.35441
1.3602
1.3616
1.34778
1.33704
1.33719
1.34227
1.34914
1.36416
1.39812
1.42412
1.43634
1.44435
1.45149
1.45053
1.43031
1.41557
1.41477
1.42153
1.4311
1.45025
1.49195
1.52814
1.54731
1.55938
1.56949
1.56735
1.54128
1.52148
1.51962
1.52764
1.54143
1.5674
1.60945
1.64626
1.67329
1.69528
1.71132
1.70993
1.6955
1.67404
1.66187
1.66753
1.68689
3.08204
11.2003
1.04608
1.05956
1.07951
1.08922
1.0938
1.09716
1.09946
1.09765
1.09272
1.09121
1.09291
1.09617
1.10061
1.114
1.13458
1.14509
1.14955
1.15288
1.15585
1.15573
1.15004
1.14718
1.14872
1.15236
1.15699
1.16842
1.18935
1.20253
1.2085
1.21273
1.21675
1.2195
1.21423
1.20695
1.20693
1.21056
1.21532
1.22442
1.24675
1.2652
1.27393
1.27951
1.28442
1.2883
1.28282
1.27168
1.26945
1.2728
1.27795
1.28584
1.30919
1.33549
1.3482
1.35522
1.36112
1.36597
1.35868
1.34197
1.33702
1.34024
1.3466
1.35514
1.38017
1.41621
1.43611
1.44587
1.45323
1.4589
1.44782
1.42382
1.41523
1.41846
1.42697
1.43707
1.46222
1.50713
1.53883
1.55563
1.56749
1.57731
1.57154
1.54329
1.52531
1.52543
1.5348
1.54973
1.57828
1.61808
1.65069
1.67529
1.69571
1.70712
1.70448
1.68921
1.66579
1.64809
1.6392
3.06689
11.2365
1.04707
1.05531
1.07463
1.08902
1.0952
1.09915
1.1021
1.10287
1.09722
1.09291
1.09385
1.09674
1.10046
1.10828
1.12921
1.1452
1.15186
1.15608
1.1594
1.16067
1.15503
1.14954
1.1497
1.15243
1.15639
1.16296
1.18274
1.20217
1.21072
1.21549
1.21943
1.2229
1.22035
1.2112
1.20827
1.21037
1.21458
1.22028
1.23772
1.26235
1.27501
1.28147
1.28654
1.29126
1.29067
1.27844
1.27158
1.27251
1.27694
1.28268
1.29665
1.32705
1.34773
1.35684
1.36299
1.36854
1.36897
1.3527
1.3402
1.34017
1.34561
1.35244
1.36438
1.39808
1.43012
1.44475
1.45294
1.46017
1.46369
1.44609
1.42475
1.41972
1.42316
1.43156
1.44318
1.47485
1.51984
1.54853
1.56438
1.57609
1.58333
1.57364
1.54786
1.53238
1.53291
1.54203
1.55701
1.58729
1.62525
1.65458
1.67619
1.69346
1.70083
1.69702
1.68001
1.65093
1.61257
3.0283
11.281
1.04983
1.05576
1.07042
1.08632
1.0947
1.09937
1.10291
1.10596
1.10516
1.09779
1.09645
1.09887
1.1022
1.1069
1.12173
1.14205
1.15219
1.15752
1.16167
1.16517
1.16409
1.15547
1.15222
1.1539
1.1571
1.16139
1.17392
1.19775
1.21156
1.21809
1.2228
1.22694
1.2283
1.21898
1.21125
1.21129
1.21443
1.21911
1.22924
1.25509
1.27508
1.28373
1.28922
1.29393
1.2969
1.28821
1.27567
1.27359
1.27682
1.28194
1.28918
1.31243
1.34295
1.35788
1.36521
1.37098
1.37592
1.3688
1.34998
1.343
1.34435
1.34966
1.35689
1.37515
1.4142
1.44157
1.45434
1.4628
1.47059
1.46989
1.44549
1.42611
1.42362
1.42886
1.43735
1.44911
1.48297
1.52697
1.55367
1.56922
1.58154
1.5895
1.58043
1.55415
1.53784
1.5377
1.54677
1.56251
1.59507
1.63149
1.65793
1.67713
1.69104
1.69452
1.68857
1.66308
1.61238
2.97285
11.3263
1.05396
1.05918
1.07026
1.08428
1.09302
1.0988
1.10322
1.10704
1.10978
1.10523
1.10072
1.10194
1.10483
1.10828
1.11705
1.13649
1.15061
1.15779
1.16276
1.16685
1.17007
1.1651
1.15663
1.156
1.15861
1.1623
1.16921
1.19026
1.21044
1.2194
1.22474
1.22919
1.23296
1.22904
1.21676
1.21333
1.21572
1.21981
1.22561
1.24399
1.27115
1.28487
1.29142
1.29637
1.30095
1.29966
1.28514
1.27701
1.27771
1.28169
1.28715
1.29846
1.32987
1.35607
1.36712
1.37371
1.37942
1.38163
1.36659
1.34832
1.34403
1.34711
1.35373
1.3622
1.38863
1.42991
1.45322
1.46366
1.47084
1.47811
1.4749
1.44924
1.43163
1.4287
1.43172
1.43925
1.45326
1.49157
1.53589
1.56255
1.57811
1.58998
1.59433
1.58341
1.55807
1.5415
1.54102
1.54983
1.56703
1.60249
1.63824
1.66194
1.67733
1.68508
1.68703
1.67398
1.62985
2.92466
11.3692
1.05722
1.06287
1.07314
1.0851
1.09324
1.09924
1.10412
1.10827
1.11193
1.1113
1.10591
1.10543
1.10764
1.11084
1.11632
1.1326
1.14895
1.15765
1.16331
1.1679
1.17195
1.17285
1.1636
1.15897
1.16079
1.1643
1.16885
1.1829
1.20659
1.21963
1.22585
1.23056
1.2348
1.23649
1.22629
1.21752
1.21791
1.22124
1.2257
1.23464
1.26091
1.28364
1.293
1.29872
1.30377
1.30777
1.29928
1.28359
1.27927
1.28129
1.28613
1.29246
1.31138
1.3465
1.36721
1.37626
1.38246
1.38814
1.38597
1.36444
1.34945
1.34834
1.35242
1.35883
1.36816
1.40012
1.44041
1.46097
1.47213
1.48114
1.48846
1.47964
1.44938
1.43165
1.43058
1.43677
1.44608
1.46209
1.50185
1.54317
1.56708
1.58172
1.59303
1.59681
1.5856
1.56053
1.54418
1.54322
1.55139
1.57026
1.60797
1.64207
1.66233
1.67341
1.67774
1.67557
1.65219
2.89905
11.4084
1.0589
1.06436
1.07433
1.08776
1.09566
1.10136
1.1062
1.11034
1.11416
1.11549
1.11018
1.10822
1.11023
1.11367
1.11825
1.1314
1.14892
1.15864
1.16452
1.16923
1.17344
1.17668
1.17134
1.1634
1.16348
1.1665
1.17035
1.17805
1.19997
1.21863
1.22683
1.2321
1.23666
1.24068
1.23747
1.22488
1.22053
1.22218
1.22601
1.2312
1.24719
1.27724
1.29415
1.3014
1.30658
1.31118
1.31146
1.29579
1.28288
1.28201
1.28583
1.29137
1.29932
1.32615
1.35996
1.37589
1.38324
1.38914
1.39499
1.38967
1.36624
1.35337
1.35199
1.35517
1.36157
1.37403
1.41269
1.45314
1.47211
1.48119
1.48752
1.49275
1.48287
1.45502
1.43996
1.43948
1.44495
1.45396
1.47075
1.50992
1.54752
1.56941
1.58343
1.59453
1.59823
1.58823
1.56339
1.54592
1.54371
1.55065
1.57073
1.6101
1.64219
1.65872
1.66628
1.66759
1.6668
2.90535
11.4434
1.0599
1.06488
1.07295
1.0893
1.09959
1.1048
1.10916
1.1131
1.11678
1.11882
1.11357
1.11055
1.11234
1.11571
1.1198
1.12997
1.14896
1.16068
1.16672
1.17146
1.17567
1.1795
1.17826
1.16902
1.16628
1.16835
1.17197
1.17676
1.1919
1.21592
1.22839
1.23447
1.23914
1.24343
1.24564
1.23489
1.224
1.22344
1.22668
1.23119
1.2385
1.26326
1.29094
1.30284
1.3087
1.3133
1.31797
1.31321
1.29441
1.286
1.28671
1.29036
1.2958
1.30659
1.34
1.37096
1.38478
1.39245
1.3989
1.40374
1.39225
1.3664
1.35491
1.35574
1.36094
1.36745
1.37983
1.41958
1.45812
1.47558
1.48612
1.49542
1.502
1.49112
1.46254
1.44671
1.44539
1.45047
1.45837
1.47569
1.51495
1.55075
1.57223
1.5867
1.59802
1.60242
1.59135
1.56379
1.5445
1.54133
1.54724
1.56809
1.60865
1.63881
1.65294
1.65612
1.67138
2.93862
11.4785
1.06074
1.06509
1.07019
1.08657
1.10235
1.1092
1.11303
1.11662
1.12009
1.12227
1.11749
1.11318
1.11418
1.11703
1.12071
1.12722
1.14579
1.16271
1.17002
1.17447
1.1785
1.1823
1.18392
1.1756
1.16914
1.16988
1.17306
1.17725
1.18535
1.20885
1.22909
1.23736
1.24199
1.24613
1.25
1.24657
1.2319
1.22628
1.22791
1.23157
1.2363
1.24769
1.27853
1.30154
1.31083
1.31672
1.32173
1.32532
1.31435
1.2949
1.28843
1.28971
1.29394
1.29993
1.31576
1.35432
1.38222
1.39346
1.39949
1.40508
1.40998
1.39658
1.37126
1.3613
1.3606
1.36357
1.36988
1.38515
1.42857
1.46857
1.487
1.4963
1.50412
1.50881
1.49666
1.46906
1.45154
1.44845
1.45336
1.46151
1.48179
1.52393
1.5586
1.57833
1.59102
1.60097
1.60426
1.5917
1.56197
1.54101
1.53676
1.54193
1.56428
1.6059
1.63416
1.64382
1.66437
2.99214
11.5184
1.06201
1.06543
1.06887
1.07904
1.10071
1.1131
1.11791
1.12113
1.12429
1.12655
1.12305
1.11664
1.11569
1.11769
1.12108
1.12536
1.138
1.16103
1.17323
1.17827
1.18195
1.18557
1.18855
1.18362
1.17362
1.17176
1.17421
1.17791
1.18251
1.19681
1.22423
1.239
1.24513
1.24941
1.25366
1.25636
1.24573
1.2322
1.22949
1.2313
1.2354
1.24105
1.25955
1.29308
1.31188
1.31998
1.32564
1.33069
1.33177
1.31421
1.29574
1.29172
1.29435
1.29919
1.30515
1.32409
1.36406
1.38914
1.40031
1.40821
1.41489
1.41798
1.39967
1.37291
1.36298
1.36475
1.37074
1.37763
1.39143
1.43349
1.47272
1.49089
1.50109
1.50942
1.51444
1.50187
1.47321
1.45526
1.45288
1.45848
1.46834
1.49166
1.53299
1.56397
1.58136
1.5932
1.60243
1.60546
1.59109
1.55955
1.53691
1.53143
1.53581
1.5602
1.60144
1.62434
1.65002
3.05516
11.5596
1.06388
1.06646
1.0695
1.07415
1.09115
1.11323
1.12252
1.12642
1.12928
1.13162
1.13034
1.12214
1.11769
1.11884
1.1217
1.12529
1.13088
1.1508
1.17299
1.18204
1.18624
1.18975
1.19314
1.19284
1.18209
1.17525
1.17542
1.17774
1.1816
1.18782
1.21055
1.23719
1.24835
1.25363
1.25776
1.26168
1.25982
1.24302
1.23221
1.23217
1.23574
1.24066
1.24759
1.27268
1.30508
1.31981
1.32636
1.33141
1.33668
1.33664
1.31643
1.29973
1.2965
1.29788
1.30219
1.30898
1.33361
1.37617
1.40003
1.40947
1.41459
1.4201
1.42384
1.40618
1.3808
1.37189
1.37163
1.37443
1.38055
1.39592
1.43886
1.47769
1.49609
1.506
1.51376
1.51759
1.50819
1.48228
1.4639
1.46032
1.46402
1.47236
1.49684
1.53796
1.56733
1.58356
1.5947
1.60346
1.60675
1.59211
1.5579
1.53199
1.52507
1.52835
1.55516
1.59132
1.6254
3.11806
11.5976
1.06779
1.06836
1.07117
1.07455
1.08196
1.1049
1.12299
1.13015
1.13398
1.13688
1.13884
1.13337
1.12345
1.12125
1.12309
1.1259
1.12953
1.13836
1.16436
1.18323
1.19044
1.19446
1.19791
1.2006
1.1945
1.18108
1.17678
1.1785
1.18182
1.18615
1.19636
1.2256
1.24809
1.25687
1.26165
1.26524
1.26845
1.26077
1.24272
1.23629
1.23755
1.24048
1.245
1.25363
1.2839
1.31438
1.32752
1.33445
1.34021
1.34524
1.34095
1.31714
1.30111
1.29951
1.30353
1.30883
1.31519
1.3396
1.38099
1.40351
1.4144
1.42289
1.42976
1.43197
1.41169
1.38437
1.37356
1.37461
1.38011
1.38714
1.40147
1.44211
1.48021
1.49906
1.51034
1.5198
1.52531
1.51695
1.48864
1.46653
1.46064
1.46421
1.47228
1.49874
1.54123
1.57013
1.58634
1.59819
1.60653
1.60855
1.59195
1.55505
1.52578
1.51647
1.51976
1.54513
1.59035
3.16603
11.6277
1.07542
1.07132
1.07334
1.07631
1.08004
1.09264
1.11747
1.13079
1.13663
1.14086
1.14431
1.14554
1.13584
1.12577
1.12475
1.1271
1.1304
1.1347
1.14955
1.17778
1.1923
1.19837
1.20229
1.20564
1.20633
1.19382
1.1816
1.18051
1.18344
1.18724
1.19174
1.20622
1.23793
1.25639
1.26369
1.26864
1.27282
1.2753
1.26316
1.24502
1.23952
1.24081
1.24426
1.24909
1.26104
1.29603
1.32454
1.3358
1.34127
1.34567
1.35103
1.34645
1.32224
1.30809
1.3061
1.30724
1.31139
1.31863
1.34647
1.39043
1.41422
1.42362
1.4289
1.43418
1.43742
1.41996
1.3934
1.38238
1.38165
1.38465
1.39061
1.40578
1.44813
1.48677
1.50546
1.51535
1.52336
1.52789
1.51974
1.49117
1.46738
1.4607
1.46395
1.47315
1.50131
1.54522
1.57499
1.59041
1.59992
1.60627
1.60662
1.5899
1.55223
1.51937
1.50633
1.50652
1.54594
3.18616
11.6548
1.0857
1.07654
1.07603
1.07838
1.08138
1.08697
1.10649
1.12853
1.1378
1.14264
1.14651
1.14998
1.14956
1.13673
1.12856
1.12926
1.13238
1.13597
1.14162
1.16286
1.18875
1.19926
1.20434
1.20825
1.21193
1.21009
1.19449
1.18556
1.1858
1.18809
1.19151
1.19675
1.21692
1.24886
1.26468
1.27176
1.27695
1.28156
1.2822
1.26482
1.24702
1.24334
1.24583
1.24987
1.25457
1.26766
1.30411
1.33056
1.34159
1.34886
1.35487
1.35965
1.35162
1.32535
1.31009
1.3088
1.31279
1.31805
1.32449
1.34975
1.39255
1.41588
1.42704
1.4359
1.44289
1.44563
1.42802
1.39959
1.3856
1.38482
1.3899
1.39683
1.4115
1.45239
1.489
1.50657
1.51688
1.52531
1.53073
1.52302
1.49451
1.47075
1.46397
1.46601
1.47407
1.50193
1.54548
1.57436
1.5894
1.59894
1.60458
1.60372
1.58725
1.54965
1.5146
1.49198
1.49681
3.16494
11.6854
1.09335
1.08516
1.07983
1.08122
1.08408
1.08745
1.09763
1.12131
1.13712
1.14352
1.14775
1.15142
1.15471
1.15115
1.13764
1.13312
1.13483
1.1378
1.14132
1.14968
1.1763
1.19803
1.2063
1.21106
1.21502
1.21857
1.21285
1.19554
1.1883
1.18932
1.19253
1.19649
1.20303
1.22834
1.25884
1.27215
1.27814
1.28271
1.28743
1.28755
1.26851
1.25212
1.24894
1.24998
1.25325
1.25837
1.27518
1.31455
1.34067
1.35071
1.35573
1.36028
1.36567
1.35866
1.33263
1.31819
1.31579
1.31638
1.32019
1.32704
1.35467
1.40056
1.42625
1.43627
1.44205
1.44726
1.45087
1.4366
1.40819
1.39306
1.39074
1.3929
1.39827
1.4148
1.45861
1.49501
1.51201
1.52159
1.52949
1.53544
1.53016
1.50078
1.47372
1.4644
1.46542
1.47153
1.49813
1.54336
1.57383
1.58916
1.59782
1.60223
1.60061
1.584
1.5469
1.50224
1.47135
3.10298
11.7213
1.09699
1.09457
1.08543
1.08484
1.08719
1.09021
1.09482
1.11112
1.13351
1.14392
1.14901
1.15305
1.15672
1.15946
1.15149
1.13936
1.13739
1.13965
1.14295
1.14703
1.16004
1.18915
1.20677
1.21378
1.2181
1.22198
1.22473
1.21388
1.19691
1.19258
1.19437
1.19742
1.20137
1.20942
1.23868
1.26751
1.2795
1.28574
1.29103
1.29561
1.29257
1.27035
1.25391
1.25168
1.25496
1.25951
1.26441
1.28096
1.31974
1.34467
1.35549
1.36332
1.36948
1.37406
1.36505
1.33743
1.32037
1.31794
1.32176
1.32765
1.33406
1.35784
1.40173
1.42711
1.4385
1.44695
1.45397
1.458
1.44462
1.41463
1.39604
1.39264
1.39697
1.40425
1.42212
1.46473
1.49972
1.51753
1.52821
1.53615
1.54153
1.53443
1.50327
1.47371
1.46232
1.46279
1.46941
1.49525
1.54113
1.57331
1.58889
1.59602
1.59843
1.59514
1.57962
1.53599
1.4779
3.01736
11.768
1.09933
1.1017
1.09234
1.08873
1.09029
1.09306
1.09615
1.10368
1.12567
1.14352
1.1507
1.15504
1.15886
1.16259
1.16308
1.15053
1.14182
1.14207
1.1449
1.14827
1.15287
1.17103
1.20045
1.21457
1.2207
1.22513
1.22918
1.23027
1.21541
1.19992
1.19674
1.19831
1.20156
1.20603
1.21692
1.24971
1.27671
1.28727
1.2924
1.29607
1.3007
1.29806
1.2758
1.26089
1.25852
1.25937
1.26246
1.26783
1.28705
1.32852
1.35486
1.36483
1.36962
1.37401
1.37942
1.37333
1.34666
1.3298
1.32653
1.3268
1.32963
1.33595
1.36032
1.4067
1.43506
1.44611
1.45216
1.45802
1.46351
1.45439
1.42469
1.40499
1.40059
1.40218
1.40724
1.42488
1.46786
1.50396
1.52175
1.53093
1.53762
1.54291
1.53862
1.50884
1.4768
1.46365
1.46216
1.46686
1.49132
1.5379
1.57104
1.58585
1.59167
1.59251
1.58954
1.56872
1.51855
2.94723
11.8233
1.10187
1.10651
1.10011
1.09303
1.09308
1.09555
1.0987
1.10223
1.11478
1.13919
1.1522
1.1576
1.16155
1.16531
1.16883
1.16468
1.1503
1.14531
1.14649
1.14914
1.15272
1.1591
1.18311
1.21083
1.22275
1.2287
1.23324
1.23723
1.23551
1.21634
1.20189
1.20045
1.20371
1.2077
1.21193
1.22352
1.25746
1.28263
1.29266
1.29908
1.30446
1.30894
1.30388
1.2799
1.26333
1.26098
1.26426
1.26912
1.27412
1.29105
1.33078
1.35662
1.36803
1.37643
1.38286
1.38766
1.381
1.35418
1.33337
1.32765
1.33019
1.33548
1.34207
1.36377
1.40763
1.43536
1.44813
1.45838
1.46609
1.47056
1.46089
1.43047
1.40713
1.40036
1.40224
1.40725
1.42418
1.46811
1.50438
1.52172
1.53248
1.54203
1.5479
1.54385
1.51361
1.4788
1.46249
1.45983
1.4631
1.48548
1.53307
1.56727
1.58141
1.58543
1.58648
1.57961
1.56362
2.9219
11.8778
1.10528
1.11065
1.10891
1.09947
1.09628
1.09776
1.10031
1.10327
1.10813
1.12734
1.15098
1.1608
1.16532
1.16887
1.17238
1.17445
1.16358
1.15034
1.14814
1.15057
1.15409
1.15799
1.16658
1.19473
1.21976
1.22954
1.23457
1.23864
1.24285
1.24046
1.22074
1.20829
1.20711
1.20849
1.21161
1.21622
1.23048
1.26647
1.29148
1.30111
1.30579
1.30963
1.31457
1.31123
1.28755
1.27144
1.26851
1.26893
1.27155
1.27671
1.29493
1.33739
1.36647
1.37752
1.38266
1.38669
1.39215
1.3897
1.3648
1.34253
1.33595
1.336
1.33859
1.3442
1.36638
1.41326
1.44396
1.45626
1.46281
1.46791
1.47254
1.4659
1.43657
1.41135
1.40235
1.40269
1.40815
1.42456
1.46869
1.51001
1.52997
1.53859
1.54522
1.55007
1.54676
1.51779
1.4801
1.46021
1.45576
1.4585
1.47953
1.52782
1.56278
1.5757
1.57972
1.57538
1.5889
2.94516
11.9256
1.11006
1.11552
1.11721
1.10925
1.10054
1.09951
1.10119
1.10421
1.10777
1.11549
1.14038
1.16143
1.16935
1.17304
1.17601
1.17928
1.17777
1.162
1.15253
1.15306
1.15613
1.15939
1.16314
1.17323
1.20361
1.22689
1.23629
1.24192
1.24688
1.25093
1.24556
1.22363
1.21081
1.21024
1.21353
1.21738
1.22162
1.23553
1.27144
1.29575
1.30585
1.31282
1.31839
1.32299
1.31847
1.29379
1.27473
1.27063
1.27345
1.2784
1.28343
1.29825
1.33799
1.36691
1.3794
1.38809
1.3948
1.39986
1.3978
1.37437
1.34873
1.33834
1.33904
1.344
1.35032
1.36967
1.41332
1.44273
1.45568
1.46466
1.47216
1.47789
1.47378
1.44532
1.41724
1.40662
1.4063
1.41077
1.42549
1.46825
1.50968
1.52944
1.53931
1.54658
1.55127
1.54912
1.52264
1.48225
1.45851
1.45204
1.45345
1.47385
1.52247
1.55645
1.56941
1.56718
1.59595
3.00116
11.9681
1.11517
1.12102
1.12346
1.12095
1.10812
1.1018
1.1028
1.10578
1.1092
1.11279
1.12299
1.15101
1.16984
1.17716
1.18098
1.18403
1.18681
1.18068
1.16406
1.15749
1.15809
1.16017
1.16349
1.1677
1.18017
1.21241
1.2348
1.24357
1.24823
1.25213
1.25647
1.25173
1.23002
1.2181
1.21661
1.21742
1.22042
1.22516
1.2412
1.27938
1.30494
1.31454
1.31914
1.32305
1.32834
1.32679
1.30336
1.2838
1.27914
1.279
1.28069
1.28537
1.30034
1.34236
1.3757
1.38875
1.39452
1.39843
1.40381
1.40549
1.38585
1.35819
1.34638
1.34457
1.34564
1.35058
1.3704
1.41714
1.45134
1.46631
1.4739
1.48032
1.48566
1.48208
1.45369
1.42245
1.40935
1.40816
1.4114
1.42227
1.46383
1.50907
1.53124
1.5409
1.54776
1.55331
1.55307
1.5272
1.48356
1.45563
1.44755
1.44812
1.46791
1.51564
1.54839
1.55573
1.59032
3.07378
12.0085
1.11805
1.12638
1.12885
1.13075
1.1229
1.10927
1.10608
1.10787
1.11044
1.11338
1.11711
1.13025
1.16016
1.17799
1.18523
1.18926
1.19241
1.19482
1.18477
1.16653
1.16042
1.16217
1.1655
1.1686
1.17254
1.18611
1.21942
1.24096
1.24977
1.25571
1.26087
1.26476
1.25752
1.23375
1.22002
1.21915
1.22243
1.22669
1.23103
1.24527
1.28226
1.30747
1.31817
1.32583
1.33168
1.33624
1.33392
1.31074
1.28814
1.28057
1.28217
1.28681
1.29225
1.30429
1.34234
1.37531
1.38966
1.39846
1.40551
1.41096
1.41261
1.39482
1.36484
1.34867
1.34661
1.35092
1.35745
1.37527
1.41975
1.45462
1.47031
1.47819
1.48363
1.4888
1.48732
1.46035
1.42728
1.41071
1.40786
1.41147
1.422
1.46052
1.50759
1.53324
1.54384
1.54954
1.55373
1.55366
1.53042
1.48466
1.45204
1.4418
1.44213
1.46169
1.50846
1.53341
1.57478
3.15101
12.0455
1.11735
1.13097
1.13404
1.13688
1.13744
1.12509
1.11195
1.10941
1.11127
1.11428
1.1177
1.12207
1.13784
1.16833
1.18525
1.19234
1.19692
1.20061
1.20245
1.19036
1.17249
1.16708
1.16743
1.16919
1.17268
1.17737
1.19339
1.22798
1.24951
1.25779
1.26199
1.26544
1.26982
1.26461
1.24161
1.22841
1.2264
1.22687
1.22937
1.23397
1.24953
1.28899
1.31683
1.3273
1.33193
1.33513
1.34008
1.3413
1.32174
1.29797
1.28972
1.28909
1.29012
1.29393
1.30525
1.3441
1.38187
1.3979
1.40448
1.40857
1.41429
1.41908
1.40639
1.37591
1.35875
1.35491
1.35493
1.35822
1.37338
1.4175
1.45501
1.47095
1.47916
1.48646
1.49286
1.49384
1.47074
1.43432
1.41442
1.41005
1.41175
1.41887
1.45519
1.50515
1.53169
1.54235
1.549
1.55366
1.55376
1.5326
1.48584
1.44858
1.43584
1.43513
1.45606
1.49501
1.54707
3.22085
12.0747
1.10879
1.13281
1.13818
1.1415
1.14426
1.14327
1.12782
1.11508
1.11367
1.11621
1.11949
1.12271
1.12691
1.14436
1.17592
1.19272
1.19976
1.20458
1.20885
1.21045
1.19563
1.17545
1.16945
1.17144
1.17514
1.17885
1.18299
1.19846
1.23287
1.25369
1.26244
1.26885
1.27406
1.27815
1.27185
1.24746
1.23115
1.22856
1.2315
1.23593
1.24017
1.25254
1.28926
1.31697
1.32878
1.3371
1.34341
1.34836
1.3495
1.33194
1.30536
1.2922
1.29111
1.29491
1.30009
1.30954
1.34368
1.38041
1.39754
1.40812
1.41703
1.42288
1.42642
1.4139
1.38157
1.35916
1.35289
1.35441
1.35881
1.37313
1.41738
1.45855
1.47772
1.4871
1.49427
1.49942
1.49997
1.47692
1.4381
1.4149
1.40885
1.41106
1.4183
1.45152
1.50166
1.53061
1.5423
1.54847
1.55263
1.55284
1.53372
1.48686
1.44549
1.42895
1.42824
1.44451
1.50784
3.26653
12.0988
1.09324
1.12686
1.13894
1.14453
1.14812
1.15114
1.14875
1.13178
1.12034
1.11927
1.12099
1.1237
1.12733
1.13264
1.15244
1.18372
1.19946
1.20582
1.20973
1.21284
1.21477
1.20208
1.18325
1.17758
1.17792
1.17937
1.1826
1.1872
1.20386
1.23968
1.26212
1.27081
1.27506
1.27863
1.28336
1.28033
1.25737
1.24057
1.23684
1.23618
1.23747
1.24169
1.25441
1.29286
1.3257
1.33907
1.34483
1.34817
1.35259
1.35635
1.3438
1.31621
1.3014
1.29856
1.29879
1.30169
1.30999
1.34474
1.38758
1.40824
1.41638
1.42089
1.42496
1.42916
1.42115
1.39048
1.36634
1.35875
1.35975
1.36415
1.37566
1.41516
1.45935
1.4815
1.49017
1.49488
1.49981
1.50355
1.48634
1.44682
1.42038
1.41227
1.41214
1.41694
1.44607
1.49606
1.52714
1.54049
1.54726
1.5508
1.55021
1.533
1.48825
1.44439
1.42289
1.41193
1.45847
3.27141
12.1234
1.08337
1.10686
1.13353
1.1454
1.15099
1.15477
1.158
1.15483
1.13602
1.12378
1.12319
1.1263
1.13003
1.13353
1.13827
1.15836
1.18935
1.20451
1.21094
1.21581
1.22032
1.22228
1.20864
1.18767
1.18001
1.18128
1.18476
1.18846
1.19244
1.20699
1.24204
1.26478
1.27464
1.28197
1.28753
1.29189
1.28854
1.26497
1.24394
1.23769
1.23949
1.24385
1.24876
1.25894
1.29402
1.32673
1.34069
1.34835
1.35496
1.36024
1.36352
1.35349
1.32552
1.30541
1.30012
1.30276
1.30788
1.31544
1.34469
1.38598
1.40687
1.41641
1.42408
1.43088
1.43638
1.4319
1.4021
1.3738
1.3632
1.36177
1.36363
1.37199
1.40865
1.45504
1.47801
1.48959
1.49995
1.50647
1.50922
1.49222
1.45188
1.4214
1.41056
1.41032
1.4139
1.43884
1.49034
1.52443
1.53877
1.54533
1.54822
1.54673
1.53094
1.48924
1.44459
1.40958
1.4125
3.23018
12.1518
1.08373
1.09089
1.1134
1.13982
1.15134
1.15679
1.161
1.16435
1.16063
1.14215
1.13131
1.13074
1.13224
1.1345
1.13799
1.14345
1.16406
1.19525
1.211
1.21751
1.22125
1.22483
1.22792
1.21706
1.19642
1.18849
1.18786
1.1884
1.19107
1.19544
1.21063
1.24766
1.27377
1.28379
1.28846
1.29164
1.2963
1.29663
1.27612
1.2538
1.24698
1.24669
1.24766
1.25096
1.25963
1.29288
1.33078
1.34841
1.35528
1.3589
1.3634
1.36842
1.36405
1.33766
1.31549
1.3087
1.30733
1.30844
1.31455
1.34222
1.38803
1.41551
1.42732
1.43393
1.4397
1.44424
1.44005
1.41054
1.37757
1.36269
1.36133
1.36515
1.37331
1.4059
1.45659
1.48585
1.49668
1.50228
1.50651
1.50963
1.49709
1.45723
1.42321
1.40981
1.40833
1.41197
1.43492
1.48541
1.52166
1.53712
1.54278
1.54416
1.54144
1.52694
1.49009
1.43453
1.399
3.14436
12.1885
1.08545
1.08936
1.09541
1.12047
1.14685
1.15811
1.1635
1.16748
1.17077
1.16691
1.14769
1.13519
1.13411
1.13693
1.14018
1.14296
1.1475
1.16776
1.19951
1.21546
1.22273
1.22851
1.23321
1.23602
1.22483
1.20188
1.19048
1.19004
1.19312
1.19714
1.2011
1.21328
1.24863
1.27514
1.28638
1.29414
1.30015
1.30481
1.30492
1.28489
1.25904
1.24778
1.24734
1.25063
1.25497
1.26252
1.29202
1.33002
1.34819
1.35739
1.36552
1.37113
1.37545
1.37258
1.34783
1.32061
1.30922
1.30932
1.31381
1.32041
1.3435
1.38877
1.41892
1.43138
1.43714
1.44085
1.44614
1.44716
1.4218
1.38692
1.37089
1.3678
1.36955
1.37463
1.40197
1.45126
1.48102
1.49393
1.5029
1.50958
1.51305
1.50272
1.46485
1.42789
1.41168
1.40841
1.40971
1.42875
1.47873
1.51708
1.53318
1.53844
1.5391
1.53524
1.52279
1.48073
1.42341
3.04549
12.2409
1.08679
1.09037
1.09408
1.10238
1.12786
1.1532
1.16386
1.16909
1.17321
1.17658
1.17338
1.15497
1.14267
1.14057
1.14082
1.14284
1.14654
1.1521
1.17336
1.20642
1.22366
1.23043
1.23412
1.23756
1.2414
1.23396
1.21121
1.19909
1.19733
1.19753
1.19947
1.20351
1.21563
1.25211
1.28326
1.29595
1.30134
1.30411
1.30781
1.31057
1.29617
1.26908
1.25583
1.25422
1.25626
1.25991
1.26649
1.29209
1.33342
1.35695
1.36588
1.37019
1.37426
1.37962
1.38118
1.36037
1.33132
1.31907
1.31693
1.31743
1.32117
1.33914
1.3835
1.41637
1.43019
1.44041
1.44871
1.45405
1.45449
1.43152
1.39478
1.37376
1.36807
1.36913
1.37326
1.39537
1.44823
1.48671
1.50214
1.50852
1.51318
1.51604
1.50837
1.4714
1.43022
1.40973
1.40484
1.40584
1.42157
1.47197
1.51354
1.53007
1.5338
1.5326
1.52957
1.51197
1.47922
2.97989
12.3004
1.08998
1.09319
1.09626
1.09992
1.10728
1.13394
1.15961
1.1704
1.17589
1.18037
1.18417
1.18066
1.15953
1.14447
1.14257
1.14519
1.14886
1.15244
1.15691
1.17681
1.2101
1.22725
1.23497
1.24097
1.24567
1.24918
1.24241
1.21871
1.20232
1.19901
1.20145
1.20574
1.20995
1.21871
1.25133
1.28331
1.2971
1.30481
1.31132
1.31646
1.31953
1.30881
1.28211
1.26429
1.25961
1.26108
1.26428
1.2694
1.29065
1.33067
1.35542
1.36679
1.37595
1.38273
1.38765
1.389
1.36937
1.33719
1.31936