/*--------------------------------*- C++ -*----------------------------------*\
  =========                 |
  \\      /  F ield         | OpenFOAM: The Open Source CFD Toolbox
   \\    /   O peration     | Website:  https://openfoam.org
    \\  /    A nd           | Version:  12
     \\/     M anipulation  |
\*---------------------------------------------------------------------------*/
FoamFile
{
    format      ascii;
    class       volVectorField;
    location    "5.95";
    object      U;
}
// * * * * * * * * * * * * * * * * * * * * * * * * * * * * * * * * * * * * * //

dimensions      [0 1 -1 0 0 0 0];

internalField   nonuniform List<vector> 
22702
(
(2 -2.49857e-13 0)
(2 1.80945e-14 0)
(2.04769 -0.0830942 0)
(2 -1.13263e-09 0)
(1.9754 0.0301361 0)
(2 -3.69608e-14 0)
(1.82916 0.228538 0)
(2 6.74003e-15 0)
(2 -1.95085e-13 0)
(2.06782 -0.264304 0)
(1.83157 0.228915 0)
(1.82863 0.228286 0)
(2 -2.69879e-14 0)
(1.83157 0.229016 0)
(2.03644 -0.0685706 0)
(2 -2.52231e-13 0)
(2 -2.58681e-13 0)
(2 2.82986e-15 0)
(1.82972 0.228331 0)
(2 -3.74332e-14 0)
(1.83161 0.229006 0)
(2 -4.12474e-13 0)
(1.83 0.228596 0)
(2.10654 -0.26291 0)
(1.83177 0.227451 0)
(2.08351 -0.267155 0)
(2 -5.4397e-14 0)
(1.82828 0.228566 0)
(2.07683 -0.250426 0)
(2.10362 -0.260525 0)
(2 -5.27481e-14 0)
(1.8283 0.228321 0)
(2 -2.02137e-14 0)
(2 -2.56936e-14 0)
(2 4.43068e-14 0)
(1.8441 0.215611 0)
(1.832 0.227429 0)
(1.82984 0.228688 0)
(2 -2.91523e-13 0)
(2 -3.92101e-13 0)
(2.04871 -0.270096 0)
(2 -3.52297e-14 0)
(1.91635 0.121855 0)
(2 -2.34629e-13 0)
(1.82842 0.228463 0)
(2 -1.4167e-13 0)
(2 -4.94813e-14 0)
(2 -5.39477e-13 0)
(2 1.68322e-13 0)
(2.10993 -0.260229 0)
(2 2.74221e-14 0)
(2.10061 -0.259886 0)
(2 -1.52866e-13 0)
(1.83147 0.229136 0)
(2 -2.46908e-13 0)
(1.82857 0.228644 0)
(2 -6.45956e-15 0)
(2 1.4851e-09 0)
(2 2.73862e-13 0)
(2 3.31336e-14 0)
(2.14893 -0.255087 0)
(2 1.01099e-13 0)
(2 -2.89804e-13 0)
(2.09221 -0.263953 0)
(2 4.77524e-14 0)
(2.13194 -0.263677 0)
(2 -2.94292e-13 0)
(2 -3.19889e-13 0)
(2 -1.28192e-13 0)
(2.07987 -0.273032 0)
(2 -2.37935e-13 0)
(1.83085 0.229003 0)
(1.89813 0.148347 0)
(2 1.44883e-09 0)
(1.83119 0.229182 0)
(1.82216 0.237352 0)
(2.12623 -0.259453 0)
(1.83014 0.228686 0)
(2.10585 -0.26382 0)
(2 -3.33846e-13 0)
(1.83046 0.22898 0)
(2.10794 -0.264402 0)
(1.82841 0.228416 0)
(1.8298 0.228514 0)
(2 4.65517e-14 0)
(2 9.77103e-07 0)
(2 5.46401e-14 0)
(2 -9.59331e-14 0)
(2.02682 -0.042943 0)
(2.07058 -0.280748 0)
(1.83013 0.228647 0)
(2 -3.2196e-14 0)
(2 -5.64498e-11 0)
(2.13755 -0.260187 0)
(2 -1.4637e-14 0)
(1.83138 0.229195 0)
(2.12825 -0.263881 0)
(2 2.28909e-08 0)
(2 3.74843e-14 0)
(2 -3.50158e-13 0)
(2 -8.62643e-16 0)
(1.91604 0.121419 0)
(1.83006 0.228864 0)
(2.06524 -0.268159 0)
(2 1.52629e-10 0)
(2 -1.03973e-09 0)
(1.95817 0.0574863 0)
(2 1.06623e-08 0)
(2.10704 -0.260105 0)
(2 -3.50079e-13 0)
(1.82873 0.228315 0)
(1.82937 0.228451 0)
(2 4.43554e-09 0)
(2 -3.53252e-13 0)
(2.13122 -0.272279 0)
(2.13677 -0.263149 0)
(2.07562 -0.276229 0)
(2 9.39116e-14 0)
(2 -1.62116e-07 0)
(2 -1.02821e-13 0)
(2 8.2745e-14 0)
(2 1.26955e-07 0)
(2.02936 -0.050159 0)
(2 -1.07369e-07 0)
(1.85451 0.202997 0)
(1.98129 0.0210637 0)
(1.83098 0.228786 0)
(2 -3.88714e-13 0)
(1.83074 0.22861 0)
(1.82873 0.227811 0)
(1.8316 0.228768 0)
(1.83082 0.228798 0)
(2 -3.66451e-14 0)
(2.07207 -0.270984 0)
(2 2.178e-14 0)
(2.16021 -0.25654 0)
(2 -1.16007e-15 0)
(2 6.80532e-14 0)
(2 3.16639e-14 0)
(2 -3.20445e-14 0)
(1.82875 0.228182 0)
(2 2.93983e-09 0)
(2 1.14417e-13 0)
(2 -4.51908e-13 0)
(2 2.10601e-13 0)
(1.83227 0.229057 0)
(2 1.03179e-13 0)
(1.99438 0.0144678 0)
(2 7.46257e-14 0)
(2 -3.3202e-13 0)
(2 -7.01935e-11 0)
(2 -2.94636e-14 0)
(2.11403 -0.262706 0)
(2 -3.3886e-14 0)
(1.99628 0.00786363 0)
(2 2.88208e-14 0)
(2.10599 -0.264601 0)
(2 -1.96072e-13 0)
(2 -9.55887e-14 0)
(2 -2.44452e-14 0)
(1.82978 0.228744 0)
(2 6.18738e-15 0)
(1.83072 0.228925 0)
(2.15121 -0.256188 0)
(2.12913 -0.259027 0)
(1.82967 0.228362 0)
(1.82992 0.228447 0)
(2 2.09459e-15 0)
(1.96736 0.0475618 0)
(1.90305 0.143561 0)
(2 8.87699e-14 0)
(1.831 0.228873 0)
(2.10603 -0.264975 0)
(1.84438 0.215134 0)
(2 1.49672e-14 0)
(2 -6.07714e-14 0)
(2 1.17562e-14 0)
(2 4.12016e-14 0)
(1.83159 0.229151 0)
(1.86 0.191839 0)
(2 2.16109e-14 0)
(1.82902 0.228336 0)
(2.1328 -0.277766 0)
(1.82978 0.228577 0)
(2 7.72272e-14 0)
(2.10229 -0.261979 0)
(2 -1.12724e-13 0)
(2.10382 -0.261764 0)
(2.10463 -0.251699 0)
(2.00008 -0.000129307 0)
(2 -1.26957e-13 0)
(2 -1.91459e-13 0)
(1.82972 0.229559 0)
(2 6.80011e-14 0)
(2 -2.50338e-13 0)
(1.83191 0.228867 0)
(2 -1.53192e-13 0)
(1.82807 0.228295 0)
(1.82902 0.22777 0)
(2.10136 -0.274731 0)
(2 -1.54965e-13 0)
(2 -1.29058e-13 0)
(2.11456 -0.261984 0)
(1.83181 0.229093 0)
(2 -4.08014e-14 0)
(2 -7.11245e-14 0)
(2 -5.95337e-14 0)
(1.83181 0.229098 0)
(2 9.81191e-15 0)
(2.10873 -0.266635 0)
(2 -6.64588e-11 0)
(2 3.3849e-14 0)
(1.83154 0.228885 0)
(1.83127 0.228978 0)
(1.82831 0.228426 0)
(2 5.73973e-14 0)
(1.99998 2.52779e-05 0)
(2 -1.80151e-14 0)
(2 -1.59338e-13 0)
(2 -4.29039e-13 0)
(1.83198 0.229036 0)
(2 1.76323e-13 0)
(2.15545 -0.276383 0)
(1.82364 0.234468 0)
(1.83184 0.228817 0)
(1.83194 0.228462 0)
(2 1.86486e-07 0)
(2 -7.46846e-14 0)
(2 -2.2268e-13 0)
(2.11207 -0.271459 0)
(1.83196 0.228817 0)
(1.91538 0.1353 0)
(2 -2.80928e-14 0)
(1.8308 0.229511 0)
(2.1272 -0.271823 0)
(2.11577 -0.269447 0)
(1.8309 0.229636 0)
(1.83165 0.228344 0)
(2 1.43912e-14 0)
(1.83076 0.231412 0)
(2.09153 -0.284958 0)
(1.85119 0.205798 0)
(2 -2.25708e-13 0)
(2 -9.86531e-14 0)
(2 -2.08516e-13 0)
(2 -4.56731e-13 0)
(1.83189 0.229222 0)
(2 -1.88619e-13 0)
(1.90114 0.151284 0)
(1.98482 0.0266573 0)
(2 -3.2964e-13 0)
(2 4.10082e-14 0)
(1.83175 0.2291 0)
(2.14945 -0.252818 0)
(2.08173 -0.158823 0)
(2 -1.71592e-13 0)
(1.8319 0.228202 0)
(2.10124 -0.266671 0)
(1.82953 0.232218 0)
(2 1.73496e-14 0)
(2 -7.06649e-14 0)
(2 -2.08641e-13 0)
(2 -7.35436e-14 0)
(2 -2.29124e-15 0)
(2 1.95613e-14 0)
(2 1.18216e-13 0)
(2.10741 -0.264526 0)
(2.06188 -0.168998 0)
(2.1167 -0.270629 0)
(1.83132 0.229032 0)
(2 3.79904e-14 0)
(2 4.77041e-15 0)
(2 -1.66701e-07 0)
(2 -2.3685e-13 0)
(1.84858 0.213419 0)
(2 -1.33195e-07 0)
(2.10724 -0.263349 0)
(2 -1.93368e-13 0)
(2.1129 -0.281755 0)
(2.11128 -0.259672 0)
(1.83202 0.228814 0)
(2.12179 -0.267339 0)
(1.83163 0.229009 0)
(2 -2.30022e-14 0)
(2 -1.09484e-13 0)
(2 -9.02184e-14 0)
(2.00087 -0.00155495 0)
(2.10663 -0.262796 0)
(2.10211 -0.280479 0)
(2 -3.18001e-07 0)
(2 -1.44709e-07 0)
(2.11555 -0.282667 0)
(2 2.37538e-09 0)
(1.82857 0.227911 0)
(2.05928 -0.285586 0)
(2 8.20039e-15 0)
(2 -3.45832e-11 0)
(1.83083 0.228949 0)
(2.15033 -0.262282 0)
(2 -1.70841e-14 0)
(1.83028 0.233985 0)
(2.14268 -0.262382 0)
(1.8317 0.229101 0)
(2 -3.34534e-13 0)
(2.11197 -0.286519 0)
(2.00087 -0.00140869 0)
(2 -6.61423e-14 0)
(2 2.62077e-06 0)
(2 3.96125e-14 0)
(2.10233 -0.261494 0)
(2 -4.12999e-13 0)
(2 -1.77454e-07 0)
(2 -1.39663e-06 0)
(1.99999 1.41282e-05 0)
(1.99202 0.00801867 0)
(1.89573 0.151064 0)
(2 -2.68078e-11 0)
(2.11577 -0.246375 0)
(2 -1.56834e-11 0)
(2 1.64766e-06 0)
(2 8.23785e-15 0)
(2 -1.84766e-13 0)
(2 -2.00861e-14 0)
(2 1.14401e-13 0)
(2 -1.27979e-12 0)
(1.83063 0.228911 0)
(2 4.13284e-13 0)
(1.82955 0.229065 0)
(2 1.31662e-13 0)
(2 -1.5173e-13 0)
(2 1.48865e-14 0)
(2.10708 -0.266075 0)
(2 -1.63834e-13 0)
(1.8322 0.229084 0)
(2.12034 -0.270411 0)
(2 8.13419e-14 0)
(1.86264 0.208767 0)
(2 -3.31365e-13 0)
(2 -3.5205e-13 0)
(1.82929 0.229077 0)
(2 1.83954e-13 0)
(2 -9.72023e-09 0)
(2 8.4751e-14 0)
(1.82999 0.227141 0)
(2 4.92528e-10 0)
(2 1.9885e-13 0)
(1.83586 0.232282 0)
(1.82972 0.228916 0)
(2 -5.5347e-15 0)
(1.96462 0.0579522 0)
(2 -2.03474e-14 0)
(2 -1.43924e-14 0)
(2.15832 -0.256558 0)
(2 -3.40153e-13 0)
(2 -4.83924e-14 0)
(2 3.60542e-15 0)
(2.15505 -0.262654 0)
(2 1.56008e-13 0)
(2 -4.74888e-15 0)
(2 -1.27981e-13 0)
(2 -8.31989e-14 0)
(2.13229 -0.258202 0)
(2 -1.09674e-13 0)
(2 3.62997e-14 0)
(2 -8.59626e-14 0)
(2 -5.05072e-14 0)
(2 1.96085e-13 0)
(2.11561 -0.271703 0)
(1.99998 3.85159e-05 0)
(1.83057 0.228784 0)
(2 5.03909e-14 0)
(2 -4.07584e-05 0)
(1.83015 0.228673 0)
(1.82931 0.228281 0)
(2 3.37372e-14 0)
(2 -7.35127e-14 0)
(2.10053 -0.276401 0)
(2.06973 -0.122588 0)
(1.82976 0.228882 0)
(2 8.8836e-14 0)
(2 -4.36047e-14 0)
(2 4.30627e-15 0)
(1.83176 0.229 0)
(2.07926 -0.28371 0)
(2 -2.84454e-14 0)
(1.83079 0.22901 0)
(2 -2.08427e-14 0)
(2 -4.93866e-14 0)
(2.10751 -0.206447 0)
(2.11331 -0.208313 0)
(2 -8.79469e-14 0)
(2.11547 -0.268629 0)
(2.10507 -0.266149 0)
(2 1.48567e-13 0)
(2 -6.8288e-14 0)
(2 6.61547e-15 0)
(2 -1.29089e-13 0)
(2 -9.24666e-11 0)
(2 1.13935e-14 0)
(2 -2.07379e-14 0)
(1.83119 0.228948 0)
(1.95464 0.0588675 0)
(1.83048 0.228753 0)
(2.12559 -0.257738 0)
(2.02916 -0.0739549 0)
(1.82827 0.228813 0)
(2 -2.00837e-13 0)
(1.83149 0.229044 0)
(1.82962 0.228969 0)
(2.12392 -0.265654 0)
(2.08902 -0.146761 0)
(2 6.91396e-13 0)
(2.10983 -0.268478 0)
(2 1.40188e-13 0)
(1.82346 0.237079 0)
(2 -4.86171e-13 0)
(2 -1.47687e-13 0)
(2 -2.90207e-15 0)
(2 -1.04328e-14 0)
(1.83187 0.22916 0)
(2 -4.99924e-13 0)
(2 -7.57774e-14 0)
(2 -1.36052e-14 0)
(2 1.50769e-09 0)
(2 -3.94422e-15 0)
(2 -3.45012e-13 0)
(2 -3.22792e-13 0)
(1.93874 0.0907769 0)
(1.8292 0.228591 0)
(2 3.52242e-14 0)
(1.83123 0.228945 0)
(2 5.42593e-14 0)
(2 5.04743e-14 0)
(2.10894 -0.264472 0)
(2 -9.67215e-14 0)
(2 8.23021e-14 0)
(2 -1.88907e-13 0)
(2 -4.94023e-13 0)
(1.83174 0.229054 0)
(1.87252 0.180193 0)
(2 -2.33941e-13 0)
(2 -2.47078e-13 0)
(2.11415 -0.264311 0)
(1.83163 0.228627 0)
(1.83153 0.228847 0)
(2 1.45788e-13 0)
(1.83156 0.228874 0)
(1.83178 0.228778 0)
(1.83118 0.22896 0)
(2 -8.34105e-14 0)
(2.05671 -0.114241 0)
(2 -9.92764e-14 0)
(1.83183 0.228808 0)
(1.99902 -0.00561466 0)
(1.83119 0.228914 0)
(2 6.6281e-14 0)
(2.11624 -0.265866 0)
(2.00036 -0.000581704 0)
(1.82932 0.228619 0)
(2 1.21579e-13 0)
(2 5.34583e-14 0)
(2 -6.29787e-11 0)
(2 -2.33699e-11 0)
(2.10774 -0.260262 0)
(1.8319 0.228891 0)
(1.848 0.210625 0)
(2 4.77327e-14 0)
(1.83133 0.229731 0)
(1.83173 0.229037 0)
(1.82987 0.228952 0)
(2 -8.73188e-14 0)
(1.9184 0.119843 0)
(1.8325 0.228337 0)
(2 -1.83674e-13 0)
(2 7.02751e-14 0)
(1.8818 0.169787 0)
(1.97806 0.0386268 0)
(1.83138 0.228852 0)
(2.02788 -0.0438659 0)
(1.83132 0.228869 0)
(2 -6.2646e-15 0)
(1.83123 0.228919 0)
(1.83131 0.228888 0)
(1.83126 0.228946 0)
(1.83147 0.228707 0)
(2 -3.72384e-14 0)
(1.84012 0.224748 0)
(2.02926 -0.0697685 0)
(2.04191 -0.0784511 0)
(2 -1.23031e-13 0)
(2 -3.46019e-07 0)
(2 3.52158e-14 0)
(2 -2.83554e-13 0)
(1.83083 0.229391 0)
(2 2.16319e-14 0)
(2 1.09638e-13 0)
(2 9.13221e-17 0)
(2 3.92793e-14 0)
(2 -2.41715e-14 0)
(1.82887 0.228522 0)
(2 6.89546e-14 0)
(2 1.21806e-13 0)
(2.00167 -0.00293466 0)
(1.8316 0.228872 0)
(1.86632 0.193079 0)
(2 -2.96677e-13 0)
(1.86575 0.184782 0)
(1.99998 2.5706e-05 0)
(2 -2.55154e-14 0)
(2 -3.33243e-13 0)
(1.83163 0.228729 0)
(2 3.0248e-14 0)
(2.0016 -0.00166114 0)
(1.99819 0.0044695 0)
(2 -2.72198e-14 0)
(1.83148 0.228757 0)
(2 -1.03102e-13 0)
(1.83208 0.229014 0)
(2 -8.35758e-15 0)
(2 4.37927e-14 0)
(1.8752 0.178608 0)
(2 -2.57304e-14 0)
(1.8321 0.229364 0)
(1.99999 1.28718e-05 0)
(2 -1.03165e-13 0)
(1.83171 0.229832 0)
(2 -1.78219e-13 0)
(1.83167 0.228962 0)
(2 -3.96827e-14 0)
(2 2.96618e-06 0)
(2 -8.62081e-14 0)
(1.832 0.229108 0)
(2 2.04413e-14 0)
(1.83084 0.229856 0)
(2 4.67854e-06 0)
(1.83183 0.229219 0)
(1.82811 0.228398 0)
(1.83184 0.229082 0)
(1.83088 0.228729 0)
(2 -7.39459e-14 0)
(1.83273 0.228873 0)
(1.83986 0.222039 0)
(2 -3.88128e-14 0)
(2.10367 -0.26083 0)
(1.84141 0.217774 0)
(1.8783 0.17351 0)
(2 -1.16144e-13 0)
(1.83187 0.229022 0)
(2 1.72709e-13 0)
(2.14833 -0.251628 0)
(2.15295 -0.254855 0)
(2 -6.33948e-14 0)
(2 -9.80818e-14 0)
(2 -6.29357e-14 0)
(2 -2.99851e-13 0)
(2 1.71878e-09 0)
(2.10877 -0.264993 0)
(2 -2.71635e-15 0)
(1.83126 0.228954 0)
(1.95618 0.0666967 0)
(1.8316 0.228611 0)
(2 -1.27143e-13 0)
(2 9.20198e-11 0)
(2 7.39758e-14 0)
(2 5.11598e-14 0)
(2 -5.35928e-08 0)
(1.83133 0.229029 0)
(2 -1.76523e-13 0)
(1.83136 0.227513 0)
(1.90041 0.144608 0)
(2.08643 -0.145842 0)
(2 1.30841e-09 0)
(1.99999 8.12322e-06 0)
(1.95387 0.0734414 0)
(1.95833 0.0680664 0)
(2 -2.01131e-13 0)
(2 -1.09851e-13 0)
(1.93926 0.0904982 0)
(2 4.82425e-14 0)
(2.10992 -0.263872 0)
(1.83177 0.228847 0)
(1.83162 0.228797 0)
(2 -7.28591e-11 0)
(2 1.12489e-13 0)
(2 1.42096e-13 0)
(1.82835 0.228477 0)
(2 -1.4469e-13 0)
(1.99999 1.6467e-05 0)
(1.83112 0.229423 0)
(1.83203 0.228801 0)
(2.01765 -0.030213 0)
(2 1.07768e-14 0)
(2 1.50195e-10 0)
(2.10695 -0.262466 0)
(1.84751 0.210428 0)
(2 -3.34475e-14 0)
(2 -1.74287e-13 0)
(2 6.57303e-14 0)
(2 -2.87184e-11 0)
(2 -1.801e-13 0)
(1.83157 0.228898 0)
(1.83221 0.229633 0)
(2 3.83156e-14 0)
(1.83167 0.229302 0)
(1.83085 0.230467 0)
(1.83178 0.229111 0)
(2 4.60381e-14 0)
(2 -2.41567e-13 0)
(2 -5.83636e-11 0)
(2 4.59873e-14 0)
(2.05504 -0.277775 0)
(1.82972 0.228966 0)
(2 -4.23739e-11 0)
(2 -9.38912e-14 0)
(1.84696 0.211916 0)
(1.83203 0.228541 0)
(2 4.1859e-14 0)
(1.84138 0.217926 0)
(1.82998 0.228704 0)
(2 -1.02295e-13 0)
(2 -2.19652e-07 0)
(2 8.423e-11 0)
(2 -8.67946e-14 0)
(2 -1.38633e-13 0)
(1.83153 0.228677 0)
(2 -7.66475e-14 0)
(2 -1.47874e-13 0)
(2 -2.64226e-14 0)
(2 -3.03556e-14 0)
(1.83099 0.231475 0)
(2 -3.68693e-13 0)
(1.83328 0.234377 0)
(2.10853 -0.268329 0)
(2 -1.23483e-13 0)
(2.12778 -0.266341 0)
(2 7.43785e-14 0)
(2 -1.75175e-07 0)
(2 2.13099e-14 0)
(2.00125 -0.0020495 0)
(2.11571 -0.263689 0)
(2.00031 -0.000497778 0)
(2 5.38066e-14 0)
(2 -5.89137e-15 0)
(2 -1.20238e-07 0)
(1.97702 0.0348517 0)
(2 -1.02203e-13 0)
(2 1.32407e-13 0)
(2.03832 -0.0871709 0)
(2 -2.09913e-07 0)
(2 7.88995e-15 0)
(2 1.32406e-14 0)
(2 -2.12792e-07 0)
(2 3.40308e-07 0)
(2 -1.51659e-07 0)
(2 -1.50144e-14 0)
(2 -1.59723e-06 0)
(2.02134 -0.0458925 0)
(2 -5.22672e-07 0)
(2 -4.42597e-08 0)
(2.00093 -0.00139745 0)
(2 3.9251e-14 0)
(2.11085 -0.261471 0)
(2 -2.87687e-11 0)
(2 -4.79866e-12 0)
(2 -4.33186e-11 0)
(2 -1.68377e-13 0)
(1.87518 0.176872 0)
(2 4.88667e-14 0)
(2 1.17494e-13 0)
(2 -1.4797e-13 0)
(2 -1.7237e-07 0)
(2.10917 -0.269989 0)
(2 4.55225e-14 0)
(2 1.35189e-09 0)
(1.84067 0.218014 0)
(1.82963 0.229059 0)
(2 -3.09557e-07 0)
(2 6.72309e-14 0)
(2 -1.08475e-07 0)
(2.04305 -0.0709143 0)
(2 2.86283e-14 0)
(2 4.13955e-10 0)
(2 1.39906e-14 0)
(2 8.03887e-14 0)
(2 6.72029e-14 0)
(2 1.41059e-13 0)
(2.00945 -0.0340189 0)
(1.99113 0.00491109 0)
(1.83188 0.229201 0)
(2 -4.67175e-14 0)
(2 1.09476e-13 0)
(2 -4.67401e-14 0)
(1.83096 0.229646 0)
(2.03425 -0.0637252 0)
(2 -4.74875e-09 0)
(2 8.39269e-14 0)
(2 -2.98535e-14 0)
(1.82892 0.228535 0)
(1.829 0.22776 0)
(2 -2.65974e-08 0)
(2 5.20526e-06 0)
(2 3.5429e-09 0)
(2 7.26236e-14 0)
(2 1.29257e-09 0)
(2 -2.97944e-13 0)
(2 -2.52761e-11 0)
(2 2.17995e-14 0)
(2 -3.1489e-14 0)
(2.1089 -0.26421 0)
(2 1.82443e-14 0)
(2 -1.52492e-11 0)
(1.8298 0.228241 0)
(2.10921 -0.268336 0)
(2 -2.29845e-13 0)
(1.82981 0.227944 0)
(2 6.06353e-11 0)
(2.11172 -0.26357 0)
(2 2.11934e-15 0)
(2 -3.57401e-14 0)
(2.10606 -0.26216 0)
(2 -3.99843e-13 0)
(2 -1.23185e-11 0)
(2 -4.72701e-12 0)
(2 1.60341e-15 0)
(2 -2.27228e-12 0)
(2 -1.7295e-13 0)
(2 -1.00215e-13 0)
(1.83489 0.225355 0)
(1.83197 0.22889 0)
(2 3.96807e-13 0)
(2 5.36771e-14 0)
(2 3.9179e-14 0)
(2 3.85805e-13 0)
(1.8456 0.212836 0)
(2 3.08454e-13 0)
(1.94642 0.0857301 0)
(2.11209 -0.26573 0)
(2 -2.94218e-08 0)
(2 2.6879e-13 0)
(2 1.92105e-13 0)
(2 -1.36591e-13 0)
(2 1.67549e-13 0)
(2 4.56508e-14 0)
(2 -1.85851e-14 0)
(1.98376 0.0220786 0)
(2 -4.28117e-15 0)
(2 6.57092e-14 0)
(1.9077 0.120535 0)
(2 -8.6313e-14 0)
(2 4.47133e-14 0)
(2 2.67658e-14 0)
(1.8605 0.194586 0)
(2 -4.7177e-13 0)
(2 1.35804e-13 0)
(2 -2.50711e-13 0)
(2 -1.96766e-13 0)
(2.10958 -0.274355 0)
(2 3.99681e-12 0)
(2 8.69898e-14 0)
(2.10473 -0.286852 0)
(2.11289 -0.272353 0)
(2 -4.63299e-13 0)
(2 -3.21505e-15 0)
(1.83185 0.228909 0)
(2 5.77567e-14 0)
(1.98658 -0.0180825 0)
(2 1.29198e-13 0)
(2 7.07944e-14 0)
(2 6.48435e-14 0)
(1.88119 0.170616 0)
(2.13226 -0.262199 0)
(2 -3.07503e-14 0)
(2.13023 -0.267258 0)
(2 -4.27622e-14 0)
(2.08526 -0.151517 0)
(2 -3.39813e-13 0)
(2 1.57226e-13 0)
(2 1.33724e-13 0)
(1.83086 0.229335 0)
(2 -4.41261e-08 0)
(2 -2.75511e-13 0)
(1.83161 0.228696 0)
(2 -1.34143e-13 0)
(2 -1.9837e-11 0)
(2 1.69959e-09 0)
(1.83143 0.228611 0)
(2 2.18619e-10 0)
(2 -6.52067e-14 0)
(1.83176 0.228865 0)
(2 -2.27406e-13 0)
(2 7.33273e-14 0)
(2.12265 -0.26596 0)
(2 -1.7078e-11 0)
(1.94295 0.0866061 0)
(2 1.66223e-13 0)
(2 1.41586e-13 0)
(1.82831 0.228656 0)
(1.82877 0.228555 0)
(1.88677 0.16415 0)
(1.85032 0.208132 0)
(2 3.81061e-14 0)
(2.12026 -0.267724 0)
(2 -7.94866e-14 0)
(2 5.01265e-14 0)
(1.83833 0.220492 0)
(2 5.94699e-15 0)
(2.12134 -0.265677 0)
(2 -1.42947e-13 0)
(2 -6.74618e-14 0)
(2 -1.14327e-13 0)
(1.83141 0.229291 0)
(2 1.83923e-15 0)
(2 -5.61876e-14 0)
(2 -1.97728e-13 0)
(2 -7.10675e-14 0)
(1.89979 0.144165 0)
(2 1.76338e-13 0)
(1.82806 0.222423 0)
(1.83089 0.228962 0)
(2.10445 -0.267098 0)
(2 -2.03064e-13 0)
(2 1.33268e-14 0)
(2.07528 -0.260558 0)
(2.09895 -0.266339 0)
(2 -7.65376e-14 0)
(2 -1.22944e-14 0)
(2 -6.83822e-12 0)
(1.87864 0.17364 0)
(1.87255 0.181535 0)
(2 2.22219e-13 0)
(2 -2.35193e-13 0)
(2 1.07222e-13 0)
(2 2.47264e-13 0)
(2 2.42259e-13 0)
(2 -1.64106e-13 0)
(2 -7.26146e-14 0)
(1.92918 0.104215 0)
(1.83004 0.228588 0)
(1.9934 0.00114509 0)
(2 7.04758e-14 0)
(1.83397 0.226782 0)
(2.0967 -0.267005 0)
(2 -9.0007e-14 0)
(2 -3.65074e-14 0)
(2 -1.2754e-13 0)
(1.90734 0.137065 0)
(2 -8.31142e-14 0)
(1.96624 0.0558964 0)
(2 -6.16051e-14 0)
(1.84628 0.212649 0)
(1.83207 0.228093 0)
(2 -2.64378e-14 0)
(2.1155 -0.267322 0)
(2 1.88856e-14 0)
(1.82932 0.228675 0)
(2 1.50248e-14 0)
(2 -2.19408e-15 0)
(1.8317 0.228761 0)
(1.84182 0.217569 0)
(2 -3.20759e-13 0)
(1.82637 0.229312 0)
(2 -5.38515e-14 0)
(2.14104 -0.260571 0)
(2 -2.97115e-15 0)
(2 -9.31761e-14 0)
(2 -3.90957e-14 0)
(1.83108 0.228997 0)
(1.83505 0.225108 0)
(1.85231 0.204369 0)
(2 -3.68069e-15 0)
(1.82896 0.230767 0)
(1.83185 0.228828 0)
(2 2.40428e-14 0)
(1.83103 0.229566 0)
(2 -8.57257e-09 0)
(1.83199 0.228224 0)
(2 2.77287e-14 0)
(2.105 -0.270002 0)
(2.01139 -0.0193074 0)
(2.10633 -0.263443 0)
(2 -3.43831e-11 0)
(2 -2.38558e-11 0)
(2 -3.44557e-11 0)
(2 1.90263e-13 0)
(2 -1.53551e-11 0)
(1.83183 0.229 0)
(2 1.71112e-14 0)
(1.8318 0.229064 0)
(2 -4.20912e-11 0)
(2 -9.96392e-11 0)
(2 -1.42511e-14 0)
(1.83972 0.219955 0)
(2 7.10308e-14 0)
(2.11942 -0.263391 0)
(1.83187 0.228851 0)
(2 -1.53722e-14 0)
(2.09105 -0.260613 0)
(2.12896 -0.242877 0)
(2.1352 -0.250878 0)
(2 -6.0774e-14 0)
(1.91481 0.126083 0)
(1.98501 0.0250929 0)
(1.83073 0.229537 0)
(1.83184 0.228864 0)
(2 -2.82379e-14 0)
(2 -3.90196e-07 0)
(2 -1.19217e-07 0)
(2 -1.6104e-13 0)
(1.83148 0.228834 0)
(2 5.69258e-14 0)
(2 1.53946e-13 0)
(1.83148 0.2289 0)
(1.83183 0.22882 0)
(2 -3.90602e-13 0)
(1.94247 0.0890803 0)
(1.9997 0.000870704 0)
(2 -5.83866e-14 0)
(2.00105 -0.00195495 0)
(1.83068 0.229285 0)
(2.04521 -0.0979383 0)
(2 -1.20778e-07 0)
(2.05102 -0.126635 0)
(2.11075 -0.263775 0)
(2.10451 -0.264807 0)
(1.98386 -0.0629233 0)
(1.82976 0.228599 0)
(1.8338 0.226437 0)
(1.96756 0.0483329 0)
(1.83162 0.228996 0)
(1.83142 0.228982 0)
(2 -4.72763e-15 0)
(2 2.29493e-14 0)
(1.83154 0.229049 0)
(1.82972 0.22934 0)
(1.83178 0.229083 0)
(1.82841 0.227912 0)
(2 -1.06819e-13 0)
(1.83116 0.228952 0)
(2.09824 -0.266378 0)
(1.83084 0.228063 0)
(1.83107 0.227884 0)
(1.82927 0.229378 0)
(1.83073 0.230331 0)
(2.05165 -0.0810256 0)
(2.02832 -0.0770638 0)
(2.01605 -0.0534279 0)
(1.83179 0.228986 0)
(2.01311 -0.0308679 0)
(1.83047 0.229185 0)
(2 -7.59798e-14 0)
(2 -6.8555e-14 0)
(1.83058 0.229714 0)
(1.83128 0.228655 0)
(2 5.79827e-14 0)
(2.10853 -0.264973 0)
(1.82998 0.22916 0)
(1.83155 0.228672 0)
(2 1.22006e-13 0)
(1.83188 0.229008 0)
(1.83172 0.228975 0)
(2 5.91396e-14 0)
(1.83169 0.228988 0)
(2.098 -0.262437 0)
(1.83097 0.230536 0)
(1.83126 0.229084 0)
(1.83056 0.228848 0)
(1.83055 0.230998 0)
(2 -5.05312e-15 0)
(2 1.50348e-13 0)
(2 -1.12523e-07 0)
(1.83169 0.228649 0)
(1.89117 0.15808 0)
(2.09143 -0.248889 0)
(1.83139 0.228635 0)
(2.10153 -0.273605 0)
(1.83163 0.228725 0)
(2 1.17218e-14 0)
(2 1.97164e-14 0)
(2 4.34857e-14 0)
(2 1.4083e-14 0)
(1.83253 0.228145 0)
(1.83115 0.228732 0)
(2 -6.57114e-14 0)
(2 3.58081e-14 0)
(1.83126 0.228836 0)
(2.10005 -0.268984 0)
(1.83109 0.228819 0)
(2.10898 -0.260723 0)
(2 2.41991e-14 0)
(1.83277 0.22787 0)
(2 1.49988e-13 0)
(2.06808 -0.258731 0)
(1.83098 0.229804 0)
(2.09373 -0.185064 0)
(2 5.81168e-14 0)
(1.83181 0.22883 0)
(1.83029 0.23003 0)
(1.83186 0.229031 0)
(2 -7.5026e-14 0)
(2 4.23111e-14 0)
(1.92027 0.122682 0)
(1.83059 0.229573 0)
(2.11493 -0.265052 0)
(1.83177 0.228962 0)
(2 -7.67438e-14 0)
(1.83185 0.228916 0)
(2.02981 -0.0778563 0)
(1.83181 0.228712 0)
(2.11094 -0.261912 0)
(2 -1.34265e-13 0)
(1.83186 0.228306 0)
(2.1211 -0.23547 0)
(1.83069 0.229722 0)
(2.11267 -0.267029 0)
(2 -2.22516e-13 0)
(1.8314 0.229325 0)
(2 1.08657e-13 0)
(1.83004 0.228334 0)
(2 1.38577e-14 0)
(1.89971 0.146305 0)
(1.83786 0.221675 0)
(1.86842 0.186692 0)
(2.1288 -0.275904 0)
(2 -4.51038e-13 0)
(1.83144 0.229054 0)
(2 1.35769e-13 0)
(1.83168 0.229006 0)
(2 -1.19772e-07 0)
(1.83186 0.229088 0)
(2 -2.35069e-07 0)
(2 2.86733e-15 0)
(1.83092 0.229303 0)
(2.00442 -0.0111337 0)
(1.83029 0.23 0)
(2.10499 -0.259955 0)
(1.84283 0.230925 0)
(2 -8.46143e-14 0)
(1.88104 0.169926 0)
(2 2.91491e-14 0)
(1.83125 0.229395 0)
(1.83183 0.229035 0)
(1.83096 0.228328 0)
(2 2.0927e-13 0)
(1.84873 0.210056 0)
(1.8315 0.22933 0)
(1.84409 0.214932 0)
(1.89736 0.147406 0)
(1.83594 0.228669 0)
(2 1.21814e-13 0)
(1.88949 0.160462 0)
(2 -8.68441e-14 0)
(1.83122 0.228778 0)
(2 -1.7628e-13 0)
(1.97476 0.0399853 0)
(2 8.18628e-14 0)
(1.84421 0.214317 0)
(2 -1.32874e-14 0)
(1.83187 0.228973 0)
(1.83854 0.220616 0)
(1.83967 0.219959 0)
(2 -1.34064e-13 0)
(1.84281 0.224669 0)
(2.15387 -0.258784 0)
(2 -7.83353e-14 0)
(2.11244 -0.26985 0)
(2 -1.29865e-13 0)
(2 -3.83057e-14 0)
(2 7.78344e-14 0)
(1.82871 0.228464 0)
(2 2.02624e-14 0)
(1.83165 0.229161 0)
(2 4.8077e-14 0)
(2 -1.79891e-13 0)
(2 -3.13187e-13 0)
(1.83098 0.229332 0)
(1.83833 0.231588 0)
(1.85343 0.205175 0)
(1.832 0.228372 0)
(1.83105 0.229668 0)
(2.12505 -0.261784 0)
(1.82648 0.231389 0)
(1.82771 0.228324 0)
(2 3.79466e-14 0)
(1.85799 0.197412 0)
(1.83167 0.228935 0)
(1.83678 0.217721 0)
(2 -3.82518e-13 0)
(1.83055 0.228661 0)
(1.82874 0.228375 0)
(2 -6.90578e-15 0)
(1.83047 0.232311 0)
(1.83097 0.229448 0)
(1.83084 0.229079 0)
(1.83102 0.229824 0)
(2 -2.18387e-13 0)
(2 2.09892e-13 0)
(2 1.5971e-13 0)
(1.83173 0.229205 0)
(2.10947 -0.270701 0)
(2 -2.12287e-13 0)
(1.83154 0.229086 0)
(2 -2.58388e-14 0)
(2 2.74274e-14 0)
(2.1571 -0.252206 0)
(2 -1.65007e-13 0)
(2 -4.91462e-14 0)
(1.83122 0.229015 0)
(1.83197 0.228774 0)
(2 -1.06024e-13 0)
(1.83194 0.229062 0)
(1.82847 0.230552 0)
(1.83184 0.229039 0)
(2.00995 -0.0140587 0)
(1.83135 0.228833 0)
(2 6.07458e-14 0)
(1.83136 0.228933 0)
(1.83151 0.229086 0)
(1.86225 0.189408 0)
(2 5.34759e-14 0)
(2 -2.90273e-13 0)
(2 3.83347e-14 0)
(1.83156 0.229127 0)
(1.83102 0.22894 0)
(1.83176 0.228953 0)
(2.01997 -0.034575 0)
(2 6.50086e-14 0)
(1.82567 0.230834 0)
(1.83122 0.229075 0)
(1.83231 0.228843 0)
(2 -9.89651e-14 0)
(1.83129 0.229053 0)
(1.83122 0.228728 0)
(1.83143 0.22891 0)
(1.82559 0.230903 0)
(2 1.89039e-13 0)
(1.83198 0.228931 0)
(1.82928 0.230462 0)
(1.85005 0.20177 0)
(1.83191 0.228559 0)
(1.826 0.230389 0)
(2 -2.68773e-14 0)
(1.83012 0.229522 0)
(1.83344 0.226946 0)
(1.83162 0.228953 0)
(1.83171 0.227778 0)
(1.83212 0.228391 0)
(2.10061 -0.26574 0)
(1.83181 0.22881 0)
(1.83201 0.22902 0)
(2 -9.58135e-14 0)
(1.83132 0.228965 0)
(1.83162 0.228807 0)
(1.83122 0.228892 0)
(1.83178 0.229176 0)
(2 -4.48081e-08 0)
(1.83206 0.228909 0)
(1.83139 0.228934 0)
(2 -1.75236e-07 0)
(1.83173 0.228696 0)
(1.85748 0.199452 0)
(2 -3.06297e-13 0)
(2 2.9288e-14 0)
(2 1.31588e-09 0)
(1.8313 0.229427 0)
(1.83062 0.230193 0)
(2 1.16707e-13 0)
(2 -6.00151e-14 0)
(1.90694 0.139071 0)
(2 -2.53214e-14 0)
(1.83205 0.228832 0)
(2 7.33626e-14 0)
(2 -1.57006e-14 0)
(1.83122 0.228874 0)
(1.83077 0.229572 0)
(1.83164 0.228941 0)
(1.83169 0.228895 0)
(2 -1.14063e-14 0)
(2 -7.38889e-14 0)
(2 -9.27547e-14 0)
(1.88311 0.166404 0)
(2 7.6204e-14 0)
(1.83163 0.229046 0)
(2 -9.49923e-14 0)
(2 -5.27727e-14 0)
(1.83145 0.229142 0)
(1.83106 0.228877 0)
(2 5.14398e-15 0)
(1.83145 0.228995 0)
(2.11772 -0.278944 0)
(1.83178 0.228991 0)
(1.83112 0.230426 0)
(2.07544 -0.21275 0)
(2 1.05521e-13 0)
(2.12348 -0.274146 0)
(1.8494 0.202926 0)
(1.83009 0.231269 0)
(1.83177 0.229396 0)
(1.832 0.229753 0)
(2.13921 -0.25629 0)
(1.83152 0.229178 0)
(1.83107 0.229391 0)
(2.13814 -0.254866 0)
(2.10404 -0.278041 0)
(2 -2.59014e-07 0)
(1.83187 0.228541 0)
(1.83153 0.228977 0)
(2 8.37927e-14 0)
(2 -3.75516e-14 0)
(1.83188 0.229027 0)
(2 -5.07702e-14 0)
(1.82935 0.230915 0)
(2 2.59975e-06 0)
(1.85292 0.20491 0)
(2 -2.75129e-14 0)
(1.92251 0.122021 0)
(1.83165 0.228603 0)
(1.83046 0.230231 0)
(1.88002 0.17097 0)
(1.84252 0.210088 0)
(1.82794 0.228036 0)
(1.83083 0.229743 0)
(1.8523 0.208024 0)
(2 -1.43053e-13 0)
(2.10729 -0.267533 0)
(1.83201 0.227432 0)
(1.8314 0.229315 0)
(1.83031 0.23129 0)
(2 7.24026e-06 0)
(2 4.06836e-10 0)
(2 1.51499e-09 0)
(1.82733 0.22982 0)
(2 1.88471e-14 0)
(1.83177 0.22888 0)
(1.83144 0.22857 0)
(2.09585 -0.168944 0)
(2 -2.01716e-13 0)
(1.83157 0.228928 0)
(2.00002 -5.10716e-05 0)
(2 1.0672e-13 0)
(1.99999 1.81712e-05 0)
(1.99998 2.55762e-05 0)
(1.8314 0.229171 0)
(1.83204 0.229503 0)
(2.00056 -0.000890557 0)
(2 -5.25175e-14 0)
(2 -5.87449e-14 0)
(1.83163 0.229042 0)
(1.83053 0.229538 0)
(1.83162 0.228884 0)
(1.82973 0.231105 0)
(1.8319 0.228534 0)
(2.11314 -0.250939 0)
(1.861 0.196046 0)
(2 6.15912e-14 0)
(1.83286 0.227734 0)
(1.83183 0.228981 0)
(1.83171 0.228862 0)
(1.82511 0.233853 0)
(2 -1.81008e-13 0)
(1.83195 0.229065 0)
(1.83613 0.223786 0)
(1.83102 0.229573 0)
(2 3.44909e-14 0)
(1.83123 0.22926 0)
(1.83146 0.228175 0)
(2.05762 -0.0960462 0)
(1.83199 0.228949 0)
(1.83097 0.229289 0)
(2 4.94186e-14 0)
(1.8316 0.2289 0)
(2.06417 -0.109075 0)
(1.83132 0.228894 0)
(2.05514 -0.0943242 0)
(1.83162 0.229068 0)
(2 -1.07593e-07 0)
(1.83142 0.228919 0)
(1.82459 0.232756 0)
(1.83182 0.22896 0)
(1.83179 0.229196 0)
(1.83144 0.228899 0)
(1.82896 0.228226 0)
(1.8315 0.229377 0)
(1.82901 0.229356 0)
(2 -3.77786e-14 0)
(2.02745 -0.0455205 0)
(1.83153 0.228893 0)
(1.83173 0.228832 0)
(2.04528 -0.109534 0)
(1.83154 0.228897 0)
(1.99933 -0.017591 0)
(1.89079 0.155865 0)
(1.83128 0.229085 0)
(1.83069 0.228838 0)
(1.8307 0.229288 0)
(2 -3.24599e-14 0)
(1.83021 0.229833 0)
(1.88926 0.158928 0)
(1.83156 0.228075 0)
(2.03039 -0.0555648 0)
(1.83068 0.229804 0)
(1.82706 0.231908 0)
(2 -1.33894e-13 0)
(2.03163 -0.0966091 0)
(2 -8.27788e-09 0)
(1.82639 0.232943 0)
(2 1.83938e-13 0)
(1.88491 0.164438 0)
(2 4.33254e-09 0)
(1.84422 0.211782 0)
(2.03188 -0.094023 0)
(2 -6.76605e-14 0)
(1.83086 0.229846 0)
(1.83778 0.225063 0)
(2 8.49921e-14 0)
(1.83122 0.228056 0)
(1.83063 0.229787 0)
(1.83491 0.229712 0)
(1.83227 0.224549 0)
(1.83603 0.231423 0)
(2 1.20886e-14 0)
(1.82985 0.22908 0)
(2 5.93474e-14 0)
(2 -7.55391e-14 0)
(2 1.80729e-13 0)
(2.02644 -0.0641043 0)
(1.83167 0.228848 0)
(1.8312 0.229728 0)
(1.82874 0.232801 0)
(1.83151 0.229001 0)
(1.8316 0.231778 0)
(1.8283 0.231073 0)
(1.83337 0.231393 0)
(1.83169 0.229165 0)
(2.03655 -0.0651681 0)
(1.98936 0.0203449 0)
(2 3.55388e-09 0)
(2 -6.2946e-14 0)
(1.82419 0.233992 0)
(1.83163 0.229081 0)
(1.83156 0.229013 0)
(1.83175 0.228912 0)
(1.99999 1.67053e-05 0)
(1.9123 0.135263 0)
(2 -1.70774e-07 0)
(1.83071 0.231851 0)
(1.86082 0.203806 0)
(2 -3.64116e-12 0)
(2 -5.59293e-11 0)
(2.07797 -0.183814 0)
(1.83153 0.229049 0)
(2 5.46919e-14 0)
(2 5.80793e-15 0)
(2.0888 -0.262959 0)
(1.8315 0.228986 0)
(2 2.85903e-14 0)
(1.82824 0.228197 0)
(1.83127 0.228885 0)
(1.8279 0.228416 0)
(1.8383 0.221378 0)
(1.8315 0.228914 0)
(2 -1.19187e-10 0)
(2.12822 -0.268697 0)
(1.96056 0.0656837 0)
(1.83101 0.229478 0)
(1.83142 0.228955 0)
(2 -7.05947e-14 0)
(1.83208 0.228808 0)
(1.83125 0.229018 0)
(1.91148 0.123386 0)
(1.9972 0.00664345 0)
(1.9683 0.0558952 0)
(2 -2.49252e-14 0)
(1.82985 0.228627 0)
(1.83155 0.228816 0)
(2 -1.22084e-07 0)
(2 -1.91788e-10 0)
(2.13578 -0.258622 0)
(2 -2.42969e-10 0)
(2 4.41858e-15 0)
(1.83168 0.228969 0)
(1.83153 0.22913 0)
(1.83092 0.229879 0)
(1.83169 0.229118 0)
(1.83125 0.228985 0)
(1.82777 0.229329 0)
(1.83163 0.229226 0)
(1.83051 0.230401 0)
(1.83125 0.228994 0)
(2 1.96081e-13 0)
(2.00165 -0.00237416 0)
(1.83127 0.228643 0)
(1.83172 0.229071 0)
(2.00121 -0.00157888 0)
(1.8314 0.229073 0)
(1.83136 0.229079 0)
(2.1337 -0.26274 0)
(2.09417 -0.272366 0)
(1.83179 0.228968 0)
(1.82754 0.231101 0)
(2 -6.97183e-14 0)
(2 2.98368e-13 0)
(1.99937 0.00185984 0)
(1.83171 0.22892 0)
(1.83048 0.22984 0)
(1.83154 0.228993 0)
(2 9.88959e-10 0)
(1.83128 0.229009 0)
(2 7.50957e-15 0)
(2.03809 -0.0990877 0)
(1.83011 0.232103 0)
(1.82932 0.231331 0)
(2 -1.47793e-13 0)
(1.92591 0.110312 0)
(1.83087 0.228927 0)
(2 4.44705e-14 0)
(1.82899 0.227303 0)
(2 -1.05701e-10 0)
(1.83199 0.229004 0)
(1.89063 0.161199 0)
(1.83213 0.228658 0)
(2 1.50998e-11 0)
(1.83172 0.22862 0)
(1.83124 0.232114 0)
(2.13535 -0.257158 0)
(1.83179 0.229127 0)
(2 -1.14343e-07 0)
(1.83115 0.228196 0)
(1.83027 0.229148 0)
(2 7.21531e-09 0)
(2.1309 -0.260614 0)
(1.83165 0.229002 0)
(1.8755 0.181846 0)
(2.00077 -0.00115182 0)
(1.83398 0.234627 0)
(1.83158 0.228917 0)
(2 -5.13467e-12 0)
(2.00042 0.00061238 0)
(1.82997 0.227932 0)
(2.0028 -0.00282538 0)
(1.83121 0.228977 0)
(2 -3.11783e-12 0)
(2 2.90123e-16 0)
(1.8316 0.228323 0)
(2 1.69209e-13 0)
(1.83179 0.228686 0)
(1.83132 0.229034 0)
(2.00137 -0.00246698 0)
(1.86198 0.1902 0)
(2 2.9499e-09 0)
(1.83143 0.22903 0)
(2 -5.50086e-10 0)
(2 -8.03565e-13 0)
(2 1.0568e-11 0)
(2 6.99053e-12 0)
(1.83181 0.228871 0)
(2 7.29736e-09 0)
(2 -1.93074e-13 0)
(1.82592 0.231842 0)
(2 1.5769e-13 0)
(1.83152 0.229204 0)
(2 3.26659e-10 0)
(1.89185 0.156994 0)
(1.82974 0.231368 0)
(1.83116 0.229891 0)
(2 9.00146e-10 0)
(2 -2.22503e-13 0)