/*--------------------------------*- C++ -*----------------------------------*\
  =========                 |
  \\      /  F ield         | OpenFOAM: The Open Source CFD Toolbox
   \\    /   O peration     | Website:  https://openfoam.org
    \\  /    A nd           | Version:  12
     \\/     M anipulation  |
\*---------------------------------------------------------------------------*/
FoamFile
{
    format      ascii;
    class       volScalarField;
    location    "8.07";
    object      T;
}
// * * * * * * * * * * * * * * * * * * * * * * * * * * * * * * * * * * * * * //

dimensions      [0 0 0 1 0 0 0];

internalField   nonuniform List<scalar> 
22702
(
1
1
0.961992
1
1.01766
1
1.1205
1
1
0.890364
1.12051
1.12031
1
1.11864
0.967893
1
1
1
1.12046
1
1.11858
1
1.11948
0.900099
1.11806
0.894038
1
1.11705
0.889588
0.899403
1
1.12018
1
1
1
1.11052
1.11855
1.11966
1
1
0.888839
1
1.06262
1
1.11712
1
1
1
1
0.896538
1
0.89932
1
1.12033
1
1.12049
1
1
1
1
0.892794
1
1
0.890884
1
0.900384
1
1
1
0.887377
1
1.11798
1.07559
1
1.11801
1.12671
0.899499
1.11913
0.898556
1
1.1207
0.89803
1.12054
1.1196
1
1
1
1
0.979451
0.889109
1.12409
1
1
0.889174
1
1.11865
0.888387
1
1
1
1
1.06257
1.12037
0.882806
1
1
1.03304
1
0.897672
1
1.11935
1.12052
1
1
0.89025
0.894328
0.889739
1
1
1
1
1
0.97258
1
1.10322
1.01407
1.1192
1
1.12113
1.1207
1.11842
1.12118
1
0.887259
1
0.890924
1
1
1
1
1.12058
1
1
1
1
1.12032
1
1.00765
1
1
1
1
0.89513
1
1.0028
1
0.899669
1
1
1
1.12327
1
1.11849
0.894021
0.89314
1.11735
1.11683
1
1.02224
1.07138
1
1.12062
0.898343
1.1107
1
1
1
1
1.11863
1.09486
1
1.12098
0.89763
1.12055
1
0.895557
1
0.899145
0.894488
0.999938
1
1
1.11952
1
1
1.11814
1
1.12045
1.12093
0.897208
1
1
0.896185
1.11836
1
1
1
1.11836
1
0.887981
1
1
1.11834
1.11885
1.11986
1
1.00001
1
1
1
1.11855
1
0.903539
1.12403
1.11821
1.1187
1
1
1
0.892145
1.11833
1.06163
1
1.11894
0.897045
0.893611
1.11897
1.11901
1
1.11887
0.874947
1.10599
1
1
1
1
1.11861
1
1.07286
1.0122
1
1
1.11866
0.890212
0.9244
1
1.11851
0.884713
1.11936
1
1
1
1
1
1
1
0.895798
0.920502
0.894259
1.11875
1
1
1
1
1.11084
1
0.897579
1
0.889611
0.89599
1.11898
0.89858
1.1186
1
1
1
0.99928
0.894045
0.875041
1
1
0.887739
1
1.12052
0.879592
1
1
1.121
0.889772
1
1.1196
0.895655
1.11878
1
0.892136
0.999335
1
1
1
0.898006
1
1
1
1
1.00529
1.07573
1
0.893861
1
1
1
1
1
1
1
1.12114
1
1.12026
1
1
1
0.886802
1
1.11991
0.897562
1
1.09465
1
1
1.12091
1
1
1
1.1194
1
1
1.11827
1.12081
1
1.02823
1
1
0.891253
1
1
1
0.890547
1
1
1
1
0.899294
1
1
1
1
1
0.874705
1.00002
1.11809
1
0.999996
1.11716
1.11732
1
1
0.8999
0.948812
1.12062
1
1
1
1.11873
0.886466
1
1.11843
1
1
0.911924
0.911699
1
0.893622
0.890453
1
1
1
1
1
1
1
1.11794
1.0344
1.1153
0.877775
0.975028
1.12096
1
1.11916
1.12079
0.895994
0.936704
1
0.886491
1
1.12403
1
1
1
1
1.11831
1
1
1
1
1
1
1
1.04667
1.12257
1
1.11842
1
1
0.898656
1
1
1
1
1.11846
1.09291
1
1
0.894659
1.11817
1.11839
1
1.11833
1.11808
1.11863
1
0.956457
1
1.11818
0.996565
1.1184
1
0.893273
0.999659
1.12025
1
1
1
1
0.894956
1.11851
1.1084
1
1.11832
1.11848
1.12022
1
1.05859
1.11835
1
1
1.08434
1.01669
1.1183
0.980136
1.11832
1
1.11838
1.11826
1.11872
1.11831
1
1.11522
0.976836
0.969924
1
1
1
1
1.11893
1
1
1
1
1
1.12076
1
1
0.998857
1.11849
1.10377
1
1.10107
1.00001
1
1
1.1193
1
0.999191
1.00121
1
1.1181
1
1.11832
1
1
1.09086
1
1.11864
1.00001
1
1.11878
1
1.11851
1
1
1
1.11842
1
1.11904
1
1.11839
1.12024
1.11829
1.11827
1
1.12047
1.11574
1
0.89872
1.11164
1.08768
1
1.11824
1
0.890968
0.896672
1
1
1
1
1
0.88768
1
1.11865
1.03355
1.11889
1
1
1
1
1
1.11859
1
1.11828
1.07438
0.939207
1
1
1.03756
1.0328
1
1
1.04631
1
0.899754
1.11874
1.11831
1
1
1
1.12032
1
1.00001
1.11954
1.11893
0.985196
1
1
0.897982
1.10857
1
1
1
1
1
1.11858
1.12066
1
1.11865
1.11871
1.11842
1
1
1
1
0.884729
1.1211
1
1
1.10885
1.11823
1
1.11209
1.12286
1
1
1
1
1
1.11814
1
1
1
1
1.11884
1
1.11752
0.883002
1
0.89689
1
1
1
0.999144
0.895855
0.999732
1
1
1
1.01933
1
1
0.957798
1
1
1
1
1
1
1
0.999999
0.982468
1
1
0.999288
1
0.893306
1
1
1
1
1.09125
1
1
1
1
0.895883
1
1
1.11222
1.12082
1
1
1
0.970605
1
1
1
1
1
1
0.985592
1.00418
1.11862
1
1
1
1.11791
0.970618
1
1
1
1.11827
1.11749
1
1
1
1
1
1
1
1
1
0.890975
1
1
1.11913
0.887678
1
1.11883
1
0.896282
1
1
0.892321
1
1
1
1
1
1
1
1.11639
1.11825
1
1
1
1
1.10952
1
1.03984
0.894621
1
1
1
1
1
1
1
1.01048
1
1
1.06705
1
1
1
1.09863
1
1
1
1
0.882541
1
1
0.885284
0.883664
1
1
1.11824
1
1.0152
1
1
1
1.08483
0.886357
1
0.884848
1
0.932024
1
1
1
1.11907
1
1
1.11861
1
1
1
1.11855
1
1
1.11879
1
1
0.896388
1
1.03956
1
1
1.12068
1.12103
1.08251
1.10739
1
0.891121
1
1
1.11377
1
0.88383
1
1
1
1.11915
1
1
1
1
1.07465
1
1.11442
1.11997
0.889479
1
1
0.889977
0.897505
1
1
1
1.08619
1.09262
1
1
1
1
1
1
1
1.05439
1.11934
1.00066
1
1.11735
0.886547
1
1
1
1.06805
1
1.02492
1
1.10901
1.1179
1
0.893773
1
1.12069
1
1
1.11847
1.11162
1
1.1212
1
0.893534
1
1
1
1.11808
1.11651
1.10545
1
1.11952
1.11859
1
1.11932
1
1.11797
1
0.883943
0.99568
0.882656
1
1
1
1
1
1.11824
1
1.11859
1
1
1
1.11345
1
0.899241
1.11867
1
0.894381
0.897436
0.888255
1
1.06147
1.0128
1.11883
1.11852
1
1
1
1
1.11848
1
1
1.11857
1.11854
1
1.0446
1.00009
1
0.999059
1.12322
0.957348
1
0.949582
0.899247
0.900103
0.988739
1.11726
1.11696
1.02594
1.11865
1.11843
1
1
1.11822
1.11949
1.11856
1.12062
1
1.11838
0.893961
1.11917
1.11949
1.11868
1.11929
0.958383
0.967216
0.981785
1.11845
0.989605
1.11847
1
1
1.11882
1.11842
1
0.886335
1.11947
1.11834
1
1.11841
1.1184
1
1.11841
0.894784
1.11974
1.11814
1.12085
1.12054
1
1
1
1.11828
1.08027
0.88643
1.11838
0.881591
1.11817
1
1
1
1
1.11889
1.11839
1
1
1.1184
0.884294
1.11826
0.894657
1
1.11797
1
0.890649
1.11873
0.91915
1
1.1186
1.11867
1.11866
1
1
1.06122
1.1186
0.895346
1.11843
1
1.11845
0.964397
1.11829
0.892484
1
1.11847
0.904708
1.11882
0.896409
1
1.11917
1
1.12161
1
1.07198
1.11441
1.09545
0.89211
1
1.11844
1
1.1187
1
1.1187
1
1
1.11913
0.997378
1.1192
0.892953
1.1116
1
1.08581
1
1.11898
1.11863
1.11933
1
1.10753
1.11891
1.11046
1.07678
1.11573
1
1.08181
1
1.11899
1
1.01887
1
1.11049
1
1.11851
1.11343
1.11356
1
1.11797
0.898007
1
0.884426
1
1
1
1.12016
1
1.11875
1
1
1
1.119
1.11385
1.09893
1.118
1.118
0.897103
1.12067
1.12212
1
1.10369
1.11864
1.11285
1
1.12076
1.1205
1
1.12093
1.11892
1.11876
1.11928
1
1
1
1.11871
0.887334
1
1.11855
1
1
0.895293
1
1
1.11894
1.11836
1
1.11852
1.11744
1.1188
0.995619
1.11882
1
1.11883
1.11844
1.09652
1
1
1
1.11885
1.11844
1.11868
0.987221
1
1.11973
1.11873
1.11945
1
1.11876
1.11895
1.11822
1.11958
1
1.11857
1.11792
1.10453
1.11846
1.11883
1
1.1195
1.11737
1.11856
1.11862
1.11866
0.89798
1.11904
1.11854
1
1.11844
1.1184
1.11838
1.1183
1
1.1188
1.11857
1
1.11862
1.10088
1
1
1
1.11924
1.11915
1
1
1.06633
1
1.11852
1
1
1.11841
1.11893
1.11852
1.11844
1
1
1
1.08667
1
1.11872
1
1
1.12139
1.11799
1
1.11882
0.875276
1.1184
1.11908
0.90769
1
0.880631
1.10503
1.11957
1.11829
1.11856
0.889073
1.11899
1.11931
0.890586
0.886669
1
1.11821
1.11896
1
1
1.11866
1
1.12019
1
1.10493
1
1.05733
1.11905
1.11872
1.08762
1.10769
1.12125
1.12034
1.11202
1
0.889024
1.11778
1.1187
1.12116
1
1
1
1.12001
1
1.11856
1.11838
0.925221
1
1.11844
0.999983
1
1.00001
1.00001
1.11868
1.1173
0.999562
1
1
1.11872
1.11866
1.11858
1.1182
1.11861
0.88612
1.10295
1
1.11787
1.11851
1.11861
1.11853
1
1.11849
1.11584
1.11882
1
1.11848
1.11881
0.9583
1.11849
1.11864
1
1.11838
0.949431
1.11835
0.960557
1.11846
1
1.11855
1.12324
1.11868
1.11867
1.11852
1.11745
1.11874
1.11875
1
0.985174
1.11851
1.11842
0.950607
1.11869
0.994126
1.07527
1.11834
1.11758
1.11848
1
1.11893
1.07946
1.11866
0.975115
1.11915
1.11998
1
0.957988
1
1.1207
1
1.08472
1
1.11176
0.960032
1
1.11928
1.12044
1
1.11972
1.11888
1.12086
1.11625
1.1182
1
1.12047
1
1
1
0.967634
1.11848
1.11807
1.11783
1.1188
1.1173
1.11787
1.11706
1.1188
0.973876
1.00875
1
1
1.12357
1.11879
1.11879
1.11858
1.00001
1.06364
1
1.12091
1.10574
1
1
0.923918
1.11831
1
1
0.89425
1.11851
1
1.12147
1.11838
1.12167
1.1143
1.11855
1
0.893465
1.03063
1.11901
1.11853
1
1.1183
1.1186
1.06461
1.00253
1.02633
1
1.12207
1.11829
1
1
0.898603
1
1
1.11868
1.11874
1.1186
1.11865
1.11863
1.12055
1.11872
1.11917
1.11829
1
0.998879
1.11874
1.11867
0.999059
1.1186
1.11834
0.900187
0.888145
1.1184
1.11988
1
1
1.0004
1.11848
1.1188
1.11859
1
1.11882
1
0.957374
1.1213
1.11975
1
1.05892
1.1178
1
1.11999
1
1.11852
1.08082
1.11794
1
1.11894
1.12039
0.898149
1.11882
1
1.11875
1.11911
1
0.898503
1.11759
1.10015
0.999367
1.11821
1.11825
1
1.00488
1.11941
0.99941
1.11847
1
1
1.11924
1
1.11864
1.11834
0.998961
1.09799
1
1.11818
1
1
1
1
1.11856
1
1
1.1206
1
1.11854
1
1.07784
1.11771
1.11852
1
1
1.00754
1
1.11885
1.11868
1.11883
1.11837
1.11864
1.11838
1.11851
1
1.11848
1.11874
1
1.11837
1.11824
1
1.11803
0.981433
1.01654
1.11857
1.11848
1.11848
1
1.11844
1
1.11856
1.11835
1
1.11842
1
1
1
1
1.11856
0.884483
0.999381
1
1.11871
1.1189
1
1.11865
1
1.00139
0.890207
1.11857
0.999888
1
1.11826
0.999536
1.11871
1
0.999935
1
1.11858
1.1178
1.11821
1.11993
0.894849
1.1194
1.11795
1.11901
1.03248
1
1
1.0549
1.11861
0.881599
0.896774
1
1.11834
1.11872
1.11802
1
1
1.11812
1.11838
0.999966
1
1.08882
0.875892
1
1.02307
1.12003
1.11683
0.999498
1.11857
1.12035
1
0.999737
1
1.11918
1.12256
1.05095
1
1.11444
1
1.0006
1.11865
0.888174
1.11921
1.11854
0.999128
0.999975
1.1066
1
0.999909
1
1.12036
1
1
0.874884
1.11839
1
1
1
1
1.11768
1.07149
1
1
0.882659
1.11851
1.07171
1
1
1
1.11371
1.11595
1.11903
1
1
1.12037
1
1.11837
1.1183
1
1
1.11898
1.11852
1.11354
1
1
1.11897
1.11851
1
1
1
1.11886
1
1
1
1.11848
1.11987
1.11883
1
1.11782
1.00001
0.909882
1.11898
1.11819
1
1.12053
1.11313
1.11987
1
1
1.11986
1
1.07024
1.11737
1
0.901166
1
1.11906
1
1
1.11761
1
1
1
1.03954
1.11877
0.903022
1
1.11889
1
1
1.11822
1
1.11994
1
1
1.11865
1.11823
1
1.00002
1
1
1
1
1
1
1.11949
1.11844
1
1.1212
0.890412
1.11968
1
1.11833
1.11656
1.11859
1.11885
1.12194
1
1
1.11731
1
1.08104
1.11934
1.11843
1
1.11833
1.11713
1
1.10874
1
1.11829
1.07896
1.11798
0.999267
1.11562
1.11139
1.11792
1.11868
1.01064
1.11862
1.11913
1
1.11867
1
1.11872
1
1
1
1
0.998821
1.11858
1.11863
1.10019
1
1.12055
1
1
1
0.882307
1
1.11644
1
1.10901
1.11621
1
1
1
1.10837
1.12126
1
1
1.11866
0.890625
1.01873
1
1.11998
1.11844
1.10918
1.11572
1.11844
1
1.11833
1
1
1
1
1.12017
1.11896
1
1.11684
1.01888
1.11843
1.11136
1
1
1.11177
1
1
0.892544
1.08608
1
1
1.12081
1
1.11916
1.11
1
1.10968
0.89014
1.11885
1.11844
1.11875
1
0.897966
1
1
1
1.11861
1.09837
1
1.11964
1.11838
1
1.11853
1
1
1
1
1.11838
0.999827
1
1.11903
1
1
1.11872
1.11863
1
1.11931
1.0239
1.00001
1
1.11876
1
1.11868
1
1.0038
1.11872
1
1.11856
1
1
1.04007
1.11824
1
1
1
1
1
0.998866
0.893519
0.892244
1.00585
1
1.01443
1
1.01164
1
1.11888
1
1.07391
1
1.1186
1
1
1
1.1186
1
1.09403
1.11881
1
1.0663
1.11843
1
1
1.11994
1.11869
1
1
1.01586
0.892575
1
1.11932
1
1
1
1
1.02141
1.11853
1
1
1
0.886834
1
1.11863
1.11833
1.12181
1
1
1
1
1.06279
1.11988
1
1
1
1.11866
1.1185
1.01035
1
1
1
1.11861
1.11848
1
0.900377
1.11833
1.11854
1.11751
1.11866
1.11917
1
1
1.11874
1.11907
1.11835
0.889371
1.01192
1.11792
1
1
1
1
1
1.11833
0.894895
1
1
1.11861
1.05642
1
1.11862
1
1
1
0.892744
1
1
1.03195
1.1183
1.11857
1
1.1171
1.11999
1
1.01686
1
1.11939
1
1.11888
0.891802
1
1
1
1
1.11854
1.00002
1
1
1
1.11186
1
1
1
1
1.11846
0.891937
1.0929
1.1195
1
1.1187
1
1
1
0.99918
1
1.11767
1
0.941362
1
1
1.00001
1.11873
0.888727
1
1.11815
1
1.11911
1.11865
0.886647
1
1
1.11432
1
1
0.895772
1
1.11996
1
1.11389
0.99981
1.11854
1
1
1
1
1.12008
1
1
1.11853
1
1
1
1
1
1
1
1
1.08073
1
1.03913
1.11945
1
1
1
0.893133
1
1
1
1
1.11807
1.11848
1.02237
1
1
1.11887
1
1
1.11842
1
1
1
1
1
1
1.11854
0.934389
1.11846
1.11906
0.999146
1
1
1
1.07406
1
1
1.1187
1.11868
1
1
1
1
0.889016
1
1
1
1.07627
1
1.11863
1.11906
1
1.11889
1
1
1
1.06644
1
1.12077
1
1.1185
1
1
0.998909
1.11847
1
1
1
1
1
1.11917
1.00001
1
0.892813
1.11827
0.893532
1
1.11742
1
0.998755
1
1.11869
1.11819
1
1.11592
0.967453
1.11857
1.11959
1.00001
1
1
0.889885
1
1
1
1.11863
1.07074
1.11896
1
1
1
1
0.99907
1.11856
1
0.890955
1
1
1
1
1
1
1
1.11893
1.11841
1.11889
1
1
0.999122
1
0.992974
1
1
1
0.889683
0.999725
1
0.89352
0.894284
1
1.11866
1.11897
1
1.11747
1.11854
0.888944
1.08529
1
1
1
0.891744
1.11877
1
0.888971
1
1.11705
1.02729
1
1
1
1
1.11855
1.1196
1
1
1.1186
1
1
1.12052
1.1186
1
1.11214
1.11856
1.12019
0.984486
1.11918
1.00244
0.888881
1.09302
1.11874
1
1
1
0.88527
1
0.894256
1.11813
0.982542
1.11852
0.993336
1
1.11842
1.05527
1
1
1.11933
1
1.05128
1.11795
1
1
1.11951
1.12087
0.889217
1.07661
0.999971
1
1.07494
1
1.11963
0.990884
1.12305
1.12004
1
1
1
1
1.11966
1
1
1.11896
0.999899
1.11812
1.09578
1.11877
0.89303
1
1
1
1
1.1182
1.00001
1.11866
1
1.11851
1.11736
1.0162
1.11988
1.03933
1.11865
1
1.08486
0.899477
1.11944
1.11842
1.09941
1.02951
1.11927
1.1185
1.11842
1.1185
1
0.973112
1.01854
1
1.11847
1.06077
1.11844
1.00001
1
1
0.90631
1.11821
1.11916
1.09723
1
1.0492
1
1.12015
1.11886
1
1.11842
1.11887
1
1
1
1.1184
1
1.04971
1.11911
1.08552
1
1.11814
1
1
1
1
1
1
1
1
1
1
0.906968
1
1.11065
0.895805
1.07396
0.999579
1.11877
1
1.0664
1
1.07901
1.09912
1
1.00069
1.11711
0.973235
1
1.11885
1.11541
0.984569
1
1.11927
1.11812
1.11886
1
1.11853
1.11787
1.1192
1
1.05576
1
1.00002
1.11825
1
1.1186
1.01879
1.11935
1
1
1.11982
1.11926
0.897654
1
1.11903
1.09165
1.11842
1
1
1.11957
1.11707
0.999506
1
1.10057
0.999169
1.11883
1.00001
1
1
1
1
1.0564
1
1.09549
1.11826
1.0915
1.11839
1
1.0009
1
1
1.12043
1
1.11863
1
1
1
1
1
1
1.01527
1.06571
1
1
0.894114
1
1.11836
0.906988
1.11842
1
1.06355
0.999937
1.11871
1.07932
0.892832
1.0688
1.00001
1.11871
1.1188
1
1.07513
1.11955
1.11913
0.999542
1.11959
1.11566
0.881701
1
1
0.999178
1
1.11481
1
0.896977
1.11805
1
1
1.10406
1
1.11804
1
1.11873
1
0.895691
1
1
1.11761
1.12014
1.11987
1
1.11863
1.11858
1.11719
1
1
1.11801
1
0.922536
1
1
1
1.11863
1
1.11872
1.07954
1.11889
1
1.11852
0.999825
1
1
1
1
1
1
0.903761
1
1
1.11842
1
1.11818
1.11708
1
0.897159
0.886515
1
1.11888
1.02224
0.891515
0.885872
1
1.11822
1
1.11886
0.883245
1.00025
1
1
0.999865
1
1
1
0.999975
1.05241
1.1186
1
1
1.11887
1.07357
1
1.1093
1.11819
1.11886
1.0547
1.11975
1
1.11862
1
1.11661
1
1.11791
1.11816
0.999147
1.11918
1.11788
1
1
1
1
1
0.978029
1.11945
1.00001
1.00001
0.890041
0.999998
0.892816
0.876375
1
1.11895
1.11899
1.11825
1
1.11847
1
0.889957
1
1
1.11906
0.952595
1.11794
1
1.11771
1
0.996209
1.11898
1
1
1
1.11941
1
1.11865
0.890117
1
1
1.07239
1
1
1.06814
1
1
1.11877
1
1
1
1
1
1.11954
1.11848
1
1.11887
1.11935
0.889885
1.05605
1.11879
1
1
1.10809
0.999696
1
1
1.11854
1.11858
1.08339
1
1.11891
0.899486
1.10976
1.00004
1
1.1177
1.00001
1.11883
1.10221
1.09233
1
1
1.11867
0.917037
0.894311
1
1.11805
1
1.11829
1
1.07436
1
1
1.11845
1.07779
0.889795
1
0.999557
1
1
1.00727
1.05399
1.11866
1
1.11903
1
1
1
1
1
1
1.01835
0.891651
1
1
1.01198
1
1
1
1
1
1.11831
1
1
1.11844
1.11894
1.08977
1
1
1
0.953157
1.11819
1.08542
1
1
1
1
1.11821
1
1
1
1.11959
1
1
1.0884
1.12206
1.01126
0.922663
1.11829
1.08656
1.11968
1
1.06221
1
1
1
0.871234
1.00071
0.890891
1
0.874776
0.887361
1
0.886417
1
1
1
1.05716
1
1.11886
1.11862
1.0003
1.06077
1.10179
0.890104
0.933206
0.966237
1
1.11847
1.11931
1.11845
1.11853
1.1029
0.965347
1
1.10367
1
1.11091
1
1
0.999002
1.00264
1
1
1
1.11898
1
0.89206
1
1.11865
0.901125
1
1
1.11855
1
1.11855
0.999988
1
1
1.11874
1.1054
1
1.1244
1
1
1.00453
1
1.0583
1
1
0.888586
1
1
1.11831
1
1.1183
1
1.00001
0.89945
1
1
0.892285
1.00031
1
1.11886
0.893306
1.11924
0.885263
1.11858
1
1
1
1
1
1
1
1
1
1
1
1.11398
1
1.11904
1.11983
0.891687
1
1
1
1
1
1
1.11573
1
1
0.888403
1
1
1.11926
1
1
1.04789
1.10079
0.885912
0.893217
0.905527
0.916672
1
0.999087
0.890327
1.00014
1.11409
0.999092
1
1
1.11871
1
1
1
0.928871
1
1.04458
1
1
1.05235
1.11866
1
0.875196
1
1
1
0.999012
1
1.11784
1.11848
1
0.88579
1
1.06763
0.889823
1
0.963026
1
0.998989
0.885485
1
1
1
0.998835
0.886925
1
0.872841
0.999555
1.06655
1.1084
0.885823
0.890905
1
0.99711
1
0.999618
1
1.11882
1.11852
1
1.00067
1.1186
1.1185
1
1
1.11857
1
1
1.00001
1
1.12008
1
1
1.00534
1
0.999603
0.912163
1
1
1
1
1
1.11813
1.01733
1.00001
1
1
1
1
1
1.00001
1
0.892394
1.02736
0.999604
1.11778
1.11997
1
1.00388
1.11855
1.10323
1
1
0.876686
1.11844
1
1.11983
1
1.11887
1.08707
0.89184
1
0.890382
1.11137
0.999908
1
0.891449
0.8771
1
1
1.1013
1
1
0.889016
1
1
1
1.04012
1
0.891384
1.11981
1
1
1
1
1.11875
1
1
1.11863
1.10797
1
1
1
1.11943
0.895788
1
1.11879
1.11828
1
1.09747
1
1.00001
1
1
1.11318
1.00218
1
0.90112
1.069
1
1
0.999313
1
1
1.11927
1
1
1.00001
1
1.11883
1
1
1
1
1
1
1
1.05674
1
1.11826
1
1
1.11914
1
1
1
1.11864
1.11744
1.01297
1
0.999312
1
1
1
1
1.1203
1
1
1.11819
0.886074
1
1
1
1
1
1
1.09781
1
1
1.1191
1.11866
1
1
1
1.11879
1.11856
1
0.999913
1.1176
1
1
1
1
0.897112
1.0088
0.998884
0.998887
1
1
0.878235
1.11882
1
0.880829
1
1.11832
1.11431
0.887782
0.999824
1.11866
1.11892
1.11819
1
1
0.984502
1.10936
1.10271
0.878881
1
1
1
1.11868
1.11832
0.883299
0.999245
1
1.11868
0.893557
1
1.11466
0.893301
0.996005
1.00192
1
1.11698
1
1
1
1
1
1
1.00003
1.11113
1
1
1.11747
1
1
1
1.11859
1
0.891871
1
1
1
1.04284
1
1
1
1
1
0.9329
1
0.894609
1
1.1185
1.00001
0.961344
0.95923
1
1.00141
1.06466
1
1
0.893259
1.11863
1.11847
1.1187
1
0.884515
0.891477
1
1.11895
1
1
1
1
1
1.00001
1
0.89565
1.07971
1
1
0.888628
1.00005
1
1
1
1
0.882506
1
0.894412
1
1
1.12041
1
1
0.890283
1
1.11918
1
0.887766
1
0.895145
1
1.00226
1.11836
1.12446
1
1
1.11996
1
1
1.03088
0.999068
1
0.999499
1
1.11938
1
0.892433
1
1.1209
0.999741
1
1
0.933507
1
0.999727
0.887687
1.11862
1.04551
1
1
0.973999
1
1
1
0.937897
1
1
1
1.11859
1
0.893748
1
1
1
1
0.888914
1.11861
1.10683
0.888549
1
1.1206
1
1
1.1186
1.11957
1.10217
0.889028
0.999362
0.999781
1
1.11869
1
1
1
1
1.1188
1.00001
1
1
1.1198
1
1
1.11841
0.896689
1
1
1
0.893588
1
1
1
0.999603
1
1
1
1
1.09464
1
1.12049
1.11893
1.12254
1.11878
1.11857
1.11877
1
1.11881
1
1.11822
1.11856
1
0.99968
0.890341
1.10333
0.999966
1
1
1
1
1.00093
1
1.02056
1
1
1
0.950798
1.11839
1.11843
1.11944
1.10874
0.999966
1
1.0062
1.1184
0.999394
1.01405
0.999229
0.890066
1
1.00001
1
1
1
1
1
1.11874
0.891662
1.11871
1.11874
0.99851
0.898783
1
1
1
1.11851
0.892981
1.10538
0.891629
1.11814
1.11988
0.895439
1.11858
1.00664
1
1.11933
0.939761
1
0.999655
0.891895
1
0.894732
1
1.11879
1.11864
0.929661
1
1.11901
0.888336
1
0.892422
1
1.11917
1
1
1.11755
1
0.949197
1
0.999901
0.893397
1.11703
0.999856
1
0.889634
1
1
1
1
1.06961
1
1.11829
1
1
1.12236
1
1
1.11874
1
0.898544
1
0.892411
1
1
1
1
1
1.11371
1.07331
1.11858
1
1.11844
1.11127
0.886088
0.874255
1
1
1.11817
1
0.89816
1
1.00036
1
1
1.11817
1
1.11917
0.899115
1.12268
1
0.895168
1
1
1.11987
1.11828
1
1.00001
1
1.11586
1
1
0.888115
0.999825
0.8905
1
1
1
1.11887
1.11795
1.11991
1
1
0.87992
1
1.11946
1
1
1
1.11182
1.11856
1.11911
0.893209
1.1197
1.1185
0.890127
1.11978
1.00001
0.890179
1.0076
1
1
1.11869
0.895273
1.07909
0.897318
1.1185
0.999289
0.886699
1.11907
1
1
1
1
1.1185
1.11956
0.895439
1
1.00001
0.889822
1.00001
1
0.889228
0.896068
1.08561
1.11867
0.999547
1.11919
1
1.12091
0.948147
0.887733
1.11871
1.12185
1
1.11871
1
1
1.11794
1
1.09456
1.12014
1
1
1
1
1.11829
1.11753
1.11935
1
1
1.11893
1.11839
1.11902
1
1.11835
1
1
1
1
1
0.890377
0.956081
0.884841
1
1
1.11872
1
1
1.11859
0.884291
1
1.11801
1.11755
1.11341
0.881639
1
0.886928
1
1.00001
1.1193
1.05907
1.11982
1.10956
1
0.880978
1
1.11801
1.08709
0.887462
1
1
1
0.938464
1
1
1.12008
1
0.890104
1.11848
1
1
1
1
1
1.09747
1.02937
1
1.11892
1
1.11874
1
0.999012
1
1.11841
1.11924
1.1187
1.11906
0.999882
1.1198
1
1.11848
1.11887
1.10174
1
1
0.892202
1.11933
1
1
1.11975
1.11864
1.1189
1
1.11905
1
1
1.00001
1.11935
1.11824
1.0364
1.02769
1.11869
1.11836
0.895565
1
1
1
1
1
1.04229
1
1
1.10099
0.891448
0.999987
1
1.11899
0.99997
0.999947
1.01961
1.10818
1.11991
0.969578
1
0.888754
1
1.00223
1.11849
1.11883
1.11546
0.999723
1
1
0.889396
1
1
1.11853
1.01432
1
1
1
1
1
1
1
0.999983
1.11978
1
1
1
1
1
1.08374
1
1.05702
1
1
1.11856
1.11861
0.889794
0.999658
1
1
1
0.895494
1.11957
1.11861
1
1
1
1
1
1
1
1
1.11892
1.12024
0.893525
1.01528
0.895823
1
0.886107
1
1.11841
1.0368
1
1
0.918342
1
1.11429
0.939198
0.998984
0.886251
1
1
1.11903
1.00001
0.99914
0.885921
1.1201
1.12085
1
1
1
1
1.11145
1
1
1.11847
0.999701
1.11843
1
1
1
0.904198
1
1
1.11904
0.886957
0.930799
0.898045
1.11827
0.999813
1
1.11959
0.881928
0.88157
1.00633
1
1
1.12006
1.00001
1.05588
1
1
1.11994
0.894339
1
1
1.00004
1.11872
1.00004
1.11475
1
1.00001
1
1
0.922597
1
0.932996
1.00001
1
1.11943
0.90437
1
0.926124
0.941687
1
1
1.11852
1
1
1
1.11869
1.1186
1.00001
1.11481
1.12015
0.931079
1.11859
1.11274
1
1
1.11873
1
1
1
1
1
1.11986
1.11884
1
1
1
1.11866
1.00006
1
0.891622
0.916229
1
1.00001
1.04636
1
1
0.972673
0.887859
1
1
1
1.1186
1.10962
1.11835
1
1
1
1
0.891262
1
1.11997
1
1.11702
0.896656
1.1201
1
1
1
0.8825
1
1.11915
1.00001
1
0.886316
1.04683
1
0.9999
1.11786
0.883512
0.883892
1
1.11993
0.884281
0.891306
1
0.891254
1
1
1
1
0.889937
1
1
1
1
1.11911
1
1.09341
0.891336
1
1
1
0.889383
1.11831
1
1
0.999071
1.11619
1
1.11859
1.11936
1
1
0.909904
0.881898
1
1
0.887163
1.03738
1.0571
1
1
1.11891
0.999267
1
0.999263
1.12021
1
1
1
1
1
1
1.11902
1
1.04344
1.04167
0.904595
1.10553
1
1.11848
1.11871
1
1
1
0.972745
0.891241
1
1.06462
0.999902
1.10784
1
1
1
1
1
1.00211
1.05688
1.11873
1.11894
1
1.11871
1
0.895304
1
0.999347
0.999935
1
0.890467
1
0.89653
1.00001
1.11964
1.11987
0.884317
1.12084
0.881491
0.99885
1.09343
0.897012
1.09258
1
1
0.999547
1
1
1
1.00002
1
0.895969
1
1
1
1
0.999887
1.11993
0.937124
1
1
1
1.01121
1
1
1
1.06916
0.92217
1
1
1
1.01389
1.11959
1
0.90017
1
1.11899
0.976124
0.886493
1
0.887079
1
1
1.11289
0.999503
1.10632
1
1.00257
1
1
1.11866
1
1
1
1
1.02649
1
1.11843
1.11883
1.11938
0.892123
1.11873
0.999162
1.09875
1
1
0.884602
1
1
0.887064
1.11942
1
1
0.999989
1
1
1
0.882833
0.893583
1
1.1201
1
1.05848
1.11842
0.887526
1.09988
1
1
0.893419
1
1
1.11876
1.11845
1.04931
1
1
1.00083
1.11935
0.892591
0.892041
1.12021
1.11857
1.08422
1.04902
1
0.971991
1
1
1
1.11451
1.11846
1.11881
1
1
1.11919
0.87541
1.10655
0.884006
1
0.89781
1
0.891115
1.11844
0.889254
1
0.993083
0.899018
1
1
1
0.949935
1.11084
1.11867
1.11839
1.11944
1
1
1.12043
1
1
1.11914
1
0.884293
1
0.902905
1
1.11968
1
1
1.00877
1.09349
1
0.999786
0.877295
1.11867
1
0.89878
1.02457
1
1
1.09256
1.11834
1.11866
1
1.11818
1.04013
1
1.00673
1.11858
1
1
1
1
1.11847
1
0.878482
1.11835
0.891097
0.902054
0.951137
1.11836
1.04454
1.11869
1
1.11982
0.999177
1.00001
1.11837
1.12032
1
1.11919
1
1.11878
1
1.11951
1
1.00001
0.999995
1.11892
0.888013
0.896778
0.99938
1
1
1
0.900001
1
1.08053
1
0.882175
1
1.04956
1.11863
1.11868
1
1
1.00001
0.999825
1
1.11955
1.11853
1
1.05307
1.11925
0.958298
1.11872
1.00026
0.880179
1.02739
0.889772
1
1
1.02086
1.12028
1
1
1.01295
0.999579
1
0.888022
1
0.9341
1
1.11833
1
1
0.891169
1.03149
1.02075
0.999564
1.11914
1.11862
0.935981
0.999447
0.891377
0.88411
0.887183
1
1
1
0.999745
0.907248
0.890877
1
1.11854
0.99993
1.11856
1.11843
1.12002
1.11844
1
0.894906
1.11859
0.886124
1
1.11844
1.11807
0.999003
0.947451
1.11838
1.08952
1
0.888905
1
1
1.12077
1
1.00787
1.11842
1
0.889415
0.893101
1
1
0.882365
0.895302
1.11869
1.00001
1
0.875263
0.872655
1.11954
1.11773
1.11143
1.12027
1.03681
0.997062
1.05295
1.11906
1.0942
1
1.0624
1
0.898689
0.96129
1
0.893486
1.11833
1.00652
1.1189
1
1.11823
1.1193
1
1.11866
1.11857
0.890532
1.11886
1
1.11889
1
0.924935
0.889057
1.11857
1
1
1
0.887324
1.11866
1.11874
1
0.894735
1
1
0.897911
1.00001
0.885989
1.11949
1
0.94001
0.883986
1
1
1.06779
1
1
1
1.02243
0.889535
1
1
1
1.11871
0.891578
1
1.11891
0.90091
0.894389
1
1
1.12057
1
1.11845
1
1.11861
0.895982
1
1
0.883065
0.946141
0.901074
1
1
1
1
1.11864
0.882418
1
0.888824
1
1.11986
1
1
0.978828
1
1
0.942605
0.999904
1.00001
1
0.892476
0.896968
1
1
1
1
0.935565
1.11832
1.11915
1
0.888757
0.885868
0.979671
0.895966
1
0.946677
1
0.906305
0.99668
1
1
0.890666
1
1.1185
1.11406
0.887845
1
1
1
1.11908
1
1.01575
0.957799
1.03952
0.897343
1.05158
0.889062
1
1
0.904326
0.976554
1
1.00893
1
1
0.886381
1
0.983609
1.01492
0.88939
1
1.09515
0.91708
0.968288
1
1
1
0.895749
1
0.886857
0.884249
1
0.959012
0.888441
1.01693
0.914413
0.890994
1.11836
1
1.11852
1.06897
0.912221
1.11861
0.892337
0.999717
1.11958
1
1
1.11821
1
0.912742
1
1.01728
1
1
1.11874
1
0.934189
0.944195
1.12047
0.985014
1
0.930665
1.11873
1.11929
0.976514
1
1.1185
1.03441
0.957464
1
1.00659
1
0.897575
1.05523
0.927102
0.916449
1
1
0.892976
1.11824
0.991479
0.886135
0.882471
0.960888
1
1.00793
1.11988
1.11816
1
1
1
0.892586
1.06005
0.999995
1.11864
1.1078
0.881453
1
1.0253
0.966119
1.07429
1.104
1
1.01443
1
1.00002
0.870531
0.954113
1
1
0.941874
0.872446
1.00979
1
1
0.893645
1.05936
1
1.11881
1
1.01428
1.06938
1
1.11423
1
1
1.11805
1
0.887362
1.11956
0.913133
1.03581
1
0.892413
0.999972
1
1.00001
1
0.940669
1.00755
0.890853
1.09053
1.1196
0.881031
1
1
1
1
1
0.98849
0.883948
1.01543
0.886743
0.891633
1.01986
1
0.999943
1.03268
1
1
0.899011
0.994918
1
1
1.0368
1
1.11924
1
1.11945
1.029
1.0062
0.890029
1
1
0.899996
1
1
1
1
1.11876
1.01274
0.999442
1
0.885232
1.01476
1
1
1.08064
1
0.876443
1.11888
1
1
1
1.11898
0.882676
0.965694
0.87572
1.09235
1.11966
1
1
1.11827
1
0.882937
1
1
1
1
1
0.934201
1
1.11892
1
1
1.04371
1.11916
0.899049
0.959361
1
1.11894
1
1
1
1
1
1.11917
1.11962
0.896821
1.11836
0.878883
1
1
1.11858
1
1.12013
0.997856
1.00822
1.02166
1.11847
1.02062
1.08485
0.879733
1
0.882935
0.992997
1
1.11883
1
1
0.88461
1.12058
1
1.11963
1
1
1
1
1
1
0.886352
1.11907
0.948041
1.11877
1
0.888343
0.895921
0.912675
1.12062
1.11927
0.997696
1
0.943064
1
1.04925
1
1.11838
0.887349
0.892359
0.951778
1
1.11862
1
1.01997
0.897012
1
1.12043
1.10609
0.999696
1
1.11881
0.889369
1.12019
1.11839
1.11895
0.890985
1.02716
1
1
0.884591
1
0.939103
0.95121
1
1.00001
1.11899
1
1.11999
1.02409
1
1.01449
1.1204
1
0.887144
1
0.935725
1
1
1.09904
1
0.939571
1
0.897933
1.01132
0.983311
0.87133
1.11816
1.09991
1.11975
0.88827
0.904642
0.998812
1
1
0.909563
1.11266
0.891041
0.999991
1
1.11871
1.11905
0.978347
1
0.890043
0.902971
1.08091
0.997673
0.880342
1
0.891769
1.03486
0.895635
1
1.00002
0.939801
1.12009
1.1188
0.952971
0.999893
1
1
0.910643
1
0.891597
1
0.887741
0.889151
1
1
1.00001
0.893566
1.11881
1
1
1.00002
1.00001
0.887169
1.11867
1.11858
1
0.891033
1.12068
1
1.0294
1
1
1.11757
0.89073
1
1
0.892188
0.928782
0.893454
0.905669
1
0.897791
0.999192
1.02637
0.886117
1
1
1.03617
1
1.1061
1
1
1.08505
0.897772
1
0.885273
1.03786
1.11889
1
1
0.893257
0.887003
0.878498
0.909397
0.892013
1.09186
0.99983
1
1
1
1
1.119
0.899919
1
0.979963
0.999907
0.999506
0.999983
0.9181
1.03698
1
1.11863
1.11871
1
1
1.11387
1.00001
1
1.11841
0.88935
1.11881
1
0.887943
1.11877
1.00002
1
0.940389
1
0.884345
1
1.11935
1
1
1.11918
1
1
1.11982
1
1
1
1.11996
1
0.917856
0.910098
1
0.882608
1.11907
1
1
0.99383
1
1.11956
1.07167
1.09738
1
1
0.89925
1
0.89699
1.11859
1.1195
1.11865
1
1.11917
0.887088
1
0.894714
1.09765
1.11174
1.11842
1.11855
0.924162
0.884912
1
1.0786
1.11899
1.11963
1.11861
0.925945
1.04606
1
1.09231
0.927779
1
1
1
1.00001
0.971691
1
1.11903
1
1
1
1
1
1
1.00002
1.11866
1
1.11971
1.09075
0.891736
1.11962
1.01267
1.06174
1
1.11823
1
0.885672
1
1
1
1
1.10255
1
0.884822
1.11858
0.879701
1.11826
1.09696
1.06508
1
1.02548
1.05776
0.998664
0.88884
0.938476
1.00001
1
0.979175
1
0.893471
1.11901
0.889768
0.978521
0.963923
1
1
1
1.0037
1
1
0.892453
0.998668
1.11973
1
1.11857
1
0.893371
1
1
1.11843
1.11801
0.888697
1
1.11927
1
0.94772
0.894791
1.11918
1.10767
1
1.02253
1.1188
0.999616
1
1.05541
1.10556
1.11883
0.998809
1
1
1.10219
1
1
1
1.11889
0.999562
1
1
1.1187
1
1
0.891544
1
1
1
1.11894
1
1
0.961377
1.0385
1.10905
0.933985
1
1.11835
1
1.04306
1
1.11939
0.999197
1.11851
1
0.889202
1
1.08901
1
1
1.11174
1
1.11846
1
1.11872
0.904942
0.891924
1.11926
1
1.10187
1
1.11985
1
1
1.00001
1.1187
1.11891
1.03644
1.1185
0.998816
0.888346
1.11897
0.955222
1
1.11969
1
1.11888
1
1.11901
1.11972
0.998945
0.891295
1
1.11848
1
1.01312
1
1
0.999417
0.925128
1.1076
1
1.10789
1
0.963861
0.882708
1.118
1.11883
0.910963
1
1.11864
1.11977
1.11918
0.907198
1.11825
0.904447
1.11966
1.11699
1
1
1.11883
1
1
1
1
0.890935
1
1
1.11972
1.11848
1
1.11853
1
1.12032
1.12023
1
1.10015
1
0.887702
1.11824
1.09326
1.0387
0.881987
1.1185
1
1
0.884233
1
1
1.11862
1
1
0.940319
1
1.11875
1.00002
1.11876
0.882555
1.12025
1
1.11886
1.11467
0.973764
1
1.11844
0.926932
1.119
1.08631
1.11866
1.11819
0.99915
1.12004
1.11867
1.11847
1.11803
1.00022
1
0.884589
1
1.11975
0.95227
1.10937
1
1.11669
1
1
1
1
1
1.1177
0.883716
0.89684
1.11844
1.11861
1
1
1
1
1
1.11785
1.11436
1.11861
1.00567
1
1
1
1.00001
1.11829
1.11846
1
1.11944
1.11973
0.896181
1.08604
1
1.11869
1.12047
1.11788
0.99938
1.11845
1.11843
1
1.11106
1
1
1
1
1
1
1.11861
1.11994
1.11142
1.11844
0.885526
0.90722
1.11862
1.11856
1
0.893407
0.984128
1
1.06022
0.88536
1
0.99984
0.999499
0.889929
1
1.1191
1
1
1
1.11949
0.982615
1
1.11902
1.11852
1
1.11908
1
1
1.11862
1
0.891005
1
1.11931
1
1
0.890325
1
1.118
1
0.886537
0.868568
1
1.1189
1
0.883664
0.966465
1
1.11844
1
1
1
1.11927
1
0.890752
1.01988
1.11935
1.11895
1.11886
1.01548
1.11897
1.11845
1
1
1
1
1
1.11863
1
0.999808
1.11911
1
0.886038
1
1.11864
1.059
1.01805
1.05872
1.02039
1.12071
0.911354
1.11873
1
0.891459
0.999175
1.11868
0.987659
1.11857
1.11883
1.11508
1
1.11935
1.11867
1.11867
1
1.00001
1
1
1.11946
1.08628
1
1
0.891191
0.999047
1
1.11905
1
1.11866
1.11876
1.11902
0.977934
1.11871
1.11832
0.996443
1.06133
1.1195
1.11835
1
1.11037
0.954417
1.11245
0.998611
1.1182
1
1.11857
1.11859
1
0.891749
0.983086
0.904746
1
1.02004
0.999027
1.11894
1
1
0.999132
1
1.06192
1.11525
1
1
1.11865
1
1
1.08771
1.11863
1.1144
1.11939
1.11877
1
1.11815
0.925832
1.11912
1
0.994115
0.895312
1
1
0.917184
1
1.04421
1
1.11868
1
1.11632
1.07855
0.889408
1
1
1
1
1
1.1188
1.00353
1
1.11999
1
1.11855
1.11849
1
1
0.996808
0.999957
0.882984
0.88393
0.912089
1.02439
1
0.999539
0.887188
1.00001
1
1.11848
0.982925
1.11174
1.09924
1
1
1
1
1
1.11859
1.11858
1
1.11842
1
1.11974
1.08137
0.998859
1
1
1
1.07108
1
0.987059
1
1.11828
1
1
1.11859
1
1
1
1
1
1.11869
0.89003
0.998919
1.10726
1.11864
1
1.11861
1
1
1
1
0.900606
1
1.11896
1.11855
1.11868
1.12018
0.982548
1
1.10192
1.03135
1.12003
1.11795