/*--------------------------------*- C++ -*----------------------------------*\
  =========                 |
  \\      /  F ield         | OpenFOAM: The Open Source CFD Toolbox
   \\    /   O peration     | Website:  https://openfoam.org
    \\  /    A nd           | Version:  12
     \\/     M anipulation  |
\*---------------------------------------------------------------------------*/
FoamFile
{
    format      ascii;
    class       volScalarField;
    location    "9.73";
    object      p;
}
// * * * * * * * * * * * * * * * * * * * * * * * * * * * * * * * * * * * * * //

dimensions      [1 -1 -2 0 0 0 0];

internalField   nonuniform List<scalar> 
22702
(
1
1
0.866456
1
1.05264
1
1.47374
1
1
0.658198
1.47188
1.47487
1
1.47192
0.879719
1
1
1
1.47158
1
1.47155
1
1.47392
0.659809
1.47055
0.649452
1
1.47364
0.67124
0.659256
1
1.47374
1
1
1
1.43513
1.47429
1.47353
1
1
0.655349
1
1.23323
1
1.47308
1
1
1
1
0.657716
1
0.654285
1
1.47126
1
1.4703
1
1
1
1
0.661794
1
1
0.678505
1
0.63629
1
1
1
0.658619
1
1.47071
1.28338
1
1.46944
1.49428
0.647509
1.47492
0.660486
1
1.46958
0.658913
1.47002
1.47006
1
1
1
1
0.926948
0.658189
1.47262
1
1
0.667291
1
1.47179
0.666012
1
1
1
1
1.23195
1.47031
0.650947
1
1
1.11054
1
0.661827
1
1.47536
1.47316
1
1
0.642597
0.647334
0.658461
1
1
1
1
1
0.905169
1
1.40199
1.04676
1.47059
1
1.47019
1.47147
1.47169
1.47217
1
0.652479
1
0.666719
1
1
1
1
1.4725
1
1
1
1
1.47132
1
1.02826
1
1
1
1
0.657818
1
1.01089
1
0.660038
1
1
1
1.47183
1
1.47323
0.644527
0.660935
1.46912
1.47109
1
1.07766
1.26048
1
1.46639
0.661413
1.43676
1
1
1
1
1.47157
1.3836
1
1.47055
0.677633
1.46734
1
0.655119
1
0.651254
0.653909
0.999781
1
1
1.47265
1
1
1.47071
1
1.47098
1.47054
0.670319
1
1
0.654214
1.47131
1
1
1
1.4715
1
0.691004
1
1
1.47137
1.47147
1.47337
1
1.00004
1
1
1
1.47133
1
0.655875
1.48649
1.47081
1.47227
1
1
1
0.650472
1.47144
1.23078
1
1.47368
0.651818
0.679715
1.47374
1.47404
1
1.48113
0.648304
1.41398
1
1
1
1
1.47138
1
1.2681
1.04272
1
1
1.47108
0.66439
0.759612
1
1.47422
0.677853
1.47366
1
1
1
1
1
1
1
0.66609
0.755133
0.678149
1.47116
1
1
1
1
1.41741
1
0.664559
1
0.64366
0.656571
1.47234
0.654942
1.47157
1
1
1
0.997555
0.652723
0.664278
0.999999
1
0.642529
1
1.47171
0.654796
1
1
1.4677
0.665014
1
1.46829
0.660206
1.4712
1
0.645329
0.99775
1
1
1
0.658407
1
1
1
1.00001
1.007
1.28574
1
0.662359
1
1
1
1
1
1
1
1.46897
1
1.46982
1
1
1
0.678735
1
1.47204
0.645668
1
1.36292
1
1
1.47184
1
1
1
1.46389
1
1
1.46536
1.47271
1
1.09962
1
1
0.667187
1
1
1
0.666654
1
1
1
1
0.65765
1
1
1
1
1
0.680158
1.00006
1.47261
1
0.999981
1.47051
1.4696
1
1
0.672175
0.826045
1.47629
1
1
1
1.47136
0.658394
1
1.47293
1
1
0.692168
0.693265
1
0.657631
0.672748
1
1
1
1
1
1
1
1.47069
1.11068
1.43731
0.679403
0.911841
1.47148
1
1.46909
1.47604
0.647263
0.78707
1
0.697559
1
1.4828
1
1
1
1
1.47129
1
1
1
1
1
1
1
1.17017
1.47262
1
1.47131
1
1
0.656667
1
1
1
1
1.47157
1.35677
1
1
0.662307
1.47082
1.47121
1
1.47135
1.47072
1.47147
1
0.850302
1
1.47232
0.984185
1.47138
1
0.682181
0.998828
1.47021
1
1
1
1
0.665856
1.47238
1.42482
1
1.46995
1.47215
1.47446
1
1.20415
1.47064
1
1
1.32252
1.06759
1.4715
0.932451
1.4714
1
1.47158
1.47151
1.47153
1.47102
1
1.45593
0.914504
0.88815
1
0.999999
1
1
1.46909
1
1
1
1
1
1.47216
1
1
0.996052
1.47125
1.42596
1
1.38645
1.00004
1
1
1.47186
1
0.997159
1.00435
1
1.47125
1
1.46989
1
1
1.34338
1
1.47027
1.00002
1
1.47169
1
1.47147
1
1
1
1.47123
1
1.46999
1.00001
1.47138
1.47052
1.47142
1.47049
1
1.47232
1.47654
1
0.656918
1.44144
1.33162
1
1.4711
1
0.665698
0.66024
1
1
1
1
1
0.663997
1
1.47115
1.11227
1.47143
1
1
1
1
1
1.4715
1
1.47779
1.27407
0.791707
1
1.00001
1.13428
1.11645
1
1
1.16607
1
0.658392
1.47166
1.47143
1
1
1
1.4718
1
1.00003
1.47549
1.47225
0.940519
1
1
0.657133
1.42834
1
1
1
1
1
1.47136
1.47216
1
1.47251
1.46821
1.47138
1
1
1
1
0.6539
1.47271
1
1
1.42702
1.47084
1
1.44295
1.47098
1
1
1
1
1
1.47139
1
1
1
1
1.4721
1
1.46694
0.688781
1
0.63995
1
1
1
0.996963
0.651668
0.999081
1
1
1
1.06546
1
1
0.859771
1
1
1
1
1
1
1
0.999997
0.93688
0.999999
1
0.997463
1
0.663365
1
1
1
1
1.34753
1
1
1
1
0.644205
1
1
1.44319
1.46944
1
1
1
0.881882
1
1
1
1
1
1
0.947964
1.01043
1.47149
1
1
1
1.47054
0.894254
1
1
1
1.47416
1.46891
1
1.00001
1
1
1
1
1
1
1
0.674853
1
1
1.47082
0.690725
1
1.46969
1
0.656762
1
1
0.671036
1
1
1
1
1
1
1
1.46237
1.47114
1
1
1
1
1.42782
1
1.14737
0.656556
1
1
1
1
1
1
1
1.03303
1
1
1.24566
1
1
1
1.37981
1
1
1
1
0.689173
1
1
0.661056
0.694226
1
1
1.47218
1
0.976533
1
1
1
1.32659
0.639997
1
0.636041
1
0.771273
1
1
1
1.47252
1
1
1.4718
1
1
1
1.47187
1
1
1.47273
1
1
0.648493
1
1.15029
1
1
1.47286
1.47134
1.30985
1.41999
1
0.686738
1
1
1.4498
1
0.643087
1
1
1
1.47181
1
1
1
1
1.27501
1
1.43122
1.47435
0.66473
1
1
0.643749
0.644186
1
1
1
1.3306
1.3537
1
1
1
1
1
1
1
1.19019
1.47026
0.999455
1
1.46609
0.65739
1
1
1
1.25359
1
1.08983
1
1.42931
1.46942
1
0.678042
1
1.46788
1
1
1.4716
1.44183
1
1.47566
1
0.663932
1
1
1
1.47736
1.46206
1.41184
1
1.47481
1.47075
1
1.47184
1
1.46953
1
0.678189
0.973502
0.679028
1
1
1
1
1
1.4711
1
1.47091
1
1
1
1.4467
1
0.666557
1.47134
1
0.665162
0.65732
0.652074
1
1.22276
1.03858
1.47344
1.4709
1
0.999999
1
1
1.47149
1
1
1.47147
1.47078
1
1.15974
0.999963
1
0.996766
1.4697
0.862618
1
0.830499
0.65908
0.658379
0.926923
1.47368
1.4646
1.09008
1.47194
1.47135
1
1
1.46984
1.47128
1.47201
1.47375
1
1.47161
0.6702
1.4716
1.47273
1.46909
1.47638
0.855987
0.884088
0.928774
1.47271
0.962715
1.47332
1
1
1.47354
1.47133
1
0.695554
1.47408
1.47179
1
1.4716
1.47171
1
1.4715
0.651141
1.47152
1.47054
1.47387
1.47754
1
1
1
1.47223
1.30089
0.663702
1.47172
0.672605
1.47238
1
1
1
1
1.46912
1.47182
1
1
1.47136
0.672943
1.47098
0.656972
1
1.4681
1
0.657386
1.47322
0.726604
1
1.47113
1.47464
1.46995
1
1
1.22937
1.47389
0.657633
1.47088
1
1.47038
0.888014
1.47184
0.667294
1
1.46997
0.68183
1.47343
0.653849
1
1.47199
1
1.47242
1
1.26735
1.45356
1.36818
0.602973
1
1.47114
1
1.47092
1
1.47172
1
1
1.47305
0.978729
1.47403
0.659497
1.41916
1
1.32403
1
1.47313
1.47143
1.47208
1
1.42149
1.4717
1.43553
1.28309
1.47285
1
1.30532
1
1.47213
1
1.07192
1
1.43619
1
1.47061
1.44866
1.44801
1
1.46442
0.656455
1
0.681269
1
1
1
1.47452
1
1.47261
1
1
1
1.47189
1.4567
1.39018
1.46955
1.46954
0.64103
1.47972
1.47012
1
1.40198
1.47114
1.46168
1
1.46659
1.47188
1
1.473
1.47049
1.47265
1.47293
1
1
1
1.47084
0.64819
1
1.47155
1
1
0.662512
1
1
1.4715
1.47092
1
1.47103
1.46451
1.47023
0.969341
1.4716
1
1.4717
1.47106
1.37785
1
1
1
1.47008
1.47114
1.47142
0.948911
1
1.48123
1.4711
1.47109
1
1.47125
1.47195
1.47127
1.48103
1
1.47205
1.47735
1.41043
1.47009
1.47883
1
1.46678
1.46624
1.47137
1.46945
1.47123
0.634304
1.4722
1.46993
1
1.47104
1.47181
1.47165
1.47231
1
1.47067
1.47168
1
1.47218
1.39351
1
1
1
1.47043
1.47801
1
1
1.25111
1
1.47136
1
1
1.47146
1.47349
1.47142
1.4711
1
1
1
1.33155
1
1.47127
1
1
1.46899
1.47067
1
1.47109
0.690114
1.47144
1.47192
0.726289
1
0.621243
1.4104
1.47593
1.47052
1.46997
0.671386
1.47133
1.47293
0.658791
0.654195
1
1.46976
1.47143
1
1
1.47132
1
1.47732
1
1.40919
1
1.21567
1.47096
1.47414
1.32718
1.4299
1.4717
1.47383
1.45162
1
0.660044
1.4687
1.47148
1.47791
1.00001
1
1
1.47672
1
1.47126
1.47158
0.747458
1
1.47191
0.999944
1
1.00003
1.00004
1.47169
1.46962
0.998421
1
1
1.47121
1.47353
1.47231
1.47323
1.47272
0.653595
1.41937
1
1.46829
1.47116
1.47141
1.46611
1
1.47096
1.45792
1.47244
1
1.47127
1.47062
0.850322
1.47099
1.47082
1
1.47147
0.819013
1.47109
0.865456
1.47118
1
1.47133
1.47771
1.4716
1.47154
1.47171
1.46946
1.47172
1.46953
1
0.930671
1.47109
1.47129
0.83
1.47122
0.978752
1.28167
1.47114
1.46904
1.46938
1
1.47401
1.30572
1.46982
0.905266
1.47348
1.47317
1
0.861746
1
1.47133
1
1.32278
1
1.43846
0.881436
1
1.46989
1.46505
1
1.47187
1.47361
1.46659
1.4617
1.4737
1
1.46852
1
1
1
0.910221
1.47137
1.47219
1.47706
1.47117
1.47726
1.47866
1.46633
1.47243
0.914354
1.02986
1
1
1.47729
1.47213
1.47235
1.47179
1.00003
1.24133
1
1.47341
1.41441
1
1
0.772182
1.47122
1
1
0.672028
1.47147
1
1.47006
1.47194
1.4717
1.45308
1.47134
1
0.604391
1.11168
1.47309
1.47111
1
1.47231
1.47146
1.22343
1.01054
1.10542
1
1.47301
1.47097
1
1
0.633931
1
1
1.47135
1.47152
1.4736
1.47148
1.47161
1.46905
1.47218
1.46935
1.47158
1
0.99628
1.47109
1.47088
0.997273
1.47112
1.47166
0.602395
0.664887
1.47422
1.46581
1
1
1.0013
1.47213
1.4727
1.47133
1
1.47111
1
0.851646
1.47806
1.46262
1
1.20696
1.47131
1
1.4705
1
1.47239
1.2984
1.4706
1
1.47043
1.46138
0.625803
1.47107
1
1.46879
1.47017
1
0.607605
1.47205
1.39324
0.997786
1.44857
1.47172
1
0.9969
1.46926
0.998123
1.4713
1
1
1.46996
1
1.469
1.47121
0.996457
1.36842
1
1.47178
1
1
1
1
1.47192
1
1
1.46594
1
1.47047
1
1.29937
1.47865
1.47215
1
1
0.980489
1
1.47008
1.47168
1.46906
1.4714
1.47168
1.47146
1.47095
1
1.4723
1.47151
1
1.47118
1.47229
1
1.473
0.940311
1.05869
1.47199
1.472
1.4728
1
1.47148
1
1.47226
1.47183
1
1.47294
1
1
1
1
1.47167
0.619548
0.997865
1
1.47109
1.48007
1
1.47135
1
1.00496
0.665194
1.47177
0.999607
1
1.47071
0.998412
1.47047
1
0.99976
1
1.46918
1.46874
1.47282
1.47618
0.657435
1.47054
1.4748
1.47209
1.11414
1
1
1.1904
1.47143
0.618788
0.654444
1
1.47047
1.47106
1.47498
1
1
1.47414
1.47251
0.999889
1
1.33931
0.69324
1
1.07799
1.46882
1.47481
0.998232
1.47163
1.48245
1
0.999063
1
1.47452
1.47036
1.18728
1
1.45118
1
1.00237
1.47335
0.65392
1.47142
1.47163
0.997022
0.999915
1.41637
1
0.999704
1
1.47186
1
1.00001
0.660272
1.47186
1.00001
1
1
1
1.48016
1.26182
1
1
0.650287
1.47178
1.26273
1
1
1
1.44913
1.45905
1.47056
1
1
1.47736
1
1.47174
1.47118
1
1
1.47316
1.47122
1.4514
1
1
1.4733
1.47247
1
1
1
1.4725
1
1
1
1.47312
1.47755
1.47481
1
1.47872
1.00003
0.741654
1.47164
1.47121
1
1.47123
1.44649
1.47547
1
1
1.47458
1
1.23785
1.46943
1
0.608168
1
1.4738
1
1
1.47695
1
1
1
1.14817
1.46939
0.721799
1.00001
1.47297
1
1
1.47113
1
1.4752
1
1
1.47075
1.47159
1
1.00005
1
1
1
1
1
1
1.47441
1.4718
1
1.46997
0.654851
1.46816
1
1.47124
1.47064
1.47103
1.47065
1.47524
1
1
1.47456
1
1.28212
1.47656
1.47119
1
1.47392
1.46438
1
1.42072
1
1.47171
1.3054
1.47419
0.997544
1.46536
1.42531
1.4728
1.47313
1.03671
1.47149
1.47395
1
1.47181
1
1.47206
1
1
1
1
0.997113
1.47165
1.4718
1.38003
1
1.47293
1
1
1
0.639551
1
1.45972
1
1.42731
1.45749
1
1
1
1.45825
1.46949
1
1
1.47189
0.657539
1.08084
1
1.47628
1.47133
1.42847
1.45882
1.47132
1
1.47001
1
1
1
1
1.47152
1.4715
1
1.45091
1.05665
1.47177
1.43906
1
1
1.44019
1
1
0.675615
1.32662
1
1
1.47883
1
1.47423
1.42868
1
1.42834
0.661149
1.47177
1.47213
1.47248
1
0.656724
1
1
1
1.47154
1.37327
1
1.47717
1.47088
1
1.47088
1
1
1
1
1.47133
0.999384
1
1.47339
1
1
1.47351
1.47154
1
1.47187
1.0899
1.00002
1
1.47021
1
1.46936
1
1.01313
1.47146
1
1.46988
1
1
1.14278
1.47127
1
1
1
1
1
0.996335
0.652475
0.612666
1.02089
1
1.00695
1
1.01125
1
1.47148
1
1.28909
1
1.4711
1
1
1
1.471
1
1.36672
1.46999
1
1.24637
1.47037
1
1
1.47463
1.47228
1
1
1.04366
0.604572
1
1.47378
1
1
1
1
1.07701
1.47115
1
1
1
0.677511
1
1.47127
1.47121
1.48388
1
1
1
1
1.23884
1.47826
1
1
1
1.47123
1.47144
1.05321
1
1
1
1.47159
1.47143
1
0.607412
1.47157
1.47192
1.47189
1.47355
1.47479
1
1
1.4743
1.47463
1.47107
0.675999
1.04172
1.47115
1
1
1
1
1
1.47123
0.660656
1
1
1.47117
1.21267
1
1.47699
1
1
1
0.653345
1
1
1.12181
1.47154
1.47078
1
1.47941
1.47098
1
1.07669
1
1.47677
1
1.4712
0.656637
1
1
1
1
1.47119
1.00006
1
1
1
1.44792
1
1
1
1
1.47264
0.654071
1.36815
1.47377
1
1.47182
1
1
1
0.997064
1
1.46918
1
0.807787
1
1
1.00003
1.46974
0.678365
1
1.47481
1
1.46711
1.47162
0.667458
1
1
1.45829
1
1
0.668284
1
1.47772
1
1.45045
0.999327
1.47258
1
1
1
1
1.46816
1
1
1.4714
1
1
1
1
1
1
1
1
1.30596
1
1.14152
1.47038
1
1
1
0.649126
1
1
1
1
1.47515
1.47175
1.04571
1
1
1.47285
1
1
1.47142
1
1.00002
1
1
1
1.00001
1.47147
0.787949
1.47127
1.47355
0.996738
1
1
1
1.27467
1
1
1.47344
1.47056
1
1
1
1
0.652813
1
1
1
1.29034
1
1.4702
1.47488
1
1.47336
1
1
1
1.25298
1
1.47323
1
1.47141
1
1
0.996344
1.47152
1
1
1
1
1
1.47066
1.00002
1
0.675026
1.47681
0.663271
1
1.46947
1
0.996152
1
1.47311
1.46938
1
1.47733
0.878412
1.47133
1.4793
1.00003
1
1
0.654567
1
1
1
1.47224
1.26303
1.47052
1
1
1
1
0.996943
1.46884
1
0.656631
1
1
1
1
1
1
1
1.47682
1.47253
1.4688
1
1
0.996956
1
0.967703
1
1
1
0.616366
0.951225
1
0.645313
0.645729
1
1.47237
1.47223
1
1.47137
1.47192
0.654639
1.31484
1
1
1
0.659084
1.47137
1
0.661153
1
1.47872
1.06788
1
1
1
1
1.47145
1.47183
1
1
1.47143
1
1
1.4711
1.47192
1
1.42406
1.4706
1.4708
0.971319
1.4695
1.00863
0.655363
1.35657
1.47211
1
1
1
0.632674
1
0.6515
1.48072
0.962695
1.47127
0.939842
1
1.47285
1.20835
1
1
1.47078
1
1.19316
1.47417
1
1
1.46652
1.46446
0.649982
1.26948
0.999894
1
1.27646
1
1.47965
0.950411
1.48079
1.47778
1
1
1
1
1.46096
1
1
1.4726
0.999641
1.47021
1.37676
1.47315
0.649947
1
1
1
1
1.47083
1.00004
1.46982
1
1.47114
1.47363
1.05705
1.47522
1.14403
1.47156
1
1.32017
0.673031
1.47553
1.47185
1.36359
1.07424
1.47201
1.47142
1.4704
1.47034
1
0.908892
1.06881
1
1.47186
1.22184
1.47058
1.00003
1
1
0.667552
1.47082
1.47177
1.38046
1
1.17063
1
1.47715
1.47666
1
1.46924
1.47208
1
1
1
1.46862
1
1.18024
1.46868
1.32308
1
1.46949
1
1
1
1
1
1
1
1
1
1
0.681658
1
1.45544
0.637298
1.27346
0.998527
1.46944
1
1.24205
1.00001
1.29933
1.40137
1
1.00159
1.47143
0.906113
1
1.4749
1.46501
0.956301
1
1.47299
1.47066
1.47301
1
1.47227
1.46959
1.47027
1
1.20886
1
1.00006
1.47026
1
1.47099
1.06755
1.46938
1
1
1.47416
1.47542
0.654793
1
1.47325
1.35054
1.47066
1
1
1.47146
1.47129
0.998229
1
1.41105
0.997006
1.47121
1.00007
1
1
1
1
1.21049
1
1.36399
1.47043
1.3506
1.47394
1
1.00297
1
1
1.47055
1
1.46948
1
1
1
1
0.999999
1
1.05594
1.2391
1
1
0.649438
1
1.47583
0.716994
1.47374
1
1.23856
0.999761
1.47158
1.29368
0.656303
1.25563
1.00003
1.47098
1.46988
1
1.28026
1.46859
1.47099
0.998377
1.47917
1.45917
0.651905
1
1
0.997656
1
1.46952
1
0.685225
1.47468
1
1
1.41534
1
1.47099
1
1.47239
1
0.674926
1
1
1.47034
1.4753
1.47673
1
1.47142
1.47103
1.47577
1
1
1.45524
0.999999
0.751469
1
1
1
1.47187
1
1.47132
1.30589
1.47274
1
1.47147
0.99937
1
1
1
1
1
1
0.715441
1
1
1.47121
1
1.47138
1.46949
1
0.671324
0.659043
1
1.47275
1.0753
0.662401
0.637068
1
1.47169
1
1.46955
0.696807
1.00129
1
1
0.999511
1
1
1
0.999917
1.18982
1.47046
1
1
1.47244
1.26851
1
1.42554
1.46951
1.4709
1.19079
1.47406
1
1.47169
1
1.47189
1
1.47765
1.47074
0.997079
1.47059
1.4739
1
1
1
1
1
0.909777
1.47185
1.00004
1.00003
0.652539
0.999982
0.624265
0.644438
1
1.47073
1.4705
1.47017
1
1.47142
1
0.649964
1
1
1.47206
0.848223
1.47474
1
1.47219
1
0.981731
1.4732
1
1
1
1.4725
1
1.47224
0.650223
1
1
1.26691
1
1
1.25564
1
1
1.47186
1
1
1
1
1
1.47852
1.47185
1
1.47125
1.46998
0.653508
1.20898
1.47179
1
1
1.42266
0.998923
1
1
1.47188
1.47292
1.29801
1
1.47091
0.679949
1.43201
0.999838
1
1.47461
1.00003
1.47193
1.38711
1.3536
1
1
1.47143
0.741899
0.649012
1
1.47185
1
1.47247
1
1.27732
1
1
1.47065
1.29873
0.662778
1
0.998564
1
1
1.02612
1.19128
1.47178
1
1.47312
1
1
1
1
1
1
1.06551
0.664831
1
1
1.02635
1
1
1
1
1
1.47062
1
1
1.47171
1.47192
1.33213
1
1
1
0.839668
1.47036
1.32459
1
1
1
1
1.47239
1
1
1
1.47599
1
1
1.33332
1.48723
1.03817
0.763323
1.46951
1.33033
1.47342
1
1.22759
1
1
1
0.672221
1.00238
0.647664
1
0.707309
0.642715
1
0.649013
1
1
1
1.19872
1
1.47095
1.47054
1.00077
1.21586
1.39325
0.645506
0.798721
0.860824
1
1.47158
1.47064
1.47142
1.47128
1.40123
0.869073
1
1.4056
1
1.45738
1
1
0.9966
1.00942
1
1
1
1.47129
1
0.647839
1
1.47241
0.659519
1
1
1.47091
1
1.47136
0.999991
1
1
1.47262
1.40974
1
1.48635
1
1
1.01401
1
1.2055
1
1
0.652016
1
1
1.46963
0.999998
1.46978
1
1.00003
0.63395
1
1
0.65696
1.00089
1
1.47097
0.665204
1.47553
0.671447
1.47293
1
1
1
1
1
1
1
1
1
1
1
1.45158
1
1.4738
1.46934
0.664494
1
1
1
1
1
1
1.45797
1
1
0.656824
1
1
1.47087
1
1
1.1772
1.39185
0.666029
0.673827
0.738803
0.750272
1
0.996733
0.649036
1.00033
1.44157
0.996781
1
1
1.47078
1
1
1
0.775218
1.00001
1.16381
1
1
1.1801
1.47162
1
0.680783
1
1
1
0.996351
1.00001
1.47201
1.47189
1
0.643267
1
1.25332
0.659467
1
0.867653
1
0.996408
0.642957
1
1
1
0.995561
0.650984
1
0.708588
0.998376
1.24233
1.43378
0.694789
0.671852
1
0.989983
1
0.998634
1
1.47196
1.47024
1
1.01515
1.47058
1.47229
1
1
1.47164
1
1
1.00004
1
1.46864
1
1
1.01826
1
0.998591
0.738333
1
1
1
1
1
1.47626
1.02621
1.00006
1
1
1
1
1
1.00003
1
0.657366
1.1037
0.998616
1.46852
1.46459
1
1.01411
1.47031
1.41373
1
1
0.664769
1.47033
1
1.47014
1
1.47085
1.33192
0.660051
1
0.661225
1.44937
0.99968
1
0.66153
0.658434
1
1
1.39366
1
0.999998
0.645217
1
1
1
1.14858
1
0.666489
1.47228
1
1
1
1
1.47183
1
1
1.47478
1.42135
1
1
1
1.47561
0.658155
1
1.47132
1.47129
1
1.37494
0.999999
1.00003
1
1
1.43657
1.02574
1
0.63486
1.26095
1
1
0.99697
1
1
1.47825
1
1
1.00004
1
1.47284
1
1
1
1
1
1
1.00001
1.2001
1
1.47191
1
1
1.4732
1
1
1
1.47169
1.46943
1.04717
1
0.997604
1
1
1
1
1.4705
1
1
1.4724
0.652607
1
1
1
1
1
1
1.37848
1
1
1.47312
1.47263
1
1
1
1.47192
1.47427
1
0.999716
1.46853
1
1
1
1.00002
0.6502
1.03038
0.996184
0.995962
1
1
0.693737
1.47245
1
0.674897
1
1.46868
1.452
0.67056
0.999398
1.47058
1.47274
1.47146
1
1
0.916108
1.42276
1.39351
0.671261
1
1
1
1.47299
1.47206
0.643911
0.997274
1
1.47169
0.654592
1
1.45901
0.65356
0.97742
1.00631
1
1.47007
1
1
1
1
1
1
1.00012
1.43761
1
1
1.47714
1
1
1
1.47215
1
0.657033
1
1
1
1.16049
1
1
1
1
1
0.787815
1
0.655139
1
1.4729
1.00006
0.871717
0.873365
1.00002
1.00432
1.23993
1
1
0.654003
1.47299
1.47249
1.47203
1
0.653951
0.653993
1
1.47162
1
1
1
1
1
1.00003
1
0.667706
1.2985
1
1
0.655924
0.980427
1.00001
1
1
1
0.644673
1
0.702298
1
1
1.46537
1
1
0.658787
1
1.47262
1
0.643587
1
0.659575
1
1.00845
1.47013
1.48276
1
1
1.46996
1
1
1.09522
0.996764
1
0.998291
1
1.47431
1
0.653541
1.00002
1.4715
0.998915
1
1
0.767779
1
0.999101
0.667243
1.47123
1.16828
1
1.00001
0.910517
1
1
1
0.783139
1
1
1
1.47148
1
0.658308
0.999999
1
1
1
0.64339
1.47198
1.43285
0.668023
1
1.46802
1
1
1.47159
1.47197
1.39369
0.653277
0.997755
0.999241
1
1.47148
1
1
1
1
1.47129
1.00004
1
1
1.46734
1
1
1.47169
0.626724
1
1
1
0.653052
1
0.999999
0.999999
0.998642
1
1
1
1
1.36056
1
1.47255
1.47086
1.48249
1.47159
1.47015
1.47151
1
1.46933
1
1.47091
1.47146
1
0.998834
0.627908
1.39949
0.999889
1
1
1
1
1.00079
1
1.07643
1
1
1
0.84575
1.47165
1.47236
1.46856
1.40969
0.999876
1
1.02151
1.46981
0.997918
1.0487
0.997395
0.686591
1
1.00002
1
1
1
1
1
1.47004
0.661043
1.46988
1.47187
0.995162
0.657068
1
1
1
1.47299
0.659144
1.41561
0.642214
1.47038
1.46646
0.661358
1.47041
1.02348
1
1.47379
0.803073
1
0.99879
0.630261
1
0.681958
1
1.47124
1.47168
0.737799
1
1.47111
0.684136
1
0.661822
1
1.47237
1
1
1.46553
1
0.826617
1
0.999639
0.679147
1.47745
0.999494
1
0.653487
1
1
1
1
1.24414
1
1.47252
1
1
1.4819
1
1
1.47181
1
0.660222
1
0.671086
1.00001
1
1
1
1
1.45114
1.26696
1.47133
1
1.47148
1.43805
0.645739
0.669293
1
1
1.47512
1
0.658359
1
0.979062
1
1
1.47202
1
1.47351
0.631202
1.48281
1
0.636937
1
1
1.46844
1.46974
1
1.00004
1
1.47475
1
1
0.641673
0.999399
0.654851
1
1
1
1.47305
1.47241
1.47069
1
1
0.674077
1
1.4763
1
1
1
1.45738
1.47106
1.47215
0.662072
1.47366
1.47153
0.662192
1.47387
1.00004
0.682167
1.00401
1
1
1.47129
0.66369
1.29065
0.662679
1.47142
0.997444
0.653058
1.47281
1
1
1
1
1.47153
1.47041
0.663464
1
1.00002
0.650112
1.00003
1
0.70185
0.64902
1.32426
1.47167
0.998451
1.47264
1
1.48073
0.813317
0.658457
1.47164
1.4867
1
1.469
1
1
1.47087
1
1.35559
1.47195
1
1
1
1
1.47176
1.46621
1.47365
1
1
1.47464
1.47024
1.47259
1
1.47172
1
1
1
1
1
0.652313
0.83149
0.661867
1
1
1.4705
1
1
1.47598
0.655035
1
1.47022
1.46642
1.45097
0.631982
1
0.661539
1
1.00003
1.46897
1.2139
1.47118
1.43056
1
0.659884
1
1.4705
1.33346
0.672906
1
1
1
0.795951
1
1
1.47767
1
0.686769
1.47109
1
1
1
1
1
1.37611
1.10384
1
1.47085
1
1.47315
1
0.997087
1
1.47191
1.46939
1.47053
1.47601
0.999587
1.47168
1
1.47161
1.4731
1.39651
1
1
0.616777
1.47373
1
1
1.47758
1.46923
1.47306
1
1.47239
1
1
1.00003
1.47052
1.46902
1.1287
1.10028
1.47085
1.47069
0.678227
1
1
1
1
1.00001
1.16502
1
1
1.39611
0.655098
0.999974
1
1.47236
0.999881
0.999823
1.0693
1.42075
1.47216
0.90188
1
0.650241
1
0.993425
1.47185
1.4748
1.47836
0.999045
1
1
0.649215
1
1
1.47214
1.04945
1
1
1
1
1
1
1
0.999942
1.47185
1.00002
1
1
1
1
1.31096
1
1.21418
1
1
1.47142
1.47844
0.656184
0.998835
1
0.999999
1
0.663772
1.47225
1.47174
1
1
1
1
1
1
1
1
1.47268
1.46661
0.626439
1.05077
0.665275
1
0.66048
1
1.47151
1.13283
1
1
0.726347
1
1.45102
0.797228
0.996282
0.649309
1
1
1.47011
1.00004
0.99691
0.634662
1.47236
1.47753
1
1
1
1
1.43907
1
1
1.4717
0.998961
1.47215
1.00005
1
1
0.623095
1
1
1.47134
0.660115
0.772629
0.662923
1.47167
0.999367
1
1.4743
0.701882
0.68057
1.00454
1
1
1.4719
1.00004
1.21105
1
1
1.46917
0.652032
1
1
1.00014
1.47169
1.00012
1.45449
1
1.00003
1
1
0.741804
1
0.794176
1.00002
1
1.46911
0.62688
1
0.749335
0.799804
1
1
1.47141
1
1
1
1.47321
1.47282
1.00005
1.44879
1.47246
0.773425
1.47169
1.45916
1
1
1.46611
0.999999
1
1
1
1
1.48003
1.47241
1
1
1
1.47206
1.00022
1
0.675558
0.729631
1
1.00003
1.17348
1
1
0.908534
0.665869
1
1
1
1.47762
1.43181
1.47138
1
1
1
1
0.656672
1
1.46662
1
1.46389
0.623082
1.47938
1
1
1
0.676716
1
1.47195
1.00003
1
0.677261
1.15824
1
0.999664
1.46955
0.655186
0.669208
1
1.47157
0.675474
0.671356
1
0.640239
1
1
1
1
0.666535
1
1
1
1
1.47088
1
1.35967
0.657279
1
1
1
0.662316
1.47232
1
1
0.996905
1.47105
1
1.4707
1.47313
1
1
0.725393
0.695445
1
1
0.675984
1.14593
1.21505
1
1
1.47135
0.997466
1
0.997547
1.47075
1
1
1
1
1
1
1.47075
1
1.15251
1.14191
0.685696
1.41575
1
1.47155
1.47214
1
1
1
0.912062
0.66
1
1.225
0.999655
1.42756
1
1
1
0.999999
1
1.00714
1.2051
1.47253
1.47003
1
1.47083
1
0.660339
1
0.99728
0.999785
1
0.614292
1
0.630231
1.00002
1.475
1.47206
0.63463
1.4798
0.652692
0.996064
1.34632
0.639804
1.33728
1
1
0.998385
1
1
1
1.00006
1
0.661271
1
1
1
1
0.999588
1.47257
0.782709
1
1
1
1.0377
1
1
1
1.27268
0.751256
1
1
1
1.04487
1.47389
1
0.660796
1
1.47314
0.909101
0.66611
1
0.662552
1
1
1.44567
0.998208
1.42839
1
1.00909
1
1
1.47188
1
1
1
1
1.08839
1
1.47119
1.47294
1.47155
0.651081
1.47046
0.997013
1.38466
1
1
0.612563
1
1
0.665662
1.47548
1
1
0.999961
1
1
1
0.633577
0.661108
1
1.46706
1
1.21184
1.47155
0.653914
1.39456
1
1
0.714901
1
1
1.47147
1.47096
1.15893
1
1
1.00226
1.47056
0.654328
0.634944
1.47261
1.47199
1.32488
1.18682
1
0.899448
1
1
1
1.44053
1.47177
1.46951
1
1
1.47274
0.69536
1.42148
0.635862
1
0.659099
1
0.630035
1.47129
0.647349
1
0.976913
0.705637
1
1
1
0.820375
1.42985
1.47092
1.4721
1.4695
1
1
1.47292
1
1
1.47052
1
0.670915
1
0.627719
1
1.47054
1
1
1.02787
1.35823
1
0.999314
0.705551
1.47084
1.00001
0.652499
1.08839
1
1
1.35082
1.47227
1.47158
1
1.47373
1.11627
1
1.02482
1.47171
1
1
1
1
1.47158
1
0.663648
1.46935
0.666092
0.628995
0.827727
1.4736
1.15257
1.47115
1
1.46715
0.997255
1.00003
1.47176
1.4717
1
1.47076
1
1.47239
1
1.47061
1
1.00004
0.999972
1.47233
0.652479
0.670818
0.997972
0.999999
1
1
0.638459
1
1.30281
1
0.655387
1
1.18758
1.47084
1.47737
1
1
1.00003
0.999395
1
1.47456
1.4714
1
1.19483
1.47331
0.853567
1.4707
1.00059
0.650075
1.0935
0.672255
1
1
1.07769
1.47039
1
1
1.0382
0.99854
1
0.637265
1
0.784575
1
1.47311
1
1
0.655276
1.10968
1.06465
0.998502
1.47098
1.47163
0.766234
0.998034
0.621349
0.662931
0.63434
1
1
1
0.999056
0.721892
0.650364
1
1.47162
0.999754
1.47138
1.46972
1.47179
1.47074
1
0.637117
1.46912
0.689268
1
1.47017
1.4711
0.996597
0.808296
1.47168
1.32649
1
0.667234
1
1
1.48173
1
1.02606
1.47333
1
0.650874
0.625927
1
1
0.679103
0.640402
1.47152
1.00004
1
0.633897
0.692298
1.47856
1.45173
1.43693
1.47153
1.12987
0.970011
1.18805
1.47006
1.35474
1
1.23058
1
0.601017
0.846902
1
0.621464
1.47206
1.02268
1.47318
1
1.47073
1.47015
1
1.47244
1.47127
0.661508
1.47517
1
1.47382
1
0.732059
0.646164
1.47156
1
1
1
0.656438
1.46901
1.47247
1
0.653103
1
1
0.630633
1.00004
0.63942
1.47083
1
0.79093
0.677743
1
1
1.26661
1
1
1
1.08001
0.657115
1
1.00001
1
1.47468
0.675147
1
1.4723
0.641168
0.666975
1
1
1.47522
1
1.47012
1.00001
1.4715
0.65741
1
1
0.690022
0.813175
0.629484
1
1
1
1
1.47376
0.619002
1
0.662096
1
1.4716
1
1
0.923097
1
1
0.801886
0.999702
1.00005
1
0.676174
0.659424
1
1
1
1
0.773512
1.46985
1.47279
1
0.658043
0.687471
0.886909
0.652909
1
0.828678
1
0.631651
0.975703
1
1
0.651776
1
1.47361
1.46606
0.657353
1
1
1
1.47536
1
1.0434
0.842658
1.13976
0.645007
1.18468
0.664244
1
1
0.687598
0.901519
1
1.04737
1
1
0.65674
1
0.928334
1.0502
0.665263
1
1.37952
0.728927
0.887584
1
1
1
0.663377
1
0.654878
0.66908
1
0.872264
0.651336
1.07195
0.727997
0.618763
1.47151
1
1.4713
1.25491
0.727002
1.47138
0.626845
0.999051
1.47129
0.999999
1
1.47417
1
0.731328
1
1.0713
1
1
1.47164
1
0.784526
0.810575
1.46862
0.929141
1
0.788316
1.47222
1.47206
0.910007
1
1.47152
1.1231
0.860563
1
1.01697
1
0.654002
1.19595
0.750797
0.71498
1
1
0.65732
1.47018
0.958494
0.653202
0.642682
0.835693
1
1.01818
1.47109
1.47262
1
1
0.999999
0.653479
1.22275
0.99999
1.47298
1.42383
0.661165
1.00003
1.09242
0.883626
1.2868
1.41195
1
1.04438
1
1.00005
0.670812
0.846667
1
1
0.8003
0.665115
1.04293
1
1.00002
0.626235
1.20539
1
1.4606
1
1.03848
1.25105
1
1.46151
1
1
1.47035
1
0.653337
1.47138
0.710633
1.12313
1
0.647998
0.99992
1
1.00003
1
0.80075
1.02607
0.656093
1.34644
1.47069
0.63109
1
1
1
1
1
0.963608
0.654497
1.04314
0.653638
0.656285
1.06628
1
0.999799
1.1159
1
1
0.642932
0.988499
1
1
1.12638
1
1.47165
1
1.47226
1.08311
1.03078
0.650668
1
1
0.649982
1
1
1
1
1.47151
1.04477
0.99805
1
0.652816
1.05194
0.999999
1
1.30218
1
0.69893
1.47211
1
1.00001
1
1.47058
0.664508
0.866576
0.69201
1.35346
1.47743
1
1
1.47232
1
0.680151
1
1
1
1
1
0.777105
1
1.47002
1
1
1.16221
1.4718
0.659332
0.864502
1
1.4699
1
1
1
1
1
1.47248
1.47229
0.629769
1.47202
0.646663
1
1
1.47157
1
1.47259
1.00407
1.02917
1.06227
1.46978
1.07024
1.32069
0.64882
1
0.647501
0.995642
1
1.47124
1
1
0.652736
1.47589
1
1.47232
1
1
1
1
1
1.00001
0.640156
1.46902
0.839287
1.47106
1
0.633941
0.663091
0.721029
1.46501
1.46988
0.954434
1
0.804576
1
1.18251
1
1.47112
0.648527
0.676249
0.860103
1
1.47185
1
1.05995
0.663582
1
1.4698
1.40788
0.998858
1
1.47166
0.643104
1.47635
1.47208
1.46894
0.664044
1.08487
1
1
0.647146
1
0.811138
0.847546
1
1.00002
1.47126
1
1.47017
1.08842
1
1.03996
1.47895
1
0.642141
1
0.776578
1
1
1.3827
1
0.794429
1
0.65232
1.03727
0.941419
0.693622
1.47104
1.37613
1.472
0.651331
0.704274
0.995895
0.999999
1
0.674169
1.44379
0.657767
0.99997
1
1.47183
1.47348
0.897205
1
0.644244
0.689517
1.31347
0.970077
0.649422
0.999999
0.667029
1.11409
0.656972
1
1.00006
0.793324
1.47118
1.47254
0.820655
0.9996
1
1
0.750313
1
0.662002
1
0.673069
0.656233
1
1
1.00004
0.655597
1.47071
1
1
1.00006
1.00004
0.680265
1.47203
1.47166
0.999999
0.658434
1.47231
1
1.08678
1
1
1.4734
0.658327
1
1
0.653357
0.761463
0.66257
0.630137
1
0.67624
0.997127
1.08505
0.648926
1
1
1.13101
1
1.4138
1
1
1.31731
0.659936
1
0.68749
1.12315
1.47063
1
1
0.663617
0.649783
0.642704
0.722229
0.649163
1.35243
0.999404
1
1
1
1
1.4724
0.638746
1
0.939695
0.999669
0.998782
0.999943
0.726747
1.12129
1
1.47105
1.47163
1
1
1.45164
1.00004
0.999999
1.47227
0.652381
1.47337
0.999999
0.645509
1.47171
1.00005
1
0.806688
1
0.652169
1
1.47078
1
1
1.47535
1
1
1.47576
1
1
1
1.47299
1
0.727365
0.692609
1
0.632231
1.46963
1
1
0.968545
1
1.47193
1.26681
1.37703
1
1
0.684687
1
0.651572
1.47172
1.47208
1.46988
1
1.47041
0.653374
1
0.677235
1.37687
1.42571
1.47085
1.47052
0.766314
0.645826
1
1.31667
1.47274
1.47269
1.4714
0.747078
1.1675
1
1.35678
0.755667
1
1.00002
1
1.00002
0.900749
1
1.47446
1
1
1
1
1
1
1.00006
1.46977
1
1.47597
1.34684
0.652945
1.47036
1.026
1.22391
1
1.47218
1
0.652475
1
1
1
1
1.40131
1
0.649003
1.47431
0.635115
1.47192
1.37391
1.23403
1
1.08502
1.21927
0.995907
0.688217
0.803155
1.00002
0.999999
0.91765
1
0.643389
1.47129
0.618233
0.914813
0.874791
1
1
1
1.01276
1
1
0.687585
0.995881
1.47239
1
1.47169
1
0.657185
1
1
1.47142
1.47307
0.645682
1
1.47163
1
0.839887
0.632971
1.47199
1.42234
1
1.07472
1.47189
0.998658
1
1.19182
1.41395
1.47225
0.996007
1
0.999998
1.4003
1
1
1
1.47085
0.998474
1
1
1.47188
1
1
0.668726
1
1
1
1.47248
1
1
0.868657
1.14177
1.42928
0.77233
1
1.47139
1
1.16469
1
1.46849
0.997287
1.47119
1
0.643648
1
1.31357
1
1
1.43882
1.00001
1.47168
1
1.47635
0.684097
0.648584
1.47016
1
1.39617
1
1.47141
1
1
1.00005
1.47176
1.47377
1.11918
1.47232
0.996082
0.656024
1.47266
0.842462
1
1.46918
1
1.47162
1
1.47368
1.47122
0.996392
0.658089
1
1.47148
1
1.03026
1
1
0.997957
0.736516
1.42032
1
1.42382
1
0.879671
0.640478
1.47321
1.47151
0.710855
1
1.46946
1.46758
1.46893
0.709522
1.47068
0.688449
1.47118
1.47128
1
1
1.4714
1
1
1
1
0.659837
1
1
1.47133
1.4715
1
1.47148
1
1.4673
1.47208
1
1.39426
1
0.635824
1.47249
1.34645
1.12911
0.645567
1.4711
1
1
0.647672
1
1
1.4713
1
1
0.815529
1
1.47165
1.00009
1.47224
0.643512
1.4707
1
1.47218
1.45326
0.901434
1
1.46978
0.768917
1.47052
1.32763
1.47095
1.47476
0.9972
1.47267
1.47194
1.4711
1.47243
1.00121
1
0.656112
1
1.47337
0.830507
1.4307
1
1.46333
1
1
1
1
1
1.46935
0.639544
0.672686
1.47204
1.47127
1
1
1
1
1
1.46803
1.43586
1.47179
1.02289
1
1
1
1.00003
1.47086
1.47141
1
1.46953
1.47171
0.642769
1.32511
1
1.47171
1.47828
1.46802
0.998056
1.47214
1.46987
1
1.43832
1
1
1
1
1
1
1.47222
1.46879
1.43776
1.4714
0.647129
0.712668
1.47101
1.4715
1
0.622418
0.932801
1
1.2225
0.65019
1
0.999441
0.998226
0.669997
1
1.47288
1
1
1
1.47052
0.944901
1
1.47265
1.4706
1
1.4705
1
1
1.47127
1
0.646827
1
1.47506
1
1
0.648207
1
1.47364
1
0.634503
0.692133
1
1.45242
1
0.637596
0.868647
1
1.47149
1
1
1
1.47802
1
0.640814
1.06444
1.47077
1.47314
1.47145
1.04369
1.47359
1.4713
1
1.00002
1
1
1.00001
1.47216
1
0.999287
1.47776
1
0.63939
1
1.47257
1.21556
1.0515
1.21663
1.05295
1.47631
0.723503
1.4711
1
0.660226
0.997129
1.47143
0.931631
1.47131
1.47109
1.45615
1
1.47032
1.47225
1.47115
1
1.00004
1
1
1.47187
1.32996
1
1
0.66203
0.996681
1
1.47275
1
1.47127
1.47136
1.47552
0.917029
1.47114
1.4722
1.01895
1.22562
1.47156
1.47222
1
1.43293
0.849435
1.44309
0.984112
1.47271
1
1.47146
1.47243
1
0.6534
0.933816
0.703283
1
1.0844
0.996561
1.47366
1
1
0.996251
1
1.21954
1.45436
1
1
1.47129
1
1
1.33186
1.47186
1.45258
1.47256
1.47227
1
1.47254
0.764066
1.47089
1
0.996513
0.627596
1
1
0.761113
1
1.13819
1
1.47348
1
1.46297
1.29616
0.652018
1
1
1
1
1
1.47092
1.01134
1
1.47043
1