/*--------------------------------*- C++ -*----------------------------------*\
  =========                 |
  \\      /  F ield         | OpenFOAM: The Open Source CFD Toolbox
   \\    /   O peration     | Website:  https://openfoam.org
    \\  /    A nd           | Version:  12
     \\/     M anipulation  |
\*---------------------------------------------------------------------------*/
FoamFile
{
    format      ascii;
    class       volScalarField;
    location    "10.7";
    object      T;
}
// * * * * * * * * * * * * * * * * * * * * * * * * * * * * * * * * * * * * * //

dimensions      [0 0 0 1 0 0 0];

internalField   nonuniform List<scalar> 
9801
(
0.839128
0.841565
0.845088
0.847817
0.849531
0.850948
0.852177
0.853292
0.853728
0.853512
0.854098
0.85514
0.856898
0.860328
0.863645
0.865691
0.8672
0.868519
0.869679
0.870185
0.869678
0.870073
0.87109
0.872658
0.875971
0.879861
0.882322
0.883943
0.885292
0.886455
0.886646
0.885767
0.886118
0.887205
0.888704
0.891947
0.896408
0.899285
0.901036
0.902499
0.903651
0.903369
0.902088
0.90249
0.903584
0.905275
0.90887
0.913868
0.917124
0.919013
0.920452
0.921631
0.920442
0.91873
0.919215
0.92053
0.922625
0.927112
0.932769
0.936201
0.938273
0.939686
0.94061
0.938101
0.935969
0.936809
0.938634
0.94163
0.948208
0.954272
0.957588
0.95979
0.961487
0.961621
0.957142
0.955147
0.956744
0.959416
0.965486
0.974453
0.980351
0.983762
0.986277
0.988132
0.984609
0.978538
0.978639
0.982379
0.989388
1.0024
1.01318
1.02089
1.028
1.03231
1.03027
1.02701
1.02674
1.16916
1.54981
0.842626
0.84518
0.849099
0.851946
0.853632
0.854932
0.856019
0.856911
0.857163
0.857065
0.857624
0.85859
0.860207
0.863914
0.867462
0.86954
0.870991
0.872175
0.873165
0.873453
0.873011
0.873431
0.874389
0.875793
0.879204
0.883339
0.885823
0.887403
0.888654
0.88969
0.889798
0.889016
0.889357
0.890362
0.891703
0.894899
0.899549
0.902475
0.904224
0.905587
0.90664
0.906385
0.90521
0.905533
0.90657
0.908047
0.911453
0.916625
0.919954
0.921865
0.923308
0.924434
0.923441
0.921809
0.922187
0.923413
0.925177
0.929334
0.935135
0.938716
0.940833
0.942336
0.94337
0.941225
0.939122
0.939789
0.941478
0.943979
0.950268
0.956568
0.96002
0.962301
0.964065
0.964501
0.960588
0.958512
0.959857
0.96222
0.966929
0.975748
0.982306
0.986183
0.989084
0.991631
0.989648
0.98362
0.982866
0.986188
0.9916
1.00274
1.01327
1.02098
1.02834
1.03363
1.03258
1.02686
1.01951
1.16377
1.56769
0.846481
0.849191
0.853276
0.856099
0.857701
0.858933
0.859962
0.860762
0.86091
0.860913
0.861551
0.862547
0.864138
0.867992
0.871639
0.873664
0.875056
0.876192
0.87712
0.877271
0.876921
0.877427
0.878426
0.879779
0.883136
0.887352
0.889829
0.891387
0.892629
0.893689
0.893845
0.893106
0.893466
0.894485
0.895788
0.898802
0.903476
0.90644
0.908198
0.90956
0.910686
0.910636
0.909472
0.909754
0.910814
0.912234
0.915322
0.920483
0.923914
0.925872
0.927378
0.928656
0.92813
0.926494
0.926782
0.92804
0.929678
0.933253
0.939061
0.942847
0.945042
0.946681
0.948043
0.946636
0.944519
0.945017
0.946695
0.948749
0.953689
0.960558
0.964671
0.967222
0.969207
0.970394
0.967533
0.965031
0.965928
0.968241
0.971548
0.97992
0.988433
0.993147
0.996351
0.999184
0.998853
0.993131
0.991146
0.994256
0.999156
1.00813
1.02023
1.02946
1.0373
1.04487
1.04609
1.04185
1.03276
1.17185
1.58536
0.851416
0.854118
0.858205
0.86108
0.862687
0.863918
0.86496
0.865757
0.865837
0.86593
0.86664
0.867671
0.869243
0.873078
0.876778
0.87881
0.880206
0.88137
0.882336
0.882414
0.882129
0.882694
0.883724
0.885048
0.888237
0.892578
0.895166
0.89677
0.898063
0.899204
0.899411
0.898637
0.898967
0.899996
0.901301
0.904018
0.90881
0.912054
0.913916
0.915339
0.916578
0.916755
0.915523
0.915645
0.916724
0.91815
0.920761
0.926019
0.92993
0.932067
0.933674
0.935115
0.935077
0.933274
0.933244
0.934485
0.936121
0.938937
0.944904
0.949456
0.951913
0.953707
0.955377
0.954869
0.952286
0.952162
0.953777
0.955873
0.959688
0.967171
0.972514
0.975468
0.977705
0.979581
0.977927
0.974094
0.974103
0.976558
0.979593
0.985971
0.995758
1.00204
1.0058
1.009
1.01067
1.00653
1.00254
1.00427
1.00934
1.01606
1.0269
1.03709
1.04548
1.05395
1.0584
1.05726
1.04711
1.17701
1.60071
0.856735
0.859351
0.863439
0.866472
0.868127
0.869376
0.870446
0.871285
0.871335
0.871405
0.872133
0.873188
0.874678
0.878393
0.882362
0.884517
0.885935
0.887121
0.888127
0.888222
0.887885
0.888415
0.889444
0.890722
0.893601
0.898259
0.901167
0.902839
0.904163
0.905341
0.905602
0.904778
0.905011
0.906023
0.90733
0.909646
0.914581
0.918387
0.920429
0.9219
0.923188
0.923562
0.922253
0.922111
0.923132
0.924563
0.926741
0.931914
0.936566
0.939026
0.940756
0.942287
0.942736
0.94084
0.940192
0.941236
0.942854
0.945134
0.950828
0.956542
0.959565
0.96158
0.963458
0.964046
0.961266
0.959768
0.960991
0.96311
0.966122
0.973084
0.98011
0.983856
0.986313
0.988575
0.988693
0.98443
0.982329
0.984173
0.987249
0.991722
1.00111
1.00985
1.01489
1.01843
1.0215
1.02022
1.01488
1.01324
1.01672
1.02244
1.03118
1.04192
1.05076
1.05855
1.06513
1.06607
1.05547
1.17965
1.60976
0.862118
0.864598
0.868619
0.871904
0.873667
0.874958
0.876062
0.876971
0.877056
0.877045
0.877747
0.878812
0.880191
0.883607
0.88789
0.890274
0.891751
0.892954
0.894002
0.894216
0.893771
0.894221
0.895253
0.896524
0.899003
0.90381
0.907137
0.908941
0.910297
0.911496
0.911917
0.910971
0.91101
0.91202
0.913369
0.915424
0.920208
0.924523
0.926797
0.928354
0.929709
0.930458
0.929111
0.928344
0.929213
0.93066
0.932654
0.937468
0.942776
0.945666
0.947568
0.949215
0.950334
0.948721
0.946747
0.947211
0.948802
0.950957
0.956039
0.962813
0.966609
0.968794
0.970722
0.972088
0.970008
0.966845
0.966958
0.968986
0.971626
0.97726
0.985704
0.990917
0.99364
0.995916
0.997247
0.993972
0.990215
0.990267
0.992899
0.996266
1.003
1.01306
1.01994
1.02443
1.02816
1.03
1.02592
1.02134
1.02158
1.02569
1.03168
1.04095
1.05014
1.05784
1.06414
1.06747
1.06188
1.18132
1.61485
0.867077
0.869425
0.873324
0.876894
0.878756
0.88007
0.881192
0.882172
0.88235
0.882177
0.882785
0.883852
0.885199
0.888273
0.892733
0.895403
0.896981
0.898226
0.899338
0.899779
0.899115
0.899271
0.90026
0.901575
0.903849
0.908553
0.912256
0.914234
0.915653
0.916902
0.917676
0.916768
0.916134
0.916911
0.918259
0.920218
0.924744
0.929525
0.932093
0.93374
0.935158
0.936304
0.935524
0.933892
0.934129
0.935446
0.937252
0.941476
0.947441
0.950956
0.952945
0.954564
0.956012
0.955457
0.952715
0.952126
0.953458
0.955368
0.959299
0.966564
0.97164
0.974135
0.97598
0.977519
0.976653
0.973072
0.972013
0.973478
0.975774
0.979399
0.987537
0.994767
0.998546
1.00099
1.00303
1.00196
0.997177
0.995052
0.996283
0.999152
1.0033
1.01216
1.02151
1.02733
1.03126
1.03465
1.03457
1.02929
1.02624
1.02753
1.03156
1.03818
1.04748
1.05532
1.06119
1.06521
1.06386
1.18446
1.61815
0.871319
0.873509
0.877211
0.88116
0.883214
0.884593
0.885738
0.886776
0.88713
0.886738
0.887103
0.888071
0.889316
0.892023
0.896632
0.899626
0.901332
0.902652
0.90384
0.904648
0.903974
0.903622
0.90438
0.905582
0.907534
0.912093
0.91628
0.918495
0.920001
0.921294
0.922438
0.922018
0.920707
0.920943
0.922093
0.923693
0.927631
0.933076
0.936215
0.938006
0.939459
0.940799
0.940811
0.938726
0.938189
0.939168
0.940684
0.943725
0.950017
0.954712
0.957039
0.958659
0.960136
0.960404
0.957747
0.956427
0.957231
0.958868
0.961272
0.967521
0.97424
0.977669
0.979673
0.981364
0.981811
0.97864
0.976313
0.976731
0.978651
0.980992
0.986507
0.995498
1.00115
1.00422
1.00653
1.00786
1.00406
0.999468
0.999016
1.00107
1.00402
1.00935
1.01918
1.0271
1.03204
1.03569
1.03867
1.03764
1.03224
1.02981
1.03155
1.0356
1.04262
1.05121
1.05768
1.0621
1.06462
1.18916
1.62076
0.874895
0.876918
0.880217
0.884563
0.886889
0.888354
0.889546
0.890622
0.891202
0.890704
0.890769
0.891582
0.892702
0.89484
0.899457
0.902985
0.904874
0.906253
0.90747
0.908464
0.908061
0.907336
0.907805
0.908859
0.910342
0.914249
0.919142
0.92183
0.92344
0.924768
0.925979
0.92611
0.924537
0.924293
0.925165
0.926492
0.929217
0.934985
0.939182
0.941269
0.942759
0.944117
0.94472
0.942771
0.941528
0.942072
0.943395
0.945311
0.950591
0.956711
0.959892
0.961703
0.963237
0.96424
0.962283
0.960027
0.960066
0.961307
0.963051
0.966862
0.974555
0.979785
0.982438
0.98426
0.98574
0.984084
0.980215
0.97926
0.98038
0.982371
0.985236
0.993061
1.00152
1.0059
1.00851
1.01068
1.01092
1.00589
1.00239
1.00261
1.00473
1.00781
1.01452
1.02429
1.0314
1.03603
1.03959
1.04176
1.03968
1.03453
1.03251
1.03434
1.03843
1.04599
1.05395
1.05938
1.06377
1.19458
1.62326
0.877829
0.879727
0.882474
0.887114
0.889796
0.891351
0.892578
0.89368
0.894456
0.893998
0.893743
0.8944
0.895436
0.89705
0.901319
0.905532
0.907717
0.90915
0.910366
0.91143
0.9114
0.91035
0.910535
0.911463
0.912689
0.915513
0.920863
0.924329
0.926132
0.927486
0.928706
0.92931
0.927802
0.92695
0.927602
0.928796
0.930552
0.935506
0.940913
0.94365
0.945263
0.946622
0.947628
0.946319
0.944277
0.944373
0.94545
0.946932
0.950213
0.957086
0.961736
0.964023
0.965621
0.967033
0.966454
0.963258
0.962132
0.962825
0.964369
0.966556
0.972886
0.980586
0.984567
0.986765
0.988446
0.988916
0.984917
0.98174
0.98175
0.983194
0.985276
0.98935
0.998724
1.0062
1.00992
1.01259
1.0149
1.01375
1.00748
1.00458
1.00547
1.00788
1.01144
1.01915
1.02827
1.03464
1.03899
1.04241
1.04404
1.04146
1.03631
1.03444
1.03614
1.04016
1.04816
1.05555
1.06171
1.20095
1.62576
0.880185
0.881965
0.884093
0.888819
0.892001
0.893726
0.895015
0.896142
0.89705
0.896769
0.896113
0.896565
0.897534
0.898844
0.902406
0.907233
0.909866
0.911397
0.912634
0.913751
0.914171
0.912966
0.912667
0.91342
0.914548
0.916442
0.921457
0.925944
0.928147
0.929586
0.93084
0.931807
0.930815
0.929274
0.92957
0.930616
0.931961
0.935247
0.941444
0.945282
0.947207
0.948628
0.949879
0.949655
0.947103
0.946286
0.947061
0.948386
0.950268
0.955976
0.962598
0.965822
0.967626
0.969097
0.969799
0.966933
0.964096
0.964178
0.965505
0.967236
0.970681
0.979034
0.985462
0.988354
0.990208
0.991783
0.990906
0.985933
0.983494
0.983859
0.985516
0.987856
0.993822
1.00419
1.01081
1.01406
1.01635
1.01789
1.01508
1.00917
1.00718
1.00834
1.01088
1.0151
1.02362
1.03201
1.03765
1.04162
1.04481
1.04579
1.04281
1.03756
1.03546
1.0366
1.04098
1.04941
1.05796
1.20765
1.62808
0.882156
0.883832
0.885377
0.889891
0.893734
0.895699
0.897036
0.898161
0.899118
0.899115
0.898169
0.898384
0.899281
0.90044
0.903081
0.90822
0.911569
0.913272
0.914538
0.91567
0.916448
0.91545
0.914541
0.915054
0.916093
0.917472
0.921352
0.926851
0.929802
0.931403
0.932691
0.933841
0.933696
0.931711
0.931311
0.932111
0.933309
0.935235
0.940867
0.946298
0.948881
0.950428
0.951754
0.95253
0.950406
0.948282
0.948488
0.949603
0.951091
0.954377
0.961838
0.966966
0.969355
0.970914
0.972246
0.971312
0.967368
0.966008
0.966716
0.96817
0.970047
0.975402
0.984344
0.989358
0.991923
0.993894
0.995319
0.992214
0.986739
0.985378
0.986488
0.988495
0.991185
0.998623
1.00856
1.01388
1.01664
1.0191
1.02065
1.0171
1.01127
1.00979
1.01122
1.01404
1.01906
1.02781
1.03524
1.04022
1.04387
1.04675
1.04737
1.04389
1.03808
1.03541
1.03609
1.04116
1.05197
1.21295
1.62981
0.883878
0.885482
0.886664
0.890612
0.89509
0.89739
0.898778
0.899898
0.90088
0.901203
0.900192
0.900099
0.900891
0.901965
0.903753
0.908532
0.912839
0.914923
0.916272
0.917429
0.918412
0.917957
0.916476
0.916583
0.917489
0.918684
0.921187
0.926977
0.9311
0.933079
0.934441
0.935656
0.9363
0.934482
0.933065
0.933467
0.934526
0.935924
0.939722
0.946397
0.950207
0.952101
0.953492
0.954717
0.954061
0.950917
0.950028
0.950834
0.952155
0.953912
0.959418
0.966912
0.970591
0.972557
0.974084
0.975142
0.97243
0.968568
0.967944
0.968857
0.970464
0.972971
0.98053
0.989041
0.992997
0.995087
0.996803
0.997764
0.993698
0.989011
0.988319
0.989308
0.991127
0.994313
1.00292
1.01221
1.01714
1.01996
1.02229
1.02311
1.01903
1.01386
1.01268
1.01406
1.01691
1.02273
1.03158
1.03832
1.04269
1.04587
1.04831
1.04859
1.04467
1.03791
1.03422
1.03475
1.04376
1.21545
1.63072
0.885498
0.887068
0.888086
0.891189
0.896101
0.898896
0.900357
0.901492
0.902508
0.90317
0.902373
0.901858
0.902447
0.903435
0.904722
0.908406
0.913683
0.916472
0.91795
0.919124
0.920178
0.920366
0.918677
0.918149
0.918873
0.919996
0.921579
0.926359
0.931949
0.934663
0.936155
0.937388
0.938435
0.937527
0.935155
0.934887
0.935774
0.937021
0.939084
0.945185
0.951024
0.953694
0.955223
0.956537
0.957272
0.954686
0.952121
0.952113
0.953064
0.954496
0.957251
0.964869
0.97132
0.974252
0.976121
0.977637
0.977633
0.973066
0.969974
0.970083
0.971284
0.972955
0.976278
0.985242
0.992724
0.996082
0.998467
1.0005
1.00061
0.9951
0.990692
0.990343
0.991733
0.993841
0.997532
1.00666
1.01538
1.01988
1.02259
1.02502
1.02601
1.02157
1.01617
1.01494
1.0164
1.01938
1.02596
1.03476
1.04087
1.04474
1.04772
1.04981
1.04952
1.04491
1.03709
1.03208
1.03395
1.21314
1.63081
0.887211
0.888701
0.889617
0.891719
0.89651
0.900121
0.901879
0.903128
0.904214
0.905135
0.904764
0.903703
0.903965
0.904861
0.905998
0.908391
0.913904
0.917749
0.91955
0.920775
0.921866
0.922605
0.921297
0.919947
0.920344
0.921373
0.922623
0.925551
0.931879
0.935915
0.937795
0.939084
0.940256
0.940518
0.938005
0.936613
0.937132
0.938226
0.939584
0.943305
0.950598
0.954904
0.956935
0.958305
0.959575
0.958979
0.955165
0.953553
0.95413
0.955394
0.957016
0.961552
0.970157
0.975192
0.977407
0.978969
0.980457
0.979538
0.974465
0.972022
0.972185
0.973334
0.975193
0.979933
0.990027
0.99686
0.999771
1.00156
1.0031
1.0027
0.997088
0.993116
0.992867
0.994083
0.996173
1.00061
1.01058
1.01885
1.02309
1.02567
1.02777
1.028
1.02336
1.01813
1.01683
1.01822
1.02128
1.02867
1.03756
1.04317
1.04653
1.04921
1.05075
1.04995
1.04438
1.03442
1.02807
1.20614
1.6303
0.889062
0.890324
0.891134
0.892427
0.896333
0.901112
0.903498
0.904844
0.90597
0.906984
0.907133
0.905745
0.90555
0.906346
0.907437
0.908929
0.913373
0.918573
0.921078
0.92244
0.923574
0.924594
0.924192
0.92219
0.921932
0.922765
0.923911
0.925497
0.930611
0.936565
0.939329
0.940804
0.941999
0.942968
0.941584
0.93891
0.938576
0.939416
0.940648
0.942497
0.94844
0.955294
0.958459
0.960221
0.961507
0.962358
0.959726
0.956097
0.955612
0.956502
0.957835
0.959725
0.966085
0.974522
0.978563
0.980753
0.982502
0.983784
0.980892
0.975264
0.973657
0.974559
0.97609
0.977972
0.983517
0.993673
0.999428
1.00208
1.00436
1.0063
1.00523
0.998888
0.995122
0.995227
0.996822
0.999169
1.00416
1.01402
1.02141
1.02518
1.02769
1.02985
1.03
1.02501
1.01964
1.01833
1.01967
1.02297
1.03086
1.03952
1.0446
1.04769
1.05016
1.05114
1.04983
1.04122
1.02894
1.19641
1.62974
0.890948
0.891712
0.892432
0.893523
0.896126
0.901553
0.904974
0.906568
0.907697
0.908721
0.90938
0.908256
0.907391
0.907911
0.908871
0.909979
0.912568
0.918478
0.922314
0.924096
0.925322
0.926441
0.926986
0.925086
0.923727
0.924157
0.925165
0.926383
0.929143
0.935859
0.9404
0.942412
0.943696
0.944894
0.94517
0.942235
0.940334
0.940742
0.941854
0.943157
0.94602
0.953566
0.959143
0.961501
0.963038
0.9644
0.964678
0.960793
0.95778
0.957694
0.95858
0.959983
0.962691
0.970905
0.978655
0.981915
0.983619
0.984999
0.986015
0.982537
0.977565
0.976424
0.976906
0.978118
0.980226
0.987092
0.997456
1.00297
1.00541
1.00716
1.00869
1.00735
1.00139
0.998021
0.998046
0.99923
1.0014
1.00723
1.01718
1.02383
1.02731
1.02975
1.03178
1.03186
1.02693
1.02142
1.01983
1.02094
1.02404
1.03214
1.04064
1.04543
1.04844
1.05054
1.05127
1.04758
1.03657
1.18856
1.62974
0.892938
0.893122
0.893855
0.894894
0.896463
0.901166
0.905945
0.908151
0.909403
0.910485
0.911465
0.911175
0.909577
0.909426
0.910117
0.91114
0.912599
0.917376
0.923061
0.92571
0.927096
0.928211
0.929197
0.928462
0.926043
0.92564
0.926423
0.927532
0.928923
0.933602
0.940446
0.943776
0.945451
0.946684
0.947786
0.946552
0.943145
0.942336
0.943021
0.944101
0.945524
0.949989
0.958082
0.962576
0.964765
0.966327
0.967622
0.96648
0.961484
0.959293
0.959858
0.961119
0.962505
0.965762
0.97482
0.981629
0.984527
0.98662
0.988372
0.988852
0.983969
0.978924
0.978073
0.979168
0.980746
0.98298
0.990263
1.00014
1.005
1.00752
1.00983
1.01158
1.00981
1.00335
0.999676
0.999752
1.0014
1.00392
1.01028
1.01975
1.02581
1.02926
1.03192
1.03414
1.03433
1.02873
1.02252
1.02065
1.02169
1.02467
1.03278
1.04113
1.04583
1.04882
1.05071
1.05012
1.04533
1.18588
1.6306
0.895232
0.894822
0.895329
0.896277
0.89738
0.900341
0.906129
0.909512
0.911118
0.91228
0.913342
0.913901
0.912221
0.910988
0.911419
0.912391
0.913547
0.916203
0.922564
0.926825
0.9287
0.929892
0.930997
0.931582
0.92938
0.927505
0.927733
0.928635
0.929751
0.93184
0.938501
0.944451
0.94697
0.948423
0.949647
0.950321
0.94749
0.944412
0.944183
0.945065
0.946255
0.948064
0.95433
0.962181
0.965764
0.967583
0.968967
0.970219
0.96823
0.963295
0.961703
0.96203
0.963008
0.964596
0.969083
0.978902
0.985247
0.9878
0.98927
0.990655
0.991023
0.986143
0.981568
0.98078
0.981331
0.982674
0.985187
0.99356
1.00354
1.00827
1.01045
1.0121
1.01347
1.01184
1.00576
1.00215
1.00193
1.00323
1.00574
1.01288
1.02271
1.02874
1.0319
1.03417
1.03597
1.03576
1.03006
1.0235
1.02135
1.02223
1.02504
1.03301
1.04122
1.04593
1.04902
1.04992
1.05089
1.18838
1.63236
0.897842
0.896841
0.896808
0.897587
0.898597
0.900221
0.905311
0.910454
0.912779
0.914015
0.915056
0.915978
0.915282
0.9131
0.912883
0.913698
0.914771
0.916133
0.920705
0.927054
0.930072
0.931597
0.932748
0.933822
0.933281
0.930197
0.929148
0.929713
0.93077
0.932036
0.935641
0.943364
0.948031
0.950089
0.951386
0.952593
0.952272
0.94818
0.945957
0.946257
0.947248
0.948442
0.950777
0.958502
0.965691
0.968748
0.970639
0.972195
0.973084
0.969388
0.964244
0.963186
0.964156
0.965482
0.96706
0.972046
0.981891
0.987466
0.990011
0.992118
0.993815
0.993584
0.987789
0.982981
0.982368
0.983594
0.98533
0.98803
0.996401
1.00559
1.00976
1.01212
1.0143
1.01596
1.01424
1.00773
1.00375
1.00356
1.00514
1.00796
1.01543
1.02486
1.03043
1.0335
1.03578
1.03757
1.03734
1.03137
1.02447
1.02207
1.02261
1.02503
1.03274
1.04081
1.04596
1.04803
1.05338
1.19544
1.63476
0.900331
0.899348
0.898408
0.898994
0.899956
0.901078
0.904134
0.910294
0.913858
0.915493
0.916635
0.917685
0.918166
0.916106
0.914648
0.915027
0.915934
0.917032
0.919197
0.92564
0.930954
0.933182
0.934428
0.935526
0.93627
0.933983
0.931097
0.930983
0.931952
0.933136
0.934613
0.939883
0.947518
0.951111
0.952946
0.95422
0.95532
0.953762
0.949339
0.947786
0.948204
0.949195
0.950561
0.954012
0.962789
0.969135
0.971704
0.973144
0.974344
0.975022
0.971109
0.966601
0.965727
0.966156
0.967265
0.969093
0.975335
0.985531
0.990883
0.993019
0.994342
0.995643
0.995549
0.990242
0.985873
0.98519
0.985779
0.987113
0.989974
0.999233
1.00858
1.01274
1.01475
1.01645
1.01789
1.01638
1.0101
1.00601
1.00551
1.00668
1.00908
1.01676
1.02653
1.0323
1.0354
1.03747
1.03895
1.03888
1.03307
1.02561
1.02252
1.02263
1.02443
1.03185
1.04023
1.04476
1.05344
1.20451
1.63737
0.902355
0.902325
0.90043
0.900509
0.901303
0.902299
0.903817
0.908864
0.914445
0.916933
0.918241
0.919303
0.920263
0.919583
0.916962
0.916406
0.917136
0.918212
0.919456
0.923188
0.930326
0.934221
0.935977
0.937083
0.938162
0.938033
0.934548
0.932767
0.933192
0.934142
0.935258
0.937284
0.944215
0.951166
0.954146
0.955898
0.957197
0.957983
0.954731
0.950199
0.949424
0.950433
0.951735
0.953065
0.957072
0.96615
0.971668
0.974035
0.975843
0.977416
0.977582
0.972457
0.967782
0.96726
0.968428
0.969919
0.971741
0.978126
0.987729
0.992423
0.994731
0.996787
0.998458
0.998093
0.992437
0.987546
0.986667
0.987791
0.989571
0.992737
1.00172
1.01026
1.01413
1.01647
1.01865
1.02027
1.01857
1.0118
1.00715
1.00645
1.0078
1.01049
1.01811
1.02783
1.03373
1.03694
1.03899
1.04034
1.04025
1.03465
1.02654
1.02244
1.02196
1.02319
1.03095
1.03881
1.05063
1.21381
1.63972
0.904103
0.905139
0.903054
0.902114
0.902626
0.903545
0.904613
0.907328
0.913736
0.917923
0.919727
0.920828
0.921861
0.922482
0.920343
0.918282
0.91849
0.919413
0.920477
0.922009
0.927488
0.934241
0.937178
0.9387
0.939797
0.940759
0.939203
0.935402
0.934427
0.935126
0.936247
0.937457
0.940392
0.948412
0.954363
0.956774
0.958284
0.959539
0.960014
0.956184
0.952425
0.952022
0.952623
0.95362
0.955163
0.96029
0.969597
0.974739
0.976862
0.978136
0.979441
0.97966
0.974776
0.970671
0.970107
0.970554
0.971642
0.973639
0.980858
0.990734
0.995476
0.997461
0.998785
1.00025
1.00042
0.995257
0.990392
0.989373
0.989884
0.991158
0.994323
1.00394
1.01285
1.01684
1.01882
1.02038
1.02194
1.02086
1.01438
1.00942
1.00838
1.00923
1.01147
1.01871
1.02874
1.03508
1.0383
1.04009
1.04121
1.0411
1.03598
1.02733
1.02194
1.02055
1.02198
1.02961
1.04448
1.22129
1.64119
0.905769
0.907204
0.906136
0.904109
0.904055
0.904844
0.905844
0.907123
0.91154
0.917896
0.920885
0.922363
0.923438
0.924467
0.924158
0.921145
0.920037
0.920547
0.921471
0.922579
0.924908
0.931865
0.937725
0.940123
0.941422
0.942502
0.943099
0.93998
0.936648
0.936443
0.937343
0.938445
0.939669
0.943455
0.951965
0.957156
0.959418
0.961037
0.962397
0.962285
0.957432
0.953764
0.953627
0.954712
0.955888
0.957386
0.962944
0.972114
0.976738
0.978982
0.980886
0.982419
0.982128
0.976609
0.972071
0.971468
0.972569
0.974052
0.976065
0.983058
0.99233
0.996767
0.999162
1.00128
1.00295
1.00289
0.997591
0.992111
0.990616
0.991485
0.993183
0.996541
1.00571
1.01402
1.01791
1.02051
1.02283
1.02449
1.02348
1.0167
1.01096
1.00945
1.0102
1.01211
1.01894
1.02928
1.03593
1.03905
1.04066
1.04173
1.04175
1.0373
1.02828
1.02113
1.01891
1.01984
1.0355
1.22517
1.64177
0.907311
0.908813
0.909089
0.906957
0.905725
0.906124
0.906955
0.907929
0.909861
0.916016
0.921547
0.923811
0.925013
0.92605
0.926888
0.925071
0.922108
0.921798
0.922623
0.923702
0.92484
0.928044
0.935786
0.940754
0.942874
0.944203
0.945335
0.945113
0.940992
0.93843
0.938502
0.939276
0.94036
0.941821
0.946792
0.955387
0.959978
0.961939
0.963268
0.96453
0.964346
0.959543
0.956241
0.955953
0.956426
0.957522
0.959361
0.966007
0.975356
0.979877
0.981744
0.982906
0.984183
0.984266
0.979272
0.97492
0.974137
0.974498
0.975508
0.977577
0.985325
0.995194
0.999805
1.00178
1.00308
1.0046
1.00518
1.00041
0.99465
0.992902
0.99317
0.994353
0.997456
1.00715
1.01655
1.02094
1.02305
1.02473
1.02619
1.0254
1.01884
1.01254
1.0105
1.01098
1.01261
1.01887
1.02956
1.03652
1.03954
1.04101
1.04212
1.04233
1.03864
1.02912
1.02043
1.01557
1.02399
1.22288
1.64099
0.908923
0.910362
0.911211
0.910368
0.907835
0.907371
0.908083
0.909102
0.910212
0.913362
0.920389
0.924662
0.926482
0.927554
0.928613
0.928905
0.925824
0.923672
0.923876
0.924665
0.925628
0.92693
0.931385
0.939497
0.943808
0.94574
0.947001
0.948056
0.946812
0.941962
0.939868
0.940356
0.941478
0.942557
0.94402
0.949714
0.958275
0.962406
0.964425
0.966076
0.967435
0.966502
0.960737
0.957282
0.957419
0.958611
0.959938
0.961715
0.968379
0.977257
0.98137
0.983557
0.985463
0.986981
0.986796
0.981532
0.97644
0.975297
0.976236
0.977723
0.979997
0.987402
0.996506
1.0009
1.00336
1.00549
1.00714
1.00747
1.00256
0.996241
0.994008
0.99458
0.99621
0.999408
1.00855
1.01765
1.02198
1.02434
1.02624
1.02794
1.02733
1.02086
1.01411
1.01146
1.01162
1.01309
1.01896
1.0297
1.03692
1.03985
1.04123
1.04236
1.04255
1.03944
1.02951
1.01781
1.01568
1.21402
1.63911
0.910249
0.911826
0.912703
0.913249
0.911125
0.909199
0.909424
0.910283
0.911256
0.912504
0.917002
0.924159
0.927589
0.929198
0.930264
0.931272
0.930422
0.926568
0.925074
0.92557
0.926601
0.927708
0.929335
0.935016
0.942793
0.946446
0.948259
0.949571
0.950528
0.948512
0.943823
0.942244
0.942523
0.943236
0.944368
0.946291
0.953103
0.961478
0.965256
0.966952
0.968008
0.969154
0.968389
0.963083
0.960091
0.959968
0.960462
0.961547
0.963541
0.970887
0.980105
0.984374
0.986184
0.987308
0.988646
0.989151
0.984475
0.979265
0.977961
0.978279
0.979248
0.981306
0.989084
0.999026
1.00383
1.00586
1.00711
1.00861
1.00958
1.00541
0.9989
0.996403
0.996403
0.997358
0.999886
1.00891
1.01904
1.02413
1.02644
1.02799
1.02937
1.02928
1.02341
1.01593
1.01259
1.01241
1.01361
1.01889
1.02948
1.03672
1.03956
1.04106
1.04236
1.04247
1.03953
1.027
1.01546
1.20121
1.63763
0.911095
0.913271
0.914195
0.915246
0.915043
0.912163
0.910983
0.911374
0.912174
0.913163
0.914946
0.920998
0.927698
0.930523
0.931881
0.932845
0.933661
0.931413
0.927593
0.926949
0.927727
0.928783
0.929836
0.931606
0.938212
0.945774
0.949113
0.950875
0.952259
0.953111
0.950172
0.944964
0.943527
0.94433
0.945557
0.946712
0.948581
0.955777
0.963726
0.967063
0.96894
0.970562
0.971859
0.970623
0.96488
0.961384
0.961353
0.962511
0.963915
0.96585
0.972868
0.981606
0.985664
0.987869
0.989751
0.991222
0.991521
0.986915
0.981053
0.979167
0.97986
0.981321
0.983555
0.990715
0.999953
1.00463
1.0073
1.00954
1.01121
1.01193
1.00773
1.0007
0.997401
0.997426
0.998803
1.00137
1.00954
1.01968
1.02521
1.02779
1.02956
1.0311
1.0313
1.02593
1.01779
1.01355
1.01297
1.01392
1.0183
1.02865
1.036
1.03899
1.04082
1.04219
1.04247
1.03704
1.02507
1.19063
1.63709
0.9111
0.914785
0.91583
0.916887
0.917751
0.916166
0.913047
0.912568
0.913331
0.914353
0.915391
0.917663
0.924652
0.930638
0.933127
0.93453
0.935595
0.935952
0.932425
0.929199
0.928946
0.92959
0.930571
0.931787
0.934158
0.941568
0.948579
0.951514
0.953053
0.954237
0.954963
0.952003
0.947383
0.946245
0.946584
0.947287
0.948435
0.95079
0.958681
0.966511
0.969797
0.971313
0.972303
0.973615
0.973054
0.967687
0.96427
0.963949
0.964378
0.965396
0.967402
0.974877
0.984187
0.988467
0.99024
0.991338
0.992717
0.993683
0.989921
0.983887
0.981792
0.981873
0.982678
0.984495
0.991708
1.00218
1.00766
1.00989
1.01115
1.01254
1.01383
1.01077
1.00362
0.999817
0.999244
0.999901
1.0017
1.0091
1.02014
1.02656
1.02934
1.03099
1.03234
1.03268
1.02813
1.0194
1.01407
1.01301
1.01389
1.01771
1.02754
1.03509
1.03858
1.04068
1.04215
1.04106
1.03667
1.18718
1.63777
0.909307
0.915702
0.917374
0.918436
0.919417
0.919787
0.916831
0.914517
0.914678
0.915446
0.916305
0.917349
0.920243
0.928079
0.93364
0.935927
0.937252
0.938255
0.937917
0.933451
0.930537
0.930687
0.931762
0.932922
0.934003
0.936445
0.944351
0.950992
0.953681
0.955318
0.956756
0.957513
0.953952
0.948817
0.947497
0.948299
0.949506
0.950682
0.952874
0.960683
0.968146
0.971273
0.973248
0.974944
0.976284
0.975435
0.969815
0.965643
0.965167
0.966196
0.967553
0.96951
0.976425
0.985146
0.989323
0.991658
0.993675
0.995227
0.995983
0.992233
0.98571
0.982906
0.983223
0.984594
0.986667
0.993164
1.00283
1.00816
1.01095
1.0133
1.01508
1.0162
1.01324
1.00562
1.00079
0.999925
1.00097
1.00296
1.00952
1.02027
1.02711
1.03013
1.03195
1.03341
1.03387
1.02976
1.02085
1.01479
1.01333
1.01393
1.01706
1.02619
1.03394
1.03795
1.04064
1.04103
1.04415
1.19059
1.63965
0.906255
0.914905
0.918395
0.920053
0.921058
0.922033
0.921418
0.917629
0.915905
0.916227
0.917145
0.918183
0.919492
0.923349
0.931354
0.936208
0.93831
0.939723
0.940767
0.939834
0.935221
0.93297
0.933097
0.933657
0.934599
0.935869
0.939062
0.947354
0.953566
0.956085
0.957464
0.958481
0.959248
0.956274
0.951557
0.950254
0.950486
0.951055
0.952205
0.954762
0.963098
0.970855
0.97408
0.975576
0.976587
0.977934
0.97787
0.972794
0.968527
0.967714
0.967958
0.968804
0.970647
0.977907
0.987535
0.992193
0.994126
0.995257
0.996563
0.997795
0.995086
0.98864
0.985652
0.98541
0.985956
0.98742
0.993302
1.00415
1.01089
1.01359
1.01498
1.01621
1.01764
1.01598
1.00874
1.00329
1.00192
1.00227
1.00356
1.0088
1.01989
1.0277
1.03111
1.03286
1.03401
1.03462
1.03172
1.02279
1.01568
1.01363
1.01382
1.01598
1.02446
1.03256
1.03767
1.03939
1.04735
1.19909
1.64222
0.904751
0.911256
0.918233
0.921346
0.922725
0.92366
0.924446
0.922396
0.918401
0.917558
0.918277
0.919319
0.920339
0.921622
0.925945
0.934151
0.938795
0.940838
0.942255
0.943293
0.941865
0.936696
0.93423
0.93462
0.935728
0.936879
0.938021
0.941185
0.949615
0.955488
0.957857
0.959557
0.961066
0.961852
0.958533
0.953141
0.951373
0.951987
0.953151
0.954426
0.956807
0.964701
0.972079
0.975297
0.977371
0.979138
0.980536
0.980357
0.975199
0.970045
0.968762
0.969554
0.970924
0.972949
0.979445
0.988311
0.992866
0.995337
0.997482
0.99911
1.00019
0.997588
0.990825
0.986813
0.986429
0.987591
0.989375
0.994318
1.00424
1.01093
1.01411
1.01661
1.01859
1.01993
1.01847
1.01111
1.00466
1.00257
1.00308
1.00456
1.00906
1.01939
1.02762
1.03152
1.03362
1.03495
1.03559
1.0334
1.02466
1.01652
1.01347
1.01317
1.01462
1.02253
1.03149
1.03593
1.04791
1.20962
1.64496
0.905354
0.908209
0.914738
0.921246
0.923915
0.925275
0.926228
0.926582
0.923282
0.919973
0.919675
0.920278
0.921109
0.92218
0.923758
0.928814
0.936896
0.941115
0.942971
0.944281
0.945216
0.943715
0.938988
0.936924
0.937052
0.937546
0.938433
0.939761
0.943577
0.952289
0.958066
0.960377
0.961614
0.962579
0.963587
0.961199
0.956042
0.954184
0.95428
0.954753
0.95584
0.958294
0.966504
0.974596
0.978096
0.979686
0.980682
0.982005
0.982668
0.978515
0.97321
0.971643
0.971727
0.972366
0.973948
0.980159
0.990084
0.995709
0.997981
0.999206
1.00044
1.0019
1.00062
0.99416
0.989713
0.988704
0.988832
0.989872
0.993818
1.00437
1.01315
1.01686
1.01855
1.01974
1.02102
1.02068
1.0144
1.00728
1.00447
1.0043
1.00514
1.00824
1.01825
1.02782
1.03256
1.03453
1.03541
1.03582
1.03435
1.02655
1.01751
1.01316
1.0121
1.01291
1.02109
1.02921
1.04503
1.22015
1.64727
0.906523
0.908408
0.910478
0.917825
0.923894
0.926415
0.927742
0.928694
0.928595
0.92455
0.921453
0.921372
0.922332
0.923418
0.924434
0.92581
0.931101
0.939195
0.943216
0.945081
0.946528
0.947676
0.946192
0.940881
0.938185
0.938439
0.939511
0.940675
0.941873
0.945484
0.954078
0.959571
0.961866
0.963644
0.96516
0.966142
0.963674
0.958012
0.955338
0.955586
0.956689
0.958008
0.960246
0.967712
0.975485
0.979065
0.981265
0.98314
0.984571
0.985113
0.981078
0.97494
0.972529
0.972971
0.974265
0.976051
0.981217
0.990444
0.996043
0.998909
1.00135
1.00316
1.00448
1.00327
0.996556
0.990806
0.989298
0.990116
0.991686
0.995084
1.00435
1.01293
1.01699
1.01949
1.02163
1.02308
1.02294
1.01684
1.00879
1.00503
1.00471
1.00573
1.00852
1.01769
1.02755
1.03257
1.03459
1.03553
1.03608
1.03516
1.02834
1.0186
1.01261
1.0105
1.0114
1.01884
1.03802
1.228
1.6486
0.907483
0.909256
0.910113
0.912932
0.920399
0.926213
0.928722
0.930196
0.931271
0.930772
0.926409
0.923831
0.923847
0.924342
0.92507
0.926151
0.927887
0.93365
0.941557
0.945449
0.947191
0.948337
0.949319
0.948321
0.943579
0.941014
0.940941
0.94133
0.942151
0.943462