/*--------------------------------*- C++ -*----------------------------------*\
  =========                 |
  \\      /  F ield         | OpenFOAM: The Open Source CFD Toolbox
   \\    /   O peration     | Website:  https://openfoam.org
    \\  /    A nd           | Version:  12
     \\/     M anipulation  |
\*---------------------------------------------------------------------------*/
FoamFile
{
    format      ascii;
    class       volVectorField;
    location    "10.7";
    object      U;
}
// * * * * * * * * * * * * * * * * * * * * * * * * * * * * * * * * * * * * * //

dimensions      [0 1 -1 0 0 0 0];

internalField   nonuniform List<vector> 
9801
(
(1.16705 -0.0679555 0)
(1.16133 -0.0639062 0)
(1.15746 -0.0612834 0)
(1.15418 -0.0584591 0)
(1.15118 -0.0564753 0)
(1.1488 -0.0542845 0)
(1.14962 -0.0517907 0)
(1.15503 -0.0491308 0)
(1.15802 -0.0465677 0)
(1.15701 -0.0442176 0)
(1.15404 -0.0422229 0)
(1.14948 -0.0401301 0)
(1.14425 -0.0377252 0)
(1.13994 -0.0348603 0)
(1.13651 -0.0321481 0)
(1.13333 -0.0301889 0)
(1.1303 -0.0284844 0)
(1.12953 -0.0263191 0)
(1.13418 -0.0238541 0)
(1.13793 -0.02143 0)
(1.13738 -0.0192994 0)
(1.1345 -0.0175453 0)
(1.12997 -0.0158117 0)
(1.12423 -0.0137806 0)
(1.11944 -0.0111402 0)
(1.1157 -0.00857358 0)
(1.11229 -0.00679285 0)
(1.10892 -0.00554487 0)
(1.10694 -0.00389389 0)
(1.11088 -0.00181963 0)
(1.11535 0.000415405 0)
(1.11504 0.00234235 0)
(1.11198 0.00376778 0)
(1.10692 0.00517515 0)
(1.09971 0.00683587 0)
(1.09401 0.00921905 0)
(1.0898 0.0115264 0)
(1.08613 0.0129915 0)
(1.08247 0.0138439 0)
(1.07998 0.0152474 0)
(1.08471 0.0170169 0)
(1.09024 0.0190571 0)
(1.08967 0.0207296 0)
(1.08584 0.0215969 0)
(1.07921 0.0225909 0)
(1.06977 0.023753 0)
(1.06276 0.025739 0)
(1.0579 0.0277413 0)
(1.0536 0.0290623 0)
(1.04952 0.0297155 0)
(1.04701 0.0305477 0)
(1.05311 0.0321918 0)
(1.0591 0.0340186 0)
(1.0578 0.0352823 0)
(1.05323 0.0358349 0)
(1.04437 0.0363446 0)
(1.03229 0.0369103 0)
(1.02393 0.0383862 0)
(1.01821 0.0400219 0)
(1.01329 0.0411931 0)
(1.00855 0.0417354 0)
(1.00717 0.0425749 0)
(1.01476 0.0438571 0)
(1.01943 0.0447929 0)
(1.01725 0.0452303 0)
(1.01189 0.0454449 0)
(0.999928 0.0455874 0)
(0.984039 0.0457403 0)
(0.973535 0.0473098 0)
(0.966781 0.0493594 0)
(0.961419 0.0506863 0)
(0.95639 0.0515836 0)
(0.958735 0.0524941 0)
(0.967911 0.0523781 0)
(0.969594 0.0527656 0)
(0.965663 0.0539934 0)
(0.958035 0.0555285 0)
(0.939856 0.0571428 0)
(0.918169 0.058707 0)
(0.904173 0.0611325 0)
(0.895472 0.0622739 0)
(0.888325 0.0626104 0)
(0.888125 0.0614462 0)
(0.900793 0.0611468 0)
(0.904151 0.0628255 0)
(0.898147 0.0653346 0)
(0.888955 0.0679158 0)
(0.873204 0.0701785 0)
(0.842065 0.0702578 0)
(0.810377 0.0690533 0)
(0.791091 0.0652818 0)
(0.779245 0.0618899 0)
(0.778923 0.0583765 0)
(0.787525 0.0562011 0)
(0.779055 0.0510699 0)
(0.752186 0.0434309 0)
(0.71376 0.0271844 0)
(0.260667 -0.0610743 0)
(-0.738327 -0.04217 0)
(1.24576 -0.118831 0)
(1.23772 -0.114523 0)
(1.23131 -0.111464 0)
(1.22648 -0.108991 0)
(1.22252 -0.106937 0)
(1.21909 -0.104891 0)
(1.21994 -0.10203 0)
(1.22411 -0.0990902 0)
(1.22378 -0.0960356 0)
(1.22069 -0.0931052 0)
(1.21663 -0.0907971 0)
(1.21234 -0.0887347 0)
(1.20509 -0.0858152 0)
(1.19758 -0.0826295 0)
(1.19212 -0.0797947 0)
(1.18778 -0.0775464 0)
(1.18404 -0.0757015 0)
(1.18264 -0.0731667 0)
(1.18673 -0.0700748 0)
(1.18794 -0.0671184 0)
(1.18529 -0.0644691 0)
(1.18143 -0.0624337 0)
(1.17718 -0.0607042 0)
(1.1698 -0.0581928 0)
(1.16131 -0.0550854 0)
(1.15531 -0.0522433 0)
(1.15059 -0.0499112 0)
(1.14661 -0.0481792 0)
(1.1441 -0.0460531 0)
(1.14745 -0.0430145 0)
(1.14984 -0.039934 0)
(1.14765 -0.0372764 0)
(1.1438 -0.035322 0)
(1.13956 -0.0338333 0)
(1.13153 -0.0317534 0)
(1.12201 -0.0289791 0)
(1.11551 -0.026306 0)
(1.11051 -0.0241649 0)
(1.10627 -0.0226535 0)
(1.10305 -0.020846 0)
(1.10602 -0.017762 0)
(1.10949 -0.014218 0)
(1.10767 -0.0114264 0)
(1.10372 -0.00973378 0)
(1.09932 -0.00862356 0)
(1.08952 -0.00701506 0)
(1.07887 -0.0046189 0)
(1.07192 -0.00208625 0)
(1.06659 -0.000122267 0)
(1.06215 0.00120366 0)
(1.05902 0.00279646 0)
(1.0627 0.00597451 0)
(1.06683 0.00962074 0)
(1.06487 0.0123027 0)
(1.06068 0.0135791 0)
(1.05533 0.0144274 0)
(1.04316 0.0154193 0)
(1.03167 0.0173676 0)
(1.02431 0.0197949 0)
(1.01848 0.0218276 0)
(1.01328 0.02297 0)
(1.01086 0.0243137 0)
(1.01702 0.027667 0)
(1.02068 0.0310233 0)
(1.018 0.033491 0)
(1.01325 0.0346099 0)
(1.0054 0.0355628 0)
(0.989686 0.0359172 0)
(0.976573 0.0370221 0)
(0.968724 0.0386173 0)
(0.962756 0.0396308 0)
(0.957389 0.0403009 0)
(0.959496 0.0426098 0)
(0.967923 0.0468107 0)
(0.968347 0.0504567 0)
(0.963804 0.0523027 0)
(0.957513 0.0534453 0)
(0.94432 0.0534802 0)
(0.922232 0.0516714 0)
(0.906619 0.0512898 0)
(0.897066 0.052017 0)
(0.889754 0.0518812 0)
(0.887865 0.0536563 0)
(0.896048 0.0584412 0)
(0.89932 0.065253 0)
(0.894751 0.0697631 0)
(0.886642 0.0705499 0)
(0.874367 0.0692127 0)
(0.846938 0.0641971 0)
(0.81332 0.0580279 0)
(0.790175 0.0552777 0)
(0.775394 0.0531267 0)
(0.767194 0.0546468 0)
(0.768775 0.0621772 0)
(0.760336 0.0611515 0)
(0.738496 0.0561242 0)
(0.710604 0.0448946 0)
(0.261834 -0.0595098 0)
(-0.749377 -0.049589 0)
(1.24118 -0.1152 0)
(1.23356 -0.111249 0)
(1.22682 -0.10871 0)
(1.22192 -0.106404 0)
(1.21779 -0.103996 0)
(1.21433 -0.101749 0)
(1.21498 -0.0987437 0)
(1.21893 -0.0957067 0)
(1.21887 -0.0930746 0)
(1.21605 -0.0904426 0)
(1.21209 -0.0879134 0)
(1.20764 -0.0854933 0)
(1.20088 -0.0828948 0)
(1.19344 -0.0805699 0)
(1.18791 -0.0780535 0)
(1.18337 -0.0754277 0)
(1.17953 -0.0731513 0)
(1.17804 -0.0704408 0)
(1.18206 -0.0673038 0)
(1.18347 -0.0645517 0)
(1.18106 -0.0621363 0)
(1.17724 -0.059985 0)
(1.17282 -0.0580017 0)
(1.16579 -0.0557763 0)
(1.15749 -0.0537199 0)
(1.15151 -0.0513881 0)
(1.14661 -0.0487213 0)
(1.14251 -0.0463748 0)
(1.13984 -0.0439311 0)
(1.14318 -0.0407878 0)
(1.14593 -0.0379007 0)
(1.14401 -0.0354821 0)
(1.14022 -0.0334382 0)
(1.13578 -0.0317019 0)
(1.12801 -0.0298277 0)
(1.11872 -0.0282309 0)
(1.11226 -0.0263547 0)
(1.10701 -0.0240092 0)
(1.10256 -0.0217337 0)
(1.09912 -0.0195305 0)
(1.10192 -0.016212 0)
(1.10621 -0.0127864 0)
(1.10482 -0.0101365 0)
(1.10091 -0.00815858 0)
(1.09628 -0.00662123 0)
(1.08695 -0.00528991 0)
(1.07651 -0.00459172 0)
(1.06955 -0.00319033 0)
(1.0639 -0.00101654 0)
(1.05918 0.00111793 0)
(1.05552 0.00320167 0)
(1.05877 0.00691669 0)
(1.06388 0.010784 0)
(1.06251 0.0135998 0)
(1.0584 0.0153679 0)
(1.05315 0.0167046 0)
(1.04161 0.0170486 0)
(1.02957 0.0168323 0)
(1.02169 0.0181381 0)
(1.0155 0.0202215 0)
(1.01036 0.0221574 0)
(1.00757 0.0242824 0)
(1.0133 0.0283593 0)
(1.01787 0.0325066 0)
(1.01588 0.0353544 0)
(1.01127 0.0368719 0)
(1.00432 0.0379082 0)
(0.988931 0.036624 0)
(0.974027 0.0355318 0)
(0.965216 0.0364558 0)
(0.958877 0.0380962 0)
(0.953366 0.0394845 0)
(0.954231 0.0427634 0)
(0.962414 0.0485848 0)
(0.964053 0.0532973 0)
(0.959875 0.0560529 0)
(0.953998 0.0568118 0)
(0.943022 0.0560452 0)
(0.920403 0.0512584 0)
(0.902411 0.0481598 0)
(0.892166 0.0485799 0)
(0.884534 0.0492405 0)
(0.879668 0.051235 0)
(0.884922 0.0579945 0)
(0.890624 0.0634486 0)
(0.887952 0.0641961 0)
(0.880616 0.0638387 0)
(0.870155 0.0644133 0)
(0.845637 0.0620497 0)
(0.811592 0.0542645 0)
(0.786866 0.0467584 0)
(0.770623 0.0436615 0)
(0.759339 0.0409532 0)
(0.756938 0.0380217 0)
(0.751589 0.0316461 0)
(0.733889 0.0253024 0)
(0.717926 0.0211138 0)
(0.269004 -0.0657221 0)
(-0.751872 -0.0380066 0)
(1.23182 -0.113723 0)
(1.22497 -0.110192 0)
(1.21771 -0.107167 0)
(1.21277 -0.104984 0)
(1.2087 -0.102628 0)
(1.20535 -0.100179 0)
(1.20602 -0.0969879 0)
(1.20962 -0.0939753 0)
(1.20942 -0.091478 0)
(1.2068 -0.0891229 0)
(1.2032 -0.0867792 0)
(1.19894 -0.084463 0)
(1.19279 -0.0818337 0)
(1.18485 -0.0793022 0)
(1.17944 -0.0768964 0)
(1.17513 -0.0744205 0)
(1.17142 -0.0719724 0)
(1.17018 -0.0690338 0)
(1.17398 -0.0660461 0)
(1.17526 -0.0635551 0)
(1.17299 -0.0613643 0)
(1.16938 -0.0593189 0)
(1.1651 -0.0573326 0)
(1.15849 -0.0549054 0)
(1.14971 -0.052555 0)
(1.14385 -0.050288 0)
(1.13926 -0.0478706 0)
(1.13528 -0.0454672 0)
(1.13289 -0.0427189 0)
(1.1362 -0.03965 0)
(1.13882 -0.0370448 0)
(1.13702 -0.0348723 0)
(1.13343 -0.03298 0)
(1.12914 -0.0312945 0)
(1.12178 -0.0291376 0)
(1.11193 -0.0269436 0)
(1.10548 -0.0248034 0)
(1.10057 -0.0224958 0)
(1.09629 -0.0201935 0)
(1.0931 -0.0178373 0)
(1.09589 -0.0149308 0)
(1.10015 -0.0121472 0)
(1.09894 -0.00993261 0)
(1.09525 -0.00819758 0)
(1.09083 -0.00691391 0)
(1.08243 -0.00550203 0)
(1.07089 -0.00403497 0)
(1.06343 -0.001877 0)
(1.05807 0.000548673 0)
(1.05345 0.00281964 0)
(1.04977 0.00501214 0)
(1.05263 0.00809658 0)
(1.0581 0.0112399 0)
(1.05732 0.0136348 0)
(1.05349 0.0152882 0)
(1.04878 0.0163234 0)
(1.03883 0.0168152 0)
(1.02492 0.0167934 0)
(1.01595 0.0184422 0)
(1.00975 0.020714 0)
(1.00458 0.0228571 0)
(1.00132 0.0251352 0)
(1.00609 0.0289125 0)
(1.01162 0.0325838 0)
(1.01042 0.034935 0)
(1.00611 0.0363069 0)
(1.00053 0.0371409 0)
(0.987259 0.036446 0)
(0.969626 0.0344569 0)
(0.959138 0.0349042 0)
(0.952302 0.0366863 0)
(0.946424 0.0381886 0)
(0.944732 0.0410936 0)
(0.952058 0.0470246 0)
(0.955646 0.0513389 0)
(0.952602 0.05329 0)
(0.947115 0.0542454 0)
(0.939073 0.055081 0)
(0.919303 0.0519047 0)
(0.897251 0.0462822 0)
(0.884363 0.0448066 0)
(0.876217 0.045762 0)
(0.869488 0.0468606 0)
(0.870172 0.0513868 0)
(0.876534 0.0596037 0)
(0.875638 0.0655019 0)
(0.869305 0.0681696 0)
(0.860789 0.0684805 0)
(0.84383 0.0657852 0)
(0.812439 0.0539682 0)
(0.783447 0.0417491 0)
(0.764143 0.0354167 0)
(0.750396 0.0340815 0)
(0.741149 0.0330456 0)
(0.737296 0.026663 0)
(0.725709 0.0179591 0)
(0.718768 0.0137387 0)
(0.281638 -0.0584475 0)
(-0.755063 -0.0333017 0)
(1.22231 -0.109772 0)
(1.21577 -0.106476 0)
(1.20833 -0.10319 0)
(1.20327 -0.101027 0)
(1.19926 -0.0990197 0)
(1.19594 -0.0968163 0)
(1.19697 -0.0934887 0)
(1.20063 -0.0903343 0)
(1.20031 -0.0877844 0)
(1.19769 -0.0854297 0)
(1.19424 -0.0831823 0)
(1.19014 -0.0809889 0)
(1.18452 -0.0783454 0)
(1.1764 -0.0757071 0)
(1.17071 -0.0736652 0)
(1.16643 -0.0718193 0)
(1.16268 -0.0699311 0)
(1.16162 -0.0668901 0)
(1.16567 -0.0632134 0)
(1.167 -0.06045 0)
(1.16476 -0.05829 0)
(1.16128 -0.0563334 0)
(1.15716 -0.0543676 0)
(1.15119 -0.0519569 0)
(1.14231 -0.0497444 0)
(1.13594 -0.047905 0)
(1.13127 -0.0461036 0)
(1.12724 -0.0443499 0)
(1.12484 -0.0417485 0)
(1.12829 -0.0379127 0)
(1.13107 -0.0347059 0)
(1.12945 -0.0324291 0)
(1.12608 -0.0305624 0)
(1.122 -0.0288364 0)
(1.11542 -0.0267472 0)
(1.10529 -0.0250992 0)
(1.0983 -0.0234951 0)
(1.09327 -0.0217454 0)
(1.08895 -0.0200572 0)
(1.08577 -0.0180157 0)
(1.08849 -0.0148654 0)
(1.09264 -0.0115823 0)
(1.09174 -0.0088861 0)
(1.08845 -0.00664336 0)
(1.08431 -0.00478185 0)
(1.07713 -0.00292973 0)
(1.06497 -0.00245108 0)
(1.05644 -0.00146378 0)
(1.05098 0.000249381 0)
(1.04631 0.00203524 0)
(1.04266 0.00415157 0)
(1.04517 0.00733514 0)
(1.05049 0.0108256 0)
(1.05023 0.0137443 0)
(1.04694 0.016081 0)
(1.0426 0.0178843 0)
(1.03499 0.01934 0)
(1.02038 0.0181015 0)
(1.00919 0.0176459 0)
(1.00271 0.0192432 0)
(0.997501 0.0210943 0)
(0.993715 0.0234133 0)
(0.996905 0.0278639 0)
(1.00297 0.0327461 0)
(1.00273 0.035789 0)
(0.998943 0.0378005 0)
(0.994071 0.0389398 0)
(0.984941 0.0390997 0)
(0.966695 0.0353358 0)
(0.952657 0.0328524 0)
(0.944769 0.033925 0)
(0.938598 0.0355775 0)
(0.934479 0.0380493 0)
(0.939125 0.0446012 0)
(0.945113 0.0517011 0)
(0.943755 0.0547917 0)
(0.938808 0.0555665 0)
(0.932761 0.0556105 0)
(0.91929 0.0534254 0)
(0.89535 0.0463264 0)
(0.877706 0.0414713 0)
(0.867907 0.0410525 0)
(0.860699 0.0417599 0)
(0.856819 0.0443068 0)
(0.861633 0.0521825 0)
(0.864316 0.0599464 0)
(0.859725 0.063284 0)
(0.851776 0.0638022 0)
(0.840567 0.0629401 0)
(0.816673 0.0547609 0)
(0.785995 0.0399274 0)
(0.762351 0.0282337 0)
(0.747755 0.0230446 0)
(0.737482 0.0199442 0)
(0.735704 0.0117999 0)
(0.73244 0.00267882 0)
(0.730246 5.23327e-05 0)
(0.291777 -0.045463 0)
(-0.757996 -0.0296029 0)
(1.21381 -0.107775 0)
(1.20738 -0.104399 0)
(1.20002 -0.100681 0)
(1.1949 -0.0983542 0)
(1.19084 -0.0964144 0)
(1.18748 -0.0944588 0)
(1.18862 -0.0914156 0)
(1.19251 -0.0883383 0)
(1.19227 -0.0858003 0)
(1.18977 -0.0834188 0)
(1.18643 -0.0811497 0)
(1.18246 -0.0790463 0)
(1.17725 -0.076574 0)
(1.16922 -0.0738407 0)
(1.16313 -0.0716443 0)
(1.15865 -0.069724 0)
(1.15488 -0.0681023 0)
(1.15335 -0.0656228 0)
(1.15765 -0.0619825 0)
(1.15946 -0.058921 0)
(1.15745 -0.0565401 0)
(1.15414 -0.0544428 0)
(1.15017 -0.0525473 0)
(1.14493 -0.0505854 0)
(1.13608 -0.0488531 0)
(1.12886 -0.0469781 0)
(1.12388 -0.0448287 0)
(1.11982 -0.0428033 0)
(1.11702 -0.0404283 0)
(1.12026 -0.0364226 0)
(1.12392 -0.0327326 0)
(1.1228 -0.0303149 0)
(1.11962 -0.0285185 0)
(1.1157 -0.0270998 0)
(1.11019 -0.025797 0)
(1.10008 -0.0254339 0)
(1.09175 -0.0243602 0)
(1.08623 -0.0220365 0)
(1.08175 -0.0195503 0)
(1.07837 -0.0169712 0)
(1.08061 -0.012721 0)
(1.08533 -0.00848104 0)
(1.08511 -0.00573073 0)
(1.08216 -0.00375616 0)
(1.07821 -0.00242307 0)
(1.0727 -0.0013954 0)
(1.06107 -0.00189681 0)
(1.05042 -0.00232457 0)
(1.04414 -0.00109683 0)
(1.03925 0.000834624 0)
(1.03533 0.00319057 0)
(1.03693 0.00762711 0)
(1.04255 0.0127725 0)
(1.04313 0.0160699 0)
(1.04031 0.018334 0)
(1.03623 0.0199307 0)
(1.03085 0.02092 0)
(1.01797 0.0195649 0)
(1.00384 0.0175336 0)
(0.995772 0.0177605 0)
(0.990414 0.0192233 0)
(0.985965 0.0210735 0)
(0.986907 0.0256976 0)
(0.993785 0.0325923 0)
(0.995228 0.036632 0)
(0.99198 0.038311 0)
(0.987394 0.039126 0)
(0.981279 0.0395218 0)
(0.965928 0.036811 0)
(0.948122 0.0330148 0)
(0.93783 0.0321599 0)
(0.931394 0.0333359 0)
(0.926082 0.0348917 0)
(0.92648 0.0397311 0)
(0.934203 0.0487956 0)
(0.936071 0.0545071 0)
(0.932089 0.0561152 0)
(0.926503 0.0562693 0)
(0.917857 0.0557872 0)
(0.897354 0.0494645 0)
(0.875606 0.0417956 0)
(0.862585 0.0378258 0)
(0.854326 0.0371305 0)
(0.847801 0.0379251 0)
(0.847927 0.0430993 0)
(0.852656 0.0521803 0)
(0.851283 0.0585972 0)
(0.844609 0.0616017 0)
(0.835898 0.0619898 0)
(0.821399 0.0584089 0)
(0.795878 0.0448071 0)
(0.769127 0.0284114 0)
(0.749749 0.0169231 0)
(0.738157 0.0120558 0)
(0.734081 0.0055063 0)
(0.736206 -0.00329929 0)
(0.737658 -0.00697438 0)
(0.299757 -0.0357212 0)
(-0.760833 -0.0262545 0)
(1.20779 -0.104821 0)
(1.20098 -0.10171 0)
(1.19338 -0.0984485 0)
(1.18816 -0.0962597 0)
(1.18411 -0.0941902 0)
(1.18084 -0.0919823 0)
(1.18205 -0.088496 0)
(1.18632 -0.0849862 0)
(1.18629 -0.0824773 0)
(1.18378 -0.0803587 0)
(1.18042 -0.078374 0)
(1.17648 -0.0765394 0)
(1.17146 -0.0744881 0)
(1.16342 -0.0722393 0)
(1.15699 -0.0701221 0)
(1.15247 -0.0679058 0)
(1.14871 -0.0658891 0)
(1.14689 -0.0632133 0)
(1.15091 -0.0595664 0)
(1.15324 -0.056493 0)
(1.15162 -0.0540475 0)
(1.14848 -0.0519298 0)
(1.14464 -0.0501541 0)
(1.14007 -0.0485065 0)
(1.13154 -0.0471266 0)
(1.12309 -0.0456912 0)
(1.11781 -0.0434983 0)
(1.11375 -0.0411791 0)
(1.11069 -0.0386684 0)
(1.11315 -0.0348085 0)
(1.11756 -0.0311013 0)
(1.11714 -0.0286695 0)
(1.11428 -0.0267776 0)
(1.11051 -0.0251886 0)
(1.10611 -0.023837 0)
(1.09719 -0.0233418 0)
(1.0865 -0.023087 0)
(1.0799 -0.0212796 0)
(1.07535 -0.0187703 0)
(1.07176 -0.0162623 0)
(1.07293 -0.0121881 0)
(1.07832 -0.00751649 0)
(1.07907 -0.00466904 0)
(1.07653 -0.00284614 0)
(1.07271 -0.00138231 0)
(1.06836 -0.0003787 0)
(1.05944 -0.000525768 0)
(1.04673 -0.00175366 0)
(1.03822 -0.00107348 0)
(1.03287 0.000974864 0)
(1.02852 0.00295217 0)
(1.02823 0.00692554 0)
(1.03459 0.013337 0)
(1.03681 0.0173977 0)
(1.03444 0.0191672 0)
(1.03052 0.0203439 0)
(1.02609 0.0209119 0)
(1.01696 0.0206353 0)
(1.00154 0.0180396 0)
(0.990628 0.0173121 0)
(0.984169 0.0184674 0)
(0.979208 0.0199236 0)
(0.976911 0.0230187 0)
(0.983649 0.030731 0)
(0.988599 0.0374527 0)
(0.986662 0.0398854 0)
(0.982204 0.0403481 0)
(0.977128 0.0405021 0)
(0.965892 0.0392686 0)
(0.947112 0.0343541 0)
(0.933834 0.0316987 0)
(0.926053 0.0313063 0)
(0.920338 0.0319969 0)
(0.916517 0.0341848 0)
(0.921993 0.0422089 0)
(0.928363 0.0514438 0)
(0.92697 0.0557856 0)
(0.921893 0.0569878 0)
(0.915669 0.0571671 0)
(0.902463 0.0540489 0)
(0.879557 0.0431914 0)
(0.861466 0.0358486 0)
(0.850548 0.0335573 0)
(0.84325 0.0333186 0)
(0.838608 0.0349694 0)
(0.841534 0.0421518 0)
(0.844063 0.0498739 0)
(0.84095 0.0536745 0)
(0.834235 0.0550107 0)
(0.824863 0.0550909 0)
(0.80757 0.0493409 0)
(0.782788 0.0335818 0)
(0.759488 0.0165081 0)
(0.742833 0.005722 0)
(0.735085 -0.000566197 0)
(0.737639 -0.0109645 0)
(0.742705 -0.0144222 0)
(0.304781 -0.0264335 0)
(-0.763856 -0.0240452 0)
(1.20352 -0.101805 0)
(1.19666 -0.0989058 0)
(1.18878 -0.0960778 0)
(1.18333 -0.0941905 0)
(1.17921 -0.0923595 0)
(1.17571 -0.0905655 0)
(1.17628 -0.087104 0)
(1.18115 -0.0826633 0)
(1.18167 -0.0797329 0)
(1.17926 -0.0776398 0)
(1.17595 -0.0757387 0)
(1.1721 -0.073973 0)
(1.16753 -0.0721082 0)
(1.15961 -0.0702112 0)
(1.1524 -0.0683624 0)
(1.14764 -0.0665273 0)
(1.14371 -0.0648344 0)
(1.1415 -0.0622743 0)
(1.14532 -0.0579961 0)
(1.14816 -0.0545058 0)
(1.14679 -0.0522536 0)
(1.14383 -0.0502718 0)
(1.14018 -0.0484537 0)
(1.13611 -0.0468043 0)
(1.12882 -0.045214 0)
(1.1191 -0.0438938 0)
(1.11307 -0.0422632 0)
(1.10874 -0.0406484 0)
(1.1053 -0.0387184 0)
(1.107 -0.0347302 0)
(1.11209 -0.0301265 0)
(1.11237 -0.0271909 0)
(1.10965 -0.0252528 0)
(1.10601 -0.0236421 0)
(1.10194 -0.0222239 0)
(1.0952 -0.0209916 0)
(1.08351 -0.0208937 0)
(1.0751 -0.0198855 0)
(1.07016 -0.0184484 0)
(1.06611 -0.0169991 0)
(1.06575 -0.0133869 0)
(1.07181 -0.00727516 0)
(1.07421 -0.0033104 0)
(1.07205 -0.00152352 0)
(1.06839 -0.000373641 0)
(1.06429 0.000597775 0)
(1.05799 0.00135643 0)
(1.04496 -5.74721e-05 0)
(1.03393 -2.84418e-05 0)
(1.02744 0.00141007 0)
(1.02283 0.00321706 0)
(1.02035 0.0061164 0)
(1.02585 0.0126718 0)
(1.03124 0.0186103 0)
(1.03034 0.0209364 0)
(1.02665 0.0217686 0)
(1.02238 0.0221076 0)
(1.01602 0.0220126 0)
(1.00116 0.0192537 0)
(0.987528 0.0173418 0)
(0.979392 0.0178646 0)
(0.973932 0.0191672 0)
(0.969659 0.0209976 0)
(0.972674 0.0267576 0)
(0.981252 0.0356174 0)
(0.982379 0.0403342 0)
(0.978652 0.041745 0)
(0.973908 0.0420436 0)
(0.966645 0.0416369 0)
(0.949897 0.0364774 0)
(0.933106 0.0307814 0)
(0.92291 0.0293913 0)
(0.916031 0.029819 0)
(0.910528 0.0308222 0)
(0.909798 0.0353198 0)
(0.917931 0.0462564 0)
(0.921465 0.0541142 0)
(0.918343 0.0572579 0)
(0.912866 0.0579374 0)
(0.905527 0.0575872 0)
(0.888002 0.050936 0)
(0.864915 0.0389145 0)
(0.850088 0.0326255 0)
(0.841115 0.0303657 0)
(0.834354 0.0297576 0)
(0.831968 0.0325275 0)
(0.835223 0.0408302 0)
(0.835184 0.0475253 0)
(0.830621 0.0503464 0)
(0.823399 0.0507329 0)
(0.813512 0.0487652 0)
(0.796972 0.0394702 0)
(0.774385 0.0215979 0)
(0.753301 0.00454811 0)
(0.739336 -0.00615917 0)
(0.73685 -0.016535 0)
(0.743464 -0.0222189 0)
(0.309454 -0.0185392 0)
(-0.766133 -0.0218279 0)
(1.20051 -0.0984702 0)
(1.1943 -0.0958766 0)
(1.18639 -0.0934596 0)
(1.18042 -0.0918351 0)
(1.17605 -0.0900486 0)
(1.17237 -0.088456 0)
(1.17137 -0.0855687 0)
(1.17649 -0.08069 0)
(1.17824 -0.0770994 0)
(1.17618 -0.0749297 0)
(1.17301 -0.0730984 0)
(1.1693 -0.0713872 0)
(1.16511 -0.0696911 0)
(1.15768 -0.0679789 0)
(1.1496 -0.066437 0)
(1.14431 -0.0646646 0)
(1.14022 -0.062952 0)
(1.13719 -0.0609086 0)
(1.14012 -0.0565617 0)
(1.14426 -0.0521337 0)
(1.14345 -0.0496263 0)
(1.14063 -0.0478112 0)
(1.13714 -0.0461387 0)
(1.13323 -0.0446495 0)
(1.12701 -0.0431143 0)
(1.11696 -0.0420779 0)
(1.10989 -0.0407405 0)
(1.10527 -0.0391342 0)
(1.10143 -0.03767 0)
(1.10127 -0.0345273 0)
(1.10683 -0.0293083 0)
(1.10826 -0.0257797 0)
(1.10588 -0.0235981 0)
(1.10245 -0.021735 0)
(1.09855 -0.0201951 0)
(1.09322 -0.0188113 0)
(1.08194 -0.0185749 0)
(1.07245 -0.0183593 0)
(1.06691 -0.0172594 0)
(1.0626 -0.0160707 0)
(1.05996 -0.0140631 0)
(1.06492 -0.00889167 0)
(1.06958 -0.00367723 0)
(1.0683 -0.00107371 0)
(1.06488 0.000668496 0)
(1.0609 0.00202839 0)
(1.05594 0.00327572 0)
(1.04431 0.00314875 0)
(1.0316 0.00200554 0)
(1.02412 0.00258902 0)
(1.01922 0.00356164 0)
(1.01512 0.00462436 0)
(1.01703 0.00864634 0)
(1.02518 0.0161287 0)
(1.02678 0.0205827 0)
(1.02366 0.0222707 0)
(1.01949 0.0229391 0)
(1.01431 0.0238362 0)
(1.00215 0.0229086 0)
(0.986313 0.0195836 0)
(0.97661 0.0185615 0)
(0.970503 0.0190669 0)
(0.965568 0.0196647 0)
(0.963721 0.0221571 0)
(0.97169 0.0310676 0)
(0.977432 0.039167 0)
(0.97572 0.0424851 0)
(0.971381 0.0433635 0)
(0.966072 0.0434868 0)
(0.954918 0.0408495 0)
(0.935884 0.032824 0)
(0.921738 0.0281866 0)
(0.91322 0.0277666 0)
(0.907176 0.0283016 0)
(0.902503 0.0296454 0)
(0.905933 0.0365999 0)
(0.914043 0.0480847 0)
(0.914959 0.0540935 0)
(0.910702 0.0563914 0)
(0.904803 0.0570561 0)
(0.895028 0.0564127 0)
(0.874986 0.0467594 0)
(0.854257 0.0338066 0)
(0.841087 0.0279954 0)
(0.832881 0.0264067 0)
(0.826709 0.0263387 0)
(0.826264 0.0304848 0)
(0.829088 0.037965 0)
(0.827752 0.0421725 0)
(0.822809 0.0432375 0)
(0.815605 0.0432796 0)
(0.805041 0.0395598 0)
(0.789679 0.028079 0)
(0.769197 0.00937925 0)
(0.748761 -0.00607667 0)
(0.737783 -0.0202157 0)
(0.742812 -0.0341648 0)
(0.311328 -0.012587 0)
(-0.768406 -0.0208895 0)
(1.19808 -0.0953028 0)
(1.1924 -0.0931267 0)
(1.18472 -0.0909697 0)
(1.17809 -0.089615 0)
(1.17351 -0.0879172 0)
(1.16975 -0.0863837 0)
(1.16737 -0.0840889 0)
(1.17156 -0.0793828 0)
(1.17487 -0.0750765 0)
(1.17344 -0.0725075 0)
(1.17043 -0.0705877 0)
(1.16685 -0.0689132 0)
(1.16281 -0.067342 0)
(1.15608 -0.06584 0)
(1.14737 -0.0646742 0)
(1.14156 -0.0632299 0)
(1.13727 -0.0616226 0)
(1.13363 -0.0599866 0)
(1.1345 -0.0561049 0)
(1.14002 -0.0506149 0)
(1.14047 -0.0474109 0)
(1.13789 -0.0455362 0)
(1.13453 -0.0439598 0)
(1.13071 -0.0425803 0)
(1.12537 -0.041166 0)
(1.11537 -0.0404159 0)
(1.10745 -0.0396419 0)
(1.10244 -0.0384357 0)
(1.09836 -0.0372406 0)
(1.09595 -0.0349893 0)
(1.10084 -0.0291826 0)
(1.10447 -0.023975 0)
(1.10296 -0.0215108 0)
(1.09972 -0.0198656 0)
(1.0959 -0.0184798 0)
(1.09139 -0.0172402 0)
(1.08136 -0.016888 0)
(1.07061 -0.0174378 0)
(1.06445 -0.0171007 0)
(1.05985 -0.0162657 0)
(1.05586 -0.0152014 0)
(1.0571 -0.0108093 0)
(1.06389 -0.00315106 0)
(1.06481 0.00111769 0)
(1.06193 0.00294498 0)
(1.05822 0.00427779 0)
(1.05403 0.00534846 0)
(1.04477 0.0054226 0)
(1.03082 0.00332354 0)
(1.0222 0.00240983 0)
(1.01671 0.00256861 0)
(1.01206 0.00321065 0)
(1.00959 0.00547616 0)
(1.01652 0.0134971 0)
(1.02193 0.0208418 0)
(1.02048 0.023682 0)
(1.01685 0.025348 0)
(1.0127 0.0264868 0)
(1.00449 0.0262718 0)
(0.98817 0.0217454 0)
(0.97561 0.0184653 0)
(0.968649 0.0181822 0)
(0.963147 0.0186621 0)
(0.958642 0.0196002 0)
(0.960627 0.0246389 0)
(0.969661 0.0354128 0)
(0.971963 0.0418102 0)
(0.968916 0.0442375 0)
(0.964332 0.0453388 0)
(0.957878 0.0455269 0)
(0.942153 0.0399128 0)
(0.923312 0.0307958 0)
(0.912134 0.0270783 0)
(0.905125 0.0265203 0)
(0.89932 0.0266328 0)
(0.895834 0.028808 0)
(0.901964 0.0390128 0)
(0.908196 0.0505477 0)
(0.906948 0.0557074 0)
(0.901991 0.0574849 0)
(0.895946 0.0572761 0)
(0.885029 0.0541961 0)
(0.8639 0.0421028 0)
(0.844522 0.0299651 0)
(0.832633 0.0248044 0)
(0.82519 0.0229746 0)
(0.819903 0.0230654 0)
(0.820842 0.0282988 0)
(0.822556 0.034859 0)
(0.820299 0.0375688 0)
(0.815627 0.0371172 0)
(0.808779 0.036042 0)
(0.798995 0.0291426 0)
(0.785462 0.0159812 0)
(0.766452 -0.00145041 0)
(0.747072 -0.0158615 0)
(0.742042 -0.045962 0)
(0.307921 -0.0099573 0)
(-0.770579 -0.0200264 0)
(1.19545 -0.0927036 0)
(1.18997 -0.0907084 0)
(1.18322 -0.0885876 0)
(1.17576 -0.0874307 0)
(1.17077 -0.0857704 0)
(1.16688 -0.0841437 0)
(1.16382 -0.0823502 0)
(1.16629 -0.0781701 0)
(1.17101 -0.07328 0)
(1.17046 -0.0703242 0)
(1.16764 -0.068288 0)
(1.16414 -0.0665736 0)
(1.16021 -0.0650749 0)
(1.15455 -0.0637022 0)
(1.14541 -0.0628769 0)
(1.1387 -0.0616685 0)
(1.13414 -0.0601102 0)
(1.13036 -0.0586808 0)
(1.12891 -0.055831 0)
(1.13464 -0.0498642 0)
(1.13736 -0.0453232 0)
(1.13531 -0.0432071 0)
(1.13201 -0.0417196 0)
(1.12824 -0.0404272 0)
(1.12371 -0.0392043 0)
(1.11445 -0.0388073 0)
(1.10521 -0.0386333 0)
(1.09945 -0.0375093 0)
(1.09509 -0.0360212 0)
(1.09154 -0.0344796 0)
(1.09357 -0.029903 0)
(1.09977 -0.0232708 0)
(1.1 -0.0197525 0)
(1.09713 -0.018039 0)
(1.09352 -0.0168074 0)
(1.08953 -0.0158711 0)
(1.0818 -0.0157559 0)
(1.07008 -0.0171604 0)
(1.06196 -0.0171184 0)
(1.05639 -0.0155799 0)
(1.05208 -0.0139749 0)
(1.04969 -0.0114861 0)
(1.05607 -0.00405571 0)
(1.06082 0.00253712 0)
(1.05942 0.00502128 0)
(1.05603 0.00615705 0)
(1.05211 0.00663378 0)
(1.04596 0.00648297 0)
(1.03267 0.00354331 0)
(1.02116 0.00121192 0)
(1.01423 0.00165364 0)
(1.00894 0.00327916 0)
(1.00476 0.00459649 0)
(1.00603 0.00950934 0)
(1.01463 0.0199713 0)
(1.01697 0.0259637 0)
(1.01449 0.0276441 0)
(1.01049 0.0281877 0)
(1.00557 0.0281609 0)
(0.993338 0.024574 0)
(0.977394 0.0183258 0)
(0.96755 0.0160906 0)
(0.961184 0.0167538 0)
(0.955976 0.0178183 0)
(0.952276 0.0197653 0)
(0.957792 0.0288025 0)
(0.965599 0.0402436 0)
(0.965557 0.0449675 0)
(0.961715 0.0462744 0)
(0.956918 0.0465577 0)
(0.949134 0.0454447 0)
(0.931174 0.0363501 0)
(0.914063 0.0270521 0)
(0.903871 0.0243261 0)
(0.896957 0.024628 0)
(0.891577 0.025177 0)
(0.890247 0.0284758 0)
(0.898041 0.0399683 0)
(0.902487 0.0497966 0)
(0.900215 0.0534131 0)
(0.894874 0.0545932 0)
(0.887928 0.0548017 0)
(0.874975 0.0511863 0)
(0.853853 0.0378223 0)
(0.836194 0.0256116 0)
(0.824978 0.0205594 0)
(0.818043 0.0189687 0)
(0.813886 0.0197693 0)
(0.816099 0.025589 0)
(0.817575 0.0304682 0)
(0.815214 0.031362 0)
(0.810703 0.0303195 0)
(0.804544 0.0276086 0)
(0.79603 0.0185251 0)
(0.783611 0.00570763 0)
(0.764703 -0.0112318 0)
(0.746637 -0.0433143 0)
(0.299977 -0.0137349 0)
(-0.772734 -0.0196378 0)
(1.19272 -0.0904906 0)
(1.18724 -0.0884982 0)
(1.18171 -0.0864075 0)
(1.17362 -0.0851747 0)
(1.16807 -0.0836065 0)
(1.16399 -0.0818952 0)
(1.16055 -0.0803062 0)
(1.161 -0.0768631 0)
(1.16655 -0.0716714 0)
(1.16737 -0.0682421 0)
(1.16491 -0.066127 0)
(1.16155 -0.0643978 0)
(1.1577 -0.0629265 0)
(1.15301 -0.0615795 0)
(1.14409 -0.0609036 0)
(1.13614 -0.0600712 0)
(1.13113 -0.0585796 0)
(1.12718 -0.0570606 0)
(1.12424 -0.0551787 0)
(1.12801 -0.0500434 0)
(1.13338 -0.0442293 0)
(1.13266 -0.0412338 0)
(1.12958 -0.0396172 0)
(1.12592 -0.0383164 0)
(1.12189 -0.037168 0)
(1.11424 -0.0367774 0)
(1.10369 -0.037295 0)
(1.09665 -0.0365039 0)
(1.09182 -0.0349399 0)
(1.08793 -0.0335355 0)
(1.08663 -0.0305457 0)
(1.09338 -0.0235957 0)
(1.0968 -0.0183882 0)
(1.09473 -0.0163428 0)
(1.09126 -0.0152004 0)
(1.08743 -0.0142921 0)
(1.08204 -0.0137491 0)
(1.07046 -0.0151744 0)
(1.05993 -0.0158817 0)
(1.05351 -0.0146684 0)
(1.04889 -0.0130743 0)
(1.04505 -0.0114526 0)
(1.04718 -0.00677731 0)
(1.05554 0.00145005 0)
(1.05707 0.00588537 0)
(1.05409 0.00714786 0)
(1.05027 0.00777615 0)
(1.04592 0.00829822 0)
(1.03576 0.00647535 0)
(1.02167 0.00286663 0)
(1.01217 0.00230014 0)
(1.00601 0.00376572 0)
(1.00126 0.0051838 0)
(0.998025 0.00702879 0)
(1.00443 0.0148397 0)
(1.01242 0.0242917 0)
(1.0124 0.0281425 0)
(1.00878 0.0289893 0)
(1.00455 0.0292955 0)
(0.998029 0.0285784 0)
(0.982481 0.022396 0)
(0.967931 0.0171486 0)
(0.959051 0.016347 0)
(0.952758 0.0172321 0)
(0.94776 0.0182346 0)
(0.946159 0.0215721 0)
(0.955053 0.0333566 0)
(0.960728 0.0434481 0)
(0.959143 0.0469679 0)
(0.95519 0.0473919 0)
(0.950203 0.0473777 0)
(0.940004 0.0451327 0)
(0.92005 0.0347283 0)
(0.904479 0.0267475 0)
(0.89581 0.0243956 0)
(0.889871 0.0236392 0)
(0.884602 0.0237943 0)
(0.884951 0.0285885 0)
(0.892708 0.0412144 0)
(0.895095 0.0502727 0)
(0.891697 0.0537837 0)
(0.886154 0.0546371 0)
(0.879336 0.0535067 0)
(0.86611 0.0475633 0)
(0.845217 0.0331331 0)
(0.828422 0.0213853 0)
(0.817866 0.0163806 0)
(0.811535 0.014626 0)
(0.808805 0.0162025 0)
(0.812207 0.0224828 0)
(0.813489 0.0265233 0)
(0.811349 0.026459 0)
(0.807721 0.0241793 0)
(0.802643 0.018418 0)
(0.795479 0.00949857 0)
(0.783025 -0.00376318 0)
(0.758729 -0.0357382 0)
(0.291262 -0.0204098 0)
(-0.774702 -0.0187528 0)
(1.18998 -0.088318 0)
(1.1846 -0.0863864 0)
(1.17994 -0.0844587 0)
(1.17175 -0.0829971 0)
(1.1654 -0.0814313 0)
(1.16111 -0.0797576 0)
(1.1575 -0.078244 0)
(1.15612 -0.075611 0)
(1.16144 -0.070414 0)
(1.16401 -0.0663339 0)
(1.16206 -0.0640445 0)
(1.15889 -0.0622903 0)
(1.15521 -0.0608012 0)
(1.15116 -0.0594565 0)
(1.14337 -0.0586509 0)
(1.1341 -0.0582515 0)
(1.12842 -0.0570121 0)
(1.12421 -0.0554653 0)
(1.12068 -0.054039 0)
(1.12126 -0.0504192 0)
(1.12807 -0.0439079 0)
(1.12966 -0.0397418 0)
(1.12712 -0.0376771 0)
(1.12363 -0.0362606 0)
(1.11974 -0.0350741 0)
(1.11406 -0.0342758 0)
(1.10311 -0.0350606 0)
(1.09433 -0.035084 0)
(1.08907 -0.0339291 0)
(1.08493 -0.0326316 0)
(1.08175 -0.0309992 0)
(1.08563 -0.0255112 0)
(1.09238 -0.0183645 0)
(1.09234 -0.0148048 0)
(1.08919 -0.0132911 0)
(1.0855 -0.0121783 0)
(1.0812 -0.0111246 0)
(1.07141 -0.011624 0)
(1.05882 -0.0134437 0)
(1.05152 -0.0136231 0)
(1.04672 -0.0129878 0)
(1.04255 -0.0122685 0)
(1.04038 -0.00979218 0)
(1.04781 -0.00180333 0)
(1.05362 0.00539815 0)
(1.05238 0.00863003 0)
(1.04881 0.0103268 0)
(1.04478 0.0114718 0)
(1.0378 0.0115076 0)
(1.02313 0.00764353 0)
(1.01091 0.00469998 0)
(1.00416 0.00431105 0)
(0.999221 0.00486201 0)
(0.994773 0.00544987 0)
(0.994611 0.00872944 0)
(1.00454 0.019168 0)
(1.00936 0.0267228 0)
(1.00735 0.0298609 0)
(1.0034 0.031592 0)
(0.998894 0.0324631 0)
(0.988578 0.0303581 0)
(0.97084 0.0221994 0)
(0.958133 0.0173598 0)
(0.950625 0.016677 0)
(0.945408 0.0169046 0)
(0.940757 0.0175099 0)
(0.942519 0.0223228 0)
(0.953178 0.0351721 0)
(0.956708 0.043082 0)
(0.95362 0.0459143 0)
(0.948675 0.0479649 0)
(0.942867 0.0492765 0)
(0.930593 0.0452243 0)
(0.911082 0.0322819 0)
(0.897299 0.023693 0)
(0.888682 0.0215431 0)
(0.882706 0.0214632 0)
(0.877908 0.0221578 0)
(0.880032 0.0284087 0)
(0.88723 0.0407222 0)
(0.888499 0.0480065 0)
(0.884966 0.0503387 0)
(0.879379 0.0509862 0)
(0.871897 0.0498887 0)
(0.858024 0.0433378 0)
(0.837711 0.0281248 0)
(0.821663 0.0162051 0)
(0.811521 0.0111504 0)
(0.80587 0.00953169 0)
(0.804925 0.0117384 0)
(0.809604 0.0183675 0)
(0.811305 0.0216013 0)
(0.809767 0.0206225 0)
(0.807126 0.0168478 0)
(0.802739 0.0104551 0)
(0.797374 0.00167976 0)
(0.774108 -0.0227848 0)
(0.285556 -0.0259543 0)
(-0.776619 -0.0169698 0)