/*--------------------------------*- C++ -*----------------------------------*\
  =========                 |
  \\      /  F ield         | OpenFOAM: The Open Source CFD Toolbox
   \\    /   O peration     | Website:  https://openfoam.org
    \\  /    A nd           | Version:  12
     \\/     M anipulation  |
\*---------------------------------------------------------------------------*/
FoamFile
{
    format      ascii;
    class       volScalarField;
    location    "0.4";
    object      rho;
}
// * * * * * * * * * * * * * * * * * * * * * * * * * * * * * * * * * * * * * //

dimensions      [1 -3 0 0 0 0 0];

internalField   nonuniform List<scalar> 
45568
(
3.15851
1.92616
2.51738
1.42679
1.70676
1.2686
1.40001
1.40001
1.44781
1.40001
1.40001
1.30501
1.44217
1.40001
1.40107
0.47637
1.40001
1.40001
1.77932
1.40001
1.40001
2.69589
2.33503
1.40001
1.40001
1.26869
1.40001
1.40001
0.472625
1.40001
1.7488
1.40001
1.40001
1.44483
1.40001
1.40001
1.72015
1.40001
1.40001
1.40001
1.40001
0.456297
1.40001
1.32017
1.40001
1.4
0.458769
1.74902
1.40001
1.40001
1.36104
2.81771
1.40001
1.44178
1.4
2.68841
2.21978
1.41609
1.44589
1.40001
1.40001
1.44631
1.40001
1.40001
1.40001
1.30768
1.40001
1.77702
1.40001
1.91168
1.66517
0.726269
1.34941
1.40001
2.17794
1.40001
1.40001
1.27485
1.40002
1.40001
1.40001
1.41158
0.723156
1.39763
1.45768
1.40003
1.35433
1.23608
1.40001
1.44075
1.40001
1.40001
1.40001
1.79789
1.40001
1.40001
1.80226
2.55372
1.78684
1.40001
1.67758
1.46076
1.01898
1.40001
1.40001
1.40001
1.40001
2.70223
1.40001
1.57761
1.40001
1.43202
1.40001
1.40001
1.69753
1.40001
1.40001
1.01605
1.41772
1.41959
1.40001
1.40001
2.68644
2.68212
1.40001
1.40001
1.2855
1.40001
1.30107
1.40001
1.31347
2.25473
1.28592
1.40001
0.468922
1.40001
1.40001
1.40001
1.45959
1.45906
1.40001
1.41866
1.43398
1.40001
0.470861
1.40001
1.40001
1.40001
1.40001
1.40001
1.23463
1.40001
0.597706
1.79108
0.586086
1.40001
1.40001
1.7833
0.480501
1.40001
0.472751
1.40001
2.99752
0.451502
0.460436
1.42152
1.40001
1.40001
1.40001
1.40001
0.473748
1.40001
1.2508
1.40001
1.39562
0.47048
0.463649
1.40001
1.33729
1.33162
1.41501
1.43835
0.471001
0.470463
1.94379
1.40001
1.40001
1.40001
1.40001
0.480269
0.483862
1.40001
1.40001
1.94743
1.41851
1.66686
0.480467
1.40002
0.464195
0.481877
1.31216
1.41396
2.55882
1.40001
1.40001
1.40104
1.40001
1.41139
1.73386
3.15116
1.77775
1.40001
1.40001
1.40001
2.66628
0.475259
0.477101
1.40001
1.40001
2.66507
1.44807
1.40001
1.40001
1.25
1.3988
1.3845
0.471499
0.471335
1.40001
1.40001
1.46005
1.40001
0.601724
1.31197
1.44844
1.40001
1.43064
1.29136
1.40001
1.40001
0.437137
1.29163
1.39201
1.40003
1.29142
1.31337
2.51128
1.29062
1.27747
1.30845
1.40001
1.31101
1.27795
1.26702
0.469531
1.30998
0.466907
0.469846
0.466313
1.30758
1.40001
1.31105
1.23275
1.40001
1.33193
1.31183
1.24216
1.41674
1.41426
0.458299
1.94193
0.458248
1.40001
1.36215
1.40001
1.37585
1.40001
2.10559
1.40001
1.40001
1.40001
1.40001
1.40001
0.460859
2.21523
1.40001
1.28701
1.33165
1.40001
1.28448
1.33284
2.22138
1.31661
1.40001
1.40001
1.40001
3.14962
1.40001
1.44561
1.40001
1.25201
1.34678
1.40001
2.55064
1.40001
1.74259
1.29119
1.27209
1.40001
1.44684
2.67013
1.40001
1.40001
1.40038
1.40905
2.66467
1.44681
1.91858
0.62902
1.40001
2.46727
1.4
2.46249
1.40001
1.40001
1.40001
1.40001
1.44324
1.40001
1.40001
1.40001
1.40001
0.599028
1.41992
1.40001
1.28811
1.40001
1.40001
1.3462
2.48478
1.40001
1.40001
2.62065
2.09019
1.40001
1.40001
1.40001
1.67278
1.40001
1.40001
1.39897
2.44887
1.40001
1.39929
2.37476
1.40001
1.40001
1.40001
1.45895
1.40001
1.40001
0.839311
1.42584
1.40001
1.75396
1.39472
1.40001
2.5498
1.74877
1.3296
3.06816
2.91913
1.40001
1.40001
1.40001
1.30483
1.40001
2.77451
1.40001
1.4738
1.06455
1.07627
1.40001
1.30583
0.485263
1.40001
1.40001
1.33788
1.40001
1.27779
1.40585
1.40001
1.04962
1.40001
0.480442
1.40001
1.28738
1.40001
1.40001
1.23765
1.40001
1.40001
1.39995
1.40001
1.40001
1.40001
1.40001
1.40001
1.40001
1.40001
1.40001
1.40001
1.40001
1.40001
1.42146
1.40001
1.40001
1.40001
1.43444
2.23403
1.40001
1.40001
1.40001
1.40001
1.42915
1.40001
2.41061
2.3792
1.40001
1.40001
1.02068
1.40001
1.40001
1.40001
1.40001
1.345
1.40002
1.40001
1.40001
2.17114
0.464713
2.19239
1.40001
1.40001
1.94625
1.40001
1.40001
1.40001
2.29784
1.45656
1.31282
1.41055
1.4
1.50624
1.25875
1.40001
1.37856
1.28562
1.40001
1.42166
1.40001
1.40001
1.07523
1.40001
1.40001
1.40006
1.40001
1.40001
0.540581
0.531114
1.78355
1.24341
1.40001
0.471561
1.40001
1.34828
2.80178
1.39746
2.88052
1.45059
1.40515
1.05385
1.4162
0.960209
1.40001
2.7827
1.43834
1.40001
1.40001
1.35865
1.40001
1.40001
1.34316
1.40001
0.474376
1.25948
0.468894
1.40001
2.4364
1.40001
1.40001
1.42884
1.40001
1.40001
1.40001
1.40001
2.77401
2.99235
1.45282
1.40001
1.40001
1.39447
1.40001
1.40001
0.462876
1.40001
1.40001
0.467608
1.40001
1.40001
1.40001
1.40001
1.40001
1.40969
1.39992
1.40001
1.40001
1.61776
1.27555
1.40001
1.40001
2.67539
2.20176
2.43856
1.40001
1.40001
1.26218
0.473236
1.40001
1.96765
1.40001
1.40001
1.40001
1.40001
2.28858
1.40001
1.40001
0.903978
1.27824
1.40001
1.40001
1.40001
0.482651
0.484121
1.40001
1.40001
1.40001
1.40001
1.3798
1.40001
1.41304
0.461968
1.39279
1.42093
2.2263
1.40001
1.40001
1.44148
1.40001
1.40001
1.40001
1.65421
0.681324
1.40001
1.44311
0.953168
1.46802
1.26638
1.40001
0.467217
1.7096
1.44932
0.468175
1.28461
1.40001
2.31804
2.2743
1.01397
1.4402
1.40002
1.40002
1.40001
2.33908
1.31124
1.40001
1.29143
1.74906
1.0691
1.40001
1.4
0.458702
1.39971
1.40001
1.40001
2.3864
0.468669
0.468685
1.38465
1.40001
1.3117
1.40001
2.1474
1.40001
1.42065
1.40001
1.33872
3.14391
1.3356
1.36235
1.40001
1.40001
1.40001
1.40001
1.46952
1.40001
1.31727
0.472819
1.40001
1.25944
1.08697
1.40001
2.63974
1.31209
1.44181
1.43031
2.52464
1.40001
1.40001
1.40001
1.44744
1.40001
1.3141
1.40001
0.467511
1.40001
1.40001
1.40001
2.6728
1.40001
1.40001
1.0206
1.40001
1.39991
1.40001
1.34317
1.31258
1.40001
1.40001
2.0382
1.40001
1.3991
1.77345
1.26102
1.24735
1.40001
1.40001
1.45844
1.33908
1.40001
1.74337
1.40001
1.73647
1.66272
1.35436
1.26423
1.33386
1.44526
1.40001
1.40001
1.40001
1.40001
1.40001
1.40001
1.89209
1.40001
1.96469
1.40001
1.40001
2.12212
1.23146
0.456245
1.40001
1.4
1.40001
3.14229
0.455264
1.93316
1.40001
1.80039
1.31186
1.31121
1.40001
1.40001
1.40001
1.44424
1.40001
1.40001
1.40001
1.40001
1.40001
1.40001
1.4
1.3502
1.30938
1.40001
1.40001
1.04125
1.29314
1.40001
1.65265
1.42177
1.408
1.29013
1.40001
1.40001
2.30245
1.40001
0.995306
1.40001
1.40001
1.40001
1.40001
1.40001
1.40001
1.26488
0.997274
1.40001
1.15447
1.39871
1.40001
1.40001
1.91485
1.40001
1.10333
1.34425
1.40001
1.40001
1.29062
1.39492
1.2921
1.40001
2.46664
1.33917
1.40001
1.40001
2.6737
1.40001
1.40001
1.39955
1.3281
1.40001
1.4401
1.29024
2.17595
1.02632
1.40001
1.40001
1.03838
1.40001
1.45087
1.80072
1.28819
1.15183
1.45865
2.61296
2.67357
1.65471
0.466321
0.710034
1.41487
1.2895
1.70842
1.07688
1.40001
1.43311
1.22779
1.40001
2.37119
2.06847
1.40697
1.27917
1.39886
1.94174
1.78639
1.40001
3.037
1.40001
1.08006
1.40001
1.29002
1.9885
2.19287
0.700553
1.45664
0.721
1.31908
1.40001
2.175
1.45112
1.40001
0.883455
1.29118
1.11699
1.39893
1.40001
1.42624
1.40001
1.54728
1.16665
1.05639
1.40001
1.24454
1.40001
1.40001
1.40001
1.98605
2.55845
2.02817
1.29177
1.28914
2.22674
1.31489
2.43201
1.01653
1.40001
1.39941
1.40001
2.00519
1.40001
1.40001
1.40001
1.26618
1.40001
1.45918
1.73138
1.21367
1.3379
1.40001
1.44874
1.45539
1.40001
1.40001
2.61301
1.40558
1.27741
1.05823
1.0595
1.40001
0.494821
1.40001
0.50211
2.02722
1.23778
1.40001
1.31445
1.93681
1.40001
1.40001
1.40001
1.30644
1.33621
1.30985
2.03103
1.41291
1.31143
1.40001
1.40001
1.47859
1.44148
1.39024
1.40001
1.4169
1.37253
1.30678
1.56231
1.27691
1.40001
1.40142
1.40001
1.40001
2.33681
1.40001
1.40001
2.38763
1.40001
1.3091
0.464836
1.2926
1.40001
0.47238
2.16242
1.40001
1.34022
1.30129
1.40001
1.309
1.34158
1.34027
1.40001
0.66519
1.21835
1.34132
1.46029
1.40001
1.40001
1.34146
1.40001
1.34144
1.40001
1.08569
1.40001
1.33777
1.34586
1.07256
1.40001
1.00726
1.34938
1.09023
1.64238
1.01099
0.468115
0.469734
0.699147
1.30844
2.08179
1.04438
1.40001
1.3678
1.45247
0.694563
1.86302
1.40001
1.90109
0.651193
0.467711
1.9305
1.31102
1.41544
1.40001
1.40001
1.23395
1.40001
1.40001
1.40001
1.27742
0.477112
0.475493
1.40001
2.47258
1.40001
0.469841
1.40001
1.40001
1.08942
1.28934
0.974625
1.40001
1.40001
1.37993
1.40001
1.01186
1.40001
1.03256
1.38002
0.461883
1.01952
1.40001
1.40001
1.25614
1.4
1.40001
1.40001
1.39287
2.09986
1.29254
1.40001
1.40001
1.26147
1.04495
0.974135
1.45778
1.45985
1.40001
1.31225
1.31301
0.456361
1.40001
1.40001
1.39994
1.26702
0.483361
0.481318
1.30204
1.45207
1.34661
1.44343
1.40002
1.40001
1.40001
1.43116
1.40001
0.471364
1.27683
1.40001
1.05592
1.44495
1.40001
1.18644
2.06211
1.26409
1.17197
1.09873
1.40001
1.39996
0.450606
1.40001
1.07728
1.43116
1.40001
1.65882
1.40001
1.40001
1.046
1.05246
1.40373
1.463
1.33791
1.40001
1.24354
1.08875
1.06769
1.40001
0.480078
0.458904
1.40001
1.81225
0.478004
1.42465
1.02538
1.38691
0.464685
1.31014
1.04152
1.40001
1.40001
2.49872
0.990277
1.04753
1.05941
1.02772
1.00871
0.474308
1.40001
1.27861
1.58607
1.40001
1.39996
0.974473
1.07275
1.10444
0.473326
1.21344
1.40001
1.40001
1.40001
1.18402
1.40001
0.516963
1.40001
1.40001
1.92029
1.45658
1.39605
1.40001
2.36235
1.40001
1.27991
0.647197
0.993722
1.40001
1.40001
0.998917
1.32158
0.63232
1.40001
2.17529
1.40001
2.30809
1.67865
2.29398
2.45797
0.96672
1.40001
1.40001
0.958747
1.40001
1.40001
1.39999
1.44878
1.06513
1.39237
1.01205
1.66799
1.26561
0.985246
1.40001
1.63211
1.03613
1.40001
1.45041
1.40001
1.40001
1.29078
1.29064
1.40003
1.28249
0.671094
1.40001
1.40001
1.48396
1.40153
1.40001
1.05843
0.470254
2.3287
1.42895
1.10707
1.44775
1.00264
1.40001
1.40001
0.972384
2.60535
1.2716
1.06399
1.40001
1.40001
1.32937
1.40001
1.40001
1.31621
1.94334
0.744723
1.40002
1.40001
2.58901
0.741685
1.40002
1.40001
1.26435
1.40001
1.28181
1.40001
2.46961
1.40001
1.0878
1.27924
1.42235
1.40001
1.28201
1.01258
1.40001
1.67218
0.936921
0.468195
2.46435
1.26002
1.40001
2.36583
1.40001
1.40001
1.40001
0.468657
1.40001
1.40001
1.26254
2.45781
2.27104
1.4
1.4
0.468171
1.03359
1.40001
1.39941
1.26719
1.39998
1.39993
2.37295
1.39999
1.39992
1.26969
1.22077
1.39529
1.39192
1.26088
1.40001
1.89988
1.30589
1.30754
1.40002
2.11018
1.40001
2.0734
1.40001
1.40001
2.03859
1.19421
1.08925
1.25529
1.25783
1.40001
1.40001
1.40001
1.45356
1.08077
1.40001
1.40001
0.706485
0.725757
0.778776
1.45404
1.40001
0.798051
0.759299
1.40001
1.03255
1.40001
1.44845
1.45612
0.462487
1.06142
1.03423
0.463302
1.40001
1.03904
1.40001
1.39918
1.09639
1.40001
1.40001
1.40001
1.40001
1.07752
1.40001
1.18437
1.06189
1.40001
0.984428
1.1861
0.695549
2.48113
1.31113
1.42465
1.28968
1.43698
2.48951
1.40001
1.16105
1.15955
1.15412
1.14424
1.17892
1.17978
1.32003
1.06818
1.40001
1.12247
1.40001
1.12692
1.40001
1.42529
1.38353
1.44049
0.52419
1.40001
1.42453
1.43842
1.12953
1.11705
2.50309
1.40001
1.29443
0.469208
0.458781
1.12737
1.13321
1.11637
1.40001
1.40001
1.40257
1.40002
1.02247
1.27471
1.40313
2.51256
1.1026
1.40001
1.40001
1.40025
1.24226
1.40001
1.40001
1.40001
1.40001
1.0942
1.10289
1.07667
1.07103
1.2274
1.23908
1.40001
1.40001
1.20507
1.30975
1.07504
1.08072
2.52544
1.20481
1.30852
0.452547
1.25118
1.00815
1.40001
1.66771
1.02352
0.498733
2.42174
0.637766
0.452681
1.25976
2.53387
1.40001
1.01479
1.40001
1.45179
1.28189
2.42893
1.44599
1.45511
1.40001
1.4012
1.06033
2.55523
2.18469
1.45053
1.25619
1.4497
0.485973
2.56389
1.21821
1.09268
2.38463
2.38854
1.33961
2.60601
1.40055
1.06769
2.59393
1.27956
1.07148
2.647
1.25688
1.34033
1.40001
2.63605
1.4
1.09468
1.3273
1.31154
2.66466
1.40001
1.39995
2.65944
1.8175
1.35794
1.40001
1.27073
1.14442
1.3549
2.41288
1.45362
1.27916
1.40001
1.40001
1.40001
2.41042
0.949662
1.02585
2.49095
2.687
1.30055
2.31206
1.06798
2.14943
2.68498
1.40475
1.42085
1.22659
1.40079
1.40001
1.15513
1.16876
1.4637
1.40001
1.40001
1.89894
1.35763
1.35493
1.47439
2.25435
0.756645
1.03465
2.3659
1.0787
1.44123
1.37326
1.40001
1.80613
1.52266
2.34618
1.93119
1.2885
1.39881
1.40001
1.39729
1.8091
1.05805
1.39761
1.40001
1.40001
1.40005
2.18085
1.40001
1.40001
1.40001
2.2098
1.40001
1.26251
1.40002
1.40001
1.44342
1.40001
1.46845
1.40001
0.466423
0.423187
1.40001
0.664831
0.658312
1.72747
2.17586
1.81774
1.66072
1.17682
1.10069
1.40001
1.43075
1.4439
1.29692
1.20906
1.40001
1.40001
1.2981
1.21066
2.21409
1.40001
2.31194
0.667067
1.59694
1.40001
2.18799
1.11627
1.40001
1.40001
2.25918
2.05288
1.11038
1.10694
1.03995
1.30021
1.28652
1.00563
1.40001
1.40001
1.40001
1.40001
1.4406
1.66469
1.24313
1.40001
1.23575
1.03599
1.20952
2.28266
1.19631
1.2193
1.40222
1.27862
1.40001
1.26006
1.34441
1.40001
1.40001
1.41826
2.67866
1.40001
1.40001
2.33709
2.68334
0.457203
1.31993
1.34009
1.34063
1.40001
2.00212
1.27199
1.44972
1.44573
1.40001
1.85851
1.40001
1.31604
1.4
2.6789
2.68323
1.49927
1.39916
1.40001
1.40001
1.40001
2.69482
1.30353
1.40001
1.08386
0.478548
1.221
1.49607
0.643732
1.50314
1.3151
2.3861
2.63374
1.05008
1.7208
2.68329
1.40773
1.00466
1.02009
0.467101
1.40001
1.32191
1.205
1.40001
1.40001
2.40442
0.479047
1.40001
1.40002
2.39913
1.30139
1.43465
0.637754
2.41911
1.00851
1.4
1.40486
1.80599
0.476748
1.40001
2.25816
1.41628
1.11165
1.82003
1.40001
1.18753
1.10334
1.78744
1.51327
1.40001
1.39419
1.732
1.40933
1.19807
1.44689
1.01814
1.9803
1.40001
1.40001
1.40001
1.40001
1.66184
1.16911
1.08447
1.15993
1.40001
2.31222
1.25282
1.40001
1.40001
1.26406
1.30607
1.09122
1.22783
1.39991
2.07108
1.40001
1.2538
1.44733
2.0364
2.03223
1.27355
1.25817
2.36741
1.40001
1.40001
1.6514
1.40001
1.24254
1.40001
1.19144
1.40013
1.40001
1.40001
1.40001
1.66007
1.22675
1.08259
1.40313
1.40001
1.40001
1.40001
1.40001
1.40001
1.5789
1.40001
1.11884
1.2322
1.40001
2.62299
1.32441
1.40001
1.40001
1.40001
1.00502
1.40001
1.09119
1.45804
1.40001
1.09858
1.45932
1.40001
2.46
1.40001
1.40001
0.991695
0.995653
1.27366
1.1674
2.36677
0.952908
1.31736
1.16277
1.40001
1.39934
1.40001
1.40001
1.45131
1.45962
1.45595
1.46257
1.44239
2.62919
1.72752
1.40001
2.24788
1.40001
1.40001
0.814619
1.40001
1.69709
1.43467
1.19567
1.24026
2.00058
1.43201
0.463217
1.40001
1.40001
1.24483
0.821407
1.0105
1.40001
1.40001
1.26982
1.40001
1.40001
1.28057
1.176
1.40001
1.70249
1.40001
0.464946
1.40001
1.40001
1.30152
1.40001
1.75772
1.40001
1.02744
1.40001
1.22118
1.06316
1.40001
2.35098
1.40001
0.607831
1.45521
2.5779
1.24457
1.3976
1.03829
1.18471
2.56963
1.40001
0.463922
1.27292
0.593856
1.40001
1.73225
1.96005
1.26965
1.27645
1.10431
1.40001
1.2042
2.65864
1.39846
2.67226
1.40002
1.21322
1.43863
2.66526
1.40001
1.20433
1.3963
1.40036
1.40001
1.73994
2.6906
1.40001
2.25646
2.62054
1.40001
1.40001
2.68491
0.720847
1.40001
1.40001
1.40001
1.40001
2.40552
1.40001
1.21858
1.40001
1.18923
1.40001
1.4133
1.24052
2.38265
1.40001
1.40001
1.40001
1.40001
1.40001
0.73484
1.40577
1.40001
1.39997
1.40001
1.40001
1.02616
2.43874
1.02199
1.40001
1.0621
1.40001
1.40001
1.40001
0.800171
2.68471
2.67996
1.44255
1.07946
1.4
1.4
1.40001
1.40001
1.40001
1.1465
1.32465
1.40001
1.65753
2.62729
1.76727
1.40002
1.40001
2.40865
2.38677
1.72569
1.40001
1.01777
1.09806
1.40001
1.79959
2.72003
2.41706
1.01594
1.02076
1.40001
2.69405
1.34396
1.21809
0.78019
2.24121
1.31548
1.31598
1.4
1.27385
2.49746
1.40001
1.0336
1.33989
1.22338
1.20311
1.09113
2.38102
2.25838
2.40347
1.40001
1.39978
1.08809
2.37359
1.25095
1.51172
2.27493
2.41014
1.40001
1.40001
2.2763
1.05103
1.40001
1.07082
1.40557
1.83272
1.06555
1.40001
1.07191
1.40001
1.40001
1.40001
2.2111
1.10644
1.40001
1.0196
1.40001
1.05091
1.44073
3.18995
1.06102
2.09561
1.39998
1.32059
1.18096
1.40001
0.675752
1.40001
1.40001
1.21075
1.04023
2.27321
1.0878
1.40001
1.1004
1.31813
1.25581
0.88275
1.33359
1.27608
1.18751
1.29498
1.29474
2.45206
1.29582
1.40001
0.861085
1.40001
1.46629
1.42352
1.3642
1.398
2.55007
1.24767
1.22554
2.44801
1.45358
1.04686
1.45766
1.40001
1.00978
1.40003
1.01898
1.40001
1.22006
1.22104
0.471619
1.40001
1.36898
2.68788
0.975747
1.40001
1.16166
1.33826
2.59631
1.28647
1.40001
1.51274
2.67865
1.48276
1.26995
1.40001
1.40647
1.40001
2.64285
0.942043
1.45118
1.44401
1.04531
2.56931
1.40001
2.56772
1.40001
1.07459
0.674195
1.40001
1.067
1.02229
1.40001
2.8598
1.45567
2.36003
2.21901
1.40001
1.40001
1.22438
1.29861
1.4
1.40001
1.03267
1.42566
1.30423
2.5612
2.35518
2.56933
1.39041
1.31528
1.40156
1.40001
2.15149
1.39919
1.40001
1.27869
2.36001
1.40001
1.40692
1.18086
1.232
0.891624
1.40001
1.40001
2.36028
0.663671
1.36424
1.40013
1.40001
1.18619
0.662314
1.22977
2.30509
2.97499
1.72463
1.40001
1.40001
1.45003
0.467948
1.40001
1.3563
1.01459
1.40001
1.20076
1.40003
0.779219
1.18544
1.69726
0.616649
1.15922
1.18246
2.35884
1.40001
2.68421
0.629391
0.648765
1.06153
2.53959
2.76684
1.29292
1.40001
1.40731
1.40001
1.40001
1.40001
1.3792
1.40001
1.26799
1.12809
1.65585
1.26324
0.601035
1.12769
0.669701
1.22951
1.40001
0.658646
0.68108
1.40001
0.698913
1.35687
1.40001
1.40001
1.40001
1.45196
2.36178
1.23769
2.34242
1.23777
1.0863
1.40006
1.40001
1.46802
1.40001
2.32739
1.26648
0.993879
2.44766
1.10048
2.6372
1.30953
0.999078
1.40001
1.40001
2.62306
1.40001
1.43763
1.40001
1.40001
1.40001
0.641931
2.6856
1.40001
1.40001
1.45241
1.23761
0.63106
0.67126
1.40001
1.40498
0.640632
1.67907
1.40001
1.40001
1.40001
1.03232
2.65842
1.02878
1.40001
1.40001
1.48862
1.31933
1.40001
1.14908
0.47218
2.66146
2.67808
1.14708
1.33912
1.40001
1.13693
2.68324
1.40014
0.462966
2.093
1.01736
1.40001
1.99643
1.40001
1.49075
1.44546
1.46803
1.14273
1.01048
1.40001
2.01784
1.40001
2.69247
1.40001
1.45645
2.20804
1.40001
2.65473
1.21555
1.28724
2.45514
1.45651
2.65256
1.40001
1.03285
1.01506
1.40001
1.40001
1.36079
1.37237
2.54898
2.6286
1.29755
1.0841
1.25913
1.30183
1.46718
2.52226
1.40001
1.40001
1.27618
1.40001
2.57017
1.08395
1.10807
1.18379
1.40001
1.40001
1.27928
1.10497
0.674199
1.23505
1.19723
1.10232
1.3932
1.10016
2.58971
1.462
1.40001
1.17921
1.23223
2.41269
1.04224
0.897762
2.50079
1.18703
1.33332
1.03827
1.05659
1.40001
0.56005
2.45172
1.4505
1.45182
1.06035
2.57931
2.47841
1.40001
2.61549
1.05544
0.599721
1.46102
1.44467
1.40001
1.40001
1.85311
1.22368
1.40001
2.45568
1.45751
2.45442
0.472911
2.45341
1.23287
1.19355
1.40001
1.12608
0.617796
1.40001
2.37018
1.40001
1.40001
1.40001
1.40001
1.40001
1.18612
1.40002
1.23972
1.2413
2.70573
1.2613
1.40001
1.40001
0.605999
1.21323
2.68352
1.40001
1.13534
0.632337
0.60384
1.40001
1.46699
0.582726
1.40001
1.40001
1.45285
1.46746
1.44406
1.40001
1.4
1.4
2.45633
0.660216
1.44007
0.572836
2.54003
1.39999
1.39999
2.51427
1.30037
1.31104
1.1029
0.687435
2.49137
1.92636
1.40001
1.40183
2.68533
1.40001
1.40001
1.39998
1.39997
0.456257
2.47019
0.452106
0.556418
1.39997
1.40001
1.26042
1.43177
1.40002
1.40001
2.58024
1.27021
1.27527
1.40001
1.40001
0.860222
1.44193
1.40001
1.24083
0.929639
1.19733
1.24856
1.40001
1.4
1.40001
1.40001
1.53919
0.843142
1.67643
1.53642
1.40001
1.4416
1.40001
2.52781
1.40001
1.27284
1.2748
1.40001
1.40001
2.52968
1.42619
1.40001
1.19279
0.906157
1.09783
1.1224
1.10559
1.15114
1.1877
1.40001
1.40001
1.14788
1.15713
1.07981
1.40001
0.989015
0.993351
1.36864
1.09083
1.17508
1.43346
1.75837
1.40001
1.01045
1.26499
0.996295
1.34038
1.44147
1.40001
1.44339
1.05095
1.40038
1.19634
1.17121
1.40001
1.15977
1.40001
1.19141
1.40001
1.40001
1.38701
1.14929
1.40001
1.21637
1.40001
1.25757
1.14462
1.24129
1.4095
1.40001
1.40001
1.40001
1.4065
1.40001
1.40001
0.70737
1.40001
1.21098
1.22904
1.20203
1.39865
2.33561
1.26732
1.17887
1.24651
1.30185
0.689231
1.40001
1.05217
1.25164
1.40001
1.3118
1.20479
0.779048
2.29119
0.914984
2.65028
1.14963
2.39947
1.40001
0.971713
1.40001
1.14555
2.65356
1.40001
1.94335
1.40001
1.10759
1.11101
1.40001
2.43132
1.40001
0.673019
2.15883
1.3079
1.40001
0.454511
1.18046
0.713315
1.16881
1.01155
1.40001
1.40001
1.09222
1.22011
0.66209
0.687723
1.40001
1.24144
0.934097
1.40001
1.40001
1.37752
1.16979
1.23675
1.14488
1.08498
1.07546
2.42292
1.40001
1.40001
1.23966
1.75596
1.47586
1.01441
1.40001
1.36801
1.40002
1.44178
0.461592
1.40001
1.07322
1.24799
2.60826
1.40001
2.65387
1.33473
1.26735
1.21782
2.5564
1.39998
1.26705
2.65351
1.17901
1.26612
1.4
1.07352
1.34566
1.15942
1.32428
2.06915
1.40001
1.09637
1.40001
1.40001
1.40001
2.43424
1.40001
1.07057
1.07652
1.29018
1.28116
2.21599
1.22616
1.4
1.47208
1.40001
1.65435
2.4302
2.43798
0.852667
1.44393
1.13043
1.40001
1.20247
2.52254
1.21655
1.12744
1.26203
2.54162
1.86067
1.4
1.26428
2.64553
1.37076
0.988613
1.30971
1.26159
1.41908
1.40001
1.98659
2.3798
1.07137
1.0755
1.40001
1.40001
1.40141
1.40001
1.40037
1.40001
1.12962
1.40001
1.40001
1.46248
1.23731
1.01256
1.40001
1.92187
1.40001
1.27675
1.21876
1.40001
1.30143
1.2217
1.86133
1.04249
1.40019
2.4014
1.92315
1.40001
1.40001
1.28639
1.40001
1.17468
1.40001
1.30006
1.28534
1.31127
1.40001
1.3399
1.22804
1.34646
1.09833
1.40001
2.14627
1.42236
1.10035
1.40001
1.27515
2.63119
1.00714
1.29732
1.33971
1.20933
1.34001
1.32622
0.458233
1.40002
2.32064
1.4
2.5776
1.31776
2.02575
1.37259
1.32731
1.40001
1.23056
1.26541
1.49583
1.40001
1.39638
1.40001
1.40002
1.36327
1.40001
1.25029
1.33003
1.90087
1.45087
2.04874
1.40001
1.8498
1.22822
1.40001
1.3913
1.0397
1.28717
1.40001
1.40001
1.40001
1.35805
1.28914
1.05213
1.04872
1.40001
1.04537
1.04067
2.39524
1.10147
0.480823
1.43625
1.40017
1.4332
2.39376
1.4304
1.40001
1.40002
1.21656
2.38955
1.54739
1.37011
1.0084
1.01087
1.40001
1.21025
2.54756
2.38728
1.39996
1.39999
1.20133
1.40001
2.54492
2.39111
1.19985
0.996472
1.35361
1.40001
1.37493
1.43814
1.40001
1.39183
1.22119
1.19502
1.40001
1.04706
2.40224
1.23045
1.55333
2.43246
1.14949
2.36499
1.23504
1.22363
1.77554
1.15795
1.34213
1.24618
0.980822
1.36855
2.64089
1.08794
1.24825
1.4
1.09753
1.40287
1.0994
1.24017
1.04582
1.101
1.28879
1.4
1.1426
1.09544
0.760401
1.14073
1.67075
1.19545
1.40001
0.975822
1.40001
1.38978
1.40001
0.656833
1.3633
1.03771
1.40001
1.08539
1.18231
0.798331
1.17145
1.59474
1.05071
3.10109
0.73091
1.40001
1.41243
1.04225
1.40001
1.40001
2.12476
1.1687
1.40001
1.16984
1.00811
1.40001
1.40001
1.02468
1.44265
1.29027
1.0517
1.906
1.02249
1.3726
1.40001
1.02478
1.40001
2.45108
1.45397
1.08476
1.00903
1.58428
1.40001
1.60973
0.636307
1.40001
1.40001
1.14253
1.4
1.45525
1.79356
1.40003
1.40001
1.40003
1.40001
1.40002
1.40001
1.40001
1.44666
1.40001
1.30452
0.618843
1.08895
1.30013
1.40001
1.17732
2.64512
1.26567
2.49406
1.06642
1.75781
2.45556
1.40001
0.681051
1.40001
1.28143
1.16618
1.58641
1.01607
1.40001
1.40001
1.50037
1.40001
2.36173
1.40001
2.63961
2.43555
1.13661
1.40001
1.40001
1.40001
1.40001
2.37227
2.34571
1.40002
1.40001
1.94403
0.966054
1.43842
1.317
1.45334
0.638373
1.4
0.797964
1.1236
2.45041
1.14306
1.89295
0.98125
1.35814
1.27157
2.62139
1.40001
1.21813
1.13714
2.45244
1.21785
1.18699
1.02204
2.49827
1.40001
1.21187
1.20759
2.36947
2.5464
1.40001
1.40001
1.00527
1.40001
1.46239
1.40001
1.40001
1.10379
0.845992
1.0206
2.63075
1.215
2.36902
1.29269
1.40001
1.40001
0.90542
1.40001
1.40001
1.2758
1.39986
1.40001
1.32504
0.947585
1.01609
1.40002
1.39969
1.40001
1.40001
0.457226
1.36839
1.8608
1.40001
1.40001
0.8345
1.40855
1.95983
1.88384
1.40001
2.58496
1.22269
1.40001
1.23433
1.31452
1.25357
1.40001
2.59385
0.989852
1.40001
1.5118
1.40001
1.40001
2.44438
1.40001
1.66517
1.51766
2.55047
0.58064
1.85027
1.46281
1.23609
1.40003
1.2135
1.40001
1.09097
1.16782
1.30582
0.436602
2.4157
1.40001
1.11879
1.40001
1.40001
0.59244
1.40001
1.40006
1.11169
2.23985
1.40001
1.40001
2.26707
1.40001
1.40001
1.40001
0.881379
1.31357
1.10129
1.40001
2.00969
1.40001
1.40011
1.07843
1.28395
1.40001
1.40001
1.40001
1.40001
1.40005
1.63548
0.821497
1.18841
1.70514
1.62768
1.40001
1.16532
1.40001
1.40001
1.43373
1.2492
1.36236
1.40001
2.40559
1.40001
1.09867
1.40056
1.63798
1.40001
2.43594
1.27795
1.23243
1.40001
1.40001
1.40001
1.16124
1.3154
1.40001
2.42543
1.40002
1.18422
1.17889
1.33687
1.40001
1.40001
1.39864
1.09468
1.26314
1.40001
2.58069
1.40001
1.40001
1.40001
1.39594
1.4
1.25079
2.43419
1.2685
1.40002
1.40001
1.25621
0.816209
1.40001
1.11211
0.769297
1.91177
2.13453
1.14004
2.55731
2.36595
1.38513
1.40001
2.36938
1.48339
0.943523
1.27868
1.40001
2.43406
1.39055
1.40001
1.40001
1.38208
1.40001
1.45473
1.09135
1.45394
0.879396
1.40001
1.40001
1.40001
1.40001
1.40001
1.38998
0.449597
1.11093
1.37709
1.39705
1.98649
0.66143
1.23819
0.447261
1.40001
1.3403
1.40001
1.39415
1.30114
1.39435
1.40001
1.40001
1.40001
1.40001
1.40161
1.32841
1.40001
0.852259
1.40001
1.40001
1.40001
1.39973
1.37483
1.39543
0.448128
2.23332
1.40001
1.39545
1.40001
1.52115
2.49036
0.708957
1.72881
1.29147
1.00551
1.40001
1.40001
1.8493
0.45024
1.4
1.44322
1.40001
2.24696
1.06912
2.90624
1.40001
1.40001
1.30646
1.92739
3.18249
2.49642
0.463385
2.12233
1.40001
0.497849
1.40001
1.40001
1.40001
0.998369
1.26462
0.616834
1.40001
2.24274
1.40001
1.40001
1.40001
1.70974
1.28637
1.844
1.40001
1.2047
1.4453
2.57385
1.40001
1.87966
1.64051
1.40001
1.4019
1.40008
1.40001
1.40001
0.492274
0.97408
1.24595
1.10687
1.29764
1.40001
0.990774
2.58162
1.40001
1.26997
1.40001
1.08039
2.51317
0.59505
1.40001
1.29436
1.4545
1.2422
1.40025
1.39477
1.40001
0.461203
1.40001
2.51551
1.76718
1.75508
1.16102
1.40338
0.93197
0.950714
1.40001
1.40001
1.91583
1.40001
2.45011
1.31108
0.58051
1.30565
1.40001
0.463102
1.40001
1.34925
1.40001
1.262
1.03753
0.568034
2.56297
1.41632
1.40001
1.40001
1.2664
1.26855
1.40001
1.23954
1.39925
1.47473
1.40001
1.40001
1.40001
1.40001
1.21033
1.46139
1.07681
1.40001
1.03298
1.10868
1.42105
0.767361
1.40001
1.40001
1.40001
1.14142
1.164
1.14169
2.4634
1.15583
1.1769
0.76548
1.40001
1.26455
1.82603
1.40001
1.40001
1.40001
1.40001
1.32074
1.71748
1.26962
2.39718
1.25149
1.44924
1.07075
1.4
1.40001
1.40001
1.40001
2.45427
1.22566
1.40001
2.04307
1.40001
2.30549
1.40001
2.38747
2.53766
1.97725
1.39812
1.40001
2.53396
1.39513
2.39832
1.40001
1.6003
1.4
1.40001
0.452658
2.42531
1.40001
1.40001
1.04227
1.26639
1.22757
1.15068
2.4327
1.20264
1.40001
1.40001
1.40001
1.57105
1.40001
1.18246
0.502449
2.2661
2.31044
1.82492
2.457
1.3663
1.46615
1.40001
1.40001
1.11155
2.65966
1.40001
1.28296
1.10988
1.41499
2.64536
1.51996
2.20455
1.20884
1.26028
1.76524
1.59979
1.40001
2.68802
1.40001
1.40001
2.53853
2.47627
1.21261
1.23831
1.40001
1.40001
2.44088
2.35193
1.21068
1.40001
2.65618
1.20373
2.31265
1.40002
1.26257
1.39862
2.48528
1.40001
1.29226
1.29235
2.19308
1.24518
2.47968
1.40001
2.5231
1.40001
2.49553
1.33114
1.20026
1.1692
2.45551
1.40001
1.2927
2.27634
1.92202
1.11668
1.40001
2.54485
1.18817
0.534985
0.456199
1.40001
1.13965
1.18819
2.46721
2.20078
1.10521
1.57819
2.6059
1.40001
1.17704
0.453772
0.705048
1.83597
1.40001
1.22475
2.08796
1.40001
2.50167
1.81055
2.39431
1.28995
1.29093
1.15515
1.39999
1.19068
1.40001
1.4299
2.46775
1.40001
1.10877
1.31327
1.09962
1.44979
1.52719
1.40001
1.40001
1.39579
1.40001
1.25927
1.16005
1.17744
2.09009
1.31327
1.40001
1.82006
1.29008
1.29065
1.40001
1.40001
1.15206
1.76509
2.59897
1.40001
1.40001
1.70881
1.40001
1.14971
1.87798
1.39197
1.40001
1.01912
1.40001
1.40001
1.31341
2.61171
1.31604
1.14606
1.40001
1.66096
1.98498
1.93283
1.14495
1.40001
1.029
2.44601
1.40001
1.40001
1.15594
1.03546
1.13847
1.08912
1.88164
2.57187
1.4002
1.40001
1.40001
1.40004
1.12994
1.40001
1.99026
1.24329
1.40001
1.40001
1.40001
1.4001
2.53529
1.10743
0.480166
1.29888
0.644981
1.40001
1.19907
1.0675
1.16687
1.48062
1.91249
1.40001
1.11876
2.61906
1.40001
0.458435
2.39511
1.56312
1.40001
1.88574
1.31369
2.41987
1.40001
1.29199
1.29329
1.28973
1.14845
1.90798
1.2112
2.07897
2.52551
1.29415
1.87751
1.26815
2.44424
1.29522
3.04448
1.40001
1.40001
1.22546
1.40001
1.40001
1.40001
1.01854
1.40001
1.40001
1.83615
1.40001
1.40001
2.44582
1.4
1.11489
2.44993
1.40001
1.40001
1.40233
1.40001
2.07748
2.47264
1.26494
1.10593
2.48676
2.14689
0.637393
1.40001
1.40001
1.40001
2.03359
1.40001
0.689257
1.52973
1.83166
0.638632
1.1036
1.24515
0.634361
1.40001
0.841021
2.5313
2.44884
1.12548
0.6284
2.55087
1.40001
1.40001
1.03255
1.40001
1.76088
1.40001
2.47876
1.28672
1.28541
1.40001
1.40001
1.07967
1.95399
0.633601
2.4704
1.40053
1.9773
1.10995
1.40001
1.75459
1.40001
1.95375
1.40001
0.780438
1.07326
1.40001
1.40001
1.40001
1.55006
1.37166
1.40001
1.40001
1.23418
1.40001
1.8096
1.23205
1.40001
1.2627
1.44031
1.1093
1.4
1.40001
2.4521
1.40001
1.26686
1.40001
1.05964
1.40001
0.641129
2.47281
1.37475
1.34015
1.40001
1.40012
1.40001
1.40001
1.38868
2.46172
1.67856
2.59036
0.662302
1.40001
1.40001
0.578206
1.4
1.40001
2.58687
0.633912
0.601705
1.38887
1.40001
1.40439
1.40001
2.43831
2.23663
1.40001
1.40001
1.35066
1.40001
1.07849
0.525531
1.10998
0.542084
2.23519
1.40037
0.882961
2.51724
0.863257
1.40001
1.40001
1.40001
1.40001
2.46487
0.58799
1.40001
1.40001
2.57491
1.22227
0.794626
1.40001
0.530359
1.64513
1.4289
1.40389
2.44928
1.69668
1.40001
1.40001
1.37797
1.10937
1.39703
1.43257
1.40001
1.40001
1.40254
1.90895
0.710524
2.46045
2.42338
1.40001
0.836325
1.40001
2.57527
1.42991
1.40001
1.39064
1.40001
1.40053
1.40001
1.4
0.892042
0.556455
2.17762
1.29503
1.40001
1.44976
1.29804
1.27942
1.31289
1.28393
1.40001
1.25881
0.445428
1.40001
1.40001
1.00113
2.48586
0.448157
1.40001
1.40001
1.40001
1.40001
1.40001
0.620773
1.9136
2.31575
1.40001
1.40001
1.40001
2.51632
1.40981
0.99669
0.895781
2.06352
1.40001
2.05435
1.40001
1.40001
1.40028
1.40001
0.950997
1.44599
1.40001
1.08785
1.40001
2.42638
1.38031
2.01334
1.40085
1.4001
1.40001
0.532147
1.3879
1.40001
0.756298
2.47681
1.40001
2.06495
1.34449
2.32633
1.40001
1.85896
1.40001
1.40001
1.40002
1.40002
1.40001
2.17554
1.40001
0.658587
1.39957
2.42741
1.40001
1.40001
2.42679
0.814896
1.40001
0.488294
1.83876
1.20448
0.851311
0.795135
1.40001
1.5193
1.40001
1.40001
1.40001
2.46801
1.38315
1.40001
1.40599
1.40055
2.17487
1.073
1.40001
0.510964
2.5069
1.40001
0.750655
0.444631
1.69427
1.40001
2.23504
0.94529
1.40001
1.40001
1.40001
1.40001
2.04196
1.30222
0.476862
1.39985
1.39257
1.33992
1.31826
2.30684
1.40001
1.40001
1.40001
1.40001