/*--------------------------------*- C++ -*----------------------------------*\
  =========                 |
  \\      /  F ield         | OpenFOAM: The Open Source CFD Toolbox
   \\    /   O peration     | Website:  https://openfoam.org
    \\  /    A nd           | Version:  12
     \\/     M anipulation  |
\*---------------------------------------------------------------------------*/
FoamFile
{
    format      ascii;
    class       volScalarField;
    location    "7.56";
    object      rho;
}
// * * * * * * * * * * * * * * * * * * * * * * * * * * * * * * * * * * * * * //

dimensions      [1 -3 0 0 0 0 0];

internalField   nonuniform List<scalar> 
22702
(
1.40001
1.40001
1.25095
1.40001
1.45797
1.40001
1.83766
1.40001
1.40001
1.05124
1.83865
1.83699
1.40001
1.8422
1.27337
1.40001
1.40001
1.40001
1.83952
1.40001
1.84268
1.40001
1.84357
1.02488
1.83881
1.03712
1.40001
1.84074
1.03451
1.02545
1.40001
1.83875
1.40001
1.40001
1.40001
1.80961
1.83985
1.8434
1.40001
1.40001
1.05238
1.40001
1.61982
1.40001
1.84002
1.40001
1.40001
1.40001
1.40001
1.02484
1.40001
1.02727
1.40001
1.83848
1.40001
1.84115
1.40001
1.40001
1.40001
1.40001
1.0444
1.40001
1.40001
1.02107
1.40001
1.03408
1.40001
1.40001
1.40001
1.04493
1.40001
1.84121
1.67235
1.40001
1.83996
1.85855
1.03475
1.83737
1.02531
1.40001
1.83919
1.02848
1.84235
1.83746
1.40001
1.40001
1.40001
1.40001
1.31582
1.04491
1.84261
1.40001
1.40001
1.03463
1.40001
1.8419
1.03299
1.40001
1.40001
1.40001
1.40001
1.62121
1.83908
1.03816
1.40001
1.40001
1.50902
1.40001
1.02672
1.40001
1.84187
1.83867
1.40001
1.40001
1.02113
1.02359
1.04556
1.40001
1.40001
1.40001
1.40001
1.40001
1.29682
1.40001
1.78112
1.44606
1.83623
1.40001
1.83812
1.83969
1.84191
1.8345
1.40001
1.04537
1.40001
1.02864
1.40001
1.40001
1.40001
1.40001
1.83976
1.40001
1.40001
1.40001
1.40001
1.84029
1.40001
1.42789
1.40001
1.40001
1.40001
1.40001
1.02993
1.40001
1.41049
1.40001
1.02381
1.40001
1.40001
1.40001
1.84197
1.40001
1.84311
1.01917
1.04174
1.8388
1.84114
1.40001
1.46827
1.65372
1.40001
1.84025
1.02655
1.81042
1.40001
1.40001
1.40001
1.40001
1.84216
1.74892
1.40001
1.83796
1.01406
1.84193
1.40001
1.02049
1.40001
1.02784
1.0352
1.39979
1.40001
1.40001
1.84076
1.40001
1.40001
1.84103
1.40001
1.8458
1.83771
1.0272
1.40001
1.40001
1.02475
1.84152
1.40001
1.40001
1.40001
1.84161
1.40001
1.03166
1.40001
1.40001
1.84207
1.84167
1.84469
1.40001
1.40004
1.40001
1.40001
1.40001
1.84135
1.40001
1.02091
1.85053
1.84127
1.84389
1.40001
1.40001
1.40001
1.01464
1.84212
1.62202
1.40001
1.84337
1.02935
1.02865
1.84349
1.84477
1.40001
1.84975
1.02134
1.79188
1.40001
1.40001
1.40001
1.40001
1.8418
1.40001
1.6586
1.4424
1.40001
1.40001
1.84137
1.03205
1.15253
1.40001
1.84448
1.03397
1.84207
1.40001
1.40001
1.40001
1.40001
1.40001
1.40001
1.40001
1.03084
1.15928
1.02923
1.84159
1.40001
1.40001
1.40001
1.40001
1.7894
1.40001
1.02756
1.40001
0.999286
1.02705
1.84285
1.02925
1.84256
1.40001
1.40001
1.40001
1.39747
1.02039
1.02639
1.4
1.40001
1.0016
1.40001
1.84008
1.03551
1.40001
1.40001
1.83643
1.02566
1.40001
1.83818
1.04383
1.84143
1.40001
1.00654
1.39773
1.40001
1.40001
1.40001
1.02607
1.40001
1.40001
1.4
1.40001
1.41175
1.6737
1.40001
1.04216
1.40001
1.40001
1.40001
1.40001
1.40001
1.40001
1.40001
1.83485
1.40001
1.83853
1.40001
1.40001
1.40001
1.03811
1.40001
1.84089
1.0228
1.40001
1.75656
1.40001
1.40001
1.83839
1.40001
1.40001
1.40001
1.83416
1.40001
1.40001
1.82926
1.83847
1.40001
1.48932
1.40001
1.40001
1.02983
1.40001
1.40001
1.40001
1.03366
1.40001
1.40001
1.40001
1.40001
1.02943
1.40001
1.40001
1.40001
1.40001
1.40001
1.04494
1.40007
1.84256
1.40001
1.39998
1.84116
1.83844
1.40001
1.40001
1.03582
1.21214
1.84011
1.40001
1.40001
1.40001
1.84107
1.04296
1.40001
1.843
1.40001
1.40001
1.10386
1.10269
1.40001
1.02882
1.03745
1.40001
1.40001
1.40001
1.40001
1.40001
1.40001
1.40001
1.83463
1.50835
1.80828
1.04429
1.30362
1.84127
1.40001
1.83885
1.83921
1.03865
1.17104
1.40001
1.03537
1.40001
1.84531
1.40001
1.40001
1.40001
1.40001
1.8415
1.40001
1.40001
1.40001
1.40001
1.40001
1.40001
1.40001
1.55791
1.84284
1.40001
1.8418
1.40001
1.40001
1.03033
1.40001
1.40001
1.40001
1.40001
1.84161
1.73856
1.40001
1.40001
1.02609
1.84107
1.84194
1.40001
1.8421
1.84096
1.84167
1.40001
1.23678
1.40001
1.84221
1.38491
1.84179
1.40001
1.03409
1.39889
1.8382
1.40001
1.40001
1.40001
1.40001
1.03089
1.84282
1.79978
1.40001
1.83918
1.84148
1.84021
1.40001
1.61358
1.84133
1.40001
1.40001
1.70571
1.46159
1.84216
1.33254
1.84192
1.40001
1.84185
1.84182
1.84167
1.84134
1.40001
1.83575
1.3094
1.28817
1.40001
1.4
1.40001
1.40001
1.83944
1.40001
1.40001
1.40001
1.40001
1.40001
1.83856
1.40001
1.40001
1.39577
1.84185
1.79576
1.40001
1.76369
1.40005
1.40001
1.40001
1.84213
1.40001
1.39715
1.40502
1.40001
1.84173
1.40001
1.84034
1.40001
1.40001
1.72509
1.40001
1.84042
1.40003
1.40001
1.84073
1.40001
1.84156
1.40001
1.40001
1.40001
1.84157
1.40001
1.84126
1.40001
1.8417
1.83998
1.84175
1.83586
1.40001
1.83728
1.84693
1.40001
1.02666
1.81486
1.71726
1.40001
1.8414
1.40001
1.03075
1.04565
1.40001
1.40001
1.40001
1.40001
1.40001
1.03122
1.40001
1.84166
1.51702
1.84204
1.40001
1.40001
1.40001
1.40001
1.40001
1.84177
1.40001
1.84681
1.66601
1.18387
1.40001
1.40001
1.52902
1.51474
1.40001
1.40001
1.55307
1.40001
1.02138
1.84226
1.84201
1.40001
1.40001
1.40001
1.83712
1.40001
1.40003
1.84282
1.8428
1.34469
1.40001
1.40001
1.02419
1.80186
1.40001
1.40001
1.40001
1.40001
1.40001
1.84164
1.83802
1.40001
1.84159
1.83955
1.84187
1.40001
1.40001
1.40001
1.40001
1.03394
1.83742
1.40001
1.40001
1.802
1.8406
1.40001
1.8156
1.84206
1.40001
1.40001
1.40001
1.40001
1.40001
1.84187
1.40001
1.40001
1.40001
1.40001
1.8388
1.40001
1.83793
1.03439
1.40001
1.04145
1.40001
1.40001
1.40001
1.39665
1.03
1.39911
1.40001
1.40001
1.40001
1.46475
1.40001
1.40001
1.26284
1.40001
1.40001
1.40001
1.40001
1.40001
1.40001
1.40001
1.4
1.32456
1.4
1.40001
1.39739
1.40001
1.03141
1.40001
1.40001
1.40001
1.40001
1.72908
1.40001
1.40001
1.40001
1.40001
1.01785
1.40001
1.40001
1.81632
1.8372
1.4
1.40001
1.40001
1.28909
1.40001
1.40001
1.40001
1.40001
1.40001
1.40001
1.34444
1.4091
1.8414
1.40001
1.40001
1.40001
1.83929
1.28368
1.40001
1.40001
1.40001
1.84373
1.83472
1.40001
1.40001
1.40001
1.40001
1.40001
1.40001
1.40001
1.40001
1.40001
1.03949
1.40001
1.40001
1.84028
1.0318
1.40001
1.83917
1.40001
1.03096
1.40001
1.40001
1.03732
1.40001
1.40001
1.40001
1.40001
1.40001
1.40001
1.40001
1.83285
1.84086
1.40001
1.40001
1.40001
1.40001
1.80369
1.40001
1.53994
1.02804
1.40001
1.40001
1.40001
1.40001
1.40001
1.40001
1.40001
1.4312
1.40001
1.40001
1.62151
1.40001
1.40001
1.40001
1.7622
1.40001
1.40001
1.40001
1.40001
1.0359
1.40001
1.40001
1.01647
1.03767
1.40001
1.40001
1.84191
1.40001
1.38782
1.40001
1.40001
1.40001
1.70701
1.03716
1.40001
1.03116
1.40001
1.1773
1.40001
1.40001
1.40001
1.8412
1.40001
1.40001
1.8422
1.40001
1.40001
1.40001
1.84211
1.40001
1.40001
1.84259
1.40001
1.40001
1.03759
1.40001
1.53791
1.40001
1.40001
1.8406
1.84062
1.69605
1.7959
1.40001
1.03846
1.40001
1.40001
1.82267
1.40001
1.03175
1.40001
1.40001
1.40001
1.8416
1.40001
1.40001
1.40001
1.40001
1.66784
1.40001
1.82833
1.84411
1.0423
1.40001
1.40001
1.03458
1.03821
1.40001
1.40001
1.40001
1.71376
1.73389
1.40001
1.40001
1.40001
1.40001
1.40001
1.40001
1.40001
1.59183
1.83563
1.4036
1.40001
1.83688
1.04537
1.40001
1.40001
1.40001
1.63765
1.40001
1.48568
1.40001
1.80437
1.83971
1.40001
1.03115
1.40001
1.84107
1.40001
1.40001
1.84171
1.81338
1.40001
1.84138
1.40001
1.03876
1.40001
1.40001
1.40001
1.84532
1.83317
1.78797
1.40001
1.84343
1.84119
1.40001
1.84194
1.40001
1.83988
1.40001
1.03636
1.37358
1.03337
1.40001
1.40001
1.40001
1.40001
1.40001
1.84121
1.40001
1.84091
1.40001
1.40001
1.40001
1.81996
1.40001
1.03521
1.84215
1.40001
1.01668
1.05328
1.04252
1.40001
1.61691
1.43924
1.84327
1.84149
1.40001
1.4
1.40001
1.40001
1.84135
1.40001
1.40001
1.84138
1.84109
1.40001
1.55418
1.3998
1.40001
1.39681
1.83963
1.24653
1.40001
1.21026
1.02625
1.02044
1.35832
1.84321
1.83558
1.48493
1.84227
1.84151
1.40001
1.40001
1.83213
1.84069
1.84213
1.8403
1.40001
1.84171
1.03224
1.83963
1.84259
1.84046
1.84152
1.26402
1.29158
1.32209
1.84306
1.35235
1.84254
1.40001
1.40001
1.84341
1.84123
1.40001
1.03271
1.84062
1.84147
1.40001
1.84184
1.84188
1.40001
1.84156
1.01778
1.84099
1.83318
1.83529
1.84705
1.40001
1.40001
1.40001
1.84192
1.68886
1.04595
1.84168
1.01849
1.8421
1.40001
1.40001
1.40001
1.40001
1.83909
1.84176
1.40001
1.40001
1.84128
1.02432
1.84062
1.02934
1.40001
1.83892
1.40001
1.05274
1.84351
1.13321
1.40001
1.84191
1.84509
1.84232
1.40001
1.40001
1.59856
1.84432
1.02745
1.84174
1.40001
1.84183
1.27402
1.84266
1.03996
1.40001
1.84294
1.07589
1.84335
1.0308
1.40001
1.84184
1.40001
1.84311
1.40001
1.6588
1.82524
1.74818
1.01587
1.40001
1.84205
1.40001
1.84159
1.40001
1.84176
1.40001
1.40001
1.84253
1.38742
1.84406
1.05275
1.79513
1.40001
1.71056
1.40001
1.84244
1.84158
1.84145
1.40001
1.79764
1.84201
1.80829
1.67011
1.84118
1.40001
1.69425
1.40001
1.84223
1.40001
1.4588
1.40001
1.81031
1.40001
1.84189
1.8218
1.82062
1.40001
1.83147
1.0393
1.40001
1.03616
1.40001
1.40001
1.40001
1.84221
1.40001
1.84244
1.40001
1.40001
1.40001
1.84188
1.83269
1.76027
1.8413
1.83997
1.03804
1.84967
1.8455
1.40001
1.7851
1.84162
1.82009
1.40001
1.84015
1.84035
1.40001
1.84611
1.8402
1.84153
1.84296
1.40001
1.40001
1.40001
1.84231
1.0245
1.40001
1.84191
1.40001
1.40001
1.04621
1.40001
1.40001
1.84182
1.84199
1.40001
1.84157
1.84946
1.8399
1.37308
1.84151
1.40001
1.84159
1.84153
1.75468
1.40001
1.40001
1.40001
1.84061
1.84148
1.84141
1.34196
1.40001
1.8496
1.84139
1.84165
1.40001
1.84149
1.84189
1.84161
1.84795
1.40001
1.84226
1.84116
1.78319
1.84204
1.84566
1.40001
1.83559
1.83685
1.84139
1.84092
1.84309
1.02977
1.84177
1.84091
1.40001
1.84145
1.84145
1.84165
1.84205
1.40001
1.84187
1.84145
1.40001
1.84175
1.77189
1.40001
1.40001
1.40001
1.84147
1.84922
1.40001
1.40001
1.63712
1.40001
1.84156
1.40001
1.40001
1.84147
1.84348
1.84188
1.84135
1.40001
1.40001
1.40001
1.71277
1.40001
1.84222
1.40001
1.40001
1.83431
1.83265
1.40001
1.84177
1.03147
1.84199
1.84003
1.11669
1.40001
1.01953
1.78492
1.84166
1.84301
1.84224
1.04225
1.84187
1.84196
1.04438
1.01699
1.40001
1.84294
1.84221
1.40001
1.40001
1.84174
1.40001
1.8461
1.40001
1.78619
1.40001
1.60964
1.84244
1.84475
1.71225
1.79511
1.84518
1.84326
1.81854
1.40001
1.04058
1.84639
1.84116
1.84783
1.40002
1.40001
1.40001
1.8484
1.40001
1.84154
1.8416
1.15347
1.40001
1.84215
1.39995
1.40001
1.40003
1.40005
1.84131
1.84067
1.39848
1.40001
1.40001
1.84167
1.84405
1.84197
1.84219
1.84383
1.03757
1.7708
1.40001
1.83898
1.84213
1.84222
1.83402
1.40001
1.84167
1.83003
1.84282
1.40001
1.84152
1.84028
1.26385
1.84168
1.84086
1.40001
1.84209
1.23712
1.84119
1.25783
1.84182
1.40001
1.84183
1.8436
1.84159
1.84179
1.84174
1.83603
1.84217
1.83907
1.40001
1.32699
1.84159
1.84191
1.2351
1.8419
1.37393
1.67102
1.84173
1.8395
1.84006
1.40001
1.84445
1.69704
1.84221
1.31975
1.84371
1.84365
1.40001
1.26443
1.40001
1.83516
1.40001
1.70349
1.40001
1.83579
1.26321
1.40001
1.83904
1.84395
1.40001
1.84287
1.84353
1.84313
1.83573
1.83392
1.40001
1.837
1.40001
1.40001
1.40001
1.29245
1.84212
1.84075
1.83706
1.84178
1.84519
1.83974
1.84633
1.84228
1.29396
1.4305
1.40001
1.40001
1.84209
1.84203
1.8423
1.84215
1.40003
1.63267
1.40001
1.8468
1.78881
1.40001
1.40001
1.1341
1.84146
1.40001
1.40001
1.02453
1.84219
1.40001
1.84082
1.84201
1.8456
1.82469
1.84206
1.40001
1.02071
1.50913
1.84231
1.84189
1.40001
1.8415
1.84165
1.61714
1.41004
1.50181
1.40001
1.84366
1.84167
1.40001
1.40001
1.03366
1.40001
1.40001
1.84163
1.84186
1.84163
1.84192
1.8415
1.83807
1.84268
1.84101
1.84177
1.40001
1.39631
1.84086
1.84216
1.3969
1.8418
1.84153
1.02654
1.0426
1.84037
1.8499
1.40001
1.40001
1.40133
1.84226
1.84276
1.84206
1.40001
1.84177
1.40001
1.24679
1.84829
1.84723
1.40001
1.60474
1.84177
1.40001
1.83817
1.40001
1.84225
1.70908
1.84327
1.40001
1.8413
1.8376
1.03081
1.84157
1.40001
1.84053
1.83556
1.40001
1.02868
1.84057
1.77157
1.39756
1.82534
1.84147
1.40001
1.39252
1.84309
1.3977
1.84133
1.40001
1.40001
1.84108
1.40001
1.84048
1.84165
1.39636
1.75191
1.40001
1.84152
1.40001
1.40001
1.40001
1.40001
1.84204
1.40001
1.40001
1.83374
1.40001
1.84159
1.40001
1.6815
1.84185
1.84027
1.40001
1.40001
1.39319
1.40001
1.83988
1.8415
1.84028
1.84154
1.84095
1.84217
1.84148
1.40001
1.84199
1.8408
1.40001
1.84192
1.84221
1.40001
1.84215
1.3263
1.45703
1.84166
1.84202
1.84231
1.40001
1.84152
1.40001
1.84198
1.84179
1.40001
1.84077
1.40001
1.40001
1.40001
1.40001
1.84231
1.02126
1.39783
1.40001
1.84216
1.84403
1.40001
1.84201
1.40001
1.40505
1.03498
1.84174
1.39964
1.40001
1.84144
1.39843
1.84167
1.40001
1.39978
1.40001
1.84092
1.83915
1.84258
1.84314
1.0326
1.8422
1.84187
1.84188
1.51229
1.40001
1.40001
1.59035
1.84146
1.01923
1.03269
1.40001
1.84131
1.8411
1.84387
1.40001
1.40001
1.84061
1.8424
1.3999
1.40001
1.7207
1.03313
1.40001
1.47737
1.83766
1.84152
1.39826
1.84173
1.85076
1.40001
1.39894
1.40001
1.84228
1.83951
1.57857
1.40001
1.8275
1.40001
1.40215
1.84052
1.04696
1.84155
1.84141
1.39694
1.39992
1.79352
1.40001
1.3997
1.40001
1.84315
1.40001
1.40002
1.02646
1.84168
1.40001
1.40001
1.40001
1.40001
1.8479
1.65286
1.40001
1.40001
1.03349
1.84204
1.65312
1.40001
1.40001
1.40001
1.8217
1.82142
1.84492
1.40001
1.40001
1.84626
1.40001
1.84204
1.84149
1.40001
1.40001
1.84324
1.84146
1.81972
1.40001
1.40001
1.84339
1.84324
1.40001
1.40001
1.40001
1.84299
1.40001
1.40001
1.40001
1.84257
1.84627
1.84506
1.40001
1.84724
1.40004
1.09368
1.84173
1.84147
1.40001
1.83955
1.82992
1.836
1.40001
1.40001
1.84476
1.40001
1.63228
1.84029
1.40001
1.03167
1.40001
1.84382
1.40001
1.40001
1.83996
1.40001
1.40001
1.40001
1.53648
1.84094
1.0806
1.40002
1.84293
1.40001
1.40001
1.84062
1.40001
1.84451
1.40001
1.40001
1.84205
1.84185
1.40001
1.40005
1.40001
1.40001
1.40001
1.40001
1.40001
1.40001
1.8489
1.84154
1.40001
1.84054
1.02899
1.85044
1.40001
1.84175
1.84339
1.84217
1.84036
1.84249
1.40001
1.40001
1.83785
1.40001
1.66629
1.84491
1.84128
1.40001
1.84592
1.84115
1.40001
1.79798
1.40001
1.84211
1.68473
1.83876
1.39763
1.83996
1.80247
1.84262
1.84321
1.43514
1.84193
1.84528
1.40001
1.84213
1.40001
1.84165
1.40001
1.40001
1.40001
1.40001
1.39648
1.84186
1.8418
1.7578
1.40001
1.84501
1.40001
1.40001
1.40001
1.01444
1.40001
1.83379
1.40001
1.80047
1.82538
1.40001
1.40001
1.40001
1.81125
1.83487
1.40001
1.40001
1.84318
1.03773
1.4667
1.40001
1.84411
1.84199
1.80147
1.83355
1.84169
1.40001
1.84174
1.40001
1.40001
1.40001
1.40001
1.84107
1.8416
1.40001
1.82528
1.45462
1.84148
1.8116
1.40001
1.40001
1.81337
1.40001
1.40001
1.01385
1.71131
1.40001
1.40001
1.84429
1.40001
1.8456
1.80413
1.40001
1.80025
1.03755
1.84218
1.84159
1.84231
1.40001
1.02865
1.40001
1.40001
1.40001
1.84245
1.76626
1.40001
1.84135
1.84165
1.40001
1.84163
1.40001
1.40001
1.40001
1.40001
1.84166
1.39939
1.40001
1.84357
1.40001
1.40001
1.8444
1.84154
1.40001
1.84227
1.48892
1.40003
1.40001
1.84191
1.40001
1.84186
1.40001
1.41429
1.84156
1.40001
1.84183
1.40001
1.40001
1.54044
1.84389
1.40001
1.40001
1.40001
1.40001
1.40001
1.39618
1.03248
1.02578
1.42078
1.40001
1.42174
1.40001
1.42595
1.40001
1.84181
1.40001
1.68149
1.40001
1.84224
1.40001
1.40001
1.40001
1.84208
1.40001
1.76778
1.84128
1.40001
1.6367
1.84333
1.40001
1.40001
1.84341
1.84188
1.40001
1.40001
1.4506
1.01604
1.40001
1.84266
1.40001
1.40001
1.40001
1.40001
1.47617
1.84175
1.40001
1.40001
1.40001
1.02793
1.40001
1.8421
1.84163
1.84804
1.40001
1.40001
1.40001
1.40001
1.62059
1.84649
1.40001
1.40001
1.40001
1.84246
1.84166
1.44992
1.40001
1.40001
1.40001
1.84215
1.84164
1.40001
1.02902
1.84222
1.84152
1.84292
1.84296
1.84456
1.40001
1.40001
1.84353
1.84545
1.84105
1.0246
1.44104
1.84139
1.40001
1.40001
1.40001
1.40001
1.40001
1.84148
1.03396
1.40001
1.40001
1.8411
1.5947
1.40001
1.8444
1.40001
1.40001
1.40001
1.02613
1.40001
1.40001
1.51607
1.84231
1.84196
1.40001
1.84708
1.8418
1.40001
1.46604
1.40001
1.84606
1.40001
1.84026
1.03652
1.40001
1.40001
1.40001
1.40001
1.84179
1.40008
1.40001
1.40001
1.40001
1.82711
1.40001
1.40001
1.40001
1.40001
1.84185
1.02992
1.75307
1.843
1.40001
1.84156
1.40001
1.40001
1.40001
1.39712
1.40001
1.84228
1.40001
1.2054
1.40001
1.40001
1.40004
1.84171
1.03413
1.40001
1.84475
1.40001
1.84409
1.8416
1.0502
1.40001
1.40001
1.8228
1.40001
1.40001
1.04235
1.40001
1.8382
1.40001
1.82206
1.3993
1.8407
1.40001
1.40001
1.40001
1.40001
1.83638
1.40001
1.40001
1.84194
1.40001
1.40001
1.40001
1.40001
1.40001
1.40001
1.40001
1.40001
1.68735
1.40001
1.54032
1.84141
1.40001
1.40001
1.40001
1.03298
1.40001
1.40001
1.40001
1.40001
1.84248
1.84222
1.45342
1.40001
1.40001
1.84296
1.40001
1.40001
1.84451
1.40001
1.40002
1.40001
1.40001
1.40001
1.40002
1.84016
1.18111
1.84173
1.84346
1.39685
1.40001
1.40001
1.40001
1.66147
1.40001
1.40001
1.84089
1.84146
1.40001
1.40001
1.40001
1.40001
1.05529
1.40001
1.40001
1.40001
1.67727
1.40001
1.84205
1.8458
1.40001
1.84234
1.40001
1.40001
1.40001
1.63656
1.40001
1.83688
1.40001
1.84166
1.40001
1.40001
1.39637
1.84155
1.40001
1.40001
1.40001
1.40001
1.40001
1.84223
1.40003
1.40001
1.01364
1.84678
1.01084
1.40001
1.84114
1.40001
1.39608
1.40001
1.8435
1.83949
1.40001
1.8391
1.27707
1.84162
1.84882
1.40004
1.40001
1.40001
1.0287
1.40001
1.40001
1.40001
1.84184
1.6564
1.84695
1.40001
1.40001
1.40001
1.40001
1.39696
1.84028
1.40001
1.03602
1.40001
1.40001
1.40001
1.40001
1.40001
1.40001
1.40001
1.84501
1.84073
1.83785
1.40001
1.40001
1.39691
1.40001
1.37334
1.40001
1.40001
1.40001
1.03494
1.37307
1.40001
1.03877
1.0295
1.40001
1.84236
1.84201
1.40001
1.83964
1.84191
1.03479
1.69473
1.40001
1.40001
1.40001
1.03588
1.84123
1.40001
1.03521
1.40001
1.8358
1.46733
1.40001
1.40001
1.40001
1.40001
1.84173
1.83686
1.40001
1.40001
1.84171
1.40001
1.40001
1.84015
1.84154
1.40001
1.79814
1.84199
1.84163
1.36329
1.83991
1.40858
1.03781
1.74077
1.8414
1.40001
1.40001
1.40001
1.03382
1.40001
1.03044
1.84032
1.35444
1.84205
1.3458
1.40001
1.84087
1.60654
1.40001
1.40001
1.84077
1.40001
1.58313
1.84255
1.40001
1.40001
1.83403
1.84894
1.03441
1.65299
1.3999
1.40001
1.67083
1.40001
1.848
1.3423
1.85026
1.84263
1.40001
1.40001
1.40001
1.40001
1.82794
1.40001
1.40001
1.84055
1.39965
1.84092
1.75734
1.84153
1.02856
1.40001
1.40001
1.40001
1.40001
1.84208
1.40005
1.84201
1.40001
1.84069
1.84212
1.45529
1.84756
1.5414
1.84158
1.40001
1.69925
1.05917
1.84016
1.8419
1.74848
1.46629
1.83741
1.84162
1.84152
1.84266
1.40001
1.31793
1.46784
1.40001
1.84203
1.61643
1.84022
1.40004
1.40001
1.40001
1.07849
1.84862
1.83914
1.75528
1.40001
1.56399
1.40001
1.84142
1.83837
1.40001
1.84045
1.84012
1.40001
1.40001
1.40001
1.84044
1.40001
1.57648
1.84574
1.70947
1.40001
1.84078
1.40001
1.40001
1.40001
1.40001
1.40001
1.40001
1.40001
1.40001
1.40001
1.40001
1.07703
1.40001
1.82894
1.02873
1.66168
1.39857
1.843
1.40001
1.63692
1.40002
1.68192
1.77698
1.40001
1.40181
1.83956
1.30597
1.40001
1.84098
1.84457
1.34132
1.40001
1.84156
1.84224
1.84504
1.40001
1.84185
1.83996
1.8401
1.40001
1.59534
1.40001
1.40006
1.84085
1.40001
1.8408
1.46635
1.8425
1.40001
1.40001
1.84414
1.84342
1.05999
1.40001
1.84316
1.73318
1.84082
1.40001
1.40001
1.84045
1.84223
1.39822
1.40001
1.79517
1.39689
1.84131
1.40007
1.40001
1.40001
1.40001
1.40001
1.59932
1.40001
1.73974
1.84083
1.73004
1.84215
1.40001
1.40291
1.40001
1.40001
1.84179
1.40001
1.83943
1.40001
1.40001
1.40001
1.40001
1.4
1.40001
1.45497
1.63307
1.40001
1.40001
1.02781
1.40001
1.84513
1.07853
1.84305
1.40001
1.61421
1.39976
1.84134
1.68347
1.05336
1.64278
1.40004
1.84177
1.84067
1.40001
1.6703
1.84258
1.83999
1.3984
1.84902
1.82914
1.02822
1.40001
1.40001
1.39797
1.40001
1.84148
1.40001
1.05258
1.84235
1.40001
1.40001
1.79094
1.40001
1.84087
1.40001
1.84155
1.40001
1.05805
1.40001
1.40001
1.84038
1.84412
1.83958
1.40001
1.83935
1.84159
1.84458
1.40001
1.40001
1.82711
1.4
1.11643
1.40001
1.40001
1.40001
1.84068
1.40001
1.842
1.68345
1.83998
1.40001
1.84156
1.39936
1.40001
1.40001
1.40001
1.40001
1.40001
1.40001
1.09937
1.40001
1.40001
1.84178
1.40001
1.84232
1.84757
1.40001
1.04808
1.02754
1.40001
1.84312
1.47613
1.03643
1.00458
1.40001
1.84006
1.40001
1.83901
1.0464
1.40158
1.40001
1.40001
1.39952
1.40001
1.40001
1.40001
1.39992
1.58181
1.84149
1.40001
1.40001
1.84345
1.66161
1.40001
1.81562
1.83994
1.83946
1.58248
1.84331
1.40001
1.84151
1.40001
1.8434
1.40001
1.84048
1.84372
1.39691
1.84009
1.84843
1.40001
1.40001
1.40001
1.40001
1.40001
1.31672
1.83712
1.40005
1.40003
1.03795
1.39999
1.03491
1.02132
1.40001
1.84008
1.84128
1.84028
1.40001
1.84246
1.40001
1.0282
1.40001
1.40001
1.83942
1.21829
1.84278
1.40001
1.84121
1.40001
1.37408
1.84271
1.40001
1.40001
1.40001
1.84135
1.40001
1.8429
1.03665
1.40001
1.40001
1.65846
1.40001
1.40001
1.63786
1.40001
1.40001
1.84222
1.40001
1.40001
1.40001
1.40001
1.40001
1.83617
1.84156
1.40001
1.84179
1.83948
1.03749
1.6071
1.83911
1.40001
1.40001
1.79758
1.39899
1.40001
1.40001
1.84166
1.84265
1.68916
1.40001
1.83881
1.05021
1.82527
1.39951
1.40001
1.84073
1.40004
1.84005
1.76437
1.7374
1.40001
1.40001
1.84171
1.10456
1.05066
1.40001
1.84307
1.40001
1.84252
1.40001
1.66753
1.40001
1.40001
1.84071
1.68102
1.03441
1.40001
1.39853
1.40001
1.40001
1.425
1.58309
1.84186
1.40001
1.84187
1.40001
1.40001
1.40001
1.40001
1.40001
1.40001
1.46543
1.03722
1.40001
1.40001
1.43715
1.40001
1.40001
1.40001
1.40001
1.40001
1.8413
1.40001
1.40001
1.84266
1.84246
1.71433
1.40001
1.40001
1.40001
1.22857
1.84015
1.70925
1.40001
1.40001
1.40001
1.40001
1.84409
1.40001
1.40001
1.40001
1.84612
1.40001
1.40001
1.71796
1.8544
1.4348
1.13186
1.8423
1.71636
1.84335
1.40001
1.6211
1.40001
1.40001
1.40001
1.04387
1.40305
1.04272
1.40001
1.04595
1.02615
1.40001
1.03697
1.40001
1.40001
1.40001
1.59856
1.40001
1.83875
1.84102
1.40062
1.60973
1.77173
1.04546
1.16408
1.28046
1.40001
1.84154
1.84091
1.84171
1.84177
1.77998
1.27463
1.40001
1.7819
1.40001
1.8316
1.40001
1.40001
1.39649
1.40772
1.40001
1.40001
1.40001
1.84172
1.40001
1.03301
1.40001
1.84278
1.01554
1.40001
1.40001
1.84173
1.40001
1.84181
1.39992
1.40001
1.40001
1.84231
1.78317
1.40001
1.85399
1.40001
1.40001
1.41376
1.40001
1.59966
1.40001
1.40001
1.03705
1.40001
1.40001
1.83987
1.4
1.84297
1.40001
1.40004
1.02418
1.40001
1.40001
1.01448
1.40083
1.40001
1.84095
1.0348
1.846
1.038
1.84336
1.40001
1.40001
1.40001
1.40001
1.4
1.40001
1.40001
1.40001
1.40001
1.40001
1.40001
1.82393
1.40001
1.84366
1.83886
1.03858
1.40001
1.40001
1.40001
1.40001
1.40001
1.40001
1.82965
1.40001
1.40001
1.03035
1.40001
1.40001
1.83995
1.40001
1.40001
1.57449
1.77147
1.03338
1.04494
1.08705
1.13071
1.40001
1.39644
1.01812
1.40019
1.82007
1.39686
1.40001
1.40001
1.84268
1.40001
1.40001
1.40001
1.15805
1.40002
1.56272
1.40001
1.40001
1.57546
1.84195
1.40001
1.03556
1.40001
1.40001
1.40001
1.39663
1.40001
1.84311
1.84155
1.40001
1.03796
1.40001
1.63927
1.03163
1.40001
1.28417
1.40001
1.39626
1.01689
1.40001
1.40001
1.40001
1.39566
1.0501
1.40001
1.04679
1.39837
1.6281
1.8081
1.04519
1.02798
1.40001
1.39061
1.40001
1.39866
1.40001
1.84081
1.84253
1.40001
1.40785
1.84159
1.84134
1.40001
1.40001
1.84154
1.40001
1.40001
1.40005
1.40001
1.84121
1.40001
1.40001
1.41829
1.40001
1.39859
1.09898
1.40001
1.40001
1.40001
1.40001
1.40001
1.84575
1.43354
1.40005
1.40001
1.40001
1.40001
1.40001
1.40001
1.40004
1.40001
1.03685
1.49348
1.39866
1.84104
1.83404
1.40001
1.41479
1.84056
1.78635
1.40001
1.40001
1.02939
1.8403
1.40001
1.8402
1.40001
1.84287
1.7035
1.03248
1.40001
1.03308
1.80202
1.39969
1.40001
1.03677
1.0294
1.40001
1.40001
1.77326
1.40001
1.4
1.03812
1.40001
1.40001
1.40001
1.54321
1.40001
1.03877
1.84126
1.40001
1.40001
1.40001
1.40001
1.84215
1.40001
1.40001
1.84697
1.79572
1.40001
1.40001
1.40001
1.84697
1.03929
1.40001
1.84111
1.84144
1.40001
1.75323
1.4
1.40004
1.40001
1.40001
1.82628
1.40597
1.40001
1.02521
1.64932
1.40001
1.40001
1.3978
1.40001
1.40001
1.84026
1.40001
1.40001
1.40003
1.40001
1.83898
1.40001
1.40001
1.40001
1.40001
1.40001
1.40001
1.40002
1.59623
1.40001
1.84202
1.40001
1.40001
1.84282
1.40001
1.40001
1.40001
1.84125
1.84731
1.44601
1.40001
1.39758
1.40001
1.40001
1.40001
1.40001
1.83838
1.40001
1.40001
1.84301
1.02418
1.40001
1.40001
1.40001
1.40001
1.40001
1.40001
1.75833
1.40001
1.40001
1.83965
1.8421
1.40001
1.40001
1.40001
1.84097
1.84393
1.40001
1.39971
1.84011
1.40001
1.40001
1.40001
1.40002
1.01928
1.42954
1.39627
1.39578
1.40001
1.40001
1.0424
1.84269
1.40001
1.04499
1.40001
1.84031
1.82448
1.03197
1.39941
1.84159
1.8399
1.84171
1.40001
1.40001
1.3191
1.80626
1.76833
1.04069
1.40001
1.40001
1.40001
1.84175
1.84167
1.03616
1.39729
1.40001
1.84182
1.0104
1.40001
1.83686
1.03953
1.36848
1.40634
1.40001
1.84659
1.40001
1.40001
1.40001
1.40001
1.40001
1.40001
1.40011
1.81111
1.40001
1.40001
1.84757
1.40001
1.40001
1.40001
1.84168
1.40001
1.03682
1.40001
1.40001
1.40001
1.55413
1.40001
1.40001
1.40001
1.40001
1.40001
1.17514
1.40001
1.00631
1.40001
1.84182
1.40008
1.25015
1.26179
1.40002
1.40356
1.6277
1.40001
1.40001
1.02897
1.84208
1.84162
1.84173
1.40001
1.0355
1.03906
1.40001
1.84236
1.40001
1.40001
1.40001
1.40001
1.40001
1.40004
1.40001
1.03508
1.68214
1.40001
1.40001
1.03433
1.38028
1.40001
1.40001
1.40001
1.40001
1.0161
1.40001
1.05569
1.40001
1.40001
1.83982
1.40001
1.40001
1.03509
1.40001
1.84255
1.40001
1.03874
1.40001
1.04485
1.40001
1.40846
1.84229
1.84852
1.40001
1.40001
1.83869
1.40001
1.40001
1.49729
1.39675
1.40001
1.39828
1.40001
1.84343
1.40001
1.05261
1.40002
1.83876
1.39904
1.40001
1.40001
1.18006
1.40001
1.39905
1.03973
1.83991
1.55473
1.40001
1.40001
1.2998
1.40001
1.40001
1.40001
1.18244
1.40001
1.40001
1.40001
1.84154
1.40001
1.03114
1.4
1.40001
1.40001
1.40001
1.03034
1.84303
1.81063
1.03365
1.40001
1.84808
1.40001
1.40001
1.84124
1.83951
1.77345
1.02811
1.39769
1.39931
1.40001
1.84165
1.40001
1.40001
1.40001
1.40001
1.84282
1.40005
1.40001
1.40001
1.83546
1.40001
1.40001
1.84182
1.03307
1.40001
1.40001
1.40001
1.03585
1.40001
1.4
1.4
1.39869
1.40001
1.40001
1.40001
1.40001
1.7435
1.40001
1.84148
1.84179
1.85208
1.84091
1.84068
1.84198
1.40001
1.84059
1.40001
1.84162
1.84172
1.40001
1.39887
1.03434
1.77948
1.39989
1.40001
1.40001
1.40001
1.40001
1.39208
1.40001
1.47164
1.40001
1.40001
1.40001
1.24089
1.84191
1.84225
1.8408
1.79023
1.39987
1.40001
1.4217
1.84018
1.39796
1.45628
1.39736
1.03559
1.40001
1.40003
1.40001
1.40001
1.40001
1.40001
1.40001
1.84183
1.03694
1.84242
1.84218
1.39529
1.04027
1.40001
1.40001
1.40001
1.84179
1.04043
1.78983
1.03037
1.84252
1.84105
1.04513
1.84313
1.42322
1.40001
1.84323
1.18683
1.40001
1.39872
1.02246
1.40001
1.02982
1.40001
1.84194
1.84171
1.13203
1.40001
1.84016
1.03365
1.40001
1.03423
1.40001
1.84296
1.40001
1.40001
1.83735
1.40001
1.22625
1.40001
1.39966
1.02241
1.84447
1.39951
1.40001
1.04195
1.40001
1.40001
1.40001
1.40001
1.63526
1.40001
1.84253
1.40001
1.40001
1.84632
1.40001
1.40001
1.84046
1.40001
1.01616
1.40001
1.02354
1.40002
1.40001
1.40001
1.40001
1.40001
1.82345
1.65677
1.84158
1.40001
1.84156
1.81202
1.02558
1.03175
1.40001
1.40001
1.84293
1.40001
1.02176
1.40001
1.3778
1.40001
1.40001
1.84366
1.40001
1.83889
1.0319
1.84738
1.40001
1.03589
1.40001
1.40001
1.83961
1.84044
1.40001
1.40005
1.40001
1.84687
1.40001
1.40001
1.01824
1.39941
1.02192
1.40001
1.40001
1.40001
1.84331
1.84621
1.84047
1.40001
1.40001
1.03629
1.40001
1.84288
1.40001
1.40001
1.40001
1.81451
1.84148
1.84153
1.04437
1.84308
1.8421
1.04267
1.84095
1.40005
1.04041
1.41423
1.40001
1.40001
1.84076
1.04404
1.68087
1.04197
1.84213
1.39736
1.04054
1.84393
1.40001
1.40001
1.40001
1.40001
1.84172
1.83904
1.04402
1.40001
1.40003
1.03074
1.40004
1.40001
1.05378
1.04703
1.70705
1.84086
1.39846
1.84278
1.40001
1.83986
1.21348
1.03774
1.84217
1.85321
1.40001
1.84228
1.40001
1.40001
1.84212
1.40001
1.73483
1.84063
1.40001
1.40001
1.40001
1.40001
1.84227
1.83699
1.84059
1.40001
1.40001
1.84001
1.83316
1.84069
1.40001
1.84242
1.40001
1.40001
1.40001
1.40001
1.40001
1.03288
1.2324
1.03367
1.40001
1.40001
1.83994
1.40001
1.40001
1.84296
1.03309
1.40001
1.84187
1.83721
1.81972
1.01645
1.40001
1.03926
1.40001
1.40003
1.83961
1.62271
1.84012
1.80473
1.40001
1.03702
1.40001
1.84412
1.71476
1.03632
1.40001
1.40001
1.40001
1.18172
1.40001
1.40001
1.84663
1.40001
1.03021
1.84164
1.40001
1.40001
1.40001
1.40001
1.40001
1.7558
1.49936
1.40001
1.84165
1.40001
1.84154
1.40001
1.39679
1.40001
1.84234
1.84047
1.84218
1.84519
1.39959
1.84078
1.40001
1.84203
1.84305
1.77445
1.40001
1.40001
1.03628
1.83943
1.40001
1.40001
1.84778
1.84221
1.83844
1.40001
1.84077
1.40001
1.40001
1.40004
1.83926
1.84056
1.52106
1.49949
1.84143
1.84249
1.05876
1.40001
1.40001
1.40001
1.40001
1.40002
1.56283
1.40001
1.40001
1.76474
1.01861
1.39998
1.40001
1.84258
1.39991
1.39981
1.46193
1.81069
1.84019
1.3044
1.40001
1.02843
1.40001
1.39593
1.84185
1.84516
1.84383
1.39902
1.40001
1.40001
1.02798
1.40001
1.40001
1.84181
1.44832
1.40001
1.40001
1.40001
1.40001
1.40001
1.40001
1.40001
1.39994
1.83979
1.40002
1.40001
1.40001
1.40001
1.40001
1.69572
1.40001
1.60916
1.40001
1.40001
1.8418
1.84725
1.03313
1.39882
1.40001
1.4
1.40001
1.0424
1.84187
1.8412
1.40001
1.40001
1.40001
1.40001
1.40001
1.40001
1.40001
1.40001
1.84155
1.8415
1.0374
1.45038
1.03645
1.40001
1.03114
1.40001
1.84075
1.51445
1.40001
1.40001
1.10454
1.40001
1.82107
1.2033
1.39641
1.02957
1.40001
1.40001
1.83818
1.40005
1.39685
1.02036
1.841
1.8478
1.40001
1.40001
1.40001
1.40001
1.81268
1.40001
1.40001
1.84142
1.39896
1.84155
1.40003
1.40001
1.40001
1.02668
1.40001
1.40001
1.84118
1.03177
1.17506
1.02442
1.84204
1.39938
1.40001
1.84061
1.04591
1.02701
1.41526
1.40001
1.40001
1.83918
1.40005
1.60392
1.40001
1.40001
1.83895
1.03939
1.40001
1.40001
1.40014
1.84163
1.40012
1.83729
1.40001
1.40004
1.40001
1.40001
1.12742
1.40001
1.18297
1.40002
1.40001
1.8402
1.02997
1.40001
1.16382
1.19578
1.40001
1.40001
1.84173
1.40001
1.40001
1.40001
1.84314
1.84101
1.40006
1.82641
1.83904
1.17852
1.84178
1.83099
1.40001
1.40001
1.84207
1.4
1.40001
1.40001
1.40001
1.40001
1.84663
1.84206
1.40001
1.40001
1.40001
1.84209
1.40021
1.40001