/*--------------------------------*- C++ -*----------------------------------*\
  =========                 |
  \\      /  F ield         | OpenFOAM: The Open Source CFD Toolbox
   \\    /   O peration     | Website:  https://openfoam.org
    \\  /    A nd           | Version:  12
     \\/     M anipulation  |
\*---------------------------------------------------------------------------*/
FoamFile
{
    format      ascii;
    class       volScalarField;
    location    "7.56";
    object      T;
}
// * * * * * * * * * * * * * * * * * * * * * * * * * * * * * * * * * * * * * //

dimensions      [0 0 0 1 0 0 0];

internalField   nonuniform List<scalar> 
22702
(
1
1
0.958333
1
1.01868
1
1.12028
1
1
0.896429
1.1206
1.12024
1
1.11868
0.965195
1
1
1
1.12081
1
1.11882
1
1.11978
0.89546
1.11759
0.889449
1
1.12009
0.898425
0.895061
1
1.12021
1
1
1
1.11072
1.11806
1.11992
1
1
0.896431
1
1.06257
1
1.12011
1
1
1
1
0.897261
1
0.896008
1
1.12026
1
1.12071
1
1
1
1
0.891908
1
1
0.893005
1
0.898208
1
1
1
0.892534
1
1.11864
1.07624
1
1.11838
1.12459
0.899454
1.11946
0.89977
1
1.12135
0.897314
1.11988
1.11888
1
1
1
1
0.977906
0.892537
1.12146
1
1
0.889244
1
1.11862
0.888671
1
1
1
1
1.06294
1.12108
0.889694
1
1
1.03285
1
0.8965
1
1.12049
1.12027
1
1
0.883542
0.884369
0.892994
1
1
1
1
1
0.972219
1
1.1037
1.01533
1.11918
1
1.11973
1.12125
1.11857
1.1199
1
0.892709
1
0.887762
1
1
1
1
1.12097
1
1
1
1
1.11845
1
1.00808
1
1
1
1
0.898445
1
1.00304
1
0.900191
1
1
1
1.12107
1
1.11902
0.882823
0.89106
1.11856
1.11899
1
1.02155
1.07142
1
1.12073
0.900079
1.11092
1
1
1
1
1.11868
1.0961
1
1.12063
0.891395
1.12075
1
0.897477
1
0.897369
0.88883
0.999938
1
1
1.12101
1
1
1.11842
1
1.12077
1.12064
0.895319
1
1
0.896025
1.11852
1
1
1
1.1185
1
0.891391
1
1
1.11863
1.11855
1.12063
1
1.00001
1
1
1
1.11849
1
0.893394
1.1229
1.11849
1.11919
1
1
1
0.893433
1.11877
1.06007
1
1.11892
0.894636
0.893397
1.11896
1.11899
1
1.12088
0.88347
1.10635
1
1
1
1
1.1186
1
1.07179
1.01223
1
1
1.11847
0.888132
0.927227
1
1.11901
0.88928
1.11908
1
1
1
1
1
1
1
0.897414
0.929342
0.891156
1.11851
1
1
1
1
1.10814
1
0.897555
1
0.886913
0.897808
1.11884
0.895193
1.11878
1
1
1
0.999277
0.89662
0.885157
1
1
0.887226
1
1.12099
0.888882
1
1
1.12079
0.884977
1
1.11868
0.891556
1.11847
1
0.89077
0.999352
1
1
1
0.896364
1
1
1
1
1.00567
1.07655
1
0.890648
1
1
1
1
1
1
1
1.12011
1
1.12122
1
1
1
0.889956
1
1.1185
0.894159
1
1.09514
1
1
1.12044
1
1
1
1.11925
1
1
1.11698
1.12052
1
1.02743
1
1
0.887868
1
1
1
0.889131
1
1
1
1
0.886303
1
1
1
1
1
0.891552
1.00002
1.11899
1
0.999992
1.11886
1.11867
1
1
0.899524
0.946243
1.12105
1
1
1
1.1184
0.891929
1
1.11896
1
1
0.911361
0.910976
1
0.898854
0.889771
1
1
1
1
1
1
1
1.11877
1.03268
1.1118
0.891217
0.974351
1.12202
1
1.11827
1.12047
0.891072
0.933233
1
0.889879
1
1.12402
1
1
1
1
1.11853
1
1
1
1
1
1
1
1.04618
1.12068
1
1.11863
1
1
0.899374
1
1
1
1
1.11848
1.09313
1
1
0.898773
1.11842
1.11858
1
1.11864
1.1184
1.11858
1
0.953874
1
1.11867
0.99798
1.11863
1
0.889856
0.999682
1.12074
1
1
1
1
0.89487
1.11888
1.10829
1
1.11803
1.11849
1.12107
1
1.0599
1.11865
1
1
1.08479
1.01758
1.11864
0.982808
1.11858
1
1.1186
1.11858
1.11854
1.11848
1
1.11543
0.975918
0.969637
1
1
1
1
1.11723
1
1
1
1
1
1.12051
1
1
0.998789
1.11855
1.10716
1
1.10029
1.00001
1
1
1.11866
1
0.99917
1.00143
1
1.11849
1
1.11847
1
1
1.08968
1
1.11838
1.00001
1
1.11835
1
1.11847
1
1
1
1.11856
1
1.11782
1
1.11858
1.12149
1.11849
1.11862
1
1.12034
1.12135
1
0.897575
1.11199
1.08768
1
1.11853
1
0.887846
0.892035
1
1
1
1
1
0.887909
1
1.11857
1.03505
1.11864
1
1
1
1
1
1.11853
1
1.1197
1.07462
0.937367
1
1
1.03729
1.03254
1
1
1.0448
1
0.899857
1.11863
1.11856
1
1
1
1.12042
1
1.00001
1.11932
1.11887
0.986317
1
1
0.896728
1.10876
1
1
1
1
1
1.11848
1.12059
1
1.1185
1.118
1.11853
1
1
1
1
0.888455
1.12014
1
1
1.10886
1.11831
1
1.11219
1.12066
1
1
1
1
1
1.11853
1
1
1
1
1.11834
1
1.11692
0.889178
1
0.89094
1
1
1
0.999041
0.897122
0.999744
1
1
1
1.019
1
1
0.961879
1
1
1
1
1
1
1
0.999999
0.980481
1
1
0.999254
1
0.894891
1
1
1
1
1.09074
1
1
1
1
0.894444
1
1
1.11234
1.12008
1
1
1
0.969728
1
1
1
1
1
1
0.986224
1.005
1.11853
1
1
1
1.11794
0.96825
1
1
1
1.12034
1.11864
1
1
1
1
1
1
1
1
1
0.890557
1
1
1.11983
0.890033
1
1.11947
1
0.899685
1
1
0.890027
1
1
1
1
1
1
1
1.11643
1.11837
1
1
1
1
1.10928
1
1.04128
0.897783
1
1
1
1
1
1
1
1.0112
1
1
1.06352
1
1
1
1.099
1
1
1
1
0.889713
1
1
0.882195
0.890421
1
1
1.11861
1
1.00783
1
1
1
1.08513
0.889134
1
0.887134
1
0.935179
1
1
1
1.11897
1
1
1.11864
1
1
1
1.11865
1
1
1.11874
1
1
0.890955
1
1.04069
1
1
1.12159
1.12185
1.08234
1.10734
1
0.890983
1
1
1.11387
1
0.887774
1
1
1
1.11849
1
1
1
1
1.07507
1
1.11584
1.11942
0.891661
1
1
0.888463
0.889839
1
1
1
1.08683
1.09194
1
1
1
1
1
1
1
1.05519
1.11945
1.00338
1
1.11743
0.892664
1
1
1
1.06723
1
1.02486
1
1.10937
1.11807
1
0.889375
1
1.12101
1
1
1.11857
1.11164
1
1.12106
1
0.897215
1
1
1
1.12089
1.11649
1.10534
1
1.11975
1.11838
1
1.11857
1
1.11812
1
0.889917
0.994748
0.888197
1
1
1
1
1
1.11846
1
1.11838
1
1
1
1.11326
1
0.898083
1.11862
1
0.895408
0.894517
0.890891
1
1.06176
1.01346
1.11892
1.11847
1
1
1
1
1.11846
1
1
1.11847
1.11835
1
1.0451
0.999936
1
0.999086
1.12073
0.956929
1
0.945634
0.900168
0.899063
0.997835
1.11961
1.11706
1.02629
1.1187
1.11851
1
1
1.11962
1.12059
1.11865
1.12157
1
1.11856
0.898582
1.11868
1.11925
1.1194
1.11874
0.962213
0.970646
0.979748
1.11887
0.988702
1.119
1
1
1.11896
1.1185
1
0.889203
1.11904
1.11846
1
1.11865
1.11862
1
1.11845
0.894976
1.11877
1.11935
1.11996
1.11962
1
1
1
1.11857
1.0805
0.891965
1.11854
0.882927
1.11862
1
1
1
1
1.11796
1.11855
1
1
1.11843
0.885041
1.11837
0.897206
1
1.11787
1
0.898072
1.11898
0.921074
1
1.11858
1.11938
1.1186
1
1
1.05637
1.11919
0.897504
1.11862
1
1.11863
0.965274
1.11865
0.890683
1
1.11905
0.901988
1.11896
0.898128
1
1.11855
1
1.12
1
1.07272
1.11456
1.09546
0.882027
1
1.11869
1
1.11851
1
1.11862
1
1
1.11879
0.998718
1.11912
0.900809
1.10606
1
1.08599
1
1.11932
1.11855
1.11883
1
1.10778
1.11868
1.11039
1.07568
1.11848
1
1.08183
1
1.11872
1
1.01891
1
1.11083
1
1.11864
1.11366
1.11342
1
1.11675
0.889994
1
0.889871
1
1
1
1.12133
1
1.11873
1
1
1
1.11856
1.11805
1.09957
1.11861
1.11847
0.889949
1.12134
1.12184
1
1.10497
1.11848
1.11482
1
1.12089
1.12086
1
1.11997
1.11842
1.11894
1.11883
1
1
1
1.11865
0.884613
1
1.11852
1
1
0.892285
1
1
1.11849
1.11859
1
1.1186
1.12121
1.11828
0.994547
1.11855
1
1.11853
1.11855
1.09771
1
1
1
1.11816
1.11854
1.11849
0.985499
1
1.1211
1.1185
1.11857
1
1.11852
1.11863
1.11852
1.12066
1
1.11869
1.11787
1.10543
1.11878
1.11997
1
1.11792
1.11739
1.11849
1.11859
1.11901
0.886699
1.11857
1.11858
1
1.11851
1.11853
1.11851
1.11863
1
1.11864
1.11853
1
1.11852
1.10136
1
1
1
1.11843
1.12046
1
1
1.06705
1
1.11854
1
1
1.11848
1.11894
1.11859
1.11845
1
1
1
1.08799
1
1.11862
1
1
1.12011
1.1194
1
1.11845
0.887228
1.11854
1.11844
0.91554
1
0.883257
1.10596
1.11847
1.11902
1.11868
0.891135
1.11866
1.11856
0.891897
0.882373
1
1.11876
1.11871
1
1
1.11859
1
1.11896
1
1.10488
1
1.05988
1.11873
1.11929
1.08845
1.10824
1.12181
1.119
1.11213
1
0.890935
1.11981
1.1185
1.12019
1
1
1
1.12101
1
1.11857
1.11855
0.927545
1
1.11866
0.999983
1
1.00001
1.00001
1.11854
1.11839
0.999565
1
1
1.11852
1.11914
1.11858
1.11844
1.11928
0.889234
1.10267
1
1.11789
1.11861
1.11868
1.11776
1
1.11864
1.11571
1.11885
1
1.11894
1.11831
0.962217
1.11862
1.11877
1
1.11868
0.954149
1.11848
0.960358
1.11863
1
1.11861
1.12212
1.11853
1.11865
1.1186
1.11872
1.11873
1.11907
1
0.981028
1.11857
1.1186
0.953415
1.11849
0.994906
1.07608
1.1186
1.11839
1.11825
1
1.11922
1.08333
1.11872
0.978974
1.11905
1.12037
1
0.962385
1
1.11642
1
1.08422
1
1.11494
0.961939
1
1.11826
1.11893
1
1.11911
1.11899
1.11841
1.116
1.11703
1
1.12034
1
1
1
0.97085
1.1187
1.11821
1.11784
1.11846
1.12072
1.11858
1.11989
1.11871
0.971255
1.00883
1
1
1.12285
1.11858
1.11868
1.11862
1.00001
1.06464
1
1.12006
1.10569
1
1
0.921322
1.11853
1
1
0.897756
1.11856
1
1.12066
1.11861
1.12206
1.1144
1.11864
1
0.883793
1.03147
1.11874
1.11862
1
1.11859
1.1185
1.06142
1.00278
1.02874
1
1.12035
1.11838
1
1
0.888129
1
1
1.11848
1.1185
1.11861
1.11856
1.11848
1.11875
1.11879
1.11838
1.11859
1
0.998942
1.11841
1.11864
0.999108
1.11849
1.11854
0.885889
0.891754
1.11815
1.11945
1
1
1.00037
1.11868
1.1187
1.11854
1
1.11846
1
0.957041
1.12038
1.1187
1
1.05849
1.11859
1
1.11912
1
1.11869
1.08525
1.11878
1
1.11836
1.11623
0.88707
1.11855
1
1.11822
1.1191
1
0.886641
1.11794
1.10045
0.999298
1.11594
1.11854
1
1.00027
1.11909
0.999288
1.11845
1
1
1.1183
1
1.11803
1.11851
0.998959
1.0978
1
1.11853
1
1
1
1
1.11862
1
1
1.11584
1
1.11851
1
1.07858
1.11803
1.11806
1
1
1.00039
1
1.11836
1.11849
1.11825
1.11853
1.11852
1.1187
1.11854
1
1.11861
1.11838
1
1.11866
1.1187
1
1.1186
0.980907
1.01655
1.11853
1.11862
1.11877
1
1.11855
1
1.11855
1.11856
1
1.11841
1
1
1
1
1.11873
0.883623
0.999378
1
1.11861
1.11884
1
1.11864
1
1.00144
0.893976
1.11859
0.999895
1
1.11843
0.999553
1.11852
1
0.999935
1
1.11832
1.11808
1.11867
1.11976
0.895378
1.11869
1.11831
1.11869
1.03194
1
1
1.05479
1.11845
0.88305
0.893635
1
1.11857
1.11835
1.11931
1
1
1.11807
1.11867
0.999969
1
1.0881
0.887805
1
1.02253
1.12051
1.11968
0.999502
1.11855
1.12145
1
0.99969
1
1.11844
1.12044
1.05079
1
1.11253
1
1.00054
1.11811
0.893682
1.11855
1.11854
0.999123
0.999974
1.10792
1
0.999911
1
1.11898
1
1
0.885554
1.1186
1
1
1
1
1.12092
1.07119
1
1
0.888651
1.11862
1.07126
1
1
1
1.11368
1.11334
1.12057
1
1
1.12011
1
1.11865
1.11855
1
1
1.1189
1.11855
1.11425
1
1
1.11893
1.11897
1
1
1
1.1189
1
1
1
1.11888
1.1203
1.11931
1
1.1203
1.00001
0.908208
1.11858
1.11853
1
1.11912
1.1145
1.1204
1
1
1.11931
1
1.06554
1.11833
1
0.887523
1
1.11908
1
1
1.11778
1
1
1
1.0388
1.11844
0.903877
1
1.11887
1
1
1.11837
1
1.11924
1
1
1.11868
1.1186
1
1.00001
1
1
1
1
1
1
1.11994
1.11857
1
1.12045
0.88794
1.12043
1
1.11843
1.11855
1.11866
1.11891
1.12159
1
1
1.11754
1
1.07737
1.11934
1.11841
1
1.11959
1.11732
1
1.10817
1
1.11859
1.07939
1.11817
0.99932
1.11665
1.11064
1.11879
1.11891
1.01015
1.11866
1.11939
1
1.11864
1
1.11857
1
1
1
1
0.99897
1.11856
1.11863
1.09903
1
1.11946
1
1
1
0.881164
1
1.11665
1
1.10844
1.11677
1
1
1
1.11132
1.1201
1
1
1.11883
0.89089
1.02116
1
1.11913
1.11862
1.10871
1.11661
1.11853
1
1.11862
1
1
1
1
1.11834
1.11847
1
1.11304
1.01782
1.1186
1.11119
1
1
1.11162
1
1
0.886546
1.08648
1
1
1.11833
1
1.11949
1.10943
1
1.10848
0.891462
1.11873
1.11856
1.11867
1
0.896168
1
1
1
1.11872
1.09965
1
1.11704
1.11858
1
1.1186
1
1
1
1
1.11859
0.999824
1
1.119
1
1
1.11971
1.11854
1
1.11915
1.02542
1.00001
1
1.11867
1
1.11868
1
1.00401
1.11857
1
1.11858
1
1
1.04138
1.11912
1
1
1
1
1
0.9989
0.889544
0.885585
1.00587
1
1.00856
1
1.0097
1
1.11863
1
1.07899
1
1.1187
1
1
1
1.11869
1
1.0987
1.11834
1
1.06698
1.11896
1
1
1.12125
1.1186
1
1
1.01665
0.88201
1
1.11875
1
1
1
1
1.02196
1.1186
1
1
1
0.890171
1
1.1187
1.11852
1.12095
1
1
1
1
1.06173
1.12123
1
1
1
1.11871
1.11848
1.01643
1
1
1
1.11867
1.11847
1
0.886642
1.11862
1.11849
1.11887
1.11899
1.11887
1
1
1.11931
1.1192
1.11838
0.892625
1.0119
1.1185
1
1
1
1
1
1.11855
0.891674
1
1
1.11838
1.05589
1
1.12039
1
1
1
0.892626
1
1
1.03333
1.11863
1.11869
1
1.1217
1.11776
1
1.02101
1
1.11862
1
1.1183
0.890367
1
1
1
1
1.11861
1.00002
1
1
1
1.11323
1
1
1
1
1.11845
0.891715
1.09544
1.11882
1
1.11846
1
1
1
0.999175
1
1.1184
1
0.944383
1
1
1.00001
1.11858
0.893813
1
1.11938
1
1.11885
1.11856
0.898688
1
1
1.11587
1
1
0.89967
1
1.11806
1
1.11377
0.999798
1.11831
1
1
1
1
1.11975
1
1
1.11863
1
1
1
1
1
1
1
1
1.08012
1
1.0397
1.11852
1
1
1
0.890817
1
1
1
1
1.11894
1.11855
1.01747
1
1
1.11888
1
1
1.11933
1
1
1
1
1
1
1.11809
0.936676
1.11852
1.11898
0.999094
1
1
1
1.0734
1
1
1.11818
1.11853
1
1
1
1
0.899811
1
1
1
1.07629
1
1.11863
1.11951
1
1.11872
1
1
1
1.06693
1
1.12003
1
1.11848
1
1
0.998959
1.11845
1
1
1
1
1
1.1187
1.00001
1
0.887925
1.11985
0.88715
1
1.11863
1
0.998873
1
1.11893
1.11795
1
1.11863
0.966736
1.11852
1.11909
1.00001
1
1
0.888699
1
1
1
1.11855
1.07202
1.11965
1
1
1
1
0.999131
1.11834
1
0.889948
1
1
1
1
1
1
1
1.11979
1.11845
1.11898
1
1
0.999116
1
0.994598
1
1
1
0.889592
0.994567
1
0.890144
0.890419
1
1.11868
1.11859
1
1.11782
1.1185
0.889569
1.08197
1
1
1
0.889708
1.1186
1
0.889186
1
1.11762
1.0214
1
1
1
1
1.11859
1.11909
1
1
1.11858
1
1
1.12036
1.11849
1
1.11005
1.1187
1.12034
0.991811
1.11807
1.00246
0.890879
1.09357
1.11843
1
1
1
0.889322
1
0.889184
1.11898
0.989189
1.11862
0.986623
1
1.1183
1.05903
1
1
1.11823
1
1.05287
1.11878
1
1
1.11805
1.11991
0.89045
1.07161
0.999971
1
1.07504
1
1.12034
0.985649
1.12146
1.11861
1
1
1
1
1.11543
1
1
1.11836
0.999897
1.11839
1.09678
1.11868
0.893489
1
1
1
1
1.11869
1.00001
1.11862
1
1.11837
1.11872
1.01599
1.11914
1.04174
1.11879
1
1.08313
0.897049
1.11825
1.11861
1.09432
1.02114
1.11888
1.11851
1.11848
1.11882
1
0.978685
1.0192
1
1.11859
1.06102
1.11826
1.00001
1
1
0.903113
1.12073
1.11899
1.09733
1
1.04774
1
1.11872
1.11874
1
1.11831
1.11899
1
1
1
1.11837
1
1.04917
1.11987
1.08567
1
1.11835
1
1
1
1
1
1
1
1
1
1
0.902736
1
1.11407
0.886458
1.07343
0.999591
1.11914
1
1.06698
1
1.07869
1.10185
1
1.00048
1.11804
0.975007
1
1.11792
1.11704
0.985469
1
1.11846
1.11868
1.11936
1
1.11866
1.11822
1.1182
1
1.05609
1
1.00002
1.11841
1
1.1184
1.01921
1.11865
1
1
1.11859
1.11871
0.896802
1
1.11897
1.09168
1.11833
1
1
1.11973
1.11886
0.999491
1
1.10766
0.99911
1.11853
1.00002
1
1
1
1
1.05724
1
1.09332
1.11841
1.09089
1.11864
1
1.00067
1
1
1.12035
1
1.11785
1
1
1
1
1
1
1.0156
1.06598
1
1
0.890411
1
1.11959
0.903174
1.11764
1
1.06029
0.99993
1.11903
1.07907
0.898413
1.06858
1.00001
1.1185
1.11843
1
1.07569
1.11837
1.11825
0.999541
1.12063
1.11556
0.885998
1
1
0.999378
1
1.12018
1
0.896943
1.11886
1
1
1.10704
1
1.11844
1
1.11869
1
0.896377
1
1
1.11836
1.11824
1.11757
1
1.118
1.11863
1.12011
1
1
1.11451
1
0.917851
1
1
1
1.11866
1
1.11862
1.07898
1.11814
1
1.1185
0.999817
1
1
1
1
1
1
0.910383
1
1
1.1185
1
1.11818
1.12013
1
0.893902
0.888319
1
1.11884
1.02173
0.892207
0.88433
1
1.11817
1
1.11794
0.8925
1.00044
1
1
0.999861
1
1
1
0.999977
1.05255
1.11854
1
1
1.11892
1.07339
1
1.11119
1.11805
1.11837
1.05275
1.11744
1
1.11855
1
1.11797
1
1.11799
1.11901
0.999115
1.11815
1.11982
1
1
1
1
1
0.978096
1.11919
1.00001
1.00001
0.894722
0.999993
0.889742
0.883439
1
1.11827
1.11856
1.11827
1
1.11871
1
0.891332
1
1
1.11811
0.94823
1.11874
1
1.11862
1
0.994879
1.11893
1
1
1
1.11861
1
1.11895
0.891719
1
1
1.07258
1
1
1.06725
1
1
1.11876
1
1
1
1
1
1.1181
1.11849
1
1.11916
1.11812
0.890496
1.05921
1.11797
1
1
1.10778
0.99971
1
1
1.11857
1.11872
1.08021
1
1.11811
0.894573
1.11386
0.999855
1
1.11827
1.00001
1.11809
1.10061
1.09272
1
1
1.1186
0.911594
0.899138
1
1.11889
1
1.11887
1
1.07495
1
1
1.11831
1.07845
0.888985
1
0.999576
1
1
1.00721
1.05286
1.11864
1
1.11802
1
1
1
1
1
1
1.01906
0.890795
1
1
1.01296
1
1
1
1
1
1.11865
1
1
1.11875
1.11876
1.0868
1
1
1
0.95335
1.11858
1.08563
1
1
1
1
1.1192
1
1
1
1.11935
1
1
1.08793
1.12237
1.01221
0.92263
1.11834
1.0874
1.11941
1
1.06286
1
1
1
0.891301
1.00081
0.899011
1
0.892404
0.886698
1
0.889775
1
1
1
1.05697
1
1.11807
1.11847
1.00017
1.05996
1.1003
0.894782
0.931007
0.967248
1
1.11845
1.12034
1.1185
1.11857
1.10335
0.96623
1
1.10383
1
1.11787
1
1
0.998995
1.00212
1
1
1
1.11932
1
0.890989
1
1.11884
0.889943
1
1
1.11857
1
1.11853
0.999924
1
1
1.1187
1.1043
1
1.12278
1
1
1.00399
1
1.05733
1
1
0.890123
1
1
1.11798
1
1.11888
1
1.00001
0.891011
1
1
0.891499
1.00031
1
1.11964
0.889742
1.11977
0.889935
1.11899
1
1
1
1
1
1
1
1
1
1
1
1.11422
1
1.11906
1.12009
0.890868
1
1
1
1
1
1
1.11563
1
1
0.890167
1
1
1.11965
1
1
1.04998
1.1013
0.89062
0.892059
0.905661
0.920687
1
0.99898
0.891292
1.0001
1.1119
0.999101
1
1
1.11889
1
1
1
0.929251
1
1.04657
1
1
1.05013
1.11863
1
0.888855
1
1
1
0.999032
1
1.11888
1.11854
1
0.889768
1
1.06765
0.888344
1
0.968439
1
0.998858
0.883125
1
1
1
0.998741
0.89686
1
0.892576
0.999532
1.06481
1.10781
0.892381
0.893963
1
0.997233
1
0.999617
1
1.11837
1.11867
1
1.00471
1.11853
1.11851
1
1
1.11851
1
1
1.00001
1
1.11753
1
1
1.00525
1
0.999596
0.909952
1
1
1
1
1
1.12007
1.01194
1.00001
1
1
1
1
1
1.00001
1
0.890337
1.0287
0.999615
1.11984
1.11362
1
1.00426
1.11829
1.10513
1
1
0.886085
1.1183
1
1.12002
1
1.1188
1.08512
0.89005
1
0.888944
1.10805
0.99991
1
0.891081
0.886038
1
1
1.1018
1
1
0.891
1
1
1
1.04043
1
0.890781
1.1184
1
1
1
1
1.11865
1
1
1.11933
1.10731
1
1
1
1.1191
0.890623
1
1.11869
1.11851
1
1.09677
1
1.00001
1
1
1.11524
1.00412
1
0.892779
1.07083
1
1
0.999321
1
1
1.1174
1
1
1.00001
1
1.11867
1
1
1
1
1
1
1
1.05635
1
1.11869
1
1
1.11894
1
1
1
1.11846
1.11983
1.01321
1
0.999306
1
1
1
1
1.11961
1
1
1.11888
0.887512
1
1
1
1
1
1
1.09796
1
1
1.11813
1.11939
1
1
1
1.11881
1.11905
1
0.999923
1.11913
1
1
1
1.00001
0.890856
1.00846
0.998933
0.998788
1
1
0.890788
1.11945
1
0.891051
1
1.11806
1.11435
0.891417
0.999831
1.11859
1.11868
1.1186
1
1
0.978805
1.10727
1.10025
0.889706
1
1
1
1.11829
1.11852
0.889439
0.999224
1
1.1186
0.884544
1
1.11917
0.892889
0.993245
1.0018
1
1.12023
1
1
1
1
1
1
1.00003
1.11111
1
1
1.1203
1
1
1
1.11852
1
0.890466
1
1
1
1.04404
1
1
1
1
1
0.935134
1
0.884655
1
1.11854
1.00002
0.958428
0.961952
1
1.00095
1.06466
1
1
0.887704
1.11861
1.11851
1.11852
1
0.88854
0.890586
1
1.11874
1
1
1
1
1
1.00001
1
0.892965
1.0788
1
1
0.8911
0.996646
1
1
1
1
0.882562
1
0.895097
1
1
1.11607
1
1
0.889073
1
1.1188
1
0.891876
1
0.894444
1
1.00242
1.11871
1.12183
1
1
1.11961
1
1
1.02975
0.999069
1
0.999508
1
1.11898
1
0.902589
1
1.12143
0.999743
1
1
0.936293
1
0.999728
0.890185
1.11826
1.04523
1
1
0.973009
1
1
1
0.93701
1
1
1
1.11853
1
0.890307
1
1
1
1
0.891448
1.1189
1.11154
0.888269
1
1.11944
1
1
1.11851
1.11932
1.10182
0.888735
0.999339
0.999802
1
1.11854
1
1
1
1
1.11846
1.00001
1
1
1.1181
1
1
1.11857
0.887755
1
1
1
0.895611
1
1
1
0.999624
1
1
1
1
1.09349
1
1.12025
1.11916
1.12179
1.11842
1.11836
1.11856
1
1.11833
1
1.11858
1.11857
1
0.999677
0.888343
1.10328
0.999968
1
1
1
1
1.00018
1
1.02058
1
1
1
0.957091
1.11858
1.11849
1.11816
1.10696
0.999962
1
1.00626
1.11821
0.999415
1.01833
0.99924
0.890193
1
1.00001
1
1
1
1
1
1.11856
0.891119
1.11865
1.11855
0.998621
0.890158
1
1
1
1.1186
0.89038
1.10587
0.890523
1.11879
1.11779
0.895706
1.11895
1.00668
1
1.11888
0.940822
1
0.999635
0.884258
1
0.888777
1
1.11857
1.11858
0.921281
1
1.1191
0.889808
1
0.888985
1
1.11888
1
1
1.11558
1
0.950962
1
0.999901
0.886947
1.11959
0.999857
1
0.891539
1
1
1
1
1.06723
1
1.11867
1
1
1.12036
1
1
1.11849
1
0.886976
1
0.894759
1
1
1
1
1
1.11409
1.07171
1.11843
1
1.11845
1.11132
0.886121
0.887443
1
1
1.11904
1
0.887353
1
0.995973
1
1
1.11905
1
1.11822
0.887396
1.11917
1
0.88881
1
1
1.11821
1.11822
1
1.00001
1
1.11969
1
1
0.882412
0.99983
0.888868
1
1
1
1.11893
1.11886
1.11982
1
1
0.888378
1
1.1186
1
1
1
1.1129
1.11848
1.11855
0.891192
1.1189
1.11854
0.890972
1.11976
1.00001
0.890287
1.00647
1
1
1.11837
0.890977
1.07841
0.890354
1.11853
0.999247
0.890416
1.11904
1
1
1
1
1.11851
1.11948
0.8931
1
1.00001
0.890349
1.00001
1
0.894761
0.899614
1.08511
1.11836
0.999559
1.11885
1
1.1183
0.947273
0.891195
1.1186
1.12314
1
1.11866
1
1
1.11867
1
1.09326
1.11988
1
1
1
1
1.11874
1.11737
1.11853
1
1
1.11823
1.11948
1.11895
1
1.11879
1
1
1
1
1
0.888637
0.952686
0.888162
1
1
1.1184
1
1
1.11916
0.888078
1
1.11862
1.11742
1.11323
0.882172
1
0.88911
1
1.00001
1.1195
1.06309
1.12035
1.10952
1
0.888266
1
1.11902
1.08699
0.895265
1
1
1
0.936673
1
1
1.12152
1
0.894685
1.11861
1
1
1
1
1
1.09732
1.02807
1
1.11895
1
1.11843
1
0.999052
1
1.1187
1.11827
1.11868
1.11941
0.99988
1.12031
1
1.11859
1.11848
1.10208
1
1
0.889851
1.11947
1
1
1.11954
1.1187
1.11749
1
1.11852
1
1
1.00001
1.11736
1.11808
1.03441
1.02889
1.1184
1.11865
0.896259
1
1
1
1
1
1.04596
1
1
1.1002
0.890353
0.999989
1
1.11881
0.999974
0.999945
1.01761
1.11166
1.12002
0.97449
1
0.888001
1
1.00123
1.1186
1.11933
1.11823
0.999721
1
1
0.887531
1
1
1.11859
1.01399
1
1
1
1
1
1
1
0.999982
1.11926
1
1
1
1
1
1.08248
1
1.05783
1
1
1.11848
1.12009
0.893987
0.999662
1
1
1
0.892219
1.12007
1.11851
1
1
1
1
1
1
1
1
1.11896
1.11924
0.893232
1.01452
0.893722
1
0.887452
1
1.11839
1.03443
1
1
0.911875
1
1.11357
0.943526
0.998936
0.886907
1
1
1.11932
1.00001
0.999092
0.886218
1.12014
1.12112
1
1
1
1
1.11149
1
1
1.11843
0.999701
1.11953
1.00001
1
1
0.885575
1
1
1.11847
0.888018
0.934607
0.892044
1.11864
0.999822
1
1.11876
0.892447
0.886246
1.00669
1
1
1.11945
1.00001
1.05813
1
1
1.11975
0.895282
1
1
1.00004
1.11982
1.00003
1.11663
1
1.00001
1
1
0.919339
1
0.940649
1
1
1.11822
0.886702
1
0.931095
0.943181
1
1
1.11851
1
1
1
1.11905
1.11839
1.00002
1.11519
1.11969
0.935645
1.11863
1.11901
1
1
1.11629
1
1
1
1
1
1.12094
1.11858
1
1
1
1.1187
1.00006
1
0.890364
0.91923
1
1.00001
1.0475
1
1
0.974162
0.900502
1
1
1
1.11996
1.10986
1.11848
1
1
1
1
0.886895
1
1.11942
1
1.11618
0.888429
1.12064
1
1
1
0.890617
1
1.11922
1.00001
1
0.893651
1.04539
1
0.999903
1.11905
0.882086
0.889729
1
1.11972
0.885049
0.890691
1
0.886605
1
1
1
1
0.891157
1
1
1
1
1.1197
1
1.09305
0.891474
1
1
1
0.892497
1.11853
1
1
0.999074
1.11746
1
1.11856
1.11968
1
1
0.914453
0.889649
1
1
0.891945
1.0402
1.05933
1
1
1.12059
0.999254
1
0.999327
1.12014
1
1
1
1
1
1
1.1187
1
1.04493
1.0397
0.901578
1.10553
1
1.11849
1.11845
1
1
1
0.974296
0.883767
1
1.06621
0.999907
1.10369
1
1
1
1
1
1.00166
1.05567
1.11892
1.11839
1
1.11851
1
0.903119
1
0.999302
0.999941
1
0.888839
1
0.893797
1.00001
1.11925
1.11971
0.889363
1.12014
0.886759
0.998927
1.093
0.888393
1.08885
1
1
0.99955
1
1
1
1.00002
1
0.889648
1
1
1
1
0.99988
1.11872
0.941473
1
1
1
1.01021
1
1
1
1.07284
0.921567
1
1
1
1.01641
1.11965
1
0.890844
1
1.1189
0.974984
0.890105
1
0.887135
1
1
1.11278
0.999503
1.11178
1
1.00254
1
1
1.11874
1
1
1
1
1.02583
1
1.11857
1.11891
1.11964
0.888281
1.11841
0.99916
1.09788
1
1
0.885686
1
1
0.891664
1.11942
1
1
0.999989
1
1
1
0.884695
0.890996
1
1.12
1
1.05911
1.11855
0.889329
1.10316
1
1
0.89641
1
1
1.11847
1.11859
1.04481
1
1
1.00046
1.11948
0.889241
0.892788
1.12029
1.11867
1.08438
1.05049
1
0.971878
1
1
1
1.11247
1.11859
1.11817
1
1
1.1195
0.889544
1.10661
0.884497
1
0.892697
1
0.887673
1.11849
0.884087
1
0.992443
0.89436
1
1
1
0.955451
1.10778
1.11834
1.11937
1.11903
1
1
1.12001
1
1
1.11859
1
0.891087
1
0.888336
1
1.11991
1
1
1.00953
1.09349
1
0.999757
0.891182
1.11866
1
0.890268
1.02563
1
1
1.09392
1.11865
1.11852
1
1.11823
1.03671
1
1.00676
1.11861
1
1
1
1
1.11852
1
0.887022
1.11813
0.888506
0.886833
0.950279
1.11822
1.044
1.1182
1
1.11952
0.999201
1.00001
1.11859
1.12002
1
1.11878
1
1.11885
1
1.11989
1
1.00001
0.99999
1.1184
0.887968
0.893486
0.999427
1
1
1
0.887988
1
1.0813
1
0.885564
1
1.04993
1.11853
1.11974
1
1
1.00001
0.999836
1
1.1199
1.11865
1
1.05336
1.1186
0.954841
1.11854
1.00009
0.886399
1.02702
0.890831
1
1
1.02227
1.12015
1
1
1.01421
0.999585
1
0.887334
1
0.930968
1
1.11876
1
1
0.887614
1.03106
1.01884
0.99957
1.11861
1.11864
0.93448
0.999447
0.889412
0.888491
0.887903
1
1
1
0.999722
0.914338
0.895335
1
1.11856
0.999926
1.11841
1.11843
1.12028
1.11862
1
0.888603
1.11832
0.887013
1
1.1187
1.11893
0.999037
0.946004
1.11873
1.08618
1
0.887579
1
1
1.12165
1
1.00756
1.11904
1
0.887114
0.890177
1
1
0.883012
0.888344
1.11842
1.00001
1
0.880075
0.890328
1.12026
1.11775
1.11107
1.11958
1.03585
0.996311
1.05278
1.11745
1.09214
1
1.06222
1
0.883143
0.960751
1
0.89037
1.11872
1.00659
1.11898
1
1.11855
1.11928
1
1.11868
1.1186
0.889311
1.11977
1
1.12054
1
0.919331
0.886614
1.11879
1
1
1
0.890004
1.11836
1.11888
1
0.892452
1
1
0.890522
1.00001
0.886654
1.1199
1
0.944281
0.890851
1
1
1.07124
1
1
1
1.02283
0.889644
1
1
1
1.11843
0.889886
1
1.1187
0.888164
0.890754
1
1
1.11958
1
1.11881
1
1.11845
0.895782
1
1
0.888333
0.943851
0.888601
1
1
1
1
1.11959
0.888133
1
0.890097
1
1.12018
1
1
0.981827
1
1
0.948663
0.999912
1.00001
1
0.889153
0.890897
1
1
1
1
0.94014
1.11823
1.11983
1
0.893687
0.890845
0.974081
0.89249
1
0.948051
1
0.888109
0.996589
1
1
0.895863
1
1.11829
1.11624
0.890198
1
1
1
1.11902
1
1.01496
0.951537
1.03955
0.89139
1.05115
0.886854
1
1
0.906411
0.975112
1
1.01459
1
1
0.886946
1
0.98412
1.01465
0.889901
1
1.09701
0.918909
0.964315
1
1
1
0.892206
1
0.890328
0.889645
1
0.955289
0.888978
1.01924
0.921435
0.87944
1.11852
1
1.11852
1.06819
0.915746
1.11841
0.88755
0.999723
1.11955
1
1
1.11847
1
0.910318
1
1.01927
1
1
1.11867
1
0.930653
0.942491
1.12054
0.98412
1
0.925224
1.11869
1.11997
0.973335
1
1.11888
1.03443
0.956067
1
1.00561
1
0.893749
1.05351
0.926387
0.919556
1
1
0.896227
1.11873
0.990013
0.889265
0.889105
0.958135
1
1.00827
1.11937
1.11885
1
1
1
0.890453
1.05996
0.999997
1.11824
1.10687
0.889037
1.00001
1.02793
0.962802
1.0775
1.10252
1
1.01299
1
1.00001
0.883638
0.953895
1
1
0.942322
0.884273
1.01281
1
1
0.883494
1.05854
1
1.11783
1
1.01362
1.06907
1
1.11707
1
1
1.11819
1
0.885791
1.11927
0.907224
1.03407
1
0.893331
0.999976
1
1.00001
1
0.936602
1.00774
0.893462
1.09139
1.12037
0.884081
1
1
1
1
1
0.991319
0.884639
1.01808
0.892382
0.891394
1.02131
1
0.99994
1.03222
1
1
0.888363
0.999883
1
1
1.03743
1
1.11977
1
1.11931
1.0276
1.00766
0.890393
1
1
0.890564
1
1
1
1
1.11814
1.01263
0.999465
1
0.888253
1.01498
1
1
1.0807
1
0.889598
1.11889
1
1
1
1.1185
0.885444
0.964666
0.891809
1.09169
1.11956
1
1
1.11856
1
0.891292
1
1
1
1
1
0.932275
1
1.11832
1
1
1.04463
1.11926
0.896479
0.962036
1
1.1186
1
1
1
1
1
1.11891
1.11956
0.887505
1.1186
0.881629
1
1
1.11855
1
1.12045
1.00138
1.00807
1.01909
1.11834
1.01969
1.08407
0.880821
1
0.881694
0.998218
1
1.11865
1
1
0.885921
1.11957
1
1.11979
1
1
1
1
1
1
0.893431
1.11958
0.954659
1.11846
1
0.887578
0.895744
0.912967
1.11867
1.11887
0.993739
1
0.933486
1
1.05057
1
1.11833
0.883877
0.890305
0.955984
1
1.11873
1
1.02277
0.894237
1
1.12001
1.10433
0.999682
1
1.11854
0.885029
1.11911
1.11835
1.11766
0.892329
1.02526
1
1
0.883827
1
0.94508
0.948872
1
1.00001
1.11852
1
1.12033
1.02378
1
1.01466
1.12005
1
0.884883
1
0.929641
1
1
1.09899
1
0.940997
1
0.896075
1.01036
0.9871
0.890323
1.11846
1.09827
1.11946
0.8929
0.898756
0.998782
1
1
0.901992
1.11246
0.889133
0.999991
1
1.11858
1.11975
0.973097
1
0.886148
0.908531
1.08104
0.994555
0.88475
1
0.885091
1.03457
0.894877
1
1.00002
0.945865
1.11969
1.11857
0.950077
0.999888
1
1
0.913209
1
0.88858
1
0.89075
0.8905
1
1
1.00001
0.896791
1.11853
1
1
1.00002
1.00001
0.889499
1.11894
1.11854
1
0.893687
1.11969
1
1.0271
1
1
1.1184
0.888735
1
1
0.888336
0.92472
0.893088
0.887854
1
0.900696
0.999184
1.02692
0.886362
1
1
1.0358
1
1.10563
1
1
1.08357
0.894358
1
0.887482
1.03739
1.11833
1
1
0.892815
0.88431
0.88043
0.912146
0.884549
1.09194
0.999836
1
1
1
1
1.11927
0.88726
1
0.980357
0.999908
0.999494
0.999982
0.920346
1.03696
1
1.11852
1.11857
1
1
1.11417
1.00001
1
1.11855
0.893739
1.11924
1
0.882765
1.11858
1.00002
1
0.947785
1
0.882427
1
1.11915
1
1
1.11943
1
1
1.11922
1
1
1
1.11945
1
0.921541
0.910767
1
0.883083
1.11877
1
1
0.99401
1
1.11921
1.07153
1.0969
1
1
0.889815
1
0.888246
1.11887
1.11908
1.11816
1
1.11989
0.890399
1
0.889335
1.09782
1.10829
1.11867
1.11845
0.92649
0.885231
1
1.08195
1.11979
1.1189
1.11855
0.924044
1.04589
1
1.09264
0.921844
1
1
1
1.00001
0.968345
1
1.11983
1
1
1
1
1
1
1.00002
1.11842
1
1.11992
1.0913
0.886509
1.11982
1.01087
1.06292
1
1.11848
1
0.886071
1
1
1
1
1.1028
1
0.882627
1.11839
0.88242
1.11869
1.09712
1.06469
1
1.02452
1.06011
0.998823
0.889434
0.931123
1.00001
1
0.975748
1
0.884772
1.11969
0.878957
0.979006
0.957229
1
1
1
1.00399
1
1
0.889778
0.999055
1.12035
1
1.11862
1
0.891322
1
1
1.11855
1.11868
0.886475
1
1.11947
1
0.944382
0.884329
1.1189
1.10765
1
1.02157
1.11847
0.999627
1
1.05358
1.10571
1.11904
0.998878
1
0.999999
1.10195
1
1
1
1.11853
0.999581
1
1
1.11865
1
1
0.891353
1
1
1
1.11931
1
1
0.955418
1.04
1.10902
0.92652
1
1.11853
1
1.04512
1
1.11886
0.999232
1.11863
1
0.886279
1
1.08215
1
1
1.11151
1
1.11869
1
1.11998
0.9006
0.892583
1.11933
1
1.10369
1
1.11888
1
1
1.00001
1.11828
1.11801
1.03497
1.11863
0.998814
0.887794
1.11887
0.959127
1
1.11697
1
1.11874
1
1.11895
1.11896
0.998919
0.887962
1
1.11848
1
1.01205
1
1
0.999421
0.924196
1.10735
1
1.10736
1
0.961032
0.886572
1.11853
1.11854
0.911323
1
1.11876
1.11976
1.11883
0.894347
1.11835
0.898598
1.11885
1.12024
1
1
1.11823
1
1
1
1
0.890884
1
1
1.11912
1.11854
1
1.11858
1
1.1205
1.11935
1
1.10049
1
0.882872
1.11855
1.09285
1.03624
0.882247
1.11842
1
1
0.884309
1
1
1.11842
1
1
0.937027
1
1.11867
1.00003
1.11818
0.886158
1.12021
1
1.11864
1.11444
0.9696
1
1.11876
0.927773
1.11823
1.08663
1.11837
1.1194
0.999168
1.11984
1.1187
1.11849
1.11881
1.00022
1
0.884489
1
1.11952
0.949256
1.10972
1
1.1167
1
1
1
1
1
1.11798
0.887761
0.899699
1.11928
1.11848
1
1
1
1
1
1.11774
1.10718
1.11872
1.00345
1
1
1
1.00001
1.11825
1.11852
1
1.11943
1.11965
0.892484
1.08582
1
1.1185
1.11979
1.11782
0.999405
1.11857
1.11867
1
1.11189
1
1
1
1
1
1
1.11852
1.12034
1.11117
1.11857
0.887722
0.903908
1.1186
1.1187
1
0.88871
0.985553
1
1.06151
0.884366
1
0.999846
0.999503
0.890993
1
1.11872
1
1
1
1.11953
0.986166
1
1.1187
1.11862
1
1.1186
1
1
1.11851
1
0.885941
1
1.11939
1
1
0.894903
1
1.11852
1
0.884833
0.887886
1
1.11562
1
0.886113
0.968165
1
1.11846
1
1
1
1.11979
1
0.891848
1.01863
1.1188
1.11891
1.11846
1.01487
1.11888
1.1185
1
1
1
1
1
1.11863
1
0.999808
1.12001
1
0.886072
1
1.11868
1.05985
1.01888
1.06009
1.02019
1.12024
0.901398
1.11859
1
0.894884
0.999198
1.11855
0.981876
1.11853
1.11821
1.11374
1
1.11933
1.11865
1.11855
1
1.00001
1
1
1.11881
1.08629
1
1
0.886327
0.99899
1
1.11887
1
1.11856
1.1185
1.11868
0.974008
1.11863
1.11884
1.00158
1.06059
1.11898
1.11867
1
1.11033
0.947763
1.11143
0.998136
1.11889
1
1.11863
1.11901
1
0.894046
0.983664
0.912003
1
1.02219
0.999126
1.11881
1
1
0.998984
1
1.06312
1.1133
1
1
1.11835
1
1
1.08687
1.11883
1.11433
1.11856
1.11876
1
1.11864
0.921273
1.11921
1
0.999612
0.892308
1
1
0.927804
1
1.04126
1
1.11898
1
1.11661
1.07852
0.8894
1
1
1
1
1
1.11879
1.00325
1
1.1199
1
1.11833
1.11852
1
1
0.993851
0.999953
0.883418
0.88336
0.916603
1.02418
1
0.999552
0.890808
1.00001
1
1.1188
0.981067
1.11145
1.10178
1
1
1
1
1
1.11852
1.1188
1
1.11872
1
1.12048
1.08177
0.999029
1
1
1
1.07058
1
0.989966
1
1.11861
1
1
1.11864
1
1
1
1
1
1.11872
0.884578
0.998793
1.10732
1.11852
1
1.11858
1
1
1
1
0.897128
1
1.11877
1.11863
1.11848
1.11952
0.987515
1
1.10183