/*--------------------------------*- C++ -*----------------------------------*\
  =========                 |
  \\      /  F ield         | OpenFOAM: The Open Source CFD Toolbox
   \\    /   O peration     | Website:  https://openfoam.org
    \\  /    A nd           | Version:  12
     \\/     M anipulation  |
\*---------------------------------------------------------------------------*/
FoamFile
{
    format      ascii;
    class       volScalarField;
    location    "6";
    object      p;
}
// * * * * * * * * * * * * * * * * * * * * * * * * * * * * * * * * * * * * * //

dimensions      [1 -1 -2 0 0 0 0];

internalField   nonuniform List<scalar> 
22702
(
1
1
0.870637
1
1.05508
1
1.4719
1
1
0.657675
1.47147
1.47192
1
1.47152
0.890285
1
1
1
1.47153
1
1.47202
1
1.47157
0.658638
1.47174
0.656933
1
1.47097
0.657101
0.657862
1
1.47166
1
1
1
1.4354
1.47367
1.47151
1
1
0.657594
1
1.22949
1
1.47034
1
1
1
1
0.657757
1
0.658491
1
1.47143
1
1.47153
1
1
1
1
0.65752
1
1
0.657547
1
0.657748
1
1
1
0.657072
1
1.47209
1.28447
1
1.47198
1.49702
0.658112
1.47155
0.65679
1
1.47168
0.660611
1.4718
1.47165
1
1
1
1
0.931754
0.657356
1.47259
1
1
0.657042
1
1.47226
0.657091
1
1
1
1
1.22977
1.47167
0.657367
1
1
1.10947
1
0.65921
1
1.47177
1.4714
1
1
0.650173
0.651921
0.657411
1
1
1
1
1
0.913856
1
1.40161
1.04347
1.47129
1
1.47126
1.47159
1.47191
1.47124
1
0.657291
1
0.657302
1
1
1
1
1.47151
1
1
1
1
1.47183
1
1.02582
1
1
1
1
0.65963
1
1.01072
1
0.656893
1
1
1
1.47145
1
1.47212
0.650541
0.657115
1.47204
1.47198
1
1.07656
1.26522
1
1.47125
0.657186
1.43635
1
1
1
1
1.47133
1.37057
1
1.47119
0.65774
1.47141
1
0.657031
1
0.658582
0.657553
0.999785
1
1
1.47091
1
1
1.47168
1
1.47177
1.47122
0.663413
1
1
0.657289
1.47142
1
1
1
1.47142
1
0.657675
1
1
1.47129
1.47124
1.47176
1
1.00004
1
1
1
1.47169
1
0.658065
1.48877
1.47174
1.47197
1
1
1
0.646318
1.47189
1.21615
1
1.47326
0.657336
0.657416
1.47341
1.47323
1
1.47496
0.648871
1.41418
1
1
1
1
1.47143
1
1.27112
1.04291
1
1
1.47152
0.657478
0.772675
1
1.47286
0.658086
1.47093
1
1
1
1
1
1
1
0.655769
0.767929
0.65769
1.47136
1
1
1
1
1.41913
1
0.65673
1
0.638344
0.657836
1.47166
0.658971
1.47192
1
1
1
0.997692
0.657042
0.651064
0.999999
1
0.636145
1
1.47164
0.657013
1
1
1.47159
0.650599
1
1.46843
0.656758
1.47151
1
0.644757
0.997747
1
1
1
0.657382
1
1
1
1.00001
1.01209
1.28587
1
0.665752
1
1
1
1
1
1
1
1.47151
1
1.47085
1
1
1
0.661135
1
1.47166
0.658836
1
1.37048
1
1
1.47228
1
1
1
1.46123
1
1
1.45924
1.47217
1
1.09606
1
1
0.657164
1
1
1
0.657354
1
1
1
1
0.654141
1
1
1
1
1
0.654678
1.00007
1.47217
1
0.999989
1.47208
1.47194
1
1
0.667633
0.819997
1.47182
1
1
1
1.47136
0.656989
1
1.47213
1
1
0.708553
0.708252
1
0.656189
0.661253
1
1
1
1
1
1
1
1.47147
1.11132
1.43866
0.657537
0.90792
1.47163
1
1.47197
1.47169
0.657704
0.779886
1
0.657926
1
1.48295
1
1
1
1
1.47142
1
1
1
1
1
1
1
1.16769
1.47124
1
1.4712
1
1
0.660375
1
1
1
1
1.47141
1.35636
1
1
0.656385
1.47176
1.47131
1
1.47132
1.47171
1.47117
1
0.837158
1
1.47135
0.985411
1.47115
1
0.657728
0.99887
1.47137
1
1
1
1
0.658565
1.47199
1.42646
1
1.47041
1.47139
1.47173
1
1.22014
1.4718
1
1
1.32303
1.06673
1.4714
0.931559
1.47139
1
1.47143
1.47162
1.47141
1.47173
1
1.44662
0.910992
0.886154
1
0.999999
1
1
1.47655
1
1
1
1
1
1.4714
1
1
0.99613
1.4714
1.41786
1
1.39554
1.00004
1
1
1.47147
1
0.996914
1.00445
1
1.47141
1
1.47093
1
1
1.34555
1
1.4709
1.00002
1
1.47082
1
1.47143
1
1
1
1.47157
1
1.47195
1.00001
1.47139
1.47128
1.47148
1.47158
1
1.4714
1.47341
1
0.65732
1.44131
1.336
1
1.47163
1
0.657348
0.656811
1
1
1
1
1
0.657481
1
1.47121
1.11996
1.4716
1
1
1
1
1
1.4717
1
1.47552
1.27598
0.780534
1
1.00001
1.1318
1.11109
1
1
1.16599
1
0.657856
1.47115
1.47112
1
1
1
1.4713
1
1.00003
1.47381
1.47191
0.94578
1
1
0.656672
1.42767
1
1
1
1
1
1.47138
1.47122
1
1.47122
1.47094
1.47153
1
1
1
1
0.657486
1.47141
1
1
1.42805
1.47021
1
1.44278
1.4712
1
1
1
1
1
1.4713
1
1
1
1
1.4765
1
1.46255
0.656686
1
0.658226
1
1
1
0.996836
0.659409
0.99904
1
1
1
1.06392
1
1
0.866063
1
1
1
1
1
1
1
0.999997
0.928929
0.999999
1
0.99756
1
0.657948
1
1
1
1
1.34914
1
1
1
1
0.658053
1
1
1.44302
1.47114
1
1
1
0.890078
1
1
1
1
1
1
0.94609
1.01065
1.47145
1
1
1
1.47054
0.899215
1
1
1
1.47134
1.46925
1
1.00001
1
1
1
1
1
1
1
0.660605
1
1
1.47139
0.657545
1
1.47044
1
0.659884
1
1
0.658539
1
1
1
1
1
1
1
1.46203
1.47059
1
1
1
1
1.42903
1
1.14189
0.65627
1
1
1
1
1
1
1
1.03414
1
1
1.23644
1
1
1
1.38782
1
1
1
1
0.657475
1
1
0.64709
0.658039
1
1
1.47131
1
0.986812
1
1
1
1.32522
0.649528
1
0.648397
1
0.778674
1
1
1
1.47155
1
1
1.47165
1
1
1
1.47169
1
1
1.4714
1
1
0.657811
1
1.1404
1
1
1.47152
1.4717
1.31085
1.42061
1
0.657884
1
1
1.44967
1
0.657714
1
1
1
1.47183
1
1
1
1
1.27842
1
1.43376
1.47466
0.657263
1
1
0.65953
0.658216
1
1
1
1.33068
1.35293
1
1
1
1
1
1
1
1.19638
1.47126
1.00872
1
1.46567
0.657109
1
1
1
1.25401
1
1.09124
1
1.42905
1.46917
1
0.657686
1
1.47126
1
1
1.47138
1.44118
1
1.47653
1
0.657664
1
1
1
1.47772
1.46195
1.41307
1
1.47136
1.4715
1
1.4724
1
1.4693
1
0.658345
0.975092
0.658788
1
1
1
1
1
1.47149
1
1.47149
1
1
1
1.44701
1
0.659315
1.47167
1
0.657285
0.6718
0.651815
1
1.22605
1.03991
1.47306
1.47161
1
0.999999
1
1
1.47146
1
1
1.47143
1.47144
1
1.15779
0.999972
1
0.996758
1.47125
0.849124
1
0.82344
0.659274
0.657981
0.933151
1.47169
1.46466
1.09115
1.47178
1.47176
1
1
1.47109
1.4712
1.47176
1.47276
1
1.47151
0.657594
1.47172
1.47208
1.46988
1.47129
0.862836
0.897578
0.929231
1.47153
0.953294
1.472
1
1
1.47341
1.47148
1
0.657742
1.47092
1.47155
1
1.47163
1.47154
1
1.47146
0.657503
1.47367
1.4712
1.47114
1.46975
1
1
1
1.47145
1.30159
0.672884
1.47166
0.650075
1.47145
1
1
1
1
1.47152
1.47183
1
1
1.47164
0.654509
1.4712
0.657954
1
1.46812
1
0.657833
1.47292
0.737144
1
1.47164
1.47422
1.47077
1
1
1.22671
1.47345
0.658877
1.4713
1
1.4715
0.878735
1.47039
0.661416
1
1.47149
0.688126
1.47341
0.659631
1
1.47173
1
1.47133
1
1.27049
1.45329
1.36767
0.646409
1
1.47127
1
1.47161
1
1.47174
1
1
1.47181
0.980403
1.47432
0.657735
1.43748
1
1.33024
1
1.47188
1.47161
1.47163
1
1.4225
1.47131
1.43539
1.28434
1.47067
1
1.30845
1
1.47193
1
1.06195
1
1.43616
1
1.47146
1.44858
1.44781
1
1.46495
0.657598
1
0.656807
1
1
1
1.47167
1
1.47219
1
1
1
1.47245
1.45437
1.39154
1.47268
1.47039
0.658048
1.47817
1.47137
1
1.39996
1.4716
1.45021
1
1.47119
1.47166
1
1.47801
1.47088
1.47163
1.4728
1
1
1
1.47139
0.651275
1
1.47165
1
1
0.656874
1
1
1.47144
1.47159
1
1.47142
1.46789
1.47172
0.97668
1.47135
1
1.47132
1.47154
1.38056
1
1
1
1.47127
1.4715
1.47148
0.939361
1
1.47848
1.47147
1.4712
1
1.47118
1.47189
1.4715
1.47962
1
1.47188
1.47477
1.40687
1.47161
1.47831
1
1.47356
1.4661
1.47152
1.47246
1.47066
0.657855
1.4713
1.47272
1
1.47132
1.47153
1.4716
1.47184
1
1.47132
1.47115
1
1.47145
1.3935
1
1
1
1.47419
1.4686
1
1
1.2505
1
1.47182
1
1
1.47169
1.47332
1.47103
1.47166
1
1
1
1.32652
1
1.47091
1
1
1.47111
1.47123
1
1.47163
0.647996
1.47145
1.47251
0.720877
1
0.647735
1.40764
1.4722
1.47021
1.47002
0.657998
1.47152
1.47264
0.657663
0.647541
1
1.47101
1.47152
1
1
1.47144
1
1.47466
1
1.40987
1
1.21463
1.4714
1.47404
1.32451
1.42921
1.4717
1.47276
1.45223
1
0.657712
1.4705
1.47182
1.47768
1.00001
1
1
1.47647
1
1.47149
1.47121
0.757066
1
1.47159
0.999939
1
1.00003
1.00004
1.47177
1.47133
0.998452
1
1
1.47159
1.47361
1.47168
1.47098
1.47338
0.667872
1.40997
1
1.46797
1.47111
1.47126
1.46451
1
1.4714
1.458
1.47281
1
1.47185
1.47122
0.854451
1.47134
1.47136
1
1.4717
0.841261
1.47131
0.853333
1.47152
1
1.47158
1.48341
1.4716
1.47178
1.47154
1.47043
1.47214
1.46954
1
0.926063
1.47123
1.47149
0.845059
1.47159
0.981459
1.28243
1.47144
1.47198
1.47203
1
1.47431
1.30606
1.47053
0.921688
1.47389
1.4727
1
0.865058
1
1.47355
1
1.31884
1
1.4401
0.866448
1
1.47385
1.46608
1
1.47386
1.47338
1.47209
1.46158
1.47076
1
1.47127
1
1
1
0.898408
1.47173
1.47224
1.47587
1.47164
1.46924
1.47607
1.46722
1.47213
0.903803
1.03149
1
1
1.48036
1.4719
1.47144
1.47148
1.00003
1.24014
1
1.47757
1.42738
1
1
0.740164
1.47155
1
1
0.657532
1.47133
1
1.47119
1.47157
1.47168
1.45259
1.47145
1
0.654696
1.11069
1.47181
1.4715
1
1.4718
1.47146
1.22445
1.00986
1.10544
1
1.47138
1.47115
1
1
0.658453
1
1
1.47165
1.47175
1.47201
1.47162
1.47159
1.47257
1.47194
1.47194
1.47146
1
0.996195
1.47163
1.47141
0.997073
1.47157
1.4715
0.65683
0.657108
1.4727
1.47314
1
1
1.00162
1.47173
1.4718
1.47136
1
1.47148
1
0.855528
1.47828
1.46542
1
1.20671
1.47191
1
1.47245
1
1.47185
1.30972
1.47157
1
1.4717
1.47304
0.657977
1.47141
1
1.471
1.47153
1
0.657341
1.46962
1.39285
0.997729
1.45172
1.47154
1
0.99909
1.47385
0.997929
1.47142
1
1
1.47308
1
1.47084
1.47145
0.996402
1.37243
1
1.47146
1
1
1
1
1.47154
1
1
1.46259
1
1.47115
1
1.29781
1.47544
1.47226
1
1
1.00082
1
1.47079
1.47169
1.47135
1.47135
1.4714
1.47165
1.47109
1
1.47186
1.47167
1
1.47121
1.47178
1
1.47114
0.925266
1.05898
1.47191
1.47159
1.47097
1
1.47113
1
1.47154
1.47162
1
1.47188
1
1
1
1
1.47154
0.651869
0.997864
1
1.47164
1.47784
1
1.47139
1
1.00486
0.657128
1.47149
0.9996
1
1.47205
0.998349
1.47111
1
0.999774
1
1.4712
1.47257
1.47181
1.47197
0.659134
1.47038
1.47133
1.4714
1.11498
1
1
1.19827
1.47153
0.645878
0.65919
1
1.47123
1.4714
1.47144
1
1
1.47245
1.47125
0.99988
1
1.33961
0.650177
1
1.07896
1.47127
1.46899
0.998263
1.47156
1.47942
1
0.999088
1
1.47371
1.47117
1.18407
1
1.45863
1
1.00249
1.47217
0.65753
1.47108
1.47162
0.996987
0.999912
1.4045
1
0.999692
1
1.47284
1
1.00001
0.646708
1.47117
1.00001
1
1
1
1.47737
1.26152
1
1
0.657911
1.47146
1.26337
1
1
1
1.44908
1.47012
1.47078
1
1
1.47415
1
1.4715
1.47141
1
1
1.47337
1.47124
1.44845
1
1
1.4735
1.47264
1
1
1
1.47263
1
1
1
1.47171
1.47665
1.47443
1
1.47706
1.00003
0.70466
1.47122
1.47113
1
1.47363
1.44439
1.47147
1
1
1.47502
1
1.24009
1.47121
1
0.657676
1
1.4736
1
1
1.47266
1
1
1
1.14368
1.47117
0.680063
1.00001
1.47296
1
1
1.47103
1
1.47535
1
1
1.47162
1.47158
1
1.00005
1
1
1
1
1
1
1.47528
1.47128
1
1.47139
0.65864
1.47302
1
1.47111
1.47175
1.47142
1.47722
1.47704
1
1
1.47172
1
1.28919
1.47615
1.47153
1
1.47407
1.47469
1
1.41722
1
1.47129
1.30198
1.471
0.997515
1.46017
1.42757
1.47256
1.4722
1.03733
1.47133
1.47498
1
1.47139
1
1.47134
1
1
1
1
0.99652
1.47151
1.47134
1.38621
1
1.47493
1
1
1
0.649084
1
1.45986
1
1.42686
1.45068
1
1
1
1.45167
1.47118
1
1
1.4701
0.657751
1.07841
1
1.47581
1.47149
1.42824
1.45917
1.47147
1
1.47093
1
1
1
1
1.4722
1.47197
1
1.45527
1.05764
1.47157
1.43815
1
1
1.44005
1
1
0.657559
1.32806
1
1
1.47684
1
1.47538
1.42827
1
1.4272
0.657578
1.47131
1.47161
1.47217
1
0.657464
1
1
1
1.47121
1.38228
1
1.47371
1.4718
1
1.4713
1
1
1
1
1.47161
0.999337
1
1.47357
1
1
1.46783
1.47157
1
1.47558
1.09103
1.00002
1
1.47104
1
1.47104
1
1.01357
1.47137
1
1.47133
1
1
1.14361
1.47172
1
1
1
1
1
0.996373
0.658109
0.657132
1.02041
1
1.02313
1
1.02292
1
1.47138
1
1.27893
1
1.47153
1
1
1
1.4715
1
1.37485
1.47188
1
1.24497
1.47189
1
1
1.47182
1.47146
1
1
1.04985
0.645453
1
1.47259
1
1
1
1
1.07599
1.47144
1
1
1
0.657245
1
1.4717
1.4716
1.48443
1
1
1
1
1.23448
1.47275
1
1
1
1.47101
1.47161
1.05242
1
1
1
1.47179
1.47144
1
0.658094
1.47134
1.47174
1.47281
1.47169
1.47296
1
1
1.47512
1.47337
1.47153
0.657717
1.04073
1.47182
1
1
1
1
1
1.47156
0.658967
1
1
1.4714
1.20709
1
1.47495
1
1
1
0.657979
1
1
1.12141
1.47125
1.47146
1
1.47615
1.4719
1
1.079
1
1.47508
1
1.47155
0.659502
1
1
1
1
1.47138
1.00007
1
1
1
1.45647
1
1
1
1
1.47174
0.657385
1.37519
1.47431
1
1.47162
1
1
1
0.997108
1
1.47009
1
0.8116
1
1
1.00004
1.47113
0.657271
1
1.47384
1
1.47016
1.47153
0.657172
1
1
1.45227
1
1
0.65772
1
1.47674
1
1.44979
0.999327
1.47175
1
1
1
1
1.47121
1
1
1.47134
1
1
1
1
1
1
1
1
1.30308
1
1.14725
1.4711
1
1
1
0.657609
1
1
1
1
1.47326
1.47125
1.05876
1
1
1.47289
1
1
1.47165
1
1.00002
1
1
1
1.00001
1.4722
0.785775
1.47148
1.47352
0.99692
1
1
1
1.27327
1
1
1.47182
1.47147
1
1
1
1
0.657338
1
1
1
1.29333
1
1.47133
1.47514
1
1.47296
1
1
1
1.25075
1
1.47122
1
1.47147
1
1
0.996349
1.47155
1
1
1
1
1
1.46984
1.00002
1
0.657678
1.47164
0.657652
1
1.47021
1
0.996037
1
1.47273
1.47569
1
1.46622
0.873845
1.47131
1.47535
1.00003
1
1
0.657182
1
1
1
1.47167
1.26909
1.4727
1
1
1
1
0.996792
1.47017
1
0.660757
1
1
1
1
1
1
1
1.47852
1.471
1.47655
1
1
0.996913
1
0.983834
1
1
1
0.657717
0.979573
1
0.658773
0.657756
1
1.47219
1.47151
1
1.47006
1.47132
0.658949
1.31541
1
1
1
0.661078
1.4711
1
0.657355
1
1.47678
1.07879
1
1
1
1
1.47127
1.47164
1
1
1.47165
1
1
1.47163
1.47183
1
1.42471
1.4715
1.47134
0.958607
1.47268
1.00864
0.658132
1.35889
1.4717
1
1
1
0.657719
1
0.65804
1.47567
0.956111
1.47158
0.948582
1
1.47174
1.21057
1
1
1.47383
1
1.18911
1.47248
1
1
1.4689
1.47358
0.657769
1.27832
0.999895
1
1.27825
1
1.47594
0.940492
1.48151
1.47665
1
1
1
1
1.46874
1
1
1.47135
0.999642
1.4715
1.3803
1.47029
0.659618
1
1
1
1
1.47154
1.00004
1.47139
1
1.47128
1.47322
1.05786
1.4783
1.14499
1.47161
1
1.31754
0.681066
1.47491
1.47144
1.38557
1.07965
1.47158
1.47133
1.47127
1.4701
1
0.918492
1.06849
1
1.47151
1.2218
1.47143
1.00003
1
1
0.681698
1.4763
1.47144
1.37987
1
1.1721
1
1.47166
1.47253
1
1.47074
1.47138
1
1
1
1.47005
1
1.1789
1.47361
1.32217
1
1.47084
1
1
1
1
1
1
1
1
1
1
0.674368
1
1.45112
0.658303
1.27193
0.998587
1.47543
1
1.24379
1.00001
1.29884
1.39975
1
1.00223
1.47016
0.912945
1
1.47074
1.46004
0.939093
1
1.47353
1.47159
1.4739
1
1.47164
1.47121
1.46998
1
1.20898
1
1.00006
1.47143
1
1.47145
1.06758
1.47021
1
1
1.47226
1.47056
0.679901
1
1.47169
1.35101
1.47053
1
1
1.47117
1.47087
0.998249
1
1.41225
0.996809
1.47145
1.00006
1
1
1
1
1.20779
1
1.36262
1.47233
1.34835
1.47243
1
1.00417
1
1
1.47143
1
1.47009
1
1
1
1
0.999999
1
1.0566
1.24052
1
1
0.657685
1
1.47406
0.679074
1.47186
1
1.23689
0.999747
1.47171
1.29659
0.671546
1.25434
1.00003
1.47171
1.47098
1
1.28202
1.47388
1.47064
0.998409
1.47788
1.45801
0.659576
1
1
0.997417
1
1.46996
1
0.673126
1.47283
1
1
1.41676
1
1.47237
1
1.47114
1
0.682786
1
1
1.47043
1.47621
1.47488
1
1.47047
1.47133
1.46744
1
1
1.4553
0.999999
0.743513
1
1
1
1.47122
1
1.47132
1.3012
1.46961
1
1.47151
0.999381
1
1
1
1
1
1
0.712522
1
1
1.47128
1
1.47091
1.47565
1
0.66069
0.65552
1
1.47324
1.0749
0.658101
0.635401
1
1.4711
1
1.47377
0.659057
1.00119
1
1
0.999511
1
1
1
0.999913
1.18974
1.4712
1
1
1.4727
1.2736
1
1.42625
1.47182
1.47133
1.18957
1.47052
1
1.47156
1
1.46625
1
1.4756
1.47159
0.997219
1.47032
1.47427
1
1
1
1
1
0.920451
1.47138
1.00004
1.00003
0.65808
0.999983
0.657593
0.650662
1
1.47143
1.47134
1.4714
1
1.47123
1
0.660285
1
1
1.4701
0.828189
1.47272
1
1.47037
1
0.981207
1.47164
1
1
1
1.47138
1
1.47177
0.6577
1
1
1.27019
1
1
1.25408
1
1
1.47153
1
1
1
1
1
1.47582
1.47138
1
1.47128
1.47046
0.659638
1.21155
1.4705
1
1
1.42279
0.998924
1
1
1.47167
1.47049
1.31509
1
1.47135
0.668506
1.43667
0.99966
1
1.47245
1.00004
1.46984
1.38536
1.35717
1
1
1.47167
0.722433
0.65735
1
1.47171
1
1.4723
1
1.27612
1
1
1.47041
1.29705
0.660864
1
0.998569
1
1
1.02592
1.18923
1.47169
1
1.46953
1
1
1
1
1
1
1.06658
0.657337
1
1
1.0332
1
1
1
1
1
1.47114
1
1
1.47116
1.47129
1.33414
1
1
1
0.836416
1.47226
1.32493
1
1
1
1
1.47175
1
1
1
1.47471
1
1
1.33511
1.48412
1.0376
0.754533
1.47507
1.33006
1.47261
1
1.23089
1
1
1
0.654213
1.00255
0.658154
1
0.658852
0.646887
1
0.658321
1
1
1
1.20509
1
1.47136
1.47086
1.00099
1.21702
1.39647
0.657618
0.764624
0.885063
1
1.4716
1.4715
1.47163
1.47155
1.40191
0.867318
1
1.40539
1
1.45461
1
1
0.996567
1.00891
1
1
1
1.47135
1
0.657727
1
1.47269
0.657856
1
1
1.47149
1
1.4716
1.00011
1
1
1.47249
1.41662
1
1.48721
1
1
1.01492
1
1.20369
1
1
0.658374
1
1
1.47172
0.999999
1.47013
1
1.00003
0.657906
1
1
0.657836
1.00089
1
1.47185
0.657638
1.47557
0.660973
1.47166
1
1
1
1
1
1
1
1
1
1
1
1.45115
1
1.4735
1.47084
0.657637
1
1
1
1
1
1
1.458
1
1
0.659062
1
1
1.47164
1
1
1.17589
1.39335
0.657463
0.657688
0.698395
0.746422
1
0.996591
0.658117
1.00031
1.44591
0.996902
1
1
1.47152
1
1
1
0.76858
1.00001
1.16552
1
1
1.18294
1.47098
1
0.657198
1
1
1
0.996677
1.00001
1.47308
1.47141
1
0.660533
1
1.25131
0.658822
1
0.887573
1
0.996115
0.646127
1
1
1
0.995665
0.657594
1
0.657549
0.998418
1.24347
1.4292
0.657435
0.657727
1
0.991215
1
0.998615
1
1.47227
1.47066
1
1.0102
1.47156
1.47184
1
1
1.47142
1
1
1.00004
1
1.47032
1
1
1.01858
1
0.998564
0.694534
1
1
1
1
1
1.47256
1.03232
1.00005
1
1
1
1
1
1.00003
1
0.659873
1.09863
0.998603
1.45557
1.46625
1
1.01543
1.47151
1.41198
1
1
0.652544
1.47175
1
1.47091
1
1.4702
1.33109
0.657388
1
0.65892
1.43132
0.999676
1
0.657704
0.655882
1
1
1.39648
1
0.999998
0.652917
1
1
1
1.14156
1
0.657375
1.47245
1
1
1
1
1.4718
1
1
1.47444
1.42045
1
1
1
1.46946
0.656042
1
1.47122
1.47167
1
1.37406
0.999999
1.00003
1
1
1.43663
1.01095
1
0.657781
1.26215
1
1
0.997474
1
1
1.47183
1
1
1.00003
1
1.47147
1
1
1
1
1
1
1.00001
1.2027
1
1.47014
1
1
1.47314
1
1
1
1.47167
1.47533
1.04707
1
0.997581
1
1
1
1
1.47126
1
1
1.47172
0.656523
1
1
1
1
1
1
1.37872
1
1
1.4734
1.47183
1
1
1
1.47135
1.4733
1
0.999688
1.47571
1
1
1
1.00002
0.657608
1.03083
0.996261
0.99592
1
1
0.654532
1.47201
1
0.658763
1
1.47185
1.45158
0.657218
0.999414
1.47151
1.47154
1.47105
1
1
0.926393
1.42018
1.38868
0.659207
1
1
1
1.46996
1.47169
0.653179
0.997269
1
1.47131
0.657918
1
1.46853
0.660542
0.973793
1.00671
1
1.475
1
1
1
1
1
1
1.00012
1.43855
1
1
1.47672
1
1
1
1.47145
1
0.659179
1
1
1
1.1564
1
1
1
1
1
0.78699
1
0.657714
1
1.47167
1.00006
0.870598
0.872575
1.00002
1.00375
1.24259
1
1
0.658557
1.47152
1.47161
1.4715
1
0.650904
0.648244
1
1.47122
1
1
1
1
1
1.00003
1
0.658107
1.29961
1
1
0.657493
0.984921
1.00001
1
1
1
0.643731
1
0.686321
1
1
1.4699
1
1
0.6571
1
1.47157
1
0.657518
1
0.66094
1
1.00819
1.47019
1.48518
1
1
1.47085
1
1
1.09787
0.996797
1
0.998239
1
1.47401
1
0.657337
1.00002
1.47187
0.998969
1
1
0.800152
1
0.999026
0.656872
1.4703
1.16686
1
1.00001
0.905518
1
1
1
0.79584
1
1
1
1.47143
1
0.658755
0.999999
1
1
1
0.652852
1.47166
1.43547
0.65953
1
1.468
1
1
1.47151
1.47141
1.39523
0.651599
0.99771
0.999242
1
1.47147
1
1
1
1
1.47159
1.00004
1
1
1.47035
1
1
1.47172
0.65876
1
1
1
0.659756
1
0.999999
0.999999
0.998608
1
1
1
1
1.37575
1
1.47276
1.47132
1.48086
1.47149
1.47153
1.47137
1
1.47072
1
1.47157
1.47156
1
0.998829
0.659595
1.40124
0.999895
1
1
1
1
0.998848
1
1.07185
1
1
1
0.848359
1.47171
1.4722
1.47351
1.41622
0.999875
1
1.02297
1.4713
0.99793
1.06187
0.997268
0.657822
1
1.00002
1
1
1
1
1
1.47159
0.657111
1.47144
1.47164
0.995033
0.657284
1
1
1
1.47184
0.657856
1.41402
0.652011
1.4716
1.47255
0.661717
1.47242
1.02342
1
1.4747
0.798738
1
0.998754
0.655149
1
0.657531
1
1.47132
1.47156
0.751171
1
1.47175
0.657669
1
0.660899
1
1.47161
1
1
1.46399
1
0.836226
1
0.999648
0.657345
1.47425
0.999481
1
0.657122
1
1
1
1
1.25101
1
1.47111
1
1
1.48349
1
1
1.47126
1
0.657702
1
0.657351
1.00001
1
1
1
1
1.45075
1.27217
1.47152
1
1.4713
1.4375
0.642811
0.655087
1
1
1.4717
1
0.657418
1
0.983941
1
1
1.47169
1
1.47099
0.657888
1.4736
1
0.656819
1
1
1.4729
1.46966
1
1.00004
1
1.46936
1
1
0.650566
0.999363
0.658017
1
1
1
1.4733
1.47236
1.47119
1
1
0.658093
1
1.46963
1
1
1
1.45035
1.47167
1.47149
0.656853
1.47378
1.47143
0.664092
1.47151
1.00004
0.665712
1.01425
1
1
1.47219
0.6577
1.29478
0.657659
1.47143
0.997299
0.654954
1.47368
1
1
1
1
1.47157
1.4709
0.660918
1
1.00002
0.660134
1.00004
1
0.662614
0.657391
1.32403
1.47164
0.998489
1.47155
1
1.47157
0.821777
0.65736
1.47168
1.48084
1
1.47131
1
1
1.47158
1
1.36244
1.47132
1
1
1
1
1.47181
1.46595
1.4742
1
1
1.47244
1.47123
1.4717
1
1.47181
1
1
1
1
1
0.657401
0.837274
0.657752
1
1
1.47094
1
1
1.47221
0.646953
1
1.47155
1.46608
1.45009
0.647354
1
0.657649
1
1.00003
1.47101
1.22437
1.4716
1.42944
1
0.658329
1
1.4738
1.33348
0.657682
1
1
1
0.804342
1
1
1.47392
1
0.657558
1.47151
1
1
1
1
1
1.37655
1.10652
1
1.47128
1
1.46979
1
0.99731
1
1.47209
1.47498
1.4717
1.47563
0.999583
1.47179
1
1.47137
1.4728
1.39749
1
1
0.658226
1.47172
1
1
1.4712
1.47102
1.47001
1
1.47146
1
1
1.00003
1.47447
1.4729
1.12838
1.10029
1.47131
1.47063
0.688872
1
1
1
1
1.00002
1.16371
1
1
1.39457
0.65826
0.999968
1
1.47157
0.999889
0.999814
1.06645
1.41763
1.47143
0.910022
1
0.657805
1
0.998313
1.47182
1.47448
1.47384
0.999004
1
1
0.657718
1
1
1.4718
1.04968
1
1
1
1
1
1
1
0.999939
1.47184
1.00002
1
1
1
1
1.30763
1
1.21587
1
1
1.47149
1.47657
0.655323
0.9988
1
1
1
0.66086
1.47186
1.47154
1
1
1
1
1
1
1
1
1.47163
1.47605
0.657692
1.05012
0.65877
1
0.647771
1
1.47078
1.12877
1
1
0.712837
1
1.45066
0.811144
0.996592
0.65279
1
1
1.47026
1.00004
0.996997
0.641751
1.47195
1.48011
1
1
1
1
1.43945
1
1
1.47142
0.998961
1.47203
1.00005
1
1
0.656139
1
1
1.4722
0.654999
0.778663
0.657623
1.47154
0.999325
1
1.47058
0.657497
0.656803
1.01672
1
1
1.47124
1.00004
1.2127
1
1
1.47127
0.661656
1
1
1.00013
1.472
1.00012
1.46873
1
1.00003
1
1
0.72618
1
0.786534
1.00002
1
1.46952
0.658298
1
0.780498
0.798919
1
1
1.47215
1
1
1
1.47195
1.47198
1.00005
1.4553
1.47144
0.78512
1.47169
1.45952
1
1
1.47227
0.999999
1
1
1
1
1.47306
1.4719
1
1
1
1.47239
1.00021
1
0.658248
0.722356
1
1.00003
1.17244
1
1
0.892672
0.657409
1
1
1
1.4763
1.43127
1.47166
1
1
1
1
0.657699
1
1.46831
1
1.46403
0.658456
1.47608
1
1
1
0.659541
1
1.47203
1.00003
1
0.657867
1.16958
1
0.999672
1.47041
0.647424
0.656972
1
1.47224
0.650783
0.657382
1
0.658152
1.00001
1
1
1
0.657543
1
1
1
1
1.47097
1
1.35926
0.657464
1
1
1
0.659
1.47164
1
1
0.99673
1.46302
1
1.47181
1.47174
1
1
0.714716
0.657215
1
1
0.657258
1.1414
1.21484
1
1
1.46933
0.99733
1
0.997596
1.47186
1
1
1
1
1
1
1.47177
1
1.15895
1.14601
0.698756
1.41551
1
1.4716
1.47178
1
1
1
0.913204
0.657945
1
1.22465
0.999648
1.42777
1
1
1
0.999999
1
1.00652
1.2057
1.47257
1.47148
1
1.47123
1
0.657911
1
0.997509
0.999777
1
0.654263
1
0.657472
1.00002
1.47511
1.47158
0.65947
1.47732
0.659112
0.996257
1.34961
0.658196
1.33332
1
1
0.998416
1
1
1
1.00006
1
0.657456
1
1
1
1
0.999586
1.47179
0.807153
1
1
1
1.03764
1
1
1
1.26021
0.756745
1
1
1
1.04581
1.47169
1
0.657244
1
1.47326
0.893785
0.657864
1
0.653143
1
1
1.44513
0.998232
1.44907
1
1.00899
1
1
1.47124
1
1
1
1
1.08875
1
1.47158
1.47325
1.47159
0.657389
1.47118
0.997111
1.38294
1
1
0.648292
1
1
0.657677
1.47005
1
1
0.999958
1
1
1
0.640919
0.657162
1
1.47124
1
1.21515
1.47139
0.659802
1.37725
1
1
0.674702
1
1
1.47166
1.471
1.16846
1
1
1.00166
1.471
0.657202
0.657362
1.47281
1.47148
1.31954
1.18762
1
0.899336
1
1
1
1.44168
1.47172
1.47109
1
1
1.47227
0.659152
1.4186
0.638613
1
0.658656
1
0.657961
1.47162
0.641457
1
0.9772
0.688893
1
1
1
0.84374
1.42996
1.47144
1.47202
1.47128
1
1
1.47131
1
1
1.47153
1
0.65763
1
0.657197
1
1.47151
1
1
1.01897
1.35731
1
0.998967
0.658744
1.47159
1.00001
0.657043
1.08877
1
1
1.35106
1.47095
1.47116
1
1.47228
1.12287
1
1.02525
1.47147
1
1
1
1
1.47134
1
0.652968
1.47143
0.660229
0.659174
0.821961
1.47243
1.15484
1.47189
1
1.47118
0.997414
1.00003
1.47146
1.47125
1
1.47137
1
1.4717
1
1.47082
1
1.00004
0.999999
1.47186
0.653225
0.65809
0.997933
0.999999
1
1
0.657116
1
1.3061
1
0.645261
1
1.1766
1.47193
1.47
1
1
1.00003
0.999422
1
1.47148
1.47161
1
1.19232
1.47187
0.848331
1.4715
1.0006
0.652449
1.09436
0.658248
1
1
1.07832
1.47134
1
1
1.04084
0.998572
1
0.657873
1
0.784981
1
1.47312
1
1
0.657833
1.10463
1.06078
0.998515
1.47188
1.47166
0.778616
0.998078
0.658718
0.657891
0.657931
1
1
1
0.999048
0.728476
0.65786
1
1.47144
0.999743
1.47159
1.47145
1.4718
1.47096
1
0.657971
1.4711
0.656494
1
1.471
1.47413
0.996629
0.813229
1.4707
1.33269
1
0.659186
1
1
1.47759
1
1.02608
1.47257
1
0.659244
0.658051
1
1
0.648835
0.646059
1.47141
1.00003
1
0.649702
0.647708
1.47495
1.45826
1.43915
1.47248
1.13019
0.983105
1.18713
1.47749
1.35801
1
1.23135
1
0.650001
0.862306
1
0.658492
1.47158
1.023
1.47299
1
1.47157
1.4708
1
1.4714
1.47172
0.657818
1.47502
1
1.47424
1
0.744751
0.657829
1.47141
1
1
1
0.656294
1.47103
1.47252
1
0.65902
1
1
0.657427
1.00004
0.640583
1.47137
1
0.824983
0.653488
1
1
1.27013
1
1
1
1.08093
0.656923
1
1.00001
1
1.4705
0.659434
1
1.47137
0.65981
0.657343
1
1
1.47684
1
1.47281
1.00001
1.47144
0.660146
1
1
0.656841
0.815659
0.656878
1
1
1
1
1.47168
0.651185
1
0.657121
1
1.46995
1
1
0.929963
1
1
0.824839
0.99969
1.00005
1
0.660186
0.658679
1
1
1
1
0.798292
1.46957
1.47145
1
0.658179
0.658848
0.908432
0.659301
1
0.827495
1
0.659068
0.986246
1
1
0.658614
1
1.47248
1.45974
0.656333
1
1
1
1.46813
1
1.04362
0.838779
1.14615
0.658713
1.18864
0.657112
1
1
0.724083
0.910711
1
1.04065
1
1
0.657382
1
0.933303
1.04401
0.659151
1
1.37773
0.757613
0.879872
1
1
1
0.656001
1
0.656609
0.657612
1
0.852248
0.657986
1.06746
0.75159
0.646598
1.47142
1
1.47138
1.25701
0.727729
1.47154
0.657882
0.999035
1.47195
0.999999
1
1.47097
1
0.723004
1
1.06964
1
1
1.47152
1
0.766013
0.819396
1.47159
0.93107
1
0.759619
1.47147
1.47204
0.911777
1
1.47163
1.1214
0.848506
1
1.01684
1
0.659468
1.19786
0.772276
0.745359
1
1
0.656112
1.47111
0.963801
0.658018
0.650661
0.861956
1
1.00936
1.47199
1.47179
1
1
0.999999
0.658627
1.21635
0.999993
1.47091
1.43215
0.658484
1
1.09654
0.876689
1.28512
1.40059
1
1.04305
1
1.00005
0.647331
0.847789
1
1
0.813817
0.646952
1.03917
1
1.00002
0.651213
1.20951
1
1.46295
1
1.03915
1.25522
1
1.46513
1
1
1.47082
1
0.650729
1.47104
0.696537
1.11787
1
0.65898
0.999914
1
1.00003
1
0.792662
1.02721
0.65811
1.34744
1.47153
0.639216
1
1
1
1
1
0.965898
0.657985
1.04754
0.658945
0.657924
1.07702
1
0.99981
1.11828
1
1
0.66194
0.991668
1
1
1.1307
1
1.47181
1
1.47115
1.0928
1.02047
0.657931
1
1
0.657788
1
1
1
1
1.47178
1.04351
0.998065
1
0.642876
1.05294
0.999999
1
1.30459
1
0.6587
1.47208
1
1.00001
1
1.47226
0.657153
0.874643
0.647208
1.35369
1.47205
1
1
1.47157
1
0.645767
1
1
1
1
1
0.767857
1
1.47137
1
1
1.16098
1.47187
0.663543
0.869215
1
1.47184
1
1
1
1
1
1.47163
1.47155
0.649988
1.47167
0.641475
1
1
1.47167
1
1.47207
1.00571
1.02756
1.06154
1.47132
1.0701
1.31693
0.645136
1
0.645103
0.988034
1
1.47132
1
1
0.651153
1.47508
1
1.47178
1
1
1
1
1
1.00001
0.657599
1.47101
0.849165
1.4713
1
0.658388
0.660101
0.716186
1.47702
1.4709
0.967542
1
0.792251
1
1.1751
1
1.47147
0.647818
0.660046
0.848355
1
1.4714
1
1.07941
0.677563
1
1.47102
1.41377
0.998847
1
1.47169
0.65793
1.47632
1.47153
1.47367
0.655624
1.09242
1
1
0.640795
1
0.810229
0.831745
1
1.00002
1.47165
1
1.47205
1.08309
1
1.04069
1.47701
1
0.656986
1
0.770309
1
1
1.38654
1
0.800678
1
0.657571
1.03711
0.94525
0.652062
1.47111
1.37475
1.47092
0.658089
0.702912
0.995767
0.999999
1
0.694206
1.44411
0.657845
0.999966
1
1.47151
1.47195
0.901649
1
0.657714
0.709628
1.31131
0.979739
0.64382
0.999999
0.656978
1.11827
0.659003
1
1.00006
0.819435
1.47197
1.47139
0.841937
0.999588
1
1
0.725635
1
0.653321
1
0.65614
0.65739
1
1
1.00003
0.659871
1.47144
1
1
1.00007
1.00004
0.657257
1.47146
1.47174
0.999999
0.658621
1.47123
1
1.0958
1
1
1.47083
0.64919
1
1
0.65776
0.746998
0.65846
0.659183
1
0.696043
0.997182
1.0941
0.646564
1
1
1.1336
1
1.41594
1
1
1.32098
0.679932
1
0.657759
1.12615
1.47132
1
1
0.657078
0.658762
0.641918
0.74211
0.65882
1.3496
0.999412
1
1
1
1
1.47144
0.659258
1
0.933883
0.999678
0.998707
0.999938
0.759818
1.12776
1
1.47151
1.47118
1
1
1.45102
1.00005
0.999999
1.47154
0.656341
1.46968
0.999999
0.647261
1.47148
1.00005
1
0.825734
1
0.645967
1
1.47096
1
1
1.4752
1
1
1.47458
1
1
1
1.47142
1
0.751589
0.727228
1
0.635617
1.47088
1
1
0.977613
1
1.47456
1.26712
1.37678
1
1
0.668459
1
0.657853
1.47154
1.47129
1.47146
1
1.47129
0.657301
1
0.658049
1.37699
1.44737
1.46995
1.47145
0.763919
0.646765
1
1.32036
1.47168
1.47172
1.47161
0.746864
1.16666
1
1.35366
0.752713
1
1.00002
1
1.00002
0.893609
1
1.4706
1
1
1
1
1
1
1.00006
1.46913
1
1.47583
1.34732
0.658699
1.47103
1.02296
1.23041
1
1.47169
1
0.659536
1
1
1
1
1.39977
1
0.644247
1.4724
0.636953
1.47153
1.37467
1.24073
1
1.08505
1.21624
0.99595
0.657733
0.770279
1.00002
0.999999
0.917722
1
0.649339
1.4715
0.649077
0.927262
0.854552
1
1
1
1.01387
1
1
0.657713
0.996781
1.47155
1
1.47156
1
0.655162
1
1
1.47158
1.47127
0.645024
1
1.47175
1
0.814542
0.648839
1.472
1.4219
1
1.07664
1.47179
0.998667
1
1.1895
1.41275
1.47237
0.995849
1
0.999998
1.39783
1
1
1
1.47148
0.998501
1
1
1.47159
1
1
0.657964
1
1
1
1.47221
1
1
0.854949
1.14234
1.42762
0.773437
1
1.47152
1
1.15935
1
1.47125
0.997233
1.47176
1
0.65795
1
1.32186
1
1
1.43909
1.00001
1.47128
1
1.47328
0.69865
0.661807
1.47132
1
1.40278
1
1.47133
1
1
1.00005
1.4723
1.47324
1.11553
1.47103
0.995666
0.657096
1.47166
0.866257
1
1.46358
1
1.4715
1
1.47377
1.47149
0.996397
0.656896
1
1.47145
1
1.02263
1
1
0.997939
0.745777
1.41971
1
1.428
1
0.873065
0.643544
1.47108
1.47176
0.699679
1
1.47109
1.47121
1.47115
0.693004
1.47107
0.670152
1.47157
1.47583
1
1
1.47137
1
1
1
1
0.657011
1
1
1.47101
1.47148
1
1.47166
1
1.47131
1.47104
1
1.39062
1
0.636805
1.47188
1.35091
1.13174
0.638468
1.47159
1
1
0.64937
1
1
1.47126
1
1
0.784554
1
1.47154
1.00009
1.47128
0.646137
1.47173
1
1.47144
1.45286
0.89476
1
1.4723
0.765177
1.47592
1.32762
1.47128
1.47193
0.997281
1.47171
1.4714
1.47175
1.47178
1.00085
1
0.65799
1
1.47149
0.834473
1.42907
1
1.46278
1
1
1
1
1
1.46882
0.645402
0.657825
1.47204
1.47173
1
1
1
1
1
1.46786
1.42546
1.47184
1.01201
1
1
1
1.00003
1.47025
1.4713
1
1.47139
1.47246
0.658545
1.32592
1
1.4717
1.47561
1.46811
0.997844
1.47197
1.4712
1
1.43451
1
1
1
1
1
1
1.47099
1.47149
1.43812
1.47167
0.648272
0.702592
1.47136
1.4718
1
0.65298
0.940044
1
1.22051
0.647609
1
0.99946
0.998287
0.65841
1
1.47164
1
1
1
1.47143
0.94064
1
1.47151
1.47154
1
1.47146
1
1
1.47152
1
0.65682
1
1.47051
1
1
0.65845
1
1.4712
1
0.637716
0.65299
1
1.45245
1
0.637281
0.887564
1
1.47172
1
1
1
1.47593
1
0.657873
1.06398
1.47152
1.47317
1.47146
1.0448
1.47341
1.47127
1
1.00002
1
1
1.00001
1.47162
1
0.99931
1.47271
1
0.641306
1
1.47162
1.21563
1.0548
1.21467
1.0647
1.4669
0.706184
1.47129
1
0.659254
0.997132
1.47154
0.933602
1.47164
1.47162
1.44809
1
1.47135
1.47159
1.47136
1
1.00004
1
1
1.4719
1.33064
1
1
0.657247
0.996567
1
1.4716
1
1.47117
1.4712
1.47055
0.903307
1.47148
1.47167
1.00442
1.22363
1.47141
1.47191
1
1.43401
0.833849
1.44731
0.989731
1.47197
1
1.47152
1.47157
1
0.657818
0.927954
0.701784
1
1.07977
0.996811
1.47157
1
1
0.996836
1
1.22908
1.4544
1
1
1.47148
1
1
1.33153
1.47146
1.45212
1.47188
1.47146
1
1.47099
0.736679
1.47147
1
0.994379
0.657525
1
1
0.751139
1
1.14479
1
1.4734
1
1.46248
1.29487
0.657672
1
1
1
1
1
1.47115
1.01171
1
1.47163
1
1.47142
1.47151
0.999999
1
0.969998
0.99984
0.648576
0.649265