/*--------------------------------*- C++ -*----------------------------------*\
  =========                 |
  \\      /  F ield         | OpenFOAM: The Open Source CFD Toolbox
   \\    /   O peration     | Website:  https://openfoam.org
    \\  /    A nd           | Version:  12
     \\/     M anipulation  |
\*---------------------------------------------------------------------------*/
FoamFile
{
    format      ascii;
    class       volScalarField;
    location    "6";
    object      rho;
}
// * * * * * * * * * * * * * * * * * * * * * * * * * * * * * * * * * * * * * //

dimensions      [1 -3 0 0 0 0 0];

internalField   nonuniform List<scalar> 
45568
(
2.35598
1.46902
2.69419
1.67165
1.12728
1.47498
1.86487
1.40001
0.917587
1.81998
2.08381
2.34826
1.8718
1.40001
0.933964
0.589516
1.40001
1.40001
1.26854
1.79444
1.40001
2.69356
1.8208
1.40001
1.40001
1.47248
1.40001
1.40001
0.580924
1.8106
1.18777
1.40001
1.38184
1.71982
1.7043
1.92145
1.13039
1.40001
1.81044
1.40001
1.40001
0.585055
1.40001
2.3512
1.40001
3.12816
0.590212
2.76342
1.71393
1.40001
2.34527
2.13434
1.40001
1.74589
2.25649
2.69334
2.51024
2.167
1.85918
1.16057
1.40001
1.86377
1.40001
1.40001
2.16171
2.12268
1.40001
1.27565
1.89369
2.83506
1.00512
0.817957
2.3651
1.82535
2.52548
1.40001
1.40001
1.51242
1.15729
1.40001
1.94562
1.64867
0.810727
2.30615
1.96754
1.40003
2.23453
1.53013
1.8765
0.911227
1.83243
1.40001
1.96409
2.78902
1.40001
1.40001
2.82339
1.98045
1.27941
1.8178
1.06473
1.97186
2.77327
1.40001
1.40001
1.40001
1.40001
2.69783
1.40001
2.77361
1.40001
0.946013
1.73179
1.40001
2.79103
1.40001
1.40001
2.75798
2.18394
1.80959
1.40001
1.88723
2.69183
2.68706
1.40001
1.88983
2.47079
2.11401
2.49929
1.40001
2.30864
2.59634
2.38844
1.40001
0.582986
1.40001
1.40001
1.40001
1.9773
1.97256
1.40001
1.68208
1.79639
1.40001
0.60508
1.40001
1.40001
1.40001
1.40001
1.40001
1.56722
1.40001
0.671068
1.29066
0.655931
1.40001
1.40001
1.27228
0.573454
2.16581
0.568016
1.40001
2.23559
0.585492
1.93615
0.935844
1.91416
1.40001
2.17139
1.40001
0.588084
1.40001
1.54894
1.40001
2.18908
0.574926
0.573518
2.10948
2.24271
2.3608
2.18884
1.75251
0.588171
0.588787
1.50947
1.89124
1.40001
1.36728
1.86947
0.591215
0.594092
1.80165
1.86523
1.50214
1.89506
1.06151
0.589174
1.18899
2.33237
0.592695
2.12696
1.6469
2.69158
3.39732
3.15557
2.0933
1.90092
1.67469
1.20479
2.37419
1.26315
1.40001
2.07311
1.40001
2.69424
0.585551
0.586837
1.40001
1.79746
2.68837
1.88046
1.68122
1.95624
1.58056
2.21071
2.09164
0.583311
0.583867
1.40001
1.84188
0.880221
1.80884
0.712412
2.30275
1.70433
2.00636
0.943282
1.40852
1.40001
2.23563
0.548906
1.41585
2.18546
1.40003
1.42775
1.33383
2.68727
1.43341
1.34268
1.3354
1.40001
1.35082
1.34824
2.3715
0.58301
1.33916
0.582745
0.583822
0.583132
1.35476
1.40001
1.35118
1.56075
1.40001
2.37103
1.35723
1.52389
1.62456
2.16026
0.582425
1.47932
0.584255
1.40001
2.22825
3.41736
1.9677
1.40001
1.63739
1.40001
1.40001
1.40001
3.64636
1.40001
1.2192
2.55051
1.8089
1.42541
2.0426
1.82037
1.42966
2.05127
2.54381
2.31885
1.81441
1.40001
1.40001
2.35873
1.84485
1.73324
1.72412
1.5568
1.98995
1.40001
2.68693
1.80219
1.1863
1.42643
2.4163
1.40001
1.72013
2.6786
1.40001
1.98573
0.929236
0.938546
2.02093
1.87927
1.45804
0.725001
2.08496
2.69594
2.26484
2.69364
1.40001
1.40001
1.80036
1.84911
1.74808
1.821
1.40001
1.40001
2.12484
0.678298
1.64857
1.40001
2.50714
3.63131
1.89637
2.23494
2.5063
3.60988
2.09041
2.6871
1.6206
1.40001
1.40001
1.40001
1.07956
1.40001
1.40236
2.08242
1.90507
1.40001
1.04287
1.83372
1.94158
1.10891
1.40001
1.88678
1.95244
3.47097
0.893168
1.66971
1.1954
1.22281
2.08951
1.40001
1.97957
1.21478
2.36799
2.42252
2.2223
2.29994
1.40001
1.75125
1.40537
1.40001
2.10177
1.93293
0.972771
2.03415
2.01862
1.40001
2.38389
0.574398
1.40001
1.84092
2.118
1.40001
1.50034
1.84854
1.40001
1.76887
1.40001
0.580779
1.40001
2.48167
1.40001
1.40001
1.52389
1.40001
1.40001
2.07864
1.40001
1.40001
2.22286
1.40001
1.40001
1.79998
1.40001
1.40001
1.40001
2.23171
1.40001
0.930733
1.78609
1.40001
1.91501
1.79739
2.57703
1.95121
1.40001
1.40001
1.40001
0.919583
1.40001
2.61531
2.55871
2.24431
1.40001
2.7284
1.40001
1.40002
1.40001
1.40001
2.1165
1.16735
1.40001
1.40001
2.27437
0.585282
2.30361
1.40001
1.82105
1.49101
1.87808
1.40001
1.40001
2.64158
1.8907
1.37439
1.63251
1.4
0.967392
1.55389
1.40001
1.20738
2.4768
1.82334
1.80655
1.40001
1.40001
2.0354
1.40001
1.40001
1.8116
1.98962
1.1941
0.614859
0.606919
1.25698
1.57092
1.40001
1.22984
1.40001
2.3336
2.15486
2.27917
2.48529
1.71074
2.05843
1.64168
1.41766
1.409
1.40001
2.12034
1.88006
1.40001
2.0813
2.22883
1.40001
1.40001
1.9855
1.40001
0.571019
1.60906
0.566298
1.40001
1.89656
1.84572
1.40001
1.68201
2.07548
1.40001
1.40001
1.79645
2.1008
2.2505
1.74167
1.40001
1.8065
1.20531
1.93632
1.40001
2.29433
1.40001
1.40001
0.573433
1.40001
1.40001
1.40001
1.40001
2.09211
1.64937
1.16756
1.40001
1.40001
0.969301
1.42686
1.40001
1.40001
2.68226
1.70803
2.71834
1.82236
1.40001
1.49594
0.58574
1.40001
1.5049
1.40001
2.07369
1.40001
1.83216
2.98258
1.40001
1.40001
0.973302
1.3736
1.40001
1.40001
1.40001
0.591657
0.593831
1.40001
3.49009
1.40001
1.40001
1.21104
1.40001
1.97717
0.577729
1.20315
1.64753
1.74303
1.40001
1.40001
1.8059
1.40001
1.40001
1.40001
0.999441
1.20654
1.40001
1.77325
1.38147
0.873502
2.42731
1.40001
0.6125
1.11147
1.91491
0.886517
1.33486
2.09541
1.80678
2.69282
1.44847
0.93964
1.23967
1.17031
1.40001
3.08805
1.3818
1.40001
2.387
1.201
1.95808
1.88925
2.24736
0.581719
1.05167
1.40001
1.40001
3.55216
0.582586
0.584889
2.31633
1.84043
2.30105
1.40001
1.67314
1.40001
0.90837
1.87772
2.02138
2.33867
2.04863
1.97205
1.40001
1.84399
1.40001
3.11092
2.1758
1.89599
2.49204
0.584698
1.40001
1.55542
2.00872
1.40001
2.00421
1.32829
1.7496
0.913625
2.69726
2.20877
1.81948
1.40001
1.88815
3.62195
1.32971
1.78808
0.585675
1.40001
3.2523
1.40001
2.66931
1.40001
1.40001
2.19192
2.21328
2.31075
1.40001
2.07598
1.36832
3.51829
1.93699
1.59464
1.82953
0.995211
1.25204
1.97618
1.96979
1.8066
3.52749
1.98237
1.9688
1.22004
1.21648
1.40001
1.19806
1.00927
2.36171
1.57429
2.34848
0.952013
1.40001
3.26827
1.40001
1.84459
1.89508
2.01037
1.43394
3.68237
1.49845
1.40001
1.40001
2.82695
1.55882
0.583372
1.89859
2.26718
1.40001
2.33554
0.58529
1.48769
2.08558
1.3112
1.3791
2.3572
1.40001
1.40001
1.40001
1.71673
1.40001
1.81916
1.40001
1.40001
1.40001
1.40002
2.26433
1.59745
1.3831
1.40001
1.40001
1.21232
1.58989
3.70064
0.975066
1.90388
1.65559
1.38611
2.23516
2.23278
2.65915
1.92867
1.25635
2.07304
1.40001
1.40001
1.96651
2.25965
1.81587
1.49239
1.43462
1.96164
1.85191
2.21597
1.96178
1.84429
1.45165
2.07836
1.97247
2.00312
1.40001
1.53938
1.44456
2.19874
1.44172
2.74405
2.71023
2.01882
1.94107
1.40001
2.669
1.91372
1.40001
1.16818
2.0464
1.40001
1.74059
1.40679
2.71387
1.46221
1.40001
1.40001
1.52141
0.955944
1.91188
1.31457
1.3973
1.84472
2.14818
2.68489
2.03696
1.02904
1.28333
1.21676
2.114
1.3955
1.12057
1.5629
1.84705
1.78999
1.92593
1.96682
3.11124
2.78201
1.85479
1.34904
3.00796
1.47925
1.26075
1.9645
2.26836
1.97221
1.97628
1.884
1.39193
2.69068
2.5114
0.776505
2.1968
0.794864
2.38038
2.17939
1.69984
2.20239
1.71684
0.949437
1.4
1.71363
2.08986
1.40001
0.955653
1.40001
1.55044
1.7596
2.04224
1.40001
1.51876
1.40001
3.43908
1.82805
2.696
2.42318
2.7372
1.44699
1.40377
2.95002
1.59716
2.71704
2.71938
1.40001
1.19757
1.40001
2.73171
1.40001
1.40001
2.20775
1.49622
1.84979
2.24187
1.17236
1.89472
1.59018
1.6837
1.99492
2.24924
2.1007
1.40001
1.98276
2.09506
1.34386
1.31816
1.10695
1.40001
0.577926
1.81818
0.586156
2.74186
1.53156
1.40001
1.33199
1.47688
2.16796
2.07718
1.40001
1.3396
2.07752
1.33168
1.57512
2.13224
1.34435
1.70577
2.07038
2.20433
2.13896
2.10254
1.92798
1.96313
2.08994
1.35694
2.29279
1.35752
2.07257
2.07496
1.40001
1.40001
3.06746
1.40001
1.95289
3.56431
2.11648
1.34144
0.567843
1.44069
1.81804
0.5713
1.68448
1.89379
1.33176
2.41574
3.4564
1.34417
1.45611
1.32566
1.40001
1.54255
1.93205
1.54757
2.14029
1.75069
1.76464
2.01578
1.40001
1.99726
1.91757
2.02821
1.93063
1.33771
1.96618
1.12532
1.40001
1.36239
1.9698
1.97184
0.991075
1.46731
0.582495
0.580887
1.2174
1.34761
2.17449
1.81305
1.4221
1.96619
1.91625
1.21397
2.57664
1.40001
1.43739
2.02996
0.598675
1.47455
1.33955
1.89631
1.40001
1.40001
1.55405
1.40001
1.927
1.81666
1.35339
0.592393
0.590151
3.67943
2.72234
1.40001
1.26793
2.0668
1.8556
1.05569
1.4278
1.42572
1.40001
2.05987
1.37993
1.80086
1.30448
1.40001
1.32095
1.38014
0.633389
1.31177
1.89722
1.40001
1.55399
1.4
1.40001
1.40001
1.39288
2.79889
1.43903
1.40001
1.40001
1.52446
1.39214
1.3901
2.03909
2.02892
1.79062
1.37674
1.37263
0.578685
1.40001
1.40001
2.08769
1.52282
0.59337
0.590661
1.40487
1.92049
1.9761
1.80667
1.14947
1.40001
1.40001
1.79476
1.40001
0.592652
1.42777
1.40001
2.00172
1.76641
1.40001
1.88292
1.60548
1.49713
1.86299
1.13949
1.40001
3.27635
0.581901
2.00916
1.00496
2.01334
1.40001
1.04779
1.40001
1.40001
2.19616
1.44855
2.9801
2.17607
2.04387
1.40001
1.5238
1.63973
1.62997
1.73816
0.589826
0.57218
1.83273
1.33809
0.588098
2.11295
1.24524
2.078
0.578837
1.38049
1.50944
1.40001
1.95479
1.93046
1.57557
1.64356
1.96108
1.61639
1.60547
0.585313
2.12027
1.36876
0.993552
1.9438
1.16953
1.56511
1.65496
2.02276
0.584084
1.88983
2.03389
1.40001
1.40001
1.86544
1.83337
2.60439
1.40001
1.83279
1.46217
2.1398
2.29025
1.79551
3.09012
1.40001
1.44536
1.22763
1.46943
1.83172
1.40001
1.29514
1.8583
1.20763
1.83152
1.69415
1.40001
3.02101
1.08592
3.00376
2.71696
1.40511
1.81553
2.36079
1.37105
1.72186
1.40001
1.39999
1.74312
1.61707
1.17427
1.50434
2.40852
1.57881
1.49209
1.84135
2.36006
1.57755
1.40001
1.72604
2.0721
1.74475
1.3976
1.39044
1.15461
1.33607
1.12515
1.40001
2.13731
0.811101
2.07942
1.40001
1.60257
0.585421
3.09219
2.04031
1.79194
1.86768
1.40308
1.83609
1.89703
1.39255
1.9816
1.47446
1.61532
1.40001
1.40001
2.07912
2.02187
1.40001
2.31378
2.63992
1.35858
1.19102
1.40001
1.99844
1.35804
1.14988
1.94681
1.57547
1.40001
1.44334
1.40001
2.71353
1.40001
1.1351
1.41572
1.68995
2.07016
1.41173
1.25584
1.40001
1.07348
1.349
0.583626
2.69349
1.60746
1.99521
3.35399
1.98882
1.40001
2.02424
0.58544
2.03413
1.84847
1.54768
2.69146
2.39056
2.05035
2.05661
0.583521
1.1108
1.40001
1.62144
1.5425
2.09759
1.61841
3.10545
2.09653
1.39992
1.47901
1.57816
2.12678
2.12772
1.59058
1.40001
1.44128
1.58721
1.65198
1.16034
2.83374
1.40001
2.79611
1.40001
1.40001
2.76502
1.88048
2.07498
1.49349
1.49214
1.40001
1.40001
1.7967
1.74913
1.57496
1.41835
2.08462
1.3155
1.33586
1.41004
0.887855
1.94583
1.4328
1.3831
1.40001
1.19769
1.80294
2.2005
0.904587
0.584361
1.963
2.18802
0.582281
1.40001
1.50087
2.04583
1.16709
1.89683
1.99109
1.40001
1.9183
1.40001
1.9067
2.00071
1.56301
1.83423
1.40001
1.2439
1.55896
1.28936
2.68643
1.33727
0.866011
1.99844
2.16586
2.69035
1.40001
1.59277
1.59346
1.61812
1.61492
1.6664
1.66157
2.12307
2.08651
1.40001
1.68742
1.40001
1.68457
1.88313
1.71299
2.07392
1.74314
0.632232
2.0816
1.70499
1.73001
1.7287
1.7136
2.68936
1.76868
1.43301
0.585147
0.629256
1.76842
1.76447
1.80357
1.40001
1.40001
1.64418
1.17305
1.47857
1.45198
1.65279
2.69136
1.79874
1.40001
1.40001
1.16235
1.51507
1.40001
1.40001
2.13141
1.40001
1.8527
1.84648
1.87936
1.87574
1.54951
1.5166
2.08017
1.96458
1.60264
1.34347
1.94223
1.92714
2.68587
1.60705
1.34607
0.584693
1.54553
1.44926
1.40001
1.05416
1.50244
0.574982
2.69465
0.705397
0.583834
1.5883
2.69017
1.40001
1.24761
1.40001
1.73209
1.43964
2.71273
1.71502
0.867936
2.2921
1.84803
1.54926
2.68812
2.91119
2.07825
1.55479
2.07234
0.573383
2.6906
1.91505
2.04242
3.59634
3.082
1.97229
2.69052
1.40055
1.82705
2.68723
1.44399
1.82554
2.68147
1.58951
2.44089
2.18021
2.6824
1.16355
1.68368
2.3676
1.33068
2.68666
1.7703
1.39994
2.68201
1.33041
2.05088
1.40001
1.46945
1.74684
2.07941
3.29619
2.18097
1.44623
2.10595
1.72795
1.40001
3.33566
1.35613
2.73174
2.68381
2.6901
2.35881
3.84306
1.65263
2.8755
2.68783
1.23536
1.94521
1.54653
2.30965
1.80587
1.85001
1.85931
2.32636
1.40001
1.40001
1.44138
2.08696
2.10772
2.3157
1.75803
2.37475
1.38628
3.2882
2.36348
2.17014
2.1004
1.40001
3.85278
2.26105
3.84599
3.86197
1.58161
3.05571
3.68068
3.84936
1.3307
1.6142
3.78458
1.40001
1.40001
1.40005
2.89376
1.40001
1.40001
1.40001
2.92514
1.40001
1.53246
1.15534
1.96741
2.20156
1.97656
0.868759
1.86046
0.582223
2.62535
2.00371
1.25968
1.25039
1.14367
1.69301
2.533
1.03946
1.86966
1.93422
1.40001
2.01627
0.956463
1.48258
1.61184
1.40001
1.40001
1.43463
1.61076
2.93779
1.95194
3.0032
2.44754
2.17435
1.40001
2.91205
2.45471
1.40001
1.40001
2.99217
1.58717
1.16411
1.15802
1.58308
2.51986
1.43241
1.48026
1.86458
1.40001
1.40001
1.77692
1.68502
0.981937
1.50463
1.40001
1.51309
2.12327
1.54073
3.02214
1.55405
1.60518
2.19305
1.45097
1.87865
1.59757
2.49555
1.84608
1.40001
2.17555
2.69839
1.4
1.40001
1.82164
2.70149
0.584746
2.36623
2.0144
2.0104
1.80006
1.55242
1.47386
1.74256
1.73305
2.0442
1.39691
1.40001
2.00236
1.16266
2.69648
2.69169
2.22372
3.72179
3.49627
1.8952
1.40001
2.69434
1.75612
1.40001
1.59521
0.595449
1.60298
2.16834
2.66409
2.18474
2.12368
2.39499
2.63206
1.81798
1.13832
2.68786
1.64576
1.36859
1.37188
0.892893
1.40001
2.50365
1.55092
2.29398
1.88803
3.78922
0.597565
3.49593
2.08183
3.77623
2.07951
1.78837
2.61081
3.82499
1.24731
1.4
2.11153
2.40792
1.7257
2.03203
1.76703
2.13023
1.66802
1.34669
1.40001
1.84308
1.65779
2.37744
3.84418
1.40001
3.8768
1.1659
2.04585
1.85659
1.74228
1.09193
1.53585
1.40001
1.40001
1.93471
1.95523
1.04944
1.82568
1.92178
1.80942
1.8059
3.05831
1.97691
1.40001
1.40001
1.99126
2.05388
1.97754
1.53429
1.18982
2.78755
1.40001
1.50376
1.9859
2.75889
2.75265
1.45758
1.59573
3.32722
1.40001
1.40001
1.02171
1.96108
1.50695
1.40001
1.60971
1.35947
1.40001
1.40001
3.72332
0.995559
1.59162
1.95436
2.74643
1.40001
1.40001
3.65709
1.40001
1.40001
2.13693
1.40001
1.80512
1.52445
1.40001
2.72521
2.09333
1.40001
1.40001
1.40001
1.2655
2.11794
1.81859
2.04762
1.40001
1.94923
2.04425
1.93321
2.70964
1.40005
1.40001
1.22515
2.20076
1.46702
1.80411
3.25685
1.21957
1.72786
1.81891
2.12905
1.39934
1.90018
1.40001
1.82852
2.1589
0.898037
2.15356
2.00446
2.69913
2.45765
1.86635
2.98144
2.01617
1.40001
1.34658
2.10378
2.43432
2.08397
1.17359
1.545
2.72639
2.08503
0.573544
1.40001
2.04258
1.52417
2.31423
1.44697
1.40001
1.81105
2.47305
1.96726
1.40001
1.44639
1.47233
1.40001
2.39219
1.40005
0.58516
2.19737
1.98643
1.64988
1.97994
2.47374
1.40001
1.63367
1.95786
1.58559
1.63735
1.92551
3.08571
1.84432
1.17148
1.97019
2.68698
1.51248
1.39758
1.6377
1.17533
2.6845
1.40001
0.890827
1.45648
1.15146
1.40001
2.44511
2.65138
1.41497
1.37178
1.80173
1.40054
1.59974
2.71674
2.29707
2.69558
1.15087
1.61713
1.75748
2.6895
1.76855
1.5558
2.26664
2.19173
2.02446
1.17897
2.69481
2.05044
2.99213
2.7165
1.40001
1.40001
2.68399
2.44788
2.04236
2.403
1.88264
1.40001
1.87655
1.40001
1.62477
1.40001
1.87482
1.40001
1.81417
1.54477
3.13049
2.18469
1.40001
1.40001
3.69039
1.40001
1.25625
1.6538
3.63801
3.29512
2.04347
1.40001
1.33938
2.71864
1.34947
1.40001
1.59392
1.40001
2.06441
1.40001
1.31452
2.70095
2.69721
1.77545
1.64502
1.4
2.08275
2.06126
1.4
1.40001
1.47316
2.10491
1.39998
1.00097
2.70908
1.2546
2.0071
1.88223
2.72784
3.51665
1.14709
1.40001
1.10143
1.70076
1.40001
1.29689
2.71042
2.69413
1.12112
1.49824
1.25716
2.69582
2.01088
1.62003
1.4039
1.75733
2.40556
2.28541
1.4
1.60108
2.68572
1.40001
1.55213
2.00996
1.54938
1.5927
1.9846
2.53874
2.97789
3.20586
2.1482
1.20158
1.99541
2.50938
1.58153
1.50991
2.99165
3.24021
1.40001
1.40001
2.27827
1.01635
1.40001
1.91919
2.17545
1.36115
1.99717
1.40001
2.00267
1.40001
1.40001
1.40001
1.72902
1.7636
1.40001
1.46593
1.89015
1.84584
0.919688
2.40085
1.85316
2.8092
1.39998
2.38129
1.87509
1.40001
1.08037
1.40001
1.90049
1.90667
1.20019
2.62046
1.80622
1.95191
1.98803
1.75402
1.67437
1.52642
1.76311
1.7303
1.89395
1.73745
1.69579
2.72215
1.701
2.01674
1.49852
1.40001
2.14318
1.94034
2.10058
1.17616
2.70709
1.55043
1.66423
2.72275
2.17795
2.11283
2.17317
1.40001
2.95989
1.40003
1.47363
1.94893
1.63408
1.63943
0.587144
1.97176
2.21968
2.68934
1.6271
1.40001
1.48368
1.58663
2.70664
2.42543
1.40001
2.2832
2.68831
2.2823
1.47351
3.45078
2.09697
1.40001
2.70828
1.59214
1.88916
2.14029
1.69341
2.71851
1.40001
2.71436
1.40001
2.02932
1.26835
1.40001
2.09356
1.66327
1.40001
2.17897
1.92856
3.20946
2.9455
3.48578
1.40009
1.55366
2.02676
1.4
2.13956
2.13436
2.15666
2.01434
2.71433
3.16881
2.68663
2.0811
2.02874
1.40156
3.70481
1.67663
1.22409
1.80746
1.9085
3.44413
1.97882
0.843276
1.82008
1.88743
1.54185
1.40001
3.67865
3.48691
1.21099
2.10535
1.40013
1.40001
1.89671
2.46807
1.52576
2.41944
2.23086
1.13428
1.40001
1.61875
1.94126
0.574266
3.61535
2.10924
1.38769
1.40041
1.87908
3.10709
2.38715
1.85333
1.09964
1.1712
1.86362
1.86249
3.58789
1.40001
2.69768
2.15957
1.64586
1.61124
2.70942
2.45967
2.46509
1.40001
1.66861
1.40001
1.40001
1.40001
1.7327
1.40001
1.46784
1.74583
1.05344
1.56258
1.15217
1.75178
2.55812
1.58841
1.40001
2.53673
1.25937
1.40001
1.28705
1.91601
1.40001
1.40001
1.40001
2.19564
3.54954
1.50882
3.03966
1.50144
1.92742
3.70257
1.40001
2.2725
1.40001
3.02848
2.37644
1.60905
2.72136
1.92775
2.70315
1.99918
1.61504
1.95418
1.40001
2.70511
1.40001
2.10475
1.40001
1.40001
1.40001
2.58201
2.69802
1.40001
1.40001
1.98135
1.56269
2.56924
2.45749
1.84856
1.83349
2.45009
1.09755
1.40001
1.95908
1.40001
1.36292
2.71087
1.36984
2.19481
2.04995
2.20344
2.01309
2.04174
1.72011
0.588307
2.68467
2.69313
1.71214
2.0311
1.40001
1.71502
2.68971
3.18548
2.64488
2.72364
1.29068
1.40001
1.54341
3.51367
2.2135
2.11556
2.18663
1.71929
1.29746
1.40001
1.5671
1.40001
2.70088
1.40001
1.95789
2.82387
1.40001
2.72234
1.6156
1.44115
2.71042
1.95238
2.678
1.40001
1.23645
1.27003
1.88932
1.81
1.98164
1.97405
2.69159
2.69312
1.68987
1.85836
1.49515
1.69493
2.15431
2.68889
1.40001
1.40001
1.7175
1.40001
2.7103
1.87359
1.98205
1.75828
1.40001
1.40001
1.72676
2.01444
1.26655
1.51903
1.59741
1.78096
1.958
1.98714
2.68877
2.14647
1.40001
1.76321
1.52437
2.59495
1.84308
2.35772
2.69051
1.13784
1.89996
1.84659
1.98083
1.91154
1.10594
2.69268
1.92106
1.97216
1.60551
2.69603
2.69176
1.40001
2.69071
1.99028
1.12683
2.03269
2.04908
1.82994
1.82636
1.9222
1.5678
1.8135
2.70931
2.03229
2.71196
0.586372
2.69349
1.58286
1.77326
1.76332
1.49593
1.18968
1.96091
3.22784
2.15104
1.40001
2.0899
2.04405
2.01744
1.78962
1.15323
1.58744
1.59096
2.71162
1.47768
1.97037
1.97631
1.17202
1.91415
2.69583
1.40001
1.48043
1.16334
1.13603
1.40001
2.14741
1.13277
2.00423
1.99772
2.13363
2.14554
2.04346
1.40039
2.04248
2.0371
2.72387
1.17454
1.81149
1.12154
2.68675
2.07646
2.06375
2.68818
1.74013
2.11632
1.95693
1.20174
2.6876
1.46195
2.19831
1.59939
2.70715
1.40001
1.40001
2.09726
2.10231
0.585839
2.68784
0.980429
1.11515
3.06971
1.75916
1.59704
2.11494
1.16536
1.96408
2.68408
1.46468
1.45307
2.0718
1.39887
1.51207
1.78801
1.83148
1.51085
1.58828
2.29686
1.50549
1.40001
1.4
1.40001
1.40001
2.29415
1.48569
1.67781
2.18202
1.40001
1.86896
1.40001
2.70738
1.40001
1.48552
1.49002
1.87022
1.40001
2.71468
3.70958
1.36536
1.84618
1.55392
1.81535
1.80432
1.93843
1.07556
1.60493
1.40001
1.40001
1.03951
1.79816
1.95892
1.40001
1.23307
2.09323
2.94958
1.746
1.5993
1.83482
1.22347
1.40001
1.95564
1.47955
1.23322
2.44762
2.07268
1.81733
2.06449
1.7027
1.40038
1.60526
1.56927
1.9848
1.12029
1.40001
1.55187
1.40001
1.40001
2.11684
1.11713
3.70029
1.59981
1.40001
1.48794
1.68863
1.52375
1.67668
1.40001
1.40001
1.40001
1.66568
3.57636
2.00764
1.30204
1.40001
1.75333
1.61617
1.76109
2.09643
2.40691
1.68352
1.71937
1.62401
2.15721
1.28831
3.65383
2.09744
1.55542
1.97978
1.37349
1.77767
1.40539
2.33832
1.48758
2.71386
1.61676
1.86724
2.0436
1.28593
1.40001
1.615
2.71409
1.40001
2.50755
1.40001
1.77879
1.77755
1.85122
2.66756
1.40001
2.57967
1.68098
1.46027
1.40001
0.851954
0.874427
1.23299
1.03953
2.1585
3.75474
1.40001
1.12064
1.23436
2.58597
1.19366
1.97585
1.57442
1.35798
1.40001
1.40001
2.52676
1.69848
1.56887
1.70042
1.89191
1.88815
2.63659
1.40001
3.63171
1.56176
1.24564
0.88061
1.18368
1.40001
2.36085
1.40001
1.78736
0.985798
1.40001
1.96147
1.55657
2.70576
1.40001
2.71117
2.02244
1.53392
1.64541
2.71082
1.39998
1.52688
2.72646
1.18284
1.50857
1.4
1.7955
2.17411
1.18465
1.70895
2.14451
1.40008
1.97979
1.40001
1.40001
1.40001
2.71237
1.40001
2.01729
2.00281
1.43672
2.52702
2.94318
1.56068
2.2738
2.0427
1.40001
2.24771
2.71075
2.71039
0.936596
1.8678
1.95821
3.5932
1.79464
2.71433
1.53049
1.36628
1.50241
2.70804
1.40543
1.4
1.48105
2.71382
2.52874
1.51058
1.38535
1.48864
1.97879
1.40001
2.59938
3.74882
2.09503
2.09328
1.40001
1.40001
1.83873
1.40001
1.40034
1.95424
1.41118
1.39774
1.40001
1.93379
1.52002
2.14207
1.40001
2.52724
1.40001
1.67956
1.65583
1.40001
1.68703
1.62964
2.50142
1.59413
1.40017
3.39887
2.56178
1.40001
1.40001
1.70403
2.63495
1.57481
1.40001
1.6562
1.71236
1.37931
3.63245
2.01315
1.52439
2.00521
1.65246
1.19419
2.87334
2.14989
1.98541
1.47189
1.43259
2.7317
2.1792
1.74045
2.01676
1.51575
2.00759
1.75022
0.982499
2.0034
3.05209
1.40073
2.71758
1.76524
2.72671
1.37212
1.77221
1.40001
1.9365
1.60074
2.2028
1.40001
2.09657
1.94882
1.39446
2.46222
1.40001
1.59264
2.04896
2.49476
2.17113
2.75398
1.40001
2.51976
1.53944
1.40001
1.61013
1.18903
1.40268
3.70344
1.85194
1.40001
2.06214
1.39766
1.84317
1.93629
1.40002
1.22235
1.18368
3.4597
1.88171
0.588899
2.13218
3.05083
2.09715
3.11638
2.0481
1.40001
1.40003
1.92776
3.14911
2.2379
2.05739
1.23887
1.23512
1.89321
1.88908
2.71078
3.60758
2.09119
1.40104
1.56006
1.4001
2.70851
2.50912
1.56003
1.27348
1.76816
1.97457
2.09605
2.11774
1.97635
1.38913
2.55975
1.75782
3.62189
1.97189
2.67737
1.6032
2.24641
2.71645
1.77334
2.44802
1.59822
1.93486
2.49878
1.12546
2.32346
1.66134
1.40945
2.06865
2.71366
1.81288
1.65834
1.39042
1.99437
2.23782
1.14657
1.51379
1.5848
1.97979
1.40501
1.39975
1.67741
2.00936
1.27088
1.67448
0.980653
1.55435
1.40001
1.58002
1.40001
1.58747
1.40001
1.24563
2.3065
1.21872
1.40001
1.98736
1.76346
1.42418
1.75552
0.969325
1.61931
2.31775
1.23686
1.84364
1.63838
1.38255
1.40001
1.40001
2.82184
1.77245
3.60448
1.76553
1.33005
1.40001
1.40001
1.22598
2.10022
1.38492
1.54029
2.60894
1.31071
2.37535
2.00503
1.4724
2.01383
2.7102
1.91382
2.0507
1.27948
2.31092
1.4
2.33472
1.19106
1.40001
1.40001
1.7787
1.40005
1.92908
2.50217
2.06189
1.40001
2.06611
1.40001
1.40001
1.40001
1.4
2.18433
1.40001
2.19929
1.17071
1.57917
2.20576
1.4
1.86371
2.73225
1.47623
2.54101
1.17703
2.46596
2.70898
3.6388
1.28025
1.40001
1.38266
1.87898
2.31485
1.32061
1.40001
1.40001
2.23811
1.40001
3.38935
3.64224
2.73288
2.71624
1.78261
1.40001
1.40001
1.4
1.90674
2.43935
3.12643
3.60377
1.40001
2.52504
1.40145
2.15277
2.46891
2.2183
1.22232
1.4
1.4296
1.73359
2.71089
1.09243
2.47679
1.49626
2.07418
1.47029
2.74152
1.40001
1.19273
1.08189
2.70886
1.2109
1.78309
1.23566
1.9144
1.40001
1.20201
1.18693
3.63848
1.94488
1.40001
1.40001
1.35895
1.40001
2.21333
1.40001
1.40001
1.74715
1.38305
1.66036
2.70754
1.62303
3.59815
1.45619
1.92863
1.40001
1.55429
1.40001
1.40001
1.85621
3.58107
1.40001
1.97466
1.3132
1.46479
3.65386
1.39967
1.40001
1.40001
0.590964
2.01668
2.48823
1.40001
2.03027
1.47167
2.09983
1.52422
2.49052
1.40001
2.71037
1.59441
1.40001
1.79967
2.12708
1.93515
1.40001
2.70212
1.63019
1.40001
2.07074
1.40001
1.95484
2.7127
1.95317
0.972604
2.18275
2.71081
1.14808
2.45471
2.14544
1.87512
1.40002
1.91887
1.40001
1.94649
1.13139
1.84206
2.61763
2.59862
1.80857
1.4547
1.40001
2.12942
1.15634
1.40001
1.40006
1.33059
2.95944
1.37993
1.40001
2.96442
1.40001
1.40001
2.6367
1.52736
2.53636
1.32404
1.40001
2.74772
1.40001
1.40011
1.11241
1.39674
3.69646
3.62659
1.40001
1.40001
1.40004
2.316
1.46132
1.47922
2.2784
2.29878
1.40001
1.80338
1.40001
1.40001
2.09033
1.55131
2.45732
1.40001
2.55001
1.40001
1.12295
1.40075
2.29195
1.40001
2.70408
1.45557
1.54375
1.40001
1.40001
1.40001
1.63896
1.34807
1.40001
2.71109
1.15784
1.14915
1.13043
1.86875
1.40001
1.40001
1.39897
1.55397
1.47936
1.40001
2.71027
1.40001
1.40001
1.40001
2.21568
1.4
1.58659
2.69168
1.59205
1.15696
1.40001
2.54517
1.44807
1.88675
1.48392
1.27481
2.51767
2.88514
1.49438
2.70773
3.18552
2.18814
1.40001
3.26032
0.962944
2.31186
1.33823
1.40001
2.71065
2.20489
1.40001
1.71169
2.17701
1.40001
1.95413
1.96099
1.93947
1.42778
1.40001
1.39849
1.40001
1.40001
1.4001
1.58957
2.65346
1.95965
1.88245
1.59899
2.73208
1.24764
1.54477
2.69112
1.40001
2.3614
1.40001
2.19641
1.77468
2.20214
1.40001
1.40001
1.40001
1.40001
1.39834
2.35243
1.40001
1.39285
1.40001
1.40001
1.40001
3.65582
2.06091
3.70243
2.66449
2.88305
1.3994
3.6561
2.10887
1.52739
2.71428
2.44222
2.46212
1.41822
1.44974
1.40001
2.07515
2.44799
2.65064
2.29139
1.91068
1.40004
3.0062
1.45992
2.19061
1.40018
3.55649
1.33044
2.57448
2.37651
2.715
0.606307
2.86352
1.40001
0.990717
1.40001
1.40001
1.88649
1.54234
1.47162
1.19025
1.40001
2.99002
3.55591
1.40001
1.40001
2.25269
1.34191
2.50505
1.39966
1.41039
1.72685
2.70724
1.40001
2.5451
2.14671
1.40001
2.79916
1.38534
1.40001
1.78256
0.994018
1.27943
1.51789
1.7383
2.45017
1.40001
1.29487
2.70757
3.80593
1.47347
1.40001
1.77822
2.7072
1.15504
1.40001
2.43742
1.97384
1.51702
3.44854
1.39459
1.40001
0.965527
1.40001
2.71164
1.25688
1.2389
1.23589
2.12809
1.35372
1.37516
1.40001
1.40001
2.53267
1.40001
2.71565
2.131
1.13344
1.99834
1.40001
0.96692
1.40001
2.04856
1.97378
1.88744
1.58727
0.65238
2.70819
1.5915
1.4
1.40001
1.5029
1.50869
1.40001
1.8622
3.60777
2.00493
2.09619
1.40001
1.40001
1.40001
1.27662
2.21391
1.78734
1.68764
1.66991
1.97341
1.88312
2.39058
1.40001
1.40001
1.40001
1.95007
1.2374
1.19638
2.7075
1.19264
1.16835
2.38531
1.40001
1.57712
1.35055
1.40001
1.40001
1.40001
3.67955
2.55379
2.40132
1.75612
2.51585
1.50819
1.8218
1.72239
3.58345
1.40001
1.40001
1.40001
2.71985
1.53807
1.40001
2.72026
1.40001
2.38
1.99996
2.70793
2.71514
2.66514
2.63549
1.40001
2.71493
2.69175
2.53816
1.40001
2.25172
1.4
1.40001
2.58567
2.64447
1.40001
1.40001
1.59185
1.48396
2.41787
1.11231
2.68115
1.89522
1.40001
1.40001
1.40001
2.23086
1.40001
1.70702
2.58054
2.93639
2.39998
2.38182
2.71055
2.06407
2.16587
1.40001
1.40001
1.78121
2.71626
1.40001
1.62866
1.77395
2.11419
2.71924
2.20051
2.28828
1.17963
1.5754
2.30189
2.13482
3.63615
2.687
1.85685
2.06198
2.70898
2.70935
1.59251
1.94658
1.40001
1.40001
2.71189
2.45954
1.65459
1.7362
2.72079
1.49865
2.39519
1.40003
1.61935
2.48351
2.70661
1.40001
1.39451
1.3992
2.25518
1.56892
2.70704
3.62623
2.71464
3.64787
2.70957
2.09757
1.76334
1.7571
2.70921
1.40001
1.41807
2.38167
2.5998
1.34506
1.40001
2.71094
1.09219
0.617536
2.55551
1.40001
1.10521
1.49268
2.71005
2.26888
1.71785
1.70174
2.71047
1.40001
1.8632
2.65326
1.21671
1.89099
1.40001
1.8599
2.14685
1.40001
2.70644
2.51763
3.13363
1.39993
1.40454
1.72476
1.39999
1.7817
1.40001
2.11069
2.70972
1.97478
1.33995
1.35466
1.98971
1.76707
2.03142
1.87944
1.40001
2.08492
1.40001
1.59699
1.7632
1.29444
2.1541
1.34939
1.40001
1.90671
1.38282
1.39317
1.40001
1.40001
1.09783
2.46994
2.69839
1.40001
1.40001
1.76148
1.40001
1.71402
2.59372
1.39189
1.40001
1.64535
1.40001
2.23694
1.33444
2.7192
1.323
1.73062
1.40001
1.74794
2.05209
1.96234
1.7201
1.40001
1.5627
2.71947
1.40001
1.431
1.78056
1.20626
1.70484
1.74033
1.95143
2.70585
1.72417
1.40001
1.40001
1.40007
1.70691
1.40001
2.04953
1.85539
1.40001
1.40001
1.40001
1.39992
2.70519
1.44355
0.598671
2.67976
1.19125
3.22299
1.85218
1.14362
1.09964
1.55782
1.96002
1.40001
1.80288
2.69767
1.89229
0.971144
2.71593
2.2101
1.40001
2.42711
2.42949
2.69348
1.40001
1.45404
1.44791
1.93734
1.7825
1.95795
1.54494
2.76717
2.71229
1.37105
2.53081
2.40302
2.71865
1.85758
2.26887
1.40001
1.83264
1.59194
1.40001
1.40001
1.40001
1.10197
1.40001
1.40001
1.88248
1.40001
1.40001
2.71256
1.40002
1.80276
2.71168
1.40001
1.40001
1.39778
1.40001
2.78684
2.71004
1.90545
1.16717
2.70977
2.76227
2.53353
1.40001
1.40001
1.80442
2.63746
1.40001
1.20335
1.57955
1.88021
1.15866
1.14628
1.50575
1.87036
1.40738
1.48414
2.7082
2.7121
1.10802
1.22105
2.71325
1.40001
1.40001
2.11603
1.40001
1.82851
1.40001
2.71253
1.40145
1.39941
1.40001
1.40001
1.7095
2.65163
2.52778
2.70853
1.40039
2.64544
1.80729
1.40001
1.82289
1.40001
2.66596
1.40001
1.29576
1.06228
1.40001
1.40001
1.40001
2.50824
1.64278
1.40001
1.40001
1.51618
1.52717
2.47256
1.52069
1.40001
1.55691
0.855265
1.19779
1.4
1.40001
2.70843
1.88565
1.57773
1.40001
1.74075
1.88367
2.45032
2.7103
1.80877
2.68109
1.40001
1.28231
1.40001
3.57843
2.03002
2.71128
2.39881
2.70866
1.1598
1.40001
1.40001
1.09934
1.4
1.40001
2.7117
1.1497
1.13534
1.64274
1.40001
1.40246
1.40001
2.66607
2.89947
1.40001
1.40001
1.64888
1.40001
1.74376
0.995442
1.79541
1.08039
2.91177
3.44852
1.44442
2.71886
1.51294
1.40001
3.68915
1.40001
1.93619
2.71117
1.10913
1.40001
1.40001
2.71436
1.59772
1.30113
1.40001
0.619612
2.36409
2.05781
1.40515
2.70571
2.30332
1.40001
1.62341
1.67051
1.12165
2.18477
1.77555
1.40001
1.40001
1.40383
1.45463
2.44616
2.71251
2.7206
1.9703
1.33917
1.90001
2.71762
1.76873
1.9682
1.64965
1.40001
1.40118
1.40001
1.4
1.36461
1.02393
2.78218
1.3448
1.40001
2.07876
1.62374
1.35063
1.31805
1.33907
1.40001
1.62472
2.69983
1.40001
1.40001
1.52674
2.71049
2.80489
1.40001
1.40001
1.40001
1.40001
3.64622
2.67258
2.66145
2.97316
1.83543
1.40001
1.4
2.71305
2.77445
2.07076
1.53562
2.68522
1.40001
2.78223
1.40001
1.40001
1.40028
1.40001
1.44868
2.04697
1.40001
1.79829
1.40001
2.71983
1.73034
2.64866
1.40209
1.40025
1.40001
0.984319
1.43902
1.40001
2.38915
2.70869
1.40001
2.59289
2.03246
2.90783
1.40001
2.6085
1.40001
1.40013
1.09396
1.0873
1.39179
2.23495
1.40001
1.24775
1.39675
2.71901
1.8834
1.40001
2.71906
1.34621
1.40001
0.606566
2.51098
1.12204
0.929267
2.38283
1.40001
2.19044
1.40001
1.40001
1.40001
2.71527
2.28693
1.40001
1.40237
1.51519
2.93169
2.07087
1.40001
0.984837
2.71256
1.40001
1.26778
2.70441
2.33301
1.40001
2.29932
1.57338
1.40001
1.40001
1.40001
1.40001
2.73861
1.36167
0.974769
1.39938
2.27515
1.97383
2.67846
2.82728
1.40001
1.40001
1.40001
1.84386
1.40001
2.07944
2.97908
2.09905
2.15495
0.604959
0.802568
1.73496
1.03349
0.604956
1.40001
3.13177
2.93782
2.39438
1.40001
1.40001
2.76388
2.71755