/*--------------------------------*- C++ -*----------------------------------*\
  =========                 |
  \\      /  F ield         | OpenFOAM: The Open Source CFD Toolbox
   \\    /   O peration     | Website:  https://openfoam.org
    \\  /    A nd           | Version:  12
     \\/     M anipulation  |
\*---------------------------------------------------------------------------*/
FoamFile
{
    format      ascii;
    class       volScalarField;
    location    "6";
    object      T;
}
// * * * * * * * * * * * * * * * * * * * * * * * * * * * * * * * * * * * * * //

dimensions      [0 0 0 1 0 0 0];

internalField   nonuniform List<scalar> 
22702
(
1
1
0.963411
1
1.01756
1
1.12022
1
1
0.887612
1.1208
1.12044
1
1.11848
0.972057
1
1
1
1.12064
1
1.11872
1
1.11863
0.891937
1.11913
0.898539
1
1.11903
0.895269
0.890457
1
1.12046
1
1
1
1.11067
1.1196
1.11872
1
1
0.890943
1
1.06261
1
1.11889
1
1
1
1
0.894341
1
0.894895
1
1.1207
1
1.12063
1
1
1
1
0.890838
1
1
0.89955
1
0.88998
1
1
1
0.892141
1
1.1186
1.07575
1
1.1188
1.12591
0.892215
1.12019
0.897282
1
1.12088
0.896062
1.11865
1.11809
1
1
1
1
0.981601
0.890771
1.12102
1
1
0.88762
1
1.1187
0.886959
1
1
1
1
1.06271
1.12088
0.898525
1
1
1.03087
1
0.896709
1
1.12112
1.12039
1
1
0.887194
0.885328
0.889672
1
1
1
1
1
0.978191
1
1.10248
1.0109
1.12089
1
1.1213
1.12058
1.11862
1.12076
1
0.893521
1
0.889476
1
1
1
1
1.12058
1
1
1
1
1.1191
1
1.00716
1
1
1
1
0.894626
1
1.00311
1
0.898549
1
1
1
1.12064
1
1.11823
0.87556
0.891606
1.11919
1.11856
1
1.02376
1.07196
1
1.11983
0.897586
1.11085
1
1
1
1
1.11845
1.09921
1
1.12068
0.902458
1.1202
1
0.903381
1
0.892555
0.894379
0.999941
1
1
1.12006
1
1
1.11861
1
1.11995
1.12072
0.897797
1
1
0.8974
1.1186
1
1
1
1.11863
1
0.895649
1
1
1.11849
1.11851
1.12072
1
1.00001
1
1
1
1.11856
1
0.898768
1.12392
1.11856
1.1189
1
1
1
0.891581
1.11861
1.05749
1
1.11883
0.891981
0.895706
1.11887
1.11922
1
1.11945
0.892231
1.10602
1
1
1
1
1.11864
1
1.0729
1.0124
1
1
1.11868
0.88692
0.937667
1
1.11905
0.892472
1.11789
1
1
1
1
1
1
1
0.892163
0.93673
0.892932
1.11856
1
1
1
1
1.11089
1
0.894901
1
0.890944
0.89815
1.11847
0.89324
1.1187
1
1
1
0.999313
0.902489
0.88418
1
1
0.887029
1
1.12049
0.897725
1
1
1.12074
0.872
1
1.11851
0.88996
1.11881
1
0.894084
0.999352
1
1
1
0.899476
1
1
1
1
1.00538
1.07537
1
0.900095
1
1
1
1
1
1
1
1.12073
1
1.12069
1
1
1
0.895525
1
1.11895
0.893242
1
1.0941
1
1
1.12102
1
1
1
1.11749
1
1
1.11583
1.12097
1
1.02752
1
1
0.888718
1
1
1
0.888572
1
1
1
1
0.888658
1
1
1
1
1
0.883983
1.00002
1.11831
1
0.999994
1.11866
1.11917
1
1
0.900224
0.94117
1.12091
1
1
1
1.1188
0.892398
1
1.11828
1
1
0.902563
0.902631
1
0.901271
0.893437
1
1
1
1
1
1
1
1.12009
1.03095
1.1109
0.884714
0.977299
1.12044
1
1.11915
1.12072
0.889884
0.930939
1
0.894811
1
1.12466
1
1
1
1
1.11866
1
1
1
1
1
1
1
1.04598
1.11985
1
1.11858
1
1
0.89753
1
1
1
1
1.11857
1.09233
1
1
0.902832
1.11836
1.11847
1
1.11845
1.1185
1.11854
1
0.946536
1
1.11866
0.997695
1.11856
1
0.89277
0.999694
1.12037
1
1
1
1
0.894928
1.11846
1.10877
1
1.1182
1.11882
1.1209
1
1.05995
1.11888
1
1
1.08543
1.01828
1.1185
0.979642
1.11848
1
1.11849
1.11855
1.11848
1.11833
1
1.11214
0.979369
0.967168
1
1
1
1
1.12029
1
1
1
1
1
1.12052
1
1
0.998864
1.11846
1.10696
1
1.10066
1.00001
1
1
1.11839
1
0.999009
1.00137
1
1.11858
1
1.11874
1
1
1.09038
1
1.11867
1.00001
1
1.11855
1
1.11851
1
1
1
1.11866
1
1.11931
1
1.11865
1.12078
1.1187
1.11835
1
1.12109
1.12096
1
0.891962
1.11204
1.08741
1
1.11867
1
0.887342
0.888844
1
1
1
1
1
0.886819
1
1.1186
1.03577
1.11833
1
1
1
1
1
1.11853
1
1.12007
1.07279
0.929796
1
1
1.03646
1.03173
1
1
1.04519
1
0.900977
1.11844
1.11849
1
1
1
1.12175
1
1.00001
1.11896
1.11857
0.985317
1
1
0.894618
1.1085
1
1
1
1
1
1.11849
1.12099
1
1.11855
1.1186
1.11877
1
1
1
1
0.897672
1.12058
1
1
1.10916
1.11841
1
1.11232
1.1209
1
1
1
1
1
1.11856
1
1
1
1
1.11995
1
1.11851
0.894889
1
0.883945
1
1
1
0.999029
0.892366
0.999736
1
1
1
1.01792
1
1
0.961729
1
1
1
1
1
1
1
0.999999
0.980988
1
1
0.999277
1
0.895071
1
1
1
1
1.09072
1
1
1
1
0.896265
1
1
1.11222
1.12028
1
1
1
0.963964
1
1
1
1
1
1
0.987278
1.00571
1.11851
1
1
1
1.11952
0.97191
1
1
1
1.11886
1.11899
1
1
1
1
1
1
1
1
1
0.897163
1
1
1.12013
0.894254
1
1.1197
1
0.897565
1
1
0.89562
1
1
1
1
1
1
1
1.11651
1.11843
1
1
1
1
1.10934
1
1.04181
0.894479
1
1
1
1
1
1
1
1.01119
1
1
1.06367
1
1
1
1.09978
1
1
1
1
0.893965
1
1
0.889247
0.894443
1
1
1.11883
1
1.0036
1
1
1
1.08594
0.8799
1
0.877381
1
0.927644
1
1
1
1.11852
1
1
1.11839
1
1
1
1.11838
1
1
1.11842
1
1
0.889173
1
1.04151
1
1
1.12059
1.12042
1.08274
1.10764
1
0.894005
1
1
1.11384
1
0.887618
1
1
1
1.11863
1
1
1
1
1.07438
1
1.10844
1.11882
0.889067
1
1
0.900033
0.898545
1
1
1
1.08722
1.09175
1
1
1
1
1
1
1
1.05466
1.11856
1.00356
1
1.11726
0.894152
1
1
1
1.068
1
1.02557
1
1.10921
1.11801
1
0.891368
1
1.12062
1
1
1.11871
1.11196
1
1.12255
1
0.892103
1
1
1
1.12006
1.11648
1.10569
1
1.11901
1.11852
1
1.11871
1
1.11806
1
0.891548
0.991643
0.895121
1
1
1
1
1
1.1183
1
1.1184
1
1
1
1.11323
1
0.894074
1.11848
1
0.902121
0.890909
0.884444
1
1.06272
1.01308
1.11885
1.11854
1
1
1
1
1.11848
1
1
1.11841
1.11848
1
1.04632
0.999804
1
0.999092
1.12189
0.959895
1
0.95079
0.901538
0.899634
0.991295
1.11844
1.11706
1.02687
1.11865
1.11855
1
1
1.12197
1.12017
1.11862
1.12159
1
1.11851
0.899788
1.11943
1.11857
1.1191
1.11842
0.95753
0.9719
0.981715
1.11852
0.989045
1.11837
1
1
1.11885
1.11884
1
0.894246
1.11844
1.11846
1
1.11866
1.11852
1
1.11859
0.898721
1.11843
1.12001
1.1207
1.11827
1
1
1
1.11844
1.08002
0.906086
1.11839
0.893043
1.11853
1
1
1
1
1.11921
1.11844
1
1
1.11845
0.893685
1.11864
0.896984
1
1.11787
1
0.887714
1.11898
0.910612
1
1.1185
1.11913
1.11849
1
1
1.0631
1.11903
0.896472
1.11854
1
1.11857
0.966514
1.11863
0.891089
1
1.11906
0.900474
1.11886
0.898806
1
1.11863
1
1.11965
1
1.07255
1.11456
1.09544
0.884937
1
1.11876
1
1.11843
1
1.1187
1
1
1.11838
0.994872
1.11926
0.887614
1.10526
1
1.08703
1
1.11869
1.11864
1.11833
1
1.10793
1.11845
1.11076
1.07513
1.11873
1
1.08248
1
1.11867
1
1.01926
1
1.11081
1
1.11849
1.11366
1.11347
1
1.11706
0.888622
1
0.894609
1
1
1
1.12217
1
1.11879
1
1
1
1.11865
1.11685
1.09964
1.11941
1.11901
0.883165
1.11878
1.12009
1
1.10221
1.11852
1.11664
1
1.12012
1.12075
1
1.12073
1.11836
1.11852
1.11892
1
1
1
1.11848
0.894441
1
1.11859
1
1
0.888665
1
1
1.11847
1.11857
1
1.1185
1.12029
1.11883
0.992325
1.11861
1
1.11864
1.11853
1.09654
1
1
1
1.11892
1.11875
1.11862
0.983068
1
1.1201
1.11862
1.11889
1
1.11852
1.11868
1.11858
1.11979
1
1.11869
1.11867
1.10438
1.11892
1.11932
1
1.12022
1.11736
1.11857
1.11959
1.11884
0.890413
1.11869
1.11901
1
1.11857
1.11857
1.11848
1.1185
1
1.11876
1.11854
1
1.11843
1.10172
1
1
1
1.11871
1.12005
1
1
1.0678
1
1.11863
1
1
1.11849
1.11883
1.11847
1.11855
1
1
1
1.0867
1
1.11845
1
1
1.12243
1.12027
1
1.11847
0.885106
1.1187
1.11843
0.917315
1
0.884956
1.10494
1.11786
1.11833
1.11826
0.890082
1.11859
1.11881
0.889693
0.88856
1
1.11876
1.11856
1
1
1.11865
1
1.12
1
1.10505
1
1.05934
1.11871
1.11913
1.0872
1.10845
1.12188
1.11963
1.1135
1
0.891593
1.11976
1.11856
1.12075
1
1
1
1.11922
1
1.11863
1.1184
0.918014
1
1.11844
0.999982
1
1.00001
1.00001
1.11846
1.11833
0.999561
1
1
1.11844
1.11902
1.11862
1.11907
1.11904
0.895523
1.10382
1
1.11789
1.11851
1.11863
1.11597
1
1.11851
1.11559
1.11889
1
1.11873
1.11917
0.954341
1.11859
1.11887
1
1.11871
0.952439
1.11884
0.953036
1.11855
1
1.11862
1.12358
1.11865
1.11864
1.11863
1.11911
1.11871
1.11904
1
0.977224
1.11881
1.11846
0.95568
1.11851
0.997075
1.07885
1.11873
1.11887
1.11919
1
1.11916
1.07933
1.11914
0.977014
1.11922
1.1206
1
0.965971
1
1.11627
1
1.08374
1
1.11396
0.965366
1
1.11872
1.11899
1
1.11928
1.1189
1.12014
1.1194
1.12
1
1.12032
1
1
1
0.971866
1.11832
1.11805
1.11772
1.11847
1.11898
1.11811
1.1188
1.11879
0.970898
1.00879
1
1
1.12404
1.11865
1.11859
1.11853
1.00001
1.06394
1
1.12065
1.10626
1
1
0.91883
1.11852
1
1
0.902997
1.11847
1
1.11883
1.11842
1.12209
1.11434
1.11863
1
0.886013
1.03147
1.11841
1.11864
1
1.11869
1.11849
1.06349
1.00305
1.02927
1
1.11947
1.11859
1
1
0.890016
1
1
1.11857
1.11856
1.11844
1.1186
1.11863
1.12046
1.1187
1.11788
1.11853
1
0.998909
1.11876
1.11844
0.999183
1.11854
1.11853
0.887303
0.888959
1.11852
1.11921
1
1
1.00052
1.11855
1.11833
1.11848
1
1.11846
1
0.961501
1.12103
1.11941
1
1.05901
1.1184
1
1.11994
1
1.11871
1.08327
1.1188
1
1.11869
1.1162
0.889528
1.11864
1
1.11872
1.11828
1
0.886834
1.11893
1.1044
0.999266
1.11442
1.11854
1
0.998282
1.11982
0.999391
1.11843
1
1
1.11908
1
1.11967
1.11856
0.998944
1.09438
1
1.11854
1
1
1
1
1.11863
1
1
1.11623
1
1.11855
1
1.07954
1.11798
1.11808
1
1
0.999126
1
1.11843
1.11858
1.11887
1.11858
1.11874
1.11871
1.11859
1
1.11861
1.11835
1
1.11863
1.11857
1
1.11827
0.976196
1.01663
1.11857
1.11857
1.11866
1
1.11856
1
1.11844
1.11851
1
1.11859
1
1
1
1
1.11875
0.889164
0.999381
1
1.11859
1.12015
1
1.11864
1
1.00136
0.895545
1.11863
0.999889
1
1.11861
0.999541
1.1185
1
0.999942
1
1.11837
1.12028
1.11872
1.1189
0.890705
1.1188
1.11865
1.11829
1.0308
1
1
1.0551
1.11858
0.886363
0.888548
1
1.11891
1.11845
1.11923
1
1
1.11838
1.11863
0.999965
1
1.08832
0.886463
1
1.02206
1.12019
1.11885
0.999498
1.11863
1.12049
1
0.99964
1
1.11832
1.1215
1.04992
1
1.11343
1
1.00061
1.11807
0.891024
1.11883
1.11851
0.999131
0.999974
1.1047
1
0.999912
1
1.11954
1
1
0.884708
1.11868
1
1
1
1
1.1209
1.06917
1
1
0.890005
1.11868
1.07029
1
1
1
1.1135
1.11991
1.11868
1
1
1.11767
1
1.11852
1.11877
1
1
1.11903
1.11861
1.11334
1
1
1.11892
1.11829
1
1
1
1.11817
1
1
1
1.11838
1.11952
1.11902
1
1.12014
1.00001
0.903744
1.11871
1.11802
1
1.12031
1.11584
1.12185
1
1
1.11887
1
1.06669
1.11829
1
0.888179
1
1.1192
1
1
1.11807
1
1
1
1.03989
1.11871
0.90122
1
1.11891
1
1
1.11856
1
1.11948
1
1
1.1186
1.11844
1
1.00002
1
1
1
1
1
1
1.12014
1.11869
1
1.11878
0.89235
1.12097
1
1.11849
1.11957
1.11867
1.12094
1.12255
1
1
1.11837
1
1.07729
1.12003
1.11847
1
1.11928
1.12046
1
1.1047
1
1.11846
1.08036
1.11831
0.999293
1.11788
1.11122
1.11919
1.11881
1.01039
1.11858
1.11934
1
1.11862
1
1.11864
1
1
1
1
0.999033
1.11863
1.11865
1.10262
1
1.12002
1
1
1
0.893334
1
1.1158
1
1.1089
1.11378
1
1
1
1.10953
1.12226
1
1
1.11885
0.887128
1.02181
1
1.11992
1.11847
1.10917
1.11585
1.11848
1
1.11882
1
1
1
1
1.11823
1.11868
1
1.11283
1.01658
1.11872
1.11137
1
1
1.11162
1
1
0.894034
1.08359
1
1
1.11768
1
1.11946
1.10887
1
1.10861
0.888302
1.11842
1.11851
1.11866
1
0.893595
1
1
1
1.11856
1.10192
1
1.11648
1.11837
1
1.11869
1
1
1
1
1.11837
0.999814
1
1.11918
1
1
1.11573
1.11849
1
1.11928
1.02441
1.00001
1
1.11866
1
1.11882
1
1.00391
1.11847
1
1.11857
1
1
1.04228
1.11835
1
1
1
1
1
0.998969
0.889462
0.886613
1.00511
1
1.00893
1
1.01111
1
1.1185
1
1.07519
1
1.1187
1
1
1
1.1187
1
1.09776
1.11857
1
1.06681
1.11879
1
1
1.12184
1.11849
1
1
1.01719
0.886168
1
1.11868
1
1
1
1
1.0219
1.11867
1
1
1
0.892856
1
1.1186
1.11862
1.12205
1
1
1
1
1.06248
1.12006
1
1
1
1.1196
1.11848
1.01729
1
1
1
1.11843
1.1185
1
0.887623
1.1187
1.11853
1.11828
1.11861
1.11829
1
1
1.11861
1.11911
1.11849
0.896888
1.01131
1.11841
1
1
1
1
1
1.11858
0.88792
1
1
1.11852
1.05547
1
1.11815
1
1
1
0.892612
1
1
1.03395
1.11867
1.11863
1
1.11759
1.11902
1
1.02135
1
1.11946
1
1.11879
0.886813
1
1
1
1
1.11874
1.00002
1
1
1
1.11943
1
1
1
1
1.11849
0.89173
1.09656
1.11929
1
1.11835
1
1
1
0.999168
1
1.11814
1
0.93773
1
1
1.00001
1.11836
0.896348
1
1.11885
1
1.11824
1.11855
0.891937
1
1
1.11372
1
1
0.894102
1
1.11983
1
1.11389
0.999822
1.11858
1
1
1
1
1.11906
1
1
1.11861
1
1
1
1
1
1
1
1
1.08046
1
1.0418
1.11893
1
1
1
0.891541
1
1
1
1
1.11943
1.11857
1.01765
1
1
1.11892
1
1
1.11852
1
1
1
1
1
1
1.11834
0.930986
1.11852
1.11917
0.999144
1
1
1
1.07348
1
1
1.11813
1.11859
1
1
1
1
0.890443
1
1
1
1.08151
1
1.11863
1.11932
1
1.11898
1
1
1
1.06685
1
1.12042
1
1.11848
1
1
0.998926
1.11848
1
1
1
1
1
1.11826
1.00001
1
0.896938
1.11925
0.896374
1
1.11917
1
0.998811
1
1.11874
1.11931
1
1.11773
0.967398
1.11846
1.11647
1.00001
1
1
0.892032
1
1
1
1.11855
1.07179
1.11858
1
1
1
1
0.999102
1.11862
1
0.890031
1
1
1
1
1
1
1
1.11943
1.11798
1.1199
1
1
0.999118
1
0.995035
1
1
1
0.884728
0.994607
1
0.887424
0.890694
1
1.11873
1.11861
1
1.11901
1.1186
0.892397
1.0852
1
1
1
0.88927
1.11833
1
0.890626
1
1.11821
1.0236
1
1
1
1
1.11861
1.12011
1
1
1.11852
1
1
1.11985
1.11852
1
1.1069
1.11864
1.11999
0.990314
1.11914
1.00256
0.890751
1.09326
1.11832
1
1
1
0.887604
1
0.889893
1.11977
0.991201
1.11852
0.985062
1
1.11864
1.05884
1
1
1.11857
1
1.05146
1.11857
1
1
1.11932
1.11827
0.895266
1.0715
0.999971
1
1.075
1
1.1195
0.986512
1.12216
1.11798
1
1
1
1
1.11345
1
1
1.11808
0.999897
1.1184
1.10133
1.11893
0.894476
1
1
1
1
1.1185
1.00001
1.11858
1
1.11864
1.11839
1.01658
1.12065
1.04164
1.11876
1
1.08366
0.897774
1.11895
1.11852
1.0964
1.02317
1.11988
1.11849
1.11856
1.11889
1
0.97754
1.01841
1
1.11853
1.05907
1.11852
1.00001
1
1
0.904224
1.11934
1.11966
1.098
1
1.04869
1
1.11912
1.11951
1
1.11886
1.11933
1
1
1
1.11885
1
1.05034
1.11894
1.08526
1
1.11862
1
1
1
1
1
1
1
1
1
1
0.895632
1
1.11019
0.890495
1.07245
0.999598
1.11813
1
1.06684
1
1.07978
1.10245
1
1.00062
1.11943
0.977335
1
1.11921
1.11789
0.984612
1
1.11801
1.11839
1.11917
1
1.1187
1.11849
1.11829
1
1.057
1
1.00002
1.11844
1
1.11864
1.01899
1.119
1
1
1.11863
1.11901
0.905904
1
1.11898
1.09075
1.11839
1
1
1.11993
1.11935
0.999499
1
1.11051
0.999083
1.11859
1.00002
1
1
1
1
1.05691
1
1.09383
1.11885
1.09022
1.11837
1
1.00108
1
1
1.11976
1
1.11816
1
1
1
1
1
1
1.01475
1.06522
1
1
0.892271
1
1.11836
0.896546
1.11929
1
1.06099
0.999925
1.11876
1.07961
0.896311
1.06758
1.00001
1.11863
1.11891
1
1.07525
1.11929
1.11826
0.999538
1.11979
1.11549
0.889085
1
1
0.999187
1
1.11772
1
0.900007
1.1185
1
1
1.10671
1
1.11869
1
1.11839
1
0.904428
1
1
1.11841
1.11669
1.11832
1
1.11787
1.11857
1.11684
1
1
1.11666
1
0.927453
1
1
1
1.11874
1
1.1186
1.07942
1.118
1
1.11848
0.999821
1
1
1
1
1
1
0.918701
1
1
1.11855
1
1.11974
1.12009
1
0.892694
0.889651
1
1.11881
1.02207
0.888852
0.887393
1
1.11845
1
1.11899
0.89075
1.00036
1
1
0.999863
1
1
1
0.999975
1.05055
1.1186
1
1
1.11882
1.07275
1
1.10897
1.11847
1.11948
1.05162
1.11743
1
1.11856
1
1.1164
1
1.11752
1.119
0.999184
1.11861
1.12023
1
1
1
1
1
0.974709
1.12019
1.00001
1.00001
0.896267
0.999993
0.885075
0.895812
1
1.11805
1.11885
1.11846
1
1.11864
1
0.893826
1
1
1.11854
0.945129
1.11827
1
1.11816
1
0.996772
1.1191
1
1
1
1.11848
1
1.11873
0.89508
1
1
1.07201
1
1
1.0675
1
1
1.1184
1
1
1
1
1
1.11857
1.11851
1
1.11908
1.11821
0.889789
1.05863
1.11796
1
1
1.10773
0.999695
1
1
1.11853
1.11916
1.08197
1
1.11843
0.887535
1.11502
0.999828
1
1.11822
1.00001
1.11814
1.09947
1.09283
1
1
1.11861
0.914144
0.891158
1
1.11848
1
1.11833
1
1.07348
1
1
1.11834
1.07997
0.892194
1
0.999413
1
1
1.00739
1.05046
1.1186
1
1.11851
1
1
1
1
1
1
1.01905
0.886085
1
1
1.01192
1
1
1
1
1
1.1187
1
1
1.11863
1.11855
1.08791
1
1
1
0.955206
1.11892
1.08587
1
1
1
1
1.11885
1
1
1
1.11906
1
1
1.08836
1.12251
1.01271
0.92888
1.11842
1.08752
1.11868
1
1.06386
1
1
1
0.895319
1.00064
0.890775
1
0.891418
0.880035
1
0.895705
1
1
1
1.05723
1
1.1191
1.11873
1.00033
1.06232
1.10136
0.889547
0.923802
0.966951
1
1.11846
1.11882
1.11848
1.11862
1.10337
0.966043
1
1.10389
1
1.11662
1
1
0.999025
1.00262
1
1
1
1.11924
1
0.891039
1
1.11885
0.896166
1
1
1.11859
1
1.11847
0.999838
1
1
1.11875
1.10591
1
1.12368
1
1
1.00414
1
1.05885
1
1
0.892286
1
1
1.11831
1
1.11876
1
1.00001
0.890166
1
1
0.904829
1.0003
1
1.11875
0.889251
1.11945
0.896015
1.11886
1
1
1
1
1
1
1
1
1
1
1
1.1141
1
1.11916
1.11975
0.88323
1
1
1
1
1
1
1.11563
1
1
0.892184
1
1
1.11895
1
1
1.04638
1.10167
0.893218
0.892547
0.909657
0.925316
1
0.99899
0.900591
1.00013
1.11162
0.999122
1
1
1.11808
1
1
1
0.927789
1
1.04343
1
1
1.05141
1.11862
1
0.892904
1
1
1
0.999094
1
1.11915
1.11854
1
0.890225
1
1.0669
0.884658
1
0.967853
1
0.998826
0.881041
1
1
1
0.998888
0.889854
1
0.891826
0.999535
1.06631
1.10823
0.893774
0.896537
1
0.997536
1
0.999615
1
1.11827
1.11857
1
1.0051
1.11818
1.11862
1
1
1.11852
1
1
1.00001
1
1.11818
1
1
1.00521
1
0.999583
0.904228
1
1
1
1
1
1.11955
1.01174
1.00001
1
1
1
1
1
1.00001
1
0.886504
1.02752
0.999604
1.11607
1.1193
1
1.00467
1.11825
1.10636
1
1
0.891004
1.11876
1
1.11959
1
1.11848
1.08033
0.886992
1
0.885814
1.11142
0.999905
1
0.886067
0.89681
1
1
1.10161
1
1
0.883405
1
1
1
1.03936
1
0.882773
1.11832
1
1
1
1
1.11853
1
1
1.11998
1.1074
1
1
1
1.11952
0.883724
1
1.11899
1.1185
1
1.09651
1
1.00001
1
1
1.11279
1.00501
1
0.890666
1.07086
1
1
0.999231
1
1
1.11855
1
1
1.00001
1
1.11923
1
1
1
1
1
1
1
1.05607
1
1.11879
1
1
1.11899
1
1
1
1.11844
1.1198
1.01301
1
0.999328
1
1
1
1
1.1198
1
1
1.11858
0.891076
1
1
1
1
1
1
1.09794
1
1
1.11879
1.11911
1
1
1
1.11895
1.1185
1
0.999916
1.1207
1
1
1
1.00001
0.89519
1.00822
0.998937
0.998861
1
1
0.891258
1.11904
1
0.884413
1
1.11898
1.11429
0.892552
0.999831
1.11862
1.11896
1.11809
1
1
0.981076
1.10926
1.1003
0.893014
1
1
1
1.11878
1.1185
0.895761
0.999215
1
1.11862
0.893611
1
1.1173
0.891924
0.990836
1.00185
1
1.12028
1
1
1
1
1
1
1.00003
1.1113
1
1
1.12054
1
1
1
1.11847
1
0.886162
1
1
1
1.04372
1
1
1
1
1
0.939431
1
0.895318
1
1.1187
1.00002
0.960792
0.963815
1
1.00102
1.06611
1
1
0.885389
1.11855
1.11869
1.11849
1
0.894945
0.886082
1
1.11852
1
1
1
1
1
1.00001
1
0.892107
1.07926
1
1
0.8934
0.995826
1
1
1
1
0.882466
1
0.909715
1
1
1.11968
1
1
0.885863
1
1.11864
1
0.888962
1
0.891588
1
1.00206
1.11885
1.12368
1
1
1.12001
1
1
1.02779
0.999075
1
0.999481
1
1.11963
1
0.891915
1
1.12136
0.999708
1
1
0.94136
1
0.999711
0.895705
1.11847
1.04652
1
1
0.969143
1
1
1
0.937661
1
1
1
1.11862
1
0.888134
1
1
1
1
0.888735
1.11866
1.11516
0.895971
1
1.11725
1
1
1.11852
1.12006
1.1019
0.888487
0.999352
0.999795
1
1.11851
1
1
1
1
1.11873
1.00001
1
1
1.11956
1
1
1.11856
0.883794
1
1
1
0.891984
1
1
1
0.999604
1
1
1
1
1.09359
1
1.11968
1.1191
1.12171
1.11871
1.1188
1.11853
1
1.1189
1
1.11843
1.11856
1
0.999657
0.884797
1.10319
0.999975
1
1
1
1
0.999833
1
1.01975
1
1
1
0.956265
1.11856
1.11875
1.11833
1.10652
0.999962
1
1.00661
1.11877
0.999423
1.01904
0.999188
0.892716
1
1.00001
1
1
1
1
1
1.11845
0.886263
1.11848
1.11853
0.998533
0.882686
1
1
1
1.11871
0.886319
1.1061
0.888379
1.11847
1.11755
0.892307
1.11868
1.00673
1
1.11933
0.940405
1
0.999633
0.891622
1
0.891704
1
1.11859
1.11855
0.926544
1
1.1191
0.892114
1
0.891335
1
1.1188
1
1
1.11593
1
0.953797
1
0.999904
0.891639
1.12011
0.999851
1
0.892505
1
1
1
1
1.0687
1
1.11858
1
1
1.12199
1
1
1.11886
1
0.891802
1
0.899328
1
1
1
1
1
1.11415
1.07208
1.11848
1
1.11854
1.11104
0.881423
0.892887
1
1
1.11909
1
0.889961
1
0.995544
1
1
1.11862
1
1.11812
0.889719
1.11826
1
0.890347
1
1
1.11821
1.11811
1
1.00001
1
1.12102
1
1
0.894245
0.999834
0.89695
1
1
1
1.11902
1.11887
1.11966
1
1
0.885394
1
1.11848
1
1
1
1.11414
1.11854
1.11882
0.882839
1.11933
1.11845
0.893049
1.11979
1.00001
0.899118
1.00459
1
1
1.11849
0.87993
1.07952
0.879075
1.11846
0.999257
0.895838
1.11913
1
1
1
1
1.11862
1.12009
0.889586
1
1.00001
0.892797
1.00001
1
0.889373
0.892144
1.08608
1.11847
0.999564
1.11874
1
1.11877
0.944651
0.890799
1.11857
1.12012
1
1.11876
1
1
1.1184
1
1.09323
1.11986
1
1
1
1
1.11875
1.11731
1.11817
1
1
1.11813
1.12156
1.11909
1
1.11874
1
1
1
1
1
0.882877
0.953672
0.890201
1
1
1.11864
1
1
1.1193
0.894221
1
1.11843
1.1174
1.11389
0.880918
1
0.880748
1
1.00001
1.11962
1.0625
1.1204
1.10895
1
0.896546
1
1.11944
1.08699
0.896324
1
1
1
0.944852
1
1
1.11948
1
0.898038
1.11852
1
1
1
1
1
1.09776
1.02992
1
1.11908
1
1.11855
1
0.999207
1
1.11878
1.11854
1.11831
1.11994
0.999878
1.12026
1
1.11857
1.11865
1.10192
1
1
0.884525
1.11987
1
1
1.11779
1.11879
1.11832
1
1.11909
1
1
1.00001
1.11853
1.11848
1.03716
1.02706
1.11841
1.11874
0.910534
1
1
1
1
1
1.04537
1
1
1.10083
0.900677
0.999989
1
1.11858
0.999973
0.999951
1.0181
1.10603
1.12032
0.97296
1
0.89087
1
1.00034
1.11858
1.11904
1.1196
0.999722
1
1
0.893511
1
1
1.11859
1.01414
1
1
1
1
1
1
1
0.999982
1.11972
1
1
1
1
1
1.0757
1
1.05905
1
1
1.11848
1.11941
0.895907
0.999646
1
1
1
0.889381
1.11977
1.11849
1
1
1
1
1
1
1
1
1.11884
1.11947
0.889403
1.014
0.892247
1
0.893279
1
1.11867
1.03765
1
1
0.905433
1
1.11406
0.94742
0.999021
0.893856
1
1
1.1194
1.00001
0.99923
0.884424
1.11988
1.12066
1
1
1
1
1.11157
1
1
1.1185
0.999707
1.11873
1.00002
1
1
0.888018
1
1
1.11909
0.890495
0.937122
0.889391
1.11853
0.999794
1
1.11855
0.894081
0.890428
1.00631
1
1
1.11979
1.00001
1.05925
1
1
1.11976
0.893945
1
1
1.00004
1.11866
1.00004
1.11902
1
1.00001
1
1
0.909359
1
0.935989
1.00001
1
1.1181
0.88943
1
0.936806
0.94544
1
1
1.11903
1
1
1
1.11831
1.11853
1.00001
1.11561
1.12003
0.936379
1.11867
1.11498
1
1
1.11768
1
1
1
1
1
1.1194
1.11858
1
1
1
1.11907
1.00006
1
0.886145
0.914454
1
1.00001
1.04816
1
1
0.967798
0.893101
1
1
1
1.11929
1.10965
1.11851
1
1
1
1
0.891222
1
1.11751
1
1.11757
0.883424
1.11886
1
1
1
0.878756
1
1.11886
1.00001
1
0.895919
1.04614
1
0.999905
1.12083
0.884964
0.889664
1
1.11966
0.893261
0.886264
1
0.892612
1
1
1
1
0.876453
1
1
1
1
1.11965
1
1.09248
0.892053
1
1
1
0.890068
1.11853
1
1
0.998959
1.11788
1
1.11849
1.11947
1
1
0.919847
0.892555
1
1
0.893788
1.04084
1.0595
1
1
1.11857
0.99924
1
0.999283
1.1202
1
1
1
1
1
1
1.1192
1
1.04472
1.0395
0.901208
1.1065
1
1.11866
1.11848
1
1
1
0.971032
0.892127
1
1.06656
0.999905
1.10448
1
1
1
1
1
1.00201
1.05567
1.11889
1.1183
1
1.11857
1
0.88829
1
0.999232
0.999931
1
0.880521
1
0.888505
1.00001
1.11921
1.12005
0.885747
1.12064
0.89859
0.998872
1.09106
0.886298
1.08692
1
1
0.999553
1
1
1
1.00002
1
0.889102
1
1
1
1
0.999877
1.11931
0.944575
1
1
1
1.01058
1
1
1
1.06868
0.926164
1
1
1
1.01713
1.12005
1
0.877882
1
1.11896
0.972847
0.891478
1
0.887459
1
1
1.11271
0.999502
1.11186
1
1.00253
1
1
1.11845
1
1
1
1
1.02522
1
1.11864
1.11896
1.11978
0.887235
1.1186
0.999181
1.09835
1
1
0.878866
1
1
0.891639
1.11831
1
1
0.99999
1
1
1
0.883641
0.884613
1
1.11906
1
1.05974
1.11862
0.895644
1.09799
1
1
0.896052
1
1
1.11855
1.11855
1.04643
1
1
1.00041
1.11944
0.88835
0.890366
1.11969
1.1187
1.08435
1.04997
1
0.968859
1
1
1
1.11242
1.12
1.11899
1
1
1.11862
0.891403
1.10694
0.883683
1
0.891673
1
0.882521
1.11846
0.886792
1
0.997231
0.90766
1
1
1
0.957668
1.10886
1.11882
1.11917
1.11868
1
1
1.12017
1
1
1.11909
1
0.877714
1
0.888352
1
1.11941
1
1
1.00772
1.09277
1
0.999618
0.890299
1.11853
1
0.887178
1.02509
1
1
1.09312
1.11862
1.11858
1
1.11882
1.03599
1
1.00699
1.11852
1
1
1
1
1.11859
1
0.895656
1.11889
0.89265
0.889957
0.949846
1.11875
1.04315
1.11837
1
1.11872
0.99924
1.00001
1.11845
1.12006
1
1.11865
1
1.1188
1
1.11945
1
1.00001
0.999994
1.11806
0.887445
0.892731
0.999399
1
1
1
0.886264
1
1.08117
1
0.894528
1
1.0506
1.11845
1.11856
1
1
1.00001
0.999857
1
1.12004
1.11867
1
1.05292
1.11839
0.952888
1.11855
1.00013
0.88612
1.02765
0.876757
1
1
1.02166
1.12049
1
1
1.01451
0.999586
1
0.901572
1
0.936682
1
1.11868
1
1
0.884726
1.02886
1.01877
0.999574
1.11865
1.11866
0.928969
0.999457
0.882515
0.882225
0.882158
1
1
1
0.999718
0.920331
0.899468
1
1.1185
0.999926
1.11849
1.11863
1.12036
1.11858
1
0.88414
1.11872
0.898144
1
1.11866
1.11985
0.999051
0.939017
1.11876
1.08752
1
0.889933
1
1
1.11989
1
1.00769
1.11858
1
0.891407
0.884519
1
1
0.890969
0.883219
1.11878
1.00001
1
0.8911
0.885422
1.11806
1.11662
1.11167
1.11978
1.03617
0.996068
1.05016
1.12126
1.09446
1
1.06528
1
0.885044
0.961071
1
0.885111
1.1187
1.00645
1.11895
1
1.11843
1.1196
1
1.11861
1.11863
0.884118
1.11943
1
1.12078
1
0.923802
0.892437
1.11847
1
1
1
0.895719
1.11849
1.11889
1
0.895723
1
1
0.888112
1.00001
0.884607
1.1203
1
0.949009
0.884291
1
1
1.0711
1
1
1
1.02102
0.891157
1
1
1
1.1183
0.890973
1
1.11848
0.889863
0.876653
1
1
1.11984
1
1.11833
1
1.11864
0.893051
1
1
0.893721
0.940362
0.889373
1
1
1
1
1.11833
0.880373
1
0.896151
1
1.11905
1
1
0.979215
1
1
0.951417
0.999905
1.00001
1
0.888669
0.890424
1
1
1
1
0.941925
1.11813
1.11984
1
0.895991
0.890695
0.974125
0.894225
1
0.950154
1
0.885229
0.996355
1
1
0.894925
1
1.11842
1.11574
0.891274
1
1
1
1.12
1
1.01283
0.949089
1.04249
0.890582
1.05202
0.885015
1
1
0.915643
0.970911
1
1.01464
1
1
0.884672
1
0.981432
1.01377
0.894719
1
1.09943
0.926568
0.966245
1
1
1
0.88891
1
0.895954
0.891202
1
0.953381
0.895383
1.01849
0.926312
0.884688
1.11847
1
1.11846
1.06842
0.918597
1.11852
0.886246
0.999717
1.11946
1
1
1.11882
1
0.916689
1
1.01849
1
1
1.11848
1
0.926436
0.946997
1.12052
0.978834
1
0.926097
1.11845
1.11969
0.972475
1
1.11856
1.035
0.95755
1
1.00674
1
0.891731
1.05455
0.927511
0.922652
1
1
0.900614
1.11873
0.991676
0.893407
0.893596
0.960846
1
1.00291
1.11946
1.11857
1
1
1
0.892792
1.06051
1
1.11871
1.10866
0.890712
1
1.02683
0.96817
1.07512
1.1033
1
1.01213
1
1.00002
0.889595
0.955823
1
1
0.94324
0.890684
1.01264
1
1
0.887805
1.05824
1
1.12008
1
1.01257
1.06852
1
1.11871
1
1
1.1183
1
0.882313
1.11961
0.899856
1.03371
1
0.895588
0.999973
1
1.00001
1
0.932747
1.00765
0.890788
1.09305
1.12032
0.883386
1
1
1
1
1
0.994217
0.893476
1.01757
0.892209
0.894505
1.02228
1
0.999946
1.03274
1
1
0.885713
1.00057
1
1
1.03673
1
1.12013
1
1.11947
1.02723
1.00743
0.895298
1
1
0.886738
1
1
1
1
1.11838
1.01215
0.999455
1
0.884952
1.01473
1
1
1.08135
1
0.890278
1.11838
1
1
1
1.11917
0.887549
0.964263
0.887116
1.09128
1.11831
1
1
1.11868
1
0.882864
1
1
1
1
1
0.922179
1
1.11877
1
1
1.04518
1.12011
0.887404
0.960935
1
1.11856
1
1
1
1
1
1.11877
1.11958
0.883777
1.11852
0.887214
1
1
1.11861
1
1.11993
1.00438
1.00746
1.01898
1.11849
1.01881
1.08396
0.887376
1
0.885184
0.993995
1
1.11862
1
1
0.888273
1.11876
1
1.11951
1
1
1
1
1
1
0.892101
1.1196
0.956735
1.11856
1
0.886261
0.887563
0.914228
1.11984
1.11892
0.991462
1
0.93131
1
1.05101
1
1.11879
0.878182
0.883663
0.955884
1
1.11848
1
1.02173
0.892892
1
1.12003
1.10894
0.999667
1
1.11855
0.893015
1.11968
1.1184
1.12056
0.88922
1.02517
1
1
0.885071
1
0.943396
0.948674
1
1.00001
1.11884
1
1.11818
1.02594
1
1.01266
1.12079
1
0.887047
1
0.923718
1
1
1.09969
1
0.943057
1
0.897055
1.01007
0.988184
0.885774
1.11874
1.09618
1.11971
0.893132
0.90782
0.998773
1
1
0.895741
1.11253
0.883564
0.99999
1
1.11858
1.11929
0.970923
1
0.886951
0.914598
1.08243
0.997877
0.890068
1
0.884381
1.03481
0.891947
1
1.00002
0.942546
1.12005
1.11874
0.953544
0.999877
1
1
0.917993
1
0.888019
1
0.8864
0.8868
1
1
1.00001
0.89408
1.11854
1
1
1.00002
1.00001
0.891998
1.11868
1.11855
1
0.889934
1.12051
1
1.02566
1
1
1.11846
0.886157
1
1
0.886473
0.916493
0.888955
0.886478
1
0.908622
0.999165
1.028
0.884549
1
1
1.03668
1
1.1066
1
1
1.09013
0.900103
1
0.891216
1.0366
1.11889
1
1
0.897389
0.897671
0.886456
0.91609
0.896087
1.09119
0.999831
1
1
1
1
1.11869
0.894026
1
0.981628
0.999907
0.999653
0.999983
0.929822
1.03682
1
1.11857
1.11857
1
1
1.11365
1.00001
1
1.1188
0.897777
1.11497
1
0.875647
1.11848
1.00002
1
0.950845
1
0.884103
1
1.11935
1
1
1.11915
1
1
1.12002
1
1
1
1.12152
1
0.923139
0.916694
1
0.884623
1.11896
1
1
0.997195
1
1.11958
1.07087
1.09747
1
1
0.887804
1
0.888054
1.11866
1.12018
1.11866
1
1.11996
0.891605
1
0.892448
1.09768
1.11214
1.11829
1.11871
0.930012
0.887173
1
1.0854
1.11935
1.12029
1.11865
0.919316
1.04642
1
1.09215
0.921282
1
1
1
1.00001
0.966339
1
1.12007
1
1
1
1
1
1
1.00002
1.11778
1
1.11935
1.09106
0.88215
1.12032
1.01173
1.0624
1
1.11851
1
0.892012
1
1
1
1
1.10278
1
0.883785
1.11836
0.88265
1.1188
1.09679
1.06623
1
1.02487
1.06023
0.998777
0.893543
0.927646
1.00001
1
0.975903
1
0.885424
1.11929
0.886189
0.98163
0.952018
1
1
1
1.00381
1
1
0.89258
0.998998
1.12037
1
1.11864
1
0.889489
1
1
1.11861
1.11854
0.884857
1
1.11941
1
0.938573
0.885546
1.11997
1.10763
1
1.02276
1.11853
0.999613
1
1.05294
1.10584
1.11823
0.998761
1
1
1.10195
1
1
1
1.11851
0.999571
1
1
1.11856
1
1
0.890407
1
1
1
1.11995
1
1
0.956057
1.04128
1.10881
0.925015
1
1.11879
1
1.04478
1
1.11852
0.999218
1.11859
1
0.888637
1
1.08316
1
1
1.1116
1.00001
1.11862
1
1.11828
0.903734
0.893927
1.11935
1
1.10181
1
1.11955
1
1
1.00001
1.11839
1.11869
1.03532
1.1184
0.998799
0.88392
1.11881
0.961758
1
1.11603
1
1.11841
1
1.11898
1.11958
0.998943
0.886564
1
1.11851
1
1.01164
1
1
0.999407
0.919339
1.10742
1
1.10888
1
0.959484
0.884779
1.11844
1.11804
0.901702
1
1.11851
1.11905
1.11848
0.892991
1.11791
0.891303
1.11918
1.12101
1
1
1.11873
1
1
1
1
0.885772
1
1
1.11958
1.11853
1
1.11864
1
1.11981
1.12016
1
1.10021
1
0.88532
1.11855
1.09322
1.03894
0.88326
1.11845
1
1
0.887914
1
1
1.11855
1
1
0.933956
1
1.11855
1.00002
1.11836
0.885985
1.11951
1
1.11854
1.11463
0.969742
1
1.11875
0.931104
1.11886
1.08709
1.11861
1.11789
0.999153
1.11978
1.11848
1.11857
1.11844
1.00014
1
0.888715
1
1.1209
0.94384
1.10916
1
1.11677
1
1
1
1
1
1.11806
0.886017
0.887207
1.11862
1.11861
1
1
1
1
1
1.11772
1.10781
1.11854
1.00717
1
1
1
1.00001
1.11833
1.11856
1
1.11911
1.11958
0.891344
1.08585
1
1.11846
1.12018
1.11776
0.999411
1.11879
1.11842
1
1.10866
1
1
1
1
1
1
1.11841
1.12023
1.11125
1.11853
0.887142
0.899481
1.11847
1.11856
1
0.884096
0.984028
1
1.06158
0.891401
1
0.999849
0.99951
0.88239
1
1.11884
1
1
1
1.11947
0.987126
1
1.11855
1.1185
1
1.11927
1
1
1.11858
1
0.881514
1
1.11828
1
1
0.89691
1
1.11886
1
0.886714
0.8903
1
1.11383
1
0.882407
0.969504
1
1.11848
1
1
1
1.11976
1
0.889832
1.01839
1.11908
1.11888
1.11851
1.01404
1.119
1.11863
1
1
1
1
1
1.1186
1
0.999812
1.11881
1
0.883973
1
1.11857
1.06029
1.01592
1.05986
1.01947
1.11892
0.90301
1.11849
1
0.890164
0.99918
1.1185
0.981154
1.1185
1.11869
1.11328
1
1.1187
1.11857
1.11852
1
1.00001
1
1
1.1199
1.08629
1
1
0.890615
0.998945
1
1.1187
1
1.11846
1.11855
1.11807
0.975455
1.11846
1.11896
1.0036
1.06051
1.11961
1.11842
1
1.11041
0.947275
1.11489
0.993944
1.1185
1
1.11866
1.11839
1
0.898707
0.977865
0.908851
1
1.02418
0.999084
1.11937
1
1
0.999062
1
1.06221
1.10959
1
1
1.11841
1
1
1.08787
1.11869
1.11454
1.11847
1.11841
1
1.11835
0.913469
1.11914
1
0.999856
0.888204
1
1
0.927372
1
1.04277
1
1.11879
1
1.11668
1.0781
0.88268
1
1
1
1
1
1.11905
1.00326
1
1.11869
1
1.11845
1.1185
1
1
0.992304
0.999954
0.884979
0.886105
0.917224
1.02518
1
0.999549
0.896417
1.00001
1
1.11833
0.981771
1.11158
1.10047
1
1
1
1
1
1.11845
1.11851
1
1.11802
1
1.11906
1.08276
0.998969
1
1
1
1.07061
1
0.988423
1
1.11891
1
1
1.11865
1
1
1
1
1
1.11878
0.878265
0.998842
1.10736
1.1185
1
1.11864
1
1
1
1
0.907654
1
1.11859
1.11859
1.11864
1.12003
0.988311
1
1.10211
1.03179