/*--------------------------------*- C++ -*----------------------------------*\
  =========                 |
  \\      /  F ield         | OpenFOAM: The Open Source CFD Toolbox
   \\    /   O peration     | Website:  https://openfoam.org
    \\  /    A nd           | Version:  12
     \\/     M anipulation  |
\*---------------------------------------------------------------------------*/
FoamFile
{
    format      ascii;
    class       volVectorField;
    location    "6";
    object      U;
}
// * * * * * * * * * * * * * * * * * * * * * * * * * * * * * * * * * * * * * //

dimensions      [0 1 -1 0 0 0 0];

internalField   nonuniform List<vector> 
22702
(
(2 4.21055e-13 0)
(2 -2.80158e-14 0)
(2.04214 -0.0888853 0)
(2 -1.00743e-09 0)
(1.97811 0.0345163 0)
(2 1.0788e-13 0)
(1.82997 0.228792 0)
(2 5.69706e-14 0)
(2 2.55944e-13 0)
(2.11787 -0.264959 0)
(1.83025 0.228569 0)
(1.83016 0.228741 0)
(2 -5.43364e-13 0)
(1.83119 0.228904 0)
(2.03729 -0.0776609 0)
(2 1.65453e-13 0)
(2 3.43925e-13 0)
(2 -7.96612e-14 0)
(1.83005 0.228507 0)
(2 -2.76632e-14 0)
(1.83137 0.229084 0)
(2 -4.77114e-13 0)
(1.83035 0.2287 0)
(2.10919 -0.26469 0)
(1.83194 0.228758 0)
(2.11784 -0.264489 0)
(2 9.85544e-14 0)
(1.82967 0.228354 0)
(2.10899 -0.263185 0)
(2.10934 -0.264947 0)
(2 -4.99504e-14 0)
(1.82995 0.228728 0)
(2 8.47182e-14 0)
(2 1.61399e-13 0)
(2 -3.25675e-13 0)
(1.84398 0.215072 0)
(1.83201 0.228615 0)
(1.82998 0.2287 0)
(2 2.26741e-13 0)
(2 3.08944e-14 0)
(2.11738 -0.264867 0)
(2 -7.06318e-14 0)
(1.91631 0.123851 0)
(2 -4.31196e-13 0)
(1.82958 0.228342 0)
(2 -8.86472e-14 0)
(2 -5.53217e-13 0)
(2 5.16794e-14 0)
(2 -4.31954e-13 0)
(2.10724 -0.261732 0)
(2 1.35235e-13 0)
(2.111 -0.263771 0)
(2 -3.33446e-13 0)
(1.83008 0.228452 0)
(2 8.27558e-14 0)
(1.82991 0.228756 0)
(2 -3.86792e-13 0)
(2 1.42249e-09 0)
(2 7.23856e-14 0)
(2 -2.6723e-13 0)
(2.11775 -0.264463 0)
(2 1.32839e-13 0)
(2 6.83961e-13 0)
(2.10906 -0.263643 0)
(2 7.26301e-14 0)
(2.11004 -0.262675 0)
(2 3.52315e-13 0)
(2 -1.22025e-13 0)
(2 4.86603e-15 0)
(2.11689 -0.264319 0)
(2 5.11553e-13 0)
(1.83157 0.229018 0)
(1.89812 0.148683 0)
(2 1.0862e-09 0)
(1.83149 0.228946 0)
(1.82168 0.237341 0)
(2.10932 -0.263328 0)
(1.82955 0.22892 0)
(2.10499 -0.262993 0)
(2 6.19816e-13 0)
(1.83055 0.228815 0)
(2.10827 -0.261467 0)
(1.8296 0.228768 0)
(1.82957 0.228793 0)
(2 3.34136e-13 0)
(2 1.00329e-06 0)
(2 -8.40971e-14 0)
(2 2.39049e-13 0)
(2.02294 -0.0469144 0)
(2.11684 -0.264801 0)
(1.83012 0.228516 0)
(2 -2.0853e-13 0)
(2 -6.87417e-11 0)
(2.11679 -0.264514 0)
(2 6.86915e-14 0)
(1.83122 0.229142 0)
(2.11696 -0.264451 0)
(2 2.20161e-08 0)
(2 1.29836e-13 0)
(2 -2.36795e-13 0)
(2 -2.93867e-13 0)
(1.91645 0.123366 0)
(1.83023 0.228808 0)
(2.11738 -0.264182 0)
(2 -1.26725e-09 0)
(2 -1.89183e-09 0)
(1.95695 0.0664891 0)
(2 -3.07774e-09 0)
(2.10764 -0.261479 0)
(2 -2.76215e-13 0)
(1.82961 0.228874 0)
(1.82985 0.228892 0)
(2 3.88417e-09 0)
(2 -6.89832e-14 0)
(2.12311 -0.276574 0)
(2.12171 -0.27299 0)
(2.11712 -0.265009 0)
(2 -1.56347e-13 0)
(2 -1.4959e-07 0)
(2 8.90193e-14 0)
(2 1.92178e-13 0)
(2 1.33599e-07 0)
(2.0282 -0.0552326 0)
(2 -1.00037e-07 0)
(1.8556 0.20125 0)
(1.98356 0.0228799 0)
(1.82941 0.2287 0)
(2 -3.27838e-13 0)
(1.82943 0.228721 0)
(1.83022 0.228722 0)
(1.83133 0.228732 0)
(1.83035 0.228877 0)
(2 -3.57653e-13 0)
(2.11693 -0.264277 0)
(2 3.11176e-14 0)
(2.11707 -0.264932 0)
(2 -7.70103e-14 0)
(2 -2.28944e-13 0)
(2 6.51564e-14 0)
(2 3.26882e-13 0)
(1.83008 0.228824 0)
(2 3.00051e-09 0)
(2 -4.23371e-13 0)
(2 -4.72549e-14 0)
(2 1.26346e-14 0)
(1.83117 0.228938 0)
(2 -5.7092e-15 0)
(1.99401 0.0143542 0)
(2 -9.27108e-14 0)
(2 -1.94374e-13 0)
(2 -6.59931e-11 0)
(2 6.68136e-14 0)
(2.10936 -0.263619 0)
(2 3.24843e-14 0)
(1.99592 0.00849564 0)
(2 -6.22175e-14 0)
(2.10413 -0.263182 0)
(2 5.92668e-13 0)
(2 3.30681e-14 0)
(2 8.513e-14 0)
(1.82992 0.228837 0)
(2 1.28065e-14 0)
(1.83154 0.229039 0)
(2.1237 -0.276229 0)
(2.11758 -0.263991 0)
(1.83092 0.228874 0)
(1.83107 0.228937 0)
(2 -4.4857e-14 0)
(1.97022 0.0461538 0)
(1.90291 0.14431 0)
(2 -1.33897e-13 0)
(1.82992 0.228746 0)
(2.10477 -0.263044 0)
(1.84404 0.214945 0)
(2 -5.89667e-14 0)
(2 4.01055e-13 0)
(2 2.58761e-14 0)
(2 -9.55545e-14 0)
(1.83122 0.228984 0)
(1.86535 0.186344 0)
(2 -5.64428e-15 0)
(1.82968 0.22869 0)
(2.10749 -0.264002 0)
(1.82975 0.228811 0)
(2 -1.55956e-13 0)
(2.10547 -0.263068 0)
(2 5.77294e-13 0)
(2.10808 -0.264423 0)
(2.11847 -0.265091 0)
(2.00008 -0.000138024 0)
(2 9.13975e-17 0)
(2 5.26429e-13 0)
(1.82963 0.228943 0)
(2 1.49657e-13 0)
(2 -2.39721e-14 0)
(1.83141 0.229044 0)
(2 -2.15272e-13 0)
(1.82968 0.228755 0)
(1.82965 0.228762 0)
(2.10289 -0.283132 0)
(2 -8.8585e-15 0)
(2 -1.15269e-14 0)
(2.10996 -0.264787 0)
(1.83175 0.229025 0)
(2 -1.26207e-13 0)
(2 -1.3809e-13 0)
(2 1.41172e-13 0)
(1.83183 0.228977 0)
(2 -6.81247e-13 0)
(2.11821 -0.264942 0)
(2 -6.11811e-11 0)
(2 -6.79583e-13 0)
(1.83183 0.229041 0)
(1.83146 0.228992 0)
(1.82967 0.228908 0)
(2 -5.77286e-14 0)
(1.99998 2.46117e-05 0)
(2 -1.48763e-13 0)
(2 4.66833e-14 0)
(2 -2.09802e-14 0)
(1.83187 0.228961 0)
(2 -1.83264e-13 0)
(2.10839 -0.264112 0)
(1.82421 0.234992 0)
(1.83147 0.229051 0)
(1.83175 0.228775 0)
(2 1.81855e-07 0)
(2 1.91927e-13 0)
(2 -1.08866e-13 0)
(2.11193 -0.273027 0)
(1.83185 0.228752 0)
(1.91486 0.133841 0)
(2 -1.27839e-13 0)
(1.83097 0.229581 0)
(2.11427 -0.264326 0)
(2.11587 -0.2649 0)
(1.83111 0.229586 0)
(1.83214 0.228538 0)
(2 1.67725e-13 0)
(1.83144 0.229766 0)
(2.12182 -0.273142 0)
(1.8507 0.206879 0)
(2 1.15352e-13 0)
(2 1.51521e-14 0)
(2 -2.18945e-13 0)
(2 -3.43826e-13 0)
(1.83168 0.229038 0)
(2 8.15088e-14 0)
(1.90225 0.146871 0)
(1.98328 0.0281188 0)
(2 -4.38326e-13 0)
(2 -2.49595e-14 0)
(1.83163 0.229057 0)
(2.11735 -0.264869 0)
(2.07719 -0.158821 0)
(2 1.12631e-13 0)
(1.83228 0.228493 0)
(2.11738 -0.265131 0)
(1.83042 0.230786 0)
(2 1.88931e-13 0)
(2 2.15116e-13 0)
(2 1.35171e-13 0)
(2 2.2381e-13 0)
(2 4.18881e-13 0)
(2 4.00062e-13 0)
(2 4.17902e-13 0)
(2.10942 -0.263309 0)
(2.08191 -0.166818 0)
(2.1181 -0.264642 0)
(1.83134 0.229003 0)
(2 6.18724e-14 0)
(2 -2.98305e-13 0)
(2 -1.74781e-07 0)
(2 2.58596e-14 0)
(1.84644 0.21172 0)
(2 -1.35121e-07 0)
(2.10668 -0.262803 0)
(2 3.67989e-13 0)
(2.11251 -0.283371 0)
(2.10731 -0.265152 0)
(1.83177 0.228889 0)
(2.10976 -0.26473 0)
(1.83144 0.229098 0)
(2 4.38031e-14 0)
(2 6.08024e-14 0)
(2 2.33371e-14 0)
(2.00079 -0.00168085 0)
(2.10705 -0.26248 0)
(2.12223 -0.274375 0)
(2 -3.01191e-07 0)
(2 -1.49464e-07 0)
(2.11581 -0.283777 0)
(2 2.4352e-09 0)
(1.82997 0.228672 0)
(2.11764 -0.264841 0)
(2 -3.24352e-13 0)
(2 -3.43541e-11 0)
(1.83053 0.228822 0)
(2.12315 -0.274682 0)
(2 -1.63997e-13 0)
(1.83053 0.228678 0)
(2.11766 -0.263678 0)
(1.83166 0.229055 0)
(2 -2.59635e-13 0)
(2.1078 -0.288364 0)
(2.00087 -0.00149672 0)
(2 6.20039e-15 0)
(2 2.68632e-06 0)
(2 7.66584e-14 0)
(2.10976 -0.263164 0)
(2 -4.53214e-15 0)
(2 -1.70238e-07 0)
(2 -1.8207e-08 0)
(1.99999 1.35593e-05 0)
(1.99132 0.0097153 0)
(1.89652 0.149236 0)
(2 -2.63208e-11 0)
(2.11153 -0.254156 0)
(2 -1.50148e-11 0)
(2 1.80846e-06 0)
(2 -6.20602e-14 0)
(2 -1.76163e-13 0)
(2 -5.22052e-14 0)
(2 1.52981e-13 0)
(2 -6.51038e-13 0)
(1.83035 0.228865 0)
(2 2.57145e-13 0)
(1.8293 0.229283 0)
(2 1.10677e-13 0)
(2 -2.3624e-13 0)
(2 -1.1888e-14 0)
(2.11738 -0.263988 0)
(2 1.74932e-13 0)
(1.83127 0.228874 0)
(2.10954 -0.264073 0)
(2 -1.35382e-13 0)
(1.86446 0.194099 0)
(2 4.55521e-13 0)
(2 -2.98344e-13 0)
(1.82968 0.229056 0)
(2 -6.42962e-14 0)
(2 -9.21686e-09 0)
(2 8.04841e-14 0)
(1.83048 0.227507 0)
(2 4.70037e-10 0)
(2 3.77471e-13 0)
(1.8319 0.232287 0)
(1.82977 0.22871 0)
(2 4.61912e-13 0)
(1.96503 0.0547298 0)
(2 -9.2795e-14 0)
(2 -6.60164e-14 0)
(2.11685 -0.264773 0)
(2 -4.80335e-14 0)
(2 -3.99249e-15 0)
(2 -1.33967e-13 0)
(2.11692 -0.265016 0)
(2 -5.83242e-14 0)
(2 1.77543e-13 0)
(2 5.85029e-14 0)
(2 1.40227e-13 0)
(2.11621 -0.262448 0)
(2 -3.53694e-13 0)
(2 -3.38175e-15 0)
(2 2.62511e-13 0)
(2 -7.51435e-14 0)
(2 -3.72441e-13 0)
(2.11951 -0.265368 0)
(1.99998 4.00282e-05 0)
(1.83152 0.229025 0)
(2 2.81847e-13 0)
(2 -2.91051e-05 0)
(1.83132 0.22897 0)
(1.83044 0.228907 0)
(2 4.81489e-13 0)
(2 1.40225e-13 0)
(2.09981 -0.272454 0)
(2.06374 -0.126744 0)
(1.83034 0.228824 0)
(2 -3.25822e-13 0)
(2 1.96056e-13 0)
(2 1.59734e-14 0)
(1.83166 0.228981 0)
(2.11702 -0.264217 0)
(2 -1.22955e-14 0)
(1.83167 0.229041 0)
(2 -3.58632e-13 0)
(2 -1.7003e-13 0)
(2.09488 -0.208322 0)
(2.09882 -0.211602 0)
(2 1.73577e-13 0)
(2.10806 -0.262687 0)
(2.11744 -0.264214 0)
(2 -2.0034e-13 0)
(2 2.09964e-14 0)
(2 9.08447e-13 0)
(2 -2.38114e-13 0)
(2 -8.99752e-11 0)
(2 6.52497e-14 0)
(2 -5.26131e-14 0)
(1.82949 0.228711 0)
(1.95635 0.0660809 0)
(1.83409 0.224711 0)
(2.11846 -0.263672 0)
(2.03238 -0.0676689 0)
(1.8305 0.228846 0)
(2 -3.91506e-13 0)
(1.83117 0.228909 0)
(1.83012 0.228857 0)
(2.11696 -0.264891 0)
(2.07536 -0.154348 0)
(2 8.5462e-13 0)
(2.11732 -0.265076 0)
(2 2.88556e-13 0)
(1.82272 0.236212 0)
(2 -2.33809e-13 0)
(2 7.41707e-14 0)
(2 -1.27717e-13 0)
(2 -1.5116e-14 0)
(1.8317 0.229046 0)
(2 -1.69137e-13 0)
(2 7.11072e-15 0)
(2 -5.5786e-14 0)
(2 1.5952e-09 0)
(2 1.75306e-13 0)
(2 -6.53689e-14 0)
(2 -2.95299e-13 0)
(1.93855 0.0930163 0)
(1.8295 0.228608 0)
(2 -1.71289e-13 0)
(1.83134 0.229052 0)
(2 3.87594e-14 0)
(2 1.156e-13 0)
(2.10631 -0.261067 0)
(2 -1.15568e-13 0)
(2 -4.46343e-13 0)
(2 6.19456e-14 0)
(2 1.19768e-13 0)
(1.83185 0.228969 0)
(1.87115 0.182934 0)
(2 -1.45321e-13 0)
(2 9.63097e-14 0)
(2.10715 -0.262713 0)
(1.83139 0.229107 0)
(1.83185 0.229019 0)
(2 -2.48853e-13 0)
(1.83183 0.229021 0)
(1.83137 0.229081 0)
(1.83136 0.229037 0)
(2 9.46884e-14 0)
(2.05611 -0.112702 0)
(2 -1.8437e-13 0)
(1.83172 0.22893 0)
(2.00135 -0.00850425 0)
(1.83141 0.229061 0)
(2 -4.02766e-13 0)
(2.11766 -0.264834 0)
(2.00036 -0.00061725 0)
(1.82987 0.228762 0)
(2 9.02397e-14 0)
(2 9.84681e-14 0)
(2 -4.33475e-11 0)
(2 -2.04421e-11 0)
(2.11034 -0.261427 0)
(1.83181 0.228725 0)
(1.84738 0.211553 0)
(2 1.7544e-13 0)
(1.83162 0.229516 0)
(1.83168 0.228988 0)
(1.83017 0.228788 0)
(2 -3.67614e-14 0)
(1.91982 0.119261 0)
(1.8319 0.228809 0)
(2 -3.87649e-13 0)
(2 -2.50567e-13 0)
(1.88385 0.167339 0)
(1.97852 0.0395606 0)
(1.83185 0.229004 0)
(2.01919 -0.043146 0)
(1.8318 0.22898 0)
(2 -5.86659e-14 0)
(1.83173 0.228939 0)
(1.83128 0.228845 0)
(1.83168 0.228953 0)
(1.83143 0.229075 0)
(2 -4.28391e-13 0)
(1.83715 0.232174 0)
(2.02861 -0.0647275 0)
(2.03986 -0.0789917 0)
(2 -3.94204e-14 0)
(2 -3.77166e-07 0)
(2 -6.43776e-13 0)
(2 4.79859e-13 0)
(1.83064 0.228744 0)
(2 -2.57589e-13 0)
(2 -2.38593e-13 0)
(2 -5.20125e-14 0)
(2 -9.89709e-14 0)
(2 2.07129e-13 0)
(1.82979 0.228712 0)
(2 4.62484e-14 0)
(2 -1.1093e-13 0)
(2.00153 -0.00265598 0)
(1.83185 0.228977 0)
(1.85405 0.205403 0)
(2 -1.59855e-13 0)
(1.86933 0.185204 0)
(1.99998 2.6367e-05 0)
(2 -1.13451e-13 0)
(2 -2.38484e-13 0)
(1.83147 0.228963 0)
(2 1.20059e-13 0)
(2.00221 -0.00238618 0)
(1.99801 0.00474541 0)
(2 -1.03538e-13 0)
(1.83124 0.22894 0)
(2 4.65089e-13 0)
(1.83172 0.229229 0)
(2 2.70099e-13 0)
(2 2.51345e-13 0)
(1.8741 0.179323 0)
(2 4.5881e-13 0)
(1.83189 0.229292 0)
(1.99999 1.28252e-05 0)
(2 2.83312e-14 0)
(1.83191 0.229315 0)
(2 -1.11907e-13 0)
(1.83184 0.228966 0)
(2 4.13309e-13 0)
(2 2.94349e-06 0)
(2 3.4763e-13 0)
(1.83157 0.229031 0)
(2 -2.43868e-14 0)
(1.83116 0.229598 0)
(2 4.57985e-06 0)
(1.83173 0.229036 0)
(1.83009 0.228728 0)
(1.83177 0.229086 0)
(1.82956 0.228774 0)
(2 1.61016e-13 0)
(1.83046 0.228747 0)
(1.83728 0.225096 0)
(2 2.62979e-13 0)
(2.10827 -0.26354 0)
(1.84209 0.217033 0)
(1.87893 0.173318 0)
(2 -3.15718e-13 0)
(1.83153 0.229033 0)
(2 -3.44196e-13 0)
(2.11721 -0.264878 0)
(2.11791 -0.263859 0)
(2 2.37685e-13 0)
(2 -3.41041e-15 0)
(2 -5.14279e-14 0)
(2 -1.47594e-13 0)
(2 1.70997e-09 0)
(2.11714 -0.264852 0)
(2 -2.44265e-13 0)
(1.83143 0.229112 0)
(1.95726 0.0639687 0)
(1.83143 0.229054 0)
(2 2.06089e-13 0)
(2 8.07783e-11 0)
(2 3.34398e-13 0)
(2 1.91633e-13 0)
(2 -5.41873e-08 0)
(1.8313 0.228831 0)
(2 1.18761e-13 0)
(1.83052 0.228794 0)
(1.90013 0.14581 0)
(2.07356 -0.152271 0)
(2 1.32144e-09 0)
(1.99999 7.29422e-06 0)
(1.95059 0.0776042 0)
(1.9581 0.0669298 0)
(2 2.32202e-13 0)
(2 3.99309e-13 0)
(1.93852 0.0908441 0)
(2 1.77932e-13 0)
(2.10346 -0.261749 0)
(1.8314 0.229077 0)
(1.83136 0.229109 0)
(2 -6.45537e-11 0)
(2 1.70734e-14 0)
(2 2.65725e-14 0)
(1.82998 0.228693 0)
(2 5.185e-15 0)
(1.99999 1.6014e-05 0)
(1.83193 0.22899 0)
(1.83186 0.22878 0)
(2.01144 -0.0270761 0)
(2 -1.20423e-13 0)
(2 1.7958e-10 0)
(2.10622 -0.260993 0)
(1.84712 0.210946 0)
(2 -1.8722e-13 0)
(2 5.74121e-14 0)
(2 -8.91259e-14 0)
(2 -2.75767e-11 0)
(2 -1.58257e-13 0)
(1.83186 0.22898 0)
(1.8304 0.228701 0)
(2 -1.09532e-13 0)
(1.83193 0.229076 0)
(1.83129 0.230149 0)
(1.83172 0.229078 0)
(2 -1.58789e-13 0)
(2 7.13894e-14 0)
(2 -6.05905e-11 0)
(2 2.09212e-14 0)
(2.11807 -0.265074 0)
(1.83012 0.228769 0)
(2 -4.43673e-11 0)
(2 2.13315e-13 0)
(1.84651 0.212003 0)
(1.83191 0.228279 0)
(2 -1.57829e-13 0)
(1.84135 0.217973 0)
(1.82949 0.228624 0)
(2 7.58112e-14 0)
(2 -2.1734e-07 0)
(2 9.70567e-11 0)
(2 4.22502e-14 0)
(2 2.04588e-13 0)
(1.83129 0.228991 0)
(2 7.26682e-14 0)
(2 -5.20951e-14 0)
(2 1.89046e-13 0)
(2 7.38498e-14 0)
(1.83136 0.22909 0)
(2 8.87579e-14 0)
(1.82862 0.231617 0)
(2.11777 -0.264271 0)
(2 3.10652e-14 0)
(2.11889 -0.265304 0)
(2 1.25334e-13 0)
(2 -1.69973e-07 0)
(2 1.28983e-14 0)
(2.00122 -0.00177536 0)
(2.10951 -0.265534 0)
(2.00032 -0.000538084 0)
(2 -1.75134e-13 0)
(2 8.15717e-14 0)
(2 -1.17956e-07 0)
(1.97696 0.0345779 0)
(2 1.74317e-13 0)
(2 3.13852e-13 0)
(2.04397 -0.087456 0)
(2 -2.10188e-07 0)
(2 6.65027e-14 0)
(2 1.14988e-13 0)
(2 -2.15752e-07 0)
(2 2.7288e-07 0)
(2 -1.45996e-07 0)
(2 -3.63626e-13 0)
(2 -1.66896e-06 0)
(2.02365 -0.0485861 0)
(2 -5.03364e-07 0)
(2 -4.13349e-08 0)
(2.0009 -0.00139705 0)
(2 -6.93729e-14 0)
(2.11063 -0.261675 0)
(2 -2.80293e-11 0)
(2 -3.78595e-12 0)
(2 -9.77018e-11 0)
(2 -3.53383e-13 0)
(1.87371 0.179834 0)
(2 2.212e-13 0)
(2 -3.99664e-13 0)
(2 1.97579e-14 0)
(2 -1.68624e-07 0)
(2.10691 -0.263624 0)
(2 5.14346e-14 0)
(2 1.5166e-09 0)
(1.8409 0.21812 0)
(1.82983 0.228801 0)
(2 -2.94767e-07 0)
(2 -2.5713e-13 0)
(2 -1.14719e-07 0)
(2.03504 -0.068716 0)
(2 -4.07643e-14 0)
(2 4.62056e-10 0)
(2 1.05347e-13 0)
(2 1.7508e-13 0)
(2 2.93961e-14 0)
(2 -9.49501e-14 0)
(2.00915 -0.0257765 0)
(1.99372 0.00439665 0)
(1.83183 0.229118 0)
(2 1.47365e-14 0)
(2 4.12776e-14 0)
(2 1.53804e-13 0)
(1.83103 0.230171 0)
(2.03426 -0.0669804 0)
(2 -3.87066e-09 0)
(2 1.71665e-14 0)
(2 2.81677e-13 0)
(1.82956 0.228524 0)
(1.83016 0.227878 0)
(2 -3.12091e-08 0)
(2 5.11031e-06 0)
(2 3.36506e-09 0)
(2 1.02212e-13 0)
(2 1.32929e-09 0)
(2 -3.61465e-14 0)
(2 -6.74034e-12 0)
(2 1.71999e-13 0)
(2 1.05905e-13 0)
(2.11753 -0.26398 0)
(2 -4.77648e-13 0)
(2 -1.48245e-11 0)
(1.82927 0.228253 0)
(2.1183 -0.264987 0)
(2 3.20804e-14 0)
(1.82956 0.227996 0)
(2 7.19211e-11 0)
(2.10793 -0.263846 0)
(2 1.27214e-13 0)
(2 -8.8734e-14 0)
(2.11727 -0.264546 0)
(2 3.05342e-13 0)
(2 -1.14335e-11 0)
(2 -4.56206e-12 0)
(2 -4.37254e-14 0)
(2 -2.22302e-12 0)
(2 1.41675e-13 0)
(2 -1.18048e-13 0)
(1.83466 0.225158 0)
(1.83179 0.228527 0)
(2 1.70812e-13 0)
(2 -3.07465e-14 0)
(2 2.25275e-13 0)
(2 5.2986e-13 0)
(1.84613 0.212209 0)
(2 4.99857e-13 0)
(1.94476 0.0838324 0)
(2.10927 -0.263353 0)
(2 -3.14648e-08 0)
(2 5.02311e-13 0)
(2 -1.56511e-13 0)
(2 1.93256e-13 0)
(2 -1.80714e-13 0)
(2 -2.12456e-13 0)
(2 4.99785e-14 0)
(1.98633 0.0185058 0)
(2 1.67594e-13 0)
(2 -2.02182e-13 0)
(1.90825 0.121134 0)
(2 -4.59202e-14 0)
(2 -1.02056e-13 0)
(2 1.77761e-13 0)
(1.86097 0.193875 0)
(2 5.83414e-14 0)
(2 -2.20737e-13 0)
(2 3.57913e-13 0)
(2 4.89538e-13 0)
(2.11759 -0.264755 0)
(2 1.06971e-11 0)
(2 -5.4412e-13 0)
(2.12042 -0.27578 0)
(2.11763 -0.265188 0)
(2 4.59358e-13 0)
(2 2.14705e-13 0)
(1.83168 0.22894 0)
(2 3.08037e-13 0)
(1.98147 -0.00605068 0)
(2 -4.82577e-15 0)
(2 -4.52214e-14 0)
(2 -1.04096e-13 0)
(1.88199 0.169931 0)
(2.12065 -0.268416 0)
(2 -3.82371e-13 0)
(2.12416 -0.277388 0)
(2 4.99391e-14 0)
(2.07325 -0.149487 0)
(2 -4.09505e-13 0)
(2 -1.87066e-13 0)
(2 -5.39554e-14 0)
(1.83079 0.228822 0)
(2 -4.31664e-08 0)
(2 7.87556e-14 0)
(1.83166 0.228846 0)
(2 1.97799e-13 0)
(2 -2.64635e-11 0)
(2 1.72295e-09 0)
(1.83156 0.228882 0)
(2 2.31411e-10 0)
(2 3.65833e-13 0)
(1.83172 0.228937 0)
(2 1.22414e-13 0)
(2 8.1755e-14 0)
(2.11746 -0.264756 0)
(2 -1.61473e-11 0)
(1.9459 0.0829048 0)
(2 3.51469e-14 0)
(2 -2.4937e-14 0)
(1.8304 0.228876 0)
(1.83053 0.22882 0)
(1.88728 0.162333 0)
(1.84883 0.209573 0)
(2 -6.00201e-13 0)
(2.11718 -0.265065 0)
(2 -2.36714e-15 0)
(2 -6.39778e-14 0)
(1.83875 0.220649 0)
(2 4.6305e-14 0)
(2.11715 -0.264151 0)
(2 -2.97444e-13 0)
(2 1.01788e-14 0)
(2 1.21336e-13 0)
(1.83129 0.229097 0)
(2 2.04421e-13 0)
(2 -2.06866e-13 0)
(2 -1.21433e-13 0)
(2 -4.10627e-13 0)
(1.89877 0.14773 0)
(2 -1.86455e-13 0)
(1.8333 0.227354 0)
(1.83118 0.228239 0)
(2.11681 -0.264806 0)
(2 -6.98791e-14 0)
(2 7.348e-13 0)
(2.1181 -0.26443 0)
(2.11749 -0.264466 0)
(2 -6.95054e-14 0)
(2 -5.96005e-14 0)
(2 -5.65012e-12 0)
(1.8809 0.170947 0)
(1.87149 0.18238 0)
(2 -3.22164e-13 0)
(2 1.07562e-13 0)
(2 -2.45241e-13 0)
(2 -6.1656e-14 0)
(2 -6.49484e-14 0)
(2 5.40363e-14 0)
(2 -4.2155e-13 0)
(1.92814 0.106354 0)
(1.82985 0.228814 0)
(1.99768 0.000976754 0)
(2 -1.37514e-13 0)
(1.83381 0.22667 0)
(2.11726 -0.264267 0)
(2 -4.57407e-14 0)
(2 -1.40153e-14 0)
(2 -1.02519e-15 0)
(1.90745 0.136779 0)
(2 -1.09371e-14 0)
(1.96678 0.053687 0)
(2 1.21076e-14 0)
(1.84648 0.211775 0)
(1.83252 0.228132 0)
(2 1.04855e-13 0)
(2.11812 -0.264584 0)
(2 2.8911e-13 0)
(1.83017 0.228745 0)
(2 -6.98925e-14 0)
(2 8.24006e-14 0)
(1.83141 0.228896 0)
(1.84226 0.216904 0)
(2 -7.33491e-14 0)
(1.82819 0.228117 0)
(2 -1.98185e-13 0)
(2.11234 -0.264258 0)
(2 -6.8361e-13 0)
(2 -3.42946e-13 0)
(2 -4.88985e-13 0)
(1.83113 0.229432 0)
(1.83474 0.225229 0)
(1.85191 0.20599 0)
(2 -1.02252e-13 0)
(1.83057 0.229243 0)
(1.83172 0.228838 0)
(2 -4.71461e-13 0)
(1.83121 0.229292 0)
(2 -9.12605e-09 0)
(1.83238 0.228169 0)
(2 6.63216e-13 0)
(2.11766 -0.265321 0)
(2.00877 -0.0190628 0)
(2.11718 -0.265855 0)
(2 -3.30542e-11 0)
(2 -2.22995e-11 0)
(2 -3.15195e-11 0)
(2 2.43619e-13 0)
(2 -1.47421e-11 0)
(1.83151 0.229047 0)
(2 5.04898e-14 0)
(1.83155 0.229063 0)
(2 -3.49293e-11 0)
(2 -9.59567e-11 0)
(2 7.73517e-14 0)
(1.83989 0.219599 0)
(2 -1.81051e-13 0)
(2.10823 -0.26464 0)
(1.83166 0.22888 0)
(2 -3.77238e-14 0)
(2.10704 -0.26255 0)
(2.11143 -0.2509 0)
(2.11471 -0.263569 0)
(2 -1.46578e-13 0)
(1.91723 0.123506 0)
(1.9854 0.0193275 0)
(1.83109 0.22965 0)
(1.83163 0.22888 0)
(2 -3.99582e-13 0)
(2 -3.62105e-07 0)
(2 -8.67063e-08 0)
(2 -3.30829e-13 0)
(1.83167 0.22898 0)
(2 -4.61733e-14 0)
(2 1.10709e-13 0)
(1.83173 0.229004 0)
(1.83174 0.228882 0)
(2 -3.85175e-13 0)
(1.9396 0.0911087 0)
(1.99978 0.000897961 0)
(2 6.46787e-14 0)
(2.00117 -0.00196957 0)
(1.82981 0.228663 0)
(2.04953 -0.0962958 0)
(2 -1.18269e-07 0)
(2.06032 -0.127547 0)
(2.10339 -0.261139 0)
(2.10322 -0.262395 0)
(2.0042 -0.036878 0)
(1.83056 0.228831 0)
(1.83403 0.226352 0)
(1.96685 0.0511627 0)
(1.83151 0.229068 0)
(1.83157 0.228983 0)
(2 1.74133e-13 0)
(2 1.54371e-13 0)
(1.82997 0.228759 0)
(1.82928 0.229023 0)
(1.83172 0.228825 0)
(1.82833 0.227605 0)
(2 -1.83464e-13 0)
(1.83168 0.229019 0)
(2.10896 -0.263049 0)
(1.8301 0.229672 0)
(1.83085 0.228264 0)
(1.82897 0.228858 0)
(1.8316 0.230199 0)
(2.04431 -0.0870933 0)
(2.03481 -0.0716242 0)
(2.02274 -0.0480578 0)
(1.83166 0.228992 0)
(2.01301 -0.0293231 0)
(1.83113 0.229075 0)
(2 1.26709e-13 0)
(2 -3.68384e-13 0)
(1.83108 0.22977 0)
(1.83161 0.228958 0)
(2 -7.28272e-14 0)
(2.1175 -0.264834 0)
(1.83042 0.228596 0)
(1.83174 0.228961 0)
(2 2.85108e-13 0)
(1.83165 0.228809 0)
(1.83145 0.228804 0)
(2 3.88191e-13 0)
(1.83178 0.229043 0)
(2.10722 -0.263085 0)
(1.8317 0.229099 0)
(1.82982 0.228847 0)
(1.83036 0.22889 0)
(1.83051 0.23112 0)
(2 1.85614e-13 0)
(2 8.53458e-14 0)
(2 -1.05154e-07 0)
(1.83177 0.228931 0)
(1.8908 0.157737 0)
(2.11207 -0.255313 0)
(1.83154 0.228865 0)
(2.11725 -0.270745 0)
(1.83176 0.228964 0)
(2 -3.54686e-14 0)
(2 -6.88321e-13 0)
(2 1.05901e-13 0)
(2 -1.39633e-13 0)
(1.83154 0.228867 0)
(1.83152 0.228985 0)
(2 -1.34173e-13 0)
(2 -1.73499e-13 0)
(1.83154 0.228942 0)
(2.11651 -0.266514 0)
(1.83146 0.229157 0)
(2.10816 -0.26378 0)
(2 1.35625e-14 0)
(1.83274 0.227666 0)
(2 1.93149e-13 0)
(2.11735 -0.264506 0)
(1.83085 0.229582 0)
(2.08839 -0.195406 0)
(2 2.53225e-13 0)
(1.83161 0.228862 0)
(1.83047 0.230061 0)
(1.83154 0.229318 0)
(2 5.47531e-13 0)
(2 -5.42992e-13 0)
(1.9185 0.121725 0)
(1.83073 0.229673 0)
(2.10692 -0.265583 0)
(1.83152 0.229005 0)
(2 9.03214e-14 0)
(1.83168 0.228952 0)
(2.04017 -0.0804604 0)
(1.83154 0.229423 0)
(2.11784 -0.263882 0)
(2 -2.35693e-13 0)
(1.83175 0.228943 0)
(2.10778 -0.24115 0)
(1.83108 0.229793 0)
(2.10941 -0.265244 0)
(2 5.76037e-14 0)
(1.8313 0.229063 0)
(2 1.16262e-13 0)
(1.82978 0.228621 0)
(2 -3.70624e-13 0)
(1.90193 0.145081 0)
(1.83754 0.221912 0)
(1.86805 0.185683 0)
(2.1196 -0.274192 0)
(2 -9.56625e-14 0)
(1.83191 0.229017 0)
(2 -1.44959e-13 0)
(1.83161 0.228935 0)
(2 -1.1464e-07 0)
(1.83161 0.229123 0)
(2 -2.36983e-07 0)
(2 3.93028e-13 0)
(1.83139 0.228787 0)
(2.0057 -0.0157132 0)
(1.83037 0.230037 0)
(2.11377 -0.264498 0)
(1.85989 0.197198 0)
(2 -5.19946e-14 0)
(1.88102 0.170376 0)
(2 -1.69293e-13 0)
(1.83106 0.228841 0)
(1.83177 0.229084 0)
(1.83099 0.228292 0)
(2 1.56286e-13 0)
(1.84858 0.209554 0)
(1.83153 0.229083 0)
(1.84423 0.214749 0)
(1.89723 0.149543 0)
(1.83079 0.232187 0)
(2 1.86539e-13 0)
(1.88786 0.161906 0)
(2 -4.06428e-14 0)
(1.83154 0.228779 0)
(2 4.15678e-13 0)
(1.97446 0.0390338 0)
(2 1.16393e-13 0)
(1.84443 0.214394 0)
(2 -4.69782e-13 0)
(1.83167 0.228979 0)
(1.83948 0.220225 0)
(1.83933 0.219922 0)
(2 3.77856e-13 0)
(1.83127 0.232371 0)
(2.11848 -0.264873 0)
(2 2.61176e-13 0)
(2.11737 -0.264297 0)
(2 1.71169e-13 0)
(2 3.49909e-13 0)
(2 -8.78732e-14 0)
(1.8301 0.228794 0)
(2 -2.40658e-13 0)
(1.83156 0.229259 0)
(2 -5.07517e-14 0)
(2 6.88316e-15 0)
(2 1.75975e-13 0)
(1.83129 0.229242 0)
(1.82906 0.227446 0)
(1.87012 0.18461 0)
(1.83127 0.228897 0)
(1.82989 0.229867 0)
(2.11849 -0.264588 0)
(1.82745 0.229439 0)
(1.83025 0.228784 0)
(2 -2.57893e-13 0)
(1.85258 0.200772 0)
(1.83186 0.229005 0)
(1.83801 0.227602 0)
(2 1.07287e-13 0)
(1.83015 0.228759 0)
(1.8301 0.228803 0)
(2 1.12036e-13 0)
(1.82909 0.231315 0)
(1.83103 0.228927 0)
(1.83092 0.229243 0)
(1.83094 0.229496 0)
(2 3.26104e-13 0)
(2 -7.11075e-13 0)
(2 -6.92516e-13 0)
(1.83157 0.228985 0)
(2.11779 -0.268728 0)
(2 -1.47913e-13 0)
(1.83183 0.228987 0)
(2 -2.49467e-13 0)
(2 4.0005e-13 0)
(2.1176 -0.263817 0)
(2 2.90822e-13 0)
(2 2.39254e-13 0)
(1.83158 0.229027 0)
(1.83123 0.228678 0)
(2 4.20609e-13 0)
(1.83168 0.229033 0)
(1.83195 0.231791 0)
(1.83146 0.228897 0)
(2.00444 -0.0122919 0)
(1.83138 0.228926 0)
(2 -1.91991e-14 0)
(1.83135 0.228933 0)
(1.83139 0.228967 0)
(1.87222 0.179253 0)
(2 3.57599e-13 0)
(2 -8.60162e-14 0)
(2 3.10158e-13 0)
(1.83109 0.229478 0)
(1.83182 0.228828 0)
(1.83143 0.228963 0)
(2.01475 -0.0325214 0)
(2 -2.01872e-13 0)
(1.82781 0.23147 0)
(1.83165 0.228775 0)
(1.83158 0.228861 0)
(2 -1.16049e-13 0)
(1.83144 0.228881 0)
(1.83164 0.228868 0)
(1.83155 0.228995 0)
(1.82765 0.232025 0)
(2 1.00747e-13 0)
(1.83178 0.228864 0)
(1.83176 0.228545 0)
(1.85188 0.202369 0)
(1.83173 0.228759 0)
(1.82828 0.231404 0)
(2 -5.08676e-14 0)
(1.83107 0.231163 0)
(1.83336 0.226671 0)
(1.83141 0.228951 0)
(1.83079 0.229147 0)
(1.83161 0.229295 0)
(2.11797 -0.264256 0)
(1.83142 0.228894 0)
(1.8319 0.228464 0)
(2 -3.95317e-14 0)
(1.83155 0.229005 0)
(1.83136 0.228929 0)
(1.83164 0.228924 0)
(1.83178 0.228874 0)
(2 -5.56775e-08 0)
(1.8317 0.229071 0)
(1.83151 0.229091 0)
(2 -1.67156e-07 0)
(1.83175 0.228921 0)
(1.85918 0.197987 0)
(2 1.97713e-14 0)
(2 -1.12341e-13 0)
(2 9.03362e-10 0)
(1.83191 0.22845 0)
(1.83102 0.231049 0)
(2 -2.64059e-13 0)
(2 1.46515e-13 0)
(1.90739 0.13676 0)
(2 -3.02527e-13 0)
(1.83199 0.228876 0)
(2 -7.20019e-13 0)
(2 6.19401e-13 0)
(1.83161 0.228999 0)
(1.83094 0.229572 0)
(1.83118 0.228939 0)
(1.83163 0.228945 0)
(2 9.16177e-15 0)
(2 2.55229e-13 0)
(2 -1.39934e-13 0)
(1.88106 0.167209 0)
(2 7.47284e-14 0)
(1.83144 0.229169 0)
(2 -1.55617e-13 0)
(2 -8.41747e-14 0)
(1.83001 0.228727 0)
(1.82988 0.228812 0)
(2 -7.12011e-14 0)
(1.83183 0.228958 0)
(2.12056 -0.27317 0)
(1.83177 0.229062 0)
(1.8318 0.228924 0)
(2.09626 -0.201931 0)
(2 3.20088e-15 0)
(2.11972 -0.273453 0)
(1.84977 0.203598 0)
(1.83117 0.229633 0)
(1.83158 0.229497 0)
(1.8316 0.22961 0)
(2.11777 -0.264726 0)
(1.83139 0.228951 0)
(1.83128 0.229412 0)
(2.11763 -0.264566 0)
(2.11972 -0.274677 0)
(2 -2.61304e-07 0)
(1.83183 0.229263 0)
(1.83176 0.228962 0)
(2 9.59793e-14 0)
(2 -1.09172e-13 0)
(1.83168 0.228992 0)
(2 3.59578e-13 0)
(1.83349 0.228333 0)
(2 2.4641e-06 0)
(1.85199 0.205764 0)
(2 -3.09852e-13 0)
(1.9216 0.118169 0)
(1.83179 0.229052 0)
(1.8306 0.229931 0)
(1.8813 0.17079 0)
(1.85009 0.205141 0)
(1.83016 0.228828 0)
(1.83125 0.229513 0)
(1.84986 0.211637 0)
(2 -1.28648e-13 0)
(2.11774 -0.264709 0)
(1.83048 0.230035 0)
(1.83163 0.228777 0)
(1.82963 0.231117 0)
(2 7.23157e-06 0)
(2 3.90566e-10 0)
(2 1.52198e-09 0)
(1.82708 0.229495 0)
(2 4.06754e-13 0)
(1.83128 0.228832 0)
(1.83144 0.228875 0)
(2.08395 -0.183674 0)
(2 -1.96452e-13 0)
(1.83169 0.228953 0)
(2.00002 -4.69311e-05 0)
(2 5.04664e-13 0)
(1.99999 1.91525e-05 0)
(1.99998 2.78968e-05 0)
(1.83168 0.228813 0)
(1.83184 0.228892 0)
(2.00055 -0.000914554 0)
(2 -1.04314e-13 0)
(2 4.25777e-13 0)
(1.83155 0.228911 0)
(1.83064 0.229771 0)
(1.83147 0.228893 0)
(1.82924 0.230102 0)
(1.83164 0.228486 0)
(2.11563 -0.25901 0)
(1.85723 0.199749 0)
(2 5.52039e-14 0)
(1.83277 0.227453 0)
(1.83114 0.22887 0)
(1.83113 0.228944 0)
(1.83059 0.232796 0)
(2 6.04593e-13 0)
(1.8316 0.22905 0)
(1.83612 0.223816 0)
(1.83096 0.229454 0)
(2 1.13649e-14 0)
(1.83098 0.229216 0)
(1.83117 0.229023 0)
(2.04412 -0.0898893 0)
(1.83163 0.229027 0)
(1.83087 0.229121 0)
(2 -4.54662e-15 0)
(1.83148 0.228788 0)
(2.058 -0.109599 0)
(1.83174 0.228999 0)
(2.04837 -0.0941178 0)
(1.83142 0.229038 0)
(2 -1.35918e-07 0)
(1.83139 0.228966 0)
(1.82405 0.231822 0)
(1.8318 0.229034 0)
(1.83155 0.22914 0)
(1.83144 0.228971 0)
(1.83015 0.228166 0)
(1.83127 0.229231 0)
(1.82947 0.228886 0)
(2 -8.15517e-14 0)
(2.02446 -0.0517477 0)
(1.83182 0.229023 0)
(1.83174 0.228999 0)
(2.05591 -0.11064 0)
(1.83183 0.229013 0)
(2.00711 -0.0150937 0)
(1.89391 0.150123 0)
(1.83188 0.228895 0)
(1.83136 0.228953 0)
(1.83048 0.229308 0)
(2 2.16385e-13 0)
(1.83038 0.230055 0)
(1.8932 0.150681 0)
(1.83104 0.229392 0)
(2.02769 -0.0575234 0)
(1.83057 0.229789 0)
(1.8269 0.232284 0)
(2 4.78145e-13 0)
(2.04023 -0.081716 0)
(2 -3.86174e-09 0)
(1.83608 0.225208 0)
(2 -3.88211e-13 0)
(1.88335 0.16739 0)
(2 5.10802e-09 0)
(1.83659 0.229576 0)
(2.03833 -0.0810582 0)
(2 2.18818e-13 0)
(1.83187 0.228854 0)
(1.82934 0.232551 0)
(2 1.70854e-13 0)
(1.83134 0.228321 0)
(1.83107 0.229744 0)
(1.82966 0.230863 0)
(1.83025 0.232307 0)
(1.82939 0.230858 0)
(2 1.45585e-13 0)
(1.82984 0.228794 0)
(2 2.79551e-13 0)
(2 3.25544e-13 0)
(2 7.27744e-14 0)
(2.03658 -0.0742441 0)
(1.83148 0.229034 0)
(1.83197 0.228574 0)
(1.83135 0.228559 0)
(1.83183 0.228969 0)
(1.82906 0.231322 0)
(1.83143 0.228561 0)
(1.83024 0.228087 0)
(1.83158 0.229238 0)
(2.03252 -0.0672176 0)
(1.98831 0.0225403 0)
(2 3.51407e-09 0)
(2 -2.94598e-13 0)
(1.8245 0.23328 0)
(1.83175 0.229094 0)
(1.83135 0.22896 0)
(1.83193 0.228981 0)
(1.99999 1.6225e-05 0)
(1.91361 0.125685 0)
(2 -1.66976e-07 0)
(1.82935 0.231214 0)
(1.85461 0.211965 0)
(2 -2.58972e-12 0)
(2 -5.43961e-11 0)
(2.08794 -0.190209 0)
(1.83138 0.228964 0)
(2 -6.07855e-13 0)
(2 -3.24146e-14 0)
(2.10707 -0.262556 0)
(1.83184 0.229049 0)
(2 -5.67777e-13 0)
(1.83004 0.228795 0)
(1.83165 0.228936 0)
(1.83024 0.228811 0)
(1.83792 0.221876 0)
(1.83133 0.229019 0)
(2 -1.626e-10 0)
(2.1184 -0.269555 0)
(1.95746 0.0656844 0)
(1.83137 0.228874 0)
(1.83135 0.228997 0)
(2 -9.41347e-14 0)
(1.83183 0.228825 0)
(1.83152 0.228992 0)
(1.9161 0.124735 0)
(1.99856 0.00627289 0)
(1.96681 0.0569199 0)
(2 -3.86503e-13 0)
(1.82956 0.228679 0)
(1.83124 0.229053 0)
(2 -1.20039e-07 0)
(2 -1.87561e-10 0)
(2.11777 -0.264863 0)
(2 -2.41812e-10 0)
(2 -3.74718e-13 0)
(1.83183 0.229011 0)
(1.83181 0.229003 0)
(1.83179 0.228977 0)
(1.83152 0.228884 0)
(1.83148 0.22889 0)
(1.82802 0.230467 0)
(1.83149 0.229159 0)
(1.83163 0.22867 0)
(1.83129 0.228912 0)
(2 -1.03528e-13 0)
(2.00143 -0.0024648 0)
(1.83192 0.229026 0)
(1.83161 0.228982 0)
(2.00114 -0.0017051 0)
(1.83175 0.229007 0)
(1.83141 0.228979 0)
(2.11748 -0.263341 0)
(2.11674 -0.26447 0)
(1.83206 0.228303 0)
(1.83102 0.229179 0)
(2 -3.08154e-13 0)
(2 -1.66035e-15 0)
(1.99956 0.00164731 0)
(1.8317 0.228854 0)
(1.83197 0.229122 0)
(1.83187 0.229033 0)
(2 1.00992e-09 0)
(1.83171 0.228978 0)
(2 -2.00832e-14 0)
(2.04856 -0.0957543 0)
(1.82917 0.231601 0)
(1.8313 0.230982 0)
(2 -2.89323e-13 0)
(1.92275 0.114854 0)
(1.83156 0.229103 0)
(2 -2.83906e-13 0)
(1.8295 0.227918 0)
(2 -1.03623e-10 0)
(1.83179 0.228874 0)
(1.88988 0.156848 0)
(1.83133 0.229127 0)
(2 1.39079e-11 0)
(1.83188 0.228898 0)
(1.83308 0.230151 0)
(2.11764 -0.265179 0)
(1.83171 0.229012 0)
(2 -1.24156e-07 0)
(1.83123 0.229103 0)
(1.82967 0.228763 0)
(2 7.12608e-09 0)
(2.1171 -0.262746 0)
(1.83104 0.229665 0)
(1.85581 0.204128 0)
(2.0007 -0.000998354 0)
(1.83294 0.221406 0)
(1.83137 0.228939 0)
(2 -5.32295e-12 0)
(1.99759 -0.00340193 0)
(1.83136 0.229624 0)
(2.00187 -0.00157269 0)
(1.83161 0.229026 0)
(2 -2.55141e-12 0)
(2 -2.15643e-14 0)
(1.83123 0.228357 0)
(2 4.72119e-14 0)
(1.8306 0.229921 0)
(1.83158 0.229024 0)
(2.00135 -0.00229292 0)
(1.85866 0.196422 0)
(2 3.13892e-09 0)
(1.83144 0.228975 0)
(2 1.04717e-09 0)
(2 -4.31245e-13 0)
(2 1.07483e-11 0)
(2 6.7785e-12 0)
(1.83195 0.228951 0)
(2 6.90599e-09 0)
(2 -1.75376e-13 0)
(1.8308 0.232407 0)
(2 7.98156e-14 0)
(1.83133 0.229031 0)
(2 3.21762e-10 0)
(1.89221 0.156314 0)
(1.8321 0.228191 0)
(1.83197 0.228497 0)
(2 9.88316e-10 0)
(2 -2.76724e-14 0)