/*--------------------------------*- C++ -*----------------------------------*\
  =========                 |
  \\      /  F ield         | OpenFOAM: The Open Source CFD Toolbox
   \\    /   O peration     | Website:  https://openfoam.org
    \\  /    A nd           | Version:  12
     \\/     M anipulation  |
\*---------------------------------------------------------------------------*/
FoamFile
{
    format      ascii;
    class       surfaceScalarField;
    location    "5.87";
    object      phi;
}
// * * * * * * * * * * * * * * * * * * * * * * * * * * * * * * * * * * * * * //

dimensions      [1 0 -1 0 0 0 0];

internalField   nonuniform List<scalar> 
33852
(
0.000251329
2.24281e-05
-0.000273757
-0.000246121
1.32441e-05
0.000232877
-0.000174409
-7.07444e-05
0.000243105
0.000304053
-0.000163969
-0.000140085
0.000292987
-4.32434e-05
-0.000249691
2.72441e-05
-0.000260681
0.000233437
0.000316283
1.472e-05
-0.000329417
0.000304277
-9.59564e-05
-0.000208321
0.000286413
-3.50841e-05
0.000203296
1.85789e-06
-0.000203507
0.000289692
-0.000366772
7.7066e-05
0.000362772
-4.59554e-05
-4.39602e-05
0.000263285
-0.000219325
-4.39033e-05
0.000318111
-0.00027412
6.00874e-05
-0.000236459
0.000252057
1.2236e-05
-0.000264293
0.000264853
-1.2796e-05
-0.000278433
3.23121e-05
0.000340891
-5.11699e-05
0.000158593
0.000112308
-0.000270901
-2.43151e-05
0.000303369
-0.00027899
0.000271377
-0.000276165
4.78802e-06
-1.76987e-05
0.000274635
-0.00025752
-0.000232441
1.57902e-05
0.000216472
-0.000154475
-0.000183517
0.000337755
-0.000144602
-6.94112e-05
0.000214369
3.72401e-05
0.000267037
-6.10997e-05
-0.000262494
0.000323653
-0.000209696
1.95345e-06
0.000212836
-0.000210053
-2.01369e-05
0.000142045
0.000137388
-0.000279433
0.000342836
1.93852e-05
0.000142618
0.000128347
-0.000270965
-0.000101136
0.000259729
-0.000250489
-3.78001e-06
0.000254269
0.00033076
-5.96609e-05
-0.000271021
-0.000357879
0.000203806
-0.000227527
0.000209415
0.000231645
3.32081e-05
-5.65602e-06
0.000237301
-8.07584e-06
0.000211548
-0.000232625
0.000259869
0.000316727
-5.71917e-05
-0.000259494
-0.000309093
5.51042e-05
0.000253989
0.0002396
-0.000300747
0.000273589
-0.000306321
3.27321e-05
-0.000180237
-5.49362e-05
0.000235173
0.000272133
-0.000272133
0.000148429
-0.000297473
0.000149045
-0.000212436
0.000218336
-7.33127e-06
-0.000268241
0.000237301
3.09401e-05
-0.000203736
0.000252252
-4.78746e-05
-9.16164e-05
-0.000217477
-0.000114598
-0.000252112
-0.000280169
0.000266113
1.40561e-05
0.000328373
1.18004e-05
-0.000250433
7.01963e-05
0.000117908
0.000145909
-0.000263817
1.34681e-05
-0.000267457
0.000253989
-0.000134569
0.000282997
-0.000154625
-5.20941e-05
0.000206326
-0.000274681
0.000245113
2.95681e-05
0.000237553
-0.000268437
3.08841e-05
-0.000182025
-2.32497e-05
0.000151665
0.000115565
-0.00026723
-0.000192037
-2.89873e-05
0.000216058
0.000263985
2.24281e-05
0.000275941
-2.35201e-06
0.000265329
-0.000250741
-1.45881e-05
0.000233597
-6.58468e-05
-0.000167432
-1.82001e-06
0.000239373
0.00036693
-0.000312717
-5.38885e-05
-2.8345e-05
0.000303586
-0.000275796
-0.000101584
0.000219493
0.00034297
2.42052e-05
-0.000373228
0.000355026
1.86008e-05
-0.000216764
2.28454e-05
0.000311006
-0.000323368
1.24283e-05
-0.000210517
0.000275236
-6.50497e-05
-4.45202e-06
1.71374e-05
-0.000319411
0.00030229
0.000235541
-0.000199526
-3.55133e-05
0.00026875
-0.000338676
6.98337e-05
0.000332007
-6.32435e-05
-0.000268941
0.000236573
3.23681e-05
-0.000129388
-0.000132609
0.000261997
-1.86761e-05
-0.000249565
-1.022e-05
-0.000258721
2.34853e-05
0.000208275
-0.00023143
3.20369e-05
-0.000227408
0.000196084
-2.50691e-05
0.000327912
-0.000303052
-0.000279329
0.000273701
5.62802e-06
0.000156129
-0.000296857
0.000140729
-5.87136e-05
-0.000145328
0.000212079
0.000143277
0.0001218
-0.000265077
-0.000250091
0.000225764
-0.000205327
0.000154168
-0.000168813
0.000327181
-0.000158369
0.000185389
7.16523e-05
-0.000257041
0.000255193
2.07481e-05
-0.000192277
0.000148317
5.05466e-05
0.00026581
0.000307221
-0.000290017
9.16204e-05
-0.000236204
0.000135241
0.000117096
-0.000281065
-1.20009e-06
0.000245402
-0.000244567
0.000166489
0.000122836
-0.000289325
0.000144941
9.05485e-05
-3.92002e-06
0.000259113
0.000305157
5.42599e-06
-0.000323978
0.000314943
8.91629e-06
-3.99002e-05
0.000236293
-0.000196393
4.08802e-06
-0.000284257
-2.51836e-05
0.000167084
-0.000138685
-0.000157946
0.000136406
0.00021367
-0.000180728
-0.000269921
0.000264965
4.95602e-06
2.64041e-05
0.000174721
-0.000201125
2.87841e-05
-0.000257265
0.000228481
0.000276137
-0.000262669
0.000115108
0.000212073
0.000214176
-0.000190723
-0.000175813
0.000202217
1.35571e-05
0.000282786
-0.00029658
0.000270465
2.16228e-05
0.000272131
-0.000284318
1.23711e-05
3.86402e-06
0.000267513
-1.8135e-05
0.000290302
0.000330921
9.97309e-06
0.000213828
-0.000257693
0.000316177
-0.000316104
-6.63603e-06
-0.000272693
2.86286e-05
0.000203222
0.000187993
3.98722e-05
-0.000227865
-5.33334e-05
0.000212785
-0.000158037
0.000153609
-0.000270285
0.000116676
0.000279441
-0.000329701
5.02602e-05
-6.38122e-05
0.000249201
-0.000166909
0.000315897
-0.000148989
-0.000314072
-1.00473e-05
-0.000214929
0.000175029
2.78601e-05
-0.000278349
0.000276221
-1.88441e-05
-0.000248613
1.72223e-05
-0.000303178
0.00028549
0.000344989
-0.000158593
-0.000186397
-1.69214e-05
-0.00024108
0.000257753
-0.000266617
-3.30401e-06
0.000224001
2.45841e-05
-0.000248585
0.000284509
-0.000128381
0.000140197
0.000138853
-0.000279049
-0.000201201
-1.08578e-05
0.000258169
-0.000115551
0.000225662
-0.000242527
-6.38122e-05
0.000251805
-0.000210505
0.000249481
-5.60002e-07
-0.000248921
0.000255109
-0.000237441
-0.000325107
0.000299863
-3.08841e-05
0.000203169
-0.000172285
0.000291701
1.27934e-06
-0.000293086
7.8761e-05
0.000133475
-0.000211386
4.66592e-05
-0.000201016
-0.000288988
-4.66722e-06
0.000294464
-1.58694e-06
-0.000287101
0.000146973
-0.000273925
0.000126952
-0.000263295
0.000220563
-0.000294218
0.000266243
0.000279441
-0.000310501
-1.23856e-05
0.000322785
0.000111328
0.000162169
-2.14095e-05
0.000352327
0.000140141
0.000139833
-0.000279973
0.000245029
-0.000250349
5.32002e-06
-0.000210953
0.000180069
0.000279133
-5.43202e-06
0.000350739
-3.26159e-05
-0.000300264
0.000302681
-2.5879e-06
0.000270985
-0.000270985
-0.000364673
0.000225927
0.000138775
-0.000199554
1.86971e-05
1.66908e-05
0.000275157
-0.000278461
3.30401e-06
-5.03627e-06
0.000163331
-0.000157551
-0.000197345
0.000254801
-5.74562e-05
-0.000205831
4.47709e-06
-0.00024028
0.000159375
8.13976e-05
-0.000180264
0.000261401
-8.11394e-05
0.000256285
-0.000287113
3.08281e-05
-0.000249229
5.18842e-05
-2.35188e-05
0.000276223
-0.00025286
-0.000253547
1.35801e-06
0.000252189
0.000231281
-7.28003e-06
-0.000294326
7.57612e-06
0.000286537
-0.000266085
0.000266085
-0.000284423
-5.50265e-05
-0.000170629
-0.000193987
-0.000173462
0.000216996
-4.4454e-05
-1.232e-05
-0.000239177
0.000251497
3.10801e-06
0.000210113
-0.000213221
-0.000183957
-2.22229e-05
0.000207241
7.5726e-06
0.000294473
-0.000302206
-0.000236153
-1.34401e-05
0.000249593
1.50361e-05
-0.000251189
-0.000241025
0.000256061
-0.000301401
0.000308854
0.000256117
7.16803e-06
-0.000167634
-3.15675e-05
0.000203397
-0.000145237
-0.000134765
-0.000244329
0.000240549
0.000298577
-3.80712e-07
-0.000298184
-0.000298805
5.96821e-07
0.000298212
1.93239e-05
0.000181217
0.000163773
7.70044e-05
-0.000257269
-0.000159242
0.000310908
0.000250721
-0.000108677
-0.000235145
-1.83681e-05
0.000253513
-0.000204617
-0.000126905
0.000331461
-6.10402e-06
-0.000229125
0.000235229
-2.13037e-05
-0.000180258
-0.000286591
-8.57728e-05
6.30828e-06
-0.000300764
-0.000212698
0.000328294
-0.000115295
0.000281597
0.000288205
-5.16322e-05
0.000271993
-1.57081e-05
-0.000187124
-1.4258e-05
0.000201559
0.000297606
4.16289e-07
-0.000297917
-0.000269664
-3.23397e-05
-0.000218821
0.000247605
-2.52309e-05
0.000310491
-0.000285269
0.000176576
7.87587e-06
-0.000184981
-3.33574e-05
0.000211163
-0.000301225
0.00027598
0.000292552
5.89008e-06
-0.000298109
0.000157445
0.00011886
-0.000276305
0.000290154
4.72453e-06
-0.00029481
-0.00024131
0.000114359
0.000126539
-0.000281971
0.000295371
0.000302513
-0.000156857
-0.000145657
0.000207005
-0.000203897
-0.000232009
-0.000121156
-0.000155009
-4.01353e-06
-0.000293866
0.00029789
-1.0136e-05
0.000276249
0.000288831
-2.01711e-05
-0.000269724
-0.000262938
2.91282e-05
0.000233851
0.000271433
-0.000267569
0.000249621
2.95121e-05
0.00031492
-9.76013e-06
-0.000305166
4.81057e-05
0.000151997
-0.000199113
-9.83808e-05
0.000197566
-9.60714e-05
0.000252617
-2.91201e-05
-0.000223497
7.33115e-07
0.000291887
-0.00017664
-3.13831e-05
0.000211984
-1.83562e-06
0.000291272
-9.33244e-05
0.000246933
-0.000255417
-5.26402e-06
0.000121184
0.000181329
1.34121e-05
0.000241557
-0.000254969
0.000236097
1.34961e-05
-0.000249593
0.000249509
-0.000242929
0.000256425
6.45035e-05
-0.000205053
0.000139695
-0.000210152
0.000113636
-0.000200498
0.000297232
1.4178e-06
-0.000298672
0.000253849
2.22881e-05
0.000268493
-0.000216441
-5.20522e-05
0.000225518
-0.000246849
2.13305e-05
0.000257909
1.40841e-05
5.84254e-05
0.000295467
0.000267186
-3.89594e-05
-0.000228226
0.0001738
1.274e-05
0.000240297
-0.000253037
0.000194635
-0.000114731
-8.07784e-05
-0.000204729
2.11124e-05
-1.28953e-06
-0.000297912
0.000299147
0.000217239
-0.000173415
-5.43199e-05
0.000344758
-4.13394e-05
0.000275969
-0.000135829
2.31561e-05
0.000238337
-0.000261493
-0.000231141
0.000254297
-2.66926e-05
-0.000229705
0.000256414
0.000149339
-0.000153252
-7.77462e-05
-0.00016651
-0.000261723
4.14346e-05
0.000220288
-3.17521e-05
-0.00022997
7.24236e-06
0.000261717
-3.25193e-05
-0.000229198
1.67366e-05
0.000125661
-0.000194892
0.000308785
-0.000171397
0.000262319
-3.57923e-05
-0.000226526
-0.000319231
0.000178886
-0.000103054
-0.000228453
-6.90203e-05
-1.06996e-06
-0.000299637
0.000299412
-2.7824e-05
0.000183186
-0.000155169
0.00030806
6.86996e-06
0.000250097
-0.000248249
-1.84801e-06
-0.000176447
6.17643e-05
0.000260253
-3.07201e-05
-0.000229521
0.000197345
-0.000250769
5.34242e-05
0.000254206
-0.000231206
-2.29992e-05
-0.000252337
0.000240017
0.000146033
0.000102003
-0.000101864
-0.000170269
0.000132496
-0.000261885
-0.000290249
0.000242201
4.80482e-05
0.000216807
3.12478e-05
-0.000248056
-0.000237433
-9.95385e-06
0.00024729
0.000326108
-2.30638e-05
0.000263996
-3.42721e-05
-0.000229724
0.000143955
-0.000230095
9.1682e-05
3.63259e-05
-0.000265637
0.000229311
-0.000253905
0.000121296
0.000249817
-5.24722e-05
0.000294673
-0.000154253
-0.000140421
0.000122248
-0.000289157
1.53441e-05
0.000237665
-0.000253009
-0.000262031
3.54705e-05
0.00022656
-2.73826e-06
-3.77917e-05
-0.000224239
0.000248388
-0.000272341
-0.000264649
3.44737e-05
0.000230175
0.000193257
0.000101416
-0.000149941
0.000290137
-0.000167335
-3.81402e-05
0.000207809
-1.81721e-05
0.000263201
-0.000293278
0.000309897
0.000112943
0.000100399
0.000261325
-0.000261325
0.000306494
-1.89309e-05
-0.000289747
5.32002e-07
0.000248949
0.000254857
1.65761e-05
0.000309422
-0.000276005
-3.31459e-05
-2.26336e-05
0.000266577
-0.000243943
3.00077e-05
-0.000260519
0.000230511
-0.000252139
0.000229506
0.000327499
3.11501e-05
-0.000260598
0.000229447
0.000276809
-3.16961e-05
-7.21518e-06
-0.000293446
0.000300408
0.000270633
3.89639e-05
0.000230245
-0.000266617
3.63721e-05
0.000200579
-0.000201759
-0.000258301
0.000238533
1.97681e-05
0.000169762
-0.000257245
8.74835e-05
-0.000197641
0.000163241
-0.000249145
8.59043e-05
-0.000266169
0.000224813
4.13562e-05
0.000253073
-2.78797e-05
-0.000225194
0.000174982
4.2916e-05
-0.000234837
-2.29601e-05
0.000257797
-0.000236377
-2.28761e-05
0.000259253
-1.94265e-05
0.000255969
-0.000236542
-0.000259345
0.000239919
-3.28332e-05
0.00018034
-0.000235929
-2.24001e-05
0.000258329
-0.00025484
0.000229192
2.56481e-05
2.94001e-06
0.000211289
-0.000214229
-0.000267031
3.79849e-05
0.000229046
0.000270677
4.48002e-06
4.18506e-05
0.000162442
-0.000205873
-3.31199e-05
0.000249928
-2.09636e-05
0.000218597
9.73004e-05
0.000248198
-0.000216955
0.000277655
-0.000278873
0.000277749
-0.000281577
-1.84997e-05
0.000258601
-0.000240101
-0.000261644
0.000243145
3.04146e-05
-0.000200673
-2.94444e-05
-0.000209274
0.000238776
0.000315008
-0.000287675
-2.75059e-05
0.000261297
-3.11081e-05
-0.000230189
3.28739e-05
-0.000262362
0.000229488
-0.000229853
0.000259645
-2.97921e-05
0.000325792
-1.77019e-05
0.000151978
-0.000217574
0.000256929
-0.000109956
-0.000286224
0.000287447
0.000241977
-6.41202e-06
-0.000235565
0.000228537
-0.000186438
-3.69341e-05
0.000219656
2.79095e-05
-0.000214732
-0.000239989
0.000260317
-2.03281e-05
-9.99286e-05
0.000183366
-8.36402e-05
3.07341e-05
-0.000198253
0.000240169
-0.000263424
2.32552e-05
-0.000115584
0.000258861
-0.000243993
0.000265721
-2.17281e-05
-0.000238953
0.000232541
0.000258626
-0.000245105
-1.35213e-05
0.000264349
-2.46681e-05
-0.000246317
-0.000273073
-1.05322e-05
0.00029815
-5.40812e-05
-9.51603e-06
0.000291253
-0.000281806
-0.000167162
0.000208049
0.000231994
1.81228e-05
-0.000246385
0.000328728
-0.000329018
0.000260955
-0.000245018
-1.59377e-05
-0.000302336
-7.58252e-07
0.000305085
9.76306e-06
3.72142e-05
0.000167592
-0.000208865
0.000215676
-3.59612e-05
-0.000180394
0.000278054
-0.000255789
-2.22648e-05
-0.000205817
3.07103e-05
3.15421e-05
-0.000261891
0.000230348
0.000284556
-0.000291785
2.44721e-05
-0.000259617
-0.000257965
1.87881e-05
0.000266057
-1.64361e-05
0.000151173
-0.000267625
0.000116452
0.000298748
-4.40881e-06
0.000238617
-7.53763e-05
2.12521e-05
0.000177045
-0.000198297
-0.000183877
0.000205129
-0.000236275
0.000257219
-2.09441e-05
0.000261462
-3.31689e-05
-0.000228293
-0.000197009
-5.21362e-05
0.000251581
-1.48401e-06
8.93101e-06
-0.00026372
0.000256198
-0.000343456
0.000236557
0.000106559
0.000266371
-0.000236811
-2.95597e-05
0.000306823
-0.000314657
7.82321e-06
-2.57041e-05
-0.000229097
0.000254801
0.000261493
-7.64403e-06
1.0333e-05
-0.000209086
0.000262411
-3.19033e-05
-0.000230508
-6.90483e-05
-0.000260653
-0.000194685
0.000248025
-5.33402e-05
-0.000266533
0.000249985
1.65481e-05
-0.000318134
1.66711e-05
-1.72444e-05
0.000296584
-0.000278961
-0.000276221
1.65481e-05
0.000249537
-0.000163314
6.31683e-05
0.000274007
1.47585e-05
-0.000288785
-0.000316141
0.000307938
8.26109e-06
3.46641e-05
-0.000263649
0.000228985
-1.7488e-05
0.000281436
-0.000315207
1.63989e-05
-0.000176541
-7.42283e-05
-0.000235173
0.000205568
-2.16721e-05
-0.000216469
0.000238141
-0.000314821
0.000295921
1.88965e-05
-0.000133126
0.000274517
-0.000141155
-8.39994e-06
3.31521e-05
-0.000263453
0.000230301
-0.000198518
2.4263e-05
0.000174007
0.000221519
0.000280546
-0.000280548
2.47617e-07
-0.000236993
-2.20921e-05
0.000224813
-0.000202721
0.000139273
0.000143753
-0.000278517
0.000201321
-5.73062e-05
0.00030821
-1.06062e-05
0.000209271
-0.000268857
2.92853e-05
0.00022306
-0.000252345
-0.000321871
0.000138094
0.000296571
2.92509e-05
1.94699e-05
-0.000224355
-2.77845e-05
-0.000136663
-0.000132998
-0.000326588
0.000113895
0.000242873
2.56201e-05
0.000218765
-0.000224869
1.09537e-05
-0.000287873
0.000277072
-0.000242739
0.000269543
-2.72062e-05
0.000281422
-0.000281853
0.000286094
-7.69542e-05
-8.83157e-06
0.000290221
-1.87881e-05
0.000247101
-0.000228313
0.000281463
-0.000290371
-5.64015e-06
-0.000283947
0.000289554
0.000282038
-0.000270137
0.00028492
0.000226314
2.67597e-05
-0.000312114
0.000318543
-6.35597e-06
0.000254655
-2.0582e-05
0.000230682
2.37883e-05
-0.000268913
0.000246057
-2.05381e-05
-0.000259401
3.02849e-05
0.000229116
0.000178305
7.64963e-05
9.46955e-06
0.000280799
-0.000290654
-0.000238141
-2.88401e-05
0.000266981
2.51441e-05
-0.000263285
0.000284117
-0.000162317
-0.000232177
0.000261129
-2.89521e-05
-0.000234697
0.000260709
-2.60121e-05
1.4938e-06
0.000279238
2.45001e-05
-0.000259197
2.38001e-05
-0.000255977
0.000274252
-0.000242924
-3.13705e-05
0.000317979
-1.00047e-05
-0.000305631
-3.72565e-06
-0.000255753
1.1816e-05
0.000243937
-1.73689e-05
-0.000261185
0.000228066
-0.000245337
0.000270145
-2.48081e-05
-0.000263229
1.49801e-05
-2.35964e-05
0.00028642
-0.000262546
2.13641e-05
-0.000266701
-0.000241575
-2.13383e-05
3.27119e-05
-9.0432e-05
0.000260194
0.000280818
-0.000286438
5.05122e-05
0.000237693
0.000282154
-0.000281656
-0.000243181
-2.39401e-05
0.000267121
-0.000260894
7.34723e-06
-0.000295309
1.94188e-05
0.000276336
-0.000268717
2.55361e-05
-8.34393e-06
0.000290565
-0.000268326
0.000243549
2.47772e-05
-0.000232513
0.000210841
0.000280106
-0.000288596
-6.16002e-07
0.000260289
-0.000259673
-0.000302046
-1.61272e-05
-0.000264573
2.35481e-05
-0.00024417
-2.41556e-05
-3.43281e-05
-0.000297797
0.000293785
0.000286674
-0.000158327
0.000295591
-0.000289803
2.30152e-05
4.8725e-06
0.000261837
-0.000254708
-7.10691e-06
0.000307647
-2.02368e-05
-0.000287438
5.93969e-05
-0.000246765
-2.19521e-05
-0.000356263
0.000241905
0.000284935
-0.000278503
2.33801e-05
-0.000185774
-1.56805e-05
-0.000306424
2.56184e-05
0.000280614
-0.000196831
0.00031093
-0.000113532
0.000259841
-0.000238533
-2.13081e-05
-0.000291649
2.94001e-05
0.000222097
-0.000251497
-0.000156476
0.000139354
-0.00016678
0.000251441
-0.000238029
-1.34121e-05
-0.000263873
3.40201e-05
-2.23161e-05
-0.000269837
0.000251469
0.000230427
3.12901e-05
-4.58021e-05
0.000201728
0.000232619
-0.000260499
-1.74199e-05
-3.30005e-06
0.00024543
-0.00024376
-0.000293558
-0.000237049
0.000265189
-2.81401e-05
0.000230096
3.22225e-05
-0.000268521
2.55921e-05
-0.000239905
-2.86161e-05
0.000228954
-0.000260706
-0.000282579
4.73202e-05
-0.000242005
0.000294066
-0.000283826
-0.000288182
1.3293e-05
0.000275658
-4.71559e-06
0.0002196
0.000228551
-0.00026107
0.000296885
-0.0001309
-0.000165985
0.0002415
-0.00026172
0.000270484
-0.000226213
-1.76681e-05
-0.000164516
0.000307752
-0.000143196
2.49649e-05
0.000222662
-0.000247627
-0.00019371
0.000193887
-0.000283684
0.000282372
6.96539e-06
-0.000290661
-0.000302485
0.000146693
0.000155793
0.000259995
-0.000239359
-2.06361e-05
-0.000215741
0.000193649
0.000261934
3.2846e-07
0.000257293
0.000232526
2.16797e-05
-0.000295702
-6.11721e-05
1.03027e-05
0.000231697
-0.000248572
1.77149e-05
-0.000230917
-2.37161e-05
0.000254633
-0.000242295
0.000263191
-2.08965e-05
8.29272e-05
0.000133871
2.0241e-05
-0.000305804
0.000285718
0.000256565
-1.80041e-05
-0.000238561
0.000243881
-0.000254017
1.0136e-05
-0.000226745
0.000207957
0.000223131
-0.000258923
-0.000244693
4.76842e-05
1.59561e-05
-0.000137667
-0.000218471
1.57921e-05
0.000245701
0.000280748
0.0002933
0.000305904
1.71813e-06
0.000249817
-0.000220417
2.51749e-05
0.000225009
-0.000250184
-0.000243178
0.000268865
-2.56873e-05
2.28201e-05
-0.000262725
-0.00011446
0.000295941
9.08976e-06
2.08181e-05
0.000261675
-0.000235103
-2.65721e-05
1.31351e-05
-0.000303796
0.000290685
0.000321662
-3.09596e-05
-0.000290697
0.000249733
1.63241e-05
0.000306137
-0.000293082
-0.000230848
-0.000112595
9.63204e-06
0.000250657
-4.9129e-05
-0.00020239
0.000251519
2.20333e-05
0.000246832
-0.000241686
-2.29629e-05
0.000260737
-2.24001e-05
0.000287794
-0.000268023
2.63369e-05
2.68241e-05
-0.000257965
0.000210617
-0.000207677
2.58161e-05
-0.000262865
0.000279676
0.000121744
-0.000256173
0.000134429
1.86101e-05
3.83892e-05
0.000161544
-0.000199445
-0.000239485
-2.85377e-05
3.99583e-05
0.000162024
-0.000203289
-0.000246691
0.000271066
-2.43747e-05
0.000209866
-0.000248826
1.98857e-05
1.73051e-05
-0.000172758
-3.05205e-05
0.000226703
-0.000257413
-2.88401e-05
0.000244245
-0.000215405
-2.16161e-05
0.000242985
-0.000221369
0.000201657
-0.000250786
-0.000273663
-0.000232905
-2.55081e-05
0.000258413
0.000241234
2.98318e-05
-0.000208433
-2.46897e-05
0.0002344
-2.18821e-05
-0.000224967
-0.000239345
6.28042e-05
0.000259004
-0.000229718
4.75106e-05
-0.000249901
-3.43393e-05
0.000257694
-0.000223354
0.000205675
-0.000240014
0.000261689
-1.1956e-05
-6.06764e-05
-0.000229572
-0.000224867
-1.75534e-05
0.000242751
0.000247109
5.3175e-05
0.000212448
-0.000265623
-0.000261105
0.000177353
-0.000231757
5.44042e-05
6.38314e-05
0.000135892
0.000259457
-0.000240915
-2.47224e-05
-0.000265385
0.000227165
3.82201e-05
-2.87813e-05
-0.000222158
0.00025094
-0.000283843
0.000264161
0.000234501
3.61761e-05
2.18821e-05
0.000234087
-0.000307217
0.000151089
0.000156129
0.00016371
-5.12216e-05
0.000254045
-0.000115192
2.56901e-05
0.000217446
-0.000243136
-0.000286339
0.000286583
9.3358e-06
0.000257377
-0.000245953
0.000208937
3.70161e-05
0.000254832
0.000245064
-1.92961e-05
-0.000246815
-2.02161e-05
-0.000263019
2.0724e-05
-0.000269215
2.24001e-05
2.79601e-05
0.000220024
-0.000247984
0.000242481
-0.000274597
1.32721e-05
0.000247347
-1.38407e-05
1.21343e-05
-0.000249793
-0.000328618
0.000123997
-0.000233135
-2.62109e-05
-0.000252113
0.000252113
0.000259782
-0.000144217
-1.88576e-05
-0.000277685
0.000296565
0.000272884
0.000258749
-0.000135913
0.000224113
2.39205e-05
0.00023468
7.80783e-05
-0.000341144
3.77673e-05
0.000258962
1.76363e-05
-0.000248843
-3.00917e-05
0.000207453
-3.01001e-05
0.000259701
2.95429e-05
0.000218353
-0.000247896
-3.05014e-05
-4.09782e-05
-0.000217818
0.000258797
-0.000233423
-2.14173e-05
3.74329e-05
-0.000195201
0.000158211
-3.30877e-05
0.000221671
-0.000255943
-0.00028195
-8.47673e-06
0.000290382
-0.000190856
0.000163059
0.000166349
8.16763e-05
1.29139e-05
-0.000294836
0.000235075
2.59446e-05
-0.000261019
-0.000198245
-1.36308e-06
0.000232743
-0.000264287
3.15449e-05
-8.42803e-06
-0.000217029
0.000225457
-0.000159486
0.000196234
-0.000249985
-3.46025e-05
0.000256274
0.000218076
-0.000252679
-0.000246289
0.000272245
-2.59561e-05
0.000253547
2.78321e-05
-0.000232062
-2.95821e-05
-0.000298284
0.00031643
-1.82181e-05
2.33921e-05
0.000212462
-0.000250254
-0.000267233
2.09441e-05
-2.12801e-05
-0.000245953
-3.61481e-05
0.00024861
-0.000290015
-1.36671e-05
0.00022082
-0.000256968
0.000247853
-0.000251388
2.14673e-06
2.80002e-06
0.000181413
-0.000184213
0.000255294
0.000234529
2.67681e-05
-2.62361e-05
0.000245001
-0.000218765
3.36001e-05
0.000216609
-0.000250209
0.000244861
2.73841e-05
0.000306545
-0.000143949
-0.000162597
1.60154e-05
0.000238865
-0.000254825
0.000271013
-0.000113568
0.000225569
-0.000256677
-0.000241397
0.000104788
-0.000265469
7.16803e-06
-0.000241635
-2.75801e-05
-0.000241361
-2.48081e-05
0.000310526
-2.7412e-05
-7.67483e-05
0.000243097
-1.1452e-05
-0.000215601
0.000224281
-8.68003e-06
0.000255193
-7.68883e-05
3.42508e-05
-0.000195335
0.000162449
-0.000265245
-1.40001e-07
-4.14962e-05
3.91334e-05
0.000156149
-0.000195093
0.000196334
-0.000160881
0.000257041
-7.05603e-06
0.000251151
-0.000218277
-1.82408e-05
-2.1128e-05
0.00027191
-9.45635e-05
-0.000175109
-1.42801e-05
-0.000191913
0.000206193
0.000258665
-1.53553e-05
-0.00024331
1.98101e-05
0.000238855
-0.000279952
-7.96198e-06
3.74248e-05
-0.000198574
0.000158302
1.36921e-05
0.000247997
-0.00016686
0.00020162
-1.95189e-05
0.000248711
3.29623e-05
0.000187309
-0.000224064
-4.17202e-06
-2.49389e-05
0.000265108
-0.000231955
-3.14693e-05
0.000297108
-0.000281858
-1.5236e-05
1.63717e-05
-0.000237659
0.000221288
-0.00010514
0.000226885
1.9297e-05
-0.000305185
0.000285929
2.52001e-05
-2.79441e-05
2.69165e-05
0.000308958
-0.000289642
0.000238891
1.97345e-05
2.15601e-06
0.000231617
-0.000233773
-0.000310452
2.565e-05
0.000284777
-0.000162177
-0.000144145
0.000209178
-0.000250156
-0.000164861
0.000241924
1.90317e-05
0.000257236
-4.13534e-05
0.000250531
0.000214498
-0.000255851
0.0003185
-0.000319101
-1.08003e-05
0.000287751
-0.00027677
-0.000302626
1.96027e-05
0.000283231
4.20842e-05
-0.000286413
-3.8555e-05
0.000252483
2.62921e-05
-2.20857e-05
0.000307371
-0.000285235
2.43321e-05
3.93099e-05
0.000162038
-0.00019991
0.000249294
-0.000219751
2.83277e-05
-0.000261633
4.36802e-06
-1.99696e-05
0.000306555
-0.000286563
-0.000250987
-0.000266673
3.07441e-05
0.000252141
-0.000236741
-1.54001e-05
1.2264e-05
0.000239877
-0.00027504
-1.27734e-05
0.000255697
-6.76997e-06
0.000314451
-1.20113e-05
0.00029883
-0.000286575
-4.83994e-05
0.000247437
-0.000235621
0.000257601
-1.99361e-05
0.000130693
8.5861e-05
-0.000216391
0.000222987
3.03493e-05
0.000226759
-0.000258662
3.71393e-05
0.000271893
-0.000288864
1.69547e-05
0.000251273
-0.000239093
-1.31321e-05
0.000252225
-2.91201e-05
-0.000257265
2.56481e-05
0.000231617
-0.000228005
-2.92601e-05
0.000259765
-0.000233571
-2.61941e-05
0.000258721
-0.000266249
2.31713e-06
0.000289207
1.30164e-06
-0.000290138
0.000247761
-0.000231987
-1.85921e-05
0.000308812
-0.000300795
-8.01734e-06
0.000253532
-0.000103377
-0.000266897
2.56761e-05
0.000241221
-3.48881e-05
-0.000232009
-0.000266393
2.51161e-05
0.000241277
-1.22653e-05
-0.000267605
0.000280342
-3.45241e-05
-0.000231869
-0.000261873
1.87144e-05
-0.000266281
2.43881e-05
0.000241893
-0.000284023
-2.16448e-05
-0.000306393
2.76535e-05
0.000278594
-3.34041e-05
-0.000232877
-0.000166697
-0.000258133
2.94001e-05
0.000228733
0.000307231
-0.000308888
-0.000195805
0.000209049
-3.29281e-05
-0.000225205
0.000197394
-0.000278923
8.15662e-05
0.000283668
2.23284e-05
-0.000301953
1.76961e-05
0.000286702
-0.000281129
-4.93755e-06
-0.000257125
0.000231617
2.55081e-05
0.00017013
2.75699e-05
-0.000194356
-0.000266953
2.81681e-05
0.000238785
-0.000227361
-2.97641e-05
-3.67361e-05
-0.000230217
0.000276888
0.000297364
1.90898e-05
-0.000275965
-3.18387e-05
0.000307857
-0.000258679
-1.08023e-05
0.000297814
-0.000287342
1.49871e-05
-0.00030181
0.000286796
-0.000230609
-0.000307237
0.00028727
0.000263005
-2.55671e-05
-0.000280866
1.36081e-05
0.000167271
0.000231167
1.87291e-05
-0.00025163
-0.000196006
0.000161094
0.000236738
1.31517e-05
-0.00024989
-0.00025833
2.66093e-05
0.000231721
-1.09228e-05
0.000247661
5.74002e-06
0.000246877
-3.19817e-05
-0.000226348
0.000299463
-0.000285702
-1.38366e-05
0.000228024
-0.000226666
0.000289695
0.000237685
1.98521e-05
-0.000257537
-1.24236e-05
0.000250108
0.000246636
1.50389e-05
-0.000305439
1.53762e-05
0.00024448
2.18905e-05
3.39025e-05
-0.000210459
-0.000287416
-1.77377e-05
-0.000182869
0.000295177
-0.000147017
0.000185131
-3.2327e-05
3.03105e-05
-0.000205141
0.000171112
-0.000169117
0.000259149
-0.000239236
-1.99137e-05
0.000261493
-0.000273873
-0.000241346
0.000231275
-2.18797e-05
0.000301356
-0.000279497
0.000307889
-0.000292904
0.000242117
1.77241e-05
-0.000224975
0.00024443
-1.94545e-05
1.61001e-05
-0.000241075
-7.00003e-06
0.000260989
-0.000297223
4.90499e-06
0.000292332
-0.000174497
0.000160217
-1.74105e-05
-6.2989e-06
-0.000290914
-1.67975e-05
-0.000285042
4.28402e-06
-0.000299481
0.000134781
-0.000257455
2.36802e-05
0.0002337
0.000238197
1.32441e-05
-3.08188e-05
-0.000226615
-3.31167e-05
-0.000291934
2.02919e-05
-0.000227879
0.000209213
0.000254969
-0.000233465
-2.15041e-05
-0.000197271
0.000220772
-0.000186117
-7.48514e-06
0.00020472
0.000135816
0.000140727
3.91488e-06
0.000270537
0.000279994
-0.000305567
3.06386e-06
0.000242916
-1.98514e-05
0.000298739
-0.000278801
-0.000302158
0.000287416
1.47597e-05
-0.000258301
0.000230077
2.82241e-05
-2.64041e-05
-0.000231897
0.000301691
-0.00030165
0.000267576
-1.9985e-05
0.00030458
-0.000284524
0.000286977
-1.79944e-07
-0.000256873
0.000256873
-0.000268306
0.000295806
-0.000148056
-6.80904e-05
-7.13372e-06
0.000294376
-0.000286822
-0.000298011
0.000290966
0.000291748
-0.000279208
0.000290701
-0.000305752
1.44687e-05
3.49146e-05
-0.000238878
0.000215928
2.26038e-05
-1.4522e-05
-0.000245833
0.000228778
-1.445e-05
0.000298582
-0.000284206
0.000263481
-1.96001e-05
0.000254224
-0.000235464
-1.87601e-05
-3.10101e-05
-0.000273932
0.000304891
1.44014e-05
-0.000297194
0.000282869
-1.45881e-05
0.000233465
-0.000218877
0.000207769
-0.000295195
0.00028353
-1.92259e-05
0.000304592
-0.000285422
0.00025102
-2.68864e-05
0.000297282
-0.000270413
-0.000295728
0.000268786
1.07156e-05
0.000244749
-0.000255465
0.000305354
-0.000312179
6.82535e-06
1.79038e-05
1.48006e-05
0.00028637
-0.000301294
6.35078e-06
0.000283223
2.3615e-06
-0.000318466
-0.000290524
0.000305059
-0.000242481
0.000243657
8.45603e-06
-0.0002264
0.000242772
-0.000293478
0.000274205
0.000285014
-0.000145317
-8.1395e-05
0.000294464
1.44804e-05
3.13661e-05
-0.000193676
0.000163723
-0.000274591
0.000257293
-0.000219535
0.00024982
0.000243411
1.92865e-05
-0.000262697
0.000236019
2.31309e-05
-0.000300686
0.000282652
0.00031232
-1.7978e-05
0.000237945
-0.000257069
1.91241e-05
-0.000222494
0.000247459
0.000294215
1.80377e-05
-0.000163712
-1.45923e-05
0.00029827
-0.000283695
-0.000141641
-0.000266415
0.000159993
0.000106423
-0.000309126
0.000295479
1.36731e-05
-0.000258699
0.000241826
1.68729e-05
-0.000153841
0.000156823
-0.000306482
0.000288614
1.78745e-05
-0.000221062
0.00017899
-9.69084e-06
0.000253101
2.04806e-05
1.75683e-05
-0.000304315
0.000286714
-0.000300822
-7.15714e-06
0.000307939
-0.000249229
0.000220109
-0.000201153
-8.52603e-05
-0.000273352
0.00025067
0.000303887
-0.000286342
-0.000190368
1.80964e-05
1.50507e-05
0.000284475
-0.000299563
-8.80603e-05
0.000239233
-0.00030355
1.94345e-05
0.000284119
-0.000205643
-2.70319e-06
-0.000298035
-0.000165281
2.05297e-05
0.000302785
-0.000287868
-1.44171e-05
-0.000177884
-0.000299368
-0.000173557
-2.24624e-05
0.000243528
0.000289465
1.7166e-05
0.000252869
5.77793e-05
-0.000285606
-0.000247213
-0.000270408
-2.31871e-05
-0.000274657
0.000300298
-0.000262599
0.000282116
-0.000162261
-4.10858e-05
0.000203915
0.000197569
1.56521e-05
-0.000213221
-1.24719e-05
-0.000285641
0.000298178
1.83597e-05
1.853e-05
-0.000305423
0.000286846
0.000253345
-1.71361e-05
-0.000236209
1.89694e-05
-0.000304782
0.000285821
2.03561e-05
0.000232989
0.000216385
-2.46121e-05
-0.000191773
1.58e-05
0.000282658
-0.000298443
-0.000251559
0.000117963
-0.000303738
1.86444e-05
0.000285094
0.000224379
-5.10979e-05
-0.000296367
1.31008e-05
0.000281066
0.000255837
-2.19801e-05
-0.000233857
-0.000303038
0.000106515
0.000234529
1.70521e-05
-0.000251581
0.000280527
1.67823e-05
0.000304178
-0.000285231
1.78143e-05
-0.000299674
0.000233512
1.84916e-05
-0.000252004
-1.89961e-05
-1.42626e-05
0.000298355
-0.000284087
-0.000280038
0.000299746
-0.000277504
0.000292494
-0.000303703
1.21131e-05
0.000249741
-1.62291e-05
1.16965e-05
0.000250041
-1.55121e-05
0.000298706
-0.000282859
3.95922e-05