/*--------------------------------*- C++ -*----------------------------------*\
  =========                 |
  \\      /  F ield         | OpenFOAM: The Open Source CFD Toolbox
   \\    /   O peration     | Website:  https://openfoam.org
    \\  /    A nd           | Version:  12
     \\/     M anipulation  |
\*---------------------------------------------------------------------------*/
FoamFile
{
    format      ascii;
    class       volScalarField;
    location    "0.56";
    object      T;
}
// * * * * * * * * * * * * * * * * * * * * * * * * * * * * * * * * * * * * * //

dimensions      [0 0 0 1 0 0 0];

internalField   nonuniform List<scalar> 
22702
(
1
1
0.955336
1
1.01703
1
1.11992
1
1
0.869882
1.12043
1.12003
1
0.999992
0.967206
1
1
1
1.12006
1
1.08301
1
1.11109
0.871407
1
0.867279
1
1.11034
0.872019
0.872465
1
1.12007
1
1
1
1.08552
1
1.11115
1
1
0.869856
1
1.05838
1
1.11024
1
1
1
1
0.877091
1
0.873047
1
1.12045
1
1.12075
1
1
1
1
0.862344
1
1
0.866784
1
0.86662
1
1
1
0.86551
1
1.10941
1.06968
1
1.1086
1.11345
0.870058
1.1183
0.879593
1
1.1205
0.878651
1.11695
1.11633
1
1
1
1
0.980091
0.867151
1.11272
1
1
0.859318
1
1.08241
0.859417
1
1
1
1
1.05861
1.12039
0.867268
1
1
1.02032
1
0.878937
1
1.11825
1.12084
1
1
0.858494
0.861208
0.868381
1
1
1
1
1
0.974169
1
1.08532
1.01084
1.11201
1
1.11199
1.12039
1.00012
1.12088
1
0.865801
1
0.859394
1
1
1
1
1.1209
1
1
1
1
1.10773
1
1.00731
1
1
1
1
0.877168
1
1.00303
1
0.880117
1
1
1
1.11227
1
1.11043
0.859127
0.865258
1.10844
1.10931
1
1.02272
1.06608
1
1.1212
0.879627
1.0854
1
1
1
1
0.99999
1.10076
1
1.12066
0.864218
1.12096
1
0.87809
1
0.875995
0.865002
1
1
1
1.12024
1
1
1.10639
1
1.11823
1.12053
0.885283
1
1
0.878509
1.10795
1
1
1
1.10797
1
0.864559
1
1
1.11182
1.11053
1.11826
1
1
1
1
1
1.07453
1
0.865911
1.11247
1.10688
0.999999
1
1
1
0.876591
1.1182
1.05762
1
1.08302
0.863758
0.863341
1.08374
1.11906
1
1.11801
0.856203
1.08546
1
1
1
1
1.10658
1
1.06988
1.01285
1
1
1.10354
0.859481
0.921637
1
1.11771
0.866637
1.1178
1
1
1
1
1
1
1
0.877019
0.919775
0.861548
1.11644
1
1
1
1
1.09853
1
0.878059
1
0.874455
0.88
1.11543
0.866478
1.08292
1
1
1
0.999306
0.877002
0.861733
1
1
0.87163
1
1.12047
0.865485
1
1
1.12043
0.867519
1
1.11368
0.864876
1.10322
1
0.878278
0.999322
1
1
1
0.872121
1
1
1
1
0.997729
1.06889
1
0.872959
1
1
1
1
1
1
1
1.12052
1
1.12098
1
1
1
0.867257
1
1.10772
0.866988
1
1
1
1
1.12089
1
1
1
1.10999
1
1
1.11717
1.12047
1
1.01742
1
1
0.859088
1
1
1
0.860331
1
1
1
1
0.866222
1
1
1
1
1
0.856464
1.00002
1.10997
1
0.999998
1.10924
1.10852
1
1
0.888657
0.940571
1.12084
1
1
1
1.10256
0.864935
1
1.11039
1
1
0.889659
0.891124
1
0.873916
0.866666
1
1
1
1
1
1
1
1.11254
1.02089
1.11499
0.856948
0.965041
1.12125
1
1.108
1.12087
0.86186
0.926319
1
0.865433
1
1.12486
1
1
1
1
1.10742
1
1
1
1
1
1
1
1.03879
1.11187
1
1.11425
1
1
0.88011
1
1
1
1
1.10861
1.08245
1
1
0.874852
1.1067
1.11039
1
1.11108
1.10628
1.11195
1
0.944697
1
1.10111
0.986217
1.113
1
0.860705
0.99966
1.12028
1
1
1
1
0.878275
1.11766
1.08547
1
1
1.10213
1.12054
1
1.05948
0.999998
1
1
1.07662
1.00962
1.11193
0.977465
1.11114
1
1.11116
1.11578
1.1105
1.10646
1
1.11199
0.966438
0.957244
1
1
1
1
1.11391
1
1
1
1
1
1.12038
1
1
0.998916
1.10979
1.10851
1
1.10101
1.00001
1
1
1.10652
1
0.999032
1.00127
1
1.11583
1
1.11745
1
1
1.08096
1
1.11704
1.00001
1
1.11723
1
1.10906
1
1
1
1.10652
1
1.11873
1
1.107
1.12068
1.10343
1.11408
1
1.12093
1.11782
1
0.874499
1.09057
1.07811
1
1.10696
1
0.859097
0.864348
1
1
1
1
1
0.860124
1
1.11516
1.02515
1.10688
1
1
1
1
1
1.11639
1
1.11537
1.0654
0.929788
1
1
1.03696
1.03312
1
1
1.0427
1
0.883359
1.11442
1.11549
1
1
1
1.12075
1
1.00001
1
1.11698
0.976693
1
1
0.875501
1.0898
1
1
1
1
1
1.1095
1.12102
1
1.1162
1.11856
1.10349
1
1
1
1
0.865126
1.12084
1
1
1.08915
1.08964
1
1.08928
1.11203
1
1
1
1
1
1.11506
1
1
1
1
1.11407
1
1.11428
0.868931
1
0.856784
1
1
1
0.999149
0.87696
0.999721
1
1
1
1.01681
1
1
0.952502
1
1
1
1
1
1
1
0.999999
0.97393
1
1
0.999304
1
0.877904
1
1
1
1
1.08133
1
1
1
1
0.871338
1
1
1.08983
1.12063
1
1
1
0.956929
1
1
1
1
1
1
0.978432
0.9981
1.07997
1
1
1
1.11941
0.967356
1
1
1
1.11114
1.10873
1
1
1
1
1
1
1
1
1
0.866418
1
1
1.11956
0.864284
1
1.11931
1
0.87842
1
1
0.863679
1
1
1
1
1
1
1
1.09123
1.09082
1
1
1
1
1.08852
1
1.03205
0.87399
1
1
1
1
1
1
1
1.0035
1
1
1.0685
1
1
1
1.08418
1
1
1
1
0.868178
1
1
0.864884
0.867061
1
1
1.10153
1
0.991302
1
1
1
1.07688
0.859256
1
0.85622
1
0.916714
1
1
1
1.11939
1
1
1.09904
1
1
1
1.09899
1
1
1.10088
1
1
0.860781
1
1.03118
1
1
1.12126
1.1208
1.07451
1.08875
1
0.864408
1
1
1.09156
1
0.867516
1
1
1
1.09865
1
1
1
1
1.06663
1
1
1.11834
0.864357
1
1
0.865902
0.867732
1
1
1
1.07804
1.08228
1
1
1
1
1
1
1
1.04557
1.11606
0.99603
1
1.08472
0.865192
1
1
1
1.06202
1
1.01584
1
1.08964
1.09031
1
0.860136
1
1.12131
1
1
1.1079
1.09014
1
1.12144
1
0.8683
1
1
1
1.11794
1.09111
1.08928
1
1.11973
1.10072
1
1.09884
1
1.08947
1
0.866781
0.984779
0.86656
1
1
1
1
1
1.10354
1
1.10346
1
1
1
1.0891
1
0.868902
1.09977
1
0.877845
0.871694
0.866997
1
1.05564
1.00282
1.08802
1.10072
1
1
1
1
1.10431
1
1
1.10518
1.10099
1
1.03586
0.999712
1
0.999362
1.1125
0.950945
1
0.942362
0.883566
0.882422
0.98209
1.11038
1.08959
1.01867
1.0874
1.10101
1
1
1.11334
1.1203
1.09254
1.12045
1
1.09024
0.875733
1.11906
1.11854
1.12002
1.11924
0.949318
0.962169
0.973892
1.10095
0.979566
1.11875
1
1
1.08935
1.11863
1
0.863686
1.11893
1.10097
1
1.10381
1.10376
1
1.10364
0.875156
1.11984
1.11413
1.12111
1.12008
1
1
1
1.10097
1.07138
0.87806
1.09859
0.865352
1.10107
1
1
1
1
1.11855
1.09863
1
1
1.09865
0.86489
1.11894
0.879052
1
1.09005
1
0.870684
1.09777
0.90147
1
1.10041
1.09686
1.10175
1
1
1
1.09673
0.877195
1.09669
1
1.08365
0.957502
1.10214
0.864985
1
1.11824
0.884116
1.08924
0.876556
1
1.09858
1
1.11164
1
1.06701
1.0906
1.08411
0.858574
1
1.11861
1
1.08614
1
1.09591
1
1
1.11832
0.992108
1.09695
0.869755
0.999916
1
1.07731
1
1.11878
1.09575
1.11909
1
1.08953
1.11858
1.08901
1.06833
1.11586
1
1.0741
1
1.11839
1
1.01042
1
1.09129
1
1.08521
1.09068
1.0899
1
0.999866
0.864805
1
0.868671
1
1
1
1.11868
1
1.09477
1
1
1
1.09885
0.999994
0.999886
1.11855
1.11947
0.856385
1.11727
1.11854
1
0.999906
1.09541
0.999927
1
1.12136
1.12082
1
1.10631
1.11881
1.11855
1.09849
1
1
1
1.08503
0.863009
1
1.09378
1
1
0.861361
1
1
1.09409
1.11853
1
1.09635
1.00014
1.10807
0.984095
1.10685
1
1.10743
1.09259
1
1
1
1
1.11871
1.11856
1.09322
0.971699
1
1.10787
1.11863
1.10433
1
1.11863
1.11852
1.09268
1.10736
1
1.09248
1.10077
1.09494
1.11837
1.10682
1
1.11908
1.08993
1.09264
1.11884
1.11836
0.859716
1.10775
1.11854
1
1.08995
1.09283
1.09076
1.09102
1
1.09247
1.08827
1
1.10088
1.0879
1
1
1
1.11902
1.11831
1
1
1.0608
1
1.06765
1
1
1.10105
1.08171
1.11852
1.10107
1
1
1
1.07871
1
1.08811
1
1
1.11296
1.11436
1
1.09457
0.8638
1.10334
1.11927
0.90755
1
0.857914
1.0953
1.11952
1.08881
1.087
0.861621
1.11853
1.10078
0.860949
0.861234
1
1.08195
1.11865
1
1
1.0926
1
1.11836
1
1.08898
1
1.05429
1.11824
1.09725
1.07923
1.01369
1.11896
1.10437
1.00865
1
0.865184
1.05595
1.11874
1.1056
1
1
1
1.11984
1
1.11854
1.10352
0.906308
1
1.08864
0.999983
1
1
1
1.11879
1.10525
1
1
1
1.08673
1.09659
1.08634
1.11966
1.11811
0.873249
0.999854
1
1.0912
1.11851
1.11849
1.11914
1
1.09648
1.08889
1.09655
1
1.11855
1.11838
0.947876
1.09662
1.11874
1
1.08884
0.939945
1.11864
0.949477
1.09663
1
1.08777
1.1228
1.09535
1.09634
1.0876
1.1088
1.09658
1.11991
1
0.97315
1.11865
1.10937
0.943283
1.09523
0.988936
1.07767
1.11858
1.10835
1.1193
1
1.09684
1.07784
1.11781
0.967431
1.09677
1.12216
1
0.952061
1
1.00727
1
1.07648
1
1.00082
0.954759
1
1.08089
1.11752
1
1.11849
1.08776
1.11586
1.0935
1.09191
1
1.12049
1
1
1
0.961275
1.10766
1.11887
1.11955
1.0949
1.11732
1.12023
1.0012
1.09514
0.962618
1.001
1
1
1.12363
1.09477
1.09811
1.09921
1
1.06334
1
1.10618
1.10438
1
1
0.912776
1.09193
1
1
0.878104
1.09884
1
1.11755
1.08804
1.11915
1.09032
1.08722
1
0.85691
1.03044
1.11842
1.087
1
1.08266
1.09358
1.02658
1.00269
1.00246
1
1.11178
1.11685
1
1
0.860018
1
1
1.09523
1.09424
1.11904
1.08526
1.09833
1.12079
1.08807
1.07717
1.11451
1
0.999729
1.11847
1.08605
0.999708
1.09366
1.0928
0.857592
0.862945
1.08116
1.09892
1
1
1.00026
1.09078
1.11891
1.0991
1
1.09411
1
0.955502
1.1059
1.09943
1
1.03595
1.10595
1
1.11914
1
1.09299
0.999961
1.11952
1
1.11803
1.11417
0.859696
1.09257
1
1.11886
1.11589
1
0.859604
1.09699
0.999804
1
1.00051
1.0921
1
0.992382
1.11812
1
1.09082
1
1
1.11848
1
1.11886
1.09302
0.999007
1.09471
1
1.09243
1
1
1
1
1.09959
1
1
1.09281
1
1.08895
1
1.07117
1.098
1.11883
1
1
0.993177
1
1.11901
1.09312
1.11873
1.08966
1.11859
1.0894
1.0898
1
1.09279
1.08185
1
1.08944
1.09027
1
1.11908
0.971661
0.999997
1.09248
1.08824
1.10033
1
1.08844
1
1.1008
1.08914
1
1.08308
1
1
1
1
1.09299
0.865843
0.999402
1
1.0998
1.02063
1
1.09779
1
1.00156
0.870311
1.08832
0.999885
1
1.08809
0.999536
1.08856
1
0.999994
1
1.08648
1.11943
1.08717
1.11932
0.876223
1.1182
1.10191
1.1184
1.03122
1
1
1.04735
1.09869
0.860195
0.87499
1
1.1186
1.10091
1.08877
1
1
1.10263
1.08849
0.999966
1
1.00255
0.864894
1
0.999746
1.12023
1.03278
0.999996
1.10046
1.1082
1
0.99992
1
1.11902
1.11229
0.999704
1
1.11242
1
0.999829
1.11912
0.86883
1.10369
1.09833
0.999984
1
1.10277
1
1
1
1.10509
1
1
0.859169
1.09879
1
1
1
1
1.11681
1.06508
1
1
0.869427
1.08628
1.06719
1
1
1
1.08623
1.11523
1.11982
1
1
1.12039
1
1.10142
1.11857
1
1
1.08742
1.10172
1.10221
1
1
1.08841
1.10343
1
1
1
1.10332
1
1
1
1.11878
1.11985
1.09894
1
1.11724
1
0.898571
1.10378
1.10331
1
1.12053
1.00019
1.1187
1
1
1.10371
1
1.02405
1.10519
1
0.85878
1
1.08758
1
1
1.0968
1
1
1
0.999989
1.10499
0.891407
1
1.08718
1
1
1.11899
1
1.10358
1
1
1.0956
1.10374
1
1.00001
1
1
1
1
1
1
1.09723
1.09836
1
1.11743
0.866205
1.09938
1
1.11786
1.1204
1.0954
1.1155
1.1218
1
1
1.09988
1
1.06899
1.10279
1.10105
1
1.10141
1.11611
1
1.10632
1
1.11724
1.07411
1.10076
0.999874
0.999858
1.10013
1.10169
1.09758
1.00059
1.09898
1.09925
1
1.0979
1
1.11853
1
1
1
1
0.9996
1.09996
1.11849
1.09961
1
1.10537
1
1
1
0.853767
1
1.09968
1
1.08779
1.11236
1
1
1
1.07799
1.11283
1
1
1.11856
0.869268
1.01579
1
1.10349
1.10983
1.08792
1.09935
1.109
1
1.11803
1
1
1
1
1.11807
1.10081
1
1.11677
1.00986
1.11863
1.08689
1
1
1.08774
1
1
0.861225
1.08765
1
1
1.00947
1
1.09966
1.09562
1
1.09594
0.87155
1.11862
1.09516
1.08575
1
0.864632
1
1
1
1.11852
1.04815
1
1.09451
1.10722
1
1.09803
1
1
1
1
1.10782
0.999815
1
1.08699
1
1
1.11923
1.08443
1
1.10611
1.00402
1.00001
1
1.09513
1
1.09509
1
0.999769
1.10607
1
1.09521
1
1
1.03201
1.11792
1
1
1
1
1
1
0.861963
0.857635
1.00577
1
0.999791
1
1.00119
1
1.10673
1
1.07647
1
1.09667
1
1
1
1.09726
1
1.05549
1.1181
1
1.05863
1.09938
1
1
1.11857
1.09471
1
1
1.00746
0.860889
1
1.10089
1
1
1
1
1.02215
1.1185
1
1
1
0.86265
1
1.09605
1.11861
1.12118
1
1
1
1
1.02177
1.1218
1
1
1
1.11891
1.08274
1.00823
1
1
1
1.10615
1.08318
1
0.85965
1.11852
1.08613
1.11854
1.11859
1.11984
1
1
1.11763
1.11931
1.09851
0.866743
1.01193
1.10604
1
1
1
1
1
1.1074
0.873596
1
1
1.09852
1.05055
1
1.11829
1
1
1
0.870286
1
1
1.00612
1.11852
1.08377
1
1.11867
1.11808
1
1.01402
1
1.11762
1
1.10811
0.86909
1
1
1
1
1.09766
1
1
1
1
1.11661
1
1
1
1
1.1027
0.869204
1.09457
1.10095
1
1.08069
1
1
1
1
1
1.12011
1
0.930534
1
1
1.00001
1.08334
0.871656
1
1.09508
1
1.07286
1.08141
0.868266
1
1
1.07807
1
1
0.869546
1
1.11727
1
1.08652
0.999976
1.07984
1
1
1
1
1.12027
1
1
1.08034
1
1
1
1
1
1
1
1
1.07248
1
1.04134
1.10451
1
1
1
0.865663
1
1
1
1
1.08717
1.09869
1.01058
1
1
1.08675
1
1
1.11787
1
1
1
1
1
1
1.11843
0.92385
1.08279
1.08688
0.999176
1
1
1
1.06397
1
1
1.11908
1.09856
1
1
1
1
0.86902
1
1
1
1.07684
1
1.09513
1.09904
1
1.08796
1
1
1
1.06393
1
1.12084
1
1.08165
1
1
0.99889
1.08137
1
1
1
1
1
1.11268
1
1
0.862259
1.11385
0.865923
1
1.11973
1
0.998775
1
1.09894
1.11943
1
1.11975
0.956954
1.08324
1.12054
1.00001
1
1
0.865532
1
1
1
1.08687
1.06437
1.00173
1
1
1
1
0.999078
1.09385
1
0.869127
1
1
1
1
1
1
1
1.10651
1.09304
1.1192
1
1
0.999109
1
0.987131
1
1
1
0.86689
0.987105
1
0.870404
0.865868
1
1.08563
1.09847
1
1.09775
1.09872
0.867039
1.07972
1
1
1
0.870659
1.11891
1
0.869747
1
1.12041
1.01628
1
1
1
1
1.08188
1.11994
1
1
1.08502
1
1
1.11965
1.08633
1
1.11148
1.08514
1.11979
0.98061
1.11894
1.00229
0.867993
1.0834
1.0818
1
1
1
0.868207
1
0.862547
1.10372
0.981234
1.08176
0.979948
1
1.07918
1.05287
1
1
1.11895
1
1.04233
1.09245
1
1
1.10754
1.0012
0.862791
0.9999
0.999969
1
0.99991
1
1.11759
0.973347
1.10959
1.00505
1
1
1
1
0.999914
1
1
1.09129
0.999894
1.11796
1.09694
1.00002
0.873976
1
1
1
1
1.11848
1.00001
1.09516
1
1.11881
1.11902
1.01662
1.11709
1.03214
1.11886
1
1.07454
0.887549
0.999925
1.11365
1.09615
1.01767
1.11966
1.08197
1.09515
1.11825
1
0.965132
1.01917
1
1.11389
1.05834
1.11797
1.00001
1
1
0.894653
0.999984
1.11938
1.08777
1
1.04101
1
0.999899
0.999949
1
1.09511
1.11922
1
1
1
1.09505
1
1.04966
1.00423
1.07576
1
1.09999
1
1
1
1
1
1
1
1
1
1
0.890097
1
1.11058
0.86075
1.06563
0.999586
0.999964
1
1.05806
1
1.06967
1.10189
1
1.00051
1.12022
0.966071
1
0.99991
1.11481
0.972676
1
1.11878
1.1179
1.09908
1
1.10057
1.11902
1.09253
1
1.05092
1
1.00002
1.11849
1
1.11883
1.01982
1.09326
1
1
1.11957
1.0002
0.888126
1
1.1186
1.081
1.0863
1
1
1.1197
1.11935
0.999501
1
1.11007
0.999111
1.10732
1.00001
1
1
1
1
1.05052
1
1.09473
1.11868
1.08037
1.09208
1
1.00059
1
1
1.11959
1
1.0936
1
1
1
1
1
1
1.01601
1.05763
1
1
0.864152
1
1.09373
0.88744
1.12074
1
1.06646
0.99993
1.11846
1.07206
0.885874
1.05878
1.00001
1.10042
1.11871
1
1.06721
1.11787
1.09119
0.999545
1.11903
1.08447
0.86659
1
1
0.999292
1
1.11666
1
0.890412
1.09547
1
1
1.10925
1
1.11874
1
1.11897
1
0.887656
1
1
1.11921
1.00362
0.999919
1
0.999958
1.09904
1.11706
1
1
1.11522
1
0.916123
1
1
1
1.11911
1
1.09794
1.07217
0.999963
1
1.08207
0.999824
1
1
1
1
1
1
0.90107
1
1
1.08303
1
1.11999
0.999975
1
0.874464
0.872232
1
1.09198
1.02056
0.873172
0.872984
1
1.09519
1
1.11807
0.86457
1.00043
1
1
0.999859
1
1
1
0.999975
1.0484
1.09896
1
1
1.09934
1.06468
1
1.10558
0.999981
1.11165
1.0472
0.999926
1
1.07857
1
1.11645
1
1.10003
1.0944
0.999074
1.1182
0.999996
1
1
1
1
1
0.965212
1.11992
1.00001
1.00001
0.86836
0.999994
0.865018
0.853337
1
1.11553
1.11851
1.11796
1
1.1185
1
0.872088
1
1
1.09359
0.94232
1.09429
1
1.11906
1
0.98914
1.11846
1
1
1
1.11949
1
1.11115
0.863102
1
1
1.06449
1
1
1.058
1
1
1.11863
1
1
1
1
1
0.999908
1.0949
1
1.1189
1.09072
0.864992
1.0539
0.999956
1
1
1.09124
0.999724
1
1
1.09827
1.00063
1.08074
1
1.11377
0.879063
0.999978
0.9999
1
1.09513
1.00001
0.99996
1.10112
1.08312
1
1
1.09763
0.905353
0.868855
1
1.11307
1
1.11783
1
1.06799
1
1
1.08605
1.0713
0.870636
1
0.999512
1
1
1.0073
1.04024
1.09718
1
1.12
1
1
1
1
1
1
1.01921
0.867488
1
1
0.998096
1
1
1
1
1
1.11778
1
1
1.11851
1.09486
1.08813
1
1
1
0.941642
1.11996
1.07663
1
1
1
1
1.11846
1
1
1
1.11986
1
1
1.07759
1.12398
1.00385
0.916309
0.999973
1.07814
1.11853
1
1.05376
1
1
1
0.855034
1.00058
0.870116
1
0.866488
0.861183
1
0.862353
1
1
1
1.054
1
1.11248
1.11763
1.00038
1.05875
0.999877
0.868079
0.918368
0.958675
1
1.07973
1.11956
1.07967
1.09448
1.08899
0.95668
1
1.08873
1
1.11095
1
1
1
1.003
1
1
1
1.11906
1
0.86519
1
1.09659
0.864907
1
1
1.09405
1
1.08
0.999909
1
1
1.08699
1.11106
1
1.11088
1
1
1.00429
1
1.05395
1
1
0.862888
1
1
0.999975
1
1.066
1
1.00001
0.867419
1
1
0.872751
1.00031
1
1.11917
0.860994
1.11967
0.867008
1.11869
1
1
1
1
1
1
1
1
1
1
1
1.09027
1
1.08772
1.12014
0.869007
1
1
1
1
1
1
1.08622
1
1
0.872909
1
1
1.11947
1
1
1.04873
1.08825
0.869201
0.862478
0.889831
0.911163
1
1
0.869972
1.00014
1.10983
0.999104
1
1
1.11699
1
1
1
0.914735
1
1.04561
1
1
1.05041
1.10312
1
0.865209
1
1
1
0.999022
1
1.09295
1.09381
1
0.863296
1
1.06309
0.868283
1
0.96138
1
0.998809
0.860815
1
1
1
0.998851
0.867664
1
0.866042
0.999548
1.05896
1.10881
0.867117
0.87324
1
0.997265
1
0.999621
1
1.07936
1.08005
1
0.993184
1.11691
1.08229
1
1
1.09357
1
1
1
1
1.11737
1
1
1.00537
1
0.999593
0.893121
1
1
1
1
1
1.09005
1.00178
1
1
1
1
1
1
1
1
0.86744
1.01945
0.999602
1.12045
1.11564
1
1.00425
1.11685
1.02739
1
1
0.855241
1.10865
1
1.1199
1
1.10533
1.08432
0.870474
1
0.867785
0.999996
0.999908
1
0.86698
0.852511
1
1
1.08495
1
1
0.862578
1
1
1
1.04165
1
0.86999
1.11808
1
1
1
1
1.08546
1
1
0.999991
1.0912
1
1
1
1.0003
0.871092
1
1.11871
1.0916
1
1.08489
1
1.00001
1
1
1.10948
0.9963
1
0.869024
1.06914
1
1
0.999646
1
1
0.999905
1
1
1.00001
1
1.11924
1
1
1
1
1
1
1
1.04905
1
1.05423
1
1
1.09433
1
1
1
1.08361
0.999986
1.01371
1
0.999328
1
1
1
1
1.11993
1
1
1.11281
0.869455
1
1
1
1
1
1
1.08636
1
1
1.08458
1.11903
1
1
1
1.11882
1.09122
1
0.999923
1.07303
1
1
1
1
0.865653
1.00848
0.998887
0.998846
1
1
0.865054
1.11887
1
0.852676
1
1.09352
1.09268
0.869633
0.999831
1.09807
1.11897
1.1032
1
1
0.969516
0.999966
1.1003
0.85263
1
1
1
1.00025
1.1011
0.861547
0.999235
1
1.11856
0.861415
1
0.999943
0.869804
0.984882
0.999626
1
0.999957
1
1
1
1
1
1
1.00003
1.086
1
1
1.08915
1
1
1
1.09327
1
0.868098
1
1
1
1.04419
1
1
1
1
1
0.927846
1
0.862424
1
1.0971
1.00001
0.952109
0.952046
1
1.00145
1.05895
1
1
0.861805
1.09508
1.09758
1.09358
1
0.863824
0.871089
1
1.09453
1
1
1
1
1
1.00001
1
0.87643
1.06981
1
1
0.868775
0.987727
1
1
1
1
0.860822
1
0.881708
1
1
1.11688
1
1
0.869485
1
1.1165
1
0.867935
1
0.869621
1
1.0023
1.06643
1.11092
1
1
1.12042
1
1
1.02321
0.99907
1
0.999483
1
1.1026
1
0.871701
1
1.11975
0.999685
1
1
0.925592
1
0.999736
0.865912
1.09484
1.04492
1
1
0.955783
1
1
1
0.922919
1
1
1
1.08827
1
0.871411
1
1
1
1
0.866858
1.11416
1.11462
0.866274
1
1.0529
1
1
1.08422
1.11947
1.08831
0.8678
0.999367
1
1
1.09364
1
1
1
1
1.11924
1
1
1
1.1077
1
1
1.1008
0.859098
1
1
1
0.873671
1
1
1
0.999978
1
1
1
1
1
1
1.11984
1.11881
1.10919
1.11714
1.11849
1.09336
1
1.09408
1
1.11346
1.08006
1
0.999992
0.860455
1.08921
0.999972
1
1
1
1
0.994145
1
1.01977
1
1
1
0.941942
1.10119
1.11808
1.06914
1.1032
1
1
1
1.11892
1
1.00626
0.999163
0.857812
1
1.00001
1
1
1
1
1
1.10071
0.871156
1.10028
1.09484
0.998586
0.861226
1
1
1
1.10504
0.860283
1.09033
0.866487
1.11332
1.07091
0.87091
1.01349
1.00701
1
1.10069
0.932025
1
1
0.85985
1
0.857735
1
1.09393
1.0785
0.915809
1
1.11923
0.857819
1
0.869205
1
1.1149
1
1
1.11526
1
0.941219
1
0.999912
0.858523
1.11857
0.999852
1
0.864009
1
1
1
1
1.06844
1
1.0886
1
1
1.12229
1
1
1.11876
1
0.861678
1
0.874872
1
1
1
1
1
1.09228
1.07134
1.09707
1
1.08128
1.09218
0.862507
0.861815
1
1
1.08826
1
0.861221
1
0.989154
1
1
1.11848
1
0.999944
0.862209
1.12097
1
0.862458
1
1
1.08263
1.08575
1
1.00001
1
0.999985
1
1
0.853323
0.999834
0.861878
1
1
1
1.08605
1.11859
1.11978
1
1
0.854283
1
1
1
1
1
0.999999
1.08567
1.11585
0.856572
1.10323
1.09852
0.874769
1.11975
1.00001
0.883154
0.997176
1
1
1.10502
0.854938
1.06984
0.855217
1.09814
0.999259
0.863714
1.09958
1
1
1
1
1.08111
1.11995
0.869649
1
1.00001
0.869369
1.00001
1
0.870796
0.869159
1.07668
1.03275
0.99956
1.11638
1
0.999882
0.93918
0.868517
1.09453
1.12205
1
1.09728
1
1
1.11244
1
1.0919
1.11989
1
1
1
1
1.10738
1.08609
1.01311
1
1
1.03155
1.11296
1.11881
1
1.10775
1
1
1
1
1
0.86857
0.944461
0.866485
1
1
1.11872
1
1
1.10433
0.869384
1
1.11249
1.08576
1.09888
0.856815
1
0.854967
1
1
1.11959
1
1.11954
1.09113
1
0.854566
1
0.999993
1.07915
0.87042
1
1
1
0.923497
1
1
1.1215
1
0.866955
1.09656
1
1
1
1
1
1.08613
1.02832
1
1.11864
1
0.999958
1
0.999276
1
1.11872
1.11089
1.07428
1.10232
0.999999
1.11951
1
1.10707
1.11838
1.08519
1
1
0.86469
1.11921
1
1
1.11966
1.0971
0.999934
1
1.1184
1
1
1
1.11131
0.999966
1.0365
1.02771
1.10314
1.08037
0.884106
1
1
1
1
1
1.04484
1
1
1.10327
0.86656
0.999989
1
1.11563
1
1
1
1.11184
1.11988
0.968003
1
0.862527
1
0.997542
1.10074
1.09901
1.02232
1
1
1
0.863645
1
1
1.10091
1.0141
1
1
1
1
1
1
1
0.999983
1.11948
1
1
1
1
1
1.0794
1
1.06057
1
1
1.09772
1.10404
0.869241
0.999653
1
1
1
0.869037
1.11924
1.085
1
1
1
1
1
1
1
1
1.11893
1.11735
0.872211
1.01439
0.875342
1
0.872405
1
1.11856
1.02988
1
1
0.89611
1
1.0988
0.933222
0.999022
0.863609
1
1
1.11903
1
0.999201
0.862134
1.11995
1.119
1
1
1
1
1.08595
1
1
1.08114
1
1.11899
1.00002
1
1
0.859153
1
1
1.11858
0.867844
0.916495
0.87222
1.11863
0.999815
1
1
0.869549
0.868225
0.998241
1
1
1.11997
1
0.999999
1
1
1.11973
0.871272
1
1
1.00004
1.11904
1.00004
1.11547
1
1
1
1
0.899457
1
0.925082
1
1
1.11379
0.860125
1
0.923474
0.935681
1
1
1.11884
1
1
1
1.11089
1.08337
1
1.11886
1.12023
0.926182
1.09807
1.11545
1
1
1.11947
1
1
1
1
1
1.12089
1.09699
1
1
1
1.11858
1.00006
1
0.870611
0.896812
1
1.00001
1.04633
1
1
0.960834
0.870773
1
1
1
1.1038
1.09117
1.09155
1
1
1
1
0.86077
1
1.11354
1
1.05169
0.857381
1.11824
1
1
1
0.853584
1
1.11908
1
1
0.870226
1.04035
1
0.999902
1.1234
0.869371
0.866269
1
1.1196
0.873798
0.869691
1
0.864947
1
1
1
1
0.852339
1
1
1
1
1.11906
1
1.08351
0.862384
1
1
1
0.86912
1.10165
1
1
0.999068
1.02775
1
1.09922
1.11947
1
1
0.901435
0.868319
1
1
0.869413
1.03413
1.05712
1
1
1.1201
0.999247
1
0.999326
1.12063
1
1
1
1
1
1
1.11844
1
1.04524
1.00014
0.886219
1.09368
1
1.08268
1.11876
1
1
1
0.968706
0.86037
1
1.06514
1
0.999883
1
1
1
1
1
1.00202
0.99976
1.08489
1.10547
1
1.09387
1
0.868842
1
0.99979
0.999938
1
0.853819
1
0.864416
1
1.09965
1.11995
0.859255
1.105
0.854168
0.998907
1.00076
0.860144
1.08712
1
1
0.99955
1
1
1
1.00002
1
0.860966
1
1
1
1
1
1.10404
0.929408
1
1
1
1.01071
1
1
1
1.07099
0.906747
1
1
1
1.00745
1.11947
1
0.861455
1
1.08583
0.964963
0.8624
1
0.872885
1
1
1.09131
0.999494
1.11157
1
1.00247
1
1
1.11861
1
1
1
1
0.999798
1
1.09046
1.08405
1.11943
0.86289
1.09375
0.999193
1.08816
1
1
0.853645
1
1
0.866197
1.11891
1
1
1
1
1
1
0.86136
0.858466
1
1.12053
1
1.05279
1.1073
0.862802
1.09985
1
1
0.874711
1
1
1.095
1.07964
1.03965
1
1
1.00057
1.11967
0.86225
0.866276
1.11959
1.09963
1.08282
1.05096
1
0.957523
1
1
1
1.10946
1.11977
1.11867
1
1
1.11829
0.867334
1.10879
0.867045
1
0.865391
1
0.861162
1.11746
0.872714
1
0.98737
0.893326
1
1
1
0.9473
1.00841
1.10941
1.119
1.1193
1
1
1.12033
1
1
1.11834
1
0.853682
1
0.857821
1
1.11989
1
1
0.997474
1.08317
1
0.999629
0.866409
1.08545
1
0.864161
1.02492
1
1
1.09259
1.11838
1.11874
1
1.08036
1.03056
1
0.999572
1.09883
1
1
1
1
1.10798
1
0.865334
1.11903
0.865427
0.861846
0.943528
1.08281
1.00173
1.02442
1
1.12019
0.99931
1.00001
1.11501
1.12036
1
1.11891
1
1.11081
1
1.11987
1
1.00001
0.999996
1.11931
0.863853
0.867333
0.999388
1
1
1
0.857123
1
1.07402
1
0.866242
1
1.04267
1.09975
1.11961
1
1
1
0.999838
1
1.11986
1.08876
1
1.04645
1.11899
0.946378
1.08792
1.00008
0.859083
1.02935
0.854972
1
1
1.02229
1.12052
1
1
1.0045
1
1
0.859962
1
0.916527
1
1.09136
1
1
0.859595
1.02946
1.01085
0.999982
1.11821
1.09762
0.917097
0.999446
0.856336
0.853364
0.86392
1
1
1
0.999744
0.896184
0.873532
1
1.09853
0.999927
1.09644
1.10785
1.11997
1.0793
1
0.860701
1.11858
0.882594
1
1.09936
1.11855
0.999021
0.93557
1.10021
1.09124
1
0.86619
1
1
1.1184
1
1.00712
1.11849
1
0.866013
0.862886
1
1
0.872976
0.861966
1.10917
1.00002
1
0.856012
0.856956
1.11916
1.11366
1.09565
1.11971
1.02981
0.992462
1.04038
1.11888
1.09271
1
1.06623
1
0.858257
0.952244
1
0.861979
1.09218
1.00641
1.09388
1
1.11266
1.11964
1
1.11885
1.09472
0.869017
1.10129
1
1.12253
1
0.915331
0.863103
1.11894
1
1
1
0.865887
1.11874
1.08522
1
0.867826
1
1
0.866434
1
0.864452
1.11953
1
0.935074
0.858365
1
1
1.07012
1
1
1
1.02206
0.867706
1
1
1
1.11901
0.86984
1
1.11734
0.864959
0.85439
1
1
1.11909
1
1.00886
1
1.10533
0.8753
1
1
0.868328
0.93486
0.857891
1
1
1
1
1.11788
0.853643
1
0.866502
1
1.10949
1
1
0.96573
1
1
0.940155
0.999914
1.00001
1
0.868579
0.868551
1
1
1
1
0.926494
1.08599
1.11959
1
0.86529
0.864004
0.965924
0.867887
1
0.938726
1
0.857141
0.989565
1
1
0.873651
1
1.10009
1.11495
0.867103
1
1
1
1.11761
1
1.00178
0.941886
1.04125
0.864713
1.04961
0.862339
1
1
0.898241
0.966768
1
1.00425
1
1
0.857634
1
0.973396
1.00345
0.866658
1
1.09853
0.909645
0.956484
1
1
1
0.872986
1
0.864966
0.867314
1
0.950091
0.862592
1.01278
0.906336
0.857668
1.11306
1
1.09721
1.06833
0.905433
1.09675
0.861427
0.999716
1.11927
1
1
1.10062
1
0.906713
1
1.01099
1
1
1.1036
1
0.922039
0.938885
1.12022
0.973466
1
0.916295
1.11612
1.11906
0.966581
1
1.11435
1.0335
0.94846
1
0.992115
1
0.87258
1.05612
0.914324
0.913496
1
1
0.869431
1.09895
0.979104
0.871991
0.860412
0.950603
1
0.994211
1.11975
1.11172
1
1
1
0.868178
1.05249
0.999995
1.04195
1.11362
0.862953
1
1.02032
0.956121
1.07389
1.10813
1
1.00131
1
1.00002
0.85628
0.947121
1
1
0.934523
0.857365
1.0014
1
1
0.85071
1.04608
1
1.11442
1
1.0029
1.06811
1
1.11558
1
1
1.1187
1
0.865849
1.11984
0.888442
1.03524
1
0.866816
0.999977
1
1
1
0.930419
1.00783
0.872616
1.08873
1.11991
0.860528
1
1
1
1
1
0.980673
0.857378
1.00664
0.873434
0.865173
1.01418
1
0.999944
1.03251
1
1
0.874278
0.990528
1
1
1.03446
1
1.11916
1
1.11977
1.02018
0.998694
0.864822
1
1
0.866269
1
1
1
1
1.03115
1.0123
1
1
0.870242
1
1
1
1.07341
1
0.867267
1.09712
1
1
1
1.11848
0.867352
0.956044
0.860838
1.08255
1.11876
1
1
1.10168
1
0.859285
1
1
1
1
1
0.920724
1
1.11885
1
1
1.0419
1.11913
0.878974
0.954011
1
1.09725
1
1
1
1
1
1.11521
1.11969
0.858282
1.08813
0.866449
1
1
1.09821
1
1.11978
0.995314
1.00788
1.01114
1.10716
0.999815
1.0748
0.867031
1
0.865559
0.987774
1
1.11742
1
1
0.864307
1.11834
1
1.11932
1
1
1
1
1
1
0.872629
1.11942
0.943715
1.11713
1
0.86341
0.877278
0.90164
1.12039
1.09131
0.979913
1
0.924051
1
1.04219
1
1.1085
0.863238
0.869588
0.951852
1
1.11856
1
1.0138
0.874682
1
1.12034
1.10367
0.999685
1
1.11875
0.863391
1.119
1.09375
1.11857
0.870687
1.01887
1
1
0.867995
1
0.930406
0.941731
1
1
1.11079
1
1.10946
1.01282
1
1.00453
1.12118
1
0.864088
1
0.921266
1
1
1.08404
1
0.930632
1
0.876921
1.01074
0.976362
0.857391
1.09714
1.09838
1.12002
0.872734
0.893628
0.998828
1
1
0.887462
1.09161
0.868228
0.999991
1
1.09391
1.11927
0.962696
1
0.864618
0.891163
1.07619
0.987281
0.868571
1
0.866488
1.02496
0.871201
1
1.00002
0.930301
1.11995
1.11886
0.942364
0.999886
1
1
0.897736
1
0.87221
1
0.857995
0.867092
1
1
1
0.874431
1.09397
1
1
1.00002
1.00001
0.860292
1.11903
1.10093
1
0.873108
1.12024
1
1.01996
1
1
1.11896
0.868215
1
1
0.860844
0.910838
0.872315
0.857663
1
0.88879
0.999185
1.02043
0.867155
1
1
1.03641
1
1.09301
1
1
1.08384
0.882155
1
0.863775
1.03307
1.11846
1
1
0.869627
0.860751
0.866472
0.900893
0.858972
1.08066
0.999834
1
1
1
1
1.11902
0.862046
1
0.974244
1
0.999642
0.999984
0.914726
1.03049
1
1.09805
1.11855
1
1
1.10243
1.00001
1
1.10223
0.865923
1.11783
1
0.860438
1.11864
1.00001
1
0.935718
1
0.867222
1
1.11958
1
1
1.09943
1
1
1.11912
1
1
1
1.12035
1
0.906223
0.904286
1
0.867206
1.09232
1
1
0.98685
1
1.10565
1.06435
1.08329
1
1
0.885413
1
0.861011
1.07525
1.11984
1.11922
1
1.11965
0.864877
1
0.864229
1.08563
1.10888
1.11937
1.11856
0.915435
0.864161
1
1.00741
1.11931
1.11935
1.09756
0.916228
1.03422
1
1.08315
0.917184
1
1
1
1.00001
0.962088
1
1.11833
1
1
1
1
1
1
1.00002
1.10058
1
1.10121
1.08044
0.863953
1.11998
1.00026
1.05428
1
1.09512
1
0.866441
1
1
1
1
1.08958
1
0.867878
1.09968
0.862088
1.11839
1.08563
1.05834
1
1.02552
1.05275
0.998929
0.859049
0.922688
1
1
0.969922
1
0.857124
1.119
0.856404
0.970856
0.950772
1
1
1
1.0039
1
1
0.858862
0.999019
1.11994
1
1.09316
1
0.871856
1
1
1.08964
1.08988
0.867837
1
1.11949
1
0.935171
0.867619
1.11902
1.09236
1
1.02186
1.11871
0.999994
1
1.0455
1.09117
1.09725
0.998843
1
1
1.08978
1
1
1
1.09419
1
1
1
1.11846
1
1
0.876099
1
1
1
1.11909
1
1
0.945462
1.03369
1.09512
0.916698
1
1.11844
1
1.04455
1
1.11948
0.999931
1.10088
1
0.865535
1
1.0885
1
1
1.09368
1
1.11859
1
1.11844
0.886742
0.870774
1.11955
1
1.10199
1
1.11966
1
1
1.00001
1.11895
1.08247
1.02544
1.11856
1
0.858256
1.11874
0.949458
1
1.04086
1
1.10746
1
1.09292
1.11962
1
0.868763
1
1.10436
1
0.998792
1
1
0.999436
0.912483
1.09239
1
1.10813
1
0.952541
0.86607
1.09187
1.10319
0.88756
1
1.1191
1.12015
1.11938
0.893073
1.10312
0.876628
1.11909
1.11687
1
1
1.10988
1
1
1
1
0.869943
1
1
1.1198
1.10361
1
1.08715
1
1.12075
1.12011
1
1.0893
1
0.869947
1.09456
1.08974
1.02979
0.868348
1.09645
1
1
0.866133
1
1
1.10929
1
1
0.928545
1
1.11861
1.00002
1.04461
0.867506
1.12009
1
1.11859
1.09413
0.961526
1
1.00466
0.917765
1.1192
1.07688
1.11083
1.1183
0.999215
1.11941
1.11851
1.10096
1.11197
0.999663
1
0.857382
1
1.11989
0.933431
1.09482
1
1.09405
1
1
1
1
1
1.09365
0.864764
0.875408
1.11897
1.1175
1
1
1
1
1
1.09179
1.11127
1.10099
1.00018
1
1
1
1
1.09336
1.10818
1
1.11967
1.11917
0.867274
1.07598
1
1.08537
1.10428
1.08405
0.999388
1.09323
1.11888
1
1.11321
1
1
1
1
1
1
1.11867
1.11991
1.09364
1.1008
0.868105
0.895
1.09833
1.10088
1
0.855008
0.97354
1
1.0519
0.863609
1
0.999843
0.999507
0.870801
1
1.11846
1
1
1
1.11966
0.980185
1
1.11764
1.11129
1
1.11878
1
1
1.09678
1
0.857521
1
1.11835
1
1
0.870002
1
1.09875
1
0.87002
0.857473
1
1.04551
1
0.865995
0.957884
1
1.10152
1
1
1
1.10382
1
0.864205
1.01835
1.11891
1.08469
1.11835
1.01217
1.09301
1.11666
1
1
1
1
1
1.10114
1
0.999797
1.08837
1
0.865227
1
1.10133
1.05253
1.01001
1.05168
1.01098
1.1206
0.899233
1.10099
1
0.872057
1
1.10093
0.976746
1.10082
1.11077
1.11851
1
1.11916
1.10135
1.10062
1
1.00001
1
1
1.119
1.07901
1
1
0.866386
1
1
1.11865
1
1.10031
1.11866
1.11883
0.967403
1.11869
1.11126
0.99648
0.999792
1.1195
1.11109
1
1.0863
0.93884
1.11617
0.986135
1.11117
1
1.09717
1.11883
1
0.866976
0.974294
0.891172
1
1.01104
1
1.11836
1
1
0.999066
1
1.05398
1.11254
1
1
1.09238
1
1
1.07823
1.0742
1.09401
1.1191
1.11885
1
1.11905
0.909763
1.11884
1
0.989924
0.864108
1
1
0.917323
1
1.03229
1
1.09897
1
1.09385
1.07037
0.868977
1
1
1
1
1
1.11864
1.00325
1
1.11744
1
1.11843
1.09605
1
1
0.980627
1
0.868543
0.861441
0.899312
1.02627
1
1
0.882641
1.00001
1
1.10789
0.977548
1.09232
1.10287
1
1
1
1
1
1.11864
1.09876
1
1.11915
1
1.11983
1.07619
0.998776
1
1
1
1.06423
1
0.973385
1
1.05837
1
1
1.09736
1
1
1
1
1
1.09324
0.868263
0.998902
1.09006
1.09981
1
1.09706
1
1
1
1
0.896144
1
1.11874
1.08277
1.11795
1.12029
0.978737
1
1.08789
1.03216
1.11991
1.11186
1.01599
1.11902
1
1
1
1.08411
1
1.10099
1.00387
1.06971
1.09309
0.865349
1.00001
1.11739
1
1
1.00008
1.00001
1.11826
1.11867
1
1.11805
1
1
1.09647
1
1.00001
1.11897
1.01017
1
0.999776
1.09261
1
1.12078
1.09991
1
1
1
0.961665
1.08388
1
1.09344
1
1
1
1
1.09585
1
1
1
1
1.09809
1
1.08826
1.11852
0.978154
1
0.864844
1
1.09774
1.06927
1
1
1
1
1
1.11864
1.07558
1
1
1
1.11013
1.11969
1.09981
1.11225