/*--------------------------------*- C++ -*----------------------------------*\
  =========                 |
  \\      /  F ield         | OpenFOAM: The Open Source CFD Toolbox
   \\    /   O peration     | Website:  https://openfoam.org
    \\  /    A nd           | Version:  12
     \\/     M anipulation  |
\*---------------------------------------------------------------------------*/
FoamFile
{
    format      ascii;
    class       surfaceScalarField;
    location    "6";
    object      phi;
}
// * * * * * * * * * * * * * * * * * * * * * * * * * * * * * * * * * * * * * //

dimensions      [1 0 -1 0 0 0 0];

internalField   nonuniform List<scalar> 
3510
(
0.0135334
2.21177e-16
0.0135334
-1.10155e-16
0.0135334
-6.01949e-16
0.0135334
-1.13624e-16
0.0135334
3.24393e-16
0.0135334
2.23779e-16
0.0135334
3.09648e-16
0.0135334
8.23994e-17
0.0135334
-5.9848e-17
0.0135334
-3.21791e-16
0.0135334
3.53884e-16
0.0135334
1.5786e-16
0.0135334
9.45424e-17
0.0135334
1.12757e-17
0.0135334
-8.58688e-17
0.0135334
-3.97252e-16
0.0135334
3.1572e-16
0.0135334
-4.90927e-16
0.0135334
-2.34709e-13
0.0135334
-4.31016e-11
0.0135334
-4.65163e-09
0.0135337
-3.79748e-07
0.013543
-1.08161e-05
0.0137409
-0.000225248
0.0149934
-0.00135152
0.0195747
-0.00445129
0.0253711
-0.00560824
0.030034
-0.0044487
0.0313205
-0.00123865
0.0309998
0.000183989
0.0298536
0.000920325
0.0294537
0.000365758
0.0295307
6.17476e-05
0.0297717
-2.22361e-05
0.0300103
-3.46153e-05
0.0301052
-8.3792e-06
0.0301067
1.85169e-05
0.0300951
4.4612e-07
0.0300932
-2.16766e-05
0.0300915
-5.68556e-05
0.0300538
-6.98542e-05
0.0300251
-2.50592e-05
0.030025
-7.06219e-06
0.0300776
-1.31582e-05
0.030158
-2.03387e-05
0.0301795
-2.03791e-05
0.0301752
-1.18611e-05
0.0301452
5.59405e-06
0.0301035
1.59629e-05
0.030081
9.23753e-06
0.0300783
4.69606e-06
0.0300809
4.59392e-07
0.0300867
-1.31877e-06
0.030102
-3.96589e-06
0.030132
-1.23648e-05
0.0301385
-1.82319e-05
0.0301382
-1.71869e-05
0.0301262
-1.33674e-05
0.0301205
-6.71596e-06
-4.60537e-07
0.0135334
-4.25007e-17
0.0135334
-1.25767e-16
0.0135334
-8.45678e-16
0.0135334
-5.84602e-16
0.0135334
-4.54498e-16
0.0135334
-2.81025e-16
0.0135334
1.73472e-18
0.0135334
2.09034e-16
0.0135334
5.6205e-16
0.0135334
3.36536e-16
0.0135334
3.79904e-16
0.0135334
-6.06286e-16
0.0135334
-8.13585e-16
0.0135334
-1.83013e-16
0.0135334
1.30104e-16
0.0135334
3.38271e-17
0.0135334
-1.22471e-15
0.0135334
-2.07098e-13
0.0135334
-3.46598e-11
0.0135334
-4.08045e-09
0.0135336
-2.59283e-07
0.0135435
-1.11287e-05
0.013702
-0.000183944
0.0149126
-0.00157443
0.0177018
-0.00423945
0.0203218
-0.00705002
0.0225762
-0.00775279
0.0251937
-0.00709432
0.028139
-0.00410498
0.0295268
-0.00136124
0.0295951
0.000669077
0.0297096
0.00016796
0.0297973
-3.39005e-05
0.0299145
-4.33301e-05
0.0301416
-7.89191e-05
0.0301855
-6.71534e-06
0.0301636
4.5037e-05
0.0301114
1.75396e-05
0.0300733
-5.90335e-05
0.0300649
-0.000111137
0.030064
-0.000108929
0.0300647
-4.40819e-05
0.0300963
-1.69991e-06
0.0301349
-1.47202e-06
0.0301719
-1.84926e-05
0.030183
-2.02951e-05
0.0301799
-9.81995e-06
0.0301557
1.57541e-05
0.0301169
2.89684e-05
0.030095
1.62046e-05
0.0300946
6.08202e-06
0.0300975
1.87335e-07
0.030102
-1.32777e-06
0.030113
-3.20877e-06
0.0301347
-1.47217e-05
0.0301429
-2.75387e-05
0.0301429
-2.84257e-05
0.0301383
-2.35571e-05
0.0301314
-1.62468e-05
-3.34385e-06
0.0135334
-3.20924e-17
0.0135334
-1.45717e-16
0.0135334
-4.48426e-16
0.0135334
-1.10155e-15
0.0135334
-1.18742e-15
0.0135334
-1.19002e-15
0.0135334
-1.15619e-15
0.0135334
7.45931e-17
0.0135334
9.03791e-16
0.0135334
6.4445e-16
0.0135334
5.89806e-17
0.0135334
-1.14925e-15
0.0135334
-1.22385e-15
0.0135334
-2.45463e-16
0.0135334
5.91541e-16
0.0135334
-3.71231e-16
0.0135334
-1.28193e-13
0.0135334
-1.41045e-11
0.0135334
-1.6066e-09
0.0135335
-1.29426e-07
0.0135392
-5.35907e-06
0.0136631
-0.000125559
0.01476
-0.00127571
0.0173844
-0.00459194
0.0201304
-0.00674429
0.020716
-0.00757604
0.0207033
-0.00784407
0.021742
-0.00826863
0.0252211
-0.00765297
0.0289686
-0.00514392
0.0301597
-0.000786919
0.03031
-0.000157483
0.0301272
7.04585e-05
0.0301222
8.38459e-05
0.0302648
-9.26763e-05
0.0302729
2.14879e-05
0.0302593
6.66519e-05
0.0301854
1.583e-05
0.0301001
-9.20708e-05
0.0300935
-0.000143787
0.0300926
-0.000132535
0.0301146
-5.32286e-05
0.0301702
3.0866e-05
0.0301804
3.44987e-05
0.0301848
7.74921e-06
0.0301852
-1.18789e-05
0.0301826
-2.44667e-07
0.03017
2.25621e-05
0.0301385
3.61931e-05
0.0301152
2.17638e-05
0.0301129
1.08058e-05
0.0301131
6.55077e-06
0.0301149
5.31726e-06
0.0301204
4.58172e-06
0.0301347
-1.07685e-05
0.030144
-3.02645e-05
0.0301453
-3.65025e-05
0.0301452
-3.26171e-05
0.0301421
-2.28228e-05
-6.51673e-06
0.0135334
5.81132e-17
0.0135334
-5.81132e-16
0.0135334
-1.11022e-16
0.0135334
-6.72205e-16
0.0135334
-1.21517e-15
0.0135334
-1.29237e-15
0.0135334
-1.94809e-15
0.0135334
-1.69396e-15
0.0135334
1.73472e-16
0.0135334
6.16694e-16
0.0135334
-7.89299e-17
0.0135334
-8.58688e-16
0.0135334
-8.39606e-16
0.0135334
-2.07299e-16
0.0135334
-9.19403e-17
0.0135334
-2.75309e-14
0.0135334
-4.01351e-12
0.0135334
-4.81406e-10
0.0135334
-4.71578e-08
0.0135362
-2.42719e-06
0.0136038
-6.30329e-05
0.014356
-0.000754604
0.0172523
-0.00403168
0.0196344
-0.00732499
0.0207949
-0.00766316
0.0208699
-0.00766925
0.0206387
-0.00779884
0.0205463
-0.00824116
0.0213889
-0.00844482
0.0242403
-0.00790417
0.0283827
-0.00491427
0.0299144
-0.00187973
0.0299124
9.80117e-05
0.030247
-0.000165226
0.0303393
-0.000117675
0.0302831
7.1452e-05
0.0302389
6.67667e-05
0.0301648
-2.06179e-05
0.0300819
-0.000112321
0.0300802
-0.000149284
0.0300936
-0.000147707
0.0301614
-5.24631e-05
0.0302107
5.61625e-05
0.0302118
6.07562e-05
0.0302016
3.19793e-05
0.0301679
7.57838e-06
0.0301657
1.1978e-05
0.0301641
2.79315e-05
0.0301458
3.78366e-05
0.030128
2.61788e-05
0.0301258
1.77966e-05
0.030126
1.58227e-05
0.0301265
1.53423e-05
0.0301268
1.47679e-05
0.0301275
4.53041e-06
0.0301396
-1.85902e-05
0.0301435
-3.93781e-05
0.0301442
-4.06097e-05
0.030142
-3.0929e-05
-1.11461e-05
0.0135334
-8.84709e-17
0.0135334
-5.66387e-16
0.0135334
-8.67362e-18
0.0135334
-3.08781e-16
0.0135334
-9.05526e-16
0.0135334
-1.33921e-15
0.0135334
-1.99493e-15
0.0135334
-1.88044e-15
0.0135334
-1.60115e-15
0.0135334
-3.03577e-16
0.0135334
-1.30104e-16
0.0135334
-4.75314e-16
0.0135334
-2.44596e-16
0.0135334
-2.01228e-16
0.0135334
-5.26575e-15
0.0135334
-5.19014e-13
0.0135334
-1.30246e-10
0.0135334
-1.71745e-08
0.0135347
-1.26303e-06
0.0135734
-3.90083e-05
0.0140289
-0.000488121
0.0164236
-0.0027226
0.0194595
-0.00695502
0.0204753
-0.00837981
0.0207539
-0.00795404
0.0207707
-0.00775341
0.0206068
-0.00780977
0.0205164
-0.00816991
0.0206588
-0.00841746
0.0213538
-0.00836078
0.0242954
-0.00769873
0.0279866
-0.00553508
0.029723
-0.00146694
0.0303229
-0.000607922
0.0302802
5.17129e-06
0.0301836
0.000176538
0.0302073
-3.02638e-05
0.0300934
-3.39892e-05
0.0299855
-7.97138e-05
0.0299863
-0.00013528
0.0300646
-0.000170713
0.0301649
-7.86605e-05
0.0301913
5.02348e-05
0.0301909
7.42234e-05
0.0301694
6.59537e-05
0.0301279
2.21113e-05
0.030123
3.83752e-06
0.0301238
1.39877e-05
0.0301153
3.01269e-05
0.030111
2.82085e-05
0.0301121
2.21896e-05
0.0301107
2.19488e-05
0.0301092
2.2289e-05
0.0301054
2.13181e-05
0.030101
1.0086e-05
0.0301053
-1.36663e-05
0.0301197
-3.41559e-05
0.0301249
-4.08615e-05
0.0301253
-3.36673e-05
-1.54684e-05
0.0135334
-9.45424e-17
0.0135334
-7.80626e-18
0.0135334
1.27502e-16
0.0135334
-6.15827e-17
0.0135334
-2.19443e-16
0.0135334
-6.68736e-16
0.0135334
-1.1293e-15
0.0135334
-1.02869e-15
0.0135334
-1.4511e-15
0.0135334
-1.02262e-15
0.0135334
-1.33834e-15
0.0135334
-8.23126e-16
0.0135334
-2.63678e-16
0.0135334
-3.74006e-15
0.0135334
-3.36104e-13
0.0135334
-6.62745e-11
0.0135334
-9.48809e-09
0.0135341
-7.42426e-07
0.0135592
-2.69645e-05
0.0139256
-0.000429556
0.0156817
-0.00228314
0.0188838
-0.00550306
0.0203251
-0.00831526
0.020699
-0.00860349
0.0207879
-0.00816068
0.020722
-0.00781212
0.0206591
-0.00777862
0.0205868
-0.00804137
0.0207135
-0.00828583
0.0208449
-0.00837187
0.0213718
-0.00822567
0.0236689
-0.00779552
0.0277277
-0.00549497
0.0295291
-0.0024413
0.029594
-4.82815e-05
0.0299695
-0.000194315
0.0301021
-0.000255497
0.0299591
-5.36267e-05
0.0298681
-3.30325e-05
0.029911
-0.000116543
0.0300286
-0.000199097
0.0301476
-0.000126023
0.0301681
1.22699e-05
0.0301365
8.90524e-05
0.0300924
0.000107501
0.0300472
3.65403e-05
0.0300416
-1.34931e-05
0.0300418
-1.11349e-05
0.0300422
7.54066e-06
0.0300582
1.3924e-05
0.0300737
1.45647e-05
0.0300742
1.90918e-05
0.0300707
2.55138e-05
0.0300618
2.68652e-05
0.0300492
1.3057e-05
0.0300472
-1.4456e-05
0.030059
-3.42165e-05
0.0300719
-4.15711e-05
0.0300747
-3.40438e-05
-1.8082e-05
0.0135334
2.68882e-17
0.0135334
4.82253e-16
0.0135334
1.0842e-16
0.0135334
4.85723e-17
0.0135334
-2.3332e-16
0.0135334
-4.47559e-16
0.0135334
-5.69857e-16
0.0135334
-3.66027e-16
0.0135334
-8.22259e-16
0.0135334
-9.71445e-16
0.0135334
-1.32359e-15
0.0135334
-1.34007e-15
0.0135334
-6.95884e-15
0.0135334
-1.00371e-12
0.0135334
-1.30436e-10
0.0135334
-1.18249e-08
0.0135339
-6.9867e-07
0.0135523
-2.20531e-05
0.0138512
-0.000345908
0.0155105
-0.00227731
0.0185831
-0.00537064
0.0202423
-0.0072019
0.0206133
-0.00861482
0.0207399
-0.00865854
0.0208154
-0.00833477
0.0206855
-0.00791292
0.020593
-0.00780784
0.0205378
-0.00797905
0.0206249
-0.00820777
0.0207485
-0.0083372
0.0208141
-0.0082583
0.0211837
-0.00817185
0.0234393
-0.00783224
0.0269099
-0.00612958
0.0289747
-0.00221143
0.0299236
-0.00117514
0.0298885
-0.000314594
0.0297874
-0.000101454
0.0297917
-3.57948e-05
0.0298725
-7.05082e-05
0.0299867
-0.000168207
0.0300969
-0.000144044
0.0301112
-2.55672e-05
0.0300424
0.000106597
0.0299768
0.000129523
0.0299318
3.62416e-05
0.0299314
-2.9374e-05
0.029933
-4.0383e-05
0.0299494
-2.39863e-05
0.0299955
-8.55816e-06
0.0300111
5.20879e-06
0.0300111
9.18212e-06
0.0300022
2.43559e-05
0.0299917
2.95084e-05
0.0299781
1.48683e-05
0.0299748
-1.25688e-05
0.0299831
-3.24521e-05
0.0299987
-3.84023e-05
0.0300015
-3.26428e-05
-1.82512e-05
0.0135334
3.27863e-16
0.0135334
6.70471e-16
0.0135334
4.68375e-17
0.0135334
5.9848e-17
0.0135334
-3.13118e-16
0.0135334
-3.25261e-16
0.0135334
-4.96998e-16
0.0135334
-4.93529e-16
0.0135334
-2.10769e-16
0.0135334
-2.64545e-16
0.0135334
-8.68229e-16
0.0135334
-5.82e-15
0.0135334
-9.00727e-13
0.0135334
-1.23749e-10
0.0135334
-1.17312e-08
0.0135339
-6.50449e-07
0.0135511
-2.05549e-05
0.0138014
-0.000302606
0.0153723
-0.00210607
0.0182552
-0.00538473
0.0203353
-0.00726727
0.0204442
-0.00778006
0.0205167
-0.0085899
0.0206057
-0.00871207
0.0206943
-0.00847497
0.0206336
-0.00804801
0.0205875
-0.00785888
0.0205486
-0.00795249
0.0205955
-0.0081816
0.0207145
-0.00830463
0.0207776
-0.00827334
0.0208046
-0.00821158
0.0210949
-0.00817121
0.0228237
-0.00796432
0.0267879
-0.00632351
0.0288576
-0.00339797
0.028991
-0.000624909
0.0295257
-0.000716712
0.029803
-0.000212726
0.0298499
8.05853e-05
0.0299375
-7.2301e-05
0.0300106
-0.000130087
0.0300124
-4.70407e-05
0.029953
9.76575e-05
0.0298639
0.000111359
0.0298126
1.65008e-05
0.0298183
-5.38983e-05
0.0298348
-7.80501e-05
0.0298801
-4.84325e-05
0.0299522
-3.34401e-06
0.0299589
8.92506e-06
0.0299572
9.89238e-06
0.0299399
2.15759e-05
0.0299221
2.85084e-05
0.0299123
1.54072e-05
0.0299113
-6.27412e-06
0.0299196
-2.72049e-05
0.0299346
-3.26378e-05
0.0299362
-2.85136e-05
-1.64661e-05
0.0135334
2.0383e-16
0.0135334
5.55112e-17
0.0135334
1.56125e-17
0.0135334
1.71738e-16
0.0135334
-2.86229e-17
0.0135334
-6.50521e-17
0.0135334
-4.15466e-16
0.0135334
-4.35416e-16
0.0135334
-1.40513e-16
0.0135334
8.41341e-17
0.0135334
-1.79631e-15
0.0135334
-2.56063e-13
0.0135334
-4.10171e-11
0.0135334
-4.56413e-09
0.0135337
-3.16264e-07
0.0135464
-1.2197e-05
0.0137573
-0.000229452
0.0152449
-0.00180771
0.0181839
-0.00556705
0.0201761
-0.00727512
0.0207385
-0.00770071
0.0205893
-0.00786972
0.0205193
-0.00842301
0.0206852
-0.00863524
0.0207997
-0.00851228
0.0207776
-0.008135
0.0206449
-0.00792311
0.0205749
-0.00797234
0.0205678
-0.00816326
0.0206603
-0.00826977
0.0207544
-0.00827677
0.020777
-0.00823699
0.0207718
-0.00821311
0.0209498
-0.00817826
0.0225426
-0.00798985
0.0258392
-0.00683337
0.0284806
-0.00339145
0.0296086
-0.00183469
0.0297671
-0.000171587
0.0297886
0.000218648
0.0299509
-8.87301e-05
0.0299729
-0.000117312
0.0299358
-6.01776e-05
0.0298704
3.47984e-05
0.0297578
5.80759e-05
0.0297145
-7.08708e-06
0.0297272
-7.16642e-05
0.0297742
-0.000105403
0.0298675
-4.70023e-05
0.0299368
2.00875e-05
0.0299402
2.55626e-05
0.0299387
2.01015e-05
0.0299059
2.25519e-05
0.0298784
2.54809e-05
0.0298733
1.72019e-05
0.0298716
-2.74391e-06
0.0298785
-2.19446e-05
0.0298939
-2.53853e-05
0.029895
-2.1753e-05
-1.39906e-05
0.0135334
1.47451e-17
0.0135334
-1.96891e-16
0.0135334
1.43115e-16
0.0135334
2.31586e-16
0.0135334
4.67508e-16
0.0135334
2.6975e-16
0.0135334
1.09288e-16
0.0135334
1.47451e-16
0.0135334
-2.24647e-16
0.0135334
-4.26742e-16
0.0135334
-1.85347e-14
0.0135334
-5.71365e-12
0.0135334
-8.78923e-10
0.0135335
-9.99536e-08
0.013539
-4.50457e-06
0.0136691
-0.000117667
0.0148052
-0.00122382
0.0180155
-0.00490023
0.0200292
-0.00789496
0.0208428
-0.00788979
0.0209141
-0.00772813
0.0207662
-0.00781593
0.0206791
-0.00830075
0.0207257
-0.00856494
0.0207993
-0.00850116
0.0208047
-0.00819414
0.0206875
-0.00797847
0.0206011
-0.00802359
0.0205619
-0.00813117
0.0206294
-0.00823572
0.0206973
-0.00827014
0.0207429
-0.00824672
0.0207416
-0.00822713
0.0207323
-0.00820234
0.0208804
-0.00816737
0.022067
-0.00804802
0.0256106
-0.00693783
0.0282362
-0.00431743
0.0292035
-0.000934069
0.0298939
-0.000249562
0.0300356
-0.000133025
0.0299697
-3.05644e-05
0.0298928
-5.73513e-05
0.0297963
-7.84557e-05
0.0296594
1.24977e-05
0.029642
-6.98409e-06
0.0296861
-8.16001e-05
0.0297695
-0.000109126
0.0298769
-2.91587e-05
0.0299363
4.37745e-05
0.0299386
4.31505e-05
0.0299387
2.93022e-05
0.0299015
1.43856e-05
0.0298586
1.40262e-05
0.0298489
9.47669e-06
0.0298477
-3.9157e-06
0.0298577
-1.5735e-05
0.0298889
-1.91093e-05
0.0298911
-1.59595e-05
-1.31357e-05
0.0135334
1.82146e-17
0.0135334
-2.1684e-17
0.0135334
2.11636e-16
0.0135334
1.51788e-16
0.0135334
4.50161e-16
0.0135334
3.6169e-16
0.0135334
7.52003e-16
0.0135334
6.01082e-16
0.0135334
-3.38271e-16
0.0135334
-3.80251e-15
0.0135334
-6.66473e-13
0.0135334
-2.0947e-10
0.0135334
-2.48413e-08
0.0135357
-2.03646e-06
0.0135965
-5.6566e-05
0.0143058
-0.000737961
0.0172141
-0.00362021
0.02004
-0.00760006
0.020749
-0.0085552
0.0208318
-0.00803524
0.0208259
-0.00777111
0.0207246
-0.00778815
0.0206133
-0.00816873
0.0206466
-0.00847589
0.0207102
-0.00846792
0.0207801
-0.00828029
0.0207065
-0.00806207
0.0206623
-0.00805465
0.0206135
-0.00811773
0.020631
-0.00818078
0.020674
-0.00824352
0.0206911
-0.00824269
0.0206972
-0.00823235
0.0206942
-0.00821846
0.0206826
-0.00818336
0.020769
-0.00815135
0.0219005
-0.0080514
0.02495
-0.00722784
0.0283782
-0.00422103
0.029925
-0.00164342
0.0299924
-0.000115908
0.0298698
6.97909e-05
0.0298499
-0.000141138
0.0297018
-0.000197232
0.0296058
-1.34061e-05
0.0296052
-1.20207e-05
0.0296849
-9.29369e-05
0.0298181
-0.000112093
0.0299417
-8.54296e-06
0.0299623
5.33245e-05
0.0299623
5.93815e-05
0.0299569
4.04721e-05
0.0299108
-4.69531e-06
0.0298388
-2.9039e-05
0.029827
-1.19516e-05
0.0298268
-9.99365e-06
0.0298538
-1.4998e-05
0.0298986
-1.09678e-05
0.0299034
-9.48872e-06
-1.32766e-05
0.0135334
-1.93422e-16
0.0135334
-7.37257e-17
0.0135334
2.04697e-16
0.0135334
7.71952e-17
0.0135334
3.83374e-16
0.0135334
5.48173e-16
0.0135334
9.17669e-16
0.0135334
6.78277e-16
0.0135334
-2.7825e-15
0.0135334
-1.05418e-12
0.0135334
-1.94386e-10
0.0135334
-2.22112e-08
0.0135345
-1.234e-06
0.013571
-4.01137e-05
0.0140417
-0.000532192
0.0163329
-0.0029218
0.0192711
-0.00625961
0.0202583
-0.00859227
0.0206529
-0.00866242
0.0208135
-0.00812324
0.0207862
-0.0078012
0.0207188
-0.00779788
0.0205978
-0.0080453
0.0206344
-0.00839564
0.0206491
-0.00838304
0.0207186
-0.00831526
0.0206905
-0.00815552
0.0206887
-0.00807906
0.0206799
-0.00812187
0.0206765
-0.00814146
0.0206701
-0.00818335
0.0206558
-0.00823232
0.020645
-0.00822899
0.0206508
-0.00822468
0.0206367
-0.00819481
0.0206285
-0.00815467
0.0207245
-0.0081467
0.0216239
-0.00809248
0.0248024
-0.00732097
0.0280406
-0.00486369
0.0294506
-0.00146184
0.0297779
-0.000361731
0.0298889
-0.000390427
0.0296981
-0.0001417
0.0296137
-2.79889e-05
0.029629
-7.45085e-05
0.0297451
-0.000129686
0.0299296
-7.96338e-05
0.0300401
1.70039e-05
0.0300451
5.66538e-05
0.030026
6.9027e-05
0.029982
3.83281e-05
0.0298997
-2.61622e-05
0.0298493
-4.90435e-05
0.0298385
-3.27188e-05
0.0298378
-1.91808e-05
0.0298702
-1.32787e-05
0.0299328
-3.73864e-06
0.0299402
7.13402e-07
-7.10706e-06
0.0135334
-2.09902e-16
0.0135334
-7.1991e-17
0.0135334
7.28584e-17
0.0135334
3.41741e-16
0.0135334
7.53737e-16
0.0135334
7.3986e-16
0.0135334
1.06339e-15
0.0135334
-9.91394e-16
0.0135334
-8.80743e-13
0.0135334
-2.18649e-10
0.0135334
-2.54799e-08
0.0135346
-1.53334e-06
0.0135649
-3.94372e-05
0.0139668
-0.00050838
0.0158601
-0.0025705
0.0190867
-0.00607093
0.0201412
-0.00764229
0.0204722
-0.00874997
0.0208096
-0.00869248
0.0208932
-0.00822023
0.0207892
-0.00782235
0.0207802
-0.00779498
0.0207048
-0.00793154
0.0206339
-0.0082524
0.020625
-0.00836579
0.0206322
-0.00830249
0.0206502
-0.00823915
0.0206851
-0.00811841
0.0207135
-0.00810361
0.0207114
-0.00812972
0.0206788
-0.00813928
0.0206384
-0.00819434
0.0206072
-0.00822518
0.0206071
-0.00822267
0.0206087
-0.00820906
0.020615
-0.00816811
0.0206248
-0.00815006
0.0207113
-0.00816428
0.0215151
-0.00812116
0.0241564
-0.0075858
0.0278756
-0.00536026
0.0297061
-0.00235487
0.0299368
-0.000758888
0.0296332
1.77696e-05
0.02965
-0.000169691
0.0297709
-0.000203029
0.0298557
-7.57399e-05
0.0300298
-5.19769e-06
0.0301155
3.68332e-05
0.0301185
6.08233e-05
0.0300927
6.47186e-05
0.0299951
1.72151e-05
0.0298887
-5.39854e-05
0.0298641
-6.63363e-05
0.0298626
-5.20796e-05
0.0298684
-3.05515e-05
0.0299306
-7.85851e-06
0.0299803
1.31814e-05
0.0299826
1.34928e-05
5.37788e-06
0.0135334
-2.61076e-16
0.0135334
-2.70617e-16
0.0135334
-2.19443e-16
0.0135334
2.76688e-16
0.0135334
9.15067e-16
0.0135334
1.29931e-15
0.0135334
7.68482e-16
0.0135334
-2.40385e-13
0.0135334
-7.93724e-11
0.0135334
-1.30522e-08
0.0135343
-9.40122e-07
0.0135653
-3.49429e-05
0.0139695
-0.000502961
0.0158099
-0.00276456
0.0188252
-0.00570319
0.020508
-0.00760154
0.020414
-0.00811412
0.0203637
-0.00874071
0.0206336
-0.00870549
0.0208186
-0.0084444
0.0207743
-0.00794487
0.0207776
-0.00782988
0.020778
-0.00792167
0.0206825
-0.00813214
0.0206027
-0.00832274
0.0205716
-0.00830805
0.0205876
-0.00824897
0.0206318
-0.00817431
0.0206821
-0.00809217
0.0207005
-0.00809536
0.0206928
-0.00812479
0.0206334
-0.00814828
0.0205967
-0.0082036
0.0205947
-0.00822194
0.0205984
-0.00821766
0.0206106
-0.00818794
0.0206311
-0.00816756
0.0206658
-0.00817729
0.0207366
-0.00817904
0.0212886
-0.00816525
0.0235784
-0.00779531
0.0270451
-0.00592706
0.0290119
-0.00279831
0.0293187
-0.000357616
0.0298919
-0.000688649
0.0299355
-0.000139487
0.0299227
0.000177389
0.0300797
6.41125e-05
0.0301454
1.78344e-05
0.0301469
3.73809e-05
0.0301199
3.41892e-05
0.029996
-3.51118e-06
0.0298912
-7.40655e-05
0.029884
-9.01672e-05
0.0298873
-7.60048e-05
0.0299177
-4.23338e-05
0.0300094
1.80308e-05
0.0300389
3.70652e-05
0.0300393
2.93843e-05
1.94701e-05
0.0135334
-1.96891e-16
0.0135334
-4.44957e-16
0.0135334
-5.33427e-16
0.0135334
6.93889e-17
0.0135334
8.67362e-16
0.0135334
1.44502e-15
0.0135334
-2.7988e-14
0.0135334
-1.47485e-11
0.0135334
-3.35022e-09
0.0135338
-3.40447e-07
0.0135502
-1.47305e-05
0.013863
-0.000316791
0.0158548
-0.00255396
0.0187742
-0.0062942
0.0206898
-0.00744841
0.0209441
-0.00786236
0.0206645
-0.00809146
0.0203987
-0.00861089
0.0203996
-0.00865788
0.0206307
-0.00847432
0.0207197
-0.00807914
0.0207556
-0.00786215
0.0207764
-0.00791451
0.0207317
-0.00809393
0.0206303
-0.00822653
0.0205576
-0.00828061
0.0205518
-0.00824878
0.0205752
-0.00820953
0.0206146
-0.00813096
0.020659
-0.00809265
0.0206675
-0.0081181
0.0206484
-0.00814228
0.0206049
-0.00817554
0.0206019
-0.00821205
0.0206122
-0.00821885
0.0206292
-0.00820628
0.0206575
-0.00818899
0.0206978
-0.0081968
0.0207294
-0.00820622
0.0207604
-0.00821309
0.0211334
-0.00819636
0.0231335
-0.00792334
0.0268085
-0.00637974
0.0293883
-0.00286799
0.0299137
-0.00114225
0.0298703
-1.49772e-05
0.0300195
0.000184886
0.0301318
-1.92451e-05
0.03016
-3.72096e-05
0.0301515
-1.36432e-05
0.030115
-1.33182e-05
0.0299713
-3.46437e-05
0.0298904
-7.59604e-05
0.029889
-9.74273e-05
0.0299048
-9.66115e-05
0.029981
-3.59766e-05
0.0300735
5.72393e-05
0.0300901
6.67513e-05
0.0300917
5.24277e-05
2.96172e-05
0.0135334
-8.67362e-19
0.0135334
2.21177e-16
0.0135334
-1.52656e-16
0.0135334
3.41741e-16
0.0135334
6.40113e-16
0.0135334
-3.35322e-15
0.0135334
-2.92949e-12
0.0135334
-7.6405e-10
0.0135335
-1.07019e-07
0.0135402
-5.98608e-06
0.0136918
-0.00014201
0.0151927
-0.00154315
0.0185798
-0.00597138
0.0203058
-0.00818934
0.021111
-0.00799626
0.0211335
-0.00785913
0.0209338
-0.00794653
0.0205134
-0.00833143
0.0204289
-0.00850543
0.0205009
-0.00839369
0.0205715
-0.00820847
0.0206511
-0.0079584
0.0207196
-0.0079436
0.0207283
-0.00805877
0.0206711
-0.0081473
0.0205864
-0.00821823
0.0205543
-0.00823429
0.0205593
-0.00822686
0.02059
-0.00817252
0.0206377
-0.008114
0.0206641
-0.00812004
0.0206665
-0.00815739
0.0206366
-0.00817809
0.0206273
-0.00820217
0.0206366
-0.00820935
0.0206554
-0.00821209
0.0206902
-0.00820876
0.0207267
-0.00821242
0.0207371
-0.00822028
0.0207404
-0.00822102
0.0207538
-0.00821606
0.0210484
-0.00821005
0.0227529
-0.00801168
0.0264906
-0.00648155
0.0287772
-0.0034413
0.0293425
-0.000491572
0.0301144
-0.0005153
0.0302313
-8.87762e-05
0.0301757
-2.03394e-05
0.0301298
-6.26346e-05
0.0300377
-8.13417e-05
0.0298917
-3.28108e-05
0.0298643
-5.65188e-05
0.0298891
-0.000102013
0.029945
-0.000102681
0.0300654
9.37872e-08
0.030132
8.87882e-05
0.0301363
9.16155e-05
0.0301385
6.73114e-05
2.67795e-05
0.0135334
6.67869e-17
0.0135334
4.60569e-16
0.0135334
3.66894e-16
0.0135334
6.84348e-16
0.0135334
-3.27516e-15
0.0135334
-1.58912e-12
0.0135334
-3.94463e-10
0.0135334
-4.77841e-08
0.0135365
-3.04014e-06
0.0136193
-8.35911e-05
0.0144629
-0.000904224
0.0177655
-0.00429603
0.020098
-0.00831593
0.0208852
-0.00882477
0.0211151
-0.00814652
0.0211183
-0.00787452
0.0210133
-0.00788693
0.0207163
-0.00815027
0.0204768
-0.00836743
0.0204583
-0.00835656
0.020511
-0.00827478
0.0205776
-0.00812476
0.0206504
-0.00801826
0.0206885
-0.00805715
0.0206689
-0.00812843
0.0206192
-0.00815752
0.0205881
-0.0082135
0.0205896
-0.00822955
0.0206034
-0.00821618
0.0206271
-0.00817175
0.0206814
-0.00815841
0.0206984
-0.00818534
0.0206931
-0.00820043
0.0206776
-0.00821059
0.0206784
-0.00821466
0.0206932
-0.008219
0.0207197
-0.00822253
0.0207485
-0.00822498
0.0207547
-0.0082253
0.0207542
-0.00822671
0.0207555
-0.0082256
0.0207686
-0.00823054
0.0209843
-0.00822408
0.0225815
-0.00805103
0.0260667
-0.00688556
0.0291807
-0.00355666
0.0301771
-0.00140093
0.0301353
1.37397e-05
0.030093
-3.88246e-05
0.0300845
-0.000219332
0.0299321
-0.000152153
0.0298392
-3.49881e-06
0.029841
-3.52753e-05
0.029911
-0.000107177
0.0300343
-7.12827e-05
0.0301695
4.59101e-05
0.030184
8.93006e-05
0.0301834
8.65707e-05
0.030153
6.13628e-05
8.18921e-06
0.0135334
1.17094e-16
0.0135334
4.51028e-16
0.0135334
5.49907e-16
0.0135334
-2.97852e-15
0.0135334
-8.49759e-13
0.0135334
-2.51459e-10
0.0135334
-3.67025e-08
0.0135353
-2.25503e-06
0.0135927
-6.61523e-05
0.0141948
-0.000731208
0.0168831
-0.00327656
0.0197148
-0.00704461
0.0202922
-0.00894588
0.020663
-0.00895842
0.0209455
-0.00844093
0.0209239
-0.00797501
0.0208755
-0.00788047
0.0207267
-0.00802063
0.0205464
-0.00819972
0.0204737
-0.00828393
0.0204786
-0.0082794
0.0205395
-0.00820253
0.0206093
-0.00810129
0.0206683
-0.00807507
0.0206763
-0.00812096
0.020646
-0.00814681
0.020614
-0.00819012
0.0206141
-0.00822011
0.0206245
-0.00822368
0.0206603
-0.00820359
0.0207049
-0.00819265
0.0207186
-0.00820784
0.0207196
-0.0082188
0.0207207
-0.00821814
0.0207281
-0.00821798
0.0207397
-0.0082189
0.0207555
-0.00822399
0.0207614
-0.00822959
0.0207612
-0.00822822
0.0207594
-0.00822979
0.0207565
-0.00823077
0.0207538
-0.00823149
0.0207601
-0.00823098
0.0209405
-0.00822797
0.0221726
-0.00811716
0.0256453
-0.00706854
0.028607
-0.00428776
0.0295009
-0.000832219
0.0300181
-0.000610816
0.0301264
-0.000486648
0.0298415
-7.82366e-05
0.0297978
1.45815e-05
0.0298625
-6.47112e-05
0.0299874
-9.77873e-05
0.0301672
-8.92403e-06
0.0302393
5.5305e-05
0.030241
6.98292e-05
0.0302233
6.78745e-05
0.0301404
6.29011e-05
-2.17243e-05
0.0135334
7.37257e-17
0.0135334
1.45717e-16
0.0135334
2.42861e-16
0.0135334
-1.7227e-13
0.0135334
-8.58784e-11
0.0135334
-1.62784e-08
0.0135348
-1.50985e-06
0.0135797
-5.19675e-05
0.014168
-0.000748483
0.0162641
-0.00314636
0.019713
-0.00615645
0.0203906
-0.00819141
0.0203794
-0.00890479
0.0205132
-0.0088761
0.0208394
-0.00854493
0.020807
-0.00807626
0.0207821
-0.00788822
0.0207833
-0.0079514
0.0206752
-0.00808319
0.0205218
-0.00819332
0.0205124
-0.00824817
0.0205429
-0.00821756
0.0206082
-0.00815298
0.0206515
-0.00811276
0.0206759
-0.00813003
0.0206792
-0.00818277
0.0206472
-0.00820228
0.0206434
-0.00821945
0.0206591
-0.0082222
0.020682
-0.00821896
0.0207205
-0.00821659
0.0207511
-0.00822262
0.0207587
-0.0082249
0.0207634
-0.00822128
0.0207657
-0.00821971
0.0207668
-0.0082205
0.0207666
-0.008225
0.0207643
-0.00823063
0.0207599
-0.00823414
0.0207583
-0.00823347
0.0207583
-0.00823351
0.0207586
-0.00823257
0.0207603
-0.00823229
0.0207684
-0.00823167
0.0208876
-0.00823006
0.0219493
-0.00814725
0.0250085
-0.00737977
0.0286219
-0.00457992
0.0300125
-0.0021055
0.0300129
-0.000619957
0.0296766
0.000131677
0.0298513
-0.000181256
0.0300158
-0.000137098
0.030145
5.33622e-06
0.0302391
5.76707e-05
0.0302637
5.54482e-05
0.0302642
5.67193e-05
0.0302285
6.27698e-05
0.0301108
2.92431e-05
-5.41703e-05
0.0135334
-4.33681e-18
0.0135334
-5.56846e-16
0.0135334
-2.84304e-14
0.0135334
-1.76293e-11
0.0135334
-5.35123e-09
0.013534
-5.52332e-07
0.0135618
-2.80617e-05
0.0140509
-0.000536808
0.0163577
-0.00347666
0.0191387
-0.00625512
0.0210054
-0.00773243
0.0209836
-0.00832274
0.0205888
-0.00871743
0.0205471
-0.00871643
0.0206532
-0.00842733
0.0206404
-0.00806774
0.0206473
-0.00793192
0.0206724
-0.0079595
0.0206334
-0.00806664
0.0205451
-0.00814661
0.020543
-0.00820637
0.0205434
-0.00821919
0.020571
-0.00818893
0.0206282
-0.00815801
0.0206976
-0.00816467
0.020716
-0.00820275
0.0207144
-0.00822625
0.0207125
-0.00823084
0.020718
-0.00822847
0.0207317
-0.00822927
0.0207551
-0.00823205
0.0207677
-0.0082298
0.0207694
-0.00822894
0.0207696
-0.00822599
0.0207699
-0.00822423
0.0207697
-0.00822521
0.0207675
-0.00822864
0.0207639
-0.00823177
0.0207631
-0.00823452
0.020763
-0.00823346
0.020764
-0.00823188
0.0207655
-0.00823025
0.0207665
-0.00822951
0.0207677
-0.00822952
0.0207737
-0.00823279
0.0208591
-0.00823216
0.0216543
-0.00818054
0.0245222
-0.00756777
0.0277704
-0.00540461
0.0291405
-0.00220851
0.029573
-0.000378782
0.0301713
-0.000653847
0.0302168
2.99024e-06
0.030233
0.000151873
0.0302469
9.10746e-05
0.030262
3.29554e-05
0.0302622
3.41528e-05
0.0302115
4.3516e-05
0.0300687
-9.57176e-06
-7.33661e-05
0.0135334
2.25514e-17
0.0135334
-1.59152e-14
0.0135334
-6.67315e-12
0.0135334
-1.63086e-09
0.0135336
-2.31474e-07
0.0135461
-1.24306e-05
0.0138183
-0.000277416
0.0160195
-0.00256132
0.0191623
-0.00712433
0.0208371
-0.00787176
0.0211853
-0.00806282
0.0210187
-0.00828555
0.0206549
-0.0084927
0.0204809
-0.0085686
0.0204497
-0.00831932
0.0204873
-0.00807234
0.0205452
-0.00799078
0.0206034
-0.00798782
0.0206314
-0.00808415
0.0205892
-0.00815327
0.0205807
-0.00819059
0.0205966
-0.00820609
0.0206228
-0.00820535
0.0206731
-0.00819386
0.0207331
-0.00820465
0.0207561
-0.00821611
0.0207629
-0.00823159
0.0207638
-0.00823485
0.0207629
-0.00823142
0.0207654
-0.00823297
0.0207666
-0.00823733
0.0207656
-0.00823774
0.0207674
-0.0082344
0.0207702
-0.00823083
0.0207701
-0.00822821
0.0207693
-0.00822834
0.0207666
-0.00822965
0.020766
-0.00823128
0.0207675
-0.00823155
0.0207713
-0.00822983
0.0207721
-0.00822856
0.0207721
-0.00822791
0.0207712
-0.00822753
0.0207691
-0.00822848
0.0207676
-0.00823188
0.0207691
-0.008234
0.0208234
-0.00823451
0.0214407
-0.00819849
0.0238091
-0.00778283
0.0275684
-0.00590558
0.0297433
-0.00252486
0.0300919
-0.000829468
0.0300502
0.000290243
0.0301989
0.000169489
0.0302337
9.91124e-06
0.0302427
-2.82972e-05
0.0302158
-1.78521e-05
0.0301382
-6.02916e-06
0.0300326
-4.15199e-05
-9.02385e-05
0.0135334
2.34188e-17
0.0135334
-2.35314e-12
0.0135334
-8.90564e-10
0.0135335
-1.07189e-07
0.0135399
-6.73482e-06
0.0136955
-0.000171108
0.0151474
-0.00158733
0.0187631
-0.00601047
0.0202425
-0.00878147
0.0210535
-0.00850533
0.0211575
-0.00817508
0.0210319
-0.00807331
0.0207844
-0.00817921
0.0204939
-0.00829978
0.0204288
-0.00820139
0.0204521
-0.00809218
0.0205014
-0.0080431
0.0205759
-0.00804294
0.0206839
-0.00811207
0.0206938
-0.00819398
0.0206734
-0.00821283
0.0206721
-0.008219
0.0206864
-0.00822091
0.0207289
-0.00822395
0.0207529
-0.00822586
0.0207559
-0.00822826
0.0207608
-0.00823524
0.0207658
-0.00823635
0.0207702
-0.00823383
0.0207731
-0.00823451
0.0207737
-0.00823729
0.0207721
-0.00823765
0.0207701
-0.00823449
0.0207698
-0.00823116
0.0207688
-0.00822893
0.0207687
-0.0082281
0.0207692
-0.00822825
0.0207722
-0.00822914
0.0207761
-0.00822865
0.0207766
-0.00822863
0.020776
-0.00822887
0.020774
-0.00822806
0.0207709
-0.00822781
0.0207667
-0.00822894
0.0207644
-0.00823085
0.0207643
-0.00823267
0.0207677
-0.0082338
0.0208086
-0.00823387
0.0212493
-0.00821092
0.0233531
-0.00789311
0.0270397
-0.00603787
0.0291403
-0.00279136
0.0297001
-0.000166588
0.0302455
-0.000355114
0.0302856
-5.99897e-05
0.0302163
-4.43859e-05
0.0301306
-0.000102228
0.0300445
-8.68575e-05
0.0300029
-5.0643e-05
-8.21184e-05
0.0135334
-2.08167e-16
0.0135334
-2.10301e-10
0.0135334
-5.58854e-08
0.013537
-3.85056e-06
0.0136425
-0.000116223
0.0146418
-0.00120325
0.0181914
-0.00474535
0.0202205
-0.00833029
0.0206145
-0.00905346
0.0209722
-0.00869501
0.021003