/*--------------------------------*- C++ -*----------------------------------*\
  =========                 |
  \\      /  F ield         | OpenFOAM: The Open Source CFD Toolbox
   \\    /   O peration     | Website:  https://openfoam.org
    \\  /    A nd           | Version:  12
     \\/     M anipulation  |
\*---------------------------------------------------------------------------*/
FoamFile
{
    format      ascii;
    class       surfaceScalarField;
    location    "5.325";
    object      phi;
}
// * * * * * * * * * * * * * * * * * * * * * * * * * * * * * * * * * * * * * //

dimensions      [1 0 -1 0 0 0 0];

internalField   nonuniform List<scalar> 
69079
(
-0.00015867
9.13335e-05
6.67975e-05
0.000127057
7.45906e-07
-0.000127914
-0.000133186
0.000133204
0.000129322
-2.39887e-06
-0.000131662
-1.51947e-06
-0.000131669
7.90028e-05
-0.000133542
6.75185e-05
8.38589e-07
8.36843e-05
-0.000103921
0.000130242
-0.00013072
4.22725e-07
0.000130238
-6.70496e-08
-9.87071e-05
-5.99995e-05
-0.00011613
0.000122658
-8.50152e-06
-0.000128931
0.000126199
2.66682e-06
-0.000128338
-6.04773e-07
2.7804e-06
-0.000110457
0.000107702
0.000129886
2.44735e-07
0.000129616
1.3169e-07
-0.000130252
0.000128583
1.62018e-06
-0.000129022
-1.36288e-06
0.000130082
-0.000129377
-6.34587e-07
0.000129334
8.18021e-07
0.000126415
-0.000128864
2.437e-06
-0.000138236
1.39863e-05
0.000124435
0.00015503
-0.000101109
-5.4052e-05
0.000123172
-1.58378e-05
-0.000106175
-0.000128587
-2.16347e-06
0.000129341
2.14328e-07
-2.76185e-08
6.02373e-07
9.914e-05
-0.000112042
0.000120757
-0.000125716
5.11268e-06
0.000123703
-0.000133916
1.02192e-05
0.000144276
-2.06063e-05
0.000128542
7.95232e-07
-5.66803e-07
-0.000128506
2.33084e-05
0.000105198
0.000128514
-0.000128407
4.39334e-08
2.27723e-07
-1.38224e-06
8.31574e-05
-5.23966e-05
-1.26509e-05
-0.000125445
0.000100228
2.64933e-05
-0.000160138
-0.00013641
1.65533e-05
0.00012754
-0.000127583
6.9633e-08
-6.2786e-06
-0.000106317
0.000121496
-2.17376e-05
0.000127092
1.47547e-06
-1.1822e-06
-7.32728e-05
0.000140186
-6.68021e-05
0.000125188
-0.000125231
1.03114e-07
0.000143768
-1.85118e-05
0.000121978
2.17972e-05
0.000143009
-2.10594e-05
0.000119661
-3.77135e-06
-0.000115867
-0.000102274
0.00011991
-2.75313e-05
-0.000130216
0.000131397
-1.17497e-06
-0.000131363
5.61025e-05
7.40171e-05
0.000124184
-0.000124305
7.83836e-08
0.000142515
-1.82045e-05
0.000120383
9.05167e-09
-0.000120122
-9.42937e-05
-6.11195e-05
9.98763e-05
7.65809e-05
5.04954e-05
-0.000127082
0.000109625
-6.00205e-05
-5.30283e-05
-1.36168e-05
-0.000114886
4.97728e-05
-0.000122908
-0.000106361
0.000109178
0.000125359
7.24608e-07
-2.30179e-06
0.000146869
-0.000146858
-1.53955e-05
-0.000116906
-0.000127365
1.05414e-05
-5.12005e-05
0.000146886
0.000120114
2.25691e-05
0.000141749
-2.16262e-05
0.000171171
-1.41982e-05
-0.000147523
0.000127338
-0.000125113
-2.25714e-06
9.60061e-05
5.53861e-05
0.000115852
-0.00011912
3.24965e-06
-2.76874e-06
0.000118657
-0.000121834
1.15181e-05
0.000110394
0.000123502
2.07569e-05
-1.70452e-06
0.000118723
-0.000141197
2.24094e-05
0.000101661
1.80167e-05
0.000132375
-1.36396e-05
-7.75319e-05
-5.01424e-05
0.000119936
-0.000117557
0.000118786
-1.21415e-06
0.000117896
-0.000133608
1.56258e-05
0.000118858
-9.69839e-07
-4.5558e-05
-2.72537e-05
-5.98219e-06
-0.000101483
0.00010748
-6.95753e-05
0.0001369
-6.72074e-05
0.000114361
-3.57685e-05
-0.000127126
9.58974e-06
0.000121659
2.12716e-05
6.80643e-05
5.23786e-05
-0.00012031
-2.72574e-06
-0.000116452
-1.06492e-05
1.0509e-06
-0.000105131
0.00010392
0.000124293
-3.58553e-06
6.7305e-05
6.04354e-05
-0.000127745
5.37996e-05
-0.000123202
-0.000117339
8.99783e-07
0.000126543
-0.000126542
0.0001296
-8.70581e-06
2.07117e-05
-0.000134974
0.000114264
4.57276e-05
-0.000131298
-0.000127266
-1.03123e-05
0.000115677
-0.000135095
1.92515e-05
0.000118317
-2.6389e-06
7.09169e-06
0.000109891
-0.000116582
-4.19368e-06
7.61973e-05
-5.18968e-05
0.000119981
2.17429e-05
-2.13012e-05
-0.000102629
0.000103513
7.69842e-06
-0.000119762
0.000112118
-7.17344e-05
2.28216e-05
-7.96163e-06
0.000117051
-0.000101584
5.37472e-05
-0.000157405
-0.000109394
-3.43898e-06
0.000112865
0.00011802
-0.000120917
2.86916e-06
-0.000122441
0.000105517
1.70773e-05
-3.94438e-06
-0.000127737
0.000115367
1.70663e-05
-5.45612e-06
0.00012085
-0.000131299
0.000131338
-0.00011244
3.16592e-06
-3.53316e-05
0.000111908
0.000144849
-8.6943e-05
-5.83137e-05
-0.000131669
5.25314e-05
7.91215e-05
0.00012474
-6.77269e-07
-0.000124012
0.000113999
-0.000132995
1.90289e-05
0.00011781
-3.81754e-06
0.000122462
-1.79935e-06
9.5351e-05
-9.39655e-05
0.000117597
7.14353e-06
7.70228e-05
-0.000122312
4.53392e-05
0.000114529
-0.000138242
2.37118e-05
0.000137223
-2.26195e-05
-1.57928e-06
0.00012058
-7.73017e-05
0.00014517
-6.7825e-05
-9.79481e-05
-2.12428e-05
0.000110768
-0.000131489
2.0841e-05
0.000115332
-4.49299e-06
0.000118869
-0.000127358
8.47269e-06
-0.000123569
2.55741e-05
-3.05637e-05
-0.000101125
0.000113354
-0.000136815
2.34435e-05
-2.03368e-05
-5.46553e-05
8.17331e-05
8.41765e-05
-9.01514e-05
-0.000104862
0.000112545
0.000134036
-0.000134018
0.000117245
2.78635e-07
-2.10401e-05
0.000120124
-0.000127598
7.44622e-06
-0.000134204
4.49538e-06
6.94031e-05
7.54447e-05
-0.000127562
2.02101e-05
0.000107356
0.000111382
-0.000135437
2.40711e-05
-0.000109488
0.000134886
-2.35116e-05
-0.000124576
-1.92366e-06
0.000102414
-4.71856e-05
-4.20816e-05
0.000119264
-1.74946e-05
0.000140852
0.000113401
2.39114e-05
-9.3122e-05
9.08718e-05
-2.34014e-05
0.000114544
-0.000114534
6.87352e-05
-0.000120871
5.21329e-05
0.000109954
-0.000134157
2.42185e-05
0.000133866
-2.37385e-05
-1.91169e-05
-0.000109755
0.000148422
1.00572e-05
-0.000146484
-2.16107e-05
-0.000113349
1.57519e-05
-0.000118802
0.00010594
-5.57567e-05
8.59644e-05
-3.71087e-05
-0.000112649
3.73998e-06
0.000108936
3.00035e-06
0.000141726
-0.000104403
0.000104854
0.000111608
0.000123511
-3.48734e-06
0.000108918
-0.000133577
2.46049e-05
-2.64063e-05
9.03236e-07
-0.000111617
0.000110709
0.00011232
6.60155e-06
-2.30435e-05
4.37649e-05
7.70323e-05
0.00010952
6.84752e-07
-0.000110206
9.14485e-07
0.000108611
8.34407e-06
0.000118975
-4.70194e-05
-6.00061e-05
0.000107044
-0.000119343
6.70319e-05
4.55233e-05
7.33987e-05
-0.00012041
2.17692e-07
0.000111382
-0.0001116
-0.000111409
0.000111637
7.00115e-05
-5.4037e-05
-0.000117298
0.000122118
-4.80572e-06
0.000103176
-0.000124
2.0787e-05
0.000111501
-8.61523e-06
-9.65699e-06
-9.72866e-05
0.000106917
6.6372e-05
4.65974e-05
-0.000112974
0.000109991
2.47934e-05
-2.421e-05
1.69349e-05
-0.000117218
0.000100316
-0.000125262
-6.31981e-06
0.000119873
3.57011e-06
0.000106874
-0.000132309
2.54686e-05
0.000131451
-2.45767e-05
7.40778e-05
-0.000119791
4.57048e-05
0.000111903
-0.000104168
0.000117026
-0.000120541
0.000137287
8.80531e-06
-5.54603e-07
0.000119352
2.64438e-05
-0.000114311
-0.000115683
-1.62469e-06
0.000123086
-4.20815e-06
-7.14053e-05
-4.23408e-05
9.93695e-05
0.00010551
-0.000130837
2.53556e-05
0.000127748
-1.65011e-05
-0.000130327
-2.74289e-05
0.000111289
-9.42276e-05
0.000108966
2.50979e-05
-2.45896e-05
-7.89436e-05
-5.02097e-05
0.000109187
0.000125486
-0.000124013
-1.46287e-06
-1.48873e-05
0.000125915
-0.000111048
0.000100936
-0.000121845
2.05378e-05
0.000109781
-9.63209e-06
0.000106019
-0.000106265
5.25422e-07
-4.75743e-06
-0.000117573
-0.000131549
2.01361e-05
0.000111413
-2.31831e-05
-0.000108367
-1.62448e-05
-0.000115018
-4.77718e-05
0.000115926
-0.000144649
7.75446e-05
6.70709e-05
-0.000120942
0.000104931
1.61138e-05
0.000105744
3.92642e-07
0.000115041
-0.00010935
-5.77495e-06
-0.000136487
0.000120276
-0.000117502
1.58271e-07
-0.000116065
0.000117847
-1.7276e-06
-7.08139e-05
-7.38915e-05
6.95719e-05
-0.000123715
5.4189e-05
-8.34959e-07
-0.000124292
-4.1728e-06
-0.000123402
0.000120603
-6.4623e-07
-0.000121226
5.20867e-06
0.000103453
-0.000129928
2.64639e-05
-2.80124e-05
0.000111689
3.23191e-06
9.71853e-05
-0.00011838
2.02847e-05
-0.000123967
2.74505e-06
0.000107747
-1.06485e-05
0.000109319
9.11975e-06
-2.29038e-05
0.000127502
-0.000121852
-5.13251e-06
-7.72174e-06
0.000156091
-0.000152051
0.000124329
-0.000124301
-0.000143918
6.76966e-05
7.90912e-05
-4.76009e-05
8.08974e-05
-3.75276e-05
-0.000110535
-3.88195e-06
0.000113273
-0.000124697
-2.74021e-06
-8.19485e-05
-5.33128e-05
9.90385e-05
6.81948e-05
4.21981e-05
-0.000110392
8.28489e-05
-9.26259e-05
4.09017e-06
0.000118147
-0.000122107
0.000105414
2.60261e-05
0.00010142
-0.000128553
2.70771e-05
-2.54108e-05
-0.000130537
0.000115635
-0.000124062
0.00012404
8.00192e-05
4.74612e-05
0.000127189
-2.58018e-05
-2.04143e-05
-0.000116058
0.00010081
7.45665e-05
-0.000121004
4.6409e-05
2.09225e-06
-0.000137739
0.000100961
-1.07468e-06
0.000118034
-0.000115215
9.4991e-05
-0.000115222
2.04348e-05
0.000108604
-1.17945e-05
0.000125693
-0.000127087
-0.000105644
0.000109865
-7.91926e-05
-6.90231e-05
-6.04626e-05
9.73627e-05
-3.79148e-05
-0.000124595
2.75057e-06
0.000121227
-0.000125262
4.15022e-06
-6.3943e-05
0.000130321
0.000122968
1.31025e-06
0.000122437
3.73109e-07
-0.000128549
6.26947e-05
6.45235e-05
3.55744e-05
0.000104593
0.000121899
2.94744e-07
7.31651e-05
-0.000106694
3.35172e-05
0.000121341
4.55159e-06
0.000109357
-3.64057e-05
3.6797e-05
0.000100194
-0.000126819
2.66982e-05
0.000116913
0.000126505
-2.62639e-05
0.000128078
-2.14526e-05
-0.000108083
-0.00010796
-1.27949e-06
0.000109305
-0.000138873
8.07318e-05
5.81536e-05
0.000107182
1.05625e-05
-2.28238e-05
-4.3412e-05
0.000117484
0.000129948
-0.000129997
-0.00010629
0.000106973
0.000111403
-0.000110486
-5.66377e-05
8.43996e-05
-3.68996e-05
-1.77589e-06
-0.000120024
9.8738e-05
-0.000125665
2.68594e-05
-0.000114383
0.000117107
-2.67433e-06
0.000125122
-2.64198e-05
-0.000125552
0.000127159
0.000118544
3.28274e-06
2.80856e-06
-0.000114075
0.000111374
-0.000141492
0.000107859
-0.000101429
-8.69962e-06
0.000111657
-0.000119105
4.71485e-06
-9.36586e-05
-3.52691e-05
9.61123e-05
-0.000112858
0.000154158
-9.21161e-06
0.000121638
-3.98849e-07
-0.000117113
-2.03859e-06
0.000120761
-0.000120786
9.74163e-05
-0.000124645
2.72666e-05
0.000124292
-2.68424e-05
9.13529e-05
-0.000109806
1.96626e-05
0.000106761
-1.30366e-05
-6.9839e-05
-6.90519e-05
-0.000123722
4.64728e-05
-0.000115453
-1.64754e-06
5.87399e-05
5.72006e-05
0.00012187
5.38297e-06
0.000105976
9.3337e-06
-2.26908e-05
-0.000116033
0.000106427
9.60565e-06
0.000130296
-0.000125682
-0.000100792
0.000112398
0.000105015
-0.000112574
7.5178e-06
0.00011074
-4.38732e-06
-0.000106378
9.60024e-05
-0.000123483
2.74645e-05
0.000123072
-2.70079e-05
-4.29381e-06
-0.00011658
-0.000119525
0.000124459
-4.81806e-06
1.10447e-06
-0.000113734
0.000147326
-1.35326e-05
-5.48409e-05
0.000122145
4.0629e-07
-0.000134161
2.3746e-05
-0.00011005
-1.26229e-05
0.000113012
-5.70656e-06
-0.000107395
9.99344e-05
2.72915e-05
0.000118674
-4.99393e-05
-2.66706e-05
-0.000119985
0.000109092
1.08641e-05
5.62459e-06
-0.000113847
-0.000153398
8.95845e-05
6.38239e-05
-0.000112141
3.25222e-06
0.000108945
-6.95226e-05
-8.3818e-05
4.03618e-06
0.000107798
-0.00011184
-0.000112689
4.74913e-06
0.000107936
-7.36004e-06
-0.000105358
-0.000117266
0.00010988
9.48482e-05
-0.00012265
2.78625e-05
-0.000113235
2.49893e-06
0.000110675
0.000114456
-5.483e-06
-0.000109008
-4.41289e-06
0.000113704
-0.000109397
0.000109959
0.000122258
-2.74096e-05
0.000114015
-4.51316e-06
-0.000109556
0.000119467
-7.19711e-07
-0.000126073
-1.29049e-05
-0.00011762
-4.66499e-06
0.000113613
-0.000109021
6.55789e-05
4.48261e-05
-0.000110409
-0.000134255
4.71049e-05
-7.23306e-05
-7.37362e-05
-0.000131149
3.07489e-05
9.88561e-05
2.76418e-05
7.37566e-06
-0.000118538
-2.70048e-05
5.40529e-06
0.00010533
-0.000106244
7.46239e-06
9.89666e-05
9.31829e-05
-0.000121213
2.80341e-05
-5.93745e-06
0.000120527
0.000114326
-4.70622e-06
-0.000109613
-0.000119114
-6.08911e-06
0.000120769
-2.75439e-05
-5.88556e-05
0.000116007
-3.75687e-05
0.000125119
-1.09344e-05
-0.000114097
9.97777e-05
-1.88976e-05
-0.000121479
0.000118514
2.79498e-06
0.000121679
-0.000121686
-0.000122933
7.21046e-06
0.000115709
-3.15063e-06
0.000114231
-0.000111178
-6.50925e-05
0.000117544
8.66362e-05
-0.000105744
1.96982e-05
-1.54003e-05
0.000103654
1.0273e-05
0.000118445
5.56778e-07
0.000110937
-0.000111499
-1.10322e-05
9.83836e-05
-8.7352e-05
0.0001339
-7.95424e-05
-5.43605e-05
2.38222e-06
-0.000113131
0.000110989
2.51398e-06
-0.000117942
0.000117734
-0.000117737
-0.000110503
0.000111758
-1.25889e-06
0.000110997
-0.00011435
3.29379e-06
-0.000101891
0.000102787
-2.82398e-07
0.000112151
-0.000111338
-2.30942e-06
-0.000111474
0.000113952
4.74111e-05
5.15655e-05
-0.000110807
-1.36264e-06
0.00011923
-0.000116294
-1.40631e-06
0.000117632
-0.000120103
-1.78365e-07
0.000110977
-0.000113127
0.000104088
3.28086e-05
9.21235e-05
-0.000120512
2.84886e-05
-5.0471e-05
-5.63993e-05
0.000106876
9.71783e-05
2.79693e-05
-0.000134012
8.35498e-05
0.000114349
-3.98137e-05
-3.18486e-05
-2.73136e-05
-0.000140503
8.02078e-05
6.03466e-05
-4.76766e-05
8.67928e-05
-4.62807e-05
6.37663e-05
6.30202e-05
-0.000126796
-7.02927e-05
0.000120142
-0.000115939
0.000110096
5.85837e-06
-0.00011675
8.21917e-07
-0.000113068
4.24917e-07
0.000112901
1.05866e-05
0.000101987
-0.000108031
-2.86396e-06
0.000110914
-0.000100707
8.96709e-05
6.45386e-05
-9.58841e-05
0.000110663
-0.000117454
-3.63826e-06
0.000112246
-0.0001087
3.92013e-05
-9.98549e-05
-7.41332e-05
-6.63427e-05
1.46609e-06
0.000111024
-0.000112685
-0.00012114
-6.37915e-06
-0.000142964
8.29631e-05
-2.74454e-06
-0.000120221
0.000124447
-0.000125997
-9.90524e-05
0.000119265
-0.000113817
0.000114161
-1.23752e-06
0.000115273
-0.000113791
-2.88536e-05
-9.52099e-05
5.74633e-05
-0.000136551
-3.39535e-05
0.00011346
-0.000110633
-1.40952e-06
0.000112011
3.99663e-06
6.2291e-05
-5.30511e-05
2.02462e-07
-0.000112207
0.000112046
9.59934e-05
2.8292e-05
0.000113581
6.66338e-07
-0.000114349
0.000112634
-7.5609e-07
-0.00011179
-8.9549e-07
0.000112932
0.000111445
-0.000113756
-2.76467e-05
-0.000111058
-2.30023e-06
-1.39996e-06
0.00011122
-0.000121494
0.000125251
-0.000111877
0.000112334
-4.44607e-07
-1.37575e-07
0.000111193
0.000108837
4.70351e-06
-0.000111809
-6.41679e-08
-5.10425e-05
-4.61418e-05
8.12522e-05
-0.000135012
2.97613e-05
6.92432e-05
-5.22238e-05
-3.22195e-06
8.90054e-05
-0.000119655
3.07055e-05
0.000123899
-0.000120573
-4.60104e-06
-1.9103e-06
0.000122723
0.000117802
-2.86333e-05
5.31478e-05
-0.000156317
8.74417e-05
-0.000103135
1.57075e-05
-1.67572e-05
0.000105028
-0.000117812
0.000107383
1.04275e-05
0.000105094
-9.4881e-06
-0.00011452
0.000121207
-6.07729e-05
-4.00017e-05
9.25334e-05
-0.000115686
0.000111504
-3.22279e-06
-0.000110405
-7.28969e-05
-7.27451e-05
-9.28959e-05
1.17939e-06
8.98688e-05
-0.000112423
0.000109421
2.23423e-06
0.00011251
-0.00011405
-6.64088e-06
-0.000133378
0.000121535
1.75958e-06
0.00011256
-0.000114729
0.000135266
-6.63838e-05
-6.94448e-05
5.99805e-06
0.00010686
9.44727e-05
2.86701e-05
-0.000115819
3.50848e-06
0.000114328
-0.000117501
4.81215e-06
-2.80164e-05
8.85797e-05
-0.000117853
2.93295e-05
-3.32301e-05
8.70911e-05
-0.000102905
1.54282e-05
-0.000149225
0.000137948
-0.000107574
-4.54576e-06
-1.75057e-05
0.000104421
4.84815e-06
5.04673e-05
8.34314e-05
0.000120848
-0.000118232
0.000113576
-9.03754e-07
-0.000107977
3.51931e-05
0.000111133
1.1937e-07
-0.000111421
-0.0001327
0.000103195
0.000105857
-8.89595e-05
1.25306e-06
-0.000107542
2.47324e-06
-0.000114257
0.000110183
-3.17804e-06
0.000120366
6.47199e-05
6.22028e-05
-0.000126885
6.86404e-05
5.46057e-05
-0.000121153
-0.000115794
-3.00015e-06
0.00011031
-1.23074e-06
-0.000113623
0.000113816
7.51983e-06
0.000116782
-0.000117073
0.000112956
-0.000115111
0.000114429
-0.000115451
1.16155e-06
-1.38633e-06
0.000113333
4.11404e-07
0.000110785
-0.00011135
0.000112809
-0.000115573
-0.000121516
-4.04994e-05
7.11614e-05
-3.28795e-05
-4.51471e-05
7.8691e-05
-3.64957e-05
-0.000136418
3.73398e-05
0.000115085
-0.00011445
-2.89811e-07
-0.000116214
0.000116714
-1.24979e-05
0.000123023
-0.000110382
0.000126468
-7.98799e-05
9.31441e-05
2.89223e-05
-0.000109315
3.34378e-06
0.000105975
7.68534e-05
-0.000131465
5.23898e-05
0.000117881
5.8098e-06
-0.000116306
-0.000136399
7.92721e-05
5.71244e-05
-2.82752e-05
0.000109447
-0.000106386
-0.000115729
-1.40519e-06
-0.000110248
0.000110955
-7.68595e-07
4.31934e-08
-0.000110365
-0.000120296
0.000105154
1.18825e-05
-0.000117607
0.000114985
2.67111e-06
-0.000112801
-4.66218e-06
8.63246e-05
-0.000116768
3.10119e-05
-0.00012189
-1.62459e-07
0.000116607
-2.86736e-05
-0.000175862
0.000102124
-0.000119637
0.000112675
6.90121e-06
-0.000117131
-2.66144e-06
-0.00011654
0.000113424
3.11285e-06
-0.000113355
-3.07528e-06
-0.000116467
-0.000112977
0.000113614
-5.45565e-07
-0.000115308
8.71361e-06
0.000106587
0.000114963
-0.000111857
-9.74057e-05
-4.33577e-08
-0.000116172
4.55094e-06
0.000111617
-0.000109047
-2.91683e-06
0.000111955
9.03259e-05
-1.53408e-06
0.000109742
-0.000108271
-0.00011207
-2.1768e-06
0.000114262
-0.000113414
2.46254e-06
0.000110974
-6.41617e-05
-8.10095e-05
3.97888e-06
0.000121147
-5.15336e-05
0.000117011
4.53157e-06
0.000108898
1.94897e-06
-0.000110849
6.53338e-07
0.000112373
-0.000113031
-0.000109787
0.000117043
-4.8847e-05
0.000115194
-5.20193e-06
-0.000109993
-0.00011478
2.16669e-06
0.000112615
9.16116e-05
2.92611e-05
-0.000113844
2.10543e-06
0.000111734
0.000107573
2.10526e-06
-0.000109687
-2.86089e-05
0.000118819
-1.913e-06
-0.000113364
1.71963e-07
0.000112984
6.421e-06
9.14046e-07
-0.000114279
-0.000111868
0.000112724
8.67005e-07
-0.00011259
-9.26101e-05
7.37246e-05
0.000114062
-3.45393e-06
-0.000110605
8.63967e-05
-0.000117176
3.00097e-05
-3.39422e-05
0.000123003
-0.000122998
-0.000119355
0.000146031
1.86633e-06
-0.000113253
2.70914e-06
0.000110554
-6.75631e-05
-7.54036e-05
-0.00014779
0.00013956
0.000112412
-0.000111748
-6.14646e-07
-0.000112081
4.07948e-06
-0.000134449
3.70853e-05
-0.00011166
2.41973e-07
-0.0001093
0.000108114
-9.83179e-07
0.000108759
-0.000107787
-0.000114397
3.95432e-06
0.000110314
0.000127184
-0.000138676
0.000119173
-0.000113323
0.00010953
-0.000114084
-7.34938e-05
9.21973e-05
-2.33017e-06
0.000114259
-1.62391e-06
-0.000113595
0.000111049
-0.000115852
0.000112725
0.000118238
-0.000118307
-0.000118103
0.000115369
2.83452e-06
-0.00011314
-4.75583e-06
-0.000120195
0.000115072
5.06458e-06
-0.000115936
-4.49251e-06
-0.000120819
0.000115733
5.07394e-06
-0.000116152
-4.50749e-06
-0.000120328
0.000115349
5.0407e-06
-0.000115959
-4.47664e-06
0.000126634
-8.3006e-05
-5.68712e-07
-0.000110232
0.000112127
-0.000121022
0.000115849
5.03118e-06
-0.000125537
7.85753e-05
6.83002e-05
-0.000116557
-4.46839e-06
-0.000120743
0.000116036
4.92846e-06
0.000113463
0.000109837
-0.000101658
-1.46964e-05
8.71618e-05
1.37221e-05
-0.00010185
-0.000116263
-4.34781e-06
0.000114278
-0.000120895
0.000115998
4.80391e-06
0.000118109
4.99949e-06
-0.000116748
-4.27673e-06
-0.000136044
3.32565e-05
-0.000111072
1.98388e-06
0.00010859
-0.000120991
0.000116249
4.71644e-06
-6.76046e-05
-5.23956e-05
0.000119996
-0.00011681
-4.17787e-06
9.9571e-05
-0.00010216
2.48757e-06
3.26851e-06
-0.00010868
0.000105421
-0.000121059
0.000116434
4.62198e-06
-0.00011114
-5.60694e-06
-0.000116971
-4.04843e-06
9.10341e-07
-0.000112046
-0.000109647
-9.67154e-06
5.33931e-05
-0.000120998
-0.00011661
-5.32946e-06
9.85504e-05
-1.11612e-05
-0.000110091
0.00011506
-4.9379e-06
-0.000112169
2.10066e-06
-0.000120862
0.000116445
4.50795e-06
-0.000116975
-3.9193e-06
-4.25894e-06
0.000110308
-0.000106019
1.33202e-06
0.000110137
-0.000111885
-0.000120677
0.000116118
4.41609e-06
-0.000117434
-3.24946e-06
0.000116018
-0.000118338
2.72812e-06
-2.49692e-06
0.000123222
-0.000122148
-0.000121281
0.000117069
4.15758e-06
8.73718e-05
-0.000117796
3.11236e-05
-0.000117592
-3.6277e-06
2.25729e-06
-0.000108373
0.000106151
9.74883e-05
1.38973e-05
-0.000120906
0.000117031
4.03458e-06
0.000116236
-8.008e-06
-0.000108542
-0.000117387
-3.47161e-06
0.00011664
-2.91511e-05
-2.2165e-05
2.12785e-06
-0.000108622
0.000106386
0.000111293
-0.000114609
3.30171e-06
-3.1148e-07
0.000111599
-0.000120915
0.00011706
3.85644e-06
-0.000117677
-3.29506e-06
-0.00018212
0.000110146
1.83032e-05
3.88944e-06
-0.000109342
0.000105319
5.08049e-06
-0.000110667
0.000105559
-0.000120357
0.000116631
3.70844e-06
2.36552e-06
-0.000112391
0.000109524
-0.000117801
-2.57115e-06
-7.25588e-06
0.000118305
-0.000114306
-3.00331e-06
-0.000120219
0.000116737
3.42972e-06
-0.00011799
-2.27185e-06
-0.000113216
0.000113432
-2.23082e-07
-0.000112887
0.000114666
-1.78995e-06
-8.71867e-07
5.12321e-05
-0.00012341
-6.71572e-07
-0.000112215
-0.000115045
0.000114918
0.000116795
-0.000117942
1.75264e-06
-6.25054e-05
-6.32342e-05
0.000112645
-0.000120731
0.000117478
3.1003e-06
4.8261e-07
0.000110879
-0.000111368
-0.000118227
-2.53744e-06
-1.24364e-07
-0.00011122
0.000111363
-4.15718e-06
0.000109333
-0.000105082
6.64206e-07
-0.000113499
-0.000113925
0.000116449
-0.00012051
0.000117746
2.8949e-06
-0.000118007
-2.35102e-06
-0.000113798
-7.75986e-08
0.000113223
-0.00010963
-3.46233e-07
0.000111819
-0.000119708
0.000116962
2.68395e-06
-0.000109377
-0.000118299
-1.56163e-06
-0.000115997
0.000117655
-1.66944e-06
-1.25142e-06
-0.000120227
-0.000120204
0.000117614
2.35849e-06
-0.000118511
-1.79577e-06
-0.000113666
2.04222e-06
-3.97295e-06
-0.000120022
0.000118179
2.15829e-06
-0.000118163
-1.56963e-06
-4.8002e-05
-6.65251e-05
-3.02404e-07
0.000111943
-0.000111586
-0.000112839
0.000112596
0.000110998
-0.000109744
-0.000119607
0.000117451
1.86992e-06
-0.000113233
-7.49091e-07
0.000114707
-0.000118638
-1.34336e-06
2.18926e-06
0.000112747
-8.7651e-05
-8.96178e-05
9.46428e-05
-0.000115924
1.00319e-06
0.000115943
-8.37919e-06
-0.000120015
0.000118518
1.70181e-06
-0.000118345
-1.11059e-06
0.000115297
1.60163e-06
-0.000118894
0.000117323
1.40353e-06
-0.000118591
-8.6936e-07
4.45146e-07
-0.000119048
0.000108367
-0.000118194
0.000117099
1.25734e-06
-4.06305e-05
-2.50339e-05
6.97065e-05
-7.12104e-06
8.30505e-05
-0.000113548
2.99259e-05
5.50434e-06
-0.000120811
0.00010312
-2.22835e-06
-0.000102673
-3.2287e-05
-0.000113799
6.56094e-06
0.000106385
-4.79458e-06
-8.96939e-05
-6.79856e-05
-6.42297e-05
0.000126445
-0.00011774
0.000114895
2.68689e-06
-0.000115613
-2.47107e-06
-4.40142e-06
8.77722e-05
3.02635e-05
0.000111411
-0.000110937
-0.000118091
0.000115661
2.29879e-06
0.000111307
9.36713e-05
3.14216e-06
-9.68232e-05
-3.12548e-06
-2.97955e-05
0.000101658
-8.00068e-06
0.000119683
-2.54528e-06
2.45253e-06
-1.64002e-06
0.000112956
-4.98138e-06
-0.000108151
0.000115589
-1.13035e-06
-1.45765e-06
0.000119652
5.85032e-05
6.87348e-05
-0.000132091
7.74382e-05
5.4401e-05
-8.45522e-05
-5.19101e-05
-1.41491e-05
0.00011496
-3.18054e-07
-0.000112629
-0.000118742
-0.000129357
7.95768e-05
-0.00010942
0.000110072
0.000110882
-0.000109632
-6.15765e-07
-0.000111872
-2.72671e-07
0.000112144
0.000119939
-3.90839e-05
-0.000112087
5.92834e-07
0.000111448
6.77512e-06
-0.000115193
0.000108174
-0.000111534
1.0507e-06
-9.78516e-05
4.08953e-05
9.8352e-05
-0.000105011
-2.42555e-06
0.000112263
-0.000109906
-3.32947e-06
-0.000109925
0.000113383
7.18024e-05
-0.000122305
5.04761e-05
0.000106871
-0.000111106
0.000114192
-0.000100039
-0.000150102
8.87541e-05
6.13621e-05
-0.000112552
3.22443e-07
0.000112131
-5.5002e-07
-0.000111405
-0.000128241
7.42527e-05
0.00010318
5.91591e-06
-0.000107942
0.00011154
-9.01615e-06
-5.7262e-06
2.2882e-06
-0.000119349
7.95007e-06
7.83085e-07
-0.000113017
0.000114569
-0.000115122
-3.49761e-07
0.000110319
-0.000109802
2.2713e-05
-6.34118e-05
0.000112043
-1.03044e-06
-0.000115155
0.000116809
-1.70605e-06
0.000120419
-0.000123433
-0.000114684
-6.53768e-07
-4.39103e-07
-0.000112331
-6.62301e-05
0.000100346
-3.55851e-05
-6.58367e-07
-0.000114777
0.000113563
9.13953e-05
1.31153e-05
-0.000104525
0.000112887
-0.000111401
8.25739e-05
-0.000115519
3.21567e-05
0.000102502
-1.11108e-05
-1.50254e-06
-0.000111215
0.000108452
-0.000109986
0.000107786
-0.000110978
0.000110747
-3.02945e-05
-3.05411e-06
-0.000103343
9.65114e-05
-0.000112935
0.000109197
-6.63432e-05
0.000129893
-6.35102e-05
-0.000119618
0.000117289
2.27069e-06
-3.71841e-06
0.000111088
-0.000110379
-6.81252e-05
-6.82802e-05
9.88683e-05
-0.000113114
-1.68243e-06
9.66143e-05
0.000100397
-8.70357e-05
-5.4239e-05
0.000109529
-4.96106e-05
0.000111008
-0.000118042
2.58389e-06
9.94629e-05
-4.90211e-06
-0.000101187
3.4788e-05
-1.32975e-06
0.000101179
5.43165e-07
0.000117133
-0.000120813
5.51709e-06
0.00011342
-0.000118935
-0.000119587
0.000118094
1.55324e-06
-2.92753e-06
-0.000115506
2.45179e-06
-2.90577e-06
0.000107577
-0.000104725
-0.000115632
9.48875e-05
1.46808e-05
-0.000119405
0.000118219
1.30098e-06
-0.000135216
2.88759e-05
0.000107578
-0.000110483
-2.66688e-06
-2.1927e-05
0.00011472
-1.93147e-06
-1.24944e-06
-0.000112487
0.000114512
0.000115991
-5.04163e-05
-0.000114346
1.13635e-06
-0.000110932
0.000107704
0.000104782
-2.47854e-06
0.000111591
6.18661e-06
-0.000112869
0.000106638
-0.000118898
0.000118538
5.78054e-07
-0.000108562
5.3658e-07
0.000108557
-1.89841e-06
0.00012402
-8.18223e-05
-0.000108746
-4.92965e-06
0.000110076
-0.000108502
0.000112997
-1.68732e-06
0.000116268
-1.94282e-06
7.82529e-05
-0.000108072
3.02287e-05
5.74733e-06
0.000107469
-0.00011274
-0.000110873
0.000111997
0.000126058
-0.000120784
0.000109391
-2.97559e-05
4.40819e-06
-0.000114351
0.000110411
-5.71146e-06
0.000114319
-0.000108204
7.63058e-06
0.000105755
-0.000115366
-0.000108819
0.000114376
0.00014089
-0.000111543
-2.93346e-05
4.8128e-06
-0.00010816
0.000103388
-0.000157694
0.000143216
-2.47583e-06
0.000107958
-0.000103087
5.04271e-05
9.04577e-05
0.00011426
-1.092e-06
4.78685e-06
-0.000113557
0.000109997
5.34459e-06
-0.000114896
0.000108194
8.32636e-06
0.000103117
-0.000111437
8.50844e-07
0.000110898
-0.000112079
-0.000118204
0.000105936
-0.000105767
0.000117779
-2.40065e-06
1.4663e-06
0.000109404
-0.000110887
9.07814e-05
-9.29624e-05
0.000110594
-0.000117218
1.50002e-06
4.5786e-06
0.000114209
-6.7208e-07
4.87529e-08
-0.000110019
0.000108818
-0.000107894
-1.99947e-06
9.39307e-05
-0.000103287
-0.000110964
0.000105178
8.7003e-05
3.03008e-05
-0.000114566
0.000113502
1.08193e-06
0.000117832
-0.00011892
-1.72154e-08
0.000116901
-4.02035e-07
-3.00837e-05
0.000110251
1.90406e-06
0.000117752
-0.000116404
1.95497e-07
-0.000116501
0.000116243
-8.30211e-07
0.000119689
-6.87933e-07
9.77968e-06
0.000105547
-0.000115325
-9.62187e-05
0.000106047
1.13723e-05
-0.000107518
-0.000106867
0.000102504
-0.000118775
5.22934e-07
-5.60704e-06
8.80699e-05
-0.000101679
1.36271e-05
-2.77448e-07
0.000116846
0.000107726
-0.000109496
0.000114479
9.31215e-05
-5.03677e-06
-0.000114664
-8.03537e-05
0.000104444
-2.21278e-05
0.000109782
-6.13122e-06
0.000109546
-0.000101212
7.91483e-05
-0.000110567
3.09899e-05
0.000110447
-3.21899e-05
0.000111681
-0.00012994
0.000117548
-6.36752e-06
-6.60711e-07
-0.000108732
0.000112867
-3.05248e-06
-5.32069e-05
5.10028e-05
-5.50628e-05
5.06553e-06
-0.000114037
-0.000115077
1.89178e-06
-2.37296e-06
0.000112492
-8.6936e-05
0.000116512
3.89195e-06
0.000103579
-0.000107469
0.000107004
3.20784e-07
-0.000111365
-9.68357e-05
-6.62099e-06
-1.29105e-06
-7.49272e-05
-0.000117168
3.16892e-06
5.98109e-07
0.000109313
-0.000109913
-0.000114777
-8.36823e-07
0.000118456
-0.000118444
7.71962e-07
-6.86558e-05
-8.14088e-05
-0.000114413
1.70597e-06
-0.000118342
-3.47067e-06
-5.65885e-05
-7.63061e-05
5.8047e-06
-0.000122317
-0.000107246
-0.000171925
-3.14775e-06
0.000117419
-0.000144775
6.14914e-06
-0.000100717
-1.38937e-06
0.000121276
8.93782e-05
1.75596e-06
-8.84605e-05
-0.000117798
0.0001185
-9.88061e-05
0.00012065
5.10739e-07
1.31424e-05
-9.26031e-05
-0.000123049
8.17908e-06
-0.00011745
5.1663e-07
-0.000117301
5.78068e-07
-0.000117405
6.32548e-07
-0.00011754
4.80154e-07
-1.20691e-06
-0.000117441
1.41184e-06
-0.000147558
5.42264e-05
-1.28569e-06
-0.00011691
5.99577e-07
-1.1472e-06
0.000114242
-1.32609e-06
0.000113588
-0.000116767
3.17903e-06
-0.000117655
3.1998e-07
-1.32157e-06
-0.000138833
7.77425e-05
6.10983e-05
-0.000116993
6.11374e-07
-1.01126e-06
-1.31065e-06
-0.000111492
0.000114099
-2.61951e-06
-0.000117487
1.42919e-07
0.000114303
-0.000122414
8.34708e-06
-0.000116854
5.54639e-07
-1.27192e-06
-2.15444e-08
-0.000116369
5.19669e-07
0.000116354
-0.000114186
-2.08947e-06
-0.000117529
5.14479e-08
-1.19983e-06
-4.36916e-06
-0.000116524
4.34495e-07
-6.47129e-07
-0.000114999
-1.01349e-06
-0.000117621
-9.45836e-08
-1.16353e-06
-0.000125746
5.94523e-05
0.000103985
-0.000109495
7.37916e-05
-0.00010462
3.11305e-05
-5.44625e-07
1.92844e-06
0.000113446
-2.07043e-06
-0.000111835
2.3977e-08
-0.000117488
-2.84697e-07
0.00011139
-0.00011042
2.75575e-06
-0.000111501
2.82025e-06
-1.29694e-06
-3.52777e-07
-3.55517e-05
3.70045e-06
0.000104279
-8.23613e-05
-0.00011742
-5.83626e-07
1.25284e-06
-0.000109171
-9.2544e-07
0.000109874
7.02409e-07
-0.000117353
-8.55081e-07
9.82267e-07
0.000133235
-0.000116978
-1.01076e-06
3.864e-07
-0.000117147
-1.24808e-06
1.19092e-06
-0.000112888
1.04741e-05
-0.000110358
6.21761e-07
5.16587e-06
-0.000109105
0.000104041
-0.000116968
-1.54115e-06
0.000109181
6.48968e-08
-0.00010386
0.000109111
-0.000113353
-1.21738e-06
1.70049e-06
-1.78772e-06
-0.000112221
0.00011402
-8.42409e-05
-2.92477e-06
0.000114568
-0.000116307
-1.76735e-06
1.17724e-06
-0.000116867
-1.9679e-06
9.40995e-05
1.43462e-05
1.37279e-06
-0.000131316
-4.62335e-06
0.000139306
-0.000115752
-2.22886e-06
0.00011096
0.000114355
-4.40641e-07
-2.18344e-05
1.65843e-06
-1.23847e-06
-0.000117107
-0.00011606
0.000115263
-2.47638e-06
-0.000116636
-2.4414e-06
-0.000116126
0.000119042
-1.63786e-06
-0.000116657
1.14369e-06
1.54698e-05
-0.00011017
9.56307e-05
1.86847e-06
-0.000115254
-1.95427e-06
2.13118e-06
-5.47556e-05
-7.48776e-05
0.00012932
-3.36802e-06
-7.60947e-05
9.05576e-05
0.000117936
-0.000118372
3.99157e-06
-0.000114506
-1.37e-07
8.8764e-05
-7.91802e-05
-4.8247e-06
0.000109963
-0.000105315
2.7625e-06
-8.40809e-05
-1.82146e-06
0.000121773
2.77045e-06
0.000147311
-0.000143333
-7.06615e-05
0.000135423
-0.000106051
-0.000117824
9.509e-05
-3.2607e-06
3.32976e-06
0.00010855
1.07162e-06
0.000102458
-0.000113183
5.60141e-07
0.000115753