/*--------------------------------*- C++ -*----------------------------------*\
  =========                 |
  \\      /  F ield         | OpenFOAM: The Open Source CFD Toolbox
   \\    /   O peration     | Website:  https://openfoam.org
    \\  /    A nd           | Version:  12
     \\/     M anipulation  |
\*---------------------------------------------------------------------------*/
FoamFile
{
    format      ascii;
    class       surfaceScalarField;
    location    "12";
    object      phi;
}
// * * * * * * * * * * * * * * * * * * * * * * * * * * * * * * * * * * * * * //

dimensions      [1 0 -1 0 0 0 0];

internalField   nonuniform List<scalar> 
19404
(
-0.000121962
-1.56791e-08
-0.000123828
2.20072e-07
-0.000124452
3.77154e-07
-0.00012453
3.7818e-07
-0.000124368
2.9619e-07
-0.000123978
2.12872e-07
-0.00012346
2.97802e-07
-0.000123116
3.55996e-07
-0.000122945
3.24719e-07
-0.000122843
2.36338e-07
-0.000122894
1.36164e-07
-0.000123981
9.36531e-08
-0.000126253
1.4916e-07
-0.000127431
3.15131e-07
-0.000127696
3.86235e-07
-0.000127626
3.29701e-07
-0.000127254
2.12043e-07
-0.000126598
2.29443e-07
-0.00012614
3.6529e-07
-0.000125915
3.59083e-07
-0.000125829
3.09068e-07
-0.000125779
1.83145e-07
-0.000126341
9.96148e-08
-0.000128662
1.36105e-07
-0.000130406
2.90162e-07
-0.000130876
3.77508e-07
-0.000130881
3.5323e-07
-0.000130477
1.99362e-07
-0.000129667
1.40133e-07
-0.000129068
3.1919e-07
-0.000128795
3.85966e-07
-0.000128699
3.33911e-07
-0.000128663
2.43017e-07
-0.000128945
1.15749e-07
-0.000131143
1.17602e-07
-0.000133357
2.53707e-07
-0.000134042
3.68088e-07
-0.000134109
3.52602e-07
-0.000133659
1.68752e-07
-0.000132542
7.28161e-08
-0.000131695
2.48164e-07
-0.000131335
3.8248e-07
-0.000131213
3.28163e-07
-0.000131216
2.46327e-07
-0.000131409
9.28066e-08
-0.000133776
1.11221e-07
-0.000136481
3.02903e-07
-0.000137293
4.11627e-07
-0.000137323
3.64799e-07
-0.000136616
1.56054e-07
-0.000135006
-6.04764e-08
-0.00013386
1.12325e-07
-0.00013335
2.7809e-07
-0.000133195
3.38438e-07
-0.000133217
2.51789e-07
-0.000133458
8.53223e-08
-0.000136352
1.14947e-07
-0.000139559
2.51409e-07
-0.000140537
3.94676e-07
-0.000140564
3.70923e-07
-0.000139492
1.80217e-07
-0.000136759
-1.45747e-07
-0.000135122
4.76319e-09
-0.00013456
1.67619e-07
-0.000134443
2.3535e-07
-0.000134495
1.39212e-07
-0.000135214
-4.41436e-08
-0.000139169
1.28019e-07
-0.000142355
1.16376e-07
-0.000143327
2.88846e-07
-0.0001434
3.97504e-07
-0.000142096
2.40905e-07
-0.000137846
-1.48606e-08
-0.000135183
-7.92816e-08
-0.000134461
-6.42996e-08
-0.000134415
-2.17576e-08
-0.000134572
-1.75051e-07
-0.000137258
-3.80397e-07
-0.00014292
2.33747e-07
-0.000145485
2.31446e-07
-0.00014597
3.08098e-07
-0.000145761
4.08511e-07
-0.000142612
4.1254e-07
-0.000136359
-4.19349e-07
-0.000132287
-6.57174e-07
-0.000131441
2.59211e-07
-0.000131505
-8.4778e-07
-0.000134897
-4.02224e-07
-0.00014299
-7.07827e-07
-0.000146449
-4.15111e-07
-0.000147238
2.50179e-07
-0.000147376
4.70704e-07
-0.000144722
2.32272e-07
-0.000136677
-2.42948e-08
-0.000127997
-2.55461e-07
-0.000122613
5.11628e-08
-0.000120808
-4.80357e-06
-0.000113461
-2.2644e-05
1.58033e-05
-0.000131351
1.61666e-07
-0.000132587
4.02759e-07
-0.000132904
4.50143e-07
-0.00013289
4.63284e-07
-0.000132757
4.36503e-07
-0.000132168
3.75214e-07
-0.000131059
3.72745e-07
-0.000130496
3.97036e-07
-0.000130251
3.88999e-07
-0.000130121
3.31015e-07
-0.000130188
2.7507e-07
-0.000131671
2.61223e-07
-0.000133586
3.439e-07
-0.000134299
4.1778e-07
-0.000134428
4.7029e-07
-0.000134362
4.52813e-07
-0.000134011
3.80749e-07
-0.000132706
3.50297e-07
-0.000131868
3.69563e-07
-0.000131553
3.99476e-07
-0.000131409
3.72215e-07
-0.000131358
2.99481e-07
-0.000132049
2.51516e-07
-0.000134342
3.22783e-07
-0.000135616
4.04332e-07
-0.000135937
4.86273e-07
-0.000135931
4.82772e-07
-0.000135726
3.82315e-07
-0.000134335
3.25268e-07
-0.000133155
3.2172e-07
-0.000132711
3.60077e-07
-0.000132554
3.58412e-07
-0.000132499
3.245e-07
-0.000132794
2.40026e-07
-0.000135006
2.70271e-07
-0.000136938
3.95797e-07
-0.000137467
5.04113e-07
-0.000137509
5.04985e-07
-0.000137376
3.89854e-07
-0.000135848
3.11112e-07
-0.00013428
2.5696e-07
-0.000133706
3.13737e-07
-0.000133535
3.24084e-07
-0.000133499
3.0453e-07
-0.000133681
1.92438e-07
-0.000135843
2.21491e-07
-0.0001384
4.09239e-07
-0.000139166
5.44584e-07
-0.000139242
5.62793e-07
-0.000139106
4.23087e-07
-0.000137237
2.73423e-07
-0.000135242
1.73838e-07
-0.000134556
2.01041e-07
-0.000134337
2.75893e-07
-0.000134304
2.8614e-07
-0.000134509
1.57207e-07
-0.000137134
1.70906e-07
-0.000140212
3.29655e-07
-0.000141114
5.21114e-07
-0.000141207
5.74059e-07
-0.000140973
4.80481e-07
-0.000138343
2.98189e-07
-0.000135801
1.07399e-07
-0.000135035
5.83857e-08
-0.000134802
8.89957e-08
-0.000134812
1.08717e-07
-0.000135426
-1.4051e-08
-0.000139456
9.44388e-08
-0.000142628
3.38657e-07
-0.00014336
5.84177e-07
-0.000143442
6.86626e-07
-0.000142822
6.22299e-07
-0.000138856
4.34814e-07
-0.000135562
2.51045e-08
-0.000134681
-2.55483e-07
-0.000134541
-2.8725e-07
-0.000134702
-3.91707e-07
-0.000137398
-3.62873e-07
-0.00014237
1.43165e-08
-0.000144602
3.56031e-07
-0.000145243
6.29409e-07
-0.000145359
6.65009e-07
-0.000143866
6.29826e-07
-0.000137169
-4.06956e-08
-0.00013261
-7.55265e-07
-0.000131689
-1.06005e-06
-0.000131695
-1.03798e-06
-0.00013343
-1.33831e-06
-0.000139279
-1.44285e-06
-0.000143217
-7.80459e-07
-0.000144352
-1.49409e-07
-0.00014461
-7.80405e-08
-0.000142633
-3.05917e-07
-0.000134453
-1.207e-06
-0.000125033
-2.09137e-06
-0.000118231
-2.39089e-06
-0.000115016
-1.00221e-05
-0.000124096
-2.61407e-05
2.19028e-05
-0.000130734
2.85619e-07
-0.00013193
5.84722e-07
-0.000132245
5.72612e-07
-0.000132265
5.60981e-07
-0.000132141
5.52904e-07
-0.000131622
5.1937e-07
-0.000130542
5.06455e-07
-0.000129945
4.65716e-07
-0.000129664
4.25995e-07
-0.000129556
4.17901e-07
-0.000129599
3.73785e-07
-0.00013107
4.0868e-07
-0.000132939
5.06026e-07
-0.00013364
5.79607e-07
-0.000133774
5.66552e-07
-0.000133721
5.61238e-07
-0.000133401
5.17534e-07
-0.000132175
5.07948e-07
-0.000131349
4.62523e-07
-0.000130985
4.20787e-07
-0.000130831
4.10522e-07
-0.000130793
4.04094e-07
-0.000131428
3.79989e-07
-0.000133668
4.70403e-07
-0.000134974
5.84435e-07
-0.000135291
5.96064e-07
-0.000135303
5.92787e-07
-0.000135144
5.48072e-07
-0.000133832
4.81118e-07
-0.000132672
4.28368e-07
-0.000132223
3.74622e-07
-0.000132039
3.65253e-07
-0.000131972
3.73325e-07
-0.000132193
3.43151e-07
-0.000134307
4.14982e-07
-0.000136287
5.80228e-07
-0.000136843
6.51517e-07
-0.000136908
6.38871e-07
-0.000136789
5.65071e-07
-0.000135373
4.99492e-07
-0.000133879
3.75623e-07
-0.000133322
3.0845e-07
-0.000133084
2.95998e-07
-0.000132984
3.2292e-07
-0.000133084
3.0366e-07
-0.000135036
3.5715e-07
-0.000137695
5.38234e-07
-0.000138563
6.82445e-07
-0.000138683
7.04764e-07
-0.000138577
6.22407e-07
-0.000136864
5.24954e-07
-0.000134802
3.43593e-07
-0.000134071
2.11279e-07
-0.000133813
1.63255e-07
-0.00013376
2.10209e-07
-0.000133935
2.1237e-07
-0.00013623
2.59714e-07
-0.000139346
4.68846e-07
-0.00014039
6.80859e-07
-0.000140553
7.51291e-07
-0.000140432
7.10089e-07
-0.000138241
5.99483e-07
-0.000135378
2.77496e-07
-0.000134295
8.53777e-09
-0.000133996
-6.51608e-08
-0.000133987
-1.05369e-08
-0.000134463
-2.04587e-08
-0.00013796
9.09781e-08
-0.000141291
4.67466e-07
-0.000142322
7.57545e-07
-0.000142476
8.97888e-07
-0.00014224
8.18607e-07
-0.000139002
6.93569e-07
-0.000134918
4.57365e-08
-0.00013346
-4.17898e-07
-0.000133215
-5.55058e-07
-0.000133315
-5.93074e-07
-0.000134952
-6.60895e-07
-0.000139715
-2.70079e-07
-0.000142693
4.20793e-07
-0.000143673
7.65171e-07
-0.000143811
7.9838e-07
-0.000143141
7.06384e-07
-0.000137046
3.60802e-07
-0.000131393
-7.44981e-07
-0.000129743
-1.62935e-06
-0.000129697
-2.01102e-06
-0.000130135
-2.26541e-06
-0.000134307
-2.40221e-06
-0.000139313
-1.76283e-06
-0.000141344
-1.0031e-06
-0.000141622
-8.21736e-07
-0.00014067
-1.13122e-06
-0.000133681
-2.02689e-06
-0.000124802
-4.05685e-06
-0.000117552
-6.1716e-06
-0.000114177
-1.54857e-05
-0.000126511
-2.42804e-05
2.50029e-05
-0.000129743
3.66761e-07
-0.000130861
7.27219e-07
-0.000131153
7.23047e-07
-0.000131168
6.90017e-07
-0.000131049
6.65475e-07
-0.000130645
6.38381e-07
-0.000129544
6.39965e-07
-0.00012888
5.87371e-07
-0.000128611
5.29217e-07
-0.000128481
4.71374e-07
-0.000128613
4.47952e-07
-0.00013011
4.89051e-07
-0.000131882
6.46612e-07
-0.000132517
7.27193e-07
-0.000132678
7.30999e-07
-0.000132624
6.79983e-07
-0.000132405
6.54829e-07
-0.00013122
6.29387e-07
-0.00013025
5.8389e-07
-0.000129876
5.22443e-07
-0.000129737
4.80473e-07
-0.000129713
4.42532e-07
-0.000130441
4.47986e-07
-0.000132634
5.94675e-07
-0.000133871
7.25483e-07
-0.000134219
7.59916e-07
-0.000134249
7.21788e-07
-0.000134123
6.69673e-07
-0.000132979
6.19293e-07
-0.000131595
5.75213e-07
-0.000131063
4.70881e-07
-0.000130873
4.33626e-07
-0.000130827
4.05609e-07
-0.000131116
3.89321e-07
-0.000133183
4.96972e-07
-0.00013518
7.11738e-07
-0.000135773
7.96657e-07
-0.000135877
7.9076e-07
-0.000135816
7.19882e-07
-0.000134653
6.44248e-07
-0.000132867
5.56058e-07
-0.000132133
4.12064e-07
-0.000131859
3.55789e-07
-0.000131783
3.41992e-07
-0.000131904
3.27557e-07
-0.000133745
4.05691e-07
-0.000136496
6.13081e-07
-0.00013745
7.81354e-07
-0.000137605
8.22075e-07
-0.000137571
7.93404e-07
-0.00013631
7.28533e-07
-0.000133845
5.66075e-07
-0.000132819
2.78869e-07
-0.000132487
1.46937e-07
-0.000132404
1.55683e-07
-0.000132539
1.71726e-07
-0.000134564
2.68502e-07
-0.000137783
5.54755e-07
-0.000139025
8.14072e-07
-0.000139303
9.17843e-07
-0.000139293
8.8736e-07
-0.00013792
7.7594e-07
-0.000134448
4.87492e-07
-0.000132802
8.06458e-08
-0.000132366
-1.62928e-07
-0.000132295
-1.61108e-07
-0.000132542
-1.57681e-07
-0.000135397
-4.12365e-08
-0.00013913
4.47189e-07
-0.000140541
8.43059e-07
-0.000140834
1.01418e-06
-0.000140862
9.79048e-07
-0.000139029
8.65912e-07
-0.000133966
2.8881e-07
-0.00013147
-3.8901e-07
-0.000131018
-8.44692e-07
-0.000131025
-9.25177e-07
-0.000131714
-1.00447e-06
-0.000135927
-7.88493e-07
-0.000139707
5.989e-08
-0.000140857
7.04672e-07
-0.000141089
9.35886e-07
-0.00014099
8.63477e-07
-0.000137444
6.71375e-07
-0.000130664
-5.31211e-07
-0.000127263
-1.89232e-06
-0.000126817
-2.80787e-06
-0.000126875
-3.21648e-06
-0.000128618
-3.49166e-06
-0.000132889
-3.22159e-06
-0.000135308
-2.41515e-06
-0.000136122
-2.10821e-06
-0.000136083
-2.50314e-06
-0.000132092
-3.02622e-06
-0.00012495
-4.83454e-06
-0.00011816
-7.22114e-06
-0.000115226
-1.56925e-05
-0.000126877
-2.27767e-05
2.76719e-05
-0.000128661
4.6788e-07
-0.000129705
8.47888e-07
-0.000129945
8.56946e-07
-0.000129957
8.39411e-07
-0.000129849
8.04901e-07
-0.000129525
7.60249e-07
-0.000128473
7.39279e-07
-0.000127706
6.92735e-07
-0.000127398
6.42805e-07
-0.000127259
5.65247e-07
-0.000127346
4.93958e-07
-0.000128947
5.61309e-07
-0.000130701
7.60624e-07
-0.000131311
8.7911e-07
-0.000131427
8.70688e-07
-0.000131398
8.39737e-07
-0.000131202
7.76004e-07
-0.0001302
7.54844e-07
-0.000129081
6.95392e-07
-0.000128632
6.20104e-07
-0.000128436
5.53267e-07
-0.000128373
5.03209e-07
-0.000129113
4.91663e-07
-0.000131385
6.77306e-07
-0.000132648
8.56511e-07
-0.000132964
9.0691e-07
-0.00013299
8.68204e-07
-0.000132892
8.13849e-07
-0.000131992
7.62675e-07
-0.000130435
6.9517e-07
-0.0001298
5.55756e-07
-0.000129546
4.9821e-07
-0.000129451
4.64835e-07
-0.000129647
4.3823e-07
-0.00013167
5.3893e-07
-0.000133795
7.93325e-07
-0.000134467
9.32874e-07
-0.000134574
9.3728e-07
-0.000134544
8.97283e-07
-0.000133753
8.12173e-07
-0.000131696
7.1512e-07
-0.00013075
5.03986e-07
-0.000130427
3.55486e-07
-0.000130322
3.42235e-07
-0.000130413
3.55684e-07
-0.000132028
4.06825e-07
-0.000134764
6.77753e-07
-0.000135871
9.03457e-07
-0.000136116
9.79925e-07
-0.00013613
9.84054e-07
-0.000135476
9.14784e-07
-0.000132851
7.24164e-07
-0.000131277
3.59042e-07
-0.000130835
1.30966e-07
-0.000130697
8.85073e-08
-0.000130785
1.26276e-07
-0.000132448
1.99999e-07
-0.0001357
5.26437e-07
-0.000137191
9.12369e-07
-0.000137571
1.07124e-06
-0.000137627
1.06115e-06
-0.00013715
9.7335e-07
-0.000133851
7.25669e-07
-0.000131116
2.151e-07
-0.000130419
-1.97953e-07
-0.000130292
-3.66887e-07
-0.000130406
-3.86163e-07
-0.000132384
-3.1919e-07
-0.000136381
1.90538e-07
-0.000138199
8.45998e-07
-0.000138606
1.13459e-06
-0.000138703
1.1516e-06
-0.000138158
1.00552e-06
-0.000133888
6.73103e-07
-0.000129832
-3.76538e-07
-0.000128733
-1.00981e-06
-0.00012866
-1.33517e-06
-0.000128813
-1.4348e-06
-0.000131304
-1.39787e-06
-0.000135974
-6.45803e-07
-0.000138127
3.97631e-07
-0.000138588
8.71503e-07
-0.000138751
9.46806e-07
-0.000137586
7.90521e-07
-0.000131582
2.44103e-07
-0.000126054
-1.8773e-06
-0.000124141
-3.06962e-06
-0.000124157
-3.93988e-06
-0.000124705
-4.47237e-06
-0.000128068
-4.58472e-06
-0.000131341
-4.06089e-06
-0.000132847
-3.62395e-06
-0.000133184
-3.95309e-06
-0.000132432
-4.55155e-06
-0.000127583
-5.62856e-06
-0.000120999
-7.81977e-06
-0.000116525
-1.48265e-05
-0.000126656
-2.11643e-05
3.03909e-05
-0.000127543
5.6288e-07
-0.00012862
9.64643e-07
-0.000128858
9.93029e-07
-0.000128866
9.9182e-07
-0.00012876
9.5111e-07
-0.000128499
8.85766e-07
-0.000127547
8.39541e-07
-0.000126693
7.76661e-07
-0.000126311
7.06016e-07
-0.000126148
6.59878e-07
-0.000126157
5.91237e-07
-0.000127656
6.22769e-07
-0.000129559
8.52715e-07
-0.000130188
1.00094e-06
-0.000130313
1.02401e-06
-0.000130267
9.97394e-07
-0.000130127
9.37073e-07
-0.000129286
8.69937e-07
-0.000128032
7.77416e-07
-0.000127489
6.88318e-07
-0.000127262
6.12903e-07
-0.000127185
5.93949e-07
-0.000127719
5.51549e-07
-0.000130039
7.08067e-07
-0.000131441
9.5173e-07
-0.000131791
1.04506e-06
-0.000131832
1.04387e-06
-0.000131748
9.87954e-07
-0.000131093
9.20689e-07
-0.000129413
7.94545e-07
-0.000128586
6.20458e-07
-0.000128263
5.14538e-07
-0.000128158
5.08363e-07
-0.000128258
4.86114e-07
-0.000130092
5.81337e-07
-0.000132377
8.38976e-07
-0.000133173
1.03822e-06
-0.000133335
1.08014e-06
-0.000133327
1.08104e-06
-0.000132935
9.93983e-07
-0.00013088
8.53335e-07
-0.000129411
5.91544e-07
-0.000128978
3.90231e-07
-0.000128842
3.09992e-07
-0.000128882
3.26736e-07
-0.000130279
4.00449e-07
-0.000133034
7.00355e-07
-0.000134317
1.0069e-06
-0.000134706
1.14897e-06
-0.000134772
1.14283e-06
-0.000134614
1.05593e-06
-0.000132587
9.13052e-07
-0.000129967
4.61168e-07
-0.000129145
1.98049e-07
-0.000128984
5.38209e-08
-0.000129013
5.10939e-09
-0.000130227
2.74268e-08
-0.000133623
3.877e-07
-0.000135488
9.39371e-07
-0.000135982
1.21155e-06
-0.000136095
1.23966e-06
-0.000136048
1.15504e-06
-0.000133979
9.69724e-07
-0.000130185
3.19283e-07
-0.000128648
-1.38977e-07
-0.000128471
-4.40669e-07
-0.000128487
-6.07586e-07
-0.000129479
-6.39088e-07
-0.000133468
-2.39142e-07
-0.000136245
6.58718e-07
-0.000136923
1.19947e-06
-0.000137036
1.32864e-06
-0.000136986
1.20418e-06
-0.000134493
9.07272e-07
-0.000129589
2.95608e-08
-0.000127138
-1.0204e-06
-0.00012667
-1.61867e-06
-0.000126701
-1.82491e-06
-0.000127487
-1.92964e-06
-0.000131697
-1.64325e-06
-0.000135447
-4.65812e-07
-0.000136704
4.5792e-07
-0.000136963
7.64452e-07
-0.000136904
7.60114e-07
-0.000133687
6.10401e-07
-0.000127134
-7.45148e-07
-0.000123204
-2.98513e-06
-0.000122383
-4.13506e-06
-0.000122411
-5.17547e-06
-0.000123976
-5.67008e-06
-0.000127324
-5.60347e-06
-0.000129366
-5.20973e-06
-0.000130377
-5.3695e-06
-0.000130744
-6.24317e-06
-0.000129398
-6.97134e-06
-0.000125149
-8.69149e-06
-0.000120368
-1.33116e-05
-0.000125428
-2.04833e-05
3.33681e-05
-0.000126565
6.56222e-07
-0.000127747
1.08324e-06
-0.000128037
1.14912e-06
-0.000128045
1.1236e-06
-0.000127946
1.0845e-06
-0.000127713
9.9501e-07
-0.000126788
9.34693e-07
-0.000125838
8.7122e-07
-0.000125425
7.79724e-07
-0.000125253
7.35801e-07
-0.000125242
6.69077e-07
-0.000126556
6.84475e-07
-0.000128552
9.23785e-07
-0.000129299
1.1405e-06
-0.000129472
1.18329e-06
-0.000129445
1.14451e-06
-0.000129327
1.07539e-06
-0.00012866
9.82198e-07
-0.000127192
8.68754e-07
-0.0001265
7.45197e-07
-0.000126268
6.87824e-07
-0.000126167
6.17623e-07
-0.000126621
6.00193e-07
-0.00012885
7.5377e-07
-0.000130403
1.04882e-06
-0.00013085
1.20193e-06
-0.00013093
1.21488e-06
-0.000130887
1.16162e-06
-0.000130541
1.0709e-06
-0.000128817
9.1626e-07
-0.000127495
7.2123e-07
-0.000127107
5.7584e-07
-0.000126984
5.12899e-07
-0.000127115
4.82648e-07
-0.00012876
5.56944e-07
-0.000131104
8.75767e-07
-0.000132036
1.15651e-06
-0.000132315
1.26998e-06
-0.000132332
1.22076e-06
-0.000132228
1.14657e-06
-0.000130777
1.00608e-06
-0.00012851
6.10038e-07
-0.000127706
4.7148e-07
-0.000127546
3.6053e-07
-0.000127556
2.74926e-07
-0.000128679
2.99299e-07
-0.000131559
6.32563e-07
-0.000133101
1.08784e-06
-0.000133525
1.30123e-06
-0.000133637
1.3042e-06
-0.000133642
1.21383e-06
-0.000132627
1.06491e-06
-0.000129564
7.31214e-07
-0.000127931
3.04549e-07
-0.000127649
5.10617e-08
-0.000127619
-9.15226e-08
-0.000128226
-1.50081e-07
-0.000131464
1.05934e-07
-0.000134121
8.45172e-07
-0.000134849
1.33418e-06
-0.000134992
1.4521e-06
-0.000134995
1.33163e-06
-0.000134053
1.16233e-06
-0.000130339
7.29272e-07
-0.000127856
-1.22663e-07
-0.000127151
-5.52869e-07
-0.000127117
-7.03597e-07
-0.000127312
-8.02545e-07
-0.000130038
-7.19865e-07
-0.000134206
1.25812e-07
-0.000135806
1.09898e-06
-0.000136064
1.42594e-06
-0.000136138
1.42072e-06
-0.000135301
1.17154e-06
-0.000130805
7.22021e-07
-0.000126815
-7.35245e-07
-0.000125338
-1.66414e-06
-0.000125224
-2.11152e-06
-0.000125347
-2.37063e-06
-0.000127514
-2.4787e-06
-0.000132263
-1.7568e-06
-0.000134984
-4.16528e-07
-0.000135802
3.3663e-07
-0.000135997
5.43876e-07
-0.000135364
6.45012e-07
-0.000130455
5.80002e-08
-0.000124791
-1.88251e-06
-0.000121876
-4.14374e-06
-0.000121422
-5.31596e-06
-0.000121675
-6.30118e-06
-0.000124126
-6.74195e-06
-0.000127064
-6.59067e-06
-0.000128582
-6.53853e-06
-0.000129333
-7.28628e-06
-0.000129403
-8.63628e-06
-0.000127729
-9.82913e-06
-0.000123726
-1.24159e-05
-0.00012458
-1.98728e-05
3.60599e-05
-0.000125782
7.52907e-07
-0.00012709
1.18539e-06
-0.000127409
1.26666e-06
-0.000127453
1.25238e-06
-0.000127359
1.19839e-06
-0.000127201
1.1324e-06
-0.000126424
1.04618e-06
-0.000125238
9.56102e-07
-0.000124742
8.78518e-07
-0.000124535
8.00886e-07
-0.000124483
7.36168e-07
-0.000125641
7.51512e-07
-0.00012776
9.75079e-07
-0.000128619
1.26124e-06
-0.000128815
1.30351e-06
-0.000128816
1.27224e-06
-0.000128724
1.19892e-06
-0.00012834
1.11402e-06
-0.000126806
9.941e-07
-0.000125807
8.41349e-07
-0.000125479
7.4716e-07
-0.000125379
6.8639e-07
-0.000125679
6.19964e-07
-0.000127826
7.57092e-07
-0.000129577
1.10276e-06
-0.000130112
1.34155e-06
-0.00013023
1.35376e-06
-0.000130213
1.30891e-06
-0.000130086
1.21903e-06
-0.000128823
1.10445e-06
-0.000126942
8.12179e-07
-0.000126273
6.82396e-07
-0.00012612
5.70008e-07
-0.000126124
4.90826e-07
-0.000127495
5.03986e-07
-0.000130083
8.38136e-07
-0.000131235
1.24909e-06
-0.000131537
1.40092e-06
-0.000131609
1.36314e-06
-0.000131581
1.28053e-06
-0.000130881
1.15828e-06
-0.000128414
9.35958e-07
-0.000126954
4.60442e-07
-0.000126603
3.90508e-07
-0.000126561
2.97192e-07
-0.00012711
2.34267e-07
-0.000130009
4.22499e-07
-0.00013224
1.06609e-06
-0.000132858
1.44274e-06
-0.000132988
1.48968e-06
-0.000132999
1.39683e-06
-0.000132569
1.24304e-06
-0.000129815
1.00401e-06
-0.00012755
3.63656e-07
-0.000126811
1.69965e-08
-0.000126715
-1.12167e-07
-0.000126815
-1.87648e-07
-0.000128872
-1.79253e-07
-0.000132619
4.91431e-07
-0.000134102
1.31904e-06
-0.000134357
1.60288e-06
-0.000134413
1.55059e-06
-0.000134167
1.36875e-06
-0.00013133
1.12915e-06
-0.000127897
2.62088e-07
-0.000126432
-5.41434e-07
-0.000126093
-8.2746e-07
-0.000126129
-9.24431e-07
-0.000127032
-1.04995e-06
-0.000131339
-6.96218e-07
-0.00013461
5.54301e-07
-0.000135511
1.38578e-06
-0.000135664
1.57731e-06
-0.000135629
1.47371e-06
-0.000133094
1.37463e-06
-0.00012783
2.72336e-07
-0.000125094
-1.43057e-06
-0.000124362
-2.18283e-06
-0.000124397
-2.72829e-06
-0.000124757
-2.91332e-06
-0.000128103
-2.87457e-06
-0.000132262
-1.80291e-06
-0.000134203
-5.47562e-07
-0.000134814
1.97608e-08
-0.000134983
1.30173e-07
-0.000133795
1.85334e-07
-0.000128446
-8.30685e-07
-0.000123363
-2.95296e-06
-0.000121067
-5.28651e-06
-0.000120914
-6.40152e-06
-0.000121463
-7.55768e-06
-0.000124369
-7.83783e-06
-0.000126861
-7.64862e-06
-0.000128131
-8.03572e-06
-0.000128635
-9.46217e-06
-0.000128444
-1.08125e-05
-0.000126318
-1.21394e-05
-0.000124093
-1.87155e-05
3.84864e-05
-0.000125168
8.1328e-07
-0.000126701
1.25397e-06
-0.000127106
1.39146e-06
-0.000127157
1.37266e-06
-0.000127089
1.32884e-06
-0.000126947
1.25688e-06
-0.000126351
1.16755e-06
-0.000125039
1.06512e-06
-0.000124399
9.65422e-07
-0.000124155
8.78319e-07
-0.000124055
8.17835e-07
-0.000124802
7.71694e-07
-0.000127111
9.91742e-07
-0.00012822
1.3306e-06
-0.000128487
1.42688e-06
-0.000128505
1.40489e-06
-0.000128438
1.34291e-06
-0.000128189
1.24498e-06
-0.000126819
1.12921e-06
-0.000125516
9.26705e-07
-0.000125061
8.26661e-07
-0.000124907
7.49743e-07
-0.000124956
6.68677e-07
-0.000126727
7.29648e-07
-0.000128957
1.11067e-06
-0.000129709
1.43421e-06
-0.000129879
1.48074e-06
-0.00012987
1.44641e-06
-0.000129796
1.37199e-06
-0.000128972
1.248e-06
-0.000126922
1.04932e-06
-0.000125884
7.05532e-07
-0.000125594
6.28066e-07
-0.000125525
5.34153e-07
-0.000126191
4.70029e-07
-0.000129008
7.08454e-07
-0.000130716
1.25673e-06
-0.000131149
1.49957e-06
-0.000131228
1.51151e-06
-0.000131227
1.45233e-06
-0.000130916
1.32018e-06
-0.000128684
1.16122e-06
-0.00012677
6.89057e-07
-0.000126102
4.49437e-07
-0.000125977
3.02359e-07
-0.000126039
2.21552e-07
-0.000128083
2.54234e-07
-0.000131294
8.18526e-07
-0.000132436
1.48866e-06
-0.000132647
1.63753e-06
-0.000132677
1.59646e-06
-0.000132585
1.45845e-06
-0.000130656
1.28053e-06
-0.000127748
6.97992e-07
-0.000126441
5.82742e-08
-0.000126058
-1.49675e-07
-0.000126028
-2.12481e-07
-0.000126626
-2.98179e-07
-0.000130364
-3.87101e-08
-0.000133321
9.80266e-07
-0.000134073
1.67863e-06
-0.000134141
1.70883e-06
-0.000134145
1.61003e-06
-0.000132811
1.50523e-06
-0.000128722
8.90495e-07
-0.000126233
-2.72425e-07
-0.000125493
-8.61566e-07
-0.00012541
-1.1614e-06
-0.000125523
-1.27543e-06
-0.000127809
-1.31346e-06
-0.000132555
-4.28182e-07
-0.00013479
9.98428e-07
-0.000135251
1.60732e-06
-0.000135336
1.69706e-06
-0.00013487
1.55395e-06
-0.000130933
1.22821e-06
-0.000126276
-3.92562e-07
-0.000124174
-2.08246e-06
-0.000123672
-2.77698e-06
-0.000123708
-3.15203e-06
-0.000124651
-3.42323e-06
-0.00012874
-3.20914e-06
-0.00013223
-1.9199e-06
-0.000133743
-8.47644e-07
-0.000134258
-4.42174e-07
-0.000134284
-3.58374e-07
-0.000132326
-5.64801e-07
-0.000126973
-1.80987e-06
-0.000122457
-4.16862e-06
-0.000120484
-6.48487e-06
-0.000120501
-7.59162e-06
-0.000121526
-8.85807e-06
-0.000124821
-8.93989e-06
-0.000127105
-8.84474e-06
-0.000128066
-9.84721e-06
-0.000128249
-1.13541e-05
-0.000127755
-1.23425e-05
-0.000123832
-1.71761e-05
4.07065e-05
-0.000124613
8.41211e-07
-0.000126475
1.27637e-06
-0.000126986
1.50673e-06
-0.000127071
1.51349e-06
-0.000127011
1.46164e-06
-0.000126867
1.36891e-06
-0.000126411
1.29336e-06
-0.000125058
1.17842e-06
-0.000124251
1.04807e-06
-0.000123948
9.66917e-07
-0.000123819
8.95083e-07
-0.000124164
8.10811e-07
-0.000126439
9.65499e-07
-0.00012798
1.36171e-06
-0.000128361
1.54382e-06
-0.000128407
1.54464e-06
-0.000128322
1.47041e-06
-0.000128163
1.39548e-06
-0.000127059
1.28143e-06
-0.000125481
1.06401e-06
-0.000124841
9.01868e-07
-0.000124612
8.07024e-07
-0.000124558
7.33307e-07
-0.000125629
7.02711e-07
-0.000128277
1.00549e-06
-0.00012943
1.47541e-06
-0.000129705
1.62553e-06
-0.000129727
1.58909e-06
-0.000129674
1.52681e-06
-0.000129245
1.39843e-06
-0.000127199
1.25196e-06
-0.000125792
8.67251e-07
-0.000125299
6.81993e-07
-0.000125199
5.89345e-07
-0.00012531
4.6838e-07
-0.000127574
5.73148e-07
-0.000130158
1.12368e-06
-0.000130936
1.59943e-06
-0.000131081
1.68316e-06
-0.000131068
1.62213e-06
-0.000130963
1.51109e-06
-0.000129355
1.3689e-06
-0.000126894
9.5357e-07
-0.000125889
4.65854e-07
-0.000125583
3.18641e-07
-0.000125555
2.28568e-07
-0.000126246
1.58348e-07
-0.000129763
4.43099e-07
-0.000132025
1.33393e-06
-0.000132522
1.76756e-06
-0.000132579
1.78989e-06
-0.000132568
1.66777e-06
-0.000131697
1.53181e-06
-0.000128427
1.13506e-06
-0.000126339
3.17821e-07
-0.000125622
-1.1963e-07
-0.000125468
-2.90752e-07
-0.000125552
-3.56094e-07
-0.00012751
-4.06745e-07
-0.000131829
2.88116e-07
-0.000133699
1.4649e-06
-0.00013405
1.8602e-06
-0.000134101
1.90193e-06
-0.000133847
1.75988e-06
-0.000130799
1.56927e-06
-0.000126927
3.63963e-07
-0.000125364
-7.85899e-07
-0.000124895
-1.31518e-06
-0.000124872
-1.46973e-06
-0.000125217
-1.54331e-06
-0.000128906
-1.42307e-06
-0.000133153
-7.99089e-08
-0.00013466
1.26383e-06
-0.000134993
1.72664e-06
-0.000135095
1.66279e-06
-0.000134185
1.44329e-06
-0.000129156
9.9381e-07
-0.000124955
-9.53629e-07
-0.000123428
-2.61948e-06
-0.000123211
-3.18971e-06
-0.000123282
-3.69678e-06
-0.000124824
-3.9275e-06
-0.000128964
-3.42282e-06
-0.00013177
-2.14504e-06
-0.00013294
-1.29976e-06
-0.000133326
-1.08869e-06
-0.000133245
-9.989e-07
-0.000131037
-1.65643e-06
-0.000125813
-3.00516e-06
-0.000121626
-5.44119e-06
-0.000119886
-7.73551e-06
-0.000119984
-9.00799e-06
-0.000121616
-1.02261e-05
-0.000125195
-1.01266e-05
-0.000127415
-1.04054e-05
-0.000128264
-1.16968e-05
-0.000128677
-1.23936e-05
-0.000123957
-1.52559e-05
4.27936e-05
-0.000124002
8.91283e-07
-0.000126198
1.25261e-06
-0.000126913
1.56957e-06
-0.000127041
1.63819e-06
-0.000126984
1.57854e-06
-0.000126875
1.51148e-06
-0.000126538
1.42408e-06
-0.000125209
1.31363e-06
-0.00012421
1.15567e-06
-0.000123833
1.05152e-06
-0.00012368
9.71054e-07
-0.000123737
8.71746e-07
-0.000125627
9.00706e-07
-0.000127675
1.31979e-06
-0.000128243
1.60579e-06
-0.00012833
1.67527e-06
-0.000128286
1.62305e-06
-0.000128149
1.52597e-06
-0.000127402
1.44464e-06
-0.000125618
1.25765e-06
-0.000124735
9.75619e-07
-0.000124439
8.88973e-07
-0.00012433
7.96937e-07
-0.000124723
7.10346e-07
-0.000127367
8.90389e-07
-0.000129174
1.43723e-06
-0.000129587
1.69244e-06
-0.000129653
1.73928e-06
-0.000129587
1.65487e-06
-0.000129413
1.56547e-06
-0.000127761
1.4383e-06
-0.000125847
1.08036e-06
-0.000125168
7.32943e-07
-0.00012493
6.34844e-07
-0.000124909
5.48448e-07
-0.000125992
4.7888e-07
-0.000129248
8.66192e-07
-0.000130709
1.57544e-06
-0.000130981
1.7831e-06
-0.000131007
1.79922e-06
-0.000130965
1.69862e-06
-0.000130184
1.58895e-06
-0.000127454
1.25606e-06
-0.000125883
6.49373e-07
-0.000125351
3.30247e-07
-0.000125216
2.24067e-07
-0.000125288
1.24797e-07
-0.000127546
1.75915e-07
-0.000131155
8.76527e-07
-0.000132361
1.76807e-06
-0.00013253
1.91844e-06
-0.000132541
1.89612e-06
-0.000132334
1.79078e-06
-0.000129872
1.6102e-06
-0.000126684
7.8343e-07
-0.000125479
-1.63106e-08
-0.000125147
-3.24325e-07
-0.000125107
-4.6877e-07
-0.000125471
-5.52651e-07
-0.000129081
-3.89502e-07
-0.000132754
8.18006e-07
-0.000133814
1.8444e-06
-0.000133929
2.01504e-06
-0.000133973
2.01039e-06
-0.000133154
1.87517e-06
-0.00012909
1.36008e-06
-0.000125822
-1.12311e-07
-0.000124516
-1.25008e-06
-0.000124199
-1.47173e-06
-0.000124234
-1.71989e-06
-0.00012531
-1.89624e-06
-0.000130093
-1.5004e-06
-0.000133728
2.38665e-07
-0.000134771
1.39334e-06
-0.000134897
1.64396e-06
-0.000134864
1.62082e-06
-0.000133063
1.46505e-06
-0.000127879
5.40749e-07
-0.000124315
-1.60003e-06
-0.000122941
-3.1732e-06
-0.0001227
-3.72575e-06
-0.000122875
-4.09463e-06
-0.000125048
-4.34987e-06
-0.000129026
-3.70939e-06
-0.000131378
-2.52998e-06
-0.000132423
-1.93746e-06
-0.000132655
-1.86703e-06
-0.000132415
-1.82942e-06
-0.000129918
-2.80547e-06
-0.000124837
-4.27631e-06
-0.00012082
-6.8789e-06
-0.000119315
-9.18629e-06
-0.000119495
-1.06574e-05
-0.000121948
-1.16158e-05
-0.000125754
-1.15637e-05
-0.000127808
-1.23604e-05
-0.000129059
-1.29593e-05
-0.00012429
-1.27686e-05
4.47655e-05
-0.000123394
9.44557e-07
-0.0001258
1.19471e-06
-0.00012691
1.60297e-06
-0.000127088
1.73517e-06
-0.000127056
1.71093e-06
-0.000126938
1.65348e-06
-0.000126666
1.55294e-06
-0.000125487
1.46529e-06
-0.000124258
1.28298e-06
-0.000123774
1.10896e-06
-0.000123579
1.03095e-06
-0.000123505
9.35516e-07
-0.00012469
8.79697e-07
-0.000127241
1.22976e-06
-0.000128187
1.64835e-06
-0.000128345
1.80201e-06
-0.000128311
1.76784e-06
-0.000128218
1.68828e-06
-0.000127782
1.60235e-06
-0.000125969
1.43746e-06
-0.000124752
1.1282e-06
-0.000124314
9.31412e-07
-0.000124171
8.6467e-07
-0.000124188
7.69701e-07
-0.00012609
7.78186e-07
-0.000128721
1.27645e-06
-0.000129523
1.76535e-06
-0.000129635
1.87612e-06
-0.00012961
1.81851e-06
-0.000129517
1.73081e-06
-0.000128522
1.61296e-06
-0.000126203
1.31768e-06
-0.000125136
8.67249e-07
-0.00012476
6.70537e-07
-0.000124667
5.96731e-07
-0.000124904
4.8989e-07
-0.000127669
6.1629e-07
-0.000130291
1.35144e-06
-0.00013095
1.8764e-06
-0.000131031
1.98356e-06
-0.000131011
1.90168e-06
-0.000130762
1.77697e-06
-0.000128537
1.5963e-06
-0.0001261
9.50152e-07
-0.000125237
4.05563e-07
-0.000124951
2.39731e-07
-0.000124919
1.31321e-07
-0.000125552
5.46967e-08
-0.000129316
3.28918e-07
-0.000131933
1.42388e-06
-0.000132531
2.02983e-06
-0.000132603
2.11416e-06
-0.000132588
2.05133e-06
-0.000131597
1.93966e-06
-0.000127997
1.43801e-06
-0.000125727
3.12973e-07
-0.000124933
-3.26655e-07
-0.00012467
-5.70026e-07
-0.000124695
-6.26688e-07
-0.000125921
-7.1336e-07
-0.000130542
-2.12073e-07
-0.00013323
1.27831e-06
-0.000133927
2.07629e-06
-0.000134034
2.12978e-06
-0.000134017
2.02097e-06
-0.000132054
2.03103e-06
-0.000127215
1.15181e-06
-0.000124683
-6.27505e-07
-0.000123988
-1.48606e-06
-0.000123843
-1.95755e-06
-0.000123908
-2.05305e-06
-0.000125627
-2.18707e-06
-0.000130685
-1.47278e-06
-0.000133529
3.72573e-07
-0.000134282
1.39849e-06
-0.000134444
1.60505e-06
-0.000134436
1.44341e-06
-0.00013225
1.07569e-06
-0.000126781
1.56119e-07
-0.000123473
-2.09468e-06
-0.000122371
-3.64783e-06
-0.00012229
-4.13251e-06
-0.000122589
-4.68432e-06
-0.000125304
-4.81079e-06
-0.000128901
-3.99741e-06
-0.00013085
-3.03845e-06
-0.000131769
-2.66161e-06
-0.000131943