/*--------------------------------*- C++ -*----------------------------------*\
  =========                 |
  \\      /  F ield         | OpenFOAM: The Open Source CFD Toolbox
   \\    /   O peration     | Website:  https://openfoam.org
    \\  /    A nd           | Version:  12
     \\/     M anipulation  |
\*---------------------------------------------------------------------------*/
FoamFile
{
    format      ascii;
    class       volScalarField;
    location    "26.4";
    object      rho;
}
// * * * * * * * * * * * * * * * * * * * * * * * * * * * * * * * * * * * * * //

dimensions      [1 -3 0 0 0 0 0];

internalField   nonuniform List<scalar> 
9801
(
1.13638
1.14049
1.14821
1.15845
1.16904
1.17844
1.18511
1.18853
1.18911
1.19023
1.19243
1.19705
1.21145
1.22321
1.22928
1.23308
1.23362
1.22805
1.22295
1.22397
1.22762
1.2326
1.24002
1.25325
1.27668
1.30004
1.31101
1.31533
1.31712
1.31001
1.30298
1.30377
1.30732
1.31231
1.31833
1.32696
1.34252
1.3662
1.38542
1.39551
1.40089
1.40437
1.4008
1.39388
1.39304
1.39619
1.40098
1.40658
1.41367
1.43216
1.46654
1.48834
1.49835
1.50522
1.50983
1.50083
1.48428
1.47995
1.48365
1.49017
1.49879
1.51764
1.56086
1.594
1.60902
1.61844
1.62613
1.62159
1.59869
1.58548
1.5871
1.59608
1.6087
1.64099
1.70078
1.74016
1.76021
1.77364
1.78496
1.78388
1.75078
1.72671
1.73142
1.74922
1.7819
1.86224
1.9393
1.98344
2.01466
2.04394
2.05921
2.03384
2.00012
1.99572
2.0396
2.1375
2.33441
4.74706
20.1167
1.1509
1.15671
1.16153
1.16657
1.17221
1.17958
1.18489
1.18554
1.1857
1.18771
1.19103
1.19633
1.21331
1.23121
1.24022
1.24525
1.24875
1.24684
1.23526
1.23194
1.23463
1.23847
1.24292
1.24926
1.26734
1.29578
1.31246
1.32023
1.32518
1.32533
1.3137
1.30824
1.31092
1.31548
1.3206
1.32644
1.33734
1.36467
1.38849
1.39955
1.4058
1.4109
1.41126
1.39951
1.39324
1.39571
1.40104
1.40726
1.41443
1.43295
1.46708
1.48898
1.49968
1.50717
1.5127
1.50531
1.4866
1.48027
1.48401
1.49108
1.49944
1.51788
1.56079
1.59367
1.60938
1.61952
1.62804
1.62684
1.60165
1.5844
1.58701
1.5969
1.60876
1.6377
1.69169
1.73057
1.75164
1.7673
1.78204
1.78426
1.74989
1.72562
1.72999
1.74751
1.77227
1.83077
1.90537
1.95688
1.99449
2.02839
2.04976
2.02863
1.999
1.99123
2.01173
2.07588
2.18866
4.44072
20.1156
1.1489
1.1648
1.17177
1.17747
1.18157
1.18432
1.18104
1.17414
1.17076
1.1714
1.17446
1.18311
1.20617
1.22582
1.23628
1.2425
1.24733
1.249
1.24055
1.23437
1.23449
1.23672
1.24016
1.24457
1.25769
1.28474
1.30355
1.31314
1.31922
1.32239
1.3171
1.31164
1.31226
1.31526
1.31843
1.32244
1.32943
1.35261
1.37846
1.39164
1.39916
1.40537
1.40913
1.40045
1.39142
1.39104
1.39423
1.39929
1.40565
1.4221
1.45522
1.47761
1.4888
1.49661
1.50292
1.49867
1.4803
1.47251
1.47544
1.48225
1.49039
1.50613
1.54497
1.57722
1.59337
1.60394
1.61327
1.61582
1.59366
1.57432
1.57453
1.58401
1.59538
1.61563
1.66471
1.70939
1.73287
1.74828
1.76146
1.76459
1.73594
1.70954
1.70893
1.72409
1.7446
1.78306
1.86215
1.92803
1.96658
1.99764
2.01927
2.00326
1.97625
1.9687
1.97944
2.02712
2.0686
4.18847
19.7821
1.15242
1.17212
1.17704
1.1817
1.18447
1.17439
1.15664
1.15105
1.15293
1.15754
1.16505
1.18145
1.20385
1.22084
1.23145
1.23842
1.24388
1.24663
1.23928
1.23082
1.22944
1.23173
1.23552
1.23975
1.2492
1.27286
1.29299
1.30412
1.31129
1.31684
1.31932
1.31128
1.30527
1.30476
1.3071
1.31127
1.31686
1.33543
1.36517
1.38269
1.39183
1.39859
1.40415
1.39795
1.3807
1.37515
1.37765
1.38309
1.38999
1.40562
1.43854
1.46261
1.47431
1.48203
1.4885
1.48724
1.46815
1.457
1.45904
1.46552
1.47345
1.48561
1.52
1.55467
1.5726
1.58377
1.59303
1.59786
1.58102
1.55729
1.55332
1.56076
1.57135
1.58531
1.62361
1.67203
1.69826
1.71356
1.72668
1.73696
1.72268
1.69035
1.67725
1.68751
1.70715
1.73222
1.78825
1.85717
1.90214
1.93441
1.96308
1.96362
1.93847
1.91742
1.91115
1.94394
1.95396
4.00265
19.4119
1.15377
1.1724
1.17721
1.18041
1.16963
1.1454
1.13541
1.13731
1.14218
1.15005
1.16352
1.18395
1.20145
1.2113
1.21803
1.22342
1.22673
1.22578
1.2241
1.22275
1.22345
1.22649
1.23084
1.23546
1.24457
1.26474
1.28169
1.29165
1.29839
1.30387
1.30869
1.30319
1.29238
1.29086
1.29406
1.2989
1.30447
1.31995
1.35024
1.36881
1.37741
1.38342
1.38797
1.38222
1.36281
1.35616
1.35938
1.36508
1.37171
1.38539
1.41646
1.44122
1.45291
1.46008
1.46581
1.46637
1.44924
1.43529
1.43661
1.44324
1.45125
1.46157
1.49043
1.52648
1.54587
1.55686
1.56566
1.573
1.56621
1.53959
1.5271
1.53196
1.542
1.55388
1.5796
1.62938
1.6641
1.68226
1.69618
1.70923
1.70827
1.67807
1.65214
1.64841
1.66479
1.6872
1.72409
1.78849
1.84624
1.88565
1.9185
1.93936
1.9271
1.90513
1.88571
1.88818
1.86803
3.87998
19.1644
1.14784
1.16586
1.16787
1.15956
1.139
1.12444
1.12342
1.12728
1.13245
1.14099
1.15825
1.18129
1.19456
1.19992
1.20348
1.20578
1.20581
1.20608
1.20934
1.21425
1.21847
1.22201
1.2259
1.23006
1.23808
1.25552
1.26918
1.27776
1.28435
1.28986
1.29477
1.29211
1.28067
1.27808
1.28099
1.28561
1.29115
1.30511
1.33415
1.35252
1.36059
1.36587
1.36946
1.36411
1.347
1.34015
1.34329
1.34897
1.35547
1.36664
1.39433
1.42002
1.43237
1.43957
1.44527
1.44872
1.4377
1.42003
1.41662
1.42297
1.43151
1.44128
1.46398
1.50047
1.52304
1.53458
1.54374
1.55227
1.55576
1.53477
1.51198
1.50881
1.51764
1.52922
1.54642
1.58842
1.63468
1.66008
1.67562
1.68926
1.69681
1.67721
1.64721
1.63401
1.638
1.65504
1.67894
1.72411
1.78504
1.83357
1.87049
1.90314
1.91594
1.90736
1.88541
1.86809
1.81248
3.77781
19.0661
1.13319
1.14791
1.14562
1.13406
1.12362
1.11897
1.11996
1.12322
1.12767
1.13364
1.14546
1.16801
1.18292
1.18836
1.19113
1.1941
1.19713
1.1975
1.19796
1.2023
1.20748
1.21225
1.21604
1.21969
1.22782
1.24622
1.25949
1.26716
1.27323
1.27856
1.28326
1.28037
1.26819
1.26562
1.26923
1.27445
1.28076
1.29482
1.32096
1.33787
1.34524
1.3497
1.3527
1.35092
1.3381
1.32845
1.32969
1.33537
1.34193
1.35095
1.37362
1.40122
1.4159
1.42382
1.43016
1.4363
1.43564
1.41765
1.40602
1.40839
1.41517
1.4232
1.43792
1.47268
1.50373
1.519
1.52894
1.53809
1.54672
1.53924
1.51155
1.49827
1.50158
1.5116
1.5241
1.55108
1.60308
1.64349
1.66464
1.67929
1.69178
1.68933
1.66231
1.63933
1.63115
1.63638
1.65317
1.68029
1.72994
1.78426
1.82707
1.86161
1.89131
1.89761
1.89009
1.86886
1.79136
3.68172
19.0542
1.11344
1.12136
1.11958
1.11974
1.12101
1.12061
1.1216
1.12496
1.12988
1.13303
1.1365
1.14673
1.16614
1.17753
1.18523
1.19254
1.19808
1.20137
1.199
1.19552
1.19616
1.19821
1.20158
1.20618
1.21658
1.23951
1.25578
1.26335
1.26844
1.27313
1.27759
1.27479
1.26066
1.25604
1.25966
1.26501
1.27135
1.2838
1.30655
1.32369
1.33219
1.33775
1.34281
1.34702
1.34048
1.32734
1.32375
1.32711
1.33178
1.33757
1.35186
1.38191
1.40374
1.41492
1.42311
1.43067
1.43707
1.42819
1.40886
1.40137
1.40357
1.40947
1.41791
1.44231
1.48429
1.51038
1.52345
1.53334
1.54269
1.54638
1.52392
1.49978
1.49309
1.49884
1.50975
1.52532
1.56482
1.61955
1.65386
1.67277
1.68753
1.69864
1.68838
1.65694
1.63565
1.63184
1.64019
1.65835
1.68718
1.7355
1.78246
1.81886
1.84889
1.87079
1.8763
1.86745
1.80785
3.61172
19.1132
1.09905
1.09938
1.10353
1.11172
1.1182
1.12369
1.12801
1.13188
1.13211
1.12919
1.12882
1.13213
1.14724
1.17046
1.18633
1.19587
1.20236
1.20767
1.20826
1.19672
1.18586
1.18317
1.1865
1.1925
1.20452
1.23167
1.25311
1.26199
1.26694
1.27133
1.27543
1.27412
1.26154
1.25404
1.25439
1.25727
1.26106
1.26796
1.28798
1.31036
1.32341
1.3321
1.3394
1.34577
1.34829
1.33562
1.32492
1.32187
1.32331
1.32762
1.33513
1.36027
1.39301
1.41149
1.42239
1.43079
1.43824
1.44054
1.42041
1.40115
1.39615
1.39958
1.40681
1.42037
1.45995
1.50216
1.52253
1.53371
1.54335
1.55076
1.53991
1.5088
1.49197
1.49103
1.49972
1.51201
1.53239
1.57936
1.6313
1.66283
1.68111
1.69568
1.70298
1.68836
1.66046
1.64194
1.63835
1.64597
1.66316
1.69339
1.74027
1.78194
1.81239
1.83392
1.84847
1.85191
1.82386
3.58788
19.1864
1.09168
1.09454
1.10453
1.11377
1.12057
1.12656
1.1318
1.13338
1.12778
1.12186
1.12207
1.12527
1.13701
1.16821
1.19169
1.20223
1.2077
1.21215
1.21432
1.19783
1.17695
1.17473
1.17833
1.18381
1.19502
1.2227
1.25023
1.26183
1.26707
1.27117
1.27463
1.27451
1.26461
1.25429
1.25026
1.24945
1.25146
1.25584
1.26954
1.29845
1.31988
1.332
1.34012
1.34641
1.35192
1.34746
1.32818
1.31741
1.31647
1.32094
1.32771
1.34417
1.38142
1.41028
1.42403
1.4323
1.43923
1.44506
1.43437
1.40596
1.39408
1.39513
1.40218
1.41138
1.43598
1.48573
1.5197
1.53437
1.54388
1.55092
1.55215
1.53061
1.50318
1.4942
1.49619
1.50354
1.51413
1.53403
1.58402
1.63605
1.66675
1.68558
1.70084
1.7086
1.69498
1.66688
1.64673
1.64191
1.64971
1.66652
1.69813
1.74453
1.78194
1.80589
1.81956
1.82829
1.82595
3.59444
19.2375
1.09007
1.09854
1.11031
1.12058
1.12743
1.13228
1.13482
1.12684
1.11661
1.11535
1.11877
1.12354
1.1383
1.17476
1.19852
1.20689
1.21168
1.21535
1.21105
1.19011
1.1762
1.17563
1.17946
1.18453
1.19242
1.21473
1.24567
1.2611
1.26714
1.27107
1.27409
1.27566
1.26939
1.25433
1.24464
1.24291
1.24628
1.25168
1.26135
1.28919
1.31853
1.33336
1.34131
1.3471
1.35236
1.35406
1.33529
1.31625
1.31346
1.31782
1.3246
1.33541
1.36717
1.40599
1.42439
1.43281
1.43905
1.44455
1.44284
1.41796
1.39751
1.39557
1.40135
1.4091
1.42009
1.45576
1.50347
1.52818
1.5394
1.54822
1.55638
1.55652
1.53171
1.50631
1.4968
1.49526
1.50072
1.51222
1.53713
1.59267
1.64563
1.6763
1.69455
1.70871
1.71118
1.69766
1.67287
1.65178
1.64522
1.6516
1.66702
1.70112
1.74752
1.77992
1.79622
1.80443
1.81713
3.6219
19.2634
1.09016
1.11208
1.12294
1.13005
1.1347
1.13829
1.13394
1.11558
1.10839
1.11042
1.11503
1.12278
1.14456
1.18255
1.20167
1.20904
1.21381
1.21218
1.20013
1.18797
1.17965
1.17897
1.18271
1.1885
1.19626
1.20887
1.23615
1.25719
1.26506
1.26883
1.27112
1.27309
1.27169
1.25717
1.24348
1.24123
1.24452
1.2502
1.25848
1.28202
1.31622
1.33387
1.34073
1.34533
1.34968
1.3523
1.34201
1.32077
1.31473
1.31832
1.32471
1.33176
1.35112
1.39296
1.42018
1.43038
1.43699
1.44333
1.44768
1.43665
1.41176
1.40097
1.40105
1.4053
1.41223
1.42612
1.4689
1.51364
1.5365
1.54948
1.55964
1.56865
1.56278
1.52883
1.50165
1.49383
1.49651
1.50492
1.51728
1.54334
1.59967
1.64945
1.67729
1.69499
1.70853
1.71144
1.70068
1.67739
1.65439
1.64548
1.65
1.66413
1.70088
1.74581
1.77146
1.78091
1.8004
3.66278
19.2798
1.08847
1.1247
1.13595
1.14108
1.144
1.14354
1.12862
1.11024
1.10786
1.11101
1.11509
1.12345
1.15091
1.18424
1.20207
1.20827
1.20761
1.20035
1.19651
1.19226
1.18751
1.1883
1.19254
1.19812
1.20163
1.2057
1.21996
1.24586
1.25877
1.26377
1.26691
1.27064
1.27388
1.26614
1.24822
1.24293
1.246
1.25118
1.25689
1.27214
1.30721
1.33039
1.33875
1.34393
1.34909
1.35414
1.35216
1.33374
1.32128
1.32103
1.32471
1.33036
1.33877
1.36932
1.40958
1.42882
1.43747
1.44439
1.4512
1.45226
1.43186
1.40808
1.40006
1.40089
1.40565
1.41343
1.43168
1.48116
1.52688
1.54863
1.5595
1.56654
1.57222
1.56446
1.53123
1.50613
1.49948
1.5012
1.50871
1.52138
1.54928
1.60411
1.64986
1.67613
1.69357
1.70702
1.70986
1.70207
1.67973
1.65398
1.64246
1.64488
1.65753
1.69667
1.73705
1.75492
1.77888
3.71709
19.3056
1.08646
1.13256
1.14574
1.15091
1.15387
1.14924
1.12652
1.11195
1.11057
1.11394
1.12102
1.13436
1.15399
1.17687
1.19028
1.19452
1.1935
1.19609
1.20121
1.20389
1.20144
1.20005
1.20164
1.20223
1.2011
1.20095
1.20458
1.22492
1.24879
1.25941
1.2661
1.27269
1.27787
1.27858
1.26301
1.2512
1.25005
1.2516
1.25525
1.26195
1.28831
1.32244
1.33832
1.34625
1.35235
1.35782
1.36182
1.35052
1.3298
1.32223
1.32336
1.32795
1.33408
1.34777
1.38808
1.4237
1.43926
1.4473
1.45381
1.45987
1.45383
1.42593
1.40547
1.40087
1.40322
1.40813
1.41566
1.43746
1.49194
1.53508
1.55406
1.56512
1.57503
1.58273
1.57086
1.53405
1.50875
1.50166
1.50489
1.51309
1.52524
1.55258
1.60489
1.6472
1.6726
1.69112
1.70475
1.70807
1.70161
1.67831
1.64948
1.63575
1.63657
1.64895
1.68931
1.72162
1.75052
3.78187
19.3461
1.09267
1.13816
1.14942
1.15402
1.15463
1.14176
1.12739
1.11997
1.12052
1.12587
1.13529
1.14315
1.14966
1.15991
1.17205
1.18081
1.18848
1.20003
1.20969
1.21615
1.2185
1.21298
1.20644
1.19995
1.19314
1.19091
1.1933
1.20412
1.23533
1.25822
1.26944
1.27661
1.28232
1.28708
1.28066
1.26051
1.24984
1.2482
1.25159
1.25685
1.27042
1.30825
1.33817
1.35041
1.35727
1.36225
1.36684
1.36487
1.34375
1.32659
1.32347
1.32673
1.33236
1.33906
1.35941
1.40493
1.43486
1.44629
1.45294
1.45927
1.46464
1.45412
1.42405
1.40631
1.40272
1.40399
1.40931
1.4184
1.44461
1.50125
1.54441
1.56381
1.57371
1.58009
1.58588
1.57539
1.54202
1.5165
1.5075
1.50867
1.51594
1.52795
1.55693
1.60771
1.64677
1.67094
1.68903
1.70208
1.70587
1.69878
1.67303
1.64142
1.62626
1.6257
1.64076
1.67897
1.71679
3.84484
19.3973
1.10298
1.13876
1.14846
1.15046
1.14204
1.1344
1.13327
1.13357
1.13613
1.14092
1.1463
1.14886
1.14412
1.14319
1.151
1.17058
1.19149
1.2075
1.21774
1.22373
1.22814
1.2271
1.20979
1.18874
1.17976
1.18092
1.18608
1.19548
1.22281
1.25735
1.27456
1.28235
1.28735
1.29181
1.29144
1.26912
1.2494
1.24759
1.25131
1.25657
1.26417
1.28969
1.33138
1.35239
1.3594
1.36392
1.36823
1.37222
1.36505
1.34242
1.32964
1.32793
1.33051
1.33601
1.34353
1.37184
1.41842
1.44371
1.45482
1.46228
1.46901
1.47101
1.45328
1.42218
1.40643
1.40509
1.40925
1.41505
1.42261
1.44575
1.50203
1.54643
1.56568
1.57652
1.58626
1.59379
1.58272
1.54744
1.52175
1.51207
1.51359
1.52145
1.53409
1.56256
1.61053
1.64667
1.67002
1.68762
1.70016
1.70281
1.6931
1.66469
1.63088
1.61372
1.61238
1.63092
1.67831
3.89473
19.4571
1.11019
1.13172
1.13647
1.13272
1.12912
1.13281
1.14111
1.14953
1.15466
1.15651
1.15499
1.14576
1.13578
1.13472
1.13913
1.15834
1.19319
1.21441
1.22363
1.22846
1.23222
1.23372
1.21284
1.18232
1.17577
1.1788
1.18408
1.19216
1.21572
1.25631
1.27822
1.28552
1.28977
1.29098
1.28768
1.2757
1.25664
1.25119
1.25525
1.26307
1.27145
1.28009
1.30967
1.34543
1.36002
1.36644
1.37185
1.37715
1.38101
1.36804
1.34317
1.33163
1.33031
1.33372
1.3397
1.34895
1.38427
1.43126
1.45422
1.46301
1.46694
1.47136
1.47567
1.45912
1.42807
1.41378
1.41135
1.41197
1.41644
1.42496
1.44921
1.50678
1.55301
1.5733
1.58276
1.58949
1.59368
1.58588
1.5598
1.53493
1.52254
1.52083
1.52515
1.53566
1.56552
1.61328
1.6488
1.67143
1.68719
1.69728
1.69702
1.6849
1.65489
1.61904
1.5979
1.59545
1.6319
3.91885
19.5153
1.10647
1.11478
1.11586
1.11827
1.12359
1.13886
1.15496
1.16498
1.17017
1.17119
1.1586
1.13652
1.12823
1.13019
1.13547
1.15256
1.1924
1.21883
1.22752
1.23238
1.2347
1.22473
1.20316
1.18548
1.17942
1.18188
1.18706
1.19696
1.21601
1.24928
1.27497
1.28339
1.28484
1.28265
1.28464
1.28659
1.27818
1.26904
1.27054
1.27532
1.27705
1.27979
1.2878
1.32136
1.35508
1.36916
1.37652
1.38236
1.38779
1.38965
1.37074
1.34565
1.33641
1.33595
1.33837
1.34301
1.3525
1.3904
1.43578
1.45702
1.46709
1.47567
1.48238
1.48455
1.46459
1.43208
1.41627
1.41463
1.41971
1.42708
1.43381
1.45032
1.50077
1.54688
1.56766
1.57943
1.59199
1.60127
1.59745
1.57186
1.54222
1.52421
1.51994
1.5245
1.53464
1.56826
1.61826
1.65237
1.67186
1.68476
1.69137
1.6892
1.67694
1.64608
1.60811
1.57662
1.57838
3.90507
19.5669
1.09256
1.08834
1.09679
1.11241
1.13239
1.15468
1.16961
1.17646
1.18058
1.17927
1.15306
1.12781
1.12461
1.12788
1.13359
1.15168
1.19469
1.22111
1.22941
1.23222
1.22468
1.21377
1.20448
1.19369
1.19014
1.19398
1.20254
1.2127
1.21844
1.2315
1.25682
1.27096
1.27519
1.27879
1.28785
1.29782
1.30488
1.29971
1.2867
1.27913
1.27641
1.27737
1.28091
1.29319
1.33418
1.36726
1.37998
1.38693
1.39293
1.39866
1.39793
1.37331
1.34831
1.33906
1.33685
1.33805
1.34289
1.35394
1.39435
1.44378
1.46809
1.47766
1.48153
1.48709
1.49312
1.47707
1.44484
1.42883
1.42578
1.42478
1.4263
1.43292
1.45012
1.49994
1.54981
1.57683
1.59119
1.60135
1.60589
1.60099
1.57738
1.54588
1.5258
1.52037
1.52393
1.53503
1.57127
1.6205
1.65261
1.67009
1.6809
1.68549
1.68304
1.67017
1.63789
1.5892
1.54601
3.84432
19.6194
1.07578
1.07514
1.08382
1.11078
1.15065
1.17373
1.18137
1.18479
1.18597
1.17265
1.14118
1.12632
1.12621
1.12972
1.13602
1.15851
1.19605
1.21811
1.22441
1.21997
1.21161
1.2107
1.21215
1.21073
1.20953
1.21265
1.21898
1.22231
1.2183
1.21723
1.2262
1.25159
1.27147
1.28654
1.30196
1.3149
1.32251
1.32513
1.30769
1.28337
1.27342
1.27244
1.27596
1.28135
1.30171
1.34925
1.37942
1.3909
1.39803
1.404
1.40837
1.40152
1.3716
1.34613
1.33811
1.33856
1.34126
1.34568
1.35532
1.39434
1.44533
1.47035
1.48197
1.49197
1.5001
1.50452
1.48745
1.45177
1.43077
1.42555
1.42721
1.43251
1.44055
1.45533
1.50165
1.55128
1.57763
1.59253
1.60308
1.60775
1.60521
1.58346
1.55082
1.52888
1.52192
1.52326
1.53268
1.56935
1.6203
1.653
1.66903
1.67737
1.67945
1.67548
1.66176
1.61911
1.54956
3.75564
19.6781
1.06918
1.07127
1.07844
1.11116
1.16373
1.18257
1.18823
1.19129
1.1816
1.15468
1.13651
1.12989
1.131
1.13719
1.15138
1.16979
1.18849
1.20362
1.20826
1.20647
1.20679
1.21336
1.22368
1.23331
1.23717
1.23342
1.22701
1.21776
1.20813
1.20536
1.20932
1.22772
1.26739
1.30136
1.32088
1.32908
1.33311
1.33451
1.32207
1.28882
1.27056
1.26932
1.27336
1.27877
1.28641
1.31684
1.36629
1.39144
1.40051
1.40553
1.40762
1.40928
1.40147
1.37227
1.34966
1.34311
1.34201
1.34272
1.3472
1.35674
1.39319
1.44859
1.47993
1.49214
1.49783
1.50452
1.51168
1.50125
1.46735
1.44478
1.43761
1.43636
1.43835
1.44418
1.45902
1.50365
1.55204
1.57978
1.59705
1.60899
1.61461
1.61172
1.58798
1.55146
1.52648
1.51822
1.51862
1.52772
1.56813
1.6215
1.65326
1.66612
1.66998
1.66902
1.66616
1.64612
1.58923
3.67956
19.7483
1.07225
1.07445
1.08897
1.12955
1.16759
1.18486
1.18988
1.18198
1.1627
1.14984
1.14207
1.14097
1.14724
1.16032
1.1704
1.17368
1.17205
1.17355
1.1853
1.19869
1.21075
1.2247
1.24175
1.25291
1.25844
1.25595
1.23171
1.20375
1.19366
1.19546
1.20109
1.21302
1.25819
1.31065
1.33008
1.33703
1.34044
1.33759
1.32234
1.29746
1.27518
1.2706
1.27421
1.27988
1.28732
1.2976
1.32877
1.37197
1.39252
1.40047
1.40577
1.40944
1.41334
1.40802
1.3795
1.35495
1.34653
1.34613
1.34856
1.35006
1.3554
1.38628
1.44477
1.47949
1.49517
1.50949
1.51935
1.5255
1.51472
1.47957
1.45235
1.44076
1.43826
1.44081
1.44783
1.46447
1.51144
1.5602
1.58864
1.6041
1.6134
1.61736
1.6123
1.58664
1.54822
1.52189
1.51297
1.51399
1.52582
1.5669
1.62038
1.65002
1.65965
1.65911
1.65933
1.65366
1.6326
3.65139
19.8181
1.08159
1.09214
1.11276
1.13637
1.16064
1.17054
1.16746
1.15444
1.15159
1.15556
1.15953
1.16539
1.17207
1.17782
1.17857
1.164
1.14851
1.14687
1.15701
1.1854
1.21818
1.2452
1.26004
1.26585
1.26879
1.26565
1.23315
1.19764
1.19126
1.19468
1.19986
1.21169
1.25187
1.30802
1.33186
1.33825
1.33593
1.32577
1.32027
1.31456
1.29801
1.2842
1.28252
1.28595
1.29015
1.29371
1.29869
1.32521
1.36803
1.39157
1.40235
1.41004
1.41769
1.42584
1.42244
1.39114
1.3646
1.35304
1.34529
1.3439
1.34868
1.35688
1.3903
1.45716
1.49811
1.51291
1.52072
1.5278
1.53265
1.52172
1.48941
1.4628
1.44932
1.44725
1.45314
1.46101
1.47455
1.51968
1.56594
1.59084
1.60413
1.61269
1.61389
1.60672
1.58407
1.54623
1.51919
1.50926
1.51062
1.52066
1.5622
1.61721
1.64414
1.64962
1.64992
1.64596
1.65859
3.68351
19.8812
1.10259
1.1166
1.12146
1.12583
1.13046
1.13936
1.14516
1.14847
1.15563
1.17037
1.18771
1.19631
1.19822
1.19185
1.16959
1.14089
1.13087
1.13315
1.14056
1.16987
1.22776
1.26468
1.27587
1.27987
1.27809
1.25889
1.22505
1.20246
1.1965
1.20022
1.21267
1.23508
1.2573
1.28518
1.31087
1.31941
1.31963
1.31918
1.32395
1.32966
1.33165
1.31514
1.2976
1.29197
1.28995
1.28662
1.28642
1.29147
1.31966
1.36828
1.39897
1.41574
1.42674
1.43291
1.43614
1.42885
1.38991
1.35674
1.34727
1.34826
1.35513
1.36621
1.37562
1.39921
1.45632
1.49635
1.51252
1.52071
1.52798
1.53326
1.52968
1.50787
1.48029
1.46302
1.45646
1.4562
1.46035
1.47503
1.52062
1.56573
1.58944
1.60115
1.60818
1.60791
1.60397
1.58534
1.54688
1.51664
1.50336
1.50342
1.51083
1.55564
1.61048
1.63496
1.64024
1.63548
1.6681
3.75714
19.9532
1.11946
1.12583
1.11759
1.09976
1.09499
1.10303
1.12483
1.15022
1.17718
1.20059
1.21061
1.21407
1.21371
1.19616
1.14813
1.12313
1.12176
1.12588
1.13345
1.16342
1.23527
1.2715
1.28041
1.28287
1.26961
1.24832
1.23244
1.21862
1.21668
1.22416
1.23903
1.24989
1.25393
1.25606
1.26624
1.29073
1.31057
1.32377
1.33529
1.34433
1.35066
1.34932
1.32364
1.29688
1.28164
1.27675
1.27865
1.28391
1.29481
1.33044
1.38594
1.41579
1.42657
1.42932
1.42718
1.42691
1.42248
1.39389
1.37081
1.36535
1.36737
1.37121
1.37248
1.37357
1.38974
1.44361
1.48919
1.51038
1.52423
1.53669
1.54327
1.54245
1.5216
1.48672
1.46031
1.45062
1.45183
1.45626
1.47373
1.52314
1.56695
1.5885
1.5986
1.60489
1.60668
1.60654
1.58886
1.54741
1.51131
1.49422
1.49239
1.50029
1.54689
1.60108
1.62447
1.62402
1.66205
3.85096
20.0296
1.13049
1.11601
1.09163
1.08137
1.08279
1.08862
1.10749
1.1565
1.20698
1.22388
1.22806
1.22627
1.21512
1.17439
1.13492
1.12262
1.12354
1.12779
1.14347
1.18663
1.23579
1.26583
1.27424
1.26693
1.24949
1.24535
1.2473
1.24955
1.25156
1.25203
1.25341
1.25121
1.24059
1.2327
1.23488
1.25323
1.29588
1.33103
1.34803
1.35654
1.3623
1.36508
1.35183
1.30896
1.28264
1.27811
1.28071
1.2881
1.30122
1.31489
1.34088
1.38326
1.40645
1.41454
1.4192
1.42508
1.43236
1.43735
1.41961
1.39133
1.37651
1.37018
1.36432
1.36244
1.3679
1.38461
1.43672
1.49105
1.52053
1.53366
1.54079
1.54447
1.54346
1.52379
1.48771
1.46005
1.45047
1.45202
1.45806
1.47497
1.52102
1.56532
1.58826
1.59919
1.60452
1.60754
1.60848
1.58951
1.54392
1.50257
1.48388
1.48152
1.48875
1.53802
1.5907
1.60539
1.64622
3.94941
20.104
1.12938
1.08877
1.07336
1.07271
1.07681
1.08304
1.10476
1.17481
1.21943
1.23064
1.23502
1.23096
1.1971
1.15871
1.13813
1.1307
1.13433
1.15102
1.181
1.2046
1.22148
1.23638
1.24339
1.24423
1.24603
1.2504
1.26398
1.28202
1.28985
1.28685
1.26715
1.24007
1.22026
1.21594
1.21901
1.2264
1.2644
1.3251
1.35135
1.35952
1.36422
1.35993
1.34658
1.3313
1.30536
1.29208
1.29256
1.30059
1.30994
1.31413
1.31602
1.32397
1.35867
1.39464
1.41441
1.42735
1.44261
1.45483
1.45869
1.43777
1.40029
1.37454
1.36432
1.36359
1.36785
1.37484
1.3876
1.43305
1.48838
1.51487
1.52652
1.53437
1.54155
1.54641
1.53309
1.4966
1.46565
1.45553
1.45428
1.45595
1.47141
1.51901
1.56663
1.58937
1.59927
1.60279
1.60567
1.6061
1.58413
1.5381
1.49647
1.47478
1.47048
1.47888
1.53124
1.57072
1.61865
4.04394
20.1678
1.11841
1.08064
1.07349
1.07494
1.07903
1.09291
1.13185
1.18284
1.21747
1.22863
1.22627
1.20172
1.17538
1.16154
1.15348
1.15625
1.17004
1.18927
1.20152
1.20586
1.2013
1.19435
1.20066
1.22098
1.24595
1.27131
1.29227
1.30233
1.30715
1.30663
1.28103
1.23112
1.21124
1.21091
1.21518
1.22439
1.24784
1.29511
1.33652
1.35093
1.35247
1.34218
1.33721
1.34178
1.34267
1.32944
1.31793
1.31499
1.31476
1.30842
1.29644
1.29502
1.30628
1.34859
1.39824
1.42981
1.44774
1.45926
1.46714
1.46994
1.44706
1.40601
1.38142
1.37424
1.37369
1.37393
1.37597
1.38517
1.42674
1.48296
1.51435
1.53166
1.54351
1.55113
1.55414
1.53826
1.49705
1.46275
1.44956
1.44869
1.45335
1.47201
1.52173
1.5684
1.58819
1.59428
1.59593
1.59998
1.5993
1.57896
1.53731
1.49159
1.46679
1.46061
1.46972
1.51356
1.57409
4.12203
20.2147
1.11727
1.08782
1.08208
1.08696
1.10326
1.12933
1.15044
1.17082
1.18882
1.19329
1.1865
1.17741
1.17403
1.17504
1.18408
1.19933
1.20862
1.21234
1.21078
1.19058
1.16962
1.16714
1.17357
1.19347
1.243
1.29142
1.31112
1.31713
1.31909
1.3099
1.27304
1.23401
1.21473
1.21387
1.22024
1.24031
1.25907
1.26868
1.28696
1.31244
1.32682
1.33359
1.34018
1.35096
1.36475
1.37174
1.36105
1.33714
1.316
1.29781
1.28592
1.28478
1.28929
1.30185
1.35459
1.4184
1.44948
1.46096
1.46649
1.47027
1.47057
1.45511
1.42246
1.3946
1.37891
1.37091
1.36986
1.37392
1.38388
1.42819
1.49455
1.52983
1.54141
1.54814
1.55278
1.54888
1.53325
1.49582
1.46142
1.44843
1.44858
1.45722
1.47246
1.51845
1.56179
1.57958
1.58544
1.59052
1.5956
1.59384
1.57466
1.53634
1.48769
1.45813
1.44802
1.44691
1.51742
4.16702
20.2526
1.12454
1.10999
1.10988
1.12076
1.13827
1.14983
1.15424
1.15163
1.14276
1.1451
1.15812
1.17047
1.18379
1.20628
1.22369
1.23014
1.23178
1.22776
1.20151
1.1639
1.15235
1.15461
1.16042
1.1751
1.23337
1.29592
1.31419
1.31884
1.31002
1.28459
1.26738
1.25285
1.23866
1.236
1.24393
1.25618
1.26138
1.25641
1.2469
1.25293
1.28504
1.32231
1.34687
1.3678
1.38634
1.39655
1.39924
1.3747
1.32903
1.29762
1.28651
1.2865
1.29266
1.30625
1.32559
1.37739
1.43471
1.45784
1.46525
1.46981
1.47471
1.4781
1.46839
1.43559
1.40017
1.37878
1.3732
1.37643
1.38287
1.39275
1.43909
1.50056
1.52859
1.53849
1.54398
1.54477
1.54625
1.53949
1.50486
1.46947
1.45436
1.45235
1.45209
1.46399
1.51053
1.55515
1.5748
1.58308
1.58932
1.59539
1.58596
1.56948
1.53254
1.4834
1.45045
1.4235
1.44861
4.15545
20.2936
1.13981
1.14092
1.14596
1.15081
1.15293
1.155
1.14271
1.12145
1.11559
1.12028
1.13435
1.16587
1.2089
1.23975
1.24945
1.25032
1.24521
1.22759
1.18482
1.15843
1.15366
1.15626
1.16512
1.1948
1.23465
1.27318
1.29373
1.29421
1.28085
1.26986
1.27221
1.27719
1.28186
1.27918
1.27375
1.26892
1.25742
1.23621
1.22464
1.22614
1.23821
1.28496
1.34542
1.38233
1.40067
1.41011
1.41237
1.40381
1.36321
1.31667
1.29962
1.30184
1.31654
1.33083
1.34004
1.3489
1.37837
1.42399
1.45098
1.46443
1.47233
1.47714
1.4814
1.47846
1.45142
1.41549
1.39378
1.38636
1.38624
1.3892
1.39693
1.43823
1.49497
1.52493
1.53707
1.54639
1.55204
1.55311
1.54736
1.51283
1.47032
1.44719
1.4432
1.44585
1.45853
1.50492
1.55092
1.57233
1.5814
1.58612
1.58521
1.57548
1.56388
1.52794
1.48115
1.4311
1.40413
4.07789
20.3428
1.157
1.1683
1.17124
1.17101
1.16356
1.14228
1.11484
1.1014
1.10187
1.10728
1.11785
1.15557
1.22028
1.24865
1.25659
1.25954
1.24881
1.2154
1.18706
1.16813
1.16588
1.17552
1.20319
1.22383
1.22859
1.23115
1.23623
1.24984
1.26223
1.27252
1.28861
1.30825
1.32152
1.32527
1.31205
1.2817
1.24582
1.22221
1.21626
1.21807
1.22355
1.24542
1.31729
1.38307
1.40484
1.41073
1.40401
1.39178
1.38225
1.36367
1.34548
1.34141
1.34396
1.34607
1.34185
1.33509
1.33618
1.35965
1.41013
1.44714
1.46512
1.47855
1.4882
1.49357
1.4906
1.46399
1.42349
1.3951
1.38441
1.38286
1.38471
1.39355
1.43575
1.49815
1.53381
1.54602
1.54983
1.55264
1.5571
1.55342
1.51592
1.47036
1.44877
1.44336
1.44388
1.4551
1.49881
1.54482
1.56654
1.57555
1.58081
1.57371
1.56803
1.55768
1.52455
1.46635
1.40573
3.9571
20.4127
1.17112
1.18338
1.18264
1.18005
1.17015
1.13741
1.10869
1.10145
1.1039
1.1107
1.1294
1.16455
1.21123
1.24187
1.24794
1.23943
1.22182
1.2139
1.20462
1.20113
1.2067
1.21909
1.22849
1.23031
1.21517
1.19101
1.1846
1.19596
1.23328
1.27952
1.31723
1.34098
1.35172
1.35753
1.34741
1.3001
1.24627
1.2227
1.21803
1.22138
1.23901
1.26596
1.2946
1.34112
1.37763
1.38804
1.38607
1.38763
1.39335
1.40483
1.40823
1.39333
1.3737
1.35633
1.33669
1.32159
1.32005
1.32648
1.34909
1.40751
1.46067
1.48363
1.49216
1.49657
1.49806
1.49055
1.46447
1.42495
1.39387
1.38344
1.38397
1.3898
1.40127
1.43345
1.49048
1.52731
1.54221
1.54886
1.55205
1.55783
1.55697
1.5247
1.47848
1.4532
1.44363
1.44084
1.44893
1.49049
1.53699
1.55947
1.56987
1.57215
1.56534
1.56226
1.55162
1.51117
1.44277
3.83074
20.5085
1.17714
1.19306
1.1927
1.18458
1.16645
1.14341
1.11992
1.11577
1.12338
1.13968
1.15085
1.15855
1.17515
1.19788
1.21179
1.21547
1.21853
1.22408
1.23739
1.25266
1.26004
1.25806
1.24334
1.21202
1.17813
1.16354
1.16275
1.16721
1.19272
1.26972
1.33339
1.35709
1.36729
1.36994
1.35669
1.31887
1.26869
1.23932
1.23301
1.24392
1.26747
1.27948
1.28347
1.28654
1.3056
1.34195
1.36983
1.39013
1.41393
1.43661
1.44513
1.43926
1.41235
1.36992
1.33354
1.31961
1.32013
1.32571
1.33405
1.35805
1.42445
1.47242
1.48773
1.49283
1.49243
1.48667
1.48211
1.4691
1.43493
1.40583
1.3952
1.39332
1.39351
1.39497
1.41501
1.47449
1.5216
1.53996
1.55028
1.56038
1.56847
1.56736
1.52924
1.48171
1.45293
1.44233
1.43978
1.44461
1.4849
1.53031
1.55466
1.56603
1.56453
1.55909
1.55583
1.53758
1.49948
3.74228
20.6098
1.16568
1.18064
1.17581
1.17546
1.17536
1.16384
1.15212
1.14866
1.15205
1.1549
1.15237
1.14355
1.13734
1.14273
1.16844
1.20197
1.23285
1.26439
1.2828
1.29
1.2914
1.28091
1.24081
1.18113
1.15404
1.15023
1.15265
1.16005
1.18348
1.24677
1.32655
1.35834
1.36716
1.35732
1.3274
1.3092
1.29782
1.28032
1.27294
1.27986
1.28661
1.28707
1.27346
1.25546
1.25622
1.27864
1.32917
1.38403
1.42715
1.44937
1.45804
1.46035
1.44821
1.40392
1.35148
1.32869
1.32708
1.33363
1.34378
1.35891
1.38162
1.42519
1.45941
1.47352
1.47808
1.48083
1.48235
1.4874
1.48552
1.45437
1.41712
1.39575
1.38418
1.37941
1.38113
1.40483
1.47486
1.53313
1.55578
1.56449
1.57167
1.57758
1.56982
1.53169
1.48882
1.46055
1.44579
1.4401
1.44438
1.48074
1.52617
1.55156
1.55927
1.55446
1.55217
1.54315
1.54575
3.71257
20.6974
1.13487
1.16568
1.17314
1.1816
1.19064
1.19813
1.19457
1.18068
1.1669
1.15078
1.13045
1.11985
1.11893
1.12248
1.13341
1.17723
1.25067
1.29358
1.30774
1.31319
1.31112
1.28486
1.22315
1.17422
1.15328
1.15028
1.15468
1.18069
1.22579
1.25756
1.28632
1.31647
1.32538
1.31708
1.31015
1.31217
1.31743
1.32832
1.33457
1.3246
1.30782
1.28625
1.25639
1.24059
1.24052
1.24662
1.26925
1.3466
1.42249
1.44813
1.45428
1.44723
1.4299
1.4126
1.39149
1.36653
1.35439
1.35344
1.3563
1.35885
1.36212
1.37048
1.40254
1.4433
1.46752
1.48093
1.49184
1.50038
1.50535
1.49753
1.46021
1.41308
1.38528
1.37668
1.37992
1.38704
1.41112
1.485
1.54166
1.56116
1.56808
1.57259
1.57151
1.56518
1.54488
1.50144
1.46442
1.4442
1.43597
1.4372
1.47258
1.51971
1.54545
1.5483
1.54633
1.53884
1.57295
3.7324
20.7676
1.09191
1.14653
1.18263
1.2073
1.219
1.22418
1.22277
1.20307
1.16655
1.13225
1.11437
1.11032
1.11266
1.11661
1.12498
1.16202
1.24515
1.29586
1.30993
1.3125
1.29179
1.24945
1.21604
1.18984
1.17244
1.171
1.19072
1.23047
1.25074
1.25402
1.25003
1.24134
1.25221
1.27871
1.30158
1.32022
1.34816
1.37336
1.38097
1.3704
1.33478
1.28845
1.25488
1.24322
1.24446
1.25266
1.27179
1.30887
1.37287
1.41437
1.42325
1.42161
1.42151
1.42217
1.42526
1.42345
1.40674
1.38497
1.36742
1.35493
1.3467
1.34614
1.35207
1.38662
1.44634
1.48283
1.49695
1.50557
1.50741
1.50459
1.49633
1.45634
1.41107
1.39243
1.39336
1.39738
1.40125
1.41794
1.48036
1.53373
1.55343
1.56298
1.57435
1.57669
1.57236
1.55524
1.50748
1.46127
1.43472
1.42484
1.42698
1.46292
1.51455
1.53771
1.53995
1.53142
1.58244
3.78602
20.8209
1.07107
1.11946
1.19507
1.22412
1.2332
1.23731
1.23599
1.21783
1.17529
1.13506
1.11699
1.11354
1.11606
1.12458
1.15321
1.18822
1.21943
1.25739
1.27458
1.27096
1.25347
1.23597
1.22623
1.22094
1.22121
1.23086
1.24894
1.26057
1.26159
1.2455
1.20902
1.1952
1.2011
1.22937
1.28043
1.33477
1.37922
1.39938
1.40565
1.40384
1.37736
1.31572
1.27089
1.25774
1.26208
1.27593
1.28838
1.29604
1.30862