/*--------------------------------*- C++ -*----------------------------------*\
  =========                 |
  \\      /  F ield         | OpenFOAM: The Open Source CFD Toolbox
   \\    /   O peration     | Website:  https://openfoam.org
    \\  /    A nd           | Version:  12
     \\/     M anipulation  |
\*---------------------------------------------------------------------------*/
FoamFile
{
    format      ascii;
    class       volScalarField;
    location    "14.6";
    object      p;
}
// * * * * * * * * * * * * * * * * * * * * * * * * * * * * * * * * * * * * * //

dimensions      [1 -1 -2 0 0 0 0];

internalField   nonuniform List<scalar> 
9801
(
0.622084
0.625109
0.624957
0.625868
0.627422
0.629845
0.632922
0.638503
0.650417
0.661618
0.66703
0.669814
0.67186
0.672842
0.673052
0.673944
0.675901
0.678627
0.682202
0.6904
0.704062
0.713168
0.717672
0.720716
0.722598
0.722921
0.723497
0.725212
0.727912
0.731195
0.737257
0.751035
0.763517
0.769786
0.773301
0.775437
0.775432
0.775444
0.776773
0.779642
0.783096
0.788005
0.801023
0.818469
0.827675
0.83244
0.83533
0.83448
0.833189
0.833835
0.836375
0.840226
0.845175
0.857332
0.879526
0.893568
0.900319
0.903984
0.901419
0.897041
0.897596
0.900658
0.905676
0.912158
0.925865
0.952512
0.971203
0.980142
0.986452
0.984091
0.972662
0.969947
0.974304
0.981814
0.991872
1.01554
1.05168
1.0745
1.08665
1.09452
1.0886
1.07132
1.06387
1.07037
1.08309
1.10971
1.16687
1.2113
1.23641
1.25634
1.26901
1.25729
1.23172
1.22993
1.26372
1.34397
1.47776
2.72383
10.3045
0.628507
0.631819
0.630373
0.63108
0.633333
0.636232
0.639413
0.645988
0.657522
0.666129
0.671612
0.675423
0.67834
0.678575
0.677276
0.678637
0.681447
0.684708
0.688579
0.697855
0.710257
0.71794
0.722795
0.726543
0.728563
0.726397
0.726398
0.729072
0.732648
0.736405
0.742447
0.756269
0.768371
0.774837
0.77909
0.782252
0.779946
0.777196
0.779192
0.78312
0.78733
0.79227
0.804661
0.822354
0.832223
0.837768
0.841912
0.840487
0.834393
0.834676
0.838562
0.843453
0.848744
0.860061
0.881755
0.896513
0.904245
0.9094
0.909158
0.899943
0.897915
0.901742
0.907673
0.91426
0.927718
0.954683
0.973996
0.983504
0.990412
0.99089
0.976957
0.971018
0.975747
0.984079
0.994198
1.01833
1.05328
1.07455
1.08645
1.09624
1.09813
1.0764
1.06533
1.07285
1.08717
1.1105
1.15652
1.19863
1.22634
1.24987
1.26989
1.26374
1.24078
1.23153
1.2512
1.30355
1.39421
2.56553
10.4382
0.630604
0.63443
0.633263
0.633726
0.63592
0.63889
0.6422
0.648889
0.660399
0.668523
0.673585
0.677429
0.680547
0.681217
0.679772
0.680907
0.683702
0.68712
0.691191
0.70068
0.71316
0.720592
0.725336
0.729203
0.731576
0.729458
0.728949
0.731315
0.73478
0.73859
0.744369
0.758065
0.770483
0.777132
0.781698
0.785346
0.783668
0.780455
0.782053
0.785662
0.789812
0.794591
0.806139
0.823842
0.834156
0.840082
0.844623
0.844108
0.837801
0.837303
0.840936
0.845958
0.85137
0.861498
0.88234
0.897595
0.905794
0.911458
0.913381
0.905133
0.900731
0.903423
0.90935
0.916108
0.928152
0.953945
0.973755
0.984278
0.992072
0.995779
0.984591
0.97487
0.977181
0.985025
0.994618
1.01438
1.04832
1.07268
1.0874
1.09912
1.10577
1.08689
1.06946
1.07396
1.08785
1.10602
1.14316
1.19294
1.22837
1.25265
1.27508
1.27455
1.25418
1.24839
1.26108
1.3038
1.35682
2.48865
10.4489
0.633846
0.638199
0.637452
0.637369
0.639209
0.64204
0.645574
0.652759
0.664054
0.671882
0.676663
0.68034
0.683578
0.684947
0.683257
0.68395
0.686547
0.690031
0.694649
0.704698
0.717043
0.724353
0.728926
0.732698
0.735353
0.733107
0.731494
0.733312
0.736631
0.740781
0.747229
0.76121
0.77403
0.780868
0.785532
0.789473
0.788522
0.783959
0.784331
0.787344
0.791499
0.796721
0.808234
0.826201
0.837271
0.843514
0.848314
0.849498
0.842748
0.840004
0.842571
0.847148
0.852804
0.862888
0.883719
0.900255
0.908984
0.914927
0.918951
0.912132
0.903693
0.904649
0.91017
0.917025
0.928092
0.953131
0.975545
0.987476
0.995805
1.00208
0.994982
0.979477
0.977814
0.985062
0.994643
1.01036
1.04377
1.07291
1.08907
1.10078
1.11012
1.10167
1.0794
1.07412
1.08606
1.10274
1.12903
1.1751
1.21559
1.2433
1.26806
1.28164
1.26666
1.25096
1.24939
1.27809
1.30692
2.45252
10.4824
0.636816
0.641536
0.641331
0.640792
0.642254
0.644847
0.648231
0.655766
0.667308
0.674943
0.679563
0.683165
0.686379
0.688092
0.6865
0.686875
0.689316
0.692576
0.697108
0.707599
0.720237
0.727538
0.732032
0.735722
0.738509
0.736606
0.734375
0.735971
0.739122
0.743011
0.749334
0.763594
0.777004
0.784061
0.788713
0.792655
0.792746
0.787751
0.787306
0.790099
0.793988
0.798802
0.809408
0.827515
0.839553
0.846137
0.851042
0.854044
0.848471
0.843112
0.844828
0.849195
0.85463
0.863835
0.883991
0.901686
0.91109
0.917277
0.922419
0.919358
0.908119
0.906129
0.911237
0.918054
0.927667
0.950399
0.975126
0.988667
0.997385
1.00474
1.0051
0.989286
0.980264
0.984798
0.994051
1.0061
1.0335
1.06839
1.08945
1.10264
1.1143
1.11799
1.09681
1.07992
1.08234
1.09721
1.11763
1.15542
1.201
1.23544
1.26221
1.28631
1.28633
1.26854
1.25572
1.26111
1.26481
2.42192
10.5193
0.640009
0.644828
0.645023
0.644386
0.64563
0.648122
0.651243
0.658339
0.670535
0.678536
0.683113
0.686611
0.689712
0.691554
0.690074
0.690143
0.692461
0.695596
0.699593
0.709574
0.723117
0.730921
0.735494
0.739131
0.742062
0.74089
0.73789
0.73893
0.741918
0.745617
0.751067
0.764925
0.779549
0.787326
0.792169
0.796149
0.797584
0.792542
0.78985
0.791916
0.795749
0.80045
0.809975
0.828387
0.841939
0.849336
0.854571
0.858807
0.856277
0.847717
0.846447
0.85024
0.855651
0.863865
0.882999
0.90259
0.913188
0.919921
0.925825
0.927996
0.91731
0.909175
0.911566
0.917826
0.925945
0.944939
0.973005
0.990337
1.00006
1.00789
1.01363
1.00344
0.987461
0.985354
0.992845
1.0031
1.0217
1.05817
1.08851
1.10583
1.11825
1.12787
1.1181
1.09359
1.08549
1.09374
1.10983
1.13544
1.17718
1.21614
1.24597
1.272
1.29119
1.28661
1.26902
1.25547
1.23339
2.3829
10.5654
0.64327
0.648101
0.648385
0.647562
0.648688
0.651169
0.654226
0.660627
0.672936
0.681528
0.68632
0.689925
0.693117
0.695391
0.693835
0.693011
0.694998
0.698121
0.701993
0.711016
0.724956
0.733587
0.738511
0.742283
0.745582
0.745849
0.741672
0.741234
0.743949
0.747847
0.753312
0.766344
0.781441
0.789974
0.795215
0.799383
0.80253
0.799155
0.792951
0.793066
0.796707
0.801799
0.811149
0.82946
0.844111
0.851968
0.857432
0.862198
0.863667
0.854789
0.849126
0.851234
0.856226
0.863269
0.88023
0.902595
0.91543
0.922692
0.928849
0.933947
0.927899
0.915464
0.91332
0.917966
0.924781
0.937564
0.966068
0.99058
1.0032
1.01138
1.01854
1.01658
0.998043
0.988683
0.991932
1.00102
1.01308
1.04093
1.07955
1.10448
1.11937
1.13154
1.13687
1.11771
1.09764
1.09503
1.10507
1.12191
1.15273
1.19344
1.2271
1.25418
1.27805
1.28958
1.28229
1.26181
1.21515
2.33663
10.6153
0.646483
0.651396
0.651955
0.650654
0.651381
0.653749
0.656839
0.663051
0.67551
0.684696
0.689683
0.693388
0.696674
0.699414
0.698473
0.696195
0.697343
0.700168
0.703883
0.71219
0.726489
0.736134
0.741471
0.745497
0.749077
0.751103
0.747146
0.744318
0.746079
0.749612
0.754673
0.767016
0.782856
0.792198
0.797732
0.802173
0.806148
0.80613
0.798359
0.795737
0.798499
0.802961
0.810626
0.828593
0.845692
0.854477
0.860001
0.864883
0.868563
0.862982
0.854039
0.853398
0.857434
0.86301
0.875074
0.899489
0.917485
0.926377
0.932689
0.938431
0.938042
0.924146
0.916934
0.918882
0.924974
0.933249
0.954575
0.986296
1.00524
1.01515
1.02275
1.02721
1.01418
0.996632
0.993467
0.999596
1.0091
1.02426
1.05936
1.09526
1.11675
1.1312
1.14349
1.14441
1.12089
1.10327
1.104
1.1154
1.13401
1.1678
1.20491
1.23426
1.25863
1.27862
1.28262
1.26958
1.22387
2.2899
10.6655
0.649746
0.654704
0.655681
0.654028
0.653992
0.656083
0.658992
0.664345
0.676968
0.687628
0.693218
0.697066
0.700354
0.70327
0.703197
0.699937
0.700019
0.702433
0.705755
0.712413
0.72697
0.738328
0.744377
0.748676
0.752388
0.755408
0.753024
0.748436
0.749007
0.75205
0.756106
0.765843
0.782976
0.794194
0.800274
0.804895
0.809047
0.811275
0.804938
0.800052
0.801494
0.805365
0.810559
0.824698
0.845268
0.856922
0.863162
0.86812
0.87257
0.87095
0.860437
0.856732
0.859306
0.864297
0.871467
0.892002
0.916865
0.929566
0.936592
0.942353
0.945517
0.935361
0.922493
0.921129
0.925991
0.932798
0.944134
0.973824
1.00274
1.01717
1.02583
1.03327
1.03285
1.0133
0.999478
0.999153
1.00605
1.0161
1.03705
1.07688
1.10973
1.12939
1.14325
1.15361
1.14836
1.12491
1.11057
1.11304
1.125
1.14572
1.18144
1.21533
1.24026
1.25973
1.27159
1.26996
1.23888
2.26256
10.7129
0.653102
0.658159
0.659532
0.657752
0.657002
0.658834
0.66162
0.665802
0.677337
0.68998
0.696542
0.700576
0.703903
0.706908
0.70788
0.704178
0.703087
0.70507
0.708187
0.713107
0.726442
0.740177
0.747324
0.751868
0.755688
0.759152
0.758935
0.753286
0.752315
0.754655
0.758237
0.764509
0.781016
0.795884
0.803299
0.808104
0.812334
0.815843
0.812309
0.805101
0.804721
0.807727
0.812123
0.820579
0.841539
0.858455
0.866415
0.871627
0.876342
0.878433
0.869133
0.861144
0.861653
0.865855
0.871375
0.883301
0.910382
0.930291
0.939586
0.94577
0.951087
0.948914
0.933463
0.925727
0.927021
0.932584
0.939842
0.957444
0.99243
1.01671
1.02878
1.03732
1.04457
1.03671
1.01279
1.00287
1.0058
1.01436
1.02525
1.05053
1.09078
1.11999
1.13782
1.15161
1.16099
1.15421
1.13054
1.11748
1.12078
1.13322
1.1563
1.19238
1.22252
1.24356
1.25735
1.26294
1.25144
2.25528
10.7534
0.656472
0.661598
0.663312
0.661842
0.660322
0.661796
0.664448
0.667878
0.677262
0.691403
0.699389
0.703781
0.707205
0.710292
0.712232
0.709037
0.706461
0.707845
0.710708
0.714528
0.725161
0.741214
0.750227
0.75514
0.759038
0.76262
0.764323
0.759083
0.75571
0.757115
0.760276
0.764644
0.777263
0.796037
0.806202
0.811589
0.815875
0.819819
0.819616
0.811268
0.807921
0.809923
0.813828
0.819101
0.834661
0.857271
0.869188
0.875248
0.880065
0.884148
0.87977
0.867894
0.864825
0.867527
0.872412
0.8789
0.898556
0.926732
0.941715
0.94927
0.955225
0.959151
0.949607
0.933129
0.928712
0.93191
0.938511
0.947494
0.973531
1.00933
1.02916
1.03925
1.04707
1.05256
1.03984
1.01753
1.01046
1.01356
1.02146
1.03356
1.06335
1.10282
1.12975
1.14684
1.16048
1.16707
1.158
1.13571
1.12354
1.12676
1.13896
1.16442
1.20074
1.22731
1.24327
1.25149
1.25647
2.27064
10.7904
0.659824
0.665021
0.667035
0.666168
0.663912
0.664925
0.667369
0.670375
0.677085
0.691623
0.701729
0.706772
0.710391
0.713574
0.71619
0.714359
0.710272
0.710718
0.713257
0.716575
0.723774
0.740496
0.752664
0.758475
0.762487
0.766081
0.768915
0.765578
0.759648
0.759626
0.762311
0.76609
0.774022
0.793474
0.808289
0.815074
0.819517
0.823536
0.825965
0.819343
0.812231
0.812482
0.815573
0.819872
0.828254
0.851121
0.870144
0.878624
0.883882
0.888582
0.890092
0.878731
0.869513
0.869493
0.873224
0.878569
0.888391
0.915942
0.940968
0.952467
0.959258
0.965131
0.9658
0.948534
0.934627
0.933703
0.93838
0.945128
0.956163
0.988304
1.02204
1.03878
1.04882
1.05782
1.06216
1.04385
1.02094
1.01539
1.02034
1.02941
1.04319
1.07549
1.11247
1.13685
1.1532
1.16652
1.17218
1.16196
1.1391
1.12698
1.1298
1.14142
1.16867
1.20424
1.2276
1.23847
1.25271
2.30585
10.828
0.663157
0.668481
0.670754
0.67085
0.667936
0.668116
0.670242
0.673035
0.677488
0.690532
0.703506
0.709751
0.713611
0.716873
0.719815
0.71978
0.714829
0.713756
0.715909
0.71906
0.723681
0.737797
0.75392
0.761594
0.765941
0.769552
0.772812
0.772101
0.764813
0.762551
0.764727
0.768193
0.772991
0.788053
0.808204
0.81803
0.82316
0.827293
0.831032
0.82886
0.818834
0.815436
0.817213
0.820957
0.826006
0.841369
0.86705
0.880973
0.887587
0.892543
0.896837
0.89254
0.87793
0.872524
0.874473
0.879202
0.884993
0.900733
0.932427
0.952455
0.961241
0.967429
0.973273
0.970299
0.950362
0.939063
0.938674
0.942925
0.950019
0.96543
1.00355
1.03569
1.05079
1.0596
1.06675
1.06736
1.04747
1.02744
1.02336
1.02809
1.03698
1.05268
1.08713
1.12149
1.14372
1.15917
1.17172
1.17568
1.16429
1.14048
1.12759
1.12942
1.14026
1.16981
1.2042
1.22323
1.24327
2.35463
10.8728
0.66641
0.672035
0.674468
0.675704
0.672544
0.671329
0.672954
0.675607
0.678973
0.688697
0.704153
0.712515
0.716844
0.720193
0.723253
0.724861
0.720411
0.717276
0.718725
0.721675
0.725202
0.734273
0.752688
0.763962
0.769229
0.772975
0.776394
0.778078
0.771818
0.766498
0.767405
0.770389
0.774193
0.782562
0.803951
0.819817
0.82672
0.831134
0.835147
0.837127
0.828221
0.819471
0.819261
0.822256
0.826627
0.834263
0.8575
0.880516
0.890798
0.896728
0.901537
0.904191
0.892662
0.879302
0.87708
0.879529
0.884346
0.891464
0.914699
0.94662
0.962963
0.971327
0.977983
0.983146
0.973252
0.950652
0.941973
0.944124
0.950042
0.957382
0.975069
1.01477
1.04364
1.05694
1.06629
1.07515
1.07584
1.05356
1.03341
1.02982
1.03521
1.04462
1.06258
1.09785
1.1293
1.14967
1.16436
1.17585
1.17902
1.16522
1.13946
1.12564
1.12651
1.13662
1.16871
1.19957
1.22696
2.41204
10.9233
0.669461
0.675583
0.678067
0.6802
0.67784
0.674819
0.675717
0.678166
0.681183
0.687317
0.702829
0.714618
0.719997
0.723541
0.726689
0.729344
0.727059
0.721821
0.721799
0.724237
0.727402
0.732361
0.748208
0.764769
0.772151
0.776371
0.779905
0.782942
0.780205
0.772075
0.770329
0.77257
0.776057
0.780754
0.79602
0.818456
0.82946
0.834859
0.838893
0.84245
0.839347
0.826978
0.822426
0.824319
0.82815
0.832904
0.845353
0.873311
0.891669
0.899402
0.904729
0.909477
0.908833
0.892725
0.881283
0.880562
0.884025
0.889575
0.899883
0.930417
0.960114
0.973208
0.979905
0.985244
0.989542
0.977222
0.956064
0.949184
0.950224
0.954779
0.962406
0.984423
1.02591
1.05423
1.06777
1.07662
1.08332
1.08063
1.05906
1.04037
1.03672
1.0417
1.05097
1.07188
1.10855
1.13768
1.15592
1.1689
1.17884
1.18094
1.16519
1.13727
1.12152
1.12107
1.13221
1.16523
1.20197
2.46509
10.9682
0.672038
0.678938
0.681496
0.684137
0.683649
0.679287
0.678779
0.680816
0.6836
0.687373
0.699439
0.715238
0.722864
0.726945
0.730267
0.733346
0.733885
0.72789
0.725155
0.726643
0.72949
0.733046
0.742822
0.762577
0.774296
0.779635
0.783365
0.786803
0.788052
0.780217
0.774238
0.775071
0.778139
0.781937
0.789292
0.811177
0.82993
0.837738
0.842366
0.846347
0.848712
0.839623
0.828657
0.827205
0.829563
0.833644
0.839456
0.858873
0.887275
0.901544
0.908469
0.913807
0.918222
0.911733
0.892651
0.884673
0.886185
0.890674
0.89625
0.908624
0.942315
0.968887
0.980694
0.988799
0.995769
0.99862
0.980538
0.95851
0.952625
0.95606
0.962497
0.970649
0.993491
1.034
1.0603
1.07314
1.08236
1.09018
1.08833
1.06572
1.04593
1.042
1.04716
1.05725
1.081
1.11746
1.14414
1.16083
1.17315
1.18182
1.18226
1.16457
1.13455
1.1158
1.11397
1.1255
1.1682
2.49962
11.0033
0.67394
0.682085
0.684877
0.687758
0.689211
0.685161
0.682324
0.683468
0.685908
0.688915
0.696127
0.713348
0.725094
0.730368
0.733861
0.73702
0.739443
0.735504
0.729384
0.729281
0.731746
0.734963
0.73997
0.756453
0.774466
0.782379
0.786742
0.790382
0.79364
0.790667
0.780959
0.7784
0.780387
0.783588
0.787722
0.800402
0.825264
0.839423
0.845695
0.850065
0.85415
0.85352
0.839872
0.831116
0.83145
0.834774
0.839359
0.847487
0.873428
0.899052
0.909933
0.915616
0.920347
0.924634
0.915287
0.896712
0.890577
0.891443
0.895089
0.901006
0.918108
0.955453
0.980621
0.990981
0.996896
1.00209
1.00426
0.986556
0.966513
0.961412
0.963119
0.967954
0.976193
1.00187
1.04234
1.06784
1.08076
1.08982
1.09616
1.09323
1.0721
1.05235
1.04743
1.05141
1.06095
1.08739
1.12473
1.15039
1.16571
1.17649
1.1835
1.18245
1.16404
1.13155
1.10886
1.10152
1.12604
2.49962
11.0322
0.675195
0.685193
0.68822
0.691208
0.6937
0.691909
0.686637
0.686185
0.688269
0.691146
0.695302
0.708917
0.725606
0.733247
0.737278
0.740512
0.74353
0.743379
0.735902
0.73268
0.734215
0.737046
0.740442
0.749418
0.770521
0.78421
0.79015
0.794066
0.797734
0.799746
0.791525
0.783125
0.782609
0.785022
0.788626
0.794311
0.813806
0.837541
0.848447
0.854174
0.85837
0.861998
0.856119
0.840723
0.835335
0.836889
0.84032
0.844952
0.856062
0.885857
0.908465
0.918191
0.924469
0.929996
0.93241
0.917644
0.898877
0.894189
0.897024
0.901914
0.907707
0.925835
0.963062
0.985894
0.996505
1.00497
1.01205
1.01305
0.992717
0.971256
0.965391
0.968656
0.975148
0.984016
1.00965
1.0485
1.07264
1.08539
1.09493
1.10255
1.10059
1.07735
1.05539
1.04956
1.05367
1.06368
1.09204
1.12966
1.15436
1.16878
1.17879
1.18427
1.18196
1.16245
1.12748
1.09764
1.08793
2.46252
11.0557
0.675485
0.688065
0.691422
0.694469
0.697221
0.698116
0.692543
0.689529
0.690952
0.693621
0.696705
0.704395
0.72271
0.734956
0.740316
0.743856
0.747079
0.749543
0.744922
0.737565
0.736852
0.739029
0.742151
0.746601
0.76226
0.783374
0.793012
0.797821
0.801524
0.805018
0.803248
0.79123
0.785805
0.787182
0.790308
0.794168
0.802576
0.827484
0.848078
0.856504
0.861653
0.865988
0.868855
0.858604
0.843524
0.839726
0.841315
0.844889
0.850076
0.86601
0.898587
0.918601
0.926809
0.931627
0.936696
0.938978
0.922802
0.905305
0.901148
0.901904
0.905528
0.911906
0.934075
0.973621
0.99696
1.00665
1.01272
1.01846
1.01963
1.00054
0.979672
0.973628
0.97501
0.979764
0.98874
1.01762
1.0572
1.08049
1.09231
1.10101
1.10721
1.10453
1.08186
1.05916
1.05235
1.05534
1.06482
1.0944
1.13304
1.1576
1.17098
1.17955
1.18338
1.17977
1.15901
1.11543
1.07509
2.38958
11.0799
0.6743
0.690082
0.694374
0.697673
0.700559
0.702944
0.699896
0.694107
0.693906
0.696048
0.698881
0.702901
0.7167
0.734722
0.742953
0.747199
0.750496
0.753589
0.753735
0.745039
0.740146
0.741328
0.744277
0.747705
0.754947
0.776476
0.793996
0.801092
0.805121
0.808682
0.81145
0.804293
0.792571
0.790186
0.791989
0.795056
0.79935
0.812473
0.840504
0.857652
0.865089
0.87029
0.874771
0.875166
0.859631
0.845739
0.843831
0.846739
0.850723
0.85598
0.874844
0.907826
0.925712
0.934226
0.94095
0.946461
0.946081
0.925718
0.90749
0.90401
0.907362
0.912637
0.91901
0.940639
0.979138
1.00116
1.01164
1.02014
1.02714
1.0277
1.00716
0.98423
0.976877
0.979683
0.986254
0.996528
1.0263
1.06349
1.08465
1.09635
1.1057
1.11323
1.11093
1.08566
1.06114
1.05355
1.05613
1.06524
1.09521
1.13451
1.15872
1.17113
1.17828
1.18066
1.17647
1.14721
1.09262
2.31149
11.1151
0.671734
0.690849
0.697245
0.700936
0.70389
0.706636
0.706966
0.700409
0.697197
0.698578
0.701253
0.704353
0.711499
0.730396
0.744389
0.750212
0.753734
0.75691
0.759645
0.755216
0.74585
0.744329
0.746615
0.749774
0.753443
0.765422
0.789578
0.802961
0.808746
0.812516
0.81612
0.816744
0.804587
0.794389
0.793682
0.796444
0.800158
0.805479
0.824372
0.852482
0.86618
0.872132
0.876406
0.880775
0.880206
0.863168
0.850948
0.849393
0.851067
0.855033
0.86151
0.885423
0.919517
0.936204
0.943073
0.947163
0.95182
0.951825
0.932245
0.915413
0.911896
0.912849
0.916496
0.923123
0.947964
0.98876
1.01156
1.02094
1.0269
1.03222
1.03311
1.0146
0.992268
0.984741
0.985902
0.990665
1.00084
1.03345
1.07154
1.09254
1.10332
1.11148
1.11768
1.11502
1.09034
1.06428
1.05492
1.05627
1.06425
1.0942
1.13411
1.15806
1.16962
1.17525
1.17732
1.16695
1.13213
2.26395
11.1601
0.66928
0.688878
0.699445
0.704143
0.707124
0.709845
0.712081
0.708519
0.70202
0.701607
0.703846
0.706734
0.71027
0.722413
0.742463
0.752375
0.756995
0.760347
0.763581
0.764603
0.755537
0.748665
0.749024
0.751543
0.754822
0.759729
0.777642
0.801014
0.811502
0.816704
0.820215
0.823601
0.820033
0.804582
0.797646
0.798982
0.802359
0.8061
0.8121
0.834986
0.861694
0.873506
0.879707
0.884859
0.889224
0.884765
0.864597
0.853233
0.8536
0.85767
0.86223
0.868568
0.893234
0.925723
0.940848
0.948891
0.955521
0.961022
0.959422
0.937661
0.918854
0.914891
0.918296
0.923977
0.930844
0.954299
0.993065
1.01434
1.02425
1.03226
1.03922
1.04078
1.02253
0.998178
0.988212
0.989457
0.995471
1.00708
1.04016
1.07639
1.09597
1.10713
1.11657
1.12376
1.12109
1.09438
1.06579
1.05473
1.05533
1.06235
1.09162
1.13204
1.15592
1.16653
1.17202
1.1698
1.1642
2.26301
11.2109
0.669048
0.683294
0.699236
0.706262
0.709983
0.713079
0.716005
0.716703
0.709594
0.705419
0.706427
0.708809
0.711742
0.717063
0.735061
0.752853
0.760082
0.763935
0.767153
0.770202
0.767342
0.755985
0.752035
0.753779
0.756982
0.760399
0.76707
0.789734
0.810542
0.818829
0.823623
0.827298
0.83034
0.823224
0.807907
0.803176
0.804447
0.807134
0.811064
0.819288
0.846173
0.871322
0.881659
0.886769
0.890473
0.894933
0.890079
0.870356
0.86103
0.860661
0.862336
0.866266
0.873688
0.901603
0.935151
0.950487
0.957069
0.96127
0.966504
0.966483
0.946036
0.927738
0.923577
0.924457
0.927773
0.934479
0.960118
1.00083
1.02327
1.03258
1.03873
1.04467
1.04727
1.03107
1.00545
0.994275
0.99398
0.998175
1.00892
1.04385
1.08262
1.10372
1.11405
1.12154
1.12702
1.12469
1.09885
1.06767
1.0542
1.05357
1.05972
1.08845
1.12899
1.15254
1.16346
1.16409
1.17984
2.29892
11.2642
0.670613
0.677701
0.695109
0.70798
0.713368
0.716597
0.719501
0.722093
0.719037
0.710796
0.709151
0.711156
0.714067
0.717272
0.725935
0.747451
0.761561
0.767327
0.770733
0.773961
0.776257
0.768526
0.758106
0.756861
0.759029
0.761879
0.765375
0.77508
0.800898
0.819009
0.82656
0.831469
0.835463
0.83754
0.825895
0.810329
0.806929
0.809504
0.813104
0.816952
0.826046
0.854685
0.878024
0.887649
0.893934
0.899306
0.903318
0.895266
0.873928
0.86376
0.864231
0.868076
0.872596
0.879564
0.906807
0.939282
0.954211
0.962666
0.969652
0.975162
0.97407
0.953102
0.932498
0.926457
0.929027
0.934449
0.941867
0.966383
1.0046
1.02583
1.03636
1.04487
1.05166
1.05392
1.03689
1.00961
0.996324
0.995935
1.00122
1.01282
1.04714
1.08507
1.10548
1.11638
1.12506
1.13132
1.12951
1.10293
1.06915
1.05326
1.05132
1.05612
1.08432
1.12438
1.14822
1.15493
1.18137
2.36289
11.3211
0.672389
0.67679
0.687833
0.706605
0.715743
0.719831
0.722765
0.725669
0.727221
0.720074
0.713638
0.714005
0.716368
0.719153
0.722642
0.735668
0.758418
0.769692
0.774683
0.777986
0.781228
0.781228
0.769342
0.760905
0.760737
0.76328
0.766547
0.770593
0.784062
0.811194
0.826891
0.833319
0.837683
0.841595
0.843315
0.830241
0.816031
0.813388
0.814609
0.817347
0.821604
0.833371
0.864378
0.887254
0.896409
0.901061
0.904904
0.909292
0.902182
0.881182
0.871381
0.870551
0.871949
0.87579
0.883834
0.914165
0.948701
0.964069
0.970599
0.97491
0.98005
0.981205
0.96246
0.941376
0.934924
0.935386
0.938442
0.945056
0.971036
1.01147
1.03376
1.043
1.04883
1.05503
1.05963
1.04536
1.01661
1.00195
1.00004
1.0034
1.01269
1.04681
1.08848
1.11162
1.12223
1.129
1.13367
1.13237
1.10697
1.07037
1.05118
1.04778
1.05168
1.07971
1.11928
1.13873
1.17361
2.43607
11.3742
0.674733
0.678367
0.682913
0.69924
0.715899
0.72277
0.726429
0.729478
0.732491
0.7313
0.721533
0.717401
0.718364
0.7207
0.723735
0.728719
0.746838
0.768572
0.777813
0.782164
0.785227
0.788363
0.784709
0.770408
0.764398
0.765597
0.768592
0.77175
0.776008
0.792519
0.820069
0.834117
0.840465
0.84538
0.849727
0.849515
0.833011
0.818604
0.816721
0.819668
0.823518
0.82759
0.839452
0.870662
0.892425
0.901713
0.908408
0.913901
0.917724
0.908705
0.886044
0.874188
0.87403
0.877917
0.882718
0.890005
0.918474
0.951417
0.966592
0.975242
0.982418
0.988084
0.988641
0.970225
0.946889
0.937618
0.938679
0.943613
0.950998
0.975953
1.01369
1.03472
1.04645
1.05645
1.06335
1.06644
1.05108
1.02057
1.00355
1.00111
1.00543
1.0154
1.04799
1.08894
1.11209
1.12343
1.13086
1.13547
1.13439
1.11039
1.07161
1.04877
1.04353
1.04631
1.07561
1.10931
1.15387
2.50819
11.4181
0.677444
0.680263
0.68294
0.690615
0.710957
0.724741
0.730297
0.73352
0.736504
0.738856
0.732912
0.722664
0.720846
0.722969
0.725977
0.72914
0.735615
0.757362
0.777012
0.784974
0.789428
0.792796
0.795339
0.787866
0.773722
0.769503
0.770608
0.773022
0.776497
0.781975
0.802182
0.829189
0.841796
0.847388
0.85099
0.854822
0.854921
0.838611
0.82551
0.82355
0.824643
0.827422
0.831873
0.846054
0.879286
0.901776
0.910597
0.915098
0.918911
0.923503
0.917128
0.894768
0.882836
0.881163
0.882049
0.885697
0.893834
0.924479
0.960033
0.976205
0.98301
0.98718
0.992081
0.994898
0.979452
0.954922
0.944584
0.943906
0.946824
0.953193
0.979935
1.02262
1.0464
1.05593
1.062
1.06723
1.07082
1.05812
1.02789
1.00941
1.00568
1.00796
1.01461
1.04505
1.08871
1.11404
1.1254
1.13194
1.13615
1.13541
1.11345
1.07317
1.0458
1.03751
1.04079
1.06697
1.12275
2.56327
11.4502
0.680305
0.682369
0.684945
0.688598
0.701058
0.722336
0.732779
0.737265
0.740139
0.742976
0.743544
0.733444
0.725679
0.72589
0.728155
0.730758
0.733872
0.742708
0.767344
0.785218
0.792578
0.797105
0.800595
0.802336
0.790948
0.776063
0.772984
0.775528
0.779101
0.782464
0.787985
0.810038
0.836188
0.847639
0.853587
0.858638
0.862966
0.861034
0.842517
0.828368
0.82669
0.829791
0.833953
0.838267
0.851473
0.883742
0.905486
0.914896
0.921754
0.927239
0.931255
0.92398
0.900046
0.885332
0.883954
0.887741
0.893019
0.900989
0.928828
0.962027
0.977981
0.98654
0.993706
0.999393
1.00176
0.987035
0.961192
0.948315
0.948014
0.952934
0.960576
0.985617
1.02509
1.04716
1.05776
1.06605
1.07313
1.07754
1.06515
1.03336
1.01176
1.00615
1.0089
1.01636
1.04501
1.08767
1.1139
1.12577
1.13206
1.13591
1.13524
1.11601
1.07545
1.04242
1.0306
1.02982
1.0825
2.58427
11.471
0.684499
0.684943
0.687424
0.690241
0.69504
0.711889
0.731665
0.74002
0.744012
0.746847
0.74959
0.747059
0.734636
0.728933
0.729664
0.732227
0.735348
0.739248
0.751029
0.776624
0.792432
0.798819
0.803064
0.806533
0.807658
0.795471
0.782227
0.779852
0.781111
0.783504
0.787121
0.794163
0.818692
0.844447
0.855554
0.86066
0.863762
0.867819
0.867243
0.849881
0.836484
0.83434
0.835171
0.837592
0.842049
0.856658
0.891096
0.9143
0.923149
0.927246
0.930817
0.935573
0.931648
0.909846
0.895599
0.892988
0.893614
0.896683
0.903927
0.932199
0.96866
0.986479
0.993738
0.99812
1.00355
1.00829
0.997406
0.971051
0.956981
0.954458
0.955286
0.960507
0.983607
1.02611
1.05343
1.06489
1.07121
1.07673
1.08197
1.0741
1.04292
1.01825
1.01063
1.01098
1.01524
1.04028
1.08452
1.11279
1.12513
1.13135
1.13499
1.13432
1.11789
1.07758
1.04093
1.01874
1.03638
2.55635
11.485
0.69091
0.68817
0.690014
0.692552
0.695369
0.701669
0.72187
0.74003
0.747304
0.75088
0.753567
0.755942
0.749327
0.736142
0.73274
0.734759
0.737933
0.741064
0.744685
0.758158
0.784481
0.799116
0.805359
0.809862
0.813837
0.814235
0.799496
0.785364
0.783168
0.785949
0.789551
0.79309
0.799729
0.824511
0.849488
0.860098
0.866324
0.871619
0.875953
0.874265
0.855876
0.840247
0.837115
0.839798
0.843962
0.848347
0.860927
0.89344
0.915844
0.925692
0.933477
0.93933
0.943821
0.939725
0.91756
0.899605
0.895204
0.898007
0.902891
0.909933
0.934702
0.969118
0.987218
0.997467
1.00602
1.01207
1.01579
1.00467
0.975682
0.956983
0.953457
0.956563
0.962888
0.984019
1.02566
1.05331
1.06619
1.07648
1.08419
1.08879
1.08043
1.04784
1.01944
1.00894
1.00931
1.01424
1.03749
1.08154
1.11142
1.12435
1.13042
1.13357
1.13247
1.11762
1.0787
1.03101
1.01227
2.48155
11.4989
0.699934
0.692357
0.692603
0.69498
0.697717
0.700763
0.708593
0.730625
0.747146
0.753913
0.757735
0.760711
0.762015
0.751916
0.740379
0.738587
0.740185
0.742532
0.745688
0.750154
0.76625
0.792303
0.805796
0.811454
0.81506
0.81826
0.81903
0.805623
0.792631
0.790388
0.791347
0.79351
0.797182
0.805082
0.831483
0.857339
0.868399
0.873434
0.876592
0.880916
0.881517
0.865094
0.849148
0.845236
0.845196
0.846701
0.850816
0.86438
0.89966
0.925662
0.935781
0.94102
0.944806
0.948746
0.946822
0.927035
0.908617
0.903387
0.903444
0.905687
0.911484
0.936262
0.975308
0.997028
1.00572
1.01034
1.01499
1.01998
1.01252
0.983888
0.964415
0.95976
0.960868
0.965564
0.983743
1.0265
1.06055
1.07493
1.08141
1.08589
1.09019
1.08579
1.05609
1.02482
1.01181
1.01009
1.01342
1.0339
1.07802
1.10962
1.12288
1.12829
1.13073
1.12871
1.11564
1.0698
1.02001
2.3819
11.5271
0.7104
0.701034
0.696623
0.697779
0.699932
0.702226
0.705234
0.714774
0.738566
0.754336
0.760918
0.764765
0.767715
0.768146
0.755807
0.743957
0.742424
0.745082
0.748381
0.751385
0.755466
0.77257
0.798577
0.811265
0.817081
0.821731
0.825917
0.825993
0.81082
0.796119
0.793231
0.795766
0.799436
0.8031
0.809941
0.835192
0.860777
0.872082
0.879033
0.884769
0.889241
0.889411
0.872823
0.853717
0.847211
0.848733
0.85279
0.857489
0.869147
0.902316
0.927613
0.938295
0.944771
0.950411
0.955634
0.955678
0.936767
0.914319
0.905655
0.90678
0.911209
0.917578
0.939319
0.975987
0.997214
1.00774
1.01679
1.02345
1.02828
1.02181
0.993361
0.970253
0.963029
0.964399
0.96876
0.983931
1.02405
1.05771
1.07281
1.0824
1.09071
1.09576
1.09195
1.06272
1.02824
1.0121
1.00941
1.01198
1.02986
1.07336
1.1058
1.11917
1.12472
1.12675
1.12569
1.10575
1.06351
2.30631
11.5708
0.718027
0.714651
0.703024
0.700069
0.701309
0.703745
0.70653
0.710242
0.721647
0.745804
0.760672
0.767073
0.771377
0.774724
0.774476
0.761338
0.750602
0.749248
0.750364
0.752428
0.75562
0.760746
0.779664
0.805663
0.818284
0.823781
0.827024
0.830543
0.831976
0.818599
0.804131
0.800823
0.801314
0.80291
0.806462
0.813976
0.840641
0.868618
0.880952
0.886284
0.889497
0.893756
0.896352
0.882952
0.862835
0.855641
0.855125
0.855921
0.859439
0.870416
0.903596
0.932797
0.945936
0.952032
0.956795
0.961054
0.963062
0.947331
0.923646
0.91392
0.912686
0.913946
0.918538
0.93895
0.980093
1.00728
1.0185
1.02483
1.03014
1.03496
1.02968
1.00117
0.975274
0.966092
0.966754
0.970541
0.981025
1.01969
1.06124
1.08112
1.08861
1.09365
1.0974
1.09504
1.06941
1.0326
1.01259
1.00813
1.00987
1.02476
1.06772
1.10199
1.11634
1.12125
1.12365
1.11706
1.10912
2.28634
11.6213
0.722534
0.725835
0.715547
0.705336
0.704046
0.706064
0.70878
0.711335
0.714758
0.727541
0.753029
0.767817
0.774087
0.778251
0.781618
0.780803
0.766228
0.753887
0.752276
0.754865
0.75809
0.761018
0.765522
0.784635
0.810756
0.823001
0.829165
0.834311
0.838561
0.839419
0.825281
0.808286
0.803222
0.805052
0.808665
0.812492
0.81869
0.843257
0.870914
0.883644
0.891137
0.897281
0.901968
0.904133
0.891148
0.868554
0.857654
0.856945
0.860081
0.864511
0.87459
0.907229
0.937602
0.950999
0.957604
0.96339
0.968451
0.97031
0.956027
0.930211
0.916266
0.914839
0.918712
0.924542
0.941696
0.98033
1.00857
1.02115
1.02803
1.033
1.03759
1.03631
1.01101
0.982509
0.970434
0.969907
0.973913
0.983427
1.01742
1.05822
1.07863
1.0879
1.09461
1.09947
1.09851
1.07518
1.0365
1.0129
1.00635
1.0072
1.02058
1.0622
1.09721
1.11197
1.11813
1.11481
1.13442
2.31623
11.6737
0.726407
0.731387
0.73007
0.71781
0.709434
0.708892
0.710337
0.712724
0.715859
0.720284
0.735354
0.760679
0.774216
0.779976
0.78387
0.786903
0.78612
0.772454
0.760957
0.758973
0.759645
0.761499
0.764821
0.770404
0.791159
0.818074
0.830887
0.836262
0.839403
0.843035
0.845559
0.834092
0.81678
0.811174
0.811102
0.812112
0.815297
0.821802
0.847209
0.8782
0.892738