/*--------------------------------*- C++ -*----------------------------------*\
  =========                 |
  \\      /  F ield         | OpenFOAM: The Open Source CFD Toolbox
   \\    /   O peration     | Website:  https://openfoam.org
    \\  /    A nd           | Version:  12
     \\/     M anipulation  |
\*---------------------------------------------------------------------------*/
FoamFile
{
    format      ascii;
    class       volScalarField;
    location    "14.6";
    object      rho;
}
// * * * * * * * * * * * * * * * * * * * * * * * * * * * * * * * * * * * * * //

dimensions      [1 -3 0 0 0 0 0];

internalField   nonuniform List<scalar> 
9801
(
1.09498
1.11033
1.12002
1.12622
1.13102
1.13539
1.13924
1.14028
1.13835
1.13979
1.14331
1.14834
1.15926
1.17339
1.18293
1.18918
1.19429
1.19899
1.20267
1.20124
1.2001
1.20277
1.20701
1.21403
1.22832
1.24217
1.25057
1.2564
1.26147
1.26593
1.26566
1.26216
1.26388
1.26822
1.27383
1.28569
1.30413
1.31675
1.32415
1.33015
1.33522
1.33616
1.32968
1.32922
1.33323
1.33921
1.34928
1.36943
1.38767
1.39783
1.40477
1.41093
1.41384
1.4055
1.40093
1.40467
1.41172
1.42148
1.44321
1.46776
1.48236
1.49109
1.49875
1.50395
1.49368
1.48334
1.48659
1.4949
1.50742
1.53555
1.56691
1.58531
1.59692
1.60728
1.61457
1.60055
1.58422
1.58724
1.59911
1.6207
1.66507
1.7052
1.72893
1.74606
1.76167
1.76694
1.73894
1.71949
1.73088
1.75712
1.81425
1.89804
1.96113
2.01123
2.06904
2.11421
2.09897
3.15372
10.5694
1.10004
1.11696
1.12716
1.13304
1.13757
1.14147
1.14479
1.14547
1.14394
1.14543
1.14873
1.1533
1.1647
1.17996
1.18959
1.19561
1.20037
1.20454
1.20756
1.20605
1.20505
1.20756
1.21149
1.21795
1.23313
1.24789
1.2564
1.26214
1.26695
1.27108
1.27075
1.26725
1.26857
1.27245
1.27746
1.28899
1.30833
1.32135
1.32888
1.33465
1.33954
1.34075
1.3348
1.33383
1.3374
1.34271
1.35143
1.37171
1.39078
1.40132
1.40843
1.41454
1.41783
1.41036
1.40535
1.40841
1.41469
1.423
1.44413
1.46936
1.48439
1.49345
1.50127
1.50679
1.49799
1.4871
1.48913
1.49667
1.5075
1.5331
1.56535
1.58575
1.59836
1.60881
1.61661
1.60453
1.58708
1.58848
1.59936
1.61541
1.65382
1.69649
1.72287
1.7417
1.7591
1.76986
1.74645
1.72373
1.72947
1.75307
1.79535
1.86667
1.92442
1.97036
2.01947
2.04948
2.00588
3.00639
10.5928
1.09838
1.11574
1.12567
1.13123
1.13554
1.1393
1.14249
1.14286
1.1417
1.1435
1.1469
1.15142
1.16303
1.17867
1.18798
1.19366
1.19817
1.20219
1.20503
1.20328
1.20241
1.20496
1.20888
1.21499
1.23023
1.24565
1.25428
1.25999
1.26479
1.26902
1.26888
1.26492
1.26586
1.2696
1.27443
1.28505
1.30436
1.3178
1.32549
1.33131
1.3364
1.33881
1.33323
1.33111
1.33417
1.33924
1.34674
1.36572
1.38566
1.39677
1.40413
1.41041
1.41492
1.40915
1.40281
1.40487
1.41057
1.41769
1.43561
1.46173
1.47798
1.48747
1.49544
1.50175
1.49576
1.48397
1.48417
1.49084
1.50004
1.519
1.55302
1.57688
1.58995
1.60009
1.60852
1.60138
1.58248
1.57945
1.58851
1.60156
1.63032
1.67946
1.71238
1.73136
1.74746
1.7599
1.74415
1.71572
1.71373
1.734
1.76395
1.82307
1.88787
1.93585
1.97971
2.01007
1.96519
2.9353
10.455
1.09657
1.11402
1.12401
1.12959
1.1338
1.13748
1.1404
1.14008
1.13937
1.14148
1.14494
1.14932
1.16054
1.17628
1.18558
1.1912
1.19566
1.19967
1.20219
1.19984
1.19903
1.20164
1.20557
1.21124
1.22598
1.24231
1.2513
1.25704
1.26182
1.26604
1.26573
1.2611
1.2616
1.26518
1.26986
1.27891
1.29803
1.31292
1.32112
1.32704
1.33222
1.33544
1.32972
1.32564
1.32816
1.33312
1.33953
1.35608
1.37815
1.39086
1.39853
1.4048
1.41
1.40598
1.39689
1.39718
1.40234
1.40887
1.42248
1.44976
1.46908
1.47925
1.48716
1.49381
1.49155
1.47753
1.47398
1.47961
1.48837
1.50174
1.534
1.56249
1.57712
1.58749
1.59688
1.59703
1.57646
1.56517
1.57179
1.58439
1.60292
1.64588
1.68663
1.70892
1.72486
1.73974
1.73766
1.71029
1.69552
1.70619
1.73073
1.76814
1.82479
1.87375
1.915
1.94917
1.93591
2.91485
10.3525
1.09364
1.11069
1.12082
1.12642
1.1306
1.13422
1.13686
1.13616
1.13565
1.13787
1.14131
1.14553
1.15589
1.17188
1.18155
1.18718
1.19163
1.19556
1.19767
1.19479
1.19384
1.19642
1.20036
1.20559
1.21927
1.23667
1.24624
1.25194
1.2566
1.26055
1.26021
1.2555
1.25547
1.2587
1.26314
1.2704
1.28878
1.30581
1.31461
1.3204
1.32537
1.32855
1.32341
1.31851
1.32051
1.32514
1.33079
1.34401
1.36717
1.38179
1.38982
1.39599
1.40129
1.39951
1.38924
1.38734
1.39163
1.39776
1.40772
1.43298
1.45619
1.468
1.4762
1.48316
1.48532
1.47188
1.46215
1.46532
1.47349
1.48391
1.50995
1.54385
1.56233
1.57342
1.58318
1.58945
1.57444
1.55492
1.55374
1.56492
1.57913
1.60903
1.65656
1.68887
1.70802
1.72428
1.73346
1.71542
1.69176
1.68698
1.70344
1.73069
1.77631
1.82692
1.8637
1.89687
1.90561
2.92216
10.3015
1.09046
1.10704
1.11755
1.12317
1.12721
1.13067
1.13326
1.13271
1.13217
1.13432
1.13769
1.14166
1.15068
1.16714
1.17768
1.18334
1.1876
1.19128
1.19318
1.19032
1.18931
1.19192
1.1958
1.20048
1.21231
1.23056
1.24112
1.24692
1.25137
1.25508
1.25532
1.25053
1.24973
1.25276
1.25712
1.26317
1.2797
1.29845
1.30821
1.31413
1.31897
1.32257
1.31879
1.31232
1.31306
1.31731
1.32273
1.33343
1.35635
1.37327
1.38208
1.38847
1.39412
1.39551
1.38498
1.37839
1.38107
1.38711
1.39575
1.41773
1.4449
1.45935
1.46799
1.47509
1.48047
1.47204
1.45629
1.4536
1.46053
1.46981
1.48842
1.52477
1.55105
1.56432
1.57414
1.58269
1.57715
1.55426
1.54469
1.55072
1.56299
1.58075
1.62089
1.6645
1.69162
1.71057
1.72712
1.72735
1.7026
1.68538
1.68747
1.70603
1.73684
1.78329
1.82232
1.85163
1.86952
2.95144
10.2885
1.08736
1.10308
1.11428
1.12018
1.12427
1.12778
1.13071
1.13062
1.12954
1.13128
1.13453
1.1384
1.14601
1.16208
1.17367
1.17967
1.1839
1.1875
1.18985
1.18743
1.1858
1.18807
1.19188
1.19644
1.20653
1.2243
1.23582
1.24213
1.2468
1.2509
1.25284
1.24777
1.24485
1.24725
1.25166
1.25759
1.27254
1.29178
1.30251
1.30889
1.31409
1.31879
1.3182
1.3093
1.30645
1.30986
1.31532
1.32469
1.34667
1.36644
1.37648
1.38313
1.389
1.39327
1.3857
1.37437
1.37352
1.37892
1.38654
1.4037
1.43369
1.45299
1.46265
1.46977
1.47623
1.47408
1.45663
1.44871
1.45256
1.4608
1.4723
1.50227
1.53888
1.55881
1.57014
1.57985
1.58394
1.56571
1.54615
1.54291
1.55151
1.56466
1.58956
1.63489
1.67384
1.69882
1.71778
1.73216
1.72366
1.69971
1.68754
1.69341
1.71235
1.74604
1.78851
1.81875
1.83636
2.97651
10.295
1.08545
1.10029
1.11204
1.11825
1.12256
1.12631
1.12959
1.13032
1.12833
1.12928
1.13227
1.1361
1.14304
1.15827
1.17067
1.17718
1.18174
1.18565
1.1889
1.18792
1.18468
1.18561
1.18898
1.19336
1.20247
1.21972
1.23207
1.23887
1.24403
1.24857
1.25215
1.24885
1.2431
1.24387
1.24784
1.2533
1.26679
1.28712
1.29927
1.30597
1.31143
1.3165
1.31904
1.3107
1.3042
1.30589
1.31087
1.31807
1.33723
1.36126
1.37395
1.38097
1.38689
1.39219
1.38931
1.37549
1.37133
1.37518
1.38177
1.39228
1.41986
1.44727
1.46042
1.46807
1.47489
1.47805
1.46415
1.44961
1.44853
1.45516
1.46405
1.48149
1.52032
1.5524
1.56866
1.57948
1.5888
1.58443
1.55777
1.54354
1.54595
1.55699
1.57152
1.60261
1.647
1.68057
1.70399
1.72378
1.73476
1.72468
1.70199
1.69091
1.69739
1.71568
1.75046
1.787
1.80776
3.00653
10.3089
1.08418
1.09801
1.11083
1.11769
1.12233
1.12626
1.12979
1.13157
1.12905
1.12878
1.13129
1.13486
1.14064
1.15494
1.16861
1.17594
1.18096
1.18522
1.18909
1.19018
1.18572
1.18497
1.1877
1.1917
1.19877
1.21574
1.23022
1.23781
1.24316
1.24782
1.252
1.25115
1.24407
1.24315
1.24651
1.25126
1.26079
1.28201
1.29795
1.30578
1.31127
1.31621
1.31986
1.31433
1.30545
1.30535
1.30954
1.31513
1.32754
1.35395
1.37234
1.38101
1.38714
1.39269
1.39396
1.38183
1.37294
1.3741
1.3797
1.38677
1.40405
1.43715
1.45846
1.46827
1.47545
1.48151
1.47636
1.45692
1.44855
1.45143
1.45971
1.46987
1.49606
1.53797
1.5646
1.57832
1.58857
1.59573
1.58302
1.5572
1.54808
1.55239
1.56354
1.58021
1.61615
1.65789
1.68796
1.71012
1.72942
1.7357
1.72444
1.70266
1.69132
1.69603
1.7132
1.74925
1.77726
3.03713
10.3269
1.08391
1.09604
1.11061
1.1185
1.12335
1.12739
1.13102
1.13367
1.1315
1.12983
1.13167
1.13495
1.13942
1.15163
1.16755
1.17643
1.18179
1.18619
1.19021
1.19285
1.18887
1.18597
1.18779
1.19151
1.19674
1.21141
1.22941
1.23877
1.24426
1.24887
1.25319
1.25451
1.24749
1.2444
1.24677
1.25113
1.25722
1.2749
1.2962
1.3068
1.31276
1.31775
1.32225
1.32044
1.31011
1.30671
1.30937
1.31439
1.32153
1.34293
1.36888
1.38155
1.38851
1.39437
1.39916
1.39232
1.37818
1.37474
1.37823
1.3845
1.39369
1.42084
1.45301
1.46902
1.47742
1.48432
1.48823
1.47337
1.45502
1.45183
1.45679
1.46498
1.47683
1.51075
1.55143
1.57391
1.58683
1.59745
1.60381
1.5852
1.55933
1.55268
1.55898
1.57099
1.59054
1.62852
1.66604
1.69301
1.71409
1.73168
1.73473
1.72226
1.69974
1.68665
1.68836
1.70565
1.73947
3.06203
10.3486
1.08452
1.09451
1.11083
1.12038
1.1255
1.12957
1.13321
1.1363
1.13523
1.13207
1.13296
1.13583
1.13963
1.1489
1.16655
1.17793
1.18387
1.18833
1.19235
1.19572
1.19333
1.18828
1.18889
1.1921
1.19644
1.20697
1.22742
1.24022
1.2465
1.25119
1.25555
1.25854
1.25328
1.24734
1.2481
1.25153
1.25626
1.26708
1.29118
1.30746
1.31496
1.32022
1.32509
1.32729
1.31792
1.30965
1.30992
1.31396
1.31961
1.33208
1.36098
1.38155
1.39059
1.39679
1.40234
1.40268
1.38768
1.37716
1.37788
1.38322
1.39003
1.40423
1.43905
1.46641
1.47863
1.4865
1.49376
1.49376
1.47264
1.45666
1.45492
1.45999
1.46861
1.48514
1.52621
1.56483
1.58534
1.59749
1.60731
1.60844
1.58665
1.56404
1.55946
1.56625
1.57832
1.60092
1.63962
1.67342
1.6975
1.71624
1.73081
1.73153
1.71781
1.69344
1.67648
1.67614
1.69556
3.06934
10.3776
1.08594
1.09364
1.11056
1.12254
1.12832
1.13246
1.13608
1.13934
1.13954
1.13527
1.13485
1.13734
1.14089
1.14745
1.16474
1.17943
1.18649
1.19113
1.19517
1.19884
1.19845
1.1921
1.1909
1.19342
1.19724
1.20376
1.22271
1.24098
1.24931
1.25428
1.25866
1.26259
1.2607
1.2521
1.24986
1.25209
1.25627
1.26271
1.28266
1.3062
1.31718
1.32321
1.3281
1.33228
1.32791
1.31513
1.31168
1.31444
1.31948
1.32644
1.34801
1.37754
1.39225
1.39949
1.4051
1.40991
1.40251
1.38533
1.37993
1.3822
1.38801
1.39561
1.41788
1.45609
1.47873
1.4895
1.49752
1.50446
1.49624
1.4696
1.45713
1.45901
1.46628
1.47545
1.49509
1.53884
1.57402
1.5922
1.60416
1.61438
1.61503
1.59144
1.56915
1.5654
1.57278
1.58539
1.611
1.64895
1.67919
1.70097
1.71809
1.7288
1.72721
1.71135
1.685
1.66315
1.65272
3.04965
10.4108
1.08803
1.09395
1.10948
1.1243
1.1313
1.1356
1.13921
1.14251
1.14385
1.13944
1.13735
1.13936
1.14274
1.14748
1.16191
1.18022
1.18928
1.19423
1.19826
1.20197
1.2035
1.19748
1.1936
1.19515
1.19857
1.20309
1.21641
1.23916
1.25154
1.2576
1.26209
1.26629
1.26776
1.25893
1.25232
1.25336
1.257
1.26195
1.27412
1.30061
1.31801
1.32564
1.33087
1.33558
1.33707
1.32526
1.31566
1.31593
1.3198
1.32525
1.33591
1.36575
1.39075
1.40117
1.4077
1.41348
1.4159
1.4009
1.38477
1.38213
1.38598
1.39269
1.40295
1.43474
1.47193
1.4897
1.49839
1.5048
1.50991
1.49792
1.47271
1.46335
1.46506
1.47143
1.48093
1.50531
1.55051
1.58346
1.60101
1.61289
1.62125
1.61806
1.59501
1.57441
1.57091
1.57795
1.591
1.61988
1.65766
1.68543
1.70447
1.7188
1.72515
1.72155
1.7032
1.66965
1.63139
3.004
10.4471
1.09058
1.0955
1.1077
1.12493
1.13378
1.13859
1.14235
1.14573
1.14804
1.14457
1.14059
1.14179
1.14492
1.14883
1.15878
1.17894
1.19129
1.19717
1.20139
1.20517
1.20808
1.20419
1.19738
1.19726
1.20021
1.20424
1.21198
1.23376
1.25231
1.26029
1.26525
1.26947
1.27282
1.26793
1.25735
1.25561
1.25858
1.26289
1.26926
1.28997
1.31558
1.32724
1.33338
1.33844
1.34302
1.33868
1.3237
1.3182
1.31983
1.32446
1.33071
1.34907
1.38272
1.40225
1.41098
1.41728
1.42283
1.41957
1.3984
1.38621
1.38675
1.39195
1.39865
1.41098
1.44796
1.48171
1.49692
1.50619
1.51443
1.51897
1.50072
1.47478
1.46686
1.4706
1.47864
1.48873
1.51465
1.55854
1.58864
1.60514
1.61717
1.62578
1.62298
1.59964
1.57859
1.57474
1.58136
1.5952
1.62673
1.66397
1.68957
1.70634
1.71732
1.72043
1.71497
1.68768
1.63562
2.94429
10.4852
1.09351
1.09778
1.10593
1.12396
1.13572
1.1414
1.1454
1.14887
1.1518
1.15018
1.14469
1.14452
1.14729
1.15092
1.15696
1.17493
1.19219
1.19989
1.20445
1.20831
1.21181
1.21113
1.20284
1.19997
1.20232
1.2061
1.21086
1.22576
1.24971
1.26196
1.26789
1.27234
1.27641
1.27692
1.26626
1.2594
1.26041
1.26382
1.26854
1.27944
1.30731
1.32763
1.33603
1.34155
1.34639
1.34869
1.33623
1.32231
1.32075
1.32443
1.32995
1.33804
1.3648
1.39696
1.41148
1.41835
1.42404
1.42973
1.42249
1.40019
1.39076
1.39101
1.39525
1.40213
1.41925
1.46129
1.49326
1.507
1.51488
1.52141
1.52459
1.50556
1.48174
1.47487
1.47729
1.4837
1.49388
1.52273
1.56581
1.59428
1.6105
1.62255
1.63005
1.62643
1.60366
1.58202
1.57712
1.58264
1.59678
1.63083
1.66833
1.69206
1.70582
1.71258
1.71441
1.70268
1.66118
2.89573
10.5231
1.09656
1.10033
1.10541
1.12125
1.13673
1.14384
1.14816
1.15177
1.15505
1.15583
1.15006
1.1477
1.1498
1.1532
1.1573
1.16938
1.19043
1.20174
1.20721
1.2113
1.21503
1.2172
1.21063
1.20402
1.20473
1.20792
1.2119
1.21965
1.24238
1.26183
1.26992
1.27498
1.27932
1.28298
1.27777
1.26537
1.26234
1.26494
1.26917
1.27509
1.29402
1.32313
1.33786
1.3446
1.34944
1.35383
1.35121
1.33409
1.32502
1.32572
1.32946
1.335
1.3461
1.37922
1.40804
1.42048
1.42782
1.43424
1.4383
1.42388
1.40063
1.39318
1.39565
1.40114
1.40787
1.42647
1.46946
1.49914
1.51263
1.52246
1.53086
1.5328
1.51089
1.48587
1.47838
1.48191
1.48966
1.5007
1.5307
1.57216
1.59899
1.61489
1.62702
1.63459
1.63075
1.6058
1.58278
1.57714
1.58198
1.59615
1.632
1.66938
1.69113
1.70201
1.70637
1.70482
1.68903
2.8775
10.5594
1.09972
1.10294
1.10654
1.11757
1.13594
1.14584
1.15082
1.15464
1.15811
1.16071
1.15686
1.15172
1.15241
1.15529
1.15887
1.16537
1.18491
1.20234
1.2098
1.21428
1.21813
1.2216
1.21953
1.2101
1.20738
1.20957
1.21325
1.21801
1.23252
1.25793
1.27146
1.27758
1.28203
1.28617
1.28749
1.27564
1.26618
1.26671
1.27045
1.27512
1.28326
1.30959
1.33529
1.34579
1.35169
1.35678
1.36122
1.35345
1.33463
1.32778
1.32912
1.33346
1.3395
1.35617
1.394
1.41942
1.42952
1.43517
1.44087
1.44475
1.42796
1.40577
1.39928
1.39979
1.40408
1.41146
1.43503
1.48101
1.5106
1.52309
1.53083
1.53718
1.53787
1.51716
1.4932
1.48542
1.48758
1.49418
1.50597
1.53964
1.58084
1.60567
1.61982
1.63075
1.63723
1.6328
1.60741
1.58313
1.57615
1.5799
1.59361
1.63103
1.66839
1.6879
1.69633
1.69688
1.70425
2.89383
10.5937
1.10316
1.10552
1.10855
1.11464
1.13227
1.14698
1.1535
1.15767
1.16131
1.16465
1.16419
1.15716
1.15514
1.15724
1.1606
1.16483
1.17764
1.19993
1.21163
1.21707
1.2211
1.22483
1.2269
1.21907
1.21131
1.21171
1.215
1.21897
1.22565
1.24785
1.27037
1.2796
1.2846
1.28895
1.2931
1.28936
1.27508
1.27002
1.27154
1.27498
1.27999
1.29285
1.32422
1.34575
1.35492
1.36099
1.36624
1.36861
1.35369
1.33531
1.33131
1.33414
1.33915
1.34532
1.36529
1.40408
1.42673
1.43704
1.44457
1.45118
1.45203
1.4297
1.40674
1.40146
1.40531
1.4119
1.41928
1.44199
1.48683
1.51459
1.52708
1.53623
1.54441
1.54573
1.52368
1.49772
1.48899
1.49214
1.50004
1.51359
1.54868
1.58711
1.60957
1.6234
1.63436
1.64151
1.63618
1.6083
1.58209
1.57368
1.57644
1.58962
1.62849
1.66487
1.68275
1.6864
1.70587
2.93763
10.6283
1.10669
1.10767
1.11046
1.11437
1.12693
1.14641
1.1561
1.16089
1.16457
1.16799
1.17021
1.1646
1.15881
1.15957
1.1626
1.16625
1.17255
1.19261
1.21166
1.21957
1.22409
1.22798
1.23164
1.22978
1.21886
1.21497
1.21678
1.22006
1.2243
1.23573
1.26305
1.28063
1.28788
1.29251
1.29685
1.29969
1.28931
1.27526
1.27266
1.27535
1.27977
1.28545
1.30468
1.3377
1.35513
1.36241
1.36761
1.37297
1.37442
1.35641
1.33968
1.33659
1.33828
1.34277
1.34984
1.37568
1.41632
1.43737
1.44591
1.45087
1.45653
1.45748
1.43568
1.41498
1.41023
1.41128
1.41543
1.42297
1.44873
1.4951
1.52342
1.53565
1.54344
1.54966
1.54996
1.53014
1.50538
1.4961
1.49746
1.5036
1.51757
1.55571
1.59441
1.61608
1.62839
1.638
1.64399
1.63846
1.60964
1.58054
1.56997
1.5716
1.58468
1.62443
1.65943
1.67259
1.69727
2.99718
10.665
1.11038
1.10995
1.11256
1.116
1.12291
1.14217
1.15751
1.16392
1.16781
1.1713
1.17459
1.17335
1.16501
1.16265
1.16467
1.16782
1.17166
1.18306
1.20722
1.22119
1.2272
1.23134
1.23522
1.23807
1.23062
1.22004
1.2186
1.22107
1.22479
1.23015
1.24883
1.27689
1.29034
1.29655
1.30072
1.30493
1.30427
1.28825
1.27747
1.27731
1.28018
1.28456
1.29117
1.31617
1.34848
1.36354
1.37103
1.37707
1.38234
1.3797
1.35717
1.34137
1.34008
1.34414
1.34937
1.35598
1.38265
1.4221
1.44169
1.45171
1.45969
1.46615
1.46503
1.44074
1.41819
1.41246
1.41591
1.42232
1.43011
1.45456
1.49901
1.52587
1.53817
1.54741
1.55554
1.55747
1.53774
1.51035
1.49867
1.49985
1.50686
1.52241
1.561
1.59796
1.61834
1.63084
1.64091
1.647
1.6413
1.61073
1.57811
1.56519
1.5658
1.57872
1.61938
1.64808
1.67942
3.06138
10.6985
1.11515
1.11274
1.11493
1.11812
1.12199
1.13485
1.1559
1.16625
1.17117
1.17495
1.17847
1.18081
1.17438
1.16686
1.16664
1.16912
1.17263
1.17801
1.19709
1.22015
1.22993
1.23478
1.23871
1.24253
1.24236
1.22958
1.2219
1.22281
1.22611
1.23007
1.23727
1.26258
1.28821
1.29857
1.30427
1.30869
1.31296
1.30816
1.28956
1.28087
1.28109
1.28396
1.28865
1.2979
1.32901
1.3599
1.3727
1.37882
1.38329
1.38867
1.38534
1.36202
1.34814
1.34634
1.34788
1.35243
1.36054
1.3919
1.4331
1.45266
1.4607
1.46577
1.47115
1.47134
1.44898
1.42693
1.42095
1.42177
1.42554
1.43314
1.46034
1.50651
1.53374
1.54558
1.55352
1.5604
1.56253
1.54458
1.51628
1.50309
1.50255
1.50758
1.52223
1.56294
1.60191
1.62292
1.63481
1.64375
1.64885
1.6431
1.61161
1.57509
1.55935
1.55846
1.57263
1.60923
1.65056
3.11805
10.7252
1.12148
1.11644
1.11731
1.12
1.1233
1.12961
1.1496
1.16737
1.17465
1.1787
1.18217
1.18543
1.18433
1.17381
1.16931
1.17102
1.17433
1.17808
1.1868
1.21189
1.23057
1.23789
1.24209
1.24596
1.24949
1.244
1.22987
1.2258
1.22736
1.23034
1.23464
1.24566
1.27598
1.29837
1.30757
1.31329
1.31805
1.32127
1.31012
1.28994
1.28362
1.28582
1.29007
1.29471
1.30488
1.33839
1.36729
1.37919
1.38662
1.3927
1.39764
1.39004
1.36406
1.34978
1.3496
1.35425
1.35994
1.36747
1.39744
1.43693
1.45562
1.46544
1.47336
1.47986
1.47929
1.45612
1.43131
1.42315
1.42563
1.43189
1.44034
1.46731
1.51063
1.5359
1.54866
1.55885
1.5667
1.56893
1.5494
1.51839
1.50318
1.50248
1.5086
1.52441
1.56518
1.60428
1.62512
1.63687
1.64529
1.64947
1.64303
1.61146
1.57179
1.55199
1.55032
1.56235
1.61207
3.15337
10.7479
1.1286
1.12159
1.1198
1.12215
1.12541
1.12931
1.14112
1.16417
1.17661
1.18193
1.1855
1.18886
1.19145
1.18491
1.17472
1.17366
1.17615
1.17949
1.18362
1.19797
1.22561
1.23995
1.24594
1.24993
1.25373
1.25556
1.24358
1.23036
1.22858
1.23137
1.23526
1.24016
1.25609
1.28868
1.30746
1.31485
1.31967
1.32411
1.32715
1.31354
1.29456
1.28986
1.29101
1.29414
1.29913
1.31258
1.34968
1.37766
1.38852
1.39378
1.39788
1.40304
1.39616
1.37103
1.35837
1.35709
1.35856
1.36281
1.37127
1.40423
1.44591
1.46552
1.47364
1.4789
1.48448
1.48579
1.46485
1.43975
1.43135
1.43188
1.43574
1.44349
1.47283
1.51853
1.54429
1.5553
1.56255
1.56936
1.57296
1.55556
1.52389
1.50771
1.50579
1.50996
1.52414
1.56491
1.60496
1.6262
1.63752
1.64489
1.64798
1.64114
1.61101
1.56981
1.54556
1.53504
1.5655
3.15021
10.7703
1.13491
1.12984
1.12372
1.12483
1.12775
1.13105
1.13617
1.15452
1.17575
1.18448
1.18894
1.19245
1.19581
1.19594
1.18454
1.17732
1.17803
1.18098
1.18468
1.19047
1.21161
1.23795
1.24907
1.25413
1.25764
1.26123
1.25922
1.24238
1.23289
1.2337
1.23715
1.241
1.24609
1.26587
1.29861
1.31503
1.32226
1.32781
1.33283
1.33363
1.31538
1.29644
1.29287
1.29616
1.3009
1.3058
1.3193
1.35621
1.38243
1.39325
1.40066
1.4068
1.41135
1.40214
1.37586
1.36083
1.35969
1.364
1.36987
1.37805
1.40889
1.44861
1.46776
1.47743
1.48539
1.49193
1.49276
1.47249
1.44554
1.4341
1.43488
1.44069
1.4499
1.47943
1.52167
1.5448
1.55693
1.56763
1.57566
1.57908
1.56083
1.52732
1.50866
1.50586
1.51005
1.52263
1.56254
1.60343
1.62521
1.63643
1.64322
1.64549
1.63875
1.61013
1.56853
1.53405
1.52585
3.10895
10.7992
1.13966
1.14039
1.13056
1.12815
1.12996
1.13278
1.13624
1.14477
1.16858
1.18566
1.19227
1.19593
1.19929
1.20237
1.19766
1.18449
1.18088
1.18317
1.1868
1.19065
1.19842
1.22448
1.24762
1.2566
1.26156
1.26527
1.26858
1.26243
1.24478
1.23799
1.23898
1.24176
1.24583
1.25226
1.27661
1.30874
1.32331
1.32962
1.33348
1.33795
1.33912
1.32078
1.30363
1.30056
1.30173
1.30479
1.30994
1.32604
1.36526
1.39208
1.4023
1.40732
1.41146
1.4167
1.41031
1.38476
1.36977
1.36764
1.36921
1.37329
1.38152
1.41412
1.45607
1.47612
1.48435
1.4894
1.49544
1.49922
1.48255
1.45426
1.44164
1.44083
1.44422
1.45161
1.48147
1.52727
1.55378
1.56499
1.57217
1.57877
1.58301
1.56715
1.5327
1.51118
1.50636
1.50951
1.52059
1.55906
1.60122
1.62435
1.63537
1.64077
1.64184
1.63493
1.60873
1.55917
1.51608
3.03116
10.8341
1.14351
1.14832
1.14073
1.13243
1.13225
1.13494
1.13829
1.14237
1.15594
1.18109
1.19383
1.19921
1.20275
1.20622
1.20816
1.19805
1.18698
1.18631
1.18891
1.19205
1.1959
1.20658
1.2358
1.25625
1.26456
1.26971
1.27376
1.27654
1.26573
1.24693
1.24146
1.24394
1.24799
1.25204
1.25853
1.28486
1.31582
1.32915
1.33598
1.34164
1.34663
1.34559
1.32499
1.30668
1.30346
1.30674
1.31162
1.31662
1.33116
1.36883
1.39483
1.40603
1.41391
1.42024
1.42502
1.41844
1.3925
1.37417
1.37067
1.3743
1.37998
1.38735
1.41608
1.4561
1.47647
1.48742
1.49642
1.50299
1.5059
1.49038
1.46095
1.44474
1.44272
1.44736
1.45564
1.48419
1.52811
1.55346
1.56613
1.57677
1.5851
1.58938
1.5735
1.53739
1.51318
1.50653
1.50851
1.51763
1.55449
1.59814
1.62239
1.63296
1.63723
1.63691
1.63082
1.59913
1.54246
2.9491
10.8796
1.1468
1.15277
1.15166
1.141
1.13603
1.13746
1.14033
1.14347
1.14839
1.16747
1.19187
1.20213
1.20686
1.21033
1.21368
1.21265
1.19861
1.1901
1.19043
1.19341
1.19693
1.20119
1.21542
1.24604
1.26411
1.27131
1.27601
1.28012
1.28286
1.27073
1.25304
1.24869
1.24982
1.25231
1.25653
1.26472
1.29415
1.32479
1.33775
1.34356
1.34717
1.35207
1.35249
1.33283
1.31524
1.31163
1.31219
1.31466
1.31971
1.33587
1.37604
1.4043
1.4152
1.4205
1.42508
1.43073
1.42803
1.40328
1.38341
1.37832
1.37829
1.38155
1.38914
1.42059
1.46467
1.48658
1.49529
1.50073
1.5069
1.51213
1.50026
1.46927
1.45081
1.44728
1.44913
1.45508
1.4817
1.53047
1.56209
1.57552
1.58294
1.58922
1.59252
1.57894
1.54285
1.51461
1.50545
1.5064
1.5137
1.5493
1.59492
1.62011
1.62967
1.63185
1.63155
1.62039
1.59146
2.90299
10.928
1.14984
1.15632
1.15869
1.15355
1.1426
1.14025
1.14208
1.14502
1.14857
1.1559
1.18
1.20204
1.21056
1.21461
1.21777
1.22091
1.21582
1.20002
1.1942
1.19562
1.19871
1.20202
1.20649
1.22344
1.25468
1.27142
1.27861
1.28387
1.28858
1.29011
1.2746
1.25601
1.25172
1.2544
1.25845
1.26257
1.27029
1.29982
1.32973
1.34243
1.34986
1.35591
1.36092
1.36001
1.33918
1.31899
1.31378
1.31642
1.3212
1.32631
1.34014
1.37794
1.40596
1.41842
1.42714
1.43374
1.4389
1.43588
1.41052
1.3867
1.38002
1.3831
1.3894
1.39722
1.42525
1.4658
1.48703
1.49853
1.508
1.51474
1.51858
1.50648
1.47448
1.45265
1.44775
1.45128
1.4587
1.48355
1.53043
1.56218
1.57642
1.58531
1.59236
1.59581
1.58328
1.54692
1.51572
1.50408
1.50368
1.50967
1.54417
1.59077
1.61572
1.62351
1.62591
1.62083
1.62605
2.90868
10.9705
1.15216
1.15967
1.16242
1.16391
1.15431
1.14497
1.14466
1.14741
1.15078
1.15453
1.16417
1.1911
1.21055
1.21816
1.22238
1.22586
1.22832
1.21891
1.20343
1.1991
1.2003
1.20293
1.20676
1.21218
1.23251
1.26371
1.27918
1.28566
1.28973
1.29385
1.29595
1.28094
1.26325
1.25913
1.2598
1.26203
1.2663
1.27562
1.30763
1.33878
1.35174
1.35744
1.36113
1.36613
1.36759
1.34852
1.32779
1.32209
1.32212
1.32405
1.32873
1.34338
1.38416
1.41573
1.42783
1.43325
1.43734
1.44305
1.44382
1.42117
1.39765
1.39063
1.3899
1.39182
1.39825
1.42688
1.47251
1.49713
1.50661
1.51185
1.51736
1.52287
1.51501
1.48322
1.45973
1.45376
1.45462
1.45901
1.47919
1.52787
1.56491
1.581
1.58835
1.59344
1.59648
1.58785
1.55288
1.51769
1.50257
1.50046
1.5051
1.53826
1.58508
1.60949
1.61774
1.61384
1.64041
2.95101
11.0081
1.15282
1.16299
1.16589
1.16936
1.16838
1.1557
1.14929
1.15033
1.15294
1.15592
1.15985
1.17231
1.20118
1.21893
1.22628
1.23062
1.23407
1.23553
1.22203
1.20577
1.20253
1.20528
1.20918
1.21275
1.21796
1.23986
1.27092
1.28539
1.29213
1.29763
1.30242
1.30316
1.2857
1.26627
1.26156
1.26411
1.26838
1.2727
1.2809
1.31171
1.34232
1.35546
1.36334
1.36961
1.37466
1.37514
1.35618
1.33261
1.32409
1.32567
1.33035
1.3359
1.34858
1.38605
1.4162
1.42935
1.43872
1.44608
1.45156
1.45124
1.42855
1.401
1.3901
1.39115
1.39627
1.40416
1.43115
1.47297
1.49612
1.50786
1.51765
1.52467
1.5295
1.52194
1.49026
1.46334
1.45426
1.45565
1.46143
1.47962
1.52494
1.56274
1.5798
1.58828
1.59501
1.59937
1.59331
1.55851
1.51882
1.49971
1.49608
1.49963
1.53167
1.57745
1.60201
1.60478
1.63909
3.01863
11.0445
1.15064
1.16682
1.17026
1.17364
1.1766
1.17135
1.15747
1.15316
1.1548
1.15793
1.16125
1.16555
1.18076
1.21013
1.22618
1.23286
1.23738
1.24104
1.24181
1.22734
1.2125
1.20982
1.21112
1.21355
1.21737
1.22385
1.24859
1.27969
1.29366
1.29962
1.30302
1.30712
1.30919
1.29334
1.27444
1.26961
1.27009
1.27199
1.27611
1.28537
1.31828
1.35124
1.36491
1.37066
1.374
1.37881
1.38189
1.36654
1.34248
1.33346
1.33292
1.33426
1.33835
1.35073
1.39022
1.4252
1.43971
1.44628
1.45039
1.45439
1.4562
1.43713
1.41054
1.39965
1.39848
1.40035
1.40558
1.42941
1.47553
1.505
1.51648
1.52219
1.52727
1.53325
1.53087
1.50155
1.47144
1.46005
1.45874
1.46131
1.47416
1.51867
1.56212
1.58275
1.59101
1.59616
1.59968
1.59614
1.56383
1.51963
1.49583
1.49064
1.49357
1.5246
1.56967
1.58779
1.62865
3.09341
11.0779
1.14233
1.16858
1.17454
1.17789
1.18096
1.1832
1.17371
1.16055
1.15833
1.16042
1.16331
1.16622
1.17054
1.18814
1.21804
1.23333
1.24005
1.24488
1.24897
1.24907
1.23244
1.21601
1.21311
1.21595
1.21985
1.2235
1.22951
1.25466
1.28513
1.29835
1.3051
1.3107
1.31548
1.31663
1.29991
1.2787
1.27202
1.27404
1.27838
1.28308
1.29095
1.32115
1.35306
1.36706
1.37515
1.38173
1.38688
1.3895
1.37583
1.34993
1.33656
1.33565
1.33975
1.34536
1.35596
1.39108
1.42501
1.43966
1.44737
1.45412
1.46058
1.46467
1.45011
1.4201
1.40243
1.39968
1.40358
1.41011
1.43035
1.47285
1.50213
1.51614
1.52728
1.53557
1.54099
1.53824
1.50904
1.47503
1.4593
1.45745
1.46161
1.47388
1.51525
1.55953
1.58083
1.59014
1.59686
1.60088
1.59786
1.56688
1.51939
1.4913
1.48464
1.48727
1.51989
1.55552
1.60574
3.16437
11.1051
1.13001
1.16189
1.17637
1.18249
1.18617
1.18956
1.18997
1.17623
1.16446
1.16279
1.1642
1.16709
1.17087
1.17629
1.19639
1.22591
1.24027
1.24641
1.25068
1.25456
1.25534
1.23946
1.22373
1.22075
1.22168
1.22383
1.22769
1.23482
1.26195
1.29317
1.30678
1.31249
1.31576
1.32008
1.32307
1.30936
1.28817
1.28117
1.2811
1.28231
1.28597
1.29401
1.32505
1.36042
1.37619
1.3826
1.38616
1.39095
1.39567
1.38716
1.36127
1.34655
1.34389
1.34382
1.34662
1.35561
1.38988
1.42848
1.44796
1.45754
1.46439
1.47008
1.47324
1.45962
1.42826
1.40959
1.4056
1.40611
1.40986
1.42559
1.47121
1.51021
1.52635
1.53328
1.53787
1.54324
1.54459
1.51976
1.4829
1.46451
1.46068
1.46232
1.47004
1.50897
1.55807
1.5826
1.59179
1.59653
1.59942
1.59673
1.56925
1.52055
1.48809
1.47876
1.48184
1.5078
1.57021
3.21564
11.1268
1.12436
1.14325
1.1718
1.18523
1.19103
1.19464
1.19763
1.19529
1.17792
1.16662
1.16647
1.16957
1.17318
1.17656
1.18158
1.20322
1.23305
1.24679
1.25306
1.2581
1.26253
1.26246
1.24474
1.22711
1.22351
1.22612
1.23
1.23385
1.24
1.26579
1.29655
1.31021
1.31754
1.32354
1.32842
1.33093
1.31781
1.29456
1.28376
1.28388
1.28771
1.29254
1.29934
1.3261
1.3604
1.37712
1.38642
1.39408
1.3996
1.40372
1.3966
1.37042
1.35039
1.3448
1.34719
1.35229
1.36084
1.39152
1.43246
1.45427
1.46336
1.46796
1.47255
1.47756
1.46988
1.43836
1.41356
1.40641
1.40897
1.41441
1.42823
1.46933
1.50713
1.52444
1.53521
1.54422
1.54985
1.55047
1.52641
1.48743
1.46481
1.45942
1.46195
1.47031
1.5061
1.55344
1.57811
1.58812
1.59405
1.59765
1.59593
1.57164
1.52321
1.48577
1.47206
1.46773
1.52541
3.23041
11.145
1.12539
1.13208
1.15376
1.18046
1.19242
1.19807
1.2019
1.20468
1.19986
1.18223
1.17318
1.17301
1.17458
1.17734
1.18122
1.18795
1.21203
1.24122
1.25428
1.25994
1.26321
1.26667
1.26809
1.25268
1.23561
1.23156
1.23203
1.23365
1.2373
1.24417
1.27121
1.30415
1.31918
1.32524
1.32859
1.33271
1.33693
1.3284
1.30514
1.29322
1.29154
1.29185
1.29451
1.30077
1.32718
1.36641
1.387
1.39501
1.39922
1.40365
1.40898
1.40697
1.38233
1.35959
1.35324
1.35393
1.35673
1.36265
1.38835
1.42963
1.45332
1.46459
1.4739
1.48073
1.48568
1.47943
1.44897
1.42302
1.41454
1.41348
1.4157
1.42479
1.46371
1.5107
1.53325
1.54154
1.54587
1.5505
1.55382
1.53639
1.49687
1.47064
1.46315
1.46312
1.46701
1.49747
1.54721
1.57597
1.58788
1.59322
1.59544
1.59325
1.57277
1.52654
1.48609
1.45841
1.4768
3.19918
11.1659
1.12878
1.13324
1.13898
1.16102
1.1872
1.1988
1.20456
1.20874
1.21204
1.20701
1.1873
1.17656
1.17681
1.18019
1.18424
1.18797
1.19392
1.21788
1.24642
1.2588
1.26494
1.2702
1.27475
1.27563
1.25956
1.23982
1.23381
1.23575
1.23971
1.24398
1.24968
1.27364
1.3059
1.32139
1.32948
1.33616
1.34118
1.3449
1.33774
1.31366
1.29662
1.29309
1.29595
1.30069
1.30676
1.32845
1.36582
1.38719
1.39773
1.40632
1.41249
1.41725
1.41538
1.39125
1.36523
1.35498
1.35443
1.35738
1.36273
1.38609
1.43329
1.46339
1.47508
1.48139
1.48656
1.49107
1.48742
1.45941
1.42847
1.41504
1.41464
1.41912
1.42809
1.46116
1.50575
1.52879
1.54027
1.55017
1.55645
1.55892
1.54241
1.50199
1.47136
1.46044
1.46039
1.46515
1.49258
1.54132
1.57231
1.58544
1.59098
1.59245
1.58951
1.57128
1.52943
1.4761
1.45485
3.12297
11.1938
1.13235
1.13537
1.1384
1.14409
1.16623
1.1926
1.20441
1.20977
1.21372
1.21702
1.21331
1.1955
1.1856
1.18524
1.18668
1.18898
1.19258
1.19924
1.2239
1.25312
1.26629
1.27195
1.27507
1.27876
1.28146
1.26899
1.24939
1.24288
1.2429
1.24392
1.24702
1.25275
1.27653
1.31217
1.33055
1.33766
1.34137
1.34512
1.34994
1.34768
1.32531
1.30645
1.30165
1.30162
1.30322
1.30805
1.32773
1.3693
1.39673
1.40738
1.41246
1.41593
1.42091
1.42286
1.40323
1.37351
1.35969
1.35897
1.36365
1.37008
1.38844
1.43155
1.46302
1.47631
1.48337
1.48898
1.49423
1.49558
1.47312
1.43981
1.42382
1.42032
1.42093
1.42567
1.45313
1.50406
1.53561
1.54693
1.55207
1.55577
1.55961
1.55033
1.51223
1.47698
1.46293
1.46021
1.46182
1.48416
1.53478
1.56979
1.58375
1.58779
1.58792
1.5835
1.56838
1.52172
1.47035
3.02487
11.2356
1.13693
1.13824
1.13987
1.14226
1.14758
1.17091
1.1985
1.21058
1.21624
1.22069
1.22429
1.22094
1.20276
1.19004
1.1886
1.19146
1.19501
1.19825
1.20356
1.22679
1.25622
1.2696
1.27653
1.28228
1.28695
1.28948
1.27805
1.25618
1.24568
1.24566
1.24909
1.25347
1.25844
1.27803
1.31258
1.3316
1.34069
1.34799
1.35336
1.3577
1.35651
1.33573
1.31241
1.30357
1.30464
1.30897
1.31457
1.33012
1.36805
1.39607
1.40849
1.41718
1.42424
1.42948
1.43142
1.41353