/*--------------------------------*- C++ -*----------------------------------*\
  =========                 |
  \\      /  F ield         | OpenFOAM: The Open Source CFD Toolbox
   \\    /   O peration     | Website:  https://openfoam.org
    \\  /    A nd           | Version:  12
     \\/     M anipulation  |
\*---------------------------------------------------------------------------*/
FoamFile
{
    format      ascii;
    class       volVectorField;
    location    "5.62";
    object      U;
}
// * * * * * * * * * * * * * * * * * * * * * * * * * * * * * * * * * * * * * //

dimensions      [0 1 -1 0 0 0 0];

internalField   nonuniform List<vector> 
22702
(
(2 -4.11986e-16 0)
(2 -5.71318e-14 0)
(2.0379 -0.0955919 0)
(2 -1.16883e-09 0)
(1.9763 0.029794 0)
(2 -5.38817e-14 0)
(1.82959 0.229169 0)
(2 2.07472e-14 0)
(2 -5.00218e-14 0)
(2.10955 -0.254125 0)
(1.82971 0.229058 0)
(1.83055 0.229452 0)
(2 8.11474e-14 0)
(1.83169 0.229661 0)
(2.03922 -0.078346 0)
(2 -2.10013e-13 0)
(2 -2.6234e-13 0)
(2 -9.00789e-15 0)
(1.82943 0.228799 0)
(2 7.24858e-15 0)
(1.83178 0.229255 0)
(2 -5.06822e-14 0)
(1.82933 0.228445 0)
(2.10524 -0.260965 0)
(1.83113 0.229951 0)
(2.07775 -0.273951 0)
(2 -2.16673e-14 0)
(1.8296 0.229126 0)
(2.13798 -0.274757 0)
(2.10516 -0.260238 0)
(2 -7.155e-15 0)
(1.83096 0.229155 0)
(2 -3.20137e-14 0)
(2 4.98602e-14 0)
(2 1.9545e-13 0)
(1.8441 0.214948 0)
(1.83136 0.228728 0)
(1.8292 0.228583 0)
(2 -1.94794e-13 0)
(2 -3.71983e-13 0)
(2.05601 -0.265991 0)
(2 -8.37602e-14 0)
(1.91619 0.124621 0)
(2 -1.00886e-13 0)
(1.82833 0.227792 0)
(2 -2.38253e-13 0)
(2 6.06974e-14 0)
(2 -3.51397e-13 0)
(2 -2.22222e-13 0)
(2.10741 -0.265439 0)
(2 -6.26785e-14 0)
(2.10277 -0.266331 0)
(2 -1.42852e-13 0)
(1.82961 0.228977 0)
(2 -3.3848e-13 0)
(1.8313 0.228875 0)
(2 1.79513e-13 0)
(2 1.25769e-09 0)
(2 1.3035e-13 0)
(2 -3.13092e-13 0)
(2.07541 -0.271814 0)
(2 -2.20084e-13 0)
(2 -8.18151e-14 0)
(2.14709 -0.272542 0)
(2 -2.1797e-14 0)
(2.09329 -0.262333 0)
(2 -7.84899e-14 0)
(2 -1.59051e-13 0)
(2 -1.20151e-13 0)
(2.10265 -0.276051 0)
(2 -1.51219e-13 0)
(1.83198 0.229058 0)
(1.89584 0.152542 0)
(2 9.48688e-10 0)
(1.83212 0.228905 0)
(1.82342 0.238629 0)
(2.09182 -0.26616 0)
(1.82976 0.228906 0)
(2.11041 -0.264881 0)
(2 -5.31117e-14 0)
(1.83034 0.228835 0)
(2.10776 -0.259631 0)
(1.82984 0.228579 0)
(1.82899 0.228396 0)
(2 2.0501e-14 0)
(2 9.24216e-07 0)
(2 2.06094e-14 0)
(2 3.73044e-14 0)
(2.01737 -0.045382 0)
(2.10785 -0.267403 0)
(1.83015 0.228403 0)
(2 2.18061e-13 0)
(2 -6.67417e-11 0)
(2.15913 -0.259747 0)
(2 7.60653e-14 0)
(1.83177 0.229172 0)
(2.15229 -0.256503 0)
(2 2.84169e-08 0)
(2 2.15897e-14 0)
(2 -1.50863e-13 0)
(2 -3.75492e-14 0)
(1.91631 0.127218 0)
(1.83015 0.228769 0)
(2.08331 -0.280119 0)
(2 -3.53439e-10 0)
(2 -1.21864e-09 0)
(1.95899 0.05711 0)
(2 8.60355e-09 0)
(2.10793 -0.258623 0)
(2 -6.77035e-14 0)
(1.83089 0.229035 0)
(1.82958 0.228267 0)
(2 4.42414e-09 0)
(2 -3.79684e-13 0)
(2.11279 -0.277919 0)
(2.11202 -0.268678 0)
(2.11174 -0.264919 0)
(2 1.00886e-13 0)
(2 -1.49909e-07 0)
(2 -6.8191e-14 0)
(2 -1.08177e-13 0)
(2 9.56763e-08 0)
(2.02301 -0.0542724 0)
(2 -1.1325e-07 0)
(1.85563 0.202181 0)
(1.98063 0.0199217 0)
(1.83022 0.22872 0)
(2 -1.05456e-13 0)
(1.83072 0.228847 0)
(1.82978 0.228683 0)
(1.83238 0.228728 0)
(1.83043 0.228914 0)
(2 2.63802e-13 0)
(2.06643 -0.277609 0)
(2 3.2093e-14 0)
(2.14672 -0.26506 0)
(2 -4.82554e-14 0)
(2 -4.05299e-14 0)
(2 1.05159e-13 0)
(2 -1.24908e-14 0)
(1.82962 0.228121 0)
(2 2.90953e-09 0)
(2 2.51438e-13 0)
(2 -2.97312e-13 0)
(2 1.66049e-13 0)
(1.82855 0.228403 0)
(2 -3.80068e-14 0)
(1.99482 0.0132277 0)
(2 1.50079e-13 0)
(2 -2.1805e-13 0)
(2 -6.89195e-11 0)
(2 -1.70439e-14 0)
(2.10964 -0.264933 0)
(2 -5.05813e-14 0)
(1.99524 0.00943424 0)
(2 -6.4852e-15 0)
(2.10923 -0.265472 0)
(2 -9.73015e-14 0)
(2 -1.31845e-13 0)
(2 -1.64648e-13 0)
(1.82978 0.228818 0)
(2 -1.89454e-14 0)
(1.83078 0.228834 0)
(2.13412 -0.26492 0)
(2.08132 -0.285504 0)
(1.83281 0.229593 0)
(1.83179 0.229172 0)
(2 -3.43912e-14 0)
(1.96712 0.0477545 0)
(1.90386 0.14071 0)
(2 6.34985e-16 0)
(1.82936 0.228396 0)
(2.11079 -0.2656 0)
(1.84365 0.215399 0)
(2 -6.8594e-15 0)
(2 8.42638e-14 0)
(2 -4.87136e-14 0)
(2 1.66429e-13 0)
(1.83152 0.229618 0)
(1.858 0.203672 0)
(2 1.90357e-13 0)
(1.83004 0.228637 0)
(2.14007 -0.268963 0)
(1.83041 0.228698 0)
(2 8.98793e-15 0)
(2.10628 -0.262646 0)
(2 -1.12916e-13 0)
(2.10353 -0.264609 0)
(2.07267 -0.27303 0)
(2.00007 -0.0001447 0)
(2 -1.11572e-13 0)
(2 -4.99927e-14 0)
(1.83068 0.227906 0)
(2 7.39588e-14 0)
(2 -2.22622e-13 0)
(1.83121 0.228628 0)
(2 -3.1888e-13 0)
(1.83109 0.228741 0)
(1.82995 0.228332 0)
(2.11245 -0.272348 0)
(2 -8.24243e-15 0)
(2 -1.3021e-14 0)
(2.10962 -0.26661 0)
(1.83193 0.229027 0)
(2 1.02646e-13 0)
(2 -2.83468e-14 0)
(2 1.75872e-14 0)
(1.83184 0.228953 0)
(2 4.30619e-14 0)
(2.13799 -0.264301 0)
(2 -6.03645e-11 0)
(2 2.45337e-13 0)
(1.83173 0.229196 0)
(1.83138 0.228997 0)
(1.83106 0.228913 0)
(2 -3.17079e-14 0)
(1.99999 2.45287e-05 0)
(2 3.7802e-16 0)
(2 -3.21864e-14 0)
(2 9.56269e-14 0)
(1.83209 0.228741 0)
(2 -1.12956e-13 0)
(2.10799 -0.263976 0)
(1.82625 0.235972 0)
(1.83153 0.228807 0)
(1.83134 0.228617 0)
(2 1.96033e-07 0)
(2 -3.47357e-14 0)
(2 -3.38699e-13 0)
(2.11359 -0.27601 0)
(1.83192 0.229265 0)
(1.92421 0.11508 0)
(2 3.24062e-14 0)
(1.83092 0.229594 0)
(2.11751 -0.265549 0)
(2.13114 -0.266865 0)
(1.83102 0.229616 0)
(1.83149 0.229669 0)
(2 6.7878e-15 0)
(1.82995 0.230048 0)
(2.10259 -0.285906 0)
(1.85081 0.205946 0)
(2 -3.23287e-14 0)
(2 1.04945e-13 0)
(2 -2.02214e-13 0)
(2 -4.58449e-14 0)
(1.83134 0.228982 0)
(2 -3.50053e-13 0)
(1.9016 0.144023 0)
(1.9834 0.0304696 0)
(2 -1.55884e-13 0)
(2 2.58502e-13 0)
(1.83149 0.228829 0)
(2.15201 -0.251564 0)
(2.05962 -0.164633 0)
(2 -2.46398e-13 0)
(1.83153 0.228801 0)
(2.13752 -0.262739 0)
(1.83073 0.22857 0)
(2 -5.92394e-14 0)
(2 -4.98599e-14 0)
(2 -6.69704e-14 0)
(2 -1.55144e-13 0)
(2 -1.0693e-13 0)
(2 -1.46998e-13 0)
(2 -1.18122e-13 0)
(2.11134 -0.265536 0)
(2.0599 -0.173454 0)
(2.1324 -0.265649 0)
(1.83133 0.228923 0)
(2 -1.64419e-13 0)
(2 1.78085e-13 0)
(2 -1.7118e-07 0)
(2 -4.31469e-13 0)
(1.8436 0.207373 0)
(2 -2.02474e-07 0)
(2.11122 -0.264639 0)
(2 2.31239e-14 0)
(2.1168 -0.28287 0)
(2.10967 -0.26581 0)
(1.83212 0.228896 0)
(2.11146 -0.263854 0)
(1.83177 0.229288 0)
(2 -1.01078e-13 0)
(2 -4.83966e-14 0)
(2 -1.02621e-13 0)
(2.00085 -0.00166928 0)
(2.11036 -0.266872 0)
(2.12223 -0.274204 0)
(2 -3.08049e-07 0)
(2 -1.41784e-07 0)
(2.1191 -0.284372 0)
(2 2.42182e-09 0)
(1.82953 0.228335 0)
(2.08594 -0.277111 0)
(2 -9.79598e-14 0)
(2 -3.5194e-11 0)
(1.83046 0.228883 0)
(2.14367 -0.26897 0)
(2 -2.05448e-13 0)
(1.83648 0.227328 0)
(2.08953 -0.279103 0)
(1.83116 0.228691 0)
(2 7.33086e-15 0)
(2.11371 -0.286367 0)
(2.00083 -0.00151191 0)
(2 -1.50192e-14 0)
(2 3.03151e-06 0)
(2 -3.95434e-14 0)
(2.10615 -0.265543 0)
(2 -4.17693e-13 0)
(2 -1.79248e-07 0)
(2 2.13986e-07 0)
(1.99999 1.46555e-05 0)
(1.9874 0.0110208 0)
(1.8948 0.152269 0)
(2 -2.53085e-11 0)
(2.09278 -0.251483 0)
(2 -1.5587e-11 0)
(2 1.58432e-06 0)
(2 -6.42424e-14 0)
(2 -3.20415e-13 0)
(2 -1.28635e-14 0)
(2 -9.48472e-14 0)
(2 -1.02026e-12 0)
(1.83046 0.228985 0)
(2 1.84689e-13 0)
(1.83118 0.228224 0)
(2 1.23775e-15 0)
(2 -2.37954e-13 0)
(2 3.42622e-14 0)
(2.12399 -0.263364 0)
(2 5.88605e-14 0)
(1.82855 0.228123 0)
(2.11412 -0.264349 0)
(2 1.03495e-13 0)
(1.86941 0.187927 0)
(2 -1.35818e-13 0)
(2 -1.24516e-13 0)
(1.82812 0.229666 0)
(2 -1.51046e-14 0)
(2 -8.48892e-09 0)
(2 -8.55492e-14 0)
(1.82844 0.227479 0)
(2 4.26958e-10 0)
(2 -2.28776e-13 0)
(1.83621 0.22005 0)
(1.82868 0.229852 0)
(2 1.37562e-13 0)
(1.96454 0.0593283 0)
(2 -3.71805e-14 0)
(2 7.80289e-15 0)
(2.14273 -0.256644 0)
(2 -2.45182e-13 0)
(2 -4.38492e-14 0)
(2 4.20422e-14 0)
(2.17167 -0.265068 0)
(2 1.8824e-13 0)
(2 -9.90982e-15 0)
(2 8.48417e-14 0)
(2 9.94295e-14 0)
(2.1051 -0.260651 0)
(2 -1.25003e-13 0)
(2 1.85303e-14 0)
(2 -2.38345e-13 0)
(2 -8.96254e-14 0)
(2 1.51303e-13 0)
(2.1373 -0.260844 0)
(1.99998 3.64717e-05 0)
(1.83138 0.229231 0)
(2 5.36522e-14 0)
(2.00001 -1.79978e-06 0)
(1.83212 0.22925 0)
(1.83259 0.229603 0)
(2 -3.24105e-14 0)
(2 -9.03355e-14 0)
(2.1099 -0.281277 0)
(2.06645 -0.121014 0)
(1.83021 0.228869 0)
(2 -1.30581e-13 0)
(2 -9.35652e-14 0)
(2 -2.79588e-14 0)
(1.83128 0.228562 0)
(2.09383 -0.278682 0)
(2 1.07786e-13 0)
(1.83102 0.228978 0)
(2 -9.29887e-14 0)
(2 -2.23819e-14 0)
(2.10701 -0.212295 0)
(2.10037 -0.211307 0)
(2 -5.57369e-14 0)
(2.11778 -0.265823 0)
(2.12998 -0.261595 0)
(2 -3.46188e-15 0)
(2 -7.19691e-14 0)
(2 1.51354e-14 0)
(2 2.92154e-14 0)
(2 -9.23933e-11 0)
(2 1.5841e-13 0)
(2 2.25638e-13 0)
(1.82907 0.2287 0)
(1.95636 0.0600422 0)
(1.84288 0.212731 0)
(2.14252 -0.260265 0)
(2.02733 -0.0674423 0)
(1.83038 0.228609 0)
(2 -4.56636e-13 0)
(1.83127 0.228548 0)
(1.83018 0.22887 0)
(2.11447 -0.26525 0)
(2.07957 -0.153674 0)
(2 5.51023e-13 0)
(2.14398 -0.262749 0)
(2 -1.2488e-14 0)
(1.8226 0.234651 0)
(2 -9.68789e-15 0)
(2 -1.79033e-14 0)
(2 1.43078e-13 0)
(2 -2.57869e-14 0)
(1.83161 0.228949 0)
(2 -1.27238e-13 0)
(2 -1.94031e-14 0)
(2 -8.0874e-14 0)
(2 1.52842e-09 0)
(2 -2.7003e-14 0)
(2 -2.81798e-13 0)
(2 8.13322e-14 0)
(1.93561 0.0970356 0)
(1.82918 0.228319 0)
(2 6.24517e-15 0)
(1.83138 0.228932 0)
(2 3.89806e-14 0)
(2 -1.63134e-13 0)
(2.10783 -0.261533 0)
(2 6.35585e-14 0)
(2 -8.42802e-14 0)
(2 -2.11955e-13 0)
(2 -1.76912e-13 0)
(1.83192 0.229019 0)
(1.87219 0.181549 0)
(2 -3.79876e-13 0)
(2 -2.59265e-13 0)
(2.11492 -0.264821 0)
(1.83191 0.229005 0)
(1.83177 0.229216 0)
(2 -1.52775e-13 0)
(1.83177 0.229205 0)
(1.83138 0.22862 0)
(1.83137 0.22899 0)
(2 2.8323e-14 0)
(2.06286 -0.111227 0)
(2 8.45573e-14 0)
(1.83176 0.228413 0)
(2.00104 -0.0116369 0)
(1.83142 0.229038 0)
(2 -1.76517e-13 0)
(2.13472 -0.265129 0)
(2.00039 -0.000737019 0)
(1.82904 0.22862 0)
(2 -5.36221e-14 0)
(2 -1.84716e-13 0)
(2 -3.89753e-11 0)
(2 -2.1184e-11 0)
(2.11175 -0.260411 0)
(1.83203 0.22894 0)
(1.84792 0.211101 0)
(2 5.54477e-14 0)
(1.82998 0.230149 0)
(1.83126 0.22847 0)
(1.82991 0.228719 0)
(2 -8.66694e-14 0)
(1.91741 0.11321 0)
(1.83202 0.229236 0)
(2 4.76671e-14 0)
(2 -9.11151e-14 0)
(1.8812 0.170568 0)
(1.97931 0.0400474 0)
(1.83172 0.229139 0)
(2.01936 -0.0439035 0)
(1.83162 0.229116 0)
(2 -2.15494e-14 0)
(1.83158 0.229054 0)
(1.83139 0.22885 0)
(1.8315 0.229037 0)
(1.83209 0.229267 0)
(2 -9.44045e-14 0)
(1.84071 0.215499 0)
(2.02657 -0.0657221 0)
(2.03498 -0.0745359 0)
(2 1.08592e-14 0)
(2 -3.53727e-07 0)
(2 -1.00525e-13 0)
(2 -1.20535e-13 0)
(1.83054 0.229858 0)
(2 3.44098e-14 0)
(2 5.72297e-14 0)
(2 3.06774e-14 0)
(2 9.62971e-14 0)
(2 -6.92697e-14 0)
(1.82916 0.228682 0)
(2 1.91061e-14 0)
(2 4.79158e-14 0)
(2.00157 -0.00242016 0)
(1.83188 0.229153 0)
(1.8481 0.215956 0)
(2 9.05655e-14 0)
(1.85487 0.208275 0)
(1.99998 2.40035e-05 0)
(2 -8.77037e-14 0)
(2 -9.10284e-15 0)
(1.83209 0.229535 0)
(2 -4.85965e-14 0)
(2.00165 -0.00264264 0)
(1.99875 0.00359758 0)
(2 3.6481e-14 0)
(1.83139 0.229 0)
(2 8.4518e-14 0)
(1.83185 0.229427 0)
(2 6.32059e-15 0)
(2 6.99153e-14 0)
(1.87521 0.177569 0)
(2 -3.02975e-14 0)
(1.83186 0.229188 0)
(1.99999 1.27699e-05 0)
(2 1.82952e-13 0)
(1.83225 0.228195 0)
(2 -3.18624e-13 0)
(1.83194 0.229033 0)
(2 1.12182e-13 0)
(2 2.99861e-06 0)
(2 1.06868e-13 0)
(1.83128 0.22879 0)
(2 9.91575e-14 0)
(1.8309 0.230431 0)
(2 4.79863e-06 0)
(1.83145 0.229022 0)
(1.82981 0.228861 0)
(1.83193 0.228593 0)
(1.82893 0.228369 0)
(2 -8.23165e-14 0)
(1.82989 0.228984 0)
(1.82658 0.23143 0)
(2 -3.46704e-14 0)
(2.10803 -0.261667 0)
(1.84113 0.217947 0)
(1.87811 0.174326 0)
(2 -1.59093e-13 0)
(1.83136 0.228786 0)
(2 6.7223e-14 0)
(2.1435 -0.256554 0)
(2.08673 -0.272573 0)
(2 -3.50731e-14 0)
(2 1.35794e-14 0)
(2 -1.92665e-14 0)
(2 3.01464e-14 0)
(2 1.38585e-09 0)
(2.15515 -0.255082 0)
(2 -1.40649e-15 0)
(1.83141 0.229026 0)
(1.9567 0.0637056 0)
(1.83216 0.229516 0)
(2 -4.14827e-14 0)
(2 9.18938e-11 0)
(2 -1.23817e-13 0)
(2 -1.24687e-13 0)
(2 -5.42655e-08 0)
(1.83125 0.228808 0)
(2 -8.10698e-14 0)
(1.83093 0.230439 0)
(1.89803 0.148746 0)
(2.08506 -0.154459 0)
(2 1.297e-09 0)
(1.99999 7.83582e-06 0)
(1.94744 0.0779741 0)
(1.96389 0.0620827 0)
(2 5.49415e-14 0)
(2 -2.58633e-14 0)
(1.93645 0.0912459 0)
(2 1.05432e-13 0)
(2.10532 -0.262408 0)
(1.83202 0.228926 0)
(1.83188 0.22891 0)
(2 -7.57593e-11 0)
(2 -1.16137e-13 0)
(2 -2.84172e-13 0)
(1.8294 0.228719 0)
(2 -4.25436e-13 0)
(1.99999 1.53725e-05 0)
(1.83125 0.227406 0)
(1.8321 0.229171 0)
(2.01714 -0.0329006 0)
(2 8.45146e-14 0)
(2 1.57278e-10 0)
(2.10581 -0.26423 0)
(1.8473 0.210545 0)
(2 -1.35776e-13 0)
(2 -5.55144e-14 0)
(2 1.06397e-14 0)
(2 -2.90098e-11 0)
(2 -1.22674e-13 0)
(1.83189 0.229104 0)
(1.82996 0.228639 0)
(2 -1.37894e-13 0)
(1.83174 0.228267 0)
(1.83088 0.229414 0)
(1.83166 0.228512 0)
(2 1.30421e-13 0)
(2 -1.44837e-15 0)
(2 -6.03507e-11 0)
(2 -2.89681e-15 0)
(2.07224 -0.279566 0)
(1.83043 0.228888 0)
(2 -4.35887e-11 0)
(2 -1.26243e-14 0)
(1.8471 0.211656 0)
(1.83207 0.228197 0)
(2 8.1594e-14 0)
(1.84136 0.217997 0)
(1.83044 0.228175 0)
(2 -1.91104e-13 0)
(2 -2.14657e-07 0)
(2 8.08006e-11 0)
(2 -5.11763e-14 0)
(2 -2.18555e-14 0)
(1.83158 0.228999 0)
(2 -8.96799e-14 0)
(2 -5.54272e-14 0)
(2 -4.16275e-14 0)
(2 -1.62551e-13 0)
(1.83103 0.231694 0)
(2 -2.65024e-13 0)
(1.84282 0.223733 0)
(2.12404 -0.25833 0)
(2 -1.30423e-13 0)
(2.11685 -0.267153 0)
(2 5.58365e-14 0)
(2 -1.36023e-07 0)
(2 -2.43246e-14 0)
(2.00113 -0.00172527 0)
(2.10783 -0.260423 0)
(2.0003 -0.000591071 0)
(2 1.64946e-13 0)
(2 3.13191e-14 0)
(2 -1.19449e-07 0)
(1.97345 0.0396185 0)
(2 -8.55919e-14 0)
(2 -3.9709e-15 0)
(2.04727 -0.0834815 0)
(2 -2.09221e-07 0)
(2 7.40578e-14 0)
(2 -1.76509e-14 0)
(2 -2.0619e-07 0)
(2 1.64683e-07 0)
(2 -1.94149e-07 0)
(2 2.10149e-14 0)
(2 -1.63796e-06 0)
(2.02149 -0.051635 0)
(2 -5.55927e-07 0)
(2 -4.0645e-08 0)
(2.00101 -0.00133409 0)
(2 -8.13009e-14 0)
(2.11579 -0.262388 0)
(2 -2.89505e-11 0)
(2 -4.46968e-12 0)
(2 -6.37511e-11 0)
(2 1.27227e-14 0)
(1.87469 0.176847 0)
(2 1.031e-15 0)
(2 1.14552e-13 0)
(2 1.38385e-13 0)
(2 -1.71602e-07 0)
(2.11609 -0.264632 0)
(2 5.18768e-14 0)
(2 1.32679e-09 0)
(1.84071 0.21802 0)
(1.83021 0.228789 0)
(2 -2.97287e-07 0)
(2 1.21889e-13 0)
(2 -1.1471e-07 0)
(2.03456 -0.0678468 0)
(2 -1.47666e-13 0)
(2 4.4831e-10 0)
(2 -1.00978e-13 0)
(2 -3.8786e-14 0)
(2 1.93985e-13 0)
(2 1.24368e-13 0)
(2.0146 -0.0250572 0)
(1.99391 0.00718281 0)
(1.83225 0.228684 0)
(2 1.03736e-13 0)
(2 -1.66181e-14 0)
(2 -1.63979e-14 0)
(1.83142 0.228448 0)
(2.02728 -0.0684543 0)
(2 -4.75132e-09 0)
(2 1.62204e-13 0)
(2 2.64671e-14 0)
(1.82844 0.228462 0)
(1.83216 0.228458 0)
(2 -3.05809e-08 0)
(2 5.05547e-06 0)
(2 3.39933e-09 0)
(2 -1.13895e-13 0)
(2 1.34123e-09 0)
(2 -2.59433e-14 0)
(2 -5.59945e-12 0)
(2 9.98679e-14 0)
(2 -7.76047e-14 0)
(2.12982 -0.264865 0)
(2 -9.98392e-14 0)
(2 -1.28017e-11 0)
(1.82902 0.228513 0)
(2.13946 -0.266189 0)
(2 -2.62385e-13 0)
(1.82978 0.229003 0)
(2 7.00088e-11 0)
(2.10937 -0.264559 0)
(2 3.18811e-14 0)
(2 -9.26766e-14 0)
(2.12918 -0.262768 0)
(2 -1.96523e-13 0)
(2 -9.90968e-12 0)
(2 -5.84697e-12 0)
(2 -2.07225e-13 0)
(2 -2.50484e-12 0)
(2 2.95226e-14 0)
(2 -1.14931e-13 0)
(1.83484 0.225273 0)
(1.83203 0.228579 0)
(2 1.22045e-13 0)
(2 -1.3207e-13 0)
(2 -9.40306e-14 0)
(2 1.90435e-13 0)
(1.84563 0.212916 0)
(2 2.24781e-13 0)
(1.94508 0.078664 0)
(2.11685 -0.264964 0)
(2 -3.34378e-08 0)
(2 2.3296e-13 0)
(2 -6.50169e-14 0)
(2 -3.52127e-14 0)
(2 -1.0572e-14 0)
(2 -1.16928e-13 0)
(2 -6.31381e-14 0)
(1.98921 0.0163701 0)
(2 -3.55682e-14 0)
(2 -2.02062e-13 0)
(1.90646 0.128302 0)
(2 4.25252e-14 0)
(2 -1.30116e-13 0)
(2 -4.16765e-14 0)
(1.85984 0.195405 0)
(2 -6.40153e-14 0)
(2 1.74158e-13 0)
(2 -1.57027e-13 0)
(2 -1.52743e-13 0)
(2.13286 -0.260516 0)
(2 2.73291e-12 0)
(2 1.80146e-13 0)
(2.12986 -0.276693 0)
(2.13845 -0.263849 0)
(2 -6.77682e-14 0)
(2 -8.23997e-14 0)
(1.83139 0.228392 0)
(2 -1.47365e-13 0)
(1.96107 -0.0313799 0)
(2 3.22139e-14 0)
(2 -8.91315e-14 0)
(2 5.44e-14 0)
(1.88216 0.170117 0)
(2.12309 -0.260069 0)
(2 4.13676e-15 0)
(2.12014 -0.271989 0)
(2 -4.5372e-14 0)
(2.07965 -0.152614 0)
(2 -6.12625e-15 0)
(2 6.27704e-14 0)
(2 2.79773e-14 0)
(1.83062 0.228058 0)
(2 -3.94455e-08 0)
(2 -2.14369e-13 0)
(1.83095 0.228632 0)
(2 -5.42451e-14 0)
(2 -3.28856e-11 0)
(2 1.68856e-09 0)
(1.8309 0.228694 0)
(2 2.24951e-10 0)
(2 -4.51451e-14 0)
(1.83212 0.229166 0)
(2 -2.4098e-13 0)
(2 -1.40793e-14 0)
(2.11626 -0.267772 0)
(2 -1.73659e-11 0)
(1.94553 0.0775606 0)
(2 1.93403e-14 0)
(2 -2.41329e-14 0)
(1.82988 0.22842 0)
(1.83041 0.228718 0)
(1.88759 0.160238 0)
(1.84987 0.207402 0)
(2 2.84297e-13 0)
(2.13673 -0.26369 0)
(2 -3.43424e-14 0)
(2 1.38956e-13 0)
(1.83896 0.220224 0)
(2 4.62312e-14 0)
(2.10946 -0.26706 0)
(2 2.44019e-15 0)
(2 1.22332e-14 0)
(2 -9.30356e-14 0)
(1.83141 0.229217 0)
(2 -3.01938e-14 0)
(2 -8.33711e-14 0)
(2 4.13794e-14 0)
(2 1.35898e-13 0)
(1.8996 0.147939 0)
(2 6.0437e-14 0)
(1.84639 0.206947 0)
(1.83078 0.230418 0)
(2.16231 -0.262541 0)
(2 1.47981e-13 0)
(2 -1.84455e-13 0)
(2.07492 -0.272583 0)
(2.07823 -0.269185 0)
(2 -6.81344e-14 0)
(2 5.66671e-15 0)
(2 -6.97382e-12 0)
(1.88028 0.172787 0)
(1.87344 0.18004 0)
(2 -3.08368e-14 0)
(2 -6.71441e-14 0)
(2 -1.70309e-13 0)
(2 -1.53075e-13 0)
(2 -1.02245e-13 0)
(2 -1.8506e-14 0)
(2 -2.84328e-13 0)
(1.92775 0.109531 0)
(1.8289 0.228799 0)
(1.99644 0.00596718 0)
(2 -9.84148e-14 0)
(1.83379 0.226934 0)
(2.06484 -0.280601 0)
(2 -1.08897e-14 0)
(2 3.70748e-14 0)
(2 9.44071e-14 0)
(1.90615 0.137193 0)
(2 1.16326e-13 0)
(1.96853 0.0560378 0)
(2 -7.68959e-14 0)
(1.8456 0.212915 0)
(1.8322 0.228263 0)
(2 -8.17428e-14 0)
(2.13499 -0.266004 0)
(2 9.33205e-14 0)
(1.83134 0.228751 0)
(2 -5.5179e-14 0)
(2 6.43341e-14 0)
(1.83069 0.229052 0)
(1.84145 0.217777 0)
(2 -3.25277e-13 0)
(1.82513 0.229095 0)
(2 -9.33767e-14 0)
(2.17152 -0.249825 0)
(2 9.95759e-14 0)
(2 -1.52346e-13 0)
(2 6.41637e-14 0)
(1.8297 0.233242 0)
(1.83525 0.22499 0)
(1.85202 0.204186 0)
(2 3.24327e-15 0)
(1.82954 0.228509 0)
(1.83206 0.228933 0)
(2 2.52272e-13 0)
(1.83126 0.22969 0)
(2 -8.14909e-09 0)
(1.83238 0.22818 0)
(2 -1.37123e-13 0)
(2.1348 -0.268147 0)
(2.01101 -0.0185204 0)
(2.1199 -0.264881 0)
(2 -3.29592e-11 0)
(2 -2.40349e-11 0)
(2 -3.49507e-11 0)
(2 -2.2321e-13 0)
(2 -1.51415e-11 0)
(1.83201 0.229345 0)
(2 -1.54645e-14 0)
(1.83172 0.22922 0)
(2 -3.65017e-11 0)
(2 -9.53396e-11 0)
(2 6.6158e-14 0)
(1.83975 0.220086 0)
(2 -6.59984e-14 0)
(2.10664 -0.2628 0)
(1.83098 0.228645 0)
(2 -7.49967e-15 0)
(2.11925 -0.26591 0)
(2.121 -0.240606 0)
(2.11818 -0.25827 0)
(2 -4.48235e-14 0)
(1.91723 0.119314 0)
(1.98224 0.0124276 0)
(1.83094 0.229529 0)
(1.83174 0.228711 0)
(2 -1.6856e-13 0)
(2 -3.14024e-07 0)
(2 -5.55277e-08 0)
(2 -3.86922e-13 0)
(1.83131 0.228771 0)
(2 -2.15085e-14 0)
(2 2.8981e-14 0)
(1.83134 0.228833 0)
(1.83242 0.229112 0)
(2 -1.06547e-13 0)
(1.94305 0.0929363 0)
(1.99974 0.000862015 0)
(2 -1.52544e-13 0)
(2.00115 -0.00204407 0)
(1.83101 0.22864 0)
(2.04703 -0.102938 0)
(2 -1.24618e-07 0)
(2.05422 -0.131217 0)
(2.10458 -0.264367 0)
(2.10522 -0.263068 0)
(1.98954 -0.0467886 0)
(1.82963 0.228367 0)
(1.83403 0.226396 0)
(1.96549 0.0533203 0)
(1.83139 0.229054 0)
(1.83199 0.229125 0)
(2 8.17415e-14 0)
(2 -3.71812e-17 0)
(1.83009 0.228867 0)
(1.82971 0.227978 0)
(1.83163 0.228819 0)
(1.8277 0.227566 0)
(2 -3.3424e-13 0)
(1.83142 0.228975 0)
(2.1024 -0.263086 0)
(1.82946 0.230006 0)
(1.83063 0.230398 0)
(1.83118 0.229184 0)
(1.83188 0.228636 0)
(2.04602 -0.0827157 0)
(2.04263 -0.0730065 0)
(2.02277 -0.0458213 0)
(1.83173 0.228841 0)
(2.00998 -0.0305802 0)
(1.83094 0.228581 0)
(2 9.58277e-14 0)
(2 -1.4848e-13 0)
(1.83091 0.229715 0)
(1.83114 0.228699 0)
(2 -8.98008e-14 0)
(2.14341 -0.265188 0)
(1.83163 0.227775 0)
(1.83234 0.229193 0)
(2 -1.30182e-13 0)
(1.83193 0.229071 0)
(1.83181 0.229086 0)
(2 3.24334e-14 0)
(1.83165 0.228663 0)
(2.11737 -0.265818 0)
(1.83029 0.228659 0)
(1.8289 0.228844 0)
(1.82998 0.228645 0)
(1.83084 0.227351 0)
(2 -1.52511e-14 0)
(2 1.23617e-14 0)
(2 -1.02417e-07 0)
(1.83235 0.229148 0)
(1.89141 0.158367 0)
(2.08677 -0.256886 0)
(1.83115 0.228729 0)
(2.12211 -0.269034 0)
(1.83194 0.228974 0)
(2 8.00485e-15 0)
(2 -1.45703e-13 0)
(2 -4.22556e-15 0)
(2 -3.28337e-14 0)
(1.8299 0.229452 0)
(1.8315 0.229238 0)
(2 -4.67332e-14 0)
(2 1.3458e-13 0)
(1.83189 0.229315 0)
(2.12239 -0.262474 0)
(1.83142 0.228913 0)
(2.11183 -0.264394 0)
(2 -1.19268e-14 0)
(1.8331 0.227777 0)
(2 6.4811e-14 0)
(2.11291 -0.261604 0)
(1.83061 0.229577 0)
(2.09612 -0.183585 0)
(2 -1.07762e-13 0)
(1.83118 0.228557 0)
(1.8305 0.230297 0)
(1.83195 0.228586 0)
(2 -1.85619e-13 0)
(2 2.33431e-13 0)
(1.92477 0.1087 0)
(1.83082 0.229887 0)
(2.11186 -0.260982 0)
(1.83195 0.228726 0)
(2 1.02859e-13 0)
(1.83215 0.22845 0)
(2.03112 -0.0770475 0)
(1.83208 0.229156 0)
(2.13383 -0.262019 0)
(2 -5.0455e-14 0)
(1.83144 0.229971 0)
(2.10554 -0.235843 0)
(1.83099 0.229809 0)
(2.10914 -0.263544 0)
(2 2.75269e-14 0)
(1.83126 0.229158 0)
(2 -1.5031e-14 0)
(1.83007 0.228736 0)
(2 -2.82073e-14 0)
(1.90177 0.144196 0)
(1.83788 0.221498 0)
(1.86686 0.187909 0)
(2.10589 -0.284216 0)
(2 7.47609e-14 0)
(1.83076 0.22842 0)
(2 -1.12196e-13 0)
(1.83192 0.229022 0)
(2 -1.17565e-07 0)
(1.83173 0.229197 0)
(2 -2.39692e-07 0)
(2 -1.84065e-13 0)
(1.83092 0.228814 0)
(2.00301 -0.0146697 0)
(1.83051 0.229937 0)
(2.15536 -0.264361 0)
(1.84103 0.233267 0)
(2 6.96101e-15 0)
(1.87836 0.17302 0)
(2 8.0234e-14 0)
(1.8306 0.228409 0)
(1.83192 0.229053 0)
(1.83105 0.228696 0)
(2 1.27178e-14 0)
(1.84815 0.209798 0)
(1.83131 0.229196 0)
(1.84343 0.214997 0)
(1.89408 0.153486 0)
(1.8342 0.229315 0)
(2 1.66621e-13 0)
(1.88881 0.160405 0)
(2 1.00761e-13 0)
(1.83088 0.229125 0)
(2 -6.20164e-14 0)
(1.97396 0.034383 0)
(2 3.93831e-14 0)
(1.8441 0.214713 0)
(2 -1.29922e-13 0)
(1.83221 0.228756 0)
(1.83862 0.22068 0)
(1.8399 0.219854 0)
(2 1.47495e-13 0)
(1.84288 0.224493 0)
(2.07536 -0.260006 0)
(2 1.43491e-13 0)
(2.1264 -0.25927 0)
(2 -2.7704e-13 0)
(2 8.17503e-14 0)
(2 5.73442e-14 0)
(1.83118 0.228904 0)
(2 2.0832e-14 0)
(1.83129 0.229322 0)
(2 2.12072e-14 0)
(2 -1.17813e-13 0)
(2 -1.89475e-13 0)
(1.83167 0.229783 0)
(1.84065 0.225309 0)
(1.85519 0.206571 0)
(1.83089 0.230185 0)
(1.83123 0.229484 0)
(2.11407 -0.26645 0)
(1.83459 0.229395 0)
(1.83102 0.228914 0)
(2 -5.63966e-14 0)
(1.85888 0.200447 0)
(1.83189 0.22877 0)
(1.83405 0.218212 0)
(2 4.14051e-14 0)
(1.82995 0.228686 0)
(1.8315 0.229069 0)
(2 -6.71115e-14 0)
(1.82591 0.22956 0)
(1.8308 0.228989 0)
(1.83027 0.228743 0)
(1.83071 0.229435 0)
(2 -5.44131e-14 0)
(2 -1.10997e-13 0)
(2 -1.51248e-13 0)
(1.83192 0.228981 0)
(2.09862 -0.277311 0)
(2 -4.20468e-14 0)
(1.83146 0.229009 0)
(2 7.31303e-14 0)
(2 -3.2555e-14 0)
(2.09305 -0.280228 0)
(2 1.20036e-13 0)
(2 -5.84141e-14 0)
(1.83163 0.228902 0)
(1.83155 0.229092 0)
(2 6.66422e-14 0)
(1.83184 0.228867 0)
(1.82993 0.229918 0)
(1.83065 0.2287 0)
(2.00859 -0.0186551 0)
(1.83111 0.228886 0)
(2 5.26342e-14 0)
(1.83114 0.228887 0)
(1.83161 0.228906 0)
(1.85726 0.198176 0)
(2 -9.85392e-14 0)
(2 -2.38894e-13 0)
(2 -1.86136e-13 0)
(1.83196 0.229044 0)
(1.83114 0.228673 0)
(1.83173 0.229054 0)
(2.01847 -0.0373052 0)
(2 1.15558e-13 0)
(1.8318 0.233222 0)
(1.83106 0.228591 0)
(1.83142 0.228922 0)
(2 -1.01088e-13 0)
(1.83128 0.228658 0)
(1.83117 0.229108 0)
(1.83134 0.228933 0)
(1.83247 0.233927 0)
(2 2.43192e-14 0)
(1.83213 0.228782 0)
(1.82997 0.23128 0)
(1.85758 0.20269 0)
(1.83138 0.229745 0)
(1.83303 0.232773 0)
(2 -9.43212e-14 0)
(1.83004 0.231346 0)
(1.8335 0.226752 0)
(1.83167 0.229028 0)
(1.83069 0.230237 0)
(1.83142 0.229502 0)
(2.08842 -0.272954 0)
(1.83038 0.228923 0)
(1.8315 0.23005 0)
(2 -5.97915e-14 0)
(1.83131 0.229006 0)
(1.83156 0.228947 0)
(1.83138 0.228825 0)
(1.83222 0.228808 0)
(2 -6.30401e-08 0)
(1.83157 0.229216 0)
(1.83144 0.229213 0)
(2 -1.699e-07 0)
(1.8323 0.229241 0)
(1.85681 0.199633 0)
(2 -1.23615e-13 0)
(2 -6.65906e-15 0)
(2 6.65641e-10 0)
(1.83117 0.229844 0)
(1.83196 0.229263 0)
(2 -1.99437e-14 0)
(2 -4.7061e-14 0)
(1.90866 0.135465 0)
(2 1.55276e-14 0)
(1.83157 0.22904 0)
(2 1.73497e-14 0)
(2 1.11898e-13 0)
(1.83194 0.22923 0)
(1.83084 0.229621 0)
(1.83144 0.228681 0)
(1.83221 0.229079 0)
(2 3.04836e-15 0)
(2 9.01845e-14 0)
(2 -4.50807e-14 0)
(1.88522 0.167399 0)
(2 -3.30006e-14 0)
(1.832 0.228718 0)
(2 -4.23876e-13 0)
(2 -1.68572e-13 0)
(1.83143 0.228754 0)
(1.82905 0.228701 0)
(2 -2.38619e-14 0)
(1.83163 0.228808 0)
(2.13046 -0.276892 0)
(1.83162 0.228516 0)
(1.83218 0.228673 0)
(2.08171 -0.213517 0)
(2 7.93344e-14 0)
(2.1035 -0.285542 0)
(1.85173 0.20608 0)
(1.83213 0.228392 0)
(1.83253 0.228097 0)
(1.83237 0.228426 0)
(2.13722 -0.256539 0)
(1.83093 0.229101 0)
(1.83176 0.229915 0)
(2.13136 -0.259178 0)
(2.13012 -0.269789 0)
(2 -2.60246e-07 0)
(1.8319 0.228009 0)
(1.83168 0.228964 0)
(2 -4.58061e-14 0)
(2 9.33438e-15 0)
(1.83172 0.22896 0)
(2 7.07402e-14 0)
(1.83196 0.229394 0)
(2 2.35433e-06 0)
(1.85262 0.20453 0)
(2 -4.70283e-14 0)
(1.91877 0.119896 0)
(1.83162 0.229204 0)
(1.83038 0.229956 0)
(1.87667 0.17099 0)
(1.84089 0.222778 0)
(1.8314 0.228995 0)
(1.83035 0.229484 0)
(1.83474 0.218988 0)
(2 -6.85115e-14 0)
(2.07525 -0.281269 0)
(1.83153 0.227132 0)
(1.83174 0.229129 0)
(1.82776 0.231088 0)
(2 7.05101e-06 0)
(2 3.44679e-10 0)
(2 1.54131e-09 0)
(1.83227 0.231241 0)
(2 -1.71497e-13 0)
(1.83168 0.229247 0)
(1.83207 0.229161 0)
(2.08532 -0.169749 0)
(2 6.94024e-16 0)
(1.83176 0.22894 0)
(2.00002 -4.20309e-05 0)
(2 1.01274e-13 0)
(1.99999 1.92021e-05 0)
(1.99998 2.74057e-05 0)
(1.83167 0.229022 0)
(1.8298 0.22811 0)
(2.00053 -0.000866574 0)
(2 4.57106e-14 0)
(2 1.49463e-15 0)
(1.83186 0.229132 0)
(1.83082 0.229785 0)
(1.83159 0.229072 0)
(1.83188 0.228754 0)
(1.8306 0.229725 0)
(2.09425 -0.258697 0)
(1.85268 0.20263 0)
(2 4.76346e-14 0)
(1.83307 0.227729 0)
(1.83147 0.228717 0)
(1.83196 0.229084 0)
(1.8396 0.223811 0)
(2 -6.47443e-14 0)
(1.83181 0.228769 0)
(1.83642 0.223571 0)
(1.83098 0.229409 0)
(2 -1.6825e-13 0)
(1.83069 0.227926 0)
(1.83069 0.230217 0)
(2.05059 -0.0972876 0)
(1.83194 0.228724 0)
(1.83085 0.228009 0)
(2 -1.17409e-13 0)
(1.83131 0.229207 0)
(2.05758 -0.113517 0)
(1.83081 0.228447 0)
(2.04521 -0.0929785 0)
(1.83168 0.228911 0)
(2 -1.06726e-07 0)
(1.83134 0.228868 0)
(1.82419 0.23497 0)
(1.83183 0.229042 0)
(1.83173 0.229173 0)
(1.83137 0.228795 0)
(1.83225 0.22899 0)
(1.83133 0.229138 0)
(1.82964 0.227395 0)
(2 2.5287e-14 0)
(2.02476 -0.0469027 0)
(1.83072 0.228459 0)
(1.83198 0.229138 0)
(2.05491 -0.109447 0)
(1.83178 0.228749 0)
(2.00598 -0.0148684 0)
(1.89562 0.152816 0)
(1.83087 0.22841 0)
(1.83248 0.229187 0)
(1.82949 0.228885 0)
(2 1.76683e-13 0)
(1.83054 0.229932 0)
(1.89791 0.147673 0)
(1.8311 0.229326 0)
(2.03411 -0.0607686 0)
(1.83063 0.22967 0)
(1.82734 0.229879 0)
(2 1.96487e-13 0)
(2.04286 -0.0828462 0)
(2 -1.18053e-09 0)
(1.82974 0.234144 0)
(2 -1.14221e-13 0)
(1.88513 0.164349 0)
(2 3.21372e-09 0)
(1.84711 0.208695 0)
(2.04357 -0.0835329 0)
(2 1.23109e-13 0)
(1.83038 0.230807 0)
(1.82854 0.23493 0)
(2 2.56042e-14 0)
(1.83122 0.231269 0)
(1.83098 0.229731 0)
(1.82975 0.230383 0)
(1.82864 0.235162 0)
(1.82825 0.232815 0)
(2 -7.6954e-14 0)
(1.82967 0.228661 0)
(2 1.97645e-14 0)
(2 -8.34245e-14 0)
(2 1.98436e-13 0)
(2.03867 -0.0700889 0)
(1.83213 0.229199 0)
(1.83163 0.228725 0)
(1.83172 0.22884 0)
(1.83167 0.228781 0)
(1.83411 0.227647 0)
(1.83166 0.229312 0)
(1.83449 0.229349 0)
(1.83154 0.229292 0)
(2.03819 -0.0690438 0)
(1.98725 0.0232898 0)
(2 3.59565e-09 0)
(2 -3.71336e-14 0)
(1.82576 0.231836 0)
(1.83149 0.229086 0)
(1.83151 0.228963 0)
(1.8314 0.229141 0)
(1.99999 1.66209e-05 0)
(1.91854 0.122622 0)
(2 -1.66873e-07 0)
(1.82555 0.230048 0)
(1.85855 0.20022 0)
(2 -2.56421e-12 0)
(2 -6.09568e-11 0)
(2.09893 -0.185686 0)
(1.83163 0.228945 0)
(2 -2.32589e-14 0)
(2 -6.16994e-14 0)
(2.11569 -0.263939 0)
(1.83126 0.229023 0)
(2 -3.72345e-14 0)
(1.82992 0.228929 0)
(1.83172 0.228943 0)
(1.83131 0.228946 0)
(1.83805 0.221207 0)
(1.83158 0.228772 0)
(2 -7.58418e-11 0)
(2.09763 -0.274496 0)
(1.95682 0.0681918 0)
(1.83114 0.228531 0)
(1.83139 0.228819 0)
(2 -2.39922e-13 0)
(1.83197 0.228693 0)
(1.83151 0.228927 0)
(1.91827 0.126914 0)
(2.00018 0.00442974 0)
(1.96609 0.0558975 0)
(2 -6.57664e-15 0)
(1.82971 0.228867 0)
(1.83134 0.229001 0)
(2 -1.18527e-07 0)
(2 -2.1947e-10 0)
(2.12851 -0.260036 0)
(2 -2.40259e-10 0)
(2 5.34595e-15 0)
(1.83184 0.22887 0)
(1.83153 0.228979 0)
(1.83179 0.228168 0)
(1.83159 0.22913 0)
(1.83111 0.228988 0)
(1.82958 0.229063 0)
(1.83137 0.229079 0)
(1.83062 0.230029 0)
(1.83143 0.228828 0)
(2 3.23417e-14 0)
(2.00136 -0.0026549 0)
(1.83113 0.22901 0)
(1.83197 0.228912 0)
(2.00111 -0.00176973 0)
(1.83147 0.228952 0)
(1.83149 0.228893 0)
(2.0984 -0.264702 0)
(2.15262 -0.266307 0)
(1.83089 0.230021 0)
(1.83164 0.228843 0)
(2 -4.33569e-14 0)
(2 1.58947e-13 0)
(1.99917 0.00242501 0)
(1.83169 0.228946 0)
(1.83143 0.228378 0)
(1.83139 0.229009 0)
(2 1.05197e-09 0)
(1.83157 0.228886 0)
(2 1.71093e-14 0)
(2.05385 -0.0979488 0)
(1.82702 0.230644 0)
(1.83697 0.229829 0)
(2 -1.4437e-13 0)
(1.92 0.111337 0)
(1.83231 0.229275 0)
(2 1.9434e-13 0)
(1.82824 0.229476 0)
(2 -1.04482e-10 0)
(1.83219 0.228796 0)
(1.88552 0.161123 0)
(1.83171 0.229671 0)
(2 1.2289e-11 0)
(1.83147 0.229406 0)
(1.82757 0.23026 0)
(2.12158 -0.265106 0)
(1.83158 0.229092 0)
(2 -1.38753e-07 0)
(1.83105 0.230177 0)
(1.82878 0.228645 0)
(2 7.10594e-09 0)
(2.0978 -0.267594 0)
(1.82997 0.230479 0)
(1.87104 0.186183 0)
(2.00079 -0.000940127 0)
(1.83895 0.230282 0)
(1.83152 0.22893 0)
(2 -5.27807e-12 0)
(2.00134 0.00071912 0)
(1.82989 0.232566 0)
(2.00183 -0.00175365 0)
(1.83144 0.228878 0)
(2 -3.51014e-12 0)
(2 -6.91183e-15 0)
(1.8316 0.230053 0)
(2 -1.35353e-14 0)
(1.83142 0.22988 0)
(1.83136 0.228952 0)
(2.00127 -0.00219711 0)
(1.86756 0.182039 0)
(2 2.92596e-09 0)
(1.83137 0.228936 0)
(2 1.04287e-09 0)
(2 -6.85301e-13 0)
(2 1.11143e-11 0)
(2 6.3968e-12 0)
(1.83145 0.229159 0)
(2 6.9544e-09 0)
(2 -2.61213e-13 0)
(1.83245 0.234253 0)
(2 1.48759e-13 0)
(1.8314 0.229323 0)
(2 3.15247e-10 0)
(1.88945 0.159297 0)
(1.83169 0.227654 0)
(1.8318 0.228621 0)
(2 1.13702e-09 0)
(2 -3.94035e-14 0)