/*--------------------------------*- C++ -*----------------------------------*\
  =========                 |
  \\      /  F ield         | OpenFOAM: The Open Source CFD Toolbox
   \\    /   O peration     | Website:  https://openfoam.org
    \\  /    A nd           | Version:  12
     \\/     M anipulation  |
\*---------------------------------------------------------------------------*/
FoamFile
{
    format      ascii;
    class       volScalarField;
    location    "4.93";
    object      rho;
}
// * * * * * * * * * * * * * * * * * * * * * * * * * * * * * * * * * * * * * //

dimensions      [1 -3 0 0 0 0 0];

internalField   nonuniform List<scalar> 
22702
(
1.40001
1.40001
1.26196
1.40001
1.45829
1.40001
1.83866
1.40001
1.40001
1.03734
1.83982
1.83898
1.40001
1.8443
1.27423
1.40001
1.40001
1.40001
1.83999
1.40001
1.8431
1.40001
1.83729
1.02764
1.84432
1.0248
1.40001
1.84002
1.06035
1.02583
1.40001
1.83982
1.40001
1.40001
1.40001
1.8088
1.84005
1.83769
1.40001
1.40001
1.03808
1.40001
1.62036
1.40001
1.83702
1.40001
1.40001
1.40001
1.40001
1.02241
1.40001
1.03348
1.40001
1.83961
1.40001
1.84004
1.40001
1.40001
1.40001
1.40001
1.02076
1.40001
1.40001
1.03858
1.40001
1.00805
1.40001
1.40001
1.40001
1.03629
1.40001
1.84367
1.67265
1.40001
1.84373
1.86384
1.01324
1.83949
1.01753
1.40001
1.83789
1.02548
1.84119
1.83896
1.40001
1.40001
1.40001
1.40001
1.32605
1.03592
1.83786
1.40001
1.40001
1.03791
1.40001
1.8439
1.03921
1.40001
1.40001
1.40001
1.40001
1.6215
1.83823
1.02721
1.40001
1.40001
1.50787
1.40001
1.02704
1.40001
1.84199
1.83822
1.40001
1.40001
1.00584
1.01082
1.03517
1.40001
1.40001
1.40001
1.40001
1.40001
1.30362
1.40001
1.77621
1.44245
1.83956
1.40001
1.84034
1.83937
1.84293
1.83777
1.40001
1.03509
1.40001
1.0343
1.40001
1.40001
1.40001
1.40001
1.83798
1.40001
1.40001
1.40001
1.40001
1.83857
1.40001
1.42596
1.40001
1.40001
1.40001
1.40001
1.01503
1.40001
1.41108
1.40001
1.01904
1.40001
1.40001
1.40001
1.83699
1.40001
1.84105
1.03885
1.0259
1.84593
1.84382
1.40001
1.47246
1.6535
1.40001
1.83786
1.01945
1.8156
1.40001
1.40001
1.40001
1.40001
1.84309
1.77853
1.40001
1.8385
1.00008
1.83956
1.40001
1.03332
1.40001
1.02611
1.02847
1.3998
1.40001
1.40001
1.84069
1.40001
1.40001
1.84103
1.40001
1.84335
1.8381
1.0309
1.40001
1.40001
1.02994
1.84126
1.40001
1.40001
1.40001
1.84137
1.40001
1.05614
1.40001
1.40001
1.84146
1.84148
1.84318
1.40001
1.40004
1.40001
1.40001
1.40001
1.83764
1.40001
0.984579
1.86045
1.84177
1.8335
1.40001
1.40001
1.40001
1.01605
1.84074
1.60679
1.40001
1.83936
1.01433
1.03055
1.8386
1.83847
1.40001
1.84832
1.00725
1.78829
1.40001
1.40001
1.40001
1.40001
1.84113
1.40001
1.66183
1.44151
1.40001
1.40001
1.84237
1.03466
1.14525
1.40001
1.83953
1.06682
1.84763
1.40001
1.40001
1.40001
1.40001
1.40001
1.40001
1.40001
1.02851
1.13986
1.03177
1.84245
1.40001
1.40001
1.40001
1.40001
1.78871
1.40001
1.03201
1.40001
1.00737
1.03089
1.84231
1.0131
1.83875
1.40001
1.40001
1.40001
1.39753
1.03388
1.03532
1.4
1.40001
1.00742
1.40001
1.83856
1.02773
1.40001
1.40001
1.83782
1.05356
1.40001
1.84155
1.03075
1.84223
1.40001
1.0106
1.39764
1.40001
1.40001
1.40001
1.03624
1.40001
1.40001
1.4
1.40002
1.40321
1.67255
1.40001
1.02726
1.40001
1.40001
1.40001
1.40001
1.40001
1.40001
1.40001
1.83797
1.40001
1.84125
1.40001
1.40001
1.40001
1.0441
1.40001
1.83792
1.01934
1.40001
1.76464
1.40001
1.40001
1.83711
1.40001
1.40001
1.40001
1.82321
1.40001
1.40001
1.82901
1.83665
1.40001
1.48818
1.40001
1.40001
1.03496
1.40001
1.40001
1.40001
1.03537
1.40001
1.40001
1.40001
1.40001
1.01991
1.40001
1.40001
1.40001
1.40001
1.40001
1.03021
1.40006
1.84246
1.40001
1.40001
1.84399
1.84604
1.40001
1.40001
1.04042
1.21709
1.83928
1.40001
1.40001
1.40001
1.84195
1.03605
1.40001
1.84202
1.40001
1.40001
1.10727
1.10109
1.40001
1.02167
1.03973
1.40001
1.40001
1.40001
1.40001
1.40001
1.40001
1.40001
1.83839
1.51395
1.81674
1.03389
1.29775
1.83869
1.40001
1.84245
1.83959
1.00806
1.17943
1.40001
1.05828
1.40001
1.85039
1.40001
1.40001
1.40001
1.40001
1.84114
1.40001
1.40001
1.40001
1.40001
1.40001
1.40001
1.40001
1.55151
1.83768
1.40001
1.84218
1.40001
1.40001
1.02609
1.40001
1.40001
1.40001
1.40001
1.84147
1.73483
1.40001
1.40001
1.02449
1.8424
1.84171
1.40001
1.84155
1.84151
1.84173
1.40001
1.23944
1.40001
1.84171
1.38498
1.84171
1.40001
1.03089
1.3988
1.83677
1.40001
1.40001
1.40001
1.40001
1.03316
1.84166
1.80226
1.40001
1.83493
1.84184
1.83894
1.40001
1.60793
1.83703
1.40001
1.40001
1.70732
1.46197
1.84182
1.33002
1.84177
1.40001
1.84156
1.84176
1.84152
1.84277
1.40001
1.83597
1.27652
1.25651
1.40001
1.4
1.40001
1.40001
1.83825
1.40001
1.40001
1.40001
1.40001
1.40001
1.83717
1.40001
1.40001
1.39634
1.84188
1.78542
1.40001
1.76136
1.40005
1.40001
1.40001
1.84239
1.40001
1.39731
1.40464
1.40001
1.84143
1.40001
1.84145
1.40001
1.40001
1.72496
1.40001
1.84216
1.40003
1.40001
1.84321
1.40001
1.84172
1.40001
1.40001
1.40001
1.84113
1.40001
1.8416
1.40001
1.84124
1.8392
1.84205
1.83848
1.40001
1.83776
1.8315
1.40001
1.02065
1.81385
1.72211
1.40001
1.84117
1.40001
1.03491
1.02947
1.40001
1.40001
1.40001
1.40001
1.40001
1.04135
1.40001
1.84231
1.5207
1.84259
1.40001
1.40001
1.40001
1.40001
1.40001
1.8419
1.40001
1.84132
1.65541
1.18895
1.40001
1.40001
1.53136
1.51254
1.40001
1.40001
1.55963
1.40001
1.02571
1.84246
1.8425
1.40001
1.40001
1.40001
1.83867
1.40001
1.40003
1.8322
1.84164
1.36189
1.40001
1.40001
1.03076
1.80059
1.40001
1.40001
1.40001
1.40001
1.40001
1.84182
1.83709
1.40001
1.84318
1.84243
1.8422
1.40001
1.40001
1.40001
1.40001
1.02885
1.83906
1.40001
1.40001
1.80245
1.8403
1.40001
1.81667
1.83914
1.40001
1.40001
1.40001
1.40001
1.40001
1.84168
1.40001
1.40001
1.40001
1.40001
1.83935
1.40001
1.83952
1.05194
1.40001
1.0182
1.40001
1.40001
1.40001
1.39689
1.02081
1.39898
1.40001
1.40001
1.40001
1.45648
1.40001
1.40001
1.28636
1.40001
1.40001
1.40001
1.40001
1.40001
1.40001
1.40001
1.4
1.31815
1.4
1.40001
1.39768
1.40001
1.03551
1.40001
1.40001
1.40001
1.40001
1.73029
1.40001
1.40001
1.40001
1.40001
1.03565
1.40001
1.40001
1.81561
1.83918
1.4
1.40001
1.40001
1.27852
1.40001
1.40001
1.40001
1.40001
1.40001
1.40001
1.36569
1.40563
1.83644
1.40001
1.40001
1.40001
1.84568
1.2925
1.40001
1.40001
1.40001
1.83649
1.84335
1.40001
1.40001
1.40001
1.40001
1.40001
1.40001
1.40001
1.40001
1.40001
1.03915
1.40001
1.40001
1.83999
1.05942
1.40001
1.83939
1.40001
1.0148
1.40001
1.40001
1.04123
1.40001
1.40001
1.40001
1.40001
1.40001
1.40001
1.40001
1.83254
1.84012
1.40001
1.40001
1.40001
1.40001
1.80422
1.40001
1.53398
1.01929
1.40001
1.40001
1.40001
1.40001
1.40001
1.40001
1.40001
1.45318
1.40001
1.40001
1.63684
1.40001
1.40001
1.40001
1.76509
1.40001
1.40001
1.40001
1.40001
1.06115
1.40001
1.40001
1.03091
1.05336
1.40001
1.40001
1.84171
1.40001
1.37506
1.40001
1.40001
1.40001
1.70974
1.04263
1.40001
1.02446
1.40001
1.17963
1.40001
1.40001
1.40001
1.84273
1.40001
1.40001
1.84137
1.40001
1.40001
1.40001
1.84125
1.40001
1.40001
1.8421
1.40001
1.40001
1.00672
1.40001
1.52863
1.40001
1.40001
1.83778
1.83952
1.70173
1.79429
1.40001
1.02634
1.40001
1.40001
1.8221
1.40001
1.04256
1.40001
1.40001
1.40001
1.84176
1.40001
1.40001
1.40001
1.40001
1.66035
1.40001
1.7902
1.83962
1.03617
1.40001
1.40001
1.02631
1.02379
1.40001
1.40001
1.40001
1.71227
1.73253
1.40001
1.40001
1.40001
1.40001
1.40001
1.40001
1.40001
1.58444
1.83697
1.42727
1.40001
1.84162
1.03022
1.40001
1.40001
1.40001
1.64687
1.40001
1.48619
1.40001
1.80293
1.83974
1.40001
1.03419
1.40001
1.83902
1.40001
1.40001
1.84056
1.81468
1.40001
1.84016
1.40001
1.03715
1.40001
1.40001
1.40001
1.8302
1.83294
1.78727
1.40001
1.84336
1.84115
1.40001
1.84181
1.40001
1.84059
1.40001
1.06202
1.35294
1.04403
1.40001
1.40001
1.40001
1.40001
1.40001
1.84249
1.40001
1.84243
1.40001
1.40001
1.40001
1.82013
1.40001
1.01206
1.84111
1.40001
1.04322
1.06376
1.05428
1.40001
1.6269
1.42655
1.84442
1.84113
1.40001
1.4
1.40001
1.40001
1.842
1.40001
1.40001
1.84198
1.84172
1.40001
1.55099
1.39939
1.40001
1.39675
1.84076
1.22639
1.40001
1.19574
1.02556
1.02573
1.34553
1.83872
1.8364
1.47937
1.84148
1.84208
1.40001
1.40001
1.83847
1.84064
1.84233
1.8374
1.40001
1.84143
1.03673
1.83936
1.83956
1.84354
1.84725
1.27458
1.31083
1.32484
1.84208
1.34961
1.84253
1.40001
1.40001
1.84421
1.8425
1.40001
1.06284
1.84104
1.842
1.40001
1.84111
1.84215
1.40001
1.84202
1.04026
1.84125
1.8366
1.83743
1.84576
1.40001
1.40001
1.40001
1.84191
1.68575
1.02846
1.84165
1.03741
1.84184
1.40001
1.40001
1.40001
1.40001
1.84032
1.84254
1.40001
1.40001
1.84221
1.04147
1.84115
1.03223
1.40001
1.83878
1.40001
1.03934
1.84387
1.14107
1.40001
1.84093
1.84544
1.84164
1.40001
1.40001
1.61671
1.84448
1.02162
1.842
1.40001
1.84057
1.27943
1.84431
1.03313
1.40001
1.84035
1.0727
1.84419
1.02209
1.40001
1.84204
1.40001
1.83858
1.40001
1.65618
1.82496
1.74718
1.00795
1.40001
1.84145
1.40001
1.83958
1.40001
1.84218
1.40001
1.40001
1.84068
1.38121
1.84398
1.04701
1.81255
1.40001
1.71652
1.40001
1.84184
1.84198
1.84095
1.40001
1.7968
1.84137
1.80752
1.67995
1.83798
1.40001
1.69666
1.40001
1.83994
1.40001
1.44909
1.40001
1.80934
1.40001
1.83981
1.82108
1.82065
1.40001
1.83817
1.02676
1.40001
1.04767
1.40001
1.40001
1.40001
1.84139
1.40001
1.84329
1.40001
1.40001
1.40001
1.84214
1.82712
1.76618
1.84018
1.84353
1.01955
1.84594
1.84006
1.40001
1.80503
1.84182
1.8198
1.40001
1.83753
1.83981
1.40001
1.84501
1.84145
1.84139
1.84307
1.40001
1.40001
1.40001
1.8403
1.00715
1.40001
1.84168
1.40001
1.40001
1.02655
1.40001
1.40001
1.84209
1.84142
1.40001
1.8411
1.83941
1.84048
1.37223
1.84178
1.40001
1.8418
1.84257
1.75649
1.40001
1.40001
1.40001
1.84218
1.84175
1.84303
1.31839
1.40001
1.85043
1.84179
1.84012
1.40001
1.8425
1.84012
1.84099
1.85188
1.40001
1.84114
1.84657
1.7873
1.83955
1.85057
1.40001
1.839
1.83675
1.84302
1.83972
1.84189
1.04081
1.83995
1.83951
1.40001
1.84185
1.84272
1.84179
1.84222
1.40001
1.84175
1.84172
1.40001
1.84205
1.7727
1.40001
1.40001
1.40001
1.84024
1.84638
1.40001
1.40001
1.63431
1.40001
1.83712
1.40001
1.40001
1.84208
1.84559
1.84239
1.84195
1.40001
1.40001
1.40001
1.70663
1.40001
1.84354
1.40001
1.40001
1.84114
1.83639
1.40001
1.84139
1.05193
1.84202
1.84225
1.10307
1.40001
1.0152
1.78355
1.84768
1.84522
1.84465
1.02223
1.84047
1.8432
1.01956
1.03064
1.40001
1.84111
1.84053
1.40001
1.40001
1.84253
1.40001
1.8449
1.40001
1.7857
1.40001
1.59986
1.84302
1.84511
1.6989
1.79393
1.84161
1.84206
1.80776
1.40001
1.02396
1.84104
1.83914
1.84591
1.40002
1.40001
1.40001
1.84711
1.40001
1.84045
1.84175
1.15625
1.40001
1.84195
1.39995
1.40001
1.40003
1.40005
1.83931
1.84048
1.39845
1.40001
1.40001
1.83933
1.84364
1.84202
1.84748
1.84029
1.02941
1.7816
1.40001
1.83815
1.84247
1.84272
1.84365
1.40001
1.8413
1.83044
1.84227
1.40001
1.84207
1.8413
1.25265
1.84191
1.84186
1.40001
1.84132
1.23335
1.84189
1.24869
1.84154
1.40001
1.84032
1.84387
1.84209
1.84156
1.84161
1.84475
1.84172
1.84288
1.40001
1.32606
1.84155
1.8421
1.2354
1.84219
1.39592
1.69392
1.84143
1.84437
1.84032
1.40001
1.84409
1.6894
1.84416
1.32951
1.84318
1.84953
1.40001
1.26426
1.40001
1.84771
1.40001
1.70368
1.40001
1.81551
1.26456
1.40001
1.8387
1.84514
1.40001
1.84174
1.84471
1.85004
1.83181
1.8429
1.40001
1.83822
1.40001
1.40001
1.40001
1.29602
1.84214
1.83987
1.83916
1.84174
1.84524
1.83995
1.83662
1.84302
1.30488
1.42929
1.40001
1.40001
1.84503
1.84244
1.84277
1.84226
1.40003
1.62813
1.40001
1.84436
1.79252
1.40001
1.40001
1.12971
1.84299
1.40001
1.40001
1.04158
1.84193
1.40001
1.83811
1.84166
1.84113
1.82509
1.84189
1.40001
1.00381
1.5085
1.84084
1.84253
1.40001
1.84127
1.84156
1.63192
1.40957
1.49522
1.40001
1.8384
1.84175
1.40001
1.40001
1.02394
1.40001
1.40001
1.84193
1.84165
1.84103
1.84189
1.84171
1.84303
1.84111
1.84348
1.84213
1.40001
1.39594
1.8407
1.83926
1.39695
1.84105
1.84255
1.01064
1.03786
1.84384
1.83971
1.40001
1.40001
1.40083
1.84209
1.84111
1.8418
1.40001
1.84108
1.40001
1.24193
1.84588
1.83342
1.40001
1.60226
1.84375
1.40001
1.83769
1.40001
1.84142
1.70017
1.8394
1.40001
1.84371
1.84244
1.02018
1.84265
1.40001
1.84151
1.8375
1.40001
1.01731
1.83693
1.76816
1.39775
1.83023
1.84279
1.40001
1.39377
1.83642
1.39847
1.84172
1.40001
1.40001
1.84074
1.40001
1.84091
1.84093
1.39653
1.75026
1.40001
1.84167
1.40001
1.40001
1.40001
1.40001
1.84199
1.40001
1.40001
1.84378
1.40001
1.84146
1.40001
1.67876
1.84116
1.84064
1.40001
1.40001
1.39374
1.40001
1.8419
1.84299
1.8404
1.84142
1.84039
1.84184
1.84237
1.40001
1.84221
1.84195
1.40001
1.84229
1.84157
1.40001
1.83915
1.32643
1.46024
1.84228
1.84145
1.8427
1.40001
1.84164
1.40001
1.84203
1.84114
1.40001
1.84211
1.40001
1.40001
1.40001
1.40001
1.84141
1.01263
1.39792
1.40001
1.84129
1.84726
1.40001
1.84189
1.40001
1.40539
1.03198
1.83999
1.39961
1.40001
1.8395
1.39839
1.84207
1.40001
1.39977
1.40001
1.84014
1.84667
1.8403
1.83978
1.02056
1.843
1.84444
1.84106
1.51003
1.40001
1.40001
1.59197
1.84183
1.01251
1.02152
1.40001
1.84043
1.8418
1.8466
1.40001
1.40001
1.84185
1.84292
1.39989
1.40001
1.72323
1.05558
1.40001
1.47175
1.83756
1.84751
1.39827
1.84113
1.85034
1.40001
1.39917
1.40001
1.84043
1.83986
1.57728
1.40001
1.81179
1.40001
1.4026
1.83981
1.03627
1.84062
1.84138
1.39704
1.39992
1.77993
1.40001
1.39971
1.40001
1.84126
1.40001
1.40002
1.03649
1.8432
1.40001
1.40001
1.40001
1.40001
1.83858
1.65303
1.40001
1.40001
1.04131
1.84346
1.65417
1.40001
1.40001
1.40001
1.81962
1.81896
1.84451
1.40001
1.40001
1.84909
1.40001
1.84225
1.84169
1.40001
1.40001
1.84283
1.84134
1.82583
1.40001
1.40001
1.84293
1.84317
1.40001
1.40001
1.40001
1.84341
1.40001
1.40001
1.40001
1.8424
1.84591
1.84542
1.40001
1.84003
1.40003
1.10524
1.84082
1.84211
1.40001
1.84207
1.81952
1.83918
1.40001
1.40001
1.84508
1.40001
1.65047
1.84067
1.40001
1.02378
1.40001
1.84454
1.40001
1.40001
1.83667
1.40001
1.40001
1.40001
1.54254
1.83967
1.09215
1.40002
1.84264
1.40001
1.40001
1.84172
1.40001
1.84549
1.40001
1.40001
1.8416
1.84245
1.40001
1.40005
1.40001
1.40001
1.40001
1.40001
1.40001
1.40001
1.84525
1.8433
1.40001
1.83834
1.04542
1.84975
1.40001
1.84248
1.85059
1.84177
1.83705
1.84013
1.40001
1.40001
1.84009
1.40001
1.66807
1.84626
1.84197
1.40001
1.84383
1.83504
1.40001
1.79205
1.40001
1.84247
1.68154
1.8424
1.39746
1.83416
1.7938
1.84294
1.84377
1.43473
1.84255
1.84455
1.40001
1.84236
1.40001
1.84291
1.40001
1.40001
1.40001
1.40001
1.3968
1.84136
1.84252
1.75796
1.40001
1.84266
1.40001
1.40001
1.40001
0.991089
1.40001
1.83041
1.40001
1.80263
1.83646
1.40001
1.40001
1.40001
1.80575
1.84068
1.40001
1.40001
1.84176
1.02754
1.47102
1.40001
1.8462
1.84201
1.80405
1.83007
1.84204
1.40001
1.84308
1.40001
1.40001
1.40001
1.40001
1.84375
1.84219
1.40001
1.82902
1.45632
1.84313
1.81199
1.40001
1.40001
1.8142
1.40001
1.40001
1.02619
1.71463
1.40001
1.40001
1.8475
1.40001
1.84487
1.80288
1.40001
1.80212
1.02006
1.84278
1.8431
1.84409
1.40001
1.01342
1.40001
1.40001
1.40001
1.8427
1.7603
1.40001
1.84968
1.84228
1.40001
1.84168
1.40001
1.40001
1.40001
1.40001
1.84173
1.39934
1.40001
1.84375
1.40001
1.40001
1.84216
1.84393
1.40001
1.8444
1.4805
1.40003
1.40001
1.84423
1.40001
1.84493
1.40001
1.41519
1.84191
1.40001
1.84069
1.40001
1.40001
1.54333
1.84181
1.40001
1.40001
1.40001
1.40001
1.40001
1.39651
1.02641
1.00862
1.42104
1.40001
1.4213
1.40001
1.42154
1.40001
1.84189
1.40001
1.67982
1.40001
1.84098
1.40001
1.40001
1.40001
1.84058
1.40001
1.74643
1.8432
1.40001
1.63906
1.84184
1.40001
1.40001
1.8422
1.84306
1.40001
1.40001
1.44854
1.00985
1.40001
1.84326
1.40001
1.40001
1.40001
1.40001
1.47428
1.84038
1.40001
1.40001
1.40001
1.04557
1.40001
1.84134
1.84154
1.84674
1.40001
1.40001
1.40001
1.40001
1.62831
1.84972
1.40001
1.40001
1.40001
1.84778
1.84022
1.45063
1.40001
1.40001
1.40001
1.8439
1.8398
1.40001
1.02313
1.84175
1.84133
1.8404
1.84206
1.8396
1.40001
1.40001
1.8479
1.83886
1.84135
1.04297
1.4419
1.84293
1.40001
1.40001
1.40001
1.40001
1.40001
1.84123
1.02019
1.40001
1.40001
1.84118
1.59516
1.40001
1.84644
1.40001
1.40001
1.40001
1.03932
1.40001
1.40001
1.51597
1.84211
1.84063
1.40001
1.83674
1.84849
1.40001
1.46979
1.40001
1.8498
1.40001
1.83911
1.03207
1.40001
1.40001
1.40001
1.40001
1.84108
1.40008
1.40001
1.40001
1.40001
1.82513
1.40001
1.40001
1.40001
1.40001
1.84201
1.04112
1.75186
1.84437
1.40001
1.84146
1.40001
1.40001
1.40001
1.39709
1.40001
1.84507
1.40001
1.20089
1.40001
1.40001
1.40004
1.84169
1.04082
1.40001
1.84067
1.40001
1.84228
1.8373
1.04863
1.40001
1.40001
1.8261
1.40001
1.40001
1.03417
1.40001
1.83311
1.40001
1.82217
1.39932
1.84135
1.40001
1.40001
1.40001
1.40001
1.8372
1.40001
1.40001
1.83873
1.40001
1.40001
1.40001
1.40001
1.40001
1.40001
1.40001
1.40001
1.68987
1.40001
1.54432
1.8399
1.40001
1.40001
1.40001
1.03412
1.40001
1.40001
1.40001
1.40001
1.8425
1.84216
1.45784
1.40001
1.40001
1.84242
1.40001
1.40001
1.8421
1.40001
1.40002
1.40001
1.40001
1.40001
1.40002
1.84249
1.17397
1.84184
1.84415
1.39672
1.40001
1.40001
1.40001
1.66341
1.40001
1.40001
1.84024
1.84132
1.40001
1.40001
1.40001
1.40001
1.04542
1.40001
1.40001
1.40001
1.67668
1.40001
1.84133
1.84573
1.40001
1.84507
1.40001
1.40001
1.40001
1.64108
1.40001
1.83807
1.40001
1.84058
1.40001
1.40001
1.39621
1.84184
1.40001
1.40001
1.40001
1.40001
1.40001
1.84426
1.40003
1.40001
1.01904
1.8443
1.02
1.40001
1.84125
1.40001
1.39598
1.40001
1.84352
1.84085
1.40001
1.8343
1.25655
1.84232
1.84797
1.40004
1.40001
1.40001
1.04528
1.40001
1.40001
1.40001
1.84078
1.65338
1.84572
1.40001
1.40001
1.40001
1.40001
1.39677
1.84336
1.40001
1.03832
1.40001
1.40001
1.40001
1.40001
1.40001
1.40001
1.40001
1.84921
1.84353
1.84246
1.40001
1.40001
1.39692
1.40001
1.37072
1.40001
1.40001
1.40001
1.02166
1.36936
1.40001
1.05925
1.03493
1.40001
1.84339
1.84217
1.40001
1.83833
1.84227
1.04483
1.68582
1.40001
1.40001
1.40001
1.03709
1.84222
1.40001
1.03477
1.40001
1.83742
1.47164
1.40001
1.40001
1.40001
1.40001
1.8381
1.84033
1.40001
1.40001
1.84277
1.40001
1.40001
1.83901
1.84196
1.40001
1.81971
1.84072
1.83884
1.35754
1.83977
1.40882
1.0365
1.73698
1.84158
1.40001
1.40001
1.40001
1.05962
1.40001
1.02609
1.84905
1.35314
1.83925
1.34961
1.40001
1.84246
1.59987
1.40001
1.40001
1.84122
1.40001
1.5805
1.84316
1.40001
1.40001
1.84267
1.84631
1.03716
1.67233
1.39989
1.40001
1.67909
1.40001
1.84724
1.34257
1.84318
1.84682
1.40001
1.40001
1.40001
1.40001
1.84361
1.40001
1.40001
1.84204
1.39964
1.84151
1.74797
1.84147
1.03136
1.40001
1.40001
1.40001
1.40001
1.84118
1.40005
1.84105
1.40001
1.84114
1.83985
1.45638
1.83778
1.54307
1.84221
1.40001
1.70345
1.08564
1.84256
1.84198
1.7574
1.47146
1.84016
1.84334
1.84036
1.84233
1.40001
1.3192
1.46868
1.40001
1.84161
1.61486
1.84084
1.40004
1.40001
1.40001
1.07093
1.83782
1.83993
1.76222
1.40001
1.57437
1.40001
1.84503
1.83596
1.40001
1.84476
1.84039
1.40001
1.40001
1.40001
1.84461
1.40001
1.57573
1.8461
1.70847
1.40001
1.84072
1.40001
1.40001
1.40001
1.40001
1.40001
1.40001
1.40001
1.40001
1.40001
1.40001
1.05893
1.40001
1.82163
1.04282
1.66284
1.39857
1.83849
1.40001
1.63691
1.40002
1.68092
1.77989
1.40001
1.40268
1.84863
1.31516
1.40001
1.85151
1.8341
1.34004
1.40001
1.84012
1.84183
1.84413
1.40001
1.84163
1.84124
1.84618
1.40001
1.60551
1.40001
1.40007
1.84087
1.40001
1.84096
1.46549
1.84427
1.40001
1.40001
1.8403
1.85046
1.06191
1.40001
1.84185
1.72886
1.84081
1.40001
1.40001
1.83899
1.84224
1.39826
1.40001
1.78655
1.39695
1.8423
1.40007
1.40001
1.40001
1.40001
1.40001
1.60396
1.40001
1.73833
1.83835
1.72277
1.84291
1.40001
1.40329
1.40001
1.40001
1.83945
1.40001
1.84675
1.40001
1.40001
1.40001
1.40001
1.4
1.40001
1.45681
1.61771
1.40001
1.40001
1.02662
1.40001
1.8392
1.06839
1.84637
1.40001
1.61837
1.39975
1.84125
1.68161
1.05145
1.64275
1.40004
1.84136
1.84075
1.40001
1.66756
1.84546
1.8429
1.39841
1.83343
1.84164
1.02098
1.40001
1.40001
1.39787
1.40001
1.83789
1.40001
1.05328
1.84367
1.40001
1.40001
1.79594
1.40001
1.83874
1.40001
1.84241
1.40001
1.07996
1.40001
1.40001
1.84377
1.85022
1.85203
1.40001
1.83737
1.84218
1.84693
1.40001
1.40001
1.83054
1.4
1.12966
1.40001
1.40001
1.40001
1.84252
1.40001
1.84178
1.68513
1.83741
1.40001
1.84346
1.39938
1.40001
1.40001
1.40001
1.40001
1.40001
1.40001
1.09624
1.40001
1.40001
1.84146
1.40001
1.84757
1.84051
1.40001
1.02875
1.0382
1.40001
1.8436
1.47504
1.02044
1.00644
1.40001
1.84243
1.40001
1.84502
1.04637
1.40134
1.40001
1.40001
1.39951
1.40001
1.40001
1.40001
1.39992
1.57949
1.84189
1.40001
1.40001
1.84257
1.6604
1.40001
1.79617
1.84642
1.84122
1.58114
1.84644
1.40001
1.84614
1.40001
1.84041
1.40001
1.84554
1.84312
1.39681
1.84371
1.85184
1.40001
1.40001
1.40001
1.40001
1.40001
1.3127
1.83905
1.40005
1.40003
1.03352
1.39999
1.00369
0.999743
1.40001
1.84072
1.83992
1.84079
1.40001
1.84171
1.40001
1.03649
1.40001
1.40001
1.84379
1.21732
1.84015
1.40001
1.84285
1.40001
1.38158
1.84181
1.40001
1.40001
1.40001
1.84405
1.40001
1.84084
1.03709
1.40001
1.40001
1.65026
1.40001
1.40001
1.64202
1.40001
1.40001
1.84297
1.40001
1.40001
1.40001
1.40001
1.40001
1.84067
1.84184
1.40001
1.84132
1.84208
1.03686
1.60179
1.84164
1.40001
1.40001
1.79574
1.39898
1.40001
1.40001
1.84146
1.84725
1.68202
1.40001
1.84064
1.04662
1.81231
1.39957
1.40001
1.84052
1.40004
1.84117
1.78667
1.73637
1.40001
1.40001
1.8406
1.11389
1.03226
1.40001
1.84186
1.40001
1.84015
1.40001
1.664
1.40001
1.40001
1.84023
1.68705
1.03865
1.40001
1.39843
1.40001
1.40001
1.42532
1.58659
1.84052
1.40001
1.84746
1.40001
1.40001
1.40001
1.40001
1.40001
1.40001
1.46649
1.03028
1.40001
1.40001
1.4321
1.40001
1.40001
1.40001
1.40001
1.40001
1.83981
1.40001
1.40001
1.84211
1.84329
1.71739
1.40001
1.40001
1.40001
1.22836
1.84244
1.71405
1.40001
1.40001
1.40001
1.40001
1.84207
1.40001
1.40001
1.40001
1.84025
1.40001
1.40001
1.71871
1.85343
1.44813
1.14071
1.84545
1.70989
1.84098
1.40001
1.6188
1.40001
1.40001
1.40001
1.02561
1.4027
1.04861
1.40001
1.04824
1.01275
1.40001
1.03546
1.40001
1.40001
1.40001
1.5976
1.40001
1.84103
1.84012
1.40175
1.60422
1.78109
1.03789
1.16181
1.28585
1.40001
1.84228
1.84019
1.84241
1.84069
1.77903
1.25668
1.40001
1.78035
1.40001
1.82744
1.40001
1.40001
1.39644
1.41014
1.40001
1.40001
1.40001
1.84092
1.40001
1.03178
1.40001
1.84247
0.996984
1.40001
1.40001
1.84066
1.40001
1.84099
1.39975
1.40001
1.40001
1.84189
1.79748
1.40001
1.84985
1.40001
1.40001
1.41504
1.40001
1.5927
1.40001
1.40001
1.03741
1.40001
1.40001
1.84609
1.4
1.84276
1.40001
1.40004
1.0061
1.40001
1.40001
1.00383
1.40082
1.40001
1.84073
1.0075
1.83969
1.04572
1.8418
1.40001
1.40001
1.40001
1.40001
1.4
1.40001
1.40001
1.40001
1.40001
1.40001
1.40001
1.82337
1.40001
1.84448
1.83949
1.0301
1.40001
1.40001
1.40001
1.40001
1.40001
1.40001
1.82829
1.40001
1.40001
1.04155
1.40001
1.40001
1.84025
1.40001
1.40001
1.5715
1.77272
1.04859
1.0315
1.10381
1.14857
1.40001
1.39662
1.0188
1.40024
1.80896
1.39695
1.40001
1.40001
1.84108
1.40001
1.40001
1.40001
1.16462
1.40002
1.56044
1.40001
1.40001
1.58604
1.8432
1.40001
1.04669
1.40001
1.40001
1.40001
1.39678
1.40001
1.84071
1.84092
1.40001
1.04074
1.40001
1.64149
1.03668
1.40001
1.28231
1.40001
1.39626
1.02329
1.40001
1.40001
1.40001
1.39615
1.04567
1.40001
1.05012
1.39844
1.63315
1.79807
1.04419
1.04173
1.40001
1.39099
1.40001
1.39863
1.40001
1.84226
1.84117
1.40001
1.40507
1.84129
1.84068
1.40001
1.40001
1.84091
1.40001
1.40001
1.40005
1.40001
1.84426
1.40001
1.40001
1.41837
1.40001
1.39856
1.09054
1.40001
1.40001
1.40001
1.40001
1.40001
1.8461
1.43505
1.40006
1.40001
1.40001
1.40001
1.40001
1.40001
1.40004
1.40001
1.03422
1.4897
1.39859
1.8324
1.84104
1.40001
1.41549
1.84165
1.78012
1.40001
1.40001
1.04037
1.84212
1.40001
1.83961
1.40001
1.84333
1.70333
1.0248
1.40001
1.03625
1.80144
1.39969
1.40001
1.02926
1.0243
1.40001
1.40001
1.77409
1.40001
1.4
1.02066
1.40001
1.40001
1.40001
1.54301
1.40001
1.03189
1.84315
1.40001
1.40001
1.40001
1.40001
1.84415
1.40001
1.40001
1.85229
1.79379
1.40001
1.40001
1.40001
1.8483
1.04557
1.40001
1.84195
1.8423
1.40001
1.74971
1.4
1.40004
1.40001
1.40001
1.83057
1.40696
1.40001
1.00099
1.63818
1.40001
1.40001
1.39803
1.40001
1.40001
1.84502
1.40001
1.40001
1.40004
1.40001
1.84084
1.40001
1.40001
1.40001
1.40001
1.40001
1.40001
1.40002
1.59371
1.40001
1.84278
1.40001
1.40001
1.84287
1.40001
1.40001
1.40001
1.84373
1.84381
1.44556
1.40001
1.39764
1.40001
1.40001
1.40001
1.40001
1.83973
1.40001
1.40001
1.84222
1.03161
1.40001
1.40001
1.40001
1.40001
1.40001
1.40001
1.75923
1.40001
1.40001
1.84065
1.84274
1.40001
1.40001
1.40001
1.84154
1.83825
1.40001
1.39971
1.83883
1.40001
1.40001
1.40001
1.40002
1.01829
1.42863
1.3961
1.39567
1.40001
1.40001
1.05052
1.84273
1.40001
1.07133
1.40001
1.8408
1.82464
1.04625
1.3994
1.84054
1.84165
1.84175
1.40001
1.40001
1.32747
1.81039
1.76421
1.05567
1.40001
1.40001
1.40001
1.84586
1.8421
1.03028
1.39724
1.40001
1.8426
1.02541
1.40001
1.82301
1.02163
1.3742
1.40658
1.40001
1.83479
1.40001
1.40001
1.40001
1.40001
1.40001
1.40001
1.40011
1.81293
1.40001
1.40001
1.84623
1.40001
1.40001
1.40001
1.84231
1.40001
1.03142
1.40001
1.40001
1.40001
1.55625
1.40001
1.40001
1.40001
1.40001
1.40001
1.18905
1.40001
1.01981
1.40001
1.84298
1.40007
1.27007
1.26844
1.40002
1.40402
1.63302
1.40001
1.40001
1.02672
1.8436
1.84298
1.84212
1.40001
1.01573
1.04
1.40001
1.84319
1.40001
1.40001
1.40001
1.40001
1.40001
1.40004
1.40001
1.03473
1.67946
1.40001
1.40001
1.04617
1.38198
1.40001
1.40001
1.40001
1.40001
1.02577
1.40001
1.0931
1.40001
1.40001
1.84919
1.40001
1.40001
1.03349
1.40001
1.84226
1.40001
1.03729
1.40001
1.02109
1.40001
1.40807
1.84043
1.8528
1.40001
1.40001
1.84077
1.40001
1.40001
1.49575
1.39701
1.40001
1.39823
1.40001
1.84471
1.40001
1.04736
1.40002
1.83679
1.39868
1.40001
1.40001
1.18654
1.40001
1.39905
1.03399
1.84547
1.56005
1.40001
1.40001
1.30201
1.40001
1.40001
1.40001
1.1897
1.40001
1.40001
1.40001
1.84029
1.40001
1.02876
1.4
1.40001
1.40001
1.40001
1.01866
1.84191
1.80125
1.04234
1.40001
1.84832
1.40001
1.40001
1.842
1.84023
1.77165
1.01827
1.39779
1.39923
1.40001
1.84247
1.40001
1.40001
1.40001
1.40001
1.83995
1.40004
1.40001
1.40001
1.84446
1.40001
1.40001
1.84102
1.02176
1.40001
1.40001
1.40001
1.02658
1.40001
1.4
1.4
1.39865
1.40001
1.40001
1.40001
1.40001
1.76651
1.40001
1.83861
1.84116
1.84296
1.8412
1.84009
1.84299
1.40001
1.84462
1.40001
1.8416
1.84439
1.40001
1.39889
1.02984
1.777
1.3999
1.40001
1.40001
1.40001
1.40001
1.39291
1.40001
1.46672
1.40001
1.40001
1.40001
1.24355
1.84136
1.83977
1.84031
1.77988
1.39988
1.40001
1.42232
1.84136
1.39786
1.45495
1.3971
1.04744
1.40001
1.40003
1.40001
1.40001
1.40001
1.40001
1.40001
1.83936
1.0191
1.83946
1.84285
1.39533
1.02981
1.40001
1.40001
1.40001
1.84246
1.02789
1.79118
1.0141
1.84198
1.84106
1.01941
1.84506
1.42397
1.40001
1.84428
1.17601
1.40001
1.39884
1.03883
1.40001
1.0243
1.40001
1.84321
1.83904
1.14781
1.40001
1.84052
1.04556
1.40001
1.04874
1.40001
1.84179
1.40001
1.40001
1.84294
1.40001
1.22468
1.40001
1.39967
1.02446
1.84452
1.39949
1.40001
1.03018
1.40001
1.40001
1.40001
1.40001
1.64587
1.40001
1.8416
1.40001
1.40001
1.84861
1.40001
1.40001
1.84254
1.40001
1.00641
1.40001
1.04163
1.40002
1.40001
1.40001
1.40001
1.40001
1.82424
1.65854
1.84118
1.40001
1.84248
1.81124
1.0179
1.04379
1.40001
1.40001
1.84643
1.40001
1.00654
1.40001
1.3781
1.40001
1.40001
1.84179
1.40001
1.83834
1.03838
1.85022
1.40001
1.04809
1.40001
1.40001
1.83939
1.84366
1.40001
1.40005
1.40001
1.84036
1.40001
1.40001
0.99352
1.39942
1.02193
1.40001
1.40001
1.40001
1.84507
1.84467
1.84004
1.40001
1.40001
1.06263
1.40001
1.85577
1.40001
1.40001
1.40001
1.8021
1.84111
1.84151
1.04671
1.84455
1.84198
1.05542
1.84023
1.40005
1.05915
1.41262
1.40001
1.40001
1.84053
1.04295
1.68069
1.04175
1.84175
1.39727
1.02222
1.84319
1.40001
1.40001
1.40001
1.40001
1.84281
1.84064
1.03392
1.40001
1.40003
1.02793
1.40004
1.40001
1.05285
1.03136
1.70671
1.84599
1.39846
1.84193
1.40001
1.84754
1.22781
1.03121
1.84217
1.8491
1.40001
1.83935
1.40001
1.40001
1.84179
1.40001
1.74034
1.83999
1.40001
1.40001
1.40001
1.40001
1.84118
1.8376
1.84516
1.40001
1.40001
1.84494
1.83822
1.84115
1.40001
1.84096
1.40001
1.40001
1.40001
1.40001
1.40001
1.0336
1.23202
1.04086
1.40001
1.40001
1.84035
1.40001
1.40001
1.84296
1.02508
1.40001
1.84164
1.83625
1.82302
1.01023
1.40001
1.05666
1.40001
1.40003
1.84114
1.6181
1.83981
1.80306
1.40001
1.03431
1.40001
1.84804
1.71221
1.05673
1.40001
1.40001
1.40001
1.1855
1.40001
1.40001
1.8467
1.40001
1.04867
1.84109
1.40001
1.40001
1.40001
1.40001
1.40001
1.75601
1.50079
1.40001
1.84109
1.40001
1.84468
1.40001
1.39741
1.40001
1.84131
1.84077
1.84342
1.84579
1.3996
1.83923
1.40001
1.84169
1.83954
1.77564
1.40001
1.40001
1.01508
1.84099
1.40001
1.40001
1.8488
1.83918
1.84321
1.40001
1.84149
1.40001
1.40001
1.40003
1.83989
1.84611
1.52194
1.4992
1.84155
1.84107
1.0861
1.40001
1.40001
1.40001
1.40001
1.40002
1.5546
1.40001
1.40001
1.77001
1.01391
1.39999
1.40001
1.8422
1.3999
1.39982
1.46668
1.81667
1.84058
1.30278
1.40001
1.02992
1.40001
1.39688
1.84122
1.84541
1.84939
1.39911
1.40001
1.40001
1.03772
1.40001
1.40001
1.84127
1.44809
1.40001
1.40001
1.40001
1.40001
1.40001
1.40001
1.40001
1.39995
1.84038
1.40002
1.40001
1.40001
1.40001
1.40001
1.68466
1.40001
1.60882
1.40001
1.40001
1.84163
1.84656
1.02456
1.39879
1.40001
1.4
1.40001
1.04484
1.83946
1.84216
1.40001
1.40001
1.40001
1.40001
1.40001
1.40001
1.40001
1.40001
1.84151
1.83658
1.02118
1.44983
1.02579
1.40001
1.05627
1.40001
1.84153
1.52573
1.40001
1.40001
1.10919
1.40001
1.82346
1.1894
1.3963
1.02146
1.40001
1.40001
1.83817
1.40005
1.39702
1.00777
1.84066
1.84554
1.40001
1.40001
1.40001
1.40001
1.81405
1.40001
1.40001
1.84171
1.39893
1.84163
1.40007
1.40001
1.40001
1.03631
1.40001
1.40001
1.8406
1.03575
1.16073
1.02762
1.84037
1.39932
1.40001
1.84507
1.05058
1.05758
1.41596
1.40001
1.40001
1.84016
1.40004
1.60937
1.40001
1.40001
1.83978
1.01818
1.40001
1.40001
1.40014
1.841
1.40016
1.82824
1.40001
1.40004
1.40001
1.40001
1.13086
1.40001
1.18196
1.40003
1.40001
1.84503
1.03448
1.40001
1.16547
1.19244
1.40001
1.40001
1.84102
1.40001
1.40001
1.40001
1.84021
1.84096
1.40006
1.84005
1.83898
1.16813
1.84125
1.81852
1.40001
1.40001
1.83079
1.4
1.40001
1.40001
1.40001
1.40001
1.848
1.84241
1.40001
1.40001
1.40001
1.84058
1.40022
1.40001