/*--------------------------------*- C++ -*----------------------------------*\
  =========                 |
  \\      /  F ield         | OpenFOAM: The Open Source CFD Toolbox
   \\    /   O peration     | Website:  https://openfoam.org
    \\  /    A nd           | Version:  12
     \\/     M anipulation  |
\*---------------------------------------------------------------------------*/
FoamFile
{
    format      ascii;
    class       volVectorField;
    location    "4.93";
    object      U;
}
// * * * * * * * * * * * * * * * * * * * * * * * * * * * * * * * * * * * * * //

dimensions      [0 1 -1 0 0 0 0];

internalField   nonuniform List<vector> 
22702
(
(2 -2.02023e-13 0)
(2 1.13902e-13 0)
(2.0436 -0.0946582 0)
(2 -1.17196e-09 0)
(1.97589 0.0303361 0)
(2 3.07127e-14 0)
(1.8301 0.228649 0)
(2 -7.24038e-14 0)
(2 -3.30299e-13 0)
(2.12002 -0.264518 0)
(1.83042 0.229313 0)
(1.83052 0.228753 0)
(2 1.27674e-13 0)
(1.83284 0.229678 0)
(2.03176 -0.0770797 0)
(2 -4.97076e-14 0)
(2 -3.92388e-14 0)
(2 -7.92524e-15 0)
(1.83004 0.229239 0)
(2 -2.73954e-14 0)
(1.83181 0.229347 0)
(2 -1.19585e-13 0)
(1.82859 0.228402 0)
(2.11066 -0.26239 0)
(1.83406 0.228216 0)
(2.11003 -0.268262 0)
(2 -1.30243e-13 0)
(1.82986 0.229143 0)
(2.1365 -0.271076 0)
(2.10883 -0.264619 0)
(2 7.4856e-14 0)
(1.8306 0.228653 0)
(2 -4.62471e-14 0)
(2 -2.27424e-14 0)
(2 -2.02121e-14 0)
(1.8429 0.214312 0)
(1.83103 0.229874 0)
(1.82851 0.228554 0)
(2 -5.93553e-14 0)
(2 2.08617e-14 0)
(2.11956 -0.264484 0)
(2 6.09212e-16 0)
(1.91641 0.123965 0)
(2 2.05048e-14 0)
(1.82822 0.227678 0)
(2 -1.26837e-13 0)
(2 1.51887e-13 0)
(2 -8.72097e-14 0)
(2 -1.76732e-13 0)
(2.1048 -0.263738 0)
(2 7.00374e-15 0)
(2.11631 -0.26564 0)
(2 2.04124e-14 0)
(1.83016 0.229076 0)
(2 -7.66016e-14 0)
(1.83062 0.2286 0)
(2 1.74526e-13 0)
(2 1.32608e-09 0)
(2 1.58069e-14 0)
(2 -1.91335e-13 0)
(2.10621 -0.264038 0)
(2 -7.59141e-14 0)
(2 -4.07733e-13 0)
(2.12119 -0.259988 0)
(2 4.05684e-14 0)
(2.09346 -0.262924 0)
(2 -4.83169e-13 0)
(2 -1.13207e-13 0)
(2 -5.75735e-14 0)
(2.1181 -0.263244 0)
(2 -3.92221e-13 0)
(1.83245 0.229497 0)
(1.89845 0.152092 0)
(2 1.20259e-09 0)
(1.83251 0.229267 0)
(1.82373 0.238293 0)
(2.09619 -0.264869 0)
(1.82926 0.228714 0)
(2.09897 -0.263428 0)
(2 -4.9038e-13 0)
(1.83011 0.228599 0)
(2.10773 -0.259761 0)
(1.83017 0.228847 0)
(1.82919 0.228614 0)
(2 2.67229e-14 0)
(2 7.90928e-07 0)
(2 1.4773e-14 0)
(2 3.81588e-14 0)
(2.02457 -0.0445013 0)
(2.11828 -0.26338 0)
(1.82915 0.228098 0)
(2 6.36669e-14 0)
(2 -5.16943e-11 0)
(2.12029 -0.264903 0)
(2 -1.02459e-14 0)
(1.83205 0.229709 0)
(2.12117 -0.263592 0)
(2 2.5548e-08 0)
(2 1.58569e-14 0)
(2 -8.61992e-14 0)
(2 1.45816e-13 0)
(1.91637 0.126392 0)
(1.82986 0.228582 0)
(2.11039 -0.268785 0)
(2 1.52649e-10 0)
(2 -1.21162e-09 0)
(1.95891 0.0588798 0)
(2 8.74886e-09 0)
(2.10891 -0.262069 0)
(2 -1.38134e-13 0)
(1.83061 0.229076 0)
(1.82907 0.228219 0)
(2 4.55355e-09 0)
(2 1.92888e-15 0)
(2.10256 -0.279469 0)
(2.1023 -0.272083 0)
(2.11799 -0.264375 0)
(2 9.2043e-14 0)
(2 -1.40434e-07 0)
(2 -1.47691e-15 0)
(2 -8.60009e-14 0)
(2 9.42376e-08 0)
(2.02519 -0.0519952 0)
(2 -1.01151e-07 0)
(1.85434 0.201277 0)
(1.98557 0.0242993 0)
(1.82988 0.228654 0)
(2 -2.0609e-13 0)
(1.83033 0.228661 0)
(1.8302 0.229132 0)
(1.83219 0.229484 0)
(1.8298 0.228775 0)
(2 3.74623e-14 0)
(2.11685 -0.263739 0)
(2 1.26342e-14 0)
(2.11776 -0.266886 0)
(2 -1.8638e-15 0)
(2 1.79362e-13 0)
(2 6.3654e-15 0)
(2 6.38916e-14 0)
(1.8293 0.22826 0)
(2 3.33683e-09 0)
(2 9.27495e-15 0)
(2 -9.25495e-14 0)
(2 -7.70641e-15 0)
(1.82922 0.228386 0)
(2 -4.43615e-14 0)
(1.99262 0.0156379 0)
(2 -8.96927e-15 0)
(2 -2.03695e-13 0)
(2 -6.16638e-11 0)
(2 6.94951e-15 0)
(2.09788 -0.261805 0)
(2 -4.55862e-15 0)
(1.99514 0.00977834 0)
(2 -2.68969e-15 0)
(2.09909 -0.263836 0)
(2 4.60326e-14 0)
(2 3.20182e-14 0)
(2 -1.90446e-15 0)
(1.82865 0.228635 0)
(2 2.95188e-14 0)
(1.83089 0.228852 0)
(2.13481 -0.265894 0)
(2.10936 -0.265969 0)
(1.83346 0.229687 0)
(1.8324 0.229442 0)
(2 2.69853e-14 0)
(1.96848 0.0473443 0)
(1.90463 0.142007 0)
(2 2.16102e-13 0)
(1.82957 0.228568 0)
(2.10103 -0.262597 0)
(1.84566 0.21391 0)
(2 -1.63251e-14 0)
(2 1.29155e-13 0)
(2 -7.6914e-15 0)
(2 1.46562e-13 0)
(1.83183 0.229561 0)
(1.86709 0.189624 0)
(2 1.27763e-13 0)
(1.82934 0.228938 0)
(2.08596 -0.252136 0)
(1.83004 0.228677 0)
(2 2.92054e-13 0)
(2.11398 -0.263524 0)
(2 -3.71392e-13 0)
(2.10822 -0.26312 0)
(2.11083 -0.270159 0)
(2.00008 -0.000129166 0)
(2 -9.1693e-14 0)
(2 -3.93289e-13 0)
(1.83027 0.228381 0)
(2 3.6316e-14 0)
(2 -1.98366e-13 0)
(1.83155 0.228672 0)
(2 -1.73458e-13 0)
(1.83131 0.228882 0)
(1.82935 0.228469 0)
(2.1056 -0.262263 0)
(2 -1.11215e-13 0)
(2 -2.71798e-13 0)
(2.11276 -0.263402 0)
(1.83136 0.228774 0)
(2 -1.30173e-13 0)
(2 -1.20904e-13 0)
(2 -1.42268e-13 0)
(1.83134 0.228714 0)
(2 7.51382e-14 0)
(2.13638 -0.265577 0)
(2 -5.82823e-11 0)
(2 1.04164e-15 0)
(1.83131 0.229109 0)
(1.83128 0.229248 0)
(1.8312 0.228952 0)
(2 -4.12541e-14 0)
(1.99998 2.59924e-05 0)
(2 3.37473e-14 0)
(2 6.14339e-14 0)
(2 -2.35353e-13 0)
(1.82974 0.228054 0)
(2 1.88599e-13 0)
(2.07201 -0.254778 0)
(1.82665 0.236645 0)
(1.83172 0.228794 0)
(1.82783 0.227217 0)
(2 1.96494e-07 0)
(2 2.78004e-14 0)
(2 5.65917e-14 0)
(2.11613 -0.271433 0)
(1.83185 0.229278 0)
(1.91766 0.115331 0)
(2 -4.3555e-14 0)
(1.82879 0.229399 0)
(2.09688 -0.262335 0)
(2.11322 -0.267 0)
(1.82827 0.229441 0)
(1.83047 0.231011 0)
(2 2.42131e-14 0)
(1.83101 0.229591 0)
(2.10716 -0.283252 0)
(1.84889 0.206817 0)
(2 3.40008e-14 0)
(2 -1.98565e-13 0)
(2 -2.17487e-13 0)
(2 -1.90326e-13 0)
(1.83132 0.228773 0)
(2 -1.53502e-13 0)
(1.89645 0.151702 0)
(1.98241 0.0316972 0)
(2 -1.38048e-13 0)
(2 2.05859e-14 0)
(1.8315 0.228951 0)
(2.11683 -0.263644 0)
(2.06425 -0.169026 0)
(2 1.89795e-14 0)
(1.83079 0.230158 0)
(2.14575 -0.260413 0)
(1.83123 0.227653 0)
(2 -3.266e-15 0)
(2 4.15164e-14 0)
(2 -1.43454e-15 0)
(2 -1.91792e-14 0)
(2 6.87567e-15 0)
(2 -2.64297e-14 0)
(2 7.24261e-14 0)
(2.11223 -0.262319 0)
(2.06792 -0.175686 0)
(2.11521 -0.267176 0)
(1.83148 0.228653 0)
(2 -9.10005e-14 0)
(2 4.70791e-14 0)
(2 -8.5768e-08 0)
(2 1.3436e-13 0)
(1.84636 0.207714 0)
(2 -1.6873e-07 0)
(2.11367 -0.265064 0)
(2 -1.72861e-13 0)
(2.11564 -0.282183 0)
(2.11294 -0.264869 0)
(1.83225 0.228706 0)
(2.09786 -0.260731 0)
(1.82945 0.228745 0)
(2 -3.3256e-14 0)
(2 -2.28137e-13 0)
(2 -8.58798e-14 0)
(2.00089 -0.00156302 0)
(2.11422 -0.263454 0)
(2.13447 -0.269483 0)
(2 -2.79191e-07 0)
(2 -1.50271e-07 0)
(2.11748 -0.281515 0)
(2 2.39787e-09 0)
(1.82962 0.228586 0)
(2.11212 -0.268727 0)
(2 -5.83221e-14 0)
(2 -3.61639e-11 0)
(1.83009 0.228617 0)
(2.14442 -0.268743 0)
(2 -1.23496e-13 0)
(1.83244 0.229464 0)
(2.11386 -0.266416 0)
(1.83151 0.228898 0)
(2 8.73901e-14 0)
(2.11203 -0.286468 0)
(2.00069 -0.00155454 0)
(2 -8.20659e-14 0)
(2 2.95824e-06 0)
(2 1.3298e-14 0)
(2.1185 -0.266705 0)
(2 -1.00874e-13 0)
(2 -1.53636e-07 0)
(2 -2.19239e-07 0)
(1.99999 1.55315e-05 0)
(1.98497 0.0101653 0)
(1.89468 0.153684 0)
(2 -2.55377e-11 0)
(2.08903 -0.257733 0)
(2 -1.62128e-11 0)
(2 1.56845e-06 0)
(2 -1.69841e-13 0)
(2 1.5148e-13 0)
(2 -2.00714e-14 0)
(2 -2.34533e-14 0)
(2 -7.73541e-13 0)
(1.82994 0.228677 0)
(2 1.80371e-13 0)
(1.83098 0.228344 0)
(2 1.06299e-13 0)
(2 1.85728e-13 0)
(2 1.76808e-15 0)
(2.12331 -0.259131 0)
(2 7.7669e-14 0)
(1.829 0.228319 0)
(2.10336 -0.26051 0)
(2 -1.82527e-14 0)
(1.8801 0.181878 0)
(2 -8.49603e-16 0)
(2 -1.1174e-13 0)
(1.82878 0.229326 0)
(2 5.25006e-14 0)
(2 -8.53474e-09 0)
(2 1.53735e-14 0)
(1.82684 0.227504 0)
(2 4.27914e-10 0)
(2 -8.01255e-14 0)
(1.83611 0.222297 0)
(1.82921 0.22935 0)
(2 1.73297e-14 0)
(1.9638 0.0574125 0)
(2 4.07976e-15 0)
(2 -1.17498e-14 0)
(2.11764 -0.265968 0)
(2 3.04488e-14 0)
(2 3.2594e-14 0)
(2 7.89371e-14 0)
(2.11841 -0.265569 0)
(2 1.31783e-14 0)
(2 -4.18868e-14 0)
(2 3.14162e-14 0)
(2 -1.03489e-13 0)
(2.09523 -0.264778 0)
(2 -1.74045e-13 0)
(2 -2.26886e-13 0)
(2 -1.69945e-13 0)
(2 -1.01706e-13 0)
(2 1.19365e-13 0)
(2.11566 -0.270936 0)
(1.99998 4.12723e-05 0)
(1.83176 0.229615 0)
(2 3.50356e-14 0)
(2 -5.70856e-06 0)
(1.83259 0.229767 0)
(1.83334 0.2297 0)
(2 1.41358e-13 0)
(2 6.23097e-14 0)
(2.10616 -0.274062 0)
(2.06528 -0.120997 0)
(1.83011 0.228887 0)
(2 -1.2875e-13 0)
(2 2.50848e-14 0)
(2 3.94659e-14 0)
(1.83163 0.2288 0)
(2.11829 -0.263057 0)
(2 1.41909e-13 0)
(1.83139 0.229042 0)
(2 -8.65011e-14 0)
(2 -1.04188e-13 0)
(2.10415 -0.204084 0)
(2.10899 -0.202931 0)
(2 -1.96278e-13 0)
(2.10471 -0.262478 0)
(2.11927 -0.263249 0)
(2 4.3074e-15 0)
(2 2.1863e-14 0)
(2 -5.43017e-14 0)
(2 3.471e-14 0)
(2 -1.04526e-10 0)
(2 4.36592e-14 0)
(2 1.28343e-13 0)
(1.8292 0.228687 0)
(1.95731 0.0624776 0)
(1.84164 0.217896 0)
(2.11412 -0.266127 0)
(2.02864 -0.062412 0)
(1.83018 0.228655 0)
(2 -9.73173e-13 0)
(1.8317 0.228696 0)
(1.82992 0.228831 0)
(2.09463 -0.263465 0)
(2.07845 -0.153272 0)
(2 4.3416e-13 0)
(2.13961 -0.260337 0)
(2 -2.1857e-14 0)
(1.81989 0.235619 0)
(2 -1.87624e-13 0)
(2 -7.30766e-14 0)
(2 5.71183e-14 0)
(2 -2.99175e-14 0)
(1.83131 0.228758 0)
(2 1.69466e-13 0)
(2 -1.89766e-14 0)
(2 5.22655e-15 0)
(2 1.56533e-09 0)
(2 -7.6526e-14 0)
(2 8.00224e-15 0)
(2 1.13199e-14 0)
(1.93305 0.0959201 0)
(1.82818 0.228139 0)
(2 -7.3303e-15 0)
(1.8314 0.228716 0)
(2 -9.57229e-14 0)
(2 4.35723e-14 0)
(2.10725 -0.259429 0)
(2 -9.96387e-14 0)
(2 1.04688e-13 0)
(2 -3.1204e-13 0)
(2 -2.1227e-13 0)
(1.83142 0.228835 0)
(1.87048 0.1825 0)
(2 -1.23876e-13 0)
(2 -2.01373e-13 0)
(2.10737 -0.263163 0)
(1.83214 0.229293 0)
(1.83158 0.229316 0)
(2 -3.38165e-15 0)
(1.83147 0.229279 0)
(1.83182 0.229001 0)
(1.83128 0.229035 0)
(2 -1.6593e-13 0)
(2.0625 -0.10886 0)
(2 1.60689e-13 0)
(1.83186 0.228823 0)
(2.00396 -0.0143157 0)
(1.8313 0.229062 0)
(2 2.35843e-14 0)
(2.11502 -0.263583 0)
(2.00041 -0.00072416 0)
(1.8294 0.228838 0)
(2 -7.15463e-14 0)
(2 7.57945e-14 0)
(2 -4.38085e-11 0)
(2 -2.16762e-11 0)
(2.11394 -0.264311 0)
(1.83206 0.228897 0)
(1.84811 0.209953 0)
(2 -6.39127e-14 0)
(1.82867 0.22637 0)
(1.83171 0.228785 0)
(1.82981 0.228718 0)
(2 4.06598e-14 0)
(1.91949 0.125619 0)
(1.82913 0.227451 0)
(2 -1.01904e-13 0)
(2 1.83107e-13 0)
(1.88414 0.166263 0)
(1.97761 0.0431431 0)
(1.83138 0.22911 0)
(2.02601 -0.047876 0)
(1.8314 0.229198 0)
(2 -1.92174e-14 0)
(1.83127 0.229231 0)
(1.83157 0.228893 0)
(1.83132 0.229273 0)
(1.83225 0.229341 0)
(2 1.17985e-13 0)
(1.8463 0.2137 0)
(2.00927 -0.0687575 0)
(2.02537 -0.0862192 0)
(2 8.2365e-14 0)
(2 -3.85314e-07 0)
(2 1.54515e-13 0)
(2 -2.93137e-13 0)
(1.82997 0.232448 0)
(2 4.64921e-14 0)
(2 1.30423e-13 0)
(2 -5.27752e-14 0)
(2 4.8709e-14 0)
(2 1.83574e-14 0)
(1.82917 0.228809 0)
(2 -1.34541e-14 0)
(2 -2.24648e-14 0)
(2.00164 -0.00235494 0)
(1.83173 0.2293 0)
(1.85727 0.19845 0)
(2 -1.41974e-14 0)
(1.85221 0.209001 0)
(1.99999 2.24574e-05 0)
(2 -2.42886e-13 0)
(2 -1.3864e-14 0)
(1.8319 0.229285 0)
(2 -2.11045e-13 0)
(2.00174 -0.00276346 0)
(1.99843 0.00380746 0)
(2 -3.63424e-14 0)
(1.83162 0.229023 0)
(2 -5.44419e-14 0)
(1.83208 0.228909 0)
(2 -7.8783e-14 0)
(2 6.1148e-14 0)
(1.87429 0.179255 0)
(2 5.24716e-14 0)
(1.8321 0.228425 0)
(1.99999 1.27512e-05 0)
(2 9.94441e-14 0)
(1.83252 0.228024 0)
(2 1.53989e-13 0)
(1.83165 0.229015 0)
(2 -1.0694e-13 0)
(2 2.83645e-06 0)
(2 -6.18056e-14 0)
(1.83138 0.228683 0)
(2 1.40724e-14 0)
(1.83036 0.230018 0)
(2 4.79876e-06 0)
(1.83131 0.228709 0)
(1.83067 0.229041 0)
(1.83139 0.229151 0)
(1.82909 0.228542 0)
(2 -1.24953e-13 0)
(1.82996 0.22886 0)
(1.82763 0.231471 0)
(2 -1.04158e-13 0)
(2.10508 -0.263645 0)
(1.842 0.216747 0)
(1.88114 0.172791 0)
(2 -7.32532e-14 0)
(1.83137 0.228715 0)
(2 -9.43767e-14 0)
(2.11822 -0.265305 0)
(2.11219 -0.267877 0)
(2 -1.33479e-13 0)
(2 1.11692e-14 0)
(2 -5.65255e-14 0)
(2 -8.76474e-14 0)
(2 1.34842e-09 0)
(2.12297 -0.262209 0)
(2 6.71194e-14 0)
(1.83143 0.228701 0)
(1.95709 0.0627728 0)
(1.8321 0.229468 0)
(2 -2.03433e-13 0)
(2 8.51216e-11 0)
(2 -6.72276e-14 0)
(2 -7.90021e-14 0)
(2 -5.15213e-08 0)
(1.83147 0.228878 0)
(2 -3.57797e-13 0)
(1.83139 0.231276 0)
(1.89465 0.148852 0)
(2.08078 -0.149329 0)
(2 1.31228e-09 0)
(2 6.53752e-06 0)
(1.95027 0.0743368 0)
(1.9628 0.0609654 0)
(2 -5.79206e-14 0)
(2 -1.32203e-13 0)
(1.93674 0.0910011 0)
(2 5.05253e-14 0)
(2.10865 -0.26156 0)
(1.83214 0.228572 0)
(1.83214 0.228508 0)
(2 -6.27663e-11 0)
(2 -7.60266e-14 0)
(2 6.43499e-14 0)
(1.83001 0.22882 0)
(2 1.26173e-13 0)
(1.99999 1.58447e-05 0)
(1.82621 0.227649 0)
(1.83231 0.229029 0)
(2.02859 -0.0335023 0)
(2 6.40588e-14 0)
(2 1.87532e-10 0)
(2.1136 -0.266466 0)
(1.84613 0.212179 0)
(2 1.59102e-14 0)
(2 2.28537e-13 0)
(2 -2.83141e-14 0)
(2 -2.82272e-11 0)
(2 -3.39653e-14 0)
(1.83169 0.229199 0)
(1.82972 0.22855 0)
(2 5.83947e-14 0)
(1.83239 0.228175 0)
(1.82982 0.228827 0)
(1.83141 0.229072 0)
(2 -1.77522e-13 0)
(2 -7.06263e-14 0)
(2 -6.0521e-11 0)
(2 -9.99593e-14 0)
(2.11213 -0.269625 0)
(1.83035 0.228888 0)
(2 -5.06869e-11 0)
(2 3.6684e-14 0)
(1.84738 0.211256 0)
(1.83204 0.228491 0)
(2 -3.94426e-14 0)
(1.84167 0.218076 0)
(1.82974 0.227782 0)
(2 1.1659e-13 0)
(2 -2.10704e-07 0)
(2 1.08157e-10 0)
(2 -2.1176e-14 0)
(2 -1.83364e-13 0)
(1.83166 0.228867 0)
(2 -7.68784e-14 0)
(2 -3.57837e-14 0)
(2 -1.34399e-13 0)
(2 -7.21302e-14 0)
(1.82953 0.23185 0)
(2 -1.43727e-13 0)
(1.83754 0.226152 0)
(2.13097 -0.259977 0)
(2 -1.6722e-13 0)
(2.10482 -0.267522 0)
(2 2.29874e-14 0)
(2 -1.67805e-07 0)
(2 6.46027e-14 0)
(2.0012 -0.00180293 0)
(2.10392 -0.260743 0)
(2.00029 -0.000610366 0)
(2 -3.4331e-14 0)
(2 -4.29039e-14 0)
(2 -1.14745e-07 0)
(1.97279 0.0371743 0)
(2 -1.75181e-13 0)
(2 3.68297e-15 0)
(2.05516 -0.0812532 0)
(2 -2.0479e-07 0)
(2 -1.92965e-13 0)
(2 -1.01858e-13 0)
(2 -2.0478e-07 0)
(2 4.04356e-07 0)
(2 -1.52602e-07 0)
(2 -4.8e-14 0)
(2 -1.63508e-06 0)
(2.01013 -0.0386386 0)
(2 -4.7925e-07 0)
(2 -3.95879e-08 0)
(2.00095 -0.00123241 0)
(2 -1.20164e-13 0)
(2.11499 -0.264072 0)
(2 -2.87922e-11 0)
(2 -4.62602e-12 0)
(2 -5.93931e-11 0)
(2 1.37417e-13 0)
(1.87302 0.181086 0)
(2 -4.25269e-14 0)
(2 6.55645e-14 0)
(2 -3.04757e-14 0)
(2 -1.7592e-07 0)
(2.11734 -0.262228 0)
(2 1.85502e-14 0)
(2 1.24559e-09 0)
(1.84124 0.217704 0)
(1.83039 0.228851 0)
(2 -3.18896e-07 0)
(2 6.69489e-14 0)
(2 -1.1711e-07 0)
(2.03438 -0.0797986 0)
(2 -6.48207e-14 0)
(2 4.25132e-10 0)
(2 -5.61007e-14 0)
(2 -9.0737e-15 0)
(2 9.0906e-15 0)
(2 3.45182e-14 0)
(2.02493 -0.0291432 0)
(1.99316 0.00148231 0)
(1.82893 0.227988 0)
(2 -1.46111e-13 0)
(2 6.20803e-14 0)
(2 -4.72579e-14 0)
(1.83227 0.22903 0)
(2.03463 -0.0654387 0)
(2 -4.75919e-09 0)
(2 -2.13741e-13 0)
(2 1.1668e-13 0)
(1.82775 0.228149 0)
(1.83282 0.228635 0)
(2 -2.9974e-08 0)
(2 5.40186e-06 0)
(2 3.41113e-09 0)
(2 -1.84548e-13 0)
(2 1.35459e-09 0)
(2 -3.53286e-14 0)
(2 -2.12438e-12 0)
(2 -2.62933e-14 0)
(2 -3.17723e-13 0)
(2.12116 -0.257012 0)
(2 1.34252e-13 0)
(2 -1.58323e-11 0)
(1.82964 0.228816 0)
(2.13983 -0.264445 0)
(2 -3.09215e-13 0)
(1.8299 0.228771 0)
(2 7.12308e-11 0)
(2.0972 -0.26115 0)
(2 -8.37294e-15 0)
(2 3.26019e-13 0)
(2.12215 -0.261472 0)
(2 -1.47253e-13 0)
(2 -1.16782e-11 0)
(2 -5.07585e-12 0)
(2 1.50776e-13 0)
(2 -2.99496e-12 0)
(2 -2.17059e-13 0)
(2 -2.40089e-14 0)
(1.83454 0.224926 0)
(1.83177 0.228477 0)
(2 3.50301e-13 0)
(2 2.54338e-13 0)
(2 1.47062e-13 0)
(2 2.66832e-13 0)
(1.8468 0.212445 0)
(2 1.94905e-13 0)
(1.94392 0.0787712 0)
(2.10357 -0.262861 0)
(2 -3.05198e-08 0)
(2 2.87004e-13 0)
(2 -9.77304e-14 0)
(2 5.14858e-14 0)
(2 4.23775e-14 0)
(2 1.19699e-13 0)
(2 8.20728e-15 0)
(1.99382 0.0196767 0)
(2 -6.75992e-14 0)
(2 1.36394e-15 0)
(1.90317 0.132933 0)
(2 1.99859e-14 0)
(2 -8.39646e-14 0)
(2 1.31389e-14 0)
(1.86154 0.193863 0)
(2 -2.06561e-13 0)
(2 7.3766e-14 0)
(2 3.97049e-14 0)
(2 -3.37032e-13 0)
(2.13865 -0.258191 0)
(2 4.97441e-12 0)
(2 1.83562e-13 0)
(2.12674 -0.268948 0)
(2.13283 -0.259018 0)
(2 -1.53919e-13 0)
(2 5.23559e-14 0)
(1.83176 0.22882 0)
(2 5.76993e-14 0)
(1.98667 -0.00192724 0)
(2 -1.70808e-14 0)
(2 2.3816e-14 0)
(2 2.29158e-14 0)
(1.88289 0.168859 0)
(2.12286 -0.273833 0)
(2 -6.91961e-14 0)
(2.12266 -0.273945 0)
(2 -1.13392e-13 0)
(2.08066 -0.149521 0)
(2 1.93097e-14 0)
(2 9.51656e-14 0)
(2 -2.20437e-14 0)
(1.83107 0.2286 0)
(2 -3.99075e-08 0)
(2 -3.81988e-13 0)
(1.83156 0.228922 0)
(2 -2.65423e-13 0)
(2 -3.24587e-11 0)
(2 1.66343e-09 0)
(1.83164 0.229053 0)
(2 2.70365e-10 0)
(2 -4.64767e-14 0)
(1.83185 0.229127 0)
(2 -1.40925e-13 0)
(2 -2.75247e-14 0)
(2.09334 -0.265961 0)
(2 -1.73299e-11 0)
(1.94181 0.0750694 0)
(2 7.18807e-16 0)
(2 -3.26583e-14 0)
(1.82953 0.22852 0)
(1.83061 0.228951 0)
(1.89079 0.160817 0)
(1.84955 0.207374 0)
(2 7.20704e-14 0)
(2.11143 -0.262587 0)
(2 -1.72915e-13 0)
(2 7.12905e-15 0)
(1.83898 0.219981 0)
(2 1.74194e-14 0)
(2.12428 -0.26651 0)
(2 5.64332e-14 0)
(2 -1.12555e-13 0)
(2 5.32488e-15 0)
(1.83114 0.228754 0)
(2 -1.08883e-13 0)
(2 -1.71455e-13 0)
(2 -4.57778e-14 0)
(2 -1.13721e-13 0)
(1.89899 0.14547 0)
(2 6.26118e-15 0)
(1.83525 0.222459 0)
(1.83001 0.230376 0)
(2.11892 -0.263926 0)
(2 5.39636e-15 0)
(2 -3.77061e-14 0)
(2.10549 -0.267988 0)
(2.1066 -0.266187 0)
(2 2.87408e-14 0)
(2 -4.91878e-14 0)
(2 -6.29495e-12 0)
(1.88059 0.168266 0)
(1.87073 0.183082 0)
(2 5.95018e-14 0)
(2 7.84561e-14 0)
(2 -1.41578e-14 0)
(2 -7.24897e-14 0)
(2 -5.85597e-14 0)
(2 4.40547e-14 0)
(2 6.69851e-15 0)
(1.92523 0.108092 0)
(1.82889 0.228896 0)
(2.00333 0.0152277 0)
(2 -1.09822e-14 0)
(1.83753 0.227131 0)
(2.11339 -0.265224 0)
(2 5.76858e-14 0)
(2 -2.45115e-14 0)
(2 -5.8195e-14 0)
(1.90953 0.141913 0)
(2 -9.83979e-14 0)
(1.96212 0.0585347 0)
(2 -5.73087e-14 0)
(1.84616 0.212397 0)
(1.83232 0.22827 0)
(2 -5.46292e-14 0)
(2.11705 -0.268903 0)
(2 -6.779e-14 0)
(1.83066 0.228713 0)
(2 5.91641e-14 0)
(2 -5.92443e-14 0)
(1.83105 0.228787 0)
(1.84169 0.218304 0)
(2 9.39491e-14 0)
(1.82654 0.228884 0)
(2 -6.38283e-14 0)
(2.12096 -0.256526 0)
(2 -1.54539e-14 0)
(2 -1.10124e-13 0)
(2 -9.47159e-15 0)
(1.82935 0.233769 0)
(1.83501 0.22489 0)
(1.85084 0.206257 0)
(2 -1.04594e-14 0)
(1.82956 0.229165 0)
(1.83152 0.228865 0)
(2 6.9334e-14 0)
(1.83089 0.229094 0)
(2 -8.24372e-09 0)
(1.8328 0.228332 0)
(2 2.18234e-14 0)
(2.14141 -0.256261 0)
(1.99175 -0.0142094 0)
(2.12532 -0.264063 0)
(2 -3.39521e-11 0)
(2 -2.4109e-11 0)
(2 -3.5631e-11 0)
(2 -3.61087e-13 0)
(2 -1.5103e-11 0)
(1.8315 0.229002 0)
(2 3.9173e-14 0)
(1.83153 0.228953 0)
(2 -3.20536e-11 0)
(2 -9.9975e-11 0)
(2 4.13781e-14 0)
(1.84001 0.220128 0)
(2 7.7778e-15 0)
(2.09688 -0.262824 0)
(1.83132 0.22896 0)
(2 -2.38136e-14 0)
(2.12321 -0.26817 0)
(2.11397 -0.252763 0)
(2.11807 -0.273799 0)
(2 -9.32894e-14 0)
(1.92259 0.121821 0)
(1.97895 0.0116819 0)
(1.83173 0.22973 0)
(1.83144 0.228801 0)
(2 -1.88723e-14 0)
(2 -3.90872e-07 0)
(2 -7.60239e-08 0)
(2 9.01534e-14 0)
(1.83135 0.22899 0)
(2 7.91623e-14 0)
(2 4.06595e-14 0)
(1.83136 0.228975 0)
(1.8318 0.228891 0)
(2 -8.38329e-14 0)
(1.94255 0.0936972 0)
(1.99962 0.000704093 0)
(2 -1.408e-13 0)
(2.00116 -0.00196809 0)
(1.83081 0.228382 0)
(2.037 -0.107605 0)
(2 -1.16677e-07 0)
(2.04492 -0.121713 0)
(2.1083 -0.261681 0)
(2.107 -0.260798 0)
(2.02241 -0.0443283 0)
(1.82955 0.228332 0)
(1.83419 0.226739 0)
(1.96382 0.0481032 0)
(1.83137 0.229291 0)
(1.83167 0.228851 0)
(2 1.94063e-13 0)
(2 2.8948e-13 0)
(1.83046 0.228788 0)
(1.83002 0.228418 0)
(1.83161 0.228709 0)
(1.82943 0.228779 0)
(2 -4.43401e-14 0)
(1.83132 0.228934 0)
(2.11687 -0.263333 0)
(1.82997 0.229945 0)
(1.83037 0.229752 0)
(1.83155 0.228735 0)
(1.83237 0.228609 0)
(2.05399 -0.0879469 0)
(2.04673 -0.0691065 0)
(2.02014 -0.0403479 0)
(1.83185 0.22907 0)
(2.01048 -0.0360516 0)
(1.83105 0.228674 0)
(2 2.23524e-13 0)
(2 3.54692e-14 0)
(1.83135 0.229735 0)
(1.8312 0.228784 0)
(2 1.78045e-13 0)
(2.14248 -0.264769 0)
(1.83093 0.227964 0)
(1.83189 0.228895 0)
(2 -7.01508e-14 0)
(1.83143 0.229223 0)
(1.83165 0.228808 0)
(2 7.913e-14 0)
(1.83138 0.22917 0)
(2.1214 -0.267219 0)
(1.83042 0.229129 0)
(1.82898 0.2289 0)
(1.82948 0.228541 0)
(1.83211 0.227019 0)
(2 5.07173e-14 0)
(2 1.03984e-13 0)
(2 -1.0676e-07 0)
(1.83194 0.228891 0)
(1.88976 0.154976 0)
(2.08751 -0.257693 0)
(1.8319 0.22898 0)
(2.12428 -0.274005 0)
(1.83186 0.228878 0)
(2 -1.21584e-14 0)
(2 1.0213e-13 0)
(2 5.92877e-14 0)
(2 -7.26755e-14 0)
(1.83091 0.230258 0)
(1.83204 0.229053 0)
(2 2.87605e-14 0)
(2 1.98435e-13 0)
(1.83186 0.228878 0)
(2.12458 -0.268963 0)
(1.83122 0.229229 0)
(2.11315 -0.266388 0)
(2 -6.37619e-14 0)
(1.83291 0.227571 0)
(2 4.91723e-14 0)
(2.12145 -0.266067 0)
(1.8307 0.229865 0)
(2.10398 -0.189422 0)
(2 4.1546e-14 0)
(1.83141 0.228818 0)
(1.83054 0.230542 0)
(1.83228 0.229409 0)
(2 1.32454e-13 0)
(2 -4.49698e-15 0)
(1.92326 0.114955 0)
(1.8308 0.229985 0)
(2.1047 -0.260306 0)
(1.832 0.228575 0)
(2 -1.40181e-14 0)
(1.83108 0.229588 0)
(2.04572 -0.0856543 0)
(1.83286 0.227535 0)
(2.11435 -0.261782 0)
(2 -7.01105e-14 0)
(1.83126 0.230015 0)
(2.11376 -0.232214 0)
(1.83132 0.229927 0)
(2.1048 -0.262421 0)
(2 -5.16936e-14 0)
(1.83124 0.228827 0)
(2 -1.15668e-14 0)
(1.82917 0.228593 0)
(2 9.99525e-14 0)
(1.90118 0.144909 0)
(1.83771 0.221813 0)
(1.86809 0.185838 0)
(2.10555 -0.282538 0)
(2 -1.87835e-13 0)
(1.83091 0.22837 0)
(2 -5.27726e-14 0)
(1.83054 0.228518 0)
(2 -1.15034e-07 0)
(1.83162 0.229486 0)
(2 -2.38212e-07 0)
(2 -2.35687e-13 0)
(1.83097 0.228702 0)
(2.00155 -0.00666573 0)
(1.83019 0.229837 0)
(2.12564 -0.261649 0)
(1.85607 0.210064 0)
(2 -2.81356e-15 0)
(1.88305 0.172535 0)
(2 -3.90767e-15 0)
(1.83099 0.22911 0)
(1.83176 0.229353 0)
(1.83122 0.229066 0)
(2 -1.47648e-13 0)
(1.84787 0.209808 0)
(1.83093 0.228971 0)
(1.84321 0.214839 0)
(1.89932 0.156563 0)
(1.83644 0.230727 0)
(2 -1.03239e-13 0)
(1.89046 0.159019 0)
(2 -5.5309e-14 0)
(1.83075 0.229376 0)
(2 -1.23249e-13 0)
(1.96928 0.039239 0)
(2 9.45741e-14 0)
(1.84312 0.216102 0)
(2 1.16862e-13 0)
(1.8308 0.229456 0)
(1.83925 0.219829 0)
(1.83987 0.219987 0)
(2 1.63364e-14 0)
(1.8331 0.230552 0)
(2.11245 -0.263256 0)
(2 -3.89285e-14 0)
(2.12622 -0.261886 0)
(2 -2.37303e-13 0)
(2 6.1207e-16 0)
(2 8.50558e-15 0)
(1.83116 0.228792 0)
(2 2.76495e-14 0)
(1.83178 0.22945 0)
(2 -2.75795e-14 0)
(2 8.24736e-14 0)
(2 5.67923e-14 0)
(1.8312 0.229085 0)
(1.83235 0.221631 0)
(1.86958 0.180216 0)
(1.83064 0.230117 0)
(1.83131 0.229097 0)
(2.10605 -0.268759 0)
(1.83544 0.229837 0)
(1.83082 0.228926 0)
(2 7.49071e-14 0)
(1.85599 0.200297 0)
(1.83172 0.228966 0)
(1.83696 0.227595 0)
(2 -2.07804e-13 0)
(1.82976 0.228726 0)
(1.83083 0.228775 0)
(2 5.28839e-14 0)
(1.8283 0.23072 0)
(1.83101 0.228671 0)
(1.83055 0.228857 0)
(1.83052 0.229366 0)
(2 -1.04325e-13 0)
(2 1.4129e-13 0)
(2 9.81426e-14 0)
(1.83117 0.229296 0)
(2.09514 -0.274816 0)
(2 1.78602e-13 0)
(1.83127 0.229001 0)
(2 2.50045e-13 0)
(2 1.72625e-13 0)
(2.11047 -0.267625 0)
(2 -8.69186e-14 0)
(2 1.83068e-13 0)
(1.83172 0.228618 0)
(1.83151 0.229316 0)
(2 -7.60055e-14 0)
(1.83158 0.229066 0)
(1.83079 0.230681 0)
(1.8308 0.228793 0)
(2.01189 -0.0189363 0)
(1.83153 0.228852 0)
(2 5.07629e-14 0)
(1.83159 0.228834 0)
(1.83176 0.228582 0)
(1.87072 0.181414 0)
(2 3.01629e-14 0)
(2 7.67217e-14 0)
(2 -4.81525e-14 0)
(1.83154 0.22902 0)
(1.83111 0.22876 0)
(1.83215 0.228488 0)
(1.99796 -0.0425492 0)
(2 -4.39067e-14 0)
(1.82961 0.2325 0)
(1.83121 0.228671 0)
(1.83108 0.22847 0)
(2 1.66112e-14 0)
(1.83152 0.228603 0)
(1.83088 0.229463 0)
(1.83104 0.229243 0)
(1.82991 0.233132 0)
(2 -1.46496e-16 0)
(1.83098 0.229302 0)
(1.83276 0.226942 0)
(1.85543 0.203632 0)
(1.83102 0.230123 0)
(1.8307 0.232402 0)
(2 -1.32575e-14 0)
(1.8302 0.231412 0)
(1.83361 0.226685 0)
(1.83207 0.22848 0)
(1.83004 0.230812 0)
(1.83105 0.228842 0)
(2.12269 -0.265305 0)
(1.83059 0.228712 0)
(1.83125 0.230569 0)
(2 -5.67761e-14 0)
(1.83154 0.229184 0)
(1.83197 0.228699 0)
(1.83155 0.229157 0)
(1.8315 0.2286 0)
(2 -5.75051e-08 0)
(1.83108 0.228946 0)
(1.83123 0.228983 0)
(2 -1.64484e-07 0)
(1.83197 0.229003 0)
(1.85919 0.196438 0)
(2 2.87777e-13 0)
(2 1.55306e-14 0)
(2 1.84576e-09 0)
(1.83122 0.229759 0)
(1.83168 0.228783 0)
(2 -5.47998e-15 0)
(2 8.79702e-14 0)
(1.90711 0.134174 0)
(2 8.90098e-14 0)
(1.82935 0.228503 0)
(2 1.5551e-13 0)
(2 6.08907e-14 0)
(1.83164 0.228858 0)
(1.8322 0.230116 0)
(1.83163 0.228599 0)
(1.83177 0.228806 0)
(2 -2.02242e-14 0)
(2 -4.44534e-15 0)
(2 4.20092e-14 0)
(1.87994 0.169503 0)
(2 9.18739e-14 0)
(1.83177 0.22767 0)
(2 -9.80987e-15 0)
(2 -2.9695e-14 0)
(1.83184 0.228656 0)
(1.82902 0.228659 0)
(2 -1.86942e-14 0)
(1.83141 0.229047 0)
(2.14338 -0.268062 0)
(1.83138 0.22918 0)
(1.83205 0.229508 0)
(2.08765 -0.213789 0)
(2 1.71083e-14 0)
(2.11017 -0.28163 0)
(1.85043 0.205236 0)
(1.83278 0.228424 0)
(1.83198 0.227829 0)
(1.83218 0.227474 0)
(2.10615 -0.26692 0)
(1.83062 0.228697 0)
(1.83119 0.229693 0)
(2.10326 -0.273722 0)
(2.12427 -0.271351 0)
(2 -2.62918e-07 0)
(1.83157 0.22955 0)
(1.83131 0.229542 0)
(2 -7.92682e-14 0)
(2 5.51604e-14 0)
(1.8316 0.228704 0)
(2 1.37349e-13 0)
(1.83234 0.229594 0)
(2 2.65781e-06 0)
(1.85282 0.204923 0)
(2 -6.42703e-15 0)
(1.91848 0.119688 0)
(1.8318 0.228331 0)
(1.83061 0.230533 0)
(1.87489 0.172777 0)
(1.83875 0.214706 0)
(1.8313 0.228952 0)
(1.83048 0.229343 0)
(1.84382 0.213335 0)
(2 2.4266e-13 0)
(2.11037 -0.267676 0)
(1.83052 0.230847 0)
(1.83083 0.230246 0)
(1.82881 0.230827 0)
(2 6.76537e-06 0)
(2 2.57127e-10 0)
(2 1.47169e-09 0)
(1.83183 0.230991 0)
(2 -4.16802e-15 0)
(1.83133 0.229114 0)
(1.83148 0.228672 0)
(2.08842 -0.175043 0)
(2 8.35967e-14 0)
(1.83135 0.228698 0)
(2.00002 -4.08472e-05 0)
(2 2.70316e-14 0)
(1.99999 1.78382e-05 0)
(1.99998 2.83111e-05 0)
(1.83083 0.230205 0)
(1.83129 0.22872 0)
(2.00054 -0.000919931 0)
(2 8.4651e-14 0)
(2 9.43387e-14 0)
(1.83055 0.228565 0)
(1.83044 0.229632 0)
(1.83187 0.228654 0)
(1.83198 0.227974 0)
(1.83064 0.229902 0)
(2.09896 -0.251091 0)
(1.85156 0.208274 0)
(2 -4.36874e-14 0)
(1.83216 0.227654 0)
(1.83166 0.228687 0)
(1.83216 0.228537 0)
(1.83952 0.223353 0)
(2 2.90622e-14 0)
(1.83167 0.228934 0)
(1.8367 0.223751 0)
(1.8305 0.229193 0)
(2 1.25346e-13 0)
(1.83086 0.228358 0)
(1.83085 0.229721 0)
(2.04527 -0.0897574 0)
(1.83208 0.228511 0)
(1.83089 0.228466 0)
(2 -1.52632e-13 0)
(1.83078 0.228796 0)
(2.05418 -0.111602 0)
(1.83098 0.228436 0)
(2.04489 -0.0917661 0)
(1.83138 0.228734 0)
(2 -1.23242e-07 0)
(1.8311 0.228352 0)
(1.82524 0.232673 0)
(1.8317 0.229336 0)
(1.83137 0.229461 0)
(1.83178 0.228728 0)
(1.83304 0.229079 0)
(1.83077 0.22917 0)
(1.83045 0.227809 0)
(2 4.56403e-14 0)
(2.02837 -0.0521241 0)
(1.83096 0.228401 0)
(1.83187 0.229221 0)
(2.05419 -0.112064 0)
(1.83173 0.228742 0)
(2.01562 -0.00175193 0)
(1.89155 0.159694 0)
(1.83094 0.228464 0)
(1.83282 0.22957 0)
(1.83009 0.229044 0)
(2 7.61827e-14 0)
(1.83008 0.229826 0)
(1.8948 0.156322 0)
(1.83184 0.228046 0)
(2.03539 -0.0468527 0)
(1.83022 0.229535 0)
(1.82764 0.229866 0)
(2 1.34594e-14 0)
(2.04288 -0.0834693 0)
(2 -6.87184e-09 0)
(1.83654 0.224729 0)
(2 7.51104e-14 0)
(1.8842 0.165746 0)
(2 4.18066e-09 0)
(1.83261 0.226815 0)
(2.03946 -0.0805653 0)
(2 4.38894e-14 0)
(1.82895 0.232785 0)
(1.83684 0.225641 0)
(2 3.37942e-14 0)
(1.83059 0.230941 0)
(1.8317 0.229893 0)
(1.83036 0.229133 0)
(1.83048 0.222983 0)
(1.83244 0.224988 0)
(2 1.21548e-13 0)
(1.83029 0.22896 0)
(2 1.20918e-13 0)
(2 -4.81543e-14 0)
(2 8.10597e-14 0)
(2.03476 -0.0765039 0)
(1.83181 0.229174 0)
(1.83069 0.229606 0)
(1.82814 0.231836 0)
(1.83156 0.22909 0)
(1.83347 0.227973 0)
(1.82922 0.230855 0)
(1.82832 0.229731 0)
(1.83173 0.229641 0)
(2.03443 -0.0690461 0)
(1.98571 0.0221528 0)
(2 3.35483e-09 0)
(2 -7.39542e-14 0)
(1.82344 0.232354 0)
(1.83159 0.229271 0)
(1.83169 0.228899 0)
(1.83172 0.228804 0)
(1.99999 1.66331e-05 0)
(1.91987 0.120487 0)
(2 -1.71216e-07 0)
(1.82818 0.230816 0)
(1.84949 0.221903 0)
(2 -4.67146e-12 0)
(2 -6.37925e-11 0)
(2.09138 -0.185838 0)
(1.83197 0.228671 0)
(2 1.26044e-13 0)
(2 2.1357e-14 0)
(2.12256 -0.265527 0)
(1.83138 0.228852 0)
(2 1.43906e-13 0)
(1.82971 0.228946 0)
(1.83129 0.228799 0)
(1.83124 0.22892 0)
(1.8383 0.221439 0)
(1.83185 0.228271 0)
(2 -1.2942e-10 0)
(2.09659 -0.27542 0)
(1.95641 0.0681409 0)
(1.83079 0.228263 0)
(1.83215 0.22886 0)
(2 -5.75713e-14 0)
(1.83154 0.22932 0)
(1.83139 0.228833 0)
(1.91698 0.12345 0)
(1.99995 0.00454753 0)
(1.96379 0.0551892 0)
(2 1.05145e-13 0)
(1.829 0.228705 0)
(1.83165 0.228877 0)
(2 -1.16995e-07 0)
(2 -2.1286e-10 0)
(2.10926 -0.268502 0)
(2 -2.34139e-10 0)
(2 8.39194e-14 0)
(1.83168 0.229074 0)
(1.83131 0.229086 0)
(1.83054 0.229939 0)
(1.8319 0.229172 0)
(1.83143 0.228935 0)
(1.83027 0.22932 0)
(1.83097 0.229211 0)
(1.83158 0.227951 0)
(1.83152 0.228742 0)
(2 6.00665e-14 0)
(2.0014 -0.00277438 0)
(1.83139 0.22914 0)
(1.83055 0.228806 0)
(2.00125 -0.00174059 0)
(1.83112 0.229159 0)
(1.83182 0.22862 0)
(2.09539 -0.270879 0)
(2.11995 -0.263951 0)
(1.83214 0.228175 0)
(1.82876 0.22735 0)
(2 -1.16092e-13 0)
(2 2.81223e-13 0)
(1.99912 0.00222106 0)
(1.83151 0.228799 0)
(1.83031 0.228923 0)
(1.83138 0.22895 0)
(2 9.6517e-10 0)
(1.83123 0.228998 0)
(2 -1.35965e-13 0)
(2.04195 -0.103238 0)
(1.82804 0.231033 0)
(1.82766 0.233883 0)
(2 -1.2907e-13 0)
(1.92521 0.109261 0)
(1.8327 0.229452 0)
(2 4.37006e-14 0)
(1.82815 0.229139 0)
(2 -9.85547e-11 0)
(1.83105 0.229076 0)
(1.8898 0.15823 0)
(1.83118 0.230197 0)
(2 1.28717e-11 0)
(1.83182 0.227982 0)
(1.83266 0.230768 0)
(2.10535 -0.268441 0)
(1.83156 0.22863 0)
(2 -1.31148e-07 0)
(1.83086 0.228987 0)
(1.82895 0.228835 0)
(2 7.05091e-09 0)
(2.10094 -0.271658 0)
(1.82968 0.2297 0)
(1.8514 0.216166 0)
(2.00068 -0.00089458 0)
(1.84265 0.218037 0)
(1.83194 0.228692 0)
(2 -5.45038e-12 0)
(1.99782 -0.00120876 0)
(1.82915 0.232541 0)
(2.00205 -0.00226342 0)
(1.83147 0.22891 0)
(2 -3.63922e-12 0)
(2 -5.24176e-14 0)
(1.83133 0.229837 0)
(2 7.4263e-14 0)
(1.83034 0.22981 0)
(1.83107 0.22923 0)
(2.00126 -0.0022126 0)
(1.86889 0.181735 0)
(2 3.01316e-09 0)
(1.83146 0.229044 0)
(2 2.5518e-10 0)
(2 -8.54511e-13 0)
(2 1.07061e-11 0)
(2 5.93206e-12 0)
(1.83161 0.228893 0)
(2 6.89232e-09 0)
(2 4.05281e-14 0)
(1.83565 0.229135 0)
(2 -5.5876e-14 0)
(1.83087 0.228647 0)
(2 3.3673e-10 0)
(1.89079 0.158897 0)
(1.83048 0.229751 0)
(1.83093 0.229899 0)
(2 1.17648e-09 0)
(2 -2.45824e-13 0)
(1.99893 -0.00555472 0)
(2 2.39248e-12 0)
(1.83127 0.228911 0)