/*--------------------------------*- C++ -*----------------------------------*\
  =========                 |
  \\      /  F ield         | OpenFOAM: The Open Source CFD Toolbox
   \\    /   O peration     | Website:  https://openfoam.org
    \\  /    A nd           | Version:  12
     \\/     M anipulation  |
\*---------------------------------------------------------------------------*/
FoamFile
{
    format      ascii;
    class       volVectorField;
    location    "0.5";
    object      U;
}
// * * * * * * * * * * * * * * * * * * * * * * * * * * * * * * * * * * * * * //

dimensions      [0 1 -1 0 0 0 0];

internalField   nonuniform List<vector> 
22702
(
(2 -2.14358e-13 0)
(2 -1.10478e-13 0)
(2.07616 -0.0703295 0)
(2 -1.12571e-09 0)
(2.03378 0.0615333 0)
(2 5.47995e-14 0)
(1.83309 0.228849 0)
(2 7.3631e-14 0)
(2 -9.68506e-14 0)
(2.22828 -0.283726 0)
(1.83055 0.22912 0)
(1.8357 0.22922 0)
(2 8.77005e-14 0)
(2 2.80036e-10 0)
(2.07504 -0.0561315 0)
(2 3.79281e-13 0)
(2 5.17145e-13 0)
(2 -1.36767e-14 0)
(1.82997 0.228866 0)
(2 4.82471e-15 0)
(1.98422 0.0682713 0)
(2 -2.66248e-13 0)
(1.86399 0.229508 0)
(2.18069 -0.272643 0)
(2 -7.73059e-13 0)
(2.2019 -0.280981 0)
(2 8.53718e-14 0)
(1.86575 0.231276 0)
(2.20802 -0.281845 0)
(2.18177 -0.270513 0)
(2 2.22655e-14 0)
(1.83937 0.229112 0)
(2 1.34358e-14 0)
(2 -4.08697e-14 0)
(2 1.55343e-13 0)
(1.93965 0.204373 0)
(2 1.35903e-13 0)
(1.86424 0.22998 0)
(2 3.84963e-13 0)
(2 3.2425e-13 0)
(2.25487 -0.265827 0)
(2 -5.28441e-14 0)
(1.98097 0.154285 0)
(2 -1.49529e-13 0)
(1.86561 0.23117 0)
(2 2.50137e-13 0)
(2 3.40014e-13 0)
(2 -1.05238e-13 0)
(2 -8.85887e-14 0)
(2.17324 -0.272936 0)
(2 5.37439e-14 0)
(2.17874 -0.278804 0)
(2 -1.92637e-13 0)
(1.83062 0.229071 0)
(2 -5.33111e-14 0)
(1.84064 0.228892 0)
(2 3.23046e-13 0)
(2 1.61482e-09 0)
(2 1.74287e-13 0)
(2 -2.12344e-13 0)
(2.25264 -0.284905 0)
(2 2.59729e-14 0)
(2 -1.44045e-13 0)
(2.19426 -0.277921 0)
(2 1.98551e-14 0)
(2.18773 -0.268692 0)
(2 -2.91111e-13 0)
(2 5.32042e-14 0)
(2 9.14828e-14 0)
(2.25027 -0.272012 0)
(2 -1.63448e-13 0)
(1.86754 0.227216 0)
(1.96842 0.181016 0)
(2 1.62786e-09 0)
(1.86892 0.228158 0)
(1.86258 0.240639 0)
(2.18011 -0.26799 0)
(1.85144 0.230659 0)
(2.16516 -0.272287 0)
(2 4.61809e-14 0)
(1.8302 0.228951 0)
(2.16451 -0.26742 0)
(1.85438 0.230079 0)
(1.85556 0.230188 0)
(2 -4.81824e-14 0)
(2 -1.38443e-13 0)
(2 3.8381e-14 0)
(2 -9.34679e-14 0)
(2.06057 -0.0256751 0)
(2.24468 -0.272706 0)
(1.8642 0.232321 0)
(2 2.52715e-13 0)
(2 -1.06221e-13 0)
(2.14289 -0.287845 0)
(2 1.0437e-13 0)
(1.97866 0.112413 0)
(2.14943 -0.287193 0)
(2 2.73045e-08 0)
(2 3.64291e-14 0)
(2 1.6745e-13 0)
(2 1.5809e-13 0)
(1.98727 0.155563 0)
(1.82996 0.229219 0)
(2.19163 -0.26671 0)
(2 -5.43162e-10 0)
(2 -7.48484e-10 0)
(2.03082 0.0987367 0)
(2 9.37286e-09 0)
(2.16476 -0.2654 0)
(2 -1.03514e-14 0)
(1.85254 0.230835 0)
(1.82911 0.228895 0)
(2 5.24336e-14 0)
(2 5.89899e-14 0)
(2.23149 -0.271929 0)
(2.22634 -0.267733 0)
(2.23969 -0.275361 0)
(2 2.07818e-13 0)
(2 -5.81938e-14 0)
(2 6.00297e-14 0)
(2 8.48251e-14 0)
(2 1.02789e-07 0)
(2.07001 -0.0367984 0)
(2 -9.98612e-14 0)
(1.94796 0.206409 0)
(2.04479 0.0620743 0)
(1.86193 0.23062 0)
(2 -3.30798e-13 0)
(1.86281 0.230668 0)
(1.82955 0.228928 0)
(2 6.13208e-10 0)
(1.82995 0.228776 0)
(2 2.50581e-13 0)
(2.27323 -0.267314 0)
(2 1.51964e-14 0)
(2.1368 -0.280255 0)
(2 -3.47536e-15 0)
(2 2.77265e-13 0)
(2 5.84818e-14 0)
(2 -1.51331e-13 0)
(1.8292 0.228967 0)
(2 2.44805e-13 0)
(2 2.79896e-13 0)
(2 8.27795e-14 0)
(2 1.89718e-13 0)
(1.87118 0.230067 0)
(2 2.94537e-14 0)
(1.99445 0.0124763 0)
(2 9.13561e-14 0)
(2 5.25363e-13 0)
(2 1.23055e-13 0)
(2 -5.52167e-14 0)
(2.1724 -0.276644 0)
(2 2.20182e-13 0)
(1.99531 0.00923701 0)
(2 -5.06448e-14 0)
(2.16366 -0.272517 0)
(2 -1.36869e-13 0)
(2 1.01028e-13 0)
(2 5.764e-14 0)
(1.86387 0.232016 0)
(2 3.43516e-14 0)
(1.86468 0.227131 0)
(2.14126 -0.295544 0)
(2.26056 -0.276777 0)
(1.86857 0.229775 0)
(1.86689 0.228627 0)
(2 -4.19749e-15 0)
(2.02864 0.0766307 0)
(1.97206 0.17528 0)
(2 2.05744e-13 0)
(1.84483 0.229925 0)
(2.16601 -0.273549 0)
(1.94281 0.204934 0)
(2 -3.91219e-15 0)
(2 -7.30403e-14 0)
(2 -8.0584e-14 0)
(2 1.86701e-13 0)
(2 4.57941e-10 0)
(1.85903 0.192575 0)
(2 2.92278e-13 0)
(1.82983 0.229007 0)
(2.17931 -0.269373 0)
(1.84313 0.229617 0)
(2 4.84956e-13 0)
(2.17184 -0.271659 0)
(2 -4.89524e-13 0)
(2.17715 -0.2769 0)
(2.23057 -0.286408 0)
(2 2.03283e-13 0)
(2 -7.38858e-14 0)
(2 -4.57623e-13 0)
(1.82892 0.22905 0)
(2 -6.30755e-15 0)
(2 3.90802e-13 0)
(1.8753 0.224995 0)
(2 -7.44338e-14 0)
(1.85196 0.229449 0)
(1.82979 0.229025 0)
(2.13662 -0.278201 0)
(2 3.39304e-14 0)
(2 -8.99734e-14 0)
(2.16205 -0.268584 0)
(1.87152 0.22302 0)
(2 -1.2502e-13 0)
(2 -1.43011e-13 0)
(2 2.55897e-14 0)
(1.87171 0.222528 0)
(2 1.90245e-13 0)
(2.18982 -0.277488 0)
(2 -4.00907e-14 0)
(2 2.59389e-14 0)
(1.86229 0.223256 0)
(1.86454 0.221073 0)
(1.85234 0.230092 0)
(2 2.44869e-14 0)
(2 -1.33901e-15 0)
(2 -7.17389e-14 0)
(2 -1.11301e-13 0)
(2 -2.23036e-13 0)
(2.00002 4.83455e-05 0)
(2 3.0933e-13 0)
(2.17728 -0.269803 0)
(1.86347 0.238057 0)
(1.87374 0.224687 0)
(2 3.96827e-11 0)
(2 1.92596e-07 0)
(2 3.40588e-14 0)
(2 -2.99034e-15 0)
(2.1612 -0.283675 0)
(1.85196 0.221069 0)
(1.91908 0.127097 0)
(2 8.27289e-14 0)
(1.95113 0.201991 0)
(2.1865 -0.275008 0)
(2.18762 -0.276876 0)
(1.94723 0.200693 0)
(1.84983 0.221348 0)
(2 -2.53571e-15 0)
(1.84522 0.223271 0)
(2.26597 -0.282414 0)
(1.94811 0.207522 0)
(2 -2.1812e-13 0)
(2 -3.78855e-14 0)
(2 1.82314e-14 0)
(2 -3.84788e-13 0)
(1.8754 0.223847 0)
(2 7.77984e-14 0)
(1.9121 0.130582 0)
(1.98715 0.0241818 0)
(2 -4.19738e-13 0)
(2 2.9582e-13 0)
(1.88301 0.222709 0)
(2.14395 -0.291437 0)
(2.15576 -0.138232 0)
(2 -4.5943e-13 0)
(1.85278 0.220365 0)
(2.18649 -0.278423 0)
(1.84825 0.221196 0)
(2 -5.31774e-15 0)
(2 1.18904e-13 0)
(2 -2.58808e-13 0)
(2 -3.21491e-14 0)
(2 -1.9895e-13 0)
(2 -1.80345e-13 0)
(2 -2.8642e-13 0)
(2.16924 -0.272855 0)
(2.11031 -0.152221 0)
(2.18823 -0.275601 0)
(1.85644 0.222194 0)
(2 2.43018e-15 0)
(2 1.06748e-13 0)
(2 -6.52021e-08 0)
(2 -3.06017e-13 0)
(1.88691 0.219198 0)
(2 -6.0603e-08 0)
(2.16784 -0.273178 0)
(2 2.0701e-15 0)
(2.16226 -0.293656 0)
(2.16208 -0.26794 0)
(1.85922 0.219876 0)
(2.18774 -0.272037 0)
(1.99496 0.0420103 0)
(2 2.95921e-13 0)
(2 -2.33132e-13 0)
(2 -1.34639e-13 0)
(2.00075 -0.00134532 0)
(2.17648 -0.278138 0)
(2.22431 -0.302967 0)
(2 -1.031e-07 0)
(2 -9.03447e-08 0)
(2.1665 -0.293047 0)
(2 1.88529e-09 0)
(1.82916 0.228733 0)
(2.19221 -0.27354 0)
(2 6.3913e-14 0)
(2 -1.96819e-11 0)
(1.82991 0.228834 0)
(2.13419 -0.279454 0)
(2 -1.80984e-13 0)
(1.85945 0.210777 0)
(2.25313 -0.282451 0)
(1.88406 0.222787 0)
(2 -2.95054e-13 0)
(2.15475 -0.296788 0)
(2.00073 -0.00157844 0)
(2 -1.01013e-14 0)
(2 3.22992e-06 0)
(2 -2.69243e-14 0)
(2.17776 -0.276208 0)
(2 -8.45829e-14 0)
(2 -2.43577e-13 0)
(2 2.47404e-07 0)
(2 -3.17613e-06 0)
(2.03537 0.0346961 0)
(1.97143 0.181696 0)
(2 -2.13364e-11 0)
(2.25386 -0.23832 0)
(2 -1.34779e-11 0)
(2 -1.22605e-13 0)
(2 -2.61491e-13 0)
(2 4.1746e-14 0)
(2 -6.29034e-14 0)
(2 3.76069e-14 0)
(2 1.69745e-13 0)
(1.82978 0.228825 0)
(2 1.97431e-13 0)
(1.82892 0.229587 0)
(2 -1.93286e-14 0)
(2 3.64506e-14 0)
(2 -1.47801e-13 0)
(2.18168 -0.282857 0)
(2 3.24349e-14 0)
(1.87141 0.22965 0)
(2.19191 -0.280898 0)
(2 1.78062e-13 0)
(2 -2.99528e-13 0)
(2 -1.56516e-13 0)
(2 -2.24682e-13 0)
(1.82973 0.228699 0)
(2 -1.69723e-13 0)
(2 -1.23167e-08 0)
(2 -2.07747e-13 0)
(1.86414 0.230965 0)
(2 4.92341e-10 0)
(2 1.38088e-14 0)
(1.83424 0.230103 0)
(1.83003 0.228259 0)
(2 -5.63154e-14 0)
(2.03847 0.0915299 0)
(2 -4.05388e-14 0)
(2 -2.32184e-14 0)
(2.14382 -0.287067 0)
(2 7.13295e-14 0)
(2 -1.83824e-13 0)
(2 1.26742e-13 0)
(2.13242 -0.277714 0)
(2 3.70038e-15 0)
(2 -1.06211e-13 0)
(2 2.45792e-14 0)
(2 -3.02571e-15 0)
(2.25964 -0.255779 0)
(2 4.05061e-14 0)
(2 -1.5418e-13 0)
(2 6.86622e-14 0)
(2 -1.22027e-13 0)
(2 4.91046e-13 0)
(2.2346 -0.295471 0)
(1.99998 2.60708e-05 0)
(1.86574 0.227281 0)
(2 -2.24339e-14 0)
(2.00001 -4.14364e-05 0)
(1.86724 0.228245 0)
(1.86844 0.230317 0)
(2 -1.20729e-13 0)
(2 -1.93962e-13 0)
(2.13619 -0.274478 0)
(2.16794 -0.0957151 0)
(1.83063 0.229358 0)
(2 -3.60911e-14 0)
(2 -1.10877e-13 0)
(2 -9.61551e-15 0)
(1.88498 0.223286 0)
(2.25199 -0.269432 0)
(2 -7.00934e-14 0)
(1.86465 0.226523 0)
(2 -1.59627e-13 0)
(2 -2.20157e-13 0)
(2.14931 -0.19754 0)
(2.1514 -0.196164 0)
(2 -1.69119e-13 0)
(2.17045 -0.27097 0)
(2.18938 -0.278165 0)
(2 -3.09214e-13 0)
(2 -3.52467e-14 0)
(2 5.47376e-14 0)
(2 1.01622e-13 0)
(2 -1.22352e-10 0)
(2 3.62208e-13 0)
(2 2.64396e-13 0)
(1.85958 0.231056 0)
(2.01569 0.0944043 0)
(1.85459 0.208968 0)
(2.22672 -0.294208 0)
(2.07708 -0.0404818 0)
(1.82941 0.228917 0)
(2 -6.07299e-12 0)
(1.86997 0.229797 0)
(1.83008 0.22941 0)
(2.19619 -0.276715 0)
(2.18292 -0.121367 0)
(2 -1.15442e-12 0)
(2.18987 -0.277364 0)
(2 -3.63448e-14 0)
(1.82347 0.235225 0)
(2 -2.67519e-13 0)
(2 5.48654e-14 0)
(2 2.8423e-13 0)
(2 2.98239e-14 0)
(1.87239 0.223456 0)
(2 -8.37732e-14 0)
(2 1.07459e-13 0)
(2 1.46664e-13 0)
(2 5.1261e-10 0)
(2 6.70848e-14 0)
(2 1.12078e-13 0)
(2 -2.21645e-13 0)
(1.99486 0.119377 0)
(1.86361 0.230823 0)
(2 7.694e-14 0)
(1.85897 0.222379 0)
(2 -6.89163e-14 0)
(2 1.20751e-14 0)
(2.16175 -0.270452 0)
(2 5.10951e-15 0)
(2 2.97239e-13 0)
(2 5.24689e-14 0)
(2 -1.47327e-13 0)
(1.87088 0.221967 0)
(1.92572 0.202433 0)
(2 7.49391e-14 0)
(2 -9.85095e-14 0)
(2.16819 -0.272657 0)
(1.87417 0.225253 0)
(1.86555 0.222934 0)
(2 -1.40026e-13 0)
(1.86385 0.223631 0)
(1.87559 0.225498 0)
(1.86241 0.221526 0)
(2 -4.93021e-18 0)
(2.16216 -0.0739499 0)
(2 1.48425e-13 0)
(1.88726 0.223941 0)
(2.08108 0.0257219 0)
(1.86073 0.222357 0)
(2 -6.4088e-14 0)
(2.19208 -0.276257 0)
(2.00037 -0.000627016 0)
(1.83117 0.22904 0)
(2 7.9988e-14 0)
(2 -1.01735e-13 0)
(2 1.42409e-13 0)
(2 -4.19346e-14 0)
(2.16731 -0.266844 0)
(1.8547 0.220503 0)
(1.94107 0.204421 0)
(2 -1.35247e-13 0)
(2 -1.76239e-12 0)
(1.88561 0.223673 0)
(1.83018 0.229283 0)
(2 -1.18925e-13 0)
(1.92595 0.116135 0)
(2 6.98348e-11 0)
(2 1.28863e-13 0)
(2 2.17697e-13 0)
(1.94408 0.194811 0)
(1.99925 0.00249126 0)
(1.86213 0.223007 0)
(2.06506 -0.0220479 0)
(1.86349 0.222521 0)
(2 1.20952e-13 0)
(1.86311 0.222094 0)
(1.85676 0.221923 0)
(1.86485 0.221359 0)
(1.87419 0.225762 0)
(2 9.9944e-14 0)
(1.86208 0.207271 0)
(2.082 -0.0373164 0)
(2.09647 -0.0553039 0)
(2 1.64524e-13 0)
(2 -2.82381e-07 0)
(2 5.98179e-14 0)
(2 -2.7337e-13 0)
(1.85622 0.217324 0)
(2 6.51332e-14 0)
(2 4.84897e-14 0)
(2 2.55974e-14 0)
(2 -4.89432e-14 0)
(2 1.28629e-13 0)
(1.83122 0.229125 0)
(2 2.88198e-14 0)
(2 -9.43532e-14 0)
(2.00128 -0.00206137 0)
(1.8676 0.222462 0)
(1.88313 0.181466 0)
(2 -1.26586e-13 0)
(1.88122 0.177581 0)
(1.99999 2.22076e-05 0)
(2 -8.04643e-14 0)
(2 -2.13398e-13 0)
(1.87368 0.2274 0)
(2 -8.38036e-14 0)
(2.00138 -0.00204804 0)
(1.99835 0.00375377 0)
(2 4.28466e-14 0)
(1.856 0.221979 0)
(2 -1.70799e-15 0)
(1.8502 0.222578 0)
(2 8.26002e-14 0)
(2 2.29844e-13 0)
(1.9291 0.199314 0)
(2 -3.9067e-14 0)
(1.8517 0.221799 0)
(1.99999 1.23052e-05 0)
(2 1.5629e-13 0)
(1.8505 0.22219 0)
(2 -1.61803e-13 0)
(1.87016 0.221654 0)
(2 3.8501e-14 0)
(2 3.01768e-06 0)
(2 5.93841e-15 0)
(1.87539 0.224386 0)
(2 -1.80067e-13 0)
(1.84796 0.220865 0)
(2 4.49827e-06 0)
(1.8736 0.223525 0)
(1.82982 0.22892 0)
(1.88087 0.221848 0)
(1.85731 0.230223 0)
(2 -5.40327e-14 0)
(1.83122 0.229186 0)
(1.84381 0.223034 0)
(2 -5.70538e-14 0)
(2.17861 -0.269565 0)
(1.92314 0.21244 0)
(1.95576 0.193439 0)
(2 6.05427e-14 0)
(1.87379 0.224483 0)
(2 -3.14018e-13 0)
(2.15092 -0.288642 0)
(2.25047 -0.275168 0)
(2 1.67423e-13 0)
(2 2.58547e-14 0)
(2 4.84598e-15 0)
(2 2.6595e-14 0)
(2 -9.7078e-10 0)
(2.14595 -0.291118 0)
(2 -3.42157e-14 0)
(1.85776 0.22259 0)
(2.01204 0.0871925 0)
(1.87352 0.226229 0)
(2 -1.48452e-13 0)
(2 1.09522e-10 0)
(2 -7.57288e-14 0)
(2 -1.37887e-13 0)
(2 -4.64777e-08 0)
(1.85544 0.222214 0)
(2 3.8216e-14 0)
(1.8604 0.21527 0)
(1.95667 0.173176 0)
(2.18729 -0.118853 0)
(2 1.11698e-09 0)
(1.99999 6.89081e-06 0)
(1.95503 0.0697143 0)
(1.96807 0.0576414 0)
(2 6.2262e-14 0)
(2 -2.35815e-14 0)
(1.99519 0.121284 0)
(2 5.67523e-14 0)
(2.15535 -0.267962 0)
(1.85895 0.22064 0)
(1.85718 0.221577 0)
(2 2.00393e-15 0)
(2 -1.6558e-13 0)
(2 9.27521e-14 0)
(1.83012 0.22883 0)
(2 -2.86175e-13 0)
(1.99999 1.32136e-05 0)
(2 1.25052e-13 0)
(1.85633 0.220129 0)
(2.06793 -0.0159368 0)
(2 -2.00424e-13 0)
(2 3.22371e-10 0)
(2.17472 -0.271031 0)
(1.91901 0.211328 0)
(2 1.64962e-13 0)
(2 5.70691e-14 0)
(2 4.97999e-15 0)
(2 -2.12541e-11 0)
(2 1.01932e-13 0)
(1.86914 0.22174 0)
(1.83108 0.229215 0)
(2 7.96909e-14 0)
(1.85169 0.22057 0)
(1.85065 0.219649 0)
(1.88188 0.222055 0)
(2 -2.48424e-13 0)
(2 3.23757e-13 0)
(2 -8.13396e-11 0)
(2 -1.04914e-14 0)
(2.21247 -0.269289 0)
(1.82949 0.228835 0)
(2 -5.64393e-11 0)
(2 1.52662e-13 0)
(1.92741 0.211218 0)
(1.92197 0.211644 0)
(2 3.18832e-13 0)
(1.92743 0.211134 0)
(1.86422 0.231113 0)
(2 -1.6797e-13 0)
(2 -2.05779e-07 0)
(2 1.14038e-10 0)
(2 -1.15407e-13 0)
(2 -3.46089e-14 0)
(1.85749 0.221648 0)
(2 -7.44937e-14 0)
(2 -1.74744e-14 0)
(2 -2.81613e-15 0)
(2 -1.00012e-13 0)
(1.86066 0.21326 0)
(2 -1.63693e-13 0)
(1.85743 0.215749 0)
(2.20313 -0.276993 0)
(2 -1.11953e-13 0)
(2.18787 -0.280477 0)
(2 -7.76122e-14 0)
(2 -1.17145e-07 0)
(2 -1.15487e-13 0)
(2.00107 -0.00157103 0)
(2.17531 -0.275856 0)
(2.00029 -0.000534966 0)
(2 -9.07402e-14 0)
(2 8.40812e-14 0)
(2 -1.15889e-07 0)
(1.9747 0.0371451 0)
(2 9.09326e-15 0)
(2 -8.41689e-14 0)
(2.08694 -0.0610449 0)
(2 -1.7843e-07 0)
(2 4.57171e-14 0)
(2 -2.21001e-13 0)
(2 -2.00782e-07 0)
(2 6.68721e-07 0)
(2 1.30812e-07 0)
(2 3.35888e-13 0)
(2 -1.63717e-06 0)
(2.06953 -0.0191385 0)
(2 -1.2764e-07 0)
(2 -4.15329e-08 0)
(2.0008 -0.00122366 0)
(2 -2.0101e-13 0)
(2.16693 -0.269217 0)
(2 -2.10557e-11 0)
(2 -5.26976e-12 0)
(2 -6.11212e-11 0)
(2 2.07281e-14 0)
(1.93724 0.200366 0)
(2 -2.66864e-14 0)
(2 4.96805e-13 0)
(2 -1.21403e-13 0)
(2 -2.64253e-13 0)
(2.19569 -0.278628 0)
(2 -1.26612e-13 0)
(2 7.17688e-10 0)
(1.91934 0.211851 0)
(1.82871 0.228536 0)
(2 -3.10853e-07 0)
(2 4.56376e-13 0)
(2 -1.06093e-07 0)
(2.09613 -0.0584948 0)
(2 -1.98408e-13 0)
(2 3.62328e-10 0)
(2 -2.47909e-13 0)
(2 -2.72742e-14 0)
(2 1.73532e-13 0)
(2 1.81772e-13 0)
(2.06513 -0.0138058 0)
(2.0445 0.0275342 0)
(2.00002 0.000452215 0)
(2 1.56799e-15 0)
(2 -2.1548e-14 0)
(2 2.53238e-14 0)
(1.83019 0.230077 0)
(2.06824 -0.0466251 0)
(2 -4.85059e-09 0)
(2 -1.64375e-13 0)
(2 -9.67445e-14 0)
(1.86396 0.230615 0)
(1.86798 0.230135 0)
(2 -3.96402e-08 0)
(2 4.80692e-06 0)
(2 1.76396e-09 0)
(2 -2.80748e-13 0)
(2 1.0583e-09 0)
(2 1.52878e-13 0)
(2 1.404e-11 0)
(2 1.35695e-13 0)
(2 -2.63597e-13 0)
(2.18572 -0.277266 0)
(2 -5.04715e-15 0)
(2 -1.22282e-11 0)
(1.82922 0.227367 0)
(2.18976 -0.276249 0)
(2 -9.03974e-14 0)
(1.82905 0.227204 0)
(2 1.4321e-10 0)
(2.1655 -0.272223 0)
(2 5.42116e-14 0)
(2 5.13419e-13 0)
(2.1854 -0.277454 0)
(2 -1.03009e-14 0)
(2 -6.90184e-12 0)
(2 -3.67472e-12 0)
(2 -7.69988e-14 0)
(2 -4.29348e-13 0)
(2 -1.46026e-13 0)
(2 -6.80331e-14 0)
(1.92382 0.211894 0)
(1.92323 0.211809 0)
(2 3.05304e-13 0)
(2 -7.28474e-14 0)
(2 -2.0249e-13 0)
(2 2.90758e-13 0)
(1.92647 0.210961 0)
(2 7.52597e-14 0)
(1.9992 0.10793 0)
(2.17329 -0.269954 0)
(2 -3.02055e-08 0)
(2 -6.91771e-14 0)
(2 -8.46603e-14 0)
(2 -1.75313e-13 0)
(2 -1.55974e-13 0)
(2 -1.0072e-13 0)
(2 3.44755e-14 0)
(2.038 0.0391886 0)
(2 2.28863e-13 0)
(2 -1.10517e-13 0)
(1.90391 0.124528 0)
(2 -2.5864e-14 0)
(2 -2.029e-13 0)
(2 -5.53603e-14 0)
(1.95004 0.204491 0)
(2 -3.57166e-13 0)
(2 3.46723e-13 0)
(2 -3.66079e-13 0)
(2 -2.20617e-13 0)
(2.19336 -0.278371 0)
(2 5.56672e-12 0)
(2 3.9094e-13 0)
(2.19121 -0.29323 0)
(2.19054 -0.276214 0)
(2 -1.45948e-13 0)
(2 -6.75187e-14 0)
(1.88644 0.22404 0)
(2 -1.43911e-13 0)
(2.02483 0.00987778 0)
(2 1.1458e-13 0)
(2 -5.64031e-15 0)
(2 -1.06142e-14 0)
(1.94522 0.195407 0)
(2.18424 -0.26248 0)
(2 2.44531e-13 0)
(2.1911 -0.279964 0)
(2 -2.09079e-13 0)
(2.12606 -0.129145 0)
(2 -2.22971e-13 0)
(2 -3.14371e-13 0)
(2 -1.89471e-13 0)
(1.83042 0.229202 0)
(2 -4.18956e-08 0)
(2 -1.85966e-13 0)
(1.89405 0.221058 0)
(2 -1.42535e-13 0)
(2 9.90688e-11 0)
(2 5.47609e-10 0)
(1.89413 0.220056 0)
(2 3.85102e-10 0)
(2 -1.10529e-13 0)
(1.88846 0.22317 0)
(2 1.43206e-13 0)
(2 1.10013e-14 0)
(2.19527 -0.276786 0)
(2 -1.97234e-11 0)
(2.00134 0.10991 0)
(2 4.17337e-14 0)
(2 -2.10716e-13 0)
(1.82936 0.228906 0)
(1.82954 0.228916 0)
(1.93295 0.183649 0)
(1.92918 0.209537 0)
(2 1.16353e-13 0)
(2.19496 -0.276376 0)
(2 -2.02769e-13 0)
(2 -9.59496e-14 0)
(1.92324 0.213933 0)
(2 -8.92097e-15 0)
(2.18655 -0.281531 0)
(2 -6.36793e-14 0)
(2 9.51208e-15 0)
(2 -1.03874e-13 0)
(1.89662 0.219318 0)
(2 6.57028e-14 0)
(2 1.08009e-15 0)
(2 1.76236e-14 0)
(2 1.11633e-13 0)
(1.948 0.173382 0)
(2 -2.59263e-13 0)
(2 -2.76217e-13 0)
(1.83098 0.227697 0)
(2.18578 -0.282047 0)
(2 -1.14421e-13 0)
(2 8.78329e-15 0)
(2.183 -0.287478 0)
(2.18735 -0.292681 0)
(2 1.74099e-14 0)
(2 5.52428e-14 0)
(2 -6.03948e-12 0)
(1.93251 0.193743 0)
(1.93381 0.202841 0)
(2 -2.34635e-13 0)
(2 1.23675e-13 0)
(2 2.78629e-14 0)
(2 2.26099e-13 0)
(2 1.41131e-13 0)
(2 -2.19521e-15 0)
(2 -1.45006e-13 0)
(1.98352 0.132377 0)
(1.8565 0.231393 0)
(2.04863 0.0357939 0)
(2 -5.5832e-14 0)
(1.95052 0.205585 0)
(2.27193 -0.272006 0)
(2 -1.3728e-13 0)
(2 -8.12913e-14 0)
(2 3.94792e-14 0)
(1.95131 0.160401 0)
(2 5.83388e-14 0)
(1.99589 0.00916412 0)
(2 -2.03843e-14 0)
(1.91847 0.21082 0)
(1.92671 0.208946 0)
(2 9.99719e-15 0)
(2.18961 -0.275775 0)
(2 -2.05202e-14 0)
(1.84256 0.229938 0)
(2 -1.15758e-13 0)
(2 1.21642e-13 0)
(1.87176 0.227136 0)
(1.92767 0.210684 0)
(2 7.89968e-15 0)
(1.82715 0.22832 0)
(2 9.94279e-15 0)
(2.17054 -0.278547 0)
(2 1.94371e-13 0)
(2 4.822e-14 0)
(2 2.01367e-13 0)
(1.84417 0.22445 0)
(1.92401 0.211129 0)
(1.92314 0.210602 0)
(2 -7.29435e-14 0)
(1.83034 0.228716 0)
(1.89005 0.221489 0)
(2 2.85048e-13 0)
(1.89615 0.219854 0)
(2 -1.07826e-08 0)
(1.92719 0.209283 0)
(2 1.76053e-14 0)
(2.18521 -0.280012 0)
(2.05815 0.00956326 0)
(2.17934 -0.290325 0)
(2 -4.0863e-11 0)
(2 -1.45293e-11 0)
(2 -4.12519e-11 0)
(2 -2.7606e-13 0)
(2 -1.13976e-11 0)
(1.88208 0.22324 0)
(2 -1.41826e-13 0)
(1.88316 0.223196 0)
(2 2.20887e-11 0)
(2 -7.52159e-11 0)
(2 5.24816e-15 0)
(1.92496 0.21081 0)
(2 -9.05153e-14 0)
(2.18032 -0.267938 0)
(1.89261 0.221065 0)
(2 -2.90602e-14 0)
(2.17082 -0.27567 0)
(2.1693 -0.231934 0)
(2.17676 -0.258527 0)
(2 -1.33925e-13 0)
(1.96087 0.150283 0)
(2.03381 0.0413344 0)
(1.92791 0.204019 0)
(1.88988 0.221177 0)
(2 -5.01469e-14 0)
(2 -1.93808e-07 0)
(2 7.26101e-08 0)
(2 -1.07585e-13 0)
(1.87835 0.22044 0)
(2 7.31043e-15 0)
(2 -1.04149e-13 0)
(1.87804 0.220461 0)
(1.88896 0.221868 0)
(2 -3.16088e-13 0)
(1.99706 0.117184 0)
(2.00051 -0.000821546 0)
(2 8.50087e-14 0)
(2.00031 -0.000593633 0)
(1.86394 0.23181 0)
(2.10238 -0.0813281 0)
(2 -1.29972e-07 0)
(2.11082 -0.104179 0)
(2.15421 -0.267912 0)
(2.15652 -0.269106 0)
(2.06782 -0.0389656 0)
(1.86528 0.229362 0)
(1.92705 0.210476 0)
(2.0212 0.073136 0)
(1.92882 0.202538 0)
(1.8878 0.221021 0)
(2 -1.56734e-13 0)
(2 -1.07063e-13 0)
(1.86059 0.232399 0)
(1.82901 0.228759 0)
(1.91388 0.198433 0)
(1.82847 0.227251 0)
(2 5.68704e-14 0)
(1.92669 0.207682 0)
(2.1734 -0.269187 0)
(1.83142 0.228362 0)
(1.83045 0.227765 0)
(1.82799 0.228297 0)
(1.83111 0.23022 0)
(2.0992 -0.0698488 0)
(2.083 -0.0478475 0)
(2.07088 -0.0229857 0)
(1.88779 0.223941 0)
(2.06333 -0.012447 0)
(1.83101 0.229069 0)
(2 2.01341e-13 0)
(2 -2.75691e-14 0)
(1.92705 0.205802 0)
(1.83098 0.22873 0)
(2 6.09533e-14 0)
(2.1891 -0.276648 0)
(1.83031 0.228733 0)
(1.88776 0.222066 0)
(2 -9.05423e-14 0)
(1.88013 0.216644 0)
(1.88059 0.216969 0)
(2 -1.58774e-13 0)
(1.87943 0.221184 0)
(2.18425 -0.283194 0)
(1.83137 0.231024 0)
(1.85808 0.231888 0)
(1.82982 0.228865 0)
(1.82989 0.231948 0)
(2 1.02592e-14 0)
(2 4.44277e-14 0)
(2 -9.27953e-08 0)
(1.88778 0.222907 0)
(1.94792 0.185509 0)
(2.24232 -0.22585 0)
(1.89485 0.219448 0)
(2.18479 -0.293875 0)
(1.88741 0.223197 0)
(2 2.60375e-13 0)
(2 2.06795e-13 0)
(2 -1.58837e-13 0)
(2 -2.21207e-13 0)
(1.83137 0.22836 0)
(1.89468 0.220014 0)
(2 5.7852e-14 0)
(2 -7.6977e-14 0)
(1.89531 0.219611 0)
(2.18503 -0.290663 0)
(1.83092 0.229258 0)
(2.16273 -0.269535 0)
(2 4.37565e-14 0)
(1.92419 0.210211 0)
(2 -3.22192e-13 0)
(2.22828 -0.289308 0)
(1.89957 0.220184 0)
(2.14022 -0.164845 0)
(2 9.79219e-15 0)
(1.89134 0.220813 0)
(1.89915 0.220547 0)
(1.88542 0.204515 0)
(2 -2.05113e-13 0)
(2 6.52097e-14 0)
(2 -3.60799e-13 0)
(1.89983 0.219346 0)
(2.17166 -0.271869 0)
(1.90099 0.216007 0)
(2 -1.30077e-13 0)
(1.9344 0.188801 0)
(2.0863 -0.0571649 0)
(1.88568 0.205403 0)
(2.18742 -0.275024 0)
(2 2.45939e-15 0)
(1.83234 0.228171 0)
(2.1606 -0.215385 0)
(1.9272 0.20739 0)
(2.16426 -0.273017 0)
(2 1.62554e-13 0)
(1.89805 0.219291 0)
(2 -1.74521e-13 0)
(1.86414 0.229583 0)
(2 2.51147e-13 0)
(1.96641 0.172891 0)
(1.92341 0.212364 0)
(1.92458 0.201634 0)
(2.18693 -0.306717 0)
(2 -2.78886e-13 0)
(1.83148 0.228986 0)
(2 -1.50968e-13 0)
(1.93303 0.189591 0)
(2 -1.20936e-07 0)
(1.9041 0.215406 0)
(2 -2.51287e-07 0)
(2 -2.85783e-13 0)
(1.83168 0.229295 0)
(2.05772 0.018499 0)
(1.90223 0.219415 0)
(2.19883 -0.282084 0)
(2 1.03149e-07 0)
(2 -1.53437e-14 0)
(1.96011 0.194667 0)
(2 2.23159e-14 0)
(1.83047 0.228919 0)
(1.90412 0.214625 0)
(1.83044 0.228613 0)
(2 5.42234e-14 0)
(1.9288 0.209639 0)
(1.83154 0.229222 0)
(1.92885 0.209518 0)
(1.9407 0.175947 0)
(1.83275 0.231087 0)
(2 3.51477e-13 0)
(1.93184 0.183674 0)
(2 -1.12077e-14 0)
(1.83169 0.228755 0)
(2 -3.77638e-13 0)
(2.02838 0.0643526 0)
(2 -1.75584e-13 0)
(1.92444 0.214708 0)
(2 5.30268e-14 0)
(1.9351 0.189479 0)
(1.92047 0.213043 0)
(1.92436 0.210682 0)
(2 -4.8306e-14 0)
(2 -1.13605e-06 0)
(2.24628 -0.281192 0)
(2 -2.34245e-13 0)
(2.20064 -0.277191 0)
(2 -2.11506e-13 0)
(2 -8.30453e-14 0)
(2 -6.06324e-16 0)
(1.85307 0.231698 0)
(2 6.68789e-14 0)
(1.90858 0.214577 0)
(2 -2.67599e-14 0)
(2 1.82607e-13 0)
(2 3.35432e-15 0)
(1.89544 0.220056 0)
(2.00001 -3.6121e-05 0)
(2 -9.09794e-06 0)
(1.83181 0.228011 0)
(1.83069 0.23005 0)
(2.18904 -0.282263 0)
(1.8272 0.231252 0)
(1.85401 0.231342 0)
(2 1.46786e-13 0)
(2 -2.26667e-08 0)
(1.90491 0.21332 0)
(2 -4.66187e-06 0)
(2 -2.7577e-13 0)
(1.8448 0.230285 0)
(1.84085 0.230599 0)
(2 -1.63861e-13 0)
(1.87615 0.231841 0)
(1.83114 0.229311 0)
(1.83089 0.229135 0)
(1.8988 0.220286 0)
(2 -4.14466e-13 0)
(2 1.12355e-14 0)
(2 3.1738e-14 0)
(1.92583 0.187107 0)
(2.26476 -0.238448 0)
(2 6.56684e-15 0)
(1.90975 0.212717 0)
(2 3.5204e-14 0)
(2 -1.433e-14 0)
(2.25067 -0.281099 0)
(2 1.17379e-13 0)
(2 3.11689e-14 0)
(1.90911 0.210501 0)
(1.83215 0.228509 0)
(2 1.06148e-13 0)
(1.90336 0.215608 0)
(2.00001 -1.94614e-05 0)
(1.87039 0.228768 0)
(2.06132 0.00654578 0)
(1.87622 0.219172 0)
(2 -3.32445e-14 0)
(1.87461 0.219062 0)
(1.90959 0.207697 0)
(2.00001 -3.54306e-05 0)
(2 1.94278e-13 0)
(2 6.07602e-14 0)
(2 2.72663e-13 0)
(1.83127 0.229615 0)
(1.83127 0.228743 0)
(1.91296 0.206923 0)
(2.07185 -0.0193239 0)
(2 -1.09439e-14 0)
(1.87146 0.231838 0)
(1.83135 0.229052 0)
(1.87961 0.226052 0)
(2 -1.9744e-13 0)
(1.83137 0.229169 0)
(1.83156 0.228707 0)
(1.91016 0.209996 0)
(1.87177 0.232328 0)
(2 -2.33185e-13 0)
(1.91313 0.204085 0)
(1.89224 0.199371 0)
(1.89002 0.209963 0)
(1.83206 0.228087 0)
(1.8727 0.231204 0)
(2 6.40217e-14 0)
(1.83142 0.230268 0)
(1.92079 0.211796 0)
(1.91364 0.207823 0)
(1.83103 0.228686 0)
(1.83204 0.228464 0)
(2.21357 -0.283735 0)
(1.872 0.22748 0)
(1.8325 0.22832 0)
(2 8.24452e-14 0)
(1.91851 0.195764 0)
(1.91349 0.208852 0)
(1.91728 0.197988 0)
(1.91653 0.204169 0)
(2 -5.50869e-08 0)
(1.91312 0.201603 0)
(1.92028 0.197063 0)
(2 -1.81136e-13 0)
(1.88827 0.222724 0)
(1.92628 0.211416 0)
(2 1.1248e-13 0)
(2 -1.06936e-13 0)
(2 -8.96438e-10 0)
(1.83165 0.22902 0)
(1.83205 0.230721 0)
(2 -1.39116e-13 0)
(2 2.93694e-16 0)
(1.95792 0.159395 0)
(2 -3.08553e-13 0)
(2 -1.20583e-05 0)
(2 2.17881e-13 0)
(2 -4.51046e-14 0)
(1.8874 0.221014 0)
(1.95848 0.206682 0)
(1.83173 0.22905 0)
(1.88806 0.22128 0)
(2 1.65497e-14 0)
(2 -1.198e-13 0)
(2 -2.03474e-13 0)
(1.91476 0.179176 0)
(2 -1.31036e-13 0)
(1.92471 0.189107 0)
(2 1.0444e-13 0)
(2 9.76276e-14 0)
(1.86258 0.232415 0)
(1.85816 0.231939 0)
(2 -6.2654e-14 0)
(1.90851 0.21286 0)
(2.17692 -0.296167 0)
(1.88065 0.221501 0)
(1.83146 0.230172 0)
(2.11396 -0.185382 0)
(2 3.66155e-15 0)
(2.17615 -0.299694 0)
(1.8886 0.210825 0)
(1.83027 0.230779 0)
(1.91874 0.173542 0)
(1.92346 0.165651 0)
(2.18836 -0.278261 0)
(1.8315 0.229146 0)
(1.8899 0.223322 0)
(2.18234 -0.283759 0)
(2.19696 -0.294018 0)
(2 -2.64853e-07 0)
(1.94685 0.162834 0)
(1.83104 0.229894 0)
(2 -5.43094e-14 0)
(2 4.63453e-14 0)
(1.91323 0.199258 0)
(2 -1.57512e-13 0)
(1.8301 0.231939 0)
(2 -1.64397e-09 0)
(1.91919 0.210607 0)
(2 -3.8612e-13 0)
(1.98104 0.148702 0)
(1.831 0.229862 0)
(1.89946 0.220671 0)
(1.91323 0.181612 0)
(2.00008 -9.89248e-05 0)
(1.8531 0.230945 0)
(1.87995 0.227728 0)
(2.0001 -0.000349137 0)
(2 2.52271e-13 0)
(2.25938 -0.267762 0)
(1.99941 0.00259548 0)
(1.83194 0.228756 0)
(1.87854 0.230051 0)
(2 -2.11812e-09 0)
(2 1.97619e-14 0)
(2 7.22741e-10 0)
(1.82745 0.228527 0)
(2 -1.69758e-13 0)
(1.83223 0.228542 0)
(1.88186 0.224355 0)
(2.138 -0.153424 0)
(2 1.64264e-13 0)
(1.91949 0.200721 0)
(2.00002 -4.30101e-05 0)
(2 -4.56483e-14 0)
(2 9.72551e-09 0)
(2 -9.75475e-12 0)
(1.83221 0.228879 0)
(1.87672 0.227523 0)
(2 -2.62569e-11 0)
(2 7.91213e-14 0)
(2 -3.31698e-14 0)
(1.92779 0.18868 0)
(1.90023 0.218956 0)
(1.92551 0.19019 0)
(1.8296 0.230816 0)
(1.83168 0.22789 0)
(2.15472 -0.244264 0)
(2 -3.46425e-06 0)
(2 -1.06306e-15 0)
(1.92351 0.210297 0)
(1.83177 0.228892 0)
(1.83175 0.228936 0)
(1.82783 0.233886 0)
(2 -1.48054e-13 0)
(1.90283 0.215665 0)
(1.92545 0.210908 0)
(1.90166 0.218119 0)
(2 -2.76458e-13 0)
(1.8307 0.229059 0)
(1.83105 0.228451 0)
(2.10056 -0.0662769 0)
(1.90146 0.215235 0)
(1.83062 0.229117 0)
(2 -1.57171e-13 0)
(1.91792 0.189227 0)
(2.10967 -0.0885996 0)
(1.8311 0.228916 0)
(2.10489 -0.0693192 0)
(1.90137 0.21655 0)
(2 -1.10755e-13 0)
(1.92538 0.19597 0)
(1.82351 0.232363 0)
(1.90517 0.214229 0)
(1.90354 0.215776 0)
(1.92546 0.197425 0)
(1.86787 0.230707 0)
(1.9026 0.21728 0)
(1.82895 0.228139 0)
(2 -1.7324e-13 0)
(2.0709 -0.0215581 0)
(1.83128 0.229076 0)
(1.86961 0.222582 0)
(2.1087 -0.0870442 0)
(1.90526 0.21237 0)
(2.05543 0.0139484 0)
(1.88698 0.161806 0)
(1.83149 0.228916 0)
(1.86865 0.228828 0)
(1.83165 0.229173 0)
(2 -2.38728e-13 0)
(1.9002 0.219565 0)
(1.89498 0.152577 0)
(1.83084 0.230503 0)
(2.07669 -0.0214523 0)
(1.9028 0.219176 0)
(1.82658 0.23231 0)
(2 1.90486e-13 0)
(2.09508 -0.0598718 0)
(2 -6.86422e-09 0)
(2.00004 -0.000161374 0)
(2 -9.74821e-14 0)
(1.95275 0.191078 0)
(2 4.55715e-09 0)
(2.00002 -5.43135e-05 0)
(2.09205 -0.0562912 0)
(2 -1.61181e-13 0)
(1.98007 0.0455819 0)
(1.83113 0.233648 0)
(2 -1.99785e-13 0)
(1.83076 0.226967 0)
(1.92811 0.205665 0)
(1.82635 0.233503 0)
(1.92516 0.1445 0)
(1.93066 0.140954 0)
(2 -3.07201e-14 0)
(1.82887 0.228425 0)
(2 -2.31576e-13 0)
(2 3.9895e-14 0)
(2 -1.81679e-14 0)
(2.09013 -0.05034 0)
(1.87162 0.224132 0)
(1.8317 0.227863 0)
(1.8318 0.227488 0)
(1.90749 0.212994 0)
(1.83086 0.232012 0)
(1.83238 0.228298 0)
(2.00001 -3.36539e-05 0)
(1.9072 0.214885 0)
(2.08935 -0.0500194 0)
(2.00025 -0.000505549 0)
(2 2.07968e-10 0)
(2 5.77384e-14 0)
(1.82468 0.233161 0)
(1.90856 0.213869 0)
(1.89948 0.218484 0)
(1.89386 0.212163 0)
(2 3.5987e-06 0)
(1.91168 0.13537 0)
(2 -3.14942e-08 0)
(1.87679 0.231326 0)
(1.86214 0.204368 0)
(2 -7.19122e-12 0)
(2 -6.64661e-11 0)
(2.15752 -0.168561 0)
(1.91187 0.208005 0)
(2 1.06686e-13 0)
(2 -3.17908e-14 0)
(2.16644 -0.270494 0)
(1.89501 0.210694 0)
(2 1.34461e-13 0)
(1.85574 0.231517 0)
(1.91981 0.200515 0)
(1.85329 0.231606 0)
(1.92735 0.210246 0)
(1.92533 0.193292 0)
(2 -1.77591e-10 0)
(2.18304 -0.30469 0)
(1.95925 0.0656226 0)
(1.83153 0.229568 0)
(1.92578 0.195339 0)
(2 -2.84102e-14 0)
(1.9341 0.187435 0)
(1.90884 0.209683 0)
(1.99584 0.0108605 0)
(1.99738 0.00585654 0)
(2.00024 -0.000609329 0)
(2 -1.84659e-13 0)
(1.86399 0.231113 0)
(1.85397 0.222119 0)
(2 -9.04194e-10 0)
(2 -2.10681e-10 0)
(2.18232 -0.278557 0)
(2 -2.40368e-10 0)
(2 -2.00267e-13 0)
(1.90545 0.213893 0)
(1.90942 0.21313 0)
(1.83015 0.23061 0)
(1.92782 0.190592 0)
(1.89517 0.207769 0)
(1.82896 0.230935 0)
(1.92787 0.203431 0)
(1.98666 0.0369504 0)
(1.85855 0.222067 0)
(2 -1.97249e-13 0)
(2.00004 -8.67161e-05 0)
(1.83123 0.228907 0)
(1.92616 0.186654 0)
(2.00006 -0.000119355 0)
(1.90961 0.211636 0)
(1.90921 0.208408 0)
(2.18887 -0.301799 0)
(2.19153 -0.275162 0)
(1.97009 0.0881266 0)
(1.8989 0.182639 0)
(2 1.34777e-14 0)
(2 2.5974e-14 0)
(1.99932 0.0017559 0)
(1.91756 0.199181 0)
(1.83003 0.230534 0)
(1.89391 0.211024 0)
(2 3.64677e-14 0)
(1.9092 0.211691 0)
(2 -3.55272e-14 0)
(2.09273 -0.079633 0)
(1.87764 0.231131 0)
(1.90926 0.170402 0)
(2 -2.69803e-14 0)
(1.98835 0.0254123 0)
(1.875 0.226829 0)
(2 2.5501e-13 0)
(1.82919 0.228622 0)
(2 -1.03444e-10 0)
(1.91194 0.203521 0)
(2 6.60919e-08 0)
(1.83214 0.229664 0)
(2 1.43748e-11 0)
(1.83179 0.228629 0)
(1.85383 0.220129 0)
(2.17961 -0.282727 0)
(1.91288 0.199433 0)
(2 -1.1569e-07 0)
(1.83078 0.22903 0)
(1.85606 0.230924 0)
(2 7.03508e-09 0)
(2.18776 -0.294057 0)
(1.90026 0.198603 0)
(2 -1.70612e-05 0)
(2 6.49151e-10 0)
(2.00003 -0.000104591 0)
(1.91294 0.208856 0)
(2 -8.02083e-12 0)
(2.05352 0.0196484 0)
(1.83139 0.228033 0)
(2 3.83597e-09 0)
(1.91728 0.199414 0)
(2 -7.89599e-12 0)
(2 -7.03882e-15 0)
(1.83146 0.228205 0)
(2 -8.85786e-14 0)
(1.83114 0.229517 0)
(1.90919 0.210004 0)
(2.00141 -0.00247694 0)
(1.86053 0.196218 0)
(2 3.23572e-09 0)
(1.91076 0.209468 0)
(2 -5.02533e-09 0)
(2 -2.76008e-12 0)
(2 1.01542e-11 0)
(2 6.19314e-12 0)
(1.8932 0.21228 0)
(2 6.96318e-09 0)
(2 1.2593e-13 0)
(1.93528 0.116551 0)
(2 -8.83626e-14 0)
(1.91723 0.187928 0)
(2 3.47324e-10 0)
(1.95581 0.182047 0)
(1.89822 0.196494 0)
(1.83148 0.227724 0)
(2 3.21035e-11 0)
(2 -2.36589e-13 0)
(2.04522 0.0260351 0)
(2 2.80749e-12 0)
(1.83081 0.229156 0)
(1.91243 0.205551 0)