/*--------------------------------*- C++ -*----------------------------------*\
  =========                 |
  \\      /  F ield         | OpenFOAM: The Open Source CFD Toolbox
   \\    /   O peration     | Website:  https://openfoam.org
    \\  /    A nd           | Version:  12
     \\/     M anipulation  |
\*---------------------------------------------------------------------------*/
FoamFile
{
    format      ascii;
    class       volScalarField;
    location    "13.7";
    object      T;
}
// * * * * * * * * * * * * * * * * * * * * * * * * * * * * * * * * * * * * * //

dimensions      [0 0 0 1 0 0 0];

internalField   nonuniform List<scalar> 
9801
(
0.833683
0.837486
0.839228
0.84071
0.841926
0.843115
0.843855
0.843432
0.843655
0.844517
0.845818
0.848446
0.852463
0.855272
0.857059
0.858426
0.859636
0.860724
0.860496
0.86
0.860662
0.861771
0.863543
0.867365
0.871309
0.873654
0.875241
0.876516
0.877681
0.877722
0.876646
0.876978
0.878025
0.879492
0.882473
0.887268
0.890637
0.892569
0.89396
0.89527
0.895547
0.893761
0.893488
0.894509
0.895848
0.89835
0.903475
0.907961
0.910449
0.91203
0.913337
0.913973
0.91165
0.910596
0.911523
0.913017
0.915561
0.920957
0.926626
0.929809
0.931795
0.933181
0.933998
0.930988
0.928555
0.929342
0.931214
0.934173
0.9411
0.947854
0.951419
0.953752
0.955527
0.95646
0.95216
0.948621
0.94958
0.952139
0.957165
0.966736
0.97422
0.978404
0.98124
0.983474
0.982714
0.97531
0.971893
0.974762
0.979843
0.991615
1.00576
1.01578
1.02408
1.03086
1.03169
1.02727
1.02042
1.15882
1.56161
0.837271
0.841667
0.843473
0.844865
0.845996
0.846988
0.847505
0.847108
0.847313
0.848126
0.849266
0.851864
0.856226
0.859202
0.860965
0.862263
0.86336
0.864221
0.86398
0.863558
0.86416
0.865184
0.866745
0.870623
0.87482
0.87724
0.878798
0.880023
0.881067
0.881116
0.880091
0.880343
0.881275
0.882544
0.885374
0.890395
0.893875
0.895817
0.897212
0.898421
0.898737
0.897154
0.896792
0.897638
0.898846
0.900994
0.90611
0.91084
0.913431
0.915079
0.916427
0.917117
0.915097
0.913912
0.914595
0.915914
0.917984
0.923195
0.929043
0.93242
0.93451
0.936031
0.937058
0.934529
0.932019
0.932528
0.934203
0.936654
0.94309
0.950149
0.954131
0.956593
0.958453
0.959559
0.95591
0.952357
0.953057
0.955378
0.959124
0.96794
0.976229
0.981037
0.984388
0.987208
0.987908
0.981352
0.977198
0.979273
0.983806
0.9929
1.00588
1.01563
1.02409
1.03157
1.03358
1.02789
1.01446
1.15461
1.58158
0.841476
0.84615
0.847932
0.849273
0.850362
0.851295
0.85167
0.851275
0.851553
0.852406
0.853523
0.856082
0.860608
0.863636
0.865361
0.866629
0.867704
0.868537
0.868313
0.867943
0.86855
0.869574
0.87101
0.874745
0.879128
0.881638
0.88322
0.884469
0.885557
0.885711
0.884643
0.884802
0.885733
0.886966
0.88957
0.894598
0.898203
0.900199
0.901649
0.902918
0.903513
0.902073
0.901479
0.902252
0.903469
0.905388
0.910252
0.915258
0.918005
0.91974
0.921195
0.922223
0.920656
0.919093
0.919571
0.920863
0.92266
0.927182
0.933465
0.937257
0.939504
0.941211
0.942626
0.940923
0.938214
0.938397
0.939983
0.942022
0.947006
0.954809
0.959661
0.962437
0.964537
0.966211
0.963908
0.960122
0.960135
0.962338
0.965314
0.972762
0.983174
0.989397
0.993141
0.996278
0.998009
0.993163
0.987926
0.989035
0.993782
1.00074
1.01339
1.02545
1.03495
1.044
1.04889
1.04559
1.0315
1.16625
1.60318
0.846982
0.851831
0.853636
0.854984
0.856083
0.857026
0.857275
0.856925
0.857305
0.858201
0.859329
0.861784
0.866357
0.869478
0.871239
0.872548
0.873684
0.874569
0.874306
0.873943
0.874552
0.875605
0.876989
0.880516
0.885182
0.887881
0.889517
0.890814
0.89196
0.892147
0.890995
0.891078
0.892051
0.893333
0.895667
0.900713
0.90472
0.906882
0.908417
0.909763
0.910556
0.909113
0.908206
0.908979
0.910319
0.912114
0.916612
0.922229
0.925333
0.927165
0.928702
0.929943
0.92868
0.926555
0.926853
0.928339
0.930202
0.934038
0.940963
0.945508
0.947909
0.949715
0.951363
0.950465
0.947191
0.946785
0.948442
0.950664
0.954542
0.962754
0.969008
0.97231
0.974716
0.976921
0.976173
0.97145
0.970142
0.972349
0.9755
0.980823
0.99149
0.99987
1.00453
1.00809
1.01105
1.00913
1.00318
1.00169
1.00604
1.01229
1.02188
1.03425
1.04447
1.05406
1.06162
1.0626
1.05158
1.17643
1.62307
0.853075
0.858103
0.859953
0.861343
0.862477
0.863447
0.863701
0.863404
0.863793
0.864697
0.865821
0.868053
0.872682
0.876064
0.877906
0.87927
0.880468
0.881417
0.881147
0.880755
0.881353
0.882427
0.883768
0.886986
0.891994
0.894999
0.896696
0.898021
0.899187
0.899435
0.898365
0.898361
0.899305
0.90059
0.902547
0.907453
0.912144
0.914581
0.916184
0.917564
0.918444
0.91724
0.916219
0.916882
0.918217
0.91986
0.923608
0.929737
0.933455
0.935499
0.937136
0.938568
0.937956
0.935584
0.935462
0.936831
0.938669
0.941608
0.948432
0.954112
0.957011
0.959032
0.960934
0.961191
0.95777
0.956092
0.957473
0.95976
0.962911
0.970278
0.978169
0.982376
0.985048
0.987521
0.988504
0.984213
0.980619
0.981645
0.984941
0.989041
0.997859
1.00876
1.01542
1.01952
1.02318
1.02435
1.01916
1.0148
1.01567
1.02106
1.02837
1.03956
1.05054
1.05972
1.06753
1.07149
1.06293
1.18401
1.63573
0.859305
0.864596
0.866544
0.867953
0.869076
0.870074
0.870443
0.870131
0.870475
0.871379
0.872513
0.874474
0.879114
0.882929
0.884909
0.886289
0.887485
0.888466
0.888263
0.887807
0.888393
0.889484
0.890799
0.893578
0.898776
0.902195
0.904025
0.905391
0.906581
0.907024
0.905982
0.905789
0.906685
0.907976
0.909672
0.914073
0.919361
0.922199
0.923937
0.925381
0.926478
0.92565
0.924121
0.924475
0.925752
0.92736
0.930418
0.936686
0.941213
0.943617
0.945431
0.947067
0.947399
0.944725
0.943341
0.944357
0.946152
0.948639
0.954848
0.961791
0.965419
0.967645
0.969662
0.97099
0.968406
0.964956
0.965045
0.967192
0.969923
0.975656
0.984799
0.990675
0.993695
0.996168
0.998138
0.995777
0.990753
0.989582
0.99195
0.995402
1.00103
1.01185
1.02092
1.02652
1.03085
1.03417
1.0326
1.02649
1.02385
1.02599
1.03134
1.03914
1.04968
1.05892
1.06635
1.07125
1.06866
1.19092
1.64311
0.86494
0.870411
0.872593
0.874117
0.875288
0.876362
0.876849
0.876351
0.876523
0.877413
0.878581
0.880371
0.884783
0.888948
0.891163
0.892645
0.893889
0.894972
0.894894
0.89409
0.894517
0.895614
0.896971
0.899501
0.904568
0.908306
0.910351
0.911845
0.913154
0.914028
0.912998
0.912058
0.912711
0.914017
0.915712
0.919659
0.925232
0.928522
0.930481
0.932049
0.933441
0.933483
0.931258
0.930506
0.931533
0.933141
0.935796
0.941869
0.947317
0.950132
0.952046
0.953743
0.954912
0.95288
0.950149
0.950185
0.951814
0.953973
0.958939
0.966774
0.971578
0.973996
0.975948
0.977677
0.976764
0.972595
0.971221
0.972622
0.974981
0.97855
0.987004
0.995238
0.999642
1.00236
1.00477
1.00496
1.00003
0.99625
0.996327
0.999069
1.00279
1.01058
1.02177
1.02974
1.03465
1.0386
1.04074
1.03692
1.03155
1.03024
1.03279
1.03791
1.04633
1.05607
1.06329
1.06828
1.06968
1.19729
1.64782
0.869954
0.875376
0.877629
0.879204
0.880448
0.881602
0.882337
0.881764
0.881635
0.882443
0.883621
0.885393
0.889635
0.893956
0.896273
0.897792
0.899082
0.900274
0.900618
0.899551
0.899488
0.900451
0.901789
0.904177
0.90918
0.913241
0.915403
0.916946
0.918304
0.919522
0.919139
0.917438
0.917444
0.918587
0.920166
0.923653
0.929536
0.933411
0.935484
0.937058
0.938506
0.939406
0.937422
0.935559
0.935983
0.937418
0.9395
0.944844
0.951417
0.95496
0.956913
0.958535
0.960021
0.959265
0.955835
0.95491
0.956019
0.957857
0.960993
0.968538
0.975196
0.978493
0.980532
0.982334
0.982894
0.979246
0.976165
0.976232
0.978161
0.980685
0.986282
0.996237
1.00298
1.00659
1.00922
1.01116
1.0084
1.0022
1.00013
1.00144
1.00445
1.00869
1.01821
1.02863
1.03529
1.03979
1.04346
1.04471
1.04045
1.03533
1.03442
1.03702
1.0421
1.05082
1.05933
1.06535
1.06929
1.20389
1.65144
0.873913
0.879489
0.881899
0.8835
0.884748
0.885914
0.886816
0.88635
0.885874
0.886502
0.887592
0.889129
0.893113
0.897847
0.900443
0.902043
0.903346
0.904561
0.905265
0.904187
0.903584
0.904256
0.905439
0.90729
0.912073
0.916928
0.919451
0.921043
0.922384
0.923648
0.923832
0.921915
0.921315
0.922142
0.9235
0.925978
0.931895
0.936896
0.939309
0.940876
0.942272
0.943422
0.942236
0.939767
0.939619
0.940753
0.942348
0.945918
0.953097
0.958022
0.96043
0.962093
0.963626
0.963983
0.960877
0.958756
0.959136
0.960623
0.962641
0.967898
0.976365
0.981338
0.983906
0.985769
0.987205
0.985206
0.980468
0.978969
0.980151
0.982378
0.985414
0.993664
1.00353
1.00879
1.01169
1.01401
1.01508
1.01034
1.00493
1.00393
1.00547
1.00844
1.01367
1.02404
1.03366
1.03982
1.04405
1.04737
1.04742
1.043
1.03813
1.03724
1.0397
1.04497
1.05406
1.06191
1.06766
1.21041
1.65459
0.876833
0.88267
0.885454
0.887115
0.888378
0.889536
0.890502
0.890163
0.889395
0.889822
0.89081
0.892088
0.895359
0.900641
0.903794
0.905513
0.906847
0.90805
0.908946
0.908037
0.906932
0.907321
0.908368
0.909782
0.913625
0.919352
0.922575
0.924301
0.925654
0.9269
0.92752
0.925709
0.924468
0.924985
0.926195
0.927882
0.932686
0.93886
0.942112
0.943867
0.94528
0.946547
0.946255
0.943495
0.942546
0.943281
0.94466
0.946717
0.952772
0.959564
0.962963
0.964859
0.966445
0.967663
0.965661
0.962121
0.961434
0.96244
0.964212
0.967078
0.975053
0.982682
0.986375
0.988513
0.990203
0.990582
0.986031
0.982209
0.981963
0.983505
0.985745
0.98977
0.999926
1.00879
1.01306
1.01598
1.01858
1.01878
1.01227
1.00719
1.0069
1.00894
1.01215
1.01829
1.02864
1.03726
1.04296
1.04698
1.04989
1.04955
1.04502
1.04003
1.03892
1.0409
1.0466
1.05609
1.06433
1.21757
1.6575
0.878913
0.88478
0.888192
0.889976
0.89124
0.892377
0.893364
0.893264
0.892256
0.892453
0.893356
0.894518
0.896902
0.902322
0.906288
0.908195
0.90953
0.91071
0.911723
0.911268
0.909702
0.909761
0.910684
0.911914
0.914508
0.920436
0.924698
0.926714
0.928113
0.929377
0.930343
0.929114
0.927167
0.9273
0.928324
0.929687
0.93269
0.939347
0.943967
0.946152
0.947632
0.948968
0.949637
0.947235
0.945041
0.945198
0.946346
0.94791
0.951622
0.959528
0.964688
0.967112
0.968748
0.97018
0.969961
0.965865
0.963514
0.963985
0.965572
0.967458
0.972185
0.981663
0.987689
0.990474
0.992391
0.99405
0.992905
0.987174
0.984183
0.984319
0.985949
0.988376
0.994208
1.00568
1.01377
1.01768
1.02022
1.02222
1.02084
1.01422
1.01011
1.01016
1.01225
1.01566
1.02275
1.03285
1.04053
1.04562
1.04944
1.05181
1.05113
1.04656
1.041
1.03913
1.04067
1.04771
1.0587
1.22422
1.65999
0.8805
0.885916
0.890192
0.892298
0.893582
0.894697
0.895697
0.895906
0.894754
0.894624
0.895419
0.896522
0.898185
0.902961
0.907911
0.910292
0.911706
0.912894
0.913977
0.914102
0.912333
0.911819
0.91256
0.913689
0.915345
0.920365
0.92598
0.928702
0.930221
0.931482
0.932621
0.932324
0.92993
0.92925
0.929999
0.931233
0.933024
0.9386
0.94499
0.948075
0.949738
0.951091
0.952265
0.951134
0.947774
0.946944
0.947793
0.949217
0.951244
0.957621
0.965221
0.968857
0.970782
0.972269
0.973397
0.970918
0.966709
0.96584
0.966718
0.968367
0.970659
0.977796
0.98725
0.991995
0.994584
0.996604
0.997989
0.994372
0.988026
0.986109
0.987021
0.989061
0.991699
0.998743
1.01028
1.01721
1.02055
1.02328
1.02564
1.0239
1.01683
1.01291
1.0132
1.01548
1.01927
1.02715
1.03667
1.04342
1.04802
1.05162
1.05352
1.05248
1.0473
1.04076
1.03813
1.03983
1.05047
1.22834
1.66161
0.881988
0.886408
0.891466
0.894163
0.895583
0.896726
0.897758
0.898333
0.897276
0.896662
0.897271
0.898291
0.89954
0.902984
0.908723
0.911968
0.913607
0.914847
0.91597
0.916626
0.915143
0.913845
0.914256
0.91527
0.916553
0.91988
0.926342
0.930235
0.932095
0.933426
0.934642
0.935235
0.933085
0.931262
0.931591
0.932661
0.934043
0.937394
0.944719
0.949433
0.9516
0.953047
0.954348
0.954733
0.951521
0.949098
0.949336
0.950505
0.952024
0.955351
0.963705
0.969798
0.97249
0.974225
0.975759
0.976028
0.971634
0.968051
0.967841
0.969039
0.970843
0.974199
0.983651
0.992189
0.995902
0.99797
0.999737
1.00074
0.996167
0.990473
0.98913
0.989783
0.991565
0.994558
1.00305
1.01445
1.0211
1.02453
1.02713
1.02866
1.02596
1.0194
1.0159
1.01622
1.01849
1.02266
1.03134
1.04038
1.04631
1.05022
1.05336
1.05474
1.05334
1.04734
1.03963
1.03586
1.0398
1.2277
1.66224
0.883536
0.886755
0.892046
0.89564
0.897357
0.898606
0.899701
0.900597
0.900028
0.898806
0.899041
0.899912
0.901013
0.90313
0.908756
0.913239
0.915323
0.91668
0.917857
0.918854
0.91817
0.916124
0.915956
0.916827
0.918012
0.919921
0.925705
0.931254
0.933793
0.935276
0.93653
0.937614
0.936679
0.933856
0.933296
0.934117
0.935346
0.937094
0.942938
0.949946
0.953208
0.954929
0.956305
0.957529
0.956187
0.952263
0.951051
0.951619
0.952938
0.954748
0.960399
0.969301
0.974008
0.976359
0.978029
0.979437
0.9779
0.972327
0.969881
0.970286
0.971686
0.97357
0.978114
0.988607
0.995956
0.999267
1.00176
1.00387
1.004
0.997674
0.992049
0.991146
0.992454
0.994654
0.997992
1.00699
1.0179
1.02391
1.02709
1.02966
1.03143
1.02881
1.02213
1.01854
1.01879
1.02109
1.02574
1.03496
1.04337
1.04851
1.05204
1.05487
1.05573
1.05374
1.04644
1.03706
1.03176
1.2223
1.66208
0.885091
0.887436
0.892077
0.896828
0.899042
0.900431
0.901596
0.902643
0.902814
0.901227
0.900792
0.901464
0.902504
0.903911
0.908282
0.914064
0.916947
0.918476
0.919694
0.920815
0.921087
0.91893
0.917857
0.918446
0.919518
0.920817
0.924519
0.931342
0.935198
0.93705
0.938393
0.939629
0.940102
0.93742
0.935368
0.935586
0.936556
0.937894
0.941028
0.948882
0.954394
0.9568
0.958297
0.959645
0.960232
0.956739
0.953222
0.952983
0.954041
0.955541
0.958051
0.966002
0.974144
0.977653
0.979563
0.981143
0.9825
0.979643
0.974024
0.972199
0.972499
0.973812
0.97591
0.982144
0.993597
1.00039
1.0032
1.00496
1.00663
1.00638
1.00005
0.995074
0.994338
0.995271
0.997229
1.00093
1.01074
1.02118
1.02693
1.03013
1.03267
1.03381
1.03102
1.02454
1.02076
1.02078
1.02301
1.02813
1.03784
1.04583
1.05038
1.05357
1.05584
1.05626
1.05337
1.04273
1.03022
1.21313
1.6616
0.88662
0.888633
0.891939
0.897642
0.900663
0.902228
0.90344
0.904531
0.905273
0.904013
0.902713
0.903085
0.904036
0.905196
0.907866
0.914075
0.918271
0.920201
0.921513
0.922691
0.92361
0.922313
0.920161
0.920102
0.92094
0.922094
0.92404
0.930208
0.936148
0.938786
0.940274
0.941537
0.942665
0.941554
0.938066
0.937106
0.937818
0.939045
0.940721
0.946224
0.954316
0.958349
0.960334
0.9617
0.962936
0.962036
0.957329
0.955119
0.955417
0.956486
0.958047
0.961785
0.971288
0.978249
0.9813
0.983345
0.985028
0.98565
0.980751
0.975216
0.974103
0.975044
0.976581
0.978746
0.98587
0.99711
1.00289
1.00575
1.0083
1.01041
1.00938
1.0022
0.997167
0.996607
0.998003
1.0003
1.00422
1.01399
1.02378
1.02916
1.03232
1.03486
1.03614
1.03322
1.02637
1.02231
1.02222
1.02441
1.02987
1.0398
1.04733
1.05152
1.05462
1.05638
1.05644
1.0502
1.03598
1.20384
1.66138
0.888241
0.890129
0.892116
0.897832
0.902028
0.903957
0.905241
0.906364
0.907358
0.906988
0.905053
0.904823
0.90559
0.906642
0.908152
0.913183
0.919087
0.921855
0.923338
0.924562
0.925694
0.925705
0.923063
0.921833
0.922346
0.923399
0.924722
0.928533
0.935963
0.940202
0.942115
0.943391
0.944588
0.945096
0.94194
0.939204
0.939324
0.940374
0.941691
0.944078
0.951701
0.958785
0.961751
0.963473
0.964865
0.966018
0.963502
0.958458
0.956917
0.95744
0.958717
0.960518
0.966044
0.976413
0.982309
0.984687
0.986172
0.987819
0.988214
0.982729
0.977802
0.976822
0.977208
0.978576
0.981069
0.989617
1.00123
1.00704
1.00952
1.01133
1.01286
1.01158
1.00491
1.00028
0.999609
1.00054
1.0025
1.00695
1.01739
1.02661
1.03156
1.03455
1.03697
1.03808
1.0352
1.0281
1.02363
1.02326
1.02526
1.03089
1.04092
1.04822
1.05232
1.05522
1.05658
1.05464
1.04582
1.19846
1.66197
0.889924
0.891697
0.892861
0.897379
0.90292
0.905594
0.907036
0.908215
0.909282
0.90975
0.9079
0.906683
0.907119
0.908077
0.909254
0.912196
0.918911
0.9232
0.92513
0.9264
0.927554
0.928417
0.926665
0.924033
0.92391
0.924832
0.926
0.927753
0.933912
0.940735
0.943669
0.945187
0.946428
0.947598
0.946647
0.942638
0.941161
0.941599
0.942618
0.944047
0.947968
0.956971
0.962786
0.96532
0.967032
0.968438
0.968853
0.964326
0.959665
0.959001
0.959953
0.961302
0.963182
0.969967
0.980184
0.985188
0.987745
0.989836
0.991553
0.990822
0.984027
0.979076
0.978592
0.979836
0.981525
0.984032
0.992673
1.00371
1.00891
1.01151
1.01392
1.01593
1.01461
1.00748
1.0023
1.00146
1.00281
1.00521
1.0101
1.02038
1.02886
1.03354
1.03663
1.03915
1.04047
1.03707
1.02916
1.0244
1.02392
1.02578
1.03135
1.04133
1.04852
1.05265
1.05559
1.05595
1.05343
1.19905
1.66355
0.891571
0.893176
0.894085
0.896854
0.903058
0.90703
0.908832
0.910043
0.911118
0.91202
0.911083
0.908876
0.908727
0.909564
0.910662
0.912186
0.917433
0.923792
0.926689
0.928178
0.929375
0.930495
0.930387
0.927259
0.925787
0.926259
0.927237
0.928429
0.931465
0.939396
0.944792
0.947052
0.948381
0.949609
0.950399
0.947481
0.943505
0.942838
0.94371
0.944993
0.946691
0.952541
0.961751
0.966299
0.968292
0.969722
0.971211
0.971224
0.965865
0.961865
0.961394
0.961996
0.963324
0.965671
0.97407
0.9844
0.989016
0.991026
0.99234
0.993916
0.993126
0.98654
0.982227
0.981617
0.982045
0.983391
0.986127
0.995545
1.00695
1.01245
1.01487
1.01671
1.01824
1.01707
1.01043
1.00526
1.00416
1.00495
1.00704
1.0125
1.02336
1.03173
1.03616
1.03887
1.04099
1.04197
1.03845
1.03027
1.02514
1.02441
1.02594
1.03126
1.0412
1.04856
1.05311
1.05486
1.05808
1.20461
1.66604
0.893201
0.894637
0.895537
0.897124
0.902192
0.907888
0.910473
0.911806
0.912916
0.913951
0.914161
0.911803
0.910568
0.911067
0.912039
0.913167
0.915821
0.922882
0.927809
0.929929
0.931192
0.932335
0.933259
0.931471
0.928221
0.927682
0.928447
0.929575
0.931023
0.936129
0.944377
0.948466
0.950385
0.951581
0.952756
0.952517
0.947966
0.945043
0.945162
0.946124
0.947351
0.94936
0.956874
0.965583
0.969409
0.971499
0.973187
0.974585
0.973224
0.966842
0.963229
0.963344
0.964594
0.965984
0.968397
0.977297
0.986935
0.991068
0.993567
0.995683
0.997311
0.995717
0.988469
0.983709
0.98317
0.984371
0.98616
0.989006
0.998162
1.009
1.01411
1.01671
1.01907
1.0209
1.01977
1.01282
1.00701
1.0056
1.00673
1.00915
1.01498
1.02571
1.03356
1.03776
1.04061
1.04275
1.04373
1.03994
1.03134
1.0257
1.02457
1.02562
1.03062
1.04065
1.04859
1.05244
1.05964
1.21378
1.66912
0.895139
0.896165
0.897018
0.898135
0.900958
0.90753
0.911696
0.913544
0.914743
0.915824
0.916702
0.915413
0.912842
0.912551
0.9133
0.914379
0.915757
0.920536
0.927828
0.931298
0.932948
0.934106
0.935217
0.935405
0.931941
0.929543
0.929805
0.930862
0.932036
0.933939
0.940963
0.948503
0.951618
0.95334
0.954581
0.955751
0.954315
0.949147
0.946927
0.947165
0.948088
0.949441
0.952296
0.961308
0.969428
0.972695
0.974336
0.975589
0.977061
0.975396
0.968995
0.965997
0.965868
0.966443
0.967832
0.970797
0.980794
0.990675
0.994767
0.996605
0.997885
0.999401
0.998263
0.991428
0.986884
0.98619
0.986723
0.988084
0.990953
1.00084
1.01192
1.01707
1.01937
1.02109
1.02268
1.0219
1.01539
1.00944
1.00775
1.00833
1.0103
1.01631
1.0276
1.03582
1.04011
1.0426
1.04427
1.04504
1.04142
1.03251
1.02602
1.02424
1.02473
1.02955
1.04016
1.04766
1.05858
1.22405
1.67226
0.897504
0.897638
0.898329
0.899362
0.900827
0.905893
0.912277
0.915156
0.916569
0.91764
0.918631
0.91878
0.91598
0.914267
0.91468
0.915702
0.916847
0.91886
0.925606
0.931853
0.934403
0.935783
0.936929
0.937992
0.936783
0.932776
0.931535
0.932073
0.93301
0.934214
0.937158
0.945667
0.952158
0.954863
0.956569
0.957894
0.958782
0.955618
0.950115
0.948602
0.949381
0.950633
0.951915
0.955167
0.964884
0.972243
0.975225
0.977302
0.979015
0.980198
0.977315
0.970369
0.967353
0.967709
0.969019
0.970519
0.973397
0.983221
0.992445
0.996328
0.998795
1.00095
1.00255
1.00104
0.993926
0.988736
0.987798
0.988902
0.990702
0.99364
1.00299
1.01328
1.0181
1.0208
1.02317
1.02503
1.02437
1.01757
1.01098
1.00884
1.00957
1.01171
1.01779
1.02894
1.03716
1.04149
1.04399
1.0455
1.04612
1.04264
1.03359
1.02614
1.02333
1.02323
1.02863
1.03906
1.05376
1.2339
1.67477
0.90014
0.899187
0.899715
0.900756
0.901888
0.904445
0.911231
0.916122
0.918148
0.919296
0.920331
0.921248
0.920044
0.916896
0.916299
0.917015
0.918033
0.91917
0.922462
0.930469
0.935446
0.937503
0.938718
0.939837
0.94056
0.937656
0.933841
0.933276
0.934132
0.935295
0.936615
0.940864
0.950043
0.955433
0.957606
0.959039
0.960362
0.961198
0.957314
0.952266
0.951188
0.951579
0.95251
0.953988
0.958265
0.968733
0.975815
0.978543
0.979927
0.981184
0.982562
0.979789
0.973072
0.970379
0.970258
0.970759
0.972154
0.975443
0.986093
0.995861
0.999813
1.00162
1.00293
1.00454
1.00389
0.997243
0.99187
0.990634
0.990882
0.992055
0.995098
1.00542
1.01621
1.02121
1.02347
1.02524
1.02693
1.02682
1.02035
1.01323
1.01067
1.01085
1.01238
1.01803
1.02967
1.03853
1.04288
1.04501
1.04624
1.04681
1.04382
1.03489
1.02601
1.02173
1.02146
1.02721
1.04531
1.24087
1.67616
0.903273
0.901383
0.901312
0.902186
0.903225
0.904423
0.908643
0.915814
0.919356
0.920991
0.922079
0.923108
0.923601
0.920834
0.918274
0.918285
0.919144
0.920254
0.921687
0.926768
0.93488
0.938765
0.940508
0.941597
0.942749
0.942694
0.938338
0.93543
0.93553
0.936451
0.937525
0.938935
0.944382
0.953632
0.95829
0.960424
0.962096
0.963521
0.963698
0.958554
0.953533
0.952762
0.953772
0.955051
0.956451
0.960964
0.971478
0.977906
0.980594
0.982716
0.984436
0.985476
0.981984
0.974848
0.971674
0.971895
0.973198
0.974797
0.97789
0.987946
0.997128
1.00108
1.00363
1.00579
1.00741
1.0066
0.999819
0.993581
0.991813
0.992642
0.994471
0.997773
1.00768
1.01766
1.0224
1.02522
1.02766
1.02938
1.02902
1.02221
1.01449
1.01135
1.01152
1.01317
1.01864
1.03023
1.03931
1.0436
1.04557
1.04683
1.04744
1.04489
1.03608
1.02546
1.01965
1.01845
1.03356
1.24288
1.6763
0.906547
0.904743
0.903174
0.903522
0.904332
0.905369
0.907157
0.913368
0.919821
0.922439
0.923735
0.92477
0.92579
0.925269
0.921505
0.919917
0.920435
0.921483
0.922567
0.924284
0.93096
0.938606
0.941791
0.943445
0.944616
0.945733
0.944437
0.93949
0.93729
0.937483
0.938283
0.939444
0.94127
0.948093
0.957181
0.961352
0.963194
0.964417
0.965798
0.965979
0.96064
0.956143
0.955458
0.955819
0.956778
0.958386
0.96379
0.974818
0.981338
0.983765
0.985042
0.986323
0.987693
0.984852
0.977876
0.974799
0.974539
0.974931
0.976213
0.979487
0.990239
1.00029
1.0044
1.00622
1.0075
1.00917
1.00931
1.00314
0.996664
0.99464
0.994682
0.995718
0.998815
1.00922
1.02013
1.02536
1.02758
1.02909
1.03073
1.03107
1.02489
1.01667
1.01292
1.01254
1.01364
1.01848
1.03041
1.04001
1.04422
1.04592
1.04713
1.04769
1.04569
1.03687
1.02461
1.01678
1.02014
1.2381
1.67484
0.908941
0.908781
0.90553
0.904867
0.905589
0.906631
0.907726
0.91048
0.917957
0.923118
0.925212
0.926402
0.927502
0.928438
0.926471
0.922717
0.921985
0.922569
0.923462
0.924585
0.927092
0.935216
0.942104
0.944903
0.946542
0.947714
0.948624
0.945916
0.940508
0.93881
0.93946
0.940599
0.941709
0.9436
0.951238
0.96003
0.963793
0.965816
0.967529
0.968929
0.968311
0.962181
0.957434
0.95692
0.957987
0.959335
0.960838
0.96607
0.97673
0.982776
0.985435
0.987647
0.989382
0.99048
0.98739
0.980082
0.97611
0.975879
0.977069
0.97873
0.981873
0.99187
1.00124
1.00536
1.00803
1.01025
1.01189
1.01177
1.0054
0.997925
0.995082
0.995435
0.996993
1.00042
1.01063
1.02102
1.02596
1.02882
1.03128
1.03304
1.03319
1.02683
1.01796
1.01347
1.01288
1.01402
1.01871
1.03045
1.04005
1.04406
1.04581
1.04732
1.04793
1.04608
1.03678
1.02143
1.01378
1.22664
1.67268
0.910754
0.911995
0.909375
0.906914
0.906996
0.907796
0.908751
0.909902
0.914084
0.922172
0.926362
0.928165
0.92931
0.930382
0.93076
0.927175
0.92382
0.923631
0.924543
0.925667
0.926875
0.930328
0.939209
0.945175
0.947562
0.949108
0.9503
0.951051
0.947718
0.942601
0.941269
0.941607
0.942377
0.943595
0.946089
0.9547
0.963342
0.966922
0.968541
0.969571
0.970962
0.970706
0.964824
0.960415
0.959729
0.960004
0.96084
0.962413
0.968252
0.979572
0.986108
0.988547
0.989804
0.99104
0.992491
0.990485
0.98332
0.979236
0.978624
0.978943
0.980059
0.98307
0.993532
1.00406
1.00862
1.01058
1.01178
1.01322
1.01369
1.00803
1.00038
0.997412
0.997341
0.998435
1.00129
1.01123
1.023
1.02897
1.03131
1.03279
1.03425
1.03476
1.0294
1.02016
1.01479
1.01367
1.01443
1.01836
1.02995
1.0398
1.04384
1.04573
1.04742
1.04782
1.04586
1.0332
1.01716
1.2128
1.67127
0.912536
0.914036
0.91366
0.910155
0.908481
0.908793
0.90966
0.910723
0.912393
0.918446
0.926215
0.929551
0.931051
0.932027
0.933054
0.932441
0.92781
0.92551
0.925864
0.926809
0.927825
0.929042
0.933379
0.942651
0.948017
0.950276
0.951872
0.953204
0.95367
0.949267
0.943834
0.942677
0.943535
0.944801
0.945988
0.948446
0.957277
0.965488
0.96879
0.970831
0.972559
0.973945
0.973222
0.966969
0.961829
0.960914
0.961849
0.963207
0.964803
0.97015
0.980933
0.987163
0.989909
0.992149
0.993906
0.995153
0.993205
0.985984
0.980796
0.979756
0.980731
0.982355
0.98532
0.994974
1.0049
1.00933
1.01185
1.01409
1.01581
1.01634
1.01104
1.00302
0.999121
0.998751
0.999873
1.00262
1.01181
1.02333
1.02916
1.03197
1.03435
1.03625
1.03684
1.03155
1.02155
1.01522
1.01367
1.01445
1.01814
1.02928
1.03897
1.04311
1.04545
1.04725
1.04781
1.04274
1.02988
1.20312
1.67104
0.914272
0.915606
0.916395
0.914561
0.910829
0.910088
0.910847
0.911924
0.913046
0.915264
0.922614
0.929551
0.932342
0.9338
0.934842
0.935774
0.9338
0.928984
0.92737
0.927712
0.928567
0.92974
0.931284
0.936677
0.945932
0.950727
0.952691
0.953943
0.955091
0.955693
0.951388
0.94642
0.945405
0.945734
0.946487
0.947792
0.950733
0.960141
0.968544
0.971905
0.97342
0.974424
0.975848
0.975816
0.970013
0.964835
0.963723
0.963854
0.964541
0.966095
0.971761
0.983314
0.990351
0.992956
0.994246
0.995417
0.996947
0.996218
0.989403
0.983842
0.982506
0.982647
0.98355
0.986112
0.995964
1.00721
1.01253
1.01474
1.01636
1.01801
1.01886
1.01397
1.00534
1.00084
1.0002
1.00088
1.00281
1.01121
1.02413
1.03153
1.03434
1.03593
1.03728
1.03782
1.03354
1.02336
1.01605
1.01409
1.01457
1.01759
1.02805
1.03778
1.04247
1.04525
1.04721
1.04636
1.04171
1.20128
1.67223
0.915551
0.917022
0.917973
0.918362
0.915088
0.912231
0.912302
0.913147
0.914132
0.915241
0.918067
0.926338
0.93269
0.935247
0.93666
0.937662
0.938343
0.935049
0.930054
0.928934
0.929769
0.93099
0.932061
0.933486
0.93941
0.948607
0.952983
0.95495
0.956544
0.957947
0.958158
0.953163
0.947827
0.946738
0.947625
0.948877
0.950095
0.952781
0.962006
0.970108
0.973405
0.975535
0.977266
0.978617
0.978399
0.972553
0.96651
0.964783
0.965472
0.966847
0.968511
0.973482
0.984267
0.991036
0.994021
0.996328
0.998147
0.999548
0.998846
0.992259
0.985677
0.983512
0.984063
0.985545
0.988163
0.997028
1.00814
1.01364
1.01623
1.01809
1.01972
1.0206
1.01647
1.00756
1.00217
1.00105
1.00208
1.00418
1.01162
1.02395
1.03135
1.0345
1.03672
1.03855
1.03936
1.03541
1.0248
1.01659
1.0141
1.01438
1.01688
1.02648
1.03628
1.04163
1.0452
1.04606
1.04954
1.20621
1.67467
0.916509
0.918616
0.91951
0.920496
0.919923
0.915853
0.913913
0.914244
0.915192
0.916246
0.917475
0.921061
0.929717
0.935416
0.93773
0.9392
0.94031
0.940702
0.936806
0.932384
0.931573
0.931984
0.932729
0.933844
0.935673
0.94245
0.951515
0.955703
0.957492
0.958551
0.959775
0.96035
0.955815
0.950729
0.949582
0.949736
0.950326
0.95161
0.954647
0.96447
0.973114
0.976493
0.977948
0.978888
0.980267
0.98088
0.975894
0.969667
0.967771
0.967776
0.968282
0.969675
0.974495
0.985985
0.993991
0.997026
0.998456
0.999589
1.00117
1.00151
0.995728
0.988653
0.986179
0.985969
0.986599
0.988538
0.997168
1.00928
1.01559
1.01805
1.01969
1.02149
1.02287
1.01971
1.01079
1.00471
1.00302
1.00317
1.00442
1.01046
1.02349
1.03266
1.03648
1.03827
1.03943
1.03992
1.0369
1.02664
1.01747
1.01418
1.014
1.01559
1.02453
1.03478
1.04152
1.04408
1.05299
1.21604
1.67778
0.9161
0.920038
0.921062
0.922057
0.923007
0.921374
0.917096
0.915896
0.916465
0.91742
0.918376
0.919536
0.923594
0.932632
0.938063
0.94034
0.941862
0.943097
0.94333
0.938733
0.933838
0.932965
0.933836
0.93502
0.936087
0.937733
0.944707
0.953586
0.957515
0.959538
0.961288
0.962737
0.962982
0.958033
0.952217
0.950645
0.951369
0.952629
0.953968
0.956698
0.965981
0.9742
0.97758
0.979723
0.981532
0.982991
0.983446
0.978801
0.971879
0.96893
0.96913
0.970367
0.971979
0.976171
0.986689
0.994417
0.99783
1.00032
1.00228
1.00377
1.00402
0.998525
0.990688
0.98706
0.9869
0.988163
0.990297
0.997825
1.00998
1.01732
1.0205
1.02227
1.02394
1.02511
1.02224
1.01319
1.00582
1.00337
1.00381
1.00541
1.0107
1.02288
1.03228
1.03649
1.03871
1.0401
1.04073
1.03823
1.02817
1.01806
1.01377
1.01302
1.01409
1.02268
1.03389
1.03989
1.05359
1.22759
1.68105
0.912643
0.920458
0.922659
0.924057
0.925086
0.92578
0.922666
0.918588
0.917805
0.918255
0.919082
0.920196
0.921652
0.926398
0.935444
0.940518
0.942592
0.943978
0.945144
0.945439
0.941146
0.93657
0.935666
0.935959
0.936604
0.937707
0.939733
0.947224
0.956335
0.96046
0.962202
0.96322
0.964456
0.9652
0.96102
0.955296
0.953643
0.95373
0.954176
0.955312
0.958086
0.96767
0.976782
0.980537
0.982123
0.983114
0.984512
0.985701
0.982327
0.975201
0.971978
0.971636
0.971937
0.973057
0.976771
0.987809
0.997153
1.00093
1.0026
1.00369
1.00521
1.00626
1.00202
0.993723
0.989615
0.988899
0.989347
0.990836
0.997423
1.01019
1.0185
1.02188
1.02358
1.02484
1.02619
1.02501
1.01662
1.00836
1.00531
1.00497
1.00569
1.00947
1.02156
1.03256
1.03773
1.03973
1.04047
1.04073
1.0389
1.02994
1.01913
1.01347
1.01168
1.01214
1.02135
1.03178
1.05017
1.23905
1.68382
0.908095
0.918047
0.923528
0.9258
0.927034
0.928027
0.9281
0.923762
0.919799
0.919375
0.920261
0.92135
0.922318
0.923581
0.928719
0.937999
0.942856
0.944933
0.946487
0.947816
0.948031
0.94326
0.938006
0.936856
0.937644
0.938814
0.939909
0.941659
0.948946
0.957931
0.961927
0.964047
0.965872
0.967326
0.967905
0.963812
0.957383
0.954749
0.955036
0.956143
0.957464
0.959812
0.968463
0.977373
0.981307
0.983697
0.985725
0.987264
0.988223
0.985233
0.977792
0.973281
0.972685
0.973709
0.975259
0.978607
0.98841
0.997339
1.00142
1.00412
1.00633
1.00791
1.00874
1.00472
0.996025
0.990763
0.989617
0.990441
0.992017
0.997345
1.00944
1.01839
1.02227
1.02486
1.02693
1.02817
1.02704
1.01874
1.00957
1.00551
1.0051
1.00617
1.00964
1.0209
1.03221
1.0376
1.03958
1.04042
1.04093
1.03972
1.0317
1.02015
1.01258
1.00961
1.01027
1.01924
1.0421
1.24775
1.68541
0.90709
0.912575
0.921464
0.926393
0.928452
0.929745
0.93073
0.930213
0.925336
0.921971
0.921681
0.922096
0.922882
0.924033
0.925736
0.931638
0.940771
0.945412
0.947355
0.948521
0.949552
0.950106
0.945957
0.940864
0.9396
0.939736
0.940247
0.94137
0.943384
0.95097
0.96048
0.964918
0.966729
0.967774
0.969016
0.97013
0.967265
0.960709
0.957706
0.957348
0.957529