/*--------------------------------*- C++ -*----------------------------------*\
  =========                 |
  \\      /  F ield         | OpenFOAM: The Open Source CFD Toolbox
   \\    /   O peration     | Website:  https://openfoam.org
    \\  /    A nd           | Version:  12
     \\/     M anipulation  |
\*---------------------------------------------------------------------------*/
FoamFile
{
    format      ascii;
    class       volScalarField;
    location    "9.26";
    object      p;
}
// * * * * * * * * * * * * * * * * * * * * * * * * * * * * * * * * * * * * * //

dimensions      [1 -1 -2 0 0 0 0];

internalField   nonuniform List<scalar> 
22702
(
1
1
0.85662
1
1.05574
1
1.47333
1
1
0.669135
1.47032
1.47396
1
1.47106
0.874455
1
1
1
1.47046
1
1.47164
1
1.47097
0.675237
1.47647
0.670653
1
1.47455
0.630862
0.674061
1
1.4741
1
1
1
1.43477
1.47245
1.47092
1
1
0.687902
1
1.23181
1
1.47384
1
1
1
1
0.661957
1
0.662357
1
1.46974
1
1.47261
1
1
1
1
0.66172
1
1
0.605108
1
0.662278
1
1
1
0.680614
1
1.4727
1.28343
1
1.4715
1.49422
0.665561
1.47327
0.655672
1
1.46924
0.661548
1.47088
1.47005
1
1
1
1
0.920305
0.676549
1.47018
1
1
0.628932
1
1.47299
0.630442
1
1
1
1
1.23067
1.46963
0.669991
1
1
1.11058
1
0.661479
1
1.47444
1.47258
1
1
0.65205
0.65306
0.667007
1
1
1
1
1
0.90221
1
1.40028
1.046
1.47131
1
1.47085
1.47112
1.47129
1.47425
1
0.687974
1
0.63167
1
1
1
1
1.47168
1
1
1
1
1.46928
1
1.02454
1
1
1
1
0.663581
1
1.01024
1
0.654972
1
1
1
1.46973
1
1.47193
0.647302
0.673347
1.47352
1.47433
1
1.07995
1.26284
1
1.46836
0.655536
1.43561
1
1
1
1
1.47136
1.38193
1
1.47095
0.603623
1.47012
1
0.643369
1
0.66165
0.669503
0.999802
1
1
1.47325
1
1
1.47124
1
1.47293
1.47154
0.660258
1
1
0.656322
1.4715
1
1
1
1.47128
1
0.653939
1
1
1.47195
1.47205
1.474
1
1.00004
1
1
1
1.47205
1
0.647932
1.48957
1.47114
1.46955
1
1
1
0.644351
1.47139
1.22093
1
1.47364
0.654627
0.650889
1.47358
1.47106
1
1.46987
0.647656
1.41474
1
1
1
1
1.47175
1
1.27271
1.04307
1
1
1.47175
0.635785
0.777287
1
1.46836
0.657843
1.47497
1
1
1
1
1
1
1
0.659712
0.768689
0.655711
1.47127
1
1
1
1
1.41727
1
0.656475
1
0.637387
0.656674
1.46964
0.6573
1.47162
1
1
1
0.997694
0.644111
0.646471
0.999999
1
0.632924
1
1.47136
0.669747
1
1
1.47091
0.64249
1
1.47478
0.669355
1.47176
1
0.643284
0.997697
1
1
1
0.65784
1
1
0.999999
1.00002
1.00337
1.28461
1
0.678131
1
1
1
1
1
1
1
1.47361
1
1.47476
1
1
1
0.667307
1
1.47014
0.652899
1
1.37408
1
1
1.47153
1
1
1
1.45988
1
1
1.46448
1.47062
1
1.0983
1
1
0.628813
1
1
1
0.628991
1
1
1
1
0.659749
1
1
1
1
1
0.663463
1.00007
1.47287
1
1
1.47407
1.47407
1
1
0.67143
0.825755
1.47178
1
1
1
1.47117
0.681086
1
1.47184
1
1
0.724448
0.711533
1
0.645952
0.662073
1
1
1
1
1
1
1
1.4709
1.10943
1.45751
0.661659
0.90536
1.47159
1
1.46987
1.47398
0.65733
0.794558
1
0.654782
1
1.48895
1
1
1
1
1.47172
1
1
1
1
1
1
1
1.167
1.4694
1
1.4711
1
1
0.660187
1
1
1
1
1.47142
1.35498
1
1
0.64604
1.47103
1.47219
1
1.47217
1.47138
1.4715
1
0.848664
1
1.47094
0.997446
1.47154
1
0.655764
0.998857
1.47019
1
1
1
1
0.660069
1.46975
1.42592
1
1.47555
1.47076
1.4699
1
1.22448
1.47202
1
1
1.32387
1.06688
1.47142
0.931828
1.47166
1
1.47194
1.47223
1.47223
1.47149
1
1.44687
0.907355
0.878154
1
0.999999
1
1
1.47869
1
1
1
1
1
1.47063
1
1
0.996301
1.47213
1.40445
1
1.38796
1.00004
1
1
1.47233
1
0.996832
1.00371
1
1.47298
1
1.47258
1
1
1.34404
1
1.47287
1.00002
1
1.46994
1
1.47167
1
1
1
1.47167
1
1.47832
1.00001
1.47171
1.47093
1.47083
1.47019
1
1.46996
1.46203
1
0.668801
1.44148
1.33348
1
1.47172
1
0.630533
0.664886
1
1
1
1
1
0.638489
1
1.47136
1.11482
1.47158
1
1
1
1
1
1.47234
1
1.47093
1.2722
0.797014
1
1.00001
1.1342
1.11219
1
1
1.17024
1
0.656926
1.47111
1.47146
1
1
1
1.47093
1
1.00003
1.46838
1.47006
0.953457
1
1
0.658618
1.42736
1
1
1
1
1
1.47209
1.46971
1
1.46953
1.47753
1.471
1
1
1
1
0.670957
1.47417
1
1
1.42842
1.46959
1
1.44299
1.46942
1
1
1
1
1
1.47261
1
1
1
1
1.48049
1
1.46074
0.66357
1
0.64881
1
1
1
0.996927
0.660019
0.998979
1
1
1
1.06048
1
1
0.870487
1
1
1
1
1
1
1
0.999997
0.924384
0.999999
1
0.997622
1
0.657904
1
1
1
1
1.34571
1
1
1
1
0.65107
1
1
1.4434
1.47404
0.999999
1
1
0.884155
1
1
1
1
1
1
0.951537
1.00479
1.472
1
1
1
1.47261
0.885481
1
1
1
1.4716
1.47239
1
1.00001
1
1
1
1
1
1
1
0.662787
1
1
1.46994
0.655061
1
1.47003
1
0.661303
1
1
0.660071
1
1
1
1
1
1
1
1.46133
1.46974
1
1
1
1
1.42915
1
1.14566
0.652834
1
1
1
1
1
1
1
1.03882
1
1
1.24296
1
1
1
1.38379
1
1
1
1
0.660202
1
1
0.639021
0.657379
1
1
1.47036
1
0.990084
1
1
1
1.32724
0.662654
1
0.658264
1
0.785963
1
1
1
1.47213
1
1
1.47134
1
1
1
1.4715
1
1
1.47294
1
1
0.657988
1
1.14482
1
1
1.47187
1.47149
1.31057
1.42081
1
0.656173
1
1
1.4504
1
0.661167
1
1
1
1.47149
1
1
1
1
1.27341
1
1.43096
1.47111
0.653425
1
1
0.665499
0.666661
1
1
1
1.33293
1.3539
1
1
1
1
1
1
1
1.18747
1.47004
1.00773
1
1.46576
0.683837
1
1
1
1.25522
1
1.08999
1
1.42959
1.46997
1
0.656462
1
1.47033
1
1
1.47158
1.4412
1
1.47386
1
0.628291
1
1
1
1.47513
1.46121
1.41204
1
1.47287
1.47082
1
1.47225
1
1.47003
1
0.659467
0.970537
0.665658
1
1
1
1
1
1.47175
1
1.47183
1
1
1
1.44718
1
0.662782
1.47119
1
0.65995
0.678391
0.66365
1
1.22951
1.03321
1.47321
1.47083
1
0.999999
1
1
1.47148
1
1
1.47175
1.47108
1
1.15753
0.999785
1
0.996759
1.4696
0.853582
1
0.820883
0.652589
0.661463
0.912677
1.47356
1.46529
1.08271
1.47156
1.47091
1
1
1.47048
1.47244
1.47105
1.47089
1
1.47232
0.666375
1.46941
1.47017
1.47382
1.47334
0.871029
0.897278
0.923342
1.47234
0.951872
1.47253
1
1
1.4739
1.4716
1
0.654474
1.47355
1.4716
1
1.47119
1.4712
1
1.47077
0.654264
1.47357
1.47014
1.47391
1.47053
1
1
1
1.47181
1.30277
0.68602
1.47147
0.647779
1.47145
1
1
1
1
1.46915
1.47206
1
1
1.47223
0.655429
1.47104
0.658083
1
1.46807
1
0.67341
1.4721
0.748092
1
1.47106
1.47481
1.47106
1
1
1.23735
1.47444
0.658527
1.4715
1
1.47123
0.875092
1.47107
0.662716
1
1.47099
0.681519
1.47402
0.655721
1
1.47109
1
1.47
1
1.26678
1.45305
1.36742
0.635775
1
1.47064
1
1.47186
1
1.47179
1
1
1.47111
0.986266
1.47477
0.664317
1.42273
1
1.33049
1
1.47169
1.47156
1.4716
1
1.4218
1.47138
1.43513
1.2784
1.47115
1
1.30894
1
1.46993
1
1.06173
1
1.43631
1
1.47125
1.44922
1.4476
1
1.46407
0.667361
1
0.660213
1
1
1
1.47448
1
1.47209
1
1
1
1.47302
1.45261
1.38957
1.46924
1.47051
0.651509
1.48052
1.47199
1
1.40163
1.47132
1.46063
1
1.46839
1.47301
1
1.47572
1.47187
1.47086
1.47198
1
1
1
1.47123
0.656142
1
1.47168
1
1
0.659171
1
1
1.47159
1.47222
1
1.47147
1.46381
1.47039
0.977096
1.47143
1
1.47134
1.47139
1.37596
1
1
1
1.47032
1.47163
1.47169
0.944842
1
1.48277
1.47145
1.47065
1
1.47136
1.4702
1.47119
1.48215
1
1.47073
1.47731
1.41202
1.47109
1.47953
1
1.46532
1.46591
1.47165
1.4701
1.47095
0.669817
1.47182
1.47412
1
1.47142
1.47138
1.47125
1.47148
1
1.47134
1.47156
1
1.47247
1.39417
1
1
1
1.47387
1.46544
1
1
1.25176
1
1.47157
1
1
1.47133
1.47367
1.47135
1.47081
1
1
1
1.33086
1
1.47101
1
1
1.47053
1.47039
1
1.47155
0.659825
1.47037
1.474
0.710937
1
0.651008
1.41214
1.47583
1.47055
1.47081
0.639132
1.47106
1.47311
0.641695
0.638591
1
1.47021
1.47005
1
1
1.47149
1
1.47654
1
1.4103
1
1.21348
1.46964
1.47365
1.32647
1.43396
1.47378
1.47354
1.43633
1
0.676119
1.46811
1.47227
1.47811
1.00001
1
1
1.47465
1
1.47178
1.47097
0.758433
1
1.47098
0.999934
1
1.00003
1.00004
1.47179
1.46915
0.998477
1
1
1.47192
1.4745
1.47177
1.47605
1.47106
0.660421
1.41477
1
1.46747
1.47182
1.47129
1.47143
1
1.47147
1.45847
1.47319
1
1.47198
1.46977
0.859495
1.47127
1.47203
1
1.47102
0.843335
1.47081
0.856982
1.47205
1
1.47157
1.47807
1.47156
1.47186
1.47155
1.47372
1.47237
1.47129
1
0.928026
1.47068
1.47134
0.854011
1.47123
0.98013
1.28628
1.47065
1.47234
1.4713
1
1.47511
1.30603
1.47036
0.923001
1.47392
1.4796
1
0.872445
1
1.47894
1
1.31974
1
1.43891
0.871554
1
1.47636
1.46524
1
1.47037
1.47348
1.46759
1.47366
1.47826
1
1.47184
1
1
1
0.896485
1.47151
1.47322
1.47831
1.47146
1.46659
1.4783
1.46471
1.47212
0.889666
1.03249
1
1
1.48029
1.4718
1.4708
1.47157
1.00003
1.2398
1
1.47591
1.40516
1
1
0.742639
1.47148
1
1
0.665504
1.47111
1
1.47071
1.47109
1.47339
1.45314
1.47147
1
0.647719
1.11141
1.47114
1.47152
1
1.47155
1.47156
1.23236
1.00992
1.09888
1
1.46991
1.47281
1
1
0.63312
1
1
1.47149
1.47172
1.47315
1.47176
1.47162
1.47249
1.47167
1.47338
1.47107
1
0.996023
1.47071
1.47129
0.996494
1.47167
1.4714
0.641157
0.656763
1.47344
1.46853
1
1
1.00114
1.47082
1.47171
1.47147
1
1.47161
1
0.855667
1.47867
1.47279
1
1.19901
1.47187
1
1.46955
1
1.47069
1.29722
1.47373
1
1.46951
1.47929
0.634922
1.47169
1
1.47078
1.46997
1
0.650598
1.47454
1.38988
0.997682
1.45419
1.47135
1
0.998112
1.46541
0.997761
1.47173
1
1
1.46789
1
1.47028
1.47145
0.996415
1.37085
1
1.47133
1
1
1
1
1.47172
1
1
1.48011
1
1.47156
1
1.29989
1.47278
1.47297
1
1
0.998225
1
1.47294
1.47154
1.47146
1.47139
1.47024
1.47083
1.47128
1
1.47108
1.47192
1
1.47102
1.47101
1
1.47266
0.919148
1.05967
1.47123
1.47104
1.47115
1
1.47144
1
1.47166
1.47112
1
1.47212
1
1
1
1
1.47087
0.642254
0.997875
1
1.47096
1.4795
1
1.47074
1
1.00507
0.661469
1.47161
0.999615
1
1.47202
0.998391
1.47137
1
0.999765
1
1.47237
1.4744
1.47078
1.47074
0.6582
1.46933
1.47324
1.47168
1.1104
1
1
1.19315
1.47169
0.640898
0.662026
1
1.47136
1.47176
1.46997
1
1
1.47354
1.47077
0.999889
1
1.34908
0.659645
1
1.08109
1.47047
1.46296
0.998234
1.47174
1.484
1
0.998957
1
1.47396
1.46979
1.1872
1
1.44089
1
1.00178
1.47261
0.681359
1.47062
1.47182
0.996992
0.999917
1.41155
1
0.999697
1
1.47279
1
1.00001
0.658252
1.47135
1.00001
1
1
1
1.47367
1.25934
1
1
0.660831
1.4715
1.26028
1
1
1
1.44789
1.44923
1.47665
1
1
1.48101
1
1.47081
1.47091
1
1
1.47375
1.47135
1.45244
1
1
1.474
1.47356
1
1
1
1.47424
1
1
1
1.47357
1.47382
1.47502
1
1.47398
1.00003
0.717217
1.4711
1.47099
1
1.47324
1.44343
1.47361
1
1
1.47671
1
1.25916
1.46903
1
0.635487
1
1.47338
1
1
1.47625
1
1
1
1.14548
1.46961
0.698856
1.00001
1.47276
1
1
1.47156
1
1.47646
1
1
1.47135
1.47181
1
1.00005
1
1
1
1
1
1
1.46628
1.47167
1
1.47048
0.650082
1.46856
1
1.47042
1.48081
1.47129
1.47987
1.47246
1
1
1.47576
1
1.28298
1.47426
1.47131
1
1.4715
1.47141
1
1.41664
1
1.47017
1.30407
1.47562
0.997544
1.46337
1.42461
1.4686
1.47177
1.03793
1.47153
1.47416
1
1.47079
1
1.47032
1
1
1
1
0.995401
1.47179
1.47019
1.37836
1
1.4743
1
1
1
0.649735
1
1.46357
1
1.42662
1.46342
1
1
1
1.43682
1.4704
1
1
1.47027
0.661853
1.07199
1
1.47611
1.4715
1.42881
1.46053
1.47136
1
1.46987
1
1
1
1
1.47058
1.4715
1
1.46325
1.05629
1.47186
1.43756
1
1
1.43907
1
1
0.629397
1.3259
1
1
1.47978
1
1.47451
1.43373
1
1.43177
0.657912
1.47159
1.47101
1.47205
1
0.648054
1
1
1
1.47111
1.37829
1
1.47965
1.47097
1
1.47152
1
1
1
1
1.47192
0.999315
1
1.47354
1
1
1.47669
1.47152
1
1.47232
1.08666
1.00002
1
1.47118
1
1.47119
1
1.013
1.47162
1
1.47153
1
1
1.14322
1.47231
1
1
1
1
1
0.996365
0.662399
0.660862
1.02004
1
1.02313
1
1.02157
1
1.47128
1
1.29267
1
1.47145
1
1
1
1.47158
1
1.36227
1.46993
1
1.24582
1.47144
1
1
1.47468
1.47126
1
1
1.05137
0.634359
1
1.47436
1
1
1
1
1.07768
1.47232
1
1
1
0.62696
1
1.47144
1.47237
1.47673
1
1
1
1
1.22868
1.47688
1
1
1
1.47078
1.47129
1.05478
1
1
1
1.47249
1.47124
1
0.636433
1.47132
1.47167
1.47291
1.4681
1.47528
1
1
1.47727
1.47048
1.47188
0.617719
1.03988
1.47171
1
1
1
1
1
1.47185
0.660609
1
1
1.4716
1.20885
1
1.47231
1
1
1
0.650409
1
1
1.11418
1.47186
1.47094
1
1.47569
1.47794
1
1.07222
1
1.46893
1
1.47045
0.663951
1
1
1
1
1.47166
1.00007
1
1
1
1.45284
1
1
1
1
1.47103
0.650857
1.37403
1.4739
1
1.47185
1
1
1
0.997073
1
1.47796
1
0.810129
1
1
1.00003
1.47105
0.656813
1
1.46788
1
1.46955
1.47171
0.647965
1
1
1.45702
1
1
0.63427
1
1.46558
1
1.44943
0.999302
1.47251
1
1
1
1
1.46848
1
1
1.4712
1
1
1
1
1
1
1
1
1.30667
1
1.14857
1.47047
1
1
1
0.658368
1
1
1
1
1.47141
1.47096
1.05547
1
1
1.47274
1
1
1.47167
1
1.00002
1
1
1
1.00001
1.47203
0.784368
1.47119
1.47354
0.9972
1
1
1
1.27429
1
1
1.47256
1.4715
1
1
1
1
0.680398
1
1
1
1.29209
1
1.47137
1.47531
1
1.47329
1
1
1
1.24686
1
1.47368
1
1.47131
1
1
0.996228
1.47136
1
1
1
1
1
1.47253
1.00002
1
0.620471
1.46981
0.60727
1
1.46985
1
0.995991
1
1.47282
1.47554
1
1.46396
0.891302
1.47123
1.47938
1.00003
1
1
0.651684
1
1
1
1.47181
1.26525
1.47018
1
1
1
1
0.996787
1.47333
1
0.655538
1
1
1
1
1
1
1
1.4768
1.4728
1.47286
1
1
0.9969
1
0.97818
1
1
1
0.668524
0.975748
1
0.6527
0.655271
1
1.47192
1.47086
1
1.47387
1.47141
0.649209
1.30641
1
1
1
0.657099
1.47358
1
0.649407
1
1.47864
1.07378
1
1
1
1
1.47143
1.47129
1
1
1.47128
1
1
1.47093
1.47183
1
1.42522
1.4708
1.46985
0.961406
1.46995
1.00852
0.652918
1.35744
1.47196
1
1
1
0.664347
1
0.66422
1.47874
0.958925
1.4711
0.952608
1
1.47249
1.21361
1
1
1.4752
1
1.18976
1.47047
1
1
1.46819
1.47105
0.656281
1.27153
0.999892
1
1.27835
1
1.47771
0.941617
1.47636
1.47797
1
1
1
1
1.4643
1
1
1.47205
0.999633
1.47177
1.3649
1.47152
0.656388
1
1
1
1
1.4732
1.00005
1.47144
1
1.47124
1.47354
1.05693
1.47172
1.14554
1.47232
1
1.31928
0.673006
1.47676
1.47089
1.37784
1.07276
1.47127
1.4713
1.47175
1.46902
1
0.908136
1.06778
1
1.4721
1.22596
1.47062
1.00003
1
1
0.684075
1.46968
1.47098
1.3763
1
1.16945
1
1.47836
1.4763
1
1.47314
1.47123
1
1
1
1.4734
1
1.18157
1.46914
1.32733
1
1.46986
1
1
1
1
1
1
1
1
1
1
0.684451
1
1.4504
0.67114
1.274
0.998529
1.47359
1
1.24651
1.00001
1.30049
1.39323
1
1.00242
1.47724
0.904099
1
1.47402
1.45654
0.944151
1
1.47384
1.4724
1.47364
1
1.47152
1.47298
1.47508
1
1.20791
1
1.00006
1.47278
1
1.47095
1.06587
1.47123
1
1
1.47414
1.47577
0.672561
1
1.47326
1.35299
1.47052
1
1
1.47031
1.47099
0.99825
1
1.41697
0.997073
1.47228
1.00005
1
1
1
1
1.21132
1
1.35829
1.47385
1.34949
1.47043
1
1.00325
1
1
1.46993
1
1.47536
1
1
1
1
0.999999
1
1.05785
1.24339
1
1
0.689267
1
1.46918
0.697749
1.47453
1
1.24041
0.999767
1.47075
1.29931
0.669869
1.25037
1.00003
1.47094
1.47087
1
1.28204
1.47131
1.47322
0.998401
1.47959
1.45816
0.65748
1
1
0.997776
1
1.46967
1
0.692283
1.46954
1
1
1.40874
1
1.47378
1
1.47371
1
0.674129
1
1
1.47068
1.47862
1.47667
1
1.47407
1.47181
1.47791
1
1
1.46554
0.999999
0.751743
1
1
1
1.47222
1
1.47077
1.29879
1.47319
1
1.47139
0.999392
1
1
1
1
1
1
0.710756
1
1
1.47095
1
1.47803
1.4676
1
0.666945
0.649121
1
1.47382
1.07304
0.656346
0.641198
1
1.47383
1
1.47158
0.654448
1.00131
1
1
0.999524
1
1
1
0.999907
1.18923
1.47131
1
1
1.47201
1.2735
1
1.42601
1.47326
1.47171
1.19017
1.47
1
1.47177
1
1.47037
1
1.47438
1.46976
0.996919
1.47041
1.46926
1
1
1
1
1
0.917332
1.47047
1.00004
1.00003
0.686893
0.999983
0.666914
0.64835
1
1.47075
1.47107
1.47125
1
1.47083
1
0.653799
1
1
1.47399
0.831949
1.47079
1
1.4706
1
0.978947
1.47212
1
1
1
1.46881
1
1.47123
0.653767
1
1
1.26644
1
1
1.24667
1
1
1.47158
1
1
1
1
1
1.47824
1.4717
1
1.47076
1.47359
0.6677
1.21477
1.47484
1
1
1.42387
0.998963
1
1
1.47181
1.471
1.31076
1
1.47112
0.673562
1.43818
0.999625
1
1.47314
1.00003
1.47325
1.38376
1.35491
1
1
1.47168
0.721226
0.694833
1
1.47176
1
1.47302
1
1.27851
1
1
1.4703
1.29403
0.64936
1
0.998562
1
1
1.02676
1.19122
1.47165
1
1.47677
1
1
1
1
1
1
1.0679
0.651196
1
1
1.03897
1
1
1
1
1
1.47316
1
1
1.47057
1.47081
1.34234
1
1
1
0.830012
1.47224
1.32688
1
1
1
1
1.47308
1
1
1
1.47167
1
1
1.33578
1.48902
1.03925
0.755127
1.47196
1.33138
1.47035
1
1.22951
1
1
1
0.662846
1.002
0.699774
1
0.678141
0.652101
1
0.657931
1
1
1
1.20275
1
1.47142
1.47386
1.00134
1.21303
1.39336
0.68418
0.764737
0.884802
1
1.4716
1.47069
1.4714
1.47171
1.40201
0.876827
1
1.40399
1
1.44673
1
1
0.996442
1.00997
1
1
1
1.4707
1
0.684491
1
1.47348
0.646911
1
1
1.47156
1
1.47121
0.9999
1
1
1.47232
1.41921
1
1.48257
1
1
1.01527
1
1.20385
1
1
0.664466
1
1
1.47422
1
1.46988
1
1.00003
0.669373
1
1
0.646794
1.00089
1
1.47037
0.651934
1.47717
0.667501
1.47361
1
1
1
1
1
1
1
1
1
1
1
1.45114
1
1.47329
1.47273
0.65995
1
1
1
1
1
1
1.45758
1
1
0.654056
1
1
1.47079
1
1
1.17724
1.39151
0.653457
0.651091
0.71406
0.734556
1
0.996609
0.680953
1.00039
1.43404
0.996886
1
1
1.47071
1
1
1
0.770787
1.00001
1.16831
1
1
1.18849
1.47089
1
0.678397
1
1
1
0.996604
1.00001
1.4701
1.47166
1
0.6672
1
1.24918
0.659361
1
0.884905
1
0.99609
0.650322
1
1
1
0.995658
0.668936
1
0.67871
0.998426
1.24631
1.4189
0.668978
0.652182
1
0.990836
1
0.998656
1
1.47226
1.4706
1
1.0089
1.47145
1.4718
1
1
1.47139
1
1
1.00004
1
1.47748
1
1
1.01856
1
0.998562
0.714065
1
1
1
1
1
1.47022
1.03465
1.00005
1
1
1
1
1
1.00003
1
0.66824
1.09593
0.998569
1.46607
1.47319
1
1.01524
1.47116
1.40893
1
1
0.647069
1.47095
1
1.47233
1
1.46959
1.32004
0.664315
1
0.658966
1.44802
0.999679
1
0.650903
0.653379
1
1
1.39377
1
0.999998
0.656426
1
1
1
1.14661
1
0.662175
1.47077
1
1
1
1
1.47164
1
1
1.4675
1.42103
1
1
1
1.47503
0.659893
1
1.47056
1.47165
1
1.37354
0.999999
1.00003
1
1
1.43252
1.00863
1
0.677936
1.24369
1
1
0.997896
1
1
1.47747
1
1
1.00003
1
1.4716
1
1
1
1
1
1
1.00001
1.20305
1
1.47144
1
1
1.47351
1
1
1
1.47158
1.469
1.04268
1
0.997567
1
1
1
1
1.47289
1
1
1.47198
0.647165
1
1
1
1
1
1
1.37945
1
1
1.47518
1.47219
1
1
1
1.4711
1.46926
1
0.999642
1.47109
1
1
1
1.00002
0.681359
1.03186
0.996078
0.996205
1
1
0.671925
1.47327
1
0.663243
1
1.47246
1.45114
0.651186
0.999397
1.47155
1.47151
1.47108
1
1
0.921944
1.41854
1.39694
0.661811
1
1
1
1.47091
1.47158
0.650292
0.997244
1
1.47125
0.656504
1
1.46011
0.656156
0.967178
1.00677
1
1.46882
1
1
1
1
1
1
1.0001
1.43733
1
1
1.46852
1
1
1
1.47119
1
0.668162
1
1
1
1.15079
1
1
1
1
1
0.784241
1
0.641328
1
1.47225
1.00006
0.855672
0.858711
1.00002
1.00442
1.24413
1
1
0.663035
1.47152
1.4723
1.47104
1
0.640282
0.663968
1
1.47078
1
1
1
1
1
1.00003
1
0.663242
1.29538
1
1
0.654257
0.988958
1.00001
1
1
1
0.64468
1
0.691058
1
1
1.47923
1
1
0.656553
1
1.47163
1
0.680579
1
0.663819
1
1.00801
1.47026
1.48132
1
1
1.47166
1
1
1.10155
0.996995
1
0.998222
1
1.4731
1
0.694146
1.00002
1.4697
0.998793
1
1
0.795366
1
0.998995
0.652475
1.47356
1.16441
1
1.00001
0.902103
1
1
1
0.79505
1
1
1
1.47175
1
0.662952
0.999999
1
1
1
0.660546
1.47146
1.43235
0.656028
1
1.47583
1
1
1.47144
1.47075
1.39399
0.648993
0.997703
0.999261
1
1.47141
1
1
1
1
1.47318
1.00004
1
1
1.46886
1
1
1.4708
0.648801
1
1
1
0.665203
1
0.999999
0.999999
0.998692
1
1
1
1
1.37032
1
1.47189
1.47034
1.48112
1.47039
1.46972
1.47096
1
1.47308
1
1.47211
1.47145
1
0.998897
0.659477
1.40416
0.999915
1
1
1
1
0.996777
1
1.07117
1
1
1
0.81676
1.47099
1.47478
1.47615
1.39717
0.999873
1
1.02246
1.47037
0.997915
1.06065
0.997118
0.636366
1
1.00003
1
1
1
1
1
1.47139
0.663684
1.4711
1.47147
0.995634
0.657634
1
1
1
1.47116
0.647488
1.41311
0.659349
1.47139
1.4776
0.665942
1.46997
1.02349
1
1.47338
0.805438
1
0.998722
0.655932
1
0.642513
1
1.47106
1.47163
0.759355
1
1.47056
0.637771
1
0.663276
1
1.47091
1
1
1.46378
1
0.837664
1
0.999672
0.639355
1.46185
0.999474
1
0.673436
1
1
1
1
1.25019
1
1.47075
1
1
1.4845
1
1
1.47108
1
0.649434
1
0.654423
1.00001
1
1
1
1
1.45073
1.26961
1.47159
1
1.47122
1.43585
0.651451
0.67097
1
1
1.47056
1
0.653396
1
0.982823
1
1
1.47344
1
1.47687
0.66112
1.48448
1
0.670404
1
1
1.47679
1.46997
1
1.00004
1
1.46672
1
1
0.649509
0.999421
0.67225
1
1
1
1.47336
1.47364
1.47278
1
1
0.656764
1
1.47633
1
1
1
1.45021
1.47141
1.47031
0.645988
1.47415
1.47109
0.673796
1.47215
1.00004
0.663355
1.01556
1
1
1.4724
0.647615
1.29728
0.65105
1.47114
0.997347
0.643496
1.47246
1
1
1
1
1.47147
1.47118
0.665512
1
1.00002
0.650739
1.00004
1
0.681877
0.702443
1.32548
1.47281
0.998444
1.4708
1
1.4794
0.823881
0.652997
1.47159
1.48361
1
1.47151
1
1
1.47164
1
1.356
1.47311
1
1
1
1
1.47128
1.4659
1.47433
1
1
1.47465
1.47049
1.47288
1
1.47098
1
1
1
1
1
0.664078
0.855429
0.676698
1
1
1.47027
1
1
1.47247
0.640549
1
1.47106
1.46601
1.44974
0.64927
1
0.648255
1
1.00003
1.4716
1.21387
1.47048
1.42892
1
0.662601
1
1.46939
1.33003
0.655997
1
1
1
0.791875
1
1
1.47891
1
0.650493
1.47182
1
1
1
1
1
1.37764
1.10228
1
1.47016
1
1.471
1
0.996895
1
1.47181
1.477
1.47086
1.47343
0.999585
1.47109
1
1.47133
1.47458
1.39547
1
1
0.669006
1.47513
1
1
1.4746
1.47122
1.47486
1
1.47053
1
1
1.00003
1.47568
1.47447
1.12711
1.10267
1.47146
1.47074
0.689552
1
1
1
1
1.00001
1.16209
1
1
1.39861
0.665946
0.999974
1
1.47207
0.999891
0.999805
1.0684
1.44637
1.47416
0.909964
1
0.662287
1
0.997301
1.4708
1.47546
1.47156
0.998988
1
1
0.66329
1
1
1.47138
1.04768
1
1
1
1
1
1
1
0.99994
1.47029
1.00002
1
1
1
1
1.29845
1
1.2188
1
1
1.47146
1.47519
0.649036
0.998771
1
1
1
0.666314
1.47209
1.47173
1
1
1
1
1
1
1
1
1.47254
1.46599
0.667169
1.05292
0.664745
1
0.655139
1
1.47087
1.12241
1
1
0.726095
1
1.45244
0.799042
0.996949
0.647369
1
1
1.4708
1.00004
0.997374
0.648452
1.47228
1.4723
1
1
1
1
1.43867
1
1
1.47166
0.998947
1.47136
1.0001
1
1
0.64661
1
1
1.47016
0.646814
0.771657
0.668884
1.47238
0.999323
1
1.47674
0.6729
0.670199
1.01636
1
1
1.4727
1.00004
1.20103
1
1
1.47203
0.662443
1
1
1.00013
1.4704
1.00015
1.46153
1
1.00003
1
1
0.728975
1
0.767327
1.00002
1
1.4706
0.653815
1
0.778723
0.796797
1
1
1.47094
1
1
1
1.4714
1.4721
1.00005
1.46433
1.47229
0.786862
1.4714
1.44338
1
1
1.47734
0.999999
1
1
1
1
1.48045
1.47202
1
1
1
1.47049
1.00024
1
0.660435
0.720136
1
1.00003
1.16389
1
1
0.900976
0.653735
1
1
1
1.47559
1.43042
1.4717
1
1
1
1
0.661301
1
1.44792
1
1.46851
0.644369
1.47911
1
1
1
0.663143
1
1.47058
1.00003
1
0.655916
1.16236
1
0.999684
1.48618
0.647892
0.672324
1
1.47172
0.644664
0.656658
1
0.673046
1
1
1
1
0.649697
1
1
1
1
1.47024
1
1.35703
0.662699
1
1
1
0.652543
1.47188
1
1
0.996816
1.4577
1
1.47103
1.47211
1
1
0.734885
0.676046
1
1
0.654463
1.14727
1.21131
1
1
1.47747
0.997396
1
0.997937
1.47264
1
1
1
1
1
1
1.46957
1
1.16261
1.1517
0.711382
1.41287
1
1.47149
1.47208
1
1
1
0.911891
0.626939
1
1.2232
0.999656
1.42789
1
1
1
0.999999
1
1.00662
1.20588
1.47249
1.47188
1
1.47186
1
0.688235
1
0.99768
0.999782
1
0.648901
1
0.662223
1.00002
1.4756
1.47169
0.666741
1.47818
0.662158
0.996197
1.34986
0.642881
1.3332
1
1
0.998408
1
1
1
1.00006
1
0.653753
1
1
1
1
0.999585
1.4718
0.804594
1
1
1
1.03749
1
1
1
1.27764
0.752265
1
1
1
1.04375
1.47506
1
0.654205
1
1.4734
0.907835
0.647594
1
0.652188
1
1
1.44542
0.998253
1.44
1
1.00861
1
1
1.47206
1
1
1
1
1.09139
1
1.47141
1.47341
1.47388
0.64999
1.47226
0.997068
1.38146
1
1
0.649363
1
1
0.65947
1.4682
1
1
0.99996
1
1
1
0.647094
0.646792
1
1.46892
1
1.21716
1.47134
0.653031
1.38694
1
1
0.691211
1
1
1.47154
1.47093
1.16257
1
1
1.00194
1.47229
0.652594
0.662046
1.47194
1.47157
1.31156
1.18605
1
0.895895
1
1
1
1.4381
1.47193
1.46971
1
1
1.47251
0.681421
1.42242
0.632286
1
0.664367
1
0.652794
1.47137
0.64069
1
0.979988
0.681751
1
1
1
0.847403
1.44526
1.47072
1.47203
1.46907
1
1
1.47418
1
1
1.46988
1
0.65712
1
0.647273
1
1.47177
1
1
1.01929
1.35787
1
0.999042
0.667016
1.47103
1.00001
0.66141
1.08911
1
1
1.35851
1.47289
1.47115
1
1.47223
1.12915
1
1.02455
1.47136
1
1
1
1
1.47154
1
0.658032
1.47028
0.652804
0.655569
0.840077
1.47227
1.1611
1.47315
1
1.4686
0.99734
1.00003
1.4725
1.47259
1
1.46955
1
1.4707
1
1.47208
1
1.00004
0.999967
1.473
0.659574
0.666735
0.997771
0.999999
1
1
0.649098
1
1.30972
1
0.640253
1
1.17805
1.47148
1.4773
1
1
1.00003
0.999458
1
1.47124
1.47095
1
1.19172
1.47305
0.837367
1.47131
1.00049
0.662605
1.10017
0.660203
1
1
1.07791
1.46987
1
1
1.04492
0.998578
1
0.659735
1
0.777199
1
1.4695
1
1
0.647504
1.10706
1.06627
0.998495
1.47165
1.4712
0.761505
0.998075
0.655284
0.651066
0.654645
1
1
1
0.99909
0.718703
0.643847
1
1.47129
0.999742
1.47167
1.47247
1.47109
1.47074
1
0.643767
1.47032
0.652381
1
1.47057
1.47967
0.996706
0.815994
1.4705
1.33331
1
0.663237
1
1
1.47126
1
1.02677
1.47151
1
0.676339
0.665973
1
1
0.644086
0.644948
1.47101
1.00005
1
0.642206
0.664993
1.47635
1.45933
1.44012
1.47123
1.12609
0.979047
1.18852
1.47061
1.38393
1
1.22563
1
0.634518
0.863633
1
0.662574
1.47099
1.02222
1.47271
1
1.47182
1.47244
1
1.47204
1.47168
0.667012
1.47392
1
1.48659
1
0.762279
0.659712
1.47249
1
1
1
0.652584
1.47015
1.47253
1
0.661972
1
1
0.66571
1.00005
0.645092
1.47042
1
0.817019
0.653607
1
1
1.26204
1
1
1
1.08198
0.661753
1
1.00001
1
1.4771
0.654102
1
1.47235
0.658989
0.653438
1
1
1.46954
1
1.46992
1.00001
1.47171
0.664153
1
1
0.671171
0.820473
0.65802
1
1
1
1
1.47504
0.65761
1
0.649586
1
1.47273
1
1
0.937383
1
1
0.826052
0.999685
1.00005
1
0.658224
0.670109
1
1
1
1
0.797687
1.46999
1.47029
1
0.652709
0.646898
0.90745
0.661748
1
0.831329
1
0.643119
0.9814
1
1
0.657716
1
1.47259
1.45897
0.661362
1
1
1
1.47031
1
1.03784
0.835499
1.14519
0.658648
1.18376
0.662363
1
1
0.710101
0.912149
1
1.04757
1
1
0.650988
1
0.939517
1.04393
0.649843
1
1.38345
0.750768
0.870756
1
1
1
0.660097
1
0.651575
0.655386
1
0.852192
0.653792
1.06868
0.741148
0.635518
1.47209
1
1.47127
1.24901
0.700172
1.47162
0.658787
0.999056
1.47191
0.999999
1
1.47162
1
0.728413
1
1.06666
1
1
1.47072
1
0.774356
0.824007
1.47124
0.940307
1
0.762466
1.47257
1.47141
0.903459
1
1.47167
1.11971
0.848188
1
1.01349
1
0.663147
1.19824
0.769706
0.741072
1
1
0.653275
1.47083
0.962398
0.649857
0.652926
0.866021
1
1.01468
1.47107
1.47194
1
1
0.999999
0.661866
1.22316
0.999992
1.47293
1.42907
0.6663
1.00001
1.08625
0.866652
1.27834
1.40991
1
1.03677
1
1.00005
0.656808
0.847315
1
1
0.8233
0.654564
1.03841
1
1.00002
0.650922
1.21293
1
1.45948
1
1.03738
1.25342
1
1.46147
1
1
1.47289
1
0.64253
1.4726
0.709411
1.12271
1
0.650716
0.999918
1
1.00003
1
0.807147
1.0264
0.660591
1.34376
1.47015
0.643249
1
1
1
1
1
0.965958
0.65625
1.0435
0.654532
0.658999
1.06694
1
0.99981
1.11896
1
1
0.662376
0.99519
1
1
1.12834
1
1.47083
1
1.47246
1.08532
1.01579
0.655856
1
1
0.659689
1
1
1
1
1.47342
1.04438
0.998074
1
0.64916
1.05201
0.999999
1
1.30701
1
0.678114
1.46988
1
1.00001
1
1.46942
0.677117
0.882302
0.669106
1.3539
1.4793
1
1
1.47133
1
0.66137
1
1
1
1
1
0.7807
1
1.46999
1
1
1.16217
1.47043
0.674438
0.868416
1
1.47182
1
1
1
1
1
1.47125
1.47234
0.640698
1.471
0.637817
1
1
1.47172
1
1.47239
1.00131
1.02673
1.06757
1.47258
1.07228
1.31534
0.639247
1
0.640564
0.983071
1
1.47111
1
1
0.639853
1.46936
1
1.47214
1
1
1
1
1
1.00001
0.662098
1.47082
0.849796
1.47143
1
0.659825
0.670548
0.711721
1.46617
1.47094
0.964402
1
0.789769
1
1.1779
1
1.47112
0.643048
0.66281
0.855513
1
1.47209
1
1.07119
0.688815
1
1.47391
1.40872
0.998837
1
1.47249
0.653878
1.47626
1.47269
1.47882
0.65321
1.08387
1
1
0.63319
1
0.805918
0.827844
1
1.00002
1.47232
1
1.47516
1.07962
1
1.0454
1.47803
1
0.662738
1
0.768555
1
1
1.38291
1
0.797665
1
0.657523
1.03969
0.947937
0.663159
1.47204
1.37789
1.47215
0.654254
0.710682
0.995819
0.999999
1
0.687269
1.44473
0.66509
0.999969
1
1.47101
1.47139
0.895879
1
0.661846
0.710866
1.31028
0.969242
0.644925
0.999999
0.659685
1.1161
0.66359
1
1.00006
0.814766
1.47093
1.47173
0.840972
0.999596
1
1
0.724031
1
0.659036
1
0.645112
0.667495
1
1
1.00003
0.662611
1.4713
1
1
1.00007
1.00004
0.634924
1.4724
1.47158
0.999999
0.661063
1.47158
1
1.08534
1
1
1.47628
0.651366
1
1
0.649583
0.755547
0.665293
0.642668
1
0.687792
0.997297
1.10289
0.642034
1
1
1.13122
1
1.41575
1
1
1.31643
0.685883
1
0.655266
1.12819
1.47032
1
1
0.654142
0.662004
0.639306
0.731466
0.659533
1.35108
0.99939
1
1
1
1
1.4713
0.65675
1
0.936112
0.999691
0.998372
0.999943
0.753553
1.12785
1
1.47162
1.47147
1
1
1.45163
1.00004
0.999999
1.47128
0.651088
1.4644
0.999999
0.649908
1.47073
1.00005
1
0.819778
1
0.647619
1
1.47212
1
1
1.47582
1
1
1.47295
1
1
1
1.47099
1
0.750015
0.715321
1
0.634263
1.47097
1
1
0.965825
1
1.47239
1.26164
1.37697
1
1
0.677069
1
0.639895
1.46974
1.47152
1.47238
1
1.47016
0.660565
1
0.642495
1.37534
1.43652
1.4726
1.46981
0.757292
0.642257
1
1.2987
1.47082
1.47197
1.47139
0.750244
1.16891
1
1.35713
0.761812
1
1.00002
1
1.00002
0.884754
1
1.46831
1
1
1
1
1
1
1.00006
1.47248
1
1.47735
1.34842
0.661074
1.47036
1.03117
1.22659
1
1.47157
1
0.64948
1
1
1
1
1.40118
1
0.650107
1.47254
0.62879
1.4716
1.37393
1.2425
1
1.08848
1.21981
0.995619
0.636805
0.77851
1.00002
0.999999
0.913418
1
0.650325
1.4708
0.63521
0.927432
0.85221
1
1
1
1.01304
1
1
0.638821
0.997719
1.4705
1
1.47107
1
0.661801
1
1
1.4714
1.4706
0.651736
1
1.47268
1
0.798877
0.645314
1.47197
1.42208
1
1.07941
1.4729
0.998686
1
1.1906
1.4125
1.46919
0.995827
1
0.999998
1.39713
1
1
1
1.47121
0.998476
1
1
1.47127
1
1
0.659141
1
1
1
1.47212
1
1
0.850447
1.1453
1.42637
0.774902
1
1.47077
1
1.15956
1
1.46905
0.997286
1.47114
1
0.659986
1
1.33156
1
1
1.43947
1.00001
1.47201
1
1.47358
0.69228
0.655129
1.47264
1
1.41705
1
1.47135
1
1
1.00005
1.47384
1.47457
1.12111
1.47114
0.995367
0.648119
1.47226
0.868004
1
1.47295
1
1.47132
1
1.4741
1.47106
0.996179
0.65769
1
1.47147
1
1.03212
1
1
0.997994
0.749553
1.42097
1
1.41581
1
0.869147
0.647315
1.47161
1.47285
0.699814
1
1.4707
1.46924
1.46967
0.69824
1.47129
0.676154
1.47208
1.47022
1
1
1.47091
1
1
1
1
0.665444
1
1
1.47197
1.47086
1
1.47154
1
1.46972
1.47212
1
1.39159
1
0.637248
1.47151
1.34435
1.12612
0.627866
1.47172
1
1
0.642384
1
1
1.47209
1
1
0.781363
1
1.47165
1.00008
1.47329
0.637233
1.47169
1
1.47188
1.4526
0.883772
1
1.46943
0.774875
1.47732
1.32743
1.47038
1.47502
0.99723
1.47346
1.47201
1.4709
1.47203
1.00038
1
0.655031
1
1.47091
0.82823
1.42796
1
1.46328
1
1
1
1
1
1.46938
0.648853
0.658117
1.47105
1.47111
1
1
1
1
1
1.46794
1.4399
1.47203
1.01792
1
1
1
1.00004
1.47048
1.47148
1
1.47092
1.47166
0.652115
1.32598
1
1.47202
1.47666
1.46826
0.997873
1.47233
1.4719
1
1.4176
1
1
1
1
1
1
1.47081
1.47065
1.43723
1.47075
0.64407
0.702974
1.47173
1.47167
1
0.639341
0.940804
1
1.2224
0.643319
1
0.999459
0.99824
0.664886
1
1.47212
1
1
1
1.47274
0.937926
1
1.47199
1.47055
1
1.47142
1
1
1.47143
1
0.660012
1
1.46822
1
1
0.647189
1
1.472
1
0.642569
0.665791
1
1.46182
1
0.627541
0.892706
1
1.47206
1
1
1
1.47644
1
0.661303
1.06464
1.47141
1.47348
1.47246
1.04393
1.47384
1.47104
1
1.00002
1
1
1.00001
1.47145
1
0.999304
1.47175
1
0.642093
1
1.47078
1.22026
1.05987
1.21868
1.06462
1.47294
0.718823
1.47153
1
0.666597
0.997203
1.47081
0.934494
1.47088
1.47068
1.44739
1
1.47109
1.47125
1.47168
1
1.00004
1
1
1.4719
1.32913
1
1
0.652307
0.996719
1
1.47336
1
1.47146
1.47116
1.47062
0.925868
1.47305
1.47137
1.00059
1.22411
1.47161
1.47134
1
1.4335
0.829566
1.44314
0.984721
1.47168
1
1.47101
1.47193
1
0.657408
0.925502
0.701725
1
1.07338
0.996934
1.47143
1
1
0.996802
1
1.22837
1.44337
1
1
1.47267
1
1
1.33088
1.46986
1.45172
1.47491
1.47264
1
1.47222
0.74186
1.47074
1
0.993914
0.662251
1
1
0.743854
1
1.14792
1
1.47439
1
1.46315
1.29357
0.665118
1
1
1
1
1
1.47011
1.0114
1
1.47118
1
1.4712
1.47168
0.999999
1
0.96638