/*--------------------------------*- C++ -*----------------------------------*\
  =========                 |
  \\      /  F ield         | OpenFOAM: The Open Source CFD Toolbox
   \\    /   O peration     | Website:  https://openfoam.org
    \\  /    A nd           | Version:  12
     \\/     M anipulation  |
\*---------------------------------------------------------------------------*/
FoamFile
{
    format      ascii;
    class       volVectorField;
    location    "5.86";
    object      U;
}
// * * * * * * * * * * * * * * * * * * * * * * * * * * * * * * * * * * * * * //

dimensions      [0 1 -1 0 0 0 0];

internalField   nonuniform List<vector> 
22702
(
(2 -6.17404e-14 0)
(2 -5.82123e-14 0)
(2.05535 -0.0855691 0)
(2 -1.14338e-09 0)
(1.97759 0.0328177 0)
(2 -8.10473e-14 0)
(1.82599 0.22728 0)
(2 -4.91669e-14 0)
(2 -1.99033e-13 0)
(2.11451 -0.266816 0)
(1.82968 0.228834 0)
(1.82917 0.228932 0)
(2 8.24947e-14 0)
(1.83165 0.228998 0)
(2.04569 -0.0695801 0)
(2 -2.63649e-13 0)
(2 -1.85109e-13 0)
(2 1.35374e-14 0)
(1.82929 0.228923 0)
(2 -1.46033e-16 0)
(1.83149 0.229332 0)
(2 -2.9164e-14 0)
(1.83197 0.229362 0)
(2.12853 -0.268441 0)
(1.83144 0.229901 0)
(2.10111 -0.271648 0)
(2 -2.87124e-14 0)
(1.82774 0.228125 0)
(2.09675 -0.25604 0)
(2.10494 -0.259889 0)
(2 1.12929e-14 0)
(1.83321 0.228996 0)
(2 -1.20511e-14 0)
(2 1.14259e-14 0)
(2 -1.57089e-13 0)
(1.84403 0.215363 0)
(1.83032 0.230629 0)
(1.83178 0.229384 0)
(2 -8.76849e-14 0)
(2 -1.29568e-13 0)
(2.11765 -0.265542 0)
(2 -3.49352e-14 0)
(1.91692 0.122817 0)
(2 -3.68424e-14 0)
(1.8288 0.229012 0)
(2 -2.05481e-13 0)
(2 -1.13169e-13 0)
(2 -3.97298e-13 0)
(2 -1.13836e-13 0)
(2.10825 -0.268873 0)
(2 -6.51648e-14 0)
(2.12062 -0.265952 0)
(2 -1.00486e-13 0)
(1.82974 0.228842 0)
(2 -2.58937e-13 0)
(1.834 0.229 0)
(2 -1.25142e-13 0)
(2 1.38504e-09 0)
(2 1.75973e-13 0)
(2 -1.37734e-13 0)
(2.11931 -0.268857 0)
(2 1.70525e-14 0)
(2 -2.83336e-13 0)
(2.09799 -0.25837 0)
(2 7.75944e-14 0)
(2.12261 -0.264755 0)
(2 -9.7896e-14 0)
(2 -1.25782e-13 0)
(2 -5.40859e-14 0)
(2.11526 -0.266478 0)
(2 -2.13247e-13 0)
(1.8296 0.228613 0)
(1.897 0.14933 0)
(2 1.04644e-09 0)
(1.83026 0.229209 0)
(1.8215 0.237375 0)
(2.1217 -0.264877 0)
(1.82823 0.228818 0)
(2.10734 -0.264828 0)
(2 -1.48325e-13 0)
(1.82961 0.228943 0)
(2.10612 -0.260179 0)
(1.83089 0.228951 0)
(1.83083 0.229049 0)
(2 -6.43616e-14 0)
(2 8.77083e-07 0)
(2 -1.40275e-13 0)
(2 -5.06966e-14 0)
(2.02965 -0.0440927 0)
(2.11602 -0.265607 0)
(1.83282 0.228562 0)
(2 -2.25979e-13 0)
(2 -5.37279e-11 0)
(2.10845 -0.265208 0)
(2 -6.33624e-14 0)
(1.83133 0.229225 0)
(2.10769 -0.265287 0)
(2 2.27931e-08 0)
(2 -1.81913e-14 0)
(2 -1.43838e-13 0)
(2 -2.2075e-14 0)
(1.91742 0.122045 0)
(1.82938 0.228879 0)
(2.10717 -0.27156 0)
(2 7.80472e-10 0)
(2 -1.08412e-09 0)
(1.96009 0.061202 0)
(2 9.38984e-09 0)
(2.11062 -0.262783 0)
(2 -1.17866e-13 0)
(1.82938 0.229234 0)
(1.83011 0.228896 0)
(2 4.14716e-09 0)
(2 -1.81051e-13 0)
(2.1109 -0.271017 0)
(2.10936 -0.26866 0)
(2.11592 -0.26593 0)
(2 1.42476e-13 0)
(2 -1.34549e-07 0)
(2 -2.05275e-14 0)
(2 8.763e-14 0)
(2 1.04433e-07 0)
(2.03556 -0.0525071 0)
(2 -1.13582e-07 0)
(1.85534 0.202621 0)
(1.9815 0.0216612 0)
(1.82835 0.228588 0)
(2 -1.52287e-14 0)
(1.82835 0.228884 0)
(1.82948 0.229009 0)
(1.83136 0.229266 0)
(1.82991 0.228831 0)
(2 -1.85766e-13 0)
(2.11931 -0.264668 0)
(2 5.9635e-14 0)
(2.11636 -0.262688 0)
(2 -1.35799e-15 0)
(2 8.18406e-14 0)
(2 -8.73978e-14 0)
(2 -3.48727e-14 0)
(1.83008 0.228878 0)
(2 3.05282e-09 0)
(2 -8.05932e-14 0)
(2 -4.22983e-13 0)
(2 1.39664e-13 0)
(1.83296 0.22975 0)
(2 5.52767e-14 0)
(1.99453 0.0130302 0)
(2 2.42323e-13 0)
(2 -1.06048e-13 0)
(2 -6.47824e-11 0)
(2 1.00157e-14 0)
(2.10721 -0.26426 0)
(2 -1.6375e-13 0)
(1.99522 0.00838776 0)
(2 3.69929e-14 0)
(2.10192 -0.264375 0)
(2 -3.96768e-15 0)
(2 2.0293e-14 0)
(2 -3.41652e-14 0)
(1.83224 0.228985 0)
(2 -2.72535e-14 0)
(1.8309 0.228624 0)
(2.12055 -0.273539 0)
(2.11048 -0.265692 0)
(1.82793 0.228119 0)
(1.82833 0.228146 0)
(2 1.5324e-14 0)
(1.96902 0.0456548 0)
(1.90207 0.143283 0)
(2 5.33301e-14 0)
(1.83059 0.228561 0)
(2.11141 -0.264197 0)
(1.84369 0.215538 0)
(2 4.83916e-14 0)
(2 3.60024e-14 0)
(2 4.09539e-15 0)
(2 -1.94202e-13 0)
(1.83168 0.228803 0)
(1.85725 0.194052 0)
(2 -1.88756e-13 0)
(1.83019 0.228278 0)
(2.10141 -0.262934 0)
(1.83272 0.229196 0)
(2 2.12542e-14 0)
(2.09477 -0.259461 0)
(2 -9.612e-14 0)
(2.10309 -0.262822 0)
(2.10243 -0.270458 0)
(2.00007 -0.00012867 0)
(2 -3.21183e-14 0)
(2 -1.88657e-13 0)
(1.82963 0.229175 0)
(2 1.93942e-14 0)
(2 -1.43514e-13 0)
(1.83184 0.229099 0)
(2 -2.20348e-13 0)
(1.83085 0.228833 0)
(1.82989 0.228206 0)
(2.11036 -0.280628 0)
(2 2.60185e-13 0)
(2 -1.28554e-13 0)
(2.10671 -0.263357 0)
(1.83195 0.229091 0)
(2 -7.20713e-14 0)
(2 -1.1322e-13 0)
(2 -1.90114e-13 0)
(1.83187 0.229105 0)
(2 2.26769e-15 0)
(2.10385 -0.267221 0)
(2 -6.28547e-11 0)
(2 -3.1367e-13 0)
(1.83178 0.228892 0)
(1.83124 0.229059 0)
(1.83055 0.228823 0)
(2 5.99977e-14 0)
(1.99999 2.30592e-05 0)
(2 7.14572e-14 0)
(2 2.45342e-14 0)
(2 8.89927e-14 0)
(1.83198 0.228901 0)
(2 -8.22191e-14 0)
(2.11602 -0.269762 0)
(1.82166 0.233797 0)
(1.83191 0.229086 0)
(1.83197 0.229355 0)
(2 1.98202e-07 0)
(2 -3.96734e-14 0)
(2 -1.80089e-13 0)
(2.11125 -0.273002 0)
(1.83198 0.229285 0)
(1.9309 0.121838 0)
(2 1.10593e-14 0)
(1.83091 0.22964 0)
(2.11347 -0.266234 0)
(2.10507 -0.263742 0)
(1.83095 0.22967 0)
(1.83136 0.229211 0)
(2 -4.83763e-14 0)
(1.83003 0.232963 0)
(2.11847 -0.271248 0)
(1.85141 0.206053 0)
(2 4.83164e-14 0)
(2 -8.84401e-14 0)
(2 -1.69364e-13 0)
(2 -1.70305e-14 0)
(1.83197 0.229191 0)
(2 -2.66105e-13 0)
(1.90657 0.135614 0)
(1.98244 0.0297131 0)
(2 7.58885e-14 0)
(2 -2.1993e-13 0)
(1.83195 0.229063 0)
(2.11432 -0.264526 0)
(2.07391 -0.16735 0)
(2 5.97197e-14 0)
(1.831 0.23033 0)
(2.11143 -0.265073 0)
(1.83028 0.2294 0)
(2 3.07803e-14 0)
(2 -1.98467e-14 0)
(2 -1.4654e-14 0)
(2 -6.1253e-14 0)
(2 -8.3077e-14 0)
(2 -1.60587e-13 0)
(2 -1.37672e-13 0)
(2.11693 -0.263659 0)
(2.08044 -0.167127 0)
(2.10639 -0.266883 0)
(1.83127 0.228839 0)
(2 -9.55665e-14 0)
(2 2.01799e-13 0)
(2 -1.60846e-07 0)
(2 -2.60758e-13 0)
(1.85002 0.214727 0)
(2 -1.79468e-07 0)
(2.11592 -0.263583 0)
(2 1.84769e-13 0)
(2.11887 -0.282272 0)
(2.10845 -0.263418 0)
(1.83203 0.228996 0)
(2.12195 -0.267366 0)
(1.83154 0.22932 0)
(2 2.58967e-14 0)
(2 -1.62957e-13 0)
(2 -1.53701e-13 0)
(2.00083 -0.00160987 0)
(2.09973 -0.260772 0)
(2.13298 -0.267127 0)
(2 -2.98732e-07 0)
(2 -1.50144e-07 0)
(2.11703 -0.282724 0)
(2 2.38377e-09 0)
(1.82951 0.228862 0)
(2.11229 -0.26776 0)
(2 -2.32487e-14 0)
(2 -3.32483e-11 0)
(1.82978 0.228913 0)
(2.1328 -0.275471 0)
(2 -2.21728e-13 0)
(1.83532 0.226852 0)
(2.1067 -0.263896 0)
(1.83185 0.228999 0)
(2 -6.30844e-15 0)
(2.11065 -0.285474 0)
(2.0009 -0.00154331 0)
(2 4.45925e-14 0)
(2 2.9571e-06 0)
(2 2.4347e-13 0)
(2.12675 -0.26882 0)
(2 -3.43706e-13 0)
(2 -1.62097e-07 0)
(2 -1.00617e-06 0)
(1.99999 8.77025e-06 0)
(1.99252 0.0132497 0)
(1.89752 0.148404 0)
(2 -2.33551e-11 0)
(2.09485 -0.257059 0)
(2 -1.61834e-11 0)
(2 1.67683e-06 0)
(2 -1.56422e-13 0)
(2 -7.56728e-14 0)
(2 -1.25214e-13 0)
(2 2.07291e-13 0)
(2 -3.01385e-13 0)
(1.8297 0.228914 0)
(2 3.01704e-13 0)
(1.8299 0.228572 0)
(2 1.97845e-13 0)
(2 -5.75084e-14 0)
(2 3.16061e-15 0)
(2.11539 -0.261758 0)
(2 -3.72928e-14 0)
(1.83294 0.229668 0)
(2.12088 -0.268301 0)
(2 -2.45634e-14 0)
(1.88144 0.16579 0)
(2 -9.73688e-14 0)
(2 7.09331e-14 0)
(1.82959 0.229021 0)
(2 9.37794e-14 0)
(2 -9.21339e-09 0)
(2 -4.44186e-14 0)
(1.83415 0.226828 0)
(2 4.94236e-10 0)
(2 2.02712e-14 0)
(1.83752 0.220901 0)
(1.82949 0.229237 0)
(2 1.33523e-14 0)
(1.96477 0.0552662 0)
(2 3.71626e-14 0)
(2 8.0271e-14 0)
(2.1152 -0.263775 0)
(2 -1.81231e-13 0)
(2 -1.39511e-14 0)
(2 -5.11963e-14 0)
(2.11135 -0.265128 0)
(2 6.57244e-16 0)
(2 -1.6689e-14 0)
(2 -1.41744e-13 0)
(2 -1.03609e-13 0)
(2.1006 -0.26259 0)
(2 4.8451e-14 0)
(2 -7.17255e-14 0)
(2 -1.3925e-13 0)
(2 3.31527e-15 0)
(2 2.21212e-14 0)
(2.13071 -0.258367 0)
(1.99998 4.1864e-05 0)
(1.82969 0.228231 0)
(2 -8.22246e-14 0)
(1.99997 -7.66879e-06 0)
(1.82858 0.228275 0)
(1.82754 0.227938 0)
(2 1.02118e-13 0)
(2 -2.2868e-14 0)
(2.09929 -0.277627 0)
(2.05237 -0.131729 0)
(1.82982 0.229052 0)
(2 -1.83561e-13 0)
(2 2.65547e-15 0)
(2 -1.58982e-14 0)
(1.83193 0.228933 0)
(2.11347 -0.265733 0)
(2 6.90649e-14 0)
(1.83068 0.228395 0)
(2 4.79449e-14 0)
(2 -1.23436e-14 0)
(2.10646 -0.214315 0)
(2.10446 -0.212011 0)
(2 -1.38282e-13 0)
(2.094 -0.268292 0)
(2.1182 -0.262309 0)
(2 1.54555e-13 0)
(2 -3.35508e-14 0)
(2 -3.10856e-14 0)
(2 1.92513e-13 0)
(2 -9.79824e-11 0)
(2 -1.9997e-13 0)
(2 -2.74563e-13 0)
(1.82837 0.228489 0)
(1.95788 0.0618166 0)
(1.84481 0.210015 0)
(2.12863 -0.256202 0)
(2.0255 -0.0594614 0)
(1.83044 0.228874 0)
(2 -5.71419e-13 0)
(1.83158 0.229562 0)
(1.83 0.229223 0)
(2.123 -0.26541 0)
(2.06814 -0.158533 0)
(2 4.39739e-13 0)
(2.10323 -0.266528 0)
(2 -2.11933e-14 0)
(1.82104 0.232826 0)
(2 1.77243e-13 0)
(2 2.12168e-13 0)
(2 -2.24004e-13 0)
(2 3.06019e-14 0)
(1.832 0.229125 0)
(2 -1.22293e-13 0)
(2 -5.62277e-14 0)
(2 -7.26507e-15 0)
(2 1.51977e-09 0)
(2 -1.22251e-13 0)
(2 -2.07656e-13 0)
(2 -1.43859e-13 0)
(1.93827 0.0972613 0)
(1.8319 0.228916 0)
(2 -8.36034e-14 0)
(1.83124 0.228966 0)
(2 -9.68472e-14 0)
(2 -8.95822e-14 0)
(2.10189 -0.259646 0)
(2 6.96915e-14 0)
(2 4.63525e-14 0)
(2 1.18122e-14 0)
(2 -7.46354e-14 0)
(1.8317 0.229172 0)
(1.87115 0.182802 0)
(2 -2.66701e-13 0)
(2 -1.96306e-13 0)
(2.10682 -0.265144 0)
(1.83146 0.228885 0)
(1.8316 0.228971 0)
(2 -3.54382e-14 0)
(1.83171 0.228886 0)
(1.8316 0.229079 0)
(1.83123 0.229022 0)
(2 1.75691e-14 0)
(2.04759 -0.114832 0)
(2 -1.32776e-13 0)
(1.83162 0.228706 0)
(1.99696 -0.0141636 0)
(1.83126 0.229043 0)
(2 1.42307e-13 0)
(2.10729 -0.266196 0)
(2.00041 -0.000620857 0)
(1.83001 0.228941 0)
(2 2.21364e-13 0)
(2 1.73995e-13 0)
(2 -5.43008e-11 0)
(2 -2.21265e-11 0)
(2.11488 -0.263335 0)
(1.83197 0.22919 0)
(1.84823 0.210481 0)
(2 6.43569e-14 0)
(1.83267 0.227564 0)
(1.83182 0.228799 0)
(1.82928 0.228942 0)
(2 6.07933e-14 0)
(1.91834 0.129417 0)
(1.83132 0.229333 0)
(2 -1.37553e-13 0)
(2 8.89946e-15 0)
(1.88422 0.165131 0)
(1.97886 0.0360738 0)
(1.83163 0.228891 0)
(2.02342 -0.0452795 0)
(1.83157 0.228937 0)
(2 -2.80027e-14 0)
(1.83141 0.229021 0)
(1.8313 0.228995 0)
(1.83138 0.229033 0)
(1.83118 0.228843 0)
(2 -7.10714e-14 0)
(1.83299 0.230766 0)
(2.03337 -0.0650678 0)
(2.0443 -0.0835441 0)
(2 -4.16599e-14 0)
(2 -3.95869e-07 0)
(2 -7.82907e-14 0)
(2 -2.873e-15 0)
(1.8299 0.228234 0)
(2 -5.55083e-14 0)
(2 5.21204e-15 0)
(2 -3.45118e-14 0)
(2 1.54479e-13 0)
(2 5.4856e-14 0)
(1.82936 0.228682 0)
(2 9.96526e-14 0)
(2 2.58002e-13 0)
(2.00146 -0.00252502 0)
(1.83149 0.229013 0)
(1.84667 0.225368 0)
(2 -1.75069e-13 0)
(1.86514 0.189239 0)
(1.99998 2.83279e-05 0)
(2 -2.62875e-13 0)
(2 8.37942e-14 0)
(1.83074 0.228702 0)
(2 -2.36174e-13 0)
(2.00277 -0.00281086 0)
(1.99783 0.00465193 0)
(2 -2.74329e-14 0)
(1.83137 0.229024 0)
(2 2.63637e-14 0)
(1.83225 0.228859 0)
(2 3.01854e-14 0)
(2 4.60999e-14 0)
(1.87492 0.179432 0)
(2 1.52644e-15 0)
(1.83214 0.228707 0)
(1.99999 1.26042e-05 0)
(2 -1.60393e-14 0)
(1.83208 0.228858 0)
(2 -5.72481e-13 0)
(1.83155 0.229126 0)
(2 1.92085e-14 0)
(2 3.03838e-06 0)
(2 5.32911e-14 0)
(1.83199 0.229241 0)
(2 9.24423e-15 0)
(1.83196 0.227935 0)
(2 4.50412e-06 0)
(1.83199 0.229137 0)
(1.83016 0.22884 0)
(1.83167 0.229001 0)
(1.82978 0.228436 0)
(2 -6.94924e-14 0)
(1.83024 0.228529 0)
(1.82995 0.235224 0)
(2 -1.61512e-13 0)
(2.08375 -0.255139 0)
(1.84193 0.217134 0)
(1.87804 0.173491 0)
(2 -1.10711e-13 0)
(1.83204 0.229158 0)
(2 -5.40849e-14 0)
(2.11291 -0.26355 0)
(2.10578 -0.26624 0)
(2 1.43725e-13 0)
(2 2.09501e-14 0)
(2 3.37842e-14 0)
(2 1.31363e-14 0)
(2 1.82827e-09 0)
(2.10702 -0.264885 0)
(2 -9.50723e-14 0)
(1.83126 0.228955 0)
(1.95719 0.0613031 0)
(1.83091 0.228708 0)
(2 -5.14489e-14 0)
(2 6.50535e-11 0)
(2 -7.28775e-14 0)
(2 -1.25555e-13 0)
(2 -4.8727e-08 0)
(1.83125 0.228936 0)
(2 2.07769e-14 0)
(1.82872 0.230366 0)
(1.89887 0.149012 0)
(2.07094 -0.162625 0)
(2 1.30323e-09 0)
(1.99999 7.99277e-06 0)
(1.94788 0.0797697 0)
(1.95827 0.0682225 0)
(2 3.14337e-13 0)
(2 1.86016e-13 0)
(1.93951 0.0889696 0)
(2 -3.85458e-16 0)
(2.09965 -0.259294 0)
(1.83191 0.228879 0)
(1.8318 0.228834 0)
(2 -6.60179e-11 0)
(2 -1.723e-14 0)
(2 1.14592e-13 0)
(1.82947 0.228566 0)
(2 -5.28895e-13 0)
(1.99999 1.55866e-05 0)
(1.83055 0.229073 0)
(1.83204 0.22907 0)
(2.01585 -0.037501 0)
(2 1.02434e-13 0)
(2 1.39869e-10 0)
(2.11197 -0.267214 0)
(1.84603 0.212125 0)
(2 -1.08604e-13 0)
(2 -9.82653e-14 0)
(2 -3.06443e-14 0)
(2 -2.79564e-11 0)
(2 -1.30112e-13 0)
(1.83145 0.229111 0)
(1.83076 0.228526 0)
(2 -1.06961e-13 0)
(1.83177 0.229396 0)
(1.83146 0.228086 0)
(1.83175 0.229022 0)
(2 1.27427e-15 0)
(2 -3.22953e-14 0)
(2 -6.06973e-11 0)
(2 -1.15513e-13 0)
(2.10814 -0.269954 0)
(1.83017 0.229249 0)
(2 -4.90014e-11 0)
(2 4.85118e-15 0)
(1.84679 0.212477 0)
(1.83199 0.228473 0)
(2 -2.50871e-13 0)
(1.84209 0.217555 0)
(1.83114 0.229079 0)
(2 -4.94773e-13 0)
(2 -2.14759e-07 0)
(2 8.84285e-11 0)
(2 -8.80114e-14 0)
(2 -2.27163e-13 0)
(1.83144 0.228987 0)
(2 4.97721e-14 0)
(2 -1.41855e-13 0)
(2 -1.99192e-13 0)
(2 -7.25418e-14 0)
(1.83218 0.228768 0)
(2 -2.37085e-14 0)
(1.83111 0.226553 0)
(2.10836 -0.266807 0)
(2 -9.4865e-14 0)
(2.12266 -0.263616 0)
(2 1.21249e-13 0)
(2 -1.4731e-07 0)
(2 1.16556e-13 0)
(2.00121 -0.00169924 0)
(2.09107 -0.263932 0)
(2.00035 -0.000577153 0)
(2 -8.23355e-14 0)
(2 -3.76513e-14 0)
(2 -1.17482e-07 0)
(1.97647 0.0395325 0)
(2 -1.72526e-13 0)
(2 6.31201e-14 0)
(2.03792 -0.0862284 0)
(2 -2.12605e-07 0)
(2 -1.15582e-13 0)
(2 2.53793e-14 0)
(2 -2.14512e-07 0)
(2 1.59576e-07 0)
(2 -1.46092e-07 0)
(2 -2.46466e-13 0)
(2 -1.65266e-06 0)
(2.0236 -0.0449563 0)
(2 -4.89109e-07 0)
(2 -3.82659e-08 0)
(2.00087 -0.00137966 0)
(2 -1.94495e-13 0)
(2.11589 -0.263379 0)
(2 -2.76519e-11 0)
(2 -4.04418e-12 0)
(2 -5.41704e-11 0)
(2 1.43561e-13 0)
(1.87277 0.1803 0)
(2 -1.13583e-13 0)
(2 -7.43384e-15 0)
(2 -1.80358e-13 0)
(2 -1.60117e-07 0)
(2.10898 -0.267442 0)
(2 -8.23985e-15 0)
(2 1.40865e-09 0)
(1.84134 0.217185 0)
(1.8301 0.229271 0)
(2 -2.95236e-07 0)
(2 -6.75762e-14 0)
(2 -1.15148e-07 0)
(2.03868 -0.0797385 0)
(2 -1.26198e-13 0)
(2 4.28984e-10 0)
(2 4.56574e-14 0)
(2 1.22419e-13 0)
(2 -3.51179e-14 0)
(2 -4.17392e-14 0)
(2.00959 -0.0267221 0)
(1.99593 0.00481101 0)
(1.83213 0.228727 0)
(2 -1.26085e-13 0)
(2 -3.17549e-13 0)
(2 -1.03075e-13 0)
(1.83172 0.22713 0)
(2.04142 -0.0616084 0)
(2 -4.94539e-09 0)
(2 -5.26546e-14 0)
(2 1.23515e-13 0)
(1.83147 0.229235 0)
(1.82745 0.226857 0)
(2 -2.63756e-08 0)
(2 4.84339e-06 0)
(2 3.04965e-09 0)
(2 -1.43496e-13 0)
(2 1.28459e-09 0)
(2 -4.01951e-14 0)
(2 -8.3076e-12 0)
(2 -8.32828e-14 0)
(2 -5.32672e-14 0)
(2.1183 -0.261825 0)
(2 -7.24935e-14 0)
(2 -1.46487e-11 0)
(1.8297 0.228972 0)
(2.10339 -0.267056 0)
(2 1.12118e-14 0)
(1.82982 0.228073 0)
(2 7.73318e-11 0)
(2.10669 -0.262725 0)
(2 -1.41684e-14 0)
(2 -1.72952e-13 0)
(2.11985 -0.261946 0)
(2 -1.25506e-13 0)
(2 -1.02614e-11 0)
(2 -4.85749e-12 0)
(2 -2.8475e-14 0)
(2 -2.90669e-12 0)
(2 -2.14978e-13 0)
(2 -9.77978e-15 0)
(1.8348 0.225259 0)
(1.83198 0.228772 0)
(2 3.51293e-13 0)
(2 -4.51854e-14 0)
(2 3.0281e-14 0)
(2 4.21712e-13 0)
(1.84584 0.212668 0)
(2 3.18392e-13 0)
(1.94393 0.0832338 0)
(2.08464 -0.257322 0)
(2 -3.05781e-08 0)
(2 4.06619e-13 0)
(2 -1.69803e-13 0)
(2 -1.29704e-13 0)
(2 -7.57336e-14 0)
(2 1.28575e-13 0)
(2 -3.07604e-14 0)
(1.98774 0.016877 0)
(2 -1.87638e-14 0)
(2 -1.21582e-13 0)
(1.90454 0.120751 0)
(2 8.07429e-14 0)
(2 5.05281e-15 0)
(2 -6.89889e-14 0)
(1.85915 0.196555 0)
(2 1.8189e-14 0)
(2 -4.21352e-14 0)
(2 -1.05815e-13 0)
(2 -1.72535e-13 0)
(2.10547 -0.265601 0)
(2 6.83571e-12 0)
(2 -1.7149e-13 0)
(2.12122 -0.280418 0)
(2.10579 -0.266991 0)
(2 -1.27839e-13 0)
(2 2.39135e-14 0)
(1.8317 0.228707 0)
(2 -9.94732e-15 0)
(1.97343 -0.0360305 0)
(2 4.24396e-14 0)
(2 -5.76688e-14 0)
(2 -8.06977e-14 0)
(1.8814 0.1687 0)
(2.12519 -0.259952 0)
(2 -3.51053e-13 0)
(2.12575 -0.268025 0)
(2 -5.52147e-14 0)
(2.07405 -0.148252 0)
(2 -2.08159e-13 0)
(2 1.22661e-13 0)
(2 1.0684e-13 0)
(1.83055 0.229347 0)
(2 -4.02197e-08 0)
(2 -2.78139e-14 0)
(1.83121 0.228656 0)
(2 -7.23484e-14 0)
(2 -1.03103e-11 0)
(2 1.67846e-09 0)
(1.83119 0.228753 0)
(2 2.48179e-10 0)
(2 -9.51878e-14 0)
(1.83154 0.22882 0)
(2 -1.68071e-13 0)
(2 -1.65878e-13 0)
(2.12194 -0.264743 0)
(2 -1.69846e-11 0)
(1.94585 0.0815705 0)
(2 6.18625e-14 0)
(2 7.9968e-14 0)
(1.83053 0.228863 0)
(1.82976 0.229124 0)
(1.88884 0.159923 0)
(1.84996 0.209029 0)
(2 -9.27621e-14 0)
(2.10852 -0.26605 0)
(2 1.64689e-14 0)
(2 1.27714e-13 0)
(1.83895 0.220377 0)
(2 9.75722e-14 0)
(2.11664 -0.265073 0)
(2 1.37774e-13 0)
(2 -1.96358e-13 0)
(2 1.06921e-15 0)
(1.83122 0.229179 0)
(2 -1.10529e-13 0)
(2 3.70096e-14 0)
(2 1.43426e-13 0)
(2 1.68421e-13 0)
(1.89958 0.146924 0)
(2 -3.89936e-14 0)
(1.84946 0.216302 0)
(1.82943 0.230184 0)
(2.11103 -0.265931 0)
(2 -8.76753e-14 0)
(2 5.0966e-14 0)
(2.10202 -0.274147 0)
(2.10135 -0.267974 0)
(2 -3.9084e-14 0)
(2 -4.96532e-14 0)
(2 -5.5604e-12 0)
(1.88104 0.169859 0)
(1.87111 0.182888 0)
(2 5.99799e-14 0)
(2 7.4673e-14 0)
(2 -1.12712e-13 0)
(2 -5.86987e-14 0)
(2 -6.4726e-14 0)
(2 -5.86587e-14 0)
(2 -3.63763e-14 0)
(1.92839 0.106539 0)
(1.8303 0.229123 0)
(1.99233 0.00699476 0)
(2 1.21001e-13 0)
(1.83375 0.226866 0)
(2.11912 -0.26646 0)
(2 -1.27828e-13 0)
(2 -1.08785e-13 0)
(2 -6.82004e-14 0)
(1.90561 0.138732 0)
(2 -1.57404e-13 0)
(1.96484 0.0543282 0)
(2 -1.02173e-14 0)
(1.84607 0.212454 0)
(1.8329 0.228504 0)
(2 1.69343e-15 0)
(2.10746 -0.266689 0)
(2 1.19766e-13 0)
(1.83368 0.229175 0)
(2 -2.15274e-14 0)
(2 1.40541e-13 0)
(1.8319 0.229144 0)
(1.84243 0.217791 0)
(2 -1.58571e-13 0)
(1.82578 0.229496 0)
(2 -1.81998e-13 0)
(2.1052 -0.264537 0)
(2 -4.83636e-14 0)
(2 -2.02834e-13 0)
(2 -1.55995e-14 0)
(1.82781 0.231166 0)
(1.83485 0.225191 0)
(1.85085 0.206499 0)
(2 6.26657e-15 0)
(1.83035 0.230173 0)
(1.83184 0.228956 0)
(2 -1.46121e-13 0)
(1.83101 0.229479 0)
(2 -9.14175e-09 0)
(1.83251 0.22832 0)
(2 2.12236e-14 0)
(2.1133 -0.263245 0)
(2.00934 -0.0210078 0)
(2.11569 -0.264902 0)
(2 -3.43607e-11 0)
(2 -2.32914e-11 0)
(2 -3.28896e-11 0)
(2 3.63598e-15 0)
(2 -1.46483e-11 0)
(1.83201 0.229093 0)
(2 3.41135e-14 0)
(1.832 0.22905 0)
(2 -4.0201e-11 0)
(2 -9.85419e-11 0)
(2 2.96613e-14 0)
(1.83992 0.219449 0)
(2 -1.71721e-13 0)
(2.11728 -0.265056 0)
(1.83125 0.22867 0)
(2 -2.97906e-16 0)
(2.09807 -0.261256 0)
(2.1202 -0.242915 0)
(2.12056 -0.256816 0)
(2 5.62119e-14 0)
(1.91853 0.120523 0)
(1.98519 0.0182291 0)
(1.83084 0.229585 0)
(1.83155 0.22888 0)
(2 -1.28776e-13 0)
(2 -3.41963e-07 0)
(2 -9.00333e-08 0)
(2 -1.32467e-13 0)
(1.83127 0.22873 0)
(2 -1.13077e-14 0)
(2 -4.87277e-15 0)
(1.83135 0.22881 0)
(1.83189 0.229071 0)
(2 9.70976e-14 0)
(1.94149 0.0872278 0)
(2.0001 0.000514953 0)
(2 1.90696e-13 0)
(2.00126 -0.00195745 0)
(1.82977 0.228824 0)
(2.045 -0.100218 0)
(2 -1.204e-07 0)
(2.05348 -0.134883 0)
(2.10038 -0.259671 0)
(2.10083 -0.260402 0)
(1.99601 -0.0051678 0)
(1.83004 0.229067 0)
(1.83427 0.226648 0)
(1.96896 0.050959 0)
(1.83125 0.22881 0)
(1.83137 0.22902 0)
(2 -3.6854e-15 0)
(2 1.43286e-14 0)
(1.82863 0.228657 0)
(1.82978 0.228925 0)
(1.83133 0.229152 0)
(1.82865 0.228453 0)
(2 -3.61331e-13 0)
(1.83202 0.229303 0)
(2.11091 -0.265331 0)
(1.83206 0.229246 0)
(1.83087 0.229929 0)
(1.83054 0.227887 0)
(1.83082 0.22967 0)
(2.04038 -0.0873626 0)
(2.03849 -0.0788202 0)
(2.02162 -0.0426738 0)
(1.83141 0.228821 0)
(2.01759 -0.0317552 0)
(1.83077 0.229403 0)
(2 4.89894e-14 0)
(2 -1.07368e-13 0)
(1.8312 0.229904 0)
(1.83149 0.228826 0)
(2 -1.4155e-13 0)
(2.10321 -0.266564 0)
(1.82999 0.228619 0)
(1.83153 0.228993 0)
(2 4.56888e-14 0)
(1.83195 0.229185 0)
(1.83178 0.229158 0)
(2 3.98928e-14 0)
(1.83151 0.228824 0)
(2.10152 -0.261695 0)
(1.83236 0.228619 0)
(1.8294 0.228951 0)
(1.83031 0.228892 0)
(1.83137 0.231158 0)
(2 -3.3862e-13 0)
(2 -2.78849e-13 0)
(2 -9.93221e-08 0)
(1.83154 0.228861 0)
(1.89052 0.15577 0)
(2.09347 -0.254291 0)
(1.83128 0.228777 0)
(2.11988 -0.273846 0)
(1.83156 0.228814 0)
(2 -4.5831e-14 0)
(2 2.66747e-14 0)
(2 -7.78972e-14 0)
(2 1.59307e-14 0)
(1.83032 0.228763 0)
(1.8313 0.229013 0)
(2 1.56802e-13 0)
(2 2.53646e-14 0)
(1.8314 0.229019 0)
(2.11783 -0.266964 0)
(1.83113 0.228599 0)
(2.11369 -0.265279 0)
(2 -7.0622e-14 0)
(1.83261 0.227651 0)
(2 -4.01518e-15 0)
(2.1133 -0.266589 0)
(1.83072 0.229591 0)
(2.09505 -0.191168 0)
(2 -1.35761e-14 0)
(1.83134 0.228665 0)
(1.83056 0.230035 0)
(1.83194 0.229576 0)
(2 -1.21186e-14 0)
(2 -7.89469e-14 0)
(1.91506 0.12353 0)
(1.83085 0.229878 0)
(2.09276 -0.262462 0)
(1.83192 0.229006 0)
(2 -7.93039e-14 0)
(1.83202 0.229452 0)
(2.03143 -0.0843725 0)
(1.83213 0.229565 0)
(2.11889 -0.260467 0)
(2 4.13898e-14 0)
(1.83148 0.229195 0)
(2.11054 -0.237509 0)
(1.83124 0.229848 0)
(2.1075 -0.261326 0)
(2 -3.89436e-14 0)
(1.83121 0.229149 0)
(2 1.07005e-13 0)
(1.83166 0.229121 0)
(2 -3.65126e-14 0)
(1.90057 0.146 0)
(1.83778 0.221788 0)
(1.86822 0.187191 0)
(2.11861 -0.277602 0)
(2 -1.12186e-13 0)
(1.83136 0.228585 0)
(2 5.03383e-14 0)
(1.83181 0.228991 0)
(2 -1.13205e-07 0)
(1.83169 0.228942 0)
(2 -2.40364e-07 0)
(2 -3.4869e-13 0)
(1.83111 0.229269 0)
(2.00168 -0.0185481 0)
(1.83061 0.230123 0)
(2.1083 -0.262982 0)
(1.85607 0.198941 0)
(2 1.24563e-13 0)
(1.88105 0.173276 0)
(2 1.12374e-13 0)
(1.83043 0.229661 0)
(1.83177 0.229032 0)
(1.83077 0.230064 0)
(2 -3.01692e-14 0)
(1.84848 0.210644 0)
(1.83107 0.228901 0)
(1.84452 0.215136 0)
(1.89674 0.153508 0)
(1.82501 0.232762 0)
(2 5.087e-14 0)
(1.88938 0.157793 0)
(2 4.51695e-14 0)
(1.83082 0.229226 0)
(2 -1.45256e-13 0)
(1.9748 0.0415123 0)
(2 4.3536e-14 0)
(1.84389 0.215707 0)
(2 1.22726e-13 0)
(1.83193 0.229315 0)
(1.8397 0.219386 0)
(1.8397 0.219458 0)
(2 3.15405e-15 0)
(1.83343 0.23367 0)
(2.10069 -0.265309 0)
(2 -5.35062e-14 0)
(2.10812 -0.266186 0)
(2 -2.46841e-13 0)
(2 -8.28415e-14 0)
(2 -3.46982e-14 0)
(1.83008 0.228633 0)
(2 1.635e-13 0)
(1.83172 0.229227 0)
(2 6.91394e-14 0)
(2 -2.75039e-14 0)
(2 -2.91493e-14 0)
(1.83109 0.229437 0)
(1.82797 0.228965 0)
(1.87152 0.183785 0)
(1.83172 0.229147 0)
(1.83275 0.228274 0)
(2.12315 -0.26182 0)
(1.8322 0.229445 0)
(1.83034 0.228889 0)
(2 -9.2319e-14 0)
(1.84863 0.211127 0)
(1.83166 0.228868 0)
(1.84107 0.219231 0)
(2 4.84547e-14 0)
(1.83167 0.229228 0)
(1.83359 0.229428 0)
(2 -1.64531e-13 0)
(1.82961 0.231641 0)
(1.8314 0.228766 0)
(1.83075 0.228475 0)
(1.83074 0.229547 0)
(2 -6.38878e-14 0)
(2 1.06938e-13 0)
(2 4.64959e-14 0)
(1.83167 0.22875 0)
(2.10708 -0.268304 0)
(2 -3.34147e-13 0)
(1.83157 0.228738 0)
(2 -2.3741e-13 0)
(2 -1.03398e-13 0)
(2.11313 -0.269255 0)
(2 -1.02856e-13 0)
(2 -1.72787e-13 0)
(1.83129 0.228875 0)
(1.8319 0.2288 0)
(2 -8.8974e-14 0)
(1.83183 0.228888 0)
(1.83055 0.233118 0)
(1.83225 0.229546 0)
(2.00997 -0.0241219 0)
(1.83114 0.228765 0)
(2 3.31994e-14 0)
(1.83115 0.228816 0)
(1.83145 0.229053 0)
(1.87283 0.179262 0)
(2 -5.61102e-14 0)
(2 -2.21822e-13 0)
(2 -8.65373e-15 0)
(1.83227 0.228892 0)
(1.83132 0.228633 0)
(1.83169 0.229003 0)
(2.01207 -0.0270748 0)
(2 -9.07503e-14 0)
(1.82582 0.230763 0)
(1.83141 0.228583 0)
(1.8314 0.228214 0)
(2 -1.17481e-13 0)
(1.8315 0.228682 0)
(1.83089 0.229021 0)
(1.83154 0.228791 0)
(1.8261 0.230959 0)
(2 7.23686e-14 0)
(1.83166 0.229265 0)
(1.83202 0.226991 0)
(1.85008 0.200715 0)
(1.83156 0.228826 0)
(1.82683 0.230766 0)
(2 -2.3679e-14 0)
(1.83086 0.228883 0)
(1.83331 0.226898 0)
(1.83167 0.229003 0)
(1.83243 0.229087 0)
(1.83164 0.229432 0)
(2.11975 -0.263107 0)
(1.83186 0.22928 0)
(1.83115 0.228253 0)
(2 -3.66488e-14 0)
(1.83158 0.229056 0)
(1.83154 0.229003 0)
(1.83156 0.229184 0)
(1.83151 0.229 0)
(2 -5.49067e-08 0)
(1.83164 0.229059 0)
(1.83174 0.229004 0)
(2 -1.59992e-07 0)
(1.83165 0.228999 0)
(1.85929 0.19634 0)
(2 2.35693e-15 0)
(2 -2.80517e-14 0)
(2 7.95721e-10 0)
(1.83279 0.228313 0)
(1.83168 0.232632 0)
(2 1.1481e-13 0)
(2 -4.22765e-14 0)
(1.90728 0.136711 0)
(2 -1.72516e-13 0)
(1.83164 0.229155 0)
(2 9.88142e-14 0)
(2 6.64289e-14 0)
(1.83137 0.22902 0)
(1.83089 0.229679 0)
(1.83156 0.228965 0)
(1.83152 0.229071 0)
(2 4.75518e-16 0)
(2 4.65983e-14 0)
(2 8.58894e-14 0)
(1.88056 0.167548 0)
(2 -5.69659e-14 0)
(1.83148 0.229086 0)
(2 -4.13129e-13 0)
(2 -3.38784e-13 0)
(1.82831 0.22866 0)
(1.82954 0.228938 0)
(2 -4.54748e-14 0)
(1.8316 0.228714 0)
(2.12599 -0.273084 0)
(1.83152 0.22879 0)
(1.83133 0.228423 0)
(2.09668 -0.211096 0)
(2 6.96885e-14 0)
(2.12582 -0.272687 0)
(1.84871 0.20205 0)
(1.83102 0.228656 0)
(1.83202 0.229202 0)
(1.83203 0.228759 0)
(2.11637 -0.264712 0)
(1.83109 0.229017 0)
(1.83187 0.229764 0)
(2.11679 -0.263257 0)
(2.12142 -0.275749 0)
(2 -2.56904e-07 0)
(1.83132 0.22994 0)
(1.83175 0.229268 0)
(2 -1.31847e-13 0)
(2 4.00721e-14 0)
(1.83148 0.22905 0)
(2 -7.10084e-14 0)
(1.8281 0.229387 0)
(2 2.63255e-06 0)
(1.85315 0.204981 0)
(2 1.76637e-13 0)
(1.92203 0.119897 0)
(1.83156 0.229245 0)
(1.83045 0.229849 0)
(1.88041 0.170961 0)
(1.85551 0.198866 0)
(1.83038 0.228797 0)
(1.83037 0.229243 0)
(1.83879 0.230309 0)
(2 -2.25375e-13 0)
(2.11423 -0.268192 0)
(1.82961 0.231264 0)
(1.8319 0.228592 0)
(1.82922 0.230998 0)
(2 7.00509e-06 0)
(2 3.87471e-10 0)
(2 1.36021e-09 0)
(1.8296 0.231113 0)
(2 4.40048e-14 0)
(1.83193 0.228625 0)
(1.83189 0.228832 0)
(2.08797 -0.174601 0)
(2 1.75086e-13 0)
(1.8314 0.229127 0)
(2.00003 -5.25865e-05 0)
(2 -1.9612e-13 0)
(1.99999 1.95523e-05 0)
(1.99998 2.81368e-05 0)
(1.83204 0.22891 0)
(1.8321 0.228956 0)
(2.00055 -0.000914678 0)
(2 2.03782e-13 0)
(2 -8.69494e-14 0)
(1.83158 0.228724 0)
(1.83107 0.230048 0)
(1.83137 0.228877 0)
(1.83186 0.229108 0)
(1.83123 0.229596 0)
(2.11659 -0.251529 0)
(1.85911 0.195753 0)
(2 8.47296e-14 0)
(1.83273 0.227598 0)
(1.8316 0.22892 0)
(1.83204 0.229251 0)
(1.83591 0.223076 0)
(2 -1.64265e-13 0)
(1.8319 0.228992 0)
(1.83579 0.223922 0)
(1.83142 0.229593 0)
(2 -2.39091e-13 0)
(1.83028 0.229021 0)
(1.83141 0.228724 0)
(2.04681 -0.0999382 0)
(1.83196 0.229134 0)
(1.83071 0.229207 0)
(2 -2.18921e-13 0)
(1.83125 0.229138 0)
(2.05711 -0.111429 0)
(1.83151 0.228666 0)
(2.04708 -0.0978407 0)
(1.83193 0.229073 0)
(2 -1.23069e-07 0)
(1.83129 0.228883 0)
(1.82565 0.232863 0)
(1.83188 0.2289 0)
(1.83163 0.228977 0)
(1.83138 0.228954 0)
(1.82718 0.227749 0)
(1.83161 0.229149 0)
(1.83081 0.228063 0)
(2 -2.47274e-13 0)
(2.01982 -0.0419915 0)
(1.83148 0.228642 0)
(1.83148 0.228808 0)
(2.05184 -0.102815 0)
(1.83152 0.228899 0)
(2.00452 -0.0147887 0)
(1.89239 0.153184 0)
(1.83132 0.228604 0)
(1.82947 0.228548 0)
(1.83086 0.22797 0)
(2 6.67316e-14 0)
(1.83075 0.230182 0)
(1.89393 0.15992 0)
(1.83107 0.22852 0)
(2.0211 -0.0539425 0)
(1.83079 0.2298 0)
(1.82708 0.229927 0)
(2 7.37387e-14 0)
(2.04489 -0.0894404 0)
(2 -7.50661e-09 0)
(1.83896 0.223773 0)
(2 6.44906e-14 0)
(1.88299 0.167964 0)
(2 3.14632e-09 0)
(1.83469 0.231763 0)
(2.04402 -0.0887722 0)
(2 -4.858e-14 0)
(1.83198 0.228313 0)
(1.83328 0.232154 0)
(2 1.93955e-14 0)
(1.82973 0.229264 0)
(1.83075 0.229768 0)
(1.82672 0.231133 0)
(1.83896 0.223839 0)
(1.82963 0.230026 0)
(2 -8.57863e-14 0)
(1.83028 0.229341 0)
(2 2.11919e-14 0)
(2 -1.64505e-14 0)
(2 1.39913e-13 0)
(2.03787 -0.0757887 0)
(1.83163 0.22863 0)
(1.83191 0.228491 0)
(1.83127 0.228635 0)
(1.83163 0.228792 0)
(1.82725 0.230263 0)
(1.83139 0.229539 0)
(1.82676 0.231216 0)
(1.83173 0.22923 0)
(2.03343 -0.0737791 0)
(1.98701 0.0234688 0)
(2 3.63783e-09 0)
(2 -8.99921e-14 0)
(1.82507 0.231581 0)
(1.83173 0.229034 0)
(1.83148 0.229047 0)
(1.83164 0.22909 0)
(1.99999 1.64957e-05 0)
(1.9158 0.127873 0)
(2 -1.67461e-07 0)
(1.82967 0.231407 0)
(1.84936 0.211879 0)
(2 -3.03499e-12 0)
(2 -6.12863e-11 0)
(2.08832 -0.18442 0)
(1.8315 0.229017 0)
(2 8.94083e-15 0)
(2 -2.53023e-14 0)
(2.09813 -0.263006 0)
(1.83144 0.229085 0)
(2 -8.93046e-14 0)
(1.83043 0.228869 0)
(1.83155 0.229224 0)
(1.8302 0.228737 0)
(1.83869 0.221798 0)
(1.83122 0.228925 0)
(2 -1.71807e-10 0)
(2.12016 -0.27037 0)
(1.95869 0.0646191 0)
(1.83114 0.228748 0)
(1.83124 0.228941 0)
(2 -4.46186e-14 0)
(1.83214 0.229349 0)
(1.83132 0.228859 0)
(1.91609 0.123672 0)
(1.99888 0.00622658 0)
(1.96343 0.0596659 0)
(2 6.25862e-14 0)
(1.83175 0.229188 0)
(1.83145 0.228873 0)
(2 -1.18618e-07 0)
(2 -2.16272e-10 0)
(2.12115 -0.266994 0)
(2 -2.35722e-10 0)
(2 9.14227e-14 0)
(1.83179 0.228921 0)
(1.83159 0.228784 0)
(1.831 0.228758 0)
(1.83152 0.228796 0)
(1.83147 0.228901 0)
(1.8296 0.227589 0)
(1.83118 0.228893 0)
(1.83163 0.227673 0)
(1.83126 0.22896 0)
(2 -5.03224e-14 0)
(2.00166 -0.00262585 0)
(1.83166 0.22912 0)
(1.8317 0.228827 0)
(2.00118 -0.00197091 0)
(1.83149 0.228716 0)
(1.83137 0.229 0)
(2.11746 -0.265675 0)
(2.10967 -0.265633 0)
(1.83185 0.228011 0)
(1.82784 0.230534 0)
(2 -2.73142e-14 0)
(2 1.84187e-13 0)
(1.99918 0.00210628 0)
(1.83139 0.229206 0)
(1.83191 0.229341 0)
(1.83152 0.229057 0)
(2 9.73103e-10 0)
(1.83141 0.228719 0)
(2 -2.67685e-14 0)
(2.05699 -0.09193 0)
(1.8291 0.231545 0)
(1.82479 0.231323 0)
(2 -1.90523e-13 0)
(1.92666 0.113835 0)
(1.831 0.228978 0)
(2 -1.84497e-13 0)
(1.82851 0.228165 0)
(2 -1.01482e-10 0)
(1.83153 0.229197 0)
(1.89005 0.159281 0)
(1.83133 0.229696 0)
(2 1.45023e-11 0)
(1.83177 0.228963 0)
(1.83192 0.228799 0)
(2.12297 -0.265451 0)
(1.83161 0.228921 0)
(2 -1.27827e-07 0)
(1.83159 0.228599 0)
(1.83037 0.228841 0)
(2 7.40261e-09 0)
(2.11896 -0.263293 0)
(1.83263 0.228049 0)
(1.85355 0.211539 0)
(2.00078 -0.00111888 0)
(1.8419 0.217549 0)
(1.83152 0.229028 0)
(2 -5.68549e-12 0)
(2.00341 -0.00307185 0)
(1.83224 0.229536 0)
(2.00129 -0.00128963 0)
(1.83167 0.228988 0)
(2 -3.35036e-12 0)
(2 -8.85529e-14 0)
(1.83153 0.229215 0)
(2 -1.53857e-14 0)
(1.83121 0.228804 0)
(1.83145 0.228784 0)
(2.00132 -0.00232656 0)
(1.87742 0.177078 0)
(2 3.23725e-09 0)
(1.83145 0.228955 0)
(2 -2.13271e-10 0)
(2 -8.47903e-13 0)
(2 1.15858e-11 0)
(2 5.96787e-12 0)
(1.83175 0.229081 0)
(2 7.31411e-09 0)
(2 -1.99878e-13 0)
(1.83851 0.223856 0)
(2 1.20603e-13 0)
(1.8315 0.228769 0)
(2 3.36239e-10 0)
(1.89356 0.154464 0)
(1.83099 0.229515 0)
(1.8319 0.228324 0)
(2 7.63408e-10 0)