/*--------------------------------*- C++ -*----------------------------------*\
  =========                 |
  \\      /  F ield         | OpenFOAM: The Open Source CFD Toolbox
   \\    /   O peration     | Website:  https://openfoam.org
    \\  /    A nd           | Version:  12
     \\/     M anipulation  |
\*---------------------------------------------------------------------------*/
FoamFile
{
    format      ascii;
    class       volScalarField;
    location    "1.12";
    object      rho;
}
// * * * * * * * * * * * * * * * * * * * * * * * * * * * * * * * * * * * * * //

dimensions      [1 -3 0 0 0 0 0];

internalField   nonuniform List<scalar> 
22702
(
1.40001
1.40001
1.26134
1.40001
1.44467
1.40001
1.84167
1.40001
1.40001
1.08114
1.8395
1.84115
1.40001
1.82181
1.28027
1.40001
1.40001
1.40001
1.83927
1.40001
1.81619
1.40001
1.84242
1.0004
1.8321
1.02549
1.40001
1.84752
1.04953
1.02389
1.40001
1.84004
1.40001
1.40001
1.40001
1.78731
1.82995
1.84102
1.40001
1.40001
1.08784
1.40001
1.60618
1.40001
1.84598
1.40001
1.40001
1.40001
1.40001
1.02836
1.40001
1.02463
1.40001
1.83936
1.40001
1.83824
1.40001
1.40001
1.40001
1.40001
1.01282
1.40001
1.40001
1.03337
1.40001
0.976898
1.40001
1.40001
1.40001
1.07038
1.40001
1.84181
1.65525
1.40001
1.8412
1.86004
0.99603
1.8425
1.02029
1.40001
1.83581
1.0288
1.83503
1.84429
1.40001
1.40001
1.40001
1.40001
1.31227
1.08967
1.83109
1.40001
1.40001
1.02188
1.40001
1.81652
1.0327
1.40001
1.40001
1.40001
1.40001
1.60612
1.83622
1.05152
1.40001
1.40001
1.49328
1.40001
1.02776
1.40001
1.83909
1.83897
1.40001
1.40001
1.02362
1.02084
1.08913
1.40001
1.40001
1.40001
1.40001
1.40001
1.29805
1.40001
1.76302
1.42867
1.83996
1.40001
1.83239
1.83816
1.82116
1.84012
1.40001
1.06846
1.40001
0.98048
1.40001
1.40001
1.40001
1.40001
1.83761
1.40001
1.40001
1.40001
1.40001
1.84194
1.40001
1.4252
1.40001
1.40001
1.40001
1.40001
1.02653
1.40001
1.41035
1.40001
1.02121
1.40001
1.40001
1.40001
1.82943
1.40001
1.84475
0.999471
1.02936
1.844
1.84532
1.40001
1.45614
1.63874
1.40001
1.83769
1.02132
1.78747
1.40001
1.40001
1.40001
1.40001
1.82242
1.7752
1.40001
1.8371
1.00195
1.83773
1.40001
1.05463
1.40001
1.03022
1.01715
1.39979
1.40001
1.40001
1.84003
1.40001
1.40001
1.83867
1.40001
1.83191
1.83733
1.02705
1.40001
1.40001
1.02953
1.84338
1.40001
1.40001
1.40001
1.84277
1.40001
1.06806
1.40001
1.40001
1.8418
1.84233
1.83449
1.40001
1.40004
1.40001
1.40001
1.40001
1.81617
1.40001
0.992143
1.8559
1.83926
1.82353
1.40001
1.40001
1.40001
1.0173
1.83973
1.61211
1.40001
1.81703
0.990684
1.03142
1.81721
1.84481
1.40001
1.84249
1.04197
1.77394
1.40001
1.40001
1.40001
1.40001
1.84065
1.40001
1.65189
1.44412
1.40001
1.40001
1.84408
1.01413
1.16849
1.40001
1.8447
1.0835
1.83986
1.40001
1.40001
1.40001
1.40001
1.40001
1.40001
1.40001
1.02693
1.17043
1.01631
1.84148
1.40001
1.40001
1.40001
1.40001
1.78857
1.40001
1.02727
1.40001
1.00548
1.03098
1.84352
0.976966
1.81567
1.40001
1.40001
1.40001
1.39766
1.05247
1.02694
1.4
1.40001
1.00695
1.40001
1.83786
1.05715
1.40001
1.40001
1.83711
0.995895
1.40001
1.83807
1.02276
1.84478
1.40001
1.0085
1.39762
1.40001
1.40001
1.40001
1.02046
1.40001
1.40001
1.4
1.40002
1.39997
1.65447
1.40001
1.06445
1.40001
1.40001
1.40001
1.40001
1.40001
1.40001
1.40001
1.83958
1.40001
1.84049
1.40001
1.40001
1.40001
1.06113
1.40001
1.84232
0.977829
1.40001
1.74849
1.40001
1.40001
1.83798
1.40001
1.40001
1.40001
1.82622
1.40001
1.40001
1.83084
1.83776
1.40001
1.47435
1.40001
1.40001
0.990897
1.40001
1.40001
1.40001
1.01512
1.40001
1.40001
1.40001
1.40001
1.03875
1.40001
1.40001
1.40001
1.40001
1.40001
1.05806
1.40007
1.84432
1.40001
1.40002
1.84407
1.84541
1.40001
1.40001
1.03667
1.18146
1.83659
1.40001
1.40001
1.40001
1.8436
1.06848
1.40001
1.84496
1.40001
1.40001
1.06771
1.09449
1.40001
1.04058
1.05629
1.40001
1.40001
1.40001
1.40001
1.40001
1.40001
1.40001
1.84917
1.49884
1.81128
1.05669
1.31683
1.83702
1.40001
1.84169
1.8379
0.984331
1.14589
1.40001
1.07267
1.40001
1.84721
1.40001
1.40001
1.40001
1.40001
1.84103
1.40001
1.40001
1.40001
1.40001
1.40001
1.40001
1.40001
1.55393
1.83226
1.40001
1.84123
1.40001
1.40001
1.02959
1.40001
1.40001
1.40001
1.40001
1.84349
1.73839
1.40001
1.40001
1.03184
1.83961
1.8413
1.40001
1.84154
1.83878
1.84216
1.40001
1.2049
1.40001
1.83863
1.37008
1.84174
1.40001
1.01915
1.39885
1.83751
1.40001
1.40001
1.40001
1.40001
1.03395
1.83918
1.77971
1.40001
1.83188
1.83991
1.83632
1.40001
1.61172
1.82681
1.40001
1.40001
1.70596
1.46658
1.8418
1.3098
1.84162
1.40001
1.84185
1.84087
1.84195
1.83978
1.40001
1.82203
1.32719
1.29809
1.40001
1.4
1.40001
1.40001
1.84918
1.40001
1.40001
1.40001
1.40001
1.40001
1.83748
1.40001
1.40001
1.39651
1.84118
1.79238
1.40001
1.76392
1.40005
1.40001
1.40001
1.84244
1.40001
1.39631
1.4045
1.40001
1.84068
1.40001
1.83894
1.40001
1.40001
1.7276
1.40001
1.84022
1.40003
1.40001
1.84155
1.40001
1.84348
1.40001
1.40001
1.40001
1.8397
1.40001
1.84804
1.40001
1.8402
1.83853
1.83898
1.84944
1.40001
1.83895
1.83303
1.40001
1.04342
1.81427
1.70218
1.40001
1.83945
1.40001
1.0094
1.01562
1.40001
1.40001
1.40001
1.40001
1.40001
1.04099
1.40001
1.84144
1.52106
1.84276
1.40001
1.40001
1.40001
1.40001
1.40001
1.84187
1.40001
1.84577
1.66414
1.14192
1.40001
1.40001
1.52047
1.50669
1.40001
1.40001
1.54762
1.40001
1.02133
1.84275
1.84052
1.40001
1.40001
1.40001
1.83733
1.40001
1.40003
1.83096
1.84135
1.3284
1.40001
1.40001
1.02866
1.80212
1.40001
1.40001
1.40001
1.40001
1.40001
1.84223
1.83766
1.40001
1.84364
1.8447
1.84172
1.40001
1.40001
1.40001
1.40001
1.04876
1.83882
1.40001
1.40001
1.80336
1.83989
1.40001
1.81678
1.82901
1.40001
1.40001
1.40001
1.40001
1.40001
1.84065
1.40001
1.40001
1.40001
1.40001
1.8478
1.40001
1.83363
1.06797
1.40001
0.988195
1.40001
1.40001
1.40001
1.397
1.03329
1.39895
1.40001
1.40001
1.40001
1.45915
1.40001
1.40001
1.24541
1.40001
1.40001
1.40001
1.40001
1.40001
1.40001
1.40001
1.4
1.34394
1.4
1.40001
1.39783
1.40001
1.03476
1.40001
1.40001
1.40001
1.40001
1.73219
1.40001
1.40001
1.40001
1.40001
0.99359
1.40001
1.40001
1.8162
1.83946
1.4
1.40001
1.40001
1.27781
1.40001
1.40001
1.40001
1.40001
1.40001
1.40001
1.35552
1.42099
1.81589
1.40001
1.40001
1.40001
1.84656
1.28687
1.40001
1.40001
1.40001
1.84594
1.84345
1.40001
1.40001
1.40001
1.40001
1.40001
1.40001
1.40001
1.40001
1.40001
1.05798
1.40001
1.40001
1.83901
1.06283
1.40001
1.83877
1.40001
1.024
1.40001
1.40001
1.05052
1.40001
1.40001
1.40001
1.40001
1.40001
1.40001
1.40001
1.83252
1.83994
1.40001
1.40001
1.40001
1.40001
1.80507
1.40001
1.5419
1.04431
1.40001
1.40001
1.40001
1.40001
1.40001
1.40001
1.40001
1.43809
1.40001
1.40001
1.62857
1.40001
1.40001
1.40001
1.74458
1.40001
1.40001
1.40001
1.40001
1.08109
1.40001
1.40001
1.04417
1.07506
1.40001
1.40001
1.83803
1.40001
1.38469
1.40001
1.40001
1.40001
1.70662
0.99662
1.40001
0.992525
1.40001
1.15145
1.40001
1.40001
1.40001
1.84196
1.40001
1.40001
1.84151
1.40001
1.40001
1.40001
1.84147
1.40001
1.40001
1.844
1.40001
1.40001
0.988123
1.40001
1.53483
1.40001
1.40001
1.83727
1.83757
1.69778
1.79548
1.40001
1.02853
1.40001
1.40001
1.82207
1.40001
1.05437
1.40001
1.40001
1.40001
1.84241
1.40001
1.40001
1.40001
1.40001
1.66633
1.40001
1.79365
1.83845
1.07163
1.40001
1.40001
1.03655
1.02306
1.40001
1.40001
1.40001
1.71321
1.7352
1.40001
1.40001
1.40001
1.40001
1.40001
1.40001
1.40001
1.59179
1.84834
1.39852
1.40001
1.8103
1.04985
1.40001
1.40001
1.40001
1.64026
1.40001
1.48894
1.40001
1.80352
1.8402
1.40001
1.0144
1.40001
1.83736
1.40001
1.40001
1.84097
1.81535
1.40001
1.84363
1.40001
1.01091
1.40001
1.40001
1.40001
1.8383
1.83295
1.78952
1.40001
1.84182
1.84081
1.40001
1.84338
1.40001
1.84028
1.40001
1.08351
1.36451
1.06181
1.40001
1.40001
1.40001
1.40001
1.40001
1.83895
1.40001
1.84368
1.40001
1.40001
1.40001
1.8205
1.40001
0.992246
1.84086
1.40001
1.08676
1.03063
1.03026
1.40001
1.61832
1.42461
1.84365
1.84065
1.40001
1.4
1.40001
1.40001
1.84021
1.40001
1.40001
1.84124
1.84263
1.40001
1.53809
1.39979
1.40001
1.39679
1.82811
1.26827
1.40001
1.23024
1.02424
1.02201
1.3591
1.84619
1.83612
1.48221
1.84172
1.84344
1.40001
1.40001
1.84442
1.83983
1.84138
1.84018
1.40001
1.84236
1.07043
1.84193
1.83993
1.84086
1.84849
1.23661
1.28291
1.34483
1.84182
1.36094
1.84314
1.40001
1.40001
1.84412
1.84122
1.40001
1.06384
1.83997
1.84316
1.40001
1.84179
1.842
1.40001
1.83951
1.05416
1.8344
1.85076
1.83983
1.83825
1.40001
1.40001
1.40001
1.84247
1.68817
1.08193
1.84163
1.05765
1.83946
1.40001
1.40001
1.40001
1.40001
1.8395
1.84194
1.40001
1.40001
1.84201
1.05902
1.84199
1.03152
1.40001
1.83866
1.40001
1.07098
1.84259
1.09184
1.40001
1.84061
1.84421
1.84099
1.40001
1.40001
1.61983
1.84395
1.0289
1.84142
1.40001
1.84052
1.27621
1.84134
1.04921
1.40001
1.83989
1.08298
1.84412
1.02882
1.40001
1.84189
1.40001
1.83394
1.40001
1.64114
1.82506
1.74765
1.00088
1.40001
1.84205
1.40001
1.84009
1.40001
1.84202
1.40001
1.40001
1.84099
1.36591
1.84471
1.04773
1.79759
1.40001
1.69359
1.40001
1.84159
1.84189
1.83945
1.40001
1.79819
1.84228
1.8087
1.67151
1.85091
1.40001
1.69491
1.40001
1.84126
1.40001
1.46148
1.40001
1.80998
1.40001
1.84012
1.82109
1.82082
1.40001
1.83915
1.00881
1.40001
1.05199
1.40001
1.40001
1.40001
1.83475
1.40001
1.84257
1.40001
1.40001
1.40001
1.8433
1.82718
1.77005
1.84026
1.84132
0.993955
1.83903
1.83034
1.40001
1.80007
1.84161
1.82008
1.40001
1.83753
1.83821
1.40001
1.84549
1.84185
1.84032
1.84262
1.40001
1.40001
1.40001
1.84037
1.05704
1.40001
1.84221
1.40001
1.40001
1.0149
1.40001
1.40001
1.84148
1.84214
1.40001
1.84137
1.83751
1.84156
1.35146
1.84206
1.40001
1.84236
1.84159
1.75861
1.40001
1.40001
1.40001
1.84406
1.84054
1.84208
1.34793
1.40001
1.84747
1.84032
1.84452
1.40001
1.84093
1.84121
1.8418
1.85101
1.40001
1.84092
1.84565
1.78469
1.83911
1.8494
1.40001
1.84141
1.83666
1.84187
1.84408
1.8409
1.02344
1.84302
1.84372
1.40001
1.84144
1.84152
1.84236
1.84155
1.40001
1.84193
1.84135
1.40001
1.84398
1.77138
1.40001
1.40001
1.40001
1.8384
1.8416
1.40001
1.40001
1.63891
1.40001
1.81621
1.40001
1.40001
1.84245
1.81724
1.84171
1.84331
1.40001
1.40001
1.40001
1.7087
1.40001
1.84274
1.40001
1.40001
1.83159
1.85077
1.40001
1.84182
1.06032
1.84006
1.84
1.12644
1.40001
1.01798
1.78324
1.84988
1.84214
1.84242
1.01135
1.84166
1.84464
1.00606
1.03572
1.40001
1.8392
1.83982
1.40001
1.40001
1.84207
1.40001
1.84282
1.40001
1.78614
1.40001
1.58527
1.84009
1.84339
1.70446
1.80095
1.83083
1.84242
1.8214
1.40001
1.04293
1.8401
1.84085
1.84451
1.40002
1.40001
1.40001
1.84219
1.40001
1.84066
1.83612
1.13594
1.40001
1.84208
1.39994
1.40001
1.40003
1.40005
1.8399
1.84428
1.39847
1.40001
1.40001
1.8402
1.84439
1.84154
1.84194
1.83994
1.04531
1.7844
1.40001
1.83849
1.84174
1.8429
1.84594
1.40001
1.84132
1.8305
1.84344
1.40001
1.84274
1.83937
1.23211
1.84133
1.84301
1.40001
1.84191
1.22325
1.84163
1.23838
1.84192
1.40001
1.84131
1.84256
1.8419
1.84185
1.84161
1.84553
1.84236
1.8401
1.40001
1.32618
1.84203
1.8413
1.23953
1.8415
1.39439
1.66974
1.84102
1.84185
1.84004
1.40001
1.84487
1.66933
1.84337
1.29162
1.84402
1.84783
1.40001
1.26625
1.40001
1.84077
1.40001
1.69144
1.40001
1.81234
1.27195
1.40001
1.83905
1.84161
1.40001
1.8401
1.84383
1.85317
1.844
1.84874
1.40001
1.83929
1.40001
1.40001
1.40001
1.30229
1.84415
1.84216
1.84926
1.84172
1.84655
1.84434
1.83739
1.84246
1.30914
1.43118
1.40001
1.40001
1.84223
1.84225
1.84126
1.84179
1.40003
1.62071
1.40001
1.84592
1.78763
1.40001
1.40001
1.14824
1.84169
1.40001
1.40001
1.08936
1.84174
1.40001
1.83907
1.84242
1.82998
1.8257
1.84132
1.40001
1.01386
1.5071
1.84011
1.84138
1.40001
1.84249
1.84171
1.6255
1.40997
1.49411
1.40001
1.83367
1.84276
1.40001
1.40001
1.00637
1.40001
1.40001
1.84183
1.84212
1.84259
1.84108
1.84231
1.83992
1.842
1.84084
1.84072
1.40001
1.39602
1.84288
1.84004
1.39687
1.84205
1.84164
1.01379
1.06226
1.845
1.8382
1.40001
1.40001
1.40138
1.84139
1.83853
1.84185
1.40001
1.84166
1.40001
1.25189
1.84455
1.84314
1.40001
1.59064
1.83863
1.40001
1.83834
1.40001
1.84064
1.69619
1.83831
1.40001
1.84027
1.84679
1.00486
1.84237
1.40001
1.8412
1.84825
1.40001
1.02087
1.84491
1.76805
1.39781
1.82385
1.84151
1.40001
1.39875
1.83769
1.39807
1.84245
1.40001
1.40001
1.84415
1.40001
1.84519
1.84197
1.3964
1.74833
1.40001
1.84162
1.40001
1.40001
1.40001
1.40001
1.84177
1.40001
1.40001
1.84728
1.40001
1.84191
1.40001
1.6655
1.84054
1.84156
1.40001
1.40001
1.38962
1.40001
1.84211
1.84205
1.83994
1.84136
1.84
1.8422
1.84183
1.40001
1.84126
1.8421
1.40001
1.84245
1.84078
1.40001
1.8422
1.33028
1.45874
1.84151
1.84097
1.84122
1.40001
1.84155
1.40001
1.84208
1.8419
1.40001
1.84298
1.40001
1.40001
1.40001
1.40001
1.84073
1.01184
1.39785
1.40001
1.84097
1.84902
1.40001
1.8411
1.40001
1.40534
1.05801
1.84139
1.39961
1.40001
1.84018
1.3984
1.8416
1.40001
1.39978
1.40001
1.83955
1.84801
1.84242
1.84036
1.03495
1.84157
1.84324
1.84175
1.51
1.40001
1.40001
1.59216
1.8424
1.01087
1.03779
1.40001
1.84102
1.84344
1.84529
1.40001
1.40001
1.84316
1.84336
1.39989
1.40001
1.72528
1.05934
1.40001
1.47517
1.83869
1.84695
1.39825
1.84183
1.84865
1.40001
1.39908
1.40001
1.84694
1.83019
1.5796
1.40001
1.81816
1.40001
1.40191
1.83974
1.09178
1.83817
1.8419
1.39703
1.39992
1.78792
1.40001
1.39972
1.40001
1.8463
1.40001
1.40002
1.04691
1.84206
1.40001
1.40001
1.40001
1.40001
1.84302
1.64173
1.40001
1.40001
1.05733
1.84173
1.64272
1.40001
1.40001
1.40001
1.80414
1.82637
1.84219
1.40001
1.40001
1.84895
1.40001
1.8419
1.84076
1.40001
1.40001
1.84285
1.84209
1.82388
1.40001
1.40001
1.84349
1.84316
1.40001
1.40001
1.40001
1.84652
1.40001
1.40001
1.40001
1.84279
1.84296
1.84381
1.40001
1.84179
1.40004
1.11867
1.83818
1.83691
1.40001
1.84126
1.82194
1.83959
1.40001
1.40001
1.84785
1.40001
1.64966
1.84464
1.40001
1.01049
1.40001
1.84234
1.40001
1.40001
1.84547
1.40001
1.40001
1.40001
1.54344
1.84596
1.09389
1.40002
1.84202
1.40001
1.40001
1.84179
1.40001
1.84695
1.40001
1.40001
1.84154
1.83707
1.40001
1.40006
1.40001
1.40001
1.40001
1.40001
1.40001
1.40001
1.83684
1.84239
1.40001
1.83853
1.02809
1.84004
1.40001
1.84188
1.85076
1.8416
1.84997
1.83933
1.40001
1.40001
1.84564
1.40001
1.66869
1.8447
1.84335
1.40001
1.84363
1.84594
1.40001
1.78725
1.40001
1.83999
1.66813
1.84623
1.39754
1.83481
1.79689
1.84204
1.84198
1.43538
1.8413
1.8446
1.40001
1.8412
1.40001
1.83946
1.40001
1.40001
1.40001
1.40001
1.39635
1.84181
1.83943
1.77254
1.40001
1.84624
1.40001
1.40001
1.40001
1.05101
1.40001
1.83051
1.40001
1.78888
1.84148
1.40001
1.40001
1.40001
1.80963
1.83202
1.40001
1.40001
1.84244
1.04165
1.46682
1.40001
1.8449
1.84091
1.79204
1.82988
1.84315
1.40001
1.84119
1.40001
1.40001
1.40001
1.40001
1.84303
1.84277
1.40001
1.83351
1.45335
1.84094
1.7971
1.40001
1.40001
1.80049
1.40001
1.40001
1.00729
1.7188
1.40001
1.40001
1.84628
1.40001
1.84511
1.80135
1.40001
1.80179
1.03897
1.84246
1.84107
1.84201
1.40001
0.994311
1.40001
1.40001
1.40001
1.84406
1.7589
1.40001
1.84907
1.84246
1.4
1.84204
1.40001
1.40001
1.40001
1.40001
1.84403
1.39931
1.40001
1.84255
1.40001
1.40001
1.8394
1.8406
1.40001
1.8471
1.4834
1.40003
1.40001
1.84138
1.40001
1.84112
1.40001
1.41513
1.84199
1.40001
1.84162
1.40001
1.40001
1.53536
1.84157
1.40001
1.40001
1.40001
1.40001
1.40001
1.3966
1.00654
1.03073
1.41939
1.40001
1.41595
1.40001
1.42094
1.40001
1.84273
1.40001
1.66733
1.40001
1.84176
1.40001
1.40001
1.40001
1.84194
1.40001
1.74286
1.8407
1.40001
1.63433
1.84241
1.40001
1.40001
1.83485
1.84117
1.40001
1.40001
1.4437
1.00057
1.40001
1.84555
1.40001
1.40001
1.40001
1.40001
1.47445
1.84369
1.40001
1.40001
1.40001
1.04173
1.40001
1.84164
1.84209
1.84565
1.40001
1.40001
1.40001
1.40001
1.61902
1.84395
1.40001
1.40001
1.40001
1.84713
1.84052
1.44518
1.40001
1.40001
1.40001
1.8395
1.84016
1.40001
1.01106
1.84015
1.84261
1.83689
1.83752
1.8408
1.40001
1.40001
1.84252
1.83967
1.84188
1.03928
1.44064
1.83884
1.40001
1.40001
1.40001
1.40001
1.40001
1.84174
1.03906
1.40001
1.40001
1.84193
1.60011
1.40001
1.83596
1.40001
1.40001
1.40001
1.04954
1.40001
1.40001
1.5121
1.84094
1.84081
1.40001
1.83041
1.84929
1.40001
1.46663
1.40001
1.85084
1.40001
1.84136
1.04201
1.40001
1.40001
1.40001
1.40001
1.84211
1.40007
1.40001
1.40001
1.40001
1.83189
1.40001
1.40001
1.40001
1.40001
1.84245
1.03994
1.75108
1.84479
1.40001
1.84321
1.40001
1.40001
1.40001
1.39713
1.40001
1.84307
1.40001
1.18198
1.40001
1.40001
1.40004
1.83962
1.08696
1.40001
1.8382
1.40001
1.83818
1.83962
1.0628
1.40001
1.40001
1.82598
1.40001
1.40001
1.01031
1.40001
1.84669
1.40001
1.80663
1.39933
1.8417
1.40001
1.40001
1.40001
1.40001
1.83926
1.40001
1.40001
1.84061
1.40001
1.40001
1.40001
1.40001
1.40001
1.40001
1.40001
1.40001
1.68891
1.40001
1.54739
1.84472
1.40001
1.40001
1.40001
1.00528
1.40001
1.40001
1.40001
1.40001
1.84422
1.84182
1.45163
1.40001
1.40001
1.84186
1.40001
1.40001
1.84055
1.40001
1.40002
1.40001
1.40001
1.40001
1.40002
1.84073
1.16225
1.84097
1.8425
1.39701
1.40001
1.40001
1.40001
1.66121
1.40001
1.40001
1.84037
1.842
1.40001
1.40001
1.40001
1.40001
1.07202
1.40001
1.40001
1.40001
1.68124
1.40001
1.84166
1.84445
1.40001
1.84334
1.40001
1.40001
1.40001
1.63188
1.40001
1.83992
1.40001
1.83971
1.40001
1.40001
1.39599
1.84078
1.40001
1.40001
1.40001
1.40001
1.40001
1.84165
1.40003
1.40001
1.01018
1.84326
0.992845
1.40001
1.83781
1.40001
1.39563
1.40001
1.84302
1.84017
1.40001
1.82316
1.26406
1.84176
1.84428
1.40004
1.40001
1.40001
1.02778
1.40001
1.40001
1.40001
1.84136
1.65695
1.84417
1.40001
1.40001
1.40001
1.40001
1.39666
1.84388
1.40001
1.0353
1.40001
1.40001
1.40001
1.40001
1.40001
1.40001
1.40001
1.85056
1.8436
1.83603
1.40001
1.40001
1.39685
1.40001
1.37248
1.40001
1.40001
1.40001
1.03654
1.36369
1.40001
1.0473
1.00341
1.40001
1.84234
1.84138
1.40001
1.84394
1.84233
1.02669
1.69215
1.40001
1.40001
1.40001
1.03834
1.84228
1.40001
1.02829
1.40001
1.84216
1.46665
1.40001
1.40001
1.40001
1.40001
1.84018
1.84122
1.40001
1.40001
1.84064
1.40001
1.40001
1.83926
1.8418
1.40001
1.78902
1.84078
1.83618
1.36433
1.83823
1.40823
1.03252
1.74152
1.84339
1.40001
1.40001
1.40001
1.07615
1.40001
1.001
1.8484
1.35531
1.84069
1.33784
1.40001
1.84202
1.60356
1.40001
1.40001
1.84618
1.40001
1.58247
1.84238
1.40001
1.40001
1.83828
1.84316
1.0194
1.66427
1.3999
1.40001
1.6656
1.40001
1.83513
1.34148
1.84469
1.84549
1.40001
1.40001
1.40001
1.40001
1.83038
1.40001
1.40001
1.8431
1.39966
1.84173
1.75179
1.84471
1.03105
1.40001
1.40001
1.40001
1.40001
1.83992
1.40005
1.84152
1.40001
1.84285
1.84269
1.45825
1.83716
1.54034
1.84394
1.40001
1.69231
1.067
1.83633
1.84114
1.7777
1.47062
1.84092
1.84157
1.84194
1.84117
1.40001
1.30253
1.46516
1.40001
1.84144
1.61449
1.84148
1.40004
1.40001
1.40001
1.05722
1.83954
1.83956
1.76509
1.40001
1.56118
1.40001
1.84385
1.84059
1.40001
1.84309
1.83989
1.40001
1.40001
1.40001
1.84391
1.40001
1.58356
1.8451
1.70965
1.40001
1.84206
1.40001
1.40001
1.40001
1.40001
1.40001
1.40001
1.40001
1.40001
1.40001
1.40001
1.0664
1.40001
1.82115
1.02975
1.66112
1.39854
1.83875
1.40001
1.63166
1.40002
1.66969
1.78744
1.40001
1.40313
1.84413
1.30392
1.40001
1.84097
1.84909
1.34396
1.40001
1.83943
1.84184
1.84367
1.40001
1.84154
1.84241
1.84382
1.40001
1.60172
1.40001
1.40006
1.84061
1.40001
1.84186
1.46251
1.84222
1.40001
1.40001
1.84724
1.84447
1.04726
1.40001
1.841
1.73338
1.82522
1.40001
1.40001
1.8368
1.83938
1.39823
1.40001
1.7794
1.39687
1.84093
1.4001
1.40001
1.40001
1.40001
1.40001
1.60034
1.40001
1.74293
1.84622
1.72963
1.84221
1.40001
1.40368
1.40001
1.40001
1.83708
1.40001
1.8445
1.40001
1.40001
1.40001
1.40001
1.4
1.40001
1.45666
1.63309
1.40001
1.40001
1.01425
1.40001
1.83834
1.08448
1.84384
1.40001
1.63068
1.39976
1.84032
1.68268
1.05558
1.64069
1.40004
1.84088
1.84267
1.40001
1.65467
1.84663
1.84369
1.39836
1.83889
1.80445
1.04254
1.40001
1.40001
1.39738
1.40001
1.83616
1.40001
1.05371
1.84042
1.40001
1.40001
1.77988
1.40001
1.84506
1.40001
1.84229
1.40001
1.05792
1.40001
1.40001
1.84332
1.84597
1.83429
1.40001
1.84077
1.84123
1.83523
1.40001
1.40001
1.84055
1.4
1.12954
1.40001
1.40001
1.40001
1.84432
1.40001
1.84111
1.68494
1.83892
1.40001
1.84129
1.3994
1.40001
1.40001
1.40001
1.40001
1.40001
1.40001
1.09152
1.40001
1.40001
1.84085
1.40001
1.84723
1.83821
1.40001
1.03554
1.04105
1.40001
1.84385
1.46752
1.03614
1.00118
1.40001
1.84372
1.40001
1.84739
1.03695
1.40133
1.40001
1.40001
1.39953
1.40001
1.40001
1.40001
1.39992
1.58458
1.84176
1.40001
1.40001
1.84261
1.65867
1.40001
1.80369
1.84073
1.83703
1.58418
1.83933
1.40001
1.83887
1.40001
1.83997
1.40001
1.84301
1.83999
1.39676
1.84599
1.84458
1.40001
1.40001
1.40001
1.40001
1.40001
1.29353
1.83809
1.40005
1.40003
1.06134
1.39998
1.0054
1.05474
1.40001
1.84567
1.84124
1.84153
1.40001
1.84353
1.40001
1.03871
1.40001
1.40001
1.84461
1.22813
1.84027
1.40001
1.8424
1.40001
1.39623
1.8408
1.40001
1.40001
1.40001
1.8382
1.40001
1.8401
1.0158
1.40001
1.40001
1.65755
1.40001
1.40001
1.63645
1.40001
1.40001
1.84185
1.40001
1.40001
1.40001
1.40001
1.40001
1.83601
1.84181
1.40001
1.83997
1.84383
1.04012
1.60493
1.84412
1.40001
1.40001
1.79745
1.39902
1.40001
1.40001
1.84172
1.84528
1.69177
1.40001
1.84547
1.05228
1.81711
1.3992
1.40001
1.84264
1.40004
1.83937
1.75058
1.73861
1.40001
1.40001
1.84212
1.12031
1.0554
1.40001
1.8408
1.40001
1.83744
1.40001
1.66509
1.40001
1.40001
1.82705
1.68261
1.02997
1.40001
1.3982
1.40001
1.40001
1.42562
1.58289
1.84205
1.40001
1.84705
1.40001
1.40001
1.40001
1.40001
1.40001
1.40001
1.466
1.04691
1.40001
1.40001
1.43303
1.40001
1.40001
1.40001
1.40001
1.40001
1.8382
1.40001
1.40001
1.8414
1.84079
1.72364
1.40001
1.40001
1.40001
1.24334
1.84252
1.70988
1.40001
1.40001
1.40001
1.40001
1.83914
1.40001
1.40001
1.40001
1.84274
1.40001
1.40001
1.71934
1.85362
1.44908
1.14979
1.84201
1.7174
1.84057
1.40001
1.61845
1.40001
1.40001
1.40001
1.0593
1.40284
1.0702
1.40001
1.0516
1.03013
1.40001
1.0323
1.40001
1.40001
1.40001
1.58755
1.40001
1.84106
1.84222
1.40163
1.60632
1.78053
1.06244
1.18247
1.26603
1.40001
1.84168
1.84017
1.84128
1.84148
1.77755
1.25864
1.40001
1.78158
1.40001
1.817
1.40001
1.40001
1.39665
1.40987
1.40001
1.40001
1.40001
1.83957
1.40001
1.01617
1.40001
1.84352
0.993704
1.40001
1.40001
1.84125
1.40001
1.83988
1.39942
1.40001
1.40001
1.84227
1.79553
1.40001
1.85009
1.40001
1.40001
1.41548
1.40001
1.59687
1.40001
1.40001
1.03906
1.40001
1.40001
1.84079
1.4
1.84047
1.40001
1.40004
0.999981
1.40001
1.40001
1.01853
1.40082
1.40001
1.84116
1.00196
1.83854
1.05857
1.83949
1.40001
1.40001
1.40001
1.40001
1.4
1.40001
1.40001
1.40001
1.40001
1.40001
1.40001
1.82427
1.40001
1.84225
1.83997
1.04793
1.40001
1.40001
1.40001
1.40001
1.40001
1.40001
1.81295
1.40001
1.40001
1.0437
1.40001
1.40001
1.84065
1.40001
1.40001
1.56937
1.77093
1.06592
0.995435
1.09544
1.13553
1.40001
1.39688
1.05422
1.40023
1.80557
1.397
1.40001
1.40001
1.84392
1.40001
1.40001
1.40001
1.17927
1.40002
1.55848
1.40001
1.40001
1.58743
1.84147
1.40001
1.04717
1.40001
1.40001
1.40001
1.39677
1.40001
1.84026
1.84141
1.40001
1.04155
1.40001
1.63715
1.04013
1.40001
1.26888
1.40001
1.39669
1.02302
1.40001
1.40001
1.40001
1.39602
1.07576
1.40001
1.05228
1.39844
1.62928
1.80938
1.0388
1.08158
1.40001
1.39064
1.40001
1.39865
1.40001
1.84338
1.84134
1.40001
1.41254
1.84525
1.84202
1.40001
1.40001
1.84126
1.40001
1.40001
1.40005
1.40001
1.84898
1.40001
1.40001
1.41765
1.40001
1.3986
1.10167
1.40001
1.40001
1.40001
1.40001
1.40001
1.8443
1.43003
1.40005
1.40001
1.40001
1.40001
1.40001
1.40001
1.40004
1.40001
1.04496
1.50195
1.3986
1.82984
1.8507
1.40001
1.41515
1.84539
1.78997
1.40001
1.40001
1.03956
1.84041
1.40001
1.84034
1.40001
1.83952
1.68967
1.04108
1.40001
1.04743
1.80785
1.39968
1.40001
1.04651
1.06297
1.40001
1.40001
1.75392
1.40001
1.4
1.03234
1.40001
1.40001
1.40001
1.54914
1.40001
1.04835
1.84444
1.40001
1.40001
1.40001
1.40001
1.84152
1.40001
1.40001
1.84208
1.79519
1.40001
1.40001
1.40001
1.84237
1.04641
1.40001
1.84101
1.84194
1.40001
1.75266
1.4
1.40003
1.40001
1.40001
1.82263
1.41405
1.40001
0.997153
1.62769
1.40001
1.40001
1.39777
1.40001
1.40001
1.8365
1.40001
1.40001
1.40004
1.40001
1.84061
1.40001
1.40001
1.40001
1.40001
1.40001
1.40001
1.40002
1.59282
1.40001
1.83967
1.40001
1.40001
1.84361
1.40001
1.40001
1.40001
1.84111
1.84454
1.44457
1.40001
1.39755
1.40001
1.40001
1.40001
1.40001
1.84133
1.40001
1.40001
1.84008
1.03479
1.40001
1.40001
1.40001
1.40001
1.40001
1.40001
1.75772
1.40001
1.40001
1.84248
1.84347
1.40001
1.40001
1.40001
1.84059
1.83981
1.40001
1.39969
1.84001
1.40001
1.40001
1.40001
1.40002
1.01838
1.42927
1.39598
1.39607
1.40001
1.40001
1.03837
1.84333
1.40001
1.04705
1.40001
1.84076
1.82363
1.07382
1.39942
1.84203
1.84065
1.83728
1.40001
1.40001
1.31157
1.80477
1.77297
1.06014
1.40001
1.40001
1.40001
1.84496
1.84131
1.0267
1.39734
1.40001
1.8403
0.990174
1.40001
1.83378
1.02801
1.37852
1.40649
1.40001
1.84279
1.40001
1.40001
1.40001
1.40001
1.40001
1.40001
1.40011
1.79134
1.40001
1.40001
1.84376
1.40001
1.40001
1.40001
1.84116
1.40001
1.04371
1.40001
1.40001
1.40001
1.55907
1.40001
1.40001
1.40001
1.40001
1.40001
1.17434
1.40001
0.994482
1.40001
1.84237
1.40009
1.26007
1.25657
1.40002
1.40494
1.62725
1.40001
1.40001
1.01184
1.84149
1.84253
1.84113
1.40001
1.03993
1.04849
1.40001
1.84086
1.40001
1.40001
1.40001
1.40001
1.40001
1.40004
1.40001
1.0383
1.68614
1.40001
1.40001
1.03646
1.37739
1.40001
1.40001
1.40001
1.40001
1.02336
1.40001
1.06013
1.40001
1.40001
1.85326
1.40001
1.40001
1.03901
1.40001
1.84254
1.40001
1.06649
1.40001
1.03368
1.40001
1.40786
1.84027
1.84893
1.40001
1.40001
1.84025
1.40001
1.40001
1.4995
1.39708
1.40001
1.39821
1.40001
1.84295
1.40001
1.06108
1.40002
1.83745
1.39871
1.40001
1.40001
1.17419
1.40001
1.39896
1.06469
1.84415
1.55227
1.40001
1.40001
1.2736
1.40001
1.40001
1.40001
1.19564
1.40001
1.40001
1.40001
1.84135
1.40001
1.03864
1.4
1.40001
1.40001
1.40001
1.01878
1.84171
1.80228
1.06744
1.40001
1.84094
1.40001
1.40001
1.84266
1.84043
1.77255
1.01887
1.39758
1.39923
1.40001
1.84156
1.40001
1.40001
1.40001
1.40001
1.84406
1.40005
1.40001
1.40001
1.84032
1.40001
1.40001
1.84215
1.01173
1.40001
1.40001
1.40001
1.03043
1.40001
1.4
1.4
1.39868
1.40001
1.40001
1.40001
1.40001
1.73648
1.40001
1.83948
1.83999
1.84636
1.84249
1.84141
1.84117
1.40001
1.84317
1.40001
1.8418
1.83948
1.40001
1.39891
1.02632
1.77837
1.39991
1.40001
1.40001
1.40001
1.40001
1.38908
1.40001
1.4706
1.40001
1.40001
1.40001
1.25254
1.84212
1.84558
1.83836
1.77159
1.39988
1.40001
1.42346
1.84127
1.3979
1.45435
1.39717
1.03423
1.40001
1.40003
1.40001
1.40001
1.40001
1.40001
1.40001
1.8413
1.04325
1.84128
1.84171
1.3957
0.996458
1.40001
1.40001
1.40001
1.84221
1.00582
1.78871
1.01766
1.8415
1.83636
1.03377
1.83907
1.42424
1.40001
1.8441
1.16306
1.40001
1.39874
1.02065
1.40001
0.997353
1.40001
1.84143
1.83935
1.15917
1.40001
1.84097
1.03771
1.40001
1.04352
1.40001
1.84257
1.40001
1.40001
1.84276
1.40001
1.21645
1.40001
1.39969
1.00102
1.84215
1.39949
1.40001
1.01045
1.40001
1.40001
1.40001
1.40001
1.63651
1.40001
1.84315
1.40001
1.40001
1.84647
1.40001
1.40001
1.84131
1.40001
0.992904
1.40001
1.0839
1.40002
1.40001
1.40001
1.40001
1.40001
1.82226
1.65532
1.84212
1.40001
1.84089
1.81074
1.03605
1.03985
1.40001
1.40001
1.84517
1.40001
0.99228
1.40001
1.36551
1.40001
1.40001
1.83935
1.40001
1.84072
1.03324
1.84972
1.40001
1.04362
1.40001
1.40001
1.83903
1.81613
1.40001
1.40004
1.40001
1.8453
1.40001
1.40001
1.05276
1.39944
1.01769
1.40001
1.40001
1.40001
1.83053
1.85426
1.84046
1.40001
1.40001
1.03331
1.40001
1.84712
1.40001
1.40001
1.40001
1.82709
1.84177
1.84313
1.01116
1.84594
1.84171
1.01688
1.83912
1.40005
1.05641
1.40717
1.40001
1.40001
1.84258
1.00101
1.68099
0.998404
1.8417
1.3974
1.03712
1.84331
1.40001
1.40001
1.40001
1.40001
1.84092
1.84087
1.04243
1.40001
1.40003
1.03283
1.40004
1.40001
1.05703
1.04918
1.69455
1.83843
1.39849
1.84248
1.40001
1.84354
1.21085
1.03071
1.84157
1.85311
1.40001
1.84189
1.40001
1.40001
1.84105
1.40001
1.72363
1.83952
1.40001
1.40001
1.40001
1.40001
1.8426
1.81307
1.84391
1.40001
1.40001
1.84107
1.84512
1.84349
1.40001
1.84135
1.40001
1.40001
1.40001
1.40001
1.40001
1.02804
1.2305
1.05204
1.40001
1.40001
1.84068
1.40001
1.40001
1.84239
1.01928
1.40001
1.8414
1.81378
1.82447
1.01568
1.40001
1.02578
1.40001
1.40003
1.84138
1.60733
1.83915
1.80468
1.40001
1.07128
1.40001
1.84205
1.7167
1.07874
1.40001
1.40001
1.40001
1.2034
1.40001
1.40001
1.84921
1.40001
1.06773
1.84177
1.40001
1.40001
1.40001
1.40001
1.40001
1.75611
1.50566
1.40001
1.84041
1.40001
1.84273
1.40001
1.39764
1.40001
1.84249
1.84604
1.84339
1.84335
1.39961
1.83876
1.40001
1.84153
1.84676
1.75706
1.40001
1.40001
1.02702
1.84281
1.40001
1.40001
1.84742
1.84138
1.84575
1.40001
1.84193
1.40001
1.40001
1.40004
1.84603
1.84595
1.5318
1.49784
1.84208
1.84094
1.06731
1.40001
1.40001
1.40001
1.40001
1.40002
1.55231
1.40001
1.40001
1.77987
1.02704
1.39998
1.40001
1.84278
1.39992
1.39981
1.47156
1.81057
1.8403
1.30055
1.40001
0.997116
1.40001
1.38741
1.84222
1.84384
1.84744
1.39898
1.40001
1.40001
1.01209
1.40001
1.40001
1.84187
1.44956
1.40001
1.40001
1.40001
1.40001
1.40001
1.40001
1.40001
1.39995
1.84029
1.40002
1.40001
1.40001
1.40001
1.40001
1.67601
1.40001
1.60871
1.40001
1.40001
1.8419
1.84741
1.03566
1.39877
1.40001
1.4
1.40001
1.04389
1.83959
1.84273
1.40001
1.40001
1.40001
1.40001
1.40001
1.40001
1.40001
1.40001
1.84329
1.83628
1.03503
1.44841
1.03309
1.40001
1.03883
1.40001
1.84137
1.54075
1.40001
1.40001
1.06752
1.40001
1.82412
1.20409
1.3967
1.02826
1.40001
1.40001
1.83852
1.40005
1.39732
1.01011
1.8407
1.83914
1.40001
1.40001
1.40001
1.40001
1.79221
1.40001
1.40001
1.84118
1.39896
1.8415
1.4001
1.40001
1.40001
1.01759
1.40001
1.40001
1.84122
1.02097
1.18108
1.03112
1.84216
1.39931
1.40001
1.8477
1.05186
1.09225
1.41009
1.40001
1.40001
1.84127
1.40005
1.60571
1.40001
1.40001
1.84112
1.02583
1.40001
1.40001
1.40014
1.84118
1.40013
1.82727
1.40001
1.40004
1.40001
1.40001
1.0728
1.40001
1.1656
1.40002
1.40001
1.84053
1.02387
1.40001
1.14923
1.19563
1.40001
1.40001
1.84236
1.40001
1.40001
1.40001
1.84405
1.84333
1.40006
1.83094
1.83989
1.16529
1.84163
1.80144
1.40001
1.40001
1.84503
1.4
1.40001
1.40001
1.40001
1.40001
1.84686
1.84195
1.40001
1.40001
1.40001
1.84185