/*--------------------------------*- C++ -*----------------------------------*\
  =========                 |
  \\      /  F ield         | OpenFOAM: The Open Source CFD Toolbox
   \\    /   O peration     | Website:  https://openfoam.org
    \\  /    A nd           | Version:  12
     \\/     M anipulation  |
\*---------------------------------------------------------------------------*/
FoamFile
{
    format      ascii;
    class       surfaceScalarField;
    location    "6.025";
    object      phi;
}
// * * * * * * * * * * * * * * * * * * * * * * * * * * * * * * * * * * * * * //

dimensions      [1 0 -1 0 0 0 0];

internalField   nonuniform List<scalar> 
69079
(
-0.000158336
8.84716e-05
6.45429e-05
0.000128049
5.02193e-08
-0.000128075
-0.000133711
0.000133725
0.000129614
-1.55898e-06
-0.000133059
-1.51173e-06
-0.000133683
0.000112939
-0.000198013
9.40446e-05
1.52389e-06
0.000121015
-0.000120964
0.000130789
-0.000130877
5.51553e-08
0.000130221
5.53914e-07
-0.000102756
-6.21876e-05
-0.000137986
0.000132521
-9.70111e-06
-0.000128707
0.000126017
2.67694e-06
-0.000128126
-5.9431e-07
4.48885e-06
-0.000111091
0.000106163
0.0001302
2.35238e-08
0.000129662
5.47958e-07
-0.000130258
0.000128648
1.59749e-06
-0.00012892
-1.35423e-06
0.000130063
-0.000129388
-6.57125e-07
0.000129206
9.00908e-07
0.000128
-0.00013011
2.47976e-06
-0.000139939
1.53767e-05
0.000124732
0.00014305
-9.32002e-05
-4.61711e-05
0.000136421
-1.1576e-05
-7.95017e-05
-0.000129541
-1.39234e-06
0.000129584
8.26253e-08
1.91226e-07
5.16722e-08
0.000125682
-0.000121542
0.000122023
-0.000126353
5.08308e-06
0.000123673
-0.000133895
1.0233e-05
0.000144256
-2.05811e-05
0.000128422
7.98929e-07
-5.15229e-07
-0.000128288
2.40294e-05
0.000103897
0.000128348
-0.000128414
5.69316e-08
1.93834e-07
-8.51554e-06
0.000122678
-0.000120183
-1.50426e-05
-0.000124786
9.64004e-05
2.37701e-05
-0.00012222
-0.000154808
1.95004e-05
0.000127599
-0.000127626
6.01058e-08
-6.27034e-06
-0.000124816
0.000155659
-2.71555e-05
0.000127172
1.49344e-06
-1.20456e-06
-7.25987e-05
0.000139418
-6.66866e-05
0.000125104
-0.000125179
5.83849e-08
0.00014354
-1.84557e-05
0.000121746
2.18034e-05
0.000142901
-2.10641e-05
0.000120762
-3.83059e-06
-0.000117198
-0.000113222
0.0001203
-2.26456e-05
-0.000131215
0.000132601
-1.15913e-06
-0.000126163
5.3434e-05
7.08278e-05
0.000124368
-0.00012444
5.45314e-08
0.000142537
-1.81942e-05
0.00012109
-9.71179e-08
-0.000120649
-7.74472e-05
-4.55998e-05
8.52224e-05
7.55561e-05
5.12965e-05
-0.000126898
0.000121027
-8.55409e-05
-8.44193e-05
-1.41017e-05
-0.00011465
5.1406e-05
-0.000123923
-0.000105045
0.000109036
0.000125318
7.14518e-07
-2.2617e-06
0.000148187
-0.000147557
-1.50024e-05
-0.000117363
-0.000122807
1.00777e-05
-7.00415e-05
0.000176848
0.000119906
2.26134e-05
0.000141521
-2.16305e-05
0.000142887
-1.54271e-05
-0.000151003
0.00012856
-0.000125858
-2.14937e-06
9.57497e-05
5.4483e-05
0.000115892
-0.00011913
3.28414e-06
-2.783e-06
0.00011869
-0.000120781
1.14815e-05
0.000109437
0.000123525
2.07182e-05
-1.67628e-06
0.000118709
-0.000141094
2.24259e-05
0.00010225
1.81311e-05
0.00013235
-1.36378e-05
-0.000119756
-7.06393e-05
0.000176981
-0.000118879
0.000119854
-1.24837e-06
0.000117888
-0.00013351
1.5616e-05
0.000118841
-9.54225e-07
-7.06187e-05
-3.50024e-05
-5.80641e-06
-9.99452e-05
0.000105626
-6.87685e-05
0.000135175
-6.62092e-05
0.000131888
-3.6039e-05
-0.000128602
9.76837e-06
0.000121747
2.12108e-05
6.74585e-05
5.31564e-05
-0.000120618
-2.68648e-06
-0.000117496
-1.06698e-05
1.03314e-06
-0.000104447
0.000103507
0.000125123
-3.49935e-06
6.80554e-05
5.98111e-05
-0.000127933
5.53746e-05
-0.00012397
-0.000118037
8.47403e-07
0.000127571
-0.000127648
0.000130941
-8.79799e-06
2.09029e-05
-0.000135987
0.000115765
5.78418e-05
-0.00017445
-0.000131909
-1.10934e-05
0.000115697
-0.000134946
1.92486e-05
0.000118349
-2.64044e-06
7.67913e-06
0.000121503
-0.000115525
-5.40347e-06
0.00012436
-0.00012046
0.00011984
2.17056e-05
-2.12077e-05
-0.000101186
0.000102338
8.84882e-06
-0.000119925
0.000111297
-0.000100262
2.96041e-05
-6.79315e-06
9.94028e-05
-0.00010663
4.74241e-05
-0.000145116
-0.000109575
-3.53698e-06
0.00011286
0.000120387
-0.000118466
2.72895e-06
-0.000122064
0.000104736
1.75003e-05
-4.02871e-06
-0.000129787
0.000115302
1.70394e-05
-5.42366e-06
0.000120699
-0.000133592
0.000133538
-0.000113443
3.04681e-06
-3.56603e-05
0.000111184
0.000135886
-8.21831e-05
-5.46107e-05
-0.000133117
5.28614e-05
7.95155e-05
0.000124564
-6.37359e-07
-0.000123925
0.000113671
-0.000132703
1.90445e-05
0.000117587
-3.80272e-06
0.00012384
1.19073e-06
0.000116721
-8.6463e-05
0.000117425
7.10195e-06
7.76441e-05
-0.000121963
4.42478e-05
0.000114409
-0.000138079
2.36855e-05
0.000137105
-2.25909e-05
-1.50844e-06
0.000125712
-7.62102e-05
0.000144147
-6.79125e-05
-9.78276e-05
-2.12559e-05
0.000110394
-0.000131474
2.09008e-05
0.000114913
-4.56605e-06
0.000118267
-0.000127078
8.35071e-06
-0.000123409
2.55776e-05
-3.0948e-05
-0.000102501
0.000113219
-0.000136643
2.34194e-05
-2.02977e-05
-0.000130175
0.000115908
8.22568e-05
-8.80537e-05
-0.000104356
0.000123818
0.000136178
-0.000136218
0.000117075
2.95627e-07
-2.10202e-05
0.000121572
-0.000128613
7.58744e-06
-0.000108579
3.48256e-06
6.4817e-05
7.15359e-05
-0.000127228
1.98696e-05
0.000107356
0.000111239
-0.000135258
2.40153e-05
-0.000109806
0.00013468
-2.34466e-05
-0.000112985
-2.29944e-06
9.80188e-05
-4.49553e-05
-4.25929e-05
0.000119967
-2.45735e-05
0.000206334
0.000113262
2.39001e-05
-8.75301e-05
0.000116554
-2.33786e-05
0.000116179
-0.000116094
6.96876e-05
-0.000120448
5.08301e-05
0.000109967
-0.000134151
2.42126e-05
0.000133723
-2.37433e-05
-1.9406e-05
-0.000110204
0.000120487
4.92745e-06
-0.000109161
-2.17968e-05
-0.000113594
1.21496e-05
-9.38803e-05
8.00769e-05
-7.25905e-05
0.000116432
-3.9688e-05
-0.000112047
3.70477e-06
0.000108441
8.65937e-06
9.49359e-05
-0.000106637
8.70663e-05
0.000112539
0.00012496
-3.52809e-06
0.000108644
-0.00013319
2.45342e-05
-2.63105e-05
1.71454e-06
-0.00011234
0.000110602
0.000112233
6.61192e-06
-2.30299e-05
5.58956e-05
9.98583e-05
0.000109431
1.35863e-06
-0.000110839
5.87246e-09
0.000109404
8.47802e-06
0.000120439
-4.67892e-05
-6.01369e-05
0.000106759
-0.000175278
9.70479e-05
6.71214e-05
7.4161e-05
-0.000120993
2.92177e-07
0.000112652
-0.000112929
-0.000112701
0.000112989
0.000119618
-0.000126276
-0.000118408
0.000123
-4.88943e-06
0.000102225
-0.000123078
2.06929e-05
0.000110831
-8.6234e-06
-9.90531e-06
-9.49147e-05
0.000104962
6.43213e-05
4.70424e-05
-0.000111377
0.000109915
2.47611e-05
-2.42132e-05
1.7181e-05
-0.000114982
9.82693e-05
-9.82523e-05
-5.81291e-06
0.000120278
3.63717e-06
0.00010669
-0.000132153
2.54677e-05
0.000131268
-2.45712e-05
7.50981e-05
-0.000119466
4.43631e-05
0.000111947
-0.000103392
0.000117387
-0.000121053
0.000120206
6.87886e-06
-5.72857e-07
0.000120084
3.07566e-05
-0.000102872
-0.000116921
-1.67364e-06
0.000122492
-4.19632e-06
-9.50754e-05
-5.40306e-05
0.00013476
0.000105323
-0.000130634
2.52941e-05
0.00012963
-1.65422e-05
-0.000131258
-2.7371e-05
8.59695e-05
-7.4341e-05
0.000108665
2.50748e-05
-2.45254e-05
-8.62167e-05
-6.03887e-05
0.000137396
0.000125166
-0.000123884
-1.44854e-06
-1.49705e-05
0.000126148
-0.000111425
9.98298e-05
-0.000120516
2.05542e-05
0.00010957
-9.71224e-06
0.000105609
-0.000106742
5.88883e-07
-5.25757e-06
-0.000116707
-0.000130062
1.97824e-05
0.000110371
-2.24838e-05
-0.000107465
-1.64577e-05
-0.000116948
-4.98428e-05
0.00011752
-0.000143739
7.69816e-05
6.68053e-05
-0.000120377
0.000104753
1.57324e-05
0.000105198
3.51782e-07
0.000116273
-0.000109799
-5.90699e-06
-0.00013755
0.00012146
-0.000118249
2.4249e-07
-0.000116951
0.000118558
-1.65177e-06
-7.00205e-05
-7.37312e-05
6.86778e-05
-0.000123315
5.43613e-05
-9.55145e-07
-0.000124727
-4.05563e-06
-0.00012318
0.00011978
-6.86861e-07
-0.000122145
5.17554e-06
0.000103449
-0.000129996
2.65113e-05
-2.81523e-05
0.00011299
3.42683e-06
9.72001e-05
-0.000117529
2.02158e-05
-0.000125099
2.80523e-06
0.000107919
-1.06084e-05
0.000109254
9.12162e-06
-2.28749e-05
0.000126208
-0.000124899
-5.17672e-06
-7.05347e-06
0.000107449
-0.000119878
0.000126549
-0.000126765
-0.000153545
7.48917e-05
8.84504e-05
-4.92976e-05
8.88258e-05
-4.0982e-05
-0.000122326
-4.07314e-06
0.000108222
-0.000125418
-2.7842e-06
-7.41085e-05
-4.75333e-05
7.69964e-05
6.84364e-05
4.22281e-05
-0.000110655
8.14318e-05
-9.12174e-05
5.03016e-06
0.00011704
-0.000121934
0.000105324
2.59352e-05
0.000101484
-0.000128436
2.70818e-05
-2.53669e-05
-0.000131852
0.000116476
-0.000129783
0.000129207
8.40421e-05
4.38883e-05
0.000127382
-2.58679e-05
-2.03399e-05
-0.000116916
0.000101356
7.31811e-05
-0.000120442
4.72417e-05
-3.21856e-06
-0.000126323
0.000111684
-1.20833e-06
0.000119677
-0.000118816
9.46751e-05
-0.000114599
2.03282e-05
0.000108685
-1.17212e-05
0.000127106
-0.000128744
-0.000104951
0.000110111
-9.16295e-05
-8.05636e-05
-5.03214e-05
8.18029e-05
-3.3186e-05
-0.000119949
2.59508e-06
0.00012253
-0.000126555
4.24544e-06
-6.46516e-05
0.000128961
0.000124088
1.28878e-06
0.00012324
5.54449e-07
-0.000166653
7.33197e-05
7.43765e-05
3.4893e-05
0.00010456
0.000122327
4.01872e-07
7.28547e-05
-0.00010646
3.3468e-05
0.000121273
4.5576e-06
0.000109449
-3.6249e-05
3.58201e-05
0.00010003
-0.000126778
2.65665e-05
0.000118106
0.000125882
-2.61313e-05
0.000120097
-2.07213e-05
-0.000105968
-0.000108001
-1.44504e-06
0.000109655
-0.000141279
8.19808e-05
5.92377e-05
0.000107224
1.04642e-05
-2.27506e-05
-4.20812e-05
0.000117176
0.000130977
-0.000131212
-0.000106242
0.000107535
0.000111357
-0.000111374
-5.31299e-05
9.25302e-05
-3.98559e-05
-9.8756e-07
-0.000119701
9.85511e-05
-0.000125187
2.68402e-05
-0.000115503
0.000118189
-2.72083e-06
0.000125426
-2.63553e-05
-0.000131327
0.000131689
0.000118683
3.21117e-06
4.02613e-06
-0.000114428
0.000110016
-0.000120463
0.000100275
-9.83498e-05
-8.58437e-06
0.000116
-0.000120465
4.83065e-06
-0.000108161
-4.71006e-05
0.000110562
-8.24147e-05
0.000125469
-1.28862e-05
0.000122736
-4.40383e-07
-0.000118311
-2.0134e-06
0.000122994
-0.000122977
9.75928e-05
-0.000125009
2.72005e-05
0.000123706
-2.68588e-05
9.4244e-05
-0.000113495
1.98604e-05
0.000105472
-1.33369e-05
-7.05122e-05
-7.08082e-05
-0.000123339
4.71663e-05
-0.000116415
-1.7847e-06
4.76837e-05
5.39411e-05
0.000116982
5.22191e-06
0.000105583
9.36646e-06
-2.26462e-05
-0.000117137
0.000107506
9.62938e-06
0.000131967
-0.000127573
-0.00010025
0.000111896
0.000105171
-0.000112755
7.59028e-06
0.000111319
-4.41768e-06
-0.000106577
9.5584e-05
-0.000122722
2.74132e-05
0.000123382
-2.6861e-05
-4.68209e-06
-0.000115614
-0.000124122
0.000126191
-4.96482e-06
1.09619e-06
-0.000113173
0.000135686
-2.95715e-05
-5.36371e-05
0.000121628
-2.70631e-07
-0.0001351
2.29612e-05
-9.42898e-05
-1.11074e-05
0.000112522
-4.70821e-06
-0.000107748
0.000100082
2.73108e-05
0.000118437
-4.87717e-05
-2.67106e-05
-0.000118352
0.000107682
1.05622e-05
4.89978e-06
-0.000100094
-0.0001576
9.21507e-05
6.55828e-05
-0.000112247
3.20102e-06
0.000109152
-7.11063e-05
-8.63908e-05
3.39981e-06
0.000108319
-0.000111761
-0.000112576
4.70586e-06
0.000107967
-7.29282e-06
-0.000105262
-0.000117119
0.000109845
9.48953e-05
-0.000123084
2.78118e-05
-0.000113563
2.42925e-06
0.000111042
0.000114421
-4.22239e-06
-0.000110175
-3.29881e-06
0.000113842
-0.000110525
0.000111116
0.000121456
-2.74303e-05
0.000113929
-4.46464e-06
-0.000109498
0.00011943
-7.83298e-07
-0.000128692
-1.30544e-05
-0.000119017
-4.58125e-06
0.000113739
-0.000109118
6.556e-05
4.26413e-05
-0.000108178
-0.000153532
6.44683e-05
-4.5023e-05
-5.47164e-05
-0.000122406
2.86671e-05
9.82659e-05
2.75852e-05
5.66238e-06
-0.00012332
-2.69201e-05
5.43218e-06
0.00010587
-0.000103785
6.03112e-06
9.7831e-05
9.29754e-05
-0.000120593
2.80353e-05
-5.83151e-06
0.00012145
0.000115086
-5.37711e-06
-0.000109779
-0.000119435
-6.11303e-06
0.000121304
-2.75416e-05
-5.08527e-05
8.38685e-05
-3.47376e-05
0.000125479
-1.09657e-05
-0.000114065
0.000144775
-2.68808e-05
-0.000122188
0.000120304
2.85363e-06
0.000120871
-0.000120204
-0.000124093
7.34915e-06
0.000116881
-3.78298e-06
0.000112385
-0.000108648
-6.65483e-05
0.000119688
8.72787e-05
-0.000107204
1.98502e-05
-1.53516e-05
0.00010254
1.03432e-05
0.00012017
5.23192e-07
0.000110901
-0.000111454
-1.10267e-05
0.000100828
-8.98346e-05
0.000130211
-7.78998e-05
-5.23175e-05
2.02223e-06
-0.000110946
0.000109146
2.71165e-06
-0.000119245
0.000119612
-0.000119277
-0.000110903
0.000112012
-1.15361e-06
0.000112642
-0.000115907
3.38471e-06
-0.000101836
0.000103523
-1.60821e-07
0.00011289
-0.000113142
-2.25069e-06
-0.000111634
0.000113763
6.90504e-05
8.24241e-05
-0.000159485
-1.46039e-06
0.000120231
-0.000118443
-1.20267e-06
0.000120081
-0.000125111
2.0159e-08
0.000110995
-0.000113431
0.000103682
3.15338e-05
9.20001e-05
-0.00012087
2.84061e-05
-5.09778e-05
-5.70841e-05
0.00010822
9.75777e-05
2.80086e-05
-0.000135025
8.42479e-05
0.000113243
-4.00592e-05
-3.1763e-05
-2.74218e-05
-0.000142296
8.13089e-05
6.09831e-05
-5.71453e-05
0.00010521
-4.63654e-05
6.48346e-05
6.18063e-05
-0.000126639
-6.92404e-05
0.000120697
-0.000117327
0.000111489
5.86038e-06
-0.000118277
9.35786e-07
-0.000116239
-5.26518e-07
0.000117188
3.57538e-06
0.000108412
-0.000108827
-2.05189e-06
0.000110888
-0.000100905
8.98497e-05
7.76068e-05
-0.000111548
0.000113194
-0.000111738
-3.60827e-06
0.000112546
-0.00010863
3.41782e-05
-9.17737e-05
-7.47201e-05
-6.75945e-05
2.4557e-06
0.000114169
-0.000114441
-0.000121014
-6.38232e-06
-0.000142479
8.22767e-05
-2.65867e-06
-0.000121295
0.000119981
-0.000120794
-0.000100177
0.000120047
-0.000117606
0.000116012
-6.27212e-07
0.000112817
-0.000112589
-3.40338e-05
-9.61504e-05
8.49674e-05
-0.000178087
-2.88035e-05
0.000112501
-0.000110539
-1.40296e-06
0.000112029
5.08444e-07
9.01016e-05
-9.85233e-05
2.49632e-07
-0.000112063
0.00011203
9.52534e-05
2.81943e-05
0.000108482
1.67358e-06
-0.000109028
0.00011245
-8.5346e-07
-0.000111832
-1.99998e-06
0.000114763
0.000112395
-0.000109938
-2.74948e-05
-0.000111443
-2.102e-06
-2.38675e-06
0.00011778
-0.000121401
0.000125231
-0.000112816
0.000112406
3.6382e-07
-3.59541e-08
0.000110921
0.000109902
3.84897e-06
-0.000112003
-9.35263e-07
-4.47794e-05
-3.27983e-05
7.44011e-05
-0.000136777
3.23237e-05
8.96788e-05
-9.62433e-05
-3.46687e-06
8.9292e-05
-0.00011962
3.08303e-05
0.000123503
-0.000117158
-4.49727e-06
-2.02132e-06
0.000121527
0.000118307
-2.88159e-05
4.81915e-05
-0.000169126
8.58912e-05
-0.000100469
1.53738e-05
-1.63724e-05
0.000107858
-0.000117025
0.000107242
9.50384e-06
0.000104905
-9.5782e-06
-0.000114537
0.000120937
-6.11773e-05
-4.04353e-05
9.26647e-05
-0.000115721
0.00011166
-3.39781e-06
-0.000113058
-8.24363e-05
-8.94786e-05
-0.000113328
1.11652e-06
0.000103207
-0.000115074
0.000112788
3.6087e-06
0.000109829
-0.000117166
-4.26448e-06
-0.000130655
0.000113135
3.06072e-06
0.000109406
-0.000112085
0.000135772
-6.51171e-05
-7.09765e-05
5.32103e-06
0.000107362
9.49898e-05
2.86862e-05
-0.000116312
3.39841e-06
0.000112831
-0.000132623
4.90765e-06
-2.80821e-05
8.80655e-05
-0.00011782
2.91319e-05
-3.30802e-05
8.14147e-05
-9.78528e-05
1.47213e-05
-0.000115527
9.28937e-05
-0.000107617
-4.49914e-06
-1.68146e-05
9.82371e-05
4.97888e-06
4.89099e-05
8.14178e-05
0.00011952
-0.000117274
0.000113197
-9.52858e-07
-9.01528e-05
3.78998e-05
0.000111372
1.91577e-07
-0.000111503
-0.0001252
0.00012583
0.000104766
-8.75295e-05
1.62745e-06
-0.000107945
2.80849e-06
-0.000113793
0.000112417
-3.26203e-06
0.000121422
6.4867e-05
6.12892e-05
-0.000126088
5.76478e-05
5.1625e-05
-0.000137204
-8.50867e-05
-2.09952e-06
8.5023e-05
-1.30849e-06
-0.000112799
0.000115328
7.58151e-06
0.000118555
-0.000119453
0.000114096
-0.000114553
0.000114384
-0.000115442
1.10681e-06
-1.51776e-06
0.000115651
5.17127e-07
0.000113046
-0.000113662
0.000115051
-0.000116645
-0.000120854
-7.2747e-05
0.000127106
-5.51736e-05
-6.76108e-05
0.000128706
-5.83916e-05
-0.000137823
3.77009e-05
0.000111106
-0.000108242
-4.26742e-07
-0.000113109
0.000114369
-1.2687e-05
0.000124611
-0.000111875
0.000127069
-8.005e-05
9.25026e-05
2.88055e-05
-0.000109088
3.38196e-06
0.000105769
7.59251e-05
-0.000125964
5.21752e-05
0.000121475
5.93311e-06
-0.000118138
-0.000138231
8.00835e-05
5.80729e-05
-2.81239e-05
0.000109133
-0.000106047
-0.000112922
-2.03446e-06
-0.00011082
0.000111644
-8.0097e-07
5.90816e-08
-0.000110788
-0.000107393
0.000115296
1.19231e-05
-0.000117596
0.000115045
2.68434e-06
-0.000112972
-4.68819e-06
8.70702e-05
-0.000117666
3.12995e-05
-0.00011734
-1.62819e-07
0.000116689
-2.92666e-05
-0.000151605
7.89776e-05
-0.000120409
0.000113525
6.94823e-06
-0.000117442
-2.64629e-06
-0.000116319
0.000113172
3.12678e-06
-0.000113445
-3.1051e-06
-0.000117743
-0.000113387
0.000113755
-5.44046e-07
-0.000112604
8.73365e-06
0.000104036
0.000113467
-0.000114074
-0.000111977
5.27088e-07
-0.000116783
5.34357e-06
0.000111421
-0.000110143
-2.91691e-06
0.000113059
9.04433e-05
-1.59202e-06
0.000109751
-0.000108442
-0.000113197
-1.33599e-06
0.000114518
-0.000114576
2.51633e-06
0.000112073
-6.40906e-05
-8.22799e-05
3.92989e-06
0.000122072
-5.35444e-05
0.000117075
4.64353e-06
0.000109049
2.69954e-06
-0.000111767
-2.94303e-07
0.0001132
-0.000112902
-0.00010903
0.000117131
-4.86905e-05
0.000115306
-4.40755e-06
-0.000110902
-0.00011581
3.0685e-06
0.00011266
9.21873e-05
2.93012e-05
-0.000114255
2.3487e-06
0.00011194
0.000107775
2.84741e-06
-0.000110567
-2.86628e-05
0.00011819
-1.87737e-06
-0.000112994
1.33614e-07
0.000112864
6.38386e-06
9.44802e-07
-0.000114132
-0.000111743
0.000112464
8.78475e-07
-0.00011287
-0.00011427
0.000110555
0.000114263
-2.74376e-06
-0.000111547
8.52987e-05
-0.000116064
2.96246e-05
-3.31865e-05
0.000123139
-0.000122404
-0.000119368
0.000119047
2.09644e-06
-0.000114052
3.64202e-06
0.000110508
-6.75322e-05
-7.49629e-05
-0.000145298
0.000100074
0.000112131
-0.000111804
-5.55387e-07
-0.000112041
3.91601e-06
-9.04163e-05
3.61305e-05
-0.000111984
2.59359e-07
-0.000109301
0.000107937
-1.01661e-06
0.000108828
-0.000107921
-0.000114888
3.6936e-06
0.000111091
0.000127354
-0.000139874
0.00011892
-0.000113474
0.000109464
-0.000113909
-0.000108484
0.00011681
-6.40731e-07
0.000115026
-6.02751e-07
-0.000110163
0.000111329
-0.000115858
0.000113085
0.000119193
-0.000120712
-0.000118414
0.000115071
2.99376e-06
-0.000113858
-4.87321e-06
-0.00012062
0.00011594
5.11174e-06
-0.000115789
-4.52062e-06
-0.000120893
0.000115291
5.22142e-06
-0.000116611
-4.63459e-06
-0.000120917
0.000116171
5.09073e-06
-0.000116083
-4.51859e-06
0.000159899
-0.000105772
-2.57375e-08
-0.000113618
0.000112008
-0.000121011
0.000115642
5.12855e-06
-9.39897e-05
5.75936e-05
4.45625e-05
-0.00011672
-4.58905e-06
-0.000121237
0.000116397
4.97469e-06
0.000113689
0.000109452
-9.19144e-05
-1.32365e-05
9.24773e-05
1.21641e-05
-0.000106719
-0.000116593
-4.37703e-06
0.000114247
-0.000120978
0.000115951
4.95654e-06
0.000119426
5.0566e-06
-0.000116757
-4.44661e-06
-0.000137633
3.65338e-05
-0.000113539
2.32313e-06
0.000111737
-0.0001214
0.00011655
4.80595e-06
-6.76499e-05
-5.24799e-05
0.000120122
-0.000117082
-4.19882e-06
0.000101368
-0.000103335
2.63077e-06
3.11153e-06
-0.000108938
0.000105998
-0.00012102
0.000116393
4.75711e-06
-0.000112567
-5.7302e-06
-0.000116882
-4.19054e-06
1.0138e-06
-0.000113579
-8.45526e-05
-9.40543e-06
5.35195e-05
-0.000121281
-0.000114704
-5.16807e-06
9.91149e-05
-1.03133e-05
-0.000110696
0.000114956
-4.26342e-06
-0.00011207
1.36548e-06
-0.000121383
0.000116659
4.61324e-06
-0.000117362
-4.01222e-06
-4.22154e-06
0.000110816
-0.000106281
1.96184e-06
0.000112334
-0.000113556
-0.000120538
0.000116149
4.50156e-06
-0.000117152
-3.35231e-06
0.000114445
-0.000117533
2.62717e-06
-2.59991e-06
0.000125403
-0.000124052
-0.000121385
0.000117039
4.33044e-06
8.72982e-05
-0.000118051
3.10506e-05
-0.000117549
-3.81778e-06
2.0497e-06
-0.000108072
0.000106059
9.70459e-05
1.38754e-05
-0.000120937
0.000116847
4.09603e-06
0.000124873
-8.54818e-06
-0.000115432
-0.000117492
-3.51468e-06
0.000116487
-2.90946e-05
-2.20583e-05
1.79616e-06
-0.000108283
0.000106578
0.000111316
-0.000115484
4.13225e-06
-1.18056e-06
0.000112492
-0.0001213
0.000117323
4.00079e-06
-0.000117737
-3.45278e-06
-0.000129994
9.39925e-05
1.6554e-05
2.94159e-06
-0.000108523
0.000105631
3.80783e-06
-0.000110139
0.000106267
-0.000120284
0.000116662
3.55609e-06
2.39329e-06
-0.00011141
0.000111889
-0.000117867
-2.55629e-06
-7.85714e-06
0.000127725
-0.000114252
-2.91897e-06
-0.00012032
0.0001174
2.8235e-06
-0.00011849
-1.93388e-06
-0.000114297
0.00011368
7.16561e-07
-0.000113973
0.000114927
-9.0369e-07
-1.78244e-06
6.56055e-05
-0.000158466
-1.57075e-06
-0.000112274
-0.000112198
0.000112382
0.000114211
-0.000114313
2.5702e-06
-6.24932e-05
-6.32267e-05
0.000113226
-0.000120494
0.000118287
2.41579e-06
-4.63238e-07
0.000112091
-0.000111611
-0.000118452
-1.9073e-06
8.69221e-07
-0.000112107
0.000111232
-4.176e-06
0.000109325
-0.000104836
3.63189e-07
-0.000111809
-0.000112233
0.000113496
-0.000120549
0.000118195
2.15115e-06
-0.000119032
-1.60297e-06
-0.000109768
-1.3239e-06
0.000114125
-0.00011178
-3.71794e-07
0.000112215
-0.000119352
0.000117606
2.00016e-06
-0.000111467
-0.000118483
-8.78953e-07
-0.00011611
0.000117996
-1.65706e-06
-1.3235e-06
-0.000119354
-0.000119802
0.000117571
1.60566e-06
-0.000119389
-1.01079e-06
-0.000113664
1.29637e-06
-3.81858e-06
-0.000119933
0.000119817
1.28857e-06
-0.000118182
-7.71855e-07
-4.8594e-05
-6.72856e-05
-6.34423e-07
0.000112603
-0.000111895
-0.000113346
0.000112774
0.000111371
-0.000109818
-0.00011982
0.000116734
1.16989e-06
-0.000113881
-1.57823e-06
0.000112929
-0.000120709
-5.93623e-07
1.95802e-06
0.000106857
-0.000114885
-0.000120132
0.000121152
-0.000111146
-8.25648e-08
0.000110809
-8.8778e-06
-0.000118935
0.000120937
7.33092e-07
-0.000116685
-2.37499e-07
0.000117836
6.3947e-07
-0.000120276
0.000116024
6.89978e-07
-0.000122641
-1.15428e-07
5.55646e-07
-0.000124269
0.000104753
-0.000118336
0.000116967
1.28201e-06
-9.09289e-05
-4.83095e-05
0.000139889
-6.98671e-06
8.2621e-05
-0.000112712
2.97645e-05
5.27694e-06
-0.000117597
0.000100536
-2.358e-06
-0.000109286
-3.20783e-05
-0.000120674
6.87825e-06
0.000109942
-5.57596e-06
-0.00011193
-6.44186e-05
-5.88116e-05
0.00012339
-0.000117821
0.00011557
2.67978e-06
-0.000116184
-2.4743e-06
-4.40826e-06
8.81557e-05
3.02146e-05
0.000111508
-0.000111962
-0.00011846
0.00011634
2.32105e-06
0.000112377
9.52386e-05
3.33684e-06
-9.86563e-05
-3.14753e-06
-2.98086e-05
0.000104331
-9.06983e-06
0.00011952
-2.5144e-06
2.46683e-06
-1.70821e-06
0.000110241
-5.07146e-06
-0.000108543
0.000115491
-1.07992e-06
-1.44257e-06
0.000121763
6.6804e-05
7.81978e-05
-0.00012965
7.75208e-05
5.34917e-05
-8.5929e-05
-5.18617e-05
-1.36706e-05
0.000114454
-3.54239e-07
-0.00011305
-0.000118728
-9.47143e-05
5.80671e-05
-0.000110093
0.000109805
0.00011515
-0.000110256
-6.3225e-07
-0.000112342
-3.43469e-07
0.000112601
9.11876e-05
-3.74577e-05
-0.000112516
4.96412e-07
0.000111763
7.24364e-06
-0.00012043
0.000114201
-0.000111876
9.35835e-07
-9.48309e-05
3.44204e-05
0.000117014
-9.46668e-05
-2.48409e-06
0.000112214
-0.00011005
-3.38005e-06
-0.000110373
0.000113523
7.1149e-05
-0.000121503
5.03851e-05
0.000107216
-0.000111237
0.000115179
-9.96602e-05
-0.000152711
9.02967e-05
6.24017e-05
-0.000112901
2.72229e-07
0.000112282
-4.90274e-07
-0.000111752
-9.63961e-05
5.04517e-05
9.34975e-05
6.17395e-06
-0.000103578
0.000101924
-9.0146e-06
-5.09097e-06
2.19817e-06
-0.000120405
7.63952e-06
8.52329e-07
-0.000113369
0.000120409
-0.00011887
-1.32412e-06
0.000110113
-0.000109612
4.03944e-05
-0.000128534
0.000111835
-9.68674e-07
-0.000114964
0.000116567
-1.7503e-06
0.00012126
-0.000122401
-0.000114792
-6.0927e-07
-3.60979e-07
-0.000112647
-6.82909e-05
9.57527e-05
-3.74013e-05
-1.90608e-06
-0.00011006
0.000115519
9.02649e-05
1.27962e-05
-0.000103051
0.000110573
-0.000107288
8.22122e-05
-0.000115512
3.19331e-05
0.000101636
-1.13497e-05
-1.49394e-06
-0.000113174
0.000113572
-0.000108964
0.000107803
-0.000111443
0.000109784
-3.00586e-05
-3.61129e-06
-8.99398e-05
0.000116034
-0.000112733
0.000109414
-6.73271e-05
0.000128824
-6.15143e-05
-0.000120013
0.000117674
2.37166e-06
-3.77821e-06
0.000112078
-0.000113587
-6.90175e-05
-6.92382e-05
0.000110804
-9.28565e-05
-5.3178e-06
0.000129803
0.000120027
-8.52594e-05
-4.61297e-05
8.20551e-05
-3.75087e-05
0.000110907
-0.000119946
2.73369e-06
0.000130045
-8.18648e-06
-0.000106629
3.57696e-05
-1.27817e-06
0.000102663
6.75872e-07
0.000119369
-0.000122601
5.15695e-06
0.000116165
-0.000121347
-0.000119535
0.000118305
1.2753e-06
-2.8798e-06
-0.000116482
2.53458e-06
-2.97106e-06
0.000107903
-0.000104869
-0.00011382
9.49982e-05
1.46948e-05
-0.000119356
0.000118616
6.26298e-07
-0.000137219
3.12193e-05
0.000107967
-0.000110765
-2.0872e-06
-2.19196e-05
0.000111487
-3.15872e-06
-2.54838e-06
-0.000109354
0.000110201
0.0001147
-4.90103e-05
-0.000115696
2.20042e-06
-0.000109082
0.000105373
9.5025e-05
-2.38586e-06
0.000114956
5.681e-06
-0.00010723
9.67593e-05
-0.000119197
0.000119723
-2.5332e-07
-0.00010855
-2.7581e-07
0.000109305
-1.14997e-06
0.000124229
-8.20106e-05
-0.000109326
-4.35903e-06
0.000113669
-0.000110528
0.000116907
-2.49751e-06
0.000116435
-1.38817e-06
7.85908e-05
-0.00010764
3.04864e-05
5.7482e-06
0.000104066
-0.000110381
-0.000111835
0.000114923
0.000123688
-0.000119775
0.000110969
-3.00295e-05
4.47099e-06
-0.000110897
0.000111142
-5.52086e-06
0.000109868
-0.000103622
8.54904e-06
0.000109912
-0.000125637
-0.000118575
0.000117586
0.000141544
-0.000112069
-2.94881e-05
4.8296e-06
-0.000108142
0.000103128
-0.000122411
0.000120308
-5.60731e-07
0.000107667
-0.000103048
5.069e-05
9.09319e-05
0.00012006
-2.14403e-06
4.76967e-06
-0.000111427
0.00010656
5.43102e-06
-0.00011818
0.000112594
8.17383e-06
0.000103231
-0.000111163
4.7829e-07
0.000111456
-0.000110387
-0.000119507
0.000106529
-0.000107283
0.000115723
-2.75569e-06
1.39722e-06
0.000109231
-0.000110632
0.000114488
-0.000112064
0.000110488
-0.000116895
1.15499e-06
4.53358e-06
0.000114393
-6.99721e-07
-3.7323e-07
-0.0001132
0.00010943
-0.000109809
-2.97768e-06
0.00012399
-0.000112533
-0.000110347
0.000105763
8.64966e-05
3.02451e-05
-0.000115137
0.000113715
1.41333e-06
0.00012213
-0.000120729
1.00159e-06
0.000123863
-1.38548e-06
-3.00084e-05
0.000110763
1.86354e-06
0.000113042
-0.000116351
1.1225e-06
-0.000120762
0.000123116
-1.90471e-06
0.000114292
-1.55991e-06
9.94428e-06
0.000105745
-0.000115391
-9.60355e-05
0.000106057
1.1474e-05
-0.000107383
-0.000107458
0.000103283
-0.000119945
1.5116e-06
-5.71479e-06
8.74133e-05
-0.000100889
1.34702e-05
-4.05571e-07
0.00011521
0.00010753
-0.000105929
0.000114753
9.25904e-05
-5.23482e-06
-0.000110378
-8.0599e-05
0.000104637
-2.30984e-05
0.00015847
-1.0662e-05
0.000109553
-0.000101177
7.77313e-05
-0.000110104
3.04766e-05
0.000106685
-3.08233e-05
9.59236e-05
-0.000119565
0.000118672
-6.41686e-06
-6.86232e-07
-0.000111812
0.000117271
-8.52632e-06
-0.0001196
0.000118336
-0.000124332
5.15595e-06
-0.000114459
-0.000115813
1.97037e-06
-2.41241e-06
0.000113284
-0.000112189
0.00010882
3.73532e-06
0.000103964
-0.000107441
0.000107154
2.93824e-07
-0.000112298
-0.000122074
-6.45638e-06
-3.13838e-06
-0.000105467
-0.000117482
3.93777e-06
4.74338e-07
0.000107301
-0.000107737
-0.000115555
-8.5639e-07
0.000119799
-0.000119786
7.91299e-07
-6.97761e-05
-8.298e-05
-0.000114941
1.71775e-06
-0.000119779
-3.46211e-06
-5.46352e-05
-7.44313e-05
6.12395e-06
-0.000126894
-0.000112593
-0.000132126
-2.7263e-06
0.000107686
-0.000102265
3.58321e-06
-0.000114612
-1.67104e-06
0.000100503
0.000117963
4.22284e-06
-0.000131543
-0.000121251
0.000123382
-0.000114789
0.000117012
-7.70611e-07
1.38416e-05
-9.30552e-05
-8.89136e-05
5.77911e-06
-0.000117752
7.2802e-07
-0.000117459
6.45885e-07
-0.000117768
7.41798e-07
-0.000117776
5.13487e-07
-1.35143e-06
-0.000118636
1.48687e-06
-0.000102458
3.93331e-05
-1.3867e-06
-0.000117013
7.00231e-07
-1.20747e-06
0.000109244
-1.39137e-06
0.000113541
-0.000116632
3.29962e-06
-0.00011771
4.73807e-07
-1.41651e-06
-0.000139439
7.80832e-05
6.14524e-05
-0.000117629
6.80679e-07
-1.17988e-06
-1.34675e-06
-0.000112701
0.000114342
-1.67642e-06
-0.000117854
3.35251e-07
0.00011486
-0.000123368
8.54114e-06
-0.000116564
6.60531e-07
-1.37464e-06
-1.53731e-07
-0.000117373
5.84168e-07
0.000116251
-0.000114147
-2.13454e-06
-0.000117744
1.02013e-07
-1.24418e-06
-3.77831e-06
-0.000116193
5.40465e-07
-7.90829e-07
-0.000114746
-1.01305e-06
-0.000117563
1.63479e-08
-1.26145e-06
-0.000125918
5.87177e-05
0.000105105
-0.000109352
7.50937e-05
-0.000105979
3.27378e-05
-6.31914e-07
9.91889e-07
0.000114666
-2.07659e-06
-0.000112948
9.03293e-07
-0.000117736
-3.18963e-07
0.00011145
-0.00011071
2.14363e-06
-0.000111508
1.9775e-06
-1.2021e-06
-4.84223e-07
-3.71502e-05
4.45233e-06
0.000104929
-0.000126193
-0.000117493
-9.79207e-07
1.19058e-06
-0.000106663
-9.22887e-07
0.000107592
8.76028e-07
-0.000116991
-1.48103e-06
1.57404e-06
0.000133791
-0.000117231
-1.81173e-06
1.12092e-06
-0.000116602
-1.98846e-06
1.0548e-06
-0.000113046
8.66795e-06
-0.000100574
1.39154e-06
5.08409e-06
-0.000109546
0.000104785
-0.000117248
-2.38798e-06
0.000121858
-1.8446e-06
-0.000104274
0.000109784
-0.000113554
-1.62909e-06
2.53171e-06
-1.59893e-06
-0.000110675
0.000109984
-0.000116619
-2.18171e-06
0.000111044
-0.000115391
-2.52833e-06
1.91723e-06
-0.000118075
-2.87054e-06
9.46838e-05
1.4253e-05
2.29727e-06
-9.68452e-05
-2.75701e-06
0.000102325
-0.00011344
-3.05258e-06
0.000111149
0.000116913
6.41129e-07
-2.19826e-05
2.44405e-06
-1.16617e-06
-0.000118043
-0.000117773
0.00011789
-3.66531e-06
-0.000119346
-3.36526e-06
-0.000111667
0.000113872
-2.45682e-06
-0.000115718
1.96416e-06
1.56411e-05
-0.00011471
9.76388e-05
2.83713e-06
-0.000111558
-2.87911e-06
2.94355e-06
-5.36107e-05
-7.26437e-05
0.000126131
-3.44566e-06
-0.000119626
0.000121793
8.87163e-05
-0.000114477
2.19074e-06
-0.0001146
-1.95196e-07
0.000118807
-0.000122982
-4.4201e-06
0.000110329
-0.000106009
2.88074e-06
-0.00011718
-2.99193e-06
0.000112053
2.35665e-06
9.83724e-05
-0.000101516
-6.96095e-05
0.000134534
-0.000106469
-0.000114821
0.000116464
-2.29702e-06
1.75024e-06
0.00011018
2.13743e-06
0.000111929
-0.000116006
1.60827e-06
0.00010579
-0.000106952
0.00011803
-0.000126649