/*--------------------------------*- C++ -*----------------------------------*\
  =========                 |
  \\      /  F ield         | OpenFOAM: The Open Source CFD Toolbox
   \\    /   O peration     | Website:  https://openfoam.org
    \\  /    A nd           | Version:  12
     \\/     M anipulation  |
\*---------------------------------------------------------------------------*/
FoamFile
{
    format      ascii;
    class       surfaceScalarField;
    location    "3.9";
    object      phi;
}
// * * * * * * * * * * * * * * * * * * * * * * * * * * * * * * * * * * * * * //

dimensions      [1 0 -1 0 0 0 0];

internalField   nonuniform List<scalar> 
67988
(
-0.00033847
0.000340005
-1.47245e-06
-0.000300029
0.000300073
0.00020472
-0.000431064
0.000226504
0.000132227
-0.000294038
0.000162571
-0.000144466
-7.79047e-05
0.000222687
-8.899e-05
0.000257435
-0.000167196
-7.53329e-05
0.000322211
-0.000246506
-7.94923e-05
-0.000191605
0.000271097
0.000188752
-0.000186538
-2.31177e-06
0.000211867
6.74808e-05
-0.000278384
-0.000171019
3.27241e-05
0.000138565
-0.000373546
0.000154103
0.000219304
-0.000348153
0.000127079
0.000221063
0.00017271
-0.000289168
0.000116458
0.000180659
-0.000132669
-4.78326e-05
-0.000155688
0.000110156
4.53922e-05
0.000236775
-0.000321116
8.43419e-05
-9.63764e-05
-0.000174021
0.000270397
-0.000174295
0.000254755
-8.03124e-05
-0.00031248
0.000201541
0.00011012
0.000216889
-0.000280001
6.31122e-05
-0.000425346
0.000395347
3.00134e-05
-0.000301221
0.000302692
-1.41725e-06
-0.000216623
0.000291733
-7.51103e-05
0.000102816
0.000177185
-0.000280001
-0.000216356
0.000128173
0.000167077
0.000105532
-0.000272609
0.00030659
-0.00030659
-1.10264e-05
0.000119816
-0.000108476
-0.000332738
0.000200055
0.000132778
3.10399e-05
-0.000217518
0.000186203
0.000314606
-0.000195791
-0.000118816
-0.000343243
0.000257337
8.59468e-05
-0.00019576
-7.13039e-05
0.000267983
0.000223783
-0.000214738
-7.84034e-06
0.000265516
-0.000352882
8.75444e-05
-0.000205924
6.18694e-05
7.58803e-06
-0.000245197
0.000237609
0.000217587
4.80452e-05
-0.000266429
0.000133925
-0.000320153
0.000186229
-0.000310289
0.000121492
0.000188796
0.000131404
-0.000137092
5.84664e-06
-0.000215741
0.000223329
-0.000281924
-9.14969e-05
-0.000306568
0.000134799
0.000171769
-0.000381791
0.000275198
0.000106576
2.35303e-05
0.00010779
-0.000397229
0.000277606
0.000119449
-1.6309e-05
0.000241414
-0.00027798
6.13566e-05
0.0001365
0.000142956
-0.000279405
-0.000364203
0.000255375
0.000108544
0.000247289
-3.03997e-05
-0.000330658
0.000140705
0.000190458
-0.000286167
0.000273025
1.29929e-05
-0.000445712
0.000240809
0.000204653
-0.000378306
2.41229e-05
0.000354227
0.000360762
-0.000268571
-9.17472e-05
-0.000328149
9.96833e-05
0.000227662
0.000204888
-0.000212683
7.96857e-06
0.000130089
-0.000304361
0.000174273
-0.000210762
-0.000117321
-0.000304165
0.000214229
8.99364e-05
-9.88964e-05
0.000265973
-0.000293741
-1.0411e-05
0.00030388
0.000335041
-0.000262763
-7.27097e-05
0.000250293
-0.000246177
-4.11602e-06
4.20525e-05
-0.000216296
0.000231311
-0.000351331
0.00011988
0.00025858
5.87308e-05
-0.000317092
8.54966e-05
-0.000216889
0.000131169
0.000169138
-0.000170364
1.16042e-06
-0.000195012
0.000332469
0.000286074
-0.000284045
-9.5766e-07
-6.32195e-05
-0.00031507
6.4102e-05
0.000242488
-0.000318725
0.000228061
9.06644e-05
0.000223236
-0.000285427
6.20791e-05
-5.08885e-05
0.000255918
0.000247885
-0.000250293
2.40801e-06
-0.000294227
0.000292331
0.000127542
-0.000281901
0.000154944
0.000133413
3.48379e-05
-0.000338055
0.000249582
8.99122e-05
-0.000332063
0.000226027
0.000106862
0.000340827
-0.000161957
-0.000178869
0.000240601
6.55125e-05
-0.000306157
0.000232409
2.68102e-05
-0.000260779
-0.000300083
0.000224555
0.000158479
3.01301e-05
-0.000172862
-0.000136208
8.93203e-05
-0.000276053
0.000186733
0.000254069
4.51051e-05
-0.000299164
-0.000262764
-0.000134571
-0.000260877
1.40281e-05
0.000246849
-4.43802e-05
-0.000201853
0.000246233
-5.1743e-05
0.000310445
1.88548e-05
-0.000274993
0.000255908
-0.000258876
0.00015821
0.000100523
-0.000172473
-0.000160188
0.000129572
7.86746e-05
-0.00020815
-0.000238522
-3.50412e-05
0.000273104
0.000337859
-9.05294e-05
-0.000246948
0.000192697
8.09483e-05
-0.000273645
-8.01643e-05
0.000272861
0.000243485
-7.07753e-05
0.000252459
-0.000255074
2.61521e-06
-8.56605e-05
-0.00033985
0.000169359
0.000145248
-0.000373224
5.31288e-05
0.000320164
-0.000269277
0.000264601
4.67602e-06
0.000145314
-0.000214822
6.97662e-05
0.000159669
4.01618e-05
-0.000200068
0.000276005
-3.9231e-05
-6.68819e-05
-0.000306282
0.000329741
-0.000148986
-0.000180756
-0.000186649
-8.49803e-05
0.000271629
0.000212092
0.00012566
-7.13846e-05
-0.000211956
0.000283135
0.000109349
-0.000299888
0.000190313
-0.000202656
0.000304568
-0.000101912
-0.000272789
-1.00619e-05
0.000283047
-0.000292498
-0.000153199
-0.000304209
0.000438861
-0.000134929
-0.000225065
-4.91962e-05
0.000274261
-0.000232969
-3.96844e-05
-0.000323608
0.000237906
8.52983e-05
0.000289299
-0.000309078
1.93288e-05
0.000211601
-0.000313846
0.000101391
0.000158677
0.000117964
-0.000276641
-0.000369094
0.000139917
0.000230205
0.00031442
-0.000328169
1.39041e-05
0.000370194
-0.000146201
-0.000224369
0.000284511
-3.20523e-05
-0.000127551
0.00012931
-1.45648e-06
0.000199893
7.77563e-05
-0.000277649
-8.44763e-05
0.000284369
0.000235929
5.46282e-05
-0.000290557
-0.000206488
-0.000124983
-0.000329292
9.03567e-05
8.67163e-05
0.000187041
-0.000273757
0.000321299
-0.000136316
-0.000184768
-0.000145476
0.000292919
-0.000147989
0.000279161
9.74404e-06
-0.000288905
0.000154239
-7.1384e-05
-8.28547e-05
-8.83683e-05
-0.000181861
0.000270229
0.000184941
-0.000273309
-8.73603e-05
0.000272301
-0.000167151
-9.77456e-05
0.000264897
-8.05787e-05
-0.000225989
0.000241155
1.82736e-05
-0.000258534
0.000294085
-6.70883e-05
-0.000226997
0.000135996
-0.000132155
-4.4503e-06
-0.00011249
-0.000146204
0.000125251
9.82373e-06
1.57887e-17
-0.000269277
0.000237861
1.2432e-05
0.00027192
-0.000113902
0.000113259
-0.000111638
-1.63946e-06
-0.000254556
-3.94257e-05
0.00011529
-2.07974e-06
0.000227277
-0.000316205
8.89283e-05
0.000237365
-0.000317989
8.04101e-05
0.000112361
-0.00013908
2.63873e-05
-0.000233306
0.000129619
0.000103487
-0.000167004
-5.29675e-05
0.000220606
3.50242e-06
0.000262167
0.000180181
-0.000276557
-0.000336234
0.000242308
9.36227e-05
-0.000327489
0.000203169
0.00012432
-7.60024e-05
-8.02515e-05
-0.000234017
6.68659e-05
0.00018596
-0.000299866
0.000114231
0.000276641
-0.000276641
-8.88359e-05
-0.000210931
0.000299596
0.000109008
-0.000110816
1.86281e-06
0.000113175
-4.07802e-06
0.00027226
1.55963e-05
0.00036176
-0.000260802
-0.000101826
9.27736e-05
-0.000327427
0.000234654
-0.000253722
0.000182029
-0.000230311
-9.96056e-05
0.000112362
-0.000113297
9.45424e-07
0.000114843
-2.52967e-06
0.000300117
-9.6583e-05
-0.000203427
0.000242242
7.5847e-05
-0.000317923
-0.000156269
-0.000171221
0.000283675
-0.000272453
-1.12483e-05
0.000350859
-0.000316228
-3.48655e-05
0.000119392
-0.000113414
-5.95487e-06
0.000118459
9.27541e-07
0.000222142
1.87799e-05
-0.000240602
5.27034e-05
0.000297932
0.000175732
0.000124503
-0.000326951
0.000141861
0.000185262
0.000190346
-6.07773e-05
0.000112306
-0.000113486
1.22959e-06
-0.000127875
-9.47563e-05
0.000221521
6.96418e-05
-0.000215921
0.000146026
0.000114789
-2.46482e-06
0.000128542
0.000204698
-0.000210316
0.000280852
-7.1891e-05
-0.000230942
-0.000164968
0.000395735
-0.000236851
-6.65791e-05
0.000303574
-0.00021796
-0.000163861
-0.000255715
0.000352
-9.64287e-05
0.000318146
-0.000222496
-9.58507e-05
0.000238742
8.2189e-05
-0.000204143
0.000204095
-0.000296711
-4.17314e-05
0.000201257
7.05973e-05
0.000202217
-0.000282745
8.05283e-05
4.61492e-05
-0.000293383
0.000247657
-0.000178333
-0.000125832
-0.000207555
-0.000174619
0.000382399
0.00011139
-0.000113018
1.52443e-06
0.000113524
-2.22743e-06
-0.000317129
0.000228957
8.81723e-05
0.000267782
-0.000239518
-2.81305e-05
-0.000306031
9.84605e-05
-0.00027764
-7.10373e-05
-0.000139528
-7.29539e-05
0.000211541
0.000350061
-9.60811e-05
0.000297417
-0.000242108
-5.21128e-05
-0.000138566
0.000343689
-0.000204392
9.85488e-05
-0.000318076
0.000218917
0.000117883
-0.000111662
-6.15703e-06
0.000116933
8.15519e-07
9.31564e-05
-0.000275017
-0.000342807
0.000170486
0.00012943
-0.000198879
6.9667e-05
0.000290781
-7.37327e-05
-0.000175303
0.000106108
6.69246e-05
8.58389e-05
0.000224907
-0.000310599
-0.00033419
0.000191336
0.000142796
-1.18195e-05
-0.000158634
-0.000183882
1.71625e-05
-0.000283615
0.000114121
0.000169447
-0.000287029
2.61521e-05
-0.000312757
0.000312471
0.000112105
-0.000110895
-0.000172908
-0.000250587
0.000161755
0.000157224
0.000183603
-0.000285121
0.000174311
-0.000239001
7.39685e-05
0.00016563
0.000324613
-0.000119754
-0.000116213
-0.000168543
-0.000264681
0.000100372
0.00016391
-9.29807e-05
-0.000145542
0.000224029
5.51322e-05
-0.000233476
8.02348e-05
0.000154657
-9.42393e-05
-0.000170162
0.000264669
0.000105009
0.000109916
-0.000111636
1.63173e-06
-0.000252784
8.00537e-05
0.00017261
0.000110196
-0.000112028
1.59472e-06
0.000113248
-3.05502e-06
0.000112937
-2.63775e-06
-7.14682e-05
-0.000161223
-0.000202077
-5.87442e-05
0.000260821
-6.91469e-05
-0.000182267
0.000303148
-6.25534e-05
0.000162913
0.000166828
0.000193444
-0.000290884
9.67967e-05
-0.000252118
0.000184865
-0.000123785
0.000276854
-0.000152134
-0.000230342
0.000256609
-2.56434e-05
0.00019029
0.000170956
0.000117104
-0.000110925
-6.24722e-06
-8.06072e-05
-0.000219297
0.000116597
7.44237e-07
0.000340089
-0.000173769
-0.000166321
0.00034417
-0.000103568
-0.000279037
4.23391e-05
-0.000253118
6.07966e-05
0.000191711
-8.71363e-05
0.000269305
-0.000182169
0.00026378
-3.23286e-05
-0.000231687
4.60322e-05
-0.000271097
-9.05244e-05
0.000271013
-0.000180489
7.88483e-05
-0.000265497
0.000255499
-0.000301135
4.62515e-05
-0.000151313
0.000285237
-7.39814e-05
-0.000159594
0.000176068
-0.000312311
0.000136611
0.00017484
-0.000127266
-9.21802e-05
-0.00014149
0.000234876
-6.42623e-05
0.000273961
-0.000209401
6.63627e-05
0.000228961
-0.000296158
-0.000200303
0.000109722
-0.000259603
0.000195245
0.00027626
-0.000100043
-9.89446e-05
-0.000269444
0.000323688
-0.00011072
-0.00018275
-8.85531e-05
0.000271303
-0.000228873
0.000249845
-2.09721e-05
0.00031223
-0.00031399
1.79762e-06
0.000308471
-0.000216677
-9.16875e-05
0.000112762
-0.000307839
0.000224647
-6.44564e-05
-6.11531e-05
0.000246875
5.60121e-05
-0.000253857
0.000197989
0.000275633
-4.83562e-05
-0.000340811
0.00010975
0.000338472
-0.000116465
-0.000165939
0.00019636
-0.000157849
-0.000101101
0.000259349
9.75161e-05
0.000235576
-0.000332908
-0.000179136
-0.00014198
-0.000317433
0.000231133
8.70562e-05
-0.000372189
6.7794e-05
0.000249313
-0.000146497
-0.000326658
4.51939e-05
0.000282131
0.000125537
5.57129e-05
-0.00018554
0.000321806
-0.000298671
-2.31529e-05
-0.000300864
0.000259756
4.16825e-05
5.37897e-05
0.000246123
-0.000112177
-6.26508e-05
-0.000295408
0.000299351
-3.39209e-06
0.000383697
-0.000247427
-0.000136405
-0.000168357
-0.000118105
0.000212166
0.000171343
-0.000220361
1.1228e-05
0.000209133
-7.67455e-05
-0.000233543
-0.00013491
-0.000177788
0.000228472
7.87074e-05
-0.000306575
0.000223755
6.52975e-05
-0.000289422
0.000267893
-0.000199603
-0.000218345
0.000173965
-0.000311893
0.000196029
0.000115864
0.000295475
-0.000296153
4.28178e-07
1.57303e-05
9.53882e-05
-0.000111931
-0.000139449
0.000267545
-0.000264741
0.000185249
0.000225138
-1.41208e-05
0.000271586
-1.57291e-05
0.000215466
0.000102381
0.00021198
0.000149186
0.000316611
-0.000104208
-0.000212547
-0.00029475
9.49858e-06
0.000285081
-0.000233125
-8.79332e-05
0.00032125
0.000377033
-6.50503e-06
-0.000370826
6.81208e-05
0.000195482
0.000246905
1.69401e-05
-0.000263845
-0.000118664
0.000320881
-8.64363e-05
0.000274681
-0.000188245
-0.000201579
0.000208424
-6.38699e-06
-0.000171501
-0.000147225
-0.000169114
-0.000174133
9.98276e-05
-0.000336132
0.000231875
0.000203421
0.000101472
-0.000305268
-0.000195777
-7.35563e-05
0.000269333
0.000160829
-6.98832e-06
-0.000153826
-3.63617e-05
-0.000264834
0.000315677
-0.000188978
-0.000126675
-1.81432e-05
0.000275275
9.06364e-05
-0.000282241
0.000108364
0.000194105
-0.00030209
-2.19721e-05
-0.000273975
-0.000297192
0.000283616
1.36957e-05
0.000142173
-0.000125905
-0.000121613
0.000254641
-0.000143624
-8.79954e-05
0.000232829
0.000242229
-3.42699e-05
-0.000207705
0.000309721
-0.000211469
-9.04684e-05
0.000271041
-0.000180573
-0.000226921
0.000245716
1.67165e-06
0.000240696
0.000267839
-0.000174708
-2.91529e-05
0.000296792
-0.000267596
-5.27857e-05
0.000289984
0.000219019
-0.00012711
-9.2579e-05
-7.70003e-06
0.000301785
-7.74101e-05
-0.000210356
-0.000127116
0.000264628
-0.000137891
-0.000266131
6.34746e-05
-8.37809e-06
-0.000243762
0.000252105
0.000210403
-0.000276703
6.6618e-05
0.000104988
8.12419e-05
-0.000186337
0.000260151
6.39779e-05
-0.000322882
-5.80879e-05
0.000319961
0.000257629
-0.00021814
0.000308015
-8.91627e-05
-0.000127935
0.000122738
5.44842e-06
-7.22403e-05
0.000254549
-0.000182309
0.000116731
0.000190334
-0.000307417
0.000121044
0.000124078
-0.000244219
0.000277033
-0.000199277
1.36811e-05
0.000208323
-0.000332644
0.000132763
0.000200267
0.000189057
-0.000269221
-0.00011853
-0.000104035
0.000223663
9.36184e-05
0.000172887
-0.000266505
-9.27229e-05
8.25469e-05
-0.000273337
0.000188861
-0.000359869
0.000152881
0.000207307
-6.43163e-05
0.000272385
-0.000208069
-8.73883e-05
0.000267905
-0.000180517
0.000288853
-5.83625e-05
0.000224309
2.25961e-05
-8.85363e-05
0.000273477
-0.000184941
-0.000214676
0.000314136
-0.000272049
0.000184689
0.000310885
-0.000208534
-0.000102352
-0.00034429
0.000268903
7.5525e-05
-0.000185333
-7.91003e-05
0.000266897
-0.000187797
0.000271881
-0.000252578
0.000315337
-0.000174189
-0.000141149
-0.00025864
7.58901e-05
7.35843e-05
-0.000275661
-4.558e-05
-0.000299579
-9.13644e-05
0.000278517
-0.000187153
0.000109489
0.000111511
-8.29559e-05
0.000145629
0.000169709
-0.000283673
0.000275746
7.64459e-06
9.85148e-05
-0.00024499
2.29269e-06
-9.92194e-05
0.000333038
-0.000233486
-6.93563e-05
0.000263761
-0.000194405
0.000269501
-0.000134121
0.000264209
0.000174865
-6.51036e-05
-0.000189981
-0.000121912
0.000461687
-0.000232722
-0.000228855
0.000256837
0.000204956
-0.000260066
0.000203418
5.68064e-05
-0.000277845
0.000275661
2.18401e-06
0.000327917
-0.000277345
-4.98173e-05
-0.000257685
8.92923e-05
0.000168393
-8.60468e-05
0.000277512
-0.000191465
0.000156661
5.90522e-05
-0.000215713
-7.66083e-05
-0.000181077
0.000215402
-9.40216e-05
-0.000237964
0.000117571
0.000120741
-0.000262865
0.000183765
-0.000287505
5.86322e-05
0.000430514
-0.00017354
7.08125e-05
5.12922e-05
-0.000122597
0.00023145
0.00019924
-0.000257069
0.000180461
9.78988e-05
0.000188455
5.87992e-05
-0.000248881
0.000190118
0.000332362
-0.000120897
-0.000210975
0.000157831
0.000153054
-7.39763e-05
-0.000183093
-0.00028354
-8.26418e-05
0.000366212
0.000272854
-0.000164704
-7.04665e-05
0.000247338
-0.000176135
4.53637e-05
-0.000275543
0.000230833
5.09608e-06
0.000156886
-5.20413e-05
-0.000338033
0.000191801
0.000145864
0.000200985
-0.000270341
0.000236601
-0.000245626
9.61126e-06
-0.000175582
-0.000148479
-9.49197e-06
0.000213071
-0.000203305
-0.000149099
0.000258008
-2.55361e-05
0.000257797
-0.000232261
-0.000142073
0.000300749
-7.26303e-05
0.000317087
-0.000243902
0.000176793
0.000103208
0.000230861
7.81203e-06
-0.000238673
-0.000142414
0.000175049
-5.79207e-05
-0.000268025
-0.000167889
0.000161312
6.4764e-06
0.000116667
8.61065e-06
0.000115414
1.53188e-06
8.42978e-05
-0.000220502
0.00013608
0.00019828
0.000101345
-2.63481e-05
0.000257209
0.000156307
1.18398e-05
-0.000168441
-0.000252617
2.32401e-06
-0.000292602
0.000348086
-5.56991e-05
-0.000193226
-0.000171208
-0.000103233
0.000294004
-0.000190405
0.000317835
-1.4407e-06
-0.000227861
-0.00010607
-0.000244983
0.00035278
-0.000107602
0.000124714
0.000105449
-0.00023052
-8.90711e-05
0.000268914
-0.000179836
-0.000163626
0.000289055
-0.000127438
-0.000166858
0.000288351
0.000302217
-4.69183e-05
-0.000194045
0.000321163
-6.74523e-05
0.000249677
-0.000182225
-7.06917e-05
-0.000247067
0.000318341
0.000277395
-0.000283389
5.44602e-05
0.000228929
-8.82283e-05
-0.000161421
0.000249649
0.000254
-0.000197857
-0.000252897
0.000185445
0.000110045
5.18624e-06
0.000263081
-0.000211425
-5.29064e-05
0.000113496
-3.55676e-06
-6.71163e-05
-0.000185781
0.000265088
-6.18096e-05
4.71939e-05
-0.000271538
0.000224589
-3.41041e-05
-0.000249285
-0.00021435
-7.88611e-05
0.000295743
-0.000248343
0.000251553
-6.38402e-05
-0.000187713
0.000184437
0.000313233
-4.08464e-05
-0.000244187
0.000235783
-0.000316068
0.000316106
-0.00028651
0.000220024
6.71562e-05
6.93283e-05
-0.000289689
-0.000199741
0.000265708
-0.000227887
-3.4912e-06
0.000231529
-0.000236888
-9.19773e-05
0.000329784
-0.000250769
0.000186929
0.000197686
-0.000128333
0.000315337
-0.000138545
0.000272021
-0.000191073
0.000119358
-6.55483e-05
-0.000185221
-0.000251833
0.000177857
-0.000267793
0.000195553
-0.000241165
0.000176849
-0.000278006
-1.67146e-05
-7.5212e-05
0.000255089
-0.000179899
-0.00018174
9.33055e-05
8.8413e-05
0.000187685
-0.000253233
-0.000261549
0.000174161
-0.000137698
0.000212661
-7.48852e-05
-0.000100189
-0.000142174
0.000242259
0.000286553
-0.00012614
-0.000160413
-0.000267933
0.000182953
-0.00013136
0.000212975
6.36583e-05
-0.00027671
-0.000246909
0.000419401
-0.000172498
-0.000106155
0.000281127
-0.000171134
-7.76723e-05
0.000251133
-0.000173461
-0.000108324
-0.000152832
0.000261544
-1.02187e-05
0.00012086
0.000168981
0.000109312
-0.000278293
0.000190485
-0.000261454
7.10541e-05
-1.41051e-05
-0.000203315
0.00021742
-0.000268488
0.000303198
-3.47551e-05
-0.000213893
-9.04684e-05
-0.000196663
0.000315536
-0.000445425
0.000193935
0.000252001
-0.000240689
-7.94643e-05
0.000273701
-0.000180545
0.000198722
-2.35828e-05
-0.000174277
-9.08653e-05
-0.000160572
0.000251936
0.000177633
-0.000213126
-6.62455e-05
0.000279371
-0.000192025
-8.42523e-05
0.000276277
0.000115811
2.65239e-06
0.000116822
-9.43823e-07
3.48601e-05
0.000241781
-0.000106179
-0.000190935
-0.000276725
0.000188189
-0.000123559
0.000217177
8.98257e-06
-0.000236596
-0.000189617
-7.87923e-05
0.000268409
7.99143e-05
0.000221045
-0.000301202
0.000102681
-3.18158e-05
0.00023311
-0.000211663
1.00265e-06
-0.000274906
0.000284981
-1.01628e-05
-0.000173825
-0.000143305
-0.00020169
0.000296426
-9.47356e-05
-0.000126896
-0.000167537
0.000292993
-0.000128493
0.000305677
-1.30537e-05
0.000243923
-0.000230869
-0.000250791
3.76657e-05
-7.07312e-05
0.00015636
-1.41932e-05
0.000214821
-0.000200074
0.000182953
-0.000110363
-0.000163792
0.000273482
0.00023803
-0.000172764
-6.57615e-05
-4.58174e-05
0.000175334
0.000265084
-0.000167617
-0.000186845
-8.92083e-05
0.000105644
4.82873e-05
-0.000233941
0.000164229
6.97133e-05
-0.000135389
-0.000174562
0.000310011
6.4256e-05
-0.000181937
0.000117692
-8.68477e-05
-0.000158658
0.000245169
3.20457e-05
-0.000265152
0.000100827
0.00020195
-0.000351794
9.04132e-05
0.000261335
0.000147596
-0.000268893
0.000121492
0.000183103
-3.75246e-05
0.00010858
-0.000237198
-0.000111708
-0.000125948
0.000180769
-0.000181158
0.000426864
-0.000246164
7.12246e-05
0.000168769
-0.00023925
-0.000151509
0.000293329
-0.000141821
9.74022e-05
-0.000315038
1.79198e-06
-0.000219425
6.67491e-05
-0.000307531
0.000241155
-8.49333e-05
0.000327481
0.000252498
2.33674e-05
-5.61917e-05
-7.4839e-05
0.000130754
-6.83001e-05
-0.000114551
-0.000129053
-0.000231729
-4.61162e-05
-0.00023037
0.000439755
-0.000209994
0.000110916
6.00007e-06
0.000112424
-1.30605e-06
-0.000195069
-0.000178967
0.000299275
-0.000119983
0.000249271
-0.000162904
0.000242061
-0.000293077
5.10162e-05
-0.000219212
-7.62396e-05
0.000295449
6.78443e-05
0.000189953
-0.000132251
0.000188182
-5.67782e-05
0.000141232
0.000191046
-0.000225659
0.000282939
-5.77366e-05
0.000267723
4.45949e-05
4.82142e-05
-0.000194041
-5.96829e-05
0.00018101
0.000110554
-0.000289286
-5.25282e-05
0.000280589
-4.5427e-05
0.000320624
-0.000138886
-0.00019568
0.000334908
0.00027135
-4.0538e-05
-9.52678e-05
-0.000264337
-3.51305e-05
-9.21693e-05
0.000187265
-0.000186173
-0.000152303
0.000260429
-0.000317294
0.000284621
-0.00012796
0.000214169
0.000107642
-6.75465e-05
-0.000160845
0.000228422
0.000306817
-0.000191008
-0.000116584
4.22635e-05
-0.000297389
-0.000133368
-0.000250766
0.000284603
-3.3082e-05
-0.000212732
0.000203613
-0.000204597
0.000273925
-0.000176595
-0.000123204
-0.000237491
-5.76355e-05
-8.36952e-05
-0.000155324
0.000239381
-0.000174744
-0.000117874
0.000292187
-0.00014471
9.60285e-05
4.94552e-05
-0.000188693
0.000247745
-0.000313154
0.000313312
0.000181609
0.000158481
0.000364512
-3.2217e-05
-0.000332736
-0.000308761
0.00017532
0.000133441
7.65243e-05
0.000190373
-0.000139227
0.000243572
-0.000104011
-0.000248434
-1.67636e-06
0.000256547
-6.21414e-06
7.59083e-05
0.000187853
-0.000270859
0.000135018
0.000136152
-0.000182015
-6.76575e-05
-0.000170429
0.0002447
-7.42256e-05
7.464e-05
0.000241218
-0.000252362
-7.66889e-07
0.000253181
-4.88827e-05
-0.000233758
0.000181223
-2.06848e-05
-0.000112072
0.000196247
-0.00017753
-0.00016971
0.000348498
0.000160463
-0.000337845
-0.000157227
0.000301609
-0.000144403
-0.000282976
0.000112659
-0.000241722
-6.19936e-05
-0.00016972
0.000232917
0.000252339
-0.000270614
-0.000202395
5.48242e-05
-0.000232289
0.000177465
0.000204193
-2.38615e-07
-5.58024e-05
-0.000162289
-9.31841e-05
0.000285386
-9.98369e-05
0.000269336
-0.000167532
3.80462e-05
-0.000330752
-0.000112329
-0.000102089
0.000185025
-0.000263621
7.85963e-05
-0.000265153
-4.7899e-05
-7.56003e-05
-0.000177017
0.000252617
0.000229131
7.15376e-05
-0.000300705
-0.000192328
-0.000158949
8.88613e-05
0.000217472
-0.000306665
-0.000166761
-8.72071e-05
0.000254052
0.000347731
-0.000189361
-0.000158293
0.000235873
-4.52413e-05
-0.000171109
-0.000145097
6.81243e-05
-0.000257825
0.000189701
-0.000142458
0.000413155
-0.000270831
0.000252702
-5.18761e-05
-0.000201847
0.000108697
8.08285e-06
0.000294099
-0.000167665
-0.00012688
0.000150518
-0.000233364
8.27839e-05
0.000179789
-0.000257461
0.000113325
0.000226713
0.000111595
-2.8328e-06
0.000234627
0.000295783
-0.000285937
-8.86758e-06
-8.7182e-05
-0.000142818
0.000230153
-0.000165217
0.000237352
-0.000157852
0.000311564
-0.000278377
0.000187013
0.000259086
-0.000257515
-1.57025e-06
-6.45963e-05
0.000245113
-0.000180517
0.000186637
-0.000257709
0.000353342
-0.00013004
-0.000223302
-8.0337e-05
0.000293588
0.000269753
-0.000258245
-1.1508e-05
-0.000183989
0.000182869
-0.000247465
-0.00027737
0.000191324
0.000204072
-5.37379e-05
0.000129673
0.000123269
-0.00025294
6.21404e-05
-0.0002359
0.000175189
-0.000222629
0.000134401
0.000272469
-3.04081e-05
0.000123976
-0.000247902
0.000125011
-0.000117023
0.000246626
-0.000177532
-0.000109741
0.000287175
4.40445e-05
-0.000181209
-0.000242907
-8.4022e-05
-0.000229271
0.000153745
-0.000139747
0.000273544
-0.000133156
-4.74814e-05
-0.000267463
0.000266581
5.8985e-05
-0.00034247
-4.53225e-05
0.000255627
0.000144566
-0.000271941
0.000127919
-0.00024451
-2.42234e-05
9.49176e-05
0.000169174
-0.000264091
-5.34631e-05
-0.000253127
0.000328853
-9.52345e-05
-0.000233271
-0.00011015
-0.000149428
1.35996e-05
0.000255152
-0.000111103
-0.000158242
0.000270024
-0.000115501
0.000262415
0.000209204
9.29552e-05
-0.000301879
4.5053e-05
-0.000306241
0.000260443
0.000165137
-0.000303705
-0.000220316
0.00028809
-6.77605e-05
-0.000162645
0.000210044
0.000256934
-0.000203247
-2.85909e-05
-0.00026305
7.39025e-05
-0.000324415
0.0002487
-0.000209303
-4.46594e-05
0.000209595
0.000143747
-0.000252207
0.000111803
0.00014109
-0.000257113
9.21466e-05
0.000252458
-0.000126836
0.000267707
9.42246e-05
0.000189458
-0.000431613
0.000199009
0.000222251
6.03478e-05
9.46861e-05
0.000196682
-0.00023038
-7.83807e-05
0.000364367
-0.000198881
-5.42351e-05
0.000252338
-6.24402e-05
0.000276669
-0.000138132
-5.14068e-05
0.000190263
-0.000221755
-3.73772e-05
7.95483e-05
-0.000264405
0.000184857
0.000309688
-8.57211e-05
0.000133558
0.000121564
-0.000255312
-0.000225966
-0.000125969
0.000157196
-0.000291444
0.00013263
-0.000184017
0.000172182
-0.000186287
0.000156597
-0.00029442
0.000139619
3.12279e-05
-0.000168086
0.000136898
-0.000121638
-0.000164974
0.000285891
-0.000177885
9.05949e-05
-0.000112592
0.000245816
-0.000311426
4.61225e-05
0.000265551
-7.48975e-05
0.000342942
-0.000269678
0.000105599
0.000271235
-4.5197e-05
-0.000253495
-0.000203161
0.000203176
-0.000197249
-1.90595e-05
6.75092e-06
-0.000212694
0.000206416
-5.96648e-05
0.000336465
-0.000275457
-0.000263273
0.000150131
-0.000126413
-0.000107664
0.000160472
-0.000307247
0.000147537
-0.000111764
0.000341185
-0.000215148
0.000332689
-0.000116931
0.000330885
-6.51403e-05
-0.000266652
0.000317454
-0.000227421
-9.06259e-05
-0.000183828
0.000434033
-0.000249795
0.000125856
0.00027632
-0.000401776
-8.7942e-05
-0.000244267
-0.00026164
0.000167491
0.000330279
1.21059e-05
-0.00034243
0.000155361
0.000142794
4.05556e-05
0.00027648
-2.78463e-05
-0.000288166
0.000259631
-0.000214468
-5.71654e-05
-0.000250553
0.000305676
-0.000224115
0.000128807
-0.000268154
0.000270441
0.000124982
-0.00039588
0.000171971
-0.000159663
2.7804e-05
-0.000130281
-0.000200327
0.000330601
-0.000152376
-6.8075e-06
-0.000113367
-0.000177413
-0.000172778
-0.00016387
0.000272972
-5.99158e-05
0.000194253
-0.000324453
0.000202535
-9.11886e-07
-0.000203777
4.77289e-05
-0.000149905
0.000264495
0.000164351
-0.000327179
0.000160713
7.63226e-05
0.000233098
0.000254689
-0.000199865
5.62579e-05
-0.00018544
0.000129343
-0.000281737
7.71403e-05
-0.000220509
0.000131385
0.00016284
-0.000324414
0.000162792
-0.000249159
0.000314238
0.000160665
-0.000260256
0.00013706
0.000146245
0.000140309
-0.000196929
-8.19277e-05
-0.000326731
0.000191208
-0.000127987
0.000398204
0.000251256
-0.000280392
0.000271048
-0.000399175
0.000133086
-0.000260067
0.000266285
-0.000144652
0.000416385
-0.000132406
-0.000283848
0.000262002
-0.000139275
-0.000419091
0.000172183
0.000166372
0.000160225
8.81163e-05
-0.000283893
0.000112367
-0.000255158
-0.000291089
0.000101108
-0.000133142
-0.000265098
0.000398109
8.89283e-05
0.000182757
-0.000271685
-0.000192025
0.000295707
1.74078e-05
-0.000312402
-0.000276693
0.000166063
-0.000291506
0.00012886
-0.000136269
-0.000197869
0.000333845
0.000235871
-0.000174884
-6.14194e-05
-4.5305e-05
0.000310439
-0.000263986
-0.000259936
0.000143638
-0.00019438
0.000120509
0.000367681
-0.000261862
-0.000105189
0.00019971
-0.000337058
-0.000284352
6.24948e-06
0.000225315
-9.05162e-05
6.83936e-06
-0.000251803
0.000244953
-0.000264536
8.48332e-06
-0.000157142
0.000257441
-0.000231913
0.000113721
-0.000120023
-0.000111296
-0.000185025
-0.000111637
1.12323e-07
-0.000104491
0.000333098
3.91376e-06
0.000396541
0.000214574
-0.000189449
-4.09922e-05
0.000269949
-0.000148028
0.000222821
0.000263692
-0.000168151
-9.55367e-05
-5.631e-05
0.00029855
0.000271029
-0.000280001
0.000140246
-0.000232956
-0.00012907
-0.000141381
-0.000155188
0.000234476
-0.00029221
0.00010333
0.00018897
0.000170325
-0.000366834
0.000195776
-0.000151201
0.000233433
1.23415e-05
0.000188138
-0.000369109
0.000220044
0.000148849
0.000165962
-0.000371538
0.000206082
0.000268912
7.05554e-05
-0.000339697
-6.37297e-05
0.00033123
-0.000339722
0.000253063
8.62899e-05
0.000258359
-0.000178412
-0.000106777
-0.000210895
-0.0002319
0.000161122
0.000156973
-0.000374413
0.000216224
-0.000102063
-0.00015603
0.000258674
-0.000141808
-0.000227486
-0.000301268
5.68425e-05
9.03003e-05
0.000179593
-0.000269893
-9.28204e-05
-0.000177241
0.000270061
0.000222796
-0.000404177
-0.000258301
8.42803e-05
-0.000100263
0.000310219
-0.00041597
0.000185186
-8.82146e-06
0.000261549
-7.04365e-05
0.000226063
-0.000154058
-0.000109825
-9.45115e-07
0.000121827
-0.000269776
0.000147728
0.000158758
-0.000315597
3.61913e-06
2.64049e-05
-0.000245637
-0.000236744
3.69953e-06
0.00013878
9.26782e-05
-0.000234978
-0.000293028
0.000146089
-0.000262107
6.52819e-05
7.15503e-05
-0.000225111
0.00015388
-9.69531e-05
0.000232658
0.00024501
-0.000156266
0.000263649
-0.000249621
1.45901e-05
-0.000213745
0.000199112
-0.000176965
0.00033875
0.000139332
-0.000239825
-0.000223391
-7.65578e-05
0.000300851
-0.000267448
0.000187659
-0.000335119
0.000123975
-9.04934e-05
0.000228123
3.62321e-05
0.000194265
-0.000230497
-0.000237519
0.000144585
-0.000249999
5.06324e-05
-0.000247761
0.000175517
-0.000200598
-0.000139504
-0.000102862
0.000281727
-0.000178908
-6.495e-05
-0.000161641
0.000227827
-0.000235387
0.000115447
0.000178949
-0.000277845
-0.000248794
2.92632e-05
0.000219722
0.000176494
-0.000240621
-0.000300585
0.000241425
-2.04473e-05
-0.000126782
0.000147285
2.53412e-05
-0.000259956
0.000233636
-0.000114932
1.66423e-06
-1.70754e-06
-0.000205298
0.000212235
-0.000220347
-0.000171669
0.000368897
-0.000195695
-0.000226911
0.000123576
-0.000275466
4.87608e-06
0.000237564
-0.000296247
0.000172834
-0.000219751
0.000138382
-0.000391065
0.000252694
-9.34364e-05
-0.000183205
6.09556e-05
0.00019585
-0.000199044
0.000213261
-9.75507e-05
0.000120879
0.00030063
-0.000145204
0.000212233
-0.000157484
0.000299125
-0.000282017
0.000194993
8.70243e-05
0.000257517
1.74441e-05
-0.000274961
0.00017333
7.80186e-05
-0.000207019
-7.17447e-05
0.000278763
-0.000170826
-0.000181869
0.000233677
-0.000219574
-0.00025899
-0.00011697
3.58148e-06
-2.15726e-06
0.000115006
0.000233065
-0.000312475
-0.000119085
-0.000115416
0.000300441
0.000187048
-3.13692e-05
0.000350228
-0.000231253
-0.000118216
-0.000111853
-0.000180059
-2.48796e-05
0.000212412
-0.000188368
-0.000299487
0.000142252
-0.000280226
-0.000208601
0.000104624
0.000246861
0.000180502
-0.000283379
0.000126783
-0.000260247
0.000141599
0.000120332
2.76921e-05
-0.000216385
0.000139
0.000127034
-0.000266689
-8.94343e-05
0.000269975
-0.000147524
7.08331e-05
7.66018e-05
-0.000120645
-0.000209176
-2.77324e-05
0.000313713
-0.000144733
-0.000285005
0.000113733
0.000171517
-0.000274065
9.71607e-05
0.000176904
0.000202049
-0.000190821
-9.22043e-05
-0.000181861
0.000188634
-0.000278054
-0.000416149
0.000273163
0.000254569
0.000196981